/*--------------------------------*- C++ -*----------------------------------*\
  =========                 |
  \\      /  F ield         | OpenFOAM: The Open Source CFD Toolbox
   \\    /   O peration     | Website:  https://openfoam.org
    \\  /    A nd           | Version:  10
     \\/     M anipulation  |
\*---------------------------------------------------------------------------*/
FoamFile
{
    format      ascii;
    class       volScalarField;
    location    "67000";
    object      k;
}
// * * * * * * * * * * * * * * * * * * * * * * * * * * * * * * * * * * * * * //

dimensions      [0 2 -2 0 0 0 0];

internalField   nonuniform List<scalar> 
17808
(
0.0690221
0.0775209
0.0720702
0.0701965
0.069464
0.0691396
0.0689944
0.0689372
0.0689262
0.0689408
0.06897
0.0690075
0.06905
0.0690953
0.0691422
0.0691897
0.0692376
0.0692854
0.069333
0.0693802
0.0694272
0.0694737
0.0695199
0.0695658
0.0696114
0.0696568
0.0697021
0.0697473
0.0697925
0.0698378
0.0698833
0.069929
0.069975
0.0700214
0.0700683
0.0701158
0.0701639
0.0702127
0.0702624
0.0703129
0.0703643
0.0704168
0.0704705
0.0705253
0.0705814
0.0706389
0.0706979
0.0707583
0.0708204
0.0708841
0.0709497
0.0710171
0.0710864
0.0711578
0.0712313
0.0713069
0.0713849
0.0714652
0.0715481
0.0716334
0.0717214
0.0718122
0.0719058
0.0720024
0.0721019
0.0722046
0.0723105
0.0724198
0.0725325
0.0726488
0.0727687
0.0728923
0.0730199
0.0731515
0.0732872
0.0734272
0.0735715
0.0737204
0.073874
0.0740324
0.0741957
0.0743641
0.0745378
0.074717
0.0749018
0.0750923
0.0752889
0.0754916
0.0757007
0.0759163
0.0761388
0.0763683
0.0689665
0.0775169
0.0720819
0.0702323
0.0695038
0.069179
0.0690319
0.0689723
0.0689588
0.068971
0.0689978
0.0690332
0.0690737
0.0691171
0.0691622
0.0692082
0.0692546
0.0693011
0.0693475
0.0693937
0.0694396
0.0694852
0.0695306
0.0695757
0.0696206
0.0696653
0.06971
0.0697547
0.0697994
0.0698442
0.0698892
0.0699345
0.0699801
0.0700262
0.0700728
0.07012
0.0701678
0.0702163
0.0702657
0.070316
0.0703673
0.0704196
0.070473
0.0705277
0.0705837
0.070641
0.0706998
0.0707602
0.0708221
0.0708858
0.0709512
0.0710185
0.0710878
0.0711591
0.0712325
0.0713081
0.071386
0.0714663
0.071549
0.0716344
0.0717223
0.0718131
0.0719066
0.0720032
0.0721027
0.0722054
0.0723113
0.0724205
0.0725332
0.0726494
0.0727693
0.072893
0.0730206
0.0731522
0.0732879
0.0734278
0.0735722
0.0737211
0.0738746
0.074033
0.0741963
0.0743648
0.0745385
0.0747177
0.0749024
0.075093
0.0752896
0.0754923
0.0757014
0.075917
0.0761395
0.076369
0.0689557
0.0774926
0.0720678
0.0702379
0.0695131
0.0691914
0.0690462
0.0689877
0.0689751
0.0689877
0.0690147
0.06905
0.0690902
0.0691332
0.0691778
0.0692232
0.0692689
0.0693147
0.0693604
0.0694059
0.0694511
0.069496
0.0695407
0.0695852
0.0696296
0.0696738
0.0697179
0.0697621
0.0698063
0.0698507
0.0698953
0.0699402
0.0699855
0.0700312
0.0700775
0.0701244
0.0701719
0.0702202
0.0702693
0.0703194
0.0703704
0.0704225
0.0704758
0.0705303
0.0705861
0.0706433
0.070702
0.0707622
0.070824
0.0708875
0.0709529
0.0710201
0.0710892
0.0711604
0.0712338
0.0713093
0.0713872
0.0714674
0.0715501
0.0716354
0.0717233
0.071814
0.0719075
0.072004
0.0721035
0.0722062
0.0723121
0.0724213
0.072534
0.0726502
0.0727701
0.0728937
0.0730213
0.0731528
0.0732885
0.0734285
0.0735729
0.0737218
0.0738753
0.0740337
0.074197
0.0743655
0.0745392
0.0747183
0.0749031
0.0750937
0.0752903
0.075493
0.0757021
0.0759178
0.0761403
0.0763698
0.0689521
0.0774737
0.0720589
0.0702397
0.0695177
0.0691986
0.0690544
0.0689967
0.0689847
0.0689979
0.0690254
0.0690612
0.0691016
0.0691448
0.0691894
0.0692347
0.0692802
0.0693258
0.0693712
0.0694163
0.0694611
0.0695057
0.0695499
0.069594
0.0696379
0.0696817
0.0697255
0.0697692
0.0698131
0.0698571
0.0699014
0.0699459
0.0699909
0.0700363
0.0700823
0.0701289
0.0701761
0.0702242
0.0702731
0.0703229
0.0703738
0.0704257
0.0704788
0.0705331
0.0705887
0.0706457
0.0707043
0.0707643
0.070826
0.0708895
0.0709547
0.0710218
0.0710908
0.071162
0.0712352
0.0713107
0.0713885
0.0714686
0.0715513
0.0716365
0.0717244
0.071815
0.0719085
0.072005
0.0721044
0.0722071
0.0723129
0.0724221
0.0725347
0.0726509
0.0727708
0.0728945
0.073022
0.0731536
0.0732892
0.0734292
0.0735736
0.0737225
0.073876
0.0740344
0.0741977
0.0743662
0.0745399
0.0747191
0.0749038
0.0750944
0.075291
0.0754937
0.0757028
0.0759185
0.076141
0.0763705
0.0689536
0.077458
0.0720516
0.0702384
0.0695209
0.0692044
0.069061
0.0690038
0.0689921
0.0690057
0.0690336
0.0690696
0.0691104
0.0691537
0.0691984
0.0692438
0.0692894
0.0693348
0.0693801
0.0694251
0.0694697
0.069514
0.0695581
0.0696019
0.0696455
0.069689
0.0697325
0.0697759
0.0698195
0.0698632
0.0699072
0.0699515
0.0699962
0.0700413
0.070087
0.0701334
0.0701804
0.0702282
0.0702769
0.0703265
0.0703772
0.0704289
0.0704818
0.070536
0.0705914
0.0706483
0.0707067
0.0707666
0.0708282
0.0708915
0.0709566
0.0710236
0.0710926
0.0711636
0.0712368
0.0713122
0.0713899
0.07147
0.0715525
0.0716377
0.0717255
0.0718161
0.0719096
0.072006
0.0721054
0.072208
0.0723138
0.072423
0.0725356
0.0726518
0.0727716
0.0728952
0.0730228
0.0731543
0.07329
0.07343
0.0735743
0.0737232
0.0738767
0.0740351
0.0741984
0.0743669
0.0745406
0.0747198
0.0749046
0.0750952
0.0752917
0.0754945
0.0757036
0.0759193
0.0761418
0.0763713
0.068962
0.077444
0.0720433
0.0702337
0.0695214
0.0692073
0.0690648
0.0690082
0.068997
0.069011
0.0690393
0.0690757
0.0691168
0.0691605
0.0692054
0.069251
0.0692966
0.0693422
0.0693875
0.0694324
0.069477
0.0695212
0.0695651
0.0696088
0.0696522
0.0696956
0.0697388
0.0697821
0.0698254
0.0698689
0.0699127
0.0699568
0.0700012
0.0700462
0.0700917
0.0701378
0.0701846
0.0702322
0.0702807
0.0703302
0.0703806
0.0704322
0.0704849
0.0705389
0.0705942
0.070651
0.0707092
0.070769
0.0708305
0.0708936
0.0709586
0.0710255
0.0710944
0.0711653
0.0712384
0.0713137
0.0713913
0.0714714
0.0715539
0.071639
0.0717268
0.0718173
0.0719107
0.0720071
0.0721064
0.072209
0.0723148
0.0724239
0.0725365
0.0726527
0.0727725
0.0728961
0.0730236
0.0731551
0.0732908
0.0734307
0.0735751
0.0737239
0.0738775
0.0740358
0.0741992
0.0743676
0.0745414
0.0747205
0.0749053
0.0750959
0.0752925
0.0754952
0.0757044
0.0759201
0.0761426
0.0763721
0.068975
0.0774322
0.0720347
0.0702276
0.0695203
0.0692079
0.0690666
0.0690105
0.0689998
0.0690142
0.0690429
0.0690798
0.0691212
0.0691652
0.0692105
0.0692563
0.0693022
0.0693479
0.0693933
0.0694383
0.069483
0.0695272
0.0695711
0.0696147
0.0696581
0.0697013
0.0697445
0.0697876
0.0698308
0.0698742
0.0699178
0.0699617
0.070006
0.0700507
0.0700961
0.070142
0.0701887
0.0702362
0.0702845
0.0703338
0.070384
0.0704355
0.070488
0.0705419
0.0705971
0.0706537
0.0707118
0.0707714
0.0708328
0.0708959
0.0709607
0.0710275
0.0710963
0.0711671
0.0712401
0.0713154
0.0713929
0.0714729
0.0715553
0.0716404
0.0717281
0.0718186
0.0719119
0.0720082
0.0721076
0.0722101
0.0723158
0.0724249
0.0725375
0.0726536
0.0727734
0.072897
0.0730245
0.073156
0.0732916
0.0734315
0.0735759
0.0737247
0.0738783
0.0740366
0.0742
0.0743684
0.0745421
0.0747213
0.0749061
0.0750967
0.0752933
0.075496
0.0757052
0.0759209
0.0761434
0.0763729
0.0689902
0.0774224
0.0720266
0.0702214
0.0695184
0.0692076
0.0690673
0.0690118
0.0690014
0.0690161
0.0690452
0.0690824
0.0691243
0.0691686
0.0692142
0.0692603
0.0693065
0.0693524
0.069398
0.0694431
0.0694878
0.0695321
0.0695761
0.0696197
0.0696631
0.0697063
0.0697494
0.0697925
0.0698356
0.0698789
0.0699224
0.0699662
0.0700104
0.070055
0.0701002
0.070146
0.0701926
0.0702399
0.0702881
0.0703372
0.0703874
0.0704387
0.0704911
0.0705448
0.0705999
0.0706564
0.0707144
0.0707739
0.0708351
0.0708981
0.0709629
0.0710296
0.0710983
0.071169
0.0712419
0.0713171
0.0713945
0.0714744
0.0715568
0.0716418
0.0717294
0.0718199
0.0719132
0.0720094
0.0721087
0.0722112
0.0723169
0.0724259
0.0725385
0.0726546
0.0727743
0.0728979
0.0730254
0.0731568
0.0732925
0.0734324
0.0735767
0.0737256
0.0738791
0.0740374
0.0742008
0.0743692
0.0745429
0.0747221
0.0749069
0.0750975
0.0752941
0.0754968
0.075706
0.0759217
0.0761442
0.0763737
0.0690064
0.0774143
0.0720189
0.0702155
0.069516
0.0692068
0.0690674
0.0690124
0.0690023
0.0690174
0.0690467
0.0690843
0.0691264
0.0691711
0.069217
0.0692634
0.0693097
0.0693559
0.0694016
0.0694469
0.0694918
0.0695362
0.0695802
0.0696239
0.0696673
0.0697106
0.0697537
0.0697967
0.0698399
0.0698831
0.0699265
0.0699703
0.0700144
0.070059
0.0701041
0.0701498
0.0701962
0.0702435
0.0702915
0.0703406
0.0703906
0.0704418
0.0704941
0.0705477
0.0706027
0.0706591
0.0707169
0.0707764
0.0708375
0.0709004
0.0709651
0.0710317
0.0711003
0.0711709
0.0712438
0.0713188
0.0713962
0.071476
0.0715584
0.0716433
0.0717309
0.0718212
0.0719145
0.0720107
0.0721099
0.0722123
0.072318
0.072427
0.0725395
0.0726556
0.0727753
0.0728989
0.0730263
0.0731578
0.0732934
0.0734333
0.0735776
0.0737264
0.0738799
0.0740383
0.0742016
0.07437
0.0745438
0.0747229
0.0749077
0.0750983
0.0752949
0.0754977
0.0757068
0.0759225
0.0761451
0.0763746
0.0690232
0.0774076
0.0720118
0.0702099
0.0695131
0.0692054
0.069067
0.0690125
0.0690028
0.0690181
0.0690477
0.0690855
0.0691279
0.0691728
0.069219
0.0692656
0.0693122
0.0693586
0.0694045
0.06945
0.069495
0.0695396
0.0695837
0.0696275
0.069671
0.0697142
0.0697574
0.0698005
0.0698436
0.0698868
0.0699302
0.0699739
0.070018
0.0700625
0.0701076
0.0701533
0.0701996
0.0702468
0.0702948
0.0703437
0.0703937
0.0704448
0.070497
0.0705505
0.0706054
0.0706617
0.0707195
0.0707788
0.0708399
0.0709027
0.0709673
0.0710338
0.0711023
0.0711729
0.0712456
0.0713206
0.071398
0.0714777
0.07156
0.0716448
0.0717323
0.0718227
0.0719158
0.072012
0.0721112
0.0722136
0.0723192
0.0724282
0.0725406
0.0726567
0.0727764
0.0728999
0.0730273
0.0731587
0.0732943
0.0734342
0.0735785
0.0737273
0.0738808
0.0740392
0.0742025
0.0743709
0.0745446
0.0747238
0.0749086
0.0750992
0.0752958
0.0754985
0.0757077
0.0759234
0.0761459
0.0763755
0.06904
0.0774023
0.0720054
0.0702048
0.06951
0.0692036
0.0690662
0.0690122
0.0690028
0.0690183
0.0690481
0.0690861
0.0691288
0.069174
0.0692204
0.0692673
0.0693141
0.0693607
0.0694068
0.0694525
0.0694976
0.0695423
0.0695865
0.0696304
0.069674
0.0697173
0.0697605
0.0698037
0.0698468
0.0698901
0.0699335
0.0699772
0.0700213
0.0700658
0.0701108
0.0701564
0.0702027
0.0702498
0.0702978
0.0703467
0.0703966
0.0704476
0.0704998
0.0705532
0.070608
0.0706642
0.0707219
0.0707812
0.0708422
0.0709049
0.0709694
0.0710359
0.0711043
0.0711748
0.0712475
0.0713224
0.0713997
0.0714794
0.0715616
0.0716464
0.0717338
0.0718241
0.0719172
0.0720133
0.0721125
0.0722148
0.0723204
0.0724294
0.0725418
0.0726578
0.0727775
0.0729009
0.0730283
0.0731598
0.0732953
0.0734352
0.0735795
0.0737283
0.0738818
0.0740401
0.0742034
0.0743718
0.0745455
0.0747247
0.0749095
0.0751001
0.0752967
0.0754994
0.0757086
0.0759243
0.0761468
0.0763764
0.0690565
0.0773981
0.0719998
0.0702001
0.0695068
0.0692016
0.0690651
0.0690116
0.0690024
0.0690182
0.0690482
0.0690865
0.0691294
0.0691748
0.0692214
0.0692685
0.0693155
0.0693623
0.0694086
0.0694544
0.0694997
0.0695445
0.0695889
0.0696329
0.0696765
0.06972
0.0697632
0.0698064
0.0698496
0.0698929
0.0699364
0.0699801
0.0700241
0.0700687
0.0701137
0.0701593
0.0702056
0.0702527
0.0703006
0.0703494
0.0703993
0.0704503
0.0705024
0.0705558
0.0706105
0.0706667
0.0707243
0.0707835
0.0708444
0.0709071
0.0709716
0.0710379
0.0711063
0.0711768
0.0712494
0.0713243
0.0714015
0.0714811
0.0715632
0.071648
0.0717354
0.0718256
0.0719187
0.0720147
0.0721139
0.0722161
0.0723217
0.0724306
0.072543
0.0726589
0.0727786
0.072902
0.0730294
0.0731608
0.0732963
0.0734362
0.0735804
0.0737292
0.0738827
0.074041
0.0742043
0.0743727
0.0745464
0.0747256
0.0749104
0.075101
0.0752976
0.0755004
0.0757095
0.0759252
0.0761478
0.0763773
0.0690724
0.0773949
0.0719949
0.0701959
0.0695037
0.0691995
0.0690637
0.0690107
0.0690019
0.0690178
0.0690481
0.0690865
0.0691296
0.0691752
0.069222
0.0692693
0.0693165
0.0693635
0.06941
0.0694559
0.0695014
0.0695463
0.0695908
0.0696349
0.0696787
0.0697222
0.0697655
0.0698088
0.069852
0.0698954
0.0699389
0.0699826
0.0700267
0.0700712
0.0701163
0.0701619
0.0702082
0.0702552
0.0703031
0.070352
0.0704018
0.0704527
0.0705048
0.0705582
0.0706129
0.070669
0.0707266
0.0707858
0.0708466
0.0709092
0.0709736
0.07104
0.0711083
0.0711787
0.0712512
0.0713261
0.0714032
0.0714828
0.0715649
0.0716496
0.0717369
0.0718271
0.0719201
0.0720161
0.0721152
0.0722175
0.072323
0.0724318
0.0725442
0.0726601
0.0727797
0.0729032
0.0730305
0.0731619
0.0732974
0.0734372
0.0735815
0.0737302
0.0738837
0.074042
0.0742053
0.0743737
0.0745474
0.0747266
0.0749113
0.0751019
0.0752985
0.0755013
0.0757104
0.0759262
0.0761487
0.0763783
0.0690875
0.0773926
0.0719908
0.0701923
0.0695006
0.0691973
0.0690622
0.0690096
0.0690011
0.0690173
0.0690477
0.0690863
0.0691295
0.0691753
0.0692224
0.0692698
0.0693173
0.0693644
0.069411
0.0694571
0.0695027
0.0695478
0.0695924
0.0696366
0.0696804
0.069724
0.0697675
0.0698108
0.0698541
0.0698975
0.069941
0.0699848
0.070029
0.0700735
0.0701186
0.0701642
0.0702105
0.0702576
0.0703055
0.0703543
0.0704041
0.070455
0.0705071
0.0705605
0.0706151
0.0706712
0.0707288
0.0707879
0.0708487
0.0709113
0.0709756
0.0710419
0.0711102
0.0711806
0.0712531
0.0713278
0.0714049
0.0714845
0.0715665
0.0716511
0.0717385
0.0718286
0.0719216
0.0720176
0.0721166
0.0722188
0.0723243
0.0724331
0.0725454
0.0726613
0.0727809
0.0729043
0.0730316
0.073163
0.0732985
0.0734383
0.0735825
0.0737313
0.0738847
0.074043
0.0742063
0.0743747
0.0745484
0.0747275
0.0749123
0.0751029
0.0752995
0.0755023
0.0757114
0.0759271
0.0761497
0.0763792
0.0691018
0.077391
0.0719874
0.0701891
0.0694977
0.0691951
0.0690605
0.0690084
0.0690002
0.0690166
0.0690471
0.0690859
0.0691293
0.0691753
0.0692225
0.0692701
0.0693177
0.069365
0.0694118
0.069458
0.0695037
0.0695489
0.0695937
0.069638
0.0696819
0.0697256
0.0697691
0.0698125
0.0698559
0.0698994
0.069943
0.0699868
0.070031
0.0700756
0.0701206
0.0701663
0.0702126
0.0702597
0.0703076
0.0703564
0.0704063
0.0704572
0.0705092
0.0705626
0.0706172
0.0706732
0.0707308
0.0707899
0.0708507
0.0709132
0.0709776
0.0710438
0.071112
0.0711824
0.0712548
0.0713296
0.0714066
0.0714861
0.0715681
0.0716527
0.07174
0.0718301
0.0719231
0.072019
0.072118
0.0722202
0.0723256
0.0724344
0.0725467
0.0726626
0.0727821
0.0729055
0.0730328
0.0731641
0.0732996
0.0734394
0.0735836
0.0737323
0.0738858
0.074044
0.0742073
0.0743757
0.0745494
0.0747285
0.0749133
0.0751039
0.0753005
0.0755033
0.0757124
0.0759281
0.0761507
0.0763802
0.0691152
0.0773902
0.0719847
0.0701864
0.0694951
0.0691929
0.0690588
0.0690071
0.0689991
0.0690157
0.0690464
0.0690854
0.0691289
0.0691751
0.0692224
0.0692702
0.069318
0.0693654
0.0694123
0.0694587
0.0695046
0.0695499
0.0695947
0.0696391
0.0696831
0.0697269
0.0697705
0.069814
0.0698574
0.069901
0.0699446
0.0699885
0.0700327
0.0700774
0.0701225
0.0701682
0.0702145
0.0702616
0.0703095
0.0703584
0.0704082
0.0704591
0.0705112
0.0705645
0.0706191
0.0706752
0.0707327
0.0707918
0.0708526
0.0709151
0.0709794
0.0710456
0.0711138
0.0711841
0.0712566
0.0713313
0.0714083
0.0714878
0.0715697
0.0716543
0.0717416
0.0718316
0.0719245
0.0720204
0.0721194
0.0722215
0.0723269
0.0724357
0.072548
0.0726638
0.0727834
0.0729067
0.073034
0.0731653
0.0733007
0.0734405
0.0735847
0.0737334
0.0738868
0.0740451
0.0742084
0.0743767
0.0745504
0.0747296
0.0749144
0.075105
0.0753015
0.0755043
0.0757135
0.0759292
0.0761517
0.0763813
0.0691277
0.0773899
0.0719828
0.0701843
0.0694928
0.0691908
0.069057
0.0690056
0.0689979
0.0690147
0.0690456
0.0690847
0.0691284
0.0691747
0.0692222
0.0692702
0.069318
0.0693656
0.0694127
0.0694592
0.0695052
0.0695506
0.0695955
0.06964
0.0696842
0.069728
0.0697717
0.0698152
0.0698588
0.0699023
0.0699461
0.06999
0.0700343
0.0700789
0.0701241
0.0701698
0.0702162
0.0702633
0.0703113
0.0703601
0.07041
0.0704609
0.070513
0.0705663
0.0706209
0.070677
0.0707345
0.0707936
0.0708544
0.0709168
0.0709811
0.0710473
0.0711155
0.0711858
0.0712582
0.0713329
0.0714099
0.0714893
0.0715713
0.0716558
0.0717431
0.0718331
0.071926
0.0720218
0.0721208
0.0722229
0.0723283
0.072437
0.0725493
0.0726651
0.0727846
0.0729079
0.0730351
0.0731664
0.0733019
0.0734416
0.0735858
0.0737345
0.0738879
0.0740462
0.0742094
0.0743778
0.0745515
0.0747306
0.0749154
0.075106
0.0753026
0.0755054
0.0691393
0.0773902
0.0719814
0.0701826
0.0694907
0.0691888
0.0690553
0.0690041
0.0689967
0.0690137
0.0690447
0.0690839
0.0691278
0.0691742
0.0692219
0.0692699
0.069318
0.0693657
0.0694129
0.0694595
0.0695056
0.0695511
0.0695962
0.0696408
0.069685
0.0697289
0.0697727
0.0698163
0.0698599
0.0699035
0.0699473
0.0699913
0.0700356
0.0700803
0.0701255
0.0701713
0.0702177
0.0702649
0.0703129
0.0703617
0.0704116
0.0704625
0.0705146
0.070568
0.0706226
0.0706786
0.0707362
0.0707953
0.070856
0.0709185
0.0709828
0.071049
0.0711172
0.0711874
0.0712598
0.0713345
0.0714115
0.0714909
0.0715728
0.0716573
0.0717445
0.0718345
0.0719274
0.0720233
0.0721222
0.0722243
0.0723296
0.0724383
0.0725505
0.0726663
0.0727858
0.0729091
0.0730364
0.0731676
0.0733031
0.0734428
0.0735869
0.0737356
0.073889
0.0740473
0.0742105
0.0743789
0.0745526
0.0747317
0.0749165
0.0751071
0.0753037
0.0755065
0.06915
0.0773909
0.0719807
0.0701813
0.069489
0.069187
0.0690536
0.0690026
0.0689954
0.0690125
0.0690437
0.0690831
0.0691271
0.0691736
0.0692214
0.0692696
0.0693178
0.0693656
0.0694129
0.0694597
0.0695059
0.0695515
0.0695967
0.0696414
0.0696857
0.0697297
0.0697735
0.0698172
0.0698608
0.0699045
0.0699484
0.0699924
0.0700368
0.0700816
0.0701268
0.0701726
0.0702191
0.0702663
0.0703143
0.0703632
0.0704131
0.070464
0.0705161
0.0705695
0.0706241
0.0706802
0.0707377
0.0707968
0.0708576
0.0709201
0.0709843
0.0710505
0.0711187
0.071189
0.0712614
0.071336
0.071413
0.0714924
0.0715743
0.0716588
0.071746
0.071836
0.0719288
0.0720246
0.0721235
0.0722256
0.0723309
0.0724396
0.0725518
0.0726676
0.0727871
0.0729104
0.0730376
0.0731688
0.0733042
0.0734439
0.0735881
0.0737368
0.0738902
0.0740484
0.0742117
0.07438
0.0745537
0.0747329
0.0749176
0.0751082
0.0753048
0.0755076
0.0691599
0.077392
0.0719805
0.0701806
0.0694876
0.0691854
0.0690519
0.0690011
0.068994
0.0690113
0.0690427
0.0690821
0.0691263
0.069173
0.0692209
0.0692692
0.0693175
0.0693654
0.0694129
0.0694598
0.0695061
0.0695518
0.069597
0.0696418
0.0696862
0.0697303
0.0697742
0.0698179
0.0698617
0.0699054
0.0699493
0.0699934
0.0700378
0.0700827
0.0701279
0.0701738
0.0702203
0.0702675
0.0703155
0.0703645
0.0704144
0.0704654
0.0705175
0.0705709
0.0706256
0.0706816
0.0707392
0.0707983
0.070859
0.0709215
0.0709858
0.071052
0.0711202
0.0711904
0.0712628
0.0713375
0.0714144
0.0714938
0.0715757
0.0716602
0.0717474
0.0718373
0.0719302
0.072026
0.0721249
0.0722269
0.0723322
0.0724409
0.0725531
0.0726689
0.0727883
0.0729116
0.0730388
0.07317
0.0733054
0.0734451
0.0735893
0.0737379
0.0738913
0.0740496
0.0742128
0.0743812
0.0745549
0.074734
0.0749188
0.0691691
0.0773933
0.0719807
0.0701802
0.0694866
0.069184
0.0690504
0.0689996
0.0689926
0.0690101
0.0690415
0.0690811
0.0691254
0.0691722
0.0692202
0.0692687
0.0693171
0.0693652
0.0694127
0.0694597
0.0695061
0.069552
0.0695973
0.0696421
0.0696866
0.0697308
0.0697748
0.0698186
0.0698624
0.0699062
0.0699501
0.0699943
0.0700387
0.0700836
0.0701289
0.0701748
0.0702214
0.0702686
0.0703167
0.0703657
0.0704156
0.0704666
0.0705188
0.0705722
0.0706269
0.0706829
0.0707405
0.0707996
0.0708604
0.0709229
0.0709872
0.0710534
0.0711216
0.0711918
0.0712642
0.0713388
0.0714158
0.0714952
0.0715771
0.0716616
0.0717487
0.0718387
0.0719315
0.0720273
0.0721262
0.0722282
0.0723335
0.0724422
0.0725544
0.0726701
0.0727896
0.0729128
0.07304
0.0731712
0.0733066
0.0734463
0.0735904
0.0737391
0.0738925
0.0740507
0.074214
0.0743823
0.074556
0.0747352
0.07492
0.0691776
0.077395
0.0719814
0.0701802
0.0694859
0.0691828
0.069049
0.0689982
0.0689912
0.0690088
0.0690404
0.0690801
0.0691245
0.0691714
0.0692195
0.0692681
0.0693166
0.0693648
0.0694125
0.0694596
0.0695061
0.069552
0.0695974
0.0696424
0.0696869
0.0697312
0.0697752
0.0698191
0.0698629
0.0699068
0.0699508
0.069995
0.0700395
0.0700844
0.0701298
0.0701757
0.0702223
0.0702696
0.0703177
0.0703667
0.0704167
0.0704677
0.0705199
0.0705733
0.070628
0.0706842
0.0707417
0.0708009
0.0708617
0.0709242
0.0709885
0.0710547
0.0711229
0.0711931
0.0712655
0.0713402
0.0714171
0.0714965
0.0715784
0.0716629
0.07175
0.07184
0.0719328
0.0720286
0.0721275
0.0722295
0.0723348
0.0724435
0.0725556
0.0726713
0.0727908
0.072914
0.0730412
0.0731724
0.0733078
0.0734475
0.0735916
0.0737403
0.0738937
0.0740519
0.0742151
0.0743835
0.0745572
0.0747364
0.0749212
0.0691855
0.0773969
0.0719825
0.0701807
0.0694855
0.0691819
0.0690478
0.0689968
0.0689899
0.0690075
0.0690392
0.069079
0.0691235
0.0691705
0.0692188
0.0692675
0.0693161
0.0693644
0.0694122
0.0694594
0.069506
0.069552
0.0695975
0.0696425
0.0696872
0.0697315
0.0697756
0.0698195
0.0698634
0.0699074
0.0699514
0.0699957
0.0700402
0.0700852
0.0701306
0.0701766
0.0702232
0.0702705
0.0703186
0.0703677
0.0704177
0.0704688
0.070521
0.0705744
0.0706291
0.0706853
0.0707429
0.070802
0.0708628
0.0709253
0.0709897
0.0710559
0.0711241
0.0711944
0.0712668
0.0713414
0.0714184
0.0714978
0.0715796
0.0716641
0.0717513
0.0718412
0.0719341
0.0720298
0.0721287
0.0722307
0.072336
0.0724447
0.0725568
0.0726726
0.072792
0.0729152
0.0730424
0.0731736
0.073309
0.0734487
0.0735928
0.0737415
0.0738949
0.0740531
0.0742163
0.0743847
0.0745584
0.0747376
0.0749224
0.0691928
0.077399
0.071984
0.0701814
0.0694855
0.0691812
0.0690467
0.0689956
0.0689886
0.0690062
0.0690379
0.0690778
0.0691224
0.0691696
0.0692179
0.0692667
0.0693155
0.0693639
0.0694118
0.0694591
0.0695058
0.0695519
0.0695975
0.0696426
0.0696873
0.0697317
0.0697758
0.0698199
0.0698638
0.0699078
0.0699519
0.0699962
0.0700408
0.0700858
0.0701313
0.0701773
0.0702239
0.0702713
0.0703195
0.0703685
0.0704186
0.0704697
0.0705219
0.0705754
0.0706301
0.0706863
0.0707439
0.0708031
0.0708639
0.0709265
0.0709908
0.071057
0.0711252
0.0711955
0.0712679
0.0713426
0.0714196
0.071499
0.0715808
0.0716653
0.0717525
0.0718424
0.0719353
0.0720311
0.0721299
0.0722319
0.0723372
0.0724459
0.072558
0.0726738
0.0727932
0.0729164
0.0730436
0.0731748
0.0733102
0.0734499
0.073594
0.0737427
0.073896
0.0740543
0.0742175
0.0743859
0.0745597
0.0747388
0.0749236
0.0691997
0.0774011
0.0719857
0.0701825
0.0694858
0.0691808
0.0690459
0.0689944
0.0689873
0.0690049
0.0690367
0.0690767
0.0691213
0.0691686
0.0692171
0.069266
0.0693148
0.0693633
0.0694113
0.0694587
0.0695055
0.0695517
0.0695974
0.0696426
0.0696874
0.0697318
0.069776
0.0698201
0.0698641
0.0699082
0.0699523
0.0699967
0.0700413
0.0700864
0.0701319
0.0701779
0.0702246
0.070272
0.0703202
0.0703693
0.0704194
0.0704705
0.0705228
0.0705763
0.0706311
0.0706872
0.0707449
0.0708041
0.0708649
0.0709275
0.0709918
0.0710581
0.0711263
0.0711966
0.071269
0.0713437
0.0714207
0.0715001
0.071582
0.0716665
0.0717537
0.0718436
0.0719364
0.0720322
0.0721311
0.0722331
0.0723384
0.0724471
0.0725592
0.0726749
0.0727944
0.0729176
0.0730448
0.073176
0.0733114
0.073451
0.0735952
0.0737438
0.0738972
0.0740555
0.0742188
0.0743872
0.0745609
0.0747401
0.0749248
0.069206
0.0774034
0.0719876
0.0701839
0.0694864
0.0691807
0.0690452
0.0689934
0.0689861
0.0690037
0.0690355
0.0690755
0.0691202
0.0691676
0.0692161
0.0692652
0.0693141
0.0693627
0.0694108
0.0694583
0.0695052
0.0695515
0.0695972
0.0696425
0.0696874
0.0697319
0.0697762
0.0698203
0.0698644
0.0699085
0.0699527
0.0699971
0.0700418
0.0700869
0.0701324
0.0701785
0.0702252
0.0702727
0.0703209
0.07037
0.0704201
0.0704713
0.0705236
0.0705771
0.0706319
0.0706881
0.0707458
0.070805
0.0708659
0.0709284
0.0709928
0.0710591
0.0711273
0.0711976
0.0712701
0.0713448
0.0714218
0.0715012
0.0715831
0.0716676
0.0717548
0.0718447
0.0719376
0.0720334
0.0721322
0.0722342
0.0723395
0.0724482
0.0725604
0.0726761
0.0727955
0.0729188
0.0730459
0.0731771
0.0733125
0.0734522
0.0735963
0.073745
0.0738984
0.0740567
0.07422
0.0743884
0.0745621
0.0747413
0.0749261
0.069212
0.0774058
0.0719898
0.0701856
0.0694873
0.0691808
0.0690448
0.0689926
0.0689851
0.0690025
0.0690342
0.0690743
0.0691191
0.0691665
0.0692152
0.0692643
0.0693133
0.0693621
0.0694102
0.0694578
0.0695048
0.0695512
0.069597
0.0696424
0.0696873
0.0697319
0.0697762
0.0698204
0.0698646
0.0699087
0.069953
0.0699974
0.0700422
0.0700873
0.0701329
0.070179
0.0702257
0.0702732
0.0703215
0.0703707
0.0704208
0.070472
0.0705243
0.0705778
0.0706327
0.0706889
0.0707466
0.0708059
0.0708667
0.0709293
0.0709937
0.07106
0.0711283
0.0711986
0.0712711
0.0713458
0.0714228
0.0715022
0.0715841
0.0716686
0.0717558
0.0718458
0.0719386
0.0720344
0.0721333
0.0722354
0.0723407
0.0724493
0.0725615
0.0726772
0.0727966
0.0729199
0.0730471
0.0731783
0.0733137
0.0734534
0.0735975
0.0737462
0.0738996
0.0740579
0.0742212
0.0743896
0.0745634
0.0747425
0.0749273
0.0692177
0.0774082
0.0719921
0.0701875
0.0694884
0.0691812
0.0690445
0.0689919
0.0689841
0.0690014
0.0690331
0.0690731
0.069118
0.0691654
0.0692142
0.0692634
0.0693125
0.0693613
0.0694096
0.0694573
0.0695044
0.0695508
0.0695967
0.0696422
0.0696872
0.0697318
0.0697763
0.0698205
0.0698647
0.0699089
0.0699532
0.0699977
0.0700425
0.0700876
0.0701333
0.0701794
0.0702262
0.0702737
0.070322
0.0703712
0.0704214
0.0704726
0.070525
0.0705785
0.0706334
0.0706897
0.0707474
0.0708066
0.0708676
0.0709302
0.0709946
0.0710609
0.0711292
0.0711995
0.071272
0.0713467
0.0714237
0.0715032
0.0715851
0.0716696
0.0717568
0.0718468
0.0719397
0.0720355
0.0721344
0.0722364
0.0723417
0.0724504
0.0725626
0.0726783
0.0727978
0.072921
0.0730482
0.0731794
0.0733148
0.0734545
0.0735987
0.0737474
0.0739008
0.0740591
0.0742224
0.0743909
0.0745646
0.0747438
0.0749285
0.069223
0.0774106
0.0719946
0.0701896
0.0694898
0.0691819
0.0690445
0.0689914
0.0689833
0.0690003
0.0690319
0.069072
0.0691168
0.0691643
0.0692132
0.0692624
0.0693117
0.0693606
0.069409
0.0694567
0.0695039
0.0695504
0.0695964
0.0696419
0.069687
0.0697317
0.0697762
0.0698205
0.0698648
0.069909
0.0699534
0.0699979
0.0700427
0.0700879
0.0701336
0.0701798
0.0702266
0.0702742
0.0703225
0.0703718
0.0704219
0.0704732
0.0705256
0.0705792
0.0706341
0.0706903
0.0707481
0.0708074
0.0708683
0.0709309
0.0709954
0.0710617
0.07113
0.0712004
0.0712729
0.0713476
0.0714246
0.0715041
0.0715861
0.0716706
0.0717578
0.0718478
0.0719407
0.0720365
0.0721354
0.0722374
0.0723428
0.0724515
0.0725636
0.0726794
0.0727988
0.0729221
0.0730493
0.0731805
0.073316
0.0734557
0.0735999
0.0737486
0.073902
0.0740604
0.0742237
0.0743921
0.0745659
0.074745
0.0749298
0.0692281
0.077413
0.0719972
0.0701919
0.0694915
0.0691827
0.0690447
0.0689911
0.0689826
0.0689994
0.0690309
0.0690708
0.0691157
0.0691632
0.0692121
0.0692615
0.0693108
0.0693598
0.0694083
0.0694561
0.0695034
0.06955
0.0695961
0.0696416
0.0696868
0.0697316
0.0697761
0.0698205
0.0698648
0.0699091
0.0699535
0.0699981
0.070043
0.0700882
0.0701339
0.0701801
0.070227
0.0702746
0.070323
0.0703722
0.0704224
0.0704737
0.0705261
0.0705797
0.0706347
0.070691
0.0707487
0.0708081
0.070869
0.0709317
0.0709961
0.0710625
0.0711308
0.0712012
0.0712737
0.0713484
0.0714255
0.071505
0.0715869
0.0716715
0.0717587
0.0718487
0.0719416
0.0720375
0.0721364
0.0722384
0.0723438
0.0724525
0.0725647
0.0726804
0.0727999
0.0729232
0.0730504
0.0731816
0.0733171
0.0734568
0.073601
0.0737498
0.0739032
0.0740616
0.0742249
0.0743934
0.0745671
0.0747463
0.074931
0.0692329
0.0774153
0.0719998
0.0701943
0.0694933
0.0691839
0.0690452
0.068991
0.068982
0.0689986
0.0690299
0.0690697
0.0691146
0.0691621
0.0692111
0.0692605
0.0693099
0.069359
0.0694075
0.0694555
0.0695028
0.0695495
0.0695956
0.0696413
0.0696865
0.0697314
0.069776
0.0698204
0.0698648
0.0699091
0.0699536
0.0699982
0.0700431
0.0700884
0.0701341
0.0701804
0.0702273
0.0702749
0.0703233
0.0703726
0.0704229
0.0704742
0.0705266
0.0705803
0.0706352
0.0706916
0.0707493
0.0708087
0.0708697
0.0709323
0.0709968
0.0710632
0.0711315
0.0712019
0.0712745
0.0713492
0.0714263
0.0715058
0.0715878
0.0716724
0.0717596
0.0718496
0.0719425
0.0720384
0.0721373
0.0722394
0.0723448
0.0724535
0.0725657
0.0726815
0.0728009
0.0729242
0.0730515
0.0731827
0.0733182
0.073458
0.0736022
0.0737509
0.0739044
0.0740628
0.0742261
0.0743946
0.0745683
0.0747475
0.0749322
0.0692375
0.0774176
0.0720025
0.0701969
0.0694953
0.0691852
0.0690458
0.068991
0.0689816
0.0689979
0.0690289
0.0690687
0.0691135
0.069161
0.06921
0.0692595
0.069309
0.0693581
0.0694067
0.0694548
0.0695022
0.069549
0.0695952
0.0696409
0.0696862
0.0697311
0.0697758
0.0698203
0.0698647
0.0699091
0.0699536
0.0699983
0.0700433
0.0700886
0.0701344
0.0701807
0.0702276
0.0702752
0.0703237
0.070373
0.0704233
0.0704746
0.0705271
0.0705808
0.0706357
0.0706921
0.0707499
0.0708093
0.0708703
0.070933
0.0709975
0.0710639
0.0711322
0.0712027
0.0712752
0.07135
0.0714271
0.0715066
0.0715886
0.0716732
0.0717605
0.0718505
0.0719434
0.0720393
0.0721382
0.0722403
0.0723457
0.0724544
0.0725667
0.0726825
0.072802
0.0729253
0.0730525
0.0731838
0.0733193
0.0734591
0.0736033
0.0737521
0.0739056
0.074064
0.0742273
0.0743958
0.0745696
0.0747487
0.0749335
0.069242
0.0774198
0.0720052
0.0701995
0.0694975
0.0691867
0.0690467
0.0689913
0.0689814
0.0689973
0.0690281
0.0690677
0.0691124
0.06916
0.0692089
0.0692585
0.069308
0.0693572
0.0694059
0.069454
0.0695015
0.0695484
0.0695947
0.0696405
0.0696858
0.0697309
0.0697756
0.0698201
0.0698646
0.0699091
0.0699536
0.0699983
0.0700433
0.0700887
0.0701345
0.0701809
0.0702278
0.0702755
0.070324
0.0703733
0.0704237
0.070475
0.0705275
0.0705812
0.0706362
0.0706926
0.0707504
0.0708098
0.0708708
0.0709336
0.0709981
0.0710645
0.0711329
0.0712033
0.0712759
0.0713507
0.0714278
0.0715074
0.0715894
0.071674
0.0717613
0.0718513
0.0719443
0.0720402
0.0721391
0.0722412
0.0723466
0.0724554
0.0725676
0.0726834
0.0728029
0.0729263
0.0730535
0.0731849
0.0733204
0.0734602
0.0736044
0.0737532
0.0739068
0.0740651
0.0742285
0.074397
0.0745708
0.07475
0.0749347
0.0692463
0.077422
0.0720079
0.0702023
0.0694999
0.0691885
0.0690477
0.0689917
0.0689813
0.0689968
0.0690274
0.0690668
0.0691114
0.0691589
0.0692079
0.0692574
0.069307
0.0693563
0.0694051
0.0694533
0.0695008
0.0695478
0.0695942
0.06964
0.0696855
0.0697305
0.0697753
0.0698199
0.0698644
0.069909
0.0699536
0.0699983
0.0700434
0.0700888
0.0701346
0.070181
0.070228
0.0702758