/*--------------------------------*- C++ -*----------------------------------*\
  =========                 |
  \\      /  F ield         | OpenFOAM: The Open Source CFD Toolbox
   \\    /   O peration     | Website:  https://openfoam.org
    \\  /    A nd           | Version:  10
     \\/     M anipulation  |
\*---------------------------------------------------------------------------*/
FoamFile
{
    format      ascii;
    class       volScalarField;
    location    "67000";
    object      yPlus;
}
// * * * * * * * * * * * * * * * * * * * * * * * * * * * * * * * * * * * * * //

dimensions      [0 0 0 0 0 0 0];

internalField   uniform 0;

boundaryField
{
    right
    {
        type            cyclic;
    }
    left
    {
        type            cyclic;
    }
    outerWall
    {
        type            calculated;
        value           nonuniform List<scalar> 
200
(
17.7543
17.7472
17.7459
17.7455
17.7457
17.7468
17.7485
17.7505
17.7527
17.7549
17.7571
17.7593
17.7614
17.7634
17.7653
17.7671
17.7687
17.7703
17.7717
17.7731
17.7743
17.7755
17.7766
17.7776
17.7785
17.7794
17.7803
17.781
17.7818
17.7825
17.7832
17.7839
17.7846
17.7852
17.7858
17.7864
17.787
17.7876
17.7881
17.7887
17.7892
17.7898
17.7903
17.7908
17.7913
17.7918
17.7923
17.7928
17.7932
17.7937
17.7941
17.7945
17.7949
17.7953
17.7956
17.796
17.7963
17.7966
17.7968
17.797
17.7972
17.7974
17.7975
17.7975
17.7975
17.7975
17.7974
17.7974
17.7964
17.7939
17.7907
17.7868
17.7834
17.7775
17.7739
17.7738
17.7753
17.7771
17.7785
17.7783
17.7319
17.7346
17.7425
17.7511
17.7598
17.7689
17.7779
17.7866
17.7949
17.8027
17.8101
17.8169
17.8231
17.8288
17.8339
17.8385
17.8426
17.8461
17.8492
17.8517
17.8537
17.8552
17.8563
17.8568
17.8569
17.8565
17.8557
17.8543
17.8525
17.8501
17.8472
17.8437
17.8396
17.8348
17.8292
17.8227
17.8149
17.8054
17.7934
17.7748
17.7797
17.7838
17.7861
17.7875
17.7884
17.789
17.7877
17.784
17.7798
17.7766
17.7746
17.7738
17.7736
17.7749
17.7768
17.7788
17.7807
17.7823
17.7838
17.785
17.7861
17.787
17.7877
17.7884
17.7889
17.7894
17.7897
17.7901
17.7903
17.7906
17.7908
17.7909
17.791
17.7911
17.7911
17.7911
17.7911
17.7911
17.7911
17.791
17.7909
17.7908
17.7907
17.7905
17.7904
17.7902
17.79
17.7898
17.7896
17.7893
17.7891
17.7888
17.7885
17.7882
17.7878
17.7875
17.7871
17.7867
17.7863
17.7858
17.7854
17.7848
17.7843
17.7837
17.7831
17.7824
17.7816
17.7808
17.7799
17.7788
17.7777
17.7764
17.7749
17.7732
17.7711
17.7685
17.7653
17.761
17.7549
17.7426
)
;
    }
    stirrerWall
    {
        type            calculated;
        value           nonuniform List<scalar> 0();
    }
    top
    {
        type            empty;
    }
    bottom
    {
        type            empty;
    }
    procBoundary2to3
    {
        type            processor;
        value           uniform 0;
    }
}


// ************************************************************************* //
