/*--------------------------------*- C++ -*----------------------------------*\
  =========                 |
  \\      /  F ield         | OpenFOAM: The Open Source CFD Toolbox
   \\    /   O peration     | Website:  https://openfoam.org
    \\  /    A nd           | Version:  10
     \\/     M anipulation  |
\*---------------------------------------------------------------------------*/
FoamFile
{
    format      ascii;
    class       volScalarField;
    location    "5000";
    object      omega;
}
// * * * * * * * * * * * * * * * * * * * * * * * * * * * * * * * * * * * * * //

dimensions      [0 0 -1 0 0 0 0];

internalField   nonuniform List<scalar> 
17808
(
17190.1
6975.61
3976.12
2738.8
2074.95
1663.87
1385.06
1183.72
1031.6
912.645
817.06
738.557
672.944
617.288
569.468
527.91
491.422
459.088
430.195
404.188
380.625
359.158
339.504
321.437
304.766
289.335
275.009
261.674
249.232
237.594
226.688
216.446
206.812
197.733
189.165
181.067
173.403
166.142
159.254
152.712
146.493
140.575
134.939
129.567
124.442
119.55
114.877
110.41
106.138
102.048
98.1309
94.3764
90.7756
87.3205
84.0044
80.8221
77.7695
74.8438
72.0424
69.3625
66.8004
64.3514
62.0094
59.7662
57.6151
55.5522
53.5749
51.6801
49.865
48.1263
46.4609
44.8655
43.3371
41.8724
40.4684
39.1221
37.8307
36.5915
35.4017
34.2589
33.1606
32.1047
31.0889
30.1112
29.1695
28.2622
27.3874
26.5434
25.7287
24.9417
24.181
23.4449
17191.5
6973.66
3976.79
2740.1
2076.31
1665.1
1386.09
1184.58
1032.3
913.234
817.593
739.043
673.359
617.631
569.747
528.135
491.602
459.232
430.312
404.284
380.705
359.226
339.563
321.488
304.811
289.375
275.044
261.705
249.258
237.618
226.708
216.464
206.827
197.746
189.176
181.076
173.411
166.149
159.259
152.716
146.496
140.578
134.941
129.568
124.443
119.55
114.877
110.41
106.137
102.047
98.1295
94.375
90.7742
87.3192
84.0032
80.8209
77.7681
74.8418
72.0393
69.358
66.7944
64.344
62.001
59.7577
57.607
55.5446
53.5677
51.6734
49.8587
48.1205
46.4555
44.8606
43.3326
41.8683
40.4647
39.1188
37.8277
36.5887
35.3992
34.2566
33.1586
32.1028
31.0871
30.1095
29.168
28.2606
27.3858
26.5418
25.7269
24.9398
24.179
23.4427
17194.6
6972.19
3977.08
2740.59
2076.85
1665.64
1386.6
1185.04
1032.7
913.574
817.888
739.348
673.675
617.915
569.984
528.328
491.758
459.358
430.414
404.368
380.776
359.286
339.616
321.535
304.853
289.412
275.078
261.735
249.285
237.642
226.729
216.483
206.844
197.761
189.189
181.088
173.422
166.158
159.267
152.723
146.502
140.582
134.945
129.571
124.446
119.553
114.879
110.411
106.138
102.048
98.1301
94.3755
90.7747
87.3198
84.004
80.8217
77.7686
74.8417
72.0382
69.3555
66.7903
64.3384
61.9943
59.7509
57.6005
55.5385
53.562
51.6682
49.854
48.1162
46.4516
44.8572
43.3296
41.8657
40.4624
39.1169
37.8261
36.5874
35.3982
34.2558
33.1579
32.1023
31.0868
30.1092
29.1677
28.2604
27.3855
26.5415
25.7265
24.9393
24.1783
23.4419
17197.1
6971.15
3977.23
2740.83
2077.15
1665.96
1386.9
1185.32
1032.96
913.796
818.079
739.532
673.884
618.136
570.183
528.492
491.89
459.463
430.499
404.436
380.833
359.336
339.66
321.574
304.889
289.445
275.108
261.762
249.31
237.664
226.749
216.501
206.86
197.775
189.202
181.1
173.432
166.167
159.275
152.73
146.508
140.588
134.95
129.576
124.45
119.556
114.882
110.414
106.14
102.049
98.1318
94.3771
90.7764
87.3216
84.0058
80.8235
77.7702
74.8427
72.0382
69.3541
66.7873
64.3339
61.9888
59.7451
57.595
55.5333
53.5572
51.6638
49.85
48.1127
46.4486
44.8545
43.3274
41.8639
40.461
39.1158
37.8253
36.5869
35.3979
34.2558
33.1581
32.1027
31.0872
30.1098
29.1683
28.261
27.3861
26.542
25.727
24.9396
24.1785
23.4419
17199.2
6969.95
3976.97
2740.76
2077.2
1666.08
1387.05
1185.48
1033.11
913.935
818.201
739.639
674.013
618.298
570.345
528.631
492.001
459.55
430.567
404.491
380.879
359.375
339.694
321.605
304.918
289.471
275.132
261.785
249.331
237.683
226.767
216.517
206.875
197.789
189.215
181.111
173.443
166.176
159.284
152.738
146.515
140.594
134.956
129.581
124.454
119.56
114.885
110.417
106.143
102.052
98.1344
94.3796
90.779
87.3243
84.0086
80.8263
77.7727
74.8446
72.0391
69.3536
66.7853
64.3304
61.9841
59.7401
57.5902
55.5289
53.5532
51.6602
49.8468
48.1099
46.4463
44.8527
43.3259
41.8628
40.4603
39.1154
37.8253
36.5872
35.3985
34.2566
33.1591
32.1038
31.0885
30.1111
29.1697
28.2624
27.3875
26.5433
25.7283
24.9408
24.1795
23.4427
17201.2
6968.94
3976.59
2740.56
2077.12
1666.06
1387.09
1185.54
1033.18
914.007
818.268
739.696
674.081
618.4
570.467
528.746
492.095
459.623
430.622
404.534
380.913
359.403
339.719
321.628
304.939
289.492
275.151
261.803
249.348
237.699
226.782
216.531
206.888
197.801
189.226
181.122
173.452
166.185
159.292
152.746
146.522
140.601
134.962
129.586
124.459
119.565
114.89
110.421
106.147
102.056
98.1377
94.3829
90.7823
87.3277
84.0121
80.8298
77.7761
74.8474
72.0409
69.3541
66.7842
64.3278
61.9805
59.7361
57.5863
55.5252
53.5499
51.6573
49.8443
48.1079
46.4447
44.8515
43.3251
41.8624
40.4603
39.1158
37.826
36.5882
35.3997
34.2581
33.1608
32.1057
31.0905
30.1132
29.1718
28.2646
27.3897
26.5454
25.7303
24.9427
24.1813
23.4443
17202.9
6968.26
3976.25
2740.37
2076.99
1666
1387.06
1185.54
1033.2
914.036
818.297
739.722
674.108
618.453
570.553
528.839
492.175
459.684
430.667
404.567
380.938
359.423
339.736
321.644
304.954
289.506
275.165
261.817
249.361
237.712
226.794
216.542
206.899
197.812
189.236
181.131
173.461
166.194
159.3
152.753
146.529
140.607
134.968
129.592
124.464
119.57
114.894
110.425
106.151
102.06
98.1416
94.3868
90.7862
87.3317
84.0163
80.8341
77.7801
74.8509
72.0435
69.3554
66.7839
64.3261
61.9777
59.7329
57.5832
55.5222
53.5472
51.655
49.8425
48.1064
46.4437
44.8509
43.325
41.8627
40.461
39.1168
37.8274
36.5899
35.4017
34.2602
33.1632
32.1082
31.0931
30.116
29.1747
28.2675
27.3925
26.5482
25.733
24.9453
24.1837
23.4466
17204.3
6967.86
3975.97
2740.2
2076.87
1665.91
1387.01
1185.52
1033.2
914.039
818.302
739.728
674.111
618.475
570.608
528.91
492.242
459.737
430.705
404.592
380.955
359.436
339.747
321.653
304.963
289.515
275.174
261.826
249.37
237.72
226.803
216.551
206.907
197.82
189.244
181.139
173.469
166.201
159.307
152.76
146.536
140.614
134.974
129.598
124.47
119.575
114.899
110.43
106.155
102.064
98.1459
94.3911
90.7906
87.3363
84.0211
80.8389
77.7848
74.8551
72.0468
69.3574
66.7844
64.3252
61.9757
59.7305
57.5808
55.52
53.5452
51.6534
49.8412
48.1056
46.4433
44.851
43.3255
41.8636
40.4622
39.1185
37.8293
36.5922
35.4042
34.263
33.1662
32.1114
31.0965
30.1194
29.1782
28.271
27.3961
26.5517
25.7364
24.9486
24.1869
23.4496
17205.6
6967.63
3975.75
2740.06
2076.75
1665.81
1386.94
1185.47
1033.17
914.022
818.29
739.716
674.097
618.476
570.639
528.961
492.296
459.781
430.736
404.612
380.967
359.443
339.751
321.657
304.966
289.519
275.178
261.83
249.375
237.726
226.809
216.557
206.913
197.826
189.25
181.145
173.475
166.207
159.313
152.766
146.542
140.619
134.979
129.603
124.475
119.58
114.904
110.435
106.16
102.069
98.1506
94.3958
90.7955
87.3414
84.0263
80.8442
77.7901
74.8599
72.0507
69.36
66.7857
64.325
61.9746
59.7289
57.5791
55.5184
53.5439
51.6523
49.8406
48.1054
46.4435
44.8516
43.3265
41.865
40.464
39.1206
37.8319
36.595
35.4073
34.2664
33.1698
32.1152
31.1004
30.1234
29.1823
28.2752
27.4002
26.5559
25.7405
24.9526
24.1908
23.4533
17206.6
6967.55
3975.6
2739.96
2076.66
1665.73
1386.87
1185.42
1033.13
913.993
818.266
739.693
674.071
618.462
570.652
528.995
492.337
459.818
430.762
404.628
380.974
359.445
339.751
321.656
304.965
289.518
275.179
261.831
249.377
237.728
226.811
216.56
206.917
197.83
189.255
181.15
173.48
166.212
159.318
152.771
146.547
140.624
134.984
129.608
124.48
119.585
114.909
110.44
106.165
102.074
98.1554
94.4008
90.8006
87.3467
84.0319
80.85
77.7957
74.8651
72.0551
69.3633
66.7875
64.3256
61.9742
59.728
57.5781
55.5175
53.5431
51.6519
49.8405
48.1056
46.4441
44.8527
43.328
41.8669
40.4664
39.1233
37.8349
36.5984
35.411
34.2703
33.1739
32.1195
31.1049
30.1281
29.187
28.2799
27.405
26.5607
25.7452
24.9572
24.1953
23.4577
17207.5
6967.59
3975.52
2739.89
2076.58
1665.65
1386.8
1185.36
1033.09
913.956
818.233
739.661
674.038
618.438
570.65
529.015
492.368
459.847
430.784
404.64
380.979
359.444
339.748
321.651
304.961
289.514
275.176
261.829
249.375
237.728
226.812
216.561
206.918
197.832
189.257
181.153
173.483
166.216
159.322
152.775
146.551
140.629
134.989
129.613
124.485
119.59
114.914
110.444
106.17
102.078
98.1603
94.4059
90.8059
87.3523
84.0378
80.856
77.8017
74.8708
72.06
69.367
66.7899
64.3268
61.9745
59.7279
57.5778
55.5171
53.5429
51.6519
49.8408
48.1064
46.4453
44.8542
43.33
41.8693
40.4692
39.1265
37.8384
36.6022
35.4151
34.2747
33.1786
32.1243
31.1099
30.1332
29.1923
28.2852
27.4104
26.566
25.7505
24.9625
24.2004
23.4626
17208.2
6967.73
3975.5
2739.87
2076.54
1665.6
1386.75
1185.31
1033.04
913.916
818.196
739.625
674.002
618.408
570.636
529.022
492.388
459.869
430.801
404.649
380.98
359.441
339.741
321.644
304.953
289.507
275.169
261.824
249.371
237.724
226.809
216.56
206.918
197.832
189.258
181.154
173.485
166.218
159.324
152.778
146.554
140.632
134.993
129.617
124.489
119.594
114.918
110.449
106.174
102.083
98.1652
94.411
90.8113
87.358
84.0438
80.8622
77.808
74.8767
72.0651
69.3711
66.7928
64.3285
61.9755
59.7285
57.5781
55.5174
53.5433
51.6525
49.8417
48.1076
46.4469
44.8562
43.3324
41.8721
40.4723
39.1301
37.8424
36.6064
35.4197
34.2796
33.1836
32.1296
31.1154
30.1388
29.198
28.2911
27.4162
26.5719
25.7564
24.9682
24.2061
23.4681
17208.9
6967.93
3975.54
2739.88
2076.53
1665.56
1386.7
1185.27
1033
913.875
818.157
739.586
673.964
618.373
570.614
529.019
492.398
459.885
430.813
404.655
380.98
359.435
339.732
321.633
304.943
289.497
275.161
261.816
249.364
237.719
226.805
216.556
206.915
197.83
189.257
181.154
173.485
166.219
159.326
152.78
146.557
140.635
134.996
129.62
124.493
119.598
114.922
110.453
106.179
102.088
98.17
94.416
90.8166
87.3637
84.0499
80.8686
77.8143
74.8828
72.0706
69.3755
66.796
64.3308
61.9771
59.7296
57.579
55.5182
53.5441
51.6535
49.843
48.1093
46.4489
44.8586
43.3352
41.8753
40.4759
39.134
37.8466
36.6111
35.4246
34.2848
33.1891
32.1353
31.1213
30.1449
29.2042
28.2973
27.4226
26.5782
25.7627
24.9745
24.2122
23.4741
17209.4
6968.19
3975.63
2739.93
2076.54
1665.55
1386.68
1185.23
1032.96
913.836
818.117
739.546
673.925
618.337
570.587
529.008
492.401
459.894
430.822
404.659
380.977
359.428
339.721
321.621
304.93
289.485
275.149
261.806
249.355
237.711
226.798
216.55
206.91
197.826
189.254
181.152
173.484
166.218
159.326
152.78
146.558
140.637
134.998
129.623
124.496
119.601
114.926
110.457
106.183
102.092
98.1746
94.4208
90.8219
87.3694
84.0559
80.8749
77.8208
74.889
72.0761
69.3801
66.7996
64.3335
61.9793
59.7314
57.5804
55.5195
53.5455
51.655
49.8447
48.1113
46.4512
44.8613
43.3383
41.8788
40.4798
39.1382
37.8513
36.616
35.4299
34.2903
33.1949
32.1414
31.1275
30.1513
29.2107
28.304
27.4293
26.5849
25.7694
24.9811
24.2187
23.4805
17209.9
6968.51
3975.78
2740.02
2076.58
1665.56
1386.67
1185.21
1032.93
913.802
818.08
739.507
673.886
618.299
570.558
528.991
492.397
459.897
430.826
404.66
380.973
359.419
339.709
321.607
304.916
289.471
275.136
261.794
249.344
237.701
226.789
216.543
206.904
197.821
189.249
181.148
173.481
166.217
159.325
152.78
146.558
140.638
134.999
129.625
124.498
119.604
114.929
110.46
106.186
102.096
98.1788
94.4254
90.8269
87.3749
84.0619
80.8812
77.8272
74.8952
72.0817
69.3849
66.8034
64.3365
61.9819
59.7336
57.5822
55.5212
53.5472
51.6569
49.8468
48.1136
46.4539
44.8644
43.3417
41.8826
40.4839
39.1428
37.8561
36.6212
35.4354
34.2962
33.201
32.1477
31.1341
30.158
29.2176
28.3109
27.4362
26.5919
25.7763
24.9879
24.2254
23.4871
17210.3
6968.87
3975.96
2740.13
2076.66
1665.6
1386.68
1185.2
1032.91
913.774
818.046
739.47
673.848
618.263
570.527
528.97
492.387
459.895
430.827
404.658
380.968
359.409
339.696
321.592
304.9
289.456
275.121
261.78
249.331
237.689
226.779
216.533
206.895
197.814
189.243
181.143
173.477
166.213
159.322
152.778
146.557
140.637
134.999
129.626
124.499
119.606
114.931
110.463
106.189
102.099
98.1827
94.4297
90.8316
87.3801
84.0676
80.8873
77.8335
74.9013
72.0873
69.3897
66.8074
64.3398
61.9849
59.7363
57.5846
55.5233
53.5493
51.6591
49.8492
48.1163
46.4569
44.8677
43.3453
41.8866
40.4883
39.1475
37.8612
36.6267
35.4412
34.3022
33.2074
32.1543
31.1408
30.1649
29.2246
28.318
27.4433
26.5989
25.7828
24.9943
24.2317
23.4935
17210.7
6969.25
3976.19
2740.28
2076.75
1665.66
1386.7
1185.21
1032.9
913.753
818.018
739.437
673.813
618.228
570.496
528.947
492.374
459.889
430.824
404.654
380.96
359.398
339.682
321.576
304.883
289.439
275.105
261.764
249.317
237.676
226.766
216.522
206.886
197.805
189.236
181.136
173.472
166.209
159.319
152.776
146.555
140.636
134.999
129.626
124.5
119.607
114.933
110.465
106.192
102.102
98.1861
94.4336
90.836
87.385
84.0731
80.8932
77.8396
74.9073
72.0928
69.3945
66.8115
64.3434
61.9882
59.7393
57.5872
55.5258
53.5518
51.6616
49.8519
48.1192
46.4601
44.8712
43.3492
41.8908
40.4929
39.1524
37.8665
36.6323
35.4471
34.3084
33.2138
32.161
31.1477
30.172
29.2318
28.3252
27.4506
26.6057
17211
6969.63
3976.45
2740.47
2076.88
1665.74
1386.75
1185.23
1032.9
913.74
817.995
739.408
673.78
618.195
570.466
528.923
492.357
459.879
430.817
404.648
380.951
359.385
339.666
321.558
304.864
289.42
275.087
261.747
249.301
237.661
226.753
216.51
206.874
197.795
189.226
181.128
173.465
166.203
159.314
152.772
146.552
140.634
134.997
129.625
124.5
119.607
114.934
110.467
106.194
102.105
98.189
94.437
90.84
87.3896
84.0782
80.8988
77.8454
74.913
72.0982
69.3992
66.8155
64.3471
61.9918
59.7427
57.5903
55.5286
53.5545
51.6644
49.8548
48.1223
46.4635
44.8749
43.3532
41.8951
40.4976
39.1575
37.8719
36.638
35.4531
34.3147
33.2204
32.1678
31.1548
30.1792
29.2392
28.3328
27.4583
26.6136
17211.3
6970.01
3976.74
2740.68
2077.03
1665.84
1386.81
1185.26
1032.91
913.735
817.979
739.384
673.752
618.166
570.438
528.899
492.339
459.866
430.808
404.639
380.941
359.372
339.65
321.54
304.845
289.401
275.068
261.729
249.284
237.645
226.738
216.496
206.861
197.783
189.216
181.119
173.456
166.196
159.308
152.766
146.548
140.63
134.995
129.623
124.499
119.607
114.934
110.467
106.195
102.107
98.1913
94.4399
90.8435
87.3937
84.0829
80.904
77.8508
74.9184
72.1032
69.4037
66.8196
64.3509
61.9956
59.7463
57.5935
55.5317
53.5575
51.6674
49.858
48.1257
46.4671
44.8787
43.3573
41.8996
40.5024
39.1626
37.8773
36.6437
35.4592
34.3211
33.227
32.1746
31.1618
30.1865
29.2467
28.3401
27.4658
26.6213
17211.5
6970.4
3977.04
2740.91
2077.2
1665.96
1386.89
1185.31
1032.94
913.741
817.971
739.367
673.729
618.142
570.413
528.876
492.32
459.852
430.796
404.628
380.928
359.357
339.633
321.521
304.825
289.38
275.047
261.709
249.265
237.627
226.721
216.48
206.847
197.77
189.204
181.108
173.447
166.187
159.3
152.76
146.542
140.626
134.991
129.62
124.497
119.606
114.933
110.467
106.196
102.108
98.193
94.4422
90.8464
87.3973
84.0871
80.9087
77.8559
74.9234
72.108
69.408
66.8235
64.3547
61.9995
59.7501
57.597
55.535
53.5607
51.6706
49.8613
48.1291
46.4708
44.8827
43.3616
41.9041
40.5072
39.1678
37.8828
36.6495
35.4653
34.3274
33.2336
32.1815
31.1689
30.1939
29.2538
17211.7
6970.77
3977.36
2741.16
2077.39
1666.1
1386.99
1185.37
1032.97
913.756
817.97
739.356
673.712
618.122
570.392
528.856
492.301
459.836
430.782
404.615
380.915
359.342
339.615
321.501
304.803
289.358
275.026
261.688
249.245
237.608
226.703
216.464
206.832
197.756
189.191
181.096
173.436
166.177
159.292
152.752
146.536
140.62
134.987
129.616
124.494
119.603
114.932
110.467
106.196
102.108
98.1941
94.4439
90.8488
87.4004
84.0908
80.913
77.8604
74.928
72.1123
69.412
66.8273
64.3585
62.0035
59.754
57.6006
55.5384
53.5641
51.674
49.8647
48.1328
46.4746
44.8867
43.3659
41.9087
40.5121
39.173
37.8883
36.6554
35.4714
34.3339
33.2404
32.1886
31.1764
30.2018
29.2623
17211.9
6971.14
3977.68
2741.42
2077.6
1666.26
1387.1
1185.45
1033.02
913.781
817.979
739.352
673.701
618.107
570.376
528.837
492.283
459.82
430.768
404.601
380.9
359.325
339.596
321.48
304.781
289.336
275.003
261.666
249.224
237.588
226.684
216.446
206.815
197.74
189.176
181.083
173.424
166.166
159.282
152.744
146.528
140.614
134.981
129.611
124.49
119.6
114.929
110.465
106.195
102.108
98.1943
94.4449
90.8505
87.4028
84.0939
80.9166
77.8644
74.9321
72.1162
69.4157
66.8308
64.3621
62.0075
59.758
57.6043
55.542
53.5675
51.6775
49.8683
48.1364
46.4784
44.8908
43.3702
41.9134
40.517
39.1782
37.8938
36.6612
35.4776
34.3404
33.2473
32.1959
31.1841
30.2099
29.2708
17212
6971.49
3978.01
2741.7
2077.82
1666.43
1387.23
1185.54
1033.08
913.816
817.995
739.356
673.696
618.098
570.364
528.822
492.267
459.804
430.753
404.586
380.884
359.308
339.577
321.459
304.759
289.312
274.98
261.643
249.201
237.567
226.664
216.426
206.796
197.723
189.16
181.068
173.41
166.154
159.27
152.733
146.519
140.606
134.974
129.606
124.485
119.596
114.926
110.462
106.193
102.107
98.1938
94.4451
90.8514
87.4045
84.0963
80.9196
77.8677
74.9355
72.1196
69.4189
66.8341
64.3656
62.0114
59.762
57.608
55.5456
53.5711
51.681
49.8719
48.1402
46.4823
44.8949
43.3746
41.918
40.5219
39.1834
37.8994
36.6671
35.4838
34.347
33.2543
32.2033
31.1919
30.2181
29.2793
17212.1
6971.82
3978.35
2741.99
2078.05
1666.61
1387.37
1185.64
1033.15
913.862
818.022
739.368
673.7
618.097
570.356
528.811
492.253
459.789
430.738
404.571
380.868
359.289
339.556
321.437
304.735
289.288
274.955
261.619
249.178
237.544
226.642
216.406
206.777
197.704
189.143
181.052
173.395
166.14
159.258
152.722
146.509
140.596
134.966
129.598
124.478
119.591
114.922
110.459
106.19
102.104
98.1925
94.4445
90.8516
87.4054
84.098
80.9219
77.8704
74.9384
72.1224
69.4217
66.837
64.3689
62.0152
59.7659
57.6118
55.5492
53.5746
51.6846
49.8755
48.1439
46.4863
44.8991
43.3789
41.9226
40.5268
39.1886
37.9049
36.673
35.4901
34.3537
33.2613
32.2107
31.1997
30.2262
29.2877
17212.1
6972.14
3978.68
2742.28
2078.3
1666.81
1387.52
1185.76
1033.24
913.919
818.058
739.389
673.713
618.102
570.354
528.803
492.242
459.776
430.724
404.555
380.851
359.271
339.536
321.414
304.711
289.263
274.93
261.594
249.153
237.52
226.619
216.384
206.756
197.685
189.124
181.035
173.379
166.125
159.244
152.709
146.497
140.586
134.956
129.59
124.471
119.584
114.916
110.454
106.186
102.101
98.1903
94.4431
90.851
87.4056
84.0989
80.9234
77.8724
74.9405
72.1246
69.424
66.8395
64.3719
62.0188
59.7696
57.6154
55.5527
53.5781
51.6881
49.8791
48.1477
46.4902
44.9032
43.3833
41.9272
40.5317
39.1938
37.9104
36.6788
35.4963
34.3602
33.2682
32.218
31.2074
30.2342
29.2959
17212.2
6972.43
3979.01
2742.58
2078.55
1667.01
1387.69
1185.88
1033.33
913.986
818.104
739.42
673.734
618.115
570.358
528.8
492.234
459.765
430.71
404.54
380.834
359.252
339.515
321.392
304.687
289.238
274.904
261.568
249.128
237.496
226.595
216.361
206.734
197.664
189.105
181.016
173.361
166.109
159.229
152.695
146.484
140.574
134.946
129.581
124.463
119.577
114.91
110.448
106.181
102.097
98.1871
94.4407
90.8495
87.4049
84.099
80.9241
77.8735
74.9419
72.1262
69.4257
66.8416
64.3748
62.0221
59.7731
57.6188
55.5561
53.5815
51.6916
49.8827
48.1513
46.494
44.9072
43.3875
41.9317
40.5365
39.1989
37.9158
36.6845
35.5024
34.3667
33.2751
32.2252
31.2149
30.242
29.304
17212.2
6972.69
3979.33
2742.87
2078.81
1667.23
1387.86
1186.02
1033.43
914.062
818.16
739.461
673.764
618.136
570.37
528.803
492.23
459.757
430.699
404.527
380.818
359.234
339.495
321.369
304.663
289.212
274.878
261.542
249.102
237.47
226.57
216.337
206.711
197.642
189.084
180.996
173.343
166.091
159.212
152.68
146.47
140.561
134.934
129.57
124.453
119.568
114.902
110.442
106.175
102.092
98.1829
94.4374
90.847
87.4033
84.0982
80.9239
77.8738
74.9425
72.1269
69.4268
66.8434
64.3774
62.0252
59.7762
57.6219
55.5593
53.5848
51.6949
49.8861
48.1549
46.4978
44.9112
43.3917
41.9361
40.5412
39.2039
37.9211
36.6902
35.5083
34.373
33.2817
32.2322
31.2222
30.2496
29.3118
17212.2
6972.93
3979.65
2743.17
2079.07
1667.44
1388.04
1186.16
1033.54
914.147
818.223
739.509
673.803
618.165
570.389
528.812
492.231
459.752
430.69
404.514
380.803
359.216
339.474
321.346
304.638
289.186
274.851
261.514
249.074
237.443
226.544
216.311
206.687
197.618
189.061
180.975
173.322
166.072
159.195
152.663
146.455
140.547
134.921
129.558
124.442
119.558
114.893
110.434
106.168
102.086
98.1778
94.4331
90.8437
87.4008
84.0964
80.9228
77.8732
74.9422
72.127
69.4273
66.8446
64.3796
62.028
59.779
57.6249
55.5623
53.5879
51.6981
49.8894
48.1584
46.5014
44.915
43.3958
41.9404
40.5458
39.2087
37.9263
36.6957
35.5141
34.3791
33.2882
32.239
31.2293
30.257
29.3195
17212.1
6973.14
3979.95
2743.47
2079.33
1667.67
1388.22
1186.31
1033.66
914.239
818.296
739.566
673.85
618.202
570.414
528.827
492.238
459.751
430.684
404.504
380.789
359.199
339.454
321.324
304.613
289.16
274.824
261.487
249.046
237.415
226.517
216.285
206.661
197.594
189.038
180.952
173.301
166.052
159.175
152.645
146.438
140.532
134.906
129.545
124.43
119.547
114.883
110.425
106.16
102.079
98.1715
94.4278
90.8392
87.3973
84.0937
80.9208
77.8716
74.941
72.1262
69.4271
66.8454
64.3814
62.0303
59.7815
57.6275
55.565
53.5907
51.7011
49.8926
48.1617
46.5049
44.9187
43.3997
41.9446
40.5502
39.2134
37.9313
36.7009
35.5197
34.385
33.2944
32.2455
31.2361
30.2642
29.3269
17212.1
6973.31
3980.24
2743.76
2079.59
1667.9
1388.41
1186.47
1033.79
914.34
818.376
739.631
673.904
618.246
570.447
528.849
492.25
459.756
430.682
404.497
380.778
359.184
339.436
321.302
304.589
289.134
274.796
261.458
249.018
237.387
226.489
216.258
206.634
197.568
189.013
180.928
173.278
166.03
159.155
152.626
146.42
140.515
134.891
129.53
124.416
119.535
114.872
110.414
106.151
102.071
98.1642
94.4214
90.8338
87.3927
84.09
80.9177
77.8691
74.9389
72.1246
69.4263
66.8456
64.3827
62.0323
59.7836
57.6297
55.5674
53.5933
51.7038
49.8955
48.1648
46.5082
44.9222
43.4034
41.9486
40.5544
39.2179
37.936
36.706
35.5251
34.3907
33.3004
32.2518
31.2427
30.271
29.334
17212
6973.45
3980.52
2744.04
2079.85
1668.13
1388.61
1186.63
1033.92
914.449
818.465
739.704
673.966
618.298
570.487
528.877
492.268
459.765
430.684
404.493
380.769
359.17
339.418
321.281
304.566
289.108
274.769
261.43
248.989
237.358
226.46
216.229
206.607
197.541
188.987
180.903
173.254
166.007
159.133
152.606
146.4
140.496
134.874
129.514
124.402
119.521
114.859
110.403
106.14
102.061
98.1557
94.4139
90.8272
87.3871
84.0851
80.9136
77.8655
74.9359
72.1222
69.4247
66.8451
64.3835
62.0337
59.7853
57.6316
55.5695
53.5956
51.7063
49.8981
48.1676
46.5112
44.9254
43.4069
41.9523
40.5584
39.2222
37.9406
36.7108
35.5302
34.3961
33.3061
32.2578
31.249
30.2776
29.3408
17211.8
6973.56
3980.78
2744.32
2080.11
1668.36
1388.81
1186.8
1034.06
914.564
818.56
739.785
674.036
618.357
570.534
528.912
492.292
459.779
430.69
404.492
380.762
359.159
339.403
321.262
304.544
289.083
274.742
261.402
248.96
237.328
226.431
216.2
206.578
197.513
188.96
180.877
173.229
165.983
159.11
152.584
146.38
140.477
134.855
129.497
124.386
119.506
114.845
110.39
106.129
102.051
98.146
94.4052
90.8196
87.3803
84.0792
80.9084
77.861
74.9319
72.1189
69.4223
66.844
64.3836
62.0346
59.7865
57.6331
55.5712
53.5975
51.7084
49.9005
48.1702
46.514
44.9285
43.4102
41.9558
40.5622
39.2262
37.9449
36.7154
35.5351
34.4013
33.3115
32.2635
31.255
30.2838
29.3473
17211.7
6973.63
3981.02
2744.58
2080.37
1668.58
1389.01
1186.97
1034.2
914.686
818.663
739.873
674.113
618.424
570.588
528.954
492.322
459.798
430.7
404.495
380.759
359.151
339.39
321.245
304.523
289.059
274.716
261.374
248.931
237.299
226.401
216.171
206.549
197.485
188.932
180.85
173.203
165.958
159.086
152.56
146.358
140.456
134.835
129.478
124.368
119.49
114.83
110.376
106.116
102.039
98.1352
94.3954
90.8107
87.3725
84.0722
80.9021
77.8553
74.9269
72.1146
69.4191
66.8421
64.3831
62.0349
59.7871
57.6341
55.5725
53.5991
51.7102
49.9025
48.1724
46.5165
44.9312
43.4131
41.959
40.5656
39.2299
37.9488
36.7196
35.5396
34.4061
33.3166
32.2689
31.2606
30.2898
29.3535
17211.5
6973.67
3981.24
2744.84
2080.61
1668.81
1389.21
1187.14
1034.35
914.814
818.773
739.967
674.196
618.497
570.649
529.002
492.357
459.823
430.715
404.502
380.759
359.144
339.379
321.229
304.503
289.037
274.691
261.347
248.902
237.269
226.371
216.14
206.519
197.455
188.903
180.822
173.175
165.931
159.06
152.536
146.334
140.434
134.814
129.459
124.35
119.473
114.814
110.361
106.102
102.026
98.1231
94.3844
90.8007
87.3634
84.064
80.8947
77.8486
74.9208
72.1095
69.4151
66.8395
64.3819
62.0346
59.7873
57.6346
55.5734
53.6002
51.7116
49.9042
48.1744
46.5187
44.9336
43.4158
41.9619
40.5688
39.2333
37.9525
36.7236
35.5438
34.4105
33.3214
32.2739
31.2659
30.2953
29.3593
17211.3
6973.67
3981.43
2745.08
2080.86
1669.04
1389.41
1187.32
1034.51
914.947
818.888
740.068
674.286
618.576
570.716
529.056
492.4
459.853
430.735
404.513
380.763
359.141
339.37
321.216
304.485
289.015
274.667
261.32
248.874
237.24
226.341
216.11
206.489
197.425
188.873
180.793
173.147
165.904
159.034
152.51
146.31
140.41
134.792
129.437
124.33
119.454
114.796
110.344
106.086
102.011
98.1098
94.3722
90.7895
87.3532
84.0547
80.8861
77.8407
74.9138
72.1034
69.4103
66.8361
64.38
62.0336
59.7868
57.6346
55.5738
53.6009
51.7127
49.9055
48.1759
46.5205
44.9356
43.4181
41.9644
40.5715
39.2363
37.9558
36.7271
35.5476
34.4146
33.3257
32.2785
31.2708
30.3004
29.3645
17211.1
6973.63
3981.61
2745.3
2081.09
1669.26
1389.61
1187.5
1034.66
915.085
819.009
740.176
674.383
618.662
570.79
529.118
492.448
459.89
430.761
404.529
380.77
359.142
339.364
321.204
304.47
288.996
274.644
261.295
248.847
237.211
226.311
216.08
206.458
197.395
188.843
180.763
173.118
165.876
159.006
152.484
146.284
140.386
134.769
129.415
124.308
119.434
114.777
110.326
106.069
101.996
98.0953
94.3587
90.7772
87.3418
84.0442
80.8764
77.8318
74.9057
72.0963
69.4045
66.8319
64.3774
62.0319
59.7857
57.634
55.5736
53.6011
51.7132
49.9063
48.1771
46.5219
44.9373
43.42
41.9666
40.5739
39.239
37.9587
36.7302
35.5509
34.4182
33.3295
32.2825
31.2752
30.3046
17210.8
6973.56
3981.76
2745.51
2081.31
1669.47
1389.81
1187.68
1034.82
915.227
819.135
740.288
674.485
618.754
570.87
529.185
492.503
459.932
430.792
404.55
380.782
359.146
339.361
321.196
304.456
288.978
274.622
261.27
248.82
237.183
226.282
216.05
206.428
197.364
188.813
180.733
173.088
165.846
158.978
152.456
146.258
140.36
134.744
129.391
124.286
119.412
114.757
110.307
106.051
101.979
98.0795
94.3441
90.7636
87.3292
84.0325
80.8656
77.8218
74.8966
72.0883
69.3979
66.8269
64.3739
62.0295
59.7839
57.6328
55.5729
53.6008
51.7133
49.9068
48.1778
46.5229
44.9386
43.4215
41.9684
40.576
39.2412
37.9612
36.733
35.554
34.4215
33.3331
32.2865
31.2795
30.3092
17210.5
6973.45
3981.89
2745.71
2081.52
1669.68
1390
1187.85
1034.99
915.372
819.265
740.406
674.592
618.851
570.956
529.258
492.563
459.98
430.829
404.576
380.799
359.154
339.362
321.19
304.445
288.962
274.602
261.247
248.794
237.155
226.252
216.019
206.397
197.333
188.781
180.702
173.058
165.816
158.949
152.428
146.23
140.333
134.718
129.367
124.262
119.39
114.736
110.287
106.032
101.961
98.0626
94.3283
90.7488
87.3154
84.0197
80.8536
77.8107
74.8864
72.0793
69.3904
66.821
64.3696
62.0264
59.7815
57.631
55.5716
53.6001
51.7129
49.9067
48.1781
46.5234
44.9394
43.4226
41.9698
40.5776
39.2432
37.9634
36.7355
35.5567
34.4245
33.3365
32.2901
31.2834
30.3134
17210.2
6973.3
3981.99
2745.88
2081.72
1669.88
1390.19
1188.03
1035.15
915.52
819.399
740.528
674.704
618.953
571.047
529.337
492.63
460.035
430.871
404.607
380.82
359.167
339.367
321.188
304.437
288.948
274.584
261.226
248.77
237.128
226.224
215.989
206.366
197.302
188.75
180.671
173.027
165.786
158.918
152.398
146.201
140.305
134.691
129.341
124.238
119.366
114.713
110.266
106.012
101.942
98.0445
94.3113
90.7329
87.3005
84.0057
80.8405
77.7985
74.8753
72.0694
69.382
66.8144
64.3646
62.0226
59.7785
57.6286
55.5698
53.5988
51.712
49.9062
48.1779
46.5236
44.9399
43.4234
41.9708
40.5789
39.2447
37.9652
36.7375
35.5591
34.4272
33.3394
32.2933
31.2868
30.317
17209.8
6973.12
3982.07
2746.04
2081.91
1670.07
1390.38
1188.21
1035.31
915.669
819.536
740.654
674.82
619.059
571.143
529.422
492.702
460.095
430.919
404.644
380.847
359.184
339.376
321.19
304.432
288.938
274.569
261.206
248.747
237.103
226.196
215.96
206.336
197.27
188.719
180.639
172.995
165.755
158.888
152.368
146.172
140.277
134.664
129.314
124.212
119.341
114.689
110.243
105.99
101.921
98.0252
94.2931
90.7158
87.2845
83.9906
80.8264
77.7853
74.8632
72.0586
69.3728
66.8069
64.3588
62.018
59.7747
57.6256
55.5675
53.5969
51.7107
49.9053
48.1773
46.5233
44.9399
43.4237
41.9714
40.5798
39.2458
37.9666
36.7392
35.561
34.4294
33.3418
32.296
31.2898
30.3201
17209.4
6972.9
3982.13
2746.18
2082.08
1670.25
1390.56
1188.38
1035.47
915.82
819.676
740.783
674.94
619.17
571.243
529.511
492.78
460.16
430.973
404.687
380.878
359.206
339.389
321.195
304.43
288.93
274.556
261.189
248.726
237.079
226.17
215.932
206.306
197.24
188.687
180.607
172.963
165.723
158.856
152.337
146.141
140.247
134.635
129.286
124.185
119.316
114.665
110.219
105.968
101.9
98.0049
94.2739
90.6977
87.2674
83.9745
80.8112
77.7711
74.8501
72.0469
69.3627
66.7986
64.3523
62.0127
59.7703
57.622
55.5645
53.5946
51.7088
49.9038
48.1763
46.5226
44.9395
43.4236
41.9715
40.5802
39.2465
37.9676
36.7405
35.5625
34.4311
33.3438
32.2983
31.2922
30.3228
17209
6972.65
3982.16
2746.31
2082.24
1670.43
1390.74
1188.55
1035.63
915.971
819.817
740.914
675.062
619.284
571.348
529.606
492.863
460.231
431.032
404.734
380.915
359.233
339.406
321.204
304.432
288.926
274.547
261.174
248.707
237.057
226.145
215.905
206.277
197.21
188.656
180.576
172.932
165.691
158.825
152.306
146.111
140.217
134.605
129.258
124.157
119.289
114.639
110.194
105.944
101.877
97.9834
94.2536
90.6785
87.2492
83.9573
80.795
77.756
74.8361
72.0344
69.3519
66.7897
64.3449
62.0066
59.7652
57.6178
55.561
53.5916
51.7064
49.9019
48.1747
46.5215
44.9387
43.423
41.9713
40.5802
39.2468
37.9681
36.7412
35.5635
34.4324
33.3454
32.3
31.2942
30.325
17208.5
6972.36
3982.16
2746.41
2082.39
1670.59
1390.9
1188.72
1035.79
916.122
819.959
741.047
675.187
619.401
571.457
529.704
492.951
460.308
431.097
404.788
380.957
359.265
339.429
321.218
304.439
288.926
274.54
261.163
248.691
237.037
226.122
215.879
206.249
197.18