/*--------------------------------*- C++ -*----------------------------------*\
  =========                 |
  \\      /  F ield         | OpenFOAM: The Open Source CFD Toolbox
   \\    /   O peration     | Website:  https://openfoam.org
    \\  /    A nd           | Version:  10
     \\/     M anipulation  |
\*---------------------------------------------------------------------------*/
FoamFile
{
    format      ascii;
    class       surfaceScalarField;
    location    "5000";
    object      phi;
}
// * * * * * * * * * * * * * * * * * * * * * * * * * * * * * * * * * * * * * //

dimensions      [0 3 -1 0 0 0 0];

internalField   nonuniform List<scalar> 
35320
(
1.89397e-08
1.17417e-05
-1.17606e-05
3.02137e-08
9.88292e-06
-9.8942e-06
3.61373e-08
9.15499e-06
-9.16091e-06
3.93534e-08
8.69474e-06
-8.69795e-06
4.10032e-08
8.36266e-06
-8.36431e-06
4.17263e-08
8.10884e-06
-8.10956e-06
4.18802e-08
7.90693e-06
-7.90709e-06
4.16558e-08
7.7417e-06
-7.74148e-06
4.11667e-08
7.60365e-06
-7.60316e-06
4.04949e-08
7.48643e-06
-7.48575e-06
3.97122e-08
7.38545e-06
-7.38466e-06
3.88919e-08
7.29735e-06
-7.29653e-06
3.81278e-08
7.2197e-06
-7.21894e-06
3.7451e-08
7.15069e-06
-7.15001e-06
3.68667e-08
7.08885e-06
-7.08827e-06
3.63709e-08
7.03299e-06
-7.0325e-06
3.5952e-08
6.98214e-06
-6.98172e-06
3.55974e-08
6.93551e-06
-6.93515e-06
3.52904e-08
6.89246e-06
-6.89215e-06
3.50131e-08
6.85249e-06
-6.85221e-06
3.47599e-08
6.81521e-06
-6.81495e-06
3.45285e-08
6.78031e-06
-6.78008e-06
3.43083e-08
6.74757e-06
-6.74735e-06
3.41072e-08
6.71679e-06
-6.71659e-06
3.39198e-08
6.68781e-06
-6.68762e-06
3.37532e-08
6.66049e-06
-6.66032e-06
3.36072e-08
6.63469e-06
-6.63455e-06
3.34817e-08
6.6103e-06
-6.61018e-06
3.338e-08
6.58721e-06
-6.5871e-06
3.32972e-08
6.5653e-06
-6.56521e-06
3.3236e-08
6.54448e-06
-6.54442e-06
3.31958e-08
6.52466e-06
-6.52462e-06
3.31768e-08
6.50576e-06
-6.50574e-06
3.31775e-08
6.48771e-06
-6.48771e-06
3.31963e-08
6.47043e-06
-6.47045e-06
3.32349e-08
6.45389e-06
-6.45392e-06
3.32929e-08
6.43801e-06
-6.43806e-06
3.33699e-08
6.42274e-06
-6.42282e-06
3.34644e-08
6.40805e-06
-6.40815e-06
3.35778e-08
6.39389e-06
-6.39401e-06
3.37087e-08
6.38023e-06
-6.38036e-06
3.38584e-08
6.36702e-06
-6.36716e-06
3.40246e-08
6.35423e-06
-6.3544e-06
3.42077e-08
6.34184e-06
-6.34202e-06
3.44091e-08
6.32982e-06
-6.33002e-06
3.46257e-08
6.31815e-06
-6.31837e-06
3.4859e-08
6.30681e-06
-6.30704e-06
3.5109e-08
6.29576e-06
-6.29601e-06
3.53742e-08
6.28499e-06
-6.28525e-06
3.56542e-08
6.27447e-06
-6.27475e-06
3.59472e-08
6.26417e-06
-6.26446e-06
3.62507e-08
6.25405e-06
-6.25436e-06
3.65652e-08
6.24411e-06
-6.24443e-06
3.68882e-08
6.23433e-06
-6.23465e-06
3.72218e-08
6.22472e-06
-6.22505e-06
3.75711e-08
6.21532e-06
-6.21567e-06
3.79438e-08
6.20619e-06
-6.20656e-06
3.83526e-08
6.1974e-06
-6.19781e-06
3.88121e-08
6.18904e-06
-6.1895e-06
3.9333e-08
6.18118e-06
-6.1817e-06
3.99218e-08
6.17385e-06
-6.17444e-06
4.05709e-08
6.16704e-06
-6.16769e-06
4.12572e-08
6.16064e-06
-6.16133e-06
4.1942e-08
6.15447e-06
-6.15516e-06
4.26087e-08
6.14832e-06
-6.14899e-06
4.32576e-08
6.14212e-06
-6.14276e-06
4.38943e-08
6.13584e-06
-6.13647e-06
4.45206e-08
6.12948e-06
-6.13011e-06
4.51376e-08
6.12302e-06
-6.12364e-06
4.57483e-08
6.11645e-06
-6.11706e-06
4.63522e-08
6.10973e-06
-6.11033e-06
4.69506e-08
6.10284e-06
-6.10344e-06
4.75432e-08
6.09577e-06
-6.09636e-06
4.81311e-08
6.08847e-06
-6.08906e-06
4.87144e-08
6.08093e-06
-6.08151e-06
4.92914e-08
6.0731e-06
-6.07368e-06
4.9863e-08
6.06498e-06
-6.06555e-06
5.04291e-08
6.05651e-06
-6.05707e-06
5.0988e-08
6.04767e-06
-6.04823e-06
5.15401e-08
6.03843e-06
-6.03898e-06
5.20851e-08
6.02875e-06
-6.0293e-06
5.26214e-08
6.01861e-06
-6.01914e-06
5.31476e-08
6.00796e-06
-6.00848e-06
5.36643e-08
5.99677e-06
-5.99729e-06
5.41702e-08
5.98501e-06
-5.98551e-06
5.46645e-08
5.97264e-06
-5.97313e-06
5.51462e-08
5.95962e-06
-5.9601e-06
5.56137e-08
5.94592e-06
-5.94638e-06
5.60676e-08
5.93149e-06
-5.93194e-06
5.65054e-08
5.9163e-06
-5.91674e-06
5.69283e-08
5.90031e-06
-5.90073e-06
5.88351e-06
-5.88391e-06
1.33017e-09
1.17404e-05
4.10654e-09
9.88015e-06
8.42605e-09
9.15067e-06
1.3006e-08
8.69016e-06
1.70326e-08
8.35863e-06
2.03979e-08
8.10547e-06
2.31295e-08
7.9042e-06
2.528e-08
7.73955e-06
2.69485e-08
7.60198e-06
2.82487e-08
7.48513e-06
2.91929e-08
7.3845e-06
2.97982e-08
7.29675e-06
3.01725e-08
7.21933e-06
3.04518e-08
7.15041e-06
3.06976e-08
7.08861e-06
3.09283e-08
7.03276e-06
3.11469e-08
6.98193e-06
3.13491e-08
6.93531e-06
3.15316e-08
6.89228e-06
3.16942e-08
6.85233e-06
3.18291e-08
6.81507e-06
3.19393e-08
6.7802e-06
3.20273e-08
6.74749e-06
3.20965e-08
6.71672e-06
3.21561e-08
6.68775e-06
3.22073e-08
6.66043e-06
3.22584e-08
6.63464e-06
3.23115e-08
6.61025e-06
3.23668e-08
6.58715e-06
3.24293e-08
6.56524e-06
3.25001e-08
6.54441e-06
3.25808e-08
6.52458e-06
3.26677e-08
6.50567e-06
3.27666e-08
6.48761e-06
3.2876e-08
6.47033e-06
3.29962e-08
6.45377e-06
3.31274e-08
6.43787e-06
3.32731e-08
6.4226e-06
3.34293e-08
6.4079e-06
3.35989e-08
6.39372e-06
3.37829e-08
6.38004e-06
3.39783e-08
6.36682e-06
3.41877e-08
6.35402e-06
3.44111e-08
6.34162e-06
3.46465e-08
6.32959e-06
3.48965e-08
6.3179e-06
3.516e-08
6.30654e-06
3.54366e-08
6.29548e-06
3.57266e-08
6.2847e-06
3.60275e-08
6.27417e-06
3.63415e-08
6.26385e-06
3.66646e-08
6.25373e-06
3.69951e-08
6.24378e-06
3.7334e-08
6.23399e-06
3.76807e-08
6.22438e-06
3.80413e-08
6.21496e-06
3.84245e-08
6.2058e-06
3.88411e-08
6.19698e-06
3.93062e-08
6.18858e-06
3.9832e-08
6.18066e-06
4.04249e-08
6.17326e-06
4.10784e-08
6.16638e-06
4.17709e-08
6.15995e-06
4.24667e-08
6.15378e-06
4.31413e-08
6.14765e-06
4.38004e-08
6.14146e-06
4.44452e-08
6.13519e-06
4.5078e-08
6.12885e-06
4.57021e-08
6.1224e-06
4.63167e-08
6.11583e-06
4.69251e-08
6.10912e-06
4.75271e-08
6.10224e-06
4.81233e-08
6.09517e-06
4.8714e-08
6.08788e-06
4.9299e-08
6.08034e-06
4.98796e-08
6.07252e-06
5.04539e-08
6.0644e-06
5.1022e-08
6.05594e-06
5.15849e-08
6.04711e-06
5.21402e-08
6.03787e-06
5.26881e-08
6.0282e-06
5.3229e-08
6.01807e-06
5.37607e-08
6.00743e-06
5.42835e-08
5.99625e-06
5.47955e-08
5.9845e-06
5.52966e-08
5.97214e-06
5.57861e-08
5.95913e-06
5.6263e-08
5.94544e-06
5.67259e-08
5.93103e-06
5.71751e-08
5.91585e-06
5.7609e-08
5.89987e-06
5.88309e-06
2.45453e-09
1.17379e-05
4.69046e-09
9.87791e-06
7.13577e-09
9.14823e-06
9.6208e-09
8.68767e-06
1.19902e-08
8.35626e-06
1.42007e-08
8.10326e-06
1.62141e-08
7.90219e-06
1.80174e-08
7.73775e-06
1.9631e-08
7.60037e-06
2.10875e-08
7.48367e-06
2.2398e-08
7.38319e-06
2.34627e-08
7.29568e-06
2.42548e-08
7.21854e-06
2.4896e-08
7.14977e-06
2.54935e-08
7.08801e-06
2.60845e-08
7.03217e-06
2.66672e-08
6.98134e-06
2.72287e-08
6.93474e-06
2.7762e-08
6.89174e-06
2.82516e-08
6.85184e-06
2.87011e-08
6.81462e-06
2.91028e-08
6.7798e-06
2.94668e-08
6.74712e-06
2.97912e-08
6.7164e-06
3.00842e-08
6.68746e-06
3.03531e-08
6.66017e-06
3.06035e-08
6.63439e-06
3.08389e-08
6.61001e-06
3.10638e-08
6.58693e-06
3.12824e-08
6.56502e-06
3.14953e-08
6.54419e-06
3.17046e-08
6.52437e-06
3.19125e-08
6.50546e-06
3.21217e-08
6.4874e-06
3.2331e-08
6.47012e-06
3.25438e-08
6.45355e-06
3.27619e-08
6.43766e-06
3.29825e-08
6.42238e-06
3.32118e-08
6.40767e-06
3.34486e-08
6.39349e-06
3.36903e-08
6.3798e-06
3.3942e-08
6.36657e-06
3.42021e-08
6.35376e-06
3.44706e-08
6.34135e-06
3.4749e-08
6.32931e-06
3.5038e-08
6.31761e-06
3.5337e-08
6.30624e-06
3.56466e-08
6.29517e-06
3.59651e-08
6.28438e-06
3.62954e-08
6.27384e-06
3.66333e-08
6.26351e-06
3.69784e-08
6.25339e-06
3.73296e-08
6.24343e-06
3.76866e-08
6.23364e-06
3.80516e-08
6.22401e-06
3.84266e-08
6.21458e-06
3.88227e-08
6.20541e-06
3.92503e-08
6.19656e-06
3.97241e-08
6.18811e-06
4.02576e-08
6.18013e-06
4.08555e-08
6.17267e-06
4.15141e-08
6.16573e-06
4.22126e-08
6.15925e-06
4.29159e-08
6.15308e-06
4.36018e-08
6.14696e-06
4.42699e-08
6.14079e-06
4.49231e-08
6.13454e-06
4.55649e-08
6.12821e-06
4.61949e-08
6.12177e-06
4.68163e-08
6.11521e-06
4.74288e-08
6.10851e-06
4.8035e-08
6.10164e-06
4.86339e-08
6.09457e-06
4.92278e-08
6.08729e-06
4.98156e-08
6.07975e-06
5.03979e-08
6.07194e-06
5.09753e-08
6.06383e-06
5.15464e-08
6.05537e-06
5.21116e-08
6.04654e-06
5.26708e-08
6.03732e-06
5.32229e-08
6.02765e-06
5.37671e-08
6.01752e-06
5.43043e-08
6.00689e-06
5.48319e-08
5.99572e-06
5.53505e-08
5.98398e-06
5.58593e-08
5.97163e-06
5.63567e-08
5.95863e-06
5.6843e-08
5.94496e-06
5.73168e-08
5.93055e-06
5.7777e-08
5.91539e-06
5.82227e-08
5.89943e-06
5.88267e-06
1.91167e-09
1.1736e-05
3.62082e-09
9.8762e-06
5.61461e-09
9.14623e-06
7.5663e-09
8.68572e-06
9.41016e-09
8.35442e-06
1.11212e-08
8.10155e-06
1.26886e-08
7.90062e-06
1.41407e-08
7.7363e-06
1.55049e-08
7.599e-06
1.68063e-08
7.48237e-06
1.80551e-08
7.38194e-06
1.92113e-08
7.29453e-06
2.01677e-08
7.21758e-06
2.09311e-08
7.14901e-06
2.16306e-08
7.08731e-06
2.23399e-08
7.03146e-06
2.30665e-08
6.98062e-06
2.37955e-08
6.93402e-06
2.45109e-08
6.89103e-06
2.51963e-08
6.85115e-06
2.58435e-08
6.81398e-06
2.6446e-08
6.7792e-06
2.70018e-08
6.74657e-06
2.75197e-08
6.71588e-06
2.79973e-08
6.68698e-06
2.84431e-08
6.65972e-06
2.88597e-08
6.63397e-06
2.92547e-08
6.60962e-06
2.96317e-08
6.58655e-06
2.99911e-08
6.56466e-06
3.03366e-08
6.54385e-06
3.06719e-08
6.52403e-06
3.09966e-08
6.50514e-06
3.13135e-08
6.48708e-06
3.16253e-08
6.46981e-06
3.19331e-08
6.45325e-06
3.22375e-08
6.43735e-06
3.25416e-08
6.42207e-06
3.28445e-08
6.40736e-06
3.315e-08
6.39318e-06
3.34579e-08
6.37949e-06
3.37687e-08
6.36626e-06
3.4083e-08
6.35345e-06
3.44023e-08
6.34103e-06
3.47279e-08
6.32898e-06
3.50593e-08
6.31728e-06
3.5397e-08
6.30591e-06
3.57427e-08
6.29483e-06
3.6097e-08
6.28403e-06
3.64562e-08
6.27348e-06
3.68216e-08
6.26315e-06
3.71932e-08
6.25302e-06
3.75688e-08
6.24306e-06
3.79464e-08
6.23326e-06
3.83301e-08
6.22363e-06
3.87234e-08
6.21419e-06
3.91339e-08
6.205e-06
3.95753e-08
6.19611e-06
4.00601e-08
6.18762e-06
4.06015e-08
6.17959e-06
4.1207e-08
6.17206e-06
4.18712e-08
6.16506e-06
4.25759e-08
6.15855e-06
4.32872e-08
6.15237e-06
4.39804e-08
6.14627e-06
4.46591e-08
6.14011e-06
4.53221e-08
6.13388e-06
4.59712e-08
6.12756e-06
4.6609e-08
6.12113e-06
4.72356e-08
6.11459e-06
4.78548e-08
6.10789e-06
4.84647e-08
6.10103e-06
4.90686e-08
6.09397e-06
4.96652e-08
6.08669e-06
5.02559e-08
6.07916e-06
5.08406e-08
6.07136e-06
5.14202e-08
6.06325e-06
5.19939e-08
6.0548e-06
5.25623e-08
6.04597e-06
5.31239e-08
6.03675e-06
5.368e-08
6.0271e-06
5.4229e-08
6.01697e-06
5.47701e-08
6.00635e-06
5.53042e-08
5.99519e-06
5.58296e-08
5.98345e-06
5.63454e-08
5.97111e-06
5.68518e-08
5.95813e-06
5.73474e-08
5.94446e-06
5.78313e-08
5.93007e-06
5.83035e-08
5.91492e-06
5.87624e-08
5.89897e-06
5.88222e-06
1.03805e-09
1.17349e-05
1.97497e-09
9.87526e-06
3.31073e-09
9.1449e-06
4.80508e-09
8.68423e-06
6.34498e-09
8.35288e-06
7.84216e-09
8.10005e-06
9.27463e-09
7.89919e-06
1.06429e-08
7.73493e-06
1.19588e-08
7.59769e-06
1.32393e-08
7.48109e-06
1.44883e-08
7.3807e-06
1.57068e-08
7.29331e-06
1.67965e-08
7.21649e-06
1.76918e-08
7.14811e-06
1.84804e-08
7.08652e-06
1.9258e-08
7.03069e-06
2.00597e-08
6.97981e-06
2.08849e-08
6.93319e-06
2.17092e-08
6.8902e-06
2.25139e-08
6.85035e-06
2.32873e-08
6.8132e-06
2.4024e-08
6.77846e-06
2.47188e-08
6.74587e-06
2.53715e-08
6.71523e-06
2.59885e-08
6.68636e-06
2.65686e-08
6.65914e-06
2.71213e-08
6.63342e-06
2.76454e-08
6.6091e-06
2.81463e-08
6.58605e-06
2.86286e-08
6.56418e-06
2.90916e-08
6.54339e-06
2.95352e-08
6.52359e-06
2.99684e-08
6.50471e-06
3.0386e-08
6.48666e-06
3.07929e-08
6.4694e-06
3.11894e-08
6.45285e-06
3.15801e-08
6.43696e-06
3.19641e-08
6.42169e-06
3.23436e-08
6.40699e-06
3.27178e-08
6.39281e-06
3.30923e-08
6.37912e-06
3.34641e-08
6.36589e-06
3.38359e-08
6.35308e-06
3.42091e-08
6.34066e-06
3.45836e-08
6.32861e-06
3.496e-08
6.31691e-06
3.53414e-08
6.30553e-06
3.57256e-08
6.29444e-06
3.6115e-08
6.28364e-06
3.65085e-08
6.27308e-06
3.69067e-08
6.26275e-06
3.73058e-08
6.25262e-06
3.77063e-08
6.24266e-06
3.81097e-08
6.23286e-06
3.85144e-08
6.22322e-06
3.89268e-08
6.21378e-06
3.93554e-08
6.20457e-06
3.98108e-08
6.19566e-06
4.03081e-08
6.18712e-06
4.08604e-08
6.17903e-06
4.14731e-08
6.17145e-06
4.21442e-08
6.16439e-06
4.28555e-08
6.15784e-06
4.3573e-08
6.15165e-06
4.42761e-08
6.14557e-06
4.49633e-08
6.13942e-06
4.56358e-08
6.13321e-06
4.62943e-08
6.1269e-06
4.69388e-08
6.12049e-06
4.75737e-08
6.11395e-06
4.81974e-08
6.10727e-06
4.88123e-08
6.10041e-06
4.94197e-08
6.09336e-06
5.00196e-08
6.08609e-06
5.06133e-08
6.07857e-06
5.12015e-08
6.07077e-06
5.17832e-08
6.06266e-06
5.23594e-08
6.05422e-06
5.29301e-08
6.0454e-06
5.34955e-08
6.03619e-06
5.40538e-08
6.02654e-06
5.46071e-08
6.01642e-06
5.51546e-08
6.0058e-06
5.56936e-08
5.99465e-06
5.62256e-08
5.98292e-06
5.67496e-08
5.97059e-06
5.72645e-08
5.95761e-06
5.77703e-08
5.94395e-06
5.82655e-08
5.92958e-06
5.87498e-08
5.91444e-06
5.92226e-08
5.8985e-06
5.88177e-06
6.49563e-10
1.17343e-05
1.3131e-09
9.8746e-06
2.23971e-09
9.14397e-06
3.34908e-09
8.68312e-06
4.56579e-09
8.35166e-06
5.80696e-09
8.09881e-06
7.03993e-09
7.89796e-06
8.25668e-09
7.73371e-06
9.46153e-09
7.59648e-06
1.06587e-08
7.47989e-06
1.18451e-08
7.37951e-06
1.30266e-08
7.29213e-06
1.41523e-08
7.21536e-06
1.51357e-08
7.14713e-06
1.59792e-08
7.08568e-06
1.67798e-08
7.02989e-06
1.76069e-08
6.97899e-06
1.84658e-08
6.93233e-06
1.93377e-08
6.88933e-06
2.02096e-08
6.84947e-06
2.10595e-08
6.81235e-06
2.18786e-08
6.77764e-06
2.2664e-08
6.74509e-06
2.3412e-08
6.71448e-06
2.41234e-08
6.68565e-06
2.48068e-08
6.65846e-06
2.54564e-08
6.63277e-06
2.60808e-08
6.60847e-06
2.66811e-08
6.58545e-06
2.726e-08
6.5636e-06
2.78179e-08
6.54283e-06
2.83603e-08
6.52305e-06
2.88809e-08
6.50418e-06
2.9387e-08
6.48616e-06
2.988e-08
6.46891e-06
3.03598e-08
6.45237e-06
3.0827e-08
6.4365e-06
3.12855e-08
6.42123e-06
3.17355e-08
6.40654e-06
3.2179e-08
6.39237e-06
3.2615e-08
6.37868e-06
3.30472e-08
6.36545e-06
3.34754e-08
6.35265e-06
3.39022e-08
6.34023e-06
3.43264e-08
6.32819e-06
3.47505e-08
6.31648e-06
3.51745e-08
6.3051e-06
3.56002e-08
6.29402e-06
3.60272e-08
6.28321e-06
3.64558e-08
6.27266e-06
3.68852e-08
6.26232e-06
3.73144e-08
6.25219e-06
3.77442e-08
6.24223e-06
3.8172e-08
6.23243e-06
3.86011e-08
6.22279e-06
3.9035e-08
6.21334e-06
3.94817e-08
6.20412e-06
3.99536e-08
6.19519e-06
4.04661e-08
6.18661e-06
4.10294e-08
6.17847e-06
4.1652e-08
6.17083e-06
4.233e-08
6.16371e-06
4.30458e-08
6.15712e-06
4.37701e-08
6.15092e-06
4.44808e-08
6.14486e-06
4.51766e-08
6.13873e-06
4.5859e-08
6.13253e-06
4.65252e-08
6.12623e-06
4.71798e-08
6.11984e-06
4.78205e-08
6.11331e-06
4.84508e-08
6.10664e-06
4.90712e-08
6.09979e-06
4.96825e-08
6.09275e-06
5.02868e-08
6.08549e-06
5.08836e-08
6.07797e-06
5.14737e-08
6.07018e-06
5.20583e-08
6.06208e-06
5.26369e-08
6.05364e-06
5.32099e-08
6.04483e-06
5.37785e-08
6.03562e-06
5.43418e-08
6.02598e-06
5.48981e-08
6.01587e-06
5.54492e-08
6.00525e-06
5.59947e-08
5.9941e-06
5.65332e-08
5.98238e-06
5.70656e-08
5.97006e-06
5.759e-08
5.95709e-06
5.81058e-08
5.94344e-06
5.8614e-08
5.92907e-06
5.91114e-08
5.91394e-06
5.95981e-08
5.89801e-06
5.88129e-06
4.91041e-10
1.17338e-05
1.08159e-09
9.87401e-06
1.81135e-09
9.14324e-06
2.702e-09
8.68223e-06
3.69128e-09
8.35067e-06
4.71946e-09
8.09778e-06
5.77043e-09
7.89691e-06
6.82518e-09
7.73266e-06
7.8917e-09
7.59542e-06
8.96672e-09
7.47882e-06
1.00533e-08
7.37842e-06
1.11427e-08
7.29104e-06
1.22298e-08
7.21428e-06
1.32219e-08
7.14614e-06
1.40788e-08
7.08482e-06
1.48747e-08
7.02909e-06
1.56824e-08
6.97818e-06
1.6527e-08
6.93149e-06
1.74049e-08
6.88845e-06
1.82956e-08
6.84858e-06
1.91757e-08
6.81147e-06
2.00389e-08
6.77678e-06
2.08712e-08
6.74425e-06
2.16762e-08
6.71367e-06
2.24522e-08
6.68488e-06
2.31955e-08
6.65771e-06
2.39177e-08
6.63205e-06
2.46131e-08
6.60778e-06
2.5287e-08
6.58477e-06
2.59392e-08
6.56294e-06
2.65729e-08
6.5422e-06
2.71864e-08
6.52244e-06
2.77836e-08
6.50359e-06
2.8364e-08
6.48558e-06
2.89265e-08
6.46834e-06
2.94761e-08
6.45182e-06
3.00133e-08
6.43596e-06
3.05355e-08
6.42071e-06
3.10494e-08
6.40602e-06
3.15538e-08
6.39186e-06
3.20487e-08
6.37819e-06
3.25367e-08
6.36497e-06
3.30202e-08
6.35216e-06
3.34955e-08
6.33976e-06
3.39679e-08
6.32771e-06
3.44378e-08
6.31601e-06
3.4905e-08
6.30463e-06
3.53695e-08
6.29355e-06
3.58344e-08
6.28275e-06
3.62988e-08
6.27219e-06
3.67605e-08
6.26186e-06
3.72227e-08
6.25173e-06
3.768e-08
6.24177e-06
3.81353e-08
6.23197e-06
3.85886e-08
6.22234e-06
3.90445e-08
6.21289e-06
3.95116e-08
6.20366e-06
4.00027e-08
6.1947e-06
4.05295e-08
6.18609e-06
4.1105e-08
6.1779e-06
4.17383e-08
6.17019e-06
4.24235e-08
6.16303e-06
4.31449e-08
6.1564e-06
4.38724e-08
6.1502e-06
4.45902e-08
6.14414e-06
4.52954e-08
6.13802e-06
4.59852e-08
6.13184e-06
4.66613e-08
6.12556e-06
4.73229e-08
6.11917e-06
4.79722e-08
6.11266e-06
4.86088e-08
6.106e-06
4.92348e-08
6.09917e-06
4.9851e-08
6.09214e-06
5.04586e-08
6.08488e-06
5.10592e-08
6.07737e-06
5.16518e-08
6.06959e-06
5.22392e-08
6.06149e-06
5.2821e-08
6.05306e-06
5.33964e-08
6.04426e-06
5.39672e-08
6.03505e-06
5.45329e-08
6.02541e-06
5.50948e-08
6.0153e-06
5.56508e-08
6.0047e-06
5.6202e-08
5.99355e-06
5.6748e-08
5.98184e-06
5.72881e-08
5.96952e-06
5.78222e-08
5.95656e-06
5.83503e-08
5.94291e-06
5.88699e-08
5.92855e-06
5.93821e-08
5.91343e-06
5.98842e-08
5.89751e-06
5.8808e-06
3.83531e-10
1.17334e-05
8.83486e-10
9.87351e-06
1.47626e-09
9.14265e-06
2.20626e-09
8.6815e-06
3.03109e-09
8.34985e-06
3.9166e-09
8.0969e-06
4.82892e-09
7.89599e-06
5.76997e-09
7.73172e-06
6.7284e-09
7.59446e-06
7.70753e-09
7.47784e-06
8.70573e-09
7.37742e-06
9.72195e-09
7.29002e-06
1.07506e-08
7.21325e-06
1.17224e-08
7.14517e-06
1.25724e-08
7.08397e-06
1.33587e-08
7.0283e-06
1.41388e-08
6.9774e-06
1.49584e-08
6.93067e-06
1.58208e-08
6.88759e-06
1.67012e-08
6.8477e-06
1.7591e-08
6.81058e-06
1.84667e-08
6.77591e-06
1.93259e-08
6.7434e-06
2.016e-08
6.71284e-06
2.09692e-08
6.68407e-06
2.17573e-08
6.65693e-06
2.25207e-08
6.63129e-06
2.32641e-08
6.60703e-06
2.39885e-08
6.58405e-06
2.4693e-08
6.56224e-06
2.53807e-08
6.54151e-06
2.60512e-08
6.52177e-06
2.67048e-08
6.50293e-06
2.73409e-08
6.48494e-06
2.79626e-08
6.46772e-06
2.85705e-08
6.45121e-06
2.91622e-08
6.43537e-06
2.97432e-08
6.42013e-06
3.03103e-08
6.40545e-06
3.08671e-08
6.3913e-06
3.1414e-08
6.37764e-06
3.19528e-08
6.36443e-06
3.24821e-08
6.35164e-06
3.3006e-08
6.33923e-06
3.35216e-08
6.3272e-06
3.4034e-08
6.3155e-06
3.45411e-08
6.30413e-06
3.50458e-08
6.29305e-06
3.55467e-08
6.28225e-06
3.60453e-08
6.27169e-06
3.65407e-08
6.26137e-06
3.70312e-08
6.25124e-06
3.75184e-08
6.24128e-06
3.79998e-08
6.23149e-06
3.84776e-08
6.22186e-06
3.89576e-08
6.21241e-06
3.9445e-08
6.20317e-06
3.99535e-08
6.19419e-06
4.04957e-08
6.18554e-06
4.10859e-08
6.17731e-06
4.17288e-08
6.16955e-06
4.24212e-08
6.16234e-06
4.31457e-08
6.15568e-06
4.38777e-08
6.14947e-06
4.4601e-08
6.14342e-06
4.53134e-08
6.13731e-06
4.6011e-08
6.13114e-06
4.66959e-08
6.12487e-06
4.73656e-08
6.11851e-06
4.8022e-08
6.11201e-06
4.86653e-08
6.10536e-06
4.92976e-08
6.09854e-06
4.99188e-08
6.09152e-06
5.05312e-08
6.08427e-06
5.11345e-08
6.07677e-06
5.17312e-08
6.06899e-06
5.23205e-08
6.06091e-06
5.29041e-08
6.05248e-06
5.34831e-08
6.04368e-06
5.40564e-08
6.03448e-06
5.4626e-08
6.02484e-06
5.51909e-08
6.01474e-06
5.5752e-08
6.00414e-06
5.63095e-08
5.993e-06
5.68625e-08
5.98129e-06
5.74119e-08
5.96897e-06
5.79565e-08
5.95601e-06
5.84957e-08
5.94237e-06
5.90297e-08
5.92802e-06
5.95562e-08
5.9129e-06
6.00748e-08
5.89699e-06
5.8803e-06
2.76741e-10
1.17331e-05
6.83253e-10
9.8731e-06
1.16842e-09
9.14216e-06
1.77553e-09
8.68089e-06
2.48018e-09
8.34914e-06
3.24988e-09
8.09613e-06
4.06523e-09
7.89518e-06
4.9147e-09
7.73087e-06
5.79661e-09
7.59358e-06
6.70191e-09
7.47693e-06
7.63225e-09
7.37649e-06
8.58519e-09
7.28907e-06
9.56093e-09
7.21227e-06
1.04954e-08
7.14423e-06
1.1339e-08
7.08313e-06
1.21088e-08
7.02753e-06
1.28719e-08
6.97664e-06
1.36627e-08
6.92988e-06
1.44945e-08
6.88676e-06
1.53619e-08
6.84684e-06
1.62415e-08
6.8097e-06
1.71194e-08
6.77503e-06
1.79848e-08
6.74253e-06
1.88319e-08
6.71199e-06
1.96598e-08
6.68324e-06
2.04682e-08
6.65612e-06
2.12589e-08
6.6305e-06
2.20339e-08
6.60626e-06
2.279e-08
6.58329e-06
2.35322e-08
6.5615e-06
2.4258e-08
6.54078e-06
2.49685e-08
6.52105e-06
2.56632e-08
6.50224e-06
2.63443e-08
6.48426e-06
2.70104e-08
6.46706e-06
2.76607e-08
6.45056e-06
2.82995e-08
6.43473e-06
2.8924e-08
6.4195e-06
2.95376e-08
6.40484e-06
3.01387e-08
6.3907e-06
3.07298e-08
6.37705e-06
3.13109e-08
6.36385e-06
3.18828e-08
6.35106e-06
3.24465e-08
6.33867e-06
3.30034e-08
6.32664e-06
3.35516e-08
6.31495e-06
3.40956e-08
6.30358e-06
3.46351e-08
6.29251e-06
3.51693e-08
6.28171e-06
3.56995e-08
6.27116e-06
3.62265e-08
6.26084e-06
3.6747e-08
6.25072e-06
3.72604e-08
6.24077e-06
3.77682e-08
6.23099e-06
3.82709e-08
6.22136e-06
3.87722e-08
6.21191e-06
3.92804e-08
6.20266e-06
3.98072e-08
6.19366e-06
4.0366e-08
6.18498e-06
4.0969e-08
6.1767e-06
4.16227e-08
6.1689e-06
4.23201e-08
6.16164e-06
4.3047e-08
6.15495e-06
4.37802e-08
6.14873e-06
4.45089e-08
6.14269e-06
4.5227e-08
6.13659e-06
4.59338e-08
6.13043e-06
4.66251e-08
6.12418e-06
4.7303e-08
6.11783e-06
4.79662e-08
6.11134e-06
4.86166e-08
6.10471e-06
4.92544e-08
6.0979e-06
4.98803e-08
6.09089e-06
5.04965e-08
6.08365e-06
5.11035e-08
6.07617e-06
5.17028e-08
6.06839e-06
5.22951e-08
6.06031e-06
5.28814e-08
6.05189e-06
5.34626e-08
6.0431e-06
5.40389e-08
6.0339e-06
5.46117e-08
6.02427e-06
5.51809e-08
6.01417e-06
5.57471e-08
6.00357e-06
5.63106e-08
5.99243e-06
5.68716e-08
5.98073e-06
5.74296e-08
5.96841e-06
5.79851e-08
5.95546e-06
5.85384e-08
5.94182e-06
5.90862e-08
5.92747e-06
5.96296e-08
5.91236e-06
6.01656e-08
5.89646e-06
5.87977e-06
1.88608e-10
1.1733e-05
5.24751e-10
9.87276e-06
9.34702e-10
9.14175e-06
1.44923e-09
8.68038e-06
2.05805e-09
8.34854e-06
2.73743e-09
8.09545e-06
3.47084e-09
7.89444e-06
4.24649e-09
7.73009e-06
5.05871e-09
7.59277e-06
5.90346e-09
7.47609e-06
6.77861e-09
7.37562e-06
7.67569e-09
7.28817e-06
8.59647e-09
7.21135e-06
9.49287e-09
7.14334e-06
1.03145e-08
7.08231e-06
1.10754e-08
7.02677e-06
1.18138e-08
6.9759e-06
1.25791e-08
6.92911e-06
1.33816e-08
6.88596e-06
1.42233e-08
6.84599e-06
1.50854e-08
6.80884e-06
1.59532e-08
6.77416e-06
1.68171e-08
6.74167e-06
1.7666e-08
6.71114e-06
1.85021e-08
6.6824e-06
1.93218e-08
6.6553e-06
2.01255e-08
6.62969e-06
2.09149e-08
6.60547e-06
2.16927e-08
6.58252e-06
2.24553e-08
6.56074e-06
2.32068e-08
6.54003e-06
2.39446e-08
6.52032e-06
2.46703e-08
6.50151e-06
2.53821e-08
6.48355e-06
2.60799e-08
6.46636e-06
2.67644e-08
6.44988e-06
2.74365e-08
6.43406e-06
2.80972e-08
6.41884e-06
2.87456e-08
6.40419e-06
2.9382e-08
6.39007e-06
3.00082e-08
6.37642e-06
3.06247e-08
6.36323e-06
3.12323e-08
6.35046e-06
3.18304e-08
6.33807e-06
3.24203e-08
6.32605e-06
3.30039e-08
6.31437e-06
3.358e-08
6.30301e-06
3.41496e-08
6.29194e-06
3.47151e-08
6.28115e-06
3.5274e-08
6.2706e-06
3.58269e-08
6.26029e-06
3.63733e-08
6.25017e-06
3.69135e-08
6.24023e-06
3.74445e-08
6.23045e-06
3.79693e-08
6.22084e-06
3.8491e-08
6.21139e-06
3.9019e-08
6.20213e-06
3.95629e-08
6.19312e-06
4.01375e-08
6.18441e-06
4.07533e-08
6.17609e-06
4.14152e-08
6.16824e-06
4.21194e-08
6.16094e-06
4.28465e-08
6.15422e-06
4.35809e-08
6.148e-06
4.43115e-08
6.14196e-06
4.50341e-08
6.13587e-06
4.57457e-08
6.12972e-06
4.64443e-08
6.12349e-06
4.71291e-08
6.11714e-06
4.77991e-08
6.11067e-06
4.84553e-08
6.10405e-06
4.90981e-08
6.09726e-06
4.97303e-08
6.09026e-06
5.035e-08
6.08303e-06
5.09615e-08
6.07555e-06
5.15633e-08
6.06779e-06
5.21579e-08
6.05972e-06
5.27471e-08
6.0513e-06
5.33304e-08
6.04252e-06
5.39098e-08
6.03332e-06
5.44852e-08
6.0237e-06
5.50581e-08
6.0136e-06
5.5629e-08
6.003e-06
5.61987e-08
5.99186e-06
5.67676e-08
5.98016e-06
5.73357e-08
5.96785e-06
5.79043e-08
5.95489e-06
5.84706e-08
5.94126e-06
5.90361e-08
5.9269e-06
5.95964e-08
5.9118e-06
6.0151e-08
5.8959e-06
5.87923e-06
1.31721e-10
1.17328e-05
4.12279e-10
9.87248e-06
7.59633e-10
9.14141e-06
1.20126e-09
8.67993e-06
1.7312e-09
8.34801e-06
2.33593e-09
8.09484e-06
3.00019e-09
7.89378e-06
3.71806e-09
7.72938e-06
4.47016e-09
7.59201e-06
5.2598e-09
7.4753e-06
6.08059e-09
7.3748e-06
6.92935e-09
7.28732e-06
7.79342e-09
7.21049e-06
8.64711e-09
7.14248e-06
9.45043e-09
7.0815e-06
1.01975e-08
7.02603e-06
1.09208e-08
6.97518e-06
1.16569e-08
6.92838e-06
1.24321e-08
6.88518e-06
1.32435e-08
6.84518e-06
1.40846e-08
6.808e-06
1.49373e-08
6.77331e-06
1.57886e-08
6.74081e-06
1.66356e-08
6.7103e-06
1.74689e-08
6.68157e-06
1.82897e-08
6.65448e-06
1.90981e-08
6.62888e-06
1.98955e-08
6.60467e-06
2.06818e-08
6.58173e-06
2.14595e-08
6.55996e-06
2.22255e-08
6.53926e-06
2.29794e-08
6.51956e-06
2.37234e-08
6.50077e-06
2.44558e-08
6.48282e-06
2.51771e-08
6.46564e-06
2.58867e-08
6.44917e-06
2.65842e-08
6.43336e-06
2.72704e-08
6.41816e-06
2.79443e-08
6.40352e-06
2.86094e-08
6.3894e-06
2.92648e-08
6.37577e-06
2.99079e-08
6.36259e-06
3.05423e-08
6.34982e-06
3.11688e-08
6.33745e-06
3.17868e-08
6.32543e-06
3.23963e-08
6.31376e-06
3.29994e-08
6.3024e-06
3.35961e-08
6.29134e-06
3.41864e-08
6.28056e-06
3.47704e-08
6.27002e-06
3.53483e-08
6.25971e-06
3.59179e-08
6.2496e-06
3.64792e-08
6.23967e-06
3.70322e-08
6.2299e-06
3.75771e-08
6.22029e-06
3.81192e-08
6.21085e-06
3.86645e-08
6.20159e-06
3.92249e-08
6.19256e-06
3.98128e-08
6.18382e-06
4.04403e-08
6.17546e-06
4.11103e-08
6.16757e-06
4.18162e-08
6.16023e-06
4.2542e-08
6.1535e-06
4.32744e-08
6.14727e-06
4.40059e-08
6.14123e-06
4.47307e-08
6.13515e-06
4.54469e-08
6.129e-06
4.61505e-08
6.12278e-06
4.68408e-08
6.11645e-06
4.75162e-08
6.11e-06
4.81781e-08
6.10339e-06
4.88269e-08
6.09661e-06
4.94623e-08
6.08962e-06
5.0087e-08
6.08241e-06
5.07005e-08
6.07494e-06
5.13055e-08
6.06719e-06
5.19037e-08
6.05912e-06
5.24939e-08
6.05071e-06
5.30798e-08
6.04193e-06
5.36612e-08
6.03274e-06
5.42401e-08
6.02312e-06
5.48167e-08
6.01302e-06
5.53929e-08
6.00242e-06
5.59688e-08
5.99129e-06
5.65459e-08
5.97958e-06
5.71247e-08
5.96727e-06
5.77056e-08
5.95431e-06
5.82886e-08
5.94067e-06
5.88721e-08
5.92632e-06
5.94527e-08
5.91122e-06
6.00268e-08
5.89533e-06
5.87866e-06
7.68214e-11
1.17328e-05
3.05711e-10
9.87225e-06
6.05705e-10
9.14111e-06
9.88842e-10
8.67955e-06
1.45643e-09
8.34754e-06
1.99729e-09
8.0943e-06
2.60723e-09
7.89317e-06
3.26499e-09
7.72872e-06
3.96984e-09
7.59131e-06
4.71266e-09
7.47456e-06
5.48619e-09
7.37402e-06
6.28456e-09
7.28652e-06
7.09572e-09
7.20968e-06
7.91222e-09
7.14166e-06
8.69874e-09
7.08072e-06
9.43141e-09
7.02529e-06
1.01382e-08
6.97447e-06
1.08533e-08
6.92766e-06
1.16002e-08
6.88443e-06
1.23865e-08
6.8444e-06
1.32014e-08
6.80719e-06
1.40363e-08
6.77247e-06
1.48745e-08
6.73998e-06
1.57103e-08
6.70946e-06
1.65363e-08
6.68074e-06
1.7353e-08
6.65366e-06
1.81601e-08
6.62808e-06
1.896e-08
6.60387e-06
1.97492e-08
6.58094e-06
2.05308e-08
6.55918e-06
2.13023e-08
6.53849e-06
2.2067e-08
6.5188e-06
2.28219e-08
6.50002e-06
2.35673e-08
6.48207e-06
2.43022e-08
6.4649e-06
2.50278e-08
6.44844e-06
2.57428e-08
6.43264e-06
2.64466e-08
6.41745e-06
2.71418e-08
6.40282e-06
2.7826e-08
6.38872e-06
2.84995e-08
6.3751e-06
2.91663e-08
6.36192e-06
2.98219e-08
6.34917e-06
3.0468e-08
6.3368e-06
3.11088e-08
6.32479e-06
3.17393e-08
6.31313e-06
3.23646e-08
6.30178e-06
3.29822e-08
6.29073e-06
3.35927e-08
6.27995e-06
3.41971e-08
6.26942e-06
3.47944e-08
6.25911e-06
3.53854e-08
6.24901e-06
3.5965e-08
6.23909e-06
3.65353e-08
6.22933e-06
3.70988e-08
6.21973e-06
3.76563e-08
6.21029e-06
3.82173e-08
6.20103e-06
3.87915e-08
6.19198e-06
3.93916e-08
6.18322e-06
4.00279e-08
6.17482e-06
4.07035e-08
6.16689e-06
4.14103e-08
6.15952e-06
4.2133e-08
6.15278e-06
4.28612e-08
6.14654e-06
4.35906e-08
6.1405e-06
4.4317e-08
6.13442e-06
4.50336e-08
6.12829e-06
4.57409e-08
6.12208e-06
4.64345e-08
6.11576e-06
4.71154e-08
6.10932e-06
4.77814e-08
6.10273e-06
4.84336e-08
6.09596e-06
4.90735e-08
6.08898e-06
4.97008e-08
6.08178e-06
5.03178e-08
6.07432e-06
5.09252e-08
6.06658e-06
5.15246e-08
6.05852e-06
5.21178e-08
6.05012e-06
5.27053e-08
6.04134e-06
5.32889e-08
6.03216e-06
5.387e-08
6.02254e-06
5.44505e-08
6.01244e-06
5.50312e-08
6.00184e-06
5.56136e-08
5.99071e-06
5.61994e-08
5.979e-06
5.67894e-08
5.96668e-06
5.73851e-08
5.95371e-06
5.79862e-08
5.94007e-06
5.85905e-08
5.92572e-06
5.91933e-08
5.91062e-06
5.97895e-08
5.89473e-06
5.87808e-06
3.00755e-11
1.17327e-05
2.14864e-10
9.87207e-06
4.64676e-10
9.14086e-06
7.95737e-10
8.67922e-06
1.21206e-09
8.34712e-06
1.70577e-09
8.09381e-06
2.25977e-09
7.89262e-06
2.87021e-09
7.72811e-06
3.52997e-09
7.59065e-06
4.23022e-09
7.47386e-06
4.96103e-09
7.37329e-06
5.71385e-09
7.28577e-06
6.4846e-09
7.20891e-06
7.26114e-09
7.14089e-06
8.02147e-09
7.07996e-06
8.74177e-09
7.02457e-06
9.43696e-09
6.97377e-06
1.01328e-08
6.92697e-06
1.08559e-08
6.88371e-06
1.1614e-08
6.84364e-06
1.2407e-08
6.80639e-06
1.32208e-08
6.77166e-06
1.40437e-08
6.73915e-06
1.48658e-08
6.70864e-06
1.56828e-08
6.67993e-06
1.64918e-08
6.65285e-06
1.72944e-08
6.62727e-06
1.80883e-08
6.60308e-06
1.88759e-08
6.58015e-06
1.96557e-08
6.5584e-06
2.04316e-08
6.53772e-06
2.11983e-08
6.51803e-06
2.19582e-08
6.49926e-06
2.27098e-08
6.48132e-06
2.34547e-08
6.46416e-06
2.41876e-08
6.44771e-06
2.4913e-08
6.43192e-06
2.56291e-08
6.41674e-06
2.63354e-08
6.40212e-06
2.70337e-08
6.38802e-06
2.77222e-08
6.37441e-06
2.8402e-08
6.36124e-06
2.90732e-08
6.3485e-06
2.97369e-08
6.33614e-06
3.03901e-08
6.32414e-06
3.10395e-08
6.31248e-06
3.16795e-08
6.30114e-06
3.23128e-08
6.29009e-06
3.29402e-08
6.27932e-06
3.35608e-08
6.2688e-06
3.41737e-08
6.2585e-06
3.4778e-08
6.2484e-06
3.53739e-08
6.23849e-06
3.59598e-08
6.22875e-06
3.65359e-08
6.21915e-06
3.71075e-08
6.20972e-06
3.76803e-08
6.20045e-06
3.82654e-08
6.1914e-06
3.88758e-08
6.18261e-06
3.95198e-08
6.17418e-06
4.01978e-08
6.16621e-06
4.0903e-08
6.15882e-06
4.16195e-08
6.15206e-06
4.23395e-08
6.14582e-06
4.30641e-08
6.13977e-06
4.3787e-08
6.1337e-06
4.45051e-08
6.12757e-06
4.52124e-08
6.12137e-06
4.59087e-08
6.11506e-06
4.65911e-08
6.10864e-06
4.72608e-08
6.10206e-06
4.7916e-08
6.0953e-06
4.8558e-08
6.08834e-06
4.91881e-08
6.08115e-06
4.9807e-08
6.07371e-06
5.0417e-08
6.06597e-06
5.10176e-08
6.05792e-06
5.16118e-08
6.04953e-06
5.22007e-08
6.04075e-06
5.27862e-08
6.03157e-06
5.33696e-08
6.02195e-06
5.39535e-08
6.01186e-06
5.45383e-08
6.00126e-06
5.51272e-08
5.99012e-06
5.57212e-08
5.9784e-06
5.63235e-08
5.96608e-06