/*--------------------------------*- C++ -*----------------------------------*\
  =========                 |
  \\      /  F ield         | OpenFOAM: The Open Source CFD Toolbox
   \\    /   O peration     | Website:  https://openfoam.org
    \\  /    A nd           | Version:  10
     \\/     M anipulation  |
\*---------------------------------------------------------------------------*/
FoamFile
{
    format      ascii;
    class       surfaceScalarField;
    location    "64000";
    object      phi;
}
// * * * * * * * * * * * * * * * * * * * * * * * * * * * * * * * * * * * * * //

dimensions      [0 3 -1 0 0 0 0];

internalField   nonuniform List<scalar> 
35536
(
-5.68322e-09
-3.56781e-07
-1.75209e-08
-2.71863e-07
3.34439e-09
-2.57628e-07
5.61222e-08
-2.32685e-07
1.50168e-07
-1.9947e-07
3.06016e-07
-1.53561e-07
5.51392e-07
-8.73484e-08
9.06977e-07
1.04418e-08
1.37694e-06
1.49329e-07
1.94389e-06
3.33265e-07
2.57217e-06
5.60253e-07
3.21911e-06
8.19717e-07
3.84407e-06
1.09616e-06
4.41674e-06
1.37364e-06
4.91963e-06
1.6388e-06
5.34691e-06
1.88194e-06
5.70186e-06
2.09915e-06
5.99319e-06
2.29011e-06
6.23215e-06
2.4566e-06
6.42958e-06
2.60291e-06
6.59532e-06
2.73306e-06
6.73782e-06
2.85059e-06
6.86367e-06
2.95889e-06
6.97786e-06
3.06059e-06
7.08406e-06
3.15767e-06
7.18486e-06
3.25153e-06
7.28204e-06
3.3432e-06
7.37677e-06
3.43333e-06
7.4698e-06
3.52232e-06
7.56162e-06
3.61038e-06
7.65253e-06
3.69756e-06
7.74275e-06
3.78387e-06
7.83242e-06
3.86922e-06
7.92161e-06
3.9535e-06
8.01038e-06
4.03657e-06
8.09873e-06
4.11826e-06
8.18666e-06
4.19838e-06
8.27414e-06
4.2767e-06
8.36112e-06
4.35301e-06
8.44755e-06
4.42702e-06
8.53335e-06
4.49846e-06
8.61845e-06
4.56702e-06
8.70275e-06
4.63238e-06
8.78617e-06
4.69416e-06
8.86859e-06
4.752e-06
8.9499e-06
4.80548e-06
9.02997e-06
4.85415e-06
9.10868e-06
4.89755e-06
9.18587e-06
4.93517e-06
9.26139e-06
4.96648e-06
9.33506e-06
4.99088e-06
9.4067e-06
5.00776e-06
9.4761e-06
5.01645e-06
9.54303e-06
5.01624e-06
9.60726e-06
5.00636e-06
9.66852e-06
4.986e-06
9.72651e-06
4.95427e-06
9.78094e-06
4.91023e-06
9.83146e-06
4.85288e-06
9.87771e-06
4.78113e-06
9.91929e-06
4.6938e-06
9.9558e-06
4.58967e-06
9.98677e-06
4.46738e-06
1.00117e-05
4.32549e-06
1.00302e-05
4.16247e-06
1.00416e-05
3.97665e-06
1.00454e-05
3.76624e-06
1.00409e-05
3.52935e-06
1.00277e-05
3.26391e-06
1.0005e-05
2.96772e-06
9.97211e-06
2.63844e-06
9.92845e-06
2.27354e-06
9.8733e-06
1.87035e-06
9.80592e-06
1.42606e-06
9.72798e-06
9.18729e-07
9.64227e-06
4.05143e-07
9.54968e-06
-6.82665e-08
9.45092e-06
-5.03658e-07
9.34666e-06
-9.03215e-07
9.23754e-06
-1.27012e-06
9.12425e-06
-1.60731e-06
9.0074e-06
-1.91642e-06
8.88746e-06
-2.19891e-06
8.76478e-06
-2.45622e-06
8.63956e-06
-2.68977e-06
8.51203e-06
-2.90098e-06
8.38269e-06
-3.0912e-06
8.25277e-06
-3.26144e-06
8.12406e-06
-3.41211e-06
7.99781e-06
-3.543e-06
7.87351e-06
-3.65406e-06
7.74945e-06
-3.7466e-06
7.62464e-06
-3.82339e-06
7.499e-06
-3.88662e-06
7.37263e-06
-3.93757e-06
7.2456e-06
-3.97738e-06
7.11799e-06
-4.00708e-06
6.98991e-06
-4.02766e-06
6.86142e-06
-4.04006e-06
-4.04514e-06
-7.71309e-09
-3.49066e-07
-2.79e-08
-2.51675e-07
-2.59265e-08
-2.59606e-07
-5.17522e-09
-2.53438e-07
3.59602e-08
-2.40606e-07
1.03447e-07
-2.21048e-07
2.07418e-07
-1.91319e-07
3.64688e-07
-1.46829e-07
5.97437e-07
-8.34197e-08
9.25216e-07
5.48576e-09
1.35723e-06
1.28233e-07
1.88694e-06
2.90015e-07
2.49127e-06
4.91819e-07
3.13644e-06
7.28471e-07
3.78606e-06
9.89175e-07
4.40741e-06
1.26059e-06
4.97659e-06
1.52997e-06
5.4798e-06
1.7869e-06
5.91262e-06
2.02378e-06
6.27804e-06
2.23748e-06
6.58345e-06
2.42765e-06
6.83825e-06
2.59579e-06
7.05176e-06
2.74537e-06
7.23279e-06
2.87957e-06
7.38913e-06
3.00133e-06
7.5271e-06
3.11356e-06
7.65171e-06
3.21858e-06
7.76685e-06
3.31819e-06
7.87539e-06
3.41378e-06
7.97941e-06
3.50635e-06
8.08034e-06
3.59664e-06
8.17913e-06
3.68508e-06
8.2764e-06
3.77194e-06
8.37258e-06
3.85732e-06
8.46793e-06
3.94122e-06
8.5626e-06
4.02358e-06
8.6567e-06
4.10428e-06
8.75027e-06
4.18314e-06
8.84331e-06
4.25996e-06
8.93581e-06
4.33452e-06
9.02773e-06
4.40655e-06
9.11899e-06
4.47576e-06
9.20953e-06
4.54184e-06
9.29926e-06
4.60444e-06
9.38807e-06
4.66319e-06
9.47585e-06
4.71769e-06
9.56248e-06
4.76752e-06
9.64782e-06
4.81221e-06
9.73171e-06
4.85128e-06
9.814e-06
4.88419e-06
9.89449e-06
4.91038e-06
9.97299e-06
4.92925e-06
1.00493e-05
4.94016e-06
1.01231e-05
4.9424e-06
1.01942e-05
4.93524e-06
1.02623e-05
4.91789e-06
1.03271e-05
4.88948e-06
1.03883e-05
4.84911e-06
1.04454e-05
4.79579e-06
1.0498e-05
4.72847e-06
1.05458e-05
4.64602e-06
1.05882e-05
4.54722e-06
1.06248e-05
4.43077e-06
1.06551e-05
4.29527e-06
1.06783e-05
4.1392e-06
1.0694e-05
3.96094e-06
1.07015e-05
3.75875e-06
1.07002e-05
3.53074e-06
1.06892e-05
3.27489e-06
1.06679e-05
2.98904e-06
1.06355e-05
2.67085e-06
1.05912e-05
2.31784e-06
1.05342e-05
1.92735e-06
1.04636e-05
1.49659e-06
1.03812e-05
1.0011e-06
1.029e-05
4.9636e-07
1.0191e-05
3.08108e-08
1.00848e-05
-3.97499e-07
9.97227e-06
-7.90696e-07
9.85412e-06
-1.15198e-06
9.73103e-06
-1.48421e-06
9.60362e-06
-1.78901e-06
9.47248e-06
-2.06777e-06
9.33813e-06
-2.32186e-06
9.20094e-06
-2.55258e-06
9.06116e-06
-2.7612e-06
8.91899e-06
-2.94902e-06
8.77482e-06
-3.11727e-06
8.62965e-06
-3.26694e-06
8.48514e-06
-3.3985e-06
8.34289e-06
-3.5118e-06
8.20279e-06
-3.6065e-06
8.06317e-06
-3.68376e-06
7.9229e-06
-3.74634e-06
7.78189e-06
-3.79656e-06
7.6403e-06
-3.83579e-06
7.49827e-06
-3.86506e-06
7.35595e-06
-3.88534e-06
7.21344e-06
-3.89755e-06
-3.90257e-06
-7.78262e-09
-3.41282e-07
-2.82515e-08
-2.31205e-07
-3.78217e-08
-2.50039e-07
-3.65114e-08
-2.5475e-07
-2.36687e-08
-2.53449e-07
3.47252e-09
-2.4819e-07
4.97612e-08
-2.37608e-07
1.21936e-07
-2.19005e-07
2.27997e-07
-1.89481e-07
3.79946e-07
-1.46464e-07
5.95283e-07
-8.71037e-08
8.92148e-07
-6.84962e-09
1.28336e-06
1.00612e-07
1.7707e-06
2.4113e-07
2.34193e-06
4.17941e-07
2.97221e-06
6.30317e-07
3.63068e-06
8.71497e-07
4.28582e-06
1.13175e-06
4.90977e-06
1.39983e-06
5.48219e-06
1.66505e-06
5.99125e-06
1.91859e-06
6.43316e-06
2.15389e-06
6.81069e-06
2.36784e-06
7.13044e-06
2.55982e-06
7.40054e-06
2.73123e-06
7.62925e-06
2.88484e-06
7.82475e-06
3.02309e-06
7.99433e-06
3.14861e-06
8.14416e-06
3.26395e-06
8.27932e-06
3.37119e-06
8.40387e-06
3.47208e-06
8.52094e-06
3.56802e-06
8.63278e-06
3.66009e-06
8.74103e-06
3.74908e-06
8.84674e-06
3.83551e-06
8.95062e-06
3.9197e-06
9.05314e-06
4.00176e-06
9.15458e-06
4.0817e-06
9.25511e-06
4.15943e-06
9.35483e-06
4.23479e-06
9.45379e-06
4.30759e-06
9.55197e-06
4.37758e-06
9.64934e-06
4.44446e-06
9.74587e-06
4.50792e-06
9.84146e-06
4.5676e-06
9.93603e-06
4.62312e-06
1.00295e-05
4.67408e-06
1.01217e-05
4.72003e-06
1.02125e-05
4.76049e-06
1.03017e-05
4.79496e-06
1.03892e-05
4.82289e-06
1.04747e-05
4.84371e-06
1.05581e-05
4.85678e-06
1.06391e-05
4.86145e-06
1.07173e-05
4.85699e-06
1.07926e-05
4.84264e-06
1.08645e-05
4.81757e-06
1.09327e-05
4.78091e-06
1.09967e-05
4.73171e-06
1.10563e-05
4.66894e-06
1.11108e-05
4.59151e-06
1.11597e-05
4.49826e-06
1.12026e-05
4.3879e-06
1.12388e-05
4.25909e-06
1.12677e-05
4.11034e-06
1.12885e-05
3.94009e-06
1.13006e-05
3.74663e-06
1.13032e-05
3.52812e-06
1.12955e-05
3.28259e-06
1.12767e-05
3.00789e-06
1.12458e-05
2.70173e-06
1.1202e-05
2.36167e-06
1.11443e-05
1.98507e-06
1.10717e-05
1.56915e-06
1.0986e-05
1.08682e-06
1.08902e-05
5.92091e-07
1.07856e-05
1.35439e-07
1.0673e-05
-2.84874e-07
1.05531e-05
-6.70782e-07
1.04266e-05
-1.02553e-06
1.02944e-05
-1.35197e-06
1.0157e-05
-1.65164e-06
1.00152e-05
-1.92592e-06
9.86941e-06
-2.17611e-06
9.72029e-06
-2.40346e-06
9.56822e-06
-2.60913e-06
9.4135e-06
-2.7943e-06
9.25633e-06
-2.9601e-06
9.09705e-06
-3.10765e-06
8.93644e-06
-3.23789e-06
8.77596e-06
-3.35132e-06
8.6173e-06
-3.44785e-06
8.46071e-06
-3.52717e-06
8.3047e-06
-3.59034e-06
8.14825e-06
-3.64011e-06
7.99139e-06
-3.67892e-06
7.83432e-06
-3.70798e-06
7.6772e-06
-3.72822e-06
7.52017e-06
-3.74052e-06
-3.74576e-06
-6.06758e-09
-3.35217e-07
-2.16922e-08
-2.15583e-07
-3.36906e-08
-2.3804e-07
-4.04333e-08
-2.48007e-07
-4.13053e-08
-2.52579e-07
-3.4869e-08
-2.54627e-07
-1.84358e-08
-2.54041e-07
1.21349e-08
-2.49575e-07
6.19505e-08
-2.39296e-07
1.36597e-07
-2.21111e-07
2.42428e-07
-1.92935e-07
3.88212e-07
-1.52634e-07
5.86794e-07
-9.79698e-08
8.53898e-07
-2.59739e-08
1.20392e-06
6.79216e-08
1.64416e-06
1.90077e-07
2.17108e-06
3.44577e-07
2.7697e-06
5.33124e-07
3.41625e-06
7.53293e-07
4.0826e-06
9.987e-07
4.74063e-06
1.26056e-06
5.3658e-06
1.52872e-06
5.94022e-06
1.79341e-06
6.45361e-06
2.04644e-06
6.90304e-06
2.2818e-06
7.29134e-06
2.49655e-06
7.62443e-06
2.68999e-06
7.90937e-06
2.86367e-06
8.15354e-06
3.01977e-06
8.36443e-06
3.16031e-06
8.54882e-06
3.28769e-06
8.71258e-06
3.40425e-06
8.86067e-06
3.512e-06
8.99712e-06
3.61263e-06
9.12508e-06
3.70755e-06
9.24697e-06
3.79781e-06
9.36448e-06
3.88426e-06
9.47876e-06
3.96742e-06
9.5906e-06
4.04759e-06
9.7005e-06
4.12489e-06
9.80881e-06
4.19928e-06
9.91574e-06
4.27065e-06
1.00214e-05
4.3388e-06
1.01259e-05
4.40345e-06
1.02292e-05
4.46431e-06
1.03313e-05
4.52103e-06
1.04321e-05
4.57323e-06
1.05316e-05
4.6205e-06
1.06297e-05
4.66239e-06
1.07263e-05
4.69842e-06
1.08211e-05
4.72807e-06
1.0914e-05
4.7508e-06
1.10048e-05
4.76601e-06
1.10932e-05
4.77306e-06
1.11789e-05
4.77126e-06
1.12616e-05
4.7599e-06
1.1341e-05
4.73816e-06
1.14167e-05
4.70522e-06
1.14883e-05
4.66017e-06
1.15552e-05
4.60201e-06
1.1617e-05
4.52971e-06
1.16731e-05
4.44214e-06
1.17229e-05
4.33807e-06
1.17658e-05
4.21619e-06
1.18011e-05
4.07509e-06
1.18279e-05
3.91324e-06
1.18456e-05
3.72898e-06
1.18532e-05
3.52053e-06
1.18498e-05
3.28596e-06
1.18345e-05
3.02319e-06
1.18063e-05
2.72998e-06
1.1764e-05
2.40391e-06
1.17067e-05
2.04238e-06
1.16332e-05
1.64264e-06
1.15452e-05
1.17487e-06
1.14459e-05
6.91406e-07
1.13365e-05
2.44757e-07
1.12183e-05
-1.66622e-07
1.10918e-05
-5.44332e-07
1.09579e-05
-8.91553e-07
1.08171e-05
-1.2112e-06
1.06703e-05
-1.50482e-06
1.05181e-05
-1.77374e-06
1.03612e-05
-2.01922e-06
1.02002e-05
-2.24244e-06
1.00356e-05
-2.44455e-06
9.8679e-06
-2.62661e-06
9.69745e-06
-2.78966e-06
9.52453e-06
-2.93473e-06
9.34946e-06
-3.06281e-06
9.1729e-06
-3.17476e-06
8.99614e-06
-3.27109e-06
8.8208e-06
-3.35183e-06
8.64727e-06
-3.41681e-06
8.47437e-06
-3.46721e-06
8.30147e-06
-3.50602e-06
8.12874e-06
-3.53525e-06
7.95632e-06
-3.5558e-06
7.78432e-06
-3.56853e-06
7.61285e-06
-3.57429e-06
7.44201e-06
-3.57393e-06
7.27193e-06
-3.56828e-06
7.10278e-06
-3.55815e-06
-3.54427e-06
-4.63271e-09
-3.30587e-07
-1.62345e-08
-2.03981e-07
-2.72269e-08
-2.27044e-07
-3.61254e-08
-2.39106e-07
-4.24083e-08
-2.46294e-07
-4.53242e-08
-2.51711e-07
-4.3577e-08
-2.55788e-07
-3.49643e-08
-2.58188e-07
-1.6219e-08
-2.58041e-07
1.67025e-08
-2.54032e-07
6.83448e-08
-2.44577e-07
1.43565e-07
-2.27854e-07
2.47551e-07
-2.01955e-07
3.86555e-07
-1.64979e-07
5.69541e-07
-1.15064e-07
8.09299e-07
-4.96809e-08
1.11943e-06
3.44428e-08
1.51062e-06
1.41942e-07
1.98629e-06
2.77623e-07
2.54013e-06
4.44861e-07
3.15629e-06
6.44394e-07
3.81225e-06
8.72759e-07
4.48203e-06
1.12364e-06
5.14007e-06
1.3884e-06
5.76462e-06
1.65724e-06
6.34015e-06
1.92102e-06
6.85786e-06
2.17229e-06
7.31569e-06
2.40583e-06
7.71637e-06
2.61909e-06
8.065e-06
2.81168e-06
8.36738e-06
2.98531e-06
8.6299e-06
3.14174e-06
8.8593e-06
3.2826e-06
9.06169e-06
3.41024e-06
9.24247e-06
3.52677e-06
9.40628e-06
3.634e-06
9.55706e-06
3.73347e-06
9.69798e-06
3.82649e-06
9.83149e-06
3.91408e-06
9.95938e-06
3.99699e-06
1.0083e-05
4.07571e-06
1.02031e-05
4.15047e-06
1.03206e-05
4.22137e-06
1.04357e-05
4.28834e-06
1.05488e-05
4.35121e-06
1.066e-05
4.40975e-06
1.07696e-05
4.46365e-06
1.08776e-05
4.51257e-06
1.09838e-05
4.55611e-06
1.10884e-05
4.59385e-06
1.11912e-05
4.62531e-06
1.1292e-05
4.65e-06
1.13906e-05
4.66735e-06
1.14869e-05
4.67676e-06
1.15806e-05
4.67761e-06
1.16713e-05
4.6692e-06
1.17587e-05
4.65077e-06
1.18424e-05
4.62154e-06
1.19219e-05
4.58063e-06
1.19968e-05
4.52712e-06
1.20665e-05
4.46e-06
1.21304e-05
4.3782e-06
1.21879e-05
4.28056e-06
1.22383e-05
4.16581e-06
1.22808e-05
4.0326e-06
1.23146e-05
3.87946e-06
1.23387e-05
3.70481e-06
1.23523e-05
3.50693e-06
1.23544e-05
3.28395e-06
1.23437e-05
3.03386e-06
1.23192e-05
2.75447e-06
1.22797e-05
2.44342e-06
1.22239e-05
2.09817e-06
1.21505e-05
1.71599e-06
1.20612e-05
1.26425e-06
1.19591e-05
7.93435e-07
1.18459e-05
3.58006e-07
1.17227e-05
-4.34521e-08
1.15905e-05
-4.12133e-07
1.14497e-05
-7.50753e-07
1.1301e-05
-1.06246e-06
1.11451e-05
-1.34896e-06
1.09829e-05
-1.61152e-06
1.0815e-05
-1.85134e-06
1.06422e-05
-2.06957e-06
1.04649e-05
-2.2673e-06
1.02839e-05
-2.44555e-06
1.00995e-05
-2.60532e-06
9.91235e-06
-2.74755e-06
9.7227e-06
-2.87316e-06
9.53098e-06
-2.98304e-06
9.33785e-06
-3.07796e-06
9.14449e-06
-3.15847e-06
8.95238e-06
-3.22469e-06
8.76189e-06
-3.27672e-06
8.57231e-06
-3.31644e-06
8.3834e-06
-3.34635e-06
8.19524e-06
-3.36764e-06
8.00784e-06
-3.38113e-06
7.82124e-06
-3.38769e-06
7.63551e-06
-3.3882e-06
7.45077e-06
-3.38354e-06
7.26719e-06
-3.37457e-06
-3.36207e-06
-4.25103e-09
-3.26337e-07
-1.43317e-08
-1.93899e-07
-2.47914e-08
-2.16587e-07
-3.44085e-08
-2.2949e-07
-4.29107e-08
-2.37791e-07
-4.99771e-08
-2.44644e-07
-5.50594e-08
-2.50706e-07
-5.72325e-08
-2.56015e-07
-5.49453e-08
-2.60329e-07
-4.58659e-08
-2.63111e-07
-2.69527e-08
-2.6349e-07
5.5092e-09
-2.60316e-07
5.57237e-08
-2.5217e-07
1.28088e-07
-2.37343e-07
2.26976e-07
-2.13951e-07
3.57408e-07
-1.80112e-07
5.25917e-07
-1.34066e-07
7.41687e-07
-7.38264e-08
1.0163e-06
3.01465e-09
1.36161e-06
9.9546e-08
1.7856e-06
2.20404e-07
2.28901e-06
3.69349e-07
2.86371e-06
5.48944e-07
3.49334e-06
7.58771e-07
4.15625e-06
9.94322e-07
4.8284e-06
1.24888e-06
5.48671e-06
1.51398e-06
6.11214e-06
1.78041e-06
6.69114e-06
2.04009e-06
7.21618e-06
2.28665e-06
7.68578e-06
2.51571e-06
8.10227e-06
2.72526e-06
8.46964e-06
2.91522e-06
8.79246e-06
3.08742e-06
9.07611e-06
3.24312e-06
9.3264e-06
3.38371e-06
9.54865e-06
3.51123e-06
9.74774e-06
3.6274e-06
9.92812e-06
3.7337e-06
1.00937e-05
3.83145e-06
1.02476e-05
3.92176e-06
1.03925e-05
4.00554e-06
1.05305e-05
4.08345e-06
1.06629e-05
4.15592e-06
1.07909e-05
4.2232e-06
1.09153e-05
4.28533e-06
1.10367e-05
4.34225e-06
1.11555e-05
4.39379e-06
1.12719e-05
4.4397e-06
1.13861e-05
4.47967e-06
1.14981e-05
4.51331e-06
1.16079e-05
4.5402e-06
1.17154e-05
4.55985e-06
1.18204e-05
4.57174e-06
1.19227e-05
4.57528e-06
1.20221e-05
4.56984e-06
1.21181e-05
4.55473e-06
1.22105e-05
4.5292e-06
1.22987e-05
4.49244e-06
1.23822e-05
4.44358e-06
1.24605e-05
4.38168e-06
1.2533e-05
4.30572e-06
1.2599e-05
4.21459e-06
1.26577e-05
4.10711e-06
1.27083e-05
3.98199e-06
1.27499e-05
3.83785e-06
1.27816e-05
3.67316e-06
1.28022e-05
3.4863e-06
1.28107e-05
3.27548e-06
1.28058e-05
3.03877e-06
1.27862e-05
2.77406e-06
1.27505e-05
2.47906e-06
1.26974e-05
2.15129e-06
1.26253e-05
1.78807e-06
1.25357e-05
1.35394e-06
1.24318e-05
8.9731e-07
1.23153e-05
4.74486e-07
1.21878e-05
8.4093e-08
1.20503e-05
-2.74704e-07
1.19032e-05
-6.03667e-07
1.1747e-05
-9.06235e-07
1.15825e-05
-1.18442e-06
1.14104e-05
-1.43949e-06
1.12317e-05
-1.67259e-06
1.1047e-05
-1.88483e-06
1.08569e-05
-2.07724e-06
1.06622e-05
-2.25084e-06
1.04634e-05
-2.40657e-06
1.02613e-05
-2.54538e-06
1.00562e-05
-2.66816e-06
9.84897e-06
-2.77576e-06
9.64001e-06
-2.869e-06
9.43013e-06
-2.94859e-06
9.22043e-06
-3.015e-06
9.01213e-06
-3.06842e-06
8.80552e-06
-3.10983e-06
8.60024e-06
-3.14107e-06
8.39606e-06
-3.16346e-06
8.19283e-06
-3.17791e-06
7.99053e-06
-3.18539e-06
7.78921e-06
-3.18687e-06
7.58899e-06
-3.18333e-06
7.39012e-06
-3.17569e-06
-3.16483e-06
-4.1924e-09
-3.22142e-07
-1.37356e-08
-1.84352e-07
-2.37891e-08
-2.0653e-07
-3.33365e-08
-2.1994e-07
-4.23547e-08
-2.28771e-07
-5.07798e-08
-2.36219e-07
-5.84292e-08
-2.43056e-07
-6.4973e-08
-2.49471e-07
-6.98506e-08
-2.55451e-07
-7.21116e-08
-2.6085e-07
-7.02403e-08
-2.65361e-07
-6.21009e-08
-2.68455e-07
-4.4952e-08
-2.69318e-07
-1.53921e-08
-2.66902e-07
3.05822e-08
-2.59925e-07
9.7223e-08
-2.46752e-07
1.88745e-07
-2.25588e-07
3.095e-07
-1.94581e-07
4.64494e-07
-1.51979e-07
6.60288e-07
-9.62479e-08
9.05901e-07
-2.52081e-08
1.21197e-06
6.32772e-08
1.58891e-06
1.72012e-07
2.04232e-06
3.05361e-07
2.5703e-06
4.66335e-07
3.16306e-06
6.56123e-07
3.80423e-06
8.72806e-07
4.47317e-06
1.11146e-06
5.14783e-06
1.36543e-06
5.80758e-06
1.6269e-06
6.43567e-06
1.88761e-06
7.02018e-06
2.14075e-06
7.55437e-06
2.38102e-06
8.03718e-06
2.60461e-06
8.47042e-06
2.80988e-06
8.85688e-06
2.99725e-06
9.20002e-06
3.16809e-06
9.50439e-06
3.32303e-06
9.77473e-06
3.46336e-06
1.00157e-05
3.59045e-06
1.0232e-05
3.70553e-06
1.04277e-05
3.80975e-06
1.0607e-05
3.90419e-06
1.07731e-05
3.98984e-06
1.09287e-05
4.06754e-06
1.10762e-05
4.13791e-06
1.1217e-05
4.20138e-06
1.13526e-05
4.2582e-06
1.14839e-05
4.30847e-06
1.16114e-05
4.35214e-06
1.17356e-05
4.38905e-06
1.18569e-05
4.41895e-06
1.19753e-05
4.44149e-06
1.20907e-05
4.45627e-06
1.22032e-05
4.46281e-06
1.23125e-05
4.46055e-06
1.24183e-05
4.44889e-06
1.25203e-05
4.42717e-06
1.26181e-05
4.39464e-06
1.27112e-05
4.35049e-06
1.27991e-05
4.29385e-06
1.2881e-05
4.22378e-06
1.29563e-05
4.13927e-06
1.30242e-05
4.03918e-06
1.30839e-05
3.92232e-06
1.31344e-05
3.78739e-06
1.31746e-05
3.63298e-06
1.32033e-05
3.45754e-06
1.32194e-05
3.2594e-06
1.32214e-05
3.03673e-06
1.3208e-05
2.78752e-06
1.31774e-05
2.50958e-06
1.31282e-05
2.20051e-06
1.30586e-05
1.85771e-06
1.29696e-05
1.44287e-06
1.28648e-05
1.00215e-06
1.27457e-05
5.93545e-07
1.26142e-05
2.15663e-07
1.24716e-05
-1.32134e-07
1.23185e-05
-4.50589e-07
1.21552e-05
-7.42879e-07
1.19822e-05
-1.01148e-06
1.18006e-05
-1.25781e-06
1.1611e-05
-1.48301e-06
1.14143e-05
-1.68812e-06
1.12112e-05
-1.87414e-06
1.10024e-05
-2.04207e-06
1.07887e-05
-2.19289e-06
1.05709e-05
-2.32757e-06
1.03498e-05
-2.44709e-06
1.01264e-05
-2.55233e-06
9.90148e-06
-2.64407e-06
9.67585e-06
-2.72295e-06
9.45029e-06
-2.78944e-06
9.22572e-06
-2.84385e-06
9.00269e-06
-2.8868e-06
8.78096e-06
-2.91935e-06
8.5602e-06
-2.9427e-06
8.34025e-06
-2.95796e-06
8.12111e-06
-2.96625e-06
7.90291e-06
-2.96867e-06
7.68591e-06
-2.96632e-06
7.47045e-06
-2.96023e-06
7.25695e-06
-2.95134e-06
-2.94046e-06
-4.05025e-09
-3.18091e-07
-1.28747e-08
-1.75529e-07
-2.19045e-08
-1.97498e-07
-3.04081e-08
-2.11435e-07
-3.85465e-08
-2.20633e-07
-4.6401e-08
-2.28364e-07
-5.39595e-08
-2.35497e-07
-6.1135e-08
-2.42294e-07
-6.77544e-08
-2.48831e-07
-7.35124e-08
-2.55092e-07
-7.78823e-08
-2.60991e-07
-7.99878e-08
-2.66349e-07
-7.84534e-08
-2.70852e-07
-7.13337e-08
-2.74021e-07
-5.61039e-08
-2.75154e-07
-2.95724e-08
-2.73283e-07
1.20393e-08
-2.67199e-07
7.28692e-08
-2.5541e-07
1.5711e-07
-2.36219e-07
2.68704e-07
-2.07842e-07
4.1203e-07
-1.68533e-07
5.92129e-07
-1.16821e-07
8.15472e-07
-5.13314e-08
1.09078e-06
3.00558e-08
1.42772e-06
1.29388e-07
1.83453e-06
2.49316e-07
2.3142e-06
3.93138e-07
2.86266e-06
5.62999e-07
3.46914e-06
7.58958e-07
4.11781e-06
9.78222e-07
4.78941e-06
1.21602e-06
5.4639e-06
1.46626e-06
6.12286e-06
1.72206e-06
6.75146e-06
1.976e-06
7.33917e-06
2.22217e-06
7.88041e-06
2.45601e-06
8.37438e-06
2.67412e-06
8.82209e-06
2.87532e-06
9.22509e-06
3.06036e-06
9.58609e-06
3.22946e-06
9.90872e-06
3.38289e-06
1.01969e-05
3.52153e-06
1.0455e-05
3.64617e-06
1.06871e-05
3.75769e-06
1.08976e-05
3.85704e-06
1.10904e-05
3.94518e-06
1.12687e-05
4.02306e-06
1.14354e-05
4.09146e-06
1.15928e-05
4.15104e-06
1.17427e-05
4.20224e-06
1.18864e-05
4.24536e-06
1.20249e-05
4.28049e-06
1.21588e-05
4.30762e-06
1.22885e-05
4.32657e-06
1.24142e-05
4.33707e-06
1.25361e-05
4.3387e-06
1.26539e-05
4.33103e-06
1.27676e-05
4.31352e-06
1.28767e-05
4.28553e-06
1.29809e-05
4.24632e-06
1.30796e-05
4.19512e-06
1.31722e-05
4.13112e-06
1.32581e-05
4.05338e-06
1.33365e-05
3.96085e-06
1.34064e-05
3.85242e-06
1.34669e-05
3.72692e-06
1.35168e-05
3.58306e-06
1.35549e-05
3.41943e-06
1.35798e-05
3.23445e-06
1.35901e-05
3.02643e-06
1.35841e-05
2.79352e-06
1.35601e-05
2.53364e-06
1.35161e-05
2.2445e-06
1.34502e-05
1.92359e-06
1.33632e-05
1.52988e-06
1.32583e-05
1.10706e-06
1.31372e-05
7.1465e-07
1.30017e-05
3.51143e-07
1.28538e-05
1.57886e-08
1.26947e-05
-2.91526e-07
1.25244e-05
-5.726e-07
1.23432e-05
-8.30258e-07
1.21519e-05
-1.06652e-06
1.19514e-05
-1.28252e-06
1.17425e-05
-1.47924e-06
1.15261e-05
-1.65767e-06
1.13029e-05
-1.81888e-06
1.1074e-05
-1.96396e-06
1.08404e-05
-2.09403e-06
1.06035e-05
-2.21012e-06
1.03642e-05
-2.3131e-06
1.01239e-05
-2.40373e-06
9.88329e-06
-2.48235e-06
9.64291e-06
-2.54906e-06
9.403e-06
-2.60394e-06
9.16353e-06
-2.64733e-06
8.92441e-06
-2.68023e-06
8.68561e-06
-2.7039e-06
8.44721e-06
-2.71956e-06
8.20943e-06
-2.72847e-06
7.97261e-06
-2.73185e-06
7.73721e-06
-2.73091e-06
7.50374e-06
-2.72676e-06
7.27279e-06
-2.72039e-06
7.04497e-06
-2.71264e-06
6.82088e-06
-2.70419e-06
-2.69553e-06
-3.70246e-09
-3.14389e-07
-1.12447e-08
-1.67985e-07
-1.8547e-08
-1.90194e-07
-2.52346e-08
-2.04747e-07
-3.15792e-08
-2.14289e-07
-3.77277e-08
-2.22216e-07
-4.37332e-08
-2.29492e-07
-4.95964e-08
-2.36431e-07
-5.52759e-08
-2.43151e-07
-6.0682e-08
-2.49686e-07
-6.5652e-08
-2.56021e-07
-6.9898e-08
-2.62103e-07
-7.29208e-08
-2.6783e-07
-7.3924e-08
-2.73018e-07
-7.17106e-08
-2.77367e-07
-6.45589e-08
-2.80435e-07
-5.01431e-08
-2.81615e-07
-2.54824e-08
-2.80071e-07
1.30021e-08
-2.74703e-07
6.93284e-08
-2.64168e-07
1.47695e-07
-2.469e-07
2.52065e-07
-2.21192e-07
3.86066e-07
-1.85333e-07
5.53886e-07
-1.37764e-07
7.605e-07
-7.72262e-08
1.01215e-06
-2.33333e-09
1.31659e-06
8.86969e-08
1.68201e-06
1.97583e-07
2.11428e-06
3.26686e-07
2.61409e-06
4.78408e-07
3.17596e-06
6.54158e-07
3.78893e-06
8.53292e-07
4.43822e-06
1.07277e-06
5.10614e-06
1.30808e-06
5.77457e-06
1.55375e-06
6.42719e-06
1.80339e-06
7.05099e-06
2.05032e-06
7.637e-06
2.28931e-06
8.18141e-06
2.51595e-06
8.68325e-06
2.72762e-06
9.14228e-06
2.92386e-06
9.55921e-06
3.10459e-06
9.93606e-06
3.26932e-06
1.02755e-05
3.41827e-06
1.05808e-05
3.55173e-06
1.08557e-05
3.67024e-06
1.11043e-05
3.77447e-06
1.13305e-05
3.86528e-06
1.1538e-05
3.94358e-06
1.173e-05
4.01026e-06
1.19092e-05
4.0661e-06
1.2078e-05
4.11173e-06
1.2238e-05
4.14761e-06
1.23905e-05
4.17401e-06
1.25366e-05
4.19103e-06
1.26768e-05
4.19847e-06
1.28115e-05
4.19635e-06
1.29407e-05
4.18431e-06
1.30644e-05
4.1618e-06
1.31826e-05
4.1282e-06
1.32947e-05
4.08297e-06
1.34003e-05
4.02551e-06
1.34988e-05
3.95493e-06
1.35893e-05
3.8703e-06
1.36712e-05
3.77057e-06
1.37433e-05
3.65478e-06
1.38045e-05
3.52183e-06
1.38536e-05
3.3704e-06
1.3889e-05
3.19906e-06
1.39091e-05
3.00631e-06
1.39121e-05
2.79049e-06
1.38961e-05
2.54967e-06
1.38589e-05
2.28167e-06
1.37983e-05
1.98417e-06
1.37146e-05
1.61356e-06
1.36108e-05
1.21089e-06
1.34884e-05
8.37026e-07
1.33492e-05
4.90325e-07
1.31954e-05
1.69651e-07
1.30291e-05
-1.25262e-07
1.28512e-05
-3.94665e-07
1.26616e-05
-6.40663e-07
1.24607e-05
-8.65643e-07
1.22493e-05
-1.07106e-06
1.20281e-05
-1.25807e-06
1.17983e-05
-1.42784e-06
1.1561e-05
-1.58158e-06
1.13175e-05
-1.72052e-06
1.10695e-05
-1.84598e-06
1.08181e-05
-1.95876e-06
1.05645e-05
-2.0595e-06
1.03095e-05
-2.14876e-06
1.00538e-05
-2.22666e-06
9.79752e-06
-2.29275e-06
9.54025e-06
-2.34666e-06
9.28194e-06
-2.38902e-06
9.02298e-06
-2.42127e-06
8.76376e-06
-2.44468e-06
8.50474e-06
-2.46054e-06
8.24643e-06
-2.47016e-06
7.98943e-06
-2.47485e-06
7.73438e-06
-2.47587e-06
7.48202e-06
-2.4744e-06
7.23306e-06
-2.47143e-06
6.98822e-06
-2.46781e-06
6.74819e-06
-2.46415e-06
6.51357e-06
-2.46091e-06
-2.45832e-06
-3.28997e-09
-3.11099e-07
-9.27831e-09
-1.61993e-07
-1.45497e-08
-1.84922e-07
-1.91623e-08
-2.00132e-07
-2.34321e-08
-2.10017e-07
-2.7515e-08
-2.18132e-07
-3.14798e-08
-2.25527e-07
-3.53546e-08
-2.32556e-07
-3.91407e-08
-2.39365e-07
-4.28129e-08
-2.46013e-07
-4.63172e-08
-2.52516e-07
-4.95627e-08
-2.58857e-07
-5.23939e-08
-2.64998e-07
-5.45392e-08
-2.70873e-07
-5.55336e-08
-2.76373e-07
-5.4647e-08
-2.81321e-07
-5.08176e-08
-2.85444e-07
-4.2541e-08
-2.88348e-07
-2.77442e-08
-2.89501e-07
-3.71518e-09
-2.88198e-07
3.28675e-08
-2.83483e-07
8.58343e-08
-2.74159e-07
1.59295e-07
-2.58794e-07
2.57303e-07
-2.35772e-07
3.83485e-07
-2.03408e-07
5.41253e-07
-1.60101e-07
7.34463e-07
-1.04513e-07
9.67641e-07
-3.55947e-08
1.24627e-06
4.80575e-08
1.57668e-06
1.47999e-07
1.96531e-06
2.65527e-07
2.41608e-06
4.02524e-07
2.92811e-06
5.60733e-07
3.49526e-06
7.40939e-07
4.10689e-06
9.4212e-07
4.74921e-06
1.16106e-06
5.40631e-06
1.39323e-06
6.06205e-06
1.63357e-06
6.70236e-06
1.87564e-06
7.31633e-06
2.11365e-06
7.89743e-06
2.34276e-06
8.44277e-06
2.55925e-06
8.95044e-06
2.76165e-06
9.41919e-06
2.94952e-06
9.84903e-06
3.12189e-06
1.0241e-05
3.2783e-06
1.05969e-05
3.4185e-06
1.09197e-05
3.54255e-06
1.12124e-05
3.6508e-06
1.14788e-05
3.74389e-06
1.17223e-05
3.82261e-06
1.19462e-05
3.88782e-06
1.21535e-05
3.94031e-06
1.23467e-05
3.98078e-06
1.2528e-05
4.00976e-06
1.26987e-05
4.02773e-06
1.28601e-05
4.03494e-06
1.30133e-05
4.03115e-06
1.31587e-05
4.01644e-06
1.32968e-05
3.99006e-06
1.34274e-05
3.95238e-06
1.35501e-05
3.90276e-06
1.36647e-05
3.84035e-06
1.37706e-05
3.76439e-06
1.38673e-05
3.67391e-06
1.39537e-05
3.56835e-06
1.40287e-05
3.44687e-06
1.40909e-05
3.30821e-06
1.41389e-05
3.15106e-06
1.41709e-05
2.97425e-06
1.4185e-05
2.7764e-06
1.4179e-05
2.55571e-06
1.41506e-05
2.31011e-06
1.40972e-05
2.03753e-06
1.40187e-05
1.69207e-06
1.39176e-05
1.31198e-06
1.37954e-05
9.59226e-07
1.36536e-05
6.32104e-07
1.3494e-05
3.29236e-07
1.33191e-05
4.97167e-08
1.31312e-05
-2.06771e-07
1.29314e-05
-4.40907e-07
1.27199e-05
-6.54099e-07
1.24971e-05
-8.48305e-07
1.22643e-05
-1.02525e-06
1.20228e-05
-1.18632e-06
1.17739e-05
-1.3327e-06
1.15188e-05
-1.46545e-06
1.12586e-05
-1.58575e-06
1.09941e-05
-1.69422e-06
1.07258e-05
-1.79126e-06
1.04542e-05
-1.87711e-06
1.01795e-05
-1.95195e-06
9.90234e-06
-2.01564e-06
9.62341e-06
-2.06773e-06
9.34303e-06
-2.10864e-06
9.06176e-06
-2.14e-06
8.78032e-06
-2.16324e-06
8.49941e-06
-2.17963e-06
8.21976e-06
-2.19051e-06
7.94216e-06
-2.19725e-06
7.66746e-06
-2.20116e-06
7.39649e-06
-2.20343e-06
7.13011e-06
-2.20505e-06
6.86911e-06
-2.2068e-06
6.6142e-06
-2.20924e-06
6.36599e-06
-2.2127e-06
6.12499e-06
-2.21732e-06
5.89159e-06
-2.22308e-06
-2.22986e-06
-2.88249e-09
-3.08217e-07
-7.27386e-09
-1.57605e-07
-1.04087e-08
-1.81793e-07
-1.30276e-08
-1.97517e-07
-1.5323e-08
-2.07724e-07
-1.74169e-08
-2.1604e-07
-1.9373e-08
-2.23572e-07
-2.12221e-08
-2.30708e-07
-2.29751e-08
-2.37612e-07
-2.46313e-08
-2.44357e-07
-2.61761e-08
-2.50972e-07
-2.7574e-08
-2.5746e-07
-2.87643e-08
-2.63808e-07
-2.96513e-08
-2.69986e-07
-3.00789e-08
-2.75946e-07
-2.97867e-08
-2.81614e-07
-2.83487e-08
-2.86883e-07
-2.51161e-08
-2.91581e-07
-1.91575e-08
-2.9546e-07
-9.18089e-09
-2.98175e-07
6.60213e-09
-2.99266e-07
3.05703e-08
-2.98128e-07
6.57408e-08
-2.93965e-07
1.15701e-07
-2.85732e-07
1.84433e-07
-2.72141e-07
2.76016e-07
-2.51685e-07
3.9423e-07
-2.22727e-07
5.42274e-07
-1.83639e-07
7.23246e-07
-1.32914e-07
9.40597e-07
-6.93524e-08
1.19822e-06
7.90401e-09
1.50058e-06
1.00165e-07
1.85243e-06
2.0888e-07
2.25838e-06
3.34992e-07
2.72088e-06
4.79617e-07
3.2382e-06
6.43748e-07
3.80392e-06
8.27505e-07
4.40785e-06
1.02964e-06
5.03689e-06
1.2466e-06
5.677e-06
1.47353e-06
6.31484e-06
1.70492e-06
6.93882e-06
1.93528e-06
7.54075e-06
2.15972e-06
8.11611e-06
2.37415e-06
8.66136e-06
2.57664e-06
9.17338e-06
2.76629e-06
9.65025e-06
2.94164e-06
1.00913e-05
3.10145e-06
1.04972e-05
3.24499e-06
1.08691e-05
3.37196e-06
1.12093e-05
3.48242e-06
1.15204e-05
3.57672e-06
1.18053e-05
3.65542e-06
1.20669e-05
3.71919e-06
1.23079e-05
3.76869e-06
1.25311e-05
3.8046e-06
1.27386e-05
3.82742e-06
1.29322e-05
3.83753e-06
1.31135e-05
3.83512e-06
1.3283e-05
3.82061e-06
1.34413e-05
3.79408e-06
1.35895e-05
3.75458e-06
1.37274e-05
3.70242e-06
1.38549e-05
3.63686e-06
1.39721e-05
3.55671e-06
1.40775e-05
3.46293e-06
1.41701e-05
3.3543e-06
1.4249e-05
3.22931e-06
1.4313e-05
3.08706e-06
1.43602e-05
2.92707e-06
1.43882e-05
2.74837e-06
1.43948e-05
2.54915e-06
1.43776e-05
2.32725e-06
1.43341e-05
2.08109e-06
1.42632e-05
1.76293e-06
1.41673e-05
1.40794e-06
1.40476e-05
1.07888e-06
1.39057e-05
7.74025e-07
1.3743e-05
4.91904e-07
1.35614e-05
2.31307e-07
1.33633e-05
-8.66187e-09
1.31511e-05
-2.28666e-07
1.29266e-05
-4.29659e-07
1.26915e-05
-6.13165e-07
1.24469e-05
-7.80676e-07
1.21941e-05
-9.33453e-07
1.19339e-05
-1.07253e-06
1.1667e-05
-1.19861e-06
1.13934e-05
-1.31209e-06
1.1113e-05
-1.41387e-06
1.08264e-05
-1.50464e-06
1.05341e-05
-1.58482e-06
1.02369e-05
-1.65473e-06
9.93595e-06
-1.71467e-06
9.63294e-06
-1.76472e-06
9.32915e-06
-1.80484e-06
9.02514e-06
-1.83599e-06
8.72157e-06
-1.85967e-06
8.41926e-06
-1.87731e-06
8.11907e-06
-1.89033e-06
7.82198e-06
-1.90016e-06
7.52896e-06
-1.90814e-06
7.24099e-06
-1.91546e-06
6.95898e-06
-1.92305e-06
6.68378e-06
-1.9316e-06
6.4161e-06
-1.94156e-06
6.1565e-06
-1.9531e-06
5.90543e-06
-1.96625e-06
5.6632e-06
-1.98085e-06
5.42999e-06
-1.99665e-06
5.2059e-06
-2.01334e-06
4.99093e-06
-2.03056e-06
4.78499e-06
-2.04795e-06
-2.06517e-06
-2.51895e-09
-3.05697e-07
-5.45058e-09
-1.54672e-07
-6.79301e-09
-1.80447e-07
-7.66987e-09
-1.96638e-07
-8.24783e-09
-2.07146e-07
-8.62308e-09
-2.15663e-07
-8.84367e-09
-2.2335e-07
-8.93036e-09
-2.30621e-07
-8.88839e-09
-2.37654e-07
-8.71564e-09
-2.4453e-07
-8.40374e-09
-2.51284e-07
-7.93444e-09
-2.57929e-07
-7.27862e-09
-2.64464e-07
-6.39393e-09
-2.70871e-07
-5.21806e-09
-2.77122e-07
-3.65635e-09
-2.83176e-07
-1.55931e-09
-2.8898e-07
1.31609e-09
-2.94457e-07
5.3551e-09
-2.99499e-07
1.11262e-08
-3.03946e-07
1.94276e-08
-3.07568e-07
3.13605e-08
-3.10061e-07
4.84273e-08
-3.11032e-07
7.26615e-08
-3.09967e-07
1.06712e-07
-3.06192e-07
1.53837e-07
-2.9881e-07
2.1779e-07
-2.86681e-07
3.02576e-07
-2.68425e-07
4.12139e-07
-2.42477e-07
5.49988e-07
-2.07202e-07
7.18919e-07
-1.61027e-07
9.21611e-07
-1.02526e-07
1.1611e-06
-3.06134e-08
1.44068e-06
5.54125e-08
1.76377e-06
1.56536e-07
2.13349e-06
2.74029e-07
2.55237e-06
4.08617e-07
3.02171e-06
5.60305e-07
3.53913e-06
7.29176e-07
4.09822e-06
9.14441e-07
4.68913e-06
1.11401e-06
5.2999e-06
1.32451e-06
5.91857e-06
1.54105e-06
6.53465e-06
1.75808e-06
7.14005e-06
1.97123e-06
7.72894e-06
2.1774e-06
8.29627e-06
2.37431e-06
8.83782e-06
2.5599e-06
9.35043e-06
2.73239e-06
9.832e-06
2.89038e-06
1.02815e-05
3.03289e-06
1.0699e-05
3.1593e-06
1.10851e-05
3.26933e-06
1.14412e-05
3.36299e-06
1.17694e-05