/*--------------------------------*- C++ -*----------------------------------*\
  =========                 |
  \\      /  F ield         | OpenFOAM: The Open Source CFD Toolbox
   \\    /   O peration     | Website:  https://openfoam.org
    \\  /    A nd           | Version:  10
     \\/     M anipulation  |
\*---------------------------------------------------------------------------*/
FoamFile
{
    format      ascii;
    class       surfaceScalarField;
    location    "9000";
    object      phi;
}
// * * * * * * * * * * * * * * * * * * * * * * * * * * * * * * * * * * * * * //

dimensions      [0 3 -1 0 0 0 0];

internalField   nonuniform List<scalar> 
35585
(
-2.01933e-07
-2.33051e-07
-1.92085e-07
-2.3618e-07
-1.8235e-07
-2.39207e-07
-1.72485e-07
-2.41875e-07
-1.62486e-07
-2.44037e-07
-1.52367e-07
-2.45691e-07
-1.42142e-07
-2.46858e-07
-1.31827e-07
-2.47561e-07
-1.21444e-07
-2.47826e-07
-1.11015e-07
-2.47684e-07
-1.00564e-07
-2.47167e-07
-9.01163e-08
-2.46306e-07
-7.96936e-08
-2.45134e-07
-6.93181e-08
-2.4368e-07
-5.90101e-08
-2.41974e-07
-4.87886e-08
-2.40044e-07
-3.86707e-08
-2.37916e-07
-2.86717e-08
-2.35613e-07
-1.88055e-08
-2.33158e-07
-9.08419e-09
-2.30573e-07
4.8196e-10
-2.27875e-07
9.8838e-09
-2.25084e-07
1.91137e-08
-2.22213e-07
2.81653e-08
-2.19279e-07
3.70337e-08
-2.16294e-07
4.57149e-08
-2.1327e-07
5.42061e-08
-2.10218e-07
6.25052e-08
-2.07147e-07
7.06113e-08
-2.04065e-07
7.85238e-08
-2.00981e-07
8.62432e-08
-1.979e-07
9.37704e-08
-1.94829e-07
1.01107e-07
-1.91772e-07
1.08254e-07
-1.88734e-07
1.15215e-07
-1.85719e-07
1.21991e-07
-1.82731e-07
1.28586e-07
-1.79771e-07
1.35004e-07
-1.76842e-07
1.41246e-07
-1.73947e-07
1.47317e-07
-1.71087e-07
1.5322e-07
-1.68262e-07
1.58959e-07
-1.65476e-07
1.64537e-07
-1.62727e-07
1.69959e-07
-1.60016e-07
1.75228e-07
-1.57345e-07
1.80349e-07
-1.54713e-07
1.85323e-07
-1.5212e-07
-1.49567e-07
1.90156e-07
-1.93312e-07
-2.38568e-07
-1.86205e-07
-2.43289e-07
-1.78218e-07
-2.47197e-07
-1.6966e-07
-2.50437e-07
-1.6065e-07
-2.5305e-07
-1.5128e-07
-2.55065e-07
-1.41627e-07
-2.56515e-07
-1.31752e-07
-2.57439e-07
-1.21708e-07
-2.57873e-07
-1.1154e-07
-2.57855e-07
-1.01288e-07
-2.57421e-07
-9.09871e-08
-2.5661e-07
-8.0669e-08
-2.55454e-07
-7.03622e-08
-2.53989e-07
-6.00926e-08
-2.52246e-07
-4.98835e-08
-2.50255e-07
-3.97555e-08
-2.48045e-07
-2.97273e-08
-2.45643e-07
-1.98151e-08
-2.43072e-07
-1.00333e-08
-2.40356e-07
-3.94555e-10
-2.37516e-07
9.09035e-09
-2.3457e-07
1.84122e-08
-2.31537e-07
2.75632e-08
-2.28432e-07
3.6537e-08
-2.25269e-07
4.53286e-08
-2.22063e-07
5.39338e-08
-2.18824e-07
6.23496e-08
-2.15564e-07
7.05741e-08
-2.12291e-07
7.8606e-08
-2.09014e-07
8.64448e-08
-2.0574e-07
9.40908e-08
-2.02475e-07
1.01545e-07
-1.99227e-07
1.08808e-07
-1.95998e-07
1.15882e-07
-1.92794e-07
1.22769e-07
-1.89618e-07
1.29472e-07
-1.86474e-07
1.35993e-07
-1.83364e-07
1.42335e-07
-1.8029e-07
1.48501e-07
-1.77254e-07
1.54496e-07
-1.74257e-07
1.60322e-07
-1.71302e-07
1.65982e-07
-1.68388e-07
1.71481e-07
-1.65516e-07
1.76823e-07
-1.62687e-07
1.8201e-07
-1.59901e-07
1.87047e-07
-1.57158e-07
-1.54458e-07
1.91937e-07
-1.78764e-07
-1.72987e-07
-1.6644e-07
-1.59236e-07
-1.51477e-07
-2.60807e-07
-1.43247e-07
-2.63292e-07
-1.34621e-07
-2.65138e-07
-1.25668e-07
-2.6639e-07
-1.16447e-07
-2.67091e-07
-1.07012e-07
-2.67287e-07
-9.74117e-08
-2.6702e-07
-8.76891e-08
-2.6633e-07
-7.78832e-08
-2.65258e-07
-6.80295e-08
-2.63841e-07
-5.81595e-08
-2.62114e-07
-4.83018e-08
-2.60112e-07
-3.84818e-08
-2.57864e-07
-2.87226e-08
-2.55401e-07
-1.90441e-08
-2.52749e-07
-9.46438e-09
-2.49935e-07
8.37453e-13
-2.4698e-07
9.33781e-09
-2.43906e-07
1.85346e-08
-2.40732e-07
2.75813e-08
-2.37477e-07
3.6469e-08
-2.34156e-07
4.51906e-08
-2.30784e-07
5.37404e-08
-2.27373e-07
6.21136e-08
-2.23936e-07
7.03066e-08
-2.20483e-07
7.83166e-08
-2.17023e-07
8.61422e-08
-2.13564e-07
9.37821e-08
-2.10115e-07
1.01236e-07
-2.0668e-07
1.08505e-07
-2.03266e-07
1.15588e-07
-1.99877e-07
1.22489e-07
-1.96518e-07
1.29208e-07
-1.93192e-07
1.35747e-07
-1.89903e-07
1.42109e-07
-1.86651e-07
1.48297e-07
-1.83441e-07
1.54313e-07
-1.80273e-07
1.60162e-07
-1.77149e-07
1.65844e-07
-1.7407e-07
1.71366e-07
-1.71037e-07
1.76728e-07
-1.68049e-07
1.81936e-07
-1.65108e-07
1.86993e-07
-1.62214e-07
-1.59366e-07
1.91902e-07
-1.37281e-07
-2.67614e-07
-1.3e-07
-2.70574e-07
-1.22302e-07
-2.72837e-07
-1.14244e-07
-2.74449e-07
-1.05879e-07
-2.75458e-07
-9.72551e-08
-2.75912e-07
-8.84197e-08
-2.75857e-07
-7.9415e-08
-2.75336e-07
-7.02804e-08
-2.74394e-07
-6.10522e-08
-2.7307e-07
-5.17636e-08
-2.71404e-07
-4.24449e-08
-2.69431e-07
-3.31237e-08
-2.67186e-07
-2.38249e-08
-2.64701e-07
-1.45711e-08
-2.62004e-07
-5.38247e-09
-2.59124e-07
3.72314e-09
-2.56086e-07
1.27297e-08
-2.52913e-07
2.16233e-08
-2.49627e-07
3.03916e-08
-2.46246e-07
3.9024e-08
-2.42789e-07
4.75115e-08
-2.39272e-07
5.58466e-08
-2.35709e-07
6.40226e-08
-2.32113e-07
7.20345e-08
-2.28495e-07
7.98781e-08
-2.24867e-07
8.75501e-08
-2.21237e-07
9.50485e-08
-2.17614e-07
1.02372e-07
-2.14003e-07
1.09519e-07
-2.10413e-07
1.1649e-07
-2.06849e-07
1.23285e-07
-2.03314e-07
1.29905e-07
-1.99813e-07
1.36352e-07
-1.9635e-07
1.42627e-07
-1.92927e-07
1.48732e-07
-1.89547e-07
1.5467e-07
-1.86212e-07
1.60443e-07
-1.82923e-07
1.66054e-07
-1.79682e-07
1.71507e-07
-1.76489e-07
1.76803e-07
-1.73346e-07
1.81947e-07
-1.70252e-07
1.86942e-07
-1.67209e-07
-1.64215e-07
1.9179e-07
-1.19372e-07
-2.73145e-07
-1.13332e-07
-2.76612e-07
-1.06836e-07
-2.79332e-07
-9.99337e-08
-2.8135e-07
-9.26733e-08
-2.82717e-07
-8.51019e-08
-2.83482e-07
-7.72638e-08
-2.83693e-07
-6.92016e-08
-2.83397e-07
-6.0955e-08
-2.8264e-07
-5.25612e-08
-2.81463e-07
-4.4055e-08
-2.79909e-07
-3.54687e-08
-2.78017e-07
-2.68317e-08
-2.75822e-07
-1.81713e-08
-2.7336e-07
-9.51232e-09
-2.70662e-07
-8.77222e-10
-2.67758e-07
7.71363e-09
-2.64676e-07
1.62418e-08
-2.61441e-07
2.46912e-08
-2.58075e-07
3.30471e-08
-2.54601e-07
4.12968e-08
-2.51038e-07
4.94291e-08
-2.47404e-07
5.74343e-08
-2.43713e-07
6.5304e-08
-2.39982e-07
7.3031e-08
-2.36222e-07
8.06095e-08
-2.32445e-07
8.80347e-08
-2.28662e-07
9.53024e-08
-2.24881e-07
1.0241e-07
-2.2111e-07
1.09355e-07
-2.17358e-07
1.16135e-07
-2.13629e-07
1.22751e-07
-2.09929e-07
1.29202e-07
-2.06263e-07
1.35487e-07
-2.02635e-07
1.41608e-07
-1.99048e-07
1.47567e-07
-1.95505e-07
1.53363e-07
-1.92008e-07
1.59e-07
-1.88559e-07
1.64479e-07
-1.8516e-07
1.69802e-07
-1.81812e-07
1.74973e-07
-1.78516e-07
1.79993e-07
-1.75272e-07
1.84866e-07
-1.72081e-07
-1.68943e-07
1.89594e-07
-9.92819e-08
-9.45455e-08
-2.81348e-07
-8.93161e-08
-2.84561e-07
-8.36375e-08
-2.87029e-07
-7.75547e-08
-2.888e-07
-7.11122e-08
-2.89925e-07
-6.43533e-08
-2.90453e-07
-5.73195e-08
-2.90432e-07
-5.00508e-08
-2.89909e-07
-4.25848e-08
-2.8893e-07
-3.49572e-08
-2.87537e-07
-2.72014e-08
-2.85773e-07
-1.93485e-08
-2.83675e-07
-1.14275e-08
-2.81282e-07
-3.46484e-09
-2.78625e-07
4.51509e-09
-2.75739e-07
1.24898e-08
-2.72651e-07
2.04393e-08
-2.69391e-07
2.83451e-08
-2.65982e-07
3.61908e-08
-2.62448e-07
4.39618e-08
-2.5881e-07
5.16449e-08
-2.55087e-07
5.92286e-08
-2.51298e-07
6.67028e-08
-2.47457e-07
7.40586e-08
-2.43578e-07
8.12887e-08
-2.39676e-07
8.83864e-08
-2.3576e-07
9.53465e-08
-2.31841e-07
1.02164e-07
-2.27929e-07
1.08837e-07
-2.2403e-07
1.15361e-07
-2.20153e-07
1.21734e-07
-2.16303e-07
1.27956e-07
-2.12485e-07
1.34025e-07
-2.08704e-07
1.39941e-07
-2.04964e-07
1.45704e-07
-2.01268e-07
1.51315e-07
-1.9762e-07
1.56776e-07
-1.9402e-07
1.62086e-07
-1.90471e-07
1.67249e-07
-1.86975e-07
1.72265e-07
-1.83533e-07
1.77137e-07
-1.80145e-07
1.81867e-07
-1.76812e-07
-1.73534e-07
1.86458e-07
-7.37996e-08
-6.99593e-08
-6.56274e-08
-2.91361e-07
-6.08438e-08
-2.93583e-07
-5.56488e-08
-2.95119e-07
-5.00845e-08
-2.96016e-07
-4.41921e-08
-2.96323e-07
-3.80114e-08
-2.96089e-07
-3.15806e-08
-2.9536e-07
-2.49361e-08
-2.94181e-07
-1.81126e-08
-2.92596e-07
-1.11424e-08
-2.90645e-07
-4.05607e-09
-2.88367e-07
3.11814e-09
-2.85799e-07
1.03539e-08
-2.82974e-07
1.7627e-08
-2.79924e-07
2.49154e-08
-2.76678e-07
3.21989e-08
-2.73264e-07
3.9459e-08
-2.69707e-07
4.66793e-08
-2.66029e-07
5.38446e-08
-2.62252e-07
6.09419e-08
-2.58394e-07
6.79591e-08
-2.54473e-07
7.48858e-08
-2.50504e-07
8.17129e-08
-2.46502e-07
8.84324e-08
-2.42479e-07
9.50375e-08
-2.38446e-07
1.01522e-07
-2.34413e-07
1.07882e-07
-2.3039e-07
1.14113e-07
-2.26384e-07
1.20212e-07
-2.22401e-07
1.26175e-07
-2.18449e-07
1.32003e-07
-2.14531e-07
1.37692e-07
-2.10653e-07
1.43244e-07
-2.06819e-07
1.48656e-07
-2.03032e-07
1.5393e-07
-1.99294e-07
1.59066e-07
-1.95607e-07
1.64065e-07
-1.91974e-07
1.68929e-07
-1.88396e-07
1.73658e-07
-1.84874e-07
1.78254e-07
-1.81408e-07
-1.78e-07
1.8272e-07
-4.6197e-08
-4.27634e-08
-2.97017e-07
-3.88691e-08
-2.99013e-07
-3.45535e-08
-3.00331e-07
-2.98568e-08
-3.01019e-07
-2.48185e-08
-3.01127e-07
-1.9477e-08
-3.00701e-07
-1.38691e-08
-2.99789e-07
-8.03e-09
-2.98435e-07
-1.99344e-09
-2.96682e-07
4.20878e-09
-2.9457e-07
1.05465e-08
-2.92137e-07
1.69918e-08
-2.89419e-07
2.35188e-08
-2.86451e-07
3.01035e-08
-2.83263e-07
3.67237e-08
-2.79885e-07
4.33592e-08
-2.76343e-07
4.99913e-08
-2.72662e-07
5.66033e-08
-2.68864e-07
6.31799e-08
-2.64971e-07
6.97077e-08
-2.61001e-07
7.61743e-08
-2.56971e-07
8.2569e-08
-2.52897e-07
8.88821e-08
-2.48792e-07
9.51055e-08
-2.4467e-07
1.01232e-07
-2.4054e-07
1.07255e-07
-2.36413e-07
1.13169e-07
-2.32298e-07
1.1897e-07
-2.28202e-07
1.24654e-07
-2.24133e-07
1.30218e-07
-2.20096e-07
1.35661e-07
-2.16096e-07
1.40979e-07
-2.12138e-07
1.46173e-07
-2.08226e-07
1.51241e-07
-2.04362e-07
1.56183e-07
-2.00549e-07
1.60999e-07
-1.96791e-07
1.6569e-07
-1.93087e-07
1.70257e-07
-1.8944e-07
1.74699e-07
-1.85851e-07
-1.82321e-07
1.7902e-07
-2.35315e-08
-2.09833e-08
-1.7966e-08
-3.03348e-07
-1.4514e-08
-3.04468e-07
-1.06668e-08
-3.04971e-07
-6.46248e-09
-3.04903e-07
-1.93801e-09
-3.04312e-07
2.87062e-09
-3.03242e-07
7.92859e-09
-3.01739e-07
1.32028e-08
-2.99843e-07
1.8662e-08
-2.97595e-07
2.42766e-08
-2.95034e-07
3.00188e-08
-2.92193e-07
3.58626e-08
-2.89107e-07
4.17838e-08
-2.85806e-07
4.77602e-08
-2.82319e-07
5.37713e-08
-2.78673e-07
5.97985e-08
-2.74891e-07
6.58245e-08
-2.70997e-07
7.1834e-08
-2.6701e-07
7.7813e-08
-2.6295e-07
8.37489e-08
-2.58833e-07
8.96307e-08
-2.54674e-07
9.54482e-08
-2.50487e-07
1.01193e-07
-2.46284e-07
1.06857e-07
-2.42077e-07
1.12433e-07
-2.37874e-07
1.17916e-07
-2.33685e-07
1.23302e-07
-2.29518e-07
1.28585e-07
-2.25379e-07
1.33762e-07
-2.21273e-07
1.38831e-07
-2.17207e-07
1.4379e-07
-2.13184e-07
1.48636e-07
-2.09208e-07
1.53369e-07
-2.05282e-07
1.57988e-07
-2.01409e-07
1.62493e-07
-1.97591e-07
1.66883e-07
-1.9383e-07
1.71159e-07
-1.90127e-07
-1.86484e-07
1.75323e-07
-5.1648e-10
1.66861e-09
4.2952e-09
7.32802e-09
1.07324e-08
-3.07716e-07
1.44765e-08
-3.06984e-07
1.85237e-08
-3.05784e-07
2.28395e-08
-3.04158e-07
2.73907e-08
-3.02146e-07
3.21458e-08
-2.99788e-07
3.7075e-08
-2.97122e-07
4.21504e-08
-2.94182e-07
4.73459e-08
-2.91001e-07
5.26372e-08
-2.8761e-07
5.8002e-08
-2.84037e-07
6.34195e-08
-2.80309e-07
6.88708e-08
-2.76448e-07
7.43385e-08
-2.72478e-07
7.98069e-08
-2.68419e-07
8.52616e-08
-2.64288e-07
9.06899e-08
-2.60102e-07
9.60801e-08
-2.55877e-07
1.01422e-07
-2.51626e-07
1.06706e-07
-2.47361e-07
1.11925e-07
-2.43093e-07
1.17071e-07
-2.38832e-07
1.22138e-07
-2.34585e-07
1.27121e-07
-2.30362e-07
1.32016e-07
-2.26168e-07
1.36817e-07
-2.22009e-07
1.41523e-07
-2.1789e-07
1.46131e-07
-2.13816e-07
1.50639e-07
-2.0979e-07
1.55044e-07
-2.05815e-07
1.59347e-07
-2.01894e-07
1.63546e-07
-1.9803e-07
1.67641e-07
-1.94223e-07
-1.90475e-07
1.71633e-07
2.39061e-08
-3.09996e-07
2.65744e-08
-3.09653e-07
2.95963e-08
-3.08807e-07
3.29363e-08
-3.07498e-07
3.65602e-08
-3.0577e-07
4.04351e-08
-3.03663e-07
4.45299e-08
-3.01216e-07
4.8815e-08
-2.98467e-07
5.32626e-08
-2.95449e-07
5.78468e-08
-2.92194e-07
6.25433e-08
-2.88734e-07
6.73296e-08
-2.85095e-07
7.21848e-08
-2.81303e-07
7.70899e-08
-2.77383e-07
8.20273e-08
-2.73356e-07
8.69811e-08
-2.69241e-07
9.19366e-08
-2.65058e-07
9.68806e-08
-2.60821e-07
1.01801e-07
-2.56547e-07
1.06688e-07
-2.52248e-07
1.11532e-07
-2.47936e-07
1.16323e-07
-2.43623e-07
1.21056e-07
-2.39318e-07
1.25722e-07
-2.35028e-07
1.30317e-07
-2.30763e-07
1.34835e-07
-2.26527e-07
1.39273e-07
-2.22328e-07
1.43626e-07
-2.18169e-07
1.47892e-07
-2.14056e-07
1.52069e-07
-2.09992e-07
1.56154e-07
-2.0598e-07
1.60147e-07
-2.02022e-07
1.64045e-07
-1.98121e-07
-1.94279e-07
1.67849e-07
3.74081e-08
-3.11142e-07
3.89918e-08
-3.11235e-07
4.0976e-08
-3.10789e-07
4.33256e-08
-3.09846e-07
4.6006e-08
-3.08449e-07
4.89837e-08
-3.0664e-07
5.22264e-08
-3.04459e-07
5.57036e-08
-3.01944e-07
5.93858e-08
-2.99131e-07
6.32454e-08
-2.96054e-07
6.72564e-08
-2.92745e-07
7.13949e-08
-2.89233e-07
7.5638e-08
-2.85547e-07
7.99651e-08
-2.8171e-07
8.43567e-08
-2.77748e-07
8.87951e-08
-2.7368e-07
9.32643e-08
-2.69527e-07
9.77493e-08
-2.65306e-07
1.02237e-07
-2.61034e-07
1.06714e-07
-2.56726e-07
1.11172e-07
-2.52394e-07
1.15598e-07
-2.4805e-07
1.19986e-07
-2.43705e-07
1.24326e-07
-2.39369e-07
1.28613e-07
-2.35049e-07
1.3284e-07
-2.30754e-07
1.37002e-07
-2.2649e-07
1.41095e-07
-2.22262e-07
1.45114e-07
-2.18075e-07
1.49057e-07
-2.13935e-07
1.5292e-07
-2.09843e-07
1.56702e-07
-2.05804e-07
1.60401e-07
-2.0182e-07
-1.97893e-07
1.64015e-07
5.09977e-08
-3.11166e-07
5.15013e-08
-3.11739e-07
5.24503e-08
-3.11739e-07
5.38098e-08
-3.11206e-07
5.55453e-08
-3.10185e-07
5.76225e-08
-3.08717e-07
6.00086e-08
-3.06845e-07
6.26714e-08
-3.04606e-07
6.55807e-08
-3.0204e-07
6.87075e-08
-2.9918e-07
7.20243e-08
-2.96062e-07
7.55058e-08
-2.92715e-07
7.91278e-08
-2.89168e-07
8.28679e-08
-2.8545e-07
8.67052e-08
-2.81585e-07
9.06205e-08
-2.77595e-07
9.45959e-08
-2.73502e-07
9.86151e-08
-2.69325e-07
1.02663e-07
-2.65082e-07
1.06726e-07
-2.60789e-07
1.10791e-07
-2.56459e-07
1.14848e-07
-2.52107e-07
1.18887e-07
-2.47744e-07
1.22898e-07
-2.4338e-07
1.26874e-07
-2.39025e-07
1.30807e-07
-2.34688e-07
1.34692e-07
-2.30375e-07
1.38522e-07
-2.26092e-07
1.42294e-07
-2.21847e-07
1.46003e-07
-2.17643e-07
1.49645e-07
-2.13485e-07
1.53218e-07
-2.09377e-07
1.5672e-07
-2.05321e-07
-2.01321e-07
1.60148e-07
6.44888e-08
6.39219e-08
-3.11172e-07
6.38422e-08
-3.11659e-07
6.42172e-08
-3.11581e-07
6.50118e-08
-3.10979e-07
6.61913e-08
-3.09897e-07
6.77217e-08
-3.08375e-07
6.95703e-08
-3.06455e-07
7.17053e-08
-3.04175e-07
7.4097e-08
-3.01572e-07
7.67167e-08
-2.98681e-07
7.95374e-08
-2.95535e-07
8.25339e-08
-2.92165e-07
8.56822e-08
-2.88599e-07
8.89602e-08
-2.84863e-07
9.23472e-08
-2.80982e-07
9.5824e-08
-2.76979e-07
9.93728e-08
-2.72874e-07
1.02977e-07
-2.68687e-07
1.06622e-07
-2.64434e-07
1.10294e-07
-2.60131e-07
1.1398e-07
-2.55793e-07
1.17669e-07
-2.51433e-07
1.21351e-07
-2.47062e-07
1.25015e-07
-2.4269e-07
1.28655e-07
-2.38327e-07
1.32262e-07
-2.33982e-07
1.3583e-07
-2.29661e-07
1.39354e-07
-2.25371e-07
1.42829e-07
-2.21118e-07
1.46249e-07
-2.16906e-07
1.49613e-07
-2.12741e-07
1.52916e-07
-2.08625e-07
-2.04561e-07
1.56156e-07
7.60612e-08
-3.09562e-07
7.49776e-08
-3.10575e-07
7.43883e-08
-3.10992e-07
7.42585e-08
-3.10849e-07
7.45535e-08
-3.10192e-07
7.52392e-08
-3.0906e-07
7.62819e-08
-3.07497e-07
7.76496e-08
-3.05542e-07
7.93111e-08
-3.03233e-07
8.12369e-08
-3.00607e-07
8.33989e-08
-2.97697e-07
8.57704e-08
-2.94536e-07
8.83263e-08
-2.91154e-07
9.10433e-08
-2.8758e-07
9.38993e-08
-2.83838e-07
9.68741e-08
-2.79954e-07
9.99485e-08
-2.75949e-07
1.03105e-07
-2.71843e-07
1.06328e-07
-2.67656e-07
1.09602e-07
-2.63405e-07
1.12913e-07
-2.59104e-07
1.16249e-07
-2.54769e-07
1.19598e-07
-2.50411e-07
1.22951e-07
-2.46042e-07
1.26296e-07
-2.41672e-07
1.29626e-07
-2.37312e-07
1.32933e-07
-2.32968e-07
1.3621e-07
-2.28649e-07
1.39452e-07
-2.2436e-07
1.42654e-07
-2.20108e-07
1.45809e-07
-2.15897e-07
1.48916e-07
-2.11732e-07
-2.07616e-07
1.51971e-07
8.77641e-08
-3.06945e-07
8.57085e-08
-3.0852e-07
8.41816e-08
-3.09465e-07
8.31502e-08
-3.09818e-07
8.25798e-08
-3.09621e-07
8.24368e-08
-3.08917e-07
8.26875e-08
-3.07748e-07
8.32991e-08
-3.06154e-07
8.424e-08
-3.04174e-07
8.54798e-08
-3.01847e-07
8.69892e-08
-2.99207e-07
8.87406e-08
-2.96288e-07
9.0708e-08
-2.93122e-07
9.28666e-08
-2.89738e-07
9.51933e-08
-2.86165e-07
9.76665e-08
-2.82427e-07
1.00266e-07
-2.78548e-07
1.02973e-07
-2.74551e-07
1.05771e-07
-2.70454e-07
1.08643e-07
-2.66277e-07
1.11575e-07
-2.62037e-07
1.14554e-07
-2.57747e-07
1.17566e-07
-2.53423e-07
1.20601e-07
-2.49077e-07
1.23649e-07
-2.4472e-07
1.26699e-07
-2.40362e-07
1.29743e-07
-2.36012e-07
1.32774e-07
-2.31679e-07
1.35784e-07
-2.2737e-07
1.38767e-07
-2.23091e-07
1.41718e-07
-2.18848e-07
1.44632e-07
-2.14645e-07
-2.10488e-07
1.47504e-07
9.89078e-08
9.59174e-08
-3.05529e-07
9.34861e-08
-3.07033e-07
9.15833e-08
-3.07915e-07
9.01757e-08
-3.08213e-07
8.92291e-08
-3.07971e-07
8.871e-08
-3.07229e-07
8.85852e-08
-3.06029e-07
8.88225e-08
-3.04411e-07
8.93908e-08
-3.02415e-07
9.02601e-08
-3.00076e-07
9.14019e-08
-2.97429e-07
9.27892e-08
-2.94509e-07
9.43962e-08
-2.91345e-07
9.61989e-08
-2.87967e-07
9.81746e-08
-2.84403e-07
1.00302e-07
-2.80676e-07
1.02562e-07
-2.76811e-07
1.04936e-07
-2.72828e-07
1.07406e-07
-2.68748e-07
1.09958e-07
-2.64588e-07
1.12577e-07
-2.60366e-07
1.1525e-07
-2.56096e-07
1.17964e-07
-2.51791e-07
1.20708e-07
-2.47465e-07
1.23474e-07
-2.43127e-07
1.2625e-07
-2.38789e-07
1.29029e-07
-2.34459e-07
1.31803e-07
-2.30144e-07
1.34566e-07
-2.25853e-07
1.3731e-07
-2.21592e-07
1.4003e-07
-2.17366e-07
-2.1318e-07
1.42721e-07
1.05495e-07
-3.01651e-07
1.02203e-07
-3.03741e-07
9.94689e-08
-3.0518e-07
9.72591e-08
-3.06003e-07
9.55409e-08
-3.06252e-07
9.42807e-08
-3.05968e-07
9.34452e-08
-3.05193e-07
9.3002e-08
-3.03968e-07
9.29195e-08
-3.02332e-07
9.31672e-08
-3.00323e-07
9.37158e-08
-2.97978e-07
9.45374e-08
-2.9533e-07
9.56055e-08
-2.92413e-07
9.68951e-08
-2.89257e-07
9.83828e-08
-2.8589e-07
1.00046e-07
-2.82339e-07
1.01865e-07
-2.78629e-07
1.0382e-07
-2.74783e-07
1.05893e-07
-2.70821e-07
1.08068e-07
-2.66763e-07
1.10329e-07
-2.62627e-07
1.12662e-07
-2.58429e-07
1.15055e-07
-2.54184e-07
1.17496e-07
-2.49906e-07
1.19974e-07
-2.45605e-07
1.22479e-07
-2.41294e-07
1.25002e-07
-2.36982e-07
1.27535e-07
-2.32678e-07
1.30071e-07
-2.28389e-07
1.32604e-07
-2.24124e-07
1.35126e-07
-2.19888e-07
-2.15686e-07
1.37632e-07
1.14371e-07
-2.9694e-07
1.1027e-07
-2.9964e-07
1.0675e-07
-3.01659e-07
1.0378e-07
-3.03033e-07
1.01328e-07
-3.038e-07
9.93622e-08
-3.04001e-07
9.78484e-08
-3.03679e-07
9.67545e-08
-3.02874e-07
9.60486e-08
-3.01626e-07
9.56995e-08
-2.99974e-07
9.56777e-08
-2.97956e-07
9.59545e-08
-2.95607e-07
9.65025e-08
-2.92961e-07
9.72962e-08
-2.90051e-07
9.8311e-08
-2.86905e-07
9.95242e-08
-2.83552e-07
1.00914e-07
-2.80019e-07
1.02461e-07
-2.76329e-07
1.04145e-07
-2.72506e-07
1.05951e-07
-2.68569e-07
1.07861e-07
-2.64538e-07
1.09861e-07
-2.6043e-07
1.11938e-07
-2.56261e-07
1.14078e-07
-2.52046e-07
1.16271e-07
-2.47798e-07
1.18505e-07
-2.43528e-07
1.20772e-07
-2.39248e-07
1.23062e-07
-2.34968e-07
1.25368e-07
-2.30696e-07
1.27683e-07
-2.26439e-07
1.3e-07
-2.22205e-07
-2.18e-07
1.32314e-07
1.2249e-07
-2.91452e-07
1.17631e-07
-2.9478e-07
1.13373e-07
-2.97401e-07
1.09689e-07
-2.99348e-07
1.06547e-07
-3.00658e-07
1.03915e-07
-3.01369e-07
1.0176e-07
-3.01524e-07
1.00051e-07
-3.01164e-07
9.87542e-08
-3.00329e-07
9.78392e-08
-2.99059e-07
9.72755e-08
-2.97392e-07
9.7034e-08
-2.95365e-07
9.70868e-08
-2.93014e-07
9.74073e-08
-2.90371e-07
9.79707e-08
-2.87468e-07
9.87531e-08
-2.84335e-07
9.97324e-08
-2.80998e-07
1.00888e-07
-2.77485e-07
1.022e-07
-2.73818e-07
1.0365e-07
-2.70019e-07
1.05223e-07
-2.6611e-07
1.06902e-07
-2.62109e-07
1.08673e-07
-2.58032e-07
1.10522e-07
-2.53896e-07
1.12439e-07
-2.49714e-07
1.14411e-07
-2.455e-07
1.16429e-07
-2.41266e-07
1.18482e-07
-2.37022e-07
1.20564e-07
-2.32777e-07
1.22666e-07
-2.28541e-07
1.24781e-07
-2.2432e-07
-2.20122e-07
1.26903e-07
1.2981e-07
-2.85246e-07
1.24248e-07
-2.89218e-07
1.19306e-07
-2.92459e-07
1.14958e-07
-2.94999e-07
1.11173e-07
-2.96872e-07
1.0792e-07
-2.98116e-07
1.05168e-07
-2.98771e-07
1.02884e-07
-2.98879e-07
1.01035e-07
-2.9848e-07
9.95904e-08
-2.97614e-07
9.85192e-08
-2.9632e-07
9.77918e-08
-2.94638e-07
9.73796e-08
-2.92601e-07
9.72555e-08
-2.90247e-07
9.73938e-08
-2.87606e-07
9.77701e-08
-2.84711e-07
9.83615e-08
-2.8159e-07
9.91468e-08
-2.7827e-07
1.00106e-07
-2.74776e-07
1.01219e-07
-2.71133e-07
1.02471e-07
-2.67361e-07
1.03843e-07
-2.63481e-07
1.05322e-07
-2.59511e-07
1.06894e-07
-2.55467e-07
1.08546e-07
-2.51366e-07
1.10267e-07
-2.47221e-07
1.12045e-07
-2.43044e-07
1.13871e-07
-2.38848e-07
1.15736e-07
-2.34643e-07
1.17633e-07
-2.30437e-07
1.19553e-07
-2.2624e-07
-2.22059e-07
1.2149e-07
1.36279e-07
-2.7838e-07
1.30071e-07
-2.83008e-07
1.24497e-07
-2.86885e-07
1.19535e-07
-2.90036e-07
1.15155e-07
-2.92492e-07
1.11328e-07
-2.94289e-07
1.08023e-07
-2.95466e-07
1.05207e-07
-2.96063e-07
1.02848e-07
-2.9612e-07
1.00914e-07
-2.95679e-07
9.93742e-08
-2.9478e-07
9.81975e-08
-2.93461e-07
9.73552e-08
-2.91759e-07
9.68195e-08
-2.89711e-07
9.65638e-08
-2.8735e-07
9.65633e-08
-2.8471e-07
9.6794e-08
-2.8182e-07
9.72339e-08
-2.7871e-07
9.78622e-08
-2.75405e-07
9.86597e-08
-2.7193e-07
9.96081e-08
-2.6831e-07
1.00691e-07
-2.64564e-07
1.01893e-07
-2.60713e-07
1.03199e-07
-2.56774e-07
1.04597e-07
-2.52764e-07
1.06074e-07
-2.48698e-07
1.07619e-07
-2.4459e-07
1.09222e-07
-2.40452e-07
1.10874e-07
-2.36295e-07
1.12567e-07
-2.32129e-07
1.14291e-07
-2.27965e-07
-2.23809e-07
1.16041e-07
1.41852e-07
-2.70902e-07
1.35042e-07
-2.76198e-07
1.28882e-07
-2.80724e-07
1.23348e-07
-2.84502e-07
1.18416e-07
-2.87559e-07
1.14057e-07
-2.89929e-07
1.10239e-07
-2.91648e-07
1.06932e-07
-2.92755e-07
1.04102e-07
-2.9329e-07
1.01717e-07
-2.93294e-07
9.97455e-08
-2.92808e-07
9.81565e-08
-2.91871e-07
9.69197e-08
-2.90522e-07
9.60069e-08
-2.88798e-07
9.53904e-08
-2.86734e-07
9.50443e-08
-2.84364e-07
9.49441e-08
-2.8172e-07
9.50667e-08
-2.78832e-07
9.53907e-08
-2.75728e-07
9.58957e-08
-2.72435e-07
9.65634e-08
-2.68977e-07
9.73762e-08
-2.65376e-07
9.8318e-08
-2.61654e-07
9.93741e-08
-2.5783e-07
1.00531e-07
-2.53921e-07
1.01776e-07
-2.49943e-07
1.03097e-07
-2.45911e-07
1.04485e-07
-2.41839e-07
1.05929e-07
-2.37739e-07
1.07421e-07
-2.33621e-07
1.08952e-07
-2.29496e-07
-2.25372e-07
1.10516e-07
1.46477e-07
-2.62851e-07
1.39101e-07
-2.68822e-07
1.32388e-07
-2.7401e-07
1.26316e-07
-2.7843e-07
1.20864e-07
-2.82106e-07
1.16004e-07
-2.85068e-07
1.11706e-07
-2.87349e-07
1.07939e-07
-2.88987e-07
1.04671e-07
-2.9002e-07
1.01867e-07
-2.9049e-07
9.94977e-08
-2.90438e-07
9.75293e-08
-2.89902e-07
9.59316e-08
-2.88924e-07
9.46748e-08
-2.8754e-07
9.37305e-08
-2.85789e-07
9.30716e-08
-2.83704e-07
9.26725e-08
-2.8132e-07
9.25093e-08
-2.78669e-07
9.25593e-08
-2.75778e-07
9.28016e-08
-2.72677e-07
9.32165e-08
-2.69392e-07
9.37859e-08
-2.65946e-07
9.44931e-08
-2.62361e-07
9.53228e-08
-2.58659e-07
9.62606e-08
-2.54858e-07
9.72935e-08
-2.50976e-07
9.84097e-08
-2.47027e-07
9.95984e-08
-2.43028e-07
1.0085e-07
-2.3899e-07
1.02154e-07
-2.34926e-07
1.03504e-07
-2.30846e-07
-2.26761e-07
1.04893e-07
1.50154e-07
-2.54249e-07
1.42234e-07
-2.60901e-07
1.34986e-07
-2.66761e-07
1.28396e-07
-2.71838e-07
1.22441e-07
-2.76151e-07
1.17098e-07
-2.79724e-07
1.12338e-07
-2.82589e-07
1.0813e-07
-2.84779e-07
1.04442e-07
-2.86332e-07
1.01242e-07
-2.87289e-07
9.84961e-08
-2.87691e-07
9.6172e-08
-2.87577e-07
9.42378e-08
-2.86989e-07
9.26629e-08
-2.85965e-07
9.14175e-08
-2.84543e-07
9.04736e-08
-2.8276e-07
8.98042e-08
-2.80651e-07
8.93841e-08
-2.78248e-07
8.91897e-08
-2.75583e-07
8.91987e-08
-2.72686e-07
8.93905e-08
-2.69583e-07
8.97459e-08
-2.66301e-07
9.02474e-08
-2.62863e-07
9.08785e-08
-2.5929e-07
9.16246e-08
-2.55604e-07
9.24717e-08
-2.51823e-07
9.34075e-08
-2.47963e-07
9.44205e-08
-2.44041e-07
9.55005e-08
-2.4007e-07
9.66381e-08
-2.36063e-07
9.78249e-08
-2.32033e-07
-2.27989e-07
9.90531e-08
1.52934e-07
-2.45109e-07
1.44477e-07
-2.52443e-07
1.36701e-07
-2.58985e-07
1.29595e-07
-2.64731e-07
1.2314e-07
-2.69696e-07
1.17316e-07
-2.73899e-07
1.12096e-07
-2.77368e-07
1.07451e-07
-2.80133e-07
1.03349e-07
-2.82229e-07
9.97567e-08
-2.83697e-07
9.66416e-08
-2.84575e-07
9.39702e-08
-2.84906e-07
9.171e-08
-2.84728e-07
8.9829e-08
-2.84084e-07
8.82967e-08
-2.8301e-07
8.70834e-08
-2.81546e-07
8.61611e-08
-2.79728e-07
8.55034e-08
-2.7759e-07
8.50851e-08
-2.75165e-07
8.48828e-08
-2.72484e-07
8.48746e-08
-2.69575e-07
8.50405e-08
-2.66467e-07
8.53613e-08
-2.63183e-07
8.58199e-08
-2.59749e-07
8.64003e-08
-2.56184e-07
8.70879e-08
-2.5251e-07
8.78694e-08
-2.48744e-07
8.87326e-08
-2.44904e-07
8.96665e-08
-2.41004e-07
9.06611e-08
-2.37058e-07
9.17074e-08
-2.33079e-07
-2.29079e-07
9.27972e-08
1.54937e-07
-2.35433e-07
1.45942e-07
-2.43447e-07
1.37631e-07
-2.50674e-07
1.30001e-07
-2.571e-07
1.23037e-07
-2.62732e-07
1.16722e-07
-2.67583e-07
1.11031e-07
-2.71676e-07
1.05937e-07
-2.75038e-07
1.01409e-07
-2.77701e-07
9.74151e-08
-2.79702e-07
9.39219e-08
-2.81081e-07
9.08956e-08
-2.81879e-07
8.83029e-08
-2.82135e-07
8.6111e-08
-2.81891e-07
8.42881e-08
-2.81187e-07
8.28037e-08
-2.80062e-07
8.16282e-08
-2.78552e-07
8.07338e-08
-2.76695e-07
8.00942e-08
-2.74525e-07
7.96849e-08
-2.72074e-07
7.94825e-08
-2.69372e-07
7.94655e-08
-2.6645e-07
7.9614e-08
-2.63332e-07
7.99094e-08
-2.60044e-07
8.03348e-08
-2.5661e-07
8.08744e-08
-2.5305e-07
8.15139e-08
-2.49384e-07
8.22402e-08
-2.4563e-07
8.30414e-08
-2.41805e-07
8.39065e-08
-2.37923e-07
8.48257e-08
-2.33998e-07
-2.30043e-07
8.57902e-08
1.56323e-07
-2.25224e-07
1.46784e-07
-2.33908e-07
1.37929e-07
-2.41818e-07
1.29761e-07
-2.48931e-07
1.22272e-07
-2.55242e-07
1.15447e-07
-2.60758e-07
1.09265e-07
-2.65494e-07
1.03702e-07
-2.69474e-07
9.87285e-08
-2.72727e-07
9.43127e-08
-2.75286e-07
9.04213e-08
-2.7719e-07
8.70206e-08
-2.78478e-07
8.40765e-08
-2.79191e-07
8.15555e-08
-2.7937e-07
7.94247e-08
-2.79056e-07
7.76521e-08
-2.78289e-07
7.62073e-08
-2.77107e-07
7.5061e-08
-2.75549e-07
7.41857e-08
-2.73649e-07
7.35551e-08
-2.71443e-07
7.31452e-08
-2.68962e-07
7.29328e-08
-2.66237e-07
7.28971e-08
-2.63296e-07
7.30184e-08
-2.60165e-07
7.32786e-08
-2.5687e-07
7.36612e-08
-2.53432e-07
7.41507e-08
-2.49873e-07
7.47334e-08
-2.46213e-07
7.53964e-08
-2.42468e-07
7.61282e-08
-2.38655e-07
7.69183e-08
-2.34788e-07
-2.30882e-07
7.7757e-08
1.57287e-07
1.472e-07
-2.23821e-07
1.37791e-07
-2.32409e-07
1.29072e-07
-2.40212e-07
1.21042e-07
-2.47211e-07
1.1369e-07
-2.53405e-07
1.07e-07
-2.58804e-07
1.00949e-07
-2.63423e-07
9.55109e-08
-2.67288e-07
9.06546e-08
-2.70429e-07
8.63475e-08
-2.72882e-07
8.25555e-08
-2.74685e-07
7.92443e-08
-2.75879e-07
7.63794e-08
-2.76505e-07
7.3927e-08
-2.76603e-07
7.18539e-08
-2.76215e-07
7.01283e-08
-2.75381e-07
6.87197e-08
-2.7414e-07
6.7599e-08
-2.72528e-07
6.67391e-08
-2.70583e-07
6.61139e-08
-2.68337e-07
6.56997e-08
-2.65823e-07
6.54739e-08
-2.6307e-07
6.54159e-08
-2.60107e-07
6.55069e-08
-2.56961e-07
6.57291e-08
-2.53654e-07
6.60665e-08
-2.50211e-07
6.65046e-08
-2.46651e-07
6.70297e-08
-2.42993e-07
6.76299e-08
-2.39255e-07
6.82942e-08
-2.35452e-07
-2.316e-07
6.90124e-08
1.47381e-07
-2.13194e-07
1.37418e-07
-2.22446e-07
1.28142e-07
-2.30936e-07
1.19561e-07
-2.38629e-07
1.11669e-07
-2.45514e-07
1.04456e-07
-2.5159e-07
9.79026e-08
-2.56869e-07
9.19848e-08
-2.6137e-07
8.66739e-08
-2.65118e-07
8.19383e-08
-2.68146e-07
7.77441e-08
-2.7049e-07
7.40567e-08
-2.72191e-07
7.0841e-08
-2.73288e-07
6.80621e-08
-2.73824e-07
6.56859e-08
-2.73839e-07
6.36789e-08
-2.73374e-07
6.20096e-08
-2.7247e-07
6.06473e-08
-2.71166e-07
5.95631e-08
-2.69498e-07
5.873e-08
-2.67504e-07
5.81226e-08
-2.65215e-07
5.77173e-08
-2.62664e-07
5.74921e-08
-2.59882e-07
5.74269e-08
-2.56895e-07
5.7503e-08
-2.5373e-07
5.77035e-08
-2.50411e-07
5.80128e-08
-2.4696e-07
5.8417e-08
-2.43397e-07
5.89031e-08
-2.39741e-07
5.94593e-08
-2.36009e-07
-2.32216e-07
6.00756e-08
1.47505e-07
-2.02036e-07
1.36991e-07
-2.11931e-07
1.27154e-07
-2.21099e-07
1.18012e-07
-2.29487e-07
1.0957e-07
-2.37071e-07
1.01821e-07
-2.4384e-07
9.47509e-08
-2.49799e-07
8.834e-08
-2.54958e-07
8.2562e-08
-2.59339e-07
7.73863e-08
-2.6297e-07
7.278e-08
-2.65884e-07
6.87084e-08
-2.68119e-07
6.51359e-08
-2.69715e-07
6.20268e-08
-2.70714e-07
5.93459e-08
-2.71157e-07
5.70586e-08
-2.71086e-07
5.51314e-08
-2.70543e-07
5.35324e-08
-2.69567e-07
5.22312e-08
-2.68197e-07
5.1199e-08
-2.66471e-07
5.04091e-08
-2.64425e-07
4.98361e-08
-2.62091e-07
4.94571e-08
-2.59503e-07
4.92503e-08
-2.56688e-07
4.91961e-08
-2.53676e-07
4.92763e-08
-2.50491e-07
4.94745e-08
-2.47158e-07
4.97756e-08
-2.43698e-07
5.01659e-08
-2.40131e-07
5.06332e-08
-2.36476e-07
-2.32749e-07
5.11662e-08
1.47729e-07
-1.90366e-07
1.3667e-07
-2.00872e-07
1.26272e-07
-2.107e-07
1.16564e-07
-2.19779e-07
1.07562e-07
-2.28068e-07
9.92649e-08
-2.35543e-07
9.16656e-08
-2.42199e-07
8.47476e-08
-2.4804e-07
7.84883e-08
-2.53079e-07
7.28595e-08
-2.5734e-07
6.78293e-08
-2.60853e-07
6.33634e-08
-2.63653e-07
5.9426e-08
-2.65778e-07
5.59808e-08
-2.67269e-07
5.29913e-08
-2.68168e-07
5.04217e-08
-2.68516e-07
4.8237e-08
-2.68358e-07
4.64036e-08
-2.67733e-07
4.48895e-08
-2.66683e-07
4.36642e-08
-2.65246e-07
4.26989e-08
-2.63459e-07
4.19672e-08
-2.61359e-07
4.14441e-08
-2.58979e-07
4.11065e-08
-2.56351e-07
4.09337e-08
-2.53503e-07
4.09058e-08
-2.50463e-07
4.10055e-08
-2.47257e-07
4.12166e-08
-2.43909e-07
4.15245e-08
-2.40439e-07
4.19161e-08
-2.36867e-07
-2.33212e-07
4.23794e-08
1.48182e-07
1.36594e-07
1.25638e-07
1.1536e-07
-2.095e-07
1.05786e-07
-2.18494e-07
9.69295e-08
-2.26686e-07
8.87862e-08
-2.34055e-07
8.13453e-08
-2.40598e-07
7.45885e-08
-2.46322e-07
6.84906e-08
-2.51242e-07
6.30214e-08
-2.55383e-07
5.81476e-08
-2.58778e-07
5.38334e-08
-2.61463e-07
5.0042e-08
-2.63477e-07
4.67361e-08
-2.64861e-07
4.38786e-08
-2.65659e-07
4.14329e-08
-2.65912e-07
3.93638e-08
-2.65664e-07
3.76371e-08
-2.64956e-07
3.62207e-08
-2.63829e-07
3.50841e-08
-2.62323e-07
3.41987e-08
-2.60474e-07
3.35379e-08
-2.58318e-07
3.30773e-08
-2.5589e-07
3.27938e-08
-2.53219e-07
3.2667e-08
-2.50336e-07
3.26777e-08
-2.47268e-07
3.28086e-08
-2.4404e-07
3.30443e-08
-2.40674e-07
3.33703e-08
-2.37193e-07
-2.33616e-07
3.3774e-08
1.14511e-07
-1.98657e-07
1.04365e-07
-2.08348e-07
9.49383e-08
-2.17258e-07
8.62365e-08
-2.25353e-07
7.82553e-08
-2.32617e-07
7.09816e-08
-2.39048e-07
6.43947e-08
-2.44655e-07
5.84673e-08
-2.49456e-07