/*--------------------------------*- C++ -*----------------------------------*\
  =========                 |
  \\      /  F ield         | OpenFOAM: The Open Source CFD Toolbox
   \\    /   O peration     | Website:  https://openfoam.org
    \\  /    A nd           | Version:  10
     \\/     M anipulation  |
\*---------------------------------------------------------------------------*/
FoamFile
{
    format      ascii;
    class       volScalarField;
    location    "73000";
    object      nut;
}
// * * * * * * * * * * * * * * * * * * * * * * * * * * * * * * * * * * * * * //

dimensions      [0 2 -1 0 0 0 0];

internalField   nonuniform List<scalar> 
17922
(
0.00313797
0.00319411
0.00325016
0.00330606
0.00336172
0.00341707
0.00347203
0.00352652
0.00358043
0.00363366
0.00368613
0.00373771
0.00378829
0.00383774
0.00388595
0.00393277
0.00397807
0.00402169
0.00406348
0.00410328
0.00414092
0.00417622
0.00420899
0.00423906
0.00426621
0.00429025
0.00431096
0.00432814
0.00434144
0.00435064
0.00435581
0.00435718
0.00435494
0.0043493
0.00434048
0.00432867
0.00431408
0.00429691
0.00427734
0.00425557
0.00423178
0.00420614
0.00417882
0.00414998
0.00411976
0.00408831
0.00405577
0.00402225
0.00398789
0.0039528
0.00391709
0.00388088
0.00384425
0.00380731
0.00377016
0.00373288
0.00369556
0.00365828
0.00362111
0.00358413
0.0035474
0.00351098
0.00347493
0.00343931
0.00340415
0.00336952
0.00333543
0.00330194
0.00326907
0.00323685
0.0032053
0.00317445
0.00314431
0.00311488
0.00308617
0.00305819
0.00303092
0.00300436
0.00297849
0.00295329
0.00292873
0.00290477
0.00288137
0.00285849
0.00283608
0.00281406
0.00279236
0.00277091
0.00274961
0.00272837
0.00270706
0.00268556
0.00266375
0.00313797
0.00319411
0.00325016
0.00330606
0.00336172
0.00341707
0.00347204
0.00352652
0.00358043
0.00363367
0.00368613
0.00373771
0.00378829
0.00383775
0.00388596
0.00393278
0.00397808
0.0040217
0.00406349
0.00410329
0.00414093
0.00417622
0.004209
0.00423906
0.00426622
0.00429026
0.00431097
0.00432815
0.00434145
0.00435065
0.00435583
0.00435719
0.00435496
0.00434933
0.00434051
0.00432871
0.00431412
0.00429696
0.0042774
0.00425564
0.00423186
0.00420624
0.00417893
0.0041501
0.00411989
0.00408846
0.00405592
0.00402242
0.00398808
0.003953
0.00391731
0.00388111
0.0038445
0.00380758
0.00377045
0.00373319
0.00369589
0.00365863
0.00362148
0.00358452
0.00354781
0.00351142
0.00347539
0.00343978
0.00340465
0.00337003
0.00333596
0.00330249
0.00326963
0.00323743
0.0032059
0.00317505
0.00314492
0.0031155
0.0030868
0.00305881
0.00303155
0.00300498
0.0029791
0.00295388
0.00292929
0.00290531
0.00288187
0.00285895
0.00283647
0.00281438
0.0027926
0.00277104
0.00274962
0.00272822
0.00270674
0.00268504
0.00266299
0.00313797
0.00319411
0.00325016
0.00330606
0.00336172
0.00341708
0.00347204
0.00352652
0.00358043
0.00363367
0.00368614
0.00373772
0.0037883
0.00383776
0.00388597
0.00393279
0.00397809
0.00402171
0.0040635
0.0041033
0.00414094
0.00417623
0.00420901
0.00423907
0.00426623
0.00429027
0.00431098
0.00432816
0.00434147
0.00435066
0.00435584
0.00435721
0.00435498
0.00434935
0.00434054
0.00432874
0.00431417
0.00429701
0.00427746
0.00425572
0.00423195
0.00420633
0.00417903
0.00415022
0.00412002
0.0040886
0.00405608
0.0040226
0.00398826
0.00395321
0.00391753
0.00388135
0.00384476
0.00380786
0.00377074
0.00373351
0.00369623
0.00365899
0.00362186
0.00358492
0.00354823
0.00351186
0.00347585
0.00344027
0.00340515
0.00337055
0.0033365
0.00330305
0.00327021
0.00323802
0.0032065
0.00317567
0.00314554
0.00311613
0.00308743
0.00305945
0.00303218
0.00300561
0.00297972
0.00295448
0.00292987
0.00290585
0.00288238
0.00285941
0.00283687
0.0028147
0.00279282
0.00277115
0.00274959
0.00272804
0.00270637
0.00268446
0.00266216
0.00313797
0.00319411
0.00325017
0.00330606
0.00336173
0.00341708
0.00347204
0.00352653
0.00358044
0.00363368
0.00368615
0.00373773
0.00378831
0.00383777
0.00388598
0.0039328
0.0039781
0.00402172
0.00406351
0.00410331
0.00414095
0.00417625
0.00420902
0.00423908
0.00426624
0.00429027
0.00431099
0.00432817
0.00434148
0.00435068
0.00435586
0.00435723
0.004355
0.00434937
0.00434057
0.00432878
0.00431421
0.00429706
0.00427753
0.00425579
0.00423203
0.00420643
0.00417914
0.00415034
0.00412016
0.00408875
0.00405624
0.00402277
0.00398846
0.00395342
0.00391776
0.00388159
0.00384502
0.00380814
0.00377105
0.00373383
0.00369657
0.00365935
0.00362225
0.00358533
0.00354867
0.00351231
0.00347633
0.00344076
0.00340567
0.00337109
0.00333706
0.00330362
0.0032708
0.00323863
0.00320712
0.0031763
0.00314619
0.00311678
0.00308809
0.00306011
0.00303284
0.00300626
0.00298035
0.0029551
0.00293046
0.00290641
0.0028829
0.00285987
0.00283726
0.00281501
0.00279304
0.00277125
0.00274955
0.00272783
0.00270596
0.00268382
0.00266126
0.00313797
0.00319411
0.00325017
0.00330606
0.00336173
0.00341708
0.00347205
0.00352653
0.00358045
0.00363369
0.00368615
0.00373774
0.00378832
0.00383778
0.00388599
0.00393281
0.00397811
0.00402173
0.00406352
0.00410332
0.00414096
0.00417626
0.00420903
0.00423909
0.00426625
0.00429028
0.004311
0.00432818
0.00434149
0.00435069
0.00435587
0.00435724
0.00435502
0.0043494
0.0043406
0.00432882
0.00431426
0.00429712
0.00427759
0.00425586
0.00423212
0.00420653
0.00417926
0.00415046
0.0041203
0.0040889
0.00405641
0.00402296
0.00398866
0.00395363
0.00391799
0.00388184
0.00384529
0.00380843
0.00377136
0.00373416
0.00369692
0.00365973
0.00362265
0.00358575
0.00354911
0.00351278
0.00347682
0.00344127
0.0034062
0.00337164
0.00333763
0.00330421
0.00327141
0.00323925
0.00320776
0.00317695
0.00314685
0.00311745
0.00308876
0.00306078
0.00303351
0.00300692
0.002981
0.00295573
0.00293107
0.00290698
0.00288342
0.00286033
0.00283766
0.00281532
0.00279324
0.00277132
0.00274947
0.00272757
0.0027055
0.00268313
0.00266029
0.00313797
0.00319412
0.00325017
0.00330607
0.00336173
0.00341709
0.00347205
0.00352654
0.00358045
0.00363369
0.00368616
0.00373774
0.00378833
0.00383779
0.003886
0.00393282
0.00397812
0.00402174
0.00406353
0.00410333
0.00414097
0.00417627
0.00420904
0.0042391
0.00426626
0.0042903
0.00431101
0.00432819
0.0043415
0.0043507
0.00435588
0.00435726
0.00435504
0.00434943
0.00434063
0.00432886
0.0043143
0.00429717
0.00427766
0.00425594
0.00423221
0.00420663
0.00417937
0.00415059
0.00412044
0.00408906
0.00405658
0.00402314
0.00398886
0.00395385
0.00391823
0.0038821
0.00384557
0.00380873
0.00377168
0.0037345
0.00369729
0.00366012
0.00362306
0.00358619
0.00354957
0.00351326
0.00347732
0.0034418
0.00340675
0.00337221
0.00333822
0.00330482
0.00327204
0.00323989
0.00320842
0.00317762
0.00314753
0.00311814
0.00308945
0.00306148
0.0030342
0.0030076
0.00298167
0.00295638
0.00293169
0.00290756
0.00288395
0.00286081
0.00283805
0.00281562
0.00279343
0.00277138
0.00274937
0.00272728
0.00270499
0.00268236
0.00265924
0.00313797
0.00319412
0.00325017
0.00330607
0.00336174
0.00341709
0.00347206
0.00352655
0.00358046
0.0036337
0.00368617
0.00373775
0.00378834
0.0038378
0.00388601
0.00393283
0.00397813
0.00402175
0.00406354
0.00410334
0.00414098
0.00417628
0.00420905
0.00423912
0.00426627
0.00429031
0.00431102
0.0043282
0.00434151
0.00435071
0.0043559
0.00435728
0.00435506
0.00434945
0.00434066
0.0043289
0.00431435
0.00429723
0.00427773
0.00425602
0.0042323
0.00420673
0.00417949
0.00415072
0.00412059
0.00408922
0.00405676
0.00402334
0.00398907
0.00395408
0.00391848
0.00388237
0.00384585
0.00380904
0.00377201
0.00373485
0.00369766
0.00366051
0.00362348
0.00358663
0.00355004
0.00351375
0.00347784
0.00344234
0.00340731
0.0033728
0.00333883
0.00330545
0.00327268
0.00324055
0.00320909
0.00317831
0.00314823
0.00311884
0.00309016
0.00306219
0.0030349
0.0030083
0.00298235
0.00295704
0.00293232
0.00290815
0.00288449
0.00286128
0.00283844
0.00281591
0.0027936
0.0027714
0.00274923
0.00272694
0.00270442
0.00268153
0.00265811
0.00313797
0.00319412
0.00325018
0.00330607
0.00336174
0.0034171
0.00347207
0.00352655
0.00358047
0.00363371
0.00368618
0.00373776
0.00378835
0.00383781
0.00388602
0.00393284
0.00397814
0.00402176
0.00406356
0.00410336
0.00414099
0.00417629
0.00420907
0.00423913
0.00426628
0.00429032
0.00431103
0.00432821
0.00434152
0.00435073
0.00435592
0.0043573
0.00435508
0.00434948
0.0043407
0.00432894
0.0043144
0.00429729
0.00427779
0.0042561
0.00423239
0.00420684
0.00417961
0.00415086
0.00412074
0.00408939
0.00405694
0.00402353
0.00398929
0.00395431
0.00391873
0.00388264
0.00384615
0.00380935
0.00377235
0.00373522
0.00369805
0.00366092
0.00362392
0.00358709
0.00355052
0.00351426
0.00347837
0.0034429
0.00340789
0.0033734
0.00333945
0.00330609
0.00327334
0.00324123
0.00320979
0.00317902
0.00314894
0.00311957
0.00309089
0.00306292
0.00303563
0.00300902
0.00298306
0.00295772
0.00293296
0.00290875
0.00288504
0.00286175
0.00283883
0.00281619
0.00279375
0.0027714
0.00274904
0.00272655
0.00270379
0.00268062
0.00265688
0.00313798
0.00319412
0.00325018
0.00330608
0.00336175
0.0034171
0.00347207
0.00352656
0.00358047
0.00363372
0.00368619
0.00373777
0.00378836
0.00383782
0.00388603
0.00393286
0.00397815
0.00402178
0.00406357
0.00410337
0.004141
0.0041763
0.00420908
0.00423914
0.00426629
0.00429033
0.00431104
0.00432822
0.00434154
0.00435074
0.00435593
0.00435732
0.0043551
0.00434951
0.00434073
0.00432898
0.00431445
0.00429735
0.00427787
0.00425619
0.00423249
0.00420695
0.00417973
0.004151
0.00412089
0.00408956
0.00405713
0.00402374
0.00398951
0.00395455
0.00391899
0.00388292
0.00384645
0.00380968
0.00377269
0.00373559
0.00369845
0.00366135
0.00362436
0.00358757
0.00355102
0.00351478
0.00347892
0.00344347
0.00340849
0.00337402
0.00334009
0.00330675
0.00327402
0.00324193
0.0032105
0.00317975
0.00314968
0.00312032
0.00309165
0.00306367
0.00303638
0.00300975
0.00298377
0.00295841
0.00293362
0.00290936
0.00288559
0.00286222
0.00283921
0.00281646
0.00279388
0.00277137
0.00274882
0.0027261
0.00270309
0.00267962
0.00265556
0.00313798
0.00319413
0.00325018
0.00330608
0.00336175
0.00341711
0.00347208
0.00352657
0.00358048
0.00363373
0.0036862
0.00373778
0.00378837
0.00383783
0.00388604
0.00393287
0.00397817
0.00402179
0.00406358
0.00410338
0.00414102
0.00417631
0.00420909
0.00423915
0.0042663
0.00429034
0.00431105
0.00432824
0.00434155
0.00435075
0.00435595
0.00435733
0.00435513
0.00434954
0.00434076
0.00432902
0.0043145
0.00429741
0.00427794
0.00425627
0.00423259
0.00420706
0.00417986
0.00415114
0.00412105
0.00408973
0.00405732
0.00402395
0.00398974
0.0039548
0.00391926
0.00388321
0.00384676
0.00381001
0.00377305
0.00373597
0.00369886
0.00366178
0.00362482
0.00358805
0.00355153
0.00351532
0.00347948
0.00344406
0.0034091
0.00337465
0.00334075
0.00330743
0.00327472
0.00324265
0.00321123
0.0031805
0.00315044
0.00312108
0.00309242
0.00306444
0.00303715
0.00301051
0.00298451
0.00295912
0.00293429
0.00290998
0.00288614
0.0028627
0.00283958
0.00281671
0.00279398
0.0027713
0.00274855
0.00272559
0.00270231
0.00267854
0.00265413
0.00313798
0.00319413
0.00325019
0.00330609
0.00336176
0.00341712
0.00347209
0.00352658
0.00358049
0.00363374
0.00368621
0.0037378
0.00378838
0.00383784
0.00388606
0.00393288
0.00397818
0.0040218
0.0040636
0.00410339
0.00414103
0.00417633
0.0042091
0.00423916
0.00426631
0.00429035
0.00431107
0.00432825
0.00434156
0.00435077
0.00435596
0.00435735
0.00435515
0.00434956
0.0043408
0.00432906
0.00431456
0.00429748
0.00427801
0.00425636
0.00423269
0.00420718
0.00417999
0.00415129
0.00412121
0.00408991
0.00405752
0.00402416
0.00398997
0.00395506
0.00391953
0.00388351
0.00384708
0.00381036
0.00377342
0.00373637
0.00369928
0.00366223
0.0036253
0.00358855
0.00355206
0.00351588
0.00348006
0.00344466
0.00340973
0.00337531
0.00334143
0.00330813
0.00327544
0.00324339
0.00321199
0.00318127
0.00315123
0.00312188
0.00309321
0.00306524
0.00303793
0.00301128
0.00298526
0.00295984
0.00293497
0.00291061
0.00288669
0.00286316
0.00283994
0.00281693
0.00279405
0.00277119
0.00274822
0.00272502
0.00270145
0.00267736
0.00265259
0.00313799
0.00319413
0.00325019
0.00330609
0.00336176
0.00341712
0.00347209
0.00352658
0.0035805
0.00363375
0.00368622
0.00373781
0.00378839
0.00383786
0.00388607
0.00393289
0.00397819
0.00402182
0.00406361
0.00410341
0.00414104
0.00417634
0.00420911
0.00423918
0.00426633
0.00429036
0.00431108
0.00432826
0.00434157
0.00435078
0.00435598
0.00435737
0.00435518
0.00434959
0.00434084
0.00432911
0.00431461
0.00429754
0.00427809
0.00425645
0.00423279
0.0042073
0.00418013
0.00415144
0.00412138
0.0040901
0.00405772
0.00402439
0.00399021
0.00395532
0.00391982
0.00388382
0.00384742
0.00381071
0.00377381
0.00373678
0.00369971
0.00366269
0.00362579
0.00358907
0.0035526
0.00351645
0.00348066
0.00344529
0.00341038
0.00337598
0.00334213
0.00330885
0.00327618
0.00324415
0.00321277
0.00318206
0.00315203
0.00312269
0.00309403
0.00306605
0.00303874
0.00301208
0.00298603
0.00296057
0.00293566
0.00291123
0.00288725
0.00286362
0.00284028
0.00281714
0.00279409
0.00277103
0.00274783
0.00272437
0.0027005
0.00267608
0.00265093
0.00313799
0.00319414
0.0032502
0.0033061
0.00336177
0.00341713
0.0034721
0.00352659
0.00358051
0.00363376
0.00368623
0.00373782
0.00378841
0.00383787
0.00388608
0.00393291
0.00397821
0.00402183
0.00406362
0.00410342
0.00414106
0.00417636
0.00420913
0.00423919
0.00426634
0.00429037
0.00431109
0.00432827
0.00434159
0.0043508
0.004356
0.00435739
0.0043552
0.00434962
0.00434087
0.00432915
0.00431467
0.00429761
0.00427817
0.00425654
0.0042329
0.00420742
0.00418026
0.00415159
0.00412155
0.00409029
0.00405793
0.00402461
0.00399046
0.00395559
0.00392011
0.00388413
0.00384776
0.00381108
0.0037742
0.0037372
0.00370016
0.00366317
0.00362629
0.0035896
0.00355316
0.00351704
0.00348128
0.00344593
0.00341105
0.00337668
0.00334285
0.00330959
0.00327695
0.00324493
0.00321357
0.00318288
0.00315286
0.00312353
0.00309487
0.00306689
0.00303957
0.00301289
0.00298682
0.00296132
0.00293636
0.00291187
0.0028878
0.00286407
0.0028406
0.00281731
0.00279409
0.00277082
0.00274738
0.00272365
0.00269946
0.00267468
0.00264915
0.00313799
0.00319414
0.0032502
0.00330611
0.00336178
0.00341714
0.00347211
0.0035266
0.00358052
0.00363377
0.00368624
0.00373783
0.00378842
0.00383788
0.0038861
0.00393292
0.00397822
0.00402185
0.00406364
0.00410344
0.00414107
0.00417637
0.00420914
0.0042392
0.00426635
0.00429039
0.0043111
0.00432828
0.0043416
0.00435081
0.00435601
0.00435741
0.00435522
0.00434966
0.00434091
0.0043292
0.00431472
0.00429768
0.00427825
0.00425664
0.00423301
0.00420755
0.00418041
0.00415175
0.00412173
0.00409048
0.00405815
0.00402485
0.00399072
0.00395587
0.00392042
0.00388446
0.00384811
0.00381146
0.0037746
0.00373763
0.00370062
0.00366366
0.00362681
0.00359015
0.00355374
0.00351764
0.00348191
0.00344659
0.00341174
0.00337739
0.00334359
0.00331036
0.00327774
0.00324574
0.0032144
0.00318372
0.00315371
0.00312439
0.00309574
0.00306775
0.00304042
0.00301372
0.00298762
0.00296208
0.00293706
0.0029125
0.00288834
0.0028645
0.00284091
0.00281745
0.00279404
0.00277055
0.00274686
0.00272283
0.00269832
0.00267318
0.00264723
0.003138
0.00319415
0.00325021
0.00330611
0.00336179
0.00341715
0.00347212
0.00352662
0.00358054
0.00363378
0.00368626
0.00373785
0.00378843
0.0038379
0.00388611
0.00393294
0.00397824
0.00402186
0.00406365
0.00410345
0.00414109
0.00417638
0.00420916
0.00423921
0.00426636
0.0042904
0.00431111
0.0043283
0.00434161
0.00435083
0.00435603
0.00435743
0.00435525
0.00434969
0.00434095
0.00432925
0.00431478
0.00429775
0.00427833
0.00425673
0.00423312
0.00420767
0.00418055
0.00415192
0.00412191
0.00409068
0.00405837
0.00402509
0.00399099
0.00395616
0.00392073
0.0038848
0.00384847
0.00381185
0.00377502
0.00373808
0.0037011
0.00366416
0.00362735
0.00359072
0.00355434
0.00351827
0.00348257
0.00344728
0.00341245
0.00337813
0.00334435
0.00331115
0.00327855
0.00324658
0.00321525
0.00318459
0.00315459
0.00312527
0.00309662
0.00306863
0.00304129
0.00301457
0.00298843
0.00296285
0.00293777
0.00291314
0.00288888
0.00286492
0.00284118
0.00281756
0.00279395
0.00277022
0.00274626
0.00272193
0.00269707
0.00267154
0.00264518
0.003138
0.00319416
0.00325022
0.00330612
0.0033618
0.00341716
0.00347213
0.00352663
0.00358055
0.0036338
0.00368627
0.00373786
0.00378845
0.00383791
0.00388613
0.00393296
0.00397826
0.00402188
0.00406367
0.00410347
0.0041411
0.0041764
0.00420917
0.00423923
0.00426638
0.00429041
0.00431113
0.00432831
0.00434163
0.00435084
0.00435605
0.00435746
0.00435528
0.00434972
0.00434099
0.0043293
0.00431484
0.00429782
0.00427842
0.00425683
0.00423324
0.00420781
0.0041807
0.00415208
0.0041221
0.00409089
0.0040586
0.00402534
0.00399126
0.00395646
0.00392105
0.00388515
0.00384885
0.00381226
0.00377546
0.00373854
0.00370159
0.00366469
0.0036279
0.0035913
0.00355495
0.00351891
0.00348324
0.00344798
0.00341319
0.00337889
0.00334514
0.00331196
0.00327938
0.00324743
0.00321613
0.00318548
0.0031555
0.00312618
0.00309753
0.00306954
0.00304218
0.00301543
0.00298926
0.00296363
0.00293849
0.00291377
0.0028894
0.00286532
0.00284143
0.00281762
0.00279379
0.00276983
0.00274558
0.00272093
0.00269571
0.00266978
0.00264297
0.00291377
0.00296966
0.0030257
0.00308184
0.00313801
0.00319416
0.00325023
0.00330613
0.00336181
0.00341717
0.00347215
0.00352664
0.00358056
0.00363381
0.00368629
0.00373788
0.00378846
0.00383793
0.00388614
0.00393297
0.00397827
0.0040219
0.00406369
0.00410349
0.00414112
0.00417641
0.00420919
0.00423924
0.00426639
0.00429042
0.00431114
0.00432832
0.00434164
0.00435086
0.00435607
0.00435748
0.0043553
0.00434975
0.00434103
0.00432935
0.0043149
0.00429789
0.00427851
0.00425694
0.00423336
0.00420794
0.00418086
0.00415226
0.00412229
0.00409111
0.00405883
0.0040256
0.00399154
0.00395676
0.00392138
0.00388551
0.00384924
0.00381267
0.0037759
0.00373902
0.0037021
0.00366523
0.00362847
0.0035919
0.00355559
0.00351958
0.00348394
0.00344871
0.00341394
0.00337968
0.00334595
0.0033128
0.00328025
0.00324832
0.00321703
0.0031864
0.00315643
0.00312712
0.00309847
0.00307047
0.00304309
0.00301632
0.00299011
0.00296442
0.0029392
0.00291439
0.00288992
0.0028657
0.00284164
0.00281764
0.00279358
0.00276935
0.00274481
0.00271982
0.00269422
0.00266787
0.00264061
0.00291377
0.00296967
0.00302571
0.00308184
0.00313802
0.00319417
0.00325024
0.00330614
0.00336182
0.00341718
0.00347216
0.00352665
0.00358057
0.00363383
0.0036863
0.00373789
0.00378848
0.00383795
0.00388616
0.00393299
0.00397829
0.00402191
0.00406371
0.0041035
0.00414114
0.00417643
0.0042092
0.00423926
0.0042664
0.00429044
0.00431115
0.00432834
0.00434165
0.00435087
0.00435608
0.0043575
0.00435533
0.00434979
0.00434108
0.0043294
0.00431497
0.00429797
0.0042786
0.00425705
0.00423348
0.00420809
0.00418102
0.00415244
0.00412249
0.00409133
0.00405908
0.00402587
0.00399183
0.00395708
0.00392173
0.00388588
0.00384964
0.0038131
0.00377636
0.00373951
0.00370262
0.00366578
0.00362906
0.00359253
0.00355624
0.00352027
0.00348466
0.00344946
0.00341472
0.00338049
0.00334679
0.00331366
0.00328114
0.00324923
0.00321796
0.00318734
0.00315738
0.00312808
0.00309943
0.00307142
0.00304402
0.00301721
0.00299096
0.00296521
0.00293991
0.002915
0.00289041
0.00286604
0.0028418
0.0028176
0.0027933
0.00276879
0.00274394
0.00271859
0.0026926
0.00266582
0.00263809
0.00291378
0.00296967
0.00302572
0.00308185
0.00313803
0.00319418
0.00325025
0.00330615
0.00336183
0.0034172
0.00347217
0.00352667
0.00358059
0.00363384
0.00368632
0.00373791
0.0037885
0.00383797
0.00388618
0.00393301
0.00397831
0.00402193
0.00406372
0.00410352
0.00414115
0.00417645
0.00420922
0.00423927
0.00426642
0.00429045
0.00431117
0.00432835
0.00434167
0.00435089
0.0043561
0.00435752
0.00435536
0.00434982
0.00434112
0.00432946
0.00431503
0.00429805
0.00427869
0.00425716
0.00423361
0.00420823
0.00418118
0.00415262
0.0041227
0.00409156
0.00405933
0.00402615
0.00399214
0.00395741
0.00392208
0.00388627
0.00385005
0.00381355
0.00377684
0.00374002
0.00370317
0.00366636
0.00362967
0.00359317
0.00355692
0.00352098
0.0034854
0.00345023
0.00341553
0.00338132
0.00334766
0.00331456
0.00328205
0.00325017
0.00321892
0.00318832
0.00315837
0.00312907
0.00310041
0.00307239
0.00304497
0.00301812
0.00299182
0.00296601
0.00294062
0.00291561
0.00289088
0.00286635
0.00284193
0.0028175
0.00279295
0.00276815
0.00274296
0.00271724
0.00269085
0.00266362
0.00263539
0.00274743
0.00280261
0.00285808
0.00291378
0.00296968
0.00302572
0.00308186
0.00313804
0.00319419
0.00325026
0.00330616
0.00336184
0.00341721
0.00347218
0.00352668
0.0035806
0.00363386
0.00368633
0.00373793
0.00378852
0.00383798
0.0038862
0.00393303
0.00397833
0.00402195
0.00406374
0.00410354
0.00414117
0.00417646
0.00420923
0.00423929
0.00426643
0.00429047
0.00431118
0.00432836
0.00434168
0.00435091
0.00435612
0.00435755
0.00435539
0.00434986
0.00434116
0.00432951
0.0043151
0.00429813
0.00427879
0.00425727
0.00423374
0.00420838
0.00418135
0.00415281
0.00412291
0.00409179
0.00405959
0.00402643
0.00399245
0.00395775
0.00392245
0.00388666
0.00385048
0.00381401
0.00377734
0.00374055
0.00370373
0.00366696
0.0036303
0.00359383
0.00355762
0.00352171
0.00348617
0.00345103
0.00341636
0.00338219
0.00334855
0.00331548
0.003283
0.00325114
0.00321991
0.00318932
0.00315938
0.00313008
0.00310142
0.00307338
0.00304593
0.00301905
0.00299269
0.0029668
0.00294132
0.00291619
0.00289132
0.00286662
0.002842
0.00281733
0.00279251
0.0027674
0.00274187
0.00271576
0.00268894
0.00266125
0.00263252
0.00274744
0.00280262
0.00285808
0.00291379
0.00296969
0.00302573
0.00308187
0.00313805
0.0031942
0.00325027
0.00330618
0.00336185
0.00341722
0.0034722
0.0035267
0.00358062
0.00363387
0.00368635
0.00373794
0.00378854
0.003838
0.00388622
0.00393305
0.00397835
0.00402197
0.00406376
0.00410356
0.00414119
0.00417648
0.00420925
0.0042393
0.00426645
0.00429048
0.00431119
0.00432838
0.0043417
0.00435092
0.00435614
0.00435757
0.00435542
0.0043499
0.00434121
0.00432957
0.00431517
0.00429822
0.00427889
0.00425739
0.00423388
0.00420854
0.00418153
0.00415301
0.00412313
0.00409204
0.00405986
0.00402673
0.00399277
0.0039581
0.00392284
0.00388708
0.00385093
0.00381449
0.00377785
0.00374109
0.00370431
0.00366757
0.00363095
0.00359452
0.00355834
0.00352247
0.00348696
0.00345186
0.00341722
0.00338308
0.00334947
0.00331643
0.00328398
0.00325214
0.00322092
0.00319035
0.00316042
0.00313112
0.00310245
0.00307439
0.00304691
0.00301998
0.00299356
0.00296759
0.00294201
0.00291675
0.00289173
0.00286685
0.00284201
0.00281709
0.00279198
0.00276655
0.00274065
0.00271415
0.00268688
0.00265871
0.00262946
0.00274744
0.00280263
0.00285809
0.0029138
0.0029697
0.00302574
0.00308188
0.00313806
0.00319421
0.00325028
0.00330619
0.00336187
0.00341724
0.00347222
0.00352671
0.00358064
0.00363389
0.00368637
0.00373796
0.00378856
0.00383802
0.00388624
0.00393307
0.00397837
0.00402199
0.00406378
0.00410358
0.00414121
0.0041765
0.00420927
0.00423932
0.00426646
0.00429049
0.00431121
0.00432839
0.00434171
0.00435094
0.00435616
0.0043576
0.00435545
0.00434993
0.00434126
0.00432963
0.00431524
0.0042983
0.004279
0.00425751
0.00423402
0.0042087
0.00418171
0.00415322
0.00412336
0.00409229
0.00406014
0.00402704
0.00399311
0.00395847
0.00392323
0.0038875
0.00385139
0.00381498
0.00377838
0.00374166
0.00370491
0.00366821
0.00363163
0.00359523
0.00355909
0.00352325
0.00348778
0.00345272
0.00341811
0.003384
0.00335042
0.00331741
0.00328498
0.00325317
0.00322197
0.00319141
0.00316148
0.00313218
0.0031035
0.00307542
0.00304791
0.00302093
0.00299444
0.00296838
0.00294269
0.00291729
0.0028921
0.00286702
0.00284195
0.00281677
0.00279136
0.00276559
0.00273931
0.00271238
0.00268466
0.00265599
0.00262622
0.00274745
0.00280263
0.0028581
0.0029138
0.00296971
0.00302575
0.00308189
0.00313807
0.00319423
0.00325029
0.0033062
0.00336188
0.00341725
0.00347223
0.00352673
0.00358066
0.00363391
0.00368639
0.00373798
0.00378858
0.00383804
0.00388626
0.00393309
0.00397839
0.00402201
0.0040638
0.0041036
0.00414123
0.00417652
0.00420928
0.00423934
0.00426648
0.00429051
0.00431122
0.00432841
0.00434173
0.00435096
0.00435618
0.00435762
0.00435548
0.00434997
0.00434131
0.00432969
0.00431532
0.00429839
0.0042791
0.00425763
0.00423416
0.00420887
0.0041819
0.00415343
0.0041236
0.00409255
0.00406043
0.00402736
0.00399346
0.00395885
0.00392364
0.00388795
0.00385187
0.0038155
0.00377893
0.00374224
0.00370553
0.00366887
0.00363233
0.00359597
0.00355986
0.00352406
0.00348863
0.0034536
0.00341903
0.00338495
0.00335141
0.00331842
0.00328602
0.00325423
0.00322305
0.0031925
0.00316258
0.00313327
0.00310458
0.00307647
0.00304891
0.00302188
0.00299531
0.00296915
0.00294334
0.00291779
0.00289243
0.00286714
0.00284182
0.00281636
0.00279063
0.0027645
0.00273783
0.00271047
0.00268227
0.00265308
0.00262277
0.00274746
0.00280264
0.00285811
0.00291381
0.00296972
0.00302576
0.0030819
0.00313808
0.00319424
0.00325031
0.00330622
0.0033619
0.00341727
0.00347225
0.00352675
0.00358068
0.00363393
0.00368641
0.00373801
0.0037886
0.00383807
0.00388628
0.00393311
0.00397841
0.00402203
0.00406382
0.00410362
0.00414125
0.00417654
0.0042093
0.00423935
0.00426649
0.00429052
0.00431124
0.00432842
0.00434175
0.00435098
0.00435621
0.00435765
0.00435551
0.00435002
0.00434136
0.00432975
0.0043154
0.00429849
0.00427921
0.00425776
0.00423432
0.00420904
0.0041821
0.00415365
0.00412385
0.00409283
0.00406073
0.00402769
0.00399382
0.00395924
0.00392407
0.00388841
0.00385236
0.00381603
0.00377949
0.00374285
0.00370618
0.00366955
0.00363305
0.00359673
0.00356066
0.0035249
0.0034895
0.00345451
0.00341998
0.00338594
0.00335242
0.00331947
0.00328709
0.00325532
0.00322416
0.00319362
0.0031637
0.00313439
0.00310567
0.00307753
0.00304993
0.00302283
0.00299618
0.00296991
0.00294397
0.00291826
0.0028927
0.00286719
0.00284161
0.00281586
0.0027898
0.00276329
0.0027362
0.00270839
0.0026797
0.00264999
0.00261912
0.00274746
0.00280265
0.00285812
0.00291382
0.00296973
0.00302578
0.00308192
0.0031381
0.00319426
0.00325032
0.00330624
0.00336192
0.00341729
0.00347227
0.00352677
0.0035807
0.00363395
0.00368643
0.00373803
0.00378862
0.00383809
0.00388631
0.00393314
0.00397844
0.00402206
0.00406385
0.00410364
0.00414127
0.00417656
0.00420932
0.00423937
0.00426651
0.00429054
0.00431125
0.00432844
0.00434176
0.00435099
0.00435623
0.00435768
0.00435555
0.00435006
0.00434142
0.00432982
0.00431548
0.00429859
0.00427933
0.0042579
0.00423447
0.00420922
0.0041823
0.00415388
0.0041241
0.00409311
0.00406104
0.00402803
0.00399419
0.00395965
0.00392451
0.00388889
0.00385288
0.00381658
0.00378008
0.00374348
0.00370685
0.00367026
0.0036338
0.00359752
0.00356149
0.00352577
0.00349041
0.00345546
0.00342096
0.00338695
0.00335347
0.00332054
0.00328819
0.00325644
0.0032253
0.00319477
0.00316484
0.00313552
0.00310679
0.00307861
0.00305095
0.00302378
0.00299704
0.00297065
0.00294457
0.00291869
0.00289292
0.00286717
0.00284132
0.00281525
0.00278884
0.00276194
0.00273442
0.00270614
0.00267695
0.0026467
0.00261526
0.00274747
0.00280266
0.00285813
0.00291384
0.00296974
0.00302579
0.00308193
0.00313811
0.00319427
0.00325034
0.00330625
0.00336194
0.00341731
0.00347229
0.00352679
0.00358072
0.00363398
0.00368646
0.00373805
0.00378864
0.00383811
0.00388633
0.00393316
0.00397846
0.00402208
0.00406387
0.00410366
0.00414129
0.00417658
0.00420934
0.00423939
0.00426653
0.00429056
0.00431127
0.00432845
0.00434178
0.00435101
0.00435625
0.0043577
0.00435558
0.0043501
0.00434147
0.00432989
0.00431556
0.00429869
0.00427945
0.00425804
0.00423464
0.00420941
0.00418251
0.00415412
0.00412437
0.00409341
0.00406137
0.00402839
0.00399458
0.00396007
0.00392497
0.00388938
0.00385341
0.00381715
0.0037807
0.00374413
0.00370754
0.003671
0.00363457
0.00359834
0.00356235
0.00352667
0.00349135
0.00345643
0.00342197
0.003388
0.00335455
0.00332165
0.00328933
0.0032576
0.00322647
0.00319594
0.00316602
0.00313668
0.00310792
0.0030797
0.00305198
0.00302473
0.00299788
0.00297137
0.00294513
0.00291906
0.00289308
0.00286707
0.00284093
0.00281453
0.00278775
0.00276045
0.00273248
0.00270371
0.002674
0.00264321
0.00261118
0.00274748
0.00280267
0.00285814
0.00291385
0.00296975
0.0030258
0.00308195
0.00313813
0.00319429
0.00325036
0.00330627
0.00336195
0.00341733
0.00347231
0.00352681
0.00358074
0.003634
0.00368648
0.00373808
0.00378867
0.00383814
0.00388636
0.00393318
0.00397848
0.00402211
0.00406389
0.00410369
0.00414131
0.0041766
0.00420936
0.00423941
0.00426654
0.00429057
0.00431128
0.00432847
0.0043418
0.00435103
0.00435628
0.00435773
0.00435562
0.00435015
0.00434153
0.00432996
0.00431565
0.00429879
0.00427958
0.00425819
0.00423481
0.0042096
0.00418273
0.00415437
0.00412464
0.00409371
0.00406171
0.00402876
0.00399499
0.00396051
0.00392545
0.0038899
0.00385396
0.00381775
0.00378133
0.00374481
0.00370826
0.00367176
0.00363538
0.00359918
0.00356324
0.0035276
0.00349232
0.00345744
0.00342302
0.00338908
0.00335567
0.0033228
0.0032905
0.00325879
0.00322767
0.00319715
0.00316722
0.00313786
0.00310906
0.0030808
0.00305301
0.00302567
0.00299871
0.00297206
0.00294565
0.00291938
0.00289316
0.00286689
0.00284044
0.00281369
0.00278653
0.0027588
0.00273037
0.00270111
0.00267086
0.0026395
0.00260689
0.00274749
0.00280268
0.00285815
0.00291386
0.00296977
0.00302582
0.00308196
0.00313815
0.00319431
0.00325038
0.00330629
0.00336198
0.00341735
0.00347233
0.00352684
0.00358077
0.00363402
0.00368651
0.0037381
0.0037887
0.00383817
0.00388638
0.00393321
0.00397851
0.00402213
0.00406392
0.00410371
0.00414134
0.00417662
0.00420938
0.00423943
0.00426656
0.00429059
0.0043113
0.00432849
0.00434182
0.00435106
0.0043563
0.00435777
0.00435566
0.0043502
0.00434159
0.00433004
0.00431575
0.0042989
0.00427971
0.00425834
0.00423498
0.0042098
0.00418296
0.00415462
0.00412493
0.00409403
0.00406206
0.00402914
0.00399541
0.00396097
0.00392594
0.00389043
0.00385454
0.00381836
0.00378199
0.00374551
0.00370901
0.00367255
0.00363621
0.00360006
0.00356416
0.00352856
0.00349332
0.00345849
0.0034241
0.0033902
0.00335682
0.00332398
0.00329171
0.00326001
0.0032289
0.00319838
0.00316844
0.00313906
0.00311023
0.0030819
0.00305404
0.0030266
0.00299951
0.00297271
0.00294612
0.00291963
0.00289317
0.00286661
0.00283983
0.00281273
0.00278516
0.00275699
0.00272809
0.00269831
0.00266752
0.00263559
0.00260238
0.0027475
0.00280269
0.00285816
0.00291388
0.00296978
0.00302583
0.00308198
0.00313816
0.00319432
0.0032504
0.00330631
0.003362
0.00341737