/*--------------------------------*- C++ -*----------------------------------*\
  =========                 |
  \\      /  F ield         | OpenFOAM: The Open Source CFD Toolbox
   \\    /   O peration     | Website:  https://openfoam.org
    \\  /    A nd           | Version:  10
     \\/     M anipulation  |
\*---------------------------------------------------------------------------*/
FoamFile
{
    format      ascii;
    class       surfaceScalarField;
    location    "73000";
    object      phi;
}
// * * * * * * * * * * * * * * * * * * * * * * * * * * * * * * * * * * * * * //

dimensions      [0 3 -1 0 0 0 0];

internalField   nonuniform List<scalar> 
35539
(
8.93462e-09
4.5952e-05
-4.5952e-05
8.87417e-09
4.64853e-05
-4.64852e-05
8.81447e-09
4.702e-05
-4.70199e-05
8.76343e-09
4.7556e-05
-4.75559e-05
8.71952e-09
4.80929e-05
-4.80929e-05
8.67569e-09
4.86306e-05
-4.86306e-05
8.64001e-09
4.91686e-05
-4.91686e-05
8.61072e-09
4.97067e-05
-4.97067e-05
8.58084e-09
5.02445e-05
-5.02444e-05
8.55324e-09
5.07816e-05
-5.07815e-05
8.5311e-09
5.13176e-05
-5.13176e-05
8.51192e-09
5.18522e-05
-5.18522e-05
8.4962e-09
5.23849e-05
-5.23848e-05
8.47675e-09
5.29152e-05
-5.29151e-05
8.4609e-09
5.34426e-05
-5.34426e-05
8.44369e-09
5.39666e-05
-5.39666e-05
8.42757e-09
5.44867e-05
-5.44867e-05
8.40727e-09
5.50023e-05
-5.50023e-05
8.38479e-09
5.55127e-05
-5.55126e-05
8.35733e-09
5.60172e-05
-5.60172e-05
8.32416e-09
5.65153e-05
-5.65153e-05
8.2861e-09
5.70061e-05
-5.7006e-05
8.23554e-09
5.74888e-05
-5.74887e-05
8.17525e-09
5.79625e-05
-5.79625e-05
8.10146e-09
5.84265e-05
-5.84264e-05
8.01615e-09
5.88796e-05
-5.88795e-05
7.90806e-09
5.93209e-05
-5.93208e-05
7.7784e-09
5.97493e-05
-5.97492e-05
7.62813e-09
5.91269e-05
-5.91268e-05
7.4529e-09
5.74965e-05
-5.74963e-05
7.25755e-09
5.59149e-05
-5.59147e-05
7.03252e-09
5.43806e-05
-5.43803e-05
6.7806e-09
5.28918e-05
-5.28915e-05
6.49896e-09
5.1447e-05
-5.14467e-05
6.18865e-09
5.00446e-05
-5.00443e-05
5.84709e-09
4.86833e-05
-4.8683e-05
5.47611e-09
4.73616e-05
-4.73612e-05
5.07154e-09
4.60783e-05
-4.60778e-05
4.634e-09
4.48319e-05
-4.48315e-05
4.16619e-09
4.36214e-05
-4.3621e-05
3.6652e-09
4.24456e-05
-4.24451e-05
3.13444e-09
4.13032e-05
-4.13027e-05
2.57171e-09
4.01933e-05
-4.01927e-05
1.9823e-09
3.91147e-05
-3.91141e-05
1.36811e-09
3.80665e-05
-3.80659e-05
7.25432e-10
3.70477e-05
-3.70471e-05
5.41197e-11
3.60574e-05
-3.60567e-05
-6.37295e-10
3.50945e-05
-3.50938e-05
-1.35443e-09
3.41583e-05
-3.41576e-05
-2.091e-09
3.32479e-05
-3.32472e-05
-2.85306e-09
3.23625e-05
-3.23618e-05
-3.6364e-09
3.15014e-05
-3.15006e-05
-4.44385e-09
3.06636e-05
-3.06628e-05
-5.27788e-09
2.98486e-05
-2.98478e-05
-6.12967e-09
2.90557e-05
-2.90548e-05
-7.00836e-09
2.82841e-05
-2.82832e-05
-7.90821e-09
2.75332e-05
-2.75323e-05
-8.82845e-09
2.68024e-05
-2.68015e-05
-9.77443e-09
2.60912e-05
-2.60902e-05
-1.07423e-08
2.53989e-05
-2.53979e-05
-1.17325e-08
2.4725e-05
-2.4724e-05
-1.27463e-08
2.4069e-05
-2.4068e-05
-1.37803e-08
2.34304e-05
-2.34293e-05
-1.48422e-08
2.28086e-05
-2.28076e-05
-1.59265e-08
2.22033e-05
-2.22022e-05
-1.70415e-08
2.1614e-05
-2.16129e-05
-1.81827e-08
2.10403e-05
-2.10392e-05
-1.93546e-08
2.04818e-05
-2.04806e-05
-2.05649e-08
1.9938e-05
-1.99368e-05
-2.18096e-08
1.94087e-05
-1.94075e-05
-2.30957e-08
1.88935e-05
-1.88922e-05
-2.44186e-08
1.8392e-05
-1.83907e-05
-2.57869e-08
1.7904e-05
-1.79026e-05
-2.71958e-08
1.74291e-05
-1.74276e-05
-2.86452e-08
1.69669e-05
-1.69655e-05
-3.0138e-08
1.65173e-05
-1.65158e-05
-3.16654e-08
1.608e-05
-1.60784e-05
-3.32263e-08
1.56545e-05
-1.5653e-05
-3.48184e-08
1.52408e-05
-1.52392e-05
-3.64362e-08
1.48384e-05
-1.48368e-05
-3.80736e-08
1.44472e-05
-1.44455e-05
-3.97252e-08
1.40668e-05
-1.40651e-05
-4.13862e-08
1.3697e-05
-1.36953e-05
-4.3045e-08
1.33375e-05
-1.33358e-05
-4.46995e-08
1.2988e-05
-1.29864e-05
-4.63394e-08
1.26484e-05
-1.26468e-05
-4.79546e-08
1.23183e-05
-1.23167e-05
-4.95391e-08
1.19975e-05
-1.19959e-05
-5.1083e-08
1.16857e-05
-1.16842e-05
-5.25754e-08
1.13827e-05
-1.13812e-05
-5.40111e-08
1.10882e-05
-1.10868e-05
-5.5378e-08
1.0802e-05
-1.08007e-05
1.05239e-05
-1.05226e-05
9.0692e-09
4.59521e-05
9.0017e-09
4.64853e-05
8.93987e-09
4.70201e-05
8.88269e-09
4.7556e-05
8.8328e-09
4.8093e-05
8.78838e-09
4.86306e-05
8.74982e-09
4.91687e-05
8.71006e-09
4.97067e-05
8.67954e-09
5.02445e-05
8.65137e-09
5.07816e-05
8.62773e-09
5.13176e-05
8.60414e-09
5.18522e-05
8.58084e-09
5.23849e-05
8.55772e-09
5.29152e-05
8.53964e-09
5.34426e-05
8.519e-09
5.39666e-05
8.49795e-09
5.44867e-05
8.47601e-09
5.50023e-05
8.44795e-09
5.55127e-05
8.4153e-09
5.60173e-05
8.37916e-09
5.65153e-05
8.33196e-09
5.70061e-05
8.28085e-09
5.74888e-05
8.21764e-09
5.79626e-05
8.13787e-09
5.84265e-05
8.04387e-09
5.88797e-05
7.93063e-09
5.93211e-05
7.79682e-09
5.97495e-05
7.63751e-09
5.91271e-05
7.45365e-09
5.74966e-05
7.24778e-09
5.59151e-05
7.0163e-09
5.43808e-05
6.75793e-09
5.2892e-05
6.47132e-09
5.14473e-05
6.15174e-09
5.00449e-05
5.80249e-09
4.86837e-05
5.41719e-09
4.7362e-05
5.00188e-09
4.60787e-05
4.55672e-09
4.48324e-05
4.07859e-09
4.36219e-05
3.56854e-09
4.24461e-05
3.0298e-09
4.13037e-05
2.45825e-09
4.01939e-05
1.86127e-09
3.91153e-05
1.23481e-09
3.80672e-05
5.86307e-10
3.70484e-05
-8.80335e-11
3.6058e-05
-7.86673e-10
3.50952e-05
-1.50485e-09
3.4159e-05
-2.24857e-09
3.32487e-05
-3.01479e-09
3.23633e-05
-3.80308e-09
3.15021e-05
-4.61236e-09
3.06644e-05
-5.43898e-09
2.98494e-05
-6.29042e-09
2.90565e-05
-7.16262e-09
2.82849e-05
-8.05651e-09
2.75341e-05
-8.97126e-09
2.68033e-05
-9.90744e-09
2.60921e-05
-1.08643e-08
2.53999e-05
-1.1843e-08
2.4726e-05
-1.284e-08
2.407e-05
-1.38627e-08
2.34314e-05
-1.49055e-08
2.28097e-05
-1.59738e-08
2.22044e-05
-1.70685e-08
2.16151e-05
-1.81898e-08
2.10414e-05
-1.93454e-08
2.04829e-05
-2.05324e-08
1.99392e-05
-2.17561e-08
1.941e-05
-2.30173e-08
1.88948e-05
-2.43228e-08
1.83933e-05
-2.56643e-08
1.79053e-05
-2.7048e-08
1.74304e-05
-2.84736e-08
1.69684e-05
-2.99346e-08
1.65188e-05
-3.14329e-08
1.60815e-05
-3.29643e-08
1.56561e-05
-3.4524e-08
1.52423e-05
-3.61064e-08
1.484e-05
-3.77079e-08
1.44488e-05
-3.93207e-08
1.40684e-05
-4.09385e-08
1.36986e-05
-4.25562e-08
1.33391e-05
-4.41643e-08
1.29896e-05
-4.57565e-08
1.265e-05
-4.73226e-08
1.23199e-05
-4.88569e-08
1.1999e-05
-5.03477e-08
1.16872e-05
-5.1789e-08
1.13841e-05
-5.31702e-08
1.10896e-05
-5.4483e-08
1.08034e-05
1.05251e-05
9.18973e-09
4.59522e-05
9.12e-09
4.64854e-05
9.05692e-09
4.70201e-05
8.99769e-09
4.75561e-05
8.94077e-09
4.80931e-05
8.8967e-09
4.86307e-05
8.85311e-09
4.91687e-05
8.81274e-09
4.97068e-05
8.77848e-09
5.02445e-05
8.74033e-09
5.07816e-05
8.71363e-09
5.13177e-05
8.68829e-09
5.18522e-05
8.65932e-09
5.23849e-05
8.63646e-09
5.29152e-05
8.61452e-09
5.34426e-05
8.58812e-09
5.39667e-05
8.56429e-09
5.44868e-05
8.53501e-09
5.50023e-05
8.50452e-09
5.55127e-05
8.47124e-09
5.60173e-05
8.42764e-09
5.65154e-05
8.37885e-09
5.70062e-05
8.31896e-09
5.74889e-05
8.24827e-09
5.79627e-05
8.16441e-09
5.84266e-05
8.06491e-09
5.88798e-05
7.94646e-09
5.93212e-05
7.80596e-09
5.97496e-05
7.63754e-09
5.91273e-05
7.45164e-09
5.74968e-05
7.23829e-09
5.59153e-05
6.99785e-09
5.4381e-05
6.72687e-09
5.28923e-05
6.42823e-09
5.14476e-05
6.1007e-09
5.00453e-05
5.73976e-09
4.8684e-05
5.35055e-09
4.73624e-05
4.92937e-09
4.60791e-05
4.47062e-09
4.48328e-05
3.98447e-09
4.36224e-05
3.46617e-09
4.24466e-05
2.91701e-09
4.13043e-05
2.34044e-09
4.01944e-05
1.73424e-09
3.91159e-05
1.10237e-09
3.80678e-05
4.47958e-10
3.7049e-05
-2.32728e-10
3.60587e-05
-9.36071e-10
3.50959e-05
-1.66125e-09
3.41598e-05
-2.40825e-09
3.32494e-05
-3.17146e-09
3.23641e-05
-3.95836e-09
3.15029e-05
-4.76504e-09
3.06652e-05
-5.59215e-09
2.98503e-05
-6.4377e-09
2.90574e-05
-7.30557e-09
2.82858e-05
-8.19035e-09
2.7535e-05
-9.09737e-09
2.68043e-05
-1.00215e-08
2.6093e-05
-1.09635e-08
2.54008e-05
-1.19244e-08
2.47269e-05
-1.29073e-08
2.4071e-05
-1.39093e-08
2.34324e-05
-1.49338e-08
2.28107e-05
-1.59834e-08
2.22054e-05
-1.70548e-08
2.16162e-05
-1.81573e-08
2.10425e-05
-1.9287e-08
2.04841e-05
-2.045e-08
1.99404e-05
-2.1651e-08
1.94112e-05
-2.28886e-08
1.8896e-05
-2.41635e-08
1.83946e-05
-2.54799e-08
1.79066e-05
-2.68358e-08
1.74318e-05
-2.82295e-08
1.69698e-05
-2.96621e-08
1.65202e-05
-3.11265e-08
1.60829e-05
-3.26237e-08
1.56576e-05
-3.41449e-08
1.52439e-05
-3.56884e-08
1.48415e-05
-3.72481e-08
1.44503e-05
-3.88197e-08
1.407e-05
-4.03947e-08
1.37002e-05
-4.19642e-08
1.33407e-05
-4.35252e-08
1.29912e-05
-4.50676e-08
1.26515e-05
-4.65844e-08
1.23214e-05
-4.8065e-08
1.20005e-05
-4.95041e-08
1.16886e-05
-5.08926e-08
1.13855e-05
-5.22215e-08
1.10909e-05
-5.34821e-08
1.08046e-05
1.05263e-05
9.31317e-09
4.59523e-05
9.23785e-09
4.64855e-05
9.1682e-09
4.70202e-05
9.1049e-09
4.75562e-05
9.04821e-09
4.80931e-05
8.99348e-09
4.86307e-05
8.94312e-09
4.91688e-05
8.90258e-09
4.97068e-05
8.86192e-09
5.02446e-05
8.82837e-09
5.07817e-05
8.79466e-09
5.13177e-05
8.76061e-09
5.18523e-05
8.7357e-09
5.23849e-05
8.70978e-09
5.29152e-05
8.67768e-09
5.34427e-05
8.65128e-09
5.39667e-05
8.62192e-09
5.44868e-05
8.58943e-09
5.50024e-05
8.55445e-09
5.55128e-05
8.51432e-09
5.60174e-05
8.46721e-09
5.65154e-05
8.41373e-09
5.70062e-05
8.35022e-09
5.74889e-05
8.27399e-09
5.79627e-05
8.18533e-09
5.84267e-05
8.07886e-09
5.88799e-05
7.95364e-09
5.93213e-05
7.80173e-09
5.97498e-05
7.62781e-09
5.91274e-05
7.43189e-09
5.7497e-05
7.2099e-09
5.59155e-05
6.96012e-09
5.43813e-05
6.68499e-09
5.28926e-05
6.37917e-09
5.14479e-05
6.04521e-09
5.00456e-05
5.6744e-09
4.86844e-05
5.27439e-09
4.73628e-05
4.84272e-09
4.60795e-05
4.37776e-09
4.48333e-05
3.88206e-09
4.36229e-05
3.35486e-09
4.24471e-05
2.79903e-09
4.13049e-05
2.21394e-09
4.0195e-05
1.60182e-09
3.91166e-05
9.67376e-10
3.80684e-05
3.0357e-10
3.70497e-05
-3.78825e-10
3.60594e-05
-1.08586e-09
3.50966e-05
-1.81226e-09
3.41605e-05
-2.55902e-09
3.32502e-05
-3.3264e-09
3.23648e-05
-4.11053e-09
3.15037e-05
-4.91213e-09
3.0666e-05
-5.73578e-09
2.98511e-05
-6.57545e-09
2.90582e-05
-7.43229e-09
2.82867e-05
-8.30873e-09
2.75358e-05
-9.19949e-09
2.68051e-05
-1.01085e-08
2.6094e-05
-1.10368e-08
2.54017e-05
-1.19796e-08
2.47279e-05
-1.2943e-08
2.40719e-05
-1.39257e-08
2.34334e-05
-1.49273e-08
2.28117e-05
-1.59502e-08
2.22065e-05
-1.69992e-08
2.16173e-05
-1.80744e-08
2.10436e-05
-1.91809e-08
2.04852e-05
-2.03179e-08
1.99415e-05
-2.14885e-08
1.94123e-05
-2.2697e-08
1.88972e-05
-2.39426e-08
1.83959e-05
-2.52283e-08
1.79079e-05
-2.65502e-08
1.74331e-05
-2.79108e-08
1.69711e-05
-2.93062e-08
1.65216e-05
-3.07356e-08
1.60844e-05
-3.21907e-08
1.5659e-05
-3.36732e-08
1.52454e-05
-3.51774e-08
1.48431e-05
-3.66936e-08
1.44519e-05
-3.82187e-08
1.40715e-05
-3.97444e-08
1.37017e-05
-4.12695e-08
1.33422e-05
-4.27795e-08
1.29927e-05
-4.42703e-08
1.2653e-05
-4.57345e-08
1.23228e-05
-4.71635e-08
1.20019e-05
-4.85497e-08
1.169e-05
-4.98835e-08
1.13869e-05
-5.116e-08
1.10922e-05
-5.23709e-08
1.08058e-05
1.05275e-05
9.4262e-09
4.59524e-05
9.3469e-09
4.64856e-05
9.27262e-09
4.70203e-05
9.20855e-09
4.75562e-05
9.14726e-09
4.80932e-05
9.08867e-09
4.86308e-05
9.03851e-09
4.91688e-05
8.98857e-09
4.97069e-05
8.94396e-09
5.02446e-05
8.90725e-09
5.07817e-05
8.86794e-09
5.13177e-05
8.83582e-09
5.18523e-05
8.8004e-09
5.2385e-05
8.76639e-09
5.29153e-05
8.73803e-09
5.34427e-05
8.7043e-09
5.39667e-05
8.66954e-09
5.44868e-05
8.63514e-09
5.50024e-05
8.593e-09
5.55128e-05
8.54813e-09
5.60174e-05
8.49709e-09
5.65155e-05
8.43819e-09
5.70063e-05
8.37115e-09
5.7489e-05
8.28728e-09
5.79628e-05
8.19488e-09
5.84268e-05
8.08213e-09
5.888e-05
7.94573e-09
5.93214e-05
7.79001e-09
5.97499e-05
7.61209e-09
5.91276e-05
7.40606e-09
5.74972e-05
7.17616e-09
5.59158e-05
6.92051e-09
5.43815e-05
6.63713e-09
5.28929e-05
6.32048e-09
5.14482e-05
5.97354e-09
5.0046e-05
5.60103e-09
4.86848e-05
5.19063e-09
4.73632e-05
4.75003e-09
4.608e-05
4.27914e-09
4.48338e-05
3.7729e-09
4.36234e-05
3.23973e-09
4.24476e-05
2.67693e-09
4.13054e-05
2.08626e-09
4.01956e-05
1.46896e-09
3.91172e-05
8.23172e-10
3.80691e-05
1.59842e-10
3.70504e-05
-5.28878e-10
3.60601e-05
-1.23575e-09
3.50973e-05
-1.96305e-09
3.41612e-05
-2.7097e-09
3.32509e-05
-3.47142e-09
3.23656e-05
-4.25392e-09
3.15045e-05
-5.05301e-09
3.06668e-05
-5.86472e-09
2.98519e-05
-6.69674e-09
2.9059e-05
-7.5419e-09
2.82875e-05
-8.40254e-09
2.75367e-05
-9.27984e-09
2.6806e-05
-1.01732e-08
2.60949e-05
-1.10808e-08
2.54026e-05
-1.20071e-08
2.47288e-05
-1.29446e-08
2.40729e-05
-1.39018e-08
2.34343e-05
-1.48779e-08
2.28127e-05
-1.58761e-08
2.22075e-05
-1.6898e-08
2.16183e-05
-1.79442e-08
2.10447e-05
-1.90197e-08
2.04862e-05
-2.01251e-08
1.99426e-05
-2.12666e-08
1.94135e-05
-2.24426e-08
1.88984e-05
-2.36541e-08
1.83971e-05
-2.49035e-08
1.79092e-05
-2.61903e-08
1.74344e-05
-2.75138e-08
1.69724e-05
-2.887e-08
1.6523e-05
-3.02568e-08
1.60857e-05
-3.16743e-08
1.56604e-05
-3.3112e-08
1.52468e-05
-3.45672e-08
1.48445e-05
-3.60388e-08
1.44533e-05
-3.75153e-08
1.4073e-05
-3.89935e-08
1.37032e-05
-4.04646e-08
1.33437e-05
-4.19236e-08
1.29942e-05
-4.33612e-08
1.26545e-05
-4.47718e-08
1.23243e-05
-4.61471e-08
1.20033e-05
-4.74804e-08
1.16914e-05
-4.87633e-08
1.13881e-05
-4.99891e-08
1.10934e-05
-5.11493e-08
1.0807e-05
1.05285e-05
9.5291e-09
4.59525e-05
9.44887e-09
4.64856e-05
9.36885e-09
4.70204e-05
9.29753e-09
4.75563e-05
9.23226e-09
4.80932e-05
9.17279e-09
4.86309e-05
9.11671e-09
4.91689e-05
9.06877e-09
4.97069e-05
9.01855e-09
5.02447e-05
8.97598e-09
5.07817e-05
8.93301e-09
5.13178e-05
8.89154e-09
5.18524e-05
8.85619e-09
5.2385e-05
8.82087e-09
5.29153e-05
8.78468e-09
5.34427e-05
8.74966e-09
5.39668e-05
8.71217e-09
5.44869e-05
8.668e-09
5.50024e-05
8.62569e-09
5.55128e-05
8.57689e-09
5.60174e-05
8.52134e-09
5.65155e-05
8.45748e-09
5.70063e-05
8.37857e-09
5.74891e-05
8.29314e-09
5.79629e-05
8.19151e-09
5.84269e-05
8.07058e-09
5.88801e-05
7.93295e-09
5.93216e-05
7.77027e-09
5.97501e-05
7.58063e-09
5.91278e-05
7.36833e-09
5.74974e-05
7.13081e-09
5.5916e-05
6.86613e-09
5.43818e-05
6.57036e-09
5.28932e-05
6.24974e-09
5.14485e-05
5.89695e-09
5.00463e-05
5.50912e-09
4.86851e-05
5.097e-09
4.73636e-05
4.64484e-09
4.60804e-05
4.16623e-09
4.48342e-05
3.65581e-09
4.36239e-05
3.11444e-09
4.24482e-05
2.54523e-09
4.1306e-05
1.94947e-09
4.01962e-05
1.32863e-09
3.91178e-05
6.82731e-10
3.80697e-05
1.30966e-11
3.7051e-05
-6.72828e-10
3.60608e-05
-1.3829e-09
3.5098e-05
-2.11024e-09
3.4162e-05
-2.85035e-09
3.32517e-05
-3.61258e-09
3.23664e-05
-4.38559e-09
3.15053e-05
-5.1757e-09
3.06676e-05
-5.98213e-09
2.98527e-05
-6.79901e-09
2.90598e-05
-7.63096e-09
2.82883e-05
-8.47723e-09
2.75376e-05
-9.33719e-09
2.68069e-05
-1.02093e-08
2.60957e-05
-1.10944e-08
2.54035e-05
-1.19931e-08
2.47297e-05
-1.29102e-08
2.40738e-05
-1.3839e-08
2.34353e-05
-1.47885e-08
2.28136e-05
-1.5757e-08
2.22084e-05
-1.6745e-08
2.16193e-05
-1.77594e-08
2.10457e-05
-1.88023e-08
2.04873e-05
-1.98757e-08
1.99437e-05
-2.09787e-08
1.94146e-05
-2.21171e-08
1.88995e-05
-2.32928e-08
1.83982e-05
-2.45044e-08
1.79104e-05
-2.57523e-08
1.74356e-05
-2.70322e-08
1.69737e-05
-2.83443e-08
1.65243e-05
-2.96889e-08
1.60871e-05
-3.10581e-08
1.56618e-05
-3.24509e-08
1.52482e-05
-3.3858e-08
1.48459e-05
-3.52774e-08
1.44547e-05
-3.67026e-08
1.40744e-05
-3.81281e-08
1.37046e-05
-3.95469e-08
1.33451e-05
-4.09513e-08
1.29956e-05
-4.23366e-08
1.26558e-05
-4.36946e-08
1.23256e-05
-4.50155e-08
1.20046e-05
-4.6295e-08
1.16926e-05
-4.75268e-08
1.13894e-05
-4.87014e-08
1.10946e-05
-4.98175e-08
1.08081e-05
1.05296e-05
9.62751e-09
4.59525e-05
9.53851e-09
4.64857e-05
9.45818e-09
4.70204e-05
9.3814e-09
4.75564e-05
9.31304e-09
4.80933e-05
9.25061e-09
4.86309e-05
9.19073e-09
4.91689e-05
9.13124e-09
4.9707e-05
9.08377e-09
5.02447e-05
9.03277e-09
5.07818e-05
8.9903e-09
5.13178e-05
8.95043e-09
5.18524e-05
8.90765e-09
5.23851e-05
8.86813e-09
5.29153e-05
8.82623e-09
5.34428e-05
8.78308e-09
5.39668e-05
8.73964e-09
5.44869e-05
8.69699e-09
5.50025e-05
8.64867e-09
5.55129e-05
8.59038e-09
5.60175e-05
8.52956e-09
5.65156e-05
8.45725e-09
5.70064e-05
8.37947e-09
5.74892e-05
8.28925e-09
5.7963e-05
8.17663e-09
5.8427e-05
8.0536e-09
5.88803e-05
7.90739e-09
5.93217e-05
7.73568e-09
5.97503e-05
7.53901e-09
5.9128e-05
7.31936e-09
5.74977e-05
7.07434e-09
5.59163e-05
6.80141e-09
5.43821e-05
6.50061e-09
5.28935e-05
6.1684e-09
5.14488e-05
5.80688e-09
5.00467e-05
5.41675e-09
4.86855e-05
4.98986e-09
4.7364e-05
4.53495e-09
4.60809e-05
4.04851e-09
4.48347e-05
3.53109e-09
4.36244e-05
2.98682e-09
4.24487e-05
2.41134e-09
4.13066e-05
1.81145e-09
4.01968e-05
1.18518e-09
3.91184e-05
5.39391e-10
3.80704e-05
-1.31381e-10
3.70517e-05
-8.22074e-10
3.60615e-05
-1.52748e-09
3.50988e-05
-2.24838e-09
3.41627e-05
-2.98872e-09
3.32524e-05
-3.74222e-09
3.23671e-05
-4.50815e-09
3.1506e-05
-5.28742e-09
3.06684e-05
-6.07909e-09
2.98535e-05
-6.88309e-09
2.90606e-05
-7.70147e-09
2.82892e-05
-8.52617e-09
2.75384e-05
-9.36313e-09
2.68077e-05
-1.02135e-08
2.60966e-05
-1.10729e-08
2.54044e-05
-1.19476e-08
2.47306e-05
-1.28308e-08
2.40747e-05
-1.37326e-08
2.34362e-05
-1.46485e-08
2.28145e-05
-1.55818e-08
2.22094e-05
-1.65378e-08
2.16202e-05
-1.75186e-08
2.10467e-05
-1.85222e-08
2.04883e-05
-1.95569e-08
1.99447e-05
-2.06214e-08
1.94156e-05
-2.17201e-08
1.89006e-05
-2.28538e-08
1.83994e-05
-2.40223e-08
1.79116e-05
-2.52235e-08
1.74369e-05
-2.64598e-08
1.6975e-05
-2.77285e-08
1.65256e-05
-2.90238e-08
1.60884e-05
-3.03414e-08
1.56631e-05
-3.16821e-08
1.52495e-05
-3.30405e-08
1.48473e-05
-3.44057e-08
1.44561e-05
-3.57792e-08
1.40758e-05
-3.71504e-08
1.3706e-05
-3.8514e-08
1.33464e-05
-3.9863e-08
1.29969e-05
-4.11936e-08
1.26572e-05
-4.24939e-08
1.23269e-05
-4.37649e-08
1.20059e-05
-4.49924e-08
1.16939e-05
-4.61742e-08
1.13906e-05
-4.73023e-08
1.10957e-05
-4.83716e-08
1.08092e-05
1.05306e-05
9.70981e-09
4.59526e-05
9.61848e-09
4.64858e-05
9.53813e-09
4.70205e-05
9.45764e-09
4.75565e-05
9.38252e-09
4.80934e-05
9.31469e-09
4.8631e-05
9.25125e-09
4.9169e-05
9.19401e-09
4.9707e-05
9.13766e-09
5.02448e-05
9.08594e-09
5.07818e-05
9.03586e-09
5.13179e-05
8.98639e-09
5.18524e-05
8.94133e-09
5.23851e-05
8.89495e-09
5.29154e-05
8.85309e-09
5.34428e-05
8.809e-09
5.39669e-05
8.76192e-09
5.4487e-05
8.70977e-09
5.50025e-05
8.65316e-09
5.5513e-05
8.59677e-09
5.60176e-05
8.52704e-09
5.65157e-05
8.45498e-09
5.70065e-05
8.36651e-09
5.74892e-05
8.26751e-09
5.79631e-05
8.15508e-09
5.84271e-05
8.02231e-09
5.88804e-05
7.86999e-09
5.93219e-05
7.68674e-09
5.97504e-05
7.48481e-09
5.91282e-05
7.25836e-09
5.74979e-05
7.00272e-09
5.59165e-05
6.72377e-09
5.43824e-05
6.41706e-09
5.28938e-05
6.07847e-09
5.14492e-05
5.70686e-09
5.0047e-05
5.30847e-09
4.86859e-05
4.87826e-09
4.73645e-05
4.41629e-09
4.60813e-05
3.92202e-09
4.48352e-05
3.40155e-09
4.36249e-05
2.84795e-09
4.24493e-05
2.2701e-09
4.13071e-05
1.6654e-09
4.01974e-05
1.04068e-09
3.9119e-05
3.90245e-10
3.8071e-05
-2.7694e-10
3.70524e-05
-9.63234e-10
3.60622e-05
-1.66521e-09
3.50995e-05
-2.3852e-09
3.41634e-05
-3.1167e-09
3.32531e-05
-3.85878e-09
3.23679e-05
-4.61756e-09
3.15068e-05
-5.38363e-09
3.06692e-05
-6.1598e-09
2.98543e-05
-6.94716e-09
2.90614e-05
-7.74211e-09
2.82899e-05
-8.54729e-09
2.75392e-05
-9.36093e-09
2.68085e-05
-1.01831e-08
2.60974e-05
-1.1017e-08
2.54052e-05
-1.18557e-08
2.47314e-05
-1.27105e-08
2.40755e-05
-1.35755e-08
2.3437e-05
-1.44553e-08
2.28154e-05
-1.53535e-08
2.22103e-05
-1.62723e-08
2.16211e-05
-1.72098e-08
2.10476e-05
-1.81746e-08
2.04893e-05
-1.91672e-08
1.99457e-05
-2.01926e-08
1.94167e-05
-2.12466e-08
1.89017e-05
-2.2334e-08
1.84005e-05
-2.34538e-08
1.79127e-05
-2.46092e-08
1.7438e-05
-2.57957e-08
1.69761e-05
-2.70109e-08
1.65268e-05
-2.82543e-08
1.60896e-05
-2.95235e-08
1.56644e-05
-3.08097e-08
1.52508e-05
-3.21093e-08
1.48486e-05
-3.3423e-08
1.44574e-05
-3.47373e-08
1.40771e-05
-3.60525e-08
1.37073e-05
-3.73593e-08
1.33477e-05
-3.86536e-08
1.29982e-05
-3.99273e-08
1.26584e-05
-4.11763e-08
1.23282e-05
-4.23913e-08
1.20071e-05
-4.35681e-08
1.1695e-05
-4.47016e-08
1.13917e-05
-4.57856e-08
1.10968e-05
-4.68158e-08
1.08102e-05
1.05316e-05
9.78068e-09
4.59527e-05
9.68779e-09
4.64859e-05
9.60201e-09
4.70206e-05
9.52041e-09
4.75565e-05
9.4422e-09
4.80935e-05
9.3699e-09
4.86311e-05
9.30255e-09
4.9169e-05
9.23915e-09
4.97071e-05
9.17931e-09
5.02448e-05
9.12426e-09
5.07819e-05
9.07055e-09
5.13179e-05
9.01962e-09
5.18525e-05
8.97023e-09
5.23851e-05
8.92044e-09
5.29154e-05
8.86922e-09
5.34429e-05
8.8199e-09
5.39669e-05
8.76806e-09
5.4487e-05
8.71392e-09
5.50026e-05
8.65326e-09
5.5513e-05
8.58818e-09
5.60176e-05
8.51661e-09
5.65157e-05
8.43508e-09
5.70066e-05
8.34355e-09
5.74893e-05
8.23605e-09
5.79632e-05
8.11757e-09
5.84273e-05
7.9757e-09
5.88805e-05
7.81462e-09
5.9322e-05
7.63325e-09
5.97506e-05
7.42022e-09
5.91284e-05
7.18643e-09
5.74981e-05
6.9248e-09
5.59168e-05
6.63511e-09
5.43827e-05
6.31672e-09
5.28941e-05
5.97344e-09
5.14495e-05
5.59943e-09
5.00474e-05
5.19143e-09
4.86863e-05
4.75232e-09
4.73649e-05
4.28523e-09
4.60818e-05
3.78645e-09
4.48357e-05
3.2616e-09
4.36255e-05
2.70599e-09
4.24498e-05
2.12381e-09
4.13077e-05
1.52035e-09
4.0198e-05
8.9316e-10
3.91197e-05
2.4577e-10
3.80717e-05
-4.20498e-10
3.7053e-05
-1.10392e-09
3.60628e-05
-1.8015e-09
3.51002e-05
-2.51208e-09
3.41641e-05
-3.23422e-09
3.32539e-05
-3.96713e-09
3.23686e-05
-4.70836e-09
3.15075e-05
-5.46058e-09
3.06699e-05
-6.21812e-09
2.9855e-05
-6.9839e-09
2.90622e-05
-7.75568e-09
2.82907e-05
-8.53678e-09
2.754e-05
-9.32363e-09
2.68093e-05
-1.01149e-08
2.60982e-05
-1.09145e-08
2.5406e-05
-1.17244e-08
2.47322e-05
-1.25412e-08
2.40764e-05
-1.33682e-08
2.34378e-05
-1.42102e-08
2.28163e-05
-1.5068e-08
2.22111e-05
-1.59398e-08
2.1622e-05
-1.68372e-08
2.10485e-05
-1.77579e-08
2.04902e-05
-1.87037e-08
1.99467e-05
-1.96788e-08
1.94176e-05
-2.06865e-08
1.89027e-05
-2.17234e-08
1.84015e-05
-2.27951e-08
1.79137e-05
-2.38981e-08
1.74391e-05
-2.50296e-08
1.69773e-05
-2.61942e-08
1.65279e-05
-2.73793e-08
1.60908e-05
-2.85903e-08
1.56656e-05
-2.98192e-08
1.5252e-05
-3.10648e-08
1.48498e-05
-3.2317e-08
1.44587e-05
-3.35749e-08
1.40783e-05
-3.48303e-08
1.37085e-05
-3.60794e-08
1.3349e-05
-3.73174e-08
1.29995e-05
-3.85343e-08
1.26597e-05
-3.97299e-08
1.23294e-05
-4.08932e-08
1.20083e-05
-4.20229e-08
1.16962e-05
-4.31098e-08
1.13928e-05
-4.4153e-08
1.10979e-05
-4.51442e-08
1.08112e-05
1.05325e-05
9.84398e-09
4.59528e-05
9.74824e-09
4.6486e-05
9.6523e-09
4.70207e-05
9.56875e-09
4.75566e-05
9.48901e-09
4.80935e-05
9.41209e-09
4.86311e-05
9.34035e-09
4.91691e-05
9.27498e-09
4.97072e-05
9.21209e-09
5.02449e-05
9.15115e-09
5.0782e-05
9.09024e-09
5.1318e-05
9.03818e-09
5.18525e-05
8.9831e-09
5.23852e-05
8.92944e-09
5.29155e-05
8.87658e-09
5.34429e-05
8.8207e-09
5.3967e-05
8.76236e-09
5.44871e-05
8.70378e-09
5.50026e-05
8.6402e-09
5.55131e-05
8.56713e-09
5.60177e-05
8.49029e-09
5.65158e-05
8.4006e-09
5.70066e-05
8.30326e-09
5.74894e-05
8.19265e-09
5.79633e-05
8.06444e-09
5.84274e-05
7.92128e-09
5.88807e-05
7.75146e-09
5.93222e-05
7.55678e-09
5.97508e-05
7.3408e-09
5.91286e-05
7.0941e-09
5.74984e-05
6.82843e-09
5.5917e-05
6.53234e-09
5.43829e-05
6.21163e-09
5.28944e-05
5.85796e-09
5.14499e-05
5.47514e-09
5.00478e-05
5.06165e-09
4.86868e-05
4.61847e-09
4.73654e-05
4.14482e-09
4.60823e-05
3.64595e-09
4.48362e-05
3.11302e-09
4.3626e-05
2.5572e-09
4.24504e-05
1.97639e-09
4.13083e-05
1.37121e-09
4.01986e-05
7.42959e-10
3.91203e-05
1.00712e-10
3.80723e-05
-5.63329e-10
3.70537e-05
-1.23862e-09
3.60635e-05
-1.9276e-09
3.51008e-05
-2.62698e-09
3.41648e-05
-3.33758e-09
3.32546e-05
-4.05696e-09
3.23693e-05
-4.78221e-09
3.15083e-05
-5.51444e-09
3.06707e-05
-6.25355e-09
2.98558e-05
-6.99541e-09
2.90629e-05
-7.74309e-09
2.82915e-05
-8.49336e-09
2.75407e-05
-9.24648e-09
2.68101e-05
-1.00076e-08
2.60989e-05
-1.07706e-08
2.54068e-05
-1.15404e-08
2.4733e-05
-1.23179e-08
2.40771e-05
-1.31052e-08
2.34386e-05
-1.3903e-08
2.28171e-05
-1.47136e-08
2.22119e-05
-1.55444e-08
2.16228e-05
-1.63936e-08
2.10493e-05
-1.72643e-08
2.0491e-05
-1.81617e-08
1.99476e-05
-1.90865e-08
1.94186e-05
-2.00389e-08
1.89036e-05
-2.10243e-08
1.84025e-05
-2.20399e-08
1.79148e-05
-2.30838e-08
1.74402e-05
-2.41617e-08
1.69784e-05
-2.52643e-08
1.6529e-05
-2.63944e-08
1.60919e-05
-2.75456e-08
1.56668e-05
-2.87141e-08
1.52532e-05
-2.98965e-08
1.4851e-05
-3.10889e-08
1.44599e-05
-3.22864e-08
1.40795e-05
-3.34833e-08
1.37097e-05
-3.46752e-08
1.33502e-05
-3.58526e-08
1.30006e-05
-3.70159e-08
1.26608e-05
-3.81556e-08
1.23305e-05
-3.92689e-08
1.20094e-05
-4.03514e-08
1.16972e-05
-4.13965e-08
1.13938e-05
-4.23999e-08
1.10989e-05
-4.33581e-08
1.08122e-05
1.05334e-05
9.88715e-09
4.59529e-05
9.7897e-09
4.64861e-05
9.6968e-09
4.70208e-05
9.60541e-09
4.75567e-05
9.5224e-09
4.80936e-05
9.44185e-09
4.86312e-05
9.36728e-09
4.91692e-05
9.29811e-09
4.97072e-05
9.22993e-09
5.0245e-05
9.16409e-09
5.0782e-05
9.10409e-09
5.13181e-05
9.04315e-09
5.18526e-05
8.98466e-09
5.23853e-05
8.9263e-09
5.29155e-05
8.86643e-09
5.3443e-05
8.80772e-09
5.3967e-05
8.74477e-09
5.44871e-05
8.67635e-09
5.50027e-05
8.60803e-09
5.55131e-05
8.53047e-09
5.60178e-05
8.44984e-09
5.65159e-05
8.35559e-09
5.70067e-05
8.2513e-09
5.74895e-05
8.13474e-09
5.79634e-05
8.00026e-09
5.84275e-05
7.84508e-09
5.88808e-05
7.67296e-09
5.93224e-05
7.47128e-09
5.9751e-05
7.24403e-09
5.91289e-05
6.99853e-09
5.74986e-05
6.72077e-09
5.59173e-05
6.41994e-09
5.43832e-05
6.08732e-09
5.28947e-05
5.72852e-09
5.14502e-05
5.34103e-09
5.00482e-05
4.92177e-09
4.86872e-05
4.47684e-09
4.73658e-05
3.99973e-09
4.60827e-05
3.49194e-09
4.48367e-05
2.96107e-09
4.36265e-05
2.40418e-09
4.2451e-05
1.82165e-09
4.13089e-05
1.21832e-09
4.01992e-05
5.95723e-10
3.91209e-05
-4.50697e-11
3.8073e-05
-6.98882e-10
3.70544e-05
-1.36801e-09
3.60642e-05
-2.04753e-09
3.51015e-05
-2.73438e-09
3.41655e-05
-3.42965e-09
3.32553e-05
-4.13199e-09
3.237e-05
-4.83917e-09
3.1509e-05
-5.54765e-09
3.06714e-05
-6.26133e-09
2.98565e-05
-6.97529e-09
2.90637e-05
-7.69291e-09
2.82922e-05
-8.41231e-09
2.75414e-05
-9.13241e-09
2.68108e-05
-9.85369e-09
2.60997e-05
-1.05772e-08
2.54075e-05
-1.13057e-08
2.47337e-05
-1.20397e-08
2.40779e-05
-1.27808e-08
2.34394e-05
-1.35318e-08
2.28178e-05
-1.42953e-08
2.22127e-05
-1.50744e-08
2.16236e-05
-1.58707e-08
2.10501e-05
-1.66898e-08
2.04919e-05
-1.75316e-08
1.99484e-05
-1.83998e-08
1.94194e-05
-1.92978e-08
1.89045e-05
-2.02247e-08
1.84034e-05
-2.11801e-08
1.79157e-05
-2.21688e-08
1.74411e-05
-2.31814e-08
1.69794e-05
-2.4223e-08
1.65301e-05
-2.52906e-08
1.6093e-05
-2.63774e-08
1.56678e-05
-2.74847e-08
1.52543e-05
-2.86054e-08
1.48521e-05
-2.97342e-08
1.4461e-05
-3.08694e-08
1.40807e-05
-3.20051e-08
1.37109e-05
-3.31348e-08
1.33513e-05
-3.4258e-08
1.30018e-05
-3.5365e-08
1.26619e-05
-3.64527e-08
1.23316e-05
-3.75176e-08
1.20105e-05
-3.85547e-08
1.16983e-05
-3.95585e-08
1.13948e-05
-4.05282e-08
1.10998e-05
-4.14577e-08
1.08131e-05
1.05343e-05
9.92003e-09
4.59531e-05
9.81325e-09
4.64862e-05
9.71789e-09
4.70209e-05
9.62799e-09
4.75568e-05
9.53724e-09
4.80937e-05
9.45736e-09
4.86313e-05
9.37909e-09
4.91693e-05
9.30105e-09
4.97073e-05
9.23219e-09
5.0245e-05
9.16287e-09
5.07821e-05
9.09878e-09
5.13181e-05
9.03298e-09
5.18527e-05
8.97096e-09
5.23853e-05
8.90798e-09
5.29156e-05
8.84189e-09
5.3443e-05
8.77745e-09
5.39671e-05
8.70971e-09
5.44872e-05
8.6424e-09
5.50028e-05
8.56395e-09
5.55132e-05
8.48492e-09
5.60179e-05
8.39255e-09
5.6516e-05
8.29471e-09
5.70068e-05
8.18502e-09
5.74896e-05
8.05766e-09
5.79636e-05
7.91847e-09
5.84277e-05
7.75862e-09
5.8881e-05
7.57675e-09
5.93226e-05
7.37164e-09
5.97512e-05
7.1386e-09
5.91291e-05
6.87955e-09
5.74989e-05
6.59895e-09
5.59176e-05
6.28958e-09
5.43836e-05
5.95461e-09
5.28951e-05
5.58867e-09
5.14506e-05
5.1966e-09
5.00486e-05
4.77348e-09
4.86876e-05
4.32055e-09
4.73663e-05
3.84032e-09
4.60832e-05
3.33647e-09
4.48372e-05
2.80109e-09
4.36271e-05
2.24413e-09
4.24515e-05
1.66617e-09
4.13095e-05
1.06464e-09
4.01998e-05
4.47885e-10
3.91215e-05
-1.86382e-10
3.80736e-05
-8.33217e-10
3.7055e-05
-1.48947e-09
3.60648e-05
-2.15538e-09
3.51022e-05
-2.83047e-09
3.41662e-05
-3.50812e-09
3.32559e-05
-4.18756e-09
3.23707e-05
-4.8718e-09
3.15096e-05
-5.55653e-09
3.06721e-05
-6.24026e-09
2.98572e-05
-6.92754e-09
2.90643e-05
-7.60881e-09
2.82929e-05
-8.29033e-09
2.75421e-05
-8.97166e-09
2.68115e-05
-9.65173e-09
2.61003e-05
-1.03352e-08
2.54082e-05
-1.10184e-08
2.47344e-05
-1.17025e-08
2.40785e-05
-1.23937e-08
2.34401e-05
-1.30924e-08
2.28185e-05
-1.38031e-08
2.22134e-05
-1.4527e-08
2.16243e-05
-1.5269e-08
2.10509e-05
-1.60294e-08
2.04926e-05
-1.68151e-08
1.99492e-05
-1.76232e-08
1.94202e-05
-1.84594e-08
1.89054e-05
-1.93227e-08
1.84043e-05
-2.02159e-08
1.79166e-05
-2.11379e-08
1.74421e-05
-2.209e-08
1.69803e-05
-2.30655e-08
1.65311e-05
-2.40647e-08
1.6094e-05
-2.50871e-08
1.56689e-05
-2.61282e-08
1.52554e-05
-2.71828e-08
1.48532e-05
-2.8248e-08
1.44621e-05
-2.93193e-08
1.40817e-05
-3.03935e-08
1.37119e-05
-3.14632e-08
1.33524e-05
-3.25268e-08
1.30028e-05
-3.35802e-08
1.2663e-05
-3.4618e-08
1.23326e-05
-3.5636e-08
1.20115e-05
-3.66297e-08
1.16993e-05
-3.7599e-08
1.13958e-05
-3.85356e-08
1.11008e-05
-3.94406e-08
1.0814e-05
1.05352e-05
9.93114e-09
4.59532e-05
9.82814e-09
4.64863e-05
9.72706e-09
4.7021e-05
9.63155e-09
4.75569e-05
9.54342e-09
4.80938e-05
9.45292e-09
4.86314e-05
9.37419e-09
4.91694e-05
9.29507e-09
4.97074e-05
9.21629e-09
5.02451e-05
9.14573e-09
5.07822e-05
9.07664e-09
5.13182e-05
9.00649e-09
5.18527e-05
8.93837e-09
5.23854e-05
8.87141e-09
5.29157e-05
8.80625e-09
5.34431e-05
8.73236e-09
5.39672e-05
8.66152e-09
5.44873e-05
8.58346e-09
5.50029e-05
8.50407e-09
5.55133e-05
8.41549e-09
5.60179e-05
8.32107e-09
5.65161e-05
8.21616e-09
5.70069e-05
8.09742e-09
5.74898e-05
7.9691e-09
5.79637e-05
7.82146e-09
5.84278e-05
7.65605e-09
5.88812e-05
7.46925e-09
5.93227e-05
7.25314e-09
5.97514e-05
7.01377e-09
5.91293e-05
6.74996e-09
5.74991e-05
6.46029e-09
5.59179e-05
6.14697e-09
5.43839e-05
5.80301e-09
5.28954e-05
5.43572e-09
5.1451e-05
5.03631e-09
5.0049e-05
4.61111e-09
4.8688e-05
4.15792e-09
4.73667e-05
3.67627e-09
4.60837e-05
3.16724e-09
4.48377e-05
2.63635e-09
4.36276e-05
2.08014e-09
4.24521e-05
1.5047e-09
4.131e-05
9.10835e-10
4.02004e-05
2.9818e-10
3.91221e-05
-3.24952e-10
3.80742e-05
-9.59206e-10
3.70556e-05
-1.6033e-09
3.60655e-05
-2.25286e-09
3.51028e-05
-2.90612e-09
3.41668e-05
-3.56442e-09