/*--------------------------------*- C++ -*----------------------------------*\
  =========                 |
  \\      /  F ield         | OpenFOAM: The Open Source CFD Toolbox
   \\    /   O peration     | Website:  https://openfoam.org
    \\  /    A nd           | Version:  10
     \\/     M anipulation  |
\*---------------------------------------------------------------------------*/
FoamFile
{
    format      ascii;
    class       volScalarField;
    location    "59000";
    object      nut;
}
// * * * * * * * * * * * * * * * * * * * * * * * * * * * * * * * * * * * * * //

dimensions      [0 2 -1 0 0 0 0];

internalField   nonuniform List<scalar> 
17969
(
7.59426e-09
7.24698e-07
4.53646e-06
1.10785e-05
1.66175e-05
1.98622e-05
2.08967e-05
1.96717e-05
1.87995e-05
1.87705e-05
1.96317e-05
2.14315e-05
2.43614e-05
2.8754e-05
3.53559e-05
4.46664e-05
5.05016e-05
5.76839e-05
6.64941e-05
7.71685e-05
8.98929e-05
0.000104803
0.00012196
0.000141327
0.00016278
0.00018614
0.000211201
0.000237751
0.000265578
0.000294486
0.0003243
0.000354865
0.000386049
0.000417743
0.000449853
0.000482303
0.000515031
0.000547984
0.000581119
0.000614397
0.000647785
0.000681252
0.000714768
0.000748304
0.000781829
0.000815311
0.000848717
0.00088201
0.000915151
0.000948099
0.000980808
0.00101323
0.00104532
0.00107702
0.00110827
0.00113903
0.00116921
0.00119876
0.00122762
0.0012557
0.00128294
0.00130925
0.00133455
0.00135875
0.00138174
0.00140342
0.00142368
0.00144238
0.00145938
0.00147453
0.00148766
0.00149857
0.00150704
0.00151285
0.00151572
0.0015156
0.0015127
0.00150697
0.00149559
0.00145983
0.00142532
0.00139402
0.00136497
0.00133777
0.00131201
0.00128798
0.00126804
0.00125718
0.00126082
0.00127798
0.00128905
0.00126925
0.00124976
0.00123071
0.00121225
0.00119454
0.00117779
0.0011627
0.0011498
0.00113896
3.43011e-09
3.46483e-07
2.81456e-06
8.51267e-06
1.46378e-05
1.89451e-05
2.12778e-05
2.31047e-05
2.50729e-05
2.4919e-05
2.39296e-05
2.36089e-05
2.41707e-05
2.56478e-05
2.81425e-05
3.18989e-05
3.72651e-05
4.49587e-05
5.50256e-05
6.12463e-05
6.87668e-05
7.78386e-05
8.86773e-05
0.000101451
0.000116284
0.000133258
0.000152397
0.000173651
0.000196898
0.000221964
0.000248652
0.000276756
0.000306073
0.000336411
0.000367594
0.000399465
0.000431886
0.000464738
0.000497918
0.000531342
0.000564935
0.000598638
0.0006324
0.000666174
0.000699921
0.000733604
0.000767187
0.000800635
0.00083391
0.000866974
0.000899787
0.000932306
0.000964484
0.000996274
0.00102762
0.00105847
0.00108877
0.00111845
0.00114745
0.00117569
0.00120311
0.00122963
0.00125516
0.00127962
0.0013029
0.00132491
0.00134552
0.00136462
0.00138206
0.00139768
0.00141133
0.0014228
0.00143188
0.00143835
0.00144193
0.00144258
0.00144052
0.00143582
0.00142147
0.0013857
0.00135147
0.00132031
0.00129162
0.00126539
0.00124137
0.00121913
0.00119874
0.00118187
0.00117252
0.00117595
0.00119436
0.0012168
0.00120091
0.00118366
0.00116702
0.00115116
0.00113626
0.00112299
0.00111181
0.00110262
1.67634e-09
1.70171e-07
1.64544e-06
5.96838e-06
1.14871e-05
1.60177e-05
1.87831e-05
2.06949e-05
2.30214e-05
2.56675e-05
2.85595e-05
3.08803e-05
2.98085e-05
2.91337e-05
2.93367e-05
3.04439e-05
3.24786e-05
3.55604e-05
3.99489e-05
4.59574e-05
5.42631e-05
6.5717e-05
7.22069e-05
7.99184e-05
8.90931e-05
9.99416e-05
0.000112634
0.0001273
0.000144029
0.00016287
0.000183825
0.000206836
0.00023178
0.000258481
0.000286731
0.00031631
0.000347001
0.000378599
0.000410918
0.000443793
0.000477082
0.000510662
0.000544431
0.000578303
0.000612205
0.000646076
0.000679863
0.000713518
0.000746997
0.000780257
0.000813256
0.000845952
0.000878299
0.000910251
0.000941759
0.00097277
0.00100323
0.00103307
0.00106225
0.00109068
0.0011183
0.00114503
0.00117079
0.0011955
0.00121906
0.00124137
0.00126232
0.00128178
0.00129962
0.00131568
0.00132981
0.0013418
0.00135146
0.00135857
0.00136285
0.00136426
0.00136306
0.0013595
0.00134469
0.00130899
0.00127511
0.00124432
0.00121593
0.0011901
0.0011669
0.00114618
0.00112769
0.00111148
0.00109863
0.00109216
0.00109683
0.00111577
0.00114049
0.00113389
0.00111935
0.00110561
0.00109286
0.00108172
0.00107258
0.00106536
8.93813e-10
9.01141e-08
9.60798e-07
4.04957e-06
8.76751e-06
1.33239e-05
1.66078e-05
1.84747e-05
2.02669e-05
2.24954e-05
2.51846e-05
2.82809e-05
3.17316e-05
3.52764e-05
3.58496e-05
3.50555e-05
3.49542e-05
3.56888e-05
3.72801e-05
3.97731e-05
4.32977e-05
4.8144e-05
5.4645e-05
6.34923e-05
7.55941e-05
8.31256e-05
9.08937e-05
0.000100064
0.00011086
0.000123459
0.000137998
0.000154573
0.000173234
0.000193986
0.000216788
0.000241545
0.000268107
0.000296281
0.000325843
0.000356558
0.000388203
0.000420569
0.000453474
0.000486758
0.000520288
0.000553952
0.000587654
0.000621314
0.000654862
0.000688237
0.000721382
0.000754244
0.00078677
0.00081891
0.000850611
0.000881819
0.000912477
0.000942528
0.000971908
0.00100055
0.0010284
0.00105536
0.00108136
0.00110633
0.00113016
0.00115276
0.00117402
0.00119382
0.00121202
0.00122848
0.00124305
0.00125554
0.00126576
0.00127352
0.00127856
0.00128087
0.0012807
0.0012784
0.00126539
0.00123011
0.00119669
0.00116647
0.00113862
0.00111329
0.00109066
0.00107079
0.00105369
0.00103934
0.00102785
0.00102
0.00101799
0.00102562
0.00104607
0.00107257
0.00106975
0.00105841
0.00104809
0.00103937
0.00103257
0.00102766
0.00102479
0.00102416
0.00102593
0.00103022
5.32388e-10
5.41287e-08
5.87571e-07
2.7554e-06
6.63483e-06
1.10804e-05
1.50418e-05
1.7813e-05
1.93235e-05
2.07636e-05
2.25503e-05
2.48093e-05
2.75432e-05
3.07613e-05
3.44686e-05
3.84715e-05
4.14856e-05
4.0995e-05
4.08247e-05
4.13664e-05
4.26349e-05
4.46915e-05
4.76399e-05
5.16729e-05
5.71495e-05
6.44952e-05
7.44925e-05
8.73748e-05
9.40395e-05
0.000101848
0.000111062
0.000121904
0.00013455
0.000149125
0.000165706
0.000184321
0.000204953
0.00022754
0.000251982
0.000278141
0.000305845
0.000334895
0.000365082
0.000396191
0.000428019
0.00046038
0.00049311
0.000526065
0.000559123
0.000592176
0.000625132
0.000657907
0.000690426
0.00072262
0.00075442
0.000785763
0.000816583
0.000846816
0.000876394
0.000905249
0.00093331
0.000960502
0.000986747
0.00101196
0.00103605
0.00105893
0.00108048
0.00110059
0.00111914
0.001136
0.00115101
0.00116403
0.00117488
0.00118341
0.00118937
0.00119275
0.00119384
0.00119299
0.00118437
0.00114997
0.00111712
0.00108765
0.00106066
0.00103624
0.00101454
0.000995641
0.000979688
0.00096684
0.000957243
0.000951132
0.000949175
0.000952946
0.000965139
0.000988777
0.00101773
0.00101009
0.00100249
0.000996477
0.000992296
0.000989985
0.000989731
0.000991729
0.000996136
0.00100304
4.00288e-10
4.09249e-08
4.28183e-07
2.10382e-06
5.37756e-06
9.53098e-06
1.38022e-05
1.75411e-05
2.0214e-05
2.16294e-05
2.25898e-05
2.38424e-05
2.54841e-05
2.7608e-05
3.02635e-05
3.34709e-05
3.72445e-05
4.15133e-05
4.59738e-05
4.70837e-05
4.72604e-05
4.78355e-05
4.89524e-05
5.07323e-05
5.3307e-05
5.68773e-05
6.17413e-05
6.8299e-05
7.70919e-05
8.88327e-05
9.87217e-05
0.000105503
0.000113468
0.000122864
0.000133889
0.00014669
0.000161359
0.000177939
0.000196428
0.000216783
0.000238925
0.000262748
0.000288122
0.000314899
0.000342915
0.000371995
0.000401962
0.000432639
0.000463854
0.000495447
0.00052727
0.000559187
0.000591075
0.000622823
0.000654327
0.000685493
0.00071623
0.000746455
0.000776084
0.000805036
0.000833231
0.000860587
0.000887021
0.000912447
0.000936774
0.00095991
0.000981754
0.0010022
0.00102114
0.00103845
0.00105401
0.00106769
0.00107936
0.00108888
0.00109601
0.00110073
0.00110327
0.00110391
0.00110233
0.00106965
0.00103783
0.00100943
0.000983694
0.000960629
0.000940348
0.000922889
0.000908371
0.000897023
0.000889147
0.000885093
0.000885286
0.000890256
0.000900937
0.000920091
0.00094824
0.000961304
0.00095665
0.000953577
0.000952267
0.000952842
0.000955498
0.000960423
0.000967751
0.000977548
3.59446e-10
3.68628e-08
3.71415e-07
1.84137e-06
4.81209e-06
8.73555e-06
1.30357e-05
1.72305e-05
2.08845e-05
2.36007e-05
2.5082e-05
2.56282e-05
2.63382e-05
2.73611e-05
2.88373e-05
3.0861e-05
3.34846e-05
3.67252e-05
4.0582e-05
4.5059e-05
4.99521e-05
5.43378e-05
5.51978e-05
5.5886e-05
5.69205e-05
5.84359e-05
6.06751e-05
6.38563e-05
6.8277e-05
7.42728e-05
8.21384e-05
9.24007e-05
0.000105155
0.000111198
0.000118192
0.000126386
0.000135984
0.000147143
0.00015997
0.000174527
0.000190836
0.000208878
0.000228603
0.000249934
0.000272771
0.000296999
0.000322489
0.000349099
0.000376684
0.000405091
0.000434164
0.000463748
0.000493691
0.000523844
0.000554063
0.000584215
0.00061417
0.000643808
0.000673015
0.000701682
0.000729707
0.00075699
0.000783434
0.000808945
0.000833427
0.000856785
0.000878925
0.000899749
0.000919157
0.000937048
0.000953317
0.00096786
0.000980564
0.000991315
0.000999861
0.00100613
0.00101032
0.00101271
0.00101358
0.000990004
0.000960554
0.000933744
0.000909816
0.000888629
0.00087021
0.000854592
0.000841899
0.000832396
0.00082648
0.000824643
0.000827456
0.000835372
0.000848442
0.0008678
0.000894912
0.000912783
0.000911223
0.00091126
0.000913055
0.000916776
0.000922614
0.000930733
0.000941236
0.000954156
0.000969444
3.52904e-10
3.62924e-08
3.56236e-07
1.74912e-06
4.58188e-06
8.36871e-06
1.26282e-05
1.69923e-05
2.11394e-05
2.47579e-05
2.75396e-05
2.91952e-05
2.97276e-05
2.99037e-05
3.03535e-05
3.11748e-05
3.25029e-05
3.44469e-05
3.70753e-05
4.0414e-05
4.44566e-05
4.91799e-05
5.45009e-05
6.01343e-05
6.51345e-05
6.60693e-05
6.68366e-05
6.80239e-05
6.98347e-05
7.25667e-05
7.64813e-05
8.18398e-05
8.88671e-05
9.77411e-05
0.000108818
0.000118812
0.000125057
0.000132231
0.000140536
0.000150134
0.000161152
0.000173676
0.000187759
0.00020342
0.000220647
0.000239399
0.000259611
0.000281193
0.000304041
0.000328033
0.000353041
0.000378924
0.000405538
0.000432735
0.000460364
0.000488276
0.000516322
0.000544357
0.000572242
0.000599841
0.000627025
0.00065367
0.00067966
0.000704883
0.000729229
0.000752597
0.000774885
0.000795997
0.000815837
0.000834311
0.000851325
0.000866785
0.000880592
0.000892638
0.000902646
0.000910496
0.000916372
0.000920517
0.000923215
0.000913311
0.000887464
0.000862887
0.000841303
0.000822449
0.000806292
0.00079298
0.000782688
0.000775736
0.000772597
0.000773692
0.00077954
0.00079065
0.000806778
0.000828482
0.000855453
0.000865183
0.000866821
0.000870118
0.000875227
0.000882324
0.000891578
0.000903117
0.000917005
0.000933229
0.000951697
0.000972244
0.000994641
3.60694e-10
3.71915e-08
3.5849e-07
1.72745e-06
4.48922e-06
8.17875e-06
1.23713e-05
1.67766e-05
2.11631e-05
2.53108e-05
2.89894e-05
3.19529e-05
3.39472e-05
3.4757e-05
3.46495e-05
3.45679e-05
3.47594e-05
3.53481e-05
3.64835e-05
3.83023e-05
4.08989e-05
4.43156e-05
4.85488e-05
5.35648e-05
5.93196e-05
6.55446e-05
7.18863e-05
7.75837e-05
7.83425e-05
7.90988e-05
8.05102e-05
8.27794e-05
8.61522e-05
9.08631e-05
9.7067e-05
0.000104824
0.000114314
0.000125834
0.000133693
0.000140002
0.000147145
0.000155289
0.00016458
0.000175129
0.000187024
0.000200321
0.000215049
0.000231208
0.000248767
0.000267667
0.000287826
0.000309141
0.000331493
0.00035475
0.000378771
0.000403409
0.000428514
0.000453937
0.000479526
0.000505135
0.000530619
0.00055584
0.000580664
0.000604964
0.000628616
0.000651504
0.000673519
0.000694556
0.000714514
0.000733298
0.000750815
0.000766972
0.000781676
0.00079482
0.000806103
0.000815364
0.000822759
0.0008285
0.000832796
0.000835873
0.000820278
0.000799816
0.000780988
0.000764488
0.0007509
0.000740734
0.000733956
0.000730696
0.000731455
0.000736176
0.000744721
0.000757109
0.000773891
0.000796004
0.000815649
0.000819041
0.000823969
0.000830661
0.000839261
0.000849927
0.000862789
0.000877926
0.000895352
0.000915001
0.000936736
0.000960347
0.000985574
0.00101212
3.75798e-10
3.88507e-08
3.6922e-07
1.73927e-06
4.46249e-06
8.0758e-06
1.21888e-05
1.65619e-05
2.10263e-05
2.54343e-05
2.96326e-05
3.3448e-05
3.66805e-05
3.91042e-05
4.04791e-05
4.06836e-05
4.01883e-05
3.98479e-05
3.97493e-05
4.00289e-05
4.08733e-05
4.24578e-05
4.49101e-05
4.8297e-05
5.26292e-05
5.78756e-05
6.39846e-05
7.07513e-05
7.77641e-05
8.46581e-05
9.01422e-05
9.10419e-05
9.22207e-05
9.42606e-05
9.73056e-05
0.000101526
0.00010709
0.000114113
0.000122599
0.000132788
0.000143685
0.000149313
0.000155481
0.000162361
0.000170109
0.000178859
0.000188724
0.000199794
0.000212131
0.000225767
0.000240706
0.000256921
0.000274355
0.000292926
0.00031253
0.000333047
0.000354344
0.000376276
0.000398696
0.000421453
0.000444399
0.000467384
0.000490266
0.000512905
0.000535167
0.000556925
0.000578058
0.000598453
0.000618001
0.000636602
0.000654161
0.000670584
0.000685778
0.00069964
0.000711847
0.000722206
0.000730857
0.000737997
0.000743842
0.00074868
0.000752299
0.000744941
0.000730916
0.000719043
0.000710158
0.000704417
0.00070189
0.00070222
0.000705009
0.000710629
0.000719139
0.000725809
0.000733526
0.000746326
0.000764671
0.000774656
0.000782986
0.000793216
0.00080547
0.000819868
0.000836491
0.00085536
0.000876428
0.000899572
0.0009246
0.00095126
0.000979259
0.00100828
0.001038
0.00106809
3.96623e-10
4.11224e-08
3.85801e-07
1.7735e-06
4.48416e-06
8.04807e-06
1.20945e-05
1.64134e-05
2.08728e-05
2.53712e-05
2.98126e-05
3.40906e-05
3.80786e-05
4.1621e-05
4.45292e-05
4.65823e-05
4.75428e-05
4.73505e-05
4.65693e-05
4.5944e-05
4.55155e-05
4.54147e-05
4.58581e-05
4.70634e-05
4.91956e-05
5.23566e-05
5.65848e-05
6.1866e-05
6.81545e-05
7.53265e-05
8.29313e-05
9.05241e-05
9.78848e-05
0.000102973
0.000104659
0.000106813
0.000109872
0.000113965
0.00011926
0.00012587
0.000133815
0.00014326
0.000154333
0.000159855
0.000165308
0.000171199
0.000177691
0.000184929
0.000193039
0.000202131
0.000212287
0.000223565
0.000235995
0.000249577
0.000264282
0.000280055
0.000296815
0.000314459
0.000332871
0.000351917
0.00037146
0.000391358
0.000411465
0.000431635
0.000451728
0.000471609
0.000491149
0.000510223
0.000528717
0.000546523
0.000563545
0.000579687
0.000594855
0.000608948
0.000621631
0.000632687
0.000642236
0.000650454
0.000657528
0.000663694
0.000669311
0.000673911
0.000677584
0.000680543
0.000682781
0.000680855
0.000681617
0.00068455
0.000678446
0.000675873
0.000675299
0.000676946
0.000681698
0.000690822
0.000706534
0.000728936
0.000744126
0.000758041
0.000774094
0.000792362
0.000812865
0.000835556
0.00086032
0.000886968
0.000915254
0.000944884
0.000975535
0.00100687
0.00103857
0.00107033
0.00110185
0.0011329
0.00116326
0.00119277
4.24001e-10
4.41112e-08
4.08527e-07
1.83017e-06
4.55645e-06
8.10685e-06
1.21212e-05
1.64041e-05
2.08417e-05
2.53557e-05
2.98817e-05
3.43561e-05
3.87072e-05
4.28471e-05
4.66645e-05
5.00175e-05
5.27281e-05
5.458e-05
5.53391e-05
5.49337e-05
5.39092e-05
5.30065e-05
5.22414e-05
5.1732e-05
5.16943e-05
5.23726e-05
5.39809e-05
5.66731e-05
6.05328e-05
6.55791e-05
7.17862e-05
7.91316e-05
8.71465e-05
9.53459e-05
0.000103444
0.000111278
0.000117232
0.00012024
0.000123699
0.000128038
0.000133421
0.000140047
0.00014791
0.000157015
0.000166287
0.000171277
0.000176312
0.000181553
0.000187152
0.000193248
0.000199969
0.000207425
0.000215708
0.000224891
0.000235021
0.000246121
0.000258188
0.000271191
0.000285079
0.000299774
0.000315185
0.0003312
0.000347699
0.000364554
0.000381631
0.000398803
0.000415939
0.00043291
0.000449595
0.000465888
0.000481688
0.000496899
0.000511426
0.000525172
0.000537799
0.00054907
0.00055908
0.000567977
0.000575914
0.00058307
0.000589685
0.000596154
0.000602025
0.000607374
0.000612327
0.000617017
0.000621617
0.000626285
0.000631157
0.000635057
0.000635029
0.00063687
0.000641405
0.000649224
0.000661769
0.000681439
0.00070759
0.000725538
0.000745489
0.00076771
0.000792151
0.000818689
0.000847127
0.000877212
0.000908641
0.000941083
0.00097419
0.00100762
0.00104106
0.0010742
0.00110678
0.00113859
0.00116945
0.0011992
4.59076e-10
4.79508e-08
4.3814e-07
1.91065e-06
4.68165e-06
8.25748e-06
1.22825e-05
1.65678e-05
2.10063e-05
2.55284e-05
3.00827e-05
3.46262e-05
3.91163e-05
4.35061e-05
4.77387e-05
5.17412e-05
5.5418e-05
5.86438e-05
6.1256e-05
6.30492e-05
6.37931e-05
6.33659e-05
6.21898e-05
6.10735e-05
6.00394e-05
5.91594e-05
5.86191e-05
5.86837e-05
5.96136e-05
6.16228e-05
6.48558e-05
6.93865e-05
7.52319e-05
8.24065e-05
9.05531e-05
9.91783e-05
0.000107891
0.000116491
0.000124847
0.000132852
0.0001385
0.00014361
0.0001495
0.000156493
0.000164675
0.000172628
0.000177924
0.000182984
0.000187934
0.000192902
0.000198012
0.000203387
0.000209139
0.000215372
0.000222179
0.000229633
0.000237794
0.000246699
0.000256362
0.00026678
0.000277924
0.000289746
0.000302182
0.000315148
0.000328555
0.0003423
0.000356273
0.000370362
0.000384459
0.000398463
0.000412278
0.000425811
0.000438975
0.000451685
0.000463613
0.000474514
0.000484452
0.000493543
0.000501906
0.000509673
0.000517003
0.000524118
0.000531381
0.000538551
0.000545535
0.000552449
0.000559415
0.00056657
0.00057406
0.000582059
0.000590775
0.000600471
0.000609409
0.000617817
0.000629299
0.000645587
0.00066875
0.000696237
0.000720094
0.000746267
0.000774616
0.000804927
0.000836922
0.000870278
0.00090464
0.000939643
0.000974926
0.00101015
0.001045
0.0010792
0.00111253
0.00114478
0.00117582
0.00120552
5.03183e-10
5.27886e-08
4.75433e-07
2.01618e-06
4.86021e-06
8.49908e-06
1.2576e-05
1.69044e-05
2.13779e-05
2.59289e-05
3.051e-05
3.50851e-05
3.9624e-05
4.40989e-05
4.84808e-05
5.27359e-05
5.68213e-05
6.06801e-05
6.42342e-05
6.73776e-05
6.99683e-05
7.18203e-05
7.27056e-05
7.24785e-05
7.13401e-05
7.00824e-05
6.88691e-05
6.77226e-05
6.67621e-05
6.62381e-05
6.64391e-05
6.7633e-05
7.00335e-05
7.37819e-05
7.89499e-05
8.55797e-05
9.35105e-05
0.000102274
0.000111398
0.000120614
0.000129715
0.000138575
0.000147103
0.000155233
0.000162916
0.000170098
0.000176768
0.000182966
0.000188753
0.000194209
0.000199423
0.000204493
0.000209516
0.000214592
0.000219817
0.000225283
0.000231071
0.000237254
0.00024389
0.000251025
0.000258685
0.000266881
0.000275608
0.000284842
0.000294547
0.000304675
0.000315159
0.000325929
0.000336916
0.000348045
0.00035924
0.000370423
0.000381529
0.000392494
0.000403032
0.000412902
0.00042215
0.000430859
0.000439117
0.000447017
0.000454664
0.000462186
0.000469756
0.000477636
0.00048592
0.000494465
0.00050325
0.000512408
0.000522074
0.000532406
0.000543608
0.000555932
0.000569674
0.000585163
0.000602725
0.000618496
0.000639047
0.000666968
0.000698314
0.000728333
0.000760452
0.000794357
0.000829682
0.000866036
0.000903018
0.000940241
0.000977339
0.00101398
0.00104987
0.00108477
0.00111848
0.00115083
0.00118171
0.00121104
5.57608e-10
5.87701e-08
5.21219e-07
2.14832e-06
5.08976e-06
8.81765e-06
1.29804e-05
1.73887e-05
2.19327e-05
2.65421e-05
3.11686e-05
3.57775e-05
4.03426e-05
4.4844e-05
4.92652e-05
5.35912e-05
5.78059e-05
6.18889e-05
6.5812e-05
6.95339e-05
7.29945e-05
7.61073e-05
7.87515e-05
8.07639e-05
8.19211e-05
8.20749e-05
8.12037e-05
7.98887e-05
7.86118e-05
7.73382e-05
7.61161e-05
7.51319e-05
7.46728e-05
7.50399e-05
7.65068e-05
7.92836e-05
8.35048e-05
8.92401e-05
9.65685e-05
0.000105088
0.000114327
0.000123898
0.00013355
0.000143084
0.000152352
0.000161233
0.000169647
0.000177567
0.000184979
0.0001919
0.000198372
0.000204442
0.000210174
0.000215634
0.000220899
0.000226043
0.000231145
0.000236277
0.000241511
0.000246909
0.000252525
0.000258403
0.000264576
0.000271065
0.000277879
0.000285016
0.000292461
0.000300188
0.00030817
0.000316376
0.00032477
0.00033332
0.000341994
0.000350758
0.000359385
0.00036768
0.000375674
0.000383423
0.000390996
0.000398464
0.000405902
0.000413394
0.000421044
0.00042897
0.000437305
0.000446244
0.000455908
0.000466315
0.000477502
0.000489521
0.000502599
0.000517009
0.000533067
0.000551119
0.000571497
0.000594471
0.000617173
0.000643174
0.000676919
0.000714121
0.00074976
0.000786961
0.000825272
0.000864239
0.00090343
0.000942443
0.000980919
0.00101855
0.00105506
0.00109025
0.00112395
0.00115604
0.00118644
0.00121509
0.00124198
6.23832e-10
6.60483e-08
5.76157e-07
2.30444e-06
5.36166e-06
9.21027e-06
1.34925e-05
1.80129e-05
2.26565e-05
2.7349e-05
3.20395e-05
3.66923e-05
4.12825e-05
4.57931e-05
5.02135e-05
5.45374e-05
5.87617e-05
6.28841e-05
6.69011e-05
7.08052e-05
7.45811e-05
7.82011e-05
8.16202e-05
8.47683e-05
8.75433e-05
8.98037e-05
9.13476e-05
9.19819e-05
9.15846e-05
9.04102e-05
8.91716e-05
8.78901e-05
8.65839e-05
8.53322e-05
8.43806e-05
8.40335e-05
8.46007e-05
8.63557e-05
8.95096e-05
9.41988e-05
0.000100519
0.000108344
0.000117271
0.000126842
0.000136722
0.000146648
0.000156417
0.000165886
0.000174954
0.000183567
0.000191717
0.000199391
0.000206601
0.000213377
0.000219756
0.000225782
0.000231508
0.000236987
0.000242279
0.000247438
0.000252522
0.00025758
0.00026266
0.000267802
0.000273037
0.000278393
0.000283887
0.000289528
0.000295324
0.000301277
0.000307386
0.000313651
0.000320079
0.000326675
0.000333292
0.000339802
0.000346231
0.000352634
0.000359073
0.000365612
0.000372317
0.000379259
0.000386519
0.000394182
0.000402344
0.000411116
0.000420613
0.000430964
0.000442335
0.000454969
0.000469045
0.000484817
0.000502597
0.000522731
0.000545541
0.000571262
0.000600004
0.000626549
0.000658764
0.000699088
0.000742551
0.000782619
0.000823445
0.000864529
0.000905418
0.000945713
0.000985071
0.00102321
0.0010599
0.00109496
0.00112827
0.00115975
0.00118934
0.00121702
0.0012428
7.03783e-10
7.47914e-08
6.40467e-07
2.48306e-06
5.68295e-06
9.68035e-06
1.41082e-05
1.87639e-05
2.35268e-05
2.83181e-05
3.30841e-05
3.77876e-05
4.24038e-05
4.69176e-05
5.13215e-05
5.56143e-05
5.98001e-05
6.38859e-05
6.78808e-05
7.1794e-05
7.56324e-05
7.9398e-05
8.30849e-05
8.66749e-05
9.01329e-05
9.34004e-05
9.63883e-05
9.89702e-05
0.000100967
0.000102134
0.000102369
0.000101643
0.000100499
9.93108e-05
9.80605e-05
9.67434e-05
9.55102e-05
9.46417e-05
9.44535e-05
9.52609e-05
9.73303e-05
0.000100857
0.000105953
0.000112729
0.000120896
0.000130048
0.000139771
0.000149753
0.000159752
0.000169594
0.000179155
0.000188351
0.00019713
0.000205477
0.000213384
0.000220853
0.000227901
0.000234556
0.000240849
0.000246817
0.000252497
0.000257932
0.000263162
0.000268227
0.000273162
0.000278002
0.000282776
0.00028751
0.00029223
0.000296957
0.000301713
0.000306517
0.000311396
0.000316381
0.000321391
0.000326349
0.000331308
0.000336335
0.0003415
0.000346872
0.000352526
0.000358536
0.000364983
0.00037195
0.000379531
0.000387825
0.000396949
0.000407038
0.000418267
0.000430856
0.000445081
0.000461281
0.000479848
0.000501193
0.00052568
0.000553547
0.000584821
0.000616054
0.000647794
0.000687238
0.000734073
0.00078107
0.000823814
0.000866412
0.000908408
0.000949417
0.000989123
0.00102728
0.00106368
0.00109821
0.00113076
0.00116129
0.00118977
0.00121622
0.00124068
7.99598e-10
8.52147e-08
7.13444e-07
2.69017e-06
6.05586e-06
1.02232e-05
1.48147e-05
1.96206e-05
2.45138e-05
2.94114e-05
3.42568e-05
3.90116e-05
4.36512e-05
4.8162e-05
5.25395e-05
5.67866e-05
6.09122e-05
6.49296e-05
6.88554e-05
7.27079e-05
7.65056e-05
8.02653e-05
8.40001e-05
8.77171e-05
9.14149e-05
9.50794e-05
9.86802e-05
0.000102165
0.000105452
0.000108425
0.000110926
0.00011272
0.000113625
0.000113536
0.000112652
0.00011163
0.000110506
0.000109287
0.000107988
0.000106832
0.000106115
0.000106154
0.000107252
0.000109653
0.000113531
0.000118987
0.000125992
0.000134254
0.000143397
0.000153061
0.000162967
0.000172899
0.000182702
0.000192265
0.000201508
0.000210378
0.000218844
0.000226908
0.000234562
0.000241812
0.000248671
0.000255163
0.000261312
0.000267141
0.000272679
0.000277953
0.000282987
0.000287811
0.000292449
0.00029693
0.000301278
0.000305523
0.000309695
0.000313834
0.00031789
0.00032183
0.000325728
0.000329668
0.000333736
0.000338018
0.000342602
0.000347576
0.000353035
0.000359077
0.000365806
0.000373336
0.000381798
0.000391347
0.000402179
0.000414549
0.000428782
0.000445278
0.000464491
0.000486876
0.000512801
0.000542454
0.000575768
0.000610414
0.000642767
0.000681803
0.000733096
0.00078187
0.000825814
0.000869239
0.000911699
0.000952831
0.000992349
0.00103004
0.00106573
0.00109934
0.0011308
0.00116009
0.00118721
0.00121222
0.00123515
0.00125609
9.10745e-10
9.73141e-08
7.95077e-07
2.92099e-06
6.46953e-06
1.08218e-05
1.55895e-05
2.05542e-05
2.5583e-05
3.05882e-05
3.55112e-05
4.03126e-05
4.49683e-05
4.94671e-05
5.38079e-05
5.79975e-05
6.20496e-05
6.59826e-05
6.98188e-05
7.35827e-05
7.72999e-05
8.09953e-05
8.46917e-05
8.84089e-05
9.21611e-05
9.59557e-05
9.97908e-05
0.000103652
0.000107509
0.000111312
0.000114983
0.000118412
0.000121453
0.0001239
0.000125467
0.0001261
0.000125756
0.00012492
0.000123982
0.000122957
0.000121786
0.000120575
0.00011958
0.000119094
0.000119427
0.000120847
0.000123563
0.000127699
0.000133325
0.000140341
0.000148479
0.000157423
0.000166861
0.000176545
0.000186278
0.000195921
0.000205369
0.000214545
0.000223394
0.00023188
0.000239983
0.000247707
0.000255044
0.000261997
0.000268574
0.00027479
0.000280659
0.000286195
0.000291417
0.000296344
0.000300994
0.000305394
0.000309571
0.000313559
0.000317312
0.000320817
0.000324164
0.000327454
0.000330787
0.000334265
0.000337995
0.000342081
0.000346635
0.000351777
0.00035763
0.000364332
0.000372038
0.000380933
0.000391252
0.000403296
0.000417449
0.000434172
0.000453974
0.000477338
0.000504618
0.000535933
0.00057111
0.00060964
0.000648414
0.000685816
0.000728743
0.000777776
0.000828497
0.000872079
0.000914396
0.000955109
0.00099396
0.00103076
0.00106539
0.00109776
0.00112785
0.00115567
0.00118125
0.00120464
0.00122592
0.00124517
1.03796e-09
1.11022e-07
8.85856e-07
3.17008e-06
6.90972e-06
1.1457e-05
1.64087e-05
2.15367e-05
2.67011e-05
3.18104e-05
3.68048e-05
4.16441e-05
4.63047e-05
5.07792e-05
5.50707e-05
5.9191e-05
6.31586e-05
6.69963e-05
7.07316e-05
7.43945e-05
7.80158e-05
8.16257e-05
8.5253e-05
8.89236e-05
9.266e-05
9.64796e-05
0.000100394
0.000104406
0.00010851
0.000112689
0.00011691
0.000121121
0.000125248
0.000129183
0.000132785
0.000135875
0.00013818
0.000139515
0.000139847
0.000139337
0.000138631
0.00013782
0.000136912
0.000135855
0.000134836
0.000134108
0.000133952
0.000134637
0.000136383
0.000139356
0.000143631
0.000149241
0.000156072
0.000163901
0.000172479
0.000181532
0.000190843
0.000200237
0.000209579
0.00021877
0.000227737
0.000236419
0.000244777
0.000252781
0.000260414
0.000267671
0.000274545
0.000281033
0.000287133
0.000292851
0.000298199
0.000303188
0.000307834
0.000312155
0.000316095
0.000319639
0.000322885
0.000325946
0.000328935
0.000331966
0.000335158
0.000338638
0.000342528
0.000346967
0.000352102
0.000358097
0.000365142
0.000373454
0.000383317
0.000395088
0.000409214
0.00042622
0.000446662
0.000471029
0.000499628
0.000532475
0.000569255
0.000609289
0.000651722
0.000692264
0.000734688
0.000781016
0.000830162
0.000873917
0.000915605
0.000955455
0.000993246
0.00102883
0.0010621
0.00109301
0.00112154
0.00114772
0.00117161
0.00119328
0.00121282
0.00123034
1.1815e-09
1.26317e-07
9.83951e-07
3.43762e-06
7.37831e-06
1.2128e-05
1.72681e-05
2.25597e-05
2.78552e-05
3.30592e-05
3.81097e-05
4.29692e-05
4.76183e-05
5.20528e-05
5.62805e-05
6.03185e-05
6.41924e-05
6.79251e-05
7.15509e-05
7.51056e-05
7.86247e-05
8.21419e-05
8.56898e-05
8.92989e-05
9.29959e-05
9.68029e-05
0.000100738
0.000104812
0.00010903
0.000113392
0.000117884
0.000122485
0.000127158
0.000131851
0.000136487
0.000140965
0.000145148
0.000148869
0.000151905
0.000153928
0.000154971
0.000155033
0.000154568
0.000154004
0.000153412
0.000152689
0.000151873
0.00015118
0.000150838
0.000151096
0.000152174
0.000154235
0.000157404
0.000161719
0.000167168
0.000173666
0.000181038
0.000189092
0.000197609
0.000206395
0.000215292
0.000224173
0.000232941
0.00024152
0.000249851
0.000257882
0.000265577
0.000272906
0.000279847
0.000286385
0.000292517
0.000298233
0.000303531
0.000308414
0.000312806
0.000316675
0.000320122
0.000323263
0.000326219
0.000329113
0.000332071
0.000335232
0.000338738
0.000342741
0.000347401
0.000352909
0.000359487
0.0003674
0.000376979
0.000388643
0.000402903
0.000420344
0.000441548
0.000466984
0.000496877
0.000531114
0.000569205
0.000610319
0.000653568
0.000698116
0.000743144
0.0007879
0.00083174
0.000874173
0.000914836
0.000953465
0.000989873
0.00102394
0.00105561
0.00108485
0.00111168
0.00113611
0.00115822
0.00117811
0.00119588
0.00121163
1.34148e-09
1.43175e-07
1.0885e-06
3.71959e-06
7.86804e-06
1.28243e-05
1.81531e-05
2.36042e-05
2.90232e-05
3.43115e-05
3.94068e-05
4.42735e-05
4.8896e-05
5.32746e-05
5.7422e-05
6.13605e-05
6.51195e-05
6.87334e-05
7.22404e-05
7.56806e-05
7.90956e-05
8.25173e-05
8.59825e-05
8.95259e-05
9.31767e-05
9.69594e-05
0.000100895
0.000104998
0.00010928
0.000113745
0.000118391
0.00012321
0.000128184
0.000133286
0.000138477
0.0001437
0.000148881
0.000153921
0.00015869
0.000163024
0.00016674
0.000169542
0.000171267
0.000172016
0.000171936
0.000171665
0.000171352
0.00017106
0.000170647
0.000170227
0.000169997
0.00017015
0.000170891
0.000172389
0.000174754
0.000178072
0.000182356
0.000187564
0.000193632
0.000200434
0.000207819
0.00021565
0.000223749
0.000231971
0.000240196
0.000248325
0.00025628
0.000263996
0.000271418
0.000278499
0.000285201
0.000291493
0.000297354
0.000302767
0.000307633
0.000311895
0.000315646
0.000319011
0.000322108
0.000325061
0.000328003
0.000331073
0.000334426
0.000338224
0.000342649
0.000347908
0.000354253
0.000361991
0.000371508
0.000383283
0.000397891
0.000415956
0.000438063
0.000464623
0.000495749
0.000531181
0.000570224
0.000611958
0.000655499
0.000699966
0.00074455
0.00078855
0.000831391
0.000872621
0.000911907
0.000949012
0.000983778
0.00101611
0.00104598
0.00107338
0.00109835
0.00112095
0.00114123
0.00115929
0.00117525
0.00118922
1.5175e-09
1.61464e-07
1.19821e-06
4.01221e-06
8.37199e-06
1.35352e-05
1.90491e-05
2.46518e-05
3.01827e-05
3.55406e-05
4.06644e-05
4.55212e-05
5.01002e-05
5.44071e-05
5.84606e-05
6.2289e-05
6.59275e-05
6.94161e-05
7.27974e-05
7.61149e-05
7.94118e-05
8.27293e-05
8.61073e-05
8.95833e-05
9.31881e-05
9.69421e-05
0.000100871
0.000104992
0.000109317
0.000113854
0.000118606
0.000123569
0.000128736
0.000134091
0.000139612
0.000145267
0.000151015
0.000156797
0.000162539
0.000168145
0.000173495
0.000178434
0.000182793
0.000186362
0.000188788
0.000190239
0.000190802
0.000190839
0.000190846
0.00019093
0.000191047
0.000191089
0.000191203
0.000191549
0.000192273
0.000193532
0.000195448
0.000198087
0.000201495
0.000205676
0.000210588
0.000216146
0.000222281
0.000228879
0.000235819
0.000243005
0.000250294
0.000257572
0.000264741
0.000271722