/*--------------------------------*- C++ -*----------------------------------*\
  =========                 |
  \\      /  F ield         | OpenFOAM: The Open Source CFD Toolbox
   \\    /   O peration     | Website:  https://openfoam.org
    \\  /    A nd           | Version:  10
     \\/     M anipulation  |
\*---------------------------------------------------------------------------*/
FoamFile
{
    format      ascii;
    class       surfaceScalarField;
    location    "59000";
    object      phi;
}
// * * * * * * * * * * * * * * * * * * * * * * * * * * * * * * * * * * * * * //

dimensions      [0 3 -1 0 0 0 0];

internalField   nonuniform List<scalar> 
35536
(
-3.70912e-09
-3.54793e-07
-1.27453e-08
-2.67831e-07
8.6807e-09
-2.54248e-07
5.93712e-08
-2.30638e-07
1.46983e-07
-1.99436e-07
2.89116e-07
-1.5681e-07
5.11081e-07
-9.61768e-08
8.34279e-07
-7.38826e-09
1.26619e-06
1.19301e-07
1.79468e-06
2.88677e-07
2.3895e-06
5.00116e-07
3.01134e-06
7.45402e-07
3.62031e-06
1.01058e-06
4.18496e-06
1.2801e-06
4.68585e-06
1.54066e-06
5.11507e-06
1.78145e-06
5.47429e-06
1.99761e-06
5.77076e-06
2.18857e-06
6.01485e-06
2.35527e-06
6.2169e-06
2.50169e-06
6.38636e-06
2.6318e-06
6.53164e-06
2.74889e-06
6.65942e-06
2.85636e-06
6.77473e-06
2.95693e-06
6.88131e-06
3.05264e-06
6.98186e-06
3.14498e-06
7.07822e-06
3.23501e-06
7.1716e-06
3.32343e-06
7.26279e-06
3.4107e-06
7.35231e-06
3.49701e-06
7.44048e-06
3.58246e-06
7.52755e-06
3.66701e-06
7.61367e-06
3.75058e-06
7.69898e-06
3.83304e-06
7.78358e-06
3.91425e-06
7.86755e-06
3.99403e-06
7.95094e-06
4.07218e-06
8.03378e-06
4.14849e-06
8.11609e-06
4.22275e-06
8.19786e-06
4.2947e-06
8.27907e-06
4.36407e-06
8.35968e-06
4.43059e-06
8.43962e-06
4.49395e-06
8.51882e-06
4.55381e-06
8.59718e-06
4.60983e-06
8.67461e-06
4.66161e-06
8.75098e-06
4.70873e-06
8.82614e-06
4.75076e-06
8.89996e-06
4.78722e-06
8.97225e-06
4.81757e-06
9.04284e-06
4.84128e-06
9.11152e-06
4.85774e-06
9.1781e-06
4.8663e-06
9.24232e-06
4.86628e-06
9.30395e-06
4.85694e-06
9.36271e-06
4.83748e-06
9.41832e-06
4.80705e-06
9.47045e-06
4.76473e-06
9.51878e-06
4.70954e-06
9.56295e-06
4.64044e-06
9.60256e-06
4.55628e-06
9.63722e-06
4.45585e-06
9.66648e-06
4.33786e-06
9.68988e-06
4.2009e-06
9.70692e-06
4.04348e-06
9.71708e-06
3.86398e-06
9.71983e-06
3.66068e-06
9.71458e-06
3.43173e-06
9.70074e-06
3.17513e-06
9.67769e-06
2.88875e-06
9.6448e-06
2.57033e-06
9.60141e-06
2.21742e-06
9.54685e-06
1.82745e-06
9.48041e-06
1.3977e-06
9.40373e-06
9.06456e-07
9.31956e-06
4.0872e-07
9.22872e-06
-5.00509e-08
9.13188e-06
-4.71934e-07
9.02969e-06
-8.59175e-07
8.92282e-06
-1.21485e-06
8.81191e-06
-1.54171e-06
8.69752e-06
-1.84138e-06
8.58012e-06
-2.11526e-06
8.46004e-06
-2.36476e-06
8.33751e-06
-2.59126e-06
8.21275e-06
-2.79613e-06
8.0863e-06
-2.98065e-06
7.95938e-06
-3.14579e-06
7.83374e-06
-3.29191e-06
7.71053e-06
-3.41879e-06
7.5892e-06
-3.52641e-06
7.46803e-06
-3.61612e-06
7.34607e-06
-3.69064e-06
7.22327e-06
-3.75209e-06
7.09969e-06
-3.80172e-06
6.97543e-06
-3.84063e-06
6.85057e-06
-3.86985e-06
6.72521e-06
-3.89033e-06
6.59944e-06
-3.90296e-06
-3.9086e-06
-5.01644e-09
-3.49776e-07
-2.31156e-08
-2.49732e-07
-2.12129e-08
-2.5615e-07
-1.69005e-09
-2.50158e-07
3.69355e-08
-2.3806e-07
9.98592e-08
-2.19734e-07
1.9565e-07
-1.91968e-07
3.38739e-07
-1.50478e-07
5.49379e-07
-9.13393e-08
8.46861e-07
-8.80463e-09
1.24223e-06
1.04743e-07
1.73288e-06
2.54761e-07
2.30028e-06
4.43175e-07
2.91367e-06
6.66713e-07
3.53874e-06
9.15592e-07
4.14314e-06
1.17705e-06
4.70249e-06
1.43826e-06
5.20206e-06
1.68901e-06
5.63599e-06
1.92134e-06
6.00596e-06
2.13172e-06
6.31788e-06
2.31988e-06
6.58014e-06
2.48663e-06
6.80127e-06
2.63524e-06
6.98935e-06
2.76886e-06
7.1519e-06
2.89009e-06
7.29505e-06
3.00183e-06
7.42362e-06
3.10643e-06
7.54138e-06
3.20568e-06
7.6512e-06
3.30088e-06
7.75521e-06
3.393e-06
7.85494e-06
3.48273e-06
7.95145e-06
3.57049e-06
8.04552e-06
3.65651e-06
8.13772e-06
3.74084e-06
8.22849e-06
3.82349e-06
8.31812e-06
3.9044e-06
8.40685e-06
3.98344e-06
8.49487e-06
4.06048e-06
8.5823e-06
4.13531e-06
8.66924e-06
4.20776e-06
8.75572e-06
4.2776e-06
8.84173e-06
4.34457e-06
8.92726e-06
4.40842e-06
9.01223e-06
4.46884e-06
9.09656e-06
4.5255e-06
9.18013e-06
4.57804e-06
9.2628e-06
4.62606e-06
9.34442e-06
4.66914e-06
9.42481e-06
4.70682e-06
9.50379e-06
4.73859e-06
9.58115e-06
4.76392e-06
9.65667e-06
4.78222e-06
9.7301e-06
4.79287e-06
9.80119e-06
4.79519e-06
9.86965e-06
4.78847e-06
9.9352e-06
4.77193e-06
9.99751e-06
4.74474e-06
1.00562e-05
4.70601e-06
1.0111e-05
4.65478e-06
1.01614e-05
4.59003e-06
1.0207e-05
4.51065e-06
1.02474e-05
4.41546e-06
1.02821e-05
4.30319e-06
1.03105e-05
4.17248e-06
1.03321e-05
4.02186e-06
1.03464e-05
3.84975e-06
1.03526e-05
3.65446e-06
1.03501e-05
3.43417e-06
1.03384e-05
3.18691e-06
1.03165e-05
2.91059e-06
1.02839e-05
2.60295e-06
1.02397e-05
2.26159e-06
1.01832e-05
1.88396e-06
1.01136e-05
1.46734e-06
1.00325e-05
9.87553e-07
9.94286e-06
4.98342e-07
9.84565e-06
4.71584e-08
9.74158e-06
-3.6787e-07
9.63135e-06
-7.48941e-07
9.51567e-06
-1.09917e-06
9.3952e-06
-1.42125e-06
9.27055e-06
-1.71672e-06
9.14227e-06
-1.98698e-06
9.01086e-06
-2.23335e-06
8.87669e-06
-2.45709e-06
8.74001e-06
-2.65945e-06
8.60103e-06
-2.84167e-06
8.46017e-06
-3.00493e-06
8.31842e-06
-3.15016e-06
8.17745e-06
-3.27782e-06
8.03874e-06
-3.3877e-06
7.90214e-06
-3.47952e-06
7.76594e-06
-3.55443e-06
7.62905e-06
-3.6152e-06
7.49138e-06
-3.66405e-06
7.35309e-06
-3.70234e-06
7.21433e-06
-3.73109e-06
7.07523e-06
-3.75123e-06
6.93592e-06
-3.76366e-06
-3.76923e-06
-8.22867e-09
-3.41551e-07
-3.24378e-08
-2.25525e-07
-4.76811e-08
-2.40906e-07
-5.2622e-08
-2.4521e-07
-4.64444e-08
-2.44237e-07
-2.64657e-08
-2.39714e-07
1.19291e-08
-2.30364e-07
7.50179e-08
-2.13567e-07
1.70073e-07
-1.86393e-07
3.07532e-07
-1.46263e-07
5.02748e-07
-9.04722e-08
7.72917e-07
-1.54075e-08
1.13169e-06
8.44022e-08
1.58303e-06
2.15374e-07
2.11788e-06
3.80738e-07
2.71481e-06
5.80122e-07
3.34524e-06
8.07831e-07
3.9795e-06
1.05474e-06
4.59064e-06
1.31021e-06
5.15835e-06
1.56401e-06
5.66992e-06
1.80832e-06
6.11969e-06
2.03686e-06
6.50854e-06
2.24638e-06
6.84113e-06
2.43627e-06
7.12434e-06
2.60689e-06
7.36546e-06
2.76071e-06
7.57171e-06
2.90018e-06
7.75004e-06
3.02735e-06
7.90627e-06
3.14464e-06
8.04531e-06
3.25396e-06
8.17125e-06
3.35679e-06
8.28743e-06
3.45432e-06
8.39645e-06
3.54749e-06
8.5003e-06
3.63699e-06
8.60041e-06
3.72338e-06
8.69782e-06
3.80698e-06
8.79334e-06
3.88793e-06
8.88754e-06
3.96628e-06
8.98082e-06
4.04203e-06
9.07347e-06
4.11511e-06
9.16565e-06
4.18541e-06
9.25747e-06
4.25276e-06
9.34894e-06
4.31696e-06
9.44002e-06
4.37776e-06
9.53065e-06
4.43488e-06
9.62069e-06
4.488e-06
9.71e-06
4.53675e-06
9.79842e-06
4.58073e-06
9.88573e-06
4.61951e-06
9.97173e-06
4.65259e-06
1.00562e-05
4.67946e-06
1.01389e-05
4.69954e-06
1.02195e-05
4.71225e-06
1.02978e-05
4.7169e-06
1.03734e-05
4.71282e-06
1.04461e-05
4.69923e-06
1.05155e-05
4.67535e-06
1.05812e-05
4.64029e-06
1.06429e-05
4.59314e-06
1.07e-05
4.53289e-06
1.07522e-05
4.45848e-06
1.07989e-05
4.36876e-06
1.08396e-05
4.2625e-06
1.08737e-05
4.13836e-06
1.09006e-05
3.99493e-06
1.09197e-05
3.83066e-06
1.09303e-05
3.64391e-06
1.09315e-05
3.43289e-06
1.09228e-05
3.19568e-06
1.09032e-05
2.93021e-06
1.08718e-05
2.63427e-06
1.08279e-05
2.30549e-06
1.07706e-05
1.94132e-06
1.06988e-05
1.5391e-06
1.06143e-05
1.07204e-06
1.05202e-05
5.92452e-07
1.04175e-05
1.4983e-07
1.03072e-05
-2.57492e-07
1.01897e-05
-6.31516e-07
1.0066e-05
-9.75431e-07
9.93665e-06
-1.29189e-06
9.80233e-06
-1.58241e-06
9.66366e-06
-1.84831e-06
9.52121e-06
-2.09089e-06
9.37547e-06
-2.31136e-06
9.22687e-06
-2.51085e-06
9.0757e-06
-2.6905e-06
8.92219e-06
-2.85141e-06
8.76667e-06
-2.99465e-06
8.60996e-06
-3.1211e-06
8.45348e-06
-3.23123e-06
8.29889e-06
-3.32492e-06
8.14633e-06
-3.40188e-06
7.99432e-06
-3.46318e-06
7.84182e-06
-3.51155e-06
7.68884e-06
-3.54937e-06
7.5356e-06
-3.57785e-06
7.38227e-06
-3.59789e-06
7.22898e-06
-3.61038e-06
-3.61614e-06
-1.04907e-08
-3.31061e-07
-3.59297e-08
-2.00086e-07
-5.85364e-08
-2.18298e-07
-7.49754e-08
-2.28766e-07
-8.51961e-08
-2.34016e-07
-8.81561e-08
-2.36753e-07
-8.14978e-08
-2.37021e-07
-6.13409e-08
-2.33723e-07
-2.27029e-08
-2.25031e-07
3.99129e-08
-2.08879e-07
1.32676e-07
-1.83236e-07
2.63396e-07
-1.46127e-07
4.43375e-07
-9.55766e-08
6.87546e-07
-2.87963e-08
1.0102e-06
5.80874e-08
1.41989e-06
1.70431e-07
1.91534e-06
3.12381e-07
2.48422e-06
4.85856e-07
3.10526e-06
6.89161e-07
3.75269e-06
9.16581e-07
4.40048e-06
1.16053e-06
5.02478e-06
1.41256e-06
5.60699e-06
1.66417e-06
6.13465e-06
1.9086e-06
6.60157e-06
2.13997e-06
7.00787e-06
2.35441e-06
7.35762e-06
2.55043e-06
7.65695e-06
2.72802e-06
7.91242e-06
2.88917e-06
8.13092e-06
3.03547e-06
8.31914e-06
3.16857e-06
8.48309e-06
3.29036e-06
8.62813e-06
3.40245e-06
8.75883e-06
3.50629e-06
8.879e-06
3.60321e-06
8.99173e-06
3.69425e-06
9.09934e-06
3.78031e-06
9.2035e-06
3.86211e-06
9.30542e-06
3.94012e-06
9.40589e-06
4.01464e-06
9.50547e-06
4.08583e-06
9.60448e-06
4.15375e-06
9.70308e-06
4.21836e-06
9.80132e-06
4.27951e-06
9.89917e-06
4.33702e-06
9.99654e-06
4.39063e-06
1.00933e-05
4.44002e-06
1.01892e-05
4.48483e-06
1.02841e-05
4.52463e-06
1.03777e-05
4.55897e-06
1.04698e-05
4.58734e-06
1.05601e-05
4.6092e-06
1.06484e-05
4.62394e-06
1.07344e-05
4.63094e-06
1.08177e-05
4.62952e-06
1.0898e-05
4.61893e-06
1.09749e-05
4.59841e-06
1.10481e-05
4.5671e-06
1.11171e-05
4.52412e-06
1.11815e-05
4.4685e-06
1.12408e-05
4.39921e-06
1.12944e-05
4.31515e-06
1.13418e-05
4.21511e-06
1.13823e-05
4.09783e-06
1.14153e-05
3.96192e-06
1.14401e-05
3.8059e-06
1.14559e-05
3.62815e-06
1.14618e-05
3.42696e-06
1.1457e-05
3.20045e-06
1.14406e-05
2.9466e-06
1.14116e-05
2.66324e-06
1.13691e-05
2.34804e-06
1.13119e-05
1.99849e-06
1.12391e-05
1.61195e-06
1.11522e-05
1.15893e-06
1.10545e-05
6.90154e-07
1.09472e-05
2.57128e-07
1.08313e-05
-1.41605e-07
1.07075e-05
-5.07698e-07
1.05764e-05
-8.44356e-07
1.04388e-05
-1.15428e-06
1.02953e-05
-1.43896e-06
1.01467e-05
-1.69968e-06
9.9935e-06
-1.93768e-06
9.83628e-06
-2.15414e-06
9.67558e-06
-2.35015e-06
9.51186e-06
-2.52678e-06
9.34548e-06
-2.68503e-06
9.17672e-06
-2.82589e-06
9.00592e-06
-2.9503e-06
8.83377e-06
-3.05907e-06
8.66153e-06
-3.15268e-06
8.49077e-06
-3.23113e-06
8.32183e-06
-3.29424e-06
8.15349e-06
-3.34322e-06
7.9851e-06
-3.38098e-06
7.8168e-06
-3.40954e-06
7.64875e-06
-3.42984e-06
7.48108e-06
-3.44271e-06
7.31391e-06
-3.44897e-06
7.14737e-06
-3.44946e-06
6.98161e-06
-3.44498e-06
6.8168e-06
-3.43627e-06
-3.42405e-06
-7.80704e-09
-3.23255e-07
-2.66326e-08
-1.81253e-07
-4.43975e-08
-2.00533e-07
-5.84938e-08
-2.14675e-07
-6.9187e-08
-2.23326e-07
-7.63552e-08
-2.29584e-07
-7.92218e-08
-2.34153e-07
-7.60622e-08
-2.36882e-07
-6.4014e-08
-2.3708e-07
-3.92812e-08
-2.33612e-07
2.55785e-09
-2.25076e-07
6.63312e-08
-2.099e-07
1.57208e-07
-1.86453e-07
2.81475e-07
-1.53063e-07
4.47689e-07
-1.08127e-07
6.67587e-07
-4.9467e-08
9.54299e-07
2.56677e-08
1.31899e-06
1.21166e-07
1.76641e-06
2.41743e-07
2.29221e-06
3.90778e-07
2.88326e-06
5.69484e-07
3.52008e-06
7.75739e-07
4.17911e-06
1.00514e-06
4.83621e-06
1.2515e-06
5.46878e-06
1.5074e-06
6.05859e-06
1.7646e-06
6.59328e-06
2.01574e-06
7.06703e-06
2.25427e-06
7.48055e-06
2.47565e-06
7.83808e-06
2.67794e-06
8.1451e-06
2.86155e-06
8.40787e-06
3.02759e-06
8.63332e-06
3.177e-06
8.82805e-06
3.31156e-06
8.9983e-06
3.43296e-06
9.14966e-06
3.54289e-06
9.287e-06
3.64297e-06
9.41432e-06
3.73479e-06
9.5347e-06
3.81974e-06
9.65041e-06
3.89893e-06
9.76304e-06
3.9732e-06
9.87365e-06
4.04314e-06
9.98291e-06
4.1091e-06
1.00912e-05
4.17124e-06
1.01986e-05
4.22956e-06
1.03053e-05
4.28395e-06
1.04112e-05
4.33418e-06
1.0516e-05
4.37997e-06
1.06197e-05
4.42094e-06
1.0722e-05
4.45665e-06
1.08227e-05
4.48663e-06
1.09216e-05
4.51035e-06
1.10183e-05
4.52723e-06
1.11126e-05
4.53666e-06
1.12041e-05
4.53797e-06
1.12926e-05
4.53046e-06
1.13777e-05
4.51337e-06
1.14589e-05
4.4859e-06
1.15358e-05
4.44718e-06
1.1608e-05
4.39629e-06
1.1675e-05
4.33224e-06
1.17362e-05
4.25398e-06
1.17909e-05
4.16036e-06
1.18386e-05
4.05016e-06
1.18785e-05
3.92205e-06
1.19097e-05
3.77461e-06
1.19316e-05
3.6063e-06
1.19431e-05
3.41544e-06
1.19433e-05
3.20024e-06
1.19312e-05
2.95873e-06
1.19056e-05
2.68881e-06
1.18655e-05
2.38819e-06
1.18096e-05
2.05441e-06
1.17367e-05
1.68486e-06
1.16483e-05
1.24729e-06
1.15478e-05
7.90633e-07
1.14366e-05
3.6834e-07
1.13159e-05
-2.08889e-08
1.11865e-05
-3.78258e-07
1.10487e-05
-7.06645e-07
1.09034e-05
-1.00897e-06
1.07513e-05
-1.28679e-06
1.0593e-05
-1.54138e-06
1.04292e-05
-1.77391e-06
1.02606e-05
-1.98551e-06
1.00877e-05
-2.17727e-06
9.91109e-06
-2.35019e-06
9.7313e-06
-2.50524e-06
9.54875e-06
-2.64334e-06
9.36383e-06
-2.76538e-06
9.17695e-06
-2.8722e-06
8.98878e-06
-2.96451e-06
8.80049e-06
-3.04283e-06
8.6135e-06
-3.10725e-06
8.42814e-06
-3.15786e-06
8.24365e-06
-3.19648e-06
8.05977e-06
-3.22566e-06
7.87658e-06
-3.24666e-06
7.69413e-06
-3.26026e-06
7.51247e-06
-3.26731e-06
7.33169e-06
-3.26868e-06
7.15192e-06
-3.26521e-06
6.97335e-06
-3.25771e-06
-3.24692e-06
-4.47484e-09
-3.18785e-07
-1.5003e-08
-1.70714e-07
-2.41704e-08
-1.91363e-07
-3.15791e-08
-2.07277e-07
-3.73127e-08
-2.17594e-07
-4.12899e-08
-2.25605e-07
-4.32042e-08
-2.32238e-07
-4.24008e-08
-2.37687e-07
-3.76487e-08
-2.41834e-07
-2.69406e-08
-2.44322e-07
-7.58664e-09
-2.44429e-07
2.37556e-08
-2.41241e-07
7.09568e-08
-2.33653e-07
1.38216e-07
-2.20322e-07
2.29826e-07
-1.99738e-07
3.50685e-07
-1.70327e-07
5.06921e-07
-1.30569e-07
7.06942e-07
-7.88546e-08
9.61638e-07
-1.29532e-08
1.28239e-06
7.00242e-08
1.6775e-06
1.74372e-07
2.14931e-06
3.03928e-07
2.69258e-06
4.61868e-07
3.29473e-06
6.49351e-07
3.93755e-06
8.64576e-07
4.59852e-06
1.10363e-06
5.25409e-06
1.36017e-06
5.88242e-06
1.62594e-06
6.46645e-06
1.89162e-06
6.99554e-06
2.14885e-06
7.46617e-06
2.39093e-06
7.87994e-06
2.61382e-06
8.24084e-06
2.8161e-06
8.55369e-06
2.99871e-06
8.82451e-06
3.16215e-06
9.05986e-06
3.30753e-06
9.26604e-06
3.4368e-06
9.44889e-06
3.55194e-06
9.61372e-06
3.65491e-06
9.76503e-06
3.74762e-06
9.90648e-06
3.83175e-06
1.00409e-05
3.90877e-06
1.01702e-05
3.97979e-06
1.02958e-05
4.0456e-06
1.04186e-05
4.10671e-06
1.05393e-05
4.16334e-06
1.06579e-05
4.21553e-06
1.07747e-05
4.26315e-06
1.08897e-05
4.30596e-06
1.10028e-05
4.34359e-06
1.11138e-05
4.37563e-06
1.12225e-05
4.40158e-06
1.13289e-05
4.4209e-06
1.14325e-05
4.43301e-06
1.15332e-05
4.43727e-06
1.16307e-05
4.43301e-06
1.17245e-05
4.4195e-06
1.18145e-05
4.39598e-06
1.19e-05
4.36164e-06
1.19807e-05
4.31559e-06
1.2056e-05
4.2569e-06
1.21255e-05
4.18457e-06
1.21883e-05
4.09751e-06
1.22439e-05
3.99458e-06
1.22914e-05
3.8745e-06
1.23301e-05
3.73594e-06
1.2359e-05
3.57742e-06
1.23771e-05
3.39736e-06
1.23833e-05
3.19402e-06
1.23765e-05
2.96555e-06
1.23554e-05
2.70989e-06
1.23187e-05
2.42484e-06
1.22651e-05
2.10801e-06
1.21932e-05
1.75681e-06
1.21043e-05
1.33618e-06
1.20018e-05
8.93094e-07
1.18873e-05
4.82838e-07
1.17623e-05
1.04145e-07
1.16278e-05
-2.43786e-07
1.1484e-05
-5.62875e-07
1.13315e-05
-8.56407e-07
1.11709e-05
-1.12625e-06
1.10032e-05
-1.37364e-06
1.0829e-05
-1.5997e-06
1.0649e-05
-1.8055e-06
1.04638e-05
-1.9921e-06
1.02741e-05
-2.16047e-06
1.00804e-05
-2.31157e-06
9.88342e-06
-2.44633e-06
9.68366e-06
-2.56562e-06
9.48172e-06
-2.67025e-06
9.27819e-06
-2.76099e-06
9.07385e-06
-2.83848e-06
8.86976e-06
-2.90316e-06
8.6671e-06
-2.95521e-06
8.46613e-06
-2.99551e-06
8.26646e-06
-3.026e-06
8.06788e-06
-3.04808e-06
7.87028e-06
-3.06265e-06
7.67363e-06
-3.07066e-06
7.47799e-06
-3.07304e-06
7.28351e-06
-3.07073e-06
7.09043e-06
-3.06462e-06
-3.05552e-06
-2.59439e-09
-3.16196e-07
-7.56142e-09
-1.65747e-07
-1.11425e-08
-1.87777e-07
-1.42792e-08
-2.04144e-07
-1.69172e-08
-2.14953e-07
-1.88681e-08
-2.2365e-07
-1.98594e-08
-2.31246e-07
-1.95053e-08
-2.38042e-07
-1.7235e-08
-2.44106e-07
-1.21957e-08
-2.49362e-07
-3.02572e-09
-2.53598e-07
1.21687e-08
-2.56434e-07
3.57817e-08
-2.57265e-07
7.08008e-08
-2.55341e-07
1.20732e-07
-2.4967e-07
1.89407e-07
-2.39003e-07
2.80643e-07
-2.21805e-07
3.98162e-07
-1.96373e-07
5.46314e-07
-1.61104e-07
7.30805e-07
-1.14467e-07
9.59563e-07
-5.43866e-08
1.24213e-06
2.1362e-08
1.58837e-06
1.15627e-07
2.00506e-06
2.32657e-07
2.49353e-06
3.7611e-07
3.04815e-06
5.49005e-07
3.65628e-06
7.52045e-07
4.29967e-06
9.82553e-07
4.95591e-06
1.23537e-06
5.60222e-06
1.50254e-06
6.21897e-06
1.77418e-06
6.79192e-06
2.04087e-06
7.31321e-06
2.29481e-06
7.78159e-06
2.53032e-06
8.1989e-06
2.74484e-06
8.56818e-06
2.93825e-06
8.89353e-06
3.11144e-06
9.18028e-06
3.26519e-06
9.43399e-06
3.40121e-06
9.66003e-06
3.52157e-06
9.86346e-06
3.62832e-06
1.00488e-05
3.72339e-06
1.02201e-05
3.80854e-06
1.03804e-05
3.88529e-06
1.05323e-05
3.95487e-06
1.06775e-05
4.01814e-06
1.08173e-05
4.07568e-06
1.09527e-05
4.12776e-06
1.10842e-05
4.17444e-06
1.12122e-05
4.21559e-06
1.13369e-05
4.25094e-06
1.14583e-05
4.28013e-06
1.15765e-05
4.30269e-06
1.16914e-05
4.31812e-06
1.18029e-05
4.32583e-06
1.19107e-05
4.32522e-06
1.20145e-05
4.31562e-06
1.21142e-05
4.29632e-06
1.22093e-05
4.26655e-06
1.22994e-05
4.22551e-06
1.23839e-05
4.17233e-06
1.24624e-05
4.10607e-06
1.25342e-05
4.02573e-06
1.25986e-05
3.93023e-06
1.26547e-05
3.81839e-06
1.27016e-05
3.68896e-06
1.27385e-05
3.54055e-06
1.27642e-05
3.37169e-06
1.27774e-05
3.18075e-06
1.2777e-05
2.96595e-06
1.27616e-05
2.72536e-06
1.27295e-05
2.45686e-06
1.26794e-05
2.15813e-06
1.26096e-05
1.82666e-06
1.25211e-05
1.42459e-06
1.24175e-05
9.96699e-07
1.23004e-05
5.99989e-07
1.21714e-05
2.33175e-07
1.20319e-05
-1.0431e-07
1.18823e-05
-4.13277e-07
1.17228e-05
-6.96948e-07
1.15542e-05
-9.57626e-07
1.13772e-05
-1.19665e-06
1.11926e-05
-1.41512e-06
1.10012e-05
-1.61405e-06
1.08035e-05
-1.79445e-06
1.06004e-05
-1.9573e-06
1.03924e-05
-2.10358e-06
1.01803e-05
-2.23429e-06
9.96507e-06
-2.35037e-06
9.74752e-06
-2.4527e-06
9.52855e-06
-2.54202e-06
9.30895e-06
-2.61888e-06
9.08948e-06
-2.6837e-06
8.87101e-06
-2.73673e-06
8.65415e-06
-2.77865e-06
8.43867e-06
-2.81052e-06
8.22423e-06
-2.83364e-06
8.01067e-06
-2.8491e-06
7.79801e-06
-2.85799e-06
7.58637e-06
-2.8614e-06
7.37599e-06
-2.86036e-06
7.16722e-06
-2.85585e-06
6.96047e-06
-2.84877e-06
-2.83987e-06
-1.82626e-09
-3.14367e-07
-4.15618e-09
-1.63426e-07
-5.42072e-09
-1.86512e-07
-6.88505e-09
-2.0268e-07
-8.51461e-09
-2.13321e-07
-1.01505e-08
-2.22013e-07
-1.1582e-08
-2.29815e-07
-1.2542e-08
-2.37084e-07
-1.26946e-08
-2.43954e-07
-1.16376e-08
-2.50418e-07
-8.76763e-09
-2.56467e-07
-3.22402e-09
-2.61977e-07
6.2304e-09
-2.6672e-07
2.12438e-08
-2.70356e-07
4.3953e-08
-2.7238e-07
7.70359e-08
-2.72086e-07
1.23733e-07
-2.68501e-07
1.87711e-07
-2.6035e-07
2.7266e-07
-2.46053e-07
3.8205e-07
-2.23857e-07
5.19525e-07
-1.91863e-07
6.89246e-07
-1.48359e-07
8.96557e-07
-9.16847e-08
1.14876e-06
-1.95406e-08
1.45462e-06
7.02426e-08
1.82336e-06
1.80268e-07
2.26088e-06
3.14525e-07
2.76716e-06
4.76267e-07
3.33504e-06
6.67495e-07
3.95048e-06
8.87104e-07
4.59434e-06
1.13031e-06
5.24505e-06
1.39016e-06
5.88218e-06
1.65768e-06
6.48946e-06
1.92305e-06
7.05587e-06
2.17842e-06
7.57617e-06
2.41795e-06
8.04974e-06
2.63788e-06
8.47791e-06
2.83702e-06
8.86279e-06
3.01633e-06
9.20763e-06
3.17673e-06
9.51668e-06
3.31927e-06
9.79417e-06
3.4459e-06
1.00444e-05
3.55833e-06
1.02714e-05
3.65823e-06
1.04792e-05
3.74709e-06
1.06711e-05
3.82622e-06
1.08501e-05
3.89674e-06
1.10184e-05
3.95948e-06
1.11778e-05
4.01498e-06
1.13298e-05
4.06356e-06
1.14755e-05
4.10531e-06
1.16154e-05
4.14016e-06
1.17503e-05
4.16787e-06
1.18803e-05
4.18812e-06
1.20056e-05
4.20048e-06
1.21264e-05
4.20446e-06
1.22425e-05
4.1995e-06
1.23538e-05
4.18499e-06
1.24601e-05
4.16027e-06
1.2561e-05
4.12458e-06
1.26562e-05
4.07718e-06
1.2745e-05
4.01725e-06
1.28269e-05
3.94386e-06
1.29011e-05
3.85601e-06
1.29669e-05
3.75261e-06
1.30233e-05
3.63255e-06
1.30693e-05
3.49457e-06
1.31037e-05
3.33729e-06
1.31252e-05
3.15922e-06
1.31324e-05
2.95871e-06
1.31238e-05
2.73396e-06
1.30977e-05
2.48297e-06
1.30523e-05
2.20353e-06
1.29858e-05
1.89321e-06
1.28989e-05
1.51144e-06
1.2795e-05
1.10062e-06
1.26757e-05
7.19309e-07
1.25427e-05
3.66118e-07
1.2398e-05
4.04228e-08
1.22426e-05
-2.5787e-07
1.20764e-05
-5.30787e-07
1.18999e-05
-7.81058e-07
1.17137e-05
-1.01046e-06
1.15187e-05
-1.2201e-06
1.13156e-05
-1.41096e-06
1.11052e-05
-1.58403e-06
1.08882e-05
-1.74036e-06
1.06657e-05
-1.88102e-06
1.04385e-05
-2.00717e-06
1.0208e-05
-2.11981e-06
9.97514e-06
-2.21987e-06
9.74122e-06
-2.30809e-06
9.50714e-06
-2.38481e-06
9.27343e-06
-2.44999e-06
9.04028e-06
-2.50358e-06
8.80771e-06
-2.54608e-06
8.57568e-06
-2.57848e-06
8.34409e-06
-2.60205e-06
8.11301e-06
-2.61803e-06
7.88267e-06
-2.62765e-06
7.65339e-06
-2.63211e-06
7.4256e-06
-2.63257e-06
7.19982e-06
-2.63007e-06
6.9766e-06
-2.62555e-06
6.75652e-06
-2.61979e-06
6.54014e-06
-2.6134e-06
-2.60681e-06
-1.65681e-09
-3.12702e-07
-3.16184e-09
-1.61926e-07
-3.84961e-09
-1.85826e-07
-4.87593e-09
-2.01655e-07
-6.26159e-09
-2.11936e-07
-7.92875e-09
-2.20346e-07
-9.768e-09
-2.27978e-07
-1.1645e-08
-2.35209e-07
-1.33976e-08
-2.42202e-07
-1.47881e-08
-2.49027e-07
-1.55516e-08
-2.55703e-07
-1.5343e-08
-2.62186e-07
-1.36395e-08
-2.68424e-07
-9.71007e-09
-2.74286e-07
-2.53843e-09
-2.79552e-07
9.23003e-09
-2.83854e-07
2.74595e-08
-2.8673e-07
5.46771e-08
-2.87567e-07
9.39942e-08
-2.8537e-07
1.49007e-07
-2.78871e-07
2.23583e-07
-2.66438e-07
3.21414e-07
-2.46189e-07
4.45866e-07
-2.16136e-07
6.00667e-07
-1.74341e-07
7.90035e-07
-1.19124e-07
1.01929e-06
-4.89838e-08
1.29552e-06
3.82878e-08
1.62712e-06
1.44668e-07
2.02242e-06
2.72199e-07
2.48542e-06
4.24099e-07
3.01332e-06
6.02414e-07
3.59636e-06
8.07118e-07
4.21926e-06
1.03479e-06
4.86308e-06
1.27922e-06
5.50843e-06
1.53308e-06
6.13831e-06
1.78807e-06
6.73969e-06
2.03649e-06
7.30404e-06
2.27268e-06
7.82783e-06
2.49254e-06
8.31069e-06
2.69387e-06
8.75311e-06
2.87685e-06
9.1562e-06
3.04281e-06
9.52232e-06
3.19222e-06
9.85418e-06
3.32637e-06
1.01549e-05
3.44637e-06
1.04278e-05
3.55331e-06
1.06764e-05
3.64816e-06
1.0904e-05
3.73185e-06
1.11138e-05
3.8052e-06
1.13085e-05
3.8689e-06
1.14903e-05
3.92344e-06
1.16613e-05
3.96918e-06
1.18229e-05
4.00626e-06
1.19763e-05
4.03471e-06
1.21224e-05
4.0544e-06
1.22618e-05
4.0651e-06
1.23948e-05
4.06647e-06
1.25217e-05
4.0581e-06
1.26425e-05
4.03948e-06
1.27571e-05
4.00996e-06
1.28653e-05
3.96899e-06
1.29666e-05
3.91592e-06
1.30606e-05
3.84994e-06
1.31464e-05
3.77013e-06
1.32235e-05
3.6755e-06
1.3291e-05
3.56511e-06
1.33476e-05
3.43792e-06
1.33923e-05
3.29265e-06
1.34236e-05
3.12793e-06
1.344e-05
2.94232e-06
1.34397e-05
2.73419e-06
1.3421e-05
2.50169e-06
1.33818e-05
2.24271e-06
1.332e-05
1.95501e-06
1.32361e-05
1.59542e-06
1.31329e-05
1.20381e-06
1.3012e-05
8.40136e-07
1.28753e-05
5.02873e-07
1.27247e-05
1.90997e-07
1.25625e-05
-9.56396e-08
1.23891e-05
-3.57381e-07
1.22045e-05
-5.96462e-07
1.20091e-05
-8.15054e-07
1.18035e-05
-1.01451e-06
1.15886e-05
-1.19603e-06
1.13654e-05
-1.36086e-06
1.11351e-05
-1.51002e-06
1.08987e-05
-1.64469e-06
1.06578e-05
-1.76622e-06
1.04135e-05
-1.87549e-06
1.01668e-05
-1.97323e-06
9.91875e-06
-2.06004e-06
9.67005e-06
-2.13611e-06
9.42109e-06
-2.20103e-06
9.17166e-06
-2.25415e-06
8.92142e-06
-2.29584e-06
8.67061e-06
-2.32767e-06
8.41966e-06
-2.35109e-06
8.16902e-06
-2.36739e-06
7.91921e-06
-2.37784e-06
7.67081e-06
-2.38371e-06
7.42445e-06
-2.38621e-06
7.18082e-06
-2.38644e-06
6.94061e-06
-2.38534e-06
6.70449e-06
-2.38367e-06
6.4731e-06
-2.38201e-06
6.24701e-06
-2.38072e-06
-2.38003e-06
-1.73232e-09
-3.10967e-07
-3.16112e-09
-1.605e-07
-3.79578e-09
-1.85197e-07
-4.66834e-09
-2.00788e-07
-5.85113e-09
-2.10752e-07
-7.32859e-09
-2.18868e-07
-9.05426e-09
-2.26252e-07
-1.09688e-08
-2.33294e-07
-1.30046e-08
-2.40166e-07
-1.50829e-08
-2.46948e-07
-1.71096e-08
-2.53676e-07
-1.89405e-08
-2.60355e-07
-2.03982e-08
-2.66967e-07
-2.12192e-08
-2.73465e-07
-2.10024e-08
-2.79768e-07
-1.91144e-08
-2.85741e-07
-1.46614e-08
-2.91182e-07
-6.46942e-09
-2.95759e-07
7.13538e-09
-2.98975e-07
2.83848e-08
-3.00121e-07
6.02564e-08
-2.9831e-07
1.06338e-07
-2.9227e-07
1.70655e-07
-2.80452e-07
2.57326e-07
-2.61012e-07
3.70126e-07
-2.31924e-07
5.12368e-07
-1.91225e-07
6.87789e-07
-1.37133e-07
9.00766e-07
-6.8308e-08
1.1566e-06
1.63613e-08
1.46201e-06
1.18689e-07
1.8243e-06
2.40124e-07
2.24945e-06
3.81968e-07
2.73823e-06
5.46011e-07
3.28472e-06
7.32726e-07
3.8775e-06
9.40301e-07
4.50144e-06
1.16414e-06
5.13964e-06
1.39828e-06
5.77574e-06
1.63658e-06
6.39601e-06
1.87227e-06
6.99008e-06
2.0998e-06
7.5516e-06
2.31532e-06
8.07857e-06
2.51584e-06
8.57007e-06
2.70072e-06
9.02532e-06
2.87111e-06
9.44466e-06
3.02704e-06
9.82904e-06
3.16892e-06
1.01802e-05
3.29704e-06
1.05003e-05
3.41169e-06
1.07923e-05
3.51325e-06
1.1059e-05
3.60218e-06
1.13035e-05
3.67898e-06
1.15285e-05
3.74413e-06
1.17367e-05
3.79805e-06
1.19303e-05
3.8411e-06
1.21112e-05
3.87349e-06
1.2281e-05
3.89535e-06
1.24408e-05
3.90669e-06
1.25915e-05
3.9074e-06
1.27337e-05
3.8973e-06
1.28679e-05
3.87567e-06
1.29942e-05
3.84274e-06
1.31122e-05
3.7979e-06
1.32218e-05
3.74037e-06
1.33225e-05
3.66944e-06
1.34138e-05
3.58417e-06
1.34949e-05
3.48401e-06
1.35646e-05
3.36821e-06
1.36217e-05
3.23553e-06
1.36649e-05
3.08474e-06
1.36925e-05
2.91471e-06
1.37026e-05
2.72409e-06
1.36932e-05
2.51112e-06
1.36621e-05
2.27381e-06
1.36069e-05
2.01019e-06
1.35276e-05
1.67478e-06
1.34267e-05
1.3047e-06
1.33057e-05
9.61121e-07
1.31661e-05
6.42441e-07
1.30097e-05
3.47385e-07
1.28389e-05
7.51469e-08
1.2656e-05
-1.74482e-07
1.24618e-05
-4.0218e-07
1.22562e-05
-6.09474e-07
1.20399e-05
-7.98255e-07
1.18141e-05
-9.70198e-07
1.15799e-05
-1.12672e-06
1.13387e-05
-1.26878e-06
1.10914e-05
-1.39737e-06
1.08389e-05
-1.51378e-06
1.05822e-05
-1.61878e-06
1.03219e-05
-1.71286e-06
1.00581e-05
-1.79629e-06
9.79133e-06
-1.86933e-06
9.52234e-06
-1.93204e-06
9.25206e-06
-1.98387e-06
8.98084e-06
-2.02462e-06
8.7089e-06
-2.05574e-06
8.4369e-06
-2.07909e-06
8.16555e-06
-2.09604e-06
7.89557e-06
-2.10786e-06
7.62774e-06
-2.11588e-06
7.36285e-06
-2.12132e-06
7.10172e-06
-2.12531e-06
6.84513e-06
-2.12875e-06
6.59382e-06
-2.13236e-06
6.34845e-06
-2.13664e-06
6.10959e-06
-2.14186e-06
5.87771e-06
-2.14814e-06
5.65316e-06
-2.15544e-06
-2.1636e-06
-1.83674e-09
-3.0913e-07
-3.25683e-09
-1.59082e-07
-3.73052e-09
-1.84725e-07
-4.31157e-09
-2.00211e-07
-5.0758e-09
-2.09988e-07
-6.03358e-09
-2.1791e-07
-7.17116e-09
-2.25115e-07
-8.46876e-09
-2.31997e-07
-9.90593e-09
-2.38729e-07
-1.14594e-08
-2.45395e-07
-1.31059e-08
-2.5203e-07
-1.48136e-08
-2.58648e-07
-1.65365e-08
-2.65244e-07
-1.82029e-08
-2.71798e-07
-1.96947e-08
-2.78276e-07
-2.08174e-08
-2.84618e-07
-2.12679e-08
-2.90732e-07
-2.05607e-08
-2.96467e-07
-1.79387e-08
-3.01597e-07
-1.2246e-08
-3.05813e-07
-1.8831e-09
-3.08672e-07
1.53486e-08
-3.09502e-07
4.2299e-08
-3.07403e-07
8.24526e-08
-3.01166e-07
1.39838e-07
-2.8931e-07
2.18704e-07
-2.70091e-07
3.23198e-07
-2.41626e-07
4.56907e-07
-2.02016e-07
6.22882e-07
-1.49612e-07
8.24685e-07
-8.31144e-08
1.0665e-06
-1.69085e-09
1.35307e-06
9.54014e-08
1.6897e-06
2.09379e-07
2.08152e-06
3.40902e-07
2.53138e-06
4.9044e-07
3.03708e-06
6.58444e-07
3.59107e-06
8.4429e-07
4.18204e-06
1.04561e-06
4.79635e-06
1.25796e-06
5.41987e-06
1.47627e-06
6.03951e-06
1.69568e-06
6.64435e-06
1.91099e-06
7.22661e-06
2.11846e-06
7.78282e-06
2.3149e-06
8.31054e-06
2.49931e-06
8.80732e-06
2.67214e-06
9.2715e-06
2.83286e-06
9.7025e-06
2.98068e-06
1.01007e-05
3.11509e-06
1.0467e-05
3.23579e-06
1.08034e-05
3.34266e-06
1.11118e-05
3.43572e-06
1.13947e-05
3.51515e-06
1.16546e-05
3.5812e-06
1.18939e-05
3.63413e-06
1.2115e-05
3.67425e-06
1.23199e-05
3.7018e-06
1.25104e-05
3.71694e-06
1.26879e-05
3.71975e-06
1.28531e-05
3.71046e-06
1.30067e-05
3.68913e-06
1.31498e-05
3.65487e-06
1.32822e-05
3.60792e-06
1.3404e-05
3.54765e-06
1.35154e-05
3.47282e-06
1.36148e-05
3.38451e-06
1.37015e-05
3.28156e-06
1.37747e-05
3.16237e-06
1.38332e-05
3.02624e-06
1.38751e-05
2.87274e-06
1.38984e-05
2.70082e-06
1.39008e-05
2.5087e-06
1.38803e-05
2.29433e-06
1.38343e-05
2.05626e-06
1.37619e-05
1.74709e-06
1.36656e-05
1.401e-06
1.35467e-05
1.08e-06
1.34067e-05
7.82506e-07
1.32469e-05
5.07148e-07
1.30693e-05
2.52809e-07
1.28761e-05
1.8685e-08
1.26697e-05
-1.95815e-07
1.2452e-05
-3.9174e-07
1.22243e-05
-5.70564e-07
1.19877e-05
-7.33606e-07
1.1743e-05
-8.82001e-07
1.14912e-05
-1.01697e-06
1.1233e-05
-1.13921e-06
1.09683e-05
-1.2491e-06
1.06972e-05
-1.34761e-06
1.04199e-05
-1.43555e-06
1.01369e-05
-1.51329e-06
9.84889e-06
-1.58135e-06
9.55712e-06
-1.64027e-06
9.26341e-06
-1.69017e-06
8.96949e-06
-1.7307e-06
8.67589e-06
-1.76214e-06
8.38295e-06
-1.78615e-06
8.09142e-06
-1.8045e-06
7.80213e-06
-1.81858e-06
7.516e-06
-1.82975e-06
7.23395e-06
-1.83927e-06
6.95689e-06
-1.84824e-06
6.68566e-06
-1.85752e-06
6.42105e-06
-1.86775e-06
6.1637e-06
-1.87929e-06
5.91415e-06
-1.89231e-06
5.67279e-06
-1.90679e-06
5.43992e-06
-1.92257e-06
5.2157e-06
-1.93938e-06
5.00022e-06
-1.95692e-06
4.79347e-06
-1.97484e-06
4.59539e-06
-1.99278e-06
-2.01042e-06
-1.89375e-09
-3.07235e-07
-3.15726e-09
-1.57822e-07
-3.29476e-09
-1.84582e-07
-3.42833e-09
-2.00074e-07
-3.62018e-09
-2.09796e-07
-3.87881e-09
-2.17652e-07
-4.19904e-09
-2.24795e-07
-4.5727e-09
-2.31623e-07
-4.99345e-09
-2.38308e-07
-5.46024e-09
-2.44928e-07
-5.97053e-09
-2.5152e-07
-6.52337e-09
-2.58095e-07
-7.11702e-09
-2.6465e-07
-7.74547e-09
-2.7117e-07
-8.39269e-09
-2.77628e-07
-9.0217e-09
-2.83989e-07
-9.55295e-09
-2.902e-07
-9.82724e-09
-2.96192e-07
-9.56249e-09
-3.01862e-07
-8.31935e-09
-3.07056e-07
-5.44622e-09
-3.11544e-07
5.8202e-11
-3.15005e-07
9.65901e-09
-3.17003e-07
2.54515e-08
-3.16958e-07
5.02209e-08
-3.14079e-07
8.73947e-08
-3.07265e-07
1.40942e-07
-2.95172e-07
2.15148e-07
-2.76222e-07
3.14226e-07
-2.48689e-07
4.41924e-07
-2.10813e-07
6.01278e-07
-1.61044e-07
7.94862e-07
-9.81814e-08
1.02572e-06
-2.14806e-08
1.29724e-06
6.93813e-08
1.61287e-06
1.74809e-07
1.97577e-06
2.95545e-07
2.38838e-06
4.31679e-07
2.85114e-06
5.82848e-07
3.36047e-06
7.48633e-07
3.90888e-06
9.27857e-07
4.48622e-06
1.11835e-06
5.08066e-06
1.31655e-06
5.68083e-06
1.51829e-06
6.27692e-06
1.71881e-06
6.86143e-06
1.9148e-06
7.42958e-06
2.10399e-06
7.97731e-06
2.28513e-06
8.50105e-06
2.45694e-06
8.99805e-06
2.6181e-06
9.46638e-06
2.76747e-06
9.90493e-06
2.9041e-06
1.03134e-05
3.02723e-06
1.06923e-05
3.1363e-06
1.10425e-05