/*--------------------------------*- C++ -*----------------------------------*\
  =========                 |
  \\      /  F ield         | OpenFOAM: The Open Source CFD Toolbox
   \\    /   O peration     | Website:  https://openfoam.org
    \\  /    A nd           | Version:  10
     \\/     M anipulation  |
\*---------------------------------------------------------------------------*/
FoamFile
{
    format      ascii;
    class       volVectorField;
    location    "59000";
    object      Urel;
}
// * * * * * * * * * * * * * * * * * * * * * * * * * * * * * * * * * * * * * //

dimensions      [0 1 -1 0 0 0 0];

internalField   nonuniform List<vector> 
17969
(
(0.129192 -0.147719 0)
(-0.0206589 -0.112163 0)
(0.000165112 -0.0979536 -4.96959e-18)
(0.00281043 -0.0817451 5.95053e-18)
(0.00572575 -0.0632386 -2.16852e-18)
(0.011091 -0.0403409 -1.91242e-18)
(0.0197239 -0.0102114 1.70231e-18)
(0.0329201 0.0319841 0)
(0.0518147 0.0900793 9.10241e-20)
(0.0759596 0.162235 0)
(0.104052 0.2426 0)
(0.134276 0.324041 0)
(0.16451 0.400085 0)
(0.193018 0.466268 -6.40757e-19)
(0.218632 0.520594 5.86767e-19)
(0.240367 0.562518 0)
(0.25838 0.593737 -4.34789e-19)
(0.273147 0.616416 3.99978e-19)
(0.284908 0.632354 -3.65806e-19)
(0.294212 0.643281 3.37603e-19)
(0.301634 0.650533 0)
(0.307619 0.655115 0)
(0.312532 0.657782 -3.26625e-20)
(0.316662 0.659073 0)
(0.320219 0.659352 0)
(0.323357 0.658848 2.02548e-19)
(0.326183 0.657701 -3.75486e-19)
(0.328768 0.655993 1.74627e-19)
(0.331158 0.653773 1.61585e-19)
(0.333381 0.65107 -1.99011e-20)
(0.335457 0.647902 -1.77939e-19)
(0.337398 0.644282 0)
(0.339212 0.640216 1.25569e-19)
(0.340905 0.635713 -2.68459e-19)
(0.342484 0.630775 8.45575e-22)
(0.34395 0.625406 2.15564e-19)
(0.345307 0.619609 -1.03242e-19)
(0.346556 0.613387 -1.22536e-19)
(0.347698 0.60674 7.09775e-20)
(0.348732 0.599669 0)
(0.349658 0.592177 2.17681e-20)
(0.350474 0.584262 2.09502e-20)
(0.351178 0.575925 1.60236e-19)
(0.351767 0.567165 -1.56183e-19)
(0.352238 0.55798 -1.49182e-19)
(0.352587 0.548369 -3.46828e-20)
(0.35281 0.538329 1.41051e-19)
(0.352903 0.527857 1.34847e-19)
(0.352859 0.516948 -1.71427e-21)
(0.352676 0.505599 -1.2818e-19)
(0.352346 0.493802 -1.5348e-19)
(0.351866 0.481553 1.50563e-19)
(0.351228 0.468843 0)
(0.350427 0.455666 0)
(0.349456 0.442013 2.74151e-20)
(0.34831 0.427874 1.58299e-19)
(0.346981 0.413239 -1.03866e-19)
(0.345463 0.398098 0)
(0.343749 0.382438 0)
(0.34183 0.366246 4.58032e-20)
(0.339701 0.34951 -9.22772e-20)
(0.337353 0.332214 0)
(0.334778 0.314342 0)
(0.331968 0.295879 -4.17709e-20)
(0.328915 0.276807 -7.94106e-20)
(0.325612 0.257107 4.15455e-20)
(0.32205 0.236759 7.66804e-20)
(0.318222 0.215742 0)
(0.314119 0.194035 0)
(0.309735 0.171614 0)
(0.305063 0.148457 6.42155e-20)
(0.300096 0.124538 -4.6135e-21)
(0.294828 0.0998334 -1.24336e-19)
(0.289255 0.0743198 0)
(0.283456 0.0483523 5.52734e-20)
(0.277605 0.0226702 5.19164e-20)
(0.2718 -0.00235393 -4.83598e-20)
(0.266046 -0.0267211 0)
(0.260371 -0.0504421 0)
(0.254766 -0.0735854 0)
(0.249228 -0.0962156 0)
(0.243784 -0.118334 0)
(0.238434 -0.139938 5.92369e-20)
(0.233177 -0.161027 -9.90263e-20)
(0.228011 -0.181606 6.71987e-20)
(0.222933 -0.201685 -1.19956e-20)
(0.217942 -0.221265 0)
(0.213051 -0.240312 0)
(0.208291 -0.258729 0)
(0.203699 -0.276379 -2.06323e-20)
(0.199291 -0.293204 2.73512e-20)
(0.195007 -0.309329 2.1082e-20)
(0.190797 -0.324895 -2.08233e-20)
(0.186656 -0.339936 1.52446e-20)
(0.18258 -0.354476 -2.93511e-20)
(0.178566 -0.368545 1.09474e-20)
(0.174613 -0.382174 0)
(0.170719 -0.395395 -5.21745e-21)
(0.166882 -0.40824 5.13233e-21)
(0.163104 -0.420741 2.72343e-22)
(0.138419 -0.142854 0)
(-0.0212475 -0.107312 -2.20123e-17)
(0.00184724 -0.103062 1.24013e-17)
(0.0028742 -0.0950559 2.25948e-19)
(0.00375699 -0.0850263 9.95169e-18)
(0.00579939 -0.0725719 -1.60619e-17)
(0.00927571 -0.0563923 7.23024e-18)
(0.0147923 -0.0350942 6.70589e-18)
(0.0229458 -0.00755233 -6.25309e-18)
(0.0346816 0.0288225 -5.93908e-18)
(0.0510911 0.0771958 1.1379e-20)
(0.0723747 0.13779 4.70954e-18)
(0.0977693 0.207424 0)
(0.126023 0.280866 0)
(0.155536 0.352734 -3.03005e-18)
(0.184604 0.418516 2.66028e-18)
(0.211891 0.475267 0)
(0.23653 0.521884 -1.94718e-18)
(0.257743 0.558276 1.78951e-18)
(0.275668 0.585839 0)
(0.290682 0.606206 -1.45641e-18)
(0.302939 0.620751 1.26998e-18)
(0.312868 0.630874 3.90779e-20)
(0.320941 0.637653 0)
(0.327541 0.641911 1.07278e-18)
(0.332996 0.64428 -6.76302e-20)
(0.33757 0.645241 -1.8447e-18)
(0.341469 0.645131 8.57053e-19)
(0.344851 0.644176 -4.966e-20)
(0.347836 0.64252 7.57543e-19)
(0.350509 0.64025 -6.45682e-19)
(0.352932 0.63742 0)
(0.355147 0.634063 5.23011e-19)
(0.357185 0.630202 -4.60007e-19)
(0.359069 0.625853 0)
(0.360815 0.62103 6.28755e-20)
(0.362436 0.615741 -5.95609e-20)
(0.36394 0.609995 -4.21321e-19)
(0.365334 0.603801 8.86027e-19)
(0.366623 0.597164 -5.50364e-20)
(0.367808 0.59009 -4.1803e-19)
(0.368889 0.582581 -4.43802e-19)
(0.369867 0.574642 7.19793e-19)
(0.370738 0.566273 -7.78161e-19)
(0.3715 0.557475 6.65137e-19)
(0.372147 0.548249 -2.82184e-19)
(0.372675 0.538592 3.06944e-19)
(0.373078 0.528501 -6.70646e-19)
(0.373351 0.517975 5.75503e-19)
(0.373488 0.507008 -5.56189e-19)
(0.373481 0.495595 2.36857e-19)
(0.373324 0.48373 -3.24173e-20)
(0.37301 0.471407 0)
(0.372532 0.458618 0)
(0.371883 0.445355 -2.9426e-20)
(0.371054 0.431609 -5.70143e-20)
(0.37004 0.41737 2.19748e-19)
(0.36883 0.402626 -3.24966e-19)
(0.367418 0.387366 -4.12372e-19)
(0.365795 0.371579 5.89471e-20)
(0.363952 0.35525 3.95662e-19)
(0.36188 0.338364 4.69704e-19)
(0.359571 0.320907 -4.63966e-19)
(0.357014 0.302862 4.42331e-20)
(0.354201 0.28421 0)
(0.351122 0.264934 4.22336e-20)
(0.347768 0.245013 3.16667e-19)
(0.344128 0.224426 -3.16158e-19)
(0.340195 0.20315 -1.50922e-19)
(0.335958 0.181161 -1.38315e-19)
(0.33141 0.158436 2.84698e-19)
(0.326542 0.134948 2.01772e-19)
(0.321348 0.110672 2.51774e-19)
(0.31582 0.0855843 -2.52771e-19)
(0.310037 0.0600334 -5.80025e-20)
(0.304174 0.034749 -5.45191e-20)
(0.29833 0.0101028 5.09122e-20)
(0.292518 -0.0138978 9.55347e-20)
(0.286765 -0.0372664 2.59377e-19)
(0.281061 -0.0600741 -1.04898e-20)
(0.275411 -0.0823831 -1.58955e-19)
(0.269839 -0.104195 -3.61364e-20)
(0.264348 -0.125505 0)
(0.258939 -0.146308 1.5765e-20)
(0.253615 -0.166601 -1.39747e-20)
(0.248376 -0.186386 1.27795e-20)
(0.243217 -0.205668 0)
(0.238137 -0.224449 0)
(0.233143 -0.242704 -1.43853e-19)
(0.22826 -0.26035 5.7542e-21)
(0.223518 -0.277244 1.21407e-19)
(0.218956 -0.293283 0)
(0.214519 -0.308587 0)
(0.210145 -0.323334 6.67856e-20)
(0.205838 -0.337577 -1.1928e-19)
(0.201592 -0.351345 5.91415e-20)
(0.197408 -0.364669 0)
(0.193285 -0.377581 0)
(0.189223 -0.390114 -1.33045e-20)
(0.185223 -0.402302 7.54803e-21)
(0.144769 -0.136269 4.0932e-17)
(-0.0212998 -0.0980398 -5.05152e-17)
(0.00316385 -0.099184 6.28198e-17)
(0.00287344 -0.096659 -1.88968e-17)
(0.00245131 -0.0921003 3.75931e-19)
(0.00271375 -0.086035 0)
(0.00375083 -0.0778391 2.64561e-19)
(0.00579018 -0.0665019 0)
(0.00911201 -0.051202 0)
(0.0141908 -0.0314552 4.11825e-19)
(0.0216794 -0.00667651 1.83287e-19)
(0.0321068 0.0244904 0)
(0.0463676 0.0644053 0)
(0.0652225 0.11471 2.80927e-19)
(0.0882331 0.173936 -3.97721e-18)
(0.114622 0.238653 3.15013e-18)
(0.143206 0.304589 -2.81564e-18)
(0.172596 0.36783 2.61938e-18)
(0.201376 0.42527 -7.13141e-20)
(0.228434 0.4749 -2.13204e-18)
(0.253086 0.516077 1.66684e-18)
(0.274587 0.548771 1.98362e-19)
(0.292995 0.57403 9.11473e-20)
(0.308646 0.59308 0)
(0.321627 0.606973 0)
(0.332277 0.616843 1.2474e-18)
(0.341002 0.623575 -9.638e-19)
(0.348155 0.627835 -1.28384e-19)
(0.354041 0.630154 -7.73568e-19)
(0.35892 0.630957 8.93656e-19)
(0.363008 0.630564 0)
(0.366483 0.629202 0)
(0.369489 0.627027 9.02224e-20)
(0.372134 0.624137 1.26374e-18)
(0.374501 0.620604 -2.53438e-18)
(0.376646 0.616487 1.11985e-18)
(0.378609 0.61182 6.97772e-20)
(0.380424 0.60663 -1.32327e-19)
(0.382111 0.600939 1.25126e-19)
(0.383685 0.594768 5.89722e-20)
(0.385155 0.588131 0)
(0.386526 0.581041 5.33309e-20)
(0.3878 0.573507 1.02352e-19)
(0.388974 0.565536 -6.78915e-19)
(0.390047 0.557133 8.05366e-21)
(0.391012 0.548299 8.10066e-19)
(0.391866 0.539035 0)
(0.3926 0.529341 -5.46827e-22)
(0.393207 0.519213 -1.5964e-19)
(0.393681 0.508647 0)
(0.394014 0.49764 7.36339e-20)
(0.394196 0.486184 -5.6622e-19)
(0.394221 0.474273 5.54905e-19)
(0.39408 0.4619 0)
(0.393765 0.449057 1.29083e-19)
(0.393267 0.435734 0)
(0.392577 0.421921 -1.20742e-19)
(0.391687 0.407609 -4.61746e-19)
(0.390588 0.392785 4.5469e-19)
(0.389269 0.377437 1.09393e-19)
(0.387721 0.361552 0)
(0.385935 0.345116 -5.04422e-19)
(0.383899 0.328113 1.08528e-18)
(0.381603 0.310527 -1.00673e-20)
(0.379036 0.29234 -1.95704e-19)
(0.376188 0.273533 -9.92297e-20)
(0.373046 0.254085 -6.88622e-19)
(0.369599 0.233976 1.11443e-20)
(0.365837 0.213181 6.47089e-19)
(0.361748 0.191676 1.82801e-21)
(0.357323 0.169436 0)
(0.35255 0.146433 4.17612e-19)
(0.34742 0.122642 1.12283e-19)
(0.341926 0.0980365 -5.38643e-19)
(0.336143 0.0729579 0)
(0.330248 0.0481237 0)
(0.324343 0.0239038 -1.10529e-19)
(0.318448 0.000314544 2.93998e-19)
(0.312589 -0.0226523 -8.51261e-19)
(0.306758 -0.0450754 7.09748e-19)
(0.300962 -0.0670154 -4.27188e-19)
(0.295228 -0.0884723 -2.61279e-19)
(0.289558 -0.109441 2.98592e-19)
(0.283955 -0.129916 -2.90118e-19)
(0.278425 -0.149892 4.91648e-19)
(0.272971 -0.169361 -2.34364e-19)
(0.267592 -0.188321 1.96421e-19)
(0.262288 -0.206773 -3.71443e-19)
(0.257053 -0.224717 1.60901e-20)
(0.251893 -0.24213 1.52955e-20)
(0.246822 -0.258942 1.52618e-19)
(0.24187 -0.275019 0)
(0.237077 -0.290242 8.75947e-20)
(0.232406 -0.30472 -1.59092e-19)
(0.227795 -0.318645 2.91843e-21)
(0.223248 -0.332097 7.60945e-21)
(0.218769 -0.345108 4.90745e-21)
(0.214356 -0.357708 5.80243e-21)
(0.210012 -0.369928 2.26863e-20)
(0.205736 -0.381804 7.21553e-22)
(0.150056 -0.128511 -1.32004e-18)
(-0.0213726 -0.0877231 -1.11816e-16)
(0.00432227 -0.0902941 1.01064e-19)
(0.00350796 -0.0909277 1.49016e-18)
(0.00246598 -0.0895648 2.90488e-17)
(0.00186172 -0.0871993 2.17124e-17)
(0.0016656 -0.0837593 -3.23075e-19)
(0.00197067 -0.0787181 -1.73897e-17)
(0.00298129 -0.0713544 0)
(0.00494845 -0.0610387 1.53607e-17)
(0.00811551 -0.0472912 -1.41449e-17)
(0.0128332 -0.0297982 0)
(0.0196535 -0.00830956 0)
(0.0290436 0.0180603 -3.21764e-19)
(0.0416369 0.0509353 2.9484e-19)
(0.0582579 0.0920116 2.71125e-19)
(0.0790259 0.14125 7.58472e-18)
(0.103462 0.196828 -6.95855e-18)
(0.130806 0.255796 0)
(0.159935 0.314917 1.66692e-19)
(0.189623 0.371373 5.12443e-18)
(0.218634 0.422927 -8.41952e-18)
(0.245964 0.467971 3.57397e-18)
(0.270974 0.505917 2.05148e-19)
(0.292945 0.536634 2.94217e-18)
(0.311845 0.560821 -2.7222e-18)
(0.327983 0.579397 -2.68693e-18)
(0.341447 0.593216 2.67848e-18)
(0.352516 0.603216 6.33884e-22)
(0.361574 0.61008 -2.08462e-18)
(0.368964 0.614352 1.96724e-18)
(0.374991 0.616508 0)
(0.379921 0.616962 0)
(0.384026 0.616044 -1.60914e-18)
(0.387451 0.614017 1.70811e-18)
(0.390413 0.611064 -1.41316e-18)
(0.393016 0.607318 1.33604e-18)
(0.395349 0.602877 -1.08942e-18)
(0.397484 0.597815 -1.36813e-19)
(0.399463 0.592189 9.65537e-21)
(0.401314 0.586041 2.09527e-18)
(0.403054 0.579401 -1.98333e-18)
(0.404691 0.572296 8.2803e-19)
(0.40623 0.56474 0)
(0.407668 0.556747 0)
(0.409002 0.548322 -1.0122e-19)
(0.410225 0.539471 -7.71846e-19)
(0.41133 0.530192 6.53702e-19)
(0.41231 0.520485 -5.30297e-19)
(0.413155 0.510346 8.59547e-19)
(0.413856 0.499771 8.1704e-19)
(0.414405 0.488752 -7.94679e-19)
(0.414793 0.477284 0)
(0.415011 0.465358 -4.34094e-19)
(0.41505 0.452967 5.70437e-19)
(0.4149 0.4401 0)
(0.414551 0.426748 1.30848e-19)
(0.413996 0.412902 1.26302e-19)
(0.413223 0.398548 -2.46112e-19)
(0.412221 0.383677 -1.17772e-19)
(0.410982 0.368273 2.29679e-19)
(0.409492 0.352325 8.72805e-19)
(0.407741 0.335815 -1.07583e-18)
(0.405716 0.318729 8.13174e-19)
(0.403406 0.301049 -1.19333e-18)
(0.400796 0.282755 7.79287e-19)
(0.397874 0.263828 -9.1591e-19)
(0.394627 0.244244 9.06379e-19)
(0.391041 0.22398 -1.71233e-19)
(0.387102 0.203012 -8.15842e-19)
(0.382798 0.181312 6.51453e-19)
(0.378116 0.158852 0)
(0.373044 0.135604 -1.46357e-19)
(0.36757 0.111541 0)
(0.361769 0.0869938 0)
(0.355819 0.0626659 0)
(0.349829 0.0389232 5.75041e-19)
(0.343821 0.0157912 -4.51997e-19)
(0.337827 -0.00672509 -2.06283e-19)
(0.33184 -0.0287102 -1.93784e-19)
(0.325861 -0.0502282 8.93775e-20)
(0.319924 -0.0712777 -8.51583e-20)
(0.314033 -0.0918527 -3.03277e-19)
(0.308191 -0.111948 3.02139e-19)
(0.302404 -0.131557 2.58804e-19)
(0.296677 -0.15067 -1.9793e-20)
(0.291015 -0.16928 -6.66741e-19)
(0.285419 -0.187379 3.6528e-20)
(0.279887 -0.204964 3.85071e-19)
(0.274418 -0.222028 -4.15178e-20)
(0.269014 -0.238551 1.88024e-20)
(0.263683 -0.254471 -2.34423e-19)
(0.258449 -0.269668 2.25427e-19)
(0.253357 -0.284034 -1.12996e-20)
(0.248377 -0.297682 9.05859e-21)
(0.24346 -0.310822 1.02116e-19)
(0.238616 -0.323526 -1.88016e-19)
(0.233852 -0.33582 8.87122e-20)
(0.229167 -0.347735 4.09975e-20)
(0.22456 -0.359305 -6.15223e-20)
(0.220032 -0.370572 2.22511e-20)
(0.215585 -0.381578 -1.86899e-21)
(0.211224 -0.392368 -3.12939e-20)
(0.206952 -0.402988 3.03853e-20)
(0.155122 -0.121235 9.00159e-17)
(-0.0211916 -0.0792863 0)
(0.00597827 -0.0816964 9.31203e-17)
(0.00563816 -0.0842785 8.26135e-19)
(0.00475016 -0.084709 -7.36517e-17)
(0.00415345 -0.0841827 5.27394e-17)
(0.00374025 -0.082959 -2.03214e-17)
(0.00352689 -0.0809357 0)
(0.00360939 -0.0777822 1.79695e-17)
(0.00414522 -0.0730409 -3.36366e-17)
(0.00534106 -0.0662625 1.5678e-17)
(0.00738925 -0.0570136 -4.74345e-19)
(0.0105232 -0.0449203 1.39201e-17)
(0.015011 -0.0297305 -2.53494e-17)
(0.0212821 -0.0113312 1.09694e-17)
(0.029823 0.0107855 -6.28185e-19)
(0.0410076 0.0376199 9.1026e-18)
(0.0555573 0.0706382 -7.87821e-18)
(0.0740183 0.110762 0)
(0.0961669 0.157399 6.90906e-18)
(0.121593 0.208903 -6.92902e-18)
(0.14955 0.263004 -3.40024e-19)
(0.179002 0.317241 0)
(0.208821 0.369388 -5.31825e-19)
(0.237854 0.417527 0)
(0.265158 0.460081 3.15917e-18)
(0.290084 0.496277 1.74247e-19)
(0.311942 0.525885 -3.09492e-18)
(0.330792 0.549464 -1.58852e-19)
(0.346929 0.567715 0)
(0.360394 0.581381 0)
(0.371497 0.591176 0)
(0.380607 0.597671 -1.73971e-18)
(0.38805 0.601396 1.88666e-18)
(0.394146 0.602846 -2.20675e-19)
(0.39917 0.60245 1.65947e-18)
(0.403368 0.600577 -1.37638e-18)
(0.40695 0.597525 1.46802e-18)
(0.41008 0.593517 -1.39253e-18)
(0.412877 0.588717 0)
(0.415425 0.583245 1.53343e-18)
(0.417783 0.577187 -1.16621e-18)
(0.419984 0.570602 8.16348e-19)
(0.42205 0.563533 -7.82755e-19)
(0.42399 0.556006 2.46782e-19)
(0.425807 0.548041 -2.34345e-19)
(0.427497 0.539647 0)
(0.429057 0.530828 -1.4966e-21)
(0.430479 0.521584 0)
(0.431755 0.511914 1.34154e-18)
(0.432878 0.501812 -1.67132e-18)
(0.433839 0.491271 1.76263e-19)
(0.434628 0.480285 -1.34761e-18)
(0.435238 0.468846 1.15136e-18)
(0.43566 0.456945 -1.55952e-19)
(0.435884 0.444572 0)
(0.4359 0.43172 0)
(0.4357 0.418376 -1.10604e-18)
(0.435272 0.404531 2.88933e-19)
(0.434606 0.390172 1.04746e-18)
(0.43369 0.375288 7.39811e-19)
(0.432513 0.359866 -9.74781e-19)
(0.431061 0.34389 0)
(0.429322 0.327344 0)
(0.42728 0.310213 -2.14865e-19)
(0.424921 0.292477 0)
(0.42223 0.274115 -2.04303e-19)
(0.419191 0.255106 5.68543e-19)
(0.415788 0.235425 -7.57829e-19)
(0.412004 0.215047 3.60758e-19)
(0.407823 0.193943 3.46962e-19)
(0.403229 0.172086 3.33382e-19)
(0.398206 0.149443 0)
(0.392739 0.125986 2.85511e-19)
(0.386901 0.102035 -3.00684e-19)
(0.380872 0.0782743 5.28003e-19)
(0.374767 0.0550627 -2.66837e-19)
(0.368611 0.0324335 9.25154e-19)
(0.36245 0.0104155 -5.70198e-20)
(0.356275 -0.0110766 1.55132e-19)
(0.350075 -0.0321149 -8.10663e-19)
(0.343891 -0.0526998 6.17092e-19)
(0.337729 -0.0728246 -5.37613e-19)
(0.331594 -0.0924832 0)
(0.325494 -0.111668 7.47445e-20)
(0.319436 -0.130372 5.223e-19)
(0.313424 -0.148584 -1.04357e-19)
(0.307464 -0.166294 -3.97782e-20)
(0.301559 -0.183494 -4.25646e-19)
(0.295709 -0.200172 -1.28145e-21)
(0.289916 -0.216319 2.2299e-19)
(0.284182 -0.231913 -2.95266e-19)
(0.278514 -0.246901 2.23304e-19)
(0.272924 -0.261183 -2.27312e-19)
(0.267477 -0.274676 1.51995e-19)
(0.262137 -0.287541 -1.40088e-19)
(0.25686 -0.29996 0)
(0.251684 -0.311968 0)
(0.2466 -0.323592 5.2417e-20)
(0.241605 -0.334868 -4.52699e-20)
(0.236698 -0.345838 8.94785e-22)
(0.231882 -0.35655 -2.69273e-22)
(0.22716 -0.367054 -2.91516e-20)
(0.222541 -0.377402 2.82506e-20)
(0.158857 -0.115394 -4.12683e-18)
(-0.0206086 -0.0740273 2.81723e-16)
(0.00785804 -0.0763997 -2.16104e-16)
(0.00830098 -0.0800637 6.7284e-17)
(0.00783134 -0.0814665 0)
(0.00755894 -0.0818539 0)
(0.00736225 -0.0816268 -1.45032e-18)
(0.007233 -0.0808697 -1.941e-17)
(0.00722071 -0.0795293 3.45399e-17)
(0.00739651 -0.0774324 -1.67728e-17)
(0.00787008 -0.0742992 0)
(0.00878285 -0.0698155 9.77096e-24)
(0.0103007 -0.063652 -4.75597e-19)
(0.0126091 -0.0554502 0)
(0.0158989 -0.044867 8.28773e-19)
(0.0203804 -0.0316438 7.60096e-19)
(0.0263385 -0.0156768 -6.88266e-19)
(0.0342131 0.00317279 -6.12222e-19)
(0.0442644 0.0255272 0)
(0.0570239 0.0524965 0)
(0.0731311 0.0852472 4.66605e-19)
(0.0927117 0.124066 -6.31027e-22)
(0.115607 0.168493 3.83615e-19)
(0.141415 0.217244 -7.68465e-22)
(0.169408 0.26847 0)
(0.19862 0.320012 -2.722e-19)
(0.227974 0.36973 -7.24653e-19)
(0.256373 0.415648 -2.16968e-19)
(0.283012 0.456133 0)
(0.307127 0.490387 0)
(0.328364 0.518415 -3.2225e-19)
(0.346886 0.540671 3.01538e-19)
(0.362799 0.557699 1.69232e-18)
(0.37622 0.570234 -2.8234e-19)
(0.387457 0.578868 -2.67336e-19)
(0.39683 0.584154 -2.15551e-18)
(0.404646 0.586645 -1.79561e-18)
(0.411188 0.586868 2.13728e-18)
(0.416712 0.585288 -1.60174e-18)
(0.421442 0.582293 1.52459e-18)
(0.425562 0.578186 -3.57179e-19)
(0.429215 0.573194 0)
(0.432508 0.567478 2.86242e-18)
(0.435514 0.56115 -2.42616e-18)
(0.438281 0.554286 -2.84793e-19)
(0.44084 0.546934 2.69704e-19)
(0.443206 0.539125 2.57529e-19)
(0.44539 0.530873 -1.45027e-18)
(0.447393 0.522187 1.86427e-18)
(0.449216 0.513068 0)
(0.450854 0.503513 -4.22046e-19)
(0.452305 0.493518 0)
(0.453562 0.483076 0)
(0.454619 0.47218 -3.68409e-19)
(0.45547 0.460821 0)
(0.456107 0.448992 -3.38317e-19)
(0.456523 0.436683 3.24641e-19)
(0.456708 0.423886 -1.22956e-18)
(0.456653 0.41059 1.50361e-18)
(0.456347 0.396786 1.13459e-18)
(0.455778 0.382461 -1.39154e-18)
(0.454934 0.367604 5.33272e-19)
(0.453801 0.352202 4.95327e-19)
(0.452365 0.336238 -9.95207e-19)
(0.450609 0.319698 9.33185e-19)
(0.448517 0.302564 -9.2358e-19)
(0.446071 0.284815 4.35586e-19)
(0.443253 0.266429 8.29487e-19)
(0.440043 0.247384 -8.24967e-19)
(0.43642 0.227651 -3.8724e-19)
(0.432366 0.207204 -7.48998e-19)
(0.427859 0.186011 3.46474e-19)
(0.422879 0.16404 9.88572e-19)
(0.417408 0.141259 -3.58571e-19)
(0.411514 0.117973 9.05251e-19)
(0.40538 0.0948456 -1.21003e-18)
(0.39913 0.0722244 4.7434e-21)
(0.392787 0.0501429 -7.46058e-19)
(0.386421 0.0286572 1.2347e-18)
(0.380018 0.00771756 0)
(0.373552 -0.012774 0)
(0.367071 -0.0328292 1.99566e-19)
(0.360584 -0.0524409 -9.15062e-19)
(0.354098 -0.0716014 7.27453e-19)
(0.347622 -0.0903028 5.46187e-19)
(0.341166 -0.108536 -4.7142e-19)
(0.334735 -0.126293 4.55461e-19)
(0.328337 -0.143562 -4.57918e-19)
(0.321978 -0.160335 -5.71307e-20)
(0.315664 -0.176598 4.96225e-20)
(0.309401 -0.19234 4.38251e-20)
(0.303197 -0.207546 0)
(0.297056 -0.222195 0)
(0.290975 -0.236239 2.75836e-20)
(0.285003 -0.249598 2.37903e-20)
(0.279164 -0.262286 1.38724e-19)
(0.273424 -0.274464 -2.59601e-20)
(0.267777 -0.286213 -1.19787e-19)
(0.262238 -0.297562 5.75137e-20)
(0.256795 -0.30855 -5.87878e-20)
(0.251446 -0.319225 -1.20455e-20)
(0.246195 -0.329642 1.16733e-20)
(0.241049 -0.339861 -2.55461e-20)
(0.236017 -0.34994 -1.7473e-20)
(0.161312 -0.110747 -9.12803e-17)
(-0.0198095 -0.0715699 1.48408e-16)
(0.00967718 -0.0739355 -2.34999e-16)
(0.0105861 -0.0779896 7.66504e-17)
(0.0104005 -0.0798031 1.5241e-18)
(0.0103432 -0.0806384 -3.32913e-17)
(0.0102997 -0.0809308 5.0669e-17)
(0.010261 -0.0808099 -2.02344e-17)
(0.0102648 -0.0803069 1.80437e-17)
(0.0103508 -0.0794205 -1.60872e-17)
(0.0105689 -0.0780437 0)
(0.0109955 -0.076022 4.78676e-19)
(0.0117317 -0.0731504 -1.55953e-17)
(0.0128973 -0.0691729 1.48069e-17)
(0.0146413 -0.063791 -8.90269e-19)
(0.0171314 -0.0566734 -1.3492e-17)
(0.0205364 -0.0474745 1.34268e-17)
(0.0250178 -0.0358952 1.23738e-17)
(0.0307584 -0.0217625 -2.72595e-20)
(0.0380332 -0.00504855 -9.6058e-18)
(0.0471887 0.014628 -5.37228e-19)
(0.0584477 0.0378717 4.87213e-19)
(0.0723257 0.0656099 -1.34498e-18)
(0.0893454 0.0987155 -4.1435e-19)
(0.109521 0.137335 -6.78135e-18)
(0.132703 0.181095 6.15258e-18)
(0.158494 0.228775 -1.60123e-21)
(0.186178 0.278493 5.47684e-19)
(0.214836 0.328025 -4.91295e-19)
(0.243412 0.375162 4.39981e-19)
(0.270951 0.417922 3.54127e-18)
(0.296773 0.455049 -3.20987e-18)
(0.320142 0.486054 3.24027e-19)
(0.34099 0.511187 -1.53383e-21)
(0.359503 0.530848 2.84323e-19)
(0.375616 0.545585 2.68451e-19)
(0.389497 0.556072 -4.31385e-18)
(0.401394 0.562899 3.26072e-20)
(0.411563 0.566626 4.12791e-18)
(0.420253 0.567797 0)
(0.4277 0.56691 0)
(0.434117 0.564399 0)
(0.439695 0.560612 -3.29561e-18)
(0.444593 0.555817 2.80063e-18)
(0.44894 0.550207 0)
(0.452832 0.543917 0)
(0.45634 0.537038 -2.65049e-18)
(0.459514 0.529627 1.97979e-18)
(0.462389 0.521718 2.11973e-18)
(0.464989 0.513331 -2.03888e-18)
(0.467329 0.504475 4.7984e-19)
(0.46942 0.495152 0)
(0.471268 0.485362 0)
(0.472873 0.475102 8.33628e-19)
(0.474238 0.464366 1.57916e-18)
(0.475359 0.453151 -1.1552e-18)
(0.476234 0.44145 -3.62162e-19)
(0.476856 0.429256 0)
(0.477217 0.416561 -1.6542e-18)
(0.47731 0.403358 2.58702e-20)
(0.477123 0.389639 1.54636e-18)
(0.476645 0.375392 -1.17876e-18)
(0.47586 0.360606 5.62823e-19)
(0.474753 0.345268 0)
(0.473307 0.329364 0)
(0.471505 0.312877 4.84397e-19)
(0.469324 0.295788 -2.8977e-20)
(0.466745 0.278077 -2.96558e-20)
(0.463743 0.259721 -4.56861e-19)
(0.460295 0.240692 0)
(0.456375 0.220963 8.19384e-19)
(0.451959 0.200501 7.9131e-19)
(0.447021 0.179272 -1.13124e-18)
(0.441536 0.157239 -7.11152e-19)
(0.43557 0.134696 0)
(0.429307 0.112275 -1.89942e-18)
(0.422878 0.0903129 1.55206e-18)
(0.416314 0.0688381 5.21965e-21)
(0.409685 0.0479202 -2.67627e-19)
(0.402993 0.0275801 2.51485e-19)
(0.396215 0.00770063 2.37376e-19)
(0.38938 -0.0117566 0)
(0.382508 -0.0307874 0)
(0.375607 -0.0493829 0)
(0.368688 -0.0675341 -6.90687e-19)
(0.36176 -0.0852317 -1.12449e-19)
(0.354832 -0.102467 1.36339e-18)
(0.347913 -0.119233 -6.44258e-19)
(0.341015 -0.135524 -4.1473e-19)
(0.334151 -0.151332 4.67717e-19)
(0.327337 -0.166649 0)
(0.320589 -0.18146 3.25183e-19)
(0.313921 -0.195748 -3.1451e-19)
(0.307325 -0.209486 0)
(0.300831 -0.222623 -5.20592e-20)
(0.294478 -0.235147 -1.56084e-19)
(0.288223 -0.247123 1.52257e-19)
(0.282054 -0.258627 -9.58011e-20)
(0.27599 -0.269697 9.26166e-20)
(0.270021 -0.280386 0)
(0.264147 -0.290754 -2.22363e-20)
(0.258377 -0.300868 1.76282e-20)
(0.252725 -0.310799 2.1559e-20)
(0.247204 -0.320618 -6.14818e-20)
(0.241832 -0.33039 4.2252e-20)
(0.162985 -0.106753 2.89687e-18)
(-0.0189231 -0.0706799 0)
(0.0113507 -0.0728798 -1.16195e-16)
(0.0123943 -0.076933 8.05504e-17)
(0.012324 -0.0787832 -1.77862e-24)
(0.0123368 -0.0797245 -1.10113e-18)
(0.0123238 -0.0802146 0)
(0.0122768 -0.0804045 -2.02289e-17)
(0.0122266 -0.0803479 1.82489e-17)
(0.0122001 -0.0800328 0)
(0.0122251 -0.0794671 9.11992e-19)
(0.0123377 -0.0786121 0)
(0.0125859 -0.0773657 -4.24413e-23)
(0.0130455 -0.0756144 -1.41243e-17)
(0.0137891 -0.0731898 2.82476e-17)
(0.0149384 -0.0698653 -1.39489e-17)
(0.016606 -0.0653387 1.35249e-17)
(0.0189592 -0.0592408 -2.75063e-17)
(0.0221475 -0.0512373 1.2198e-17)
(0.0263151 -0.0409848 7.07388e-19)
(0.0316153 -0.0282162 -6.50994e-19)
(0.0382276 -0.0128149 -8.27793e-18)
(0.0464018 0.00526239 9.57124e-18)
(0.0564534 0.0264647 9.53851e-19)
(0.0685596 0.0513369 8.62064e-19)
(0.0832039 0.0805974 -7.95875e-19)
(0.100907 0.114908 7.35032e-19)
(0.121631 0.154216 0)
(0.145179 0.197931 -1.43439e-21)
(0.171119 0.244564 1.51963e-21)
(0.198715 0.292033 -4.97188e-19)
(0.227062 0.338163 0)
(0.255182 0.380992 0)
(0.282297 0.418935 6.16519e-18)
(0.307751 0.451307 -4.65386e-18)
(0.33105 0.478056 0)
(0.352183 0.499491 -4.57185e-18)
(0.371193 0.516011 7.57953e-18)
(0.38804 0.52822 -4.62638e-18)
(0.402839 0.536718 0)
(0.415771 0.542028 -4.13516e-18)
(0.427029 0.544643 3.51769e-18)
(0.436804 0.545023 8.31471e-19)
(0.445282 0.543583 -3.5368e-18)
(0.452645 0.540676 2.63829e-18)
(0.459063 0.53658 0)
(0.464682 0.531508 2.68993e-18)
(0.469627 0.525615 -3.22771e-18)
(0.473996 0.51901 2.42532e-18)
(0.477869 0.511767 -1.75074e-18)
(0.481307 0.503936 -2.74257e-18)
(0.484354 0.495547 2.11009e-18)
(0.487046 0.486622 -5.00809e-19)
(0.489408 0.477172 1.41259e-18)
(0.491456 0.467205 -2.8141e-20)
(0.493201 0.456724 -1.74069e-18)
(0.494652 0.445732 0)
(0.495809 0.434229 -2.35099e-18)
(0.496671 0.422212 2.25318e-18)
(0.497236 0.409678 -1.4536e-18)
(0.497494 0.396623 0)
(0.497436 0.383041 6.561e-19)
(0.497048 0.368925 1.88478e-18)
(0.496314 0.354263 5.79346e-19)
(0.495219 0.339044 -3.04945e-20)
(0.493741 0.323255 -5.75769e-19)
(0.491859 0.306879 2.10461e-18)
(0.489547 0.289896 -2.08093e-18)
(0.486779 0.272286 -9.82273e-19)
(0.483526 0.254021 1.84846e-18)
(0.479758 0.235075 -1.37727e-18)
(0.475444 0.215414 -1.72656e-18)
(0.470553 0.195002 2.43263e-18)
(0.465053 0.173799 -8.17233e-19)
(0.459003 0.152081 0)
(0.452586 0.130453 -6.73413e-19)
(0.445941 0.109231 7.04924e-19)
(0.439109 0.0884374 -2.14814e-18)
(0.432146 0.0681431 1.49052e-18)
(0.425097 0.0484333 -5.46329e-19)
(0.417953 0.0292194 -1.25183e-18)
(0.410704 0.0104263 6.22783e-20)
(0.403379 -0.00795441 6.06998e-20)
(0.395992 -0.0259146 8.78515e-19)
(0.388551 -0.0434438 9.59666e-19)
(0.381068 -0.0605323 -5.53674e-20)
(0.373556 -0.0771745 -5.25619e-19)
(0.366032 -0.09337 1.54398e-19)
(0.358517 -0.109122 -5.25225e-19)
(0.351035 -0.124436 6.39868e-19)
(0.343613 -0.139314 0)
(0.336278 -0.153746 3.5865e-19)
(0.329045 -0.167704 -6.11533e-19)
(0.321906 -0.181149 2.94643e-19)
(0.314891 -0.194026 2.42222e-19)
(0.307985 -0.206319 -2.07244e-19)
(0.301131 -0.218044 2.00524e-20)
(0.294353 -0.229252 -9.37618e-20)
(0.287663 -0.239999 9.37618e-20)
(0.281059 -0.250355 8.40531e-21)
(0.274554 -0.260394 4.27285e-21)
(0.268166 -0.270198 0)
(0.261917 -0.27985 7.0784e-22)
(0.255828 -0.28943 -1.92063e-21)
(0.249922 -0.299014 -2.99663e-21)
(0.244221 -0.308666 1.31617e-19)
(0.238744 -0.318441 -1.37833e-19)
(0.164246 -0.103045 -9.40101e-17)
(-0.0180277 -0.0703842 0)
(0.0128667 -0.0722746 1.26073e-16)
(0.0138777 -0.0762086 -8.2797e-17)
(0.013844 -0.0779543 -1.67175e-18)
(0.0138696 -0.078836 2.29238e-18)
(0.0138487 -0.0793232 2.72066e-17)
(0.0137716 -0.0795757 -2.22897e-17)
(0.0136645 -0.0796583 -1.12771e-18)
(0.0135483 -0.0795988 -1.66911e-17)
(0.0134399 -0.0794055 1.42181e-17)
(0.0133561 -0.0790568 8.29455e-19)
(0.0133194 -0.0785377 -1.44585e-23)
(0.0133523 -0.0777953 7.96405e-19)
(0.0135052 -0.0767471 8.08444e-19)
(0.0138273 -0.0752702 1.31646e-17)
(0.0143854 -0.0732152 -2.95023e-20)
(0.0152659 -0.0703938 -1.24357e-17)
(0.0166055 -0.0664908 0)
(0.0185446 -0.0611796 -7.83635e-19)
(0.0212334 -0.054069 -1.03933e-17)
(0.0248454 -0.0448123 9.74391e-18)
(0.0295063 -0.0330941 1.02574e-17)
(0.0353716 -0.0186972 -9.42946e-18)
(0.0426229 -0.00157982 0)
(0.0515334 0.0182877 9.51525e-19)
(0.0624065 0.0413305 0)
(0.0753996 0.0680096 7.71639e-19)
(0.0910031 0.0988248 1.42564e-18)
(0.109709 0.134108 -6.59757e-19)
(0.131372 0.173443 6.05155e-19)
(0.155704 0.215869 -1.10449e-18)
(0.182196 0.259714 1.00069e-18)
(0.210095 0.303011 -8.11187e-18)
(0.238518 0.343976 6.56156e-18)
(0.266617 0.381155 0)
(0.293748 0.413603 5.38673e-18)
(0.319275 0.441039 -3.74057e-18)
(0.342877 0.463638 0)
(0.364572 0.481704 0)
(0.384291 0.495641 5.13366e-19)
(0.401993 0.506022 0)
(0.417748 0.513287 -4.62634e-19)
(0.43168 0.517825 0)
(0.443924 0.520004 -2.92457e-18)
(0.454626 0.520176 3.21422e-18)
(0.463949 0.518656 -7.63736e-19)
(0.472056 0.515712 7.21801e-19)
(0.479108 0.511563 0)
(0.485248 0.506379 -6.53793e-19)
(0.490604 0.500296 6.22215e-19)
(0.495281 0.493413 5.97099e-19)
(0.499366 0.485804 -4.7934e-21)
(0.50293 0.477524 0)
(0.506027 0.468614 1.52257e-18)
(0.508697 0.459102 -3.13967e-20)
(0.510972 0.449011 -1.88228e-18)
(0.512871 0.438356 8.8605e-19)
(0.514408 0.427149 -8.38137e-19)
(0.51559 0.415394 8.23072e-19)
(0.51642 0.403101 -1.53468e-18)
(0.516891 0.390272 2.21931e-18)
(0.516994 0.376903 -2.13883e-18)
(0.516715 0.362987 -2.01392e-18)
(0.516041 0.348517 1.31468e-18)
(0.514953 0.333486 -6.252e-19)
(0.513427 0.317883 -2.3438e-18)
(0.511433 0.301691 1.16596e-18)
(0.508943 0.284889 -5.04426e-19)
(0.505925 0.267457 3.17281e-18)
(0.502342 0.249365 1.50079e-20)
(0.498156 0.230582 -1.48855e-20)
(0.493328 0.211068 -1.77977e-18)
(0.48782 0.190784 1.73e-18)
(0.481683 0.169988 -2.51078e-18)
(0.475097 0.149253 -1.51157e-18)
(0.468203 0.128874 2.2384e-18)
(0.461052 0.108864 -1.34915e-18)
(0.453684 0.0892681 3.2294e-18)
(0.446184 0.0701944 -9.40836e-19)
(0.438577 0.0516781 1.09261e-18)
(0.430839 0.0336191 -1.09342e-18)
(0.422989 0.0159615 -1.21333e-18)
(0.415037 -0.00128907 7.25704e-19)
(0.40699 -0.0181203 6.19157e-19)
(0.398869 -0.0345273 -1.029e-18)
(0.390702 -0.0505101 -1.80334e-19)
(0.382515 -0.0660809 3.04845e-19)
(0.374344 -0.081261 -1.35259e-18)
(0.366224 -0.096064 5.65497e-19)
(0.358185 -0.1105 1.20601e-19)
(0.350247 -0.124571 0)
(0.342408 -0.138234 -4.38809e-20)
(0.33466 -0.151393 2.84748e-19)
(0.327016 -0.163941 -3.07434e-19)
(0.319412 -0.175867 -1.69616e-19)
(0.311821 -0.187218 3.52903e-19)
(0.304295 -0.198044 -1.55172e-19)
(0.296843 -0.208416 1.04191e-19)
(0.289483 -0.218412 -9.7452e-20)
(0.282241 -0.22812 -6.67234e-20)
(0.275144 -0.237632 4.51311e-20)
(0.268222 -0.247041 -1.36946e-20)
(0.261505 -0.256437 2.80269e-20)
(0.255021 -0.2659 0)
(0.248796 -0.275499 3.83439e-21)
(0.242852 -0.285287 0)
(0.237203 -0.295303 -5.43702e-21)
(0.165296 -0.0994391 9.5233e-17)
(-0.0171676 -0.0701888 -3.16594e-16)
(0.0142603 -0.0717259 -3.70308e-18)
(0.0151994 -0.0755565 8.43495e-17)
(0.0151871 -0.0771789 0)
(0.0152214 -0.0779581 -1.18491e-18)
(0.015203 -0.0783746 -2.82044e-17)
(0.0151231 -0.0785921 3.60891e-20)