/*--------------------------------*- C++ -*----------------------------------*\
  =========                 |
  \\      /  F ield         | OpenFOAM: The Open Source CFD Toolbox
   \\    /   O peration     | Website:  https://openfoam.org
    \\  /    A nd           | Version:  10
     \\/     M anipulation  |
\*---------------------------------------------------------------------------*/
FoamFile
{
    format      ascii;
    class       volVectorField;
    location    "22000";
    object      U;
}
// * * * * * * * * * * * * * * * * * * * * * * * * * * * * * * * * * * * * * //

dimensions      [0 1 -1 0 0 0 0];

internalField   nonuniform List<vector> 
17922
(
(-3.38742 3.70723 0)
(-3.38278 3.70215 5.1099e-19)
(-3.37789 3.69678 -1.99036e-18)
(-3.37274 3.69113 5.38304e-24)
(-3.36733 3.68518 4.65659e-19)
(-3.36165 3.67895 9.06242e-19)
(-3.35571 3.67242 2.42864e-23)
(-3.34949 3.66559 4.2297e-19)
(-3.343 3.65845 -3.8812e-21)
(-3.33624 3.65101 -3.9984e-19)
(-3.3292 3.64326 -3.07881e-18)
(-3.32187 3.6352 0)
(-3.31426 3.62682 0)
(-3.30636 3.61812 -3.45552e-19)
(-3.29817 3.6091 3.37422e-19)
(-3.28969 3.59975 -3.22062e-19)
(-3.2809 3.59007 3.1451e-19)
(-3.27182 3.58005 -1.20662e-18)
(-3.26243 3.5697 -2.89118e-19)
(-3.25274 3.559 -1.1184e-18)
(-3.24274 3.54796 -8.09265e-19)
(-3.23242 3.53658 2.58707e-19)
(-3.22179 3.52484 -1.25627e-18)
(-3.21084 3.51274 9.66348e-19)
(-3.19957 3.50029 -9.30191e-19)
(-3.18797 3.48748 0)
(-3.17605 3.4743 0)
(-3.16379 3.46076 0)
(-3.15132 3.44697 1.61442e-18)
(-3.13885 3.43318 1.98074e-19)
(-3.12649 3.41952 5.91641e-19)
(-3.11426 3.40599 1.5673e-18)
(-3.10215 3.39259 -6.80505e-19)
(-3.09017 3.37934 6.73411e-19)
(-3.07832 3.36624 -7.64684e-19)
(-3.06661 3.35329 0)
(-3.05503 3.34049 9.35113e-20)
(-3.0436 3.32784 -9.37148e-19)
(-3.03231 3.31535 -5.59133e-19)
(-3.02116 3.30302 -9.27118e-19)
(-3.01016 3.29086 9.30183e-20)
(-2.99931 3.27885 -9.10714e-20)
(-2.98861 3.26701 -6.39778e-19)
(-2.97805 3.25533 -9.04711e-20)
(-2.96766 3.24383 7.30549e-19)
(-2.95743 3.23252 -1.27618e-18)
(-2.94737 3.2214 -1.46067e-21)
(-2.93748 3.21046 -7.31711e-19)
(-2.92775 3.1997 6.38738e-19)
(-2.91819 3.18912 0)
(-2.90879 3.17873 3.66025e-19)
(-2.89956 3.1685 3.66324e-19)
(-2.89048 3.15846 -4.57633e-19)
(-2.88156 3.14858 4.59601e-19)
(-2.87281 3.13888 0)
(-2.8642 3.12935 2.76758e-19)
(-2.85576 3.11998 9.28576e-20)
(-2.84746 3.11078 3.69156e-19)
(-2.83932 3.10175 0)
(-2.83134 3.09288 -3.70534e-19)
(-2.8235 3.08418 0)
(-2.81581 3.07563 9.23031e-20)
(-2.80828 3.06725 -4.66834e-19)
(-2.80088 3.05902 -3.73778e-19)
(-2.79364 3.05095 3.74719e-19)
(-2.78654 3.04303 -3.75643e-19)
(-2.77958 3.03527 2.83145e-19)
(-2.77276 3.02766 -1.88727e-19)
(-2.76608 3.02019 -4.73684e-19)
(-2.75954 3.01287 0)
(-2.75313 3.0057 1.90167e-19)
(-2.74686 2.99866 1.90697e-19)
(-2.74072 2.99177 -1.85465e-23)
(-2.73471 2.98502 2.87488e-19)
(-2.72885 2.97842 -2.90276e-19)
(-2.72311 2.97197 1.94087e-19)
(-2.71752 2.96566 1.95143e-19)
(-2.71206 2.95949 -3.91847e-19)
(-2.70672 2.95346 9.73404e-20)
(-2.70149 2.94753 -9.83456e-20)
(-2.69632 2.9417 2.89064e-19)
(-2.69118 2.93591 -1.8981e-19)
(-2.68606 2.93016 1.34972e-21)
(-2.68095 2.92443 9.20137e-20)
(-2.67588 2.91876 4.54371e-19)
(-2.67089 2.91319 -1.35076e-24)
(-2.66599 2.90773 2.74871e-19)
(-2.66117 2.90237 0)
(-2.65644 2.89712 -9.136e-20)
(-2.65179 2.89196 9.30117e-20)
(-2.64721 2.88691 -1.84875e-19)
(-2.64272 2.88195 9.44939e-20)
(-2.63831 2.87708 1.87413e-19)
(-3.37855 3.71533 -5.39536e-19)
(-3.37393 3.71024 5.19783e-19)
(-3.36905 3.70486 -5.08455e-19)
(-3.36391 3.6992 1.96532e-18)
(-3.35851 3.69324 -2.06256e-23)
(-3.35285 3.68699 -4.59926e-19)
(-3.34692 3.68045 1.345e-18)
(-3.34073 3.67361 0)
(-3.33426 3.66646 -2.09778e-18)
(-3.32751 3.659 4.08501e-19)
(-3.32049 3.65124 1.57358e-18)
(-3.31318 3.64316 -1.52212e-18)
(-3.30559 3.63476 0)
(-3.29771 3.62605 0)
(-3.28955 3.61701 0)
(-3.28108 3.60764 1.65798e-18)
(-3.27233 3.59794 1.27839e-18)
(-3.26327 3.5879 9.26357e-19)
(-3.25391 3.57753 2.96679e-19)
(-3.24424 3.56681 8.62071e-19)
(-3.23426 3.55575 3.15502e-23)
(-3.22397 3.54434 0)
(-3.21337 3.53257 2.56121e-19)
(-3.20245 3.52045 -1.24402e-18)
(-3.1912 3.50798 9.56975e-19)
(-3.17964 3.49514 0)
(-3.16775 3.48193 0)
(-3.15553 3.46836 0)
(-3.14308 3.45454 -5.61109e-23)
(-3.13064 3.44072 0)
(-3.11832 3.42703 2.01975e-19)
(-3.10612 3.41347 -2.03468e-19)
(-3.09404 3.40005 1.59984e-18)
(-3.08209 3.38678 5.96626e-19)
(-3.07027 3.37364 1.98436e-19)
(-3.05859 3.36066 0)
(-3.04705 3.34784 -7.76361e-19)
(-3.03564 3.33516 7.71581e-19)
(-3.02438 3.32265 8.62254e-19)
(-3.01326 3.31029 6.66873e-19)
(-3.00229 3.2981 -6.65141e-19)
(-2.99147 3.28607 6.60619e-19)
(-2.98079 3.2742 0)
(-2.97027 3.2625 -9.3014e-20)
(-2.9599 3.25098 -7.47871e-19)
(-2.9497 3.23964 1.5934e-18)
(-2.93966 3.22849 9.29825e-20)
(-2.9298 3.21753 5.62748e-19)
(-2.9201 3.20675 -6.56185e-19)
(-2.91057 3.19615 4.68755e-19)
(-2.90119 3.18573 1.87912e-19)
(-2.89198 3.17548 -2.81347e-19)
(-2.88293 3.16541 3.7641e-19)
(-2.87404 3.15552 0)
(-2.86531 3.14579 -9.35414e-20)
(-2.85673 3.13624 9.51211e-20)
(-2.84831 3.12685 3.78006e-19)
(-2.84004 3.11763 -3.78556e-19)
(-2.83193 3.10858 0)
(-2.82396 3.09969 -9.42105e-20)
(-2.81615 3.09097 9.58431e-20)
(-2.80849 3.0824 -9.45673e-20)
(-2.80097 3.074 7.65378e-19)
(-2.79361 3.06575 4.79208e-19)
(-2.78639 3.05767 0)
(-2.77931 3.04973 0)
(-2.77237 3.04195 -9.56066e-20)
(-2.76558 3.03432 4.83456e-19)
(-2.75892 3.02684 7.74039e-19)
(-2.7524 3.0195 0)
(-2.74601 3.01231 0)
(-2.73976 3.00526 -2.93075e-19)
(-2.73364 2.99835 -1.9696e-19)
(-2.72766 2.99159 -9.88498e-20)
(-2.72181 2.98498 1.97148e-19)
(-2.7161 2.97851 -1.98147e-19)
(-2.71053 2.97218 -1.99112e-19)
(-2.70509 2.966 1.00642e-19)
(-2.69976 2.95995 2.01333e-19)
(-2.69454 2.95401 2.0035e-19)
(-2.68938 2.94816 1.4161e-21)
(-2.68426 2.94236 -9.58614e-20)
(-2.67915 2.93658 1.19917e-23)
(-2.67405 2.93083 -2.78133e-19)
(-2.66899 2.92515 -9.18355e-20)
(-2.66401 2.91956 -2.77233e-19)
(-2.65912 2.91409 -9.21951e-20)
(-2.65431 2.90871 0)
(-2.64959 2.90344 0)
(-2.64494 2.89827 2.80521e-19)
(-2.64038 2.8932 -9.41034e-20)
(-2.6359 2.88823 6.52434e-22)
(-2.6315 2.88335 0)
(-3.3694 3.72365 5.40171e-19)
(-3.36479 3.71855 -5.28754e-19)
(-3.35992 3.71316 2.04561e-18)
(-3.3548 3.70748 -1.98549e-18)
(-3.34942 3.70151 -9.63228e-19)
(-3.34377 3.69525 -4.65074e-19)
(-3.33786 3.6887 1.36065e-18)
(-3.33168 3.68184 1.75565e-18)
(-3.32523 3.67467 1.27772e-18)
(-3.3185 3.6672 -1.23343e-18)
(-3.3115 3.65942 0)
(-3.30421 3.65133 1.9271e-18)
(-3.29664 3.64291 -3.75191e-19)
(-3.28879 3.63418 -3.5896e-19)
(-3.28064 3.62512 3.5083e-19)
(-3.2722 3.61573 1.34852e-18)
(-3.26347 3.60601 -2.60528e-18)
(-3.25443 3.59595 0)
(-3.2451 3.58556 -9.12511e-19)
(-3.23546 3.57482 -3.77482e-21)
(-3.22551 3.56373 2.25649e-18)
(-3.21525 3.5523 -5.44865e-19)
(-3.20467 3.54051 1.05416e-18)
(-3.19378 3.52836 3.68191e-21)
(-3.18257 3.51586 -9.71389e-19)
(-3.17103 3.50299 2.36561e-19)
(-3.15917 3.48976 0)
(-3.14699 3.47616 2.15574e-19)
(-3.13458 3.46231 -1.91011e-18)
(-3.12217 3.44846 -2.08093e-19)
(-3.10988 3.43474 1.04034e-18)
(-3.09771 3.42116 -8.2302e-19)
(-3.08566 3.40771 -1.01791e-18)
(-3.07374 3.3944 -4.04456e-19)
(-3.06196 3.38124 -4.01284e-19)
(-3.05031 3.36823 9.97535e-19)
(-3.0388 3.35537 9.87544e-19)
(-3.02742 3.34267 -1.98194e-19)
(-3.01619 3.33013 0)
(-3.00511 3.31775 -9.70229e-19)
(-2.99416 3.30553 7.76675e-19)
(-2.98337 3.29347 1.94034e-19)
(-2.97272 3.28158 -6.71492e-19)
(-2.96222 3.26985 -8.5994e-19)
(-2.95188 3.2583 8.57417e-19)
(-2.94171 3.24694 -9.53507e-19)
(-2.9317 3.23576 -6.66897e-19)
(-2.92187 3.22478 0)
(-2.91219 3.21397 6.69025e-19)
(-2.90269 3.20335 -6.6783e-19)
(-2.89334 3.1929 -4.77044e-19)
(-2.88416 3.18264 9.63618e-20)
(-2.87514 3.17254 0)
(-2.86627 3.16262 0)
(-2.85756 3.15288 -3.83235e-19)
(-2.84901 3.1433 0)
(-2.84061 3.13389 -3.84041e-19)
(-2.83237 3.12465 0)
(-2.82428 3.11558 3.84996e-19)
(-2.81634 3.10667 0)
(-2.80856 3.09793 0)
(-2.80092 3.08934 0)
(-2.79343 3.08092 -3.87601e-19)
(-2.78608 3.07266 0)
(-2.77889 3.06455 -9.65386e-20)
(-2.77183 3.0566 1.94945e-19)
(-2.76492 3.0488 -1.95337e-19)
(-2.75815 3.04115 -2.92838e-19)
(-2.75151 3.03365 -3.9224e-19)
(-2.74501 3.0263 0)
(-2.73865 3.01909 -1.9691e-19)
(-2.73242 3.01202 1.97402e-19)
(-2.72632 3.0051 1.97956e-19)
(-2.72036 2.99832 0)
(-2.71453 2.99169 0)
(-2.70884 2.98521 9.95036e-20)
(-2.70329 2.97887 -1.01409e-19)
(-2.69787 2.97267 0)
(-2.69256 2.96661 -1.00269e-19)
(-2.68735 2.96065 -9.97137e-20)
(-2.68221 2.95478 0)
(-2.6771 2.94896 3.89632e-19)
(-2.672 2.94317 1.90709e-19)
(-2.66691 2.9374 -1.87422e-19)
(-2.66186 2.9317 0)
(-2.65689 2.92609 9.40243e-20)
(-2.65201 2.9206 9.42298e-20)
(-2.64721 2.91521 1.87598e-19)
(-2.64249 2.90993 1.87488e-19)
(-2.63786 2.90474 -2.8317e-19)
(-2.63331 2.89966 9.47518e-20)
(-2.62883 2.89467 -1.31337e-21)
(-2.62444 2.88978 -9.62744e-20)
(-3.35995 3.73219 5.48769e-19)
(-3.35535 3.72707 -5.2918e-19)
(-3.3505 3.72167 -1.02803e-18)
(-3.3454 3.71599 1.50554e-18)
(-3.34003 3.71001 4.84412e-19)
(-3.3344 3.70373 -9.44096e-19)
(-3.32851 3.69716 -1.5158e-23)
(-3.32234 3.69029 -4.46048e-19)
(-3.31591 3.68311 4.28284e-19)
(-3.3092 3.67562 1.24879e-18)
(-3.30222 3.66782 0)
(-3.29495 3.65971 0)
(-3.28741 3.65128 -1.5134e-18)
(-3.27957 3.64253 1.46412e-18)
(-3.27145 3.63345 0)
(-3.26304 3.62404 -1.70905e-18)
(-3.25433 3.6143 1.65541e-18)
(-3.24532 3.60422 -1.27776e-18)
(-3.23601 3.5938 2.46779e-18)
(-3.2264 3.58304 -2.95852e-19)
(-3.21648 3.57193 -8.6013e-19)
(-3.20624 3.56047 0)
(-3.1957 3.54865 -1.06909e-18)
(-3.18484 3.53648 -1.03056e-18)
(-3.17365 3.52395 1.23953e-18)
(-3.16215 3.51106 -4.78331e-19)
(-3.15033 3.4978 2.32158e-19)
(-3.13817 3.48417 0)
(-3.1258 3.47029 0)
(-3.11343 3.45641 0)
(-3.10117 3.44266 -8.471e-19)
(-3.08903 3.42904 0)
(-3.07702 3.41556 -8.31383e-19)
(-3.06513 3.40223 -1.02875e-18)
(-3.05338 3.38904 4.08932e-19)
(-3.04176 3.376 -1.01647e-18)
(-3.03028 3.36311 0)
(-3.01894 3.35039 0)
(-3.00774 3.33782 0)
(-2.99669 3.32541 1.96318e-19)
(-2.98577 3.31316 5.89091e-19)
(-2.97501 3.30107 -1.94361e-19)
(-2.96439 3.28915 9.76978e-19)
(-2.95392 3.2774 7.77253e-19)
(-2.94361 3.26582 7.76136e-19)
(-2.93347 3.25443 7.75989e-19)
(-2.92349 3.24323 4.78341e-23)
(-2.91368 3.23222 0)
(-2.90404 3.22139 -9.63575e-20)
(-2.89456 3.21074 8.74746e-19)
(-2.88524 3.20027 -2.92169e-19)
(-2.87608 3.18998 -4.86611e-19)
(-2.86709 3.17987 0)
(-2.85825 3.16992 -9.65011e-20)
(-2.84957 3.16015 4.87407e-19)
(-2.84105 3.15056 9.6641e-20)
(-2.83268 3.14113 1.94962e-19)
(-2.82446 3.13187 5.85508e-19)
(-2.81639 3.12277 -5.86214e-19)
(-2.80848 3.11384 4.89866e-19)
(-2.80072 3.10508 -9.72113e-20)
(-2.79311 3.09647 9.88644e-20)
(-2.78564 3.08803 3.93082e-19)
(-2.77832 3.07975 -9.76945e-20)
(-2.77115 3.07162 4.93824e-19)
(-2.76412 3.06365 -3.95169e-19)
(-2.75723 3.05583 0)
(-2.75048 3.04816 3.96613e-19)
(-2.74387 3.04065 9.85781e-20)
(-2.73739 3.03328 -2.99226e-19)
(-2.73105 3.02605 2.99801e-19)
(-2.72484 3.01897 1.00644e-19)
(-2.71877 3.01203 -5.00118e-19)
(-2.71283 3.00524 1.01246e-19)
(-2.70702 2.99859 0)
(-2.70135 2.99209 2.02716e-19)
(-2.69582 2.98574 4.07145e-19)
(-2.69042 2.97953 0)
(-2.68513 2.97345 -3.05174e-19)
(-2.67994 2.96748 2.02691e-19)
(-2.67481 2.96159 -3.0091e-19)
(-2.66971 2.95574 -2.93908e-19)
(-2.66461 2.94993 1.37494e-21)
(-2.65953 2.94415 4.72927e-19)
(-2.6545 2.93843 0)
(-2.64954 2.93281 -9.47315e-20)
(-2.64466 2.9273 9.35587e-20)
(-2.63987 2.92189 -2.83992e-19)
(-2.63517 2.91659 -2.84085e-19)
(-2.63054 2.91139 9.49908e-20)
(-2.626 2.90629 -9.53216e-20)
(-2.62153 2.90129 9.63765e-20)
(-2.61714 2.89638 0)
(-3.3502 3.74095 1.6545e-18)
(-3.34562 3.73583 -5.33426e-19)
(-3.34078 3.73042 5.22568e-19)
(-3.33569 3.72472 -1.01131e-18)
(-3.33034 3.71872 0)
(-3.32473 3.71244 0)
(-3.31885 3.70585 9.25298e-19)
(-3.31271 3.69896 -1.79525e-18)
(-3.30629 3.69177 -4.33151e-19)
(-3.29961 3.68427 4.23903e-19)
(-3.29264 3.67645 1.63504e-18)
(-3.2854 3.66832 1.97758e-18)
(-3.27788 3.65987 1.14803e-18)
(-3.27007 3.6511 -2.96817e-18)
(-3.26197 3.642 -1.43582e-18)
(-3.25358 3.63257 -3.45165e-19)
(-3.2449 3.62281 3.37599e-19)
(-3.23591 3.6127 9.7502e-19)
(-3.22663 3.60226 -1.87998e-18)
(-3.21705 3.59148 -3.04529e-19)
(-3.20715 3.58034 -2.90152e-19)
(-3.19695 3.56886 2.83796e-19)
(-3.18644 3.55702 1.35762e-18)
(-3.17561 3.54482 2.09381e-18)
(-3.16446 3.53226 -5.05516e-19)
(-3.15299 3.51934 4.87143e-19)
(-3.1412 3.50605 -3.75375e-21)
(-3.12908 3.49239 -2.27703e-19)
(-3.11674 3.47848 -2.18499e-19)
(-3.1044 3.46457 1.09209e-18)
(-3.09218 3.45079 0)
(-3.08008 3.43714 -6.42917e-19)
(-3.0681 3.42363 4.23561e-19)
(-3.05625 3.41026 1.05156e-18)
(-3.04453 3.39704 0)
(-3.03294 3.38397 -1.03183e-18)
(-3.0215 3.37106 2.06945e-19)
(-3.01019 3.3583 0)
(-2.99902 3.3457 8.10581e-19)
(-2.988 3.33326 0)
(-2.97712 3.32099 -6.02872e-19)
(-2.96638 3.30888 5.96576e-19)
(-2.9558 3.29693 -1.9687e-19)
(-2.94536 3.28515 7.93803e-19)
(-2.93508 3.27354 -5.90482e-19)
(-2.92496 3.26213 -9.8484e-19)
(-2.91501 3.2509 7.92356e-19)
(-2.90523 3.23986 1.98897e-19)
(-2.89562 3.22901 -1.57878e-18)
(-2.88617 3.21833 -3.94751e-19)
(-2.87688 3.20784 2.44957e-23)
(-2.86775 3.19752 4.92803e-19)
(-2.85879 3.18738 -9.95147e-20)
(-2.84998 3.17742 0)
(-2.84132 3.16763 0)
(-2.83283 3.15801 -9.81015e-20)
(-2.82448 3.14855 -2.96069e-19)
(-2.81629 3.13927 -3.96107e-19)
(-2.80826 3.13015 0)
(-2.80037 3.1212 -2.85441e-23)
(-2.79263 3.11242 0)
(-2.78505 3.10379 0)
(-2.77761 3.09533 -7.96952e-19)
(-2.77031 3.08703 -3.99062e-19)
(-2.76316 3.07888 -3.99716e-19)
(-2.75616 3.07089 9.93576e-20)
(-2.74929 3.06306 -1.00995e-19)
(-2.74257 3.05537 3.01924e-19)
(-2.73598 3.04784 -3.00874e-19)
(-2.72953 3.04045 2.01413e-19)
(-2.72321 3.03321 -4.03483e-19)
(-2.71702 3.02611 1.0181e-19)
(-2.71097 3.01915 3.04707e-19)
(-2.70505 3.01235 0)
(-2.69927 3.00568 0)
(-2.69362 2.99917 -2.04888e-19)
(-2.68811 2.9928 -4.11308e-19)
(-2.68273 2.98658 0)
(-2.67746 2.98048 2.05783e-19)
(-2.67228 2.97449 1.01462e-19)
(-2.66716 2.96858 2.00256e-19)
(-2.66207 2.96272 -2.97481e-19)
(-2.65699 2.95689 -1.93584e-19)
(-2.65192 2.95108 -1.90246e-19)
(-2.64689 2.94535 -1.89209e-19)
(-2.64194 2.93971 0)
(-2.63708 2.93418 -3.79312e-19)
(-2.6323 2.92876 1.90044e-19)
(-2.6276 2.92344 0)
(-2.62298 2.91823 9.55245e-20)
(-2.61844 2.91311 0)
(-2.61398 2.90809 -9.62067e-20)
(-2.6096 2.90317 -9.66322e-20)
(-3.34014 3.74995 -1.66165e-18)
(-3.33557 3.74482 2.15785e-18)
(-3.33075 3.73939 -4.21836e-21)
(-3.32568 3.73368 5.07789e-19)
(-3.32034 3.72767 0)
(-3.31475 3.72137 -9.62369e-19)
(-3.30889 3.71477 -9.34384e-19)
(-3.30277 3.70787 -2.26499e-18)
(-3.29637 3.70066 4.4196e-19)
(-3.2897 3.69314 -1.70635e-18)
(-3.28276 3.68531 -2.06566e-18)
(-3.27554 3.67716 -1.20017e-18)
(-3.26804 3.66869 0)
(-3.26026 3.6599 -3.73791e-19)
(-3.25218 3.65078 2.18285e-18)
(-3.24382 3.64133 -3.54016e-19)
(-3.23516 3.63154 1.36176e-18)
(-3.22621 3.62142 0)
(-3.21695 3.61095 3.39883e-23)
(-3.2074 3.60014 -1.22923e-18)
(-3.19753 3.58898 1.18711e-18)
(-3.18736 3.57747 -1.14601e-18)
(-3.17688 3.5656 1.10593e-18)
(-3.16608 3.55338 -1.0669e-18)
(-3.15497 3.54079 0)
(-3.14353 3.52784 0)
(-3.13177 3.51452 7.18736e-19)
(-3.11969 3.50083 2.31956e-19)
(-3.10739 3.48689 0)
(-3.09509 3.47294 -8.88589e-19)
(-3.0829 3.45913 0)
(-3.07084 3.44545 8.70737e-19)
(-3.05889 3.43191 -2.1388e-19)
(-3.04708 3.41851 -8.51655e-19)
(-3.03539 3.40526 4.24126e-19)
(-3.02384 3.39216 6.29609e-19)
(-3.01243 3.37922 0)
(-3.00115 3.36643 1.03592e-18)
(-2.99002 3.3538 -8.28278e-19)
(-2.97903 3.34133 -3.34905e-21)
(-2.96818 3.32903 8.12149e-19)
(-2.95748 3.31689 -8.14598e-19)
(-2.94693 3.30491 -4.03685e-19)
(-2.93652 3.2931 -6.01308e-19)
(-2.92627 3.28147 1.99004e-19)
(-2.91618 3.27003 -4.01033e-19)
(-2.90627 3.25877 -5.99865e-19)
(-2.89652 3.24771 -1.98892e-19)
(-2.88693 3.23682 1.80596e-18)
(-2.87751 3.22613 0)
(-2.86825 3.21561 4.00933e-19)
(-2.85916 3.20527 0)
(-2.85022 3.1951 4.00925e-19)
(-2.84144 3.18512 0)
(-2.83281 3.1753 0)
(-2.82434 3.16566 -6.00295e-19)
(-2.81603 3.15618 6.03718e-19)
(-2.80787 3.14688 9.96458e-20)
(-2.79986 3.13774 -1.55298e-21)
(-2.792 3.12876 -5.03727e-19)
(-2.78429 3.11996 -4.02739e-19)
(-2.77673 3.11131 0)
(-2.76931 3.10283 2.90088e-23)
(-2.76205 3.09451 4.04223e-19)
(-2.75492 3.08634 1.0042e-19)
(-2.74794 3.07833 3.03224e-19)
(-2.7411 3.07048 0)
(-2.7344 3.06277 -3.0556e-19)
(-2.72784 3.05522 3.04427e-19)
(-2.72141 3.04781 -1.01097e-19)
(-2.71512 3.04056 1.02778e-19)
(-2.70895 3.03344 -1.02947e-19)
(-2.70293 3.02647 -1.03165e-19)
(-2.69703 3.01965 0)
(-2.69127 3.01297 0)
(-2.68565 3.00644 1.027e-19)
(-2.68015 3.00006 2.06105e-19)
(-2.67479 2.99382 -1.51176e-21)
(-2.66954 2.9877 -2.09019e-19)
(-2.66437 2.98169 -1.48851e-21)
(-2.65927 2.97576 -2.0311e-19)
(-2.65419 2.96988 4.98581e-19)
(-2.64911 2.96403 1.9482e-19)
(-2.64405 2.95821 0)
(-2.63903 2.95245 1.90382e-19)
(-2.63409 2.9468 0)
(-2.62924 2.94125 1.71864e-23)
(-2.62447 2.93581 0)
(-2.61978 2.93048 9.50651e-20)
(-2.61517 2.92525 -1.33541e-21)
(-2.61064 2.92012 -9.62894e-20)
(-2.60619 2.91509 9.7311e-20)
(-2.60181 2.91015 1.93424e-19)
(-3.32975 3.75919 1.11603e-18)
(-3.3252 3.75404 -1.62711e-18)
(-3.3204 3.7486 5.30457e-19)
(-3.31534 3.74288 0)
(-3.31002 3.73686 0)
(-3.30445 3.73054 9.70731e-19)
(-3.29861 3.72393 0)
(-3.2925 3.71701 1.83118e-18)
(-3.28613 3.70978 1.77734e-18)
(-3.27948 3.70225 3.87795e-18)
(-3.27256 3.6944 -4.20206e-19)
(-3.26537 3.68623 0)
(-3.25789 3.67774 0)
(-3.25013 3.66893 1.52224e-18)
(-3.24208 3.65979 1.47402e-18)
(-3.23374 3.65031 3.54661e-19)
(-3.22511 3.64051 -1.72781e-18)
(-3.21619 3.63036 0)
(-3.20696 3.61987 3.26539e-23)
(-3.19744 3.60903 3.23417e-23)
(-3.1876 3.59785 -1.20559e-18)
(-3.17746 3.58631 2.89115e-19)
(-3.16701 3.57442 -1.40704e-18)
(-3.15625 3.56216 2.69217e-19)
(-3.14517 3.54954 -3.9281e-21)
(-3.13377 3.53656 -2.54254e-19)
(-3.12205 3.52321 -9.72917e-19)
(-3.11 3.50949 -1.87401e-18)
(-3.09774 3.49551 -1.82893e-18)
(-3.08548 3.48154 0)
(-3.07333 3.46769 2.21966e-19)
(-3.0613 3.45398 -2.23467e-19)
(-3.04939 3.4404 0)
(-3.03761 3.42697 8.70507e-19)
(-3.02596 3.41369 -6.49237e-19)
(-3.01445 3.40056 -4.28285e-19)
(-3.00307 3.38759 4.25152e-19)
(-2.99183 3.37477 -1.05733e-18)
(-2.98073 3.36211 -8.38994e-19)
(-2.96977 3.34961 0)
(-2.95896 3.33728 -1.86398e-18)
(-2.94829 3.32511 2.07866e-19)
(-2.93777 3.3131 -2.03498e-19)
(-2.92739 3.30127 2.05886e-19)
(-2.91718 3.28961 -6.13154e-19)
(-2.90712 3.27813 -2.0534e-19)
(-2.89724 3.26685 1.42718e-18)
(-2.88752 3.25576 2.05235e-19)
(-2.87797 3.24485 -8.14282e-19)
(-2.86858 3.23413 0)
(-2.85935 3.22358 4.06918e-19)
(-2.85028 3.21322 -4.06833e-19)
(-2.84137 3.20303 -4.068e-19)
(-2.83262 3.19302 -2.01788e-19)
(-2.82403 3.18318 2.04985e-19)
(-2.81559 3.17351 4.0687e-19)
(-2.8073 3.16401 -2.05083e-19)
(-2.79917 3.15468 -6.12279e-19)
(-2.79119 3.14552 6.09456e-19)
(-2.78336 3.13653 2.02233e-19)
(-2.77567 3.1277 4.07964e-19)
(-2.76814 3.11903 2.02593e-19)
(-2.76076 3.11053 2.02813e-19)
(-2.75351 3.10218 -2.03018e-19)
(-2.74642 3.094 -2.03235e-19)
(-2.73946 3.08597 0)
(-2.73265 3.0781 -1.01856e-19)
(-2.72597 3.07038 -3.07431e-19)
(-2.71944 3.0628 4.1137e-19)
(-2.71303 3.05538 -1.02188e-19)
(-2.70676 3.0481 2.07702e-19)
(-2.70062 3.04097 1.04001e-19)
(-2.69462 3.03399 -1.02677e-19)
(-2.68875 3.02715 1.52754e-21)
(-2.68301 3.02045 4.16179e-19)
(-2.67741 3.01391 -1.05173e-19)
(-2.67194 3.00751 0)
(-2.66659 3.00125 -1.04054e-19)
(-2.66136 2.99512 -1.03766e-19)
(-2.65621 2.9891 0)
(-2.65111 2.98315 2.04345e-19)
(-2.64604 2.97724 -2.00278e-19)
(-2.64098 2.97137 -9.72294e-20)
(-2.63592 2.96553 9.69066e-20)
(-2.63092 2.95975 1.91381e-19)
(-2.62598 2.95408 0)
(-2.62114 2.94852 1.91651e-19)
(-2.61638 2.94306 9.66314e-20)
(-2.6117 2.93771 6.75246e-22)
(-2.6071 2.93246 -6.66759e-22)
(-2.60257 2.92732 -2.89992e-19)
(-2.59813 2.92227 9.83354e-20)
(-2.59376 2.91732 9.80496e-20)
(-3.31904 3.76867 -2.24437e-18)
(-3.3145 3.76351 0)
(-3.30971 3.75806 0)
(-3.30467 3.75232 1.03053e-18)
(-3.29937 3.74629 -1.01071e-18)
(-3.29381 3.73996 -4.91373e-19)
(-3.28799 3.73332 -9.50948e-19)
(-3.28191 3.72639 9.23817e-19)
(-3.27556 3.71915 -2.69135e-18)
(-3.26894 3.71159 -1.73746e-18)
(-3.26204 3.70372 8.44989e-19)
(-3.25487 3.69554 -4.11896e-19)
(-3.24741 3.68703 -1.58928e-18)
(-3.23968 3.67819 1.92328e-18)
(-3.23166 3.66903 -1.8674e-18)
(-3.22335 3.65954 1.8043e-18)
(-3.21474 3.64971 -3.51793e-19)
(-3.20585 3.63954 1.35366e-18)
(-3.19665 3.62902 1.3094e-18)
(-3.18716 3.61816 3.09438e-23)
(-3.17736 3.60695 0)
(-3.16725 3.59538 8.88757e-19)
(-3.15683 3.58346 -8.54372e-19)
(-3.1461 3.57118 0)
(-3.13506 3.55853 0)
(-3.12369 3.54551 2.54617e-19)
(-3.11201 3.53213 -2.4945e-19)
(-3.1 3.51838 2.36512e-19)
(-3.08778 3.50437 1.39636e-18)
(-3.07555 3.49036 2.32181e-19)
(-3.06344 3.47648 0)
(-3.05145 3.46273 0)
(-3.03958 3.44913 -6.72037e-19)
(-3.02784 3.43566 -2.23242e-19)
(-3.01623 3.42235 1.09592e-18)
(-3.00475 3.40919 -4.3561e-19)
(-2.99341 3.39618 -8.61144e-19)
(-2.98221 3.38333 1.28795e-18)
(-2.97114 3.37064 1.49094e-18)
(-2.96022 3.35811 0)
(-2.94944 3.34575 8.42705e-19)
(-2.93881 3.33355 -8.38022e-19)
(-2.92832 3.32151 -2.06735e-19)
(-2.91798 3.30965 2.09124e-19)
(-2.90779 3.29796 8.28069e-19)
(-2.89777 3.28646 0)
(-2.88792 3.27515 -1.03207e-18)
(-2.87823 3.26402 1.23996e-18)
(-2.86871 3.25309 -2.08225e-19)
(-2.85936 3.24234 2.08119e-19)
(-2.85016 3.23177 -8.2233e-19)
(-2.84112 3.22138 6.20587e-19)
(-2.83225 3.21116 2.04622e-19)
(-2.82353 3.20113 -2.07809e-19)
(-2.81496 3.19126 2.04547e-19)
(-2.80655 3.18157 -2.07758e-19)
(-2.7983 3.17205 0)
(-2.79019 3.1627 4.12427e-19)
(-2.78224 3.15351 -4.12559e-19)
(-2.77444 3.1445 -2.61397e-23)
(-2.76678 3.13565 -4.12943e-19)
(-2.75928 3.12696 0)
(-2.75192 3.11843 -2.05193e-19)
(-2.74471 3.11007 4.13884e-19)
(-2.73764 3.10186 4.14248e-19)
(-2.73071 3.09382 4.1461e-19)
(-2.72392 3.08592 -2.09047e-19)
(-2.71727 3.07818 4.15326e-19)
(-2.71076 3.07059 -6.25022e-19)
(-2.70438 3.06315 -1.55889e-21)
(-2.69813 3.05586 0)
(-2.69202 3.04871 2.0845e-19)
(-2.68604 3.0417 -2.08815e-19)
(-2.68019 3.03485 2.09308e-19)
(-2.67448 3.02814 -4.1986e-19)
(-2.6689 3.02158 -3.15097e-19)
(-2.66345 3.01517 1.06319e-19)
(-2.65813 3.00889 2.11172e-19)
(-2.65291 3.00274 2.10464e-19)
(-2.64777 2.9967 0)
(-2.64269 2.99073 -1.03458e-19)
(-2.63763 2.9848 -2.01212e-19)
(-2.63257 2.97891 9.90716e-20)
(-2.62753 2.97304 0)
(-2.62253 2.96725 -3.84532e-19)
(-2.61761 2.96156 1.92256e-19)
(-2.61277 2.95598 9.55374e-20)
(-2.60802 2.95051 -1.94033e-19)
(-2.60334 2.94514 -6.69797e-22)
(-2.59875 2.93987 1.93422e-19)
(-2.59424 2.93471 0)
(-2.5898 2.92965 -9.72775e-20)
(-2.58544 2.92468 9.69781e-20)
(-3.30797 3.77839 1.1276e-18)
(-3.30345 3.77322 1.09419e-18)
(-3.29868 3.76776 -1.07405e-18)
(-3.29366 3.76201 1.03706e-18)
(-3.28838 3.75596 -1.01763e-18)
(-3.28284 3.74962 1.96709e-18)
(-3.27704 3.74297 -4.29011e-21)
(-3.27098 3.73602 1.86305e-18)
(-3.26465 3.72876 9.00771e-19)
(-3.25805 3.72118 -8.60276e-24)
(-3.25117 3.7133 8.64708e-24)
(-3.24402 3.70509 1.23569e-18)
(-3.2366 3.69656 1.20274e-18)
(-3.22889 3.68771 -2.72805e-18)
(-3.22089 3.67852 -1.88931e-18)
(-3.21261 3.669 -1.46279e-18)
(-3.20404 3.65915 0)
(-3.19517 3.64895 -1.71226e-18)
(-3.18601 3.63841 4.15292e-21)
(-3.17654 3.62752 2.89069e-18)
(-3.16678 3.61629 0)
(-3.1567 3.60469 -2.97928e-19)
(-3.14632 3.59274 2.91921e-19)
(-3.13563 3.58043 -2.77911e-19)
(-3.12462 3.56775 4.05863e-21)
(-3.11329 3.5547 2.62884e-19)
(-3.10165 3.54129 -1.00668e-18)
(-3.08968 3.5275 1.94052e-18)
(-3.0775 3.51345 -2.34804e-19)
(-3.06531 3.49941 2.36223e-19)
(-3.05324 3.48549 1.15681e-18)
(-3.04129 3.47171 -1.14891e-18)
(-3.02946 3.45807 1.81764e-18)
(-3.01776 3.44458 -9.00578e-19)
(-3.00618 3.43123 -1.11426e-18)
(-2.99474 3.41804 8.8933e-19)
(-2.98344 3.405 1.31843e-18)
(-2.97227 3.39212 -1.09259e-18)
(-2.96124 3.37939 -8.66722e-19)
(-2.95036 3.36683 0)
(-2.93962 3.35444 0)
(-2.92902 3.34221 8.51096e-19)
(-2.91856 3.33014 -6.36574e-19)
(-2.90826 3.31825 -2.12301e-19)
(-2.89811 3.30653 -8.40452e-19)
(-2.88812 3.295 -6.31359e-19)
(-2.8783 3.28366 -4.19529e-19)
(-2.86865 3.27251 -6.2729e-19)
(-2.85916 3.26154 0)
(-2.84984 3.25077 -2.11065e-19)
(-2.84067 3.24017 8.33715e-19)
(-2.83167 3.22975 -4.18257e-19)
(-2.82282 3.21951 2.10658e-19)
(-2.81414 3.20945 0)
(-2.8056 3.19956 -2.10461e-19)
(-2.79722 3.18984 -6.27968e-19)
(-2.789 3.1803 0)
(-2.78092 3.17092 -6.24612e-19)
(-2.773 3.16172 6.27902e-19)
(-2.76523 3.15268 -4.17635e-19)
(-2.75761 3.1438 4.17771e-19)
(-2.75013 3.13509 -2.07368e-19)
(-2.7428 3.12655 2.10672e-19)
(-2.73561 3.11816 -4.18387e-19)
(-2.72857 3.10994 -8.37325e-19)
(-2.72167 3.10187 2.11035e-19)
(-2.71491 3.09396 2.11171e-19)
(-2.70829 3.0862 2.08136e-19)
(-2.7018 3.07859 2.08271e-19)
(-2.69545 3.07113 -1.45032e-23)
(-2.68923 3.06382 -2.10091e-19)
(-2.68314 3.05665 -2.1032e-19)
(-2.67718 3.04963 2.09086e-19)
(-2.67136 3.04276 -6.33217e-19)
(-2.66567 3.03603 8.46492e-19)
(-2.66011 3.02946 -4.24383e-19)
(-2.65469 3.02303 3.1018e-21)
(-2.64938 3.01674 -2.32593e-24)
(-2.64418 3.01057 -2.13206e-19)
(-2.63906 3.0045 1.04053e-19)
(-2.63399 2.99851 1.02397e-19)
(-2.62894 2.99257 1.00259e-19)
(-2.62389 2.98665 1.96009e-19)
(-2.61885 2.98076 -9.76888e-20)
(-2.61386 2.97495 1.93006e-19)
(-2.60895 2.96924 -3.85916e-19)
(-2.60412 2.96364 0)
(-2.59938 2.95815 1.93268e-19)
(-2.59471 2.95277 9.67765e-20)
(-2.59013 2.94749 -1.93266e-19)
(-2.58562 2.9423 9.72091e-20)
(-2.58119 2.93722 -9.74934e-20)
(-2.57684 2.93224 6.74472e-22)
(-3.29655 3.78837 -2.26879e-18)
(-3.29205 3.78319 0)
(-3.2873 3.77772 0)
(-3.28229 3.77195 -1.04724e-18)
(-3.27703 3.76589 -1.01958e-18)
(-3.27151 3.75953 0)
(-3.26573 3.75286 -9.65303e-19)
(-3.25969 3.74589 -1.8774e-18)
(-3.25338 3.73862 -9.08145e-19)
(-3.2468 3.73102 -3.53781e-18)
(-3.23996 3.72312 2.58771e-18)
(-3.23283 3.71489 -3.34426e-18)
(-3.22543 3.70634 2.4299e-18)
(-3.21775 3.69746 2.35716e-18)
(-3.20978 3.68826 2.92624e-23)
(-3.20153 3.67871 0)
(-3.19299 3.66884 0)
(-3.18415 3.65861 0)
(-3.17502 3.64805 0)
(-3.16559 3.63713 -9.77969e-19)
(-3.15585 3.62587 -3.16766e-19)
(-3.14582 3.61424 0)
(-3.13547 3.60226 1.17659e-18)
(-3.12481 3.58992 2.8215e-19)
(-3.11384 3.57721 -2.76585e-19)
(-3.10256 3.56413 1.06023e-18)
(-3.09095 3.55068 1.02333e-18)
(-3.07902 3.53685 -1.97321e-18)
(-3.06688 3.52278 2.388e-19)
(-3.05474 3.5087 7.12682e-19)
(-3.04271 3.49475 -2.78629e-23)
(-3.0308 3.48093 7.01648e-19)
(-3.01901 3.46726 4.61898e-19)
(-3.00735 3.45373 6.84641e-19)
(-2.99581 3.44035 9.07421e-19)
(-2.98441 3.42712 -1.12309e-18)
(-2.97314 3.41404 2.25073e-19)
(-2.96202 3.40113 0)
(-2.95103 3.38837 0)
(-2.94018 3.37578 0)
(-2.92947 3.36335 0)
(-2.91891 3.35109 1.07803e-18)
(-2.90849 3.339 6.42552e-19)
(-2.89822 3.32707 1.06667e-18)
(-2.88811 3.31532 -2.14834e-19)
(-2.87815 3.30376 8.51575e-19)
(-2.86837 3.29239 0)
(-2.85875 3.28121 -2.10856e-19)
(-2.8493 3.27022 2.14077e-19)
(-2.84001 3.25941 2.10523e-19)
(-2.83088 3.24879 -6.37777e-19)
(-2.82191 3.23835 -4.237e-19)
(-2.8131 3.22808 0)
(-2.80444 3.21799 -2.09887e-19)
(-2.79594 3.20808 6.35931e-19)
(-2.78759 3.19833 2.12979e-19)
(-2.7794 3.18877 6.35351e-19)
(-2.77136 3.17937 2.36127e-23)
(-2.76347 3.17014 -1.05415e-18)
(-2.75572 3.16107 6.35067e-19)
(-2.74813 3.15218 2.09547e-19)
(-2.74068 3.14345 -6.35232e-19)
(-2.73338 3.13488 2.09654e-19)
(-2.72623 3.12647 4.19475e-19)
(-2.71921 3.11823 1.4509e-23)
(-2.71234 3.11014 -1.47156e-23)
(-2.70561 3.1022 -1.20358e-23)
(-2.69901 3.09442 3.1796e-21)
(-2.69255 3.0868 4.24979e-19)
(-2.68623 3.07932 -2.11775e-19)
(-2.68003 3.07199 2.11873e-19)
(-2.67397 3.0648 0)
(-2.66804 3.05777 6.3531e-19)
(-2.66224 3.05088 -3.13294e-21)
(-2.65657 3.04414 -6.41064e-19)
(-2.65104 3.03755 -2.1208e-19)
(-2.64564 3.0311 2.1552e-19)
(-2.64035 3.02479 2.13771e-19)
(-2.63517 3.01861 2.11161e-19)
(-2.63006 3.01252 -2.13507e-19)
(-2.625 3.00651 -4.15454e-19)
(-2.61995 3.00054 -2.02524e-19)
(-2.61491 2.99459 -1.61503e-23)
(-2.60988 2.98869 0)
(-2.6049 2.98285 -1.92209e-19)
(-2.6 2.97713 3.88393e-19)
(-2.59518 2.97151 0)
(-2.59045 2.966 -1.93742e-19)
(-2.58579 2.9606 -1.93975e-19)
(-2.58121 2.9553 -9.71512e-20)
(-2.57672 2.9501 1.94072e-19)
(-2.57229 2.945 -1.95955e-19)
(-2.56794 2.94 5.93705e-24)
(-3.28476 3.79862 4.34914e-21)
(-3.28028 3.79342 -1.09924e-18)
(-3.27554 3.78793 2.16007e-18)
(-3.27055 3.78215 1.04811e-18)
(-3.26531 3.77607 1.02518e-18)
(-3.25981 3.76969 -9.93855e-19)
(-3.25406 3.76301 -9.62873e-19)
(-3.24804 3.75603 9.4961e-19)
(-3.24175 3.74873 -1.83862e-18)
(-3.2352 3.74112 3.57488e-18)
(-3.22838 3.73319 2.6011e-18)
(-3.22128 3.72495 8.39313e-19)
(-3.21391 3.71637 8.14785e-19)
(-3.20625 3.70748 -2.38943e-18)
(-3.19831 3.69824 3.08533e-18)
(-3.19009 3.68868 -7.43736e-19)
(-3.18158 3.67877 7.29415e-19)
(-3.17277 3.66853 1.4053e-18)
(-3.16368 3.65793 -6.76338e-19)
(-3.15428 3.64699 6.63215e-19)
(-3.14458 3.6357 -1.27553e-18)
(-3.13458 3.62404 0)
(-3.12427 3.61203 8.97123e-19)
(-3.11365 3.59965 2.90501e-19)
(-3.10272 3.58691 -1.11473e-18)
(-3.09147 3.5738 -1.07678e-18)
(-3.07991 3.56031 1.03968e-18)
(-3.06802 3.54645 2.25422e-18)
(-3.05592 3.53234 -2.46857e-19)
(-3.04382 3.51822 2.40093e-19)
(-3.03184 3.50424 -1.19948e-18)
(-3.01997 3.49039 0)
(-3.00822 3.47668 -9.38687e-19)
(-2.9966 3.46311 1.16044e-18)
(-2.9851 3.4497 6.89338e-19)
(-2.97374 3.43643 0)
(-2.96252 3.42333 -2.24804e-19)
(-2.95143 3.41038 4.49927e-19)
(-2.94048 3.39759 -2.25187e-19)
(-2.92967 3.38496 6.67334e-19)
(-2.919 3.3725 3.59244e-21)
(-2.90848 3.36021 -8.72768e-19)
(-2.8981 3.34808 4.35625e-19)
(-2.88786 3.33612 -1.08522e-18)
(-2.87778 3.32434 1.07884e-18)
(-2.86787 3.31275 -2.17535e-19)
(-2.85812 3.30135 2.13853e-19)
(-2.84854 3.29014 -2.17095e-19)
(-2.83912 3.27912 8.60626e-19)
(-2.82987 3.26829 -4.29864e-19)
(-2.82077 3.25764 -2.13009e-19)
(-2.81184 3.24717 6.45162e-19)
(-2.80306 3.23687 0)
(-2.79443 3.22676 -2.12398e-19)
(-2.78597 3.21682 2.15576e-19)
(-2.77765 3.20705 0)
(-2.76949 3.19745 -4.27251e-19)
(-2.76148 3.18803 8.54057e-19)
(-2.75362 3.17878 2.15095e-19)
(-2.74591 3.16969 -6.38485e-19)
(-2.73835 3.16077 2.11703e-19)
(-2.73093 3.15202 2.11709e-19)
(-2.72366 3.14343 -4.26658e-19)
(-2.71653 3.135 0)
(-2.70955 3.12673 -2.11759e-19)
(-2.70271 3.11862 2.15016e-19)