/*--------------------------------*- C++ -*----------------------------------*\
  =========                 |
  \\      /  F ield         | OpenFOAM: The Open Source CFD Toolbox
   \\    /   O peration     | Website:  https://openfoam.org
    \\  /    A nd           | Version:  10
     \\/     M anipulation  |
\*---------------------------------------------------------------------------*/
FoamFile
{
    format      ascii;
    class       volVectorField;
    location    "19000";
    object      U;
}
// * * * * * * * * * * * * * * * * * * * * * * * * * * * * * * * * * * * * * //

dimensions      [0 1 -1 0 0 0 0];

internalField   nonuniform List<vector> 
17808
(
(-1.81822 1.98146 -9.90226e-18)
(-2.23831 2.44451 -1.10315e-18)
(-2.42045 2.64488 7.10689e-18)
(-2.5444 2.77752 7.54867e-18)
(-2.63705 2.8787 -1.75457e-18)
(-2.71125 2.95956 -1.22284e-17)
(-2.7729 3.02692 6.08631e-18)
(-2.8256 3.0846 -6.4089e-18)
(-2.87162 3.13504 1.07105e-17)
(-2.91246 3.17985 -3.31914e-21)
(-2.94916 3.22017 -4.78111e-18)
(-2.98249 3.25681 3.40046e-18)
(-3.01302 3.29039 -4.85915e-18)
(-3.04117 3.32138 5.1499e-19)
(-3.06729 3.35014 0)
(-3.09164 3.37698 4.72129e-19)
(-3.11445 3.40212 -9.06883e-19)
(-3.13589 3.42577 -8.72511e-19)
(-3.1561 3.44808 -3.78186e-18)
(-3.17523 3.46919 3.69603e-21)
(-3.19336 3.48921 3.139e-18)
(-3.21059 3.50824 0)
(-3.227 3.52637 2.9393e-18)
(-3.24265 3.54367 -2.8544e-18)
(-3.2576 3.56019 2.76748e-18)
(-3.2719 3.576 -3.36568e-18)
(-3.28559 3.59115 -6.54267e-19)
(-3.29871 3.60567 0)
(-3.31131 3.61961 -6.2028e-19)
(-3.3234 3.633 -6.04522e-19)
(-3.33502 3.64587 2.35637e-18)
(-3.3462 3.65824 -1.7278e-18)
(-3.35695 3.67015 0)
(-3.36729 3.68161 0)
(-3.37724 3.69264 5.36082e-19)
(-3.38683 3.70326 2.61843e-18)
(-3.39605 3.71349 -1.53947e-18)
(-3.40494 3.72335 0)
(-3.41349 3.73283 -1.96044e-18)
(-3.42173 3.74197 3.9456e-21)
(-3.42965 3.75076 2.82282e-18)
(-3.43728 3.75923 2.76028e-18)
(-3.44462 3.76737 -1.80569e-18)
(-3.45167 3.7752 8.83411e-19)
(-3.45844 3.78272 0)
(-3.46494 3.78994 -8.48067e-19)
(-3.47118 3.79687 2.49119e-18)
(-3.47716 3.80352 -3.25993e-18)
(-3.48289 3.80988 7.98254e-19)
(-3.48837 3.81597 0)
(-3.4936 3.82179 0)
(-3.49858 3.82734 2.2527e-18)
(-3.50333 3.83262 -7.38766e-19)
(-3.50784 3.83764 0)
(-3.51212 3.84241 7.0758e-19)
(-3.51617 3.84692 6.93439e-19)
(-3.51999 3.85117 -6.79512e-19)
(-3.52358 3.85517 -6.65788e-19)
(-3.52694 3.85893 -6.5229e-19)
(-3.53008 3.86243 1.27583e-18)
(-3.533 3.86569 -2.15433e-21)
(-3.53569 3.86871 1.22374e-18)
(-3.53816 3.87147 -1.2026e-18)
(-3.54041 3.874 -1.17526e-18)
(-3.54244 3.87627 -2.2986e-18)
(-3.54425 3.87831 1.12584e-18)
(-3.54583 3.8801 -2.20546e-18)
(-3.5472 3.88164 2.15539e-18)
(-3.54834 3.88294 0)
(-3.54927 3.884 1.03069e-18)
(-3.54997 3.88481 2.01293e-18)
(-3.55044 3.88538 -9.89242e-19)
(-3.55069 3.88569 -9.64469e-19)
(-3.55072 3.88576 9.39968e-19)
(-3.55052 3.88558 -2.24168e-21)
(-3.5501 3.88515 -2.68862e-18)
(-3.54945 3.88446 1.75171e-18)
(-3.54856 3.88353 0)
(-3.54745 3.88233 -8.34822e-19)
(-3.5461 3.88088 -2.43791e-18)
(-3.54452 3.87917 0)
(-3.5427 3.8772 0)
(-3.54065 3.87497 1.50289e-18)
(-3.53835 3.87247 0)
(-3.53581 3.8697 1.42501e-18)
(-3.53303 3.86666 0)
(-3.53 3.86335 -3.17642e-23)
(-3.52672 3.85977 0)
(-3.52319 3.8559 0)
(-3.51941 3.85176 1.24004e-18)
(-3.51537 3.84733 2.40955e-18)
(-3.51107 3.84262 2.34017e-18)
(-1.81561 1.99404 -1.10451e-18)
(-2.23171 2.45719 1.09525e-18)
(-2.41415 2.65506 0)
(-2.53659 2.78783 0)
(-2.62859 2.8886 1.74222e-18)
(-2.70247 2.96902 -8.08691e-19)
(-2.76394 3.03601 6.02724e-18)
(-2.81657 3.09338 -4.93592e-18)
(-2.86255 3.14357 -6.62006e-19)
(-2.90338 3.18818 4.98878e-18)
(-2.94009 3.22834 -5.31134e-18)
(-2.97343 3.26486 1.11943e-18)
(-3.00397 3.29835 5.32532e-19)
(-3.03214 3.32927 -5.0801e-19)
(-3.05827 3.35799 0)
(-3.08263 3.3848 -4.65545e-19)
(-3.10544 3.40992 4.47044e-19)
(-3.12688 3.43355 4.30064e-19)
(-3.14711 3.45586 0)
(-3.16623 3.47697 0)
(-3.18436 3.497 0)
(-3.20159 3.51604 -7.48118e-19)
(-3.21799 3.53418 0)
(-3.23363 3.55149 -7.03059e-19)
(-3.24858 3.56803 0)
(-3.26287 3.58386 6.63404e-19)
(-3.27655 3.59902 6.45318e-19)
(-3.28967 3.61356 0)
(-3.30226 3.62752 -2.4459e-18)
(-3.31434 3.64093 6.0029e-19)
(-3.32595 3.65382 1.74751e-18)
(-3.33712 3.66621 -5.67915e-19)
(-3.34786 3.67814 2.21648e-18)
(-3.35819 3.68962 -4.8765e-18)
(-3.36814 3.70067 1.59071e-18)
(-3.37771 3.71131 -5.17861e-19)
(-3.38693 3.72156 -1.01317e-18)
(-3.3958 3.73143 0)
(-3.40435 3.74094 0)
(-3.41257 3.75009 2.37346e-18)
(-3.42049 3.7589 -1.86307e-18)
(-3.42811 3.76738 -3.59905e-23)
(-3.43543 3.77554 -8.9314e-19)
(-3.44247 3.78339 -1.75042e-18)
(-3.44924 3.79093 -8.55794e-19)
(-3.45573 3.79817 2.52449e-18)
(-3.46197 3.80511 -1.64653e-18)
(-3.46794 3.81177 2.42644e-18)
(-3.47366 3.81815 -2.37501e-18)
(-3.47912 3.82425 1.5559e-18)
(-3.48435 3.83008 -1.52156e-18)
(-3.48933 3.83565 1.49609e-18)
(-3.49407 3.84094 -7.32501e-19)
(-3.49857 3.84598 0)
(-3.50285 3.85075 -7.04244e-19)
(-3.50689 3.85527 0)
(-3.5107 3.85954 0)
(-3.51429 3.86355 6.63603e-19)
(-3.51765 3.86732 2.15635e-21)
(-3.52078 3.87083 1.2772e-18)
(-3.52369 3.8741 -1.24952e-18)
(-3.52638 3.87712 1.22434e-18)
(-3.52885 3.87989 0)
(-3.5311 3.88242 0)
(-3.53312 3.88471 2.29931e-18)
(-3.53493 3.88675 -1.12684e-18)
(-3.53651 3.88854 2.20862e-18)
(-3.53788 3.89009 -2.24126e-21)
(-3.53902 3.8914 -1.05896e-18)
(-3.53994 3.89246 0)
(-3.54064 3.89327 -2.02038e-18)
(-3.54112 3.89384 3.95591e-18)
(-3.54138 3.89416 -4.50593e-21)
(-3.54141 3.89423 -4.51405e-21)
(-3.54121 3.89405 -2.24774e-21)
(-3.54079 3.89362 8.99878e-19)
(-3.54014 3.89293 -1.76435e-18)
(-3.53926 3.89199 8.60184e-19)
(-3.53815 3.8908 1.6769e-18)
(-3.53681 3.88935 -8.2148e-19)
(-3.53523 3.88763 7.96817e-19)
(-3.53342 3.88566 -2.3399e-18)
(-3.53137 3.88342 2.27648e-18)
(-3.52908 3.88092 -4.53514e-21)
(-3.52655 3.87815 -1.44217e-18)
(-3.52377 3.8751 7.0448e-19)
(-3.52075 3.87179 -2.73444e-18)
(-3.51749 3.8682 0)
(-3.51397 3.86433 0)
(-3.51019 3.86017 -2.51746e-18)
(-3.50617 3.85574 -1.83323e-18)
(-3.50188 3.85101 -1.18464e-18)
(-1.81178 2.00193 2.20685e-18)
(-2.22771 2.465 1.74646e-17)
(-2.40985 2.66284 -3.22879e-17)
(-2.53097 2.79643 1.49442e-17)
(-2.62237 2.89716 -8.63805e-19)
(-2.69567 2.97759 0)
(-2.75666 3.04456 0)
(-2.80888 3.10189 0)
(-2.85456 3.15203 -9.8044e-18)
(-2.89514 3.19658 9.85704e-18)
(-2.93166 3.23668 5.82005e-19)
(-2.96484 3.27315 7.20128e-23)
(-2.99526 3.3066 8.39492e-18)
(-3.02333 3.33748 -1.65188e-17)
(-3.04938 3.36616 7.66017e-18)
(-3.07368 3.39294 6.87379e-18)
(-3.09644 3.41805 -6.60653e-18)
(-3.11784 3.44167 0)
(-3.13802 3.46396 0)
(-3.15712 3.48507 0)
(-3.17522 3.5051 0)
(-3.19242 3.52414 1.47288e-18)
(-3.20881 3.54229 0)
(-3.22443 3.55961 6.92118e-19)
(-3.23935 3.57616 0)
(-3.25362 3.592 -6.53155e-19)
(-3.26729 3.60718 0)
(-3.2804 3.62173 2.47235e-18)
(-3.29297 3.63571 -2.41237e-18)
(-3.30504 3.64913 5.87537e-19)
(-3.31664 3.66204 -5.73188e-19)
(-3.32779 3.67445 2.79579e-18)
(-3.33851 3.68639 -3.71731e-21)
(-3.34883 3.69789 -1.60387e-18)
(-3.35876 3.70895 1.56429e-18)
(-3.36832 3.71961 -1.53362e-18)
(-3.37753 3.72988 4.99571e-19)
(-3.38639 3.73977 0)
(-3.39493 3.74929 0)
(-3.40314 3.75846 -2.81102e-18)
(-3.41105 3.76729 3.86832e-21)
(-3.41865 3.77579 3.86057e-21)
(-3.42597 3.78396 2.64805e-18)
(-3.433 3.79182 -1.72718e-18)
(-3.43975 3.79938 8.49583e-19)
(-3.44624 3.80663 0)
(-3.45246 3.81359 0)
(-3.45842 3.82027 0)
(-3.46413 3.82666 2.03024e-21)
(-3.46959 3.83277 7.70963e-19)
(-3.47481 3.83862 0)
(-3.47978 3.84419 7.39815e-19)
(-3.48452 3.8495 -1.44933e-18)
(-3.48901 3.85455 2.13758e-18)
(-3.49328 3.85933 1.39434e-18)
(-3.49731 3.86386 -1.37175e-18)
(-3.50112 3.86814 -1.34119e-18)
(-3.5047 3.87216 6.60812e-19)
(-3.50806 3.87594 -6.45917e-19)
(-3.51119 3.87946 6.33309e-19)
(-3.51409 3.88273 1.24181e-18)
(-3.51678 3.88576 -1.2173e-18)
(-3.51924 3.88855 0)
(-3.52149 3.89108 0)
(-3.52351 3.89337 -2.44138e-23)
(-3.52531 3.89542 -2.24236e-18)
(-3.5269 3.89722 1.10143e-18)
(-3.52826 3.89877 -1.0742e-18)
(-3.5294 3.90008 3.16162e-18)
(-3.53032 3.90115 -2.23908e-21)
(-3.53103 3.90196 1.00951e-18)
(-3.5315 3.90253 -9.877e-19)
(-3.53176 3.90285 0)
(-3.53179 3.90292 0)
(-3.5316 3.90274 0)
(-3.53118 3.90231 9.00425e-19)
(-3.53053 3.90163 -8.84258e-19)
(-3.52966 3.90069 -8.61561e-19)
(-3.52855 3.89949 0)
(-3.52721 3.89804 0)
(-3.52564 3.89632 -2.4023e-18)
(-3.52384 3.89435 3.91218e-18)
(-3.52179 3.8921 -3.12135e-23)
(-3.51951 3.8896 0)
(-3.51699 3.88682 -7.22439e-19)
(-3.51422 3.88377 4.55073e-21)
(-3.51121 3.88045 6.9003e-19)
(-3.50795 3.87685 -1.33919e-18)
(-3.50445 3.87297 -1.30342e-18)
(-3.50069 3.86881 1.90001e-18)
(-3.49667 3.86437 -4.51745e-21)
(-3.4924 3.85963 5.97326e-19)
(-1.80614 2.00759 1.54343e-17)
(-2.22217 2.4708 1.63132e-17)
(-2.40364 2.66965 -1.70559e-17)
(-2.52419 2.80382 9.26691e-19)
(-2.6154 2.90467 0)
(-2.68839 2.98532 0)
(-2.74911 3.05245 0)
(-2.80109 3.1099 1.10127e-17)
(-2.84655 3.16013 -2.06574e-17)
(-2.88693 3.20475 1.94436e-17)
(-2.92327 3.2449 -9.18771e-18)
(-2.95631 3.28141 8.15696e-18)
(-2.98659 3.31487 -8.27929e-18)
(-3.01454 3.34577 4.93067e-19)
(-3.04048 3.37447 8.00775e-18)
(-3.06469 3.40126 -6.77504e-18)
(-3.08738 3.42637 6.92979e-18)
(-3.10871 3.45 -4.2394e-19)
(-3.12883 3.4723 -6.42794e-18)
(-3.14787 3.49342 -3.87463e-19)
(-3.16593 3.51345 0)
(-3.18309 3.53251 -1.44937e-18)
(-3.19944 3.55066 0)
(-3.21503 3.56799 0)
(-3.22992 3.58455 -5.94843e-18)
(-3.24416 3.6004 5.14591e-18)
(-3.2578 3.61559 0)
(-3.27088 3.63016 0)
(-3.28343 3.64415 0)
(-3.29548 3.65759 -1.15693e-18)
(-3.30706 3.67051 5.64419e-19)
(-3.31819 3.68293 0)
(-3.3289 3.69489 0)
(-3.3392 3.7064 0)
(-3.34912 3.71749 -3.0826e-18)
(-3.35866 3.72816 4.53233e-18)
(-3.36785 3.73845 0)
(-3.3767 3.74835 0)
(-3.38522 3.75789 0)
(-3.39342 3.76707 4.15805e-18)
(-3.40131 3.77592 -7.63151e-21)
(-3.40891 3.78443 -8.88158e-18)
(-3.41621 3.79262 6.09457e-18)
(-3.42323 3.8005 -2.56486e-18)
(-3.42997 3.80806 0)
(-3.43645 3.81533 8.21058e-19)
(-3.44266 3.82231 3.21763e-18)
(-3.44861 3.829 -3.16441e-18)
(-3.45431 3.8354 -7.7519e-19)
(-3.45976 3.84153 3.79887e-18)
(-3.46497 3.84739 -1.49864e-18)
(-3.46993 3.85297 -1.46864e-18)
(-3.47466 3.85829 -1.43915e-18)
(-3.47915 3.86335 -2.06613e-21)
(-3.48341 3.86815 -2.07757e-18)
(-3.48744 3.87269 0)
(-3.49124 3.87697 6.6392e-19)
(-3.49481 3.88101 -1.3089e-18)
(-3.49816 3.88479 -1.92081e-18)
(-3.50128 3.88832 6.30854e-19)
(-3.50419 3.89161 1.2333e-18)
(-3.50687 3.89464 2.14358e-21)
(-3.50933 3.89743 4.32419e-21)
(-3.51157 3.89997 1.16484e-18)
(-3.51359 3.90227 -1.13971e-18)
(-3.51539 3.90432 1.11697e-18)
(-3.51697 3.90613 0)
(-3.51834 3.90769 -1.07008e-18)
(-3.51948 3.909 -1.04589e-18)
(-3.5204 3.91007 2.21175e-21)
(-3.5211 3.91088 -2.01183e-18)
(-3.52158 3.91146 1.97366e-18)
(-3.52183 3.91178 0)
(-3.52187 3.91185 -2.24866e-21)
(-3.52168 3.91167 -1.84838e-18)
(-3.52126 3.91124 9.02598e-19)
(-3.52062 3.91056 8.82362e-19)
(-3.51975 3.90962 8.62299e-19)
(-3.51864 3.90842 0)
(-3.51731 3.90696 0)
(-3.51575 3.90524 1.60685e-18)
(-3.51395 3.90326 -3.13683e-18)
(-3.51191 3.90102 -1.53043e-18)
(-3.50964 3.8985 1.49284e-18)
(-3.50713 3.89572 2.18129e-18)
(-3.50437 3.89267 7.07222e-19)
(-3.50137 3.88934 1.38281e-18)
(-3.49812 3.88573 6.71248e-19)
(-3.49462 3.88185 1.30714e-18)
(-3.49087 3.87768 -6.40692e-19)
(-3.48687 3.87323 6.18947e-19)
(-3.48261 3.86848 -4.5688e-21)
(-1.8005 2.0132 1.87124e-17)
(-2.21614 2.4766 -1.73422e-17)
(-2.39668 2.67654 -1.49491e-17)
(-2.51688 2.81101 2.75783e-17)
(-2.60785 2.91208 -1.27289e-17)
(-2.68057 2.99296 1.33371e-17)
(-2.74108 3.06026 -2.33241e-17)
(-2.79289 3.11785 7.8029e-21)
(-2.83819 3.16819 1.01963e-17)
(-2.87843 3.2129 0)
(-2.91463 3.25313 0)
(-2.94755 3.2897 -5.36078e-19)
(-2.97772 3.32322 -5.09468e-19)
(-3.00556 3.35416 4.85546e-19)
(-3.03141 3.3829 2.36315e-23)
(-3.05554 3.40972 -4.44322e-19)
(-3.07814 3.43485 -8.5287e-19)
(-3.0994 3.45851 -1.17413e-23)
(-3.11946 3.48083 0)
(-3.13844 3.50196 3.81171e-19)
(-3.15644 3.52201 5.88997e-18)
(-3.17355 3.54108 -4.9936e-18)
(-3.18985 3.55926 0)
(-3.2054 3.5766 6.02631e-18)
(-3.22025 3.59318 -4.55763e-18)
(-3.23446 3.60904 -5.05552e-18)
(-3.24807 3.62425 4.92548e-18)
(-3.26112 3.63883 5.99074e-19)
(-3.27364 3.65284 0)
(-3.28566 3.66629 5.69306e-19)
(-3.29721 3.67922 0)
(-3.30832 3.69167 0)
(-3.319 3.70364 -4.23604e-18)
(-3.32929 3.71517 3.62982e-18)
(-3.33918 3.72627 -1.01323e-18)
(-3.34871 3.73696 -3.9617e-18)
(-3.35788 3.74726 3.39978e-18)
(-3.36671 3.75718 -4.75043e-19)
(-3.37522 3.76673 -3.71872e-18)
(-3.3834 3.77593 3.65097e-18)
(-3.39128 3.78479 -3.57078e-18)
(-3.39886 3.79332 4.38404e-18)
(-3.40615 3.80152 -3.43219e-18)
(-3.41315 3.80941 7.6628e-21)
(-3.41989 3.81699 5.78465e-18)
(-3.42635 3.82428 -4.05755e-18)
(-3.43255 3.83127 0)
(-3.43849 3.83797 3.11855e-18)
(-3.44418 3.84439 -3.06836e-18)
(-3.44962 3.85053 0)
(-3.45482 3.8564 -7.3801e-19)
(-3.45977 3.86199 1.44882e-18)
(-3.46449 3.86732 -2.84021e-18)
(-3.46897 3.87239 6.28174e-18)
(-3.47322 3.8772 -2.05941e-18)
(-3.47724 3.88175 -6.72455e-19)
(-3.48104 3.88605 3.29594e-18)
(-3.4846 3.89009 1.28718e-18)
(-3.48795 3.89388 6.27299e-19)
(-3.49107 3.89742 -8.45217e-21)
(-3.49397 3.90072 -7.34464e-18)
(-3.49664 3.90376 -1.1924e-18)
(-3.4991 3.90655 8.59025e-21)
(-3.50134 3.9091 2.31516e-18)
(-3.50335 3.91141 -3.39486e-18)
(-3.50515 3.91346 -2.21321e-18)
(-3.50673 3.91527 6.57577e-21)
(-3.50809 3.91684 1.06966e-18)
(-3.50923 3.91815 -1.04384e-18)
(-3.51016 3.91922 2.0519e-18)
(-3.51086 3.92005 0)
(-3.51134 3.92062 -1.9639e-18)
(-3.51159 3.92094 9.64716e-19)
(-3.51163 3.92102 2.26247e-21)
(-3.51144 3.92084 1.84604e-18)
(-3.51103 3.92041 -9.01895e-19)
(-3.51039 3.91972 0)
(-3.50952 3.91878 -1.72491e-18)
(-3.50842 3.91758 0)
(-3.5071 3.91612 -1.64756e-18)
(-3.50554 3.9144 0)
(-3.50375 3.91242 7.88194e-19)
(-3.50172 3.91017 7.69518e-19)
(-3.49945 3.90765 -2.24403e-18)
(-3.49695 3.90486 -7.28234e-19)
(-3.4942 3.9018 -2.13509e-18)
(-3.49121 3.89847 -6.92302e-19)
(-3.48797 3.89485 1.35395e-18)
(-3.48448 3.89096 -6.57248e-19)
(-3.48075 3.88678 1.28925e-18)
(-3.47676 3.88232 -6.23052e-19)
(-3.47251 3.87757 -1.82806e-18)
(-1.79498 2.01893 0)
(-2.21002 2.48269 0)
(-2.38964 2.68359 1.48539e-17)
(-2.50955 2.81829 -8.18365e-21)
(-2.6002 2.91964 -1.42861e-17)
(-2.67264 3.00073 1.1639e-17)
(-2.73293 3.06818 -1.08065e-17)
(-2.78454 3.1259 0)
(-2.82966 3.17635 -6.28456e-19)
(-2.86975 3.22116 -1.00397e-17)
(-2.90582 3.26147 8.92442e-18)
(-2.9386 3.29811 1.05602e-18)
(-2.96866 3.33169 5.01607e-19)
(-2.9964 3.36269 -8.59911e-18)
(-3.02215 3.39147 6.85179e-18)
(-3.04619 3.41833 4.3715e-19)
(-3.06871 3.44351 4.19494e-19)
(-3.08989 3.46719 7.25681e-18)
(-3.10988 3.48955 -6.99813e-21)
(-3.12879 3.51071 -1.19955e-17)
(-3.14673 3.53078 5.79911e-18)
(-3.16379 3.54988 0)
(-3.18003 3.56807 -5.43013e-18)
(-3.19553 3.58543 6.94339e-21)
(-3.21034 3.60203 5.12181e-18)
(-3.22451 3.61792 6.2192e-19)
(-3.23808 3.63314 4.83733e-18)
(-3.25109 3.64774 -1.06064e-17)
(-3.26358 3.66176 9.18818e-18)
(-3.27557 3.67523 -7.02191e-21)
(-3.28709 3.68819 -4.92287e-18)
(-3.29817 3.70064 0)
(-3.30883 3.71263 0)
(-3.31908 3.72418 5.09914e-19)
(-3.32896 3.73529 4.9876e-19)
(-3.33846 3.746 -9.76131e-19)
(-3.34761 3.75632 1.02367e-23)
(-3.35643 3.76625 4.67943e-19)
(-3.36491 3.77582 0)
(-3.37308 3.78504 -4.03973e-18)
(-3.38094 3.79391 2.6462e-18)
(-3.3885 3.80245 -3.45105e-18)
(-3.39577 3.81067 4.23922e-18)
(-3.40277 3.81858 3.32018e-18)
(-3.40948 3.82617 -3.26516e-18)
(-3.41593 3.83347 0)
(-3.42212 3.84047 0)
(-3.42805 3.84719 0)
(-3.43373 3.85362 0)
(-3.43916 3.85977 -7.42931e-19)
(-3.44434 3.86565 -2.18435e-18)
(-3.44929 3.87126 2.15263e-18)
(-3.454 3.8766 0)
(-3.45847 3.88168 -6.90537e-19)
(-3.46271 3.8865 -2.70814e-18)
(-3.46673 3.89107 3.33294e-18)
(-3.47051 3.89537 6.53681e-19)
(-3.47407 3.89942 -1.33093e-23)
(-3.47741 3.90322 6.30062e-19)
(-3.48052 3.90677 0)
(-3.48342 3.91007 1.21423e-18)
(-3.48609 3.91312 0)
(-3.48854 3.91592 0)
(-3.49078 3.91848 -3.43813e-18)
(-3.49279 3.92079 5.62874e-18)
(-3.49459 3.92285 -1.10857e-18)
(-3.49616 3.92467 1.083e-18)
(-3.49752 3.92623 0)
(-3.49866 3.92756 1.04109e-18)
(-3.49958 3.92863 1.01602e-18)
(-3.50028 3.92945 -4e-18)
(-3.50076 3.93003 1.96394e-18)
(-3.50102 3.93035 0)
(-3.50106 3.93043 0)
(-3.50087 3.93025 9.20061e-19)
(-3.50046 3.92982 0)
(-3.49983 3.92913 8.81169e-19)
(-3.49897 3.92819 -8.57433e-19)
(-3.49787 3.92699 1.69052e-18)
(-3.49655 3.92553 -8.21835e-19)
(-3.495 3.9238 2.41875e-18)
(-3.49322 3.92182 0)
(-3.49119 3.91956 -7.66412e-19)
(-3.48894 3.91704 7.52888e-19)
(-3.48644 3.91425 0)
(-3.4837 3.91118 -7.172e-19)
(-3.48072 3.90784 2.08974e-18)
(-3.4775 3.90422 0)
(-3.47402 3.90031 0)
(-3.4703 3.89613 -1.93523e-18)
(-3.46632 3.89166 3.14769e-18)
(-3.46209 3.88689 1.22506e-18)
(-1.7893 2.02456 0)
(-2.20359 2.48891 -1.07502e-18)
(-2.38235 2.69064 9.8388e-19)
(-2.502 2.8256 9.03945e-19)
(-2.59233 2.92724 1.24715e-17)
(-2.6645 3.00854 -1.22833e-17)
(-2.72457 3.07616 7.1128e-23)
(-2.77599 3.13403 -1.05948e-17)
(-2.82094 3.1846 1.0539e-17)
(-2.86088 3.22952 -9.31242e-18)
(-2.8968 3.26992 1.7575e-17)
(-2.92946 3.30664 -5.2723e-19)
(-2.95939 3.3403 -7.25173e-21)
(-2.98702 3.37136 -7.52829e-18)
(-3.01268 3.4002 0)
(-3.03662 3.42711 0)
(-3.05905 3.45234 6.59724e-18)
(-3.08015 3.47606 -1.30882e-17)
(-3.10007 3.49845 6.11536e-18)
(-3.11891 3.51965 -5.89309e-18)
(-3.13678 3.53976 5.70094e-18)
(-3.15378 3.55888 0)
(-3.16997 3.5771 -5.33799e-18)
(-3.18541 3.59449 3.88944e-18)
(-3.20017 3.61111 5.02826e-18)
(-3.21429 3.62702 -5.50615e-18)
(-3.22782 3.64227 0)
(-3.24079 3.65689 5.79374e-19)
(-3.25324 3.67093 0)
(-3.26519 3.68442 0)
(-3.27668 3.69739 5.37598e-19)
(-3.28773 3.70987 -4.19695e-18)
(-3.29836 3.72188 4.10839e-18)
(-3.30859 3.73344 -3.50848e-18)
(-3.31843 3.74457 3.93005e-18)
(-3.32791 3.7553 9.60757e-19)
(-3.33704 3.76563 -3.28895e-18)
(-3.34583 3.77558 6.91102e-18)
(-3.35429 3.78516 -3.61535e-18)
(-3.36244 3.79439 4.4254e-19)
(-3.37028 3.80328 1.73563e-18)
(-3.37782 3.81184 -3.40082e-18)
(-3.38508 3.82007 2.50858e-18)
(-3.39206 3.82799 0)
(-3.39876 3.8356 1.60814e-18)
(-3.40519 3.84291 0)
(-3.41137 3.84993 2.32075e-18)
(-3.41728 3.85666 -7.6845e-19)
(-3.42295 3.8631 -2.99219e-18)
(-3.42836 3.86927 7.33695e-19)
(-3.43354 3.87516 0)
(-3.43847 3.88078 0)
(-3.44317 3.88614 0)
(-3.44764 3.89123 6.82818e-19)
(-3.45187 3.89606 -2.67871e-18)
(-3.45587 3.90063 5.2701e-18)
(-3.45965 3.90494 -5.82333e-18)
(-3.46321 3.90901 -6.27301e-19)
(-3.46654 3.91281 1.25234e-18)
(-3.46964 3.91637 -2.44742e-18)
(-3.47253 3.91968 8.35588e-21)
(-3.4752 3.92274 2.36778e-18)
(-3.47765 3.92555 1.16019e-18)
(-3.47988 3.92811 1.13887e-18)
(-3.48189 3.93042 0)
(-3.48368 3.93249 3.28629e-18)
(-3.48526 3.93431 -8.655e-21)
(-3.48661 3.93588 -2.11582e-18)
(-3.48775 3.93721 -1.03548e-18)
(-3.48867 3.93828 0)
(-3.48937 3.93911 0)
(-3.48986 3.93969 -9.75759e-19)
(-3.49012 3.94002 0)
(-3.49015 3.94009 -9.36824e-19)
(-3.48997 3.93991 -2.74835e-18)
(-3.48956 3.93948 9.07568e-19)
(-3.48893 3.93879 -8.7062e-19)
(-3.48807 3.93785 1.72639e-18)
(-3.48699 3.93665 -8.42344e-19)
(-3.48567 3.93518 1.64788e-18)
(-3.48413 3.93345 -1.61137e-18)
(-3.48235 3.93146 0)
(-3.48033 3.9292 0)
(-3.47809 3.92668 1.50376e-18)
(-3.4756 3.92388 0)
(-3.47287 3.9208 1.43373e-18)
(-3.4699 3.91745 -2.79841e-18)
(-3.46668 3.91383 0)
(-3.46322 3.90992 1.33124e-18)
(-3.45951 3.90572 0)
(-3.45555 3.90124 -1.26479e-18)
(-3.45133 3.89646 0)
(-1.78342 2.03013 1.86327e-17)
(-2.19681 2.49522 1.92618e-17)
(-2.37475 2.69772 -3.12681e-17)
(-2.49412 2.83297 8.04325e-21)
(-2.58412 2.93491 1.482e-17)
(-2.65605 3.01642 -1.28915e-17)
(-2.71591 3.08422 -6.94445e-19)
(-2.76715 3.14224 1.04597e-17)
(-2.81193 3.19295 1.0382e-17)
(-2.85172 3.23798 -1.77834e-17)
(-2.88751 3.27849 5.48219e-19)
(-2.92004 3.3153 7.67996e-18)
(-2.94986 3.34904 0)
(-2.97739 3.38018 4.62615e-19)
(-3.00294 3.40908 4.41723e-19)
(-3.02679 3.43606 0)
(-3.04913 3.46133 6.48574e-18)
(-3.07015 3.48511 -6.85755e-21)
(-3.08999 3.50755 -5.63518e-18)
(-3.10876 3.52878 3.622e-19)
(-3.12657 3.54893 0)
(-3.1435 3.56809 -4.73711e-18)
(-3.15963 3.58634 4.59627e-18)
(-3.17502 3.60377 -7.90716e-24)
(-3.18972 3.62042 -4.94143e-18)
(-3.20379 3.63635 5.4113e-18)
(-3.21727 3.65162 0)
(-3.2302 3.66627 0)
(-3.2426 3.68034 -3.88209e-18)
(-3.25452 3.69385 6.80673e-21)
(-3.26597 3.70684 4.23177e-18)
(-3.27699 3.71934 0)
(-3.28758 3.73137 -4.03335e-18)
(-3.29778 3.74295 3.45766e-18)
(-3.3076 3.7541 -3.37621e-18)
(-3.31705 3.76484 3.31183e-18)
(-3.32615 3.77519 -4.62843e-19)
(-3.33491 3.78516 -3.17064e-18)
(-3.34335 3.79476 3.5589e-18)
(-3.35148 3.80401 0)
(-3.3593 3.81291 3.41482e-18)
(-3.36682 3.82148 -3.35706e-18)
(-3.37406 3.82973 0)
(-3.38101 3.83767 0)
(-3.3877 3.84529 -3.95915e-18)
(-3.39412 3.85262 2.33825e-18)
(-3.40027 3.85965 3.81708e-18)
(-3.40618 3.86639 -5.25355e-18)
(-3.41183 3.87284 2.95255e-18)
(-3.41723 3.87902 0)
(-3.42239 3.88493 0)
(-3.42732 3.89056 3.49102e-18)
(-3.432 3.89593 -2.751e-18)
(-3.43646 3.90103 -6.74785e-19)
(-3.44068 3.90587 0)
(-3.44468 3.91045 -3.25329e-18)
(-3.44845 3.91477 8.05464e-21)
(-3.45199 3.91884 1.89071e-18)
(-3.45532 3.92266 3.703e-18)
(-3.45842 3.92623 -3.03893e-18)
(-3.4613 3.92954 1.19245e-18)
(-3.46396 3.93261 0)
(-3.4664 3.93542 -2.04297e-23)
(-3.46863 3.93799 0)
(-3.47064 3.94031 1.10909e-18)
(-3.47243 3.94238 1.08454e-18)
(-3.474 3.94421 -2.14181e-18)
(-3.47536 3.94579 1.04888e-18)
(-3.47649 3.94711 1.02919e-18)
(-3.47741 3.94819 1.00967e-18)
(-3.47811 3.94902 -1.97626e-18)
(-3.4786 3.9496 2.91785e-18)
(-3.47886 3.94993 0)
(-3.4789 3.95001 9.33256e-19)
(-3.47872 3.94983 -9.14522e-19)
(-3.47831 3.9494 -1.79192e-18)
(-3.47768 3.94871 -8.77528e-19)
(-3.47683 3.94776 0)
(-3.47575 3.94656 8.41131e-19)
(-3.47444 3.94509 0)
(-3.4729 3.94336 1.61057e-18)
(-3.47113 3.94136 0)
(-3.46913 3.9391 0)
(-3.46688 3.93657 -1.5007e-18)
(-3.46441 3.93376 4.62702e-21)
(-3.46169 3.93068 1.4366e-18)
(-3.45873 3.92733 2.31095e-23)
(-3.45553 3.92369 -1.36918e-18)
(-3.45208 3.91977 -1.33598e-18)
(-3.44838 3.91557 -2.60151e-18)
(-3.44443 3.91107 1.2752e-18)
(-3.44022 3.90629 0)
(-1.77738 2.03575 -1.85969e-17)
(-2.18972 2.5017 1.59864e-17)
(-2.36688 2.7049 0)
(-2.48593 2.84047 1.42024e-17)
(-2.57561 2.94271 -1.46627e-17)
(-2.64729 3.02444 -4.2589e-23)
(-2.70694 3.09242 1.0395e-17)
(-2.75799 3.1506 -7.64684e-21)
(-2.80262 3.20144 -1.08411e-17)
(-2.84225 3.24659 0)
(-2.87791 3.28721 -5.32403e-19)
(-2.91033 3.32412 -8.05368e-18)
(-2.94003 3.35794 7.65013e-18)
(-2.96745 3.38916 0)
(-2.99291 3.41814 -4.34262e-19)
(-3.01666 3.44517 -4.15585e-19)
(-3.03892 3.47051 0)
(-3.05986 3.49434 -5.7431e-18)
(-3.07962 3.51683 1.1436e-17)
(-3.09832 3.53812 -1.1743e-17)
(-3.11606 3.55831 1.10017e-17)
(-3.13293 3.57751 -6.71942e-19)
(-3.14899 3.5958 -4.51531e-18)
(-3.16432 3.61326 6.25261e-19)
(-3.17897 3.62994 0)
(-3.19299 3.64591 -5.90329e-19)
(-3.20642 3.66121 0)
(-3.2193 3.67589 5.03237e-18)
(-3.23166 3.68998 -4.91217e-18)
(-3.24354 3.70352 4.2534e-18)
(-3.25495 3.71653 -8.31135e-18)
(-3.26593 3.72905 4.57051e-18)
(-3.27649 3.7411 0)
(-3.28665 3.7527 3.87783e-18)
(-3.29643 3.76388 -8.5456e-18)
(-3.30586 3.77464 3.72188e-18)
(-3.31493 3.785 4.69469e-24)
(-3.32366 3.79499 0)
(-3.33208 3.80461 -3.93217e-18)
(-3.34018 3.81388 7.04336e-21)
(-3.34797 3.8228 2.52727e-18)
(-3.35548 3.83139 0)
(-3.36269 3.83965 -3.23685e-18)
(-3.36963 3.8476 3.97997e-18)
(-3.3763 3.85524 0)
(-3.3827 3.86258 1.25458e-23)
(-3.38884 3.86962 -3.00935e-18)
(-3.39472 3.87638 5.17998e-18)
(-3.40036 3.88285 -3.63904e-18)
(-3.40575 3.88904 0)
(-3.4109 3.89495 7.02064e-19)
(-3.41581 3.9006 -6.89983e-19)
(-3.42048 3.90598 0)
(-3.42492 3.91109 -2.66211e-18)
(-3.42914 3.91594 2.62429e-18)
(-3.43312 3.92053 6.43886e-19)
(-3.43688 3.92487 0)
(-3.44042 3.92895 1.24398e-18)
(-3.44374 3.93277 -6.11295e-19)
(-3.44683 3.93634 1.02974e-23)
(-3.44971 3.93967 1.17654e-18)
(-3.45236 3.94274 -2.32431e-18)
(-3.4548 3.94556 -1.13979e-18)
(-3.45702 3.94814 -1.11969e-18)
(-3.45902 3.95046 -1.09984e-18)
(-3.46081 3.95254 0)
(-3.46238 3.95437 1.06068e-18)
(-3.46374 3.95595 -1.04141e-18)
(-3.46487 3.95728 -2.04457e-18)
(-3.46579 3.95837 -1.00334e-18)
(-3.46649 3.9592 -1.9647e-18)
(-3.46697 3.95978 2.90205e-18)
(-3.46724 3.96011 -1.89037e-18)
(-3.46728 3.96019 9.33479e-19)
(-3.4671 3.96001 2.72802e-18)
(-3.4667 3.95958 -8.97214e-19)
(-3.46608 3.95889 8.7481e-19)
(-3.46523 3.95794 -1.70946e-18)
(-3.46415 3.95673 1.68315e-18)
(-3.46285 3.95526 0)
(-3.46132 3.95353 -3.21735e-18)
(-3.45955 3.95153 -1.57409e-18)
(-3.45756 3.94926 1.53978e-18)
(-3.45532 3.94672 -3.01149e-18)
(-3.45286 3.94391 1.47199e-18)
(-3.45015 3.94082 -2.87235e-18)
(-3.4472 3.93746 2.81522e-18)
(-3.44401 3.93381 2.15282e-23)
(-3.44057 3.92988 1.33509e-18)
(-3.43689 3.92567 -4.65123e-21)
(-3.43295 3.92117 -1.27545e-18)
(-3.42876 3.91637 1.2391e-18)
(-1.77117 2.04143 -1.74757e-17)
(-2.18235 2.50836 -1.69651e-17)
(-2.35875 2.71221 7.51001e-21)
(-2.47745 2.84813 2.81485e-17)
(-2.5668 2.95067 -1.20868e-17)
(-2.63824 3.03262 1.25835e-17)
(-2.69767 3.10079 -1.02655e-17)
(-2.74853 3.15912 0)
(-2.79299 3.2101 5.93169e-19)
(-2.83248 3.25538 8.34123e-18)
(-2.86801 3.2961 -7.86311e-18)
(-2.9003 3.33311 9.90766e-19)
(-2.9299 3.36702 4.69979e-19)
(-2.95721 3.39832 -6.70525e-18)
(-2.98257 3.42738 7.25939e-18)
(-3.00623 3.45449 6.93886e-18)
(-3.0284 3.47989 -6.26919e-18)
(-3.04926 3.50378 6.01814e-18)
(-3.06894 3.52633 -5.80103e-18)
(-3.08757 3.54766 -3.49512e-19)
(-3.10524 3.5679 -5.3992e-18)
(-3.12204 3.58715 5.23027e-18)
(-3.13804 3.60548 6.33019e-19)
(-3.15331 3.62298 -6.14058e-19)
(-3.16791 3.6397 0)
(-3.18187 3.6557 -4.63491e-18)
(-3.19525 3.67103 4.51697e-18)
(-3.20808 3.68574 -5.49573e-19)
(-3.2204 3.69986 0)
(-3.23223 3.71343 4.70113e-18)
(-3.2436 3.72647 -4.59645e-18)
(-3.25454 3.73901 -4.98282e-18)
(-3.26506 3.75109 3.90294e-18)
(-3.27519 3.76271 -3.81116e-18)
(-3.28494 3.77391 4.20328e-18)
(-3.29432 3.78469 0)
(-3.30337 3.79508 4.47639e-19)
(-3.31207 3.80508 4.38702e-19)
(-3.32046 3.81472 -2.57724e-18)
(-3.32853 3.82401 6.74953e-18)
(-3.3363 3.83295 -8.34718e-19)
(-3.34378 3.84155 -5.68635e-18)
(-3.35098 3.84983 3.19328e-18)
(-3.35789 3.8578 1.56243e-18)
(-3.36454 3.86545 -3.07958e-18)
(-3.37092 3.87281 7.55405e-19)
(-3.37704 3.87987 2.96502e-18)
(-3.38291 3.88663 -1.46223e-18)
(-3.38853 3.89312 3.57991e-18)
(-3.3939 3.89932 -2.11709e-18)
(-3.39904 3.90525 -1.08353e-23)
(-3.40393 3.91091 0)
(-3.40859 3.9163 -2.67315e-18)
(-3.41302 3.92142 3.2937e-18)
(-3.41723 3.92628 0)
(-3.4212 3.93088 0)
(-3.42495 3.93523 2.49745e-18)
(-3.42848 3.93931 -1.23758e-18)
(-3.43179 3.94315 -3.02625e-18)
(-3.43487 3.94673 -1.77865e-18)
(-3.43774 3.95006 2.34062e-18)
(-3.44039 3.95314 -1.14835e-18)
(-3.44282 3.95597 1.12456e-18)
(-3.44504 3.95855 -1.11334e-18)
(-3.44704 3.96088 -2.17572e-18)
(-3.44882 3.96297 2.14597e-18)
(-3.45039 3.9648 -2.10402e-18)
(-3.45174 3.96638 0)
(-3.45288 3.96772 4.05474e-18)
(-3.45379 3.9688 -1.99705e-18)
(-3.45449 3.96964 -1.95191e-18)
(-3.45498 3.97022 9.64376e-19)
(-3.45524 3.97055 0)
(-3.45529 3.97063 9.24234e-19)
(-3.45511 3.97045 0)
(-3.45471 3.97002 8.88931e-19)
(-3.45409 3.96933 8.66992e-19)
(-3.45325 3.96838 -1.71277e-18)
(-3.45218 3.96717 0)
(-3.45088 3.9657 8.198e-19)
(-3.44936 3.96396 3.21127e-18)
(-3.4476 3.96195 1.57191e-18)
(-3.44561 3.95968 -1.5384e-18)
(-3.44339 3.95714 2.19624e-23)
(-3.44093 3.95432 0)
(-3.43823 3.95122 -1.43934e-18)
(-3.4353 3.94785 -4.64657e-21)
(-3.43212 3.9442 -4.64544e-21)
(-3.4287 3.94026 0)
(-3.42502 3.93604 -1.31089e-18)
(-3.4211 3.93152 2.55426e-18)
(-3.41693 3.92671 -4.69719e-21)
(-1.76478 2.04719 -1.74434e-17)
(-2.17469 2.51519 -1.68838e-17)
(-2.35035 2.71968 3.05837e-17)
(-2.46867 2.85595 -1.39438e-17)
(-2.5577 2.9588 0)
(-2.62888 3.04098 0)
(-2.68809 3.10933 0)
(-2.73876 3.16783 1.00172e-17)
(-2.78305 3.21895 -9.35164e-18)
(-2.8224 3.26435 5.4761e-19)
(-2.85779 3.30518 8.24462e-18)
(-2.88995 3.34229 -4.94133e-19)
(-2.91943 3.3763 -1.52467e-17)
(-2.94664 3.40769 6.59673e-18)
(-2.9719 3.43682 -8.38759e-19)
(-2.99547 3.464 6.81647e-18)
(-3.01756 3.48947 3.78057e-19)
(-3.03833 3.51343 -6.28631e-18)
(-3.05794 3.53603 0)
(-3.07649 3.55742 6.17389e-18)
(-3.09409 3.57771 -5.3075e-18)
(-3.11082 3.59701 6.4148e-19)
(-3.12676 3.61538 -6.21464e-19)
(-3.14197 3.63292 6.02849e-19)
(-3.15651 3.64968 0)
(-3.17042 3.66573 4.55054e-18)
(-3.18375 3.6811 -4.43494e-18)
(-3.19653 3.69584 5.39625e-19)
(-3.20879 3.70999 5.26102e-19)
(-3.22058 3.72358 -1.02665e-18)
(-3.23191 3.73665 4.50778e-18)
(-3.2428 3.74923 -7.34623e-18)
(-3.25328 3.76133 3.83398e-18)
(-3.26337 3.77298 3.27582e-18)
(-3.27309 3.7842 -7.33643e-18)
(-3.28244 3.795 3.59569e-18)
(-3.29145 3.80541 4.39965e-19)
(-3.30013 3.81544 -4.31256e-19)
(-3.30848 3.8251 3.37967e-18)
(-3.31653 3.8344 -2.90719e-18)
(-3.32427 3.84336 -1.6248e-18)
(-3.33172 3.85198 2.40082e-18)
(-3.33889 3.86028 -7.84623e-19)
(-3.34579 3.86826 3.07884e-18)
(-3.35241 3.87593 -3.03142e-18)
(-3.35877 3.8833 3.7152e-18)
(-3.36487 3.89038 -7.17615e-21)
(-3.37072 3.89716 -7.25628e-19)
(-3.37632 3.90366 -2.82841e-18)
(-3.38168 3.90987 -6.94296e-19)
(-3.3868 3.91582 2.04426e-18)
(-3.39168 3.92149 -2.68885e-18)
(-3.39633 3.92689 -6.60133e-19)
(-3.40075 3.93202 0)
(-3.40493 3.93689 -6.38486e-19)
(-3.4089 3.94151 -2.50796e-18)
(-3.41264 3.94586 3.09186e-18)
(-3.41616 3.94996 3.6405e-18)
(-3.41945 3.9538 -1.19866e-18)
(-3.42253 3.95739 0)
(-3.42539 3.96073 1.15537e-18)
(-3.42804 3.96381 3.4042e-18)
(-3.43046 3.96665 -2.23808e-18)
(-3.43267 3.96924 1.09815e-18)
(-3.43467 3.97158 -2.15487e-18)
(-3.43645 3.97366 8.3254e-21)
(-3.43801 3.9755 4.17517e-18)
(-3.43936 3.97709 0)
(-3.44049 3.97843 -1.44992e-23)
(-3.44141 3.97952 1.97335e-18)
(-3.44211 3.98035 -1.94655e-18)
(-3.44259 3.98094 0)
(-3.44286 3.98127 2.80402e-18)
(-3.44291 3.98135 -8.77621e-21)
(-3.44273 3.98117 -1.80765e-18)
(-3.44234 3.98074 8.80085e-19)
(-3.44172 3.98005 -8.72013e-19)
(-3.44088 3.97909 0)
(-3.43982 3.97788 0)
(-3.43853 3.9764 -1.12718e-23)
(-3.43701 3.97466 -2.20538e-23)
(-3.43526 3.97265 1.56857e-18)
(-3.43328 3.97037 -1.5359e-18)
(-3.43107 3.96782 4.62307e-21)
(-3.42862 3.965 9.24556e-21)
(-3.42594 3.9619 4.32216e-18)
(-3.42301 3.95852 1.40739e-18)
(-3.41985 3.95485 1.37581e-18)