/*--------------------------------*- C++ -*----------------------------------*\
  =========                 |
  \\      /  F ield         | OpenFOAM: The Open Source CFD Toolbox
   \\    /   O peration     | Website:  https://openfoam.org
    \\  /    A nd           | Version:  10
     \\/     M anipulation  |
\*---------------------------------------------------------------------------*/
FoamFile
{
    format      ascii;
    class       volScalarField;
    location    "19000";
    object      yPlus;
}
// * * * * * * * * * * * * * * * * * * * * * * * * * * * * * * * * * * * * * //

dimensions      [0 0 0 0 0 0 0];

internalField   uniform 0;

boundaryField
{
    right
    {
        type            cyclic;
    }
    left
    {
        type            cyclic;
    }
    outerWall
    {
        type            calculated;
        value           nonuniform List<scalar> 
200
(
25.1487
25.1459
25.1485
25.1511
25.1536
25.1565
25.1594
25.1621
25.1645
25.1667
25.1686
25.1703
25.1718
25.1731
25.1743
25.1753
25.1762
25.1771
25.1778
25.1785
25.1791
25.1796
25.1802
25.1807
25.1812
25.1816
25.1821
25.1825
25.1829
25.1834
25.1838
25.1842
25.1846
25.185
25.1854
25.1858
25.1862
25.1866
25.187
25.1874
25.1878
25.1883
25.1887
25.1891
25.1895
25.1899
25.1903
25.1907
25.1912
25.1916
25.192
25.1924
25.1928
25.1932
25.1936
25.194
25.1944
25.1948
25.1952
25.1955
25.1959
25.1962
25.1965
25.1968
25.1971
25.1974
25.1976
25.1978
25.198
25.1982
25.1983
25.1983
25.1986
25.1972
25.1949
25.1923
25.1884
25.1883
25.1898
25.1905
25.1503
25.1558
25.1659
25.1755
25.1845
25.1931
25.2012
25.2086
25.2152
25.2212
25.2265
25.2312
25.2352
25.2387
25.2417
25.2442
25.2462
25.2478
25.2489
25.2497
25.2501
25.2501
25.2497
25.249
25.248
25.2466
25.2449
25.2428
25.2403
25.2375
25.2343
25.2306
25.2265
25.2218
25.2166
25.2105
25.2035
25.1951
25.1844
25.1674
25.1923
25.196
25.1978
25.1991
25.1972
25.1948
25.1936
25.1936
25.1943
25.1961
25.1979
25.1995
25.2007
25.2016
25.2022
25.2028
25.2032
25.2035
25.2037
25.2039
25.204
25.2041
25.2042
25.2042
25.2042
25.2042
25.2042
25.2042
25.2041
25.204
25.2039
25.2038
25.2037
25.2036
25.2034
25.2033
25.2031
25.2029
25.2027
25.2026
25.2024
25.2021
25.2019
25.2017
25.2014
25.2012
25.2009
25.2007
25.2004
25.2001
25.1998
25.1995
25.1992
25.1988
25.1985
25.1981
25.1978
25.1974
25.197
25.1966
25.1961
25.1957
25.1952
25.1947
25.1942
25.1936
25.193
25.1923
25.1916
25.1908
25.1899
25.1889
25.1878
25.1864
25.1848
25.1828
25.1803
25.1768
25.1717
25.1603
)
;
    }
    stirrerWall
    {
        type            calculated;
        value           nonuniform List<scalar> 0();
    }
    top
    {
        type            empty;
    }
    bottom
    {
        type            empty;
    }
    procBoundary2to3
    {
        type            processor;
        value           uniform 0;
    }
}


// ************************************************************************* //
