/*--------------------------------*- C++ -*----------------------------------*\
  =========                 |
  \\      /  F ield         | OpenFOAM: The Open Source CFD Toolbox
   \\    /   O peration     | Website:  https://openfoam.org
    \\  /    A nd           | Version:  10
     \\/     M anipulation  |
\*---------------------------------------------------------------------------*/
FoamFile
{
    format      ascii;
    class       volScalarField;
    location    "42000";
    object      nut;
}
// * * * * * * * * * * * * * * * * * * * * * * * * * * * * * * * * * * * * * //

dimensions      [0 2 -1 0 0 0 0];

internalField   nonuniform List<scalar> 
17922
(
0.00316158
0.00321553
0.00326949
0.00332339
0.00337718
0.00343079
0.00348416
0.0035372
0.00358984
0.003642
0.00369358
0.00374449
0.00379462
0.00384388
0.00389214
0.00393928
0.00398518
0.00402969
0.00407267
0.00411398
0.00415345
0.00419091
0.00422619
0.0042591
0.00428945
0.00431703
0.00434164
0.00436305
0.00438088
0.00439478
0.00440477
0.00441101
0.00441367
0.00441292
0.00440892
0.00440185
0.00439186
0.00437913
0.00436383
0.0043461
0.00432612
0.00430403
0.00427999
0.00425415
0.00422666
0.00419764
0.00416725
0.00413561
0.00410284
0.00406907
0.00403442
0.003999
0.00396292
0.00392628
0.00388919
0.00385175
0.00381404
0.00377615
0.00373817
0.00370017
0.00366223
0.00362441
0.00358678
0.00354941
0.00351234
0.00347562
0.00343931
0.00340344
0.00336805
0.00333318
0.00329884
0.00326507
0.00323188
0.00319928
0.00316728
0.00313589
0.00310508
0.00307485
0.00304519
0.00301605
0.00298741
0.00295922
0.00293143
0.00290399
0.00287682
0.00284984
0.00282299
0.00279615
0.00276924
0.00274214
0.00271472
0.00268687
0.00265845
0.00316159
0.00321554
0.0032695
0.00332341
0.0033772
0.00343081
0.00348417
0.00353722
0.00358986
0.00364202
0.0036936
0.00374451
0.00379465
0.0038439
0.00389216
0.00393931
0.0039852
0.00402971
0.0040727
0.00411401
0.00415348
0.00419094
0.00422622
0.00425913
0.00428948
0.00431707
0.00434168
0.00436309
0.00438092
0.00439483
0.00440482
0.00441106
0.00441373
0.00441298
0.00440899
0.00440192
0.00439194
0.00437922
0.00436393
0.00434621
0.00432624
0.00430416
0.00428014
0.00425431
0.00422683
0.00419783
0.00416745
0.00413582
0.00410307
0.00406931
0.00403468
0.00399928
0.00396321
0.0039266
0.00388953
0.0038521
0.00381441
0.00377654
0.00373858
0.0037006
0.00366268
0.00362489
0.00358728
0.00354993
0.00351288
0.00347618
0.00343989
0.00340403
0.00336866
0.0033338
0.00329947
0.00326571
0.00323253
0.00319993
0.00316793
0.00313652
0.0031057
0.00307545
0.00304576
0.00301658
0.00298789
0.00295963
0.00293177
0.00290423
0.00287695
0.00284984
0.00282284
0.00279583
0.00276871
0.00274137
0.0027137
0.00268556
0.00265682
0.00316161
0.00321556
0.00326952
0.00332343
0.00337722
0.00343083
0.0034842
0.00353724
0.00358988
0.00364204
0.00369362
0.00374453
0.00379467
0.00384393
0.00389219
0.00393933
0.00398523
0.00402974
0.00407273
0.00411404
0.00415351
0.00419097
0.00422625
0.00425917
0.00428952
0.0043171
0.00434171
0.00436313
0.00438096
0.00439487
0.00440487
0.00441111
0.00441378
0.00441304
0.00440905
0.00440199
0.00439202
0.00437931
0.00436402
0.00434631
0.00432635
0.00430429
0.00428027
0.00425446
0.00422699
0.00419801
0.00416764
0.00413603
0.00410329
0.00406956
0.00403494
0.00399955
0.00396351
0.00392691
0.00388986
0.00385246
0.00381479
0.00377694
0.003739
0.00370104
0.00366314
0.00362537
0.00358778
0.00355045
0.00351342
0.00347674
0.00344047
0.00340463
0.00336927
0.00333442
0.00330011
0.00326636
0.00323318
0.00320058
0.00316858
0.00313716
0.00310633
0.00307605
0.00304632
0.0030171
0.00298835
0.00296003
0.00293209
0.00290445
0.00287705
0.00284981
0.00282264
0.00279544
0.00276811
0.00274053
0.00271259
0.00268415
0.00265507
0.00316162
0.00321558
0.00326954
0.00332344
0.00337724
0.00343085
0.00348422
0.00353726
0.0035899
0.00364206
0.00369364
0.00374456
0.00379469
0.00384395
0.00389221
0.00393936
0.00398526
0.00402977
0.00407276
0.00411407
0.00415354
0.004191
0.00422628
0.0042592
0.00428955
0.00431714
0.00434175
0.00436317
0.004381
0.00439491
0.00440491
0.00441116
0.00441383
0.00441309
0.00440911
0.00440206
0.0043921
0.00437939
0.00436411
0.00434642
0.00432647
0.00430441
0.00428041
0.00425461
0.00422716
0.00419819
0.00416784
0.00413624
0.00410352
0.0040698
0.0040352
0.00399983
0.00396381
0.00392723
0.0038902
0.00385282
0.00381517
0.00377734
0.00373942
0.00370149
0.00366361
0.00362586
0.0035883
0.00355098
0.00351397
0.00347732
0.00344106
0.00340524
0.0033699
0.00333506
0.00330076
0.00326702
0.00323384
0.00320125
0.00316924
0.00313781
0.00310696
0.00307666
0.00304689
0.00301763
0.00298882
0.00296043
0.00293239
0.00290465
0.00287712
0.00284974
0.0028224
0.002795
0.00276745
0.00273962
0.00271139
0.00268264
0.00265321
0.00316164
0.0032156
0.00326956
0.00332346
0.00337726
0.00343087
0.00348424
0.00353728
0.00358992
0.00364208
0.00369367
0.00374458
0.00379472
0.00384398
0.00389224
0.00393938
0.00398528
0.0040298
0.00407278
0.00411409
0.00415357
0.00419103
0.00422631
0.00425923
0.00428958
0.00431717
0.00434178
0.0043632
0.00438104
0.00439496
0.00440496
0.00441121
0.00441388
0.00441315
0.00440918
0.00440213
0.00439217
0.00437948
0.00436421
0.00434652
0.00432658
0.00430454
0.00428056
0.00425477
0.00422733
0.00419837
0.00416804
0.00413646
0.00410375
0.00407005
0.00403547
0.00400012
0.00396411
0.00392756
0.00389055
0.00385318
0.00381556
0.00377775
0.00373986
0.00370194
0.00366409
0.00362636
0.00358882
0.00355153
0.00351454
0.0034779
0.00344167
0.00340587
0.00337054
0.00333572
0.00330143
0.00326769
0.00323452
0.00320193
0.00316991
0.00313848
0.0031076
0.00307728
0.00304747
0.00301816
0.00298929
0.00296082
0.00293269
0.00290483
0.00287717
0.00284963
0.00282211
0.00279451
0.00276673
0.00273863
0.00271011
0.00268102
0.00265124
0.00316165
0.00321561
0.00326957
0.00332348
0.00337727
0.00343089
0.00348426
0.0035373
0.00358995
0.00364211
0.00369369
0.0037446
0.00379474
0.003844
0.00389226
0.00393941
0.00398531
0.00402982
0.00407281
0.00411412
0.00415359
0.00419106
0.00422634
0.00425926
0.00428961
0.0043172
0.00434182
0.00436324
0.00438108
0.004395
0.004405
0.00441126
0.00441394
0.00441321
0.00440924
0.0044022
0.00439225
0.00437957
0.0043643
0.00434663
0.0043267
0.00430467
0.0042807
0.00425493
0.0042275
0.00419856
0.00416824
0.00413667
0.00410399
0.0040703
0.00403574
0.00400041
0.00396443
0.00392789
0.0038909
0.00385356
0.00381596
0.00377818
0.0037403
0.00370241
0.00366458
0.00362688
0.00358936
0.00355209
0.00351512
0.00347851
0.00344229
0.00340651
0.0033712
0.00333639
0.00330211
0.00326838
0.00323522
0.00320262
0.0031706
0.00313915
0.00310826
0.0030779
0.00304806
0.00301869
0.00298975
0.0029612
0.00293297
0.00290499
0.0028772
0.00284949
0.00282178
0.00279396
0.00276593
0.00273756
0.00270873
0.0026793
0.00264914
0.00316167
0.00321563
0.00326959
0.0033235
0.00337729
0.00343091
0.00348428
0.00353732
0.00358997
0.00364213
0.00369371
0.00374462
0.00379477
0.00384402
0.00389229
0.00393943
0.00398533
0.00402985
0.00407284
0.00411415
0.00415362
0.00419109
0.00422637
0.00425929
0.00428965
0.00431724
0.00434185
0.00436328
0.00438112
0.00439504
0.00440504
0.0044113
0.00441399
0.00441326
0.0044093
0.00440227
0.00439233
0.00437965
0.0043644
0.00434674
0.00432682
0.0043048
0.00428084
0.00425509
0.00422767
0.00419875
0.00416845
0.0041369
0.00410423
0.00407056
0.00403602
0.00400071
0.00396475
0.00392823
0.00389127
0.00385395
0.00381637
0.00377861
0.00374076
0.00370289
0.00366509
0.0036274
0.00358991
0.00355266
0.00351572
0.00347913
0.00344293
0.00340716
0.00337187
0.00333708
0.00330281
0.00326909
0.00323593
0.00320334
0.00317131
0.00313984
0.00310892
0.00307853
0.00304864
0.00301922
0.00299021
0.00296157
0.00293323
0.00290513
0.00287718
0.0028493
0.00282139
0.00279335
0.00276506
0.0027364
0.00270725
0.00267747
0.00264692
0.00316169
0.00321565
0.00326961
0.00332352
0.00337731
0.00343093
0.0034843
0.00353734
0.00358999
0.00364215
0.00369373
0.00374465
0.00379479
0.00384405
0.00389231
0.00393946
0.00398536
0.00402987
0.00407286
0.00411418
0.00415365
0.00419112
0.0042264
0.00425932
0.00428968
0.00431727
0.00434189
0.00436331
0.00438116
0.00439508
0.00440509
0.00441135
0.00441404
0.00441332
0.00440936
0.00440234
0.00439241
0.00437974
0.0043645
0.00434685
0.00432694
0.00430494
0.00428099
0.00425525
0.00422785
0.00419894
0.00416866
0.00413713
0.00410448
0.00407083
0.00403631
0.00400102
0.00396507
0.00392858
0.00389164
0.00385434
0.00381679
0.00377905
0.00374123
0.00370339
0.0036656
0.00362795
0.00359048
0.00355325
0.00351633
0.00347976
0.00344358
0.00340784
0.00337256
0.00333779
0.00330353
0.00326982
0.00323666
0.00320406
0.00317202
0.00314054
0.0031096
0.00307917
0.00304923
0.00301975
0.00299066
0.00296193
0.00293348
0.00290524
0.00287713
0.00284907
0.00282095
0.00279267
0.00276411
0.00273515
0.00270566
0.00267551
0.00264456
0.0031617
0.00321566
0.00326963
0.00332353
0.00337733
0.00343095
0.00348432
0.00353736
0.00359001
0.00364217
0.00369376
0.00374467
0.00379481
0.00384407
0.00389234
0.00393948
0.00398538
0.0040299
0.00407289
0.0041142
0.00415368
0.00419115
0.00422643
0.00425935
0.00428971
0.0043173
0.00434192
0.00436335
0.00438119
0.00439512
0.00440513
0.0044114
0.00441409
0.00441338
0.00440943
0.00440241
0.00439249
0.00437983
0.0043646
0.00434696
0.00432706
0.00430507
0.00428114
0.00425541
0.00422803
0.00419914
0.00416887
0.00413736
0.00410473
0.0040711
0.0040366
0.00400133
0.00396541
0.00392894
0.00389202
0.00385475
0.00381722
0.00377951
0.00374171
0.00370389
0.00366613
0.0036285
0.00359106
0.00355386
0.00351696
0.00348041
0.00344425
0.00340853
0.00337327
0.00333851
0.00330427
0.00327056
0.0032374
0.0032048
0.00317276
0.00314125
0.00311028
0.00307982
0.00304983
0.00302027
0.0029911
0.00296227
0.0029337
0.00290532
0.00287704
0.00284879
0.00282045
0.00279191
0.00276307
0.00273379
0.00270395
0.00267342
0.00264206
0.00316172
0.00321568
0.00326964
0.00332355
0.00337735
0.00343097
0.00348434
0.00353738
0.00359003
0.00364219
0.00369378
0.00374469
0.00379483
0.0038441
0.00389236
0.00393951
0.00398541
0.00402993
0.00407292
0.00411423
0.0041537
0.00419117
0.00422646
0.00425938
0.00428974
0.00431733
0.00434195
0.00436338
0.00438123
0.00439516
0.00440517
0.00441145
0.00441414
0.00441343
0.00440949
0.00440248
0.00439256
0.00437992
0.0043647
0.00434707
0.00432719
0.00430521
0.00428129
0.00425558
0.00422821
0.00419934
0.00416909
0.00413759
0.00410498
0.00407138
0.0040369
0.00400165
0.00396575
0.00392931
0.00389241
0.00385516
0.00381766
0.00377998
0.0037422
0.00370441
0.00366668
0.00362907
0.00359165
0.00355448
0.00351761
0.00348108
0.00344494
0.00340924
0.003374
0.00333925
0.00330502
0.00327132
0.00323817
0.00320556
0.0031735
0.00314198
0.00311097
0.00308046
0.00305042
0.00302079
0.00299154
0.00296259
0.00293389
0.00290536
0.00287691
0.00284845
0.00281987
0.00279107
0.00276193
0.00273233
0.00270213
0.0026712
0.00263941
0.00316173
0.0032157
0.00326966
0.00332357
0.00337737
0.00343098
0.00348435
0.0035374
0.00359005
0.00364221
0.0036938
0.00374471
0.00379486
0.00384412
0.00389238
0.00393953
0.00398543
0.00402995
0.00407294
0.00411426
0.00415373
0.0041912
0.00422649
0.00425941
0.00428977
0.00431736
0.00434199
0.00436342
0.00438127
0.0043952
0.00440522
0.00441149
0.00441419
0.00441349
0.00440955
0.00440255
0.00439264
0.00438
0.0043648
0.00434718
0.00432731
0.00430535
0.00428145
0.00425575
0.0042284
0.00419954
0.00416931
0.00413784
0.00410525
0.00407166
0.0040372
0.00400198
0.0039661
0.00392968
0.00389281
0.00385559
0.00381811
0.00378045
0.00374271
0.00370494
0.00366724
0.00362966
0.00359227
0.00355512
0.00351827
0.00348177
0.00344565
0.00340997
0.00337475
0.00334001
0.00330579
0.0032721
0.00323894
0.00320633
0.00317426
0.00314271
0.00311167
0.00308112
0.00305101
0.00302131
0.00299195
0.00296289
0.00293406
0.00290536
0.00287672
0.00284805
0.00281923
0.00279015
0.0027607
0.00273075
0.00270017
0.00266883
0.0026366
0.00316175
0.00321571
0.00326968
0.00332359
0.00337739
0.003431
0.00348437
0.00353742
0.00359007
0.00364223
0.00369382
0.00374474
0.00379488
0.00384414
0.00389241
0.00393956
0.00398546
0.00402998
0.00407297
0.00411428
0.00415376
0.00419123
0.00422652
0.00425944
0.0042898
0.00431739
0.00434202
0.00436345
0.0043813
0.00439524
0.00440526
0.00441154
0.00441424
0.00441355
0.00440962
0.00440262
0.00439272
0.00438009
0.0043649
0.00434729
0.00432744
0.00430549
0.0042816
0.00425592
0.00422859
0.00419975
0.00416954
0.00413808
0.00410551
0.00407195
0.00403751
0.00400231
0.00396646
0.00393007
0.00389322
0.00385603
0.00381857
0.00378095
0.00374323
0.00370549
0.00366781
0.00363026
0.00359289
0.00355577
0.00351895
0.00348247
0.00344638
0.00341072
0.00337551
0.00334079
0.00330658
0.00327289
0.00323974
0.00320712
0.00317503
0.00314345
0.00311238
0.00308177
0.0030516
0.00302181
0.00299236
0.00296317
0.00293419
0.00290532
0.00287648
0.00284758
0.0028185
0.00278913
0.00275936
0.00272905
0.00269808
0.00266632
0.00263364
0.00316177
0.00321573
0.0032697
0.00332361
0.0033774
0.00343102
0.00348439
0.00353744
0.00359009
0.00364225
0.00369384
0.00374476
0.0037949
0.00384416
0.00389243
0.00393958
0.00398548
0.00403
0.00407299
0.00411431
0.00415378
0.00419125
0.00422654
0.00425946
0.00428983
0.00431742
0.00434205
0.00436348
0.00438134
0.00439528
0.0044053
0.00441158
0.00441429
0.0044136
0.00440968
0.00440269
0.0043928
0.00438018
0.004365
0.00434741
0.00432757
0.00430563
0.00428176
0.0042561
0.00422878
0.00419996
0.00416977
0.00413834
0.00410579
0.00407225
0.00403783
0.00400266
0.00396683
0.00393046
0.00389364
0.00385648
0.00381905
0.00378145
0.00374376
0.00370605
0.0036684
0.00363088
0.00359354
0.00355645
0.00351965
0.00348319
0.00344713
0.00341148
0.0033763
0.00334159
0.00330739
0.00327371
0.00324055
0.00320792
0.00317581
0.0031442
0.00311309
0.00308242
0.00305218
0.0030223
0.00299274
0.00296342
0.00293428
0.00290523
0.00287618
0.00284704
0.00281769
0.00278801
0.0027579
0.00272722
0.00269585
0.00266365
0.0026305
0.00316178
0.00321575
0.00326971
0.00332362
0.00337742
0.00343104
0.00348441
0.00353746
0.00359011
0.00364228
0.00369386
0.00374478
0.00379492
0.00384419
0.00389245
0.0039396
0.00398551
0.00403002
0.00407302
0.00411433
0.00415381
0.00419128
0.00422657
0.00425949
0.00428986
0.00431745
0.00434208
0.00436352
0.00438138
0.00439531
0.00440534
0.00441163
0.00441435
0.00441366
0.00440974
0.00440276
0.00439288
0.00438028
0.0043651
0.00434752
0.0043277
0.00430578
0.00428192
0.00425628
0.00422898
0.00420018
0.00417001
0.0041386
0.00410607
0.00407255
0.00403816
0.00400301
0.00396721
0.00393087
0.00389408
0.00385694
0.00381954
0.00378197
0.00374431
0.00370663
0.00366901
0.00363152
0.00359421
0.00355714
0.00352037
0.00348394
0.00344789
0.00341227
0.0033771
0.00334241
0.00330822
0.00327454
0.00324137
0.00320873
0.0031766
0.00314496
0.0031138
0.00308307
0.00305275
0.00302278
0.00299309
0.00296364
0.00293433
0.00290509
0.00287582
0.00284642
0.00281678
0.00278679
0.00275633
0.00272526
0.00269347
0.00266082
0.00262719
0.0031618
0.00321576
0.00326973
0.00332364
0.00337744
0.00343106
0.00348443
0.00353748
0.00359013
0.0036423
0.00369389
0.0037448
0.00379495
0.00384421
0.00389248
0.00393963
0.00398553
0.00403005
0.00407304
0.00411436
0.00415384
0.00419131
0.0042266
0.00425952
0.00428988
0.00431748
0.00434211
0.00436355
0.00438141
0.00439535
0.00440538
0.00441167
0.0044144
0.00441372
0.00440981
0.00440283
0.00439297
0.00438037
0.00436521
0.00434764
0.00432783
0.00430593
0.00428209
0.00425646
0.00422918
0.0042004
0.00417025
0.00413886
0.00410636
0.00407286
0.0040385
0.00400337
0.0039676
0.00393128
0.00389452
0.00385741
0.00382004
0.0037825
0.00374487
0.00370723
0.00366964
0.00363217
0.00359489
0.00355785
0.00352111
0.0034847
0.00344868
0.00341308
0.00337793
0.00334325
0.00330906
0.00327539
0.00324222
0.00320956
0.0031774
0.00314573
0.00311451
0.00308372
0.00305331
0.00302323
0.00299342
0.00296382
0.00293433
0.00290489
0.00287538
0.00284571
0.00281578
0.00278545
0.00275462
0.00272316
0.00269093
0.00265782
0.00262369
0.00316182
0.00321578
0.00326975
0.00332366
0.00337746
0.00343108
0.00348445
0.0035375
0.00359015
0.00364232
0.00369391
0.00374483
0.00379497
0.00384423
0.0038925
0.00393965
0.00398555
0.00403007
0.00407307
0.00411438
0.00415386
0.00419133
0.00422662
0.00425955
0.00428991
0.00431751
0.00434214
0.00436358
0.00438145
0.00439539
0.00440542
0.00441172
0.00441445
0.00441377
0.00440987
0.00440291
0.00439305
0.00438046
0.00436531
0.00434776
0.00432796
0.00430608
0.00428226
0.00425665
0.00422939
0.00420063
0.0041705
0.00413913
0.00410665
0.00407318
0.00403884
0.00400375
0.003968
0.00393171
0.00389498
0.0038579
0.00382056
0.00378305
0.00374545
0.00370784
0.00367028
0.00363284
0.00359559
0.00355858
0.00352187
0.00348549
0.00344949
0.00341391
0.00337877
0.00334411
0.00330993
0.00327625
0.00324308
0.0032104
0.00317821
0.0031465
0.00311523
0.00308436
0.00305386
0.00302367
0.00299372
0.00296395
0.00293428
0.00290462
0.00287486
0.00284492
0.00281467
0.002784
0.00275278
0.00272091
0.00268823
0.00265465
0.00262001
0.00294702
0.00300048
0.00305413
0.00310792
0.00316183
0.0032158
0.00326977
0.00332368
0.00337748
0.0034311
0.00348447
0.00353752
0.00359017
0.00364234
0.00369393
0.00374485
0.00379499
0.00384426
0.00389252
0.00393967
0.00398558
0.0040301
0.00407309
0.00411441
0.00415389
0.00419136
0.00422665
0.00425958
0.00428994
0.00431754
0.00434217
0.00436361
0.00438148
0.00439543
0.00440546
0.00441176
0.0044145
0.00441383
0.00440994
0.00440298
0.00439313
0.00438056
0.00436542
0.00434788
0.0043281
0.00430623
0.00428243
0.00425684
0.0042296
0.00420086
0.00417076
0.00413941
0.00410696
0.00407351
0.0040392
0.00400413
0.00396841
0.00393215
0.00389545
0.0038584
0.0038211
0.00378362
0.00374605
0.00370847
0.00367094
0.00363353
0.00359631
0.00355933
0.00352265
0.00348629
0.00345032
0.00341476
0.00337964
0.00334499
0.00331082
0.00327713
0.00324395
0.00321125
0.00317903
0.00314727
0.00311594
0.00308499
0.00305439
0.00302408
0.00299398
0.00296404
0.00293417
0.00290428
0.00287426
0.00284402
0.00281344
0.00278241
0.0027508
0.0027185
0.00268536
0.00265129
0.00261614
0.00294703
0.00300049
0.00305414
0.00310794
0.00316185
0.00321582
0.00326978
0.0033237
0.0033775
0.00343112
0.00348449
0.00353755
0.0035902
0.00364236
0.00369395
0.00374487
0.00379502
0.00384428
0.00389255
0.0039397
0.0039856
0.00403012
0.00407312
0.00411443
0.00415391
0.00419139
0.00422668
0.0042596
0.00428997
0.00431757
0.0043422
0.00436365
0.00438151
0.00439546
0.00440551
0.00441181
0.00441455
0.00441389
0.00441
0.00440305
0.00439322
0.00438065
0.00436553
0.00434801
0.00432824
0.00430639
0.00428261
0.00425703
0.00422982
0.0042011
0.00417102
0.0041397
0.00410727
0.00407385
0.00403957
0.00400452
0.00396884
0.00393261
0.00389594
0.00385892
0.00382165
0.0037842
0.00374666
0.00370911
0.00367162
0.00363425
0.00359706
0.00356011
0.00352345
0.00348712
0.00345117
0.00341563
0.00338053
0.00334589
0.00331172
0.00327803
0.00324483
0.00321211
0.00317986
0.00314804
0.00311664
0.00308561
0.0030549
0.00302445
0.00299421
0.00296408
0.002934
0.00290386
0.00287357
0.00284302
0.0028121
0.00278069
0.00274867
0.00271592
0.00268232
0.00264774
0.00261206
0.00294705
0.00300051
0.00305416
0.00310796
0.00316187
0.00321584
0.0032698
0.00332372
0.00337752
0.00343114
0.00348451
0.00353757
0.00359022
0.00364238
0.00369397
0.00374489
0.00379504
0.0038443
0.00389257
0.00393972
0.00398563
0.00403015
0.00407314
0.00411446
0.00415394
0.00419141
0.0042267
0.00425963
0.00429
0.0043176
0.00434223
0.00436368
0.00438155
0.0043955
0.00440555
0.00441186
0.0044146
0.00441395
0.00441007
0.00440313
0.0043933
0.00438075
0.00436564
0.00434813
0.00432839
0.00430655
0.00428279
0.00425723
0.00423004
0.00420135
0.00417129
0.00413999
0.00410759
0.0040742
0.00403994
0.00400493
0.00396927
0.00393308
0.00389644
0.00385945
0.00382221
0.0037848
0.0037473
0.00370978
0.00367232
0.00363498
0.00359783
0.00356091
0.00352428
0.00348798
0.00345205
0.00341653
0.00338144
0.00334681
0.00331264
0.00327895
0.00324573
0.00321298
0.00318069
0.00314881
0.00311733
0.00308621
0.00305538
0.00302479
0.00299438
0.00296406
0.00293375
0.00290335
0.00287277
0.0028419
0.00281062
0.00277882
0.00274638
0.00271318
0.00267908
0.00264399
0.00260778
0.00278817
0.00284085
0.00289382
0.00294706
0.00300053
0.00305418
0.00310798
0.00316189
0.00321585
0.00326982
0.00332374
0.00337754
0.00343116
0.00348454
0.00353759
0.00359024
0.00364241
0.003694
0.00374492
0.00379506
0.00384433
0.00389259
0.00393975
0.00398565
0.00403017
0.00407317
0.00411448
0.00415396
0.00419144
0.00422673
0.00425966
0.00429002
0.00431763
0.00434226
0.00436371
0.00438158
0.00439554
0.00440559
0.0044119
0.00441465
0.004414
0.00441013
0.00440321
0.00439339
0.00438085
0.00436576
0.00434826
0.00432853
0.00430672
0.00428297
0.00425744
0.00423027
0.0042016
0.00417156
0.00414029
0.00410792
0.00407456
0.00404033
0.00400535
0.00396972
0.00393356
0.00389695
0.00386
0.0038228
0.00378542
0.00374795
0.00371047
0.00367304
0.00363574
0.00359861
0.00356173
0.00352513
0.00348885
0.00345295
0.00341745
0.00338237
0.00334775
0.00331358
0.00327988
0.00324664
0.00321386
0.00318151
0.00314958
0.00311802
0.00308679
0.00305583
0.00302509
0.0029945
0.00296397
0.00293343
0.00290276
0.00287187
0.00284066
0.00280901
0.00277681
0.00274393
0.00271025
0.00267566
0.00264004
0.00260328
0.00278818
0.00284086
0.00289384
0.00294708
0.00300054
0.0030542
0.003108
0.00316191
0.00321587
0.00326984
0.00332376
0.00337756
0.00343118
0.00348456
0.00353761
0.00359026
0.00364243
0.00369402
0.00374494
0.00379508
0.00384435
0.00389262
0.00393977
0.00398567
0.0040302
0.00407319
0.00411451
0.00415399
0.00419146
0.00422676
0.00425968
0.00429005
0.00431766
0.00434229
0.00436374
0.00438162
0.00439557
0.00440563
0.00441195
0.0044147
0.00441406
0.0044102
0.00440328
0.00439348
0.00438096
0.00436587
0.0043484
0.00432868
0.00430689
0.00428316
0.00425765
0.0042305
0.00420186
0.00417185
0.00414061
0.00410826
0.00407493
0.00404073
0.00400578
0.00397019
0.00393406
0.00389749
0.00386057
0.0038234
0.00378606
0.00374863
0.00371118
0.00367379
0.00363652
0.00359943
0.00356257
0.003526
0.00348975
0.00345387
0.00341839
0.00338333
0.00334871
0.00331454
0.00328082
0.00324756
0.00321474
0.00318234
0.00315034
0.00311868
0.00308734
0.00305625
0.00302535
0.00299456
0.00296382
0.00293301
0.00290206
0.00287086
0.0028393
0.00280726
0.00277463
0.0027413
0.00270714
0.00267204
0.00263589
0.00259858
0.0027882
0.00284088
0.00289386
0.00294709
0.00300056
0.00305421
0.00310802
0.00316193
0.00321589
0.00326986
0.00332378
0.00337758
0.0034312
0.00348458
0.00353763
0.00359028
0.00364245
0.00369404
0.00374496
0.00379511
0.00384437
0.00389264
0.00393979
0.0039857
0.00403022
0.00407322
0.00411453
0.00415401
0.00419149
0.00422678
0.00425971
0.00429008
0.00431769
0.00434232
0.00436377
0.00438165
0.00439561
0.00440567
0.00441199
0.00441475
0.00441412
0.00441027
0.00440336
0.00439357
0.00438106
0.00436599
0.00434853
0.00432884
0.00430706
0.00428336
0.00425787
0.00423075
0.00420213
0.00417214
0.00414093
0.00410861
0.00407531
0.00404114
0.00400623
0.00397067
0.00393457
0.00389803
0.00386115
0.00382402
0.00378672
0.00374932
0.00371191
0.00367456
0.00363732
0.00360026
0.00356344
0.0035269
0.00349068
0.00345482
0.00341936
0.0033843
0.00334969
0.00331551
0.00328178
0.00324849
0.00321563
0.00318317
0.00315108
0.00311933
0.00308786
0.00305662
0.00302555
0.00299456
0.00296358
0.00293251
0.00290126
0.00286972
0.00283779
0.00280535
0.00277229
0.00273849
0.00270384
0.00266822
0.00263153
0.00259365
0.00278821
0.00284089
0.00289387
0.00294711
0.00300058
0.00305423
0.00310804
0.00316195
0.00321591
0.00326988
0.0033238
0.0033776
0.00343122
0.0034846
0.00353765
0.00359031
0.00364247
0.00369407
0.00374499
0.00379513
0.0038444
0.00389267
0.00393982
0.00398572
0.00403025
0.00407324
0.00411456
0.00415404
0.00419151
0.00422681
0.00425974
0.0042901
0.00431771
0.00434235
0.0043638
0.00438168
0.00439565
0.00440571
0.00441204
0.00441481
0.00441418
0.00441034
0.00440344
0.00439366
0.00438117
0.00436612
0.00434867
0.004329
0.00430724
0.00428356
0.00425809
0.004231
0.0042024
0.00417244
0.00414126
0.00410897
0.0040757
0.00404157
0.00400669
0.00397116
0.0039351
0.0038986
0.00386176
0.00382466
0.0037874
0.00375004
0.00371267
0.00367535
0.00363815
0.00360113
0.00356434
0.00352782
0.00349163
0.00345579
0.00342034
0.0033853
0.00335068
0.0033165
0.00328275
0.00324942
0.00321651
0.00318398
0.00315181
0.00311995
0.00308835
0.00305695
0.00302569
0.00299449
0.00296326
0.00293191
0.00290034
0.00286846
0.00283614
0.00280329
0.00276978
0.0027355
0.00270034
0.00266419
0.00262694
0.0025885
0.00278822
0.00284091
0.00289389
0.00294713
0.0030006
0.00305425
0.00310806
0.00316197
0.00321593
0.0032699
0.00332382
0.00337762
0.00343125
0.00348462
0.00353768
0.00359033
0.0036425
0.00369409
0.00374501
0.00379516
0.00384442
0.00389269
0.00393984
0.00398575
0.00403027
0.00407327
0.00411458
0.00415406
0.00419154
0.00422683
0.00425976
0.00429013
0.00431774
0.00434238
0.00436383
0.00438172
0.00439569
0.00440575
0.00441209
0.00441486
0.00441425
0.00441041
0.00440353
0.00439376
0.00438128
0.00436624
0.00434882
0.00432916
0.00430742
0.00428376
0.00425833
0.00423125
0.00420268
0.00417276
0.0041416
0.00410934
0.00407611
0.00404201
0.00400716
0.00397167
0.00393565
0.00389919
0.00386238
0.00382532
0.0037881
0.00375078
0.00371345
0.00367617
0.003639
0.00360202
0.00356526
0.00352877
0.00349261
0.00345679
0.00342135
0.00338632
0.0033517
0.0033175
0.00328372
0.00325036
0.00321739
0.00318479
0.00315252
0.00312054
0.0030888
0.00305723
0.00302577
0.00299433
0.00296284
0.00293119
0.0028993
0.00286705
0.00283434
0.00280105
0.00276708
0.00273231
0.00269664
0.00265995
0.00262214
0.00258312
0.00278824
0.00284093
0.00289391
0.00294715
0.00300061
0.00305427
0.00310808
0.00316199
0.00321595
0.00326992
0.00332384
0.00337764
0.00343127
0.00348465
0.0035377
0.00359035
0.00364252
0.00369411
0.00374503
0.00379518
0.00384445
0.00389272
0.00393987
0.00398577
0.0040303
0.00407329
0.00411461
0.00415409
0.00419157
0.00422686
0.00425979
0.00429016
0.00431777
0.00434241
0.00436387
0.00438175
0.00439572
0.00440579
0.00441213
0.00441492
0.00441431
0.00441048
0.00440361
0.00439386
0.00438139
0.00436637
0.00434897
0.00432933
0.00430762
0.00428398
0.00425856
0.00423152
0.00420298
0.00417308
0.00414196
0.00410973
0.00407653
0.00404246
0.00400765
0.0039722
0.00393622
0.00389979
0.00386303
0.00382601
0.00378882
0.00375154
0.00371425
0.00367701
0.00363988
0.00360293
0.0035662
0.00352975
0.00349361
0.00345781
0.00342238
0.00338735
0.00335273
0.00331851
0.0032847
0.00325129
0.00321826
0.00318557
0.0031532
0.00312109
0.0030892
0.00305745
0.00302577
0.00299409
0.00296232
0.00293037
0.00289813
0.0028655
0.00283237
0.00279864
0.0027642
0.00272893
0.00269272
0.00265548
0.00261711
0.00257752
0.00278825
0.00284094
0.00289392
0.00294716
0.00300063
0.00305429
0.0031081
0.00316201
0.00321598
0.00326995
0.00332386
0.00337767
0.00343129
0.00348467
0.00353772
0.00359038
0.00364254
0.00369414
0.00374506
0.00379521
0.00384447
0.00389274
0.00393989
0.0039858
0.00403032
0.00407332
0.00411464
0.00415412
0.00419159
0.00422689
0.00425982
0.00429019
0.0043178
0.00434244
0.0043639
0.00438179
0.00439576
0.00440584
0.00441218
0.00441497
0.00441437
0.00441056
0.0044037
0.00439396
0.00438151
0.00436651
0.00434912
0.0043295
0.00430781
0.0042842
0.00425881
0.00423179
0.00420328
0.00417341
0.00414232
0.00411013
0.00407696
0.00404294
0.00400816
0.00397275
0.0039368
0.00390042
0.0038637
0.00382672
0.00378957
0.00375234
0.00371508
0.00367788
0.00364079
0.00360387
0.00356718
0.00353075
0.00349463
0.00345885
0.00342344
0.00338841
0.00335377
0.00331953
0.00328569
0.00325223
0.00321912
0.00318634
0.00315386
0.00312161
0.00308954
0.0030576
0.0030257
0.00299376
0.0029617
0.00292941
0.00289681
0.00286379
0.00283024
0.00279605
0.00276112
0.00272533
0.00268859
0.0026508
0.00261186
0.00257169
0.00278827
0.00284096
0.00289394
0.00294718
0.00300065
0.00305431
0.00310812
0.00316203
0.003216
0.00326997
0.00332389
0.00337769
0.00343131
0.00348469
0.00353775
0.0035904
0.00364257
0.00369416
0.00374508
0.00379523
0.0038445
0.00389277
0.00393992
0.00398582
0.00403035
0.00407334
0.00411466
0.00415414
0.00419162
0.00422691
0.00425984
0.00429021
0.00431783
0.00434247
0.00436393
0.00438182
0.0043958
0.00440588
0.00441223
0.00441503
0.00441444
0.00441064
0.00440379
0.00439406
0.00438163
0.00436664
0.00434928
0.00432968
0.00430802
0.00428443
0.00425907
0.00423208
0.0042036
0.00417376
0.0041427
0.00411055
0.00407741
0.00404342
0.00400869
0.00397332
0.00393741
0.00390107
0.00386439
0.00382745
0.00379035
0.00375315
0.00371594
0.00367878
0.00364173
0.00360484
0.00356818
0.00353178
0.00349568
0.00345992
0.00342451
0.00338948
0.00335483
0.00332056
0.00328668
0.00325315
0.00321997
0.00318709
0.00315447
0.00312208
0.00308983
0.00305768
0.00302553
0.00299332
0.00296095
0.00292833
0.00289536
0.00286192
0.00282793
0.00279327
0.00275784
0.00272153
0.00268425
0.00264589
0.00260637
0.00256562
0.00278829
0.00284098
0.00289396
0.0029472
0.00300067
0.00305433
0.00310814
0.00316205
0.00321602
0.00326999
0.00332391
0.00337771
0.00343134
0.00348472
0.00353777
0.00359043
0.00364259
0.00369419
0.00374511
0.00379526
0.00384452
0.00389279
0.00393995
0.00398585
0.00403037
0.00407337
0.00411469
0.00415417
0.00419164
0.00422694
0.00425987
0.00429024
0.00431786
0.0043425
0.00436396
0.00438186
0.00439584
0.00440592
0.00441228
0.00441509
0.00441451
0.00441072
0.00440388
0.00439417
0.00438175
0.00436679
0.00434944
0.00432987
0.00430823
0.00428466
0.00425933
0.00423237
0.00420392
0.00417412
0.0041431
0.00411098
0.00407788
0.00404393
0.00400923
0.0039739
0.00393804
0.00390174
0.0038651
0.00382821
0.00379115
0.003754
0.00371683
0.0036797
0.00364269
0.00360584
0.00356921
0.00353284
0.00349676
0.00346101
0.0034256
0.00339056
0.0033559
0.0033216
0.00328766
0.00325407
0.00322079
0.0031878
0.00315505
0.00312249
0.00309005
0.00305768
0.00302528
0.00299278
0.00296009
0.00292711
0.00289374
0.00285989
0.00282544
0.0027903
0.00275436
0.00271751
0.00267968
0.00264075
0.00260066
0.00255933
0.0027883
0.00284099
0.00289398
0.00294722
0.00300069
0.00305435
0.00310816
0.00316208
0.00321604
0.00327001
0.00332393
0.00337774
0.00343136
0.00348474
0.0035378
0.00359045