/*--------------------------------*- C++ -*----------------------------------*\
  =========                 |
  \\      /  F ield         | OpenFOAM: The Open Source CFD Toolbox
   \\    /   O peration     | Website:  https://openfoam.org
    \\  /    A nd           | Version:  10
     \\/     M anipulation  |
\*---------------------------------------------------------------------------*/
FoamFile
{
    format      ascii;
    class       volVectorField;
    location    "42000";
    object      Urel;
}
// * * * * * * * * * * * * * * * * * * * * * * * * * * * * * * * * * * * * * //

dimensions      [0 1 -1 0 0 0 0];

internalField   nonuniform List<vector> 
17922
(
(2.06176 -2.25573 0)
(2.04776 -2.24043 3.82744e-19)
(2.03365 -2.22502 -1.49142e-18)
(2.01943 -2.20948 7.65354e-25)
(2.00509 -2.19382 3.49643e-19)
(1.99062 -2.17803 6.80837e-19)
(1.97604 -2.1621 1.61428e-23)
(1.96132 -2.14604 3.18565e-19)
(1.94647 -2.12983 -2.66421e-21)
(1.93148 -2.11347 -3.0162e-19)
(1.91635 -2.09696 -2.32664e-18)
(1.90108 -2.08028 0)
(1.88565 -2.06345 0)
(1.87006 -2.04645 -2.62461e-19)
(1.85432 -2.02927 2.56468e-19)
(1.83841 -2.01191 -2.45504e-19)
(1.82232 -1.99437 2.3995e-19)
(1.80606 -1.97663 -9.22993e-19)
(1.78961 -1.95869 -2.21775e-19)
(1.77297 -1.94055 -8.59646e-19)
(1.75614 -1.92219 -6.23509e-19)
(1.7391 -1.90361 1.99933e-19)
(1.72186 -1.8848 -9.7276e-19)
(1.70439 -1.86576 7.50557e-19)
(1.6867 -1.84647 -7.24705e-19)
(1.66878 -1.82692 0)
(1.65061 -1.80711 0)
(1.63219 -1.78702 0)
(1.61367 -1.76682 1.27605e-18)
(1.59537 -1.74685 1.57371e-19)
(1.57743 -1.72728 4.71863e-19)
(1.55984 -1.70808 1.25522e-18)
(1.54259 -1.68925 -5.47413e-19)
(1.52567 -1.67077 5.44345e-19)
(1.50906 -1.65263 -6.20942e-19)
(1.49276 -1.63482 0)
(1.47676 -1.61733 7.67319e-20)
(1.46104 -1.60014 -7.72064e-19)
(1.44559 -1.58325 -4.62932e-19)
(1.43042 -1.56664 -7.71462e-19)
(1.41551 -1.55031 7.77239e-20)
(1.40084 -1.53425 -7.663e-20)
(1.38642 -1.51845 -5.40716e-19)
(1.37224 -1.50289 -7.68883e-20)
(1.35828 -1.48758 6.21919e-19)
(1.34454 -1.4725 -1.08894e-18)
(1.33102 -1.45765 -1.10347e-21)
(1.3177 -1.44302 -6.26873e-19)
(1.30458 -1.4286 5.48802e-19)
(1.29165 -1.41438 0)
(1.27891 -1.40035 3.16265e-19)
(1.26634 -1.38652 3.1752e-19)
(1.25395 -1.37287 -3.98038e-19)
(1.24173 -1.3594 4.00944e-19)
(1.22966 -1.34609 0)
(1.21776 -1.33295 2.43061e-19)
(1.206 -1.31997 8.17747e-20)
(1.19439 -1.30715 3.26502e-19)
(1.18293 -1.29447 0)
(1.1716 -1.28194 -3.29879e-19)
(1.16041 -1.26955 0)
(1.14935 -1.25729 8.27586e-20)
(1.13842 -1.24517 -4.19336e-19)
(1.12761 -1.23318 -3.36763e-19)
(1.11693 -1.22131 3.38546e-19)
(1.10638 -1.20957 -3.40283e-19)
(1.09594 -1.19796 2.57084e-19)
(1.08563 -1.18647 -1.71838e-19)
(1.07544 -1.1751 -4.32256e-19)
(1.06536 -1.16385 0)
(1.05541 -1.15272 1.7433e-19)
(1.04558 -1.14171 1.75094e-19)
(1.03588 -1.13083 -2.30304e-23)
(1.0263 -1.12007 2.64344e-19)
(1.01684 -1.10944 -2.66538e-19)
(1.0075 -1.09893 1.77993e-19)
(0.998295 -1.08854 1.78671e-19)
(0.989212 -1.07829 -3.58564e-19)
(0.980255 -1.06816 8.93512e-20)
(0.971425 -1.05817 -9.07839e-20)
(0.962721 -1.0483 2.70868e-19)
(0.954142 -1.03857 -1.8144e-19)
(0.945689 -1.02898 1.17776e-21)
(0.93736 -1.01952 9.17273e-20)
(0.929155 -1.01019 4.5639e-19)
(0.921073 -1.001 8.37769e-24)
(0.913111 -0.991942 2.75911e-19)
(0.905268 -0.983021 0)
(0.897541 -0.974234 -9.15716e-20)
(0.88993 -0.965582 9.29143e-20)
(0.88243 -0.957062 -1.84473e-19)
(0.87504 -0.948673 9.38685e-20)
(0.867755 -0.940414 1.85865e-19)
(2.05635 -2.26065 -4.03094e-19)
(2.04239 -2.24532 3.88842e-19)
(2.02831 -2.22987 -3.8038e-19)
(2.01412 -2.2143 1.47189e-18)
(1.99982 -2.1986 -9.75097e-24)
(1.9854 -2.18277 -3.45191e-19)
(1.97085 -2.16681 1.00994e-18)
(1.95617 -2.15071 0)
(1.94136 -2.13446 -1.57904e-18)
(1.92641 -2.11807 3.07703e-19)
(1.91132 -2.10152 1.18737e-18)
(1.89608 -2.08481 -1.15017e-18)
(1.8807 -2.06794 0)
(1.86515 -2.0509 0)
(1.84945 -2.03368 0)
(1.83358 -2.01628 1.26131e-18)
(1.81753 -1.9987 9.74597e-19)
(1.80131 -1.98092 7.07599e-19)
(1.78491 -1.96294 2.27208e-19)
(1.76832 -1.94476 6.61467e-19)
(1.75153 -1.92636 1.25759e-23)
(1.73454 -1.90774 0)
(1.71733 -1.88889 1.98145e-19)
(1.69992 -1.86981 -9.64458e-19)
(1.68227 -1.85047 7.44308e-19)
(1.6644 -1.83088 0)
(1.64628 -1.81103 0)
(1.62791 -1.79089 0)
(1.60944 -1.77065 -2.09639e-23)
(1.59118 -1.75064 0)
(1.57329 -1.73102 1.60915e-19)
(1.55575 -1.71178 -1.62535e-19)
(1.53854 -1.69291 1.28505e-18)
(1.52167 -1.67439 4.81321e-19)
(1.50511 -1.65621 1.60742e-19)
(1.48885 -1.63836 0)
(1.47289 -1.62083 -6.35533e-19)
(1.45721 -1.60361 6.34715e-19)
(1.44181 -1.58668 7.12916e-19)
(1.42668 -1.57004 5.54192e-19)
(1.4118 -1.55367 -5.55438e-19)
(1.39718 -1.53758 5.54653e-19)
(1.3828 -1.52174 0)
(1.36865 -1.50616 -7.89466e-20)
(1.35473 -1.49081 -6.36135e-19)
(1.34103 -1.4757 1.35773e-18)
(1.32754 -1.46082 7.94673e-20)
(1.31426 -1.44616 4.81556e-19)
(1.30117 -1.43171 -5.62994e-19)
(1.28828 -1.41746 4.03326e-19)
(1.27557 -1.40341 1.62137e-19)
(1.26303 -1.38955 -2.43584e-19)
(1.25067 -1.37587 3.26849e-19)
(1.23848 -1.36237 0)
(1.22645 -1.34904 -8.18497e-20)
(1.21457 -1.33588 8.33578e-20)
(1.20285 -1.32287 3.3269e-19)
(1.19127 -1.31003 -3.34277e-19)
(1.17983 -1.29733 0)
(1.16853 -1.28477 -8.38097e-20)
(1.15737 -1.27236 8.53683e-20)
(1.14633 -1.26008 -8.4641e-20)
(1.13543 -1.24794 6.86223e-19)
(1.12465 -1.23593 4.3086e-19)
(1.11399 -1.22404 0)
(1.10346 -1.21229 0)
(1.09305 -1.20066 -8.67297e-20)
(1.08276 -1.18915 4.39165e-19)
(1.0726 -1.17776 7.04935e-19)
(1.06255 -1.1665 0)
(1.05262 -1.15536 0)
(1.04282 -1.14434 -2.68376e-19)
(1.03313 -1.13344 -1.8042e-19)
(1.02357 -1.12267 -9.05569e-20)
(1.01414 -1.11202 1.80607e-19)
(1.00482 -1.1015 -1.8124e-19)
(0.995633 -1.0911 -1.81837e-19)
(0.98657 -1.08084 9.17905e-20)
(0.977632 -1.0707 1.84115e-19)
(0.968819 -1.0607 1.84618e-19)
(0.960131 -1.05083 1.17203e-21)
(0.951568 -1.04109 -9.15891e-20)
(0.94313 -1.03148 2.0203e-24)
(0.934815 -1.02201 -2.7714e-19)
(0.926623 -1.01267 -9.21666e-20)
(0.918552 -1.00347 -2.78184e-19)
(0.9106 -0.994406 -9.24968e-20)
(0.902767 -0.985475 0)
(0.89505 -0.976678 0)
(0.887446 -0.968014 2.80065e-19)
(0.879954 -0.959482 -9.37158e-20)
(0.87257 -0.95108 5.83323e-22)
(0.865292 -0.942808 0)
(2.05077 -2.2657 4.03565e-19)
(2.03684 -2.25034 -3.95014e-19)
(2.02281 -2.23485 1.52975e-18)
(2.00866 -2.21925 -1.4859e-18)
(1.99439 -2.20352 -7.2144e-19)
(1.98001 -2.18765 -3.48776e-19)
(1.9655 -2.17165 1.02085e-18)
(1.95086 -2.15551 1.31876e-18)
(1.93609 -2.13923 9.60697e-19)
(1.92118 -2.1228 -9.2879e-19)
(1.90613 -2.10621 0)
(1.89094 -2.08946 1.45496e-18)
(1.87559 -2.07255 -2.83527e-19)
(1.86009 -2.05547 -2.7196e-19)
(1.84443 -2.03822 2.6598e-19)
(1.8286 -2.02078 1.02475e-18)
(1.8126 -2.00316 -1.98356e-18)
(1.79642 -1.98534 0)
(1.78006 -1.96732 -6.97541e-19)
(1.76352 -1.94909 -2.6145e-21)
(1.74677 -1.93065 1.73369e-18)
(1.72983 -1.91199 -4.19642e-19)
(1.71267 -1.8931 8.13825e-19)
(1.6953 -1.87397 2.56885e-21)
(1.67771 -1.85459 -7.54955e-19)
(1.65988 -1.83496 1.84237e-19)
(1.64181 -1.81506 0)
(1.62349 -1.79488 1.69363e-19)
(1.60507 -1.77459 -1.5053e-18)
(1.58687 -1.75453 -1.64869e-19)
(1.56903 -1.73487 8.27045e-19)
(1.55153 -1.71559 -6.57349e-19)
(1.53438 -1.69668 -8.16888e-19)
(1.51755 -1.67812 -3.26034e-19)
(1.50103 -1.6599 -3.25009e-19)
(1.48482 -1.64201 8.11663e-19)
(1.4689 -1.62444 8.07732e-19)
(1.45327 -1.60718 -1.62732e-19)
(1.43791 -1.59021 0)
(1.42282 -1.57354 -8.05551e-19)
(1.40799 -1.55714 6.47747e-19)
(1.39341 -1.54101 1.62592e-19)
(1.37907 -1.52514 -5.66085e-19)
(1.36496 -1.50952 -7.28608e-19)
(1.35108 -1.49414 7.28702e-19)
(1.33741 -1.479 -8.11948e-19)
(1.32396 -1.46409 -5.69095e-19)
(1.31072 -1.4494 0)
(1.29767 -1.43491 5.73433e-19)
(1.28481 -1.42064 -5.74132e-19)
(1.27213 -1.40656 -4.11349e-19)
(1.25963 -1.39267 8.32586e-20)
(1.24731 -1.37897 0)
(1.23515 -1.36544 0)
(1.22314 -1.35209 -3.3473e-19)
(1.2113 -1.3389 0)
(1.1996 -1.32587 -3.37687e-19)
(1.18805 -1.313 0)
(1.17665 -1.30027 3.4075e-19)
(1.16538 -1.2877 0)
(1.15424 -1.27526 0)
(1.14323 -1.26296 0)
(1.13236 -1.2508 -3.472e-19)
(1.1216 -1.23877 0)
(1.11098 -1.22687 -8.7021e-20)
(1.10047 -1.21509 1.76012e-19)
(1.09009 -1.20345 -1.76803e-19)
(1.07982 -1.19192 -2.65773e-19)
(1.06968 -1.18052 -3.56711e-19)
(1.05966 -1.16924 0)
(1.04976 -1.15808 -1.79809e-19)
(1.03998 -1.14705 1.80527e-19)
(1.03032 -1.13614 1.81185e-19)
(1.02078 -1.12536 0)
(1.01137 -1.1147 0)
(1.00207 -1.10416 9.09287e-20)
(0.992906 -1.09376 -9.23705e-20)
(0.983863 -1.08348 0)
(0.974944 -1.07333 -9.17234e-20)
(0.966149 -1.06332 -9.19411e-20)
(0.957479 -1.05344 0)
(0.948933 -1.04369 3.71698e-19)
(0.94051 -1.03407 1.86213e-19)
(0.93221 -1.02459 -1.86524e-19)
(0.924032 -1.01524 0)
(0.915974 -1.00603 9.41399e-20)
(0.908035 -0.996956 9.42801e-20)
(0.900213 -0.988014 1.87639e-19)
(0.892506 -0.979206 1.87314e-19)
(0.884912 -0.97053 -2.82247e-19)
(0.877428 -0.961985 9.422e-20)
(0.870052 -0.953571 -1.16232e-21)
(0.862782 -0.945284 -9.51087e-20)
(2.04501 -2.2709 4.09468e-19)
(2.03112 -2.25549 -3.95342e-19)
(2.01713 -2.23997 -7.68528e-19)
(2.00302 -2.22433 1.12578e-18)
(1.98879 -2.20856 3.62684e-19)
(1.97445 -2.19266 -7.07198e-19)
(1.95998 -2.17662 -9.89852e-24)
(1.94538 -2.16045 -3.34633e-19)
(1.93065 -2.14413 3.21932e-19)
(1.91578 -2.12766 9.39533e-19)
(1.90078 -2.11103 0)
(1.88562 -2.09424 0)
(1.87032 -2.07729 -1.14314e-18)
(1.85486 -2.06017 1.10765e-18)
(1.83925 -2.04288 0)
(1.82346 -2.0254 -1.29756e-18)
(1.80751 -2.00773 1.25894e-18)
(1.79138 -1.98987 -9.73821e-19)
(1.77507 -1.97181 1.88481e-18)
(1.75856 -1.95355 -2.26618e-19)
(1.74187 -1.93506 -6.60172e-19)
(1.72497 -1.91636 0)
(1.70787 -1.89742 -8.24728e-19)
(1.69055 -1.87825 -7.97297e-19)
(1.673 -1.85883 9.62034e-19)
(1.65522 -1.83915 -3.72392e-19)
(1.63721 -1.8192 1.81214e-19)
(1.61894 -1.79897 0)
(1.60057 -1.77864 0)
(1.58242 -1.75853 0)
(1.56463 -1.73883 -6.72783e-19)
(1.54719 -1.7195 0)
(1.53008 -1.70055 -6.66362e-19)
(1.5133 -1.68194 -8.28559e-19)
(1.49683 -1.66369 3.30858e-19)
(1.48067 -1.64576 -8.26217e-19)
(1.4648 -1.62815 0)
(1.44921 -1.61085 0)
(1.4339 -1.59385 0)
(1.41885 -1.57713 1.62962e-19)
(1.40406 -1.5607 4.91224e-19)
(1.38952 -1.54453 -1.63016e-19)
(1.37522 -1.52863 8.22825e-19)
(1.36115 -1.51297 6.58081e-19)
(1.34731 -1.49757 6.59048e-19)
(1.33369 -1.48239 6.60276e-19)
(1.32027 -1.46745 3.6472e-23)
(1.30706 -1.45272 0)
(1.29405 -1.43821 -8.26049e-20)
(1.28123 -1.4239 7.51197e-19)
(1.26858 -1.4098 -2.51591e-19)
(1.25612 -1.39588 -4.20382e-19)
(1.24383 -1.38215 0)
(1.2317 -1.3686 -8.40057e-20)
(1.21973 -1.35521 4.2523e-19)
(1.20792 -1.342 8.46893e-20)
(1.19626 -1.32895 1.71258e-19)
(1.18474 -1.31605 5.16e-19)
(1.17336 -1.3033 -5.18279e-19)
(1.16212 -1.2907 4.34367e-19)
(1.15101 -1.27824 -8.65548e-20)
(1.14003 -1.26593 8.81201e-20)
(1.12919 -1.25374 3.51667e-19)
(1.11846 -1.24169 -8.77168e-20)
(1.10786 -1.22977 4.44047e-19)
(1.09738 -1.21798 -3.56289e-19)
(1.08703 -1.20631 0)
(1.07679 -1.19477 3.59306e-19)
(1.06667 -1.18335 8.95877e-20)
(1.05668 -1.17205 -2.72189e-19)
(1.0468 -1.16088 2.73221e-19)
(1.03704 -1.14983 9.17971e-20)
(1.02741 -1.13891 -4.56982e-19)
(1.01789 -1.12811 9.24105e-20)
(1.0085 -1.11744 0)
(0.999233 -1.10689 1.84721e-19)
(0.990087 -1.09648 3.7046e-19)
(0.981065 -1.08619 0)
(0.972166 -1.07603 -2.786e-19)
(0.96339 -1.066 1.86518e-19)
(0.954738 -1.05611 -2.80909e-19)
(0.946209 -1.04635 -2.80231e-19)
(0.937803 -1.03672 1.18777e-21)
(0.929518 -1.02723 4.7005e-19)
(0.921354 -1.01787 0)
(0.91331 -1.00865 -9.47299e-20)
(0.905384 -0.999563 9.36402e-20)
(0.897574 -0.990609 -2.83606e-19)
(0.889878 -0.981788 -2.83322e-19)
(0.882295 -0.973099 9.45455e-20)
(0.874821 -0.964541 -9.46508e-20)
(0.867455 -0.956112 9.53622e-20)
(0.860193 -0.947811 0)
(2.03907 -2.27623 1.23408e-18)
(2.02522 -2.26079 -3.98273e-19)
(2.01126 -2.24523 3.90138e-19)
(1.9972 -2.22955 -7.55804e-19)
(1.98301 -2.21374 0)
(1.96871 -2.1978 0)
(1.95428 -2.18173 6.93242e-19)
(1.93972 -2.16551 -1.34634e-18)
(1.92504 -2.14915 -3.25326e-19)
(1.91022 -2.13264 3.18476e-19)
(1.89525 -2.11598 1.23047e-18)
(1.88014 -2.09915 1.49039e-18)
(1.86488 -2.08216 8.66507e-19)
(1.84947 -2.065 -2.24341e-18)
(1.8339 -2.04766 -1.08702e-18)
(1.81816 -2.03014 -2.61917e-19)
(1.80225 -2.01243 2.56377e-19)
(1.78617 -1.99453 7.42191e-19)
(1.76991 -1.97643 -1.43439e-18)
(1.75345 -1.95812 -2.32731e-19)
(1.73681 -1.93959 -2.22559e-19)
(1.71996 -1.92084 2.17953e-19)
(1.70291 -1.90186 1.0463e-18)
(1.68563 -1.88264 1.61837e-18)
(1.66814 -1.86317 -3.91845e-19)
(1.65042 -1.84344 3.7882e-19)
(1.63245 -1.82345 -2.63127e-21)
(1.61424 -1.80318 -1.78174e-19)
(1.59593 -1.78279 -1.71961e-19)
(1.57783 -1.76264 8.62365e-19)
(1.56009 -1.74289 0)
(1.5427 -1.72352 -5.12228e-19)
(1.52565 -1.70452 3.3912e-19)
(1.50892 -1.68587 8.45728e-19)
(1.4925 -1.66757 0)
(1.47638 -1.6496 -8.38155e-19)
(1.46056 -1.63195 1.68743e-19)
(1.44502 -1.61461 0)
(1.42975 -1.59757 6.68192e-19)
(1.41475 -1.58082 0)
(1.4 -1.56435 -5.01936e-19)
(1.3855 -1.54815 4.99607e-19)
(1.37125 -1.53221 -1.65845e-19)
(1.35722 -1.51652 6.71223e-19)
(1.34342 -1.50108 -5.01142e-19)
(1.32983 -1.48587 -8.37441e-19)
(1.31646 -1.47089 6.74639e-19)
(1.30329 -1.45614 1.69635e-19)
(1.29031 -1.44159 -1.35106e-18)
(1.27753 -1.42726 -3.38727e-19)
(1.26492 -1.41312 1.94508e-23)
(1.25249 -1.39917 4.25492e-19)
(1.24024 -1.38541 -8.61008e-20)
(1.22814 -1.37183 0)
(1.21621 -1.35842 0)
(1.20443 -1.34518 -8.58799e-20)
(1.1928 -1.3321 -2.59874e-19)
(1.18131 -1.31918 -3.48699e-19)
(1.16996 -1.30641 0)
(1.15875 -1.29379 -2.59332e-23)
(1.14767 -1.2813 0)
(1.13673 -1.26896 0)
(1.12591 -1.25676 -7.12044e-19)
(1.11521 -1.24468 -3.57485e-19)
(1.10464 -1.23274 -3.5898e-19)
(1.09419 -1.22093 8.95329e-20)
(1.08386 -1.20924 -9.10577e-20)
(1.07365 -1.19768 2.73006e-19)
(1.06356 -1.18625 -2.72821e-19)
(1.05359 -1.17494 1.82956e-19)
(1.04374 -1.16375 -3.67161e-19)
(1.03401 -1.15268 9.26884e-20)
(1.0244 -1.14175 2.77757e-19)
(1.01491 -1.13093 0)
(1.00554 -1.12025 0)
(0.996295 -1.10969 -1.86314e-19)
(0.987171 -1.09926 -3.73502e-19)
(0.97817 -1.08896 0)
(0.969291 -1.07879 1.87526e-19)
(0.960536 -1.06875 9.33354e-20)
(0.951902 -1.05884 1.86987e-19)
(0.943392 -1.04907 -2.83264e-19)
(0.935002 -1.03943 -1.88683e-19)
(0.926734 -1.02993 -1.88913e-19)
(0.918585 -1.02056 -1.89088e-19)
(0.910556 -1.01133 0)
(0.902643 -1.00223 -3.7885e-19)
(0.894846 -0.993258 1.89581e-19)
(0.887163 -0.984424 0)
(0.879591 -0.975721 9.49435e-20)
(0.872129 -0.967148 0)
(0.864774 -0.958704 -9.51248e-20)
(0.857523 -0.950387 -9.52432e-20)
(2.03294 -2.2817 -1.23903e-18)
(2.01913 -2.26622 1.60968e-18)
(2.00521 -2.25063 -2.87664e-21)
(1.99119 -2.23491 3.79393e-19)
(1.97705 -2.21906 0)
(1.96279 -2.20308 -7.19869e-19)
(1.9484 -2.18697 -6.99545e-19)
(1.93389 -2.17071 -1.6975e-18)
(1.91925 -2.15431 3.31405e-19)
(1.90447 -2.13776 -1.2815e-18)
(1.88955 -2.12105 -1.55338e-18)
(1.87449 -2.10419 -9.03779e-19)
(1.85927 -2.08716 0)
(1.84391 -2.06995 -2.82412e-19)
(1.82838 -2.05257 1.65104e-18)
(1.81269 -2.03501 -2.6809e-19)
(1.79683 -2.01726 1.03371e-18)
(1.7808 -1.99931 0)
(1.76458 -1.98116 2.02849e-23)
(1.74818 -1.96281 -9.39037e-19)
(1.73158 -1.94424 9.0902e-19)
(1.71479 -1.92544 -8.7977e-19)
(1.69778 -1.90641 8.51285e-19)
(1.68057 -1.88715 -8.23582e-19)
(1.66313 -1.86763 0)
(1.64546 -1.84786 0)
(1.62755 -1.82781 5.60032e-19)
(1.60939 -1.80749 1.81292e-19)
(1.59113 -1.78706 0)
(1.57309 -1.76686 -7.00996e-19)
(1.55541 -1.74706 0)
(1.53807 -1.72764 6.9318e-19)
(1.52107 -1.7086 -1.71212e-19)
(1.50439 -1.68991 -6.84668e-19)
(1.48802 -1.67156 3.42443e-19)
(1.47195 -1.65355 5.10974e-19)
(1.45618 -1.63586 0)
(1.44069 -1.61848 8.48988e-19)
(1.42547 -1.6014 -6.81815e-19)
(1.41051 -1.58461 -2.46142e-21)
(1.39581 -1.5681 6.7608e-19)
(1.38136 -1.55186 -6.81049e-19)
(1.36714 -1.53588 -3.39451e-19)
(1.35316 -1.52016 -5.08409e-19)
(1.3394 -1.50468 1.68859e-19)
(1.32586 -1.48944 -3.40661e-19)
(1.31253 -1.47443 -5.10708e-19)
(1.29939 -1.45964 -1.69799e-19)
(1.28646 -1.44507 1.54393e-18)
(1.27371 -1.4307 0)
(1.26114 -1.41653 3.44719e-19)
(1.24875 -1.40255 0)
(1.23653 -1.38876 3.4687e-19)
(1.22447 -1.37515 0)
(1.21257 -1.36172 0)
(1.20082 -1.34845 -5.24627e-19)
(1.18922 -1.33534 5.29004e-19)
(1.17777 -1.32239 8.77027e-20)
(1.16645 -1.3096 -1.20508e-21)
(1.15527 -1.29695 -4.45594e-19)
(1.14423 -1.28444 -3.57371e-19)
(1.13331 -1.27208 0)
(1.12252 -1.25985 2.75095e-23)
(1.11185 -1.24776 3.61606e-19)
(1.10131 -1.23579 9.01372e-20)
(1.09089 -1.22396 2.72661e-19)
(1.08059 -1.21225 0)
(1.07041 -1.20067 -2.7585e-19)
(1.06034 -1.18922 2.75583e-19)
(1.0504 -1.17789 -9.17537e-20)
(1.04058 -1.16669 9.32757e-20)
(1.03087 -1.15561 -9.35474e-20)
(1.02129 -1.14465 -9.38e-20)
(1.01182 -1.13382 0)
(1.00248 -1.12312 0)
(0.993257 -1.11255 9.32742e-20)
(0.984156 -1.10211 1.86948e-19)
(0.975177 -1.09179 -1.21132e-21)
(0.96632 -1.08161 -1.90037e-19)
(0.957585 -1.07156 -1.20812e-21)
(0.948971 -1.06164 -1.89343e-19)
(0.940479 -1.05186 4.74494e-19)
(0.932108 -1.04221 1.89747e-19)
(0.923857 -1.03269 0)
(0.915724 -1.02331 1.90034e-19)
(0.90771 -1.01406 0)
(0.899813 -1.00495 1.26442e-23)
(0.89203 -0.995965 0)
(0.884361 -0.987116 9.46234e-20)
(0.876802 -0.978398 -1.17989e-21)
(0.869353 -0.96981 -9.53303e-20)
(0.86201 -0.96135 9.59952e-20)
(0.854771 -0.953016 1.90417e-19)
(2.02661 -2.28732 8.31699e-19)
(2.01284 -2.2718 -1.21328e-18)
(1.99897 -2.25616 3.95578e-19)
(1.98499 -2.24041 0)
(1.97089 -2.22452 0)
(1.95667 -2.2085 7.25653e-19)
(1.94233 -2.19235 0)
(1.92787 -2.17605 1.37129e-18)
(1.91327 -2.15961 1.33233e-18)
(1.89854 -2.14301 2.91032e-18)
(1.88366 -2.12627 -3.15575e-19)
(1.86865 -2.10936 0)
(1.85348 -2.09228 0)
(1.83817 -2.07504 1.14849e-18)
(1.82269 -2.05761 1.11391e-18)
(1.80705 -2.04001 2.68619e-19)
(1.79124 -2.02221 -1.31018e-18)
(1.77525 -2.00422 0)
(1.75909 -1.98603 1.95768e-23)
(1.74274 -1.96762 1.94514e-23)
(1.72619 -1.94901 -9.22216e-19)
(1.70945 -1.93016 2.21859e-19)
(1.6925 -1.91109 -1.08175e-18)
(1.67534 -1.89177 2.07744e-19)
(1.65795 -1.87221 -2.73426e-21)
(1.64034 -1.85239 -1.97119e-19)
(1.62248 -1.83229 -7.57424e-19)
(1.60438 -1.81192 -1.46423e-18)
(1.58619 -1.79144 -1.43483e-18)
(1.5682 -1.77119 0)
(1.55057 -1.75134 1.75859e-19)
(1.53329 -1.73187 -1.7755e-19)
(1.51634 -1.71278 0)
(1.49972 -1.69405 6.98777e-19)
(1.4834 -1.67566 -5.23513e-19)
(1.46739 -1.65761 -3.47133e-19)
(1.45166 -1.63987 3.46298e-19)
(1.43622 -1.62245 -8.65386e-19)
(1.42105 -1.60533 -6.90305e-19)
(1.40614 -1.5885 0)
(1.39149 -1.57195 -1.54972e-18)
(1.37708 -1.55567 1.73555e-19)
(1.36291 -1.53966 -1.71129e-19)
(1.34897 -1.5239 1.73716e-19)
(1.33526 -1.50839 -5.19195e-19)
(1.32175 -1.49311 -1.74119e-19)
(1.30846 -1.47806 1.21347e-18)
(1.29537 -1.46324 1.74734e-19)
(1.28247 -1.44863 -6.95582e-19)
(1.26976 -1.43423 0)
(1.25724 -1.42003 3.49539e-19)
(1.24488 -1.40602 -3.50531e-19)
(1.2327 -1.3922 -3.51607e-19)
(1.22067 -1.37856 -1.75136e-19)
(1.20881 -1.3651 1.78155e-19)
(1.1971 -1.3518 3.55095e-19)
(1.18553 -1.33867 -1.79397e-19)
(1.17411 -1.32569 -5.37613e-19)
(1.16283 -1.31287 5.37121e-19)
(1.15168 -1.30019 1.78877e-19)
(1.14067 -1.28766 3.61553e-19)
(1.12978 -1.27527 1.80209e-19)
(1.11902 -1.26302 1.80886e-19)
(1.10839 -1.25091 -1.81524e-19)
(1.09787 -1.23892 -1.8216e-19)
(1.08748 -1.22707 0)
(1.07721 -1.21534 -9.17122e-20)
(1.06706 -1.20374 -2.77253e-19)
(1.05702 -1.19227 3.71653e-19)
(1.04711 -1.18092 -9.25817e-20)
(1.03731 -1.1697 1.88155e-19)
(1.02763 -1.1586 9.4323e-20)
(1.01807 -1.14763 -9.3333e-20)
(1.00863 -1.13679 1.22414e-21)
(0.999315 -1.12607 3.77454e-19)
(0.990117 -1.11548 -9.51591e-20)
(0.981039 -1.10503 0)
(0.972083 -1.0947 -9.42494e-20)
(0.963248 -1.0845 -9.43723e-20)
(0.954534 -1.07444 0)
(0.945941 -1.06451 1.90371e-19)
(0.937469 -1.05471 -1.90538e-19)
(0.929116 -1.04504 -9.47216e-20)
(0.920883 -1.03551 9.59747e-20)
(0.912769 -1.02612 1.90814e-19)
(0.904772 -1.01685 0)
(0.89689 -1.00773 1.90925e-19)
(0.889123 -0.99873 9.60696e-20)
(0.881469 -0.989866 5.9472e-22)
(0.873925 -0.981133 -5.89942e-22)
(0.86649 -0.972529 -2.86688e-19)
(0.859161 -0.964051 9.67913e-20)
(0.851935 -0.9557 9.62719e-20)
(2.02008 -2.29308 -1.67186e-18)
(2.00636 -2.27752 0)
(1.99253 -2.26185 0)
(1.97859 -2.24605 7.69104e-19)
(1.96454 -2.23012 -7.5426e-19)
(1.95036 -2.21406 -3.66959e-19)
(1.93607 -2.19787 -7.11016e-19)
(1.92165 -2.18153 6.91348e-19)
(1.9071 -2.16504 -2.01607e-18)
(1.89242 -2.14841 -1.3032e-18)
(1.87759 -2.13162 6.34392e-19)
(1.86262 -2.11466 -3.09485e-19)
(1.84751 -2.09754 -1.19631e-18)
(1.83224 -2.08025 1.45e-18)
(1.81681 -2.06279 -1.4098e-18)
(1.80122 -2.04513 1.36476e-18)
(1.78546 -2.02729 -2.66398e-19)
(1.76953 -2.00926 1.02762e-18)
(1.75342 -1.99102 9.96073e-19)
(1.73712 -1.97257 1.86646e-23)
(1.72063 -1.9539 0)
(1.70394 -1.93501 6.80707e-19)
(1.68705 -1.91589 -6.56408e-19)
(1.66994 -1.89652 0)
(1.65261 -1.87691 0)
(1.63505 -1.85703 1.9749e-19)
(1.61726 -1.83689 -1.93823e-19)
(1.59922 -1.81647 1.84732e-19)
(1.58108 -1.79593 1.09422e-18)
(1.56315 -1.77563 1.82596e-19)
(1.54558 -1.75573 0)
(1.52836 -1.73622 0)
(1.51147 -1.71708 -5.36198e-19)
(1.4949 -1.6983 -1.78859e-19)
(1.47863 -1.67987 8.83223e-19)
(1.46267 -1.66177 -3.52722e-19)
(1.447 -1.64399 -7.0107e-19)
(1.43161 -1.62652 1.05334e-18)
(1.41649 -1.60936 1.22573e-18)
(1.40163 -1.59249 0)
(1.38702 -1.5759 6.99933e-19)
(1.37266 -1.55958 -6.99732e-19)
(1.35854 -1.54353 -1.73703e-19)
(1.34464 -1.52773 1.76299e-19)
(1.33097 -1.51218 7.00796e-19)
(1.31752 -1.49687 0)
(1.30427 -1.48179 -8.77043e-19)
(1.29122 -1.46693 1.05573e-18)
(1.27836 -1.45229 -1.77546e-19)
(1.26569 -1.43786 1.77929e-19)
(1.2532 -1.42362 -7.06039e-19)
(1.24089 -1.40958 5.3402e-19)
(1.22874 -1.39573 1.76851e-19)
(1.21675 -1.38206 -1.79843e-19)
(1.20493 -1.36857 1.77922e-19)
(1.19325 -1.35524 -1.80958e-19)
(1.18172 -1.34208 0)
(1.17033 -1.32907 3.61833e-19)
(1.15908 -1.31622 -3.63054e-19)
(1.14797 -1.30352 -2.46667e-23)
(1.13699 -1.29097 -3.65502e-19)
(1.12613 -1.27855 0)
(1.1154 -1.26628 -1.82757e-19)
(1.1048 -1.25414 3.69204e-19)
(1.09432 -1.24213 3.70411e-19)
(1.08396 -1.23025 3.71577e-19)
(1.07371 -1.2185 -1.87595e-19)
(1.06359 -1.20688 3.73838e-19)
(1.05359 -1.19539 -5.63558e-19)
(1.0437 -1.18402 -1.24144e-21)
(1.03393 -1.17278 0)
(1.02428 -1.16167 1.88857e-19)
(1.01475 -1.15068 -1.89269e-19)
(1.00534 -1.13982 1.89648e-19)
(0.996043 -1.12909 -3.79997e-19)
(0.98687 -1.11849 -2.84833e-19)
(0.977818 -1.10801 9.58995e-20)
(0.968885 -1.09767 1.90796e-19)
(0.960073 -1.08746 1.91005e-19)
(0.951381 -1.07738 0)
(0.94281 -1.06744 -9.62557e-20)
(0.934358 -1.05762 -1.91365e-19)
(0.926026 -1.04794 9.63182e-20)
(0.917812 -1.0384 0)
(0.909716 -1.02899 -3.82947e-19)
(0.901737 -1.01971 1.91464e-19)
(0.893873 -1.01057 9.51289e-20)
(0.886122 -1.00156 -1.92637e-19)
(0.878485 -0.992675 -5.90992e-22)
(0.870957 -0.983925 1.91427e-19)
(0.863538 -0.975304 0)
(0.856224 -0.966809 -9.57516e-20)
(0.849014 -0.958439 9.5216e-20)
(2.01334 -2.299 8.39649e-19)
(1.99966 -2.2834 8.15375e-19)
(1.98588 -2.26768 -8.00197e-19)
(1.97198 -2.25184 7.73604e-19)
(1.95798 -2.23587 -7.59026e-19)
(1.94385 -2.21977 1.46905e-18)
(1.92961 -2.20353 -2.92153e-21)
(1.91524 -2.18715 1.39337e-18)
(1.90073 -2.17062 6.74606e-19)
(1.8861 -2.15394 -3.65988e-24)
(1.87132 -2.13711 3.67651e-24)
(1.8564 -2.12011 9.28632e-19)
(1.84134 -2.10295 9.04789e-19)
(1.82612 -2.08561 -2.05471e-18)
(1.81075 -2.06809 -1.42515e-18)
(1.79521 -2.0504 -1.10536e-18)
(1.7795 -2.03251 0)
(1.76362 -2.01442 -1.29881e-18)
(1.74756 -1.99614 2.85476e-21)
(1.73132 -1.97764 2.20155e-18)
(1.71489 -1.95892 0)
(1.69825 -1.93998 -2.28159e-19)
(1.68142 -1.92081 2.23837e-19)
(1.66437 -1.9014 -2.13997e-19)
(1.6471 -1.88173 2.81899e-21)
(1.6296 -1.86181 2.0336e-19)
(1.61186 -1.84161 -7.81959e-19)
(1.59388 -1.82113 1.51274e-18)
(1.57581 -1.80054 -1.83951e-19)
(1.55794 -1.78019 1.85569e-19)
(1.54043 -1.76024 9.13871e-19)
(1.52327 -1.74068 -9.11533e-19)
(1.50643 -1.72149 1.44915e-18)
(1.48992 -1.70266 -7.21443e-19)
(1.47371 -1.68418 -8.97108e-19)
(1.4578 -1.66604 7.19087e-19)
(1.44219 -1.64821 1.07184e-18)
(1.42685 -1.63071 -8.92565e-19)
(1.41178 -1.6135 -7.11805e-19)
(1.39697 -1.59659 0)
(1.38241 -1.57996 0)
(1.3681 -1.5636 7.10041e-19)
(1.35402 -1.54751 -5.33763e-19)
(1.34018 -1.53167 -1.78826e-19)
(1.32655 -1.51608 -7.1068e-19)
(1.31314 -1.50073 -5.34787e-19)
(1.29993 -1.48562 -3.56137e-19)
(1.28693 -1.47072 -5.33785e-19)
(1.27411 -1.45605 0)
(1.26149 -1.44158 -1.8028e-19)
(1.24904 -1.42731 7.1514e-19)
(1.23676 -1.41324 -3.59678e-19)
(1.22465 -1.39935 1.81549e-19)
(1.2127 -1.38565 0)
(1.20091 -1.37213 -1.82536e-19)
(1.18927 -1.35877 -5.46713e-19)
(1.17778 -1.34558 0)
(1.16643 -1.33254 -5.4753e-19)
(1.15521 -1.31967 5.5173e-19)
(1.14413 -1.30694 -3.68157e-19)
(1.13318 -1.29436 3.69308e-19)
(1.12236 -1.28192 -1.83973e-19)
(1.11167 -1.26961 1.87038e-19)
(1.1011 -1.25745 -3.72694e-19)
(1.09065 -1.24542 -7.47616e-19)
(1.08031 -1.23352 1.88675e-19)
(1.0701 -1.22175 1.89203e-19)
(1.06001 -1.21011 1.87207e-19)
(1.05004 -1.19859 1.87699e-19)
(1.04018 -1.18721 -1.46549e-23)
(1.03044 -1.17595 -1.89787e-19)
(1.02082 -1.16481 -1.90189e-19)
(1.01131 -1.15381 1.89306e-19)
(1.00193 -1.14293 -5.72562e-19)
(0.992662 -1.13218 7.64534e-19)
(0.983515 -1.12156 -3.82738e-19)
(0.974487 -1.11107 2.46892e-21)
(0.965579 -1.10071 -4.10362e-24)
(0.956791 -1.09049 -1.93109e-19)
(0.948122 -1.08039 9.5374e-20)
(0.939573 -1.07043 9.54004e-20)
(0.931143 -1.0606 9.54204e-20)
(0.922832 -1.05091 1.90838e-19)
(0.914639 -1.04135 -9.66211e-20)
(0.906563 -1.03192 1.91991e-19)
(0.898603 -1.02263 -3.83844e-19)
(0.890757 -1.01347 0)
(0.883026 -1.00444 1.91773e-19)
(0.875406 -0.995544 9.58537e-20)
(0.867896 -0.986777 -1.91069e-19)
(0.860494 -0.978138 9.58167e-20)
(0.853198 -0.969625 -9.58187e-20)
(0.846005 -0.961236 5.86204e-22)
(2.00638 -2.30506 -1.6886e-18)
(1.99275 -2.28943 0)
(1.97901 -2.27367 0)
(1.96517 -2.25778 -7.80581e-19)
(1.95121 -2.24177 -7.60401e-19)
(1.93713 -2.22563 0)
(1.92294 -2.20934 -7.20931e-19)
(1.90861 -2.19292 -1.40328e-18)
(1.89416 -2.17634 -6.79712e-19)
(1.87958 -2.15962 -2.65003e-18)
(1.86485 -2.14274 1.93977e-18)
(1.84998 -2.1257 -2.51026e-18)
(1.83497 -2.10849 1.8266e-18)
(1.81981 -2.0911 1.77442e-18)
(1.80448 -2.07354 1.74061e-23)
(1.789 -2.0558 0)
(1.77335 -2.03786 0)
(1.75752 -2.01973 0)
(1.74152 -2.00139 0)
(1.72534 -1.98284 -7.44017e-19)
(1.70896 -1.96408 -2.41438e-19)
(1.69238 -1.94509 0)
(1.6756 -1.92586 9.01898e-19)
(1.65861 -1.9064 2.17035e-19)
(1.6414 -1.88668 -2.13068e-19)
(1.62397 -1.8667 8.1992e-19)
(1.6063 -1.84645 7.94006e-19)
(1.58838 -1.82592 -1.53651e-18)
(1.57037 -1.80528 1.86872e-19)
(1.55257 -1.78487 5.59898e-19)
(1.53512 -1.76487 -1.82376e-23)
(1.51801 -1.74525 5.5603e-19)
(1.50124 -1.72602 3.67884e-19)
(1.48478 -1.70714 5.48069e-19)
(1.46863 -1.68861 7.29731e-19)
(1.45278 -1.67042 -9.07792e-19)
(1.43722 -1.65255 1.82641e-19)
(1.42193 -1.635 0)
(1.40691 -1.61775 0)
(1.39216 -1.60079 0)
(1.37765 -1.58412 0)
(1.36339 -1.56772 8.9879e-19)
(1.34936 -1.55159 5.38666e-19)
(1.33557 -1.53571 8.98724e-19)
(1.32199 -1.52008 -1.81343e-19)
(1.30862 -1.5047 7.20924e-19)
(1.29546 -1.48954 0)
(1.2825 -1.47461 -1.79379e-19)
(1.26973 -1.4599 1.82208e-19)
(1.25714 -1.44539 1.79987e-19)
(1.24473 -1.43109 -5.46128e-19)
(1.2325 -1.41699 -3.64009e-19)
(1.22043 -1.40307 0)
(1.20852 -1.38933 -1.81612e-19)
(1.19677 -1.37578 5.51314e-19)
(1.18517 -1.36239 1.8511e-19)
(1.17371 -1.34917 5.54268e-19)
(1.16239 -1.3361 2.23067e-23)
(1.15121 -1.3232 -9.25631e-19)
(1.14017 -1.31044 5.58967e-19)
(1.12926 -1.29783 1.85174e-19)
(1.11847 -1.28536 -5.62132e-19)
(1.10781 -1.27304 1.86222e-19)
(1.09727 -1.26084 3.73482e-19)
(1.08685 -1.24879 1.68908e-23)
(1.07655 -1.23687 -1.71984e-23)
(1.06637 -1.22507 -1.00097e-23)
(1.05631 -1.21341 2.5121e-21)
(1.04637 -1.20187 3.81838e-19)
(1.03654 -1.19047 -1.90692e-19)
(1.02683 -1.17919 1.91051e-19)
(1.01724 -1.16803 0)
(1.00776 -1.15701 5.73733e-19)
(0.998405 -1.14611 -2.49484e-21)
(0.989166 -1.13535 -5.77651e-19)
(0.980046 -1.12471 -1.91057e-19)
(0.971044 -1.1142 1.93696e-19)
(0.962162 -1.10383 1.92568e-19)
(0.953399 -1.09359 1.91391e-19)
(0.944754 -1.08347 -1.9511e-19)
(0.936229 -1.0735 -3.86534e-19)
(0.927822 -1.06365 -1.92608e-19)
(0.919533 -1.05394 -1.19424e-23)
(0.911361 -1.04436 0)
(0.903306 -1.03492 -1.91141e-19)
(0.895367 -1.02561 3.85669e-19)
(0.887542 -1.01643 0)
(0.87983 -1.00739 -1.91977e-19)
(0.87223 -0.998475 -1.91854e-19)
(0.864739 -0.989689 -9.58741e-20)
(0.857357 -0.981031 1.91087e-19)
(0.85008 -0.972499 -1.92226e-19)
(0.842906 -0.964091 1.12475e-24)
(1.99919 -2.31129 2.95936e-21)
(1.98561 -2.29561 -8.18876e-19)
(1.97193 -2.27981 1.60867e-18)
(1.95813 -2.26388 7.81207e-19)
(1.94422 -2.24782 7.64253e-19)
(1.93019 -2.23163 -7.41651e-19)
(1.91605 -2.21531 -7.19336e-19)
(1.90178 -2.19884 7.09133e-19)
(1.88738 -2.18222 -1.37478e-18)
(1.87284 -2.16545 2.67561e-18)
(1.85817 -2.14852 1.94916e-18)
(1.84336 -2.13143 6.29875e-19)
(1.8284 -2.11417 6.12259e-19)
(1.81329 -2.09674 -1.79678e-18)
(1.79802 -2.07913 2.32392e-18)
(1.78259 -2.06134 -5.61395e-19)
(1.767 -2.04335 5.50934e-19)
(1.75123 -2.02517 1.064e-18)
(1.73528 -2.00678 -5.134e-19)
(1.71916 -1.98818 5.03894e-19)
(1.70284 -1.96937 -9.71914e-19)
(1.68632 -1.95033 0)
(1.6696 -1.93105 6.86843e-19)
(1.65268 -1.91153 2.2291e-19)
(1.63553 -1.89176 -8.58485e-19)
(1.61816 -1.87172 -8.31832e-19)
(1.60055 -1.85142 8.05825e-19)
(1.5827 -1.83083 1.75355e-18)
(1.56475 -1.81013 -1.9263e-19)
(1.54701 -1.78967 1.88532e-19)
(1.52963 -1.76962 -9.45234e-19)
(1.51259 -1.74995 0)
(1.49587 -1.73066 -7.46868e-19)
(1.47948 -1.71173 9.27934e-19)
(1.46339 -1.69315 5.53989e-19)
(1.44759 -1.67491 0)
(1.43208 -1.657 -1.82586e-19)
(1.41685 -1.6394 3.66959e-19)
(1.40189 -1.6221 -1.84444e-19)
(1.38719 -1.6051 5.49787e-19)
(1.37274 -1.58839 2.64069e-21)
(1.35853 -1.57195 -7.27266e-19)
(1.34455 -1.55577 3.64792e-19)
(1.3308 -1.53986 -9.13249e-19)
(1.31727 -1.52419 9.10884e-19)
(1.30395 -1.50876 -1.83833e-19)
(1.29084 -1.49357 1.81396e-19)
(1.27792 -1.4786 -1.84181e-19)
(1.2652 -1.46385 7.32529e-19)
(1.25265 -1.44931 -3.66832e-19)
(1.24029 -1.43497 -1.82455e-19)
(1.2281 -1.42083 5.53565e-19)
(1.21607 -1.40688 0)
(1.2042 -1.39311 -1.83599e-19)
(1.19249 -1.37952 1.86581e-19)
(1.18092 -1.3661 0)
(1.1695 -1.35285 -3.7243e-19)
(1.15823 -1.33975 7.46717e-19)