/*--------------------------------*- C++ -*----------------------------------*\
  =========                 |
  \\      /  F ield         | OpenFOAM: The Open Source CFD Toolbox
   \\    /   O peration     | Website:  https://openfoam.org
    \\  /    A nd           | Version:  10
     \\/     M anipulation  |
\*---------------------------------------------------------------------------*/
FoamFile
{
    format      ascii;
    class       volScalarField;
    location    "50000";
    object      p;
}
// * * * * * * * * * * * * * * * * * * * * * * * * * * * * * * * * * * * * * //

dimensions      [0 2 -2 0 0 0 0];

internalField   nonuniform List<scalar> 
17808
(
10.1237
10.1565
10.1761
10.186
10.1933
10.1971
10.1987
10.1985
10.1969
10.1941
10.1903
10.1856
10.1802
10.1742
10.1675
10.1603
10.1525
10.1443
10.1356
10.1264
10.1168
10.1067
10.0962
10.0853
10.074
10.0622
10.0501
10.0375
10.0245
10.0112
9.99738
9.98318
9.96856
9.95353
9.93807
9.92219
9.90587
9.88913
9.87194
9.85431
9.83623
9.8177
9.79871
9.77925
9.75932
9.73891
9.71801
9.69662
9.67473
9.65234
9.62942
9.60599
9.58202
9.55752
9.53246
9.50685
9.48068
9.45393
9.4266
9.39868
9.37016
9.34102
9.31127
9.28088
9.24985
9.21817
9.18583
9.15281
9.11911
9.08471
9.04961
9.01379
8.97724
8.93995
8.90191
8.8631
8.82351
8.78313
8.74195
8.69995
8.65712
8.61346
8.56893
8.52354
8.47726
8.43009
8.38201
8.333
8.28305
8.23215
8.18028
8.12742
10.2089
10.2146
10.2097
10.2074
10.2068
10.2054
10.2036
10.2011
10.198
10.1942
10.1897
10.1846
10.179
10.1727
10.1659
10.1586
10.1508
10.1425
10.1338
10.1246
10.115
10.105
10.0945
10.0837
10.0724
10.0607
10.0486
10.0361
10.0232
10.0098
9.99608
9.98193
9.96736
9.95237
9.93696
9.92112
9.90485
9.88815
9.871
9.85341
9.83538
9.81688
9.79793
9.7785
9.75861
9.73823
9.71736
9.696
9.67414
9.65177
9.62889
9.60548
9.58154
9.55706
9.53203
9.50644
9.48029
9.45356
9.42625
9.39835
9.36984
9.34072
9.31098
9.28061
9.2496
9.21793
9.1856
9.15259
9.1189
9.08452
9.04943
9.01362
8.97708
8.9398
8.90176
8.86296
8.82338
8.783
8.74183
8.69984
8.65702
8.61335
8.56884
8.52345
8.47718
8.43001
8.38193
8.33292
8.28298
8.23208
8.18022
8.12737
10.2498
10.2483
10.2395
10.2343
10.229
10.2233
10.2177
10.2122
10.2065
10.2006
10.1945
10.1881
10.1814
10.1744
10.167
10.1592
10.151
10.1424
10.1335
10.1241
10.1144
10.1043
10.0937
10.0828
10.0715
10.0598
10.0477
10.0352
10.0222
10.0089
9.99518
9.98104
9.96649
9.95152
9.93613
9.92031
9.90407
9.88739
9.87027
9.8527
9.83469
9.81622
9.79729
9.77789
9.75802
9.73766
9.71682
9.69548
9.67364
9.6513
9.62843
9.60504
9.58112
9.55666
9.53165
9.50608
9.47994
9.45323
9.42593
9.39804
9.36955
9.34045
9.31072
9.28036
9.24935
9.2177
9.18538
9.15238
9.1187
9.08433
9.04924
9.01344
8.9769
8.93963
8.9016
8.8628
8.82323
8.78286
8.74169
8.6997
8.65688
8.61322
8.56871
8.52332
8.47705
8.42989
8.38181
8.33281
8.28287
8.23197
8.1801
8.12726
10.2518
10.25
10.2442
10.2407
10.2357
10.2302
10.2245
10.2185
10.2123
10.2057
10.1989
10.1919
10.1846
10.177
10.169
10.1608
10.1523
10.1434
10.1341
10.1246
10.1146
10.1043
10.0937
10.0826
10.0712
10.0594
10.0472
10.0347
10.0217
10.0084
9.99461
9.98046
9.9659
9.95092
9.93553
9.91972
9.90348
9.8868
9.86969
9.85214
9.83414
9.81568
9.79676
9.77738
9.75752
9.73718
9.71635
9.69503
9.67321
9.65088
9.62803
9.60465
9.58075
9.5563
9.5313
9.50574
9.47962
9.45292
9.42564
9.39776
9.36928
9.34018
9.31047
9.28012
9.24912
9.21747
9.18516
9.15217
9.1185
9.08413
9.04905
9.01326
8.97673
8.93946
8.90143
8.86264
8.82307
8.78271
8.74154
8.69955
8.65674
8.61308
8.56857
8.52318
8.47692
8.42975
8.38168
8.33267
8.28273
8.23184
8.17997
8.12712
10.2533
10.2509
10.246
10.2424
10.2375
10.2323
10.2269
10.221
10.2148
10.2082
10.2014
10.1942
10.1867
10.1789
10.1707
10.1623
10.1535
10.1444
10.135
10.1252
10.1151
10.1047
10.0939
10.0827
10.0712
10.0593
10.0471
10.0344
10.0214
10.008
9.99424
9.98005
9.96546
9.95047
9.93506
9.91924
9.90299
9.88632
9.86921
9.85166
9.83366
9.81521
9.7963
9.77692
9.75707
9.73674
9.71593
9.69462
9.67281
9.65049
9.62765
9.60429
9.58039
9.55596
9.53097
9.50543
9.47931
9.45263
9.42535
9.39749
9.36902
9.33993
9.31022
9.27988
9.2489
9.21726
9.18495
9.15197
9.11831
9.08395
9.04888
9.01308
8.97656
8.9393
8.90128
8.86249
8.82292
8.78256
8.7414
8.69942
8.65661
8.61295
8.56844
8.52306
8.47679
8.42963
8.38156
8.33255
8.28261
8.23172
8.17985
8.12701
10.2587
10.2557
10.2509
10.2468
10.2415
10.2361
10.2303
10.2241
10.2176
10.2109
10.2038
10.1964
10.1887
10.1807
10.1723
10.1637
10.1548
10.1455
10.1359
10.126
10.1158
10.1052
10.0943
10.083
10.0714
10.0594
10.0471
10.0344
10.0213
10.0079
9.99404
9.97981
9.96519
9.95017
9.93474
9.91889
9.90263
9.88594
9.86882
9.85127
9.83326
9.81481
9.7959
9.77653
9.75668
9.73636
9.71555
9.69425
9.67244
9.65013
9.6273
9.60395
9.58007
9.55564
9.53066
9.50513
9.47903
9.45235
9.42509
9.39723
9.36877
9.33969
9.30999
9.27966
9.24868
9.21705
9.18475
9.15178
9.11812
9.08377
9.0487
9.01292
8.9764
8.93914
8.90113
8.86234
8.82278
8.78243
8.74127
8.69929
8.65648
8.61283
8.56832
8.52294
8.47668
8.42951
8.38144
8.33244
8.2825
8.23161
8.17974
8.1269
10.2631
10.2598
10.2552
10.2508
10.2454
10.2398
10.2338
10.2274
10.2207
10.2137
10.2064
10.1988
10.1908
10.1826
10.1741
10.1653
10.1562
10.1468
10.137
10.127
10.1166
10.1059
10.0949
10.0835
10.0718
10.0598
10.0473
10.0346
10.0214
10.0079
9.99401
9.97974
9.96507
9.95001
9.93455
9.91868
9.90239
9.88568
9.86855
9.85098
9.83297
9.81451
9.79559
9.77621
9.75636
9.73604
9.71523
9.69393
9.67213
9.64982
9.627
9.60365
9.57977
9.55535
9.53038
9.50486
9.47876
9.45209
9.42484
9.39699
9.36853
9.33947
9.30977
9.27945
9.24848
9.21685
9.18456
9.1516
9.11795
9.0836
9.04854
9.01276
8.97625
8.93899
8.90098
8.8622
8.82264
8.78229
8.74114
8.69916
8.65636
8.61271
8.5682
8.52282
8.47656
8.4294
8.38133
8.33233
8.2824
8.2315
8.17964
8.12679
10.2657
10.2623
10.2579
10.2533
10.248
10.2423
10.2362
10.2298
10.223
10.2159
10.2085
10.2008
10.1927
10.1844
10.1758
10.1668
10.1576
10.148
10.1382
10.128
10.1175
10.1067
10.0956
10.0841
10.0723
10.0602
10.0477
10.0349
10.0216
10.0081
9.99412
9.9798
9.96509
9.94998
9.93448
9.91858
9.90226
9.88553
9.86837
9.85078
9.83275
9.81428
9.79535
9.77597
9.75611
9.73578
9.71497
9.69367
9.67187
9.64956
9.62674
9.60339
9.57952
9.5551
9.53013
9.50461
9.47852
9.45186
9.42461
9.39677
9.36832
9.33926
9.30957
9.27925
9.24829
9.21667
9.18438
9.15142
9.11778
9.08343
9.04838
9.01261
8.9761
8.93885
8.90084
8.86207
8.82251
8.78216
8.74101
8.69904
8.65624
8.61259
8.56809
8.52271
8.47645
8.4293
8.38123
8.33223
8.28229
8.2314
8.17954
8.12669
10.2678
10.2642
10.2599
10.2553
10.2499
10.2442
10.2381
10.2316
10.2248
10.2177
10.2102
10.2024
10.1943
10.1859
10.1772
10.1682
10.1588
10.1492
10.1393
10.129
10.1184
10.1076
10.0963
10.0848
10.0729
10.0607
10.0481
10.0352
10.022
10.0083
9.99433
9.97995
9.9652
9.95005
9.93451
9.91857
9.90223
9.88546
9.86828
9.85067
9.83262
9.81413
9.79519
9.77579
9.75592
9.73558
9.71476
9.69346
9.67165
9.64934
9.62652
9.60317
9.57929
9.55488
9.52992
9.5044
9.47831
9.45165
9.4244
9.39656
9.36812
9.33906
9.30938
9.27907
9.24811
9.21649
9.18422
9.15126
9.11762
9.08328
9.04823
9.01246
8.97596
8.93871
8.90071
8.86194
8.82239
8.78204
8.74089
8.69892
8.65613
8.61248
8.56798
8.52261
8.47635
8.42919
8.38113
8.33213
8.2822
8.2313
8.17944
8.1266
10.2696
10.2659
10.2617
10.257
10.2517
10.2459
10.2398
10.2333
10.2264
10.2192
10.2117
10.2038
10.1957
10.1872
10.1785
10.1694
10.16
10.1503
10.1403
10.13
10.1193
10.1084
10.0971
10.0855
10.0735
10.0613
10.0486
10.0357
10.0223
10.0087
9.99461
9.98019
9.96538
9.9502
9.93462
9.91865
9.90227
9.88547
9.86826
9.85063
9.83256
9.81404
9.79508
9.77567
9.75579
9.73544
9.71461
9.69329
9.67148
9.64917
9.62634
9.60299
9.57911
9.55469
9.52973
9.50421
9.47813
9.45147
9.42422
9.39638
9.36794
9.33889
9.30921
9.2789
9.24795
9.21634
9.18406
9.15111
9.11747
9.08314
9.04809
9.01233
8.97583
8.93858
8.90058
8.86182
8.82227
8.78193
8.74078
8.69882
8.65602
8.61238
8.56788
8.52251
8.47625
8.4291
8.38103
8.33204
8.2821
8.23121
8.17935
8.12651
10.2713
10.2674
10.2633
10.2586
10.2532
10.2474
10.2413
10.2347
10.2278
10.2206
10.213
10.2051
10.1969
10.1884
10.1796
10.1705
10.161
10.1513
10.1412
10.1309
10.1202
10.1092
10.0978
10.0862
10.0742
10.0618
10.0492
10.0361
10.0228
10.009
9.99494
9.98047
9.96563
9.95041
9.93479
9.91878
9.90237
9.88555
9.86831
9.85065
9.83255
9.81402
9.79504
9.77561
9.75571
9.73535
9.71451
9.69318
9.67136
9.64903
9.6262
9.60284
9.57896
9.55454
9.52958
9.50405
9.47797
9.45131
9.42406
9.39623
9.36779
9.33874
9.30906
9.27875
9.2478
9.21619
9.18392
9.15097
9.11734
9.083
9.04796
9.0122
8.9757
8.93846
8.90047
8.8617
8.82216
8.78182
8.74068
8.69871
8.65592
8.61228
8.56778
8.52241
8.47616
8.42901
8.38094
8.33195
8.28202
8.23113
8.17927
8.12642
10.2726
10.2687
10.2647
10.2598
10.2545
10.2487
10.2425
10.236
10.2291
10.2218
10.2142
10.2063
10.1981
10.1895
10.1807
10.1715
10.162
10.1522
10.1421
10.1317
10.121
10.1099
10.0985
10.0868
10.0748
10.0624
10.0497
10.0366
10.0232
10.0094
9.99531
9.9808
9.96592
9.95066
9.93501
9.91897
9.90253
9.88568
9.86841
9.85072
9.83261
9.81405
9.79505
9.7756
9.75569
9.73531
9.71445
9.69311
9.67128
9.64894
9.6261
9.60274
9.57885
9.55442
9.52945
9.50393
9.47784
9.45118
9.42393
9.39609
9.36765
9.3386
9.30893
9.27862
9.24767
9.21606
9.18379
9.15085
9.11721
9.08288
9.04784
9.01208
8.97559
8.93835
8.90036
8.8616
8.82206
8.78172
8.74058
8.69862
8.65583
8.61219
8.56769
8.52233
8.47608
8.42892
8.38086
8.33187
8.28194
8.23105
8.17919
8.12635
10.2738
10.2698
10.2658
10.261
10.2556
10.2498
10.2436
10.2371
10.2301
10.2228
10.2152
10.2073
10.199
10.1905
10.1816
10.1724
10.1629
10.1531
10.1429
10.1325
10.1217
10.1106
10.0992
10.0875
10.0754
10.063
10.0502
10.0371
10.0237
10.0099
9.99569
9.98115
9.96624
9.95095
9.93527
9.9192
9.90273
9.88585
9.86856
9.85084
9.8327
9.81412
9.7951
9.77563
9.7557
9.73531
9.71444
9.69308
9.67124
9.64889
9.62604
9.60267
9.57877
9.55434
9.52936
9.50383
9.47774
9.45107
9.42382
9.39598
9.36754
9.33849
9.30881
9.27851
9.24755
9.21595
9.18368
9.15074
9.1171
9.08278
9.04774
9.01198
8.97549
8.93825
8.90026
8.8615
8.82196
8.78163
8.74049
8.69853
8.65574
8.6121
8.56761
8.52225
8.476
8.42885
8.38078
8.3318
8.28186
8.23098
8.17912
8.12627
10.2748
10.2708
10.2668
10.2619
10.2566
10.2508
10.2446
10.238
10.2311
10.2238
10.2161
10.2082
10.1999
10.1913
10.1824
10.1732
10.1637
10.1538
10.1437
10.1332
10.1224
10.1113
10.0998
10.0881
10.076
10.0635
10.0507
10.0376
10.0241
10.0103
9.99609
9.98152
9.96658
9.95126
9.93555
9.91945
9.90295
9.88605
9.86873
9.851
9.83283
9.81424
9.7952
9.77571
9.75576
9.73535
9.71446
9.69309
9.67123
9.64888
9.62601
9.60263
9.57872
9.55428
9.5293
9.50376
9.47766
9.45099
9.42374
9.3959
9.36745
9.3384
9.30872
9.27841
9.24746
9.21585
9.18358
9.15064
9.11701
9.08268
9.04764
9.01189
8.9754
8.93816
8.90017
8.86142
8.82188
8.78154
8.74041
8.69845
8.65566
8.61203
8.56754
8.52217
8.47592
8.42878
8.38071
8.33173
8.2818
8.23091
8.17905
8.12621
10.2757
10.2717
10.2677
10.2628
10.2575
10.2517
10.2455
10.2389
10.2319
10.2246
10.217
10.209
10.2007
10.1921
10.1832
10.174
10.1644
10.1545
10.1444
10.1339
10.1231
10.1119
10.1004
10.0886
10.0765
10.064
10.0512
10.0381
10.0246
10.0107
9.99648
9.98189
9.96692
9.95158
9.93585
9.91972
9.9032
9.88628
9.86894
9.85118
9.833
9.81438
9.79532
9.77581
9.75585
9.73542
9.71452
9.69313
9.67126
9.64889
9.62602
9.60262
9.57871
9.55426
9.52927
9.50372
9.47762
9.45094
9.42368
9.39584
9.36739
9.33833
9.30865
9.27834
9.24738
9.21578
9.18351
9.15056
9.11693
9.0826
9.04756
9.01181
8.97532
8.93809
8.9001
8.86134
8.8218
8.78147
8.74033
8.69838
8.65559
8.61196
8.56747
8.5221
8.47586
8.42871
8.38065
8.33166
8.28174
8.23085
8.17899
8.12615
10.2765
10.2724
10.2685
10.2636
10.2583
10.2524
10.2462
10.2396
10.2327
10.2254
10.2177
10.2097
10.2014
10.1928
10.1839
10.1746
10.1651
10.1552
10.145
10.1345
10.1237
10.1125
10.101
10.0892
10.077
10.0645
10.0517
10.0385
10.025
10.0111
9.99688
9.98226
9.96727
9.95191
9.93615
9.92001
9.90347
9.88652
9.86916
9.85138
9.83318
9.81454
9.79547
9.77594
9.75596
9.73552
9.7146
9.6932
9.67132
9.64894
9.62605
9.60264
9.57872
9.55426
9.52926
9.50371
9.47759
9.45091
9.42365
9.39579
9.36734
9.33828
9.30859
9.27828
9.24732
9.21571
9.18344
9.1505
9.11686
9.08253
9.0475
9.01174
8.97525
8.93802
8.90003
8.86127
8.82173
8.7814
8.74027
8.69831
8.65553
8.6119
8.56741
8.52204
8.4758
8.42865
8.38059
8.33161
8.28168
8.23079
8.17893
8.12609
10.2772
10.2731
10.2692
10.2643
10.259
10.2531
10.2469
10.2403
10.2333
10.226
10.2184
10.2104
10.2021
10.1935
10.1845
10.1753
10.1657
10.1558
10.1456
10.1351
10.1242
10.113
10.1015
10.0897
10.0775
10.065
10.0522
10.039
10.0254
10.0115
9.99727
9.98263
9.96762
9.95224
9.93647
9.9203
9.90374
9.88678
9.8694
9.8516
9.83338
9.81473
9.79564
9.7761
9.7561
9.73564
9.71471
9.6933
9.6714
9.649
9.6261
9.60269
9.57875
9.55429
9.52928
9.50371
9.47759
9.4509
9.42363
9.39578
9.36732
9.33825
9.30856
9.27824
9.24728
9.21567
9.1834
9.15045
9.11681
9.08248
9.04744
9.01169
8.9752
8.93796
8.89997
8.86122
8.82168
8.78135
8.74021
8.69826
8.65547
8.61184
8.56735
8.52199
8.47575
8.4286
8.38054
8.33156
10.2779
10.2738
10.2699
10.2649
10.2596
10.2538
10.2476
10.2409
10.234
10.2266
10.219
10.211
10.2027
10.1941
10.1851
10.1758
10.1663
10.1564
10.1461
10.1356
10.1247
10.1135
10.102
10.0902
10.078
10.0655
10.0526
10.0394
10.0258
10.0119
9.99764
9.98299
9.96797
9.95257
9.93678
9.9206
9.90402
9.88704
9.86965
9.85184
9.8336
9.81493
9.79582
9.77627
9.75626
9.73578
9.71484
9.69341
9.6715
9.6491
9.62618
9.60276
9.57881
9.55433
9.52931
9.50375
9.47762
9.45092
9.42364
9.39578
9.36731
9.33824
9.30855
9.27822
9.24726
9.21564
9.18337
9.15041
9.11678
9.08245
9.0474
9.01164
8.97515
8.93792
8.89993
8.86117
8.82163
8.7813
8.74017
8.69821
8.65543
8.6118
8.56731
8.52195
8.4757
8.42856
8.3805
8.33151
10.2784
10.2744
10.2705
10.2655
10.2602
10.2544
10.2481
10.2415
10.2345
10.2272
10.2195
10.2116
10.2032
10.1946
10.1856
10.1764
10.1668
10.1569
10.1466
10.1361
10.1252
10.114
10.1025
10.0906
10.0784
10.0659
10.053
10.0398
10.0262
10.0123
9.99801
9.98335
9.96831
9.95289
9.93709
9.9209
9.9043
9.88731
9.8699
9.85208
9.83383
9.81514
9.79602
9.77645
9.75643
9.73594
9.71498
9.69355
9.67162
9.64921
9.62628
9.60285
9.57889
9.5544
9.52937
9.5038
9.47766
9.45095
9.42367
9.3958
9.36733
9.33825
9.30855
9.27822
9.24725
9.21563
9.18335
9.1504
9.11676
9.08242
9.04738
9.01162
8.97512
8.93789
8.8999
8.86114
8.8216
8.78127
8.74013
8.69818
8.65539
8.61176
8.56727
8.52191
8.47567
8.42852
8.38046
8.33147
10.279
10.2749
10.271
10.2661
10.2607
10.2549
10.2487
10.242
10.2351
10.2277
10.2201
10.2121
10.2037
10.1951
10.1861
10.1769
10.1673
10.1573
10.1471
10.1366
10.1257
10.1145
10.1029
10.0911
10.0789
10.0663
10.0534
10.0402
10.0266
10.0127
9.99837
9.98369
9.96864
9.95321
9.9374
9.92119
9.90459
9.88758
9.87016
9.85232
9.83406
9.81536
9.79623
9.77665
9.75661
9.73611
9.71514
9.6937
9.67176
9.64933
9.6264
9.60295
9.57899
9.55449
9.52945
9.50386
9.47772
9.45101
9.42371
9.39584
9.36736
9.33827
9.30857
9.27823
9.24726
9.21564
9.18335
9.15039
9.11675
9.08241
9.04737
9.0116
8.97511
8.93787
8.89988
8.86112
8.82158
8.78124
8.74011
8.69815
8.65536
8.61173
8.56724
8.52188
8.47564
10.2795
10.2754
10.2715
10.2666
10.2612
10.2554
10.2491
10.2425
10.2355
10.2282
10.2205
10.2125
10.2042
10.1956
10.1866
10.1773
10.1677
10.1578
10.1475
10.137
10.1261
10.1149
10.1033
10.0915
10.0793
10.0667
10.0538
10.0406
10.027
10.013
9.99871
9.98402
9.96896
9.95353
9.9377
9.92148
9.90487
9.88785
9.87042
9.85257
9.83429
9.81559
9.79644
9.77685
9.7568
9.73629
9.71531
9.69386
9.67191
9.64947
9.62653
9.60307
9.5791
9.55459
9.52954
9.50395
9.4778
9.45107
9.42378
9.39589
9.36741
9.33831
9.3086
9.27827
9.24729
9.21566
9.18337
9.1504
9.11676
9.08242
9.04737
9.0116
8.9751
8.93786
8.89987
8.86111
8.82156
8.78123
8.74009
8.69813
8.65534
8.61171
8.56722
8.52186
8.47561
10.2799
10.2759
10.272
10.267
10.2617
10.2558
10.2496
10.243
10.236
10.2287
10.221
10.213
10.2047
10.196
10.187
10.1777
10.1681
10.1582
10.148
10.1374
10.1265
10.1153
10.1037
10.0919
10.0796
10.0671
10.0542
10.0409
10.0273
10.0134
9.99904
9.98435
9.96928
9.95383
9.938
9.92177
9.90515
9.88812
9.87068
9.85282
9.83453
9.81582
9.79666
9.77706
9.757
9.73648
9.71549
9.69403
9.67207
9.64962
9.62667
9.60321
9.57922
9.55471
9.52965
9.50405
9.47789
9.45116
9.42385
9.39596
9.36747
9.33837
9.30865
9.27831
9.24733
9.21569
9.1834
9.15043
9.11678
9.08243
9.04738
9.01161
8.97511
8.93787
8.89987
8.86111
8.82156
8.78123
8.74009
8.69813
8.65534
8.6117
8.56721
8.52185
8.4756
10.2804
10.2763
10.2724
10.2674
10.2621
10.2563
10.25
10.2434
10.2364
10.2291
10.2214
10.2134
10.2051
10.1964
10.1874
10.1781
10.1685
10.1586
10.1484
10.1378
10.1269
10.1157
10.1041
10.0922
10.08
10.0674
10.0545
10.0413
10.0277
10.0137
9.99936
9.98466
9.96959
9.95413
9.93829
9.92205
9.90542
9.88838
9.87093
9.85307
9.83477
9.81605
9.79688
9.77727
9.75721
9.73668
9.71568
9.6942
9.67224
9.64978
9.62682
9.60335
9.57936
9.55483
9.52977
9.50416
9.47799
9.45126
9.42394
9.39604
9.36755
9.33844
9.30872
9.27837
9.24738
9.21574
9.18344
9.15047
9.11681
9.08246
9.04741
9.01163
8.97513
8.93788
8.89988
8.86112
8.82157
8.78123
8.74009
8.69813
8.65534
8.6117
8.56721
8.52184
8.47559
10.2808
10.2767
10.2728
10.2678
10.2625
10.2567
10.2504
10.2438
10.2368
10.2295
10.2218
10.2138
10.2055
10.1968
10.1878
10.1785
10.1689
10.159
10.1487
10.1381
10.1272
10.116
10.1045
10.0926
10.0803
10.0678
10.0549
10.0416
10.028
10.014
9.99967
9.98497
9.96988
9.95442
9.93857
9.92233
9.90569
9.88864
9.87119
9.85331
9.83501
9.81628
9.79711
9.77749
9.75741
9.73688
9.71587
9.69439
9.67242
9.64995
9.62698
9.6035
9.5795
9.55497
9.5299
9.50428
9.47811
9.45136
9.42405
9.39614
9.36764
9.33852
9.3088
9.27844
9.24745
9.2158
9.1835
9.15052
9.11686
9.08251
9.04745
9.01167
8.97516
8.93791
8.89991
8.86114
8.82159
8.78125
8.74011
8.69814
8.65535
8.61171
8.56722
8.52185
8.4756
10.2812
10.2771
10.2732
10.2682
10.2629
10.257
10.2508
10.2442
10.2372
10.2298
10.2222
10.2142
10.2058
10.1972
10.1882
10.1789
10.1693
10.1593
10.1491
10.1385
10.1276
10.1164
10.1048
10.0929
10.0807
10.0681
10.0552
10.0419
10.0283
10.0143
9.99997
9.98526
9.97017
9.9547
9.93885
9.9226
9.90595
9.8889
9.87144
9.85356
9.83525
9.81651
9.79733
9.77771
9.75763
9.73708
9.71607
9.69458
9.6726
9.65013
9.62715
9.60366
9.57965
9.55512
9.53004
9.50442
9.47823
9.45148
9.42416
9.39625
9.36774
9.33862
9.30889
9.27852
9.24752
9.21588
9.18357
9.15058
9.11692
9.08256
9.0475
9.01172
8.97521
8.93795
8.89995
8.86117
8.82162
8.78128
8.74013
8.69817
8.65537
8.61173
8.56724
8.52187
8.47562
10.2815
10.2774
10.2735
10.2686
10.2632
10.2574
10.2512
10.2445
10.2375
10.2302
10.2225
10.2145
10.2062
10.1975
10.1885
10.1792
10.1696
10.1597
10.1494
10.1388
10.1279
10.1167
10.1051
10.0932
10.081
10.0684
10.0555
10.0422
10.0286
10.0146
10.0003
9.98555
9.97045
9.95498
9.93912
9.92287
9.90621
9.88916
9.87169
9.8538
9.83549
9.81674
9.79756
9.77792
9.75784
9.73729
9.71627
9.69477
9.67279
9.65031
9.62732
9.60383
9.57981
9.55527
9.53019
9.50456
9.47837
9.45161
9.42428
9.39636
9.36785
9.33872
9.30899
9.27862
9.24761
9.21596
9.18364
9.15066
9.11699
9.08263
9.04756
9.01177
8.97526
8.938
8.89999
8.86122
8.82166
8.78132
8.74017
8.6982
8.6554
8.61176
8.56726
8.52189
8.47564
10.2819
10.2778
10.2739
10.2689
10.2636
10.2577
10.2515
10.2449
10.2379
10.2305
10.2228
10.2148
10.2065
10.1978
10.1888
10.1795
10.1699
10.16
10.1497
10.1391
10.1282
10.117
10.1054
10.0935
10.0813
10.0687
10.0558
10.0425
10.0289
10.0149
10.0005
9.98582
9.97073
9.95525
9.93938
9.92313
9.90647
9.88941
9.87193
9.85404
9.83572
9.81697
9.79778
9.77814
9.75805
9.73749
9.71647
9.69497
9.67297
9.65049
9.6275
9.604
9.57998
9.55543
9.53034
9.5047
9.47851
9.45175
9.42441
9.39649
9.36797
9.33884
9.30909
9.27872
9.24771
9.21605
9.18373
9.15074
9.11707
9.0827
9.04763
9.01184
8.97532
8.93806
8.90005
8.86127
8.82171
8.78136
8.74021
8.69824
8.65544
8.6118
8.5673
8.52193
8.47567
10.2822
10.2781
10.2742
10.2692
10.2639
10.2581
10.2518
10.2452
10.2382
10.2308
10.2232
10.2151
10.2068
10.1981
10.1892
10.1799
10.1702
10.1603
10.15
10.1394
10.1285
10.1173
10.1057
10.0938
10.0816
10.069
10.0561
10.0428
10.0292
10.0152
10.0008
9.98609
9.97099
9.95551
9.93964
9.92338
9.90672
9.88965
9.87217
9.85428
9.83595
9.8172
9.798
9.77836
9.75826
9.7377
9.71667
9.69516
9.67317
9.65068
9.62768
9.60418
9.58015
9.5556
9.5305
9.50486
9.47866
9.45189
9.42455
9.39662
9.36809
9.33896
9.30921
9.27883
9.24782
9.21616
9.18383
9.15084
9.11716
9.08279
9.04771
9.01192
8.9754
8.93813
8.90012
8.86133
8.82177
8.78142
8.74027
8.69829
8.65549
8.61184
8.56734
8.52197
8.47571
10.2825
10.2784
10.2745
10.2696
10.2642
10.2584
10.2521
10.2455
10.2385
10.2311
10.2235
10.2155
10.2071
10.1984
10.1895
10.1802
10.1705
10.1606
10.1503
10.1397
10.1288
10.1176
10.106
10.0941
10.0819
10.0693
10.0563
10.0431
10.0294
10.0154
10.0011
9.98635
9.97125
9.95577
9.93989
9.92363
9.90696
9.88989
9.87241
9.85451
9.83618
9.81742
9.79822
9.77858
9.75847
9.73791
9.71687
9.69536
9.67336
9.65087
9.62787
9.60436
9.58032
9.55576
9.53066
9.50502
9.47881
9.45204
9.42469
9.39676
9.36823
9.33909
9.30934
9.27896
9.24794
9.21627
9.18394
9.15094
9.11726
9.08288
9.0478
9.01201
8.97548
8.93821
8.90019
8.86141
8.82184
8.78149
8.74033
8.69835
8.65555
8.6119
8.56739
8.52202
8.47576
10.2828
10.2787
10.2748
10.2699
10.2645
10.2587
10.2524
10.2458
10.2388
10.2314
10.2238
10.2157
10.2074
10.1987
10.1897
10.1804
10.1708
10.1609
10.1506
10.14
10.1291
10.1179
10.1063
10.0944
10.0821
10.0695
10.0566
10.0433
10.0297
10.0157
10.0013
9.98661
9.9715
9.95602
9.94014
9.92387
9.9072
9.89013
9.87265
9.85474
9.83641
9.81765
9.79844
9.77879
9.75869
9.73812
9.71708
9.69556
9.67355
9.65106
9.62805
9.60454
9.5805
9.55594
9.53083
9.50518
9.47897
9.4522
9.42484
9.3969
9.36837
9.33923
9.30947
9.27908
9.24806
9.21639
9.18405
9.15105
9.11736
9.08299
9.0479
9.0121
8.97557
8.9383
8.90028
8.86149
8.82192
8.78156
8.7404
8.69842
8.65561
8.61196
8.56745
8.52208
8.47581
10.2831
10.279
10.2751
10.2701
10.2648
10.2589
10.2527
10.2461
10.2391
10.2317
10.224
10.216
10.2077
10.199
10.19
10.1807
10.1711
10.1611
10.1509
10.1403
10.1294
10.1181
10.1066
10.0946
10.0824
10.0698
10.0569
10.0436
10.03
10.016
10.0016
9.98686
9.97175
9.95626
9.94038
9.92411
9.90744
9.89036
9.87288
9.85497
9.83663
9.81787
9.79866
9.77901
9.7589
9.73832
9.71728
9.69576
9.67375
9.65125
9.62824
9.60472
9.58068
9.55611
9.531
9.50535
9.47913
9.45235
9.425
9.39705
9.36851
9.33937
9.30961
9.27922
9.24819
9.21651
9.18417
9.15117
9.11748
9.08309
9.04801
9.0122
8.97567
8.93839
8.90037
8.86157
8.822
8.78164
8.74048
8.6985
8.65569
8.61203
8.56752
8.52214
8.47588
10.2834
10.2793
10.2753
10.2704
10.265
10.2592
10.253
10.2463
10.2393
10.232
10.2243
10.2163
10.208
10.1993
10.1903
10.181
10.1714
10.1614
10.1511
10.1405
10.1296
10.1184
10.1068
10.0949
10.0827
10.0701
10.0571
10.0438
10.0302
10.0162
10.0018
9.9871
9.97199
9.9565
9.94062
9.92435
9.90767
9.89059
9.8731
9.85519
9.83686
9.81809
9.79888
9.77922
9.7591
9.73853
9.71748
9.69596
9.67395
9.65144
9.62843
9.60491
9.58086
9.55629
9.53118
9.50552
9.4793
9.45252
9.42516
9.39721
9.36867
9.33952
9.30975
9.27935
9.24832
9.21664
9.1843
9.15129
9.1176
9.08321
9.04812
9.01231
8.97577
8.9385
8.90047
8.86167
8.8221
8.78173
8.74057
8.69858
8.65577
8.61211
8.5676
8.52222
8.47595
10.2836
10.2796
10.2756
10.2707
10.2653
10.2595
10.2532
10.2466
10.2396
10.2323
10.2246
10.2166
10.2082
10.1995
10.1906
10.1812
10.1716
10.1617
10.1514
10.1408
10.1299
10.1186
10.1071
10.0952
10.0829
10.0703
10.0574
10.0441
10.0304
10.0164
10.0021
9.98734
9.97223
9.95673
9.94085
9.92457
9.9079
9.89082
9.87333
9.85541
9.83707
9.8183
9.79909
9.77943
9.75931
9.73873
9.71768
9.69616
9.67414
9.65163
9.62862
9.60509
9.58104
9.55647
9.53135
9.50569
9.47947
9.45268
9.42532
9.39737
9.36882
9.33967
9.3099
9.2795
9.24846
9.21678
9.18443
9.15142
9.11772
9.08333
9.04824
9.01243
8.97589
8.93861
8.90057
8.86177
8.8222
8.78183
8.74066
8.69867
8.65586
8.6122
8.56768
8.5223
8.47603
10.2839
10.2798
10.2759
10.2709
10.2656
10.2597
10.2535
10.2469
10.2399
10.2325
10.2248
10.2168
10.2085
10.1998
10.1908
10.1815
10.1719
10.1619
10.1516
10.1411
10.1301
10.1189
10.1073
10.0954
10.0831
10.0706
10.0576
10.0443
10.0307
10.0167
10.0023
9.98757
9.97246
9.95696
9.94108
9.9248
9.90812
9.89104
9.87354
9.85563
9.83729
9.81851
9.7993
9.77964
9.75952
9.73894
9.71788
9.69635
9.67434
9.65182
9.62881
9.60528
9.58123
9.55665
9.53153
9.50586
9.47964
9.45285
9.42548
9.39753
9.36898
9.33982
9.31005
9.27965
9.24861
9.21692
9.18457
9.15155
9.11785
9.08346
9.04836
9.01255
8.976
8.93872
8.90068
8.86188
8.8223
8.78193
8.74076
8.69877
8.65595
8.61229
8.56777
8.52238
8.47611
10.2841
10.2801
10.2761
10.2712
10.2658
10.26
10.2537
10.2471
10.2401
10.2328
10.2251
10.2171
10.2087
10.2
10.1911
10.1817
10.1721
10.1622
10.1519
10.1413
10.1304
10.1191
10.1075
10.0956
10.0834
10.0708
10.0578
10.0446
10.0309
10.0169
10.0025
9.9878
9.97268
9.95719
9.9413
9.92502
9.90834
9.89126
9.87376
9.85584
9.8375
9.81872
9.79951
9.77984
9.75972
9.73914
9.71808
9.69655
9.67453
9.65201
9.62899
9.60546
9.58141
9.55683
9.53171
9.50604
9.47981
9.45302
9.42565
9.39769
9.36914
9.33998
9.3102
9.2798
9.24875
9.21706
9.18471
9.15169
9.11799
9.08359
9.04849
9.01267
8.97613
8.93884
8.9008
8.862
8.82241
8.78204
8.74086
8.69887
8.65605
8.61239
8.56787
8.52248
8.4762
10.2844
10.2803
10.2763
10.2714
10.2661
10.2602
10.254
10.2474
10.2404
10.233
10.2253
10.2173
10.209
10.2003
10.1913
10.182
10.1723
10.1624
10.1521
10.1415
10.1306
10.1194
10.1078
10.0959
10.0836
10.071
10.0581
10.0448
10.0311
10.0171
10.0028
9.98802
9.97291
9.95741
9.94152
9.92524
9.90856
9.89147
9.87397
9.85605
9.83771
9.81893
9.79971
9.78004
9.75992
9.73934
9.71828
9.69674
9.67472
9.6522
9.62918
9.60565
9.58159
9.55701
9.53188
9.50621
9.47998
9.45319
9.42581
9.39785
9.3693
9.34014
9.31036
9.27995
9.2489
9.21721
9.18486
9.15183
9.11813
9.08373
9.04862
9.0128
8.97625
8.93896
8.90092
8.86211
8.82253
8.78215
8.74097
8.69898
8.65616
8.61249
8.56797
8.52257
10.2846
10.2806
10.2766
10.2717
10.2663
10.2605
10.2542
10.2476
10.2406
10.2332
10.2256
10.2175
10.2092
10.2005
10.1915
10.1822
10.1726
10.1626
10.1524
10.1418
10.1308
10.1196
10.108
10.0961
10.0838
10.0712
10.0583
10.045
10.0314
10.0174
10.003
9.98824
9.97312
9.95762
9.94173
9.92545
9.90877
9.89168
9.87418
9.85626
9.83791
9.81913
9.79991
9.78024
9.76012
9.73953
9.71847
9.69694
9.67491
9.65239
9.62937
9.60583
9.58178
9.55719
9.53206
9.50639
9.48016
9.45336
9.42598
9.39802
9.36946
9.3403
9.31051
9.2801
9.24906
9.21736
9.185
9.15198
9.11827
9.08387
9.04876
9.01294
8.97638
8.93909
8.90105
8.86224
8.82265
8.78227
8.74109
8.69909
8.65627
8.6126
8.56807
8.52267
10.2848
10.2808
10.2768
10.2719
10.2665
10.2607
10.2545
10.2478
10.2408
10.2335
10.2258
10.2178
10.2094
10.2007
10.1917
10.1824
10.1728
10.1629
10.1526
10.142
10.1311
10.1198
10.1082
10.0963
10.0841
10.0715
10.0585
10.0452
10.0316
10.0176
10.0032
9.98845
9.97333
9.95783
9.94194
9.92566
9.90898
9.89189
9.87439
9.85646
9.83812
9.81933
9.80011
9.78044
9.76032
9.73973
9.71867
9.69713
9.6751
9.65258
9.62955
9.60602
9.58196
9.55737
9.53224
9.50656
9.48033
9.45353
9.42615
9.39819
9.36962
9.34046
9.31067
9.28026
9.24921
9.21751
9.18515
9.15212
9.11841
9.08401
9.0489
9.01307
8.97652
8.93922
8.90118
8.86236
8.82277
8.78239
8.74121
8.69921
8.65638
8.61271
8.56818
8.52278
10.2851
10.281
10.277
10.2721
10.2668
10.2609
10.2547
10.248
10.241
10.2337
10.226
10.218
10.2096
10.201
10.192
10.1827
10.173
10.1631
10.1528
10.1422
10.1313
10.12
10.1084
10.0965
10.0843
10.0717
10.0587
10.0454
10.0318
10.0178
10.0034
9.98866
9.97354
9.95804
9.94215
9.92587
9.90918
9.89209
9.87459
9.85666
9.83832
9.81953
9.80031
9.78064
9.76051
9.73992
9.71886
9.69732
9.67529
9.65276
9.62974
9.6062
9.58214
9.55755
9.53242
9.50674
9.4805
9.4537
9.42632
9.39835
9.36979
9.34062
9.31083
9.28042
9.24937
9.21766
9.1853
9.15227
9.11856
9.08415
9.04904
9.01321
8.97666
8.93936
8.90131
8.86249
8.8229
8.78252
8.74133
8.69933
8.6565
8.61282
8.56829
8.52289
10.2853
10.2813
10.2772
10.2724
10.267
10.2611
10.2549
10.2483
10.2413
10.2339
10.2262
10.2182
10.2099
10.2012
10.1922
10.1829
10.1732
10.1633
10.153
10.1424
10.1315
10.1202
10.1087
10.0967
10.0845
10.0719
10.0589
10.0456
10.032
10.018
10.0036
9.98887
9.97375
9.95824
9.94235
9.92607
9.90938
9.89229
9.87479
9.85686
9.83851
9.81973
9.8005
9.78083
9.7607
9.74011
9.71904
9.6975
9.67547
9.65295
9.62992
9.60638
9.58231
9.55772
9.53259
9.50691
9.48067
9.45387
9.42649
9.39852
9.36995
9.34078
9.31099
9.28058
9.24952
9.21782
9.18546
9.15242
9.11871
9.0843
9.04918
9.01335
8.97679
8.93949
8.90144
8.86263
8.82303
8.78265
8.74146
8.69945
8.65662
8.61294
8.56841
8.52301
10.2855
10.2815
10.2775
10.2726
10.2672
10.2614
10.2551
10.2485
10.2415
10.2341
10.2264
10.2184
10.2101
10.2014
10.1924
10.1831
10.1734
10.1635
10.1532
10.1426
10.1317
10.1204
10.1089
10.0969
10.0847
10.0721
10.0591
10.0459
10.0322
10.0182
10.0038
9.98907
9.97395
9.95844
9.94255
9.92626
9.90958
9.89248
9.87498
9.85705
9.8387
9.81992
9.80069
9.78102
9.76089
9.74029
9.71923
9.69768
9.67565
9.65313
9.6301
9.60655
9.58249
9.5579
9.53276
9.50708
9.48084
9.45404
9.42665
9.39868
9.37012
9.34094
9.31115
9.28073
9.24968
9.21797
9.18561
9.15257
9.11885
9.08444
9.04933
9.0135
8.97693
8.93963
8.90158
8.86276
8.82316
8.78278
8.74159
8.69958
8.65674
8.61307
8.56853
8.52313
10.2857
10.2817
10.2777
10.2728
10.2674
10.2616
10.2553
10.2487
10.2417
10.2343
10.2266
10.2186
10.2103
10.2016
10.1926
10.1833
10.1737
10.1637
10.1534
10.1428
10.1319
10.1206
10.1091
10.0971
10.0849
10.0723
10.0593
10.046
10.0324
10.0184
10.004
9.98926
9.97414
9.95863
9.94274
9.92645
9.90977
9.89267
9.87517
9.85724
9.83889
9.8201
9.80088
9.7812
9.76107
9.74047
9.71941
9.69786
9.67583
9.6533
9.63027
9.60673
9.58266
9.55807
9.53293
9.50725
9.48101
9.4542
9.42682
9.39884
9.37028
9.3411
9.31131
9.28089
9.24983
9.21812
9.18576
9.15272
9.119
9.08459
9.04947
9.01364
8.97707
8.93977
8.90172
8.86289
8.8233
8.78291
8.74171
8.69971
8.65687
8.61319
8.56865
8.52325
10.2859
10.2819
10.2779
10.273
10.2676
10.2618
10.2555
10.2489
10.2419
10.2345
10.2268
10.2188
10.2105
10.2018
10.1928
10.1835
10.1738
10.1639
10.1536
10.143
10.1321
10.1208
10.1093
10.0973
10.0851
10.0725
10.0595
10.0462
10.0326
10.0186
10.0042
9.98945
9.97433
9.95882