/*--------------------------------*- C++ -*----------------------------------*\
  =========                 |
  \\      /  F ield         | OpenFOAM: The Open Source CFD Toolbox
   \\    /   O peration     | Website:  https://openfoam.org
    \\  /    A nd           | Version:  10
     \\/     M anipulation  |
\*---------------------------------------------------------------------------*/
FoamFile
{
    format      ascii;
    class       volVectorField;
    location    "27000";
    object      Urel;
}
// * * * * * * * * * * * * * * * * * * * * * * * * * * * * * * * * * * * * * //

dimensions      [0 1 -1 0 0 0 0];

internalField   nonuniform List<vector> 
17969
(
(0.140304 -0.139092 0)
(-0.0239958 -0.082309 0)
(-0.000506724 -0.0688048 -7.49805e-18)
(0.0010224 -0.0566764 8.61538e-18)
(0.00157013 -0.04531 -2.85186e-18)
(0.00294509 -0.0336029 -2.2672e-18)
(0.00521336 -0.0205849 1.90076e-18)
(0.00849023 -0.00537892 0)
(0.0130817 0.0129497 1.0422e-19)
(0.0194407 0.0359041 0)
(0.0282069 0.0652499 0)
(0.0396353 0.101534 0)
(0.0533637 0.143045 0)
(0.0685568 0.186528 -1.21597e-18)
(0.0841244 0.228362 1.12837e-18)
(0.0990312 0.265609 0)
(0.112608 0.296573 -7.8344e-19)
(0.124164 0.32059 6.82953e-19)
(0.133816 0.338704 -6.12131e-19)
(0.141874 0.352219 5.61877e-19)
(0.148384 0.362054 0)
(0.153618 0.369018 0)
(0.157841 0.373737 -5.33811e-20)
(0.161251 0.376733 0)
(0.164019 0.37844 0)
(0.166291 0.379189 3.2187e-19)
(0.168188 0.379219 -5.89918e-19)
(0.169801 0.378693 2.71191e-19)
(0.171198 0.377721 2.48279e-19)
(0.172429 0.376377 -3.00795e-20)
(0.173527 0.374708 -2.67447e-19)
(0.174515 0.372749 0)
(0.17541 0.370521 1.85286e-19)
(0.176224 0.36804 -3.92554e-19)
(0.176963 0.365314 1.1111e-21)
(0.177633 0.362352 3.10397e-19)
(0.178236 0.359158 -1.47583e-19)
(0.178776 0.355733 -1.74136e-19)
(0.179252 0.35208 1.00235e-19)
(0.179665 0.348198 0)
(0.180015 0.344088 3.03907e-20)
(0.1803 0.339748 2.91073e-20)
(0.180519 0.335177 2.21947e-19)
(0.180672 0.330373 -2.15209e-19)
(0.180757 0.325333 -2.04927e-19)
(0.180772 0.320057 -4.75784e-20)
(0.180715 0.31454 1.92109e-19)
(0.180585 0.30878 1.83207e-19)
(0.180379 0.302774 -2.12337e-21)
(0.180096 0.296517 -1.72806e-19)
(0.179734 0.290007 -2.06427e-19)
(0.17929 0.283239 2.01699e-19)
(0.178762 0.276208 0)
(0.178149 0.268909 0)
(0.177448 0.261338 3.639e-20)
(0.176656 0.253489 2.09872e-19)
(0.175771 0.245355 -1.37269e-19)
(0.17479 0.23693 0)
(0.173711 0.228208 0)
(0.172531 0.219181 6.03621e-20)
(0.171247 0.209842 -1.20847e-19)
(0.169855 0.200183 0)
(0.168354 0.190195 0)
(0.16674 0.17987 -5.43401e-20)
(0.165009 0.169199 -1.03441e-19)
(0.163158 0.158173 5.36837e-20)
(0.161184 0.146782 9.94095e-20)
(0.159083 0.135016 0)
(0.156851 0.122866 0)
(0.154486 0.11032 0)
(0.151983 0.0973696 8.30635e-20)
(0.149338 0.0840034 -5.44936e-21)
(0.146548 0.0702114 -1.60104e-19)
(0.14361 0.0559829 0)
(0.140564 0.0415174 7.08374e-20)
(0.137497 0.0272249 6.63821e-20)
(0.134458 0.0133073 -6.18228e-20)
(0.131453 -0.000243254 0)
(0.128483 -0.0134375 0)
(0.125548 -0.0262905 0)
(0.122654 -0.0388199 0)
(0.119806 -0.0510548 0)
(0.116996 -0.0630201 7.38318e-20)
(0.114233 -0.074728 -1.23164e-19)
(0.111522 -0.0861787 8.30844e-20)
(0.108871 -0.0973557 -1.46936e-20)
(0.106289 -0.108229 0)
(0.103787 -0.118777 0)
(0.101351 -0.129024 0)
(0.0989576 -0.139022 -2.59669e-20)
(0.0965985 -0.148809 3.48799e-20)
(0.0942638 -0.158412 2.7076e-20)
(0.0919515 -0.167857 -2.66911e-20)
(0.0896605 -0.17717 1.95394e-20)
(0.0873915 -0.186367 -3.74524e-20)
(0.085146 -0.195463 1.39129e-20)
(0.0829255 -0.204474 0)
(0.0807322 -0.213417 -6.55625e-21)
(0.0785689 -0.222304 6.40218e-21)
(0.0764383 -0.231148 3.28072e-22)
(0.146004 -0.134114 0)
(-0.0238285 -0.078863 -2.81138e-17)
(0.000958824 -0.0697982 1.74051e-17)
(0.00198749 -0.0611513 3.06453e-19)
(0.0020384 -0.0529178 1.23679e-17)
(0.00273487 -0.0446603 -1.80958e-17)
(0.00401472 -0.0357631 7.48955e-18)
(0.00586854 -0.0256941 6.66979e-18)
(0.00841931 -0.0139245 -6.39277e-18)
(0.0119262 0.000128881 -6.22201e-18)
(0.0166369 0.0171419 1.24072e-20)
(0.0229959 0.0383855 5.92391e-18)
(0.0315875 0.0653606 0)
(0.0425301 0.0982849 0)
(0.0555943 0.135851 -5.2086e-18)
(0.0701422 0.17559 4.75019e-18)
(0.0853185 0.214638 0)
(0.100163 0.250376 -3.53914e-18)
(0.113995 0.281 3.18295e-18)
(0.126245 0.305789 0)
(0.136675 0.32502 -2.38873e-18)
(0.145486 0.339669 2.05553e-18)
(0.152847 0.350625 6.29623e-20)
(0.158869 0.358649 0)
(0.163793 0.364315 1.70605e-18)
(0.167818 0.368087 -1.05806e-19)
(0.171109 0.370374 -2.88462e-18)
(0.173811 0.371522 1.32747e-18)
(0.17605 0.3718 -7.6146e-20)
(0.177931 0.371405 1.15181e-18)
(0.179537 0.370477 -9.71945e-19)
(0.18093 0.369112 0)
(0.182156 0.367375 7.74094e-19)
(0.183245 0.365311 -6.74723e-19)
(0.184222 0.362951 0)
(0.185102 0.360316 9.07854e-20)
(0.185897 0.357419 -8.54098e-20)
(0.186613 0.354272 -6.01084e-19)
(0.187256 0.35088 1.25609e-18)
(0.187829 0.347248 -7.70551e-20)
(0.188334 0.343377 -5.85957e-19)
(0.188772 0.339269 -6.19349e-19)
(0.189143 0.334923 9.99482e-19)
(0.189446 0.33034 -1.07557e-18)
(0.189679 0.325517 9.15567e-19)
(0.189843 0.320454 -3.86595e-19)
(0.189935 0.315147 4.19396e-19)
(0.189952 0.309594 -9.12398e-19)
(0.189894 0.303793 7.80314e-19)
(0.189758 0.297739 -7.51579e-19)
(0.189542 0.29143 3.19012e-19)
(0.189242 0.284861 -4.35848e-20)
(0.188858 0.278028 0)
(0.188385 0.270926 0)
(0.187821 0.26355 -3.92239e-20)
(0.187164 0.255895 -7.57964e-20)
(0.18641 0.247955 2.91139e-19)
(0.185557 0.239723 -4.28736e-19)
(0.184601 0.231194 -5.43696e-19)
(0.183538 0.222359 7.68176e-20)
(0.182367 0.213213 5.18569e-19)
(0.181082 0.203746 6.14944e-19)
(0.179681 0.193952 -6.05458e-19)
(0.17816 0.18382 5.77866e-20)
(0.176515 0.173343 0)
(0.174743 0.162511 5.45333e-20)
(0.17284 0.151315 4.11278e-19)
(0.170801 0.139744 -4.09236e-19)
(0.168624 0.12779 -1.94805e-19)
(0.166304 0.115441 -1.79603e-19)
(0.163838 0.102688 3.67027e-19)
(0.161221 0.0895199 2.59822e-19)
(0.158451 0.0759268 3.24487e-19)
(0.155523 0.0618982 -3.24402e-19)
(0.152479 0.0476313 -7.45638e-20)
(0.149405 0.0335314 -6.99066e-20)
(0.146354 0.0197995 6.51428e-20)
(0.143329 0.00642957 1.22237e-19)
(0.140334 -0.00658665 3.31061e-19)
(0.137368 -0.0192617 -1.27076e-20)
(0.134442 -0.0316203 -1.97891e-19)
(0.131552 -0.0436893 -4.47153e-20)
(0.1287 -0.0554897 0)
(0.125893 -0.0670322 1.93354e-20)
(0.123128 -0.0783292 -1.73789e-20)
(0.120407 -0.0893867 1.5853e-20)
(0.117742 -0.100194 0)
(0.115147 -0.110721 0)
(0.112629 -0.120927 -1.73772e-19)
(0.110195 -0.1308 6.70567e-21)
(0.10782 -0.140398 1.49745e-19)
(0.105478 -0.149796 0)
(0.103164 -0.159028 0)
(0.10087 -0.168122 8.45535e-20)
(0.0985991 -0.1771 -1.50406e-19)
(0.0963528 -0.18598 7.41749e-20)
(0.0941332 -0.194779 0)
(0.0919429 -0.203517 0)
(0.0897848 -0.21221 -1.60764e-20)
(0.0876622 -0.220872 9.43853e-21)
(0.150918 -0.128901 4.1193e-17)
(-0.0235951 -0.0748974 -6.18923e-17)
(0.00241903 -0.0692436 8.51019e-17)
(0.00312837 -0.0636965 -2.5037e-17)
(0.00286766 -0.0579063 4.55732e-19)
(0.00315852 -0.0520847 0)
(0.00388231 -0.0458812 2.54782e-19)
(0.00499157 -0.0389357 0)
(0.00653405 -0.0308927 0)
(0.00860048 -0.0213668 3.86865e-19)
(0.0113169 -0.00998829 1.87758e-19)
(0.0149172 0.00352418 0)
(0.0195941 0.019571 0)
(0.0257577 0.0391518 3.46586e-19)
(0.0339319 0.0635438 -5.46534e-18)
(0.0442617 0.0930839 4.76252e-18)
(0.0566203 0.126959 -4.56162e-18)
(0.0705512 0.163327 4.42059e-18)
(0.0853415 0.199825 -1.2286e-19)
(0.100162 0.234179 -3.68661e-18)
(0.114277 0.26462 2.86796e-18)
(0.12722 0.29018 3.3359e-19)
(0.13848 0.310543 1.47601e-19)
(0.148113 0.326382 0)
(0.156367 0.338538 0)
(0.163261 0.347647 1.95682e-18)
(0.168971 0.354298 -1.50122e-18)
(0.173702 0.358924 -1.98306e-19)
(0.177612 0.361896 -1.18632e-18)
(0.180842 0.36355 1.35736e-18)
(0.183517 0.364171 0)
(0.185752 0.363984 0)
(0.18764 0.36316 1.33564e-19)
(0.189258 0.361817 1.85455e-18)
(0.190661 0.360042 -3.69005e-18)
(0.191894 0.357894 1.6183e-18)
(0.192986 0.355415 1.00302e-19)
(0.19396 0.352634 -1.88652e-19)
(0.194832 0.349571 1.77338e-19)
(0.195612 0.34624 8.32933e-20)
(0.196308 0.34265 0)
(0.196926 0.338806 7.45634e-20)
(0.197467 0.334714 1.42104e-19)
(0.197935 0.330374 -9.39761e-19)
(0.198329 0.325789 1.02186e-20)
(0.198649 0.320956 1.11096e-18)
(0.198895 0.315877 0)
(0.199065 0.310548 -4.51692e-22)
(0.199157 0.304967 -2.16283e-19)
(0.199169 0.299132 0)
(0.199098 0.293039 9.93538e-20)
(0.198943 0.286685 -7.609e-19)
(0.198701 0.280066 7.42584e-19)
(0.198368 0.273178 0)
(0.197941 0.266014 1.71536e-19)
(0.197417 0.258571 0)
(0.196793 0.250843 -1.59557e-19)
(0.196065 0.242823 -6.09518e-19)
(0.19523 0.234506 5.98457e-19)
(0.194283 0.225884 1.43453e-19)
(0.193222 0.216949 0)
(0.192041 0.207696 -6.60394e-19)
(0.190738 0.198115 1.41618e-18)
(0.189308 0.188197 -1.23362e-20)
(0.187747 0.177935 -2.53098e-19)
(0.18605 0.167318 -1.28234e-19)
(0.184214 0.156338 -8.92013e-19)
(0.182234 0.144984 1.36281e-20)
(0.180106 0.133246 8.35019e-19)
(0.177826 0.121115 1.33433e-21)
(0.175389 0.108579 0)
(0.172793 0.0956293 5.36918e-19)
(0.170032 0.0822542 1.45095e-19)
(0.167105 0.0684441 -6.88691e-19)
(0.16405 0.0543933 0)
(0.160956 0.0405024 0)
(0.157876 0.0269713 -1.39727e-19)
(0.154816 0.0137969 3.74528e-19)
(0.151776 0.000974108 -1.07924e-18)
(0.148764 -0.0115051 8.87115e-19)
(0.145785 -0.0236797 -5.28742e-19)
(0.142833 -0.0355754 -3.23166e-19)
(0.139921 -0.0472032 3.67968e-19)
(0.137052 -0.0585711 -3.57828e-19)
(0.134223 -0.0696919 6.05219e-19)
(0.131434 -0.0805791 -2.88154e-19)
(0.128687 -0.0912422 2.41514e-19)
(0.12599 -0.101677 -4.54264e-19)
(0.123356 -0.111855 1.92714e-20)
(0.120801 -0.12173 1.82017e-20)
(0.118333 -0.131266 1.82673e-19)
(0.115941 -0.140496 0)
(0.113591 -0.14951 1.08256e-19)
(0.11127 -0.15838 -1.98262e-19)
(0.108972 -0.167134 3.83316e-21)
(0.1067 -0.175791 9.5577e-21)
(0.104457 -0.184373 6.34037e-21)
(0.102247 -0.1929 7.45016e-21)
(0.100072 -0.201392 2.72244e-20)
(0.0979364 -0.209866 8.37829e-22)
(0.154791 -0.123701 -1.31542e-18)
(-0.0231901 -0.0710189 -1.31821e-16)
(0.00374283 -0.0671679 1.42965e-19)
(0.00425475 -0.0642722 1.98326e-18)
(0.00373773 -0.0605432 3.58483e-17)
(0.00370926 -0.0566623 2.44163e-17)
(0.00401704 -0.0524986 -3.31678e-19)
(0.00460706 -0.0478205 -1.62075e-17)
(0.00550324 -0.0423703 0)
(0.0067576 -0.035855 1.35012e-17)
(0.00844301 -0.0279815 -1.29899e-17)
(0.0106401 -0.0185335 0)
(0.0134469 -0.00737768 0)
(0.0170677 0.00561008 -3.59142e-19)
(0.0216917 0.020741 3.41621e-19)
(0.0276365 0.0387501 3.30937e-19)
(0.0353538 0.0606807 1.00371e-17)
(0.0450832 0.0870748 -1.00031e-17)
(0.0567619 0.117535 0)
(0.0700821 0.150742 2.67397e-19)
(0.0844696 0.184813 8.41578e-18)
(0.0992298 0.217779 -1.39494e-17)
(0.113618 0.247898 5.90469e-18)
(0.127092 0.273921 3.35871e-19)
(0.139238 0.295387 4.73302e-18)
(0.149782 0.312443 -4.27689e-18)
(0.158882 0.325758 -4.17415e-18)
(0.166704 0.335958 4.13715e-18)
(0.173283 0.343596 5.80626e-22)
(0.178796 0.34911 -3.17702e-18)
(0.18341 0.352838 2.97239e-18)
(0.187259 0.35509 0)
(0.190467 0.356149 0)
(0.193146 0.356257 -2.36902e-18)
(0.195399 0.355607 2.49152e-18)
(0.197312 0.354344 -2.04599e-18)
(0.198954 0.352574 1.91872e-18)
(0.20038 0.350376 -1.55465e-18)
(0.201629 0.347803 -1.95292e-19)
(0.202731 0.344894 1.25479e-20)
(0.203707 0.341677 2.93782e-18)
(0.204573 0.33817 -2.76694e-18)
(0.20534 0.334387 1.14904e-18)
(0.206014 0.330337 0)
(0.206601 0.326026 0)
(0.207104 0.321456 -1.38911e-19)
(0.207524 0.31663 -1.0542e-18)
(0.207862 0.311548 8.89149e-19)
(0.208116 0.306209 -7.18697e-19)
(0.208287 0.300613 1.15989e-18)
(0.208371 0.294756 1.09959e-18)
(0.208366 0.288635 -1.06517e-18)
(0.20827 0.282248 0)
(0.208081 0.275591 -5.79361e-19)
(0.207793 0.268658 7.57109e-19)
(0.207405 0.261445 0)
(0.206913 0.253947 1.73216e-19)
(0.206312 0.246157 1.66758e-19)
(0.205598 0.238071 -3.22902e-19)
(0.204768 0.22968 -1.54717e-19)
(0.203817 0.220977 2.99808e-19)
(0.202741 0.211956 1.13972e-18)
(0.201535 0.202609 -1.4005e-18)
(0.200194 0.192926 1.05714e-18)
(0.198714 0.182898 -1.54697e-18)
(0.197091 0.172518 1.00735e-18)
(0.195319 0.161774 -1.18263e-18)
(0.193394 0.150658 1.16651e-18)
(0.191311 0.139158 -2.20767e-19)
(0.189065 0.127265 -1.04851e-18)
(0.186652 0.114967 8.338e-19)
(0.184068 0.102255 0)
(0.181308 0.0891181 -1.87276e-19)
(0.178369 0.075546 0)
(0.175291 0.0617304 0)
(0.172163 0.0480664 0)
(0.169039 0.0347532 7.25315e-19)
(0.165927 0.0217902 -5.69182e-19)
(0.162824 0.0091747 -2.58317e-19)
(0.15975 -0.00309656 -2.39221e-19)
(0.156699 -0.0150662 1.10446e-19)
(0.153668 -0.0267714 -1.04141e-19)
(0.150676 -0.0382145 -3.71804e-19)
(0.147723 -0.0493999 3.68935e-19)
(0.144808 -0.0603366 3.1604e-19)
(0.141932 -0.0710369 -2.37171e-20)
(0.139095 -0.0815155 -8.13121e-19)
(0.136299 -0.0917848 4.40063e-20)
(0.133549 -0.101844 4.6771e-19)
(0.130858 -0.111672 -4.98378e-20)
(0.128243 -0.121219 2.21192e-20)
(0.125712 -0.130439 -2.78405e-19)
(0.12327 -0.139327 2.69535e-19)
(0.120885 -0.14798 -1.36128e-20)
(0.118528 -0.156503 1.11365e-20)
(0.116204 -0.164932 1.23734e-19)
(0.113911 -0.173292 -2.26022e-19)
(0.111654 -0.181607 1.05831e-19)
(0.109438 -0.189897 4.67445e-20)
(0.107267 -0.198181 -6.77212e-20)
(0.105145 -0.206474 1.93317e-20)
(0.103077 -0.214789 2.09601e-21)
(0.101067 -0.223132 -4.26437e-20)
(0.0991187 -0.231507 4.13146e-20)
(0.157849 -0.118706 8.85734e-17)
(-0.022653 -0.0675405 0)
(0.00493152 -0.064092 1.17592e-16)
(0.00541972 -0.063047 1.08031e-18)
(0.00471133 -0.0609117 -9.28547e-17)
(0.00444279 -0.058538 6.22917e-17)
(0.00442404 -0.0559406 -2.24979e-17)
(0.00460425 -0.0529824 0)
(0.00500444 -0.0494875 1.76416e-17)
(0.00565445 -0.0452353 -3.19029e-17)
(0.00661398 -0.0399828 1.47219e-17)
(0.00794074 -0.0335355 -4.52912e-19)
(0.00970211 -0.0257541 1.37719e-17)
(0.0119766 -0.0165179 -2.61386e-17)
(0.0148503 -0.00574072 1.19242e-17)
(0.0184802 0.00665084 -7.17242e-19)
(0.0230584 0.0208807 1.07198e-17)
(0.0288011 0.037448 -9.59015e-18)
(0.0360964 0.0571926 0)
(0.0452717 0.0807947 9.57232e-18)
(0.0563105 0.108184 -1.01976e-17)
(0.0690339 0.138477 -5.22539e-19)
(0.0830049 0.170195 0)
(0.0976167 0.201605 -8.51529e-19)
(0.112199 0.231096 0)
(0.126138 0.257382 5.05441e-18)
(0.139043 0.279701 2.77615e-19)
(0.15051 0.297872 -4.82569e-18)
(0.160502 0.312314 -2.44512e-19)
(0.169221 0.323594 0)
(0.176717 0.332189 0)
(0.183078 0.338585 0)
(0.188464 0.343108 -2.60384e-18)
(0.193008 0.346027 2.79896e-18)
(0.196829 0.347608 -3.25047e-19)
(0.200039 0.348096 2.42155e-18)
(0.202739 0.347699 -1.99047e-18)
(0.205023 0.346583 2.10643e-18)
(0.206971 0.344876 -1.98121e-18)
(0.208646 0.342671 0)
(0.210098 0.34004 2.15176e-18)
(0.211366 0.337031 -1.6258e-18)
(0.212477 0.333681 1.13305e-18)
(0.213453 0.330016 -1.07981e-18)
(0.214308 0.326053 3.38377e-19)
(0.215053 0.321806 -3.19885e-19)
(0.215694 0.317283 0)
(0.216238 0.312489 -1.23108e-21)
(0.216686 0.307428 0)
(0.217039 0.302099 1.80591e-18)
(0.217297 0.296505 -2.24098e-18)
(0.21746 0.290642 2.35963e-19)
(0.217524 0.284509 -1.79633e-18)
(0.217489 0.278104 1.52813e-18)
(0.217351 0.271422 -2.06862e-19)
(0.217106 0.264459 0)
(0.216751 0.25721 0)
(0.216283 0.249671 -1.45298e-18)
(0.215695 0.241834 3.77495e-19)
(0.214985 0.233694 1.36724e-18)
(0.214147 0.225243 9.63809e-19)
(0.213177 0.216474 -1.26587e-18)
(0.21207 0.20738 0)
(0.21082 0.197951 0)
(0.209422 0.18818 -2.77821e-19)
(0.207871 0.178056 0)
(0.206162 0.16757 -2.60343e-19)
(0.204289 0.156712 7.28507e-19)
(0.202247 0.145471 -9.67988e-19)
(0.200031 0.133837 4.58759e-19)
(0.197636 0.121798 4.40152e-19)
(0.195057 0.109345 4.21878e-19)
(0.192289 0.0964668 0)
(0.189327 0.0831533 3.62504e-19)
(0.186213 0.0695928 -3.78864e-19)
(0.183037 0.0561746 6.6234e-19)
(0.179855 0.0430969 -3.33665e-19)
(0.176673 0.0303626 1.15325e-18)
(0.173493 0.0179727 -6.69013e-20)
(0.170334 0.00592062 1.93673e-19)
(0.16719 -0.00583293 -9.90071e-19)
(0.164061 -0.0173285 7.54242e-19)
(0.160966 -0.0285693 -6.5366e-19)
(0.157905 -0.0395584 0)
(0.154879 -0.0503017 8.99689e-20)
(0.15189 -0.060808 6.31236e-19)
(0.148939 -0.0710902 -1.2509e-19)
(0.146027 -0.081164 -4.7707e-20)
(0.143155 -0.0910434 -5.14393e-19)
(0.140329 -0.100731 -9.35136e-22)
(0.13756 -0.110208 2.67931e-19)
(0.134862 -0.11943 -3.52199e-19)
(0.13225 -0.12834 2.63899e-19)
(0.129728 -0.136914 -2.6942e-19)
(0.127277 -0.14524 1.80999e-19)
(0.124864 -0.15344 -1.67387e-19)
(0.122491 -0.161577 0)
(0.12016 -0.169678 0)
(0.117877 -0.177767 5.81931e-20)
(0.115646 -0.185863 -5.01766e-20)
(0.113472 -0.193983 7.78014e-22)
(0.111361 -0.202141 -2.2889e-22)
(0.109315 -0.210345 -4.1928e-20)
(0.107339 -0.218602 4.06143e-20)
(0.160294 -0.113958 -4.02939e-18)
(-0.0220855 -0.0646189 3.05419e-16)
(0.00594557 -0.0608469 -2.65041e-16)
(0.00652872 -0.0608173 8.92541e-17)
(0.00571926 -0.0597165 0)
(0.00531242 -0.0583717 0)
(0.00508374 -0.056865 -1.75041e-18)
(0.00498043 -0.0551233 -2.25877e-17)
(0.00501441 -0.0530385 3.88038e-17)
(0.00522406 -0.0504654 -1.82449e-17)
(0.00563856 -0.047211 0)
(0.00631481 -0.0430871 1.13588e-23)
(0.00730705 -0.0379481 -4.95833e-19)
(0.008678 -0.0316634 0)
(0.0104955 -0.0241192 8.82711e-19)
(0.0128294 -0.0152196 8.28296e-19)
(0.0157532 -0.00489953 -7.71783e-19)
(0.0193811 0.00688134 -7.14265e-19)
(0.0239148 0.0202619 0)
(0.0294751 0.0355518 0)
(0.0363958 0.0534306 5.97371e-19)
(0.0450696 0.0746506 -4.02122e-22)
(0.0555195 0.0993247 5.49507e-19)
(0.0676583 0.126912 -5.53857e-22)
(0.0811749 0.156295 0)
(0.0955628 0.186028 -4.24026e-19)
(0.110228 0.214641 -1.14018e-18)
(0.124549 0.240856 -3.4083e-19)
(0.138048 0.263713 0)
(0.150413 0.282841 0)
(0.161319 0.2983 -4.89896e-19)
(0.170885 0.310581 4.54477e-19)
(0.179301 0.320136 2.5438e-18)
(0.186549 0.327384 -4.19716e-19)
(0.192753 0.332687 -3.94787e-19)
(0.198052 0.336302 -3.17534e-18)
(0.202559 0.338465 -2.62701e-18)
(0.206376 0.339408 3.09813e-18)
(0.209601 0.33934 -2.30432e-18)
(0.21233 0.338442 2.17381e-18)
(0.21465 0.336859 -5.05872e-19)
(0.216633 0.334703 0)
(0.218339 0.332057 3.98876e-18)
(0.219815 0.328985 -3.35559e-18)
(0.221095 0.325532 -3.91834e-19)
(0.222206 0.321733 3.68866e-19)
(0.223169 0.317611 3.49336e-19)
(0.223999 0.313183 -1.96117e-18)
(0.224704 0.308461 2.50732e-18)
(0.225292 0.303454 0)
(0.225767 0.298166 -5.62326e-19)
(0.226131 0.292598 0)
(0.226385 0.286753 0)
(0.226528 0.28063 -4.8568e-19)
(0.226558 0.274225 0)
(0.226473 0.267537 -4.43199e-19)
(0.22627 0.260561 4.24006e-19)
(0.225945 0.253294 -1.6051e-18)
(0.225494 0.245729 1.95495e-18)
(0.224912 0.23786 1.47299e-18)
(0.224194 0.229682 -1.79933e-18)
(0.223336 0.221187 6.86723e-19)
(0.222332 0.212367 6.39895e-19)
(0.221176 0.203213 -1.27711e-18)
(0.219862 0.193718 1.19578e-18)
(0.218386 0.183872 -1.17907e-18)
(0.21674 0.173665 5.56413e-19)
(0.214918 0.163087 1.05485e-18)
(0.212916 0.152126 -1.04504e-18)
(0.210726 0.140773 -4.91e-19)
(0.208343 0.129016 -9.44381e-19)
(0.205762 0.116844 4.35041e-19)
(0.202976 0.104246 1.24043e-18)
(0.199981 0.0912121 -4.48454e-19)
(0.196817 0.0779272 1.12733e-18)
(0.193578 0.0647739 -1.49948e-18)
(0.190321 0.0519496 3.24993e-21)
(0.187053 0.0394608 -9.20051e-19)
(0.183779 0.027314 1.52177e-18)
(0.180516 0.0155019 0)
(0.177258 0.00397998 0)
(0.174009 -0.00729067 2.42447e-19)
(0.170787 -0.0183128 -1.10512e-18)
(0.167594 -0.0290892 8.74491e-19)
(0.16443 -0.0396249 6.55437e-19)
(0.1613 -0.0499266 -5.65635e-19)
(0.158205 -0.0600045 5.47003e-19)
(0.155147 -0.0698729 -5.49102e-19)
(0.152128 -0.0795489 -6.817e-20)
(0.149152 -0.0890475 6.0005e-20)
(0.146224 -0.0983731 5.30384e-20)
(0.143355 -0.107508 0)
(0.140559 -0.116408 0)
(0.137849 -0.125012 3.28554e-20)
(0.135234 -0.133292 2.77562e-20)
(0.132699 -0.141325 1.61347e-19)
(0.130216 -0.149249 -3.17437e-20)
(0.127782 -0.157145 -1.37098e-19)
(0.125407 -0.165039 6.2107e-20)
(0.123094 -0.172952 -6.3409e-20)
(0.120847 -0.180903 -6.47011e-21)
(0.118671 -0.188907 5.79541e-21)
(0.116569 -0.196976 -3.91345e-20)
(0.114547 -0.205116 -2.17983e-20)
(0.162339 -0.109415 -8.90388e-17)
(-0.0215585 -0.062126 1.5993e-16)
(0.0068031 -0.0577937 -2.8898e-16)
(0.00751542 -0.0582829 1.05467e-16)
(0.00668699 -0.0577698 2.15326e-18)
(0.00623443 -0.0570369 -4.56993e-17)
(0.00590798 -0.0561964 6.71447e-17)
(0.00564871 -0.0552142 -2.6103e-17)
(0.00546993 -0.054031 2.28232e-17)
(0.00538906 -0.052565 -2.00038e-17)
(0.00543478 -0.0506983 0)
(0.00564744 -0.0482771 5.71419e-19)
(0.00607051 -0.0451469 -1.83005e-17)
(0.00676087 -0.0411735 1.70663e-17)
(0.00777726 -0.0362279 -1.00971e-18)
(0.00918019 -0.030191 -1.51933e-17)
(0.0110355 -0.0229603 1.51612e-17)
(0.0134084 -0.0144549 1.41289e-17)
(0.0163658 -0.00462177 -3.30884e-20)
(0.0199884 0.00655452 -1.13961e-17)
(0.0244566 0.0191268 -6.5492e-19)
(0.0298705 0.0333378 6.07693e-19)
(0.0364891 0.0497092 -1.74098e-18)
(0.044689 0.0688987 -5.60592e-19)
(0.0545934 0.0911686 -9.5996e-18)
(0.0661625 0.116261 9.0234e-18)
(0.0791964 0.143371 -1.19733e-21)
(0.0932922 0.171328 8.39546e-19)
(0.107915 0.198808 -7.59854e-19)
(0.122496 0.2246 6.83402e-19)
(0.136494 0.247722 5.49723e-18)
(0.149562 0.26751 -4.94897e-18)
(0.161375 0.283857 4.93521e-19)
(0.171827 0.297049 -1.30412e-21)
(0.181089 0.307488 4.23683e-19)
(0.189238 0.315527 3.98292e-19)
(0.196302 0.321581 -6.3624e-18)
(0.202396 0.325899 4.28816e-20)
(0.207634 0.32868 6.003e-18)
(0.212114 0.330132 0)
(0.21593 0.330459 0)
(0.219172 0.329848 0)
(0.221929 0.328455 -4.64138e-18)
(0.22428 0.326405 3.90869e-18)
(0.226291 0.323797 0)
(0.228017 0.320705 0)
(0.229501 0.317188 -3.61766e-18)
(0.230777 0.313285 2.68088e-18)
(0.231869 0.30903 2.8545e-18)
(0.232796 0.304444 -2.72765e-18)
(0.233573 0.299543 6.39662e-19)
(0.234208 0.294338 0)
(0.234707 0.288836 0)
(0.235075 0.283041 1.0945e-18)
(0.235312 0.276955 2.0662e-18)
(0.235419 0.270578 -1.50387e-18)
(0.235394 0.263907 -4.71255e-19)
(0.235236 0.256941 0)
(0.234939 0.249675 -2.13645e-18)
(0.234501 0.242104 3.19321e-20)
(0.233918 0.234222 1.98408e-18)
(0.233183 0.226024 -1.50785e-18)
(0.232291 0.217501 7.19611e-19)
(0.231237 0.208646 0)
(0.230014 0.19945 0)
(0.228616 0.189904 6.15109e-19)
(0.227036 0.179999 -3.5293e-20)
(0.225268 0.169723 -3.60494e-20)
(0.223305 0.159066 -5.74175e-19)
(0.221139 0.148017 0)
(0.218765 0.136564 1.02195e-18)
(0.216175 0.124696 9.80867e-19)
(0.213362 0.112401 -1.40115e-18)
(0.210323 0.0996707 -8.81987e-19)
(0.207096 0.0866836 0)
(0.203778 0.0738157 -2.32619e-18)
(0.200429 0.0612629 1.88842e-18)
(0.197058 0.049036 3.49878e-21)
(0.193672 0.0371477 -3.23546e-19)
(0.190286 0.0255947 3.03224e-19)
(0.186895 0.0143249 2.84817e-19)
(0.183503 0.00329825 0)
(0.180131 -0.00748688 0)
(0.17678 -0.0180326 0)
(0.173452 -0.0283433 -8.24798e-19)
(0.17015 -0.0384244 -1.3543e-19)
(0.16688 -0.0482849 1.62631e-18)
(0.163644 -0.0579375 -7.69149e-19)
(0.160445 -0.0673994 -4.95239e-19)
(0.157289 -0.0766903 5.61239e-19)
(0.15418 -0.085827 0)
(0.151128 -0.0948137 3.91833e-19)
(0.148144 -0.103631 -3.79651e-19)
(0.145241 -0.112229 0)
(0.14243 -0.120545 -6.16101e-20)
(0.139724 -0.128546 -1.80224e-19)
(0.137104 -0.136324 1.74023e-19)
(0.134547 -0.144034 -1.04948e-19)
(0.132053 -0.151746 1.01869e-19)
(0.129633 -0.159486 0)
(0.127289 -0.167273 -1.48425e-20)
(0.125025 -0.175129 1.10687e-20)
(0.122845 -0.183065 3.59928e-20)
(0.120755 -0.191093 -9.64594e-20)
(0.118758 -0.199216 6.35303e-20)
(0.164113 -0.105041 2.82985e-18)
(-0.0211041 -0.059938 0)
(0.00755262 -0.055032 -1.46222e-16)
(0.00839135 -0.0558402 1.16246e-16)
(0.00760048 -0.0556691 -1.04514e-22)
(0.00716874 -0.055274 -1.65174e-18)
(0.00683013 -0.0547991 0)
(0.00652061 -0.0542373 -2.85567e-17)
(0.00624955 -0.0535599 2.52739e-17)
(0.00602914 -0.052727 0)
(0.00587477 -0.05168 1.23758e-18)
(0.00580626 -0.0503315 0)
(0.00586247 -0.0485649 5.60787e-23)
(0.00608408 -0.0462527 -1.81517e-17)
(0.00652281 -0.0432668 3.549e-17)
(0.00722355 -0.0394774 -1.71014e-17)
(0.00825752 -0.0347629 1.6181e-17)
(0.0096812 -0.02901 -3.24116e-17)
(0.0115594 -0.0221231 1.42984e-17)
(0.0139544 -0.0140312 8.32399e-19)
(0.0169259 -0.00468935 -7.7137e-19)
(0.0205361 0.00590956 -9.90452e-18)
(0.0249262 0.0177756 1.17408e-17)
(0.0302182 0.0310833 1.19998e-18)
(0.0365832 0.046202 1.13145e-18)
(0.0443499 0.0636596 -1.08685e-18)
(0.0537472 0.0838192 1.03843e-18)
(0.0647641 0.106641 0)
(0.0772883 0.131573 -1.15967e-21)
(0.0910113 0.157685 1.26457e-21)
(0.10548 0.183851 -7.57302e-19)
(0.120173 0.208922 0)
(0.134548 0.23192 0)
(0.148175 0.252098 9.40457e-18)
(0.160807 0.269131 -7.0101e-18)
(0.172108 0.283074 0)
(0.182164 0.2943 -6.74103e-18)
(0.191174 0.303125 1.11451e-17)
(0.199093 0.309878 -6.77439e-18)
(0.206002 0.314854 0)
(0.212008 0.318249 -5.98739e-18)
(0.217201 0.320242 5.05461e-18)
(0.221663 0.321016 1.18568e-18)
(0.225478 0.320752 -5.00362e-18)
(0.228732 0.31961 3.69888e-18)
(0.231506 0.317727 0)
(0.233874 0.315212 3.70887e-18)
(0.235895 0.312151 -4.41018e-18)
(0.237619 0.308612 3.29006e-18)
(0.239087 0.304645 -2.35663e-18)
(0.240329 0.300289 -3.66443e-18)
(0.241369 0.295573 2.79994e-18)
(0.242223 0.290517 -6.59461e-19)
(0.242905 0.285135 1.85223e-18)
(0.243424 0.279437 -3.52816e-20)
(0.243784 0.273429 -2.25888e-18)
(0.243988 0.267114 0)
(0.244038 0.260493 -3.02369e-18)
(0.243931 0.253564 2.88983e-18)
(0.243667 0.246325 -1.85543e-18)
(0.243242 0.238772 0)
(0.242652 0.2309 8.33808e-19)
(0.241891 0.222702 2.3806e-18)
(0.240953 0.214172 7.29009e-19)
(0.239833 0.205302 -3.71736e-20)
(0.238524 0.196082 -7.1842e-19)
(0.237018 0.186503 2.62773e-18)
(0.235308 0.176555 -2.58808e-18)
(0.233386 0.166226 -1.21835e-18)
(0.231245 0.155507 2.28711e-18)
(0.228877 0.144383 -1.70262e-18)
(0.226274 0.132845 -2.12211e-18)
(0.223428 0.12088 2.98573e-18)
(0.220333 0.108477 -1.00053e-18)
(0.21703 0.0958114 0)
(0.213617 0.0832506 -8.12839e-19)
(0.210159 0.0709883 8.45175e-19)
(0.206667 0.0590393 -2.57469e-18)
(0.20315 0.0474233 1.78205e-18)
(0.199624 0.0361471 -6.54974e-19)
(0.196084 0.0251515 -1.50376e-18)
(0.192528 0.0143912 7.36829e-20)
(0.188981 0.00386445 7.18476e-20)
(0.185446 -0.00642987 1.04805e-18)
(0.181925 -0.0164952 1.14296e-18)
(0.178423 -0.0263365 -6.59396e-20)
(0.174946 -0.0359622 -6.28167e-19)
(0.1715 -0.0453849 1.83307e-19)
(0.168092 -0.0546216 -6.2893e-19)
(0.164727 -0.063694 7.69437e-19)
(0.161414 -0.0726258 0)
(0.158161 -0.0814357 4.35706e-19)
(0.154979 -0.0901252 -7.47044e-19)
(0.15188 -0.0986667 3.60266e-19)
(0.148874 -0.107002 2.90666e-19)
(0.145967 -0.115057 -2.42606e-19)
(0.143181 -0.1228 2.22759e-20)
(0.140483 -0.130363 -1.00473e-19)
(0.137846 -0.137908 1.01495e-19)
(0.135291 -0.145481 8.28358e-21)
(0.13282 -0.15311 3.66607e-21)
(0.130438 -0.16082 0)
(0.128152 -0.168628 1.6517e-21)
(0.125968 -0.176547 -3.16415e-21)
(0.12389 -0.184584 -4.52452e-21)
(0.121923 -0.19274 1.90648e-19)
(0.120068 -0.201011 -2.00976e-19)
(0.165684 -0.100827 -9.20488e-17)
(-0.02072 -0.058015 0)
(0.00824189 -0.0526037 1.6353e-16)
(0.00921044 -0.0536784 -1.25049e-16)
(0.0084942 -0.0537472 -2.71583e-18)
(0.00812528 -0.0535463 3.70305e-18)
(0.0078289 -0.0532624 4.26197e-17)
(0.00753918 -0.0529141 -3.3898e-17)
(0.00726353 -0.0524926 -1.67676e-18)
(0.00700884 -0.0519811 -2.44483e-17)
(0.00678239 -0.0513541 2.06592e-17)
(0.00659591 -0.0505728 1.20174e-18)
(0.00646728 -0.049577 5.66691e-23)
(0.0064229 -0.0482793 1.13993e-18)
(0.00649176 -0.0465784 1.12912e-18)
(0.00673127 -0.0443686 1.78283e-17)
(0.0071802 -0.041528 -4.18848e-20)
(0.00789163 -0.0379303 -1.58855e-17)
(0.00893383 -0.0334556 0)
(0.0103658 -0.0279933 -9.50207e-19)
(0.0122509 -0.0214506 -1.24512e-17)
(0.0146498 -0.0137589 1.1653e-17)
(0.0176178 -0.00487802 1.23042e-17)
(0.0212079 0.00519661 -1.13241e-17)
(0.0255212 0.016455 0)
(0.0307078 0.028991 1.1865e-18)
(0.0368498 0.0430429 0)
(0.0442271 0.0590346 1.05523e-18)
(0.05315 0.0773803 2.01973e-18)
(0.0636295 0.0981475 -9.54925e-19)
(0.0756173 0.121004 8.91125e-19)
(0.0889018 0.145242 -1.64571e-18)
(0.103108 0.169922 1.50408e-18)
(0.117758 0.194011 -1.22581e-17)
(0.132356 0.216574 9.91695e-18)
(0.146419 0.236864 0)
(0.159641 0.254308 8.04281e-18)
(0.171747 0.268851 -5.52022e-18)
(0.182615 0.280729 0)
(0.192392 0.290227 0)
(0.201148 0.297605 7.46999e-19)
(0.208881 0.3032 0)
(0.215666 0.307193 -6.66888e-19)
(0.221592 0.309737 0)
(0.226734 0.31099 -4.15194e-18)
(0.231166 0.31112 4.52466e-18)
(0.234967 0.310285 -1.06473e-18)
(0.238216 0.308627 1.00027e-18)
(0.240987 0.306261 0)
(0.243345 0.303285 -8.90482e-19)
(0.245345 0.299773 8.40428e-19)
(0.247034 0.295786 7.97454e-19)
(0.248445 0.291369 -3.8283e-21)
(0.249609 0.286557 0)
(0.250547 0.281375 1.9946e-18)
(0.251274 0.275841 -3.95933e-20)
(0.251802 0.269969 -2.43232e-18)
(0.252138 0.263765 1.14105e-18)
(0.252287 0.257236 -1.06987e-18)
(0.252252 0.250382 1.04884e-18)
(0.252032 0.243204 -1.94379e-18)
(0.251624 0.2357 2.80006e-18)
(0.251026 0.227866 -2.68672e-18)
(0.250232 0.219695 -2.52072e-18)
(0.249238 0.211183 1.63707e-18)
(0.248036 0.20232 -7.73658e-19)
(0.246619 0.193097 -2.89882e-18)
(0.244979 0.183506 1.43995e-18)
(0.243108 0.173536 -6.22439e-19)
(0.240997 0.163174 3.87697e-18)
(0.238637 0.152409 1.00982e-20)
(0.236019 0.141229 -9.93657e-21)
(0.233134 0.129621 -2.1563e-18)
(0.229976 0.117574 2.08706e-18)
(0.226584 0.105257 -3.00982e-18)
(0.223062 0.0930273 -1.8067e-18)
(0.219479 0.0810755 2.65545e-18)
(0.21585 0.0694206 -1.58816e-18)
(0.212182 0.058088 3.79632e-18)
(0.2085 0.0471017 -1.11025e-18)
(0.204795 0.0364037 1.30585e-18)
(0.201056 0.0259362 -1.30953e-18)
(0.197311 0.0156941 -1.45171e-18)
(0.193564 0.00567604 8.7048e-19)
(0.189822 -0.004121 7.40256e-19)
(0.186092 -0.0137022 -1.23278e-18)
(0.182384 -0.0230765 -2.1798e-19)
(0.178707 -0.0322576 3.67199e-19)
(0.175071 -0.0412631 -1.63625e-18)
(0.171486 -0.0501134 6.86817e-19)
(0.16796 -0.0588334 1.4667e-19)
(0.1645 -0.0674506 0)
(0.161112 -0.0759827 -5.47584e-20)
(0.157804 -0.0844241 3.51439e-19)
(0.154584 -0.0927367 -3.76197e-19)
(0.151462 -0.100844 -1.98367e-19)
(0.148452 -0.108657 3.95696e-19)
(0.145561 -0.116167 -1.6906e-19)
(0.142758 -0.123541 1.0575e-19)
(0.140031 -0.130943 -9.87992e-20)
(0.1374 -0.138414 -4.67869e-20)
(0.134871 -0.145982 5.84244e-20)
(0.13245 -0.153669 -8.63193e-20)
(0.130147 -0.16149 6.77709e-20)
(0.127966 -0.169453 0)
(0.125912 -0.17756 5.832e-21)
(0.123988 -0.185808 0)
(0.122196 -0.194187 -7.96687e-21)
(0.167077 -0.0967761 9.3445e-17)
(-0.0203922 -0.0563673 -3.59841e-16)