/*--------------------------------*- C++ -*----------------------------------*\
  =========                 |
  \\      /  F ield         | OpenFOAM: The Open Source CFD Toolbox
   \\    /   O peration     | Website:  https://openfoam.org
    \\  /    A nd           | Version:  10
     \\/     M anipulation  |
\*---------------------------------------------------------------------------*/
FoamFile
{
    format      ascii;
    class       volScalarField;
    location    "77000";
    object      nut;
}
// * * * * * * * * * * * * * * * * * * * * * * * * * * * * * * * * * * * * * //

dimensions      [0 2 -1 0 0 0 0];

internalField   nonuniform List<scalar> 
17808
(
2.58035e-06
1.82537e-05
3.17913e-05
4.51105e-05
5.91991e-05
7.38284e-05
8.88995e-05
0.000104363
0.000120172
0.000136347
0.000152906
0.000169776
0.000186987
0.00020454
0.000222438
0.000240684
0.000259283
0.00027824
0.000297558
0.000317245
0.000337305
0.000357746
0.000378572
0.000399791
0.000421409
0.000443434
0.000465871
0.000488728
0.000512013
0.000535732
0.000559893
0.000584504
0.000609571
0.000635103
0.000661108
0.000687592
0.000714564
0.000742032
0.000770004
0.000798486
0.000827488
0.000857017
0.000887081
0.000917687
0.000948843
0.000980556
0.00101284
0.00104569
0.00107912
0.00111314
0.00114775
0.00118296
0.00121878
0.00125521
0.00129226
0.00132993
0.00136823
0.00140717
0.00144674
0.00148696
0.00152782
0.00156934
0.0016115
0.00165432
0.00169778
0.00174189
0.00178665
0.00183205
0.0018781
0.00192478
0.0019721
0.00202005
0.00206861
0.00211779
0.00216756
0.00221793
0.00226886
0.00232035
0.00237239
0.00242494
0.00247799
0.00253152
0.0025855
0.00263989
0.00269468
0.00274982
0.00280527
0.00286101
0.00291698
0.00297313
0.00302943
0.00308581
2.56911e-06
1.85655e-05
3.17771e-05
4.50975e-05
5.91828e-05
7.38088e-05
8.8877e-05
0.000104338
0.000120167
0.000136349
0.000152876
0.000169745
0.000186955
0.000204508
0.000222406
0.000240652
0.000259251
0.000278207
0.000297526
0.000317213
0.000337274
0.000357714
0.000378541
0.00039976
0.000421379
0.000443404
0.000465841
0.000488699
0.000511984
0.000535703
0.000559865
0.000584476
0.000609544
0.000635076
0.000661081
0.000687566
0.000714539
0.000742007
0.000769979
0.000798462
0.000827464
0.000856993
0.000887057
0.000917664
0.00094882
0.000980534
0.00101281
0.00104567
0.0010791
0.00111311
0.00114773
0.00118294
0.00121876
0.00125519
0.00129224
0.00132991
0.00136821
0.00140715
0.00144672
0.00148694
0.00152781
0.00156932
0.00161148
0.0016543
0.00169776
0.00174187
0.00178663
0.00183204
0.00187808
0.00192477
0.00197209
0.00202004
0.0020686
0.00211778
0.00216755
0.00221791
0.00226885
0.00232034
0.00237238
0.00242493
0.00247798
0.00253151
0.00258549
0.00263988
0.00269467
0.00274981
0.00280527
0.002861
0.00291697
0.00297313
0.00302943
0.00308581
2.56311e-06
1.8642e-05
3.1759e-05
4.50808e-05
5.9164e-05
7.37887e-05
8.88556e-05
0.000104316
0.000120144
0.000136325
0.000152851
0.000169719
0.000186929
0.000204482
0.00022238
0.000240626
0.000259225
0.000278181
0.0002975
0.000317187
0.000337248
0.000357688
0.000378515
0.000399735
0.000421353
0.000443378
0.000465816
0.000488674
0.000511959
0.000535679
0.000559841
0.000584452
0.00060952
0.000635053
0.000661058
0.000687543
0.000714516
0.000741985
0.000769957
0.00079844
0.000827443
0.000856972
0.000887037
0.000917643
0.0009488
0.000980514
0.00101279
0.00104565
0.00107908
0.0011131
0.00114771
0.00118292
0.00121874
0.00125517
0.00129222
0.00132989
0.0013682
0.00140713
0.00144671
0.00148693
0.00152779
0.00156931
0.00161147
0.00165428
0.00169775
0.00174186
0.00178662
0.00183202
0.00187807
0.00192476
0.00197208
0.00202002
0.00206859
0.00211777
0.00216754
0.0022179
0.00226884
0.00232033
0.00237237
0.00242492
0.00247798
0.0025315
0.00258548
0.00263988
0.00269466
0.0027498
0.00280526
0.002861
0.00291697
0.00297313
0.00302942
0.0030858
2.56172e-06
1.86234e-05
3.17458e-05
4.50664e-05
5.91476e-05
7.37709e-05
8.88365e-05
0.000104296
0.000120122
0.000136303
0.000152829
0.000169697
0.000186906
0.000204459
0.000222357
0.000240603
0.000259202
0.000278158
0.000297477
0.000317164
0.000337225
0.000357666
0.000378493
0.000399712
0.000421331
0.000443356
0.000465794
0.000488652
0.000511938
0.000535658
0.00055982
0.000584431
0.000609499
0.000635032
0.000661037
0.000687523
0.000714496
0.000741965
0.000769937
0.000798421
0.000827423
0.000856953
0.000887018
0.000917624
0.000948781
0.000980496
0.00101278
0.00104563
0.00107906
0.00111308
0.00114769
0.0011829
0.00121872
0.00125515
0.0012922
0.00132988
0.00136818
0.00140712
0.00144669
0.00148691
0.00152778
0.00156929
0.00161146
0.00165427
0.00169773
0.00174185
0.00178661
0.00183201
0.00187806
0.00192475
0.00197207
0.00202001
0.00206858
0.00211776
0.00216753
0.0022179
0.00226883
0.00232033
0.00237236
0.00242491
0.00247797
0.0025315
0.00258547
0.00263987
0.00269466
0.0027498
0.00280526
0.002861
0.00291697
0.00297313
0.00302942
0.0030858
2.56102e-06
1.86153e-05
3.1738e-05
4.50566e-05
5.91367e-05
7.37589e-05
8.88231e-05
0.000104281
0.000120107
0.000136286
0.000152811
0.000169678
0.000186888
0.00020444
0.000222337
0.000240583
0.000259182
0.000278138
0.000297457
0.000317144
0.000337205
0.000357646
0.000378473
0.000399693
0.000421312
0.000443337
0.000465775
0.000488633
0.000511919
0.000535639
0.000559801
0.000584412
0.000609481
0.000635014
0.000661019
0.000687504
0.000714478
0.000741947
0.000769919
0.000798403
0.000827406
0.000856936
0.000887
0.000917607
0.000948764
0.000980479
0.00101276
0.00104561
0.00107904
0.00111306
0.00114767
0.00118289
0.00121871
0.00125514
0.00129219
0.00132986
0.00136817
0.0014071
0.00144668
0.0014869
0.00152776
0.00156928
0.00161144
0.00165426
0.00169772
0.00174183
0.00178659
0.001832
0.00187805
0.00192474
0.00197206
0.00202
0.00206857
0.00211775
0.00216752
0.00221789
0.00226882
0.00232032
0.00237235
0.00242491
0.00247796
0.00253149
0.00258547
0.00263987
0.00269465
0.0027498
0.00280526
0.00286099
0.00291696
0.00297312
0.00302942
0.0030858
2.56028e-06
1.86129e-05
3.17324e-05
4.50489e-05
5.91285e-05
7.37498e-05
8.8813e-05
0.00010427
0.000120094
0.000136272
0.000152797
0.000169663
0.000186872
0.000204424
0.000222321
0.000240566
0.000259165
0.000278121
0.00029744
0.000317127
0.000337188
0.000357629
0.000378456
0.000399676
0.000421295
0.00044332
0.000465758
0.000488616
0.000511902
0.000535622
0.000559784
0.000584395
0.000609464
0.000634997
0.000661002
0.000687488
0.000714461
0.00074193
0.000769903
0.000798387
0.00082739
0.00085692
0.000886984
0.000917591
0.000948749
0.000980464
0.00101274
0.0010456
0.00107903
0.00111305
0.00114766
0.00118287
0.00121869
0.00125512
0.00129217
0.00132985
0.00136815
0.00140709
0.00144667
0.00148689
0.00152775
0.00156927
0.00161143
0.00165424
0.00169771
0.00174182
0.00178658
0.00183199
0.00187804
0.00192472
0.00197205
0.00201999
0.00206856
0.00211774
0.00216751
0.00221788
0.00226882
0.00232031
0.00237235
0.0024249
0.00247796
0.00253149
0.00258546
0.00263986
0.00269465
0.00274979
0.00280525
0.00286099
0.00291696
0.00297312
0.00302942
0.0030858
2.55987e-06
1.86089e-05
3.17283e-05
4.50423e-05
5.91214e-05
7.37419e-05
8.88042e-05
0.00010426
0.000120084
0.000136261
0.000152784
0.00016965
0.000186858
0.000204409
0.000222306
0.000240552
0.00025915
0.000278106
0.000297425
0.000317112
0.000337172
0.000357613
0.00037844
0.00039966
0.000421279
0.000443304
0.000465742
0.000488601
0.000511886
0.000535606
0.000559768
0.00058438
0.000609448
0.000634982
0.000660987
0.000687473
0.000714446
0.000741915
0.000769888
0.000798372
0.000827375
0.000856905
0.00088697
0.000917577
0.000948734
0.000980449
0.00101273
0.00104558
0.00107901
0.00111303
0.00114765
0.00118286
0.00121868
0.00125511
0.00129216
0.00132984
0.00136814
0.00140708
0.00144666
0.00148688
0.00152774
0.00156925
0.00161142
0.00165423
0.0016977
0.00174181
0.00178657
0.00183198
0.00187803
0.00192471
0.00197204
0.00201998
0.00206855
0.00211773
0.00216751
0.00221787
0.00226881
0.0023203
0.00237234
0.00242489
0.00247795
0.00253148
0.00258546
0.00263986
0.00269465
0.00274979
0.00280525
0.00286099
0.00291696
0.00297312
0.00302942
0.0030858
2.55982e-06
1.86051e-05
3.17252e-05
4.50368e-05
5.91154e-05
7.37351e-05
8.87967e-05
0.000104252
0.000120074
0.000136251
0.000152773
0.000169639
0.000186846
0.000204397
0.000222293
0.000240538
0.000259137
0.000278092
0.000297411
0.000317098
0.000337158
0.000357599
0.000378426
0.000399646
0.000421265
0.00044329
0.000465728
0.000488586
0.000511872
0.000535592
0.000559754
0.000584366
0.000609435
0.000634968
0.000660973
0.000687459
0.000714433
0.000741902
0.000769874
0.000798358
0.000827362
0.000856892
0.000886956
0.000917564
0.000948721
0.000980436
0.00101272
0.00104557
0.001079
0.00111302
0.00114763
0.00118285
0.00121867
0.0012551
0.00129215
0.00132982
0.00136813
0.00140707
0.00144664
0.00148686
0.00152773
0.00156924
0.00161141
0.00165422
0.00169769
0.0017418
0.00178656
0.00183197
0.00187802
0.0019247
0.00197203
0.00201997
0.00206854
0.00211772
0.0021675
0.00221786
0.0022688
0.0023203
0.00237233
0.00242489
0.00247794
0.00253147
0.00258545
0.00263985
0.00269464
0.00274979
0.00280525
0.00286099
0.00291696
0.00297312
0.00302942
0.0030858
2.55994e-06
1.86027e-05
3.17231e-05
4.50324e-05
5.91103e-05
7.37292e-05
8.87903e-05
0.000104245
0.000120067
0.000136242
0.000152764
0.000169629
0.000186836
0.000204386
0.000222282
0.000240527
0.000259124
0.00027808
0.000297398
0.000317085
0.000337146
0.000357586
0.000378413
0.000399633
0.000421252
0.000443277
0.000465715
0.000488573
0.000511859
0.000535579
0.000559741
0.000584353
0.000609422
0.000634955
0.000660961
0.000687446
0.00071442
0.000741889
0.000769862
0.000798346
0.000827349
0.000856879
0.000886944
0.000917551
0.000948709
0.000980424
0.0010127
0.00104556
0.00107899
0.00111301
0.00114762
0.00118284
0.00121865
0.00125509
0.00129214
0.00132981
0.00136812
0.00140706
0.00144663
0.00148685
0.00152772
0.00156923
0.0016114
0.00165421
0.00169768
0.00174179
0.00178655
0.00183196
0.00187801
0.0019247
0.00197202
0.00201997
0.00206853
0.00211771
0.00216749
0.00221786
0.00226879
0.00232029
0.00237233
0.00242488
0.00247794
0.00253147
0.00258545
0.00263985
0.00269464
0.00274978
0.00280524
0.00286098
0.00291696
0.00297312
0.00302942
0.0030858
2.56014e-06
1.86012e-05
3.17219e-05
4.50289e-05
5.91059e-05
7.37242e-05
8.87848e-05
0.000104239
0.00012006
0.000136235
0.000152756
0.00016962
0.000186827
0.000204376
0.000222272
0.000240516
0.000259114
0.000278069
0.000297387
0.000317074
0.000337134
0.000357575
0.000378401
0.000399621
0.00042124
0.000443265
0.000465703
0.000488561
0.000511847
0.000535567
0.000559729
0.000584341
0.00060941
0.000634943
0.000660949
0.000687435
0.000714408
0.000741877
0.00076985
0.000798334
0.000827338
0.000856868
0.000886933
0.00091754
0.000948698
0.000980413
0.00101269
0.00104555
0.00107898
0.001113
0.00114761
0.00118282
0.00121864
0.00125508
0.00129213
0.0013298
0.00136811
0.00140705
0.00144662
0.00148684
0.00152771
0.00156922
0.00161139
0.0016542
0.00169767
0.00174178
0.00178654
0.00183195
0.001878
0.00192469
0.00197201
0.00201996
0.00206853
0.00211771
0.00216748
0.00221785
0.00226879
0.00232028
0.00237232
0.00242488
0.00247793
0.00253147
0.00258545
0.00263985
0.00269464
0.00274978
0.00280524
0.00286098
0.00291696
0.00297312
0.00302942
0.00308581
2.56041e-06
1.86001e-05
3.17213e-05
4.50262e-05
5.91021e-05
7.37198e-05
8.87799e-05
0.000104233
0.000120054
0.000136228
0.000152749
0.000169613
0.000186818
0.000204368
0.000222263
0.000240507
0.000259104
0.000278059
0.000297377
0.000317063
0.000337124
0.000357564
0.000378391
0.00039961
0.000421229
0.000443254
0.000465692
0.00048855
0.000511836
0.000535556
0.000559718
0.00058433
0.000609399
0.000634932
0.000660938
0.000687424
0.000714397
0.000741867
0.000769839
0.000798324
0.000827327
0.000856857
0.000886922
0.00091753
0.000948687
0.000980403
0.00101268
0.00104554
0.00107897
0.00111299
0.0011476
0.00118281
0.00121863
0.00125507
0.00129212
0.00132979
0.0013681
0.00140704
0.00144662
0.00148684
0.0015277
0.00156921
0.00161138
0.00165419
0.00169766
0.00174177
0.00178653
0.00183194
0.00187799
0.00192468
0.001972
0.00201995
0.00206852
0.0021177
0.00216748
0.00221784
0.00226878
0.00232028
0.00237232
0.00242487
0.00247793
0.00253146
0.00258544
0.00263984
0.00269463
0.00274978
0.00280524
0.00286098
0.00291696
0.00297312
0.00302942
0.00308581
2.56073e-06
1.85995e-05
3.17213e-05
4.50241e-05
5.90988e-05
7.37159e-05
8.87756e-05
0.000104229
0.000120049
0.000136223
0.000152743
0.000169606
0.000186811
0.00020436
0.000222255
0.000240498
0.000259095
0.00027805
0.000297368
0.000317054
0.000337114
0.000357554
0.000378381
0.0003996
0.000421219
0.000443244
0.000465682
0.00048854
0.000511826
0.000535546
0.000559708
0.00058432
0.000609388
0.000634922
0.000660928
0.000687413
0.000714387
0.000741856
0.000769829
0.000798314
0.000827317
0.000856847
0.000886912
0.00091752
0.000948678
0.000980393
0.00101267
0.00104553
0.00107896
0.00111298
0.00114759
0.00118281
0.00121863
0.00125506
0.00129211
0.00132979
0.00136809
0.00140703
0.00144661
0.00148683
0.00152769
0.00156921
0.00161137
0.00165418
0.00169765
0.00174176
0.00178652
0.00183193
0.00187798
0.00192467
0.00197199
0.00201994
0.00206851
0.00211769
0.00216747
0.00221784
0.00226878
0.00232027
0.00237231
0.00242487
0.00247793
0.00253146
0.00258544
0.00263984
0.00269463
0.00274978
0.00280524
0.00286098
0.00291696
0.00297312
0.00302942
0.00308581
2.56107e-06
1.85992e-05
3.17218e-05
4.50227e-05
5.90961e-05
7.37125e-05
8.87718e-05
0.000104224
0.000120044
0.000136218
0.000152737
0.0001696
0.000186805
0.000204353
0.000222247
0.000240491
0.000259087
0.000278042
0.000297359
0.000317045
0.000337105
0.000357545
0.000378372
0.000399591
0.000421209
0.000443234
0.000465672
0.00048853
0.000511816
0.000535536
0.000559698
0.00058431
0.000609379
0.000634912
0.000660918
0.000687404
0.000714378
0.000741847
0.00076982
0.000798304
0.000827308
0.000856838
0.000886903
0.000917511
0.000948668
0.000980384
0.00101266
0.00104552
0.00107895
0.00111297
0.00114758
0.0011828
0.00121862
0.00125505
0.0012921
0.00132978
0.00136808
0.00140702
0.0014466
0.00148682
0.00152769
0.0015692
0.00161136
0.00165418
0.00169764
0.00174175
0.00178652
0.00183192
0.00187797
0.00192466
0.00197199
0.00201994
0.00206851
0.00211769
0.00216747
0.00221783
0.00226877
0.00232027
0.00237231
0.00242487
0.00247792
0.00253146
0.00258544
0.00263984
0.00269463
0.00274978
0.00280524
0.00286098
0.00291696
0.00297312
0.00302943
0.00308581
2.56141e-06
1.85993e-05
3.17227e-05
4.50218e-05
5.90939e-05
7.37096e-05
8.87683e-05
0.00010422
0.00012004
0.000136213
0.000152732
0.000169594
0.000186799
0.000204347
0.000222241
0.000240484
0.00025908
0.000278034
0.000297352
0.000317037
0.000337097
0.000357537
0.000378363
0.000399582
0.000421201
0.000443226
0.000465663
0.000488522
0.000511807
0.000535527
0.000559689
0.000584301
0.00060937
0.000634903
0.000660909
0.000687395
0.000714369
0.000741838
0.000769811
0.000798295
0.000827299
0.000856829
0.000886894
0.000917502
0.00094866
0.000980375
0.00101266
0.00104551
0.00107894
0.00111296
0.00114758
0.00118279
0.00121861
0.00125504
0.00129209
0.00132977
0.00136807
0.00140701
0.00144659
0.00148681
0.00152768
0.00156919
0.00161136
0.00165417
0.00169763
0.00174175
0.00178651
0.00183192
0.00187797
0.00192466
0.00197198
0.00201993
0.0020685
0.00211768
0.00216746
0.00221783
0.00226877
0.00232027
0.0023723
0.00242486
0.00247792
0.00253145
0.00258544
0.00263984
0.00269463
0.00274978
0.00280524
0.00286098
0.00291696
0.00297313
0.00302943
0.00308582
2.56175e-06
1.85996e-05
3.17239e-05
4.50214e-05
5.90921e-05
7.3707e-05
8.87653e-05
0.000104217
0.000120036
0.000136209
0.000152728
0.000169589
0.000186793
0.000204341
0.000222235
0.000240477
0.000259074
0.000278028
0.000297345
0.00031703
0.00033709
0.000357529
0.000378355
0.000399574
0.000421193
0.000443218
0.000465655
0.000488513
0.000511799
0.000535519
0.000559681
0.000584293
0.000609361
0.000634895
0.0006609
0.000687386
0.00071436
0.00074183
0.000769803
0.000798287
0.00082729
0.000856821
0.000886886
0.000917494
0.000948652
0.000980367
0.00101265
0.0010455
0.00107893
0.00111295
0.00114757
0.00118278
0.0012186
0.00125503
0.00129209
0.00132976
0.00136807
0.00140701
0.00144659
0.00148681
0.00152767
0.00156919
0.00161135
0.00165416
0.00169763
0.00174174
0.0017865
0.00183191
0.00187796
0.00192465
0.00197198
0.00201993
0.0020685
0.00211768
0.00216746
0.00221782
0.00226876
0.00232026
0.0023723
0.00242486
0.00247792
0.00253145
0.00258544
0.00263984
0.00269463
0.00274978
0.00280524
0.00286099
0.00291696
0.00297313
0.00302943
0.00308582
2.56208e-06
1.86e-05
3.17255e-05
4.50214e-05
5.90908e-05
7.37048e-05
8.87626e-05
0.000104214
0.000120033
0.000136205
0.000152724
0.000169585
0.000186789
0.000204336
0.000222229
0.000240472
0.000259068
0.000278021
0.000297338
0.000317023
0.000337083
0.000357522
0.000378348
0.000399567
0.000421186
0.00044321
0.000465648
0.000488506
0.000511791
0.000535511
0.000559673
0.000584285
0.000609353
0.000634887
0.000660893
0.000687378
0.000714352
0.000741822
0.000769795
0.000798279
0.000827283
0.000856813
0.000886879
0.000917486
0.000948644
0.00098036
0.00101264
0.00104549
0.00107893
0.00111295
0.00114756
0.00118277
0.00121859
0.00125503
0.00129208
0.00132976
0.00136806
0.001407
0.00144658
0.0014868
0.00152767
0.00156918
0.00161134
0.00165416
0.00169762
0.00174173
0.0017865
0.00183191
0.00187796
0.00192465
0.00197197
0.00201992
0.00206849
0.00211767
0.00216745
0.00221782
0.00226876
0.00232026
0.0023723
0.00242486
0.00247792
0.00253145
0.00258544
0.00263984
0.00269463
0.00274978
0.00280524
0.00286099
0.00291696
0.00297313
0.00302943
0.00308582
2.5624e-06
1.86006e-05
3.17273e-05
4.50219e-05
5.90899e-05
7.3703e-05
8.87602e-05
0.000104211
0.00012003
0.000136202
0.00015272
0.000169581
0.000186784
0.000204331
0.000222224
0.000240466
0.000259062
0.000278016
0.000297332
0.000317017
0.000337077
0.000357516
0.000378342
0.000399561
0.000421179
0.000443203
0.000465641
0.000488499
0.000511784
0.000535504
0.000559666
0.000584277
0.000609346
0.000634879
0.000660885
0.000687371
0.000714345
0.000741814
0.000769787
0.000798272
0.000827275
0.000856806
0.000886871
0.000917479
0.000948637
0.000980353
0.00101263
0.00104549
0.00107892
0.00111294
0.00114755
0.00118277
0.00121859
0.00125502
0.00129207
0.00132975
0.00136806
0.001407
0.00144657
0.0014868
0.00152766
0.00156917
0.00161134
0.00165415
0.00169762
0.00174173
0.00178649
0.0018319
0.00187795
0.00192464
0.00197197
0.00201992
0.00206849
0.00211767
0.00216745
0.00221782
0.00226876
0.00232026
0.0023723
0.00242486
0.00247792
0.00253145
0.00258544
0.00263984
0.00269463
0.00274978
0.00280525
0.00286099
2.5627e-06
1.86014e-05
3.17292e-05
4.50227e-05
5.90894e-05
7.37016e-05
8.87581e-05
0.000104209
0.000120027
0.000136199
0.000152716
0.000169577
0.00018678
0.000204327
0.00022222
0.000240462
0.000259057
0.000278011
0.000297327
0.000317012
0.000337071
0.00035751
0.000378336
0.000399554
0.000421173
0.000443197
0.000465634
0.000488492
0.000511777
0.000535497
0.000559659
0.000584271
0.000609339
0.000634872
0.000660878
0.000687364
0.000714338
0.000741807
0.00076978
0.000798265
0.000827268
0.000856799
0.000886864
0.000917472
0.00094863
0.000980346
0.00101263
0.00104548
0.00107891
0.00111293
0.00114755
0.00118276
0.00121858
0.00125502
0.00129207
0.00132974
0.00136805
0.00140699
0.00144657
0.00148679
0.00152766
0.00156917
0.00161133
0.00165415
0.00169761
0.00174172
0.00178649
0.0018319
0.00187795
0.00192464
0.00197196
0.00201992
0.00206849
0.00211767
0.00216745
0.00221782
0.00226876
0.00232026
0.0023723
0.00242486
0.00247792
0.00253145
0.00258544
0.00263984
0.00269464
0.00274978
0.00280525
0.00286099
2.56298e-06
1.86023e-05
3.17313e-05
4.50238e-05
5.90893e-05
7.37005e-05
8.87564e-05
0.000104207
0.000120025
0.000136196
0.000152713
0.000169574
0.000186777
0.000204323
0.000222216
0.000240457
0.000259053
0.000278006
0.000297322
0.000317007
0.000337066
0.000357505
0.00037833
0.000399549
0.000421167
0.000443191
0.000465628
0.000488486
0.000511771
0.000535491
0.000559653
0.000584264
0.000609333
0.000634866
0.000660872
0.000687358
0.000714331
0.000741801
0.000769774
0.000798258
0.000827262
0.000856793
0.000886858
0.000917466
0.000948624
0.00098034
0.00101262
0.00104547
0.00107891
0.00111293
0.00114754
0.00118276
0.00121858
0.00125501
0.00129206
0.00132974
0.00136805
0.00140699
0.00144656
0.00148679
0.00152765
0.00156917
0.00161133
0.00165414
0.00169761
0.00174172
0.00178648
0.00183189
0.00187794
0.00192464
0.00197196
0.00201991
0.00206848
0.00211766
0.00216745
0.00221781
0.00226876
0.00232026
0.0023723
0.00242486
0.00247792
0.00253145
0.00258544
0.00263984
0.00269464
0.00274979
0.00280525
0.00286099
2.56325e-06
1.86033e-05
3.17336e-05
4.50253e-05
5.90895e-05
7.36998e-05
8.8755e-05
0.000104205
0.000120022
0.000136193
0.000152711
0.000169571
0.000186773
0.00020432
0.000222212
0.000240453
0.000259048
0.000278001
0.000297317
0.000317002
0.000337061
0.0003575
0.000378325
0.000399544
0.000421161
0.000443186
0.000465623
0.00048848
0.000511765
0.000535485
0.000559647
0.000584258
0.000609327
0.00063486
0.000660866
0.000687352
0.000714325
0.000741795
0.000769768
0.000798252
0.000827256
0.000856787
0.000886852
0.00091746
0.000948618
0.000980334
0.00101262
0.00104547
0.0010789
0.00111292
0.00114754
0.00118275
0.00121857
0.00125501
0.00129206
0.00132974
0.00136804
0.00140698
0.00144656
0.00148678
0.00152765
0.00156916
0.00161132
0.00165414
0.0016976
0.00174172
0.00178648
0.00183189
0.00187794
0.00192463
0.00197196
0.00201991
0.00206848
0.00211766
0.00216744
0.00221781
0.00226876
0.00232026
0.0023723
0.00242486
0.00247792
0.00253146
0.00258544
0.00263985
0.00269464
2.56349e-06
1.86043e-05
3.17359e-05
4.5027e-05
5.90901e-05
7.36993e-05
8.87538e-05
0.000104203
0.00012002
0.000136191
0.000152708
0.000169568
0.00018677
0.000204316
0.000222208
0.00024045
0.000259045
0.000277997
0.000297313
0.000316998
0.000337056
0.000357495
0.000378321
0.000399539
0.000421157
0.000443181
0.000465618
0.000488475
0.00051176
0.00053548
0.000559642
0.000584253
0.000609321
0.000634855
0.00066086
0.000687346
0.00071432
0.000741789
0.000769762
0.000798247
0.00082725
0.000856781
0.000886847
0.000917455
0.000948613
0.000980329
0.00101261
0.00104546
0.0010789
0.00111292
0.00114753
0.00118275
0.00121857
0.001255
0.00129205
0.00132973
0.00136804
0.00140698
0.00144656
0.00148678
0.00152764
0.00156916
0.00161132
0.00165414
0.0016976
0.00174171
0.00178648
0.00183189
0.00187794
0.00192463
0.00197196
0.00201991
0.00206848
0.00211766
0.00216744
0.00221781
0.00226876
0.00232026
0.0023723
0.00242486
0.00247792
0.00253146
0.00258544
0.00263985
0.00269464
2.56372e-06
1.86055e-05
3.17382e-05
4.50289e-05
5.9091e-05
7.36992e-05
8.8753e-05
0.000104202
0.000120019
0.000136189
0.000152706
0.000169566
0.000186768
0.000204313
0.000222205
0.000240446
0.000259041
0.000277994
0.000297309
0.000316994
0.000337052
0.000357491
0.000378316
0.000399534
0.000421152
0.000443176
0.000465613
0.000488471
0.000511755
0.000535475
0.000559637
0.000584248
0.000609316
0.000634849
0.000660855
0.000687341
0.000714314
0.000741784
0.000769757
0.000798241
0.000827245
0.000856776
0.000886841
0.00091745
0.000948608
0.000980324
0.00101261
0.00104546
0.00107889
0.00111291
0.00114753
0.00118274
0.00121856
0.001255
0.00129205
0.00132973
0.00136803
0.00140697
0.00144655
0.00148677
0.00152764
0.00156916
0.00161132
0.00165413
0.0016976
0.00174171
0.00178647
0.00183188
0.00187794
0.00192463
0.00197195
0.00201991
0.00206848
0.00211766
0.00216744
0.00221781
0.00226876
0.00232026
0.0023723
0.00242486
0.00247792
0.00253146
0.00258545
0.00263985
0.00269465
2.56393e-06
1.86067e-05
3.17406e-05
4.5031e-05
5.90921e-05
7.36994e-05
8.87524e-05
0.000104201
0.000120017
0.000136187
0.000152704
0.000169563
0.000186765
0.000204311
0.000222202
0.000240443
0.000259038
0.00027799
0.000297306
0.00031699
0.000337049
0.000357487
0.000378312
0.00039953
0.000421148
0.000443172
0.000465609
0.000488466
0.000511751
0.000535471
0.000559632
0.000584243
0.000609312
0.000634845
0.00066085
0.000687336
0.00071431
0.000741779
0.000769752
0.000798237
0.00082724
0.000856771
0.000886837
0.000917445
0.000948603
0.000980319
0.0010126
0.00104545
0.00107889
0.00111291
0.00114752
0.00118274
0.00121856
0.00125499
0.00129205
0.00132972
0.00136803
0.00140697
0.00144655
0.00148677
0.00152764
0.00156915
0.00161132
0.00165413
0.00169759
0.00174171
0.00178647
0.00183188
0.00187794
0.00192463
0.00197195
0.00201991
0.00206848
0.00211766
0.00216744
0.00221782
0.00226876
0.00232026
0.0023723
0.00242487
0.00247793
0.00253147
0.00258545
0.00263986
0.00269465
2.56413e-06
1.86079e-05
3.17431e-05
4.50333e-05
5.90936e-05
7.37e-05
8.87522e-05
0.0001042
0.000120016
0.000136186
0.000152702
0.000169561
0.000186763
0.000204308
0.0002222
0.000240441
0.000259035
0.000277987
0.000297303
0.000316987
0.000337045
0.000357484
0.000378309
0.000399527
0.000421144
0.000443168
0.000465605
0.000488462
0.000511747
0.000535466
0.000559628
0.000584239
0.000609307
0.00063484
0.000660846
0.000687332
0.000714305
0.000741775
0.000769748
0.000798232
0.000827236
0.000856767
0.000886832
0.000917441
0.000948599
0.000980315
0.0010126
0.00104545
0.00107888
0.00111291
0.00114752
0.00118273
0.00121856
0.00125499
0.00129204
0.00132972
0.00136803
0.00140697
0.00144655
0.00148677
0.00152764
0.00156915
0.00161131
0.00165413
0.00169759
0.00174171
0.00178647
0.00183188
0.00187793
0.00192463
0.00197195
0.00201991
0.00206848
0.00211766
0.00216745
0.00221782
0.00226876
0.00232026
0.00237231
0.00242487
0.00247793
0.00253147
0.00258546
0.00263986
0.00269466
2.56431e-06
1.86092e-05
3.17455e-05
4.50357e-05
5.90953e-05
7.37008e-05
8.87522e-05
0.000104199
0.000120015
0.000136184
0.0001527
0.000169559
0.000186761
0.000204306
0.000222197
0.000240438
0.000259032
0.000277984
0.0002973
0.000316984
0.000337042
0.000357481
0.000378305
0.000399523
0.000421141
0.000443165
0.000465601
0.000488459
0.000511743
0.000535463
0.000559624
0.000584235
0.000609304
0.000634837
0.000660842
0.000687328
0.000714301
0.000741771
0.000769744
0.000798228
0.000827232
0.000856763
0.000886829
0.000917437
0.000948595
0.000980311
0.00101259
0.00104545
0.00107888
0.0011129
0.00114752
0.00118273
0.00121855
0.00125499
0.00129204
0.00132972
0.00136803
0.00140697
0.00144655
0.00148677
0.00152763
0.00156915
0.00161131
0.00165413
0.00169759
0.00174171
0.00178647
0.00183188
0.00187793
0.00192463
0.00197195
0.00201991
0.00206848
0.00211766
0.00216745
0.00221782
0.00226876
0.00232027
0.00237231
0.00242487
0.00247794
0.00253148
0.00258546
0.00263987
0.00269466
2.56448e-06
1.86105e-05
3.17479e-05
4.50382e-05
5.90972e-05
7.37018e-05
8.87525e-05
0.000104199
0.000120014
0.000136183
0.000152699
0.000169558
0.000186759
0.000204304
0.000222195
0.000240436
0.00025903
0.000277982
0.000297297
0.000316981
0.000337039
0.000357478
0.000378302
0.00039952
0.000421138
0.000443161
0.000465598
0.000488455
0.00051174
0.000535459
0.000559621
0.000584232
0.0006093
0.000634833
0.000660839
0.000687324
0.000714298
0.000741767
0.00076974
0.000798225
0.000827228
0.000856759
0.000886825
0.000917433
0.000948592
0.000980308
0.00101259
0.00104544
0.00107888
0.0011129
0.00114751
0.00118273
0.00121855
0.00125499
0.00129204
0.00132972
0.00136802
0.00140697
0.00144654
0.00148677
0.00152763
0.00156915
0.00161131
0.00165413
0.00169759
0.00174171
0.00178647
0.00183188
0.00187793
0.00192463
0.00197195
0.00201991
0.00206848
0.00211767
0.00216745
0.00221782
0.00226877
0.00232027
0.00237231
0.00242488
0.00247794
0.00253148
0.00258547
0.00263988
0.00269467
2.56464e-06
1.86119e-05
3.17504e-05
4.50409e-05
5.90993e-05
7.37032e-05
8.87531e-05
0.000104199
0.000120013
0.000136182
0.000152698
0.000169556
0.000186758
0.000204302
0.000222193
0.000240434
0.000259027
0.00027798
0.000297295
0.000316978
0.000337037
0.000357475
0.0003783
0.000399518
0.000421135
0.000443158
0.000465595
0.000488452
0.000511737
0.000535456
0.000559618
0.000584229
0.000609297
0.00063483
0.000660835
0.000687321
0.000714295
0.000741764
0.000769737
0.000798222
0.000827225
0.000856756
0.000886822
0.00091743
0.000948589
0.000980305
0.00101259
0.00104544
0.00107888
0.0011129
0.00114751
0.00118273
0.00121855
0.00125498
0.00129204
0.00132971
0.00136802
0.00140696
0.00144654
0.00148677
0.00152763
0.00156915
0.00161131
0.00165412
0.00169759
0.00174171
0.00178647
0.00183188
0.00187793
0.00192463
0.00197196
0.00201991
0.00206848
0.00211767
0.00216745
0.00221783
0.00226877
0.00232028
0.00237232
0.00242489
0.00247795
0.00253149
0.00258548
0.00263988
0.00269468
2.56479e-06
1.86133e-05
3.17527e-05
4.50436e-05
5.91016e-05
7.37048e-05
8.87539e-05
0.000104199
0.000120013
0.000136182
0.000152697
0.000169555
0.000186756
0.000204301
0.000222192
0.000240432
0.000259026
0.000277977
0.000297292
0.000316976
0.000337034
0.000357472
0.000378297
0.000399515
0.000421132
0.000443156
0.000465593
0.00048845
0.000511734
0.000535454
0.000559615
0.000584226
0.000609294
0.000634827
0.000660833
0.000687318
0.000714292
0.000741761
0.000769734
0.000798219
0.000827223
0.000856753
0.000886819
0.000917428
0.000948586
0.000980303
0.00101258
0.00104544
0.00107887
0.00111289
0.00114751
0.00118272
0.00121855
0.00125498
0.00129204
0.00132971
0.00136802
0.00140696
0.00144654
0.00148676
0.00152763
0.00156915
0.00161131
0.00165412
0.00169759
0.00174171
0.00178647
0.00183188
0.00187794
0.00192463
0.00197196
0.00201991
0.00206849
0.00211767
0.00216746
0.00221783
0.00226878
0.00232028
0.00237233
0.00242489
0.00247796
0.0025315
0.00258549
0.00263989
0.00269469
2.56493e-06
1.86147e-05
3.17551e-05
4.50464e-05
5.91041e-05
7.37066e-05
8.8755e-05
0.0001042
0.000120013
0.000136181
0.000152696
0.000169554
0.000186755
0.000204299
0.00022219
0.00024043
0.000259024
0.000277976
0.000297291
0.000316974
0.000337032
0.00035747
0.000378295
0.000399513
0.00042113
0.000443154
0.00046559
0.000488447
0.000511732
0.000535451
0.000559613
0.000584224
0.000609292
0.000634825
0.00066083
0.000687316
0.000714289
0.000741759
0.000769732
0.000798216
0.00082722
0.000856751
0.000886817
0.000917425
0.000948584
0.0009803
0.00101258
0.00104544
0.00107887
0.00111289
0.00114751
0.00118272
0.00121855
0.00125498
0.00129203
0.00132971
0.00136802
0.00140696
0.00144654
0.00148676
0.00152763
0.00156915
0.00161131
0.00165413
0.00169759
0.00174171
0.00178647