/*--------------------------------*- C++ -*----------------------------------*\
  =========                 |
  \\      /  F ield         | OpenFOAM: The Open Source CFD Toolbox
   \\    /   O peration     | Website:  https://openfoam.org
    \\  /    A nd           | Version:  10
     \\/     M anipulation  |
\*---------------------------------------------------------------------------*/
FoamFile
{
    format      ascii;
    class       volScalarField;
    location    "77000";
    object      p;
}
// * * * * * * * * * * * * * * * * * * * * * * * * * * * * * * * * * * * * * //

dimensions      [0 2 -2 0 0 0 0];

internalField   nonuniform List<scalar> 
17808
(
8.26713
8.30423
8.32724
8.33998
8.35003
8.35642
8.36049
8.36266
8.36337
8.3629
8.36144
8.35915
8.35614
8.35249
8.34828
8.34354
8.33833
8.33267
8.32659
8.3201
8.31323
8.30598
8.29837
8.2904
8.28209
8.27343
8.26443
8.25509
8.24542
8.23542
8.22508
8.21441
8.2034
8.19206
8.18038
8.16837
8.15601
8.14331
8.13026
8.11687
8.10312
8.08902
8.07455
8.05972
8.04453
8.02895
8.01301
7.99667
7.97995
7.96284
7.94533
7.92741
7.90909
7.89035
7.87118
7.85159
7.83156
7.81109
7.79017
7.7688
7.74697
7.72466
7.70188
7.67861
7.65485
7.63059
7.60583
7.58054
7.55473
7.52839
7.5015
7.47407
7.44607
7.41751
7.38836
7.35863
7.3283
7.29737
7.26582
7.23364
7.20082
7.16735
7.13323
7.09844
7.06297
7.0268
6.98994
6.95236
6.91406
6.87502
6.83523
6.79468
8.36102
8.36864
8.3647
8.36386
8.36516
8.36572
8.36599
8.36568
8.36474
8.36316
8.36096
8.35816
8.35482
8.35094
8.34658
8.34174
8.33647
8.33078
8.32469
8.31821
8.31136
8.30414
8.29656
8.28864
8.28037
8.27176
8.26281
8.25352
8.24391
8.23395
8.22367
8.21305
8.2021
8.19081
8.17918
8.16721
8.15491
8.14226
8.12926
8.11591
8.1022
8.08814
8.07372
8.05893
8.04377
8.02824
8.01233
7.99603
7.97934
7.96226
7.94478
7.9269
7.9086
7.88989
7.87075
7.85118
7.83118
7.81073
7.78984
7.76849
7.74667
7.72439
7.70162
7.67838
7.65463
7.63039
7.60564
7.58037
7.55457
7.52824
7.50137
7.47395
7.44596
7.41741
7.38827
7.35855
7.32823
7.29731
7.26576
7.23359
7.20078
7.16732
7.1332
7.09842
7.06295
7.0268
6.98994
6.95236
6.91407
6.87503
6.83525
6.7947
8.40722
8.40689
8.39855
8.39448
8.39048
8.38613
8.38218
8.37831
8.37446
8.37054
8.36648
8.36221
8.3577
8.35292
8.34785
8.34246
8.33676
8.33074
8.32439
8.31771
8.31071
8.30337
8.29571
8.28772
8.27941
8.27077
8.2618
8.25251
8.24289
8.23295
8.22267
8.21207
8.20114
8.18987
8.17827
8.16633
8.15405
8.14142
8.12845
8.11513
8.10146
8.08743
8.07303
8.05827
8.04314
8.02764
8.01175
7.99548
7.97882
7.96177
7.94431
7.92645
7.90818
7.88949
7.87037
7.85082
7.83084
7.81041
7.78954
7.7682
7.7464
7.72414
7.70139
7.67815
7.65442
7.63019
7.60545
7.5802
7.55441
7.52809
7.50123
7.47381
7.44584
7.41729
7.38817
7.35845
7.32814
7.29722
7.26568
7.23351
7.20071
7.16726
7.13314
7.09836
7.0629
7.02675
6.98989
6.95232
6.91403
6.87499
6.83521
6.79467
8.41
8.40942
8.40428
8.40214
8.39845
8.39435
8.39021
8.38582
8.38127
8.37656
8.37169
8.36664
8.36141
8.35597
8.35031
8.34441
8.33827
8.33187
8.32519
8.31824
8.31101
8.30348
8.29566
8.28754
8.27912
8.27039
8.26135
8.25201
8.24234
8.23236
8.22207
8.21145
8.2005
8.18923
8.17763
8.16569
8.15342
8.1408
8.12784
8.11453
8.10087
8.08686
8.07248
8.05774
8.04262
8.02714
8.01127
7.99502
7.97838
7.96134
7.9439
7.92606
7.9078
7.88913
7.87003
7.8505
7.83053
7.81012
7.78926
7.76794
7.74616
7.7239
7.70116
7.67794
7.65422
7.63001
7.60528
7.58003
7.55425
7.52794
7.50109
7.47368
7.44571
7.41717
7.38805
7.35834
7.32804
7.29712
7.26559
7.23342
7.20062
7.16717
7.13306
7.09828
7.06282
7.02667
6.98982
6.95225
6.91396
6.87492
6.83514
6.7946
8.41172
8.41054
8.40635
8.40422
8.40056
8.39688
8.39298
8.38876
8.38429
8.37957
8.3746
8.3694
8.36396
8.35828
8.35236
8.34621
8.33981
8.33316
8.32625
8.31909
8.31166
8.30396
8.29598
8.28772
8.27918
8.27035
8.26122
8.2518
8.24207
8.23204
8.2217
8.21104
8.20007
8.18877
8.17715
8.1652
8.15292
8.1403
8.12734
8.11403
8.10038
8.08637
8.072
8.05727
8.04217
8.02669
8.01084
7.9946
7.97797
7.96095
7.94353
7.9257
7.90746
7.8888
7.86971
7.8502
7.83024
7.80985
7.789
7.76769
7.74592
7.72368
7.70095
7.67774
7.65404
7.62983
7.60511
7.57987
7.5541
7.5278
7.50095
7.47355
7.44559
7.41706
7.38795
7.35824
7.32794
7.29703
7.2655
7.23334
7.20055
7.1671
7.13299
7.09822
7.06276
7.02661
6.98976
6.95219
6.9139
6.87487
6.83509
6.79455
8.41781
8.41605
8.41199
8.40922
8.40514
8.40115
8.39687
8.39234
8.38759
8.38261
8.37741
8.37198
8.36632
8.36044
8.35432
8.34796
8.34136
8.33453
8.32744
8.3201
8.31251
8.30466
8.29655
8.28816
8.2795
8.27056
8.26134
8.25183
8.24203
8.23194
8.22154
8.21083
8.19982
8.18849
8.17684
8.16486
8.15256
8.13993
8.12696
8.11365
8.09998
8.08597
8.0716
8.05687
8.04178
8.02631
8.01046
7.99423
7.97761
7.9606
7.94319
7.92537
7.90714
7.88849
7.86942
7.84992
7.82998
7.80959
7.78875
7.76746
7.7457
7.72346
7.70075
7.67755
7.65385
7.62965
7.60494
7.57971
7.55396
7.52766
7.50082
7.47343
7.44548
7.41695
7.38784
7.35815
7.32785
7.29695
7.26542
7.23327
7.20047
7.16703
7.13293
7.09816
7.0627
7.02656
6.98971
6.95214
6.91385
6.87482
6.83504
6.7945
8.42295
8.42088
8.41703
8.41394
8.40974
8.40555
8.401
8.39621
8.39119
8.38594
8.38048
8.3748
8.3689
8.36278
8.35644
8.34988
8.34309
8.33607
8.32881
8.32131
8.31357
8.30557
8.29732
8.28882
8.28004
8.271
8.26168
8.25209
8.24221
8.23204
8.22158
8.21082
8.19975
8.18838
8.17669
8.16468
8.15235
8.13969
8.1267
8.11337
8.0997
8.08568
8.0713
8.05657
8.04147
8.026
8.01015
7.99393
7.97731
7.96031
7.9429
7.92509
7.90687
7.88823
7.86916
7.84967
7.82973
7.80936
7.78853
7.76724
7.74549
7.72327
7.70056
7.67737
7.65368
7.62949
7.60479
7.57957
7.55382
7.52753
7.5007
7.47331
7.44537
7.41685
7.38775
7.35805
7.32776
7.29686
7.26534
7.23319
7.2004
7.16696
7.13287
7.0981
7.06265
7.0265
6.98965
6.95209
6.9138
6.87478
6.835
6.79446
8.42614
8.42385
8.42022
8.41698
8.41282
8.40858
8.40397
8.3991
8.39399
8.38863
8.38304
8.37723
8.37119
8.36492
8.35844
8.35172
8.34479
8.33762
8.33022
8.32259
8.31471
8.3066
8.29823
8.28961
8.28073
8.27159
8.26218
8.2525
8.24255
8.2323
8.22178
8.21095
8.19983
8.18841
8.17668
8.16463
8.15227
8.13958
8.12656
8.11321
8.09952
8.08548
8.07109
8.05635
8.04124
8.02576
8.00991
7.99368
7.97707
7.96006
7.94266
7.92485
7.90663
7.88799
7.86893
7.84944
7.82952
7.80915
7.78833
7.76705
7.7453
7.72309
7.70039
7.67721
7.65353
7.62934
7.60465
7.57943
7.55369
7.52741
7.50058
7.4732
7.44526
7.41675
7.38765
7.35797
7.32768
7.29678
7.26527
7.23312
7.20034
7.1669
7.13281
7.09804
7.06259
7.02645
6.9896
6.95204
6.91376
6.87473
6.83496
6.79442
8.42857
8.42613
8.42264
8.41929
8.41515
8.41087
8.40623
8.40132
8.39616
8.39075
8.3851
8.37921
8.37309
8.36674
8.36017
8.35336
8.34633
8.33906
8.33156
8.32383
8.31585
8.30764
8.29917
8.29046
8.2815
8.27227
8.26278
8.25302
8.24299
8.23268
8.22209
8.21121
8.20004
8.18856
8.17678
8.1647
8.1523
8.13957
8.12653
8.11315
8.09943
8.08537
8.07097
8.0562
8.04108
8.0256
8.00974
7.9935
7.97688
7.95987
7.94246
7.92465
7.90644
7.8878
7.86874
7.84926
7.82933
7.80897
7.78815
7.76688
7.74514
7.72293
7.70024
7.67706
7.65338
7.6292
7.60451
7.57931
7.55357
7.52729
7.50047
7.4731
7.44516
7.41665
7.38756
7.35788
7.3276
7.29671
7.2652
7.23305
7.20027
7.16684
7.13275
7.09799
7.06254
7.0264
6.98956
6.952
6.91371
6.87469
6.83491
6.79438
8.4308
8.42823
8.42486
8.4214
8.41727
8.41294
8.40826
8.40331
8.3981
8.39264
8.38693
8.38098
8.37479
8.36838
8.36173
8.35485
8.34774
8.3404
8.33282
8.32501
8.31696
8.30866
8.30012
8.29134
8.28229
8.273
8.26344
8.25361
8.24351
8.23314
8.22249
8.21156
8.20033
8.18881
8.17698
8.16486
8.15241
8.13966
8.12658
8.11317
8.09943
8.08534
8.07091
8.05613
8.041
8.0255
8.00962
7.99338
7.97675
7.95973
7.94232
7.92451
7.90628
7.88765
7.86859
7.8491
7.82918
7.80882
7.788
7.76673
7.74499
7.72279
7.7001
7.67692
7.65325
7.62908
7.6044
7.57919
7.55346
7.52719
7.50037
7.47301
7.44507
7.41657
7.38748
7.3578
7.32753
7.29664
7.26513
7.23299
7.20021
7.16679
7.1327
7.09793
7.06249
7.02636
6.98951
6.95196
6.91367
6.87465
6.83488
6.79434
8.43276
8.43008
8.4268
8.42326
8.41914
8.41478
8.41007
8.40509
8.39984
8.39433
8.38858
8.38258
8.37634
8.36987
8.36317
8.35623
8.34906
8.34166
8.33402
8.32614
8.31802
8.30966
8.30106
8.29221
8.2831
8.27374
8.26412
8.25424
8.24409
8.23366
8.22296
8.21197
8.20069
8.18912
8.17726
8.16509
8.15261
8.13982
8.1267
8.11326
8.09949
8.08538
8.07093
8.05613
8.04097
8.02546
8.00957
7.99331
7.97667
7.95964
7.94222
7.9244
7.90617
7.88753
7.86847
7.84898
7.82906
7.80869
7.78788
7.76661
7.74487
7.72267
7.69998
7.67681
7.65314
7.62897
7.60429
7.57909
7.55336
7.5271
7.50029
7.47292
7.44499
7.41649
7.38741
7.35773
7.32746
7.29657
7.26507
7.23293
7.20016
7.16673
7.13265
7.09789
7.06245
7.02631
6.98947
6.95192
6.91364
6.87462
6.83484
6.79431
8.4344
8.43165
8.42844
8.42484
8.42073
8.41635
8.41162
8.40662
8.40134
8.39581
8.39002
8.38399
8.37772
8.37121
8.36447
8.35748
8.35027
8.34282
8.33513
8.3272
8.31903
8.31062
8.30197
8.29306
8.28391
8.27449
8.26482
8.25489
8.24468
8.23421
8.22346
8.21242
8.20111
8.1895
8.17759
8.16538
8.15286
8.14004
8.12689
8.11342
8.09962
8.08549
8.07101
8.05619
8.04101
8.02547
8.00957
7.99329
7.97664
7.9596
7.94217
7.92434
7.9061
7.88746
7.86839
7.8489
7.82897
7.8086
7.78778
7.76651
7.74478
7.72257
7.69989
7.67672
7.65305
7.62888
7.6042
7.579
7.55328
7.52702
7.50021
7.47284
7.44492
7.41642
7.38734
7.35767
7.3274
7.29652
7.26502
7.23288
7.20011
7.16669
7.1326
7.09785
7.06241
7.02628
6.98944
6.95189
6.9136
6.87458
6.83481
6.79428
8.43583
8.43301
8.42986
8.42622
8.42211
8.41771
8.41297
8.40796
8.40266
8.39711
8.3913
8.38525
8.37895
8.37241
8.36563
8.35862
8.35137
8.34388
8.33615
8.32819
8.31998
8.31153
8.30283
8.29388
8.28468
8.27523
8.26552
8.25554
8.24529
8.23478
8.22398
8.21291
8.20155
8.1899
8.17796
8.16572
8.15317
8.14031
8.12713
8.11363
8.0998
8.08564
8.07114
8.05629
8.0411
8.02554
8.00962
7.99333
7.97666
7.9596
7.94216
7.92432
7.90607
7.88742
7.86834
7.84884
7.82891
7.80854
7.78772
7.76644
7.74471
7.7225
7.69981
7.67664
7.65298
7.62881
7.60413
7.57893
7.55321
7.52695
7.50014
7.47278
7.44486
7.41636
7.38728
7.35762
7.32735
7.29647
7.26497
7.23284
7.20007
7.16665
7.13256
7.09781
7.06237
7.02624
6.98941
6.95186
6.91358
6.87456
6.83479
6.79425
8.43709
8.43423
8.43111
8.42744
8.42334
8.41893
8.41418
8.40915
8.40384
8.39827
8.39245
8.38637
8.38006
8.37349
8.36669
8.35966
8.35238
8.34486
8.33711
8.32911
8.32087
8.31238
8.30365
8.29467
8.28544
8.27594
8.26619
8.25618
8.2459
8.23535
8.22452
8.21341
8.20202
8.19034
8.17836
8.16608
8.1535
8.14061
8.12741
8.11388
8.10002
8.08584
8.07131
8.05644
8.04123
8.02565
8.00971
7.9934
7.97671
7.95965
7.94219
7.92434
7.90608
7.88741
7.86833
7.84882
7.82888
7.8085
7.78768
7.7664
7.74466
7.72245
7.69976
7.67659
7.65292
7.62875
7.60408
7.57888
7.55315
7.52689
7.50009
7.47273
7.44481
7.41631
7.38724
7.35757
7.3273
7.29642
7.26493
7.2328
7.20003
7.16661
7.13253
7.09778
7.06234
7.02621
6.98938
6.95183
6.91355
6.87453
6.83476
6.79423
8.43822
8.43532
8.43224
8.42854
8.42444
8.42002
8.41527
8.41022
8.40491
8.39932
8.39349
8.3874
8.38106
8.37448
8.36766
8.3606
8.3533
8.34577
8.33799
8.32996
8.3217
8.31319
8.30443
8.29542
8.28615
8.27663
8.26685
8.25681
8.2465
8.23592
8.22506
8.21392
8.2025
8.19078
8.17878
8.16647
8.15386
8.14095
8.12771
8.11416
8.10028
8.08607
8.07152
8.05663
8.04139
8.0258
8.00984
7.99351
7.97681
7.95973
7.94226
7.92439
7.90612
7.88744
7.86835
7.84883
7.82889
7.8085
7.78767
7.76638
7.74464
7.72242
7.69973
7.67656
7.65289
7.62872
7.60404
7.57884
7.55311
7.52685
7.50005
7.47269
7.44477
7.41627
7.3872
7.35753
7.32727
7.29639
7.26489
7.23277
7.2
7.16658
7.1325
7.09775
7.06232
7.02619
6.98936
6.95181
6.91353
6.87452
6.83474
6.79421
8.43923
8.4363
8.43324
8.42952
8.42543
8.421
8.41624
8.41119
8.40587
8.40027
8.39442
8.38832
8.38198
8.37538
8.36855
8.36147
8.35416
8.3466
8.3388
8.33076
8.32247
8.31394
8.30516
8.29613
8.28684
8.27729
8.26749
8.25742
8.24708
8.23647
8.22559
8.21442
8.20298
8.19124
8.17921
8.16688
8.15424
8.1413
8.12804
8.11447
8.10056
8.08633
8.07176
8.05685
8.04159
8.02598
8.01
7.99366
7.97694
7.95984
7.94235
7.92447
7.90619
7.8875
7.8684
7.84887
7.82892
7.80852
7.78768
7.76639
7.74464
7.72242
7.69972
7.67654
7.65287
7.6287
7.60402
7.57882
7.55309
7.52683
7.50002
7.47266
7.44474
7.41625
7.38717
7.3575
7.32724
7.29636
7.26487
7.23274
7.19998
7.16656
7.13248
7.09773
7.0623
7.02617
6.98934
6.95179
6.91352
6.8745
6.83473
6.79419
8.44014
8.43719
8.43415
8.43042
8.42633
8.42189
8.41713
8.41207
8.40674
8.40114
8.39528
8.38917
8.38281
8.37621
8.36936
8.36228
8.35495
8.34737
8.33956
8.3315
8.3232
8.31465
8.30585
8.2968
8.28749
8.27792
8.2681
8.25801
8.24765
8.23702
8.22611
8.21492
8.20345
8.19169
8.17964
8.16729
8.15463
8.14167
8.12839
8.11479
8.10087
8.08661
8.07202
8.05709
8.04181
8.02618
8.01019
7.99383
7.97709
7.95998
7.94248
7.92459
7.90629
7.88759
7.86848
7.84894
7.82897
7.80857
7.78772
7.76642
7.74467
7.72244
7.69974
7.67655
7.65288
7.6287
7.60401
7.57881
7.55308
7.52682
7.50001
7.47265
7.44472
7.41623
7.38715
7.35749
7.32722
7.29635
7.26485
7.23272
7.19996
7.16654
7.13246
7.09771
7.06228
7.02616
6.98933
6.95178
8.44097
8.438
8.43498
8.43123
8.42714
8.4227
8.41793
8.41287
8.40754
8.40193
8.39607
8.38995
8.38358
8.37697
8.37011
8.36302
8.35568
8.34809
8.34027
8.33219
8.32388
8.31531
8.3065
8.29743
8.28811
8.27852
8.26868
8.25857
8.2482
8.23755
8.22662
8.21542
8.20392
8.19214
8.18007
8.1677
8.15502
8.14204
8.12874
8.11512
8.10118
8.08691
8.0723
8.05735
8.04206
8.02641
8.0104
7.99402
7.97727
7.96014
7.94263
7.92472
7.90642
7.8877
7.86858
7.84903
7.82905
7.80864
7.78778
7.76648
7.74471
7.72248
7.69977
7.67658
7.6529
7.62872
7.60403
7.57882
7.55309
7.52682
7.50001
7.47265
7.44472
7.41622
7.38715
7.35748
7.32721
7.29634
7.26484
7.23272
7.19995
7.16653
7.13246
7.09771
7.06227
7.02615
6.98932
6.95176
8.44173
8.43875
8.43573
8.43198
8.42789
8.42344
8.41867
8.41361
8.40827
8.40266
8.39679
8.39067
8.38429
8.37767
8.37081
8.3637
8.35635
8.34876
8.34092
8.33284
8.32451
8.31594
8.30711
8.29803
8.28869
8.2791
8.26924
8.25912
8.24872
8.23806
8.22712
8.21589
8.20439
8.19259
8.1805
8.16811
8.15542
8.14242
8.1291
8.11547
8.10151
8.08722
8.0726
8.05763
8.04232
8.02665
8.01063
7.99423
7.97747
7.96033
7.9428
7.92488
7.90656
7.88784
7.8687
7.84914
7.82915
7.80873
7.78787
7.76655
7.74478
7.72254
7.69982
7.67663
7.65294
7.62875
7.60406
7.57884
7.55311
7.52684
7.50002
7.47266
7.44473
7.41623
7.38715
7.35749
7.32722
7.29634
7.26484
7.23272
7.19995
7.16653
7.13245
7.0977
7.06227
7.02615
6.98931
6.95176
8.44243
8.43944
8.43643
8.43267
8.42858
8.42413
8.41936
8.41429
8.40895
8.40333
8.39746
8.39133
8.38495
8.37833
8.37146
8.36434
8.35699
8.34939
8.34154
8.33345
8.32511
8.31653
8.30769
8.2986
8.28925
8.27964
8.26977
8.25963
8.24923
8.23855
8.2276
8.21636
8.20484
8.19303
8.18092
8.16852
8.15581
8.14279
8.12946
8.11581
8.10184
8.08754
8.0729
8.05792
8.04259
8.02691
8.01087
7.99446
7.97769
7.96053
7.94299
7.92506
7.90673
7.88799
7.86884
7.84927
7.82927
7.80884
7.78797
7.76665
7.74486
7.72262
7.69989
7.67669
7.653
7.6288
7.6041
7.57889
7.55314
7.52687
7.50005
7.47268
7.44475
7.41625
7.38717
7.3575
7.32723
7.29635
7.26485
7.23272
7.19996
7.16654
7.13246
7.09771
7.06227
8.44308
8.44008
8.43707
8.43331
8.42922
8.42477
8.41999
8.41493
8.40958
8.40396
8.39808
8.39195
8.38556
8.37893
8.37206
8.36494
8.35758
8.34997
8.34212
8.33402
8.32568
8.31708
8.30823
8.29913
8.28978
8.28016
8.27028
8.26013
8.24972
8.23903
8.22806
8.21681
8.20528
8.19345
8.18133
8.16892
8.1562
8.14317
8.12982
8.11616
8.10217
8.08786
8.0732
8.05821
8.04287
8.02718
8.01112
7.9947
7.97791
7.96075
7.94319
7.92525
7.90691
7.88816
7.869
7.84942
7.82941
7.80897
7.78809
7.76676
7.74497
7.72271
7.69998
7.67677
7.65307
7.62887
7.60416
7.57894
7.5532
7.52692
7.50009
7.47272
7.44479
7.41628
7.3872
7.35753
7.32725
7.29637
7.26487
7.23274
7.19997
7.16655
7.13247
7.09772
7.06228
8.44368
8.44068
8.43767
8.4339
8.42982
8.42536
8.42058
8.41551
8.41016
8.40454
8.39866
8.39252
8.38614
8.3795
8.37262
8.3655
8.35813
8.35052
8.34266
8.33456
8.32621
8.3176
8.30875
8.29964
8.29028
8.28065
8.27076
8.26061
8.25018
8.23948
8.22851
8.21725
8.2057
8.19387
8.18174
8.16931
8.15658
8.14354
8.13018
8.11651
8.10251
8.08818
8.07351
8.05851
8.04315
8.02745
8.01138
7.99495
7.97815
7.96097
7.94341
7.92545
7.9071
7.88834
7.86917
7.84958
7.82957
7.80912
7.78822
7.76688
7.74508
7.72282
7.70008
7.67686
7.65316
7.62895
7.60424
7.57901
7.55326
7.52698
7.50015
7.47277
7.44483
7.41633
7.38724
7.35756
7.32729
7.2964
7.2649
7.23277
7.2
7.16657
7.13249
7.09774
7.0623
8.44424
8.44124
8.43823
8.43446
8.43037
8.42591
8.42114
8.41606
8.41071
8.40509
8.3992
8.39306
8.38668
8.38004
8.37315
8.36603
8.35865
8.35104
8.34317
8.33507
8.32671
8.3181
8.30924
8.30013
8.29075
8.28112
8.27122
8.26106
8.25063
8.23992
8.22894
8.21767
8.20611
8.19427
8.18213
8.16969
8.15695
8.1439
8.13053
8.11685
8.10284
8.0885
8.07382
8.05881
8.04344
8.02773
8.01165
7.99521
7.9784
7.96121
7.94364
7.92567
7.90731
7.88854
7.86936
7.84976
7.82973
7.80927
7.78837
7.76702
7.74521
7.72294
7.7002
7.67697
7.65326
7.62905
7.60433
7.5791
7.55334
7.52705
7.50022
7.47284
7.44489
7.41638
7.38729
7.35761
7.32733
7.29644
7.26494
7.2328
7.20003
7.1666
7.13252
7.09776
7.06232
8.44476
8.44176
8.43875
8.43498
8.43089
8.42643
8.42166
8.41658
8.41123
8.4056
8.39971
8.39357
8.38718
8.38054
8.37365
8.36652
8.35915
8.35153
8.34366
8.33555
8.32718
8.31857
8.30971
8.30059
8.29121
8.28157
8.27167
8.2615
8.25106
8.24034
8.22935
8.21808
8.20651
8.19466
8.18251
8.17007
8.15732
8.14426
8.13088
8.11719
8.10317
8.08882
8.07413
8.05911
8.04373
8.02801
8.01192
7.99547
7.97865
7.96145
7.94387
7.92589
7.90752
7.88874
7.86955
7.84994
7.82991
7.80944
7.78853
7.76717
7.74536
7.72308
7.70033
7.6771
7.65337
7.62915
7.60443
7.57919
7.55343
7.52713
7.5003
7.47291
7.44496
7.41645
7.38735
7.35767
7.32739
7.29649
7.26499
7.23285
7.20007
7.16664
7.13256
7.0978
7.06236
8.44526
8.44225
8.43924
8.43548
8.43138
8.42692
8.42214
8.41707
8.41171
8.40608
8.4002
8.39405
8.38766
8.38102
8.37413
8.36699
8.35961
8.35199
8.34412
8.336
8.32764
8.31902
8.31015
8.30102
8.29164
8.282
8.27209
8.26192
8.25147
8.24075
8.22975
8.21847
8.2069
8.19504
8.18289
8.17043
8.15767
8.14461
8.13122
8.11752
8.10349
8.08914
8.07444
8.05941
8.04403
8.02829
8.0122
7.99574
7.97891
7.9617
7.94411
7.92612
7.90774
7.88895
7.86976
7.85014
7.8301
7.80962
7.7887
7.76734
7.74551
7.72323
7.70047
7.67723
7.6535
7.62927
7.60454
7.5793
7.55353
7.52723
7.50039
7.47299
7.44504
7.41652
7.38742
7.35773
7.32745
7.29655
7.26504
7.2329
7.20012
7.16669
7.1326
7.09784
7.0624
8.44572
8.44272
8.4397
8.43594
8.43185
8.42738
8.4226
8.41753
8.41217
8.40654
8.40065
8.39451
8.38811
8.38147
8.37457
8.36744
8.36006
8.35243
8.34456
8.33643
8.32807
8.31945
8.31057
8.30144
8.29206
8.28241
8.2725
8.26232
8.25186
8.24114
8.23013
8.21885
8.20727
8.19541
8.18325
8.17079
8.15802
8.14495
8.13156
8.11785
8.10381
8.08945
8.07475
8.0597
8.04431
8.02857
8.01247
7.996
7.97916
7.96195
7.94435
7.92635
7.90796
7.88917
7.86996
7.85034
7.83029
7.8098
7.78888
7.76751
7.74568
7.72338
7.70062
7.67737
7.65364
7.6294
7.60467
7.57941
7.55364
7.52733
7.50049
7.47309
7.44513
7.41661
7.3875
7.35781
7.32752
7.29662
7.26511
7.23296
7.20018
7.16675
7.13265
7.09789
7.06245
8.44617
8.44316
8.44014
8.43638
8.43228
8.42782
8.42304
8.41796
8.4126
8.40697
8.40108
8.39494
8.38854
8.38189
8.375
8.36786
8.36048
8.35285
8.34497
8.33685
8.32848
8.31985
8.31098
8.30184
8.29245
8.2828
8.27288
8.2627
8.25224
8.24151
8.2305
8.21921
8.20763
8.19576
8.1836
8.17113
8.15836
8.14528
8.13188
8.11817
8.10413
8.08976
8.07505
8.06
8.0446
8.02885
8.01274
7.99627
7.97942
7.9622
7.94459
7.92659
7.90819
7.88939
7.87018
7.85055
7.83049
7.81
7.78906
7.76768
7.74585
7.72355
7.70077
7.67752
7.65378
7.62954
7.6048
7.57954
7.55376
7.52745
7.5006
7.47319
7.44523
7.4167
7.38759
7.3579
7.3276
7.2967
7.26518
7.23303
7.20025
7.16681
7.13272
7.09795
7.0625
8.44659
8.44358
8.44056
8.4368
8.4327
8.42824
8.42346
8.41838
8.41302
8.40739
8.40149
8.39535
8.38895
8.3823
8.3754
8.36826
8.36088
8.35324
8.34537
8.33724
8.32887
8.32024
8.31136
8.30223
8.29283
8.28318
8.27326
8.26307
8.25261
8.24188
8.23086
8.21957
8.20798
8.19611
8.18394
8.17147
8.15869
8.1456
8.1322
8.11848
8.10443
8.09006
8.07534
8.06029
8.04489
8.02913
8.01301
7.99653
7.97968
7.96245
7.94483
7.92683
7.90842
7.88962
7.8704
7.85076
7.83069
7.81019
7.78926
7.76787
7.74602
7.72372
7.70094
7.67768
7.65393
7.62969
7.60494
7.57967
7.55389
7.52757
7.50071
7.47331
7.44534
7.4168
7.38769
7.35799
7.32769
7.29679
7.26526
7.23311
7.20032
7.16688
7.13278
7.09801
7.06256
8.44698
8.44398
8.44095
8.43719
8.4331
8.42863
8.42385
8.41877
8.41341
8.40778
8.40188
8.39573
8.38933
8.38268
8.37579
8.36865
8.36126
8.35362
8.34574
8.33762
8.32924
8.32061
8.31173
8.30259
8.2932
8.28354
8.27361
8.26342
8.25296
8.24222
8.23121
8.21991
8.20832
8.19644
8.18427
8.17179
8.15901
8.14592
8.13251
8.11879
8.10473
8.09035
8.07563
8.06057
8.04516
8.0294
8.01328
7.99679
7.97994
7.9627
7.94508
7.92707
7.90866
7.88984
7.87062
7.85097
7.8309
7.81039
7.78945
7.76806
7.74621
7.72389
7.70111
7.67784
7.65409
7.62984
7.60508
7.57982
7.55402
7.5277
7.50084
7.47343
7.44545
7.41691
7.3878
7.35809
7.32779
7.29688
7.26535
7.23319
7.2004
7.16696
7.13286
7.09808
7.06263
8.44736
8.44436
8.44133
8.43757
8.43347
8.42901
8.42423
8.41914
8.41378
8.40815
8.40226
8.39611
8.3897
8.38305
8.37616
8.36901
8.36162
8.35399
8.34611
8.33798
8.3296
8.32097
8.31208
8.30294
8.29354
8.28388
8.27396
8.26376
8.2533
8.24256
8.23154
8.22024
8.20864
8.19676
8.18458
8.1721
8.15932
8.14623
8.13281
8.11908
8.10503
8.09064
8.07592
8.06085
8.04544
8.02967
8.01355
7.99705
7.98019
7.96295
7.94532
7.9273
7.90889
7.89007
7.87084
7.85119
7.83111
7.8106
7.78965
7.76825
7.74639
7.72407
7.70128
7.67801
7.65425
7.63
7.60524
7.57996
7.55417
7.52784
7.50097
7.47355
7.44557
7.41703
7.38791
7.3582
7.32789
7.29698
7.26544
7.23329
7.20049
7.16704
7.13294
7.09816
7.0627
8.44772
8.44472
8.44169
8.43793
8.43383
8.42937
8.42458
8.4195
8.41414
8.40851
8.40261
8.39646
8.39006
8.38341
8.37651
8.36936
8.36197
8.35434
8.34645
8.33832
8.32994
8.32131
8.31242
8.30328
8.29388
8.28422
8.27429
8.26409
8.25362
8.24288
8.23186
8.22055
8.20896
8.19707
8.18489
8.17241
8.15962
8.14652
8.13311
8.11937
8.10531
8.09092
8.0762
8.06113
8.04571
8.02994
8.01381
7.99731
7.98044
7.96319
7.94556
7.92754
7.90912
7.89029
7.87106
7.8514
7.83132
7.8108
7.78985
7.76844
7.74658
7.72426
7.70146
7.67818
7.65442
7.63016
7.60539
7.58011
7.55431
7.52798
7.50111
7.47368
7.4457
7.41715
7.38803
7.35831
7.328
7.29708
7.26555
7.23338
7.20058
7.16713
7.13302
7.09824
7.06278
8.44807
8.44507
8.44203
8.43828
8.43418
8.42971
8.42493
8.41985
8.41448
8.40885
8.40295
8.3968
8.3904
8.38374
8.37684
8.3697
8.36231
8.35467
8.34678
8.33865
8.33027
8.32163
8.31275
8.3036
8.2942
8.28454
8.27461
8.26441
8.25394
8.24319
8.23217
8.22086
8.20926
8.19737
8.18519
8.1727
8.15991
8.14681
8.13339
8.11966
8.10559
8.0912
8.07647
8.06139
8.04597
8.0302
8.01406
7.99756
7.98069
7.96344
7.9458
7.92777
7.90935
7.89052
7.87128
7.85161
7.83153
7.81101
7.79005
7.76864
7.74677
7.72444
7.70164
7.67836
7.65459
7.63032
7.60555
7.58027
7.55446
7.52812
7.50125
7.47382
7.44583
7.41728
7.38815
7.35843
7.32811
7.29719
7.26565
7.23348
7.20068
7.16723
7.13311
7.09833
7.06287
8.4484
8.4454
8.44236
8.43861
8.4345
8.43004
8.42525
8.42017
8.41481
8.40917
8.40328
8.39712
8.39072
8.38407
8.37716
8.37002
8.36263
8.35499
8.3471
8.33897
8.33058
8.32195
8.31306
8.30391
8.29451
8.28484
8.27491
8.26471
8.25424
8.24349
8.23247
8.22115
8.20956
8.19766
8.18548
8.17299
8.1602
8.14709
8.13367
8.11993
8.10586
8.09147
8.07673
8.06165
8.04623
8.03045
8.01431
7.99781
7.98093
7.96368
7.94604
7.928
7.90957
7.89074
7.87149
7.85183
7.83174
7.81121
7.79025
7.76883
7.74696
7.72463
7.70182
7.67854
7.65476
7.63049
7.60572
7.58043
7.55462
7.52827
7.50139
7.47396
7.44597
7.41741
7.38828
7.35855
7.32823
7.29731
7.26576
7.23359
7.20078
7.16732
7.13321
7.09842
7.06295
8.44871
8.44572
8.44267
8.43892
8.43482
8.43035
8.42557
8.42048
8.41512
8.40948
8.40359
8.39743
8.39103
8.38437
8.37747
8.37033
8.36293
8.35529
8.34741
8.33927
8.33089
8.32225
8.31336
8.30421
8.29481
8.28514
8.27521
8.265
8.25453
8.24378
8.23275
8.22144
8.20984
8.19795
8.18576
8.17327
8.16047
8.14736
8.13394
8.1202
8.10613
8.09173
8.07699
8.06191
8.04648
8.0307
8.01456
7.99805
7.98117
7.96391
7.94627
7.92823
7.9098
7.89096
7.87171
7.85204
7.83194
7.81141
7.79044
7.76903
7.74715
7.72481
7.702
7.67871
7.65493
7.63066
7.60588
7.58059
7.55477
7.52842
7.50154
7.4741
7.44611
7.41755
7.38841
7.35868
7.32835
7.29742
7.26588
7.2337
7.20089
7.16743
7.13331
7.09852
7.06305
8.44901
8.44602
8.44297
8.43922
8.43512
8.43065
8.42587
8.42078
8.41542
8.40978
8.40389
8.39773
8.39133
8.38467
8.37777
8.37062
8.36322
8.35558
8.3477
8.33956
8.33118
8.32254
8.31365
8.3045
8.29509
8.28542
8.27549
8.26528
8.25481
8.24406
8.23303
8.22171
8.21011
8.19822
8.18602
8.17353
8.16073
8.14762
8.1342
8.12045
8.10638
8.09198
8.07724
8.06216
8.04672
8.03094
8.01479
7.99828
7.9814
7.96414
7.94649
7.92845
7.91002
7.89117
7.87192
7.85225
7.83215
7.81162
7.79064
7.76922
7.74734
7.725
7.70218
7.67889
7.65511
7.63083
7.60604
7.58075
7.55493
7.52858
7.50169
7.47425
7.44625
7.41768
7.38854
7.35881
7.32848
7.29755
7.26599
7.23382
7.201
7.16753
7.13341
7.09862
7.06314
8.4493
8.44631
8.44326
8.43951
8.4354
8.43094
8.42615
8.42107
8.4157
8.41007
8.40417
8.39802
8.39161
8.38495
8.37805
8.3709
8.36351
8.35586
8.34798
8.33984
8.33145
8.32281
8.31392
8.30477
8.29536
8.28569
8.27576
8.26555
8.25508
8.24432
8.23329
8.22198
8.21037
8.19848
8.18628
8.17379
8.16099
8.14788
8.13445
8.1207
8.10663
8.09222
8.07748
8.06239
8.04696
8.03117
8.01503
7.99851
7.98163
7.96436
7.94671
7.92867
7.91023
7.89138
7.87213
7.85245
7.83235
7.81181
7.79084
7.76941
7.74753
7.72518
7.70236
7.67907
7.65528
7.631
7.60621
7.58091
7.55508
7.52873
7.50184
7.47439
7.44639
7.41782
7.38867
7.35894
7.32861
7.29767
7.26611
7.23393
7.20111
7.16764
7.13352
7.09872
8.44957
8.44659
8.44353
8.43979
8.43568
8.43121
8.42643
8.42134
8.41598
8.41034
8.40444
8.39829
8.39188
8.38522
8.37832
8.37117
8.36377
8.35613
8.34824
8.34011
8.33172
8.32308
8.31419
8.30504
8.29563
8.28595
8.27602
8.26581
8.25533
8.24458
8.23355
8.22223
8.21062
8.19873
8.18653
8.17404
8.16123
8.14812
8.13469
8.12094
8.10687
8.09246
8.07771
8.06263
8.04719
8.0314
8.01525
7.99873
7.98184
7.96458
7.94692
7.92888
7.91044
7.89159
7.87233
7.85265
7.83254
7.81201
7.79103
7.7696
7.74771
7.72536
7.70254
7.67924
7.65545
7.63116
7.60637
7.58107
7.55524
7.52888
7.50198
7.47454
7.44653
7.41796
7.38881
7.35907
7.32873
7.29779
7.26623
7.23405
7.20122
7.16775
7.13362
7.09882
8.44984
8.44685
8.44379
8.44005
8.43594
8.43148
8.42669
8.4216
8.41624
8.4106
8.4047
8.39855
8.39214
8.38548
8.37858
8.37143
8.36403
8.35639
8.3485
8.34036
8.33197
8.32333
8.31444
8.30529
8.29588
8.2862
8.27627
8.26606
8.25558
8.24483
8.23379
8.22247
8.21086
8.19897
8.18677
8.17427
8.16147
8.14835
8.13492
8.12117
8.10709
8.09268
8.07794
8.06285
8.04741
8.03162
8.01547
7.99895
7.98206
7.96479
7.94713
7.92909
7.91064
7.89179
7.87253
7.85284
7.83274
7.81219
7.79121
7.76978
7.74789
7.72554
7.70271
7.67941
7.65562
7.63133
7.60653
7.58123
7.55539
7.52903
7.50213
7.47468
7.44667
7.4181
7.38894
7.3592
7.32886
7.29792
7.26635
7.23416
7.20134
7.16786
7.13373
7.09893
8.45009
8.44711
8.44404
8.4403
8.43619
8.43172
8.42694
8.42185
8.41649
8.41085
8.40495
8.39879
8.39239
8.38573
8.37882
8.37167
8.36428
8.35663
8.34874
8.3406
8.33221
8.32357
8.31468
8.30553
8.29612
8.28644
8.2765
8.2663
8.25582
8.24506
8.23402
8.2227
8.2111
8.19919
8.187
8.1745
8.16169
8.14858
8.13515
8.12139
8.10731
8.0929
8.07815
8.06306
8.04762
8.03183
8.01567
7.99915
7.98226
7.96499
7.94733
7.92928
7.91084
7.89198
7.87272
7.85303
7.83292
7.81238
7.79139
7.76996
7.74807
7.72571
7.70288
7.67958
7.65578
7.63149
7.60669
7.58138
7.55555
7.52918
7.50228
7.47482
7.44681
7.41823
7.38907
7.35933
7.32899
7.29804
7.26647
7.23428
7.20145
7.16798
7.13384
7.09903
8.45033
8.44735
8.44428
8.44054
8.43643
8.43196
8.42717
8.42209
8.41672
8.41108
8.40518
8.39903
8.39262
8.38596
8.37906
8.37191
8.36451
8.35686
8.34897
8.34083
8.33244
8.3238
8.31491
8.30575
8.29634
8.28667
8.27673
8.26652
8.25604
8.24528
8.23424
8.22292
8.21131
8.19941
8.18721
8.17471
8.16191
8.14879
8.13536
8.1216
8.10752
8.09311
8.07836
8.06327
8.04783
8.03203
8.01587
7.99935
7.98246
7.96518
7.94752
7.92947
7.91102
7.89217
7.8729
7.85321
7.8331
7.81255
7.79157
7.77013
7.74824
7.72588
7.70305
7.67974
7.65594
7.63164
7.60684
7.58153
7.55569
7.52933
7.50242
7.47496
7.44695
7.41837
7.3892
7.35946
7.32911
7.29816
7.26659
7.2344
7.20157
7.16809
7.13395
7.09914
8.45055
8.44757
8.4445
8.44076
8.43665
8.43218
8.4274
8.42231
8.41694
8.41131
8.40541
8.39925
8.39284
8.38618
8.37928
8.37213
8.36473
8.35708
8.34919
8.34105
8.33266
8.32402
8.31512
8.30597
8.29656
8.28688
8.27694
8.26673
8.25625
8.24549
8.23446
8.22313
8.21152
8.19962
8.18742
8.17492
8.16211
8.14899
8.13556
8.1218
8.10772
8.09331
8.07856
8.06346
8.04802
8.03222
8.01607
7.99954
7.98264
7.96537
7.94771
7.92966
7.9112
7.89235
7.87308
7.85339
7.83327
7.81272
7.79173
7.77029
7.7484
7.72604
7.70321
7.67989
7.65609
7.6318
7.60699
7.58168
7.55584
7.52947
7.50256
7.4751
7.44708
7.4185
7.38933
7.35958
7.32924
7.29828
7.26671
7.23451
7.20168
7.1682
7.13405
7.09924
8.45076
8.44779
8.44471
8.44097
8.43686
8.43239
8.42761
8.42252
8.41715
8.41152
8.40562
8.39946
8.39305
8.38639
8.37948
8.37233
8.36493
8.35729
8.3494
8.34126
8.33287
8.32422
8.31533
8.30617
8.29676
8.28708
8.27714
8.26693
8.25645
8.24569
8.23465
8.22333
8.21172
8.19982
8.18762
8.17511
8.16231
8.14919
8.13575
8.12199
8.10791
8.0935
8.07874
8.06365
8.0482
8.0324
8.01625
7.99972
7.98282
7.96555
7.94788
7.92983
7.91138
7.89252
7.87325
7.85355
7.83344
7.81289
7.79189
7.77045
7.74856
7.72619
7.70336
7.68004
7.65624
7.63194
7.60714
7.58182
7.55598
7.52961
7.50269
7.47523
7.44721
7.41862
7.38946
7.3597
7.32935
7.2984
7.26683
7.23463
7.20179
7.1683
7.13416
7.09934
8.45096
8.44799
8.4449
8.44117
8.43706
8.43259
8.4278
8.42272
8.41735
8.41171
8.40581
8.39965
8.39324
8.38659
8.37968
8.37253
8.36513
8.35748
8.34959
8.34145
8.33306
8.32441
8.31552
8.30636
8.29695
8.28727
8.27733
8.26712
8.25664
8.24588
8.23484
8.22352
8.2119