/*--------------------------------*- C++ -*----------------------------------*\
  =========                 |
  \\      /  F ield         | OpenFOAM: The Open Source CFD Toolbox
   \\    /   O peration     | Website:  https://openfoam.org
    \\  /    A nd           | Version:  10
     \\/     M anipulation  |
\*---------------------------------------------------------------------------*/
FoamFile
{
    format      ascii;
    class       volVectorField;
    location    "68000";
    object      U;
}
// * * * * * * * * * * * * * * * * * * * * * * * * * * * * * * * * * * * * * //

dimensions      [0 1 -1 0 0 0 0];

internalField   nonuniform List<vector> 
17808
(
(-1.19592 1.29691 -4.61598e-18)
(-1.48386 1.61812 -5.23057e-19)
(-1.6131 1.76054 3.37867e-18)
(-1.70246 1.85446 3.67628e-18)
(-1.76846 1.92663 -8.69111e-19)
(-1.82143 1.98402 -6.19472e-18)
(-1.86525 2.03185 3.13553e-18)
(-1.90265 2.07275 -3.35418e-18)
(-1.93523 2.10848 5.67875e-18)
(-1.96408 2.14018 -4.68029e-22)
(-1.98996 2.16867 -2.59021e-18)
(-2.01342 2.19453 1.85952e-18)
(-2.03487 2.2182 -2.67677e-18)
(-2.05461 2.24001 2.8566e-19)
(-2.07289 2.26023 0)
(-2.08991 2.27907 2.64786e-19)
(-2.10582 2.2967 -5.10918e-19)
(-2.12076 2.31326 -4.93442e-19)
(-2.13482 2.32886 -2.14613e-18)
(-2.1481 2.34361 1.5454e-21)
(-2.16068 2.35758 1.79005e-18)
(-2.17261 2.37084 0)
(-2.18395 2.38346 1.68272e-18)
(-2.19476 2.39548 -1.63578e-18)
(-2.20507 2.40696 1.58804e-18)
(-2.21492 2.41793 -1.93227e-18)
(-2.22434 2.42843 -3.7583e-19)
(-2.23337 2.43849 0)
(-2.24201 2.44813 -3.56479e-19)
(-2.25031 2.45738 -3.47356e-19)
(-2.25827 2.46627 1.35384e-18)
(-2.26592 2.47481 -9.91944e-19)
(-2.27327 2.48302 0)
(-2.28034 2.49091 0)
(-2.28714 2.49851 3.07199e-19)
(-2.29368 2.50582 1.49938e-18)
(-2.29998 2.51285 -8.80357e-19)
(-2.30603 2.51962 0)
(-2.31186 2.52614 -1.11898e-18)
(-2.31747 2.53242 1.87093e-21)
(-2.32287 2.53845 1.60665e-18)
(-2.32806 2.54426 1.56925e-18)
(-2.33305 2.54985 -1.02482e-18)
(-2.33785 2.55522 5.00714e-19)
(-2.34246 2.56038 0)
(-2.34689 2.56533 -4.79218e-19)
(-2.35113 2.57009 1.40571e-18)
(-2.35521 2.57465 -1.8361e-18)
(-2.35911 2.57902 4.4893e-19)
(-2.36284 2.58321 0)
(-2.36641 2.58721 0)
(-2.36982 2.59102 1.26083e-18)
(-2.37307 2.59467 -4.1255e-19)
(-2.37616 2.59813 0)
(-2.3791 2.60143 3.93997e-19)
(-2.38189 2.60455 3.85494e-19)
(-2.38452 2.6075 -3.77132e-19)
(-2.38701 2.61029 -3.68909e-19)
(-2.38934 2.61291 -3.60849e-19)
(-2.39154 2.61537 7.04872e-19)
(-2.39358 2.61767 -9.9115e-22)
(-2.39548 2.6198 6.74007e-19)
(-2.39724 2.62178 -6.60979e-19)
(-2.39885 2.62359 -6.4519e-19)
(-2.40032 2.62525 -1.26026e-18)
(-2.40165 2.62675 6.16307e-19)
(-2.40284 2.62809 -1.20548e-18)
(-2.40389 2.62927 1.17676e-18)
(-2.40479 2.6303 0)
(-2.40556 2.63117 5.61334e-19)
(-2.40618 2.63188 1.09522e-18)
(-2.40667 2.63244 -5.37145e-19)
(-2.40701 2.63284 -5.23342e-19)
(-2.40721 2.63308 5.09746e-19)
(-2.40727 2.63317 -1.01097e-21)
(-2.40719 2.6331 -1.45549e-18)
(-2.40696 2.63287 9.4735e-19)
(-2.4066 2.63248 0)
(-2.40609 2.63194 -4.50776e-19)
(-2.40544 2.63124 -1.31606e-18)
(-2.40464 2.63037 0)
(-2.4037 2.62935 0)
(-2.40261 2.62816 8.10513e-19)
(-2.40138 2.62682 0)
(-2.4 2.62531 7.68272e-19)
(-2.39847 2.62364 0)
(-2.3968 2.6218 -1.07969e-23)
(-2.39497 2.6198 0)
(-2.393 2.61764 0)
(-2.39087 2.61531 6.6921e-19)
(-2.3886 2.61281 1.30104e-18)
(-2.38617 2.61014 1.26439e-18)
(-1.19602 1.30983 -5.18694e-19)
(-1.47907 1.63085 5.12489e-19)
(-1.60891 1.76991 0)
(-1.69658 1.86381 0)
(-1.76189 1.9354 8.69954e-19)
(-1.81458 1.99216 -4.11324e-19)
(-1.85827 2.03946 3.12002e-18)
(-1.89564 2.07991 -2.59249e-18)
(-1.92825 2.11527 -3.52533e-19)
(-1.95716 2.14667 2.68701e-18)
(-1.9831 2.17492 -2.88869e-18)
(-2.00662 2.20059 6.14364e-19)
(-2.02813 2.2241 2.94501e-19)
(-2.04793 2.2458 -2.82831e-19)
(-2.06626 2.26592 0)
(-2.08333 2.28469 -2.62028e-19)
(-2.09928 2.30226 2.5272e-19)
(-2.11425 2.31877 2.4404e-19)
(-2.12834 2.33434 0)
(-2.14165 2.34905 0)
(-2.15425 2.363 0)
(-2.1662 2.37625 -4.28834e-19)
(-2.17756 2.38886 0)
(-2.18838 2.40088 -4.04134e-19)
(-2.19871 2.41236 0)
(-2.20857 2.42333 3.81962e-19)
(-2.218 2.43383 3.71747e-19)
(-2.22703 2.44389 0)
(-2.23569 2.45353 -1.40949e-18)
(-2.24399 2.46279 3.45423e-19)
(-2.25196 2.47169 1.00617e-18)
(-2.25961 2.48024 -3.26895e-19)
(-2.26697 2.48845 1.27527e-18)
(-2.27404 2.49636 -2.80319e-18)
(-2.28084 2.50396 9.13403e-19)
(-2.28738 2.51128 -2.97132e-19)
(-2.29368 2.51833 -5.80722e-19)
(-2.29974 2.52511 0)
(-2.30556 2.53164 0)
(-2.31117 2.53792 1.35555e-18)
(-2.31657 2.54397 -1.06225e-18)
(-2.32176 2.54979 -4.78159e-23)
(-2.32675 2.55539 -5.07849e-19)
(-2.33155 2.56077 -9.93754e-19)
(-2.33616 2.56594 -4.85282e-19)
(-2.34058 2.57091 1.42845e-18)
(-2.34483 2.57567 -9.30439e-19)
(-2.3489 2.58024 1.36841e-18)
(-2.3528 2.58462 -1.33749e-18)
(-2.35654 2.58882 8.74403e-19)
(-2.36011 2.59283 -8.54002e-19)
(-2.36351 2.59665 8.3788e-19)
(-2.36676 2.60031 -4.09619e-19)
(-2.36985 2.60378 0)
(-2.37279 2.60708 -3.92449e-19)
(-2.37557 2.61021 0)
(-2.3782 2.61317 0)
(-2.38069 2.61597 3.67898e-19)
(-2.38302 2.6186 1.00007e-21)
(-2.38521 2.62106 7.05498e-19)
(-2.38725 2.62337 -6.89253e-19)
(-2.38915 2.62551 6.74274e-19)
(-2.39091 2.62749 0)
(-2.39252 2.62931 0)
(-2.39399 2.63097 1.26058e-18)
(-2.39532 2.63248 -6.16775e-19)
(-2.39651 2.63382 1.20694e-18)
(-2.39756 2.63501 -1.02286e-21)
(-2.39846 2.63604 -5.77001e-19)
(-2.39923 2.63691 0)
(-2.39985 2.63763 -1.09867e-18)
(-2.40033 2.63819 2.14827e-18)
(-2.40068 2.63859 -2.03493e-21)
(-2.40088 2.63884 -2.03521e-21)
(-2.40094 2.63892 -1.01241e-21)
(-2.40086 2.63886 4.86896e-19)
(-2.40064 2.63863 -9.53209e-19)
(-2.40028 2.63824 4.64464e-19)
(-2.39977 2.6377 9.05025e-19)
(-2.39912 2.63699 -4.42768e-19)
(-2.39832 2.63613 4.29658e-19)
(-2.39739 2.6351 -1.26032e-18)
(-2.3963 2.63392 1.22613e-18)
(-2.39507 2.63257 -2.01707e-21)
(-2.3937 2.63106 -7.76282e-19)
(-2.39218 2.62939 3.78961e-19)
(-2.39051 2.62755 -1.4718e-18)
(-2.38869 2.62555 0)
(-2.38672 2.62338 0)
(-2.3846 2.62104 -1.35599e-18)
(-2.38233 2.61854 -9.88117e-19)
(-2.37991 2.61586 -6.39193e-19)
(-1.19479 1.31715 1.03799e-18)
(-1.47764 1.63798 8.1959e-18)
(-1.60758 1.77632 -1.55265e-17)
(-1.69364 1.87116 7.34664e-18)
(-1.75834 1.94254 -4.33094e-19)
(-1.81039 1.9992 0)
(-1.85354 2.04639 0)
(-1.89049 2.08671 0)
(-1.92276 2.12193 -5.24476e-18)
(-1.95141 2.15319 5.33177e-18)
(-1.97716 2.18131 3.17929e-19)
(-2.00053 2.20685 1.41206e-22)
(-2.02193 2.23026 4.66258e-18)
(-2.04165 2.25185 -9.23397e-18)
(-2.05992 2.2719 4.30595e-18)
(-2.07694 2.29059 3.88428e-18)
(-2.09287 2.3081 -3.74815e-18)
(-2.10781 2.32456 0)
(-2.12189 2.34009 0)
(-2.13519 2.35477 0)
(-2.14778 2.3687 0)
(-2.15973 2.38192 8.47205e-19)
(-2.17109 2.39451 0)
(-2.18191 2.40652 3.99179e-19)
(-2.19223 2.41799 0)
(-2.20209 2.42895 -3.77277e-19)
(-2.21152 2.43945 0)
(-2.22056 2.4495 1.42903e-18)
(-2.22921 2.45915 -1.3939e-18)
(-2.23751 2.46841 3.39457e-19)
(-2.24548 2.47731 -3.3104e-19)
(-2.25313 2.48586 1.61406e-18)
(-2.26049 2.49409 -1.74935e-21)
(-2.26756 2.502 -9.24241e-19)
(-2.27436 2.50961 9.01004e-19)
(-2.2809 2.51694 -8.82036e-19)
(-2.2872 2.52399 2.8707e-19)
(-2.29325 2.53078 0)
(-2.29908 2.53732 0)
(-2.30469 2.54361 -1.60918e-18)
(-2.31008 2.54967 1.83565e-21)
(-2.31527 2.55549 1.80717e-21)
(-2.32026 2.5611 1.50873e-18)
(-2.32506 2.56649 -9.82789e-19)
(-2.32966 2.57167 4.82352e-19)
(-2.33409 2.57665 0)
(-2.33833 2.58142 0)
(-2.3424 2.586 0)
(-2.3463 2.59039 9.59582e-22)
(-2.35003 2.59459 4.33935e-19)
(-2.3536 2.59861 0)
(-2.357 2.60245 4.15081e-19)
(-2.36025 2.60611 -8.11891e-19)
(-2.36334 2.60959 1.19481e-18)
(-2.36627 2.6129 7.78281e-19)
(-2.36905 2.61604 -7.63921e-19)
(-2.37168 2.61901 -7.45943e-19)
(-2.37416 2.62181 3.66595e-19)
(-2.3765 2.62445 -3.57889e-19)
(-2.37869 2.62692 3.50289e-19)
(-2.38073 2.62923 6.85683e-19)
(-2.38263 2.63137 -6.71014e-19)
(-2.38438 2.63336 0)
(-2.38599 2.63519 0)
(-2.38746 2.63685 -1.66388e-23)
(-2.38879 2.63836 -1.22832e-18)
(-2.38998 2.63971 6.02131e-19)
(-2.39102 2.6409 -5.86783e-19)
(-2.39193 2.64194 1.724e-18)
(-2.39269 2.64281 -1.01746e-21)
(-2.39332 2.64353 5.4901e-19)
(-2.3938 2.64409 -5.36481e-19)
(-2.39415 2.6445 0)
(-2.39435 2.64475 0)
(-2.39441 2.64483 0)
(-2.39433 2.64477 4.87153e-19)
(-2.39411 2.64454 -4.77557e-19)
(-2.39375 2.64415 -4.65104e-19)
(-2.39325 2.64361 0)
(-2.3926 2.6429 0)
(-2.39181 2.64204 -1.2944e-18)
(-2.39087 2.64101 2.1063e-18)
(-2.38979 2.63983 -9.55512e-24)
(-2.38857 2.63848 0)
(-2.3872 2.63696 -3.88823e-19)
(-2.38568 2.63529 2.0185e-21)
(-2.38402 2.63344 3.7089e-19)
(-2.3822 2.63144 -7.20299e-19)
(-2.38024 2.62926 -7.01192e-19)
(-2.37813 2.62692 1.02264e-18)
(-2.37586 2.62442 -1.99679e-21)
(-2.37345 2.62174 3.2196e-19)
(-1.19116 1.32146 7.27181e-18)
(-1.47439 1.64238 7.66975e-18)
(-1.60406 1.78135 -8.22512e-18)
(-1.68938 1.87691 4.57249e-19)
(-1.75406 1.94822 0)
(-1.8058 2.00507 0)
(-1.8487 2.05237 0)
(-1.88541 2.09276 5.84067e-18)
(-1.91746 2.12802 -1.10987e-17)
(-1.94591 2.1593 1.05659e-17)
(-1.97148 2.18742 -5.04176e-18)
(-1.9947 2.21296 4.51586e-18)
(-2.01597 2.23634 -4.61686e-18)
(-2.03557 2.25792 2.76743e-19)
(-2.05375 2.27793 4.52102e-18)
(-2.07069 2.2966 -3.84278e-18)
(-2.08655 2.31408 3.94815e-18)
(-2.10144 2.33052 -2.41389e-19)
(-2.11547 2.34602 -3.68574e-18)
(-2.12873 2.36068 -2.22783e-19)
(-2.14129 2.37459 0)
(-2.15321 2.3878 -8.36614e-19)
(-2.16455 2.40037 0)
(-2.17535 2.41237 0)
(-2.18566 2.42382 -3.44552e-18)
(-2.1955 2.43478 2.98153e-18)
(-2.20492 2.44527 0)
(-2.21395 2.45533 0)
(-2.22259 2.46497 0)
(-2.23089 2.47423 -6.70454e-19)
(-2.23885 2.48313 3.26947e-19)
(-2.2465 2.49168 0)
(-2.25384 2.49991 0)
(-2.26091 2.50782 0)
(-2.26771 2.51544 -1.78033e-18)
(-2.27424 2.52277 2.61381e-18)
(-2.28053 2.52983 0)
(-2.28659 2.53663 0)
(-2.29241 2.54317 0)
(-2.29801 2.54947 2.38616e-18)
(-2.3034 2.55554 -3.62737e-21)
(-2.30859 2.56137 -5.08049e-18)
(-2.31357 2.56699 3.48063e-18)
(-2.31837 2.57239 -1.462e-18)
(-2.32297 2.57757 0)
(-2.32739 2.58256 4.6652e-19)
(-2.33163 2.58734 1.8254e-18)
(-2.3357 2.59193 -1.79124e-18)
(-2.33959 2.59633 -4.38101e-19)
(-2.34332 2.60054 2.14334e-18)
(-2.34689 2.60456 -8.43268e-19)
(-2.35029 2.60841 -8.25024e-19)
(-2.35353 2.61208 -8.07124e-19)
(-2.35662 2.61557 -9.6865e-22)
(-2.35955 2.61888 -1.16089e-18)
(-2.36233 2.62203 0)
(-2.36495 2.625 3.69859e-19)
(-2.36743 2.62781 -7.27245e-19)
(-2.36977 2.63046 -1.06577e-18)
(-2.37195 2.63293 3.4914e-19)
(-2.37399 2.63525 6.81715e-19)
(-2.37589 2.6374 9.85518e-22)
(-2.37764 2.63939 1.99091e-21)
(-2.37925 2.64122 6.40346e-19)
(-2.38072 2.64289 -6.2568e-19)
(-2.38205 2.64441 6.12199e-19)
(-2.38323 2.64576 0)
(-2.38428 2.64695 -5.84878e-19)
(-2.38518 2.64799 -5.71012e-19)
(-2.38595 2.64887 1.00321e-21)
(-2.38657 2.64959 -1.09473e-18)
(-2.38706 2.65016 1.07214e-18)
(-2.3874 2.65056 0)
(-2.38761 2.65081 -1.01372e-21)
(-2.38767 2.6509 -1.00047e-18)
(-2.38759 2.65084 4.88132e-19)
(-2.38738 2.65061 4.76713e-19)
(-2.38702 2.65022 4.6545e-19)
(-2.38651 2.64968 0)
(-2.38587 2.64897 0)
(-2.38508 2.64811 8.65376e-19)
(-2.38415 2.64708 -1.68837e-18)
(-2.38308 2.64589 -8.23335e-19)
(-2.38185 2.64454 8.02797e-19)
(-2.38049 2.64302 1.17288e-18)
(-2.37898 2.64134 3.80346e-19)
(-2.37732 2.6395 7.43179e-19)
(-2.37551 2.63749 3.60972e-19)
(-2.37355 2.63531 7.0304e-19)
(-2.37144 2.63296 -3.44246e-19)
(-2.36919 2.63045 3.33112e-19)
(-2.36678 2.62777 -2.01206e-21)
(-1.18747 1.32556 8.82381e-18)
(-1.4706 1.64648 -8.16693e-18)
(-1.59961 1.78632 -7.22881e-18)
(-1.68449 1.88222 1.36498e-17)
(-1.7491 1.95359 -6.43598e-18)
(-1.80059 2.01066 6.87733e-18)
(-1.84334 2.05808 -1.22351e-17)
(-1.87991 2.09856 3.11356e-21)
(-1.91184 2.1339 5.50101e-18)
(-1.94017 2.16524 0)
(-1.96563 2.1934 0)
(-1.98874 2.21897 -2.98039e-19)
(-2.00991 2.24238 -2.85357e-19)
(-2.02943 2.26396 2.73714e-19)
(-2.04752 2.28399 5.74276e-23)
(-2.06439 2.30266 -2.53083e-19)
(-2.08018 2.32014 -4.87765e-19)
(-2.09501 2.33657 -3.40255e-23)
(-2.10899 2.35207 0)
(-2.1222 2.36672 2.19966e-19)
(-2.13472 2.38062 3.40666e-18)
(-2.1466 2.39382 -2.89234e-18)
(-2.15791 2.40639 0)
(-2.16868 2.41838 3.49979e-18)
(-2.17896 2.42984 -2.6481e-18)
(-2.18879 2.44079 -2.9397e-18)
(-2.19819 2.45128 2.86402e-18)
(-2.20719 2.46133 3.48409e-19)
(-2.21582 2.47097 0)
(-2.2241 2.48024 3.30932e-19)
(-2.23205 2.48913 0)
(-2.23969 2.49769 0)
(-2.24703 2.50592 -2.45793e-18)
(-2.25408 2.51384 2.10354e-18)
(-2.26087 2.52146 -5.8668e-19)
(-2.2674 2.52879 -2.29165e-18)
(-2.27368 2.53586 1.96347e-18)
(-2.27973 2.54266 -2.74035e-19)
(-2.28554 2.54921 -2.14256e-18)
(-2.29114 2.55552 2.09967e-18)
(-2.29652 2.56159 -2.05109e-18)
(-2.3017 2.56743 2.51336e-18)
(-2.30669 2.57305 -1.96504e-18)
(-2.31147 2.57846 3.64374e-21)
(-2.31607 2.58365 3.29979e-18)
(-2.32049 2.58864 -2.31007e-18)
(-2.32472 2.59344 0)
(-2.32879 2.59803 1.76958e-18)
(-2.33268 2.60244 -1.73709e-18)
(-2.3364 2.60665 0)
(-2.33996 2.61069 -4.16303e-19)
(-2.34336 2.61454 8.157e-19)
(-2.3466 2.61821 -1.59635e-18)
(-2.34968 2.62171 3.52302e-18)
(-2.35261 2.62503 -1.15238e-18)
(-2.35539 2.62818 -3.75678e-19)
(-2.35801 2.63117 1.83819e-18)
(-2.36049 2.63398 7.17121e-19)
(-2.36282 2.63663 3.49219e-19)
(-2.365 2.63911 -3.9181e-21)
(-2.36704 2.64143 -4.06461e-18)
(-2.36893 2.64359 -6.59458e-19)
(-2.37069 2.64559 3.95779e-21)
(-2.37229 2.64742 1.27394e-18)
(-2.37376 2.6491 -1.86579e-18)
(-2.37509 2.65062 -1.21484e-18)
(-2.37627 2.65197 3.00642e-21)
(-2.37732 2.65317 5.8465e-19)
(-2.37822 2.65421 -5.70043e-19)
(-2.37899 2.65509 1.11827e-18)
(-2.37961 2.65582 0)
(-2.3801 2.65638 -1.06767e-18)
(-2.38045 2.65679 5.23466e-19)
(-2.38065 2.65704 1.02016e-21)
(-2.38072 2.65713 9.99397e-19)
(-2.38064 2.65707 -4.87809e-19)
(-2.38042 2.65684 0)
(-2.38007 2.65646 -9.3105e-19)
(-2.37957 2.65591 0)
(-2.37893 2.6552 -8.87763e-19)
(-2.37814 2.65434 0)
(-2.37721 2.65331 4.239e-19)
(-2.37614 2.65212 4.13622e-19)
(-2.37493 2.65076 -1.20646e-18)
(-2.37356 2.64924 -3.91521e-19)
(-2.37206 2.64756 -1.14718e-18)
(-2.3704 2.64571 -3.72065e-19)
(-2.3686 2.6437 7.27186e-19)
(-2.36665 2.64151 -3.5324e-19)
(-2.36455 2.63916 6.9217e-19)
(-2.3623 2.63665 -3.35038e-19)
(-2.3599 2.63396 -9.82554e-19)
(-1.18399 1.32979 0)
(-1.46685 1.65078 0)
(-1.59513 1.79144 7.20373e-18)
(-1.67972 1.88751 -3.28827e-21)
(-1.74413 1.95902 -7.25103e-18)
(-1.79536 2.01629 6.02599e-18)
(-1.83793 2.06381 -5.69202e-18)
(-1.87434 2.10439 0)
(-1.90612 2.1398 -3.40602e-19)
(-1.93433 2.1712 -5.5032e-18)
(-1.95967 2.19941 4.93948e-18)
(-1.98269 2.22501 5.89552e-19)
(-2.00376 2.24845 2.82085e-19)
(-2.02318 2.27006 -4.86774e-18)
(-2.0412 2.29011 3.89929e-18)
(-2.058 2.30879 2.49968e-19)
(-2.07372 2.32628 2.4085e-19)
(-2.08849 2.34272 4.1816e-18)
(-2.10241 2.35823 -3.20189e-21)
(-2.11557 2.37289 -6.94873e-18)
(-2.12804 2.38679 3.36566e-18)
(-2.13988 2.39999 0)
(-2.15115 2.41256 -3.16152e-18)
(-2.16189 2.42455 3.26724e-21)
(-2.17214 2.43601 2.98618e-18)
(-2.18193 2.44696 3.62811e-19)
(-2.19131 2.45745 2.82283e-18)
(-2.20029 2.4675 -6.18841e-18)
(-2.20889 2.47715 5.35974e-18)
(-2.21715 2.48641 -3.33463e-21)
(-2.22509 2.49531 -2.86853e-18)
(-2.2327 2.50387 0)
(-2.24003 2.5121 0)
(-2.24707 2.52002 2.9641e-19)
(-2.25385 2.52765 2.89609e-19)
(-2.26036 2.53499 -5.66117e-19)
(-2.26663 2.54206 9.27401e-24)
(-2.27267 2.54887 2.70663e-19)
(-2.27848 2.55542 0)
(-2.28407 2.56174 -2.32993e-18)
(-2.28944 2.56781 1.52316e-18)
(-2.29461 2.57366 -1.98395e-18)
(-2.29959 2.57929 2.43204e-18)
(-2.30437 2.5847 1.90206e-18)
(-2.30896 2.5899 -1.86642e-18)
(-2.31337 2.5949 0)
(-2.3176 2.5997 0)
(-2.32166 2.6043 0)
(-2.32555 2.60872 0)
(-2.32926 2.61294 -4.2071e-19)
(-2.33282 2.61698 -1.2349e-18)
(-2.33621 2.62084 1.21382e-18)
(-2.33945 2.62452 0)
(-2.34253 2.62802 -3.87942e-19)
(-2.34545 2.63135 -1.51877e-18)
(-2.34823 2.63451 1.86462e-18)
(-2.35085 2.6375 3.65049e-19)
(-2.35332 2.64032 -1.09097e-23)
(-2.35565 2.64298 3.50477e-19)
(-2.35783 2.64546 0)
(-2.35987 2.64779 6.72822e-19)
(-2.36176 2.64995 0)
(-2.36351 2.65195 0)
(-2.36512 2.65379 -1.89486e-18)
(-2.36658 2.65547 3.09595e-18)
(-2.36791 2.65699 -6.08273e-19)
(-2.36909 2.65835 5.93606e-19)
(-2.37014 2.65956 0)
(-2.37104 2.6606 5.6875e-19)
(-2.37181 2.66148 5.54585e-19)
(-2.37243 2.66221 -2.17847e-18)
(-2.37292 2.66278 1.06763e-18)
(-2.37326 2.66319 0)
(-2.37347 2.66344 0)
(-2.37354 2.66353 4.98348e-19)
(-2.37346 2.66347 0)
(-2.37325 2.66324 4.7617e-19)
(-2.37289 2.66285 -4.63274e-19)
(-2.3724 2.66231 9.11255e-19)
(-2.37176 2.6616 -4.43026e-19)
(-2.37098 2.66073 1.30197e-18)
(-2.37005 2.6597 0)
(-2.36899 2.65851 -4.12273e-19)
(-2.36777 2.65715 4.04357e-19)
(-2.36642 2.65563 0)
(-2.36491 2.65394 -3.84888e-19)
(-2.36326 2.65209 1.12205e-18)
(-2.36147 2.65007 0)
(-2.35952 2.64788 0)
(-2.35743 2.64553 -1.03911e-18)
(-2.35519 2.64301 1.68997e-18)
(-2.3528 2.64031 6.58046e-19)
(-1.18038 1.3339 0)
(-1.4629 1.65512 -5.08466e-19)
(-1.59047 1.79652 4.78443e-19)
(-1.67487 1.89272 4.50461e-19)
(-1.73905 1.96445 6.35522e-18)
(-1.79005 2.02189 -6.38474e-18)
(-1.83246 2.06952 1.45517e-22)
(-1.86871 2.1102 -5.69114e-18)
(-1.90035 2.14569 5.73546e-18)
(-1.92842 2.17717 -5.12688e-18)
(-1.95364 2.20544 9.77054e-18)
(-1.97655 2.23109 -2.94767e-19)
(-1.99752 2.25457 -3.28946e-21)
(-2.01685 2.27622 -4.27872e-18)
(-2.03479 2.29629 0)
(-2.0515 2.315 0)
(-2.06715 2.33252 3.80358e-18)
(-2.08186 2.34898 -7.57072e-18)
(-2.09572 2.3645 3.5471e-18)
(-2.10882 2.37917 -3.42708e-18)
(-2.12124 2.39308 3.32105e-18)
(-2.13303 2.40629 0)
(-2.14426 2.41887 -3.11903e-18)
(-2.15495 2.43087 2.27403e-18)
(-2.16517 2.44233 2.94257e-18)
(-2.17493 2.45329 -3.22261e-18)
(-2.18427 2.46378 0)
(-2.19322 2.47384 3.39144e-19)
(-2.2018 2.48349 0)
(-2.21004 2.49276 0)
(-2.21795 2.50167 3.14267e-19)
(-2.22554 2.51023 -2.45193e-18)
(-2.23285 2.51846 2.39729e-18)
(-2.23987 2.52639 -2.04579e-18)
(-2.24663 2.53402 2.28821e-18)
(-2.25313 2.54137 5.58774e-19)
(-2.25939 2.54844 -1.91061e-18)
(-2.26541 2.55526 4.00821e-18)
(-2.27121 2.56182 -2.09326e-18)
(-2.27679 2.56813 2.55863e-19)
(-2.28215 2.57422 1.00182e-18)
(-2.28731 2.58007 -1.95995e-18)
(-2.29228 2.58571 1.44254e-18)
(-2.29705 2.59113 0)
(-2.30164 2.59634 9.21562e-19)
(-2.30604 2.60134 0)
(-2.31026 2.60615 1.32518e-18)
(-2.31431 2.61076 -4.37083e-19)
(-2.31819 2.61517 -1.70097e-18)
(-2.32191 2.6194 4.16334e-19)
(-2.32546 2.62345 0)
(-2.32884 2.62732 0)
(-2.33207 2.631 0)
(-2.33515 2.63451 3.84302e-19)
(-2.33807 2.63785 -1.50489e-18)
(-2.34084 2.64101 2.95391e-18)
(-2.34346 2.64401 -3.25731e-18)
(-2.34593 2.64683 -3.50923e-19)
(-2.34825 2.64949 6.97288e-19)
(-2.35043 2.65199 -1.36107e-18)
(-2.35246 2.65432 3.87336e-21)
(-2.35435 2.65649 1.31085e-18)
(-2.3561 2.65849 6.41246e-19)
(-2.35771 2.66034 6.28266e-19)
(-2.35917 2.66202 0)
(-2.36049 2.66354 1.8066e-18)
(-2.36168 2.66491 -3.96038e-21)
(-2.36272 2.66611 -1.1584e-18)
(-2.36363 2.66716 -5.66151e-19)
(-2.36439 2.66805 0)
(-2.36502 2.66878 0)
(-2.3655 2.66935 -5.30962e-19)
(-2.36585 2.66976 0)
(-2.36606 2.67001 -5.0831e-19)
(-2.36613 2.6701 -1.48963e-18)
(-2.36605 2.67004 4.90321e-19)
(-2.36584 2.66981 -4.71419e-19)
(-2.36549 2.66942 9.31681e-19)
(-2.365 2.66888 -4.54319e-19)
(-2.36436 2.66817 8.87926e-19)
(-2.36358 2.6673 -8.67491e-19)
(-2.36266 2.66627 0)
(-2.3616 2.66507 0)
(-2.36039 2.66371 8.07878e-19)
(-2.35904 2.66219 0)
(-2.35754 2.6605 7.6956e-19)
(-2.3559 2.65864 -1.50163e-18)
(-2.35411 2.65662 0)
(-2.35217 2.65442 7.14176e-19)
(-2.35009 2.65206 0)
(-2.34785 2.64953 -6.78677e-19)
(-2.34546 2.64683 0)
(-1.17658 1.33788 8.81225e-18)
(-1.45865 1.65945 9.12738e-18)
(-1.58553 1.80154 -1.52526e-17)
(-1.66977 1.89788 3.23037e-21)
(-1.7337 1.96985 7.57995e-18)
(-1.78451 2.02744 -6.7288e-18)
(-1.82676 2.0752 -3.69603e-19)
(-1.86287 2.11599 5.64189e-18)
(-1.89438 2.15159 5.6753e-18)
(-1.92233 2.18314 -9.83212e-18)
(-1.94745 2.21148 3.05369e-19)
(-1.97025 2.2372 4.3241e-18)
(-1.99113 2.26074 0)
(-2.01038 2.28243 2.64029e-19)
(-2.02823 2.30255 2.5351e-19)
(-2.04487 2.32129 0)
(-2.06044 2.33884 3.75428e-18)
(-2.07508 2.35533 -3.24266e-21)
(-2.08888 2.37087 -3.28125e-18)
(-2.10193 2.38556 2.11425e-19)
(-2.11429 2.39949 0)
(-2.12603 2.41272 -2.77476e-18)
(-2.13721 2.42532 2.69465e-18)
(-2.14786 2.43733 -3.33316e-23)
(-2.15803 2.4488 -2.90186e-18)
(-2.16776 2.45977 3.17801e-18)
(-2.17706 2.47027 0)
(-2.18598 2.48034 0)
(-2.19453 2.49 -2.27959e-18)
(-2.20274 2.49927 3.28283e-21)
(-2.21062 2.50819 2.48123e-18)
(-2.2182 2.51676 0)
(-2.22548 2.525 -2.36135e-18)
(-2.23248 2.53293 2.02146e-18)
(-2.23922 2.54057 -1.97215e-18)
(-2.2457 2.54792 1.93132e-18)
(-2.25194 2.555 -2.69583e-19)
(-2.25795 2.56182 -1.84432e-18)
(-2.26373 2.56839 2.06616e-18)
(-2.26929 2.57471 0)
(-2.27465 2.5808 1.97654e-18)
(-2.2798 2.58666 -1.93895e-18)
(-2.28475 2.5923 0)
(-2.28951 2.59773 0)
(-2.29409 2.60295 -2.2746e-18)
(-2.29848 2.60796 1.34016e-18)
(-2.3027 2.61277 2.18432e-18)
(-2.30674 2.61739 -2.99975e-18)
(-2.31061 2.62181 1.68207e-18)
(-2.31432 2.62605 0)
(-2.31786 2.6301 0)
(-2.32124 2.63397 1.97719e-18)
(-2.32447 2.63766 -1.55413e-18)
(-2.32754 2.64118 -3.8049e-19)
(-2.33045 2.64452 0)
(-2.33322 2.64769 -1.82705e-18)
(-2.33583 2.65069 3.77097e-21)
(-2.3383 2.65352 1.05678e-18)
(-2.34062 2.65619 2.06651e-18)
(-2.34279 2.65869 -1.69173e-18)
(-2.34482 2.66102 6.62604e-19)
(-2.34671 2.6632 0)
(-2.34846 2.66521 -1.34607e-23)
(-2.35006 2.66705 0)
(-2.35152 2.66874 6.11419e-19)
(-2.35284 2.67027 5.9714e-19)
(-2.35403 2.67164 -1.17592e-18)
(-2.35507 2.67284 5.75014e-19)
(-2.35597 2.67389 5.63223e-19)
(-2.35674 2.67478 5.51597e-19)
(-2.35737 2.67551 -1.07827e-18)
(-2.35785 2.67609 1.58847e-18)
(-2.3582 2.6765 0)
(-2.35841 2.67675 5.06659e-19)
(-2.35848 2.67685 -4.95789e-19)
(-2.35841 2.67678 -9.70145e-19)
(-2.3582 2.67655 -4.74492e-19)
(-2.35785 2.67617 0)
(-2.35736 2.67562 4.5376e-19)
(-2.35672 2.67491 0)
(-2.35595 2.67404 8.67132e-19)
(-2.35503 2.673 0)
(-2.35397 2.6718 0)
(-2.35277 2.67044 -8.06553e-19)
(-2.35143 2.66891 2.04752e-21)
(-2.34993 2.66722 7.70901e-19)
(-2.3483 2.66536 6.31923e-24)
(-2.34651 2.66333 -7.34281e-19)
(-2.34458 2.66114 -7.16379e-19)
(-2.3425 2.65877 -1.39542e-18)
(-2.34027 2.65623 6.83412e-19)
(-2.3379 2.65353 0)
(-1.17266 1.34183 -8.8035e-18)
(-1.45415 1.66385 7.58944e-18)
(-1.58037 1.80657 0)
(-1.66444 1.90307 7.12784e-18)
(-1.7281 1.97529 -7.52798e-18)
(-1.77873 2.03303 -9.28606e-23)
(-1.82083 2.08092 5.54554e-18)
(-1.85679 2.12184 -3.41982e-21)
(-1.88818 2.15752 -5.95102e-18)
(-1.91603 2.18917 0)
(-1.94104 2.21759 -2.98514e-19)
(-1.96375 2.24337 -4.55471e-18)
(-1.98454 2.26697 4.35725e-18)
(-2.00371 2.28872 0)
(-2.02148 2.30888 -2.5022e-19)
(-2.03805 2.32767 -2.40585e-19)
(-2.05355 2.34525 0)
(-2.06813 2.36177 -3.34866e-18)
(-2.08186 2.37735 6.68561e-18)
(-2.09485 2.39207 -6.88053e-18)
(-2.10716 2.40602 6.45792e-18)
(-2.11885 2.41928 -3.9428e-19)
(-2.12998 2.43189 -2.65686e-18)
(-2.14059 2.44392 3.6823e-19)
(-2.15072 2.45541 0)
(-2.1604 2.46639 -3.47921e-19)
(-2.16967 2.47691 0)
(-2.17855 2.48699 2.96582e-18)
(-2.18707 2.49666 -2.89314e-18)
(-2.19525 2.50595 2.50437e-18)
(-2.2031 2.51487 -4.8894e-18)
(-2.21065 2.52345 2.68604e-18)
(-2.2179 2.5317 0)
(-2.22488 2.53964 2.27468e-18)
(-2.2316 2.54729 -5.00567e-18)
(-2.23806 2.55465 2.17681e-18)
(-2.24428 2.56174 -1.72231e-24)
(-2.25027 2.56856 0)
(-2.25604 2.57514 -2.28988e-18)
(-2.26158 2.58147 3.40353e-21)
(-2.26692 2.58757 1.46608e-18)
(-2.27206 2.59344 0)
(-2.277 2.59908 -1.87153e-18)
(-2.28175 2.60452 2.29598e-18)
(-2.28631 2.60974 0)
(-2.29069 2.61476 7.4471e-24)
(-2.2949 2.61958 -1.72618e-18)
(-2.29893 2.6242 2.96449e-18)
(-2.3028 2.62863 -2.07787e-18)
(-2.3065 2.63287 0)
(-2.31003 2.63693 3.99231e-19)
(-2.31341 2.64081 -3.91516e-19)
(-2.31662 2.64451 0)
(-2.31969 2.64803 -1.50436e-18)
(-2.3226 2.65138 1.47905e-18)
(-2.32536 2.65455 3.62197e-19)
(-2.32796 2.65756 0)
(-2.33043 2.6604 6.96736e-19)
(-2.33274 2.66307 -3.41644e-19)
(-2.33491 2.66557 6.82952e-24)
(-2.33694 2.66791 6.55141e-19)
(-2.33882 2.67009 -1.29044e-18)
(-2.34057 2.6721 -6.31687e-19)
(-2.34217 2.67395 -6.19283e-19)
(-2.34363 2.67564 -6.07089e-19)
(-2.34495 2.67718 0)
(-2.34613 2.67855 5.83205e-19)
(-2.34717 2.67976 -5.71533e-19)
(-2.34808 2.68081 -1.12002e-18)
(-2.34884 2.6817 -5.48654e-19)
(-2.34947 2.68243 -1.0729e-18)
(-2.34995 2.68301 1.58114e-18)
(-2.3503 2.68342 -1.02895e-18)
(-2.35051 2.68367 5.0671e-19)
(-2.35058 2.68377 1.48023e-18)
(-2.35051 2.6837 -4.85596e-19)
(-2.35031 2.68348 4.73236e-19)
(-2.34996 2.68309 -9.23994e-19)
(-2.34947 2.68254 9.07867e-19)
(-2.34884 2.68183 0)
(-2.34807 2.68095 -1.73252e-18)
(-2.34716 2.67992 -8.46851e-19)
(-2.3461 2.67872 8.27702e-19)
(-2.34491 2.67735 -1.61762e-18)
(-2.34357 2.67582 7.90173e-19)
(-2.34208 2.67412 -1.54151e-18)
(-2.34045 2.67226 1.50935e-18)
(-2.33867 2.67022 5.64606e-24)
(-2.33675 2.66802 7.16081e-19)
(-2.33468 2.66565 -2.0499e-21)
(-2.33246 2.66311 -6.83648e-19)
(-2.33009 2.6604 6.64732e-19)
(-1.16862 1.3458 -8.27941e-18)
(-1.44944 1.66835 -8.0707e-18)
(-1.57501 1.81166 3.11815e-21)
(-1.65889 1.90835 1.41753e-17)
(-1.72229 1.98081 -6.22921e-18)
(-1.77275 2.03871 6.62117e-18)
(-1.81469 2.08673 -5.4988e-18)
(-1.85051 2.12776 0)
(-1.88178 2.16355 3.27005e-19)
(-1.90951 2.19528 4.65189e-18)
(-1.93443 2.22378 -4.42776e-18)
(-1.95705 2.24963 5.6266e-19)
(-1.97775 2.27329 2.68854e-19)
(-1.99683 2.2951 -3.85964e-18)
(-2.01453 2.31531 4.20006e-18)
(-2.03103 2.33415 4.03335e-18)
(-2.04647 2.35178 -3.65738e-18)
(-2.06098 2.36834 3.52287e-18)
(-2.07465 2.38395 -3.40417e-18)
(-2.08758 2.3987 -2.05581e-19)
(-2.09984 2.41268 -3.18157e-18)
(-2.11148 2.42596 3.08562e-18)
(-2.12256 2.4386 3.73895e-19)
(-2.13312 2.45065 -3.62958e-19)
(-2.1432 2.46216 0)
(-2.15285 2.47316 -2.74157e-18)
(-2.16208 2.4837 2.67104e-18)
(-2.17092 2.4938 -3.2493e-19)
(-2.17941 2.50348 0)
(-2.18755 2.51278 2.77695e-18)
(-2.19537 2.52172 -2.71233e-18)
(-2.20289 2.53031 -2.93827e-18)
(-2.21012 2.53857 2.29843e-18)
(-2.21707 2.54653 -2.24237e-18)
(-2.22376 2.55418 2.46914e-18)
(-2.2302 2.56155 0)
(-2.2364 2.56865 2.62223e-19)
(-2.24237 2.57549 2.56584e-19)
(-2.24812 2.58207 -1.50514e-18)
(-2.25365 2.58841 3.93404e-18)
(-2.25897 2.59451 -4.84966e-19)
(-2.26409 2.60039 -3.30212e-18)
(-2.26901 2.60605 1.85044e-18)
(-2.27375 2.61149 9.04109e-19)
(-2.2783 2.61672 -1.77739e-18)
(-2.28267 2.62174 4.35166e-19)
(-2.28686 2.62657 1.70482e-18)
(-2.29089 2.6312 -8.38435e-19)
(-2.29474 2.63563 2.04947e-18)
(-2.29843 2.63988 -1.20882e-18)
(-2.30196 2.64395 -6.13191e-24)
(-2.30532 2.64783 0)
(-2.30853 2.65154 -1.51702e-18)
(-2.31159 2.65506 1.86422e-18)
(-2.31449 2.65842 0)
(-2.31724 2.6616 0)
(-2.31985 2.66461 1.40476e-18)
(-2.32231 2.66745 -6.93654e-19)
(-2.32462 2.67013 -1.69388e-18)
(-2.32678 2.67264 -9.9397e-19)
(-2.32881 2.67498 1.30432e-18)
(-2.33069 2.67716 -6.38731e-19)
(-2.33243 2.67918 6.24548e-19)
(-2.33402 2.68104 -6.16266e-19)
(-2.33548 2.68273 -1.20297e-18)
(-2.3368 2.68426 1.18336e-18)
(-2.33798 2.68564 -1.1583e-18)
(-2.33902 2.68685 0)
(-2.33992 2.6879 2.22403e-18)
(-2.34069 2.6888 -1.09277e-18)
(-2.34131 2.68953 -1.06694e-18)
(-2.3418 2.69011 5.25632e-19)
(-2.34215 2.69052 0)
(-2.34236 2.69078 5.02476e-19)
(-2.34243 2.69087 0)
(-2.34237 2.69081 4.81821e-19)
(-2.34216 2.69058 4.6968e-19)
(-2.34182 2.69019 -9.25397e-19)
(-2.34133 2.68964 0)
(-2.3407 2.68893 4.42058e-19)
(-2.33994 2.68805 1.72972e-18)
(-2.33903 2.68701 8.45845e-19)
(-2.33798 2.68581 -8.2707e-19)
(-2.33679 2.68444 6.51231e-24)
(-2.33545 2.68291 0)
(-2.33397 2.6812 -7.72181e-19)
(-2.33235 2.67934 -2.05435e-21)
(-2.33058 2.6773 -2.05081e-21)
(-2.32866 2.67509 0)
(-2.3266 2.67271 -7.02369e-19)
(-2.32438 2.67017 1.36898e-18)
(-2.32202 2.66745 -2.06178e-21)
(-1.16445 1.34979 -8.27131e-18)
(-1.44452 1.67296 -8.04809e-18)
(-1.56947 1.81683 1.50495e-17)
(-1.65314 1.91373 -7.04626e-18)
(-1.71628 1.98642 0)
(-1.76655 2.04447 0)
(-1.80833 2.09264 0)
(-1.84402 2.13378 5.47352e-18)
(-1.87516 2.16967 -5.17777e-18)
(-1.90279 2.2015 3.06677e-19)
(-1.9276 2.23007 4.6633e-18)
(-1.95012 2.256 -2.8114e-19)
(-1.97074 2.27973 -8.75823e-18)
(-1.98974 2.30159 3.81238e-18)
(-2.00737 2.32186 -4.87314e-19)
(-2.02379 2.34075 3.97832e-18)
(-2.03917 2.35842 2.22116e-19)
(-2.05361 2.37502 -3.69365e-18)
(-2.06723 2.39067 0)
(-2.0801 2.40546 3.64547e-18)
(-2.0923 2.41947 -3.13864e-18)
(-2.10389 2.43279 3.79903e-19)
(-2.11492 2.44545 -3.68378e-19)
(-2.12544 2.45753 3.57583e-19)
(-2.13548 2.46906 0)
(-2.14508 2.48009 2.70103e-18)
(-2.15427 2.49064 -2.63153e-18)
(-2.16308 2.50076 3.20144e-19)
(-2.17152 2.51046 3.11965e-19)
(-2.17963 2.51978 -6.08348e-19)
(-2.18742 2.52873 2.6692e-18)
(-2.19491 2.53734 -4.34516e-18)
(-2.20211 2.54562 2.26486e-18)
(-2.20904 2.55358 1.93334e-18)
(-2.2157 2.56125 -4.32326e-18)
(-2.22212 2.56863 2.11547e-18)
(-2.22829 2.57574 2.58488e-19)
(-2.23424 2.58259 -2.52948e-19)
(-2.23996 2.58918 1.97924e-18)
(-2.24547 2.59553 -1.69886e-18)
(-2.25078 2.60164 -9.48222e-19)
(-2.25588 2.60753 1.39758e-18)
(-2.26079 2.61319 -4.55957e-19)
(-2.26551 2.61864 1.78585e-18)
(-2.27004 2.62388 -1.75402e-18)
(-2.2744 2.62891 2.14588e-18)
(-2.27858 2.63374 -3.45361e-21)
(-2.28259 2.63838 -4.16551e-19)
(-2.28643 2.64282 -1.62241e-18)
(-2.29011 2.64708 -3.9745e-19)
(-2.29363 2.65115 1.16796e-18)
(-2.29699 2.65504 -1.53195e-18)
(-2.30019 2.65875 -3.75336e-19)
(-2.30324 2.66229 0)
(-2.30613 2.66565 -3.61373e-19)
(-2.30888 2.66883 -1.41658e-18)
(-2.31147 2.67185 1.74161e-18)
(-2.31393 2.6747 2.04678e-18)
(-2.31623 2.67738 -6.7191e-19)
(-2.31839 2.67989 0)
(-2.32041 2.68224 6.45099e-19)
(-2.32229 2.68442 1.89691e-18)
(-2.32402 2.68645 -1.24377e-18)
(-2.32562 2.68831 6.0915e-19)
(-2.32707 2.69 -1.19316e-18)
(-2.32839 2.69154 3.83465e-21)
(-2.32957 2.69292 2.30114e-18)
(-2.33061 2.69413 0)
(-2.33151 2.69519 -6.91249e-24)
(-2.33227 2.69608 1.0818e-18)
(-2.3329 2.69682 -1.06434e-18)
(-2.33339 2.6974 0)
(-2.33373 2.69781 1.52873e-18)
(-2.33395 2.69807 -3.96804e-21)
(-2.33402 2.69816 -9.81605e-19)
(-2.33396 2.6981 4.77779e-19)
(-2.33375 2.69787 -4.7188e-19)
(-2.33341 2.69748 0)
(-2.33293 2.69693 0)
(-2.3323 2.69621 -3.7849e-24)
(-2.33154 2.69534 -7.13922e-24)
(-2.33064 2.69429 8.44312e-19)
(-2.32959 2.69309 -8.2592e-19)
(-2.32841 2.69172 2.04932e-21)
(-2.32707 2.69018 4.09466e-21)
(-2.3256 2.68847 2.31838e-18)
(-2.32398 2.6866 7.54631e-19)