/*--------------------------------*- C++ -*----------------------------------*\
  =========                 |
  \\      /  F ield         | OpenFOAM: The Open Source CFD Toolbox
   \\    /   O peration     | Website:  https://openfoam.org
    \\  /    A nd           | Version:  10
     \\/     M anipulation  |
\*---------------------------------------------------------------------------*/
FoamFile
{
    format      ascii;
    class       volScalarField;
    location    "70000";
    object      Co;
}
// * * * * * * * * * * * * * * * * * * * * * * * * * * * * * * * * * * * * * //

dimensions      [0 0 0 0 0 0 0];

internalField   nonuniform List<scalar> 
17922
(
4553.34
4542.61
4531.81
4520.93
4509.96
4498.89
4487.72
4476.45
4465.05
4453.53
4441.87
4430.06
4418.1
4405.97
4393.66
4381.16
4368.46
4355.53
4342.37
4328.95
4315.27
4301.3
4287.02
4272.4
4257.43
4242.08
4226.31
4210.11
4193.58
4177
4160.49
4144.03
4127.62
4111.24
4094.88
4078.55
4062.21
4045.88
4029.55
4013.2
3996.82
3980.42
3963.98
3947.51
3930.98
3914.4
3897.76
3881.06
3864.37
3847.67
3830.9
3814.04
3797.09
3780.06
3762.92
3745.69
3728.35
3710.91
3693.35
3675.69
3657.91
3640.02
3622.01
3603.9
3585.68
3567.36
3548.93
3530.42
3511.83
3493.17
3474.45
3455.68
3436.88
3418.07
3399.25
3380.45
3361.68
3342.95
3324.28
3305.69
3287.19
3268.79
3250.5
3232.34
3214.31
3196.43
3178.7
3161.12
3143.7
3126.45
3109.36
3092.44
3075.68
4422.55
4412.13
4401.64
4391.06
4380.41
4369.66
4358.81
4347.86
4336.79
4325.6
4314.27
4302.81
4291.19
4279.41
4267.45
4255.31
4242.96
4230.41
4217.63
4204.6
4191.31
4177.73
4163.86
4149.67
4135.13
4120.22
4104.91
4089.17
4073.12
4057.01
4040.98
4024.99
4009.05
3993.15
3977.27
3961.4
3945.54
3929.68
3913.82
3897.94
3882.04
3866.11
3850.15
3834.15
3818.1
3802
3785.84
3769.64
3753.45
3737.23
3720.94
3704.58
3688.12
3671.58
3654.95
3638.21
3621.38
3604.44
3587.39
3570.24
3552.98
3535.6
3518.12
3500.53
3482.84
3465.05
3447.16
3429.19
3411.14
3393.02
3374.84
3356.62
3338.37
3320.11
3301.84
3283.59
3265.36
3247.18
3229.06
3211
3193.03
3175.16
3157.4
3139.76
3122.24
3104.86
3087.62
3070.54
3053.6
3036.82
3020.2
3003.73
2987.42
4295.52
4285.39
4275.2
4264.93
4254.58
4244.14
4233.6
4222.96
4212.21
4201.34
4190.34
4179.2
4167.92
4156.47
4144.86
4133.07
4121.08
4108.88
4096.47
4083.81
4070.9
4057.72
4044.25
4030.46
4016.34
4001.86
3986.99
3971.7
3956.11
3940.47
3924.9
3909.38
3893.9
3878.45
3863.03
3847.62
3832.22
3816.82
3801.41
3785.99
3770.55
3755.08
3739.58
3724.04
3708.46
3692.83
3677.13
3661.42
3645.71
3629.96
3614.15
3598.25
3582.28
3566.22
3550.07
3533.82
3517.47
3501.02
3484.47
3467.81
3451.05
3434.18
3417.21
3400.13
3382.95
3365.67
3348.3
3330.85
3313.32
3295.73
3278.08
3260.39
3242.67
3224.94
3207.2
3189.48
3171.79
3154.13
3136.53
3119
3101.55
3084.19
3066.93
3049.79
3032.77
3015.88
2999.12
2982.51
2966.04
2949.72
2933.54
2917.52
2901.64
4172.13
4162.3
4152.4
4142.42
4132.37
4122.22
4111.99
4101.65
4091.21
4080.65
4069.97
4059.15
4048.19
4037.07
4025.79
4014.34
4002.69
3990.85
3978.79
3966.5
3953.96
3941.16
3928.07
3914.68
3900.96
3886.9
3872.46
3857.61
3842.47
3827.28
3812.16
3797.08
3782.05
3767.05
3752.07
3737.1
3722.15
3707.19
3692.23
3677.26
3662.26
3647.24
3632.19
3617.1
3601.97
3586.79
3571.55
3556.3
3541.06
3525.77
3510.42
3494.98
3479.47
3463.88
3448.19
3432.41
3416.54
3400.57
3384.5
3368.32
3352.04
3335.66
3319.17
3302.59
3285.91
3269.13
3252.26
3235.32
3218.3
3201.22
3184.08
3166.91
3149.7
3132.48
3115.26
3098.05
3080.87
3063.72
3046.63
3029.6
3012.65
2995.79
2979.02
2962.36
2945.82
2929.4
2913.12
2896.96
2880.95
2865.07
2849.34
2833.74
2818.29
4052.29
4042.74
4033.12
4023.43
4013.66
4003.81
3993.87
3983.83
3973.69
3963.43
3953.05
3942.54
3931.89
3921.1
3910.14
3899.01
3887.71
3876.2
3864.49
3852.55
3840.37
3827.94
3815.23
3802.22
3788.9
3775.24
3761.22
3746.8
3732.09
3717.34
3702.65
3688.01
3673.41
3658.84
3644.3
3629.76
3615.24
3600.72
3586.19
3571.65
3557.09
3542.5
3527.88
3513.23
3498.54
3483.79
3468.99
3454.2
3439.42
3424.57
3409.66
3394.68
3379.61
3364.47
3349.24
3333.92
3318.5
3302.99
3287.38
3271.68
3255.87
3239.96
3223.95
3207.84
3191.64
3175.35
3158.97
3142.51
3125.99
3109.4
3092.76
3076.08
3059.38
3042.66
3025.93
3009.22
2992.53
2975.88
2959.28
2942.74
2926.28
2909.89
2893.6
2877.41
2861.34
2845.38
2829.54
2813.83
2798.26
2782.81
2767.5
2752.33
2737.29
3935.89
3926.61
3917.27
3907.85
3898.37
3888.8
3879.14
3869.39
3859.54
3849.57
3839.49
3829.29
3818.94
3808.46
3797.81
3787.01
3776.02
3764.85
3753.47
3741.88
3730.05
3717.97
3705.63
3693
3680.06
3666.79
3653.17
3639.16
3624.88
3610.56
3596.29
3582.07
3567.89
3553.75
3539.62
3525.51
3511.4
3497.3
3483.19
3469.07
3454.93
3440.77
3426.57
3412.34
3398.07
3383.75
3369.4
3355.04
3340.69
3326.28
3311.8
3297.24
3282.62
3267.91
3253.12
3238.24
3223.27
3208.21
3193.05
3177.8
3162.44
3146.99
3131.44
3115.8
3100.07
3084.24
3068.34
3052.36
3036.31
3020.2
3004.04
2987.85
2971.62
2955.39
2939.15
2922.92
2906.71
2890.54
2874.41
2858.34
2842.35
2826.43
2810.6
2794.86
2779.24
2763.72
2748.32
2733.05
2717.9
2702.88
2687.98
2673.22
2658.58
3822.83
3813.82
3804.74
3795.6
3786.38
3777.09
3767.71
3758.24
3748.67
3738.99
3729.2
3719.28
3709.24
3699.05
3688.71
3678.22
3667.55
3656.69
3645.64
3634.38
3622.89
3611.16
3599.17
3586.91
3574.34
3561.45
3548.22
3534.62
3520.76
3506.84
3492.99
3479.18
3465.41
3451.67
3437.95
3424.25
3410.55
3396.85
3383.15
3369.44
3355.71
3341.95
3328.17
3314.35
3300.49
3286.59
3272.66
3258.74
3244.8
3230.8
3216.74
3202.61
3188.4
3174.12
3159.76
3145.31
3130.77
3116.14
3101.42
3086.6
3071.69
3056.69
3041.59
3026.39
3011.11
2995.74
2980.3
2964.77
2949.19
2933.54
2917.85
2902.12
2886.37
2870.6
2854.82
2839.06
2823.32
2807.61
2791.95
2776.34
2760.79
2745.32
2729.94
2714.65
2699.46
2684.37
2669.4
2654.55
2639.81
2625.2
2610.71
2596.34
2582.09
3713.02
3704.27
3695.45
3686.57
3677.62
3668.59
3659.48
3650.28
3640.98
3631.58
3622.07
3612.44
3602.68
3592.79
3582.75
3572.55
3562.19
3551.65
3540.91
3529.97
3518.81
3507.42
3495.78
3483.86
3471.66
3459.14
3446.29
3433.09
3419.62
3406.1
3392.65
3379.24
3365.86
3352.52
3339.2
3325.89
3312.59
3299.29
3285.98
3272.67
3259.33
3245.98
3232.59
3219.17
3205.72
3192.22
3178.7
3165.19
3151.65
3138.06
3124.41
3110.68
3096.89
3083.02
3069.07
3055.04
3040.92
3026.71
3012.41
2998.02
2983.54
2968.96
2954.29
2939.54
2924.69
2909.77
2894.76
2879.69
2864.55
2849.36
2834.12
2818.84
2803.54
2788.22
2772.9
2757.59
2742.3
2727.04
2711.82
2696.65
2681.55
2666.52
2651.56
2636.7
2621.93
2607.27
2592.71
2578.26
2563.93
2549.71
2535.62
2521.64
2507.77
3606.37
3597.86
3589.3
3580.67
3571.97
3563.2
3554.35
3545.42
3536.38
3527.25
3518.02
3508.66
3499.18
3489.57
3479.82
3469.92
3459.85
3449.61
3439.19
3428.56
3417.73
3406.66
3395.35
3383.78
3371.93
3359.77
3347.29
3334.46
3321.38
3308.26
3295.19
3282.17
3269.18
3256.22
3243.28
3230.36
3217.44
3204.53
3191.61
3178.67
3165.73
3152.76
3139.76
3126.73
3113.66
3100.55
3087.44
3074.33
3061.19
3047.99
3034.72
3021.4
3008
2994.53
2980.98
2967.35
2953.64
2939.84
2925.95
2911.97
2897.9
2883.75
2869.5
2855.17
2840.75
2826.25
2811.67
2797.03
2782.33
2767.57
2752.76
2737.93
2723.06
2708.18
2693.3
2678.43
2663.57
2648.75
2633.96
2619.22
2604.55
2589.94
2575.4
2560.96
2546.6
2532.34
2518.18
2504.13
2490.19
2476.36
2462.65
2449.05
2435.56
3502.77
3494.51
3486.19
3477.81
3469.36
3460.85
3452.25
3443.57
3434.8
3425.93
3416.95
3407.87
3398.66
3389.33
3379.85
3370.24
3360.46
3350.51
3340.39
3330.07
3319.54
3308.8
3297.81
3286.57
3275.06
3263.25
3251.13
3238.67
3225.97
3213.22
3200.53
3187.88
3175.27
3162.69
3150.12
3137.57
3125.03
3112.49
3099.94
3087.38
3074.81
3062.21
3049.59
3036.94
3024.25
3011.52
2998.79
2986.08
2973.31
2960.49
2947.61
2934.67
2921.66
2908.58
2895.42
2882.18
2868.86
2855.45
2841.96
2828.38
2814.72
2800.97
2787.13
2773.2
2759.19
2745.11
2730.95
2716.73
2702.45
2688.11
2673.73
2659.32
2644.88
2630.42
2615.97
2601.52
2587.08
2572.68
2558.31
2543.99
2529.72
2515.52
2501.4
2487.35
2473.39
2459.53
2445.76
2432.1
2418.54
2405.09
2391.75
2378.51
2365.39
3402.15
3394.13
3386.05
3377.91
3369.7
3361.43
3353.08
3344.64
3336.12
3327.51
3318.79
3309.97
3301.02
3291.96
3282.76
3273.41
3263.92
3254.26
3244.42
3234.4
3224.18
3213.74
3203.07
3192.15
3180.97
3169.51
3157.74
3145.64
3133.3
3120.92
3108.59
3096.31
3084.06
3071.84
3059.64
3047.45
3035.27
3023.09
3010.9
2998.71
2986.5
2974.27
2962.01
2949.72
2937.4
2925.05
2912.7
2900.35
2887.96
2875.51
2863
2850.43
2837.79
2825.08
2812.3
2799.44
2786.5
2773.48
2760.38
2747.19
2733.91
2720.55
2707.1
2693.58
2679.97
2666.29
2652.53
2638.72
2624.84
2610.91
2596.94
2582.94
2568.91
2554.87
2540.83
2526.79
2512.76
2498.76
2484.8
2470.88
2457.02
2443.22
2429.48
2415.83
2402.26
2388.78
2375.39
2362.1
2348.91
2335.83
2322.85
2309.98
2297.22
3304.42
3296.63
3288.78
3280.87
3272.9
3264.86
3256.75
3248.56
3240.28
3231.92
3223.45
3214.88
3206.19
3197.39
3188.45
3179.38
3170.15
3160.77
3151.22
3141.48
3131.55
3121.41
3111.05
3100.45
3089.59
3078.45
3067.02
3055.27
3043.29
3031.27
3019.3
3007.37
2995.47
2983.6
2971.75
2959.92
2948.09
2936.26
2924.43
2912.58
2900.73
2888.85
2876.95
2865.02
2853.05
2841.06
2829.08
2817.09
2805.05
2792.96
2780.81
2768.6
2756.33
2743.98
2731.57
2719.08
2706.51
2693.86
2681.12
2668.31
2655.41
2642.43
2629.37
2616.23
2603.01
2589.71
2576.35
2562.93
2549.44
2535.91
2522.34
2508.74
2495.11
2481.46
2467.82
2454.17
2440.55
2426.94
2413.37
2399.85
2386.37
2372.95
2359.61
2346.33
2333.13
2320.03
2307.01
2294.08
2281.26
2268.53
2255.91
2243.39
2230.98
3209.5
3201.92
3194.3
3186.62
3178.88
3171.07
3163.19
3155.24
3147.2
3139.07
3130.85
3122.52
3114.08
3105.53
3096.85
3088.04
3079.08
3069.96
3060.69
3051.23
3041.59
3031.74
3021.68
3011.38
3000.83
2990.02
2978.91
2967.5
2955.86
2944.19
2932.56
2920.98
2909.42
2897.9
2886.39
2874.9
2863.41
2851.92
2840.43
2828.93
2817.42
2805.88
2794.33
2782.74
2771.12
2759.49
2747.86
2736.22
2724.52
2712.78
2700.98
2689.12
2677.19
2665.2
2653.14
2641.01
2628.8
2616.51
2604.14
2591.69
2579.16
2566.54
2553.85
2541.08
2528.24
2515.32
2502.34
2489.29
2476.19
2463.05
2449.86
2436.64
2423.4
2410.14
2396.88
2383.62
2370.38
2357.16
2343.97
2330.82
2317.72
2304.68
2291.7
2278.8
2265.97
2253.22
2240.56
2227.99
2215.52
2203.14
2190.87
2178.69
2166.62
3117.3
3109.94
3102.54
3095.08
3087.56
3079.97
3072.32
3064.59
3056.78
3048.89
3040.9
3032.81
3024.62
3016.31
3007.88
2999.32
2990.62
2981.77
2972.76
2963.57
2954.2
2944.64
2934.87
2924.87
2914.62
2904.12
2893.33
2882.25
2870.95
2859.61
2848.32
2837.07
2825.85
2814.66
2803.48
2792.32
2781.16
2770.01
2758.85
2747.68
2736.5
2725.3
2714.08
2702.82
2691.54
2680.25
2668.97
2657.66
2646.3
2634.9
2623.43
2611.91
2600.33
2588.68
2576.96
2565.18
2553.31
2541.37
2529.35
2517.26
2505.08
2492.82
2480.49
2468.08
2455.6
2443.05
2430.43
2417.76
2405.03
2392.25
2379.44
2366.59
2353.73
2340.84
2327.96
2315.07
2302.2
2289.35
2276.53
2263.75
2251.02
2238.34
2225.72
2213.17
2200.7
2188.3
2175.99
2163.77
2151.64
2139.61
2127.67
2115.84
2104.1
3027.75
3020.6
3013.41
3006.16
2998.86
2991.49
2984.06
2976.55
2968.97
2961.3
2953.54
2945.68
2937.73
2929.66
2921.47
2913.15
2904.7
2896.1
2887.35
2878.43
2869.33
2860.04
2850.55
2840.84
2830.89
2820.69
2810.21
2799.45
2788.47
2777.46
2766.49
2755.57
2744.67
2733.8
2722.95
2712.11
2701.28
2690.44
2679.61
2668.76
2657.9
2647.03
2636.13
2625.2
2614.25
2603.29
2592.35
2581.36
2570.33
2559.24
2548.11
2536.92
2525.67
2514.35
2502.97
2491.51
2479.98
2468.38
2456.7
2444.95
2433.12
2421.21
2409.22
2397.16
2385.03
2372.84
2360.58
2348.26
2335.89
2323.47
2311.02
2298.54
2286.03
2273.51
2260.99
2248.46
2235.95
2223.46
2211
2198.58
2186.2
2173.87
2161.6
2149.4
2137.27
2125.22
2113.25
2101.37
2089.58
2077.88
2066.27
2054.76
2043.35
2940.77
2933.83
2926.84
2919.8
2912.71
2905.55
2898.33
2891.04
2883.67
2876.22
2868.69
2861.06
2853.33
2845.49
2837.54
2829.46
2821.25
2812.9
2804.4
2795.73
2786.9
2777.88
2768.65
2759.22
2749.56
2739.65
2729.48
2719.02
2708.36
2697.67
2687.02
2676.41
2665.83
2655.27
2644.73
2634.21
2623.68
2613.17
2602.64
2592.11
2581.57
2571.01
2560.42
2549.81
2539.18
2528.55
2517.92
2507.24
2496.53
2485.76
2474.95
2464.07
2453.14
2442.15
2431.09
2419.96
2408.75
2397.48
2386.13
2374.71
2363.21
2351.64
2339.99
2328.27
2316.48
2304.63
2292.71
2280.74
2268.72
2256.65
2244.55
2232.41
2220.26
2208.09
2195.92
2183.74
2171.58
2159.44
2147.33
2135.25
2123.22
2111.23
2099.3
2087.44
2075.65
2063.93
2052.29
2040.74
2029.27
2017.9
2006.62
1995.43
1984.34
2882.88
2876.28
2869.65
2862.99
2856.28
2849.54
2842.76
2835.92
2829.03
2822.08
2815.06
2807.98
2800.83
2793.59
2786.27
2778.86
2771.35
2763.74
2756.01
2748.17
2740.19
2732.08
2723.83
2715.41
2706.83
2698.07
2689.11
2679.95
2670.57
2660.94
2651.06
2640.91
2630.56
2620.17
2609.83
2599.52
2589.25
2579
2568.76
2558.54
2548.32
2538.11
2527.89
2517.66
2507.42
2497.16
2486.89
2476.58
2466.26
2455.95
2445.62
2435.25
2424.84
2414.39
2403.88
2393.31
2382.69
2372.01
2361.26
2350.45
2339.56
2328.6
2317.58
2306.47
2295.3
2284.05
2272.73
2261.34
2249.88
2238.36
2226.78
2215.14
2203.46
2191.73
2179.96
2168.17
2156.35
2144.53
2132.69
2120.86
2109.04
2097.23
2085.46
2073.71
2062.01
2050.36
2038.77
2027.23
2015.77
2004.37
1993.06
1981.83
1970.68
1959.62
1948.66
1937.78
1927
2800.06
2793.65
2787.21
2780.73
2774.23
2767.68
2761.08
2754.44
2747.75
2741
2734.19
2727.31
2720.36
2713.33
2706.22
2699.02
2691.73
2684.34
2676.83
2669.21
2661.47
2653.59
2645.57
2637.4
2629.06
2620.55
2611.85
2602.95
2593.84
2584.5
2574.9
2565.04
2554.98
2544.9
2534.85
2524.84
2514.87
2504.91
2494.97
2485.04
2475.12
2465.2
2455.28
2445.35
2435.4
2425.44
2415.46
2405.46
2395.44
2385.43
2375.4
2365.33
2355.21
2345.05
2334.84
2324.58
2314.26
2303.88
2293.43
2282.92
2272.35
2261.7
2250.98
2240.19
2229.32
2218.39
2207.39
2196.31
2185.18
2173.98
2162.72
2151.41
2140.05
2128.65
2117.21
2105.75
2094.26
2082.76
2071.26
2059.76
2048.26
2036.79
2025.34
2013.92
2002.55
1991.22
1979.94
1968.73
1957.58
1946.51
1935.51
1924.59
1913.75
1903.01
1892.35
1881.78
1871.31
2719.61
2713.39
2707.13
2700.85
2694.52
2688.16
2681.76
2675.31
2668.81
2662.25
2655.63
2648.95
2642.2
2635.38
2628.47
2621.48
2614.39
2607.21
2599.92
2592.52
2585
2577.35
2569.56
2561.62
2553.53
2545.26
2536.81
2528.17
2519.32
2510.24
2500.93
2491.35
2481.58
2471.79
2462.03
2452.31
2442.62
2432.95
2423.3
2413.66
2404.02
2394.39
2384.75
2375.11
2365.45
2355.78
2346.09
2336.37
2326.65
2316.93
2307.19
2297.4
2287.58
2277.71
2267.79
2257.82
2247.79
2237.7
2227.55
2217.33
2207.05
2196.7
2186.28
2175.79
2165.23
2154.6
2143.91
2133.14
2122.31
2111.43
2100.48
2089.49
2078.44
2067.36
2056.24
2045.1
2033.93
2022.75
2011.57
2000.38
1989.21
1978.05
1966.92
1955.82
1944.76
1933.75
1922.79
1911.88
1901.05
1890.28
1879.59
1868.97
1858.44
1848
1837.64
1827.37
1817.19
2659.48
2653.5
2647.5
2641.48
2635.43
2629.36
2623.25
2617.11
2610.93
2604.71
2598.45
2592.13
2585.76
2579.33
2572.85
2566.29
2559.66
2552.95
2546.16
2539.28
2532.3
2525.23
2518.04
2510.73
2503.3
2495.73
2488.03
2480.16
2472.13
2463.93
2455.53
2446.94
2438.12
2429.07
2419.77
2410.29
2400.77
2391.3
2381.86
2372.45
2363.06
2353.68
2344.32
2334.96
2325.61
2316.25
2306.89
2297.51
2288.12
2278.71
2269.27
2259.84
2250.4
2240.93
2231.43
2221.88
2212.29
2202.65
2192.96
2183.21
2173.41
2163.54
2153.62
2143.62
2133.56
2123.43
2113.23
2102.97
2092.64
2082.24
2071.77
2061.24
2050.66
2040.02
2029.33
2018.59
2007.82
1997.01
1986.17
1975.31
1964.45
1953.57
1942.7
1931.83
1920.98
1910.16
1899.37
1888.61
1877.91
1867.25
1856.65
1846.11
1835.65
1825.25
1814.94
1804.7
1794.55
1784.49
1774.51
1764.63
2583.07
2577.26
2571.43
2565.58
2559.71
2553.81
2547.88
2541.92
2535.91
2529.87
2523.79
2517.66
2511.47
2505.23
2498.92
2492.56
2486.12
2479.6
2473.01
2466.32
2459.55
2452.67
2445.69
2438.59
2431.38
2424.03
2416.54
2408.9
2401.11
2393.14
2384.98
2376.63
2368.07
2359.28
2350.25
2341.04
2331.8
2322.6
2313.43
2304.29
2295.17
2286.07
2276.98
2267.89
2258.8
2249.72
2240.62
2231.52
2222.4
2213.26
2204.1
2194.94
2185.78
2176.58
2167.34
2158.07
2148.75
2139.38
2129.96
2120.49
2110.96
2101.37
2091.72
2082
2072.22
2062.38
2052.46
2042.48
2032.44
2022.32
2012.15
2001.91
1991.62
1981.28
1970.88
1960.44
1949.96
1939.45
1928.92
1918.36
1907.79
1897.22
1886.64
1876.08
1865.53
1855.01
1844.51
1834.06
1823.65
1813.28
1802.98
1792.74
1782.56
1772.46
1762.44
1752.49
1742.63
1732.85
1723.16
1713.56
2508.85
2503.21
2497.55
2491.87
2486.16
2480.43
2474.67
2468.88
2463.05
2457.19
2451.27
2445.32
2439.31
2433.25
2427.12
2420.94
2414.68
2408.36
2401.95
2395.46
2388.88
2382.2
2375.42
2368.53
2361.52
2354.38
2347.11
2339.69
2332.12
2324.38
2316.46
2308.35
2300.04
2291.5
2282.73
2273.78
2264.81
2255.87
2246.97
2238.09
2229.23
2220.39
2211.56
2202.74
2193.92
2185.09
2176.26
2167.42
2158.56
2149.69
2140.8
2131.91
2123.01
2114.07
2105.09
2096.08
2087.02
2077.92
2068.77
2059.56
2050.3
2040.98
2031.59
2022.15
2012.64
2003.06
1993.43
1983.72
1973.95
1964.12
1954.22
1944.27
1934.26
1924.2
1914.09
1903.94
1893.75
1883.53
1873.29
1863.02
1852.74
1842.46
1832.18
1821.91
1811.65
1801.42
1791.21
1781.05
1770.92
1760.85
1750.83
1740.88
1730.99
1721.17
1711.43
1701.76
1692.18
1682.68
1673.27
1663.95
2436.76
2431.28
2425.78
2420.27
2414.73
2409.16
2403.57
2397.94
2392.28
2386.58
2380.84
2375.06
2369.22
2363.33
2357.39
2351.38
2345.3
2339.16
2332.94
2326.63
2320.24
2313.75
2307.17
2300.47
2293.66
2286.73
2279.67
2272.46
2265.11
2257.59
2249.9
2242.03
2233.95
2225.66
2217.14
2208.45
2199.74
2191.06
2182.41
2173.79
2165.19
2156.61
2148.03
2139.46
2130.89
2122.32
2113.75
2105.16
2096.56
2087.94
2079.31
2070.69
2062.03
2053.35
2044.63
2035.87
2027.07
2018.22
2009.32
2000.37
1991.37
1982.31
1973.18
1964
1954.76
1945.45
1936.07
1926.64
1917.13
1907.57
1897.95
1888.27
1878.54
1868.75
1858.92
1849.05
1839.14
1829.2
1819.24
1809.25
1799.26
1789.26
1779.26
1769.27
1759.3
1749.35
1739.42
1729.54
1719.7
1709.9
1700.16
1690.49
1680.87
1671.33
1661.87
1652.48
1643.17
1633.94
1624.8
1615.75
2366.74
2361.42
2356.08
2350.72
2345.34
2339.94
2334.51
2329.04
2323.54
2318.01
2312.43
2306.81
2301.14
2295.43
2289.65
2283.81
2277.91
2271.95
2265.9
2259.78
2253.57
2247.27
2240.87
2234.37
2227.76
2221.03
2214.17
2207.17
2200.03
2192.73
2185.26
2177.61
2169.77
2161.71
2153.44
2145
2136.54
2128.11
2119.71
2111.34
2102.99
2094.65
2086.32
2078
2069.68
2061.35
2053.02
2044.69
2036.33
2027.97
2019.59
2011.22
2002.81
1994.37
1985.89
1977.38
1968.83
1960.23
1951.58
1942.88
1934.12
1925.31
1916.44
1907.52
1898.52
1889.47
1880.36
1871.18
1861.94
1852.64
1843.28
1833.9
1824.49
1815.03
1805.52
1795.98
1786.4
1776.79
1767.15
1757.49
1747.81
1738.12
1728.42
1718.73
1709.04
1699.36
1689.7
1680.06
1670.45
1660.86
1651.32
1641.81
1632.35
1622.96
1613.71
1604.59
1595.55
1586.59
1577.71
1568.92
2298.72
2293.56
2288.38
2283.17
2277.95
2272.7
2267.42
2262.12
2256.78
2251.4
2245.99
2240.53
2235.02
2229.47
2223.86
2218.19
2212.46
2206.66
2200.79
2194.85
2188.82
2182.7
2176.48
2170.17
2163.75
2157.21
2150.55
2143.75
2136.81
2129.72
2122.47
2115.04
2107.42
2099.6
2091.57
2083.37
2075.15
2066.96
2058.81
2050.68
2042.57
2034.47
2026.38
2018.3
2010.22
2002.14
1994.05
1985.95
1977.84
1969.72
1961.59
1953.45
1945.28
1937.08
1928.84
1920.57
1912.26
1903.9
1895.49
1887.03
1878.52
1869.95
1861.33
1852.64
1843.9
1835.09
1826.24
1817.35
1808.42
1799.44
1790.41
1781.32
1772.19
1763.02
1753.8
1744.55
1735.26
1725.94
1716.59
1707.23
1697.85
1688.46
1679.06
1669.67
1660.28
1650.9
1641.54
1632.21
1622.89
1613.61
1604.37
1595.16
1585.99
1576.88
1567.8
1558.78
1549.81
1540.9
1532.06
1523.42
2232.66
2227.65
2222.62
2217.56
2212.49
2207.39
2202.27
2197.11
2191.93
2186.71
2181.45
2176.15
2170.8
2165.4
2159.96
2154.45
2148.89
2143.25
2137.55
2131.78
2125.92
2119.98
2113.94
2107.81
2101.57
2095.22
2088.75
2082.15
2075.41
2068.53
2061.48
2054.27
2046.87
2039.27
2031.47
2023.51
2015.53
2007.58
1999.66
1991.76
1983.88
1976.02
1968.16
1960.31
1952.47
1944.62
1936.76
1928.9
1921.02
1913.14
1905.25
1897.34
1889.4
1881.43
1873.43
1865.39
1857.3
1849.18
1841
1832.78
1824.5
1816.17
1807.78
1799.35
1790.89
1782.38
1773.82
1765.21
1756.54
1747.83
1739.06
1730.25
1721.4
1712.5
1703.56
1694.59
1685.58
1676.55
1667.49
1658.41
1649.32
1640.22
1631.12
1622.02
1612.92
1603.84
1594.77
1585.73
1576.71
1567.72
1558.76
1549.85
1540.97
1532.14
1523.35
1514.62
1505.93
1497.29
1488.71
1480.17
2168.5
2163.63
2158.74
2153.84
2148.91
2143.96
2138.98
2133.98
2128.94
2123.87
2118.76
2113.61
2108.42
2103.18
2097.89
2092.54
2087.14
2081.67
2076.13
2070.52
2064.83
2059.06
2053.2
2047.24
2041.18
2035.01
2028.73
2022.32
2015.77
2009.09
2002.24
1995.24
1988.05
1980.68
1973.1
1965.37
1957.61
1949.89
1942.2
1934.53
1926.88
1919.24
1911.61
1903.99
1896.37
1888.75
1881.12
1873.48
1865.84
1858.19
1850.53
1842.84
1835.12
1827.38
1819.6
1811.78
1803.92
1796.02
1788.07
1780.08
1772.03
1763.96
1755.85
1747.69
1739.48
1731.22
1722.91
1714.55
1706.15
1697.69
1689.19
1680.64
1672.05
1663.42
1654.76
1646.06
1637.32
1628.57
1619.79
1610.99
1602.18
1593.37
1584.55
1575.73
1566.92
1558.12
1549.34
1540.58
1531.84
1523.14
1514.47
1505.83
1497.24
1488.69
1480.18
1471.72
1463.31
1454.95
1446.63
1438.37
2106.18
2101.45
2096.7
2091.94
2087.15
2082.35
2077.51
2072.65
2067.76
2062.83
2057.87
2052.87
2047.83
2042.74
2037.6
2032.41
2027.16
2021.85
2016.47
2011.02
2005.49
1999.89
1994.2
1988.41
1982.53
1976.54
1970.43
1964.21
1957.85
1951.35
1944.71
1937.9
1930.93
1923.76
1916.4
1908.9
1901.36
1893.86
1886.39
1878.94
1871.51
1864.1
1856.69
1849.28
1841.88
1834.48
1827.07
1819.66
1812.25
1804.82
1797.37
1789.9
1782.4
1774.87
1767.31
1759.71
1752.07
1744.39
1736.67
1728.92
1721.13
1713.3
1705.43
1697.51
1689.54
1681.53
1673.46
1665.35
1657.2
1648.99
1640.74
1632.45
1624.12
1615.75
1607.35
1598.91
1590.45
1581.96
1573.45
1564.93
1556.39
1547.85
1539.31
1530.77
1522.23
1513.71
1505.21
1496.73
1488.27
1479.84
1471.45
1463.09
1454.77
1446.49
1438.26
1430.07
1421.92
1413.83
1405.78
1397.78
2045.65
2041.05
2036.44
2031.82
2027.17
2022.5
2017.81
2013.09
2008.33
2003.55
1998.73
1993.88
1988.98
1984.04
1979.04
1974
1968.9
1963.74
1958.52
1953.23
1947.86
1942.42
1936.89
1931.27
1925.56
1919.74
1913.81
1907.76
1901.59
1895.28
1888.83
1882.22
1875.44
1868.48
1861.33
1854.04
1846.73
1839.44
1832.19
1824.95
1817.74
1810.53
1803.34
1796.15
1788.96
1781.77
1774.59
1767.4
1760.2
1752.98
1745.74
1738.48
1731.19
1723.87
1716.52
1709.13
1701.71
1694.25
1686.78
1679.26
1671.7
1664.1
1656.46
1648.77
1641.04
1633.26
1625.43
1617.56
1609.65
1601.69
1593.69
1585.64
1577.56
1569.45
1561.3
1553.12
1544.92
1536.69
1528.44
1520.18
1511.91
1503.64
1495.36
1487.09
1478.83
1470.58
1462.34
1454.13
1445.94
1437.78
1429.66
1421.57
1413.52
1405.5
1397.53
1389.61
1381.73
1373.89
1366.1
1358.36
1986.85
1982.39
1977.91
1973.42
1968.91
1964.37
1959.82
1955.23
1950.62
1945.97
1941.29
1936.57
1931.82
1927.02
1922.17
1917.27
1912.32
1907.31
1902.24
1897.1
1891.88
1886.6
1881.23
1875.77
1870.22
1864.57
1858.81
1852.94
1846.94
1840.81
1834.55
1828.13
1821.55
1814.79
1807.85
1800.77
1793.66
1786.59
1779.54
1772.51
1765.5
1758.51
1751.52
1744.54
1737.57
1730.6
1723.62
1716.64
1709.64
1702.63
1695.59
1688.53
1681.45
1674.33
1667.19
1660.01
1652.81
1645.58
1638.32
1631.03
1623.69
1616.31
1608.89
1601.43
1593.92
1586.37
1578.77
1571.14
1563.46
1555.73
1547.97
1540.17
1532.34
1524.47
1516.57
1508.64
1500.68
1492.71
1484.72
1476.72
1468.71
1460.69
1452.68
1444.67
1436.66
1428.67
1420.7
1412.75
1404.83
1396.93
1389.07
1381.24
1373.45
1365.7
1357.98
1350.32
1342.69
1335.11
1327.58
1320.08
1929.74
1925.41
1921.06
1916.7
1912.32
1907.92
1903.49
1899.04
1894.55
1890.04
1885.5
1880.92
1876.3
1871.63
1866.93
1862.17
1857.36
1852.49
1847.57
1842.57
1837.51
1832.38
1827.16
1821.86
1816.47
1810.98
1805.39
1799.69
1793.86
1787.91
1781.82
1775.59
1769.2
1762.64
1755.89
1749.02
1742.12
1735.24
1728.4
1721.58
1714.77
1707.98
1701.2
1694.44
1687.67
1680.9
1674.12
1667.33
1660.53
1653.72
1646.88
1640.02
1633.13
1626.22
1619.27
1612.31
1605.32
1598.31
1591.26
1584.17
1577.05
1569.88
1562.68
1555.44
1548.15
1540.82
1533.45
1526.04
1518.59
1511.1
1503.57
1496
1488.4
1480.77
1473.11
1465.42
1457.71
1449.99
1442.25
1434.49
1426.73
1418.97
1411.21
1403.45
1395.7
1387.97
1380.26
1372.56
1364.89
1357.25
1349.64
1342.07
1334.53
1327.03
1319.57
1312.15
1304.78
1297.45
1290.16
1282.91
1874.27
1870.07
1865.85
1861.61
1857.35
1853.08
1848.78
1844.45
1840.1
1835.72
1831.31
1826.86
1822.37
1817.84
1813.27
1808.65
1803.98
1799.25
1794.47
1789.62
1784.7
1779.71
1774.65
1769.5
1764.27
1758.93
1753.5
1747.96
1742.31
1736.53
1730.62
1724.56
1718.35
1711.98
1705.43
1698.75
1692.05
1685.38
1678.74
1672.12
1665.52
1658.93
1652.35
1645.78
1639.2
1632.62
1626.04
1619.44
1612.84
1606.21
1599.56
1592.9
1586.2
1579.48
1572.73
1565.98
1559.2
1552.39
1545.54
1538.66
1531.74
1524.79
1517.79
1510.76
1503.69
1496.58
1489.42
1482.23
1475
1467.73
1460.43
1453.09
1445.72
1438.32
1430.89
1423.44
1415.97
1408.48
1400.98
1393.47
1385.95
1378.44
1370.92
1363.41
1355.91
1348.43
1340.96
1333.52
1326.1
1318.7
1311.34
1304.02
1296.73
1289.47
1282.26
1275.09
1267.96
1260.87
1253.82
1246.81
1820.4
1816.31
1812.22
1808.1
1803.97
1799.81
1795.64
1791.44
1787.21
1782.96
1778.67
1774.35
1769.99
1765.59
1761.15
1756.67
1752.13
1747.54
1742.89
1738.18
1733.41
1728.56
1723.64
1718.64
1713.56
1708.38
1703.11
1697.73
1692.23
1686.62
1680.88
1675
1668.97
1662.78
1656.42
1649.95
1643.45
1636.98
1630.53
1624.11
1617.7
1611.3
1604.91
1598.52
1592.13
1585.74
1579.34
1572.93
1566.51
1560.07
1553.61
1547.12
1540.61
1534.08
1527.53
1520.98
1514.39
1507.78
1501.13
1494.45
1487.73
1480.98
1474.19
1467.36
1460.5
1453.6
1446.65
1439.67
1432.66
1425.61
1418.52
1411.4
1404.25
1397.08
1389.88
1382.65
1375.41
1368.16
1360.89
1353.62
1346.34
1339.06
1331.78
1324.51
1317.26
1310.01
1302.79
1295.59
1288.41
1281.26
1274.14
1267.05
1260
1252.99
1246.02
1239.08
1232.19
1225.34
1218.53
1211.75
1768.07
1764.1
1760.12
1756.13
1752.11
1748.08
1744.02
1739.95
1735.84
1731.71
1727.55
1723.35
1719.12
1714.84
1710.53
1706.17
1701.77
1697.31
1692.8
1688.22
1683.59
1678.88
1674.1
1669.25
1664.31
1659.28
1654.16
1648.93
1643.6
1638.14
1632.57
1626.87
1621.03
1615.03
1608.86
1602.57
1596.26
1589.97
1583.71
1577.47
1571.25
1565.03
1558.82
1552.61
1546.41
1540.2
1533.98
1527.75
1521.51
1515.25
1508.97
1502.67
1496.34
1489.99
1483.63
1477.26
1470.87
1464.44
1457.99
1451.5
1444.98
1438.42
1431.83
1425.21
1418.54
1411.84
1405.1
1398.33
1391.52
1384.68
1377.81
1370.9
1363.97
1357.01
1350.03
1343.03
1336.01
1328.98
1321.94
1314.9
1307.85
1300.8
1293.76
1286.72
1279.7
1272.69
1265.7
1258.74
1251.79
1244.88
1237.99
1231.14
1224.33
1217.55
1210.81
1204.11
1197.45
1190.83
1184.24
1177.7
1717.24
1713.39
1709.53
1705.65
1701.75
1697.83
1693.89
1689.93
1685.94
1681.93
1677.89
1673.81
1669.7
1665.55
1661.36
1657.13
1652.85
1648.52
1644.14
1639.7
1635.19
1630.62
1625.98
1621.27
1616.47
1611.59
1606.62
1601.56
1596.39
1591.1
1585.7
1580.16
1574.48
1568.66
1562.67
1556.56
1550.43
1544.32
1538.24
1532.18
1526.13
1520.09
1514.06
1508.03
1502
1495.96
1489.92
1483.87
1477.8
1471.72
1465.61
1459.48
1453.33
1447.16
1440.98
1434.8
1428.59
1422.35
1416.08
1409.78
1403.45
1397.09
1390.69
1384.25
1377.78
1371.28
1364.74
1358.17
1351.56
1344.92
1338.25
1331.55
1324.83
1318.08
1311.31
1304.52
1297.72
1290.91
1284.09
1277.27
1270.45
1263.63
1256.81
1250.01
1243.21
1236.43
1229.67
1222.93
1216.22
1209.53
1202.88
1196.26
1189.67
1183.12
1176.61
1170.13
1163.7
1157.3
1150.94
1144.62
1671.61
1667.88
1664.14
1660.38
1656.61
1652.83
1649.02
1645.2
1641.35
1637.48
1633.58
1629.66
1625.7
1621.7
1617.68
1613.61
1609.5
1605.34
1601.13
1596.88
1592.56
1588.2
1583.77
1579.27
1574.7
1570.05
1565.32
1560.5
1555.58
1550.56
1545.42
1540.17
1534.79
1529.28
1523.62
1517.8
1511.87
1505.91
1499.98
1494.08
1488.19
1482.31
1476.45
1470.58
1464.73
1458.87
1453
1447.13
1441.25
1435.35
1429.43
1423.5
1417.54
1411.56
1405.55
1399.55
1393.55
1387.52
1381.46
1375.37
1369.25
1363.11
1356.93
1350.71
1344.47
1338.19
1331.87
1325.53
1319.15
1312.74
1306.3
1299.82
1293.33
1286.8
1280.25
1273.69
1267.11
1260.52
1253.92
1247.32
1240.72
1234.11
1227.51
1220.91
1214.33
1207.75
1201.2
1194.66
1188.14
1181.65
1175.19
1168.76
1162.36
1155.99
1149.67
1143.37
1137.12
1130.9
1124.73
1118.59
1112.49
1623.55
1619.93
1616.29
1612.65
1608.99
1605.31
1601.62
1597.9
1594.17
1590.41
1586.62
1582.81
1578.96
1575.09
1571.18
1567.23
1563.25
1559.22
1555.15
1551.02
1546.84
1542.6
1538.3
1533.93
1529.5
1524.98
1520.38
1515.7
1510.92
1506.04
1501.06
1495.96
1490.73
1485.38
1479.88
1474.23
1468.46
1462.68
1456.92
1451.18
1445.46
1439.75
1434.05
1428.36
1422.67
1416.97
1411.27
1405.57
1399.85
1394.12
1388.37
1382.6
1376.8
1370.98
1365.14
1359.31
1353.48
1347.62
1341.74
1335.82
1329.88
1323.91
1317.91
1311.88
1305.82
1299.72
1293.59
1287.43
1281.24
1275.02
1268.77
1262.49
1256.19
1249.85
1243.5
1237.13
1230.75
1224.37
1217.98
1211.59
1205.19
1198.8
1192.41
1186.03
1179.66
1173.3
1166.96
1160.64
1154.34
1148.06
1141.82
1135.6
1129.42
1123.27
1117.16
1111.08
1105.04
1099.04
1093.08
1087.15
1081.27
1576.87
1573.36
1569.83
1566.29
1562.73
1559.16
1555.57
1551.97
1548.35
1544.71
1541.04
1537.35
1533.62
1529.86
1526.07
1522.24
1518.37
1514.46
1510.5
1506.5
1502.44
1498.32
1494.14
1489.9
1485.59
1481.2
1476.74
1472.19
1467.55
1462.81
1457.97
1453.01
1447.94
1442.73
1437.39
1431.9
1426.3
1420.69
1415.09
1409.52
1403.96
1398.42
1392.88
1387.35
1381.82
1376.29
1370.75
1365.2
1359.64
1354.07
1348.48
1342.87
1337.23
1331.57
1325.89
1320.22
1314.55
1308.86
1303.15
1297.4
1291.64
1285.84
1280.01
1274.15
1268.27
1262.35
1256.4
1250.42
1244.41
1238.38
1232.31
1226.22
1220.1
1213.96
1207.8
1201.62
1195.43
1189.24
1183.05
1176.86
1170.68
1164.49
1158.31
1152.13
1145.97
1139.82
1133.69
1127.57
1121.48
1115.42
1109.38
1103.38
1097.41
1091.47
1085.56
1079.69
1073.86
1068.07
1062.32
1056.6
1531.57
1528.16
1524.74
1521.3
1517.86
1514.4
1510.92
1507.42
1503.91
1500.37
1496.81
1493.22
1489.6
1485.95
1482.27
1478.55
1474.79
1470.99
1467.15
1463.25
1459.31
1455.31
1451.25
1447.13
1442.95
1438.69
1434.35
1429.93
1425.42
1420.82
1416.11
1411.3
1406.37
1401.32
1396.13
1390.8