/*--------------------------------*- C++ -*----------------------------------*\
  =========                 |
  \\      /  F ield         | OpenFOAM: The Open Source CFD Toolbox
   \\    /   O peration     | Website:  https://openfoam.org
    \\  /    A nd           | Version:  10
     \\/     M anipulation  |
\*---------------------------------------------------------------------------*/
FoamFile
{
    format      ascii;
    class       volScalarField;
    location    "64000";
    object      k;
}
// * * * * * * * * * * * * * * * * * * * * * * * * * * * * * * * * * * * * * //

dimensions      [0 2 -2 0 0 0 0];

internalField   nonuniform List<scalar> 
17922
(
0.0771482
0.0773711
0.0776016
0.0778401
0.0780869
0.0783421
0.0786061
0.0788791
0.0791616
0.0794537
0.0797559
0.0800686
0.0803921
0.0807268
0.0810731
0.0814316
0.0818026
0.0821867
0.0825844
0.0829962
0.0834228
0.0838647
0.0843226
0.0847972
0.0852892
0.0857994
0.0863286
0.0868777
0.0874425
0.0880137
0.088586
0.0891595
0.089734
0.0903096
0.0908862
0.091464
0.0920431
0.0926237
0.0932059
0.0937902
0.0943766
0.0949657
0.0955579
0.0961534
0.0967529
0.0973566
0.0979649
0.0985784
0.0991972
0.0998218
0.100452
0.101089
0.101732
0.102382
0.103037
0.103699
0.104368
0.105042
0.105722
0.106408
0.107098
0.107793
0.108492
0.109194
0.109898
0.110604
0.11131
0.112016
0.11272
0.113421
0.114118
0.114809
0.115494
0.11617
0.116838
0.117495
0.118142
0.118776
0.119398
0.120007
0.120603
0.121185
0.121754
0.122309
0.122851
0.123381
0.123899
0.124405
0.124901
0.125387
0.125865
0.126334
0.126797
0.077149
0.0773719
0.0776024
0.077841
0.0780877
0.0783429
0.0786069
0.07888
0.0791624
0.0794546
0.0797568
0.0800695
0.0803929
0.0807276
0.081074
0.0814324
0.0818034
0.0821875
0.0825852
0.082997
0.0834236
0.0838655
0.0843234
0.084798
0.08529
0.0858002
0.0863293
0.0868784
0.0874432
0.0880144
0.0885867
0.0891602
0.0897347
0.0903102
0.0908868
0.0914646
0.0920438
0.0926243
0.0932066
0.0937909
0.0943775
0.0949667
0.0955589
0.0961546
0.0967542
0.0973581
0.0979667
0.0985803
0.0991994
0.0998242
0.100455
0.101092
0.101735
0.102385
0.103041
0.103703
0.104372
0.105046
0.105726
0.106412
0.107102
0.107797
0.108496
0.109198
0.109902
0.110607
0.111313
0.112018
0.112721
0.113421
0.114116
0.114806
0.11549
0.116165
0.11683
0.117486
0.118131
0.118763
0.119383
0.11999
0.120584
0.121164
0.12173
0.122284
0.122824
0.123351
0.123867
0.124371
0.124865
0.125349
0.125825
0.126292
0.126752
0.0771498
0.0773727
0.0776033
0.0778418
0.0780885
0.0783437
0.0786077
0.0788808
0.0791633
0.0794554
0.0797577
0.0800703
0.0803938
0.0807285
0.0810749
0.0814333
0.0818043
0.0821884
0.0825861
0.0829979
0.0834245
0.0838664
0.0843242
0.0847988
0.0852908
0.085801
0.0863301
0.0868791
0.0874439
0.0880151
0.0885874
0.0891608
0.0897353
0.0903108
0.0908875
0.0914653
0.0920444
0.092625
0.0932073
0.0937917
0.0943783
0.0949677
0.09556
0.0961559
0.0967557
0.0973597
0.0979685
0.0985824
0.0992017
0.0998267
0.100458
0.101095
0.101738
0.102388
0.103044
0.103707
0.104376
0.10505
0.105731
0.106416
0.107107
0.107801
0.1085
0.109201
0.109905
0.11061
0.111315
0.112019
0.112721
0.11342
0.114115
0.114803
0.115485
0.116158
0.116823
0.117476
0.118119
0.11875
0.119367
0.119972
0.120564
0.121142
0.121706
0.122258
0.122796
0.123321
0.123835
0.124337
0.124829
0.125311
0.125784
0.126248
0.126706
0.0771506
0.0773735
0.0776041
0.0778426
0.0780894
0.0783446
0.0786086
0.0788817
0.0791641
0.0794563
0.0797585
0.0800712
0.0803947
0.0807294
0.0810757
0.0814342
0.0818052
0.0821893
0.082587
0.0829988
0.0834253
0.0838672
0.0843251
0.0847996
0.0852916
0.0858017
0.0863309
0.0868799
0.0874447
0.0880158
0.0885881
0.0891615
0.089736
0.0903115
0.0908881
0.0914659
0.0920451
0.0926257
0.0932081
0.0937925
0.0943792
0.0949687
0.0955612
0.0961572
0.0967571
0.0973614
0.0979704
0.0985845
0.099204
0.0998293
0.100461
0.101098
0.101742
0.102392
0.103048
0.103711
0.10438
0.105054
0.105735
0.10642
0.107111
0.107806
0.108504
0.109205
0.109908
0.110613
0.111317
0.112021
0.112722
0.11342
0.114113
0.1148
0.11548
0.116152
0.116814
0.117466
0.118107
0.118735
0.119351
0.119954
0.120544
0.121119
0.121682
0.122231
0.122767
0.12329
0.123802
0.124302
0.124791
0.125271
0.125742
0.126204
0.126659
0.0771514
0.0773743
0.0776049
0.0778435
0.0780902
0.0783455
0.0786095
0.0788825
0.079165
0.0794572
0.0797594
0.0800721
0.0803956
0.0807303
0.0810767
0.0814351
0.0818061
0.0821902
0.0825879
0.0829997
0.0834262
0.0838681
0.0843259
0.0848005
0.0852924
0.0858026
0.0863317
0.0868806
0.0874454
0.0880165
0.0885888
0.0891622
0.0897366
0.0903121
0.0908888
0.0914666
0.0920457
0.0926264
0.0932088
0.0937933
0.0943802
0.0949697
0.0955624
0.0961585
0.0967586
0.0973631
0.0979723
0.0985866
0.0992064
0.0998319
0.100463
0.101101
0.101745
0.102395
0.103052
0.103715
0.104384
0.105059
0.105739
0.106425
0.107115
0.10781
0.108508
0.109209
0.109912
0.110616
0.111319
0.112022
0.112722
0.113419
0.114111
0.114797
0.115475
0.116145
0.116806
0.117456
0.118094
0.118721
0.119335
0.119935
0.120523
0.121096
0.121657
0.122204
0.122738
0.123259
0.123768
0.124266
0.124753
0.125231
0.125699
0.126158
0.126611
0.0771523
0.0773752
0.0776058
0.0778443
0.0780911
0.0783463
0.0786104
0.0788834
0.0791659
0.0794581
0.0797603
0.080073
0.0803965
0.0807312
0.0810776
0.081436
0.081807
0.0821911
0.0825888
0.0830006
0.0834271
0.083869
0.0843268
0.0848014
0.0852933
0.0858034
0.0863325
0.0868814
0.0874462
0.0880173
0.0885895
0.0891629
0.0897373
0.0903128
0.0908894
0.0914672
0.0920464
0.0926271
0.0932096
0.0937942
0.0943811
0.0949708
0.0955636
0.0961599
0.0967602
0.0973648
0.0979743
0.0985888
0.0992088
0.0998345
0.100466
0.101104
0.101748
0.102399
0.103056
0.103719
0.104388
0.105063
0.105744
0.106429
0.10712
0.107814
0.108512
0.109213
0.109915
0.110618
0.111322
0.112023
0.112722
0.113418
0.114109
0.114793
0.11547
0.116138
0.116797
0.117445
0.118081
0.118706
0.119318
0.119916
0.120501
0.121073
0.121631
0.122176
0.122708
0.123227
0.123734
0.124229
0.124714
0.125189
0.125655
0.126112
0.126561
0.0771531
0.077376
0.0776067
0.0778452
0.078092
0.0783472
0.0786113
0.0788843
0.0791668
0.079459
0.0797613
0.080074
0.0803975
0.0807322
0.0810785
0.081437
0.081808
0.0821921
0.0825897
0.0830015
0.083428
0.0838699
0.0843277
0.0848022
0.0852941
0.0858042
0.0863333
0.0868822
0.087447
0.088018
0.0885902
0.0891636
0.089738
0.0903135
0.0908901
0.0914679
0.0920471
0.0926279
0.0932104
0.093795
0.0943821
0.0949719
0.0955648
0.0961613
0.0967618
0.0973666
0.0979763
0.098591
0.0992113
0.0998373
0.100469
0.101107
0.101752
0.102403
0.10306
0.103723
0.104392
0.105067
0.105748
0.106434
0.107124
0.107819
0.108516
0.109217
0.109919
0.110621
0.111324
0.112024
0.112722
0.113417
0.114106
0.114789
0.115464
0.116131
0.116787
0.117433
0.118068
0.11869
0.1193
0.119896
0.120479
0.121049
0.121605
0.122147
0.122677
0.123194
0.123699
0.124192
0.124674
0.125147
0.125609
0.126064
0.126509
0.077154
0.0773769
0.0776075
0.0778461
0.0780929
0.0783481
0.0786122
0.0788853
0.0791678
0.07946
0.0797622
0.0800749
0.0803984
0.0807331
0.0810795
0.0814379
0.0818089
0.082193
0.0825907
0.0830025
0.083429
0.0838708
0.0843286
0.0848031
0.085295
0.0858051
0.0863341
0.086883
0.0874478
0.0880188
0.088591
0.0891643
0.0897387
0.0903142
0.0908908
0.0914686
0.0920478
0.0926286
0.0932112
0.0937959
0.0943831
0.094973
0.0955661
0.0961627
0.0967634
0.0973685
0.0979783
0.0985933
0.0992138
0.0998401
0.100472
0.101111
0.101755
0.102406
0.103064
0.103727
0.104397
0.105072
0.105753
0.106438
0.107129
0.107823
0.10852
0.10922
0.109922
0.110624
0.111325
0.112025
0.112722
0.113415
0.114103
0.114784
0.115458
0.116123
0.116778
0.117422
0.118054
0.118675
0.119282
0.119876
0.120457
0.121024
0.121578
0.122118
0.122645
0.12316
0.123663
0.124153
0.124633
0.125103
0.125563
0.126014
0.126456
0.0771549
0.0773778
0.0776085
0.077847
0.0780938
0.0783491
0.0786131
0.0788862
0.0791687
0.0794609
0.0797632
0.0800759
0.0803994
0.0807341
0.0810805
0.0814389
0.0818099
0.082194
0.0825916
0.0830034
0.0834299
0.0838717
0.0843296
0.084804
0.0852959
0.0858059
0.086335
0.0868839
0.0874486
0.0880196
0.0885917
0.089165
0.0897394
0.0903149
0.0908915
0.0914693
0.0920486
0.0926294
0.0932121
0.0937968
0.0943841
0.0949741
0.0955674
0.0961642
0.0967651
0.0973704
0.0979805
0.0985957
0.0992165
0.0998429
0.100475
0.101114
0.101759
0.10241
0.103068
0.103731
0.104401
0.105076
0.105757
0.106443
0.107133
0.107827
0.108525
0.109224
0.109925
0.110626
0.111327
0.112026
0.112722
0.113414
0.1141
0.11478
0.115451
0.116114
0.116767
0.11741
0.11804
0.118658
0.119263
0.119855
0.120434
0.120999
0.12155
0.122088
0.122613
0.123126
0.123626
0.124114
0.124591
0.125058
0.125515
0.125963
0.126402
0.0771558
0.0773788
0.0776094
0.077848
0.0780948
0.07835
0.0786141
0.0788872
0.0791697
0.0794619
0.0797642
0.0800769
0.0804004
0.0807351
0.0810815
0.0814399
0.0818109
0.082195
0.0825926
0.0830044
0.0834309
0.0838727
0.0843305
0.084805
0.0852968
0.0858068
0.0863358
0.0868847
0.0874494
0.0880204
0.0885925
0.0891658
0.0897401
0.0903156
0.0908922
0.09147
0.0920493
0.0926302
0.0932129
0.0937978
0.0943851
0.0949753
0.0955687
0.0961657
0.0967668
0.0973723
0.0979826
0.0985981
0.0992191
0.0998459
0.100479
0.101118
0.101763
0.102414
0.103072
0.103736
0.104406
0.105081
0.105762
0.106448
0.107138
0.107832
0.108529
0.109228
0.109928
0.110629
0.111329
0.112027
0.112721
0.113412
0.114097
0.114775
0.115445
0.116106
0.116757
0.117397
0.118025
0.118641
0.119244
0.119834
0.12041
0.120973
0.121522
0.122058
0.12258
0.12309
0.123588
0.124074
0.124548
0.125012
0.125465
0.12591
0.126345
0.0771568
0.0773797
0.0776103
0.0778489
0.0780957
0.078351
0.078615
0.0788882
0.0791707
0.0794629
0.0797652
0.0800779
0.0804014
0.0807361
0.0810825
0.0814409
0.0818119
0.082196
0.0825936
0.0830054
0.0834319
0.0838737
0.0843315
0.0848059
0.0852977
0.0858077
0.0863367
0.0868855
0.0874502
0.0880212
0.0885933
0.0891665
0.0897409
0.0903163
0.0908929
0.0914708
0.09205
0.092631
0.0932138
0.0937987
0.0943862
0.0949765
0.0955701
0.0961673
0.0967686
0.0973743
0.0979849
0.0986006
0.0992219
0.0998489
0.100482
0.101121
0.101766
0.102418
0.103076
0.10374
0.10441
0.105086
0.105767
0.106452
0.107143
0.107836
0.108533
0.109231
0.109931
0.110631
0.11133
0.112027
0.112721
0.11341
0.114093
0.114769
0.115438
0.116097
0.116746
0.117384
0.11801
0.118624
0.119225
0.119812
0.120386
0.120947
0.121493
0.122027
0.122547
0.123054
0.123549
0.124032
0.124503
0.124964
0.125414
0.125855
0.126286
0.0771577
0.0773807
0.0776113
0.0778499
0.0780967
0.078352
0.078616
0.0788892
0.0791717
0.0794639
0.0797662
0.0800789
0.0804024
0.0807371
0.0810835
0.081442
0.081813
0.082197
0.0825947
0.0830064
0.0834329
0.0838747
0.0843324
0.0848069
0.0852987
0.0858087
0.0863376
0.0868864
0.087451
0.088022
0.0885941
0.0891673
0.0897416
0.090317
0.0908936
0.0914715
0.0920508
0.0926318
0.0932146
0.0937997
0.0943873
0.0949777
0.0955715
0.0961689
0.0967704
0.0973763
0.0979871
0.0986032
0.0992247
0.099852
0.100485
0.101125
0.10177
0.102422
0.10308
0.103745
0.104415
0.105091
0.105772
0.106457
0.107147
0.107841
0.108537
0.109235
0.109934
0.110633
0.111331
0.112027
0.11272
0.113407
0.114089
0.114764
0.11543
0.116087
0.116734
0.11737
0.117994
0.118606
0.119205
0.11979
0.120361
0.120919
0.121464
0.121995
0.122512
0.123017
0.123509
0.123989
0.124457
0.124914
0.125361
0.125797
0.126224
0.0771587
0.0773817
0.0776123
0.0778509
0.0780977
0.078353
0.0786171
0.0788902
0.0791727
0.0794649
0.0797672
0.0800799
0.0804035
0.0807382
0.0810846
0.081443
0.081814
0.0821981
0.0825957
0.0830074
0.0834339
0.0838757
0.0843334
0.0848078
0.0852996
0.0858096
0.0863385
0.0868873
0.0874519
0.0880228
0.0885949
0.0891681
0.0897424
0.0903178
0.0908944
0.0914722
0.0920516
0.0926326
0.0932155
0.0938007
0.0943884
0.094979
0.0955729
0.0961705
0.0967722
0.0973784
0.0979895
0.0986058
0.0992276
0.0998551
0.100489
0.101128
0.101774
0.102427
0.103085
0.103749
0.10442
0.105095
0.105776
0.106462
0.107152
0.107845
0.108541
0.109239
0.109937
0.110636
0.111333
0.112027
0.112718
0.113405
0.114085
0.114758
0.115422
0.116078
0.116723
0.117357
0.117978
0.118588
0.119184
0.119767
0.120336
0.120892
0.121433
0.121962
0.122476
0.122978
0.123468
0.123944
0.124409
0.124863
0.125306
0.125738
0.12616
0.0771597
0.0773827
0.0776133
0.0778519
0.0780988
0.0783541
0.0786181
0.0788913
0.0791738
0.079466
0.0797683
0.080081
0.0804045
0.0807393
0.0810856
0.0814441
0.0818151
0.0821991
0.0825968
0.0830085
0.083435
0.0838767
0.0843345
0.0848088
0.0853006
0.0858105
0.0863394
0.0868882
0.0874528
0.0880236
0.0885957
0.0891688
0.0897431
0.0903185
0.0908951
0.091473
0.0920524
0.0926334
0.0932164
0.0938017
0.0943895
0.0949803
0.0955744
0.0961722
0.0967741
0.0973806
0.0979919
0.0986085
0.0992305
0.0998584
0.100492
0.101132
0.101778
0.102431
0.103089
0.103754
0.104425
0.1051
0.105781
0.106467
0.107157
0.10785
0.108545
0.109242
0.10994
0.110638
0.111334
0.112027
0.112717
0.113402
0.11408
0.114752
0.115414
0.116068
0.116711
0.117342
0.117962
0.118569
0.119163
0.119743
0.12031
0.120863
0.121402
0.121928
0.12244
0.122939
0.123425
0.123898
0.12436
0.12481
0.125248
0.125676
0.126092
0.0771608
0.0773837
0.0776144
0.077853
0.0780998
0.0783551
0.0786192
0.0788923
0.0791749
0.0794671
0.0797694
0.0800821
0.0804056
0.0807404
0.0810867
0.0814452
0.0818162
0.0822002
0.0825978
0.0830096
0.083436
0.0838778
0.0843355
0.0848098
0.0853016
0.0858115
0.0863404
0.0868891
0.0874536
0.0880245
0.0885965
0.0891696
0.0897439
0.0903193
0.0908958
0.0914738
0.0920532
0.0926343
0.0932174
0.0938027
0.0943907
0.0949816
0.0955759
0.0961739
0.0967761
0.0973828
0.0979944
0.0986112
0.0992336
0.0998617
0.100496
0.101136
0.101783
0.102435
0.103094
0.103759
0.10443
0.105106
0.105787
0.106472
0.107162
0.107854
0.108549
0.109246
0.109943
0.11064
0.111335
0.112027
0.112715
0.113399
0.114076
0.114745
0.115406
0.116057
0.116698
0.117327
0.117945
0.118549
0.119141
0.119719
0.120283
0.120833
0.12137
0.121893
0.122402
0.122898
0.123381
0.123851
0.124308
0.124754
0.125188
0.125611
0.126022
0.0771618
0.0773848
0.0776155
0.0778541
0.0781009
0.0783562
0.0786203
0.0788934
0.079176
0.0794682
0.0797705
0.0800832
0.0804068
0.0807415
0.0810879
0.0814463
0.0818173
0.0822014
0.082599
0.0830107
0.0834371
0.0838788
0.0843365
0.0848109
0.0853026
0.0858125
0.0863413
0.08689
0.0874545
0.0880253
0.0885973
0.0891704
0.0897446
0.09032
0.0908966
0.0914745
0.092054
0.0926352
0.0932183
0.0938038
0.0943919
0.094983
0.0955774
0.0961757
0.0967781
0.0973851
0.0979969
0.0986141
0.0992367
0.0998652
0.1005
0.10114
0.101787
0.10244
0.103099
0.103764
0.104435
0.105111
0.105792
0.106477
0.107166
0.107859
0.108553
0.109249
0.109946
0.110642
0.111336
0.112027
0.112714
0.113395
0.114071
0.114738
0.115397
0.116046
0.116685
0.117312
0.117927
0.118529
0.119118
0.119694
0.120255
0.120803
0.121337
0.121857
0.122363
0.122855
0.123335
0.123801
0.124255
0.124696
0.125125
0.125542
0.125948
0.0763417
0.0765369
0.0767387
0.0769473
0.0771629
0.0773859
0.0776166
0.0778552
0.078102
0.0783573
0.0786214
0.0788946
0.0791771
0.0794693
0.0797716
0.0800844
0.0804079
0.0807426
0.081089
0.0814475
0.0818185
0.0822025
0.0826001
0.0830118
0.0834382
0.0838799
0.0843376
0.0848119
0.0853036
0.0858135
0.0863423
0.0868909
0.0874554
0.0880262
0.0885981
0.0891712
0.0897454
0.0903208
0.0908974
0.0914753
0.0920548
0.092636
0.0932193
0.0938049
0.0943931
0.0949844
0.095579
0.0961775
0.0967802
0.0973874
0.0979996
0.098617
0.09924
0.0998688
0.100504
0.101144
0.101791
0.102445
0.103104
0.103769
0.10444
0.105116
0.105797
0.106482
0.107171
0.107863
0.108558
0.109253
0.109949
0.110643
0.111336
0.112026
0.112712
0.113392
0.114065
0.114731
0.115388
0.116035
0.116672
0.117296
0.117909
0.118509
0.119095
0.119668
0.120227
0.120772
0.121303
0.121819
0.122322
0.122811
0.123287
0.123749
0.124198
0.124635
0.125059
0.125471
0.12587
0.0763428
0.076538
0.0767398
0.0769484
0.077164
0.077387
0.0776177
0.0778563
0.0781032
0.0783585
0.0786226
0.0788957
0.0791783
0.0794705
0.0797728
0.0800855
0.0804091
0.0807438
0.0810902
0.0814486
0.0818196
0.0822036
0.0826012
0.0830129
0.0834393
0.083881
0.0843387
0.084813
0.0853047
0.0858145
0.0863432
0.0868919
0.0874563
0.088027
0.088599
0.089172
0.0897462
0.0903216
0.0908982
0.0914761
0.0920556
0.092637
0.0932203
0.093806
0.0943944
0.0949858
0.0955807
0.0961794
0.0967823
0.0973898
0.0980023
0.0986201
0.0992433
0.0998724
0.100508
0.101149
0.101796
0.102449
0.103109
0.103774
0.104445
0.105122
0.105803
0.106488
0.107177
0.107868
0.108562
0.109257
0.109951
0.110645
0.111337
0.112026
0.11271
0.113388
0.11406
0.114724
0.115379
0.116024
0.116658
0.11728
0.11789
0.118488
0.119072
0.119642
0.120198
0.12074
0.121267
0.121781
0.12228
0.122765
0.123237
0.123695
0.12414
0.124571
0.12499
0.125395
0.125788
0.0763439
0.0765391
0.0767409
0.0769495
0.0771651
0.0773882
0.0776189
0.0778575
0.0781043
0.0783597
0.0786237
0.0788969
0.0791794
0.0794717
0.079774
0.0800867
0.0804103
0.080745
0.0810914
0.0814498
0.0818208
0.0822048
0.0826024
0.0830141
0.0834405
0.0838822
0.0843398
0.0848141
0.0853057
0.0858155
0.0863442
0.0868928
0.0874572
0.0880279
0.0885998
0.0891728
0.089747
0.0903223
0.0908989
0.0914769
0.0920565
0.0926379
0.0932213
0.0938072
0.0943957
0.0949873
0.0955824
0.0961814
0.0967846
0.0973924
0.0980051
0.0986232
0.0992468
0.0998763
0.100512
0.101153
0.101801
0.102455
0.103114
0.10378
0.104451
0.105127
0.105808
0.106493
0.107182
0.107873
0.108566
0.10926
0.109954
0.110647
0.111338
0.112025
0.112707
0.113384
0.114054
0.114716
0.115369
0.116012
0.116644
0.117264
0.117871
0.118466
0.119047
0.119614
0.120167
0.120706
0.12123
0.12174
0.122236
0.122717
0.123185
0.123638
0.124078
0.124504
0.124916
0.125316
0.125702
0.0757967
0.0759735
0.0761562
0.0763451
0.0765402
0.076742
0.0769506
0.0771663
0.0773893
0.07762
0.0778587
0.0781055
0.0783609
0.0786249
0.0788981
0.0791807
0.0794729
0.0797752
0.080088
0.0804115
0.0807462
0.0810926
0.081451
0.081822
0.082206
0.0826036
0.0830153
0.0834416
0.0838833
0.0843409
0.0848152
0.0853068
0.0858165
0.0863452
0.0868938
0.0874581
0.0880288
0.0886007
0.0891737
0.0897478
0.0903231
0.0908998
0.0914778
0.0920574
0.0926388
0.0932224
0.0938084
0.0943971
0.0949889
0.0955842
0.0961834
0.0967869
0.097395
0.0980081
0.0986265
0.0992505
0.0998802
0.100516
0.101158
0.101806
0.10246
0.10312
0.103785
0.104457
0.105133
0.105814
0.106499
0.107187
0.107878
0.10857
0.109264
0.109957
0.110649
0.111338
0.112024
0.112705
0.11338
0.114048
0.114708
0.115359
0.115999
0.116629
0.117246
0.117851
0.118443
0.119021
0.119586
0.120136
0.120671
0.121192
0.121698
0.12219
0.122667
0.12313
0.123579
0.124013
0.124433
0.124839
0.125232
0.12561
0.0757979
0.0759747
0.0761574
0.0763462
0.0765414
0.0767432
0.0769518
0.0771675
0.0773905
0.0776213
0.0778599
0.0781067
0.0783621
0.0786262
0.0788993
0.0791819
0.0794742
0.0797765
0.0800892
0.0804127
0.0807475
0.0810938
0.0814523
0.0818233
0.0822073
0.0826048
0.0830165
0.0834428
0.0838845
0.0843421
0.0848163
0.0853079
0.0858176
0.0863462
0.0868948
0.0874591
0.0880297
0.0886015
0.0891745
0.0897486
0.090324
0.0909006
0.0914786
0.0920583
0.0926398
0.0932235
0.0938096
0.0943985
0.0949905
0.0955861
0.0961856
0.0967893
0.0973977
0.0980112
0.0986299
0.0992542
0.0998843
0.10052
0.101163
0.101811
0.102465
0.103125
0.103791
0.104463
0.105139
0.10582
0.106504
0.107192
0.107883
0.108575
0.109267
0.10996
0.11065
0.111339
0.112023
0.112702
0.113376
0.114042
0.1147
0.115348
0.115986
0.116613
0.117228
0.117831
0.11842
0.118995
0.119556
0.120103
0.120635
0.121152
0.121655
0.122142
0.122615
0.123073
0.123516
0.123944
0.124358
0.124758
0.125143
0.125513
0.0757991
0.0759758
0.0761585
0.0763474
0.0765426
0.0767444
0.076953
0.0771687
0.0773918
0.0776225
0.0778611
0.078108
0.0783633
0.0786274
0.0789006
0.0791832
0.0794754
0.0797777
0.0800905
0.080414
0.0807488
0.0810951
0.0814536
0.0818245
0.0822085
0.0826061
0.0830177
0.083444
0.0838857
0.0843432
0.0848174
0.085309
0.0858186
0.0863473
0.0868957
0.08746
0.0880306
0.0886024
0.0891754
0.0897495
0.0903248
0.0909014
0.0914795
0.0920592
0.0926409
0.0932247
0.0938109
0.0944
0.0949922
0.095588
0.0961878
0.0967918
0.0974006
0.0980144
0.0986335
0.0992581
0.0998886
0.100525
0.101168
0.101816
0.102471
0.103131
0.103797
0.104469
0.105145
0.105826
0.10651
0.107198
0.107888
0.108579
0.109271
0.109962
0.110652
0.111339
0.112022
0.1127
0.113371
0.114035
0.114691
0.115337
0.115973
0.116598
0.11721
0.11781
0.118396
0.118968
0.119526
0.120069
0.120597
0.12111
0.121609
0.122092
0.122559
0.123012
0.12345
0.123872
0.124279
0.124672
0.125049
0.125411
0.0758003
0.075977
0.0761597
0.0763486
0.0765438
0.0767456
0.0769542
0.0771699
0.077393
0.0776237
0.0778624
0.0781093
0.0783646
0.0786287
0.0789019
0.0791845
0.0794767
0.079779
0.0800918
0.0804153
0.0807501
0.0810964
0.0814548
0.0818258
0.0822098
0.0826073
0.083019
0.0834453
0.0838869
0.0843444
0.0848186
0.0853101
0.0858197
0.0863483
0.0868967
0.087461
0.0880315
0.0886033
0.0891762
0.0897503
0.0903256
0.0909023
0.0914804
0.0920602
0.0926419
0.0932259
0.0938123
0.0944015
0.094994
0.0955901
0.0961901
0.0967945
0.0974036
0.0980177
0.0986372
0.0992623
0.0998931
0.10053
0.101173
0.101822
0.102477
0.103137
0.103804
0.104475
0.105151
0.105832
0.106516
0.107204
0.107893
0.108584
0.109275
0.109965
0.110654
0.111339
0.112021
0.112697
0.113367
0.114029
0.114682
0.115326
0.11596
0.116581
0.117191
0.117787
0.11837
0.118939
0.119494
0.120033
0.120558
0.121067
0.12156
0.122039
0.122501
0.122948
0.12338
0.123796
0.124196
0.12458
0.124949
0.125302
0.0758016
0.0759783
0.0761609
0.0763498
0.076545
0.0767468
0.0769554
0.0771712
0.0773943
0.077625
0.0778637
0.0781106
0.0783659
0.07863
0.0789032
0.0791858
0.079478
0.0797804
0.0800931
0.0804167
0.0807514
0.0810977
0.0814562
0.0818271
0.0822111
0.0826086
0.0830202
0.0834465
0.0838881
0.0843456
0.0848197
0.0853112
0.0858208
0.0863494
0.0868978
0.087462
0.0880325
0.0886042
0.0891771
0.0897512
0.0903265
0.0909032
0.0914814
0.0920612
0.0926431
0.0932271
0.0938137
0.0944032
0.0949959
0.0955922
0.0961926
0.0967973
0.0974067
0.0980213
0.0986411
0.0992666
0.0998978
0.100535
0.101178
0.101828
0.102483
0.103144
0.10381
0.104482
0.105158
0.105839
0.106523
0.10721
0.107899
0.108589
0.109279
0.109968
0.110655
0.11134
0.112019
0.112694
0.113362
0.114022
0.114673
0.115315
0.115945
0.116564
0.117171
0.117764
0.118344
0.11891
0.11946
0.119996
0.120516
0.121021
0.12151
0.121983
0.12244
0.122881
0.123306
0.123715
0.124107
0.124484
0.124844
0.125187
0.0758028
0.0759795
0.0761621
0.076351
0.0765462
0.076748
0.0769567
0.0771724
0.0773956
0.0776263
0.077865
0.0781119
0.0783673
0.0786314
0.0789046
0.0791871
0.0794794
0.0797817
0.0800945
0.080418
0.0807527
0.0810991
0.0814575
0.0818285
0.0822124
0.0826099
0.0830215
0.0834478
0.0838894
0.0843468
0.0848209
0.0853124
0.085822
0.0863505
0.0868988
0.087463
0.0880334
0.0886051
0.089178
0.0897521
0.0903274
0.0909041
0.0914823
0.0920623
0.0926442
0.0932284
0.0938152
0.0944049
0.0949979
0.0955945
0.0961952
0.0968002
0.0974101
0.098025
0.0986452
0.0992711
0.0999028
0.10054
0.101184
0.101834
0.102489
0.10315
0.103817
0.104489
0.105165
0.105845
0.106529
0.107216
0.107904
0.108594
0.109283
0.109971
0.110657
0.11134
0.112018
0.112691
0.113357
0.114015
0.114664
0.115302
0.115931
0.116547
0.11715
0.117741
0.118317
0.118879
0.119425
0.119957
0.120473
0.120972
0.121456
0.121924
0.122375
0.122809
0.123227
0.123629
0.124013
0.124381
0.124732
0.125065
0.0758041
0.0759807
0.0761634
0.0763522
0.0765474
0.0767493
0.076958
0.0771737
0.0773969
0.0776277
0.0778664
0.0781133
0.0783686
0.0786327
0.0789059
0.0791885
0.0794808
0.0797831
0.0800959
0.0804194
0.0807541
0.0811005
0.0814589
0.0818298
0.0822138
0.0826113
0.0830229
0.0834491
0.0838906
0.0843481
0.0848222
0.0853136
0.0858231
0.0863516
0.0868999
0.087464
0.0880344
0.0886061
0.0891789
0.089753
0.0903283
0.0909051
0.0914834
0.0920634
0.0926455
0.0932298
0.0938168
0.0944067
0.095
0.0955969
0.0961979
0.0968034
0.0974136
0.0980289
0.0986496
0.0992759
0.099908
0.100546
0.10119
0.10184
0.102496
0.103157
0.103824
0.104496
0.105172
0.105853
0.106536
0.107222
0.10791
0.108599
0.109287
0.109974
0.110659
0.11134
0.112017
0.112688
0.113351
0.114007
0.114654
0.11529
0.115915
0.116528
0.117129
0.117716
0.118288
0.118846
0.119389
0.119916
0.120427
0.120921
0.1214
0.121861
0.122306
0.122734
0.123144
0.123538
0.123914
0.124272
0.124613
0.124936
0.0758053
0.075982
0.0761646
0.0763535
0.0765487
0.0767506
0.0769593
0.0771751
0.0773982
0.077629
0.0778677
0.0781146
0.07837
0.0786341
0.0789073
0.0791899
0.0794822
0.0797845
0.0800973
0.0804208
0.0807555
0.0811019
0.0814603
0.0818312
0.0822152
0.0826127
0.0830242
0.0834504
0.0838919
0.0843494
0.0848234
0.0853148
0.0858243
0.0863527
0.0869009
0.087465
0.0880354
0.088607
0.0891799
0.089754
0.0903293
0.0909061
0.0914845
0.0920646
0.0926468
0.0932313
0.0938185
0.0944087
0.0950022
0.0955995
0.0962009
0.0968067
0.0974173
0.0980331
0.0986542
0.0992809
0.0999135
0.100552
0.101196
0.101847
0.102503
0.103165
0.103832
0.104503
0.10518
0.10586
0.106543
0.107229
0.107916
0.108604
0.109292
0.109978
0.110661
0.111341
0.112015
0.112684
0.113346
0.113999
0.114643
0.115277
0.115899
0.116509
0.117106
0.117689
0.118258
0.118812
0.11935
0.119872
0.120378
0.120867
0.12134
0.121795
0.122233
0.122653
0.123056
0.123441
0.123808
0.124157
0.124488
0.1248
0.0758066
0.0759832
0.0761659
0.0763547
0.07655
0.0767518
0.0769606
0.0771764
0.0773996
0.0776304
0.0778691
0.078116
0.0783714
0.0786356
0.0789088
0.0791913
0.0794836
0.079786
0.0800987
0.0804223
0.080757
0.0811033
0.0814617
0.0818327
0.0822166
0.0826141
0.0830256
0.0834518
0.0838933
0.0843507
0.0848247
0.085316
0.0858255
0.0863538
0.0869021
0.0874661
0.0880364
0.0886081
0.0891809
0.089755
0.0903303
0.0909072
0.0914856
0.0920659
0.0926482
0.0932329
0.0938203
0.0944108
0.0950046
0.0956022
0.096204
0.0968102
0.0974213
0.0980375
0.0986591
0.0992863
0.0999193
0.100558
0.101203
0.101854
0.10251
0.103172
0.103839
0.104511
0.105188
0.105868
0.106551
0.107236
0.107923
0.10861
0.109296
0.109981
0.110663
0.111341
0.112014
0.112681
0.11334
0.113991
0.114632
0.115263
0.115882
0.116489
0.117082
0.117662
0.118226
0.118776
0.119309
0.119826
0.120327
0.12081
0.121276
0.121725
0.122156
0.122568
0.122963
0.123339
0.123696
0.124035
0.124355
0.124655
0.0758078
0.0759845
0.0761671
0.076356
0.0765513
0.0767532
0.0769619
0.0771778
0.077401
0.0776318
0.0778705
0.0781175
0.0783729
0.078637
0.0789102
0.0791928
0.0794851
0.0797874
0.0801002
0.0804237
0.0807585
0.0811048
0.0814632
0.0818341
0.082218
0.0826155
0.083027
0.0834532
0.0838946
0.084352
0.084826
0.0853173
0.0858267
0.086355
0.0869032
0.0874672
0.0880375
0.0886091
0.0891819
0.089756
0.0903314
0.0909083
0.0914868
0.0920672
0.0926497
0.0932347
0.0938223
0.094413
0.0950072
0.0956052
0.0962073
0.096814
0.0974255
0.0980422
0.0986643
0.099292
0.0999255
0.100565
0.10121
0.101861
0.102518
0.10318
0.103848
0.10452
0.105196
0.105876
0.106559
0.107243
0.107929
0.108616
0.109301
0.109985
0.110665
0.111342
0.112013
0.112677
0.113334
0.113983
0.114621
0.115249
0.115865
0.116468
0.117058
0.117633
0.118193
0.118738
0.119266
0.119778
0.120273
0.12075
0.121209
0.121651
0.122074
0.122478
0.122864
0.12323
0.123578
0.123906
0.124214
0.124502
0.0758091
0.0759857
0.0761684
0.0763573
0.0765526
0.0767545
0.0769633
0.0771791
0.0774024
0.0776332
0.077872
0.0781189
0.0783743
0.0786385
0.0789117
0.0791943
0.0794866
0.0797889
0.0801017
0.0804252
0.08076
0.0811063
0.0814647
0.0818356
0.0822195
0.0826169
0.0830284
0.0834546
0.083896
0.0843534
0.0848273
0.0853185
0.0858279
0.0863562
0.0869044
0.0874683
0.0880386
0.0886102
0.089183
0.0897571
0.0903326
0.0909095
0.0914882
0.0920687
0.0926514
0.0932365
0.0938244
0.0944155
0.09501
0.0956083
0.0962109
0.096818
0.09743
0.0980472
0.0986698
0.099298
0.099932
0.100572
0.101218
0.101869
0.102526
0.103189
0.103856
0.104529
0.105205
0.105885
0.106567
0.107251
0.107936
0.108622
0.109306
0.109988
0.110667
0.111342
0.112011
0.112674
0.113328
0.113974
0.11461
0.115234
0.115847
0.116446
0.117032
0.117602
0.118158
0.118698
0.119221
0.119727
0.120215
0.120686
0.121138
0.121572
0.121986
0.122382
0.122758
0.123115
0.123452
0.123769
0.124065
0.124341
0.0758104
0.075987
0.0761697
0.0763586
0.0765539
0.0767558
0.0769646
0.0771805
0.0774038
0.0776347
0.0778734
0.0781204
0.0783758
0.07864
0.0789132
0.0791958
0.0794881
0.0797905
0.0801032
0.0804268
0.0807615
0.0811078
0.0814662
0.0818371
0.082221
0.0826184
0.0830299
0.0834561
0.0838974
0.0843548
0.0848286
0.0853199
0.0858292
0.0863575
0.0869056
0.0874695
0.0880398
0.0886113
0.0891841
0.0897583
0.0903338
0.0909108
0.0914896
0.0920702
0.0926531
0.0932385
0.0938267
0.0944181
0.095013
0.0956117
0.0962148
0.0968224
0.0974349
0.0980526
0.0986757
0.0993045
0.099939
0.100579
0.101226
0.101878
0.102535
0.103198
0.103866
0.104538
0.105214
0.105894
0.106576
0.107259
0.107944
0.108628
0.109312
0.109993
0.11067
0.111343
0.11201
0.11267
0.113322
0.113965
0.114597
0.115219
0.115827
0.116423
0.117004
0.11757
0.118121
0.118655
0.119173
0.119672
0.120154
0.120618
0.121062
0.121488
0.121894
0.122281
0.122647
0.122993
0.123319
0.123624
0.123908
0.12417
0.0758117
0.0759883
0.076171
0.0763599
0.0765552
0.0767572
0.076966
0.0771819
0.0774052
0.0776361
0.0778749
0.0781219
0.0783773
0.0786415
0.0789147
0.0791973
0.0794897
0.079792
0.0801048
0.0804283
0.0807631
0.0811094
0.0814678
0.0818387
0.0822225
0.08262
0.0830314
0.0834575
0.0838989
0.0843562
0.08483
0.0853212
0.0858305
0.0863587
0.0869068
0.0874707
0.0880409
0.0886125
0.0891853
0.0897595
0.0903351
0.0909122
0.0914911
0.092072
0.0926551
0.0932407
0.0938292
0.0944209
0.0950162
0.0956154
0.0962189
0.096827
0.0974401
0.0980583
0.098682
0.0993114
0.0999465
0.100587
0.101234
0.101886
0.102544
0.103207
0.103875
0.104548
0.105224
0.105903
0.106585
0.107268
0.107952
0.108635
0.109317
0.109997
0.110673
0.111344
0.112009
0.112666
0.113316
0.113955
0.114585
0.115202
0.115807
0.116398
0.116975
0.117536
0.118082
0.11861
0.119122
0.119615
0.12009
0.120546
0.120982
0.121399
0.121796
0.122173
0.122529
0.122864
0.123178
0.123471
0.123742
0.123991
0.0758129
0.0759896
0.0761723
0.0763612
0.0765565
0.0767585
0.0769674
0.0771833
0.0774067
0.0776376
0.0778764
0.0781234
0.0783789
0.0786431
0.0789163
0.0791989
0.0794912
0.0797936
0.0801064
0.0804299
0.0807647
0.081111
0.0814694
0.0818402
0.0822241
0.0826215
0.083033
0.0834591