/*--------------------------------*- C++ -*----------------------------------*\
  =========                 |
  \\      /  F ield         | OpenFOAM: The Open Source CFD Toolbox
   \\    /   O peration     | Website:  https://openfoam.org
    \\  /    A nd           | Version:  10
     \\/     M anipulation  |
\*---------------------------------------------------------------------------*/
FoamFile
{
    format      ascii;
    class       volScalarField;
    location    "64000";
    object      omega;
}
// * * * * * * * * * * * * * * * * * * * * * * * * * * * * * * * * * * * * * //

dimensions      [0 0 -1 0 0 0 0];

internalField   nonuniform List<scalar> 
17922
(
24.6539
24.2942
23.9497
23.6202
23.3053
23.0051
22.7192
22.4475
22.1901
21.9467
21.7174
21.5021
21.3009
21.1138
20.941
20.7825
20.6386
20.5094
20.3953
20.2965
20.2135
20.1467
20.0965
20.0637
20.0488
20.0525
20.0759
20.1198
20.1847
20.2697
20.3733
20.4947
20.6333
20.7885
20.9597
21.1465
21.3484
21.565
21.7961
22.0413
22.3004
22.5731
22.8593
23.1587
23.4714
23.7971
24.1358
24.4873
24.8517
25.2287
25.6183
26.0204
26.4347
26.8612
27.2995
27.7494
28.2107
28.683
29.166
29.6593
30.1624
30.6749
31.1963
31.7258
32.2631
32.8072
33.3576
33.9134
34.4739
35.0381
35.6052
36.1744
36.7446
37.315
37.8848
38.4533
39.0197
39.5835
40.1443
40.7016
41.2554
41.8056
42.3525
42.8964
43.438
43.9782
44.518
45.059
45.6028
46.1516
46.7078
47.2743
47.8541
24.6542
24.2945
23.95
23.6204
23.3056
23.0053
22.7194
22.4478
22.1903
21.9469
21.7176
21.5023
21.3011
21.114
20.9412
20.7827
20.6388
20.5096
20.3955
20.2967
20.2137
20.1468
20.0967
20.0638
20.0489
20.0527
20.076
20.1199
20.1848
20.2698
20.3734
20.4948
20.6333
20.7885
20.9597
21.1464
21.3483
21.5649
21.796
22.0411
22.3001
22.5728
22.8589
23.1584
23.471
23.7966
24.1353
24.4868
24.8511
25.228
25.6176
26.0196
26.4338
26.8601
27.2983
27.7481
28.2092
28.6814
29.1642
29.6573
30.1601
30.6723
31.1934
31.7226
32.2594
32.8031
33.3531
33.9084
34.4682
35.0318
35.5983
36.1667
36.7361
37.3058
37.8748
38.4425
39.0081
39.5711
40.1311
40.6878
41.241
41.7908
42.3374
42.8811
43.4228
43.9633
44.5038
45.0458
45.591
46.1417
46.7003
47.2697
47.8532
24.6544
24.2947
23.9502
23.6207
23.3058
23.0055
22.7196
22.448
22.1905
21.9471
21.7178
21.5025
21.3013
21.1142
20.9414
20.7829
20.6389
20.5098
20.3956
20.2969
20.2138
20.147
20.0968
20.064
20.049
20.0528
20.0762
20.12
20.185
20.2699
20.3735
20.4948
20.6334
20.7885
20.9597
21.1464
21.3482
21.5648
21.7958
22.0409
22.2999
22.5725
22.8586
23.158
23.4706
23.7962
24.1348
24.4862
24.8505
25.2274
25.6168
26.0187
26.4329
26.8591
27.2971
27.7468
28.2078
28.6797
29.1623
29.6552
30.1578
30.6697
31.1904
31.7193
32.2557
32.799
33.3484
33.9031
34.4624
35.0254
35.5911
36.1588
36.7274
37.2963
37.8645
38.4313
38.9962
39.5584
40.1177
40.6738
41.2264
41.7757
42.322
42.8657
43.4075
43.9484
44.4896
45.0326
45.5794
46.1321
46.6933
47.2659
47.8533
24.6547
24.295
23.9505
23.6209
23.306
23.0057
22.7198
22.4482
22.1907
21.9473
21.718
21.5027
21.3015
21.1144
20.9415
20.7831
20.6391
20.5099
20.3958
20.297
20.214
20.1471
20.097
20.0641
20.0492
20.053
20.0763
20.1202
20.1851
20.27
20.3736
20.4949
20.6335
20.7886
20.9597
21.1464
21.3482
21.5647
21.7957
22.0407
22.2997
22.5723
22.8583
23.1577
23.4702
23.7957
24.1343
24.4857
24.8498
25.2267
25.6161
26.0179
26.4319
26.858
27.2959
27.7454
28.2062
28.678
29.1604
29.653
30.1553
30.667
31.1873
31.7158
32.2518
32.7946
33.3435
33.8977
34.4564
35.0187
35.5837
36.1506
36.7185
37.2865
37.8539
38.4199
38.9839
39.5454
40.104
40.6593
41.2114
41.7603
42.3064
42.85
43.392
43.9333
44.4754
45.0196
45.5681
46.1229
46.6868
47.2628
47.8542
24.6549
24.2952
23.9507
23.6211
23.3063
23.006
22.72
22.4484
22.1909
21.9475
21.7182
21.5029
21.3017
21.1146
20.9417
20.7832
20.6393
20.5101
20.396
20.2972
20.2142
20.1473
20.0972
20.0643
20.0493
20.0531
20.0764
20.1203
20.1852
20.2701
20.3736
20.495
20.6335
20.7886
20.9597
21.1463
21.3481
21.5646
21.7955
22.0406
22.2994
22.572
22.858
23.1573
23.4697
23.7953
24.1337
24.4851
24.8492
25.226
25.6153
26.017
26.4309
26.8569
27.2947
27.744
28.2046
28.6762
29.1584
29.6507
30.1528
30.6641
31.1841
31.7122
32.2478
32.7901
33.3385
33.8921
34.4501
35.0117
35.576
36.1421
36.7092
37.2764
37.8429
38.4081
38.9713
39.532
40.0898
40.6445
41.1961
41.7446
42.2904
42.8341
43.3763
43.9182
44.4611
45.0067
45.5569
46.1141
46.6809
47.2604
47.8562
24.6552
24.2955
23.9509
23.6214
23.3065
23.0062
22.7203
22.4486
22.1911
21.9477
21.7184
21.5031
21.3019
21.1148
20.9419
20.7834
20.6395
20.5103
20.3962
20.2974
20.2143
20.1475
20.0973
20.0644
20.0495
20.0533
20.0766
20.1204
20.1853
20.2702
20.3737
20.4951
20.6336
20.7886
20.9597
21.1463
21.348
21.5645
21.7954
22.0404
22.2992
22.5717
22.8576
23.1569
23.4693
23.7948
24.1332
24.4845
24.8485
25.2252
25.6145
26.0161
26.4299
26.8557
27.2934
27.7426
28.203
28.6744
29.1563
29.6484
30.1502
30.6612
31.1808
31.7085
32.2436
32.7855
33.3333
33.8863
34.4437
35.0045
35.5681
36.1334
36.6996
37.266
37.8316
38.3959
38.9583
39.5182
40.0753
40.6294
41.1805
41.7286
42.2742
42.8179
43.3605
43.903
44.447
44.994
45.5461
46.1057
46.6756
47.2589
47.8591
24.6554
24.2957
23.9512
23.6216
23.3067
23.0064
22.7205
22.4488
22.1913
21.9479
21.7186
21.5033
21.3021
21.115
20.9421
20.7836
20.6397
20.5105
20.3963
20.2975
20.2145
20.1476
20.0975
20.0646
20.0496
20.0534
20.0767
20.1206
20.1854
20.2704
20.3738
20.4952
20.6336
20.7886
20.9597
21.1462
21.3479
21.5644
21.7952
22.0402
22.299
22.5714
22.8573
23.1565
23.4689
23.7943
24.1327
24.4839
24.8479
25.2245
25.6136
26.0151
26.4288
26.8545
27.292
27.7411
28.2013
28.6725
29.1542
29.646
30.1475
30.6581
31.1774
31.7047
32.2393
32.7806
33.3279
33.8802
34.4369
34.9971
35.5598
36.1243
36.6897
37.2552
37.82
38.3834
38.9449
39.5041
40.0604
40.6139
41.1645
41.7123
42.2578
42.8016
43.3445
43.8878
44.4329
44.9814
45.5356
46.0979
46.671
47.2582
47.8631
24.6557
24.296
23.9514
23.6218
23.307
23.0066
22.7207
22.449
22.1915
21.9481
21.7188
21.5035
21.3023
21.1152
20.9423
20.7838
20.6398
20.5107
20.3965
20.2977
20.2147
20.1478
20.0976
20.0647
20.0498
20.0536
20.0769
20.1207
20.1856
20.2705
20.3739
20.4952
20.6337
20.7887
20.9597
21.1462
21.3479
21.5643
21.795
22.0399
22.2987
22.5711
22.8569
23.1561
23.4684
23.7938
24.1321
24.4833
24.8472
25.2237
25.6127
26.0141
26.4277
26.8533
27.2906
27.7395
28.1996
28.6705
29.1519
29.6435
30.1446
30.6549
31.1738
31.7007
32.2348
32.7756
33.3222
33.874
34.43
34.9894
35.5513
36.115
36.6795
37.2441
37.808
38.3705
38.9312
39.4895
40.0452
40.5981
41.1482
41.6957
42.2411
42.785
43.3285
43.8726
44.4188
44.9691
45.5255
46.0905
46.6671
47.2585
47.8683
24.656
24.2962
23.9517
23.6221
23.3072
23.0069
22.7209
22.4493
22.1918
21.9483
21.719
21.5037
21.3025
21.1154
20.9425
20.784
20.64
20.5108
20.3967
20.2979
20.2148
20.148
20.0978
20.0649
20.05
20.0537
20.077
20.1208
20.1857
20.2706
20.374
20.4953
20.6337
20.7887
20.9597
21.1462
21.3478
21.5641
21.7949
22.0397
22.2984
22.5708
22.8566
23.1557
23.4679
23.7933
24.1315
24.4826
24.8464
25.2229
25.6118
26.0131
26.4266
26.852
27.2892
27.7379
28.1977
28.6684
29.1496
29.6409
30.1417
30.6516
31.1701
31.6965
32.2302
32.7704
33.3164
33.8675
34.4227
34.9814
35.5425
36.1053
36.6689
37.2326
37.7956
38.3573
38.9171
39.4746
40.0296
40.5819
41.1315
41.6788
42.2242
42.7684
43.3123
43.8574
44.405
44.9571
45.5158
46.0838
46.664
47.2597
47.8747
24.6562
24.2965
23.9519
23.6223
23.3074
23.0071
22.7212
22.4495
22.192
21.9486
21.7192
21.5039
21.3027
21.1156
20.9427
20.7842
20.6402
20.511
20.3969
20.2981
20.215
20.1482
20.098
20.0651
20.0501
20.0539
20.0772
20.121
20.1858
20.2707
20.3741
20.4954
20.6338
20.7887
20.9597
21.1461
21.3477
21.564
21.7947
22.0395
22.2982
22.5705
22.8562
23.1553
23.4675
23.7927
24.1309
24.4819
24.8457
25.2221
25.6109
26.0121
26.4254
26.8507
27.2877
27.7362
28.1958
28.6663
29.1472
29.6382
30.1387
30.6482
31.1663
31.6922
32.2253
32.765
33.3104
33.8607
34.4153
34.9731
35.5334
36.0953
36.658
37.2208
37.7829
38.3436
38.9026
39.4594
40.0136
40.5654
41.1146
41.6617
42.2071
42.7515
43.2962
43.8422
44.3913
44.9453
45.5066
46.0777
46.6617
47.262
47.8824
24.6565
24.2968
23.9522
23.6226
23.3077
23.0073
22.7214
22.4497
22.1922
21.9488
21.7194
21.5041
21.3029
21.1158
20.9429
20.7844
20.6404
20.5112
20.3971
20.2983
20.2152
20.1483
20.0982
20.0652
20.0503
20.054
20.0773
20.1211
20.186
20.2708
20.3742
20.4955
20.6338
20.7887
20.9597
21.1461
21.3476
21.5639
21.7945
22.0393
22.2979
22.5701
22.8558
23.1548
23.467
23.7922
24.1303
24.4812
24.8449
25.2212
25.6099
26.011
26.4242
26.8493
27.2862
27.7345
28.1939
28.6641
29.1447
29.6354
30.1355
30.6447
31.1623
31.6877
32.2203
32.7593
33.3041
33.8538
34.4075
34.9645
35.5239
36.085
36.6468
37.2086
37.7697
38.3296
38.8878
39.4437
39.9973
40.5485
41.0974
41.6443
42.1897
42.7346
43.28
43.8271
44.3778
44.9339
45.4979
46.0723
46.6603
47.2654
47.8913
24.6568
24.297
23.9525
23.6228
23.3079
23.0076
22.7216
22.4499
22.1924
21.949
21.7196
21.5043
21.3031
21.116
20.9431
20.7846
20.6406
20.5114
20.3972
20.2984
20.2154
20.1485
20.0983
20.0654
20.0505
20.0542
20.0775
20.1213
20.1861
20.2709
20.3743
20.4956
20.6339
20.7888
20.9596
21.146
21.3475
21.5637
21.7943
22.039
22.2976
22.5698
22.8554
23.1544
23.4665
23.7916
24.1296
24.4805
24.8441
25.2203
25.6089
26.0099
26.4229
26.8479
27.2846
27.7327
28.1919
28.6618
29.1422
29.6325
30.1323
30.641
31.1581
31.6831
32.2151
32.7535
33.2976
33.8465
34.3995
34.9556
35.5142
36.0743
36.6352
37.196
37.7563
38.3152
38.8725
39.4277
39.9807
40.5313
41.0798
41.6266
42.1722
42.7176
43.2637
43.8122
44.3645
44.9229
45.4897
46.0677
46.6599
47.2699
47.9016
24.6571
24.2973
23.9527
23.6231
23.3082
23.0078
22.7219
22.4502
22.1926
21.9492
21.7198
21.5045
21.3033
21.1162
20.9433
20.7848
20.6408
20.5116
20.3974
20.2986
20.2156
20.1487
20.0985
20.0656
20.0506
20.0544
20.0776
20.1214
20.1862
20.2711
20.3744
20.4956
20.634
20.7888
20.9596
21.146
21.3474
21.5636
21.7941
22.0388
22.2973
22.5694
22.855
23.1539
23.4659
23.791
24.129
24.4798
24.8433
25.2194
25.6079
26.0087
26.4216
26.8464
27.2829
27.7308
28.1898
28.6594
29.1395
29.6295
30.1289
30.6372
31.1539
31.6782
32.2097
32.7475
33.2908
33.839
34.3912
34.9465
35.5041
36.0633
36.6232
37.1831
37.7424
38.3005
38.8569
39.4113
39.9636
40.5138
41.062
41.6087
42.1546
42.7005
43.2476
43.7973
44.3516
44.9124
45.4822
46.0638
46.6604
47.2756
47.9133
24.6573
24.2976
23.953
23.6233
23.3084
23.0081
22.7221
22.4504
22.1929
21.9494
21.7201
21.5047
21.3035
21.1164
20.9435
20.785
20.641
20.5118
20.3976
20.2988
20.2158
20.1489
20.0987
20.0658
20.0508
20.0545
20.0778
20.1216
20.1864
20.2712
20.3745
20.4957
20.634
20.7888
20.9596
21.1459
21.3473
21.5634
21.7939
22.0386
22.297
22.5691
22.8546
23.1534
23.4654
23.7904
24.1283
24.479
24.8425
25.2184
25.6068
26.0075
26.4203
26.8449
27.2812
27.7289
28.1876
28.657
29.1367
29.6263
30.1253
30.6332
31.1494
31.6732
32.2041
32.7412
33.2839
33.8312
34.3826
34.937
35.4937
36.0519
36.6108
37.1698
37.7281
38.2853
38.8409
39.3946
39.9462
40.496
41.0439
41.5907
42.1368
42.6833
43.2314
43.7827
44.3389
44.9023
45.4753
46.0607
46.662
47.2825
47.9265
24.6576
24.2979
23.9533
23.6236
23.3087
23.0083
22.7224
22.4506
22.1931
21.9497
21.7203
21.505
21.3037
21.1166
20.9437
20.7852
20.6412
20.512
20.3978
20.299
20.2159
20.1491
20.0989
20.0659
20.051
20.0547
20.0779
20.1217
20.1865
20.2713
20.3747
20.4958
20.6341
20.7888
20.9596
21.1459
21.3472
21.5633
21.7937
22.0383
22.2967
22.5687
22.8542
23.1529
23.4648
23.7898
24.1276
24.4783
24.8416
25.2174
25.6057
26.0063
26.4189
26.8434
27.2794
27.7269
28.1853
28.6544
29.1339
29.6231
30.1217
30.6291
31.1448
31.6681
32.1983
32.7347
33.2766
33.8232
34.3736
34.9272
35.4829
36.0402
36.5981
37.1561
37.7135
38.2697
38.8245
39.3774
39.9285
40.4778
41.0256
41.5724
42.1189
42.6662
43.2154
43.7683
44.3266
44.8927
45.469
46.0586
46.6646
47.2907
47.9411
24.6579
24.2981
23.9535
23.6239
23.3089
23.0086
22.7226
22.4509
22.1933
21.9499
21.7205
21.5052
21.3039
21.1168
20.9439
20.7854
20.6414
20.5122
20.398
20.2992
20.2161
20.1492
20.0991
20.0661
20.0511
20.0549
20.0781
20.1219
20.1866
20.2714
20.3748
20.4959
20.6341
20.7889
20.9596
21.1458
21.3471
21.5631
21.7935
22.038
22.2964
22.5683
22.8537
23.1524
23.4643
23.7891
24.1269
24.4774
24.8407
25.2164
25.6046
26.005
26.4174
26.8417
27.2776
27.7248
28.183
28.6518
29.1309
29.6197
30.1179
30.6248
31.14
31.6627
32.1922
32.728
33.2691
33.8149
34.3644
34.917
35.4718
36.0281
36.585
37.142
37.6984
38.2538
38.8077
39.3599
39.9105
40.4594
41.007
41.5539
42.1009
42.649
43.1995
43.7541
44.3147
44.8837
45.4635
46.0573
46.6683
47.3002
47.9572
26.2541
25.831
25.4242
25.0334
24.6582
24.2984
23.9538
23.6241
23.3092
23.0088
22.7228
22.4511
22.1936
21.9501
21.7207
21.5054
21.3041
21.117
20.9441
20.7856
20.6416
20.5124
20.3982
20.2994
20.2163
20.1494
20.0992
20.0663
20.0513
20.055
20.0783
20.122
20.1868
20.2715
20.3749
20.496
20.6342
20.7889
20.9596
21.1457
21.347
21.563
21.7933
22.0378
22.296
22.5679
22.8533
23.1519
23.4637
23.7885
24.1262
24.4766
24.8397
25.2154
25.6034
26.0037
26.416
26.84
27.2757
27.7227
28.1806
28.6491
29.1278
29.6163
30.114
30.6204
31.135
31.6571
32.186
32.721
33.2613
33.8062
34.3549
34.9065
35.4604
36.0156
36.5715
37.1275
37.683
38.2374
38.7905
39.3421
39.8921
40.4407
40.9882
41.5353
42.0828
42.6318
43.1837
43.7402
44.3033
44.8752
45.4588
46.0569
46.6731
47.311
47.9748
26.2544
25.8313
25.4245
25.0337
24.6585
24.2987
23.9541
23.6244
23.3095
23.0091
22.7231
22.4514
22.1938
21.9504
21.721
21.5056
21.3044
21.1172
20.9443
20.7858
20.6418
20.5126
20.3984
20.2996
20.2165
20.1496
20.0994
20.0665
20.0515
20.0552
20.0784
20.1222
20.1869
20.2717
20.375
20.496
20.6342
20.7889
20.9595
21.1457
21.3469
21.5628
21.7931
22.0375
22.2957
22.5675
22.8528
23.1514
23.4631
23.7878
24.1254
24.4758
24.8388
25.2143
25.6022
26.0023
26.4144
26.8383
27.2737
27.7204
28.1781
28.6462
29.1246
29.6126
30.1099
30.6158
31.1298
31.6513
32.1795
32.7137
33.2533
33.7973
34.3451
34.8957
35.4485
36.0028
36.5577
37.1126
37.6671
38.2207
38.773
39.3239
39.8734
40.4217
40.9692
41.5166
42.0647
42.6148
43.1681
43.7266
44.2922
44.8674
45.4548
46.0576
46.6791
47.3232
47.994
26.2547
25.8316
25.4248
25.034
24.6588
24.299
23.9544
23.6247
23.3097
23.0093
22.7234
22.4516
22.1941
21.9506
21.7212
21.5059
21.3046
21.1174
20.9445
20.786
20.642
20.5128
20.3986
20.2998
20.2167
20.1498
20.0996
20.0667
20.0517
20.0554
20.0786
20.1223
20.1871
20.2718
20.3751
20.4961
20.6343
20.7889
20.9595
21.1456
21.3468
21.5626
21.7929
22.0372
22.2953
22.5671
22.8523
23.1508
23.4624
23.7871
24.1246
24.4749
24.8378
25.2132
25.601
26.0009
26.4128
26.8365
27.2717
27.7181
28.1755
28.6433
29.1213
29.6089
30.1057
30.6111
31.1245
31.6453
32.1728
32.7062
33.2449
33.7881
34.3349
34.8846
35.4364
35.9895
36.5434
37.0974
37.6509
38.2035
38.7551
39.3053
39.8544
40.4025
40.95
41.4978
42.0466
42.5978
43.1528
43.7134
44.2817
44.8602
45.4517
46.0592
46.6863
47.3367
48.0147
27.6261
27.1517
26.6949
26.2551
25.8319
25.4251
25.0343
24.6591
24.2993
23.9547
23.625
23.31
23.0096
22.7236
22.4519
22.1943
21.9508
21.7214
21.5061
21.3048
21.1177
20.9448
20.7862
20.6422
20.513
20.3988
20.3
20.2169
20.15
20.0998
20.0669
20.0519
20.0556
20.0788
20.1225
20.1872
20.2719
20.3752
20.4962
20.6343
20.7889
20.9595
21.1455
21.3466
21.5624
21.7926
22.0369
22.295
22.5667
22.8518
23.1503
23.4618
23.7864
24.1238
24.474
24.8368
25.212
25.5997
25.9994
26.4112
26.8347
27.2696
27.7158
28.1728
28.6403
29.1178
29.605
30.1013
30.6062
31.119
31.6391
32.1658
32.6985
33.2363
33.7785
34.3244
34.873
35.4238
35.9759
36.5288
37.0817
37.6342
38.186
38.7368
39.2865
39.8351
40.383
40.9307
41.4788
42.0285
42.5809
43.1376
43.7005
44.2717
44.8537
45.4494
46.0619
46.6946
47.3516
48.037
27.6265
27.1521
26.6952
26.2554
25.8322
25.4254
25.0346
24.6594
24.2996
23.9549
23.6252
23.3103
23.0099
22.7239
22.4521
22.1946
21.9511
21.7217
21.5063
21.305
21.1179
20.945
20.7864
20.6425
20.5132
20.399
20.3002
20.2171
20.1502
20.1
20.0671
20.0521
20.0557
20.0789
20.1227
20.1874
20.2721
20.3753
20.4963
20.6343
20.7889
20.9594
21.1454
21.3465
21.5622
21.7924
22.0366
22.2946
22.5662
22.8513
23.1497
23.4612
23.7856
24.123
24.473
24.8357
25.2109
25.5983
25.9979
26.4095
26.8327
27.2674
27.7133
28.17
28.6371
29.1143
29.601
30.0968
30.6011
31.1132
31.6326
32.1586
32.6905
33.2274
33.7687
34.3135
34.8612
35.4109
35.9619
36.5137
37.0656
37.6172
38.1681
38.7182
39.2672
39.8155
40.3633
40.9111
41.4598
42.0104
42.5641
43.1227
43.688
44.2622
44.8479
45.448
46.0656
46.7042
47.3679
48.0608
27.6268
27.1524
26.6955
26.2557
25.8326
25.4257
25.0348
24.6597
24.2999
23.9552
23.6255
23.3106
23.0101
22.7241
22.4524
22.1948
21.9513
21.7219
21.5066
21.3053
21.1181
20.9452
20.7867
20.6427
20.5134
20.3993
20.3004
20.2173
20.1504
20.1002
20.0673
20.0523
20.0559
20.0791
20.1228
20.1875
20.2722
20.3754
20.4963
20.6344
20.7889
20.9594
21.1453
21.3463
21.562
21.7921
22.0362
22.2942
22.5658
22.8508
23.1491
23.4605
23.7849
24.1221
24.4721
24.8346
25.2096
25.597
25.9964
26.4077
26.8308
27.2652
27.7108
28.1671
28.6339
29.1106
29.5968
30.0921
30.5958
31.1073
31.626
32.1512
32.6822
33.2182
33.7585
34.3023
34.8489
35.3975
35.9475
36.4982
37.0491
37.5998
38.1499
38.6992
39.2477
39.7957
40.3434
40.8914
41.4407
41.9923
42.5475
43.1081
43.6759
44.2533
44.8429
45.4474
46.0703
46.715
47.3855
48.0861
27.6272
27.1528
26.6959
26.256
25.8329
25.426
25.0351
24.6599
24.3001
23.9555
23.6258
23.3108
23.0104
22.7244
22.4526
22.1951
21.9516
21.7222
21.5068
21.3055
21.1184
20.9454
20.7869
20.6429
20.5137
20.3995
20.3006
20.2176
20.1506
20.1004
20.0675
20.0524
20.0561
20.0793
20.123
20.1877
20.2723
20.3755
20.4964
20.6344
20.7889
20.9593
21.1452
21.3462
21.5618
21.7918
22.0359
22.2938
22.5653
22.8503
23.1485
23.4598
23.7841
24.1212
24.4711
24.8335
25.2084
25.5955
25.9948
26.4059
26.8287
27.2629
27.7082
28.1642
28.6305
29.1068
29.5925
30.0872
30.5903
31.1011
31.6191
32.1435
32.6736
33.2087
33.748
34.2908
34.8363
35.3838
35.9327
36.4824
37.0323
37.582
38.1312
38.6798
39.2279
39.7755
40.3232
40.8716
41.4216
41.9743
42.5311
43.0938
43.6643
44.245
44.8386
45.4478
46.0761
46.727
47.4045
48.1128
27.6276
27.1531
26.6962
26.2564
25.8332
25.4263
25.0354
24.6602
24.3004
23.9558
23.6261
23.3111
23.0107
22.7247
22.4529
22.1953
21.9518
21.7224
21.507
21.3057
21.1186
20.9457
20.7871
20.6431
20.5139
20.3997
20.3009
20.2178
20.1509
20.1006
20.0677
20.0526
20.0563
20.0795
20.1231
20.1878
20.2724
20.3756
20.4965
20.6345
20.7889
20.9593
21.1451
21.3461
21.5616
21.7916
22.0356
22.2934
22.5649
22.8497
23.1479
23.4591
23.7833
24.1203
24.4701
24.8324
25.2071
25.5941
25.9932
26.4041
26.8266
27.2605
27.7055
28.1611
28.627
29.1029
29.5881
30.0822
30.5846
31.0948
31.612
32.1355
32.6647
33.1989
33.7372
34.2789
34.8233
35.3698
35.9176
36.4661
37.015
37.5638
38.1122
38.6602
39.2077
39.7552
40.3029
40.8517
41.4025
41.9564
42.5149
43.0798
43.6532
44.2373
44.835
45.4491
46.083
46.7402
47.4248
48.1411
27.628
27.1535
26.6965
26.2567
25.8335
25.4266
25.0357
24.6605
24.3007
23.9561
23.6264
23.3114
23.011
22.7249
22.4532
22.1956
21.9521
21.7226
21.5073
21.306
21.1188
20.9459
20.7873
20.6433
20.5141
20.3999
20.3011
20.218
20.1511
20.1008
20.0679
20.0528
20.0565
20.0797
20.1233
20.188
20.2726
20.3757
20.4966
20.6345
20.7889
20.9592
21.145
21.3459
21.5614
21.7913
22.0352
22.293
22.5644
22.8492
23.1472
23.4584
23.7825
24.1194
24.469
24.8312
25.2058
25.5926
25.9915
26.4022
26.8244
27.2581
27.7027
28.1579
28.6235
29.0988
29.5835
30.077
30.5788
31.0882
31.6046
32.1273
32.6556
33.1887
33.726
34.2667
34.81
35.3553
35.902
36.4495
36.9973
37.5452
38.0928
38.6402
39.1873
39.7346
40.2825
40.8317
41.3833
41.9386
42.4989
43.0662
43.6425
44.2303
44.8322
45.4513
46.0908
46.7546
47.4464
48.1706
27.6283
27.1538
26.6969
26.257
25.8338
25.4269
25.036
24.6608
24.301
23.9564
23.6267
23.3117
23.0112
22.7252
22.4534
22.1958
21.9523
21.7229
21.5075
21.3062
21.1191
20.9461
20.7876
20.6436
20.5143
20.4001
20.3013
20.2182
20.1513
20.101
20.0681
20.053
20.0567
20.0798
20.1235
20.1881
20.2727
20.3758
20.4966
20.6345
20.7889
20.9592
21.1449
21.3457
21.5612
21.791
22.0349
22.2926
22.5639
22.8486
23.1466
23.4576
23.7816
24.1185
24.468
24.83
25.2044
25.5911
25.9897
26.4002
26.8222
27.2555
27.6998
28.1547
28.6198
29.0946
29.5788
30.0717
30.5728
31.0814
31.597
32.1188
32.6462
33.1783
33.7145
34.2541
34.7963
35.3405
35.886
36.4325
36.9793
37.5262
38.0731
38.6198
39.1666
39.7138
40.2619
40.8117
41.3643
41.9209
42.4832
43.053
43.6324
44.2239
44.8302
45.4544
46.0998
46.7701
47.4692
48.2016
27.6287
27.1542
26.6972
26.2573
25.8341
25.4272
25.0363
24.6611
24.3013
23.9567
23.6269
23.3119
23.0115
22.7255
22.4537
22.1961
21.9526
21.7231
21.5078
21.3065
21.1193
20.9464
20.7878
20.6438
20.5146
20.4004
20.3015
20.2184
20.1515
20.1013
20.0683
20.0532
20.0569
20.08
20.1237
20.1883
20.2728
20.3759
20.4967
20.6346
20.7889
20.9591
21.1448
21.3456
21.561
21.7907
22.0345
22.2922
22.5634
22.848
23.1459
23.4569
23.7808
24.1175
24.4669
24.8288
25.203
25.5895
25.988
26.3982
26.8199
27.2529
27.6968
28.1513
28.616
29.0903
29.5739
30.0661
30.5665
31.0744
31.5892
32.1101
32.6364
33.1675
33.7027
34.2411
34.7822
35.3252
35.8697
36.415
36.9609
37.5069
38.053
38.5992
39.1457
39.6928
40.2411
40.7916
41.3452
41.9034
42.4678
43.0402
43.6228
44.2181
44.829
45.4584
46.1098
46.7867
47.4933
48.2338
27.629
27.1545
26.6975
26.2576
25.8344
25.4275
25.0366
24.6614
24.3016
23.9569
23.6272
23.3122
23.0118
22.7257
22.4539
22.1963
21.9528
21.7234
21.508
21.3067
21.1195
20.9466
20.788
20.644
20.5148
20.4006
20.3017
20.2186
20.1517
20.1015
20.0685
20.0535
20.0571
20.0802
20.1238
20.1884
20.273
20.376
20.4968
20.6346
20.7889
20.9591
21.1447
21.3454
21.5608
21.7904
22.0342
22.2917
22.5629
22.8474
23.1452
23.4561
23.7799
24.1165
24.4658
24.8275
25.2016
25.5879
25.9861
26.3961
26.8176
27.2503
27.6938
28.1479
28.612
29.0858
29.5688
30.0604
30.5601
31.0672
31.5811
32.101
32.6264
33.1565
33.6905
34.2278
34.7677
35.3096
35.8529
36.3972
36.9421
37.4872
38.0326
38.5783
39.1245
39.6716
40.2203
40.7715
41.3263
41.8861
42.4526
43.0277
43.6137
44.2131
44.8286
45.4633
46.1207
46.8045
47.5185
48.2672
27.6294
27.1549
26.6978
26.2579
25.8347
25.4278
25.0369
24.6617
24.3019
23.9572
23.6275
23.3125
23.012
22.726
22.4542
22.1966
21.9531
21.7236
21.5083
21.3069
21.1198
20.9468
20.7883
20.6443
20.515
20.4008
20.302
20.2189
20.1519
20.1017
20.0687
20.0537
20.0573
20.0804
20.124
20.1886
20.2731
20.3761
20.4969
20.6346
20.7889
20.959
21.1446
21.3452
21.5605
21.7901
22.0338
22.2913
22.5624
22.8469
23.1446
23.4553
23.779
24.1155
24.4647
24.8263
25.2002
25.5863
25.9843
26.394
26.8152
27.2475
27.6907
28.1443
28.608
29.0813
29.5636
30.0546
30.5535
31.0597
31.5727
32.0917
32.6161
33.1451
33.678
34.2141
34.7529
35.2936
35.8358
36.379
36.9229
37.4672
38.0119
38.5571
39.1031
39.6502
40.1994
40.7514
41.3074
41.869
42.4378
43.0158
43.6052
44.2086
44.8289
45.4691
46.1327
46.8233
47.5449
48.3017
27.6297
27.1552
26.6982
26.2582
25.835
25.4281
25.0372
24.662
24.3022
23.9575
23.6278
23.3128
23.0123
22.7263
22.4545
22.1969
21.9533
21.7239
21.5085
21.3072
21.12
20.9471
20.7885
20.6445
20.5153
20.4011
20.3022
20.2191
20.1522
20.1019
20.0689
20.0539
20.0575
20.0806
20.1242
20.1887
20.2732
20.3762
20.4969
20.6347
20.7889
20.959
21.1445
21.3451
21.5603
21.7898
22.0335
22.2909
22.5619
22.8463
23.1439
23.4546
23.7782
24.1145
24.4635
24.825
25.1987
25.5846
25.9824
26.3918
26.8127
27.2447
27.6875
28.1406
28.6038
29.0765
29.5583
30.0485
30.5466
31.0521
31.5641
32.0822
32.6055
33.1334
33.6651
34.2001
34.7377
35.2772
35.8183
36.3604
36.9034
37.4469
37.9909
38.5357
39.0814
39.6288
40.1784
40.7313
41.2887
41.8521
42.4233
43.0042
43.5973
44.2049
44.8301
45.4758
46.1456
46.8431
47.5722
48.3373
27.6301
27.1555
26.6985
26.2585
25.8353
25.4284
25.0375
24.6623
24.3025
23.9578
23.6281
23.3131
23.0126
22.7265
22.4547
22.1971
21.9536
21.7241
21.5087
21.3074
21.1203
20.9473
20.7888
20.6447
20.5155
20.4013
20.3024
20.2193
20.1524
20.1021
20.0692
20.0541
20.0577
20.0808
20.1244
20.1889
20.2734
20.3763
20.497
20.6347
20.7889
20.9589
21.1444
21.3449
21.5601
21.7896
22.0331
22.2904
22.5614
22.8457
23.1432
23.4538
23.7773
24.1135
24.4624
24.8237
25.1972
25.5829
25.9804
26.3896
26.8102
27.2418
27.6842
28.1369
28.5995
29.0717
29.5528
30.0423
30.5396
31.0442
31.5553
32.0723
32.5946
33.1213
33.6519
34.1857
34.7221
35.2605
35.8004
36.3415
36.8835
37.4262
37.9696
38.514
39.0596
39.6072
40.1574
40.7112
41.2701
41.8355
42.4092
42.9932
43.5899
44.2018
44.8319
45.4833
46.1594
46.8638
47.6006
48.3738
27.6304
27.1558
26.6988
26.2588
25.8356
25.4287
25.0378
24.6626
24.3027
23.9581
23.6283
23.3133
23.0129
22.7268
22.455
22.1974
21.9539
21.7244
21.509
21.3077
21.1205
20.9476
20.789
20.645
20.5157
20.4015
20.3027
20.2196
20.1526
20.1024
20.0694
20.0543
20.0579
20.081
20.1246
20.1891
20.2735
20.3764
20.4971
20.6348
20.7889
20.9589
21.1443
21.3447
21.5598
21.7893
22.0327
22.29
22.5608
22.8451
23.1425
23.453
23.7764
24.1125
24.4612
24.8223
25.1957
25.5812
25.9785
26.3874
26.8076
27.2389
27.6808
28.133
28.5952
29.0667
29.5471
30.0359
30.5324
31.0361
31.5463
32.0623
32.5834
33.109
33.6384
34.171
34.7062
35.2434
35.7822
36.3222
36.8633
37.4052
37.948
38.4921
39.0377
39.5855
40.1363
40.6913
41.2517
41.8191
42.3954
42.9826
43.583
44.1994
44.8346
45.4917
46.1741
46.8855
47.6298
48.4112
27.6307
27.1561
26.6991
26.2591
25.8359
25.429
25.0381
24.6628
24.303
23.9584
23.6286
23.3136
23.0131
22.7271
22.4553
22.1976
21.9541
21.7247
21.5093
21.3079
21.1208
20.9478
20.7892
20.6452
20.516
20.4018
20.3029
20.2198
20.1529
20.1026
20.0696
20.0545
20.0581
20.0812
20.1247
20.1892
20.2737
20.3766
20.4972
20.6348
20.7889
20.9588
21.1442
21.3446
21.5596
21.789
22.0324
22.2896
22.5603
22.8445
23.1418
23.4522
23.7755
24.1114
24.46
24.821
25.1942
25.5794
25.9765
26.3851
26.805
27.2358
27.6774
28.1291
28.5907
29.0616
29.5413
30.0293
30.525
31.0278
31.5369
32.0519
32.5719
33.0964
33.6246
34.156
34.6899
35.226
35.7636
36.3026
36.8427
37.3839
37.9262
38.4699
39.0155
39.5637
40.1153
40.6714
41.2335
41.803
42.382
42.9724
43.5768
44.1977
44.8379
45.5008
46.1896
46.9079
47.6598
48.4493
27.631
27.1564
26.6993
26.2594
25.8362
25.4292
25.0383
24.6631
24.3033
23.9586
23.6289
23.3139
23.0134
22.7273
22.4555
22.1979
21.9544
21.7249
21.5095
21.3082
21.121
20.9481
20.7895
20.6455
20.5162
20.402
20.3032
20.2201
20.1531
20.1029
20.0698
20.0548
20.0583
20.0814
20.1249
20.1894
20.2738
20.3767
20.4973
20.6349
20.7889
20.9588
21.1441
21.3444
21.5594
21.7887
22.032
22.2891
22.5598
22.8439
23.1411
23.4514
23.7746
24.1104
24.4588
24.8196
25.1926
25.5776
25.9744
26.3827
26.8023
27.2328
27.6738
28.1251
28.5861
29.0563
29.5353
30.0225
30.5174
31.0192
31.5274
32.0413
32.5602
33.0835
33.6105
34.1406
34.6734
35.2082
35.7447
36.2827
36.8219
37.3623
37.9041
38.4476
38.9933
39.5419
40.0943
40.6516
41.2154
41.7872
42.369
42.9628
43.5711
44.1965
44.842
45.5106
46.2058
46.9311
47.6905
48.4881
27.6313
27.1567
26.6996
26.2597
25.8364
25.4295
25.0386
24.6634
24.3036
23.9589
23.6291
23.3141
23.0137
22.7276
22.4558
22.1981
21.9546
21.7252
21.5098
21.3084
21.1213
20.9483
20.7897
20.6457
20.5165
20.4023
20.3034
20.2203
20.1534
20.1031
20.0701
20.055
20.0586
20.0816
20.1251
20.1896
20.274
20.3768
20.4974
20.6349
20.7889
20.9587
21.144
21.3443
21.5592
21.7884
22.0317
22.2887
22.5593
22.8433
23.1404
23.4506
23.7737
24.1094
24.4576
24.8183
25.1911
25.5758
25.9724
26.3804
26.7996
27.2296
27.6702
28.1209
28.5813
29.0509
29.5292
30.0156
30.5096
31.0105
31.5176
32.0304
32.5482
33.0703
33.5961
34.125
34.6565
35.1901
35.7255
36.2624
36.8008
37.3405
37.8819
38.4252
38.971
39.52
40.0733
40.632
41.1976
41.7718
42.3564
42.9537
43.566
44.1961
44.8467
45.5212
46.2228
46.9551
47.7219
48.5275
28.1241
27.6315
27.1569
26.6999
26.2599
25.8367
25.4298
25.0389
24.6636
24.3038
23.9592
23.6294
23.3144
23.0139
22.7278
22.456
22.1984
21.9549
21.7254
21.51
21.3087
21.1215
20.9486
20.79
20.646
20.5167
20.4025
20.3037
20.2205
20.1536
20.1033
20.0703
20.0552
20.0588
20.0818
20.1253
20.1898
20.2741
20.377
20.4975
20.635
20.7889
20.9587
21.1439
21.3441
21.559
21.7881
22.0313
22.2883
22.5588
22.8427
23.1398
23.4499
23.7728
24.1084
24.4565
24.8169
25.1895
25.574
25.9703
26.378
26.7968
27.2264
27.6666
28.1167
28.5765
29.0454
29.523
30.0085
30.5016
31.0015
31.5076
32.0193
32.5359
33.0568
33.5814
34.109
34.6393
35.1717
35.706
36.2419
36.7794
37.3185
37.8594
38.4026
38.9486
39.4982
40.0524
40.6126
41.1801
41.7566
42.3442
42.945
43.5615
44.1962
44.8522
45.5324
46.2404
46.9796
47.7539
48.5673
28.1244
27.6318
27.1572
26.7001
26.2602
25.8369
25.43
25.0391
24.6639
24.3041
23.9594
23.6297
23.3146
23.0142
22.7281
22.4563
22.1987
21.9551
21.7257
21.5103
21.3089
21.1218
20.9488
20.7902
20.6462
20.517
20.4028
20.3039
20.2208
20.1539
20.1036
20.0706
20.0555
20.059
20.0821
20.1256
20.19
20.2743
20.3771
20.4976
20.6351
20.7889
20.9587
21.1439
21.344
21.5588
21.7879
22.031
22.2879
22.5584
22.8422
23.1391
23.4491
23.7719
24.1073
24.4553
24.8156
25.1879
25.5722
25.9682
26.3755
26.794
27.2232
27.6628
28.1124
28.5716
29.0398
29.5165
30.0013
30.4934
30.9923
31.4973
32.0079
32.5233
33.043
33.5664
34.0929
34.6219
35.1531
35.6863
36.2212
36.7578
37.2963
37.8368
38.3799
38.9262
39.4764
40.0317
40.5933
41.1628
41.7419
42.3325
42.9369
43.5575
44.197
44.8582
45.5444
46.2587
47.0048
47.7864
48.6076
28.1246
27.632
27.1574
26.7004
26.2604
25.8372
25.4303
25.0394
24.6641
24.3043
23.9597
23.6299
23.3149
23.0144
22.7283
22.4565
22.1989
21.9554
21.7259
21.5105
21.3092
21.122
20.9491
20.7905
20.6465
20.5172
20.403
20.3042
20.2211
20.1541
20.1039
20.0708
20.0557
20.0593
20.0823
20.1258
20.1902
20.2745
20.3773
20.4977
20.6351
20.789
20.9587
21.1438
21.3439
21.5586
21.7877
22.0307
22.2875
22.5579
22.8416
23.1385
23.4484
23.771
24.1064
24.4541
24.8142
25.1864
25.5704
25.9661
26.3731
26.7911
27.2199
27.659
28.108
28.5665
29.034
29.51
29.9938
30.485
30.9828
31.4867
31.9961
32.5102
33.0288
33.5512
34.0767
34.6046
35.1345
35.6664
36.2002
36.736
37.2739
37.8141
38.3572
38.9037
39.4547
40.0111
40.5743
41.1459
41.7275
42.3213
42.9293
43.5542
44.1984
44.865
45.5569
46.2776
47.0305
47.8194
28.1249
27.6323
27.1577
26.7006
26.2607
25.8374
25.4305
25.0396
24.6644
24.3046
23.9599
23.6302
23.3151
23.0147
22.7286
22.4568
22.1992
21.9556
21.7262
21.5108
21.3094
21.1223
20.9493
20.7908
20.6467
20.5175
20.4033
20.3044
20.2213
20.1544
20.1041