/*--------------------------------*- C++ -*----------------------------------*\
  =========                 |
  \\      /  F ield         | OpenFOAM: The Open Source CFD Toolbox
   \\    /   O peration     | Website:  https://openfoam.org
    \\  /    A nd           | Version:  10
     \\/     M anipulation  |
\*---------------------------------------------------------------------------*/
FoamFile
{
    format      ascii;
    class       volVectorField;
    location    "64000";
    object      Urel;
}
// * * * * * * * * * * * * * * * * * * * * * * * * * * * * * * * * * * * * * //

dimensions      [0 1 -1 0 0 0 0];

internalField   nonuniform List<vector> 
17922
(
(2.42758 -2.65637 0)
(2.41284 -2.64027 3.05955e-19)
(2.39795 -2.624 -1.19235e-18)
(2.38291 -2.60757 -2.65871e-24)
(2.36771 -2.59097 2.79907e-19)
(2.35235 -2.57418 5.45183e-19)
(2.33681 -2.55722 1.01796e-23)
(2.3211 -2.54006 2.55532e-19)
(2.30522 -2.52271 -1.9538e-21)
(2.28915 -2.50516 -2.42152e-19)
(2.27288 -2.48741 -1.87033e-18)
(2.25643 -2.46944 0)
(2.23977 -2.45125 0)
(2.2229 -2.43283 -2.11738e-19)
(2.20582 -2.41418 2.06966e-19)
(2.18852 -2.39529 -1.98553e-19)
(2.17099 -2.37616 1.94134e-19)
(2.15323 -2.35677 -7.48177e-19)
(2.13523 -2.33711 -1.8013e-19)
(2.11697 -2.31718 -6.99159e-19)
(2.09846 -2.29697 -5.0791e-19)
(2.07968 -2.27647 1.63211e-19)
(2.06063 -2.25566 -7.95015e-19)
(2.0413 -2.23455 6.14671e-19)
(2.02167 -2.21311 -5.94701e-19)
(2.00173 -2.19133 0)
(1.98148 -2.16921 0)
(1.9609 -2.14672 0)
(1.94017 -2.12406 1.05677e-18)
(1.91963 -2.10161 1.30761e-19)
(1.89945 -2.07955 3.92926e-19)
(1.87962 -2.05787 1.04773e-18)
(1.86014 -2.03655 -4.58076e-19)
(1.84098 -2.01558 4.56792e-19)
(1.82214 -1.99496 -5.22369e-19)
(1.80361 -1.97466 0)
(1.78538 -1.95468 6.49287e-20)
(1.76743 -1.93501 -6.54494e-19)
(1.74977 -1.91564 -3.93424e-19)
(1.73238 -1.89655 -6.57248e-19)
(1.71525 -1.87775 6.63304e-20)
(1.69838 -1.85921 -6.56441e-20)
(1.68175 -1.84094 -4.64042e-19)
(1.66536 -1.82291 -6.61772e-20)
(1.6492 -1.80514 5.36038e-19)
(1.63327 -1.7876 -9.40833e-19)
(1.61756 -1.77029 -8.60583e-22)
(1.60205 -1.7532 -5.43862e-19)
(1.58674 -1.73632 4.77261e-19)
(1.57163 -1.71965 0)
(1.55671 -1.70318 2.76129e-19)
(1.54197 -1.6869 2.77762e-19)
(1.52741 -1.6708 -3.48909e-19)
(1.51301 -1.65488 3.52021e-19)
(1.49878 -1.63914 0)
(1.48471 -1.62355 2.14154e-19)
(1.47079 -1.60813 7.21373e-20)
(1.45702 -1.59287 2.88701e-19)
(1.4434 -1.57775 0)
(1.42991 -1.56279 -2.92629e-19)
(1.41657 -1.54796 0)
(1.40336 -1.53327 7.36782e-20)
(1.39028 -1.51872 -3.73574e-19)
(1.37732 -1.5043 -3.00464e-19)
(1.3645 -1.49 3.02465e-19)
(1.3518 -1.47584 -3.04403e-19)
(1.33923 -1.46181 2.30215e-19)
(1.32678 -1.44789 -1.54083e-19)
(1.31445 -1.43411 -3.87967e-19)
(1.30225 -1.42045 0)
(1.29018 -1.40692 1.56817e-19)
(1.27824 -1.39352 1.57646e-19)
(1.26644 -1.38024 -2.85385e-23)
(1.25476 -1.36711 2.38462e-19)
(1.24322 -1.3541 -2.40527e-19)
(1.23183 -1.34124 1.60769e-19)
(1.22057 -1.32851 1.61494e-19)
(1.20946 -1.31593 -3.2427e-19)
(1.19849 -1.3035 8.08851e-20)
(1.18767 -1.29122 -8.21324e-20)
(1.177 -1.2791 2.45325e-19)
(1.16647 -1.26713 -1.6434e-19)
(1.1561 -1.25532 9.95224e-22)
(1.14589 -1.24367 8.30588e-20)
(1.13582 -1.23219 4.13576e-19)
(1.1259 -1.22087 1.28304e-23)
(1.11613 -1.20972 2.49896e-19)
(1.10652 -1.19874 0)
(1.09704 -1.18792 -8.29287e-20)
(1.08772 -1.17728 8.40312e-20)
(1.07854 -1.1668 -1.66832e-19)
(1.06949 -1.15649 8.47389e-20)
(1.06058 -1.14635 1.6777e-19)
(2.42121 -2.66216 -3.21726e-19)
(2.40651 -2.64602 3.10644e-19)
(2.39166 -2.62972 -3.03829e-19)
(2.37666 -2.61325 1.17656e-18)
(2.3615 -2.59661 -1.94989e-24)
(2.34618 -2.57979 -2.76326e-19)
(2.33068 -2.56279 8.08607e-19)
(2.31502 -2.54559 0)
(2.29917 -2.52821 -1.26636e-18)
(2.28314 -2.51062 2.46864e-19)
(2.26692 -2.49282 9.53809e-19)
(2.25051 -2.47481 -9.24831e-19)
(2.23389 -2.45658 0)
(2.21707 -2.43812 0)
(2.20004 -2.41943 0)
(2.18278 -2.4005 1.01892e-18)
(2.1653 -2.38132 7.88477e-19)
(2.14758 -2.36189 5.73222e-19)
(2.12963 -2.34219 1.844e-19)
(2.11142 -2.32221 5.37498e-19)
(2.09296 -2.30196 -4.21407e-25)
(2.07423 -2.28141 0)
(2.05523 -2.26056 1.61912e-19)
(2.03594 -2.2394 -7.89097e-19)
(2.01637 -2.21791 6.10277e-19)
(1.99648 -2.19609 0)
(1.97629 -2.17392 0)
(1.95576 -2.15138 0)
(1.93508 -2.12867 2.51249e-24)
(1.9146 -2.10617 0)
(1.89448 -2.08406 1.33949e-19)
(1.8747 -2.06233 -1.3545e-19)
(1.85527 -2.04097 1.07458e-18)
(1.83616 -2.01996 4.03451e-19)
(1.81738 -1.99929 1.35022e-19)
(1.7989 -1.97895 0)
(1.78071 -1.95893 -5.36989e-19)
(1.76282 -1.93921 5.3765e-19)
(1.7452 -1.9198 6.05459e-19)
(1.72785 -1.90067 4.71849e-19)
(1.71077 -1.88183 -4.73971e-19)
(1.69394 -1.86325 4.74526e-19)
(1.67736 -1.84494 0)
(1.66102 -1.82688 -6.7902e-20)
(1.6449 -1.80907 -5.48103e-19)
(1.62901 -1.7915 1.17219e-18)
(1.61334 -1.77415 6.88104e-20)
(1.59787 -1.75703 4.17574e-19)
(1.58261 -1.74012 -4.8927e-19)
(1.56754 -1.72341 3.51253e-19)
(1.55265 -1.70691 1.41469e-19)
(1.53795 -1.69059 -2.12994e-19)
(1.52342 -1.67447 2.86286e-19)
(1.50907 -1.65852 0)
(1.49487 -1.64274 -7.20068e-20)
(1.48083 -1.62713 7.33647e-20)
(1.46695 -1.61168 2.93511e-19)
(1.45322 -1.59639 -2.95401e-19)
(1.43963 -1.58125 0)
(1.42618 -1.56625 -7.43511e-20)
(1.41286 -1.5514 7.57515e-20)
(1.39968 -1.53669 -7.53149e-20)
(1.38664 -1.52211 6.10994e-19)
(1.37371 -1.50767 3.84167e-19)
(1.36092 -1.49335 0)
(1.34825 -1.47917 0)
(1.33571 -1.46511 -7.76868e-20)
(1.32329 -1.45118 3.93544e-19)
(1.31099 -1.43738 6.32494e-19)
(1.29882 -1.4237 0)
(1.28678 -1.41015 0)
(1.27487 -1.39673 -2.41482e-19)
(1.26309 -1.38344 -1.62424e-19)
(1.25144 -1.37028 -8.15946e-20)
(1.23993 -1.35727 1.62949e-19)
(1.22856 -1.34439 -1.63638e-19)
(1.21733 -1.33165 -1.64287e-19)
(1.20624 -1.31906 8.29333e-20)
(1.19529 -1.30662 1.66441e-19)
(1.1845 -1.29433 1.66972e-19)
(1.17385 -1.28219 9.75951e-22)
(1.16335 -1.27021 -8.29742e-20)
(1.15299 -1.25839 -1.51678e-24)
(1.14279 -1.24673 -2.51063e-19)
(1.13274 -1.23523 -8.35204e-20)
(1.12284 -1.2239 -2.51993e-19)
(1.11308 -1.21274 -8.3796e-20)
(1.10348 -1.20175 0)
(1.09402 -1.19092 0)
(1.0847 -1.18026 2.53337e-19)
(1.07553 -1.16977 -8.47074e-20)
(1.06649 -1.15945 4.93441e-22)
(1.05759 -1.14929 0)
(2.41465 -2.66811 3.22189e-19)
(2.39999 -2.65194 -3.15283e-19)
(2.38518 -2.6356 1.22183e-18)
(2.37022 -2.61909 -1.18733e-18)
(2.3551 -2.60241 -5.76772e-19)
(2.33981 -2.58555 -2.79091e-19)
(2.32436 -2.56851 8.17032e-19)
(2.30874 -2.55128 1.05631e-18)
(2.29294 -2.53385 7.69983e-19)
(2.27695 -2.51622 -7.45214e-19)
(2.26077 -2.49838 0)
(2.24441 -2.48033 1.16947e-18)
(2.22784 -2.46206 -2.28014e-19)
(2.21106 -2.44356 -2.19138e-19)
(2.19407 -2.42483 2.14381e-19)
(2.17686 -2.40586 8.2735e-19)
(2.15943 -2.38664 -1.60358e-18)
(2.14176 -2.36716 0)
(2.12385 -2.34741 -5.65448e-19)
(2.1057 -2.32739 -1.93031e-21)
(2.08729 -2.30709 1.41033e-18)
(2.06861 -2.2865 -3.41918e-19)
(2.04966 -2.2656 6.64105e-19)
(2.03043 -2.24439 1.90638e-21)
(2.01091 -2.22285 -6.18871e-19)
(1.99108 -2.20098 1.51199e-19)
(1.97094 -2.17876 0)
(1.95047 -2.15618 1.39811e-19)
(1.92985 -2.13342 -1.24477e-18)
(1.90942 -2.11087 -1.36803e-19)
(1.88935 -2.08871 6.87482e-19)
(1.86964 -2.06693 -5.47941e-19)
(1.85026 -2.04552 -6.82822e-19)
(1.8312 -2.02446 -2.73202e-19)
(1.81247 -2.00375 -2.73057e-19)
(1.79404 -1.98336 6.83597e-19)
(1.77591 -1.9633 6.82228e-19)
(1.75806 -1.94354 -1.3768e-19)
(1.74049 -1.92409 0)
(1.7232 -1.90492 -6.85542e-19)
(1.70616 -1.88604 5.52324e-19)
(1.68938 -1.86742 1.38927e-19)
(1.67284 -1.84907 -4.85137e-19)
(1.65655 -1.83098 -6.25892e-19)
(1.64048 -1.81313 6.27503e-19)
(1.62463 -1.79552 -7.00707e-19)
(1.609 -1.77813 -4.92262e-19)
(1.59358 -1.76098 0)
(1.57835 -1.74403 4.98036e-19)
(1.56332 -1.72729 -4.9977e-19)
(1.54848 -1.71076 -3.58807e-19)
(1.53382 -1.69441 7.27074e-20)
(1.51933 -1.67825 0)
(1.50501 -1.66227 0)
(1.49085 -1.64646 -2.94161e-19)
(1.47685 -1.63083 0)
(1.46301 -1.61535 -2.97805e-19)
(1.44931 -1.60003 0)
(1.43575 -1.58486 3.01506e-19)
(1.42234 -1.56984 0)
(1.40906 -1.55496 0)
(1.39591 -1.54022 0)
(1.3829 -1.52562 -3.09086e-19)
(1.37001 -1.51115 0)
(1.35724 -1.49681 -7.77286e-20)
(1.34461 -1.48261 1.5732e-19)
(1.33209 -1.46853 -1.58224e-19)
(1.31971 -1.45458 -2.38172e-19)
(1.30744 -1.44075 -3.19967e-19)
(1.2953 -1.42706 0)
(1.28329 -1.41349 -1.61624e-19)
(1.27141 -1.40005 1.62428e-19)
(1.25966 -1.38675 1.63166e-19)
(1.24804 -1.37358 0)
(1.23656 -1.36054 0)
(1.22521 -1.34765 8.2125e-20)
(1.21401 -1.3349 -8.33885e-20)
(1.20294 -1.3223 0)
(1.19202 -1.30984 -8.29908e-20)
(1.18125 -1.29754 -8.32232e-20)
(1.17062 -1.28539 0)
(1.16014 -1.2734 3.36494e-19)
(1.14981 -1.26156 1.68612e-19)
(1.13963 -1.24989 -1.68909e-19)
(1.12959 -1.23839 0)
(1.11971 -1.22705 8.52032e-20)
(1.10997 -1.21587 8.53153e-20)
(1.10038 -1.20486 1.69823e-19)
(1.09093 -1.19402 1.69496e-19)
(1.08162 -1.18335 -2.55202e-19)
(1.07246 -1.17284 8.51348e-20)
(1.06343 -1.1625 -9.76547e-22)
(1.05453 -1.15233 -8.57527e-20)
(2.40787 -2.67422 3.26616e-19)
(2.39325 -2.65801 -3.15637e-19)
(2.37849 -2.64163 -6.13822e-19)
(2.36357 -2.62509 8.99178e-19)
(2.34849 -2.60837 2.89952e-19)
(2.33325 -2.59147 -5.65504e-19)
(2.31784 -2.57439 -6.24533e-24)
(2.30226 -2.55712 -2.67829e-19)
(2.2865 -2.53965 2.58049e-19)
(2.27056 -2.52198 7.53517e-19)
(2.25443 -2.5041 0)
(2.23811 -2.48601 0)
(2.22159 -2.46769 -9.19301e-19)
(2.20486 -2.44915 8.91723e-19)
(2.18792 -2.43038 0)
(2.17076 -2.41136 -1.0472e-18)
(2.15337 -2.39209 1.01718e-18)
(2.13576 -2.37257 -7.87986e-19)
(2.1179 -2.35278 1.52737e-18)
(2.0998 -2.33271 -1.84025e-19)
(2.08144 -2.31236 -5.36782e-19)
(2.06281 -2.29172 0)
(2.04392 -2.27078 -6.72845e-19)
(2.02474 -2.24952 -6.51708e-19)
(2.00527 -2.22793 7.88033e-19)
(1.9855 -2.20601 -3.05641e-19)
(1.96542 -2.18374 1.48958e-19)
(1.94501 -2.1611 0)
(1.92445 -2.13829 0)
(1.90408 -2.11569 0)
(1.88407 -2.09348 -5.59017e-19)
(1.86441 -2.07165 0)
(1.84509 -2.0502 -5.56624e-19)
(1.82609 -2.02909 -6.94033e-19)
(1.80741 -2.00833 2.77825e-19)
(1.78903 -1.9879 -6.95489e-19)
(1.77095 -1.96779 0)
(1.75316 -1.94799 0)
(1.73564 -1.92849 0)
(1.71839 -1.90929 1.38696e-19)
(1.70141 -1.89036 4.18908e-19)
(1.68468 -1.87171 -1.3942e-19)
(1.66819 -1.85332 7.04797e-19)
(1.65193 -1.83518 5.65086e-19)
(1.63591 -1.8173 5.67219e-19)
(1.62011 -1.79965 5.69558e-19)
(1.60452 -1.78223 3.0811e-23)
(1.58914 -1.76503 0)
(1.57396 -1.74805 -7.17695e-20)
(1.55897 -1.73128 6.53506e-19)
(1.54417 -1.71471 -2.19283e-19)
(1.52955 -1.69833 -3.67156e-19)
(1.5151 -1.68214 0)
(1.50082 -1.66613 -7.371e-20)
(1.4867 -1.65029 3.73496e-19)
(1.47274 -1.63462 7.4579e-20)
(1.45893 -1.61911 1.50974e-19)
(1.44527 -1.60377 4.55654e-19)
(1.43175 -1.58857 -4.58423e-19)
(1.41837 -1.57352 3.84765e-19)
(1.40513 -1.55861 -7.68497e-20)
(1.39202 -1.54385 7.82561e-20)
(1.37903 -1.52922 3.12955e-19)
(1.36618 -1.51473 -7.82197e-20)
(1.35345 -1.50037 3.96203e-19)
(1.34084 -1.48614 -3.18353e-19)
(1.32836 -1.47204 0)
(1.31601 -1.45807 3.21837e-19)
(1.30377 -1.44422 8.03841e-20)
(1.29167 -1.43051 -2.44296e-19)
(1.27969 -1.41692 2.45477e-19)
(1.26783 -1.40346 8.2524e-20)
(1.25611 -1.39014 -4.1148e-19)
(1.24452 -1.37695 8.32238e-20)
(1.23307 -1.36391 0)
(1.22175 -1.351 1.66704e-19)
(1.21057 -1.33823 3.34554e-19)
(1.19954 -1.32561 0)
(1.18864 -1.31314 -2.51924e-19)
(1.17789 -1.30083 1.68704e-19)
(1.16729 -1.28867 -2.5413e-19)
(1.15683 -1.27666 -2.53679e-19)
(1.14652 -1.26482 9.91183e-22)
(1.13636 -1.25313 4.25526e-19)
(1.12634 -1.24161 0)
(1.11647 -1.23026 -8.572e-20)
(1.10675 -1.21907 8.47929e-20)
(1.09717 -1.20805 -2.56573e-19)
(1.08773 -1.19719 -2.56242e-19)
(1.07844 -1.18651 8.54602e-20)
(1.06929 -1.17598 -8.54953e-20)
(1.06027 -1.16563 8.60316e-20)
(1.05138 -1.15543 0)
(2.40088 -2.6805 9.84303e-19)
(2.38631 -2.66424 -3.17886e-19)
(2.37158 -2.64783 3.11318e-19)
(2.35671 -2.63124 -6.0355e-19)
(2.34167 -2.61449 0)
(2.32648 -2.59755 0)
(2.31111 -2.58042 5.54489e-19)
(2.29558 -2.56311 -1.07757e-18)
(2.27986 -2.5456 -2.6067e-19)
(2.26397 -2.52789 2.55192e-19)
(2.24789 -2.50997 9.87191e-19)
(2.23161 -2.49183 1.19693e-18)
(2.21514 -2.47347 6.96626e-19)
(2.19846 -2.45489 -1.80527e-18)
(2.18157 -2.43607 -8.75732e-19)
(2.16446 -2.417 -2.11363e-19)
(2.14712 -2.39769 2.06967e-19)
(2.12956 -2.37812 6.00164e-19)
(2.11175 -2.35828 -1.16179e-18)
(2.0937 -2.33817 -1.88695e-19)
(2.0754 -2.31777 -1.80936e-19)
(2.05683 -2.29708 1.77298e-19)
(2.03799 -2.27609 8.53255e-19)
(2.01887 -2.25478 1.32233e-18)
(1.99946 -2.23315 -3.20758e-19)
(1.97975 -2.21117 3.10744e-19)
(1.95972 -2.18885 -1.95991e-21)
(1.93938 -2.16616 -1.46711e-19)
(1.91887 -2.1433 -1.42151e-19)
(1.89856 -2.12064 7.14144e-19)
(1.87861 -2.09838 0)
(1.85901 -2.0765 -4.26411e-19)
(1.83975 -2.05499 2.83118e-19)
(1.82081 -2.03384 7.07831e-19)
(1.80218 -2.01303 0)
(1.78386 -1.99256 -7.05379e-19)
(1.76583 -1.9724 1.42257e-19)
(1.74809 -1.95256 0)
(1.73063 -1.93302 5.66593e-19)
(1.71343 -1.91377 0)
(1.6965 -1.8948 -4.2763e-19)
(1.67982 -1.8761 4.26886e-19)
(1.66338 -1.85767 -1.4211e-19)
(1.64717 -1.8395 5.75902e-19)
(1.6312 -1.82157 -4.31218e-19)
(1.61544 -1.80389 -7.22157e-19)
(1.5999 -1.78643 5.82772e-19)
(1.58457 -1.7692 1.46803e-19)
(1.56943 -1.75218 -1.17251e-18)
(1.55448 -1.73537 -2.94575e-19)
(1.53973 -1.71877 1.71555e-23)
(1.52515 -1.70236 3.71569e-19)
(1.51074 -1.68613 -7.52733e-20)
(1.4965 -1.67009 0)
(1.48242 -1.65422 0)
(1.4685 -1.63852 -7.55988e-20)
(1.45473 -1.62298 -2.29062e-19)
(1.4411 -1.6076 -3.07809e-19)
(1.42762 -1.59237 0)
(1.41428 -1.5773 -2.56362e-23)
(1.40107 -1.56236 0)
(1.38799 -1.54757 0)
(1.37504 -1.53292 -6.33458e-19)
(1.36222 -1.5184 -3.18477e-19)
(1.34953 -1.50402 -3.20247e-19)
(1.33695 -1.48976 8.00302e-20)
(1.32451 -1.47564 -8.13906e-20)
(1.31218 -1.46164 2.44414e-19)
(1.29998 -1.44778 -2.44627e-19)
(1.28791 -1.43404 1.64198e-19)
(1.27596 -1.42043 -3.29858e-19)
(1.26414 -1.40696 8.33041e-20)
(1.25244 -1.39362 2.49966e-19)
(1.24089 -1.38041 0)
(1.22946 -1.36735 0)
(1.21817 -1.35442 -1.68109e-19)
(1.20702 -1.34164 -3.37228e-19)
(1.19601 -1.32901 0)
(1.18514 -1.31653 1.69504e-19)
(1.17442 -1.30419 8.44476e-20)
(1.16384 -1.29202 1.69245e-19)
(1.1534 -1.28 -2.56281e-19)
(1.14311 -1.26814 -1.70772e-19)
(1.13297 -1.25644 -1.71e-19)
(1.12297 -1.24491 -1.71156e-19)
(1.11312 -1.23354 0)
(1.10341 -1.22234 -3.42814e-19)
(1.09385 -1.2113 1.71492e-19)
(1.08443 -1.20043 0)
(1.07515 -1.18973 8.57956e-20)
(1.06601 -1.17919 0)
(1.057 -1.16881 -8.58261e-20)
(1.04813 -1.1586 -8.58493e-20)
(2.39367 -2.68694 -9.88194e-19)
(2.37914 -2.67064 1.28407e-18)
(2.36446 -2.65419 -2.10275e-21)
(2.34962 -2.63756 3.0297e-19)
(2.33463 -2.62076 0)
(2.31948 -2.60378 -5.75254e-19)
(2.30417 -2.58662 -5.59337e-19)
(2.28868 -2.56926 -1.35826e-18)
(2.27301 -2.55171 2.65248e-19)
(2.25717 -2.53395 -1.02686e-18)
(2.24113 -2.51599 -1.24587e-18)
(2.22491 -2.49781 -7.25567e-19)
(2.20848 -2.47941 0)
(2.19185 -2.46078 -2.27266e-19)
(2.17501 -2.44191 1.32953e-18)
(2.15796 -2.4228 -2.16047e-19)
(2.14067 -2.40344 8.34502e-19)
(2.12316 -2.38382 0)
(2.10541 -2.36394 1.04888e-23)
(2.08742 -2.34378 -7.61383e-19)
(2.06917 -2.32333 7.3824e-19)
(2.05066 -2.30259 -7.15707e-19)
(2.03187 -2.28154 6.9378e-19)
(2.01281 -2.26018 -6.72468e-19)
(1.99346 -2.2385 0)
(1.97381 -2.21647 0)
(1.95384 -2.19409 4.60041e-19)
(1.93356 -2.17135 1.49194e-19)
(1.91312 -2.14843 0)
(1.89287 -2.12572 -5.80265e-19)
(1.87298 -2.10341 0)
(1.85344 -2.08148 5.76864e-19)
(1.83424 -2.05992 -1.42965e-19)
(1.81536 -2.03872 -5.73022e-19)
(1.79679 -2.01786 2.87253e-19)
(1.77852 -1.99734 4.29846e-19)
(1.76055 -1.97714 0)
(1.74287 -1.95725 7.17823e-19)
(1.72546 -1.93766 -5.77652e-19)
(1.70831 -1.91837 -1.8857e-21)
(1.69143 -1.89936 5.76064e-19)
(1.6748 -1.88062 -5.81296e-19)
(1.65841 -1.86215 -2.90529e-19)
(1.64226 -1.84393 -4.36266e-19)
(1.62633 -1.82596 1.45302e-19)
(1.61062 -1.80824 -2.93593e-19)
(1.59513 -1.79074 -4.41231e-19)
(1.57984 -1.77347 -1.47087e-19)
(1.56475 -1.75642 1.33923e-18)
(1.54985 -1.73958 0)
(1.53513 -1.72293 3.00273e-19)
(1.52059 -1.70649 0)
(1.50623 -1.69023 3.03338e-19)
(1.49203 -1.67415 0)
(1.47799 -1.65825 0)
(1.46411 -1.64251 -4.61444e-19)
(1.45038 -1.62694 4.65904e-19)
(1.43679 -1.61153 7.7442e-20)
(1.42335 -1.59628 -9.62229e-22)
(1.41004 -1.58117 -3.94441e-19)
(1.39687 -1.56621 -3.16881e-19)
(1.38383 -1.55139 0)
(1.37092 -1.53671 2.80239e-23)
(1.35813 -1.52217 3.22054e-19)
(1.34547 -1.50776 8.04375e-20)
(1.33293 -1.49348 2.43541e-19)
(1.32052 -1.47933 0)
(1.30823 -1.46531 -2.469e-19)
(1.29606 -1.45142 2.47045e-19)
(1.28402 -1.43766 -8.2374e-20)
(1.2721 -1.42404 8.37323e-20)
(1.26031 -1.41054 -8.40595e-20)
(1.24865 -1.39718 -8.43633e-20)
(1.23713 -1.38396 0)
(1.22573 -1.37088 0)
(1.21447 -1.35793 8.41878e-20)
(1.20335 -1.34514 1.68851e-19)
(1.19237 -1.33249 -1.00325e-21)
(1.18153 -1.31999 -1.71654e-19)
(1.17083 -1.30764 -1.00363e-21)
(1.16027 -1.29545 -1.71254e-19)
(1.14986 -1.28342 4.29243e-19)
(1.13959 -1.27154 1.71703e-19)
(1.12947 -1.25983 0)
(1.11949 -1.24828 1.71977e-19)
(1.10966 -1.2369 0)
(1.09997 -1.22568 1.3272e-23)
(1.09043 -1.21463 0)
(1.08102 -1.20374 8.55709e-20)
(1.07176 -1.19302 -9.89237e-22)
(1.06263 -1.18246 -8.60566e-20)
(1.05364 -1.17207 8.65453e-20)
(1.04477 -1.16183 1.71612e-19)
(2.38622 -2.69355 6.63114e-19)
(2.37174 -2.67721 -9.67711e-19)
(2.3571 -2.66072 3.1549e-19)
(2.34231 -2.64405 0)
(2.32737 -2.62721 0)
(2.31227 -2.61018 5.79697e-19)
(2.297 -2.59298 0)
(2.28156 -2.57558 1.0968e-18)
(2.26594 -2.55798 1.06638e-18)
(2.25015 -2.54018 2.33128e-18)
(2.23416 -2.52217 -2.52888e-19)
(2.21799 -2.50395 0)
(2.20161 -2.4855 0)
(2.18504 -2.46682 9.23412e-19)
(2.16825 -2.44791 8.96617e-19)
(2.15124 -2.42875 2.16578e-19)
(2.13402 -2.40934 -1.05711e-18)
(2.11656 -2.38968 0)
(2.09887 -2.36974 1.02173e-23)
(2.08093 -2.34953 1.02811e-23)
(2.06273 -2.32903 -7.48581e-19)
(2.04428 -2.30824 1.80491e-19)
(2.02556 -2.28714 -8.81044e-19)
(2.00656 -2.26573 1.69641e-19)
(1.98727 -2.24399 -2.02781e-21)
(1.96768 -2.22191 -1.61414e-19)
(1.94778 -2.19948 -6.21977e-19)
(1.92756 -2.17668 -1.20515e-18)
(1.90718 -2.1537 -1.18391e-18)
(1.887 -2.13094 0)
(1.86717 -2.10857 1.45985e-19)
(1.84769 -2.08659 -1.47573e-19)
(1.82855 -2.06498 0)
(1.80973 -2.04373 5.84311e-19)
(1.79122 -2.02282 -4.38813e-19)
(1.77301 -2.00225 -2.91801e-19)
(1.7551 -1.982 2.91857e-19)
(1.73747 -1.96206 -7.31114e-19)
(1.72012 -1.94243 -5.84772e-19)
(1.70303 -1.92309 0)
(1.6862 -1.90403 -1.31947e-18)
(1.66962 -1.88525 1.48013e-19)
(1.65328 -1.86674 -1.46503e-19)
(1.63718 -1.84848 1.48859e-19)
(1.6213 -1.83047 -4.46146e-19)
(1.60564 -1.8127 -1.49891e-19)
(1.5902 -1.79517 1.04759e-18)
(1.57496 -1.77786 1.51087e-19)
(1.55991 -1.76077 -6.03157e-19)
(1.54506 -1.74389 0)
(1.53039 -1.72721 3.0435e-19)
(1.51589 -1.71073 -3.05825e-19)
(1.50157 -1.69443 -3.07364e-19)
(1.48742 -1.67832 -1.53494e-19)
(1.47342 -1.66238 1.5622e-19)
(1.45958 -1.64662 3.1215e-19)
(1.44589 -1.63101 -1.57875e-19)
(1.43234 -1.61557 -4.74134e-19)
(1.41894 -1.60029 4.74699e-19)
(1.40567 -1.58515 1.58415e-19)
(1.39253 -1.57016 3.20491e-19)
(1.37953 -1.55531 1.60088e-19)
(1.36665 -1.5406 1.6093e-19)
(1.3539 -1.52603 -1.61723e-19)
(1.34128 -1.51159 -1.62511e-19)
(1.32878 -1.49729 0)
(1.3164 -1.48311 -8.20316e-20)
(1.30414 -1.46907 -2.48187e-19)
(1.29201 -1.45516 3.33011e-19)
(1.28 -1.44138 -8.30977e-20)
(1.26812 -1.42773 1.68862e-19)
(1.25636 -1.41421 8.47355e-20)
(1.24473 -1.40084 -8.40213e-20)
(1.23324 -1.38759 1.00685e-21)
(1.22187 -1.37449 3.40176e-19)
(1.21065 -1.36153 -8.57786e-20)
(1.19955 -1.34872 0)
(1.1886 -1.33605 -8.51601e-20)
(1.17778 -1.32353 -8.53154e-20)
(1.16711 -1.31117 0)
(1.15658 -1.29896 1.72152e-19)
(1.14619 -1.28691 -1.72354e-19)
(1.13595 -1.27503 -8.57395e-20)
(1.12585 -1.2633 8.67957e-20)
(1.1159 -1.25173 1.72645e-19)
(1.10608 -1.24033 0)
(1.09641 -1.22909 1.72684e-19)
(1.08689 -1.21802 8.6819e-20)
(1.0775 -1.20712 4.98086e-22)
(1.06825 -1.19638 -4.94583e-22)
(1.05914 -1.1858 -2.58721e-19)
(1.05016 -1.17539 8.71977e-20)
(1.04131 -1.16513 8.66788e-20)
(2.37854 -2.70033 -1.33271e-18)
(2.3641 -2.68395 0)
(2.34951 -2.66742 0)
(2.33477 -2.65071 6.13864e-19)
(2.31988 -2.63382 -6.01888e-19)
(2.30482 -2.61675 -2.92971e-19)
(2.2896 -2.5995 -5.68161e-19)
(2.27421 -2.58206 5.52788e-19)
(2.25865 -2.56442 -1.61311e-18)
(2.2429 -2.54657 -1.04371e-18)
(2.22697 -2.52852 5.08393e-19)
(2.21084 -2.51024 -2.48137e-19)
(2.19452 -2.49175 -9.60489e-19)
(2.178 -2.47302 1.16547e-18)
(2.16127 -2.45406 -1.13421e-18)
(2.14432 -2.43486 1.09948e-18)
(2.12715 -2.4154 -2.14766e-19)
(2.10975 -2.39568 8.29969e-19)
(2.09211 -2.3757 8.05631e-19)
(2.07423 -2.35543 9.89708e-24)
(2.0561 -2.33489 0)
(2.0377 -2.31404 5.53103e-19)
(2.01904 -2.29289 -5.34518e-19)
(2.0001 -2.27142 0)
(1.98087 -2.24963 0)
(1.96135 -2.22749 1.61841e-19)
(1.94152 -2.205 -1.58969e-19)
(1.92136 -2.18215 1.5206e-19)
(1.90105 -2.15912 9.02355e-19)
(1.88094 -2.13629 1.50874e-19)
(1.86118 -2.11387 0)
(1.84176 -2.09184 0)
(1.82268 -2.07017 -4.46837e-19)
(1.80392 -2.04887 -1.49377e-19)
(1.78547 -2.02791 7.40224e-19)
(1.76733 -2.00728 -2.9635e-19)
(1.74947 -1.98699 -5.90778e-19)
(1.7319 -1.967 8.89599e-19)
(1.7146 -1.94732 1.03795e-18)
(1.69757 -1.92794 0)
(1.6808 -1.90883 5.95616e-19)
(1.66427 -1.89001 -5.96906e-19)
(1.64799 -1.87145 -1.4864e-19)
(1.63194 -1.85315 1.51005e-19)
(1.61611 -1.8351 6.02075e-19)
(1.60051 -1.81729 0)
(1.58511 -1.79972 -7.57015e-19)
(1.56992 -1.78237 9.13121e-19)
(1.55492 -1.76524 -1.53786e-19)
(1.54011 -1.74832 1.54443e-19)
(1.52549 -1.7316 -6.14737e-19)
(1.51104 -1.71508 4.6563e-19)
(1.49676 -1.69875 1.54646e-19)
(1.48265 -1.6826 -1.57349e-19)
(1.4687 -1.66663 1.5617e-19)
(1.4549 -1.65083 -1.58911e-19)
(1.44125 -1.63519 0)
(1.42774 -1.61972 3.19077e-19)
(1.41438 -1.6044 -3.20691e-19)
(1.40115 -1.58923 -2.48494e-23)
(1.38805 -1.57421 -3.2389e-19)
(1.37509 -1.55933 0)
(1.36225 -1.54459 -1.62543e-19)
(1.34954 -1.52999 3.28631e-19)
(1.33695 -1.51552 3.30165e-19)
(1.32448 -1.50119 3.31643e-19)
(1.31214 -1.48699 -1.67547e-19)
(1.29992 -1.47293 3.34504e-19)
(1.28782 -1.45899 -5.04752e-19)
(1.27585 -1.44519 -1.0142e-21)
(1.264 -1.43152 0)
(1.25228 -1.41798 1.69722e-19)
(1.24068 -1.40458 -1.70254e-19)
(1.22922 -1.39132 1.70746e-19)
(1.21789 -1.37819 -3.42407e-19)
(1.20669 -1.36522 -2.56896e-19)
(1.19563 -1.35238 8.64904e-20)
(1.1847 -1.3397 1.72274e-19)
(1.17392 -1.32716 1.72557e-19)
(1.16327 -1.31478 0)
(1.15277 -1.30256 -8.69871e-20)
(1.14241 -1.29049 -1.73069e-19)
(1.13219 -1.27859 8.70823e-20)
(1.12211 -1.26684 0)
(1.11218 -1.25526 -3.46417e-19)
(1.10239 -1.24384 1.73175e-19)
(1.09274 -1.23258 8.60601e-20)
(1.08323 -1.2215 -1.74046e-19)
(1.07386 -1.21057 -4.94039e-22)
(1.06463 -1.19981 1.72834e-19)
(1.05554 -1.18921 0)
(1.04658 -1.17878 -8.63073e-20)
(1.03775 -1.1685 8.57719e-20)
(2.37061 -2.70729 6.69199e-19)
(2.35621 -2.69087 6.50208e-19)
(2.34168 -2.67429 -6.37907e-19)
(2.32699 -2.65754 6.17315e-19)
(2.31214 -2.64061 -6.05544e-19)
(2.29714 -2.6235 1.17313e-18)
(2.28197 -2.6062 -2.13285e-21)
(2.26663 -2.58871 1.11378e-18)
(2.25111 -2.57102 5.39805e-19)
(2.23542 -2.55313 4.31796e-25)
(2.21954 -2.53503 -4.10282e-25)
(2.20347 -2.51671 7.449e-19)
(2.18721 -2.49816 7.26261e-19)
(2.17074 -2.47939 -1.65064e-18)
(2.15406 -2.46038 -1.14612e-18)
(2.13717 -2.44112 -8.90055e-19)
(2.12006 -2.42162 0)
(2.10271 -2.40185 -1.04863e-18)
(2.08514 -2.38181 2.09942e-21)
(2.06732 -2.3615 1.7824e-18)
(2.04924 -2.34089 0)
(2.03091 -2.31999 -1.8544e-19)
(2.01232 -2.29879 1.82034e-19)
(1.99344 -2.27727 -1.74568e-19)
(1.97428 -2.25542 2.08849e-21)
(1.95482 -2.23322 1.66346e-19)
(1.93505 -2.21068 -6.41428e-19)
(1.91497 -2.18776 1.24369e-18)
(1.89473 -2.16467 -1.51721e-19)
(1.87468 -2.14179 1.53247e-19)
(1.85499 -2.11931 7.5738e-19)
(1.83564 -2.09722 -7.57261e-19)
(1.81662 -2.0755 1.2073e-18)
(1.79792 -2.05414 -6.02647e-19)
(1.77954 -2.03313 -7.51486e-19)
(1.76146 -2.01246 6.03652e-19)
(1.74366 -1.99211 9.02449e-19)
(1.72615 -1.97207 -7.53349e-19)
(1.70891 -1.95234 -6.02409e-19)
(1.69194 -1.93291 0)
(1.67522 -1.91376 0)
(1.65875 -1.89489 6.05427e-19)
(1.64252 -1.87629 -4.56117e-19)
(1.62653 -1.85794 -1.53104e-19)
(1.61075 -1.83985 -6.10308e-19)
(1.5952 -1.822 -4.60203e-19)
(1.57985 -1.80438 -3.07228e-19)
(1.56471 -1.78699 -4.61604e-19)
(1.54976 -1.76982 0)
(1.535 -1.75286 -1.56424e-19)
(1.52043 -1.7361 6.22426e-19)
(1.50602 -1.71954 -3.1357e-19)
(1.49179 -1.70317 1.5848e-19)
(1.47773 -1.68699 0)
(1.46382 -1.67098 -1.5995e-19)
(1.45006 -1.65515 -4.80157e-19)
(1.43645 -1.63948 0)
(1.42299 -1.62397 -4.82782e-19)
(1.40967 -1.60861 4.87092e-19)
(1.39648 -1.59341 -3.25632e-19)
(1.38342 -1.57836 3.27171e-19)
(1.3705 -1.56345 -1.63337e-19)
(1.3577 -1.54868 1.66095e-19)
(1.34502 -1.53405 -3.3165e-19)
(1.33247 -1.51956 -6.66215e-19)
(1.32004 -1.5052 1.68253e-19)
(1.30774 -1.49097 1.68944e-19)
(1.29555 -1.47688 1.67572e-19)
(1.28349 -1.46292 1.68215e-19)
(1.27155 -1.44909 -1.58181e-23)
(1.25974 -1.43539 -1.70354e-19)
(1.24805 -1.42184 -1.7089e-19)
(1.23649 -1.40841 1.70357e-19)
(1.22506 -1.39513 -5.1541e-19)
(1.21376 -1.38199 6.88788e-19)
(1.2026 -1.36899 -3.45076e-19)
(1.19157 -1.35614 2.04038e-21)
(1.18067 -1.34343 -5.64781e-24)
(1.16992 -1.33088 -1.74337e-19)
(1.1593 -1.31848 8.62318e-20)
(1.14882 -1.30624 8.62862e-20)
(1.13849 -1.29415 8.63273e-20)
(1.1283 -1.28223 1.7268e-19)
(1.11824 -1.27046 -8.73476e-20)
(1.10834 -1.25886 1.73643e-19)
(1.09857 -1.24743 -3.47108e-19)
(1.08894 -1.23615 0)
(1.07946 -1.22504 1.73303e-19)
(1.07011 -1.2141 8.65761e-20)
(1.0609 -1.20331 -1.725e-19)
(1.05182 -1.1927 8.64166e-20)
(1.04288 -1.18224 -8.6339e-20)
(1.03407 -1.17194 4.89621e-22)
(2.36242 -2.71443 -1.34542e-18)
(2.34808 -2.69797 0)
(2.33359 -2.68134 0)
(2.31895 -2.66455 -6.22559e-19)
(2.30416 -2.64757 -6.06707e-19)
(2.2892 -2.63042 0)
(2.27409 -2.61307 -5.75777e-19)
(2.2588 -2.59553 -1.1214e-18)
(2.24334 -2.5778 -5.43735e-19)
(2.2277 -2.55986 -2.12104e-18)
(2.21188 -2.54171 1.55327e-18)
(2.19586 -2.52334 -2.0121e-18)
(2.17965 -2.50475 1.46568e-18)
(2.16324 -2.48592 1.42525e-18)
(2.14662 -2.46686 8.57731e-24)
(2.12979 -2.44756 0)
(2.11274 -2.428 0)
(2.09545 -2.40817 0)
(2.07794 -2.38808 0)
(2.06018 -2.36771 -6.02022e-19)
(2.04217 -2.34706 -1.95596e-19)
(2.0239 -2.3261 0)
(2.00537 -2.30484 7.3355e-19)
(1.98656 -2.28326 1.76958e-19)
(1.96747 -2.26135 -1.73845e-19)
(1.94808 -2.2391 6.70773e-19)
(1.92838 -2.2165 6.50958e-19)
(1.90836 -2.19352 -1.26255e-18)
(1.88819 -2.17037 1.54047e-19)
(1.86822 -2.14743 4.62568e-19)
(1.84859 -2.12489 -1.18983e-23)
(1.82931 -2.10274 4.61639e-19)
(1.81036 -2.08097 3.06331e-19)
(1.79173 -2.05955 4.57698e-19)
(1.77341 -2.03849 6.10886e-19)
(1.75539 -2.01776 -7.6207e-19)
(1.73766 -1.99736 1.53595e-19)
(1.72021 -1.97728 0)
(1.70304 -1.9575 0)
(1.68612 -1.93801 0)
(1.66946 -1.91882 0)
(1.65305 -1.8999 7.66141e-19)
(1.63688 -1.88125 4.60325e-19)
(1.62094 -1.86286 7.69777e-19)
(1.60522 -1.84472 -1.55557e-19)
(1.58972 -1.82683 6.20273e-19)
(1.57442 -1.80917 0)
(1.55933 -1.79173 -1.55134e-19)
(1.54444 -1.77452 1.57701e-19)
(1.52973 -1.75752 1.56326e-19)
(1.5152 -1.74072 -4.74879e-19)
(1.50084 -1.72412 -3.17234e-19)
(1.48666 -1.70772 0)
(1.47264 -1.69149 -1.59003e-19)
(1.45878 -1.67545 4.83156e-19)
(1.44506 -1.65958 1.62454e-19)
(1.4315 -1.64387 4.8751e-19)
(1.41808 -1.62833 2.23433e-23)
(1.4048 -1.61294 -8.17239e-19)
(1.39165 -1.59771 4.94152e-19)
(1.37864 -1.58262 1.64106e-19)
(1.36575 -1.56768 -4.9852e-19)
(1.35299 -1.55288 1.65538e-19)
(1.34036 -1.53822 3.32484e-19)
(1.32784 -1.52369 1.89723e-23)
(1.31545 -1.50931 -1.94013e-23)
(1.30319 -1.49505 -9.5369e-24)
(1.29104 -1.48093 2.04177e-21)
(1.27902 -1.46694 3.41816e-19)
(1.26711 -1.45309 -1.70952e-19)
(1.25534 -1.43937 1.71459e-19)
(1.24369 -1.42579 0)
(1.23216 -1.41234 5.16017e-19)
(1.22077 -1.39904 -2.05097e-21)
(1.2095 -1.38587 -5.20245e-19)
(1.19837 -1.37285 -1.72325e-19)
(1.18737 -1.35998 1.74638e-19)
(1.17651 -1.34726 1.73824e-19)
(1.16578 -1.33468 1.72944e-19)
(1.1552 -1.32226 -1.76109e-19)
(1.14475 -1.31 -3.49287e-19)
(1.13444 -1.2979 -1.74138e-19)
(1.12428 -1.28595 -1.25974e-23)
(1.11425 -1.27417 0)
(1.10437 -1.26255 -1.72925e-19)
(1.09462 -1.25109 3.48604e-19)
(1.08502 -1.2398 0)
(1.07556 -1.22867 -1.73446e-19)
(1.06623 -1.2177 -1.7324e-19)
(1.05705 -1.20689 -8.65139e-20)
(1.04799 -1.19625 1.72328e-19)
(1.03907 -1.18577 -1.73116e-19)
(1.03028 -1.17545 -1.29782e-25)
(2.35397 -2.72176 2.16033e-21)
(2.33968 -2.70525 -6.52997e-19)
(2.32524 -2.68858 1.28237e-18)
(2.31065 -2.67174 6.23144e-19)
(2.29591 -2.65472 6.09657e-19)
(2.28101 -2.63751 -5.92092e-19)
(2.26595 -2.62012 -5.74777e-19)
(2.25072 -2.60254 5.66345e-19)
(2.23531 -2.58475 -1.09906e-18)
(2.21973 -2.56676 2.14049e-18)
(2.20396 -2.54856 1.56074e-18)
(2.18801 -2.53014 5.04921e-19)
(2.17186 -2.5115 4.91263e-19)
(2.1555 -2.49263 -1.44229e-18)
(2.13894 -2.47351 1.86769e-18)
(2.12217 -2.45415 -4.51909e-19)
(2.10518 -2.43454 4.43612e-19)
(2.08796 -2.41466 8.5826e-19)
(2.07051 -2.39452 -4.14914e-19)
(2.05281 -2.37409 4.07408e-19)
(2.03487 -2.35338 -7.87454e-19)
(2.01667 -2.33237 0)
(1.9982 -2.31105 5.58266e-19)
(1.97946 -2.28941 1.81439e-19)
(1.96044 -2.26745 -7.00541e-19)
(1.94111 -2.24513 -6.80164e-19)
(1.92149 -2.22247 6.60303e-19)
(1.90155 -2.19943 1.44022e-18)
(1.88145 -2.17622 -1.58481e-19)
(1.86155 -2.15322 1.55752e-19)
(1.842 -2.13062 -7.82322e-19)
(1.82279 -2.10841 0)
(1.80391 -2.08658 -6.21586e-19)
(1.78534 -2.06511 7.74473e-19)
(1.76709 -2.04399 4.63654e-19)
(1.74914 -2.02321 0)
(1.73147 -2.00275 -1.53695e-19)
(1.71408 -1.98261 3.09479e-19)
(1.69697 -1.96278 -1.55844e-19)
(1.68012 -1.94325 4.65941e-19)
(1.66352 -1.92401 2.02345e-21)
(1.64717 -1.90504 -6.19798e-19)
(1.63105 -1.88634 3.11532e-19)
(1.61517 -1.8679 -7.81675e-19)
(1.5995 -1.84972 7.81706e-19)
(1.58406 -1.83178 -1.57994e-19)
(1.56882 -1.81408 1.56472e-19)
(1.55378 -1.7966 -1.59005e-19)
(1.53893 -1.77934 6.34212e-19)
(1.52428 -1.7623 -3.18273e-19)
(1.5098 -1.74546 -1.58742e-19)
(1.49549 -1.72882 4.82158e-19)
(1.48136 -1.71238 0)
(1.46738 -1.69611 -1.6069e-19)
(1.45357 -1.68003 1.6339e-19)
(1.4399 -1.66412 0)
(1.42638 -1.64838 -3.27551e-19)
(1.41301 -1.6328 6.57886e-19)
(1.39977 -1.61738 1.66201e-19)
(1.38666 -1.60211 -4.96598e-19)
(1.37369 -1.58699 1.65542e-19)
(1.36085 -1.57201 1.6624e-19)
(1.34813 -1.55718 -3.35815e-19)
(1.33553 -1.54249 0)
(1.32306 -1.52793 -1.68174e-19)
(1.31071 -1.51351 1.70835e-19)