/*--------------------------------*- C++ -*----------------------------------*\
  =========                 |
  \\      /  F ield         | OpenFOAM: The Open Source CFD Toolbox
   \\    /   O peration     | Website:  https://openfoam.org
    \\  /    A nd           | Version:  10
     \\/     M anipulation  |
\*---------------------------------------------------------------------------*/
FoamFile
{
    format      ascii;
    class       volScalarField;
    location    "34000";
    object      Co;
}
// * * * * * * * * * * * * * * * * * * * * * * * * * * * * * * * * * * * * * //

dimensions      [0 0 0 0 0 0 0];

internalField   nonuniform List<scalar> 
17969
(
75.5659
47.7659
47.511
43.8001
37.9698
35.101
36.4378
38.9446
42.6703
48.7302
68.9225
97.1906
143.066
199.47
265.151
336.857
409.994
479.807
542.292
594.868
636.413
667.144
688.173
700.962
707.106
708.026
704.925
698.822
690.52
680.639
669.648
657.892
645.617
632.993
620.135
607.122
594.008
580.83
567.616
554.384
541.149
527.922
514.712
501.526
488.37
475.248
462.164
449.121
436.124
423.174
410.273
397.425
384.63
371.89
359.206
346.58
334.013
321.505
309.056
296.669
284.343
272.078
259.875
247.734
235.657
223.643
211.694
199.81
187.992
176.242
164.561
152.953
141.418
129.961
121.717
116.708
111.952
110.418
115.651
120.642
125.41
129.968
134.328
138.5
142.493
146.315
149.975
153.482
156.846
160.08
163.186
166.163
169.008
171.724
174.32
176.804
179.183
181.465
183.658
185.772
76.6252
45.997
47.9901
47.2509
44.4473
40.0932
36.214
35.7153
37.7868
40.8367
45.0609
52.4726
71.9215
98.1403
139.892
190.702
249.982
315.561
383.99
451.303
513.742
568.413
613.646
648.864
674.55
691.791
701.867
706.118
705.713
701.67
694.859
685.98
675.586
664.107
651.866
639.1
625.976
612.611
599.086
585.459
571.769
558.045
544.309
530.576
516.858
503.165
489.503
475.879
462.296
448.759
435.271
421.834
408.452
395.124
381.854
368.643
355.491
342.399
329.369
316.4
303.494
290.65
277.87
265.153
252.5
239.912
227.388
214.931
202.54
190.218
177.965
165.785
153.679
141.651
133.121
128.098
123.324
119.644
124.344
129.391
134.207
138.803
143.191
147.383
151.387
155.211
158.863
162.349
165.678
168.858
171.9
174.811
177.593
180.243
182.764
185.168
187.461
189.654
191.756
193.778
77.7462
44.2036
47.0247
48.1256
47.5723
45.9086
43.0898
38.8885
35.2398
34.9926
37.3039
40.6546
45.2012
52.6324
71.015
94.2331
131.92
177.31
230.391
289.889
353.321
417.423
478.849
534.629
582.629
621.768
651.851
673.485
687.686
695.586
698.302
696.819
692.018
684.65
675.331
664.557
652.725
640.138
627.02
613.534
599.799
585.896
571.884
557.808
543.696
529.573
515.454
501.354
487.281
473.242
459.245
445.294
431.391
417.541
403.746
390.007
376.327
362.706
349.146
335.647
322.21
308.835
295.523
282.275
269.089
255.968
242.911
229.918
216.992
204.132
191.34
178.619
165.971
153.399
144.604
139.585
134.809
130.264
132.793
137.885
142.735
147.355
151.756
155.95
159.945
163.75
167.374
170.822
174.101
177.216
180.175
182.986
185.659
188.199
190.606
192.889
195.058
197.124
199.099
200.993
79.0426
42.9142
45.8852
47.884
48.5834
48.5322
47.7432
46.0942
43.3615
39.2176
34.467
33.2357
35.7358
39.2698
43.9527
50.3933
67.6305
88.4107
121.437
161.839
209.116
262.653
320.776
380.958
440.274
495.927
545.59
587.704
621.594
647.333
665.574
677.235
683.313
684.744
682.368
676.955
669.152
659.503
648.46
636.385
623.561
610.204
596.47
582.475
568.304
554.016
539.656
525.257
510.843
496.433
482.038
467.671
453.338
439.047
424.802
410.606
396.463
382.375
368.344
354.371
340.457
326.603
312.81
299.078
285.407
271.797
258.25
244.764
231.341
217.982
204.687
191.458
178.299
165.212
156.176
151.182
146.421
141.885
141.003
146.126
150.995
155.621
160.017
164.192
168.156
171.918
175.486
178.867
182.069
185.097
187.955
190.648
193.184
195.574
197.823
199.943
201.947
203.848
205.659
207.392
209.057
210.665
212.227
213.753
80.4339
41.9031
44.8062
47.2148
48.5217
49.3014
49.6108
49.402
48.5676
46.9254
44.2143
40.1223
34.318
31.5866
33.6871
37.251
41.9027
47.7164
62.8928
81.8976
109.978
145.976
187.956
235.783
288.448
344.109
400.376
454.689
504.738
548.721
585.536
614.797
636.75
652.052
661.525
666.042
666.376
663.252
657.333
649.186
639.296
628.07
615.842
602.874
589.37
575.481
561.32
546.97
532.494
517.938
503.334
488.708
474.08
459.465
444.873
430.313
415.791
401.313
386.882
372.502
358.174
343.901
329.683
315.521
301.416
287.369
273.378
259.445
245.569
231.752
217.993
204.294
190.658
177.088
167.838
162.891
158.162
153.651
150.156
154.106
158.974
163.587
167.955
172.087
175.994
179.684
183.164
186.445
189.532
192.434
195.157
197.705
200.083
202.297
204.356
206.274
208.071
209.771
211.385
212.924
214.4
215.823
217.204
218.553
81.8931
41.0185
43.7867
46.3619
47.8961
49.0089
49.798
50.2627
50.3645
50.0261
49.1186
47.4488
44.773
40.8099
35.2554
31.2167
31.8695
35.3395
39.835
45.4148
57.8069
75.2324
98.7462
130.928
168.157
210.646
257.902
308.671
361.092
412.995
462.197
506.823
545.495
577.461
602.559
621.145
633.856
641.423
644.57
643.949
640.188
633.854
625.442
615.385
604.051
591.745
578.711
565.137
551.169
536.918
522.464
507.871
493.186
478.443
463.671
448.888
434.11
419.35
404.615
389.914
375.251
360.632
346.058
331.531
317.053
302.624
288.246
273.917
259.639
245.41
231.232
217.105
203.03
189.012
179.579
174.702
170.026
165.555
161.274
161.807
166.653
171.228
175.542
179.604
183.424
187.008
190.365
193.504
196.432
199.161
201.7
204.058
206.243
208.261
210.117
211.819
213.388
214.859
216.251
217.572
218.831
220.038
221.206
222.346
83.4119
40.1814
42.7963
45.3983
46.9315
48.0718
48.9584
49.6232
50.0643
50.2566
50.1502
49.6613
48.6615
46.9715
44.3711
40.6045
35.3872
30.9221
30.8735
34.1304
38.3496
43.5831
53.1364
69.1457
88.5214
117.423
150.51
188.147
230.2
275.926
323.972
372.574
419.807
463.852
503.223
536.884
564.367
585.701
601.288
611.709
617.597
619.536
618.085
613.782
607.109
598.501
588.341
576.963
564.643
551.604
538.023
524.039
509.756
495.259
480.609
465.852
451.025
436.156
421.267
406.374
391.491
376.627
361.788
346.979
332.204
317.466
302.766
288.105
273.482
258.898
244.353
229.847
215.381
200.957
191.375
186.595
181.992
177.577
173.348
170.469
173.996
178.507
182.738
186.697
190.392
193.831
197.022
199.972
202.694
205.198
207.502
209.623
211.576
213.372
215.016
216.508
217.855
219.089
220.238
221.31
222.315
223.267
224.178
225.064
225.937
85.0104
39.4227
41.9111
44.47
45.8788
46.873
47.6349
48.223
48.6576
48.9388
49.0522
48.969
48.6389
47.9808
46.8768
45.1698
42.6621
39.1216
34.2832
30.6598
31.0628
34.0033
37.8444
42.6424
49.4319
64.1379
80.8596
105.917
135.454
168.773
205.996
246.748
290.125
334.78
379.125
421.487
460.38
494.66
523.6
546.951
564.874
577.775
586.167
590.567
591.445
589.282
584.521
577.578
568.833
558.629
547.262
534.981
521.989
508.451
494.497
480.233
465.74
451.078
436.295
421.427
406.509
391.562
376.599
361.63
346.668
331.718
316.787
301.875
286.985
272.117
257.271
242.448
227.647
212.871
203.184
198.534
194.029
189.683
185.513
181.489
180.939
185.356
189.469
193.287
196.817
200.066
203.041
205.755
208.224
210.466
212.503
214.361
216.061
217.619
219.04
220.318
221.441
222.42
223.288
224.062
224.758
225.396
225.995
226.574
227.149
227.735
228.345
86.7049
38.8065
41.2264
43.7143
44.9455
45.7141
46.2428
46.6131
46.8619
47.0024
47.035
46.9539
46.7439
46.3768
45.8058
44.9575
43.7282
41.9835
39.5517
36.2248
32.1544
30.7828
32.6039
35.1657
38.5618
42.8573
48.0809
60.4636
75.7068
96.5237
123.056
152.673
185.558
221.601
260.276
300.622
341.369
381.121
418.485
452.291
481.679
506.184
525.742
540.583
551.09
557.692
560.771
560.726
557.941
552.793
545.635
536.799
526.59
515.272
503.066
490.161
476.711
462.84
448.645
434.196
419.58
404.83
389.974
375.041
360.063
345.055
330.026
314.985
299.937
284.884
269.829
254.772
239.714
224.656
214.923
210.448
206.074
201.815
197.702
193.739
190.147
191.657
195.616
199.253
202.573
205.586
208.306
210.753
212.955
214.935
216.718
218.323
219.766
221.058
222.202
223.194
224.02
224.675
225.189
225.591
225.91
226.173
226.404
226.628
226.864
227.129
227.436
227.798
88.5059
38.4006
40.8474
43.2671
44.3136
44.842
45.1109
45.2176
45.2098
45.1124
44.9353
44.6805
44.3453
43.9215
43.394
42.7375
41.9101
40.8482
39.4627
37.6379
35.2305
33.2658
33.0206
33.9676
35.461
37.614
40.5282
44.2802
48.9146
58.2267
72.1178
89.1858
113.172
139.65
168.765
200.538
234.697
270.627
307.387
343.84
378.787
411.122
439.96
464.689
485.072
501.186
513.286
521.691
526.698
528.613
527.742
524.4
518.904
511.564
502.673
492.495
481.265
469.186
456.433
443.123
429.38
415.287
400.942
386.391
371.698
356.886
341.974
326.991
311.954
296.868
281.737
266.568
251.365
236.127
226.429
222.193
218.002
213.867
209.816
205.892
202.082
199.529
200.997
204.417
207.495
210.255
212.722
214.924
216.889
218.635
220.174
221.511
222.647
223.584
224.326
224.881
225.257
225.469
225.543
225.509
225.4
225.248
225.083
224.93
224.812
224.746
224.746
224.823
224.984
225.233
90.4181
38.2412
40.8297
43.193
44.0692
44.3784
44.4119
44.2795
44.0312
43.6942
43.2846
42.8088
42.2692
41.6652
40.993
40.245
39.4077
38.4593
37.8011
37.4945
37.2266
37.0333
36.9621
37.0737
37.4452
38.1713
39.3592
41.1204
43.5614
46.7689
50.8005
57.266
69.9027
83.993
105.396
129.238
155.179
183.23
213.274
244.941
277.586
310.349
342.245
372.291
399.661
423.699
444.064
460.714
473.788
483.502
490.039
493.598
494.414
492.745
488.863
483.042
475.547
466.625
456.5
445.392
433.491
420.922
407.817
394.264
380.352
366.14
351.703
337.104
322.362
307.485
292.49
277.396
262.213
246.945
237.403
233.499
229.578
225.644
221.713
217.825
214.021
210.295
207.978
208.544
211.396
213.938
216.192
218.176
219.897
221.357
222.559
223.504
224.201
224.66
224.895
224.924
224.774
224.473
224.053
223.546
222.986
222.406
221.838
221.31
220.842
220.454
220.158
219.964
219.878
219.902
220.037
220.282
220.634
221.09
92.4411
38.3484
41.2092
43.53
44.2635
44.3884
44.2245
43.8933
43.624
43.6154
43.7223
43.7919
43.8259
43.8251
43.7893
43.7183
43.612
43.4712
43.2976
43.0957
42.8742
42.6483
42.4408
42.2815
42.2093
42.2737
42.538
43.0832
44.0058
45.4116
47.4076
50.0887
53.526
57.7601
68.8087
81.5775
99.2528
120.832
144.113
169.044
195.515
223.299
251.979
280.943
309.452
336.67
361.846
384.376
403.913
420.365
433.767
444.177
451.689
456.437
458.591
458.35
455.929
451.553
445.45
437.845
428.94
418.933
407.986
396.272
383.936
371.059
357.73
344.041
330.03
315.739
301.206
286.479
271.58
256.519
247.317
243.887
240.366
236.758
233.072
229.331
225.573
221.833
218.13
215.167
214.773
216.346
218.35
220.034
221.4
222.458
223.215
223.679
223.866
223.795
223.492
222.984
222.304
221.487
220.57
219.587
218.574
217.569
216.606
215.714
214.913
214.222
213.652
213.211
212.901
212.725
212.68
212.763
212.97
213.294
94.5707
38.7262
41.9972
44.3213
44.9453
45.3633
45.9548
46.4392
46.8394
47.1799
47.4733
47.7267
47.9436
48.1258
48.2737
48.3869
48.4646
48.5058
48.5096
48.4756
48.4046
48.2996
48.1669
48.0185
47.8733
47.7559
47.6978
47.7392
47.9315
48.3416
49.0522
50.1588
51.7633
53.9637
56.8406
60.4486
68.5291
80.0595
94.2833
113.831
134.816
157.12
180.601
205.046
230.152
255.498
280.537
304.625
327.151
347.608
365.7
381.292
394.326
404.787
412.703
418.144
421.22
422.066
420.845
417.734
412.912
406.568
398.87
390
380.11
369.317
357.758
345.581
332.895
319.796
306.329
292.513
278.35
263.89
255.326
252.584
249.652
246.543
243.269
239.848
236.307
232.679
228.991
225.266
221.532
219.983
219.051
219.844
220.787
221.39
221.665
221.631
221.306
220.715
219.888
218.858
217.664
216.349
214.952
213.514
212.073
210.669
209.339
208.112
207.011
206.051
205.243
204.591
204.095
203.755
203.565
203.52
203.613
203.838
96.8
39.3618
43.1148
45.6916
47.0557
48.1018
48.8754
49.5017
50.0372
50.5102
50.9359
51.323
51.6765
51.9988
52.2914
52.5541
52.7863
52.9868
53.154
53.2859
53.3809
53.4378
53.4561
53.4374
53.3859
53.3105
53.2265
53.1545
53.1206
53.1569
53.3046
53.6176
54.1644
55.0274
56.2988
58.0732
60.4357
63.4526
68.7404
79.0607
90.4467
107.71
126.573
146.541
167.423
189.012
211.045
233.17
254.97
275.964
295.691
313.806
330.076
344.34
356.49
366.468
374.26
379.893
383.427
384.952
384.58
382.447
378.688
373.452
366.891
359.146
350.359
340.626
330.029
318.679
306.706
294.23
281.291
267.925
260.367
258.57
256.463
254.066
251.4
248.483
245.341
242
238.485
234.821
231.035
227.177
223.289
221.348
219.727
217.868
217.661
217.133
216.309
215.216
213.889
212.365
210.69
208.91
207.074
205.225
203.407
201.657
200.013
198.507
197.16
195.988
194.996
194.186
193.555
193.1
192.812
192.683
192.705
192.869
99.1232
40.2734
44.6904
47.7688
49.5914
50.7495
51.6146
52.324
52.9402
53.4946
54.0043
54.4795
54.926
55.3474
55.7455
56.1209
56.4734
56.8018
57.1044
57.3789
57.623
57.8337
58.0085
58.1452
58.2421
58.2993
58.3193
58.3085
58.2786
58.2472
58.236
58.2718
58.3878
58.627
59.045
59.7105
60.7033
62.1095
64.0115
66.4789
69.5603
78.318
88.4182
102.16
119.041
136.826
155.34
174.38
193.701
212.995
231.893
250.043
267.147
282.957
297.278
309.957
320.885
329.994
337.249
342.651
346.231
348.046
348.171
346.697
343.726
339.37
333.76
327.002
319.184
310.399
300.745
290.308
279.152
267.377
261.215
260.653
259.646
258.222
256.405
254.22
251.69
248.843
245.705
242.301
238.664
234.831
230.858
226.803
222.703
218.518
216.14
213.476
210.516
207.27
205.32
203.352
201.252
199.074
196.868
194.684
192.567
190.553
188.676
186.969
185.454
184.145
183.045
182.148
181.45
180.941
180.612
180.453
180.453
180.602
180.89
101.52
41.3923
46.7189
50.1183
52.0075
53.2007
54.0923
54.8275
55.4724
56.0602
56.6094
57.1308
57.6312
58.1146
58.5833
59.0382
59.4793
59.9055
60.3151
60.7056
61.074
61.4169
61.7304
62.0108
62.2544
62.4578
62.6186
62.7356
62.8101
62.8467
62.8544
62.8478
62.8466
62.8738
62.9572
63.1312
63.4407
63.9419
64.7015
65.794
67.2952
69.2727
71.7791
77.6751
86.5621
97.0353
112.038
127.819
144.193
160.941
177.806
194.513
210.794
226.404
241.122
254.757
267.152
278.178
287.74
295.774
302.241
307.132
310.46
312.257
312.572
311.471
309.036
305.353
300.495
294.535
287.552
279.623
270.816
261.2
256.846
257.797
258.166
257.985
257.283
256.087
254.421
252.314
249.791
246.885
243.626
240.056
236.221
232.18
228.004
223.749
219.382
214.8
209.924
204.727
200.813
196.802
192.549
188.077
184.343
181.93
179.623
177.46
175.471
173.678
172.102
170.758
169.642
168.746
168.057
167.565
167.258
167.123
167.15
167.329
167.648
103.987
42.7239
48.8317
52.3699
54.2321
55.3872
56.2439
56.9514
57.5768
58.1543
58.7027
59.2334
59.7534
60.267
60.7766
61.2833
61.7868
62.2861
62.7789
63.2623
63.7328
64.1861
64.6176
65.0223
65.3951
65.7311
66.0258
66.2752
66.4764
66.6279
66.7304
66.7875
66.8072
66.8021
66.79
66.7922
66.8329
66.941
67.1526
67.5133
68.0777
68.9081
70.0708
71.6298
73.6384
76.96
84.7349
93.202
105.545
119.472
133.841
148.436
163.035
177.419
191.382
204.733
217.303
228.942
239.524
248.949
257.137
264.033
269.606
273.84
276.74
278.327
278.64
277.727
275.636
272.42
268.132
262.83
256.567
249.394
247.067
249.666
251.578
252.834
253.459
253.476
252.91
251.782
250.12
247.953
245.316
242.249
238.797
235.016
230.971
226.746
222.4
217.894
213.114
207.986
202.485
196.602
190.328
183.659
177.554
172.594
167.523
162.617
160.666
158.931
157.423
156.16
155.134
154.33
153.735
153.332
153.11
153.058
153.165
153.421
153.817
106.503
44.2251
50.9431
54.4265
56.1762
57.2313
58.0023
58.6372
59.2029
59.7333
60.2474
60.7565
61.2678
61.7857
62.3126
62.8491
63.3948
63.948
64.5059
65.0649
65.6204
66.1671
66.6993
67.2107
67.6951
68.1462
68.5581
68.9253
69.2431
69.5079
69.7171
69.87
69.9677
70.0141
70.017
69.9881
69.9439
69.9046
69.8926
69.933
70.0553
70.2967
70.7015
71.3212
72.2118
73.4289
75.0216
77.0291
82.8444
90.2239
99.3462
111.525
124.02
136.64
149.201
161.521
173.434
184.788
195.448
205.296
214.235
222.185
229.084
234.889
239.573
243.125
245.549
246.861
247.084
246.246
244.381
241.523
237.709
232.97
232.641
236.827
240.279
243.017
245.056
246.409
247.098
247.124
246.517
245.298
243.498
241.154
238.311
235.019
231.341
227.354
223.146
218.772
214.167
209.212
203.847
198.054
191.826
185.164
178.082
170.595
162.738
154.799
149.646
144.481
141.81
140.724
139.881
139.27
138.867
138.648
138.596
138.697
138.942
139.322
139.828
140.455
109.051
45.8483
52.9737
56.2057
57.7741
58.6792
59.3222
59.847
60.3189
60.7712
61.2226
61.6846
62.1643
62.6657
63.191
63.7405
64.3132
64.9066
65.5168
66.1391
66.7677
67.3958
68.0162
68.6213
69.2034
69.7549
70.2685
70.7376
71.1564
71.5201
71.8251
72.0689
72.2506
72.3709
72.4325
72.4402
72.402
72.3297
72.2387
72.1481
72.0792
72.0547
72.0993
72.2435
72.5233
72.9803
73.6604
74.6112
75.8773
77.4957
80.7625
87.1482
93.9429
103.802
114.587
125.432
136.177
146.675
156.789
166.395
175.385
183.667
191.165
197.818
203.578
208.414
212.307
215.251
217.248
218.306
218.441
217.671
216.015
213.49
214.948
220.505
225.34
229.458
232.859
235.536
237.511
238.765
239.326
239.183
238.371
236.918
234.86
232.243
229.128
225.583
221.691
217.544
213.17
208.476
203.357
197.768
191.701
185.16
178.166
170.742
162.914
154.722
146.207
137.425
130.982
125.968
124.114
123.744
123.577
123.589
123.757
124.061
124.487
125.027
125.674
126.423
111.612
47.5182
55.0431
57.8951
59.0326
59.6962
60.175
60.5574
60.9062
61.2541
61.6195
62.0135
62.4428
62.9114
63.4209
63.971
64.5598
65.1838
65.8379
66.5156
67.2097
67.9116
68.6124
69.3026
69.9729
70.6143
71.218
71.7764
72.2829
72.7317
73.1188
73.441
73.6969
73.8862
74.0102
74.0715
74.0744
74.025
73.9318
73.8064
73.6638
73.5214
73.3995
73.3188
73.3011
73.3707
73.557
73.8937
74.4178
75.1678
76.18
77.4837
79.0976
83.858
89.662
96.2203
105.478
114.747
123.897
132.806
141.361
149.463
157.026
163.979
170.261
175.828
180.646
184.694
187.958
190.434
192.124
193.033
193.168
192.537
195.483
202.124
208.098
213.398
218.008
221.907
225.092
227.532
229.257
230.233
230.481
230.019
228.861
227.046
224.63
221.676
218.258
214.466
210.383
205.997
201.203
195.915
190.106
183.779
176.944
169.638
161.894
153.756
145.266
136.468
127.42
118.189
112.011
107.687
107.763
107.993
108.364
108.86
109.47
110.185
110.999
111.906
114.173
49.1679
57.1843
60.2303
61.5873
62.3945
62.9386
63.3169
63.5701
63.7149
63.7574
63.6987
63.5365
63.2668
63.1894
63.559
64.1573
64.8064
65.4995
66.2286
66.9842
67.7558
68.5326
69.303
70.0559
70.7806
71.4669
72.1062
72.6909
73.2147
73.6731
74.063
74.3826
74.6316
74.811
74.9229
74.9708
74.9591
74.8933
74.7808
74.6302
74.4528
74.2625
74.0757
73.9105
73.7861
73.7217
73.7371
73.8557
74.1038
74.5096
75.1013
75.9053
76.9418
78.2229
80.2816
85.2014
90.2884
96.6797
104.58
112.356
119.906
127.143
133.988
140.372
146.242
151.554
156.274
160.381
163.859
166.7
168.902
170.464
171.386
175.511
182.949
189.801
196.046
201.66
206.614
210.882
214.425
217.235
219.285
220.569
221.116
220.917
219.978
218.351
216.092
213.262
209.94
206.212
202.136
197.677
192.737
187.243
181.18
174.562
167.421
159.803
151.757
143.331
134.567
125.512
116.216
106.736
97.6447
92.9269
92.1104
92.7394
93.4761
94.3141
95.2481
96.2742
97.3899
116.721
50.7376
59.1435
62.4346
64.1091
65.2487
66.1207
66.8184
67.3813
67.8263
68.16
68.3835
68.4941
68.4873
68.3572
68.097
67.6995
67.1575
66.4638
65.893
66.1299
66.9705
67.822
68.6707
69.5036
70.3082
71.0732
71.7885
72.4458
73.0384
73.5616
74.0119
74.388
74.6895
74.9177
75.0748
75.1642
75.1899
75.1569
75.0709
74.9384
74.7669
74.5652
74.3436
74.1149
73.8938
73.6965
73.5398
73.4407
73.4152
73.4805
73.6556
73.96
74.4129
75.0305
75.8248
76.8005
77.9543
80.5185
84.7619
89.0501
94.98
101.608
108.04
114.206
120.047
125.512
130.562
135.166
139.301
142.953
146.112
148.773
150.932
155.955
163.938
171.427
178.394
184.804
190.618
195.798
200.308
204.109
207.167
209.436
210.942
211.686
211.653
210.86
209.362
207.203
204.447
201.163
197.416
193.235
188.586
183.401
177.641
171.303
164.408
156.995
149.115
140.82
132.156
123.167
113.896
104.393
94.7086
84.8847
78.9442
77.5359
78.6073
79.7613
80.9953
82.3082
83.6996
119.238
52.2153
60.9589
64.5214
66.5334
68.0272
69.2542
70.3021
71.2078
71.9872
72.6459
73.184
73.5989
73.8856
74.0379
74.0485
73.9097
73.6135
73.1521
72.5185
71.7062
70.7103
69.5271
68.395
68.3657
69.2499
70.0924
70.882
71.6098
72.2686
72.8534
73.361
73.79
74.1404
74.4137
74.6125
74.7403
74.8014
74.8006
74.7432
74.6351
74.4825
74.2921
74.0711
73.828
73.572
73.3141
73.0674
72.8456
72.6628
72.533
72.4686
72.4809
72.582
72.7838
73.0969
73.5291
74.0842
74.7599
75.547
76.4286
79.0897
82.5939
86.0466
91.7669
97.3309
102.687
107.794
112.616
117.126
121.305
125.139
128.618
131.735
137.417
145.74
153.666
161.159
168.178
174.677
180.609
185.925
190.578
194.53
197.723
200.139
201.773
202.627
202.682
201.975
200.542
198.428
195.687
192.368
188.509
184.124
179.199
173.711
167.657
161.048
153.906
146.268
138.184
129.703
120.868
111.717
102.29
92.6333
82.7925
72.803
65.9455
64.7493
66.2846
67.8806
69.537
71.2555
121.672
53.3904
62.4184
66.3089
68.7165
70.6201
72.2504
73.6895
74.9737
76.1192
77.1327
78.015
78.7632
79.3722
79.8352
80.1445
80.2913
80.2671
80.0632
79.6717
79.0858
78.2997
77.3097
76.1139
74.712
73.1062
71.3005
70.1048
70.2419
70.9675
71.6142
72.179
72.6606
73.0595
73.3774
73.6171
73.7826
73.8783
73.9092
73.8806
73.7982
73.6678
73.4954
73.287
73.0492
72.7886
72.5126
72.2294
71.9478
71.6783
71.4323
71.2205
71.053
70.9389
70.8848
70.8959
70.9771
71.1313
71.3584
71.6541
72.0094
72.409
72.831
73.2467
76.0643
78.8028
83.0061
87.9716
92.7985
97.4601
101.935
106.209
110.269
114.107
120.25
128.751
136.951
144.81
152.281
159.313
165.851
171.839
177.222
181.947
185.96
189.22
191.695
193.382
194.265
194.352
193.668
192.243
190.115
187.326
183.908
179.883
175.26
170.042
164.241
157.879
150.984
143.589
135.736
127.471
118.838
109.872
100.604
91.0673
81.304
71.3501
61.2332
54.2867
54.0819
56.0801
58.1185
60.2003
124.046
54.2758
63.5295
67.7984
70.6444
72.9879
75.0476
76.9043
78.5945
80.135
81.5324
82.7876
83.8976
84.8569
85.6583
86.2932
86.7523
87.0258
87.1043
86.979
86.642
86.0871
85.31
84.3084
83.0824
81.6343
79.9689
78.0927
76.014
73.7428
71.3875
70.5301
71.0671
71.5168
71.8812
72.1636
72.3682
72.4995
72.563
72.5639
72.508
72.4011
72.2487
72.0567
71.8306
71.5761
71.2988
71.0047
70.6994
70.3897
70.0824
69.7846
69.5048
69.2508
69.0282
68.8415
68.6934
68.5832
68.5086
68.4654
68.4455
68.437
68.4233
68.3825
68.2873
68.1045
69.4316
71.5472
75.5777
80.2341
84.8335
89.3632
93.8134
98.1762
104.62
113.175
121.523
129.62
137.414
144.851
151.871
158.411
164.409
169.804
174.536
178.552
181.809
184.281
185.949
186.807
186.865
186.137
184.645
182.431
179.518
175.929
171.684
166.802
161.305
155.224
148.592
141.446
133.823
125.768
117.323
108.528
99.4173
90.0214
80.3738
70.5082
60.4539
50.2301
44.0111
45.5759
48.0373
50.5173
126.331
54.7869
64.2176
68.9007
72.2186
75.0367
77.5593
79.8653
81.9918
83.9563
85.7657
87.4211
88.9198
90.2559
91.4218
92.4081
93.2048
93.801
94.1863
94.3506
94.2852
93.9829
93.4387
92.65
91.6167
90.3413
88.829
87.0872
85.1253
82.9544
80.587
78.0362
75.3158
72.44
70.5757
70.3205
70.5673
70.7371
70.8352
70.8674
70.8393
70.7569
70.6256
70.4512
70.2389
69.9938
69.7211
69.4253
69.111
68.7827
68.4447
68.1012
67.7571
67.4164
67.0832
66.7617
66.4537
66.1587
65.8743
65.5947
65.3101
65.0081
64.6736
64.2873
63.8255
63.2592
62.5546
61.6724
62.6865
65.2165
69.8349
74.4958
79.1959
83.9318
90.5564
99.0753
107.476
115.712
123.729
131.469
138.867
145.857
152.371
158.342
163.703
168.392
172.358
175.558
177.963
179.555
180.329
180.29
179.438
177.8
175.419
172.305
168.485
163.987
158.843
153.087
146.758
139.894
132.536
124.723
116.496
107.892
98.9455
89.6894
80.1555
70.3762
60.383
50.2021
39.8538
36.2784
39.2038
42.1307
128.537
54.8711
64.4368
69.5797
73.4043
76.7261
79.7383
82.5189
85.1061
87.5183
89.7634
91.8427
93.7537
95.4903
97.0444
98.4062
99.5644
100.507
101.223
101.7
101.929
101.902
101.611
101.054
100.231
99.1445
97.7992
96.2037
94.3684
92.3058
90.0297
87.5547
84.8963
82.0702
79.0918
75.9767
72.7396
69.9101
68.7915
68.8575
68.8592
68.8026
68.6933
68.5371
68.3392
68.1046
67.8379
67.5434
67.2251
66.8864
66.5304
66.1599
65.7773
65.3842
64.9822
64.5726
64.1552
63.7292
63.292
62.8374
62.3558
61.836
61.2631
60.6175
59.8758
59.011
57.9917
56.7813
55.3381
54.6007
56.6616
61.389
66.2529
71.2587
77.982
86.4076
94.7968
103.101
111.265
119.228
126.923
134.281
141.229
147.694
153.605
158.894
163.498
167.365
170.453
172.73
174.18
174.799
174.586
173.532
171.688
169.07
165.704
161.625
156.871
151.48
145.491
138.948
131.889
124.355
116.383
108.01
99.2676
90.1885
80.8025
71.1389
61.2262
51.0915
40.7613
31.4339
31.6389
35.0183
130.657
54.4738
64.1437
69.7888
74.1495
77.9996
81.5241
84.8012
87.8706
90.7519
93.4539
95.9785
98.3232
100.482
102.446
104.206
105.748
107.06
108.13
108.944
109.49
109.76
109.745
109.441
108.847
107.966
106.803
105.367
103.669
101.724
99.5461
97.1521
94.5593
91.785
88.8463
85.7603
82.5432
79.211
75.7786
72.2604
68.67
66.7274
66.5117
66.3742
66.1908
65.9664
65.7057
65.413
65.0917
64.745
64.3755
63.9851
63.5752
63.146
62.6977
62.2292
61.7384
61.2223
60.6761
60.0923
59.4623
58.7754
58.017
57.1682
56.2071
55.1078
53.839
52.3646
50.6445
48.6336
47.1208
49.7649
54.755
59.9732
66.751
75.0557
83.3957
91.7228
99.9815
108.11
116.041
123.702
131.017
137.91
144.305
150.126
155.306
159.781
163.498
166.415
168.5
169.734
170.12
169.651
168.35
166.246
163.357
159.727
155.397
150.407
144.799
138.616
131.897
124.681
117.005
108.903
100.406
91.5454
82.3487
72.8436
63.0563
53.0121
42.7361
32.253
25.5565
29.2615
132.694
53.5466
63.2912
69.4773
74.3998
78.7994
82.8559
86.6488
90.2195
93.5891
96.7673
99.7565
102.554
105.155
107.549
109.726
111.673
113.377
114.823
115.997
116.885
117.476
117.76
117.732
117.389
116.733
115.77
114.508
112.96
111.142
109.071
106.764
104.241
101.521
98.6238
95.5674
92.3699
89.0486
85.6199
82.0992
78.5012
74.8396
71.1274
67.3766
64.623
63.6309
63.3755
63.0836
62.7587
62.4039
62.0216
61.6135
61.1802
60.7216
60.2368
59.7235
59.1784
58.5966
57.9715
57.2942
56.5553
55.7428
54.8411
53.8321
52.6952
51.4053
49.9319
48.2406
46.2922
44.0415
41.4387
40.1363
44.4539
49.8625
56.6808
64.8618
73.1385
81.465
89.7871
98.0436
106.166
114.082
121.713
128.98
135.803
142.101
147.8
152.83
157.126
160.636
163.319
165.144
166.098
166.184
165.415
163.826
161.432
158.276
154.399
149.844
144.653
138.869
132.531
125.676
118.339
110.553
102.347
93.7504
84.7884
75.4867
65.8696
55.9607
45.7836
35.3615
24.7182
24.9011
134.654
52.0523
61.8418
68.6005
74.103
79.0673
83.6708
87.9952
92.084
95.9595
99.632
103.104
106.373
109.432
112.274
114.886
117.258
119.374
121.218
122.776
124.031
124.97
125.579
125.852
125.783
125.375
124.63
123.56
122.178
120.499
118.544
116.332
113.884
111.223
108.369
105.343
102.165
98.8538
95.4273
91.9022
88.2943
84.6182
80.8876
77.1154
73.3134
69.4926
65.6633
62.0836
60.269
59.9047
59.5086
59.0821
58.6259
58.1396
57.6218
57.0696
56.4788
55.8435
55.1559
54.4066
53.5846
52.6765
51.6659
50.534
49.2595
47.8166
46.1758
44.3041
42.163
39.7085
36.8916
33.6578
35.1241
40.7211
47.5847
55.6556
63.8722
72.1918
80.5629
88.9256
97.2121
105.349
113.257
120.856
128.06
134.788
140.957
146.491
151.317
155.374
158.611
160.992
162.498
163.125
162.883
161.801
159.907
157.238
153.835
149.742
144.999
139.649
133.73
127.276
120.322
112.896
105.028
96.742
88.0629
79.0134
69.6155
59.8906
49.8604
39.5464
28.9708
21.8857
26.5045
136.548
49.9677
59.7652
67.1165
73.2055
78.7402
83.8991
88.7663
93.3876
97.7861
101.972
105.945
109.703
113.238
116.543
119.607
122.419
124.965
127.231
129.197
130.846
132.16
133.123
133.725
133.958
133.822
133.32
132.462
131.262
129.738
127.91
125.802
123.438
120.84
118.032
115.039
111.881
108.58
105.154
101.623
98.003
94.31
90.5586
86.7622
82.9332
79.0832
75.2228
71.3616
67.5082
63.6703
59.8546
57.0766
55.945
55.4302
54.8796
54.29
53.6567
52.9733
52.2315
51.4212
50.5305
49.545
48.4475
47.2186
45.8357
44.2722
42.498
40.4798
38.179
35.5523
32.5516
29.1227
26.7935
32.378
39.2982
47.279
55.4479
63.7654
72.1827
80.6414
89.0753
97.4107
105.568
113.465
121.015
128.131
134.728
140.72
146.03
150.589
154.339
157.239
159.265
160.412
160.689
160.116
158.725
156.552
153.64
150.029
145.761
140.875
135.407
129.392
122.86
115.838
108.351
100.423
92.0757
83.3282
74.2
64.7103
54.878
44.7226
34.264
23.5603
25.1372
138.39
47.2904
57.0458
64.9913
71.6546
77.7502
83.4609
88.8746
94.0392
98.9777
103.698
108.196
112.465
116.494
120.276
123.805
127.073
130.068
132.775
135.176
137.247
138.967
140.316
141.278
141.843
142.008
141.774
141.152
140.155
138.803
137.118
135.126
132.854
130.326
127.571
124.613
121.477
118.185
114.76
111.222
107.588
103.876
100.101
96.2778
92.4192
88.5374
84.6431
80.7463
76.8559
72.9796
69.1243
65.2955
61.4977
57.7338
54.0054
51.6276
50.7337
50.004
49.2116
48.3457
47.394
46.3414
45.1702
43.8602
42.3878
40.7257
38.8434
36.7065
34.2755
31.5068
28.3519
24.7565
20.6609
24.7015
31.6895
39.5995
47.7352
56.0597
64.5263
73.0786
81.6512
90.1708
98.5579
106.728
114.593
122.064
129.048
135.459
141.211
146.23
150.454
153.839
156.357
158
158.776
158.705
157.815
156.145
153.733
150.621
146.847
142.449
137.462
131.917
125.842
119.262
112.199
104.674
96.7043
88.3075
79.4998
70.297
60.7152
50.7709
40.4817
29.8662
24.8891
140.193
44.0443
53.69
62.2068
69.4062
76.0299
82.2695
88.2185
93.9276
99.4202
104.7
109.755
114.565
119.112
123.389
127.397
131.136
134.598
137.769
140.63
143.153
145.311
147.08
148.437
149.368
149.866
149.93
149.57
148.8
147.641
146.118
144.257
142.088
139.64
136.944
134.026
130.915
127.635
124.211
120.665
117.016
113.282
109.482
105.629
101.739
97.8222
93.8914
89.9565
86.0265
82.1094
78.2118
74.3395
70.4967
66.6863
62.9099
59.167
55.4555
51.7711
48.1073
45.5041
44.1856
43.0716
41.8343
40.4527
38.9029
37.1568
35.1832
32.9467
30.4074
27.5207
24.2371
20.5013
16.2525
17.5812
24.6499
32.5073
40.6238
48.9652
57.4869
66.1336
74.8409
83.5356
92.1378
100.562
108.718
116.512
123.851
130.642
136.796
142.237
146.898
150.732
153.712
155.828
157.084
157.5
157.106
155.936
154.029
151.423
148.157
144.266
139.781
134.732
129.145
123.04
116.439
109.357
101.809
93.8104
85.3724
76.5078
67.2293
57.5502
47.4845
37.0482
27.5691
141.963
40.2679
49.7186
58.764
66.4371
73.5299
80.2486
86.6946
92.9257
98.9694
104.828
110.478
115.88
120.993
125.8
130.311
134.538
138.483
142.138