/*--------------------------------*- C++ -*----------------------------------*\
  =========                 |
  \\      /  F ield         | OpenFOAM: The Open Source CFD Toolbox
   \\    /   O peration     | Website:  https://openfoam.org
    \\  /    A nd           | Version:  10
     \\/     M anipulation  |
\*---------------------------------------------------------------------------*/
FoamFile
{
    format      ascii;
    class       volScalarField;
    location    "65000";
    object      omega;
}
// * * * * * * * * * * * * * * * * * * * * * * * * * * * * * * * * * * * * * //

dimensions      [0 0 -1 0 0 0 0];

internalField   nonuniform List<scalar> 
17922
(
24.588
24.2313
23.8897
23.563
23.251
22.9535
22.6704
22.4016
22.1468
21.9061
21.6795
21.4669
21.2684
21.084
20.9138
20.758
20.6167
20.4902
20.3788
20.2828
20.2025
20.1384
20.0911
20.0611
20.0491
20.0559
20.0824
20.1295
20.1976
20.2859
20.3928
20.5175
20.6594
20.8179
20.9925
21.1827
21.3881
21.6082
21.8428
22.0916
22.3543
22.6306
22.9205
23.2238
23.5402
23.8698
24.2124
24.5679
24.9363
25.3174
25.7112
26.1175
26.5361
26.9669
27.4097
27.8642
28.3301
28.8071
29.2948
29.7929
30.301
30.8184
31.3448
31.8794
32.4218
32.9712
33.5268
34.0879
34.6537
35.2232
35.7957
36.3702
36.9457
37.5215
38.0967
38.6704
39.2421
39.8111
40.377
40.9393
41.4981
42.0531
42.6047
43.1532
43.6992
44.2437
44.7877
45.3326
45.8803
46.4328
46.9925
47.5622
48.1453
24.5882
24.2315
23.8899
23.5633
23.2513
22.9538
22.6707
22.4018
22.147
21.9064
21.6797
21.4671
21.2686
21.0842
20.914
20.7582
20.6169
20.4904
20.379
20.2829
20.2026
20.1386
20.0912
20.0613
20.0493
20.0561
20.0825
20.1296
20.1978
20.286
20.3928
20.5176
20.6595
20.818
20.9925
21.1827
21.388
21.6081
21.8427
22.0914
22.354
22.6304
22.9202
23.2234
23.5398
23.8693
24.2119
24.5673
24.9357
25.3167
25.7104
26.1167
26.5352
26.9659
27.4085
27.8629
28.3286
28.8054
29.293
29.7909
30.2986
30.8158
31.3419
31.8762
32.4182
32.9671
33.5222
34.0828
34.648
35.2169
35.7887
36.3625
36.9373
37.5123
38.0866
38.6596
39.2305
39.7987
40.3638
40.9255
41.4836
42.0382
42.5895
43.1378
43.6839
44.2287
44.7733
45.3192
45.8682
46.4225
46.9846
47.5574
48.1441
24.5885
24.2318
23.8902
23.5635
23.2515
22.954
22.6709
22.402
22.1472
21.9066
21.6799
21.4673
21.2688
21.0843
20.9142
20.7583
20.6171
20.4906
20.3791
20.2831
20.2028
20.1387
20.0914
20.0614
20.0494
20.0562
20.0826
20.1297
20.1979
20.2861
20.3929
20.5176
20.6595
20.818
20.9925
21.1826
21.3879
21.608
21.8425
22.0912
22.3538
22.6301
22.9199
23.223
23.5394
23.8689
24.2114
24.5668
24.9351
25.3161
25.7097
26.1158
26.5343
26.9649
27.4074
27.8616
28.3271
28.8038
29.2911
29.7888
30.2963
30.8132
31.3389
31.8729
32.4144
32.9629
33.5176
34.0776
34.6422
35.2105
35.7816
36.3546
36.9286
37.5028
38.0763
38.6485
39.2185
39.786
40.3503
40.9114
41.4689
42.023
42.574
43.1222
43.6684
44.2136
44.7589
45.3058
45.8564
46.4127
46.9773
47.5532
48.1438
24.5887
24.232
23.8904
23.5637
23.2517
22.9542
22.6711
22.4022
22.1474
21.9068
21.6801
21.4675
21.269
21.0845
20.9143
20.7585
20.6172
20.4907
20.3793
20.2832
20.203
20.1389
20.0916
20.0616
20.0496
20.0563
20.0828
20.1298
20.198
20.2862
20.393
20.5177
20.6596
20.818
20.9925
21.1826
21.3878
21.6079
21.8424
22.091
22.3536
22.6298
22.9196
23.2227
23.539
23.8684
24.2108
24.5662
24.9344
25.3154
25.7089
26.115
26.5333
26.9638
27.4062
27.8602
28.3256
28.8021
29.2892
29.7866
30.2939
30.8104
31.3358
31.8694
32.4106
32.9586
33.5127
34.0722
34.6362
35.2038
35.7741
36.3464
36.9196
37.493
38.0657
38.637
39.2062
39.7729
40.3365
40.8969
41.4539
42.0076
42.5582
43.1064
43.6527
44.1983
44.7444
45.2926
45.8448
46.4032
46.9705
47.5497
48.1443
24.589
24.2322
23.8906
23.5639
23.2519
22.9544
22.6713
22.4024
22.1476
21.907
21.6803
21.4677
21.2691
21.0847
20.9145
20.7587
20.6174
20.4909
20.3795
20.2834
20.2031
20.139
20.0917
20.0617
20.0497
20.0565
20.0829
20.1299
20.1981
20.2863
20.3931
20.5178
20.6596
20.818
20.9925
21.1826
21.3878
21.6078
21.8422
22.0908
22.3533
22.6295
22.9192
23.2223
23.5385
23.8679
24.2103
24.5656
24.9338
25.3147
25.7081
26.1141
26.5323
26.9627
27.4049
27.8588
28.324
28.8003
29.2872
29.7844
30.2913
30.8076
31.3326
31.8658
32.4065
32.9541
33.5077
34.0666
34.6299
35.1968
35.7665
36.3379
36.9103
37.4829
38.0547
38.6251
39.1936
39.7594
40.3223
40.882
41.4385
41.9917
42.5422
43.0903
43.6369
44.183
44.73
45.2794
45.8334
46.3941
46.9643
47.547
48.1459
24.5892
24.2325
23.8909
23.5642
23.2522
22.9546
22.6715
22.4026
22.1478
21.9072
21.6805
21.4679
21.2693
21.0849
20.9147
20.7589
20.6176
20.4911
20.3796
20.2836
20.2033
20.1392
20.0919
20.0619
20.0499
20.0566
20.083
20.1301
20.1982
20.2864
20.3932
20.5179
20.6597
20.8181
20.9925
21.1825
21.3877
21.6077
21.8421
22.0906
22.3531
22.6292
22.9189
23.2219
23.5381
23.8674
24.2098
24.565
24.9331
25.3139
25.7073
26.1131
26.5313
26.9615
27.4036
27.8573
28.3224
28.7984
29.2851
29.782
30.2887
30.8046
31.3293
31.8621
32.4024
32.9494
33.5025
34.0607
34.6234
35.1896
35.7585
36.3292
36.9007
37.4724
38.0434
38.613
39.1805
39.7456
40.3077
40.8668
41.4227
41.9756
42.5258
43.074
43.6209
44.1676
44.7156
45.2664
45.8222
46.3854
46.9586
47.5451
48.1485
24.5895
24.2327
23.8911
23.5644
23.2524
22.9549
22.6717
22.4028
22.1481
21.9074
21.6807
21.4681
21.2695
21.0851
20.9149
20.7591
20.6178
20.4913
20.3798
20.2837
20.2034
20.1394
20.092
20.062
20.05
20.0568
20.0832
20.1302
20.1983
20.2865
20.3933
20.5179
20.6597
20.8181
20.9925
21.1825
21.3876
21.6075
21.8419
22.0904
22.3528
22.6289
22.9185
23.2215
23.5377
23.8669
24.2092
24.5644
24.9324
25.3132
25.7065
26.1122
26.5302
26.9603
27.4023
27.8558
28.3207
28.7965
29.283
29.7796
30.286
30.8016
31.3259
31.8582
32.398
32.9446
33.497
34.0547
34.6167
35.1822
35.7503
36.3201
36.8908
37.4616
38.0317
38.6004
39.1671
39.7314
40.2928
40.8512
41.4066
41.9592
42.5092
43.0575
43.6047
44.1522
44.7012
45.2536
45.8115
46.3772
46.9537
47.5441
48.1521
24.5897
24.233
23.8914
23.5646
23.2526
22.9551
22.6719
22.403
22.1483
21.9076
21.6809
21.4683
21.2697
21.0853
20.9151
20.7592
20.618
20.4914
20.38
20.2839
20.2036
20.1395
20.0922
20.0622
20.0502
20.0569
20.0833
20.1303
20.1985
20.2866
20.3934
20.518
20.6598
20.8181
20.9925
21.1824
21.3875
21.6074
21.8417
22.0902
22.3526
22.6286
22.9182
23.2211
23.5372
23.8664
24.2087
24.5638
24.9317
25.3124
25.7056
26.1112
26.5291
26.9591
27.4009
27.8542
28.3189
28.7945
29.2807
29.7771
30.2831
30.7984
31.3223
31.8542
32.3935
32.9395
33.4914
34.0484
34.6097
35.1744
35.7417
36.3107
36.8806
37.4505
38.0197
38.5875
39.1533
39.7168
40.2775
40.8353
41.3902
41.9424
42.4924
43.0408
43.5885
44.1367
44.6869
45.241
45.801
46.3695
46.9494
47.544
48.1569
24.59
24.2332
23.8916
23.5649
23.2528
22.9553
22.6722
22.4033
22.1485
21.9078
21.6811
21.4685
21.2699
21.0855
20.9153
20.7594
20.6181
20.4916
20.3802
20.2841
20.2038
20.1397
20.0924
20.0623
20.0503
20.0571
20.0835
20.1305
20.1986
20.2868
20.3935
20.5181
20.6598
20.8181
20.9925
21.1824
21.3875
21.6073
21.8416
22.09
22.3523
22.6283
22.9178
23.2207
23.5367
23.8659
24.2081
24.5631
24.931
25.3116
25.7047
26.1102
26.528
26.9578
27.3994
27.8526
28.3171
28.7925
29.2784
29.7745
30.2802
30.7951
31.3186
31.8501
32.3889
32.9343
33.4856
34.0419
34.6025
35.1664
35.7329
36.301
36.87
37.439
38.0073
38.5742
39.1392
39.7018
40.2618
40.819
41.3734
41.9254
42.4753
43.0239
43.5721
44.1212
44.6728
45.2286
45.791
46.3625
46.946
47.5448
48.1629
24.5903
24.2335
23.8919
23.5651
23.2531
22.9556
22.6724
22.4035
22.1487
21.908
21.6813
21.4687
21.2701
21.0857
20.9155
20.7596
20.6183
20.4918
20.3803
20.2843
20.204
20.1399
20.0925
20.0625
20.0505
20.0572
20.0836
20.1306
20.1987
20.2869
20.3936
20.5182
20.6599
20.8182
20.9925
21.1824
21.3874
21.6072
21.8414
22.0898
22.352
22.628
22.9174
23.2202
23.5362
23.8654
24.2075
24.5625
24.9303
25.3107
25.7037
26.1091
26.5268
26.9565
27.3979
27.8509
28.3152
28.7903
29.276
29.7718
30.2772
30.7917
31.3148
31.8458
32.384
32.9289
33.4795
34.0352
34.595
35.1581
35.7238
36.291
36.8591
37.4271
37.9945
38.5605
39.1246
39.6865
40.2457
40.8023
41.3564
41.9081
42.458
43.0069
43.5557
44.1058
44.6588
45.2166
45.7814
46.356
46.9433
47.5467
48.1701
24.5905
24.2338
23.8921
23.5654
23.2533
22.9558
22.6726
22.4037
22.1489
21.9082
21.6815
21.4689
21.2703
21.0859
20.9157
20.7598
20.6185
20.492
20.3805
20.2845
20.2041
20.1401
20.0927
20.0627
20.0507
20.0574
20.0838
20.1308
20.1989
20.287
20.3937
20.5182
20.6599
20.8182
20.9925
21.1823
21.3873
21.607
21.8412
22.0895
22.3517
22.6276
22.917
23.2198
23.5357
23.8648
24.2068
24.5618
24.9295
25.3099
25.7028
26.1081
26.5256
26.9551
27.3964
27.8492
28.3132
28.7881
29.2735
29.769
30.274
30.7881
31.3108
31.8413
32.379
32.9233
33.4732
34.0282
34.5872
35.1496
35.7143
36.2807
36.8478
37.4149
37.9813
38.5464
39.1097
39.6707
40.2293
40.7854
41.339
41.8905
42.4405
42.9897
43.5393
44.0905
44.645
45.2049
45.7724
46.3502
46.9415
47.5497
48.1786
24.5908
24.234
23.8924
23.5656
23.2536
22.956
22.6729
22.4039
22.1491
21.9084
21.6817
21.4691
21.2705
21.0861
20.9159
20.76
20.6187
20.4922
20.3807
20.2846
20.2043
20.1402
20.0929
20.0628
20.0508
20.0576
20.0839
20.1309
20.199
20.2871
20.3938
20.5183
20.66
20.8182
20.9925
21.1823
21.3872
21.6069
21.841
22.0893
22.3514
22.6273
22.9166
23.2193
23.5352
23.8642
24.2062
24.5611
24.9287
25.309
25.7018
26.1069
26.5243
26.9537
27.3948
27.8474
28.3112
28.7858
29.2709
29.7661
30.2707
30.7845
31.3066
31.8366
32.3738
32.9174
33.4667
34.0209
34.5792
35.1407
35.7045
36.27
36.8361
37.4023
37.9678
38.532
39.0944
39.6546
40.2125
40.768
41.3213
41.8727
42.4228
42.9725
43.5228
44.0752
44.6315
45.1935
45.7639
46.3452
46.9406
47.5538
48.1885
24.5911
24.2343
23.8926
23.5659
23.2538
22.9563
22.6731
22.4042
22.1494
21.9086
21.682
21.4693
21.2707
21.0863
20.916
20.7602
20.6189
20.4924
20.3809
20.2848
20.2045
20.1404
20.0931
20.063
20.051
20.0577
20.0841
20.131
20.1991
20.2872
20.3939
20.5184
20.66
20.8182
20.9924
21.1822
21.3871
21.6067
21.8408
22.089
22.3511
22.6269
22.9162
23.2189
23.5347
23.8636
24.2055
24.5603
24.9278
25.308
25.7007
26.1058
26.523
26.9522
27.3931
27.8455
28.3091
28.7835
29.2683
29.763
30.2673
30.7806
31.3023
31.8318
32.3684
32.9114
33.46
34.0134
34.5708
35.1315
35.6944
36.2589
36.8241
37.3893
37.9538
38.5171
39.0786
39.6381
40.1954
40.7504
41.3033
41.8546
42.4049
42.9551
43.5064
44.0601
44.6182
45.1826
45.7559
46.3409
46.9408
47.559
48.1998
24.5913
24.2346
23.8929
23.5661
23.2541
22.9565
22.6733
22.4044
22.1496
21.9089
21.6822
21.4695
21.2709
21.0865
20.9163
20.7604
20.6191
20.4926
20.3811
20.285
20.2047
20.1406
20.0932
20.0632
20.0512
20.0579
20.0842
20.1312
20.1993
20.2873
20.394
20.5185
20.6601
20.8182
20.9924
21.1821
21.387
21.6066
21.8406
22.0888
22.3508
22.6266
22.9158
23.2184
23.5341
23.863
24.2048
24.5595
24.927
25.3071
25.6996
26.1046
26.5216
26.9507
27.3914
27.8436
28.3069
28.781
29.2655
29.7599
30.2638
30.7767
31.2979
31.8268
32.3628
32.9051
33.453
34.0056
34.5622
35.122
35.684
36.2475
36.8117
37.376
37.9395
38.5019
39.0625
39.6213
40.1779
40.7324
41.2851
41.8364
42.3869
42.9377
43.49
44.0452
44.6052
45.1722
45.7486
46.3374
46.9419
47.5655
48.2125
24.5916
24.2348
23.8932
23.5664
23.2543
22.9568
22.6736
22.4046
22.1498
21.9091
21.6824
21.4697
21.2711
21.0867
20.9165
20.7606
20.6193
20.4928
20.3813
20.2852
20.2049
20.1408
20.0934
20.0634
20.0513
20.058
20.0844
20.1313
20.1994
20.2875
20.3941
20.5186
20.6601
20.8183
20.9924
21.1821
21.3869
21.6064
21.8404
22.0885
22.3505
22.6262
22.9154
23.2179
23.5336
23.8624
24.2041
24.5588
24.9261
25.3061
25.6985
26.1033
26.5202
26.9491
27.3896
27.8416
28.3046
28.7784
29.2626
29.7567
30.2602
30.7725
31.2932
31.8216
32.3569
32.8986
33.4457
33.9975
34.5533
35.1121
35.6732
36.2357
36.799
37.3622
37.9248
38.4862
39.046
39.604
40.16
40.7141
41.2666
41.8179
42.3688
42.9203
43.4736
44.0304
44.5925
45.1622
45.742
46.3348
46.944
47.5733
48.2266
24.5919
24.2351
23.8934
23.5666
23.2546
22.957
22.6738
22.4049
22.15
21.9093
21.6826
21.47
21.2714
21.0869
20.9167
20.7608
20.6195
20.493
20.3815
20.2854
20.2051
20.141
20.0936
20.0635
20.0515
20.0582
20.0846
20.1315
20.1995
20.2876
20.3942
20.5186
20.6602
20.8183
20.9924
21.182
21.3868
21.6063
21.8402
22.0882
22.3502
22.6258
22.9149
23.2174
23.533
23.8617
24.2034
24.5579
24.9252
25.3051
25.6974
26.102
26.5188
26.9474
27.3878
27.8395
28.3023
28.7758
29.2596
29.7533
30.2564
30.7683
31.2884
31.8162
32.3509
32.8918
33.4382
33.9892
34.544
35.1019
35.6621
36.2236
36.7858
37.3481
37.9097
38.4702
39.0292
39.5864
40.1418
40.6955
41.2478
41.7992
42.3506
42.9028
43.4574
44.0159
44.5803
45.1528
45.7361
46.3331
46.9473
47.5823
48.2423
26.1757
25.7558
25.3521
24.9644
24.5922
24.2354
23.8937
23.5669
23.2548
22.9573
22.6741
22.4051
22.1503
21.9095
21.6828
21.4702
21.2716
21.0871
20.9169
20.761
20.6197
20.4932
20.3817
20.2856
20.2053
20.1412
20.0938
20.0637
20.0517
20.0584
20.0847
20.1316
20.1997
20.2877
20.3943
20.5187
20.6602
20.8183
20.9924
21.1819
21.3866
21.6061
21.84
22.088
22.3498
22.6254
22.9145
23.2168
23.5324
23.8611
24.2027
24.5571
24.9243
25.304
25.6962
26.1007
26.5173
26.9458
27.3859
27.8373
28.2999
28.773
29.2565
29.7498
30.2524
30.7638
31.2834
31.8106
32.3446
32.8848
33.4304
33.9805
34.5345
35.0914
35.6506
36.2111
36.7723
37.3335
37.8941
38.4537
39.0119
39.5684
40.1233
40.6766
41.2288
41.7804
42.3322
42.8854
43.4413
44.0017
44.5684
45.1439
45.7309
46.3324
46.9517
47.5927
48.2594
26.1761
25.7561
25.3524
24.9647
24.5925
24.2357
23.894
23.5672
23.2551
22.9575
22.6743
22.4053
22.1505
21.9098
21.6831
21.4704
21.2718
21.0873
20.9171
20.7612
20.6199
20.4934
20.3819
20.2858
20.2055
20.1413
20.094
20.0639
20.0519
20.0586
20.0849
20.1318
20.1998
20.2878
20.3944
20.5188
20.6603
20.8183
20.9923
21.1819
21.3865
21.6059
21.8397
22.0877
22.3495
22.625
22.914
23.2163
23.5318
23.8604
24.2019
24.5562
24.9233
25.3029
25.695
26.0993
26.5157
26.944
27.3839
27.8351
28.2973
28.7702
29.2533
29.7462
30.2483
30.7592
31.2783
31.8048
32.3381
32.8775
33.4223
33.9716
34.5246
35.0806
35.6387
36.1982
36.7584
37.3186
37.8782
38.4369
38.9942
39.5501
40.1044
40.6575
41.2096
41.7614
42.3138
42.868
43.4254
43.9877
44.557
45.1357
45.7265
46.3325
46.9572
47.6043
48.2782
26.1764
25.7564
25.3527
24.9649
24.5928
24.2359
23.8942
23.5675
23.2554
22.9578
22.6746
22.4056
22.1508
21.91
21.6833
21.4706
21.272
21.0875
20.9173
20.7614
20.6201
20.4936
20.3821
20.286
20.2057
20.1415
20.0942
20.0641
20.052
20.0587
20.0851
20.132
20.2
20.288
20.3945
20.5189
20.6603
20.8183
20.9923
21.1818
21.3864
21.6057
21.8395
22.0874
22.3491
22.6246
22.9135
23.2157
23.5312
23.8597
24.2011
24.5553
24.9223
25.3018
25.6937
26.0979
26.5141
26.9422
27.3819
27.8328
28.2947
28.7673
29.25
29.7424
30.2441
30.7545
31.2729
31.7988
32.3314
32.87
33.4139
33.9623
34.5144
35.0694
35.6265
36.1849
36.744
37.3032
37.8619
38.4196
38.9762
39.5314
40.0852
40.638
41.1901
41.7423
42.2954
42.8507
43.4097
43.9741
44.5461
45.1281
45.7229
46.3337
46.9639
47.6174
48.2984
27.5379
27.0669
26.6133
26.1767
25.7567
25.353
24.9652
24.5931
24.2362
23.8945
23.5677
23.2556
22.958
22.6748
22.4058
22.151
21.9102
21.6835
21.4709
21.2722
21.0878
20.9175
20.7616
20.6203
20.4938
20.3823
20.2862
20.2059
20.1417
20.0944
20.0643
20.0522
20.0589
20.0852
20.1321
20.2001
20.2881
20.3946
20.5189
20.6604
20.8183
20.9923
21.1817
21.3863
21.6055
21.8392
22.0871
22.3488
22.6241
22.913
23.2152
23.5305
23.8589
24.2003
24.5544
24.9212
25.3006
25.6924
26.0964
26.5125
26.9403
27.3797
27.8304
28.292
28.7642
29.2465
29.7385
30.2397
30.7495
31.2673
31.7925
32.3244
32.8623
33.4053
33.9528
34.5039
35.0578
35.6139
36.1712
36.7293
37.2874
37.8451
38.402
38.9578
39.5123
40.0658
40.6183
41.1705
41.7231
42.277
42.8335
43.3942
43.9608
44.5357
45.1212
45.7202
46.3359
46.9718
47.6318
48.3202
27.5383
27.0673
26.6137
26.177
25.7571
25.3533
24.9655
24.5933
24.2365
23.8948
23.568
23.2559
22.9583
22.6751
22.4061
22.1512
21.9105
21.6838
21.4711
21.2725
21.088
20.9177
20.7619
20.6205
20.494
20.3825
20.2864
20.2061
20.1419
20.0946
20.0645
20.0524
20.0591
20.0854
20.1323
20.2002
20.2882
20.3947
20.519
20.6604
20.8183
20.9922
21.1816
21.3861
21.6054
21.839
22.0867
22.3484
22.6237
22.9125
23.2146
23.5298
23.8582
24.1994
24.5535
24.9202
25.2994
25.6911
26.0949
26.5108
26.9384
27.3776
27.828
28.2892
28.761
29.243
29.7345
30.2352
30.7444
31.2616
31.7861
32.3172
32.8542
33.3964
33.9429
34.493
35.0459
35.6009
36.1572
36.7142
37.2713
37.828
38.384
38.939
39.4929
40.046
40.5984
41.1507
41.7038
42.2586
42.8164
43.3789
43.9479
44.5258
45.1149
45.7183
46.3391
46.9809
47.6476
48.3435
27.5387
27.0676
26.614
26.1774
25.7574
25.3536
24.9658
24.5936
24.2368
23.8951
23.5683
23.2562
22.9586
22.6753
22.4063
22.1515
21.9107
21.684
21.4713
21.2727
21.0882
20.918
20.7621
20.6207
20.4942
20.3827
20.2866
20.2063
20.1421
20.0947
20.0647
20.0526
20.0593
20.0856
20.1324
20.2004
20.2883
20.3948
20.5191
20.6604
20.8183
20.9922
21.1815
21.386
21.6051
21.8387
22.0864
22.348
22.6232
22.9119
23.214
23.5292
23.8574
24.1986
24.5525
24.9191
25.2982
25.6897
26.0933
26.509
26.9364
27.3753
27.8254
28.2864
28.7578
29.2393
29.7303
30.2305
30.7391
31.2556
31.7794
32.3097
32.8459
33.3871
33.9327
34.4817
35.0336
35.5875
36.1427
36.6986
37.2547
37.8105
38.3656
38.9198
39.4732
40.0259
40.5782
41.1308
41.6844
42.2402
42.7995
43.3639
43.9355
44.5165
45.1094
45.7173
46.3434
46.9912
47.6648
48.3683
27.5391
27.068
26.6143
26.1777
25.7577
25.3539
24.9661
24.5939
24.2371
23.8954
23.5686
23.2564
22.9588
22.6756
22.4066
22.1517
21.911
21.6842
21.4715
21.2729
21.0884
20.9182
20.7623
20.621
20.4944
20.3829
20.2868
20.2065
20.1423
20.095
20.0649
20.0528
20.0595
20.0857
20.1326
20.2005
20.2885
20.3949
20.5192
20.6605
20.8183
20.9921
21.1814
21.3858
21.6049
21.8385
22.0861
22.3476
22.6228
22.9114
23.2133
23.5285
23.8566
24.1977
24.5515
24.918
25.2969
25.6883
26.0917
26.5072
26.9344
27.373
27.8228
28.2834
28.7544
29.2354
29.726
30.2256
30.7336
31.2495
31.7725
32.302
32.8373
33.3776
33.9221
34.4702
35.0209
35.5737
36.1279
36.6827
37.2377
37.7925
38.3468
38.9003
39.4532
40.0056
40.5579
41.1107
41.665
42.2218
42.7827
43.3492
43.9235
44.5077
45.1047
45.7172
46.3487
47.0027
47.6833
48.3946
27.5394
27.0683
26.6146
26.178
25.758
25.3542
24.9664
24.5942
24.2374
23.8957
23.5688
23.2567
22.9591
22.6758
22.4068
22.152
21.9112
21.6845
21.4718
21.2732
21.0887
20.9184
20.7625
20.6212
20.4946
20.3831
20.287
20.2067
20.1426
20.0952
20.0651
20.053
20.0596
20.0859
20.1328
20.2007
20.2886
20.395
20.5192
20.6605
20.8183
20.9921
21.1813
21.3857
21.6047
21.8382
22.0857
22.3472
22.6223
22.9108
23.2127
23.5277
23.8558
24.1967
24.5505
24.9168
25.2956
25.6868
26.0901
26.5053
26.9322
27.3706
27.8201
28.2803
28.7509
29.2315
29.7215
30.2206
30.7279
31.2431
31.7653
32.294
32.8284
33.3677
33.9113
34.4582
35.0079
35.5596
36.1126
36.6664
37.2204
37.7742
38.3276
38.8805
39.4329
39.985
40.5373
41.0905
41.6455
42.2036
42.7661
43.3348
43.9119
44.4996
45.1006
45.718
46.3551
47.0154
47.7031
48.4223
27.5398
27.0687
26.615
26.1783
25.7583
25.3545
24.9667
24.5945
24.2377
23.8959
23.5691
23.257
22.9594
22.6761
22.4071
22.1522
21.9115
21.6847
21.472
21.2734
21.0889
20.9186
20.7627
20.6214
20.4949
20.3834
20.2872
20.2069
20.1428
20.0954
20.0653
20.0532
20.0598
20.0861
20.1329
20.2008
20.2887
20.3951
20.5193
20.6606
20.8183
20.992
21.1812
21.3855
21.6045
21.8379
22.0854
22.3468
22.6218
22.9103
23.2121
23.527
23.855
24.1958
24.5494
24.9156
25.2943
25.6853
26.0884
26.5034
26.9301
27.3681
27.8172
28.2771
28.7473
29.2274
29.7169
30.2153
30.7221
31.2365
31.758
32.2858
32.8192
33.3576
33.9001
34.4459
34.9945
35.5451
36.097
36.6496
37.2026
37.7555
38.3081
38.8603
39.4122
39.9641
40.5166
41.0702
41.6261
42.1854
42.7497
43.3208
43.9008
44.4921
45.0973
45.7197
46.3624
47.0293
47.7242
48.4515
27.5402
27.069
26.6153
26.1786
25.7586
25.3548
24.967
24.5948
24.238
23.8962
23.5694
23.2573
22.9596
22.6764
22.4074
22.1525
21.9117
21.685
21.4723
21.2736
21.0891
20.9189
20.763
20.6216
20.4951
20.3836
20.2875
20.2071
20.143
20.0956
20.0655
20.0534
20.06
20.0863
20.1331
20.201
20.2888
20.3952
20.5194
20.6606
20.8183
20.992
21.1811
21.3853
21.6043
21.8376
22.085
22.3463
22.6213
22.9097
23.2114
23.5263
23.8541
24.1949
24.5483
24.9144
25.2929
25.6837
26.0866
26.5014
26.9278
27.3656
27.8144
28.2738
28.7436
29.2232
29.7122
30.21
30.716
31.2297
31.7503
32.2773
32.8098
33.3471
33.8885
34.4333
34.9807
35.5301
36.0809
36.6325
37.1844
37.7364
38.2882
38.8398
39.3913
39.9431
40.4957
41.0499
41.6067
42.1674
42.7336
43.3071
43.8902
44.4852
45.0949
45.7223
46.3709
47.0443
47.7465
48.4819
27.5405
27.0693
26.6156
26.1789
25.7589
25.3551
24.9673
24.5951
24.2382
23.8965
23.5697
23.2575
22.9599
22.6766
22.4076
22.1527
21.912
21.6852
21.4725
21.2739
21.0894
20.9191
20.7632
20.6219
20.4953
20.3838
20.2877
20.2073
20.1432
20.0958
20.0657
20.0536
20.0602
20.0865
20.1333
20.2011
20.289
20.3953
20.5194
20.6606
20.8183
20.9919
21.181
21.3852
21.604
21.8373
22.0847
22.3459
22.6208
22.9091
23.2107
23.5255
23.8533
24.1939
24.5472
24.9132
25.2915
25.6822
26.0848
26.4994
26.9255
27.363
27.8114
28.2705
28.7398
29.2189
29.7073
30.2044
30.7098
31.2227
31.7425
32.2685
32.8
33.3363
33.8766
34.4203
34.9666
35.5148
36.0644
36.6149
37.1659
37.7169
38.2679
38.819
39.3701
39.9218
40.4747
41.0295
41.5873
42.1495
42.7177
43.2939
43.8801
44.4789
45.0931
45.7258
46.3804
47.0605
47.7701
48.5137
27.5409
27.0697
26.6159
26.1793
25.7592
25.3554
24.9676
24.5954
24.2385
23.8968
23.57
23.2578
22.9602
22.6769
22.4079
22.153
21.9122
21.6855
21.4727
21.2741
21.0896
20.9193
20.7634
20.6221
20.4955
20.384
20.2879
20.2076
20.1434
20.096
20.0659
20.0538
20.0604
20.0866
20.1334
20.2013
20.2891
20.3954
20.5195
20.6607
20.8183
20.9918
21.1809
21.385
21.6038
21.837
22.0843
22.3455
22.6203
22.9085
23.21
23.5247
23.8524
24.1929
24.5461
24.9119
25.2901
25.6805
26.083
26.4973
26.9231
27.3603
27.8083
28.267
28.7358
29.2144
29.7022
30.1987
30.7033
31.2154
31.7344
32.2594
32.79
33.3252
33.8644
34.4069
34.952
35.4991
36.0476
36.597
37.1469
37.6971
38.2474
38.7978
39.3487
39.9004
40.4535
41.009
41.568
42.1318
42.7022
43.281
43.8706
44.4734
45.0922
45.7302
46.3908
47.0777
47.7949
48.5466
27.5412
27.07
26.6163
26.1796
25.7595
25.3557
24.9679
24.5957
24.2388
23.8971
23.5702
23.2581
22.9604
22.6772
22.4081
22.1533
21.9125
21.6857
21.473
21.2744
21.0898
20.9196
20.7637
20.6223
20.4958
20.3843
20.2881
20.2078
20.1436
20.0962
20.0661
20.054
20.0606
20.0868
20.1336
20.2014
20.2892
20.3955
20.5196
20.6607
20.8183
20.9918
21.1808
21.3848
21.6036
21.8367
22.0839
22.345
22.6197
22.9079
23.2094
23.5239
23.8515
24.1919
24.545
24.9106
25.2886
25.6789
26.0811
26.4952
26.9207
27.3575
27.8052
28.2634
28.7318
29.2098
29.697
30.1928
30.6967
31.208
31.726
32.2501
32.7796
33.3137
33.8518
34.3932
34.9371
35.483
36.0304
36.5787
37.1276
37.6769
38.2265
38.7764
39.327
39.8787
40.4323
40.9886
41.5487
42.1143
42.6869
43.2686
43.8616
44.4685
45.0921
45.7356
46.4023
47.096
47.8207
48.5807
27.5415
27.0703
26.6166
26.1799
25.7598
25.356
24.9682
24.596
24.2391
23.8974
23.5705
23.2583
22.9607
22.6774
22.4084
22.1535
21.9127
21.686
21.4732
21.2746
21.0901
20.9198
20.7639
20.6226
20.496
20.3845
20.2884
20.208
20.1439
20.0964
20.0663
20.0542
20.0608
20.087
20.1338
20.2016
20.2894
20.3956
20.5196
20.6607
20.8182
20.9917
21.1807
21.3847
21.6033
21.8364
22.0836
22.3446
22.6192
22.9073
23.2087
23.5231
23.8506
24.1909
24.5438
24.9093
25.2872
25.6772
26.0792
26.493
26.9182
27.3547
27.802
28.2598
28.7276
29.2051
29.6916
30.1867
30.6898
31.2003
31.7174
32.2405
32.769
33.302
33.8389
34.3791
34.9218
35.4666
36.0128
36.56
37.1079
37.6563
38.2052
38.7547
39.3051
39.857
40.411
40.9681
41.5296
42.097
42.672
43.2566
43.8532
44.4642
45.0927
45.7417
46.4147
47.1153
47.8476
48.6158
27.5419
27.0706
26.6169
26.1802
25.7601
25.3563
24.9684
24.5962
24.2394
23.8976
23.5708
23.2586
22.961
22.6777
22.4087
22.1538
21.913
21.6862
21.4735
21.2748
21.0903
20.9201
20.7641
20.6228
20.4962
20.3847
20.2886
20.2082
20.1441
20.0967
20.0666
20.0544
20.061
20.0872
20.134
20.2018
20.2895
20.3957
20.5197
20.6608
20.8182
20.9917
21.1805
21.3845
21.6031
21.8361
22.0832
22.3441
22.6187
22.9067
23.208
23.5223
23.8497
24.1898
24.5426
24.908
25.2856
25.6755
26.0773
26.4907
26.9157
27.3518
27.7987
28.256
28.7233
29.2002
29.6861
30.1805
30.6828
31.1923
31.7085
32.2306
32.758
33.2899
33.8257
34.3647
34.9062
35.4497
35.9948
36.5409
37.0878
37.6354
38.1837
38.7328
39.283
39.8351
40.3896
40.9477
41.5106
42.0799
42.6574
43.245
43.8453
44.4607
45.0941
45.7487
46.428
47.1356
47.8755
48.652
27.5422
27.0709
26.6172
26.1804
25.7604
25.3566
24.9687
24.5965
24.2397
23.8979
23.5711
23.2589
22.9612
22.678
22.4089
22.154
21.9132
21.6865
21.4737
21.2751
21.0906
20.9203
20.7644
20.623
20.4965
20.385
20.2888
20.2085
20.1443
20.0969
20.0668
20.0546
20.0612
20.0874
20.1342
20.2019
20.2896
20.3959
20.5198
20.6608
20.8182
20.9916
21.1804
21.3843
21.6029
21.8358
22.0828
22.3437
22.6182
22.9061
23.2072
23.5215
23.8488
24.1888
24.5415
24.9066
25.2841
25.6737
26.0753
26.4885
26.9131
27.3488
27.7953
28.2521
28.7189
29.1952
29.6804
30.1741
30.6755
31.1842
31.6994
32.2205
32.7468
33.2775
33.8121
34.3499
34.8902
35.4325
35.9764
36.5215
37.0675
37.6143
38.1619
38.7106
39.2608
39.813
40.3682
40.9273
41.4918
42.0631
42.6431
43.234
43.838
44.4577
45.0962
45.7566
46.4422
47.1568
47.9043
48.6889
27.5425
27.0712
26.6175
26.1807
25.7607
25.3569
24.969
24.5968
24.2399
23.8982
23.5713
23.2592
22.9615
22.6782
22.4092
22.1543
21.9135
21.6867
21.474
21.2753
21.0908
20.9205
20.7646
20.6233
20.4967
20.3852
20.2891
20.2087
20.1446
20.0971
20.067
20.0549
20.0615
20.0876
20.1343
20.2021
20.2898
20.396
20.5199
20.6608
20.8182
20.9915
21.1803
21.3841
21.6026
21.8355
22.0824
22.3432
22.6176
22.9055
23.2065
23.5207
23.8478
24.1877
24.5403
24.9053
25.2826
25.672
26.0732
26.4862
26.9104
27.3458
27.7918
28.2482
28.7144
29.19
29.6746
30.1675
30.6681
31.1758
31.6901
32.2101
32.7353
33.2649
33.7982
34.3348
34.8738
35.415
35.9577
36.5017
37.0467
37.5928
38.1398
38.6882
39.2384
39.7909
40.3468
40.9071
41.4731
42.0466
42.6293
43.2233
43.8312
44.4555
45.0991
45.7652
46.4572
47.1788
47.9339
48.7266
27.5428
27.0715
26.6177
26.181
25.7609
25.3571
24.9693
24.597
24.2402
23.8985
23.5716
23.2594
22.9618
22.6785
22.4094
22.1545
21.9137
21.687
21.4742
21.2756
21.0911
20.9208
20.7649
20.6235
20.497
20.3854
20.2893
20.209
20.1448
20.0974
20.0672
20.0551
20.0617
20.0878
20.1345
20.2023
20.2899
20.3961
20.52
20.6609
20.8182
20.9915
21.1802
21.384
21.6024
21.8352
22.0821
22.3428
22.6171
22.9048
23.2058
23.5199
23.8469
24.1867
24.5391
24.9039
25.281
25.6702
26.0712
26.4838
26.9077
27.3427
27.7883
28.2441
28.7098
29.1848
29.6686
30.1607
30.6605
31.1673
31.6805
32.1995
32.7235
33.2519
33.784
34.3193
34.8572
35.3971
35.9387
36.4816
37.0257
37.571
38.1175
38.6656
39.2158
39.7688
40.3254
40.8869
41.4547
42.0303
42.6158
43.2132
43.825
44.4538
45.1026
45.7745
46.4729
47.2015
47.9642
48.7651
27.5431
27.0718
26.618
26.1813
25.7612
25.3574
24.9695
24.5973
24.2405
23.8987
23.5719
23.2597
22.962
22.6787
22.4097
22.1548
21.914
21.6872
21.4745
21.2758
21.0913
20.921
20.7651
20.6238
20.4972
20.3857
20.2896
20.2092
20.145
20.0976
20.0675
20.0553
20.0619
20.088
20.1347
20.2024
20.2901
20.3962
20.5201
20.6609
20.8182
20.9915
21.1801
21.3838
21.6022
21.8349
22.0817
22.3423
22.6166
22.9042
23.2051
23.5191
23.846
24.1856
24.5379
24.9025
25.2794
25.6684
26.0691
26.4814
26.905
27.3395
27.7846
28.24
28.705
29.1794
29.6625
30.1537
30.6526
31.1585
31.6707
32.1885
32.7114
33.2386
33.7695
34.3036
34.8402
35.3789
35.9193
36.4612
37.0044
37.549
38.095
38.6429
39.1932
39.7466
40.3041
40.8669
41.4364
42.0144
42.6027
43.2036
43.8194
44.4529
45.1069
45.7846
46.4894
47.225
47.9952
48.8041
28.0325
27.5433
27.0721
26.6183
26.1815
25.7614
25.3576
24.9698
24.5976
24.2407
23.899
23.5721
23.2599
22.9623
22.679
22.4099
22.155
21.9142
21.6875
21.4747
21.2761
21.0916
20.9213
20.7654
20.624
20.4975
20.3859
20.2898
20.2094
20.1453
20.0979
20.0677
20.0556
20.0621
20.0883
20.1349
20.2026
20.2903
20.3964
20.5202
20.661
20.8183
20.9914
21.18
21.3837
21.602
21.8346
22.0814
22.3419
22.6161
22.9037
23.2045
23.5183
23.8451
24.1846
24.5367
24.9011
25.2778
25.6665
26.067
26.479
26.9022
27.3363
27.7809
28.2357
28.7002
29.1738
29.6562
30.1466
30.6446
31.1495
31.6606
32.1774
32.6991
33.2251
33.7548
34.2875
34.8229
35.3603
35.8996
36.4405
36.9828
37.5267
38.0723
38.62
39.1704
39.7244
40.2828
40.847
41.4184
41.9988
42.5901
43.1944
43.8144
44.4525
45.1118
45.7954
46.5066
47.2491
48.0268
48.8436
28.0328
27.5436
27.0723
26.6185
26.1818
25.7617
25.3579
24.97
24.5978
24.241
23.8992
23.5724
23.2602
22.9625
22.6792
22.4102
22.1553
21.9145
21.6877
21.475
21.2763
21.0918
20.9215
20.7656
20.6243
20.4977
20.3862
20.2901
20.2097
20.1455
20.0981
20.068
20.0558
20.0624
20.0885
20.1352
20.2028
20.2904
20.3965
20.5203
20.6611
20.8183
20.9914
21.1799
21.3835
21.6018
21.8344
22.081
22.3415
22.6156
22.9031
23.2038
23.5175
23.8442
24.1835
24.5355
24.8998
25.2762
25.6647
26.0649
26.4765
26.8994
27.333
27.7772
28.2314
28.6952
29.1682
29.6497
30.1393
30.6364
31.1402
31.6503
32.1659
32.6864
33.2112
33.7397
34.2713
34.8053
35.3416
35.8797
36.4195
36.961
37.5042
38.0494
38.597
39.1477
39.7022
40.2617
40.8273
41.4007
41.9836
42.5779
43.1858
43.8099
44.4528
45.1174
45.8068
46.5244
47.2739
48.0589
48.8836
28.033
27.5438
27.0726
26.6188
26.182
25.7619
25.3581
24.9703
24.5981
24.2412
23.8995
23.5726
23.2604
22.9628
22.6795
22.4104
22.1555
21.9147
21.688
21.4752
21.2766
21.0921
20.9218
20.7659
20.6245
20.498
20.3864
20.2903
20.21
20.1458
20.0984
20.0682
20.0561
20.0626
20.0887
20.1354
20.203
20.2906
20.3967
20.5204
20.6611
20.8183
20.9914
21.1799
21.3834
21.6016
21.8341
22.0807
22.3411
22.6151
22.9025
23.2031
23.5168
23.8433
24.1825
24.5343
24.8984
25.2747
25.6629
26.0627
26.4741
26.8965
27.3297
27.7734
28.227
28.6902
29.1624
29.6431
30.1318
30.6279
31.1307
31.6397
32.1541
32.6733
33.1969
33.7244
34.255
34.7879
35.3228
35.8597
36.3984
36.939
37.4816
38.0264
38.574
39.1249
39.6801
40.2407
40.8079
41.3833
41.9687
42.5661
43.1777
43.806
44.4537
45.1236
45.8189
46.5429
47.2992
48.0915
28.0332
27.544
27.0728
26.619
26.1822
25.7622
25.3584
24.9705
24.5983
24.2414
23.8997
23.5729
23.2607
22.963
22.6797
22.4107
22.1558
21.915
21.6882
21.4755
21.2768
21.0923
20.922
20.7661
20.6248
20.4982
20.3867
20.2906
20.2102
20.1461
20.0986
20.0685
20.0563
20.0629
20.089