/*--------------------------------*- C++ -*----------------------------------*\
  =========                 |
  \\      /  F ield         | OpenFOAM: The Open Source CFD Toolbox
   \\    /   O peration     | Website:  https://openfoam.org
    \\  /    A nd           | Version:  10
     \\/     M anipulation  |
\*---------------------------------------------------------------------------*/
FoamFile
{
    format      ascii;
    class       volScalarField;
    location    "65000";
    object      p;
}
// * * * * * * * * * * * * * * * * * * * * * * * * * * * * * * * * * * * * * //

dimensions      [0 2 -2 0 0 0 0];

internalField   nonuniform List<scalar> 
17922
(
7.19128
7.14497
7.09779
7.04972
7.00074
6.95086
6.90004
6.84827
6.79555
6.74185
6.68717
6.63148
6.57476
6.51701
6.45821
6.39834
6.33738
6.27532
6.21214
6.14782
6.08234
6.01568
5.94783
5.87876
5.80845
5.73689
5.66404
5.5899
5.51508
5.44088
5.36795
5.29626
5.22578
5.1565
5.08839
5.02143
4.95559
4.89086
4.82721
4.76462
4.70307
4.64254
4.58301
4.52445
4.46685
4.41018
4.35444
4.29959
4.24561
4.1925
4.14022
4.08877
4.03812
3.98826
3.93916
3.89082
3.8432
3.79631
3.75012
3.70461
3.65977
3.61558
3.57204
3.52912
3.48681
3.4451
3.40398
3.36343
3.32345
3.28402
3.24513
3.20677
3.16894
3.13162
3.0948
3.05848
3.02265
2.9873
2.95242
2.91801
2.88406
2.85055
2.8175
2.78488
2.75269
2.72094
2.6896
2.65869
2.62819
2.5981
2.56841
2.53913
2.51025
7.19128
7.14497
7.0978
7.04973
7.00076
6.95087
6.90006
6.8483
6.79558
6.74189
6.6872
6.63152
6.57481
6.51706
6.45826
6.3984
6.33744
6.27538
6.21221
6.14789
6.08241
6.01576
5.94791
5.87884
5.80854
5.73698
5.66414
5.58999
5.51518
5.44099
5.36806
5.29637
5.2259
5.15662
5.08852
5.02156
4.95573
4.891
4.82735
4.76476
4.70322
4.64269
4.58315
4.5246
4.467
4.41033
4.35459
4.29973
4.24576
4.19265
4.14037
4.08892
4.03827
3.9884
3.93931
3.89096
3.84335
3.79645
3.75026
3.70475
3.65991
3.61572
3.57218
3.52926
3.48696
3.44525
3.40413
3.36359
3.32361
3.28419
3.2453
3.20695
3.16913
3.13181
3.09501
3.0587
3.02288
2.98753
2.95267
2.91827
2.88433
2.85084
2.81779
2.78519
2.75303
2.72129
2.68997
2.65908
2.6286
2.59854
2.56888
2.53963
2.51077
7.19122
7.14492
7.09774
7.04967
7.0007
6.95082
6.9
6.84825
6.79553
6.74183
6.68715
6.63146
6.57475
6.51701
6.45821
6.39834
6.33739
6.27533
6.21215
6.14783
6.08235
6.0157
5.94785
5.87878
5.80848
5.73692
5.66407
5.58993
5.51511
5.44092
5.36799
5.2963
5.22582
5.15654
5.08843
5.02147
4.95563
4.8909
4.82725
4.76466
4.70311
4.64257
4.58304
4.52447
4.46687
4.4102
4.35444
4.29959
4.24561
4.19249
4.1402
4.08874
4.03809
3.98821
3.93911
3.89076
3.84314
3.79623
3.75003
3.70451
3.65967
3.61548
3.57193
3.529
3.48669
3.44498
3.40386
3.36331
3.32333
3.2839
3.24502
3.20667
3.16884
3.13153
3.09472
3.05841
3.0226
2.98726
2.95239
2.918
2.88406
2.85058
2.81754
2.78495
2.75279
2.72106
2.68976
2.65888
2.62842
2.59837
2.56873
2.5395
2.51067
7.19113
7.14482
7.09765
7.04958
7.00061
6.95073
6.89991
6.84815
6.79543
6.74174
6.68705
6.63136
6.57465
6.5169
6.4581
6.39823
6.33728
6.27522
6.21203
6.14771
6.08223
6.01558
5.94772
5.87865
5.80835
5.73678
5.66394
5.58978
5.51496
5.44077
5.36783
5.29614
5.22566
5.15637
5.08826
5.02129
4.95545
4.89071
4.82705
4.76446
4.7029
4.64236
4.58282
4.52425
4.46664
4.40996
4.3542
4.29933
4.24535
4.19222
4.13993
4.08846
4.03779
3.98791
3.9388
3.89044
3.84281
3.7959
3.74969
3.70417
3.65931
3.61511
3.57156
3.52863
3.48631
3.44459
3.40347
3.36292
3.32293
3.2835
3.24462
3.20627
3.16844
3.13113
3.09432
3.05802
3.0222
2.98687
2.95201
2.91762
2.88369
2.85021
2.81719
2.7846
2.75246
2.72074
2.68946
2.65859
2.62815
2.59812
2.5685
2.53929
2.51049
7.19105
7.14475
7.09757
7.0495
7.00054
6.95065
6.89984
6.84807
6.79535
6.74166
6.68697
6.63128
6.57457
6.51682
6.45802
6.39815
6.33719
6.27513
6.21194
6.14762
6.08214
6.01548
5.94762
5.87855
5.80824
5.73667
5.66382
5.58966
5.51484
5.44064
5.3677
5.296
5.22552
5.15623
5.08811
5.02114
4.95529
4.89055
4.82689
4.76428
4.70272
4.64217
4.58263
4.52405
4.46643
4.40975
4.35398
4.29911
4.24512
4.19198
4.13968
4.08821
4.03753
3.98765
3.93853
3.89016
3.84252
3.7956
3.74939
3.70385
3.65899
3.61479
3.57123
3.52829
3.48597
3.44425
3.40312
3.36257
3.32258
3.28315
3.24427
3.20592
3.16809
3.13078
3.09398
3.05767
3.02186
2.98653
2.95168
2.91729
2.88337
2.84991
2.81689
2.78432
2.75219
2.72049
2.68922
2.65837
2.62795
2.59794
2.56834
2.53916
2.51038
7.19099
7.14468
7.09751
7.04944
7.00047
6.95058
6.89977
6.84801
6.79529
6.74159
6.6869
6.63121
6.5745
6.51675
6.45795
6.39807
6.33711
6.27505
6.21186
6.14753
6.08205
6.01539
5.94753
5.87846
5.80814
5.73657
5.66372
5.58956
5.51473
5.44052
5.36758
5.29588
5.22539
5.1561
5.08797
5.021
4.95515
4.8904
4.82673
4.76412
4.70256
4.642
4.58245
4.52387
4.46624
4.40955
4.35378
4.2989
4.2449
4.19176
4.13945
4.08797
4.03729
3.98739
3.93827
3.88989
3.84225
3.79532
3.7491
3.70356
3.65869
3.61448
3.57091
3.52797
3.48565
3.44393
3.40279
3.36224
3.32225
3.28282
3.24393
3.20558
3.16776
3.13045
3.09365
3.05735
3.02154
2.98622
2.95137
2.91699
2.88308
2.84962
2.81662
2.78406
2.75194
2.72026
2.689
2.65817
2.62777
2.59778
2.56821
2.53905
2.5103
7.19092
7.14462
7.09744
7.04938
7.00041
6.95052
6.8997
6.84794
6.79522
6.74152
6.68684
6.63114
6.57443
6.51668
6.45787
6.398
6.33704
6.27497
6.21178
6.14745
6.08197
6.0153
5.94744
5.87837
5.80805
5.73647
5.66362
5.58946
5.51462
5.44041
5.36747
5.29576
5.22527
5.15597
5.08784
5.02086
4.955
4.89025
4.82658
4.76397
4.70239
4.64184
4.58227
4.52369
4.46606
4.40936
4.35358
4.2987
4.24469
4.19154
4.13923
4.08774
4.03705
3.98715
3.93801
3.88963
3.84198
3.79504
3.74881
3.70327
3.6584
3.61418
3.57061
3.52766
3.48533
3.44361
3.40247
3.36191
3.32192
3.28249
3.24361
3.20526
3.16743
3.13013
3.09333
3.05703
3.02123
2.98591
2.95107
2.9167
2.8828
2.84935
2.81636
2.78381
2.75171
2.72004
2.6888
2.65799
2.62761
2.59764
2.56809
2.53896
2.51023
7.19086
7.14456
7.09738
7.04931
7.00035
6.95046
6.89964
6.84788
6.79516
6.74146
6.68677
6.63108
6.57436
6.51661
6.45781
6.39793
6.33696
6.2749
6.21171
6.14738
6.08189
6.01522
5.94736
5.87828
5.80796
5.73638
5.66352
5.58936
5.51452
5.44031
5.36736
5.29564
5.22515
5.15584
5.08771
5.02072
4.95486
4.89011
4.82643
4.76381
4.70223
4.64167
4.5821
4.52351
4.46587
4.40917
4.35338
4.29849
4.24448
4.19132
4.139
4.0875
4.03681
3.9869
3.93776
3.88937
3.84171
3.79477
3.74853
3.70298
3.6581
3.61388
3.5703
3.52735
3.48502
3.44329
3.40215
3.36159
3.3216
3.28217
3.24329
3.20494
3.16712
3.12981
3.09302
3.05673
3.02093
2.98562
2.95079
2.91643
2.88253
2.8491
2.81611
2.78358
2.75149
2.71984
2.68862
2.65783
2.62746
2.59752
2.568
2.53889
2.51019
7.1908
7.1445
7.09732
7.04926
7.00029
6.9504
6.89959
6.84782
6.7951
6.7414
6.68671
6.63102
6.5743
6.51655
6.45774
6.39786
6.3369
6.27483
6.21164
6.1473
6.08181
6.01514
5.94728
5.8782
5.80787
5.73629
5.66343
5.58926
5.51442
5.4402
5.36725
5.29553
5.22503
5.15572
5.08759
5.02059
4.95473
4.88997
4.82628
4.76366
4.70208
4.64151
4.58193
4.52334
4.46569
4.40898
4.35319
4.29829
4.24427
4.19111
4.13878
4.08728
4.03657
3.98666
3.93751
3.88911
3.84145
3.7945
3.74826
3.7027
3.65782
3.61359
3.57001
3.52705
3.48472
3.44299
3.40185
3.36129
3.32129
3.28186
3.24298
3.20463
3.16681
3.12951
3.09272
3.05644
3.02064
2.98534
2.95051
2.91616
2.88228
2.84885
2.81588
2.78336
2.75129
2.71965
2.68845
2.65768
2.62734
2.59742
2.56792
2.53884
2.51016
7.19075
7.14445
7.09727
7.0492
7.00024
6.95035
6.89953
6.84777
6.79505
6.74135
6.68666
6.63096
6.57425
6.51649
6.45768
6.3978
6.33684
6.27476
6.21157
6.14724
6.08174
6.01507
5.9472
5.87812
5.80779
5.73621
5.66334
5.58917
5.51432
5.4401
5.36714
5.29542
5.22492
5.15561
5.08746
5.02047
4.9546
4.88983
4.82614
4.76352
4.70192
4.64135
4.58177
4.52317
4.46552
4.4088
4.353
4.2981
4.24407
4.1909
4.13857
4.08705
4.03635
3.98642
3.93727
3.88886
3.84119
3.79424
3.74799
3.70243
3.65754
3.61331
3.56972
3.52676
3.48442
3.44269
3.40155
3.36099
3.32099
3.28156
3.24268
3.20433
3.16652
3.12922
3.09244
3.05616
3.02037
2.98507
2.95026
2.91592
2.88204
2.84863
2.81567
2.78317
2.75111
2.71949
2.68831
2.65756
2.62723
2.59734
2.56786
2.5388
2.51016
7.1907
7.1444
7.09722
7.04915
7.00019
6.9503
6.89948
6.84772
6.795
6.7413
6.68661
6.63091
6.57419
6.51644
6.45763
6.39774
6.33678
6.2747
6.21151
6.14717
6.08168
6.015
5.94713
5.87804
5.80771
5.73613
5.66326
5.58908
5.51423
5.44001
5.36704
5.29532
5.22481
5.15549
5.08735
5.02035
4.95447
4.8897
4.82601
4.76337
4.70178
4.6412
4.58161
4.523
4.46535
4.40862
4.35282
4.29791
4.24387
4.19069
4.13836
4.08684
4.03612
3.98619
3.93703
3.88862
3.84094
3.79398
3.74773
3.70216
3.65727
3.61303
3.56944
3.52648
3.48414
3.4424
3.40126
3.3607
3.32071
3.28127
3.24239
3.20405
3.16624
3.12895
3.09217
3.05589
3.02011
2.98482
2.95002
2.91568
2.88182
2.84842
2.81548
2.78299
2.75094
2.71934
2.68818
2.65745
2.62715
2.59727
2.56782
2.53879
2.51017
7.19065
7.14435
7.09717
7.04911
7.00014
6.95026
6.89944
6.84767
6.79495
6.74125
6.68656
6.63086
6.57414
6.51639
6.45757
6.39769
6.33672
6.27465
6.21145
6.14711
6.08161
6.01494
5.94706
5.87797
5.80764
5.73605
5.66318
5.589
5.51415
5.43992
5.36695
5.29522
5.22471
5.15539
5.08723
5.02023
4.95435
4.88957
4.82587
4.76323
4.70163
4.64105
4.58146
4.52284
4.46518
4.40845
4.35264
4.29772
4.24368
4.1905
4.13815
4.08663
4.0359
3.98597
3.9368
3.88838
3.8407
3.79374
3.74748
3.70191
3.65701
3.61277
3.56917
3.52621
3.48386
3.44213
3.40098
3.36042
3.32043
3.281
3.24212
3.20378
3.16597
3.12868
3.09191
3.05564
3.01987
2.98459
2.94979
2.91547
2.88162
2.84823
2.8153
2.78283
2.7508
2.71922
2.68807
2.65736
2.62708
2.59723
2.5678
2.5388
2.51021
7.19061
7.14431
7.09713
7.04907
7.0001
6.95021
6.8994
6.84763
6.79491
6.74121
6.68652
6.63082
6.5741
6.51634
6.45753
6.39764
6.33667
6.27459
6.21139
6.14705
6.08155
6.01488
5.947
5.87791
5.80757
5.73598
5.6631
5.58892
5.51406
5.43983
5.36686
5.29513
5.22461
5.15528
5.08713
5.02012
4.95423
4.88945
4.82574
4.7631
4.70149
4.6409
4.58131
4.52268
4.46502
4.40828
4.35247
4.29754
4.24349
4.1903
4.13795
4.08642
4.03569
3.98575
3.93658
3.88815
3.84047
3.7935
3.74723
3.70166
3.65675
3.61251
3.56891
3.52595
3.4836
3.44186
3.40072
3.36015
3.32016
3.28073
3.24186
3.20352
3.16572
3.12843
3.09167
3.0554
3.01964
2.98437
2.94958
2.91527
2.88143
2.84806
2.81514
2.78268
2.75067
2.71911
2.68798
2.65729
2.62704
2.59721
2.5678
2.53882
2.51026
7.19057
7.14427
7.09709
7.04903
7.00006
6.95018
6.89936
6.84759
6.79487
6.74117
6.68648
6.63078
6.57406
6.5163
6.45748
6.3976
6.33662
6.27455
6.21134
6.147
6.0815
6.01482
5.94694
5.87784
5.80751
5.73591
5.66303
5.58884
5.51398
5.43975
5.36677
5.29503
5.22451
5.15518
5.08702
5.02001
4.95412
4.88933
4.82562
4.76297
4.70136
4.64076
4.58116
4.52253
4.46486
4.40812
4.3523
4.29737
4.24331
4.19012
4.13776
4.08622
4.03549
3.98554
3.93636
3.88793
3.84024
3.79327
3.747
3.70142
3.65651
3.61226
3.56866
3.5257
3.48335
3.44161
3.40046
3.3599
3.31991
3.28048
3.24161
3.20328
3.16548
3.1282
3.09144
3.05518
3.01943
2.98417
2.94939
2.91509
2.88126
2.8479
2.815
2.78256
2.75057
2.71902
2.68791
2.65724
2.62701
2.5972
2.56782
2.53887
2.51033
7.19053
7.14423
7.09706
7.049
7.00003
6.95014
6.89932
6.84756
6.79483
6.74113
6.68644
6.63074
6.57402
6.51626
6.45744
6.39756
6.33658
6.2745
6.2113
6.14695
6.08145
6.01477
5.94689
5.87779
5.80745
5.73585
5.66296
5.58877
5.51391
5.43967
5.36669
5.29495
5.22442
5.15509
5.08692
5.0199
4.95401
4.88921
4.8255
4.76285
4.70123
4.64063
4.58102
4.52239
4.46471
4.40796
4.35213
4.2972
4.24314
4.18994
4.13757
4.08603
4.03529
3.98534
3.93615
3.88772
3.84002
3.79305
3.74677
3.70119
3.65628
3.61203
3.56843
3.52546
3.48311
3.44137
3.40022
3.35966
3.31967
3.28025
3.24138
3.20305
3.16525
3.12798
3.09123
3.05498
3.01923
2.98398
2.94921
2.91493
2.88111
2.84777
2.81488
2.78245
2.75048
2.71895
2.68786
2.65721
2.627
2.59722
2.56786
2.53893
2.51041
7.1905
7.1442
7.09703
7.04897
7
6.95011
6.89929
6.84753
6.7948
6.7411
6.68641
6.63071
6.57398
6.51622
6.45741
6.39752
6.33654
6.27446
6.21126
6.14691
6.0814
6.01472
5.94684
5.87773
5.80739
5.73579
5.6629
5.58871
5.51384
5.4396
5.36661
5.29487
5.22434
5.155
5.08683
5.0198
4.9539
4.88911
4.82539
4.76273
4.70111
4.6405
4.58089
4.52225
4.46456
4.40781
4.35198
4.29704
4.24297
4.18976
4.1374
4.08585
4.0351
3.98515
3.93596
3.88752
3.83982
3.79283
3.74656
3.70097
3.65606
3.6118
3.5682
3.52523
3.48288
3.44114
3.39999
3.35943
3.31945
3.28003
3.24116
3.20284
3.16505
3.12778
3.09103
3.05479
3.01906
2.98381
2.94906
2.91478
2.88098
2.84765
2.81478
2.78237
2.75041
2.7189
2.68783
2.6572
2.62701
2.59725
2.56792
2.53901
2.51052
7.36718
7.32425
7.2805
7.23591
7.19047
7.14418
7.097
7.04894
6.99997
6.95009
6.89927
6.8475
6.79478
6.74108
6.68638
6.63068
6.57396
6.51619
6.45738
6.39749
6.33651
6.27443
6.21122
6.14687
6.08136
6.01467
5.94679
5.87768
5.80734
5.73573
5.66284
5.58864
5.51377
5.43953
5.36654
5.29479
5.22425
5.15491
5.08674
5.01971
4.9538
4.889
4.82528
4.76261
4.70099
4.64037
4.58076
4.52211
4.46442
4.40767
4.35183
4.29688
4.24281
4.1896
4.13723
4.08567
4.03492
3.98496
3.93577
3.88732
3.83962
3.79263
3.74635
3.70076
3.65585
3.61159
3.56799
3.52501
3.48266
3.44092
3.39978
3.35922
3.31924
3.27982
3.24096
3.20264
3.16486
3.1276
3.09086
3.05463
3.0189
2.98367
2.94892
2.91466
2.88087
2.84755
2.8147
2.7823
2.75036
2.71887
2.68782
2.65721
2.62704
2.5973
2.56799
2.53911
2.51064
7.36715
7.32422
7.28046
7.23588
7.19045
7.14415
7.09698
7.04892
6.99995
6.95007
6.89925
6.84748
6.79476
6.74105
6.68636
6.63066
6.57393
6.51617
6.45735
6.39746
6.33648
6.27439
6.21118
6.14683
6.08132
6.01463
5.94675
5.87764
5.80729
5.73568
5.66279
5.58859
5.51371
5.43946
5.36647
5.29472
5.22418
5.15483
5.08665
5.01962
4.95371
4.8889
4.82518
4.76251
4.70087
4.64026
4.58063
4.52199
4.46429
4.40753
4.35169
4.29673
4.24266
4.18944
4.13706
4.08551
4.03475
3.98478
3.93559
3.88714
3.83943
3.79244
3.74616
3.70057
3.65565
3.61139
3.56779
3.52481
3.48246
3.44072
3.39958
3.35903
3.31905
3.27963
3.24077
3.20246
3.16468
3.12743
3.0907
3.05448
3.01876
2.98354
2.9488
2.91455
2.88078
2.84748
2.81464
2.78226
2.75033
2.71886
2.68783
2.65724
2.62709
2.59737
2.56808
2.53922
2.51078
7.36712
7.3242
7.28045
7.23586
7.19043
7.14414
7.09697
7.0489
6.99994
6.95005
6.89923
6.84747
6.79474
6.74103
6.68634
6.63064
6.57391
6.51614
6.45732
6.39743
6.33645
6.27437
6.21115
6.1468
6.08129
6.0146
5.94671
5.8776
5.80725
5.73563
5.66274
5.58853
5.51366
5.4394
5.36641
5.29465
5.2241
5.15475
5.08657
5.01953
4.95362
4.88881
4.82508
4.7624
4.70077
4.64014
4.58052
4.52186
4.46417
4.4074
4.35155
4.29659
4.24252
4.18929
4.13691
4.08535
4.03459
3.98462
3.93542
3.88697
3.83925
3.79226
3.74598
3.70038
3.65546
3.61121
3.5676
3.52463
3.48228
3.44054
3.3994
3.35885
3.31887
3.27946
3.24061
3.2023
3.16453
3.12728
3.09056
3.05435
3.01864
2.98343
2.94871
2.91447
2.88071
2.84742
2.8146
2.78223
2.75033
2.71887
2.68786
2.65729
2.62716
2.59746
2.5682
2.53936
2.51094
7.49108
7.45055
7.40923
7.36711
7.32419
7.28044
7.23586
7.19042
7.14413
7.09696
7.04889
6.99992
6.95004
6.89922
6.84745
6.79472
6.74102
6.68632
6.63062
6.57389
6.51613
6.4573
6.39741
6.33643
6.27434
6.21113
6.14678
6.08126
6.01457
5.94667
5.87756
5.80721
5.73559
5.66269
5.58849
5.5136
5.43934
5.36635
5.29458
5.22404
5.15468
5.08649
5.01945
4.95354
4.88872
4.82499
4.76231
4.70067
4.64004
4.58041
4.52175
4.46405
4.40728
4.35142
4.29646
4.24238
4.18915
4.13677
4.0852
4.03444
3.98446
3.93526
3.88681
3.83909
3.7921
3.74581
3.70021
3.65529
3.61104
3.56743
3.52446
3.48211
3.44037
3.39924
3.35869
3.31872
3.27931
3.24046
3.20216
3.16439
3.12716
3.09044
3.05424
3.01854
2.98334
2.94863
2.9144
2.88066
2.84738
2.81458
2.78223
2.75034
2.7189
2.68791
2.65736
2.62725
2.59757
2.56833
2.53951
2.51111
7.49107
7.45054
7.40922
7.36711
7.32419
7.28044
7.23586
7.19042
7.14412
7.09695
7.04889
6.99992
6.95003
6.89921
6.84744
6.79472
6.74101
6.68631
6.63061
6.57388
6.51611
6.45729
6.3974
6.33641
6.27432
6.21111
6.14675
6.08124
6.01454
5.94664
5.87753
5.80717
5.73556
5.66265
5.58844
5.51356
5.43929
5.36629
5.29453
5.22398
5.15462
5.08643
5.01938
4.95346
4.88864
4.8249
4.76222
4.70057
4.63994
4.58031
4.52164
4.46394
4.40716
4.3513
4.29634
4.24225
4.18902
4.13663
4.08506
4.0343
3.98432
3.93511
3.88666
3.83894
3.79194
3.74566
3.70006
3.65514
3.61088
3.56727
3.5243
3.48196
3.44022
3.39909
3.35854
3.31858
3.27918
3.24033
3.20204
3.16428
3.12705
3.09034
3.05415
3.01846
2.98327
2.94858
2.91436
2.88063
2.84737
2.81458
2.78225
2.75037
2.71895
2.68798
2.65745
2.62736
2.5977
2.56848
2.53968
2.5113
7.49108
7.45054
7.40923
7.36711
7.32419
7.28044
7.23586
7.19042
7.14413
7.09695
7.04889
6.99992
6.95003
6.89921
6.84744
6.79471
6.74101
6.68631
6.6306
6.57387
6.5161
6.45728
6.39738
6.3364
6.27431
6.21109
6.14673
6.08121
6.01452
5.94662
5.8775
5.80714
5.73552
5.66262
5.5884
5.51351
5.43925
5.36624
5.29447
5.22392
5.15456
5.08636
5.01931
4.95339
4.88856
4.82482
4.76214
4.70049
4.63985
4.58021
4.52155
4.46384
4.40706
4.3512
4.29623
4.24214
4.1889
4.13651
4.08494
4.03417
3.98419
3.93498
3.88652
3.8388
3.79181
3.74552
3.69992
3.655
3.61074
3.56714
3.52417
3.48182
3.44009
3.39896
3.35842
3.31846
3.27906
3.24022
3.20194
3.16419
3.12697
3.09027
3.05408
3.01841
2.98323
2.94854
2.91434
2.88062
2.84738
2.8146
2.78229
2.75043
2.71903
2.68807
2.65756
2.62749
2.59785
2.56864
2.53986
2.51151
7.49109
7.45056
7.40924
7.36713
7.3242
7.28045
7.23587
7.19043
7.14413
7.09696
7.04889
6.99992
6.95003
6.89921
6.84744
6.79471
6.741
6.68631
6.6306
6.57387
6.5161
6.45727
6.39737
6.33639
6.2743
6.21108
6.14672
6.0812
6.0145
5.9466
5.87748
5.80712
5.73549
5.66259
5.58837
5.51348
5.43921
5.3662
5.29443
5.22387
5.1545
5.0863
5.01925
4.95332
4.8885
4.82475
4.76206
4.70041
4.63977
4.58013
4.52146
4.46374
4.40696
4.3511
4.29613
4.24203
4.18879
4.1364
4.08482
4.03405
3.98407
3.93486
3.8864
3.83868
3.79168
3.74539
3.69979
3.65488
3.61062
3.56702
3.52405
3.48171
3.43998
3.39885
3.35832
3.31836
3.27897
3.24014
3.20186
3.16411
3.1269
3.09021
3.05404
3.01837
2.98321
2.94853
2.91435
2.88064
2.84741
2.81465
2.78235
2.75051
2.71912
2.68818
2.65769
2.62764
2.59802
2.56883
2.54007
2.51173
7.49112
7.45058
7.40926
7.36715
7.32422
7.28047
7.23588
7.19045
7.14415
7.09697
7.0489
6.99993
6.95004
6.89922
6.84745
6.79472
6.74101
6.68631
6.6306
6.57387
6.5161
6.45727
6.39737
6.33638
6.27429
6.21107
6.14671
6.08119
6.01448
5.94658
5.87746
5.8071
5.73547
5.66256
5.58834
5.51345
5.43917
5.36616
5.29438
5.22382
5.15445
5.08625
5.0192
4.95327
4.88844
4.82468
4.76199
4.70034
4.63969
4.58005
4.52138
4.46366
4.40688
4.35101
4.29603
4.24194
4.1887
4.1363
4.08472
4.03395
3.98397
3.93475
3.88629
3.83857
3.79157
3.74528
3.69969
3.65477
3.61052
3.56691
3.52395
3.48161
3.43989
3.39876
3.35823
3.31828
3.2789
3.24007
3.2018
3.16407
3.12686
3.09018
3.05402
3.01836
2.98321
2.94855
2.91437
2.88068
2.84746
2.81472
2.78243
2.75061
2.71924
2.68832
2.65784
2.62781
2.59821
2.56904
2.54029
2.51198
7.49115
7.45061
7.40929
7.36717
7.32424
7.28049
7.2359
7.19047
7.14416
7.09699
7.04892
6.99995
6.95005
6.89923
6.84746
6.79473
6.74102
6.68632
6.63061
6.57387
6.5161
6.45727
6.39737
6.33638
6.27429
6.21107
6.1467
6.08118
6.01447
5.94657
5.87745
5.80708
5.73545
5.66254
5.58832
5.51342
5.43914
5.36613
5.29435
5.22379
5.15441
5.08621
5.01915
4.95322
4.88838
4.82463
4.76193
4.70027
4.63963
4.57998
4.52131
4.46359
4.4068
4.35093
4.29595
4.24185
4.18861
4.13621
4.08463
4.03386
3.98388
3.93466
3.8862
3.83848
3.79148
3.74519
3.6996
3.65468
3.61043
3.56683
3.52387
3.48154
3.43982
3.3987
3.35817
3.31823
3.27885
3.24003
3.20177
3.16404
3.12685
3.09018
3.05402
3.01838
2.98324
2.94859
2.91443
2.88075
2.84754
2.81481
2.78254
2.75073
2.71938
2.68848
2.65802
2.628
2.59842
2.56926
2.54054
2.51224
7.49118
7.45065
7.40932
7.3672
7.32427
7.28052
7.23593
7.19049
7.14419
7.09701
7.04894
6.99996
6.95007
6.89925
6.84748
6.79474
6.74103
6.68633
6.63062
6.57388
6.51611
6.45728
6.39738
6.33639
6.27429
6.21107
6.1467
6.08118
6.01447
5.94656
5.87744
5.80707
5.73544
5.66252
5.5883
5.5134
5.43912
5.3661
5.29432
5.22375
5.15438
5.08617
5.01911
4.95317
4.88834
4.82458
4.76188
4.70022
4.63957
4.57992
4.52125
4.46352
4.40673
4.35086
4.29588
4.24178
4.18854
4.13614
4.08456
4.03379
3.9838
3.93459
3.88613
3.83841
3.79141
3.74512
3.69953
3.65461
3.61037
3.56677
3.52381
3.48148
3.43977
3.39865
3.35813
3.31819
3.27882
3.24001
3.20176
3.16404
3.12686
3.0902
3.05406
3.01842
2.98329
2.94865
2.91451
2.88084
2.84765
2.81493
2.78268
2.75089
2.71955
2.68866
2.65822
2.62822
2.59865
2.56952
2.54081
2.51252
7.49123
7.45069
7.40936
7.36724
7.32431
7.28055
7.23596
7.19052
7.14422
7.09704
7.04896
6.99999
6.9501
6.89927
6.8475
6.79476
6.74105
6.68634
6.63063
6.5739
6.51612
6.45729
6.39739
6.33639
6.2743
6.21107
6.1467
6.08118
6.01447
5.94656
5.87743
5.80706
5.73543
5.66251
5.58828
5.51338
5.4391
5.36608
5.2943
5.22373
5.15435
5.08614
5.01908
4.95314
4.8883
4.82454
4.76184
4.70018
4.63953
4.57987
4.5212
4.46347
4.40668
4.35081
4.29583
4.24173
4.18848
4.13608
4.0845
4.03373
3.98374
3.93453
3.88607
3.83835
3.79135
3.74507
3.69948
3.65457
3.61032
3.56673
3.52378
3.48145
3.43974
3.39863
3.35812
3.31819
3.27882
3.24002
3.20177
3.16407
3.12689
3.09024
3.05411
3.01849
2.98337
2.94875
2.91461
2.88096
2.84778
2.81508
2.78284
2.75106
2.71974
2.68887
2.65844
2.62846
2.59891
2.56979
2.5411
2.51283
7.49128
7.45074
7.40941
7.36729
7.32435
7.28059
7.236
7.19056
7.14425
7.09707
7.049
7.00002
6.95012
6.8993
6.84752
6.79479
6.74107
6.68637
6.63065
6.57392
6.51614
6.45731
6.3974
6.33641
6.27431
6.21108
6.14671
6.08118
6.01447
5.94656
5.87743
5.80706
5.73543
5.66251
5.58828
5.51337
5.43909
5.36607
5.29428
5.22371
5.15433
5.08612
5.01905
4.95311
4.88827
4.82451
4.76181
4.70014
4.63949
4.57984
4.52116
4.46343
4.40664
4.35076
4.29579
4.24168
4.18844
4.13604
4.08446
4.03368
3.9837
3.93449
3.88603
3.83831
3.79132
3.74503
3.69945
3.65454
3.6103
3.56671
3.52376
3.48144
3.43974
3.39864
3.35813
3.3182
3.27885
3.24006
3.20182
3.16412
3.12696
3.09032
3.0542
3.01859
2.98348
2.94887
2.91474
2.88111
2.84794
2.81525
2.78303
2.75127
2.71996
2.68911
2.65869
2.62872
2.59919
2.57009
2.54141
2.51316
7.49133
7.45079
7.40946
7.36734
7.3244
7.28064
7.23605
7.1906
7.14429
7.09711
7.04903
7.00006
6.95016
6.89933
6.84755
6.79481
6.7411
6.68639
6.63068
6.57394
6.51616
6.45733
6.39742
6.33643
6.27432
6.2111
6.14673
6.0812
6.01448
5.94657
5.87744
5.80707
5.73543
5.66251
5.58828
5.51337
5.43908
5.36606
5.29427
5.2237
5.15432
5.0861
5.01904
4.95309
4.88825
4.82449
4.76179
4.70012
4.63947
4.57981
4.52113
4.4634
4.40661
4.35074
4.29576
4.24165
4.18841
4.13601
4.08443
4.03366
3.98367
3.93446
3.88601
3.83829
3.7913
3.74502
3.69944
3.65453
3.6103
3.56671
3.52377
3.48146
3.43976
3.39867
3.35817
3.31825
3.2789
3.24012
3.20189
3.1642
3.12705
3.09042
3.05431
3.01871
2.98362
2.94902
2.91491
2.88128
2.84814
2.81546
2.78325
2.7515
2.72021
2.68937
2.65898
2.62902
2.5995
2.57042
2.54176
2.51352
7.4914
7.45085
7.40952
7.36739
7.32445
7.28069
7.2361
7.19065
7.14434
7.09715
7.04908
7.0001
6.9502
6.89937
6.84759
6.79485
6.74113
6.68642
6.63071
6.57397
6.51619
6.45735
6.39744
6.33645
6.27434
6.21112
6.14674
6.08121
6.0145
5.94659
5.87745
5.80708
5.73544
5.66251
5.58828
5.51337
5.43909
5.36606
5.29427
5.2237
5.15431
5.0861
5.01903
4.95308
4.88824
4.82448
4.76177
4.70011
4.63945
4.5798
4.52112
4.46339
4.4066
4.35072
4.29574
4.24164
4.1884
4.136
4.08442
4.03365
3.98367
3.93446
3.886
3.83829
3.79131
3.74503
3.69945
3.65455
3.61032
3.56674
3.52381
3.4815
3.43981
3.39872
3.35823
3.31832
3.27899
3.24021
3.20199
3.16431
3.12717
3.09055
3.05446
3.01887
2.98379
2.9492
2.9151
2.88149
2.84836
2.8157
2.7835
2.75177
2.72049
2.68967
2.65929
2.62935
2.59984
2.57077
2.54213
2.5139
7.49147
7.45092
7.40959
7.36746
7.32451
7.28075
7.23615
7.1907
7.14439
7.0972
7.04912
7.00014
6.95024
6.89941
6.84763
6.79489
6.74117
6.68646
6.63074
6.574
6.51622
6.45738
6.39747
6.33647
6.27437
6.21114
6.14677
6.08123
6.01452
5.9466
5.87747
5.80709
5.73545
5.66253
5.58829
5.51338
5.43909
5.36607
5.29428
5.2237
5.15432
5.0861
5.01903
4.95308
4.88824
4.82448
4.76177
4.7001
4.63945
4.5798
4.52112
4.46339
4.4066
4.35072
4.29574
4.24164
4.1884
4.136
4.08443
4.03366
3.98368
3.93447
3.88602
3.83831
3.79133
3.74506
3.69948
3.65459
3.61037
3.56679
3.52387
3.48157
3.43989
3.39881
3.35833
3.31843
3.2791
3.24034
3.20213
3.16446
3.12733
3.09072
3.05463
3.01906
2.98399
2.94942
2.91533
2.88174
2.84862
2.81597
2.78379
2.75207
2.72081
2.69
2.65963
2.62971
2.60022
2.57116
2.54253
2.51432
7.49154
7.45099
7.40966
7.36752
7.32458
7.28081
7.23621
7.19076
7.14445
7.09726
7.04918
7.00019
6.95029
6.89946
6.84767
6.79493
6.74121
6.6865
6.63078
6.57404
6.51626
6.45742
6.39751
6.33651
6.2744
6.21117
6.1468
6.08126
6.01454
5.94663
5.87749
5.80711
5.73547
5.66255
5.58831
5.5134
5.43911
5.36608
5.29429
5.22371
5.15433
5.08611
5.01904
4.9531
4.88825
4.82449
4.76178
4.70012
4.63946
4.57981
4.52113
4.4634
4.40661
4.35074
4.29576
4.24166
4.18842
4.13603
4.08445
4.03369
3.98371
3.93451
3.88606
3.83836
3.79138
3.74511
3.69954
3.65466
3.61044
3.56687
3.52395
3.48166
3.43999
3.39892
3.35845
3.31856
3.27925
3.24049
3.20229
3.16464
3.12752
3.09092
3.05485
3.01929
2.98423
2.94967
2.9156
2.88201
2.84891
2.81628
2.78411
2.75241
2.72116
2.69036
2.66001
2.6301
2.60063
2.57159
2.54297
2.51477
7.49163
7.45107
7.40973
7.3676
7.32465
7.28088
7.23628
7.19082
7.14451
7.09732
7.04923
7.00025
6.95034
6.89951
6.84772
6.79498
6.74126
6.68655
6.63082
6.57408
6.5163
6.45746
6.39754
6.33654
6.27444
6.2112
6.14683
6.08129
6.01457
5.94666
5.87752
5.80714
5.7355
5.66257
5.58833
5.51342
5.43913
5.3661
5.29431
5.22373
5.15435
5.08613
5.01906
4.95312
4.88827
4.82451
4.76181
4.70014
4.63949
4.57983
4.52115
4.46343
4.40664
4.35077
4.29579
4.2417
4.18846
4.13607
4.0845
4.03373
3.98376
3.93456
3.88612
3.83842
3.79145
3.74519
3.69962
3.65474
3.61053
3.56698
3.52407
3.48179
3.44012
3.39907
3.35861
3.31873
3.27942
3.24068
3.20249
3.16485
3.12774
3.09116
3.0551
3.01955
2.9845
2.94996
2.9159
2.88233
2.84924
2.81662
2.78447
2.75278
2.72155
2.69077
2.66043
2.63054
2.60108
2.57205
2.54345
2.51526
7.49171
7.45115
7.40981
7.36767
7.32473
7.28095
7.23635
7.19089
7.14457
7.09738
7.0493
7.00031
6.9504
6.89956
6.84778
6.79503
6.74131
6.68659
6.63087
6.57413
6.51634
6.4575
6.39759
6.33659
6.27448
6.21124
6.14687
6.08133
6.01461
5.94669
5.87755
5.80717
5.73553
5.6626
5.58837
5.51345
5.43916
5.36613
5.29434
5.22376
5.15438
5.08616
5.01909
4.95315
4.88831
4.82454
4.76184
4.70017
4.63953
4.57987
4.5212
4.46347
4.40669
4.35082
4.29585
4.24175
4.18852
4.13613
4.08456
4.0338
3.98383
3.93464
3.8862
3.83851
3.79154
3.74529
3.69973
3.65486
3.61066
3.56711
3.52421
3.48194
3.44029
3.39924
3.3588
3.31893
3.27964
3.24091
3.20274
3.1651
3.12801
3.09144
3.05539
3.01985
2.98482
2.95028
2.91624
2.88269
2.84961
2.81701
2.78487
2.7532
2.72198
2.69121
2.66089
2.63101
2.60157
2.57255
2.54396
2.51579
7.4918
7.45124
7.4099
7.36776
7.32481
7.28103
7.23642
7.19096
7.14464
7.09745
7.04936
7.00037
6.95046
6.89962
6.84784
6.79509
6.74137
6.68665
6.63092
6.57418
6.51639
6.45755
6.39764
6.33663
6.27452
6.21129
6.14691
6.08137
6.01465
5.94673
5.87759
5.80721
5.73557
5.66264
5.5884
5.51349
5.4392
5.36617
5.29438
5.2238
5.15442
5.0862
5.01914
4.95319
4.88835
4.82459
4.76189
4.70022
4.63958
4.57993
4.52125
4.46353
4.40675
4.35088
4.29591
4.24182
4.18859
4.13621
4.08465
4.03389
3.98393
3.93474
3.88631
3.83862
3.79166
3.74541
3.69986
3.655
3.6108
3.56727
3.52438
3.48212
3.44048
3.39945
3.35902
3.31917
3.2799
3.24118
3.20302
3.1654
3.12831
3.09176
3.05572
3.02019
2.98518
2.95066
2.91663
2.88309
2.85002
2.81743
2.78531
2.75365
2.72245
2.6917
2.6614
2.63153
2.6021
2.5731
2.54453
2.51637
7.53169
7.4919
7.45133
7.40999
7.36784
7.32489
7.28111
7.2365
7.19104
7.14472
7.09752
7.04943
7.00044
6.95053
6.89969
6.8479
6.79515
6.74143
6.68671
6.63098
6.57423
6.51645
6.4576
6.39769
6.33668
6.27457
6.21134
6.14696
6.08142
6.0147
5.94678
5.87764
5.80726
5.73562
5.66269
5.58845
5.51354
5.43925
5.36622
5.29443
5.22385
5.15447
5.08626
5.01919
4.95325
4.88841
4.82465
4.76195
4.70029
4.63964
4.58
4.52132
4.46361
4.40683
4.35097
4.296
4.24192
4.18869
4.13631
4.08475
4.034
3.98404
3.93486
3.88644
3.83876
3.7918
3.74556
3.70002
3.65516
3.61098
3.56745
3.52457
3.48233
3.4407
3.39969
3.35928
3.31945
3.2802
3.2415
3.20335
3.16574
3.12867
3.09212
3.0561
3.02058
2.98558
2.95107
2.91706
2.88353
2.85048
2.81791
2.7858
2.75416
2.72297
2.69224
2.66195
2.6321
2.60269
2.5737
2.54514
2.517
7.53179
7.49199
7.45143
7.41008
7.36793
7.32498
7.2812
7.23658
7.19112
7.1448
7.0976
7.04951
7.00051
6.9506
6.89976
6.84797
6.79522
6.74149
6.68677
6.63104
6.57429
6.5165
6.45766
6.39774
6.33674
6.27463
6.21139
6.14701
6.08147
6.01475
5.94683
5.87769
5.80731
5.73567
5.66274
5.5885
5.51359
5.4393
5.36627
5.29449
5.22391
5.15453
5.08632
5.01925
4.95331
4.88848
4.82472
4.76202
4.70037
4.63972
4.58008
4.52141
4.4637
4.40693
4.35107
4.29611
4.24203
4.18881
4.13643
4.08488
4.03413
3.98418
3.93501
3.88659
3.83891
3.79197
3.74574
3.7002
3.65535
3.61118
3.56766
3.52479
3.48255
3.44094
3.39995
3.35958
3.31979
3.28056
3.24187
3.20373
3.16613
3.12907
3.09253
3.05652
3.02102
2.98603
2.95154
2.91754
2.88403
2.85099
2.81843
2.78635
2.75472
2.72355
2.69283
2.66256
2.63272
2.60332
2.57436
2.54581
2.51768
7.53189
7.49209
7.45153
7.41017
7.36802
7.32507
7.28129
7.23667
7.1912
7.14488
7.09768
7.04958
7.00059
6.95068
6.89983
6.84804
6.79529
6.74156
6.68684
6.63111
6.57436
6.51657
6.45772
6.3978
6.3368
6.27468
6.21145
6.14707
6.08153
6.01481
5.94689
5.87775
5.80737
5.73573
5.6628
5.58856
5.51365
5.43936
5.36634
5.29455
5.22398
5.1546
5.08639
5.01933
4.95339
4.88856
4.8248
4.76211
4.70046
4.63982
4.58018
4.52152
4.46381
4.40704
4.35119
4.29623
4.24216
4.18894
4.13657
4.08503
4.03429
3.98435
3.93518
3.88676
3.8391
3.79216
3.74593
3.70041
3.65557
3.6114
3.56789
3.52503
3.4828
3.44122
3.40026
3.35992
3.32016
3.28097
3.2423
3.20417
3.16657
3.12952
3.093
3.057
3.02151
2.98653
2.95205
2.91807
2.88457
2.85155
2.81901
2.78694
2.75533
2.72418
2.69347
2.66322
2.6334
2.60402
2.57507
2.54654
7.53199
7.4922
7.45163
7.41027
7.36812
7.32516
7.28138
7.23676
7.19129
7.14496
7.09776
7.04966
7.00067
6.95075
6.89991
6.84811
6.79536
6.74163
6.68691
6.63118
6.57442
6.51663
6.45779
6.39787
6.33686
6.27475
6.21151
6.14713
6.08159
6.01487
5.94695
5.87781
5.80743
5.73579
5.66286
5.58863
5.51372
5.43944
5.36641
5.29463
5.22406
5.15468
5.08647