/*--------------------------------*- C++ -*----------------------------------*\
  =========                 |
  \\      /  F ield         | OpenFOAM: The Open Source CFD Toolbox
   \\    /   O peration     | Website:  https://openfoam.org
    \\  /    A nd           | Version:  10
     \\/     M anipulation  |
\*---------------------------------------------------------------------------*/
FoamFile
{
    format      ascii;
    class       volScalarField;
    location    "33000";
    object      nut;
}
// * * * * * * * * * * * * * * * * * * * * * * * * * * * * * * * * * * * * * //

dimensions      [0 2 -1 0 0 0 0];

internalField   nonuniform List<scalar> 
17922
(
0.00327153
0.00332657
0.00338164
0.00343671
0.00349171
0.0035466
0.00360129
0.00365573
0.00370985
0.00376356
0.00381678
0.00386942
0.0039214
0.0039726
0.00402291
0.00407224
0.00412044
0.00416741
0.00421299
0.00425705
0.00429942
0.00433996
0.00437849
0.00441482
0.00444877
0.00448015
0.00450873
0.0045343
0.00455643
0.0045747
0.00458906
0.00459966
0.00460665
0.00461018
0.00461042
0.00460751
0.0046016
0.00459286
0.00458142
0.00456745
0.0045511
0.0045325
0.00451182
0.00448918
0.00446474
0.00443863
0.00441098
0.00438193
0.00435159
0.00432009
0.00428755
0.00425408
0.00421978
0.00418477
0.00414914
0.00411298
0.0040764
0.00403946
0.00400227
0.00396488
0.00392739
0.00388984
0.00385232
0.00381487
0.00377756
0.00374042
0.00370351
0.00366687
0.00363052
0.0035945
0.00355883
0.00352352
0.0034886
0.00345405
0.00341989
0.00338611
0.00335268
0.00331958
0.0032868
0.00325428
0.00322198
0.00318984
0.00315781
0.00312582
0.00309378
0.00306161
0.00302922
0.00299652
0.00296339
0.00292973
0.00289542
0.00286034
0.00282439
0.00327157
0.00332661
0.00338168
0.00343675
0.00349176
0.00354664
0.00360134
0.00365578
0.0037099
0.00376361
0.00381683
0.00386948
0.00392145
0.00397265
0.00402297
0.0040723
0.00412051
0.00416748
0.00421306
0.00425712
0.0042995
0.00434004
0.00437857
0.00441491
0.00444886
0.00448024
0.00450883
0.0045344
0.00455654
0.00457481
0.00458918
0.00459978
0.00460678
0.00461033
0.00461057
0.00460767
0.00460177
0.00459304
0.00458162
0.00456766
0.00455132
0.00453274
0.00451207
0.00448945
0.00446503
0.00443894
0.00441131
0.00438228
0.00435196
0.00432048
0.00428796
0.00425452
0.00422024
0.00418526
0.00414965
0.00411352
0.00407696
0.00404005
0.00400288
0.00396552
0.00392805
0.00389053
0.00385303
0.0038156
0.00377831
0.0037412
0.0037043
0.00366767
0.00363134
0.00359532
0.00355966
0.00352435
0.00348941
0.00345485
0.00342067
0.00338685
0.00335338
0.00332023
0.00328737
0.00325476
0.00322236
0.0031901
0.00315793
0.00312577
0.00309355
0.00306117
0.00302854
0.00299557
0.00296214
0.00292816
0.0028935
0.00285804
0.00282167
0.00327161
0.00332665
0.00338173
0.0034368
0.00349181
0.00354669
0.00360139
0.00365583
0.00370995
0.00376367
0.00381689
0.00386954
0.00392151
0.00397272
0.00402304
0.00407237
0.00412058
0.00416755
0.00421313
0.00425719
0.00429958
0.00434012
0.00437865
0.00441499
0.00444895
0.00448033
0.00450892
0.0045345
0.00455665
0.00457492
0.00458929
0.0045999
0.00460691
0.00461046
0.00461071
0.00460782
0.00460194
0.00459321
0.0045818
0.00456786
0.00455153
0.00453297
0.00451232
0.00448972
0.00446531
0.00443924
0.00441163
0.00438262
0.00435232
0.00432087
0.00428837
0.00425495
0.0042207
0.00418573
0.00415015
0.00411405
0.00407751
0.00404063
0.00400348
0.00396615
0.0039287
0.00389121
0.00385373
0.00381633
0.00377906
0.00374196
0.00370509
0.00366847
0.00363215
0.00359614
0.00356048
0.00352517
0.00349022
0.00345565
0.00342143
0.00338758
0.00335406
0.00332085
0.00328791
0.00325521
0.0032227
0.00319032
0.00315799
0.00312566
0.00309324
0.00306064
0.00302776
0.00299451
0.00296078
0.00292646
0.00289144
0.00285559
0.0028188
0.00327165
0.00332669
0.00338177
0.00343684
0.00349185
0.00354674
0.00360144
0.00365589
0.00371
0.00376372
0.00381695
0.00386959
0.00392157
0.00397278
0.0040231
0.00407243
0.00412064
0.00416761
0.0042132
0.00425726
0.00429965
0.00434019
0.00437873
0.00441507
0.00444904
0.00448042
0.00450902
0.0045346
0.00455675
0.00457503
0.0045894
0.00460002
0.00460703
0.00461059
0.00461085
0.00460797
0.0046021
0.00459338
0.00458199
0.00456806
0.00455175
0.0045332
0.00451256
0.00448998
0.0044656
0.00443954
0.00441196
0.00438296
0.00435269
0.00432126
0.00428878
0.00425538
0.00422116
0.00418622
0.00415066
0.00411458
0.00407807
0.00404121
0.00400409
0.00396679
0.00392937
0.0038919
0.00385445
0.00381707
0.00377982
0.00374274
0.00370589
0.00366929
0.00363297
0.00359697
0.00356131
0.00352599
0.00349104
0.00345644
0.0034222
0.00338831
0.00335473
0.00332146
0.00328844
0.00325565
0.00322302
0.0031905
0.00315802
0.0031255
0.00309287
0.00306004
0.0030269
0.00299336
0.00295931
0.00292465
0.00288924
0.00285299
0.00281577
0.00327169
0.00332673
0.00338181
0.00343689
0.0034919
0.00354678
0.00360149
0.00365593
0.00371005
0.00376377
0.003817
0.00386965
0.00392163
0.00397283
0.00402316
0.00407249
0.00412071
0.00416768
0.00421327
0.00425733
0.00429972
0.00434027
0.00437881
0.00441515
0.00444912
0.00448051
0.00450911
0.00453469
0.00455685
0.00457514
0.00458951
0.00460014
0.00460715
0.00461072
0.00461099
0.00460812
0.00460225
0.00459355
0.00458217
0.00456826
0.00455196
0.00453343
0.00451281
0.00449025
0.00446588
0.00443985
0.00441228
0.00438331
0.00435306
0.00432165
0.0042892
0.00425582
0.00422162
0.00418671
0.00415118
0.00411512
0.00407864
0.00404181
0.00400472
0.00396744
0.00393004
0.0038926
0.00385517
0.00381782
0.00378059
0.00374354
0.0037067
0.00367011
0.00363381
0.00359781
0.00356215
0.00352683
0.00349186
0.00345724
0.00342297
0.00338903
0.0033554
0.00332206
0.00328896
0.00325606
0.0032233
0.00319064
0.00315799
0.00312529
0.00309244
0.00305936
0.00302595
0.00299211
0.00295773
0.0029227
0.00288691
0.00285024
0.00281257
0.00327173
0.00332677
0.00338185
0.00343693
0.00349194
0.00354683
0.00360153
0.00365598
0.0037101
0.00376382
0.00381705
0.0038697
0.00392168
0.00397289
0.00402322
0.00407255
0.00412077
0.00416774
0.00421333
0.0042574
0.00429979
0.00434034
0.00437888
0.00441523
0.0044492
0.00448059
0.00450919
0.00453479
0.00455694
0.00457524
0.00458962
0.00460025
0.00460728
0.00461085
0.00461113
0.00460826
0.00460241
0.00459372
0.00458235
0.00456845
0.00455217
0.00453366
0.00451306
0.00449051
0.00446617
0.00444015
0.00441261
0.00438366
0.00435343
0.00432205
0.00428962
0.00425627
0.00422209
0.00418721
0.0041517
0.00411568
0.00407922
0.00404242
0.00400535
0.0039681
0.00393073
0.00389332
0.00385592
0.00381859
0.00378138
0.00374434
0.00370752
0.00367095
0.00363466
0.00359867
0.003563
0.00352768
0.00349269
0.00345805
0.00342375
0.00338976
0.00335607
0.00332265
0.00328945
0.00325644
0.00322356
0.00319074
0.00315792
0.00312501
0.00309194
0.0030586
0.00302491
0.00299075
0.00295603
0.00292063
0.00288444
0.00284733
0.00280921
0.00327177
0.00332681
0.00338189
0.00343697
0.00349198
0.00354687
0.00360158
0.00365603
0.00371015
0.00376387
0.0038171
0.00386975
0.00392174
0.00397295
0.00402327
0.00407261
0.00412083
0.0041678
0.0042134
0.00425747
0.00429986
0.00434041
0.00437896
0.00441531
0.00444928
0.00448068
0.00450928
0.00453488
0.00455704
0.00457534
0.00458973
0.00460036
0.00460739
0.00461098
0.00461126
0.00460841
0.00460257
0.00459389
0.00458253
0.00456865
0.00455238
0.00453389
0.0045133
0.00449078
0.00446645
0.00444046
0.00441294
0.00438401
0.00435381
0.00432245
0.00429005
0.00425672
0.00422257
0.00418771
0.00415223
0.00411624
0.00407981
0.00404303
0.004006
0.00396877
0.00393143
0.00389404
0.00385667
0.00381936
0.00378218
0.00374517
0.00370836
0.0036718
0.00363552
0.00359953
0.00356387
0.00352853
0.00349353
0.00345886
0.00342452
0.00339048
0.00335673
0.00332322
0.00328993
0.0032568
0.00322378
0.0031908
0.00315779
0.00312467
0.00309136
0.00305775
0.00302377
0.00298928
0.00295421
0.00291842
0.00288181
0.00284426
0.00280567
0.00327181
0.00332685
0.00338193
0.00343701
0.00349203
0.00354692
0.00360162
0.00365607
0.0037102
0.00376392
0.00381715
0.00386981
0.00392179
0.003973
0.00402333
0.00407267
0.00412089
0.00416786
0.00421346
0.00425753
0.00429993
0.00434048
0.00437903
0.00441538
0.00444936
0.00448076
0.00450936
0.00453496
0.00455713
0.00457543
0.00458983
0.00460047
0.00460751
0.0046111
0.0046114
0.00460855
0.00460272
0.00459406
0.00458271
0.00456884
0.00455259
0.00453411
0.00451355
0.00449105
0.00446674
0.00444077
0.00441327
0.00438437
0.00435419
0.00432285
0.00429048
0.00425718
0.00422306
0.00418822
0.00415277
0.00411681
0.00408041
0.00404366
0.00400665
0.00396946
0.00393215
0.00389479
0.00385744
0.00382016
0.003783
0.003746
0.00370921
0.00367267
0.00363639
0.00360041
0.00356474
0.0035294
0.00349437
0.00345968
0.00342529
0.0033912
0.00335737
0.00332378
0.00329038
0.00325713
0.00322396
0.00319081
0.0031576
0.00312426
0.0030907
0.00305681
0.00302252
0.0029877
0.00295225
0.00291606
0.00287902
0.00284102
0.00280195
0.00327184
0.00332689
0.00338197
0.00343705
0.00349207
0.00354696
0.00360167
0.00365612
0.00371024
0.00376397
0.0038172
0.00386986
0.00392184
0.00397305
0.00402338
0.00407272
0.00412094
0.00416792
0.00421352
0.0042576
0.00429999
0.00434055
0.0043791
0.00441546
0.00444943
0.00448083
0.00450945
0.00453505
0.00455722
0.00457553
0.00458993
0.00460058
0.00460762
0.00461122
0.00461153
0.00460869
0.00460287
0.00459422
0.00458289
0.00456904
0.0045528
0.00453434
0.0045138
0.00449132
0.00446703
0.00444108
0.00441361
0.00438473
0.00435457
0.00432326
0.00429091
0.00425764
0.00422355
0.00418874
0.00415332
0.00411738
0.00408102
0.0040443
0.00400732
0.00397016
0.00393287
0.00389554
0.00385822
0.00382096
0.00378383
0.00374685
0.00371008
0.00367355
0.00363728
0.0036013
0.00356563
0.00353027
0.00349522
0.00346049
0.00342606
0.0033919
0.003358
0.00332432
0.00329081
0.00325742
0.0032241
0.00319076
0.00315735
0.00312378
0.00308995
0.00305577
0.00302115
0.00298598
0.00295015
0.00291355
0.00287607
0.0028376
0.00279804
0.00327188
0.00332692
0.00338201
0.00343709
0.00349211
0.003547
0.00360171
0.00365616
0.00371029
0.00376401
0.00381725
0.0038699
0.00392189
0.0039731
0.00402344
0.00407278
0.004121
0.00416798
0.00421358
0.00425766
0.00430006
0.00434062
0.00437917
0.00441553
0.00444951
0.00448091
0.00450953
0.00453513
0.00455731
0.00457562
0.00459003
0.00460068
0.00460774
0.00461134
0.00461166
0.00460883
0.00460302
0.00459439
0.00458307
0.00456923
0.00455302
0.00453457
0.00451405
0.00449159
0.00446732
0.0044414
0.00441394
0.00438509
0.00435496
0.00432368
0.00429136
0.00425811
0.00422405
0.00418927
0.00415388
0.00411797
0.00408164
0.00404495
0.004008
0.00397087
0.00393362
0.00389631
0.00385902
0.00382179
0.00378467
0.00374772
0.00371096
0.00367444
0.00363818
0.0036022
0.00356652
0.00353114
0.00349607
0.0034613
0.00342682
0.0033926
0.00335862
0.00332484
0.00329121
0.00325768
0.00322419
0.00319066
0.00315703
0.00312321
0.00308911
0.00305463
0.00301967
0.00298413
0.0029479
0.00291088
0.00287295
0.002834
0.00279394
0.00327191
0.00332696
0.00338205
0.00343713
0.00349215
0.00354704
0.00360175
0.00365621
0.00371033
0.00376406
0.00381729
0.00386995
0.00392194
0.00397315
0.00402349
0.00407283
0.00412105
0.00416804
0.00421364
0.00425772
0.00430012
0.00434068
0.00437923
0.00441559
0.00444958
0.00448099
0.0045096
0.00453522
0.0045574
0.00457571
0.00459013
0.00460079
0.00460785
0.00461146
0.00461178
0.00460897
0.00460318
0.00459455
0.00458325
0.00456943
0.00455323
0.0045348
0.0045143
0.00449186
0.00446762
0.00444172
0.00441429
0.00438546
0.00435536
0.0043241
0.00429181
0.00425859
0.00422456
0.00418981
0.00415445
0.00411858
0.00408227
0.00404562
0.0040087
0.0039716
0.00393437
0.0038971
0.00385983
0.00382263
0.00378553
0.0037486
0.00371186
0.00367535
0.0036391
0.00360312
0.00356742
0.00353203
0.00349693
0.00346212
0.00342758
0.00339329
0.00335922
0.00332533
0.00329157
0.00325789
0.00322422
0.0031905
0.00315664
0.00312256
0.00308817
0.00305337
0.00301806
0.00298214
0.00294551
0.00290804
0.00286965
0.00283021
0.00278963
0.00327195
0.003327
0.00338209
0.00343717
0.00349218
0.00354708
0.00360179
0.00365625
0.00371038
0.0037641
0.00381734
0.00387
0.00392199
0.0039732
0.00402354
0.00407288
0.00412111
0.00416809
0.0042137
0.00425778
0.00430018
0.00434074
0.0043793
0.00441566
0.00444965
0.00448106
0.00450968
0.0045353
0.00455748
0.0045758
0.00459022
0.00460089
0.00460795
0.00461158
0.00461191
0.00460911
0.00460332
0.00459471
0.00458343
0.00456962
0.00455344
0.00453504
0.00451455
0.00449213
0.00446791
0.00444204
0.00441463
0.00438583
0.00435576
0.00432453
0.00429227
0.00425908
0.00422508
0.00419036
0.00415504
0.00411919
0.00408291
0.00404629
0.00400941
0.00397234
0.00393514
0.0038979
0.00386066
0.00382348
0.00378641
0.0037495
0.00371277
0.00367627
0.00364002
0.00360404
0.00356834
0.00353292
0.00349779
0.00346293
0.00342833
0.00339396
0.0033598
0.00332579
0.0032919
0.00325805
0.0032242
0.00319026
0.00315616
0.00312181
0.00308712
0.00305199
0.00301632
0.00298001
0.00294295
0.00290504
0.00286616
0.00282622
0.00278512
0.00327198
0.00332703
0.00338212
0.0034372
0.00349222
0.00354712
0.00360183
0.00365629
0.00371042
0.00376414
0.00381738
0.00387004
0.00392203
0.00397325
0.00402359
0.00407293
0.00412116
0.00416814
0.00421375
0.00425783
0.00430024
0.0043408
0.00437936
0.00441573
0.00444972
0.00448113
0.00450975
0.00453537
0.00455756
0.00457589
0.00459031
0.00460099
0.00460806
0.00461169
0.00461204
0.00460924
0.00460347
0.00459488
0.00458361
0.00456982
0.00455365
0.00453527
0.0045148
0.00449241
0.00446821
0.00444236
0.00441498
0.00438621
0.00435616
0.00432496
0.00429273
0.00425958
0.0042256
0.00419092
0.00415563
0.00411981
0.00408357
0.00404699
0.00401013
0.00397309
0.00393593
0.00389872
0.00386151
0.00382435
0.00378731
0.00375041
0.0037137
0.00367721
0.00364096
0.00360497
0.00356926
0.00353381
0.00349864
0.00346374
0.00342907
0.00339462
0.00336035
0.00332622
0.00329218
0.00325817
0.00322411
0.00318995
0.0031556
0.00312096
0.00308595
0.00305048
0.00301444
0.00297772
0.00294022
0.00290185
0.00286248
0.00282203
0.0027804
0.00327202
0.00332707
0.00338216
0.00343724
0.00349226
0.00354716
0.00360187
0.00365633
0.00371046
0.00376419
0.00381742
0.00387009
0.00392208
0.0039733
0.00402363
0.00407298
0.00412121
0.0041682
0.0042138
0.00425789
0.00430029
0.00434086
0.00437942
0.00441579
0.00444978
0.0044812
0.00450983
0.00453545
0.00455764
0.00457598
0.00459041
0.00460108
0.00460817
0.00461181
0.00461216
0.00460938
0.00460362
0.00459504
0.00458378
0.00457001
0.00455387
0.0045355
0.00451506
0.00449269
0.00446852
0.00444269
0.00441534
0.00438659
0.00435658
0.00432541
0.0042932
0.00426008
0.00422614
0.00419149
0.00415623
0.00412045
0.00408424
0.00404769
0.00401087
0.00397387
0.00393674
0.00389955
0.00386237
0.00382524
0.00378822
0.00375134
0.00371465
0.00367816
0.00364191
0.00360592
0.00357018
0.00353471
0.0034995
0.00346454
0.0034298
0.00339526
0.00336088
0.00332661
0.00329242
0.00325822
0.00322396
0.00318956
0.00315494
0.00312001
0.00308467
0.00304884
0.0030124
0.00297526
0.00293732
0.00289847
0.00285861
0.00281764
0.00277547
0.00327205
0.0033271
0.00338219
0.00343728
0.0034923
0.0035472
0.00360191
0.00365637
0.0037105
0.00376423
0.00381747
0.00387013
0.00392212
0.00397334
0.00402368
0.00407303
0.00412126
0.00416825
0.00421386
0.00425794
0.00430035
0.00434092
0.00437948
0.00441585
0.00444985
0.00448127
0.0045099
0.00453552
0.00455772
0.00457606
0.00459049
0.00460118
0.00460827
0.00461192
0.00461228
0.00460951
0.00460377
0.0045952
0.00458396
0.00457021
0.00455408
0.00453574
0.00451532
0.00449297
0.00446882
0.00444302
0.0044157
0.00438698
0.004357
0.00432586
0.00429369
0.0042606
0.00422669
0.00419208
0.00415685
0.0041211
0.00408493
0.00404841
0.00401163
0.00397466
0.00393756
0.0039004
0.00386325
0.00382615
0.00378915
0.00375229
0.0037156
0.00367913
0.00364288
0.00360687
0.00357111
0.00353561
0.00350035
0.00346532
0.00343051
0.00339587
0.00336137
0.00332696
0.0032926
0.00325821
0.00322373
0.00318908
0.00315418
0.00311893
0.00308326
0.00304705
0.00301021
0.00297264
0.00293424
0.0028949
0.00285452
0.00281302
0.00277031
0.00327208
0.00332713
0.00338223
0.00343731
0.00349233
0.00354723
0.00360195
0.00365641
0.00371054
0.00376427
0.00381751
0.00387017
0.00392217
0.00397339
0.00402373
0.00407307
0.00412131
0.0041683
0.00421391
0.00425799
0.0043004
0.00434097
0.00437954
0.00441591
0.00444991
0.00448133
0.00450997
0.0045356
0.0045578
0.00457614
0.00459058
0.00460127
0.00460837
0.00461203
0.0046124
0.00460965
0.00460391
0.00459536
0.00458414
0.0045704
0.0045543
0.00453598
0.00451558
0.00449325
0.00446914
0.00444336
0.00441607
0.00438738
0.00435742
0.00432632
0.00429418
0.00426112
0.00422725
0.00419267
0.00415748
0.00412177
0.00408563
0.00404915
0.0040124
0.00397546
0.0039384
0.00390128
0.00386415
0.00382707
0.00379009
0.00375325
0.00371658
0.0036801
0.00364385
0.00360783
0.00357205
0.00353651
0.0035012
0.0034661
0.0034312
0.00339645
0.00336183
0.00332727
0.00329273
0.00325813
0.00322342
0.0031885
0.00315331
0.00311774
0.00308171
0.00304512
0.00300786
0.00296984
0.00293096
0.00289112
0.00285023
0.00280819
0.00276492
0.00305328
0.00310771
0.00316234
0.00321716
0.00327212
0.00332717
0.00338226
0.00343735
0.00349237
0.00354727
0.00360198
0.00365644
0.00371058
0.00376431
0.00381755
0.00387021
0.00392221
0.00397343
0.00402377
0.00407312
0.00412135
0.00416835
0.00421396
0.00425804
0.00430046
0.00434103
0.00437959
0.00441597
0.00444997
0.00448139
0.00451003
0.00453567
0.00455788
0.00457622
0.00459067
0.00460137
0.00460847
0.00461214
0.00461252
0.00460978
0.00460406
0.00459552
0.00458432
0.0045706
0.00455452
0.00453622
0.00451584
0.00449354
0.00446945
0.00444371
0.00441644
0.00438778
0.00435786
0.00432679
0.00429468
0.00426166
0.00422782
0.00419328
0.00415813
0.00412245
0.00408635
0.00404991
0.00401319
0.00397629
0.00393926
0.00390217
0.00386507
0.00382802
0.00379106
0.00375423
0.00371757
0.0036811
0.00364483
0.0036088
0.00357299
0.0035374
0.00350203
0.00346686
0.00343187
0.003397
0.00336224
0.00332752
0.00329279
0.00325798
0.00322302
0.00318783
0.00315233
0.00311642
0.00308002
0.00304302
0.00300533
0.00296686
0.00292749
0.00288714
0.00284572
0.00280313
0.0027593
0.00305331
0.00310774
0.00316238
0.00321719
0.00327215
0.0033272
0.00338229
0.00343738
0.0034924
0.00354731
0.00360202
0.00365648
0.00371062
0.00376435
0.00381759
0.00387026
0.00392225
0.00397347
0.00402382
0.00407317
0.0041214
0.00416839
0.00421401
0.00425809
0.00430051
0.00434108
0.00437965
0.00441603
0.00445003
0.00448146
0.0045101
0.00453574
0.00455795
0.0045763
0.00459075
0.00460146
0.00460857
0.00461225
0.00461264
0.00460991
0.00460421
0.00459569
0.0045845
0.0045708
0.00455474
0.00453646
0.00451611
0.00449384
0.00446977
0.00444406
0.00441682
0.0043882
0.0043583
0.00432726
0.00429519
0.00426221
0.00422841
0.0041939
0.00415879
0.00412315
0.00408709
0.00405068
0.004014
0.00397713
0.00394014
0.00390308
0.00386601
0.00382898
0.00379204
0.00375523
0.00371857
0.0036821
0.00364583
0.00360977
0.00357392
0.00353829
0.00350286
0.00346761
0.00343251
0.00339752
0.00336261
0.00332771
0.00329278
0.00325774
0.00322252
0.00318704
0.00315122
0.00311496
0.00307817
0.00304076
0.00300263
0.00296368
0.00292382
0.00288295
0.00284098
0.00279784
0.00275345
0.00305334
0.00310777
0.00316241
0.00321722
0.00327218
0.00332723
0.00338233
0.00343742
0.00349244
0.00354734
0.00360206
0.00365652
0.00371065
0.00376439
0.00381763
0.0038703
0.00392229
0.00397351
0.00402386
0.00407321
0.00412145
0.00416844
0.00421405
0.00425814
0.00430056
0.00434114
0.0043797
0.00441609
0.00445009
0.00448152
0.00451016
0.00453581
0.00455802
0.00457638
0.00459084
0.00460155
0.00460867
0.00461236
0.00461276
0.00461004
0.00460436
0.00459585
0.00458468
0.004571
0.00455496
0.00453671
0.00451638
0.00449413
0.0044701
0.00444441
0.00441721
0.00438862
0.00435876
0.00432775
0.00429572
0.00426277
0.00422901
0.00419454
0.00415946
0.00412387
0.00408784
0.00405147
0.00401483
0.003978
0.00394103
0.003904
0.00386696
0.00382996
0.00379304
0.00375624
0.00371959
0.00368311
0.00364683
0.00361074
0.00357486
0.00353917
0.00350367
0.00346833
0.00343311
0.00339799
0.00336292
0.00332784
0.0032927
0.00325742
0.00322192
0.00318614
0.00314998
0.00311335
0.00307617
0.00303833
0.00299974
0.0029603
0.00291993
0.00287853
0.00283602
0.00279232
0.00274736
0.00289168
0.00294528
0.00299918
0.00305337
0.0031078
0.00316244
0.00321726
0.00327221
0.00332727
0.00338236
0.00343745
0.00349247
0.00354738
0.00360209
0.00365656
0.00371069
0.00376442
0.00381767
0.00387033
0.00392233
0.00397356
0.0040239
0.00407325
0.00412149
0.00416848
0.0042141
0.00425819
0.00430061
0.00434119
0.00437976
0.00441614
0.00445015
0.00448158
0.00451023
0.00453587
0.00455809
0.00457646
0.00459092
0.00460164
0.00460877
0.00461247
0.00461288
0.00461018
0.0046045
0.00459601
0.00458486
0.0045712
0.00455519
0.00453695
0.00451666
0.00449444
0.00447043
0.00444478
0.0044176
0.00438904
0.00435922
0.00432825
0.00429626
0.00426334
0.00422962
0.00419519
0.00416015
0.0041246
0.00408861
0.00405228
0.00401568
0.00397888
0.00394195
0.00390495
0.00386794
0.00383096
0.00379406
0.00375727
0.00372062
0.00368414
0.00364783
0.00361172
0.00357579
0.00354004
0.00350446
0.00346902
0.00343369
0.00339842
0.00336318
0.0033279
0.00329253
0.00325699
0.00322121
0.00318511
0.0031486
0.00311159
0.00307399
0.00303571
0.00299665
0.00295672
0.00291583
0.00287389
0.00283083
0.00278656
0.00274103
0.00289171
0.00294531
0.00299921
0.0030534
0.00310783
0.00316247
0.00321729
0.00327225
0.0033273
0.00338239
0.00343748
0.00349251
0.00354741
0.00360213
0.00365659
0.00371073
0.00376446
0.00381771
0.00387037
0.00392237
0.0039736
0.00402394
0.00407329
0.00412153
0.00416853
0.00421415
0.00425824
0.00430066
0.00434124
0.00437981
0.00441619
0.0044502
0.00448164
0.00451029
0.00453594
0.00455816
0.00457653
0.004591
0.00460173
0.00460887
0.00461257
0.004613
0.00461031
0.00460465
0.00459618
0.00458505
0.00457141
0.00455541
0.00453721
0.00451694
0.00449475
0.00447077
0.00444515
0.00441801
0.00438948
0.0043597
0.00432876
0.00429681
0.00426393
0.00423025
0.00419586
0.00416086
0.00412535
0.0040894
0.00405311
0.00401655
0.00397979
0.00394289
0.00390592
0.00386894
0.00383198
0.00379509
0.00375831
0.00372166
0.00368517
0.00364884
0.00361269
0.00357671
0.0035409
0.00350523
0.00346968
0.00343422
0.0033988
0.00336337
0.00332789
0.00329228
0.00325647
0.00322039
0.00318395
0.00314708
0.00310967
0.00307164
0.00303291
0.00299336
0.00295293
0.00291151
0.00286902
0.0028254
0.00278056
0.00273446
0.00289174
0.00294534
0.00299924
0.00305342
0.00310786
0.0031625
0.00321732
0.00327228
0.00332733
0.00338243
0.00343752
0.00349254
0.00354744
0.00360216
0.00365663
0.00371076
0.0037645
0.00381774
0.00387041
0.00392241
0.00397364
0.00402398
0.00407334
0.00412158
0.00416857
0.00421419
0.00425828
0.0043007
0.00434128
0.00437986
0.00441625
0.00445026
0.00448169
0.00451035
0.004536
0.00455823
0.0045766
0.00459108
0.00460182
0.00460896
0.00461268
0.00461312
0.00461044
0.0046048
0.00459635
0.00458524
0.00457162
0.00455565
0.00453747
0.00451722
0.00449506
0.00447112
0.00444553
0.00441842
0.00438993
0.00436018
0.00432929
0.00429737
0.00426454
0.0042309
0.00419655
0.00416159
0.00412612
0.00409022
0.00405396
0.00401744
0.00398071
0.00394385
0.00390692
0.00386995
0.00383302
0.00379614
0.00375937
0.00372272
0.00368621
0.00364986
0.00361366
0.00357763
0.00354174
0.00350597
0.0034703
0.0034347
0.00339911
0.0033635
0.00332779
0.00329192
0.00325583
0.00321943
0.00318265
0.00314539
0.00310758
0.00306911
0.00302991
0.00298987
0.00294891
0.00290696
0.00286392
0.00281973
0.00277432
0.00272764
0.00289176
0.00294536
0.00299927
0.00305345
0.00310788
0.00316253
0.00321735
0.00327231
0.00332736
0.00338246
0.00343755
0.00349257
0.00354748
0.0036022
0.00365666
0.0037108
0.00376453
0.00381778
0.00387045
0.00392245
0.00397367
0.00402402
0.00407338
0.00412162
0.00416861
0.00421423
0.00425833
0.00430075
0.00434133
0.00437991
0.0044163
0.00445031
0.00448175
0.00451041
0.00453606
0.0045583
0.00457668
0.00459116
0.0046019
0.00460906
0.00461279
0.00461324
0.00461058
0.00460495
0.00459652
0.00458542
0.00457183
0.00455588
0.00453773
0.00451752
0.00449538
0.00447147
0.00444591
0.00441885
0.00439039
0.00436068
0.00432983
0.00429795
0.00426516
0.00423156
0.00419725
0.00416234
0.00412691
0.00409105
0.00405484
0.00401835
0.00398166
0.00394484
0.00390793
0.00387099
0.00383407
0.00379721
0.00376044
0.00372378
0.00368725
0.00365087
0.00361463
0.00357853
0.00354255
0.00350668
0.00347089
0.00343513
0.00339937
0.00336354
0.0033276
0.00329146
0.00325507
0.00321834
0.0031812
0.00314355
0.00310531
0.00306639
0.0030267
0.00298616
0.00294467
0.00290217
0.00285858
0.00281382
0.00276784
0.00272058
0.00289179
0.00294539
0.0029993
0.00305348
0.00310791
0.00316256
0.00321738
0.00327234
0.00332739
0.00338249
0.00343758
0.00349261
0.00354751
0.00360223
0.0036567
0.00371084
0.00376457
0.00381782
0.00387049
0.00392249
0.00397371
0.00402406
0.00407342
0.00412166
0.00416866
0.00421428
0.00425837
0.00430079
0.00434138
0.00437996
0.00441635
0.00445036
0.0044818
0.00451046
0.00453613
0.00455836
0.00457675
0.00459124
0.00460199
0.00460916
0.0046129
0.00461336
0.00461071
0.0046051
0.00459669
0.00458562
0.00457205
0.00455612
0.004538
0.00451781
0.00449571
0.00447183
0.00444631
0.00441928
0.00439087
0.00436119
0.00433038
0.00429854
0.0042658
0.00423224
0.00419798
0.00416311
0.00412772
0.0040919
0.00405573
0.00401929
0.00398263
0.00394584
0.00390896
0.00387205
0.00383515
0.00379829
0.00376152
0.00372485
0.0036883
0.00365187
0.00361558
0.00357941
0.00354334
0.00350736
0.00347142
0.0034355
0.00339955
0.0033635
0.0033273
0.00329089
0.00325419
0.00321711
0.00317959
0.00314153
0.00310285
0.00306346
0.00302328
0.00298222
0.00294021
0.00289715
0.00285299
0.00280766
0.0027611
0.00271328
0.00289181
0.00294541
0.00299932
0.00305351
0.00310794
0.00316259
0.00321741
0.00327237
0.00332743
0.00338252
0.00343761
0.00349264
0.00354755
0.00360227
0.00365673
0.00371087
0.0037646
0.00381785
0.00387052
0.00392252
0.00397375
0.0040241
0.00407346
0.0041217
0.0041687
0.00421432
0.00425842
0.00430084
0.00434142
0.00438
0.0044164
0.00445041
0.00448186
0.00451052
0.00453619
0.00455843
0.00457682
0.00459132
0.00460208
0.00460925
0.004613
0.00461348
0.00461085
0.00460526
0.00459686
0.00458581
0.00457227
0.00455637
0.00453827
0.00451812
0.00449605
0.0044722
0.00444672
0.00441973
0.00439135
0.00436172
0.00433095
0.00429916
0.00426645
0.00423294
0.00419872
0.0041639
0.00412855
0.00409278
0.00405665
0.00402024
0.00398363
0.00394687
0.00391001
0.00387312
0.00383624
0.00379939
0.00376261
0.00372592
0.00368934
0.00365288
0.00361652
0.00358027
0.0035441
0.00350799
0.00347191
0.00343581
0.00339965
0.00336337
0.00332691
0.0032902
0.00325316
0.00321573
0.00317781
0.00313933
0.0031002
0.00306034
0.00301965
0.00297807
0.0029355
0.00289189
0.00284716
0.00280126
0.00275413
0.00270574
0.00289184
0.00294544
0.00299935
0.00305354
0.00310797
0.00316262
0.00321744
0.0032724
0.00332746
0.00338256
0.00343765
0.00349267
0.00354758
0.0036023
0.00365676
0.0037109
0.00376464
0.00381789
0.00387056
0.00392256
0.00397379
0.00402414
0.00407349
0.00412174
0.00416874
0.00421436
0.00425846
0.00430088
0.00434147
0.00438005
0.00441644
0.00445046
0.00448191
0.00451058
0.00453625
0.00455849
0.00457689
0.0045914
0.00460216
0.00460935
0.00461311
0.00461361
0.00461099
0.00460542
0.00459704
0.00458601
0.00457249
0.00455662
0.00453855
0.00451843
0.0044964
0.00447259
0.00444714
0.00442018
0.00439185
0.00436226
0.00433153
0.00429978
0.00426712
0.00423366
0.00419949
0.00416471
0.00412941
0.00409368
0.00405759
0.00402122
0.00398464
0.00394791
0.00391109
0.00387422
0.00383734
0.0038005
0.00376371
0.003727
0.00369039
0.00365387
0.00361744
0.0035811
0.00354482
0.00350857
0.00347233
0.00343604
0.00339966
0.00336313
0.00332639
0.00328937
0.00325199
0.00321418
0.00317586
0.00313695
0.00309735
0.00305699
0.00301579
0.00297368
0.00293056
0.00288639
0.00284109
0.00279461
0.00274691
0.00269795
0.00289186
0.00294547
0.00299938
0.00305357
0.003108
0.00316265
0.00321747
0.00327244
0.00332749
0.00338259
0.00343768
0.00349271
0.00354761
0.00360233
0.0036568
0.00371094
0.00376467
0.00381792
0.00387059
0.0039226
0.00397383
0.00402418
0.00407353
0.00412178
0.00416878
0.0042144
0.0042585
0.00430093
0.00434151
0.0043801
0.00441649
0.00445051
0.00448196
0.00451063
0.00453631
0.00455856
0.00457696
0.00459147
0.00460225
0.00460945
0.00461322
0.00461373
0.00461113
0.00460558
0.00459722
0.00458622
0.00457272
0.00455688
0.00453884
0.00451875
0.00449675
0.00447298
0.00444757
0.00442065
0.00439236
0.00436282
0.00433213
0.00430043
0.00426782
0.0042344
0.00420028
0.00416554
0.00413029
0.0040946
0.00405856
0.00402223
0.00398568
0.00394898
0.00391218
0.00387533
0.00383846
0.00380161
0.00376481
0.00372808
0.00369142
0.00365484
0.00361834
0.0035819
0.00354549
0.0035091
0.00347268
0.00343619
0.00339958
0.00336279
0.00332575
0.00328841
0.00325067
0.00321247
0.00317373
0.00313436
0.00309429
0.00305343
0.00301171
0.00296905
0.00292538
0.00288064
0.00283476
0.00278771
0.00273945
0.00268994
0.00289189
0.00294549
0.0029994
0.00305359
0.00310803
0.00316268
0.00321751
0.00327247
0.00332752
0.00338262
0.00343771
0.00349274
0.00354764
0.00360237
0.00365683
0.00371097
0.00376471
0.00381796
0.00387063
0.00392263
0.00397386
0.00402421
0.00407357
0.00412182
0.00416882
0.00421444
0.00425854
0.00430097
0.00434156
0.00438014
0.00441654
0.00445056
0.00448201
0.00451069
0.00453636
0.00455862
0.00457703
0.00459155
0.00460234
0.00460955
0.00461334
0.00461386
0.00461128
0.00460574
0.00459741
0.00458643
0.00457296
0.00455715
0.00453914
0.00451908
0.00449712
0.00447338
0.00444801
0.00442114
0.00439289
0.00436339
0.00433275
0.0043011
0.00426853
0.00423516
0.00420109
0.0041664
0.00413119
0.00409555
0.00405955
0.00402326
0.00398675
0.00395007
0.0039133
0.00387646
0.00383959
0.00380274
0.00376592
0.00372916
0.00369245
0.0036558
0.00361921
0.00358266
0.00354612
0.00350957
0.00347296
0.00343626
0.0033994
0.00336233
0.00332499
0.0032873
0.00324919
0.00321058
0.00317141
0.00313158
0.00309102
0.00304965
0.00300739
0.00296418
0.00291995
0.00287464
0.0028282
0.00278058
0.00273175
0.00268169
0.00289191
0.00294552
0.00299943
0.00305362
0.00310806
0.00316271
0.00321754
0.0032725
0.00332755
0.00338265
0.00343774
0.00349277
0.00354768
0.0036024
0.00365687
0.00371101