/*--------------------------------*- C++ -*----------------------------------*\
  =========                 |
  \\      /  F ield         | OpenFOAM: The Open Source CFD Toolbox
   \\    /   O peration     | Website:  https://openfoam.org
    \\  /    A nd           | Version:  10
     \\/     M anipulation  |
\*---------------------------------------------------------------------------*/
FoamFile
{
    format      ascii;
    class       volVectorField;
    location    "45000";
    object      Urel;
}
// * * * * * * * * * * * * * * * * * * * * * * * * * * * * * * * * * * * * * //

dimensions      [0 1 -1 0 0 0 0];

internalField   nonuniform List<vector> 
17808
(
(4.26768 -4.67932 -5.89872e-18)
(3.93602 -4.31088 -6.63221e-19)
(3.78695 -4.14683 4.29318e-18)
(3.68336 -4.03704 4.63786e-18)
(3.60546 -3.95192 -1.09162e-18)
(3.5422 -3.88318 -7.72669e-18)
(3.48905 -3.82515 3.89192e-18)
(3.44303 -3.77481 -4.14373e-18)
(3.40232 -3.7302 6.98895e-18)
(3.36572 -3.69002 -1.25001e-21)
(3.33238 -3.65337 -3.16776e-18)
(3.30167 -3.61959 2.26781e-18)
(3.27315 -3.58818 -3.25772e-18)
(3.24645 -3.55877 3.46961e-19)
(3.22132 -3.53107 0)
(3.19752 -3.50482 3.20613e-19)
(3.17488 -3.47984 -6.17869e-19)
(3.15326 -3.45598 -5.96129e-19)
(3.13253 -3.4331 -2.59044e-18)
(3.1126 -3.41109 2.14208e-21)
(3.09337 -3.38986 2.15825e-18)
(3.07478 -3.36932 0)
(3.05676 -3.34941 2.02717e-18)
(3.03926 -3.33007 -1.97047e-18)
(3.02222 -3.31125 1.91255e-18)
(3.00561 -3.29289 -2.32735e-18)
(2.98939 -3.27497 -4.52699e-19)
(2.97352 -3.25743 0)
(2.95798 -3.24025 -4.29524e-19)
(2.94273 -3.22341 -4.18663e-19)
(2.92776 -3.20686 1.63218e-18)
(2.91304 -3.1906 -1.19651e-18)
(2.89855 -3.17459 0)
(2.88428 -3.15882 0)
(2.8702 -3.14327 3.71041e-19)
(2.85631 -3.12793 1.81184e-18)
(2.84258 -3.11277 -1.06457e-18)
(2.82901 -3.09779 0)
(2.81558 -3.08296 -1.35457e-18)
(2.80229 -3.06829 2.45257e-21)
(2.78911 -3.05375 1.9477e-18)
(2.77605 -3.03934 1.9035e-18)
(2.76309 -3.02504 -1.24412e-18)
(2.75023 -3.01086 6.0826e-19)
(2.73745 -2.99677 0)
(2.72475 -2.98277 -5.83e-19)
(2.71212 -2.96885 1.7113e-18)
(2.69956 -2.955 -2.23716e-18)
(2.68705 -2.94123 5.47375e-19)
(2.6746 -2.92751 0)
(2.6622 -2.91386 0)
(2.64983 -2.90024 1.54073e-18)
(2.6375 -2.88667 -5.0464e-19)
(2.62521 -2.87314 0)
(2.61294 -2.85964 4.82586e-19)
(2.60068 -2.84617 4.72519e-19)
(2.58845 -2.83272 -4.6261e-19)
(2.57623 -2.81928 -4.52856e-19)
(2.56401 -2.80585 -4.43281e-19)
(2.5518 -2.79244 8.66405e-19)
(2.53959 -2.77902 -1.31724e-21)
(2.52738 -2.76561 8.29607e-19)
(2.51515 -2.75218 -8.1431e-19)
(2.50292 -2.73875 -7.95282e-19)
(2.49067 -2.72531 -1.55433e-18)
(2.4784 -2.71184 7.60634e-19)
(2.46611 -2.69836 -1.48877e-18)
(2.45379 -2.68484 1.45405e-18)
(2.44144 -2.6713 0)
(2.42906 -2.65773 6.94365e-19)
(2.41665 -2.64412 1.35537e-18)
(2.40419 -2.63047 -6.65313e-19)
(2.39169 -2.61677 -6.4842e-19)
(2.37915 -2.60303 6.31753e-19)
(2.36656 -2.58923 -1.35539e-21)
(2.35391 -2.57538 -1.80528e-18)
(2.34121 -2.56147 1.17554e-18)
(2.32846 -2.5475 0)
(2.31563 -2.53347 -5.59747e-19)
(2.30275 -2.51936 -1.63443e-18)
(2.2898 -2.50519 0)
(2.27677 -2.49093 0)
(2.26367 -2.4766 1.00707e-18)
(2.25049 -2.46218 0)
(2.23723 -2.44768 9.5476e-19)
(2.22389 -2.43309 0)
(2.21046 -2.4184 -1.8119e-23)
(2.19694 -2.40362 0)
(2.18332 -2.38873 0)
(2.1696 -2.37374 8.31415e-19)
(2.15579 -2.35864 1.61609e-18)
(2.14186 -2.34342 1.57019e-18)
(4.25358 -4.68003 -6.60827e-19)
(3.92655 -4.31167 6.53542e-19)
(3.77697 -4.15071 0)
(3.67503 -4.04089 0)
(3.59782 -3.95629 1.08947e-18)
(3.53486 -3.88811 -5.12417e-19)
(3.48186 -3.83055 3.86668e-18)
(3.4359 -3.78061 -3.19946e-18)
(3.3952 -3.73632 -4.33275e-19)
(3.35857 -3.6964 3.29148e-18)
(3.32519 -3.65996 -3.5286e-18)
(3.29445 -3.62634 7.48451e-19)
(3.26589 -3.59506 3.57986e-19)
(3.23916 -3.56574 -3.43137e-19)
(3.214 -3.53811 0)
(3.19018 -3.51191 -3.16925e-19)
(3.16752 -3.48697 3.05302e-19)
(3.14588 -3.46313 2.94522e-19)
(3.12515 -3.44027 0)
(3.10521 -3.41826 0)
(3.08598 -3.39703 0)
(3.06739 -3.37649 -5.16321e-19)
(3.04937 -3.35657 0)
(3.03188 -3.33722 -4.86367e-19)
(3.01485 -3.31838 0)
(2.99824 -3.30001 4.59656e-19)
(2.98203 -3.28206 4.47389e-19)
(2.96617 -3.2645 0)
(2.95064 -3.2473 -1.6969e-18)
(2.93541 -3.23043 4.16202e-19)
(2.92045 -3.21386 1.21231e-18)
(2.90575 -3.19757 -3.93993e-19)
(2.89128 -3.18154 1.53759e-18)
(2.87702 -3.16574 -3.38168e-18)
(2.86296 -3.15017 1.10258e-18)
(2.84909 -3.13479 -3.58845e-19)
(2.83538 -3.11961 -7.01742e-19)
(2.82183 -3.10459 0)
(2.80842 -3.08974 0)
(2.79515 -3.07504 1.64113e-18)
(2.78199 -3.06047 -1.28709e-18)
(2.76895 -3.04603 -4.41308e-23)
(2.75602 -3.0317 -6.16173e-19)
(2.74317 -3.01748 -1.20662e-18)
(2.73042 -3.00336 -5.89578e-19)
(2.71774 -2.98933 1.73715e-18)
(2.70514 -2.97538 -1.13223e-18)
(2.6926 -2.96151 1.6667e-18)
(2.68012 -2.9477 -1.63013e-18)
(2.66769 -2.93396 1.06671e-18)
(2.65531 -2.92027 -1.04245e-18)
(2.64298 -2.90663 1.02376e-18)
(2.63067 -2.89303 -5.00831e-19)
(2.6184 -2.87946 0)
(2.60616 -2.86593 -4.80583e-19)
(2.59393 -2.85243 0)
(2.58173 -2.83894 0)
(2.56953 -2.82548 4.51547e-19)
(2.55734 -2.81202 1.32492e-21)
(2.54516 -2.79857 8.67284e-19)
(2.53298 -2.78513 -8.4783e-19)
(2.52079 -2.77168 8.2999e-19)
(2.5086 -2.75823 0)
(2.49639 -2.74476 0)
(2.48417 -2.73129 1.55475e-18)
(2.47193 -2.71779 -7.61238e-19)
(2.45967 -2.70428 1.49067e-18)
(2.44738 -2.69073 -1.365e-21)
(2.43506 -2.67716 -7.13536e-19)
(2.42271 -2.66355 0)
(2.41033 -2.64991 -1.35984e-18)
(2.3979 -2.63623 2.6605e-18)
(2.38544 -2.6225 -2.72713e-21)
(2.37293 -2.60873 -2.72945e-21)
(2.36036 -2.5949 -1.35786e-21)
(2.34775 -2.58102 6.03953e-19)
(2.33508 -2.56708 -1.18312e-18)
(2.32236 -2.55308 5.76635e-19)
(2.30957 -2.53901 1.12384e-18)
(2.29672 -2.52487 -5.50124e-19)
(2.2838 -2.51066 5.33753e-19)
(2.2708 -2.49638 -1.56639e-18)
(2.25774 -2.48201 1.52394e-18)
(2.24459 -2.46757 -2.72077e-21)
(2.23137 -2.45303 -9.65105e-19)
(2.21806 -2.4384 4.71268e-19)
(2.20466 -2.42368 -1.82989e-18)
(2.19117 -2.40887 0)
(2.17759 -2.39394 0)
(2.16391 -2.37892 -1.68548e-18)
(2.15013 -2.36378 -1.2279e-18)
(2.13624 -2.34853 -7.93979e-19)
(4.24031 -4.68642 1.32166e-18)
(3.91347 -4.3182 1.04411e-17)
(3.76392 -4.15775 -1.9647e-17)
(3.66352 -4.04701 9.23897e-18)
(3.58692 -3.96256 -5.41682e-19)
(3.5246 -3.89445 0)
(3.47213 -3.83696 0)
(3.4266 -3.7871 0)
(3.38624 -3.74292 -6.43679e-18)
(3.34988 -3.70311 6.52258e-18)
(3.3167 -3.66677 3.87822e-19)
(3.28612 -3.63324 1.18243e-22)
(3.25768 -3.60204 5.65998e-18)
(3.23106 -3.57279 -1.11888e-17)
(3.20597 -3.54521 5.2094e-18)
(3.18221 -3.51906 4.69222e-18)
(3.1596 -3.49416 -4.52308e-18)
(3.13801 -3.47035 0)
(3.11731 -3.4475 0)
(3.0974 -3.42551 0)
(3.0782 -3.40428 0)
(3.05963 -3.38374 1.01896e-18)
(3.04163 -3.36382 0)
(3.02416 -3.34447 4.79907e-19)
(3.00715 -3.32562 0)
(2.99057 -3.30723 -4.53567e-19)
(2.97437 -3.28927 0)
(2.95854 -3.27169 1.71844e-18)
(2.94303 -3.25447 -1.67682e-18)
(2.92781 -3.23758 4.08464e-19)
(2.91288 -3.22099 -3.98482e-19)
(2.89819 -3.20468 1.94358e-18)
(2.88374 -3.18862 -2.30171e-21)
(2.86951 -3.1728 -1.11418e-18)
(2.85547 -3.1572 1.08656e-18)
(2.84161 -3.1418 -1.0645e-18)
(2.82793 -3.12659 3.4663e-19)
(2.8144 -3.11155 0)
(2.80102 -3.09667 0)
(2.78776 -3.08193 -1.94687e-18)
(2.77463 -3.06734 2.40743e-21)
(2.76162 -3.05287 2.38518e-21)
(2.74871 -3.03851 1.82951e-18)
(2.73589 -3.02426 -1.1925e-18)
(2.72316 -3.01012 5.85865e-19)
(2.71051 -2.99605 0)
(2.69793 -2.98208 0)
(2.68542 -2.96817 0)
(2.67296 -2.95434 1.26088e-21)
(2.66056 -2.94056 5.29152e-19)
(2.64821 -2.92684 0)
(2.6359 -2.91317 5.06889e-19)
(2.62362 -2.89954 -9.92162e-19)
(2.61138 -2.88594 1.4615e-18)
(2.59916 -2.87238 9.52598e-19)
(2.58696 -2.85885 -9.35947e-19)
(2.57479 -2.84533 -9.14446e-19)
(2.56262 -2.83183 4.49894e-19)
(2.55046 -2.81835 -4.39451e-19)
(2.53831 -2.80487 4.30444e-19)
(2.52615 -2.79139 8.43207e-19)
(2.514 -2.77791 -8.25767e-19)
(2.50183 -2.76443 0)
(2.48966 -2.75093 0)
(2.47746 -2.73743 -1.9614e-23)
(2.46526 -2.7239 -1.51566e-18)
(2.45302 -2.71035 7.43614e-19)
(2.44077 -2.69678 -7.24912e-19)
(2.42848 -2.68317 2.13141e-18)
(2.41616 -2.66954 -1.36039e-21)
(2.40381 -2.65586 6.79516e-19)
(2.39142 -2.64215 -6.64361e-19)
(2.37898 -2.62839 0)
(2.3665 -2.61458 0)
(2.35397 -2.60072 0)
(2.34139 -2.58681 6.04282e-19)
(2.32876 -2.57284 -5.92814e-19)
(2.31607 -2.5588 -5.77462e-19)
(2.30331 -2.5447 0)
(2.29049 -2.53053 0)
(2.27761 -2.51629 -1.60838e-18)
(2.26465 -2.50197 2.61807e-18)
(2.25162 -2.48757 -1.71665e-23)
(2.23851 -2.47309 0)
(2.22532 -2.45852 -4.83374e-19)
(2.21204 -2.44386 2.72548e-21)
(2.19868 -2.42911 4.61332e-19)
(2.18523 -2.41426 -8.95701e-19)
(2.17168 -2.3993 -8.7188e-19)
(2.15804 -2.38424 1.27133e-18)
(2.1443 -2.36907 -2.69981e-21)
(2.13045 -2.35379 4.00027e-19)
(4.22877 -4.69596 9.25321e-18)
(3.90163 -4.32763 9.76528e-18)
(3.75251 -4.16642 -1.03989e-17)
(3.6528 -4.055 5.74356e-19)
(3.57628 -3.97055 0)
(3.51427 -3.90223 0)
(3.46208 -3.8446 0)
(3.41679 -3.79465 7.18546e-18)
(3.37666 -3.7504 -1.36025e-17)
(3.34051 -3.71054 1.29066e-17)
(3.30752 -3.67417 -6.14119e-18)
(3.27711 -3.64063 5.48634e-18)
(3.24882 -3.60942 -5.59751e-18)
(3.22232 -3.58017 3.34905e-19)
(3.19734 -3.5526 5.46193e-18)
(3.17368 -3.52645 -4.63677e-18)
(3.15115 -3.50155 4.758e-18)
(3.12963 -3.47775 -2.91132e-19)
(3.10899 -3.4549 -4.43468e-18)
(3.08914 -3.43291 -2.6787e-19)
(3.06999 -3.41168 0)
(3.05147 -3.39114 -1.00512e-18)
(3.03352 -3.37122 0)
(3.01608 -3.35185 0)
(2.9991 -3.33299 -4.13771e-18)
(2.98255 -3.31459 3.58111e-18)
(2.96639 -3.29662 0)
(2.95059 -3.27903 0)
(2.9351 -3.26179 0)
(2.91992 -3.24488 -8.06e-19)
(2.90501 -3.22827 3.93197e-19)
(2.89035 -3.21194 0)
(2.87593 -3.19586 0)
(2.86172 -3.18001 0)
(2.84771 -3.16439 -2.14524e-18)
(2.83388 -3.14896 3.15191e-18)
(2.82022 -3.13372 0)
(2.80672 -3.11866 0)
(2.79336 -3.10375 0)
(2.78013 -3.08899 2.88477e-18)
(2.76703 -3.07437 -4.75562e-21)
(2.75404 -3.05987 -6.15159e-18)
(2.74115 -3.04549 4.21766e-18)
(2.72836 -3.03121 -1.77314e-18)
(2.71566 -3.01703 0)
(2.70303 -3.00294 5.66647e-19)
(2.69048 -2.98893 2.21877e-18)
(2.678 -2.975 -2.17939e-18)
(2.66557 -2.96113 -5.33422e-19)
(2.6532 -2.94733 2.61166e-18)
(2.64087 -2.93358 -1.02872e-18)
(2.62859 -2.91987 -1.0072e-18)
(2.61634 -2.90621 -9.86069e-19)
(2.60413 -2.89259 -1.27776e-21)
(2.59194 -2.879 -1.42055e-18)
(2.57977 -2.86543 0)
(2.56762 -2.85188 4.53186e-19)
(2.55549 -2.83835 -8.92082e-19)
(2.54336 -2.82484 -1.30812e-18)
(2.53123 -2.81133 4.28992e-19)
(2.51911 -2.79782 8.3808e-19)
(2.50698 -2.78431 1.31071e-21)
(2.49485 -2.77079 2.64683e-21)
(2.48271 -2.75727 7.89048e-19)
(2.47055 -2.74373 -7.71418e-19)
(2.45837 -2.73017 7.55311e-19)
(2.44617 -2.71659 0)
(2.43394 -2.70298 -7.22443e-19)
(2.42169 -2.68934 -7.05649e-19)
(2.4094 -2.67568 1.34175e-21)
(2.39708 -2.66197 -1.35471e-18)
(2.38472 -2.64822 1.32769e-18)
(2.37232 -2.63443 0)
(2.35988 -2.62059 -1.3592e-21)
(2.34738 -2.6067 -1.24079e-18)
(2.33483 -2.59275 6.05595e-19)
(2.32223 -2.57875 5.91671e-19)
(2.30958 -2.56468 5.77905e-19)
(2.29686 -2.55055 0)
(2.28407 -2.53634 0)
(2.27122 -2.52207 1.07545e-18)
(2.2583 -2.50772 -2.09872e-18)
(2.2453 -2.49328 -1.02364e-18)
(2.23223 -2.47877 9.98262e-19)
(2.21908 -2.46416 1.45852e-18)
(2.20584 -2.44947 4.72935e-19)
(2.19251 -2.43468 9.24344e-19)
(2.1791 -2.41979 4.48856e-19)
(2.16559 -2.4048 8.74146e-19)
(2.15198 -2.38971 -4.282e-19)
(2.13828 -2.3745 4.14074e-19)
(2.12447 -2.35918 -2.72581e-21)
(4.21677 -4.70604 1.1225e-17)
(3.88982 -4.33765 -1.03935e-17)
(3.74146 -4.17547 -9.13195e-18)
(3.64216 -4.06373 1.71304e-17)
(3.56579 -3.97916 -8.02803e-18)
(3.50404 -3.9106 8.52986e-18)
(3.45203 -3.85283 -1.50997e-17)
(3.4069 -3.80276 4.34369e-21)
(3.36692 -3.75842 6.73342e-18)
(3.33091 -3.71848 0)
(3.29805 -3.68204 0)
(3.26775 -3.64845 -3.61609e-19)
(3.23958 -3.6172 -3.4548e-19)
(3.21318 -3.58792 3.30775e-19)
(3.1883 -3.56031 4.58983e-23)
(3.16473 -3.53414 -3.04963e-19)
(3.14229 -3.50923 -5.87118e-19)
(3.12085 -3.4854 -2.63672e-23)
(3.10028 -3.46254 0)
(3.08049 -3.44054 2.64182e-19)
(3.0614 -3.4193 4.08933e-18)
(3.04294 -3.39874 -3.47122e-18)
(3.02504 -3.3788 0)
(3.00764 -3.35942 4.19851e-18)
(2.99072 -3.34055 -3.17713e-18)
(2.97421 -3.32213 -3.52684e-18)
(2.95809 -3.30414 3.43698e-18)
(2.94232 -3.28653 4.1818e-19)
(2.92687 -3.26928 0)
(2.91172 -3.25235 3.97463e-19)
(2.89685 -3.23572 0)
(2.88222 -3.21936 0)
(2.86783 -3.20326 -2.95597e-18)
(2.85365 -3.18739 2.53149e-18)
(2.83967 -3.17174 -7.064e-19)
(2.82587 -3.15629 -2.76082e-18)
(2.81224 -3.14103 2.36734e-18)
(2.79877 -3.12594 -3.30601e-19)
(2.78544 -3.111 -2.58646e-18)
(2.77224 -3.09622 2.53689e-18)
(2.75917 -3.08157 -2.47969e-18)
(2.74621 -3.06704 3.0413e-18)
(2.73335 -3.05263 -2.37934e-18)
(2.72059 -3.03832 4.77831e-21)
(2.70791 -3.02412 4.00222e-18)
(2.69532 -3.01 -2.80429e-18)
(2.68279 -2.99596 0)
(2.67034 -2.982 2.15141e-18)
(2.65794 -2.9681 -2.11405e-18)
(2.6456 -2.95427 0)
(2.6333 -2.94048 -5.07454e-19)
(2.62105 -2.92675 9.95132e-19)
(2.60883 -2.91306 -1.94895e-18)
(2.59665 -2.8994 4.30521e-18)
(2.58449 -2.88578 -1.40959e-18)
(2.57235 -2.87218 -4.59851e-19)
(2.56023 -2.8586 2.2517e-18)
(2.54813 -2.84504 8.78848e-19)
(2.53603 -2.83149 4.28122e-19)
(2.52394 -2.81795 -5.19495e-21)
(2.51184 -2.80441 -4.99526e-18)
(2.49975 -2.79087 -8.10685e-19)
(2.48765 -2.77732 5.26109e-21)
(2.47553 -2.76376 1.56936e-18)
(2.46341 -2.75019 -2.29962e-18)
(2.45126 -2.7366 -1.4981e-18)
(2.43909 -2.72299 4.00963e-21)
(2.4269 -2.70935 7.22226e-19)
(2.41468 -2.69568 -7.04433e-19)
(2.40243 -2.68198 1.38306e-18)
(2.39014 -2.66824 0)
(2.37782 -2.65446 -1.32182e-18)
(2.36545 -2.64063 6.48571e-19)
(2.35304 -2.62676 1.36873e-21)
(2.34058 -2.61283 1.23939e-18)
(2.32807 -2.59885 -6.05176e-19)
(2.3155 -2.58481 0)
(2.30288 -2.57071 -1.156e-18)
(2.29019 -2.55654 0)
(2.27745 -2.54231 -1.103e-18)
(2.26463 -2.528 0)
(2.25174 -2.51361 5.27072e-19)
(2.23879 -2.49914 5.14403e-19)
(2.22575 -2.48459 -1.50026e-18)
(2.21263 -2.46995 -4.86859e-19)
(2.19943 -2.45522 -1.42686e-18)
(2.18615 -2.4404 -4.62721e-19)
(2.17277 -2.42548 9.04595e-19)
(2.1593 -2.41045 -4.3929e-19)
(2.14573 -2.39532 8.61143e-19)
(2.13207 -2.38008 -4.16554e-19)
(2.1183 -2.36472 -1.22183e-18)
(4.20406 -4.71637 0)
(3.87748 -4.34783 0)
(3.72993 -4.18477 9.09231e-18)
(3.63092 -4.07284 -4.50563e-21)
(3.5548 -3.98806 -9.03418e-18)
(3.49334 -3.9193 7.46473e-18)
(3.44153 -3.8614 -7.01591e-18)
(3.39658 -3.81122 0)
(3.35676 -3.76677 -4.1631e-19)
(3.3209 -3.72675 -6.70413e-18)
(3.28818 -3.69025 6.00046e-18)
(3.25801 -3.65659 7.14376e-19)
(3.22994 -3.62529 3.41095e-19)
(3.20365 -3.59596 -5.87482e-18)
(3.17887 -3.56832 4.6991e-18)
(3.15539 -3.54212 3.00845e-19)
(3.13304 -3.51717 2.89555e-19)
(3.11168 -3.49332 5.02236e-18)
(3.09118 -3.47043 -4.25494e-21)
(3.07147 -3.4484 -8.33549e-18)
(3.05244 -3.42714 4.03584e-18)
(3.03404 -3.40656 0)
(3.0162 -3.3866 -3.78885e-18)
(2.99886 -3.3672 4.29497e-21)
(2.98198 -3.3483 3.57888e-18)
(2.96552 -3.32987 4.34839e-19)
(2.94945 -3.31186 3.3837e-18)
(2.93372 -3.29423 -7.42028e-18)
(2.91832 -3.27695 6.4287e-18)
(2.90321 -3.26 -4.37288e-21)
(2.88838 -3.24334 -3.4436e-18)
(2.87379 -3.22697 0)
(2.85943 -3.21084 0)
(2.84529 -3.19495 3.56374e-19)
(2.83134 -3.17928 3.48409e-19)
(2.81758 -3.1638 -6.81492e-19)
(2.80398 -3.14851 9.7243e-24)
(2.79054 -3.13339 3.2627e-19)
(2.77724 -3.11843 0)
(2.76408 -3.10362 -2.81258e-18)
(2.75104 -3.08894 1.84039e-18)
(2.73811 -3.07439 -2.39863e-18)
(2.72528 -3.05995 2.94314e-18)
(2.71255 -3.04561 2.30334e-18)
(2.69991 -3.03138 -2.26241e-18)
(2.68734 -3.01723 0)
(2.67485 -3.00316 0)
(2.66243 -2.98917 0)
(2.65006 -2.97524 0)
(2.63775 -2.96138 -5.12103e-19)
(2.62548 -2.94756 -1.50427e-18)
(2.61326 -2.9338 1.48023e-18)
(2.60107 -2.92008 0)
(2.58892 -2.90639 -4.73843e-19)
(2.57679 -2.89273 -1.85646e-18)
(2.56469 -2.87911 2.28155e-18)
(2.5526 -2.8655 4.47014e-19)
(2.54053 -2.8519 -1.20009e-23)
(2.52846 -2.83832 4.2988e-19)
(2.5164 -2.82475 0)
(2.50434 -2.81117 8.26584e-19)
(2.49228 -2.7976 0)
(2.48021 -2.78402 0)
(2.46813 -2.77043 -2.33309e-18)
(2.45604 -2.75682 3.8151e-18)
(2.44393 -2.7432 -7.50304e-19)
(2.43179 -2.72955 7.32533e-19)
(2.41964 -2.71588 0)
(2.40745 -2.70218 7.02799e-19)
(2.39523 -2.68844 6.85528e-19)
(2.38298 -2.67467 -2.69527e-18)
(2.37069 -2.66085 1.32188e-18)
(2.35836 -2.647 0)
(2.34598 -2.63309 0)
(2.33356 -2.61913 6.17917e-19)
(2.32108 -2.60511 0)
(2.30855 -2.59104 5.90958e-19)
(2.29597 -2.5769 -5.74979e-19)
(2.28332 -2.5627 1.13203e-18)
(2.27061 -2.54843 -5.50335e-19)
(2.25783 -2.53408 1.61826e-18)
(2.24498 -2.51966 0)
(2.23206 -2.50516 -5.12542e-19)
(2.21906 -2.49057 5.03012e-19)
(2.20599 -2.4759 0)
(2.19282 -2.46113 -4.7892e-19)
(2.17958 -2.44627 1.39586e-18)
(2.16624 -2.43131 0)
(2.15281 -2.41625 0)
(2.13928 -2.40108 -1.29258e-18)
(2.12566 -2.3858 2.10223e-18)
(2.11193 -2.3704 8.18393e-19)
(4.19096 -4.72721 0)
(3.86484 -4.35834 -6.46209e-19)
(3.71807 -4.19448 6.03403e-19)
(3.61927 -4.08239 5.64175e-19)
(3.54343 -3.99735 7.90841e-18)
(3.48221 -3.9284 -7.89966e-18)
(3.43059 -3.87036 1.21035e-22)
(3.38583 -3.82005 -6.97391e-18)
(3.34618 -3.7755 7.00143e-18)
(3.31047 -3.73539 -6.23713e-18)
(3.27788 -3.6988 1.18526e-17)
(3.24784 -3.66507 -3.57105e-19)
(3.2199 -3.6337 -4.36546e-21)
(3.19372 -3.60432 -5.15746e-18)
(3.16904 -3.57662 0)
(3.14566 -3.55038 0)
(3.1234 -3.52539 4.56663e-18)
(3.10212 -3.5015 -9.08198e-18)
(3.08171 -3.47858 4.25238e-18)
(3.06206 -3.45652 -4.1059e-18)
(3.04311 -3.43522 3.97765e-18)
(3.02478 -3.41461 0)
(3.007 -3.39463 -3.73372e-18)
(2.98972 -3.3752 2.72236e-18)
(2.9729 -3.35628 3.52241e-18)
(2.9565 -3.33782 -3.85851e-18)
(2.94047 -3.31978 0)
(2.9248 -3.30212 4.06243e-19)
(2.90944 -3.28482 0)
(2.89438 -3.26784 0)
(2.87959 -3.25117 3.7689e-19)
(2.86504 -3.23476 -2.94181e-18)
(2.85073 -3.21861 2.87818e-18)
(2.83662 -3.20269 -2.45728e-18)
(2.82272 -3.18699 2.75056e-18)
(2.80899 -3.17149 6.72077e-19)
(2.79543 -3.15618 -2.29944e-18)
(2.78203 -3.14103 4.82776e-18)
(2.76877 -3.12604 -2.52332e-18)
(2.75564 -3.1112 3.08645e-19)
(2.74263 -3.0965 1.20943e-18)
(2.72973 -3.08191 -2.36785e-18)
(2.71694 -3.06745 1.7445e-18)
(2.70424 -3.05308 0)
(2.69163 -3.03882 1.11623e-18)
(2.6791 -3.02464 0)
(2.66664 -3.01054 1.60769e-18)
(2.65425 -2.99652 -5.31144e-19)
(2.64192 -2.98256 -2.06762e-18)
(2.62964 -2.96867 5.06476e-19)
(2.61741 -2.95482 0)
(2.60522 -2.94103 0)
(2.59306 -2.92727 0)
(2.58094 -2.91355 4.69154e-19)
(2.56885 -2.89987 -1.83858e-18)
(2.55678 -2.88621 3.6124e-18)
(2.54472 -2.87256 -3.98687e-18)
(2.53268 -2.85894 -4.29512e-19)
(2.52065 -2.84533 8.55096e-19)
(2.50863 -2.83172 -1.66994e-18)
(2.4966 -2.81811 5.13785e-21)
(2.48457 -2.8045 1.6113e-18)
(2.47254 -2.79089 7.88754e-19)
(2.46049 -2.77727 7.73387e-19)
(2.44843 -2.76363 0)
(2.43636 -2.74997 2.22703e-18)
(2.42426 -2.73629 -5.28116e-21)
(2.41214 -2.72258 -1.43033e-18)
(2.39999 -2.70885 -6.99433e-19)
(2.3878 -2.69508 0)
(2.37559 -2.68127 0)
(2.36333 -2.66742 -6.572e-19)
(2.35104 -2.65353 0)
(2.3387 -2.63958 -6.29872e-19)
(2.32631 -2.62559 -1.84664e-18)
(2.31387 -2.61154 6.08615e-19)
(2.30138 -2.59743 -5.84605e-19)
(2.28883 -2.58326 1.1569e-18)
(2.27622 -2.56902 -5.64264e-19)
(2.26355 -2.55471 1.10321e-18)
(2.25081 -2.54033 -1.07817e-18)
(2.238 -2.52587 0)
(2.22512 -2.51133 0)
(2.21216 -2.49671 1.00482e-18)
(2.19912 -2.482 0)
(2.186 -2.4672 9.57446e-19)
(2.1728 -2.4523 -1.8684e-18)
(2.1595 -2.4373 0)
(2.14611 -2.4222 8.88637e-19)
(2.13263 -2.40699 0)
(2.11904 -2.39167 -8.44336e-19)
(2.10535 -2.37624 0)
(4.17748 -4.73857 1.11993e-17)
(3.85196 -4.36923 1.15938e-17)
(3.70594 -4.20464 -1.92179e-17)
(3.60734 -4.09236 4.43386e-21)
(3.53179 -4.00705 9.422e-18)
(3.47079 -3.93792 -8.3147e-18)
(3.41936 -3.87972 -4.54034e-19)
(3.37476 -3.82928 6.90477e-18)
(3.33526 -3.7846 6.91824e-18)
(3.29969 -3.74439 -1.19455e-17)
(3.26724 -3.70771 3.70286e-19)
(3.23731 -3.67389 5.22564e-18)
(3.20948 -3.64245 0)
(3.18341 -3.613 3.17834e-19)
(3.15884 -3.58524 3.04687e-19)
(3.13555 -3.55894 0)
(3.11338 -3.5339 4.50172e-18)
(3.09219 -3.50996 -4.24343e-21)
(3.07186 -3.48699 -3.92884e-18)
(3.05229 -3.46489 2.53004e-19)
(3.03342 -3.44356 0)
(3.01515 -3.42292 -3.31825e-18)
(2.99744 -3.40289 3.22237e-18)
(2.98023 -3.38343 -2.44771e-23)
(2.96347 -3.36448 -3.46987e-18)
(2.94712 -3.34599 3.801e-18)
(2.93116 -3.32792 0)
(2.91554 -3.31023 0)
(2.90023 -3.2929 -2.72857e-18)
(2.88522 -3.2759 4.27772e-21)
(2.87047 -3.25919 2.97293e-18)
(2.85598 -3.24276 0)
(2.84171 -3.22658 -2.83204e-18)
(2.82765 -3.21064 2.42619e-18)
(2.81378 -3.19491 -2.3682e-18)
(2.8001 -3.17938 2.32108e-18)
(2.78658 -3.16404 -3.24193e-19)
(2.77321 -3.14886 -2.2194e-18)
(2.75999 -3.13385 2.48862e-18)
(2.7469 -3.11898 0)
(2.73393 -3.10424 2.38412e-18)
(2.72107 -3.08963 -2.34106e-18)
(2.70832 -3.07513 0)
(2.69565 -3.06074 0)
(2.68308 -3.04644 -2.75298e-18)
(2.67058 -3.03223 1.62371e-18)
(2.65816 -3.01811 2.64835e-18)
(2.6458 -3.00405 -3.64049e-18)
(2.63351 -2.99007 2.04336e-18)
(2.62126 -2.97614 0)
(2.60906 -2.96226 0)
(2.59691 -2.94844 2.40796e-18)
(2.58479 -2.93465 -1.89475e-18)
(2.57271 -2.9209 -4.64254e-19)
(2.56065 -2.90718 0)
(2.54861 -2.89349 -2.23305e-18)
(2.53659 -2.87981 4.98269e-21)
(2.52459 -2.86615 1.29416e-18)
(2.51259 -2.85251 2.53234e-18)
(2.5006 -2.83887 -2.07518e-18)
(2.48861 -2.82523 8.13399e-19)
(2.47662 -2.81159 0)
(2.46462 -2.79794 -1.63257e-23)
(2.45261 -2.78428 0)
(2.44058 -2.77061 7.52974e-19)
(2.42854 -2.75691 7.35752e-19)
(2.41648 -2.7432 -1.45053e-18)
(2.40439 -2.72946 7.09711e-19)
(2.39228 -2.71569 6.95643e-19)
(2.38014 -2.70188 6.81742e-19)
(2.36796 -2.68804 -1.33335e-18)
(2.35574 -2.67416 1.96597e-18)
(2.34348 -2.66023 0)
(2.33118 -2.64625 6.27733e-19)
(2.31883 -2.63222 -6.14596e-19)
(2.30643 -2.61813 -1.20324e-18)
(2.29398 -2.60399 -5.88778e-19)
(2.28147 -2.58978 0)
(2.2689 -2.5755 5.63539e-19)
(2.25627 -2.56116 0)
(2.24357 -2.54674 1.07769e-18)
(2.2308 -2.53225 0)
(2.21796 -2.51767 0)
(2.20504 -2.50301 -1.00299e-18)
(2.19204 -2.48826 2.76745e-21)
(2.17896 -2.47342 9.59172e-19)
(2.1658 -2.45848 1.25017e-23)
(2.15255 -2.44344 -9.1375e-19)
(2.1392 -2.42831 -8.91484e-19)
(2.12576 -2.41306 -1.7362e-18)
(2.11221 -2.3977 8.50573e-19)
(2.09857 -2.38223 0)
(4.16358 -4.75036 -1.11849e-17)
(3.83877 -4.38044 9.63505e-18)
(3.69347 -4.21518 0)
(3.59509 -4.10267 8.90811e-18)
(3.51984 -4.01709 -9.34676e-18)
(3.45905 -3.94778 -7.63184e-23)
(3.4078 -3.88943 6.80847e-18)
(3.36338 -3.83884 -4.52965e-21)
(3.32402 -3.79404 -7.24502e-18)
(3.28858 -3.75372 0)
(3.25625 -3.71694 -3.61159e-19)
(3.22645 -3.68304 -5.49653e-18)
(3.19873 -3.65152 5.24755e-18)
(3.17276 -3.62199 0)
(3.14828 -3.59416 -3.00359e-19)
(3.12509 -3.5678 -2.88415e-19)
(3.10301 -3.5427 0)
(3.0819 -3.5187 -4.00689e-18)
(3.06165 -3.49569 7.99485e-18)
(3.04217 -3.47354 -8.22385e-18)
(3.02336 -3.45216 7.71597e-18)
(3.00517 -3.43147 -4.71326e-19)
(2.98753 -3.41141 -3.1735e-18)
(2.97038 -3.39191 4.39815e-19)
(2.95369 -3.37292 0)
(2.9374 -3.35439 -4.15659e-19)
(2.9215 -3.33629 0)
(2.90593 -3.31857 3.54501e-18)
(2.89068 -3.30121 -3.4598e-18)
(2.87572 -3.28417 2.99588e-18)
(2.86103 -3.26743 -5.85221e-18)
(2.84658 -3.25097 3.21687e-18)
(2.83236 -3.23476 0)
(2.81835 -3.21879 2.72721e-18)
(2.80453 -3.20303 -6.00588e-18)
(2.79089 -3.18747 2.61377e-18)
(2.77742 -3.1721 5.91425e-25)
(2.76409 -3.15689 0)
(2.75091 -3.14185 -2.75543e-18)
(2.73786 -3.12695 4.43727e-21)
(2.72493 -3.11218 1.7673e-18)
(2.71211 -3.09754 0)
(2.6994 -3.08301 -2.2595e-18)
(2.68677 -3.06859 2.77474e-18)
(2.67424 -3.05426 0)
(2.66178 -3.04002 9.43793e-24)
(2.6494 -3.02586 -2.09142e-18)
(2.63708 -3.01178 3.5953e-18)
(2.62481 -2.99776 -2.52249e-18)
(2.61261 -2.9838 0)
(2.60045 -2.96989 4.85514e-19)
(2.58833 -2.95603 -4.76569e-19)
(2.57625 -2.94221 0)
(2.5642 -2.92843 -1.83435e-18)
(2.55217 -2.91468 1.80548e-18)
(2.54017 -2.90095 4.42489e-19)
(2.52819 -2.88724 0)
(2.51622 -2.87355 8.52711e-19)
(2.50426 -2.85987 -4.18494e-19)
(2.49231 -2.8462 8.26378e-24)
(2.48036 -2.83252 8.03708e-19)
(2.4684 -2.81885 -1.58497e-18)
(2.45644 -2.80517 -7.76413e-19)
(2.44447 -2.79147 -7.61786e-19)
(2.43248 -2.77777 -7.47381e-19)
(2.42048 -2.76404 0)
(2.40845 -2.75029 7.1908e-19)
(2.3964 -2.73651 -7.05209e-19)
(2.38433 -2.72271 -1.38297e-18)
(2.37222 -2.70887 -6.77933e-19)
(2.36008 -2.69499 -1.32639e-18)
(2.3479 -2.68107 1.95647e-18)
(2.33568 -2.6671 -1.27365e-18)
(2.32342 -2.65309 6.27888e-19)
(2.31111 -2.63902 1.83444e-18)
(2.29875 -2.6249 -6.0239e-19)
(2.28634 -2.61072 5.87149e-19)
(2.27387 -2.59647 -1.14673e-18)
(2.26134 -2.58216 1.12762e-18)
(2.24875 -2.56778 0)
(2.23609 -2.55332 -2.15311e-18)
(2.22336 -2.53879 -1.05277e-18)
(2.21056 -2.52417 1.02926e-18)
(2.19769 -2.50947 -2.01203e-18)
(2.18473 -2.49468 9.83036e-19)
(2.1717 -2.4798 -1.91785e-18)
(2.15858 -2.46483 1.87848e-18)
(2.14537 -2.44975 1.15272e-23)
(2.13206 -2.43457 8.90969e-19)
(2.11866 -2.41928 -2.77242e-21)
(2.10517 -2.40389 -8.50746e-19)
(2.09157 -2.38837 8.26883e-19)
(4.1492 -4.76253 -1.05164e-17)
(3.82522 -4.39194 -1.02398e-17)
(3.68062 -4.22606 4.19493e-21)
(3.58249 -4.1133 1.76979e-17)
(3.50753 -4.02745 -7.72535e-18)
(3.44695 -3.95795 8.16173e-18)
(3.39589 -3.89944 -6.74272e-18)
(3.35163 -3.84871 0)
(3.31242 -3.80379 3.97581e-19)
(3.27712 -3.76336 5.63644e-18)
(3.24492 -3.72648 -5.34969e-18)
(3.21523 -3.69248 6.7812e-19)
(3.18762 -3.66088 3.23336e-19)
(3.16175 -3.63127 -4.63354e-18)
(3.13737 -3.60338 5.03506e-18)
(3.11427 -3.57694 4.82895e-18)
(3.09228 -3.55178 -4.37469e-18)
(3.07126 -3.52773 4.21005e-18)
(3.05109 -3.50465 -4.06594e-18)
(3.03168 -3.48245 -2.45414e-19)
(3.01296 -3.46102 -3.79665e-18)
(2.99484 -3.44029 3.6817e-18)
(2.97726 -3.42018 4.46054e-19)
(2.96018 -3.40064 -4.3301e-19)
(2.94356 -3.38161 0)
(2.92734 -3.36304 -3.27155e-18)
(2.91149 -3.3449 3.18855e-18)
(2.89598 -3.32714 -3.88e-19)
(2.88079 -3.30974 0)
(2.86589 -3.29267 3.3186e-18)
(2.85125 -3.2759 -3.24336e-18)
(2.83685 -3.2594 -3.51517e-18)
(2.82268 -3.24316 2.75166e-18)
(2.80872 -3.22715 -2.68596e-18)
(2.79495 -3.21136 2.95996e-18)
(2.78136 -3.19577 0)
(2.76793 -3.18036 3.14793e-19)
(2.75466 -3.16513 3.08259e-19)
(2.74152 -3.15005 -1.80957e-18)
(2.72851 -3.13512 4.73404e-18)
(2.71563 -3.12032 -5.84407e-19)
(2.70285 -3.10565 -3.98039e-18)
(2.69017 -3.09109 2.23265e-18)
(2.67759 -3.07663 1.09158e-18)
(2.6651 -3.06228 -2.14836e-18)
(2.65268 -3.048 5.26432e-19)
(2.64033 -3.03381 2.06409e-18)
(2.62805 -3.0197 -1.01632e-18)
(2.61583 -3.00564 2.48602e-18)
(2.60366 -2.99165 -1.46795e-18)
(2.59154 -2.97771 -7.98621e-24)
(2.57946 -2.96382 0)
(2.56742 -2.94997 -1.84699e-18)
(2.55541 -2.93615 2.27223e-18)
(2.54342 -2.92237 0)
(2.53146 -2.90861 0)
(2.51952 -2.89486 1.71663e-18)
(2.50759 -2.88114 -8.48877e-19)
(2.49567 -2.86742 -2.07408e-18)
(2.48375 -2.85371 -1.21786e-18)
(2.47183 -2.84001 1.59994e-18)
(2.45992 -2.8263 -7.84084e-19)
(2.44799 -2.81258 7.67135e-19)
(2.43606 -2.79885 -7.57968e-19)
(2.42411 -2.78511 -1.48022e-18)
(2.41215 -2.77135 1.45763e-18)
(2.40016 -2.75756 -1.42768e-18)
(2.38815 -2.74375 0)
(2.37612 -2.7299 2.74516e-18)
(2.36405 -2.71603 -1.35008e-18)
(2.35195 -2.70211 -1.31868e-18)
(2.33981 -2.68816 6.50381e-19)
(2.32763 -2.67415 0)
(2.31541 -2.6601 6.22312e-19)
(2.30314 -2.646 0)
(2.29083 -2.63184 5.97402e-19)
(2.27845 -2.61762 5.82442e-19)
(2.26603 -2.60333 -1.14874e-18)
(2.25354 -2.58898 0)
(2.24099 -2.57456 5.49124e-19)
(2.22837 -2.56007 2.14947e-18)
(2.21569 -2.54549 1.05147e-18)
(2.20293 -2.53084 -1.02844e-18)
(2.1901 -2.5161 1.23609e-23)
(2.17719 -2.50127 0)
(2.1642 -2.48635 -9.60816e-19)
(2.15112 -2.47134 -2.77539e-21)
(2.13795 -2.45622 -2.77205e-21)
(2.1247 -2.441 0)
(2.11134 -2.42567 -8.74177e-19)
(2.09789 -2.41023 1.70354e-18)
(2.08434 -2.39468 -2.79413e-21)
(4.13434 -4.7751 -1.05033e-17)
(3.81129 -4.40375 -1.02051e-17)
(3.66736 -4.23728 1.89135e-17)
(3.5695 -4.12425 -8.78833e-18)
(3.49484 -4.03813 0)
(3.43448 -3.96844 0)
(3.38361 -3.90976 0)
(3.33952 -3.85889 6.67189e-18)
(3.30046 -3.81385 -6.28673e-18)
(3.26529 -3.7733 3.71103e-19)
(3.23322 -3.73632 5.62629e-18)
(3.20364 -3.70223 -3.38699e-19)
(3.17614 -3.67053 -1.05192e-17)
(3.15038 -3.64085 4.57104e-18)
(3.1261 -3.61288 -5.83414e-19)
(3.10309 -3.58637 4.75689e-18)
(3.08119 -3.56114 2.65015e-19)
(3.06025 -3.53703 -4.40894e-18)
(3.04017 -3.51389 0)
(3.02084 -3.49164 4.34644e-18)
(3.00219 -3.47015 -3.74126e-18)
(2.98414 -3.44937 4.5273e-19)
(2.96664 -3.42921 -4.3898e-19)
(2.94963 -3.40962 4.26128e-19)
(2.93307 -3.39054 0)
(2.91691 -3.37193 3.21963e-18)
(2.90113 -3.35375 -3.13798e-18)
(2.88569 -3.33596 3.81869e-19)
(2.87055 -3.31852 3.72269e-19)
(2.85571 -3.30141 -7.26301e-19)
(2.84113 -3.2846 3.18828e-18)
(2.82679 -3.26806 -5.19341e-18)
(2.81267 -3.25179 2.70885e-18)
(2.79876 -3.23574 2.31358e-18)
(2.78504 -3.21992 -5.17753e-18)
(2.7715 -3.20429 2.5355e-18)
(2.75812 -3.18885 3.10027e-19)
(2.74489 -3.17358 -3.03627e-19)
(2.7318 -3.15847 2.37756e-18)
(2.71884 -3.1435 -2.04277e-18)
(2.706 -3.12867 -1.14091e-18)
(2.69327 -3.11397 1.68346e-18)
(2.68064 -3.09937 -5.49659e-19)
(2.6681 -3.08489 2.15465e-18)
(2.65565 -3.07049 -2.11853e-18)
(2.64327 -3.05619 2.59385e-18)
(2.63097 -3.04197 -4.51423e-21)
(2.61873 -3.02782 -5.04828e-19)
(2.60655 -3.01373 -1.96695e-18)
(2.59442 -2.9997 -4.82272e-19)
(2.58234 -2.98573 1.41839e-18)
(2.5703 -2.9718 -1.86261e-18)
(2.5583 -2.95792 -4.56742e-19)
(2.54633 -2.94407 0)
(2.53438 -2.93025 -4.40584e-19)
(2.52246 -2.91645 -1.72854e-18)
(2.51056 -2.90268 2.12753e-18)
(2.49867 -2.88892 2.50223e-18)
(2.48679 -2.87517 -8.22418e-19)
(2.47491 -2.86142 0)
(2.46303 -2.84768 7.90848e-19)
(2.45116 -2.83393 2.32735e-18)
(2.43927 -2.82018 -1.52763e-18)
(2.42738 -2.80642 7.48717e-19)
(2.41547 -2.79264 -1.46757e-18)
(2.40355 -2.77884 5.10355e-21)
(2.3916 -2.76502 2.83548e-18)
(2.37964 -2.75117 0)
(2.36764 -2.73729 -9.93604e-24)
(2.35562 -2.72337 1.33573e-18)
(2.34356 -2.70942 -1.3155e-18)
(2.33146 -2.69543 0)
(2.31932 -2.68139 1.8915e-18)
(2.30714 -2.6673 -5.31915e-21)
(2.29492 -2.65315 -1.21636e-18)
(2.28264 -2.63895 5.9207e-19)
(2.27031 -2.6247 -5.85484e-19)
(2.25793 -2.61037 0)
(2.24548 -2.59598 0)
(2.23298 -2.58152 -6.67664e-24)
(2.22041 -2.56699 -1.2884e-23)
(2.20776 -2.55238 1.04947e-18)
(2.19505 -2.53768 -1.02694e-18)
(2.18227 -2.5229 2.76815e-21)
(2.1694 -2.50803 5.5307e-21)
(2.15645 -2.49307 2.88493e-18)
(2.14342 -2.47802 9.39116e-19)
(2.1303 -2.46286 9.17729e-19)
(2.11709 -2.4476 0)