/*--------------------------------*- C++ -*----------------------------------*\
  =========                 |
  \\      /  F ield         | OpenFOAM: The Open Source CFD Toolbox
   \\    /   O peration     | Website:  https://openfoam.org
    \\  /    A nd           | Version:  10
     \\/     M anipulation  |
\*---------------------------------------------------------------------------*/
FoamFile
{
    format      ascii;
    class       surfaceScalarField;
    location    "35000";
    object      phi;
}
// * * * * * * * * * * * * * * * * * * * * * * * * * * * * * * * * * * * * * //

dimensions      [0 3 -1 0 0 0 0];

internalField   nonuniform List<scalar> 
35536
(
-5.2518e-09
-3.37324e-07
-1.97031e-08
-2.04918e-07
-2.36433e-08
-2.09638e-07
-1.76511e-08
-2.07044e-07
-2.49826e-09
-2.00664e-07
2.27871e-08
-1.91932e-07
6.03192e-08
-1.79893e-07
1.13281e-07
-1.62865e-07
1.85923e-07
-1.38657e-07
2.84075e-07
-1.05131e-07
4.17215e-07
-6.04923e-08
5.99172e-07
-2.41536e-09
8.44106e-07
7.33179e-08
1.16031e-06
1.72576e-07
1.54503e-06
2.99629e-07
1.98319e-06
4.55781e-07
2.45127e-06
6.37392e-07
2.92289e-06
8.36827e-07
3.37352e-06
1.0442e-06
3.7853e-06
1.24962e-06
4.14835e-06
1.44483e-06
4.46005e-06
1.62419e-06
4.72315e-06
1.78554e-06
4.94344e-06
1.92866e-06
5.12743e-06
2.05541e-06
5.28151e-06
2.16835e-06
5.4118e-06
2.26962e-06
5.52361e-06
2.36152e-06
5.62132e-06
2.44606e-06
5.70855e-06
2.52488e-06
5.78814e-06
2.59929e-06
5.86227e-06
2.6703e-06
5.93251e-06
2.73872e-06
5.99993e-06
2.8051e-06
6.06526e-06
2.86977e-06
6.12899e-06
2.93294e-06
6.19145e-06
2.99467e-06
6.25285e-06
3.05494e-06
6.31331e-06
3.1137e-06
6.37291e-06
3.17082e-06
6.4317e-06
3.22616e-06
6.48966e-06
3.27954e-06
6.54679e-06
3.33075e-06
6.60304e-06
3.37957e-06
6.65837e-06
3.42575e-06
6.71271e-06
3.46901e-06
6.76599e-06
3.50907e-06
6.8181e-06
3.54559e-06
6.86895e-06
3.57823e-06
6.91842e-06
3.60662e-06
6.96639e-06
3.63036e-06
7.01271e-06
3.64902e-06
7.05724e-06
3.66212e-06
7.0998e-06
3.66918e-06
7.14022e-06
3.66965e-06
7.1783e-06
3.66295e-06
7.21381e-06
3.64846e-06
7.24652e-06
3.62551e-06
7.27619e-06
3.59338e-06
7.30254e-06
3.5513e-06
7.32528e-06
3.49844e-06
7.3441e-06
3.43391e-06
7.35866e-06
3.35674e-06
7.3686e-06
3.26591e-06
7.37356e-06
3.16032e-06
7.37314e-06
3.03879e-06
7.36692e-06
2.90005e-06
7.35446e-06
2.74275e-06
7.33532e-06
2.56544e-06
7.30902e-06
2.36657e-06
7.27508e-06
2.1445e-06
7.233e-06
1.8975e-06
7.18225e-06
1.62372e-06
7.12227e-06
1.32123e-06
7.05452e-06
9.65463e-07
6.98128e-06
5.96336e-07
6.90305e-06
2.5578e-07
6.82015e-06
-5.76562e-08
6.73312e-06
-3.46437e-07
6.64264e-06
-6.12701e-07
6.5492e-06
-8.5778e-07
6.45321e-06
-1.0828e-06
6.35502e-06
-1.28886e-06
6.25488e-06
-1.47705e-06
6.15296e-06
-1.64843e-06
6.04948e-06
-1.80409e-06
5.94491e-06
-1.94502e-06
5.84021e-06
-2.07196e-06
5.73673e-06
-2.18524e-06
5.63551e-06
-2.28473e-06
5.5363e-06
-2.37028e-06
5.43772e-06
-2.44274e-06
5.33861e-06
-2.50398e-06
5.23859e-06
-2.55588e-06
5.13772e-06
-2.59979e-06
5.03612e-06
-2.63656e-06
4.93395e-06
-2.66692e-06
4.83136e-06
-2.69155e-06
4.72854e-06
-2.71106e-06
-2.72604e-06
-4.91925e-09
-3.32405e-07
-1.80719e-08
-1.91767e-07
-2.64231e-08
-2.01288e-07
-2.83997e-08
-2.05068e-07
-2.42583e-08
-2.04806e-07
-1.34197e-08
-2.02771e-07
5.41263e-09
-1.98725e-07
3.4278e-08
-1.9173e-07
7.59777e-08
-1.80357e-07
1.33828e-07
-1.62981e-07
2.11496e-07
-1.3816e-07
3.13607e-07
-1.04527e-07
4.47612e-07
-6.06872e-08
6.24894e-07
-4.70611e-09
8.57927e-07
6.65972e-08
1.15569e-06
1.58021e-07
1.51928e-06
2.73798e-07
1.9398e-06
4.1631e-07
2.39954e-06
5.84465e-07
2.87596e-06
7.73202e-07
3.346e-06
9.74785e-07
3.78988e-06
1.18032e-06
4.19384e-06
1.38158e-06
4.55078e-06
1.57172e-06
4.85974e-06
1.74645e-06
5.12383e-06
1.90426e-06
5.3483e-06
2.04514e-06
5.53866e-06
2.17116e-06
5.7004e-06
2.28431e-06
5.83902e-06
2.38627e-06
5.95921e-06
2.47909e-06
6.06502e-06
2.5645e-06
6.15985e-06
2.64389e-06
6.24651e-06
2.71844e-06
6.32714e-06
2.78914e-06
6.40336e-06
2.85672e-06
6.47631e-06
2.92172e-06
6.54678e-06
2.98448e-06
6.61531e-06
3.04517e-06
6.68228e-06
3.10385e-06
6.74792e-06
3.16052e-06
6.81239e-06
3.21507e-06
6.87577e-06
3.26738e-06
6.93809e-06
3.31725e-06
6.99936e-06
3.36449e-06
7.05953e-06
3.40884e-06
7.11857e-06
3.45003e-06
7.17638e-06
3.48777e-06
7.23287e-06
3.52173e-06
7.28794e-06
3.55156e-06
7.34144e-06
3.57686e-06
7.39323e-06
3.59723e-06
7.44315e-06
3.61221e-06
7.49101e-06
3.62132e-06
7.53662e-06
3.62404e-06
7.57975e-06
3.61981e-06
7.62018e-06
3.60803e-06
7.65764e-06
3.58805e-06
7.69185e-06
3.55917e-06
7.72251e-06
3.52064e-06
7.74931e-06
3.47165e-06
7.77188e-06
3.41133e-06
7.78987e-06
3.33875e-06
7.80287e-06
3.25291e-06
7.81047e-06
3.15273e-06
7.81222e-06
3.03704e-06
7.80766e-06
2.90462e-06
7.7963e-06
2.75411e-06
7.77762e-06
2.58411e-06
7.75112e-06
2.39308e-06
7.71622e-06
2.1794e-06
7.67238e-06
1.94134e-06
7.61901e-06
1.67709e-06
7.55548e-06
1.38476e-06
7.48334e-06
1.0376e-06
7.40504e-06
6.74633e-07
7.32118e-06
3.39639e-07
7.23219e-06
3.13354e-08
7.13852e-06
-2.52765e-07
7.04081e-06
-5.1499e-07
6.9396e-06
-7.56572e-07
6.83538e-06
-9.7858e-07
6.72858e-06
-1.18207e-06
6.61958e-06
-1.36804e-06
6.50864e-06
-1.53749e-06
6.39595e-06
-1.6914e-06
6.28169e-06
-1.83076e-06
6.16623e-06
-1.9565e-06
6.05034e-06
-2.06935e-06
5.9353e-06
-2.16969e-06
5.82243e-06
-2.2574e-06
5.71193e-06
-2.33224e-06
5.60266e-06
-2.39471e-06
5.49322e-06
-2.44643e-06
5.38301e-06
-2.48958e-06
5.27216e-06
-2.52571e-06
5.16085e-06
-2.55561e-06
5.04926e-06
-2.57997e-06
4.93761e-06
-2.59941e-06
-2.61453e-06
-4.12917e-09
-3.28276e-07
-1.47621e-08
-1.81135e-07
-2.4307e-08
-1.91745e-07
-3.06883e-08
-1.98687e-07
-3.36265e-08
-2.01868e-07
-3.26326e-08
-2.03765e-07
-2.68568e-08
-2.04501e-07
-1.49413e-08
-2.03645e-07
5.11236e-09
-2.00411e-07
3.58165e-08
-1.93685e-07
7.99068e-08
-1.82251e-07
1.40301e-07
-1.64922e-07
2.20088e-07
-1.40474e-07
3.23056e-07
-1.07674e-07
4.54973e-07
-6.53204e-08
6.2478e-07
-1.17863e-08
8.43351e-07
5.52256e-08
1.1203e-06
1.3936e-07
1.46007e-06
2.44696e-07
1.85883e-06
3.74445e-07
2.30415e-06
5.29464e-07
2.7778e-06
7.06666e-07
3.25898e-06
9.00397e-07
3.72748e-06
1.10322e-06
4.16685e-06
1.30708e-06
4.56613e-06
1.50498e-06
4.92013e-06
1.69114e-06
5.22914e-06
1.86215e-06
5.49645e-06
2.01701e-06
5.72665e-06
2.15607e-06
5.92439e-06
2.28136e-06
6.09454e-06
2.39434e-06
6.24197e-06
2.49645e-06
6.37094e-06
2.58947e-06
6.4852e-06
2.67487e-06
6.58803e-06
2.7539e-06
6.68212e-06
2.82763e-06
6.76963e-06
2.89697e-06
6.85217e-06
2.96262e-06
6.93094e-06
3.02509e-06
7.00678e-06
3.08468e-06
7.08028e-06
3.14158e-06
7.15183e-06
3.19582e-06
7.22171e-06
3.24737e-06
7.29007e-06
3.29612e-06
7.357e-06
3.3419e-06
7.42253e-06
3.3845e-06
7.48665e-06
3.42366e-06
7.54929e-06
3.45909e-06
7.61037e-06
3.49047e-06
7.66979e-06
3.51745e-06
7.72739e-06
3.53962e-06
7.78302e-06
3.55658e-06
7.8365e-06
3.56784e-06
7.88761e-06
3.57293e-06
7.93613e-06
3.57129e-06
7.98181e-06
3.56236e-06
8.02437e-06
3.54549e-06
8.06351e-06
3.52003e-06
8.0989e-06
3.48525e-06
8.13019e-06
3.44036e-06
8.157e-06
3.38452e-06
8.17892e-06
3.31683e-06
8.19553e-06
3.23631e-06
8.20635e-06
3.14191e-06
8.21089e-06
3.0325e-06
8.20863e-06
2.90687e-06
8.19904e-06
2.76371e-06
8.18154e-06
2.60161e-06
8.15554e-06
2.41908e-06
8.12042e-06
2.21452e-06
8.07555e-06
1.98621e-06
8.02027e-06
1.73237e-06
7.95391e-06
1.45113e-06
7.87806e-06
1.11345e-06
7.79535e-06
7.57338e-07
7.70649e-06
4.28501e-07
7.612e-06
1.2583e-07
7.51229e-06
-1.5306e-07
7.40794e-06
-4.10634e-07
7.29949e-06
-6.48129e-07
7.18749e-06
-8.66576e-07
7.07241e-06
-1.06698e-06
6.95469e-06
-1.25032e-06
6.83472e-06
-1.41752e-06
6.71282e-06
-1.5695e-06
6.5892e-06
-1.70715e-06
6.46408e-06
-1.83137e-06
6.33773e-06
-1.94301e-06
6.2108e-06
-2.04276e-06
6.0844e-06
-2.13101e-06
5.95989e-06
-2.20773e-06
5.83785e-06
-2.27267e-06
5.71748e-06
-2.32607e-06
5.59728e-06
-2.36938e-06
5.4766e-06
-2.40503e-06
5.35564e-06
-2.43464e-06
5.23461e-06
-2.45894e-06
5.11375e-06
-2.47856e-06
-2.49407e-06
-3.85201e-09
-3.24424e-07
-1.3159e-08
-1.71828e-07
-2.27258e-08
-1.82177e-07
-3.08794e-08
-1.90533e-07
-3.72977e-08
-1.95449e-07
-4.16534e-08
-1.99409e-07
-4.34531e-08
-2.02701e-07
-4.19152e-08
-2.05183e-07
-3.58129e-08
-2.06513e-07
-2.33955e-08
-2.06103e-07
-2.52017e-09
-2.03126e-07
2.9195e-08
-1.96637e-07
7.43141e-08
-1.85593e-07
1.35521e-07
-1.68881e-07
2.15545e-07
-1.45344e-07
3.17583e-07
-1.13824e-07
4.46038e-07
-7.32286e-08
6.07631e-07
-2.22328e-08
8.11578e-07
4.07494e-08
1.06766e-06
1.18361e-07
1.38241e-06
2.14716e-07
1.75601e-06
3.3307e-07
2.18119e-06
4.75216e-07
2.64426e-06
6.40149e-07
3.1272e-06
8.24139e-07
3.61087e-06
1.02131e-06
4.07746e-06
1.22455e-06
4.51319e-06
1.42642e-06
4.90931e-06
1.62089e-06
5.26218e-06
1.8032e-06
5.57293e-06
1.97061e-06
5.84479e-06
2.12249e-06
6.08157e-06
2.25967e-06
6.28729e-06
2.38376e-06
6.46634e-06
2.49581e-06
6.62301e-06
2.59723e-06
6.76115e-06
2.68949e-06
6.88426e-06
2.77386e-06
6.99545e-06
2.85143e-06
7.09734e-06
2.9232e-06
7.19204e-06
2.98998e-06
7.28118e-06
3.05244e-06
7.36597e-06
3.11103e-06
7.44729e-06
3.16606e-06
7.52575e-06
3.21766e-06
7.60178e-06
3.26587e-06
7.67567e-06
3.31062e-06
7.74756e-06
3.35176e-06
7.81755e-06
3.38911e-06
7.88564e-06
3.42238e-06
7.95179e-06
3.4513e-06
8.01591e-06
3.4755e-06
8.07787e-06
3.49461e-06
8.13752e-06
3.5082e-06
8.19465e-06
3.5158e-06
8.24905e-06
3.5169e-06
8.30045e-06
3.51095e-06
8.34858e-06
3.49736e-06
8.39313e-06
3.47549e-06
8.43374e-06
3.44464e-06
8.47004e-06
3.40406e-06
8.50162e-06
3.35294e-06
8.52805e-06
3.2904e-06
8.54884e-06
3.21551e-06
8.5635e-06
3.12725e-06
8.57149e-06
3.02452e-06
8.57222e-06
2.90614e-06
8.5651e-06
2.77083e-06
8.54948e-06
2.61723e-06
8.52472e-06
2.44385e-06
8.4901e-06
2.24913e-06
8.44493e-06
2.03138e-06
8.38846e-06
1.78884e-06
8.31994e-06
1.51965e-06
8.24102e-06
1.19237e-06
8.15449e-06
8.43865e-07
8.06119e-06
5.21804e-07
7.96173e-06
2.25286e-07
7.85648e-06
-4.78094e-08
7.74593e-06
-3.00084e-07
7.63067e-06
-5.32867e-07
7.51125e-06
-7.47157e-07
7.38819e-06
-9.43921e-07
7.26196e-06
-1.12409e-06
7.13301e-06
-1.28858e-06
7.00175e-06
-1.43824e-06
6.86852e-06
-1.57393e-06
6.73363e-06
-1.69647e-06
6.59731e-06
-1.80669e-06
6.45987e-06
-1.90532e-06
6.32185e-06
-1.99299e-06
6.1842e-06
-2.07008e-06
6.04816e-06
-2.13663e-06
5.91454e-06
-2.19245e-06
5.78283e-06
-2.23767e-06
5.65164e-06
-2.27384e-06
5.52046e-06
-2.30347e-06
5.38955e-06
-2.32803e-06
5.25915e-06
-2.34815e-06
5.12949e-06
-2.3644e-06
5.00078e-06
-2.37729e-06
4.87324e-06
-2.38725e-06
4.7471e-06
-2.39467e-06
-2.39989e-06
-3.65837e-09
-3.20766e-07
-1.2206e-08
-1.63281e-07
-2.14018e-08
-1.72982e-07
-2.99103e-08
-1.82025e-07
-3.75634e-08
-1.87796e-07
-4.42077e-08
-1.92765e-07
-4.96027e-08
-1.97306e-07
-5.33641e-08
-2.01422e-07
-5.48814e-08
-2.04996e-07
-5.31926e-08
-2.07792e-07
-4.69094e-08
-2.0941e-07
-3.42871e-08
-2.0926e-07
-1.32734e-08
-2.06607e-07
1.84452e-08
-2.006e-07
6.3359e-08
-1.90258e-07
1.24021e-07
-1.74486e-07
2.02971e-07
-1.52178e-07
3.02967e-07
-1.22229e-07
4.27333e-07
-8.36165e-08
5.81027e-07
-3.53334e-08
7.71617e-07
2.41266e-08
1.00797e-06
9.67121e-08
1.29778e-06
1.85409e-07
1.64451e-06
2.9342e-07
2.04524e-06
4.23411e-07
2.49051e-06
5.76037e-07
2.96607e-06
7.48991e-07
3.45456e-06
9.37922e-07
3.93852e-06
1.13693e-06
4.40239e-06
1.33934e-06
4.83463e-06
1.53836e-06
5.22833e-06
1.72879e-06
5.58125e-06
1.90676e-06
5.89487e-06
2.07013e-06
6.1721e-06
2.21858e-06
6.41605e-06
2.35328e-06
6.63021e-06
2.47533e-06
6.81859e-06
2.58548e-06
6.98484e-06
2.68518e-06
7.13245e-06
2.77559e-06
7.26468e-06
2.85775e-06
7.38449e-06
2.93263e-06
7.4944e-06
3.00112e-06
7.59647e-06
3.06399e-06
7.6923e-06
3.12183e-06
7.78311e-06
3.17506e-06
7.86979e-06
3.22394e-06
7.95297e-06
3.26858e-06
8.03309e-06
3.30899e-06
8.11042e-06
3.34505e-06
8.18512e-06
3.3766e-06
8.25725e-06
3.40337e-06
8.3268e-06
3.42507e-06
8.39367e-06
3.44133e-06
8.45774e-06
3.45173e-06
8.51882e-06
3.45581e-06
8.57669e-06
3.45308e-06
8.63109e-06
3.44297e-06
8.6817e-06
3.42488e-06
8.72816e-06
3.39817e-06
8.77011e-06
3.36211e-06
8.8071e-06
3.31594e-06
8.83868e-06
3.25882e-06
8.86433e-06
3.18986e-06
8.88352e-06
3.10806e-06
8.89565e-06
3.01239e-06
8.90009e-06
2.90169e-06
8.89617e-06
2.77475e-06
8.88319e-06
2.63021e-06
8.8604e-06
2.46664e-06
8.82702e-06
2.28251e-06
8.78226e-06
2.07614e-06
8.7253e-06
1.84581e-06
8.65528e-06
1.58966e-06
8.57388e-06
1.27377e-06
8.48407e-06
9.33683e-07
8.3868e-06
6.19073e-07
8.28282e-06
3.29264e-07
8.17242e-06
6.2586e-08
8.05604e-06
-1.83704e-07
7.93429e-06
-4.11111e-07
7.80774e-06
-6.20606e-07
7.67693e-06
-8.13114e-07
7.54237e-06
-9.89533e-07
7.40452e-06
-1.15073e-06
7.26385e-06
-1.29756e-06
7.12076e-06
-1.43084e-06
6.97565e-06
-1.55137e-06
6.82889e-06
-1.65993e-06
6.68084e-06
-1.75727e-06
6.53188e-06
-1.84403e-06
6.38257e-06
-1.92076e-06
6.23372e-06
-1.98778e-06
6.08641e-06
-2.04514e-06
5.9415e-06
-2.09276e-06
5.79858e-06
-2.13092e-06
5.65662e-06
-2.16151e-06
5.51544e-06
-2.18684e-06
5.37524e-06
-2.20795e-06
5.23619e-06
-2.22536e-06
5.09848e-06
-2.23958e-06
4.96229e-06
-2.25106e-06
4.82782e-06
-2.2602e-06
-2.26734e-06
-3.48066e-09
-3.17285e-07
-1.13875e-08
-1.55372e-07
-1.98514e-08
-1.64515e-07
-2.78121e-08
-1.74062e-07
-3.52824e-08
-1.80325e-07
-4.22616e-08
-1.85785e-07
-4.86702e-08
-1.90897e-07
-5.43466e-08
-1.95746e-07
-5.90242e-08
-2.00318e-07
-6.22787e-08
-2.04537e-07
-6.34361e-08
-2.08252e-07
-6.14863e-08
-2.11209e-07
-5.50745e-08
-2.13018e-07
-4.25334e-08
-2.13141e-07
-2.18934e-08
-2.10897e-07
9.12052e-09
-2.055e-07
5.29508e-08
-1.96008e-07
1.12083e-07
-1.81361e-07
1.88931e-07
-1.60464e-07
2.85824e-07
-1.32226e-07
4.0556e-07
-9.56096e-08
5.51952e-07
-4.96802e-08
7.30589e-07
6.77233e-09
9.48919e-07
7.50903e-08
1.21508e-06
1.57251e-07
1.53459e-06
2.56531e-07
1.90796e-06
3.7562e-07
2.32986e-06
5.1602e-07
2.78978e-06
6.7701e-07
3.27334e-06
8.55775e-07
3.76411e-06
1.0476e-06
4.24626e-06
1.24664e-06
4.70643e-06
1.44658e-06
5.13503e-06
1.64153e-06
5.52662e-06
1.82699e-06
5.88016e-06
1.99974e-06
6.19735e-06
2.15815e-06
6.48055e-06
2.30228e-06
6.73213e-06
2.43359e-06
6.95518e-06
2.55254e-06
7.15309e-06
2.65984e-06
7.3291e-06
2.75662e-06
7.48636e-06
2.84386e-06
7.62789e-06
2.92245e-06
7.75647e-06
2.99325e-06
7.87448e-06
3.05704e-06
7.98391e-06
3.11451e-06
8.08631e-06
3.16618e-06
8.18287e-06
3.21242e-06
8.27449e-06
3.25344e-06
8.36179e-06
3.2893e-06
8.44519e-06
3.31997e-06
8.52498e-06
3.34529e-06
8.60127e-06
3.36503e-06
8.6741e-06
3.3789e-06
8.74341e-06
3.3865e-06
8.80908e-06
3.38741e-06
8.87091e-06
3.38114e-06
8.92863e-06
3.36717e-06
8.98191e-06
3.34489e-06
9.03038e-06
3.31364e-06
9.07363e-06
3.27269e-06
9.11117e-06
3.22128e-06
9.14249e-06
3.15854e-06
9.167e-06
3.08355e-06
9.18408e-06
2.99531e-06
9.19303e-06
2.89274e-06
9.19312e-06
2.77465e-06
9.18356e-06
2.63976e-06
9.16354e-06
2.48667e-06
9.13217e-06
2.31387e-06
9.08857e-06
2.11975e-06
9.03179e-06
1.90258e-06
8.96092e-06
1.66054e-06
8.87761e-06
1.35708e-06
8.78496e-06
1.02633e-06
8.68411e-06
7.19921e-07
8.57596e-06
4.37412e-07
8.46079e-06
1.77755e-07
8.33895e-06
-6.18672e-08
8.21103e-06
-2.83185e-07
8.07761e-06
-4.87186e-07
7.93925e-06
-6.74753e-07
7.79647e-06
-8.46755e-07
7.64977e-06
-1.00403e-06
7.49962e-06
-1.14741e-06
7.34647e-06
-1.27769e-06
7.19077e-06
-1.39567e-06
7.03299e-06
-1.50215e-06
6.87361e-06
-1.59789e-06
6.71319e-06
-1.68361e-06
6.5523e-06
-1.75988e-06
6.39164e-06
-1.82711e-06
6.232e-06
-1.88551e-06
6.07431e-06
-1.93506e-06
5.91912e-06
-1.97574e-06
5.76599e-06
-2.00837e-06
5.61441e-06
-2.03527e-06
5.46437e-06
-2.05791e-06
5.3159e-06
-2.07689e-06
5.1691e-06
-2.09278e-06
5.02414e-06
-2.10609e-06
4.88118e-06
-2.11725e-06
-2.12661e-06
-3.24352e-09
-3.14042e-07
-1.0449e-08
-1.48167e-07
-1.78251e-08
-1.57139e-07
-2.46436e-08
-1.67243e-07
-3.10721e-08
-1.73896e-07
-3.72256e-08
-1.79632e-07
-4.31256e-08
-1.84997e-07
-4.87293e-08
-1.90142e-07
-5.39376e-08
-1.9511e-07
-5.85829e-08
-1.99892e-07
-6.23957e-08
-2.04439e-07
-6.49437e-08
-2.08661e-07
-6.55608e-08
-2.12401e-07
-6.32928e-08
-2.15408e-07
-5.6867e-08
-2.17323e-07
-4.46924e-08
-2.17674e-07
-2.48734e-08
-2.15827e-07
4.79918e-09
-2.11033e-07
4.67269e-08
-2.02392e-07
1.03383e-07
-1.88882e-07
1.77183e-07
-1.6941e-07
2.70379e-07
-1.42875e-07
3.85387e-07
-1.08235e-07
5.25081e-07
-6.46041e-08
6.93493e-07
-1.11602e-08
8.9659e-07
5.34334e-08
1.14155e-06
1.30664e-07
1.43489e-06
2.22673e-07
1.77983e-06
3.32071e-07
2.17461e-06
4.60999e-07
2.61228e-06
6.09931e-07
3.0818e-06
7.77116e-07
3.56904e-06
9.59344e-07
4.05879e-06
1.15178e-06
4.53696e-06
1.34882e-06
4.99222e-06
1.54448e-06
5.41661e-06
1.73376e-06
5.80598e-06
1.91291e-06
6.16046e-06
2.07911e-06
6.48159e-06
2.23141e-06
6.7709e-06
2.37053e-06
7.03032e-06
2.49721e-06
7.26253e-06
2.61165e-06
7.47021e-06
2.71478e-06
7.65613e-06
2.80733e-06
7.82314e-06
2.89004e-06
7.97401e-06
2.96364e-06
8.11132e-06
3.02888e-06
8.23728e-06
3.08646e-06
8.35377e-06
3.13695e-06
8.46227e-06
3.1808e-06
8.56393e-06
3.2183e-06
8.65962e-06
3.2496e-06
8.74995e-06
3.2747e-06
8.83533e-06
3.29352e-06
8.91598e-06
3.30584e-06
8.99208e-06
3.31131e-06
9.06358e-06
3.30963e-06
9.13032e-06
3.30043e-06
9.19207e-06
3.28314e-06
9.24854e-06
3.25717e-06
9.29936e-06
3.22187e-06
9.34408e-06
3.17656e-06
9.38218e-06
3.12044e-06
9.41308e-06
3.05265e-06
9.43613e-06
2.97227e-06
9.45058e-06
2.87829e-06
9.45564e-06
2.76959e-06
9.45046e-06
2.64494e-06
9.43411e-06
2.50302e-06
9.40562e-06
2.34236e-06
9.364e-06
2.16137e-06
9.30819e-06
1.95839e-06
9.23714e-06
1.73159e-06
9.15245e-06
1.44177e-06
9.05736e-06
1.12143e-06
8.95318e-06
8.24095e-07
8.84109e-06
5.49505e-07
8.72156e-06
2.97289e-07
8.59468e-06
6.50139e-08
8.46091e-06
-1.49419e-07
8.32086e-06
-3.47131e-07
8.17509e-06
-5.28987e-07
8.02415e-06
-6.95816e-07
7.86855e-06
-8.48434e-07
7.70879e-06
-9.87645e-07
7.54536e-06
-1.11425e-06
7.37875e-06
-1.22906e-06
7.20951e-06
-1.33291e-06
7.03828e-06
-1.42666e-06
6.86579e-06
-1.51111e-06
6.69289e-06
-1.58698e-06
6.52048e-06
-1.6547e-06
6.3494e-06
-1.71443e-06
6.18039e-06
-1.76606e-06
6.01403e-06
-1.80938e-06
5.85026e-06
-1.8446e-06
5.68856e-06
-1.87356e-06
5.52868e-06
-1.89803e-06
5.3706e-06
-1.91881e-06
5.2144e-06
-1.93659e-06
5.06025e-06
-1.95194e-06
4.90836e-06
-1.96536e-06
4.75899e-06
-1.97724e-06
-1.98785e-06
-2.94979e-09
-3.11091e-07
-9.25488e-09
-1.4186e-07
-1.52376e-08
-1.51155e-07
-2.05434e-08
-1.61937e-07
-2.54399e-08
-1.68999e-07
-3.01141e-08
-1.74957e-07
-3.4646e-08
-1.80465e-07
-3.9056e-08
-1.85731e-07
-4.3325e-08
-1.9084e-07
-4.73985e-08
-1.95818e-07
-5.11807e-08
-2.00657e-07
-5.45151e-08
-2.05326e-07
-5.71463e-08
-2.0977e-07
-5.86609e-08
-2.13894e-07
-5.84374e-08
-2.17547e-07
-5.562e-08
-2.20492e-07
-4.90461e-08
-2.22401e-07
-3.72302e-08
-2.22849e-07
-1.83427e-08
-2.21279e-07
9.75238e-09
-2.16978e-07
4.94384e-08
-2.09096e-07
1.03226e-07
-1.96663e-07
1.736e-07
-1.7861e-07
2.62803e-07
-1.53807e-07
3.72843e-07
-1.21201e-07
5.06116e-07
-7.98401e-08
6.65722e-07
-2.89419e-08
8.55924e-07
3.2471e-08
1.08242e-06
1.05577e-07
1.35174e-06
1.91681e-07
1.66871e-06
2.92958e-07
2.03436e-06
4.11463e-07
2.44512e-06
5.48584e-07
2.89309e-06
7.03813e-07
3.36715e-06
8.74758e-07
3.85376e-06
1.05788e-06
4.33908e-06
1.24843e-06
4.8108e-06
1.44119e-06
5.25942e-06
1.63049e-06
5.67866e-06
1.81217e-06
6.06606e-06
1.98313e-06
6.42203e-06
2.14124e-06
6.74744e-06
2.28624e-06
7.04306e-06
2.41915e-06
7.31053e-06
2.53986e-06
7.55183e-06
2.64874e-06
7.76911e-06
2.74635e-06
7.96477e-06
2.83322e-06
8.14132e-06
2.90991e-06
8.30123e-06
2.97703e-06
8.44683e-06
3.03521e-06
8.58015e-06
3.08498e-06
8.70293e-06
3.12682e-06
8.81657e-06
3.16107e-06
8.92216e-06
3.18793e-06
9.02051e-06
3.20749e-06
9.11243e-06
3.21939e-06
9.19805e-06
3.22402e-06
9.27745e-06
3.22103e-06
9.35074e-06
3.20985e-06
9.41787e-06
3.19003e-06
9.47861e-06
3.16114e-06
9.53255e-06
3.12262e-06
9.57927e-06
3.07372e-06
9.61825e-06
3.01366e-06
9.64881e-06
2.94171e-06
9.67019e-06
2.85691e-06
9.68157e-06
2.75822e-06
9.68201e-06
2.6445e-06
9.67052e-06
2.51451e-06
9.64604e-06
2.36684e-06
9.60745e-06
2.19996e-06
9.55357e-06
2.01226e-06
9.48319e-06
1.80198e-06
9.39778e-06
1.52717e-06
9.30063e-06
1.21857e-06
9.19325e-06
9.31481e-07
9.07717e-06
6.65581e-07
8.95345e-06
4.21015e-07
8.82183e-06
1.96627e-07
8.68251e-06
-1.00909e-08
8.53602e-06
-2.00642e-07
8.38297e-06
-3.75941e-07
8.22393e-06
-5.36773e-07
8.05941e-06
-6.83919e-07
7.88995e-06
-8.18179e-07
7.71608e-06
-9.40389e-07
7.53847e-06
-1.05144e-06
7.35783e-06
-1.15227e-06
7.17497e-06
-1.2438e-06
6.99077e-06
-1.32691e-06
6.80624e-06
-1.40246e-06
6.62247e-06
-1.47093e-06
6.44043e-06
-1.53239e-06
6.26093e-06
-1.58655e-06
6.08439e-06
-1.63283e-06
5.91064e-06
-1.67086e-06
5.7389e-06
-1.70182e-06
5.56883e-06
-1.72796e-06
5.40051e-06
-1.7505e-06
5.23417e-06
-1.77025e-06
5.0701e-06
-1.78786e-06
4.9086e-06
-1.80387e-06
4.75001e-06
-1.81865e-06
4.59464e-06
-1.83248e-06
4.44279e-06
-1.84554e-06
-1.8579e-06
-2.65497e-09
-3.08436e-07
-7.89205e-09
-1.36622e-07
-1.23383e-08
-1.46708e-07
-1.60087e-08
-1.58265e-07
-1.92212e-08
-1.65786e-07
-2.21919e-08
-1.71986e-07
-2.50249e-08
-1.77632e-07
-2.77681e-08
-1.82988e-07
-3.04388e-08
-1.88169e-07
-3.30319e-08
-1.93225e-07
-3.55218e-08
-1.98167e-07
-3.78576e-08
-2.02991e-07
-3.99539e-08
-2.07674e-07
-4.16704e-08
-2.12177e-07
-4.27755e-08
-2.16441e-07
-4.28947e-08
-2.20373e-07
-4.14704e-08
-2.23826e-07
-3.77357e-08
-2.26584e-07
-3.06623e-08
-2.28352e-07
-1.88929e-08
-2.28747e-07
-7.08537e-10
-2.2728e-07
2.5932e-08
-2.23304e-07
6.33435e-08
-2.16021e-07
1.14049e-07
-2.04512e-07
1.80587e-07
-1.87739e-07
2.65321e-07
-1.64575e-07
3.70297e-07
-1.33918e-07
4.97529e-07
-9.47618e-08
6.49405e-07
-4.62993e-08
8.28983e-07
1.21026e-08
1.04041e-06
8.15339e-08
1.28881e-06
1.63056e-07
1.57971e-06
2.57687e-07
1.9162e-06
3.67327e-07
2.29747e-06
4.93488e-07
2.71864e-06
6.36705e-07
3.1714e-06
7.95668e-07
3.64498e-06
9.67609e-07
4.12664e-06
1.14883e-06
4.60406e-06
1.33474e-06
5.06691e-06
1.52028e-06
5.50737e-06
1.70078e-06
5.9207e-06
1.87291e-06
6.30604e-06
2.03381e-06
6.66347e-06
2.18243e-06
6.99289e-06
2.31932e-06
7.29475e-06
2.4445e-06
7.57001e-06
2.55795e-06
7.82e-06
2.65992e-06
8.04638e-06
2.75065e-06
8.25115e-06
2.83043e-06
8.43651e-06
2.89962e-06
8.60467e-06
2.95866e-06
8.75772e-06
3.00802e-06
8.89753e-06
3.04811e-06
9.02577e-06
3.07925e-06
9.14322e-06
3.10195e-06
9.25082e-06
3.11641e-06
9.34986e-06
3.12199e-06
9.4407e-06
3.11901e-06
9.52368e-06
3.10705e-06
9.59869e-06
3.08613e-06
9.66551e-06
3.0558e-06
9.72408e-06
3.01515e-06
9.77405e-06
2.9637e-06
9.81472e-06
2.90104e-06
9.84535e-06
2.82627e-06
9.86516e-06
2.73841e-06
9.87317e-06
2.63649e-06
9.8683e-06
2.51939e-06
9.84944e-06
2.3857e-06
9.8154e-06
2.234e-06
9.76483e-06
2.06283e-06
9.69632e-06
1.87048e-06
9.61116e-06
1.61233e-06
9.51262e-06
1.31712e-06
9.40226e-06
1.04184e-06
9.28188e-06
7.85963e-07
9.15321e-06
5.49686e-07
9.01667e-06
3.3316e-07
8.87202e-06
1.34561e-07
8.71936e-06
-4.79797e-08
8.55928e-06
-2.15863e-07
8.39238e-06
-3.69873e-07
8.2192e-06
-5.10734e-07
8.04034e-06
-6.39321e-07
7.85655e-06
-7.56596e-07
7.66872e-06
-8.63622e-07
7.47798e-06
-9.61526e-07
7.28527e-06
-1.05108e-06
7.09136e-06
-1.13301e-06
6.89693e-06
-1.20803e-06
6.70269e-06
-1.27669e-06
6.50948e-06
-1.33919e-06
6.31827e-06
-1.39534e-06
6.1299e-06
-1.44447e-06
5.94467e-06
-1.48562e-06
5.7618e-06
-1.51895e-06
5.58058e-06
-1.54674e-06
5.40115e-06
-1.57106e-06
5.22391e-06
-1.59301e-06
5.04931e-06
-1.61326e-06
4.87777e-06
-1.63233e-06
4.70971e-06
-1.65058e-06
4.54547e-06
-1.66824e-06
4.38537e-06
-1.68545e-06
4.22969e-06
-1.70222e-06
-1.71851e-06
-2.36823e-09
-3.06068e-07
-6.50636e-09
-1.32485e-07
-9.40745e-09
-1.43808e-07
-1.14817e-08
-1.56192e-07
-1.30738e-08
-1.64195e-07
-1.4396e-08
-1.70664e-07
-1.555e-08
-1.76478e-07
-1.65855e-08
-1.81953e-07
-1.75254e-08
-1.8723e-07
-1.83908e-08
-1.92359e-07
-1.91777e-08
-1.9738e-07
-1.98735e-08
-2.02295e-07
-2.04525e-08
-2.07095e-07
-2.08702e-08
-2.1176e-07
-2.10525e-08
-2.16259e-07
-2.08758e-08
-2.20549e-07
-2.01335e-08
-2.24568e-07
-1.84951e-08
-2.28222e-07
-1.54732e-08
-2.31374e-07
-1.03952e-08
-2.33825e-07
-2.36624e-09
-2.35309e-07
9.81256e-09
-2.35483e-07
2.77018e-08
-2.33911e-07
5.32351e-08
-2.30046e-07
8.86513e-08
-2.23156e-07
1.36451e-07
-2.12375e-07
1.99227e-07
-1.96695e-07
2.79483e-07
-1.75018e-07
3.79417e-07
-1.46233e-07
5.00812e-07
-1.09292e-07
6.45627e-07
-6.32813e-08
8.16229e-07
-7.54697e-09
1.0155e-06
5.84176e-08
1.24714e-06
1.35686e-07
1.51548e-06
2.25144e-07
1.82461e-06
3.27574e-07
2.17603e-06
4.44249e-07
2.56759e-06
5.7605e-07
2.99357e-06
7.22848e-07
3.44559e-06
8.82725e-07
3.91337e-06
1.05251e-06
4.38546e-06
1.22868e-06
4.85133e-06
1.40704e-06
5.30249e-06
1.58265e-06
5.73301e-06
1.75191e-06
6.14041e-06
1.91192e-06
6.52381e-06
2.0611e-06
6.88228e-06
2.19948e-06
7.21523e-06
2.32698e-06
7.52236e-06
2.44352e-06
7.80402e-06
2.54877e-06
8.06112e-06
2.64252e-06
8.29503e-06
2.72475e-06
8.50744e-06
2.79561e-06
8.70016e-06
2.85539e-06
8.87501e-06
2.90441e-06
9.03385e-06
2.94311e-06
9.17852e-06
2.97173e-06
9.31002e-06
2.99049e-06
9.42953e-06
2.99951e-06
9.5375e-06
2.99908e-06
9.63446e-06
2.98917e-06
9.72099e-06
2.96927e-06
9.79771e-06
2.93842e-06
9.864e-06
2.89741e-06
9.91912e-06
2.84592e-06
9.96281e-06
2.78258e-06
9.99453e-06
2.70669e-06
1.00132e-05
2.61779e-06
1.00177e-05
2.51487e-06
1.0007e-05
2.39641e-06
9.97989e-06
2.26114e-06
9.93478e-06
2.10794e-06
9.87007e-06
1.9352e-06
9.78679e-06
1.69561e-06
9.68809e-06
1.41582e-06
9.57556e-06
1.15437e-06
9.4509e-06
9.10624e-07
9.31624e-06
6.8434e-07
9.17351e-06
4.75888e-07
9.02293e-06
2.85143e-07
8.86433e-06
1.10623e-07
8.69793e-06
-4.94667e-08
8.52414e-06
-1.96083e-07
8.34347e-06
-3.30056e-07
8.1568e-06
-4.5266e-07
7.96526e-06
-5.65047e-07
7.76987e-06
-6.68235e-07
7.5716e-06
-7.63255e-07
7.37123e-06
-8.50713e-07
7.16922e-06
-9.31001e-07
6.96573e-06
-1.00453e-06
6.7609e-06
-1.07187e-06
6.55522e-06
-1.13351e-06
6.34962e-06
-1.18974e-06
6.14557e-06
-1.24042e-06
5.94487e-06
-1.28492e-06
5.74834e-06
-1.32242e-06
5.55507e-06
-1.35347e-06
5.3643e-06
-1.3803e-06
5.17627e-06
-1.40497e-06
4.99147e-06
-1.42846e-06
4.81038e-06
-1.45125e-06
4.63345e-06
-1.47365e-06
4.46104e-06
-1.49583e-06
4.29346e-06
-1.51787e-06
4.13098e-06
-1.53973e-06
3.97376e-06
-1.5613e-06
3.82195e-06
-1.58243e-06
-1.60293e-06
-2.11271e-09
-3.03955e-07
-5.18926e-09
-1.29407e-07
-6.6164e-09
-1.42379e-07
-7.24638e-09
-1.55561e-07
-7.40932e-09
-1.64031e-07
-7.29292e-09
-1.7078e-07
-6.9831e-09
-1.76787e-07
-6.5208e-09
-1.82415e-07
-5.92649e-09
-1.87824e-07
-5.19881e-09
-1.93087e-07
-4.34378e-09
-1.98235e-07
-3.36053e-09
-2.03278e-07
-2.24198e-09
-2.08213e-07
-9.73783e-10
-2.13028e-07
4.68498e-10
-2.17701e-07
2.12476e-09
-2.22206e-07
4.0606e-09
-2.26504e-07
6.38542e-09
-2.30547e-07
9.28208e-09
-2.34271e-07
1.30417e-08
-2.37585e-07
1.8089e-08
-2.40357e-07
2.50085e-08
-2.42402e-07
3.45815e-08
-2.43484e-07
4.78331e-08
-2.43298e-07
6.61339e-08
-2.41457e-07
9.1231e-08
-2.37472e-07
1.25247e-07
-2.30711e-07
1.70617e-07
-2.20388e-07
2.29947e-07
-2.05563e-07
3.05834e-07
-1.8518e-07
4.00682e-07
-1.58129e-07
5.16479e-07
-1.23344e-07
6.54765e-07
-7.98677e-08
8.17388e-07
-2.69383e-08
1.00657e-06
3.59636e-08
1.22485e-06
1.0929e-07
1.47515e-06
1.93953e-07
1.76061e-06
2.90588e-07
2.08393e-06
3.99524e-07
2.44532e-06
5.21342e-07
2.84156e-06
6.56268e-07
3.2665e-06
8.03742e-07
3.71202e-06
9.61523e-07
4.1685e-06
1.12617e-06
4.62639e-06
1.29402e-06
5.07717e-06
1.46114e-06
5.51436e-06
1.62391e-06
5.9346e-06
1.77924e-06
6.33596e-06
1.92562e-06
6.71633e-06
2.06315e-06
7.07398e-06
2.19112e-06
7.40786e-06
2.30864e-06
7.71753e-06
2.41508e-06
8.0031e-06
2.51005e-06
8.26516e-06
2.59333e-06
8.50468e-06
2.66489e-06
8.72297e-06
2.72482e-06
8.92143e-06
2.77327e-06
9.10146e-06
2.81047e-06
9.26433e-06
2.83663e-06
9.41139e-06
2.85202e-06
9.54416e-06
2.85641e-06
9.66323e-06
2.85019e-06
9.76792e-06
2.83373e-06
9.85778e-06
2.80755e-06
9.9342e-06
2.76951e-06
9.99776e-06
2.71902e-06
1.00475e-05
2.6569e-06
1.00823e-05
2.58301e-06
1.0101e-05
2.49625e-06
1.01027e-05
2.39463e-06
1.00863e-05
2.27756e-06
1.005e-05
2.14427e-06
9.99206e-06
1.99311e-06
9.91341e-06
1.77427e-06
9.81702e-06
1.5122e-06
9.70448e-06
1.26691e-06
9.57739e-06
1.03772e-06
9.43758e-06
8.24151e-07
9.28739e-06
6.26079e-07
9.12899e-06
4.43542e-07
8.9635e-06
2.76108e-07
8.79091e-06
1.23129e-07
8.61143e-06
-1.66027e-08
8.42567e-06
-1.44296e-07
8.2343e-06
-2.61291e-07
8.03803e-06
-3.68777e-07
7.83752e-06
-4.67724e-07
7.6329e-06
-5.58641e-07
7.42449e-06
-6.42296e-07
7.21274e-06
-7.19256e-07
6.99815e-06
-7.89945e-07
6.78118e-06
-8.54892e-07
6.56239e-06
-9.14719e-07
6.34266e-06
-9.70005e-07
6.12338e-06
-1.02114e-06
5.90657e-06
-1.06811e-06
5.69449e-06
-1.11034e-06
5.48801e-06
-1.14699e-06
5.28621e-06
-1.17849e-06
5.08824e-06
-1.20701e-06
4.89428e-06
-1.2345e-06
4.70477e-06
-1.26174e-06
4.52016e-06
-1.28903e-06
4.34078e-06
-1.31646e-06
4.16695e-06
-1.34404e-06
3.99887e-06
-1.37165e-06
3.83669e-06
-1.39912e-06
3.68051e-06
-1.42625e-06
3.53036e-06
-1.45279e-06
3.38623e-06
-1.47851e-06
3.24808e-06
-1.50318e-06
3.11581e-06
-1.52661e-06
-1.5486e-06
-1.89301e-09
-3.02062e-07
-3.99031e-09
-1.27312e-07
-4.16126e-09
-1.4221e-07
-3.57061e-09
-1.56153e-07
-2.56168e-09
-1.65041e-07
-1.28738e-09
-1.72055e-07
1.90694e-10
-1.78266e-07
1.84664e-09
-1.84071e-07
3.66968e-09
-1.89647e-07
5.67067e-09
-1.95088e-07
7.85286e-09
-2.00417e-07
1.02229e-08
-2.05648e-07
1.27897e-08
-2.1078e-07
1.55648e-08
-2.15803e-07
1.85625e-08
-2.20699e-07
2.1802e-08
-2.25445e-07
2.53101e-08
-2.30012e-07
2.91261e-08
-2.34363e-07
3.3311e-08
-2.38456e-07
3.79634e-08
-2.42237e-07
4.32455e-08
-2.45639e-07
4.94146e-08
-2.48572e-07
5.68423e-08
-2.50911e-07
6.60317e-08
-2.52487e-07
7.76541e-08
-2.53079e-07
9.25987e-08
-2.52416e-07
1.12045e-07
-2.50158e-07
1.37534e-07
-2.45876e-07
1.70994e-07
-2.39023e-07
2.14717e-07
-2.28903e-07
2.71254e-07
-2.14667e-07
3.4324e-07
-1.9533e-07
4.33194e-07
-1.69822e-07
5.43324e-07
-1.37068e-07
6.75364e-07
-9.6077e-08
8.30694e-07
-4.60394e-08
1.01098e-06
1.36705e-08
1.21814e-06
8.34231e-08
1.45419e-06
1.63471e-07
1.72104e-06
2.545e-07
2.0203e-06
3.57002e-07
2.35333e-06
4.70711e-07
2.71933e-06
5.95529e-07
3.11456e-06
7.30941e-07
3.53289e-06
8.75687e-07
3.96637e-06
1.02766e-06
4.40666e-06
1.18362e-06
4.84616e-06
1.33973e-06
5.27879e-06
1.493e-06
5.70089e-06
1.64104e-06
6.10955e-06
1.78246e-06