/*--------------------------------*- C++ -*----------------------------------*\
  =========                 |
  \\      /  F ield         | OpenFOAM: The Open Source CFD Toolbox
   \\    /   O peration     | Website:  https://openfoam.org
    \\  /    A nd           | Version:  10
     \\/     M anipulation  |
\*---------------------------------------------------------------------------*/
FoamFile
{
    format      ascii;
    class       volScalarField;
    location    "67000";
    object      p;
}
// * * * * * * * * * * * * * * * * * * * * * * * * * * * * * * * * * * * * * //

dimensions      [0 2 -2 0 0 0 0];

internalField   nonuniform List<scalar> 
17981
(
2.20843e-05
0.0553688
0.109039
0.161091
0.211573
0.260527
0.307996
0.354019
0.398639
0.441893
0.483822
0.524463
0.563854
0.602032
0.639033
0.674893
0.709645
0.743324
0.775962
0.807592
0.838244
0.867948
0.896734
0.924631
0.951667
0.977867
1.00326
1.02787
1.05172
1.07484
1.09724
1.11896
1.14001
1.16041
1.18019
1.19936
1.21794
1.23596
1.25343
1.27036
1.28678
1.3027
1.31814
1.33311
1.34763
1.3617
1.37535
1.38859
-0.0109667
0.0449228
0.0991374
0.151722
0.202722
0.252178
0.300133
0.346629
0.391704
0.4354
0.477756
0.518809
0.558598
0.597159
0.634531
0.670747
0.705842
0.739852
0.772808
0.804743
0.835689
0.865675
0.894733
0.92289
0.950175
0.976614
1.00224
1.02706
1.05113
1.07444
1.09704
1.11894
1.14017
1.16074
1.18068
1.2
1.21874
1.23689
1.2545
1.27156
1.2881
1.30414
1.31969
1.33476
1.34938
1.36355
1.3773
1.39063
-0.0227821
0.0337273
0.088545
0.141716
0.193285
0.243293
0.291783
0.338796
0.384372
0.428552
0.471375
0.51288
0.553104
0.592086
0.629862
0.666468
0.701939
0.73631
0.769613
0.801882
0.833148
0.863442
0.892795
0.921235
0.948791
0.97549
1.00136
1.02643
1.05072
1.07425
1.09706
1.11916
1.14057
1.16133
1.18144
1.20093
1.21982
1.23813
1.25588
1.27308
1.28975
1.30591
1.32158
1.33677
1.3515
1.36577
1.37962
1.39304
0.183207
0.233809
0.282875
0.330444
0.376558
0.421257
0.46458
0.506568
0.547258
0.586688
0.624896
0.661917
0.697788
0.732542
0.766214
0.798837
0.830442
0.861062
0.890726
0.919465
0.947307
0.97428
1.00041
1.02573
1.05026
1.07402
1.09704
1.11935
1.14097
1.16191
1.1822
1.20187
1.22092
1.23939
1.25728
1.27463
1.29143
1.30773
1.32352
1.33882
1.35366
1.36804
1.38199
1.3955
0.172524
0.223768
0.273453
0.321622
0.368315
0.413573
0.457435
0.499942
0.541133
0.581045
0.619717
0.657184
0.693483
0.728649
0.762716
0.795718
0.827686
0.858654
0.888651
0.917708
0.945855
0.973119
0.99953
1.02511
1.04989
1.0739
1.09715
1.11968
1.14151
1.16265
1.18313
1.20298
1.22221
1.24084
1.25889
1.27638
1.29333
1.30976
1.32567
1.3411
1.35605
1.37055
1.38459
1.39821
0.161202
0.213131
0.263478
0.312286
0.359596
0.405448
0.449885
0.492944
0.534667
0.575091
0.614254
0.652194
0.688947
0.724548
0.759032
0.792433
0.824785
0.856118
0.886465
0.915857
0.944323
0.971893
0.998594
1.02445
1.0495
1.07376
1.09725
1.12001
1.14205
1.1634
1.18408
1.20411
1.22352
1.24232
1.26053
1.27818
1.29527
1.31184
1.32789
1.34344
1.35851
1.37311
1.38727
1.40098
0.201902
0.252952
0.302439
0.350405
0.39689
0.441936
0.485583
0.52787
0.568837
0.608523
0.646964
0.684197
0.720259
0.755185
0.789009
0.821765
0.853485
0.884201
0.913946
0.942748
0.970639
0.997646
1.0238
1.04912
1.07364
1.09739
1.12038
1.14265
1.16422
1.1851
1.20533
1.22492
1.2439
1.26228
1.28008
1.29732
1.31403
1.33021
1.34589
1.36109
1.3758
1.39007
1.40389
0.292033
0.340692
0.387846
0.433536
0.477804
0.520688
0.562229
0.602465
0.641435
0.679175
0.715722
0.751112
0.785379
0.818559
0.850684
0.881786
0.911899
0.941051
0.969275
0.996602
1.02306
1.04867
1.07346
1.09747
1.12071
1.14321
1.165
1.18609
1.20652
1.2263
1.24545
1.264
1.28196
1.29936
1.31621
1.33253
1.34834
1.36365
1.37849
1.39286
1.40678
0.330399
0.37826
0.424631
0.469553
0.513068
0.555214
0.596031
0.635556
0.673829
0.710886
0.746763
0.781496
0.815119
0.847667
0.879173
0.909669
0.939188
0.96776
0.995412
1.02218
1.04809
1.07316
1.09745
1.12097
1.14373
1.16575
1.18706
1.20769
1.22766
1.247
1.26572
1.28385
1.3014
1.3184
1.33486
1.3508
1.36624
1.38119
1.39567
1.4097
0.415166
0.460782
0.504962
0.547748
0.589178
0.629292
0.668127
0.705722
0.742113
0.777337
0.811428
0.844423
0.876354
0.907255
0.937159
0.966098
0.994102
1.0212
1.04741
1.07276
1.09728
1.12102
1.14401
1.16626
1.1878
1.20865
1.22882
1.24835
1.26725
1.28555
1.30326
1.32041
1.33701
1.35309
1.36865
1.38372
1.39832
1.41245
0.581814
0.62254
0.661961
0.700115
0.737039
0.77277
0.807344
0.840797
0.873164
0.904479
0.934775
0.964084
0.992438
1.01987
1.04642
1.07211
1.09697
1.12101
1.14425
1.16675
1.18851
1.20956
1.22994
1.24966
1.26874
1.2872
1.30507
1.32237
1.33911
1.35532
1.371
1.38619
1.4009
1.41513
0.573939
0.61531
0.655345
0.694085
0.731567
0.767829
0.802908
0.83684
0.869662
0.901409
0.932114
0.961812
0.990534
1.01831
1.04518
1.07116
1.09629
1.1206
1.14411
1.16685
1.18885
1.21013
1.23071
1.25062
1.26988
1.28852
1.30656
1.32401
1.34089
1.35723
1.37305
1.38836
1.40317
1.41751
0.565513
0.607553
0.648226
0.687573
0.725632
0.762443
0.798044
0.832472
0.865763
0.897955
0.929082
0.959179
0.988279
1.01642
1.04362
1.06992
1.09535
1.11995
1.14372
1.16671
1.18895
1.21045
1.23124
1.25135
1.2708
1.28961
1.3078
1.32541
1.34244
1.35891
1.37485
1.39028
1.40521
1.41965
0.556553
0.599282
0.640613
0.680585
0.719238
0.756612
0.792747
0.827681
0.861452
0.894098
0.925654
0.956156
0.98564
1.01414
1.04168
1.06831
1.09404
1.11892
1.14296
1.16621
1.18868
1.2104
1.2314
1.25171
1.27134
1.29033
1.30869
1.32644
1.34362
1.36023
1.37629
1.39184
1.40687
1.42142
0.590535
0.632535
0.673144
0.712403
0.750351
0.78703
0.822479
0.856737
0.889844
0.921836
0.95275
0.982622
1.01149
1.03938
1.06633
1.09237
1.11753
1.14185
1.16535
1.18805
1.21
1.23121
1.25172
1.27154
1.2907
1.30922
1.32712
1.34444
1.36118
1.37737
1.39303
1.40817
1.42282
0.581365
0.624044
0.665295
0.705163
0.743689
0.780915
0.816881
0.851629
0.885199
0.917627
0.948954
0.979214
1.00844
1.03668
1.06395
1.0903
1.11575
1.14034
1.16409
1.18703
1.2092
1.23063
1.25132
1.27132
1.29065
1.30933
1.32739
1.34484
1.36172
1.37803
1.3938
1.40905
1.4238
0.571864
0.615217
0.657109
0.697584
0.736685
0.774454
0.810936
0.846171
0.8802
0.913063
0.944799
0.975445
1.00504
1.03362
1.06121
1.08786
1.11359
1.13845
1.16245
1.18563
1.20802
1.22964
1.25053
1.27071
1.29021
1.30905
1.32725
1.34484
1.36184
1.37827
1.39415
1.4095
1.42434
0.606146
0.648665
0.689735
0.729401
0.767705
0.804692
0.840405
0.874886
0.908175
0.940313
0.971338
1.00129
1.0302
1.05811
1.08506
1.11107
1.13618
1.16043
1.18384
1.20644
1.22827
1.24934
1.2697
1.28936
1.30835
1.32669
1.34441
1.36153
1.37807
1.39406
1.40951
1.42444
0.596925
0.640054
0.681702
0.721914
0.760737
0.798215
0.834392
0.869312
0.903015
0.935543
0.966936
0.997232
1.02647
1.05469
1.08192
1.1082
1.13357
1.15805
1.18168
1.20449
1.22651
1.24777
1.2683
1.28811
1.30725
1.32573
1.34357
1.36081
1.37746
1.39355
1.40909
1.42411
0.587652
0.631362
0.673562
0.714298
0.753618
0.791566
0.828189
0.86353
0.897631
0.930534
0.96228
0.99291
1.02246
1.05097
1.07848
1.10502
1.13063
1.15535
1.17919
1.2022
1.22441
1.24584
1.26652
1.28649
1.30577
1.32437
1.34234
1.35969
1.37645
1.39263
1.40826
1.42336
0.578411
0.62267
0.665392
0.706625
0.746417
0.784814
0.821861
0.857603
0.892083
0.925343
0.957426
0.988374
1.01822
1.04702
1.07479
1.10158
1.12742
1.15235
1.1764
1.1996
1.22198
1.24358
1.26442
1.28453
1.30394
1.32267
1.34075
1.35821
1.37506
1.39133
1.40704
1.42222
0.569293
0.614062
0.657271
0.698969
0.739204
0.778021
0.815466
0.851583
0.886419
0.920015
0.952417
0.983663
1.0138
1.04286
1.07088
1.0979
1.12397
1.1491
1.17334
1.19672
1.21927
1.24103
1.26201
1.28226
1.30179
1.32064
1.33883
1.35639
1.37333
1.38969
1.40548
1.42072
0.56032
0.60554
0.649187
0.691334
0.732028
0.771287
0.809129
0.845594
0.880747
0.914648
0.947339
0.978861
1.00925
1.03856
1.06682
1.09406
1.12033
1.14565
1.17008
1.19363
1.21634
1.23824
1.25936
1.27973
1.29938
1.31834
1.33663
1.35428
1.37131
1.38774
1.40361
1.41892
0.551605
0.597238
0.641293
0.683841
0.724922
0.764551
0.802754
0.839571
0.875047
0.909233
0.942191
0.973968
1.00461
1.03414
1.06262
1.09007
1.11653
1.14204
1.16663
1.19034
1.2132
1.23524
1.25649
1.27698
1.29675
1.31581
1.33419
1.35193
1.36904
1.38555
1.40148
1.41685
0.543294
0.589312
0.633725
0.676584
0.717943
0.757854
0.796358
0.833487
0.869263
0.903727
0.936944
0.96897
0.999843
1.0296
1.05829
1.08593
1.11258
1.13827
1.16303
1.18689
1.20989
1.23207
1.25344
1.27405
1.29392
1.31308
1.33155
1.34937
1.36656
1.38314
1.39913
1.41457
0.535341
0.581705
0.626452
0.669619
0.711243
0.751389
0.790117
0.827475
0.863497
0.898217
0.931683
0.963945
0.995042
1.02501
1.0539
1.08174
1.10856
1.13442
1.15933
1.18334
1.20648
1.22878
1.25028
1.271
1.29097
1.31022
1.32878
1.34668
1.36394
1.38059
1.39664
1.41213
0.527719
0.574379
0.619415
0.66287
0.704772
0.745157
0.784095
0.82165
0.857872
0.892808
0.926499
0.958979
0.990285
1.02046
1.04953
1.07754
1.10454
1.13055
1.15561
1.17976
1.20303
1.22545
1.24706
1.26788
1.28795
1.3073
1.32594
1.34391
1.36124
1.37795
1.39406
1.4096
0.520433
0.567344
0.612626
0.65633
0.69849
0.739133
0.778297
0.816044
0.852444
0.887563
0.921452
0.954134
0.985633
1.01599
1.04523
1.07342
1.10057
1.12673
1.15193
1.17621
1.1996
1.22214
1.24386
1.26478
1.28494
1.30437
1.32309
1.34113
1.35853
1.3753
1.39146
1.40705
0.51349
0.56061
0.606099
0.650004
0.692375
0.733247
0.772646
0.810615
0.847223
0.882542
0.916623
0.949484
0.981153
1.01167
1.04108
1.06941
1.09671
1.12301
1.14834
1.17275
1.19626
1.2189
1.24072
1.26173
1.28198
1.30149
1.32029
1.3384
1.35586
1.37268
1.3889
1.40454
0.55421
0.599876
0.643959
0.686506
0.727561
0.767169
0.805364
0.842193
0.877714
0.91197
0.944993
0.976823
1.0075
1.03706
1.06554
1.09297
1.1194
1.14486
1.16939
1.19301
1.21576
1.23768
1.25878
1.27912
1.2987
1.31757
1.33575
1.35327
1.37015
1.38642
1.4021
0.54816
0.593985
0.638231
0.680942
0.722165
0.761943
0.800318
0.837332
0.873029
0.907451
0.940637
0.972625
1.00345
1.03316
1.06179
1.08936
1.11592
1.14151
1.16615
1.18989
1.21274
1.23475
1.25595
1.27637
1.29603
1.31497
1.33322
1.3508
1.36773
1.38405
1.39977
0.54244
0.588401
0.63279
0.675651
0.717027
0.756962
0.795498
0.832675
0.868533
0.903114
0.936455
0.968597
0.999577
1.02943
1.05819
1.08591
1.1126
1.13831
1.16307
1.18691
1.20987
1.23198
1.25327
1.27377
1.29352
1.31253
1.33084
1.34847
1.36546
1.38182
1.39759
0.537032
0.583111
0.627626
0.670619
0.712134
0.752213
0.790897
0.828224
0.864235
0.898968
0.932461
0.964751
0.995876
1.02587
1.05478
1.08262
1.10944
1.13528
1.16016
1.18411
1.20718
1.22938
1.25076
1.27135
1.29117
1.31025
1.32863
1.34632
1.36336
1.37978
1.39559
0.665833
0.707475
0.747687
0.786508
0.823979
0.860135
0.895016
0.928656
0.961094
0.992363
1.0225
1.05154
1.07952
1.10647
1.13243
1.15743
1.18149
1.20466
1.22697
1.24844
1.26911
1.28901
1.30817
1.32661
1.34436
1.36146
1.37792
1.39377
0.66128
0.703037
0.743372
0.782324
0.819929
0.856226
0.89125
0.925036
0.957619
0.989033
1.01931
1.04849
1.07661
1.10369
1.12977
1.15489
1.17907
1.20234
1.22475
1.24632
1.26708
1.28705
1.30628
1.32479
1.34261
1.35976
1.37627
1.39217
0.656942
0.698806
0.739256
0.77833
0.816066
0.852498
0.887661
0.92159
0.954317
0.985877
1.0163
1.04562
1.07387
1.10109
1.1273
1.15254
1.17683
1.20022
1.22273
1.24439
1.26524
1.2853
1.3046
1.32318
1.34106
1.35826
1.37482
1.39077
0.652801
0.694763
0.735321
0.774513
0.812373
0.848937
0.884237
0.918307
0.951178
0.982882
1.01345
1.04292
1.07131
1.09866
1.125
1.15036
1.17478
1.19828
1.2209
1.24266
1.2636
1.28375
1.30313
1.32177
1.33972
1.35698
1.37359
1.38958
0.648837
0.690889
0.731549
0.770853
0.808834
0.845526
0.880961
0.915171
0.948185
0.980035
1.01075
1.04036
1.0689
1.09639
1.12287
1.14836
1.1729
1.19652
1.21925
1.24111
1.26215
1.28238
1.30184
1.32056
1.33857
1.35589
1.37256
1.38859
0.645031
0.687166
0.727922
0.767333
0.80543
0.842248
0.877816
0.912164
0.945321
0.977318
1.00818
1.03794
1.06662
1.09426
1.12088
1.14651
1.17118
1.19492
1.21776
1.23973
1.26086
1.28119
1.30073
1.31953
1.33761
1.35499
1.37171
1.38779
0.641362
0.683575
0.724421
0.763933
0.802143
0.839083
0.874781
0.909266
0.942567
0.97471
1.00572
1.03563
1.06447
1.09225
1.11901
1.14478
1.16958
1.19345
1.21641
1.23849
1.25973
1.28015
1.29979
1.31866
1.33681
1.35426
1.37103
1.38716
0.637815
0.680099
0.721029
0.760637
0.798955
0.836012
0.871838
0.906459
0.939902
0.972193
1.00336
1.03342
1.0624
1.09034
1.11725
1.14316
1.1681
1.1921
1.21519
1.23739
1.25873
1.27926
1.29898
1.31794
1.33616
1.35368
1.37051
1.38669
0.634375
0.676723
0.71773
0.757429
0.795849
0.83302
0.86897
0.903724
0.937308
0.969745
1.00106
1.03128
1.06042
1.08851
1.11557
1.14163
1.16671
1.19085
1.21407
1.23639
1.25785
1.27847
1.29829
1.31734
1.33564
1.35322
1.37012
1.38636
0.631031
0.673436
0.714514
0.754296
0.792813
0.830093
0.866162
0.901046
0.934768
0.96735
0.998816
1.02919
1.05848
1.08673
1.11395
1.14016
1.16539
1.18967
1.21302
1.23547
1.25705
1.27779
1.29771
1.31685
1.33523
1.35289
1.36985
1.38614
0.627776
0.670229
0.71137
0.751229
0.789836
0.827218
0.863402
0.89841
0.932266
0.964992
0.996608
1.02713
1.05659
1.08499
1.11237
1.13874
1.16413
1.18855
1.21204
1.23463
1.25633
1.27718
1.2972
1.31644
1.3349
1.35264
1.36967
1.38602
0.624604
0.667097
0.708294
0.748222
0.786912
0.824389
0.86068
0.895807
0.929793
0.962658
0.994421
1.0251
1.05471
1.08328
1.11082
1.13735
1.16289
1.18747
1.2111
1.23382
1.25565
1.27662
1.29676
1.31609
1.33465
1.35247
1.36957
1.38598
0.621515
0.664038
0.705281
0.745271
0.784035
0.8216
0.857991
0.89323
0.92734
0.960339
0.992246
1.02308
1.05285
1.08158
1.10928
1.13597
1.16167
1.1864
1.21019
1.23305
1.25502
1.27611
1.29636
1.3158
1.33446
1.35235
1.36953
1.38601
0.61851
0.661053
0.702333
0.742375
0.781205
0.818849
0.855332
0.890676
0.924902
0.958029
0.990074
1.02105
1.05098
1.07987
1.10773
1.13459
1.16045
1.18535
1.20929
1.2323
1.2544
1.27563
1.296
1.31555
1.3343
1.35229
1.36954
1.38609
0.615594
0.658145
0.69945
0.739534
0.778422
0.816137
0.852703
0.888143
0.922477
0.955725
0.987902
1.01902
1.0491
1.07815
1.10617
1.1332
1.15923
1.18428
1.20838
1.23154
1.25379
1.27515
1.29565
1.31531
1.33417
1.35225
1.36958
1.3862
0.612773
0.65532
0.696639
0.736754
0.775689
0.813465
0.850106
0.885633
0.920067
0.953426
0.985727
1.01698
1.04721
1.07641
1.1046
1.13178
1.15798
1.1832
1.20746
1.23078
1.25318
1.27468
1.29531
1.31509
1.33406
1.35223
1.36965
1.38635
0.610047
0.652586
0.693906
0.734039
0.77301
0.810838
0.847544
0.883149
0.917674
0.951136
0.983553
1.01494
1.0453
1.07465
1.103
1.13035
1.15671
1.1821
1.20653
1.23001
1.25256
1.27421
1.29497
1.31487
1.33395
1.35223
1.36974
1.38651
0.607403
0.649943
0.691259
0.731398
0.770392
0.808261
0.845022
0.880696
0.915302
0.948857
0.98138
1.01288
1.04338
1.07287
1.10137
1.12888
1.15541
1.18097
1.20557
1.22921
1.25192
1.27372
1.29462
1.31465
1.33385
1.35223
1.36983
1.38669
0.604826
0.647379
0.6887
0.72884
0.767842
0.805739
0.842545
0.878278
0.912956
0.946596
0.979215
1.01083
1.04145
1.07107
1.09972
1.12739
1.15409
1.17981
1.20457
1.22839
1.25126
1.27321
1.29426
1.31443
1.33374
1.35223
1.36993
1.38687
0.602306
0.644876
0.686215
0.726364
0.765371
0.803281
0.840119
0.875901
0.910641
0.944356
0.977062
1.00878
1.03951
1.06926
1.09805
1.12587
1.15273
1.17862
1.20355
1.22753
1.25057
1.27268
1.29388
1.31418
1.33363
1.35224
1.37004
1.38706
0.642425
0.683787
0.723959
0.76298
0.800897
0.837752
0.873571
0.908364
0.942144
0.974928
1.00673
1.03757
1.06744
1.09636
1.12432
1.15134
1.17739
1.2025
1.22665
1.24985
1.27212
1.29348
1.31393
1.33351
1.35223
1.37014
1.38725
0.640025
0.681407
0.721606
0.760653
0.798587
0.835453
0.871293
0.906127
0.939965
0.972818
1.0047
1.03563
1.06561
1.09465
1.12276
1.14992
1.17614
1.20141
1.22573
1.24911
1.27154
1.29306
1.31366
1.33337
1.35222
1.37024
1.38745
0.719296
0.758374
0.796338
0.833224
0.869078
0.903938
0.937821
0.970735
1.00269
1.03371
1.06379
1.09294
1.12117
1.14848
1.17485
1.20028
1.22478
1.24833
1.27094
1.29261
1.31337
1.33323
1.3522
1.37033
1.38765
0.717025
0.756133
0.794131
0.83105
0.866927
0.901805
0.935719
0.968684
1.00071
1.0318
1.06197
1.09122
1.11957
1.14701
1.17354
1.19913
1.2238
1.24752
1.2703
1.29215
1.31306
1.33307
1.35218
1.37043
1.38784
0.753926
0.791957
0.828914
0.864826
0.899729
0.933666
0.966667
0.998744
1.0299
1.06015
1.08951
1.11797
1.14553
1.1722
1.19795
1.22278
1.24668
1.26964
1.29165
1.31273
1.33289
1.35214
1.37052
1.38804
0.751747
0.789811
0.826805
0.862757
0.897697
0.931662
0.96469
0.99681
1.02803
1.05835
1.08779
1.11635
1.14404
1.17084
1.19674
1.22173
1.24581
1.26894
1.29113
1.31238
1.3327
1.3521
1.3706
1.38823
0.749594
0.787689
0.824717
0.860709
0.895692
0.929696
0.962756
0.994908
1.02618
1.05657
1.08608
1.11474
1.14253
1.16945
1.1955
1.22065
1.2449
1.26821
1.29058
1.31201
1.33249
1.35204
1.37068
1.38843
0.785585
0.822648
0.858678
0.893702
0.92775
0.960851
0.993039
1.02435
1.05479
1.08438
1.11312
1.14101
1.16805
1.19423
1.21954
1.24395
1.26744
1.29
1.3116
1.33225
1.35196
1.37074
1.38862
0.783497
0.820593
0.856659
0.891723
0.925815
0.958961
0.991192
1.02254
1.05303
1.08268
1.1115
1.13948
1.16663
1.19294
1.21839
1.24297
1.26663
1.28937
1.31116
1.33199
1.35187
1.3708
1.38881
0.818546
0.854648
0.889751
0.923885
0.957076
0.989353
1.02074
1.05128
1.08098
1.10987
1.13793
1.16519
1.19162
1.21721
1.24194
1.26578
1.2887
1.31068
1.3317
1.35174
1.37083
1.38898
0.816506
0.852641
0.887782
0.921956
0.95519
0.987512
1.01895
1.04953
1.07929
1.10823
1.13638
1.16372
1.19026
1.21598
1.24087
1.26488
1.28798
1.31015
1.33136
1.35159
1.37085
1.38914
0.814468
0.850635
0.885812
0.920025
0.953301
0.985667
1.01715
1.04778
1.07759
1.10659
1.1348
1.16223
1.18887
1.21471
1.23974
1.26392
1.2872
1.30957
1.33097
1.35139
1.37082
1.38927
0.848626
0.883836
0.918087
0.951403
0.983811
1.01534
1.04602
1.07587
1.10492
1.1332
1.1607
1.18743
1.21339
1.23856
1.26289
1.28636
1.30891
1.33052
1.35114
1.37076
1.38938
0.846611
0.881853
0.916139
0.949493
0.981942
1.01351
1.04423
1.07413
1.10324
1.13157
1.15914
1.18596
1.21202
1.23731
1.2618
1.28544
1.30818
1.32999
1.35082
1.37064
1.38944
0.844587
0.879859
0.914178
0.947569
0.980057
1.01167
1.04243
1.07236
1.10151
1.1299
1.15753
1.18443
1.21058
1.23599
1.26062
1.28443
1.30737
1.32938
1.35042
1.37046
1.38945
0.877851
0.912201
0.945627
0.978152
1.0098
1.0406
1.07058
1.09976
1.12819
1.15588
1.18284
1.20908
1.23459
1.25936
1.28333
1.30645
1.32866
1.34993
1.37018
1.3894
0.875825
0.910205
0.943663
0.976224
1.00791
1.03875
1.06876
1.09798
1.12644
1.15417
1.18119
1.2075
1.23311
1.25799
1.28212
1.30541
1.32783
1.34931
1.36981
1.38925
0.873778
0.908184
0.941673
0.974268
1.00599
1.03687
1.06692
1.09617
1.12466
1.15241
1.17947
1.20585
1.23154
1.25653
1.28079
1.30426
1.32687
1.34857
1.3693
1.389
0.871707
0.906138
0.939654
0.97228
1.00404
1.03495
1.06504
1.09433
1.12284
1.15062
1.1777
1.20411
1.22986
1.25494
1.27933
1.30296
1.32577
1.34768
1.36866
1.38863
0.869612
0.904063
0.937604
0.970259
1.00205
1.03299
1.06312
1.09244
1.12099
1.1488
1.17589
1.20231
1.2281
1.25325
1.27774
1.30152
1.32451
1.34663
1.36784
1.3881
0.867493
0.901961
0.935523
0.968202
1.00002
1.031
1.06115
1.09051
1.1191
1.14693
1.17405
1.20047
1.22626
1.25145
1.27602
1.29992
1.32308
1.3454
1.36685
1.38739
0.865354
0.899835
0.933415
0.966114
0.997954
1.02896
1.05915
1.08854
1.11716
1.14502
1.17216
1.1986
1.22439
1.24957
1.27416
1.29815
1.32146
1.34397
1.36564
1.38652
0.863202
0.897695
0.931287
0.964001
0.99586
1.02689
1.0571
1.08652
1.11517
1.14307
1.17024
1.1967
1.22249
1.24764
1.27222
1.29624
1.31964
1.34229
1.36412
1.38538
0.861059
0.895561
0.929165
0.961891
0.993764
1.0248
1.05504
1.08448
1.11316
1.14109
1.16829
1.19478
1.22059
1.24574
1.27028
1.29426
1.3177
1.34048
1.36251
1.38399
0.858883
0.893401
0.927023
0.959768
0.99166
1.02272
1.05298
1.08245
1.11116
1.13912
1.16636
1.19288
1.21871
1.24387
1.26839
1.29232
1.31572
1.33858
1.3609
1.38269
0.856968
0.891463
0.925059
0.957783
0.989663
1.02072
1.05098
1.08047
1.10919
1.13718
1.16445
1.19101
1.21688
1.24209
1.26664
1.29057
1.31389
1.33661
1.35882
1.38071
0.854861
0.889489
0.923219
0.956071
0.988067
1.01923
1.04959
1.07915
1.10793
1.13596
1.16324
1.1898
1.21564
1.24077
1.26521
1.28894
1.31197
1.33428
1.35559
1.37568
2.46887
2.44104
2.41359
2.38652
2.35983
2.33352
2.30758
2.28202
2.25682
2.232
2.20754
2.18344
2.15971
2.13634
2.11332
2.09066
2.06834
2.04637
2.02475
2.00346
1.9825
1.96187
1.94156
1.92157
1.90188
1.8825
1.86341
1.84461
1.82609
1.80783
1.78984
1.7721
1.75459
1.73732
1.72027
1.70342
1.68677
1.67031
1.65401
1.63788
1.6219
1.60606
1.59035
1.57476
1.55928
1.54391
1.52865
1.5135
1.49847
1.48356
1.46876
1.45395
1.43916
1.42631
1.40383
2.46944
2.44165
2.41423
2.3872
2.36056
2.33429
2.3084
2.28288
2.25773
2.23296
2.20855
2.18451
2.16084
2.13752
2.11456
2.09196
2.0697
2.04779
2.02622
2.00499
1.9841
1.96352
1.94327
1.92334
1.90371
1.88438
1.86534
1.84659
1.82812
1.80991
1.79196
1.77426
1.7568
1.73957
1.72256
1.70575
1.68914
1.67271
1.65645
1.64035
1.6244
1.60857
1.59287
1.57728
1.56179
1.54638
1.53106
1.51581
1.50063
1.4855
1.4704
1.45513
1.43926
1.42394
1.40591
2.46936
2.44159
2.41421
2.38721
2.3606
2.33436
2.30851
2.28303
2.25792
2.23319
2.20883
2.18483
2.1612
2.13793
2.11502
2.09246
2.07025
2.04839
2.02687
2.00569
1.98483
1.96431
1.9441
1.92421
1.90462
1.88533
1.86634
1.84762
1.82918
1.81101
1.79309
1.77542
1.75798
1.74078
1.72378
1.70699
1.6904
1.67398
1.65773
1.64164
1.62569
1.60988
1.59418
1.5786
1.56311
1.54772
1.53241
1.51717
1.502
1.48687
1.47174
1.45646
1.44054
1.42383
1.40581
2.46921
2.44147
2.41412
2.38715
2.36057
2.33437
2.30856
2.28312
2.25806
2.23337
2.20905
2.1851
2.16152
2.13829
2.11543
2.09292
2.07076
2.04895
2.02748
2.00634
1.98554
1.96506
1.9449
1.92505
1.9055
1.88625
1.86729
1.84861
1.8302
1.81205
1.79416
1.77651
1.7591
1.74191
1.72493
1.70815
1.69156
1.67515
1.6589
1.64281
1.62687
1.61106
1.59537
1.57979
1.56432
1.54894
1.53366
1.51846
1.50334
1.48825
1.47314
1.45787
1.44201
1.42501
1.40635
2.46913
2.44142
2.4141
2.38717
2.36063
2.33447
2.30869
2.28329
2.25827
2.23363
2.20935
2.18545
2.16191
2.13873
2.11592
2.09346
2.07134
2.04958
2.02815
2.00706
1.9863
1.96586
1.94574
1.92593
1.90642
1.88721
1.86828
1.84963
1.83125
1.81314
1.79527
1.77764
1.76025
1.74307
1.72611
1.70934
1.69277
1.67637
1.66013
1.64406
1.62813
1.61233
1.59666
1.58111
1.56566
1.55032
1.53508
1.51992
1.50483
1.48977
1.47465
1.45927
1.44327
1.42608
1.40699
2.46908
2.4414
2.41411
2.38721
2.3607
2.33458
2.30884
2.28348
2.2585
2.2339
2.20967
2.18581
2.16232
2.13918
2.11641
2.09399
2.07192
2.0502
2.02882
2.00777
1.98705
1.96665
1.94657
1.92679
1.90732
1.88814
1.86924
1.85062
1.83226
1.81417
1.79632
1.77871
1.76133
1.74417
1.72722
1.71047
1.6939
1.67752
1.6613
1.64523
1.62932
1.61354
1.59789
1.58236
1.56694
1.55163
1.53642
1.52129
1.50621
1.49113
1.47593
1.46038
1.44408
1.4266
1.40729
2.46904
2.44139
2.41413
2.38727
2.3608
2.33471
2.30901
2.28369
2.25875
2.23419
2.21
2.18618
2.16273
2.13964
2.11691
2.09453
2.07251
2.05082
2.02948
2.00847
1.98779
1.96742
1.94737
1.92763
1.90819
1.88903
1.87016
1.85156
1.83323
1.81515
1.79732
1.77973
1.76237
1.74522
1.72828
1.71154
1.69498
1.6786
1.6624
1.64634
1.63044
1.61468
1.59904
1.58353
1.56814
1.55285
1.53765
1.52252
1.50742
1.49228
1.47696
1.46117
1.44458
1.42686
1.40758
2.46902
2.4414
2.41418
2.38735
2.36091
2.33486
2.3092
2.28392
2.25902
2.23449
2.21034
2.18657
2.16315
2.1401
2.11741
2.09508
2.07309
2.05144
2.03014
2.00916
1.98851
1.96818
1.94816
1.92845
1.90903
1.8899
1.87105
1.85247
1.83416
1.8161
1.79829
1.78071
1.76335
1.74622
1.72929
1.71255
1.69601
1.67964
1.66344
1.64739
1.6315
1.61575
1.60013
1.58463
1.56925
1.55396
1.53876
1.52361
1.50846
1.49323
1.47772
1.46168
1.44484
1.42697
1.40786
2.46903
2.44144
2.41425
2.38745
2.36105
2.33503
2.3094
2.28416
2.2593
2.23481
2.2107
2.18696
2.16359
2.14058
2.11792
2.09562
2.07367
2.05206
2.03079
2.00984
1.98923
1.96892
1.94893
1.92924
1.90985
1.89074
1.87191
1.85335
1.83505
1.81701
1.7992
1.78164
1.76429
1.74716
1.73024
1.71351
1.69697
1.68061
1.66441
1.64838
1.63249
1.61674
1.60113
1.58563
1.57025
1.55495
1.53972
1.52453
1.50931
1.49394
1.47822
1.46193
1.4449
1.42696
1.40804
2.46905
2.4415
2.41433
2.38757
2.3612
2.33522
2.30963
2.28442
2.25959
2.23514
2.21107
2.18736
2.16403
2.14105
2.11843
2.09617
2.07425
2.05267
2.03143
2.01051
1.98992
1.96965
1.94968
1.93001
1.91064
1.89155
1.87274
1.85419
1.8359
1.81787
1.80008
1.78251
1.76518
1.74805
1.73113
1.71441
1.69787
1.68151
1.66532
1.64928
1.63339
1.61765
1.60203
1.58653
1.57112
1.55581
1.54054
1.52529
1.50997
1.49442
1.47847
1.46198
1.44481
1.42685
1.40812
2.4691
2.44157
2.41444
2.38771
2.36137
2.33542
2.30986
2.28469
2.2599
2.23548
2.21144
2.18777
2.16447
2.14153
2.11894
2.09671
2.07482
2.05327
2.03206
2.01117
1.9906
1.97035
1.9504
1.93076
1.9114
1.89232
1.87352
1.85499
1.83671
1.81869
1.8009
1.78334
1.76601
1.74889
1.73197
1.71524
1.69871
1.68234
1.66615
1.65011
1.63422
1.61846
1.60283
1.58731
1.57189
1.55653
1.54122
1.52588
1.51041
1.49467
1.47852
1.46186
1.4446
1.42667
1.40812
2.46916
2.44166
2.41456
2.38786
2.36155
2.33564
2.31011
2.28497
2.26021
2.23583
2.21183
2.18819
2.16492
2.14201
2.11945
2.09725
2.07539
2.05386
2.03267
2.01181
1.99127
1.97103
1.9511
1.93147
1.91213
1.89307
1.87428
1.85575
1.83748
1.81946
1.80168
1.78412
1.76679
1.74966
1.73274
1.71602
1.69947
1.68311
1.6669
1.65085
1.63495
1.61918
1.60353
1.58799
1.57253
1.55714
1.54175
1.5263
1.51066
1.49473
1.47841
1.46164
1.44432
1.42644
1.40805
2.46924
2.44177
2.4147
2.38803
2.36175
2.33587
2.31038
2.28527
2.26054
2.23619
2.21221
2.18861
2.16537
2.14248
2.11996
2.09778
2.07594
2.05445
2.03328
2.01244
1.99191
1.97169
1.95178
1.93216
1.91283
1.89378
1.87499
1.85647
1.83821
1.82019
1.8024
1.78485
1.76751
1.75038
1.73346
1.71673
1.70018
1.6838
1.66758
1.65152
1.6356
1.61981
1.60414
1.58857
1.57307
1.55762
1.54214
1.52654
1.51073
1.49464
1.47819
1.46132
1.44398
1.42616
1.40791
2.46934
2.4419
2.41486
2.38822
2.36197
2.33612
2.31065
2.28557
2.26087
2.23655
2.21261
2.18903
2.16582
2.14296
2.12046
2.0983
2.07649
2.05502
2.03387
2.01304
1.99253
1.97233
1.95243
1.93282
1.9135
1.89445
1.87567
1.85716
1.83889
1.82087
1.80308
1.78553
1.76818
1.75105
1.73412
1.71737
1.70081
1.68442
1.66819
1.65211
1.63617
1.62036
1.60466
1.58905
1.5735
1.55797
1.54237
1.52662
1.51066
1.49443
1.47788
1.46094
1.4436
1.42584
1.40773
2.46946
2.44204
2.41503
2.38842
2.3622
2.33637
2.31094
2.28589
2.26122
2.23693
2.21301
2.18945
2.16627
2.14343
2.12096
2.09882
2.07703
2.05557
2.03444
2.01363
1.99313
1.97294
1.95305
1.93345
1.91413
1.89509
1.87632
1.8578
1.83953
1.82151
1.80372
1.78615
1.7688
1.75166
1.73472
1.71796
1.70139
1.68498
1.66873
1.65263
1.63667
1.62083
1.60509
1.58944
1.57383
1.55819
1.54246
1.52657
1.51048
1.49414
1.4775
1.46052
1.44318
1.4255
1.40751
2.4696
2.44221
2.41522
2.38863
2.36244
2.33664
2.31123
2.28621
2.26157
2.2373
2.21341
2.18988
2.16671
2.1439
2.12145
2.09933
2.07756
2.05612
2.035
2.0142
1.99371
1.97353
1.95365
1.93405
1.91474
1.8957
1.87692
1.8584
1.84013
1.82211
1.80431
1.78673
1.76937
1.75222
1.73526
1.71849
1.7019
1.68548
1.66921
1.65308
1.63709
1.62122
1.60545
1.58974
1.57404
1.55828
1.54242
1.52641
1.51021
1.49377
1.47707
1.46006
1.44275
1.42513
1.40726
2.46975
2.44238
2.41542
2.38886
2.36269
2.33692
2.31154
2.28654
2.26192
2.23768
2.21381
2.1903
2.16716
2.14437
2.12193
2.09983
2.07807
2.05665
2.03554
2.01475
1.99428
1.9741
1.95422
1.93463
1.91531
1.89627
1.8775
1.85897
1.8407
1.82266
1.80485
1.78727
1.7699
1.75273
1.73576
1.71897
1.70236
1.68591
1.66962
1.65347
1.63746
1.62155
1.60573
1.58994
1.57414
1.55826
1.54228
1.52616
1.50987
1.49336
1.47661
1.45959
1.4423
1.42475
1.40698
2.46991
2.44257
2.41564
2.3891
2.36296
2.33721
2.31185
2.28688
2.26228
2.23806
2.21421
2.19073
2.1676
2.14483
2.12241
2.10033
2.07858
2.05716
2.03607
2.01529
1.99482
1.97464
1.95477
1.93518
1.91586
1.89682
1.87803
1.85951
1.84122
1.82318
1.80536
1.78776
1.77038
1.75319
1.7362
1.7194
1.70277
1.6863
1.66998
1.65381
1.63776
1.62181
1.60592
1.59005
1.57413
1.55815
1.54207
1.52585
1.50948
1.49291
1.47612
1.4591
1.44184
1.42437
1.4067
2.4701
2.44278
2.41587
2.38936
2.36324
2.33751
2.31218
2.28722
2.26265
2.23845
2.21462
2.19115
2.16804
2.14529
2.12288
2.10081
2.07907
2.05767
2.03658
2.0158
1.99534
1.97517
1.95529
1.9357
1.91638
1.89733
1.87854
1.86001
1.84171
1.82366
1.80583
1.78822
1.77082
1.75362
1.73661
1.71978
1.70313
1.68664
1.6703
1.6541
1.63801
1.622
1.60603
1.59006
1.57404
1.55796
1.54179
1.52549
1.50905
1.49243
1.47562
1.4586
1.44138
1.42398
1.40641
2.4703
2.443
2.41611
2.38962
2.36353
2.33783
2.31251
2.28758
2.26302
2.23884
2.21503
2.19158
2.16848
2.14574
2.12334
2.10128
2.07956
2.05816
2.03708
2.01631
1.99584
1.97567
1.95579
1.9362
1.91688
1.89782
1.87902
1.86048
1.84218
1.82411
1.80626
1.78864
1.77122
1.754
1.73697
1.72013
1.70345
1.68694
1.67057
1.65434
1.6382
1.62212
1.60606
1.58999
1.57388
1.55771
1.54146
1.52509
1.5086
1.49194
1.47511
1.45811
1.44093
1.42359
1.40611
2.47052
2.44324
2.41637
2.3899
2.36383
2.33815
2.31285
2.28794
2.2634
2.23924
2.21544
2.192
2.16892
2.14619
2.1238
2.10175
2.08003
2.05864
2.03756
2.01679
1.99633
1.97616
1.95628
1.93668
1.91735
1.89829
1.87948
1.86092
1.84261
1.82453
1.80667
1.78903
1.77159
1.75435
1.73731
1.72044
1.70374
1.6872
1.67081
1.65452
1.63832
1.62216
1.60602
1.58985
1.57366
1.55741
1.54109
1.52467
1.50812
1.49144
1.4746
1.45761
1.44048
1.4232
1.40581
2.47075
2.4435
2.41665
2.3902
2.36414
2.33848
2.3132
2.2883
2.26378
2.23964
2.21585
2.19243
2.16936
2.14664
2.12426
2.10222
2.0805
2.05911
2.03804
2.01727
1.9968
1.97663
1.95674
1.93714
1.9178
1.89873
1.87991
1.86135
1.84302
1.82492
1.80705
1.78939
1.77193
1.75468
1.73761
1.72072
1.704
1.68743
1.671
1.65466
1.63838
1.62214
1.60591
1.58966
1.57339
1.55708
1.54069
1.52422
1.50763
1.49093
1.47409
1.45712
1.44003
1.42282
1.40552
2.471
2.44377
2.41694
2.39051
2.36447
2.33882
2.31356
2.28868
2.26418
2.24004
2.21627
2.19286
2.1698
2.14708
2.12471
2.10268
2.08097
2.05958
2.0385
2.01773
1.99726
1.97709
1.9572
1.93758
1.91824
1.89916
1.88033
1.86175
1.8434
1.82529
1.8074
1.78972
1.77225
1.75498
1.73789
1.72098
1.70423
1.68763
1.67114
1.65473
1.63838
1.62206
1.60574
1.58943
1.57309
1.55671
1.54027
1.52375
1.50714
1.49042
1.47359
1.45664
1.43959
1.42244
1.40522
2.47127
2.44406
2.41724
2.39083
2.36481