/*--------------------------------*- C++ -*----------------------------------*\
  =========                 |
  \\      /  F ield         | OpenFOAM: The Open Source CFD Toolbox
   \\    /   O peration     | Website:  https://openfoam.org
    \\  /    A nd           | Version:  10
     \\/     M anipulation  |
\*---------------------------------------------------------------------------*/
FoamFile
{
    format      ascii;
    class       surfaceScalarField;
    location    "67000";
    object      phi;
}
// * * * * * * * * * * * * * * * * * * * * * * * * * * * * * * * * * * * * * //

dimensions      [0 3 -1 0 0 0 0];

internalField   nonuniform List<scalar> 
35585
(
6.67025e-06
-4.12806e-06
6.5398e-06
-4.12016e-06
6.40945e-06
-4.10718e-06
6.27938e-06
-4.08977e-06
6.14979e-06
-4.06853e-06
6.02087e-06
-4.044e-06
5.89287e-06
-4.01664e-06
5.76599e-06
-3.98684e-06
5.64048e-06
-3.95494e-06
5.51656e-06
-3.92123e-06
5.39444e-06
-3.88591e-06
5.27432e-06
-3.8492e-06
5.15639e-06
-3.81122e-06
5.04082e-06
-3.77211e-06
4.92774e-06
-3.73195e-06
4.81727e-06
-3.69083e-06
4.70953e-06
-3.64882e-06
4.6046e-06
-3.60597e-06
4.50252e-06
-3.56234e-06
4.40334e-06
-3.51796e-06
4.3071e-06
-3.4729e-06
4.21379e-06
-3.4272e-06
4.12342e-06
-3.38089e-06
4.03598e-06
-3.33403e-06
3.95142e-06
-3.28666e-06
3.86972e-06
-3.23884e-06
3.79084e-06
-3.19061e-06
3.71471e-06
-3.14202e-06
3.6413e-06
-3.09312e-06
3.57053e-06
-3.04397e-06
3.50234e-06
-2.99461e-06
3.43666e-06
-2.94509e-06
3.37343e-06
-2.89547e-06
3.31257e-06
-2.84579e-06
3.25401e-06
-2.7961e-06
3.19767e-06
-2.74646e-06
3.1435e-06
-2.6969e-06
3.0914e-06
-2.64746e-06
3.04131e-06
-2.59821e-06
2.99317e-06
-2.54916e-06
2.94689e-06
-2.50037e-06
2.90242e-06
-2.45187e-06
2.85968e-06
-2.4037e-06
2.81862e-06
-2.35589e-06
2.77915e-06
-2.30846e-06
2.74124e-06
-2.26147e-06
2.7048e-06
-2.21491e-06
-2.16883e-06
2.66979e-06
7.00208e-06
-3.98382e-06
6.85806e-06
-3.97614e-06
6.7144e-06
-3.96352e-06
6.5713e-06
-3.94667e-06
6.42896e-06
-3.92619e-06
6.28761e-06
-3.90265e-06
6.14749e-06
-3.87651e-06
6.00884e-06
-3.84819e-06
5.87191e-06
-3.81801e-06
5.73694e-06
-3.78625e-06
5.60415e-06
-3.75313e-06
5.47376e-06
-3.71881e-06
5.34596e-06
-3.68342e-06
5.22092e-06
-3.64706e-06
5.09878e-06
-3.60981e-06
4.97967e-06
-3.57172e-06
4.86368e-06
-3.53283e-06
4.75089e-06
-3.49318e-06
4.64136e-06
-3.4528e-06
4.5351e-06
-3.41171e-06
4.43215e-06
-3.36995e-06
4.33249e-06
-3.32754e-06
4.23612e-06
-3.28451e-06
4.14299e-06
-3.2409e-06
4.05308e-06
-3.19675e-06
3.96633e-06
-3.15209e-06
3.88269e-06
-3.10696e-06
3.80208e-06
-3.06141e-06
3.72445e-06
-3.01549e-06
3.64971e-06
-2.96923e-06
3.5778e-06
-2.92269e-06
3.50862e-06
-2.87591e-06
3.4421e-06
-2.82895e-06
3.37816e-06
-2.78184e-06
3.31671e-06
-2.73465e-06
3.25766e-06
-2.68741e-06
3.20095e-06
-2.64018e-06
3.14648e-06
-2.59299e-06
3.09417e-06
-2.5459e-06
3.04394e-06
-2.49894e-06
2.99572e-06
-2.45215e-06
2.94943e-06
-2.40558e-06
2.905e-06
-2.35926e-06
2.86234e-06
-2.31323e-06
2.8214e-06
-2.26752e-06
2.7821e-06
-2.22216e-06
2.74438e-06
-2.17719e-06
-2.13263e-06
2.70817e-06
7.28758e-06
7.12959e-06
6.97225e-06
6.81574e-06
6.66029e-06
-3.77074e-06
6.50614e-06
-3.7485e-06
6.35356e-06
-3.72393e-06
6.2028e-06
-3.69743e-06
6.05415e-06
-3.66935e-06
5.90785e-06
-3.63995e-06
5.76415e-06
-3.60943e-06
5.62328e-06
-3.57794e-06
5.48544e-06
-3.54558e-06
5.35081e-06
-3.51243e-06
5.21953e-06
-3.47853e-06
5.09172e-06
-3.44391e-06
4.96747e-06
-3.40859e-06
4.84686e-06
-3.37257e-06
4.72991e-06
-3.33586e-06
4.61667e-06
-3.29847e-06
4.50712e-06
-3.2604e-06
4.40124e-06
-3.22167e-06
4.29902e-06
-3.18229e-06
4.2004e-06
-3.14229e-06
4.10533e-06
-3.10168e-06
4.01374e-06
-3.0605e-06
3.92556e-06
-3.01879e-06
3.84072e-06
-2.97657e-06
3.75912e-06
-2.93389e-06
3.68067e-06
-2.89079e-06
3.6053e-06
-2.84731e-06
3.53289e-06
-2.80351e-06
3.46337e-06
-2.75942e-06
3.39662e-06
-2.7151e-06
3.33256e-06
-2.67059e-06
3.2711e-06
-2.62595e-06
3.21213e-06
-2.58121e-06
3.15558e-06
-2.53643e-06
3.10133e-06
-2.49165e-06
3.04931e-06
-2.44692e-06
2.99943e-06
-2.40227e-06
2.95161e-06
-2.35776e-06
2.90576e-06
-2.31341e-06
2.8618e-06
-2.26927e-06
2.81965e-06
-2.22537e-06
2.77924e-06
-2.18176e-06
2.7405e-06
-2.13845e-06
-2.09548e-06
2.70335e-06
6.84679e-06
-3.60177e-06
6.67944e-06
-3.58115e-06
6.51399e-06
-3.55849e-06
6.35076e-06
-3.5342e-06
6.19004e-06
-3.50863e-06
6.03212e-06
-3.48203e-06
5.87726e-06
-3.45457e-06
5.7257e-06
-3.42638e-06
5.57767e-06
-3.39755e-06
5.43333e-06
-3.3681e-06
5.29285e-06
-3.33804e-06
5.15632e-06
-3.30739e-06
5.02384e-06
-3.27611e-06
4.89546e-06
-3.24419e-06
4.77122e-06
-3.21161e-06
4.65111e-06
-3.17835e-06
4.53512e-06
-3.14441e-06
4.42321e-06
-3.10976e-06
4.31535e-06
-3.07442e-06
4.21146e-06
-3.0384e-06
4.11147e-06
-3.00169e-06
4.0153e-06
-2.96433e-06
3.92286e-06
-2.92634e-06
3.83405e-06
-2.88776e-06
3.74877e-06
-2.8486e-06
3.66691e-06
-2.80893e-06
3.58837e-06
-2.76877e-06
3.51304e-06
-2.72818e-06
3.4408e-06
-2.68719e-06
3.37156e-06
-2.64586e-06
3.3052e-06
-2.60424e-06
3.24162e-06
-2.56237e-06
3.18071e-06
-2.5203e-06
3.12236e-06
-2.47809e-06
3.06648e-06
-2.43577e-06
3.01296e-06
-2.3934e-06
2.96171e-06
-2.35103e-06
2.91264e-06
-2.30869e-06
2.86566e-06
-2.26643e-06
2.82067e-06
-2.22428e-06
2.77759e-06
-2.1823e-06
2.73635e-06
-2.14051e-06
2.69685e-06
-2.09895e-06
-2.05766e-06
2.65903e-06
6.98955e-06
-3.41866e-06
6.80838e-06
-3.39998e-06
6.62951e-06
-3.37961e-06
6.45327e-06
-3.35797e-06
6.28001e-06
-3.33538e-06
6.11006e-06
-3.31208e-06
5.94371e-06
-3.28822e-06
5.78122e-06
-3.26389e-06
5.62281e-06
-3.23914e-06
5.46866e-06
-3.21395e-06
5.31892e-06
-3.1883e-06
5.1737e-06
-3.16216e-06
5.03305e-06
-3.13546e-06
4.89703e-06
-3.10817e-06
4.76564e-06
-3.08022e-06
4.63886e-06
-3.05158e-06
4.51666e-06
-3.02221e-06
4.39899e-06
-2.99209e-06
4.28577e-06
-2.96121e-06
4.17692e-06
-2.92954e-06
4.07234e-06
-2.89711e-06
3.97193e-06
-2.86392e-06
3.87557e-06
-2.82999e-06
3.78315e-06
-2.79534e-06
3.69455e-06
-2.76e-06
3.60964e-06
-2.72402e-06
3.52831e-06
-2.68744e-06
3.45043e-06
-2.65029e-06
3.37587e-06
-2.61263e-06
3.3045e-06
-2.5745e-06
3.23621e-06
-2.53595e-06
3.17088e-06
-2.49703e-06
3.10839e-06
-2.45781e-06
3.04862e-06
-2.41832e-06
2.99146e-06
-2.37861e-06
2.9368e-06
-2.33874e-06
2.88453e-06
-2.29876e-06
2.83456e-06
-2.25871e-06
2.78678e-06
-2.21865e-06
2.7411e-06
-2.1786e-06
2.69742e-06
-2.13862e-06
2.65565e-06
-2.09874e-06
2.61572e-06
-2.05902e-06
-2.01947e-06
2.57753e-06
7.08941e-06
6.89363e-06
-3.20421e-06
6.70061e-06
-3.18658e-06
6.51075e-06
-3.16811e-06
6.32445e-06
-3.14908e-06
6.14207e-06
-3.1297e-06
5.96393e-06
-3.11008e-06
5.79031e-06
-3.09027e-06
5.62143e-06
-3.07026e-06
5.45747e-06
-3.04998e-06
5.29855e-06
-3.02938e-06
5.14476e-06
-3.00837e-06
4.99615e-06
-2.98686e-06
4.85274e-06
-2.96475e-06
4.7145e-06
-2.94198e-06
4.58139e-06
-2.91847e-06
4.45336e-06
-2.89417e-06
4.3303e-06
-2.86904e-06
4.21214e-06
-2.84304e-06
4.09874e-06
-2.81615e-06
3.99e-06
-2.78837e-06
3.88579e-06
-2.7597e-06
3.78596e-06
-2.73016e-06
3.69039e-06
-2.69976e-06
3.59893e-06
-2.66854e-06
3.51143e-06
-2.63653e-06
3.42776e-06
-2.60377e-06
3.34777e-06
-2.5703e-06
3.27132e-06
-2.53618e-06
3.19827e-06
-2.50145e-06
3.12848e-06
-2.46616e-06
3.06183e-06
-2.43038e-06
2.99817e-06
-2.39415e-06
2.93739e-06
-2.35753e-06
2.87935e-06
-2.32057e-06
2.82394e-06
-2.28334e-06
2.77104e-06
-2.24587e-06
2.72054e-06
-2.20822e-06
2.67234e-06
-2.17044e-06
2.62632e-06
-2.13258e-06
2.58238e-06
-2.09469e-06
2.54044e-06
-2.0568e-06
2.5004e-06
-2.01897e-06
-1.98124e-06
2.46216e-06
6.93328e-06
6.72532e-06
6.52123e-06
-2.96401e-06
6.32144e-06
-2.94929e-06
6.12635e-06
-2.9346e-06
5.93628e-06
-2.92002e-06
5.75152e-06
-2.90551e-06
5.57227e-06
-2.89101e-06
5.39869e-06
-2.8764e-06
5.23088e-06
-2.86157e-06
5.06888e-06
-2.84638e-06
4.91272e-06
-2.8307e-06
4.76238e-06
-2.8144e-06
4.61779e-06
-2.79739e-06
4.47888e-06
-2.77956e-06
4.34555e-06
-2.76085e-06
4.21769e-06
-2.74117e-06
4.09515e-06
-2.7205e-06
3.9778e-06
-2.6988e-06
3.86549e-06
-2.67606e-06
3.75806e-06
-2.65228e-06
3.65536e-06
-2.62745e-06
3.55721e-06
-2.60161e-06
3.46345e-06
-2.57479e-06
3.37393e-06
-2.547e-06
3.28847e-06
-2.51831e-06
3.20692e-06
-2.48875e-06
3.12913e-06
-2.45838e-06
3.05492e-06
-2.42724e-06
2.98415e-06
-2.3954e-06
2.91668e-06
-2.36291e-06
2.85235e-06
-2.32983e-06
2.79103e-06
-2.29621e-06
2.73259e-06
-2.26213e-06
2.67689e-06
-2.22763e-06
2.6238e-06
-2.19278e-06
2.57321e-06
-2.15763e-06
2.525e-06
-2.12223e-06
2.47906e-06
-2.08663e-06
2.43527e-06
-2.0509e-06
2.39354e-06
-2.01507e-06
2.35376e-06
-1.9792e-06
-1.94332e-06
2.31585e-06
6.48124e-06
6.2679e-06
-2.73595e-06
6.06022e-06
-2.72692e-06
5.8585e-06
-2.7183e-06
5.663e-06
-2.71001e-06
5.47389e-06
-2.70189e-06
5.29127e-06
-2.69379e-06
5.11522e-06
-2.68551e-06
4.94573e-06
-2.67689e-06
4.78276e-06
-2.66773e-06
4.62626e-06
-2.6579e-06
4.47611e-06
-2.64725e-06
4.3322e-06
-2.63565e-06
4.19438e-06
-2.62303e-06
4.06251e-06
-2.6093e-06
3.9364e-06
-2.5944e-06
3.81589e-06
-2.57829e-06
3.70078e-06
-2.56096e-06
3.59091e-06
-2.5424e-06
3.48606e-06
-2.52261e-06
3.38607e-06
-2.50162e-06
3.29074e-06
-2.47945e-06
3.19988e-06
-2.45615e-06
3.11331e-06
-2.43174e-06
3.03085e-06
-2.40629e-06
2.95233e-06
-2.37985e-06
2.87757e-06
-2.35248e-06
2.80641e-06
-2.32423e-06
2.73868e-06
-2.29518e-06
2.67423e-06
-2.26538e-06
2.61292e-06
-2.2349e-06
2.55458e-06
-2.20379e-06
2.49908e-06
-2.17214e-06
2.44629e-06
-2.13999e-06
2.39608e-06
-2.10741e-06
2.34831e-06
-2.07446e-06
2.30288e-06
-2.0412e-06
2.25966e-06
-2.00768e-06
2.21855e-06
-1.97396e-06
2.17944e-06
-1.94009e-06
-1.90612e-06
2.14224e-06
6.15986e-06
5.94036e-06
5.72787e-06
-2.50582e-06
5.5226e-06
-2.50474e-06
5.32466e-06
-2.50395e-06
5.13409e-06
-2.50322e-06
4.9509e-06
-2.50232e-06
4.77502e-06
-2.50101e-06
4.60636e-06
-2.49907e-06
4.4448e-06
-2.49634e-06
4.29018e-06
-2.49263e-06
4.14233e-06
-2.48781e-06
4.00107e-06
-2.48177e-06
3.8662e-06
-2.47442e-06
3.7375e-06
-2.4657e-06
3.61478e-06
-2.45557e-06
3.4978e-06
-2.44399e-06
3.38637e-06
-2.43097e-06
3.28026e-06
-2.4165e-06
3.17926e-06
-2.40062e-06
3.08316e-06
-2.38335e-06
2.99175e-06
-2.36473e-06
2.90483e-06
-2.34482e-06
2.8222e-06
-2.32366e-06
2.74367e-06
-2.30132e-06
2.66905e-06
-2.27786e-06
2.59817e-06
-2.25335e-06
2.53085e-06
-2.22786e-06
2.46692e-06
-2.20144e-06
2.40621e-06
-2.17419e-06
2.34857e-06
-2.14615e-06
2.29384e-06
-2.11742e-06
2.2419e-06
-2.08804e-06
2.19258e-06
-2.0581e-06
2.14577e-06
-2.02765e-06
2.10134e-06
-1.99677e-06
2.05916e-06
-1.9655e-06
2.01912e-06
-1.93392e-06
1.98111e-06
-1.90208e-06
-1.87003e-06
1.94503e-06
5.54284e-06
5.32941e-06
5.12424e-06
4.92732e-06
4.73856e-06
-2.31355e-06
4.55782e-06
-2.32027e-06
4.38497e-06
-2.32622e-06
4.2198e-06
-2.33117e-06
4.0621e-06
-2.33494e-06
3.91167e-06
-2.33737e-06
3.76826e-06
-2.33836e-06
3.63163e-06
-2.33779e-06
3.50154e-06
-2.33561e-06
3.37775e-06
-2.33177e-06
3.26001e-06
-2.32625e-06
3.14807e-06
-2.31903e-06
3.0417e-06
-2.31013e-06
2.94066e-06
-2.29958e-06
2.84472e-06
-2.28741e-06
2.75366e-06
-2.27367e-06
2.66725e-06
-2.25841e-06
2.58528e-06
-2.24169e-06
2.50754e-06
-2.22358e-06
2.43382e-06
-2.20415e-06
2.36394e-06
-2.18347e-06
2.29771e-06
-2.16162e-06
2.23494e-06
-2.13867e-06
2.17546e-06
-2.11471e-06
2.11912e-06
-2.0898e-06
2.06574e-06
-2.06404e-06
2.01517e-06
-2.03748e-06
1.96728e-06
-2.01021e-06
1.92192e-06
-1.98229e-06
1.87896e-06
-1.95381e-06
1.83828e-06
-1.92482e-06
1.79975e-06
-1.89539e-06
1.76326e-06
-1.86559e-06
-1.83547e-06
1.7287e-06
4.48117e-06
-2.12123e-06
4.29752e-06
-2.13663e-06
4.12232e-06
-2.15102e-06
3.95532e-06
-2.16416e-06
3.79625e-06
-2.17587e-06
3.64485e-06
-2.18597e-06
3.50083e-06
-2.19434e-06
3.36392e-06
-2.20088e-06
3.23384e-06
-2.20553e-06
3.1103e-06
-2.20824e-06
2.99305e-06
-2.20899e-06
2.8818e-06
-2.20778e-06
2.77629e-06
-2.20462e-06
2.67627e-06
-2.19956e-06
2.58148e-06
-2.19263e-06
2.49168e-06
-2.18387e-06
2.40664e-06
-2.17337e-06
2.32612e-06
-2.16118e-06
2.24991e-06
-2.14738e-06
2.1778e-06
-2.13204e-06
2.10959e-06
-2.11526e-06
2.04507e-06
-2.09711e-06
1.98407e-06
-2.07767e-06
1.9264e-06
-2.05704e-06
1.87188e-06
-2.03529e-06
1.82037e-06
-2.01252e-06
1.77169e-06
-1.9888e-06
1.72569e-06
-1.96421e-06
1.68224e-06
-1.93884e-06
1.64119e-06
-1.91276e-06
1.60242e-06
-1.88605e-06
1.5658e-06
-1.85877e-06
1.53121e-06
-1.831e-06
-1.80281e-06
1.49855e-06
4.18262e-06
-1.92754e-06
3.99812e-06
-1.95212e-06
3.82252e-06
-1.97541e-06
3.65551e-06
-1.99715e-06
3.49678e-06
-2.01714e-06
3.34602e-06
-2.03521e-06
3.2029e-06
-2.05123e-06
3.06713e-06
-2.06511e-06
2.93838e-06
-2.07678e-06
2.81635e-06
-2.08621e-06
2.70076e-06
-2.09339e-06
2.5913e-06
-2.09832e-06
2.48769e-06
-2.10102e-06
2.38967e-06
-2.10154e-06
2.29697e-06
-2.09992e-06
2.20933e-06
-2.09623e-06
2.12651e-06
-2.09055e-06
2.04827e-06
-2.08294e-06
1.97439e-06
-2.07349e-06
1.90463e-06
-2.06229e-06
1.83881e-06
-2.04943e-06
1.7767e-06
-2.035e-06
1.71811e-06
-2.01909e-06
1.66287e-06
-2.00179e-06
1.61078e-06
-1.98321e-06
1.56169e-06
-1.96343e-06
1.51543e-06
-1.94253e-06
1.47184e-06
-1.92062e-06
1.43078e-06
-1.89778e-06
1.3921e-06
-1.87409e-06
1.35567e-06
-1.84962e-06
1.32138e-06
-1.82447e-06
1.28908e-06
-1.79871e-06
-1.7724e-06
1.25868e-06
3.84974e-06
-1.73484e-06
3.66659e-06
-1.76898e-06
3.49265e-06
-1.80147e-06
3.32756e-06
-1.83206e-06
3.17096e-06
-1.86054e-06
3.02251e-06
-1.88675e-06
2.88185e-06
-1.91057e-06
2.74866e-06
-1.93191e-06
2.62259e-06
-1.95072e-06
2.50334e-06
-1.96696e-06
2.39058e-06
-1.98063e-06
2.28402e-06
-1.99176e-06
2.18336e-06
-2.00036e-06
2.08832e-06
-2.0065e-06
1.99863e-06
-2.01023e-06
1.91402e-06
-2.01163e-06
1.83425e-06
-2.01077e-06
1.75906e-06
-2.00775e-06
1.68822e-06
-2.00265e-06
1.6215e-06
-1.99558e-06
1.55869e-06
-1.98662e-06
1.49959e-06
-1.97589e-06
1.44399e-06
-1.96348e-06
1.3917e-06
-1.9495e-06
1.34254e-06
-1.93405e-06
1.29634e-06
-1.91723e-06
1.25294e-06
-1.89913e-06
1.21217e-06
-1.87986e-06
1.17389e-06
-1.8595e-06
1.13796e-06
-1.83815e-06
1.10424e-06
-1.8159e-06
1.0726e-06
-1.79283e-06
1.04292e-06
-1.76903e-06
-1.74457e-06
1.01508e-06
3.49062e-06
3.31106e-06
-1.58942e-06
3.14083e-06
-1.63124e-06
2.97955e-06
-1.67078e-06
2.82683e-06
-1.70783e-06
2.68231e-06
-1.74223e-06
2.54561e-06
-1.77387e-06
2.41639e-06
-1.80269e-06
2.29429e-06
-1.82862e-06
2.179e-06
-1.85167e-06
2.07019e-06
-1.87182e-06
1.96754e-06
-1.88911e-06
1.87077e-06
-1.90359e-06
1.77959e-06
-1.91531e-06
1.69371e-06
-1.92435e-06
1.61288e-06
-1.93079e-06
1.53683e-06
-1.93472e-06
1.46532e-06
-1.93624e-06
1.39812e-06
-1.93544e-06
1.33498e-06
-1.93244e-06
1.27571e-06
-1.92735e-06
1.22008e-06
-1.92027e-06
1.16791e-06
-1.91131e-06
1.11899e-06
-1.90059e-06
1.07315e-06
-1.88821e-06
1.03021e-06
-1.87429e-06
9.90014e-07
-1.85893e-06
9.52393e-07
-1.84224e-06
9.17202e-07
-1.82431e-06
8.84296e-07
-1.80525e-06
8.5354e-07
-1.78515e-06
8.24807e-07
-1.7641e-06
7.97973e-07
-1.7422e-06
-1.71952e-06
7.72923e-07
2.94075e-06
-1.41548e-06
2.7761e-06
-1.46659e-06
2.62033e-06
-1.51501e-06
2.47305e-06
-1.56055e-06
2.33387e-06
-1.60305e-06
2.20243e-06
-1.64243e-06
2.07836e-06
-1.67862e-06
1.96133e-06
-1.71159e-06
1.85099e-06
-1.74133e-06
1.74703e-06
-1.76786e-06
1.64915e-06
-1.79123e-06
1.55704e-06
-1.81148e-06
1.47042e-06
-1.82869e-06
1.38901e-06
-1.84295e-06
1.31256e-06
-1.85434e-06
1.2408e-06
-1.86296e-06
1.17349e-06
-1.86893e-06
1.11039e-06
-1.87235e-06
1.05129e-06
-1.87334e-06
9.95953e-07
-1.87201e-06
9.44186e-07
-1.8685e-06
8.95787e-07
-1.86291e-06
8.50566e-07
-1.85537e-06
8.08343e-07
-1.84599e-06
7.68943e-07
-1.83489e-06
7.32203e-07
-1.82219e-06
6.97965e-07
-1.808e-06
6.6608e-07
-1.79242e-06
6.36406e-07
-1.77557e-06
6.08808e-07
-1.75755e-06
5.83157e-07
-1.73845e-06
5.59332e-07
-1.71837e-06
-1.69741e-06
5.37219e-07
2.56559e-06
-1.24893e-06
2.40811e-06
-1.30912e-06
2.2593e-06
-1.3662e-06
2.11875e-06
-1.42e-06
1.9861e-06
-1.4704e-06
1.86097e-06
-1.5173e-06
1.74302e-06
-1.56067e-06
1.63191e-06
-1.60048e-06
1.52731e-06
-1.63673e-06
1.42892e-06
-1.66947e-06
1.33644e-06
-1.69874e-06
1.24957e-06
-1.72461e-06
1.16804e-06
-1.74717e-06
1.09158e-06
-1.76649e-06
1.01993e-06
-1.78269e-06
9.52849e-07
-1.79588e-06
8.90089e-07
-1.80617e-06
8.31423e-07
-1.81368e-06
7.7663e-07
-1.81854e-06
7.25498e-07
-1.82088e-06
6.77824e-07
-1.82082e-06
6.33415e-07
-1.8185e-06
5.92082e-07
-1.81403e-06
5.53646e-07
-1.80755e-06
5.1794e-07
-1.79919e-06
4.84799e-07
-1.78905e-06
4.54069e-07
-1.77727e-06
4.25603e-07
-1.76396e-06
3.9926e-07
-1.74923e-06
3.74905e-07
-1.73319e-06
3.52415e-07
-1.71596e-06
3.31669e-07
-1.69762e-06
-1.67829e-06
3.12551e-07
2.19542e-06
2.04635e-06
-1.16004e-06
1.90558e-06
-1.22543e-06
1.77275e-06
-1.28716e-06
1.64748e-06
-1.34513e-06
1.52944e-06
-1.39926e-06
1.41828e-06
-1.44952e-06
1.3137e-06
-1.49589e-06
1.21538e-06
-1.53841e-06
1.12303e-06
-1.57712e-06
1.03636e-06
-1.61208e-06
9.55102e-07
-1.64336e-06
8.78985e-07
-1.67105e-06
8.07753e-07
-1.69526e-06
7.4116e-07
-1.7161e-06
6.78966e-07
-1.73368e-06
6.20941e-07
-1.74814e-06
5.66864e-07
-1.7596e-06
5.1652e-07
-1.7682e-06
4.69704e-07
-1.77407e-06
4.2622e-07
-1.77734e-06
3.85877e-07
-1.77816e-06
3.48494e-07
-1.77665e-06
3.13899e-07
-1.77296e-06
2.81923e-07
-1.76721e-06
2.52408e-07
-1.75954e-06
2.25204e-07
-1.75006e-06
2.00163e-07
-1.73892e-06
1.7715e-07
-1.72622e-06
1.56034e-07
-1.71208e-06
1.36691e-07
-1.69662e-06
1.19002e-07
-1.67994e-06
-1.66214e-06
1.02857e-07
1.69965e-06
-1.02021e-06
1.56766e-06
-1.09344e-06
1.44317e-06
-1.16267e-06
1.32583e-06
-1.22779e-06
1.21533e-06
-1.28876e-06
1.11137e-06
-1.34556e-06
1.01366e-06
-1.39817e-06
9.21894e-07
-1.44665e-06
8.35816e-07
-1.49104e-06
7.55157e-07
-1.53142e-06
6.79659e-07
-1.56786e-06
6.09073e-07
-1.60046e-06
5.43158e-07
-1.62934e-06
4.8168e-07
-1.65462e-06
4.24414e-07
-1.67642e-06
3.71141e-07
-1.69487e-06
3.2165e-07
-1.71011e-06
2.75737e-07
-1.72229e-06
2.33205e-07
-1.73154e-06
1.93865e-07
-1.738e-06
1.57535e-07
-1.74183e-06
1.2404e-07
-1.74315e-06
9.32098e-08
-1.74213e-06
6.4885e-08
-1.73888e-06
3.89109e-08
-1.73356e-06
1.51394e-08
-1.72629e-06
-6.56973e-09
-1.71721e-06
-2.63506e-08
-1.70644e-06
-4.43313e-08
-1.6941e-06
-6.06326e-08
-1.68031e-06
-7.53706e-08
-1.6652e-06
-1.64886e-06
-8.86527e-08
1.37562e-06
-8.90075e-07
1.25278e-06
-9.70598e-07
1.13692e-06
-1.04681e-06
1.02774e-06
-1.11862e-06
9.24977e-07
-1.186e-06
8.28339e-07
-1.24892e-06
7.37569e-07
-1.3074e-06
6.52412e-07
-1.3615e-06
5.7262e-07
-1.41125e-06
4.97949e-07
-1.45675e-06
4.28166e-07
-1.49807e-06
3.63041e-07
-1.53534e-06
3.02351e-07
-1.56865e-06
2.45881e-07
-1.59815e-06
1.93419e-07
-1.62396e-06
1.44762e-07
-1.64621e-06
9.97095e-08
-1.66506e-06
5.80699e-08
-1.68065e-06
1.96575e-08
-1.69312e-06
-1.57084e-08
-1.70264e-06
-4.82026e-08
-1.70933e-06
-7.7992e-08
-1.71337e-06
-1.05238e-07
-1.71488e-06
-1.30097e-07
-1.71403e-06
-1.52718e-07
-1.71094e-06
-1.73243e-07
-1.70577e-06
-1.91809e-07
-1.69864e-06
-2.08545e-07
-1.6897e-06
-2.23576e-07
-1.67907e-06
-2.37021e-07
-1.66687e-06
-2.4899e-07
-1.65323e-06
-1.63826e-06
-2.59591e-07
1.0804e-06
-7.69745e-07
9.66753e-07
-8.56953e-07
8.59534e-07
-9.39587e-07
7.58488e-07
-1.01757e-06
6.63372e-07
-1.09088e-06
5.73953e-07
-1.1595e-06
4.89999e-07
-1.22345e-06
4.11287e-07
-1.28278e-06
3.37597e-07
-1.33756e-06
2.68713e-07
-1.38786e-06
2.04425e-07
-1.43379e-06
1.44527e-07
-1.47544e-06
8.88166e-08
-1.51294e-06
3.70956e-08
-1.54643e-06
-1.08277e-08
-1.57603e-06
-5.51434e-08
-1.6019e-06
-9.60345e-08
-1.62417e-06
-1.33681e-07
-1.643e-06
-1.68258e-07
-1.65855e-06
-1.99936e-07
-1.67096e-06
-2.28878e-07
-1.68039e-06
-2.55244e-07
-1.687e-06
-2.7919e-07
-1.69094e-06
-3.00863e-07
-1.69235e-06
-3.20405e-07
-1.6914e-06
-3.37956e-07
-1.68822e-06
-3.53646e-07
-1.68295e-06
-3.67602e-07
-1.67574e-06
-3.79943e-07
-1.66673e-06
-3.90786e-07
-1.65603e-06
-4.00237e-07
-1.64378e-06
-1.63009e-06
-4.08402e-07
8.18559e-07
-6.59027e-07
7.13883e-07
-7.52278e-07
6.15046e-07
-8.4075e-07
5.21849e-07
-9.24378e-07
4.34098e-07
-1.00313e-06
3.51597e-07
-1.077e-06
2.7415e-07
-1.146e-06
2.01562e-07
-1.2102e-06
1.33639e-07
-1.26964e-06
7.01943e-08
-1.32442e-06
1.10423e-08
-1.37463e-06
-4.39989e-08
-1.4204e-06
-9.51083e-08
-1.46183e-06
-1.42462e-07
-1.49908e-06
-1.86234e-07
-1.53226e-06
-2.26596e-07
-1.56153e-06
-2.63715e-07
-1.58705e-06
-2.97757e-07
-1.60896e-06
-3.28883e-07
-1.62742e-06
-3.57251e-07
-1.64259e-06
-3.83017e-07
-1.65462e-06
-4.0633e-07
-1.66369e-06
-4.27337e-07
-1.66993e-06
-4.46178e-07
-1.67351e-06
-4.62992e-07
-1.67458e-06
-4.77909e-07
-1.6733e-06
-4.91057e-07
-1.66981e-06
-5.02558e-07
-1.66424e-06
-5.12527e-07
-1.65676e-06
-5.21076e-07
-1.64748e-06
-5.28312e-07
-1.63654e-06
-1.62407e-06
-5.34334e-07
5.93248e-07
-5.57509e-07
4.971e-07
-6.5613e-07
4.06186e-07
-7.49836e-07
3.20377e-07
-8.3857e-07
2.39535e-07
-9.22287e-07
1.63502e-07
-1.00096e-06
9.21061e-08
-1.07461e-06
2.51755e-08
-1.14326e-06
-3.74559e-08
-1.20701e-06
-9.59482e-08
-1.26593e-06
-1.50459e-07
-1.32012e-06
-2.01142e-07
-1.36972e-06
-2.48151e-07
-1.41483e-06
-2.91638e-07
-1.45559e-06
-3.31756e-07
-1.49214e-06
-3.68656e-07
-1.52464e-06
-4.02488e-07
-1.55322e-06
-4.33402e-07
-1.57805e-06
-4.61545e-07
-1.59928e-06
-4.87062e-07
-1.61707e-06
-5.10099e-07
-1.63159e-06
-5.30795e-07
-1.64299e-06
-5.49289e-07
-1.65144e-06
-5.65714e-07
-1.65709e-06
-5.80201e-07
-1.6601e-06
-5.92876e-07
-1.66062e-06
-6.03863e-07
-1.65882e-06
-6.13276e-07
-1.65483e-06
-6.21231e-07
-1.6488e-06
-6.27835e-07
-1.64087e-06
-6.33191e-07
-1.63119e-06
-1.61986e-06
-6.37397e-07
4.06251e-07
-4.64625e-07
3.17965e-07
-5.67843e-07
2.3421e-07
-6.66081e-07
1.55021e-07
-7.59381e-07
8.04225e-08
-8.47688e-07
1.03179e-08
-9.30859e-07
-5.55011e-08
-1.00879e-06
-1.1727e-07
-1.0815e-06
-1.75156e-07
-1.14912e-06
-2.29271e-07
-1.21181e-06
-2.79729e-07
-1.26966e-06
-3.2665e-07
-1.3228e-06
-3.70152e-07
-1.37132e-06
-4.1036e-07
-1.41538e-06
-4.474e-07
-1.4551e-06
-4.81403e-07
-1.49063e-06
-5.12499e-07
-1.52212e-06
-5.40821e-07
-1.54972e-06
-5.66502e-07
-1.5736e-06
-5.89676e-07
-1.5939e-06
-6.10474e-07
-1.61079e-06
-6.29029e-07
-1.62443e-06
-6.4547e-07
-1.63499e-06
-6.59924e-07
-1.64263e-06
-6.72517e-07
-1.64751e-06
-6.83367e-07
-1.64977e-06
-6.92594e-07
-1.64959e-06
-7.00312e-07
-1.64711e-06
-7.0663e-07
-1.64248e-06
-7.11653e-07
-1.63585e-06
-7.15482e-07
-1.62736e-06
-1.61713e-06
-7.18213e-07
2.57011e-07
-3.79869e-07
1.76123e-07
-4.86955e-07
9.90152e-08
-5.88974e-07
2.57434e-08
-6.86109e-07
-4.35261e-08
-7.78419e-07
-1.08704e-07
-8.65681e-07
-1.6985e-07
-9.47643e-07
-2.27161e-07
-1.02418e-06
-2.80888e-07
-1.09539e-06
-3.31208e-07
-1.16149e-06
-3.78203e-07
-1.22267e-06
-4.21945e-07
-1.27905e-06
-4.62517e-07
-1.33075e-06
-5.00013e-07
-1.37788e-06
-5.34531e-07
-1.42058e-06
-5.6618e-07
-1.45898e-06
-5.95069e-07
-1.49323e-06
-6.21316e-07
-1.52348e-06
-6.45038e-07
-1.54987e-06
-6.66356e-07
-1.57258e-06
-6.85392e-07
-1.59175e-06
-7.02268e-07
-1.60756e-06
-7.17106e-07
-1.62016e-06
-7.30024e-07
-1.62971e-06
-7.41143e-07
-1.63639e-06
-7.50579e-07
-1.64034e-06
-7.58444e-07
-1.64173e-06
-7.6485e-07
-1.64071e-06
-7.69903e-07
-1.63743e-06
-7.73706e-07
-1.63205e-06
-7.76356e-07
-1.62471e-06
-1.61554e-06
-7.7795e-07
1.43125e-07
-3.02661e-07
6.9228e-08
-4.13058e-07
-1.43672e-09
-5.18309e-07
-6.89784e-08
-6.18568e-07
-1.33346e-07
-7.14051e-07
-1.94339e-07
-8.04688e-07
-2.51779e-07
-8.90203e-07
-3.05629e-07
-9.70335e-07
-3.56047e-07
-1.04498e-06
-4.03279e-07
-1.11426e-06
-4.47459e-07
-1.17849e-06
-4.88632e-07
-1.23788e-06
-5.26854e-07
-1.29253e-06
-5.62194e-07
-1.34254e-06
-5.94729e-07
-1.38805e-06
-6.24547e-07
-1.42917e-06
-6.5174e-07
-1.46604e-06
-6.76409e-07
-1.49881e-06
-6.98658e-07
-1.52762e-06
-7.18596e-07
-1.55264e-06
-7.36333e-07
-1.57402e-06
-7.51981e-07
-1.59191e-06
-7.65654e-07
-1.60648e-06
-7.77466e-07
-1.6179e-06
-7.87528e-07
-1.62632e-06
-7.95952e-07
-1.63191e-06
-8.02848e-07
-1.63483e-06
-8.08322e-07
-1.63523e-06
-8.12477e-07
-1.63328e-06
-8.15414e-07
-1.62911e-06
-8.1723e-07
-1.62289e-06
-1.61475e-06
-8.18018e-07
6.2908e-08
-2.32248e-07
-4.72986e-09
-3.4542e-07
-6.95668e-08
-4.53472e-07
-1.31717e-07
-5.56418e-07
-1.91316e-07
-6.54451e-07
-2.48283e-07
-7.47721e-07
-3.02395e-07
-8.36091e-07
-3.53464e-07
-9.19267e-07
-4.01422e-07
-9.97019e-07
-4.46368e-07
-1.06931e-06
-4.88446e-07
-1.13641e-06
-5.27719e-07
-1.19861e-06
-5.64227e-07
-1.25602e-06
-5.9802e-07
-1.30875e-06
-6.29159e-07
-1.35691e-06
-6.57714e-07
-1.40061e-06
-6.83764e-07
-1.43999e-06
-7.07392e-07
-1.47518e-06
-7.28691e-07
-1.50633e-06
-7.47756e-07
-1.53358e-06
-7.64688e-07
-1.55709e-06
-7.79587e-07
-1.57701e-06
-7.92562e-07
-1.59351e-06
-8.03716e-07
-1.60675e-06
-8.13157e-07
-1.61688e-06
-8.20991e-07
-1.62408e-06
-8.27322e-07
-1.6285e-06
-8.32255e-07
-1.6303e-06
-8.3589e-07
-1.62964e-06
-8.38325e-07
-1.62668e-06
-8.39657e-07
-1.62156e-06
-1.61443e-06
-8.39975e-07
1.46135e-08
-1.67916e-07
-4.75254e-08
-2.83281e-07
-1.0737e-07
-3.93628e-07
-1.64888e-07
-4.989e-07
-2.202e-07
-5.99139e-07
-2.73422e-07
-6.94498e-07
-3.24455e-07
-7.85058e-07
-3.73064e-07
-8.70658e-07
-4.19058e-07
-9.51025e-07
-4.62356e-07
-1.02602e-06
-5.02984e-07
-1.09578e-06
-5.4099e-07
-1.1606e-06
-5.764e-07
-1.22061e-06
-6.0925e-07
-1.2759e-06
-6.39584e-07
-1.32657e-06
-6.67456e-07
-1.37274e-06
-6.92927e-07
-1.41452e-06
-7.16068e-07
-1.45204e-06
-7.36954e-07
-1.48544e-06
-7.55669e-07
-1.51486e-06
-7.72303e-07
-1.54045e-06
-7.86946e-07
-1.56237e-06
-7.99695e-07
-1.58076e-06
-8.1065e-07
-1.59579e-06
-8.19911e-07
-1.60762e-06
-8.27578e-07
-1.61641e-06
-8.33753e-07
-1.62232e-06
-8.38535e-07
-1.62552e-06
-8.42024e-07
-1.62615e-06
-8.44315e-07
-1.62439e-06
-8.45503e-07
-1.62037e-06
-1.61426e-06
-8.45677e-07
-4.63645e-09
-1.09043e-07
-6.19322e-08
-2.25985e-07
-1.17516e-07
-3.38043e-07
-1.71258e-07
-4.45159e-07
-2.23101e-07
-5.47296e-07
-2.73122e-07
-6.44478e-07
-3.21393e-07
-7.36786e-07
-3.67818e-07
-8.24234e-07
-4.1217e-07
-9.06672e-07
-4.54247e-07
-9.83938e-07
-4.93933e-07
-1.0561e-06
-5.31196e-07
-1.12334e-06
-5.66045e-07
-1.18576e-06
-5.98495e-07
-1.24345e-06
-6.28569e-07
-1.2965e-06
-6.563e-07
-1.34501e-06
-6.81729e-07
-1.38909e-06
-7.04908e-07
-1.42886e-06
-7.25897e-07
-1.46445e-06
-7.44765e-07
-1.49599e-06
-7.61586e-07
-1.52363e-06
-7.76443e-07
-1.54751e-06
-7.89421e-07
-1.56778e-06
-8.00612e-07
-1.5846e-06
-8.10111e-07
-1.59812e-06
-8.18012e-07
-1.60851e-06
-8.24412e-07
-1.61592e-06
-8.29409e-07
-1.62052e-06
-8.331e-07
-1.62246e-06
-8.35577e-07
-1.62191e-06
-8.36937e-07
-1.61901e-06
-1.61393e-06
-8.37268e-07
1.48289e-09
-5.14855e-08
-1.73017e-07
-1.03341e-07
-2.86188e-07
-1.53933e-07
-3.94567e-07
-2.03117e-07
-4.98111e-07
-2.50798e-07
-5.96797e-07
-2.96974e-07
-6.9061e-07
-3.41635e-07
-7.79573e-07
-3.84643e-07
-8.63664e-07
-4.25768e-07
-9.42812e-07
-4.64826e-07
-1.01704e-06
-5.01736e-07
-1.08643e-06
-5.36459e-07
-1.15104e-06
-5.6897e-07
-1.21094e-06
-5.99259e-07
-1.26621e-06
-6.27328e-07
-1.31694e-06
-6.53192e-07
-1.36323e-06
-6.76881e-07
-1.40517e-06
-6.98433e-07
-1.4429e-06
-7.179e-07
-1.47653e-06
-7.35344e-07
-1.50619e-06
-7.50831e-07
-1.53202e-06
-7.64441e-07
-1.55417e-06
-7.76255e-07
-1.57279e-06
-7.8636e-07
-1.58802e-06
-7.94847e-07
-1.60003e-06
-8.01808e-07
-1.60896e-06
-8.07338e-07
-1.61499e-06
-8.11532e-07
-1.61827e-06
-8.14484e-07
-1.61895e-06
-8.16287e-07
-1.61721e-06
-1.61318e-06
-8.17033e-07
-2.05722e-08
-1.23928e-07
-6.91286e-08
-2.37631e-07
-1.16979e-07
-3.46717e-07
-1.63956e-07
-4.51134e-07
-2.09906e-07
-5.50847e-07
-2.54684e-07
-6.45832e-07
-2.98182e-07
-7.36074e-07
-3.40283e-07
-8.21564e-07
-3.80803e-07
-9.02292e-07
-4.19577e-07
-9.78266e-07
-4.56492e-07
-1.04951e-06
-4.91458e-07
-1.11607e-06
-5.24407e-07
-1.17799e-06
-5.5529e-07
-1.23533e-06
-5.84075e-07
-1.28816e-06
-6.1075e-07
-1.33655e-06
-6.35317e-07
-1.38061e-06
-6.57794e-07
-1.42042e-06
-6.78216e-07
-1.45611e-06
-6.96625e-07
-1.48778e-06
-7.13077e-07
-1.51557e-06
-7.27638e-07
-1.53961e-06
-7.40382e-07
-1.56004e-06
-7.51387e-07
-1.57701e-06
-7.60741e-07
-1.59067e-06
-7.6853e-07
-1.60117e-06
-7.74849e-07
-1.60867e-06
-7.79788e-07
-1.61333e-06
-7.83442e-07
-1.6153e-06
-7.85906e-07
-1.61474e-06
-1.61182e-06
-7.87269e-07
2.64505e-08
-7.83175e-08
-1.91816e-08
-1.91999e-07
-6.46292e-08
-3.01269e-07
-1.0969e-07
-4.06073e-07
-1.5417e-07
-5.06368e-07
-1.9788e-07
-6.02122e-07
-2.40642e-07
-6.93312e-07
-2.82283e-07
-7.79923e-07
-3.22627e-07
-8.61948e-07
-3.61509e-07
-9.39385e-07
-3.98781e-07
-1.01224e-06
-4.3432e-07
-1.08053e-06
-4.68023e-07
-1.14429e-06
-4.99807e-07
-1.20355e-06
-5.2961e-07
-1.25835e-06
-5.57392e-07
-1.30877e-06
-5.83131e-07
-1.35487e-06
-6.06822e-07
-1.39673e-06
-6.28477e-07
-1.43445e-06
-6.48125e-07
-1.46813e-06
-6.65806e-07
-1.49789e-06
-6.81574e-07
-1.52384e-06
-6.95493e-07
-1.54613e-06
-7.07635e-07
-1.56487e-06
-7.18079e-07
-1.58023e-06
-7.26911e-07
-1.59234e-06
-7.34218e-07
-1.60136e-06
-7.40094e-07
-1.60745e-06
-7.44632e-07
-1.61076e-06
-7.47924e-07
-1.61145e-06
-1.60968e-06
-7.50065e-07
8.59498e-08
-3.58971e-08
4.29753e-08
-1.49025e-07
-3.19032e-10
-2.57975e-07
-4.36991e-08
-3.62693e-07
-8.69329e-08
-4.63134e-07
-1.29794e-07
-5.59261e-07
-1.72063e-07
-6.51043e-07
-2.13531e-07
-7.38456e-07
-2.53997e-07
-8.21481e-07
-2.93273e-07
-9.00109e-07
-3.31184e-07
-9.74331e-07
-3.67572e-07
-1.04415e-06
-4.023e-07
-1.10956e-06
-4.35255e-07
-1.17059e-06
-4.66343e-07
-1.22726e-06
-4.95496e-07
-1.27962e-06
-5.22664e-07
-1.3277e-06
-5.4782e-07
-1.37157e-06
-5.70956e-07
-1.41131e-06
-5.9208e-07
-1.44701e-06
-6.11221e-07
-1.47875e-06
-6.28415e-07
-1.50665e-06
-6.43719e-07
-1.53082e-06
-6.57197e-07
-1.55139e-06
-6.6892e-07
-1.5685e-06
-6.78971e-07
-1.58229e-06
-6.87435e-07
-1.5929e-06
-6.94402e-07
-1.60049e-06
-6.99967e-07
-1.6052e-06
-7.04223e-07
-1.6072e-06
-1.60664e-06
-7.07265e-07
1.54508e-07
1.14028e-07
7.27365e-08
3.08936e-08
-3.2085e-07
-1.12407e-08
-4.21e-07
-5.34083e-08
-5.17093e-07
-9.53559e-08
-6.09095e-07
-1.36839e-07
-6.96973e-07
-1.77624e-07
-7.80696e-07
-2.17494e-07
-8.60239e-07
-2.56245e-07
-9.3558e-07
-2.93688e-07
-1.0067e-06
-3.29653e-07
-1.0736e-06
-3.63992e-07
-1.13625e-06
-3.9658e-07
-1.19467e-06
-4.27318e-07
-1.24888e-06
-4.56127e-07
-1.29889e-06
-4.82957e-07
-1.34474e-06
-5.07776e-07
-1.3865e-06
-5.30574e-07
-1.42421e-06
-5.51361e-07
-1.45796e-06
-5.70163e-07
-1.48785e-06
-5.87024e-07
-1.51396e-06
-6.01997e-07
-1.53642e-06
-6.15152e-07
-1.55535e-06
-6.26562e-07
-1.57088e-06
-6.36313e-07
-1.58315e-06
-6.44494e-07
-1.5923e-06
-6.51196e-07