/*--------------------------------*- C++ -*----------------------------------*\
  =========                 |
  \\      /  F ield         | OpenFOAM: The Open Source CFD Toolbox
   \\    /   O peration     | Website:  https://openfoam.org
    \\  /    A nd           | Version:  10
     \\/     M anipulation  |
\*---------------------------------------------------------------------------*/
FoamFile
{
    format      ascii;
    class       volScalarField;
    location    "49000";
    object      omega;
}
// * * * * * * * * * * * * * * * * * * * * * * * * * * * * * * * * * * * * * //

dimensions      [0 0 -1 0 0 0 0];

internalField   nonuniform List<scalar> 
17922
(
25.9828
25.5647
25.1625
24.776
24.4049
24.049
23.708
23.3817
23.07
22.7728
22.49
22.2214
21.9671
21.7269
21.501
21.2894
21.0922
20.9094
20.7413
20.5881
20.45
20.3274
20.2206
20.13
20.0561
19.9996
19.9611
19.9412
19.941
19.9602
19.9979
20.0533
20.1255
20.2139
20.3179
20.4369
20.5704
20.7181
20.8794
21.0542
21.2421
21.4428
21.656
21.8817
22.1196
22.3695
22.6313
22.9047
23.1898
23.4863
23.7939
24.1127
24.4423
24.7825
25.1331
25.4939
25.8644
26.2445
26.6337
27.0318
27.4382
27.8527
28.2746
28.7036
29.1391
29.5806
30.0275
30.4791
30.9348
31.3941
31.8561
32.3202
32.7859
33.2524
33.7192
34.1857
34.6517
35.1167
35.5805
36.043
36.5042
36.9645
37.424
37.8834
38.3434
38.805
39.2692
39.7377
40.2119
40.6941
41.1864
41.6914
42.2121
25.9831
25.565
25.1629
24.7764
24.4052
24.0493
23.7083
23.382
23.0703
22.7731
22.4902
22.2217
21.9673
21.7272
21.5013
21.2896
21.0924
20.9096
20.7415
20.5883
20.4502
20.3276
20.2207
20.1301
20.0563
19.9997
19.9612
19.9413
19.9411
19.9603
19.998
20.0534
20.1256
20.2139
20.3179
20.4368
20.5703
20.7179
20.8793
21.054
21.2418
21.4425
21.6557
21.8813
22.1191
22.369
22.6307
22.9041
23.1891
23.4855
23.7931
24.1117
24.4412
24.7813
25.1318
25.4924
25.8628
26.2426
26.6317
27.0295
27.4357
27.8499
28.2715
28.7002
29.1353
29.5764
30.0228
30.474
30.9292
31.3879
31.8493
32.3129
32.7779
33.2437
33.7099
34.1758
34.6412
35.1056
35.5689
36.031
36.492
36.9521
37.4117
37.8713
38.3317
38.7939
39.2592
39.7289
40.205
40.6893
41.1843
41.6926
42.2173
25.9834
25.5653
25.1631
24.7766
24.4055
24.0495
23.7085
23.3823
23.0706
22.7733
22.4905
22.2219
21.9675
21.7274
21.5015
21.2899
21.0926
20.9098
20.7417
20.5885
20.4504
20.3277
20.2209
20.1303
20.0564
19.9999
19.9613
19.9415
19.9412
19.9604
19.9981
20.0534
20.1256
20.214
20.3179
20.4368
20.5703
20.7178
20.8791
21.0538
21.2416
21.4422
21.6554
21.881
22.1188
22.3685
22.6302
22.9036
23.1885
23.4848
23.7923
24.1108
24.4402
24.7802
25.1305
25.4909
25.8611
26.2408
26.6297
27.0272
27.4332
27.8471
28.2684
28.6967
29.1315
29.5721
30.0181
30.4688
30.9235
31.3816
31.8424
32.3054
32.7697
33.2349
33.7004
34.1658
34.6305
35.0944
35.5573
36.019
36.4797
36.9397
37.3993
37.8591
38.32
38.783
39.2494
39.7206
40.1985
40.6852
41.1831
41.6949
42.2236
25.9837
25.5656
25.1634
24.7769
24.4058
24.0498
23.7088
23.3825
23.0708
22.7736
22.4907
22.2221
21.9678
21.7276
21.5017
21.2901
21.0928
20.91
20.7419
20.5887
20.4506
20.3279
20.2211
20.1304
20.0566
20
19.9614
19.9416
19.9413
19.9605
19.9982
20.0535
20.1257
20.214
20.3179
20.4368
20.5702
20.7178
20.879
21.0537
21.2414
21.442
21.6551
21.8806
22.1184
22.3681
22.6297
22.903
23.1878
23.484
23.7914
24.1099
24.4391
24.779
25.1292
25.4894
25.8595
26.239
26.6276
27.0249
27.4306
27.8442
28.2652
28.6932
29.1275
29.5678
30.0133
30.4634
30.9176
31.3751
31.8353
32.2976
32.7613
33.2259
33.6908
34.1555
34.6196
35.083
35.5454
36.0067
36.4672
36.9271
37.3867
37.8469
38.3083
38.7722
39.2397
39.7126
40.1925
40.6817
41.1826
41.698
42.231
25.984
25.5659
25.1637
24.7772
24.4061
24.0501
23.7091
23.3828
23.0711
22.7738
22.491
22.2224
21.968
21.7278
21.5019
21.2903
21.093
20.9102
20.7421
20.5889
20.4507
20.3281
20.2212
20.1306
20.0567
20.0002
19.9616
19.9417
19.9414
19.9606
19.9983
20.0536
20.1257
20.214
20.3179
20.4367
20.5702
20.7177
20.8789
21.0535
21.2412
21.4417
21.6548
21.8803
22.118
22.3676
22.6292
22.9024
23.1871
23.4833
23.7906
24.1089
24.4381
24.7778
25.1278
25.4879
25.8578
26.2371
26.6254
27.0225
27.4279
27.8412
28.2619
28.6895
29.1235
29.5633
30.0083
30.4579
30.9115
31.3684
31.8281
32.2897
32.7527
33.2166
33.6808
34.1449
34.6085
35.0713
35.5332
35.9942
36.4545
36.9143
37.3741
37.8346
38.2967
38.7615
39.2303
39.7048
40.1869
40.6788
41.1829
41.702
42.2395
25.9843
25.5662
25.164
24.7775
24.4063
24.0504
23.7093
23.383
23.0713
22.7741
22.4912
22.2226
21.9682
21.7281
21.5021
21.2905
21.0932
20.9104
20.7423
20.589
20.4509
20.3283
20.2214
20.1308
20.0569
20.0003
19.9617
19.9418
19.9415
19.9607
19.9983
20.0536
20.1258
20.214
20.3179
20.4367
20.5701
20.7176
20.8788
21.0533
21.241
21.4415
21.6545
21.8799
22.1175
22.3672
22.6286
22.9018
23.1865
23.4825
23.7897
24.108
24.437
24.7766
25.1265
25.4864
25.856
26.2351
26.6233
27.0201
27.4252
27.8382
28.2585
28.6857
29.1193
29.5586
30.0031
30.4522
30.9053
31.3616
31.8205
32.2815
32.7439
33.2071
33.6706
34.1341
34.597
35.0593
35.5208
35.9815
36.4416
36.9014
37.3614
37.8223
38.2851
38.7509
39.2212
39.6975
40.1818
40.6765
41.1839
41.7071
42.2492
25.9846
25.5665
25.1643
24.7778
24.4066
24.0506
23.7096
23.3833
23.0716
22.7743
22.4914
22.2228
21.9684
21.7283
21.5023
21.2907
21.0934
20.9106
20.7425
20.5892
20.4511
20.3284
20.2216
20.1309
20.057
20.0005
19.9618
19.942
19.9416
19.9608
19.9984
20.0537
20.1258
20.2141
20.3179
20.4367
20.57
20.7175
20.8786
21.0532
21.2408
21.4412
21.6542
21.8796
22.1171
22.3667
22.6281
22.9012
23.1858
23.4817
23.7889
24.107
24.4359
24.7753
25.125
25.4848
25.8542
26.2331
26.621
27.0176
27.4224
27.835
28.255
28.6818
29.115
29.5538
29.9978
30.4464
30.8988
31.3545
31.8128
32.2731
32.7348
33.1973
33.6602
34.123
34.5854
35.0471
35.5082
35.9686
36.4285
36.8883
37.3486
37.81
38.2736
38.7405
39.2123
39.6905
40.1773
40.6749
41.1859
41.7132
42.2602
25.9849
25.5668
25.1646
24.7781
24.4069
24.0509
23.7099
23.3835
23.0718
22.7746
22.4917
22.2231
21.9687
21.7285
21.5026
21.2909
21.0936
20.9108
20.7427
20.5894
20.4513
20.3286
20.2217
20.1311
20.0572
20.0006
19.962
19.9421
19.9417
19.9609
19.9985
20.0538
20.1259
20.2141
20.3179
20.4367
20.57
20.7174
20.8785
21.053
21.2406
21.4409
21.6539
21.8792
22.1167
22.3662
22.6276
22.9006
23.1851
23.4809
23.788
24.106
24.4347
24.774
25.1236
25.4831
25.8524
26.231
26.6187
27.015
27.4195
27.8318
28.2514
28.6778
29.1105
29.5489
29.9923
30.4403
30.8921
31.3472
31.8048
32.2644
32.7254
33.1873
33.6495
34.1116
34.5734
35.0347
35.4954
35.9555
36.4153
36.8752
37.3357
37.7977
38.2622
38.7304
39.2037
39.684
40.1734
40.6741
41.1888
41.7205
42.2725
25.9853
25.5671
25.1649
24.7784
24.4072
24.0512
23.7101
23.3838
23.0721
22.7748
22.4919
22.2233
21.9689
21.7287
21.5028
21.2911
21.0938
20.911
20.7429
20.5896
20.4515
20.3288
20.2219
20.1313
20.0574
20.0008
19.9621
19.9422
19.9419
19.961
19.9986
20.0539
20.1259
20.2142
20.3179
20.4367
20.5699
20.7173
20.8784
21.0528
21.2404
21.4407
21.6536
21.8789
22.1163
22.3657
22.627
22.8999
23.1844
23.4801
23.7871
24.1049
24.4336
24.7727
25.1221
25.4815
25.8505
26.2289
26.6163
27.0123
27.4165
27.8285
28.2477
28.6737
29.1059
29.5438
29.9867
30.4341
30.8853
31.3397
31.7966
32.2555
32.7158
33.1769
33.6385
34.1
34.5612
35.022
35.4823
35.9422
36.4019
36.8619
37.3228
37.7855
38.2509
38.7204
39.1955
39.678
40.1701
40.674
41.1926
41.7288
42.2861
25.9856
25.5674
25.1652
24.7786
24.4075
24.0515
23.7104
23.3841
23.0723
22.7751
22.4922
22.2235
21.9691
21.729
21.503
21.2913
21.094
20.9112
20.7431
20.5898
20.4517
20.329
20.2221
20.1314
20.0575
20.0009
19.9623
19.9424
19.942
19.9611
19.9987
20.0539
20.126
20.2142
20.3179
20.4366
20.5699
20.7172
20.8783
21.0527
21.2401
21.4404
21.6533
21.8785
22.1159
22.3653
22.6265
22.8993
23.1837
23.4793
23.7861
24.1039
24.4324
24.7713
25.1206
25.4797
25.8486
26.2267
26.6139
27.0096
27.4134
27.825
28.2438
28.6694
29.1011
29.5385
29.9809
30.4276
30.8782
31.3319
31.7882
32.2464
32.7059
33.1664
33.6272
34.0881
34.5488
35.0091
35.469
35.9287
36.3884
36.8486
37.3099
37.7733
38.2398
38.7107
39.1877
39.6725
40.1674
40.6748
41.1975
41.7384
42.3011
25.9859
25.5677
25.1655
24.7789
24.4078
24.0517
23.7107
23.3843
23.0726
22.7753
22.4924
22.2238
21.9694
21.7292
21.5032
21.2916
21.0943
20.9114
20.7433
20.59
20.4519
20.3292
20.2223
20.1316
20.0577
20.0011
19.9624
19.9425
19.9421
19.9612
19.9988
20.054
20.1261
20.2142
20.3179
20.4366
20.5698
20.7171
20.8781
21.0525
21.2399
21.4402
21.653
21.8781
22.1155
22.3648
22.6259
22.8987
23.1829
23.4785
23.7852
24.1028
24.4311
24.77
25.119
25.478
25.8466
26.2245
26.6113
27.0067
27.4103
27.8215
28.2399
28.665
29.0962
29.533
29.9748
30.421
30.8709
31.3239
31.7795
32.237
32.6958
33.1555
33.6157
34.076
34.5361
34.996
35.4556
35.9151
36.3748
36.8352
37.297
37.7612
38.2288
38.7013
39.1803
39.6676
40.1655
40.6765
41.2034
41.7493
42.3176
25.9862
25.568
25.1658
24.7792
24.4081
24.052
23.7109
23.3846
23.0729
22.7756
22.4927
22.224
21.9696
21.7294
21.5035
21.2918
21.0945
20.9116
20.7435
20.5902
20.4521
20.3293
20.2224
20.1318
20.0579
20.0012
19.9626
19.9426
19.9423
19.9614
19.9989
20.0541
20.1261
20.2143
20.3179
20.4366
20.5698
20.717
20.878
21.0523
21.2397
21.4399
21.6526
21.8778
22.115
22.3643
22.6253
22.898
23.1822
23.4776
23.7842
24.1017
24.4299
24.7685
25.1174
25.4761
25.8445
26.2222
26.6087
27.0038
27.407
27.8178
28.2358
28.6604
29.0912
29.5274
29.9686
30.4141
30.8634
31.3157
31.7705
32.2273
32.6854
33.1444
33.6039
34.0636
34.5231
34.9826
35.4419
35.9012
36.361
36.8218
37.2842
37.7492
38.2181
38.6923
39.1733
39.6633
40.1644
40.6792
41.2104
41.7614
42.3355
25.9865
25.5684
25.1661
24.7795
24.4083
24.0523
23.7112
23.3849
23.0731
22.7758
22.4929
22.2243
21.9699
21.7297
21.5037
21.292
21.0947
20.9119
20.7437
20.5904
20.4522
20.3295
20.2226
20.132
20.058
20.0014
19.9627
19.9428
19.9424
19.9615
19.999
20.0542
20.1262
20.2143
20.318
20.4366
20.5697
20.717
20.8779
21.0521
21.2395
21.4396
21.6523
21.8774
22.1146
22.3637
22.6247
22.8973
23.1814
23.4767
23.7832
24.1005
24.4286
24.7671
25.1157
25.4743
25.8424
26.2198
26.606
27.0008
27.4036
27.814
28.2316
28.6557
29.0859
29.5216
29.9622
30.4071
30.8556
31.3073
31.7613
32.2173
32.6747
33.133
33.5918
34.0509
34.51
34.969
35.428
35.8873
36.3472
36.8083
37.2714
37.7374
38.2077
38.6836
39.1669
39.6596
40.1641
40.6828
41.2186
41.7748
42.355
25.9869
25.5687
25.1664
24.7798
24.4086
24.0526
23.7115
23.3851
23.0734
22.7761
22.4932
22.2245
21.9701
21.7299
21.5039
21.2922
21.0949
20.9121
20.7439
20.5906
20.4524
20.3297
20.2228
20.1321
20.0582
20.0016
19.9629
19.9429
19.9425
19.9616
19.9992
20.0543
20.1263
20.2144
20.318
20.4366
20.5697
20.7169
20.8777
21.052
21.2393
21.4393
21.652
21.877
22.1141
22.3632
22.6241
22.8966
23.1806
23.4758
23.7822
24.0994
24.4273
24.7656
25.114
25.4723
25.8402
26.2173
26.6033
26.9977
27.4001
27.8101
28.2272
28.6509
29.0805
29.5156
29.9556
30.3998
30.8477
31.2985
31.7519
32.2071
32.6638
33.1214
33.5795
34.038
34.4965
34.9552
35.414
35.8732
36.3333
36.7948
37.2586
37.7257
38.1975
38.6753
39.161
39.6567
40.1646
40.6874
41.228
41.7897
42.3759
25.9872
25.569
25.1667
24.7801
24.4089
24.0529
23.7118
23.3854
23.0737
22.7764
22.4934
22.2248
21.9703
21.7301
21.5041
21.2924
21.0951
20.9123
20.7441
20.5908
20.4526
20.3299
20.223
20.1323
20.0584
20.0017
19.9631
19.9431
19.9427
19.9617
19.9993
20.0544
20.1263
20.2144
20.318
20.4366
20.5696
20.7168
20.8776
21.0518
21.239
21.4391
21.6517
21.8766
22.1137
22.3627
22.6235
22.8959
23.1798
23.4749
23.7811
24.0982
24.4259
24.764
25.1123
25.4704
25.838
26.2148
26.6004
26.9945
27.3965
27.8061
28.2227
28.6459
29.075
29.5095
29.9488
30.3923
30.8394
31.2896
31.7422
32.1967
32.6525
33.1094
33.5669
34.0248
34.4829
34.9411
35.3998
35.859
36.3193
36.7813
37.246
37.7143
38.1876
38.6675
39.1557
39.6544
40.166
40.693
41.2386
41.8059
42.3985
25.9875
25.5693
25.1671
24.7804
24.4092
24.0532
23.7121
23.3857
23.0739
22.7766
22.4937
22.225
21.9706
21.7304
21.5044
21.2927
21.0953
20.9125
20.7443
20.591
20.4528
20.3301
20.2232
20.1325
20.0586
20.0019
19.9632
19.9433
19.9428
19.9619
19.9994
20.0545
20.1264
20.2145
20.318
20.4365
20.5696
20.7167
20.8775
21.0516
21.2388
21.4388
21.6513
21.8762
22.1132
22.3621
22.6229
22.8952
23.179
23.474
23.78
24.097
24.4245
24.7624
25.1105
25.4683
25.8357
26.2122
26.5975
26.9912
27.3928
27.802
28.2181
28.6407
29.0692
29.5031
29.9417
30.3846
30.831
31.2804
31.7322
32.1859
32.641
33.0972
33.5541
34.0113
34.469
34.9269
35.3854
35.8447
36.3053
36.7679
37.2335
37.7031
38.1781
38.6601
39.151
39.6529
40.1683
40.6998
41.2504
41.8235
42.4227
27.8262
27.3411
26.8732
26.4223
25.9879
25.5696
25.1674
24.7808
24.4095
24.0535
23.7123
23.386
23.0742
22.7769
22.4939
22.2253
21.9708
21.7306
21.5046
21.2929
21.0956
20.9127
20.7445
20.5912
20.4531
20.3303
20.2234
20.1327
20.0587
20.0021
19.9634
19.9434
19.943
19.962
19.9995
20.0546
20.1265
20.2145
20.318
20.4365
20.5695
20.7166
20.8773
21.0514
21.2386
21.4385
21.651
21.8758
22.1127
22.3616
22.6222
22.8945
23.1781
23.473
23.7789
24.0957
24.4231
24.7608
25.1086
25.4662
25.8333
26.2095
26.5945
26.9878
27.389
27.7977
28.2133
28.6353
29.0633
29.4965
29.9345
30.3766
30.8222
31.2709
31.7219
32.1749
32.6293
33.0847
33.5409
33.9977
34.4549
34.9125
35.3709
35.8303
36.2913
36.7546
37.2211
37.6921
38.1689
38.6532
39.1469
39.6522
40.1715
40.7076
41.2635
41.8426
42.4484
27.8266
27.3414
26.8736
26.4226
25.9882
25.57
25.1677
24.7811
24.4098
24.0538
23.7126
23.3863
23.0745
22.7772
22.4942
22.2255
21.9711
21.7308
21.5048
21.2931
21.0958
20.9129
20.7448
20.5914
20.4533
20.3305
20.2236
20.1329
20.0589
20.0023
19.9636
19.9436
19.9431
19.9621
19.9996
20.0547
20.1266
20.2145
20.318
20.4365
20.5695
20.7165
20.8772
21.0512
21.2383
21.4382
21.6506
21.8754
22.1122
22.361
22.6216
22.8937
23.1773
23.472
23.7778
24.0944
24.4216
24.7591
25.1067
25.464
25.8308
26.2067
26.5913
26.9843
27.3851
27.7933
28.2084
28.6298
29.0572
29.4897
29.927
30.3684
30.8133
31.2611
31.7114
32.1636
32.6172
33.072
33.5275
33.9838
34.4405
34.898
35.3563
35.8158
36.2773
36.7413
37.209
37.6814
38.1602
38.6469
39.1435
39.6523
40.1758
40.7166
41.2779
41.8631
42.4757
27.827
27.3418
26.8739
26.423
25.9885
25.5703
25.168
24.7814
24.4101
24.0541
23.7129
23.3865
23.0747
22.7774
22.4945
22.2258
21.9713
21.7311
21.5051
21.2934
21.096
20.9132
20.745
20.5917
20.4535
20.3307
20.2238
20.1331
20.0591
20.0024
19.9637
19.9437
19.9433
19.9623
19.9997
20.0548
20.1266
20.2146
20.3181
20.4365
20.5694
20.7164
20.8771
21.051
21.2381
21.4379
21.6503
21.8749
22.1117
22.3604
22.6209
22.8929
23.1764
23.471
23.7767
24.0931
24.4201
24.7574
25.1047
25.4618
25.8283
26.2039
26.5881
26.9806
27.381
27.7887
28.2033
28.6242
29.0508
29.4828
29.9193
30.3599
30.8041
31.2511
31.7006
32.152
32.6049
33.059
33.5139
33.9696
34.426
34.8832
35.3415
35.8013
36.2633
36.7281
37.197
37.6711
38.1519
38.6411
39.1409
39.6533
40.181
40.7267
41.2936
41.8851
42.5047
29.3912
28.8514
28.3303
27.8274
27.3422
26.8743
26.4233
25.9888
25.5706
25.1683
24.7817
24.4104
24.0544
23.7132
23.3868
23.075
22.7777
22.4947
22.226
21.9716
21.7313
21.5053
21.2936
21.0962
20.9134
20.7452
20.5919
20.4537
20.3309
20.224
20.1333
20.0593
20.0026
19.9639
19.9439
19.9434
19.9624
19.9998
20.0549
20.1267
20.2146
20.3181
20.4365
20.5694
20.7163
20.8769
21.0509
21.2378
21.4376
21.6499
21.8745
22.1112
22.3599
22.6202
22.8922
23.1755
23.47
23.7755
24.0917
24.4185
24.7556
25.1027
25.4595
25.8257
26.2009
26.5848
26.9769
27.3768
27.784
28.198
28.6183
29.0443
29.4756
29.9114
30.3512
30.7946
31.2408
31.6895
32.1401
32.5923
33.0457
33.5
33.9552
34.4113
34.8683
35.3267
35.7868
36.2493
36.7151
37.1853
37.6611
38.144
38.636
39.1389
39.6552
40.1873
40.7381
41.3107
41.9085
42.5352
29.3917
28.8518
28.3307
27.8277
27.3425
26.8746
26.4236
25.9892
25.5709
25.1686
24.782
24.4108
24.0547
23.7135
23.3871
23.0753
22.778
22.495
22.2263
21.9718
21.7316
21.5056
21.2938
21.0965
20.9136
20.7454
20.5921
20.4539
20.3311
20.2242
20.1335
20.0595
20.0028
19.9641
19.9441
19.9436
19.9625
20
20.055
20.1268
20.2147
20.3181
20.4365
20.5693
20.7162
20.8768
21.0507
21.2376
21.4373
21.6495
21.8741
22.1107
22.3593
22.6195
22.8914
23.1746
23.4689
23.7743
24.0903
24.4169
24.7538
25.1007
25.4572
25.8231
26.1979
26.5814
26.9731
27.3725
27.7791
28.1926
28.6122
29.0376
29.4681
29.9032
30.3423
30.7848
31.2303
31.6782
32.128
32.5794
33.0321
33.4859
33.9406
34.3964
34.8533
35.3118
35.7722
36.2354
36.7022
37.1738
37.6514
38.1367
38.6314
39.1377
39.6579
40.1946
40.7505
41.329
41.9333
42.5673
29.3921
28.8522
28.3311
27.8281
27.3429
26.875
26.4239
25.9895
25.5713
25.169
24.7823
24.4111
24.055
23.7138
23.3874
23.0756
22.7782
22.4953
22.2266
21.9721
21.7318
21.5058
21.2941
21.0967
20.9138
20.7456
20.5923
20.4541
20.3313
20.2244
20.1337
20.0597
20.003
19.9643
19.9442
19.9437
19.9627
20.0001
20.0551
20.1269
20.2147
20.3181
20.4365
20.5693
20.7161
20.8766
21.0505
21.2373
21.437
21.6492
21.8736
22.1102
22.3586
22.6188
22.8905
23.1736
23.4678
23.773
24.0889
24.4153
24.7519
25.0985
25.4548
25.8203
26.1948
26.5779
26.9691
27.368
27.7741
28.187
28.606
29.0307
29.4605
29.8948
30.3331
30.7748
31.2195
31.6665
32.1156
32.5663
33.0183
33.4715
33.9259
34.3813
34.8382
35.2968
35.7577
36.2216
36.6896
37.1626
37.6422
38.1298
38.6275
39.1373
39.6616
40.2029
40.7642
41.3486
41.9596
42.6009
29.3925
28.8527
28.3315
27.8285
27.3432
26.8753
26.4243
25.9898
25.5716
25.1693
24.7826
24.4114
24.0553
23.7141
23.3877
23.0759
22.7785
22.4955
22.2268
21.9723
21.7321
21.5061
21.2943
21.097
20.9141
20.7459
20.5925
20.4543
20.3316
20.2246
20.1339
20.0599
20.0032
19.9644
19.9444
19.9439
19.9628
20.0002
20.0552
20.1269
20.2148
20.3181
20.4364
20.5692
20.716
20.8765
21.0503
21.2371
21.4367
21.6488
21.8732
22.1096
22.358
22.6181
22.8897
23.1727
23.4667
23.7717
24.0875
24.4136
24.75
25.0964
25.4523
25.8175
26.1916
26.5743
26.965
27.3634
27.769
28.1812
28.5996
29.0236
29.4527
29.8862
30.3237
30.7646
31.2084
31.6547
32.1029
32.5529
33.0043
33.457
33.9109
34.3661
34.823
35.2818
35.7432
36.208
36.6771
37.1517
37.6333
38.1236
38.6243
39.1377
39.6661
40.2123
40.779
41.3696
41.9873
42.636
29.393
28.8531
28.3319
27.8288
27.3436
26.8756
26.4246
25.9902
25.5719
25.1696
24.783
24.4117
24.0556
23.7144
23.388
23.0762
22.7788
22.4958
22.2271
21.9726
21.7323
21.5063
21.2946
21.0972
20.9143
20.7461
20.5928
20.4545
20.3318
20.2248
20.1341
20.0601
20.0034
19.9646
19.9446
19.944
19.963
20.0003
20.0553
20.127
20.2148
20.3182
20.4364
20.5691
20.7159
20.8763
21.0501
21.2368
21.4364
21.6484
21.8727
22.1091
22.3574
22.6174
22.8889
23.1717
23.4656
23.7704
24.086
24.4119
24.7481
25.0941
25.4497
25.8146
26.1883
26.5705
26.9608
27.3587
27.7637
28.1753
28.593
29.0163
29.4446
29.8773
30.314
30.7541
31.1971
31.6425
32.09
32.5392
32.99
33.4422
33.8957
34.3508
34.8077
35.2668
35.7288
36.1944
36.6648
37.1412
37.625
38.1178
38.6218
39.1389
39.6717
40.2227
40.795
41.3918
42.0163
42.6725
29.3934
28.8535
28.3322
27.8292
27.3439
26.876
26.425
25.9905
25.5723
25.1699
24.7833
24.412
24.0559
23.7147
23.3883
23.0764
22.7791
22.4961
22.2273
21.9729
21.7326
21.5066
21.2948
21.0974
20.9146
20.7463
20.593
20.4548
20.332
20.225
20.1343
20.0603
20.0036
19.9648
19.9447
19.9442
19.9631
20.0005
20.0554
20.1271
20.2149
20.3182
20.4364
20.5691
20.7158
20.8762
21.0499
21.2366
21.436
21.648
21.8722
22.1086
22.3568
22.6166
22.888
23.1707
23.4645
23.7691
24.0844
24.4102
24.7461
25.0918
25.4471
25.8116
26.1849
26.5667
26.9565
27.3538
27.7582
28.1692
28.5862
29.0088
29.4363
29.8682
30.3041
30.7433
31.1854
31.6301
32.0768
32.5253
32.9755
33.4272
33.8804
34.3353
34.7923
35.2517
35.7144
36.1811
36.6528
37.131
37.617
38.1127
38.6199
39.1409
39.6781
40.2343
40.8122
41.4152
42.0467
42.7104
29.3938
28.8539
28.3326
27.8296
27.3443
26.8763
26.4253
25.9908
25.5726
25.1703
24.7836
24.4123
24.0562
23.715
23.3886
23.0767
22.7794
22.4963
22.2276
21.9731
21.7329
21.5068
21.2951
21.0977
20.9148
20.7466
20.5932
20.455
20.3322
20.2252
20.1345
20.0605
20.0038
19.965
19.9449
19.9444
19.9633
20.0006
20.0555
20.1272
20.215
20.3182
20.4364
20.569
20.7157
20.876
21.0497
21.2363
21.4357
21.6476
21.8718
22.108
22.3561
22.6159
22.8871
23.1697
23.4633
23.7678
24.0829
24.4084
24.744
25.0895
25.4444
25.8085
26.1815
26.5628
26.952
27.3488
27.7526
28.1629
28.5792
29.001
29.4278
29.8589
30.2939
30.7323
31.1736
31.6174
32.0634
32.5112
32.9608
33.412
33.8649
34.3198
34.7769
35.2367
35.7001
36.1679
36.6411
37.1212
37.6096
38.1082
38.6188
39.1438
39.6855
40.2468
40.8306
41.4399
42.0784
42.7496
29.3942
28.8542
28.333
27.8299
27.3446
26.8767
26.4256
25.9912
25.5729
25.1706
24.7839
24.4126
24.0565
23.7153
23.3889
23.077
22.7796
22.4966
22.2279
21.9734
21.7331
21.5071
21.2953
21.0979
20.915
20.7468
20.5934
20.4552
20.3324
20.2255
20.1347
20.0607
20.004
19.9652
19.9451
19.9445
19.9634
20.0007
20.0556
20.1273
20.215
20.3182
20.4364
20.569
20.7156
20.8759
21.0495
21.2361
21.4354
21.6472
21.8713
22.1075
22.3555
22.6151
22.8862
23.1686
23.4621
23.7664
24.0813
24.4066
24.7419
25.0871
25.4417
25.8054
26.1779
26.5587
26.9475
27.3436
27.7468
28.1565
28.5721
28.9931
29.419
29.8493
30.2835
30.721
31.1615
31.6045
32.0497
32.4968
32.9458
33.3966
33.8493
34.3041
34.7614
35.2218
35.6859
36.1549
36.6297
37.1118
37.6027
38.1043
38.6184
39.1475
39.6939
40.2604
40.85
41.4658
42.1113
42.7901
29.3946
28.8546
28.3334
27.8303
27.345
26.877
26.426
25.9915
25.5732
25.1709
24.7842
24.4129
24.0568
23.7156
23.3891
23.0773
22.7799
22.4969
22.2282
21.9737
21.7334
21.5073
21.2956
21.0982
20.9153
20.747
20.5937
20.4555
20.3327
20.2257
20.1349
20.0609
20.0042
19.9654
19.9453
19.9447
19.9636
20.0009
20.0557
20.1274
20.2151
20.3183
20.4364
20.5689
20.7155
20.8757
21.0493
21.2358
21.4351
21.6468
21.8708
22.1069
22.3548
22.6144
22.8853
23.1676
23.4609
23.765
24.0797
24.4047
24.7398
25.0846
25.4388
25.8022
26.1742
26.5546
26.9428
27.3384
27.7409
28.1498
28.5647
28.9849
29.4101
29.8395
30.2728
30.7095
31.1491
31.5913
32.0357
32.4823
32.9307
33.3811
33.8336
34.2884
34.7459
35.2069
35.6719
36.1421
36.6186
37.1028
37.5963
38.101
38.6188
39.152
39.7032
40.275
40.8705
41.4928
42.1454
42.8318
29.395
28.855
28.3337
27.8307
27.3453
26.8773
26.4263
25.9918
25.5736
25.1712
24.7845
24.4132
24.0571
23.7159
23.3894
23.0776
22.7802
22.4972
22.2284
21.9739
21.7336
21.5076
21.2958
21.0984
20.9155
20.7473
20.5939
20.4557
20.3329
20.2259
20.1351
20.0611
20.0044
19.9656
19.9455
19.9449
19.9637
20.001
20.0559
20.1275
20.2151
20.3183
20.4364
20.5689
20.7154
20.8756
21.0491
21.2356
21.4348
21.6464
21.8704
22.1063
22.3541
22.6136
22.8844
23.1665
23.4596
23.7636
24.078
24.4028
24.7376
25.0821
25.436
25.7989
26.1705
26.5503
26.9379
27.3329
27.7348
28.143
28.5571
28.9766
29.4009
29.8295
30.2619
30.6977
31.1365
31.5778
32.0216
32.4674
32.9154
33.3654
33.8177
34.2726
34.7305
35.192
35.6581
36.1296
36.6079
37.0943
37.5905
38.0983
38.6199
39.1574
39.7134
40.2906
40.8921
41.5209
42.1805
42.8745
29.3954
28.8554
28.3341
27.831
27.3457
26.8777
26.4266
25.9921
25.5739
25.1715
24.7849
24.4136
24.0574
23.7162
23.3897
23.0779
22.7805
22.4975
22.2287
21.9742
21.7339
21.5078
21.2961
21.0987
20.9158
20.7475
20.5942
20.4559
20.3331
20.2261
20.1354
20.0613
20.0046
19.9658
19.9457
19.9451
19.9639
20.0012
20.056
20.1276
20.2152
20.3183
20.4364
20.5688
20.7153
20.8755
21.0489
21.2353
21.4344
21.6461
21.8699
22.1058
22.3535
22.6128
22.8835
23.1655
23.4584
23.7621
24.0763
24.4008
24.7353
25.0795
25.433
25.7955
26.1666
26.5459
26.933
27.3274
27.7285
28.1361
28.5494
28.968
29.3915
29.8192
30.2507
30.6857
31.1236
31.5642
32.0072
32.4524
32.8999
33.3496
33.8018
34.2568
34.715
35.1773
35.6444
36.1174
36.5975
37.0862
37.5852
38.0963
38.6217
39.1636
39.7245
40.3072
40.9147
41.55
42.2167
42.9182
29.3958
28.8558
28.3344
27.8313
27.346
26.878
26.4269
25.9925
25.5742
25.1719
24.7852
24.4139
24.0577
23.7165
23.39
23.0782
22.7808
22.4977
22.229
21.9745
21.7342
21.5081
21.2963
21.0989
20.916
20.7478
20.5944
20.4562
20.3334
20.2264
20.1356
20.0616
20.0048
19.966
19.9459
19.9452
19.9641
20.0013
20.0561
20.1277
20.2153
20.3184
20.4364
20.5688
20.7152
20.8753
21.0487
21.2351
21.4341
21.6457
21.8694
22.1052
22.3528
22.612
22.8826
23.1644
23.4571
23.7606
24.0746
24.3989
24.733
25.0768
25.43
25.792
26.1627
26.5414
26.9279
27.3216
27.7221
28.1289
28.5415
28.9593
29.3819
29.8087
30.2394
30.6734
31.1105
31.5503
31.9926
32.4373
32.8843
33.3337
33.7858
34.2409
34.6997
35.1627
35.6309
36.1054
36.5875
37.0786
37.5805
38.095
38.6242
39.1705
39.7364
40.3247
40.9382
41.5801
42.2538
42.9629
29.3962
28.8561
28.3348
27.8317
27.3463
26.8783
26.4273
25.9928
25.5745
25.1722
24.7855
24.4142
24.058
23.7168
23.3903
23.0785
22.781
22.498
22.2293
21.9747
21.7344
21.5084
21.2966
21.0992
20.9163
20.748
20.5946
20.4564
20.3336
20.2266
20.1358
20.0618
20.005
19.9662
19.9461
19.9454
19.9642
20.0015
20.0562
20.1278
20.2154
20.3184
20.4364
20.5688
20.7152
20.8752
21.0485
21.2348
21.4338
21.6453
21.869
22.1047
22.3522
22.6112
22.8817
23.1633
23.4559
23.7591
24.0729
24.3968
24.7307
25.0742
25.4269
25.7885
26.1586
26.5368
26.9227
27.3158
27.7156
28.1216
28.5334
28.9503
29.372
29.798
30.2278
30.661
31.0972
31.5362
31.9778
32.4219
32.8685
33.3177
33.7697
34.2251
34.6843
35.1482
35.6177
36.0938
36.5779
37.0715
37.5763
38.0943
38.6275
39.1783
39.7493
40.343
40.9626
41.611
42.2917
43.0083
29.3965
28.8565
28.3351
27.832
27.3467
26.8787
26.4276
25.9931
25.5748
25.1725
24.7858
24.4145
24.0583
23.7171
23.3906
23.0787
22.7813
22.4983
22.2295
21.975
21.7347
21.5086
21.2968
21.0994
20.9165
20.7483
20.5949
20.4567
20.3338
20.2268
20.1361
20.062
20.0053
19.9664
19.9463
19.9456
19.9644
20.0016
20.0564
20.1279
20.2154
20.3185
20.4364
20.5687
20.7151
20.8751
21.0484
21.2346
21.4335
21.6449
21.8685
22.1041
22.3515
22.6104
22.8808
23.1622
23.4546
23.7576
24.0711
24.3948
24.7283
25.0714
25.4237
25.7849
26.1545
26.5321
26.9174
27.3098
27.7089
28.1141
28.5251
28.9412
29.362
29.7871
30.216
30.6483
31.0837
31.5219
31.9629
32.4064
32.8526
33.3015
33.7536
34.2093
34.6691
35.1339
35.6046
36.0824
36.5687
37.0648
37.5727
38.0942
38.6315
39.1869
39.7629
40.3622
40.9878
41.6428
42.3305
43.0544
29.3969
28.8568
28.3355
27.8323
27.347
26.879
26.4279
25.9934
25.5751
25.1728
24.7861
24.4148
24.0586
23.7174
23.3909
23.079
22.7816
22.4986
22.2298
21.9753
21.735
21.5089
21.2971
21.0997
20.9168
20.7485
20.5951
20.4569
20.3341
20.2271
20.1363
20.0622
20.0055
19.9666
19.9465
19.9458
19.9646
20.0018
20.0565
20.128
20.2155
20.3185
20.4364
20.5687
20.7151
20.875
21.0482
21.2344
21.4333
21.6446
21.8681
22.1036
22.3509
22.6097
22.8798
23.1611
23.4533
23.7561
24.0694
24.3927
24.7259
25.0686
25.4205
25.7812
26.1502
26.5273
26.9119
27.3037
27.702
28.1065
28.5166
28.9319
29.3518
29.776
30.204
30.6354
31.07
31.5075
31.9477
32.3907
32.8365
33.2854
33.7375
34.1935
34.654
35.1198
35.5919
36.0715
36.5599
37.0587
37.5697
38.0948
38.6362
39.1962
39.7773
40.3822
41.0138
41.6753
42.3699
43.101
29.3972
28.8571
28.3358
27.8327
27.3473
26.8793
26.4282
25.9937
25.5754
25.1731
24.7864
24.4151
24.0589
23.7177
23.3912
23.0793
22.7819
22.4988
22.2301
21.9755
21.7352
21.5092
21.2974
21.1
20.917
20.7488
20.5954
20.4572
20.3343
20.2273
20.1365
20.0625
20.0057
19.9669
19.9467
19.946
19.9648
20.002
20.0567
20.1281
20.2156
20.3186
20.4365
20.5687
20.715
20.8749
21.0481
21.2342
21.433
21.6442
21.8677
22.1031
22.3502
22.6089
22.8789
23.16
23.452
23.7546
24.0676
24.3906
24.7235
25.0658
25.4172
25.7774
26.1459
26.5224
26.9064
27.2974
27.695
28.0986
28.5079
28.9223
29.3414
29.7647
30.1918
30.6224
31.0562
31.4929
31.9325
32.375
32.8205
33.2692
33.7214
34.1778
34.639
35.1059
35.5794
36.0608
36.5515
37.0531
37.5673
38.0961
38.6416
39.2062
39.7924
40.4029
41.0406
41.7085
42.4099
43.1482
29.9568
29.3975
28.8575
28.3361
27.833
27.3476
26.8796
26.4285
25.994
25.5757
25.1734
24.7867
24.4154
24.0592
23.7179
23.3915
23.0796
22.7822
22.4991
22.2303
21.9758
21.7355
21.5094
21.2976
21.1002
20.9173
20.749
20.5957
20.4574
20.3346
20.2276
20.1368
20.0627
20.006
19.9671
19.9469
19.9463
19.965
20.0022
20.0568
20.1283
20.2158
20.3187
20.4365
20.5688
20.715
20.8748
21.0479
21.234
21.4327
21.6439
21.8673
22.1026
22.3496
22.6082
22.878
23.1589
23.4507
23.7531
24.0658
24.3885
24.721
25.0629
25.4139
25.7735
26.1415
26.5174
26.9007
27.291
27.6878
28.0906
28.499
28.9125
29.3307
29.7531
30.1796
30.6094
31.0423
31.4782
31.9172
32.3591
32.8043
33.2529
33.7054
34.1623
34.6242
35.0922
35.5673
36.0506
36.5437
37.048
37.5655
38.098
38.6477
39.217
39.8083
40.4244
41.068
41.7423
42.4504
43.1958
29.9571
29.3978
28.8578
28.3364
27.8333
27.3479
26.8799
26.4288
25.9943
25.576
25.1737
24.787
24.4156
24.0595
23.7182
23.3918
23.0799
22.7825
22.4994
22.2306
21.9761
21.7358
21.5097
21.2979
21.1005
20.9176
20.7493
20.5959
20.4577
20.3348
20.2278
20.1371
20.063
20.0062
19.9674
19.9472
19.9465
19.9652
20.0024
20.057
20.1284
20.2159
20.3188
20.4366
20.5688
20.715
20.8748
21.0478
21.2338
21.4325
21.6436
21.8669
22.1021
22.349
22.6074
22.8771
23.1579
23.4494
23.7515
24.0639
24.3863
24.7185
25.06
25.4105
25.7696
26.137
26.5123
26.8949
27.2844
27.6804
28.0824
28.4898
28.9023
29.3196
29.7414
30.1672
30.5964
31.0286
31.4637
31.9018
32.3433
32.7882
33.2368
33.6894
34.1468
34.6096
35.0788
35.5555
36.0408
36.5363
37.0435
37.5642
38.1005
38.6545
39.2284
39.8249
40.4465
41.0961
41.7767
42.4914
43.2438
29.9574
29.3981
28.858
28.3367
27.8335
27.3482
26.8801
26.4291
25.9945
25.5763
25.1739
24.7872
24.4159
24.0597
23.7185
23.392
23.0801
22.7827
22.4997
22.2309
21.9764
21.736
21.51
21.2982
21.1007
20.9178
20.7496
20.5962
20.4579
20.3351
20.2281
20.1373
20.0632
20.0065
19.9676
19.9474
19.9467
19.9654
20.0026
20.0572
20.1286
20.216
20.3189
20.4367
20.5688
20.715
20.8747
21.0478
21.2337
21.4323
21.6433
21.8665
22.1016
22.3484
22.6067
22.8762
23.1568
23.4481
23.75
24.0621
24.3842
24.7159
25.057
25.407
25.7656
26.1324
26.507
26.8889
27.2776
27.6728
28.0738
28.4802
28.8919
29.3085
29.7296
30.1548
30.5834
31.015
31.4492
31.8866
32.3276
32.7721
33.2207
33.6736
34.1316
34.5953
35.0657
35.544
36.0314
36.5294
37.0395
37.5636
38.1037
38.6619
39.2406
39.8421
40.4692
41.1247
41.8115
42.5327
29.9577
29.3984
28.8583
28.337
27.8338
27.3484
26.8804
26.4293
25.9948
25.5766
25.1742
24.7875
24.4162
24.06
23.7188
23.3923
23.0804
22.783
22.4999
22.2312
21.9766
21.7363
21.5102
21.2984
21.101
20.9181
20.7498
20.5965
20.4582
20.3354
20.2284
20.1376
20.0635
20.0067
19.9679
19.9477
19.947