/*--------------------------------*- C++ -*----------------------------------*\
  =========                 |
  \\      /  F ield         | OpenFOAM: The Open Source CFD Toolbox
   \\    /   O peration     | Website:  https://openfoam.org
    \\  /    A nd           | Version:  10
     \\/     M anipulation  |
\*---------------------------------------------------------------------------*/
FoamFile
{
    format      ascii;
    class       volScalarField;
    location    "15000";
    object      Co;
}
// * * * * * * * * * * * * * * * * * * * * * * * * * * * * * * * * * * * * * //

dimensions      [0 0 0 0 0 0 0];

internalField   nonuniform List<scalar> 
17969
(
70.0334
24.4814
9.81907
26.9198
54.0266
81.3118
105.643
124.857
138.761
148.231
154.288
157.86
159.713
160.407
160.321
159.704
158.714
157.456
156
154.392
152.667
150.846
148.947
146.983
144.962
142.891
140.776
138.62
136.428
134.201
131.942
129.653
127.335
124.991
122.62
120.225
117.806
115.365
112.903
110.422
107.922
105.405
102.871
100.323
97.7615
95.1876
92.6027
90.0082
87.4052
84.7951
82.1789
79.558
76.9334
74.3062
71.6774
69.0479
66.4187
63.7904
61.1637
58.5392
55.9174
53.2985
50.6828
48.0701
45.4605
42.8534
40.2482
37.6443
35.0404
32.435
29.8264
27.2121
24.5892
21.9543
19.6994
17.8482
16.0488
14.2927
12.7979
14.0971
15.4427
16.7247
17.9485
19.1192
20.242
21.3212
22.3602
23.3615
24.3275
25.2606
26.163
27.0371
27.8852
28.7095
29.5122
30.2952
31.0605
31.81
32.5454
33.2687
72.1154
26.228
14.1296
14.7073
38.2925
64.2069
90.3436
113.82
132.685
146.666
156.444
162.894
166.825
168.93
169.758
169.703
169.038
167.943
166.54
164.912
163.113
161.184
159.152
157.036
154.852
152.611
150.32
147.986
145.613
143.206
140.767
138.299
135.804
133.283
130.738
128.17
125.581
122.972
120.343
117.697
115.034
112.355
109.662
106.956
104.237
101.508
98.769
96.0215
93.2669
90.5062
87.7407
84.9715
82.1997
79.4264
76.6526
73.8794
71.1075
68.3378
65.571
62.8077
60.0485
57.2937
54.5436
51.7983
49.0577
46.3216
43.5894
40.8605
38.1338
35.4081
32.6815
29.952
27.2166
24.4719
22.1679
20.3275
18.5416
16.8009
15.0968
15.9826
17.3775
18.7063
19.9745
21.1876
22.351
23.4687
24.544
25.5793
26.5771
27.5399
28.4703
29.3708
30.2438
31.0919
31.9174
32.7224
33.509
34.2791
35.0344
35.7765
74.2487
27.9329
17.5986
10.8025
23.704
45.9549
70.6681
95.8969
118.987
138.032
152.531
162.946
170.048
174.557
177.099
178.207
178.296
177.667
176.53
175.028
173.26
171.294
169.179
166.948
164.626
162.23
159.774
157.267
154.718
152.131
149.511
146.862
144.186
141.486
138.763
136.02
133.257
130.476
127.678
124.864
122.035
119.193
116.339
113.473
110.596
107.711
104.817
101.917
99.0107
96.1
93.1858
90.2693
87.3515
84.4336
81.5165
78.6013
75.6888
72.7798
69.8752
66.9756
64.0815
61.1935
58.3118
55.4367
52.5681
49.706
46.8499
43.9994
41.1534
38.3108
35.4701
32.6292
29.7854
26.9354
24.5854
22.7583
20.9888
19.2674
17.5849
17.8132
19.2591
20.6366
21.9511
23.2086
24.4142
25.572
26.6848
27.7553
28.7858
29.7791
30.7378
31.6646
32.5623
33.4336
34.2809
35.1068
35.9135
36.7032
37.4778
38.2393
76.2677
29.1769
20.0246
13.7818
13.7443
29.2805
50.157
73.6911
98.1528
121.136
140.704
156.041
167.372
175.372
180.683
183.871
185.445
185.831
185.361
184.276
182.748
180.898
178.81
176.543
174.142
171.635
169.046
166.39
163.68
160.926
158.134
155.31
152.458
149.582
146.683
143.764
140.827
137.874
134.906
131.924
128.929
125.923
122.906
119.88
116.846
113.804
110.756
107.702
104.645
101.585
98.5229
95.46
92.3974
89.336
86.277
83.2213
80.1698
77.1234
74.0828
71.0488
68.022
65.0029
61.9918
58.9892
55.995
53.0093
50.0318
47.062
44.0993
41.1426
38.1905
35.2411
32.292
29.34
26.9461
25.133
23.3816
21.682
20.0244
19.5841
21.0824
22.5101
23.8727
25.1761
26.4255
27.6249
28.777
29.8843
30.9493
31.9748
32.9636
33.9187
34.8429
35.7392
36.6102
37.4587
38.2869
39.0973
39.892
40.6728
41.4417
42.2
42.9493
43.6909
78.2158
30.439
22.0273
15.7609
11.4275
15.6911
32.0532
51.5424
73.8433
97.5374
120.496
140.735
157.123
169.616
178.716
185.021
189.056
191.29
192.148
191.982
191.067
189.605
187.746
185.592
183.221
180.685
178.023
175.265
172.43
169.535
166.591
163.608
160.591
157.546
154.478
151.389
148.282
145.16
142.023
138.874
135.715
132.545
129.367
126.181
122.989
119.792
116.59
113.384
110.177
106.968
103.759
100.551
97.3444
94.1409
90.9413
87.7465
84.5575
81.3751
78.2001
75.0334
71.8755
68.727
65.5884
62.46
59.3421
56.2347
53.1377
50.0507
46.9732
43.9044
40.8429
37.7872
34.7351
31.6836
29.2468
27.4473
25.7142
24.0373
22.4065
21.2916
22.8434
24.3224
25.7341
27.0844
28.3787
29.6208
30.8133
31.9586
33.0592
34.1181
35.1381
36.1224
37.074
37.9959
38.8912
39.7624
40.6124
41.4436
42.2582
43.0584
43.8461
44.623
45.3907
46.1509
80.1048
31.3666
23.5669
17.2477
13.0003
10.3753
17.8111
32.8337
50.8449
71.7744
94.562
117.378
138.248
155.814
169.641
180.008
187.467
192.521
195.602
197.112
197.411
196.801
195.516
193.734
191.585
189.164
186.538
183.759
180.861
177.873
174.814
171.7
168.54
165.345
162.121
158.872
155.604
152.319
149.02
145.709
142.388
139.058
135.721
132.378
129.03
125.678
122.324
118.968
115.611
112.255
108.9
105.548
102.199
98.8544
95.5154
92.1829
88.8577
85.5407
82.2328
78.9348
75.6472
72.3709
69.1062
65.8536
62.6134
59.3858
56.1708
52.9681
49.7773
46.5978
43.4284
40.268
37.1144
33.9651
31.4854
29.6981
27.9823
26.3277
24.724
23.2222
24.5379
26.0687
27.5302
28.9282
30.268
31.5535
32.7872
33.9715
35.1089
36.2022
37.2546
38.2692
39.2492
40.1978
41.1182
42.0133
42.8859
43.7387
44.5742
45.3947
46.2022
46.9986
47.7856
48.5652
81.9568
31.8935
25.3934
19.1312
14.2327
11.6267
11.1347
18.6016
32.2538
48.7094
68.1151
89.7684
112.167
133.488
152.189
167.439
179.226
187.969
194.176
198.265
200.601
201.534
201.378
200.397
198.797
196.736
194.332
191.671
188.817
185.818
182.706
179.509
176.245
172.929
169.573
166.184
162.769
159.333
155.881
152.416
148.94
145.455
141.964
138.467
134.967
131.464
127.959
124.455
120.951
117.449
113.95
110.455
106.966
103.482
100.005
96.5358
93.0758
89.6256
86.186
82.7579
79.342
75.939
72.5495
69.174
65.8128
62.4662
59.1343
55.817
52.5141
49.225
45.949
42.6848
39.4308
36.1849
33.6615
31.8842
30.1837
28.5498
26.9722
25.4403
26.1626
27.7455
29.2571
30.703
32.0886
33.4179
34.6934
35.9174
37.0924
38.2212
39.3069
40.3527
41.3621
42.3382
43.2845
44.204
45.0998
45.9748
46.8316
47.6726
48.5001
49.3162
50.1227
50.9213
51.7135
83.8025
32.139
26.6275
21.1446
15.8304
12.6732
11.0736
11.5656
18.464
30.7954
45.68
63.4346
83.6939
105.342
126.786
146.406
163.077
176.376
186.527
193.994
199.206
202.516
204.245
204.701
204.163
202.863
200.989
198.682
196.051
193.176
190.116
186.918
183.612
180.225
176.775
173.276
169.739
166.173
162.585
158.978
155.358
151.727
148.088
144.444
140.797
137.147
133.496
129.846
126.199
122.554
118.913
115.278
111.649
108.027
104.414
100.81
97.2164
93.6343
90.0643
86.5074
82.9644
79.4359
75.9227
72.4252
68.9441
65.4795
62.0318
58.6009
55.1868
51.789
48.407
45.0398
41.6862
38.3442
35.7761
34.0057
32.3177
30.7019
29.1481
27.6458
27.7149
29.3498
30.9114
32.4052
33.8366
35.2097
36.5273
37.7915
39.0047
40.1696
41.2894
42.3675
43.407
44.4116
45.3846
46.3294
47.2491
48.1469
49.0255
49.8876
50.7357
51.572
52.3985
53.2169
54.0289
54.8359
55.6393
85.6614
32.1884
27.4479
22.9776
17.6245
13.7949
11.9816
10.9954
11.7347
17.7407
28.8406
42.2058
58.2448
76.9025
97.4502
118.585
138.779
156.683
171.521
183.188
192.01
198.433
202.822
205.482
206.699
206.747
205.876
204.296
202.177
199.65
196.814
193.745
190.5
187.121
183.64
180.08
176.461
172.795
169.095
165.367
161.62
157.856
154.082
150.3
146.513
142.723
138.932
135.141
131.353
127.569
123.79
120.016
116.251
112.493
108.746
105.009
101.283
97.5707
93.8717
90.1873
86.5183
82.8655
79.2296
75.6113
72.0112
68.4296
64.8668
61.3231
57.7985
54.2927
50.8054
47.3358
43.8829
40.4452
37.8308
36.064
34.385
32.7841
31.251
29.7756
29.1927
30.8791
32.4904
34.0318
35.5086
36.9254
38.2849
39.5893
40.8409
42.0426
43.1972
44.308
45.3786
46.4123
47.4127
48.3833
49.3274
50.2483
51.1491
52.0326
52.9015
53.7581
54.6047
55.443
56.275
57.1021
57.9257
58.7473
87.5454
32.0986
27.9797
24.3451
19.7634
15.5299
12.9314
11.8731
11.2718
11.7993
16.7468
26.7289
38.6706
53.0173
69.9517
89.0981
109.488
129.778
148.575
164.825
178.038
188.304
195.999
201.538
205.226
207.325
208.092
207.779
206.611
204.78
202.44
199.713
196.692
193.448
190.034
186.492
182.85
179.134
175.361
171.544
167.694
163.819
159.926
156.019
152.104
148.183
144.26
140.336
136.413
132.494
128.58
124.673
120.773
116.883
113.003
109.135
105.28
101.438
97.6117
93.8011
90.0073
86.2313
82.4739
78.7358
75.0175
71.3198
67.6429
63.9871
60.3527
56.7395
53.1474
49.5759
46.0241
42.4909
39.8284
38.0614
36.3878
34.7979
33.2819
31.8297
30.6841
32.3318
33.9921
35.5806
37.1024
38.5621
39.9631
41.3075
42.5977
43.8363
45.0261
46.1703
47.2724
48.3357
49.364
50.3608
51.3296
52.2739
53.1971
54.1021
54.9919
55.8691
56.736
57.5946
58.4469
59.2945
60.1388
60.9813
61.823
62.6651
89.4641
31.9169
28.3339
25.4493
21.4728
17.538
14.4178
12.8298
12.1509
11.806
11.8681
16.3085
24.6901
35.3429
48.0934
63.2772
80.8063
100.053
119.94
139.172
156.535
171.223
182.97
192.005
198.731
203.497
206.562
208.16
208.526
207.888
206.452
204.393
201.853
198.944
195.755
192.351
188.784
185.092
181.306
177.446
173.532
169.576
165.589
161.579
157.552
153.514
149.47
145.421
141.372
137.325
133.282
129.245
125.216
121.196
117.187
113.191
109.207
105.239
101.287
97.3516
93.4345
89.5366
85.6588
81.8018
77.9665
74.1535
70.3632
66.5962
62.8526
59.1327
55.4363
51.7632
48.1128
44.4842
41.7719
40.0012
38.329
36.7461
35.243
33.8099
32.4367
33.7068
35.4152
37.05
38.6161
40.1181
41.5599
42.9439
44.2723
45.5477
46.7727
47.9504
49.0842
50.1774
51.2337
52.2568
53.2504
54.2181
55.1636
56.09
57.0006
57.8981
58.7851
59.6638
60.5363
61.4043
62.2693
63.1327
63.9957
64.8594
65.7248
66.5926
67.4636
68.3389
91.421
31.6595
28.5749
26.4255
22.9989
19.5839
16.1196
13.8194
13.0032
12.5911
12.4293
12.5152
15.9566
22.7522
32.2928
43.6154
57.1176
72.9258
90.7338
109.77
128.922
146.98
162.908
176.119
186.555
194.518
200.388
204.461
206.965
208.109
208.109
207.173
205.49
203.22
200.494
197.419
194.074
190.523
186.814
182.985
179.064
175.073
171.029
166.944
162.83
158.695
154.545
150.385
146.221
142.055
137.89
133.73
129.577
125.432
121.298
117.176
113.068
108.975
104.899
100.841
96.8022
92.7837
88.7868
84.8122
80.8608
76.9334
73.0307
69.1532
65.3013
61.4752
57.6752
53.901
50.1524
46.4286
43.6648
41.8866
40.2122
38.6323
37.1377
35.7192
34.367
35.0037
36.7591
38.4394
40.0491
41.5927
43.0744
44.497
45.863
47.1746
48.4344
49.6453
50.8105
51.9334
53.0177
54.067
55.0852
56.0761
57.0435
57.9909
58.9218
59.8391
60.7458
61.6442
62.5366
63.4247
64.3102
65.1944
66.0787
66.964
67.8513
68.7415
69.6356
70.5344
93.4158
31.3131
28.7056
27.3123
24.4642
21.5434
18.5765
15.4499
13.5929
13.1683
12.9518
12.9287
13.0979
15.4717
20.8048
29.4461
39.5661
51.5479
65.6698
81.8887
99.7336
118.342
136.607
153.415
167.931
179.771
189.025
196.026
201.126
204.57
206.559
207.283
206.942
205.726
203.81
201.341
198.441
195.207
191.716
188.026
184.185
180.227
176.18
172.065
167.898
163.694
159.461
155.209
150.944
146.672
142.396
138.122
133.851
129.587
125.333
121.09
116.86
112.646
108.449
104.27
100.112
95.9745
91.8599
87.7689
83.7027
79.6621
75.6479
71.6608
67.7014
63.77
59.867
55.9923
52.1459
48.3271
45.5103
43.7215
42.0411
40.4604
38.9703
37.5619
36.2259
36.2231
38.0242
39.7487
41.401
42.9853
44.5058
45.9659
47.3681
48.715
50.0087
51.2522
52.4484
53.6006
54.7125
55.7877
56.8301
57.8437
58.8325
59.8003
60.7507
61.6871
62.6126
63.5298
64.4412
65.3487
66.254
67.1586
68.0638
68.9706
69.88
70.7929
71.7099
72.6322
95.4469
30.8515
28.6709
28.0486
25.8264
23.4166
20.925
18.2524
15.3183
13.5406
13.2096
13.1383
13.2212
13.455
14.7819
18.8689
26.7209
35.8707
46.56
59.1369
73.7499
90.2016
107.894
125.903
143.164
158.694
171.843
182.403
190.571
196.696
201.088
203.949
205.453
205.779
205.112
203.629
201.489
198.828
195.758
192.371
188.738
184.916
180.946
176.865
172.697
168.464
164.182
159.864
155.52
151.159
146.787
142.409
138.031
133.656
129.288
124.929
120.583
116.251
111.936
107.64
103.364
99.1097
94.8792
90.6735
86.4938
82.3412
78.2167
74.1211
70.0551
66.0193
62.014
58.0396
54.0959
50.1828
47.3117
45.5091
43.8196
42.2345
40.7451
39.3425
38.0181
37.3657
39.2111
40.9783
42.6717
44.2955
45.8535
47.3496
48.7867
50.1674
51.494
52.7691
53.9955
55.1763
56.3152
57.4157
58.4818
59.5175
60.527
61.5143
62.4834
63.4379
64.3812
65.3162
66.2456
67.1715
68.0959
69.0201
69.9456
70.8734
71.8044
72.7394
73.6793
74.6247
97.5172
30.2568
28.3902
28.5035
26.9198
25.0317
23.0035
20.7824
18.3186
15.5663
13.6781
13.2158
13.2457
13.4009
13.6756
14.0701
17.8057
24.1344
32.53
42.1747
53.4042
66.4978
81.4741
97.9891
115.349
132.613
148.782
163.017
174.837
184.191
191.355
196.673
200.397
202.701
203.74
203.681
202.697
200.951
198.589
195.738
192.501
188.962
185.189
181.235
177.14
172.938
168.654
164.308
159.916
155.49
151.041
146.576
142.104
137.628
133.155
128.689
124.231
119.787
115.358
110.948
106.557
102.189
97.845
93.5264
89.2349
84.9718
80.7383
76.5354
72.364
68.2248
64.1183
60.045
56.0049
51.9981
49.0717
47.2526
45.5512
43.9585
42.4661
41.0656
39.7484
38.6392
40.3203
42.1287
43.8617
45.5233
47.1175
48.648
50.1183
51.5311
52.8891
54.1944
55.4498
56.6584
57.8233
58.9484
60.0374
61.0945
62.1239
63.1299
64.1166
65.0881
66.048
66.9996
67.9458
68.889
69.8312
70.7741
71.7189
72.6668
73.6186
74.5752
75.5373
76.5054
77.4804
99.6374
29.5448
27.8443
28.5771
27.5758
26.18
24.5779
22.7596
20.7083
18.3999
15.8029
13.9292
13.4422
13.5317
13.7223
14.0081
14.3912
16.8961
21.823
29.6269
38.4371
48.5401
60.2616
73.7752
88.9656
105.37
122.229
138.614
153.608
166.525
177.046
185.27
191.505
196.065
199.151
200.914
201.497
201.059
199.758
197.748
195.162
192.117
188.71
185.018
181.104
177.019
172.8
168.48
164.082
159.627
155.128
150.6
146.051
141.49
136.924
132.359
127.799
123.249
118.712
114.192
109.691
105.212
100.756
96.3273
91.926
87.5542
83.2132
78.9045
74.629
70.3877
66.1812
62.01
57.8746
53.7749
50.7926
48.9547
47.2387
45.6357
44.1374
42.7354
41.4215
40.1876
41.3528
43.2006
44.9714
46.6692
48.298
49.8613
51.3629
52.8059
54.1932
55.5271
56.8101
58.045
59.2349
60.3835
61.4945
62.572
63.6203
64.644
65.6474
66.6347
67.6101
68.5771
69.5389
70.4982
71.4572
72.4175
73.3807
74.3478
75.3195
76.2968
77.2801
78.27
79.2673
101.822
28.763
27.1163
28.3133
27.7743
26.7893
25.5353
24.0365
22.3115
20.3598
18.166
15.7028
14.2633
14.1408
14.2439
14.4259
14.6852
15.0273
16.3325
20.1528
27.2583
35.4068
44.599
55.1304
67.2737
81.0893
96.3328
112.449
128.642
144.017
157.757
169.332
178.593
185.742
191.101
194.938
197.407
198.637
198.768
197.949
196.33
194.051
191.237
187.995
184.414
180.567
176.511
172.294
167.952
163.516
159.007
154.446
149.846
145.22
140.577
135.927
131.275
126.628
121.99
117.366
112.76
108.174
103.611
99.0743
94.5658
90.0874
85.6411
81.2283
76.8503
72.5083
68.2032
63.9356
59.706
55.5146
52.4759
50.6172
48.8845
47.269
45.7621
44.3557
43.0418
41.8125
42.3095
44.195
46.0018
47.734
49.3955
50.9899
52.5209
53.992
55.4065
56.7669
58.0755
59.335
60.5484
61.719
62.8506
63.9474
65.0135
66.0537
67.0726
68.0746
69.0643
70.0455
71.0218
71.9962
72.971
73.9481
74.9289
75.9146
76.9057
77.9029
78.9068
79.9179
80.9366
104.085
27.9732
26.3274
27.855
27.6346
26.9428
25.9295
24.6388
23.1252
21.4145
19.5091
17.3947
15.8864
15.4728
15.4815
15.5515
15.6819
15.8766
16.1427
16.4894
19.8358
25.5197
33.1185
41.5657
51.101
62.016
74.4931
88.474
103.603
119.254
134.616
148.85
161.265
171.488
179.528
185.66
190.196
193.33
195.191
195.894
195.574
194.374
192.432
189.881
186.834
183.391
179.633
175.627
171.429
167.08
162.617
158.066
153.451
148.787
144.091
139.374
134.645
129.913
125.184
120.464
115.758
111.071
106.405
101.764
97.1519
92.5698
88.0205
83.5058
79.0273
74.5864
70.1843
65.8217
61.4995
57.2179
54.1227
52.2416
50.4905
48.8604
47.3428
45.9295
44.6128
43.385
43.1912
45.1127
46.9537
48.7184
50.4107
52.0344
53.5929
55.09
56.5292
57.9135
59.2455
60.5275
61.7623
62.9532
64.1038
65.2181
66.3007
67.356
68.3889
69.4043
70.4069
71.4011
72.3909
73.3794
74.3694
75.3629
76.3613
77.3656
78.3764
79.3941
80.4189
81.451
82.4907
83.5386
106.438
27.2388
25.6
27.3798
27.3593
26.8449
25.9647
24.7716
23.3521
21.7582
20.0115
18.4328
17.7057
17.5926
17.5122
17.4682
17.4639
17.5041
17.5963
17.7489
17.9703
20.0381
24.4228
31.5366
39.3725
48.0923
57.9493
69.1929
81.9015
95.8999
110.741
125.747
140.121
153.095
164.121
172.994
179.872
185.059
188.811
191.264
192.521
192.698
191.926
190.341
188.075
185.248
181.965
178.317
174.38
170.215
165.874
161.395
156.812
152.151
147.432
142.673
137.887
133.086
128.279
123.474
118.677
113.895
109.133
104.393
99.6805
94.9982
90.3489
85.7349
81.1582
76.6206
72.1234
67.6679
63.2548
58.8848
55.7332
53.8283
52.0574
50.4113
48.8814
47.4594
46.1377
44.9087
44.0663
45.9546
47.8281
49.6234
51.3445
52.9954
54.5796
56.1006
57.5621
58.9676
60.3201
61.6219
62.8757
64.0845
65.2519
66.3818
67.4787
68.5471
69.5922
70.6191
71.6329
72.6383
73.64
74.6415
75.646
76.6557
77.6722
78.6964
79.7286
80.769
81.8173
82.8734
83.9369
85.0078
108.887
26.6033
25.0276
27.0377
27.1493
26.7261
25.8946
24.7155
23.2998
21.7198
20.8149
20.6579
20.523
20.3811
20.2381
20.1004
19.9748
19.869
19.7918
19.753
19.7626
19.8298
20.7087
24.0659
30.5851
37.9014
45.9497
54.9274
65.0849
76.5912
89.4183
103.285
117.667
131.858
145.092
156.698
166.293
173.858
179.649
183.958
186.951
188.727
189.385
189.04
187.82
185.852
183.26
180.154
176.634
172.781
168.664
164.342
159.859
155.253
150.554
145.787
140.972
136.123
131.256
126.38
121.505
116.638
111.785
106.953
102.146
97.3677
92.6222
87.9122
83.2403
78.6085
74.0188
69.4724
64.9707
60.5143
57.3068
55.3772
53.5854
51.9222
50.3788
48.9468
47.6184
46.3862
45.2429
46.7212
48.6255
50.4496
52.1977
53.8737
55.4814
57.0242
58.5058
59.9299
61.2998
62.6184
63.8882
65.1122
66.2937
67.4365
68.5451
69.6241
70.6786
71.7141
72.7361
73.7499
74.7606
75.7724
76.7889
77.813
78.8463
79.8898
80.9439
82.0084
83.0826
84.1658
85.257
86.3557
111.435
26.0923
24.669
26.9249
27.1477
26.7684
25.9323
24.7157
23.97
23.906
23.8916
23.8295
23.7265
23.5877
23.4183
23.2242
23.0125
22.7916
22.5709
22.3613
22.174
22.0212
21.9148
21.8658
24.7675
30.1334
36.9916
44.4895
52.7545
61.9959
72.4275
84.124
96.9484
110.529
124.279
137.48
149.418
159.569
167.733
174.074
178.878
182.352
184.605
185.714
185.779
184.916
183.248
180.899
177.983
174.601
170.844
166.787
162.494
158.016
153.396
148.667
143.859
138.994
134.09
129.162
124.223
119.283
114.352
109.435
104.54
99.6719
94.835
90.0331
85.2695
80.5468
75.8674
71.233
66.6452
62.1048
58.8423
56.8871
55.0738
53.3928
51.8351
50.3921
49.056
47.8193
46.6746
47.4128
49.3463
51.1975
52.9707
54.67
56.299
57.8615
59.3609
60.8009
62.1852
63.5174
64.8001
66.0361
67.2286
68.3812
69.4983
70.5844
71.6449
72.6853
73.7114
74.7292
75.7441
76.7613
77.785
78.8184
79.8639
80.9225
81.9948
83.0803
84.1781
85.2872
86.406
87.5335
114.083
25.7194
24.558
27.0907
27.4304
27.0788
26.617
26.639
26.9135
27.0688
27.1366
27.1331
27.068
26.9473
26.776
26.5587
26.3005
26.0075
25.6868
25.3467
24.9976
24.6546
24.3333
24.0487
23.8142
25.6674
30.0384
36.4881
43.5252
51.2127
59.7096
69.2223
79.8901
91.6899
104.382
117.511
130.441
142.471
152.978
161.623
168.437
173.67
177.567
180.241
181.758
182.203
181.681
180.307
178.2
175.476
172.24
168.587
164.597
160.341
155.876
151.248
146.497
141.655
136.746
131.792
126.81
121.814
116.817
111.827
106.853
101.902
96.9797
92.0912
87.2404
82.4308
77.6653
72.9461
68.2752
63.6538
60.3374
58.3563
56.521
54.8219
53.2495
51.7951
50.4507
49.2085
48.0613
48.0292
49.9906
51.8673
53.6638
55.3843
57.0327
58.6126
60.1276
61.5813
62.9775
64.32
65.6123
66.8571
68.0573
69.2165
70.3386
71.4283
72.4909
73.5321
74.5579
75.5747
76.5886
77.6054
78.6301
79.6668
80.7182
81.786
82.8709
83.9725
85.0897
86.2212
87.3651
88.5201
116.828
25.4924
24.7152
27.5621
28.035
28.3252
28.9956
29.6156
30.0073
30.2452
30.3703
30.4059
30.3653
30.2569
30.0862
29.8575
29.5753
29.2436
28.8663
28.4432
27.9785
27.4888
26.9944
26.5141
26.0655
25.6617
26.6238
30.1544
36.2458
42.8904
50.1155
58.0218
66.7774
76.5526
87.4005
99.1948
111.602
124.091
136
146.67
155.652
162.838
168.427
172.676
175.709
177.586
178.375
178.168
177.071
175.198
172.662
169.573
166.026
162.109
157.895
153.448
148.819
144.052
139.18
134.234
129.236
124.206
119.16
114.111
109.07
104.046
99.0467
94.0783
89.1461
84.2545
79.4072
74.6073
69.857
65.1578
61.7891
59.7819
57.9246
56.2073
54.6202
53.1544
51.8014
50.5534
49.403
48.6623
50.5578
52.4585
54.2767
56.0167
57.6824
59.2778
60.8063
62.2716
63.6775
65.0278
66.3264
67.5766
68.7813
69.9436
71.0675
72.1574
73.2186
74.2567
75.278
76.2892
77.2971
78.308
79.3279
80.3618
81.4134
82.4848
83.5772
84.6905
85.8235
86.9748
88.1422
89.3239
119.669
25.4144
25.1475
28.3436
29.4685
30.7039
31.8568
32.5965
33.0612
33.3433
33.4946
33.5437
33.507
33.3942
33.2118
32.9649
32.6581
32.2967
31.8858
31.4188
30.8891
30.3068
29.6917
29.066
28.4526
27.8663
27.3177
27.5413
30.3782
36.1584
42.4664
49.3135
56.7473
64.8945
73.9193
83.9232
94.8689
106.527
118.466
130.089
140.747
149.913
157.361
163.229
167.759
171.088
173.269
174.359
174.433
173.588
171.931
169.574
166.624
163.182
159.337
155.169
150.743
146.117
141.338
136.443
131.465
126.43
121.358
116.269
111.175
106.091
101.024
95.9842
90.9777
86.0103
81.0867
76.2107
71.3853
66.6125
63.1934
61.1604
59.2814
57.5461
55.9446
54.4675
53.1062
51.8524
50.6988
49.6385
51.0471
52.9705
54.8089
56.5667
58.2481
59.857
61.3971
62.8721
64.2857
65.6416
66.9439
68.1963
69.4023
70.5648
71.6874
72.7745
73.831
74.8627
75.8759
76.8775
77.8748
78.8749
79.8847
80.9102
81.956
83.0255
84.1204
85.2408
86.3861
87.5545
88.7438
89.9518
122.602
25.4868
25.8594
29.5567
31.5238
33.4308
34.7135
35.5129
36.0025
36.2923
36.4417
36.4825
36.4326
36.302
36.0974
35.8238
35.4858
35.0896
34.6435
34.1427
33.5783
32.9548
32.2815
31.5701
30.8408
30.1143
29.407
28.7294
28.3425
30.7186
36.1289
42.1475
48.6773
55.7357
63.4046
71.8162
81.0992
91.2753
102.202
113.541
124.773
135.279
144.482
152.081
158.143
162.884
166.444
168.873
170.213
170.527
169.902
168.438
166.242
163.421
160.075
156.299
152.175
147.772
143.152
138.364
133.451
128.447
123.38
118.273
113.147
108.018
102.897
97.7964
92.7246
87.689
82.6956
77.7494
72.8541
68.0123
64.5454
62.4872
60.5871
58.8345
57.2192
55.7313
54.362
53.1029
51.9464
50.8854
51.457
53.4019
55.2592
57.0334
58.7288
60.3496
61.8996
63.3826
64.8021
66.1618
67.4657
68.7179
69.9223
71.0822
72.201
73.2827
74.3321
75.3547
76.3568
77.3456
78.3285
79.3136
80.3084
81.3203
82.355
83.4169
84.5088
85.6315
86.7847
87.9667
89.175
90.4074
125.624
25.7046
26.8462
31.3889
34.0588
36.1475
37.4872
38.2894
38.7624
39.0294
39.1543
39.1704
39.0956
38.9401
38.7101
38.4099
38.0436
37.6159
37.1341
36.5958
35.9918
35.3259
34.6073
33.8455
33.0526
32.2409
31.4235
30.6148
29.8208
29.0472
31.1367
36.0795
41.8505
48.1107
54.8672
62.1568
70.0794
78.7614
88.2661
98.5202
109.263
120.049
130.293
139.411
147.052
153.221
158.103
161.832
164.451
165.989
166.499
166.056
164.754
162.696
159.986
156.726
153.012
148.928
144.547
139.934
135.141
130.213
125.188
120.095
114.961
109.806
104.648
99.4997
94.3738
89.2795
84.2244
79.215
74.256
69.3509
65.8394
63.757
61.8368
60.0677
58.4393
56.9415
55.565
54.3013
53.1426
52.0814
51.7857
53.751
55.6259
57.4152
59.1234
60.7546
62.313
63.8023
65.2262
66.5882
67.8922
69.1423
70.3429
71.498
72.6108
73.6851
74.7253
75.7367
76.7256
77.6991
78.6649
79.6316
80.6076
81.6012
82.6196
83.6686
84.7521
85.872
87.0285
88.2202
89.4447
90.6989
128.73
26.0598
28.0963
33.3779
36.5953
38.7787
40.1044
40.8597
41.281
41.4987
41.5782
41.5526
41.4395
41.2486
40.9855
40.6542
40.2574
39.7982
39.2803
38.7035
38.0614
37.3562
36.5955
35.7888
34.9468
34.0792
33.1947
32.302
31.4039
30.5048
29.6151
31.3043
35.9233
41.4872
47.5255
54.0381
61.035
68.5802
76.7772
85.7165
95.3729
105.552
115.871
125.786
134.724
142.311
148.504
153.459
157.297
160.048
161.731
162.388
162.085
160.911
158.962
156.343
153.155
149.492
145.443
141.082
136.475
131.678
126.739
121.697
116.585
111.43
106.255
101.076
95.9101
90.7686
85.6618
80.5977
75.5824
70.6206
67.0684
64.9634
63.0243
61.24
59.5996
58.0929
56.7103
55.4428
54.2831
53.2226
52.3694
54.0155
55.907
57.7102
59.4298
61.0703
62.6358
64.1301
65.5571
66.9202
68.2233
69.4703
70.6657
71.814
72.919
73.9843
75.0138
76.0127
76.9869
77.9435
78.8904
79.8363
80.7903
81.7619
82.7594
83.7903
84.8599
85.9715
87.1261
88.3228
89.5594
90.8327
131.915
26.537
29.5979
35.4839
39.0586
41.253
42.5058
43.1757
43.518
43.6652
43.6813
43.5981
43.4322
43.1928
42.8851
42.5127
42.0778
41.5823
41.027
40.411
39.7309
38.9888
38.1904
37.3442
36.4603
35.5473
34.613
33.6642
32.7
31.7187
30.7306
29.7479
31.1783
35.6099
41.0153
46.8784
53.1953
59.9672
67.2206
75.0365
83.5091
92.6502
102.318
112.178
121.729
130.422
137.873
144.016
148.983
152.873
155.7
157.473
158.225
158.018
156.933
155.065
152.514
149.379
145.757
141.734
137.388
132.786
127.987
123.04
117.987
112.862
107.694
102.505
97.3157
92.1413
86.9947
81.886
76.8234
71.8127
68.2245
66.099
64.1428
62.3448
60.694
59.1797
57.7922
56.5222
55.3626
54.3036
53.3398
54.1926
56.0996
57.9157
59.6457
61.2944
62.8659
64.3642
65.7932
67.1565
68.458
69.7014
70.8911
72.0315
73.1273
74.1823
75.2003
76.1858
77.1448
78.0838
79.0108
79.9345
80.8646
81.8112
82.784
83.7921
84.8424
85.94
87.087
88.2836
89.5277
90.8165
135.172
27.0948
31.3439
37.7014
41.3967
43.5248
44.6577
45.2132
45.456
45.516
45.4538
45.2991
45.0672
44.7662
44.4011
43.9751
43.4905
42.9488
42.351
41.6965
40.9823
40.2067
39.3733
38.4902
37.5683
36.615
35.6374
34.6431
33.6324
32.6026
31.5585
30.5084
29.4595
30.7588
35.1257
40.4149
46.1416
52.3067
58.9044
65.9378
73.4619
81.5583
90.2656
99.48
108.907
118.083
126.486
133.739
139.771
144.697
148.586
151.431
153.237
154.032
153.875
152.843
151.024
148.517
145.418
141.822
137.816
133.479
128.88
124.08
119.128
114.069
108.937
103.763
98.5706
93.3802
88.2081
83.0671
77.9677
72.9174
69.299
67.1556
65.1847
63.375
61.7153
60.195
58.804
57.5332
56.3748
55.319
54.3601
54.279
56.2007
58.0288
59.7684
61.4243
63.001
64.5025
65.9328
67.2957
68.5951
69.8347
71.0185
72.1508
73.2367
74.2807
75.2867
76.2589
77.2026
78.1242
79.0312
79.9324
80.8375
81.7572
82.7025
83.6837
84.7099
85.7877
86.9211
88.1113
89.3573
90.6565
138.505
27.708
33.1429
39.8488
43.5652
45.5631
46.5417
46.9631
47.0924
47.0534
46.9023
46.6661
46.3583
45.9863
45.5542
45.0649
44.5203
43.9222
43.2716
42.5694
41.8155
41.0095
40.151
39.2406
38.2858
37.2962
36.2811
35.2505
34.2088
33.1528
32.0803
30.9937
29.8976
28.7973
30.0712
34.4849
39.6937
45.3226
51.3735
57.8343
64.7007
71.9985
79.7951
88.1428
96.963
105.993
114.801
122.887
129.898
135.774
140.614
144.443
147.247
149.03
149.821
149.673
148.656
146.857
144.368
141.284
137.7
133.701
129.368
124.77
119.969
115.016
109.955
104.824
99.6527
94.4664
89.2856
84.1267
79.0028
73.9237
70.282
68.1243
66.1415
64.3225
62.6562
61.1318
59.7394
58.4696
57.314
56.2629
55.31
54.6026
56.2071
58.0463
59.7947
61.4572
63.0383
64.5423
65.9735
67.3358
68.6329
69.8686
71.0468
72.1717
73.2479
74.2807
75.2748
76.2341
77.1632
78.0681
78.9559
79.8351
80.7154
81.6077
82.5239
83.4755
84.4733
85.5261
86.6399
87.8178
89.0597
90.3633
91.7246
141.904
28.389
35.0226
41.9185
45.5102
47.3384
48.1437
48.4209
48.4293
48.2846
48.0385
47.715
47.3262
46.8783
46.3749
45.8183
45.2101
44.5519
43.8447
43.0899
42.2884
41.4412
40.5495
39.6149
38.6421
37.6369
36.6054
35.556
34.4937
33.4157
32.3201
31.2079
30.0814
28.9436
27.7978
29.143
33.711
38.8694
44.4303
50.3939
56.7509
63.4883
70.6099
78.1703
86.2223
94.7057
103.38
111.834
119.595
126.341
132.03
136.723
140.43
143.14
144.856
145.601
145.423
144.388
142.577
140.081
136.994
133.406
129.405
125.069
120.47
115.668
110.717
105.661
100.538
95.3794
90.2095
85.0494
79.9153
74.8199
71.163
68.9952
67.0041
65.1788
63.5084
61.9822
60.5903
59.3232
58.1718
57.1272
56.1821
55.3293
56.1151
57.965
59.7215
61.3899
62.9749
64.4812
65.913
67.2745
68.5694
69.8016
70.9748
72.093
73.1608
74.1833
75.1659
76.1129
77.0286
77.9182
78.7884
79.6472
80.5041
81.3699
82.2567
83.1772
84.1436
85.167
86.2557
87.4147
88.6458
89.9476
91.3165
145.327
29.0688
36.9932
43.9501
47.2207
48.8451
49.4635
49.5911
49.4741
49.2197
48.8749
48.4611
47.9889
47.4636
46.888
46.2639
45.5926
44.8755
44.1138
43.309
42.4624
41.5758
40.6511
39.6909
38.6988
37.6789
36.6353
35.5727
34.494
33.3982
32.2843
31.1528
30.0053
28.8433
27.6687
26.4838
28.0677
32.8259
37.9577
43.4745
49.3769
55.656
62.2917
69.276
76.65
84.4609
92.6588
101.016
109.139
116.58
123.046
128.5
132.994
136.537
139.114
140.722
141.382
141.136
140.048
138.196
135.669
132.557
128.952
124.938
120.595
115.993
111.193
106.248
101.204
96.098
90.9612
85.8188
80.6909
75.5934
71.9307
69.7582
67.763
65.935
64.2635
62.7382
61.349
60.0865
58.9414
57.9048
56.9691
56.1271
55.9217
57.7815
59.5456
61.2194
62.8081
64.3164
65.7488
67.1097
68.4027
69.6319
70.8009
71.9137
72.9747
73.9886
74.9609
75.8968
76.8005
77.6769
78.5318
79.3727
80.2086
81.0499
81.9086
82.7979
83.7314
84.7221
85.7807
86.9148
88.1283
89.4215
90.7912
148.778
29.7168
38.9429
45.8499
48.6837
50.0774
50.5056
50.4803
50.2345
49.8675
49.4217
48.9162
48.3599
47.7571
47.11
46.4196
45.6871
44.9132
44.0994
43.247
42.3577
41.4335
40.4767
39.4898
38.4759
37.4381
36.3795
35.3028
34.2099
33.1005
31.974
30.8301
29.6693
28.4926
27.3011
26.0959
24.9504
27.0872
31.8538
36.9791
42.4735
48.337
54.5581
61.1124
67.9872
75.2097
82.8207
90.7753
98.8533
106.664
113.782
119.958
125.159
129.424
132.765
135.169
136.63
137.166
136.815
135.641
133.72
131.138
127.985
124.349
120.314
115.959
111.353
106.558
101.626
96.6013
91.5222
86.4185
81.3152
76.2315
72.5738
70.4025
68.4083
66.5817
64.9127
63.3912
62.0074
60.7517
59.6149
58.5881
57.6636
56.8341
56.1114
57.4928
59.2641
60.9431
62.5353
64.0456
65.4789
66.8394
68.1312
69.3581
70.524
71.6329
72.6888
73.6963
74.6605
75.5868
76.4805
77.346
78.1886
79.0149
79.8331
80.653
81.4862
82.3461
83.2471
84.2035
85.2286
86.3326
87.5223
88.8
90.1641
152.263
30.3255
40.8456
48.0612
50.5028
51.1865
51.2599
51.0847
50.7114
50.2317
49.6847
49.0877
48.4485
47.7701
47.0536