/*--------------------------------*- C++ -*----------------------------------*\
  =========                 |
  \\      /  F ield         | OpenFOAM: The Open Source CFD Toolbox
   \\    /   O peration     | Website:  https://openfoam.org
    \\  /    A nd           | Version:  10
     \\/     M anipulation  |
\*---------------------------------------------------------------------------*/
FoamFile
{
    format      ascii;
    class       volScalarField;
    location    "15000";
    object      omega;
}
// * * * * * * * * * * * * * * * * * * * * * * * * * * * * * * * * * * * * * //

dimensions      [0 0 -1 0 0 0 0];

internalField   nonuniform List<scalar> 
17969
(
5562.21
1457.5
595.787
417.702
348.643
290.445
238.444
191.815
153.032
122.35
99.127
81.8161
68.8589
59.0354
51.4638
45.5247
40.7856
36.9427
33.7802
31.1426
28.9158
27.0153
25.377
23.952
22.7022
21.5979
20.6152
19.735
18.942
18.2234
17.5688
16.9695
16.4182
15.909
15.4365
14.9966
14.5854
14.1997
13.837
13.4948
13.1713
12.8645
12.5732
12.296
12.0319
11.7799
11.5392
11.3091
11.0891
10.8787
10.6775
10.485
10.3011
10.1254
9.95786
9.79824
9.64645
9.50243
9.36614
9.2376
9.11686
9.004
8.89917
8.80257
8.71446
8.63519
8.56521
8.50509
8.45555
8.41751
8.39214
8.38091
8.38571
8.40893
8.45302
8.51878
8.60627
8.7163
8.84981
9.0077
9.19092
9.40039
9.63688
9.90081
10.189
10.4895
10.7901
11.0864
11.3772
11.6623
11.9418
12.2155
12.4833
12.7448
12.9993
13.2463
13.4853
13.7157
13.9371
14.1492
5562.29
1425.69
541.191
364.081
314.505
279.199
244.813
207.317
171.658
140.807
115.376
95.2708
79.7196
67.7307
58.4301
51.1356
45.3393
40.6699
36.8574
33.7042
31.0649
28.8313
26.9216
25.2735
23.839
22.5805
21.4683
20.4788
19.5927
18.7947
18.072
17.414
16.8121
16.259
15.7484
15.2752
14.835
14.4241
14.0391
13.6775
13.3367
13.0149
12.7102
12.4212
12.1465
11.8851
11.636
11.3984
11.1716
10.9549
10.748
10.5502
10.3614
10.1811
10.0092
9.84531
9.68943
9.5414
9.40115
9.26865
9.1439
9.02697
8.91796
8.81703
8.72441
8.64042
8.56546
8.50006
8.44491
8.40089
8.36914
8.35111
8.34869
8.36432
8.40063
8.45884
8.53938
8.6434
8.77226
8.92748
9.11049
9.32294
9.56641
9.84191
10.1428
10.453
10.7618
11.0669
11.3679
11.6653
11.9592
12.2495
12.5356
12.8166
13.0918
13.3599
13.6201
13.8714
14.1132
14.345
5562.35
1406.3
501.076
311.461
269.308
251.821
235.811
213.115
185.452
157.495
132.291
110.731
92.9574
78.7085
67.4109
58.4533
51.31
45.5632
40.8919
37.0531
33.864
31.1867
28.9165
26.9734
25.2957
23.8353
22.5544
21.4229
20.4169
19.5169
18.707
17.9744
17.3081
16.6993
16.1406
15.6255
15.1488
14.7059
14.293
13.9068
13.5445
13.2036
12.8821
12.5782
12.2903
12.0171
11.7574
11.5103
11.275
11.0506
10.8366
10.6324
10.4375
10.2516
10.0744
9.90559
9.74494
9.5923
9.44754
9.31059
9.18142
9.06004
8.9465
8.84094
8.74354
8.65457
8.57439
8.50348
8.44248
8.39223
8.3538
8.32862
8.31852
8.32594
8.35366
8.40327
8.47554
8.57192
8.69418
8.84435
9.02447
9.23694
9.48425
9.76778
10.0772
10.3939
10.7091
11.0222
11.3335
11.6438
11.9534
12.2618
12.5683
12.8715
13.17
13.4623
13.7468
14.0224
14.2879
14.5425
5562.39
1392.55
472.223
272.122
225.618
215.463
211.744
204.123
189.266
168.92
146.783
125.915
107.444
91.592
78.4136
67.6617
58.9484
51.8827
46.1261
41.4033
37.4965
34.2362
31.491
29.1592
27.1615
25.4363
23.9349
22.6189
21.4575
20.426
19.5043
18.6761
17.9279
17.2485
16.6287
16.0607
15.538
15.055
14.607
14.19
13.8007
13.436
13.0935
12.771
12.4666
12.1787
11.906
11.6472
11.4013
11.1674
10.9447
10.7326
10.5305
10.3379
10.1544
9.97976
9.81356
9.65562
9.50575
9.36382
9.22976
9.10351
8.9851
8.87461
8.77216
8.67798
8.59237
8.51577
8.44875
8.39208
8.34678
8.31418
8.29608
8.29482
8.31331
8.35342
8.41622
8.50342
8.61711
8.75979
8.93409
9.14314
9.39038
9.67763
9.99183
10.3125
10.6328
10.953
11.2742
11.5975
11.9233
12.251
12.5794
12.9066
13.2308
13.5498
13.8617
14.1649
14.4577
14.7391
15.0081
15.2641
15.5067
15.7358
5562.42
1381.99
454.542
242.084
188.72
177.697
178.683
181.089
178.913
169.992
155.451
138.073
120.743
104.852
90.7245
78.5401
68.2873
59.7813
52.7606
46.9632
42.159
38.1559
34.7983
31.9616
29.5472
27.4767
25.6883
24.1324
22.7697
21.5684
20.5029
19.5522
18.6993
17.9301
17.233
16.5981
16.0174
15.484
14.992
14.5366
14.1135
13.7192
13.3506
13.005
12.6801
12.3741
12.0852
11.8119
11.5531
11.3075
11.0743
10.8526
10.6418
10.4412
10.2504
10.0688
9.89616
9.73213
9.57646
9.42895
9.28946
9.1579
9.03422
8.91846
8.81069
8.71107
8.61985
8.5374
8.46423
8.40102
8.34872
8.30856
8.28223
8.27198
8.28075
8.31067
8.36301
8.43964
8.54295
8.67577
8.84129
9.04328
9.28605
9.57238
9.88803
10.2109
10.5348
10.8608
11.1909
11.5266
11.8684
12.2155
12.5664
12.9187
13.27
13.6177
13.9594
14.2927
14.6156
14.9266
15.2243
15.5077
15.7763
16.0298
5562.44
1374.43
443.054
220.544
161.267
144.716
144.97
150.515
156.126
157.757
153.456
143.697
130.492
116.201
102.505
89.9966
78.8227
69.1063
60.8262
53.8539
48.0102
43.1129
38.9982
35.5263
32.5811
30.0678
27.9096
26.0443
24.422
23.002
21.7516
20.6441
19.6576
18.7741
17.9788
17.2594
16.6056
16.0088
15.4617
14.9582
14.4931
14.0619
13.6608
13.2866
12.9365
12.6081
12.2993
12.0084
11.7337
11.4739
11.228
10.9947
10.7735
10.5633
10.3637
10.1741
9.9939
9.82284
9.66055
9.50675
9.36123
9.22383
9.09444
8.97303
8.85962
8.75431
8.65729
8.56884
8.4894
8.41957
8.3602
8.31241
8.27775
8.25834
8.2571
8.27633
8.31745
8.38241
8.47375
8.59457
8.74856
8.93993
9.17371
9.45429
9.76824
10.0915
10.4173
10.7475
11.0849
11.4316
11.7883
12.1541
12.5271
12.9048
13.2841
13.662
14.0354
14.4013
14.7573
15.1011
15.431
15.7456
16.0439
16.3255
5562.45
1369.28
434.445
206.625
141.887
121.227
116.966
121.002
128.053
135.169
139.358
138.63
132.877
123.353
111.88
100.185
89.1562
79.0275
69.9338
61.9533
55.0707
49.1996
44.2153
39.9869
36.3935
33.3298
30.7064
28.449
26.496
24.797
23.3106
22.003
20.8462
19.8174
18.8977
18.0715
17.3256
16.6491
16.033
15.4694
14.9519
14.4749
14.0336
13.6241
13.2429
12.887
12.5538
12.2412
11.9472
11.6702
11.4088
11.1617
10.9278
10.7063
10.4963
10.2971
10.1082
9.92904
9.75916
9.59824
9.44596
9.30209
9.16646
9.03897
8.91956
8.80826
8.70519
8.61058
8.52476
8.44825
8.38177
8.32633
8.28334
8.25472
8.24335
8.25162
8.28104
8.33355
8.41174
8.51886
8.65889
8.8364
9.05695
9.32664
9.6354
9.95738
10.2833
10.6157
10.9582
11.3137
11.6831
12.0659
12.46
12.8625
13.27
13.6789
14.0854
14.4862
14.878
15.2578
15.6235
15.9731
16.3051
16.6189
16.9137
5562.45
1365.81
428.617
196.299
128.015
104.173
96.5605
96.9716
102.259
109.574
117.208
122.994
124.961
122.511
116.252
107.499
97.7042
88.0459
78.9781
70.5905
63.0145
56.3056
50.4568
45.411
41.0804
37.3687
34.1842
31.4454
29.0816
27.0331
25.2496
23.6892
22.3173
21.1049
20.0282
19.0672
18.2055
17.4292
16.7266
16.0881
15.5054
14.9715
14.4805
14.0274
13.6078
13.2181
12.8551
12.5161
12.1986
11.9007
11.6206
11.3567
11.1078
10.8727
10.6504
10.44
10.2409
10.0523
9.87366
9.70461
9.54471
9.39363
9.25113
9.11701
8.99116
8.87352
8.76414
8.66315
8.57081
8.48754
8.41394
8.35089
8.29961
8.26185
8.24037
8.23763
8.25512
8.29472
8.35896
8.45113
8.57532
8.73633
8.94009
9.19357
9.49272
9.81166
10.1358
10.4682
10.8131
11.1745
11.554
11.9512
12.3642
12.79
13.225
13.6649
14.1055
14.5427
14.9725
15.3914
15.7962
16.1846
16.5544
16.9044
17.2338
17.5422
17.8296
5562.43
1363.43
424.731
188.544
117.841
91.7122
81.78
79.3892
81.6098
87.1067
94.1598
101.733
108.327
112.193
112.382
108.978
102.783
94.9614
86.6411
78.5493
70.9279
63.8562
57.429
51.6887
46.6349
42.2312
38.4158
35.1169
32.2636
29.7912
27.643
25.7698
24.13
22.6883
21.4151
20.2856
19.279
18.3779
17.5676
16.8357
16.1721
15.5677
15.0153
14.5084
14.0417
13.6106
13.2111
12.8398
12.4938
12.1706
11.8679
11.5839
11.3169
11.0656
10.8287
10.6051
10.3939
10.1943
10.0057
9.82731
9.65875
9.49958
9.34944
9.20804
9.0752
8.95078
8.83473
8.72711
8.62807
8.53793
8.45718
8.38654
8.32708
8.28031
8.24888
8.23523
8.24082
8.26735
8.31724
8.39366
8.50066
8.64314
8.82712
9.05984
9.34424
9.65759
9.97827
10.3081
10.6527
11.0167
11.4027
11.8111
12.2401
12.6868
13.1474
13.6174
14.0921
14.5666
15.0362
15.4966
15.9437
16.3744
16.786
17.1764
17.5445
17.8894
18.2109
18.5092
5562.41
1361.77
422.181
182.643
109.884
82.4116
70.8869
66.6498
66.5405
69.3794
74.634
81.1698
88.3404
95.176
100.259
102.456
101.453
97.6203
91.7702
84.8604
77.7463
70.8767
64.3744
58.3199
52.7857
47.805
43.3818
39.4933
36.0962
33.1365
30.5588
28.3108
26.346
24.6237
23.1086
21.7708
20.5847
19.5289
18.585
17.7376
16.9738
16.2825
15.6543
15.0814
14.5569
14.0751
13.6311
13.2206
12.8399
12.486
12.1561
11.8479
11.5594
11.2887
11.0344
10.7952
10.5699
10.3575
10.1571
9.968
9.78956
9.62122
9.46252
9.31307
9.17258
9.04082
8.91766
8.80306
8.69708
8.59992
8.51195
8.43375
8.3662
8.3106
8.26944
8.24516
8.23906
8.25264
8.28811
8.34843
8.43749
8.56011
8.7222
8.93091
9.19439
9.49783
9.81343
10.1388
10.4801
10.8435
11.2324
11.6479
12.0891
12.5532
13.0367
13.5348
14.0425
14.5544
15.0648
15.5685
16.0608
16.5373
16.9946
17.4299
17.8413
18.2275
18.5879
18.9226
19.2319
19.5165
5562.38
1360.52
420.426
177.956
103.405
74.9687
62.5135
57.1065
55.5182
56.4453
59.3777
64.1765
70.1269
76.7399
83.4323
89.1681
92.7889
93.7168
91.9745
88.0315
82.6292
76.5384
70.4119
64.5138
58.8948
53.6461
48.8243
44.4563
40.5476
37.0841
34.0358
31.3621
29.019
26.9643
25.1591
23.5691
22.1645
20.9195
19.8117
18.8225
17.9357
17.1376
16.4166
15.7628
15.1677
14.6241
14.1259
13.6677
13.2451
12.8542
12.4915
12.1542
11.8398
11.5461
11.2712
11.0135
10.7716
10.5441
10.3301
10.1286
9.93884
9.76006
9.5917
9.43325
9.2843
9.14454
9.01371
8.89169
8.77842
8.67401
8.5787
8.49291
8.41736
8.35311
8.30252
8.26794
8.25052
8.2515
8.2728
8.31711
8.38801
8.49017
8.62924
8.81239
9.04831
9.33444
9.64346
9.96257
10.2989
10.6592
11.0474
11.4658
11.9145
12.3915
12.8938
13.4168
13.9552
14.5031
15.0543
15.6026
16.142
16.6674
17.1741
17.6586
18.1179
18.5502
18.9545
19.3303
19.6779
19.9978
20.2912
20.5593
20.8036
21.0255
5562.34
1359.54
419.094
174.081
97.8818
68.7224
55.7641
49.6773
47.212
46.9887
48.4231
51.2953
55.5902
60.932
66.874
73.1159
79.0195
83.5299
85.9071
85.9184
83.7411
79.8581
74.9239
69.5702
64.244
59.1065
54.2033
49.6099
45.3713
41.5097
38.0309
34.9267
32.1758
29.7482
27.609
25.7237
24.0597
22.588
21.2829
20.1219
19.0857
18.1578
17.3238
16.5715
15.8905
15.2718
14.7079
14.1921
13.7189
13.2833
12.8813
12.5091
12.1638
11.8427
11.5433
11.2638
11.0022
10.7571
10.5273
10.3114
10.1085
9.9178
9.73846
9.56988
9.41151
9.26291
9.12373
8.99372
8.87274
8.76076
8.65789
8.56443
8.4809
8.40817
8.34843
8.30395
8.2757
8.26459
8.27224
8.30095
8.35391
8.43534
8.55039
8.70551
8.90833
9.16748
9.46731
9.78293
10.1153
10.47
10.8532
11.2693
11.72
12.2046
12.7205
13.2639
13.8295
14.411
15.0017
15.5946
16.1825
16.7591
17.3187
17.8562
18.368
18.8513
19.3043
19.726
20.1163
20.4758
20.8052
21.106
21.3795
21.6277
5562.3
1358.89
418.041
170.912
93.1431
63.3763
50.1346
43.7358
40.767
39.8714
40.4154
42.1289
44.931
48.8535
53.6746
58.9205
64.4353
69.9987
74.9035
78.2575
79.6379
78.992
76.5679
72.8351
68.352
63.6254
58.955
54.4367
50.1204
46.0673
42.3135
38.8771
35.7637
32.968
30.4754
28.263
26.3038
24.5693
23.0321
21.6674
20.4529
19.3692
18.3992
17.5282
16.7436
16.0344
15.3913
14.8061
14.2719
13.7828
13.3336
12.9198
12.5377
12.1839
11.8555
11.5501
11.2655
10.9998
10.7513
10.5188
10.3008
10.0963
9.90448
9.72442
9.55546
9.39704
9.24867
9.10999
8.98073
8.86074
8.75001
8.6487
8.55716
8.47605
8.40742
8.35345
8.31488
8.29233
8.28702
8.30087
8.3366
8.39783
8.48917
8.6164
8.78673
9.00901
9.28745
9.59993
9.92822
10.2768
10.6526
11.0623
11.5097
11.996
12.5199
13.0782
13.666
14.2774
14.9051
15.5413
16.178
16.8074
17.4225
18.0169
18.5857
19.1249
19.6319
20.1049
20.5435
20.9477
21.3182
21.6564
21.9638
22.2422
5562.25
1358.7
417.362
168.603
89.3335
58.9546
45.514
38.9562
35.7373
34.441
34.4502
35.4675
37.3796
40.1852
43.8693
48.1832
52.7544
57.5187
62.4073
67.1609
71.0376
73.3819
73.9701
72.8487
70.2974
66.7522
62.6796
58.4831
54.356
50.3498
46.5202
42.9177
39.5717
36.4969
33.6978
31.1709
28.9052
26.8839
25.0855
23.4867
22.0646
20.7978
19.6669
18.6548
17.7467
16.9293
16.1914
15.5232
14.9161
14.363
13.8575
13.3942
12.9683
12.5758
12.2131
11.8772
11.5655
11.2756
11.0055
10.7535
10.518
10.2978
10.0916
9.89849
9.71759
9.54817
9.3896
9.24139
9.10315
8.9746
8.8556
8.74615
8.64647
8.55699
8.47967
8.41658
8.36823
8.33491
8.31748
8.31745
8.33703
8.37931
8.44833
8.54917
8.68835
8.87407
9.11646
9.41337
9.73887
10.0818
10.4491
10.8491
11.2885
11.7707
12.2962
12.863
13.4673
14.1032
14.7638
15.4406
16.1249
16.8077
17.4802
18.1347
18.7647
19.3648
19.9312
20.4614
20.9539
21.4085
21.8256
22.2064
22.5524
22.8655
5562.19
1359.11
417.342
167.417
86.7529
55.6509
41.9632
35.2683
31.876
30.3218
29.9667
30.5189
31.8469
33.9254
36.7568
40.1721
43.9593
47.947
52.0672
56.2779
60.5291
64.4663
67.3904
68.8843
68.8464
67.3834
64.7819
61.436
57.7346
53.986
50.3082
46.7291
43.3081
40.0863
37.0875
34.3236
31.798
29.5075
27.4438
25.5939
23.9409
22.4657
21.149
19.9725
18.9193
17.9743
17.1244
16.3578
15.6644
15.0354
14.4631
13.941
13.4633
13.0251
12.622
12.2503
11.9068
11.5886
11.2932
11.0186
10.7629
10.5245
10.3019
10.0939
9.89942
9.71762
9.54767
9.38893
9.24085
9.10304
8.9752
8.85723
8.74914
8.65123
8.56532
8.4934
8.43575
8.39235
8.3637
8.35088
8.35567
8.38058
8.4291
8.50564
8.61592
8.76728
8.96905
9.23271
9.54793
9.88657
10.2458
10.6344
11.0619
11.5345
12.055
12.6234
13.237
13.891
14.5788
15.2921
16.0212
16.7561
17.4868
18.2038
18.8986
19.5643
20.1957
20.7889
21.3415
21.8528
22.3225
22.7518
23.142
23.4951
23.8134
5562.13
1360.01
418.19
167.49
85.623
53.6567
39.5791
32.6716
29.0839
27.2937
26.6391
26.8202
27.7057
29.2551
31.4758
34.2474
37.3232
40.6404
44.1281
47.7056
51.3454
55.0228
58.6648
61.8195
63.9105
64.7099
64.1865
62.4849
59.8876
56.745
53.3843
50.0126
46.7023
43.4858
40.4128
37.5166
34.8168
32.3231
30.0375
27.957
26.0747
24.3802
22.8599
21.4982
20.2791
19.1867
18.2062
17.3245
16.5298
15.8116
15.1608
14.5696
14.031
13.5391
13.0885
12.6749
12.2941
11.9429
11.6182
11.3174
11.0383
10.7789
10.5374
10.3125
10.1026
9.90685
9.72413
9.55365
9.39473
9.2468
9.10945
8.9824
8.86555
8.75899
8.66448
8.58393
8.51738
8.46452
8.42549
8.401
8.39238
8.40163
8.43165
8.48624
8.57034
8.69038
8.85471
9.07393
9.35945
9.692
10.0446
10.4221
10.8351
11.2934
11.8028
12.3655
12.9808
13.6452
14.3531
15.0966
15.866
16.6504
17.4384
18.2187
18.9811
19.7166
20.4181
21.0801
21.6993
22.2735
22.8022
23.286
23.7261
24.1245
24.4835
5562.07
1361.14
419.815
168.637
85.8759
53.009
38.3907
31.1508
27.2913
25.2252
24.2632
24.0902
24.5713
25.6605
27.3707
29.6257
32.1777
34.9309
37.8593
40.9419
44.0834
47.2732
50.4864
53.7017
56.7453
59.1655
60.5648
60.8064
59.9129
58.0536
55.5028
52.5638
49.5048
46.4579
43.4611
40.5545
37.78
35.1648
32.7253
30.4685
28.3956
26.5032
24.7851
23.2327
21.8348
20.5786
19.4505
18.4369
17.5251
16.7034
15.9613
15.2895
14.6799
14.1252
13.6193
13.1568
12.7328
12.3432
11.9844
11.6534
11.3473
11.0638
10.8007
10.5563
10.329
10.1174
9.9203
9.73671
9.56575
9.4067
9.25899
9.12219
8.99605
8.8805
8.77725
8.68814
8.61299
8.55116
8.50251
8.46738
8.44666
8.44189
8.4554
8.49043
8.55116
8.64313
8.77365
8.95227
9.1912
9.49795
9.84604
10.2143
10.6128
11.0536
11.5463
12.0964
12.7054
13.3717
14.0914
14.8574
15.6605
16.4896
17.3321
18.1752
19.0066
19.815
20.5913
21.3279
22.0199
22.6639
23.2585
23.8035
24.3
24.7498
25.1552
5562
1362.21
421.98
170.503
87.1683
53.5214
38.2933
30.6222
26.4114
24.0134
22.7091
22.1663
22.236
22.8672
24.0717
25.8389
27.9589
30.2707
32.746
35.3627
38.1229
40.9412
43.7809
46.6226
49.454
52.2398
54.731
56.5175
57.3402
57.1328
55.9602
54.0069
51.5327
48.8002
46.011
43.2426
40.5166
37.8793
35.3649
32.9959
30.7855
28.739
26.8563
25.1338
23.5657
22.1443
20.8601
19.7025
18.66
17.721
16.8744
16.1099
15.4182
14.7911
14.2212
13.702
13.2279
12.7941
12.396
12.0301
11.693
11.3818
11.094
10.8275
10.5804
10.3508
10.1376
9.93927
9.7549
9.58355
9.42447
9.2771
9.14102
9.01601
8.90375
8.80601
8.7224
8.65198
8.59432
8.5494
8.51777
8.50049
8.49936
8.51709
8.55714
8.62421
8.72455
8.86644
9.06073
9.32134
9.64881
10.0118
10.3977
10.8202
11.2923
11.8235
12.4184
13.078
13.8001
14.5795
15.4082
16.275
17.1671
18.0704
18.9704
19.8537
20.7084
21.5249
22.296
23.0167
23.6843
24.2979
24.858
25.3662
25.8247
26.2364
5561.92
1362.93
424.431
172.743
89.0491
54.8133
39.0141
30.8841
26.2863
23.5289
21.8641
20.9421
20.598
20.7639
21.4364
22.6605
24.3614
26.2896
28.39
30.6391
33.0211
35.5276
38.1049
40.6797
43.2439
45.783
48.2793
50.6619
52.6386
53.8733
54.2166
53.6506
52.2741
50.2803
47.9092
45.3869
42.838
40.3046
37.818
35.418
33.1333
30.9828
28.9766
27.1186
25.4076
23.8399
22.4096
21.1096
19.9319
18.8671
17.9057
17.0376
16.2532
15.5435
14.9004
14.3164
13.7849
13.3002
12.8571
12.4512
12.0786
11.7359
11.42
11.1283
10.8586
10.6088
10.3773
10.1625
9.96318
9.77817
9.60658
9.44766
9.30084
9.16576
9.04406
8.93749
8.84541
8.76663
8.7004
8.64642
8.60486
8.5764
8.56233
8.56482
8.58671
8.63189
8.70562
8.81494
8.96917
9.18054
9.46478
9.81286
10.1907
10.5967
11.0465
11.554
12.1278
12.7721
13.4872
14.2701
15.1143
16.0102
16.9448
17.9032
18.8695
19.8277
20.7633
21.664
22.5198
23.3239
24.0718
24.7613
25.3923
25.9657
26.4839
26.9496
5561.85
1363.12
426.979
175.127
91.1533
56.4694
40.1843
31.6315
26.6669
23.5732
21.5712
20.3051
19.5813
19.3136
19.4808
20.1131
21.2626
22.8177
24.5611
26.4729
28.5342
30.7302
33.046
35.4515
37.8426
40.2095
42.5331
44.807
47.0066
48.9903
50.4825
51.2434
51.1866
50.3366
48.8189
46.8312
44.5879
42.2633
39.9276
37.6015
35.3276
33.1392
31.06
29.1054
27.2834
25.5959
24.0414
22.6154
21.3124
20.1257
19.0479
18.071
17.1866
16.3862
15.6615
15.0045
14.4081
13.8658
13.3715
12.9202
12.5073
12.1287
11.7808
11.4607
11.1655
10.8929
10.6409
10.4076
10.1915
9.99133
9.80593
9.63435
9.47587
9.32995
9.19827
9.08253
8.98184
8.89475
8.82024
8.75772
8.70704
8.66852
8.64302
8.63206
8.63806
8.66416
8.71469
8.79555
8.91464
9.08241
9.31257
9.62226
9.99073
10.3843
10.813
11.2942
11.8414
12.4627
13.1615
13.9374
14.7865
15.7009
16.6687
17.675
18.7027
19.7339
20.7512
21.739
22.6847
23.5785
24.4138
25.187
25.8964
26.5428
27.1278
27.6544
5561.77
1362.68
429.514
177.518
93.2541
58.1765
41.4731
32.5552
27.2665
23.9016
21.6386
20.0859
19.046
18.4197
18.1662
18.2876
18.8266
19.8412
21.2325
22.8024
24.5418
26.438
28.4775
30.6412
32.9131
35.1863
37.4198
39.5984
41.7114
43.743
45.6455
47.2449
48.2983
48.6424
48.2476
47.1756
45.5713
43.6281
41.535
39.3926
37.2355
35.0981
33.0167
31.0195
29.1263
27.3496
25.6949
24.1632
22.752
21.4568
20.2719
19.1909
18.2072
17.3135
16.5026
15.7669
15.0994
14.4932
13.9419
13.4398
12.9815
12.5626
12.1788
11.8266
11.5027
11.2044
10.9293
10.6754
10.4407
10.2237
10.023
9.83758
9.66639
9.50877
9.36644
9.24104
9.13147
9.03598
8.95331
8.8826
8.82341
8.77569
8.73993
8.71713
8.70927
8.71882
8.74928
8.80556
8.89428
9.02438
9.20781
9.46036
9.7952
10.1814
10.5931
11.0483
11.5656
12.1578
12.8319
13.5909
14.4336
15.3548
16.3447
17.3893
18.4713
19.5709
20.6684
21.745
22.7844
23.7737
24.7036
25.5681
26.3642
27.0916
27.7514
28.3462
5561.69
1361.58
431.974
179.827
95.2051
59.735
42.6564
33.4414
27.9272
24.3251
21.8349
20.0592
18.7864
17.9008
17.3434
17.0931
17.1609
17.5907
18.4505
19.6799
21.0903
22.6691
24.4133
26.3136
28.3522
30.5061
32.6894
34.8296
36.909
38.9067
40.8171
42.6143
44.2219
45.445
46.0889
46.0677
45.3921
44.1562
42.5203
40.6633
38.7157
36.7318
34.7374
32.7715
30.8653
29.0425
27.3194
25.7054
24.2042
22.8156
21.5366
20.3622
19.2871
18.305
17.4098
16.5949
15.8538
15.1801
14.5675
14.01
13.5021
13.0386
12.6149
12.2268
11.8709
11.544
11.2434
10.9665
10.7112
10.4757
10.2583
10.0576
9.87258
9.70231
9.54854
9.41292
9.29406
9.18998
9.09912
9.0204
8.95308
8.89683
8.85177
8.81847
8.79846
8.79363
8.80678
8.84188
8.90444
9.00195
9.14459
9.34604
9.62428
9.98267
10.3848
10.8188
11.3061
11.8649
12.5073
13.24
14.0653
14.9811
15.9806
17.0518
18.178
19.339
20.5128
21.6774
22.8129
23.9026
24.9336
25.8973
26.7886
27.6055
28.3485
29.0198
5561.6
1359.8
434.301
181.952
96.875
61.0095
43.7213
34.2544
28.4736
24.6517
21.9809
20.0459
18.6178
17.5653
16.8132
16.3236
16.0855
16.1131
16.447
17.1591
18.2294
19.4971
20.9249
22.5218
24.2849
26.2004
28.2441
30.3495
32.4182
34.4258
36.3482
38.1731
39.8839
41.4453
42.7388
43.5894
43.8607
43.5219
42.622
41.2827
39.6635
37.9137
36.1029
34.2553
32.411
30.6033
28.8588
27.197
25.6307
24.1666
22.807
21.5505
20.3936
19.3313
18.3583
17.4686
16.6564
15.9158
15.241
14.6262
14.0659
13.5547
13.0877
12.6607
12.2699
11.9117
11.583
11.281
11.0032
10.7475
10.5118
10.2946
10.0945
9.91055
9.74451
9.59799
9.46937
9.35635
9.25715
9.17044
9.09523
9.03093
8.97732
8.9346
8.90383
8.88645
8.88463
8.90151
8.94158
9.01101
9.11825
9.27471
9.49572
9.80154
10.1841
10.6049
11.0657
11.5897
12.1951
12.8936
13.6912
14.5896
15.5855
16.6699
17.8281
19.0405
20.2837
21.5331
22.7649
23.9582
25.0962
26.1665
27.1614
28.0769
28.9121
29.6685
5561.52
1357.37
436.454
183.776
98.1154
62.1728
44.6125
34.8224
28.7933
24.7932
21.9912
19.9518
18.4298
17.2806
16.417
15.7881
15.3686
15.1539
15.1586
15.4201
16.0061
16.9287
18.0703
19.3581
20.811
22.4353
24.2238
26.1554
28.1811
30.1855
32.1362
34.0053
35.7682
37.4159
38.9212
40.2263
41.1962
41.6849
41.6182
41.0098
39.9448
38.5611
37.0067
35.3638
33.6645
31.9457
30.2419
28.5819
26.9879
25.4756
24.0547
22.7296
21.501
20.3667
19.3228
18.3644
17.4861
16.6825
15.948
15.277
14.6641
14.1043
13.5932
13.1255
12.6977
12.3062
11.9475
11.6186
11.3165
11.0388
10.7834
10.5483
10.332
10.1333
9.95413
9.79601
9.65706
9.53469
9.4269
9.33209
9.24907
9.177
9.11539
9.06415
9.02366
8.99522
8.9804
8.98162
9.00244
9.04787
9.12483
9.2428
9.4146
9.65743
9.99389
10.4017
10.8431
11.335
11.9012
12.5594
13.3205
14.1903
15.1693
16.2526
17.4287
18.6798
19.9825
21.3103
22.6361
23.9344
25.1837
26.3675
27.4743
28.4974
29.4342
30.2851
5561.43
1354.31
438.365
185.131
99.1572
63.0932
45.1585
35.0761
28.8538
24.7297
21.8463
19.7492
18.1801
16.9843
16.066
15.3656
14.8481
14.4968
14.3108
14.3033
14.5098
14.9913
15.7885
16.8228
17.9869
19.3037
20.7904
22.4487
24.263
26.1997
28.1384
30.0366
31.86
33.5786
35.1765
36.6345
37.92
38.9477
39.5852
39.7288
39.3635
38.5433
37.3818
36.0154
34.5352
32.9816
31.3887
29.7917
28.2205
26.6994
25.2464
23.8737
22.5881
21.392
20.2848
19.2637
18.3245
17.4622
16.6721
15.948
15.286
14.6802
14.125
13.6167
13.1513
12.7254
12.3353
11.9779
11.65
11.3491
11.0725
10.8184
10.5847
10.3703
10.1771
10.0066
9.85674
9.72457
9.60783
9.50473
9.41385
9.33412
9.26482
9.20554
9.15629
9.11802
9.09183
9.07954
9.0839
9.10894
9.16029
9.24578
9.37617
9.56615
9.83574
10.2032
10.6339
11.1004
11.6289
12.2436
12.9614
13.7927
14.7424
15.8102
16.9888
18.2635
19.6128
21.0095
22.4237
23.8257
25.189
26.4918
27.7183
28.8583
29.9065
30.8617
5561.35
1350.66
439.972
185.888
100.081
63.5919
45.3065
35.0102
28.6684
24.4803
21.5633
19.4483
17.8677
16.6602
15.7246
14.9962
14.4339
14.0138
13.7257
13.5688
13.5578
13.7247
14.1206
14.8048
15.7377
16.8024
18.0015
19.3593
20.8905
22.586
24.4229
26.2895
28.1318
29.91
31.5913
33.1479
34.5665
35.8214
36.8667
37.5939
37.8946
37.7248
37.114
36.1525
34.9625
33.6381
32.2247
30.7553
29.2651
27.7847
26.3399
24.9504
23.6303
22.3885
21.2291
20.153
19.1585
18.242
17.4007
16.6299
15.922
15.273
14.6769
14.1291
13.6266
13.166
12.7439
12.3571
12.0025
11.6771
11.3784
11.1041
10.8521
10.621
10.4129
10.2294
10.0679
9.92546
9.79939
9.68772
9.58882
9.50143
9.4246
9.35768
9.30031
9.25315
9.21689
9.19282
9.18306
9.19074
9.22041
9.27846
9.37381
9.51876
9.73027
10.0315
10.4295
10.8822
11.379
11.9505
12.6206
13.4055
14.3149
15.3534
16.5186
17.8005
19.1807
20.6332
22.1268
23.6281
25.1053
26.5312
27.8843
29.1501
30.3198
31.3899
5561.26
1346.5
441.225
186.344
100.461
63.5867
45.0643
34.6597
28.2791
24.0856
21.1784
19.0785
17.5131
16.3175
15.3882
14.6578
14.0823
13.6335
13.2957
13.0618
12.9341
12.9271
13.0679
13.3994
13.9825
14.8129
15.7959
16.8946
18.1407
19.555
21.1364
22.8674
24.6519
26.4302
28.1585
29.7992
31.3196
32.701
33.924
34.9616
35.7372
36.1486
36.1286
35.6894
34.9015
33.8724
32.6933
31.412
30.0612
28.6756
27.2861
25.9191
24.5959
23.3319
22.1377
21.0191
19.9785
19.0164
18.1298
17.3149
16.5655
15.876
15.2416
14.6569
14.1187
13.6242
13.1703
12.7539
12.3719
12.0215
11.6998
11.4044
11.1333
10.8847
10.6609
10.4637
10.2901
10.1368
10.001
9.88041
9.77328
9.67812
9.59382
9.51949
9.45459
9.3991
9.35371
9.31924
9.29722
9.29004
9.3013
9.33616
9.40187
9.50859
9.67036
9.90658
10.2438
10.6725
11.1488
11.6818
12.303
13.036
13.8961
14.8928
16.0293
17.3011
18.6945
20.1867
21.7468
23.3391
24.9272
26.4777
27.963
29.3628
30.664
31.8599
5561.17
1341.92
442.024
186.508
100.299
63.1189
44.4921
34.0872
27.7436
23.597
20.7355
18.6764
17.1454
15.9775
15.0687
14.3511
13.7796
13.3242
12.9661
12.6949
12.5073
12.4071
12.4076
12.532
12.8162
13.3122
14.0469
14.958
15.975
17.1273
18.4366
19.9094
21.5346
23.23
24.9359
26.6061
28.1996
29.6823
31.0262
32.2177
33.2339
34.0294
34.5102
34.5998
34.2964
33.6544
32.7676
31.7208
30.5615
29.3222
28.0369
26.7365
25.4477
24.1926
22.9878
21.846
20.7746
19.7764
18.8517
17.9979
17.2102
16.4836
15.8133
15.1944
14.6226
14.0957
13.6109
13.1653
12.756
12.3802
12.0351
11.7181
11.4271
11.1604
10.9204
10.7088
10.5225
10.3579
10.212
10.0821
9.9665
9.86341
9.77155
9.68987
9.61764
9.55435
9.50058
9.45678
9.42399
9.40398
9.39952
9.41471
9.45543
9.52994
9.6498
9.83102
10.0957
10.4723
10.9322
11.4357
12.0111
12.6897
13.4938
14.4384
15.5321
16.7767
18.1645
19.6776
21.2877
22.9588
24.6507
26.3242
27.945
29.4861
30.9285
32.2613
5561.08
1337.04
442.323
186.398
99.6412
62.2665
43.6718
33.3654
27.1233
23.0649
20.2764
18.2765
16.7929
15.6623
14.7821
14.085
13.5262
13.0754
12.7125
12.425
12.2067
12.0572
11.9812
11.9902
12.1044
12.3541
12.7817
13.4328
14.2763
15.2311
16.3049
17.5219
18.894
20.4166
22.019
23.6454
25.2495
26.7887
28.2266
29.5318
30.6874
31.6749
32.4694
32.9881
33.155
32.9556
32.4327
31.6681
30.739
29.69
28.5536
27.3631
26.1492
24.9386
23.7545
22.6142
21.5298
20.5091
19.5559
18.6701
17.8492
17.0894
16.3863
15.7358
15.1334
14.5761
14.0619
13.5881
13.152
12.7511
12.3824
12.0437
11.7325
11.4471
11.1903
10.9639
10.7645
10.5882
10.4316
10.2922
10.1678
10.0565
9.95694
9.86788
9.78837
9.71765
9.65603
9.60367
9.56123
9.52997
9.51197
9.51043
9.53004
9.57752
9.66237
9.7979
10.0028
10.3032
10.7185
11.2058
11.7437
12.3695
13.114
13.9985
15.0376
16.239
17.6023
19.1158
20.7563
22.4896
24.274
26.0652
27.8219
29.5093
31.1018
32.5826
5560.99
1331.92
442.333
185.795
98.5348
61.1231
42.691
32.5653
26.4736
22.5328
19.8353
17.9061
16.4775
15.3896
14.542
13.8689
13.3266
12.8851
12.5243
12.2308
11.9971
11.82
11.7006
11.6446
11.6627
11.772
11.9979
12.3758
12.9564
13.7373
14.6438
15.6523
16.7897
18.071
19.4969
21.006
22.5489
24.0805
25.5579
26.9433
28.2051
29.3206
30.276
31.0547
31.5894
31.8062
31.6827
31.2537
30.5911
29.7636
28.8127
27.7708
26.6707
25.5424
24.4113
23.2996
22.2244
21.1983
20.2293
19.3212
18.4743
17.6866
16.955
16.2758
15.6457
15.061
14.5194
14.0189
13.5572
13.1317
12.7399
12.3794
12.0479
11.7436
11.4697
11.2281
11.0152
10.8267
10.6593
10.5099
10.3764
10.2567
10.1492
10.0526
9.96589
9.88805
9.81877
9.75836
9.70709
9.66577
9.63593
9.61999
9.62165
9.64632
9.70172
9.79879
9.95293
10.1859
10.5282
10.9811
11.496
12.0761
12.7608
13.5802
14.5552
15.6998
17.0203
18.5132
20.1621
21.9373
23.7979
25.6967
27.5858
29.4224
31.1725
32.8123
34.3277
5560.9
1326.54
441.938
184.87
97.0949
59.7954
41.6338
31.7487
25.8396
22.034
19.4374
17.5844
16.2141
15.1707
14.3568
13.7087
13.1839
12.7533
12.397
12.102
11.8598
11.666
11.5199
11.4237
11.3836
11.4092
11.516
11.7259
12.0705
12.5968
13.323
14.1893
15.1456
16.2162
17.418
18.7552
20.1738
21.632
23.0869
24.4966
25.8236
27.0359
28.1076
29.0275
29.7811
30.3155
30.5596
30.4881
30.1299
29.5499
28.8104
27.9482
26.9955
25.9817
24.9347
23.8797
22.838
21.8266
20.858
19.9399
19.0764
18.2679
17.5133
16.8098
16.1548
15.5456
14.9794
14.4544
13.9685
13.5195
13.1053
12.7234
12.3717
12.0485
11.7574
11.5003
11.2737
11.0728
10.8941
10.7345
10.5915
10.4631
10.3475
10.2433
10.1492
10.0642
9.98751
9.91939
9.85987
9.80939
9.769
9.7405
9.72675
9.73203
9.76258
9.82726
9.93866
10.1145
10.3796
10.7687
11.2598
11.806
12.4359
13.1886
14.0929
15.1693
16.4312
17.883
19.5168
21.3102
23.2264
25.2173
27.2303
29.2146
31.1269
32.9349
34.6174
5560.81
1321.32
441.112
183.792
95.4589
58.3938
40.5757
30.9662
25.2556
21.592
19.0991
17.3232
16.0109
15.0114
14.2303
13.6062
13.0982
12.6782
12.3272
12.0321
11.7846
11.5798
11.4156
11.2928
11.2145
11.1869
11.2194
11.326
11.5266
11.8495
12.3353
13.0166
13.8483
14.7644
15.7807
16.9139
18.1709
19.5039
20.8785
22.2547
23.5927
24.8559
26.0126
27.0368
27.9164
28.6399
29.1629
29.4164
29.3768
29.0738
28.5654
27.9028
27.1193
26.2452
25.3088
24.3366
23.3527
22.3775
21.4275
20.5143
19.6457
18.8255
18.0546
17.3323
16.6568
16.0261
15.438
14.891
14.3829
13.912
13.4764
13.0738
12.7024
12.3605
12.0521
11.7796
11.5389
11.3254
11.1352
10.9651
10.8125
10.6751
10.5512
10.439
10.3374
10.2451
10.1612
10.0855
10.0181
9.95909
9.9091
9.86944
9.84226
9.83093
9.84041
9.87789
9.95362
10.0822
10.2842
10.5891
11.0257
11.5514
12.1369
12.8259
13.6566
14.6567
15.8466
17.2386
18.8342
20.6202
22.5668
24.629
26.7519
28.8776
30.9534
32.937
34.7981
5560.72
1316.27
439.894
182.366
93.7308
57.0121
39.576
30.2548
24.7447
21.2219
18.8303
17.1289
15.872
14.9138
14.1633
13.5612
13.0682
12.6575
12.3108
12.0157
11.7641
11.551
11.3737
11.232
11.1276
11.0642
11.048
11.0881
11.1976
11.3947
11.7045
12.1621
12.8067
13.6073
14.493
15.4653
16.5402
17.7243
18.9779
20.2715
21.5688
22.8325
24.0277
25.1239
26.0965
26.9324
27.6229
28.1269
28.3802
28.3668
28.1097
27.6559
27.053
26.3343
25.528
24.6604
23.7562
22.838
21.9252
21.033
20.1726
19.3512
18.5724
17.8377
17.1468
16.4987
15.8921
15.3255
14.7976
14.3067
13.851
13.4288
13.0383
12.6781
12.3527
12.0647
11.81
11.5837
11.3818
11.201
11.0384
10.8919
10.7593
10.639
10.5297
10.43
10.3389
10.2557
10.1805
10.1133
10.0544
10.0046
9.96554
9.93977
9.93122
9.94568
9.99146
10.0805
10.2297
10.4633
10.8163
11.2984
11.8571
12.4916
13.2498
14.1692
15.277
16.5934
18.129
19.8813
21.8304
23.938
26.1503
28.4052
30.641
32.8042
34.854
5560.63
1311.35
438.233
180.366
92.0921
55.7367
38.6778
29.639
24.3213
20.9321
18.6359
17.0041
15.7984
14.878
14.1549
13.572