/*--------------------------------*- C++ -*----------------------------------*\
  =========                 |
  \\      /  F ield         | OpenFOAM: The Open Source CFD Toolbox
   \\    /   O peration     | Website:  https://openfoam.org
    \\  /    A nd           | Version:  10
     \\/     M anipulation  |
\*---------------------------------------------------------------------------*/
FoamFile
{
    format      ascii;
    class       volScalarField;
    location    "60000";
    object      nut;
}
// * * * * * * * * * * * * * * * * * * * * * * * * * * * * * * * * * * * * * //

dimensions      [0 2 -1 0 0 0 0];

internalField   nonuniform List<scalar> 
17808
(
2.71601e-06
1.95181e-05
3.39989e-05
4.81787e-05
6.31572e-05
7.86891e-05
9.4668e-05
0.00011104
0.000127777
0.000144862
0.000162286
0.000180043
0.000198132
0.000216552
0.000235305
0.000254394
0.00027382
0.000293588
0.000313703
0.000334168
0.000354988
0.000376169
0.000397716
0.000419634
0.000441929
0.000464606
0.000487673
0.000511134
0.000534996
0.000559266
0.00058395
0.000609055
0.000634587
0.000660552
0.000686958
0.000713812
0.00074112
0.000768889
0.000797127
0.00082584
0.000855035
0.00088472
0.0009149
0.000945584
0.000976778
0.00100849
0.00104072
0.00107349
0.00110679
0.00114064
0.00117503
0.00120998
0.0012455
0.00128158
0.00131823
0.00135546
0.00139328
0.00143168
0.00147068
0.00151027
0.00155047
0.00159126
0.00163267
0.00167468
0.0017173
0.00176052
0.00180434
0.00184877
0.0018938
0.00193944
0.00198566
0.00203248
0.00207989
0.00212787
0.00217642
0.00222553
0.00227518
0.00232537
0.00237608
0.0024273
0.00247899
0.00253115
0.00258375
0.00263677
0.00269018
0.00274394
0.00279803
0.00285241
0.00290703
0.00296187
0.00301687
0.00307199
2.70546e-06
1.98216e-05
3.39834e-05
4.81646e-05
6.31398e-05
7.86684e-05
9.46444e-05
0.000111014
0.000127749
0.000144832
0.000162255
0.000180011
0.000198099
0.000216519
0.000235272
0.00025436
0.000273787
0.000293555
0.00031367
0.000334135
0.000354956
0.000376137
0.000397684
0.000419603
0.000441898
0.000464576
0.000487643
0.000511105
0.000534968
0.000559238
0.000583923
0.000609028
0.00063456
0.000660526
0.000686933
0.000713787
0.000741095
0.000768865
0.000797103
0.000825817
0.000855012
0.000884697
0.000914878
0.000945562
0.000976757
0.00100847
0.0010407
0.00107347
0.00110677
0.00114062
0.00117501
0.00120996
0.00124548
0.00128156
0.00131821
0.00135545
0.00139326
0.00143167
0.00147066
0.00151026
0.00155045
0.00159125
0.00163265
0.00167467
0.00171728
0.0017605
0.00180433
0.00184876
0.00189379
0.00193942
0.00198565
0.00203247
0.00207988
0.00212786
0.00217641
0.00222552
0.00227517
0.00232536
0.00237607
0.00242729
0.00247899
0.00253115
0.00258375
0.00263677
0.00269017
0.00274393
0.00279802
0.0028524
0.00290703
0.00296187
0.00301687
0.00307199
2.70001e-06
1.98942e-05
3.39639e-05
4.81465e-05
6.31196e-05
7.8647e-05
9.46218e-05
0.000110991
0.000127725
0.000144807
0.000162229
0.000179984
0.000198072
0.000216492
0.000235245
0.000254333
0.00027376
0.000293529
0.000313643
0.000334109
0.00035493
0.000376111
0.000397659
0.000419577
0.000441873
0.000464551
0.000487618
0.000511081
0.000534944
0.000559215
0.000583899
0.000609005
0.000634537
0.000660504
0.000686911
0.000713765
0.000741074
0.000768844
0.000797083
0.000825796
0.000854992
0.000884678
0.000914859
0.000945544
0.000976738
0.00100845
0.00104069
0.00107345
0.00110675
0.0011406
0.001175
0.00120995
0.00124546
0.00128154
0.0013182
0.00135543
0.00139325
0.00143165
0.00147065
0.00151025
0.00155044
0.00159124
0.00163264
0.00167465
0.00171727
0.00176049
0.00180432
0.00184875
0.00189378
0.00193942
0.00198564
0.00203246
0.00207987
0.00212785
0.0021764
0.00222551
0.00227517
0.00232536
0.00237607
0.00242728
0.00247898
0.00253114
0.00258374
0.00263676
0.00269017
0.00274393
0.00279802
0.0028524
0.00290703
0.00296187
0.00301687
0.00307199
2.6989e-06
1.98755e-05
3.39499e-05
4.8131e-05
6.31021e-05
7.86282e-05
9.46017e-05
0.000110969
0.000127702
0.000144784
0.000162205
0.000179961
0.000198049
0.000216468
0.000235221
0.00025431
0.000273736
0.000293505
0.00031362
0.000334086
0.000354907
0.000376089
0.000397636
0.000419555
0.000441851
0.00046453
0.000487597
0.000511059
0.000534923
0.000559194
0.000583879
0.000608985
0.000634517
0.000660484
0.000686891
0.000713746
0.000741055
0.000768826
0.000797064
0.000825778
0.000854975
0.00088466
0.000914842
0.000945527
0.000976722
0.00100843
0.00104067
0.00107344
0.00110674
0.00114058
0.00117498
0.00120993
0.00124545
0.00128153
0.00131818
0.00135542
0.00139324
0.00143164
0.00147064
0.00151023
0.00155043
0.00159123
0.00163263
0.00167464
0.00171726
0.00176048
0.00180431
0.00184874
0.00189377
0.00193941
0.00198564
0.00203245
0.00207986
0.00212784
0.00217639
0.0022255
0.00227516
0.00232535
0.00237606
0.00242728
0.00247898
0.00253114
0.00258374
0.00263676
0.00269017
0.00274393
0.00279802
0.0028524
0.00290703
0.00296187
0.00301687
0.00307199
2.69841e-06
1.98673e-05
3.39416e-05
4.81203e-05
6.30904e-05
7.86155e-05
9.45877e-05
0.000110954
0.000127686
0.000144767
0.000162187
0.000179942
0.000198029
0.000216448
0.000235201
0.000254289
0.000273716
0.000293485
0.0003136
0.000334066
0.000354887
0.000376069
0.000397617
0.000419536
0.000441832
0.000464511
0.000487578
0.000511041
0.000534905
0.000559176
0.000583861
0.000608967
0.0006345
0.000660466
0.000686874
0.000713729
0.000741038
0.000768809
0.000797048
0.000825762
0.000854958
0.000884644
0.000914826
0.000945511
0.000976706
0.00100842
0.00104065
0.00107342
0.00110672
0.00114057
0.00117497
0.00120992
0.00124543
0.00128152
0.00131817
0.00135541
0.00139322
0.00143163
0.00147063
0.00151022
0.00155042
0.00159122
0.00163262
0.00167463
0.00171725
0.00176047
0.0018043
0.00184873
0.00189376
0.0019394
0.00198563
0.00203245
0.00207985
0.00212784
0.00217639
0.0022255
0.00227516
0.00232535
0.00237606
0.00242727
0.00247897
0.00253114
0.00258374
0.00263676
0.00269017
0.00274393
0.00279802
0.0028524
0.00290703
0.00296187
0.00301687
0.00307199
2.69785e-06
1.98647e-05
3.39359e-05
4.81119e-05
6.30815e-05
7.86057e-05
9.4577e-05
0.000110942
0.000127673
0.000144753
0.000162172
0.000179926
0.000198013
0.000216432
0.000235184
0.000254272
0.000273699
0.000293468
0.000313583
0.000334049
0.00035487
0.000376052
0.0003976
0.000419519
0.000441815
0.000464494
0.000487562
0.000511024
0.000534888
0.00055916
0.000583845
0.000608951
0.000634484
0.000660451
0.000686858
0.000713713
0.000741023
0.000768794
0.000797033
0.000825747
0.000854944
0.00088463
0.000914812
0.000945497
0.000976693
0.0010084
0.00104064
0.00107341
0.00110671
0.00114056
0.00117495
0.00120991
0.00124542
0.0012815
0.00131816
0.00135539
0.00139321
0.00143162
0.00147062
0.00151021
0.00155041
0.00159121
0.00163261
0.00167462
0.00171724
0.00176046
0.00180429
0.00184872
0.00189376
0.00193939
0.00198562
0.00203244
0.00207985
0.00212783
0.00217638
0.00222549
0.00227515
0.00232534
0.00237606
0.00242727
0.00247897
0.00253113
0.00258374
0.00263676
0.00269016
0.00274393
0.00279802
0.0028524
0.00290703
0.00296187
0.00301688
0.00307199
2.69761e-06
1.98606e-05
3.39316e-05
4.81048e-05
6.30739e-05
7.85973e-05
9.45678e-05
0.000110932
0.000127662
0.000144741
0.00016216
0.000179913
0.000197999
0.000216417
0.000235169
0.000254257
0.000273684
0.000293452
0.000313567
0.000334033
0.000354855
0.000376037
0.000397584
0.000419504
0.0004418
0.000464479
0.000487547
0.000511009
0.000534873
0.000559145
0.00058383
0.000608936
0.00063447
0.000660437
0.000686844
0.0007137
0.000741009
0.00076878
0.00079702
0.000825734
0.000854931
0.000884617
0.000914799
0.000945484
0.00097668
0.00100839
0.00104063
0.0010734
0.0011067
0.00114055
0.00117494
0.0012099
0.00124541
0.00128149
0.00131815
0.00135538
0.0013932
0.00143161
0.00147061
0.0015102
0.0015504
0.0015912
0.0016326
0.00167461
0.00171723
0.00176045
0.00180428
0.00184871
0.00189375
0.00193938
0.00198561
0.00203243
0.00207984
0.00212782
0.00217638
0.00222549
0.00227515
0.00232534
0.00237605
0.00242727
0.00247897
0.00253113
0.00258373
0.00263675
0.00269016
0.00274393
0.00279802
0.0028524
0.00290703
0.00296187
0.00301688
0.003072
2.69769e-06
1.9857e-05
3.39286e-05
4.8099e-05
6.30673e-05
7.85899e-05
9.45598e-05
0.000110924
0.000127653
0.000144731
0.000162149
0.000179901
0.000197987
0.000216405
0.000235156
0.000254244
0.00027367
0.000293439
0.000313553
0.000334019
0.000354841
0.000376023
0.00039757
0.00041949
0.000441786
0.000464465
0.000487533
0.000510996
0.00053486
0.000559132
0.000583817
0.000608923
0.000634457
0.000660424
0.000686832
0.000713687
0.000740997
0.000768768
0.000797007
0.000825722
0.000854919
0.000884605
0.000914787
0.000945473
0.000976669
0.00100838
0.00104062
0.00107338
0.00110669
0.00114054
0.00117493
0.00120989
0.0012454
0.00128148
0.00131814
0.00135537
0.00139319
0.0014316
0.0014706
0.00151019
0.00155039
0.00159119
0.00163259
0.0016746
0.00171722
0.00176044
0.00180427
0.00184871
0.00189374
0.00193938
0.00198561
0.00203243
0.00207983
0.00212782
0.00217637
0.00222548
0.00227514
0.00232533
0.00237605
0.00242726
0.00247896
0.00253113
0.00258373
0.00263675
0.00269016
0.00274393
0.00279802
0.0028524
0.00290703
0.00296188
0.00301688
0.003072
2.69791e-06
1.98547e-05
3.39266e-05
4.80944e-05
6.30618e-05
7.85837e-05
9.45531e-05
0.000110916
0.000127645
0.000144722
0.000162139
0.000179891
0.000197976
0.000216393
0.000235145
0.000254232
0.000273658
0.000293426
0.000313541
0.000334007
0.000354828
0.00037601
0.000397558
0.000419477
0.000441773
0.000464452
0.00048752
0.000510983
0.000534848
0.000559119
0.000583805
0.000608911
0.000634445
0.000660412
0.00068682
0.000713676
0.000740986
0.000768757
0.000796996
0.000825711
0.000854908
0.000884594
0.000914777
0.000945462
0.000976658
0.00100837
0.00104061
0.00107337
0.00110668
0.00114053
0.00117492
0.00120988
0.00124539
0.00128147
0.00131813
0.00135537
0.00139318
0.00143159
0.00147059
0.00151019
0.00155038
0.00159118
0.00163259
0.0016746
0.00171721
0.00176044
0.00180427
0.0018487
0.00189373
0.00193937
0.0019856
0.00203242
0.00207983
0.00212781
0.00217637
0.00222548
0.00227514
0.00232533
0.00237604
0.00242726
0.00247896
0.00253113
0.00258373
0.00263675
0.00269016
0.00274393
0.00279802
0.0028524
0.00290704
0.00296188
0.00301688
0.003072
2.69818e-06
1.98533e-05
3.39255e-05
4.80909e-05
6.3057e-05
7.85783e-05
9.45472e-05
0.00011091
0.000127638
0.000144714
0.000162131
0.000179882
0.000197967
0.000216384
0.000235134
0.000254221
0.000273647
0.000293415
0.00031353
0.000333995
0.000354816
0.000375998
0.000397546
0.000419465
0.000441762
0.000464441
0.000487509
0.000510972
0.000534836
0.000559108
0.000583794
0.0006089
0.000634434
0.000660401
0.000686809
0.000713665
0.000740975
0.000768746
0.000796986
0.000825701
0.000854898
0.000884584
0.000914767
0.000945453
0.000976649
0.00100836
0.0010406
0.00107337
0.00110667
0.00114052
0.00117491
0.00120987
0.00124538
0.00128147
0.00131812
0.00135536
0.00139318
0.00143158
0.00147058
0.00151018
0.00155038
0.00159117
0.00163258
0.00167459
0.00171721
0.00176043
0.00180426
0.00184869
0.00189373
0.00193936
0.00198559
0.00203242
0.00207982
0.00212781
0.00217636
0.00222547
0.00227513
0.00232533
0.00237604
0.00242726
0.00247896
0.00253112
0.00258373
0.00263675
0.00269016
0.00274393
0.00279802
0.0028524
0.00290704
0.00296188
0.00301689
0.00307201
2.69851e-06
1.98524e-05
3.39252e-05
4.80881e-05
6.3053e-05
7.85736e-05
9.4542e-05
0.000110904
0.000127632
0.000144708
0.000162124
0.000179875
0.000197958
0.000216375
0.000235125
0.000254212
0.000273637
0.000293405
0.000313519
0.000333985
0.000354806
0.000375988
0.000397535
0.000419455
0.000441751
0.00046443
0.000487498
0.000510961
0.000534826
0.000559098
0.000583784
0.00060889
0.000634424
0.000660391
0.0006868
0.000713655
0.000740965
0.000768737
0.000796977
0.000825692
0.000854889
0.000884575
0.000914758
0.000945444
0.00097664
0.00100835
0.00104059
0.00107336
0.00110666
0.00114051
0.00117491
0.00120986
0.00124537
0.00128146
0.00131811
0.00135535
0.00139317
0.00143158
0.00147058
0.00151017
0.00155037
0.00159117
0.00163257
0.00167458
0.0017172
0.00176042
0.00180425
0.00184869
0.00189372
0.00193936
0.00198559
0.00203241
0.00207982
0.0021278
0.00217636
0.00222547
0.00227513
0.00232533
0.00237604
0.00242726
0.00247896
0.00253112
0.00258373
0.00263675
0.00269016
0.00274393
0.00279802
0.00285241
0.00290704
0.00296188
0.00301689
0.00307201
2.69886e-06
1.98519e-05
3.39254e-05
4.80862e-05
6.30496e-05
7.85694e-05
9.45374e-05
0.000110899
0.000127626
0.000144702
0.000162117
0.000179868
0.000197951
0.000216367
0.000235117
0.000254203
0.000273628
0.000293396
0.00031351
0.000333975
0.000354796
0.000375978
0.000397526
0.000419445
0.000441741
0.00046442
0.000487489
0.000510952
0.000534816
0.000559088
0.000583774
0.000608881
0.000634414
0.000660382
0.00068679
0.000713646
0.000740956
0.000768728
0.000796968
0.000825683
0.00085488
0.000884567
0.00091475
0.000945436
0.000976632
0.00100834
0.00104058
0.00107335
0.00110665
0.0011405
0.0011749
0.00120985
0.00124537
0.00128145
0.00131811
0.00135534
0.00139316
0.00143157
0.00147057
0.00151017
0.00155036
0.00159116
0.00163257
0.00167458
0.00171719
0.00176042
0.00180425
0.00184868
0.00189372
0.00193935
0.00198558
0.00203241
0.00207981
0.0021278
0.00217635
0.00222547
0.00227513
0.00232532
0.00237604
0.00242726
0.00247896
0.00253112
0.00258373
0.00263675
0.00269016
0.00274393
0.00279803
0.00285241
0.00290704
0.00296189
0.00301689
0.00307202
2.69922e-06
1.98517e-05
3.39262e-05
4.80849e-05
6.30468e-05
7.85658e-05
9.45333e-05
0.000110895
0.000127621
0.000144697
0.000162112
0.000179862
0.000197944
0.00021636
0.00023511
0.000254195
0.00027362
0.000293388
0.000313502
0.000333967
0.000354788
0.000375969
0.000397517
0.000419436
0.000441732
0.000464411
0.000487479
0.000510943
0.000534807
0.000559079
0.000583765
0.000608872
0.000634405
0.000660373
0.000686782
0.000713638
0.000740948
0.00076872
0.00079696
0.000825675
0.000854872
0.000884559
0.000914742
0.000945428
0.000976624
0.00100834
0.00104057
0.00107334
0.00110665
0.00114049
0.00117489
0.00120985
0.00124536
0.00128145
0.0013181
0.00135534
0.00139316
0.00143156
0.00147056
0.00151016
0.00155036
0.00159116
0.00163256
0.00167457
0.00171719
0.00176041
0.00180424
0.00184868
0.00189371
0.00193935
0.00198558
0.0020324
0.00207981
0.0021278
0.00217635
0.00222547
0.00227513
0.00232532
0.00237604
0.00242726
0.00247896
0.00253112
0.00258373
0.00263675
0.00269016
0.00274393
0.00279803
0.00285241
0.00290705
0.00296189
0.0030169
0.00307202
2.69957e-06
1.98519e-05
3.39274e-05
4.80842e-05
6.30446e-05
7.85627e-05
9.45297e-05
0.000110891
0.000127617
0.000144692
0.000162107
0.000179856
0.000197938
0.000216354
0.000235103
0.000254188
0.000273613
0.00029338
0.000313494
0.000333959
0.00035478
0.000375961
0.000397509
0.000419428
0.000441724
0.000464403
0.000487471
0.000510934
0.000534799
0.000559071
0.000583757
0.000608863
0.000634397
0.000660365
0.000686773
0.00071363
0.00074094
0.000768712
0.000796952
0.000825667
0.000854865
0.000884552
0.000914735
0.000945421
0.000976617
0.00100833
0.00104057
0.00107334
0.00110664
0.00114049
0.00117489
0.00120984
0.00124536
0.00128144
0.0013181
0.00135533
0.00139315
0.00143156
0.00147056
0.00151016
0.00155035
0.00159115
0.00163256
0.00167457
0.00171718
0.00176041
0.00180424
0.00184867
0.00189371
0.00193934
0.00198558
0.0020324
0.00207981
0.00212779
0.00217635
0.00222546
0.00227512
0.00232532
0.00237604
0.00242725
0.00247896
0.00253112
0.00258373
0.00263675
0.00269017
0.00274394
0.00279803
0.00285242
0.00290705
0.00296189
0.0030169
0.00307203
2.69991e-06
1.98523e-05
3.39289e-05
4.8084e-05
6.30429e-05
7.85601e-05
9.45265e-05
0.000110887
0.000127613
0.000144688
0.000162102
0.000179851
0.000197933
0.000216348
0.000235097
0.000254182
0.000273606
0.000293373
0.000313487
0.000333952
0.000354772
0.000375954
0.000397501
0.00041942
0.000441716
0.000464395
0.000487463
0.000510926
0.000534791
0.000559063
0.000583749
0.000608856
0.000634389
0.000660357
0.000686766
0.000713622
0.000740933
0.000768704
0.000796945
0.00082566
0.000854858
0.000884545
0.000914728
0.000945414
0.000976611
0.00100832
0.00104056
0.00107333
0.00110663
0.00114048
0.00117488
0.00120983
0.00124535
0.00128143
0.00131809
0.00135533
0.00139315
0.00143155
0.00147056
0.00151015
0.00155035
0.00159115
0.00163255
0.00167456
0.00171718
0.0017604
0.00180423
0.00184867
0.0018937
0.00193934
0.00198557
0.0020324
0.00207981
0.00212779
0.00217635
0.00222546
0.00227512
0.00232532
0.00237604
0.00242726
0.00247896
0.00253113
0.00258373
0.00263676
0.00269017
0.00274394
0.00279803
0.00285242
0.00290705
0.0029619
0.00301691
0.00307203
2.70024e-06
1.98528e-05
3.39307e-05
4.80843e-05
6.30417e-05
7.85579e-05
9.45237e-05
0.000110884
0.00012761
0.000144684
0.000162098
0.000179847
0.000197928
0.000216343
0.000235092
0.000254176
0.0002736
0.000293367
0.000313481
0.000333945
0.000354766
0.000375947
0.000397494
0.000419413
0.000441709
0.000464388
0.000487456
0.000510919
0.000534783
0.000559056
0.000583742
0.000608848
0.000634382
0.00066035
0.000686759
0.000713615
0.000740926
0.000768698
0.000796938
0.000825653
0.000854851
0.000884538
0.000914722
0.000945408
0.000976605
0.00100832
0.00104056
0.00107332
0.00110663
0.00114048
0.00117487
0.00120983
0.00124535
0.00128143
0.00131809
0.00135532
0.00139314
0.00143155
0.00147055
0.00151015
0.00155035
0.00159114
0.00163255
0.00167456
0.00171718
0.0017604
0.00180423
0.00184866
0.0018937
0.00193934
0.00198557
0.0020324
0.0020798
0.00212779
0.00217635
0.00222546
0.00227512
0.00232532
0.00237604
0.00242726
0.00247896
0.00253113
0.00258374
0.00263676
0.00269017
0.00274394
0.00279804
0.00285242
0.00290706
0.0029619
0.00301691
0.00307204
2.70054e-06
1.98535e-05
3.39327e-05
4.80851e-05
6.3041e-05
7.85561e-05
9.45212e-05
0.000110881
0.000127607
0.000144681
0.000162094
0.000179843
0.000197924
0.000216338
0.000235087
0.000254171
0.000273595
0.000293362
0.000313475
0.000333939
0.000354759
0.000375941
0.000397488
0.000419406
0.000441702
0.000464381
0.000487449
0.000510912
0.000534777
0.000559049
0.000583735
0.000608842
0.000634376
0.000660344
0.000686752
0.000713608
0.000740919
0.000768691
0.000796931
0.000825647
0.000854845
0.000884532
0.000914716
0.000945402
0.000976599
0.00100831
0.00104055
0.00107332
0.00110662
0.00114047
0.00117487
0.00120982
0.00124534
0.00128143
0.00131808
0.00135532
0.00139314
0.00143155
0.00147055
0.00151015
0.00155034
0.00159114
0.00163255
0.00167456
0.00171717
0.0017604
0.00180423
0.00184866
0.0018937
0.00193934
0.00198557
0.00203239
0.0020798
0.00212779
0.00217635
0.00222546
0.00227512
0.00232532
0.00237604
0.00242726
0.00247896
0.00253113
0.00258374
0.00263676
0.00269018
0.00274395
0.00279804
0.00285243
2.70083e-06
1.98544e-05
3.39349e-05
4.80862e-05
6.30407e-05
7.85548e-05
9.45191e-05
0.000110879
0.000127604
0.000144677
0.000162091
0.000179839
0.00019792
0.000216334
0.000235082
0.000254166
0.00027359
0.000293356
0.000313469
0.000333934
0.000354754
0.000375935
0.000397482
0.000419401
0.000441696
0.000464375
0.000487443
0.000510906
0.000534771
0.000559043
0.000583729
0.000608835
0.000634369
0.000660337
0.000686746
0.000713602
0.000740913
0.000768685
0.000796925
0.000825641
0.000854839
0.000884527
0.00091471
0.000945397
0.000976594
0.00100831
0.00104055
0.00107331
0.00110662
0.00114047
0.00117487
0.00120982
0.00124534
0.00128142
0.00131808
0.00135532
0.00139314
0.00143154
0.00147054
0.00151014
0.00155034
0.00159114
0.00163254
0.00167455
0.00171717
0.00176039
0.00180422
0.00184866
0.0018937
0.00193933
0.00198557
0.00203239
0.0020798
0.00212779
0.00217635
0.00222546
0.00227512
0.00232532
0.00237604
0.00242726
0.00247896
0.00253113
0.00258374
0.00263677
0.00269018
0.00274395
0.00279805
0.00285243
2.70109e-06
1.98553e-05
3.39372e-05
4.80876e-05
6.30409e-05
7.85538e-05
9.45174e-05
0.000110876
0.000127601
0.000144675
0.000162088
0.000179836
0.000197917
0.00021633
0.000235078
0.000254162
0.000273585
0.000293352
0.000313465
0.000333929
0.000354749
0.000375929
0.000397476
0.000419395
0.000441691
0.00046437
0.000487438
0.000510901
0.000534765
0.000559037
0.000583723
0.00060883
0.000634364
0.000660332
0.00068674
0.000713597
0.000740907
0.000768679
0.00079692
0.000825636
0.000854834
0.000884521
0.000914705
0.000945392
0.000976589
0.0010083
0.00104054
0.00107331
0.00110661
0.00114046
0.00117486
0.00120982
0.00124533
0.00128142
0.00131808
0.00135531
0.00139313
0.00143154
0.00147054
0.00151014
0.00155034
0.00159114
0.00163254
0.00167455
0.00171717
0.00176039
0.00180422
0.00184866
0.0018937
0.00193933
0.00198557
0.00203239
0.0020798
0.00212779
0.00217635
0.00222546
0.00227513
0.00232532
0.00237604
0.00242726
0.00247897
0.00253114
0.00258375
0.00263677
0.00269019
0.00274396
0.00279805
0.00285243
2.70134e-06
1.98564e-05
3.39396e-05
4.80893e-05
6.30414e-05
7.85533e-05
9.45161e-05
0.000110875
0.000127599
0.000144672
0.000162085
0.000179833
0.000197913
0.000216327
0.000235074
0.000254158
0.000273581
0.000293347
0.00031346
0.000333924
0.000354744
0.000375925
0.000397472
0.00041939
0.000441686
0.000464365
0.000487432
0.000510895
0.00053476
0.000559031
0.000583718
0.000608824
0.000634358
0.000660326
0.000686735
0.000713591
0.000740902
0.000768674
0.000796915
0.000825631
0.000854829
0.000884516
0.0009147
0.000945387
0.000976584
0.0010083
0.00104054
0.0010733
0.00110661
0.00114046
0.00117486
0.00120981
0.00124533
0.00128141
0.00131807
0.00135531
0.00139313
0.00143154
0.00147054
0.00151014
0.00155034
0.00159113
0.00163254
0.00167455
0.00171717
0.00176039
0.00180422
0.00184866
0.00189369
0.00193933
0.00198557
0.00203239
0.0020798
0.00212779
0.00217635
0.00222546
0.00227513
0.00232533
0.00237604
0.00242727
0.00247897
0.00253114
0.00258375
0.00263678
0.00269019
2.70156e-06
1.98575e-05
3.3942e-05
4.80913e-05
6.30423e-05
7.85531e-05
9.45151e-05
0.000110873
0.000127597
0.00014467
0.000162082
0.00017983
0.00019791
0.000216324
0.000235071
0.000254155
0.000273578
0.000293343
0.000313456
0.00033392
0.00035474
0.00037592
0.000397467
0.000419385
0.000441681
0.00046436
0.000487428
0.00051089
0.000534755
0.000559027
0.000583713
0.000608819
0.000634353
0.000660321
0.00068673
0.000713586
0.000740897
0.000768669
0.00079691
0.000825626
0.000854824
0.000884512
0.000914696
0.000945383
0.00097658
0.00100829
0.00104053
0.0010733
0.00110661
0.00114046
0.00117485
0.00120981
0.00124533
0.00128141
0.00131807
0.00135531
0.00139313
0.00143154
0.00147054
0.00151014
0.00155033
0.00159113
0.00163254
0.00167455
0.00171717
0.00176039
0.00180422
0.00184866
0.00189369
0.00193933
0.00198557
0.00203239
0.0020798
0.00212779
0.00217635
0.00222547
0.00227513
0.00232533
0.00237605
0.00242727
0.00247898
0.00253115
0.00258376
0.00263678
0.00269019
2.70177e-06
1.98586e-05
3.39445e-05
4.80935e-05
6.30435e-05
7.85533e-05
9.45144e-05
0.000110872
0.000127595
0.000144668
0.00016208
0.000179827
0.000197908
0.000216321
0.000235068
0.000254151
0.000273574
0.00029334
0.000313452
0.000333916
0.000354736
0.000375916
0.000397463
0.000419381
0.000441677
0.000464355
0.000487423
0.000510886
0.00053475
0.000559022
0.000583708
0.000608815
0.000634349
0.000660317
0.000686726
0.000713582
0.000740893
0.000768665
0.000796906
0.000825622
0.00085482
0.000884508
0.000914691
0.000945379
0.000976576
0.00100829
0.00104053
0.0010733
0.0011066
0.00114045
0.00117485
0.00120981
0.00124532
0.00128141
0.00131807
0.0013553
0.00139313
0.00143153
0.00147054
0.00151013
0.00155033
0.00159113
0.00163254
0.00167455
0.00171716
0.00176039
0.00180422
0.00184866
0.00189369
0.00193933
0.00198557
0.00203239
0.00207981
0.00212779
0.00217635
0.00222547
0.00227513
0.00232533
0.00237605
0.00242727
0.00247898
0.00253115
0.00258376
0.00263679
0.0026902
2.70196e-06
1.98598e-05
3.3947e-05
4.80959e-05
6.3045e-05
7.85538e-05
9.4514e-05
0.000110871
0.000127594
0.000144666
0.000162078
0.000179825
0.000197905
0.000216318
0.000235065
0.000254148
0.000273571
0.000293336
0.000313449
0.000333912
0.000354732
0.000375912
0.000397459
0.000419377
0.000441673
0.000464351
0.000487419
0.000510882
0.000534746
0.000559018
0.000583704
0.000608811
0.000634345
0.000660313
0.000686721
0.000713578
0.000740889
0.000768661
0.000796902
0.000825618
0.000854816
0.000884504
0.000914688
0.000945375
0.000976572
0.00100829
0.00104052
0.00107329
0.0011066
0.00114045
0.00117485
0.0012098
0.00124532
0.00128141
0.00131807
0.0013553
0.00139312
0.00143153
0.00147054
0.00151013
0.00155033
0.00159113
0.00163254
0.00167455
0.00171716
0.00176039
0.00180422
0.00184866
0.00189369
0.00193933
0.00198557
0.0020324
0.00207981
0.0021278
0.00217635
0.00222547
0.00227514
0.00232534
0.00237606
0.00242728
0.00247899
0.00253116
0.00258377
0.00263679
0.00269021
2.70214e-06
1.98611e-05
3.39495e-05
4.80984e-05
6.30468e-05
7.85546e-05
9.4514e-05
0.00011087
0.000127592
0.000144664
0.000162076
0.000179823
0.000197903
0.000216316
0.000235062
0.000254146
0.000273568
0.000293333
0.000313446
0.000333909
0.000354728
0.000375909
0.000397455
0.000419374
0.000441669
0.000464348
0.000487415
0.000510878
0.000534742
0.000559014
0.0005837
0.000608807
0.000634341
0.000660309
0.000686718
0.000713574
0.000740885
0.000768657
0.000796898
0.000825614
0.000854812
0.0008845
0.000914684
0.000945372
0.000976569
0.00100828
0.00104052
0.00107329
0.0011066
0.00114045
0.00117485
0.0012098
0.00124532
0.0012814
0.00131806
0.0013553
0.00139312
0.00143153
0.00147053
0.00151013
0.00155033
0.00159113
0.00163254
0.00167455
0.00171716
0.00176039
0.00180422
0.00184866
0.0018937
0.00193933
0.00198557
0.0020324
0.00207981
0.0021278
0.00217636
0.00222548
0.00227514
0.00232534
0.00237606
0.00242729
0.00247899
0.00253116
0.00258378
0.0026368
0.00269021
2.7023e-06
1.98624e-05
3.3952e-05
4.81011e-05
6.30488e-05
7.85557e-05
9.45143e-05
0.00011087
0.000127592
0.000144663
0.000162075
0.000179821
0.000197901
0.000216313
0.00023506
0.000254143
0.000273565
0.000293331
0.000313443
0.000333906
0.000354725
0.000375906
0.000397452
0.00041937
0.000441666
0.000464345
0.000487412
0.000510875
0.000534739
0.000559011
0.000583697
0.000608803
0.000634337
0.000660305
0.000686714
0.000713571
0.000740882
0.000768654
0.000796895
0.000825611
0.000854809
0.000884497
0.000914681
0.000945369
0.000976566
0.00100828
0.00104052
0.00107329
0.00110659
0.00114044
0.00117484
0.0012098
0.00124532
0.0012814
0.00131806
0.0013553
0.00139312
0.00143153
0.00147053
0.00151013
0.00155033
0.00159113
0.00163254
0.00167455
0.00171716
0.00176039
0.00180422
0.00184866
0.0018937
0.00193934
0.00198557
0.0020324
0.00207981
0.0021278
0.00217636
0.00222548
0.00227515
0.00232535
0.00237607
0.00242729
0.002479
0.00253117
0.00258378
0.00263681
0.00269022
2.70246e-06
1.98637e-05
3.39545e-05
4.81038e-05
6.3051e-05
7.85571e-05
9.45149e-05
0.00011087
0.000127591
0.000144662
0.000162073
0.00017982
0.000197899
0.000216311
0.000235058
0.000254141
0.000273563
0.000293328
0.00031344
0.000333903
0.000354723
0.000375903
0.000397449
0.000419367
0.000441663
0.000464341
0.000487409
0.000510872
0.000534736
0.000559008
0.000583694
0.0006088
0.000634334
0.000660302
0.000686711
0.000713568
0.000740879
0.000768651
0.000796892
0.000825608
0.000854806
0.000884494
0.000914678
0.000945366
0.000976564
0.00100828
0.00104052
0.00107329
0.00110659
0.00114044
0.00117484
0.0012098
0.00124532
0.0012814
0.00131806
0.0013553
0.00139312
0.00143153
0.00147053
0.00151013
0.00155033
0.00159113
0.00163254
0.00167455
0.00171716
0.00176039
0.00180422
0.00184866
0.0018937
0.00193934
0.00198557
0.0020324
0.00207982
0.00212781
0.00217637
0.00222549
0.00227515
0.00232535
0.00237608
0.0024273
0.00247901
0.00253118
0.00258379
0.00263682
0.00269023
2.7026e-06
1.98651e-05
3.39569e-05
4.81066e-05
6.30534e-05
7.85588e-05
9.45158e-05
0.00011087
0.000127591
0.000144661
0.000162072
0.000179818
0.000197898
0.00021631
0.000235056
0.000254139
0.000273561
0.000293326
0.000313438
0.000333901
0.00035472
0.0003759
0.000397447
0.000419365
0.00044166
0.000464339
0.000487406
0.000510869
0.000534733
0.000559005
0.000583691
0.000608798
0.000634332
0.0006603
0.000686708
0.000713565
0.000740876
0.000768648
0.000796889
0.000825605
0.000854804
0.000884492
0.000914676
0.000945364
0.000976561
0.00100828
0.00104051
0.00107328
0.00110659
0.00114044
0.00117484
0.0012098
0.00124531
0.0012814
0.00131806
0.0013553
0.00139312
0.00143153
0.00147053
0.00151013
0.00155033
0.00159113
0.00163254
0.00167455
0.00171717
0.00176039
0.00180422
0.00184866
0.0018937
0.00193934
0.00198558
0.00203241
0.00207982
0.00212781
0.00217637
0.00222549
0.00227516
0.00232536
0.00237608
0.00242731
0.00247902
0.00253119
0.0025838
0.00263683
0.00269024
2.70273e-06
1.98664e-05
3.39593e-05
4.81095e-05
6.3056e-05
7.85607e-05
9.4517e-05
0.00011087
0.000127591
0.000144661
0.000162071
0.000179817
0.000197896
0.000216308
0.000235054
0.000254137
0.000273559
0.000293324
0.000313435
0.000333899
0.000354718
0.000375898
0.000397444
0.000419362
0.000441658
0.000464336
0.000487404
0.000510867
0.000534731
0.000559002
0.000583688
0.000608795
0.000634329
0.000660297
0.000686706
0.000713562
0.000740873
0.000768646
0.000796887
0.000825603
0.000854802
0.00088449
0.000914674
0.000945362
0.00097656
0.00100827
0.00104051
0.00107328
0.00110659
0.00114044
0.00117484
0.0012098
0.00124531
0.0012814
0.00131806
0.0013553
0.00139312
0.00143153
0.00147053
0.00151013
0.00155033
0.00159113
0.00163254
0.00167455
0.00171717
0.00176039
0.00180422
0.00184866
0.0018937
0.00193934
0.00198558
0.00203241
0.00207982
0.00212782
0.00217638
0.0022255
0.00227517
0.00232537
0.00237609
0.00242732
0.00247903
0.0025312
0.00258381
0.00263684
0.00269025
2.70286e-06
1.98678e-05
3.39616e-05
4.81124e-05
6.30587e-05
7.85629e-05
9.45184e-05
0.000110871
0.000127591
0.000144661
0.000162071
0.000179816
0.000197895
0.000216307
0.000235053
0.000254135
0.000273557
0.000293322
0.000313434
0.000333897
0.000354716
0.000375896
0.000397442
0.00041936
0.000441656
0.000464334
0.000487402
0.000510864
0.000534728
0.000559
0.000583686
0.000608793
0.000634327
0.000660295
0.000686704
0.00071356
0.000740871
0.000768644
0.000796885
0.000825601
0.0008548
0.000884488
0.000914672
0.00094536
0.000976558
0.00100827
0.00104051
0.00107328
0.00110659
0.00114044
0.00117484
0.0012098
0.00124531
0.0012814
0.00131806
0.0013553
0.00139312
0.00143153
0.00147054
0.00151013
0.00155033
0.00159113
0.00163254
0.00167455
0.00171717
0.00176039
0.00180423
0.00184866
0.00189371
0.00193935
0.00198559
0.00203241