/*--------------------------------*- C++ -*----------------------------------*\
  =========                 |
  \\      /  F ield         | OpenFOAM: The Open Source CFD Toolbox
   \\    /   O peration     | Website:  https://openfoam.org
    \\  /    A nd           | Version:  10
     \\/     M anipulation  |
\*---------------------------------------------------------------------------*/
FoamFile
{
    format      ascii;
    class       volVectorField;
    location    "60000";
    object      U;
}
// * * * * * * * * * * * * * * * * * * * * * * * * * * * * * * * * * * * * * //

dimensions      [0 1 -1 0 0 0 0];

internalField   nonuniform List<vector> 
17808
(
(-1.24403 1.34978 -4.92844e-18)
(-1.54241 1.68227 -5.57158e-19)
(-1.67588 1.8293 3.60212e-18)
(-1.768 1.92631 3.91208e-18)
(-1.83613 2.0008 -9.23865e-19)
(-1.8908 2.06007 -6.57289e-18)
(-1.93605 2.10947 3.32279e-18)
(-1.97468 2.15171 -3.55016e-18)
(-2.00834 2.18863 6.00472e-18)
(-2.03816 2.22139 -6.63867e-22)
(-2.06492 2.25083 -2.73447e-18)
(-2.08918 2.27757 1.96168e-18)
(-2.11136 2.30204 -2.82235e-18)
(-2.13178 2.3246 3.01042e-19)
(-2.15071 2.34552 0)
(-2.16833 2.36501 2.78829e-19)
(-2.18481 2.38326 -5.3785e-19)
(-2.20028 2.4004 -5.19326e-19)
(-2.21485 2.41656 -2.25823e-18)
(-2.22861 2.43183 1.69503e-21)
(-2.24165 2.4463 1.8831e-18)
(-2.25402 2.46004 0)
(-2.26579 2.47312 1.7699e-18)
(-2.277 2.48558 -1.72054e-18)
(-2.2877 2.49748 1.67027e-18)
(-2.29792 2.50886 -2.03244e-18)
(-2.30771 2.51975 -3.95331e-19)
(-2.31707 2.53018 0)
(-2.32606 2.54019 -3.75028e-19)
(-2.33467 2.5498 -3.65471e-19)
(-2.34295 2.55902 1.42458e-18)
(-2.3509 2.56789 -1.04395e-18)
(-2.35854 2.57641 0)
(-2.36589 2.58461 0)
(-2.37296 2.59251 3.23447e-19)
(-2.37977 2.6001 1.57893e-18)
(-2.38632 2.60741 -9.27268e-19)
(-2.39262 2.61445 0)
(-2.39869 2.62123 -1.179e-18)
(-2.40452 2.62775 2.01696e-21)
(-2.41014 2.63403 1.69358e-18)
(-2.41555 2.64007 1.65447e-18)
(-2.42075 2.64589 -1.08074e-18)
(-2.42575 2.65147 5.2814e-19)
(-2.43055 2.65684 0)
(-2.43516 2.662 -5.05691e-19)
(-2.43959 2.66696 1.48367e-18)
(-2.44384 2.6717 -1.93842e-18)
(-2.4479 2.67626 4.74048e-19)
(-2.4518 2.68061 0)
(-2.45552 2.68478 0)
(-2.45907 2.68875 1.33226e-18)
(-2.46246 2.69255 -4.3605e-19)
(-2.46569 2.69616 0)
(-2.46875 2.69959 4.16606e-19)
(-2.47166 2.70284 4.07703e-19)
(-2.4744 2.70592 -3.98947e-19)
(-2.47699 2.70882 -3.90333e-19)
(-2.47943 2.71155 -3.81886e-19)
(-2.48172 2.71412 7.46095e-19)
(-2.48385 2.71651 -1.07286e-21)
(-2.48583 2.71873 7.13713e-19)
(-2.48766 2.72079 -7.00101e-19)
(-2.48934 2.72267 -6.83485e-19)
(-2.49087 2.7244 -1.33529e-18)
(-2.49225 2.72595 6.53127e-19)
(-2.49349 2.72735 -1.27774e-18)
(-2.49457 2.72857 1.2475e-18)
(-2.49551 2.72964 0)
(-2.4963 2.73054 5.95264e-19)
(-2.49695 2.73127 1.16157e-18)
(-2.49744 2.73184 -5.69827e-19)
(-2.49779 2.73225 -5.55235e-19)
(-2.49799 2.73249 5.40856e-19)
(-2.49804 2.73256 -1.09711e-21)
(-2.49794 2.73248 -1.54467e-18)
(-2.49769 2.73222 1.00552e-18)
(-2.49729 2.7318 0)
(-2.49674 2.73121 -4.78552e-19)
(-2.49604 2.73045 -1.39721e-18)
(-2.49519 2.72953 0)
(-2.49418 2.72844 0)
(-2.49302 2.72717 8.60608e-19)
(-2.49171 2.72574 0)
(-2.49024 2.72413 8.15797e-19)
(-2.48862 2.72236 0)
(-2.48683 2.72041 -1.30173e-23)
(-2.4849 2.71828 0)
(-2.4828 2.71598 0)
(-2.48054 2.7135 7.10546e-19)
(-2.47812 2.71084 1.38133e-18)
(-2.47554 2.70801 1.34233e-18)
(-1.24392 1.36266 -5.53313e-19)
(-1.53747 1.695 5.46822e-19)
(-1.67153 1.83873 0)
(-1.76197 1.93574 0)
(-1.82942 2.00966 9.23997e-19)
(-1.88379 2.06832 -4.36294e-19)
(-1.92892 2.11719 3.30499e-18)
(-1.96752 2.15901 -2.74324e-18)
(-2.0012 2.19556 -3.72634e-19)
(-2.03107 2.22803 2.83782e-18)
(-2.05789 2.25724 -3.04863e-18)
(-2.0822 2.28378 6.47935e-19)
(-2.10444 2.30811 3.1042e-19)
(-2.12492 2.33055 -2.97974e-19)
(-2.14389 2.35138 0)
(-2.16155 2.3708 -2.75847e-19)
(-2.17807 2.38899 2.6597e-19)
(-2.19357 2.40609 2.56773e-19)
(-2.20817 2.42221 0)
(-2.22196 2.43746 0)
(-2.23502 2.45191 0)
(-2.24741 2.46564 -4.50973e-19)
(-2.25919 2.47871 0)
(-2.27042 2.49117 -4.24971e-19)
(-2.28113 2.50307 0)
(-2.29136 2.51445 4.01672e-19)
(-2.30115 2.52534 3.90947e-19)
(-2.31053 2.53578 0)
(-2.31952 2.54579 -1.48251e-18)
(-2.32814 2.55541 3.63412e-19)
(-2.33642 2.56464 1.05859e-18)
(-2.34437 2.57352 -3.43964e-19)
(-2.35202 2.58205 1.34202e-18)
(-2.35937 2.59026 -2.95045e-18)
(-2.36644 2.59816 9.61575e-19)
(-2.37325 2.60577 -3.12851e-19)
(-2.37979 2.61309 -6.11555e-19)
(-2.3861 2.62014 0)
(-2.39216 2.62693 0)
(-2.398 2.63347 1.42836e-18)
(-2.40362 2.63976 -1.11959e-18)
(-2.40902 2.64581 -4.70902e-23)
(-2.41422 2.65163 -5.3548e-19)
(-2.41922 2.65723 -1.04806e-18)
(-2.42402 2.66262 -5.11894e-19)
(-2.42863 2.66779 1.50722e-18)
(-2.43306 2.67275 -9.81936e-19)
(-2.4373 2.67751 1.44454e-18)
(-2.44137 2.68207 -1.41218e-18)
(-2.44526 2.68644 9.23486e-19)
(-2.44898 2.69061 -9.02105e-19)
(-2.45253 2.6946 8.85325e-19)
(-2.45592 2.6984 -4.32902e-19)
(-2.45914 2.70202 0)
(-2.4622 2.70546 -4.14946e-19)
(-2.4651 2.70872 0)
(-2.46785 2.71181 0)
(-2.47044 2.71472 3.89249e-19)
(-2.47287 2.71746 1.08163e-21)
(-2.47516 2.72002 7.46787e-19)
(-2.47729 2.72242 -7.29722e-19)
(-2.47926 2.72465 7.1401e-19)
(-2.48109 2.72671 0)
(-2.48277 2.72861 0)
(-2.4843 2.73034 1.33563e-18)
(-2.48569 2.7319 -6.53629e-19)
(-2.48692 2.73329 1.27932e-18)
(-2.48801 2.73453 -1.10882e-21)
(-2.48894 2.73559 -6.11822e-19)
(-2.48974 2.7365 0)
(-2.49038 2.73723 -1.16527e-18)
(-2.49088 2.73781 2.27888e-18)
(-2.49122 2.73821 -2.20832e-21)
(-2.49142 2.73846 -2.20908e-21)
(-2.49147 2.73854 -1.09878e-21)
(-2.49138 2.73845 5.16733e-19)
(-2.49113 2.73819 -1.0118e-18)
(-2.49073 2.73777 4.9305e-19)
(-2.49019 2.73718 9.60785e-19)
(-2.48949 2.73643 -4.70122e-19)
(-2.48864 2.7355 4.56182e-19)
(-2.48764 2.73441 -1.33829e-18)
(-2.48648 2.73314 1.302e-18)
(-2.48517 2.73171 -2.1931e-21)
(-2.48371 2.7301 -8.24381e-19)
(-2.48209 2.72832 4.02471e-19)
(-2.48031 2.72636 -1.56301e-18)
(-2.47838 2.72423 0)
(-2.47628 2.72193 0)
(-2.47403 2.71945 -1.43992e-18)
(-2.47162 2.71678 -1.04919e-18)
(-2.46905 2.71395 -6.78623e-19)
(-1.24248 1.37003 1.10708e-18)
(-1.53585 1.70218 8.7425e-18)
(-1.66997 1.84525 -1.65339e-17)
(-1.75882 1.94319 7.81107e-18)
(-1.82566 2.01691 -4.59841e-19)
(-1.87941 2.07548 0)
(-1.92399 2.12426 0)
(-1.96216 2.16594 0)
(-1.99551 2.20236 -5.54172e-18)
(-2.02513 2.23469 5.62905e-18)
(-2.05174 2.26378 3.35411e-19)
(-2.07592 2.29021 1.34927e-22)
(-2.09805 2.31443 4.91285e-18)
(-2.11844 2.33678 -9.72516e-18)
(-2.13735 2.35753 4.53325e-18)
(-2.15497 2.37688 4.08778e-18)
(-2.17146 2.39502 -3.94354e-18)
(-2.18693 2.41207 0)
(-2.20152 2.42815 0)
(-2.21529 2.44337 0)
(-2.22834 2.45779 0)
(-2.24073 2.4715 8.90697e-19)
(-2.2525 2.48456 0)
(-2.26373 2.49701 4.19649e-19)
(-2.27444 2.5089 0)
(-2.28467 2.52027 -3.96644e-19)
(-2.29446 2.53116 0)
(-2.30383 2.5416 1.50257e-18)
(-2.31282 2.55162 -1.46583e-18)
(-2.32144 2.56123 3.57008e-19)
(-2.32972 2.57047 -3.482e-19)
(-2.33767 2.57935 1.69794e-18)
(-2.34531 2.58789 -1.88818e-21)
(-2.35266 2.59611 -9.72619e-19)
(-2.35973 2.60402 9.48283e-19)
(-2.36654 2.61163 -9.28537e-19)
(-2.37308 2.61896 3.02253e-19)
(-2.37939 2.62602 0)
(-2.38545 2.63282 0)
(-2.39128 2.63937 -1.69532e-18)
(-2.3969 2.64567 1.97934e-21)
(-2.4023 2.65173 1.95223e-21)
(-2.4075 2.65756 1.5906e-18)
(-2.41249 2.66317 -1.03632e-18)
(-2.41729 2.66856 5.08774e-19)
(-2.4219 2.67374 0)
(-2.42632 2.67871 0)
(-2.43056 2.68348 0)
(-2.43463 2.68805 1.03531e-21)
(-2.43851 2.69243 4.58247e-19)
(-2.44223 2.69661 0)
(-2.44578 2.70061 4.38525e-19)
(-2.44916 2.70442 -8.57926e-19)
(-2.45238 2.70805 1.26291e-18)
(-2.45544 2.7115 8.22794e-19)
(-2.45834 2.71477 -8.07845e-19)
(-2.46109 2.71786 -7.88968e-19)
(-2.46367 2.72078 3.87861e-19)
(-2.46611 2.72352 -3.78712e-19)
(-2.46839 2.7261 3.70751e-19)
(-2.47052 2.7285 7.25894e-19)
(-2.47249 2.73074 -7.10514e-19)
(-2.47432 2.7328 0)
(-2.476 2.7347 0)
(-2.47753 2.73644 -1.77505e-23)
(-2.47891 2.738 -1.30163e-18)
(-2.48014 2.73941 6.38225e-19)
(-2.48123 2.74064 -6.2202e-19)
(-2.48217 2.74171 1.82792e-18)
(-2.48296 2.74262 -1.10358e-21)
(-2.4836 2.74336 5.82291e-19)
(-2.4841 2.74393 -5.69088e-19)
(-2.48445 2.74434 0)
(-2.48465 2.74459 0)
(-2.4847 2.74467 0)
(-2.4846 2.74458 5.17008e-19)
(-2.48436 2.74433 -5.06928e-19)
(-2.48396 2.74391 -4.93736e-19)
(-2.48342 2.74332 0)
(-2.48272 2.74256 0)
(-2.48188 2.74163 -1.37439e-18)
(-2.48088 2.74054 2.23667e-18)
(-2.47973 2.73927 -1.19246e-23)
(-2.47842 2.73783 0)
(-2.47696 2.73622 -4.12906e-19)
(-2.47535 2.73444 2.19527e-21)
(-2.47358 2.73248 3.9392e-19)
(-2.47165 2.73035 -7.64965e-19)
(-2.46956 2.72804 -7.44656e-19)
(-2.46732 2.72555 1.08597e-18)
(-2.46491 2.72288 -2.17246e-21)
(-2.46234 2.72004 3.41841e-19)
(-1.23869 1.37444 7.75447e-18)
(-1.53242 1.70669 8.18004e-18)
(-1.66624 1.85042 -8.75676e-18)
(-1.75436 1.94907 4.86003e-19)
(-1.82116 2.02273 0)
(-1.87461 2.08149 0)
(-1.91894 2.13038 0)
(-1.95687 2.17214 6.17511e-18)
(-1.99001 2.2086 -1.17228e-17)
(-2.01942 2.24096 1.11506e-17)
(-2.04586 2.27006 -5.31692e-18)
(-2.06988 2.29648 4.75916e-18)
(-2.09187 2.32069 -4.86309e-18)
(-2.11215 2.34302 2.91367e-19)
(-2.13097 2.36374 4.7579e-18)
(-2.14851 2.38307 -4.0429e-18)
(-2.16492 2.40118 4.15249e-18)
(-2.18034 2.41821 -2.5395e-19)
(-2.19488 2.43427 -3.87507e-18)
(-2.20861 2.44947 -2.3419e-19)
(-2.22163 2.46388 0)
(-2.23399 2.47757 -8.79311e-19)
(-2.24574 2.49062 0)
(-2.25694 2.50306 0)
(-2.26764 2.51494 -3.62125e-18)
(-2.27785 2.52631 3.13383e-18)
(-2.28763 2.53719 0)
(-2.29699 2.54763 0)
(-2.30597 2.55764 0)
(-2.31458 2.56726 -7.04951e-19)
(-2.32285 2.5765 3.43815e-19)
(-2.3308 2.58538 0)
(-2.33844 2.59393 0)
(-2.34578 2.60215 0)
(-2.35284 2.61006 -1.87336e-18)
(-2.35964 2.61769 2.75103e-18)
(-2.36618 2.62502 0)
(-2.37248 2.63209 0)
(-2.37854 2.6389 0)
(-2.38437 2.64545 2.51342e-18)
(-2.38998 2.65176 -3.91107e-21)
(-2.39538 2.65783 -5.35395e-18)
(-2.40057 2.66367 3.66883e-18)
(-2.40556 2.66929 -1.54145e-18)
(-2.41035 2.67469 0)
(-2.41496 2.67988 4.92094e-19)
(-2.41938 2.68486 1.92588e-18)
(-2.42361 2.68963 -1.89039e-18)
(-2.42767 2.69421 -4.62452e-19)
(-2.43156 2.6986 2.26298e-18)
(-2.43527 2.70279 -8.9064e-19)
(-2.43882 2.70679 -8.71561e-19)
(-2.4422 2.71061 -8.52836e-19)
(-2.44541 2.71425 -1.04637e-21)
(-2.44847 2.7177 -1.22722e-18)
(-2.45137 2.72098 0)
(-2.45411 2.72408 3.91143e-19)
(-2.45669 2.72701 -7.69343e-19)
(-2.45912 2.72976 -1.12766e-18)
(-2.4614 2.73234 3.69529e-19)
(-2.46353 2.73475 7.21641e-19)
(-2.4655 2.73699 1.06707e-21)
(-2.46733 2.73906 2.15563e-21)
(-2.46901 2.74097 6.78301e-19)
(-2.47053 2.74271 -6.62876e-19)
(-2.47191 2.74428 6.4872e-19)
(-2.47315 2.74568 0)
(-2.47423 2.74692 -6.19977e-19)
(-2.47517 2.748 -6.05361e-19)
(-2.47596 2.7489 1.08793e-21)
(-2.4766 2.74965 -1.16103e-18)
(-2.4771 2.75022 1.1373e-18)
(-2.47745 2.75064 0)
(-2.47765 2.75088 -1.10016e-21)
(-2.47771 2.75096 -1.06173e-18)
(-2.47761 2.75088 5.1807e-19)
(-2.47737 2.75062 5.0601e-19)
(-2.47698 2.7502 4.94105e-19)
(-2.47644 2.74961 0)
(-2.47574 2.74886 0)
(-2.4749 2.74793 9.18888e-19)
(-2.4739 2.74683 -1.79289e-18)
(-2.47276 2.74556 -8.74351e-19)
(-2.47146 2.74412 8.52574e-19)
(-2.47 2.74251 1.24562e-18)
(-2.46839 2.74072 4.03923e-19)
(-2.46663 2.73876 7.89305e-19)
(-2.4647 2.73662 3.83349e-19)
(-2.46262 2.73431 7.46604e-19)
(-2.46038 2.73181 -3.65617e-19)
(-2.45799 2.72914 3.53724e-19)
(-2.45543 2.72629 -2.19064e-21)
(-1.23485 1.37866 9.4088e-18)
(-1.52846 1.71092 -8.70927e-18)
(-1.66159 1.85554 -7.69447e-18)
(-1.74928 1.95452 1.45049e-17)
(-1.816 2.02826 -6.82854e-18)
(-1.86919 2.08724 7.2862e-18)
(-1.91337 2.13625 -1.29461e-17)
(-1.95116 2.17811 3.41662e-21)
(-1.98417 2.21466 5.80843e-18)
(-2.01346 2.24708 0)
(-2.03979 2.27621 0)
(-2.0637 2.30267 -3.13987e-19)
(-2.0856 2.3269 -3.00463e-19)
(-2.10579 2.34925 2.88071e-19)
(-2.12452 2.36998 5.42787e-23)
(-2.14198 2.38932 -2.66168e-19)
(-2.15833 2.40743 -5.1285e-19)
(-2.17369 2.42445 -3.19166e-23)
(-2.18817 2.44051 0)
(-2.20186 2.45571 2.3116e-19)
(-2.21483 2.47011 3.57963e-18)
(-2.22715 2.4838 -3.03911e-18)
(-2.23887 2.49684 0)
(-2.25005 2.50928 3.67719e-18)
(-2.26071 2.52116 -2.7825e-18)
(-2.2709 2.53252 -3.08894e-18)
(-2.28066 2.54341 3.00973e-18)
(-2.29 2.55384 3.66161e-19)
(-2.29896 2.56386 0)
(-2.30756 2.57347 3.47875e-19)
(-2.31582 2.58271 0)
(-2.32375 2.5916 0)
(-2.33138 2.60015 -2.5849e-18)
(-2.33871 2.60838 2.21267e-18)
(-2.34576 2.6163 -6.1722e-19)
(-2.35255 2.62392 -2.41137e-18)
(-2.35908 2.63127 2.06655e-18)
(-2.36537 2.63834 -2.88475e-19)
(-2.37142 2.64515 -2.2559e-18)
(-2.37725 2.65171 2.21132e-18)
(-2.38285 2.65803 -2.16057e-18)
(-2.38824 2.66411 2.64822e-18)
(-2.39343 2.66996 -2.07089e-18)
(-2.39841 2.67558 3.92914e-21)
(-2.4032 2.68099 3.47929e-18)
(-2.4078 2.68619 -2.43636e-18)
(-2.41222 2.69118 0)
(-2.41645 2.69596 1.86717e-18)
(-2.4205 2.70055 -1.83343e-18)
(-2.42438 2.70494 0)
(-2.42809 2.70914 -4.396e-19)
(-2.43163 2.71315 8.61559e-19)
(-2.43501 2.71698 -1.68646e-18)
(-2.43822 2.72062 3.72291e-18)
(-2.44128 2.72408 -1.21811e-18)
(-2.44417 2.72737 -3.97187e-19)
(-2.44691 2.73047 1.94385e-18)
(-2.44949 2.73341 7.58446e-19)
(-2.45192 2.73617 3.69381e-19)
(-2.45419 2.73875 -4.23898e-21)
(-2.45632 2.74117 -4.30231e-18)
(-2.45829 2.74342 -6.98085e-19)
(-2.46012 2.74549 4.28516e-21)
(-2.46179 2.7474 1.34937e-18)
(-2.46332 2.74914 -1.97654e-18)
(-2.4647 2.75072 -1.28715e-18)
(-2.46593 2.75213 3.2583e-21)
(-2.46701 2.75337 6.19755e-19)
(-2.46795 2.75445 -6.04333e-19)
(-2.46874 2.75536 1.18582e-18)
(-2.46938 2.75611 0)
(-2.46988 2.75669 -1.13249e-18)
(-2.47023 2.7571 5.55366e-19)
(-2.47043 2.75735 1.10756e-21)
(-2.47049 2.75743 1.06058e-18)
(-2.4704 2.75734 -5.17724e-19)
(-2.47016 2.75709 0)
(-2.46977 2.75667 -9.8837e-19)
(-2.46923 2.75608 0)
(-2.46854 2.75532 -9.42595e-19)
(-2.4677 2.75439 0)
(-2.46671 2.75329 4.50175e-19)
(-2.46556 2.75202 4.39285e-19)
(-2.46427 2.75058 -1.28127e-18)
(-2.46282 2.74896 -4.15796e-19)
(-2.46121 2.74717 -1.21838e-18)
(-2.45945 2.7452 -3.95144e-19)
(-2.45754 2.74306 7.72345e-19)
(-2.45546 2.74074 -3.75144e-19)
(-2.45323 2.73825 7.35174e-19)
(-2.45084 2.73557 -3.55786e-19)
(-2.44829 2.73271 -1.04345e-18)
(-1.23122 1.38301 0)
(-1.52453 1.71535 0)
(-1.65691 1.86081 7.66602e-18)
(-1.74432 1.95996 -3.58321e-21)
(-1.81083 2.03386 -7.69097e-18)
(-1.86375 2.09304 6.38219e-18)
(-1.90775 2.14216 -6.0208e-18)
(-1.94538 2.18411 0)
(-1.97823 2.22073 -3.59499e-19)
(-2.0074 2.25322 -5.80361e-18)
(-2.03361 2.2824 5.20538e-18)
(-2.05741 2.3089 6.20889e-19)
(-2.07922 2.33316 2.96923e-19)
(-2.09932 2.35554 -5.1213e-18)
(-2.11797 2.3763 4.10091e-18)
(-2.13536 2.39565 2.62809e-19)
(-2.15164 2.41377 2.53156e-19)
(-2.16694 2.43081 4.39423e-18)
(-2.18136 2.44687 -3.46586e-21)
(-2.19499 2.46207 -7.30006e-18)
(-2.20792 2.47648 3.53557e-18)
(-2.22019 2.49018 0)
(-2.23187 2.50322 -3.32079e-18)
(-2.24301 2.51566 3.52532e-21)
(-2.25364 2.52754 3.13685e-18)
(-2.26381 2.53891 3.81131e-19)
(-2.27353 2.54979 2.96556e-18)
(-2.28285 2.56023 -6.50205e-18)
(-2.29179 2.57025 5.63202e-18)
(-2.30037 2.57987 -3.59593e-21)
(-2.3086 2.58911 -3.01512e-18)
(-2.31652 2.598 0)
(-2.32413 2.60656 0)
(-2.33145 2.61479 3.11712e-19)
(-2.33849 2.62272 3.04618e-19)
(-2.34526 2.63035 -5.95575e-19)
(-2.35179 2.6377 9.47466e-24)
(-2.35806 2.64478 2.84867e-19)
(-2.3641 2.65159 0)
(-2.36992 2.65816 -2.45326e-18)
(-2.37551 2.66448 1.60423e-18)
(-2.3809 2.67057 -2.08994e-18)
(-2.38607 2.67643 2.56269e-18)
(-2.39105 2.68206 2.00465e-18)
(-2.39583 2.68747 -1.96766e-18)
(-2.40043 2.69268 0)
(-2.40483 2.69767 0)
(-2.40906 2.70247 0)
(-2.41311 2.70706 0)
(-2.41698 2.71146 -4.4408e-19)
(-2.42069 2.71567 -1.30378e-18)
(-2.42423 2.71969 1.28194e-18)
(-2.4276 2.72352 0)
(-2.43081 2.72717 -4.09905e-19)
(-2.43386 2.73064 -1.60511e-18)
(-2.43675 2.73393 1.9712e-18)
(-2.43948 2.73705 3.86e-19)
(-2.44206 2.73998 -1.13447e-23)
(-2.44448 2.74275 3.70769e-19)
(-2.44676 2.74534 0)
(-2.44888 2.74776 7.12108e-19)
(-2.45085 2.75001 0)
(-2.45267 2.7521 0)
(-2.45434 2.75401 -2.00678e-18)
(-2.45587 2.75576 3.27959e-18)
(-2.45725 2.75734 -6.44533e-19)
(-2.45848 2.75875 6.2907e-19)
(-2.45956 2.76 0)
(-2.4605 2.76108 6.02958e-19)
(-2.46129 2.76199 5.87998e-19)
(-2.46193 2.76274 -2.31031e-18)
(-2.46243 2.76332 1.13248e-18)
(-2.46278 2.76374 0)
(-2.46299 2.76399 0)
(-2.46304 2.76407 5.28831e-19)
(-2.46295 2.76398 0)
(-2.46271 2.76373 5.05425e-19)
(-2.46233 2.76331 -4.91742e-19)
(-2.46179 2.76272 9.67502e-19)
(-2.4611 2.76196 -4.70364e-19)
(-2.46027 2.76103 1.38253e-18)
(-2.45928 2.75993 0)
(-2.45814 2.75865 -4.37807e-19)
(-2.45685 2.75721 4.29474e-19)
(-2.4554 2.75559 0)
(-2.4538 2.75379 -4.08822e-19)
(-2.45205 2.75182 1.19175e-18)
(-2.45014 2.74968 0)
(-2.44807 2.74735 0)
(-2.44585 2.74485 -1.10362e-18)
(-2.44347 2.74217 1.79487e-18)
(-2.44092 2.7393 6.98847e-19)
(-1.22745 1.38724 0)
(-1.52039 1.71984 -5.42035e-19)
(-1.65204 1.86605 5.09044e-19)
(-1.73926 1.96533 4.78426e-19)
(-1.80553 2.03946 6.73864e-18)
(-1.85822 2.09881 -6.76003e-18)
(-1.90205 2.14804 1.38921e-22)
(-1.93952 2.1901 -6.01079e-18)
(-1.97223 2.22681 6.05168e-18)
(-2.00126 2.25937 -5.4048e-18)
(-2.02735 2.28862 1.02927e-17)
(-2.05104 2.31517 -3.10425e-19)
(-2.07274 2.33948 -3.5574e-21)
(-2.09275 2.36189 -4.50012e-18)
(-2.11132 2.38268 0)
(-2.12862 2.40206 0)
(-2.14483 2.42021 3.9965e-18)
(-2.16006 2.43727 -7.95318e-18)
(-2.17442 2.45335 3.72574e-18)
(-2.188 2.46856 -3.59917e-18)
(-2.20087 2.48299 3.48763e-18)
(-2.2131 2.49669 0)
(-2.22473 2.50974 -3.2752e-18)
(-2.23583 2.52219 2.38801e-18)
(-2.24642 2.53408 3.09007e-18)
(-2.25655 2.54545 -3.38446e-18)
(-2.26624 2.55635 0)
(-2.27553 2.56679 3.56239e-19)
(-2.28444 2.57681 0)
(-2.29299 2.58644 0)
(-2.30121 2.59569 3.30241e-19)
(-2.3091 2.60459 -2.57694e-18)
(-2.31669 2.61315 2.52004e-18)
(-2.32399 2.62138 -2.15086e-18)
(-2.33101 2.62932 2.4063e-18)
(-2.33777 2.63695 5.8772e-19)
(-2.34428 2.64431 -2.00997e-18)
(-2.35054 2.6514 4.21768e-18)
(-2.35657 2.65822 -2.2032e-18)
(-2.36237 2.66479 2.69358e-19)
(-2.36796 2.67112 1.05491e-18)
(-2.37333 2.67722 -2.06427e-18)
(-2.3785 2.68308 1.51977e-18)
(-2.38347 2.68872 0)
(-2.38824 2.69414 9.71361e-19)
(-2.39282 2.69935 0)
(-2.39722 2.70436 1.39746e-18)
(-2.40144 2.70916 -4.61143e-19)
(-2.40549 2.71376 -1.79477e-18)
(-2.40935 2.71817 4.39396e-19)
(-2.41305 2.72238 0)
(-2.41658 2.72641 0)
(-2.41995 2.73025 0)
(-2.42315 2.7339 4.06006e-19)
(-2.4262 2.73738 -1.59024e-18)
(-2.42908 2.74068 3.12231e-18)
(-2.43181 2.7438 -3.44387e-18)
(-2.43439 2.74674 -3.71023e-19)
(-2.43681 2.74951 7.3763e-19)
(-2.43908 2.75211 -1.44003e-18)
(-2.4412 2.75454 4.19128e-21)
(-2.44317 2.75679 1.38762e-18)
(-2.44499 2.75888 6.78936e-19)
(-2.44666 2.7608 6.6534e-19)
(-2.44818 2.76255 0)
(-2.44956 2.76413 1.91397e-18)
(-2.45079 2.76555 -4.29195e-21)
(-2.45187 2.7668 -1.22782e-18)
(-2.45281 2.76788 -6.00171e-19)
(-2.4536 2.7688 0)
(-2.45424 2.76955 0)
(-2.45474 2.77013 -5.63166e-19)
(-2.45509 2.77055 0)
(-2.4553 2.7708 -5.3931e-19)
(-2.45535 2.77088 -1.58066e-18)
(-2.45527 2.7708 5.20471e-19)
(-2.45503 2.77054 -5.00274e-19)
(-2.45464 2.77012 9.89072e-19)
(-2.45411 2.76953 -4.82331e-19)
(-2.45343 2.76877 9.42768e-19)
(-2.4526 2.76784 -9.21151e-19)
(-2.45161 2.76673 0)
(-2.45048 2.76546 0)
(-2.44919 2.76401 8.58018e-19)
(-2.44775 2.76239 0)
(-2.44616 2.76059 8.17382e-19)
(-2.44441 2.75861 -1.59497e-18)
(-2.44251 2.75646 0)
(-2.44045 2.75413 7.58567e-19)
(-2.43823 2.75163 0)
(-2.43585 2.74894 -7.20823e-19)
(-2.43332 2.74607 0)
(-1.22349 1.39134 9.39395e-18)
(-1.51594 1.72432 9.72862e-18)
(-1.64689 1.87123 -1.6224e-17)
(-1.73394 1.97066 3.52249e-21)
(-1.79995 2.04504 8.03495e-18)
(-1.85245 2.10454 -7.12192e-18)
(-1.89612 2.15391 -3.90602e-19)
(-1.93344 2.19609 5.95679e-18)
(-1.96602 2.2329 5.98598e-18)
(-1.99493 2.26554 -1.03615e-17)
(-2.02091 2.29486 3.21657e-19)
(-2.0445 2.32148 4.55074e-18)
(-2.06611 2.34585 0)
(-2.08603 2.36831 2.77595e-19)
(-2.10451 2.38914 2.66429e-19)
(-2.12174 2.40856 0)
(-2.13787 2.42674 3.94338e-18)
(-2.15303 2.44383 -3.49334e-21)
(-2.16733 2.45994 -3.44539e-18)
(-2.18085 2.47517 2.21973e-19)
(-2.19366 2.48961 0)
(-2.20584 2.50334 -2.91284e-18)
(-2.21743 2.5164 2.82881e-18)
(-2.22847 2.52887 -3.08537e-23)
(-2.23903 2.54077 -3.04644e-18)
(-2.24912 2.55216 3.33667e-18)
(-2.25877 2.56306 0)
(-2.26803 2.57352 0)
(-2.27691 2.58355 -2.3941e-18)
(-2.28543 2.59318 3.53343e-21)
(-2.29362 2.60244 2.60674e-18)
(-2.30148 2.61135 0)
(-2.30905 2.61991 -2.48158e-18)
(-2.31633 2.62816 2.12487e-18)
(-2.32333 2.6361 -2.07338e-18)
(-2.33007 2.64374 2.03096e-18)
(-2.33656 2.65111 -2.83546e-19)
(-2.34281 2.6582 -1.94024e-18)
(-2.34882 2.66503 2.17422e-18)
(-2.35461 2.67161 0)
(-2.36018 2.67795 2.08083e-18)
(-2.36554 2.68405 -2.04185e-18)
(-2.3707 2.68992 0)
(-2.37565 2.69557 0)
(-2.38042 2.701 -2.39705e-18)
(-2.38499 2.70622 1.41274e-18)
(-2.38938 2.71123 2.3031e-18)
(-2.39359 2.71603 -3.16377e-18)
(-2.39763 2.72064 1.77455e-18)
(-2.40149 2.72506 0)
(-2.40518 2.72928 0)
(-2.4087 2.73331 2.08745e-18)
(-2.41206 2.73716 -1.6413e-18)
(-2.41526 2.74082 -4.01926e-19)
(-2.4183 2.7443 0)
(-2.42118 2.7476 -1.93093e-18)
(-2.4239 2.75073 4.07594e-21)
(-2.42648 2.75368 1.1175e-18)
(-2.42889 2.75646 2.18566e-18)
(-2.43116 2.75906 -1.78978e-18)
(-2.43327 2.76149 7.0116e-19)
(-2.43524 2.76375 0)
(-2.43706 2.76585 -1.4482e-23)
(-2.43873 2.76777 0)
(-2.44025 2.76952 6.47587e-19)
(-2.44162 2.77111 6.32552e-19)
(-2.44285 2.77253 -1.24606e-18)
(-2.44393 2.77378 6.0941e-19)
(-2.44487 2.77487 5.97031e-19)
(-2.44566 2.77579 5.84818e-19)
(-2.4463 2.77654 -1.14337e-18)
(-2.4468 2.77713 1.68479e-18)
(-2.44715 2.77754 0)
(-2.44736 2.7778 5.37539e-19)
(-2.44742 2.77788 -5.26085e-19)
(-2.44733 2.77779 -1.02957e-18)
(-2.4471 2.77754 -5.03623e-19)
(-2.44672 2.77712 0)
(-2.44619 2.77653 4.81732e-19)
(-2.44551 2.77576 0)
(-2.44468 2.77483 9.20763e-19)
(-2.4437 2.77372 0)
(-2.44257 2.77245 0)
(-2.44129 2.77099 -8.56566e-19)
(-2.43985 2.76937 2.22758e-21)
(-2.43826 2.76756 8.18818e-19)
(-2.43652 2.76559 8.115e-24)
(-2.43463 2.76343 -7.79946e-19)
(-2.43257 2.7611 -7.60929e-19)
(-2.43036 2.75858 -1.48211e-18)
(-2.428 2.75589 7.2593e-19)
(-2.42547 2.75301 0)
(-1.21939 1.39542 -9.38387e-18)
(-1.51124 1.72888 8.08824e-18)
(-1.64152 1.87643 0)
(-1.72839 1.97604 7.56611e-18)
(-1.79413 2.05066 -7.9775e-18)
(-1.84644 2.11032 -8.83676e-23)
(-1.88995 2.15982 5.85979e-18)
(-1.92713 2.20213 -3.69323e-21)
(-1.95958 2.23903 -6.27468e-18)
(-1.98838 2.27177 0)
(-2.01426 2.30117 -3.14247e-19)
(-2.03775 2.32786 -4.79164e-18)
(-2.05926 2.35229 4.58155e-18)
(-2.0791 2.37481 0)
(-2.0975 2.39569 -2.62886e-19)
(-2.11466 2.41515 -2.52681e-19)
(-2.13072 2.43337 0)
(-2.14582 2.45049 -3.51546e-18)
(-2.16005 2.46664 7.01768e-18)
(-2.17351 2.4819 -7.22153e-18)
(-2.18627 2.49637 6.77752e-18)
(-2.19839 2.51012 -4.13865e-19)
(-2.20993 2.52321 -2.78829e-18)
(-2.22093 2.53569 3.86453e-19)
(-2.23144 2.54761 0)
(-2.24149 2.55901 -3.65184e-19)
(-2.25111 2.56993 0)
(-2.26033 2.5804 3.11357e-18)
(-2.26917 2.59045 -3.03776e-18)
(-2.27766 2.60009 2.62986e-18)
(-2.28582 2.60936 -5.13532e-18)
(-2.29366 2.61828 2.82167e-18)
(-2.3012 2.62686 0)
(-2.30845 2.63511 2.39038e-18)
(-2.31543 2.64306 -5.26146e-18)
(-2.32215 2.65071 2.28858e-18)
(-2.32862 2.65809 -1.03479e-24)
(-2.33485 2.66519 0)
(-2.34085 2.67203 -2.40904e-18)
(-2.34662 2.67862 3.66418e-21)
(-2.35217 2.68496 1.5432e-18)
(-2.35752 2.69107 0)
(-2.36266 2.69695 -1.97088e-18)
(-2.3676 2.7026 2.41859e-18)
(-2.37235 2.70804 0)
(-2.37692 2.71327 8.1177e-24)
(-2.3813 2.71828 -1.81973e-18)
(-2.3855 2.7231 3.12605e-18)
(-2.38952 2.72771 -2.19174e-18)
(-2.39337 2.73213 0)
(-2.39706 2.73636 4.21328e-19)
(-2.40057 2.7404 -4.13297e-19)
(-2.40393 2.74426 0)
(-2.40712 2.74792 -1.58885e-18)
(-2.41015 2.75141 1.56262e-18)
(-2.41303 2.75472 3.8275e-19)
(-2.41575 2.75785 0)
(-2.41831 2.76081 7.36651e-19)
(-2.42072 2.76359 -3.61308e-19)
(-2.42299 2.7662 7.35363e-24)
(-2.4251 2.76864 6.93144e-19)
(-2.42706 2.7709 -1.36576e-18)
(-2.42887 2.773 -6.68692e-19)
(-2.43054 2.77493 -6.55712e-19)
(-2.43206 2.77668 -6.42946e-19)
(-2.43343 2.77828 0)
(-2.43466 2.7797 6.17919e-19)
(-2.43574 2.78095 -6.05678e-19)
(-2.43667 2.78204 -1.18717e-18)
(-2.43746 2.78296 -5.81661e-19)
(-2.43811 2.78372 -1.13761e-18)
(-2.43861 2.7843 1.67692e-18)
(-2.43896 2.78472 -1.09139e-18)
(-2.43917 2.78498 5.37619e-19)
(-2.43923 2.78506 1.57057e-18)
(-2.43914 2.78498 -5.15374e-19)
(-2.43891 2.78472 5.02276e-19)
(-2.43853 2.7843 -9.80768e-19)
(-2.438 2.78371 9.63862e-19)
(-2.43733 2.78294 0)
(-2.4365 2.78201 -1.83965e-18)
(-2.43553 2.7809 -8.99294e-19)
(-2.4344 2.77962 8.79024e-19)
(-2.43313 2.77816 -1.71803e-18)
(-2.4317 2.77653 8.39264e-19)
(-2.43012 2.77472 -1.63729e-18)
(-2.42838 2.77274 1.60327e-18)
(-2.42649 2.77058 7.35204e-24)
(-2.42445 2.76824 7.60575e-19)
(-2.42225 2.76572 -2.23017e-21)
(-2.41989 2.76302 -7.26147e-19)
(-2.41737 2.76014 7.05973e-19)
(-1.21519 1.39953 -8.82465e-18)
(-1.50633 1.73355 -8.59977e-18)
(-1.63595 1.88169 3.37824e-21)
(-1.72262 1.9815 1.5043e-17)
(-1.78809 2.05637 -6.59921e-18)
(-1.84022 2.11619 7.00355e-18)
(-1.88356 2.16583 -5.80853e-18)
(-1.9206 2.20825 0)
(-1.95293 2.24527 3.4467e-19)
(-1.98161 2.27809 4.89885e-18)
(-2.00739 2.30758 -4.65945e-18)
(-2.03079 2.33434 5.91726e-19)
(-2.05221 2.35883 2.8259e-19)
(-2.07197 2.38141 -4.05502e-18)
(-2.09029 2.40234 4.41113e-18)
(-2.10737 2.42185 4.23469e-18)
(-2.12336 2.44012 -3.8391e-18)
(-2.1384 2.45728 3.69713e-18)
(-2.15257 2.47346 -3.57213e-18)
(-2.16597 2.48876 -2.15699e-19)
(-2.17867 2.50326 -3.33793e-18)
(-2.19074 2.51704 3.23726e-18)
(-2.20223 2.53015 3.92265e-19)
(-2.21319 2.54266 -3.80802e-19)
(-2.22365 2.5546 0)
(-2.23366 2.56602 -2.87672e-18)
(-2.24324 2.57696 2.80308e-18)
(-2.25242 2.58745 -3.4103e-19)
(-2.26123 2.59751 0)
(-2.26968 2.60717 2.91534e-18)
(-2.27781 2.61646 -2.84805e-18)
(-2.28562 2.62539 -3.08577e-18)
(-2.29313 2.63397 2.41435e-18)
(-2.30036 2.64224 -2.35585e-18)
(-2.30731 2.6502 2.59474e-18)
(-2.31401 2.65787 0)
(-2.32045 2.66525 2.75682e-19)
(-2.32666 2.67236 2.69816e-19)
(-2.33263 2.67921 -1.58311e-18)
(-2.33839 2.68581 4.13896e-18)
(-2.34392 2.69216 -5.10437e-19)
(-2.34925 2.69828 -3.4759e-18)
(-2.35438 2.70416 1.94837e-18)
(-2.35931 2.70983 9.5215e-19)
(-2.36405 2.71527 -1.87245e-18)
(-2.3686 2.72051 4.58554e-19)
(-2.37296 2.72553 1.79689e-18)
(-2.37715 2.73035 -8.8402e-19)
(-2.38117 2.73498 2.16134e-18)
(-2.38501 2.7394 -1.27522e-18)
(-2.38868 2.74364 -6.77354e-24)
(-2.39219 2.74769 0)
(-2.39554 2.75154 -1.60155e-18)
(-2.39872 2.75522 1.96874e-18)
(-2.40175 2.75872 0)
(-2.40461 2.76203 0)
(-2.40733 2.76517 1.48462e-18)
(-2.40989 2.76813 -7.3339e-19)
(-2.41229 2.77092 -1.7912e-18)
(-2.41455 2.77353 -1.05127e-18)
(-2.41666 2.77597 1.37996e-18)
(-2.41862 2.77824 -6.75918e-19)
(-2.42043 2.78034 6.61023e-19)
(-2.42209 2.78227 -6.52501e-19)
(-2.42361 2.78404 -1.27386e-18)
(-2.42498 2.78563 1.25347e-18)
(-2.4262 2.78706 -1.22714e-18)
(-2.42728 2.78831 0)
(-2.42822 2.7894 2.35716e-18)
(-2.42901 2.79033 -1.15848e-18)
(-2.42965 2.79108 -1.13122e-18)
(-2.43015 2.79167 5.57473e-19)
(-2.4305 2.79209 0)
(-2.43071 2.79235 5.33052e-19)
(-2.43077 2.79243 0)
(-2.43069 2.79235 5.11297e-19)
(-2.43046 2.79209 4.98434e-19)
(-2.43008 2.79167 -9.82327e-19)
(-2.42956 2.79107 0)
(-2.42889 2.79031 4.69338e-19)
(-2.42807 2.78937 1.83665e-18)
(-2.4271 2.78826 8.98214e-19)
(-2.42598 2.78697 -8.78345e-19)
(-2.4247 2.78552 8.26425e-24)
(-2.42328 2.78388 0)
(-2.42171 2.78207 -8.20187e-19)
(-2.41998 2.78008 -2.23435e-21)
(-2.4181 2.77792 -2.2308e-21)
(-2.41606 2.77557 0)
(-2.41386 2.77304 -7.46066e-19)
(-2.41151 2.77034 1.45407e-18)
(-2.409 2.76745 -2.24466e-21)
(-1.21085 1.40366 -8.81539e-18)
(-1.50119 1.73832 -8.57438e-18)
(-1.63018 1.88704 1.59975e-17)
(-1.71663 1.98707 -7.47559e-18)
(-1.78183 2.06218 0)
(-1.83378 2.12216 0)
(-1.87696 2.17195 0)
(-1.91385 2.21448 5.77295e-18)
(-1.94605 2.2516 -5.45553e-18)
(-1.97462 2.28452 3.22849e-19)
(-2.00029 2.31409 4.90548e-18)
(-2.0236 2.34092 -2.95637e-19)
(-2.04493 2.36548 -9.20253e-18)
(-2.06461 2.38812 4.00405e-18)
(-2.08285 2.40912 -5.11623e-19)
(-2.09986 2.42868 4.17548e-18)
(-2.11579 2.44699 2.32994e-19)
(-2.13075 2.4642 -3.87515e-18)
(-2.14486 2.48042 0)
(-2.15821 2.49576 3.82365e-18)
(-2.17086 2.51029 -3.29194e-18)
(-2.18287 2.5241 3.98442e-19)
(-2.19431 2.53724 -3.86363e-19)
(-2.20522 2.54978 3.75055e-19)
(-2.21564 2.56174 0)
(-2.2256 2.57319 2.83337e-18)
(-2.23514 2.58415 -2.76083e-18)
(-2.24428 2.59466 3.3591e-19)
(-2.25305 2.60474 3.27375e-19)
(-2.26147 2.61442 -6.38503e-19)
(-2.26956 2.62372 2.80196e-18)
(-2.27734 2.63266 -4.56217e-18)
(-2.28482 2.64127 2.37849e-18)
(-2.29202 2.64955 2.03068e-18)
(-2.29895 2.65752 -4.54201e-18)
(-2.30562 2.6652 2.22305e-18)
(-2.31204 2.6726 2.71691e-19)
(-2.31823 2.67972 -2.65934e-19)
(-2.32418 2.68658 2.08132e-18)
(-2.32991 2.69319 -1.78701e-18)
(-2.33543 2.69955 -9.97618e-19)
(-2.34074 2.70568 1.47087e-18)
(-2.34585 2.71157 -4.79982e-19)
(-2.35076 2.71724 1.88041e-18)
(-2.35548 2.7227 -1.84749e-18)
(-2.36002 2.72794 2.26075e-18)
(-2.36437 2.73297 -3.72125e-21)
(-2.36855 2.7378 -4.39183e-19)
(-2.37255 2.74243 -1.71075e-18)
(-2.37638 2.74687 -4.19198e-19)
(-2.38005 2.75111 1.23217e-18)
(-2.38355 2.75516 -1.61671e-18)
(-2.38688 2.75903 -3.96203e-19)
(-2.39006 2.76271 0)
(-2.39307 2.76621 -3.81672e-19)
(-2.39593 2.76953 -1.49652e-18)
(-2.39864 2.77268 1.84048e-18)
(-2.40119 2.77564 2.16345e-18)
(-2.4036 2.77843 -7.10453e-19)
(-2.40585 2.78105 0)
(-2.40795 2.7835 6.82411e-19)
(-2.4099 2.78578 2.00708e-18)
(-2.41171 2.78788 -1.31641e-18)
(-2.41337 2.78981 6.44856e-19)
(-2.41489 2.79158 -1.26335e-18)
(-2.41625 2.79318 4.15363e-21)
(-2.41748 2.79461 2.43774e-18)
(-2.41855 2.79587 0)
(-2.41949 2.79696 -7.91536e-24)
(-2.42028 2.79789 1.14667e-18)
(-2.42092 2.79864 -1.12849e-18)
(-2.42142 2.79923 0)
(-2.42177 2.79966 1.62134e-18)
(-2.42198 2.79991 -4.30676e-21)
(-2.42205 2.79999 -1.0415e-18)
(-2.42196 2.79991 5.06935e-19)
(-2.42174 2.79965 -5.00848e-19)
(-2.42136 2.79923 0)
(-2.42084 2.79863 0)
(-2.42017 2.79787 -4.68654e-24)
(-2.41936 2.79693 -8.91562e-24)
(-2.41839 2.79581 8.96567e-19)
(-2.41727 2.79452 -8.77109e-19)
(-2.41601 2.79306 2.22916e-21)
(-2.41459 2.79142 4.45353e-21)
(-2.41302 2.78961 2.46256e-18)
(-2.4113 2.78762 8.01572e-19)