/*--------------------------------*- C++ -*----------------------------------*\
  =========                 |
  \\      /  F ield         | OpenFOAM: The Open Source CFD Toolbox
   \\    /   O peration     | Website:  https://openfoam.org
    \\  /    A nd           | Version:  10
     \\/     M anipulation  |
\*---------------------------------------------------------------------------*/
FoamFile
{
    format      ascii;
    class       volVectorField;
    location    "60000";
    object      Urel;
}
// * * * * * * * * * * * * * * * * * * * * * * * * * * * * * * * * * * * * * //

dimensions      [0 1 -1 0 0 0 0];

internalField   nonuniform List<vector> 
17808
(
(4.40599 -4.83136 -4.92844e-18)
(4.10409 -4.49501 -5.57158e-19)
(3.96704 -4.34407 3.60212e-18)
(3.87128 -4.24307 3.91208e-18)
(3.79944 -4.16453 -9.23865e-19)
(3.74099 -4.10113 -6.57289e-18)
(3.6919 -4.04754 3.32279e-18)
(3.64936 -4.00102 -3.55016e-18)
(3.61173 -3.95976 6.00472e-18)
(3.57786 -3.92257 -6.63867e-22)
(3.54699 -3.88862 -2.73447e-18)
(3.51854 -3.8573 1.96168e-18)
(3.49209 -3.82817 -2.82235e-18)
(3.46733 -3.80086 3.01042e-19)
(3.44399 -3.77511 0)
(3.42187 -3.7507 2.78829e-19)
(3.40082 -3.72746 -5.3785e-19)
(3.3807 -3.70522 -5.19326e-19)
(3.36139 -3.68389 -2.25823e-18)
(3.34281 -3.66335 1.69503e-21)
(3.32487 -3.64352 1.8831e-18)
(3.3075 -3.62431 0)
(3.29066 -3.60568 1.7699e-18)
(3.27428 -3.58757 -1.72054e-18)
(3.25832 -3.56991 1.67027e-18)
(3.24274 -3.55268 -2.03244e-18)
(3.22751 -3.53584 -3.95331e-19)
(3.2126 -3.51934 0)
(3.19798 -3.50317 -3.75028e-19)
(3.18362 -3.48729 -3.65471e-19)
(3.16951 -3.47167 1.42458e-18)
(3.15561 -3.45631 -1.04395e-18)
(3.14192 -3.44117 0)
(3.12842 -3.42624 0)
(3.11508 -3.41149 3.23447e-19)
(3.10191 -3.39693 1.57893e-18)
(3.08887 -3.38252 -9.27268e-19)
(3.07597 -3.36827 0)
(3.06319 -3.35414 -1.179e-18)
(3.05051 -3.34014 2.01696e-21)
(3.03794 -3.32626 1.69358e-18)
(3.02545 -3.31247 1.65447e-18)
(3.01305 -3.29879 -1.08074e-18)
(3.00072 -3.28518 5.2814e-19)
(2.98846 -3.27165 0)
(2.97626 -3.25819 -5.05691e-19)
(2.9641 -3.24479 1.48367e-18)
(2.952 -3.23145 -1.93842e-18)
(2.93993 -3.21815 4.74048e-19)
(2.9279 -3.20489 0)
(2.91589 -3.19166 0)
(2.90391 -3.17847 1.33226e-18)
(2.89194 -3.16529 -4.3605e-19)
(2.87998 -3.15213 0)
(2.86804 -3.13899 4.16606e-19)
(2.85609 -3.12585 4.07703e-19)
(2.84414 -3.11271 -3.98947e-19)
(2.83219 -3.09957 -3.90333e-19)
(2.82023 -3.08642 -3.81886e-19)
(2.80825 -3.07325 7.46095e-19)
(2.79625 -3.06007 -1.07286e-21)
(2.78423 -3.04687 7.13713e-19)
(2.77218 -3.03364 -7.00101e-19)
(2.76011 -3.02038 -6.83485e-19)
(2.748 -3.00709 -1.33529e-18)
(2.73585 -2.99376 6.53127e-19)
(2.72366 -2.98038 -1.27774e-18)
(2.71142 -2.96696 1.2475e-18)
(2.69914 -2.95349 0)
(2.6868 -2.93997 5.95264e-19)
(2.67441 -2.92638 1.16157e-18)
(2.66195 -2.91274 -5.69827e-19)
(2.64944 -2.89902 -5.55235e-19)
(2.63686 -2.88524 5.40856e-19)
(2.62421 -2.87139 -1.09711e-21)
(2.61149 -2.85745 -1.54467e-18)
(2.59869 -2.84344 1.00552e-18)
(2.58581 -2.82934 0)
(2.57285 -2.81515 -4.78552e-19)
(2.5598 -2.80087 -1.39721e-18)
(2.54666 -2.78649 0)
(2.53342 -2.77201 0)
(2.52009 -2.75742 8.60608e-19)
(2.50666 -2.74273 0)
(2.49312 -2.72793 8.15797e-19)
(2.47948 -2.713 0)
(2.46572 -2.69796 -1.30173e-23)
(2.45185 -2.68279 0)
(2.43785 -2.6675 0)
(2.42374 -2.65207 7.10546e-19)
(2.40949 -2.6365 1.38133e-18)
(2.39511 -2.62079 1.34233e-18)
(4.39128 -4.83199 -5.53313e-19)
(4.09422 -4.4958 5.46822e-19)
(3.9566 -4.34814 0)
(3.86252 -4.24714 0)
(3.79137 -4.16916 9.23997e-19)
(3.73323 -4.10636 -4.36294e-19)
(3.68428 -4.05328 3.30499e-18)
(3.64178 -4.00718 -2.74324e-18)
(3.60413 -3.96627 -3.72634e-19)
(3.57023 -3.92937 2.83782e-18)
(3.5393 -3.89564 -3.04863e-18)
(3.51081 -3.8645 6.47935e-19)
(3.48431 -3.83551 3.1042e-19)
(3.45951 -3.80831 -2.97974e-19)
(3.43613 -3.78264 0)
(3.41399 -3.75829 -2.75847e-19)
(3.39291 -3.73509 2.6597e-19)
(3.37277 -3.71289 2.56773e-19)
(3.35344 -3.69158 0)
(3.33485 -3.67105 0)
(3.3169 -3.65122 0)
(3.29953 -3.63202 -4.50973e-19)
(3.28268 -3.61338 0)
(3.2663 -3.59526 -4.24971e-19)
(3.25035 -3.5776 0)
(3.23478 -3.56035 4.01672e-19)
(3.21955 -3.54349 3.90947e-19)
(3.20465 -3.52698 0)
(3.19004 -3.51078 -1.48251e-18)
(3.17569 -3.49488 3.63412e-19)
(3.16159 -3.47924 1.05859e-18)
(3.1477 -3.46385 -3.43964e-19)
(3.13403 -3.44869 1.34202e-18)
(3.12054 -3.43373 -2.95045e-18)
(3.10722 -3.41897 9.61575e-19)
(3.09405 -3.40437 -3.12851e-19)
(3.08104 -3.38994 -6.11555e-19)
(3.06815 -3.37566 0)
(3.05538 -3.36151 0)
(3.04273 -3.34748 1.42836e-18)
(3.03017 -3.33357 -1.11959e-18)
(3.01771 -3.31976 -4.70902e-23)
(3.00533 -3.30604 -5.3548e-19)
(2.99302 -3.2924 -1.04806e-18)
(2.98078 -3.27885 -5.11894e-19)
(2.9686 -3.26536 1.50722e-18)
(2.95647 -3.25193 -9.81936e-19)
(2.94438 -3.23855 1.44454e-18)
(2.93234 -3.22522 -1.41218e-18)
(2.92033 -3.21193 9.23486e-19)
(2.90835 -3.19868 -9.02105e-19)
(2.89639 -3.18545 8.85325e-19)
(2.88444 -3.17225 -4.32902e-19)
(2.87251 -3.15906 0)
(2.86059 -3.14589 -4.14946e-19)
(2.84867 -3.13272 0)
(2.83675 -3.11955 0)
(2.82483 -3.10637 3.89249e-19)
(2.81289 -3.09319 1.08163e-21)
(2.80094 -3.08 7.46787e-19)
(2.78897 -3.06679 -7.29722e-19)
(2.77697 -3.05356 7.1401e-19)
(2.76496 -3.0403 0)
(2.75291 -3.02701 0)
(2.74082 -3.01369 1.33563e-18)
(2.7287 -3.00032 -6.53629e-19)
(2.71654 -2.98692 1.27932e-18)
(2.70434 -2.97347 -1.10882e-21)
(2.69208 -2.95996 -6.11822e-19)
(2.67978 -2.94641 0)
(2.66741 -2.93279 -1.16527e-18)
(2.65499 -2.91911 2.27888e-18)
(2.64251 -2.90537 -2.20832e-21)
(2.62996 -2.89156 -2.20908e-21)
(2.61734 -2.87767 -1.09878e-21)
(2.60465 -2.8637 5.16733e-19)
(2.59188 -2.84966 -1.0118e-18)
(2.57904 -2.83552 4.9305e-19)
(2.56611 -2.8213 9.60785e-19)
(2.55309 -2.80699 -4.70122e-19)
(2.53999 -2.79258 4.56182e-19)
(2.52679 -2.77807 -1.33829e-18)
(2.51349 -2.76345 1.302e-18)
(2.50009 -2.74872 -2.1931e-21)
(2.48659 -2.73388 -8.24381e-19)
(2.47298 -2.71893 4.02471e-19)
(2.45926 -2.70385 -1.56301e-18)
(2.44542 -2.68865 0)
(2.43146 -2.67332 0)
(2.41738 -2.65785 -1.43992e-18)
(2.40317 -2.64225 -1.04919e-18)
(2.38883 -2.6265 -6.78623e-19)
(4.37743 -4.8385 1.10708e-18)
(4.08057 -4.50249 8.7425e-18)
(3.94288 -4.35549 -1.65339e-17)
(3.85041 -4.25354 7.81107e-18)
(3.77988 -4.17575 -4.59841e-19)
(3.72238 -4.11303 0)
(3.67398 -4.06004 0)
(3.63192 -4.01406 0)
(3.59461 -3.97328 -5.54172e-18)
(3.56098 -3.9365 5.62905e-18)
(3.53026 -3.90289 3.35411e-19)
(3.50192 -3.87186 1.34927e-22)
(3.47555 -3.84295 4.91285e-18)
(3.45084 -3.81583 -9.72516e-18)
(3.42753 -3.79023 4.53325e-18)
(3.40544 -3.76594 4.08778e-18)
(3.38441 -3.74279 -3.94354e-18)
(3.3643 -3.72062 0)
(3.34501 -3.69934 0)
(3.32644 -3.67883 0)
(3.30852 -3.65901 0)
(3.29117 -3.63982 8.90697e-19)
(3.27434 -3.62119 0)
(3.25797 -3.60306 4.19649e-19)
(3.24203 -3.58539 0)
(3.22648 -3.56814 -3.96644e-19)
(3.21127 -3.55127 0)
(3.19639 -3.53474 1.50257e-18)
(3.18179 -3.51853 -1.46583e-18)
(3.16746 -3.50261 3.57008e-19)
(3.15337 -3.48696 -3.482e-19)
(3.13951 -3.47155 1.69794e-18)
(3.12585 -3.45636 -1.88818e-21)
(3.11237 -3.44138 -9.72619e-19)
(3.09907 -3.42659 9.48283e-19)
(3.08593 -3.41198 -9.28537e-19)
(3.07293 -3.39752 3.02253e-19)
(3.06007 -3.38321 0)
(3.04732 -3.36904 0)
(3.03469 -3.35498 -1.69532e-18)
(3.02215 -3.34104 1.97934e-21)
(3.00971 -3.3272 1.95223e-21)
(2.99735 -3.31346 1.5906e-18)
(2.98506 -3.2998 -1.03632e-18)
(2.97284 -3.28621 5.08774e-19)
(2.96069 -3.27269 0)
(2.94858 -3.25924 0)
(2.93652 -3.24583 0)
(2.9245 -3.23247 1.03531e-21)
(2.91252 -3.21916 4.58247e-19)
(2.90056 -3.20587 0)
(2.88862 -3.19262 4.38525e-19)
(2.87671 -3.17938 -8.57926e-19)
(2.8648 -3.16616 1.26291e-18)
(2.85291 -3.15296 8.22794e-19)
(2.84102 -3.13976 -8.07845e-19)
(2.82912 -3.12656 -7.88968e-19)
(2.81722 -3.11336 3.87861e-19)
(2.80532 -3.10015 -3.78712e-19)
(2.79339 -3.08692 3.70751e-19)
(2.78145 -3.07368 7.25894e-19)
(2.76949 -3.06042 -7.10514e-19)
(2.7575 -3.04713 0)
(2.74548 -3.03381 0)
(2.73343 -3.02045 -1.77505e-23)
(2.72133 -3.00706 -1.30163e-18)
(2.7092 -2.99362 6.38225e-19)
(2.69703 -2.98014 -6.2202e-19)
(2.6848 -2.96661 1.82792e-18)
(2.67253 -2.95302 -1.10358e-21)
(2.6602 -2.93937 5.82291e-19)
(2.64781 -2.92566 -5.69088e-19)
(2.63536 -2.91188 0)
(2.62284 -2.89804 0)
(2.61026 -2.88412 0)
(2.5976 -2.87012 5.17008e-19)
(2.58487 -2.85604 -5.06928e-19)
(2.57205 -2.84188 -4.93736e-19)
(2.55916 -2.82762 0)
(2.54617 -2.81328 0)
(2.5331 -2.79883 -1.37439e-18)
(2.51994 -2.78429 2.23667e-18)
(2.50668 -2.76963 -1.19246e-23)
(2.49331 -2.75487 0)
(2.47985 -2.74 -4.12906e-19)
(2.46627 -2.72501 2.19527e-21)
(2.45259 -2.7099 3.9392e-19)
(2.43879 -2.69466 -7.64965e-19)
(2.42487 -2.6793 -7.44656e-19)
(2.41082 -2.66379 1.08597e-18)
(2.39665 -2.64815 -2.17246e-21)
(2.38235 -2.63237 3.41841e-19)
(4.36545 -4.84835 7.75447e-18)
(4.06823 -4.51222 8.18004e-18)
(3.93086 -4.36455 -8.75676e-18)
(3.83913 -4.26189 4.86003e-19)
(3.76864 -4.18414 0)
(3.71145 -4.12123 0)
(3.66332 -4.06811 0)
(3.6215 -4.02205 6.17511e-18)
(3.58443 -3.98121 -1.17228e-17)
(3.551 -3.94439 1.11506e-17)
(3.52048 -3.91077 -5.31692e-18)
(3.4923 -3.87973 4.75916e-18)
(3.46608 -3.85083 -4.86309e-18)
(3.44149 -3.82372 2.91367e-19)
(3.4183 -3.79813 4.7579e-18)
(3.3963 -3.77385 -4.0429e-18)
(3.37535 -3.75071 4.15249e-18)
(3.35531 -3.72856 -2.5395e-19)
(3.33608 -3.70728 -3.87507e-18)
(3.31756 -3.68678 -2.3419e-19)
(3.29969 -3.66697 0)
(3.28238 -3.64778 -8.79311e-19)
(3.26558 -3.62915 0)
(3.24926 -3.61102 0)
(3.23335 -3.59334 -3.62125e-18)
(3.21782 -3.57608 3.13383e-18)
(3.20264 -3.5592 0)
(3.18778 -3.54266 0)
(3.17321 -3.52644 0)
(3.15891 -3.5105 -7.04951e-19)
(3.14484 -3.49483 3.43815e-19)
(3.131 -3.47941 0)
(3.11737 -3.4642 0)
(3.10392 -3.4492 0)
(3.09064 -3.43439 -1.87336e-18)
(3.07752 -3.41975 2.75103e-18)
(3.06455 -3.40527 0)
(3.0517 -3.39094 0)
(3.03898 -3.37674 0)
(3.02637 -3.36266 2.51342e-18)
(3.01386 -3.34869 -3.91107e-21)
(3.00144 -3.33483 -5.35395e-18)
(2.98911 -3.32106 3.66883e-18)
(2.97684 -3.30737 -1.54145e-18)
(2.96465 -3.29375 0)
(2.95252 -3.28021 4.92094e-19)
(2.94044 -3.26672 1.92588e-18)
(2.9284 -3.25329 -1.89039e-18)
(2.91641 -3.2399 -4.62452e-19)
(2.90445 -3.22656 2.26298e-18)
(2.89252 -3.21324 -8.9064e-19)
(2.88061 -3.19996 -8.71561e-19)
(2.86872 -3.1867 -8.52836e-19)
(2.85685 -3.17345 -1.04637e-21)
(2.84498 -3.16021 -1.22722e-18)
(2.83312 -3.14698 0)
(2.82125 -3.13375 3.91143e-19)
(2.80938 -3.12052 -7.69343e-19)
(2.7975 -3.10728 -1.12766e-18)
(2.78561 -3.09402 3.69529e-19)
(2.77369 -3.08075 7.21641e-19)
(2.76176 -3.06746 1.06707e-21)
(2.7498 -3.05414 2.15563e-21)
(2.73781 -3.04078 6.78301e-19)
(2.72579 -3.0274 -6.62876e-19)
(2.71373 -3.01397 6.4872e-19)
(2.70163 -3.0005 0)
(2.68949 -2.98699 -6.19977e-19)
(2.6773 -2.97342 -6.05361e-19)
(2.66505 -2.9598 1.08793e-21)
(2.65276 -2.94612 -1.16103e-18)
(2.6404 -2.93238 1.1373e-18)
(2.62798 -2.91857 0)
(2.6155 -2.90469 -1.10016e-21)
(2.60295 -2.89074 -1.06173e-18)
(2.59032 -2.87671 5.1807e-19)
(2.57762 -2.8626 5.0601e-19)
(2.56485 -2.8484 4.94105e-19)
(2.55199 -2.83411 0)
(2.53904 -2.81973 0)
(2.526 -2.80525 9.18888e-19)
(2.51287 -2.79067 -1.79289e-18)
(2.49965 -2.77599 -8.74351e-19)
(2.48632 -2.76119 8.52574e-19)
(2.47289 -2.74628 1.24562e-18)
(2.45936 -2.73126 4.03923e-19)
(2.44571 -2.71611 7.89305e-19)
(2.43195 -2.70084 3.83349e-19)
(2.41807 -2.68544 7.46604e-19)
(2.40406 -2.6699 -3.65617e-19)
(2.38993 -2.65422 3.53724e-19)
(2.37567 -2.6384 -2.19064e-21)
(4.35301 -4.85876 9.4088e-18)
(4.05592 -4.52262 -8.70927e-18)
(3.91925 -4.37404 -7.69447e-18)
(3.82795 -4.27104 1.45049e-17)
(3.75757 -4.19321 -6.82854e-18)
(3.70064 -4.13006 7.2862e-18)
(3.65267 -4.07681 -1.29461e-17)
(3.61101 -4.03064 3.41662e-21)
(3.57407 -3.98971 5.80843e-18)
(3.54078 -3.95282 0)
(3.51038 -3.91914 0)
(3.48232 -3.88806 -3.13987e-19)
(3.45621 -3.85912 -3.00463e-19)
(3.43172 -3.83199 2.88071e-19)
(3.40862 -3.80638 5.42787e-23)
(3.38672 -3.78208 -2.66168e-19)
(3.36585 -3.75893 -5.1285e-19)
(3.34588 -3.73677 -3.19166e-23)
(3.32672 -3.71548 0)
(3.30827 -3.69497 2.3116e-19)
(3.29044 -3.67515 3.57963e-18)
(3.27319 -3.65595 -3.03911e-18)
(3.25644 -3.63731 0)
(3.24016 -3.61917 3.67719e-18)
(3.22429 -3.60149 -2.7825e-18)
(3.20881 -3.58422 -3.08894e-18)
(3.19367 -3.56732 3.00973e-18)
(3.17884 -3.55077 3.66161e-19)
(3.1643 -3.53453 0)
(3.15003 -3.51858 3.47875e-19)
(3.136 -3.50289 0)
(3.12219 -3.48745 0)
(3.10858 -3.47222 -2.5849e-18)
(3.09516 -3.4572 2.21267e-18)
(3.08191 -3.44237 -6.1722e-19)
(3.06882 -3.42771 -2.41137e-18)
(3.05587 -3.41321 2.06655e-18)
(3.04305 -3.39885 -2.88475e-19)
(3.03036 -3.38462 -2.2559e-18)
(3.01777 -3.37052 2.21132e-18)
(3.00529 -3.35653 -2.16057e-18)
(2.9929 -3.34264 2.64822e-18)
(2.98059 -3.32884 -2.07089e-18)
(2.96835 -3.31512 3.92914e-21)
(2.95619 -3.30148 3.47929e-18)
(2.94408 -3.28791 -2.43636e-18)
(2.93203 -3.2744 0)
(2.92002 -3.26094 1.86717e-18)
(2.90805 -3.24752 -1.83343e-18)
(2.89612 -3.23415 0)
(2.88422 -3.2208 -4.396e-19)
(2.87234 -3.20749 8.61559e-19)
(2.86048 -3.19419 -1.68646e-18)
(2.84863 -3.18092 3.72291e-18)
(2.8368 -3.16765 -1.21811e-18)
(2.82496 -3.15439 -3.97187e-19)
(2.81313 -3.14113 1.94385e-18)
(2.80129 -3.12787 7.58446e-19)
(2.78944 -3.11459 3.69381e-19)
(2.77757 -3.10131 -4.23898e-21)
(2.76569 -3.088 -4.30231e-18)
(2.75379 -3.07468 -6.98085e-19)
(2.74186 -3.06133 4.28516e-21)
(2.7299 -3.04794 1.34937e-18)
(2.71791 -3.03452 -1.97654e-18)
(2.70589 -3.02107 -1.28715e-18)
(2.69382 -3.00757 3.2583e-21)
(2.68171 -2.99402 6.19755e-19)
(2.66955 -2.98042 -6.04333e-19)
(2.65734 -2.96677 1.18582e-18)
(2.64507 -2.95305 0)
(2.63275 -2.93928 -1.13249e-18)
(2.62037 -2.92544 5.55366e-19)
(2.60792 -2.91153 1.10756e-21)
(2.5954 -2.89754 1.06058e-18)
(2.58281 -2.88347 -5.17724e-19)
(2.57015 -2.86933 0)
(2.55741 -2.8551 -9.8837e-19)
(2.54458 -2.84077 0)
(2.53167 -2.82636 -9.42595e-19)
(2.51868 -2.81184 0)
(2.50558 -2.79723 4.50175e-19)
(2.4924 -2.78251 4.39285e-19)
(2.47911 -2.76768 -1.28127e-18)
(2.46572 -2.75273 -4.15796e-19)
(2.45222 -2.73767 -1.21838e-18)
(2.43861 -2.72249 -3.95144e-19)
(2.42489 -2.70718 7.72345e-19)
(2.41105 -2.69174 -3.75144e-19)
(2.39708 -2.67616 7.35174e-19)
(2.38299 -2.66045 -3.55786e-19)
(2.36877 -2.64459 -1.04345e-18)
(4.33984 -4.86942 0)
(4.04306 -4.53319 0)
(3.90715 -4.38377 7.66602e-18)
(3.81615 -4.28059 -3.58321e-21)
(3.74598 -4.20259 -7.69097e-18)
(3.68934 -4.13924 6.38219e-18)
(3.64155 -4.08587 -6.0208e-18)
(3.60007 -4.03959 0)
(3.56329 -3.99857 -3.59499e-19)
(3.53014 -3.96161 -5.80361e-18)
(3.49987 -3.92787 5.20538e-18)
(3.47193 -3.89674 6.20889e-19)
(3.44593 -3.86776 2.96923e-19)
(3.42154 -3.84058 -5.1213e-18)
(3.39854 -3.81494 4.10091e-18)
(3.37672 -3.79062 2.62809e-19)
(3.35593 -3.76743 2.53156e-19)
(3.33604 -3.74525 4.39423e-18)
(3.31695 -3.72394 -3.46586e-21)
(3.29856 -3.70341 -7.30006e-18)
(3.2808 -3.68358 3.53557e-18)
(3.26361 -3.66436 0)
(3.24692 -3.6457 -3.32079e-18)
(3.23069 -3.62755 3.52532e-21)
(3.21487 -3.60985 3.13685e-18)
(3.19943 -3.59256 3.81131e-19)
(3.18433 -3.57565 2.96556e-18)
(3.16955 -3.55908 -6.50205e-18)
(3.15505 -3.54282 5.63202e-18)
(3.14081 -3.52685 -3.59593e-21)
(3.12682 -3.51115 -3.01512e-18)
(3.11304 -3.49568 0)
(3.09947 -3.48044 0)
(3.08608 -3.46539 3.11712e-19)
(3.07286 -3.45054 3.04618e-19)
(3.0598 -3.43586 -5.95575e-19)
(3.04689 -3.42133 9.47466e-24)
(3.0341 -3.40695 2.84867e-19)
(3.02144 -3.3927 0)
(3.00888 -3.37857 -2.45326e-18)
(2.99643 -3.36456 1.60423e-18)
(2.98406 -3.35064 -2.08994e-18)
(2.97179 -3.33681 2.56269e-18)
(2.95958 -3.32307 2.00465e-18)
(2.94744 -3.3094 -1.96766e-18)
(2.93537 -3.2958 0)
(2.92334 -3.28226 0)
(2.91136 -3.26877 0)
(2.89943 -3.25533 0)
(2.88753 -3.24192 -4.4408e-19)
(2.87565 -3.22855 -1.30378e-18)
(2.8638 -3.21521 1.28194e-18)
(2.85197 -3.20188 0)
(2.84016 -3.18858 -4.09905e-19)
(2.82835 -3.17528 -1.60511e-18)
(2.81654 -3.16199 1.9712e-18)
(2.80474 -3.1487 3.86e-19)
(2.79293 -3.1354 -1.13447e-23)
(2.78111 -3.1221 3.70769e-19)
(2.76928 -3.10878 0)
(2.75743 -3.09545 7.12108e-19)
(2.74556 -3.08209 0)
(2.73366 -3.0687 0)
(2.72174 -3.05529 -2.00678e-18)
(2.70978 -3.04184 3.27959e-18)
(2.69779 -3.02835 -6.44533e-19)
(2.68575 -3.01481 6.2907e-19)
(2.67368 -3.00123 0)
(2.66155 -2.9876 6.02958e-19)
(2.64938 -2.97391 5.87998e-19)
(2.63715 -2.96017 -2.31031e-18)
(2.62486 -2.94636 1.13248e-18)
(2.61251 -2.93248 0)
(2.6001 -2.91854 0)
(2.58762 -2.90452 5.28831e-19)
(2.57507 -2.89042 0)
(2.56244 -2.87624 5.05425e-19)
(2.54973 -2.86197 -4.91742e-19)
(2.53695 -2.84761 9.67502e-19)
(2.52408 -2.83316 -4.70364e-19)
(2.51111 -2.81861 1.38253e-18)
(2.49806 -2.80396 0)
(2.48491 -2.7892 -4.37807e-19)
(2.47166 -2.77433 4.29474e-19)
(2.45831 -2.75935 0)
(2.44485 -2.74426 -4.08822e-19)
(2.43129 -2.72903 1.19175e-18)
(2.4176 -2.71369 0)
(2.4038 -2.69821 0)
(2.38988 -2.6826 -1.10362e-18)
(2.37583 -2.66684 1.79487e-18)
(2.36166 -2.65095 6.98847e-19)
(4.32627 -4.88061 0)
(4.02987 -4.54411 -5.42035e-19)
(3.8947 -4.39393 5.09044e-19)
(3.8039 -4.29061 4.78426e-19)
(3.73399 -4.21237 6.73864e-18)
(3.67758 -4.14884 -6.76003e-18)
(3.62998 -4.09535 1.38921e-22)
(3.58867 -4.04895 -6.01079e-18)
(3.55205 -4.00783 6.05168e-18)
(3.51905 -3.97078 -5.4048e-18)
(3.48891 -3.93697 1.02927e-17)
(3.46109 -3.90577 -3.10425e-19)
(3.4352 -3.87673 -3.5574e-21)
(3.41093 -3.8495 -4.50012e-18)
(3.38802 -3.82382 0)
(3.3663 -3.79945 0)
(3.3456 -3.77623 3.9965e-18)
(3.32579 -3.75402 -7.95318e-18)
(3.30678 -3.73268 3.72574e-18)
(3.28846 -3.71212 -3.59917e-18)
(3.27077 -3.69226 3.48763e-18)
(3.25364 -3.67302 0)
(3.23701 -3.65434 -3.2752e-18)
(3.22083 -3.63616 2.38801e-18)
(3.20507 -3.61844 3.09007e-18)
(3.18968 -3.60113 -3.38446e-18)
(3.17463 -3.5842 0)
(3.1599 -3.56761 3.56239e-19)
(3.14544 -3.55133 0)
(3.13125 -3.53534 0)
(3.1173 -3.51961 3.30241e-19)
(3.10356 -3.50412 -2.57694e-18)
(3.09003 -3.48885 2.52004e-18)
(3.07667 -3.47379 -2.15086e-18)
(3.06349 -3.45891 2.4063e-18)
(3.05047 -3.44421 5.8772e-19)
(3.03759 -3.42966 -2.00997e-18)
(3.02484 -3.41525 4.21768e-18)
(3.0122 -3.40098 -2.2032e-18)
(2.99968 -3.38682 2.69358e-19)
(2.98726 -3.37278 1.05491e-18)
(2.97493 -3.35884 -2.06427e-18)
(2.96268 -3.34499 1.51977e-18)
(2.95051 -3.33122 0)
(2.9384 -3.31752 9.71361e-19)
(2.92636 -3.30389 0)
(2.91437 -3.29032 1.39746e-18)
(2.90242 -3.2768 -4.61143e-19)
(2.89052 -3.26333 -1.79477e-18)
(2.87864 -3.2499 4.39396e-19)
(2.8668 -3.2365 0)
(2.85499 -3.22312 0)
(2.84319 -3.20977 0)
(2.8314 -3.19643 4.06006e-19)
(2.81963 -3.1831 -1.59024e-18)
(2.80785 -3.16978 3.12231e-18)
(2.79608 -3.15646 -3.44387e-18)
(2.7843 -3.14313 -3.71023e-19)
(2.77252 -3.12979 7.3763e-19)
(2.76072 -3.11645 -1.44003e-18)
(2.7489 -3.10308 4.19128e-21)
(2.73707 -3.08969 1.38762e-18)
(2.7252 -3.07627 6.78936e-19)
(2.71331 -3.06282 6.6534e-19)
(2.70139 -3.04934 0)
(2.68943 -3.03581 1.91397e-18)
(2.67743 -3.02225 -4.29195e-21)
(2.66539 -3.00863 -1.22782e-18)
(2.6533 -2.99497 -6.00171e-19)
(2.64116 -2.98125 0)
(2.62897 -2.96747 0)
(2.61672 -2.95362 -5.63166e-19)
(2.6044 -2.93971 0)
(2.59203 -2.92573 -5.3931e-19)
(2.57959 -2.91168 -1.58066e-18)
(2.56707 -2.89754 5.20471e-19)
(2.55448 -2.88332 -5.00274e-19)
(2.54181 -2.86902 9.89072e-19)
(2.52907 -2.85463 -4.82331e-19)
(2.51623 -2.84014 9.42768e-19)
(2.50331 -2.82555 -9.21151e-19)
(2.4903 -2.81086 0)
(2.47719 -2.79607 0)
(2.46398 -2.78117 8.58018e-19)
(2.45067 -2.76615 0)
(2.43725 -2.75101 8.17382e-19)
(2.42373 -2.73575 -1.59497e-18)
(2.41009 -2.72037 0)
(2.39633 -2.70485 7.58567e-19)
(2.38245 -2.6892 0)
(2.36844 -2.67341 -7.20823e-19)
(2.35431 -2.65747 0)
(4.31234 -4.89233 9.39395e-18)
(4.01643 -4.55544 9.72862e-18)
(3.88197 -4.40455 -1.6224e-17)
(3.79135 -4.30107 3.52249e-21)
(3.72171 -4.22257 8.03495e-18)
(3.66551 -4.15887 -7.12192e-18)
(3.61808 -4.10524 -3.90602e-19)
(3.57693 -4.05871 5.95679e-18)
(3.54046 -4.01748 5.98598e-18)
(3.50758 -3.98034 -1.03615e-17)
(3.47757 -3.94644 3.21657e-19)
(3.44987 -3.91516 4.55074e-18)
(3.42409 -3.88605 0)
(3.39991 -3.85877 2.77595e-19)
(3.37711 -3.83303 2.66429e-19)
(3.35548 -3.80861 0)
(3.33486 -3.78535 3.94338e-18)
(3.31514 -3.76309 -3.49334e-21)
(3.2962 -3.74171 -3.44539e-18)
(3.27796 -3.72112 2.21973e-19)
(3.26034 -3.70122 0)
(3.24328 -3.68195 -2.91284e-18)
(3.22671 -3.66324 2.82881e-18)
(3.2106 -3.64503 -3.08537e-23)
(3.1949 -3.62728 -3.04644e-18)
(3.17956 -3.60994 3.33667e-18)
(3.16457 -3.59298 0)
(3.14988 -3.57637 0)
(3.13548 -3.56006 -2.3941e-18)
(3.12133 -3.54405 3.53343e-21)
(3.10742 -3.52829 2.60674e-18)
(3.09373 -3.51278 0)
(3.08024 -3.49749 -2.48158e-18)
(3.06693 -3.4824 2.12487e-18)
(3.05379 -3.4675 -2.07338e-18)
(3.04081 -3.45277 2.03096e-18)
(3.02796 -3.43819 -2.83546e-19)
(3.01525 -3.42376 -1.94024e-18)
(3.00265 -3.40946 2.17422e-18)
(2.99017 -3.39528 0)
(2.97778 -3.38121 2.08083e-18)
(2.96549 -3.36724 -2.04185e-18)
(2.95327 -3.35336 0)
(2.94114 -3.33956 0)
(2.92906 -3.32584 -2.39705e-18)
(2.91705 -3.31218 1.41274e-18)
(2.90509 -3.29859 2.3031e-18)
(2.89318 -3.28504 -3.16377e-18)
(2.88131 -3.27154 1.77455e-18)
(2.86947 -3.25807 0)
(2.85766 -3.24464 0)
(2.84588 -3.23123 2.08745e-18)
(2.83411 -3.21785 -1.6413e-18)
(2.82236 -3.20448 -4.01926e-19)
(2.81062 -3.19112 0)
(2.79888 -3.17777 -1.93093e-18)
(2.78714 -3.16442 4.07594e-21)
(2.7754 -3.15106 1.1175e-18)
(2.76365 -3.13769 2.18566e-18)
(2.75188 -3.12431 -1.78978e-18)
(2.7401 -3.11091 7.0116e-19)
(2.7283 -3.09748 0)
(2.71647 -3.08403 -1.4482e-23)
(2.70462 -3.07055 0)
(2.69273 -3.05703 6.47587e-19)
(2.6808 -3.04348 6.32552e-19)
(2.66884 -3.02987 -1.24606e-18)
(2.65684 -3.01623 6.0941e-19)
(2.64478 -3.00253 5.97031e-19)
(2.63268 -2.98877 5.84818e-19)
(2.62052 -2.97496 -1.14337e-18)
(2.60831 -2.96108 1.68479e-18)
(2.59604 -2.94713 0)
(2.5837 -2.93311 5.37539e-19)
(2.57129 -2.91902 -5.26085e-19)
(2.55882 -2.90485 -1.02957e-18)
(2.54627 -2.8906 -5.03623e-19)
(2.53364 -2.87626 0)
(2.52093 -2.86183 4.81732e-19)
(2.50814 -2.8473 0)
(2.49526 -2.83268 9.20763e-19)
(2.48228 -2.81795 0)
(2.46922 -2.80312 0)
(2.45605 -2.78818 -8.56566e-19)
(2.44278 -2.77312 2.22758e-21)
(2.42941 -2.75795 8.18818e-19)
(2.41592 -2.74265 8.115e-24)
(2.40233 -2.72722 -7.79946e-19)
(2.38861 -2.71167 -7.60929e-19)
(2.37478 -2.69597 -1.48211e-18)
(2.36082 -2.68014 7.2593e-19)
(2.34673 -2.66416 0)
(4.29795 -4.90449 -9.38387e-18)
(4.00267 -4.56711 8.08824e-18)
(3.8689 -4.41557 0)
(3.77847 -4.3119 7.56611e-18)
(3.70911 -4.23314 -7.9775e-18)
(3.65311 -4.16927 -8.83676e-23)
(3.60585 -4.11549 5.85979e-18)
(3.56486 -4.06884 -3.69323e-21)
(3.52852 -4.02749 -6.27468e-18)
(3.49577 -3.99025 0)
(3.46587 -3.95626 -3.14247e-19)
(3.43828 -3.9249 -4.79164e-18)
(3.41261 -3.89572 4.58155e-18)
(3.38853 -3.86836 0)
(3.36582 -3.84256 -2.62886e-19)
(3.34428 -3.81808 -2.52681e-19)
(3.32375 -3.79477 0)
(3.30411 -3.77246 -3.51546e-18)
(3.28525 -3.75103 7.01768e-18)
(3.26708 -3.7304 -7.22153e-18)
(3.24953 -3.71046 6.77752e-18)
(3.23254 -3.69115 -4.13865e-19)
(3.21604 -3.6724 -2.78829e-18)
(3.19999 -3.65416 3.86453e-19)
(3.18435 -3.63638 0)
(3.16907 -3.61901 -3.65184e-19)
(3.15413 -3.60202 0)
(3.1395 -3.58537 3.11357e-18)
(3.12515 -3.56904 -3.03776e-18)
(3.11105 -3.55299 2.62986e-18)
(3.09719 -3.53721 -5.13532e-18)
(3.08355 -3.52167 2.82167e-18)
(3.0701 -3.50635 0)
(3.05684 -3.49124 2.39038e-18)
(3.04374 -3.47631 -5.26146e-18)
(3.0308 -3.46155 2.28858e-18)
(3.018 -3.44695 -1.03479e-24)
(3.00532 -3.43249 0)
(2.99277 -3.41816 -2.40904e-18)
(2.98032 -3.40395 3.66418e-21)
(2.96798 -3.38985 1.5432e-18)
(2.95572 -3.37586 0)
(2.94354 -3.36195 -1.97088e-18)
(2.93144 -3.34812 2.41859e-18)
(2.91941 -3.33437 0)
(2.90743 -3.32068 8.1177e-24)
(2.89551 -3.30706 -1.81973e-18)
(2.88363 -3.29348 3.12605e-18)
(2.87179 -3.27995 -2.19174e-18)
(2.85999 -3.26645 0)
(2.84822 -3.25299 4.21328e-19)
(2.83647 -3.23955 -4.13297e-19)
(2.82474 -3.22614 0)
(2.81302 -3.21274 -1.58885e-18)
(2.80132 -3.19935 1.56262e-18)
(2.78961 -3.18596 3.8275e-19)
(2.77791 -3.17258 0)
(2.7662 -3.15918 7.36651e-19)
(2.75449 -3.14578 -3.61308e-19)
(2.74276 -3.13237 7.35363e-24)
(2.73101 -3.11893 6.93144e-19)
(2.71925 -3.10548 -1.36576e-18)
(2.70746 -3.09199 -6.68692e-19)
(2.69564 -3.07848 -6.55712e-19)
(2.68379 -3.06493 -6.42946e-19)
(2.6719 -3.05133 0)
(2.65997 -3.0377 6.17919e-19)
(2.64801 -3.02401 -6.05678e-19)
(2.63599 -3.01028 -1.18717e-18)
(2.62393 -2.99649 -5.81661e-19)
(2.61181 -2.98264 -1.13761e-18)
(2.59963 -2.96872 1.67692e-18)
(2.5874 -2.95474 -1.09139e-18)
(2.5751 -2.94069 5.37619e-19)
(2.56273 -2.92656 1.57057e-18)
(2.5503 -2.91235 -5.15374e-19)
(2.53779 -2.89806 5.02276e-19)
(2.5252 -2.88368 -9.80768e-19)
(2.51253 -2.86921 9.63862e-19)
(2.49978 -2.85465 0)
(2.48694 -2.83999 -1.83965e-18)
(2.47401 -2.82523 -8.99294e-19)
(2.46099 -2.81035 8.79024e-19)
(2.44786 -2.79537 -1.71803e-18)
(2.43464 -2.78028 8.39264e-19)
(2.42131 -2.76506 -1.63729e-18)
(2.40787 -2.74972 1.60327e-18)
(2.39432 -2.73426 7.35204e-24)
(2.38065 -2.71866 7.60575e-19)
(2.36686 -2.70293 -2.23017e-21)
(2.35294 -2.68705 -7.26147e-19)
(2.3389 -2.67103 7.05973e-19)
(4.28309 -4.91704 -8.82465e-18)
(3.98853 -4.57909 -8.59977e-18)
(3.85542 -4.42694 3.37824e-21)
(3.76521 -4.32306 1.5043e-17)
(3.69613 -4.24405 -6.59921e-18)
(3.64032 -4.18001 7.00355e-18)
(3.59324 -4.12608 -5.80853e-18)
(3.5524 -4.07929 0)
(3.5162 -4.03783 3.4467e-19)
(3.48358 -4.00049 4.89885e-18)
(3.4538 -3.9664 -4.65945e-18)
(3.42632 -3.93496 5.91726e-19)
(3.40075 -3.9057 2.8259e-19)
(3.37677 -3.87827 -4.05502e-18)
(3.35415 -3.8524 4.41113e-18)
(3.33269 -3.82786 4.23469e-18)
(3.31225 -3.80449 -3.8391e-18)
(3.29269 -3.78212 3.69713e-18)
(3.27391 -3.76065 -3.57213e-18)
(3.25582 -3.73997 -2.15699e-19)
(3.23834 -3.71999 -3.33793e-18)
(3.22142 -3.70063 3.23726e-18)
(3.20498 -3.68184 3.92265e-19)
(3.189 -3.66356 -3.80802e-19)
(3.17342 -3.64574 0)
(3.1582 -3.62833 -2.87672e-18)
(3.14332 -3.61131 2.80308e-18)
(3.12875 -3.59463 -3.4103e-19)
(3.11445 -3.57826 0)
(3.10041 -3.56219 2.91534e-18)
(3.0866 -3.54637 -2.84805e-18)
(3.07301 -3.5308 -3.08577e-18)
(3.05961 -3.51545 2.41435e-18)
(3.04639 -3.50031 -2.35585e-18)
(3.03334 -3.48535 2.59474e-18)
(3.02045 -3.47056 0)
(3.00769 -3.45593 2.75682e-19)
(2.99506 -3.44144 2.69816e-19)
(2.98255 -3.42708 -1.58311e-18)
(2.97014 -3.41285 4.13896e-18)
(2.95783 -3.39872 -5.10437e-19)
(2.94562 -3.38469 -3.4759e-18)
(2.93348 -3.37075 1.94837e-18)
(2.92142 -3.3569 9.5215e-19)
(2.90942 -3.34312 -1.87245e-18)
(2.89749 -3.3294 4.58554e-19)
(2.8856 -3.31574 1.79689e-18)
(2.87376 -3.30213 -8.8402e-19)
(2.86196 -3.28857 2.16134e-18)
(2.8502 -3.27504 -1.27522e-18)
(2.83846 -3.26155 -6.77354e-24)
(2.82675 -3.24808 0)
(2.81506 -3.23464 -1.60155e-18)
(2.80338 -3.2212 1.96874e-18)
(2.79171 -3.20778 0)
(2.78004 -3.19436 0)
(2.76838 -3.18094 1.48462e-18)
(2.75671 -3.16752 -7.3339e-19)
(2.74503 -3.15408 -1.7912e-18)
(2.73334 -3.14064 -1.05127e-18)
(2.72163 -3.12717 1.37996e-18)
(2.7099 -3.11368 -6.75918e-19)
(2.69815 -3.10016 6.61023e-19)
(2.68637 -3.08661 -6.52501e-19)
(2.67455 -3.07302 -1.27386e-18)
(2.66271 -3.05939 1.25347e-18)
(2.65082 -3.04572 -1.22714e-18)
(2.63889 -3.032 0)
(2.62691 -3.01823 2.35716e-18)
(2.61489 -3.00441 -1.15848e-18)
(2.60281 -2.99052 -1.13122e-18)
(2.59068 -2.97657 5.57473e-19)
(2.57848 -2.96255 0)
(2.56622 -2.94846 5.33052e-19)
(2.5539 -2.93429 0)
(2.54151 -2.92004 5.11297e-19)
(2.52904 -2.90572 4.98434e-19)
(2.51649 -2.8913 -9.82327e-19)
(2.50387 -2.87679 0)
(2.49116 -2.86219 4.69338e-19)
(2.47836 -2.84749 1.83665e-18)
(2.46548 -2.83269 8.98214e-19)
(2.45249 -2.81778 -8.78345e-19)
(2.43942 -2.80275 8.26425e-24)
(2.42624 -2.78762 0)
(2.41295 -2.77236 -8.20187e-19)
(2.39956 -2.75698 -2.23435e-21)
(2.38605 -2.74147 -2.2308e-21)
(2.37243 -2.72584 0)
(2.35868 -2.71006 -7.46066e-19)
(2.34482 -2.69414 1.45407e-18)
(2.33082 -2.67808 -2.24466e-21)
(4.26774 -4.93 -8.81539e-18)
(3.97398 -4.5914 -8.57438e-18)
(3.84152 -4.43867 1.59975e-17)
(3.75154 -4.33456 -7.47559e-18)
(3.68275 -4.25529 0)
(3.62714 -4.19108 0)
(3.58024 -4.13699 0)
(3.53956 -4.09007 5.77295e-18)
(3.5035 -4.0485 -5.45553e-18)
(3.471 -4.01105 3.22849e-19)
(3.44134 -3.97686 4.90548e-18)
(3.41397 -3.94533 -2.95637e-19)
(3.3885 -3.91599 -9.20253e-18)
(3.36462 -3.88849 4.00405e-18)
(3.34209 -3.86255 -5.11623e-19)
(3.32073 -3.83795 4.17548e-18)
(3.30037 -3.81451 2.32994e-19)
(3.28089 -3.79209 -3.87515e-18)
(3.26218 -3.77056 0)
(3.24417 -3.74983 3.82365e-18)
(3.22676 -3.72979 -3.29194e-18)
(3.20991 -3.71039 3.98442e-19)
(3.19354 -3.69156 -3.86363e-19)
(3.17763 -3.67323 3.75055e-19)
(3.16211 -3.65537 0)
(3.14696 -3.63793 2.83337e-18)
(3.13214 -3.62086 -2.76083e-18)
(3.11762 -3.60415 3.3591e-19)
(3.10338 -3.58774 3.27375e-19)
(3.08939 -3.57163 -6.38503e-19)
(3.07564 -3.55579 2.80196e-18)
(3.0621 -3.54018 -4.56217e-18)
(3.04875 -3.5248 2.37849e-18)
(3.03558 -3.50962 2.03068e-18)
(3.02258 -3.49463 -4.54201e-18)
(3.00973 -3.47981 2.22305e-18)
(2.99702 -3.46514 2.71691e-19)
(2.98444 -3.45062 -2.65934e-19)
(2.97197 -3.43624 2.08132e-18)
(2.95961 -3.42197 -1.78701e-18)
(2.94735 -3.40781 -9.97618e-19)
(2.93517 -3.39375 1.47087e-18)
(2.92308 -3.37978 -4.79982e-19)
(2.91106 -3.3659 1.88041e-18)
(2.8991 -3.35208 -1.84749e-18)
(2.88721 -3.33834 2.26075e-18)
(2.87536 -3.32465 -3.72125e-21)
(2.86356 -3.31101 -4.39183e-19)
(2.8518 -3.29741 -1.71075e-18)
(2.84008 -3.28385 -4.19198e-19)
(2.82838 -3.27033 1.23217e-18)
(2.81671 -3.25683 -1.61671e-18)
(2.80506 -3.24335 -3.96203e-19)
(2.79342 -3.22988 0)
(2.78178 -3.21643 -3.81672e-19)
(2.77016 -3.20298 -1.49652e-18)
(2.75853 -3.18952 1.84048e-18)
(2.7469 -3.17606 2.16345e-18)
(2.73526 -3.1626 -7.10453e-19)
(2.72361 -3.14911 0)
(2.71194 -3.13561 6.82411e-19)
(2.70025 -3.12208 2.00708e-18)
(2.68854 -3.10853 -1.31641e-18)
(2.67679 -3.09494 6.44856e-19)
(2.66502 -3.08132 -1.26335e-18)
(2.65321 -3.06766 4.15363e-21)
(2.64137 -3.05395 2.43774e-18)
(2.62948 -3.0402 0)
(2.61754 -3.02639 -7.91536e-24)
(2.60556 -3.01252 1.14667e-18)
(2.59352 -2.9986 -1.12849e-18)
(2.58143 -2.98461 0)
(2.56928 -2.97055 1.62134e-18)
(2.55706 -2.95643 -4.30676e-21)
(2.54478 -2.94222 -1.0415e-18)
(2.53243 -2.92794 5.06935e-19)
(2.52 -2.91357 -5.00848e-19)
(2.5075 -2.89911 0)
(2.49492 -2.88457 0)
(2.48226 -2.86993 -4.68654e-24)
(2.4695 -2.85518 -8.91562e-24)
(2.45666 -2.84034 8.96567e-19)
(2.44373 -2.82539 -8.77109e-19)
(2.43069 -2.81033 2.22916e-21)
(2.41756 -2.79515 4.45353e-21)
(2.40432 -2.77985 2.46256e-18)
(2.39097 -2.76443 8.01572e-19)