# Probe 0 (14 15 1)
# Time        0            
0             -1.79769e+307
1             -1.79769e+307
2             -1.79769e+307
3             -1.79769e+307
4             -1.79769e+307
5             -1.79769e+307
6             -1.79769e+307
7             -1.79769e+307
8             -1.79769e+307
9             -1.79769e+307
10            -1.79769e+307
11            -1.79769e+307
12            -1.79769e+307
13            -1.79769e+307
14            -1.79769e+307
15            -1.79769e+307
16            -1.79769e+307
17            -1.79769e+307
18            -1.79769e+307
19            -1.79769e+307
20            -1.79769e+307
21            -1.79769e+307
22            -1.79769e+307
23            -1.79769e+307
24            -1.79769e+307
25            -1.79769e+307
26            -1.79769e+307
27            -1.79769e+307
28            -1.79769e+307
29            -1.79769e+307
30            -1.79769e+307
31            -1.79769e+307
32            -1.79769e+307
33            -1.79769e+307
34            -1.79769e+307
35            -1.79769e+307
36            -1.79769e+307
37            -1.79769e+307
38            -1.79769e+307
39            -1.79769e+307
40            -1.79769e+307
41            -1.79769e+307
42            -1.79769e+307
43            -1.79769e+307
44            -1.79769e+307
45            -1.79769e+307
46            -1.79769e+307
47            -1.79769e+307
48            -1.79769e+307
49            -1.79769e+307
50            -1.79769e+307
51            -1.79769e+307
52            -1.79769e+307
53            -1.79769e+307
54            -1.79769e+307
55            -1.79769e+307
56            -1.79769e+307
57            -1.79769e+307
58            -1.79769e+307
59            -1.79769e+307
60            -1.79769e+307
61            -1.79769e+307
62            -1.79769e+307
63            -1.79769e+307
64            -1.79769e+307
65            -1.79769e+307
66            -1.79769e+307
67            -1.79769e+307
68            -1.79769e+307
69            -1.79769e+307
70            -1.79769e+307
71            -1.79769e+307
72            -1.79769e+307
73            -1.79769e+307
74            -1.79769e+307
75            -1.79769e+307
76            -1.79769e+307
77            -1.79769e+307
78            -1.79769e+307
79            -1.79769e+307
80            -1.79769e+307
81            -1.79769e+307
82            -1.79769e+307
83            -1.79769e+307
84            -1.79769e+307
85            -1.79769e+307
86            -1.79769e+307
87            -1.79769e+307
88            -1.79769e+307
89            -1.79769e+307
90            -1.79769e+307
91            -1.79769e+307
92            -1.79769e+307
93            -1.79769e+307
94            -1.79769e+307
95            -1.79769e+307
96            -1.79769e+307
97            -1.79769e+307
98            -1.79769e+307
99            -1.79769e+307
100           -1.79769e+307
101           -1.79769e+307
102           -1.79769e+307
103           -1.79769e+307
104           -1.79769e+307
105           -1.79769e+307
106           -1.79769e+307
107           -1.79769e+307
108           -1.79769e+307
109           -1.79769e+307
110           -1.79769e+307
111           -1.79769e+307
112           -1.79769e+307
113           -1.79769e+307
114           -1.79769e+307
115           -1.79769e+307
116           -1.79769e+307
117           -1.79769e+307
118           -1.79769e+307
119           -1.79769e+307
120           -1.79769e+307
121           -1.79769e+307
122           -1.79769e+307
123           -1.79769e+307
124           -1.79769e+307
125           -1.79769e+307
126           -1.79769e+307
127           -1.79769e+307
128           -1.79769e+307
129           -1.79769e+307
130           -1.79769e+307
131           -1.79769e+307
132           -1.79769e+307
133           -1.79769e+307
134           -1.79769e+307
135           -1.79769e+307
136           -1.79769e+307
137           -1.79769e+307
138           -1.79769e+307
139           -1.79769e+307
140           -1.79769e+307
141           -1.79769e+307
142           -1.79769e+307
143           -1.79769e+307
144           -1.79769e+307
145           -1.79769e+307
146           -1.79769e+307
147           -1.79769e+307
148           -1.79769e+307
149           -1.79769e+307
150           -1.79769e+307
151           -1.79769e+307
152           -1.79769e+307
153           -1.79769e+307
154           -1.79769e+307
155           -1.79769e+307
156           -1.79769e+307
157           -1.79769e+307
158           -1.79769e+307
159           -1.79769e+307
160           -1.79769e+307
161           -1.79769e+307
162           -1.79769e+307
163           -1.79769e+307
164           -1.79769e+307
165           -1.79769e+307
166           -1.79769e+307
167           -1.79769e+307
168           -1.79769e+307
169           -1.79769e+307
170           -1.79769e+307
171           -1.79769e+307
172           -1.79769e+307
173           -1.79769e+307
174           -1.79769e+307
175           -1.79769e+307
176           -1.79769e+307
177           -1.79769e+307
178           -1.79769e+307
179           -1.79769e+307
180           -1.79769e+307
181           -1.79769e+307
182           -1.79769e+307
183           -1.79769e+307
184           -1.79769e+307
185           -1.79769e+307
186           -1.79769e+307
187           -1.79769e+307
188           -1.79769e+307
189           -1.79769e+307
190           -1.79769e+307
191           -1.79769e+307
192           -1.79769e+307
193           -1.79769e+307
194           -1.79769e+307
195           -1.79769e+307
196           -1.79769e+307
197           -1.79769e+307
198           -1.79769e+307
199           -1.79769e+307
200           -1.79769e+307
201           -1.79769e+307
202           -1.79769e+307
203           -1.79769e+307
204           -1.79769e+307
205           -1.79769e+307
206           -1.79769e+307
207           -1.79769e+307
208           -1.79769e+307
209           -1.79769e+307
210           -1.79769e+307
211           -1.79769e+307
212           -1.79769e+307
213           -1.79769e+307
214           -1.79769e+307
215           -1.79769e+307
216           -1.79769e+307
217           -1.79769e+307
218           -1.79769e+307
219           -1.79769e+307
220           -1.79769e+307
221           -1.79769e+307
222           -1.79769e+307
223           -1.79769e+307
224           -1.79769e+307
225           -1.79769e+307
226           -1.79769e+307
227           -1.79769e+307
228           -1.79769e+307
229           -1.79769e+307
230           -1.79769e+307
231           -1.79769e+307
232           -1.79769e+307
233           -1.79769e+307
234           -1.79769e+307
235           -1.79769e+307
236           -1.79769e+307
237           -1.79769e+307
238           -1.79769e+307
239           -1.79769e+307
240           -1.79769e+307
241           -1.79769e+307
242           -1.79769e+307
243           -1.79769e+307
244           -1.79769e+307
245           -1.79769e+307
246           -1.79769e+307
247           -1.79769e+307
248           -1.79769e+307
249           -1.79769e+307
250           -1.79769e+307
251           -1.79769e+307
252           -1.79769e+307
253           -1.79769e+307
254           -1.79769e+307
255           -1.79769e+307
256           -1.79769e+307
257           -1.79769e+307
258           -1.79769e+307
259           -1.79769e+307
260           -1.79769e+307
261           -1.79769e+307
262           -1.79769e+307
263           -1.79769e+307
264           -1.79769e+307
265           -1.79769e+307
266           -1.79769e+307
267           -1.79769e+307
268           -1.79769e+307
269           -1.79769e+307
270           -1.79769e+307
271           -1.79769e+307
272           -1.79769e+307
273           -1.79769e+307
274           -1.79769e+307
275           -1.79769e+307
276           -1.79769e+307
277           -1.79769e+307
278           -1.79769e+307
279           -1.79769e+307
280           -1.79769e+307
281           -1.79769e+307
282           -1.79769e+307
283           -1.79769e+307
284           -1.79769e+307
285           -1.79769e+307
286           -1.79769e+307
287           -1.79769e+307
288           -1.79769e+307
289           -1.79769e+307
290           -1.79769e+307
291           -1.79769e+307
292           -1.79769e+307
293           -1.79769e+307
294           -1.79769e+307
295           -1.79769e+307
296           -1.79769e+307
297           -1.79769e+307
298           -1.79769e+307
299           -1.79769e+307
300           -1.79769e+307
301           -1.79769e+307
302           -1.79769e+307
303           -1.79769e+307
304           -1.79769e+307
305           -1.79769e+307
306           -1.79769e+307
307           -1.79769e+307
308           -1.79769e+307
309           -1.79769e+307
310           -1.79769e+307
311           -1.79769e+307
312           -1.79769e+307
313           -1.79769e+307
314           -1.79769e+307
315           -1.79769e+307
316           -1.79769e+307
317           -1.79769e+307
318           -1.79769e+307
319           -1.79769e+307
320           -1.79769e+307
321           -1.79769e+307
322           -1.79769e+307
323           -1.79769e+307
324           -1.79769e+307
325           -1.79769e+307
326           -1.79769e+307
327           -1.79769e+307
328           -1.79769e+307
329           -1.79769e+307
330           -1.79769e+307
331           -1.79769e+307
332           -1.79769e+307
333           -1.79769e+307
334           -1.79769e+307
335           -1.79769e+307
336           -1.79769e+307
337           -1.79769e+307
338           -1.79769e+307
339           -1.79769e+307
340           -1.79769e+307
341           -1.79769e+307
342           -1.79769e+307
343           -1.79769e+307
344           -1.79769e+307
345           -1.79769e+307
346           -1.79769e+307
347           -1.79769e+307
348           -1.79769e+307
349           -1.79769e+307
350           -1.79769e+307
351           -1.79769e+307
352           -1.79769e+307
353           -1.79769e+307
354           -1.79769e+307
355           -1.79769e+307
356           -1.79769e+307
357           -1.79769e+307
358           -1.79769e+307
359           -1.79769e+307
360           -1.79769e+307
361           -1.79769e+307
362           -1.79769e+307
363           -1.79769e+307
364           -1.79769e+307
365           -1.79769e+307
366           -1.79769e+307
367           -1.79769e+307
368           -1.79769e+307
369           -1.79769e+307
370           -1.79769e+307
371           -1.79769e+307
372           -1.79769e+307
373           -1.79769e+307
374           -1.79769e+307
375           -1.79769e+307
376           -1.79769e+307
377           -1.79769e+307
378           -1.79769e+307
379           -1.79769e+307
380           -1.79769e+307
381           -1.79769e+307
382           -1.79769e+307
383           -1.79769e+307
384           -1.79769e+307
385           -1.79769e+307
386           -1.79769e+307
387           -1.79769e+307
388           -1.79769e+307
389           -1.79769e+307
390           -1.79769e+307
391           -1.79769e+307
392           -1.79769e+307
393           -1.79769e+307
394           -1.79769e+307
395           -1.79769e+307
396           -1.79769e+307
397           -1.79769e+307
398           -1.79769e+307
399           -1.79769e+307
400           -1.79769e+307
401           -1.79769e+307
402           -1.79769e+307
403           -1.79769e+307
404           -1.79769e+307
405           -1.79769e+307
406           -1.79769e+307
407           -1.79769e+307
408           -1.79769e+307
409           -1.79769e+307
410           -1.79769e+307
411           -1.79769e+307
412           -1.79769e+307
413           -1.79769e+307
414           -1.79769e+307
415           -1.79769e+307
416           -1.79769e+307
417           -1.79769e+307
418           -1.79769e+307
419           -1.79769e+307
420           -1.79769e+307
421           -1.79769e+307
422           -1.79769e+307
423           -1.79769e+307
424           -1.79769e+307
425           -1.79769e+307
426           -1.79769e+307
427           -1.79769e+307
428           -1.79769e+307
429           -1.79769e+307
430           -1.79769e+307
431           -1.79769e+307
432           -1.79769e+307
433           -1.79769e+307
434           -1.79769e+307
435           -1.79769e+307
436           -1.79769e+307
437           -1.79769e+307
438           -1.79769e+307
439           -1.79769e+307
440           -1.79769e+307
441           -1.79769e+307
442           -1.79769e+307
443           -1.79769e+307
444           -1.79769e+307
445           -1.79769e+307
446           -1.79769e+307
447           -1.79769e+307
448           -1.79769e+307
449           -1.79769e+307
450           -1.79769e+307
451           -1.79769e+307
452           -1.79769e+307
453           -1.79769e+307
454           -1.79769e+307
455           -1.79769e+307
456           -1.79769e+307
457           -1.79769e+307
458           -1.79769e+307
459           -1.79769e+307
460           -1.79769e+307
461           -1.79769e+307
462           -1.79769e+307
463           -1.79769e+307
464           -1.79769e+307
465           -1.79769e+307
466           -1.79769e+307
467           -1.79769e+307
468           -1.79769e+307
469           -1.79769e+307
470           -1.79769e+307
471           -1.79769e+307
472           -1.79769e+307
473           -1.79769e+307
474           -1.79769e+307
475           -1.79769e+307
476           -1.79769e+307
477           -1.79769e+307
478           -1.79769e+307
479           -1.79769e+307
480           -1.79769e+307
481           -1.79769e+307
482           -1.79769e+307
483           -1.79769e+307
484           -1.79769e+307
485           -1.79769e+307
486           -1.79769e+307
487           -1.79769e+307
488           -1.79769e+307
489           -1.79769e+307
490           -1.79769e+307
491           -1.79769e+307
492           -1.79769e+307
493           -1.79769e+307
494           -1.79769e+307
495           -1.79769e+307
496           -1.79769e+307
497           -1.79769e+307
498           -1.79769e+307
499           -1.79769e+307
500           -1.79769e+307
501           -1.79769e+307
502           -1.79769e+307
503           -1.79769e+307
504           -1.79769e+307
505           -1.79769e+307
506           -1.79769e+307
507           -1.79769e+307
508           -1.79769e+307
509           -1.79769e+307
510           -1.79769e+307
511           -1.79769e+307
512           -1.79769e+307
513           -1.79769e+307
514           -1.79769e+307
515           -1.79769e+307
516           -1.79769e+307
517           -1.79769e+307
518           -1.79769e+307
519           -1.79769e+307
520           -1.79769e+307
521           -1.79769e+307
522           -1.79769e+307
523           -1.79769e+307
524           -1.79769e+307
525           -1.79769e+307
526           -1.79769e+307
527           -1.79769e+307
528           -1.79769e+307
529           -1.79769e+307
530           -1.79769e+307
531           -1.79769e+307
532           -1.79769e+307
533           -1.79769e+307
534           -1.79769e+307
535           -1.79769e+307
536           -1.79769e+307
537           -1.79769e+307
538           -1.79769e+307
539           -1.79769e+307
540           -1.79769e+307
541           -1.79769e+307
542           -1.79769e+307
543           -1.79769e+307
544           -1.79769e+307
545           -1.79769e+307
546           -1.79769e+307
547           -1.79769e+307
548           -1.79769e+307
549           -1.79769e+307
550           -1.79769e+307
551           -1.79769e+307
552           -1.79769e+307
553           -1.79769e+307
554           -1.79769e+307
555           -1.79769e+307
556           -1.79769e+307
557           -1.79769e+307
558           -1.79769e+307
559           -1.79769e+307
560           -1.79769e+307
561           -1.79769e+307
562           -1.79769e+307
563           -1.79769e+307
564           -1.79769e+307
565           -1.79769e+307
566           -1.79769e+307
567           -1.79769e+307
568           -1.79769e+307
569           -1.79769e+307
570           -1.79769e+307
571           -1.79769e+307
572           -1.79769e+307
573           -1.79769e+307
574           -1.79769e+307
575           -1.79769e+307
576           -1.79769e+307
577           -1.79769e+307
578           -1.79769e+307
579           -1.79769e+307
580           -1.79769e+307
581           -1.79769e+307
582           -1.79769e+307
583           -1.79769e+307
584           -1.79769e+307
585           -1.79769e+307
586           -1.79769e+307
587           -1.79769e+307
588           -1.79769e+307
589           -1.79769e+307
590           -1.79769e+307
591           -1.79769e+307
592           -1.79769e+307
593           -1.79769e+307
594           -1.79769e+307
595           -1.79769e+307
596           -1.79769e+307
597           -1.79769e+307
598           -1.79769e+307
599           -1.79769e+307
600           -1.79769e+307
601           -1.79769e+307
602           -1.79769e+307
603           -1.79769e+307
604           -1.79769e+307
605           -1.79769e+307
606           -1.79769e+307
607           -1.79769e+307
608           -1.79769e+307
609           -1.79769e+307
610           -1.79769e+307
611           -1.79769e+307
612           -1.79769e+307
613           -1.79769e+307
614           -1.79769e+307
615           -1.79769e+307
616           -1.79769e+307
617           -1.79769e+307
618           -1.79769e+307
619           -1.79769e+307
620           -1.79769e+307
621           -1.79769e+307
622           -1.79769e+307
623           -1.79769e+307
624           -1.79769e+307
625           -1.79769e+307
626           -1.79769e+307
627           -1.79769e+307
628           -1.79769e+307
629           -1.79769e+307
630           -1.79769e+307
631           -1.79769e+307
632           -1.79769e+307
633           -1.79769e+307
634           -1.79769e+307
635           -1.79769e+307
636           -1.79769e+307
637           -1.79769e+307
638           -1.79769e+307
639           -1.79769e+307
640           -1.79769e+307
641           -1.79769e+307
642           -1.79769e+307
643           -1.79769e+307
644           -1.79769e+307
645           -1.79769e+307
646           -1.79769e+307
647           -1.79769e+307
648           -1.79769e+307
649           -1.79769e+307
650           -1.79769e+307
651           -1.79769e+307
652           -1.79769e+307
653           -1.79769e+307
654           -1.79769e+307
655           -1.79769e+307
656           -1.79769e+307
657           -1.79769e+307
658           -1.79769e+307
659           -1.79769e+307
660           -1.79769e+307
661           -1.79769e+307
662           -1.79769e+307
663           -1.79769e+307
664           -1.79769e+307
665           -1.79769e+307
666           -1.79769e+307
667           -1.79769e+307
668           -1.79769e+307
669           -1.79769e+307
670           -1.79769e+307
671           -1.79769e+307
672           -1.79769e+307
673           -1.79769e+307
674           -1.79769e+307
675           -1.79769e+307
676           -1.79769e+307
677           -1.79769e+307
678           -1.79769e+307
679           -1.79769e+307
680           -1.79769e+307
681           -1.79769e+307
682           -1.79769e+307
683           -1.79769e+307
684           -1.79769e+307
685           -1.79769e+307
686           -1.79769e+307
687           -1.79769e+307
688           -1.79769e+307
689           -1.79769e+307
690           -1.79769e+307
691           -1.79769e+307
692           -1.79769e+307
693           -1.79769e+307
694           -1.79769e+307
695           -1.79769e+307
696           -1.79769e+307
697           -1.79769e+307
698           -1.79769e+307
699           -1.79769e+307
700           -1.79769e+307
701           -1.79769e+307
702           -1.79769e+307
703           -1.79769e+307
704           -1.79769e+307
705           -1.79769e+307
706           -1.79769e+307
707           -1.79769e+307
708           -1.79769e+307
709           -1.79769e+307
710           -1.79769e+307
711           -1.79769e+307
712           -1.79769e+307
713           -1.79769e+307
714           -1.79769e+307
715           -1.79769e+307
716           -1.79769e+307
717           -1.79769e+307
718           -1.79769e+307
719           -1.79769e+307
720           -1.79769e+307
721           -1.79769e+307
722           -1.79769e+307
723           -1.79769e+307
724           -1.79769e+307
725           -1.79769e+307
726           -1.79769e+307
727           -1.79769e+307
728           -1.79769e+307
729           -1.79769e+307
730           -1.79769e+307
731           -1.79769e+307
732           -1.79769e+307
733           -1.79769e+307
734           -1.79769e+307
735           -1.79769e+307
736           -1.79769e+307
737           -1.79769e+307
738           -1.79769e+307
739           -1.79769e+307
740           -1.79769e+307
741           -1.79769e+307
742           -1.79769e+307
743           -1.79769e+307
744           -1.79769e+307
745           -1.79769e+307
746           -1.79769e+307
747           -1.79769e+307
748           -1.79769e+307
749           -1.79769e+307
750           -1.79769e+307
751           -1.79769e+307
752           -1.79769e+307
753           -1.79769e+307
754           -1.79769e+307
755           -1.79769e+307
756           -1.79769e+307
757           -1.79769e+307
758           -1.79769e+307
759           -1.79769e+307
760           -1.79769e+307
761           -1.79769e+307
762           -1.79769e+307
763           -1.79769e+307
764           -1.79769e+307
765           -1.79769e+307
766           -1.79769e+307
767           -1.79769e+307
768           -1.79769e+307
769           -1.79769e+307
770           -1.79769e+307
771           -1.79769e+307
772           -1.79769e+307
773           -1.79769e+307
774           -1.79769e+307
775           -1.79769e+307
776           -1.79769e+307
777           -1.79769e+307
778           -1.79769e+307
779           -1.79769e+307
780           -1.79769e+307
781           -1.79769e+307
782           -1.79769e+307
783           -1.79769e+307
784           -1.79769e+307
785           -1.79769e+307
786           -1.79769e+307
787           -1.79769e+307
788           -1.79769e+307
789           -1.79769e+307
790           -1.79769e+307
791           -1.79769e+307
792           -1.79769e+307
793           -1.79769e+307
794           -1.79769e+307
795           -1.79769e+307
796           -1.79769e+307
797           -1.79769e+307
798           -1.79769e+307
799           -1.79769e+307
800           -1.79769e+307
801           -1.79769e+307
802           -1.79769e+307
803           -1.79769e+307
804           -1.79769e+307
805           -1.79769e+307
806           -1.79769e+307
807           -1.79769e+307
808           -1.79769e+307
809           -1.79769e+307
810           -1.79769e+307
811           -1.79769e+307
812           -1.79769e+307
813           -1.79769e+307
814           -1.79769e+307
815           -1.79769e+307
816           -1.79769e+307
817           -1.79769e+307
818           -1.79769e+307
819           -1.79769e+307
820           -1.79769e+307
821           -1.79769e+307
822           -1.79769e+307
823           -1.79769e+307
824           -1.79769e+307
825           -1.79769e+307
826           -1.79769e+307
827           -1.79769e+307
828           -1.79769e+307
829           -1.79769e+307
830           -1.79769e+307
831           -1.79769e+307
832           -1.79769e+307
833           -1.79769e+307
834           -1.79769e+307
835           -1.79769e+307
836           -1.79769e+307
837           -1.79769e+307
838           -1.79769e+307
839           -1.79769e+307
840           -1.79769e+307
841           -1.79769e+307
842           -1.79769e+307
843           -1.79769e+307
844           -1.79769e+307
845           -1.79769e+307
846           -1.79769e+307
847           -1.79769e+307
848           -1.79769e+307
849           -1.79769e+307
850           -1.79769e+307
851           -1.79769e+307
852           -1.79769e+307
853           -1.79769e+307
854           -1.79769e+307
855           -1.79769e+307
856           -1.79769e+307
857           -1.79769e+307
858           -1.79769e+307
859           -1.79769e+307
860           -1.79769e+307
861           -1.79769e+307
862           -1.79769e+307
863           -1.79769e+307
864           -1.79769e+307
865           -1.79769e+307
866           -1.79769e+307
867           -1.79769e+307
868           -1.79769e+307
869           -1.79769e+307
870           -1.79769e+307
871           -1.79769e+307
872           -1.79769e+307
873           -1.79769e+307
874           -1.79769e+307
875           -1.79769e+307
876           -1.79769e+307
877           -1.79769e+307
878           -1.79769e+307
879           -1.79769e+307
880           -1.79769e+307
881           -1.79769e+307
882           -1.79769e+307
883           -1.79769e+307
884           -1.79769e+307
885           -1.79769e+307
886           -1.79769e+307
887           -1.79769e+307
888           -1.79769e+307
889           -1.79769e+307
890           -1.79769e+307
891           -1.79769e+307
892           -1.79769e+307
893           -1.79769e+307
894           -1.79769e+307
895           -1.79769e+307
896           -1.79769e+307
897           -1.79769e+307
898           -1.79769e+307
899           -1.79769e+307
900           -1.79769e+307
901           -1.79769e+307
902           -1.79769e+307
903           -1.79769e+307
904           -1.79769e+307
905           -1.79769e+307
906           -1.79769e+307
907           -1.79769e+307
908           -1.79769e+307
909           -1.79769e+307
910           -1.79769e+307
911           -1.79769e+307
912           -1.79769e+307
913           -1.79769e+307
914           -1.79769e+307
915           -1.79769e+307
916           -1.79769e+307
917           -1.79769e+307
918           -1.79769e+307
919           -1.79769e+307
920           -1.79769e+307
921           -1.79769e+307
922           -1.79769e+307
923           -1.79769e+307
924           -1.79769e+307
925           -1.79769e+307
926           -1.79769e+307
927           -1.79769e+307
928           -1.79769e+307
929           -1.79769e+307
930           -1.79769e+307
931           -1.79769e+307
932           -1.79769e+307
933           -1.79769e+307
934           -1.79769e+307
935           -1.79769e+307
936           -1.79769e+307
937           -1.79769e+307
938           -1.79769e+307
939           -1.79769e+307
940           -1.79769e+307
941           -1.79769e+307
942           -1.79769e+307
943           -1.79769e+307
944           -1.79769e+307
945           -1.79769e+307
946           -1.79769e+307
947           -1.79769e+307
948           -1.79769e+307
949           -1.79769e+307
950           -1.79769e+307
951           -1.79769e+307
952           -1.79769e+307
953           -1.79769e+307
954           -1.79769e+307
955           -1.79769e+307
956           -1.79769e+307
957           -1.79769e+307
958           -1.79769e+307
959           -1.79769e+307
960           -1.79769e+307
961           -1.79769e+307
962           -1.79769e+307
963           -1.79769e+307
964           -1.79769e+307
965           -1.79769e+307
966           -1.79769e+307
967           -1.79769e+307
968           -1.79769e+307
969           -1.79769e+307
970           -1.79769e+307
971           -1.79769e+307
972           -1.79769e+307
973           -1.79769e+307
974           -1.79769e+307
975           -1.79769e+307
976           -1.79769e+307
977           -1.79769e+307
978           -1.79769e+307
979           -1.79769e+307
980           -1.79769e+307
981           -1.79769e+307
982           -1.79769e+307
983           -1.79769e+307
984           -1.79769e+307
985           -1.79769e+307
986           -1.79769e+307
987           -1.79769e+307
988           -1.79769e+307
989           -1.79769e+307
990           -1.79769e+307
991           -1.79769e+307
992           -1.79769e+307
993           -1.79769e+307
994           -1.79769e+307
995           -1.79769e+307
996           -1.79769e+307
997           -1.79769e+307
998           -1.79769e+307
999           -1.79769e+307
1000          -1.79769e+307
1001          -1.79769e+307
1002          -1.79769e+307
1003          -1.79769e+307
1004          -1.79769e+307
1005          -1.79769e+307
1006          -1.79769e+307
1007          -1.79769e+307
1008          -1.79769e+307
1009          -1.79769e+307
1010          -1.79769e+307
1011          -1.79769e+307
1012          -1.79769e+307
1013          -1.79769e+307
1014          -1.79769e+307
1015          -1.79769e+307
1016          -1.79769e+307
1017          -1.79769e+307
1018          -1.79769e+307
1019          -1.79769e+307
1020          -1.79769e+307
1021          -1.79769e+307
1022          -1.79769e+307
1023          -1.79769e+307
1024          -1.79769e+307
1025          -1.79769e+307
1026          -1.79769e+307
1027          -1.79769e+307
1028          -1.79769e+307
1029          -1.79769e+307
1030          -1.79769e+307
1031          -1.79769e+307
1032          -1.79769e+307
1033          -1.79769e+307
1034          -1.79769e+307
1035          -1.79769e+307
1036          -1.79769e+307
1037          -1.79769e+307
1038          -1.79769e+307
1039          -1.79769e+307
1040          -1.79769e+307
1041          -1.79769e+307
1042          -1.79769e+307
1043          -1.79769e+307
1044          -1.79769e+307
1045          -1.79769e+307
1046          -1.79769e+307
1047          -1.79769e+307
1048          -1.79769e+307
1049          -1.79769e+307
1050          -1.79769e+307
1051          -1.79769e+307
1052          -1.79769e+307
1053          -1.79769e+307
1054          -1.79769e+307
1055          -1.79769e+307
1056          -1.79769e+307
1057          -1.79769e+307
1058          -1.79769e+307
1059          -1.79769e+307
1060          -1.79769e+307
1061          -1.79769e+307
1062          -1.79769e+307
1063          -1.79769e+307
1064          -1.79769e+307
1065          -1.79769e+307
1066          -1.79769e+307
1067          -1.79769e+307
1068          -1.79769e+307