/*--------------------------------*- C++ -*----------------------------------*\
  =========                 |
  \\      /  F ield         | OpenFOAM: The Open Source CFD Toolbox
   \\    /   O peration     | Website:  https://openfoam.org
    \\  /    A nd           | Version:  10
     \\/     M anipulation  |
\*---------------------------------------------------------------------------*/
FoamFile
{
    format      ascii;
    class       volScalarField;
    location    "33000";
    object      nut;
}
// * * * * * * * * * * * * * * * * * * * * * * * * * * * * * * * * * * * * * //

dimensions      [0 2 -1 0 0 0 0];

internalField   nonuniform List<scalar> 
17808
(
3.1565e-06
2.36861e-05
4.12789e-05
5.83138e-05
7.6258e-05
9.48138e-05
0.000113851
0.000133303
0.000153132
0.000173318
0.000193845
0.000214707
0.000235898
0.000257416
0.000279258
0.000301426
0.000323921
0.000346744
0.000369897
0.000393382
0.000417204
0.000441366
0.00046587
0.000490721
0.000515923
0.00054148
0.000567397
0.000593677
0.000620326
0.000647348
0.000674747
0.00070253
0.0007307
0.000759263
0.000788224
0.000817587
0.000847359
0.000877544
0.000908147
0.000939174
0.000970631
0.00100252
0.00103485
0.00106763
0.00110085
0.00113454
0.00116868
0.00120329
0.00123836
0.00127392
0.00130996
0.00134648
0.00138349
0.001421
0.001459
0.00149751
0.00153653
0.00157606
0.0016161
0.00165666
0.00169774
0.00173935
0.00178148
0.00182414
0.00186733
0.00191105
0.00195529
0.00200006
0.00204536
0.00209118
0.00213753
0.0021844
0.00223178
0.00227968
0.00232808
0.00237699
0.00242638
0.00247626
0.00252661
0.00257742
0.00262869
0.00268038
0.00273249
0.00278501
0.0028379
0.00289114
0.00294473
0.00299861
0.00305278
0.00310719
0.00316181
0.0032166
3.14806e-06
2.39616e-05
4.12595e-05
5.82957e-05
7.62363e-05
9.47889e-05
0.000113823
0.000133272
0.0001531
0.000173283
0.00019381
0.000214671
0.000235861
0.000257378
0.000279221
0.000301389
0.000323884
0.000346707
0.000369861
0.000393347
0.00041717
0.000441332
0.000465837
0.000490689
0.000515892
0.00054145
0.000567368
0.000593649
0.000620298
0.000647321
0.000674722
0.000702505
0.000730676
0.00075924
0.000788201
0.000817566
0.000847338
0.000877524
0.000908128
0.000939156
0.000970614
0.00100251
0.00103484
0.00106761
0.00110084
0.00113452
0.00116867
0.00120327
0.00123835
0.00127391
0.00130995
0.00134647
0.00138348
0.00142099
0.001459
0.00149751
0.00153652
0.00157605
0.0016161
0.00165666
0.00169774
0.00173935
0.00178148
0.00182414
0.00186733
0.00191105
0.0019553
0.00200007
0.00204537
0.00209119
0.00213754
0.00218441
0.00223179
0.00227969
0.0023281
0.002377
0.0024264
0.00247628
0.00252663
0.00257744
0.00262871
0.0026804
0.00273252
0.00278503
0.00283792
0.00289117
0.00294475
0.00299864
0.00305281
0.00310722
0.00316184
0.00321664
3.14427e-06
2.40219e-05
4.12359e-05
5.82725e-05
7.62112e-05
9.47627e-05
0.000113796
0.000133245
0.000153071
0.000173254
0.00019378
0.000214641
0.000235831
0.000257349
0.000279191
0.00030136
0.000323855
0.000346679
0.000369833
0.00039332
0.000417143
0.000441306
0.000465811
0.000490664
0.000515868
0.000541426
0.000567344
0.000593626
0.000620277
0.0006473
0.000674701
0.000702485
0.000730657
0.000759222
0.000788184
0.000817549
0.000847322
0.000877509
0.000908114
0.000939143
0.000970601
0.00100249
0.00103483
0.0010676
0.00110083
0.00113451
0.00116866
0.00120327
0.00123835
0.0012739
0.00130994
0.00134646
0.00138348
0.00142099
0.00145899
0.00149751
0.00153652
0.00157605
0.0016161
0.00165666
0.00169775
0.00173935
0.00178149
0.00182415
0.00186734
0.00191106
0.0019553
0.00200008
0.00204538
0.0020912
0.00213755
0.00218442
0.00223181
0.00227971
0.00232811
0.00237702
0.00242642
0.0024763
0.00252665
0.00257747
0.00262873
0.00268043
0.00273255
0.00278506
0.00283795
0.00289121
0.00294479
0.00299868
0.00305285
0.00310726
0.00316188
0.00321668
3.14396e-06
2.40029e-05
4.12195e-05
5.82528e-05
7.61894e-05
9.47398e-05
0.000113772
0.00013322
0.000153046
0.000173229
0.000193755
0.000214615
0.000235805
0.000257323
0.000279166
0.000301334
0.00032383
0.000346654
0.000369808
0.000393296
0.00041712
0.000441283
0.000465789
0.000490643
0.000515847
0.000541406
0.000567325
0.000593607
0.000620258
0.000647282
0.000674684
0.000702469
0.000730641
0.000759206
0.000788169
0.000817535
0.000847309
0.000877496
0.000908101
0.000939131
0.00097059
0.00100248
0.00103482
0.00106759
0.00110082
0.00113451
0.00116865
0.00120326
0.00123834
0.0012739
0.00130994
0.00134646
0.00138348
0.00142099
0.00145899
0.00149751
0.00153653
0.00157606
0.0016161
0.00165667
0.00169775
0.00173936
0.00178149
0.00182415
0.00186735
0.00191107
0.00195531
0.00200009
0.00204539
0.00209122
0.00213757
0.00218444
0.00223183
0.00227973
0.00232813
0.00237704
0.00242644
0.00247632
0.00252668
0.00257749
0.00262876
0.00268046
0.00273257
0.00278509
0.00283798
0.00289124
0.00294482
0.00299871
0.00305288
0.00310729
0.00316192
0.00321672
3.144e-06
2.39946e-05
4.12102e-05
5.82393e-05
7.61746e-05
9.4724e-05
0.000113755
0.000133202
0.000153028
0.000173209
0.000193734
0.000214594
0.000235784
0.000257301
0.000279144
0.000301313
0.000323809
0.000346633
0.000369788
0.000393276
0.0004171
0.000441264
0.00046577
0.000490624
0.000515829
0.000541389
0.000567308
0.000593591
0.000620242
0.000647267
0.000674669
0.000702455
0.000730628
0.000759193
0.000788157
0.000817523
0.000847297
0.000877485
0.000908091
0.000939121
0.000970581
0.00100247
0.00103481
0.00106759
0.00110082
0.0011345
0.00116864
0.00120326
0.00123834
0.0012739
0.00130993
0.00134646
0.00138347
0.00142098
0.00145899
0.00149751
0.00153653
0.00157606
0.00161611
0.00165667
0.00169775
0.00173936
0.0017815
0.00182416
0.00186735
0.00191107
0.00195532
0.0020001
0.0020454
0.00209123
0.00213758
0.00218445
0.00223184
0.00227974
0.00232815
0.00237706
0.00242646
0.00247634
0.0025267
0.00257752
0.00262878
0.00268048
0.0027326
0.00278512
0.00283801
0.00289127
0.00294485
0.00299875
0.00305292
0.00310733
0.00316196
0.00321675
3.14396e-06
2.39914e-05
4.12041e-05
5.8229e-05
7.61631e-05
9.47117e-05
0.000113742
0.000133189
0.000153013
0.000173194
0.000193718
0.000214578
0.000235767
0.000257283
0.000279126
0.000301295
0.000323791
0.000346615
0.00036977
0.000393258
0.000417082
0.000441247
0.000465754
0.000490608
0.000515813
0.000541374
0.000567293
0.000593577
0.000620229
0.000647254
0.000674657
0.000702443
0.000730616
0.000759182
0.000788146
0.000817513
0.000847288
0.000877476
0.000908083
0.000939114
0.000970573
0.00100247
0.0010348
0.00106758
0.00110081
0.0011345
0.00116864
0.00120325
0.00123834
0.00127389
0.00130993
0.00134646
0.00138347
0.00142099
0.001459
0.00149751
0.00153653
0.00157606
0.00161611
0.00165667
0.00169776
0.00173937
0.00178151
0.00182417
0.00186736
0.00191108
0.00195533
0.00200011
0.00204541
0.00209124
0.00213759
0.00218447
0.00223186
0.00227976
0.00232817
0.00237708
0.00242648
0.00247636
0.00252672
0.00257754
0.00262881
0.00268051
0.00273263
0.00278515
0.00283804
0.0028913
0.00294489
0.00299878
0.00305295
0.00310737
0.00316199
0.00321679
3.14412e-06
2.39873e-05
4.12e-05
5.82206e-05
7.61533e-05
9.47009e-05
0.000113731
0.000133177
0.000153001
0.000173181
0.000193705
0.000214563
0.000235752
0.000257268
0.00027911
0.000301279
0.000323775
0.000346599
0.000369754
0.000393242
0.000417067
0.000441232
0.000465739
0.000490594
0.000515799
0.00054136
0.00056728
0.000593564
0.000620217
0.000647242
0.000674646
0.000702432
0.000730606
0.000759173
0.000788137
0.000817504
0.00084728
0.000877469
0.000908076
0.000939107
0.000970568
0.00100246
0.0010348
0.00106758
0.00110081
0.00113449
0.00116864
0.00120325
0.00123833
0.00127389
0.00130993
0.00134646
0.00138348
0.00142099
0.001459
0.00149751
0.00153653
0.00157607
0.00161611
0.00165668
0.00169777
0.00173938
0.00178151
0.00182418
0.00186737
0.00191109
0.00195534
0.00200012
0.00204542
0.00209125
0.00213761
0.00218448
0.00223187
0.00227978
0.00232819
0.0023771
0.0024265
0.00247638
0.00252674
0.00257756
0.00262883
0.00268054
0.00273266
0.00278517
0.00283807
0.00289133
0.00294492
0.00299881
0.00305298
0.0031074
0.00316203
0.00321683
3.14448e-06
2.39841e-05
4.11974e-05
5.82141e-05
7.6145e-05
9.46915e-05
0.000113721
0.000133166
0.00015299
0.00017317
0.000193693
0.000214551
0.000235739
0.000257255
0.000279097
0.000301265
0.00032376
0.000346585
0.00036974
0.000393228
0.000417053
0.000441218
0.000465726
0.000490581
0.000515787
0.000541348
0.000567269
0.000593553
0.000620206
0.000647232
0.000674636
0.000702423
0.000730597
0.000759164
0.000788129
0.000817497
0.000847273
0.000877462
0.00090807
0.000939102
0.000970563
0.00100246
0.00103479
0.00106757
0.0011008
0.00113449
0.00116864
0.00120325
0.00123833
0.00127389
0.00130993
0.00134646
0.00138348
0.00142099
0.001459
0.00149751
0.00153654
0.00157607
0.00161612
0.00165669
0.00169777
0.00173938
0.00178152
0.00182419
0.00186738
0.0019111
0.00195535
0.00200013
0.00204544
0.00209127
0.00213762
0.0021845
0.00223189
0.00227979
0.0023282
0.00237712
0.00242652
0.00247641
0.00252677
0.00257759
0.00262886
0.00268056
0.00273268
0.0027852
0.0028381
0.00289136
0.00294495
0.00299884
0.00305302
0.00310743
0.00316206
0.00321687
3.14488e-06
2.39823e-05
4.11962e-05
5.82092e-05
7.61382e-05
9.46836e-05
0.000113713
0.000133157
0.00015298
0.00017316
0.000193683
0.00021454
0.000235728
0.000257243
0.000279085
0.000301253
0.000323748
0.000346572
0.000369727
0.000393216
0.000417041
0.000441206
0.000465714
0.000490569
0.000515776
0.000541337
0.000567258
0.000593543
0.000620197
0.000647223
0.000674628
0.000702415
0.00073059
0.000759157
0.000788123
0.000817491
0.000847267
0.000877457
0.000908066
0.000939098
0.000970559
0.00100245
0.00103479
0.00106757
0.0011008
0.00113449
0.00116864
0.00120325
0.00123833
0.00127389
0.00130994
0.00134646
0.00138348
0.00142099
0.001459
0.00149752
0.00153654
0.00157608
0.00161613
0.00165669
0.00169778
0.00173939
0.00178153
0.0018242
0.00186739
0.00191111
0.00195536
0.00200014
0.00204545
0.00209128
0.00213764
0.00218451
0.00223191
0.00227981
0.00232822
0.00237713
0.00242654
0.00247643
0.00252679
0.00257761
0.00262888
0.00268059
0.00273271
0.00278523
0.00283813
0.00289139
0.00294498
0.00299888
0.00305305
0.00310747
0.0031621
0.0032169
3.14528e-06
2.39813e-05
4.1196e-05
5.82058e-05
7.61326e-05
9.46768e-05
0.000113705
0.00013315
0.000152972
0.000173152
0.000193674
0.000214531
0.000235718
0.000257233
0.000279074
0.000301242
0.000323737
0.000346561
0.000369716
0.000393205
0.00041703
0.000441195
0.000465703
0.000490559
0.000515766
0.000541327
0.000567249
0.000593534
0.000620188
0.000647215
0.00067462
0.000702407
0.000730583
0.000759151
0.000788117
0.000817486
0.000847263
0.000877453
0.000908062
0.000939094
0.000970556
0.00100245
0.00103479
0.00106757
0.0011008
0.00113449
0.00116864
0.00120325
0.00123833
0.0012739
0.00130994
0.00134646
0.00138348
0.001421
0.00145901
0.00149752
0.00153655
0.00157608
0.00161613
0.0016567
0.00169779
0.0017394
0.00178154
0.0018242
0.0018674
0.00191112
0.00195537
0.00200015
0.00204546
0.00209129
0.00213765
0.00218453
0.00223192
0.00227983
0.00232824
0.00237715
0.00242656
0.00247645
0.00252681
0.00257763
0.00262891
0.00268061
0.00273273
0.00278526
0.00283816
0.00289142
0.00294501
0.00299891
0.00305308
0.0031075
0.00316213
0.00321694
3.14568e-06
2.39807e-05
4.11965e-05
5.82034e-05
7.6128e-05
9.4671e-05
0.000113699
0.000133143
0.000152965
0.000173144
0.000193666
0.000214523
0.00023571
0.000257224
0.000279065
0.000301232
0.000323727
0.000346551
0.000369706
0.000393195
0.00041702
0.000441185
0.000465694
0.000490549
0.000515756
0.000541318
0.00056724
0.000593526
0.00062018
0.000647207
0.000674613
0.000702401
0.000730577
0.000759145
0.000788111
0.000817481
0.000847258
0.000877449
0.000908058
0.000939092
0.000970554
0.00100245
0.00103479
0.00106757
0.0011008
0.00113449
0.00116864
0.00120325
0.00123834
0.0012739
0.00130994
0.00134647
0.00138349
0.001421
0.00145901
0.00149753
0.00153655
0.00157609
0.00161614
0.00165671
0.0016978
0.00173941
0.00178155
0.00182422
0.00186741
0.00191113
0.00195539
0.00200017
0.00204547
0.00209131
0.00213767
0.00218454
0.00223194
0.00227985
0.00232826
0.00237717
0.00242658
0.00247647
0.00252683
0.00257766
0.00262893
0.00268064
0.00273276
0.00278528
0.00283819
0.00289145
0.00294504
0.00299894
0.00305311
0.00310753
0.00316217
0.00321697
3.14605e-06
2.39806e-05
4.11977e-05
5.82021e-05
7.61245e-05
9.4666e-05
0.000113693
0.000133136
0.000152959
0.000173137
0.000193659
0.000214516
0.000235702
0.000257216
0.000279057
0.000301224
0.000323718
0.000346542
0.000369697
0.000393185
0.000417011
0.000441176
0.000465685
0.000490541
0.000515748
0.00054131
0.000567232
0.000593518
0.000620173
0.0006472
0.000674606
0.000702395
0.000730571
0.00075914
0.000788107
0.000817477
0.000847254
0.000877446
0.000908056
0.000939089
0.000970552
0.00100245
0.00103479
0.00106757
0.0011008
0.00113449
0.00116864
0.00120325
0.00123834
0.0012739
0.00130994
0.00134647
0.00138349
0.00142101
0.00145902
0.00149754
0.00153656
0.0015761
0.00161615
0.00165672
0.00169781
0.00173942
0.00178156
0.00182423
0.00186742
0.00191114
0.0019554
0.00200018
0.00204549
0.00209132
0.00213768
0.00218456
0.00223195
0.00227986
0.00232828
0.00237719
0.0024266
0.00247649
0.00252685
0.00257768
0.00262895
0.00268066
0.00273279
0.00278531
0.00283821
0.00289147
0.00294507
0.00299897
0.00305314
0.00310757
0.0031622
0.003217
3.1464e-06
2.39807e-05
4.11994e-05
5.82015e-05
7.61218e-05
9.46619e-05
0.000113688
0.000133131
0.000152953
0.000173131
0.000193653
0.000214509
0.000235695
0.000257209
0.00027905
0.000301216
0.000323711
0.000346534
0.000369689
0.000393177
0.000417003
0.000441168
0.000465677
0.000490533
0.00051574
0.000541303
0.000567225
0.000593511
0.000620166
0.000647194
0.0006746
0.000702389
0.000730566
0.000759135
0.000788103
0.000817473
0.000847251
0.000877443
0.000908053
0.000939087
0.000970551
0.00100245
0.00103479
0.00106757
0.0011008
0.00113449
0.00116864
0.00120325
0.00123834
0.0012739
0.00130995
0.00134648
0.0013835
0.00142101
0.00145902
0.00149754
0.00153657
0.0015761
0.00161616
0.00165672
0.00169782
0.00173943
0.00178157
0.00182424
0.00186743
0.00191116
0.00195541
0.00200019
0.0020455
0.00209134
0.0021377
0.00218457
0.00223197
0.00227988
0.0023283
0.00237721
0.00242662
0.00247651
0.00252688
0.0025777
0.00262898
0.00268069
0.00273281
0.00278534
0.00283824
0.0028915
0.0029451
0.002999
0.00305318
0.0031076
0.00316223
0.00321704
3.14672e-06
2.39811e-05
4.12014e-05
5.82017e-05
7.612e-05
9.46586e-05
0.000113684
0.000133126
0.000152948
0.000173126
0.000193647
0.000214503
0.00023569
0.000257203
0.000279043
0.00030121
0.000323704
0.000346527
0.000369682
0.00039317
0.000416995
0.000441161
0.000465669
0.000490526
0.000515733
0.000541296
0.000567218
0.000593505
0.00062016
0.000647188
0.000674595
0.000702384
0.000730561
0.000759131
0.000788099
0.000817469
0.000847248
0.00087744
0.000908051
0.000939086
0.00097055
0.00100245
0.00103479
0.00106757
0.0011008
0.00113449
0.00116864
0.00120326
0.00123834
0.00127391
0.00130995
0.00134648
0.0013835
0.00142102
0.00145903
0.00149755
0.00153657
0.00157611
0.00161616
0.00165673
0.00169783
0.00173944
0.00178158
0.00182425
0.00186744
0.00191117
0.00195542
0.0020002
0.00204551
0.00209135
0.00213771
0.00218459
0.00223199
0.0022799
0.00232831
0.00237723
0.00242664
0.00247653
0.0025269
0.00257772
0.002629
0.00268071
0.00273284
0.00278536
0.00283827
0.00289153
0.00294513
0.00299903
0.00305321
0.00310763
0.00316226
0.00321707
3.14701e-06
2.39817e-05
4.12037e-05
5.82025e-05
7.61188e-05
9.46559e-05
0.00011368
0.000133122
0.000152943
0.000173121
0.000193642
0.000214498
0.000235684
0.000257197
0.000279037
0.000301204
0.000323697
0.000346521
0.000369675
0.000393163
0.000416989
0.000441154
0.000465663
0.000490519
0.000515727
0.00054129
0.000567212
0.000593499
0.000620154
0.000647183
0.00067459
0.00070238
0.000730557
0.000759127
0.000788095
0.000817466
0.000847246
0.000877438
0.000908049
0.000939084
0.000970549
0.00100245
0.00103479
0.00106757
0.0011008
0.00113449
0.00116864
0.00120326
0.00123835
0.00127391
0.00130996
0.00134649
0.00138351
0.00142102
0.00145904
0.00149756
0.00153658
0.00157612
0.00161617
0.00165674
0.00169783
0.00173945
0.00178159
0.00182426
0.00186746
0.00191118
0.00195544
0.00200022
0.00204553
0.00209137
0.00213773
0.00218461
0.00223201
0.00227992
0.00232833
0.00237725
0.00242666
0.00247655
0.00252692
0.00257775
0.00262902
0.00268073
0.00273286
0.00278539
0.0028383
0.00289156
0.00294516
0.00299906
0.00305324
0.00310766
0.0031623
0.0032171
3.14727e-06
2.39825e-05
4.12062e-05
5.82038e-05
7.61184e-05
9.4654e-05
0.000113677
0.000133118
0.000152939
0.000173117
0.000193638
0.000214494
0.000235679
0.000257192
0.000279032
0.000301198
0.000323692
0.000346515
0.000369669
0.000393157
0.000416983
0.000441148
0.000465657
0.000490513
0.000515721
0.000541284
0.000567207
0.000593494
0.000620149
0.000647178
0.000674585
0.000702375
0.000730553
0.000759124
0.000788092
0.000817464
0.000847243
0.000877436
0.000908048
0.000939083
0.000970548
0.00100245
0.00103479
0.00106757
0.00110081
0.0011345
0.00116865
0.00120326
0.00123835
0.00127392
0.00130996
0.00134649
0.00138351
0.00142103
0.00145904
0.00149756
0.00153659
0.00157613
0.00161618
0.00165675
0.00169785
0.00173946
0.0017816
0.00182427
0.00186747
0.00191119
0.00195545
0.00200023
0.00204554
0.00209138
0.00213774
0.00218462
0.00223202
0.00227993
0.00232835
0.00237727
0.00242668
0.00247657
0.00252694
0.00257777
0.00262905
0.00268076
0.00273289
0.00278542
0.00283832
0.00289159
0.00294518
0.00299909
0.00305326
0.00310769
0.00316232
0.00321713
3.14751e-06
2.39833e-05
4.12088e-05
5.82055e-05
7.61186e-05
9.46527e-05
0.000113674
0.000133115
0.000152935
0.000173113
0.000193634
0.000214489
0.000235675
0.000257188
0.000279027
0.000301193
0.000323687
0.00034651
0.000369664
0.000393152
0.000416977
0.000441142
0.000465651
0.000490508
0.000515716
0.000541279
0.000567202
0.000593489
0.000620145
0.000647174
0.000674581
0.000702372
0.00073055
0.000759121
0.000788089
0.000817461
0.000847241
0.000877435
0.000908047
0.000939083
0.000970548
0.00100245
0.00103479
0.00106757
0.00110081
0.0011345
0.00116865
0.00120327
0.00123835
0.00127392
0.00130996
0.0013465
0.00138352
0.00142103
0.00145905
0.00149757
0.0015366
0.00157614
0.00161619
0.00165676
0.00169786
0.00173947
0.00178161
0.00182428
0.00186748
0.00191121
0.00195546
0.00200025
0.00204556
0.0020914
0.00213776
0.00218464
0.00223204
0.00227995
0.00232837
0.00237729
0.0024267
0.0024766
0.00252696
0.00257779
0.00262907
0.00268078
0.00273291
0.00278544
0.00283835
0.00289162
0.00294521
0.00299911
3.14772e-06
2.39842e-05
4.12115e-05
5.82076e-05
7.61192e-05
9.46519e-05
0.000113673
0.000133112
0.000152932
0.000173109
0.00019363
0.000214485
0.000235671
0.000257184
0.000279023
0.000301189
0.000323682
0.000346505
0.000369659
0.000393147
0.000416972
0.000441137
0.000465646
0.000490503
0.000515711
0.000541274
0.000567197
0.000593485
0.000620141
0.00064717
0.000674578
0.000702368
0.000730547
0.000759118
0.000788087
0.000817459
0.000847239
0.000877433
0.000908046
0.000939082
0.000970548
0.00100245
0.00103479
0.00106757
0.00110081
0.0011345
0.00116865
0.00120327
0.00123836
0.00127392
0.00130997
0.0013465
0.00138352
0.00142104
0.00145906
0.00149758
0.00153661
0.00157615
0.0016162
0.00165677
0.00169787
0.00173948
0.00178162
0.00182429
0.00186749
0.00191122
0.00195547
0.00200026
0.00204557
0.00209141
0.00213777
0.00218466
0.00223206
0.00227997
0.00232839
0.00237731
0.00242672
0.00247662
0.00252699
0.00257782
0.0026291
0.00268081
0.00273294
0.00278547
0.00283838
0.00289164
0.00294524
0.00299914
3.14791e-06
2.39852e-05
4.12142e-05
5.82099e-05
7.61204e-05
9.46517e-05
0.000113671
0.00013311
0.000152929
0.000173106
0.000193626
0.000214482
0.000235667
0.00025718
0.000279019
0.000301185
0.000323678
0.000346501
0.000369655
0.000393143
0.000416968
0.000441133
0.000465642
0.000490499
0.000515706
0.00054127
0.000567193
0.000593481
0.000620137
0.000647167
0.000674574
0.000702365
0.000730544
0.000759115
0.000788085
0.000817457
0.000847238
0.000877432
0.000908045
0.000939082
0.000970548
0.00100245
0.00103479
0.00106757
0.00110081
0.0011345
0.00116865
0.00120327
0.00123836
0.00127393
0.00130997
0.00134651
0.00138353
0.00142105
0.00145907
0.00149759
0.00153661
0.00157615
0.00161621
0.00165678
0.00169788
0.00173949
0.00178164
0.00182431
0.0018675
0.00191123
0.00195549
0.00200027
0.00204559
0.00209143
0.00213779
0.00218467
0.00223207
0.00227999
0.00232841
0.00237733
0.00242674
0.00247664
0.00252701
0.00257784
0.00262912
0.00268083
0.00273297
0.0027855
0.0028384
0.00289167
0.00294526
0.00299916
3.14808e-06
2.39862e-05
4.12168e-05
5.82125e-05
7.61219e-05
9.46521e-05
0.00011367
0.000133108
0.000152927
0.000173103
0.000193623
0.000214479
0.000235664
0.000257176
0.000279016
0.000301181
0.000323674
0.000346497
0.000369651
0.000393139
0.000416964
0.000441129
0.000465638
0.000490494
0.000515703
0.000541266
0.00056719
0.000593477
0.000620134
0.000647163
0.000674571
0.000702362
0.000730541
0.000759113
0.000788083
0.000817456
0.000847237
0.000877431
0.000908045
0.000939082
0.000970548
0.00100245
0.00103479
0.00106758
0.00110081
0.0011345
0.00116866
0.00120328
0.00123837
0.00127393
0.00130998
0.00134651
0.00138354
0.00142105
0.00145907
0.00149759
0.00153662
0.00157616
0.00161622
0.00165679
0.00169789
0.0017395
0.00178165
0.00182432
0.00186752
0.00191124
0.0019555
0.00200029
0.0020456
0.00209144
0.00213781
0.00218469
0.00223209
0.00228001
0.00232843
0.00237735
0.00242676
0.00247666
0.00252703
0.00257786
0.00262914
0.00268086
0.00273299
0.00278552
0.00283843
3.14823e-06
2.39873e-05
4.12195e-05
5.82152e-05
7.61238e-05
9.46528e-05
0.00011367
0.000133107
0.000152925
0.000173101
0.000193621
0.000214476
0.000235661
0.000257173
0.000279012
0.000301178
0.000323671
0.000346493
0.000369647
0.000393135
0.00041696
0.000441125
0.000465634
0.000490491
0.000515699
0.000541263
0.000567186
0.000593474
0.000620131
0.000647161
0.000674569
0.00070236
0.000730539
0.000759111
0.000788081
0.000817454
0.000847236
0.000877431
0.000908044
0.000939082
0.000970549
0.00100245
0.00103479
0.00106758
0.00110081
0.00113451
0.00116866
0.00120328
0.00123837
0.00127394
0.00130998
0.00134652
0.00138354
0.00142106
0.00145908
0.0014976
0.00153663
0.00157617
0.00161623
0.0016568
0.0016979
0.00173952
0.00178166
0.00182433
0.00186753
0.00191126
0.00195552
0.0020003
0.00204562
0.00209146
0.00213782
0.00218471
0.00223211
0.00228002
0.00232845
0.00237737
0.00242678
0.00247668
0.00252705
0.00257789
0.00262917
0.00268088
0.00273302
0.00278555
0.00283845
3.14837e-06
2.39884e-05
4.12221e-05
5.8218e-05
7.6126e-05
9.4654e-05
0.00011367
0.000133106
0.000152923
0.000173099
0.000193618
0.000214473
0.000235658
0.00025717
0.000279009
0.000301175
0.000323668
0.00034649
0.000369644
0.000393132
0.000416957
0.000441122
0.000465631
0.000490488
0.000515696
0.000541259
0.000567183
0.000593471
0.000620128
0.000647158
0.000674566
0.000702358
0.000730537
0.00075911
0.00078808
0.000817453
0.000847235
0.00087743
0.000908044
0.000939082
0.000970549
0.00100245
0.00103479
0.00106758
0.00110082
0.00113451
0.00116866
0.00120328
0.00123837
0.00127394
0.00130999
0.00134652
0.00138355
0.00142107
0.00145909
0.00149761
0.00153664
0.00157618
0.00161624
0.00165681
0.00169791
0.00173953
0.00178167
0.00182434
0.00186754
0.00191127
0.00195553
0.00200032
0.00204563
0.00209147
0.00213784
0.00218472
0.00223213
0.00228004
0.00232847
0.00237739
0.0024268
0.0024767
0.00252708
0.00257791
0.00262919
0.00268091
0.00273304
0.00278557
0.00283848
3.1485e-06
2.39895e-05
4.12246e-05
5.8221e-05
7.61285e-05
9.46555e-05
0.000113671
0.000133106
0.000152922
0.000173097
0.000193616
0.000214471
0.000235655
0.000257168
0.000279007
0.000301172
0.000323665
0.000346487
0.000369641
0.000393129
0.000416954
0.000441119
0.000465628
0.000490485
0.000515693
0.000541257
0.00056718
0.000593468
0.000620125
0.000647156
0.000674564
0.000702356
0.000730536
0.000759108
0.000788079
0.000817452
0.000847234
0.00087743
0.000908044
0.000939082
0.00097055
0.00100245
0.00103479
0.00106758
0.00110082
0.00113451
0.00116867
0.00120329
0.00123838
0.00127395
0.00130999
0.00134653
0.00138355
0.00142107
0.00145909
0.00149762
0.00153665
0.00157619
0.00161625
0.00165682
0.00169792
0.00173954
0.00178168
0.00182435
0.00186755
0.00191128
0.00195554
0.00200033
0.00204565
0.00209149
0.00213785
0.00218474
0.00223214
0.00228006
0.00232849
0.00237741
0.00242683
0.00247673
0.0025271
0.00257793
0.00262922
0.00268093
0.00273307
0.0027856
0.0028385
3.14861e-06
2.39906e-05
4.12271e-05
5.8224e-05
7.61312e-05
9.46574e-05
0.000113672
0.000133106
0.000152922
0.000173096
0.000193614
0.000214469
0.000235653
0.000257165
0.000279004
0.000301169
0.000323662
0.000346485
0.000369638
0.000393126
0.000416951
0.000441116
0.000465625
0.000490482
0.00051569
0.000541254
0.000567178
0.000593466
0.000620123
0.000647154
0.000674562
0.000702354
0.000730534
0.000759107
0.000788078
0.000817452
0.000847234
0.00087743
0.000908044
0.000939083
0.000970551
0.00100245
0.0010348
0.00106758
0.00110082
0.00113452
0.00116867
0.00120329
0.00123838
0.00127395
0.00131
0.00134653
0.00138356
0.00142108
0.0014591
0.00149762
0.00153666
0.0015762
0.00161626
0.00165683
0.00169793
0.00173955
0.00178169
0.00182437
0.00186757
0.0019113
0.00195556
0.00200034
0.00204566
0.0020915
0.00213787
0.00218476
0.00223216
0.00228008
0.0023285
0.00237743
0.00242685
0.00247675
0.00252712
0.00257796
0.00262924
0.00268096
0.00273309
0.00278562
0.00283852
3.14872e-06
2.39917e-05
4.12295e-05
5.8227e-05
7.6134e-05
9.46596e-05
0.000113673
0.000133106
0.000152921
0.000173095
0.000193613
0.000214467
0.000235651
0.000257163
0.000279002
0.000301167
0.00032366
0.000346482
0.000369636
0.000393123
0.000416948
0.000441113
0.000465623
0.000490479
0.000515688
0.000541252
0.000567176
0.000593464
0.000620121
0.000647152
0.000674561
0.000702353
0.000730533
0.000759106
0.000788077
0.000817451
0.000847234
0.00087743
0.000908045
0.000939083
0.000970552
0.00100245
0.0010348
0.00106759
0.00110082
0.00113452
0.00116867
0.00120329
0.00123839
0.00127396
0.00131
0.00134654
0.00138357
0.00142109
0.00145911
0.00149763
0.00153666
0.00157621
0.00161627
0.00165684
0.00169794
0.00173956
0.0017817
0.00182438
0.00186758
0.00191131
0.00195557
0.00200036
0.00204567
0.00209152
0.00213789
0.00218477
0.00223218
0.0022801
0.00232852
0.00237745
0.00242687
0.00247677
0.00252714
0.00257798
0.00262927
0.00268098
0.00273312
0.00278565
0.00283855
3.14882e-06
2.39929e-05
4.12318e-05
5.823e-05
7.61369e-05
9.4662e-05
0.000113675
0.000133107
0.000152921
0.000173094
0.000193612
0.000214466
0.00023565
0.000257161
0.000279
0.000301165
0.000323658
0.00034648
0.000369633
0.000393121
0.000416946
0.000441111
0.00046562
0.000490477
0.000515685
0.000541249
0.000567173
0.000593462
0.000620119
0.00064715
0.000674559
0.000702351
0.000730532
0.000759105
0.000788076
0.000817451
0.000847234
0.00087743
0.000908045
0.000939084
0.000970553
0.00100246
0.0010348
0.00106759
0.00110083
0.00113452
0.00116868
0.0012033
0.00123839
0.00127396
0.00131001
0.00134655
0.00138357
0.00142109
0.00145912
0.00149764
0.00153667
0.00157622
0.00161627
0.00165685
0.00169795
0.00173957
0.00178172
0.00182439
0.00186759
0.00191132
0.00195558
0.00200037
0.00204569
0.00209153
0.0021379
0.00218479
0.0022322
0.00228012
0.00232854
0.00237747
0.00242689
0.00247679
0.00252717
0.002578
0.00262929
0.00268101
0.00273314
0.00278567
0.00283857
3.14892e-06
2.3994e-05
4.1234e-05
5.8233e-05
7.614e-05
9.46646e-05
0.000113676
0.000133108
0.000152922
0.000173094
0.000193611
0.000214464
0.000235648
0.00025716
0.000278998
0.000301163
0.000323656
0.000346478
0.000369631
0.000393119
0.000416944
0.000441109
0.000465618
0.000490475
0.000515683
0.000541247
0.000567172
0.00059346
0.000620118
0.000647149
0.000674558
0.00070235
0.000730531
0.000759104
0.000788076
0.000817451
0.000847234
0.00087743
0.000908046
0.000939085
0.000970554
0.00100246
0.0010348
0.00106759
0.00110083
0.00113452
0.00116868
0.0012033
0.0012384
0.00127396
0.00131002
0.00134655
0.00138358
0.0014211
0.00145912
0.00149765
0.00153668
0.00157622
0.00161628
0.00165686
0.00169796
0.00173958
0.00178173
0.0018244
0.0018676
0.00191133
0.0019556
0.00200039
0.0020457
0.00209155
0.00213792
0.00218481
0.00223221
0.00228013
0.00232856
0.00237749
0.00242691
0.00247681
0.00252719
0.00257803
0.00262931
0.00268103
0.00273316
0.00278569
0.0028386
3.14901e-06
2.39951e-05
4.12361e-05
5.82359e-05
7.61431e-05
9.46674e-05
0.000113679
0.00013311
0.000152923
0.000173094
0.000193611
0.000214464
0.000235647
0.000257158
0.000278996
0.000301161
0.000323654
0.000346476
0.000369629
0.000393117
0.000416942
0.000441107
0.000465616
0.000490473
0.000515681
0.000541246
0.00056717
0.000593459
0.000620116
0.000647147
0.000674557
0.000702349
0.00073053
0.000759104
0.000788075
0.00081745
0.000847234
0.000877431
0.000908046
0.000939086
0.000970555
0.00100246
0.0010348
0.00106759
0.00110083
0.00113453
0.00116868
0.00120331
0.0012384
0.00127397
0.00131002
0.00134656
0.00138358
0.00142111
0.00145913
0.00149765
0.00153669
0.00157623
0.00161629
0.00165687
0.00169797
0.00173959
0.00178174
0.00182441
0.00186762
0.00191135
0.00195561
0.0020004
0.00204572
0.00209156
0.00213793
0.00218482
0.00223223
0.00228015
0.00232858
0.00237751
0.00242693
0.00247683
0.00252721
0.00257805
0.00262934
0.00268105
0.00273319
0.00278572
0.00283862
3.1491e-06
2.39962e-05
4.12382e-05
5.82388e-05
7.61463e-05
9.46703e-05
0.000113681
0.000133112
0.000152924
0.000173095
0.000193611
0.000214463
0.000235646
0.000257157
0.000278995
0.00030116
0.000323652
0.000346474
0.000369628
0.000393115
0.00041694
0.000441105
0.000465614
0.000490471
0.00051568
0.000541244
0.000567168
0.000593457
0.000620115
0.000647146
0.000674556
0.000702349
0.000730529
0.000759103
0.000788075
0.000817451
0.000847234
0.000877431
0.000908047
0.000939087
0.000970557
0.00100246
0.00103481
0.00106759
0.00110083
0.00113453
0.00116869
0.00120331
0.0012384
0.00127397
0.00131003
0.00134656
0.00138359
0.00142111
0.00145914
0.00149766
0.0015367
0.00157624
0.0016163
0.00165688
0.00169798
0.0017396
0.00178175
0.00182442
0.00186763
0.00191136
0.00195562
0.00200041
0.00204573
0.00209158
0.00213795
0.00218484
0.00223225
0.00228017
0.0023286
0.00237753
0.00242695
0.00247686
0.00252723
0.00257807
0.00262936
0.00268108
0.00273321
0.00278574
0.00283865