/*--------------------------------*- C++ -*----------------------------------*\
  =========                 |
  \\      /  F ield         | OpenFOAM: The Open Source CFD Toolbox
   \\    /   O peration     | Website:  https://openfoam.org
    \\  /    A nd           | Version:  10
     \\/     M anipulation  |
\*---------------------------------------------------------------------------*/
FoamFile
{
    format      ascii;
    class       volVectorField;
    location    "33000";
    object      Urel;
}
// * * * * * * * * * * * * * * * * * * * * * * * * * * * * * * * * * * * * * //

dimensions      [0 1 -1 0 0 0 0];

internalField   nonuniform List<vector> 
17808
(
(4.10023 -4.49514 -7.22677e-18)
(3.73294 -4.08843 -8.08764e-19)
(3.56961 -3.90876 5.23237e-18)
(3.45668 -3.78852 5.61624e-18)
(3.3716 -3.69558 -1.31596e-18)
(3.30261 -3.62052 -9.2585e-18)
(3.24466 -3.55722 4.64242e-18)
(3.19452 -3.50236 -4.92174e-18)
(3.1502 -3.45379 8.27193e-18)
(3.11037 -3.41009 -2.0047e-21)
(3.07412 -3.37026 -3.72722e-18)
(3.04076 -3.33358 2.66145e-18)
(3.0098 -3.29952 -3.8154e-18)
(2.98085 -3.26765 4.05572e-19)
(2.95361 -3.23765 0)
(2.92785 -3.20926 3.73604e-19)
(2.90337 -3.18228 -7.19053e-19)
(2.88001 -3.15652 -6.92976e-19)
(2.85764 -3.13185 -3.00823e-18)
(2.83615 -3.10814 2.71133e-21)
(2.81544 -3.0853 2.50259e-18)
(2.79544 -3.06323 0)
(2.77607 -3.04186 2.34763e-18)
(2.75729 -3.02112 -2.28114e-18)
(2.73902 -3.00095 2.21306e-18)
(2.72123 -2.98132 -2.69239e-18)
(2.70388 -2.96216 -5.23567e-19)
(2.68693 -2.94345 0)
(2.67034 -2.92514 -4.96589e-19)
(2.6541 -2.9072 -4.84002e-19)
(2.63816 -2.88961 1.88673e-18)
(2.62252 -2.87234 -1.38324e-18)
(2.60714 -2.85537 0)
(2.59201 -2.83867 0)
(2.57711 -2.82222 4.29002e-19)
(2.56242 -2.80601 2.095e-18)
(2.54793 -2.79002 -1.23125e-18)
(2.53363 -2.77424 0)
(2.51949 -2.75865 -1.56703e-18)
(2.50552 -2.74323 2.99545e-21)
(2.49169 -2.72799 2.25434e-18)
(2.478 -2.71289 2.20355e-18)
(2.46444 -2.69794 -1.4407e-18)
(2.451 -2.68313 7.04522e-19)
(2.43767 -2.66843 0)
(2.42445 -2.65386 -6.7563e-19)
(2.41131 -2.63939 1.98367e-18)
(2.39827 -2.62502 -2.59415e-18)
(2.38531 -2.61075 6.34886e-19)
(2.37242 -2.59656 0)
(2.3596 -2.58244 0)
(2.34685 -2.5684 1.78857e-18)
(2.33415 -2.55443 -5.86096e-19)
(2.3215 -2.54052 0)
(2.30891 -2.52666 5.60741e-19)
(2.29635 -2.51285 5.49201e-19)
(2.28383 -2.49909 -5.3784e-19)
(2.27135 -2.48536 -5.2665e-19)
(2.2589 -2.47167 -5.15657e-19)
(2.24647 -2.45801 1.00806e-18)
(2.23406 -2.44438 -1.61657e-21)
(2.22167 -2.43077 9.65738e-19)
(2.20929 -2.41718 -9.48329e-19)
(2.19692 -2.40359 -9.26307e-19)
(2.18456 -2.39002 -1.81073e-18)
(2.1722 -2.37646 8.86338e-19)
(2.15984 -2.36289 -1.73524e-18)
(2.14747 -2.34933 1.69501e-18)
(2.1351 -2.33575 0)
(2.12272 -2.32217 8.09697e-19)
(2.11032 -2.30858 1.58063e-18)
(2.09791 -2.29497 -7.76199e-19)
(2.08547 -2.28134 -7.56492e-19)
(2.07302 -2.26768 7.37029e-19)
(2.06054 -2.25401 -1.66824e-21)
(2.04802 -2.2403 -2.10637e-18)
(2.03548 -2.22656 1.37173e-18)
(2.0229 -2.21278 0)
(2.01029 -2.19896 -6.53215e-19)
(1.99763 -2.1851 -1.90712e-18)
(1.98493 -2.1712 0)
(1.97218 -2.15725 0)
(1.95939 -2.14324 1.17475e-18)
(1.94654 -2.12918 0)
(1.93363 -2.11507 1.1134e-18)
(1.92067 -2.10089 0)
(1.90765 -2.08664 -2.39003e-23)
(1.89456 -2.07233 0)
(1.88141 -2.05795 0)
(1.86818 -2.04349 9.68355e-19)
(1.85488 -2.02896 1.88163e-18)
(1.84151 -2.01434 1.8275e-18)
(4.08685 -4.49594 -8.07992e-19)
(3.72396 -4.08924 7.99842e-19)
(3.56019 -3.91242 0)
(3.44887 -3.79211 0)
(3.36447 -3.69964 1.31052e-18)
(3.2958 -3.62509 -6.13341e-19)
(3.23801 -3.56223 4.60635e-18)
(3.18793 -3.50772 -3.79655e-18)
(3.14363 -3.45945 -5.12209e-19)
(3.1038 -3.41598 3.87905e-18)
(3.06753 -3.37633 -4.14741e-18)
(3.03414 -3.3398 8.77509e-19)
(3.00316 -3.30584 4.18825e-19)
(2.97419 -3.27405 -4.00699e-19)
(2.94694 -3.24411 0)
(2.92116 -3.21576 -3.68947e-19)
(2.89667 -3.1888 3.54967e-19)
(2.8733 -3.16306 3.42056e-19)
(2.85093 -3.1384 0)
(2.82944 -3.11469 0)
(2.80874 -3.09184 0)
(2.78875 -3.06975 -5.97794e-19)
(2.76939 -3.04837 0)
(2.75061 -3.02761 -5.62574e-19)
(2.73236 -3.00743 0)
(2.71458 -2.98777 5.31331e-19)
(2.69725 -2.96859 5.17021e-19)
(2.68031 -2.94985 0)
(2.66374 -2.93151 -1.96037e-18)
(2.64751 -2.91355 4.80975e-19)
(2.6316 -2.89593 1.40055e-18)
(2.61597 -2.87863 -4.55151e-19)
(2.60061 -2.86163 1.77625e-18)
(2.5855 -2.8449 -3.90706e-18)
(2.57062 -2.82842 1.2741e-18)
(2.55596 -2.81218 -4.147e-19)
(2.54149 -2.79616 -8.11092e-19)
(2.52721 -2.78035 0)
(2.5131 -2.76472 0)
(2.49915 -2.74928 1.89794e-18)
(2.48534 -2.734 -1.489e-18)
(2.47168 -2.71887 -4.08529e-23)
(2.45814 -2.70389 -7.13158e-19)
(2.44473 -2.68904 -1.39694e-18)
(2.43142 -2.67432 -6.82685e-19)
(2.41822 -2.65971 2.01239e-18)
(2.40512 -2.64521 -1.3119e-18)
(2.3921 -2.63081 1.93197e-18)
(2.37916 -2.6165 -1.89002e-18)
(2.3663 -2.60228 1.23729e-18)
(2.35351 -2.58814 -1.20938e-18)
(2.34078 -2.57407 1.18823e-18)
(2.32811 -2.56006 -5.8144e-19)
(2.31549 -2.54612 0)
(2.30292 -2.53223 -5.58289e-19)
(2.29039 -2.51839 0)
(2.27791 -2.50459 0)
(2.26545 -2.49084 5.25046e-19)
(2.25302 -2.47712 1.62298e-21)
(2.24062 -2.46343 1.00914e-18)
(2.22824 -2.44976 -9.86706e-19)
(2.21588 -2.43612 9.66213e-19)
(2.20353 -2.42249 0)
(2.19119 -2.40888 0)
(2.17886 -2.39528 1.81124e-18)
(2.16653 -2.38168 -8.87074e-19)
(2.1542 -2.36808 1.73755e-18)
(2.14186 -2.35449 -1.6768e-21)
(2.12952 -2.34088 -8.32095e-19)
(2.11717 -2.32727 0)
(2.1048 -2.31364 -1.58608e-18)
(2.09242 -2.3 3.10378e-18)
(2.08002 -2.28634 -3.35662e-21)
(2.06759 -2.27266 -3.36039e-21)
(2.05514 -2.25895 -1.67191e-21)
(2.04266 -2.24521 7.04785e-19)
(2.03015 -2.23144 -1.38098e-18)
(2.0176 -2.21763 6.73049e-19)
(2.00502 -2.20378 1.31167e-18)
(1.99239 -2.18989 -6.42195e-19)
(1.97973 -2.17596 6.22885e-19)
(1.96701 -2.16197 -1.8282e-18)
(1.95425 -2.14793 1.77832e-18)
(1.94143 -2.13384 -3.35586e-21)
(1.92856 -2.11969 -1.12598e-18)
(1.91563 -2.10548 5.49821e-19)
(1.90264 -2.09121 -2.13413e-18)
(1.88959 -2.07686 0)
(1.87647 -2.06245 0)
(1.86328 -2.04796 -1.96417e-18)
(1.85001 -2.03339 -1.43037e-18)
(1.83667 -2.01874 -9.24442e-19)
(4.07429 -4.50218 1.61531e-18)
(3.71157 -4.09559 1.27684e-17)
(3.54794 -3.91909 -2.38716e-17)
(3.43808 -3.7979 1.11599e-17)
(3.35428 -3.70554 -6.50873e-19)
(3.28623 -3.63102 0)
(3.22897 -3.5682 0)
(3.17931 -3.51376 0)
(3.13534 -3.46556 -7.60012e-18)
(3.09578 -3.42218 7.6781e-18)
(3.05971 -3.38261 4.55293e-19)
(3.02649 -3.34615 9.91173e-23)
(2.99563 -3.31225 6.61414e-18)
(2.96676 -3.28052 -1.30514e-17)
(2.93959 -3.25062 6.06703e-18)
(2.91388 -3.22231 5.45649e-18)
(2.88945 -3.19537 -5.25375e-18)
(2.86613 -3.16965 0)
(2.8438 -3.14499 0)
(2.82234 -3.12129 0)
(2.80167 -3.09844 0)
(2.78171 -3.07635 1.17862e-18)
(2.76238 -3.05496 0)
(2.74363 -3.03419 5.54592e-19)
(2.7254 -3.01399 0)
(2.70765 -2.99431 -5.23827e-19)
(2.69034 -2.97511 0)
(2.67342 -2.95635 1.98383e-18)
(2.65688 -2.93799 -1.93576e-18)
(2.64068 -2.92001 4.71493e-19)
(2.62478 -2.90236 -4.59965e-19)
(2.60918 -2.88504 2.24343e-18)
(2.59385 -2.86801 -2.81944e-21)
(2.57876 -2.85125 -1.2864e-18)
(2.56391 -2.83474 1.2545e-18)
(2.54927 -2.81848 -1.22938e-18)
(2.53483 -2.80243 4.00361e-19)
(2.52057 -2.78658 0)
(2.50648 -2.77093 0)
(2.49256 -2.75545 -2.25006e-18)
(2.47878 -2.74014 2.93916e-21)
(2.46514 -2.72499 2.92206e-21)
(2.45163 -2.70997 2.11629e-18)
(2.43824 -2.6951 -1.37971e-18)
(2.42497 -2.68034 6.78161e-19)
(2.41179 -2.6657 0)
(2.39871 -2.65117 0)
(2.38572 -2.63674 0)
(2.37281 -2.6224 1.53918e-21)
(2.35998 -2.60815 6.1351e-19)
(2.34722 -2.59397 0)
(2.33452 -2.57987 5.88023e-19)
(2.32187 -2.56583 -1.15128e-18)
(2.30929 -2.55186 1.69665e-18)
(2.29674 -2.53794 1.10611e-18)
(2.28425 -2.52406 -1.0873e-18)
(2.27179 -2.51024 -1.06251e-18)
(2.25936 -2.49645 5.23029e-19)
(2.24696 -2.4827 -5.10972e-19)
(2.23459 -2.46898 5.00658e-19)
(2.22224 -2.45528 9.81047e-19)
(2.20991 -2.44161 -9.61043e-19)
(2.19759 -2.42795 0)
(2.18528 -2.4143 0)
(2.17298 -2.40067 -2.17926e-23)
(2.16068 -2.38704 -1.7658e-18)
(2.14838 -2.37341 8.66675e-19)
(2.13608 -2.35978 -8.44904e-19)
(2.12377 -2.34615 2.485e-18)
(2.11145 -2.3325 -1.67254e-21)
(2.09911 -2.31885 7.92551e-19)
(2.08676 -2.30517 -7.75006e-19)
(2.07439 -2.29148 0)
(2.062 -2.27777 0)
(2.04958 -2.26402 0)
(2.03713 -2.25025 7.05182e-19)
(2.02465 -2.23645 -6.92025e-19)
(2.01214 -2.22261 -6.74055e-19)
(1.99958 -2.20873 0)
(1.98699 -2.19481 0)
(1.97436 -2.18084 -1.87736e-18)
(1.96168 -2.16682 3.05602e-18)
(1.94895 -2.15275 -2.31924e-23)
(1.93617 -2.13863 0)
(1.92333 -2.12445 -5.63963e-19)
(1.91043 -2.1102 3.36288e-21)
(1.89748 -2.09589 5.38248e-19)
(1.88446 -2.08152 -1.04463e-18)
(1.87137 -2.06707 -1.0166e-18)
(1.85822 -2.05255 1.48186e-18)
(1.84499 -2.03794 -3.3311e-21)
(1.83169 -2.02326 4.65896e-19)
(4.06329 -4.51136 1.1304e-17)
(3.70035 -4.10464 1.19361e-17)
(3.53725 -3.92727 -1.26254e-17)
(3.42804 -3.80545 6.93089e-19)
(3.34437 -3.71303 0)
(3.27663 -3.63829 0)
(3.21964 -3.57532 0)
(3.17024 -3.52078 8.50407e-18)
(3.1265 -3.4725 -1.60421e-17)
(3.08714 -3.42906 1.51741e-17)
(3.05126 -3.38945 -7.20073e-18)
(3.0182 -3.35296 6.41717e-18)
(2.98749 -3.31905 -6.53403e-18)
(2.95876 -3.2873 3.90226e-19)
(2.9317 -3.25739 6.35356e-18)
(2.90609 -3.22908 -5.38656e-18)
(2.88174 -3.20214 5.52023e-18)
(2.8585 -3.17641 -3.37827e-19)
(2.83623 -3.15175 -5.13536e-18)
(2.81484 -3.12804 -3.09932e-19)
(2.79422 -3.10518 0)
(2.77431 -3.08308 -1.1615e-18)
(2.75502 -3.06167 0)
(2.73631 -3.04089 0)
(2.71812 -3.02068 -4.77549e-18)
(2.70041 -3.00098 4.13236e-18)
(2.68313 -2.98177 0)
(2.66625 -2.96298 0)
(2.64974 -2.9446 0)
(2.63357 -2.92659 -9.29596e-19)
(2.61771 -2.90893 4.53491e-19)
(2.60214 -2.89158 0)
(2.58683 -2.87452 0)
(2.57178 -2.85774 0)
(2.55695 -2.8412 -2.47496e-18)
(2.54234 -2.82491 3.63736e-18)
(2.52793 -2.80883 0)
(2.5137 -2.79296 0)
(2.49964 -2.77728 0)
(2.48574 -2.76177 3.33174e-18)
(2.472 -2.74643 -5.80327e-21)
(2.45839 -2.73125 -7.109e-18)
(2.44491 -2.7162 4.87554e-18)
(2.43155 -2.70129 -2.05051e-18)
(2.4183 -2.68651 0)
(2.40515 -2.67184 6.55663e-19)
(2.3921 -2.65728 2.56802e-18)
(2.37914 -2.64281 -2.52362e-18)
(2.36626 -2.62844 -6.17849e-19)
(2.35346 -2.61416 3.02593e-18)
(2.34072 -2.59995 -1.19262e-18)
(2.32805 -2.58582 -1.16801e-18)
(2.31544 -2.57175 -1.14384e-18)
(2.30288 -2.55774 -1.56192e-21)
(2.29037 -2.54379 -1.64897e-18)
(2.2779 -2.52989 0)
(2.26547 -2.51603 5.26319e-19)
(2.25308 -2.50221 -1.03664e-18)
(2.24071 -2.48842 -1.52041e-18)
(2.22837 -2.47467 4.98886e-19)
(2.21605 -2.46094 9.74783e-19)
(2.20375 -2.44723 1.60848e-21)
(2.19146 -2.43355 3.2464e-21)
(2.17918 -2.41987 9.18685e-19)
(2.16691 -2.4062 -8.98336e-19)
(2.15465 -2.39254 8.79822e-19)
(2.14238 -2.37888 0)
(2.13011 -2.36522 -8.41882e-19)
(2.11783 -2.35155 -8.22418e-19)
(2.10554 -2.33788 1.65034e-21)
(2.09324 -2.32419 -1.57981e-18)
(2.08092 -2.31048 1.54876e-18)
(2.06858 -2.29676 0)
(2.05622 -2.28301 -1.67341e-21)
(2.04384 -2.26923 -1.44806e-18)
(2.03142 -2.25543 7.06796e-19)
(2.01898 -2.24159 6.90611e-19)
(2.0065 -2.22772 6.74591e-19)
(1.99398 -2.21381 0)
(1.98142 -2.19985 0)
(1.96882 -2.18585 1.25547e-18)
(1.95617 -2.1718 -2.44997e-18)
(1.94348 -2.1577 -1.19491e-18)
(1.93073 -2.14354 1.16519e-18)
(1.91793 -2.12933 1.70214e-18)
(1.90507 -2.11505 5.51795e-19)
(1.89215 -2.10071 1.07848e-18)
(1.87917 -2.0863 5.23512e-19)
(1.86612 -2.07181 1.01929e-18)
(1.853 -2.05726 -4.99354e-19)
(1.83981 -2.04262 4.82555e-19)
(1.82654 -2.0279 -3.36589e-21)
(4.05181 -4.52102 1.37097e-17)
(3.68914 -4.11421 -1.26985e-17)
(3.52688 -3.93581 -1.10791e-17)
(3.41805 -3.81367 2.06547e-17)
(3.33457 -3.72109 -9.62456e-18)
(3.26711 -3.64611 1.01723e-17)
(3.21031 -3.58299 -1.79241e-17)
(3.16107 -3.52832 5.57489e-21)
(3.11749 -3.47993 7.93214e-18)
(3.07828 -3.4364 0)
(3.04253 -3.39672 0)
(3.0096 -3.36016 -4.22477e-19)
(2.97901 -3.3262 -4.02798e-19)
(2.95038 -3.29441 3.84956e-19)
(2.92343 -3.26447 3.65551e-23)
(2.89791 -3.23612 -3.53868e-19)
(2.87365 -3.20916 -6.80469e-19)
(2.85049 -3.1834 -2.0189e-23)
(2.8283 -3.15872 0)
(2.80697 -3.13499 3.0536e-19)
(2.78642 -3.11211 4.72338e-18)
(2.76656 -3.08999 -4.00752e-18)
(2.74733 -3.06857 0)
(2.72868 -3.04776 4.84266e-18)
(2.71054 -3.02753 -3.66375e-18)
(2.69287 -3.00782 -4.06568e-18)
(2.67563 -2.98857 3.96171e-18)
(2.6588 -2.96977 4.81944e-19)
(2.64232 -2.95137 0)
(2.62619 -2.93333 4.58024e-19)
(2.61037 -2.91564 0)
(2.59483 -2.89827 0)
(2.57956 -2.88118 -3.40678e-18)
(2.56454 -2.86437 2.91822e-18)
(2.54975 -2.84782 -8.14397e-19)
(2.53517 -2.83149 -3.18333e-18)
(2.52079 -2.81539 2.73048e-18)
(2.50659 -2.79949 -3.81382e-19)
(2.49256 -2.78378 -2.98432e-18)
(2.4787 -2.76824 2.92822e-18)
(2.46498 -2.75287 -2.86272e-18)
(2.4514 -2.73766 3.51246e-18)
(2.43795 -2.72258 -2.74854e-18)
(2.42462 -2.70764 5.82761e-21)
(2.41141 -2.69283 4.62656e-18)
(2.39829 -2.67813 -3.24302e-18)
(2.38527 -2.66353 0)
(2.37234 -2.64904 2.4895e-18)
(2.35949 -2.63464 -2.44746e-18)
(2.34672 -2.62032 0)
(2.33402 -2.60608 -5.87885e-19)
(2.32138 -2.59192 1.15329e-18)
(2.3088 -2.57782 -2.25938e-18)
(2.29627 -2.56378 4.99315e-18)
(2.28379 -2.54979 -1.6356e-18)
(2.27135 -2.53586 -5.33729e-19)
(2.25895 -2.52196 2.61424e-18)
(2.24659 -2.50811 1.02046e-18)
(2.23426 -2.4943 4.97117e-19)
(2.22195 -2.48051 -6.36312e-21)
(2.20966 -2.46675 -5.80811e-18)
(2.19739 -2.45301 -9.4259e-19)
(2.18514 -2.43929 6.45154e-21)
(2.17289 -2.42558 1.82669e-18)
(2.16065 -2.41188 -2.6771e-18)
(2.14842 -2.39819 -1.7443e-18)
(2.13618 -2.3845 4.92381e-21)
(2.12395 -2.3708 8.41633e-19)
(2.1117 -2.3571 -8.2094e-19)
(2.09945 -2.34339 1.61245e-18)
(2.08718 -2.32967 0)
(2.07489 -2.31593 -1.54155e-18)
(2.06259 -2.30217 7.56661e-19)
(2.05026 -2.28839 1.685e-21)
(2.03791 -2.27458 1.44634e-18)
(2.02553 -2.26074 -7.0628e-19)
(2.01312 -2.24687 0)
(2.00068 -2.23297 -1.34941e-18)
(1.98819 -2.21902 0)
(1.97567 -2.20503 -1.28769e-18)
(1.96311 -2.191 0)
(1.9505 -2.17691 6.15428e-19)
(1.93784 -2.16278 6.00618e-19)
(1.92512 -2.14859 -1.75125e-18)
(1.91236 -2.13434 -5.68199e-19)
(1.89954 -2.12002 -1.66523e-18)
(1.88665 -2.10565 -5.39878e-19)
(1.87371 -2.0912 1.05543e-18)
(1.8607 -2.07668 -5.12339e-19)
(1.84761 -2.06209 1.00446e-18)
(1.83446 -2.04742 -4.8556e-19)
(1.82123 -2.03267 -1.42417e-18)
(4.03965 -4.53095 0)
(3.67744 -4.1239 0)
(3.51605 -3.94459 1.10225e-17)
(3.4075 -3.82225 -5.7751e-21)
(3.32431 -3.72942 -1.08197e-17)
(3.25713 -3.65424 8.89241e-18)
(3.20054 -3.59097 -8.31903e-18)
(3.1515 -3.53617 0)
(3.1081 -3.48767 -4.8982e-19)
(3.06904 -3.44405 -7.86344e-18)
(3.03343 -3.40429 7.01936e-18)
(3.00063 -3.36767 8.33682e-19)
(2.97016 -3.33365 3.97251e-19)
(2.94164 -3.3018 -6.82936e-18)
(2.91479 -3.27181 5.45438e-18)
(2.88937 -3.24342 3.4872e-19)
(2.8652 -3.21642 3.35236e-19)
(2.84212 -3.19063 5.80848e-18)
(2.82001 -3.16592 -5.2598e-21)
(2.79876 -3.14216 -9.62472e-18)
(2.77828 -3.11925 4.65723e-18)
(2.75848 -3.09711 0)
(2.73932 -3.07565 -4.36756e-18)
(2.72072 -3.05482 5.26675e-21)
(2.70263 -3.03456 4.12312e-18)
(2.68502 -3.01482 5.00829e-19)
(2.66783 -2.99556 3.89643e-18)
(2.65104 -2.97673 -8.54411e-18)
(2.63462 -2.9583 7.40193e-18)
(2.61853 -2.94024 -5.34514e-21)
(2.60274 -2.92252 -3.96517e-18)
(2.58725 -2.90512 0)
(2.57202 -2.88801 0)
(2.55704 -2.87117 4.10466e-19)
(2.54228 -2.85459 4.01359e-19)
(2.52774 -2.83823 -7.8522e-19)
(2.51339 -2.8221 9.98913e-24)
(2.49923 -2.80617 3.76105e-19)
(2.48524 -2.79043 0)
(2.47141 -2.77487 -3.24382e-18)
(2.45773 -2.75947 2.12345e-18)
(2.44418 -2.74422 -2.76807e-18)
(2.43077 -2.72912 3.39791e-18)
(2.41747 -2.71415 2.65989e-18)
(2.40428 -2.6993 -2.61383e-18)
(2.3912 -2.68457 0)
(2.37822 -2.66994 0)
(2.36532 -2.65542 0)
(2.3525 -2.64099 0)
(2.33976 -2.62664 -5.92722e-19)
(2.32709 -2.61237 -1.7416e-18)
(2.31449 -2.59817 1.71474e-18)
(2.30194 -2.58404 0)
(2.28944 -2.56996 -5.49294e-19)
(2.27699 -2.55595 -2.15274e-18)
(2.26459 -2.54198 2.64705e-18)
(2.25223 -2.52805 5.18794e-19)
(2.23989 -2.51417 -1.26566e-23)
(2.22759 -2.50032 4.99286e-19)
(2.21532 -2.4865 0)
(2.20307 -2.47271 9.6074e-19)
(2.19083 -2.45894 0)
(2.17861 -2.44518 0)
(2.1664 -2.43144 -2.71442e-18)
(2.15419 -2.41771 4.44037e-18)
(2.14199 -2.40398 -8.73716e-19)
(2.12979 -2.39025 8.53116e-19)
(2.11759 -2.37653 0)
(2.10538 -2.36279 8.18951e-19)
(2.09316 -2.34905 7.98863e-19)
(2.08092 -2.33529 -3.14231e-18)
(2.06867 -2.32152 1.54165e-18)
(2.05641 -2.30773 0)
(2.04411 -2.29391 0)
(2.0318 -2.28007 7.20988e-19)
(2.01945 -2.2662 0)
(2.00708 -2.25229 6.89732e-19)
(1.99467 -2.23835 -6.70977e-19)
(1.98222 -2.22437 1.32169e-18)
(1.96974 -2.21035 -6.42398e-19)
(1.95721 -2.19628 1.88942e-18)
(1.94463 -2.18216 0)
(1.93201 -2.16799 -5.98305e-19)
(1.91934 -2.15376 5.87339e-19)
(1.90661 -2.13948 0)
(1.89383 -2.12513 -5.59121e-19)
(1.88098 -2.11072 1.62904e-18)
(1.86807 -2.09624 0)
(1.8551 -2.08168 0)
(1.84205 -2.06706 -1.50763e-18)
(1.82894 -2.05235 2.45159e-18)
(1.81575 -2.03756 9.54082e-19)
(4.02711 -4.54139 0)
(3.66547 -4.13391 -7.88606e-19)
(3.50489 -3.95377 7.30976e-19)
(3.39658 -3.83123 6.79009e-19)
(3.31369 -3.73812 9.46132e-18)
(3.24677 -3.66274 -9.40057e-18)
(3.19039 -3.59932 1.00614e-22)
(3.14154 -3.54438 -8.22534e-18)
(3.0983 -3.49577 8.22852e-18)
(3.0594 -3.45204 -7.30705e-18)
(3.02394 -3.41219 1.38485e-17)
(2.99128 -3.37549 -4.16607e-19)
(2.96093 -3.34139 -5.41249e-21)
(2.93253 -3.30948 -5.98891e-18)
(2.90578 -3.27944 0)
(2.88046 -3.25099 0)
(2.85638 -3.22394 5.28105e-18)
(2.8334 -3.19811 -1.04926e-17)
(2.81137 -3.17335 4.90877e-18)
(2.7902 -3.14955 -4.73587e-18)
(2.76979 -3.12661 4.58538e-18)
(2.75007 -3.10443 0)
(2.73097 -3.08294 -4.29976e-18)
(2.71243 -3.06208 3.13426e-18)
(2.69441 -3.04179 4.05388e-18)
(2.67685 -3.02202 -4.44009e-18)
(2.65972 -3.00273 0)
(2.64299 -2.98387 4.67349e-19)
(2.62661 -2.96541 0)
(2.61057 -2.94732 0)
(2.59483 -2.92957 4.33586e-19)
(2.57938 -2.91214 -3.38448e-18)
(2.5642 -2.895 3.31198e-18)
(2.54926 -2.87814 -2.82781e-18)
(2.53455 -2.86152 3.16621e-18)
(2.52004 -2.84514 7.73764e-19)
(2.50574 -2.82898 -2.64784e-18)
(2.49161 -2.81302 5.56097e-18)
(2.47766 -2.79725 -2.9075e-18)
(2.46387 -2.78166 3.55724e-19)
(2.45022 -2.76623 1.39436e-18)
(2.43672 -2.75095 -2.73066e-18)
(2.42334 -2.73581 2.01274e-18)
(2.41007 -2.72081 0)
(2.39692 -2.70593 1.2887e-18)
(2.38388 -2.69117 0)
(2.37093 -2.67651 1.85736e-18)
(2.35806 -2.66196 -6.1422e-19)
(2.34528 -2.64749 -2.39094e-18)
(2.33258 -2.63311 5.8587e-19)
(2.31994 -2.61881 0)
(2.30737 -2.60458 0)
(2.29485 -2.59041 0)
(2.28239 -2.57631 5.43579e-19)
(2.26998 -2.56226 -2.13096e-18)
(2.25761 -2.54826 4.18885e-18)
(2.24528 -2.5343 -4.62493e-18)
(2.23298 -2.52038 -4.98132e-19)
(2.22072 -2.5065 9.92891e-19)
(2.20848 -2.49265 -1.93932e-18)
(2.19626 -2.47882 6.2919e-21)
(2.18406 -2.46501 1.87296e-18)
(2.17187 -2.45123 9.17093e-19)
(2.15969 -2.43745 8.99545e-19)
(2.14752 -2.42368 0)
(2.13536 -2.40992 2.59191e-18)
(2.12319 -2.39616 -6.48351e-21)
(2.11103 -2.3824 -1.66601e-18)
(2.09885 -2.36863 -8.14836e-19)
(2.08667 -2.35485 0)
(2.07447 -2.34106 0)
(2.06225 -2.32726 -7.66244e-19)
(2.05002 -2.31343 0)
(2.03777 -2.29958 -7.34709e-19)
(2.02549 -2.2857 -2.15424e-18)
(2.01318 -2.2718 7.10529e-19)
(2.00084 -2.25786 -6.81909e-19)
(1.98847 -2.24388 1.35052e-18)
(1.97606 -2.22987 -6.58684e-19)
(1.96361 -2.21581 1.28792e-18)
(1.95112 -2.2017 -1.25876e-18)
(1.93859 -2.18755 0)
(1.926 -2.17334 0)
(1.91337 -2.15908 1.17316e-18)
(1.90068 -2.14476 0)
(1.88793 -2.13037 1.11771e-18)
(1.87512 -2.11592 -2.18091e-18)
(1.86226 -2.10141 0)
(1.84932 -2.08682 1.03694e-18)
(1.83632 -2.07215 0)
(1.82324 -2.05741 -9.84808e-19)
(1.81009 -2.04258 0)
(4.0142 -4.55232 1.36675e-17)
(3.65327 -4.14427 1.41416e-17)
(3.49348 -3.96338 -2.32616e-17)
(3.3854 -3.8406 5.68383e-21)
(3.30282 -3.74721 1.1261e-17)
(3.23613 -3.67163 -9.88339e-18)
(3.17995 -3.60804 -5.36828e-19)
(3.13128 -3.55295 8.13471e-18)
(3.08821 -3.50421 8.12089e-18)
(3.04945 -3.46037 -1.39786e-17)
(3.01413 -3.42042 4.3244e-19)
(2.98159 -3.38362 6.08432e-18)
(2.95136 -3.34945 0)
(2.92307 -3.31746 3.68652e-19)
(2.89643 -3.28735 3.52846e-19)
(2.87121 -3.25884 0)
(2.84723 -3.23173 5.20029e-18)
(2.82433 -3.20585 -5.20024e-21)
(2.80239 -3.18104 -4.53048e-18)
(2.7813 -3.15719 2.91523e-19)
(2.76097 -3.1342 0)
(2.74133 -3.11198 -3.8191e-18)
(2.7223 -3.09046 3.70749e-18)
(2.70383 -3.06956 -1.74066e-23)
(2.68587 -3.04923 -3.98958e-18)
(2.66837 -3.02942 4.36977e-18)
(2.6513 -3.01009 0)
(2.63462 -2.9912 0)
(2.6183 -2.97271 -3.13589e-18)
(2.60231 -2.95459 5.20703e-21)
(2.58663 -2.93681 3.41731e-18)
(2.57123 -2.91935 0)
(2.55609 -2.90218 -3.25586e-18)
(2.5412 -2.88528 2.79001e-18)
(2.52653 -2.86863 -2.72359e-18)
(2.51207 -2.85222 2.67029e-18)
(2.49781 -2.83603 -3.73039e-19)
(2.48373 -2.82004 -2.55435e-18)
(2.46982 -2.80424 2.86536e-18)
(2.45607 -2.78861 0)
(2.44246 -2.77315 2.74652e-18)
(2.42899 -2.75784 -2.69813e-18)
(2.41565 -2.74268 0)
(2.40243 -2.72764 0)
(2.38932 -2.71273 -3.17607e-18)
(2.37631 -2.69794 1.87422e-18)
(2.36339 -2.68325 3.05776e-18)
(2.35056 -2.66866 -4.2052e-18)
(2.33782 -2.65416 2.36144e-18)
(2.32515 -2.63975 0)
(2.31255 -2.62541 0)
(2.30001 -2.61115 2.78597e-18)
(2.28754 -2.59695 -2.19339e-18)
(2.27511 -2.58281 -5.37618e-19)
(2.26274 -2.56873 0)
(2.2504 -2.55469 -2.58795e-18)
(2.23811 -2.5407 6.08945e-21)
(2.22585 -2.52675 1.50134e-18)
(2.21362 -2.51284 2.93848e-18)
(2.20141 -2.49895 -2.40926e-18)
(2.18923 -2.48509 9.44661e-19)
(2.17706 -2.47125 0)
(2.16491 -2.45742 -1.82555e-23)
(2.15277 -2.44361 0)
(2.14064 -2.42981 8.75809e-19)
(2.12851 -2.41602 8.55914e-19)
(2.11638 -2.40222 -1.6885e-18)
(2.10425 -2.38843 8.26332e-19)
(2.09211 -2.37462 8.10207e-19)
(2.07997 -2.36081 7.94256e-19)
(2.06781 -2.34699 -1.55367e-18)
(2.05563 -2.33314 2.29187e-18)
(2.04343 -2.31928 0)
(2.03122 -2.3054 7.32093e-19)
(2.01898 -2.29148 -7.16925e-19)
(2.00671 -2.27754 -1.40385e-18)
(1.99441 -2.26357 -6.87062e-19)
(1.98207 -2.24955 0)
(1.9697 -2.2355 6.57795e-19)
(1.95729 -2.22141 0)
(1.94484 -2.20727 1.25818e-18)
(1.93234 -2.19308 0)
(1.9198 -2.17883 0)
(1.9072 -2.16453 -1.17088e-18)
(1.89455 -2.15017 3.41758e-21)
(1.88185 -2.13575 1.1198e-18)
(1.86908 -2.12127 1.72002e-23)
(1.85625 -2.10671 -1.06655e-18)
(1.84336 -2.09208 -1.0404e-18)
(1.8304 -2.07738 -2.02565e-18)
(1.81736 -2.0626 9.92436e-19)
(1.80426 -2.04773 0)
(4.00086 -4.56366 -1.36465e-17)
(3.64077 -4.15491 1.17467e-17)
(3.48174 -3.97334 0)
(3.37392 -3.8503 1.0701e-17)
(3.29166 -3.75662 -1.11597e-17)
(3.22519 -3.68084 -6.25512e-23)
(3.16922 -3.61707 8.04534e-18)
(3.12072 -3.56184 -5.64018e-21)
(3.07781 -3.51297 -8.49493e-18)
(3.03919 -3.469 0)
(3.004 -3.42895 -4.21002e-19)
(2.97159 -3.39206 -6.39196e-18)
(2.94148 -3.35779 6.09035e-18)
(2.9133 -3.32573 0)
(2.88676 -3.29554 -3.47456e-19)
(2.86164 -3.26696 -3.33189e-19)
(2.83775 -3.23979 0)
(2.81495 -3.21384 -4.61912e-18)
(2.79309 -3.18898 9.20902e-18)
(2.77208 -3.16508 -9.46614e-18)
(2.75183 -3.14204 8.87628e-18)
(2.73226 -3.11977 -5.42229e-19)
(2.71331 -3.0982 -3.64761e-18)
(2.69491 -3.07725 5.05348e-19)
(2.67701 -3.05689 0)
(2.65958 -3.03704 -4.77391e-19)
(2.64257 -3.01767 0)
(2.62595 -2.99874 4.0706e-18)
(2.60969 -2.98021 -3.97299e-18)
(2.59376 -2.96206 3.44012e-18)
(2.57813 -2.94424 -6.72079e-18)
(2.56278 -2.92675 3.69489e-18)
(2.5477 -2.90954 0)
(2.53285 -2.89261 3.13325e-18)
(2.51823 -2.87593 -6.90184e-18)
(2.50382 -2.85949 3.00455e-18)
(2.4896 -2.84326 2.38069e-24)
(2.47557 -2.82724 0)
(2.4617 -2.8114 -3.16983e-18)
(2.44799 -2.79575 5.39093e-21)
(2.43443 -2.78025 2.03468e-18)
(2.421 -2.76491 0)
(2.4077 -2.74971 -2.60293e-18)
(2.39452 -2.73464 3.19802e-18)
(2.38145 -2.7197 0)
(2.36848 -2.70487 1.08546e-23)
(2.3556 -2.69015 -2.41314e-18)
(2.34282 -2.67553 4.15033e-18)
(2.33011 -2.661 -2.9133e-18)
(2.31748 -2.64655 0)
(2.30492 -2.63218 5.61191e-19)
(2.29242 -2.61788 -5.51091e-19)
(2.27998 -2.60365 0)
(2.26759 -2.58948 -2.1229e-18)
(2.25525 -2.57536 2.09071e-18)
(2.24296 -2.56129 5.12579e-19)
(2.2307 -2.54727 0)
(2.21848 -2.53328 9.88635e-19)
(2.20628 -2.51933 -4.8541e-19)
(2.19412 -2.50541 9.22152e-24)
(2.18197 -2.49152 9.32841e-19)
(2.16984 -2.47764 -1.84086e-18)
(2.15773 -2.46378 -9.02043e-19)
(2.14563 -2.44994 -8.85397e-19)
(2.13353 -2.4361 -8.68987e-19)
(2.12144 -2.42227 0)
(2.10935 -2.40844 8.36692e-19)
(2.09726 -2.39461 -8.20838e-19)
(2.08516 -2.38077 -1.61026e-18)
(2.07305 -2.36692 -7.89604e-19)
(2.06093 -2.35306 -1.54517e-18)
(2.04879 -2.33918 2.28026e-18)
(2.03663 -2.32528 -1.48456e-18)
(2.02446 -2.31136 7.32306e-19)
(2.01225 -2.29741 2.13933e-18)
(2.00002 -2.28343 -7.02892e-19)
(1.98776 -2.26942 6.8507e-19)
(1.97547 -2.25537 -1.33803e-18)
(1.96314 -2.24128 1.31628e-18)
(1.95077 -2.22715 0)
(1.93836 -2.21297 -2.51357e-18)
(1.9259 -2.19875 -1.22911e-18)
(1.9134 -2.18447 1.20172e-18)
(1.90084 -2.17013 -2.34921e-18)
(1.88823 -2.15573 1.14776e-18)
(1.87557 -2.14127 -2.23894e-18)
(1.86284 -2.12675 2.19321e-18)
(1.85006 -2.11215 1.59882e-23)
(1.83721 -2.09749 1.03972e-18)
(1.82429 -2.08275 -3.42425e-21)
(1.8113 -2.06792 -9.92586e-19)
(1.79823 -2.05302 9.64319e-19)
(3.98706 -4.57537 -1.28282e-17)
(3.62794 -4.16584 -1.24771e-17)
(3.46963 -3.98362 5.32852e-21)
(3.3621 -3.86029 2.12405e-17)
(3.28015 -3.76632 -9.21438e-18)
(3.21392 -3.69034 9.68056e-18)
(3.15815 -3.6264 -7.95894e-18)
(3.10983 -3.57101 0)
(3.06708 -3.522 4.6563e-19)
(3.02861 -3.47792 6.58021e-18)
(2.99355 -3.43776 -6.22885e-18)
(2.96126 -3.40077 7.87699e-19)
(2.93127 -3.36641 3.7482e-19)
(2.9032 -3.33426 -5.36191e-18)
(2.87676 -3.30399 5.81805e-18)
(2.85174 -3.27534 5.57237e-18)
(2.82795 -3.2481 -5.0428e-18)
(2.80523 -3.22209 4.84809e-18)
(2.78346 -3.19716 -4.6786e-18)
(2.76254 -3.17321 -2.82186e-19)
(2.74236 -3.15011 -4.36295e-18)
(2.72287 -3.12779 4.22911e-18)
(2.70399 -3.10617 5.12156e-19)
(2.68566 -3.08518 -4.97028e-19)
(2.66784 -3.06477 0)
(2.65047 -3.04488 -3.75366e-18)
(2.63353 -3.02546 3.65832e-18)
(2.61697 -3.00649 -4.45131e-19)
(2.60077 -2.98793 0)
(2.5849 -2.96973 3.80729e-18)
(2.56932 -2.95188 -3.72157e-18)
(2.55403 -2.93434 -4.0337e-18)
(2.539 -2.9171 3.15833e-18)
(2.52421 -2.90014 -3.08325e-18)
(2.50964 -2.88342 3.39884e-18)
(2.49528 -2.86694 0)
(2.48111 -2.85068 3.61646e-19)
(2.46712 -2.83462 3.54244e-19)
(2.4533 -2.81875 -2.08004e-18)
(2.43964 -2.80306 5.44385e-18)
(2.42612 -2.78753 -6.72549e-19)
(2.41274 -2.77216 -4.58053e-18)
(2.39948 -2.75692 2.57041e-18)
(2.38634 -2.74182 1.257e-18)
(2.37331 -2.72685 -2.47537e-18)
(2.36039 -2.71199 6.0678e-19)
(2.34755 -2.69723 2.38e-18)
(2.33481 -2.68257 -1.17259e-18)
(2.32214 -2.66801 2.86903e-18)
(2.30955 -2.65353 -1.6951e-18)
(2.29703 -2.63912 -9.28821e-24)
(2.28457 -2.62479 0)
(2.27217 -2.61052 -2.13535e-18)
(2.25982 -2.59632 2.6285e-18)
(2.24752 -2.58216 0)
(2.23527 -2.56806 0)
(2.22305 -2.554 1.98821e-18)
(2.21087 -2.53998 -9.83999e-19)
(2.19871 -2.52599 -2.4047e-18)
(2.18658 -2.51204 -1.41236e-18)
(2.17448 -2.49811 1.85663e-18)
(2.16239 -2.4842 -9.1019e-19)
(2.15032 -2.4703 8.90728e-19)
(2.13825 -2.45642 -8.80762e-19)
(2.1262 -2.44255 -1.72024e-18)
(2.11415 -2.42868 1.69496e-18)
(2.10209 -2.41482 -1.6606e-18)
(2.09004 -2.40095 0)
(2.07798 -2.38707 3.19516e-18)
(2.06591 -2.37319 -1.57217e-18)
(2.05383 -2.35929 -1.53577e-18)
(2.04173 -2.34537 7.57936e-19)
(2.02961 -2.33144 0)
(2.01748 -2.31748 7.2547e-19)
(2.00531 -2.3035 0)
(1.99312 -2.28948 6.9677e-19)
(1.9809 -2.27543 6.79292e-19)
(1.96865 -2.26134 -1.34054e-18)
(1.95636 -2.24722 0)
(1.94403 -2.23305 6.40922e-19)
(1.93166 -2.21883 2.50911e-18)
(1.91925 -2.20456 1.22751e-18)
(1.90679 -2.19024 -1.20071e-18)
(1.89427 -2.17587 1.67254e-23)
(1.88171 -2.16143 0)
(1.86909 -2.14694 -1.12179e-18)
(1.8564 -2.13237 -3.42682e-21)
(1.84366 -2.11774 -3.42353e-21)
(1.83085 -2.10303 0)
(1.81798 -2.08825 -1.02023e-18)
(1.80503 -2.07339 1.9876e-18)
(1.79201 -2.05845 -3.45356e-21)
(3.9728 -4.58746 -1.28093e-17)
(3.61474 -4.17705 -1.24283e-17)
(3.45714 -3.99421 2.28401e-17)
(3.34993 -3.87057 -1.05378e-17)
(3.26829 -3.77633 0)
(3.2023 -3.70014 0)
(3.14674 -3.63601 0)
(3.0986 -3.58047 7.8329e-18)
(3.05601 -3.53133 -7.35414e-18)
(3.01769 -3.48712 4.32752e-19)
(2.98276 -3.44684 6.54296e-18)
(2.9506 -3.40975 -3.93258e-19)
(2.92072 -3.3753 -1.21804e-17)
(2.89276 -3.34306 5.28385e-18)
(2.86643 -3.31271 -6.73368e-19)
(2.84151 -3.28399 5.48313e-18)
(2.81781 -3.25667 3.04876e-19)
(2.79518 -3.23059 -5.07194e-18)
(2.7735 -3.2056 0)
(2.75266 -3.18158 4.99242e-18)
(2.73257 -3.15843 -4.29512e-18)
(2.71315 -3.13605 5.19492e-19)
(2.69435 -3.11438 -5.03539e-19)
(2.67609 -3.09334 4.88656e-19)
(2.65834 -3.07287 0)
(2.64104 -3.05294 3.69055e-18)
(2.62416 -3.03348 -3.5969e-18)
(2.60767 -3.01446 4.37682e-19)
(2.59153 -2.99585 4.26687e-19)
(2.57572 -2.97762 -8.3253e-19)
(2.56021 -2.95972 3.65485e-18)
(2.54497 -2.94215 -5.95447e-18)
(2.53 -2.92487 3.1065e-18)
(2.51526 -2.90786 2.65352e-18)
(2.50074 -2.89111 -5.93998e-18)
(2.48644 -2.87459 2.9098e-18)
(2.47232 -2.85829 3.55879e-19)
(2.45838 -2.8422 -3.48644e-19)
(2.44461 -2.82629 2.73083e-18)
(2.431 -2.81056 -2.34738e-18)
(2.41753 -2.795 -1.3113e-18)
(2.40419 -2.77959 1.93597e-18)
(2.39098 -2.76432 -6.3231e-19)
(2.37789 -2.74919 2.47952e-18)
(2.3649 -2.73417 -2.43926e-18)
(2.35202 -2.71928 2.98751e-18)
(2.33923 -2.70449 -5.48439e-21)
(2.32653 -2.68979 -5.82274e-19)
(2.31391 -2.67519 -2.26876e-18)
(2.30136 -2.66068 -5.56493e-19)
(2.28888 -2.64624 1.63729e-18)
(2.27646 -2.63187 -2.1514e-18)
(2.2641 -2.61757 -5.27768e-19)
(2.2518 -2.60333 0)
(2.23954 -2.58914 -5.09575e-19)
(2.22732 -2.575 -2e-18)
(2.21515 -2.5609 2.46312e-18)
(2.203 -2.54685 2.89795e-18)
(2.19089 -2.53282 -9.53119e-19)
(2.1788 -2.51883 0)
(2.16674 -2.50486 9.17212e-19)
(2.15469 -2.49092 2.70026e-18)
(2.14266 -2.47699 -1.77344e-18)
(2.13064 -2.46307 8.69482e-19)
(2.11862 -2.44916 -1.70483e-18)
(2.10661 -2.43526 6.25489e-21)
(2.0946 -2.42135 3.29701e-18)
(2.08259 -2.40745 0)
(2.07057 -2.39354 -1.20511e-23)
(2.05854 -2.37961 1.55462e-18)
(2.0465 -2.36568 -1.53193e-18)
(2.03444 -2.35173 0)
(2.02237 -2.33775 2.20368e-18)
(2.01027 -2.32376 -6.54306e-21)
(1.99815 -2.30973 -1.4182e-18)
(1.986 -2.29568 6.90233e-19)
(1.97382 -2.28159 -6.83062e-19)
(1.96161 -2.26747 0)
(1.94937 -2.2533 0)
(1.93708 -2.23909 -8.79677e-24)
(1.92475 -2.22484 -1.71106e-23)
(1.91238 -2.21053 1.22507e-18)
(1.89996 -2.19617 -1.19887e-18)
(1.88749 -2.18176 3.41733e-21)
(1.87497 -2.16728 6.82827e-21)
(1.86239 -2.15275 3.36843e-18)
(1.84976 -2.13814 1.09641e-18)