/*--------------------------------*- C++ -*----------------------------------*\
  =========                 |
  \\      /  F ield         | OpenFOAM: The Open Source CFD Toolbox
   \\    /   O peration     | Website:  https://openfoam.org
    \\  /    A nd           | Version:  10
     \\/     M anipulation  |
\*---------------------------------------------------------------------------*/
FoamFile
{
    format      ascii;
    class       volScalarField;
    location    "1400";
    object      k;
}
// * * * * * * * * * * * * * * * * * * * * * * * * * * * * * * * * * * * * * //

dimensions      [0 2 -2 0 0 0 0];

internalField   nonuniform List<scalar> 
420
(
2.22045e-16
2.22045e-16
2.22045e-16
2.22045e-16
2.22045e-16
2.22045e-16
2.22045e-16
2.22045e-16
2.22045e-16
2.22045e-16
2.22045e-16
2.22045e-16
2.22045e-16
2.22045e-16
2.22045e-16
2.22045e-16
2.22045e-16
2.22045e-16
2.22045e-16
2.22045e-16
2.22045e-16
2.22045e-16
2.22045e-16
2.22045e-16
2.22045e-16
2.22045e-16
2.22045e-16
2.22045e-16
2.22045e-16
2.22045e-16
2.22045e-16
2.22045e-16
2.22045e-16
2.22045e-16
2.22045e-16
2.22045e-16
2.22045e-16
2.22045e-16
2.22045e-16
2.22045e-16
2.22045e-16
2.22045e-16
2.22045e-16
2.22045e-16
2.22045e-16
2.22045e-16
2.22045e-16
2.22045e-16
2.22045e-16
2.22045e-16
2.22045e-16
2.22045e-16
2.22045e-16
2.22045e-16
2.22045e-16
2.22045e-16
2.22045e-16
2.22045e-16
2.22045e-16
2.22045e-16
2.22045e-16
2.22045e-16
2.22045e-16
2.22045e-16
2.22045e-16
2.22045e-16
2.22045e-16
2.22045e-16
2.22045e-16
2.22045e-16
2.22045e-16
2.22045e-16
2.22045e-16
2.22045e-16
2.22045e-16
2.22045e-16
2.22045e-16
2.22045e-16
2.22045e-16
2.22045e-16
2.22045e-16
2.22045e-16
2.22045e-16
2.22045e-16
2.22045e-16
2.22045e-16
2.22045e-16
2.22045e-16
2.22045e-16
2.22045e-16
2.22045e-16
2.22045e-16
2.22045e-16
2.22045e-16
2.22045e-16
2.22045e-16
2.22045e-16
2.22045e-16
2.22045e-16
2.22045e-16
2.22045e-16
2.22045e-16
2.22045e-16
2.84015e-16
3.39496e-16
3.02417e-16
2.39793e-16
2.22045e-16
3.79112e-16
2.22045e-16
2.22045e-16
2.22045e-16
2.22045e-16
2.85637e-16
3.40781e-16
3.06664e-16
2.42477e-16
2.22045e-16
3.8786e-16
2.22045e-16
2.22045e-16
2.22045e-16
2.22045e-16
2.88227e-16
3.42073e-16
3.09568e-16
2.45007e-16
2.22045e-16
3.81621e-16
2.22045e-16
2.22045e-16
2.22045e-16
2.22045e-16
2.92807e-16
3.44202e-16
3.11645e-16
2.47088e-16
2.22045e-16
3.64425e-16
2.22045e-16
2.22045e-16
2.22045e-16
2.22045e-16
2.98463e-16
3.46682e-16
3.12699e-16
2.4874e-16
2.22045e-16
3.47308e-16
2.22045e-16
2.22045e-16
2.22045e-16
2.22045e-16
3.04443e-16
3.5013e-16
3.12569e-16
2.49872e-16
2.22045e-16
3.33254e-16
2.22045e-16
2.22045e-16
2.22045e-16
2.22045e-16
3.10869e-16
3.53435e-16
3.11612e-16
2.50483e-16
2.22045e-16
3.21725e-16
2.22045e-16
2.22045e-16
2.22045e-16
2.22045e-16
3.17404e-16
3.5603e-16
3.10227e-16
2.50546e-16
2.22045e-16
3.11574e-16
2.22045e-16
2.22045e-16
2.22045e-16
2.2983e-16
3.23698e-16
3.58015e-16
3.08799e-16
2.50296e-16
2.22045e-16
3.02193e-16
2.22045e-16
2.22045e-16
2.22045e-16
2.45643e-16
3.29596e-16
3.59939e-16
3.07992e-16
2.50685e-16
2.22045e-16
2.94028e-16
2.22045e-16
2.22045e-16
2.22045e-16
2.65819e-16
3.3233e-16
3.5945e-16
3.05302e-16
2.50101e-16
2.22045e-16
2.91162e-16
2.22045e-16
2.22045e-16
2.22045e-16
2.75961e-16
3.31182e-16
3.58215e-16
3.03617e-16
2.49334e-16
2.22045e-16
2.86757e-16
2.22045e-16
2.22045e-16
2.22045e-16
2.84289e-16
3.3046e-16
3.57606e-16
3.02396e-16
2.48508e-16
2.22045e-16
2.81138e-16
2.22045e-16
2.22045e-16
2.55245e-16
2.83649e-16
3.26754e-16
3.57427e-16
3.0167e-16
2.47998e-16
2.22045e-16
2.74998e-16
2.22045e-16
2.4011e-16
2.55278e-16
2.77407e-16
3.22495e-16
3.57232e-16
3.014e-16
2.47612e-16
2.22045e-16
2.64047e-16
2.22045e-16
2.3927e-16
2.4786e-16
2.69389e-16
3.17679e-16
3.56969e-16
3.01083e-16
2.47815e-16
2.22045e-16
2.52115e-16
2.22045e-16
2.33912e-16
2.40045e-16
2.61158e-16
3.12918e-16
3.56914e-16
3.01117e-16
2.48513e-16
2.22045e-16
2.40377e-16
2.22045e-16
2.28405e-16
2.32491e-16
2.52809e-16
3.08249e-16
3.56963e-16
3.0154e-16
2.49489e-16
2.22045e-16
2.29517e-16
2.22045e-16
2.23716e-16
2.25946e-16
2.44866e-16
3.03479e-16
3.56327e-16
3.02597e-16
2.50703e-16
2.22045e-16
2.22045e-16
2.22045e-16
2.22045e-16
2.22045e-16
2.38061e-16
3.0003e-16
3.55952e-16
3.04139e-16
2.52058e-16
2.22045e-16
2.22045e-16
2.22045e-16
2.22045e-16
2.22045e-16
2.32263e-16
2.97753e-16
3.56025e-16
3.05447e-16
2.53335e-16
2.26798e-16
2.30243e-16
2.22045e-16
2.22045e-16
2.22045e-16
2.2795e-16
2.96637e-16
3.5644e-16
3.07178e-16
2.56147e-16
2.26379e-16
2.61575e-16
2.22045e-16
2.22045e-16
2.22045e-16
2.22045e-16
2.27719e-16
2.28347e-16
2.26299e-16
2.23641e-16
2.22045e-16
2.22045e-16
2.22045e-16
2.22045e-16
2.22045e-16
2.22045e-16
2.22045e-16
2.22045e-16
2.22045e-16
2.22045e-16
2.22045e-16
2.22045e-16
2.22045e-16
2.22045e-16
2.22045e-16
2.22045e-16
2.22045e-16
2.22045e-16
2.22045e-16
2.22045e-16
2.22045e-16
2.22045e-16
2.22045e-16
2.22045e-16
2.22045e-16
2.22045e-16
2.22045e-16
2.22045e-16
2.22045e-16
2.22045e-16
2.22045e-16
2.22045e-16
2.22045e-16
2.22045e-16
2.22045e-16
2.22045e-16
2.22045e-16
2.22045e-16
2.22045e-16
2.22045e-16
2.22045e-16
2.22045e-16
2.22045e-16
2.22045e-16
2.22045e-16
2.22045e-16
2.22045e-16
2.22045e-16
2.22045e-16
2.22045e-16
2.22045e-16
2.22045e-16
2.22045e-16
2.22045e-16
2.22045e-16
2.22045e-16
2.22045e-16
2.22045e-16
2.22045e-16
2.22045e-16
2.22045e-16
2.22045e-16
2.22045e-16
2.22045e-16
2.22045e-16
2.22045e-16
2.22045e-16
2.22045e-16
2.22045e-16
2.22045e-16
2.22045e-16
2.22045e-16
2.22045e-16
2.22045e-16
2.22045e-16
2.22045e-16
2.22045e-16
2.22045e-16
2.22045e-16
2.22045e-16
2.22045e-16
2.22045e-16
2.22045e-16
2.22045e-16
2.22045e-16
2.22045e-16
2.22045e-16
2.22045e-16
2.22045e-16
2.22045e-16
2.22045e-16
2.22045e-16
2.22045e-16
)
;

boundaryField
{
    right
    {
        type            cyclic;
    }
    left
    {
        type            cyclic;
    }
    outerWall
    {
        type            kqRWallFunction;
        value           uniform 2.22045e-16;
    }
    stirrerWall
    {
        type            kqRWallFunction;
        value           uniform 2.22045e-16;
    }
    top
    {
        type            empty;
    }
    bottom
    {
        type            empty;
    }
}


// ************************************************************************* //
