/*--------------------------------*- C++ -*----------------------------------*\
  =========                 |
  \\      /  F ield         | OpenFOAM: The Open Source CFD Toolbox
   \\    /   O peration     | Website:  https://openfoam.org
    \\  /    A nd           | Version:  10
     \\/     M anipulation  |
\*---------------------------------------------------------------------------*/
FoamFile
{
    format      ascii;
    class       volScalarField;
    location    "1400";
    object      nut;
}
// * * * * * * * * * * * * * * * * * * * * * * * * * * * * * * * * * * * * * //

dimensions      [0 2 -1 0 0 0 0];

internalField   nonuniform List<scalar> 
420
(
1.04478e-20
5.4108e-20
1.56295e-19
3.09271e-19
4.84183e-19
6.57997e-19
7.96765e-19
8.38803e-19
7.54889e-19
6.14971e-19
1.04473e-20
5.54893e-20
1.52084e-19
2.95952e-19
4.6686e-19
6.4166e-19
7.82978e-19
8.25102e-19
7.34573e-19
5.83424e-19
1.04471e-20
5.71853e-20
1.51753e-19
2.88066e-19
4.51434e-19
6.21085e-19
7.5777e-19
7.94215e-19
6.95833e-19
5.37316e-19
1.04472e-20
5.88271e-20
1.53716e-19
2.84322e-19
4.376e-19
5.95181e-19
7.18964e-19
7.44897e-19
6.3793e-19
4.76647e-19
1.04476e-20
6.04695e-20
1.5627e-19
2.79537e-19
4.16267e-19
5.51088e-19
6.51679e-19
6.64104e-19
5.54875e-19
4.01486e-19
1.04483e-20
6.18785e-20
1.54279e-19
2.58899e-19
3.63771e-19
4.60811e-19
5.29905e-19
5.35333e-19
4.44737e-19
3.15716e-19
1.04493e-20
5.98904e-20
1.3278e-19
1.97465e-19
2.56036e-19
3.09463e-19
3.50614e-19
3.63146e-19
3.16471e-19
2.26547e-19
1.04506e-20
4.79163e-20
8.04278e-20
1.04422e-19
1.27621e-19
1.50953e-19
1.73084e-19
1.90106e-19
1.86034e-19
1.4087e-19
1.04522e-20
2.16083e-20
2.81713e-20
3.46872e-20
4.17914e-20
4.9478e-20
5.76969e-20
6.62035e-20
7.29604e-20
6.55366e-20
2.82342e-21
3.6643e-21
4.61494e-21
5.67535e-21
6.84552e-21
8.12545e-21
9.51514e-21
1.10146e-20
1.26238e-20
1.43428e-20
4.93721e-19
4.30601e-19
4.60973e-19
7.73786e-19
1.2035e-18
1.25823e-18
9.15302e-19
4.64066e-19
1.72732e-19
6.20016e-20
4.54902e-19
3.92495e-19
4.30612e-19
7.53889e-19
1.19307e-18
1.26223e-18
9.16601e-19
4.74348e-19
1.51515e-19
6.20034e-20
4.07541e-19
3.51862e-19
4.01597e-19
7.41062e-19
1.18691e-18
1.26447e-18
9.15428e-19
5.10735e-19
1.39713e-19
6.2004e-20
3.51859e-19
3.08505e-19
3.73397e-19
7.38156e-19
1.1894e-18
1.26759e-18
9.1128e-19
5.0532e-19
1.36316e-19
6.20033e-20
2.89631e-19
2.64181e-19
3.47472e-19
7.45134e-19
1.11871e-18
1.20798e-18
9.04823e-19
4.9666e-19
1.36971e-19
6.20012e-20
2.24513e-19
2.20903e-19
3.25128e-19
7.62422e-19
1.02198e-18
1.16356e-18
8.96577e-19
4.86029e-19
1.39435e-19
6.19978e-20
1.61623e-19
1.80595e-19
3.07539e-19
7.91925e-19
1.00146e-18
1.14009e-18
8.86831e-19
4.7427e-19
1.4228e-19
6.19932e-20
1.05986e-19
1.44589e-19
2.96221e-19
8.33919e-19
1.0103e-18
1.15593e-18
8.75651e-19
4.61919e-19
1.45336e-19
6.19873e-20
6.12323e-20
1.13679e-19
3.04378e-19
8.71571e-19
1.04048e-18
1.2146e-18
8.63491e-19
4.49175e-19
1.49093e-19
6.19801e-20
2.9042e-20
8.8799e-20
3.41617e-19
8.42742e-19
9.87212e-19
1.11669e-18
8.52012e-19
4.35963e-19
1.52613e-19
6.19718e-20
1.03958e-20
7.63312e-20
4.45667e-19
8.16279e-19
9.56246e-19
1.08477e-18
8.36981e-19
4.21042e-19
1.4864e-19
6.20994e-20
1.03958e-20
9.378e-20
5.52705e-19
8.13289e-19
9.6876e-19
1.13512e-18
8.2719e-19
4.06854e-19
1.48005e-19
6.20994e-20
5.68859e-20
2.47907e-19
6.36269e-19
8.0705e-19
9.65815e-19
1.15973e-18
8.15099e-19
3.91965e-19
1.45948e-19
6.19718e-20
2.72603e-19
5.19501e-19
6.39933e-19
8.20794e-19
9.7978e-19
1.17833e-18
8.11431e-19
3.85177e-19
1.41818e-19
6.19801e-20
5.16714e-19
5.59125e-19
6.36652e-19
8.17746e-19
9.69887e-19
1.156e-18
8.13021e-19
3.80575e-19
1.4245e-19
6.19873e-20
5.90261e-19
5.81312e-19
6.40323e-19
8.30954e-19
9.81818e-19
1.18012e-18
8.21994e-19
3.79624e-19
1.42478e-19
6.19932e-20
6.10165e-19
5.83156e-19
6.38468e-19
8.46323e-19
1.00422e-18
1.21214e-18
8.36629e-19
3.80747e-19
1.43373e-19
6.19978e-20
6.04776e-19
5.77716e-19
6.52432e-19
9.04811e-19
1.09496e-18
1.24718e-18
8.56711e-19
3.83983e-19
1.45535e-19
6.20012e-20
6.01157e-19
5.64384e-19
6.34799e-19
9.27243e-19
1.30283e-18
1.25799e-18
8.83571e-19
3.8984e-19
1.41044e-19
6.20033e-20
5.72484e-19
5.27135e-19
5.90203e-19
8.96978e-19
1.29613e-18
1.26959e-18
9.16273e-19
3.99716e-19
1.3742e-19
6.2004e-20
5.47165e-19
4.97099e-19
5.47499e-19
8.69698e-19
1.29123e-18
1.27851e-18
9.49633e-19
4.28321e-19
1.39113e-19
6.20034e-20
5.19108e-19
4.63793e-19
5.07626e-19
8.45449e-19
1.28782e-18
1.28654e-18
9.77979e-19
4.2725e-19
1.47265e-19
6.20016e-20
1.43428e-20
1.14667e-19
4.07311e-19
6.33256e-19
6.88398e-19
6.91431e-19
6.74833e-19
6.56728e-19
6.40196e-19
6.26765e-19
1.26238e-20
8.63803e-20
3.03965e-19
5.78153e-19
7.22203e-19
7.65622e-19
7.70016e-19
7.61644e-19
7.53314e-19
7.53546e-19
1.10146e-20
6.71711e-20
2.19498e-19
4.49296e-19
6.46275e-19
7.60215e-19
8.13318e-19
8.32124e-19
8.34926e-19
8.38662e-19
9.51514e-21
5.23534e-20
1.4733e-19
2.97274e-19
4.70525e-19
6.2061e-19
7.25234e-19
7.84702e-19
8.04356e-19
8.04544e-19
8.12545e-21
4.39726e-20
1.13761e-19
2.13377e-19
3.32134e-19
4.5196e-19
5.54975e-19
6.2798e-19
6.61523e-19
6.67224e-19
6.84552e-21
3.76855e-20
9.55062e-20
1.7128e-19
2.56565e-19
3.41753e-19
4.1623e-19
4.69728e-19
4.93549e-19
4.95506e-19
5.67535e-21
3.20242e-20
8.22209e-20
1.44489e-19
2.07843e-19
2.63784e-19
3.05475e-19
3.27658e-19
3.29273e-19
3.21763e-19
4.61494e-21
2.6479e-20
6.82316e-20
1.13919e-19
1.49377e-19
1.70958e-19
1.80373e-19
1.79127e-19
1.71625e-19
1.64098e-19
3.6643e-21
2.06535e-20
4.41519e-20
5.79675e-20
6.29929e-20
6.42592e-20
6.39456e-20
6.2007e-20
5.96587e-20
5.72063e-20
2.82342e-21
1.04522e-20
1.04506e-20
1.04493e-20
1.04483e-20
1.04476e-20
1.04472e-20
1.04471e-20
1.04473e-20
1.04478e-20
)
;

boundaryField
{
    right
    {
        type            cyclic;
    }
    left
    {
        type            cyclic;
    }
    outerWall
    {
        type            nutkWallFunction;
        Cmu             0.09;
        kappa           0.41;
        E               9.8;
        value           uniform 0;
    }
    stirrerWall
    {
        type            nutkWallFunction;
        Cmu             0.09;
        kappa           0.41;
        E               9.8;
        value           uniform 0;
    }
    top
    {
        type            empty;
    }
    bottom
    {
        type            empty;
    }
}


// ************************************************************************* //
