/*--------------------------------*- C++ -*----------------------------------*\
  =========                 |
  \\      /  F ield         | OpenFOAM: The Open Source CFD Toolbox
   \\    /   O peration     | Website:  https://openfoam.org
    \\  /    A nd           | Version:  10
     \\/     M anipulation  |
\*---------------------------------------------------------------------------*/
FoamFile
{
    format      ascii;
    class       volScalarField;
    location    "1400";
    object      omega;
}
// * * * * * * * * * * * * * * * * * * * * * * * * * * * * * * * * * * * * * //

dimensions      [0 0 -1 0 0 0 0];

internalField   nonuniform List<scalar> 
420
(
21252.7
4103.73
1420.67
717.961
458.596
337.455
278.683
264.716
294.142
361.065
21253.7
4001.57
1460.02
750.272
475.613
346.047
283.59
269.112
302.277
380.589
21254.2
3882.9
1463.2
770.812
491.865
357.511
293.024
279.578
319.106
413.247
21254
3774.53
1444.51
780.961
507.414
373.071
308.84
298.087
348.07
465.847
21253.2
3672.01
1420.91
794.329
533.419
402.921
340.727
334.352
400.17
553.057
21251.7
3588.4
1439.24
857.649
610.396
481.857
419.027
414.778
499.271
703.304
21249.7
3707.52
1672.28
1124.47
867.241
717.517
633.301
611.447
701.627
980.126
21247.1
4634.01
2760.79
2126.42
1739.88
1470.95
1282.87
1168
1193.57
1576.23
21243.8
10275.9
7881.94
6401.34
5313.17
4487.74
3848.46
3353.97
3043.36
3388.1
78643.9
60596.7
48114.3
39124.4
32436.5
27327.1
23335.9
20159.1
17589.3
15481.3
449.737
515.661
481.686
367.046
282.091
240.351
261.982
436.197
1434.55
3581.27
488.115
565.726
515.649
378.884
285.634
242.954
264.54
433.929
1448.21
3581.17
544.839
631.056
552.905
388.938
288.205
244.821
267.641
434.755
1437.87
3581.13
631.061
719.744
594.66
396.673
289.393
245.856
271.144
439.414
1408.22
3581.18
766.646
840.501
639.028
400.549
288.85
246.066
274.904
447.076
1384.86
3581.3
989.003
1005.17
682.946
399.31
286.626
245.599
278.696
456.855
1374.66
3581.49
1373.84
1229.51
722.004
392.548
283.34
244.876
282.448
468.182
1375.23
3581.76
2095.04
1535.7
749.592
380.487
279.709
244.233
286.125
480.701
1382.55
3582.1
3626.26
1953.27
755.08
364.023
276.411
243.931
289.866
494.338
1395.59
3582.51
7645.65
2500.53
719.059
344.234
273.985
244.168
294.227
509.32
1416.46
3582.99
21359.1
2908.96
596.451
321.864
271.676
244.061
298.814
527.369
1410.36
3575.63
21359.1
2367.72
499.292
314.759
271.224
244.309
301.423
545.761
1440.24
3575.63
3903.33
895.676
384.098
308.557
270.588
244.925
304.881
566.491
1478.94
3582.99
814.534
428.795
346.596
307.469
270.651
244.795
305.63
576.474
1466.38
3582.51
404.295
363.221
344.703
309.341
271.064
244.674
304.558
583.445
1475.69
3582.1
349.573
360.212
350.499
312.223
271.415
243.987
301.48
584.907
1490.5
3581.76
348.834
369.477
359.546
316.135
271.899
242.981
297.041
583.181
1509.93
3581.49
358.691
383.189
371.206
321.116
272.568
241.778
291.218
578.267
1537.35
3581.3
372.142
400.341
385.738
327.291
273.502
240.541
283.739
569.579
1574.3
3581.18
387.862
421.229
403.354
334.49
274.626
239.557
275.09
555.507
1615.81
3581.13
405.809
446.681
424.226
342.363
275.726
238.909
266.772
529.504
1655.08
3581.17
427.743
478.758
449.051
350.864
276.778
238.764
261.915
463.766
1481.14
3581.27
15481.3
1936.43
545.148
349.563
321.03
321.648
328.974
338.108
346.838
354.271
17589.3
2570.55
730.494
384.058
307.455
290.018
288.364
291.533
294.757
294.666
20159.1
3305.66
1011.6
494.206
343.576
292.081
273.011
266.841
265.945
264.76
23335.9
4241.26
1507.12
746.935
471.908
357.785
306.17
282.967
276.053
275.988
27327.1
5049.61
1951.86
1040.62
668.539
491.293
400.098
353.586
335.657
332.789
32436.5
5892.05
2324.92
1296.38
865.452
649.722
533.466
472.709
449.894
448.117
39124.4
6933.65
2700.59
1536.76
1068.33
841.768
726.883
677.671
674.349
690.088
48114.3
8385.69
3254.28
1949.15
1486.47
1298.83
1231.03
1239.59
1293.78
1353.12
60596.7
10750.9
5029.11
3830.5
3524.91
3455.45
3472.4
3580.96
3721.91
3881.47
78643.9
21243.8
21247.1
21249.7
21251.7
21253.2
21254
21254.2
21253.7
21252.7
)
;

boundaryField
{
    right
    {
        type            cyclic;
    }
    left
    {
        type            cyclic;
    }
    outerWall
    {
        beta1           0.075;
        blended         0;
        type            omegaWallFunction;
        value           nonuniform List<scalar> 
22
(
3581.27
3581.17
3581.13
3581.18
3581.3
3581.49
3581.76
3582.1
3582.51
3582.99
3575.63
3575.63
3582.99
3582.51
3582.1
3581.76
3581.49
3581.3
3581.18
3581.13
3581.17
3581.27
)
;
    }
    stirrerWall
    {
        beta1           0.075;
        blended         0;
        type            omegaWallFunction;
        value           nonuniform List<scalar> 
42
(
21252.7
21253.7
21254.2
21254
21253.2
21251.7
21249.7
21247.1
21243.8
78643.9
78643.9
60596.7
48114.3
39124.4
32436.5
27327.1
23335.9
20159.1
17589.3
15481.3
21359.1
21359.1
15481.3
17589.3
20159.1
23335.9
27327.1
32436.5
39124.4
48114.3
60596.7
78643.9
78643.9
21243.8
21247.1
21249.7
21251.7
21253.2
21254
21254.2
21253.7
21252.7
)
;
    }
    top
    {
        type            empty;
    }
    bottom
    {
        type            empty;
    }
}


// ************************************************************************* //
