/*--------------------------------*- C++ -*----------------------------------*\
  =========                 |
  \\      /  F ield         | OpenFOAM: The Open Source CFD Toolbox
   \\    /   O peration     | Website:  https://openfoam.org
    \\  /    A nd           | Version:  10
     \\/     M anipulation  |
\*---------------------------------------------------------------------------*/
FoamFile
{
    format      ascii;
    class       volScalarField;
    location    "1400";
    object      p;
}
// * * * * * * * * * * * * * * * * * * * * * * * * * * * * * * * * * * * * * //

dimensions      [0 2 -2 0 0 0 0];

internalField   nonuniform List<scalar> 
420
(
-0.297693
15.2634
31.3259
49.8333
69.9578
91.0381
112.617
134.064
154.865
174.506
0.0363985
14.9087
30.5101
48.5981
68.4236
89.4099
111.117
132.861
153.968
173.794
-0.040899
14.5326
29.7556
47.4248
66.9248
87.8017
109.639
131.653
153.03
173.056
-0.295204
14.1485
29.0759
46.3541
65.526
86.2471
108.133
130.355
152.01
172.279
-0.551433
13.8264
28.5019
45.4046
64.2287
84.7308
106.568
128.927
150.867
171.469
-0.767343
13.623
28.0824
44.6068
63.0378
83.2274
104.886
127.316
149.583
170.661
-0.937555
13.5655
27.8549
43.9989
61.976
81.7389
103.078
125.478
148.101
169.893
-1.06944
13.6629
27.8338
43.5927
61.0648
80.2756
101.119
123.301
146.248
168.985
-1.20959
13.9274
28.0129
43.401
60.3741
78.9623
99.1309
120.764
143.587
166.842
-1.43231
14.2993
28.1545
43.2176
59.8059
77.8788
97.4008
118.304
140.312
162.982
192.414
208.896
224.04
237.559
249.143
259.2
265.81
270.654
272.313
337.445
191.704
207.995
222.759
235.736
246.608
255.772
261.214
264.596
266.855
335.96
191.017
207.2
221.71
234.348
244.824
253.555
258.379
261.022
264.845
335.67
190.377
206.559
220.949
233.466
243.847
252.573
257.357
260.161
266.314
335.854
189.84
206.136
220.539
233.138
243.678
252.744
257.994
261.702
270.082
337.35
189.483
205.985
220.505
233.351
244.231
253.888
259.924
264.877
275.157
340.105
189.441
206.091
220.723
233.963
245.326
255.731
262.695
268.889
280.761
343.954
189.655
206.326
221.006
234.809
246.805
258.006
265.872
273.275
287.172
348.771
189.372
206.835
221.627
235.974
248.612
260.511
269.195
278.162
294.845
354.477
188.155
208.388
223.328
237.77
250.79
263.167
272.418
283.027
301.741
361.255
188.835
210.3
225.65
240.134
253.24
266.18
275.391
286.182
301.006
368.407
191.424
211.64
227.467
241.972
255.239
268.516
278.22
289.402
302.641
371.146
197.33
213.506
229.319
244.116
257.806
271.329
282.305
294.327
311.151
373.779
197.492
214.096
230.281
245.577
259.772
273.863
285.861
299.099
318.227
378.355
196.742
214.039
230.713
246.495
261.219
275.968
289.086
303.783
323.609
381.786
196.16
213.727
230.733
246.882
262.029
277.322
291.406
307.248
326.984
383.101
195.729
213.313
230.422
246.731
262.114
277.795
292.733
309.411
328.263
381.597
195.295
212.754
229.75
245.964
261.305
277.14
292.691
309.797
327.816
379.332
194.78
212.032
228.746
244.619
259.587
275.117
290.442
307.101
325.676
380.124
194.201
211.239
227.6
242.977
257.274
271.813
285.279
299.481
318.965
377.649
193.626
210.514
226.546
241.385
254.822
267.825
278.333
288.033
302.971
355.81
193.085
209.794
225.397
239.567
252.006
263.288
271.478
278.001
282.665
337.407
181.216
179.185
178.085
177.625
177.374
177.112
176.76
176.289
175.73
175.171
155.359
156.314
157.024
157.446
157.67
157.687
157.485
157.053
156.41
155.681
128.205
131.633
134.34
135.956
136.856
137.254
137.235
136.841
136.107
135.156
103.762
107.555
111.226
113.724
115.249
116.03
116.205
115.865
115.089
113.974
82.2126
85.2537
88.7557
91.5245
93.3709
94.407
94.7449
94.4749
93.7008
92.5191
63.0021
65.0701
67.7619
70.1673
71.9272
72.9832
73.3853
73.1858
72.4771
71.3629
45.8359
47.0466
48.7034
50.3477
51.6481
52.4513
52.7444
52.5577
51.9446
50.9992
30.5682
31.0986
31.7938
32.5305
33.1468
33.5206
33.5933
33.3591
32.8491
32.14
17.1782
17.0626
16.9923
16.9958
17.0187
16.9824
16.8352
16.5601
16.1656
15.7044
4.86954
3.71605
2.74429
2.13482
1.72755
1.39011
1.05823
0.729797
0.431788
0.144882
)
;

boundaryField
{
    right
    {
        type            cyclic;
    }
    left
    {
        type            cyclic;
    }
    outerWall
    {
        type            zeroGradient;
    }
    stirrerWall
    {
        type            zeroGradient;
    }
    top
    {
        type            empty;
    }
    bottom
    {
        type            empty;
    }
}


// ************************************************************************* //
