/*--------------------------------*- C++ -*----------------------------------*\
  =========                 |
  \\      /  F ield         | OpenFOAM: The Open Source CFD Toolbox
   \\    /   O peration     | Website:  https://openfoam.org
    \\  /    A nd           | Version:  10
     \\/     M anipulation  |
\*---------------------------------------------------------------------------*/
FoamFile
{
    format      ascii;
    class       surfaceScalarField;
    location    "1400";
    object      phi;
}
// * * * * * * * * * * * * * * * * * * * * * * * * * * * * * * * * * * * * * //

dimensions      [0 3 -1 0 0 0 0];

internalField   nonuniform List<scalar> 
788
(
2.40662e-06
-2.35921e-06
2.75165e-06
1.38045e-05
4.22691e-06
1.78762e-05
5.42218e-06
1.90999e-05
5.66006e-06
1.78767e-05
4.73601e-06
1.47124e-05
3.10475e-06
9.59975e-06
1.4456e-06
1.67466e-06
6.52893e-07
-1.12928e-05
-2.7698e-05
2.38731e-07
1.34555e-06
-3.64125e-06
2.78443e-06
1.26228e-05
4.63191e-06
1.62862e-05
6.14976e-06
1.76723e-05
6.77405e-06
1.71742e-05
6.41286e-06
1.4927e-05
5.59994e-06
1.0386e-05
4.70956e-06
2.86345e-06
4.23029e-06
-1.02475e-05
-2.66848e-05
3.73584e-06
1.02712e-06
-4.56229e-06
2.84798e-06
1.10786e-05
4.95204e-06
1.44325e-05
6.73898e-06
1.59685e-05
7.77642e-06
1.6058e-05
8.10047e-06
1.44704e-05
8.06614e-06
1.04168e-05
7.80046e-06
3.41167e-06
7.44212e-06
-9.4462e-06
-2.56979e-05
6.80139e-06
7.74914e-07
-5.22324e-06
2.688e-06
9.45659e-06
4.9569e-06
1.24108e-05
7.00732e-06
1.39793e-05
8.50779e-06
1.44527e-05
9.547e-06
1.32733e-05
1.02484e-05
9.66535e-06
1.05032e-05
3.32096e-06
1.00934e-05
-8.80527e-06
-2.46434e-05
9.11302e-06
4.77018e-07
-5.58273e-06
2.33414e-06
7.89652e-06
4.7083e-06
1.0275e-05
7.00862e-06
1.17023e-05
8.97686e-06
1.23236e-05
1.0607e-05
1.14205e-05
1.18613e-05
8.27494e-06
1.23666e-05
2.83856e-06
1.16128e-05
-8.00888e-06
-2.31821e-05
1.00282e-05
8.48552e-08
-5.54729e-06
1.83675e-06
6.4391e-06
4.26225e-06
8.06657e-06
6.75202e-06
9.17784e-06
9.07193e-06
9.75277e-06
1.10594e-05
9.09871e-06
1.24957e-05
6.56725e-06
1.28871e-05
2.2961e-06
1.14747e-05
-6.73355e-06
-2.1048e-05
9.06263e-06
-4.14501e-07
-5.01086e-06
1.25636e-06
5.05301e-06
3.6978e-06
5.80256e-06
6.25169e-06
6.50012e-06
8.70285e-06
6.91712e-06
1.08042e-05
6.51044e-06
1.20842e-05
4.86668e-06
1.2039e-05
2.0559e-06
9.74133e-06
-4.66289e-06
-1.80697e-05
6.43902e-06
-1.02406e-06
-3.8657e-06
7.09203e-07
3.58797e-06
3.18696e-06
3.442e-06
5.67409e-06
3.76676e-06
8.03457e-06
4.00521e-06
1.00484e-05
3.84951e-06
1.1181e-05
3.2096e-06
1.08263e-05
2.09837e-06
7.72126e-06
-1.7531e-06
-1.39252e-05
3.29964e-06
-1.74385e-06
-2.00497e-06
5.05926e-07
1.54889e-06
2.9841e-06
9.56589e-07
5.26508e-06
1.10776e-06
7.39989e-06
1.23528e-06
9.29673e-06
1.31009e-06
1.0662e-05
1.42844e-06
1.10462e-05
1.59421e-06
8.40969e-06
8.86769e-07
-6.7905e-06
1.13218e-06
-1.91925e-06
-3.61957e-07
4.23074e-07
1.22813e-06
2.16166e-06
3.29823e-06
4.72099e-06
6.39394e-06
7.27609e-06
3.23366e-07
-1.83251e-07
-4.87441e-05
-4.31467e-07
-8.26035e-05
-6.11661e-07
-0.00012899
-9.27848e-07
-0.000184511
-8.89617e-07
-0.000249245
-6.95063e-07
-0.000335172
1.61213e-06
-0.000423426
2.52975e-06
-0.000501983
-1.99004e-06
-0.000545817
-0.000559599
3.14205e-06
-4.79792e-05
2.82328e-06
-8.26263e-05
2.98512e-06
-0.000129876
3.51777e-06
-0.000185785
5.07563e-06
-0.000251219
7.20196e-06
-0.000337284
1.16331e-05
-0.000427561
2.05847e-05
-0.000511383
3.14249e-05
-0.000556582
-0.000527164
5.99582e-06
-4.7124e-05
5.74201e-06
-8.26135e-05
6.29111e-06
-0.000130684
7.64632e-06
-0.000187084
1.03307e-05
-0.000253792
1.33033e-05
-0.000340745
1.90259e-05
-0.000433314
3.24302e-05
-0.000523552
4.84818e-05
-0.000572733
-0.000478871
8.01558e-06
-4.62437e-05
7.85197e-06
-8.2852e-05
8.66084e-06
-0.000131715
1.0476e-05
-0.000188608
1.36113e-05
-0.000256732
1.69067e-05
-0.000344748
2.33874e-05
-0.000439494
3.64578e-05
-0.000536744
5.17143e-05
-0.000587983
-0.000427416
8.75196e-06
-4.53351e-05
8.91819e-06
-8.34571e-05
9.97192e-06
-0.000132927
1.18868e-05
-0.000190228
1.48225e-05
-0.000259707
1.77169e-05
-0.000348546
2.34905e-05
-0.000444654
3.47316e-05
-0.000548381
4.87036e-05
-0.000601697
-0.000378823
7.98848e-06
-4.4707e-05
8.80392e-06
-8.46544e-05
1.00843e-05
-0.000134198
1.17892e-05
-0.000191543
1.40357e-05
-0.00026198
1.62369e-05
-0.000351257
2.01965e-05
-0.000447823
2.90036e-05
-0.000557481
4.14018e-05
-0.000613624
-0.000337514
6.276e-06
-4.49701e-05
7.87753e-06
-8.6544e-05
9.28415e-06
-0.000135492
1.06445e-05
-0.000192575
1.2025e-05
-0.000263539
1.34379e-05
-0.000352848
1.53753e-05
-0.000448972
2.11552e-05
-0.000563541
3.27438e-05
-0.000624701
-0.000304888
4.5293e-06
-4.65679e-05
6.58428e-06
-8.88248e-05
7.98212e-06
-0.000136772
9.01534e-06
-0.000193473
9.54026e-06
-0.000264537
1.0137e-05
-0.000353536
1.03528e-05
-0.000448488
1.23978e-05
-0.000565982
2.22625e-05
-0.00063429
-0.000282521
3.23471e-06
-4.89944e-05
5.55159e-06
-9.13581e-05
6.82999e-06
-0.000137931
7.53972e-06
-0.000194185
7.40822e-06
-0.000265079
7.41396e-06
-0.000353635
6.0841e-06
-0.000446522
3.98347e-06
-0.000564327
8.87993e-06
-0.000639699
-0.000273238
4.77294e-06
-5.36238e-05
6.07678e-06
-9.28757e-05
6.2775e-06
-0.00013797
6.56616e-06
-0.00019432
6.13608e-06
-0.000265027
6.38689e-06
-0.000354029
6.14283e-06
-0.000446481
3.0618e-06
-0.000561324
-1.24453e-05
-0.000624555
-0.000286144
1.73606e-06
-5.54572e-05
1.34283e-06
-9.24009e-05
3.95798e-07
-0.000136676
-4.60599e-07
-0.000193358
-1.19749e-06
-0.000264888
-1.00556e-06
-0.000354316
-2.47353e-06
-0.000445067
3.55048e-06
-0.000567156
3.04302e-05
-0.000651563
-0.000255759
4.01374e-06
-5.95237e-05
3.24423e-06
-9.1519e-05
2.30585e-06
-0.00013524
1.53067e-06
-0.000192442
5.33718e-07
-0.000264565
3.12798e-07
-0.000354001
-1.75986e-06
-0.000442812
3.94635e-06
-0.000573045
3.35971e-05
-0.000681388
-0.000221828
3.54081e-06
-5.2301e-05
-1.08725e-05
-2.00784e-08
-8.84977e-05
-1.38257e-06
-0.000133427
-2.63449e-06
-0.00019089
-5.01254e-06
-0.000262561
-5.8306e-06
-0.000353012
-6.6111e-06
-0.000442329
-9.38896e-06
-0.000570114
-1.97479e-05
-0.000670939
-0.000241977
-1.81724e-06
-5.36464e-05
2.65629e-06
-2.95272e-06
-8.77561e-05
-3.28267e-06
-0.000132508
-4.15716e-06
-0.000189726
-6.35384e-06
-0.0002609
-6.94534e-06
-0.000352171
-9.79761e-06
-0.00043979
-1.33541e-05
-0.000566302
-1.05547e-05
-0.000673662
-0.000252837
-5.34652e-06
-5.543e-05
6.63715e-06
-5.65266e-06
-8.79412e-05
-5.68984e-06
-0.000132022
-6.47833e-06
-0.000188743
-8.8616e-06
-0.000259097
-9.80709e-06
-0.000350931
-1.31355e-05
-0.000436429
-1.79418e-05
-0.000561886
-1.26008e-05
-0.000678884
-0.000265698
-6.71402e-06
-5.62898e-05
7.04656e-06
-7.25566e-06
-8.80318e-05
-7.33542e-06
-0.000131607
-8.12341e-06
-0.000187826
-1.06482e-05
-0.000257271
-1.20506e-05
-0.000349603
-1.50518e-05
-0.000433265
-1.99715e-05
-0.000557352
-1.5956e-05
-0.000682741
-0.000281917
-7.25663e-06
-5.63308e-05
6.7027e-06
-8.1791e-06
-8.77593e-05
-8.40705e-06
-0.000131053
-9.29327e-06
-0.000186764
-1.19012e-05
-0.000255233
-1.36953e-05
-0.000347907
-1.64545e-05
-0.000430388
-2.12788e-05
-0.000552992
-1.8917e-05
-0.000684941
-0.000301062
-7.5148e-06
-5.57509e-05
6.33815e-06
-8.5851e-06
-8.71658e-05
-8.84578e-06
-0.000130407
-9.77612e-06
-0.000185686
-1.24527e-05
-0.000253203
-1.49121e-05
-0.000345676
-1.77701e-05
-0.000427517
-2.21837e-05
-0.000549094
-2.23053e-05
-0.000684597
-0.000323506
-7.50107e-06
-5.48229e-05
6.08816e-06
-8.27865e-06
-8.65105e-05
-8.28282e-06
-0.000129908
-9.03129e-06
-0.00018484
-1.14963e-05
-0.000251546
-1.43237e-05
-0.000343252
-1.77164e-05
-0.000424141
-2.29248e-05
-0.000544319
-2.85209e-05
-0.000678665
-0.000352156
-7.17234e-06
-5.36331e-05
5.74025e-06
-7.51994e-06
-8.58178e-05
-7.22449e-06
-0.000129603
-7.73616e-06
-0.000184319
-9.90686e-06
-0.000250332
-1.23523e-05
-0.000341223
-1.52513e-05
-0.000420968
-2.54326e-05
-0.000534344
-4.30012e-05
-0.000660886
-0.000395365
-6.36749e-06
-5.24255e-05
5.22203e-06
-6.34621e-06
-8.50036e-05
-6.00488e-06
-0.00012935
-6.42674e-06
-0.000184098
-8.33242e-06
-0.000249449
-1.08409e-05
-0.00033855
-9.9438e-06
-0.000420135
-3.61181e-05
-0.000507731
-0.000120775
-0.000578228
-0.00051537
-3.56179e-06
2.78992e-06
-3.95771e-06
-4.52195e-06
-5.54528e-06
-7.71279e-06
-1.08732e-05
-7.53797e-06
-1.58062e-05
-4.34557e-05
-2.00485e-05
8.71104e-06
-2.99366e-05
1.18429e-05
-3.42487e-05
1.01527e-05
-3.6211e-05
8.137e-06
-3.67707e-05
6.3977e-06
-3.6374e-05
5.27933e-06
-3.53107e-05
4.77597e-06
-3.36729e-05
4.36903e-06
-3.18334e-05
4.16849e-06
2.29525e-06
-5.65888e-06
1.41715e-05
-1.24547e-05
1.83539e-05
-1.71976e-05
1.46934e-05
-1.98705e-05
1.05324e-05
-2.09467e-05
7.20435e-06
-2.0821e-05
4.98426e-06
-1.97669e-05
3.73326e-06
-1.78819e-05
2.72809e-06
-1.54808e-05
2.27809e-06
9.6088e-07
9.4154e-07
1.32103e-05
-1.0165e-06
2.03974e-05
-4.00505e-06
1.7859e-05
-6.40168e-06
1.30095e-05
-7.67929e-06
8.54896e-06
-7.84542e-06
5.26087e-06
-7.00135e-06
3.08918e-06
-5.2481e-06
1.27611e-06
-2.63565e-06
2.68754e-08
-1.22839e-06
3.45887e-06
9.84361e-06
5.97211e-06
1.81627e-05
5.95788e-06
1.81951e-05
4.87879e-06
1.43146e-05
3.83325e-06
9.79319e-06
3.40909e-06
5.88236e-06
3.8314e-06
2.86728e-06
4.96294e-06
3.22885e-07
6.78742e-06
-1.71474e-06
-3.27343e-06
3.54355e-06
6.41609e-06
8.46904e-06
1.35157e-05
1.14968e-05
1.5434e-05
1.25824e-05
1.34249e-05
1.26684e-05
9.87163e-06
1.25197e-05
6.16827e-06
1.26259e-05
2.85762e-06
1.30082e-05
-3.04202e-08
1.36858e-05
-2.47761e-06
-4.36577e-06
2.892e-06
3.60822e-06
8.09103e-06
8.5063e-06
1.27456e-05
1.09107e-05
1.58173e-05
1.04503e-05
1.75022e-05
8.26693e-06
1.8292e-05
5.44059e-06
1.86015e-05
2.5831e-06
1.86479e-05
-8.57693e-08
1.85295e-05
-2.43082e-06
-4.27619e-06
2.10763e-06
1.53716e-06
6.56179e-06
4.12861e-06
1.14284e-05
6.05717e-06
1.54491e-05
6.44931e-06
1.8216e-05
5.52862e-06
1.98805e-05
3.81095e-06
2.07122e-05
1.78837e-06
2.08938e-05
-2.35535e-07
2.0472e-05
-1.98254e-06
-3.37394e-06
1.53854e-06
1.91693e-09
4.90193e-06
7.57049e-07
8.96222e-06
1.9499e-06
1.27863e-05
2.61281e-06
1.58155e-05
2.5173e-06
1.78462e-05
1.82592e-06
1.89191e-05
7.88071e-07
1.91635e-05
-3.79228e-07
1.87141e-05
-1.39449e-06
-2.23362e-06
9.35651e-07
-9.42954e-07
2.98229e-06
-1.3341e-06
5.63196e-06
-7.49392e-07
8.31534e-06
-7.90348e-08
1.0608e-05
2.52879e-07
1.22447e-05
2.53617e-07
1.31107e-05
2.45932e-08
1.32161e-05
-3.39505e-07
1.27841e-05
-7.74352e-07
-1.32607e-06
-9.51641e-07
-2.31107e-06
-3.06547e-06
-3.13288e-06
-2.85224e-06
-2.55354e-06
-2.46362e-06
-2.71465e-06
-3.3838e-06
)
;

boundaryField
{
    right
    {
        type            cyclic;
        value           nonuniform List<scalar> 
20
(
0.000558557
0.000551623
0.000498417
0.000423513
0.000336839
0.000250014
0.000185187
0.000129591
8.37945e-05
5.04713e-05
2.95193e-05
1.30956e-05
1.80666e-07
-8.40899e-06
-1.42936e-05
-1.83018e-05
-1.99692e-05
-1.85367e-05
-1.31314e-05
4.42736e-06
)
;
    }
    left
    {
        type            cyclic;
        value           nonuniform List<scalar> 
20
(
-0.000558557
-0.000551623
-0.000498417
-0.000423513
-0.000336839
-0.000250014
-0.000185187
-0.000129591
-8.37945e-05
-5.04713e-05
-2.95193e-05
-1.30956e-05
-1.80666e-07
8.40899e-06
1.42936e-05
1.83018e-05
1.99692e-05
1.85367e-05
1.31314e-05
-4.42736e-06
)
;
    }
    outerWall
    {
        type            calculated;
        value           uniform 0;
    }
    stirrerWall
    {
        type            calculated;
        value           uniform 0;
    }
    top
    {
        type            empty;
        value           nonuniform List<scalar> 0();
    }
    bottom
    {
        type            empty;
        value           nonuniform List<scalar> 0();
    }
}


// ************************************************************************* //
