/*--------------------------------*- C++ -*----------------------------------*\
  =========                 |
  \\      /  F ield         | OpenFOAM: The Open Source CFD Toolbox
   \\    /   O peration     | Website:  https://openfoam.org
    \\  /    A nd           | Version:  10
     \\/     M anipulation  |
\*---------------------------------------------------------------------------*/
FoamFile
{
    format      ascii;
    class       volVectorField;
    location    "1400";
    object      U;
}
// * * * * * * * * * * * * * * * * * * * * * * * * * * * * * * * * * * * * * //

dimensions      [0 1 -1 0 0 0 0];

internalField   nonuniform List<vector> 
420
(
(0.491965 8.77148 1.74806e-18)
(-0.112463 11.4177 -2.13476e-17)
(-0.0263323 13.058 -1.53397e-16)
(0.0324835 14.4182 4.58199e-17)
(0.0127754 15.5477 -3.62849e-16)
(-0.0968295 16.4984 0)
(-0.270071 17.293 0)
(-0.455382 17.8531 4.48201e-16)
(-0.552864 18.0269 -5.04304e-16)
(-0.624104 17.9051 0)
(-0.184768 8.797 1.19551e-17)
(-1.08023 11.3197 -2.79005e-17)
(-0.959212 12.9216 4.02201e-16)
(-0.963884 14.29 -7.41369e-16)
(-1.0429 15.4708 2.35832e-16)
(-1.19462 16.4957 2.19246e-17)
(-1.37117 17.3423 2.47766e-15)
(-1.54832 17.9351 -6.52728e-16)
(-1.64827 18.0835 1.06724e-15)
(-1.71376 17.9546 0)
(-0.791243 8.65702 -9.68729e-17)
(-1.93806 11.0796 1.98828e-17)
(-1.87123 12.675 3.58034e-16)
(-1.95305 14.0652 8.64145e-16)
(-2.10012 15.3025 -5.63821e-16)
(-2.29058 16.3902 2.94025e-15)
(-2.4732 17.2712 1.3289e-15)
(-2.65695 17.892 4.24939e-15)
(-2.7734 18.0315 -1.63259e-15)
(-2.83509 17.9004 -3.38682e-15)
(-1.40468 8.5246 9.31247e-17)
(-2.76388 10.7663 2.17892e-17)
(-2.78022 12.3385 -4.42832e-16)
(-2.94209 13.7349 5.49264e-16)
(-3.15397 15.0106 -1.02583e-15)
(-3.38366 16.1355 1.26072e-15)
(-3.58406 17.0488 -7.56287e-15)
(-3.77833 17.7117 0)
(-3.92461 17.8759 -3.52802e-15)
(-3.99715 17.7607 3.03755e-15)
(-2.02588 8.35525 0)
(-3.56606 10.3896 7.51569e-17)
(-3.67153 11.9193 -7.18915e-17)
(-3.91096 13.3025 0)
(-4.18388 14.5905 -2.1846e-16)
(-4.45716 15.731 -3.15635e-16)
(-4.69907 16.6759 2.50479e-15)
(-4.92668 17.3926 -3.33603e-15)
(-5.12884 17.618 0)
(-5.23873 17.5307 -1.22905e-14)
(-2.65496 8.15823 -4.60322e-17)
(-4.34292 9.95348 0)
(-4.53083 11.4203 0)
(-4.84387 12.7693 7.23297e-16)
(-5.18037 14.0466 -1.47217e-15)
(-5.51142 15.1984 1.75612e-15)
(-5.82832 16.1555 5.57341e-16)
(-6.12655 16.9366 7.31818e-15)
(-6.41902 17.2588 -8.86054e-15)
(-6.59287 17.21 5.91991e-15)
(-3.29587 7.94035 0)
(-5.08733 9.46223 -2.03149e-17)
(-5.34408 10.8513 -7.15111e-16)
(-5.72747 12.1469 -5.19885e-16)
(-6.13634 13.3906 -2.24965e-15)
(-6.54519 14.5344 1.69183e-15)
(-6.96987 15.5197 -4.235e-15)
(-7.39141 16.3739 7.45744e-16)
(-7.80581 16.828 -2.51307e-15)
(-8.05997 16.8259 -9.12439e-15)
(-3.9626 7.70376 1.04886e-16)
(-5.7804 8.91793 -2.53908e-19)
(-6.08967 10.2243 9.6583e-16)
(-6.5405 11.4575 4.92597e-16)
(-7.0336 12.6486 1.4975e-15)
(-7.5465 13.7728 0)
(-8.09643 14.8017 4.40466e-15)
(-8.67738 15.7453 5.8495e-15)
(-9.23216 16.3822 7.07637e-15)
(-9.58866 16.4257 7.2157e-15)
(-4.67692 7.43074 1.09311e-16)
(-6.39525 8.35427 -1.20249e-17)
(-6.77199 9.61057 1.28652e-17)
(-7.31166 10.7957 -9.30827e-16)
(-7.90528 11.9263 3.13674e-15)
(-8.52283 13.0084 5.10634e-15)
(-9.17312 14.0459 -1.86448e-15)
(-9.85361 15.0526 0)
(-10.5067 15.8824 0)
(-11.0174 15.9425 -7.40986e-15)
(-5.50464 7.04502 -1.05814e-16)
(-6.8981 7.74944 5.98272e-16)
(-7.47059 8.75922 0)
(-8.18782 9.76888 0)
(-8.93552 10.7717 -3.1941e-15)
(-9.68978 11.7856 -3.51556e-17)
(-10.4439 12.8215 5.80793e-15)
(-11.172 13.8771 -1.2692e-14)
(-11.8658 14.8521 1.51644e-14)
(-12.5291 15.1583 1.28136e-15)
(-0.650776 17.4537 0)
(-0.684994 16.6813 0)
(-0.659181 15.659 0)
(-0.569967 14.7629 -7.35307e-16)
(-0.594565 14.0999 0)
(-0.677753 13.1474 0)
(0.0828605 13.1086 8.03659e-16)
(-1.45962 14.1885 0)
(-4.97222 16.9759 0)
(25.1073 22.5359 0)
(-1.72357 17.4847 1.40956e-15)
(-1.72607 16.6496 2.33371e-15)
(-1.61716 15.5768 1.01418e-16)
(-1.44481 14.6824 7.93684e-16)
(-1.37162 14.0166 2.93986e-17)
(-1.29983 13.0898 8.32804e-16)
(-0.501673 13.0144 -1.19342e-16)
(-2.14557 13.8891 -7.44667e-17)
(-5.66741 16.6013 -2.45302e-15)
(28.1934 25.1114 -9.49329e-15)
(-2.82884 17.4104 1.22116e-15)
(-2.78674 16.5095 0)
(-2.57784 15.3966 -1.70593e-15)
(-2.32418 14.5014 -1.36096e-15)
(-2.15467 13.8057 4.04665e-15)
(-1.95306 12.8906 -8.24711e-16)
(-1.18055 12.7884 1.13422e-15)
(-2.87617 13.2929 0)
(-6.20673 15.7785 1.02284e-15)
(27.9504 29.2419 5.19142e-16)
(-3.98535 17.257 2.61654e-15)
(-3.88545 16.2818 6.27084e-15)
(-3.5668 15.1385 -6.35845e-15)
(-3.24162 14.2418 2.47049e-15)
(-2.99019 13.5018 -1.32606e-16)
(-2.67064 12.5841 0)
(-1.94038 12.4457 -1.14399e-15)
(-3.68101 12.5708 -1.16805e-15)
(-6.66104 14.875 -1.03438e-15)
(24.2145 32.7611 3.02956e-14)
(-5.22484 16.9995 2.29243e-15)
(-5.02832 15.9399 -2.04252e-15)
(-4.58282 14.7907 6.16749e-15)
(-4.19547 13.8982 -2.39444e-15)
(-3.87606 13.113 1.71197e-15)
(-3.45727 12.1977 -2.7131e-15)
(-2.81219 12.0153 1.66261e-15)
(-4.49962 11.7801 9.28932e-16)
(-7.22937 13.962 0)
(19.0926 35.3655 -5.6879e-14)
(-6.56225 16.6017 2.79777e-15)
(-6.20379 15.4565 -1.17185e-14)
(-5.62212 14.3448 -3.17044e-15)
(-5.1859 13.4684 6.95461e-15)
(-4.81209 12.6445 5.20972e-15)
(-4.30815 11.752 -2.1206e-16)
(-3.7567 11.5447 -7.81928e-17)
(-5.34742 10.9567 -9.76389e-16)
(-7.93723 13.008 -3.62508e-15)
(13.5716 37.0898 4.53076e-14)
(-7.95778 16.0325 2.88176e-15)
(-7.35923 14.8154 4.11576e-15)
(-6.65463 13.798 0)
(-6.18899 12.9573 -2.35279e-15)
(-5.76939 12.1176 -3.6701e-15)
(-5.19211 11.2683 -1.67485e-16)
(-4.72193 11.0641 -5.94685e-15)
(-6.20539 10.1256 -1.1148e-15)
(-8.69286 12.0027 4.68571e-15)
(8.14343 38.0008 -1.77812e-14)
(-9.29054 15.2586 1.10883e-14)
(-8.4421 14.0229 -3.77407e-15)
(-7.64629 13.1556 0)
(-7.16685 12.3674 6.87113e-17)
(-6.71347 11.5355 1.45246e-14)
(-6.07828 10.7465 -5.54809e-15)
(-5.68285 10.5722 -4.02576e-15)
(-7.04849 9.36654 3.0279e-15)
(-9.49179 10.9003 -2.66307e-15)
(3.06152 38.1449 0)
(-10.3417 14.2944 2.46187e-16)
(-9.4306 13.1311 -3.69346e-15)
(-8.58086 12.4488 0)
(-8.08023 11.7143 5.08318e-15)
(-7.60657 10.9015 -1.13897e-14)
(-6.91796 10.189 5.82482e-15)
(-6.59918 10.0653 2.21284e-15)
(-7.87523 8.71558 0)
(-10.3749 9.82617 -5.00432e-16)
(-1.63432 37.4954 2.21116e-14)
(-10.668 13.3675 4.04874e-16)
(-10.2643 12.1765 1.57251e-16)
(-9.42363 11.6616 0)
(-8.87252 10.9678 -1.0139e-14)
(-8.36743 10.1751 3.81218e-15)
(-7.60242 9.51787 -3.05554e-15)
(-7.25577 9.47175 1.94394e-15)
(-8.45111 8.09807 -5.19315e-17)
(-11.2429 8.95757 -9.77808e-17)
(-5.65273 35.6362 -2.1334e-14)
(-10.6534 13.5205 2.77937e-15)
(-11.0313 11.6283 -4.2803e-15)
(-10.3605 11.1243 0)
(-9.79988 10.4289 0)
(-9.27098 9.62852 0)
(-8.4806 9.00776 -1.76324e-15)
(-8.19083 9.0749 7.0631e-15)
(-9.00248 7.71093 0)
(-10.7551 8.98172 0)
(-8.34956 35.734 0)
(-11.3028 12.8188 -2.77574e-15)
(-11.5625 11.3113 -4.59251e-15)
(-11.0113 10.6932 0)
(-10.3831 9.9806 3.01354e-15)
(-9.79555 9.16072 -2.28591e-15)
(-8.9845 8.54453 1.93966e-15)
(-8.70932 8.70228 3.60506e-15)
(-9.30537 7.08472 5.66573e-17)
(-10.6137 7.95245 1.00423e-15)
(-10.1144 36.4893 0)
(-12.5489 11.1087 3.55806e-16)
(-12.2193 10.5013 -2.23355e-16)
(-11.6638 9.82639 0)
(-10.9521 9.14807 1.16454e-17)
(-10.2911 8.34375 5.36025e-15)
(-9.41594 7.73979 -3.92102e-15)
(-9.11544 7.9417 -1.00439e-14)
(-9.61786 5.95782 -5.59891e-15)
(-11.5756 5.31979 1.02575e-14)
(-12.5714 35.5524 2.38092e-14)
(-13.9698 10.037 -1.23852e-14)
(-13.3141 9.5195 4.51637e-15)
(-12.5961 8.95604 0)
(-11.8083 8.36655 -7.04333e-15)
(-11.1174 7.63514 -5.48633e-15)
(-10.1504 7.08164 8.81346e-15)
(-9.90758 7.34049 4.11334e-15)
(-10.3928 5.38506 0)
(-12.2332 4.84916 -7.62142e-15)
(-15.2956 33.6896 -4.8542e-15)
(-14.6791 8.70298 -2.52022e-16)
(-14.0796 8.34484 4.63924e-15)
(-13.3354 7.89048 0)
(-12.5085 7.39874 1.38156e-14)
(-11.795 6.73036 -3.51891e-17)
(-10.7723 6.19773 -5.89825e-17)
(-10.5736 6.59321 9.27514e-15)
(-10.9221 4.62925 -6.81988e-15)
(-12.4879 3.68074 -6.29459e-15)
(-17.937 31.4912 0)
(-15.2191 7.48324 -2.96139e-15)
(-14.6935 7.18917 1.03676e-14)
(-13.958 6.80603 9.05606e-15)
(-13.1138 6.40727 -1.04505e-14)
(-12.3955 5.80794 -1.8198e-14)
(-11.3251 5.29464 -5.74866e-16)
(-11.1803 5.83166 -4.98972e-15)
(-11.3901 3.91735 -4.05923e-15)
(-12.6315 2.57793 -9.77055e-15)
(-20.211 28.9965 -2.82182e-14)
(-15.7035 6.30404 -9.72182e-15)
(-15.2116 6.03468 5.36693e-15)
(-14.4791 5.70437 -4.02281e-15)
(-13.6285 5.39061 -1.14122e-14)
(-12.9148 4.85929 8.66289e-15)
(-11.7999 4.36995 -6.66623e-16)
(-11.7182 5.03269 9.67509e-15)
(-11.8029 3.18071 4.20363e-15)
(-12.7026 1.54959 6.54131e-15)
(-22.0741 26.2504 3.7346e-15)
(-16.1507 5.12395 2.83094e-15)
(-15.6553 4.87393 -2.72926e-15)
(-14.9077 4.59592 -2.60241e-16)
(-14.055 4.36453 1.13911e-14)
(-13.3496 3.9028 -1.62497e-14)
(-12.2053 3.44334 5.22592e-15)
(-12.1976 4.17046 -5.69369e-15)
(-12.1798 2.41801 1.33121e-14)
(-12.7523 0.626835 0)
(-23.6914 23.3136 -1.04024e-16)
(-16.548 3.92683 3.24041e-15)
(-16.0159 3.71366 2.7122e-15)
(-15.2344 3.507 4.71187e-15)
(-14.3802 3.36033 -7.46947e-15)
(-13.6803 2.97126 3.02329e-15)
(-12.5317 2.5793 0)
(-12.5931 3.28558 -2.66221e-15)
(-12.4591 1.64147 -9.53739e-15)
(-12.8736 -0.19003 -2.8665e-16)
(-25.0932 20.2352 2.34968e-14)
(-16.8769 2.71787 1.42624e-15)
(-16.2895 2.55296 0)
(-15.4693 2.42227 2.27713e-15)
(-14.6166 2.35963 2.07303e-15)
(-13.9194 2.04044 1.83729e-16)
(-12.7854 1.72483 -1.28031e-15)
(-12.917 2.45239 2.59121e-15)
(-12.7222 0.800108 0)
(-13.1873 -0.928536 4.41158e-15)
(-24.9956 16.3594 2.35083e-14)
(-17.1347 1.51067 1.58403e-15)
(-16.488 1.4036 -2.69343e-15)
(-15.6354 1.34193 -1.94661e-16)
(-14.8065 1.3473 6.79178e-16)
(-14.1221 1.11237 -1.43368e-16)
(-12.9834 0.792938 1.09422e-15)
(-13.2912 1.70711 -2.52825e-15)
(-13.4118 -0.0488645 -2.82319e-16)
(-14.4746 -3.19261 4.55298e-15)
(-26.41 12.174 -1.76635e-14)
(-17.3112 0.423599 2.16554e-29)
(-16.6036 0.339145 0)
(-15.6427 0.28278 0)
(-14.7469 0.295098 -8.35209e-16)
(-14.0796 0.165641 0)
(-13.0732 -0.174744 0)
(-12.9126 0.692668 1.09886e-15)
(-14.3388 -0.701251 0)
(-17.2229 -4.60897 0)
(-18.7516 21.3497 -8.96187e-29)
(-14.4033 12.5882 9.58091e-16)
(-14.8108 10.3069 -7.02741e-15)
(-15.2423 8.85746 6.9939e-15)
(-15.6031 7.60778 -9.85469e-15)
(-16.0038 6.44669 6.78824e-15)
(-16.4175 5.28524 -1.44901e-14)
(-16.821 4.0909 3.58623e-15)
(-17.1875 2.8724 -3.77709e-15)
(-17.5123 1.62698 0)
(-17.738 0.487469 -4.10877e-16)
(-15.0295 11.8882 1.42175e-14)
(-15.3378 9.88691 0)
(-15.5755 8.65257 7.18375e-15)
(-15.7876 7.52151 -2.8675e-15)
(-16.0875 6.44036 -1.02409e-14)
(-16.4443 5.33602 0)
(-16.8306 4.1817 -3.92494e-15)
(-17.2125 2.99772 -1.63451e-15)
(-17.5812 1.75451 1.1211e-15)
(-17.8497 0.575399 -4.55319e-16)
(-14.69 10.9996 -1.16941e-14)
(-15.3367 9.24721 0)
(-15.6212 8.18733 6.41687e-15)
(-15.7884 7.21663 7.42334e-16)
(-16.0126 6.24964 8.48779e-15)
(-16.3018 5.23351 -3.95381e-15)
(-16.6415 4.15567 0)
(-16.9991 3.05197 4.47536e-15)
(-17.3624 1.87267 -6.47292e-16)
(-17.6645 0.684408 5.59024e-16)
(-13.5945 10.2093 5.33206e-15)
(-14.7988 8.6668 -1.90949e-15)
(-15.3429 7.67602 4.65986e-15)
(-15.6031 6.83583 -5.06393e-15)
(-15.8075 5.98278 6.52072e-16)
(-16.0394 5.06122 3.39609e-15)
(-16.3173 4.06699 -1.08437e-14)
(-16.6152 3.04656 1.88843e-15)
(-16.9107 1.97455 2.97958e-15)
(-17.1523 0.850922 9.17277e-17)
(-12.342 9.49454 -7.95868e-15)
(-13.7076 8.14945 5.3407e-15)
(-14.603 7.18534 0)
(-15.0719 6.39498 1.85378e-15)
(-15.3697 5.63487 2.04748e-15)
(-15.6043 4.82689 -3.10024e-16)
(-15.8338 3.9532 1.67963e-15)
(-16.0603 3.02842 3.72703e-15)
(-16.2665 2.04729 -4.94012e-18)
(-16.4192 0.999311 3.22632e-16)
(-11.1225 8.79942 -3.18349e-15)
(-12.3961 7.66184 3.77337e-15)
(-13.4221 6.74559 1.58881e-15)
(-14.1004 5.97611 -2.56342e-15)
(-14.5485 5.25755 -1.64291e-15)
(-14.8718 4.5202 -2.514e-16)
(-15.1183 3.73154 -2.90399e-15)
(-15.3112 2.88989 9.64721e-16)
(-15.4548 1.99626 2.57634e-16)
(-15.5343 1.04235 -3.08741e-16)
(-9.97089 8.10775 0)
(-11.0201 7.18011 -1.23534e-15)
(-12.0182 6.35241 4.53616e-16)
(-12.7931 5.60867 -5.8827e-16)
(-13.3562 4.90846 9.16608e-16)
(-13.7626 4.20614 0)
(-14.0587 3.47141 6.33672e-16)
(-14.267 2.69478 9.75521e-16)
(-14.3896 1.86881 -8.29428e-16)
(-14.4377 0.98421 -2.97783e-17)
(-8.86778 7.41192 0)
(-9.67981 6.69634 -1.80971e-16)
(-10.5407 5.98462 1.73901e-15)
(-11.2863 5.28694 -1.26182e-15)
(-11.8882 4.60487 0)
(-12.3433 3.9207 -1.71011e-16)
(-12.6692 3.21592 -5.61364e-16)
(-12.8848 2.48059 4.88425e-16)
(-13.003 1.68902 4.62384e-16)
(-13.0595 0.855667 -1.87275e-16)
(-7.78881 6.65992 -7.87134e-16)
(-8.40953 6.12956 1.84308e-16)
(-9.10035 5.48961 1.82328e-16)
(-9.73857 4.81673 -1.82573e-16)
(-10.2733 4.1423 0)
(-10.6937 3.46012 1.85202e-16)
(-10.9984 2.76173 1.58472e-16)
(-11.1916 2.04491 -1.45578e-16)
(-11.2836 1.3127 -4.05448e-17)
(-11.341 0.583398 -1.09992e-18)
(-6.36224 6.25064 -1.78681e-16)
(-6.55049 6.02552 -1.32641e-18)
(-6.91807 5.50264 -1.45947e-17)
(-7.31392 4.90292 0)
(-7.69144 4.30118 1.34445e-17)
(-8.0204 3.70667 0)
(-8.28747 3.10779 8.75672e-17)
(-8.48664 2.49288 -3.49349e-17)
(-8.61945 1.85203 1.71929e-17)
(-8.65702 1.19738 -1.99354e-18)
)
;

boundaryField
{
    right
    {
        type            cyclic;
    }
    left
    {
        type            cyclic;
    }
    outerWall
    {
        type            calculated;
        value           nonuniform List<vector> 
22
(
(-1.55201 41.8305 0)
(-4.64749 41.6006 0)
(-7.71741 41.1419 0)
(-10.7449 40.4569 0)
(-13.7132 39.5492 0)
(-16.6061 38.424 0)
(-19.4075 37.0874 0)
(-22.1022 35.5467 0)
(-24.6752 33.8104 0)
(-27.1124 31.8882 0)
(-28.9573 30.2506 0)
(-30.2506 28.9573 0)
(-31.8882 27.1124 0)
(-33.8104 24.6752 0)
(-35.5467 22.1022 0)
(-37.0874 19.4075 0)
(-38.424 16.6061 0)
(-39.5492 13.7132 0)
(-40.4569 10.7449 0)
(-41.1419 7.71741 0)
(-41.6006 4.64749 0)
(-41.8305 1.55201 0)
)
;
    }
    stirrerWall
    {
        type            calculated;
        value           nonuniform List<vector> 
42
(
(-0.310178 8.3662 0)
(-0.928834 8.32046 0)
(-1.54239 8.22894 0)
(-2.14746 8.09214 0)
(-2.74072 7.91082 0)
(-3.31888 7.68598 0)
(-3.87877 7.41885 0)
(-4.41729 7.11092 0)
(-4.93148 6.76387 0)
(-5.4185 6.37963 0)
(-6.07951 6.64185 0)
(-6.92878 7.56862 0)
(-7.77806 8.49539 0)
(-8.62734 9.42216 0)
(-9.47661 10.3489 0)
(-10.3259 11.2757 0)
(-11.1752 12.2025 0)
(-12.0244 13.1292 0)
(-12.8737 14.056 0)
(-13.723 14.9828 0)
(-14.4723 15.1215 0)
(-15.1215 14.4723 0)
(-14.9828 13.723 0)
(-14.056 12.8737 0)
(-13.1292 12.0244 0)
(-12.2025 11.1752 0)
(-11.2757 10.3259 0)
(-10.3489 9.47661 0)
(-9.42216 8.62734 0)
(-8.49539 7.77806 0)
(-7.56862 6.92878 0)
(-6.64185 6.07951 0)
(-6.37963 5.4185 0)
(-6.76387 4.93148 0)
(-7.11092 4.41729 0)
(-7.41885 3.87877 0)
(-7.68598 3.31888 0)
(-7.91082 2.74072 0)
(-8.09214 2.14746 0)
(-8.22894 1.54239 0)
(-8.32046 0.928834 0)
(-8.3662 0.310178 0)
)
;
    }
    top
    {
        type            empty;
    }
    bottom
    {
        type            empty;
    }
}


// ************************************************************************* //
