/*--------------------------------*- C++ -*----------------------------------*\
  =========                 |
  \\      /  F ield         | OpenFOAM: The Open Source CFD Toolbox
   \\    /   O peration     | Website:  https://openfoam.org
    \\  /    A nd           | Version:  10
     \\/     M anipulation  |
\*---------------------------------------------------------------------------*/
FoamFile
{
    format      ascii;
    class       volVectorField;
    location    "1400";
    object      Urel;
}
// * * * * * * * * * * * * * * * * * * * * * * * * * * * * * * * * * * * * * //

dimensions      [0 1 -1 0 0 0 0];

internalField   nonuniform List<vector> 
420
(
(0.825966 -0.236767 1.74806e-18)
(0.268038 1.1564 -2.13476e-17)
(0.400683 1.54317 -1.53397e-16)
(0.506024 1.64964 4.58199e-17)
(0.532849 1.52517 -3.62849e-16)
(0.469783 1.22167 0)
(0.343084 0.762114 0)
(0.204319 0.067803 4.48201e-16)
(0.153386 -1.01272 -5.04304e-16)
(0.128697 -2.38902 0)
(0.815409 -0.161959 1.19551e-17)
(0.0591913 1.11455 -2.79005e-17)
(0.319499 1.46994 4.02201e-16)
(0.454146 1.59146 -7.41369e-16)
(0.514468 1.52524 2.35832e-16)
(0.502109 1.30292 2.19246e-17)
(0.464933 0.902225 2.47766e-15)
(0.427167 0.247613 -6.52728e-16)
(0.46661 -0.851395 1.06724e-15)
(0.540517 -2.22789 0)
(0.869619 -0.20337 -9.68729e-17)
(-0.0459747 0.986755 1.98828e-17)
(0.252154 1.34937 3.58034e-16)
(0.401677 1.50656 8.64145e-16)
(0.486 1.51058 -5.63821e-16)
(0.526949 1.36481 2.94025e-15)
(0.575765 1.01227 1.3289e-15)
(0.623464 0.399457 4.24939e-15)
(0.738484 -0.694733 -1.63259e-15)
(0.908269 -2.05952 -3.38682e-15)
(0.907735 -0.188476 9.31247e-17)
(-0.129532 0.841326 2.17892e-17)
(0.176161 1.20122 -4.42832e-16)
(0.336402 1.38509 5.49264e-16)
(0.446682 1.44809 -1.02583e-15)
(0.539184 1.36008 1.26072e-15)
(0.661013 1.06043 -7.56287e-15)
(0.788993 0.510208 0)
(0.964984 -0.538744 -3.52802e-15)
(1.21473 -1.86709 3.03755e-15)
(0.925362 -0.162584 0)
(-0.203942 0.687089 7.51569e-17)
(0.101604 1.03163 -7.18915e-17)
(0.273266 1.22946 0)
(0.411519 1.332 -2.1846e-16)
(0.54945 1.28679 -3.15635e-16)
(0.71879 1.04591 2.50479e-15)
(0.902468 0.576736 -3.33603e-15)
(1.11161 -0.383874 0)
(1.41305 -1.65711 -1.22905e-14)
(0.918868 -0.117506 -4.60322e-17)
(-0.271524 0.526694 0)
(0.0382973 0.842155 0)
(0.223095 1.0394 7.23297e-16)
(0.384516 1.16489 -1.47217e-15)
(0.551446 1.16471 1.75612e-15)
(0.732567 0.969741 5.57341e-16)
(0.932401 0.598686 7.31818e-15)
(1.13802 -0.231356 -8.86054e-15)
(1.46229 -1.43246 5.91991e-15)
(0.880862 -0.047768 0)
(-0.329053 0.363049 -2.03149e-17)
(-0.00408555 0.640701 -7.15111e-16)
(0.194381 0.824666 -5.19885e-16)
(0.367453 0.956487 -2.24965e-15)
(0.540616 0.988362 1.69183e-15)
(0.698 0.861638 -4.235e-15)
(0.85857 0.603654 7.45744e-16)
(1.02632 -0.0544983 -2.51307e-15)
(1.35433 -1.16883 -9.12439e-15)
(0.794047 0.0471882 1.04886e-16)
(-0.361434 0.196382 -2.53908e-19)
(-0.00817601 0.437407 9.6583e-16)
(0.203672 0.605136 4.92597e-16)
(0.373349 0.730477 1.4975e-15)
(0.523313 0.788881 0)
(0.636307 0.751795 4.40466e-15)
(0.718326 0.62937 5.8495e-15)
(0.826556 0.200246 7.07637e-15)
(1.13309 -0.822408 7.2157e-15)
(0.633444 0.147822 1.09311e-16)
(-0.34541 0.0583077 -1.20249e-17)
(0.0175547 0.301249 1.28652e-17)
(0.217754 0.472782 -9.30827e-16)
(0.36412 0.589634 3.13674e-15)
(0.486653 0.657901 5.10634e-15)
(0.576506 0.681468 -1.86448e-15)
(0.636215 0.674101 0)
(0.723392 0.489779 0)
(0.952906 -0.46425 -7.40986e-15)
(0.330198 0.175795 -1.05814e-16)
(-0.250677 -0.0753267 5.98272e-16)
(-0.0103409 -0.0213979 0)
(0.0854378 0.0322133 0)
(0.150885 0.0788633 -3.1941e-15)
(0.209859 0.136389 -3.51556e-17)
(0.269078 0.215888 5.80793e-15)
(0.354346 0.314964 -1.2692e-14)
(0.473996 0.333411 1.51644e-14)
(0.624121 -0.316953 1.28136e-15)
(0.148832 -4.10157 0)
(0.164222 -6.21072 0)
(0.24496 -8.71314 0)
(0.394988 -11.248 -7.35307e-16)
(0.437722 -13.7254 0)
(0.429083 -16.6868 0)
(1.27224 -18.9498 8.03659e-16)
(-0.178858 -20.3325 0)
(-3.59028 -20.2717 0)
(26.6013 -17.7305 0)
(0.670845 -3.95201 1.40956e-15)
(0.816896 -6.11654 2.33371e-15)
(1.09029 -8.66132 1.01418e-16)
(1.44474 -11.1855 7.93684e-16)
(1.71956 -13.6558 2.93986e-17)
(2.01459 -16.5804 8.32804e-16)
(3.0599 -18.8678 -1.19342e-16)
(1.68966 -20.4422 -7.44667e-17)
(-1.52919 -20.4416 -2.45302e-15)
(32.6671 -14.9338 -9.49329e-15)
(1.14723 -3.78989 1.22116e-15)
(1.43601 -6.0056 0)
(1.91803 -8.57427 -1.70593e-15)
(2.47408 -11.0812 -1.36096e-15)
(2.9784 -13.5615 4.04665e-15)
(3.55071 -16.4524 -8.24711e-16)
(4.73365 -18.7423 1.13422e-15)
(3.49245 -20.6598 0)
(0.665019 -20.856 1.02284e-15)
(35.3792 -10.3617 5.19142e-16)
(1.55053 -3.59052 2.61654e-15)
(1.99387 -5.85858 6.27084e-15)
(2.69278 -8.43337 -6.35845e-15)
(3.43898 -10.915 2.47049e-15)
(4.15656 -13.4098 -1.32606e-16)
(4.99222 -16.2705 0)
(6.29391 -18.56 -1.14399e-15)
(5.18596 -20.8167 -1.16805e-15)
(2.90643 -21.1495 -1.03438e-15)
(34.5575 -6.18313 3.02956e-14)
(1.84045 -3.38074 2.29243e-15)
(2.47529 -5.7042 -2.04252e-15)
(3.40609 -8.25276 6.16749e-15)
(4.33075 -10.6945 -2.39444e-15)
(5.24508 -13.1952 1.71197e-15)
(6.32256 -16.0097 -2.7131e-15)
(7.69692 -18.295 1.66261e-15)
(6.81694 -20.8585 9.28932e-16)
(4.98118 -21.2544 0)
(32.293 -2.70499 -5.6879e-14)
(1.99365 -3.19919 2.79777e-15)
(2.88287 -5.57224 -1.17185e-14)
(4.05221 -8.0435 -3.17044e-15)
(5.13909 -10.4251 6.95461e-15)
(6.2333 -12.9155 5.20972e-15)
(7.53486 -15.6532 -2.1206e-16)
(8.96942 -17.9035 -7.81928e-17)
(8.35647 -20.7535 -9.76389e-16)
(6.84923 -21.2065 -3.62508e-15)
(29.5566 0.102376 4.53076e-14)
(2.04174 -3.08033 2.88176e-15)
(3.26059 -5.48251 4.11576e-15)
(4.65198 -7.81211 0)
(5.87802 -10.1056 -2.35279e-15)
(7.13954 -12.5539 -3.6701e-15)
(8.64897 -15.1841 -1.67485e-16)
(10.1512 -17.3601 -5.94685e-15)
(9.81045 -20.4817 -1.1148e-15)
(8.58815 -21.0218 4.68571e-15)
(26.8252 2.30008 -1.77812e-14)
(2.0977 -3.06114 1.10883e-14)
(3.65255 -5.43274 -3.77407e-15)
(5.23047 -7.55761 0)
(6.57588 -9.73817 6.87113e-17)
(7.98803 -12.1117 1.45246e-14)
(9.68477 -14.6075 -5.54809e-15)
(11.2555 -16.6716 -4.02576e-15)
(11.1912 -19.9697 3.0279e-15)
(10.1887 -20.7526 -2.66307e-15)
(24.3372 3.92711 0)
(2.37277 -3.1317 2.46187e-16)
(4.07244 -5.37523 -3.69346e-15)
(5.79532 -7.2536 0)
(7.26268 -9.31237 5.08318e-15)
(8.80669 -11.5914 -1.13897e-14)
(10.6804 -13.9273 5.82482e-15)
(12.3113 -15.8484 2.21284e-15)
(12.488 -19.1881 0)
(11.5968 -20.2809 -5.00432e-16)
(22.1182 4.9489 2.21116e-14)
(3.30276 -3.06912 4.04874e-16)
(4.57294 -5.27895 1.57251e-16)
(6.37298 -6.92175 0)
(7.98626 -8.86447 -1.0139e-14)
(9.66737 -11.04 3.81218e-15)
(11.7345 -13.2281 -3.05554e-15)
(13.5228 -14.9693 1.94394e-15)
(13.9236 -18.2197 -5.19315e-17)
(12.899 -19.4381 -9.77808e-17)
(20.4459 4.93998 -2.1334e-14)
(4.26227 -2.06392 2.77937e-15)
(4.81024 -4.92316 -4.2803e-15)
(6.50603 -6.49769 0)
(8.20159 -8.37853 0)
(9.98706 -10.4913 0)
(12.1687 -12.5652 -1.76324e-15)
(13.9988 -14.1069 7.0631e-15)
(14.8927 -17.2522 0)
(15.0283 -17.9537 0)
(19.5246 6.61497 0)
(4.28164 -2.09689 -2.77574e-15)
(4.98889 -4.53022 -4.59251e-15)
(6.61077 -6.17338 0)
(8.42428 -8.02087 3.01354e-15)
(10.3243 -10.0973 -2.28591e-15)
(12.5885 -12.1048 1.93966e-15)
(14.4725 -13.4874 3.60506e-15)
(15.6578 -16.8104 5.66573e-17)
(16.3217 -17.831 1.00423e-15)
(19.0046 8.61517 0)
(3.88775 -2.86214 3.55806e-16)
(5.23613 -4.33599 -2.23355e-16)
(6.91954 -5.97021 0)
(8.88013 -7.7107 1.16454e-17)
(10.9239 -9.69105 5.36025e-15)
(13.33 -11.5971 -3.92102e-15)
(15.3256 -12.8368 -1.00439e-14)
(16.6999 -16.4169 -5.59891e-15)
(16.8201 -18.8221 1.02575e-14)
(18.1249 9.45377 2.38092e-14)
(3.4563 -2.67741 -1.23852e-14)
(5.19229 -3.98353 4.51637e-15)
(7.10629 -5.42014 0)
(9.21841 -6.97636 -7.04333e-15)
(11.3755 -8.77812 -5.48633e-15)
(13.9659 -10.5167 8.81346e-15)
(16.0061 -11.57 4.11334e-15)
(17.5109 -14.9781 0)
(17.8739 -17.1225 -7.62142e-15)
(17.2509 9.93713 -4.8542e-15)
(3.64069 -2.68526 -2.52022e-16)
(5.37597 -3.74981 4.63924e-15)
(7.37777 -4.98629 0)
(9.59707 -6.34398 1.38156e-14)
(11.8522 -7.97114 -3.51891e-17)
(14.5817 -9.56532 -5.89825e-17)
(16.6702 -10.3452 9.27514e-15)
(18.4141 -13.6104 -6.81988e-15)
(19.1649 -15.9997 -6.29459e-15)
(16.2807 10.2155 0)
(3.89375 -2.51628 -2.96139e-15)
(5.60442 -3.43065 1.03676e-14)
(7.65212 -4.50058 9.05606e-15)
(9.94911 -5.65974 -1.04505e-14)
(12.2759 -7.10099 -1.8198e-14)
(15.1273 -8.54644 -5.74866e-16)
(17.2439 -9.04149 -4.98972e-15)
(19.2172 -12.0985 -4.05923e-15)
(20.393 -14.7031 -9.77055e-15)
(15.4898 10.3147 -2.82182e-14)
(4.09746 -2.25186 -9.72182e-15)
(5.81723 -3.05198 5.36693e-15)
(7.90917 -3.96996 -4.02281e-15)
(10.265 -4.93439 -1.14122e-14)
(12.6453 -6.1861 8.66289e-15)
(15.6054 -7.47306 -6.66623e-16)
(17.73 -7.69344 9.67509e-15)
(19.9073 -10.5232 4.20363e-15)
(21.5119 -13.2369 6.54131e-15)
(14.9133 10.2654 3.7346e-15)
(4.22945 -1.94134 2.83094e-15)
(5.98876 -2.62968 -2.72926e-15)
(8.13569 -3.39298 -2.60241e-16)
(10.5378 -4.1617 1.13911e-14)
(12.9586 -5.21834 -1.62497e-14)
(16.0022 -6.33648 5.22592e-15)
(18.1127 -6.33865 -5.69369e-15)
(20.4588 -8.89855 1.33121e-14)
(22.4641 -11.5837 0)
(14.3791 10.1132 -1.04024e-16)
(4.2995 -1.60905 3.24041e-15)
(6.12454 -2.16567 2.7122e-15)
(8.33748 -2.75258 4.71187e-15)
(10.7767 -3.32028 -7.46947e-15)
(13.2314 -4.17549 3.02329e-15)
(16.3228 -5.08356 0)
(18.4126 -4.94872 -2.66221e-15)
(20.9284 -7.2255 -9.53739e-15)
(23.1509 -9.7575 -2.8665e-16)
(13.851 9.89211 2.34968e-14)
(4.32346 -1.2582 1.42624e-15)
(6.22562 -1.66978 0)
(8.50159 -2.0736 2.27713e-15)
(10.9661 -2.43864 2.07303e-15)
(13.4478 -3.09264 1.83729e-16)
(16.5577 -3.77894 -1.28031e-15)
(18.6137 -3.46181 2.59121e-15)
(21.2305 -5.56851 0)
(23.4472 -7.80028 4.41158e-15)
(14.6081 8.93057 2.35083e-14)
(4.30192 -0.88375 1.58403e-15)
(6.27816 -1.13937 -2.69343e-15)
(8.60272 -1.36551 -1.94661e-16)
(11.0614 -1.54225 6.79178e-16)
(13.5503 -1.9788 -1.43368e-16)
(16.6868 -2.52147 1.09422e-15)
(18.591 -1.85447 -2.52825e-15)
(20.9195 -3.8841 -2.82319e-16)
(22.5683 -7.33083 4.55298e-15)
(13.6352 7.70032 -1.76635e-14)
(4.24407 -0.376009 2.16554e-29)
(6.28849 -0.510071 0)
(8.72948 -0.621362 0)
(11.264 -0.669857 -8.35209e-16)
(13.7457 -0.866646 0)
(16.761 -1.28158 0)
(19.1459 -0.496707 1.09886e-15)
(20.1822 -1.98201 0)
(20.0247 -5.99091 0)
(21.5148 19.8557 -8.96187e-29)
(1.07195 -0.564984 9.58091e-16)
(1.59593 -1.66346 -7.02741e-15)
(2.00577 -1.8643 6.9939e-15)
(2.39166 -1.80652 -9.85469e-15)
(2.63868 -1.60847 6.78824e-15)
(2.7704 -1.36654 -1.44901e-14)
(2.80681 -1.12098 3.58623e-15)
(2.77249 -0.870955 -3.77709e-15)
(2.67018 -0.627293 0)
(2.55609 -0.265332 -4.10877e-16)
(-0.510817 -0.451521 1.42175e-14)
(0.0548419 -1.34316 0)
(0.606489 -1.40615 7.18375e-15)
(1.09484 -1.31062 -2.8675e-15)
(1.40273 -1.11668 -1.02409e-14)
(1.55758 -0.904434 0)
(1.58398 -0.707891 -3.92494e-15)
(1.51369 -0.514156 -1.63451e-15)
(1.35373 -0.360365 1.1211e-15)
(1.18995 -0.130851 -4.55319e-16)
(-1.12787 -0.526699 -1.16941e-14)
(-0.958241 -1.24261 0)
(-0.505303 -1.20838 6.41687e-15)
(-0.0181052 -1.03336 7.42334e-16)
(0.325394 -0.809313 8.48779e-15)
(0.514116 -0.595632 -3.95381e-15)
(0.559934 -0.411659 0)
(0.493366 -0.228445 4.47536e-15)
(0.325083 -0.102811 -6.47292e-16)
(0.120734 0.0247068 5.59024e-16)
(-0.988868 -0.503617 5.33206e-15)
(-1.43432 -1.08282 -1.90949e-15)
(-1.293 -1.05672 4.65986e-15)
(-0.945049 -0.832042 -5.06393e-15)
(-0.621705 -0.57811 6.52072e-16)
(-0.409396 -0.356639 3.39609e-15)
(-0.328918 -0.178088 -1.08437e-14)
(-0.356285 -0.00240225 1.88843e-15)
(-0.470642 0.138449 2.97958e-15)
(-0.621389 0.237767 9.17277e-17)
(-0.692794 -0.405101 -7.95868e-15)
(-1.35709 -0.860031 5.3407e-15)
(-1.61904 -0.884473 0)
(-1.52584 -0.690827 1.85378e-15)
(-1.33603 -0.427993 2.04748e-15)
(-1.16008 -0.179722 -3.10024e-16)
(-1.05838 0.0303571 1.67963e-15)
(-1.03498 0.210887 3.72703e-15)
(-1.07378 0.350556 -4.94012e-18)
(-1.14252 0.432699 3.22632e-16)
(-0.429655 -0.286981 -3.18349e-15)
(-1.05941 -0.60756 3.77337e-15)
(-1.50399 -0.661364 1.58881e-15)
(-1.66628 -0.527678 -2.56342e-15)
(-1.66677 -0.307332 -1.64291e-15)
(-1.61322 -0.0751905 -2.514e-16)
(-1.55581 0.130889 -2.90399e-15)
(-1.51924 0.303774 9.64721e-16)
(-1.50927 0.438885 2.57634e-16)
(-1.51172 0.522278 -3.08741e-16)
(-0.234224 -0.165512 0)
(-0.697218 -0.349305 -1.23534e-15)
(-1.16581 -0.391757 4.53616e-16)
(-1.47088 -0.313179 -5.8827e-16)
(-1.62638 -0.158506 9.16608e-16)
(-1.68966 0.0219147 0)
(-1.70893 0.19292 6.33672e-16)
(-1.70835 0.340046 9.75521e-16)
(-1.69111 0.450783 -8.29428e-16)
(-1.66908 0.510669 -2.97783e-17)
(-0.087163 -0.0483316 0)
(-0.370489 -0.0932107 -1.80971e-16)
(-0.753877 -0.0968797 1.73901e-15)
(-1.07575 -0.0530563 -1.26182e-15)
(-1.31 0.0357411 0)
(-1.45563 0.14757 -1.71011e-16)
(-1.53199 0.259536 -5.61364e-16)
(-1.55916 0.357211 4.88425e-16)
(-1.55134 0.410309 4.62384e-16)
(-1.54469 0.428651 -1.87275e-16)
(0.0359611 0.012498 -7.87134e-16)
(-0.113565 0.0797177 1.84308e-16)
(-0.3788 0.0706365 1.82328e-16)
(-0.639385 0.0584526 -1.82573e-16)
(-0.846563 0.0708988 0)
(-0.991153 0.0979947 1.85202e-16)
(-1.07348 0.127381 1.58472e-16)
(-1.09881 0.152823 -1.45578e-16)
(-1.07847 0.173281 -4.05448e-17)
(-1.07969 0.202897 -1.09992e-18)
(0.506986 0.415796 -1.78681e-16)
(0.732429 0.71515 -1.32641e-18)
(0.738505 0.745993 -1.45947e-17)
(0.674202 0.726188 0)
(0.584299 0.727354 1.34445e-17)
(0.497429 0.755433 0)
(0.425598 0.795378 8.75672e-17)
(0.373745 0.83202 -3.49349e-17)
(0.339512 0.851857 1.71929e-17)
(0.351234 0.863378 -1.99354e-18)
)
;

boundaryField
{
    right
    {
        type            cyclic;
    }
    left
    {
        type            cyclic;
    }
    outerWall
    {
        type            noSlip;
    }
    stirrerWall
    {
        type            noSlip;
    }
    top
    {
        type            empty;
    }
    bottom
    {
        type            empty;
    }
}


// ************************************************************************* //
