/*--------------------------------*- C++ -*----------------------------------*\
  =========                 |
  \\      /  F ield         | OpenFOAM: The Open Source CFD Toolbox
   \\    /   O peration     | Website:  https://openfoam.org
    \\  /    A nd           | Version:  10
     \\/     M anipulation  |
\*---------------------------------------------------------------------------*/
FoamFile
{
    format      ascii;
    class       volScalarField;
    location    "3600";
    object      k;
}
// * * * * * * * * * * * * * * * * * * * * * * * * * * * * * * * * * * * * * //

dimensions      [0 2 -2 0 0 0 0];

internalField   nonuniform List<scalar> 
420
(
2.22045e-16
2.22045e-16
2.22045e-16
2.22045e-16
2.22045e-16
2.22045e-16
2.22045e-16
2.22045e-16
2.22045e-16
2.22045e-16
2.22045e-16
2.22045e-16
2.22045e-16
2.22045e-16
2.22045e-16
2.22045e-16
2.22045e-16
2.22045e-16
2.22045e-16
2.22045e-16
2.22045e-16
2.22045e-16
2.22045e-16
2.22045e-16
2.22045e-16
2.22045e-16
2.22045e-16
2.22045e-16
2.22045e-16
2.22045e-16
2.22045e-16
2.22045e-16
2.22045e-16
2.22045e-16
2.22045e-16
2.22045e-16
2.22045e-16
2.22045e-16
2.22045e-16
2.22045e-16
2.22045e-16
2.22045e-16
2.22045e-16
2.22045e-16
2.22045e-16
2.22045e-16
2.22045e-16
2.22045e-16
2.22045e-16
2.22045e-16
2.22045e-16
2.22045e-16
2.22045e-16
2.22045e-16
2.22045e-16
2.22045e-16
2.22045e-16
2.22045e-16
2.22045e-16
2.22045e-16
2.22045e-16
2.22045e-16
2.22045e-16
2.22045e-16
2.22045e-16
2.22045e-16
2.22045e-16
2.22045e-16
2.22045e-16
2.22045e-16
2.22045e-16
2.22045e-16
2.22045e-16
2.22045e-16
2.22045e-16
2.22045e-16
2.22045e-16
2.22045e-16
2.22045e-16
2.22045e-16
2.22045e-16
2.22045e-16
2.22045e-16
2.22045e-16
2.22045e-16
2.22045e-16
2.22045e-16
2.22045e-16
2.22045e-16
2.22045e-16
2.22045e-16
2.22045e-16
2.22045e-16
2.22045e-16
2.22045e-16
2.22045e-16
2.22045e-16
2.22045e-16
2.22045e-16
2.22045e-16
2.22045e-16
2.22045e-16
2.26787e-16
3.03339e-16
3.65371e-16
3.21023e-16
2.49355e-16
2.22045e-16
3.7082e-16
2.22045e-16
2.22045e-16
2.22045e-16
2.2549e-16
3.06304e-16
3.66664e-16
3.24377e-16
2.51524e-16
2.22045e-16
3.75667e-16
2.22045e-16
2.22045e-16
2.22045e-16
2.23838e-16
3.09756e-16
3.67354e-16
3.26077e-16
2.53398e-16
2.22045e-16
3.68947e-16
2.22045e-16
2.22045e-16
2.22045e-16
2.23122e-16
3.14786e-16
3.68078e-16
3.26749e-16
2.54663e-16
2.22045e-16
3.54247e-16
2.22045e-16
2.22045e-16
2.22045e-16
2.23275e-16
3.20435e-16
3.68791e-16
3.26375e-16
2.55489e-16
2.22045e-16
3.40918e-16
2.22045e-16
2.22045e-16
2.22045e-16
2.24777e-16
3.25879e-16
3.70833e-16
3.25019e-16
2.55895e-16
2.22045e-16
3.30149e-16
2.22045e-16
2.22045e-16
2.22045e-16
2.28474e-16
3.31797e-16
3.72981e-16
3.23131e-16
2.55988e-16
2.22045e-16
3.20682e-16
2.22045e-16
2.22045e-16
2.22045e-16
2.3522e-16
3.37349e-16
3.74526e-16
3.21134e-16
2.55773e-16
2.22045e-16
3.11361e-16
2.22045e-16
2.22045e-16
2.22045e-16
2.45895e-16
3.42212e-16
3.75542e-16
3.1934e-16
2.55584e-16
2.22045e-16
3.02326e-16
2.22045e-16
2.22045e-16
2.22045e-16
2.61063e-16
3.46431e-16
3.76599e-16
3.18415e-16
2.56199e-16
2.22045e-16
2.94151e-16
2.22045e-16
2.22045e-16
2.22045e-16
2.79867e-16
3.4795e-16
3.75962e-16
3.16426e-16
2.56326e-16
2.22045e-16
2.91305e-16
2.22045e-16
2.22045e-16
2.22045e-16
2.88481e-16
3.46438e-16
3.7516e-16
3.15107e-16
2.55983e-16
2.22045e-16
2.86128e-16
2.22045e-16
2.22045e-16
2.28725e-16
2.94841e-16
3.44865e-16
3.74176e-16
3.13655e-16
2.55295e-16
2.22045e-16
2.80788e-16
2.22045e-16
2.22045e-16
2.6e-16
2.9166e-16
3.39923e-16
3.74105e-16
3.13032e-16
2.55102e-16
2.22045e-16
2.76531e-16
2.22045e-16
2.40807e-16
2.57773e-16
2.83608e-16
3.34854e-16
3.74592e-16
3.13322e-16
2.55242e-16
2.22045e-16
2.66849e-16
2.22045e-16
2.38712e-16
2.48993e-16
2.74216e-16
3.29434e-16
3.75221e-16
3.13735e-16
2.55868e-16
2.22045e-16
2.56202e-16
2.22045e-16
2.32866e-16
2.4045e-16
2.64977e-16
3.24266e-16
3.76195e-16
3.14599e-16
2.56949e-16
2.22045e-16
2.45451e-16
2.22045e-16
2.27504e-16
2.32698e-16
2.55986e-16
3.19415e-16
3.77307e-16
3.15883e-16
2.58225e-16
2.22045e-16
2.35186e-16
2.22045e-16
2.22946e-16
2.26146e-16
2.47728e-16
3.14797e-16
3.77686e-16
3.17837e-16
2.59725e-16
2.22045e-16
2.26921e-16
2.22045e-16
2.22045e-16
2.22045e-16
2.41076e-16
3.11944e-16
3.78426e-16
3.20238e-16
2.61379e-16
2.22045e-16
2.23076e-16
2.22045e-16
2.22045e-16
2.22045e-16
2.35918e-16
3.10732e-16
3.79463e-16
3.22105e-16
2.62792e-16
2.26011e-16
2.33072e-16
2.22045e-16
2.22045e-16
2.22045e-16
2.32508e-16
3.10892e-16
3.80187e-16
3.23614e-16
2.6549e-16
2.25338e-16
2.63491e-16
2.22045e-16
2.22045e-16
2.22045e-16
2.22045e-16
2.27013e-16
2.27183e-16
2.25062e-16
2.22592e-16
2.22045e-16
2.22045e-16
2.22045e-16
2.22045e-16
2.22045e-16
2.22045e-16
2.22045e-16
2.22045e-16
2.22045e-16
2.22045e-16
2.22045e-16
2.22045e-16
2.22045e-16
2.22045e-16
2.22045e-16
2.22045e-16
2.22045e-16
2.22045e-16
2.22045e-16
2.22045e-16
2.22045e-16
2.22045e-16
2.22045e-16
2.22045e-16
2.22045e-16
2.22045e-16
2.22045e-16
2.22045e-16
2.22045e-16
2.22045e-16
2.22045e-16
2.22045e-16
2.22045e-16
2.22045e-16
2.22045e-16
2.22045e-16
2.22045e-16
2.22045e-16
2.22045e-16
2.22045e-16
2.22045e-16
2.22045e-16
2.22045e-16
2.22045e-16
2.22045e-16
2.22045e-16
2.22045e-16
2.22045e-16
2.22045e-16
2.22045e-16
2.22045e-16
2.22045e-16
2.22045e-16
2.22045e-16
2.22045e-16
2.22045e-16
2.22045e-16
2.22045e-16
2.22045e-16
2.22045e-16
2.22045e-16
2.22045e-16
2.22045e-16
2.22045e-16
2.22045e-16
2.22045e-16
2.22045e-16
2.22045e-16
2.22045e-16
2.22045e-16
2.22045e-16
2.22045e-16
2.22045e-16
2.22045e-16
2.22045e-16
2.22045e-16
2.22045e-16
2.22045e-16
2.22045e-16
2.22045e-16
2.22045e-16
2.22045e-16
2.22045e-16
2.22045e-16
2.22045e-16
2.22045e-16
2.22045e-16
2.22045e-16
2.22045e-16
2.22045e-16
2.22045e-16
2.22045e-16
2.22045e-16
)
;

boundaryField
{
    right
    {
        type            cyclic;
    }
    left
    {
        type            cyclic;
    }
    outerWall
    {
        type            kqRWallFunction;
        value           uniform 2.22045e-16;
    }
    stirrerWall
    {
        type            kqRWallFunction;
        value           uniform 2.22045e-16;
    }
    top
    {
        type            empty;
    }
    bottom
    {
        type            empty;
    }
}


// ************************************************************************* //
