/*--------------------------------*- C++ -*----------------------------------*\
  =========                 |
  \\      /  F ield         | OpenFOAM: The Open Source CFD Toolbox
   \\    /   O peration     | Website:  https://openfoam.org
    \\  /    A nd           | Version:  10
     \\/     M anipulation  |
\*---------------------------------------------------------------------------*/
FoamFile
{
    format      ascii;
    class       volScalarField;
    location    "3600";
    object      nut;
}
// * * * * * * * * * * * * * * * * * * * * * * * * * * * * * * * * * * * * * //

dimensions      [0 2 -1 0 0 0 0];

internalField   nonuniform List<scalar> 
420
(
1.04478e-20
5.72073e-20
1.62892e-19
3.16201e-19
4.88486e-19
6.58936e-19
7.95989e-19
8.41307e-19
7.62434e-19
6.20547e-19
1.04473e-20
5.89268e-20
1.60182e-19
3.04949e-19
4.72335e-19
6.40982e-19
7.76575e-19
8.18518e-19
7.30581e-19
5.79593e-19
1.04471e-20
5.99226e-20
1.59323e-19
2.97022e-19
4.56407e-19
6.18042e-19
7.46475e-19
7.80119e-19
6.82097e-19
5.25483e-19
1.04472e-20
6.06767e-20
1.59662e-19
2.91678e-19
4.40985e-19
5.90077e-19
7.04494e-19
7.24761e-19
6.16579e-19
4.59411e-19
1.04476e-20
6.15861e-20
1.60344e-19
2.84527e-19
4.17519e-19
5.44556e-19
6.36125e-19
6.41422e-19
5.31033e-19
3.83162e-19
1.04483e-20
6.24303e-20
1.56531e-19
2.61077e-19
3.62556e-19
4.53713e-19
5.16568e-19
5.16625e-19
4.25414e-19
3.00607e-19
1.04493e-20
6.0008e-20
1.33399e-19
1.97334e-19
2.53831e-19
3.04663e-19
3.43807e-19
3.54114e-19
3.06067e-19
2.16855e-19
1.04506e-20
4.78821e-20
8.03367e-20
1.04012e-19
1.26735e-19
1.49674e-19
1.71761e-19
1.88341e-19
1.82975e-19
1.36319e-19
1.04522e-20
2.15885e-20
2.81432e-20
3.46372e-20
4.17177e-20
4.94049e-20
5.76708e-20
6.61825e-20
7.28626e-20
6.42967e-20
2.82342e-21
3.6643e-21
4.61494e-21
5.67535e-21
6.84552e-21
8.12545e-21
9.51514e-21
1.10146e-20
1.26238e-20
1.43428e-20
4.9586e-19
4.3196e-19
4.73417e-19
8.24182e-19
1.27482e-18
1.32023e-18
9.50067e-19
4.91295e-19
1.70679e-19
6.20016e-20
4.51715e-19
3.92924e-19
4.42848e-19
8.13836e-19
1.27074e-18
1.32352e-18
9.47855e-19
5.04567e-19
1.51208e-19
6.20034e-20
4.00081e-19
3.51735e-19
4.13438e-19
8.10154e-19
1.27007e-18
1.3252e-18
9.43411e-19
5.10352e-19
1.41622e-19
6.2004e-20
3.42057e-19
3.0878e-19
3.87363e-19
8.16124e-19
1.27485e-18
1.26057e-18
9.36347e-19
5.02754e-19
1.40004e-19
6.20033e-20
2.79982e-19
2.65739e-19
3.6543e-19
8.3108e-19
1.12316e-18
1.20601e-18
9.27661e-19
4.93108e-19
1.41667e-19
6.20012e-20
2.17108e-19
2.24149e-19
3.4906e-19
8.32831e-19
1.03615e-18
1.18348e-18
9.18118e-19
4.82586e-19
1.44217e-19
6.19978e-20
1.57306e-19
1.85261e-19
3.40038e-19
8.38632e-19
1.02545e-18
1.17535e-18
9.08185e-19
4.7167e-19
1.46508e-19
6.19932e-20
1.04287e-19
1.4995e-19
3.40718e-19
8.67887e-19
1.04108e-18
1.20031e-18
8.97879e-19
4.60532e-19
1.49143e-19
6.19873e-20
6.09283e-20
1.18884e-19
3.55245e-19
9.07e-19
1.07541e-18
1.26757e-18
8.87784e-19
4.49063e-19
1.52205e-19
6.19801e-20
2.90934e-20
9.32269e-20
3.94538e-19
8.86036e-19
1.04268e-18
1.20593e-18
8.79236e-19
4.4005e-19
1.53791e-19
6.19718e-20
1.03958e-20
8.02887e-20
5.01484e-19
8.54108e-19
1.01123e-18
1.17328e-18
8.68333e-19
4.30312e-19
1.4985e-19
6.20994e-20
1.03958e-20
9.93559e-20
6.04177e-19
8.33345e-19
9.96766e-19
1.17354e-18
8.62371e-19
4.16688e-19
1.51093e-19
6.20994e-20
5.90221e-20
2.77405e-19
6.42998e-19
8.26408e-19
9.94313e-19
1.20686e-18
8.53723e-19
4.02281e-19
1.49642e-19
6.19718e-20
2.79138e-19
5.25795e-19
6.53393e-19
8.49628e-19
1.02437e-18
1.25969e-18
8.57874e-19
4.00532e-19
1.45605e-19
6.19801e-20
5.24192e-19
5.68831e-19
6.53453e-19
8.51239e-19
1.02167e-18
1.25033e-18
8.68768e-19
4.01219e-19
1.46984e-19
6.19873e-20
6.01016e-19
5.93456e-19
6.58291e-19
8.67702e-19
1.04004e-18
1.28817e-18
8.86394e-19
4.05872e-19
1.47604e-19
6.19932e-20
6.2529e-19
5.96472e-19
6.55611e-19
8.84914e-19
1.06979e-18
1.3037e-18
9.08433e-19
4.12698e-19
1.4911e-19
6.19978e-20
6.23528e-19
5.90859e-19
6.68533e-19
9.49177e-19
1.17766e-18
1.31259e-18
9.3349e-19
4.21208e-19
1.51251e-19
6.20012e-20
6.13097e-19
5.66724e-19
6.34185e-19
9.4136e-19
1.35169e-18
1.32266e-18
9.62129e-19
4.32217e-19
1.51561e-19
6.20033e-20
5.85909e-19
5.28659e-19
5.9035e-19
9.12328e-19
1.3459e-18
1.33199e-18
9.90976e-19
4.44205e-19
1.4611e-19
6.2004e-20
5.58794e-19
4.98501e-19
5.50403e-19
8.88849e-19
1.3426e-18
1.33714e-18
1.01301e-18
4.68091e-19
1.48935e-19
6.20034e-20
5.27946e-19
4.65546e-19
5.14836e-19
8.70619e-19
1.3405e-18
1.33926e-18
1.02489e-18
4.45995e-19
1.47543e-19
6.20016e-20
1.43428e-20
1.15748e-19
4.11712e-19
6.40666e-19
7.02191e-19
7.12068e-19
7.01785e-19
6.85162e-19
6.66214e-19
6.45526e-19
1.26238e-20
8.62704e-20
3.04058e-19
5.80929e-19
7.33735e-19
7.88047e-19
8.01385e-19
7.97905e-19
7.88627e-19
7.78417e-19
1.10146e-20
6.5758e-20
2.16782e-19
4.44529e-19
6.43033e-19
7.64856e-19
8.28481e-19
8.54736e-19
8.5771e-19
8.52554e-19
9.51514e-21
5.17831e-20
1.44251e-19
2.88936e-19
4.56766e-19
6.06292e-19
7.15959e-19
7.80811e-19
8.04208e-19
8.05776e-19
8.12545e-21
4.36679e-20
1.11635e-19
2.07733e-19
3.22169e-19
4.38784e-19
5.41436e-19
6.17212e-19
6.55494e-19
6.65911e-19
6.84552e-21
3.75261e-20
9.40735e-20
1.67483e-19
2.50071e-19
3.33248e-19
4.07359e-19
4.63138e-19
4.90572e-19
4.96573e-19
5.67535e-21
3.19548e-20
8.13653e-20
1.42167e-19
2.04135e-19
2.59494e-19
3.01854e-19
3.26512e-19
3.3075e-19
3.25821e-19
4.61494e-21
2.64621e-20
6.79281e-20
1.1321e-19
1.48511e-19
1.70356e-19
1.80425e-19
1.80636e-19
1.74273e-19
1.68424e-19
3.6643e-21
2.0653e-20
4.42761e-20
5.82825e-20
6.31582e-20
6.43876e-20
6.4117e-20
6.24715e-20
6.05253e-20
5.91479e-20
2.82342e-21
1.04522e-20
1.04506e-20
1.04493e-20
1.04483e-20
1.04476e-20
1.04472e-20
1.04471e-20
1.04473e-20
1.04478e-20
)
;

boundaryField
{
    right
    {
        type            cyclic;
    }
    left
    {
        type            cyclic;
    }
    outerWall
    {
        type            nutkWallFunction;
        Cmu             0.09;
        kappa           0.41;
        E               9.8;
        value           uniform 0;
    }
    stirrerWall
    {
        type            nutkWallFunction;
        Cmu             0.09;
        kappa           0.41;
        E               9.8;
        value           uniform 0;
    }
    top
    {
        type            empty;
    }
    bottom
    {
        type            empty;
    }
}


// ************************************************************************* //
