/*--------------------------------*- C++ -*----------------------------------*\
  =========                 |
  \\      /  F ield         | OpenFOAM: The Open Source CFD Toolbox
   \\    /   O peration     | Website:  https://openfoam.org
    \\  /    A nd           | Version:  10
     \\/     M anipulation  |
\*---------------------------------------------------------------------------*/
FoamFile
{
    format      ascii;
    class       volScalarField;
    location    "3600";
    object      omega;
}
// * * * * * * * * * * * * * * * * * * * * * * * * * * * * * * * * * * * * * //

dimensions      [0 0 -1 0 0 0 0];

internalField   nonuniform List<scalar> 
420
(
21252.7
3881.4
1363.14
702.226
454.557
336.974
278.954
263.928
291.231
357.821
21253.7
3768.15
1386.21
728.137
470.1
346.413
285.928
271.276
303.929
383.104
21254.2
3705.52
1393.68
747.57
486.506
359.271
297.458
284.629
325.532
422.553
21254
3659.47
1390.72
761.267
503.519
376.297
315.183
306.369
360.123
483.324
21253.2
3605.43
1384.8
780.4
531.819
407.754
349.058
346.176
418.137
579.506
21251.7
3556.68
1418.54
850.495
612.442
489.394
429.846
429.799
521.949
738.654
21249.7
3700.25
1664.52
1125.22
874.774
728.82
645.841
627.043
725.478
1023.93
21247.1
4637.32
2763.92
2134.8
1752.04
1483.52
1292.75
1178.95
1213.52
1628.87
21243.8
10285.3
7889.83
6410.58
5322.55
4494.39
3850.21
3355.03
3047.44
3453.44
78643.9
60596.7
48114.3
39124.4
32436.5
27327.1
23335.9
20159.1
17589.3
15481.3
447.797
514.04
479.042
368.049
286.605
243.156
262.46
429.421
1386.68
3581.27
491.559
565.109
509.182
376.37
288.544
245.087
265.362
431.185
1412.27
3581.17
555
631.283
541.407
382.342
289.238
246.058
268.597
435.081
1412.39
3581.13
649.144
719.102
576.002
385.708
288.722
246.264
271.975
441.656
1396.87
3581.18
793.067
835.574
610.992
385.565
286.949
245.837
275.412
450.296
1387.77
3581.3
1022.74
990.612
643.947
381.485
284.193
244.997
278.717
460.114
1387.58
3581.49
1411.54
1198.55
671.908
373.751
281.082
244.134
281.867
470.762
1392.87
3581.76
2129.16
1480.8
690.364
363.046
278.191
243.518
284.864
482.148
1400.31
3582.1
3644.36
1867.74
692.184
350.422
275.965
243.319
287.89
494.462
1412.2
3582.51
7632.13
2381.77
661.694
336.508
274.692
243.687
291.388
504.589
1433.21
3582.99
21359.1
2765.58
558.079
321.161
273.632
243.948
295.193
516.008
1409.96
3575.63
21359.1
2234.84
477.478
315.899
273.458
243.994
296.836
532.88
1437.04
3575.63
3762.06
824.515
379.931
311.301
272.936
244.241
299.038
551.964
1475.79
3582.99
795.464
422.221
348.012
310.84
273.179
243.484
297.366
554.374
1454.91
3582.51
399.18
361.863
347.05
313.341
274.045
242.933
293.798
553.425
1451.97
3582.1
344.861
359.03
353.445
317
275.022
242.113
288.662
547.08
1453.74
3581.76
342.71
368.143
363.194
321.775
276.254
241.311
282.849
538.032
1459.44
3581.49
351.182
381.825
375.563
327.582
277.717
240.656
276.623
527.162
1474.05
3581.3
363.639
399.042
390.624
334.407
279.418
240.301
269.948
513.734
1497.23
3581.18
378.975
420.015
408.361
341.921
281.169
240.422
263.759
499.869
1526.76
3581.13
397.364
445.425
428.627
349.59
282.633
240.891
259.418
482.835
1564.93
3581.17
420.582
476.956
451.617
357.093
283.616
241.636
259.041
432.728
1383.68
3581.27
15481.3
1918.35
539.321
344.34
313.342
311.188
316.221
324.076
333.293
343.975
17589.3
2573.82
730.27
382.223
302.622
281.766
277.076
278.284
281.558
285.251
20159.1
3376.69
1024.28
499.506
345.308
290.309
268.014
259.782
258.881
260.447
23335.9
4287.98
1539.29
768.491
486.123
366.234
310.136
284.377
276.104
275.566
27327.1
5084.85
1989.02
1068.89
689.217
506.045
410.103
359.754
338.744
333.445
32436.5
5917.07
2360.33
1325.77
887.927
666.305
545.083
479.435
452.624
447.154
39124.4
6948.7
2728.98
1561.85
1087.74
855.684
735.603
680.051
671.337
681.492
48114.3
8391.05
3268.82
1961.36
1495.14
1303.42
1230.68
1229.24
1274.12
1318.36
60596.7
10751.2
5015
3809.8
3515.69
3448.56
3463.12
3554.33
3668.62
3754.06
78643.9
21243.8
21247.1
21249.7
21251.7
21253.2
21254
21254.2
21253.7
21252.7
)
;

boundaryField
{
    right
    {
        type            cyclic;
    }
    left
    {
        type            cyclic;
    }
    outerWall
    {
        beta1           0.075;
        blended         0;
        type            omegaWallFunction;
        value           nonuniform List<scalar> 
22
(
3581.27
3581.17
3581.13
3581.18
3581.3
3581.49
3581.76
3582.1
3582.51
3582.99
3575.63
3575.63
3582.99
3582.51
3582.1
3581.76
3581.49
3581.3
3581.18
3581.13
3581.17
3581.27
)
;
    }
    stirrerWall
    {
        beta1           0.075;
        blended         0;
        type            omegaWallFunction;
        value           nonuniform List<scalar> 
42
(
21252.7
21253.7
21254.2
21254
21253.2
21251.7
21249.7
21247.1
21243.8
78643.9
78643.9
60596.7
48114.3
39124.4
32436.5
27327.1
23335.9
20159.1
17589.3
15481.3
21359.1
21359.1
15481.3
17589.3
20159.1
23335.9
27327.1
32436.5
39124.4
48114.3
60596.7
78643.9
78643.9
21243.8
21247.1
21249.7
21251.7
21253.2
21254
21254.2
21253.7
21252.7
)
;
    }
    top
    {
        type            empty;
    }
    bottom
    {
        type            empty;
    }
}


// ************************************************************************* //
