/*--------------------------------*- C++ -*----------------------------------*\
  =========                 |
  \\      /  F ield         | OpenFOAM: The Open Source CFD Toolbox
   \\    /   O peration     | Website:  https://openfoam.org
    \\  /    A nd           | Version:  10
     \\/     M anipulation  |
\*---------------------------------------------------------------------------*/
FoamFile
{
    format      ascii;
    class       volScalarField;
    location    "3600";
    object      p;
}
// * * * * * * * * * * * * * * * * * * * * * * * * * * * * * * * * * * * * * //

dimensions      [0 2 -2 0 0 0 0];

internalField   nonuniform List<scalar> 
420
(
-0.0384897
16.6095
33.1804
52.0309
72.2756
93.2908
114.68
135.914
156.555
176.105
1.20622
16.5635
32.546
50.9214
70.8322
91.7098
113.184
134.679
155.619
175.39
1.48339
16.3709
31.8954
49.7857
69.3291
90.0663
111.646
133.416
154.656
174.669
1.31249
16.0485
31.239
48.6901
67.8695
88.4311
110.061
132.07
153.622
173.928
1.08819
15.7316
30.6345
47.6685
66.4708
86.804
108.405
130.599
152.481
173.156
0.891679
15.5021
30.1465
46.7693
65.1644
85.1995
106.666
128.971
151.197
172.376
0.732247
15.4034
29.8315
46.0432
63.9862
83.6238
104.822
127.143
149.764
171.668
0.610167
15.4601
29.7234
45.527
62.9794
82.1152
102.887
125.037
148.012
170.845
0.484712
15.6981
29.8353
45.2483
62.2182
80.785
100.951
122.615
145.499
168.821
0.282297
16.0573
29.9286
45.0002
61.6036
79.7088
99.2878
120.263
142.342
165.067
193.995
210.467
225.497
238.751
249.874
259.306
264.975
268.653
268.972
330.593
193.34
209.678
224.388
237.173
247.679
256.376
261.103
263.568
265.068
330.766
192.732
209.018
223.533
236.057
246.279
254.73
259.053
261.106
264.785
332.474
192.172
208.497
222.942
235.417
245.664
254.284
258.763
261.409
267.86
334.134
191.692
208.158
222.654
235.273
245.784
254.879
259.996
263.901
272.777
336.614
191.383
208.057
222.702
235.621
246.543
256.312
262.337
267.659
278.383
340.252
191.389
208.211
222.994
236.337
247.774
258.325
265.337
271.923
284.192
344.656
191.661
208.49
223.332
237.25
249.328
260.677
268.588
276.35
290.6
349.673
191.437
209.034
223.987
238.442
251.154
263.186
271.871
281.164
298.135
355.353
190.294
210.619
225.688
240.21
253.277
265.763
274.975
285.863
304.755
361.957
191.036
212.53
227.941
242.461
255.579
268.604
277.649
288.639
303.822
368.855
193.595
213.804
229.646
244.157
257.406
270.717
280.145
291.428
305.153
371.268
199.215
215.511
231.358
246.135
259.765
273.22
283.884
295.947
313.041
373.316
199.222
215.957
232.152
247.384
261.465
275.414
287.051
300.209
319.358
377.268
198.405
215.764
232.4
248.07
262.612
277.133
289.799
304.292
323.971
379.911
197.763
215.34
232.258
248.243
263.139
278.113
291.629
307.08
326.531
380.391
197.292
214.852
231.832
247.929
262.988
278.252
292.509
308.587
327.06
378.086
196.842
214.261
231.102
247.061
262.004
277.323
292.078
308.37
325.844
375.285
196.332
213.53
230.068
245.644
260.146
275.074
289.491
305.152
322.992
375.527
195.76
212.72
228.879
243.92
257.698
271.567
283.991
296.982
315.476
372.246
195.177
211.963
227.781
242.266
255.168
267.453
276.789
285.215
298.866
348.459
194.639
211.271
226.695
240.543
252.47
263.037
270.103
275.325
278.467
329.42
182.748
180.709
179.632
179.168
178.907
178.653
178.318
177.879
177.342
176.783
156.577
157.641
158.428
158.898
159.144
159.199
159.039
158.665
158.082
157.387
129.199
132.781
135.6
137.306
138.272
138.741
138.8
138.492
137.851
136.981
104.62
108.555
112.367
114.985
116.622
117.512
117.811
117.597
116.945
115.955
82.9761
86.1351
89.7922
92.7137
94.7109
95.8915
96.3889
96.2836
95.6685
94.6438
63.6958
65.8677
68.7089
71.2791
73.21
74.4355
75.0108
74.9877
74.4555
73.5205
46.4888
47.7905
49.5772
51.3741
52.8295
53.7936
54.2514
54.2268
53.7829
53.0255
31.2063
31.8074
32.5981
33.449
34.182
34.6703
34.8559
34.7351
34.3548
33.818
17.8149
17.7443
17.7286
17.7905
17.866
17.8719
17.76
17.5257
17.2014
16.8712
5.51534
4.37822
3.42422
2.82818
2.42751
2.08566
1.74027
1.40579
1.1364
0.80703
)
;

boundaryField
{
    right
    {
        type            cyclic;
    }
    left
    {
        type            cyclic;
    }
    outerWall
    {
        type            zeroGradient;
    }
    stirrerWall
    {
        type            zeroGradient;
    }
    top
    {
        type            empty;
    }
    bottom
    {
        type            empty;
    }
}


// ************************************************************************* //
