/*--------------------------------*- C++ -*----------------------------------*\
  =========                 |
  \\      /  F ield         | OpenFOAM: The Open Source CFD Toolbox
   \\    /   O peration     | Website:  https://openfoam.org
    \\  /    A nd           | Version:  10
     \\/     M anipulation  |
\*---------------------------------------------------------------------------*/
FoamFile
{
    format      ascii;
    class       surfaceScalarField;
    location    "3600";
    object      phi;
}
// * * * * * * * * * * * * * * * * * * * * * * * * * * * * * * * * * * * * * //

dimensions      [0 3 -1 0 0 0 0];

internalField   nonuniform List<scalar> 
788
(
1.56792e-06
-4.07769e-06
2.4208e-06
1.37064e-05
4.15071e-06
1.81494e-05
5.65725e-06
1.89975e-05
6.30796e-06
1.70011e-05
5.88334e-06
1.2873e-05
4.76613e-06
6.99207e-06
3.62362e-06
-1.53497e-06
3.02086e-06
-1.3857e-05
-2.93076e-05
2.66062e-06
6.3163e-07
-4.64951e-06
2.33994e-06
1.22403e-05
4.49965e-06
1.62401e-05
6.30945e-06
1.72829e-05
7.28768e-06
1.59516e-05
7.33644e-06
1.26586e-05
6.87374e-06
7.36363e-06
6.22492e-06
-7.13397e-07
5.71881e-06
-1.29243e-05
-2.83422e-05
5.18185e-06
5.3606e-07
-5.08469e-06
2.45194e-06
1.05886e-05
4.82738e-06
1.41139e-05
6.91873e-06
1.52797e-05
8.26747e-06
1.453e-05
8.80791e-06
1.19697e-05
8.82156e-06
7.29264e-06
8.4476e-06
-1.58524e-07
7.84672e-06
-1.19663e-05
-2.72407e-05
7.06604e-06
4.76849e-07
-5.45133e-06
2.41195e-06
8.93413e-06
4.86316e-06
1.1916e-05
7.14143e-06
1.3077e-05
8.80389e-06
1.27785e-05
9.79494e-06
1.08184e-05
1.02225e-05
6.78429e-06
1.00546e-05
1.13795e-07
9.23476e-06
-1.09474e-05
-2.5975e-05
8.06733e-06
3.26243e-07
-5.66164e-06
2.16602e-06
7.38729e-06
4.62065e-06
9.7172e-06
7.01059e-06
1.07405e-05
8.9401e-06
1.07217e-05
1.02869e-05
9.26736e-06
1.09829e-05
5.94891e-06
1.08022e-05
3.01158e-07
9.52645e-06
-9.6139e-06
-2.42983e-05
7.78588e-06
2.8623e-08
-5.56899e-06
1.73083e-06
5.98592e-06
4.15736e-06
7.54132e-06
6.603e-06
8.31087e-06
8.70374e-06
8.42749e-06
1.02293e-05
7.45285e-06
1.09468e-05
4.98775e-06
1.05042e-05
6.1721e-07
8.55723e-06
-7.75602e-06
-2.20348e-05
6.09322e-06
-4.18798e-07
-5.0244e-06
1.17006e-06
4.70104e-06
3.55919e-06
5.3838e-06
5.98278e-06
5.8413e-06
8.11843e-06
5.99645e-06
9.68353e-06
5.47816e-06
1.02784e-05
4.028e-06
9.41462e-06
1.24185e-06
6.68689e-06
-5.20314e-06
-1.90696e-05
3.46674e-06
-1.01054e-06
-3.88539e-06
6.14179e-07
3.37813e-06
3.00195e-06
3.19123e-06
5.324e-06
3.3829e-06
7.38287e-06
3.51061e-06
8.95664e-06
3.36398e-06
9.62277e-06
2.90727e-06
8.71027e-06
1.88066e-06
5.3402e-06
-2.00203e-06
-1.48342e-05
8.6887e-07
-1.72192e-06
-2.03484e-06
3.75245e-07
1.53643e-06
2.71911e-06
9.28271e-07
4.81186e-06
1.03331e-06
6.68841e-06
1.12903e-06
8.29548e-06
1.21566e-06
9.44045e-06
1.39402e-06
9.62571e-06
1.57081e-06
6.87288e-06
7.30826e-07
-7.36366e-06
-7.3652e-07
-1.93727e-06
-3.56124e-07
4.55351e-07
1.24872e-06
2.12373e-06
3.1824e-06
4.55759e-06
6.18371e-06
6.90417e-06
-6.00357e-07
2.31387e-06
-4.94677e-05
2.24161e-06
-8.29188e-05
2.45742e-06
-0.000129841
2.7628e-06
-0.000186902
3.62823e-06
-0.000253591
4.9478e-06
-0.000342609
9.28e-06
-0.00043159
1.38754e-05
-0.0005161
1.39337e-05
-0.000562551
-0.000461499
4.67642e-06
-4.88005e-05
4.60243e-06
-8.31233e-05
5.12223e-06
-0.000131001
6.08162e-06
-0.000188561
8.15968e-06
-0.000256083
1.09813e-05
-0.000345382
1.65735e-05
-0.000436819
2.70923e-05
-0.000526975
3.9711e-05
-0.000575007
-0.000420935
6.37605e-06
-4.80224e-05
6.41293e-06
-8.33327e-05
7.25383e-06
-0.000132061
8.81528e-06
-0.000190097
1.16778e-05
-0.000258859
1.48046e-05
-0.000348918
2.06151e-05
-0.000442695
3.32101e-05
-0.000538438
4.71354e-05
-0.000589021
-0.000373958
7.15487e-06
-4.72549e-05
7.3331e-06
-8.3835e-05
8.36871e-06
-0.00013329
1.0197e-05
-0.000191674
1.32103e-05
-0.000261674
1.61573e-05
-0.000352453
2.18579e-05
-0.000448208
3.34672e-05
-0.000550098
4.53777e-05
-0.000600937
-0.000328788
6.78531e-06
-4.65334e-05
7.31183e-06
-8.47283e-05
8.51558e-06
-0.00013464
1.02932e-05
-0.000193193
1.28953e-05
-0.000264271
1.50762e-05
-0.000355402
1.94637e-05
-0.0004521
2.88203e-05
-0.000559761
3.9373e-05
-0.000611291
-0.000289505
5.34723e-06
-4.61442e-05
6.43373e-06
-8.61424e-05
7.75531e-06
-0.000135969
9.22689e-06
-0.000194325
1.1046e-05
-0.000266088
1.23748e-05
-0.000357186
1.4824e-05
-0.000453879
2.16177e-05
-0.00056679
3.15933e-05
-0.000620895
-0.000257994
3.52084e-06
-4.65546e-05
5.12529e-06
-8.80063e-05
6.38911e-06
-0.000137159
7.44281e-06
-0.000195097
8.40027e-06
-0.000267193
8.98958e-06
-0.000357971
9.67669e-06
-0.000453888
1.3354e-05
-0.000570704
2.35178e-05
-0.000630656
-0.00023458
1.87246e-06
-4.78797e-05
3.63773e-06
-8.99859e-05
4.78198e-06
-0.000138226
5.48772e-06
-0.000195686
5.62904e-06
-0.000267743
5.51303e-06
-0.000357987
4.92996e-06
-0.000452693
5.61043e-06
-0.000571721
1.40864e-05
-0.000638929
-0.000220407
9.43665e-07
-4.98497e-05
2.75711e-06
-9.20091e-05
3.62226e-06
-0.000139013
3.92579e-06
-0.000195987
3.4076e-06
-0.000267802
2.7174e-06
-0.000357422
6.79382e-07
-0.000450085
-2.02861e-06
-0.000569382
1.83199e-06
-0.000643242
-0.000218275
3.05845e-06
-5.36701e-05
3.62758e-06
-9.27949e-05
3.23943e-06
-0.000138511
3.05161e-06
-0.000195658
2.24126e-06
-0.000267298
1.88754e-06
-0.000357197
1.03667e-06
-0.000449381
-2.46445e-06
-0.000565976
-1.70294e-05
-0.000628929
-0.00023573
1.10735e-06
-5.48745e-05
2.4104e-07
-9.18808e-05
-9.12246e-07
-0.000137069
-1.82952e-06
-0.000194627
-2.50365e-06
-0.00026712
-2.37173e-06
-0.000357427
-3.95842e-06
-0.000447808
1.88543e-06
-0.000571682
2.79797e-05
-0.000655088
-0.000207782
3.19598e-06
-5.81247e-05
2.16111e-06
-9.07721e-05
1.11462e-06
-0.000135596
3.19162e-07
-0.000193685
-5.95281e-07
-0.000266777
-8.59777e-07
-0.000357118
-2.93553e-06
-0.000445537
2.42444e-06
-0.000577212
3.07465e-05
-0.000683546
-0.000176764
1.18194e-06
-5.12536e-05
-8.16608e-06
-2.1079e-06
-8.79684e-05
-3.62568e-06
-0.000133701
-5.1093e-06
-0.000191934
-7.68173e-06
-0.000264529
-8.84656e-06
-0.000355836
-9.74205e-06
-0.000444851
-1.2894e-05
-0.000573965
-2.33925e-05
-0.000672949
-0.000200502
-3.83191e-06
-5.30747e-05
5.18807e-06
-4.66316e-06
-8.74629e-05
-5.1162e-06
-0.000132758
-6.17687e-06
-0.000190616
-8.53028e-06
-0.000262642
-9.52442e-06
-0.000354672
-1.28379e-05
-0.00044176
-1.63169e-05
-0.000570267
-1.41669e-05
-0.000675039
-0.000214926
-6.49866e-06
-5.50276e-05
8.03562e-06
-6.63349e-06
-8.77282e-05
-6.80072e-06
-0.000132223
-7.75109e-06
-0.000189497
-1.02374e-05
-0.000260663
-1.14522e-05
-0.000353251
-1.52042e-05
-0.000437975
-2.00256e-05
-0.000565779
-1.55087e-05
-0.000679457
-0.000230657
-6.89947e-06
-5.59846e-05
7.41974e-06
-7.33231e-06
-8.78106e-05
-7.56095e-06
-0.000131726
-8.49001e-06
-0.000188453
-1.1069e-05
-0.000258684
-1.26074e-05
-0.000351803
-1.59649e-05
-0.00043445
-2.10108e-05
-0.000561062
-1.77898e-05
-0.000682555
-0.000248677
-6.44285e-06
-5.60793e-05
6.05198e-06
-7.28932e-06
-8.74989e-05
-7.65648e-06
-0.000131095
-8.62201e-06
-0.000187321
-1.12011e-05
-0.000256583
-1.30037e-05
-0.000350108
-1.59858e-05
-0.000431335
-2.08809e-05
-0.000556566
-1.90752e-05
-0.000684242
-0.000267952
-5.76665e-06
-5.55501e-05
4.74906e-06
-6.77529e-06
-8.68914e-05
-7.1325e-06
-0.000130411
-8.04961e-06
-0.000186244
-1.05661e-05
-0.000254597
-1.28885e-05
-0.000348
-1.58907e-05
-0.000428291
-2.06191e-05
-0.000552288
-2.12503e-05
-0.000683442
-0.000289315
-4.92844e-06
-5.47081e-05
3.68544e-06
-5.66392e-06
-8.62598e-05
-5.69321e-06
-0.000129938
-6.2765e-06
-0.000185523
-8.37293e-06
-0.000253157
-1.08171e-05
-0.000345917
-1.38548e-05
-0.000425249
-1.851e-05
-0.000548024
-2.4635e-05
-0.000677039
-0.00031403
-3.94874e-06
-5.36395e-05
2.6807e-06
-4.27641e-06
-8.56318e-05
-3.90419e-06
-0.000129748
-4.05678e-06
-0.000185287
-5.60446e-06
-0.000252389
-7.29636e-06
-0.000344609
-9.18466e-06
-0.000423125
-1.72797e-05
-0.000540135
-3.32828e-05
-0.000660853
-0.0003474
-2.76302e-06
-5.25709e-05
1.75257e-06
-2.74655e-06
-8.49176e-05
-2.19186e-06
-0.000129715
-2.02141e-06
-0.000185536
-3.07382e-06
-0.000252176
-4.48733e-06
-0.000343089
-2.33264e-06
-0.000423763
-2.73195e-05
-0.000514713
-0.000109661
-0.000580175
-0.000456666
-2.68117e-07
-3.3254e-07
-5.40815e-07
-7.49157e-07
-1.09322e-06
-2.33667e-06
-4.02394e-06
1.581e-06
-2.66002e-06
-2.02037e-05
-1.91596e-05
1.05529e-05
-2.91405e-05
1.45767e-05
-3.35961e-05
1.18741e-05
-3.57229e-05
8.86373e-06
-3.64569e-05
6.10263e-06
-3.62482e-05
4.01792e-06
-3.54394e-05
2.69708e-06
-3.41177e-05
1.61436e-06
-3.26208e-05
9.5853e-07
-6.29768e-07
-4.92398e-06
1.53236e-05
-1.14607e-05
2.09677e-05
-1.62037e-05
1.65742e-05
-1.90219e-05
1.15527e-05
-2.03544e-05
7.29445e-06
-2.0573e-05
4.15389e-06
-1.99731e-05
2.13633e-06
-1.86524e-05
4.99522e-07
-1.68846e-05
-4.05871e-07
-1.61292e-06
1.40232e-06
1.39422e-05
-2.65417e-08
2.25893e-05
-2.79952e-06
1.96356e-05
-5.22249e-06
1.41583e-05
-6.72237e-06
8.9444e-06
-7.29075e-06
4.87721e-06
-6.99952e-06
2.04084e-06
-5.98319e-06
-2.73961e-07
-4.22825e-06
-1.90504e-06
-3.15473e-06
3.74221e-06
1.03189e-05
6.81992e-06
1.98527e-05
7.16951e-06
1.96684e-05
6.23047e-06
1.53755e-05
5.06396e-06
1.03447e-05
4.27184e-06
5.87369e-06
4.1425e-06
2.34487e-06
4.5442e-06
-5.53497e-07
5.56427e-06
-2.90979e-06
-4.5254e-06
3.73115e-06
6.71906e-06
9.20175e-06
1.4688e-05
1.25641e-05
1.65906e-05
1.37954e-05
1.43546e-05
1.38334e-05
1.04754e-05
1.34255e-05
6.40856e-06
1.30933e-05
2.74887e-06
1.29191e-05
-3.83842e-07
1.29649e-05
-3.06704e-06
-5.00557e-06
3.00831e-06
3.8005e-06
8.67151e-06
9.22022e-06
1.36577e-05
1.173e-05
1.6904e-05
1.12016e-05
1.85979e-05
8.85244e-06
1.92434e-05
5.81041e-06
1.9284e-05
2.72469e-06
1.89855e-05
-1.10344e-07
1.8447e-05
-2.60446e-06
-4.48918e-06
2.17819e-06
1.65773e-06
6.9748e-06
4.49228e-06
1.21316e-05
6.56649e-06
1.63537e-05
6.98317e-06
1.9222e-05
5.995e-06
2.08802e-05
4.16877e-06
2.15966e-05
2.02817e-06
2.15967e-05
-8.99854e-08
2.09418e-05
-1.92945e-06
-3.33623e-06
1.57927e-06
7.77782e-08
5.13877e-06
9.08263e-07
9.41767e-06
2.21352e-06
1.345e-05
2.91488e-06
1.66401e-05
2.80023e-06
1.87763e-05
2.05776e-06
1.98848e-05
9.74889e-07
2.00952e-05
-2.13798e-07
1.95478e-05
-1.26083e-06
-2.02439e-06
9.78606e-07
-9.14086e-07
3.09813e-06
-1.27589e-06
5.88098e-06
-6.44066e-07
8.72832e-06
3.60486e-08
1.11783e-05
3.57099e-07
1.29433e-05
3.37539e-07
1.3905e-05
9.81079e-08
1.40755e-05
-2.56195e-07
1.363e-05
-6.4584e-07
-9.08413e-07
-9.25533e-07
-2.23935e-06
-2.89908e-06
-2.86096e-06
-2.4846e-06
-2.10991e-06
-1.95499e-06
-2.13382e-06
-2.68868e-06
)
;

boundaryField
{
    right
    {
        type            cyclic;
        value           nonuniform List<scalar> 
20
(
0.000476332
0.000563186
0.00050923
0.000429289
0.000342881
0.000253513
0.000187075
0.000130167
8.39266e-05
5.09637e-05
3.07872e-05
1.51576e-05
2.65751e-06
-6.40329e-06
-1.29512e-05
-1.78204e-05
-2.01997e-05
-1.91449e-05
-1.36869e-05
3.3772e-06
)
;
    }
    left
    {
        type            cyclic;
        value           nonuniform List<scalar> 
20
(
-0.000476332
-0.000563186
-0.00050923
-0.000429289
-0.000342881
-0.000253513
-0.000187075
-0.000130167
-8.39266e-05
-5.09637e-05
-3.07872e-05
-1.51576e-05
-2.65751e-06
6.40329e-06
1.29512e-05
1.78204e-05
2.01997e-05
1.91449e-05
1.36869e-05
-3.3772e-06
)
;
    }
    outerWall
    {
        type            calculated;
        value           uniform 0;
    }
    stirrerWall
    {
        type            calculated;
        value           uniform 0;
    }
    top
    {
        type            empty;
        value           nonuniform List<scalar> 0();
    }
    bottom
    {
        type            empty;
        value           nonuniform List<scalar> 0();
    }
}


// ************************************************************************* //
