/*--------------------------------*- C++ -*----------------------------------*\
  =========                 |
  \\      /  F ield         | OpenFOAM: The Open Source CFD Toolbox
   \\    /   O peration     | Website:  https://openfoam.org
    \\  /    A nd           | Version:  10
     \\/     M anipulation  |
\*---------------------------------------------------------------------------*/
FoamFile
{
    format      ascii;
    class       volVectorField;
    location    "3600";
    object      U;
}
// * * * * * * * * * * * * * * * * * * * * * * * * * * * * * * * * * * * * * //

dimensions      [0 1 -1 0 0 0 0];

internalField   nonuniform List<vector> 
420
(
(0.37944 8.73762 2.86006e-18)
(-0.187825 11.4342 -2.49825e-17)
(-0.0506168 13.0972 -1.64064e-16)
(0.0427689 14.4272 4.83369e-17)
(0.0618511 15.4955 -3.76319e-16)
(-0.00460635 16.372 0)
(-0.150391 17.1066 0)
(-0.293407 17.6208 4.28697e-16)
(-0.386055 17.8342 -4.80225e-16)
(-0.451503 17.7856 0)
(-0.290501 8.66886 1.67719e-17)
(-1.16029 11.2889 -4.13936e-17)
(-0.985034 12.9303 4.47226e-16)
(-0.95539 14.2747 -7.81252e-16)
(-0.997395 15.3936 2.50968e-16)
(-1.10826 16.3347 1.99359e-17)
(-1.25991 17.1135 2.52842e-15)
(-1.40875 17.6561 -6.28991e-16)
(-1.52232 17.8686 1.01223e-15)
(-1.59515 17.8249 0)
(-0.857066 8.57024 -4.02549e-17)
(-1.996 11.0279 -7.22752e-17)
(-1.88991 12.6522 4.11698e-16)
(-1.93314 14.0191 9.0674e-16)
(-2.0396 15.1903 -5.9854e-16)
(-2.1952 16.1953 3.06282e-15)
(-2.37376 17.0166 1.3745e-15)
(-2.55207 17.5949 3.97967e-15)
(-2.70248 17.8155 -1.5726e-15)
(-2.78543 17.7699 -3.31765e-15)
(-1.44596 8.48271 5.64099e-17)
(-2.79324 10.7147 9.82658e-17)
(-2.78529 12.2989 -5.13626e-16)
(-2.91233 13.6682 5.84851e-16)
(-3.08973 14.8803 -1.1126e-15)
(-3.30137 15.9308 1.3051e-15)
(-3.5179 16.7935 -7.91319e-15)
(-3.73209 17.4185 0)
(-3.92642 17.6669 -3.43085e-15)
(-4.02887 17.6265 3.02598e-15)
(-2.05314 8.33512 0)
(-3.5702 10.3433 1.23528e-16)
(-3.66531 11.8732 -1.17942e-16)
(-3.87929 13.226 0)
(-4.13146 14.4558 -2.16994e-16)
(-4.40717 15.5369 -3.15108e-16)
(-4.68017 16.4426 2.64531e-15)
(-4.95068 17.1216 -3.2735e-15)
(-5.20874 17.4212 0)
(-5.34757 17.3879 -1.24603e-14)
(-2.6727 8.14744 -3.0596e-17)
(-4.33189 9.91479 0)
(-4.5193 11.3758 0)
(-4.81737 12.6952 8.34932e-16)
(-5.14851 13.9232 -1.58807e-15)
(-5.4991 15.0256 1.88891e-15)
(-5.8598 15.9627 5.66071e-16)
(-6.21396 16.7083 7.34705e-15)
(-6.55941 17.085 -9.12276e-15)
(-6.74958 17.0567 6.14108e-15)
(-3.30654 7.93339 0)
(-5.0714 9.43237 -8.30834e-17)
(-5.33376 10.8127 -9.74292e-16)
(-5.71173 12.0846 -5.78237e-16)
(-6.12772 13.2921 -2.5366e-15)
(-6.56862 14.4023 1.84793e-15)
(-7.04148 15.3812 -4.64833e-15)
(-7.51456 16.2061 7.21401e-16)
(-7.96882 16.688 -2.69111e-15)
(-8.21597 16.6694 -9.68306e-15)
(-3.96867 7.69815 7.0871e-17)
(-5.76907 8.89846 6.81274e-17)
(-6.08739 10.1955 1.31517e-15)
(-6.54103 11.4117 4.97268e-16)
(-7.04785 12.581 1.64707e-15)
(-7.59165 13.6875 0)
(-8.18165 14.7162 4.81189e-15)
(-8.79527 15.6497 6.27075e-15)
(-9.36373 16.285 7.62373e-15)
(-9.69743 16.2698 7.5752e-15)
(-4.67881 7.42479 7.38913e-17)
(-6.38908 8.33993 6.01517e-17)
(-6.77668 9.58022 -6.43365e-17)
(-7.32279 10.7487 -1.10128e-15)
(-7.92939 11.8626 3.68175e-15)
(-8.56709 12.933 5.73294e-15)
(-9.23768 13.9692 -2.07893e-15)
(-9.92645 14.9739 0)
(-10.5731 15.7909 0)
(-11.07 15.7942 -7.72269e-15)
(-5.50666 7.04318 -2.83329e-17)
(-6.90246 7.75255 6.94208e-16)
(-7.47509 8.76922 0)
(-8.19476 9.78338 0)
(-8.9495 10.7875 -3.31549e-15)
(-9.71257 11.8008 -3.29027e-17)
(-10.472 12.8357 5.96915e-15)
(-11.1985 13.887 -1.30197e-14)
(-11.8875 14.847 1.54992e-14)
(-12.5558 15.127 1.28236e-15)
(-0.477456 17.4064 0)
(-0.514324 16.6701 0)
(-0.491207 15.6176 0)
(-0.382642 14.6402 -7.22298e-16)
(-0.389818 13.8926 0)
(-0.423764 12.824 0)
(0.419662 12.8087 7.57463e-16)
(-1.12854 13.7045 0)
(-4.37022 16.4959 0)
(24.4885 25.5512 0)
(-1.60816 17.4319 1.39309e-15)
(-1.6092 16.6341 2.31996e-15)
(-1.49699 15.5258 9.51041e-17)
(-1.30204 14.5425 7.71616e-16)
(-1.21281 13.7821 1.69325e-17)
(-1.0947 12.7271 7.96456e-16)
(-0.239271 12.6554 -1.34275e-16)
(-1.90259 13.3101 -1.09545e-16)
(-5.14571 16.0151 -2.22467e-15)
(26.4669 28.5063 -8.71532e-15)
(-2.7846 17.3479 1.21841e-15)
(-2.73498 16.4766 0)
(-2.51564 15.3256 -1.70795e-15)
(-2.23679 14.3411 -1.34913e-15)
(-2.05244 13.5494 4.02505e-15)
(-1.8117 12.508 -8.01007e-16)
(-1.01251 12.3969 1.13076e-15)
(-2.73953 12.6916 0)
(-5.81363 15.2104 1.01693e-15)
(25.0439 32.3999 3.4995e-16)
(-4.0181 17.1697 2.64446e-15)
(-3.90001 16.2162 6.36685e-15)
(-3.56321 15.0394 -6.43344e-15)
(-3.21106 14.0605 2.49034e-15)
(-2.94532 13.2309 -1.01908e-16)
(-2.59425 12.1975 0)
(-1.86798 12.0456 -1.14043e-15)
(-3.63051 12.0028 -1.25358e-15)
(-6.34123 14.4144 -1.02663e-15)
(20.6888 35.3315 2.76317e-14)
(-5.32336 16.8742 2.34874e-15)
(-5.09618 15.8307 -2.08622e-15)
(-4.62854 14.6593 6.3257e-15)
(-4.21503 13.6981 -2.43458e-15)
(-3.88185 12.8351 1.76813e-15)
(-3.43819 11.8223 -2.78304e-15)
(-2.81814 11.6298 1.80548e-15)
(-4.51566 11.243 1.0685e-15)
(-7.02766 13.6 0)
(15.4569 37.3942 -5.20908e-14)
(-6.69203 16.4339 2.8997e-15)
(-6.29727 15.3048 -1.21497e-14)
(-5.69791 14.1842 -3.27668e-15)
(-5.23953 13.2551 7.21395e-15)
(-4.85189 12.3682 5.46367e-15)
(-4.3273 11.399 -1.59609e-16)
(-3.8095 11.1925 -3.268e-17)
(-5.40257 10.4712 -1.14922e-15)
(-7.82345 12.7252 -3.74881e-15)
(10.1374 38.6327 4.24181e-14)
(-8.07375 15.8347 2.99874e-15)
(-7.45147 14.6399 4.29078e-15)
(-6.74384 13.6191 0)
(-6.26194 12.7365 -2.43289e-15)
(-5.82717 11.8464 -3.80233e-15)
(-5.22952 10.9394 -1.06965e-16)
(-4.79338 10.7496 -6.52495e-15)
(-6.2675 9.7041 -1.31973e-15)
(-8.63669 11.7566 5.07693e-15)
(5.05385 39.1294 -1.68763e-14)
(-9.37264 15.0572 1.13382e-14)
(-8.52974 13.848 -3.86514e-15)
(-7.74013 12.972 0)
(-7.2466 12.1475 4.77405e-17)
(-6.77619 11.2741 1.52673e-14)
(-6.11839 10.4413 -5.89498e-15)
(-5.75897 10.2847 -4.55153e-15)
(-7.09647 9.04429 3.4284e-15)
(-9.43023 10.6955 -3.16977e-15)
(0.264484 38.9378 0)
(-10.3943 14.135 2.39598e-16)
(-9.51527 12.9837 -3.80345e-15)
(-8.67172 12.2767 0)
(-8.1602 11.5051 5.31232e-15)
(-7.66821 10.6557 -1.19307e-14)
(-6.95673 9.90776 6.19868e-15)
(-6.67727 9.79277 2.43458e-15)
(-7.90007 8.42919 0)
(-10.325 9.67296 -4.80311e-16)
(-4.13487 38.0165 2.1234e-14)
(-10.7084 13.2726 3.97948e-16)
(-10.355 12.0742 1.62269e-16)
(-9.51601 11.5179 0)
(-8.9543 10.7822 -1.05421e-14)
(-8.42866 9.95405 3.94559e-15)
(-7.64092 9.27414 -3.29659e-15)
(-7.3361 9.22889 2.21923e-15)
(-8.46613 7.84581 4.91979e-17)
(-11.1686 8.85264 -4.22387e-17)
(-7.90359 36.0007 -2.06281e-14)
(-10.71 13.5101 2.85139e-15)
(-11.1242 11.5772 -4.44865e-15)
(-10.4263 11.0179 0)
(-9.83275 10.2829 0)
(-9.26516 9.4558 0)
(-8.43563 8.82712 -1.85737e-15)
(-8.18104 8.8995 7.53364e-15)
(-8.93601 7.49976 0)
(-10.5868 8.93952 0)
(-10.4333 35.9399 0)
(-11.3969 12.8135 -2.85969e-15)
(-11.6679 11.2592 -4.77115e-15)
(-11.0672 10.5886 0)
(-10.403 9.84116 3.10054e-15)
(-9.77482 8.99787 -2.34622e-15)
(-8.92418 8.37414 2.01991e-15)
(-8.68713 8.537 3.73957e-15)
(-9.2206 6.90344 2.90063e-17)
(-10.4645 7.93336 1.09922e-15)
(-12.2352 36.5004 0)
(-12.7755 11.0491 3.66533e-16)
(-12.3583 10.4286 -2.00402e-16)
(-11.7351 9.72241 0)
(-10.9893 9.00917 4.12488e-17)
(-10.2946 8.17617 5.47065e-15)
(-9.39084 7.55861 -3.9746e-15)
(-9.14447 7.74859 -1.04432e-14)
(-9.57747 5.81053 -5.925e-15)
(-11.4639 5.37211 1.09034e-14)
(-14.7166 35.2862 2.27436e-14)
(-14.114 9.95712 -1.25254e-14)
(-13.4081 9.43943 4.59214e-15)
(-12.642 8.86176 0)
(-11.8233 8.24517 -7.07295e-15)
(-11.098 7.4879 -5.54897e-15)
(-10.1001 6.92699 8.93904e-15)
(-9.91622 7.15473 4.17258e-15)
(-10.3189 5.20534 0)
(-12.0863 4.93899 -7.90456e-15)
(-17.2475 33.2235 -4.49302e-15)
(-14.7595 8.64968 -2.56452e-16)
(-14.1313 8.29396 4.68993e-15)
(-13.3524 7.83061 0)
(-12.4998 7.31477 1.38621e-14)
(-11.754 6.62148 -4.21417e-17)
(-10.6972 6.09068 -8.52943e-17)
(-10.5658 6.45475 9.30494e-15)
(-10.8288 4.47131 -6.90159e-15)
(-12.3449 3.84103 -6.54675e-15)
(-19.7024 30.903 0)
(-15.2546 7.47514 -2.98817e-15)
(-14.7111 7.1851 1.03707e-14)
(-13.9492 6.79378 9.01867e-15)
(-13.0827 6.37126 -1.03947e-14)
(-12.3335 5.74597 -1.80785e-14)
(-11.2249 5.24083 -5.67759e-16)
(-11.1533 5.7483 -4.95768e-15)
(-11.2828 3.78624 -4.01323e-15)
(-12.4953 2.81918 -9.79258e-15)
(-21.8178 28.3251 -2.66429e-14)
(-15.7052 6.35107 -9.73884e-15)
(-15.2054 6.08706 5.34002e-15)
(-14.4518 5.74747 -3.99956e-15)
(-13.5788 5.41047 -1.12552e-14)
(-12.8335 4.85247 8.56766e-15)
(-11.6761 4.37747 -6.4098e-16)
(-11.6723 5.01328 9.53397e-15)
(-11.6786 3.08566 4.19483e-15)
(-12.5827 1.88917 6.46179e-15)
(-23.558 25.547 3.55398e-15)
(-16.131 5.22828 2.85837e-15)
(-15.6362 4.98365 -2.71307e-15)
(-14.8708 4.69489 -2.36696e-16)
(-13.9923 4.44139 1.1232e-14)
(-13.2524 3.95368 -1.59186e-14)
(-12.0608 3.51608 5.10533e-15)
(-12.1398 4.22158 -5.50655e-15)
(-12.053 2.37951 1.28693e-14)
(-12.6552 0.983586 0)
(-25.0868 22.6534 2.12346e-17)
(-16.5168 4.08646 3.23999e-15)
(-15.9922 3.87547 2.6967e-15)
(-15.194 3.65492 4.64085e-15)
(-14.3071 3.49043 -7.329e-15)
(-13.5659 3.08197 2.97367e-15)
(-12.3658 2.72125 0)
(-12.5164 3.41785 -2.53994e-15)
(-12.3053 1.6898 -9.10313e-15)
(-12.8047 0.274102 -2.24469e-16)
(-26.4841 19.6355 2.19408e-14)
(-16.8401 2.92357 1.41964e-15)
(-16.2658 2.7553 0)
(-15.4268 2.6092 2.23485e-15)
(-14.5314 2.53604 2.0065e-15)
(-13.7842 2.20721 1.74265e-16)
(-12.5918 1.93755 -1.22335e-15)
(-12.7967 2.66943 2.47492e-15)
(-12.4913 0.948519 0)
(-13.1097 -0.309643 4.18131e-15)
(-26.499 15.9155 2.14191e-14)
(-17.1091 1.7471 1.55919e-15)
(-16.4759 1.6296 -2.64774e-15)
(-15.5943 1.55315 -1.78772e-16)
(-14.7078 1.56099 6.78039e-16)
(-13.9617 1.32622 -1.22147e-16)
(-12.7519 1.06727 1.06226e-15)
(-13.1161 1.99635 -2.34331e-15)
(-13.0934 0.214609 -2.22953e-16)
(-14.3258 -2.63168 4.14382e-15)
(-27.6515 11.3646 -1.59834e-14)
(-17.2722 0.640606 2.12084e-29)
(-16.5926 0.554838 0)
(-15.6051 0.490179 0)
(-14.6395 0.514028 -8.15008e-16)
(-13.9044 0.396057 0)
(-12.801 0.108341 0)
(-12.7006 1.0779 1.03083e-15)
(-13.9879 -0.351716 0)
(-16.975 -3.94225 0)
(-21.479 21.5818 -8.1296e-29)
(-14.523 12.5106 9.92133e-16)
(-14.9915 10.2142 -7.06256e-15)
(-15.3509 8.79826 7.04991e-15)
(-15.6643 7.59532 -9.94075e-15)
(-16.022 6.4867 6.84896e-15)
(-16.4011 5.37933 -1.46257e-14)
(-16.7788 4.23703 3.61701e-15)
(-17.1239 3.06578 -3.74211e-15)
(-17.4416 1.85574 0)
(-17.6404 0.694671 -4.00199e-16)
(-15.1334 11.8421 1.42099e-14)
(-15.5242 9.77872 0)
(-15.7169 8.58818 7.24541e-15)
(-15.8868 7.50544 -2.90268e-15)
(-16.1405 6.47509 -1.03977e-14)
(-16.4507 5.42141 0)
(-16.7951 4.31099 -3.99393e-15)
(-17.1358 3.16848 -1.63725e-15)
(-17.471 1.95898 1.09803e-15)
(-17.6969 0.766474 -4.42323e-16)
(-14.7694 10.9699 -1.16735e-14)
(-15.5036 9.13017 0)
(-15.783 8.1122 6.40235e-15)
(-15.9206 7.18678 7.57059e-16)
(-16.1059 6.27051 8.6239e-15)
(-16.3462 5.30286 -4.04277e-15)
(-16.6356 4.26388 0)
(-16.9386 3.19416 4.53936e-15)
(-17.2465 2.04509 -6.52565e-16)
(-17.4909 0.860631 5.4307e-16)
(-13.6519 10.1919 5.33767e-15)
(-14.9326 8.55977 -1.88841e-15)
(-15.4918 7.6091 4.62255e-15)
(-15.7443 6.80875 -4.99927e-15)
(-15.9251 5.99733 6.45665e-16)
(-16.117 5.11645 3.36101e-15)
(-16.3446 4.15596 -1.082e-14)
(-16.5882 3.15458 1.92303e-15)
(-16.8229 2.10213 3.01424e-15)
(-17.0143 0.980624 9.02876e-17)
(-12.3827 9.48382 -7.98059e-15)
(-13.8133 8.06188 5.2842e-15)
(-14.7361 7.1252 0)
(-15.201 6.3603 1.84404e-15)
(-15.4847 5.62866 2.03852e-15)
(-15.6917 4.8493 -3.10459e-16)
(-15.8818 4.00113 1.67358e-15)
(-16.0637 3.09204 3.81154e-15)
(-16.2198 2.12955 -5.11695e-18)
(-16.3309 1.08782 3.29233e-16)
(-11.1509 8.79184 -3.20029e-15)
(-12.4709 7.5986 3.72194e-15)
(-13.5322 6.6956 1.58091e-15)
(-14.2173 5.94054 -2.537e-15)
(-14.6581 5.23881 -1.63528e-15)
(-14.9655 4.51869 -2.48472e-16)
(-15.1857 3.7462 -2.90807e-15)
(-15.3494 2.91617 9.79275e-16)
(-15.4593 2.03615 2.67462e-16)
(-15.5103 1.0835 -3.15845e-16)
(-9.98886 8.10064 0)
(-11.0679 7.14089 -1.22437e-15)
(-12.0998 6.31524 4.50097e-16)
(-12.8897 5.57589 -5.85859e-16)
(-13.4537 4.88303 9.09547e-16)
(-13.8599 4.19287 0)
(-14.1418 3.46768 6.33463e-16)
(-14.3338 2.69696 9.86557e-16)
(-14.4374 1.87718 -8.47272e-16)
(-14.4675 0.99428 -2.96209e-17)
(-8.87785 7.4047 0)
(-9.70504 6.67618 -1.80567e-16)
(-10.592 5.95942 1.73154e-15)
(-11.355 5.26088 -1.25267e-15)
(-11.9658 4.58225 0)
(-12.428 3.90431 -1.75566e-16)
(-12.7562 3.20365 -5.7342e-16)
(-12.9687 2.46847 4.93887e-16)
(-13.0785 1.68079 4.83022e-16)
(-13.1211 0.843574 -1.9559e-16)
(-7.79388 6.65412 -8.14758e-16)
(-8.42174 6.12199 1.84832e-16)
(-9.12653 5.47706 1.83703e-16)
(-9.7758 4.8064 -1.84679e-16)
(-10.3206 4.13801 0)
(-10.7499 3.46293 1.90681e-16)
(-11.0627 2.76797 1.79786e-16)
(-11.2614 2.04912 -1.73743e-16)
(-11.3578 1.3107 -4.79259e-17)
(-11.4051 0.549458 -3.41052e-21)
(-6.36302 6.24971 -2.04958e-16)
(-6.5543 6.02574 5.84153e-18)
(-6.92745 5.50519 -7.02399e-18)
(-7.33213 4.90882 0)
(-7.7167 4.3112 8.97162e-18)
(-8.05225 3.7195 0)
(-8.32465 3.12075 6.05978e-17)
(-8.52941 2.50364 -5.8094e-18)
(-8.68201 1.85508 2.11735e-17)
(-8.73435 1.1538 -3.76425e-18)
)
;

boundaryField
{
    right
    {
        type            cyclic;
    }
    left
    {
        type            cyclic;
    }
    outerWall
    {
        type            calculated;
        value           nonuniform List<vector> 
22
(
(-1.55201 41.8305 0)
(-4.64749 41.6006 0)
(-7.71741 41.1419 0)
(-10.7449 40.4569 0)
(-13.7132 39.5492 0)
(-16.6061 38.424 0)
(-19.4075 37.0874 0)
(-22.1022 35.5467 0)
(-24.6752 33.8104 0)
(-27.1124 31.8882 0)
(-28.9573 30.2506 0)
(-30.2506 28.9573 0)
(-31.8882 27.1124 0)
(-33.8104 24.6752 0)
(-35.5467 22.1022 0)
(-37.0874 19.4075 0)
(-38.424 16.6061 0)
(-39.5492 13.7132 0)
(-40.4569 10.7449 0)
(-41.1419 7.71741 0)
(-41.6006 4.64749 0)
(-41.8305 1.55201 0)
)
;
    }
    stirrerWall
    {
        type            calculated;
        value           nonuniform List<vector> 
42
(
(-0.310178 8.3662 0)
(-0.928834 8.32046 0)
(-1.54239 8.22894 0)
(-2.14746 8.09214 0)
(-2.74072 7.91082 0)
(-3.31888 7.68598 0)
(-3.87877 7.41885 0)
(-4.41729 7.11092 0)
(-4.93148 6.76387 0)
(-5.4185 6.37963 0)
(-6.07951 6.64185 0)
(-6.92878 7.56862 0)
(-7.77806 8.49539 0)
(-8.62734 9.42216 0)
(-9.47661 10.3489 0)
(-10.3259 11.2757 0)
(-11.1752 12.2025 0)
(-12.0244 13.1292 0)
(-12.8737 14.056 0)
(-13.723 14.9828 0)
(-14.4723 15.1215 0)
(-15.1215 14.4723 0)
(-14.9828 13.723 0)
(-14.056 12.8737 0)
(-13.1292 12.0244 0)
(-12.2025 11.1752 0)
(-11.2757 10.3259 0)
(-10.3489 9.47661 0)
(-9.42216 8.62734 0)
(-8.49539 7.77806 0)
(-7.56862 6.92878 0)
(-6.64185 6.07951 0)
(-6.37963 5.4185 0)
(-6.76387 4.93148 0)
(-7.11092 4.41729 0)
(-7.41885 3.87877 0)
(-7.68598 3.31888 0)
(-7.91082 2.74072 0)
(-8.09214 2.14746 0)
(-8.22894 1.54239 0)
(-8.32046 0.928834 0)
(-8.3662 0.310178 0)
)
;
    }
    top
    {
        type            empty;
    }
    bottom
    {
        type            empty;
    }
}


// ************************************************************************* //
