/*--------------------------------*- C++ -*----------------------------------*\
  =========                 |
  \\      /  F ield         | OpenFOAM: The Open Source CFD Toolbox
   \\    /   O peration     | Website:  https://openfoam.org
    \\  /    A nd           | Version:  10
     \\/     M anipulation  |
\*---------------------------------------------------------------------------*/
FoamFile
{
    format      ascii;
    class       volVectorField;
    location    "3600";
    object      Urel;
}
// * * * * * * * * * * * * * * * * * * * * * * * * * * * * * * * * * * * * * //

dimensions      [0 1 -1 0 0 0 0];

internalField   nonuniform List<vector> 
420
(
(0.71344 -0.27063 2.86006e-18)
(0.192676 1.17284 -2.49825e-17)
(0.376399 1.58241 -1.64064e-16)
(0.51631 1.65861 4.83369e-17)
(0.581925 1.47289 -3.76319e-16)
(0.562006 1.0953 0)
(0.462764 0.575649 0)
(0.366294 -0.164417 4.28697e-16)
(0.320195 -1.20549 -4.80225e-16)
(0.301298 -2.50856 0)
(0.709675 -0.290102 1.67719e-17)
(-0.0208685 1.08376 -4.13936e-17)
(0.293677 1.47857 4.47226e-16)
(0.46264 1.57613 -7.81252e-16)
(0.559978 1.44799 2.50968e-16)
(0.588468 1.14189 1.99359e-17)
(0.576194 0.673388 2.52842e-15)
(0.566732 -0.0313401 -6.28991e-16)
(0.592552 -1.06629 1.01223e-15)
(0.659124 -2.35758 0)
(0.803796 -0.290146 -4.02549e-17)
(-0.103911 0.935072 -7.22752e-17)
(0.23347 1.32657 4.11698e-16)
(0.421596 1.46044 9.0674e-16)
(0.546512 1.39833 -5.9854e-16)
(0.622329 1.1699 3.06282e-15)
(0.675199 0.757712 1.3745e-15)
(0.72835 0.102402 3.97967e-15)
(0.809398 -0.910692 -1.5726e-15)
(0.957923 -2.1901 -3.31765e-15)
(0.866456 -0.230365 5.64099e-17)
(-0.158895 0.789759 9.82658e-17)
(0.171092 1.16166 -5.13626e-16)
(0.366161 1.31843 5.84851e-16)
(0.510915 1.31778 -1.1126e-15)
(0.621473 1.15545 1.3051e-15)
(0.727174 0.805088 -7.91319e-15)
(0.835238 0.21703 0)
(0.963178 -0.747727 -3.43085e-15)
(1.18301 -2.00129 3.02598e-15)
(0.898103 -0.182708 0)
(-0.208075 0.640743 1.23528e-16)
(0.107825 0.985581 -1.17942e-16)
(0.304936 1.15301 0)
(0.463931 1.19729 -2.16994e-16)
(0.599436 1.09272 -3.15108e-16)
(0.737697 0.812571 2.64531e-15)
(0.87847 0.305707 -3.2735e-15)
(1.03172 -0.580654 0)
(1.30422 -1.79995 -1.24603e-14)
(0.901126 -0.128299 -3.0596e-17)
(-0.260488 0.488006 0)
(0.0498289 0.797642 0)
(0.249602 0.965398 8.34932e-16)
(0.416372 1.04152 -1.58807e-15)
(0.563762 0.991904 1.88891e-15)
(0.701087 0.776926 5.66071e-16)
(0.844986 0.370307 7.34705e-15)
(0.99763 -0.405206 -9.12276e-15)
(1.30558 -1.58578 6.14108e-15)
(0.870191 -0.0547301 0)
(-0.313121 0.333187 -8.30834e-17)
(0.00623749 0.602085 -9.74292e-16)
(0.210119 0.762319 -5.78237e-16)
(0.376067 0.857998 -2.5366e-15)
(0.517186 0.856255 1.84793e-15)
(0.626393 0.723068 -4.64833e-15)
(0.735422 0.435884 7.21401e-16)
(0.863313 -0.194503 -2.69111e-15)
(1.19833 -1.32534 -9.68306e-15)
(0.787979 0.0415799 7.0871e-17)
(-0.350103 0.176911 6.81274e-17)
(-0.00589621 0.408646 1.31517e-15)
(0.203144 0.559351 4.97268e-16)
(0.359105 0.662853 1.64707e-15)
(0.478161 0.703603 0)
(0.551087 0.666338 4.81189e-15)
(0.600435 0.533766 6.27075e-15)
(0.694986 0.103021 7.62373e-15)
(1.02433 -0.978335 7.5752e-15)
(0.631551 0.141864 7.38913e-17)
(-0.339239 0.0439682 6.01517e-17)
(0.0128697 0.270903 -6.43365e-17)
(0.206629 0.425767 -1.10128e-15)
(0.340011 0.526002 3.68175e-15)
(0.442392 0.582481 5.73294e-15)
(0.511948 0.604692 -2.07893e-15)
(0.563375 0.595365 0)
(0.656934 0.39835 0)
(0.900363 -0.61251 -7.72269e-15)
(0.328176 0.173954 -2.83329e-17)
(-0.255037 -0.0722222 6.94208e-16)
(-0.014839 -0.0113902 0)
(0.0784976 0.0467095 0)
(0.136905 0.0945775 -3.31549e-15)
(0.187073 0.151588 -3.29027e-17)
(0.240989 0.230062 5.96915e-15)
(0.327877 0.324924 -1.30197e-14)
(0.452287 0.328341 1.54992e-14)
(0.597464 -0.348202 1.28236e-15)
(0.322152 -4.14885 0)
(0.334892 -6.22193 0)
(0.412935 -8.75461 0)
(0.582313 -11.3707 -7.22298e-16)
(0.642469 -13.9328 0)
(0.683072 -17.0102 0)
(1.60904 -19.2497 7.57463e-16)
(0.152225 -20.8165 0)
(-2.98828 -20.7517 0)
(25.9825 -14.7152 0)
(0.786256 -4.00474 1.39309e-15)
(0.933767 -6.13207 2.31996e-15)
(1.21046 -8.71231 9.51041e-17)
(1.58751 -11.3254 7.71616e-16)
(1.87837 -13.8902 1.69325e-17)
(2.21971 -16.9431 7.96456e-16)
(3.32231 -19.2268 -1.34275e-16)
(1.93265 -21.0213 -1.09545e-16)
(-1.00749 -21.0279 -2.22467e-15)
(30.9406 -11.5388 -8.71532e-15)
(1.19147 -3.85247 1.21841e-15)
(1.48777 -6.03856 0)
(1.98022 -8.64527 -1.70795e-15)
(2.56147 -11.2416 -1.34913e-15)
(3.08063 -13.8178 4.02505e-15)
(3.69207 -16.835 -8.01007e-16)
(4.90169 -19.1338 1.13076e-15)
(3.62909 -21.2612 0)
(1.05812 -21.4241 1.01693e-15)
(32.4727 -7.20375 3.4995e-16)
(1.51778 -3.6778 2.64446e-15)
(1.97932 -5.92423 6.36685e-15)
(2.69637 -8.53248 -6.43344e-15)
(3.46954 -11.0963 2.49034e-15)
(4.20143 -13.6808 -1.01908e-16)
(5.06862 -16.657 0)
(6.36631 -18.9602 -1.14043e-15)
(5.23647 -21.3847 -1.25358e-15)
(3.22623 -21.6102 -1.02663e-15)
(31.0318 -3.6127 2.76317e-14)
(1.74192 -3.50596 2.34874e-15)
(2.40743 -5.81341 -2.08622e-15)
(3.36036 -8.38416 6.3257e-15)
(4.3112 -10.8946 -2.43458e-15)
(5.2393 -13.4731 1.76813e-15)
(6.34164 -16.3852 -2.78304e-15)
(7.69097 -18.6805 1.80548e-15)
(6.80089 -21.3956 1.0685e-15)
(5.18289 -21.6164 0)
(28.6573 -0.676345 -5.20908e-14)
(1.86386 -3.36703 2.8997e-15)
(2.7894 -5.72395 -1.21497e-14)
(3.97642 -8.20404 -3.27668e-15)
(5.08546 -10.6384 7.21395e-15)
(6.19351 -13.1918 5.46367e-15)
(7.51571 -16.0062 -1.59609e-16)
(8.91662 -18.2557 -3.268e-17)
(8.30132 -21.239 -1.14922e-15)
(6.96301 -21.4893 -3.74881e-15)
(26.1224 1.6453 4.24181e-14)
(1.92578 -3.27818 2.99874e-15)
(3.16835 -5.65807 4.29078e-15)
(4.56277 -7.99105 0)
(5.80508 -10.3264 -2.43289e-15)
(7.08176 -12.825 -3.80233e-15)
(8.61157 -15.5129 -1.06965e-16)
(10.0798 -17.6746 -6.52495e-15)
(9.74835 -20.9033 -1.31973e-15)
(8.64432 -21.2679 5.07693e-15)
(23.7356 3.42868 -1.68763e-14)
(2.0156 -3.26261 1.13382e-14)
(3.5649 -5.60757 -3.86514e-15)
(5.13664 -7.74122 0)
(6.49612 -9.9581 4.77405e-17)
(7.92531 -12.3731 1.52673e-14)
(9.64466 -14.9128 -5.89498e-15)
(11.1794 -16.9591 -4.55153e-15)
(11.1432 -20.2919 3.4284e-15)
(10.2502 -20.9573 -3.16977e-15)
(21.5402 4.72004 0)
(2.32018 -3.29109 2.39598e-16)
(3.98777 -5.52263 -3.80345e-15)
(5.70445 -7.42573 0)
(7.18271 -9.52156 5.31232e-15)
(8.74505 -11.8373 -1.19307e-14)
(10.6416 -14.2085 6.19868e-15)
(12.2332 -16.1209 2.43458e-15)
(12.4631 -19.4745 0)
(11.6466 -20.4341 -4.80311e-16)
(19.6176 5.47001 2.1234e-14)
(3.2624 -3.16404 3.97948e-16)
(4.48226 -5.38123 1.62269e-16)
(6.28059 -7.06548 0)
(7.90448 -9.05001 -1.05421e-14)
(9.60614 -11.261 3.94559e-15)
(11.696 -13.4718 -3.29659e-15)
(13.4424 -15.2121 2.21923e-15)
(13.9085 -18.4719 4.91979e-17)
(12.9733 -19.543 -4.22387e-17)
(18.195 5.30441 -2.06281e-14)
(4.20575 -2.07432 2.85139e-15)
(4.71734 -4.9742 -4.44865e-15)
(6.44028 -6.60413 0)
(8.16872 -8.52455 0)
(9.99288 -10.6641 0)
(12.2137 -12.7458 -1.85737e-15)
(14.0086 -14.2823 7.53364e-15)
(14.9591 -17.4634 0)
(15.1967 -17.9959 0)
(17.4408 6.82089 0)
(4.18759 -2.10225 -2.85969e-15)
(4.88347 -4.58234 -4.77115e-15)
(6.55484 -6.27793 0)
(8.40437 -8.16031 3.10054e-15)
(10.345 -10.2602 -2.34622e-15)
(12.6488 -12.2752 2.01991e-15)
(14.4947 -13.6527 3.73957e-15)
(15.7426 -16.9917 2.90063e-17)
(16.4709 -17.8501 1.09922e-15)
(16.8839 8.6263 0)
(3.6611 -2.92169 3.66533e-16)
(5.09714 -4.40863 -2.00402e-16)
(6.84827 -6.07419 0)
(8.84292 -7.84961 4.12488e-17)
(10.9204 -9.85863 5.47065e-15)
(13.3551 -11.7783 -3.9746e-15)
(15.2966 -13.0299 -1.04432e-14)
(16.7403 -16.5642 -5.925e-15)
(16.9317 -18.7698 1.09034e-14)
(15.9797 9.1876 2.27436e-14)
(3.31206 -2.75731 -1.25254e-14)
(5.09822 -4.0636 4.59214e-15)
(7.06039 -5.51442 0)
(9.20335 -7.09774 -7.07295e-15)
(11.3949 -8.92536 -5.54897e-15)
(14.0162 -10.6714 8.93904e-15)
(15.9974 -11.7557 4.17258e-15)
(17.5848 -15.1579 0)
(18.0208 -17.0327 -7.90456e-15)
(15.299 9.47097 -4.49302e-15)
(3.5603 -2.73856 -2.56452e-16)
(5.32427 -3.80068 4.68993e-15)
(7.36078 -5.04616 0)
(9.60579 -6.42795 1.38621e-14)
(11.8932 -8.08002 -4.21417e-17)
(14.6569 -9.67237 -8.52943e-17)
(16.6781 -10.4836 9.30494e-15)
(18.5074 -13.7684 -6.90159e-15)
(19.308 -15.8394 -6.54675e-15)
(14.5153 9.62728 0)
(3.85827 -2.52438 -2.98817e-15)
(5.58688 -3.43473 1.03707e-14)
(7.66096 -4.51283 9.01867e-15)
(9.98018 -5.69576 -1.03947e-14)
(12.338 -7.16296 -1.80785e-14)
(15.2275 -8.60025 -5.67759e-16)
(17.2709 -9.12486 -4.95768e-15)
(19.3245 -12.2296 -4.01323e-15)
(20.5292 -14.4618 -9.79258e-15)
(13.8829 9.64337 -2.66429e-14)
(4.09566 -2.20483 -9.73884e-15)
(5.8234 -2.99961 5.34002e-15)
(7.93651 -3.92686 -3.99956e-15)
(10.3147 -4.91452 -1.12552e-14)
(12.7266 -6.19293 8.56766e-15)
(15.7292 -7.46554 -6.4098e-16)
(17.776 -7.71284 9.53397e-15)
(20.0315 -10.6182 4.19483e-15)
(21.6318 -12.8973 6.46179e-15)
(13.4294 9.5619 3.55398e-15)
(4.2492 -1.83701 2.85837e-15)
(6.00783 -2.51995 -2.71307e-15)
(8.17264 -3.29401 -2.36696e-16)
(10.6005 -4.08484 1.1232e-14)
(13.0558 -5.16746 -1.59186e-14)
(16.1467 -6.26374 5.10533e-15)
(18.1705 -6.28753 -5.50655e-15)
(20.5856 -8.93704 1.28693e-14)
(22.5612 -11.227 0)
(12.9837 9.45307 2.12346e-17)
(4.33069 -1.44942 3.23999e-15)
(6.14824 -2.00385 2.6967e-15)
(8.37793 -2.60467 4.64085e-15)
(10.8498 -3.19017 -7.329e-15)
(13.3458 -4.06478 2.97367e-15)
(16.4888 -4.94161 0)
(18.4893 -4.81645 -2.53994e-15)
(21.0822 -7.17717 -9.10313e-15)
(23.2198 -9.29336 -2.24469e-16)
(12.46 9.29246 2.19408e-14)
(4.36024 -1.0525 1.41964e-15)
(6.24936 -1.46745 0)
(8.54405 -1.88666 2.23485e-15)
(11.0513 -2.26222 2.0065e-15)
(13.5831 -2.92586 1.74265e-16)
(16.7513 -3.56622 -1.22335e-15)
(18.734 -3.24477 2.47492e-15)
(21.4615 -5.4201 0)
(23.5248 -7.18139 4.18131e-15)
(13.1046 8.48665 2.14191e-14)
(4.3276 -0.647313 1.55919e-15)
(6.29026 -0.913372 -2.64774e-15)
(8.64386 -1.15429 -1.78772e-16)
(11.1601 -1.32856 6.78039e-16)
(13.7107 -1.76496 -1.22147e-16)
(16.9183 -2.24714 1.06226e-15)
(18.7661 -1.56523 -2.34331e-15)
(21.2379 -3.62063 -2.22953e-16)
(22.7171 -6.76991 4.14382e-15)
(12.3937 6.89093 -1.59834e-14)
(4.28307 -0.159002 2.12084e-29)
(6.29943 -0.294378 0)
(8.76707 -0.413963 0)
(11.3714 -0.450927 -8.15008e-16)
(13.9209 -0.636229 0)
(17.0332 -0.998495 0)
(19.3578 -0.111476 1.03083e-15)
(20.5331 -1.63248 0)
(20.2726 -5.3242 0)
(18.7874 20.0878 -8.1296e-29)
(0.952226 -0.642589 9.92133e-16)
(1.41523 -1.7562 -7.06256e-15)
(1.89725 -1.9235 7.04991e-15)
(2.33041 -1.81899 -9.94075e-15)
(2.62048 -1.56846 6.84896e-15)
(2.78678 -1.27245 -1.46257e-14)
(2.84901 -0.974848 3.61701e-15)
(2.8361 -0.677577 -3.74211e-15)
(2.74087 -0.398536 0)
(2.65372 -0.0581302 -4.00199e-16)
(-0.614794 -0.497663 1.42099e-14)
(-0.131632 -1.45135 0)
(0.465117 -1.47053 7.24541e-15)
(0.9957 -1.32669 -2.90268e-15)
(1.34972 -1.08195 -1.03977e-14)
(1.55112 -0.819045 0)
(1.6195 -0.578607 -3.99393e-15)
(1.59043 -0.343401 -1.63725e-15)
(1.4639 -0.1559 1.09803e-15)
(1.34279 0.0602234 -4.42323e-16)
(-1.20729 -0.556478 -1.16735e-14)
(-1.12514 -1.35965 0)
(-0.667067 -1.28351 6.40235e-15)
(-0.150392 -1.06321 7.57059e-16)
(0.232033 -0.788436 8.6239e-15)
(0.469652 -0.526283 -4.04277e-15)
(0.565873 -0.303445 0)
(0.553895 -0.0862511 4.53936e-15)
(0.440993 0.0696009 -6.52565e-16)
(0.294347 0.20093 5.4307e-16)
(-1.04627 -0.521017 5.33767e-15)
(-1.56816 -1.18986 -1.88841e-15)
(-1.44193 -1.12364 4.62255e-15)
(-1.08625 -0.859119 -4.99927e-15)
(-0.739371 -0.563558 6.45665e-16)
(-0.486938 -0.301416 3.36101e-15)
(-0.356237 -0.0891132 -1.082e-14)
(-0.329342 0.10562 1.92303e-15)
(-0.382793 0.266029 3.01424e-15)
(-0.483324 0.367469 9.02876e-17)
(-0.733501 -0.415817 -7.98059e-15)
(-1.46284 -0.947603 5.2842e-15)
(-1.75214 -0.944613 0)
(-1.65499 -0.7255 1.84404e-15)
(-1.451 -0.434207 2.03852e-15)
(-1.24744 -0.157309 -3.10459e-16)
(-1.10644 0.0782876 1.67358e-15)
(-1.03832 0.274507 3.81154e-15)
(-1.02704 0.432821 -5.11695e-18)
(-1.0542 0.521206 3.29233e-16)
(-0.457991 -0.294566 -3.20029e-15)
(-1.13427 -0.6708 3.72194e-15)
(-1.61407 -0.711354 1.58091e-15)
(-1.78322 -0.563253 -2.537e-15)
(-1.77641 -0.326074 -1.63528e-15)
(-1.70695 -0.0767038 -2.48472e-16)
(-1.62324 0.145551 -2.90807e-15)
(-1.55744 0.330058 9.79275e-16)
(-1.5137 0.478776 2.67462e-16)
(-1.48775 0.563425 -3.15845e-16)
(-0.252192 -0.172622 0)
(-0.745001 -0.388528 -1.22437e-15)
(-1.24739 -0.42893 4.50097e-16)
(-1.56746 -0.345955 -5.85859e-16)
(-1.72386 -0.183941 9.09547e-16)
(-1.78689 0.00864173 0)
(-1.79206 0.189186 6.33463e-16)
(-1.7751 0.342229 9.86557e-16)
(-1.73888 0.459149 -8.47272e-16)
(-1.69886 0.520739 -2.96209e-17)
(-0.0972384 -0.0555544 0)
(-0.395719 -0.113363 -1.80567e-16)
(-0.805099 -0.122075 1.73154e-15)
(-1.14446 -0.0791148 -1.25267e-15)
(-1.38763 0.0131189 0)
(-1.54039 0.131184 -1.75566e-16)
(-1.619 0.247268 -5.7342e-16)
(-1.64307 0.345086 4.93887e-16)
(-1.62681 0.402082 4.83022e-16)
(-1.60622 0.416558 -1.9559e-16)
(0.0308935 0.00670022 -8.14758e-16)
(-0.125773 0.0721488 1.84832e-16)
(-0.404983 0.0580878 1.83703e-16)
(-0.676623 0.0481219 -1.84679e-16)
(-0.893807 0.0666114 0)
(-1.04732 0.100811 1.90681e-16)
(-1.13778 0.133623 1.79786e-16)
(-1.1686 0.157029 -1.73743e-16)
(-1.15264 0.171279 -4.79259e-17)
(-1.14379 0.168958 -3.41052e-21)
(0.506204 0.414869 -2.04958e-16)
(0.728621 0.71537 5.84153e-18)
(0.729127 0.748542 -7.02399e-18)
(0.655989 0.732088 0)
(0.559034 0.737369 8.97162e-18)
(0.46558 0.768261 0)
(0.388421 0.808338 6.05978e-17)
(0.330978 0.842778 -5.8094e-18)
(0.276946 0.854905 2.11735e-17)
(0.273904 0.819804 -3.76425e-18)
)
;

boundaryField
{
    right
    {
        type            cyclic;
    }
    left
    {
        type            cyclic;
    }
    outerWall
    {
        type            noSlip;
    }
    stirrerWall
    {
        type            noSlip;
    }
    top
    {
        type            empty;
    }
    bottom
    {
        type            empty;
    }
}


// ************************************************************************* //
