/*--------------------------------*- C++ -*----------------------------------*\
  =========                 |
  \\      /  F ield         | OpenFOAM: The Open Source CFD Toolbox
   \\    /   O peration     | Website:  https://openfoam.org
    \\  /    A nd           | Version:  10
     \\/     M anipulation  |
\*---------------------------------------------------------------------------*/
FoamFile
{
    format      ascii;
    class       volScalarField;
    location    "2800";
    object      k;
}
// * * * * * * * * * * * * * * * * * * * * * * * * * * * * * * * * * * * * * //

dimensions      [0 2 -2 0 0 0 0];

internalField   nonuniform List<scalar> 
420
(
2.22045e-16
2.22045e-16
2.22045e-16
2.22045e-16
2.22045e-16
2.22045e-16
2.22045e-16
2.22045e-16
2.22045e-16
2.22045e-16
2.22045e-16
2.22045e-16
2.22045e-16
2.22045e-16
2.22045e-16
2.22045e-16
2.22045e-16
2.22045e-16
2.22045e-16
2.22045e-16
2.22045e-16
2.22045e-16
2.22045e-16
2.22045e-16
2.22045e-16
2.22045e-16
2.22045e-16
2.22045e-16
2.22045e-16
2.22045e-16
2.22045e-16
2.22045e-16
2.22045e-16
2.22045e-16
2.22045e-16
2.22045e-16
2.22045e-16
2.22045e-16
2.22045e-16
2.22045e-16
2.22045e-16
2.22045e-16
2.22045e-16
2.22045e-16
2.22045e-16
2.22045e-16
2.22045e-16
2.22045e-16
2.22045e-16
2.22045e-16
2.22045e-16
2.22045e-16
2.22045e-16
2.22045e-16
2.22045e-16
2.22045e-16
2.22045e-16
2.22045e-16
2.22045e-16
2.22045e-16
2.22045e-16
2.22045e-16
2.22045e-16
2.22045e-16
2.22045e-16
2.22045e-16
2.22045e-16
2.22045e-16
2.22045e-16
2.22045e-16
2.22045e-16
2.22045e-16
2.22045e-16
2.22045e-16
2.22045e-16
2.22045e-16
2.22045e-16
2.22045e-16
2.22045e-16
2.22045e-16
2.22045e-16
2.22045e-16
2.22045e-16
2.22045e-16
2.22045e-16
2.22045e-16
2.22045e-16
2.22045e-16
2.22045e-16
2.22045e-16
2.22045e-16
2.22045e-16
2.22045e-16
2.22045e-16
2.22045e-16
2.22045e-16
2.22045e-16
2.22045e-16
2.22045e-16
2.22045e-16
2.22045e-16
2.22045e-16
2.22045e-16
2.33231e-16
2.94507e-16
3.3259e-16
2.89214e-16
2.26674e-16
2.22045e-16
2.53579e-16
2.22045e-16
2.22045e-16
2.22045e-16
2.34789e-16
2.96167e-16
3.32999e-16
2.88552e-16
2.23824e-16
2.22045e-16
2.49082e-16
2.22045e-16
2.22045e-16
2.22045e-16
2.39475e-16
3.00758e-16
3.33907e-16
2.87552e-16
2.22045e-16
2.22045e-16
2.46438e-16
2.22045e-16
2.22045e-16
2.22045e-16
2.46601e-16
3.07256e-16
3.35011e-16
2.86289e-16
2.22045e-16
2.22045e-16
2.43364e-16
2.22045e-16
2.22045e-16
2.22045e-16
2.5594e-16
3.15173e-16
3.36198e-16
2.85039e-16
2.22045e-16
2.22045e-16
2.4043e-16
2.22045e-16
2.22045e-16
2.22045e-16
2.67001e-16
3.23572e-16
3.37205e-16
2.83474e-16
2.22045e-16
2.22045e-16
2.37796e-16
2.22045e-16
2.22045e-16
2.22045e-16
2.78704e-16
3.30967e-16
3.37562e-16
2.81471e-16
2.22045e-16
2.22045e-16
2.35573e-16
2.22045e-16
2.22045e-16
2.22045e-16
2.89475e-16
3.36077e-16
3.37577e-16
2.78886e-16
2.22045e-16
2.22045e-16
2.3367e-16
2.22045e-16
2.22045e-16
2.22045e-16
2.97919e-16
3.38918e-16
3.36801e-16
2.75563e-16
2.22045e-16
2.22045e-16
2.32751e-16
2.22045e-16
2.22045e-16
2.30352e-16
3.03541e-16
3.39808e-16
3.3485e-16
2.71418e-16
2.22045e-16
2.22045e-16
2.33005e-16
2.22045e-16
2.22045e-16
2.48092e-16
3.08384e-16
3.41843e-16
3.35037e-16
2.68885e-16
2.22045e-16
2.22045e-16
2.33319e-16
2.22045e-16
2.22045e-16
2.61292e-16
3.11212e-16
3.44132e-16
3.36459e-16
2.67754e-16
2.22045e-16
2.22045e-16
2.33855e-16
2.22045e-16
2.22045e-16
2.7504e-16
3.12329e-16
3.44529e-16
3.36041e-16
2.66389e-16
2.22045e-16
2.22045e-16
2.3523e-16
2.22045e-16
2.56411e-16
2.78196e-16
3.0665e-16
3.40001e-16
3.32197e-16
2.64406e-16
2.22045e-16
2.22045e-16
2.37572e-16
2.41831e-16
2.54868e-16
2.69423e-16
2.97808e-16
3.34324e-16
3.28352e-16
2.62002e-16
2.22045e-16
2.22045e-16
2.40662e-16
2.39662e-16
2.4602e-16
2.58978e-16
2.88149e-16
3.28413e-16
3.24908e-16
2.60786e-16
2.22045e-16
2.22045e-16
2.44649e-16
2.33012e-16
2.36707e-16
2.48084e-16
2.77449e-16
3.21869e-16
3.21052e-16
2.60458e-16
2.25181e-16
2.22045e-16
2.49038e-16
2.26827e-16
2.28293e-16
2.37544e-16
2.66171e-16
3.14868e-16
3.17038e-16
2.61032e-16
2.31341e-16
2.29574e-16
2.53276e-16
2.22045e-16
2.22045e-16
2.27884e-16
2.54392e-16
3.06743e-16
3.1384e-16
2.62311e-16
2.38073e-16
2.37893e-16
2.56483e-16
2.22045e-16
2.22045e-16
2.22045e-16
2.41659e-16
2.96323e-16
3.11677e-16
2.64094e-16
2.44814e-16
2.45939e-16
2.55236e-16
2.22045e-16
2.22045e-16
2.22045e-16
2.32557e-16
2.88537e-16
3.11741e-16
2.66596e-16
2.50563e-16
2.52267e-16
2.46859e-16
2.22045e-16
2.22045e-16
2.22045e-16
2.29382e-16
2.86683e-16
3.13944e-16
2.7011e-16
2.51314e-16
2.60153e-16
2.43016e-16
2.22045e-16
2.22045e-16
2.22045e-16
2.28531e-16
2.27881e-16
2.25259e-16
2.22946e-16
2.22045e-16
2.22045e-16
2.22045e-16
2.22045e-16
2.22045e-16
2.22045e-16
2.22045e-16
2.22045e-16
2.22045e-16
2.22045e-16
2.22045e-16
2.22045e-16
2.22045e-16
2.22045e-16
2.22045e-16
2.22045e-16
2.22045e-16
2.22045e-16
2.22045e-16
2.22045e-16
2.22045e-16
2.22045e-16
2.22045e-16
2.22045e-16
2.22045e-16
2.22045e-16
2.22045e-16
2.22045e-16
2.22045e-16
2.22045e-16
2.22045e-16
2.22045e-16
2.22045e-16
2.22045e-16
2.22045e-16
2.22045e-16
2.22045e-16
2.22045e-16
2.22045e-16
2.22045e-16
2.22045e-16
2.22045e-16
2.22045e-16
2.22045e-16
2.22045e-16
2.22045e-16
2.22045e-16
2.22045e-16
2.22045e-16
2.22045e-16
2.22045e-16
2.22045e-16
2.22045e-16
2.22045e-16
2.22045e-16
2.22045e-16
2.22045e-16
2.22045e-16
2.22045e-16
2.22045e-16
2.22045e-16
2.22045e-16
2.22045e-16
2.22045e-16
2.22045e-16
2.22045e-16
2.22045e-16
2.22045e-16
2.22045e-16
2.22045e-16
2.22045e-16
2.22045e-16
2.22045e-16
2.22045e-16
2.22045e-16
2.22045e-16
2.22045e-16
2.22045e-16
2.22045e-16
2.22045e-16
2.22045e-16
2.22045e-16
2.22045e-16
2.22045e-16
2.22045e-16
2.22045e-16
2.22045e-16
2.22045e-16
2.22045e-16
2.22045e-16
2.22045e-16
2.22045e-16
2.22045e-16
)
;

boundaryField
{
    right
    {
        type            cyclic;
    }
    left
    {
        type            cyclic;
    }
    outerWall
    {
        type            kqRWallFunction;
        value           nonuniform List<scalar> 
22
(
2.53579e-16
2.49082e-16
2.46438e-16
2.43364e-16
2.4043e-16
2.37796e-16
2.35573e-16
2.3367e-16
2.32751e-16
2.33005e-16
2.33319e-16
2.33855e-16
2.3523e-16
2.37572e-16
2.40662e-16
2.44649e-16
2.49038e-16
2.53276e-16
2.56483e-16
2.55236e-16
2.46859e-16
2.43016e-16
)
;
    }
    stirrerWall
    {
        type            kqRWallFunction;
        value           uniform 2.22045e-16;
    }
    top
    {
        type            empty;
    }
    bottom
    {
        type            empty;
    }
}


// ************************************************************************* //
