/*--------------------------------*- C++ -*----------------------------------*\
  =========                 |
  \\      /  F ield         | OpenFOAM: The Open Source CFD Toolbox
   \\    /   O peration     | Website:  https://openfoam.org
    \\  /    A nd           | Version:  10
     \\/     M anipulation  |
\*---------------------------------------------------------------------------*/
FoamFile
{
    format      ascii;
    class       volScalarField;
    location    "2800";
    object      nut;
}
// * * * * * * * * * * * * * * * * * * * * * * * * * * * * * * * * * * * * * //

dimensions      [0 2 -1 0 0 0 0];

internalField   nonuniform List<scalar> 
420
(
1.04478e-20
5.59604e-20
1.61293e-19
3.19348e-19
4.9669e-19
6.60368e-19
7.58784e-19
7.50775e-19
6.59081e-19
5.50506e-19
1.04473e-20
5.67629e-20
1.56886e-19
3.07774e-19
4.84757e-19
6.52783e-19
7.56288e-19
7.49736e-19
6.51713e-19
5.28981e-19
1.04471e-20
5.7472e-20
1.53588e-19
2.95504e-19
4.66376e-19
6.33949e-19
7.4088e-19
7.36482e-19
6.31191e-19
4.9563e-19
1.04472e-20
5.87796e-20
1.53534e-19
2.86868e-19
4.46055e-19
6.04793e-19
7.10317e-19
7.08092e-19
5.91657e-19
4.47071e-19
1.04476e-20
6.06356e-20
1.56e-19
2.79795e-19
4.1986e-19
5.57244e-19
6.49303e-19
6.42876e-19
5.1835e-19
3.79548e-19
1.04483e-20
6.2238e-20
1.55376e-19
2.6019e-19
3.66991e-19
4.66057e-19
5.28325e-19
5.12519e-19
4.04428e-19
2.9613e-19
1.04493e-20
5.98525e-20
1.3424e-19
1.99419e-19
2.59053e-19
3.11983e-19
3.43507e-19
3.28626e-19
2.72787e-19
2.09079e-19
1.04506e-20
4.77637e-20
8.00685e-20
1.04594e-19
1.28084e-19
1.50483e-19
1.67791e-19
1.71616e-19
1.59679e-19
1.30515e-19
1.04522e-20
2.15376e-20
2.79741e-20
3.46443e-20
4.17949e-20
4.9351e-20
5.71325e-20
6.54972e-20
7.10412e-20
6.25079e-20
2.82342e-21
3.6643e-21
4.61494e-21
5.67535e-21
6.84552e-21
8.12545e-21
9.51514e-21
1.10146e-20
1.26238e-20
1.43428e-20
4.63026e-19
4.18424e-19
4.49804e-19
6.00652e-19
9.41802e-19
9.12391e-19
7.33262e-19
4.29906e-19
2.7191e-19
6.68145e-20
4.31232e-19
3.84932e-19
4.2339e-19
5.91335e-19
9.45548e-19
9.47228e-19
7.14664e-19
4.31027e-19
2.77992e-19
6.75043e-20
3.92468e-19
3.49188e-19
3.98055e-19
5.92947e-19
9.60272e-19
9.65764e-19
7.26036e-19
4.74168e-19
2.76971e-19
6.68611e-20
3.45403e-19
3.10714e-19
3.73886e-19
6.04415e-19
9.83371e-19
9.81312e-19
7.49612e-19
4.799e-19
2.74622e-19
6.62954e-20
2.89972e-19
2.70189e-19
3.52189e-19
6.27636e-19
1.01422e-18
9.86818e-19
7.6496e-19
4.79812e-19
2.72079e-19
6.58209e-20
2.28831e-19
2.29296e-19
3.35165e-19
6.65068e-19
9.95291e-19
9.81992e-19
7.74846e-19
4.84002e-19
2.68653e-19
6.54217e-20
1.67354e-19
1.9044e-19
3.25326e-19
7.1731e-19
9.41852e-19
9.25992e-19
7.75654e-19
4.78342e-19
2.64343e-19
6.50339e-20
1.11135e-19
1.5507e-19
3.23312e-19
7.45747e-19
9.11745e-19
8.75478e-19
7.66693e-19
4.68809e-19
2.59016e-19
6.4778e-20
6.44322e-20
1.22218e-19
3.25838e-19
7.77222e-19
8.87811e-19
8.36703e-19
7.4366e-19
4.58713e-19
2.525e-19
6.47243e-20
2.98981e-20
9.39922e-20
3.47682e-19
8.40445e-19
9.23744e-19
8.5833e-19
7.6606e-19
4.48269e-19
2.45639e-19
6.47598e-20
1.03958e-20
7.51277e-20
4.12368e-19
8.63035e-19
9.62185e-19
9.19366e-19
8.02979e-19
4.38057e-19
2.40308e-19
6.46943e-20
1.03958e-20
9.21154e-20
5.0299e-19
8.23431e-19
9.44231e-19
9.41246e-19
8.00004e-19
4.38158e-19
2.38677e-19
6.54023e-20
5.73402e-20
2.42698e-19
6.21471e-19
7.59782e-19
8.64122e-19
8.62982e-19
7.92397e-19
4.37366e-19
2.35967e-19
6.56517e-20
2.72535e-19
4.88048e-19
6.0243e-19
7.16036e-19
8.11284e-19
8.05846e-19
7.80576e-19
4.28124e-19
2.29827e-19
6.63144e-20
5.00499e-19
5.41481e-19
6.14552e-19
7.25592e-19
8.23112e-19
8.24734e-19
7.72785e-19
4.20095e-19
2.22999e-19
6.71847e-20
5.65734e-19
5.6192e-19
6.1394e-19
7.20294e-19
8.13695e-19
8.43781e-19
7.7125e-19
4.17884e-19
2.16136e-19
6.76395e-20
5.80725e-19
5.66327e-19
6.14479e-19
7.23267e-19
8.27002e-19
8.82133e-19
7.75623e-19
4.25204e-19
2.11054e-19
6.78151e-20
5.74407e-19
5.67337e-19
6.25784e-19
7.58257e-19
9.0495e-19
8.80353e-19
7.86219e-19
4.42935e-19
2.13538e-19
6.80247e-20
5.6772e-19
5.38494e-19
5.75125e-19
7.39949e-19
1.01974e-18
8.81375e-19
8.02583e-19
4.67809e-19
2.18127e-19
6.77723e-20
5.42357e-19
5.09484e-19
5.32768e-19
6.82916e-19
9.8074e-19
9.23002e-19
8.23437e-19
4.9966e-19
2.25293e-19
6.67224e-20
5.1553e-19
4.78446e-19
5.02916e-19
6.34715e-19
9.45412e-19
1.05812e-18
8.46037e-19
4.46707e-19
2.38597e-19
6.89325e-20
4.86378e-19
4.45862e-19
4.72727e-19
6.02824e-19
9.23558e-19
1.01882e-18
8.60674e-19
4.10859e-19
2.63987e-19
6.78574e-20
1.43428e-20
1.16316e-19
4.08776e-19
6.26918e-19
6.64524e-19
6.52832e-19
6.26476e-19
6.02171e-19
5.81618e-19
5.62435e-19
1.26238e-20
8.73866e-20
3.10631e-19
5.74802e-19
6.89094e-19
7.09788e-19
7.00926e-19
6.84283e-19
6.68457e-19
6.58935e-19
1.10146e-20
6.85126e-20
2.27699e-19
4.67812e-19
6.50749e-19
7.34327e-19
7.60445e-19
7.60915e-19
7.5195e-19
7.48529e-19
9.51514e-21
5.34009e-20
1.55757e-19
3.22772e-19
5.0476e-19
6.40538e-19
7.18712e-19
7.5541e-19
7.65964e-19
7.63197e-19
8.12545e-21
4.44144e-20
1.17818e-19
2.26154e-19
3.53739e-19
4.73787e-19
5.66762e-19
6.27156e-19
6.54165e-19
6.62055e-19
6.84552e-21
3.75558e-20
9.59171e-20
1.73788e-19
2.61171e-19
3.45973e-19
4.17013e-19
4.66509e-19
4.90497e-19
4.98523e-19
5.67535e-21
3.16451e-20
8.0461e-20
1.4123e-19
2.0346e-19
2.58405e-19
2.9932e-19
3.21415e-19
3.2655e-19
3.24644e-19
4.61494e-21
2.61768e-20
6.62545e-20
1.10096e-19
1.4509e-19
1.67217e-19
1.77404e-19
1.76681e-19
1.71055e-19
1.65648e-19
3.6643e-21
2.05982e-20
4.40875e-20
5.78287e-20
6.28254e-20
6.41055e-20
6.37611e-20
6.17915e-20
5.97623e-20
5.76557e-20
2.82342e-21
1.04522e-20
1.04506e-20
1.04493e-20
1.04483e-20
1.04476e-20
1.04472e-20
1.04471e-20
1.04473e-20
1.04478e-20
)
;

boundaryField
{
    right
    {
        type            cyclic;
    }
    left
    {
        type            cyclic;
    }
    outerWall
    {
        type            nutkWallFunction;
        Cmu             0.09;
        kappa           0.41;
        E               9.8;
        value           uniform 0;
    }
    stirrerWall
    {
        type            nutkWallFunction;
        Cmu             0.09;
        kappa           0.41;
        E               9.8;
        value           uniform 0;
    }
    top
    {
        type            empty;
    }
    bottom
    {
        type            empty;
    }
}


// ************************************************************************* //
