/*--------------------------------*- C++ -*----------------------------------*\
  =========                 |
  \\      /  F ield         | OpenFOAM: The Open Source CFD Toolbox
   \\    /   O peration     | Website:  https://openfoam.org
    \\  /    A nd           | Version:  10
     \\/     M anipulation  |
\*---------------------------------------------------------------------------*/
FoamFile
{
    format      ascii;
    class       volScalarField;
    location    "2800";
    object      omega;
}
// * * * * * * * * * * * * * * * * * * * * * * * * * * * * * * * * * * * * * //

dimensions      [0 0 -1 0 0 0 0];

internalField   nonuniform List<scalar> 
420
(
21252.7
3967.89
1376.65
695.305
447.049
336.244
292.632
295.754
336.9
403.346
21253.7
3911.79
1415.32
721.455
458.053
340.151
293.598
296.164
340.709
419.759
21254.2
3863.53
1445.71
751.409
476.106
350.256
299.704
301.494
351.787
448.005
21254
3777.58
1446.22
774.031
497.796
367.142
312.599
313.581
375.293
496.666
21253.2
3661.95
1423.36
793.599
528.854
398.469
341.974
345.393
428.368
585.024
21251.7
3567.67
1429.08
853.395
605.041
476.432
420.28
433.242
549.034
749.82
21249.7
3709.86
1654.09
1113.46
857.14
711.72
646.404
675.676
813.986
1062.01
21247.1
4648.82
2773.18
2122.93
1733.59
1475.55
1323.34
1293.84
1390.57
1701.3
21243.8
10309.6
7937.52
6409.28
5312.72
4499.3
3886.48
3390.14
3125.58
3552.26
78643.9
60596.7
48114.3
39124.4
32436.5
27327.1
23335.9
20159.1
17589.3
15481.3
479.551
530.669
493.648
388.296
312.706
297.179
316.292
433.331
816.612
3581.27
514.908
576.841
524.444
397.049
313.222
297.383
317.357
433.096
798.743
3581.17
565.765
635.888
557.823
403.872
313.201
297.963
318.971
435.961
801.688
3581.13
642.856
714.628
593.883
407.998
312.451
298.673
320.955
441.567
808.546
3581.18
765.746
821.813
630.471
407.784
310.753
299.4
323.275
448.234
816.105
3581.3
970.345
968.374
662.494
401.464
308.128
300.123
325.751
455.74
826.512
3581.49
1326.79
1165.95
682.53
388.541
304.982
300.819
328.292
464.197
839.987
3581.76
1997.97
1431.9
686.782
371.667
302.156
301.463
330.745
473.635
857.263
3582.1
3446.17
1816.79
681.456
355.71
300.276
301.88
332.897
484.06
879.383
3582.51
7426.72
2362.37
662.535
343.247
299.283
301.722
334.432
495.338
903.948
3582.99
21359.1
2955.56
601.63
332.554
299.445
301.68
334.859
506.886
923.998
3575.63
21359.1
2410.51
519.478
327.751
300.356
302.055
334.691
506.768
930.315
3575.63
3872.41
914.9
398.565
322.725
301.331
302.982
336.181
507.685
940.998
3582.99
814.738
438.273
354.399
321.665
301.699
303.437
338.732
518.645
966.138
3582.51
412.692
370.507
350.988
322.87
301.035
302.33
339.036
528.559
995.719
3582.1
361.98
367.86
356.895
325.835
300.743
301.142
338.135
531.355
1027.34
3581.76
363.661
377.957
366.555
330.07
300.427
299.432
335.805
529.582
1052.07
3581.49
375.539
393.112
379.594
335.953
300.356
297.369
332.009
522.291
1075.09
3581.3
391.116
412.343
396.235
343.797
300.804
295.22
326.834
508.91
1090.62
3581.18
409.407
435.823
416.776
353.864
302.142
293.318
320.721
489.96
1091.64
3581.13
430.711
464.096
441.515
366.396
305.197
292.645
315.112
466.576
1057.3
3581.17
456.527
498.012
469.71
380.512
310.412
294.826
313.835
444.607
985.478
3581.27
15481.3
1908.98
543.194
360.804
339.348
344.665
355.874
368.74
381.771
394.792
17589.3
2540.94
714.818
386.297
322.227
312.832
316.788
324.492
332.175
336.975
20159.1
3240.93
975.168
474.644
341.214
302.379
291.993
291.813
295.292
296.641
23335.9
4158.07
1425.59
687.929
439.901
346.653
308.948
293.939
289.889
290.94
27327.1
4999.38
1884.64
981.829
627.708
468.659
391.777
354.05
339.432
335.387
32436.5
5912.4
2314.96
1277.68
850.189
641.797
532.465
475.971
452.693
445.405
39124.4
7016.72
2759.66
1572.22
1091.34
859.289
741.829
690.835
679.971
683.963
48114.3
8482.49
3351.39
2016.83
1530.39
1327.88
1251.63
1256.75
1298.09
1340.46
60596.7
10779.8
5036.45
3839.69
3534.31
3463.74
3482.45
3593.45
3715.46
3851.22
78643.9
21243.8
21247.1
21249.7
21251.7
21253.2
21254
21254.2
21253.7
21252.7
)
;

boundaryField
{
    right
    {
        type            cyclic;
    }
    left
    {
        type            cyclic;
    }
    outerWall
    {
        beta1           0.075;
        blended         0;
        type            omegaWallFunction;
        value           nonuniform List<scalar> 
22
(
3581.27
3581.17
3581.13
3581.18
3581.3
3581.49
3581.76
3582.1
3582.51
3582.99
3575.63
3575.63
3582.99
3582.51
3582.1
3581.76
3581.49
3581.3
3581.18
3581.13
3581.17
3581.27
)
;
    }
    stirrerWall
    {
        beta1           0.075;
        blended         0;
        type            omegaWallFunction;
        value           nonuniform List<scalar> 
42
(
21252.7
21253.7
21254.2
21254
21253.2
21251.7
21249.7
21247.1
21243.8
78643.9
78643.9
60596.7
48114.3
39124.4
32436.5
27327.1
23335.9
20159.1
17589.3
15481.3
21359.1
21359.1
15481.3
17589.3
20159.1
23335.9
27327.1
32436.5
39124.4
48114.3
60596.7
78643.9
78643.9
21243.8
21247.1
21249.7
21251.7
21253.2
21254
21254.2
21253.7
21252.7
)
;
    }
    top
    {
        type            empty;
    }
    bottom
    {
        type            empty;
    }
}


// ************************************************************************* //
