/*--------------------------------*- C++ -*----------------------------------*\
  =========                 |
  \\      /  F ield         | OpenFOAM: The Open Source CFD Toolbox
   \\    /   O peration     | Website:  https://openfoam.org
    \\  /    A nd           | Version:  10
     \\/     M anipulation  |
\*---------------------------------------------------------------------------*/
FoamFile
{
    format      ascii;
    class       volScalarField;
    location    "2800";
    object      p;
}
// * * * * * * * * * * * * * * * * * * * * * * * * * * * * * * * * * * * * * //

dimensions      [0 2 -2 0 0 0 0];

internalField   nonuniform List<scalar> 
420
(
-0.105612
15.0918
30.7115
49.0031
69.2721
90.8733
113.215
135.408
156.723
176.591
0.66042
14.8876
29.9875
47.8443
67.8342
89.4336
112.082
134.794
156.572
176.674
0.798502
14.7377
29.4967
47.0112
66.7749
88.4042
111.344
134.416
156.438
176.673
0.668257
14.5933
29.1744
46.4506
66.0516
87.6785
110.752
133.995
156.186
176.548
0.511448
14.5095
28.9826
46.0596
65.5016
87.0454
110.088
133.359
155.7
176.289
0.40545
14.5503
28.9408
45.7746
64.9584
86.2592
109.079
132.31
154.879
175.863
0.357114
14.7399
29.0741
45.5987
64.3502
85.187
107.582
130.648
153.466
175.095
0.335711
15.0631
29.3682
45.5102
63.6535
83.7448
105.409
128.057
151.098
173.706
0.2543
15.4864
29.7775
45.5207
62.9938
82.1494
102.78
124.617
147.462
170.735
-0.0186788
15.934
30.0449
45.4078
62.2661
80.5082
100.054
120.897
142.953
165.884
194.546
211.295
227.53
243.285
258.294
272.71
286.366
298.967
283.132
349.971
194.644
211.287
227.356
242.933
257.784
272.011
284.911
295.856
279.111
342.054
194.651
211.221
227.128
242.476
257.073
270.926
282.736
291.707
275.535
336.837
194.592
211.14
226.863
241.943
256.215
269.586
280.358
287.991
272.668
332.297
194.532
211.1
226.613
241.385
255.259
268.052
277.877
284.829
270.429
328.229
194.469
211.105
226.387
240.824
254.24
266.423
275.367
281.752
268.332
325.201
194.385
211.045
226.032
240.2
253.181
264.756
272.804
278.423
265.682
323.058
194.15
210.7
225.343
239.438
252.131
263.133
270.283
275.039
263.429
321.166
193.118
210.262
224.683
238.786
251.295
261.772
268.183
272.557
262.847
319.661
191.14
210.709
224.986
238.768
251.043
261.107
267.133
271.681
261.979
319.652
191.831
211.51
225.869
239.375
251.39
261.295
267.133
272.62
252.361
322.481
193.401
211.725
226.309
239.572
251.346
261.101
267.049
272.416
248.967
320.796
197.626
212.361
226.647
239.88
251.564
261.247
267.506
271.14
255.405
316.882
197.123
211.999
226.522
240.081
252.024
261.984
268.573
272.151
259.719
316.327
195.69
211.327
226.324
240.323
252.736
263.27
270.791
275.472
264.016
317.817
194.715
210.731
226.159
240.635
253.606
264.858
273.5
279.214
268.423
320.678
194.198
210.394
226.142
241.053
254.597
266.687
276.716
283.639
273.599
325.058
193.969
210.291
226.268
241.528
255.573
268.525
280.091
288.45
280.075
333.625
193.926
210.382
226.541
242.068
256.502
270.152
282.854
292.529
287.969
350.856
194.024
210.67
227.006
242.737
257.461
271.508
284.498
294.628
294.08
372.159
194.214
211.064
227.532
243.37
258.24
272.473
285.614
295.577
291.98
379.52
194.4
211.232
227.602
243.396
258.281
272.585
286.542
299.061
287.095
362.304
183.238
180.378
178.531
177.588
177.138
176.899
176.752
176.623
176.498
176.521
158.532
158.516
158.606
158.559
158.55
158.483
158.287
157.912
157.365
156.95
131.504
134.276
136.597
137.865
138.538
138.785
138.611
138.053
137.139
136.173
106.677
110.212
113.685
115.951
117.255
117.815
117.711
117.04
115.903
114.53
84.6922
87.6889
91.1301
93.7233
95.3168
96.0488
96.0102
95.2993
94.0666
92.4991
65.1268
67.1871
69.8527
72.1117
73.602
74.2991
74.2726
73.5971
72.4138
70.8877
47.6531
48.8319
50.4233
51.9095
52.9473
53.404
53.2992
52.6904
51.6663
50.3517
32.122
32.6106
33.2147
33.7944
34.1806
34.2696
34.0357
33.4908
32.6658
31.6467
18.5455
18.4089
18.2593
18.1403
18.0004
17.774
17.4211
16.924
16.2795
15.5711
6.07548
4.97681
3.96758
3.27144
2.74445
2.27097
1.80158
1.33092
0.876876
0.448289
)
;

boundaryField
{
    right
    {
        type            cyclic;
    }
    left
    {
        type            cyclic;
    }
    outerWall
    {
        type            zeroGradient;
    }
    stirrerWall
    {
        type            zeroGradient;
    }
    top
    {
        type            empty;
    }
    bottom
    {
        type            empty;
    }
}


// ************************************************************************* //
