/*--------------------------------*- C++ -*----------------------------------*\
  =========                 |
  \\      /  F ield         | OpenFOAM: The Open Source CFD Toolbox
   \\    /   O peration     | Website:  https://openfoam.org
    \\  /    A nd           | Version:  10
     \\/     M anipulation  |
\*---------------------------------------------------------------------------*/
FoamFile
{
    format      ascii;
    class       surfaceScalarField;
    location    "2800";
    object      phi;
}
// * * * * * * * * * * * * * * * * * * * * * * * * * * * * * * * * * * * * * //

dimensions      [0 3 -1 0 0 0 0];

internalField   nonuniform List<scalar> 
788
(
1.74566e-06
-3.35624e-06
2.15524e-06
1.4431e-05
3.328e-06
1.93231e-05
4.21948e-06
2.18317e-05
4.15902e-06
2.18824e-05
3.03271e-06
1.95574e-05
1.58583e-06
1.36732e-05
5.80194e-07
1.3329e-06
3.94464e-07
-1.54796e-05
-3.58653e-05
6.67178e-07
1.1135e-06
-4.50985e-06
2.30915e-06
1.31533e-05
3.83584e-06
1.77031e-05
5.1498e-06
2.0415e-05
5.59593e-06
2.13891e-05
5.10174e-06
2.00721e-05
4.39155e-06
1.44041e-05
3.62782e-06
2.07308e-06
3.34588e-06
-1.52545e-05
-3.60296e-05
3.42852e-06
1.1221e-06
-5.66519e-06
2.88232e-06
1.12902e-05
4.82536e-06
1.56601e-05
6.56992e-06
1.86196e-05
7.62798e-06
2.03344e-05
7.91524e-06
1.98113e-05
7.86112e-06
1.44569e-05
7.30997e-06
2.58432e-06
6.96963e-06
-1.49399e-05
-3.5892e-05
6.86227e-06
8.94079e-07
-6.58724e-06
2.89654e-06
9.20175e-06
5.23309e-06
1.32358e-05
7.53407e-06
1.62859e-05
9.43551e-06
1.84452e-05
1.08152e-05
1.84458e-05
1.17527e-05
1.34957e-05
1.17291e-05
2.55155e-06
1.14184e-05
-1.46492e-05
-3.53109e-05
1.08987e-05
4.86077e-07
-7.10295e-06
2.44864e-06
7.15791e-06
5.08942e-06
1.05078e-05
8.02276e-06
1.33226e-05
1.09465e-05
1.5537e-05
1.36879e-05
1.57247e-05
1.5921e-05
1.1258e-05
1.68123e-05
1.64053e-06
1.64736e-05
-1.42948e-05
-3.3817e-05
1.50584e-05
-1.02603e-07
-7.03526e-06
1.6199e-06
5.34408e-06
4.39368e-06
7.63815e-06
7.86659e-06
9.82022e-06
1.17905e-05
1.16353e-05
1.58144e-05
1.17306e-05
1.9202e-05
7.87883e-06
2.09903e-05
-1.51787e-07
2.04017e-05
-1.36834e-05
-3.06845e-05
1.73402e-05
-8.30919e-07
-6.24532e-06
5.16176e-07
3.89056e-06
3.14673e-06
4.90051e-06
6.74173e-06
6.19685e-06
1.11352e-05
7.27269e-06
1.58241e-05
7.08177e-06
1.96145e-05
4.10465e-06
2.12924e-05
-1.83256e-06
1.94509e-05
-1.18275e-05
-2.51582e-05
1.39804e-05
-1.678e-06
-4.61419e-06
-6.71769e-07
2.76132e-06
1.60287e-06
2.50837e-06
4.71828e-06
3.05549e-06
8.50359e-06
3.53149e-06
1.24102e-05
3.2325e-06
1.5043e-05
1.49797e-06
1.50368e-05
-1.83224e-06
1.08566e-05
-7.64535e-06
-1.74359e-05
3.17047e-06
-2.67835e-06
-1.98918e-06
-1.55637e-06
1.51018e-06
3.28658e-07
5.4019e-07
2.79743e-06
6.04493e-07
5.51718e-06
8.87646e-07
7.67938e-06
1.1368e-06
8.09761e-06
1.08406e-06
5.6882e-06
5.25534e-07
-1.07672e-06
-9.1491e-07
-8.93839e-06
-9.52607e-06
-2.03399e-06
-5.60862e-07
-5.77593e-09
6.42404e-07
1.56352e-06
2.69485e-06
3.74345e-06
4.24752e-06
3.36303e-06
-5.50373e-06
1.47069e-06
-5.94777e-05
2.91671e-06
-9.46636e-05
5.26571e-06
-0.000140141
7.89768e-06
-0.000193453
1.02857e-05
-0.000259254
1.1383e-05
-0.000349516
1.28544e-05
-0.000478711
1.87801e-05
-0.000595782
-3.64222e-06
-0.000586059
-0.00120032
3.66169e-06
-5.97838e-05
4.28553e-06
-9.53376e-05
5.79274e-06
-0.000141687
7.58969e-06
-0.000195286
9.45179e-06
-0.00026112
1.03409e-05
-0.000350373
1.15326e-05
-0.000479884
1.52542e-05
-0.000599417
6.46399e-06
-0.000577359
-0.00119389
6.44742e-06
-5.92823e-05
6.16433e-06
-9.49642e-05
6.64812e-06
-0.000142166
7.44282e-06
-0.000196177
8.6381e-06
-0.000262366
9.41563e-06
-0.000351067
1.04218e-05
-0.000480882
1.43919e-05
-0.000603711
1.68694e-05
-0.000579729
-0.00117696
9.50752e-06
-5.77598e-05
8.13003e-06
-9.34615e-05
7.56958e-06
-0.000141601
7.53672e-06
-0.000196226
8.27524e-06
-0.000263102
8.93973e-06
-0.00035179
9.38028e-06
-0.000481213
1.1703e-05
-0.000606024
1.5917e-05
-0.000583936
-0.00116103
1.22961e-05
-5.48694e-05
9.82809e-06
-9.08936e-05
8.31582e-06
-0.000140115
7.51536e-06
-0.000195482
7.86263e-06
-0.000263324
8.50547e-06
-0.000352482
8.70735e-06
-0.000481495
1.05557e-05
-0.000607765
1.38621e-05
-0.000587307
-0.00114719
1.30074e-05
-5.04323e-05
1.00598e-05
-8.78933e-05
8.13176e-06
-0.000138263
6.89734e-06
-0.000194309
7.06641e-06
-0.000263354
7.90346e-06
-0.000353373
8.1682e-06
-0.000481945
9.9913e-06
-0.000609494
1.25719e-05
-0.000589959
-0.00113463
9.17229e-06
-4.55513e-05
7.5167e-06
-8.6242e-05
6.24641e-06
-0.000137118
5.20099e-06
-0.000193313
5.56113e-06
-0.000263546
6.80494e-06
-0.000354667
7.47393e-06
-0.000482798
9.45312e-06
-0.000611387
1.03858e-05
-0.000590933
-0.00112423
1.22985e-06
-4.35733e-05
2.77525e-06
-8.7828e-05
2.93161e-06
-0.000137416
2.56218e-06
-0.000192969
3.33213e-06
-0.000264099
5.04587e-06
-0.000356412
6.39157e-06
-0.0004843
9.63324e-06
-0.000614533
9.69071e-06
-0.000590985
-0.00111453
-5.50799e-06
-4.75057e-05
-1.03274e-06
-9.23256e-05
-3.96836e-07
-0.000138187
-5.71783e-07
-0.000192806
1.23023e-07
-0.00026456
1.90743e-06
-0.000358218
3.64414e-06
-0.000486181
7.36703e-06
-0.000618148
1.14033e-05
-0.000594894
-0.00110313
-1.28053e-06
-5.1712e-05
-2.08951e-07
-9.33527e-05
-2.06184e-06
-0.000136465
-3.43712e-06
-0.00019151
-3.94028e-06
-0.000263954
-3.37593e-06
-0.000358748
-3.36231e-06
-0.000486102
1.95185e-06
-0.000623454
9.53248e-06
-0.00060245
-0.00109365
2.11939e-06
-5.37742e-05
2.85387e-07
-9.15645e-05
-1.68488e-06
-0.000134668
-2.96235e-06
-0.000190276
-3.56718e-06
-0.000263177
-3.40369e-06
-0.000358908
-3.80221e-06
-0.000485682
-9.99048e-06
-0.000617248
4.83804e-06
-0.000617208
-0.00108883
4.29274e-06
-5.80355e-05
3.30099e-06
-9.06168e-05
1.82442e-06
-0.000133359
1.17027e-06
-0.000189629
1.14503e-06
-0.000262949
1.53427e-06
-0.00035935
8.27479e-07
-0.000485034
-6.22341e-06
-0.000610179
2.31924e-06
-0.000625748
-0.0010865
4.02068e-06
-5.0535e-05
-1.14555e-05
1.0021e-06
-8.74105e-05
-4.3186e-07
-0.000132059
-5.16082e-07
-0.000189587
2.16111e-07
-0.000263559
1.54806e-06
-0.000360705
1.57913e-06
-0.000485076
6.80335e-06
-0.000615414
-2.39351e-06
-0.000616564
-0.00108896
-4.2071e-06
-5.20169e-05
5.90469e-06
-4.47675e-06
-8.70258e-05
-4.87765e-06
-0.000131821
-5.18728e-06
-0.000189291
-5.37928e-06
-0.000263208
-4.78075e-06
-0.00036132
-4.1193e-06
-0.000485807
-3.42443e-06
-0.00061615
4.38464e-06
-0.000624235
-0.00108464
-8.14494e-06
-5.43938e-05
1.06927e-05
-7.22313e-06
-8.78182e-05
-7.03923e-06
-0.00013213
-7.12218e-06
-0.00018922
-7.43558e-06
-0.00026279
-7.31151e-06
-0.000361488
-7.30901e-06
-0.000485774
-1.1984e-05
-0.000611557
-4.06544e-08
-0.000636078
-0.00108473
-9.88164e-06
-5.57139e-05
1.13671e-05
-8.94637e-06
-8.85954e-05
-8.69736e-06
-0.000132481
-8.89677e-06
-0.000189048
-9.50165e-06
-0.000262127
-9.91119e-06
-0.00036116
-1.02998e-05
-0.000485385
-1.53357e-05
-0.000606588
-3.04234e-06
-0.000648219
-0.00108779
-1.00562e-05
-5.62427e-05
1.07568e-05
-9.45353e-06
-8.90339e-05
-9.36941e-06
-0.000132667
-9.88385e-06
-0.000188595
-1.10467e-05
-0.000260952
-1.21476e-05
-0.000360108
-1.30058e-05
-0.000484488
-1.82622e-05
-0.000601378
-3.56217e-06
-0.000662702
-0.00109141
-9.35878e-06
-5.63743e-05
9.65118e-06
-8.98605e-06
-8.92773e-05
-9.05068e-06
-0.000132724
-9.85495e-06
-0.000187866
-1.16108e-05
-0.000259182
-1.36304e-05
-0.000358077
-1.52373e-05
-0.00048278
-1.98796e-05
-0.000596776
-5.70607e-06
-0.000676657
-0.00109726
-8.07642e-06
-5.64455e-05
8.28256e-06
-7.68543e-06
-8.96188e-05
-7.72953e-06
-0.000132827
-8.69034e-06
-0.00018697
-1.09744e-05
-0.000256845
-1.41752e-05
-0.000354808
-1.70211e-05
-0.00047982
-1.99226e-05
-0.000593974
-8.95254e-06
-0.000687453
-0.00110634
-6.24028e-06
-5.6766e-05
6.64207e-06
-5.67823e-06
-9.0226e-05
-5.46309e-06
-0.000133169
-6.26973e-06
-0.000186154
-8.80358e-06
-0.000254186
-1.313e-05
-0.000350411
-1.71531e-05
-0.000475775
-1.85504e-05
-0.000592844
-1.68105e-05
-0.000689079
-0.00112301
-3.89815e-06
-5.76065e-05
4.7474e-06
-2.76352e-06
-9.14418e-05
-1.32939e-06
-0.000134579
-5.56464e-07
-0.000186695
-1.60646e-06
-0.000252896
-6.05038e-06
-0.000346029
-9.63499e-06
-0.000472348
-1.02688e-05
-0.000592392
-2.60368e-05
-0.00067344
-0.00114876
-4.52417e-07
1.61557e-06
1.39951e-06
4.71416e-06
8.96051e-06
1.2822e-05
1.47375e-05
1.95334e-05
1.72354e-05
-4.75669e-05
-1.91621e-05
7.89226e-06
-2.89069e-05
1.58924e-05
-3.32206e-05
1.51982e-05
-3.50193e-05
1.33688e-05
-3.54736e-05
1.14251e-05
-3.52751e-05
9.62692e-06
-3.48919e-05
7.99666e-06
-3.46859e-05
6.46065e-06
-3.48869e-05
5.00543e-06
2.39043e-06
-6.43847e-06
1.44007e-05
-1.25299e-05
2.20165e-05
-1.66203e-05
1.92387e-05
-1.85533e-05
1.53209e-05
-1.89638e-05
1.18878e-05
-1.84331e-05
9.14503e-06
-1.74655e-05
7.049e-06
-1.64285e-05
5.39164e-06
-1.56206e-05
4.1611e-06
2.31717e-06
4.12292e-07
1.39883e-05
-1.61701e-06
2.38985e-05
-4.19389e-06
2.16131e-05
-5.65094e-06
1.66572e-05
-5.97897e-06
1.21227e-05
-5.4676e-06
8.5575e-06
-4.34399e-06
5.85148e-06
-2.79013e-06
3.7583e-06
-9.96932e-07
2.31275e-06
9.20832e-07
2.84495e-06
1.10716e-05
4.66338e-06
2.18298e-05
4.52985e-06
2.14773e-05
3.98689e-06
1.69978e-05
3.81958e-06
1.21089e-05
4.31824e-06
7.91565e-06
5.53632e-06
4.52691e-06
7.42912e-06
1.8051e-06
9.83956e-06
-1.30376e-07
-1.46835e-06
3.19883e-06
7.7809e-06
7.59716e-06
1.72124e-05
1.04589e-05
1.84053e-05
1.16698e-05
1.56197e-05
1.22787e-05
1.13582e-05
1.29507e-05
7.13922e-06
1.39533e-05
3.45306e-06
1.52831e-05
4.53396e-07
1.68175e-05
-1.67021e-06
-3.07089e-06
2.94811e-06
4.76136e-06
8.14054e-06
1.1882e-05
1.29954e-05
1.34687e-05
1.64016e-05
1.21391e-05
1.84577e-05
9.24974e-06
1.96728e-05
5.89628e-06
2.04557e-05
2.65658e-06
2.10676e-05
-1.57618e-07
2.15568e-05
-2.15915e-06
-3.42697e-06
2.4307e-06
2.30173e-06
7.45904e-06
6.81127e-06
1.28309e-05
8.13887e-06
1.72702e-05
7.71786e-06
2.04167e-05
6.13091e-06
2.23858e-05
3.95961e-06
2.34143e-05
1.6535e-06
2.37288e-05
-4.58839e-07
2.35492e-05
-1.96198e-06
-2.86992e-06
1.90681e-06
4.03238e-07
6.27006e-06
2.50285e-06
1.1206e-05
3.3343e-06
1.557e-05
3.44484e-06
1.8893e-05
2.89014e-06
2.1039e-05
1.87951e-06
2.20929e-05
6.40554e-07
2.22447e-05
-5.90128e-07
2.17736e-05
-1.43827e-06
-1.96013e-06
1.21906e-06
-7.92629e-07
4.59101e-06
-7.56778e-07
8.36747e-06
-2.92389e-07
1.17208e-05
2.09892e-07
1.43065e-05
3.99876e-07
1.59516e-05
3.01139e-07
1.66306e-05
-1.81539e-09
1.64652e-05
-4.06026e-07
1.58441e-05
-7.72833e-07
-1.22707e-06
-7.72191e-07
-1.45191e-06
-1.686e-06
-1.43062e-06
-9.99097e-07
-6.78555e-07
-6.65571e-07
-1.04911e-06
-1.78555e-06
)
;

boundaryField
{
    right
    {
        type            cyclic;
        value           nonuniform List<scalar> 
20
(
0.00119643
0.000608992
0.000589974
0.000476857
0.000348025
0.000256953
0.000191175
0.00013821
9.35922e-05
5.88843e-05
3.55062e-05
1.55857e-05
-3.5286e-07
-1.21912e-05
-1.83749e-05
-2.17812e-05
-2.26777e-05
-2.03685e-05
-1.44771e-05
3.11993e-06
)
;
    }
    left
    {
        type            cyclic;
        value           nonuniform List<scalar> 
20
(
-0.00119643
-0.000608992
-0.000589974
-0.000476857
-0.000348025
-0.000256953
-0.000191175
-0.00013821
-9.35922e-05
-5.88843e-05
-3.55062e-05
-1.55857e-05
3.5286e-07
1.21912e-05
1.83749e-05
2.17812e-05
2.26777e-05
2.03685e-05
1.44771e-05
-3.11993e-06
)
;
    }
    outerWall
    {
        type            calculated;
        value           uniform 0;
    }
    stirrerWall
    {
        type            calculated;
        value           uniform 0;
    }
    top
    {
        type            empty;
        value           nonuniform List<scalar> 0();
    }
    bottom
    {
        type            empty;
        value           nonuniform List<scalar> 0();
    }
}


// ************************************************************************* //
