/*--------------------------------*- C++ -*----------------------------------*\
  =========                 |
  \\      /  F ield         | OpenFOAM: The Open Source CFD Toolbox
   \\    /   O peration     | Website:  https://openfoam.org
    \\  /    A nd           | Version:  10
     \\/     M anipulation  |
\*---------------------------------------------------------------------------*/
FoamFile
{
    format      ascii;
    class       volVectorField;
    location    "2800";
    object      U;
}
// * * * * * * * * * * * * * * * * * * * * * * * * * * * * * * * * * * * * * //

dimensions      [0 1 -1 0 0 0 0];

internalField   nonuniform List<vector> 
420
(
(0.588908 8.79927 3.01314e-18)
(-0.253119 11.5089 -3.41698e-17)
(-0.110371 13.1988 -2.09328e-16)
(-0.0936801 14.6506 5.88005e-17)
(-0.140963 15.8654 -4.37059e-16)
(-0.267007 16.8812 0)
(-0.384336 17.641 0)
(-0.517201 17.8757 5.25281e-16)
(-0.601279 17.7538 -5.63512e-16)
(-0.636633 17.3282 0)
(-0.052074 8.73098 1.75845e-17)
(-1.17254 11.3577 -6.81756e-17)
(-1.04484 13.0322 6.02742e-16)
(-1.09394 14.5016 -9.64625e-16)
(-1.19492 15.793 2.93824e-16)
(-1.35767 16.8881 -1.78466e-18)
(-1.4684 17.6642 2.65105e-15)
(-1.60539 17.8869 -7.47641e-16)
(-1.70808 17.7011 1.26588e-15)
(-1.72492 17.2325 0)
(-0.639452 8.59233 -4.44506e-17)
(-1.95958 11.1022 -2.22919e-16)
(-1.89378 12.7885 5.85301e-16)
(-2.02233 14.2957 1.09965e-15)
(-2.19128 15.669 -7.13913e-16)
(-2.38822 16.8436 3.46036e-15)
(-2.50364 17.6307 1.58552e-15)
(-2.65602 17.833 4.96956e-15)
(-2.76253 17.5943 -2.03088e-15)
(-2.75508 17.0923 -3.9752e-15)
(-1.26236 8.4516 6.11169e-17)
(-2.76374 10.7612 2.30833e-16)
(-2.77115 12.4322 -7.14718e-16)
(-2.96559 13.9529 7.28272e-16)
(-3.18113 15.3781 -1.36519e-15)
(-3.39285 16.6096 1.52795e-15)
(-3.51879 17.4275 -8.5713e-15)
(-3.65053 17.7003 0)
(-3.74707 17.4521 -4.94266e-15)
(-3.72602 16.9416 3.91675e-15)
(-1.90272 8.26875 0)
(-3.56936 10.3445 2.23198e-16)
(-3.66108 11.9737 -2.12237e-16)
(-3.90916 13.4875 0)
(-4.15125 14.9421 -2.71215e-16)
(-4.36487 16.2211 -2.8982e-16)
(-4.49137 17.0952 2.76078e-15)
(-4.59589 17.481 -3.89485e-15)
(-4.68063 17.297 0)
(-4.67374 16.8143 -1.47604e-14)
(-2.55436 8.06297 -2.90375e-17)
(-4.36751 9.86228 0)
(-4.54428 11.4107 0)
(-4.84152 12.8835 1.12445e-15)
(-5.10242 14.3324 -1.85701e-15)
(-5.30508 15.6313 2.03524e-15)
(-5.44624 16.5582 5.53392e-16)
(-5.54673 17.0846 7.74702e-15)
(-5.65756 17.0357 -1.07065e-14)
(-5.73989 16.6642 6.60714e-15)
(-3.22583 7.85027 0)
(-5.14357 9.32879 -2.05059e-16)
(-5.40402 10.7595 -1.59048e-15)
(-5.76193 12.1478 -7.45101e-16)
(-6.06626 13.5377 -3.04124e-15)
(-6.29138 14.8317 1.98489e-15)
(-6.48695 15.8099 -4.68352e-15)
(-6.66433 16.436 7.05026e-16)
(-6.90875 16.586 -2.78084e-15)
(-7.2018 16.4148 -9.46322e-15)
(-3.92562 7.63324 5.68465e-17)
(-5.88307 8.75607 1.99866e-16)
(-6.20905 10.045 2.16389e-15)
(-6.64147 11.3121 5.71907e-16)
(-7.03993 12.5794 1.98047e-15)
(-7.37394 13.7809 0)
(-7.71672 14.7787 4.98643e-15)
(-8.14188 15.5041 6.24125e-15)
(-8.64743 15.8966 7.03652e-15)
(-9.23442 15.9736 7.24834e-15)
(-4.67936 7.388 5.57066e-17)
(-6.56488 8.17842 1.98082e-16)
(-6.97582 9.37989 -2.09424e-16)
(-7.51095 10.5639 -1.51787e-15)
(-8.0479 11.7396 4.68788e-15)
(-8.58267 12.8543 6.53409e-15)
(-9.16992 13.8242 -2.2985e-15)
(-9.88193 14.6104 0)
(-10.7067 15.1884 0)
(-11.5669 15.3158 -8.75686e-15)
(-5.51721 7.04716 -2.942e-17)
(-6.91589 7.74445 7.16991e-16)
(-7.48524 8.71942 0)
(-8.21111 9.70821 0)
(-8.96171 10.7077 -3.4517e-15)
(-9.7165 11.7366 -5.58954e-17)
(-10.5013 12.7985 6.1688e-15)
(-11.3076 13.8726 -1.37569e-14)
(-12.0997 14.8016 1.65449e-14)
(-12.6511 14.894 1.28772e-15)
(-0.58283 16.6788 0)
(-0.516625 15.8796 0)
(-0.373456 15.0119 0)
(-0.156281 14.3348 -8.03863e-16)
(-0.012231 13.6768 0)
(-0.188337 12.5554 0)
(0.095254 10.7124 8.68289e-16)
(2.44635 10.6501 0)
(-5.39454 15.4062 0)
(6.9179 1.0599 0)
(-1.64167 16.5655 1.53031e-15)
(-1.58544 15.7403 2.50095e-15)
(-1.42753 14.8288 1.11589e-16)
(-1.20742 14.1606 9.05454e-16)
(-1.04333 13.528 8.42127e-17)
(-1.12349 12.4602 1.21288e-15)
(-0.856474 10.5808 2.40005e-16)
(1.93742 10.604 5.95915e-17)
(-6.59334 15.5587 -3.0039e-15)
(6.51709 1.37242 -8.43582e-16)
(-2.6492 16.435 1.46208e-15)
(-2.61429 15.585 0)
(-2.43838 14.6232 -2.1012e-15)
(-2.22708 13.9502 -1.86288e-15)
(-2.05362 13.3196 5.62655e-15)
(-2.03382 12.2994 -1.13799e-15)
(-1.71671 10.4152 1.99223e-15)
(1.09309 10.5431 0)
(-7.33417 15.0103 3.14621e-15)
(6.23556 2.3964 -2.50105e-17)
(-3.63499 16.3313 3.26103e-15)
(-3.64247 15.4481 7.81074e-15)
(-3.4405 14.4234 -8.18342e-15)
(-3.22762 13.7221 3.30323e-15)
(-3.03318 13.0711 7.36934e-17)
(-2.91062 12.0794 0)
(-2.50775 10.2229 -1.96377e-15)
(0.157813 10.4428 -3.82444e-15)
(-8.39987 14.2815 -3.06539e-15)
(5.93546 3.35086 3.51251e-15)
(-4.6603 16.2699 2.83747e-15)
(-4.71073 15.3287 -2.47161e-15)
(-4.46146 14.2228 8.27122e-15)
(-4.23215 13.4713 -3.40688e-15)
(-4.00426 12.7795 3.03101e-15)
(-3.77662 11.8009 -4.62914e-15)
(-3.27704 9.99018 4.30784e-15)
(-0.734059 10.3102 4.02004e-15)
(-9.43607 13.4983 0)
(5.62936 4.28957 -7.17984e-15)
(-5.87375 16.1895 3.26418e-15)
(-5.9143 15.1511 -1.46014e-14)
(-5.55055 13.973 -4.28085e-15)
(-5.27089 13.1698 1.03886e-14)
(-4.9812 12.4257 9.11827e-15)
(-4.63297 11.4507 3.85356e-16)
(-4.02343 9.69714 1.43297e-16)
(-1.60883 10.1052 -3.5731e-15)
(-10.3662 12.6938 -2.67839e-15)
(5.27131 5.13294 7.24994e-15)
(-7.4754 15.9498 3.30725e-15)
(-7.30971 14.7543 5.06545e-15)
(-6.71522 13.5729 0)
(-6.35127 12.7587 -3.3969e-15)
(-5.9657 11.975 -5.52581e-15)
(-5.47702 11.0086 3.4732e-16)
(-4.75139 9.32732 -1.14913e-14)
(-2.44491 9.81951 -3.60116e-15)
(-11.2298 11.7303 5.54232e-15)
(4.87022 5.95514 -3.63254e-15)
(-9.4175 15.3343 1.29704e-14)
(-8.7225 13.9651 -4.74592e-15)
(-7.86153 12.9421 0)
(-7.42441 12.1946 -2.65334e-16)
(-6.93197 11.4042 2.26966e-14)
(-6.29536 10.4603 -9.12441e-15)
(-5.45207 8.86067 -7.76152e-15)
(-3.25245 9.43524 6.40076e-15)
(-12.0334 10.9562 -4.97371e-15)
(4.44059 6.64813 0)
(-10.9874 14.145 3.95507e-16)
(-9.81064 12.8739 -4.84107e-15)
(-8.9031 12.1685 0)
(-8.44439 11.5186 6.88789e-15)
(-7.87802 10.7331 -1.6591e-14)
(-7.11571 9.81277 9.08478e-15)
(-6.15767 8.29478 3.67797e-15)
(-4.06855 8.90534 0)
(-12.7922 10.1188 3.85866e-16)
(3.98948 7.40551 3.56228e-15)
(-11.3272 13.2785 4.95327e-16)
(-10.5354 11.9862 -5.05998e-17)
(-9.87974 11.4933 0)
(-9.43275 10.8561 -1.36538e-14)
(-8.83785 10.051 5.25659e-15)
(-8.0097 9.1226 -4.67184e-15)
(-6.96211 7.6954 3.80591e-15)
(-4.99658 8.15766 -3.36011e-16)
(-13.5807 9.05398 -3.38337e-16)
(3.45653 8.25793 -3.48697e-15)
(-10.6817 13.517 2.92892e-15)
(-10.9798 11.5655 -5.06755e-15)
(-10.5064 11.0329 0)
(-10.0103 10.3519 0)
(-9.34611 9.526 0)
(-8.43117 8.56923 -2.18847e-15)
(-7.30253 7.22336 8.45161e-15)
(-5.72373 7.57323 0)
(-13.9249 7.11067 0)
(3.13513 9.12111 0)
(-11.2532 12.8405 -2.80141e-15)
(-11.5488 11.2673 -4.84804e-15)
(-11.0707 10.6738 0)
(-10.4759 9.98995 3.39233e-15)
(-9.72625 9.1907 -2.59819e-15)
(-8.71623 8.27432 2.08561e-15)
(-7.55374 7.01923 2.99212e-15)
(-6.12331 7.59752 1.69603e-16)
(-14.039 6.22732 1.0176e-15)
(2.84442 9.20207 0)
(-12.7324 11.372 1.9749e-16)
(-12.367 10.6794 6.83937e-17)
(-11.8389 10.0195 0)
(-11.1094 9.39517 1.68529e-16)
(-10.2725 8.66699 5.01934e-15)
(-9.16646 7.83843 -3.75934e-15)
(-7.94301 6.76072 -8.95907e-15)
(-6.6017 7.39044 -3.95461e-15)
(-14.2644 6.01357 6.42312e-15)
(2.20177 9.32932 3.06425e-15)
(-14.2045 10.0056 -1.24118e-14)
(-13.454 9.45731 4.77954e-15)
(-12.706 8.903 0)
(-11.8748 8.32542 -6.2429e-15)
(-10.9786 7.62241 -4.97422e-15)
(-9.78786 6.81242 7.47394e-15)
(-8.43634 5.92387 2.69065e-15)
(-7.35589 6.20214 0)
(-14.4874 5.13606 -3.50103e-15)
(1.50953 9.63319 -4.00139e-16)
(-14.8602 8.57507 -2.7341e-16)
(-14.178 8.22507 4.74902e-15)
(-13.3933 7.8143 0)
(-12.5275 7.34274 1.25126e-14)
(-11.5899 6.7247 8.04906e-17)
(-10.3292 5.9551 -5.35184e-17)
(-8.87783 5.23902 4.96884e-15)
(-8.06067 5.39551 -4.02885e-15)
(-14.5096 3.51014 -2.53888e-15)
(0.770243 9.79152 0)
(-15.377 7.29921 -2.87534e-15)
(-14.7471 7.03152 9.36395e-15)
(-13.9609 6.7051 7.68427e-15)
(-13.0841 6.31946 -8.83359e-15)
(-12.1247 5.77903 -1.38443e-14)
(-10.8051 5.06184 9.34907e-17)
(-9.26406 4.53843 -2.51611e-15)
(-8.74984 4.58985 -1.78821e-15)
(-14.3833 2.28869 -2.62163e-15)
(0.0878581 9.59859 -3.04385e-15)
(-15.8176 6.11036 -8.47352e-15)
(-15.199 5.87745 4.46688e-15)
(-14.4151 5.61432 -3.49682e-15)
(-13.5481 5.30444 -8.66007e-15)
(-12.5878 4.8297 6.77513e-15)
(-11.2239 4.16195 9.31128e-17)
(-9.60897 3.83664 5.0473e-15)
(-9.37447 3.75999 1.43863e-15)
(-14.0639 0.9594 1.13227e-15)
(-0.46334 9.73868 4.81339e-16)
(-16.1934 4.95308 2.46537e-15)
(-15.5632 4.75593 -2.2384e-15)
(-14.7777 4.55168 -4.6299e-17)
(-13.9332 4.31442 8.52807e-15)
(-12.9911 3.90165 -1.10052e-14)
(-11.5938 3.28754 3.3428e-15)
(-9.92764 3.13218 -2.34197e-15)
(-9.89578 2.91139 5.38309e-15)
(-13.6064 -0.313818 0)
(-0.955946 9.79526 -1.6855e-16)
(-16.5 3.80538 2.72568e-15)
(-15.8401 3.65907 2.22496e-15)
(-15.0556 3.5204 3.63199e-15)
(-14.2518 3.35916 -5.63505e-15)
(-13.3531 3.00878 2.1658e-15)
(-11.9475 2.45039 0)
(-10.2453 2.40995 -1.28066e-15)
(-10.309 2.1117 -3.21141e-15)
(-13.1894 -1.56287 2.78104e-16)
(-1.42027 10.036 2.91688e-15)
(-16.7073 2.66872 1.25013e-15)
(-16.0112 2.58363 0)
(-15.2389 2.51557 1.82242e-15)
(-14.4882 2.43625 1.48462e-15)
(-13.6467 2.15941 1.41464e-17)
(-12.2671 1.64097 -8.51863e-16)
(-10.5346 1.70875 1.26879e-15)
(-10.4481 1.42753 0)
(-12.8276 -3.017 1.02128e-15)
(-1.96997 10.5469 3.73826e-15)
(-16.766 1.54601 1.38578e-15)
(-16.0449 1.53645 -2.30214e-15)
(-15.2923 1.57284 -8.20175e-17)
(-14.6016 1.62335 6.79378e-16)
(-13.8111 1.50518 -2.14837e-17)
(-12.4396 1.0189 8.39709e-16)
(-10.6834 1.27028 -1.38031e-15)
(-10.2421 1.2518 1.59982e-16)
(-12.1684 -4.60503 1.73451e-15)
(-2.16669 10.9875 -2.54424e-15)
(-16.7636 0.516014 2.04731e-29)
(-16.0228 0.565463 0)
(-15.2105 0.693321 0)
(-14.546 0.937022 -7.57063e-16)
(-13.8834 1.11454 0)
(-12.7712 0.873892 0)
(-10.8986 1.30364 7.31342e-16)
(-10.9033 2.86232 0)
(-14.7017 -4.61245 0)
(-0.467796 5.66026 -1.20042e-29)
(-14.1878 12.4677 8.60546e-16)
(-15.0495 10.2187 -7.40217e-15)
(-15.4337 8.65788 7.02347e-15)
(-15.8028 7.39126 -9.28898e-15)
(-16.2091 6.23792 6.08593e-15)
(-16.6 5.09934 -1.25496e-14)
(-16.9474 3.94704 3.10071e-15)
(-17.2099 2.77264 -3.32671e-15)
(-17.3335 1.58323 0)
(-17.3691 0.484923 -3.95881e-16)
(-14.8066 11.687 1.53111e-14)
(-15.4998 9.6304 0)
(-15.7511 8.3579 7.1818e-15)
(-15.9978 7.24817 -2.77166e-15)
(-16.3376 6.20213 -9.33844e-15)
(-16.7161 5.14199 0)
(-17.0957 4.03908 -3.51594e-15)
(-17.4264 2.88098 -1.60778e-15)
(-17.6502 1.66777 1.06957e-15)
(-17.7478 0.517034 -4.56772e-16)
(-14.5255 10.8433 -1.27033e-14)
(-15.4869 9.01713 0)
(-15.7339 7.85708 6.44959e-15)
(-15.9446 6.91277 5.57328e-16)
(-16.2234 5.99526 7.73032e-15)
(-16.5526 5.04348 -3.61367e-15)
(-16.9112 4.02451 0)
(-17.2631 2.93519 4.4158e-15)
(-17.567 1.75929 -7.48621e-16)
(-17.7679 0.564358 5.99342e-16)
(-13.5222 10.0456 5.7052e-15)
(-14.9427 8.41294 -2.29534e-15)
(-15.3635 7.33437 5.36298e-15)
(-15.6188 6.52166 -5.92131e-15)
(-15.8606 5.69906 6.57745e-16)
(-16.1534 4.82394 3.69888e-15)
(-16.4835 3.89773 -1.11263e-14)
(-16.8328 2.92072 1.8619e-15)
(-17.1826 1.86385 3.01666e-15)
(-17.4635 0.732049 8.57592e-17)
(-12.3554 9.33557 -8.43302e-15)
(-13.9031 7.86788 6.25364e-15)
(-14.6666 6.88416 0)
(-15.0797 6.15137 2.03889e-15)
(-15.3684 5.44678 2.20547e-15)
(-15.6378 4.68602 -2.96901e-16)
(-15.9287 3.85691 1.67206e-15)
(-16.2317 2.95338 3.91412e-15)
(-16.5253 1.95491 1.0237e-17)
(-16.7449 0.861298 3.53635e-16)
(-11.1855 8.67501 -3.35153e-15)
(-12.6416 7.39404 4.45217e-15)
(-13.5544 6.5058 1.7619e-15)
(-14.2133 5.81657 -2.90252e-15)
(-14.6443 5.17064 -1.76578e-15)
(-14.974 4.49074 -2.32075e-16)
(-15.2461 3.73824 -3.15649e-15)
(-15.4859 2.9046 1.01619e-15)
(-15.7013 1.96564 3.08022e-16)
(-15.8253 0.93861 -3.42222e-16)
(-10.0571 8.03942 0)
(-11.2715 6.94011 -1.44241e-15)
(-12.2334 6.17669 4.677e-16)
(-12.9782 5.52316 -6.60217e-16)
(-13.5352 4.89575 1.05925e-15)
(-13.9525 4.24269 0)
(-14.2627 3.53671 6.89869e-16)
(-14.4864 2.76063 1.07426e-15)
(-14.6403 1.88674 -9.37299e-16)
(-14.6926 0.92483 -3.13721e-17)
(-8.95091 7.3921 0)
(-9.88835 6.51174 -2.60507e-16)
(-10.7843 5.88683 2.15606e-15)
(-11.5278 5.27205 -1.56748e-15)
(-12.1288 4.65296 0)
(-12.5863 4.00626 -2.3112e-16)
(-12.9137 3.31662 -6.87221e-16)
(-13.1317 2.57324 5.79068e-16)
(-13.2564 1.74101 5.76502e-16)
(-13.2721 0.836543 -2.33485e-16)
(-7.85051 6.66132 -8.65419e-16)
(-8.56057 6.01785 2.69547e-16)
(-9.33805 5.46837 2.64156e-16)
(-10.0082 4.85695 -2.57407e-16)
(-10.5625 4.21648 0)
(-10.9903 3.54167 2.48189e-16)
(-11.29 2.83186 2.65769e-16)
(-11.4701 2.09128 -2.71589e-16)
(-11.5492 1.31472 -6.48145e-17)
(-11.5257 0.532009 1.12512e-18)
(-6.37259 6.25542 -2.35508e-16)
(-6.57926 6.05637 3.0208e-17)
(-6.97319 5.59187 1.62723e-17)
(-7.3938 5.03071 0)
(-7.78609 4.4559 1.20541e-18)
(-8.12458 3.87902 0)
(-8.39683 3.29058 5.12322e-17)
(-8.59905 2.67714 3.78118e-18)
(-8.74129 2.01898 2.18047e-17)
(-8.77586 1.35048 -3.51175e-18)
)
;

boundaryField
{
    right
    {
        type            cyclic;
    }
    left
    {
        type            cyclic;
    }
    outerWall
    {
        type            calculated;
        value           nonuniform List<vector> 
22
(
(-1.55201 41.8305 0)
(-4.64749 41.6006 0)
(-7.71741 41.1419 0)
(-10.7449 40.4569 0)
(-13.7132 39.5492 0)
(-16.6061 38.424 0)
(-19.4075 37.0874 0)
(-22.1022 35.5467 0)
(-24.6752 33.8104 0)
(-27.1124 31.8882 0)
(-28.9573 30.2506 0)
(-30.2506 28.9573 0)
(-31.8882 27.1124 0)
(-33.8104 24.6752 0)
(-35.5467 22.1022 0)
(-37.0874 19.4075 0)
(-38.424 16.6061 0)
(-39.5492 13.7132 0)
(-40.4569 10.7449 0)
(-41.1419 7.71741 0)
(-41.6006 4.64749 0)
(-41.8305 1.55201 0)
)
;
    }
    stirrerWall
    {
        type            calculated;
        value           nonuniform List<vector> 
42
(
(-0.310178 8.3662 0)
(-0.928834 8.32046 0)
(-1.54239 8.22894 0)
(-2.14746 8.09214 0)
(-2.74072 7.91082 0)
(-3.31888 7.68598 0)
(-3.87877 7.41885 0)
(-4.41729 7.11092 0)
(-4.93148 6.76387 0)
(-5.4185 6.37963 0)
(-6.07951 6.64185 0)
(-6.92878 7.56862 0)
(-7.77806 8.49539 0)
(-8.62734 9.42216 0)
(-9.47661 10.3489 0)
(-10.3259 11.2757 0)
(-11.1752 12.2025 0)
(-12.0244 13.1292 0)
(-12.8737 14.056 0)
(-13.723 14.9828 0)
(-14.4723 15.1215 0)
(-15.1215 14.4723 0)
(-14.9828 13.723 0)
(-14.056 12.8737 0)
(-13.1292 12.0244 0)
(-12.2025 11.1752 0)
(-11.2757 10.3259 0)
(-10.3489 9.47661 0)
(-9.42216 8.62734 0)
(-8.49539 7.77806 0)
(-7.56862 6.92878 0)
(-6.64185 6.07951 0)
(-6.37963 5.4185 0)
(-6.76387 4.93148 0)
(-7.11092 4.41729 0)
(-7.41885 3.87877 0)
(-7.68598 3.31888 0)
(-7.91082 2.74072 0)
(-8.09214 2.14746 0)
(-8.22894 1.54239 0)
(-8.32046 0.928834 0)
(-8.3662 0.310178 0)
)
;
    }
    top
    {
        type            empty;
    }
    bottom
    {
        type            empty;
    }
}


// ************************************************************************* //
