/*--------------------------------*- C++ -*----------------------------------*\
  =========                 |
  \\      /  F ield         | OpenFOAM: The Open Source CFD Toolbox
   \\    /   O peration     | Website:  https://openfoam.org
    \\  /    A nd           | Version:  10
     \\/     M anipulation  |
\*---------------------------------------------------------------------------*/
FoamFile
{
    format      ascii;
    class       volVectorField;
    location    "2800";
    object      Urel;
}
// * * * * * * * * * * * * * * * * * * * * * * * * * * * * * * * * * * * * * //

dimensions      [0 1 -1 0 0 0 0];

internalField   nonuniform List<vector> 
420
(
(0.922908 -0.208977 3.01314e-18)
(0.127381 1.24756 -3.41698e-17)
(0.316645 1.68391 -2.09328e-16)
(0.379861 1.88203 5.88005e-17)
(0.379111 1.84285 -4.37059e-16)
(0.299605 1.60456 0)
(0.228819 1.11003 0)
(0.1425 0.0904325 5.25281e-16)
(0.104972 -1.28582 -5.63512e-16)
(0.116168 -2.9659 0)
(0.948103 -0.227977 1.75845e-17)
(-0.0331148 1.15256 -6.81756e-17)
(0.233869 1.58049 6.02742e-16)
(0.324089 1.80311 -9.64625e-16)
(0.362456 1.84746 2.93824e-16)
(0.339061 1.6953 -1.78466e-18)
(0.367703 1.22408 2.65105e-15)
(0.370099 0.199438 -7.47641e-16)
(0.406793 -1.23385 1.26588e-15)
(0.529358 -2.94997 0)
(1.02141 -0.268054 -4.44506e-17)
(-0.0674936 1.00935 -2.22919e-16)
(0.229604 1.46292 5.85301e-16)
(0.3324 1.73707 1.09965e-15)
(0.394831 1.87701 -7.13913e-16)
(0.429307 1.81829 3.46036e-15)
(0.54532 1.37179 1.58552e-15)
(0.624391 0.340473 4.96956e-15)
(0.749354 -1.13194 -2.03088e-15)
(0.988282 -2.86769 -3.9752e-15)
(1.05005 -0.261477 6.11169e-17)
(-0.12939 0.836236 2.30833e-16)
(0.185236 1.29491 -7.14718e-16)
(0.312898 1.60308 7.28272e-16)
(0.419517 1.81563 -1.36519e-15)
(0.529993 1.83423 1.52795e-15)
(0.726286 1.43914 -8.5713e-15)
(0.916791 0.498836 0)
(1.14252 -0.962506 -4.94266e-15)
(1.48586 -2.68619 3.91675e-15)
(1.04852 -0.24908 0)
(-0.207235 0.641965 2.23198e-16)
(0.112054 1.08608 -2.12237e-16)
(0.275074 1.41451 0)
(0.444142 1.68357 -2.71215e-16)
(0.64174 1.77683 -2.8982e-16)
(0.926492 1.46524 2.76078e-15)
(1.23325 0.665142 -3.89485e-15)
(1.55982 -0.704884 0)
(1.97804 -2.37358 -1.47604e-14)
(1.01946 -0.212766 -2.90375e-17)
(-0.296111 0.4355 0)
(0.024849 0.832548 0)
(0.225446 1.15364 1.12445e-15)
(0.462464 1.4507 -1.85701e-15)
(0.757782 1.59765 2.03524e-15)
(1.11465 1.37238 5.53392e-16)
(1.51222 0.746652 7.74702e-15)
(1.89948 -0.454517 -1.07065e-14)
(2.31527 -1.97825 6.60714e-15)
(0.950904 -0.137856 0)
(-0.385289 0.229607 -2.05059e-16)
(-0.0640186 0.5489 -1.59048e-15)
(0.159917 0.825523 -7.45101e-16)
(0.437533 1.10363 -3.04124e-15)
(0.794423 1.28563 1.98489e-15)
(1.18092 1.15182 -4.68352e-15)
(1.58566 0.665764 7.05026e-16)
(1.92338 -0.296477 -2.78084e-15)
(2.2125 -1.57996 -9.46322e-15)
(0.831025 -0.0233343 5.68465e-17)
(-0.464102 0.034521 1.99866e-16)
(-0.12755 0.258162 2.16389e-15)
(0.102705 0.45971 5.71907e-16)
(0.36702 0.66133 1.98047e-15)
(0.695873 0.796955 0)
(1.01601 0.72877 4.98643e-15)
(1.25383 0.388229 6.24125e-15)
(1.41128 -0.285391 7.03652e-15)
(1.48734 -1.27451 7.24834e-15)
(0.631001 0.105076 5.57066e-17)
(-0.515036 -0.117538 1.98082e-16)
(-0.186275 0.0705685 -2.09424e-16)
(0.0184659 0.240994 -1.51787e-15)
(0.221504 0.403003 4.68788e-15)
(0.426809 0.503766 6.53409e-15)
(0.579709 0.459761 -2.2985e-15)
(0.60789 0.231896 0)
(0.523404 -0.204198 0)
(0.403447 -1.09089 -8.75686e-15)
(0.317627 0.177934 -2.942e-17)
(-0.268471 -0.0803171 7.16991e-16)
(-0.0249874 -0.0611986 0)
(0.0621519 -0.0284631 0)
(0.124689 0.0147949 -3.4517e-15)
(0.183137 0.0873489 -5.58954e-17)
(0.211663 0.192832 6.1688e-15)
(0.218748 0.310528 -1.37569e-14)
(0.240084 0.282947 1.65449e-14)
(0.50214 -0.581231 1.28772e-15)
(0.216777 -4.8765 0)
(0.332591 -7.01247 0)
(0.530686 -9.36023 0)
(0.808674 -11.6761 -8.03863e-16)
(1.02006 -14.1485 0)
(0.918498 -17.2788 0)
(1.28463 -21.3461 8.68289e-16)
(3.72711 -23.8709 0)
(-4.0126 -21.8414 0)
(8.41187 -39.2065 0)
(0.752749 -4.87119 1.53031e-15)
(0.957526 -7.02582 2.50095e-15)
(1.27992 -9.40934 1.11589e-16)
(1.68213 -11.7073 9.05454e-16)
(2.04784 -14.1444 8.42127e-17)
(2.19092 -17.21 1.21288e-15)
(2.7051 -21.3015 2.40005e-16)
(5.77265 -23.7273 5.95915e-17)
(-2.45512 -21.4842 -3.0039e-15)
(10.9908 -38.6727 -8.43582e-16)
(1.32687 -4.76528 1.46208e-15)
(1.60846 -6.9301 0)
(2.05749 -9.34765 -2.1012e-15)
(2.57118 -11.6324 -1.86288e-15)
(3.07945 -14.0476 5.62655e-15)
(3.46995 -17.0436 -1.13799e-15)
(4.19749 -21.1155 1.99223e-15)
(7.46171 -23.4097 0)
(-0.462424 -21.6242 3.14621e-15)
(13.6644 -37.2072 -2.50105e-17)
(1.90089 -4.51622 3.26103e-15)
(2.23686 -6.69232 7.81074e-15)
(2.81908 -9.14856 -8.18342e-15)
(3.45299 -11.4347 3.30323e-15)
(4.11357 -13.8406 7.36934e-17)
(4.75224 -16.7752 0)
(5.72654 -20.7829 -1.96377e-15)
(9.02479 -22.9447 -3.82444e-15)
(1.16759 -21.743 -3.06539e-15)
(16.2785 -35.5933 3.51251e-15)
(2.40498 -4.11033 2.83747e-15)
(2.79287 -6.31536 -2.47161e-15)
(3.52745 -8.82065 8.27122e-15)
(4.29407 -11.1215 -3.40688e-15)
(5.11688 -13.5287 3.03101e-15)
(6.0032 -16.4066 -4.62914e-15)
(7.23206 -20.3201 4.30784e-15)
(10.5825 -22.3284 4.02004e-15)
(2.77448 -21.7181 0)
(18.8297 -33.7809 -7.17984e-15)
(2.68214 -3.61139 3.26418e-15)
(3.17237 -5.87769 -1.46014e-14)
(4.12379 -8.41532 -4.28085e-15)
(5.0541 -10.7237 1.03886e-14)
(6.06419 -13.1344 9.11827e-15)
(7.21004 -15.9545 3.85356e-16)
(8.70269 -19.7511 1.43297e-16)
(12.0951 -21.6049 -3.5731e-15)
(4.42028 -21.5207 -2.67839e-15)
(21.2564 -31.8544 7.24994e-15)
(2.52412 -3.16309 3.30725e-15)
(3.31011 -5.54369 5.06545e-15)
(4.59139 -8.03716 0)
(5.71575 -10.3042 -3.3969e-15)
(6.94323 -12.6964 -5.52581e-15)
(8.36406 -15.4437 3.4732e-16)
(10.1218 -19.0969 -1.14913e-14)
(13.5709 -20.7878 -3.60116e-15)
(6.0512 -21.2943 5.54232e-15)
(23.552 -29.7456 -3.63254e-15)
(1.97074 -2.98547 1.29704e-14)
(3.37214 -5.49055 -4.74592e-15)
(5.01524 -7.77104 0)
(6.31832 -9.91094 -2.65334e-16)
(7.76954 -12.243 2.26966e-14)
(9.46769 -14.8937 -9.12441e-15)
(11.4863 -18.3832 -7.76152e-15)
(14.9872 -19.901 6.40076e-15)
(7.64707 -20.6967 -4.97371e-15)
(25.7163 -27.5696 0)
(1.72701 -3.28103 3.95507e-16)
(3.6924 -5.63247 -4.84107e-15)
(5.47308 -7.53396 0)
(6.89851 -9.50814 6.88789e-15)
(8.53524 -11.7598 -1.6591e-14)
(10.4826 -14.3035 9.08478e-15)
(12.7528 -17.6189 3.67797e-15)
(16.2946 -18.9984 0)
(9.1794 -19.9882 3.85866e-16)
(27.742 -25.141 3.56228e-15)
(2.6436 -3.15813 4.95327e-16)
(4.30189 -5.46925 -5.05998e-17)
(5.91686 -7.09007 0)
(7.42603 -8.97618 -1.36538e-14)
(9.19695 -11.164 5.25659e-15)
(11.3272 -13.6234 -4.67184e-15)
(13.8164 -16.7456 3.80591e-15)
(17.3781 -18.1601 -3.36011e-16)
(10.5612 -19.3417 -3.38337e-16)
(29.5551 -22.4383 -3.48697e-15)
(4.23404 -2.06742 2.92892e-15)
(4.86167 -4.98592 -5.06755e-15)
(6.36011 -6.5891 0)
(7.99117 -8.45547 0)
(9.91193 -10.5939 0)
(12.2181 -13.0037 -2.18847e-15)
(14.8871 -15.9585 8.45161e-15)
(18.1714 -17.3899 0)
(11.8585 -19.8247 0)
(31.0093 -19.9979 0)
(4.33127 -2.07516 -2.80141e-15)
(5.00262 -4.57418 -4.84804e-15)
(6.55131 -6.19279 0)
(8.3315 -8.01152 3.39233e-15)
(10.3936 -10.0673 -2.59819e-15)
(12.8567 -12.375 2.08561e-15)
(15.6281 -15.1704 2.99212e-15)
(18.8398 -16.2976 1.69603e-16)
(12.8964 -19.5561 1.0176e-15)
(31.9634 -18.6721 0)
(3.70425 -2.59877 1.9749e-16)
(5.08845 -4.15786 6.83937e-17)
(6.74443 -5.77715 0)
(8.72283 -7.4636 1.68529e-16)
(10.9425 -9.36781 5.01934e-15)
(13.5795 -11.4984 -3.75934e-15)
(16.498 -14.0178 -8.95907e-15)
(19.7161 -14.9842 -3.95461e-15)
(14.1313 -18.1284 6.42312e-15)
(32.898 -16.7693 3.06425e-15)
(3.22153 -2.70888 -1.24118e-14)
(5.05237 -4.04572 4.77954e-15)
(6.99645 -5.47317 0)
(9.15194 -7.01749 -6.2429e-15)
(11.5144 -8.79085 -4.97422e-15)
(14.3284 -10.7859 7.47394e-15)
(17.4773 -12.9866 2.69065e-15)
(20.5478 -14.1611 0)
(15.6196 -16.8356 -3.50103e-15)
(34.0561 -14.1193 -4.00139e-16)
(3.4596 -2.81317 -2.7341e-16)
(5.2776 -3.86957 4.74902e-15)
(7.31985 -5.06247 0)
(9.57804 -6.39998 1.25126e-14)
(12.0572 -7.97681 8.04906e-17)
(15.0248 -9.80795 -5.35184e-17)
(18.366 -11.6994 4.96884e-15)
(21.2755 -12.8442 -4.02885e-15)
(17.1432 -16.1703 -2.53888e-15)
(34.988 -11.4842 0)
(3.73583 -2.70031 -2.87534e-15)
(5.55088 -3.5883 9.36395e-15)
(7.64923 -4.60151 7.68427e-15)
(9.97878 -5.74756 -8.83359e-15)
(12.5467 -7.1299 -1.38443e-14)
(15.6472 -8.77924 9.34907e-17)
(19.1601 -10.3347 -2.51611e-15)
(21.8575 -11.426 -1.78821e-15)
(18.6412 -14.9923 -2.62163e-15)
(35.7886 -9.08319 -3.04385e-15)
(3.98328 -2.44553 -8.47352e-15)
(5.82978 -3.20921 4.46688e-15)
(7.97318 -4.06001 -3.49682e-15)
(10.3454 -5.02056 -8.66007e-15)
(12.9722 -6.2157 6.77513e-15)
(16.1814 -7.68106 9.31128e-17)
(19.8393 -8.88948 5.0473e-15)
(22.3357 -9.9439 1.43863e-15)
(20.1507 -13.8271 1.13227e-15)
(36.524 -6.24638 4.81339e-16)
(4.18683 -2.11221 2.46537e-15)
(6.08089 -2.74768 -2.2384e-15)
(8.26575 -3.43723 -4.6299e-17)
(10.6596 -4.2118 8.52807e-15)
(13.3171 -5.21949 -1.10052e-14)
(16.6136 -6.49228 3.3428e-15)
(20.3827 -7.37692 -2.34197e-15)
(22.7428 -8.40517 5.38309e-15)
(21.61 -12.5244 0)
(37.1146 -3.40511 -1.6855e-16)
(4.34749 -1.7305 2.72568e-15)
(6.30034 -2.22025 2.22496e-15)
(8.51629 -2.73919 3.63199e-15)
(10.905 -3.32144 -5.63505e-15)
(13.5586 -4.13797 2.1658e-15)
(16.9071 -5.21247 0)
(20.7605 -5.82434 -1.28066e-15)
(23.0785 -6.75527 -3.21141e-15)
(22.8352 -11.1303 2.78104e-16)
(37.5239 -0.307086 2.91688e-15)
(4.49301 -1.30735 1.25013e-15)
(6.50392 -1.63911 0)
(8.73196 -1.9803 1.82242e-15)
(11.0944 -2.36201 1.48462e-15)
(13.7206 -2.97367 1.41464e-17)
(17.076 -3.8628 -8.51863e-16)
(20.9961 -4.20545 1.26879e-15)
(23.5047 -4.94109 0)
(23.8069 -9.88875 1.02128e-15)
(37.6336 3.11815 3.73826e-15)
(4.67067 -0.848406 1.38578e-15)
(6.72124 -1.00652 -2.30214e-15)
(8.94582 -1.13461 -8.20175e-17)
(11.2662 -1.2662 6.79378e-16)
(13.8612 -1.586 -2.14837e-17)
(17.2306 -2.29552 8.39709e-16)
(21.1988 -2.29129 -1.38031e-15)
(24.0892 -2.58343 1.59982e-16)
(24.8745 -8.74325 1.73451e-15)
(37.8785 6.51379 -2.54424e-15)
(4.7917 -0.283594 2.04731e-29)
(6.86926 -0.283753 0)
(9.16171 -0.210821 0)
(11.4649 -0.0279334 -7.57063e-16)
(13.9419 0.0822513 0)
(17.063 -0.232943 0)
(21.1598 0.114266 7.31342e-16)
(23.6177 1.58156 0)
(22.5459 -5.99439 0)
(39.7986 4.16629 -1.20042e-29)
(1.28748 -0.685554 8.60546e-16)
(1.35725 -1.75164 -7.40217e-15)
(1.81439 -2.06388 7.02347e-15)
(2.19188 -2.02305 -9.28898e-15)
(2.43337 -1.81723 6.08593e-15)
(2.58786 -1.55244 -1.25496e-14)
(2.68043 -1.26484 3.10071e-15)
(2.75006 -0.970722 -3.32671e-15)
(2.84901 -0.671042 0)
(2.92504 -0.267878 -3.95881e-16)
(-0.287992 -0.652723 1.53111e-14)
(-0.107229 -1.59966 0)
(0.430843 -1.70082 7.1818e-15)
(0.884636 -1.58396 -2.77166e-15)
(1.15261 -1.35491 -9.33844e-15)
(1.28579 -1.09847 0)
(1.31893 -0.85051 -3.51594e-15)
(1.29978 -0.630903 -1.60778e-15)
(1.2847 -0.447102 1.06957e-15)
(1.29183 -0.189216 -4.56772e-16)
(-0.963433 -0.683071 -1.27033e-14)
(-1.10841 -1.47269 0)
(-0.618037 -1.53862 6.44959e-15)
(-0.174391 -1.33722 5.57328e-16)
(0.114538 -1.06369 7.73032e-15)
(0.263338 -0.785663 -3.61367e-15)
(0.29022 -0.542816 0)
(0.229368 -0.34523 4.4158e-15)
(0.120425 -0.216193 -7.48621e-16)
(0.0173418 -0.0953433 5.99342e-16)
(-0.916552 -0.667368 5.7052e-15)
(-1.57822 -1.33669 -2.29534e-15)
(-1.31361 -1.39836 5.36298e-15)
(-0.960671 -1.14621 -5.92131e-15)
(-0.674826 -0.861825 6.57745e-16)
(-0.523426 -0.593926 3.69888e-15)
(-0.495086 -0.347342 -1.11263e-14)
(-0.57395 -0.128249 1.8619e-15)
(-0.742561 0.0277447 3.01666e-15)
(-0.932574 0.118894 8.57592e-17)
(-0.706171 -0.564069 -8.43302e-15)
(-1.55264 -1.14159 6.25364e-15)
(-1.68261 -1.18565 0)
(-1.53369 -0.93444 2.03889e-15)
(-1.33472 -0.616082 2.20547e-15)
(-1.19358 -0.320586 -2.96901e-16)
(-1.15327 -0.0659386 1.67206e-15)
(-1.20636 0.13585 3.91412e-15)
(-1.33255 0.258176 1.0237e-17)
(-1.46819 0.294686 3.53635e-16)
(-0.492615 -0.411395 -3.35153e-15)
(-1.30499 -0.875358 4.45217e-15)
(-1.63632 -0.901151 1.7619e-15)
(-1.77921 -0.687217 -2.90252e-15)
(-1.76262 -0.394241 -1.76578e-15)
(-1.71546 -0.104657 -2.32075e-16)
(-1.6836 0.13759 -3.15649e-15)
(-1.69397 0.318484 1.01619e-15)
(-1.75568 0.408266 3.08022e-16)
(-1.80273 0.418536 -3.42222e-16)
(-0.320433 -0.23384 0)
(-0.948557 -0.589306 -1.44241e-15)
(-1.38105 -0.567477 4.677e-16)
(-1.65597 -0.398684 -6.60217e-16)
(-1.80539 -0.171217 1.05925e-15)
(-1.87947 0.0584562 0)
(-1.91296 0.258217 6.89869e-16)
(-1.92777 0.405898 1.07426e-15)
(-1.94179 0.468711 -9.37299e-16)
(-1.92404 0.451289 -3.13721e-17)
(-0.170298 -0.0681487 0)
(-0.579029 -0.277803 -2.60507e-16)
(-0.997493 -0.194672 2.15606e-15)
(-1.31724 -0.06795 -1.56748e-15)
(-1.55056 0.083828 0)
(-1.69869 0.233125 -2.3112e-16)
(-1.77643 0.360238 -6.87221e-16)
(-1.80612 0.449855 5.79068e-16)
(-1.80468 0.462302 5.76502e-16)
(-1.75722 0.409527 -2.33485e-16)
(-0.0257364 0.0139003 -8.65419e-16)
(-0.264608 -0.0319916 2.69547e-16)
(-0.616502 0.0493999 2.64156e-16)
(-0.90903 0.0986698 -2.57407e-16)
(-1.1357 0.145081 0)
(-1.28771 0.179546 2.48189e-16)
(-1.36504 0.197511 2.65769e-16)
(-1.3773 0.199193 -2.71589e-16)
(-1.34405 0.175299 -6.48145e-17)
(-1.26435 0.151508 1.12512e-18)
(0.496629 0.420579 -2.35508e-16)
(0.703665 0.746001 3.0208e-17)
(0.683387 0.835219 1.62723e-17)
(0.594327 0.853979 0)
(0.489641 0.882071 1.20541e-18)
(0.393254 0.927783 0)
(0.316244 0.978165 5.12322e-17)
(0.261336 1.01628 3.78118e-18)
(0.217666 1.0188 2.18047e-17)
(0.232394 1.01648 -3.51175e-18)
)
;

boundaryField
{
    right
    {
        type            cyclic;
    }
    left
    {
        type            cyclic;
    }
    outerWall
    {
        type            noSlip;
    }
    stirrerWall
    {
        type            noSlip;
    }
    top
    {
        type            empty;
    }
    bottom
    {
        type            empty;
    }
}


// ************************************************************************* //
