/*--------------------------------*- C++ -*----------------------------------*\
  =========                 |
  \\      /  F ield         | OpenFOAM: The Open Source CFD Toolbox
   \\    /   O peration     | Website:  https://openfoam.org
    \\  /    A nd           | Version:  10
     \\/     M anipulation  |
\*---------------------------------------------------------------------------*/
FoamFile
{
    format      ascii;
    class       volScalarField;
    location    "21000";
    object      Co;
}
// * * * * * * * * * * * * * * * * * * * * * * * * * * * * * * * * * * * * * //

dimensions      [0 0 0 0 0 0 0];

internalField   nonuniform List<scalar> 
17969
(
72.9574
36.989
24.6158
17.8381
30.1394
61.6497
99.6363
142.761
187.36
228.889
264.059
291.6
311.88
326.038
335.321
340.819
343.445
343.949
342.914
340.773
337.838
334.326
330.389
326.134
321.636
316.949
312.111
307.153
302.096
296.955
291.744
286.472
281.147
275.774
270.36
264.908
259.422
253.905
248.36
242.79
237.197
231.583
225.952
220.304
214.643
208.971
203.29
197.601
191.908
186.212
180.516
174.821
169.13
163.444
157.766
152.097
146.439
140.794
135.164
129.549
123.952
118.373
112.815
107.278
101.763
96.2713
90.8038
85.3611
79.9439
74.5527
69.1878
63.8492
58.537
53.2506
49.1622
46.3114
43.6062
41.0338
42.8494
45.6313
48.2783
50.7986
53.1998
55.4892
57.6739
59.7606
61.756
63.6666
65.499
67.2593
68.9525
70.5819
72.1501
73.66
75.1148
76.5178
77.8724
79.1818
80.4492
81.6806
75.097
38.5323
27.4996
20.6343
17.9937
31.0936
58.6689
92.4437
131.94
174.653
216.806
254.841
286.511
311.179
329.371
342.109
350.454
355.315
357.467
357.563
356.131
353.579
350.208
346.238
341.825
337.08
332.085
326.896
321.558
316.1
310.547
304.917
299.222
293.474
287.681
281.849
275.984
270.09
264.17
258.229
252.269
246.291
240.3
234.297
228.284
222.263
216.236
210.206
204.174
198.143
192.114
186.089
180.07
174.059
168.058
162.068
156.092
150.131
144.187
138.261
132.355
126.469
120.607
114.768
108.955
103.167
97.4069
91.6748
85.9718
80.2986
74.6558
69.0438
63.463
57.9134
53.6794
50.7974
48.0654
45.4709
46.4132
49.2513
51.952
54.5236
56.9741
59.3111
61.5416
63.6726
65.7109
67.6631
69.5357
71.335
73.0664
74.7332
76.3383
77.8846
79.3756
80.8148
82.2059
83.5526
84.8584
86.1294
76.8413
39.6661
29.9284
22.7117
19.4932
18.5821
30.0895
52.4706
81.6483
116.681
156.254
197.626
237.435
272.831
302.141
324.993
341.925
353.843
361.672
366.2
368.106
367.972
366.287
363.443
359.74
355.402
350.594
345.433
340.007
334.38
328.598
322.696
316.7
310.629
304.498
298.32
292.103
285.854
279.579
273.283
266.969
260.64
254.3
247.952
241.596
235.237
228.874
222.512
216.15
209.792
203.439
197.093
190.756
184.43
178.115
171.814
165.53
159.262
153.013
146.785
140.579
134.397
128.239
122.108
116.005
109.93
103.886
97.8727
91.8919
85.9445
80.0312
74.153
68.3102
62.5035
58.1259
55.2106
52.4491
49.8291
49.7736
52.6637
55.4137
58.0323
60.5277
62.9075
65.1791
67.3496
69.4259
71.4146
73.3225
75.1557
76.92
78.6192
80.2563
81.8344
83.3571
84.8283
86.2522
87.633
88.9747
90.2827
78.5262
40.0929
32.6663
25.3875
21.0398
19.5165
19.4078
28.1496
44.9026
69.4737
99.4985
134.737
173.581
213.368
251.171
284.607
312.317
334.013
350.191
361.657
369.243
373.649
375.478
375.258
373.447
370.424
366.491
361.877
356.756
351.257
345.473
339.473
333.311
327.024
320.64
314.183
307.668
301.109
294.515
287.894
281.253
274.596
267.928
261.252
254.57
247.886
241.202
234.52
227.841
221.169
214.504
207.848
201.203
194.571
187.954
181.353
174.769
168.205
161.662
155.142
148.646
142.175
135.732
129.318
122.933
116.58
110.26
103.974
97.7237
91.5096
85.3332
79.1954
73.0971
67.0392
62.5202
59.57
56.7768
54.1288
52.9445
55.8825
58.6777
61.3389
63.8746
66.2927
68.6007
70.8061
72.9158
74.9367
76.8754
78.7383
80.5313
82.2589
83.9241
85.5303
87.0811
88.5806
90.0334
91.444
92.8169
94.1571
95.4687
96.7539
98.0135
99.2482
80.1567
39.9996
34.5439
28.0365
23.0743
20.9474
20.3345
20.6972
26.0435
37.499
57.8214
82.8196
112.972
147.714
185.373
223.522
259.603
291.531
318.104
339.032
354.749
365.983
373.498
377.922
379.793
379.598
377.765
374.663
370.592
365.79
360.44
354.678
348.607
342.304
335.824
329.212
322.499
315.709
308.862
301.971
295.048
288.1
281.136
274.16
267.178
260.191
253.205
246.221
239.243
232.271
225.308
218.356
211.417
204.493
197.585
190.694
183.824
176.974
170.148
163.346
156.569
149.821
143.102
136.413
129.757
123.135
116.547
109.997
103.484
97.0107
90.5783
84.1877
77.8404
71.5371
66.8794
63.8936
61.0675
58.3893
56.2215
58.921
61.7571
64.4565
67.0278
69.4792
71.8187
74.0538
76.1919
78.24
80.2049
82.093
83.9103
85.6617
87.3508
88.9806
90.555
92.0781
93.5544
94.9887
96.3854
97.749
99.0837
100.392
101.677
102.939
81.7953
39.6619
35.8364
30.7812
25.6052
22.6238
21.865
21.8203
22.4648
24.5161
33.5386
47.9615
68.4243
93.3544
123.005
156.721
192.915
229.414
263.946
294.622
320.307
340.671
356.086
367.221
374.763
379.284
381.277
381.19
379.423
376.329
372.209
367.304
361.804
355.856
349.569
343.027
336.294
329.415
322.428
315.359
308.229
301.053
293.845
286.614
279.368
272.113
264.853
257.593
250.336
243.086
235.844
228.614
221.397
214.195
207.01
199.845
192.699
185.577
178.478
171.406
164.361
157.345
150.36
143.407
136.488
129.605
122.759
115.952
109.186
102.461
95.78
89.1437
82.5537
76.0112
71.2178
68.1967
65.3372
62.6281
60.0583
61.791
64.6639
67.397
69.9992
72.4789
74.8444
77.1038
79.2649
81.335
83.3211
85.2297
87.0665
88.837
90.5447
92.1928
93.7849
95.3253
96.8185
98.2691
99.6817
101.061
102.41
103.734
105.035
106.316
83.4418
39.1637
36.7842
33.0877
28.5772
24.8804
23.3073
23.1435
23.4879
24.33
25.6954
30.9461
40.191
56.6927
76.9772
101.405
130.118
162.483
197.07
231.936
265.028
294.587
319.505
339.429
354.647
365.752
373.369
378.035
380.203
380.284
378.652
375.643
371.55
366.618
361.042
354.977
348.54
341.823
334.893
327.803
320.593
313.293
305.925
298.509
291.057
283.582
276.091
268.591
261.089
253.588
246.092
238.606
231.131
223.67
216.226
208.801
201.396
194.015
186.658
179.327
172.025
164.753
157.513
150.306
143.135
136.001
128.906
121.852
114.839
107.871
100.949
94.074
87.2481
80.4728
75.5475
72.4921
69.5999
66.8599
64.2613
64.503
67.4092
70.172
72.8004
75.3033
77.6892
79.9669
82.1448
84.2314
86.2337
88.158
90.0095
91.7933
93.5135
95.1733
96.7759
98.3257
99.8272
101.285
102.705
104.09
105.446
106.776
108.085
109.376
110.651
85.1015
38.5495
37.4346
35.1977
31.8486
28.0569
24.8376
23.623
23.8126
24.3973
25.3653
26.721
28.4864
36.0705
46.8088
63.5238
83.4342
107.113
134.687
165.597
198.569
231.855
263.571
292.08
316.304
335.851
350.912
362.005
369.708
374.534
376.901
377.188
375.737
372.866
368.86
363.961
358.371
352.248
345.718
338.878
331.803
324.549
317.16
309.671
302.107
294.487
286.828
279.143
271.44
263.728
256.013
248.3
240.594
232.899
225.217
217.552
209.906
202.282
194.682
187.108
179.563
172.047
164.564
157.115
149.702
142.328
134.993
127.7
120.451
113.248
106.092
98.9862
91.9315
84.93
79.8772
76.7895
73.8661
71.0964
68.4698
67.0659
70.0025
72.7917
75.4427
77.9643
80.3656
82.6559
84.8449
86.9422
88.9556
90.8906
92.7517
94.5434
96.2697
97.9336
99.5389
101.09
102.591
104.047
105.464
106.847
108.2
109.529
110.836
112.128
113.406
114.674
115.934
86.7643
37.7542
37.5652
36.7479
34.5938
31.9357
28.7895
25.1172
23.2725
23.6218
24.3006
25.2965
26.6028
28.2315
31.6697
39.7373
52.0109
68.5725
88.0165
110.875
137.278
166.745
198.146
229.902
260.287
287.78
311.332
330.499
345.382
356.434
364.198
369.169
371.73
372.227
370.976
368.273
364.39
359.568
354.007
347.872
341.293
334.375
327.195
319.817
312.288
304.646
296.919
289.129
281.294
273.428
265.542
257.646
249.745
241.846
233.955
226.075
218.211
210.365
202.54
194.74
186.966
179.222
171.51
163.831
156.189
148.585
141.021
133.5
126.023
118.594
111.214
103.885
96.6087
89.3882
84.2127
81.0954
78.1432
75.3458
72.6929
70.2901
72.4513
75.2651
77.9368
80.4752
82.8895
85.1891
87.3851
89.4871
91.5028
93.4383
95.2988
97.0891
98.8133
100.474
102.073
103.617
105.109
106.554
107.959
109.329
110.669
111.986
113.283
114.565
115.836
117.1
118.359
119.615
88.4496
36.796
37.1108
37.4328
36.3225
34.6925
32.6099
30.0358
26.9166
23.9507
22.958
23.6088
24.5334
25.7309
27.2201
29.0332
34.1802
42.3893
55.9505
72.3043
91.2513
113.28
138.535
166.603
196.481
226.745
255.823
282.297
305.146
323.879
338.52
349.469
357.241
362.312
365.032
365.714
364.652
362.12
358.377
353.654
348.153
342.038
335.445
328.481
321.23
313.76
306.122
298.356
290.495
282.562
274.578
266.558
258.514
250.457
242.394
234.333
226.278
218.236
210.21
202.205
194.223
186.267
178.341
170.447
162.589
154.768
146.987
139.249
131.555
123.909
116.314
108.77
101.281
93.8493
88.5564
85.4126
82.4344
79.6117
76.9347
74.3936
74.7581
77.5954
80.2869
82.8413
85.2678
87.5759
89.7764
91.8778
93.8868
95.8099
97.6538
99.4255
101.131
102.775
104.36
105.888
107.364
108.79
110.175
111.523
112.842
114.138
115.415
116.68
117.936
119.187
120.436
121.686
122.939
124.197
90.1904
35.7807
36.2439
37.2979
36.9079
36.0346
34.7795
33.1241
31.0325
28.4537
25.3188
23.1368
22.9872
23.764
24.8002
26.1182
27.7421
29.6972
36.2894
44.9601
59.1748
75.2589
93.6769
114.878
139.012
165.722
194.115
222.914
250.683
276.101
298.18
316.389
330.699
341.467
349.178
354.279
357.097
357.921
357.019
354.643
351.036
346.421
340.993
334.918
328.333
321.347
314.051
306.513
298.791
290.926
282.954
274.902
266.791
258.639
250.459
242.262
234.058
225.855
217.658
209.473
201.306
193.161
185.04
176.949
168.891
160.867
152.883
144.94
137.041
129.19
121.388
113.64
105.947
98.3119
92.9075
89.7408
86.7396
83.8942
81.1951
78.633
77.1002
79.7782
82.4872
85.0549
87.4902
89.8029
92.0032
94.0991
96.097
98.0033
99.8244
101.567
103.239
104.847
106.397
107.894
109.341
110.74
112.097
113.416
114.705
115.972
117.221
118.46
119.693
120.924
122.156
123.393
124.637
125.889
127.15
128.42
129.701
130.993
92.0186
34.8472
35.2861
36.7129
36.6993
36.2406
35.4785
34.4191
33.0439
31.3176
29.1882
26.583
23.9301
22.9603
23.5446
24.3749
25.4747
26.8661
28.5689
31.0111
38.3894
48.0485
62.1088
77.8595
95.7162
116.09
139.125
164.508
191.445
218.785
245.224
269.522
290.733
308.312
322.201
332.706
340.275
345.327
348.177
349.087
348.301
346.05
342.561
338.046
332.692
326.664
320.099
313.108
305.783
298.198
290.41
282.466
274.404
266.252
258.034
249.768
241.471
233.154
224.827
216.5
208.179
199.87
191.58
183.313
175.074
166.866
158.694
150.561
142.47
134.426
126.43
118.487
110.6
102.771
97.2617
94.0761
91.0553
88.1899
85.471
82.8897
80.4371
81.8064
84.5305
87.1084
89.5479
91.8592
94.0526
96.1367
98.118
100.003
101.797
103.508
105.142
106.706
108.209
109.656
111.056
112.413
113.73
115.01
116.261
117.489
118.702
119.907
121.108
122.311
123.52
124.737
125.965
127.205
128.459
129.726
131.007
132.302
93.9487
34.0777
34.5089
36.1102
36.2316
35.8993
35.3085
34.5026
33.4875
32.2469
30.7475
28.9387
26.7479
24.6203
23.8389
24.2113
24.8047
25.6466
26.7611
28.1689
29.8858
33.3769
40.7137
51.2256
65.0539
80.4155
97.6816
117.224
139.175
163.254
188.753
214.633
239.703
262.803
283.04
299.884
313.247
323.39
330.725
335.65
338.461
339.396
338.675
336.51
333.111
328.677
323.39
317.409
310.868
303.88
296.539
288.919
281.081
273.074
264.937
256.702
248.393
240.031
231.633
223.212
214.78
206.346
197.918
189.503
181.108
172.737
164.397
156.092
147.826
139.602
131.426
123.301
115.231
107.218
101.611
98.4111
95.3744
92.4923
89.7563
87.1578
84.6887
83.6706
86.4068
88.9914
91.4308
93.7358
95.9175
97.9846
99.9436
101.801
103.563
105.237
106.829
108.346
109.797
111.189
112.531
113.83
115.092
116.321
117.521
118.701
119.868
121.029
122.19
123.357
124.534
125.724
126.929
128.152
129.392
130.651
131.928
133.223
95.985
33.4884
33.9975
35.7141
35.8594
35.4911
34.8597
34.0532
33.1067
32.0255
30.7963
29.391
27.765
26.3064
25.701
25.7188
25.887
26.2376
26.8025
27.6109
28.6881
30.0539
31.7218
36.1399
43.3614
54.6522
68.1879
83.1174
99.7707
118.479
139.358
162.153
186.225
210.63
234.279
256.104
275.269
291.266
303.988
313.663
320.675
325.397
328.099
328.997
328.287
326.164
322.821
318.445
313.209
307.266
300.748
293.767
286.415
278.77
270.893
262.835
254.638
246.333
237.948
229.505
221.021
212.512
203.989
195.464
186.946
178.441
169.958
161.503
153.081
144.697
136.356
128.064
119.823
111.64
105.944
102.735
99.6868
96.792
94.0421
91.4294
88.946
86.6249
88.1049
90.6927
93.1283
95.4227
97.5885
99.6342
101.566
103.391
105.116
106.747
108.292
109.758
111.153
112.484
113.763
114.996
116.193
117.358
118.498
119.618
120.728
121.836
122.947
124.069
125.206
126.362
127.538
128.737
129.96
131.205
132.473
133.764
98.1318
33.0963
33.783
35.611
35.748
35.2855
34.5228
33.5881
32.5427
31.411
30.2371
29.5223
29.2568
29.0023
28.7731
28.5894
28.4779
28.4701
28.5986
28.897
29.3985
30.1338
31.1291
32.404
33.9709
39.2573
46.308
58.3631
71.5659
86.0377
102.067
119.944
139.766
161.291
183.94
206.853
229.039
249.521
267.521
282.559
294.526
303.632
310.235
314.68
317.206
318.007
317.256
315.129
311.805
307.459
302.254
296.337
289.835
282.859
275.5
267.835
259.927
251.828
243.58
235.217
226.768
218.256
209.701
201.118
192.52
183.92
175.328
166.752
158.199
149.677
141.192
132.75
124.357
116.017
110.243
107.031
103.978
101.076
98.3163
95.6929
93.1981
90.8249
89.8015
92.1991
94.6276
96.9077
99.0534
101.074
102.975
104.763
106.446
108.03
109.523
110.932
112.265
113.532
114.741
115.904
117.028
118.122
119.191
120.243
121.286
122.33
123.384
124.453
125.542
126.657
127.798
128.968
130.167
131.395
132.651
133.935
135.244
100.387
32.9018
33.8796
35.84
35.9713
35.4091
34.499
33.763
33.5122
33.4337
33.3144
33.1586
32.9706
32.7558
32.5219
32.2798
32.0457
31.8425
31.6983
31.6438
31.7113
31.9343
32.3468
32.9808
33.8631
35.0135
36.4441
42.599
50.4618
62.2977
75.1476
89.1518
104.559
121.616
140.397
160.671
181.905
203.32
224.013
243.091
259.839
273.814
284.921
293.368
299.486
303.589
305.879
306.526
305.681
303.504
300.16
295.813
290.617
284.71
278.215
271.239
263.871
256.188
248.254
240.12
231.83
223.419
214.917
206.349
197.735
189.092
180.436
171.778
163.129
154.499
145.896
137.327
128.802
120.324
114.485
111.28
108.229
105.325
102.562
99.932
97.4295
95.0479
92.781
93.4932
95.9121
98.1744
100.296
102.287
104.153
105.901
107.537
109.07
110.506
111.854
113.121
114.317
115.452
116.538
117.584
118.6
119.594
120.571
121.54
122.513
123.5
124.509
125.545
126.611
127.712
128.848
130.02
131.227
132.469
133.743
135.049
102.748
32.9117
34.2985
36.4207
36.56
36.3356
36.4463
36.6754
36.8143
36.8862
36.9011
36.8641
36.7779
36.6451
36.4692
36.255
36.0102
35.7466
35.4815
35.2383
35.0443
34.9281
34.9208
35.0555
35.3663
35.8854
36.6402
37.6502
39.9743
45.9973
54.7811
66.34
78.8323
92.3725
107.168
123.425
141.19
160.238
180.079
199.999
219.179
236.803
252.224
265.046
275.206
282.917
288.489
292.197
294.197
294.634
293.643
291.371
287.971
283.593
278.381
272.466
265.965
258.98
251.599
243.898
235.938
227.774
219.448
210.997
202.454
193.842
185.184
176.498
167.799
159.1
150.413
141.75
133.118
124.527
118.641
115.454
112.414
109.516
106.755
104.125
101.619
99.2325
96.9606
95.4785
96.9604
99.202
101.296
103.254
105.081
106.785
108.372
109.849
111.225
112.507
113.703
114.824
115.881
116.884
117.846
118.778
119.691
120.592
121.486
122.384
123.299
124.242
125.217
126.231
127.286
128.384
129.526
130.709
131.934
133.198
134.498
105.212
33.1281
35.0394
37.3504
38.1367
38.8773
39.4401
39.8194
40.0857
40.2706
40.389
40.4475
40.4496
40.3971
40.2913
40.134
39.9282
39.6789
39.3938
39.0854
38.7716
38.4753
38.2216
38.0372
37.9513
37.9962
38.205
38.6095
39.2366
40.1059
43.4496
49.2908
59.0775
70.3612
82.5025
95.5904
109.794
125.275
142.055
159.91
178.384
196.822
214.477
230.608
244.643
256.241
265.39
272.317
277.303
280.56
282.221
282.399
281.217
278.809
275.315
270.875
265.621
259.677
253.153
246.147
238.746
231.023
223.039
214.848
206.494
198.012
189.44
180.799
172.112
163.397
154.673
145.954
137.253
128.58
122.669
119.513
116.497
113.616
110.866
108.241
105.738
103.352
101.079
98.9152
98.1683
99.9654
102.029
103.951
105.737
107.393
108.927
110.345
111.657
112.87
113.993
115.036
116.011
116.929
117.804
118.65
119.477
120.295
121.112
121.933
122.772
123.643
124.553
125.509
126.513
127.569
128.676
129.834
131.04
132.292
133.587
134.922
107.775
33.551
36.1036
39.0711
40.6303
41.721
42.4128
42.8875
43.232
43.4863
43.6688
43.7887
43.8501
43.855
43.8043
43.6984
43.5383
43.3256
43.0634
42.7569
42.4143
42.0488
41.6782
41.3241
41.0095
40.7588
40.5994
40.5619
40.678
40.978
41.4877
42.2261
46.6833
53.0146
63.2311
74.2482
86.0495
98.6994
112.33
127.062
142.89
159.588
176.725
193.696
209.819
224.426
237.025
247.354
255.465
261.589
265.965
268.737
270.012
269.887
268.471
265.886
262.262
257.725
252.401
246.403
239.838
232.799
225.368
217.619
209.612
201.4
193.03
184.53
175.937
167.279
158.58
149.86
141.135
132.421
126.514
123.409
120.432
117.581
114.853
112.245
109.752
107.372
105.102
102.94
100.888
100.616
102.467
104.351
106.092
107.698
109.176
110.533
111.778
112.919
113.968
114.932
115.825
116.659
117.447
118.204
118.942
119.672
120.404
121.144
121.904
122.698
123.538
124.433
125.384
126.396
127.469
128.6
129.789
131.031
132.323
133.66
110.432
34.1718
37.5213
41.1705
43.3093
44.5209
45.2782
45.7955
46.173
46.456
46.6658
46.8129
46.9024
46.9367
46.9166
46.8425
46.7146
46.5331
46.2989
46.0141
45.6821
45.3085
44.9022
44.4767
44.0495
43.6406
43.2704
42.9614
42.7392
42.6321
42.6698
42.8806
43.2884
44.5939
49.5803
57.1286
67.1513
77.9116
89.383
101.608
114.682
128.69
143.597
159.171
175
190.518
205.108
218.173
229.305
238.354
245.434
250.757
254.502
256.765
257.619
257.149
255.458
252.656
248.863
244.196
238.771
232.696
226.071
218.984
211.511
203.727
195.697
187.472
179.094
170.596
162.007
153.358
144.673
135.972
130.106
127.078
124.161
121.358
118.668
116.087
113.616
111.25
108.99
106.836
104.789
102.851
102.78
104.419
106.113
107.667
109.087
110.381
111.559
112.629
113.601
114.487
115.297
116.046
116.746
117.412
118.058
118.698
119.343
120.003
120.685
121.402
122.171
123.002
123.901
124.87
125.908
127.015
128.187
129.421
130.712
132.056
113.175
34.9671
39.4741
43.6379
45.9362
47.1954
47.9622
48.4772
48.849
49.1262
49.3315
49.4762
49.5658
49.6031
49.5893
49.5248
49.4095
49.2435
49.0268
48.7599
48.4443
48.0821
47.6775
47.2365
46.7686
46.2875
45.8098
45.3537
44.9374
44.5815
44.3092
44.147
44.1218
44.2596
44.582
47.2064
52.0832
60.9382
70.7763
81.2874
92.4352
104.242
116.773
130.075
144.087
158.566
173.111
187.188
200.228
211.739
221.414
229.217
235.305
239.857
242.964
244.683
245.077
244.224
242.216
239.158
235.159
230.33
224.78
218.61
211.914
204.78
197.277
189.47
181.423
173.191
164.813
156.324
147.755
139.133
133.359
130.439
127.611
124.88
122.246
119.712
117.275
114.937
112.696
110.556
108.519
106.592
104.762
104.611
105.763
107.264
108.627
109.859
110.969
111.967
112.864
113.671
114.4
115.062
115.674
116.25
116.806
117.358
117.919
118.5
119.111
119.759
120.459
121.228
122.074
123
124.006
125.09
126.248
127.477
128.771
130.125
115.997
35.9123
41.5669
46.0861
48.4499
49.6887
50.4164
50.8907
51.2241
51.4662
51.6401
51.7573
51.8234
51.8415
51.8127
51.7378
51.6165
51.4489
51.2347
50.974
50.667
50.3149
49.9193
49.483
49.0105
48.5083
47.9864
47.4583
46.9395
46.446
45.9943
45.6029
45.2933
45.0893
45.0156
45.0952
45.3477
49.385
55.4016
64.4105
74.0687
84.3324
95.1566
106.546
118.539
131.149
144.284
157.682
170.946
183.579
195.073
205.037
213.306
219.95
225.124
228.917
231.367
232.512
232.408
231.13
228.766
225.416
221.182
216.167
210.473
204.196
197.424
190.234
182.695
174.874
166.828
158.606
150.248
141.791
136.169
133.4
130.695
128.065
125.515
123.048
120.666
118.371
116.163
114.046
112.026
110.112
108.305
106.571
106.06
106.455
107.76
108.931
109.975
110.904
111.727
112.457
113.105
113.685
114.212
114.703
115.175
115.645
116.127
116.635
117.178
117.766
118.406
119.117
119.914
120.8
121.777
122.841
123.991
125.219
126.521
127.889
118.891
36.9807
43.734
48.4582
50.7986
51.9578
52.6064
53.0088
53.2771
53.46
53.5805
53.6496
53.6731
53.6539
53.5931
53.4913
53.3486
53.1647
52.9392
52.6718
52.3626
52.012
51.6207
51.1899
50.7218
50.2196
49.6881
49.1342
48.5681
48.0028
47.4525
46.9313
46.4539
46.0373
45.7011
45.467
45.3568
45.3908
46.8599
51.1256
58.6368
67.5307
77.0072
87.0183
97.5119
108.479
119.933
131.853
144.111
156.429
168.404
179.576
189.529
198.003
204.99
210.607
214.923
217.951
219.711
220.242
219.603
217.867
215.12
211.455
206.967
201.755
195.911
189.52
182.665
175.422
167.858
160.035
152.004
143.813
138.419
135.851
133.314
130.823
128.389
126.018
123.715
121.484
119.327
117.249
115.257
113.362
111.576
109.881
108.235
107.085
106.95
107.565
108.547
109.409
110.162
110.818
111.391
111.894
112.344
112.758
113.155
113.551
113.963
114.406
114.891
115.425
116.018
116.68
117.431
118.283
119.237
120.288
121.435
122.669
123.985
125.375
121.849
38.1514
45.9125
50.6978
52.9332
53.97
54.511
54.8172
54.9986
55.1027
55.1516
55.1561
55.1216
55.0508
54.9446
54.8035
54.6273
54.4157
54.1677
53.8829
53.5613
53.2031
52.8082
52.3774
51.9115
51.4121
50.8816
50.3235
49.7428
49.147
48.5463
47.9531
47.38
46.8395
46.3451
45.9121
45.5586
45.3038
45.167
45.166
48.219
53.3233
61.5244
70.2975
79.5829
89.3278
99.4757
110.007
120.912
132.134
143.501
154.713
165.38
175.082
183.53
190.665
196.556
201.23
204.677
206.906
207.945
207.839
206.647
204.442
201.302
197.316
192.571
187.157
181.157
174.656
167.729
160.446
152.873
145.064
139.983
137.677
135.359
133.053
130.775
128.535
126.342
124.202
122.12
120.102
118.155
116.291
114.526
112.865
111.273
109.713
108.16
107.446
107.163
107.456
108.145
108.735
109.24
109.676
110.058
110.406
110.737
111.071
111.424
111.812
112.248
112.741
113.3
113.93
114.649
115.474
116.412
117.459
118.611
119.859
121.197
122.616
124.862
39.3917
48.0596
52.7574
54.8336
55.723
56.1292
56.3155
56.3896
56.3971
56.3588
56.2848
56.18
56.0463
55.8846
55.6949
55.4764
55.2278
54.948
54.6375
54.2965
53.9241
53.5197
53.0831
52.6144
52.1144
51.5844
51.0263
50.443
49.8384
49.218
48.5896
47.9633
47.3506
46.7627
46.2106
45.7065
45.2648
44.9014
44.6337
44.4783
45.36
49.1733
55.9422
64.0781
72.7161
81.7922
91.2488
101.03
111.106
121.443
131.945
142.396
152.466
161.771
170.028
177.155
183.161
188.027
191.736
194.292
195.715
196.035
195.297
193.558
190.888
187.36
183.056
178.057
172.445
166.301
159.701
152.718
145.415
140.743
138.764
136.724
134.655
132.578
130.51
128.464
126.448
124.47
122.537
120.658
118.845
117.114
115.482
113.94
112.448
110.972
109.49
107.982
107.109
106.669
106.195
106.643
107.022
107.349
107.642
107.921
108.206
108.514
108.862
109.264
109.731
110.27
110.887
111.591
112.404
113.338
114.391
115.557
116.828
118.196
119.652
127.925
40.6339
50.1219
54.6218
56.4855
57.1908
57.4383
57.4887
57.4417
57.3398
57.2028
57.0398
56.8547
56.6494
56.4244
56.1788
55.9113
55.6212
55.3085
54.9725
54.6104
54.2201
53.8008
53.3522
52.8747
52.3687
51.835
51.2748
50.6898
50.0824
49.4556
48.8139
48.163
47.511
46.8676
46.2433
45.6476
45.0906
44.5833
44.139
43.772
43.4974
43.3298
45.9505
50.6867
58.2601
66.3111
74.7897
83.6301
92.7691
102.155
111.755
121.507
131.255
140.722
149.577
157.557
164.554
170.521
175.43
179.269
182.035
183.729
184.372
183.996
182.646
180.378
177.257
173.353
168.742
163.503
157.711
151.441
144.766
140.595
139.011
137.31
135.532
133.706
131.856
129.998
128.144
126.305
124.49
122.71
120.974
119.298
117.703
116.201
114.773
113.38
111.99
110.58
109.128
107.612
106.072
105.473
104.775
104.22
104.474
104.717
104.97
105.251
105.578
105.964
106.422
106.96
107.581
108.292
109.11
110.054
111.124
112.315
113.618
115.023
116.522
131.035
41.9182
52.3606
56.5015
57.8426
58.3496
58.4346
58.3381
58.1573
57.9355
57.6915
57.4335
57.1651
56.8874
56.5993
56.2991
55.9851
55.6556
55.3082
54.9395
54.5473
54.131
53.6903
53.2248
52.734
52.2178
51.6766
51.1111
50.5222
49.9117
49.2814
48.6342
47.9735
47.3039
46.6316
45.9645
45.3118
44.6827
44.0855
43.5291
43.0239
42.5817
42.2154
41.9381
42.7226
46.2059
52.7625
60.2924
68.2277
76.5111
85.078
93.8666
102.84
111.954
121.089
130.017
138.431
146.081
152.847
158.676
163.536
167.41
170.277
172.14
173.01
172.906
171.864
169.928
167.154
163.604
159.347
154.455
149.002
143.059
139.473
138.345
137.041
135.608
134.084
132.498
130.871
129.221
127.56
125.9
124.252
122.627
121.039
119.506
118.046
116.668
115.352
114.058
112.757
111.42
110.025
108.547
106.961
105.245
103.628
102.773
101.814
101.389
101.665
101.992
102.384
102.855
103.411
104.058
104.798
105.643
106.612
107.712
108.935
110.274
111.721
113.266
134.139
43.1631
54.5644
58.883
60.1912
60.4734
60.3191
59.9225
59.363
58.6701
57.9665
57.4662
57.1157
56.765
56.4123
56.0557
55.6921
55.3189
54.9328
54.531
54.1117
53.6733
53.2141
52.7328
52.2286
51.7013
51.1509
50.578
49.9834
49.3682
48.7341
48.0829
47.4171
46.7397
46.0542
45.3657
44.6804
44.0059
43.3507
42.7222
42.128
41.576
41.0758
40.6381
40.2743
39.9957
42.6671
47.5267
54.5938
62.041
69.8179
77.8596
86.1075
94.5256
103.087
111.701
120.144
128.132
135.459
142
147.674
152.434
156.255
159.134
161.074
162.076
162.159
161.345
159.671
157.184
153.939
149.997
145.426
140.294
137.356
136.732
135.872
134.833
133.658
132.381
131.029
129.623
128.179
126.712
125.234
123.758
122.296
120.863
119.475
118.149
116.892
115.683
114.491
113.28
112.02
110.684
109.242
107.67
105.944
104.041
101.934
100.258
99.1585
98.1664
98.591
99.0971
99.6934
100.384
101.169
102.057
103.063
104.197
105.455
106.832
108.319
109.91
137.245
44.3098
56.5963
61.1228
62.6748
63.2256
63.338
63.1948
62.8714
62.4011
61.798
61.0688
60.2172
59.2453
58.1546
56.947
55.6243
54.6899
54.2262
53.7959
53.3522
52.8927
52.415
51.9178
51.3998
50.8606
50.3
49.7185
49.1167
48.4957
47.8567
47.2013
46.5314
45.8492
45.1572
44.4586
43.757
43.0575
42.3662
41.6903
41.0368
40.412
39.8226
39.2759
38.7805
38.3459
37.9822
39.114
42.511
49.1695
56.177
63.4848
71.0334
78.7675
86.6786
94.7666
102.915
110.901
118.503
125.545
131.891
137.423
142.073
145.816
148.649
150.588
151.648
151.841
151.186
149.711
147.456
144.469
140.807
136.529
134.278
134.184
133.803
133.194
132.406
131.477
130.437
129.313
128.124
126.888
125.618
124.328
123.032
121.741
120.471
119.234
118.043
116.902
115.798
114.704
113.584
112.404
111.13
109.731
108.179
106.45
104.519
102.356
99.9331
97.4505
96.2343
95.2361
95.8841
96.6222
97.4518
98.3804
99.4225
100.587
101.876
103.286
104.813
106.448
140.358
45.3539
58.4409
63.2027
65.0236
65.8578
66.2494
66.3809
66.3193
66.0951
65.7226
65.2088
64.5577
63.7716
62.8524
61.8018
60.6222
59.3166
57.8886
56.3422
54.6823
52.914
51.5395
50.8112
50.2812
49.7312
49.1612
48.5714
47.9625
47.3353
46.6912
46.0315
45.3578
44.6719
43.9758
43.2716
42.5619
41.8498
41.1389
40.4341
39.7412
39.0665
38.4157
37.7941
37.2075
36.6626
36.167
35.7288
35.5348
38.5255
43.9912
50.599
57.4719
64.5579
71.8351
79.3095
86.951
94.6374
102.196
109.448
116.23
122.383
127.782
132.343
136.013
138.789
140.692
141.756
142.002
141.451
140.124
138.056
135.289
131.874
130.32
130.761
130.872
130.715
130.339
129.786
129.09
128.28
127.379
126.406
125.378
124.311
123.217
122.109
121.001
119.905
118.831
117.785
116.766
115.767
114.767
113.738
112.642
111.439
110.093
108.574
106.853
104.901
102.688
100.182
97.3527
94.5288
93.1623
92.756
93.6136
94.5703
95.6411
96.8353
98.1564
99.6037
101.173
102.858
104.651
143.465
46.2439
60.0519
65.0848
67.2122
68.3637
69.0607
69.4811
69.6942
69.7302
69.603
69.3194
68.8831
68.2966
67.5619
66.6804
65.6546
64.4883
63.1855
61.7512
60.1909
58.5106
56.7168
54.8162
52.8155
50.7216
48.5567
47.1723
46.5578
45.9257
45.2772
44.6138
43.9368
43.248
42.5489
41.8413
41.127
40.4081
39.6869
38.9663
38.2499
37.5421
36.8482
36.1732
35.5217
34.898
34.3073
33.7548
33.2464
32.7878
34.7153
39.0632
45.3227
51.8196
58.5143
65.3746
72.4117
79.6006
86.8478
94.0147
100.942
107.461
113.42
118.688
123.16
126.771
129.497
131.36
132.403
132.667
132.179
130.963
129.049
126.474
125.598
126.558
127.158
127.456
127.503
127.342
127.01
126.536
125.948
125.265
124.508
123.692
122.833
121.943
121.036
120.124
119.216
118.319
117.435
116.562
115.686
114.791
113.852
112.831
111.691
110.392
108.896
107.17
105.181
102.893
100.272
97.2881
93.9132
91.2767
89.6808
90.5472
91.6575
92.8946
94.2625
95.7611
97.3873
99.1351
100.997
146.56
46.935
61.3876
66.7267
69.1887
70.678
71.7024
72.4342
72.9429
73.2584
73.3948
73.3585
73.153
72.7801
72.2427
71.543
70.682
69.6649
68.4963
67.1817
65.7275
64.1406
62.4286
60.5992
58.6602
56.6193
54.4839
52.2613
49.9581
47.5804
45.1338
43.2741
42.3061
41.6155
40.9146
40.2049
39.4879
38.7651
38.0381
37.3087
36.5789
35.8512
35.129
34.4163
33.7172
33.0356
32.3749
31.7385
31.1297
30.5521
30.0095
30.9296
34.4222
40.3999
46.5878
52.917
59.3689
65.9735
72.7281
79.5656
86.3637
92.9702
99.2286
104.989
110.114
114.493
118.044
120.73
122.56
123.579
123.843
123.397
122.269
120.487
120.25
121.696
122.762
123.504
123.971
124.206
124.244
124.12
123.859
123.485
123.019
122.478
121.877
121.232
120.556
119.859
119.152
118.443
117.734
117.024
116.307
115.568
114.788
113.939
112.984
111.886
110.602
109.095
107.329
105.269
102.878
100.12
96.9635
93.3812
89.3509
87.5683
87.5215
88.8162
90.245
91.8083
93.5035
95.3256
97.2672
149.632
47.3835
62.4122
68.0965
70.9228
72.7758
74.149
75.2123
76.0352
76.648
77.0649
77.2922
77.3331
77.1893
76.8619
76.3554
75.6708
74.812
73.7856
72.5978
71.2558
69.7676
68.1419
66.3873
64.5128
62.5271
60.4387
58.2557
55.9858
53.6361
51.2131
48.7226
46.1694
43.5577
40.8905
38.7935
37.6793
36.9545
36.2241
35.4894
34.7516
34.0121
33.2726
32.5351
31.8025
31.0781
30.365
29.6657
28.9823
28.3167
27.6712
27.0489
27.2068
30.0986
35.8422
41.7424
47.7314
53.8058
60.0083
66.3594
72.8108
79.2504
85.5419
91.5388
97.0928
102.066
106.339
109.822
112.468
114.271
115.271
115.535
115.122
114.071
114.42
116.304
117.803
118.965
119.835
120.455
120.861
121.087
121.159
121.104
120.941
120.689
120.365
119.983
119.557
119.098
118.617
118.12
117.612
117.094
116.559
115.998
115.395
114.725
113.959
113.061
111.99
110.707
109.176
107.359
105.218
102.715
99.8115
96.4734
92.6716
88.3838
85.4339
84.6923
86.1901
87.8259
89.5976
91.5009
93.5291
152.671
47.5494
63.0919
69.1677
72.3891
74.6299
76.3723
77.7857
78.9404
79.8674
80.5807
81.0867
81.3884
81.4875
81.3843
81.0821
80.585
79.8957