/*--------------------------------*- C++ -*----------------------------------*\
  =========                 |
  \\      /  F ield         | OpenFOAM: The Open Source CFD Toolbox
   \\    /   O peration     | Website:  https://openfoam.org
    \\  /    A nd           | Version:  10
     \\/     M anipulation  |
\*---------------------------------------------------------------------------*/
FoamFile
{
    format      ascii;
    class       volScalarField;
    location    "21000";
    object      yPlus;
}
// * * * * * * * * * * * * * * * * * * * * * * * * * * * * * * * * * * * * * //

dimensions      [0 0 0 0 0 0 0];

internalField   uniform 0;

boundaryField
{
    right
    {
        type            cyclic;
    }
    left
    {
        type            cyclic;
    }
    outerWall
    {
        type            calculated;
        value           nonuniform List<scalar> 0();
    }
    stirrerWall
    {
        type            calculated;
        value           nonuniform List<scalar> 
398
(
0.283818
0.245527
0.212515
0.184018
0.157071
0.131109
0.106555
0.0847129
0.0664398
0.0522596
0.0422307
0.0358682
0.0322641
0.0304824
0.0298719
0.0300513
0.0308218
0.0320743
0.0337414
0.0357689
0.038106
0.0406854
0.0434915
0.0465268
0.0497991
0.0533077
0.0570989
0.0610321
0.0650499
0.069164
0.0733354
0.0775376
0.0817351
0.0858853
0.089927
0.0938607
0.0977254
0.101449
0.104948
0.10815
0.110936
0.113163
0.114829
0.115969
0.116591
0.116731
0.115657
0.113585
0.111171
0.109179
0.107378
0.105098
0.102301
0.0990181
0.0955516
0.091868
0.087968
0.0839888
0.0800029
0.0759193
0.0717119
0.067504
0.0633646
0.0593377
0.0554523
0.0517334
0.0482092
0.0449123
0.0418741
0.0391198
0.0366705
0.0345428
0.0327438
0.0312439
0.029908
0.028431
0.0262936
0.0227669
0.0168177
0.004936
0.004936
0.0131911
0.00540311
0.00770134
0.00873225
0.0101683
0.0110388
0.0113331
0.0112369
0.0108551
0.010272
0.00955825
0.00877001
0.00795598
0.00717251
0.00649432
0.00589782
0.00537306
0.00492306
0.00456024
0.00430176
0.00417
0.00418723
0.00437624
0.00473078
0.00519481
0.00570009
0.00620455
0.00668555
0.00716565
0.00766212
0.00821078
0.00885056
0.00963753
0.0105581
0.0116923
0.0130019
0.014594
0.0163969
0.0185136
0.0209012
0.0235908
0.0265973
0.0299287
0.0335921
0.0375864
0.0419067
0.0465454
0.0514953
0.056751
0.0623106
0.0681768
0.0743572
0.0808639
0.0877134
0.0949254
0.102523
0.11053
0.118973
0.127885
0.137302
0.147243
0.157727
0.168799
0.180465
0.192745
0.20564
0.21915
0.233285
0.248053
0.263381
0.279262
0.295624
0.31251
0.330167
0.348179
0.365727
0.382884
0.399436
0.415463
0.430883
0.445826
0.460352
0.47449
0.488286
0.501807
0.515205
0.528574
0.541637
0.554811
0.567899
0.580866
0.593423
0.606048
0.618524
0.63078
0.642666
0.654255
0.665549
0.676602
0.687
0.696345
0.704149
0.713512
0.724398
0.73412
0.742251
0.748919
0.754213
0.758396
0.761502
0.763048
0.763191
0.761935
0.759246
0.75511
0.749536
0.742546
0.734167
0.724431
0.713395
0.701368
0.688176
0.673935
0.658836
0.643059
0.627537
0.613234
0.0117822
0.0243223
0.0152413
0.0112783
0.00963326
0.00913668
0.00933421
0.010138
0.011489
0.0132744
0.0154535
0.0177835
0.019995
0.0218622
0.0232595
0.0242409
0.0248534
0.0251328
0.0251187
0.0248661
0.0244193
0.0238274
0.0231554
0.0224994
0.0219853
0.0217931
0.0222064
0.0239395
0.0285553
0.0364191
0.0472261
0.0594923
0.0722127
0.0844753
0.0960553
0.106993
0.118116
0.128863
0.13938
0.149726
0.159177
0.168996
0.179163
0.190862
0.205541
0.22259
0.24229
0.2674
0.295283
0.327577
0.366328
0.412972
0.466587
0.525878
0.590472
0.66011
0.734809
0.815032
0.901838
0.996149
1.09843
1.2094
1.33175
1.47304
1.65143
1.90286
2.28176
2.84926
3.64675
4.67025
5.86411
7.13796
8.38204
9.48713
10.3507
10.8544
11.0174
10.7056
9.79005
10.0111
9.6703
9.84419
10.0968
10.3949
10.1297
11.6561
11.5795
11.7042
11.6692
11.4066
11.303
10.1368
10.2979
10.4985
10.8883
12.1134
12.1767
12.1567
11.9813
11.5399
11.6535
11.7689
11.8775
11.9712
12.0316
11.9901
11.5199
11.9923
11.4704
11.7305
0.0117822
0.0343431
0.0489294
0.0637177
0.0742975
0.0709933
0.0700608
0.0749836
0.084795
0.0978756
0.112302
0.12908
0.147599
0.16794
0.189978
0.213522
0.238345
0.264201
0.290932
0.318738
0.348841
0.382549
0.417987
0.455325
0.493348
0.531988
0.571146
0.610481
0.648851
0.684667
0.719652
0.75332
0.785219
0.815099
0.84615
0.875338
0.901109
0.923594
0.945349
0.966395
0.987406
1.00962
1.03646
1.07252
1.13082
1.17018
1.16855
1.1688
1.16795
1.16001
1.14858
1.1335
1.1155
1.09612
1.07619
1.05645
1.0393
1.02749
1.01399
0.995217
0.971234
0.941539
0.905971
0.866203
0.830155
0.808081
0.799322
0.799764
0.802275
0.794641
0.766236
0.714589
0.642177
0.571456
0.529987
0.517234
0.495898
0.446885
0.385923
0.330262
)
;
    }
    top
    {
        type            empty;
    }
    bottom
    {
        type            empty;
    }
    procBoundary1to0
    {
        type            processor;
        value           uniform 0;
    }
}


// ************************************************************************* //
