/*--------------------------------*- C++ -*----------------------------------*\
  =========                 |
  \\      /  F ield         | OpenFOAM: The Open Source CFD Toolbox
   \\    /   O peration     | Website:  https://openfoam.org
    \\  /    A nd           | Version:  10
     \\/     M anipulation  |
\*---------------------------------------------------------------------------*/
FoamFile
{
    format      ascii;
    class       volScalarField;
    location    "20000";
    object      k;
}
// * * * * * * * * * * * * * * * * * * * * * * * * * * * * * * * * * * * * * //

dimensions      [0 2 -2 0 0 0 0];

internalField   nonuniform List<scalar> 
17981
(
0.0220713
0.0225885
0.0231197
0.0236606
0.0242076
0.0247591
0.0253146
0.0258733
0.0264335
0.0269935
0.0275516
0.0281067
0.0286576
0.0292032
0.0297428
0.0302757
0.0308014
0.0313195
0.0318298
0.0323321
0.0328263
0.0333124
0.0337906
0.0342608
0.0347228
0.0351754
0.0356182
0.0360512
0.0364748
0.0368889
0.0372939
0.0376899
0.0380771
0.0384558
0.038826
0.0391882
0.0395424
0.0398889
0.0402279
0.0405596
0.0408842
0.0412019
0.0415129
0.0418174
0.0421156
0.0424077
0.0426952
0.0429872
0.0213547
0.0218797
0.0224224
0.0229784
0.0235434
0.0241138
0.0246876
0.0252646
0.0258443
0.0264247
0.0270041
0.0275807
0.0281533
0.0287206
0.0292816
0.0298355
0.0303817
0.0309196
0.031449
0.0319695
0.0324812
0.032984
0.0334779
0.0339631
0.03444
0.0349075
0.0353646
0.0358114
0.0362479
0.0366744
0.0370912
0.0374983
0.037896
0.0382846
0.0386644
0.0390354
0.0393981
0.0397526
0.0400991
0.0404379
0.0407693
0.0410933
0.0414104
0.0417206
0.0420241
0.0423213
0.0426122
0.0429022
0.0206437
0.021173
0.0217234
0.0222908
0.0228706
0.0234584
0.024051
0.0246471
0.0252465
0.0258477
0.0264487
0.0270476
0.0276427
0.0282327
0.0288163
0.0293925
0.0299606
0.0305198
0.0310697
0.03161
0.0321406
0.0326614
0.0331725
0.033674
0.0341662
0.0346491
0.0351216
0.035583
0.0360335
0.0364734
0.0369027
0.0373219
0.0377311
0.0381306
0.0385207
0.0389016
0.0392735
0.0396369
0.0399918
0.0403386
0.0406776
0.0410089
0.0413328
0.0416495
0.0419594
0.0422625
0.0425591
0.0428504
0.0221948
0.0227971
0.0234066
0.0240213
0.0246405
0.0252629
0.025886
0.0265077
0.0271261
0.0277395
0.0283466
0.028946
0.0295369
0.0301185
0.0306901
0.0312514
0.0318021
0.032342
0.0328713
0.0333901
0.0338987
0.0343974
0.0348856
0.0353623
0.0358275
0.0362812
0.0367238
0.0371556
0.0375768
0.0379877
0.0383886
0.0387798
0.0391615
0.0395342
0.0398979
0.0402532
0.0406001
0.040939
0.0412701
0.0415938
0.0419101
0.0422195
0.0425221
0.0428181
0.0215221
0.0221354
0.0227587
0.0233905
0.0240294
0.0246728
0.0253181
0.0259628
0.0266048
0.0272421
0.0278732
0.0284966
0.0291111
0.0297158
0.03031
0.0308931
0.0314647
0.0320248
0.0325731
0.03311
0.0336356
0.0341503
0.0346543
0.0351467
0.0356267
0.0360946
0.0365507
0.0369952
0.0374285
0.0378509
0.0382628
0.0386643
0.039056
0.039438
0.0398107
0.0401744
0.0405294
0.040876
0.0412145
0.0415451
0.0418682
0.0421839
0.0424927
0.0427946
0.0208527
0.0214741
0.0221103
0.0227589
0.0234166
0.0240804
0.0247474
0.0254148
0.0260803
0.0267417
0.0273971
0.0280447
0.0286833
0.0293117
0.029929
0.0305346
0.0311279
0.0317086
0.0322767
0.0328322
0.0333754
0.0339067
0.0344265
0.0349344
0.0354294
0.0359114
0.0363809
0.0368381
0.0372833
0.0377169
0.0381392
0.0385506
0.0389515
0.0393421
0.0397229
0.0400942
0.0404564
0.0408096
0.0411543
0.0414908
0.0418194
0.0421403
0.0424538
0.0427602
0.0208181
0.0214664
0.0221298
0.0228046
0.0234876
0.0241755
0.0248651
0.0255539
0.0262392
0.0269188
0.0275909
0.0282538
0.0289062
0.0295471
0.0301755
0.030791
0.0313931
0.0319817
0.0325568
0.0331186
0.0336675
0.034204
0.034728
0.0352386
0.0357354
0.0362187
0.0366889
0.0371464
0.0375915
0.0380246
0.0384462
0.0388566
0.0392561
0.0396453
0.0400244
0.0403939
0.040754
0.0411052
0.0414477
0.041782
0.0421082
0.0424268
0.0427379
0.0215035
0.0221941
0.0228951
0.023603
0.0243143
0.0250259
0.0257349
0.0264389
0.0271356
0.0278232
0.0285001
0.029165
0.0298171
0.0304554
0.0310796
0.0316894
0.0322847
0.0328658
0.0334329
0.0339867
0.0345274
0.035054
0.035566
0.0360637
0.0365474
0.0370176
0.0374746
0.0379189
0.038351
0.0387712
0.0391799
0.0395777
0.0399649
0.0403419
0.0407091
0.0410669
0.0414156
0.0417557
0.0420874
0.0424111
0.0427271
0.0215859
0.0223038
0.0230308
0.023763
0.024497
0.0252296
0.0259578
0.0266793
0.0273918
0.0280936
0.0287831
0.0294593
0.0301211
0.030768
0.0313996
0.0320158
0.0326167
0.0332027
0.0337743
0.0343322
0.0348754
0.0354031
0.0359155
0.0364132
0.0368964
0.0373657
0.0378215
0.0382643
0.0386946
0.0391128
0.0395194
0.0399148
0.0402995
0.0406739
0.0410385
0.0413935
0.0417395
0.0420767
0.0424056
0.0427265
0.0224595
0.0232119
0.0239678
0.0247235
0.0254759
0.0262222
0.0269599
0.0276868
0.0284013
0.029102
0.0297878
0.0304579
0.0311119
0.0317496
0.0323709
0.0329763
0.0335662
0.0341415
0.0347016
0.0352453
0.0357729
0.0362848
0.0367814
0.0372632
0.0377308
0.0381846
0.0386252
0.039053
0.0394685
0.0398723
0.0402649
0.0406465
0.0410179
0.0413792
0.0417311
0.0420739
0.0424079
0.0427335
0.0249932
0.0257644
0.0265274
0.0272797
0.0280195
0.028745
0.0294552
0.0301489
0.0308258
0.0314853
0.0321275
0.0327527
0.0333613
0.0339541
0.0345312
0.0350913
0.0356343
0.0361606
0.0366709
0.0371654
0.0376449
0.0381099
0.0385609
0.0389984
0.0394231
0.0398354
0.0402358
0.0406249
0.0410032
0.0413711
0.0417291
0.0420776
0.042417
0.0427477
0.0245118
0.0253073
0.0260952
0.0268727
0.0276376
0.0283881
0.0291227
0.0298404
0.0305403
0.031222
0.0318854
0.0325306
0.0331582
0.0337688
0.0343629
0.0349395
0.035498
0.0360389
0.0365628
0.03707
0.0375612
0.0380371
0.0384982
0.0389452
0.0393786
0.039799
0.040207
0.0406031
0.0409878
0.0413616
0.0417251
0.0420786
0.0424227
0.0427581
0.0240303
0.0248496
0.025662
0.0264646
0.0272546
0.0280301
0.0287893
0.029531
0.0302542
0.0309583
0.0316431
0.0323087
0.0329554
0.033584
0.0341954
0.0347887
0.0353629
0.0359184
0.036456
0.0369761
0.0374793
0.0379664
0.038438
0.0388946
0.0393369
0.0397656
0.0401813
0.0405844
0.0409757
0.0413555
0.0417246
0.0420833
0.0424322
0.042775
0.0235479
0.0243903
0.0252268
0.0260541
0.026869
0.0276694
0.0284532
0.029219
0.0299656
0.0306923
0.0313988
0.0320851
0.0327514
0.0333985
0.0340276
0.0346378
0.035228
0.0357986
0.0363501
0.0368833
0.0373988
0.0378972
0.0383792
0.0388456
0.039297
0.039734
0.0401573
0.0405676
0.0409654
0.0413514
0.041726
0.0420899
0.0424462
0.0428001
0.0239283
0.0247884
0.0256399
0.0264796
0.0273047
0.0281131
0.028903
0.0296731
0.0304227
0.0311512
0.0318584
0.0325446
0.0332105
0.0338573
0.0344845
0.035091
0.0356769
0.0362427
0.0367893
0.0373172
0.0378271
0.0383199
0.0387961
0.0392567
0.0397022
0.0401333
0.0405508
0.0409553
0.0413473
0.0417276
0.0420993
0.0424671
0.0428335
0.0234633
0.0243461
0.0252212
0.026085
0.0269345
0.0277672
0.0285811
0.0293748
0.0301472
0.0308977
0.0316261
0.0323324
0.0330174
0.033682
0.0343264
0.0349495
0.0355509
0.0361312
0.0366913
0.0372318
0.0377535
0.0382571
0.0387435
0.0392133
0.0396673
0.0401064
0.0405311
0.0409422
0.0413412
0.0417313
0.0421154
0.0424958
0.0428736
0.0229938
0.0238983
0.0247961
0.0256834
0.0265568
0.0274135
0.0282512
0.0290683
0.0298635
0.030636
0.0313856
0.0321121
0.0328162
0.0334989
0.0341606
0.0348004
0.0354175
0.0360126
0.0365864
0.0371397
0.0376733
0.038188
0.0386845
0.0391638
0.0396266
0.0400736
0.0405062
0.0409266
0.0413375
0.0417404
0.0421369
0.0425282
0.0429155
0.0234433
0.0243631
0.0252732
0.0261699
0.0270501
0.0279113
0.0287515
0.0295693
0.0303637
0.0311344
0.0318811
0.0326043
0.0333051
0.0339842
0.0346408
0.0352737
0.0358835
0.0364712
0.0370374
0.037583
0.0381088
0.0386156
0.0391044
0.0395767
0.0400346
0.04048
0.0409138
0.0413373
0.0417517
0.0421586
0.0425591
0.0429541
0.022981
0.0239214
0.0248533
0.0257725
0.0266755
0.0275596
0.0284225
0.0292626
0.0300787
0.0308703
0.0316371
0.0323794
0.0330982
0.0337947
0.0344679
0.0351166
0.0357413
0.0363428
0.0369219
0.0374794
0.0380164
0.0385343
0.0390357
0.039522
0.0399941
0.0404527
0.0408989
0.0413339
0.0417587
0.0421749
0.0425833
0.0429849
0.0225094
0.0234693
0.0244219
0.0253627
0.0262879
0.0271943
0.0280795
0.0289415
0.0297792
0.0305915
0.0313783
0.0321397
0.0328765
0.0335901
0.0342799
0.0349444
0.035584
0.0361994
0.0367915
0.0373612
0.037911
0.0384436
0.0389601
0.0394609
0.0399468
0.0404183
0.0408765
0.0413223
0.0417569
0.0421816
0.0425972
0.0430046
0.0220271
0.0230051
0.0239773
0.0249388
0.0258853
0.0268135
0.0277206
0.0286043
0.0294632
0.0302962
0.0311029
0.0318834
0.0326383
0.0333689
0.0340752
0.0347557
0.0354103
0.0360398
0.0366452
0.0372291
0.0377945
0.0383427
0.0388741
0.0393893
0.0398886
0.0403727
0.0408424
0.0412987
0.0417426
0.0421752
0.0425974
0.04301
0.0215326
0.0225272
0.0235178
0.024499
0.0254662
0.0264155
0.027344
0.0282491
0.029129
0.0299826
0.0308093
0.0316089
0.0323819
0.0331297
0.0338525
0.0345492
0.0352191
0.035863
0.0364832
0.0370831
0.0376645
0.0382281
0.0387744
0.0393037
0.0398163
0.0403127
0.0407937
0.04126
0.0417128
0.0421529
0.0425812
0.0429985
0.0210244
0.0220341
0.0230418
0.0240417
0.0250287
0.0259986
0.026948
0.0278741
0.028775
0.0296491
0.0304957
0.0313145
0.0321059
0.032871
0.0336107
0.0343238
0.0350092
0.0356683
0.0363045
0.0369207
0.0375181
0.0380972
0.0386583
0.0392015
0.0397271
0.0402356
0.0407276
0.0412037
0.041665
0.0421123
0.0425465
0.0429682
0.0205012
0.0215243
0.0225478
0.0235652
0.0245711
0.025561
0.0265308
0.0274777
0.0283993
0.0292939
0.0301605
0.0309986
0.0318086
0.0325912
0.033348
0.0340777
0.034779
0.0354542
0.036107
0.0367396
0.037353
0.0379475
0.0385232
0.0390802
0.0396188
0.0401391
0.0406418
0.0411276
0.0415972
0.0420514
0.0424912
0.0429171
0.0199619
0.0209967
0.0220344
0.0230681
0.024092
0.025101
0.0260909
0.0270582
0.0280003
0.0289153
0.0298019
0.0306596
0.0314883
0.0322887
0.0330626
0.0338092
0.0345269
0.0352186
0.0358883
0.0365375
0.0371668
0.0377767
0.0383669
0.0389377
0.039489
0.0400212
0.0405346
0.0410298
0.0415075
0.0419685
0.0424137
0.0428437
0.0194057
0.0204502
0.0215004
0.0225491
0.0235899
0.0246172
0.0256263
0.0266136
0.027576
0.0285113
0.029418
0.0302953
0.031143
0.0319616
0.0327526
0.033516
0.0342509
0.03496
0.0356466
0.0363123
0.0369576
0.0375826
0.0381874
0.0387719
0.039336
0.0398799
0.040404
0.0409086
0.0413944
0.0418622
0.0423127
0.0427466
0.0188321
0.019884
0.0209448
0.0220068
0.0230631
0.0241077
0.0251355
0.0261422
0.0271245
0.02808
0.0290068
0.0299038
0.0307706
0.0316077
0.0324162
0.0331967
0.0339491
0.0346758
0.0353796
0.0360618
0.0367231
0.0373634
0.0379828
0.038581
0.039158
0.0397137
0.0402484
0.0407625
0.0412564
0.041731
0.0421869
0.0426248
0.0182404
0.0192971
0.0203664
0.0214399
0.0225102
0.0235708
0.0246163
0.0256418
0.0266437
0.0276191
0.0285659
0.0294828
0.0303691
0.0312249
0.0320512
0.0328494
0.0336197
0.034364
0.035085
0.0357839
0.0364613
0.037117
0.0377511
0.0383632
0.0389532
0.0395209
0.0400665
0.0405901
0.0410924
0.0415739
0.0420353
0.0424774
0.0176298
0.0186885
0.0197636
0.0208464
0.0219291
0.0230044
0.0240665
0.0251102
0.0261313
0.0271265
0.0280933
0.0290302
0.0299361
0.0308111
0.0316557
0.0324719
0.0332604
0.0340226
0.0347609
0.0354766
0.0361702
0.0368416
0.0374906
0.0381169
0.0387202
0.0393002
0.0398569
0.0403905
0.0409013
0.04139
0.0418572
0.0423036
0.0180566
0.0191349
0.0202248
0.0213178
0.0224064
0.023484
0.0245451
0.0255848
0.0265996
0.0275866
0.0285437
0.0294698
0.0303645
0.0312282
0.0320625
0.032869
0.0336494
0.0344053
0.035138
0.035848
0.0365354
0.0371997
0.0378406
0.0384576
0.0390503
0.0396187
0.0401626
0.0406824
0.0411787
0.041652
0.0421032
0.0174015
0.0184797
0.0195737
0.0206748
0.0217748
0.0228667
0.0239441
0.025002
0.0260362
0.0270433
0.028021
0.0289677
0.0298827
0.0307661
0.0316193
0.0324444
0.0332431
0.0340168
0.0347668
0.0354936
0.0361972
0.0368773
0.0375333
0.0381646
0.0387706
0.0393511
0.039906
0.0404354
0.0409397
0.0414197
0.0418761
0.0167224
0.0177969
0.0188921
0.0199987
0.0211081
0.0222126
0.0233054
0.0243809
0.0254341
0.0264615
0.0274601
0.0284279
0.0293639
0.0302679
0.0311407
0.0319851
0.0328026
0.0335943
0.0343618
0.0351058
0.0358262
0.0365226
0.0371942
0.0378404
0.0384604
0.0390539
0.0396204
0.04016
0.0406732
0.0411604
0.0416227
0.0160199
0.0170867
0.0181795
0.0192887
0.0204051
0.0215205
0.0226275
0.0237197
0.0247917
0.0258394
0.0268592
0.0278487
0.0288065
0.0297319
0.0306255
0.0314899
0.0323267
0.0331369
0.0339224
0.0346839
0.0354216
0.0361348
0.0368228
0.0374847
0.0381196
0.0387268
0.0393058
0.0398565
0.0403793
0.0408746
0.0413434
0.0185444
0.0196655
0.0207897
0.0219093
0.0230173
0.0241077
0.0251755
0.0262169
0.0272288
0.0282094
0.0291574
0.0300731
0.0309579
0.0318141
0.0326436
0.0334477
0.0342275
0.034983
0.0357138
0.036419
0.0370975
0.0377481
0.03837
0.0389625
0.0395253
0.0400586
0.0405629
0.0410391
0.0177692
0.018891
0.0200211
0.0211511
0.0222733
0.023381
0.0244687
0.0255317
0.0265666
0.0275706
0.0285423
0.0294812
0.0303882
0.0312655
0.032115
0.0329382
0.0337366
0.0345106
0.0352598
0.0359829
0.0366789
0.0373464
0.0379841
0.0385912
0.0391672
0.039712
0.0402263
0.0407109
0.0169636
0.0180822
0.0192149
0.0203527
0.0214872
0.022611
0.0237179
0.0248026
0.0258607
0.0268891
0.0278855
0.0288491
0.0297798
0.0306799
0.0315506
0.0323937
0.0332115
0.0340047
0.0347729
0.0355149
0.0362294
0.0369148
0.0375695
0.0381924
0.0387828
0.0393405
0.0398659
0.0403598
0.0161303
0.017241
0.0183723
0.0195147
0.0206591
0.0217974
0.0229226
0.0240285
0.0251102
0.0261637
0.0271861
0.0281757
0.029132
0.0300564
0.0309499
0.0318143
0.0326524
0.0334655
0.0342535
0.0350154
0.0357495
0.036454
0.037127
0.0377671
0.0383732
0.0389449
0.0394825
0.0399869
0.015273
0.0163704
0.0174957
0.0186387
0.0197899
0.0209404
0.0220824
0.023209
0.0243142
0.0253934
0.0264427
0.0274599
0.0284435
0.0293943
0.0303127
0.0312001
0.0320596
0.0328936
0.0337024
0.034485
0.0352397
0.0359646
0.0366573
0.0373158
0.0379389
0.0385259
0.0390771
0.0395933
0.0143966
0.0154746
0.0165882
0.0177271
0.0188811
0.0200409
0.0211977
0.0223436
0.023472
0.0245771
0.0256543
0.0267003
0.0277131
0.0286921
0.0296384
0.0305516
0.0314341
0.0322899
0.0331202
0.0339245
0.034701
0.0354474
0.0361609
0.0368393
0.0374809
0.0380848
0.0386509
0.0391803
0.0135071
0.0145587
0.0156542
0.0167833
0.0179354
0.0191005
0.0202692
0.0214327
0.0225833
0.0237142
0.0248199
0.0258962
0.0269398
0.0279494
0.0289258
0.0298675
0.0307753
0.0316546
0.0325076
0.0333346
0.0341339
0.034903
0.0356388
0.0363386
0.0370002
0.0376226
0.0382053
0.0387492
0.0126116
0.0136293
0.0146994
0.0158119
0.0169563
0.0181219
0.0192987
0.0204771
0.0216482
0.0228044
0.0239388
0.0250462
0.0261224
0.0271649
0.028173
0.0291466
0.030084
0.0309887
0.0318657
0.0327163
0.0335395
0.0343324
0.0350918
0.0358145
0.0364979
0.0371403
0.0377412
0.0383013
0.0117186
0.0126941
0.0137307
0.0148189
0.0159486
0.0171088
0.0182888
0.0194783
0.0206675
0.0218475
0.0230105
0.0241496
0.0252598
0.026337
0.0273795
0.0283879
0.0293586
0.0302919
0.0311948
0.0320704
0.0329186
0.0337365
0.0345208
0.0352679
0.0359748
0.0366391
0.0372598
0.0378376
0.0108375
0.0117622
0.0127564
0.0138118
0.0149186
0.0160661
0.0172433
0.0184391
0.0196428
0.0208443
0.0220346
0.0232057
0.0243509
0.0254649
0.0265445
0.027589
0.0285965
0.029564
0.0304955
0.0313976
0.0322719
0.033116
0.0339266
0.0346998
0.0354318
0.0361197
0.036762
0.0373592
0.00997831
0.0108437
0.0117863
0.0127993
0.013874
0.0150003
0.0161672
0.017363
0.0185763
0.019796
0.0210117
0.0222139
0.0233946
0.0245469
0.025666
0.0267493
0.0277963
0.0288026
0.0297675
0.0306986
0.0316004
0.0324719
0.0333101
0.0341108
0.0348696
0.0355829
0.0362487
0.036867
0.00915167
0.00994974
0.0108314
0.011792
0.0128244
0.0139197
0.0150671
0.0162552
0.0174718
0.0187048
0.0199426
0.0211743
0.0223902
0.0235817
0.0247424
0.0258676
0.0269565
0.0280055
0.0290093
0.0299728
0.0309044
0.0318048
0.032672
0.0335016
0.0342888
0.0350293
0.0357204
0.0363618
0.00836808
0.00909159
0.0099034
0.0108014
0.0117807
0.012834
0.0139516
0.0151225
0.0163343
0.0175742
0.0188294
0.0200876
0.0213373
0.0225683
0.023772
0.024942
0.0260748
0.0271686
0.0282177
0.0292204
0.0301846
0.0311154
0.0320128
0.0328728
0.0336901
0.0344595
0.0351778
0.0358439
0.00763856
0.00827924
0.00901404
0.00984004
0.0107553
0.0117549
0.012831
0.0139736
0.0151706
0.0164091
0.0176753
0.0189553
0.0202362
0.0215057
0.0227532
0.02397
0.0251501
0.0262921
0.0273903
0.0284378
0.0294395
0.0304037
0.031333
0.0322248
0.0330737
0.0338739
0.0346213
0.0353142
0.00697077
0.00752728
0.0081762
0.00892168
0.00976223
0.010696
0.0117177
0.0128193
0.0139898
0.0152164
0.0164849
0.0177804
0.0190881
0.0203939
0.0216849
0.0229502
0.0241811
0.0253728
0.026522
0.0276213
0.028668
0.0296692
0.0306326
0.0315578
0.0324399
0.0332727
0.0340511
0.0347728
0.00636854
0.00684176
0.00740232
0.00805934
0.00881578
0.00967196
0.0106261
0.0116727
0.012803
0.0140052
0.0152651
0.0165672
0.0178953
0.0192333
0.0205661
0.02188
0.0231636
0.0244088
0.0256126
0.0267676
0.027866
0.0289111
0.0299116
0.030872
0.0317889
0.0326559
0.0334672
0.0342197
0.00583327
0.00622701
0.00670028
0.0072644
0.00792962
0.00869799
0.00957166
0.0105489
0.0116239
0.0127868
0.0140248
0.0153221
0.0166617
0.0180258
0.0193968
0.0207583
0.022096
0.0233985
0.0246592
0.0258725
0.0270295
0.028126
0.0291684
0.0301668
0.0311205
0.0320235
0.0328695
0.0336546
0.0053637
0.00568431
0.00607469
0.00654736
0.00711494
0.0077884
0.00857064
0.00946447
0.0104683
0.0115756
0.0127759
0.0140543
0.0153937
0.0167748
0.018178
0.019584
0.0209755
0.0223372
0.0236584
0.0249336
0.0261535
0.0273094
0.0284021
0.029442
0.0304345
0.0313754
0.0322581
0.033078
0.00495607
0.0052117
0.00552646
0.00591298
0.00638516
0.00695729
0.00763955
0.00843744
0.00935438
0.0103887
0.0115332
0.0127758
0.0141
0.015486
0.0169126
0.0183578
0.0198007
0.0212226
0.0226081
0.0239485
0.0252351
0.0264568
0.0276078
0.028695
0.0297298
0.030711
0.0316326
0.0324895
0.00460465
0.00480431
0.00505241
0.00536072
0.00574307
0.00621492
0.00679242
0.00748496
0.00830119
0.00924509
0.0103148
0.011502
0.0127928
0.0141681
0.0156057
0.0170815
0.0185711
0.0200518
0.0215038
0.0229124
0.0242691
0.0255619
0.0267808
0.027925
0.0290058
0.0300295
0.0309922
0.0318884
0.00445535
0.00464669
0.00488673
0.00518816
0.00556608
0.00603769
0.00662107
0.00732678
0.00816516
0.00914088
0.0102517
0.011488
0.0128333
0.0142658
0.0157598
0.017288
0.0188237
0.020342
0.0218226
0.0232539
0.0246227
0.0259154
0.0271252
0.0282595
0.0293297
0.0303359
0.0312737
0.00415736
0.00430174
0.0044843
0.00471597
0.00501048
0.00538456
0.00585762
0.00644782
0.00716927
0.00803386
0.0090469
0.0102054
0.0114978
0.0129046
0.0144002
0.0159552
0.0175387
0.0191212
0.0206761
0.0221841
0.0236323
0.0250054
0.026291
0.0274886
0.0286098
0.0296623
0.0306438
0.00414425
0.00431799
0.00454128
0.00482907
0.00519989
0.00567567
0.00627469
0.00701542
0.00791143
0.00896845
0.0101824
0.0115389
0.0130145
0.0145793
0.0161991
0.0178394
0.0194674
0.0210559
0.0225887
0.0240477
0.0254164
0.0266871
0.027868
0.0289708
0.0299987
0.00385715
0.00398422
0.00414896
0.00436383
0.00464502
0.00501301
0.00549235
0.00610374
0.00686865
0.00780262
0.00891163
0.0101898
0.0116192
0.0131715
0.0148112
0.016499
0.0181961
0.0198674
0.0214869
0.0230358
0.0244948
0.0258492
0.0270999
0.028259
0.0293373
0.00370365
0.00382214
0.00397815
0.00418503
0.00446054
0.00482776
0.00531208
0.00593918
0.00673375
0.00771329
0.00888362
0.0102362
0.0117481
0.0133848
0.0151043
0.0168614
0.018613
0.0203226
0.0219667
0.023522
0.0249678
0.0262993
0.027525
0.0286581
0.00346576
0.00354895
0.00365904
0.0038066
0.00400594
0.00427656
0.00464428
0.0051364
0.00578391
0.00661518
0.00764972
0.00889245
0.0103309
0.0119356
0.0136643
0.0154671
0.0172928
0.019094
0.0208367
0.0224932
0.0240392
0.0254596
0.0267613
0.0279572
0.0032604
0.00331778
0.00339351
0.00349557
0.00363512
0.00382757
0.00409442
0.00446389
0.00496761
0.00564154
0.0065183
0.00761924
0.0089474
0.0104845
0.0121927
0.0140202
0.0159082
0.0177988
0.0196428
0.0214065
0.0230602
0.0245787
0.0259648
0.0272325
0.00311821
0.00316928
0.00323797
0.00333249
0.00346465
0.0036512
0.0039161
0.00428931
0.00480887
0.00551649
0.0064495
0.00763057
0.00905921
0.0107091
0.0125313
0.0144624
0.0164338
0.0183813
0.0202593
0.0220286
0.0236561
0.0251357
0.0264822
0.00294285
0.00297577
0.00302087
0.00308294
0.00317039
0.00329573
0.00347713
0.00374111
0.00412159
0.00466288
0.00541364
0.00641638
0.00769417
0.00924068
0.0110182
0.0129641
0.0150011
0.0170504
0.0190452
0.020937
0.0226867
0.0242705
0.0257036
0.00280584
0.00283331
0.00287292
0.00292889
0.00300992
0.00312938
0.00330734
0.00357195
0.00396344
0.00453362
0.0053394
0.00642861
0.00782298
0.00950684
0.0114272
0.0135036
0.0156434
0.0177582
0.0197824
0.0216647
0.0233648
0.0248935
0.00265647
0.00266911
0.00269136
0.00272578
0.00277617
0.00285135
0.00296562
0.00314098
0.00340912
0.0038169
0.00442555
0.00530172
0.00649831
0.00803279
0.00987521
0.0119519
0.0141609
0.0163925
0.0185561
0.0205811
0.0224124
0.0240473
0.00252292
0.00252462
0.00253272
0.00255009
0.0025796
0.00262504
0.00269515
0.00280551
0.00297962
0.00325445
0.00368517
0.00434475
0.00531113
0.00664104
0.00834292
0.0103657
0.0126087
0.0149445
0.0172486
0.0194265
0.0214067
0.0231603
0.00239449
0.00239275
0.0023968
0.00240966
0.00243457
0.00247564
0.0025414
0.00264852
0.0028235
0.00310936
0.00357202
0.00429917
0.00538146
0.00687645
0.00877608
0.0109989
0.0134093
0.0158514
0.0181939
0.02034
0.0222265
0.00227415
0.00226577
0.00226092
0.00226136
0.00227006
0.00229071
0.00232789
0.00239
0.00249506
0.00267343
0.002976
0.00348276
0.00429991
0.00553131
0.00722956
0.00935888
0.0117952
0.0143594
0.0168734
0.0191979
0.0212372
0.00216009
0.00214719
0.00213643
0.00212886
0.00212615
0.00213109
0.00214788
0.00218166
0.00224077
0.00234519
0.0025302
0.00285724
0.00342501
0.00436258
0.00578569
0.00773146
0.0101199
0.0127689
0.0154507
0.0179697
0.0201846
0.00203372
0.00201902
0.0020062
0.00199625
0.00199075
0.00199238
0.00200573
0.00203634
0.00209333
0.0021989
0.00239496
0.00275739
0.00341003
0.00450939
0.00617757
0.00841818
0.0110833
0.0139141
0.0166421
0.019058
0.00192289
0.00190551
0.00188922
0.0018746
0.00186257
0.00185464
0.0018534
0.00186364
0.00189145
0.00194732
0.0020563
0.00226955
0.00268324
0.00345505
0.00477219
0.00674984
0.00932851
0.0122585
0.0151969
0.0178416
0.00181223
0.00179317
0.00177463
0.00175701
0.00174085
0.00172704
0.00171702
0.00171333
0.00172081
0.00174633
0.00180221
0.0019177
0.00215711
0.00264587
0.00358672
0.00519631
0.00755566
0.0104948
0.0136214
0.0165115
0.00169931
0.0016793
0.00165946
0.00164002
0.00162133
0.00160391
0.00158862
0.00157684
0.00157105
0.00157615
0.0016
0.00165735
0.00178381
0.00206318
0.00266368
0.0038458
0.00584238
0.00864713
0.0119029
0.0150488
0.00158128
0.00156094
0.00154053
0.00152018
0.00150012
0.00148067
0.00146231
0.00144585
0.00143261
0.00142507
0.00142827
0.00145125
0.00151211
0.00165642
0.00199798
0.00276794
0.00429408
0.00678556
0.0100453
0.0134292
0.00145442
0.00143429
0.00141393
0.00139344
0.00137293
0.00135262
0.00133278
0.00131387
0.00129661
0.0012823
0.00127344
0.00127534
0.00129853
0.001366
0.00153958
0.00198104
0.00301232
0.00502205
0.008093
0.011639
0.00131341
0.00129398
0.00127424
0.00125426
0.0012341
0.0012139
0.00119384
0.00117415
0.00115521
0.00113769
0.00112285
0.00111327
0.00111472
0.00113976
0.00121905
0.00144239
0.00205058
0.00348824
0.00614473
0.00970002
0.00114975
0.00113153
0.00111297
0.00109413
0.00107506
0.00105585
0.00103662
0.00101757
0.000998803
0.000980638
0.000963668
0.000949114
0.000939653
0.000941824
0.000971298
0.0010721
0.0013852
0.00228298
0.00434652
0.00770175
0.000948165
0.000931782
0.000915091
0.000898138
0.000880978
0.000863684
0.000846354
0.000829147
0.00081215
0.000795403
0.000779068
0.000763567
0.000749969
0.000741054
0.000744705
0.000782142
0.000925042
0.00141858
0.0028462
0.00580745
0.000677755
0.000664281
0.000650574
0.000636694
0.000622709
0.0006087
0.000594762
0.000581007
0.00056754
0.000554452
0.000541845
0.000529892
0.000518966
0.000510056
0.000506204
0.000517551
0.000575802
0.000808966
0.0016879
0.00410114
0.000283566
0.000275638
0.000267659
0.000259716
0.000251907
0.000244347
0.000237164
0.000230507
0.000224536
0.000219425
0.000215355
0.00021253
0.000211199
0.000211734
0.000214994
0.000223772
0.000249944
0.000344269
0.000745128
0.00242345
1.38207e-05
1.32732e-05
1.27515e-05
1.22681e-05
1.18363e-05
1.1472e-05
1.11947e-05
1.10289e-05
1.10063e-05
1.11688e-05
1.15731e-05
1.22987e-05
1.34613e-05
1.52458e-05
1.80015e-05
2.22567e-05
2.99716e-05
5.14835e-05
0.000167389
0.0012436
0.0743291
0.0740347
0.0737405
0.0734461
0.0731511
0.0728552
0.0725579
0.0722588
0.0719574
0.0716531
0.0713453
0.0710334
0.0707166
0.0703941
0.0700652
0.0697289
0.0693841
0.0690299
0.068665
0.0682881
0.067898
0.067493
0.0670716
0.066632
0.0661723
0.0656903
0.0651838
0.0646503
0.0640872
0.0634913
0.0628595
0.0621881
0.0614733
0.0607108
0.0598957
0.0590228
0.0580861
0.0570791
0.0559945
0.0548237
0.0535573
0.052184
0.0506912
0.0490637
0.0472831
0.0453263
0.0431635
0.0407553
0.0380462
0.0349534
0.0313441
0.0269833
0.0214103
0.0139597
0.00445242
0.074284
0.0739859
0.0736877
0.073389
0.0730896
0.0727889
0.0724866
0.0721821
0.0718751
0.0715649
0.0712509
0.0709324
0.0706087
0.0702791
0.0699426
0.0695984
0.0692454
0.0688826
0.0685088
0.0681226
0.0677229
0.0673079
0.0668761
0.0664258
0.0659551
0.0654617
0.0649436
0.0643981
0.0638227
0.0632143
0.0625698
0.0618855
0.0611577
0.0603821
0.0595538
0.0586678
0.0577182
0.0566984
0.0556012
0.0544182
0.0531398
0.051755
0.0502509
0.0486125
0.0468211
0.0448532
0.0426785
0.0402561
0.0375281
0.034408
0.0307565
0.0263341
0.0207272
0.0135933
0.00500958
0.0742379
0.0739359
0.0736336
0.0733305
0.0730264
0.0727208
0.0724133
0.0721034
0.0717905
0.0714742
0.0711538
0.0708286
0.0704979
0.0701608
0.0698167
0.0694644
0.069103
0.0687314
0.0683485
0.0679529
0.0675433
0.0671182
0.066676
0.0662149
0.0657329
0.0652281
0.0646982
0.0641407
0.063553
0.062932
0.0622748
0.0615777
0.0608369
0.0600482
0.0592069
0.0583079
0.0573455
0.0563131
0.0552035
0.0540086
0.0527187
0.0513227
0.049808
0.0481594
0.0463583
0.0443809
0.0421966
0.0397638
0.0370244
0.0338915
0.0302303
0.0258225
0.0203432
0.0138516
0.00651022
0.0741905
0.0738845
0.0735778
0.0732702
0.0729613
0.0726506
0.0723377
0.0720222
0.0717034
0.0713808
0.0710538
0.0707217
0.0703837
0.0700392
0.0696871
0.0693266
0.0689566
0.0685762
0.068184
0.0677788
0.0673593
0.0669239
0.066471
0.065999
0.0655058
0.0649894
0.0644477
0.0638781
0.063278
0.0626446
0.0619746
0.0612647
0.060511
0.0597094
0.0588553
0.0579435
0.0569685
0.0559239
0.0548024
0.053596
0.0522952
0.050889
0.0493647
0.0477074
0.0458984
0.0439142
0.0417242
0.0392875
0.0365473
0.0334215
0.0297882
0.0254688
0.0202636
0.0145391
0.00857873
0.0741416
0.0738314
0.0735204
0.0732081
0.0728942
0.0725782
0.0722598
0.0719384
0.0716135
0.0712844
0.0709507
0.0706115
0.0702662
0.0699139
0.0695537
0.0691848
0.0688062
0.0684166
0.0680151
0.0676001
0.0671705
0.0667248
0.0662612
0.0657781
0.0652736
0.0647456
0.064192
0.0636103
0.0629979
0.062352
0.0616694
0.0609468
0.0601804
0.0593661
0.0584993
0.0575752
0.056588
0.0555315
0.0543988
0.0531816
0.0518708
0.0504556
0.0489231
0.0472589
0.0454445
0.0434569
0.0412663
0.0388335
0.0361053
0.0330077
0.0294382
0.0252622
0.0204465
0.0154969
0.0108383
0.0740912
0.0737767
0.073461
0.0731439
0.0728249
0.0725035
0.0721794
0.0718519
0.0715207
0.0711851
0.0708444
0.070498
0.0701451
0.0697849
0.0694165
0.0690391
0.0686515
0.0682528
0.0678417
0.0674169
0.0669771
0.0665208
0.0660465
0.0655523
0.0650364
0.0644968
0.0639313
0.0633375
0.0627129
0.0620546
0.0613595
0.0606244
0.0598454
0.0590187
0.0581397
0.0572035
0.0562047
0.055137
0.0539936
0.0527666
0.0514469
0.0500239
0.0484852
0.0468163
0.0449995
0.0430126
0.0408274
0.0384076
0.0357052
0.0326575
0.0291845
0.0252023
0.0208357
0.0166497
0.0129254
0.0740391
0.0737201
0.0733997
0.0730775
0.0727532
0.0724262
0.0720962
0.0717626
0.0714249
0.0710825
0.0707347
0.0703809
0.0700203
0.069652
0.0692753
0.0688892
0.0684926
0.0680845
0.0676637
0.067229
0.0667789
0.0663121
0.0658268
0.0653215
0.0647942
0.064243
0.0636657
0.0630599
0.0624231
0.0617525
0.0610452
0.0602977
0.0595066
0.0586677
0.0577769
0.0568292
0.0558193
0.0547412
0.053588
0.0523522
0.0510248
0.0495957
0.0480528
0.0463818
0.0445662
0.0425849
0.0404121
0.0380152
0.0353531
0.0323759
0.0290259
0.0252859
0.0214066
0.0178658
0.0147456
0.0739852
0.0736616
0.0733362
0.0730089
0.072679
0.0723463
0.0720103
0.0716703
0.071326
0.0709766
0.0706216
0.0702602
0.0698917
0.0695152
0.06913
0.068735
0.0683293
0.0679117
0.0674812
0.0670364
0.066576
0.0660985
0.0656023
0.0650858
0.0645472
0.0639844
0.0633953
0.0627776
0.0621288
0.0614461
0.0607267
0.0599672
0.0591642
0.0583137
0.0574115
0.0564529
0.0554326
0.0543448
0.0531829
0.0519395
0.050606
0.0491726
0.0476278
0.045958
0.0441477
0.0421776
0.0400248
0.0376611
0.0350536
0.0321648
0.0289605
0.025509
0.0221022
0.0190589
0.0163248
0.0739294
0.0736009
0.0732705
0.0729377
0.0726023
0.0722636
0.0719213
0.0715749
0.0712237
0.0708672
0.0705048
0.0701357
0.0697591
0.0693743
0.0689804
0.0685765
0.0681615
0.0677344
0.067294
0.0668391
0.0663682
0.06588
0.065373
0.0648453
0.0642953
0.063721
0.0631202
0.0624908
0.0618301
0.0611357
0.0604044
0.0596333
0.0588188
0.0579571
0.0570441
0.0560753
0.0550455
0.053949
0.0527795
0.0515299
0.050192
0.0487565
0.0472125
0.0455475
0.0437471
0.0417943
0.0396693
0.0373492
0.0348087
0.0320234
0.0289942
0.0258517
0.0228592
0.0201881
0.0177175
0.0738715
0.073538
0.0732023
0.072864
0.0725227
0.072178
0.0718293
0.0714762
0.071118
0.0707543
0.0703843
0.0700073
0.0696225
0.0692293
0.0688266
0.0684136
0.0679893
0.0675525
0.0671022
0.066637
0.0661557
0.0656569
0.0651389
0.0646001
0.0640389
0.0634531
0.0628408
0.0621998
0.0615275
0.0608215
0.0600788
0.0592964
0.0584709
0.0575986
0.0566755
0.0556972
0.0546588
0.0535548
0.0523791
0.0511249
0.0497846
0.0483493
0.0468092
0.0451529
0.0433674
0.0414382
0.0393489
0.037082
0.0346205
0.031954
0.0291221
0.0262833
0.0236332
0.0212419
0.0189694
0.0738113
0.0734726
0.0731315
0.0727875
0.0724403
0.0720892
0.071734
0.0713741
0.0710088
0.0706376
0.0702599
0.0698749
0.0694818
0.06908
0.0686684
0.0682462
0.0678124
0.0673659
0.0669056
0.0664303
0.0659385
0.065429
0.0649001
0.0643503
0.0637779
0.0631808