/*--------------------------------*- C++ -*----------------------------------*\
  =========                 |
  \\      /  F ield         | OpenFOAM: The Open Source CFD Toolbox
   \\    /   O peration     | Website:  https://openfoam.org
    \\  /    A nd           | Version:  10
     \\/     M anipulation  |
\*---------------------------------------------------------------------------*/
FoamFile
{
    format      ascii;
    class       volVectorField;
    location    "45000";
    object      U;
}
// * * * * * * * * * * * * * * * * * * * * * * * * * * * * * * * * * * * * * //

dimensions      [0 1 -1 0 0 0 0];

internalField   nonuniform List<vector> 
17969
(
(0.120329 1.53375 0)
(-0.0444556 1.58346 0)
(-0.0195974 1.59151 -7.07172e-18)
(-0.0182545 1.60404 8.03494e-18)
(-0.0173538 1.61841 -2.65356e-18)
(-0.0155048 1.63465 -2.1423e-18)
(-0.0125826 1.65373 1.83427e-18)
(-0.00822246 1.67686 0)
(-0.00183446 1.70505 9.97228e-20)
(0.00719915 1.73974 0)
(0.0199579 1.78387 0)
(0.0373128 1.83976 0)
(0.0589131 1.90616 0)
(0.0837576 1.97892 -9.92833e-19)
(0.110364 2.05267 9.08017e-19)
(0.137001 2.12236 0)
(0.162178 2.18442 -6.3372e-19)
(0.185106 2.23721 5.51773e-19)
(0.204634 2.28024 -4.84373e-19)
(0.22105 2.31482 4.4157e-19)
(0.234678 2.34261 0)
(0.245656 2.365 0)
(0.254404 2.38339 -4.35625e-20)
(0.261381 2.39886 0)
(0.266965 2.41224 0)
(0.271471 2.42417 2.73963e-19)
(0.275153 2.43512 -5.07317e-19)
(0.278213 2.44544 2.35018e-19)
(0.280804 2.45536 2.16175e-19)
(0.283039 2.465 -2.63793e-20)
(0.285 2.47447 -2.34058e-19)
(0.286741 2.48381 0)
(0.288299 2.49307 1.62023e-19)
(0.289698 2.50227 -3.4299e-19)
(0.290955 2.51144 1.03972e-21)
(0.29208 2.52059 2.70328e-19)
(0.293081 2.52975 -1.28343e-19)
(0.293962 2.53893 -1.51131e-19)
(0.294727 2.54814 8.68619e-20)
(0.295377 2.5574 0)
(0.295911 2.56672 2.62846e-20)
(0.29633 2.57612 2.51456e-20)
(0.29663 2.58561 1.913e-19)
(0.296812 2.59521 -1.85456e-19)
(0.296872 2.60491 -1.76359e-19)
(0.296807 2.61474 -4.08656e-20)
(0.296615 2.62471 1.65297e-19)
(0.296293 2.63483 1.57488e-19)
(0.295836 2.64512 -1.94211e-21)
(0.295242 2.65557 -1.4865e-19)
(0.294505 2.66621 -1.77511e-19)
(0.293623 2.67705 1.73602e-19)
(0.292589 2.68809 0)
(0.2914 2.69934 0)
(0.29005 2.71083 3.13827e-20)
(0.288535 2.72255 1.80875e-19)
(0.286847 2.73453 -1.18412e-19)
(0.284982 2.74676 0)
(0.282932 2.75926 0)
(0.280692 2.77204 5.20029e-20)
(0.278254 2.7851 -1.04518e-19)
(0.275611 2.79846 0)
(0.272756 2.81213 0)
(0.269682 2.82611 -4.71374e-20)
(0.266379 2.84042 -8.95677e-20)
(0.262842 2.85506 4.67389e-20)
(0.259062 2.87003 8.62829e-20)
(0.255032 2.88536 0)
(0.250744 2.90103 0)
(0.246192 2.91708 0)
(0.241368 2.93349 7.2116e-20)
(0.236268 2.95028 -5.07568e-21)
(0.230884 2.96747 -1.39408e-19)
(0.225212 2.98506 0)
(0.219333 3.0028 6.19368e-20)
(0.213419 3.02023 5.81681e-20)
(0.20756 3.0371 -5.43048e-20)
(0.201776 3.05347 0)
(0.19607 3.06931 0)
(0.190431 3.08458 0)
(0.184884 3.09931 0)
(0.179437 3.11352 0)
(0.174088 3.12725 6.75062e-20)
(0.168838 3.14051 -1.12802e-19)
(0.163686 3.15333 7.65082e-20)
(0.158626 3.16572 -1.36584e-20)
(0.153657 3.1777 0)
(0.148786 3.18931 0)
(0.144035 3.20064 0)
(0.139439 3.21183 -2.35721e-20)
(0.135029 3.22301 3.10449e-20)
(0.130769 3.23412 2.38078e-20)
(0.126595 3.24503 -2.34463e-20)
(0.122493 3.25569 1.71611e-20)
(0.118455 3.26609 -3.30011e-20)
(0.114479 3.27621 1.2291e-20)
(0.110564 3.28604 0)
(0.106711 3.29557 -5.83581e-21)
(0.10292 3.30478 5.72389e-21)
(0.0991903 3.31367 3.03092e-22)
(0.0861296 1.53798 0)
(-0.0830765 1.58743 -2.6883e-17)
(-0.0573799 1.5916 1.70749e-17)
(-0.0574603 1.60011 3.11174e-19)
(-0.0578087 1.61042 1.28824e-17)
(-0.0575331 1.62194 -1.96021e-17)
(-0.0566543 1.63515 8.50104e-18)
(-0.0549996 1.6509 7.79403e-18)
(-0.052339 1.66999 -7.38247e-18)
(-0.0483807 1.69289 -6.93456e-18)
(-0.0425687 1.72003 1.21134e-20)
(-0.0344848 1.75225 5.62795e-18)
(-0.0232931 1.79167 0)
(-0.00803905 1.84062 0)
(0.0112608 1.89885 -4.48795e-18)
(0.0339977 1.9637 4.02087e-18)
(0.0591104 2.03117 0)
(0.0852919 2.0973 -2.93991e-18)
(0.111093 2.15876 2.65382e-18)
(0.135388 2.21332 0)
(0.157462 2.26019 -1.97634e-18)
(0.176566 2.29925 1.65852e-18)
(0.19275 2.33151 5.04085e-20)
(0.20635 2.35822 0)
(0.217465 2.38041 1.3938e-18)
(0.22642 2.39917 -8.8192e-20)
(0.233612 2.41533 -2.42611e-18)
(0.239369 2.42954 1.13253e-18)
(0.24398 2.4423 -6.58187e-20)
(0.247692 2.45404 1.00491e-18)
(0.250704 2.46507 -8.55019e-19)
(0.253179 2.47562 0)
(0.255241 2.48584 6.8639e-19)
(0.256982 2.49585 -5.99479e-19)
(0.258466 2.5057 0)
(0.259738 2.51546 8.06514e-20)
(0.260829 2.52516 -7.57605e-20)
(0.261756 2.53484 -5.3155e-19)
(0.262534 2.54452 1.1086e-18)
(0.26317 2.55422 -6.81908e-20)
(0.26367 2.56396 -5.14988e-19)
(0.264035 2.57376 -5.42986e-19)
(0.264266 2.58364 8.74707e-19)
(0.264362 2.59361 -9.39739e-19)
(0.264322 2.60368 7.98592e-19)
(0.264143 2.61387 -3.3691e-19)
(0.263823 2.6242 3.64757e-19)
(0.263357 2.63467 -7.93115e-19)
(0.262743 2.6453 6.77668e-19)
(0.261975 2.65609 -6.52304e-19)
(0.261049 2.66707 2.76719e-19)
(0.259961 2.67824 -3.77531e-20)
(0.258705 2.68962 0)
(0.257274 2.70121 0)
(0.255664 2.71303 -3.39666e-20)
(0.253868 2.72508 -6.5645e-20)
(0.251879 2.73739 2.52427e-19)
(0.249689 2.74996 -3.72317e-19)
(0.247292 2.76279 -4.71706e-19)
(0.244679 2.77591 6.70868e-20)
(0.241841 2.78932 4.50745e-19)
(0.23877 2.80302 5.34436e-19)
(0.235458 2.81704 -5.26911e-19)
(0.231894 2.83137 5.01903e-20)
(0.228069 2.84603 0)
(0.223974 2.86102 4.77523e-20)
(0.219599 2.87636 3.58081e-19)
(0.214935 2.89204 -3.56949e-19)
(0.209972 2.90808 -1.70237e-19)
(0.204702 2.92449 -1.5611e-19)
(0.199115 2.94126 3.20655e-19)
(0.193204 2.95842 2.27155e-19)
(0.18696 2.97596 2.83432e-19)
(0.180378 2.9939 -2.84199e-19)
(0.173549 3.012 -6.52393e-20)
(0.166676 3.02975 -6.13082e-20)
(0.159861 3.04695 5.72794e-20)
(0.153135 3.06364 1.08127e-19)
(0.146495 3.07978 2.95985e-19)
(0.139927 3.09534 -1.18657e-20)
(0.133461 3.11034 -1.81823e-19)
(0.127103 3.12481 -4.13238e-20)
(0.120854 3.13878 0)
(0.114716 3.15229 1.80068e-20)
(0.108692 3.16535 -1.59879e-20)
(0.102779 3.17799 1.46181e-20)
(0.0969729 3.19023 0)
(0.09127 3.20208 0)
(0.085672 3.21358 -1.64816e-19)
(0.0801948 3.2248 6.51154e-21)
(0.0748696 3.23589 1.39304e-19)
(0.0697274 3.24698 0)
(0.0647569 3.25806 0)
(0.0598929 3.26898 7.5275e-20)
(0.0551084 3.27965 -1.34263e-19)
(0.0504038 3.29005 6.64671e-20)
(0.0457782 3.30015 0)
(0.041232 3.30996 0)
(0.0367662 3.31945 -1.48698e-20)
(0.032382 3.3286 8.39808e-21)
(0.052774 1.54224 4.13525e-17)
(-0.120309 1.592 -5.85592e-17)
(-0.0938159 1.5952 8.28223e-17)
(-0.0945223 1.60119 -2.59233e-17)
(-0.0956084 1.60896 4.90863e-19)
(-0.0962742 1.61758 0)
(-0.0965625 1.62717 2.99226e-19)
(-0.0964537 1.63817 0)
(-0.0957672 1.65121 0)
(-0.0943046 1.66685 4.87447e-19)
(-0.0918836 1.68549 2.25059e-19)
(-0.0882491 1.70745 0)
(-0.0829763 1.73295 0)
(-0.0756471 1.76256 3.38251e-19)
(-0.0656909 1.79767 -5.00654e-18)
(-0.0522971 1.84004 4.23612e-18)
(-0.035102 1.89028 -4.00409e-18)
(-0.0144577 1.94713 3.83568e-18)
(0.00898587 2.00804 -1.05537e-19)
(0.0341893 2.0699 -3.14884e-18)
(0.0599879 2.12991 2.45056e-18)
(0.0851855 2.18577 2.87561e-19)
(0.108822 2.23584 1.2756e-19)
(0.130309 2.27951 0)
(0.148964 2.31667 0)
(0.164863 2.34809 1.58956e-18)
(0.178327 2.3747 -1.22934e-18)
(0.189402 2.39729 -1.6426e-19)
(0.198382 2.41674 -9.9462e-19)
(0.205613 2.43369 1.15421e-18)
(0.211395 2.44869 0)
(0.215999 2.46221 0)
(0.219659 2.47465 1.17579e-19)
(0.222573 2.48631 1.64691e-18)
(0.224904 2.49743 -3.2967e-18)
(0.226779 2.5082 1.45165e-18)
(0.228296 2.51872 9.00415e-20)
(0.229522 2.5291 -1.69737e-19)
(0.230505 2.53938 1.59455e-19)
(0.231278 2.54963 7.46439e-20)
(0.231862 2.55988 0)
(0.23227 2.57015 6.6537e-20)
(0.23251 2.58047 1.26763e-19)
(0.232588 2.59086 -8.35283e-19)
(0.232504 2.60134 9.58538e-21)
(0.23226 2.61193 9.83574e-19)
(0.231853 2.62264 0)
(0.231283 2.63348 -6.28797e-22)
(0.230545 2.64448 -1.90608e-19)
(0.229636 2.65564 0)
(0.228551 2.66698 8.71187e-20)
(0.227285 2.6785 -6.67106e-19)
(0.225834 2.69023 6.50986e-19)
(0.224189 2.70218 0)
(0.222346 2.71435 1.50373e-19)
(0.220296 2.72676 0)
(0.218033 2.73941 -1.39809e-19)
(0.215546 2.75234 -5.33402e-19)
(0.212829 2.76553 5.23788e-19)
(0.20987 2.779 1.25723e-19)
(0.206661 2.79277 0)
(0.203191 2.80685 -5.77635e-19)
(0.19945 2.82123 1.24021e-18)
(0.195426 2.83594 -1.12688e-20)
(0.191107 2.85097 -2.22643e-19)
(0.186483 2.86635 -1.12685e-19)
(0.181542 2.88207 -7.82259e-19)
(0.176271 2.89814 1.24275e-20)
(0.170659 2.91457 7.33268e-19)
(0.164695 2.93137 1.93881e-21)
(0.158368 2.94853 0)
(0.151667 2.96608 4.72157e-19)
(0.144581 2.98401 1.27181e-19)
(0.137104 3.00234 -6.077e-19)
(0.129337 3.02081 0)
(0.121512 3.03892 0)
(0.113745 3.05646 -1.24531e-19)
(0.106078 3.07348 3.34147e-19)
(0.0985024 3.08995 -9.75059e-19)
(0.0910017 3.10583 8.15315e-19)
(0.0836095 3.12113 -4.90525e-19)
(0.0763313 3.13589 -3.00215e-19)
(0.0691682 3.15013 3.42811e-19)
(0.0621246 3.16389 -3.33255e-19)
(0.0552038 3.17721 5.64412e-19)
(0.0484068 3.1901 -2.68898e-19)
(0.0417328 3.2026 2.25453e-19)
(0.0351783 3.21472 -4.26114e-19)
(0.0287386 3.22648 1.83424e-20)
(0.0224129 3.23792 1.74611e-20)
(0.0162111 3.2491 1.75393e-19)
(0.0101561 3.26014 0)
(0.00427581 3.27118 1.00231e-19)
(-0.00142109 3.28225 -1.80167e-19)
(-0.00699455 3.29318 3.24793e-21)
(-0.0124789 3.30385 8.52067e-21)
(-0.0178614 3.31422 5.48216e-21)
(-0.0231418 3.32429 6.47601e-21)
(-0.0283197 3.33404 2.53459e-20)
(-0.0333935 3.34344 8.0521e-22)
(0.0198491 1.54568 -1.32413e-18)
(-0.15622 1.59519 -1.23435e-16)
(-0.129094 1.59862 1.2737e-19)
(-0.129855 1.60322 1.94837e-18)
(-0.131217 1.60953 3.71443e-17)
(-0.132252 1.61654 2.61924e-17)
(-0.133098 1.62414 -3.65202e-19)
(-0.13375 1.63251 -1.86847e-17)
(-0.134125 1.64198 0)
(-0.134078 1.65298 1.66026e-17)
(-0.13347 1.66592 -1.59733e-17)
(-0.132113 1.68119 0)
(-0.129843 1.69913 0)
(-0.126463 1.72 -4.02253e-19)
(-0.121667 1.74392 3.64466e-19)
(-0.115009 1.7712 3.26274e-19)
(-0.1062 1.80255 9.23331e-18)
(-0.0945901 1.83933 -8.89535e-18)
(-0.0795466 1.88271 0)
(-0.0612111 1.93237 2.34789e-19)
(-0.039929 1.98698 7.35681e-18)
(-0.0163508 2.04443 -1.21523e-17)
(0.00857057 2.10232 5.14365e-18)
(0.0337998 2.15843 2.93945e-19)
(0.0582855 2.21087 4.16687e-18)
(0.0812116 2.2582 -3.73556e-18)
(0.102023 2.29988 -3.53662e-18)
(0.120184 2.33589 3.41579e-18)
(0.135786 2.36684 7.18315e-22)
(0.149074 2.39342 -2.62985e-18)
(0.160097 2.41631 2.48542e-18)
(0.169109 2.43623 0)
(0.176408 2.45376 0)
(0.182263 2.46937 -2.05433e-18)
(0.18692 2.48351 2.18657e-18)
(0.190595 2.49655 -1.81297e-18)
(0.193478 2.5088 1.71516e-18)
(0.195724 2.52052 -1.39825e-18)
(0.197461 2.53187 -1.75633e-19)
(0.198788 2.543 1.20045e-20)
(0.199774 2.55398 2.66536e-18)
(0.20047 2.5649 -2.51043e-18)
(0.200912 2.5758 1.04203e-18)
(0.201123 2.58673 0)
(0.201118 2.5977 0)
(0.200908 2.60876 -1.25058e-19)
(0.200499 2.61991 -9.47655e-19)
(0.199893 2.63118 7.9751e-19)
(0.199091 2.64259 -6.43324e-19)
(0.198092 2.65415 1.03659e-18)
(0.196893 2.66588 9.8036e-19)
(0.195492 2.67779 -9.48529e-19)
(0.193883 2.6899 0)
(0.19206 2.70222 -5.13712e-19)
(0.190018 2.71476 6.71924e-19)
(0.187748 2.72754 0)
(0.185242 2.74057 1.53083e-19)
(0.182491 2.75387 1.47287e-19)
(0.179485 2.76744 -2.85996e-19)
(0.176213 2.7813 -1.36546e-19)
(0.172665 2.79545 2.6546e-19)
(0.168828 2.80991 1.00687e-18)
(0.16469 2.82469 -1.2379e-18)
(0.160237 2.83979 9.34092e-19)
(0.155456 2.85523 -1.36786e-18)
(0.150334 2.87102 8.91463e-19)
(0.144856 2.88715 -1.04646e-18)
(0.139008 2.90364 1.03357e-18)
(0.132775 2.92049 -1.95123e-19)
(0.126143 2.93771 -9.28431e-19)
(0.119099 2.9553 7.40026e-19)
(0.111628 2.97327 0)
(0.103719 2.99162 -1.66035e-19)
(0.0953586 3.01037 0)
(0.0866636 3.02925 0)
(0.0778906 3.04775 0)
(0.0691747 3.06566 6.50593e-19)
(0.0605614 3.08303 -5.14736e-19)
(0.0520433 3.09986 -2.37066e-19)
(0.0436025 3.11608 -2.23325e-19)
(0.0352712 3.13171 1.03109e-19)
(0.0270574 3.14679 -9.81142e-20)
(0.0189628 3.16134 -3.49697e-19)
(0.0109921 3.17539 3.48049e-19)
(0.00314931 3.18899 2.98234e-19)
(-0.0045629 3.20216 -2.26058e-20)
(-0.0121432 3.21492 -7.67603e-19)
(-0.0195917 3.22731 4.17362e-20)
(-0.0269107 3.23935 4.42763e-19)
(-0.0341038 3.25107 -4.77028e-20)
(-0.0411726 3.26248 2.15781e-20)
(-0.0481119 3.27367 -2.698e-19)
(-0.0549074 3.28472 2.5934e-19)
(-0.0615328 3.29577 -1.29134e-20)
(-0.0679706 3.30684 1.0257e-20)
(-0.0742715 3.31776 1.14907e-19)
(-0.0804641 3.32839 -2.11043e-19)
(-0.086523 3.3387 9.93218e-20)
(-0.0924508 3.34868 4.58384e-20)
(-0.0982489 3.35831 -6.85972e-20)
(-0.103916 3.36758 2.48192e-20)
(-0.109449 3.37645 -2.13757e-21)
(-0.114847 3.38491 -3.44366e-20)
(-0.120106 3.39294 3.33166e-20)
(-0.0127166 1.54807 8.9351e-17)
(-0.191029 1.59676 0)
(-0.163506 1.60087 1.04178e-16)
(-0.164189 1.60469 9.72262e-19)
(-0.165652 1.61016 -8.70566e-17)
(-0.16685 1.61627 6.07703e-17)
(-0.167949 1.62283 -2.25135e-17)
(-0.168971 1.62987 0)
(-0.169871 1.6375 1.8306e-17)
(-0.170597 1.64592 -3.39328e-17)
(-0.171033 1.65544 1.60716e-17)
(-0.171065 1.66637 -5.06362e-19)
(-0.170567 1.67905 1.56529e-17)
(-0.169356 1.69383 -2.95966e-17)
(-0.16729 1.711 1.32887e-17)
(-0.164193 1.73082 -7.86452e-19)
(-0.159869 1.75338 1.14537e-17)
(-0.153976 1.77874 -9.64128e-18)
(-0.146223 1.80742 0)
(-0.13622 1.84027 8.52648e-18)
(-0.123388 1.87831 -8.96022e-18)
(-0.107432 1.92202 -4.59506e-19)
(-0.0885224 1.97097 0)
(-0.0670215 2.0239 -7.51291e-19)
(-0.0435754 2.07896 0)
(-0.0190601 2.13406 4.47871e-18)
(0.00556977 2.18729 2.47646e-19)
(0.0293844 2.23701 -4.31276e-18)
(0.0516842 2.28203 -2.14297e-19)
(0.0719316 2.32193 0)
(0.0897244 2.35679 0)
(0.105158 2.38714 0)
(0.118395 2.4135 -2.17379e-18)
(0.129486 2.43651 2.35848e-18)
(0.138641 2.45677 -2.76572e-19)
(0.14611 2.47478 2.08561e-18)
(0.152128 2.49098 -1.73462e-18)
(0.156914 2.50578 1.85538e-18)
(0.160663 2.51951 -1.76315e-18)
(0.163552 2.53249 0)
(0.165733 2.54493 1.94457e-18)
(0.167334 2.55703 -1.47734e-18)
(0.168452 2.5689 1.03253e-18)
(0.169164 2.58065 -9.86827e-19)
(0.169524 2.59234 3.09932e-19)
(0.169573 2.60403 -2.93003e-19)
(0.169338 2.61576 0)
(0.168839 2.62756 -1.7601e-21)
(0.16809 2.63947 0)
(0.167097 2.6515 1.64235e-18)
(0.165866 2.66367 -2.0343e-18)
(0.164398 2.67602 2.13461e-19)
(0.162692 2.68855 -1.62354e-18)
(0.160745 2.70128 1.37977e-18)
(0.158553 2.71423 -1.861e-19)
(0.156107 2.72741 0)
(0.153402 2.74084 0)
(0.150427 2.75454 -1.3036e-18)
(0.147172 2.76851 3.38862e-19)
(0.143626 2.78277 1.22556e-18)
(0.139776 2.79733 8.63232e-19)
(0.135609 2.8122 -1.13369e-18)
(0.131111 2.8274 0)
(0.126265 2.84293 0)
(0.121058 2.8588 -2.48163e-19)
(0.115472 2.87502 0)
(0.109491 2.89159 -2.34633e-19)
(0.103096 2.90853 6.52635e-19)
(0.0962721 2.92584 -8.68002e-19)
(0.0890002 2.94352 4.12461e-19)
(0.0812632 2.96157 3.96085e-19)
(0.0730441 2.98 3.80042e-19)
(0.0643268 2.99882 0)
(0.0550965 3.01803 3.25227e-19)
(0.0454794 3.03736 -3.41682e-19)
(0.0357604 3.05628 5.99802e-19)
(0.0260929 3.07458 -3.02798e-19)
(0.016525 3.09232 1.05502e-18)
(0.00705423 3.10953 -6.48635e-20)
(-0.00233838 3.12614 1.80374e-19)
(-0.0116262 3.14214 -9.37738e-19)
(-0.020796 3.15757 7.14294e-19)
(-0.0298455 3.17246 -6.21516e-19)
(-0.0387701 3.18685 0)
(-0.0475652 3.20076 8.62908e-20)
(-0.0562275 3.21423 6.03367e-19)
(-0.0647543 3.22729 -1.20048e-19)
(-0.0731438 3.23997 -4.55783e-20)
(-0.081395 3.2523 -4.90693e-19)
(-0.0895081 3.2643 -1.39729e-21)
(-0.0974842 3.276 2.56869e-19)
(-0.105323 3.28744 -3.39684e-19)
(-0.113023 3.29867 2.56918e-19)
(-0.120576 3.30978 -2.61125e-19)
(-0.127945 3.32088 1.73551e-19)
(-0.135126 3.33194 -1.58038e-19)
(-0.142152 3.34277 0)
(-0.149032 3.35328 0)
(-0.155746 3.36346 5.85194e-20)
(-0.162301 3.37329 -5.03697e-20)
(-0.168699 3.38275 9.96176e-22)
(-0.174938 3.39181 -2.94905e-22)
(-0.181016 3.40044 -3.20601e-20)
(-0.186928 3.40863 3.09581e-20)
(-0.0446792 1.54949 -4.07454e-18)
(-0.22486 1.59699 2.83425e-16)
(-0.197053 1.60189 -2.27455e-16)
(-0.197636 1.60522 7.36993e-17)
(-0.199133 1.61016 0)
(-0.200402 1.61576 0)
(-0.201624 1.62176 -1.57956e-18)
(-0.202833 1.62813 -2.06225e-17)
(-0.204009 1.63489 3.54415e-17)
(-0.205121 1.6421 -1.66134e-17)
(-0.206128 1.64989 0)
(-0.20698 1.65844 5.52316e-23)
(-0.207559 1.66799 -4.89685e-19)
(-0.207768 1.67881 0)
(-0.207497 1.69121 9.43489e-19)
(-0.206565 1.7055 8.99664e-19)
(-0.204835 1.72196 -8.38241e-19)
(-0.202173 1.74084 -7.7313e-19)
(-0.198406 1.76229 0)
(-0.193325 1.78633 0)
(-0.186589 1.8132 5.72085e-19)
(-0.178 1.84336 -3.23572e-22)
(-0.167132 1.87759 4.79581e-19)
(-0.153446 1.91666 -4.7476e-22)
(-0.136865 1.96065 0)
(-0.11757 2.00906 -3.76231e-19)
(-0.0959429 2.06061 -1.01626e-18)
(-0.0726346 2.11358 -3.05168e-19)
(-0.0484685 2.16614 0)
(-0.0243281 2.21663 0)
(-0.00103986 2.26372 -4.41701e-19)
(0.0207917 2.30647 3.99132e-19)
(0.0406381 2.34462 2.16487e-18)
(0.0582022 2.37835 -3.5222e-19)
(0.0735844 2.40807 -3.30935e-19)
(0.0868676 2.43423 -2.67054e-18)
(0.0980942 2.45741 -2.22637e-18)
(0.107434 2.47811 2.65338e-18)
(0.115095 2.49675 -1.99369e-18)
(0.121278 2.51371 1.90179e-18)
(0.126174 2.52933 -4.46687e-19)
(0.12996 2.54394 0)
(0.132805 2.5578 3.58953e-18)
(0.134859 2.57115 -3.04254e-18)
(0.13625 2.58414 -3.57024e-19)
(0.13708 2.59691 3.37616e-19)
(0.13743 2.60955 3.21529e-19)
(0.137362 2.62214 -1.80602e-18)
(0.136921 2.63474 2.31253e-18)
(0.13614 2.64739 0)
(0.135042 2.66014 -5.19099e-19)
(0.133644 2.67301 0)
(0.131955 2.68604 0)
(0.129981 2.69924 -4.46784e-19)
(0.127721 2.71265 0)
(0.125174 2.72628 -4.06509e-19)
(0.122335 2.74015 3.88361e-19)
(0.119196 2.75427 -1.46537e-18)
(0.115747 2.76868 1.78418e-18)
(0.111978 2.78337 1.34173e-18)
(0.107876 2.79837 -1.63909e-18)
(0.103425 2.81368 6.2596e-19)
(0.098611 2.82933 5.80248e-19)
(0.0934163 2.84531 -1.16126e-18)
(0.0878235 2.86164 1.08634e-18)
(0.0818134 2.87833 -1.07192e-18)
(0.0753665 2.89538 5.04631e-19)
(0.0684622 2.9128 9.58634e-19)
(0.0610798 2.9306 -9.50912e-19)
(0.0531978 2.94878 -4.45771e-19)
(0.0447948 2.96734 -8.6016e-19)
(0.0358498 2.98628 3.97219e-19)
(0.0263423 3.00561 1.13182e-18)
(0.0162534 3.02532 -4.09466e-19)
(0.00571921 3.04515 1.03316e-18)
(-0.00494769 3.06453 -1.3787e-18)
(-0.0155733 3.08326 5.00406e-21)
(-0.0261105 3.1014 -8.51882e-19)
(-0.0365484 3.11902 1.43014e-18)
(-0.0469046 3.13605 0)
(-0.0571687 3.15245 0)
(-0.0673191 3.16828 2.31663e-19)
(-0.0773522 3.18355 -1.06129e-18)
(-0.0872639 3.19831 8.42606e-19)
(-0.0970487 3.21258 6.32655e-19)
(-0.106702 3.2264 -5.45564e-19)
(-0.116221 3.2398 5.27288e-19)
(-0.125603 3.25281 -5.29382e-19)
(-0.134842 3.26544 -6.59642e-20)
(-0.143937 3.27775 5.73525e-20)
(-0.152882 3.28974 5.06035e-20)
(-0.161673 3.30145 0)
(-0.170304 3.31292 0)
(-0.178775 3.3242 3.1715e-20)
(-0.187086 3.33537 2.71224e-20)
(-0.195169 3.3465 1.56471e-19)
(-0.203051 3.35746 -2.90057e-20)
(-0.210778 3.36812 -1.33749e-19)
(-0.218307 3.37846 6.40525e-20)
(-0.225651 3.38846 -6.52444e-20)
(-0.232815 3.39809 -1.33148e-20)
(-0.239797 3.40731 1.28566e-20)
(-0.246591 3.4161 -2.81091e-20)
(-0.253193 3.42441 -1.9166e-20)
(-0.0758933 1.55007 -9.01763e-17)
(-0.257744 1.59608 1.48896e-16)
(-0.229675 1.60171 -2.44981e-16)
(-0.230135 1.60465 8.29144e-17)
(-0.231619 1.60923 1.68077e-18)
(-0.232899 1.61451 -3.68735e-17)
(-0.234165 1.62021 5.58699e-17)
(-0.235455 1.62624 -2.20365e-17)
(-0.236756 1.63258 1.92347e-17)
(-0.238055 1.63927 -1.66192e-17)
(-0.239338 1.64633 0)
(-0.240578 1.65382 4.64519e-19)
(-0.241735 1.66186 -1.51801e-17)
(-0.242771 1.67061 1.47816e-17)
(-0.24356 1.68026 -9.23699e-19)
(-0.244042 1.69104 -1.46883e-17)
(-0.244081 1.70324 1.54435e-17)
(-0.243539 1.71715 1.48592e-17)
(-0.24227 1.73305 -3.29851e-20)
(-0.240131 1.75119 -1.22298e-17)
(-0.23698 1.77175 -7.0229e-19)
(-0.23266 1.79481 6.37413e-19)
(-0.226931 1.82034 -1.71828e-18)
(-0.219486 1.84869 -5.15756e-19)
(-0.210179 1.88028 -8.38367e-18)
(-0.198562 1.91573 7.81581e-18)
(-0.18414 1.95558 -9.86848e-22)
(-0.16701 1.99964 7.43549e-19)
(-0.147373 2.04727 -6.79027e-19)
(-0.125641 2.09722 6.14834e-19)
(-0.10246 2.14794 4.97499e-18)
(-0.0786092 2.19789 -4.50587e-18)
(-0.0549068 2.2457 4.50114e-19)
(-0.0320897 2.29028 -1.55364e-21)
(-0.0106738 2.33096 3.70063e-19)
(0.00879732 2.36758 3.38728e-19)
(0.0261384 2.40039 -5.35157e-18)
(0.0414659 2.4297 3.78995e-20)
(0.0547636 2.4559 5.07916e-18)
(0.066071 2.47948 0)
(0.0755247 2.50085 0)
(0.0832922 2.52031 0)
(0.0895414 2.53819 -4.07435e-18)
(0.0944397 2.5548 3.46693e-18)
(0.0981549 2.57043 0)
(0.10085 2.58532 0)
(0.102673 2.59968 -3.28869e-18)
(0.103752 2.61368 2.45416e-18)
(0.104193 2.62745 2.62511e-18)
(0.104083 2.64109 -2.51949e-18)
(0.103487 2.65469 5.91706e-19)
(0.102455 2.66831 0)
(0.101024 2.68201 0)
(0.0992201 2.69582 1.01778e-18)
(0.0970587 2.70979 1.92107e-18)
(0.0945495 2.72395 -1.39927e-18)
(0.0916959 2.73833 -4.37201e-19)
(0.0884965 2.75295 0)
(0.084946 2.76784 -1.98129e-18)
(0.0810357 2.78301 3.03522e-20)
(0.0767541 2.79849 1.83789e-18)
(0.0720872 2.81428 -1.39613e-18)
(0.0670192 2.83041 6.64598e-19)
(0.0615327 2.84688 0)
(0.0556084 2.86371 0)
(0.049225 2.8809 5.66996e-19)
(0.0423599 2.89847 -3.33229e-20)
(0.0349897 2.91642 -3.40241e-20)
(0.0270897 2.93476 -5.30053e-19)
(0.0186345 2.95348 0)
(0.00959805 2.97259 9.46085e-19)
(-4.55398e-05 2.99209 9.11147e-19)
(-0.0103218 3.01198 -1.30025e-18)
(-0.0212547 3.03226 -8.16412e-19)
(-0.0327002 3.05263 0)
(-0.0443193 3.07253 -2.17234e-18)
(-0.0559146 3.09172 1.77183e-18)
(-0.0674465 3.1103 5.50967e-21)
(-0.0788725 3.12835 -3.08904e-19)
(-0.0902069 3.14582 2.9231e-19)
(-0.101471 3.16268 2.7601e-19)
(-0.112633 3.17895 0)
(-0.123685 3.19465 0)
(-0.134624 3.20983 0)
(-0.145442 3.22451 -8.01442e-19)
(-0.156135 3.23872 -1.30955e-19)
(-0.166699 3.25251 1.57979e-18)
(-0.177129 3.26589 -7.45968e-19)
(-0.187417 3.27888 -4.80111e-19)
(-0.197554 3.29151 5.4091e-19)
(-0.207527 3.3038 0)
(-0.217321 3.31578 3.75355e-19)
(-0.226923 3.32748 -3.6217e-19)
(-0.236329 3.33895 0)
(-0.245556 3.35025 -5.94402e-20)
(-0.254538 3.36144 -1.76146e-19)
(-0.263301 3.37247 1.70329e-19)
(-0.271889 3.38325 -1.06709e-19)
(-0.280268 3.39374 1.02833e-19)
(-0.288444 3.4039 0)
(-0.296422 3.41369 -2.43968e-20)
(-0.304195 3.42307 1.92709e-20)
(-0.311753 3.43199 2.37839e-20)
(-0.319088 3.44041 -6.75287e-20)
(-0.326189 3.44831 4.62324e-20)
(-0.10631 1.54987 2.87091e-18)
(-0.289676 1.59409 0)
(-0.261306 1.60029 -1.23663e-16)
(-0.261617 1.60287 8.91595e-17)
(-0.263042 1.60716 -1.01743e-22)
(-0.26429 1.61224 -1.25672e-18)
(-0.265545 1.61775 0)
(-0.266847 1.6236 -2.28896e-17)
(-0.268183 1.62976 2.03453e-17)
(-0.269548 1.63621 0)
(-0.270936 1.64297 9.62602e-19)
(-0.272339 1.65006 0)
(-0.273743 1.6575 7.3597e-23)
(-0.275126 1.66537 -1.35274e-17)
(-0.276452 1.67376 2.72487e-17)
(-0.277676 1.6828 -1.38004e-17)
(-0.278723 1.69265 1.38989e-17)
(-0.279492 1.70352 -2.96911e-17)
(-0.27988 1.71566 1.39332e-17)
(-0.279757 1.72933 8.47017e-19)
(-0.278966 1.74483 -8.04634e-19)
(-0.277368 1.76239 -1.05331e-17)
(-0.274828 1.78222 1.25768e-17)
(-0.271197 1.80444 1.27975e-18)
(-0.266321 1.82904 1.15081e-18)
(-0.259938 1.856 -1.03668e-18)
(-0.25182 1.88568 9.30576e-19)
(-0.241781 1.91852 0)
(-0.229394 1.95493 -8.95089e-22)
(-0.214341 1.99514 1.03416e-21)
(-0.196755 2.03883 -6.7398e-19)
(-0.176888 2.08529 0)
(-0.15518 2.13339 0)
(-0.132257 2.1818 8.58012e-18)
(-0.108845 2.22924 -6.43961e-18)
(-0.0857006 2.27461 0)
(-0.0634667 2.31699 -6.03585e-18)
(-0.0426098 2.35594 9.67919e-18)
(-0.0236454 2.3914 -5.75742e-18)
(-0.00663634 2.42362 0)
(0.00850805 2.4528 -5.06896e-18)
(0.0216784 2.47932 4.30171e-18)
(0.0329202 2.50353 1.01632e-18)
(0.0423447 2.52571 -4.32507e-18)
(0.0500785 2.5461 3.22777e-18)
(0.0562585 2.56501 0)
(0.0610354 2.58269 3.29818e-18)
(0.0645679 2.59941 -3.95921e-18)
(0.067012 2.6154 2.97685e-18)
(0.0685119 2.63087 -2.1481e-18)
(0.0691944 2.64597 -3.36343e-18)
(0.0691662 2.66084 2.58436e-18)
(0.0685139 2.67559 -6.12309e-19)
(0.0673053 2.69032 1.72424e-18)
(0.0655913 2.7051 -3.36604e-20)
(0.0634083 2.71998 -2.11352e-18)
(0.0607809 2.73502 0)
(0.0577237 2.75026 -2.83792e-18)
(0.0542435 2.76574 2.71153e-18)
(0.0503405 2.78148 -1.74314e-18)
(0.0460091 2.79751 0)
(0.041239 2.81385 7.82029e-19)
(0.0360177 2.83052 2.23838e-18)
(0.0303301 2.84753 6.86036e-19)
(0.0241569 2.86491 -3.55031e-20)
(0.0174749 2.88266 -6.76875e-19)
(0.0102591 2.90079 2.46917e-18)
(0.00248453 2.91931 -2.43339e-18)
(-0.00587669 2.93823 -1.14562e-18)
(-0.0148547 2.95755 2.15051e-18)
(-0.0244803 2.97727 -1.59817e-18)
(-0.0347845 2.99739 -1.9978e-18)
(-0.0457986 3.01791 2.80895e-18)
(-0.0575535 3.03882 -9.41223e-19)
(-0.0698991 3.05981 0)
(-0.0824723 3.08029 -7.72444e-19)
(-0.0950533 3.10001 8.06552e-19)
(-0.107609 3.11905 -2.45756e-18)
(-0.120066 3.13752 1.71078e-18)
(-0.13242 3.15549 -6.35203e-19)
(-0.144712 3.17285 -1.45929e-18)
(-0.156922 3.18961 7.18756e-20)
(-0.169034 3.20579 7.00123e-20)
(-0.181045 3.22144 1.02057e-18)
(-0.192947 3.23657 1.11417e-18)
(-0.204735 3.25124 -6.37867e-20)
(-0.216401 3.26547 -6.09398e-19)
(-0.227936 3.27927 1.78734e-19)
(-0.239325 3.29266 -6.08587e-19)
(-0.250549 3.30565 7.40696e-19)
(-0.261586 3.31824 0)
(-0.272411 3.33046 4.1462e-19)
(-0.283001 3.34235 -7.05391e-19)
(-0.293355 3.35397 3.3878e-19)
(-0.303492 3.36538 2.76211e-19)
(-0.313365 3.37667 -2.32864e-19)
(-0.323034 3.38781 2.23225e-20)
(-0.332538 3.39873 -1.04114e-19)
(-0.341825 3.40938 1.03779e-19)
(-0.350901 3.41972 9.22994e-21)
(-0.359759 3.42967 4.68444e-21)
(-0.368385 3.43919 0)
(-0.376763 3.44822 7.90452e-22)
(-0.384877 3.45672 -2.11345e-21)
(-0.392714 3.46465 -3.28059e-21)
(-0.400262 3.47197 1.43618e-19)
(-0.40751 3.47869 -1.50069e-19)
(-0.135938 1.54894 -9.35052e-17)
(-0.32063 1.59103 0)
(-0.291896 1.59763 1.38191e-16)
(-0.292041 1.59983 -9.4615e-17)
(-0.293376 1.60387 -1.95665e-18)
(-0.294563 1.60878 2.70347e-18)
(-0.295777 1.61418 3.20783e-17)
(-0.297052 1.61994 -2.61437e-17)
(-0.298375 1.626 -1.30914e-18)
(-0.299742 1.63235 -1.90687e-17)
(-0.301149 1.63899 1.5885e-17)
(-0.302595 1.64592 8.9958e-19)
(-0.304076 1.65315 5.04044e-23)
(-0.305584 1.6607 7.95981e-19)
(-0.307108 1.66861 7.76916e-19)
(-0.308628 1.67693 1.24072e-17)
(-0.310115 1.68576 -2.87559e-20)
(-0.311522 1.69518 -1.2062e-17)
(-0.312795 1.70535 0)
(-0.313837 1.71644 -8.28101e-19)
(-0.314556 1.72865 -1.15828e-17)
(-0.314813 1.74224 1.13889e-17)
(-0.314482 1.75746 1.24827e-17)
(-0.313394 1.77458 -1.18555e-17)
(-0.311413 1.79381 0)
(-0.308404 1.81527 1.27643e-18)
(-0.304242 1.83902 0)
(-0.298755 1.86503 1.04242e-18)
(-0.291699 1.89333 1.87397e-18)
(-0.282905 1.92423 -8.42321e-19)
(-0.272173 1.95805 7.71015e-19)
(-0.259134 1.99505 -1.43204e-18)
(-0.24362 2.03521 1.32624e-18)
(-0.225797 2.07818 -1.09455e-17)
(-0.205955 2.12328 8.94839e-18)
(-0.184543 2.16953 0)
(-0.162151 2.21578 7.3761e-18)
(-0.139451 2.26098 -5.07298e-18)
(-0.117128 2.30423 0)
(-0.0957038 2.34476 0)
(-0.0757152 2.38232 6.43796e-19)
(-0.0574435 2.41698 0)
(-0.0408791 2.44885 -5.66079e-19)
(-0.0261249 2.47814 0)
(-0.0132473 2.50514 -3.55425e-18)
(-0.00221688 2.53006 3.89974e-18)
(0.00703526 2.55308 -9.25932e-19)
(0.0145993 2.57444 8.75616e-19)
(0.020591 2.59439 0)
(0.0251476 2.61318 -7.93678e-19)
(0.0284162 2.63106 7.55598e-19)
(0.0305419 2.64822 7.24783e-19)
(0.0316593 2.66489 -5.4262e-21)
(0.0318874 2.68121 0)
(0.0313272 2.69732 1.84622e-18)
(0.0300606 2.71336 -3.74075e-20)
(0.0281517 2.7294 -2.27488e-18)
(0.0256476 2.74553 1.06929e-18)
(0.0225838 2.76181 -1.00889e-18)
(0.0189803 2.77829 9.88556e-19)
(0.0148463 2.79502 -1.83861e-18)
(0.0101833 2.81204 2.65168e-18)
(0.00498943 2.82935 -2.54816e-18)
(-0.000740257 2.847 -2.39302e-18)
(-0.00702113 2.86501 1.55704e-18)
(-0.0138779 2.8834 -7.38065e-19)
(-0.0213346 2.90217 -2.76067e-18)
(-0.0294148 2.92133 1.36938e-18)
(-0.0381483 2.94091 -5.91469e-19)
(-0.0475705 2.96089 3.70335e-18)
(-0.0577169 2.98129 1.61192e-20)
(-0.0686225 3.0021 -1.59282e-20)
(-0.0803252 3.02332 -2.06139e-18)
(-0.0928638 3.04493 1.99813e-18)
(-0.106084 3.06663 -2.89196e-18)
(-0.119602 3.08778 -1.73876e-18)
(-0.13318 3.10812 2.56862e-18)
(-0.146776 3.1277 -1.54549e-18)
(-0.160339 3.14663 3.69845e-18)
(-0.173805 3.16505 -1.0872e-18)
(-0.187175 3.18295 1.27174e-18)
(-0.200474 3.20025 -1.27235e-18)
(-0.213687 3.21697 -1.41092e-18)
(-0.226815 3.23314 8.4307e-19)
(-0.239854 3.24879 7.1854e-19)
(-0.252786 3.26396 -1.19261e-18)
(-0.265594 3.27868 -2.09175e-19)
(-0.278262 3.29295 3.53298e-19)
(-0.290764 3.30676 -1.56616e-18)
(-0.303068 3.32013 6.54233e-19)
(-0.315149 3.33303 1.39386e-19)
(-0.326986 3.34548 0)
(-0.338573 3.35751 -5.07278e-20)
(-0.34992 3.36922 3.27335e-19)
(-0.361024 3.38074 -3.49321e-19)
(-0.371887 3.39217 -1.90052e-19)
(-0.382574 3.40352 3.92133e-19)
(-0.39308 3.41466 -1.71764e-19)
(-0.403369 3.42552 1.14705e-19)
(-0.413426 3.43603 -1.06841e-19)
(-0.423233 3.44614 -7.21386e-20)
(-0.432767 3.45578 4.95766e-20)
(-0.442005 3.46488 -1.74437e-20)
(-0.450927 3.47339 3.16814e-20)
(-0.459516 3.48128 0)
(-0.467757 3.48851 4.19078e-21)
(-0.475641 3.49508 0)
(-0.483162 3.50098 -5.91315e-21)
(-0.164806 1.54734 9.50029e-17)
(-0.350584 1.58698 -3.37225e-16)
(-0.32142 1.59374 -4.15994e-18)
(-0.321399 1.59558 9.8974e-17)
(-0.322634 1.59939 0)
(-0.323753 1.60417 -1.42993e-18)
(-0.324918 1.60948 -3.39915e-17)
(-0.326157 1.61517 4.44341e-20)
(-0.327453 1.62118 2.0757e-17)
(-0.3288 1.62748 1.17934e-18)
(-0.330196 1.63406 1.54842e-17)
(-0.33164 1.64093 -2.82172e-20)
(-0.333131 1.64807 -2.62224e-17)
(-0.334667 1.65551 1.10338e-17)
(-0.336246 1.66326 -1.19246e-17)
(-0.33786 1.67133 1.1544e-17)
(-0.339501 1.67976 0)
(-0.341152 1.68861 -1.42961e-18)
(-0.342786 1.69793 1.45857e-18)
(-0.344365 1.70783 -1.49497e-18)
(-0.345834 1.71841 2.44306e-17)
(-0.347127 1.72982 -2.48515e-17)
(-0.348131 1.74222 0)
(-0.348743 1.75585 0)
(-0.34882 1.77094 1.50186e-18)
(-0.348211 1.78774 0)
(-0.346768 1.80647 1.35972e-18)
(-0.34435 1.8273 1.89596e-17)
(-0.340837 1.85032 -2.09435e-17)
(-0.336109 1.87552 2.09693e-18)
(-0.329999 1.90284 1.89206e-18)
(-0.322297 1.93236 1.52118e-17)
(-0.312883 1.9643 -1.37754e-17)
(-0.301594 1.99888 1.3979e-18)
(-0.288143 2.0362 -1.16263e-17)
(-0.272445 2.07612 9.60645e-18)
(-0.254697 2.11825 0)
(-0.235217 2.16201 7.04925e-18)
(-0.214451 2.20654 -7.418e-18)
(-0.192946 2.25086 -8.45686e-19)
(-0.171312 2.29409 0)