/*--------------------------------*- C++ -*----------------------------------*\
  =========                 |
  \\      /  F ield         | OpenFOAM: The Open Source CFD Toolbox
   \\    /   O peration     | Website:  https://openfoam.org
    \\  /    A nd           | Version:  10
     \\/     M anipulation  |
\*---------------------------------------------------------------------------*/
FoamFile
{
    format      ascii;
    class       volScalarField;
    location    "45000";
    object      yPlus;
}
// * * * * * * * * * * * * * * * * * * * * * * * * * * * * * * * * * * * * * //

dimensions      [0 0 0 0 0 0 0];

internalField   uniform 0;

boundaryField
{
    right
    {
        type            cyclic;
    }
    left
    {
        type            cyclic;
    }
    outerWall
    {
        type            calculated;
        value           nonuniform List<scalar> 0();
    }
    stirrerWall
    {
        type            calculated;
        value           nonuniform List<scalar> 
398
(
0.22612
0.164264
0.123995
0.101906
0.0902434
0.0833558
0.0789399
0.0762284
0.0750058
0.0751996
0.0767322
0.0794887
0.0833847
0.0883487
0.0941417
0.100709
0.107981
0.115863
0.12436
0.133442
0.143217
0.153328
0.163784
0.174382
0.185001
0.195486
0.205642
0.215265
0.224193
0.232338
0.239503
0.245435
0.250005
0.253454
0.255891
0.257447
0.258333
0.258417
0.257273
0.255205
0.252642
0.248339
0.24212
0.235445
0.227792
0.219417
0.210702
0.201673
0.192921
0.184283
0.175699
0.167333
0.159242
0.151415
0.143823
0.136417
0.129079
0.121869
0.11494
0.10835
0.10211
0.0961894
0.0905305
0.0851718
0.0799613
0.0749409
0.0700906
0.0653594
0.0608333
0.0564812
0.0524218
0.0488666
0.0459815
0.0437615
0.0419998
0.0401199
0.0371552
0.0319323
0.0232783
0.00674223
0.00674223
0.0179876
0.00765677
0.010818
0.0134946
0.0174186
0.0214026
0.0249114
0.0274754
0.0291932
0.0301713
0.0305104
0.0303226
0.0297168
0.0287866
0.0276122
0.0262284
0.0247547
0.0232006
0.0216495
0.0202647
0.0189772
0.0177617
0.0166021
0.0155081
0.0144976
0.0136003
0.0128506
0.0122917
0.0119876
0.0120377
0.0126879
0.0141243
0.0163426
0.0192199
0.0225549
0.0260563
0.0295415
0.0328792
0.0361884
0.0394793
0.0427949
0.0460816
0.0494253
0.0528978
0.0566187
0.0607826
0.0656739
0.0718796
0.0802781
0.0903737
0.103152
0.118004
0.134948
0.154747
0.177613
0.20351
0.23255
0.264768
0.300195
0.338842
0.380805
0.426338
0.475904
0.530148
0.589788
0.655576
0.728385
0.809629
0.900927
1.00425
1.12248
1.2577
1.41214
1.58749
1.77704
1.97104
2.16401
2.35095
2.53346
2.705
2.86255
3.00505
3.13281
3.24702
3.34942
3.4436
3.53279
3.61948
3.70456
3.78852
3.87102
3.95172
4.03081
4.10176
4.15886
4.20807
4.24918
4.27917
4.2953
4.29978
4.29636
4.28566
4.2678
4.2444
4.21375
4.1755
4.13005
4.07764
4.01829
3.95218
3.87908
3.79894
3.71131
3.61492
3.51219
3.41074
3.30431
3.19225
3.07469
2.95224
2.82584
2.69657
2.56559
2.43434
2.30453
2.17812
2.05744
0.0262814
0.0379812
0.0244167
0.0208465
0.0298236
0.052516
0.0948518
0.14887
0.198827
0.237933
0.264351
0.278647
0.281259
0.273308
0.257903
0.235022
0.217358
0.201014
0.183994
0.166282
0.148479
0.131151
0.11482
0.0997761
0.086191
0.0740566
0.063407
0.0544073
0.0473072
0.0422935
0.0403203
0.0495193
0.0893105
0.164511
0.245789
0.304406
0.337302
0.348585
0.352125
0.365305
0.395821
0.440225
0.486333
0.525733
0.561663
0.595405
0.630439
0.671682
0.735451
0.851506
1.03973
1.55977
2.93741
5.25426
7.89258
9.98866
10.8378
10.7467
11.0529
10.2965
10.7148
11.442
12.4709
12.5791
11.825
12.3104
12.5445
11.4508
13.0924
12.888
10.7537
11.0596
11.4392
12.0868
11.9636
11.481
11.7339
11.6977
11.923
12.1407
12.3513
12.5558
12.7548
12.9491
13.1395
13.3268
13.5121
13.6971
13.8811
14.0641
14.2465
14.4286
14.6108
14.7933
14.9764
15.1604
15.3454
15.5317
15.7195
15.909
16.1009
16.2955
16.4926
16.6925
16.8956
17.1021
17.3124
17.5268
17.7455
17.9686
0.0262814
0.0758843
0.113306
0.154568
0.157424
0.154547
0.155124
0.151909
0.16755
0.196434
0.233482
0.278593
0.332129
0.394201
0.464764
0.543715
0.630523
0.724478
0.824749
0.930438
1.04057
1.154
1.26987
1.38814
1.50942
1.63582
1.77305
1.91184
2.04677
2.17773
2.30467
2.42712
2.54544
2.66061
2.77585
2.89495
3.01328
3.13849
3.26178
3.39964
3.51101
3.58045
3.66176
3.74414
3.83772
3.94072
4.05925
4.19792
4.36431
4.57018
4.8351
5.1802
5.63885
6.25998
6.98149
7.76361
8.65377
9.68853
10.8852
11.1762
9.78043
9.49521
9.54127
10.4802
11.0579
11.5408
11.4524
9.68888
10.0402
10.1026
10.9511
9.75129
6.3421
2.81924
0.970207
0.653327
0.640585
0.593043
0.468896
0.327379
)
;
    }
    top
    {
        type            empty;
    }
    bottom
    {
        type            empty;
    }
    procBoundary1to0
    {
        type            processor;
        value           uniform 0;
    }
}


// ************************************************************************* //
