/*--------------------------------*- C++ -*----------------------------------*\
  =========                 |
  \\      /  F ield         | OpenFOAM: The Open Source CFD Toolbox
   \\    /   O peration     | Website:  https://openfoam.org
    \\  /    A nd           | Version:  10
     \\/     M anipulation  |
\*---------------------------------------------------------------------------*/
FoamFile
{
    format      ascii;
    class       surfaceScalarField;
    location    "30000";
    object      phi;
}
// * * * * * * * * * * * * * * * * * * * * * * * * * * * * * * * * * * * * * //

dimensions      [0 3 -1 0 0 0 0];

internalField   nonuniform List<scalar> 
35585
(
3.61891e-06
-2.3952e-06
3.53306e-06
-2.40783e-06
3.44769e-06
-2.4176e-06
3.36301e-06
-2.42473e-06
3.27923e-06
-2.42938e-06
3.19652e-06
-2.43171e-06
3.11508e-06
-2.43183e-06
3.03507e-06
-2.42983e-06
2.95661e-06
-2.42581e-06
2.87985e-06
-2.41984e-06
2.8049e-06
-2.41197e-06
2.73183e-06
-2.40229e-06
2.66073e-06
-2.39085e-06
2.59164e-06
-2.37772e-06
2.52462e-06
-2.36297e-06
2.45969e-06
-2.34666e-06
2.39686e-06
-2.32887e-06
2.33613e-06
-2.30967e-06
2.2775e-06
-2.28914e-06
2.22095e-06
-2.26734e-06
2.16646e-06
-2.24437e-06
2.11399e-06
-2.2203e-06
2.06351e-06
-2.19521e-06
2.01498e-06
-2.16917e-06
1.96835e-06
-2.14227e-06
1.92358e-06
-2.11458e-06
1.8806e-06
-2.08618e-06
1.83938e-06
-2.05713e-06
1.79985e-06
-2.02752e-06
1.76196e-06
-1.9974e-06
1.72565e-06
-1.96684e-06
1.69087e-06
-1.93592e-06
1.65756e-06
-1.90469e-06
1.62566e-06
-1.8732e-06
1.59513e-06
-1.84152e-06
1.56591e-06
-1.8097e-06
1.53794e-06
-1.77778e-06
1.51118e-06
-1.74583e-06
1.48556e-06
-1.71387e-06
1.46106e-06
-1.68195e-06
1.43761e-06
-1.65012e-06
1.41517e-06
-1.6184e-06
1.39369e-06
-1.58684e-06
1.37314e-06
-1.55546e-06
1.35348e-06
-1.5243e-06
1.33466e-06
-1.49338e-06
1.31664e-06
-1.46272e-06
-1.43236e-06
1.29938e-06
3.78553e-06
-2.30334e-06
3.69407e-06
-2.31637e-06
3.60321e-06
-2.32675e-06
3.51317e-06
-2.33469e-06
3.42415e-06
-2.34036e-06
3.33635e-06
-2.34391e-06
3.24994e-06
-2.34542e-06
3.1651e-06
-2.34499e-06
3.08196e-06
-2.34268e-06
3.00066e-06
-2.33854e-06
2.92131e-06
-2.33262e-06
2.844e-06
-2.32498e-06
2.7688e-06
-2.31565e-06
2.69577e-06
-2.30469e-06
2.62495e-06
-2.29215e-06
2.55636e-06
-2.27807e-06
2.49001e-06
-2.26253e-06
2.42591e-06
-2.24557e-06
2.36404e-06
-2.22727e-06
2.30439e-06
-2.20769e-06
2.24693e-06
-2.18691e-06
2.19162e-06
-2.16499e-06
2.13842e-06
-2.14202e-06
2.0873e-06
-2.11805e-06
2.03819e-06
-2.09317e-06
1.99105e-06
-2.06744e-06
1.94582e-06
-2.04095e-06
1.90244e-06
-2.01376e-06
1.86086e-06
-1.98594e-06
1.82102e-06
-1.95755e-06
1.78286e-06
-1.92868e-06
1.74631e-06
-1.89937e-06
1.71132e-06
-1.8697e-06
1.67783e-06
-1.83971e-06
1.64578e-06
-1.80947e-06
1.61512e-06
-1.77903e-06
1.58578e-06
-1.74845e-06
1.55772e-06
-1.71776e-06
1.53087e-06
-1.68702e-06
1.5052e-06
-1.65628e-06
1.48064e-06
-1.62556e-06
1.45715e-06
-1.59491e-06
1.43468e-06
-1.56437e-06
1.41318e-06
-1.53397e-06
1.39262e-06
-1.50374e-06
1.37295e-06
-1.47371e-06
1.35413e-06
-1.4439e-06
-1.41435e-06
1.33612e-06
3.92348e-06
3.82633e-06
3.72994e-06
3.63451e-06
3.54025e-06
-2.24611e-06
3.44737e-06
-2.25102e-06
3.35604e-06
-2.25409e-06
3.26644e-06
-2.25539e-06
3.17871e-06
-2.25494e-06
3.09298e-06
-2.25281e-06
3.00935e-06
-2.249e-06
2.92793e-06
-2.24356e-06
2.84878e-06
-2.2365e-06
2.77195e-06
-2.22787e-06
2.69749e-06
-2.21769e-06
2.62542e-06
-2.206e-06
2.55574e-06
-2.19285e-06
2.48846e-06
-2.17829e-06
2.42355e-06
-2.16237e-06
2.36101e-06
-2.14515e-06
2.30078e-06
-2.12669e-06
2.24284e-06
-2.10706e-06
2.18714e-06
-2.08632e-06
2.13364e-06
-2.06454e-06
2.08227e-06
-2.0418e-06
2.03298e-06
-2.01815e-06
1.98571e-06
-1.99368e-06
1.9404e-06
-1.96845e-06
1.89699e-06
-1.94252e-06
1.85542e-06
-1.91598e-06
1.81561e-06
-1.88887e-06
1.77751e-06
-1.86127e-06
1.74105e-06
-1.83324e-06
1.70616e-06
-1.80483e-06
1.6728e-06
-1.77611e-06
1.6409e-06
-1.74713e-06
1.61039e-06
-1.71794e-06
1.58122e-06
-1.68859e-06
1.55333e-06
-1.65914e-06
1.52667e-06
-1.62962e-06
1.50119e-06
-1.60007e-06
1.47683e-06
-1.57055e-06
1.45354e-06
-1.54108e-06
1.43127e-06
-1.51171e-06
1.40998e-06
-1.48245e-06
1.38963e-06
-1.45335e-06
1.37017e-06
-1.42444e-06
-1.39573e-06
1.35155e-06
3.63066e-06
-2.14665e-06
3.53275e-06
-2.15312e-06
3.43658e-06
-2.15792e-06
3.34231e-06
-2.16111e-06
3.25008e-06
-2.16271e-06
3.16002e-06
-2.16275e-06
3.07225e-06
-2.16123e-06
2.98685e-06
-2.15816e-06
2.90389e-06
-2.15355e-06
2.82343e-06
-2.1474e-06
2.74549e-06
-2.13975e-06
2.67011e-06
-2.13061e-06
2.59728e-06
-2.12002e-06
2.527e-06
-2.108e-06
2.45925e-06
-2.09461e-06
2.394e-06
-2.07989e-06
2.33121e-06
-2.0639e-06
2.27084e-06
-2.04669e-06
2.21285e-06
-2.02832e-06
2.15716e-06
-2.00886e-06
2.10374e-06
-1.98837e-06
2.05251e-06
-1.96692e-06
2.00341e-06
-1.94458e-06
1.95637e-06
-1.92141e-06
1.91132e-06
-1.89748e-06
1.86821e-06
-1.87286e-06
1.82695e-06
-1.84761e-06
1.78748e-06
-1.8218e-06
1.74974e-06
-1.79549e-06
1.71365e-06
-1.76874e-06
1.67915e-06
-1.74161e-06
1.64618e-06
-1.71416e-06
1.61467e-06
-1.68643e-06
1.58457e-06
-1.65848e-06
1.5558e-06
-1.63037e-06
1.52832e-06
-1.60213e-06
1.50206e-06
-1.57382e-06
1.47697e-06
-1.54546e-06
1.45301e-06
-1.51712e-06
1.43011e-06
-1.48881e-06
1.40823e-06
-1.46058e-06
1.38733e-06
-1.43245e-06
1.36735e-06
-1.40446e-06
-1.37664e-06
1.34826e-06
3.69701e-06
-2.04199e-06
3.59408e-06
-2.05019e-06
3.49307e-06
-2.05691e-06
3.39414e-06
-2.06218e-06
3.29744e-06
-2.06602e-06
3.20311e-06
-2.06842e-06
3.11125e-06
-2.06937e-06
3.02194e-06
-2.06886e-06
2.93527e-06
-2.06687e-06
2.85128e-06
-2.06341e-06
2.77e-06
-2.05847e-06
2.69144e-06
-2.05206e-06
2.61561e-06
-2.04419e-06
2.54249e-06
-2.03489e-06
2.47207e-06
-2.02419e-06
2.40429e-06
-2.01212e-06
2.33913e-06
-1.99874e-06
2.27653e-06
-1.98409e-06
2.21644e-06
-1.96823e-06
2.15879e-06
-1.95121e-06
2.10351e-06
-1.9331e-06
2.05055e-06
-1.91396e-06
1.99983e-06
-1.89386e-06
1.95128e-06
-1.87285e-06
1.90481e-06
-1.85102e-06
1.86037e-06
-1.82842e-06
1.81788e-06
-1.80512e-06
1.77726e-06
-1.78118e-06
1.73844e-06
-1.75667e-06
1.70135e-06
-1.73166e-06
1.66593e-06
-1.70618e-06
1.63209e-06
-1.68032e-06
1.59977e-06
-1.65412e-06
1.56892e-06
-1.62763e-06
1.53946e-06
-1.60091e-06
1.51133e-06
-1.57401e-06
1.48448e-06
-1.54696e-06
1.45884e-06
-1.51983e-06
1.43437e-06
-1.49264e-06
1.411e-06
-1.46544e-06
1.38869e-06
-1.43826e-06
1.36739e-06
-1.41115e-06
1.34705e-06
-1.38412e-06
-1.35721e-06
1.32762e-06
3.74179e-06
3.63376e-06
-1.94215e-06
3.52783e-06
-1.95099e-06
3.4242e-06
-1.95854e-06
3.323e-06
-1.96482e-06
3.22437e-06
-1.96979e-06
3.12843e-06
-1.97343e-06
3.03526e-06
-1.97569e-06
2.94493e-06
-1.97654e-06
2.85749e-06
-1.97597e-06
2.77296e-06
-1.97394e-06
2.69134e-06
-1.97045e-06
2.61264e-06
-1.96549e-06
2.53684e-06
-1.95908e-06
2.4639e-06
-1.95125e-06
2.39378e-06
-1.942e-06
2.32643e-06
-1.93139e-06
2.26179e-06
-1.91945e-06
2.1998e-06
-1.90624e-06
2.14039e-06
-1.8918e-06
2.08349e-06
-1.87619e-06
2.02901e-06
-1.85948e-06
1.97689e-06
-1.84173e-06
1.92703e-06
-1.823e-06
1.87938e-06
-1.80336e-06
1.83383e-06
-1.78288e-06
1.79032e-06
-1.76161e-06
1.74877e-06
-1.73963e-06
1.70909e-06
-1.717e-06
1.67122e-06
-1.69378e-06
1.63507e-06
-1.67003e-06
1.60057e-06
-1.64582e-06
1.56765e-06
-1.6212e-06
1.53625e-06
-1.59623e-06
1.50629e-06
-1.57095e-06
1.47771e-06
-1.54543e-06
1.45045e-06
-1.5197e-06
1.42445e-06
-1.49382e-06
1.39964e-06
-1.46783e-06
1.37597e-06
-1.44178e-06
1.3534e-06
-1.41569e-06
1.33186e-06
-1.38961e-06
1.31131e-06
-1.36357e-06
-1.3376e-06
1.29169e-06
3.65301e-06
3.54198e-06
3.43346e-06
-1.85003e-06
3.32764e-06
-1.85899e-06
3.22463e-06
-1.86679e-06
3.12456e-06
-1.87336e-06
3.02751e-06
-1.87864e-06
2.93355e-06
-1.88258e-06
2.8427e-06
-1.88512e-06
2.755e-06
-1.88623e-06
2.67044e-06
-1.88588e-06
2.589e-06
-1.88405e-06
2.51066e-06
-1.88074e-06
2.43537e-06
-1.87596e-06
2.36308e-06
-1.86972e-06
2.29374e-06
-1.86204e-06
2.22726e-06
-1.85298e-06
2.16359e-06
-1.84256e-06
2.10263e-06
-1.83084e-06
2.04432e-06
-1.81788e-06
1.98855e-06
-1.80372e-06
1.93526e-06
-1.78844e-06
1.88435e-06
-1.77209e-06
1.83573e-06
-1.75475e-06
1.78932e-06
-1.73647e-06
1.74504e-06
-1.71732e-06
1.70278e-06
-1.69738e-06
1.66248e-06
-1.6767e-06
1.62405e-06
-1.65535e-06
1.58741e-06
-1.63339e-06
1.55249e-06
-1.61089e-06
1.5192e-06
-1.58791e-06
1.48747e-06
-1.5645e-06
1.45723e-06
-1.54071e-06
1.42842e-06
-1.51661e-06
1.40096e-06
-1.49224e-06
1.37479e-06
-1.46766e-06
1.34985e-06
-1.4429e-06
1.32609e-06
-1.41801e-06
1.30344e-06
-1.39304e-06
1.28185e-06
-1.36802e-06
1.26127e-06
-1.34299e-06
-1.31798e-06
1.24166e-06
3.42244e-06
3.31187e-06
-1.74842e-06
3.20442e-06
-1.75934e-06
3.1002e-06
-1.76914e-06
2.9993e-06
-1.77774e-06
2.90176e-06
-1.78504e-06
2.80761e-06
-1.79097e-06
2.71686e-06
-1.79548e-06
2.6295e-06
-1.79852e-06
2.54549e-06
-1.80005e-06
2.4648e-06
-1.80005e-06
2.38737e-06
-1.79853e-06
2.31313e-06
-1.79548e-06
2.24201e-06
-1.79093e-06
2.17394e-06
-1.7849e-06
2.10881e-06
-1.77744e-06
2.04656e-06
-1.76859e-06
1.98708e-06
-1.7584e-06
1.93028e-06
-1.74692e-06
1.87607e-06
-1.73422e-06
1.82434e-06
-1.72037e-06
1.77501e-06
-1.70542e-06
1.72799e-06
-1.68944e-06
1.68316e-06
-1.6725e-06
1.64046e-06
-1.65467e-06
1.59978e-06
-1.63602e-06
1.56103e-06
-1.61661e-06
1.52414e-06
-1.5965e-06
1.48902e-06
-1.57577e-06
1.45558e-06
-1.55447e-06
1.42376e-06
-1.53267e-06
1.39346e-06
-1.51042e-06
1.36463e-06
-1.48778e-06
1.33719e-06
-1.4648e-06
1.31107e-06
-1.44154e-06
1.28622e-06
-1.41804e-06
1.26256e-06
-1.39435e-06
1.24004e-06
-1.37052e-06
1.2186e-06
-1.34658e-06
1.19819e-06
-1.32258e-06
-1.29855e-06
1.17876e-06
3.27507e-06
3.16326e-06
3.05502e-06
-1.6609e-06
2.95042e-06
-1.67314e-06
2.8495e-06
-1.68412e-06
2.75227e-06
-1.69374e-06
2.65871e-06
-1.70193e-06
2.5688e-06
-1.70861e-06
2.48249e-06
-1.71374e-06
2.39971e-06
-1.71728e-06
2.32041e-06
-1.71922e-06
2.2445e-06
-1.71956e-06
2.17188e-06
-1.71831e-06
2.10248e-06
-1.71549e-06
2.03618e-06
-1.71114e-06
1.97289e-06
-1.7053e-06
1.91251e-06
-1.69801e-06
1.85493e-06
-1.68934e-06
1.80005e-06
-1.67934e-06
1.74776e-06
-1.66808e-06
1.69796e-06
-1.65562e-06
1.65056e-06
-1.64203e-06
1.60544e-06
-1.62738e-06
1.5625e-06
-1.61174e-06
1.52166e-06
-1.59518e-06
1.48282e-06
-1.57777e-06
1.44589e-06
-1.55957e-06
1.41078e-06
-1.54066e-06
1.3774e-06
-1.52109e-06
1.34567e-06
-1.50094e-06
1.31551e-06
-1.48026e-06
1.28685e-06
-1.45912e-06
1.25961e-06
-1.43756e-06
1.23372e-06
-1.41565e-06
1.20911e-06
-1.39343e-06
1.18572e-06
-1.37097e-06
1.16349e-06
-1.34829e-06
1.14236e-06
-1.32545e-06
1.12227e-06
-1.30249e-06
-1.27944e-06
1.10316e-06
2.98889e-06
2.88097e-06
2.77703e-06
2.67708e-06
2.58108e-06
-1.60592e-06
2.48897e-06
-1.61651e-06
2.40071e-06
-1.62547e-06
2.3162e-06
-1.63277e-06
2.23537e-06
-1.63839e-06
2.15811e-06
-1.64231e-06
2.08433e-06
-1.64453e-06
2.01391e-06
-1.64508e-06
1.94675e-06
-1.64398e-06
1.88274e-06
-1.64129e-06
1.82176e-06
-1.63703e-06
1.76369e-06
-1.63128e-06
1.70843e-06
-1.62408e-06
1.65585e-06
-1.6155e-06
1.60585e-06
-1.60562e-06
1.55832e-06
-1.5945e-06
1.51315e-06
-1.58221e-06
1.47023e-06
-1.56882e-06
1.42945e-06
-1.55441e-06
1.39073e-06
-1.53905e-06
1.35397e-06
-1.5228e-06
1.31906e-06
-1.50575e-06
1.28593e-06
-1.48796e-06
1.25448e-06
-1.46949e-06
1.22463e-06
-1.45041e-06
1.1963e-06
-1.43079e-06
1.16941e-06
-1.41068e-06
1.1439e-06
-1.39014e-06
1.11968e-06
-1.36922e-06
1.0967e-06
-1.34798e-06
1.07489e-06
-1.32648e-06
1.05418e-06
-1.30474e-06
1.03453e-06
-1.28283e-06
-1.26078e-06
1.01587e-06
2.48514e-06
-1.50793e-06
2.39129e-06
-1.52266e-06
2.30151e-06
-1.53568e-06
2.21569e-06
-1.54696e-06
2.13373e-06
-1.55644e-06
2.05554e-06
-1.56411e-06
1.98098e-06
-1.56997e-06
1.90994e-06
-1.57404e-06
1.8423e-06
-1.57634e-06
1.77792e-06
-1.57691e-06
1.71668e-06
-1.5758e-06
1.65846e-06
-1.57306e-06
1.60314e-06
-1.56875e-06
1.55058e-06
-1.56295e-06
1.50067e-06
-1.55571e-06
1.45329e-06
-1.54712e-06
1.40833e-06
-1.53725e-06
1.36568e-06
-1.52616e-06
1.32522e-06
-1.51395e-06
1.28686e-06
-1.50068e-06
1.25048e-06
-1.48643e-06
1.216e-06
-1.47127e-06
1.18332e-06
-1.45528e-06
1.15235e-06
-1.43852e-06
1.123e-06
-1.42106e-06
1.09518e-06
-1.40298e-06
1.06883e-06
-1.38432e-06
1.04386e-06
-1.36516e-06
1.0202e-06
-1.34556e-06
9.97774e-07
-1.32556e-06
9.76527e-07
-1.30523e-06
9.56391e-07
-1.28461e-06
9.37308e-07
-1.26375e-06
-1.24269e-06
9.19218e-07
2.37328e-06
-1.4085e-06
2.27822e-06
-1.4276e-06
2.18742e-06
-1.44489e-06
2.10079e-06
-1.46032e-06
2.01819e-06
-1.47384e-06
1.9395e-06
-1.48541e-06
1.86458e-06
-1.49505e-06
1.7933e-06
-1.50276e-06
1.72552e-06
-1.50856e-06
1.66112e-06
-1.5125e-06
1.59994e-06
-1.51463e-06
1.54188e-06
-1.51499e-06
1.48678e-06
-1.51365e-06
1.43452e-06
-1.51069e-06
1.38498e-06
-1.50617e-06
1.33802e-06
-1.50016e-06
1.29353e-06
-1.49276e-06
1.25139e-06
-1.48403e-06
1.21149e-06
-1.47405e-06
1.17371e-06
-1.4629e-06
1.13796e-06
-1.45067e-06
1.10412e-06
-1.43743e-06
1.0721e-06
-1.42326e-06
1.0418e-06
-1.40822e-06
1.01314e-06
-1.3924e-06
9.86033e-07
-1.37587e-06
9.60389e-07
-1.35868e-06
9.36132e-07
-1.34091e-06
9.13188e-07
-1.32261e-06
8.91485e-07
-1.30386e-06
8.70956e-07
-1.2847e-06
8.51536e-07
-1.26519e-06
8.33164e-07
-1.24538e-06
-1.22531e-06
8.15781e-07
2.24691e-06
-1.30814e-06
2.15113e-06
-1.33182e-06
2.0598e-06
-1.35357e-06
1.9728e-06
-1.37332e-06
1.88999e-06
-1.39102e-06
1.81122e-06
-1.40664e-06
1.73635e-06
-1.42018e-06
1.66524e-06
-1.43165e-06
1.59773e-06
-1.44106e-06
1.5337e-06
-1.44846e-06
1.47298e-06
-1.45391e-06
1.41544e-06
-1.45745e-06
1.36093e-06
-1.45915e-06
1.30932e-06
-1.45908e-06
1.26047e-06
-1.45732e-06
1.21426e-06
-1.45395e-06
1.17055e-06
-1.44905e-06
1.12922e-06
-1.4427e-06
1.09015e-06
-1.43498e-06
1.05323e-06
-1.42598e-06
1.01835e-06
-1.41579e-06
9.85393e-07
-1.40448e-06
9.54269e-07
-1.39213e-06
9.24875e-07
-1.37883e-06
8.9712e-07
-1.36465e-06
8.70914e-07
-1.34966e-06
8.46174e-07
-1.33394e-06
8.22816e-07
-1.31755e-06
8.00766e-07
-1.30056e-06
7.79951e-07
-1.28304e-06
7.60299e-07
-1.26505e-06
7.41747e-07
-1.24664e-06
7.24231e-07
-1.22786e-06
-1.20877e-06
7.07693e-07
2.10878e-06
2.01283e-06
-1.23587e-06
1.92149e-06
-1.26223e-06
1.83462e-06
-1.28645e-06
1.75206e-06
-1.30846e-06
1.67367e-06
-1.32825e-06
1.59928e-06
-1.3458e-06
1.52875e-06
-1.36112e-06
1.46192e-06
-1.37423e-06
1.39863e-06
-1.38517e-06
1.33873e-06
-1.394e-06
1.28206e-06
-1.40078e-06
1.22847e-06
-1.40556e-06
1.17783e-06
-1.40844e-06
1.12999e-06
-1.40948e-06
1.0848e-06
-1.40877e-06
1.04215e-06
-1.40639e-06
1.00189e-06
-1.40244e-06
9.63915e-07
-1.397e-06
9.28093e-07
-1.39016e-06
8.94313e-07
-1.38201e-06
8.62466e-07
-1.37263e-06
8.32446e-07
-1.36211e-06
8.04153e-07
-1.35054e-06
7.77492e-07
-1.33799e-06
7.52372e-07
-1.32454e-06
7.28705e-07
-1.31027e-06
7.0641e-07
-1.29525e-06
6.85407e-07
-1.27956e-06
6.65623e-07
-1.26326e-06
6.46987e-07
-1.24641e-06
6.29433e-07
-1.22908e-06
6.12898e-07
-1.21132e-06
-1.1932e-06
5.9732e-07
1.8662e-06
-1.1403e-06
1.77536e-06
-1.17138e-06
1.68909e-06
-1.20017e-06
1.60723e-06
-1.22661e-06
1.52964e-06
-1.25066e-06
1.45613e-06
-1.2723e-06
1.38656e-06
-1.29154e-06
1.32075e-06
-1.30842e-06
1.25854e-06
-1.32297e-06
1.19978e-06
-1.33523e-06
1.14429e-06
-1.34529e-06
1.09193e-06
-1.3532e-06
1.04253e-06
-1.35905e-06
9.95968e-07
-1.36291e-06
9.52081e-07
-1.36488e-06
9.10737e-07
-1.36505e-06
8.718e-07
-1.3635e-06
8.35142e-07
-1.36034e-06
8.00639e-07
-1.35566e-06
7.68175e-07
-1.34954e-06
7.37633e-07
-1.34209e-06
7.08908e-07
-1.33339e-06
6.81896e-07
-1.32353e-06
6.565e-07
-1.31259e-06
6.32624e-07
-1.30066e-06
6.10183e-07
-1.28783e-06
5.89091e-07
-1.27416e-06
5.6927e-07
-1.25974e-06
5.50643e-07
-1.24463e-06
5.3314e-07
-1.22891e-06
5.16693e-07
-1.21263e-06
5.01239e-07
-1.19587e-06
-1.17868e-06
4.86719e-07
1.71438e-06
-1.04561e-06
1.62448e-06
-1.08149e-06
1.53924e-06
-1.11493e-06
1.45848e-06
-1.14585e-06
1.38204e-06
-1.17422e-06
1.30976e-06
-1.20002e-06
1.24148e-06
-1.22326e-06
1.17701e-06
-1.24395e-06
1.11619e-06
-1.26215e-06
1.05885e-06
-1.2779e-06
1.00483e-06
-1.29126e-06
9.53955e-07
-1.30233e-06
9.06075e-07
-1.31116e-06
8.61032e-07
-1.31787e-06
8.18677e-07
-1.32253e-06
7.78866e-07
-1.32524e-06
7.4146e-07
-1.3261e-06
7.06324e-07
-1.32521e-06
6.73332e-07
-1.32267e-06
6.42361e-07
-1.31857e-06
6.13294e-07
-1.31302e-06
5.86023e-07
-1.30612e-06
5.60439e-07
-1.29794e-06
5.36444e-07
-1.28859e-06
5.13943e-07
-1.27816e-06
4.92846e-07
-1.26673e-06
4.73068e-07
-1.25438e-06
4.54528e-07
-1.2412e-06
4.37152e-07
-1.22726e-06
4.20867e-07
-1.21262e-06
4.05606e-07
-1.19737e-06
3.91306e-07
-1.18157e-06
-1.16528e-06
3.77906e-07
1.56101e-06
1.47241e-06
-9.92895e-07
1.38849e-06
-1.03101e-06
1.3091e-06
-1.06646e-06
1.23408e-06
-1.0992e-06
1.16327e-06
-1.12921e-06
1.0965e-06
-1.15649e-06
1.0336e-06
-1.18105e-06
9.74389e-07
-1.20294e-06
9.18691e-07
-1.2222e-06
8.66333e-07
-1.23891e-06
8.17148e-07
-1.25314e-06
7.70968e-07
-1.26498e-06
7.27633e-07
-1.27453e-06
6.86987e-07
-1.28188e-06
6.4888e-07
-1.28713e-06
6.13167e-07
-1.29039e-06
5.7971e-07
-1.29175e-06
5.48377e-07
-1.29133e-06
5.19041e-07
-1.28924e-06
4.91582e-07
-1.28556e-06
4.65886e-07
-1.28042e-06
4.41845e-07
-1.2739e-06
4.19358e-07
-1.26611e-06
3.98327e-07
-1.25713e-06
3.78662e-07
-1.24707e-06
3.60277e-07
-1.236e-06
3.43091e-07
-1.22401e-06
3.27028e-07
-1.21119e-06
3.12018e-07
-1.19761e-06
2.97992e-07
-1.18335e-06
2.84887e-07
-1.16847e-06
-1.15303e-06
2.72645e-07
1.32315e-06
-9.06028e-07
1.24092e-06
-9.48781e-07
1.1632e-06
-9.88734e-07
1.08983e-06
-1.02583e-06
1.02066e-06
-1.06004e-06
9.55558e-07
-1.09138e-06
8.94356e-07
-1.11985e-06
8.36873e-07
-1.14545e-06
7.82913e-07
-1.16824e-06
7.32293e-07
-1.18829e-06
6.84843e-07
-1.20569e-06
6.40398e-07
-1.22054e-06
5.98793e-07
-1.23293e-06
5.59872e-07
-1.24296e-06
5.2348e-07
-1.25074e-06
4.89471e-07
-1.25638e-06
4.57703e-07
-1.25998e-06
4.28039e-07
-1.26167e-06
4.00349e-07
-1.26155e-06
3.74511e-07
-1.25973e-06
3.50406e-07
-1.25632e-06
3.27925e-07
-1.25142e-06
3.06961e-07
-1.24514e-06
2.87417e-07
-1.23759e-06
2.69199e-07
-1.22885e-06
2.52222e-07
-1.21902e-06
2.36404e-07
-1.2082e-06
2.21668e-07
-1.19646e-06
2.07942e-07
-1.18389e-06
1.9516e-07
-1.17057e-06
1.83258e-07
-1.15656e-06
-1.14195e-06
1.72176e-07
1.18085e-06
-8.21015e-07
1.10033e-06
-8.68256e-07
1.02421e-06
-9.12614e-07
9.52385e-07
-9.54007e-07
8.8474e-07
-9.92399e-07
8.21135e-07
-1.02778e-06
7.61427e-07
-1.06014e-06
7.05456e-07
-1.08948e-06
6.53044e-07
-1.11583e-06
6.04008e-07
-1.13925e-06
5.58166e-07
-1.15985e-06
5.15347e-07
-1.17772e-06
4.75383e-07
-1.19296e-06
4.38115e-07
-1.20569e-06
4.03386e-07
-1.21601e-06
3.71047e-07
-1.22404e-06
3.40951e-07
-1.22989e-06
3.12957e-07
-1.23368e-06
2.86931e-07
-1.23552e-06
2.62741e-07
-1.23554e-06
2.40264e-07
-1.23384e-06
2.19382e-07
-1.23054e-06
1.99982e-07
-1.22574e-06
1.81959e-07
-1.21956e-06
1.65216e-07
-1.21211e-06
1.49667e-07
-1.20347e-06
1.35229e-07
-1.19376e-06
1.21828e-07
-1.18306e-06
1.09393e-07
-1.17145e-06
9.78633e-08
-1.15904e-06
8.71923e-08
-1.14589e-06
-1.13211e-06
7.73478e-08
1.04265e-06
-7.37984e-07
9.6384e-07
-7.89447e-07
8.89245e-07
-8.38018e-07
8.18835e-07
-8.83597e-07
7.52543e-07
-9.26108e-07
6.90263e-07
-9.65498e-07
6.31863e-07
-1.00174e-06
5.77207e-07
-1.03483e-06
5.26148e-07
-1.06477e-06
4.78518e-07
-1.09162e-06
4.34133e-07
-1.11547e-06
3.92817e-07
-1.1364e-06
3.54397e-07
-1.15454e-06
3.18705e-07
-1.17e-06
2.85581e-07
-1.18289e-06
2.54868e-07
-1.19332e-06
2.26417e-07
-1.20144e-06
2.00083e-07
-1.20734e-06
1.75727e-07
-1.21116e-06
1.53214e-07
-1.21302e-06
1.32418e-07
-1.21304e-06
1.13218e-07
-1.21134e-06
9.54967e-08
-1.20802e-06
7.91475e-08
-1.20322e-06
6.407e-08
-1.19703e-06
5.01705e-08
-1.18957e-06
3.73647e-08
-1.18095e-06
2.55767e-08
-1.17127e-06
1.47414e-08
-1.16062e-06
4.80449e-09
-1.1491e-06
-4.27342e-09
-1.13681e-06
-1.12386e-06
-1.25174e-08
9.03871e-07
-6.57566e-07
8.27429e-07
-7.13005e-07
7.54991e-07
-7.6558e-07
6.86567e-07
-8.15173e-07
6.22138e-07
-8.61678e-07
5.61647e-07
-9.05007e-07
5.05001e-07
-9.45096e-07
4.52079e-07
-9.81903e-07
4.02736e-07
-1.01542e-06
3.56813e-07
-1.0457e-06
3.14141e-07
-1.07279e-06
2.74546e-07
-1.09681e-06
2.37856e-07
-1.11785e-06
2.03901e-07
-1.13604e-06
1.72516e-07
-1.1515e-06
1.43542e-07
-1.16435e-06
1.16827e-07
-1.17472e-06
9.22264e-08
-1.18274e-06
6.95985e-08
-1.18854e-06
4.88115e-08
-1.19224e-06
2.9739e-08
-1.19397e-06
1.22619e-08
-1.19386e-06
-3.73134e-09
-1.19203e-06
-1.83468e-08
-1.1886e-06
-3.16836e-08
-1.18369e-06
-4.38361e-08
-1.17742e-06
-5.48908e-08
-1.1699e-06
-6.49234e-08
-1.16124e-06
-7.39967e-08
-1.15154e-06
-8.21664e-08
-1.14093e-06
-8.94821e-08
-1.1295e-06
-1.11736e-06
-9.59865e-08
7.7258e-07
-5.80461e-07
6.99196e-07
-6.39621e-07
6.29574e-07
-6.95958e-07
5.63748e-07
-7.49347e-07
5.0173e-07
-7.9966e-07
4.43501e-07
-8.46778e-07
3.89002e-07
-8.90598e-07
3.38144e-07
-9.31044e-07
2.90802e-07
-9.68083e-07
2.46831e-07
-1.00173e-06
2.06072e-07
-1.03204e-06
1.68359e-07
-1.0591e-06
1.33523e-07
-1.08302e-06
1.01396e-07
-1.10392e-06
7.18153e-08
-1.12192e-06
4.46238e-08
-1.13716e-06
1.96682e-08
-1.14977e-06
-3.19645e-09
-1.15988e-06
-2.41095e-08
-1.16762e-06
-4.32025e-08
-1.17314e-06
-6.06021e-08
-1.17657e-06
-7.64262e-08
-1.17803e-06
-9.07871e-08
-1.17767e-06
-1.03789e-07
-1.1756e-06
-1.15529e-07
-1.17195e-06
-1.26097e-07
-1.16685e-06
-1.35577e-07
-1.16042e-06
-1.44042e-07
-1.15277e-06
-1.51558e-07
-1.14403e-06
-1.58185e-07
-1.1343e-06
-1.63973e-07
-1.12371e-06
-1.11236e-06
-1.6897e-07
6.57194e-07
-5.0721e-07
5.8732e-07
-5.69747e-07
5.20878e-07
-6.29516e-07
4.57928e-07
-6.86398e-07
3.9852e-07
-7.40252e-07
3.42675e-07
-7.90933e-07
2.9038e-07
-8.38302e-07
2.41581e-07
-8.82245e-07
1.96186e-07
-9.22689e-07
1.54076e-07
-9.59616e-07
1.15106e-07
-9.93066e-07
7.91231e-08
-1.02311e-06
4.59666e-08
-1.04986e-06
1.54772e-08
-1.07343e-06
-1.25041e-08
-1.09394e-06
-3.81309e-08
-1.11153e-06
-6.15522e-08
-1.12634e-06
-8.29105e-08
-1.13852e-06
-1.02343e-07
-1.14819e-06
-1.19979e-07
-1.15551e-06
-1.35942e-07
-1.16061e-06
-1.5035e-07
-1.16363e-06
-1.63311e-07
-1.16471e-06
-1.74929e-07
-1.16398e-06
-1.85301e-07
-1.16158e-06
-1.94514e-07
-1.15764e-06
-2.02649e-07
-1.15228e-06
-2.09782e-07
-1.14564e-06
-2.15979e-07
-1.13783e-06
-2.213e-07
-1.12898e-06
-2.25801e-07
-1.11921e-06
-1.10863e-06
-2.29533e-07
5.5997e-07
-4.37972e-07
4.93701e-07
-5.03478e-07
4.30476e-07
-5.66291e-07
3.70386e-07
-6.26309e-07
3.13522e-07
-6.83388e-07
2.5995e-07
-7.37362e-07
2.09708e-07
-7.8806e-07
1.62788e-07
-8.35326e-07
1.19141e-07
-8.79041e-07
7.86728e-08
-9.19149e-07
4.12641e-08
-9.55657e-07
6.77524e-09
-9.88624e-07
-2.49417e-08
-1.01814e-06
-5.40392e-08
-1.04433e-06
-8.06692e-08
-1.06731e-06
-1.04981e-07
-1.08722e-06
-1.2712e-07
-1.10421e-06
-1.47225e-07
-1.11841e-06
-1.65431e-07
-1.12999e-06
-1.81866e-07
-1.13907e-06
-1.96651e-07
-1.14582e-06
-2.099e-07
-1.15038e-06
-2.21722e-07
-1.15289e-06
-2.32217e-07
-1.15349e-06
-2.41479e-07
-1.15232e-06
-2.49597e-07
-1.14952e-06
-2.5665e-07
-1.14523e-06
-2.62711e-07
-1.13958e-06
-2.6785e-07
-1.13269e-06
-2.72127e-07
-1.1247e-06
-2.75598e-07
-1.11574e-06
-1.10591e-06
-2.78319e-07
4.8042e-07
-3.728e-07
4.17758e-07
-4.40817e-07
3.57702e-07
-5.06234e-07
3.00373e-07
-5.6898e-07
2.45906e-07
-6.2892e-07
1.94421e-07
-6.85877e-07
1.46009e-07
-7.39648e-07
1.00719e-07
-7.90035e-07
5.85467e-08
-8.36869e-07
1.94396e-08
-8.80041e-07
-1.66961e-08
-9.19521e-07
-4.99794e-08
-9.55341e-07
-8.05449e-08
-9.87578e-07
-1.08535e-07
-1.01634e-06
-1.34096e-07
-1.04175e-06
-1.57371e-07
-1.06395e-06
-1.78502e-07
-1.08308e-06
-1.97626e-07
-1.09929e-06
-2.14872e-07
-1.11274e-06
-2.30368e-07
-1.12358e-06
-2.4423e-07
-1.13196e-06
-2.56572e-07
-1.13804e-06
-2.67499e-07
-1.14196e-06
-2.77111e-07
-1.14387e-06
-2.85501e-07
-1.14393e-06
-2.92756e-07
-1.14227e-06
-2.98955e-07
-1.13903e-06
-3.04172e-07
-1.13436e-06
-3.08475e-07
-1.12839e-06
-3.11928e-07
-1.12125e-06
-3.1459e-07
-1.11308e-06
-1.10398e-06
-3.16517e-07
4.1668e-07
-3.11728e-07
3.57655e-07
-3.81791e-07
3.00767e-07
-4.49347e-07
2.4616e-07
-5.14372e-07
1.94002e-07
-5.76763e-07
1.44468e-07
-6.36342e-07
9.7707e-08
-6.92887e-07
5.383e-08
-7.46158e-07
1.28918e-08
-7.95931e-07
-2.51109e-08
-8.42039e-07
-6.02357e-08
-8.84396e-07
-9.25775e-08
-9.22999e-07
-1.22255e-07
-9.57901e-07
-1.49399e-07
-9.89194e-07
-1.7415e-07
-1.017e-06
-1.96644e-07
-1.04145e-06
-2.1702e-07
-1.0627e-06
-2.3541e-07
-1.0809e-06
-2.51942e-07
-1.09621e-06
-2.66738e-07
-1.10878e-06
-2.79914e-07
-1.11878e-06
-2.9158e-07
-1.12637e-06
-3.0184e-07
-1.1317e-06
-3.10792e-07
-1.13492e-06
-3.18528e-07
-1.13619e-06
-3.25135e-07
-1.13566e-06
-3.3069e-07
-1.13348e-06
-3.35269e-07
-1.12978e-06
-3.38942e-07
-1.12472e-06
-3.41773e-07
-1.11842e-06
-3.43823e-07
-1.11102e-06
-1.10266e-06
-3.4515e-07
3.66648e-07
-2.54956e-07
3.11413e-07
-3.26557e-07
2.57814e-07
-3.95748e-07
2.06005e-07
-4.62562e-07
1.56182e-07
-5.2694e-07
1.08565e-07
-5.88725e-07
6.33652e-08
-6.47687e-07
2.07591e-08
-7.03552e-07
-1.91291e-08
-7.56042e-07
-5.62417e-08
-8.04926e-07
-9.05875e-08
-8.50051e-07
-1.22229e-07
-8.91358e-07
-1.51263e-07
-9.28866e-07
-1.77809e-07
-9.62648e-07
-2.01995e-07
-9.92812e-07
-2.23952e-07
-1.01949e-06
-2.43814e-07
-1.04284e-06
-2.61709e-07
-1.063e-06
-2.77761e-07
-1.08016e-06
-2.92087e-07
-1.09446e-06
-3.04803e-07
-1.10607e-06
-3.16013e-07
-1.11516e-06
-3.25822e-07
-1.12189e-06
-3.34324e-07
-1.12642e-06
-3.41611e-07
-1.12891e-06
-3.47769e-07
-1.1295e-06
-3.52877e-07
-1.12837e-06
-3.57012e-07
-1.12565e-06
-3.60242e-07
-1.12149e-06
-3.62636e-07
-1.11603e-06
-3.64254e-07
-1.10941e-06
-1.10176e-06
-3.65156e-07
3.28313e-07
-2.02847e-07
2.77234e-07
-2.75478e-07
2.27213e-07
-3.45727e-07
1.78411e-07
-4.1376e-07
1.31058e-07
-4.79587e-07
8.5422e-08
-5.43089e-07
4.17751e-08
-6.04041e-07
3.66391e-10
-6.62143e-07
-3.86037e-08
-7.17072e-07
-7.50033e-08
-7.68527e-07
-1.08778e-07
-8.16276e-07
-1.39945e-07
-8.60191e-07
-1.68572e-07
-9.00239e-07
-1.94758e-07
-9.36462e-07
-2.18618e-07
-9.68952e-07
-2.40279e-07
-9.97832e-07
-2.59864e-07
-1.02325e-06
-2.77498e-07
-1.04537e-06
-2.933e-07
-1.06435e-06
-3.07384e-07
-1.08037e-06
-3.1986e-07
-1.09359e-06
-3.30832e-07
-1.10419e-06
-3.404e-07
-1.11232e-06
-3.48657e-07
-1.11816e-06
-3.55695e-07
-1.12187e-06
-3.61599e-07
-1.1236e-06
-3.66448e-07
-1.12352e-06
-3.7032e-07
-1.12177e-06
-3.73287e-07
-1.11852e-06
-3.75416e-07
-1.1139e-06
-3.76771e-07
-1.10805e-06
-1.10111e-06
-3.77413e-07
3.00544e-07
2.53733e-07
-2.28667e-07
2.0762e-07
-2.99614e-07
1.62138e-07
-3.68278e-07
1.17486e-07
-4.34936e-07
7.39712e-08
-4.99574e-07
3.19313e-08
-5.62001e-07
-8.30579e-09
-6.21906e-07
-4.64551e-08
-6.78923e-07
-8.22981e-08
-7.32684e-07
-1.15701e-07
-7.82872e-07
-1.4662e-07
-8.29272e-07
-1.75079e-07
-8.7178e-07
-2.01151e-07
-9.1039e-07
-2.24935e-07
-9.45168e-07
-2.46544e-07
-9.76223e-07
-2.66096e-07
-1.0037e-06
-2.83708e-07
-1.02776e-06
-2.99496e-07
-1.04857e-06
-3.13566e-07
-1.0663e-06
-3.26027e-07
-1.08113e-06
-3.36978e-07
-1.09324e-06
-3.46515e-07
-1.10278e-06
-3.54732e-07
-1.10994e-06
-3.61717e-07
-1.11488e-06
-3.67556e-07
-1.11776e-06
-3.7233e-07
-1.11874e-06
-3.76116e-07
-1.11799e-06
-3.78988e-07
-1.11565e-06
-3.81016e-07
-1.11187e-06
-3.82266e-07
-1.1068e-06
-1.10058e-06
-3.828e-07
2.40328e-07
-1.85343e-07
1.97877e-07
-2.57163e-07
1.55882e-07
-3.26283e-07
1.14185e-07
-3.93238e-07
7.30013e-08
-4.5839e-07
3.26952e-08
-5.21694e-07
-6.33299e-09
-5.82878e-07
-4.37077e-08
-6.41548e-07
-7.9115e-08
-6.97276e-07
-1.12327e-07
-7.49661e-07
-1.43215e-07
-7.98384e-07
-1.71746e-07
-8.43249e-07
-1.97953e-07
-8.84184e-07
-2.21911e-07
-9.2121e-07
-2.43717e-07
-9.54416e-07
-2.63482e-07
-9.83936e-07
-2.81313e-07
-1.00993e-06
-2.9732e-07
-1.03256e-06
-3.11608e-07
-1.05201e-06
-3.24276e-07
-1.06846e-06
-3.35421e-07
-1.08209e-06
-3.45135e-07
-1.09307e-06
-3.5351e-07
-1.10157e-06
-3.60633e-07
-1.10776e-06
-3.6659e-07
-1.11181e-06
-3.71462e-07
-1.11387e-06
-3.75328e-07
-1.11412e-06
-3.78265e-07
-1.11271e-06
-3.80343e-07
-1.10979e-06
-3.81633e-07
-1.10551e-06
-1.10001e-06
-3.82198e-07
2.37212e-07
-1.44607e-07
1.97475e-07
-2.17425e-07
1.58498e-07
-2.87306e-07
1.19787e-07
-3.54527e-07
8.11199e-08
-4.19723e-07
4.27267e-08
-4.83301e-07
5.01726e-09
-5.45168e-07
-3.15591e-08
-6.04972e-07
-6.65909e-08
-6.62244e-07
-9.97463e-08
-7.16505e-07
-1.30796e-07
-7.67334e-07
-1.59624e-07
-8.14422e-07
-1.86206e-07
-8.57602e-07
-2.10583e-07
-8.96832e-07
-2.32832e-07
-9.32167e-07
-2.5305e-07
-9.63718e-07
-2.71336e-07
-9.9164e-07
-2.87794e-07
-1.0161e-06
-3.02521e-07
-1.03729e-06
-3.15612e-07
-1.05537e-06
-3.27159e-07
-1.07055e-06
-3.37251e-07
-1.08298e-06
-3.45976e-07
-1.09284e-06
-3.53419e-07
-1.10032e-06
-3.59665e-07
-1.10556e-06
-3.64798e-07
-1.10874e-06
-3.68898e-07
-1.11002e-06
-3.72045e-07
-1.10956e-06
-3.74313e-07
-1.10752e-06
-3.75772e-07
-1.10405e-06
-1.0993e-06
-3.76491e-07
2.44078e-07
-1.0611e-07
2.06311e-07
-1.79659e-07
1.69386e-07
-2.50381e-07
1.33093e-07
-3.18233e-07
9.6896e-08
-3.83527e-07
6.05534e-08
-4.46958e-07
2.43161e-08
-5.08931e-07
-1.13655e-08
-5.6929e-07
-4.6005e-08
-6.27605e-07
-7.91682e-08
-6.83342e-07
-1.10517e-07
-7.35985e-07
-1.39831e-07
-7.85108e-07
-1.67006e-07
-8.30426e-07
-1.92033e-07
-8.71806e-07
-2.14957e-07
-9.09242e-07
-2.35857e-07
-9.42818e-07
-2.54823e-07
-9.72673e-07
-2.71949e-07
-9.98976e-07
-2.87328e-07
-1.02191e-06
-3.01047e-07
-1.04165e-06
-3.13194e-07
-1.0584e-06
-3.23852e-07
-1.07232e-06
-3.33105e-07
-1.08359e-06
-3.41038e-07
-1.09238e-06
-3.47734e-07
-1.09886e-06
-3.53277e-07
-1.1032e-06
-3.57751e-07
-1.10555e-06
-3.61236e-07
-1.10608e-06
-3.63813e-07
-1.10495e-06
-3.65555e-07
-1.10231e-06
-1.09832e-06
-3.66533e-07
2.59692e-07
2.2366e-07
1.88175e-07
1.5338e-07
-2.83438e-07
1.19071e-07
-3.49217e-07
8.47032e-08
-4.12591e-07
5.0055e-08
-4.74283e-07
1.54104e-08
-5.34645e-07
-1.87446e-08
-5.9345e-07
-5.1898e-08
-6.50188e-07
-8.36056e-08
-7.04277e-07
-1.13535e-07
-7.55179e-07
-1.4148e-07
-8.02481e-07
-1.67357e-07
-8.45929e-07
-1.91166e-07
-8.85433e-07
-2.12958e-07
-9.21026e-07
-2.3281e-07
-9.52822e-07
-2.50805e-07
-9.80981e-07
-2.6703e-07
-1.00568e-06
-2.81566e-07
-1.02712e-06
-2.94495e-07
-1.04547e-06
-3.05894e-07
-1.06092e-06
-3.15842e-07
-1.07364e-06
-3.24419e-07
-1.08381e-06
-3.31709e-07
-1.09157e-06
-3.37795e-07
-1.09711e-06
-3.42764e-07
-1.10058e-06
-3.46702e-07
-1.10214e-06
-3.49691e-07
-1.10196e-06
-3.51811e-07
-1.10019e-06
-1.09699e-06
-3.53137e-07
1.80126e-07
-2.49637e-07
1.46867e-07