/*--------------------------------*- C++ -*----------------------------------*\
  =========                 |
  \\      /  F ield         | OpenFOAM: The Open Source CFD Toolbox
   \\    /   O peration     | Website:  https://openfoam.org
    \\  /    A nd           | Version:  10
     \\/     M anipulation  |
\*---------------------------------------------------------------------------*/
FoamFile
{
    format      ascii;
    class       volVectorField;
    location    "30000";
    object      U;
}
// * * * * * * * * * * * * * * * * * * * * * * * * * * * * * * * * * * * * * //

dimensions      [0 1 -1 0 0 0 0];

internalField   nonuniform List<vector> 
17981
(
(0.0477511 3.42375 1.14355e-21)
(0.0451212 3.43349 -1.13556e-21)
(0.0425514 3.44274 0)
(0.0400366 3.45151 -7.1267e-21)
(0.037579 3.45981 1.56335e-20)
(0.0351815 3.46766 -8.44042e-21)
(0.0328463 3.47506 0)
(0.0305754 3.48205 7.28231e-22)
(0.0283704 3.48863 0)
(0.0262324 3.49482 0)
(0.0241624 3.50065 -8.89228e-22)
(0.0221607 3.50613 1.64124e-20)
(0.0202275 3.51128 -1.48539e-20)
(0.0183626 3.51612 0)
(0.0165656 3.52068 0)
(0.0148356 3.52496 0)
(0.0131717 3.52899 0)
(0.0115728 3.53277 -1.68702e-20)
(0.0100374 3.53633 1.61732e-20)
(0.00856418 3.53969 3.36514e-20)
(0.00715147 3.54284 -3.17613e-20)
(0.00579759 3.54581 -5.09515e-22)
(0.00450079 3.54861 0)
(0.00325927 3.55125 0)
(0.00207117 3.55373 3.22164e-20)
(0.000934639 3.55608 -3.04525e-20)
(-0.000152187 3.55829 3.13356e-20)
(-0.00119117 3.56038 -3.01148e-20)
(-0.00218416 3.56235 -4.68193e-22)
(-0.00313297 3.56422 0)
(-0.00403939 3.56598 2.26255e-22)
(-0.00490519 3.56765 -2.22177e-22)
(-0.00573208 3.56922 -2.18025e-22)
(-0.00652173 3.57071 2.74287e-20)
(-0.00727576 3.57212 -2.64125e-20)
(-0.00799576 3.57346 -2.05306e-22)
(-0.00868325 3.57472 0)
(-0.00933969 3.57592 0)
(-0.0099665 3.57705 1.92494e-22)
(-0.0105651 3.57813 -2.44678e-20)
(-0.0111367 3.57914 -1.24673e-22)
(-0.0116826 3.5801 2.27147e-20)
(-0.012204 3.58101 8.78699e-23)
(-0.0127021 3.58186 0)
(-0.013178 3.58267 0)
(-0.0136327 3.58344 0)
(-0.0140673 3.58416 0)
(-0.0144827 3.58484 -2.02731e-20)
(-0.0254218 3.4339 -6.54982e-21)
(-0.0285139 3.44382 0)
(-0.0315352 3.45323 -2.01661e-20)
(-0.0344834 3.46213 4.93677e-20)
(-0.0373558 3.47055 -2.79129e-20)
(-0.0401503 3.47849 4.18982e-20)
(-0.0428647 3.48597 -4.03902e-20)
(-0.0454976 3.49301 7.37949e-22)
(-0.0480479 3.49963 1.64105e-21)
(-0.0505147 3.50583 -5.94189e-20)
(-0.0528979 3.51165 1.18383e-19)
(-0.0551974 3.51711 -6.07004e-20)
(-0.0574136 3.52223 0)
(-0.0595474 3.52701 2.04724e-21)
(-0.0615998 3.5315 -6.90332e-20)
(-0.0635721 3.5357 6.61377e-20)
(-0.0654659 3.53963 7.02765e-20)
(-0.0672828 3.54331 -6.73349e-20)
(-0.0690249 3.54675 1.07547e-21)
(-0.070694 3.54998 0)
(-0.0722924 3.553 -5.37997e-22)
(-0.0738221 3.55584 7.00143e-20)
(-0.0752855 3.55849 -6.55939e-20)
(-0.0766849 3.56098 6.91881e-20)
(-0.0780224 3.56331 -1.3274e-19)
(-0.0793005 3.5655 6.41396e-20)
(-0.0805213 3.56756 -6.5492e-20)
(-0.0816872 3.56948 6.29299e-20)
(-0.0828003 3.5713 4.90614e-22)
(-0.0838628 3.573 0)
(-0.084877 3.5746 2.35872e-22)
(-0.0858447 3.5761 2.32739e-22)
(-0.0867681 3.57752 -5.87236e-20)
(-0.0876491 3.57885 5.69791e-20)
(-0.0884896 3.5801 -6.57616e-22)
(-0.0892915 3.58128 5.56582e-20)
(-0.0900564 3.58239 -5.34237e-20)
(-0.0907862 3.58343 0)
(-0.0914824 3.58441 5.17298e-20)
(-0.0921467 3.58534 -1.00262e-19)
(-0.0927804 3.58621 4.83974e-20)
(-0.0933851 3.58702 -4.8298e-20)
(-0.0939621 3.58779 -8.45511e-22)
(-0.0945128 3.58851 4.55368e-20)
(-0.0950384 3.58919 0)
(-0.0955401 3.58982 0)
(-0.0960191 3.59041 1.67066e-22)
(-0.0964764 3.59097 -8.27889e-23)
(-0.0971781 3.44317 0)
(-0.100753 3.45325 1.17516e-20)
(-0.104237 3.4628 -1.24619e-20)
(-0.107629 3.47183 2.9083e-20)
(-0.110924 3.48035 -3.00908e-20)
(-0.114123 3.48838 -2.4029e-21)
(-0.117222 3.49592 0)
(-0.120221 3.503 -1.59107e-21)
(-0.123119 3.50963 -5.12974e-21)
(-0.125916 3.51584 0)
(-0.128613 3.52164 1.95066e-21)
(-0.131209 3.52706 4.01693e-21)
(-0.133705 3.53212 0)
(-0.136105 3.53684 -2.09996e-23)
(-0.138408 3.54124 2.17435e-21)
(-0.140617 3.54534 0)
(-0.142734 3.54916 1.4661e-19)
(-0.144762 3.55272 -1.38173e-19)
(-0.146703 3.55603 -1.48259e-19)
(-0.14856 3.55912 1.4097e-19)
(-0.150335 3.56199 -2.23385e-21)
(-0.152031 3.56467 0)
(-0.153651 3.56717 1.0974e-21)
(-0.155198 3.56949 -1.09645e-21)
(-0.156675 3.57166 1.08019e-21)
(-0.158084 3.57367 -1.37646e-19)
(-0.159428 3.57556 1.33221e-19)
(-0.160709 3.57731 -1.03751e-21)
(-0.161931 3.57895 0)
(-0.163096 3.58047 1.2921e-19)
(-0.164207 3.5819 3.1576e-21)
(-0.165265 3.58323 -1.24019e-19)
(-0.166274 3.58447 0)
(-0.167235 3.58562 0)
(-0.168151 3.5867 -1.18743e-19)
(-0.169023 3.58771 1.14841e-19)
(-0.169855 3.58865 -4.39104e-22)
(-0.170647 3.58953 0)
(-0.171402 3.59035 4.20586e-22)
(-0.172121 3.59111 -4.11989e-22)
(-0.172807 3.59183 -1.03729e-19)
(-0.17346 3.59249 1.00082e-19)
(-0.174082 3.5931 1.92338e-22)
(-0.174676 3.59368 -1.87435e-22)
(-0.175241 3.59421 -3.66545e-22)
(-0.175781 3.5947 0)
(-0.176295 3.59516 -1.74859e-22)
(-0.176785 3.59558 -8.90432e-20)
(-0.183157 3.48933 -1.89349e-21)
(-0.186765 3.49742 2.5378e-21)
(-0.190254 3.50501 1.00469e-19)
(-0.193622 3.51212 -2.07755e-19)
(-0.19687 3.51875 1.10322e-19)
(-0.199998 3.52495 -3.7717e-21)
(-0.203006 3.53071 1.30546e-19)
(-0.205897 3.53608 -1.33096e-19)
(-0.208671 3.54107 0)
(-0.211332 3.5457 -2.23987e-21)
(-0.213881 3.55 1.47559e-19)
(-0.216321 3.55398 -1.43409e-19)
(-0.218655 3.55767 -1.48048e-19)
(-0.220886 3.56109 -1.17359e-20)
(-0.223018 3.56426 1.46715e-19)
(-0.225053 3.56719 -1.52908e-19)
(-0.226995 3.5699 1.46515e-19)
(-0.228848 3.57241 0)
(-0.230615 3.57473 1.47508e-19)
(-0.232299 3.57687 -2.91972e-19)
(-0.233903 3.57886 1.38893e-19)
(-0.235432 3.58069 1.43513e-19)
(-0.236887 3.58238 -1.36693e-19)
(-0.238273 3.58395 -1.07851e-21)
(-0.239593 3.58539 -1.38171e-19)
(-0.240849 3.58673 -9.02656e-22)
(-0.242044 3.58796 -4.86506e-21)
(-0.243181 3.5891 1.30403e-19)
(-0.244263 3.59015 1.2851e-19)
(-0.245293 3.59113 -2.49718e-19)
(-0.246273 3.59202 1.22297e-19)
(-0.247205 3.59285 -1.20943e-19)
(-0.248092 3.59361 1.16997e-19)
(-0.248935 3.59431 -1.15874e-19)
(-0.249738 3.59495 -2.95362e-21)
(-0.250502 3.59555 1.09316e-19)
(-0.251229 3.59609 1.26117e-21)
(-0.25192 3.59659 -1.05487e-19)
(-0.252578 3.59704 1.01801e-19)
(-0.253205 3.59746 3.92668e-22)
(-0.253801 3.59784 3.8351e-22)
(-0.254368 3.59818 9.59566e-20)
(-0.254908 3.59849 -9.305e-20)
(-0.255422 3.59876 0)
(-0.254113 3.49755 -5.19589e-20)
(-0.258138 3.50569 -4.97558e-21)
(-0.262022 3.51331 0)
(-0.265764 3.52043 1.14586e-19)
(-0.269365 3.52705 -1.09942e-19)
(-0.272825 3.53321 7.86623e-21)
(-0.276146 3.53893 8.32484e-21)
(-0.27933 3.54422 0)
(-0.282379 3.54912 0)
(-0.285297 3.55364 -4.6027e-21)
(-0.288087 3.55782 0)
(-0.290752 3.56167 0)
(-0.293296 3.56522 -4.85479e-21)
(-0.295722 3.56848 2.44042e-21)
(-0.298035 3.57148 -1.59456e-19)
(-0.30024 3.57423 1.52681e-19)
(-0.302339 3.57676 -1.55937e-19)
(-0.304338 3.57909 1.51758e-19)
(-0.306239 3.58121 2.39108e-21)
(-0.308049 3.58316 0)
(-0.309769 3.58494 -1.52599e-19)
(-0.311405 3.58657 -6.48908e-21)
(-0.31296 3.58806 -6.18266e-21)
(-0.314437 3.58942 1.44964e-19)
(-0.315841 3.59067 -1.44004e-19)
(-0.317175 3.5918 -4.24998e-21)
(-0.318442 3.59283 1.39404e-19)
(-0.319645 3.59376 -1.37656e-19)
(-0.320788 3.59461 1.31465e-19)
(-0.321874 3.59539 0)
(-0.322905 3.59608 1.28828e-19)
(-0.323884 3.59672 -1.26064e-19)
(-0.324813 3.59729 0)
(-0.325696 3.5978 9.37043e-22)
(-0.326535 3.59826 9.18584e-22)
(-0.327331 3.59867 8.97347e-22)
(-0.328088 3.59903 1.12292e-19)
(-0.328806 3.59936 -2.21106e-19)
(-0.329489 3.59964 1.08021e-19)
(-0.330137 3.59989 0)
(-0.330753 3.6001 0)
(-0.331338 3.60028 1.01068e-19)
(-0.331894 3.60044 -9.72551e-20)
(-0.332422 3.60056 0)
(-0.32383 3.50511 -5.56218e-20)
(-0.328282 3.51329 -8.64776e-20)
(-0.332568 3.52093 1.93892e-19)
(-0.33669 3.52803 -1.01475e-19)
(-0.340647 3.53462 -1.28231e-19)
(-0.344442 3.54073 1.18706e-19)
(-0.348077 3.54637 -4.33638e-21)
(-0.351553 3.55157 0)
(-0.354875 3.55636 -1.55022e-19)
(-0.358047 3.56076 3.11777e-19)
(-0.361072 3.56479 9.79179e-21)
(-0.363955 3.56849 -1.54466e-19)
(-0.366701 3.57186 -4.99927e-21)
(-0.369314 3.57495 -1.65513e-19)
(-0.371799 3.57776 1.58379e-19)
(-0.374162 3.58032 -1.6533e-19)
(-0.376407 3.58265 -6.28054e-21)
(-0.378539 3.58476 1.5771e-19)
(-0.380564 3.58668 -7.46973e-21)
(-0.382485 3.58841 0)
(-0.384309 3.58998 9.74455e-24)
(-0.386038 3.59139 2.41989e-21)
(-0.387678 3.59266 1.54631e-19)
(-0.389234 3.5938 3.80814e-21)
(-0.390708 3.59482 -2.96392e-19)
(-0.392106 3.59573 1.41912e-19)
(-0.393431 3.59654 -4.48168e-21)
(-0.394686 3.59726 0)
(-0.395876 3.5979 -2.79445e-19)
(-0.397003 3.59846 2.69061e-19)
(-0.398072 3.59895 0)
(-0.399084 3.59937 1.02088e-21)
(-0.400044 3.59974 2.57885e-19)
(-0.400953 3.60005 -2.49591e-19)
(-0.401814 3.60031 0)
(-0.402631 3.60053 -9.38197e-22)
(-0.403404 3.60071 9.16459e-22)
(-0.404138 3.60084 8.97365e-22)
(-0.404832 3.60095 -2.2669e-19)
(-0.405491 3.60102 2.18023e-19)
(-0.406115 3.60106 -8.36591e-22)
(-0.406707 3.60107 -2.11259e-19)
(-0.407268 3.60106 2.03309e-19)
(-0.4078 3.60103 0)
(-0.397263 3.52031 -5.08162e-21)
(-0.401962 3.52793 -6.06515e-21)
(-0.406472 3.535 0)
(-0.410793 3.54154 -7.65452e-21)
(-0.414927 3.54757 -8.27871e-21)
(-0.418876 3.55311 0)
(-0.422645 3.5582 -1.55317e-19)
(-0.426237 3.56285 1.48402e-19)
(-0.429658 3.56709 0)
(-0.432912 3.57096 -3.34709e-19)
(-0.436005 3.57448 3.24992e-19)
(-0.438944 3.57766 5.22294e-21)
(-0.441733 3.58055 0)
(-0.444379 3.58315 0)
(-0.446888 3.58549 -5.23529e-21)
(-0.449266 3.58759 0)
(-0.451519 3.58948 3.39721e-19)
(-0.453652 3.59116 -6.62601e-19)
(-0.455672 3.59266 6.56969e-19)
(-0.457583 3.59399 -3.17693e-19)
(-0.459391 3.59516 0)
(-0.461101 3.59619 3.19231e-19)
(-0.462719 3.59709 -3.09071e-19)
(-0.464248 3.59788 0)
(-0.465694 3.59855 3.09531e-19)
(-0.467061 3.59913 -5.95075e-19)
(-0.468353 3.59962 2.88275e-19)
(-0.469574 3.60002 -2.91214e-19)
(-0.470729 3.60035 2.78224e-19)
(-0.471819 3.60062 -2.80191e-19)
(-0.47285 3.60083 2.69995e-19)
(-0.473824 3.60098 0)
(-0.474745 3.60108 2.61415e-19)
(-0.475615 3.60113 -2.54092e-19)
(-0.476437 3.60115 0)
(-0.477214 3.60113 -2.47774e-19)
(-0.477949 3.60107 2.39162e-19)
(-0.478643 3.60098 -9.15303e-22)
(-0.479299 3.60087 -2.3054e-19)
(-0.479919 3.60073 4.47895e-19)
(-0.480505 3.60057 -2.16725e-19)
(-0.481059 3.60039 2.15643e-19)
(-0.481582 3.60019 2.14542e-21)
(-0.475204 3.54145 -7.06242e-21)
(-0.479893 3.5479 1.86563e-22)
(-0.484367 3.55383 8.67522e-21)
(-0.488631 3.55924 0)
(-0.492688 3.56418 -3.30079e-19)
(-0.496545 3.56866 6.27514e-19)
(-0.500207 3.57272 2.34117e-20)
(-0.503681 3.57639 2.17013e-20)
(-0.506974 3.5797 -3.46657e-19)
(-0.510093 3.58266 -5.36186e-21)
(-0.513046 3.58531 0)
(-0.515839 3.58768 -3.56238e-19)
(-0.518479 3.58978 -9.45911e-21)
(-0.520975 3.59163 3.46091e-19)
(-0.523332 3.59327 0)
(-0.525557 3.59469 2.52508e-23)
(-0.527658 3.59593 5.31757e-21)
(-0.52964 3.597 -5.26716e-21)
(-0.531509 3.59792 0)
(-0.533273 3.59869 3.31905e-19)
(-0.534935 3.59933 -3.21378e-19)
(-0.536502 3.59986 0)
(-0.537979 3.60028 2.46578e-21)
(-0.539371 3.60061 3.14395e-19)
(-0.540683 3.60085 -2.97816e-19)
(-0.541919 3.60101 0)
(-0.543083 3.6011 2.9781e-19)
(-0.54418 3.60113 -2.86933e-19)
(-0.545213 3.60111 2.21669e-21)
(-0.546186 3.60103 0)
(-0.547103 3.60091 2.13298e-21)
(-0.547966 3.60074 0)
(-0.548779 3.60055 -2.63476e-19)
(-0.549545 3.60032 5.12075e-19)
(-0.550266 3.60006 -5.00988e-19)
(-0.550945 3.59977 2.45368e-19)
(-0.551585 3.59946 0)
(-0.552187 3.59914 9.14992e-22)
(-0.552754 3.59879 -2.30032e-19)
(-0.553288 3.59843 4.46093e-19)
(-0.553791 3.59806 -2.20315e-19)
(-0.548071 3.55377 -2.69595e-19)
(-0.552882 3.55955 2.56534e-19)
(-0.557452 3.56479 0)
(-0.561788 3.56954 9.94599e-21)
(-0.565897 3.57383 1.35481e-22)
(-0.569787 3.57767 0)
(-0.573467 3.58111 0)
(-0.576943 3.58417 2.20027e-20)
(-0.580227 3.58688 5.58905e-21)
(-0.583324 3.58928 5.58757e-21)
(-0.586246 3.59137 0)
(-0.588999 3.5932 -3.68594e-19)
(-0.591593 3.59478 3.47261e-19)
(-0.594035 3.59613 3.65528e-19)
(-0.596334 3.59728 -3.44785e-19)
(-0.598496 3.59824 -5.54208e-21)
(-0.60053 3.59903 5.49031e-21)
(-0.602442 3.59966 0)
(-0.604239 3.60016 5.36695e-21)
(-0.605928 3.60052 3.42901e-19)
(-0.607515 3.60078 -3.29696e-19)
(-0.609005 3.60093 -3.37848e-19)
(-0.610404 3.60099 3.22696e-19)
(-0.611717 3.60096 -4.97599e-21)
(-0.61295 3.60087 0)
(-0.614107 3.60071 4.80483e-21)
(-0.615193 3.60049 3.06976e-19)
(-0.616212 3.60021 -2.95979e-19)
(-0.617168 3.5999 2.92886e-19)
(-0.618065 3.59954 -5.69507e-19)
(-0.618906 3.59915 2.76906e-19)
(-0.619695 3.59872 -2.75204e-19)
(-0.620434 3.59827 2.65669e-19)
(-0.621128 3.5978 -1.02321e-21)
(-0.621778 3.59731 -1.05667e-24)
(-0.622388 3.5968 9.77913e-22)
(-0.622959 3.59628 0)
(-0.623495 3.59574 -9.34521e-22)
(-0.623997 3.59519 0)
(-0.624467 3.59464 9.05053e-22)
(-0.625442 3.56979 0)
(-0.630038 3.57431 1.00666e-20)
(-0.63438 3.57835 1.06316e-20)
(-0.638478 3.58194 0)
(-0.642341 3.58511 -3.68964e-19)
(-0.64598 3.5879 3.40831e-19)
(-0.649405 3.59033 -1.14499e-20)
(-0.652627 3.59243 -5.81864e-21)
(-0.655654 3.59423 -3.81608e-19)
(-0.658499 3.59576 -1.64248e-20)
(-0.661169 3.59704 3.71183e-19)
(-0.663674 3.59809 0)
(-0.666024 3.59894 -3.76391e-19)
(-0.668227 3.59959 -1.22699e-20)
(-0.670291 3.60008 7.33724e-19)
(-0.672225 3.60042 -3.55064e-19)
(-0.674035 3.60061 -3.61292e-19)
(-0.675729 3.60068 6.98375e-19)
(-0.677314 3.60065 -3.48336e-19)
(-0.678797 3.60051 -2.66375e-21)
(-0.680184 3.60029 -2.63674e-21)
(-0.68148 3.59999 -3.30069e-19)
(-0.682692 3.59962 -6.56005e-21)
(-0.683824 3.59919 3.15042e-19)
(-0.684882 3.5987 -2.46232e-21)
(-0.685869 3.59817 0)
(-0.686791 3.59761 -2.36745e-21)
(-0.687652 3.597 0)
(-0.688456 3.59637 0)
(-0.689205 3.59571 0)
(-0.689904 3.59504 2.1836e-21)
(-0.690556 3.59434 0)
(-0.691164 3.59363 -1.04704e-21)
(-0.69173 3.59292 -9.29749e-25)
(-0.692258 3.59219 -1.00078e-21)
(-0.692749 3.59145 2.53933e-19)
(-0.693207 3.59072 -2.43597e-19)
(-0.693632 3.58998 2.44032e-19)
(-0.710351 3.58839 3.80362e-19)
(-0.714126 3.59087 -3.51394e-19)
(-0.717667 3.59299 1.19172e-20)
(-0.720985 3.59477 0)
(-0.724094 3.59625 -3.94658e-19)
(-0.727003 3.59745 3.77689e-19)
(-0.729723 3.59841 -3.31507e-23)
(-0.732267 3.59913 6.00351e-21)
(-0.734642 3.59965 0)
(-0.73686 3.59998 -5.93987e-21)
(-0.73893 3.60015 -5.91584e-21)
(-0.740861 3.60016 -3.79922e-19)
(-0.742661 3.60004 3.65152e-19)
(-0.744338 3.59981 5.72719e-21)
(-0.7459 3.59946 1.51194e-23)
(-0.747355 3.59902 3.66147e-19)
(-0.748708 3.5985 -3.47198e-19)
(-0.749967 3.59791 -2.70405e-21)
(-0.751138 3.59726 -2.65518e-21)
(-0.752226 3.59655 0)
(-0.753236 3.59579 3.31677e-19)
(-0.754175 3.595 -3.1994e-19)
(-0.755046 3.59417 3.19434e-19)
(-0.755854 3.59331 -3.10729e-19)
(-0.756603 3.59243 -3.07038e-19)
(-0.757297 3.59153 2.98823e-19)
(-0.75794 3.59062 -2.2871e-21)
(-0.758536 3.5897 -2.86197e-19)
(-0.759086 3.58877 2.76517e-19)
(-0.759596 3.58783 -2.75085e-19)
(-0.760066 3.5869 2.69042e-19)
(-0.7605 3.58596 2.63036e-19)
(-0.760901 3.58503 -2.56342e-19)
(-0.76127 3.5841 -9.94698e-22)
(-0.777494 3.59091 0)
(-0.781374 3.59305 -1.12833e-22)
(-0.785 3.59483 4.03151e-19)
(-0.788386 3.59626 -3.97641e-19)
(-0.791544 3.5974 0)
(-0.794489 3.59825 -1.24515e-20)
(-0.797232 3.59885 6.19695e-21)
(-0.799786 3.59923 4.06891e-19)
(-0.802162 3.59941 1.45127e-20)
(-0.80437 3.5994 -3.82366e-19)
(-0.806422 3.59922 -3.92597e-19)
(-0.808326 3.59891 3.8315e-19)
(-0.810093 3.59846 3.90589e-19)
(-0.811731 3.59789 -3.69795e-19)
(-0.813248 3.59723 3.86834e-19)
(-0.814652 3.59648 -3.72599e-19)
(-0.815951 3.59565 -5.71335e-21)
(-0.817152 3.59476 3.64491e-19)
(-0.818262 3.59381 -7.01682e-19)
(-0.819286 3.59281 -9.50501e-21)
(-0.820231 3.59177 3.4016e-19)
(-0.821101 3.5907 -3.40295e-19)
(-0.821903 3.5896 3.31053e-19)
(-0.822641 3.58848 -3.25153e-19)
(-0.823319 3.58735 6.37802e-19)
(-0.823942 3.58621 -3.104e-19)
(-0.824513 3.58505 0)
(-0.825036 3.5839 -2.34646e-21)
(-0.825515 3.58274 2.29774e-21)
(-0.825953 3.58158 -4.4968e-21)
(-0.826352 3.58043 -2.84374e-19)
(-0.826716 3.57929 2.76092e-19)
(-0.827047 3.57816 2.10484e-21)
(-0.827348 3.57703 0)
(-0.843787 3.59263 -3.75934e-19)
(-0.84774 3.59441 3.98328e-19)
(-0.851419 3.59581 -8.21109e-19)
(-0.854841 3.59688 4.10609e-19)
(-0.858021 3.59765 -1.28273e-20)
(-0.860973 3.59813 -4.10057e-19)
(-0.86371 3.59837 3.92347e-19)
(-0.866246 3.59839 4.15434e-19)
(-0.868594 3.5982 -4.11277e-19)
(-0.870765 3.59783 4.11135e-19)
(-0.872771 3.59731 -4.07549e-19)
(-0.874622 3.59664 0)
(-0.876329 3.59585 -6.25304e-21)
(-0.877901 3.59495 3.95736e-19)
(-0.879348 3.59395 -7.84028e-19)
(-0.880678 3.59288 3.82454e-19)
(-0.8819 3.59173 1.22253e-23)
(-0.88302 3.59052 0)
(-0.884046 3.58927 -1.15892e-20)
(-0.884986 3.58797 3.71438e-19)
(-0.885844 3.58665 -7.18083e-19)
(-0.886627 3.58529 3.49818e-19)
(-0.88734 3.58392 0)
(-0.887989 3.58254 0)
(-0.888578 3.58114 -3.36702e-19)
(-0.889112 3.57974 6.5295e-19)
(-0.889595 3.57835 -3.19096e-19)
(-0.890031 3.57695 3.17052e-19)
(-0.890422 3.57556 -3.06539e-19)
(-0.890774 3.57419 1.4831e-24)
(-0.891088 3.57282 -2.9749e-19)
(-0.891368 3.57147 2.85503e-19)
(-0.891616 3.57013 -1.10615e-21)
(-0.891835 3.56881 -2.82337e-19)
(-0.909196 3.59352 1.24715e-20)
(-0.913186 3.59491 0)
(-0.916886 3.59593 1.30909e-20)
(-0.920311 3.59661 0)
(-0.923479 3.59698 4.50008e-19)
(-0.926405 3.59708 -4.31557e-19)
(-0.929105 3.59694 0)
(-0.931593 3.59657 1.3381e-20)
(-0.933883 3.596 4.42962e-19)
(-0.935987 3.59526 -4.12403e-19)
(-0.937919 3.59437 -6.6155e-21)
(-0.93969 3.59334 6.56917e-21)
(-0.941312 3.5922 4.30059e-19)
(-0.942793 3.59095 -8.26867e-19)
(-0.944146 3.58961 4.03699e-19)
(-0.945378 3.5882 4.21673e-19)
(-0.946498 3.58673 -3.88137e-19)
(-0.947516 3.58521 -3.97842e-19)
(-0.948438 3.58364 7.87879e-19)
(-0.949271 3.58205 -3.78248e-19)
(-0.950023 3.58042 0)
(-0.950699 3.57878 0)
(-0.951305 3.57713 0)
(-0.951848 3.57547 0)
(-0.952331 3.57382 2.73779e-21)
(-0.952759 3.57216 0)
(-0.953138 3.57052 -2.63554e-21)
(-0.95347 3.56889 3.35675e-19)
(-0.953761 3.56727 -3.22147e-19)
(-0.954012 3.56566 1.32285e-24)
(-0.954227 3.56408 -3.12875e-19)
(-0.95441 3.56252 3.02727e-19)
(-0.954563 3.56098 2.32711e-21)
(-0.954689 3.55946 0)
(-0.977658 3.59454 4.08906e-19)
(-0.981342 3.59515 -4.43854e-19)
(-0.984737 3.59542 8.73312e-19)
(-0.987861 3.59539 -4.15901e-19)
(-0.99073 3.59509 1.3905e-20)
(-0.993362 3.59454 0)
(-0.995772 3.59378 -6.33129e-23)
(-0.997976 3.59282 -1.38824e-20)
(-0.999986 3.5917 4.51583e-19)
(-1.00182 3.59043 -4.2051e-19)
(-1.00348 3.58903 -2.04559e-23)
(-1.00499 3.58752 6.7951e-21)
(-1.00636 3.58592 0)
(-1.00759 3.58423 4.32765e-19)
(-1.0087 3.58248 -4.23897e-19)
(-1.0097 3.58068 4.2222e-19)
(-1.01059 3.57883 -8.23935e-19)
(-1.01139 3.57695 3.95699e-19)
(-1.01209 3.57504 6.25212e-21)
(-1.01272 3.57312 0)
(-1.01327 3.57119 0)
(-1.01375 3.56926 -3.84847e-19)
(-1.01417 3.56733 3.71993e-19)
(-1.01453 3.56541 -2.87947e-21)
(-1.01484 3.5635 0)
(-1.0151 3.56161 2.77392e-21)
(-1.01531 3.55973 -2.72063e-21)
(-1.01549 3.55788 0)
(-1.01562 3.55605 3.36542e-19)
(-1.01573 3.55425 -6.52693e-19)
(-1.0158 3.55248 3.18974e-19)
(-1.01585 3.55074 3.13277e-19)
(-1.01587 3.54903 -3.07642e-19)
(-1.04108 3.59326 4.37819e-19)
(-1.04472 3.59346 -4.31493e-19)
(-1.04805 3.59331 1.4073e-20)
(-1.0511 3.59286 4.68607e-19)
(-1.05388 3.59215 -4.3497e-19)
(-1.05641 3.59119 -1.44156e-20)
(-1.05872 3.59002 4.58368e-19)
(-1.0608 3.58867 3.22219e-20)
(-1.06269 3.58715 -4.5405e-19)
(-1.0644 3.58549 -2.15763e-20)
(-1.06593 3.58371 -1.43137e-20)
(-1.0673 3.58183 -4.68706e-19)
(-1.06853 3.57986 9.0238e-19)
(-1.06962 3.57782 -8.93991e-19)
(-1.07058 3.57572 4.29982e-19)
(-1.07144 3.57358 -4.42449e-19)
(-1.07218 3.57141 4.27173e-19)
(-1.07283 3.56921 6.65658e-21)
(-1.07339 3.56699 -4.24554e-19)
(-1.07387 3.56477 4.10255e-19)
(-1.07428 3.56255 6.36937e-21)
(-1.07462 3.56033 0)
(-1.0749 3.55813 0)
(-1.07512 3.55595 -3.90846e-19)
(-1.07529 3.55378 3.78082e-19)
(-1.07542 3.55164 3.73703e-19)
(-1.0755 3.54953 -3.64434e-19)
(-1.07555 3.54745 0)
(-1.07556 3.5454 5.51246e-21)
(-1.07555 3.54338 -3.4776e-19)
(-1.0755 3.54141 3.39307e-19)
(-1.07543 3.53947 3.33351e-19)
(-1.07534 3.53756 -3.30029e-19)
(-1.10335 3.5911 4.49646e-19)
(-1.1069 3.59086 0)
(-1.11015 3.5903 -1.46865e-20)
(-1.11309 3.58942 -9.02785e-23)
(-1.11576 3.58828 -1.49866e-20)
(-1.11817 3.58691 5.06854e-19)
(-1.12034 3.58532 -9.65084e-19)
(-1.12229 3.58356 4.88699e-19)
(-1.12403 3.58163 0)
(-1.12558 3.57958 4.89203e-19)
(-1.12696 3.57741 -4.48847e-19)
(-1.12817 3.57515 0)
(-1.12923 3.57281 4.86534e-19)
(-1.13016 3.57041 -9.37047e-19)
(-1.13096 3.56796 9.35291e-19)
(-1.13165 3.56548 1.08238e-20)
(-1.13223 3.56298 -9.07504e-19)
(-1.13271 3.56046 4.43336e-19)
(-1.13311 3.55793 -7.44961e-24)
(-1.13343 3.55541 4.40055e-19)
(-1.13368 3.5529 -4.38958e-19)
(-1.13386 3.5504 0)
(-1.13398 3.54793 0)
(-1.13405 3.54548 -4.15395e-19)
(-1.13408 3.54306 -6.02713e-21)
(-1.13406 3.54068 3.94973e-19)
(-1.134 3.53833 0)
(-1.13391 3.53603 0)
(-1.13379 3.53376 -2.91283e-21)
(-1.13364 3.53154 -2.85511e-21)
(-1.13346 3.52936 -5.59418e-21)
(-1.13327 3.52722 3.55312e-19)
(-1.13305 3.52513 -6.99235e-19)
(-1.16779 3.58743 4.62337e-19)
(-1.17091 3.58644 5.00291e-19)
(-1.17373 3.58514 -4.95134e-19)
(-1.17626 3.58357 -4.94493e-19)
(-1.17852 3.58176 4.7429e-19)
(-1.18053 3.57975 0)
(-1.18232 3.57756 -1.57936e-20)
(-1.18389 3.57522 5.13614e-19)
(-1.18527 3.57276 3.29279e-20)
(-1.18646 3.5702 -1.01898e-18)
(-1.1875 3.56755 4.83809e-19)
(-1.18838 3.56483 4.95114e-19)
(-1.18912 3.56206 -4.85497e-19)
(-1.18974 3.55926 0)
(-1.19025 3.55643 -4.88573e-19)
(-1.19065 3.55359 9.55136e-19)
(-1.19096 3.55075 -4.74264e-19)
(-1.19118 3.54791 -7.2838e-21)
(-1.19132 3.54509 0)
(-1.1914 3.54229 7.08207e-21)
(-1.19141 3.53951 0)
(-1.19137 3.53677 0)
(-1.19128 3.53406 -4.32164e-19)
(-1.19115 3.5314 4.24945e-19)
(-1.19097 3.52878 0)
(-1.19076 3.5262 0)
(-1.19053 3.52368 -3.14265e-21)
(-1.19026 3.5212 -4.00196e-19)
(-1.18997 3.51877 3.84607e-19)
(-1.18966 3.5164 2.65416e-25)
(-1.18934 3.51407 -3.76463e-19)
(-1.189 3.5118 3.69992e-19)
(-1.2272 3.58315 5.12018e-19)
(-1.23019 3.58174 -4.74979e-19)
(-1.23287 3.58002 5.11247e-19)
(-1.23525 3.57803 -5.38886e-19)
(-1.23736 3.5758 -5.19579e-19)
(-1.2392 3.57336 4.99495e-19)
(-1.24081 3.57074 0)
(-1.24221 3.56798 0)
(-1.2434 3.56512 -5.37322e-19)
(-1.24442 3.56215 5.182e-19)
(-1.24526 3.55911 2.45773e-20)
(-1.24595 3.55602 8.14164e-21)
(-1.24651 3.55288 8.08618e-21)
(-1.24693 3.54972 -5.20226e-19)
(-1.24725 3.54654 -1.21752e-20)
(-1.24745 3.54336 4.98061e-19)
(-1.24757 3.54019 5.0345e-19)
(-1.2476 3.53704 -4.87073e-19)
(-1.24756 3.53391 0)
(-1.24745 3.53082 0)
(-1.24729 3.52777 -4.76198e-19)
(-1.24707 3.52476 4.68296e-19)
(-1.2468 3.5218 4.61145e-19)
(-1.2465 3.51889 -9.03449e-19)
(-1.24616 3.51603 4.39077e-19)
(-1.24579 3.51323 -4.37448e-19)
(-1.2454 3.51048 8.56406e-19)
(-1.24499 3.5078 -4.12636e-19)
(-1.24455 3.50517 0)
(-1.2441 3.50261 4.07897e-19)
(-1.24364 3.50011 -7.88656e-19)
(-1.24317 3.49766 3.86762e-19)
(-1.28529 3.57814 -5.07312e-19)
(-1.28814 3.57635 -1.68447e-20)
(-1.29067 3.57423 1.71554e-20)
(-1.2929 3.57182 5.69333e-19)
(-1.29484 3.56916 -5.30541e-19)
(-1.29651 3.56628 3.53189e-20)
(-1.29794 3.56323 -5.78677e-19)
(-1.29915 3.56004 -2.11739e-20)
(-1.30015 3.55674 5.39622e-19)
(-1.30096 3.55335 1.76445e-20)
(-1.3016 3.5499 -1.75969e-20)
(-1.30209 3.54641 -8.74135e-21)
(-1.30243 3.54289 -8.67355e-21)
(-1.30265 3.53935 -8.58322e-21)
(-1.30276 3.53581 0)
(-1.30276 3.53228 0)
(-1.30267 3.52877 -8.30482e-21)
(-1.3025 3.5253 0)
(-1.30225 3.52186 -5.30784e-19)
(-1.30195 3.51847 -1.73818e-20)
(-1.30158 3.51514 9.96808e-19)
(-1.30118 3.51186 -9.96351e-19)
(-1.30073 3.50865 4.82272e-19)
(-1.30024 3.5055 -7.46573e-21)
(-1.29973 3.50242 -3.66847e-21)
(-1.29919 3.49941 0)
(-1.29862 3.49646 4.56109e-19)
(-1.29804 3.49358 -8.89574e-19)
(-1.29745 3.49077 4.33943e-19)
(-1.29684 3.48803 0)
(-1.29622 3.48534 4.27041e-19)
(-1.29558 3.4827 -4.15144e-19)
(-1.3422 3.57223 -5.74566e-19)
(-1.3449 3.57012 1.12395e-18)
(-1.34726 3.56764 -5.66872e-19)
(-1.34931 3.56485 1.85704e-20)
(-1.35106 3.56179 -6.32972e-19)
(-1.35253 3.55851 -2.64284e-20)
(-1.35375 3.55503 1.23512e-18)
(-1.35474 3.55141 -6.16685e-19)
(-1.35551 3.54769 6.19325e-19)
(-1.3561 3.54388 -6.15719e-19)
(-1.35651 3.54002 0)
(-1.35676 3.53612 0)
(-1.35688 3.5322 -9.29431e-21)
(-1.35687 3.52828 6.0678e-19)
(-1.35674 3.52437 -5.76946e-19)
(-1.35651 3.52048 -9.01895e-21)
(-1.35619 3.51663 -5.76689e-19)
(-1.3558 3.51282 5.57249e-19)
(-1.35533 3.50906 -5.43264e-19)
(-1.35481 3.50537 5.5048e-19)
(-1.35424 3.50174 5.51706e-19)
(-1.35362 3.49818 8.90089e-21)
(-1.35296 3.4947 -5.16785e-19)
(-1.35228 3.49129 8.0001e-21)
(-1.35156 3.48796 -5.02523e-19)
(-1.35083 3.48472 4.86399e-19)
(-1.35008 3.48155 -3.78622e-21)
(-1.34931 3.47846 0)
(-1.34854 3.47544 -4.70135e-19)
(-1.34774 3.4725 -5.35691e-21)
(-1.34694 3.46961 -8.58031e-21)
(-1.34612 3.46677 4.4899e-19)
(-1.39763 3.56551 6.2473e-19)
(-1.40014 3.56311 -5.66361e-19)
(-1.40231 3.56032 1.92774e-20)
(-1.40414 3.55718 1.96519e-20)
(-1.40567 3.55374 1.9942e-20)
(-1.40692 3.55006 6.39948e-19)
(-1.4079 3.54618 -1.32036e-18)
(-1.40864 3.54214 6.5981e-19)
(-1.40917 3.53799 2.03905e-20)
(-1.4095 3.53376 0)
(-1.40966 3.52949 -6.7715e-19)
(-1.40966 3.52518 -1.87542e-20)
(-1.40952 3.52087 6.39145e-19)
(-1.40926 3.51657 0)
(-1.40889 3.51228 -6.33429e-19)
(-1.40841 3.50804 6.21295e-19)
(-1.40786 3.50384 1.90997e-20)
(-1.40722 3.49969 6.09331e-19)
(-1.40653 3.49561 2.37868e-21)
(-1.40577 3.49161 -5.70873e-19)
(-1.40498 3.48768 0)
(-1.40414 3.48384 -5.71472e-19)
(-1.40327 3.48008 -8.95277e-21)
(-1.40238 3.47642 5.51657e-19)
(-1.40146 3.47284 -5.33074e-19)
(-1.40053 3.46936 5.28283e-19)
(-1.39958 3.46596 4.04964e-21)
(-1.39862 3.46265 0)
(-1.39765 3.45941 0)
(-1.39668 3.45625 3.84223e-21)
(-1.39569 3.45316 3.78312e-21)
(-1.39468 3.45011 0)
(-1.45119 3.55805 6.56525e-19)
(-1.4535 3.55541 -5.96659e-19)
(-1.45546 3.55235 6.51832e-19)
(-1.45707 3.5489 -6.71548e-19)
(-1.45837 3.54513 -8.51125e-23)
(-1.45938 3.54109 0)
(-1.46012 3.53682 0)
(-1.46061 3.53238 7.09834e-19)
(-1.46088 3.52782 -1.41578e-18)
(-1.46095 3.52319 6.84011e-19)
(-1.46086 3.51851 2.16695e-20)
(-1.4606 3.5138 0)
(-1.46021 3.5091 -6.92833e-19)
(-1.45969 3.50441 -1.76295e-20)
(-1.45906 3.49976 1.34075e-18)
(-1.45834 3.49515 -6.65279e-19)
(-1.45754 3.4906 6.6139e-19)
(-1.45667 3.48612 -6.28545e-19)
(-1.45573 3.48171 0)
(-1.45475 3.47739 -1.95748e-20)
(-1.45373 3.47316 9.62925e-21)
(-1.45267 3.46903 6.11389e-19)
(-1.45158 3.46499 -5.81806e-19)
(-1.45048 3.46106 -9.1504e-21)
(-1.44935 3.45722 -1.79723e-20)
(-1.44822 3.45349 -5.68761e-19)
(-1.44707 3.44985 5.51001e-19)
(-1.44592 3.44631 5.48456e-19)
(-1.44476 3.44285 1.0748e-20)
(-1.44359 3.43947 -5.28143e-19)
(-1.44242 3.43616 -5.30382e-19)
(-1.44123 3.4329 -5.60203e-21)
(-1.50273 3.54993 -3.7493e-19)
(-1.50485 3.5471 3.03156e-19)
(-1.5066 3.54382 3.54882e-19)
(-1.50801 3.54012 -3.44301e-19)
(-1.50909 3.53605 7.16481e-19)
(-1.50987 3.53168 -7.1601e-19)
(-1.51036 3.52706 0)
(-1.51061 3.52224 2.32325e-20)
(-1.51063 3.5173 7.59382e-19)
(-1.51045 3.51227 -7.32484e-19)
(-1.51009 3.50719 0)
(-1.50958 3.50209 2.30473e-20)
(-1.50893 3.49699 2.28735e-20)
(-1.50816 3.49193 0)
(-1.50728 3.4869 0)
(-1.50631 3.48193 1.10919e-20)
(-1.50527 3.47703 -2.18913e-20)
(-1.50415 3.47221 6.8739e-19)
(-1.50299 3.46748 -6.63602e-19)
(-1.50177 3.46285 6.41436e-24)
(-1.50052 3.45831 -2.06238e-20)
(-1.49924 3.45389 0)
(-1.49794 3.44957 6.33192e-19)
(-1.49662 3.44536 -6.22047e-19)
(-1.49529 3.44126 9.62358e-21)
(-1.49395 3.43728 -4.725e-21)
(-1.49261 3.43339 0)
(-1.49126 3.42961 -4.56188e-21)
(-1.48991 3.42592 -7.47881e-25)
(-1.48856 3.42232 -5.64268e-19)
(-1.48719 3.41878 5.54184e-19)
(-1.48582 3.4153 0)
(-1.55224 3.54122 -4.21713e-20)
(-1.55418 3.53826 3.62938e-19)
(-1.55575 3.53482 -3.75698e-19)
(-1.55696 3.53092 4.07386e-19)
(-1.55784 3.52661 -3.49553e-19)
(-1.5584 3.52196 -3.98611e-19)
(-1.55868 3.51701 3.86525e-19)
(-1.55869 3.51185 -4.55454e-19)
(-1.55847 3.50654 4.42014e-19)
(-1.55804 3.50112 2.49312e-20)
(-1.55743 3.49565 2.48532e-20)
(-1.55667 3.49017 -4.94577e-20)
(-1.55576 3.48469 -2.45515e-20)
(-1.55474 3.47925 -7.87979e-19)
(-1.55362 3.47385 1.55099e-18)
(-1.55241 3.46852 -7.63417e-19)
(-1.55112 3.46328 -7.47347e-19)
(-1.54977 3.45812 -1.55463e-20)
(-1.54837 3.45306 7.11071e-19)
(-1.54692 3.4481 1.12316e-20)
(-1.54545 3.44326 1.10519e-20)
(-1.54395 3.43854 0)
(-1.54243 3.43393 -1.06789e-20)
(-1.5409 3.42945 0)
(-1.53936 3.42509 -1.03093e-20)
(-1.53782 3.42084 6.68044e-19)
(-1.53628 3.41671 -1.274e-18)
(-1.53474 3.41268 6.22168e-19)
(-1.5332 3.40876 6.15006e-19)
(-1.53165 3.40492 -6.07832e-19)
(-1.53011 3.40116 4.67427e-21)
(-1.52855 3.39746 -4.6826e-21)
(-1.59977 3.53196 3.85695e-19)
(-1.60154 3.52895 0)
(-1.60294 3.52541 -3.93971e-19)
(-1.60398 3.52137 3.59792e-19)
(-1.60468 3.51688 -4.66678e-19)
(-1.60505 3.512 -1.89561e-20)
(-1.60512 3.50678 4.38566e-19)
(-1.60491 3.5013 -4.3386e-19)
(-1.60446 3.49564 3.93229e-19)
(-1.60379 3.48986 -4.88972e-19)
(-1.60294 3.48401 3.93307e-19)
(-1.60193 3.47815 -3.77699e-19)
(-1.60078 3.47229 4.41505e-19)
(-1.59952 3.46648 -2.60604e-20)
(-1.59815 3.46072 4.05006e-19)
(-1.5967 3.45503 -3.90313e-19)
(-1.59517 3.44943 1.25767e-20)
(-1.59358 3.44393 0)
(-1.59195 3.43854 0)
(-1.59028 3.43327 0)
(-1.58858 3.42812 0)
(-1.58687 3.4231 7.51902e-19)
(-1.58514 3.4182 -7.15389e-19)
(-1.5834 3.41344 0)
(-1.58165 3.40881 -7.01671e-19)
(-1.57991 3.4043 -2.06837e-20)
(-1.57817 3.39991 6.83871e-19)
(-1.57644 3.39564 5.24834e-21)
(-1.5747 3.39147 -5.16328e-21)
(-1.57297 3.3874 6.54933e-19)
(-1.57124 3.38341 -1.28446e-18)
(-1.5695 3.37949 6.50153e-19)
(-1.64536 3.52219 4.60872e-20)
(-1.64698 3.51918 -4.4731e-19)
(-1.64823 3.51562 4.15466e-19)
(-1.64913 3.51152 -4.28055e-19)
(-1.64967 3.50692 4.45749e-19)
(-1.64986 3.50186 0)
(-1.64975 3.49642 -5.61197e-20)
(-1.64934 3.49067 4.92381e-19)
(-1.64867 3.4847 -1.1717e-20)
(-1.64778 3.47857 -8.89449e-19)
(-1.6467 3.47237 -1.47354e-20)
(-1.64545 3.46613 4.48723e-19)
(-1.64406 3.45991 -2.82838e-20)
(-1.64256 3.45372 4.53999e-19)