/*--------------------------------*- C++ -*----------------------------------*\
  =========                 |
  \\      /  F ield         | OpenFOAM: The Open Source CFD Toolbox
   \\    /   O peration     | Website:  https://openfoam.org
    \\  /    A nd           | Version:  10
     \\/     M anipulation  |
\*---------------------------------------------------------------------------*/
FoamFile
{
    format      ascii;
    class       volScalarField;
    location    "51000";
    object      yPlus;
}
// * * * * * * * * * * * * * * * * * * * * * * * * * * * * * * * * * * * * * //

dimensions      [0 0 0 0 0 0 0];

internalField   uniform 0;

boundaryField
{
    right
    {
        type            cyclic;
    }
    left
    {
        type            cyclic;
    }
    outerWall
    {
        type            calculated;
        value           nonuniform List<scalar> 0();
    }
    stirrerWall
    {
        type            calculated;
        value           nonuniform List<scalar> 
98
(
2.23697
2.10863
1.99221
1.88857
1.7979
1.72009
1.65499
1.60255
1.56295
1.53711
1.54197
1.59752
1.67951
1.78901
1.932
2.11763
2.399
2.93618
4.80406
11.5642
17.7625
11.7756
10.9295
11.4179
11.8327
11.9805
11.9413
11.8307
11.6857
11.8464
11.644
11.4229
11.4992
11.505
11.4965
11.4947
11.5067
11.5024
11.5364
11.5574
10.7604
10.8649
11.1039
11.3444
11.5818
10.7831
10.9805
11.3288
11.4415
11.5094
11.8224
11.3844
11.142
11.0499
11.0339
11.0602
11.5345
11.7646
11.8656
11.8711
19.1707
19.4112
19.653
19.8999
20.1511
20.4074
20.6691
20.9367
21.2107
21.4913
21.7792
22.075
22.3794
22.6925
23.0153
23.3498
23.6974
24.0574
24.4301
24.8201
25.2353
25.6641
26.1136
26.5712
27.0705
27.6061
28.1893
28.8277
29.507
30.1972
30.9241
31.7439
32.7057
33.8432
35.1554
36.4751
37.9607
39.9063
)
;
    }
    top
    {
        type            empty;
    }
    bottom
    {
        type            empty;
    }
    procBoundary0to1
    {
        type            processor;
        value           uniform 0;
    }
    procBoundary0to3
    {
        type            processor;
        value           uniform 0;
    }
}


// ************************************************************************* //
