/*--------------------------------*- C++ -*----------------------------------*\
  =========                 |
  \\      /  F ield         | OpenFOAM: The Open Source CFD Toolbox
   \\    /   O peration     | Website:  https://openfoam.org
    \\  /    A nd           | Version:  10
     \\/     M anipulation  |
\*---------------------------------------------------------------------------*/
FoamFile
{
    format      ascii;
    class       volScalarField;
    location    "8000";
    object      nut;
}
// * * * * * * * * * * * * * * * * * * * * * * * * * * * * * * * * * * * * * //

dimensions      [0 2 -1 0 0 0 0];

internalField   nonuniform List<scalar> 
17981
(
0.000182014
0.00018423
0.000186494
0.000188782
0.000191087
0.000193405
0.000195734
0.000198072
0.000200416
0.000202767
0.000205123
0.000207484
0.00020985
0.000212221
0.000214596
0.000216976
0.000219362
0.000221754
0.000224151
0.000226554
0.000228963
0.000231379
0.000233802
0.000236234
0.000238673
0.000241122
0.000243581
0.000246049
0.000248529
0.00025102
0.000253522
0.000256037
0.000258565
0.000261106
0.000263661
0.000266231
0.000268815
0.000271414
0.000274029
0.00027666
0.000279308
0.000281973
0.000284656
0.000287357
0.000290076
0.000292815
0.000295574
0.000298354
0.000179275
0.000181611
0.00018398
0.000186373
0.000188786
0.000191213
0.000193652
0.0001961
0.000198555
0.000201015
0.00020348
0.000205949
0.00020842
0.000210893
0.000213368
0.000215845
0.000218324
0.000220804
0.000223287
0.000225771
0.000228258
0.000230747
0.000233238
0.000235733
0.000238231
0.000240733
0.00024324
0.000245753
0.000248271
0.000250797
0.00025333
0.000255872
0.000258422
0.000260982
0.000263551
0.000266132
0.000268724
0.000271328
0.000273945
0.000276575
0.000279219
0.000281878
0.000284553
0.000287243
0.000289951
0.000292676
0.000295419
0.000298182
0.000174748
0.000177163
0.000179616
0.000182101
0.000184612
0.000187145
0.000189697
0.000192263
0.000194841
0.000197427
0.00020002
0.000202617
0.000205217
0.000207818
0.00021042
0.000213021
0.000215621
0.00021822
0.000220817
0.000223412
0.000226006
0.000228598
0.000231187
0.000233775
0.000236361
0.000238946
0.000241531
0.000244117
0.000246703
0.000249292
0.000251883
0.000254477
0.000257076
0.000259679
0.000262288
0.000264904
0.000267527
0.000270158
0.000272798
0.000275448
0.000278109
0.000280781
0.000283465
0.000286163
0.000288875
0.000291603
0.000294346
0.000297106
0.000178733
0.000181365
0.000184027
0.000186715
0.000189421
0.000192143
0.000194876
0.000197616
0.000200362
0.00020311
0.000205858
0.000208605
0.000211349
0.00021409
0.000216826
0.000219556
0.000222281
0.000225
0.000227714
0.00023042
0.000233121
0.000235815
0.000238504
0.000241188
0.000243868
0.000246545
0.00024922
0.000251893
0.000254566
0.000257239
0.000259913
0.00026259
0.000265269
0.000267954
0.000270643
0.000273339
0.000276042
0.000278754
0.000281475
0.000284207
0.00028695
0.000289707
0.000292477
0.000295263
0.000171321
0.000174057
0.000176837
0.000179652
0.000182497
0.000185364
0.000188248
0.000191145
0.000194051
0.000196961
0.000199873
0.000202783
0.00020569
0.000208592
0.000211487
0.000214374
0.000217252
0.00022012
0.000222978
0.000225826
0.000228662
0.000231487
0.000234302
0.000237106
0.000239902
0.000242689
0.000245469
0.000248242
0.000251009
0.000253772
0.000256532
0.00025929
0.000262047
0.000264804
0.000267562
0.000270323
0.000273089
0.000275859
0.000278637
0.000281422
0.000284217
0.000287022
0.00028984
0.000292671
0.000162676
0.000165513
0.000168408
0.000171351
0.000174335
0.000177353
0.000180395
0.000183457
0.000186533
0.000189617
0.000192705
0.000195793
0.000198878
0.000201956
0.000205027
0.000208086
0.000211134
0.000214169
0.00021719
0.000220196
0.000223187
0.000226162
0.000229121
0.000232064
0.000234993
0.000237908
0.00024081
0.0002437
0.00024658
0.000249449
0.00025231
0.000255164
0.000258012
0.000260855
0.000263695
0.000266533
0.000269371
0.000272211
0.000275053
0.000277899
0.000280751
0.00028361
0.000286478
0.000289357
0.000156073
0.000159073
0.000162138
0.000165258
0.000168423
0.000171625
0.000174855
0.000178106
0.00018137
0.000184642
0.000187917
0.00019119
0.000194457
0.000197716
0.000200962
0.000204194
0.000207411
0.00021061
0.000213792
0.000216954
0.000220097
0.000223218
0.00022632
0.000229402
0.000232466
0.000235511
0.000238539
0.000241552
0.00024455
0.000247535
0.000250507
0.000253469
0.000256423
0.000259369
0.000262309
0.000265245
0.000268178
0.000271111
0.000274045
0.000276981
0.000279922
0.00028287
0.000285825
0.000152361
0.000155604
0.000158908
0.000162262
0.000165656
0.000169079
0.000172524
0.000175982
0.000179447
0.000182913
0.000186375
0.000189828
0.000193269
0.000196694
0.000200103
0.000203492
0.00020686
0.000210206
0.00021353
0.000216829
0.000220104
0.000223355
0.000226583
0.000229789
0.000232974
0.000236138
0.000239284
0.000242412
0.000245524
0.000248621
0.000251705
0.000254778
0.000257842
0.000260897
0.000263947
0.000266992
0.000270036
0.000273079
0.000276124
0.000279173
0.000282227
0.00014571
0.000149134
0.000152623
0.000156164
0.000159747
0.000163362
0.000166999
0.00017065
0.000174306
0.000177961
0.00018161
0.000185247
0.000188869
0.000192473
0.000196056
0.000199616
0.000203152
0.000206662
0.000210146
0.000213603
0.000217033
0.000220436
0.000223814
0.000227166
0.000230495
0.000233801
0.000237086
0.000240351
0.000243598
0.000246828
0.000250043
0.000253245
0.000256436
0.000259618
0.000262793
0.000265962
0.000269129
0.000272294
0.00027546
0.00027863
0.000143016
0.000146673
0.000150385
0.000154141
0.000157929
0.000161743
0.000165574
0.000169412
0.000173249
0.000177078
0.000180895
0.000184693
0.00018847
0.000192222
0.000195948
0.000199647
0.000203317
0.000206957
0.000210568
0.000214149
0.000217702
0.000221227
0.000224726
0.000228199
0.000231647
0.000235073
0.000238477
0.000241862
0.000245229
0.000248581
0.000251918
0.000255242
0.000258557
0.000261864
0.000265166
0.000268463
0.000271759
0.000275056
0.000149043
0.000152977
0.000156937
0.000160914
0.0001649
0.00016889
0.000172877
0.000176856
0.000180823
0.000184769
0.000188686
0.000192574
0.00019643
0.000200253
0.000204043
0.000207801
0.000211528
0.000215224
0.000218891
0.00022253
0.000226142
0.00022973
0.000233293
0.000236835
0.000240356
0.000243859
0.000247346
0.000250818
0.000254277
0.000257726
0.000261167
0.000264602
0.000268033
0.000271463
0.000140557
0.000144579
0.000148633
0.00015271
0.000156803
0.000160905
0.000165013
0.000169119
0.000173219
0.00017731
0.000181388
0.000185449
0.00018949
0.000193504
0.00019748
0.000201417
0.000205318
0.000209183
0.000213016
0.000216817
0.000220589
0.000224334
0.000228053
0.000231748
0.000235421
0.000239074
0.000242708
0.000246325
0.000249928
0.000253519
0.0002571
0.000260672
0.000264239
0.000267802
0.000132565
0.000136641
0.000140754
0.000144896
0.000149061
0.000153242
0.000157434
0.000161632
0.00016583
0.000170025
0.000174212
0.000178388
0.000182552
0.0001867
0.00019083
0.000194938
0.000199023
0.000203074
0.000207083
0.000211052
0.000214986
0.000218887
0.000222759
0.000226604
0.000230425
0.000234223
0.000238002
0.000241763
0.000245509
0.00024924
0.00025296
0.000256671
0.000260375
0.000264073
0.000125105
0.000129202
0.000133342
0.000137517
0.00014172
0.000145946
0.000150188
0.000154442
0.000158704
0.000162968
0.000167232
0.000171493
0.000175746
0.00017999
0.000184222
0.000188439
0.00019264
0.000196822
0.000200984
0.000205126
0.000209244
0.000213323
0.000217359
0.000221358
0.000225325
0.000229266
0.000233184
0.000237082
0.000240963
0.000244829
0.000248683
0.000252526
0.000256362
0.000260192
0.000122261
0.000126404
0.000130585
0.000134799
0.000139039
0.000143302
0.000147582
0.000151876
0.000156178
0.000160486
0.000164797
0.000169107
0.000173414
0.000177716
0.000182009
0.000186293
0.000190564
0.000194821
0.000199064
0.000203291
0.000207502
0.000211697
0.000215874
0.00022002
0.000224123
0.000228187
0.000232222
0.000236233
0.000240225
0.000244202
0.000248168
0.000252125
0.000256076
0.000115815
0.000119937
0.000124101
0.000128301
0.000132532
0.000136789
0.000141069
0.000145366
0.000149678
0.000154001
0.000158332
0.000162669
0.000167008
0.000171348
0.000175686
0.00018002
0.000184349
0.000188669
0.00019298
0.000197282
0.000201573
0.000205853
0.000210122
0.000214379
0.000218625
0.000222859
0.000227073
0.000231246
0.000235379
0.000239484
0.000243568
0.000247638
0.0002517
0.000109811
0.0001139
0.000118033
0.000122204
0.000126409
0.000130642
0.000134901
0.000139181
0.00014348
0.000147795
0.000152122
0.00015646
0.000160805
0.000165155
0.000169509
0.000173865
0.00017822
0.000182574
0.000186923
0.000191267
0.000195606
0.000199939
0.000204266
0.000208586
0.000212899
0.000217206
0.000221506
0.000225801
0.000230089
0.000234371
0.00023862
0.000242823
0.000246997
0.000108237
0.000112335
0.00011647
0.000120639
0.000124838
0.000129065
0.000133315
0.000137586
0.000141876
0.000146183
0.000150503
0.000154834
0.000159175
0.000163523
0.000167877
0.000172235
0.000176595
0.000180956
0.000185317
0.000189675
0.000194032
0.000198386
0.000202736
0.000207084
0.000211429
0.000215772
0.000220112
0.00022445
0.000228788
0.000233126
0.000237463
0.000241802
0.000102905
0.000106962
0.000111057
0.000115186
0.000119345
0.000123531
0.000127744
0.000131979
0.000136236
0.000140512
0.000144804
0.000149111
0.00015343
0.00015776
0.000162099
0.000166445
0.000170797
0.000175152
0.000179511
0.000183871
0.000188231
0.00019259
0.000196948
0.000201305
0.00020566
0.000210014
0.000214367
0.000218718
0.000223069
0.00022742
0.000231772
0.000236125
9.78305e-05
0.00010185
0.000105905
0.000109991
0.000114109
0.000118254
0.000122426
0.000126622
0.000130842
0.000135082
0.000139343
0.00014362
0.000147914
0.000152222
0.000156542
0.000160872
0.000165212
0.000169559
0.000173912
0.00017827
0.000182632
0.000186996
0.000191361
0.000195727
0.000200093
0.00020446
0.000208827
0.000213194
0.000217562
0.000221931
0.0002263
0.000230672
9.29531e-05
9.69363e-05
0.000100953
0.000104999
0.000109074
0.000113177
0.000117306
0.000121462
0.000125641
0.000129844
0.000134069
0.000138315
0.00014258
0.000146862
0.000151161
0.000155474
0.0001598
0.000164137
0.000168485
0.000172842
0.000177207
0.000181578
0.000185955
0.000190337
0.000194723
0.000199112
0.000203506
0.000207903
0.000212304
0.000216709
0.000221118
0.000225532
8.8225e-05
9.21708e-05
9.61502e-05
0.000100157
0.00010419
0.00010825
0.000112335
0.000116446
0.000120582
0.000124743
0.000128928
0.000133136
0.000137366
0.000141617
0.000145888
0.000150176
0.000154482
0.000158803
0.000163138
0.000167485
0.000171845
0.000176216
0.000180596
0.000184985
0.000189382
0.000193786
0.000198198
0.000202616
0.000207042
0.000211474
0.000215914
0.000220361
8.36047e-05
8.75136e-05
9.14571e-05
9.54248e-05
9.94161e-05
0.000103431
0.00010747
0.000111534
0.000115623
0.000119737
0.000123877
0.000128041
0.000132229
0.000136441
0.000140675
0.000144931
0.000149206
0.0001535
0.000157811
0.000162138
0.000166481
0.000170837
0.000175206
0.000179587
0.000183979
0.000188382
0.000192794
0.000197216
0.000201647
0.000206086
0.000210535
0.000214993
7.90657e-05
8.29352e-05
8.68395e-05
9.07694e-05
9.47189e-05
9.8689e-05
0.000102681
0.000106695
0.000110734
0.000114798
0.000118887
0.000123002
0.000127143
0.000131309
0.0001355
0.000139714
0.000143951
0.00014821
0.000152488
0.000156785
0.0001611
0.000165431
0.000169778
0.000174139
0.000178513
0.000182899
0.000187297
0.000191707
0.000196127
0.000200558
0.000204998
0.000209449
7.45908e-05
7.8417e-05
8.22785e-05
8.61692e-05
9.00766e-05
9.40009e-05
9.79438e-05
0.000101907
0.000105893
0.000109904
0.000113939
0.000118001
0.00012209
0.000126206
0.000130348
0.000134516
0.000138709
0.000142926
0.000147166
0.000151427
0.000155709
0.000160009
0.000164327
0.000168661
0.00017301
0.000177374
0.000181751
0.000186141
0.000190543
0.000194957
0.000199382
0.000203819
7.01692e-05
7.39521e-05
7.77639e-05
8.16064e-05
8.54715e-05
8.93496e-05
9.32429e-05
9.71539e-05
0.000101085
0.00010504
0.000109019
0.000113024
0.000117057
0.000121119
0.000125208
0.000129326
0.000133471
0.000137643
0.00014184
0.000146061
0.000150306
0.000154571
0.000158857
0.000163161
0.000167483
0.000171821
0.000176174
0.000180542
0.000184923
0.000189318
0.000193724
0.000198143
6.57941e-05
6.95285e-05
7.32908e-05
7.708e-05
8.08956e-05
8.4726e-05
8.85681e-05
9.24247e-05
9.62994e-05
0.000100195
0.000104115
0.000108061
0.000112035
0.000116038
0.000120071
0.000124135
0.000128228
0.000132351
0.000136502
0.00014068
0.000144884
0.000149112
0.000153362
0.000157634
0.000161926
0.000166237
0.000170564
0.000174908
0.000179268
0.000183641
0.000188028
0.000192428
6.14687e-05
6.51468e-05
6.88563e-05
7.25884e-05
7.63458e-05
8.01252e-05
8.39139e-05
8.77141e-05
9.15296e-05
9.53641e-05
9.92212e-05
0.000103104
0.000107015
0.000110957
0.00011493
0.000118935
0.000122973
0.000127042
0.000131143
0.000135274
0.000139434
0.000143621
0.000147833
0.00015207
0.00015633
0.00016061
0.000164911
0.000169229
0.000173564
0.000177916
0.000182282
0.000186662
5.72005e-05
6.08118e-05
6.44613e-05
6.8135e-05
7.18298e-05
7.55473e-05
7.92802e-05
8.30213e-05
8.67748e-05
9.0545e-05
9.43364e-05
9.81527e-05
0.000101997
0.000105873
0.000109781
0.000113723
0.000117701
0.000121712
0.000125758
0.000129838
0.000133949
0.000138091
0.000142262
0.000146461
0.000150684
0.000154932
0.000159202
0.000163493
0.000167802
0.00017213
0.000176474
0.000180833
5.65302e-05
6.01119e-05
6.3722e-05
6.73507e-05
7.10009e-05
7.46713e-05
7.83499e-05
8.20381e-05
8.57406e-05
8.94625e-05
9.32082e-05
9.69818e-05
0.000100787
0.000104626
0.0001085
0.000112412
0.000116361
0.000120347
0.00012437
0.000128428
0.000132521
0.000136646
0.000140801
0.000144986
0.000149197
0.000153434
0.000157694
0.000161975
0.000166276
0.000170596
0.000174933
5.23259e-05
5.58251e-05
5.93617e-05
6.29205e-05
6.64967e-05
7.00937e-05
7.37062e-05
7.73256e-05
8.09568e-05
8.46054e-05
8.82765e-05
9.19749e-05
9.57046e-05
9.94692e-05
0.000103271
0.000107112
0.000110993
0.000114914
0.000118875
0.000122875
0.000126913
0.000130987
0.000135095
0.000139236
0.000143407
0.000147607
0.000151832
0.000156082
0.000160354
0.000164647
0.000168959
4.82073e-05
5.16095e-05
5.50614e-05
5.85426e-05
6.20418e-05
6.55607e-05
6.90996e-05
7.26462e-05
7.62024e-05
7.97738e-05
8.33663e-05
8.69851e-05
9.06352e-05
9.43206e-05
9.80445e-05
0.000101809
0.000105617
0.000109467
0.000113361
0.000117298
0.000121276
0.000125294
0.00012935
0.000133442
0.000137568
0.000141727
0.000145914
0.000150129
0.00015437
0.000158633
0.000162918
4.41931e-05
4.74798e-05
5.08332e-05
5.42285e-05
5.76474e-05
6.10828e-05
6.45384e-05
6.80093e-05
7.14872e-05
7.49781e-05
7.84882e-05
8.20235e-05
8.55896e-05
8.91912e-05
9.28325e-05
9.65164e-05
0.000100245
0.00010402
0.000107841
0.000111708
0.000115621
0.000119578
0.000123577
0.000127616
0.000131693
0.000135805
0.000139951
0.000144128
0.000148333
0.000152564
0.000156819
4.99845e-05
5.33188e-05
5.66708e-05
6.00392e-05
6.34274e-05
6.68235e-05
7.02303e-05
7.36544e-05
7.71023e-05
8.05804e-05
8.40941e-05
8.76481e-05
9.12462e-05
9.48911e-05
9.85848e-05
0.000102328
0.000106121
0.000109964
0.000113854
0.000117791
0.000121772
0.000125795
0.000129858
0.000133958
0.000138092
0.000142258
0.000146454
0.000150677
4.58396e-05
4.9076e-05
5.23371e-05
5.56144e-05
5.89112e-05
6.22222e-05
6.55418e-05
6.88767e-05
7.2234e-05
7.56205e-05
7.90423e-05
8.2505e-05
8.6013e-05
8.95697e-05
9.31777e-05
9.68384e-05
0.000100552
0.000104319
0.000108139
0.000112009
0.000115927
0.000119892
0.000123901
0.000127951
0.00013204
0.000136165
0.000140322
0.00014451
4.17966e-05
4.49247e-05
4.8088e-05
5.12723e-05
5.44735e-05
5.76928e-05
6.0923e-05
6.41664e-05
6.74303e-05
7.07222e-05
7.40489e-05
7.74166e-05
8.08305e-05
8.4295e-05
8.78131e-05
9.13868e-05
9.50173e-05
9.87048e-05
0.000102449
0.000106247
0.000110099
0.000114002
0.000117953
0.00012195
0.00012599
0.000130069
0.000134186
0.000138337
3.78683e-05
4.08751e-05
4.39315e-05
4.70172e-05
5.01219e-05
5.32467e-05
5.63842e-05
5.9534e-05
6.27024e-05
6.58972e-05
6.91259e-05
7.23955e-05
7.5712e-05
7.90805e-05
8.25048e-05
8.59877e-05
8.95307e-05
9.31344e-05
9.67987e-05
0.000100523
0.000104304
0.000108141
0.000112031
0.000115972
0.000119959
0.000123991
0.000128064
0.000132176
3.40722e-05
3.69409e-05
3.98794e-05
4.286e-05
4.58663e-05
4.88916e-05
5.19334e-05
5.49889e-05
5.80606e-05
6.11565e-05
6.4285e-05
6.74537e-05
7.06697e-05
7.39388e-05
7.72657e-05
8.06539e-05
8.41056e-05
8.7622e-05
9.12032e-05
9.48484e-05
9.85562e-05
0.000102324
0.00010615
0.000110032
0.000113965
0.000117947
0.000121974
0.000126045
3.043e-05
3.31381e-05
3.5944e-05
3.881e-05
4.17123e-05
4.46381e-05
4.75839e-05
5.05415e-05
5.35157e-05
5.65115e-05
5.95378e-05
6.26032e-05
6.57157e-05
6.8882e-05
7.21078e-05
7.53976e-05
7.87542e-05
8.21794e-05
8.56739e-05
8.92372e-05
9.2868e-05
9.65643e-05
0.000100324
0.000104143
0.000108019
0.000111949
0.00011593
0.000119957
2.6972e-05
2.94892e-05
3.21424e-05
3.4881e-05
3.76719e-05
4.0495e-05
4.33407e-05
4.62021e-05
4.90785e-05
5.19737e-05
5.48964e-05
5.78563e-05
6.08622e-05
6.39222e-05
6.70431e-05
7.02303e-05
7.34876e-05
7.68176e-05
8.02215e-05
8.36992e-05
8.72497e-05
9.08712e-05
9.4561e-05
9.83163e-05
0.000102134
0.00010601
0.000109942
0.000113925
2.37392e-05
2.60242e-05
2.84968e-05
3.10903e-05
3.3759e-05
3.64735e-05
3.92171e-05
4.1983e-05
4.47598e-05
4.75549e-05
5.03736e-05
5.32262e-05
5.61229e-05
5.9073e-05
6.20846e-05
6.51645e-05
6.83177e-05
7.15476e-05
7.48563e-05
7.82441e-05
8.17105e-05
8.52536e-05
8.88711e-05
9.25598e-05
9.63163e-05
0.000100137
0.000104018
0.000107956
2.07856e-05
2.27836e-05
2.50369e-05
2.746e-05
2.99911e-05
3.25887e-05
3.5227e-05
3.78922e-05
4.05737e-05
4.32679e-05
4.59833e-05
4.87279e-05
5.1513e-05
5.43495e-05
5.72472e-05
6.02144e-05
6.32577e-05
6.63818e-05
6.95895e-05
7.28821e-05
7.62595e-05
7.97201e-05
8.32614e-05
8.68805e-05
9.05735e-05
9.43366e-05
9.81659e-05
0.000102057
1.81793e-05
1.98203e-05
2.1802e-05
2.40185e-05
2.6389e-05
2.8856e-05
3.13816e-05
3.3943e-05
3.65292e-05
3.91268e-05
4.17397e-05
4.43766e-05
4.70488e-05
4.97686e-05
5.25478e-05
5.53966e-05
5.83234e-05
6.13346e-05
6.44345e-05
6.76253e-05
7.09075e-05
7.428e-05
7.77406e-05
8.12859e-05
8.49122e-05
8.86151e-05
9.23903e-05
9.62334e-05
1.60017e-05
1.72024e-05
1.88444e-05
2.08044e-05
2.29806e-05
2.52965e-05
2.76982e-05
3.01511e-05
3.26352e-05
3.51416e-05
3.76548e-05
4.01867e-05
4.27464e-05
4.53478e-05
4.80046e-05
5.07293e-05
5.35326e-05
5.64232e-05
5.9407e-05
6.2488e-05
6.56675e-05
6.89451e-05
7.23187e-05
7.57852e-05
7.93404e-05
8.29796e-05
8.6698e-05
9.04908e-05
1.43412e-05
1.50125e-05
1.62318e-05
1.78686e-05
1.98026e-05
2.19359e-05
2.41954e-05
2.6531e-05
2.8911e-05
3.13184e-05
3.37399e-05
3.61693e-05
3.86199e-05
4.11035e-05
4.36357e-05
4.62316e-05
4.89048e-05
5.16665e-05
5.45254e-05
5.74871e-05
6.05548e-05
6.3729e-05
6.70083e-05
7.03894e-05
7.3868e-05
7.7439e-05
8.10971e-05
8.48368e-05
1.32765e-05
1.33416e-05
1.40476e-05
1.52784e-05
1.69047e-05
1.8809e-05
2.08965e-05
2.30976e-05
2.53653e-05
2.76708e-05
2.99998e-05
3.23356e-05
3.46805e-05
3.70494e-05
3.94573e-05
4.19218e-05
4.44593e-05
4.70844e-05
4.98089e-05
5.26413e-05
5.55869e-05
5.86478e-05
6.18235e-05
6.51113e-05
6.85066e-05
7.20039e-05
7.55973e-05
7.92805e-05
1.28465e-05
1.22705e-05
1.23837e-05
1.31173e-05
1.43536e-05
1.59646e-05
1.78351e-05
1.98736e-05
2.20136e-05
2.42109e-05
2.64395e-05
2.86878e-05
3.09359e-05
3.31953e-05
3.54823e-05
3.78153e-05
4.02138e-05
4.26959e-05
4.52772e-05
4.79698e-05
5.0782e-05
5.37185e-05
5.67802e-05
5.99651e-05
6.3269e-05
6.66859e-05
7.02092e-05
7.38317e-05
1.30132e-05
1.18381e-05
1.13211e-05
1.14763e-05
1.22314e-05
1.34677e-05
1.50584e-05
1.68909e-05
1.88768e-05
2.09524e-05
2.30765e-05
2.52259e-05
2.73875e-05
2.95459e-05
3.17188e-05
3.39239e-05
3.6183e-05
3.85181e-05
4.09487e-05
4.34915e-05
4.61589e-05
4.89588e-05
5.18945e-05
5.49657e-05
5.81686e-05
6.14971e-05
6.49438e-05
6.85006e-05
1.36412e-05
1.20026e-05
1.08959e-05
1.04335e-05
1.06258e-05
1.1397e-05
1.26281e-05
1.41936e-05
1.59836e-05
1.79125e-05
1.99199e-05
2.19673e-05
2.40346e-05
2.61039e-05
2.81705e-05
3.02548e-05
3.23781e-05
3.45651e-05
3.68401e-05
3.92245e-05
4.17358e-05
4.43863e-05
4.71831e-05
5.01281e-05
5.32189e-05
5.64495e-05
5.9812e-05
6.32972e-05
1.45164e-05
1.26211e-05
1.10613e-05
1.00207e-05
9.61011e-06
9.83565e-06
1.06186e-05
1.18395e-05
1.33748e-05
1.51174e-05
1.69846e-05
1.8919e-05
2.08852e-05
2.28662e-05
2.48394e-05
2.68113e-05
2.88057e-05
3.08477e-05
3.29652e-05
3.51849e-05
3.75299e-05
4.00185e-05
4.26625e-05
4.54676e-05
4.84336e-05
5.15554e-05
5.48247e-05
5.82312e-05
1.54048e-05
1.34731e-05
1.16689e-05
1.01865e-05
9.21105e-06
8.85076e-06
9.10692e-06
9.89785e-06
1.11042e-05
1.26044e-05
1.42943e-05
1.60946e-05
1.7951e-05
1.98311e-05
2.1721e-05
2.35933e-05
2.5468e-05
2.73719e-05
2.93342e-05
3.13863e-05
3.35574e-05
3.58724e-05
3.83496e-05
4.09999e-05
4.38267e-05
4.6827e-05
4.99927e-05
5.33124e-05
1.61293e-05
1.43252e-05
1.24943e-05
1.07781e-05
9.37286e-06
8.46328e-06
8.15325e-06
8.43845e-06
9.23423e-06
1.04217e-05
1.1882e-05
1.35142e-05
1.52425e-05
1.70162e-05
1.88067e-05
2.05933e-05
2.23624e-05
2.41391e-05
2.59531e-05
2.7839e-05
2.98318e-05
3.19636e-05
3.42605e-05
3.67406e-05
3.94127e-05
4.22771e-05
4.5327e-05
4.85503e-05
1.68137e-05
1.4997e-05
1.33013e-05
1.15683e-05
9.94025e-06
8.61423e-06
7.77297e-06
7.51428e-06
7.82742e-06
8.62502e-06
9.78927e-06
1.12043e-05
1.27731e-05
1.44237e-05
1.6109e-05
1.78044e-05
1.94826e-05
2.11454e-05
2.28225e-05
2.45487e-05
2.63634e-05
2.83058e-05
3.04108e-05
3.27053e-05
3.5206e-05
3.79184e-05
4.08385e-05
4.39543e-05
1.56061e-05
1.39151e-05
1.23244e-05
1.06882e-05
9.14973e-06
7.90607e-06
7.13609e-06
6.92978e-06
7.2694e-06
8.0653e-06
9.20144e-06
1.05657e-05
1.20651e-05
1.3632e-05
1.52233e-05
1.68184e-05
1.83831e-05
1.99371e-05
2.15151e-05
2.31575e-05
2.49092e-05
2.68138e-05
2.89087e-05
3.12207e-05
3.37636e-05
3.65378e-05
3.95333e-05
1.59493e-05
1.44474e-05
1.28807e-05
1.13907e-05
9.85016e-06
8.40291e-06
7.24483e-06
6.54868e-06
6.39488e-06
6.7585e-06
7.5483e-06
8.65089e-06
9.95846e-06
1.13829e-05
1.28612e-05
1.4355e-05
1.58369e-05
1.72864e-05
1.87318e-05
2.02137e-05
2.17795e-05
2.34802e-05
2.53642e-05
2.74707e-05
2.98249e-05
3.24354e-05
3.52954e-05
1.33357e-05
1.18872e-05
1.04958e-05
9.05102e-06
7.69737e-06
6.62779e-06
6.0068e-06
5.904e-06
6.28751e-06
7.06554e-06
8.12821e-06
9.37268e-06
1.0716e-05
1.21e-05
1.34912e-05
1.48541e-05
1.61872e-05
1.75258e-05
1.89172e-05
2.04169e-05
2.20833e-05
2.39695e-05
2.61153e-05
2.85414e-05
3.12482e-05
1.35004e-05
1.22641e-05
1.0937e-05
9.64131e-06
8.29182e-06
7.03305e-06
6.05317e-06
5.50646e-06
5.45084e-06
5.84828e-06
6.60765e-06
7.62343e-06
8.79826e-06
1.00546e-05
1.13393e-05
1.26236e-05
1.38643e-05
1.50812e-05
1.63168e-05
1.76265e-05
1.90755e-05
2.07304e-05
2.26485e-05
2.48676e-05
2.74e-05
1.23541e-05
1.12412e-05
1.00296e-05
8.82715e-06
7.5724e-06
6.40888e-06
5.51821e-06
5.04263e-06
5.02835e-06
5.43243e-06
6.16567e-06
7.12784e-06
8.22759e-06
9.3932e-06
1.0577e-05
1.17428e-05
1.28625e-05
1.39664e-05
1.51057e-05
1.63468e-05
1.77664e-05
1.94403e-05
2.14281e-05
2.37611e-05
1.19832e-05
1.12675e-05
1.02707e-05
9.1678e-06
8.05771e-06
6.89738e-06
5.82719e-06
5.02127e-06
4.61054e-06
4.62982e-06
5.0322e-06
5.73157e-06
6.63355e-06
7.65302e-06
8.72396e-06
9.80395e-06
1.08482e-05
1.18488e-05
1.28446e-05
1.38978e-05
1.50886e-05
1.65081e-05
1.82412e-05
2.03458e-05
1.12959e-05
1.08792e-05
1.02478e-05
9.35423e-06
8.35168e-06
7.33071e-06
6.26438e-06
5.28729e-06
4.56117e-06
4.2061e-06
4.2495e-06
4.64139e-06
5.29936e-06
6.13528e-06
7.07027e-06
8.04372e-06
9.01808e-06
9.94116e-06
1.08258e-05
1.17209e-05
1.27025e-05
1.38692e-05
1.53291e-05
1.71739e-05
1.02115e-05
9.85622e-06
9.29817e-06
8.49549e-06
7.58366e-06
6.64759e-06
5.67251e-06
4.78607e-06
4.13559e-06
3.82677e-06
3.88383e-06
4.25654e-06
4.86649e-06
5.63202e-06
6.4805e-06
7.35679e-06
8.21994e-06
9.02465e-06
9.79875e-06
1.06042e-05
1.15356e-05
1.27156e-05
1.42714e-05
9.39546e-06
9.21824e-06
8.9138e-06
8.41913e-06
7.69557e-06
6.86452e-06
6.00882e-06
5.12132e-06
4.32124e-06
3.7409e-06
3.47045e-06
3.53176e-06
3.87709e-06
4.43321e-06
5.12502e-06
5.88587e-06
6.66563e-06
7.41427e-06
8.10534e-06
8.77698e-06
9.50824e-06
1.04208e-05
1.16686e-05
8.45715e-06
8.31415e-06
8.05025e-06
7.60884e-06
6.95338e-06
6.19425e-06
5.41427e-06
4.61013e-06
3.89126e-06
3.37415e-06
3.13406e-06
3.19162e-06
3.50303e-06
4.00086e-06
4.61657e-06
5.28905e-06
5.97254e-06
6.60987e-06
7.19245e-06
7.77191e-06
8.45233e-06
9.39419e-06
7.65437e-06
7.61137e-06
7.49222e-06
7.25897e-06
6.86152e-06
6.26499e-06
5.57061e-06
4.86195e-06
4.13673e-06
3.49326e-06
3.03226e-06
2.81594e-06
2.86322e-06
3.13611e-06
3.57318e-06
4.11226e-06
4.69723e-06
5.2859e-06
5.81491e-06
6.29474e-06
6.79711e-06
7.46432e-06
6.85571e-06
6.87491e-06
6.84459e-06
6.74074e-06
6.52968e-06
6.16833e-06
5.6239e-06
4.98936e-06
4.34787e-06
3.6968e-06
3.12267e-06
2.71144e-06
2.51466e-06
2.54853e-06
2.78071e-06
3.1567e-06
3.6206e-06
4.12079e-06
4.61233e-06
5.03544e-06
5.42072e-06
5.87156e-06
6.13879e-06
6.16309e-06
6.13811e-06
6.04277e-06
5.84799e-06
5.51752e-06
5.02163e-06
4.44463e-06
3.86675e-06
3.28532e-06
2.77496e-06
2.40816e-06
2.22755e-06
2.24789e-06
2.44013e-06
2.75693e-06
3.14816e-06
3.56631e-06
3.95565e-06
4.27638e-06
4.58179e-06
5.41299e-06
5.47001e-06
5.49277e-06
5.46818e-06
5.378e-06
5.1977e-06
4.89708e-06
4.44958e-06
3.92979e-06
3.41309e-06
2.8976e-06
2.44631e-06
2.11981e-06
1.95356e-06
1.9616e-06
2.11675e-06
2.3773e-06
2.6977e-06
3.03344e-06
3.32017e-06
3.54389e-06
4.68757e-06
4.76301e-06
4.8146e-06
4.83355e-06
4.80882e-06
4.72518e-06
4.5621e-06
4.29459e-06
3.89957e-06
3.43934e-06
2.98242e-06
2.52953e-06
2.13297e-06
1.84388e-06
1.69298e-06
1.69123e-06
1.8131e-06
2.02108e-06
2.27259e-06
2.52413e-06
2.70707e-06
4.02596e-06
4.09394e-06
4.14057e-06
4.15855e-06
4.13847e-06
4.06763e-06
3.92899e-06
3.70187e-06
3.36681e-06
2.97042e-06
2.57204e-06
2.17851e-06
1.83265e-06
1.57882e-06
1.44477e-06
1.43694e-06
1.53072e-06
1.69123e-06
1.87735e-06
2.03409e-06
3.23695e-06
3.31591e-06
3.38268e-06
3.43154e-06
3.45624e-06
3.44911e-06
3.39999e-06
3.29524e-06
3.11804e-06
2.85205e-06
2.52394e-06
2.18224e-06
1.84495e-06
1.54608e-06
1.3258e-06
1.21022e-06
1.20002e-06
1.27012e-06
1.38553e-06
1.50318e-06
2.40565e-06
2.49205e-06
2.57441e-06
2.64701e-06
2.70475e-06
2.74258e-06
2.75476e-06
2.73384e-06
2.66974e-06
2.54966e-06
2.36042e-06
2.1034e-06
1.8144e-06
1.53083e-06
1.27571e-06
1.08752e-06
9.91688e-07
9.81829e-07
1.03074e-06
1.09995e-06
1.59893e-06
1.68667e-06
1.77743e-06
1.86397e-06
1.94239e-06
2.00882e-06
2.05951e-06
2.0905e-06
2.09686e-06
2.07176e-06
2.00563e-06
1.88663e-06
1.70136e-06
1.47025e-06
1.23742e-06
1.02318e-06
8.66337e-07
7.9086e-07
7.8251e-07
8.09519e-07
9.50371e-07
1.01579e-06
1.09323e-06
1.17454e-06
1.2552e-06
1.33108e-06
1.39862e-06
1.45492e-06
1.49737e-06
1.52295e-06
1.5272e-06
1.50284e-06
1.43833e-06
1.31934e-06
1.15129e-06
9.65212e-07
7.90035e-07
6.66057e-07
6.10568e-07
6.00521e-07
5.01951e-07
5.43759e-07
5.95186e-07
6.54383e-07
7.17789e-07
7.82209e-07
8.44784e-07
9.03082e-07
9.55135e-07
9.99295e-07
1.03377e-06
1.05574e-06
1.05992e-06
1.03666e-06
9.7114e-07
8.56824e-07
7.13623e-07
5.76651e-07
4.86347e-07
4.47313e-07
2.22765e-07
2.44241e-07
2.72092e-07
3.06079e-07
3.45386e-07
3.88326e-07
4.33047e-07
4.77847e-07
5.21466e-07
5.63005e-07
6.01761e-07
6.36863e-07
6.66717e-07
6.87748e-07
6.92192e-07
6.65192e-07
5.92755e-07
4.87552e-07
3.89325e-07
3.33403e-07
8.18042e-08
8.98984e-08
1.02768e-07
1.19023e-07
1.37318e-07
1.56941e-07
1.77651e-07
1.99414e-07
2.22369e-07
2.46717e-07
2.72631e-07
3.00136e-07
3.28992e-07
3.58541e-07
3.86853e-07
4.07981e-07
4.07666e-07
3.67031e-07
2.96019e-07
2.36118e-07
2.25682e-08
2.52353e-08
2.85865e-08
3.27802e-08
3.77646e-08
4.34192e-08
4.9793e-08
5.69528e-08
6.50607e-08
7.43747e-08
8.5211e-08
9.79674e-08
1.13011e-07
1.30751e-07
1.51584e-07
1.75268e-07
1.98729e-07
2.10169e-07
1.90554e-07
1.55341e-07
3.81567e-09
4.21669e-09
4.92367e-09
5.73119e-09
6.53556e-09
7.31775e-09
8.18267e-09
9.15036e-09
1.03362e-08
1.19127e-08
1.4062e-08
1.69798e-08
2.08871e-08
2.60904e-08
3.29797e-08
4.20952e-08
5.40832e-08
6.8412e-08
7.7173e-08
6.59421e-08
2.04768e-10
2.30098e-10
2.55808e-10
2.82859e-10
3.10593e-10
3.4218e-10
3.8009e-10
4.37301e-10
5.26295e-10
6.60294e-10
8.55477e-10
1.13385e-09
1.52776e-09
2.09032e-09
2.898e-09
4.08032e-09
5.88677e-09
8.89331e-09
1.39474e-08
1.82763e-08
1.38351e-12
1.67608e-12
1.95782e-12
2.23574e-12
2.50214e-12
2.76978e-12
3.07034e-12
3.49246e-12
4.12362e-12
5.08616e-12
6.56528e-12
8.98722e-12
1.29554e-11
1.96449e-11
3.10967e-11
5.14605e-11
8.91839e-11
1.75711e-10
4.45358e-10
2.05652e-09
0.00066837
0.0006599
0.000652056
0.000645325
0.00064024
0.000637028
0.000635598
0.00063559
0.000636462
0.000637619
0.000638543
0.000638871
0.000638409
0.000637128
0.000635108
0.000632597
0.000628151
0.000606024
0.000583795
0.000561533
0.000539303
0.000517091
0.000494867
0.000472645
0.00045045
0.000428318
0.000406282
0.000384378
0.000362643
0.000341111
0.000319822
0.00029881
0.000278115
0.000257773
0.000237822
0.000218297
0.000199234
0.000180666
0.000162628
0.000145148
0.000128254
0.000111972
9.63181e-05
8.13362e-05
6.70902e-05
5.36119e-05
4.09561e-05
2.92342e-05
1.8686e-05
9.84985e-06
3.83532e-06
9.93341e-07
2.39706e-07
8.46644e-08
8.81678e-09
0.000662776
0.000654139
0.000646215
0.000639422
0.000634307
0.000631065
0.000629564
0.000629388
0.000629937
0.000630561
0.000630695
0.000629941
0.000628099
0.000625107
0.000620756
0.0006152
0.000609366
0.000601738
0.000580645
0.000558522
0.000536343
0.000514141
0.000491928
0.000469722
0.00044755
0.000425443
0.000403435
0.000381559
0.000359853
0.00033835
0.000317088
0.000296104
0.000275432
0.00025511
0.000235173
0.000215654
0.000196585
0.000177998
0.000159919
0.000142374
0.00012538
0.000108953
9.30948e-05
7.78508e-05
6.32838e-05
4.94338e-05
3.63987e-05
2.4424e-05
1.40785e-05
6.46524e-06
2.24674e-06
5.92215e-07
1.69843e-07
7.05617e-08
1.39716e-08
0.000664887
0.0006566
0.000649106
0.000642865
0.00063844
0.000636038
0.000635513
0.000636411
0.000638066
0.000639754
0.000640841
0.000640893
0.000639735
0.000637235
0.000633339
0.000629169
0.000621226
0.000599469
0.000577542
0.000555489
0.000533358
0.000511183
0.00048899
0.000466804
0.000444655