/*--------------------------------*- C++ -*----------------------------------*\
  =========                 |
  \\      /  F ield         | OpenFOAM: The Open Source CFD Toolbox
   \\    /   O peration     | Website:  https://openfoam.org
    \\  /    A nd           | Version:  10
     \\/     M anipulation  |
\*---------------------------------------------------------------------------*/
FoamFile
{
    format      ascii;
    class       volScalarField;
    location    "71000";
    object      k;
}
// * * * * * * * * * * * * * * * * * * * * * * * * * * * * * * * * * * * * * //

dimensions      [0 2 -2 0 0 0 0];

internalField   nonuniform List<scalar> 
17808
(
0.0670287
0.075193
0.0699345
0.0681356
0.0674378
0.0671331
0.067001
0.0669535
0.0669506
0.0669724
0.0670083
0.0670525
0.0671017
0.0671538
0.0672076
0.0672624
0.0673178
0.0673734
0.067429
0.0674846
0.0675401
0.0675955
0.0676509
0.0677063
0.0677616
0.067817
0.0678726
0.0679284
0.0679844
0.0680408
0.0680977
0.068155
0.0682129
0.0682714
0.0683307
0.0683908
0.0684518
0.0685138
0.0685767
0.0686409
0.0687062
0.0687727
0.0688407
0.06891
0.0689809
0.0690534
0.0691275
0.0692034
0.0692811
0.0693608
0.0694424
0.0695261
0.0696119
0.0697
0.0697904
0.0698833
0.0699786
0.0700765
0.0701771
0.0702804
0.0703867
0.0704958
0.070608
0.0707234
0.070842
0.0709639
0.0710893
0.0712182
0.0713507
0.0714871
0.0716272
0.0717714
0.0719197
0.0720722
0.0722291
0.0723904
0.0725564
0.0727271
0.0729027
0.0730833
0.0732691
0.0734603
0.0736571
0.0738595
0.0740677
0.0742821
0.0745027
0.0747297
0.0749634
0.0752039
0.0754516
0.0757066
0.066973
0.0751894
0.0699463
0.0681706
0.0674764
0.0671713
0.0670373
0.0669876
0.0669823
0.0670017
0.0670353
0.0670774
0.0671246
0.0671749
0.067227
0.0672803
0.0673343
0.0673886
0.067443
0.0674976
0.0675521
0.0676066
0.0676612
0.0677158
0.0677705
0.0678253
0.0678802
0.0679355
0.067991
0.068047
0.0681034
0.0681603
0.0682178
0.0682761
0.068335
0.0683948
0.0684555
0.0685172
0.06858
0.0686439
0.068709
0.0687754
0.0688431
0.0689123
0.0689831
0.0690554
0.0691294
0.0692052
0.0692828
0.0693623
0.0694438
0.0695274
0.0696132
0.0697012
0.0697916
0.0698843
0.0699796
0.0700775
0.070178
0.0702813
0.0703875
0.0704966
0.0706088
0.0707241
0.0708427
0.0709646
0.07109
0.0712189
0.0713514
0.0714877
0.0716279
0.071772
0.0719203
0.0720728
0.0722297
0.072391
0.072557
0.0727277
0.0729033
0.0730839
0.0732698
0.073461
0.0736577
0.0738601
0.0740684
0.0742827
0.0745033
0.0747304
0.0749641
0.0752046
0.0754523
0.0757073
0.0669612
0.075166
0.069933
0.0681764
0.0674855
0.0671834
0.0670512
0.0670025
0.066998
0.0670178
0.0670517
0.0670937
0.0671406
0.0671905
0.0672421
0.0672948
0.0673481
0.0674017
0.0674555
0.0675093
0.0675632
0.0676171
0.067671
0.067725
0.0677791
0.0678334
0.0678879
0.0679426
0.0679977
0.0680532
0.0681092
0.0681658
0.068223
0.0682809
0.0683395
0.068399
0.0684595
0.0685209
0.0685834
0.0686471
0.068712
0.0687782
0.0688458
0.0689148
0.0689854
0.0690576
0.0691314
0.0692071
0.0692846
0.069364
0.0694454
0.0695289
0.0696146
0.0697025
0.0697928
0.0698855
0.0699807
0.0700785
0.070179
0.0702823
0.0703884
0.0704975
0.0706097
0.070725
0.0708435
0.0709654
0.0710907
0.0712196
0.0713521
0.0714884
0.0716285
0.0717727
0.071921
0.0720735
0.0722303
0.0723916
0.0725576
0.0727283
0.0729039
0.0730845
0.0732704
0.0734616
0.0736583
0.0738608
0.074069
0.0742834
0.074504
0.074731
0.0749647
0.0752053
0.075453
0.075708
0.0669567
0.0751477
0.0699247
0.0681784
0.06749
0.0671904
0.0670591
0.0670111
0.0670072
0.0670277
0.067062
0.0671045
0.0671517
0.0672017
0.0672533
0.0673059
0.067359
0.0674124
0.0674659
0.0675194
0.0675729
0.0676264
0.0676799
0.0677335
0.0677872
0.0678411
0.0678952
0.0679495
0.0680043
0.0680594
0.0681151
0.0681713
0.0682282
0.0682858
0.0683441
0.0684034
0.0684636
0.0685248
0.068587
0.0686505
0.0687152
0.0687812
0.0688486
0.0689175
0.0689879
0.0690599
0.0691336
0.0692091
0.0692865
0.0693658
0.0694471
0.0695305
0.0696161
0.069704
0.0697942
0.0698868
0.0699819
0.0700797
0.0701801
0.0702833
0.0703894
0.0704985
0.0706106
0.0707258
0.0708443
0.0709662
0.0710915
0.0712203
0.0713528
0.0714891
0.0716293
0.0717734
0.0719216
0.0720741
0.072231
0.0723923
0.0725582
0.0727289
0.0729045
0.0730852
0.073271
0.0734623
0.073659
0.0738614
0.0740697
0.0742841
0.0745047
0.0747317
0.0749654
0.075206
0.0754537
0.0757087
0.0669572
0.0751325
0.0699179
0.0681775
0.0674933
0.067196
0.0670655
0.067018
0.0670144
0.0670352
0.0670699
0.0671126
0.0671601
0.0672103
0.0672621
0.0673148
0.0673679
0.0674212
0.0674745
0.0675279
0.0675812
0.0676345
0.0676878
0.0677411
0.0677945
0.0678481
0.0679019
0.067956
0.0680104
0.0680653
0.0681207
0.0681766
0.0682333
0.0682906
0.0683487
0.0684077
0.0684677
0.0685286
0.0685907
0.068654
0.0687185
0.0687843
0.0688515
0.0689202
0.0689905
0.0690624
0.069136
0.0692113
0.0692886
0.0693678
0.069449
0.0695323
0.0696178
0.0697055
0.0697956
0.0698882
0.0699833
0.0700809
0.0701813
0.0702845
0.0703905
0.0704995
0.0706116
0.0707268
0.0708453
0.0709671
0.0710923
0.0712212
0.0713536
0.0714899
0.07163
0.0717741
0.0719224
0.0720748
0.0722317
0.072393
0.0725589
0.0727296
0.0729052
0.0730859
0.0732717
0.0734629
0.0736597
0.0738621
0.0740704
0.0742848
0.0745054
0.0747324
0.0749662
0.0752068
0.0754544
0.0757095
0.0669647
0.075119
0.0699101
0.0681731
0.067494
0.0671988
0.0670692
0.0670223
0.0670191
0.0670404
0.0670754
0.0671186
0.0671663
0.0672168
0.0672688
0.0673217
0.0673749
0.0674283
0.0674816
0.067535
0.0675882
0.0676414
0.0676946
0.0677478
0.067801
0.0678544
0.067908
0.0679619
0.0680162
0.0680708
0.068126
0.0681817
0.0682381
0.0682952
0.0683532
0.068412
0.0684717
0.0685325
0.0685944
0.0686575
0.0687218
0.0687874
0.0688545
0.0689231
0.0689932
0.0690649
0.0691384
0.0692136
0.0692907
0.0693698
0.0694509
0.0695341
0.0696195
0.0697072
0.0697972
0.0698897
0.0699847
0.0700823
0.0701826
0.0702857
0.0703917
0.0705006
0.0706126
0.0707278
0.0708462
0.070968
0.0710933
0.071222
0.0713545
0.0714907
0.0716308
0.0717749
0.0719231
0.0720756
0.0722324
0.0723937
0.0725597
0.0727303
0.0729059
0.0730866
0.0732724
0.0734636
0.0736604
0.0738628
0.0740711
0.0742855
0.0745061
0.0747332
0.0749669
0.0752075
0.0754552
0.0757102
0.0669769
0.0751074
0.069902
0.0681674
0.067493
0.0671996
0.0670709
0.0670245
0.0670218
0.0670434
0.0670789
0.0671224
0.0671706
0.0672215
0.0672738
0.0673269
0.0673803
0.0674338
0.0674873
0.0675407
0.067594
0.0676472
0.0677003
0.0677535
0.0678067
0.06786
0.0679135
0.0679672
0.0680213
0.0680759
0.0681309
0.0681865
0.0682427
0.0682997
0.0683574
0.0684161
0.0684756
0.0685363
0.068598
0.0686609
0.0687251
0.0687906
0.0688575
0.0689259
0.0689959
0.0690675
0.0691408
0.069216
0.069293
0.0693719
0.0694529
0.069536
0.0696213
0.0697089
0.0697989
0.0698913
0.0699862
0.0700837
0.070184
0.070287
0.0703929
0.0705018
0.0706138
0.0707289
0.0708473
0.070969
0.0710942
0.071223
0.0713554
0.0714916
0.0716317
0.0717758
0.071924
0.0720764
0.0722332
0.0723945
0.0725604
0.0727311
0.0729067
0.0730873
0.0732732
0.0734644
0.0736611
0.0738636
0.0740719
0.0742862
0.0745069
0.0747339
0.0749677
0.0752083
0.075456
0.075711
0.0669914
0.0750978
0.0698942
0.0681616
0.0674913
0.0671993
0.0670716
0.0670257
0.0670233
0.0670453
0.0670811
0.067125
0.0671736
0.0672247
0.0672774
0.0673307
0.0673844
0.0674381
0.0674918
0.0675453
0.0675987
0.067652
0.0677052
0.0677583
0.0678115
0.0678648
0.0679182
0.0679719
0.068026
0.0680804
0.0681353
0.0681908
0.0682469
0.0683038
0.0683614
0.0684199
0.0684794
0.0685399
0.0686015
0.0686642
0.0687283
0.0687937
0.0688605
0.0689287
0.0689986
0.0690701
0.0691433
0.0692183
0.0692952
0.0693741
0.069455
0.069538
0.0696232
0.0697107
0.0698006
0.0698929
0.0699877
0.0700852
0.0701854
0.0702884
0.0703942
0.0705031
0.070615
0.0707301
0.0708484
0.0709701
0.0710952
0.071224
0.0713564
0.0714925
0.0716326
0.0717766
0.0719248
0.0720772
0.072234
0.0723953
0.0725612
0.0727319
0.0729075
0.0730881
0.0732739
0.0734652
0.0736619
0.0738643
0.0740726
0.074287
0.0745076
0.0747347
0.0749685
0.0752091
0.0754568
0.0757118
0.067007
0.0750899
0.0698869
0.068156
0.0674891
0.0671985
0.0670718
0.0670263
0.0670243
0.0670465
0.0670826
0.0671268
0.0671756
0.0672271
0.06728
0.0673337
0.0673876
0.0674415
0.0674953
0.067549
0.0676025
0.0676559
0.0677092
0.0677624
0.0678156
0.0678689
0.0679224
0.0679761
0.0680301
0.0680845
0.0681393
0.0681947
0.0682508
0.0683076
0.0683651
0.0684235
0.0684829
0.0685433
0.0686048
0.0686675
0.0687314
0.0687967
0.0688634
0.0689315
0.0690013
0.0690727
0.0691458
0.0692207
0.0692975
0.0693763
0.0694571
0.06954
0.0696251
0.0697126
0.0698023
0.0698946
0.0699894
0.0700868
0.0701869
0.0702898
0.0703956
0.0705044
0.0706162
0.0707313
0.0708496
0.0709712
0.0710963
0.071225
0.0713574
0.0714935
0.0716335
0.0717776
0.0719257
0.0720781
0.0722349
0.0723962
0.0725621
0.0727327
0.0729083
0.0730889
0.0732747
0.0734659
0.0736627
0.0738651
0.0740734
0.0742878
0.0745084
0.0747355
0.0749693
0.0752099
0.0754576
0.0757126
0.0670232
0.0750834
0.0698802
0.0681507
0.0674865
0.0671973
0.0670714
0.0670264
0.0670247
0.0670471
0.0670835
0.0671279
0.0671771
0.0672288
0.067282
0.0673359
0.06739
0.0674441
0.0674982
0.067552
0.0676057
0.0676591
0.0677125
0.0677658
0.0678191
0.0678724
0.0679259
0.0679796
0.0680336
0.068088
0.0681429
0.0681983
0.0682543
0.068311
0.0683685
0.0684269
0.0684862
0.0685465
0.0686079
0.0686705
0.0687343
0.0687995
0.0688661
0.0689342
0.0690039
0.0690752
0.0691482
0.0692231
0.0692998
0.0693785
0.0694592
0.069542
0.0696271
0.0697144
0.0698041
0.0698963
0.069991
0.0700883
0.0701884
0.0702912
0.070397
0.0705057
0.0706175
0.0707325
0.0708508
0.0709724
0.0710975
0.0712261
0.0713584
0.0714945
0.0716345
0.0717785
0.0719267
0.072079
0.0722358
0.072397
0.0725629
0.0727336
0.0729091
0.0730898
0.0732756
0.0734668
0.0736635
0.0738659
0.0740743
0.0742886
0.0745093
0.0747364
0.0749701
0.0752107
0.0754584
0.0757135
0.0670396
0.0750781
0.069874
0.0681458
0.0674836
0.0671956
0.0670707
0.0670261
0.0670246
0.0670473
0.0670839
0.0671286
0.0671779
0.0672299
0.0672834
0.0673375
0.0673918
0.0674461
0.0675003
0.0675544
0.0676082
0.0676618
0.0677152
0.0677686
0.067822
0.0678754
0.067929
0.0679827
0.0680368
0.0680912
0.068146
0.0682014
0.0682574
0.0683141
0.0683716
0.0684299
0.0684892
0.0685494
0.0686108
0.0686733
0.0687371
0.0688023
0.0688688
0.0689368
0.0690064
0.0690776
0.0691506
0.0692254
0.069302
0.0693806
0.0694613
0.069544
0.069629
0.0697163
0.0698059
0.069898
0.0699927
0.07009
0.0701899
0.0702927
0.0703984
0.0705071
0.0706189
0.0707338
0.070852
0.0709736
0.0710986
0.0712272
0.0713595
0.0714956
0.0716356
0.0717795
0.0719277
0.07208
0.0722367
0.072398
0.0725638
0.0727345
0.07291
0.0730906
0.0732764
0.0734676
0.0736644
0.0738668
0.0740751
0.0742895
0.0745101
0.0747372
0.074971
0.0752116
0.0754593
0.0757144
0.0670558
0.0750739
0.0698686
0.0681414
0.0674806
0.0671938
0.0670696
0.0670255
0.0670243
0.0670472
0.067084
0.0671289
0.0671784
0.0672307
0.0672843
0.0673386
0.0673932
0.0674477
0.0675021
0.0675562
0.0676102
0.0676639
0.0677175
0.067771
0.0678244
0.0678779
0.0679316
0.0679854
0.0680395
0.0680939
0.0681488
0.0682042
0.0682602
0.0683169
0.0683744
0.0684327
0.0684919
0.0685521
0.0686135
0.068676
0.0687397
0.0688048
0.0688713
0.0689393
0.0690088
0.06908
0.0691529
0.0692276
0.0693042
0.0693827
0.0694633
0.069546
0.0696309
0.0697181
0.0698077
0.0698998
0.0699944
0.0700916
0.0701915
0.0702943
0.0703999
0.0705085
0.0706202
0.0707351
0.0708533
0.0709748
0.0710998
0.0712284
0.0713607
0.0714967
0.0716366
0.0717806
0.0719287
0.072081
0.0722377
0.0723989
0.0725648
0.0727354
0.0729109
0.0730915
0.0732773
0.0734685
0.0736652
0.0738677
0.074076
0.0742904
0.074511
0.0747381
0.0749718
0.0752125
0.0754602
0.0757153
0.0670714
0.0750708
0.0698639
0.0681374
0.0674776
0.0671918
0.0670683
0.0670247
0.0670238
0.0670469
0.0670838
0.0671289
0.0671786
0.0672311
0.0672849
0.0673394
0.0673941
0.0674488
0.0675034
0.0675577
0.0676118
0.0676656
0.0677194
0.0677729
0.0678265
0.0678801
0.0679338
0.0679876
0.0680418
0.0680963
0.0681512
0.0682066
0.0682627
0.0683194
0.0683768
0.0684352
0.0684944
0.0685546
0.0686159
0.0686784
0.0687422
0.0688072
0.0688737
0.0689416
0.0690111
0.0690822
0.0691551
0.0692297
0.0693062
0.0693847
0.0694653
0.0695479
0.0696328
0.06972
0.0698095
0.0699015
0.069996
0.0700932
0.0701931
0.0702958
0.0704014
0.07051
0.0706216
0.0707365
0.0708546
0.0709761
0.0711011
0.0712296
0.0713618
0.0714978
0.0716377
0.0717817
0.0719297
0.072082
0.0722387
0.0723999
0.0725657
0.0727364
0.0729119
0.0730925
0.0732783
0.0734694
0.0736662
0.0738686
0.0740769
0.0742913
0.0745119
0.074739
0.0749728
0.0752134
0.0754611
0.0757162
0.0670864
0.0750685
0.0698599
0.0681339
0.0674747
0.0671897
0.0670669
0.0670237
0.067023
0.0670463
0.0670834
0.0671287
0.0671786
0.0672312
0.0672852
0.0673399
0.0673948
0.0674497
0.0675044
0.0675588
0.0676131
0.067667
0.0677209
0.0677746
0.0678282
0.0678819
0.0679356
0.0679896
0.0680438
0.0680983
0.0681533
0.0682088
0.0682648
0.0683216
0.0683791
0.0684374
0.0684966
0.0685569
0.0686182
0.0686807
0.0687444
0.0688094
0.0688758
0.0689437
0.0690132
0.0690843
0.0691571
0.0692318
0.0693083
0.0693867
0.0694672
0.0695498
0.0696347
0.0697218
0.0698113
0.0699032
0.0699977
0.0700948
0.0701947
0.0702973
0.0704029
0.0705114
0.070623
0.0707379
0.0708559
0.0709774
0.0711023
0.0712308
0.071363
0.071499
0.0716389
0.0717828
0.0719308
0.0720831
0.0722398
0.0724009
0.0725668
0.0727373
0.0729129
0.0730934
0.0732792
0.0734704
0.0736671
0.0738695
0.0740778
0.0742922
0.0745128
0.0747399
0.0749737
0.0752143
0.0754621
0.0757171
0.0671005
0.0750669
0.0698566
0.0681308
0.067472
0.0671876
0.0670653
0.0670225
0.0670221
0.0670456
0.0670829
0.0671283
0.0671784
0.0672312
0.0672853
0.0673402
0.0673953
0.0674503
0.0675051
0.0675597
0.0676141
0.0676682
0.0677221
0.0677759
0.0678296
0.0678834
0.0679372
0.0679912
0.0680455
0.0681001
0.0681551
0.0682107
0.0682668
0.0683235
0.068381
0.0684394
0.0684987
0.0685589
0.0686202
0.0686827
0.0687464
0.0688115
0.0688779
0.0689458
0.0690152
0.0690863
0.0691591
0.0692337
0.0693102
0.0693886
0.0694691
0.0695516
0.0696364
0.0697235
0.069813
0.0699049
0.0699993
0.0700964
0.0701962
0.0702988
0.0704044
0.0705129
0.0706245
0.0707392
0.0708573
0.0709787
0.0711036
0.0712321
0.0713642
0.0715002
0.07164
0.0717839
0.0719319
0.0720842
0.0722408
0.072402
0.0725678
0.0727384
0.0729139
0.0730944
0.0732802
0.0734714
0.0736681
0.0738705
0.0740788
0.0742932
0.0745138
0.0747409
0.0749747
0.0752153
0.075463
0.0757181
0.0671138
0.0750661
0.069854
0.0681283
0.0674695
0.0671856
0.0670637
0.0670212
0.0670211
0.0670448
0.0670822
0.0671278
0.067178
0.0672309
0.0672853
0.0673403
0.0673955
0.0674507
0.0675056
0.0675604
0.0676148
0.0676691
0.0677231
0.067777
0.0678308
0.0678846
0.0679386
0.0679926
0.068047
0.0681016
0.0681567
0.0682123
0.0682684
0.0683253
0.0683828
0.0684412
0.0685005
0.0685607
0.0686221
0.0686846
0.0687483
0.0688133
0.0688797
0.0689476
0.0690171
0.0690882
0.0691609
0.0692355
0.069312
0.0693904
0.0694708
0.0695534
0.0696381
0.0697252
0.0698146
0.0699065
0.0700009
0.070098
0.0701978
0.0703003
0.0704058
0.0705143
0.0706259
0.0707406
0.0708586
0.07098
0.0711049
0.0712333
0.0713655
0.0715014
0.0716412
0.0717851
0.0719331
0.0720853
0.0722419
0.0724031
0.0725688
0.0727394
0.0729149
0.0730955
0.0732812
0.0734724
0.0736691
0.0738715
0.0740798
0.0742942
0.0745148
0.0747419
0.0749757
0.0752163
0.075464
0.0757191
0.0671262
0.0750658
0.0698521
0.0681262
0.0674673
0.0671836
0.067062
0.0670199
0.06702
0.0670438
0.0670814
0.0671271
0.0671775
0.0672306
0.0672851
0.0673402
0.0673956
0.0674509
0.067506
0.0675608
0.0676154
0.0676697
0.0677239
0.0677779
0.0678318
0.0678857
0.0679397
0.0679938
0.0680482
0.068103
0.0681581
0.0682137
0.0682699
0.0683268
0.0683844
0.0684428
0.0685021
0.0685624
0.0686238
0.0686863
0.06875
0.068815
0.0688815
0.0689494
0.0690188
0.0690899
0.0691627
0.0692372
0.0693137
0.0693921
0.0694725
0.069555
0.0696398
0.0697268
0.0698162
0.0699081
0.0700025
0.0700995
0.0701993
0.0703018
0.0704073
0.0705157
0.0706273
0.070742
0.07086
0.0709813
0.0711062
0.0712346
0.0713667
0.0715026
0.0716424
0.0717862
0.0719342
0.0720864
0.072243
0.0724042
0.0725699
0.0727405
0.072916
0.0730965
0.0732823
0.0734734
0.0736701
0.0738725
0.0740808
0.0742952
0.0745159
0.074743
0.0671378
0.075066
0.0698508
0.0681246
0.0674653
0.0671817
0.0670603
0.0670184
0.0670188
0.0670428
0.0670805
0.0671264
0.0671769
0.0672301
0.0672847
0.06734
0.0673955
0.0674509
0.0675062
0.0675611
0.0676158
0.0676703
0.0677245
0.0677786
0.0678326
0.0678866
0.0679406
0.0679949
0.0680493
0.0681041
0.0681593
0.068215
0.0682712
0.0683281
0.0683857
0.0684442
0.0685035
0.0685639
0.0686253
0.0686878
0.0687516
0.0688166
0.0688831
0.068951
0.0690204
0.0690915
0.0691643
0.0692388
0.0693153
0.0693937
0.0694741
0.0695566
0.0696414
0.0697284
0.0698178
0.0699096
0.070004
0.070101
0.0702007
0.0703033
0.0704087
0.0705171
0.0706286
0.0707433
0.0708613
0.0709826
0.0711074
0.0712358
0.0713679
0.0715038
0.0716436
0.0717874
0.0719354
0.0720876
0.0722442
0.0724053
0.072571
0.0727416
0.072917
0.0730976
0.0732833
0.0734745
0.0736712
0.0738736
0.0740819
0.0742963
0.0745169
0.074744
0.0671485
0.0750667
0.06985
0.0681234
0.0674637
0.06718
0.0670587
0.067017
0.0670175
0.0670417
0.0670796
0.0671255
0.0671762
0.0672295
0.0672843
0.0673397
0.0673953
0.0674509
0.0675062
0.0675613
0.0676161
0.0676707
0.067725
0.0677791
0.0678332
0.0678873
0.0679414
0.0679957
0.0680502
0.0681051
0.0681603
0.0682161
0.0682723
0.0683293
0.068387
0.0684455
0.0685048
0.0685652
0.0686266
0.0686892
0.068753
0.068818
0.0688845
0.0689524
0.0690219
0.069093
0.0691658
0.0692403
0.0693168
0.0693952
0.0694756
0.0695581
0.0696428
0.0697299
0.0698192
0.0699111
0.0700054
0.0701024
0.0702021
0.0703047
0.0704101
0.0705185
0.07063
0.0707446
0.0708626
0.0709839
0.0711087
0.0712371
0.0713692
0.071505
0.0716448
0.0717886
0.0719365
0.0720887
0.0722453
0.0724064
0.0725721
0.0727427
0.0729181
0.0730987
0.0732844
0.0734756
0.0736723
0.0738747
0.074083
0.0742974
0.074518
0.0747451
0.0671585
0.0750678
0.0698498
0.0681226
0.0674623
0.0671784
0.0670572
0.0670155
0.0670162
0.0670405
0.0670785
0.0671246
0.0671754
0.0672288
0.0672837
0.0673393
0.067395
0.0674507
0.0675062
0.0675614
0.0676163
0.0676709
0.0677253
0.0677796
0.0678337
0.0678879
0.0679421
0.0679964
0.068051
0.0681059
0.0681612
0.068217
0.0682733
0.0683303
0.068388
0.0684466
0.068506
0.0685664
0.0686278
0.0686904
0.0687542
0.0688193
0.0688858
0.0689538
0.0690232
0.0690943
0.0691671
0.0692417
0.0693182
0.0693966
0.069477
0.0695595
0.0696442
0.0697313
0.0698206
0.0699125
0.0700068
0.0701038
0.0702035
0.070306
0.0704114
0.0705198
0.0706313
0.070746
0.0708639
0.0709852
0.07111
0.0712383
0.0713704
0.0715062
0.071646
0.0717898
0.0719377
0.0720899
0.0722465
0.0724075
0.0725733
0.0727438
0.0729192
0.0730998
0.0732855
0.0734767
0.0736734
0.0738758
0.0740841
0.0671677
0.0750692
0.0698501
0.0681223
0.0674613
0.0671771
0.0670557
0.0670141
0.0670148
0.0670393
0.0670774
0.0671236
0.0671745
0.0672281
0.0672831
0.0673388
0.0673947
0.0674505
0.067506
0.0675613
0.0676163
0.0676711
0.0677256
0.0677799
0.0678341
0.0678883
0.0679426
0.067997
0.0680517
0.0681066
0.068162
0.0682178
0.0682742
0.0683312
0.068389
0.0684476
0.068507
0.0685675
0.0686289
0.0686916
0.0687554
0.0688205
0.068887
0.068955
0.0690245
0.0690956
0.0691684
0.069243
0.0693195
0.0693979
0.0694783
0.0695608
0.0696456
0.0697326
0.069822
0.0699138
0.0700081
0.0701051
0.0702048
0.0703073
0.0704127
0.0705211
0.0706326
0.0707472
0.0708651
0.0709864
0.0711112
0.0712396
0.0713716
0.0715074
0.0716472
0.071791
0.0719389
0.072091
0.0722476
0.0724087
0.0725744
0.0727449
0.0729204
0.0731009
0.0732866
0.0734778
0.0736745
0.0738769
0.0740853
0.0671762
0.0750708
0.0698508
0.0681223
0.0674607
0.0671759
0.0670544
0.0670127
0.0670135
0.0670381
0.0670763
0.0671226
0.0671736
0.0672273
0.0672824
0.0673382
0.0673942
0.0674501
0.0675058
0.0675612
0.0676163
0.0676711
0.0677257
0.0677801
0.0678344
0.0678887
0.0679431
0.0679975
0.0680522
0.0681073
0.0681627
0.0682185
0.068275
0.068332
0.0683898
0.0684484
0.0685079
0.0685684
0.0686299
0.0686926
0.0687564
0.0688216
0.0688881
0.0689561
0.0690256
0.0690968
0.0691696
0.0692442
0.0693207
0.0693991
0.0694795
0.0695621
0.0696468
0.0697338
0.0698232
0.0699151
0.0700094
0.0701064
0.0702061
0.0703086
0.070414
0.0705224
0.0706338
0.0707485
0.0708664
0.0709877
0.0711124
0.0712408
0.0713728
0.0715086
0.0716484
0.0717921
0.07194
0.0720922
0.0722488
0.0724098
0.0725755
0.0727461
0.0729215
0.073102
0.0732878
0.0734789
0.0736757
0.0738781
0.0740864
0.0671842
0.0750727
0.0698518
0.0681227
0.0674603
0.067175
0.0670532
0.0670114
0.0670122
0.0670368
0.0670751
0.0671215
0.0671727
0.0672264
0.0672817
0.0673376
0.0673937
0.0674497
0.0675055
0.067561
0.0676162
0.0676711
0.0677258
0.0677802
0.0678346
0.067889
0.0679434
0.0679979
0.0680527
0.0681078
0.0681632
0.0682191
0.0682756
0.0683327
0.0683906
0.0684492
0.0685088
0.0685693
0.0686308
0.0686935
0.0687574
0.0688226
0.0688891
0.0689571
0.0690267
0.0690978
0.0691707
0.0692453
0.0693218
0.0694002
0.0694807
0.0695633
0.069648
0.069735
0.0698244
0.0699163
0.0700106
0.0701076
0.0702073
0.0703098
0.0704152
0.0705236
0.070635
0.0707497
0.0708676
0.0709889
0.0711136
0.071242
0.071374
0.0715098
0.0716495
0.0717933
0.0719412
0.0720934
0.0722499
0.072411
0.0725767
0.0727472
0.0729227
0.0731032
0.0732889
0.0734801
0.0736768
0.0738793
0.0740876
0.0671915
0.0750748
0.0698532
0.0681235
0.0674603
0.0671744
0.0670521
0.0670102
0.0670109
0.0670355
0.0670739
0.0671204
0.0671716
0.0672255
0.0672809
0.0673369
0.0673931
0.0674492
0.0675051
0.0675607
0.067616
0.067671
0.0677257
0.0677803
0.0678348
0.0678892
0.0679437
0.0679983
0.0680531
0.0681082
0.0681637
0.0682197
0.0682762
0.0683334
0.0683912
0.0684499
0.0685095
0.06857
0.0686316
0.0686943
0.0687582
0.0688235
0.06889
0.0689581
0.0690276
0.0690988
0.0691717
0.0692463
0.0693229
0.0694013
0.0694818
0.0695643
0.0696491
0.0697362
0.0698255
0.0699174
0.0700118
0.0701088
0.0702085
0.070311
0.0704164
0.0705247
0.0706362
0.0707508
0.0708687
0.07099
0.0711148
0.0712431
0.0713752
0.071511
0.0716507
0.0717945
0.0719424
0.0720945
0.0722511
0.0724121
0.0725778
0.0727484
0.0729238
0.0731043
0.0732901
0.0734813
0.073678
0.0738805
0.0740888
0.0671984
0.075077
0.0698549
0.0681246
0.0674606
0.067174
0.0670513
0.0670091
0.0670097
0.0670343
0.0670727
0.0671193
0.0671706
0.0672246
0.06728
0.0673361
0.0673924
0.0674487
0.0675047
0.0675603
0.0676157
0.0676708
0.0677256
0.0677803
0.0678348
0.0678893
0.0679438
0.0679985
0.0680534
0.0681085
0.0681641
0.0682201
0.0682767
0.0683339
0.0683918
0.0684505
0.0685101
0.0685707
0.0686323
0.0686951
0.068759
0.0688243
0.0688909
0.0689589
0.0690285
0.0690997
0.0691726
0.0692473
0.0693238
0.0694023
0.0694828
0.0695654
0.0696502
0.0697372
0.0698266
0.0699185
0.0700128
0.0701099
0.0702096
0.0703121
0.0704175
0.0705259
0.0706373
0.070752
0.0708699
0.0709912
0.0711159
0.0712443
0.0713763
0.0715121
0.0716518
0.0717956
0.0719435
0.0720957
0.0722522
0.0724133
0.072579
0.0727495
0.072925
0.0731055
0.0732913
0.0734825
0.0736792
0.0738817
0.07409
0.0672048
0.0750793
0.0698569
0.0681259
0.0674612
0.0671739
0.0670506
0.0670081
0.0670086
0.0670331
0.0670715
0.0671181
0.0671695
0.0672236
0.0672791
0.0673353
0.0673917
0.0674481
0.0675042
0.0675599
0.0676154
0.0676706
0.0677255
0.0677802
0.0678348
0.0678894
0.067944
0.0679987
0.0680536
0.0681088
0.0681644
0.0682205
0.0682771
0.0683343
0.0683923
0.0684511
0.0685107
0.0685713
0.068633
0.0686957
0.0687597
0.068825
0.0688916
0.0689597
0.0690293
0.0691006
0.0691735
0.0692482
0.0693247
0.0694032
0.0694837
0.0695663
0.0696511
0.0697382
0.0698276
0.0699195
0.0700139
0.0701109
0.0702106
0.0703131
0.0704185
0.0705269
0.0706384
0.0707531
0.070871
0.0709923
0.071117
0.0712454
0.0713774
0.0715132
0.071653
0.0717967
0.0719446
0.0720968
0.0722533
0.0724144
0.0725801
0.0727507
0.0729261
0.0731067
0.0732925
0.0734837
0.0736804
0.0738829
0.0740912
0.0672109
0.0750817
0.069859
0.0681276
0.067462
0.067174
0.0670502
0.0670073
0.0670075
0.0670319
0.0670704
0.067117
0.0671684
0.0672226
0.0672782
0.0673345
0.067391
0.0674474
0.0675036
0.0675595
0.067615
0.0676703
0.0677253
0.0677801
0.0678347
0.0678894
0.067944
0.0679988
0.0680538
0.0681091
0.0681647
0.0682208
0.0682775
0.0683347
0.0683927
0.0684515
0.0685112
0.0685719
0.0686335
0.0686963
0.0687604
0.0688257
0.0688923
0.0689604
0.0690301
0.0691013
0.0691743
0.069249
0.0693256
0.0694041
0.0694846
0.0695672
0.069652
0.0697391
0.0698286
0.0699204
0.0700149
0.0701119
0.0702116
0.0703142
0.0704196
0.070528
0.0706395
0.0707541
0.070872
0.0709933
0.0711181
0.0712465
0.0713785
0.0715143
0.0716541
0.0717978
0.0719457
0.0720979
0.0722545
0.0724155
0.0725813
0.0727518
0.0729273
0.0731079
0.0732937
0.0734849
0.0736816
0.0738841
0.0740924
0.0672165
0.0750841
0.0698614
0.0681294
0.0674631
0.0671744
0.0670499
0.0670066
0.0670066
0.0670308
0.0670692
0.0671158
0.0671673
0.0672215
0.0672772
0.0673336
0.0673902
0.0674467
0.067503
0.067559
0.0676146
0.0676699
0.067725
0.0677799
0.0678346
0.0678893
0.067944
0.0679989
0.0680539
0.0681092
0.0681649
0.0682211
0.0682778
0.0683351
0.0683931
0.068452
0.0685117
0.0685723
0.0686341
0.0686969
0.0687609
0.0688263
0.068893
0.0689611
0.0690308
0.069102
0.069175
0.0692498
0.0693263
0.0694049
0.0694854
0.0695681
0.0696529
0.06974
0.0698295
0.0699214
0.0700158
0.0701128
0.0702126
0.0703151
0.0704206
0.070529
0.0706405
0.0707551
0.0708731
0.0709944
0.0711191
0.0712475
0.0713795
0.0715154
0.0716551
0.0717989
0.0719468
0.072099
0.0722556
0.0724167
0.0725824
0.072753
0.0729285
0.0731091
0.0732949
0.0734861
0.0736829
0.0738853
0.0740936
0.0672219
0.0750865
0.0698638
0.0681315
0.0674645
0.067175
0.0670499
0.0670061
0.0670057
0.0670298
0.0670681
0.0671147
0.0671662
0.0672205
0.0672762
0.0673327
0.0673894
0.067446
0.0675024
0.0675584
0.0676141
0.0676696
0.0677247
0.0677797
0.0678345
0.0678892
0.067944
0.0679989
0.068054
0.0681093
0.0681651
0.0682213
0.068278
0.0683354
0.0683935
0.0684523
0.0685121
0.0685728
0.0686345
0.0686974
0.0687615
0.0688268
0.0688935
0.0689617
0.0690314
0.0691027
0.0691757
0.0692505
0.0693271
0.0694056
0.0694862
0.0695689
0.0696537
0.0697408
0.0698303
0.0699222
0.0700167
0.0701137
0.0702135
0.070316
0.0704215
0.0705299
0.0706414
0.0707561
0.070874
0.0709954
0.0711202
0.0712485
0.0713806
0.0715164
0.0716562
0.0718
0.0719479
0.0721001
0.0722567
0.0724178
0.0725836
0.0727541
0.0729296
0.0731102
0.0732961
0.0734873
0.0736841
0.0738865
0.0740948
0.067227
0.0750889
0.0698664
0.0681338
0.0674661
0.0671758
0.0670501
0.0670058
0.067005
0.0670289
0.067067
0.0671136
0.0671651
0.0672194
0.0672752
0.0673318
0.0673885
0.0674452
0.0675017
0.0675578
0.0676136
0.0676691
0.0677244
0.0677794
0.0678342
0.0678891
0.0679439
0.0679988
0.068054
0.0681094
0.0681652
0.0682214
0.0682782
0.0683356
0.0683937
0.0684526
0.0685124
0.0685732
0.0686349
0.0686978
0.0687619
0.0688273
0.0688941
0.0689623
0.069032
0.0691033
0.0691763
0.0692511
0.0693277
0.0694063
0.0694869
0.0695696
0.0696545
0.0697416
0.0698311
0.069923
0.0700175
0.0701146
0.0702143
0.0703169
0.0704224
0.0705308
0.0706423
0.070757
0.070875
0.0709963
0.0711211
0.0712495
0.0713816
0.0715174
0.0716572
0.071801
0.071949
0.0721012
0.0722578
0.0724189
0.0725847
0.0727553
0.0729308
0.0731114
0.0732973
0.0734885
0.0736853
0.0738877
0.074096
0.0672318
0.0750913
0.0698691
0.0681362
0.067468
0.0671769
0.0670505
0.0670056
0.0670045
0.0670281
0.067066
0.0671125
0.067164
0.0672183
0.0672742
0.0673308
0.0673876
0.0674444
0.067501
0.0675572
0.0676131
0.0676687
0.067724
0.067779
0.067834
0.0678889
0.0679438
0.0679988
0.068054
0.0681094
0.0681653
0.0682216
0.0682784
0.0683358
0.068394
0.0684529
0.0685127
0.0685735
0.0686353
0.0686982
0.0687624
0.0688278
0.0688945
0.0689628
0.0690325
0.0691039
0.0691769
0.0692517
0.0693284
0.069407
0.0694876
0.0695703
0.0696552
0.0697423
0.0698318
0.0699238
0.0700183
0.0701154
0.0702152
0.0703178
0.0704232
0.0705317
0.0706432
0.0707579
0.0708759
0.0709973
0.0711221
0.0712505
0.0713826
0.0715184
0.0716582
0.071802
0.07195
0.0721022
0.0722588
0.07242
0.0725858
0.0727564
0.072932
0.0731126
0.0732985
0.0734897
0.0736865
0.0738889
0.0740972
0.0672365
0.0750937
0.0698718
0.0681388
0.06747
0.0671782
0.0670511
0.0670056
0.0670041
0.0670273
0.0670651
0.0671115
0.0671629
0.0672172
0.0672731
0.0673298
0.0673867
0.0674436
0.0675002
0.0675565
0.0676125
0.0676681
0.0677235
0.0677787
0.0678337
0.0678886
0.0679436
0.0679987
0.0680539
0.0681094
0.0681653
0.0682216
0.0682785
0.068336
0.0683942
0.0684531
0.068513
0.0685738
0.0686356
0.0686986
0.0687627
0.0688282
0.068895
0.0689632
0.069033
0.0691044
0.0691774
0.0692523
0.069329
0.0694076
0.0694882
0.0695709
0.0696558
0.069743
0.0698326
0.0699245
0.070019
0.0701161
0.070216
0.0703186
0.0704241
0.0705325
0.0706441
0.0707588
0.0708768
0.0709982
0.071123
0.0712514
0.0713835
0.0715194
0.0716592
0.071803
0.071951
0.0721033
0.0722599
0.0724211
0.0725869
0.0727575
0.0729331
0.0731138
0.0732996
0.0734909
0.0736877
0.0738902
0.0740985
0.0672409
0.0750959
0.0698745
0.0681415
0.0674722
0.0671797
0.0670519
0.0670059
0.0670038
0.0670268
0.0670643
0.0671105
0.0671619
0.0672162
0.0672721
0.0673288
0.0673858
0.0674427
0.0674994
0.0675558
0.0676119
0.0676676
0.067723
0.0677783
0.0678334
0.0678884
0.0679434
0.0679985
0.0680538
0.0681094
0.0681653
0.0682217
0.0682786
0.0683361
0.0683943
0.0684533
0.0685132
0.068574
0.0686359
0.0686989
0.0687631
0.0688286
0.0688954
0.0689637
0.0690335
0.0691049
0.0691779
0.0692528
0.0693295
0.0694081
0.0694888
0.0695715
0.0696565
0.0697437
0.0698332
0.0699252
0.0700197
0.0701169
0.0702167
0.0703193
0.0704248
0.0705333
0.0706449
0.0707596
0.0708777
0.070999
0.0711239
0.0712523
0.0713844
0.0715204
0.0716602
0.071804
0.071952
0.0721043
0.072261
0.0724221
0.072588
0.0727587
0.0729342
0.0731149
0.0733008
0.0734921
0.0736889
0.0738914
0.0740997
0.0672452
0.0750981
0.0698772
0.0681442
0.0674745
0.0671814
0.067053
0.0670063
0.0670037
0.0670263
0.0670636
0.0671096
0.0671609
0.0672152
0.0672711
0.0673278
0.0673848
0.0674418
0.0674986
0.0675551
0.0676112
0.067667
0.0677225
0.0677778
0.067833
0.0678881
0.0679431
0.0679983
0.0680537
0.0681093
0.0681653
0.0682217
0.0682786
0.0683362
0.0683944
0.0684535
0.0685134
0.0685743
0.0686362
0.0686992
0.0687634
0.0688289
0.0688958