/*--------------------------------*- C++ -*----------------------------------*\
  =========                 |
  \\      /  F ield         | OpenFOAM: The Open Source CFD Toolbox
   \\    /   O peration     | Website:  https://openfoam.org
    \\  /    A nd           | Version:  10
     \\/     M anipulation  |
\*---------------------------------------------------------------------------*/
FoamFile
{
    format      ascii;
    class       volVectorField;
    location    "71000";
    object      U;
}
// * * * * * * * * * * * * * * * * * * * * * * * * * * * * * * * * * * * * * //

dimensions      [0 1 -1 0 0 0 0];

internalField   nonuniform List<vector> 
17808
(
(-1.18043 1.27989 -4.51785e-18)
(-1.465 1.59745 -5.12353e-19)
(-1.59287 1.73838 3.3084e-18)
(-1.68134 1.8313 3.60201e-18)
(-1.74664 1.90272 -8.51836e-19)
(-1.79907 1.9595 -6.07524e-18)
(-1.84242 2.00682 3.07629e-18)
(-1.87943 2.04729 -3.29211e-18)
(-1.91166 2.08263 5.57539e-18)
(-1.9402 2.11399 -4.05873e-22)
(-1.96579 2.14217 -2.54438e-18)
(-1.98899 2.16775 1.82705e-18)
(-2.01019 2.19116 -2.63047e-18)
(-2.02971 2.21273 2.80763e-19)
(-2.04779 2.23272 0)
(-2.06461 2.25135 2.60311e-19)
(-2.08034 2.26878 -5.02333e-19)
(-2.0951 2.28515 -4.85187e-19)
(-2.109 2.30057 -2.11037e-18)
(-2.12213 2.31514 1.49794e-21)
(-2.13455 2.32895 1.76034e-18)
(-2.14634 2.34206 0)
(-2.15755 2.35453 1.65487e-18)
(-2.16822 2.36641 -1.60869e-18)
(-2.17841 2.37775 1.56175e-18)
(-2.18814 2.38859 -1.90024e-18)
(-2.19744 2.39896 -3.69594e-19)
(-2.20635 2.40889 0)
(-2.21489 2.41841 -3.50545e-19)
(-2.22308 2.42755 -3.41558e-19)
(-2.23094 2.43633 1.3312e-18)
(-2.23849 2.44476 -9.75295e-19)
(-2.24575 2.45287 0)
(-2.25272 2.46066 0)
(-2.25943 2.46816 3.01994e-19)
(-2.26589 2.47537 1.4739e-18)
(-2.2721 2.48232 -8.6533e-19)
(-2.27807 2.489 0)
(-2.28382 2.49543 -1.09974e-18)
(-2.28935 2.50163 1.8246e-21)
(-2.29468 2.50758 1.57879e-18)
(-2.2998 2.51331 1.54194e-18)
(-2.30472 2.51883 -1.0069e-18)
(-2.30945 2.52412 4.91922e-19)
(-2.314 2.52922 0)
(-2.31837 2.5341 -4.70731e-19)
(-2.32255 2.5388 1.38072e-18)
(-2.32657 2.5433 -1.8033e-18)
(-2.33042 2.54761 4.40876e-19)
(-2.3341 2.55173 0)
(-2.33762 2.55568 0)
(-2.34098 2.55944 1.23792e-18)
(-2.34418 2.56303 -4.05015e-19)
(-2.34723 2.56645 0)
(-2.35013 2.5697 3.86747e-19)
(-2.35287 2.57278 3.78372e-19)
(-2.35547 2.57569 -3.70137e-19)
(-2.35792 2.57844 -3.6204e-19)
(-2.36022 2.58102 -3.54104e-19)
(-2.36238 2.58345 6.91654e-19)
(-2.36439 2.58571 -9.65222e-22)
(-2.36627 2.58782 6.61277e-19)
(-2.368 2.58977 -6.48437e-19)
(-2.36959 2.59156 -6.32913e-19)
(-2.37104 2.59319 -1.23621e-18)
(-2.37235 2.59467 6.04505e-19)
(-2.37352 2.59599 -1.18231e-18)
(-2.37455 2.59716 1.15409e-18)
(-2.37545 2.59817 0)
(-2.3762 2.59903 5.5046e-19)
(-2.37682 2.59974 1.07396e-18)
(-2.3773 2.60029 -5.26673e-19)
(-2.37764 2.60068 -5.13122e-19)
(-2.37784 2.60093 4.99778e-19)
(-2.3779 2.60102 -9.83696e-22)
(-2.37782 2.60095 -1.42692e-18)
(-2.37761 2.60073 9.28714e-19)
(-2.37725 2.60035 0)
(-2.37675 2.59982 -4.41879e-19)
(-2.37611 2.59913 -1.29007e-18)
(-2.37533 2.59829 0)
(-2.37441 2.59729 0)
(-2.37335 2.59613 7.94471e-19)
(-2.37214 2.59481 0)
(-2.37079 2.59333 7.53054e-19)
(-2.36929 2.5917 0)
(-2.36765 2.5899 -1.01845e-23)
(-2.36586 2.58794 0)
(-2.36393 2.58582 0)
(-2.36185 2.58353 6.55976e-19)
(-2.35962 2.58108 1.27534e-18)
(-2.35724 2.57847 1.23944e-18)
(-1.1806 1.29281 -5.07821e-19)
(-1.46025 1.61018 5.0171e-19)
(-1.58872 1.74773 0)
(-1.67551 1.84062 0)
(-1.74012 1.91146 8.529e-19)
(-1.79226 1.96761 -4.03433e-19)
(-1.83549 2.0144 3.06149e-18)
(-1.87247 2.05441 -2.54472e-18)
(-1.90473 2.08938 -3.46158e-19)
(-1.93332 2.12044 2.63914e-18)
(-1.95899 2.14838 -2.83787e-18)
(-1.98225 2.17376 6.03689e-19)
(-2.00352 2.19701 2.89436e-19)
(-2.02309 2.21846 -2.7801e-19)
(-2.04122 2.23836 0)
(-2.05809 2.25691 -2.57624e-19)
(-2.07386 2.27428 2.48495e-19)
(-2.08866 2.2906 2.39978e-19)
(-2.10259 2.30599 0)
(-2.11574 2.32053 0)
(-2.12819 2.33432 0)
(-2.14 2.34741 -4.21761e-19)
(-2.15122 2.35987 0)
(-2.16191 2.37174 -3.97473e-19)
(-2.17211 2.38308 0)
(-2.18185 2.39392 3.75658e-19)
(-2.19117 2.40429 3.65605e-19)
(-2.20008 2.41423 0)
(-2.20863 2.42376 -1.38611e-18)
(-2.21683 2.4329 3.39665e-19)
(-2.22469 2.44168 9.89392e-19)
(-2.23225 2.45012 -3.21429e-19)
(-2.23951 2.45824 1.25389e-18)
(-2.24649 2.46604 -2.75602e-18)
(-2.2532 2.47355 8.97971e-19)
(-2.25966 2.48077 -2.92095e-19)
(-2.26587 2.48773 -5.70842e-19)
(-2.27185 2.49442 0)
(-2.2776 2.50086 0)
(-2.28313 2.50707 1.33221e-18)
(-2.28845 2.51303 -1.04387e-18)
(-2.29357 2.51878 -4.81823e-23)
(-2.2985 2.5243 -4.9899e-19)
(-2.30323 2.52961 -9.76342e-19)
(-2.30777 2.53471 -4.76749e-19)
(-2.31214 2.53961 1.4032e-18)
(-2.31633 2.54431 -9.13925e-19)
(-2.32034 2.54882 1.344e-18)
(-2.32419 2.55314 -1.31354e-18)
(-2.32787 2.55728 8.58663e-19)
(-2.33138 2.56123 -8.38576e-19)
(-2.33474 2.565 8.22665e-19)
(-2.33794 2.5686 -4.02152e-19)
(-2.34099 2.57203 0)
(-2.34388 2.57529 -3.85235e-19)
(-2.34663 2.57837 0)
(-2.34922 2.58129 0)
(-2.35167 2.58405 3.61052e-19)
(-2.35397 2.58664 9.74256e-22)
(-2.35613 2.58907 6.9226e-19)
(-2.35814 2.59134 -6.76278e-19)
(-2.36002 2.59346 6.61534e-19)
(-2.36175 2.59541 0)
(-2.36334 2.5972 0)
(-2.36479 2.59884 1.23652e-18)
(-2.3661 2.60033 -6.04961e-19)
(-2.36727 2.60165 1.18375e-18)
(-2.3683 2.60282 -9.95754e-22)
(-2.36919 2.60384 -5.65842e-19)
(-2.36995 2.6047 0)
(-2.37057 2.60541 -1.07733e-18)
(-2.37104 2.60597 2.10642e-18)
(-2.37139 2.60637 -1.98012e-21)
(-2.37159 2.60661 -1.98025e-21)
(-2.37165 2.6067 -9.85069e-22)
(-2.37157 2.60664 4.77337e-19)
(-2.37136 2.60642 -9.3444e-19)
(-2.371 2.60604 4.55308e-19)
(-2.37051 2.60551 8.87167e-19)
(-2.36987 2.60482 -4.34009e-19)
(-2.3691 2.60398 4.21164e-19)
(-2.36818 2.60297 -1.23535e-18)
(-2.36712 2.60181 1.20184e-18)
(-2.36591 2.60049 -1.96149e-21)
(-2.36457 2.59901 -7.60883e-19)
(-2.36308 2.59737 3.71434e-19)
(-2.36144 2.59557 -1.4426e-18)
(-2.35966 2.59361 0)
(-2.35773 2.59148 0)
(-2.35565 2.58919 -1.32913e-18)
(-2.35343 2.58674 -9.68567e-19)
(-2.35105 2.58412 -6.26572e-19)
(-1.17943 1.30012 1.01628e-18)
(-1.45888 1.61729 8.02427e-18)
(-1.58748 1.75411 -1.52096e-17)
(-1.67263 1.84795 7.20029e-18)
(-1.73664 1.91857 -4.24651e-19)
(-1.78814 1.97461 0)
(-1.83083 2.02129 0)
(-1.86737 2.06117 0)
(-1.8993 2.096 -5.15055e-18)
(-1.92763 2.12691 5.23737e-18)
(-1.9531 2.15471 3.12373e-19)
(-1.97622 2.17997 1.43177e-22)
(-1.99738 2.20311 4.58292e-18)
(-2.01688 2.22446 -9.07753e-18)
(-2.03494 2.24428 4.23352e-18)
(-2.05177 2.26276 3.8194e-18)
(-2.06751 2.28006 -3.68582e-18)
(-2.08229 2.29634 0)
(-2.0962 2.31168 0)
(-2.10934 2.32619 0)
(-2.12179 2.33995 0)
(-2.13359 2.35302 8.33307e-19)
(-2.14482 2.36546 0)
(-2.15551 2.37732 3.92634e-19)
(-2.1657 2.38865 0)
(-2.17544 2.39948 -3.71081e-19)
(-2.18476 2.40985 0)
(-2.19368 2.41978 1.40549e-18)
(-2.20222 2.42931 -1.37087e-18)
(-2.21042 2.43845 3.33838e-19)
(-2.21829 2.44724 -3.25544e-19)
(-2.22584 2.45568 1.58719e-18)
(-2.2331 2.4638 -1.70528e-21)
(-2.24008 2.47161 -9.0874e-19)
(-2.2468 2.47913 8.85853e-19)
(-2.25325 2.48636 -8.67133e-19)
(-2.25946 2.49332 2.82203e-19)
(-2.26544 2.50002 0)
(-2.27119 2.50647 0)
(-2.27672 2.51268 -1.58157e-18)
(-2.28204 2.51866 1.79004e-21)
(-2.28716 2.52441 1.761e-21)
(-2.29208 2.52994 1.48248e-18)
(-2.29681 2.53526 -9.65622e-19)
(-2.30136 2.54037 4.73878e-19)
(-2.30572 2.54528 0)
(-2.3099 2.54999 0)
(-2.31392 2.55451 0)
(-2.31776 2.55884 9.35561e-22)
(-2.32144 2.56298 4.26137e-19)
(-2.32495 2.56694 0)
(-2.32831 2.57073 4.07562e-19)
(-2.33151 2.57434 -7.97125e-19)
(-2.33455 2.57777 1.17296e-18)
(-2.33745 2.58103 7.64003e-19)
(-2.34019 2.58413 -7.49834e-19)
(-2.34278 2.58706 -7.32144e-19)
(-2.34523 2.58982 3.59775e-19)
(-2.34753 2.59242 -3.51211e-19)
(-2.34968 2.59486 3.43727e-19)
(-2.3517 2.59713 6.72789e-19)
(-2.35357 2.59925 -6.58348e-19)
(-2.3553 2.60121 0)
(-2.35688 2.60301 0)
(-2.35833 2.60465 -1.6444e-23)
(-2.35964 2.60614 -1.20481e-18)
(-2.36081 2.60747 5.90561e-19)
(-2.36185 2.60865 -5.75488e-19)
(-2.36274 2.60967 1.6907e-18)
(-2.36349 2.61053 -9.90297e-22)
(-2.36411 2.61124 5.38345e-19)
(-2.36459 2.6118 -5.26032e-19)
(-2.36493 2.6122 0)
(-2.36514 2.61245 0)
(-2.3652 2.61254 0)
(-2.36513 2.61248 4.77588e-19)
(-2.36491 2.61226 -4.68149e-19)
(-2.36456 2.61188 -4.55933e-19)
(-2.36407 2.61135 0)
(-2.36343 2.61066 0)
(-2.36266 2.60981 -1.26879e-18)
(-2.36174 2.60881 2.06456e-18)
(-2.36069 2.60765 -8.94853e-24)
(-2.35949 2.60633 0)
(-2.35814 2.60484 -3.81114e-19)
(-2.35666 2.6032 1.96269e-21)
(-2.35503 2.6014 3.63518e-19)
(-2.35325 2.59943 -7.06003e-19)
(-2.35133 2.5973 -6.8728e-19)
(-2.34926 2.59501 1.00238e-18)
(-2.34704 2.59255 -1.94133e-21)
(-2.34467 2.58992 3.15597e-19)
(-1.17585 1.3044 7.1202e-18)
(-1.45569 1.62166 7.5095e-18)
(-1.58402 1.75909 -8.05783e-18)
(-1.66843 1.85365 4.48185e-19)
(-1.73242 1.9242 0)
(-1.78362 1.98043 0)
(-1.82606 2.02722 0)
(-1.86237 2.06716 5.73465e-18)
(-1.89407 2.10203 -1.09006e-17)
(-1.92221 2.13297 1.03801e-17)
(-1.9475 2.16077 -4.95427e-18)
(-1.97046 2.18602 4.43844e-18)
(-1.99148 2.20914 -4.53846e-18)
(-2.01087 2.23047 2.72084e-19)
(-2.02884 2.25025 4.4455e-18)
(-2.04559 2.26871 -3.77896e-18)
(-2.06126 2.28599 3.88295e-18)
(-2.07598 2.30223 -2.3738e-19)
(-2.08985 2.31755 -3.62528e-18)
(-2.10295 2.33204 -2.19139e-19)
(-2.11536 2.34578 0)
(-2.12714 2.35883 -8.22964e-19)
(-2.13835 2.37125 0)
(-2.14902 2.3831 0)
(-2.1592 2.39442 -3.38929e-18)
(-2.16893 2.40524 2.93279e-18)
(-2.17823 2.4156 0)
(-2.18714 2.42554 0)
(-2.19568 2.43506 0)
(-2.20387 2.44421 -6.59405e-19)
(-2.21173 2.45299 3.21544e-19)
(-2.21928 2.46144 0)
(-2.22653 2.46956 0)
(-2.23351 2.47737 0)
(-2.24022 2.48489 -1.75051e-18)
(-2.24667 2.49213 2.56982e-18)
(-2.25288 2.4991 0)
(-2.25885 2.5058 0)
(-2.26459 2.51226 0)
(-2.27012 2.51848 2.34534e-18)
(-2.27544 2.52446 -3.53731e-21)
(-2.28056 2.53022 -4.99278e-18)
(-2.28547 2.53576 3.42026e-18)
(-2.2902 2.54109 -1.43651e-18)
(-2.29474 2.5462 0)
(-2.2991 2.55112 4.58315e-19)
(-2.30328 2.55584 1.79316e-18)
(-2.30729 2.56037 -1.75943e-18)
(-2.31113 2.5647 -4.30289e-19)
(-2.31481 2.56885 2.10496e-18)
(-2.31832 2.57282 -8.28071e-19)
(-2.32168 2.57662 -8.10094e-19)
(-2.32487 2.58023 -7.92458e-19)
(-2.32791 2.58367 -9.44018e-22)
(-2.3308 2.58694 -1.13962e-18)
(-2.33354 2.59004 0)
(-2.33613 2.59298 3.63031e-19)
(-2.33858 2.59575 -7.13742e-19)
(-2.34088 2.59835 -1.04591e-18)
(-2.34303 2.6008 3.426e-19)
(-2.34504 2.60308 6.68911e-19)
(-2.34691 2.6052 9.59621e-22)
(-2.34864 2.60717 1.9388e-21)
(-2.35023 2.60897 6.28175e-19)
(-2.35167 2.61062 -6.13753e-19)
(-2.35298 2.61211 6.00489e-19)
(-2.35415 2.61345 0)
(-2.35518 2.61463 -5.73626e-19)
(-2.35608 2.61565 -5.60001e-19)
(-2.35683 2.61652 9.76355e-22)
(-2.35745 2.61723 -1.07347e-18)
(-2.35793 2.61779 1.05126e-18)
(-2.35827 2.61819 0)
(-2.35848 2.61844 -9.86338e-22)
(-2.35854 2.61853 -9.80849e-19)
(-2.35847 2.61847 4.78541e-19)
(-2.35826 2.61825 4.67329e-19)
(-2.35791 2.61788 4.56272e-19)
(-2.35742 2.61735 0)
(-2.35679 2.61666 0)
(-2.35602 2.61581 8.48241e-19)
(-2.3551 2.6148 -1.65491e-18)
(-2.35405 2.61364 -8.07002e-19)
(-2.35285 2.61231 7.86862e-19)
(-2.35152 2.61083 1.1496e-18)
(-2.35003 2.60918 3.72799e-19)
(-2.34841 2.60738 7.28416e-19)
(-2.34663 2.6054 3.5381e-19)
(-2.34472 2.60327 6.89098e-19)
(-2.34265 2.60097 -3.37408e-19)
(-2.34044 2.59851 3.26516e-19)
(-2.33808 2.59588 -1.95576e-21)
(-1.17221 1.30846 8.64005e-18)
(-1.45195 1.62572 -7.9966e-18)
(-1.57964 1.76401 -7.08226e-18)
(-1.6636 1.85892 1.33803e-17)
(-1.72753 1.92951 -6.312e-18)
(-1.77847 1.98597 6.748e-18)
(-1.82076 2.03288 -1.201e-17)
(-1.85694 2.07291 3.01813e-21)
(-1.88851 2.10786 5.40341e-18)
(-1.91653 2.13885 0)
(-1.94171 2.1667 0)
(-1.96457 2.19197 -2.92962e-19)
(-1.9855 2.21512 -2.80545e-19)
(-2.00479 2.23646 2.69138e-19)
(-2.02269 2.25625 5.83827e-23)
(-2.03936 2.2747 -2.48909e-19)
(-2.05497 2.29198 -4.79758e-19)
(-2.06963 2.30822 -3.46477e-23)
(-2.08344 2.32353 0)
(-2.0965 2.33802 2.16389e-19)
(-2.10887 2.35175 3.35136e-18)
(-2.12061 2.36479 -2.8454e-18)
(-2.13178 2.37721 0)
(-2.14243 2.38905 3.44303e-18)
(-2.15258 2.40037 -2.60509e-18)
(-2.16229 2.41118 -2.89192e-18)
(-2.17157 2.42154 2.81736e-18)
(-2.18046 2.43147 3.42723e-19)
(-2.18899 2.44099 0)
(-2.19716 2.45014 3.25504e-19)
(-2.20501 2.45893 0)
(-2.21255 2.46737 0)
(-2.21979 2.4755 -2.41723e-18)
(-2.22676 2.48331 2.06855e-18)
(-2.23346 2.49083 -5.76888e-19)
(-2.2399 2.49808 -2.25326e-18)
(-2.2461 2.50505 1.93042e-18)
(-2.25207 2.51176 -2.69403e-19)
(-2.25781 2.51823 -2.1062e-18)
(-2.26333 2.52445 2.06385e-18)
(-2.26864 2.53044 -2.01597e-18)
(-2.27375 2.5362 2.4701e-18)
(-2.27866 2.54175 -1.93108e-18)
(-2.28339 2.54708 3.55313e-21)
(-2.28792 2.55221 3.2422e-18)
(-2.29228 2.55713 -2.26954e-18)
(-2.29646 2.56186 0)
(-2.30046 2.56639 1.73826e-18)
(-2.3043 2.57074 -1.70618e-18)
(-2.30797 2.57489 0)
(-2.31148 2.57887 -4.08828e-19)
(-2.31483 2.58267 8.00984e-19)
(-2.31802 2.58629 -1.56743e-18)
(-2.32106 2.58974 3.45888e-18)
(-2.32395 2.59302 -1.13129e-18)
(-2.32669 2.59613 -3.68777e-19)
(-2.32927 2.59907 1.80429e-18)
(-2.33172 2.60184 7.03861e-19)
(-2.33401 2.60445 3.42749e-19)
(-2.33616 2.6069 -3.81652e-21)
(-2.33817 2.60919 -3.98836e-18)
(-2.34004 2.61132 -6.47068e-19)
(-2.34177 2.61329 3.85421e-21)
(-2.34335 2.6151 1.24976e-18)
(-2.3448 2.61675 -1.83027e-18)
(-2.34611 2.61824 -1.19165e-18)
(-2.34728 2.61958 2.92685e-21)
(-2.34831 2.62077 5.73396e-19)
(-2.3492 2.62179 -5.5905e-19)
(-2.34996 2.62267 1.09662e-18)
(-2.35057 2.62338 0)
(-2.35105 2.62394 -1.0469e-18)
(-2.3514 2.62435 5.13245e-19)
(-2.3516 2.6246 9.92586e-22)
(-2.35167 2.62469 9.79797e-19)
(-2.3516 2.62463 -4.78226e-19)
(-2.35139 2.62441 0)
(-2.35104 2.62403 -9.1269e-19)
(-2.35055 2.6235 0)
(-2.34993 2.62281 -8.70203e-19)
(-2.34916 2.62196 0)
(-2.34825 2.62096 4.15488e-19)
(-2.3472 2.61979 4.05406e-19)
(-2.34601 2.61846 -1.18251e-18)
(-2.34467 2.61697 -3.8375e-19)
(-2.3432 2.61533 -1.12438e-18)
(-2.34158 2.61351 -3.64678e-19)
(-2.33981 2.61154 7.12734e-19)
(-2.3379 2.6094 -3.4623e-19)
(-2.33584 2.6071 6.7841e-19)
(-2.33364 2.60463 -3.28398e-19)
(-2.33128 2.602 -9.63071e-19)
(-1.16878 1.31266 0)
(-1.44826 1.62997 0)
(-1.57522 1.76908 7.05821e-18)
(-1.6589 1.86415 -3.19594e-21)
(-1.72263 1.9349 -7.11205e-18)
(-1.77331 1.99155 5.91329e-18)
(-1.81542 2.03855 -5.58786e-18)
(-1.85144 2.07868 0)
(-1.88287 2.1137 -3.346e-19)
(-1.91076 2.14475 -5.40771e-18)
(-1.93583 2.17264 4.85488e-18)
(-1.95858 2.19796 5.79575e-19)
(-1.97942 2.22113 2.77358e-19)
(-1.99863 2.24249 -4.7869e-18)
(-2.01644 2.26231 3.83497e-18)
(-2.03304 2.28077 2.4587e-19)
(-2.04858 2.29806 2.36921e-19)
(-2.06318 2.31431 4.11368e-18)
(-2.07694 2.32963 -3.11817e-21)
(-2.08995 2.34411 -6.83642e-18)
(-2.10227 2.35785 3.31132e-18)
(-2.11397 2.37089 0)
(-2.1251 2.38331 -3.11055e-18)
(-2.13571 2.39516 3.18523e-21)
(-2.14583 2.40647 2.93794e-18)
(-2.15551 2.41729 3.56944e-19)
(-2.16477 2.42764 2.77711e-18)
(-2.17364 2.43757 -6.08793e-18)
(-2.18214 2.4471 5.27249e-18)
(-2.19029 2.45625 -3.25165e-21)
(-2.19812 2.46503 -2.82154e-18)
(-2.20565 2.47348 0)
(-2.21288 2.48161 0)
(-2.21983 2.48943 2.91503e-19)
(-2.22651 2.49696 2.84795e-19)
(-2.23295 2.5042 -5.56668e-19)
(-2.23914 2.51118 9.2918e-24)
(-2.24509 2.5179 2.66105e-19)
(-2.25082 2.52437 0)
(-2.25634 2.53059 -2.29035e-18)
(-2.26164 2.53659 1.49714e-18)
(-2.26674 2.54236 -1.94993e-18)
(-2.27165 2.54791 2.39011e-18)
(-2.27637 2.55325 1.86913e-18)
(-2.2809 2.55839 -1.83392e-18)
(-2.28525 2.56332 0)
(-2.28942 2.56805 0)
(-2.29342 2.57259 0)
(-2.29725 2.57694 0)
(-2.30092 2.58111 -4.13209e-19)
(-2.30442 2.58509 -1.21279e-18)
(-2.30777 2.58889 1.19195e-18)
(-2.31096 2.59252 0)
(-2.31399 2.59598 -3.80893e-19)
(-2.31688 2.59926 -1.49106e-18)
(-2.31961 2.60238 1.83041e-18)
(-2.3222 2.60532 3.58325e-19)
(-2.32464 2.6081 -1.08838e-23)
(-2.32693 2.61072 3.43966e-19)
(-2.32908 2.61318 0)
(-2.33109 2.61547 6.60218e-19)
(-2.33295 2.6176 0)
(-2.33468 2.61957 0)
(-2.33626 2.62139 -1.85896e-18)
(-2.33771 2.62305 3.03706e-18)
(-2.33901 2.62455 -5.96646e-19)
(-2.34018 2.62589 5.82234e-19)
(-2.34121 2.62707 0)
(-2.3421 2.6281 5.57783e-19)
(-2.34286 2.62898 5.43873e-19)
(-2.34348 2.6297 -2.13621e-18)
(-2.34396 2.63026 1.04684e-18)
(-2.3443 2.63067 0)
(-2.34451 2.63092 0)
(-2.34458 2.63101 4.88581e-19)
(-2.34451 2.63095 0)
(-2.3443 2.63073 4.66798e-19)
(-2.34395 2.63036 -4.54155e-19)
(-2.34347 2.62982 8.93242e-19)
(-2.34285 2.62913 -4.34271e-19)
(-2.34208 2.62828 1.27618e-18)
(-2.34118 2.62727 0)
(-2.34013 2.6261 -4.04098e-19)
(-2.33894 2.62477 3.96318e-19)
(-2.33761 2.62328 0)
(-2.33614 2.62163 -3.77228e-19)
(-2.33453 2.61982 1.09975e-18)
(-2.33276 2.61784 0)
(-2.33086 2.6157 0)
(-2.32881 2.61339 -1.01848e-18)
(-2.32661 2.61091 1.65641e-18)
(-2.32427 2.60827 6.44993e-19)
(-1.16523 1.31673 0)
(-1.44438 1.63427 -4.9792e-19)
(-1.57063 1.77411 4.68808e-19)
(-1.65412 1.86931 4.4164e-19)
(-1.71762 1.94027 6.23406e-18)
(-1.76807 1.99709 -6.26596e-18)
(-1.81002 2.0442 1.47552e-22)
(-1.84588 2.08443 -5.5897e-18)
(-1.87717 2.11954 5.635e-18)
(-1.90493 2.15066 -5.0385e-18)
(-1.92988 2.17861 9.60436e-18)
(-1.95252 2.20398 -2.89781e-19)
(-1.97326 2.22719 -3.20472e-21)
(-1.99237 2.24859 -4.20811e-18)
(-2.0101 2.26843 0)
(-2.02663 2.28692 0)
(-2.0421 2.30423 3.74196e-18)
(-2.05663 2.3205 -7.44851e-18)
(-2.07033 2.33583 3.48999e-18)
(-2.08328 2.35033 -3.37204e-18)
(-2.09555 2.36407 3.26776e-18)
(-2.1072 2.37713 0)
(-2.11829 2.38955 -3.06904e-18)
(-2.12886 2.4014 2.23754e-18)
(-2.13894 2.41272 2.89533e-18)
(-2.14859 2.42354 -3.17077e-18)
(-2.15781 2.43391 0)
(-2.16665 2.44384 3.33666e-19)
(-2.17513 2.45337 0)
(-2.18326 2.46252 0)
(-2.19107 2.47131 3.09145e-19)
(-2.19857 2.47977 -2.41184e-18)
(-2.20578 2.4879 2.35792e-18)
(-2.21271 2.49572 -2.01208e-18)
(-2.21938 2.50325 2.25032e-18)
(-2.2258 2.5105 5.49486e-19)
(-2.23198 2.51749 -1.87873e-18)
(-2.23792 2.52421 3.94098e-18)
(-2.24364 2.53068 -2.05797e-18)
(-2.24914 2.53692 2.51531e-19)
(-2.25444 2.54292 9.84775e-19)
(-2.25953 2.5487 -1.92645e-18)
(-2.26443 2.55425 1.41774e-18)
(-2.26913 2.5596 0)
(-2.27366 2.56474 9.05573e-19)
(-2.278 2.56968 0)
(-2.28217 2.57442 1.30197e-18)
(-2.28616 2.57896 -4.29359e-19)
(-2.28999 2.58332 -1.67086e-18)
(-2.29365 2.58749 4.0893e-19)
(-2.29715 2.59148 0)
(-2.30049 2.59529 0)
(-2.30367 2.59893 0)
(-2.3067 2.60239 3.77334e-19)
(-2.30958 2.60568 -1.47749e-18)
(-2.31231 2.6088 2.89985e-18)
(-2.31489 2.61175 -3.19743e-18)
(-2.31733 2.61454 -3.44471e-19)
(-2.31962 2.61716 6.84341e-19)
(-2.32177 2.61962 -1.33574e-18)
(-2.32377 2.62192 3.77269e-21)
(-2.32564 2.62406 1.28621e-18)
(-2.32736 2.62603 6.29154e-19)
(-2.32894 2.62785 6.16373e-19)
(-2.33038 2.62951 0)
(-2.33169 2.63102 1.77216e-18)
(-2.33286 2.63236 -3.85548e-21)
(-2.33389 2.63355 -1.13614e-18)
(-2.33478 2.63458 -5.55243e-19)
(-2.33554 2.63546 0)
(-2.33615 2.63618 0)
(-2.33664 2.63675 -5.2064e-19)
(-2.33698 2.63715 0)
(-2.33719 2.63741 -4.98375e-19)
(-2.33726 2.6375 -1.46046e-18)
(-2.33719 2.63744 4.80663e-19)
(-2.33698 2.63722 -4.62174e-19)
(-2.33664 2.63685 9.13298e-19)
(-2.33616 2.63631 -4.45347e-19)
(-2.33554 2.63562 8.70364e-19)
(-2.33478 2.63477 -8.50308e-19)
(-2.33388 2.63376 0)
(-2.33283 2.63259 0)
(-2.33165 2.63125 7.91828e-19)
(-2.33033 2.62976 0)
(-2.32886 2.6281 7.54255e-19)
(-2.32725 2.62629 -1.47176e-18)
(-2.32549 2.6243 0)
(-2.3236 2.62216 6.99973e-19)
(-2.32155 2.61984 0)
(-2.31936 2.61736 -6.65193e-19)
(-2.31702 2.61472 0)
(-1.16148 1.32066 8.6295e-18)
(-1.44019 1.63855 8.93846e-18)
(-1.56576 1.77908 -1.49467e-17)
(-1.64909 1.87442 3.13899e-21)
(-1.71234 1.94561 7.43613e-18)
(-1.7626 2.00259 -6.60434e-18)
(-1.8044 2.04982 -3.62945e-19)
(-1.84011 2.09017 5.54193e-18)
(-1.87127 2.12537 5.57657e-18)
(-1.89892 2.15657 -9.66372e-18)
(-1.92376 2.18459 3.00183e-19)
(-1.9463 2.21002 4.25188e-18)
(-1.96695 2.23329 0)
(-1.98598 2.25473 2.59701e-19)
(-2.00362 2.27461 2.49386e-19)
(-2.02007 2.29314 0)
(-2.03547 2.31048 3.69386e-18)
(-2.04993 2.32678 -3.16319e-21)
(-2.06357 2.34213 -3.22876e-18)
(-2.07646 2.35665 2.08051e-19)
(-2.08868 2.37041 0)
(-2.10028 2.38348 -2.73056e-18)
(-2.11132 2.39592 2.6517e-18)
(-2.12185 2.40779 -3.40245e-23)
(-2.13189 2.41912 -2.85554e-18)
(-2.1415 2.42995 3.12717e-18)
(-2.15069 2.44032 0)
(-2.1595 2.45026 0)
(-2.16794 2.4598 -2.24287e-18)
(-2.17605 2.46896 3.2032e-21)
(-2.18383 2.47776 2.44097e-18)
(-2.19131 2.48622 0)
(-2.1985 2.49436 -2.32278e-18)
(-2.20541 2.50219 1.98827e-18)
(-2.21206 2.50972 -1.93967e-18)
(-2.21846 2.51698 1.89934e-18)
(-2.22462 2.52397 -2.651e-19)
(-2.23055 2.5307 -1.81352e-18)
(-2.23625 2.53718 2.03146e-18)
(-2.24174 2.54342 0)
(-2.24702 2.54943 1.94305e-18)
(-2.2521 2.55521 -1.90591e-18)
(-2.25699 2.56077 0)
(-2.26169 2.56613 0)
(-2.2662 2.57127 -2.23528e-18)
(-2.27053 2.57621 1.31685e-18)
(-2.27469 2.58096 2.14617e-18)
(-2.27868 2.58551 -2.94707e-18)
(-2.2825 2.58988 1.65237e-18)
(-2.28615 2.59406 0)
(-2.28964 2.59805 0)
(-2.29298 2.60187 1.94178e-18)
(-2.29616 2.60551 -1.52614e-18)
(-2.29918 2.60898 -3.73607e-19)
(-2.30206 2.61227 0)
(-2.30478 2.6154 -1.7937e-18)
(-2.30736 2.61836 3.67432e-21)
(-2.30979 2.62115 1.03729e-18)
(-2.31208 2.62378 2.02827e-18)
(-2.31422 2.62624 -1.66026e-18)
(-2.31622 2.62854 6.5023e-19)
(-2.31809 2.63068 0)
(-2.31981 2.63267 -1.33432e-23)
(-2.32139 2.63449 0)
(-2.32283 2.63615 5.99815e-19)
(-2.32413 2.63766 5.8578e-19)
(-2.3253 2.63901 -1.15342e-18)
(-2.32633 2.6402 5.63982e-19)
(-2.32722 2.64124 5.52382e-19)
(-2.32798 2.64212 5.40945e-19)
(-2.32859 2.64284 -1.0574e-18)
(-2.32908 2.6434 1.5576e-18)
(-2.32942 2.64381 0)
(-2.32963 2.64407 4.96762e-19)
(-2.3297 2.64416 -4.86081e-19)
(-2.32964 2.6441 -9.51104e-19)
(-2.32943 2.64388 -4.65159e-19)
(-2.32909 2.64351 0)
(-2.32861 2.64297 4.44801e-19)
(-2.32799 2.64228 0)
(-2.32724 2.64143 8.49958e-19)
(-2.32634 2.64041 0)
(-2.3253 2.63924 0)
(-2.32412 2.6379 -7.90543e-19)
(-2.3228 2.63641 1.99075e-21)
(-2.32134 2.63475 7.55566e-19)
(-2.31974 2.63293 5.87986e-24)
(-2.31799 2.63094 -7.1967e-19)
(-2.3161 2.62879 -7.02125e-19)
(-2.31406 2.62647 -1.36768e-18)
(-2.31188 2.62398 6.69811e-19)
(-2.30955 2.62133 0)
(-1.15761 1.32457 -8.62115e-18)
(-1.43575 1.64289 7.43269e-18)
(-1.56066 1.78406 0)
(-1.64382 1.87956 6.98952e-18)
(-1.70682 1.95099 -7.38585e-18)
(-1.7569 2.00812 -9.41961e-23)
(-1.79854 2.05548 5.44587e-18)
(-1.83412 2.09595 -3.33375e-21)
(-1.86516 2.13124 -5.84812e-18)
(-1.8927 2.16253 0)
(-1.91743 2.19063 -2.93503e-19)
(-1.93989 2.21612 -4.47919e-18)
(-1.96044 2.23945 4.2857e-18)
(-1.97939 2.26095 0)
(-1.99696 2.28088 -2.46175e-19)
(-2.01333 2.29945 -2.36721e-19)
(-2.02866 2.31683 0)
(-2.04306 2.33315 -3.29532e-18)
(-2.05664 2.34854 6.57938e-18)
(-2.06947 2.36309 -6.77141e-18)
(-2.08164 2.37687 6.35561e-18)
(-2.09319 2.38997 -3.88009e-19)
(-2.10418 2.40243 -2.61476e-18)
(-2.11466 2.41431 3.62392e-19)
(-2.12467 2.42565 0)
(-2.13423 2.4365 -3.42387e-19)
(-2.14339 2.44689 0)
(-2.15216 2.45684 2.91843e-18)
(-2.16057 2.46639 -2.84676e-18)
(-2.16864 2.47556 2.46411e-18)
(-2.1764 2.48437 -4.8105e-18)
(-2.18385 2.49284 2.64251e-18)
(-2.19101 2.50098 0)
(-2.1979 2.50882 2.23753e-18)
(-2.20453 2.51637 -4.92354e-18)
(-2.21091 2.52363 2.14092e-18)
(-2.21705 2.53063 -1.86042e-24)
(-2.22296 2.53736 0)
(-2.22865 2.54385 -2.25161e-18)
(-2.23412 2.5501 3.32068e-21)
(-2.23939 2.55611 1.44131e-18)
(-2.24446 2.5619 0)
(-2.24933 2.56747 -1.83961e-18)
(-2.25401 2.57283 2.25659e-18)
(-2.25852 2.57798 0)
(-2.26284 2.58293 7.3775e-24)
(-2.26699 2.58768 -1.69613e-18)
(-2.27096 2.59224 2.91258e-18)
(-2.27477 2.59661 -2.04129e-18)
(-2.27842 2.6008 0)
(-2.28191 2.6048 3.92133e-19)
(-2.28523 2.60862 -3.8452e-19)
(-2.28841 2.61227 0)
(-2.29143 2.61574 -1.47723e-18)
(-2.2943 2.61904 1.45222e-18)
(-2.29702 2.62218 3.55596e-19)
(-2.29959 2.62514 0)
(-2.30201 2.62794 6.83919e-19)
(-2.3043 2.63057 -3.35331e-19)
(-2.30644 2.63304 6.77887e-24)
(-2.30844 2.63535 6.42941e-19)
(-2.31029 2.63749 -1.26627e-18)
(-2.31201 2.63948 -6.1981e-19)
(-2.31359 2.6413 -6.07592e-19)
(-2.31503 2.64297 -5.95583e-19)
(-2.31633 2.64448 0)
(-2.3175 2.64583 5.72068e-19)
(-2.31853 2.64703 -5.6058e-19)
(-2.31942 2.64807 -1.09848e-18)
(-2.32017 2.64895 -5.38069e-19)
(-2.32079 2.64967 -1.05215e-18)
(-2.32127 2.65024 1.55043e-18)
(-2.32162 2.65065 -1.00893e-18)
(-2.32183 2.6509 4.96804e-19)
(-2.3219 2.651 1.45127e-18)
(-2.32184 2.65094 -4.76055e-19)
(-2.32164 2.65072 4.63932e-19)
(-2.3213 2.65034 -9.05806e-19)
(-2.32082 2.64981 8.89932e-19)
(-2.32021 2.64911 0)
(-2.31945 2.64826 -1.69821e-18)
(-2.31856 2.64724 -8.3006e-19)
(-2.31753 2.64607 8.11272e-19)
(-2.31635 2.64473 -1.58548e-18)
(-2.31504 2.64323 7.7446e-19)
(-2.31358 2.64157 -1.51086e-18)
(-2.31198 2.63974 1.47929e-18)
(-2.31024 2.63775 5.23147e-24)
(-2.30836 2.63559 7.01846e-19)
(-2.30633 2.63327 -1.99295e-21)
(-2.30415 2.63078 -6.70053e-19)
(-2.30183 2.62812 6.5154e-19)
(-1.15362 1.3285 -8.10808e-18)
(-1.43111 1.64734 -7.90441e-18)
(-1.55537 1.78909 3.03696e-21)
(-1.63835 1.88478 1.39014e-17)
(-1.70109 1.95645 -6.11219e-18)
(-1.75099 2.01373 6.50004e-18)
(-1.79248 2.06123 -5.40054e-18)
(-1.82791 2.10181 0)
(-1.85884 2.1372 3.21387e-19)
(-1.88626 2.16858 4.57328e-18)
(-1.9109 2.19675 -4.35394e-18)
(-1.93326 2.22232 5.53393e-19)
(-1.95373 2.24571 2.64472e-19)
(-1.9726 2.26726 -3.79726e-18)
(-1.99009 2.28724 4.13264e-18)
(-2.0064 2.30586 3.969e-18)
(-2.02166 2.32328 -3.59927e-18)
(-2.036 2.33964 3.46713e-18)
(-2.04952 2.35507 -3.35042e-18)
(-2.06229 2.36964 -2.02342e-19)
(-2.0744 2.38346 -3.13149e-18)
(-2.0859 2.39658 3.03705e-18)
(-2.09685 2.40906 3.6801e-19)
(-2.10728 2.42097 -3.57239e-19)
(-2.11724 2.43233 0)
(-2.12677 2.4432 -2.69823e-18)
(-2.13588 2.4536 2.62869e-18)
(-2.14462 2.46357 -3.19765e-19)
(-2.153 2.47313 0)
(-2.16104 2.48232 2.73254e-18)
(-2.16876 2.49114 -2.66877e-18)
(-2.17618 2.49962 -2.89092e-18)
(-2.18332 2.50778 2.26121e-18)
(-2.19018 2.51562 -2.20592e-18)
(-2.19679 2.52318 2.4288e-18)
(-2.20314 2.53045 0)
(-2.20926 2.53746 2.579e-19)
(-2.21515 2.5442 2.52333e-19)
(-2.22082 2.5507 -1.48009e-18)
(-2.22628 2.55695 3.8682e-18)
(-2.23153 2.56298 -4.76783e-19)
(-2.23658 2.56877 -3.24628e-18)
(-2.24144 2.57435 1.81897e-18)
(-2.24611 2.57972 8.88671e-19)
(-2.2506 2.58488 -1.74684e-18)
(-2.25491 2.58983 4.2765e-19)
(-2.25905 2.59459 1.67523e-18)
(-2.26301 2.59916 -8.23788e-19)
(-2.26681 2.60353 2.01352e-18)
(-2.27045 2.60773 -1.18748e-18)
(-2.27393 2.61173 -6.0664e-24)
(-2.27725 2.61556 0)
(-2.28041 2.61922 -1.48985e-18)
(-2.28343 2.62269 1.83065e-18)
(-2.28629 2.626 0)
(-2.289 2.62914 0)
(-2.29157 2.63211 1.3791e-18)
(-2.29399 2.63491 -6.80893e-19)
(-2.29627 2.63755 -1.66262e-18)
(-2.2984 2.64002 -9.75568e-19)
(-2.3004 2.64233 1.28003e-18)
(-2.30225 2.64448 -6.26792e-19)
(-2.30397 2.64647 6.12839e-19)
(-2.30554 2.6483 -6.04636e-19)
(-2.30698 2.64997 -1.18022e-18)
(-2.30828 2.65149 1.16086e-18)
(-2.30945 2.65284 -1.13621e-18)
(-2.31047 2.65404 0)
(-2.31136 2.65508 2.18133e-18)
(-2.31212 2.65596 -1.0717e-18)
(-2.31274 2.65669 -1.04633e-18)
(-2.31322 2.65726 5.15422e-19)
(-2.31357 2.65767 0)
(-2.31378 2.65792 4.92675e-19)
(-2.31385 2.65802 0)
(-2.31379 2.65796 4.72375e-19)
(-2.31359 2.65774 4.60466e-19)
(-2.31325 2.65736 -9.07159e-19)
(-2.31278 2.65682 0)
(-2.31217 2.65613 4.33321e-19)
(-2.31142 2.65527 1.69548e-18)
(-2.31053 2.65425 8.29077e-19)
(-2.3095 2.65308 -8.10654e-19)
(-2.30833 2.65173 6.13434e-24)
(-2.30702 2.65023 0)
(-2.30557 2.64856 -7.56818e-19)
(-2.30398 2.64673 -1.99744e-21)
(-2.30225 2.64474 -1.99392e-21)
(-2.30037 2.64257 0)
(-2.29834 2.64024 -6.8839e-19)
(-2.29618 2.63775 1.34176e-18)
(-2.29386 2.63508 -2.00411e-21)
(-1.14951 1.33245 -8.10034e-18)
(-1.42625 1.6519 -7.88265e-18)
(-1.5499 1.7942 1.47508e-17)
(-1.63267 1.89009 -6.91068e-18)
(-1.69514 1.962 0)
(-1.74487 2.01943 0)
(-1.7862 2.06707 0)
(-1.8215 2.10776 5.37838e-18)
(-1.8523 2.14325 -5.0894e-18)
(-1.87962 2.17472 3.01527e-19)
(-1.90416 2.20298 4.58612e-18)
(-1.92643 2.22861 -2.76517e-19)
(-1.94681 2.25207 -8.61642e-18)
(-1.9656 2.27368 3.75117e-18)
(-1.98302 2.29372 -4.79546e-19)
(-1.99925 2.31238 3.91528e-18)
(-2.01445 2.32985 2.18636e-19)
(-2.02872 2.34625 -3.63557e-18)
(-2.04218 2.36171 0)
(-2.0549 2.37633 3.58841e-18)
(-2.06696 2.39017 -3.08954e-18)
(-2.07841 2.40332 3.73962e-19)
(-2.0893 2.41584 -3.62613e-19)
(-2.09969 2.42776 3.51981e-19)
(-2.10961 2.43915 0)
(-2.11909 2.45004 2.65858e-18)
(-2.12817 2.46046 -2.59004e-18)
(-2.13687 2.47045 3.15084e-19)
(-2.14521 2.48004 3.07018e-19)
(-2.15321 2.48923 -5.98667e-19)
(-2.16091 2.49807 2.62658e-18)
(-2.1683 2.50657 -4.27546e-18)
(-2.1754 2.51474 2.22837e-18)
(-2.18224 2.5226 1.90207e-18)
(-2.18882 2.53016 -4.25298e-18)
(-2.19515 2.53745 2.0809e-18)
(-2.20125 2.54446 2.54245e-19)
(-2.20712 2.55122 -2.48775e-19)
(-2.21276 2.55773 1.94644e-18)
(-2.2182 2.56399 -1.67053e-18)
(-2.22343 2.57002 -9.32346e-19)
(-2.22847 2.57583 1.37403e-18)
(-2.23331 2.58141 -4.48235e-19)
(-2.23797 2.58679 1.75545e-18)
(-2.24244 2.59195 -1.72398e-18)
(-2.24674 2.59692 2.10895e-18)
(-2.25086 2.60168 -3.36857e-21)
(-2.25482 2.60626 -4.09278e-19)
(-2.25861 2.61064 -1.59401e-18)
(-2.26223 2.61484 -3.9046e-19)
(-2.2657 2.61885 1.14732e-18)
(-2.26901 2.62269 -1.50471e-18)
(-2.27217 2.62635 -3.6863e-19)
(-2.27517 2.62983 0)
(-2.27803 2.63314 -3.5485e-19)
(-2.28073 2.63628 -1.3909e-18)
(-2.2833 2.63926 1.70985e-18)
(-2.28571 2.64206 2.0093e-18)
(-2.28798 2.64471 -6.5953e-19)
(-2.29012 2.64719 0)
(-2.29211 2.6495 6.33116e-19)
(-2.29396 2.65166 1.86153e-18)
(-2.29567 2.65365 -1.22045e-18)
(-2.29724 2.65548 5.97687e-19)
(-2.29868 2.65716 -1.17063e-18)
(-2.29997 2.65867 3.73365e-21)
(-2.30114 2.66003 2.2573e-18)
(-2.30216 2.66123 0)
(-2.30305 2.66227 -6.77498e-24)
(-2.3038 2.66316 1.06099e-18)
(-2.30442 2.66389 -1.04377e-18)
(-2.30491 2.66446 0)
(-2.30525 2.66487 1.49904e-18)
(-2.30546 2.66512 -3.8609e-21)
(-2.30554 2.66522 -9.62407e-19)
(-2.30548 2.66516 4.68434e-19)
(-2.30528 2.66494 -4.62599e-19)
(-2.30495 2.66456 0)
(-2.30448 2.66402 0)
(-2.30387 2.66332 -3.6165e-24)
(-2.30312 2.66247 -6.79813e-24)
(-2.30224 2.66145 8.27579e-19)
(-2.30121 2.66026 -8.0953e-19)
(-2.30005 2.65892 1.9926e-21)
(-2.29875 2.65741 3.98131e-21)
(-2.2973 2.65574 2.27224e-18)
(-2.29572 2.65391 7.3961e-19)
(-2.29399 2.6519 7.2269e-19)