/*--------------------------------*- C++ -*----------------------------------*\
  =========                 |
  \\      /  F ield         | OpenFOAM: The Open Source CFD Toolbox
   \\    /   O peration     | Website:  https://openfoam.org
    \\  /    A nd           | Version:  10
     \\/     M anipulation  |
\*---------------------------------------------------------------------------*/
FoamFile
{
    format      ascii;
    class       volScalarField;
    location    "71000";
    object      yPlus;
}
// * * * * * * * * * * * * * * * * * * * * * * * * * * * * * * * * * * * * * //

dimensions      [0 0 0 0 0 0 0];

internalField   uniform 0;

boundaryField
{
    right
    {
        type            cyclic;
    }
    left
    {
        type            cyclic;
    }
    outerWall
    {
        type            calculated;
        value           nonuniform List<scalar> 
200
(
17.4961
17.4888
17.4873
17.4868
17.4869
17.4879
17.4896
17.4915
17.4936
17.4958
17.498
17.5001
17.5022
17.5042
17.5061
17.5079
17.5096
17.5112
17.5126
17.514
17.5153
17.5165
17.5176
17.5186
17.5195
17.5205
17.5213
17.5221
17.5229
17.5236
17.5244
17.525
17.5257
17.5263
17.527
17.5276
17.5282
17.5287
17.5293
17.5299
17.5304
17.5309
17.5315
17.532
17.5325
17.533
17.5335
17.5339
17.5344
17.5348
17.5353
17.5357
17.5361
17.5364
17.5368
17.5371
17.5374
17.5377
17.5379
17.5381
17.5383
17.5384
17.5385
17.5386
17.5386
17.5385
17.5383
17.5384
17.537
17.5342
17.531
17.5267
17.5235
17.517
17.5139
17.5141
17.5158
17.5175
17.519
17.5187
17.4726
17.4752
17.483
17.4915
17.5002
17.5092
17.5182
17.5269
17.5352
17.5431
17.5505
17.5574
17.5637
17.5694
17.5747
17.5793
17.5835
17.5871
17.5902
17.5928
17.5949
17.5965
17.5976
17.5982
17.5983
17.598
17.5972
17.5959
17.5941
17.5918
17.5889
17.5855
17.5814
17.5766
17.571
17.5645
17.5567
17.5471
17.5352
17.5166
17.5201
17.5242
17.5266
17.528
17.5289
17.5294
17.5286
17.525
17.5207
17.5172
17.5151
17.514
17.5137
17.5147
17.5165
17.5185
17.5205
17.5222
17.5237
17.525
17.5262
17.5271
17.5279
17.5286
17.5292
17.5297
17.5302
17.5305
17.5309
17.5311
17.5313
17.5315
17.5316
17.5317
17.5318
17.5318
17.5318
17.5318
17.5318
17.5317
17.5317
17.5316
17.5314
17.5313
17.5311
17.531
17.5308
17.5306
17.5304
17.5301
17.5299
17.5296
17.5293
17.529
17.5287
17.5283
17.5279
17.5275
17.5271
17.5267
17.5262
17.5257
17.5251
17.5245
17.5239
17.5232
17.5224
17.5216
17.5207
17.5196
17.5185
17.5172
17.5157
17.5139
17.5118
17.5093
17.506
17.5017
17.4956
17.4833
)
;
    }
    stirrerWall
    {
        type            calculated;
        value           nonuniform List<scalar> 0();
    }
    top
    {
        type            empty;
    }
    bottom
    {
        type            empty;
    }
    procBoundary2to3
    {
        type            processor;
        value           uniform 0;
    }
}


// ************************************************************************* //
