/*--------------------------------*- C++ -*----------------------------------*\
  =========                 |
  \\      /  F ield         | OpenFOAM: The Open Source CFD Toolbox
   \\    /   O peration     | Website:  https://openfoam.org
    \\  /    A nd           | Version:  10
     \\/     M anipulation  |
\*---------------------------------------------------------------------------*/
FoamFile
{
    format      ascii;
    class       volScalarField;
    location    "56000";
    object      nut;
}
// * * * * * * * * * * * * * * * * * * * * * * * * * * * * * * * * * * * * * //

dimensions      [0 2 -1 0 0 0 0];

internalField   nonuniform List<scalar> 
17981
(
0.00111363
0.00110804
0.00110483
0.00110408
0.00110586
0.00111014
0.00111683
0.00112579
0.00113684
0.00114975
0.0011643
0.00118024
0.00119733
0.00121533
0.00123402
0.0012532
0.00127271
0.00129237
0.00131204
0.00133162
0.001351
0.0013701
0.00138884
0.00140718
0.00142508
0.00144249
0.0014594
0.00147578
0.00149164
0.00150696
0.00152175
0.00153601
0.00154974
0.00156296
0.00157568
0.00158791
0.00159966
0.00161096
0.00162181
0.00163223
0.00164223
0.00165184
0.00166105
0.0016699
0.0016784
0.00168655
0.00169438
0.00170189
0.00107922
0.0010753
0.00107376
0.00107471
0.00107819
0.00108417
0.00109255
0.00110318
0.00111587
0.00113038
0.00114646
0.00116387
0.00118234
0.00120163
0.00122154
0.00124184
0.00126237
0.00128296
0.00130348
0.00132381
0.00134386
0.00136354
0.0013828
0.00140158
0.00141985
0.00143757
0.00145474
0.00147133
0.00148733
0.00150276
0.00151762
0.0015319
0.00154563
0.00155882
0.00157147
0.00158362
0.00159526
0.00160643
0.00161713
0.00162739
0.00163722
0.00164664
0.00165567
0.00166431
0.0016726
0.00168054
0.00168814
0.00169544
0.00104439
0.00104249
0.00104297
0.00104594
0.00105144
0.00105941
0.00106975
0.0010823
0.00109684
0.00111312
0.00113088
0.00114987
0.00116982
0.00119048
0.00121163
0.00123307
0.00125462
0.00127613
0.00129746
0.0013185
0.00133916
0.00135937
0.00137907
0.00139822
0.00141678
0.00143474
0.00145207
0.00146877
0.00148484
0.00150029
0.00151512
0.00152934
0.00154298
0.00155604
0.00156855
0.00158052
0.00159198
0.00160294
0.00161342
0.00162344
0.00163302
0.00164218
0.00165094
0.00165931
0.00166732
0.00167498
0.00168231
0.00168932
0.00102598
0.00103621
0.00104876
0.00106344
0.00108001
0.00109821
0.00111778
0.00113843
0.00115991
0.00118197
0.00120438
0.00122694
0.00124949
0.00127186
0.00129394
0.00131562
0.00133681
0.00135746
0.00137751
0.00139693
0.00141568
0.00143376
0.00145116
0.00146787
0.0014839
0.00149926
0.00151397
0.00152803
0.00154148
0.00155432
0.00156659
0.00157829
0.00158947
0.00160013
0.0016103
0.00162
0.00162925
0.00163808
0.0016465
0.00165453
0.00166219
0.0016695
0.00167648
0.00168315
0.00100217
0.00101493
0.0010299
0.00104689
0.00106564
0.00108587
0.00110731
0.00112968
0.00115271
0.00117615
0.00119978
0.00122342
0.00124688
0.00127004
0.00129278
0.001315
0.00133662
0.0013576
0.00137788
0.00139745
0.00141628
0.00143436
0.0014517
0.0014683
0.00148418
0.00149934
0.00151381
0.0015276
0.00154075
0.00155327
0.00156519
0.00157653
0.00158733
0.0015976
0.00160737
0.00161667
0.00162551
0.00163392
0.00164192
0.00164953
0.00165678
0.00166368
0.00167024
0.0016765
0.000980413
0.000995891
0.00101346
0.00103289
0.00105392
0.00107625
0.00109959
0.00112367
0.00114821
0.00117298
0.00119777
0.00122238
0.00124667
0.0012705
0.00129377
0.0013164
0.00133832
0.00135949
0.00137987
0.00139945
0.00141822
0.00143617
0.00145333
0.00146969
0.00148528
0.00150011
0.00151422
0.00152762
0.00154035
0.00155244
0.00156391
0.00157479
0.0015851
0.00159489
0.00160417
0.00161297
0.00162132
0.00162923
0.00163674
0.00164386
0.00165062
0.00165703
0.00166312
0.00166891
0.000979409
0.000999694
0.00102165
0.00104499
0.00106942
0.00109464
0.00112037
0.00114635
0.00117235
0.00119817
0.00122364
0.00124861
0.00127297
0.00129663
0.00131951
0.00134157
0.00136277
0.0013831
0.00140254
0.00142109
0.00143877
0.00145559
0.00147157
0.00148673
0.00150111
0.00151473
0.00152762
0.00153982
0.00155135
0.00156226
0.00157257
0.00158231
0.00159152
0.00160021
0.00160843
0.0016162
0.00162354
0.00163048
0.00163704
0.00164324
0.00164911
0.00165466
0.00165992
0.00101325
0.00103889
0.00106536
0.00109237
0.00111965
0.00114694
0.00117403
0.00120073
0.00122689
0.00125237
0.00127708
0.00130094
0.0013239
0.00134593
0.00136699
0.00138709
0.00140622
0.0014244
0.00144165
0.00145798
0.00147343
0.00148803
0.00150182
0.00151482
0.00152707
0.00153861
0.00154949
0.00155972
0.00156936
0.00157843
0.00158696
0.00159499
0.00160255
0.00160966
0.00161635
0.00162265
0.00162858
0.00163416
0.00163943
0.00164439
0.00164907
0.0010355
0.00106391
0.00109257
0.00112124
0.00114967
0.00117767
0.00120506
0.0012317
0.0012575
0.00128236
0.00130623
0.00132908
0.00135087
0.00137161
0.0013913
0.00140995
0.00142759
0.00144424
0.00145993
0.00147471
0.0014886
0.00150166
0.00151391
0.0015254
0.00153618
0.00154628
0.00155575
0.00156462
0.00157292
0.00158069
0.00158797
0.00159479
0.00160117
0.00160714
0.00161274
0.00161798
0.0016229
0.00162751
0.00163183
0.00163589
0.00109491
0.00112477
0.00115412
0.0011828
0.00121066
0.00123757
0.00126345
0.00128825
0.00131192
0.00133444
0.00135581
0.00137603
0.00139513
0.00141312
0.00143005
0.00144594
0.00146084
0.00147479
0.00148784
0.00150004
0.00151142
0.00152204
0.00153194
0.00154118
0.00154978
0.00155778
0.00156524
0.00157218
0.00157864
0.00158464
0.00159024
0.00159544
0.00160028
0.00160479
0.00160899
0.0016129
0.00161655
0.00161995
0.00121697
0.0012439
0.00126964
0.00129414
0.00131739
0.00133937
0.00136011
0.00137962
0.00139794
0.0014151
0.00143115
0.00144612
0.00146009
0.00147308
0.00148516
0.00149637
0.00150677
0.00151641
0.00152535
0.00153362
0.00154127
0.00154835
0.00155488
0.00156092
0.0015665
0.00157165
0.0015764
0.00158079
0.00158484
0.00158857
0.00159202
0.00159521
0.00159815
0.00160087
0.00122338
0.00125008
0.00127542
0.00129939
0.00132198
0.00134322
0.00136312
0.00138173
0.00139909
0.00141525
0.00143026
0.00144418
0.00145707
0.00146898
0.00147996
0.00149009
0.00149941
0.00150799
0.00151588
0.00152312
0.00152975
0.00153583
0.0015414
0.00154649
0.00155114
0.00155539
0.00155927
0.00156281
0.00156604
0.00156898
0.00157167
0.00157411
0.00157634
0.00157838
0.00122924
0.00125544
0.00128013
0.00130332
0.00132504
0.00134531
0.00136419
0.00138172
0.00139796
0.00141297
0.0014268
0.00143953
0.00145122
0.00146193
0.00147173
0.00148069
0.00148886
0.00149631
0.00150308
0.00150923
0.0015148
0.00151984
0.0015244
0.00152851
0.00153221
0.00153554
0.00153853
0.00154121
0.00154361
0.00154576
0.00154767
0.00154938
0.0015509
0.00155225
0.00123387
0.00125929
0.00128308
0.00130527
0.00132591
0.00134503
0.00136271
0.001379
0.00139396
0.00140768
0.00142022
0.00143165
0.00144204
0.00145147
0.00146002
0.00146774
0.00147471
0.00148097
0.00148659
0.00149161
0.0014961
0.00150008
0.00150361
0.00150673
0.00150948
0.00151189
0.00151399
0.00151582
0.0015174
0.00151876
0.00151992
0.00152091
0.00152174
0.00152244
0.00126098
0.00128365
0.00130463
0.00132399
0.0013418
0.00135812
0.00137303
0.00138661
0.00139893
0.00141008
0.00142012
0.00142915
0.00143725
0.00144449
0.00145094
0.00145667
0.00146173
0.00146617
0.00147007
0.00147345
0.00147638
0.0014789
0.00148104
0.00148284
0.00148435
0.00148559
0.00148659
0.00148738
0.00148798
0.00148842
0.00148872
0.0014889
0.00148898
0.00125992
0.00128125
0.00130085
0.00131879
0.00133513
0.00134998
0.0013634
0.0013755
0.00138635
0.00139603
0.00140464
0.00141227
0.00141902
0.00142494
0.00143011
0.00143459
0.00143844
0.00144173
0.00144451
0.00144682
0.00144871
0.00145024
0.00145143
0.00145233
0.00145297
0.00145338
0.00145359
0.00145363
0.00145353
0.0014533
0.00145296
0.00145254
0.00145204
0.00125559
0.00127544
0.00129351
0.00130989
0.00132468
0.00133796
0.00134983
0.00136038
0.0013697
0.00137789
0.00138506
0.0013913
0.00139669
0.00140129
0.00140519
0.00140845
0.00141113
0.00141329
0.00141498
0.00141626
0.00141716
0.00141774
0.00141804
0.00141808
0.00141791
0.00141755
0.00141704
0.00141639
0.00141564
0.00141479
0.00141388
0.00141292
0.00141192
0.00126586
0.0012823
0.00129706
0.00131022
0.00132189
0.00133217
0.00134114
0.00134893
0.00135564
0.00136138
0.00136624
0.0013703
0.00137362
0.00137629
0.00137837
0.00137993
0.00138101
0.00138168
0.00138198
0.00138196
0.00138166
0.00138113
0.00138039
0.00137947
0.00137842
0.00137725
0.00137599
0.00137466
0.00137328
0.00137186
0.00137043
0.001369
0.00125233
0.00126709
0.00128018
0.00129169
0.00130173
0.00131041
0.00131783
0.0013241
0.00132938
0.00133373
0.00133726
0.00134004
0.00134214
0.00134365
0.00134462
0.00134511
0.0013452
0.00134492
0.00134432
0.00134345
0.00134236
0.00134108
0.00133963
0.00133806
0.0013364
0.00133465
0.00133286
0.00133104
0.0013292
0.00132737
0.00132555
0.00132377
0.00123481
0.00124789
0.00125931
0.00126918
0.00127762
0.00128473
0.00129063
0.00129546
0.00129935
0.00130238
0.00130464
0.00130622
0.00130718
0.0013076
0.00130755
0.00130708
0.00130625
0.00130511
0.00130371
0.0013021
0.0013003
0.00129836
0.00129631
0.00129417
0.00129198
0.00128976
0.00128752
0.00128529
0.00128309
0.00128092
0.0012788
0.00127674
0.00121339
0.00122375
0.00123343
0.00124291
0.0012498
0.0012554
0.00125985
0.00126332
0.00126591
0.0012677
0.00126879
0.00126926
0.00126918
0.00126861
0.00126764
0.0012663
0.00126466
0.00126277
0.00126067
0.0012584
0.001256
0.0012535
0.00125094
0.00124833
0.00124571
0.0012431
0.00124051
0.00123797
0.00123548
0.00123306
0.00123072
0.00122848
0.0011773
0.00118123
0.00118584
0.0011919
0.00119977
0.00120934
0.00121965
0.00122808
0.00122946
0.00123013
0.00123015
0.00122962
0.00122861
0.00122717
0.00122539
0.0012233
0.00122096
0.00121842
0.00121572
0.00121291
0.00121
0.00120705
0.00120407
0.00120109
0.00119814
0.00119523
0.00119238
0.00118961
0.00118692
0.00118434
0.00118187
0.00117951
0.0011477
0.00114723
0.00114677
0.00114771
0.00115089
0.00115663
0.0011646
0.00117381
0.0011828
0.00118925
0.00118924
0.00118783
0.001186
0.00118381
0.00118132
0.00117859
0.00117567
0.00117259
0.00116941
0.00116615
0.00116285
0.00115954
0.00115624
0.00115299
0.00114979
0.00114668
0.00114365
0.00114074
0.00113794
0.00113527
0.00113274
0.00113035
0.00112192
0.00111793
0.00111298
0.00110935
0.00110835
0.00111045
0.00111533
0.00112226
0.00113036
0.00113832
0.00114409
0.00114449
0.00114196
0.00113913
0.00113605
0.00113279
0.00112938
0.00112587
0.00112229
0.00111869
0.00111508
0.00111151
0.00110799
0.00110455
0.0011012
0.00109796
0.00109485
0.00109187
0.00108904
0.00108636
0.00108384
0.00108148
0.00109705
0.00109327
0.00108477
0.00107629
0.00107036
0.00106814
0.00106965
0.00107419
0.00108086
0.00108844
0.00109535
0.00109937
0.00109713
0.00109374
0.00109017
0.00108647
0.00108266
0.00107881
0.00107493
0.00107107
0.00106725
0.0010635
0.00105984
0.00105629
0.00105286
0.00104957
0.00104644
0.00104347
0.00104067
0.00103804
0.0010356
0.00103335
0.00106344
0.00106714
0.00105992
0.00104813
0.0010374
0.00103039
0.00102784
0.00102936
0.00103407
0.0010407
0.00104758
0.00105244
0.00105204
0.00104819
0.00104421
0.00104014
0.00103603
0.00103191
0.00102781
0.00102377
0.00101981
0.00101596
0.00101222
0.00100863
0.0010052
0.00100193
0.000998839
0.000995936
0.000993226
0.000990715
0.000988404
0.000986297
0.00102888
0.00103134
0.0010326
0.00102261
0.00100875
0.000997098
0.000990061
0.000987974
0.000990128
0.000995252
0.00100156
0.00100664
0.00100715
0.00100291
0.000998591
0.000994235
0.000989882
0.000985566
0.000981318
0.000977165
0.000973131
0.000969235
0.000965495
0.000961926
0.00095854
0.000955348
0.000952359
0.000949578
0.00094701
0.000944659
0.000942526
0.000940613
0.000993775
0.000995086
0.000995288
0.000994504
0.000982449
0.000967759
0.000956377
0.000950256
0.000949277
0.000952312
0.000957498
0.00096222
0.000962797
0.00095823
0.000953636
0.000949056
0.000944526
0.000940079
0.000935741
0.000931536
0.000927486
0.000923607
0.000919915
0.000916422
0.000913139
0.000910072
0.00090723
0.000904615
0.000902233
0.000900083
0.000898167
0.000896484
0.000958489
0.000958729
0.000957948
0.000956264
0.000953793
0.000940631
0.000926296
0.000916179
0.000911651
0.00091205
0.000915556
0.000919338
0.000919252
0.00091441
0.000909596
0.000904846
0.000900194
0.000895669
0.000891294
0.000887091
0.000883076
0.000879265
0.000875669
0.000872298
0.000869161
0.000866262
0.000863607
0.000861197
0.000859035
0.000857121
0.000855453
0.000854029
0.000922622
0.000920913
0.000918393
0.000915172
0.000911355
0.000898271
0.000885361
0.000877253
0.000874573
0.000875852
0.000878123
0.000876718
0.000871646
0.000866655
0.000861781
0.000857053
0.000852496
0.00084813
0.000843973
0.000840038
0.000836337
0.000832878
0.00082967
0.000826716
0.00082402
0.000821585
0.000819412
0.000817499
0.000815846
0.000814451
0.00081331
0.000887054
0.000884465
0.000881151
0.000877228
0.000872794
0.000867943
0.000856378
0.000845723
0.000839821
0.000838391
0.000838633
0.000835352
0.000830081
0.00082495
0.000819989
0.000815223
0.000810672
0.000806354
0.00080228
0.000798462
0.000794907
0.00079162
0.000788606
0.000785866
0.000783402
0.000781214
0.000779301
0.00077766
0.00077629
0.000775185
0.000774342
0.0008523
0.000848865
0.000844792
0.000840189
0.000835161
0.000829804
0.0008242
0.000815504
0.000807443
0.000803161
0.000800887
0.000795269
0.000789822
0.000784576
0.000779557
0.000774783
0.00077027
0.00076603
0.000762072
0.000758401
0.00075502
0.000751933
0.000749139
0.000746638
0.000744428
0.000742508
0.000740873
0.00073952
0.000738445
0.000737644
0.00073711
0.000818645
0.000814371
0.000809544
0.000804273
0.000798659
0.000792792
0.000786763
0.000780644
0.000774504
0.000768395
0.000762376
0.000756535
0.000750935
0.000745598
0.000740544
0.000735787
0.000731336
0.000727199
0.000723379
0.000719878
0.000716695
0.000713827
0.000711273
0.000709028
0.000707088
0.000705449
0.000704104
0.00070305
0.00070228
0.000701789
0.00070157
0.000769662
0.000763455
0.000757075
0.000750606
0.00074412
0.000737691
0.000731373
0.000725212
0.000719237
0.000713506
0.000708087
0.000703009
0.000698279
0.000693903
0.000689882
0.000686214
0.000682896
0.000679923
0.000677289
0.000674986
0.000673008
0.000671348
0.000669999
0.000668953
0.000668203
0.000667742
0.000667564
0.000667662
0.000736535
0.000729724
0.000722813
0.000715886
0.000709019
0.000702277
0.000695714
0.000689386
0.000683328
0.000677566
0.000672108
0.000667001
0.000662295
0.000657991
0.000654086
0.000650573
0.000647443
0.000644685
0.000642289
0.000640243
0.000638538
0.000637162
0.000636106
0.000635361
0.000634917
0.000634766
0.000634901
0.000635314
0.000705055
0.000697622
0.000690159
0.000682749
0.00067547
0.000668387
0.000661557
0.000655028
0.000648833
0.000643007
0.000637566
0.000632515
0.000627846
0.000623598
0.000619801
0.000616436
0.000613489
0.000610944
0.000608785
0.000606996
0.000605563
0.000604471
0.000603708
0.000603263
0.000603123
0.000603281
0.000603725
0.000604449
0.000675335
0.000667265
0.000659225
0.000651303
0.000643576
0.000636114
0.000628974
0.000622203
0.000615839
0.000609908
0.000604422
0.000599397
0.000594827
0.000590697
0.000587003
0.000583769
0.000580993
0.000578652
0.000576723
0.000575186
0.000574021
0.00057321
0.000572737
0.000572587
0.000572748
0.000573208
0.000573958
0.000574987
0.000647467
0.000638742
0.0006301
0.00062163
0.000613415
0.000605527
0.000598027
0.000590965
0.00058438
0.000578298
0.000572732
0.000567687
0.000563158
0.000559137
0.0005556
0.000552514
0.000549894
0.000547746
0.000546039
0.000544746
0.000543843
0.000543306
0.000543117
0.000543258
0.000543713
0.00054447
0.000545517
0.000546845
0.000621535
0.000612129
0.000602852
0.000593795
0.000585045
0.000576679
0.000568763
0.000561352
0.000554488
0.000548197
0.000542495
0.000537385
0.000532857
0.000528894
0.000525475
0.000522569
0.000520135
0.000518167
0.000516667
0.000515607
0.000514956
0.000514686
0.000514774
0.000515197
0.00051594
0.000516987
0.000518325
0.000519944
0.000597584
0.000587472
0.000577528
0.000567843
0.000558509
0.000549608
0.000541216
0.000533393
0.000526185
0.000519624
0.000513725
0.000508492
0.000503912
0.000499966
0.000496624
0.000493849
0.000491604
0.000489841
0.000488542
0.000487701
0.000487291
0.000487278
0.000487633
0.000488332
0.000489354
0.000490683
0.000492304
0.000494206
0.000575649
0.000564808
0.000554164
0.00054381
0.000533841
0.000524348
0.000515414
0.00050711
0.000499488
0.000492587
0.000486425
0.000481006
0.000476317
0.000472335
0.000469024
0.000466342
0.000464242
0.000462676
0.00046159
0.000460962
0.000460779
0.000461012
0.000461626
0.000462591
0.000463885
0.000465487
0.000467383
0.000469561
0.000555791
0.000544179
0.000532796
0.000521728
0.000511073
0.000500927
0.000491385
0.000482525
0.000474414
0.000467097
0.000460598
0.000454923
0.000450061
0.000445984
0.000442652
0.000440017
0.000438024
0.000436617
0.000435736
0.000435324
0.000435359
0.000435826
0.000436688
0.000437911
0.000439467
0.000441335
0.000443498
0.000445943
0.000538043
0.000525609
0.000513445
0.00050162
0.000490228
0.00047937
0.00046915
0.000459661
0.00045098
0.000443165
0.000436248
0.000430242
0.000425135
0.000420898
0.000417488
0.000414849
0.000412919
0.000411632
0.000410922
0.000410723
0.000410977
0.000411664
0.000412762
0.000414232
0.000416041
0.000418166
0.000420587
0.000423292
0.000522444
0.000509118
0.000496121
0.000483495
0.000471319
0.000459694
0.000448731
0.000438537
0.000429205
0.000420805
0.000413385
0.000406962
0.000401532
0.000397065
0.000393513
0.000390815
0.000388901
0.000387694
0.000387119
0.000387101
0.000387569
0.000388475
0.000389795
0.0003915
0.000393553
0.000395926
0.000398597
0.000401553
0.000509068
0.000494738
0.000480837
0.00046736
0.000454355
0.000441911
0.000430144
0.000419173
0.000409107
0.000400036
0.00039202
0.000385092
0.000379252
0.000374476
0.000370712
0.000367894
0.000365943
0.000364772
0.000364295
0.000364427
0.000365087
0.0003662
0.000367735
0.000369666
0.000371953
0.000374565
0.000377478
0.000380678
0.000498044
0.000482535
0.000467615
0.000453216
0.000439332
0.000426025
0.0004134
0.000401585
0.000390708
0.000380876
0.000372172
0.000364643
0.000358302
0.000353129
0.000349075
0.000346069
0.000344023
0.00034284
0.000342421
0.000342668
0.00034349
0.000344803
0.000346546
0.000348688
0.000351198
0.00035404
0.000357187
0.000360622
0.000489536
0.000472608
0.000456492
0.000441063
0.000426241
0.000412025
0.000398498
0.000385783
0.000374023
0.000363348
0.000353861
0.000345632
0.000338691
0.000333029
0.0003286
0.00032533
0.000323125
0.000321876
0.00032147
0.000321797
0.000322753
0.000324241
0.000326178
0.000328524
0.000331247
0.00033431
0.000337683
0.000341346
0.000483796
0.000465134
0.00044756
0.000430927
0.000415068
0.000399894
0.000385426
0.000371767
0.000359065
0.000347469
0.00033711
0.000328083
0.00032044
0.000314188
0.00030929
0.000305673
0.000303236
0.000301861
0.000301421
0.000301789
0.000302846
0.000304483
0.000306604
0.000309143
0.000312068
0.000315341
0.00031893
0.000322813
0.00048112
0.000460392
0.000441004
0.000422887
0.000405823
0.000389608
0.000374159
0.000359523
0.000345833
0.000333253
0.000321941
0.00031202
0.000303572
0.000296624
0.000291156
0.0002871
0.000284352
0.000282785
0.000282256
0.000282622
0.000283747
0.000285506
0.00028779
0.000290508
0.000293622
0.000297098
0.000300895
0.000304991
0.000481613
0.000458731
0.000437123
0.000417124
0.000398567
0.000381157
0.000364664
0.000349022
0.000334315
0.000320705
0.00030837
0.000297468
0.000288113
0.000280363
0.000274218
0.000269623
0.000266476
0.00026464
0.000263961
0.000264278
0.000265434
0.000267286
0.000269709
0.000272597
0.000275891
0.000279555
0.000283551
0.00028785
0.000484028
0.000460272
0.000436313
0.000413956
0.000393472
0.000374583
0.000356914
0.000340223
0.000324482
0.000309814
0.000296406
0.000284448
0.000274091
0.000265432
0.0002585
0.000253258
0.000249614
0.000247427
0.00024653
0.000246742
0.000247888
0.000249802
0.00025234
0.000255382
0.000258843
0.000262683
0.000266868
0.000271363
0.000486651
0.000463623
0.000438747
0.000413836
0.000390871
0.000370041
0.000350926
0.000333084
0.000316286
0.00030055
0.000286043
0.000272973
0.000261533
0.000251863
0.000244031
0.00023803
0.000233783
0.000231152
0.000229959
0.000230006
0.000231095
0.000233036
0.000235663
0.000238839
0.000242453
0.000246459
0.00025082
0.000255503
0.000488937
0.000466948
0.000442902
0.000417001
0.000391274
0.000367868
0.00034683
0.000327595
0.000309671
0.000292864
0.000277253
0.000263042
0.000250457
0.000239685
0.000230845
0.000223969
0.000219005
0.000215827
0.000214251
0.000214065
0.000215043
0.000216972
0.00021966
0.000222946
0.000226703
0.000230865
0.00023539
0.000240248
0.000469718
0.000446807
0.000421827
0.000395006
0.000368624
0.000344956
0.000323853
0.000304601
0.000286689
0.000269986
0.000254632
0.000240866
0.000228922
0.000218974
0.000211107
0.000205308
0.000201471
0.000199417
0.000198917
0.000199725
0.000201597
0.000204313
0.000207688
0.000211572
0.000215876
0.000220554
0.000225576
0.000471679
0.00044994
0.00042619
0.000400372
0.000372751
0.000345901
0.000322164
0.000301132
0.000281966
0.00026417
0.000247696
0.000232746
0.000219586
0.000208448
0.000199481
0.000192726
0.000188111
0.00018547
0.000184569
0.000185137
0.000186902
0.00018961
0.000193046
0.000197038
0.000201469
0.00020629
0.000211465
0.000429561
0.000405075
0.000378529
0.000350252
0.000323144
0.000299534
0.000278705
0.000259725
0.000242159
0.000226053
0.000211667
0.000199285
0.000189124
0.000181294
0.000175776
0.000172432
0.000171029
0.000171279
0.000172877
0.000175536
0.000179004
0.000183083
0.000187628
0.000192578
0.000197896
0.000431666
0.000408566
0.000383461
0.00035631
0.000327543
0.000300409
0.00027712
0.000256616
0.000237925
0.000220714
0.000205132
0.000191485
0.000180061
0.000171049
0.000164503
0.000160329
0.000158313
0.000158155
0.00015952
0.000162082
0.00016555
0.000169692
0.000174335
0.000179402
0.00018485
0.000410559
0.000386961
0.000361366
0.000333744
0.000304678
0.000277775
0.000254989
0.000234921
0.000216625
0.000199911
0.000185023
0.000172301
0.000162022
0.000154328
0.000149195
0.000146443
0.000145775
0.00014683
0.000149239
0.00015267
0.000156849
0.000161575
0.000166742
0.000172306
0.000410777
0.00038873
0.00036477
0.000338826
0.000310875
0.000281735
0.000255334
0.000233212
0.00021368
0.000195898
0.000179838
0.000165831
0.000154232
0.000145287
0.000139065
0.000135447
0.000134154
0.000134809
0.000137003
0.000140352
0.000144539
0.000149327
0.000154578
0.000160245
0.000408958
0.000388488
0.000366218
0.000342045
0.000315899
0.000287767
0.000258815
0.000233192
0.000211866
0.000192966
0.00017583
0.000160602
0.000147677
0.000137406
0.000129976
0.000125356
0.000123313
0.000123466
0.00012537
0.000128588
0.000132749
0.000137574
0.000142892
0.000148648
0.000385976
0.000365426
0.000343089
0.000318859
0.000292666
0.000264507
0.000236039
0.000211459
0.000191034
0.00017286
0.000156523
0.000142323
0.000130698
0.000121961
0.000116207
0.000113278
0.000112815
0.000114342
0.00011737
0.000121467
0.000126303
0.000131668
0.000137496
0.000380967
0.00036214
0.000341674
0.000319437
0.000295315
0.000269239
0.000241212
0.000213548
0.000190246
0.000170795
0.000153457
0.000138096
0.000125144
0.000115044
0.000108036
0.000104082
0.000102875
0.000103927
0.000106696
0.000110684
0.0001155
0.000120891
0.000126772
0.00035615
0.000337556
0.00031735
0.000295388
0.000271548
0.000245759
0.000218039
0.000191497
0.000169653
0.000151239
0.000134867
0.00012069
0.000109224
0.000100875
9.57611e-05
9.3671e-05
9.41358e-05
9.65669e-05
0.000100393
0.000105156
0.000110548
0.000116461
0.000347298
0.000330541
0.000312359
0.000292593
0.000271087
0.000247711
0.000222394
0.000195185
0.000170046
0.000149774
0.000132462
0.000117227
0.00010447
9.4741e-05
8.83505e-05
8.52359e-05
8.49868e-05
8.69873e-05
9.05925e-05
9.52626e-05
0.00010063
0.000106547
0.000335501
0.000320508
0.000304298
0.000286705
0.000267557
0.000246685
0.000223951
0.000199281
0.000172861
0.000149366
0.000130705
0.000114587
0.0001007
8.9626e-05
8.18808e-05
7.76053e-05
7.65044e-05
7.79673e-05
8.12797e-05
8.58113e-05
9.11209e-05
9.70149e-05
0.000307426
0.00029309
0.000277593
0.000260759
0.000242395
0.000222314
0.000200359
0.000176453
0.000151247
0.000129647
0.000112566
9.77742e-05
8.54831e-05
7.6367e-05
7.08158e-05
6.87197e-05
6.95233e-05
7.2459e-05
7.67977e-05
8.20113e-05
8.78517e-05
0.000291363
0.000278772
0.000265249
0.000250626
0.000234705
0.000217274
0.000198112
0.000177034
0.000153948
0.000130495
0.000111056
9.54957e-05
8.22098e-05
7.17947e-05
6.48979e-05
6.16687e-05
6.16792e-05
6.41407e-05
6.82234e-05
7.32964e-05
7.90478e-05
0.000272491
0.000261492
0.000249785
0.000237224
0.000223624
0.000208771
0.00019242
0.000174318
0.000154245
0.000132097
0.000110812
9.36671e-05
7.96331e-05
6.81002e-05
5.98631e-05
5.53878e-05
5.44653e-05
5.63417e-05
6.00954e-05
6.49766e-05
7.05969e-05
0.000241507
0.000231435
0.000220745
0.000209283
0.000196857
0.000183229
0.000168128
0.000151272
0.000132421
0.000111495
9.24421e-05
7.74994e-05
6.51407e-05
5.5684e-05
4.99056e-05
4.79168e-05
4.90861e-05
5.24266e-05
5.70572e-05
6.24962e-05
0.000219177
0.000210544
0.000201509
0.000191953
0.000181719
0.000170604
0.00015835
0.000144661
0.000129228
0.000111808
9.24741e-05
7.5561e-05
6.26681e-05
5.22704e-05
4.52303e-05
4.20706e-05
4.24045e-05
4.52368e-05
4.95503e-05
5.47483e-05
0.000194945
0.000187567
0.000179963
0.000172057
0.000163732
0.000154829
0.000145129
0.000134348
0.000122138
0.000108119
9.19688e-05
7.4822e-05
6.04249e-05
4.94677e-05
4.13365e-05
3.69579e-05
3.63331e-05
3.85537e-05
4.24764e-05
4.73634e-05
0.000169321
0.000163036
0.000156662
0.000150157
0.000143449
0.000136429
0.000128933
0.000120727
0.000111491
0.000100814
8.82277e-05
7.33393e-05
5.87217e-05
4.70619e-05
3.81386e-05
3.25883e-05
3.09077e-05
3.24112e-05
3.58662e-05
4.03623e-05
0.000142857
0.000137539
0.00013223
0.000126912
0.000121554
0.000116093
0.000110426
0.000104394
9.77532e-05
9.016e-05
8.11626e-05
7.02582e-05
5.71019e-05
4.46973e-05
3.54085e-05
2.89158e-05
2.61525e-05
2.68459e-05
2.97597e-05
3.37812e-05
0.00011613
0.000111695
0.00010733
0.000103037
9.88111e-05
9.46263e-05
9.04321e-05
8.61371e-05
8.15884e-05
7.65416e-05
7.06282e-05
6.33396e-05
5.40946e-05
4.29518e-05
3.27907e-05
2.58194e-05
2.20678e-05
2.18888e-05
2.42008e-05
2.76787e-05
8.97458e-05
8.61463e-05
8.26521e-05
7.92775e-05
7.60302e-05
7.29077e-05
6.98933e-05
6.69475e-05
6.39925e-05
6.0887e-05
5.73838e-05
5.3071e-05
4.73192e-05
3.93455e-05
3.03957e-05
2.31426e-05
1.86219e-05
1.75536e-05
1.92203e-05
2.21123e-05
6.4377e-05
6.15959e-05
5.89381e-05
5.64219e-05
5.40595e-05
5.18574e-05
4.9815e-05
4.79212e-05
4.61484e-05
4.44374e-05
4.26696e-05
4.06168e-05
3.78667e-05
3.37571e-05
2.75103e-05
2.04802e-05
1.56805e-05
1.38198e-05
1.48214e-05
1.71438e-05
4.08801e-05
3.89181e-05
3.70839e-05
3.53936e-05
3.38566e-05
3.24783e-05
3.12605e-05
3.02027e-05
2.92995e-05
2.85362e-05
2.78758e-05
2.72311e-05
2.6418e-05
2.50589e-05
2.24818e-05
1.80064e-05
1.29764e-05
1.06034e-05
1.09319e-05
1.18754e-05
2.05973e-05
1.94531e-05
1.84213e-05
1.75098e-05
1.672e-05
1.60513e-05
1.55032e-05
1.50765e-05
1.47731e-05
1.45951e-05
1.45372e-05
1.45642e-05
1.46234e-05
1.45515e-05
1.40755e-05
1.2669e-05
9.96348e-06
7.66064e-06
7.59325e-06
7.53445e-06
6.02437e-06
5.62166e-06
5.27879e-06
4.99236e-06
4.75798e-06
4.57281e-06
4.43606e-06
4.34915e-06
4.31604e-06
4.34294e-06
4.42535e-06
4.47656e-06
4.5116e-06
4.57409e-06
4.6881e-06
4.83084e-06
4.97328e-06
4.94453e-06
4.79437e-06
4.64345e-06
2.55061e-07
2.25312e-07
1.99578e-07
1.77827e-07
1.59767e-07
1.45015e-07
1.33197e-07
1.23994e-07
1.17173e-07
1.12607e-07
1.10913e-07
1.18218e-07
1.3041e-07
1.47494e-07
1.71458e-07
2.05313e-07
2.61765e-07
3.8793e-07
1.01184e-06
2.18842e-06
0.00261316
0.00258794
0.00256185
0.00253473
0.00250639
0.00247667
0.00244537
0.00241234
0.0023774
0.0023404
0.00230118
0.00225963
0.00221564
0.00216912
0.00212002
0.00206831
0.00201401
0.00195716
0.00189784
0.00183616
0.00177228
0.00170638
0.00163869
0.00156946
0.00149896
0.00142751
0.00135542
0.00128304
0.0012107
0.00113876
0.00106756
0.00099746
0.000928775
0.000861822
0.000796889
0.000734238
0.000674098
0.000616662
0.000562082
0.000510465
0.000461866
0.000416285
0.000373663
0.000333872
0.00029671
0.000261897
0.00022907
0.000197779
0.000167502
0.000137674
0.000107776
7.75828e-05
4.78423e-05
2.19646e-05
6.59389e-06
0.00261181
0.00258626
0.0025598
0.00253227
0.00250349
0.00247329
0.0024415
0.00240793
0.00237244
0.00233486
0.00229506
0.00225292
0.00220834
0.00216125
0.00211161
0.0020594
0.00200463
0.00194737
0.0018877
0.00182575
0.00176167
0.00169565
0.00162793
0.00155876
0.00148842
0.0014172
0.00134544
0.00127345
0.00120159
0.0011302
0.00105961
0.00099015
0.000922148
0.000855899
0.000791679
0.000729737
0.000670288
0.000613512
0.000559546
0.000508485
0.00046037
0.000415191
0.000372875
0.000333285
0.000296213
0.000261372
0.000228399
0.000196853
0.000166228
0.000136005
0.000105765
7.54999e-05
4.63801e-05
2.2094e-05
8.23209e-06
0.00261037
0.00258447
0.00255763
0.00252968
0.00250045
0.00246976
0.00243745
0.00240334
0.00236728
0.00232912
0.00228873
0.002246
0.00220084
0.00215319
0.00210301
0.0020503
0.00199509
0.00193743
0.00187743
0.00181522
0.00175096
0.00168485
0.00161712
0.00154803
0.00147785
0.00140689
0.00133547
0.0012639
0.00119253
0.00112169
0.0010517
0.000982897
0.000915577
0.000850028
0.000786515
0.000725272
0.000666502
0.000610371
0.000557003
0.00050648
0.00045883
0.000414032
0.000372002
0.000332596
0.000295598
0.000260721
0.000227605
0.000195825
0.000164913
0.000134426
0.000104093
7.4159e-05
4.60712e-05
2.38184e-05
1.10772e-05
0.00260884
0.00258258
0.00255534
0.00252695
0.00249726
0.00246607
0.00243322
0.00239856
0.00236192
0.00232318
0.0022822
0.00223888
0.00219315
0.00214494
0.00209424
0.00204104
0.00198539
0.00192735
0.00186704
0.00180458
0.00174016
0.00167398
0.00160626
0.00153727
0.00146728
0.00139659
0.00132552
0.00125438
0.00118351
0.00111323
0.00104386
0.000975703
0.000909062
0.00084421
0.000781396
0.000720842
0.000662739
0.000607238
0.000554451
0.000504447
0.000457244
0.000412808
0.000371047
0.000331808
0.000294875
0.00025996
0.000226716
0.000194745
0.000163631
0.000133031
0.000102838
7.35224e-05
4.67866e-05
2.68476e-05
1.51544e-05
0.0026072
0.00258056
0.00255291
0.00252408
0.0024939
0.0024622