/*--------------------------------*- C++ -*----------------------------------*\
  =========                 |
  \\      /  F ield         | OpenFOAM: The Open Source CFD Toolbox
   \\    /   O peration     | Website:  https://openfoam.org
    \\  /    A nd           | Version:  10
     \\/     M anipulation  |
\*---------------------------------------------------------------------------*/
FoamFile
{
    format      ascii;
    class       surfaceScalarField;
    location    "56000";
    object      phi;
}
// * * * * * * * * * * * * * * * * * * * * * * * * * * * * * * * * * * * * * //

dimensions      [0 3 -1 0 0 0 0];

internalField   nonuniform List<scalar> 
35585
(
6.25673e-06
-3.79337e-06
6.13088e-06
-3.78852e-06
6.00526e-06
-3.77906e-06
5.88006e-06
-3.7656e-06
5.75549e-06
-3.74865e-06
5.63176e-06
-3.72869e-06
5.5091e-06
-3.70611e-06
5.38773e-06
-3.68126e-06
5.26785e-06
-3.65442e-06
5.14969e-06
-3.62581e-06
5.03343e-06
-3.59563e-06
4.91927e-06
-3.56404e-06
4.80735e-06
-3.53115e-06
4.69782e-06
-3.49708e-06
4.59081e-06
-3.46189e-06
4.48641e-06
-3.42567e-06
4.38472e-06
-3.38847e-06
4.28578e-06
-3.35035e-06
4.18964e-06
-3.31136e-06
4.09634e-06
-3.27156e-06
4.00588e-06
-3.23098e-06
3.91826e-06
-3.18968e-06
3.83347e-06
-3.1477e-06
3.7515e-06
-3.10511e-06
3.67229e-06
-3.06194e-06
3.59582e-06
-3.01824e-06
3.52203e-06
-2.97408e-06
3.45088e-06
-2.92951e-06
3.3823e-06
-2.88457e-06
3.31623e-06
-2.83932e-06
3.25261e-06
-2.79381e-06
3.19137e-06
-2.7481e-06
3.13244e-06
-2.70224e-06
3.07576e-06
-2.65627e-06
3.02124e-06
-2.61026e-06
2.96882e-06
-2.56424e-06
2.91843e-06
-2.51826e-06
2.87e-06
-2.47237e-06
2.82346e-06
-2.4266e-06
2.77874e-06
-2.38102e-06
2.73578e-06
-2.33564e-06
2.6945e-06
-2.29051e-06
2.65485e-06
-2.24566e-06
2.61677e-06
-2.20114e-06
2.58018e-06
-2.15696e-06
2.54504e-06
-2.11316e-06
2.51128e-06
-2.06976e-06
-2.0268e-06
2.47885e-06
6.55416e-06
-3.65449e-06
6.41562e-06
-3.64998e-06
6.2776e-06
-3.64104e-06
6.14029e-06
-3.62829e-06
6.00392e-06
-3.61228e-06
5.86871e-06
-3.59348e-06
5.7349e-06
-3.5723e-06
5.60272e-06
-3.54908e-06
5.47241e-06
-3.5241e-06
5.34417e-06
-3.49757e-06
5.21822e-06
-3.46968e-06
5.09474e-06
-3.44056e-06
4.97389e-06
-3.41031e-06
4.85583e-06
-3.37901e-06
4.74066e-06
-3.34672e-06
4.62849e-06
-3.3135e-06
4.5194e-06
-3.27937e-06
4.41343e-06
-3.24438e-06
4.31062e-06
-3.20856e-06
4.21099e-06
-3.17193e-06
4.11454e-06
-3.13453e-06
4.02126e-06
-3.0964e-06
3.93112e-06
-3.05757e-06
3.84409e-06
-3.01807e-06
3.76012e-06
-2.97796e-06
3.67915e-06
-2.93728e-06
3.60113e-06
-2.89606e-06
3.52599e-06
-2.85437e-06
3.45366e-06
-2.81224e-06
3.38407e-06
-2.76972e-06
3.31714e-06
-2.72688e-06
3.25278e-06
-2.68375e-06
3.19093e-06
-2.64039e-06
3.1315e-06
-2.59684e-06
3.07442e-06
-2.55317e-06
3.01959e-06
-2.50941e-06
2.96694e-06
-2.46561e-06
2.9164e-06
-2.42182e-06
2.86788e-06
-2.37809e-06
2.82131e-06
-2.33445e-06
2.77662e-06
-2.29094e-06
2.73373e-06
-2.24762e-06
2.69257e-06
-2.2045e-06
2.65307e-06
-2.16164e-06
2.61517e-06
-2.11905e-06
2.57879e-06
-2.07678e-06
2.54389e-06
-2.03486e-06
-1.9933e-06
2.5104e-06
6.80718e-06
6.65558e-06
6.50479e-06
6.35502e-06
6.20651e-06
-3.46377e-06
6.0595e-06
-3.44647e-06
5.91424e-06
-3.42704e-06
5.77098e-06
-3.40582e-06
5.62996e-06
-3.38308e-06
5.49143e-06
-3.35904e-06
5.3556e-06
-3.33385e-06
5.22265e-06
-3.30761e-06
5.09277e-06
-3.28042e-06
4.96608e-06
-3.25233e-06
4.84272e-06
-3.22336e-06
4.72278e-06
-3.19355e-06
4.60631e-06
-3.16291e-06
4.49337e-06
-3.13144e-06
4.38397e-06
-3.09916e-06
4.27813e-06
-3.06609e-06
4.17583e-06
-3.03223e-06
4.07704e-06
-2.99761e-06
3.98173e-06
-2.96225e-06
3.88984e-06
-2.92618e-06
3.80131e-06
-2.88943e-06
3.71607e-06
-2.85204e-06
3.63405e-06
-2.81404e-06
3.55517e-06
-2.77549e-06
3.47935e-06
-2.73641e-06
3.40649e-06
-2.69687e-06
3.33651e-06
-2.6569e-06
3.26932e-06
-2.61656e-06
3.20483e-06
-2.57589e-06
3.14293e-06
-2.53495e-06
3.08356e-06
-2.49379e-06
3.0266e-06
-2.45245e-06
2.97198e-06
-2.41099e-06
2.91961e-06
-2.36945e-06
2.86939e-06
-2.32787e-06
2.82125e-06
-2.28631e-06
2.7751e-06
-2.2448e-06
2.73087e-06
-2.20338e-06
2.68847e-06
-2.1621e-06
2.64783e-06
-2.121e-06
2.60887e-06
-2.0801e-06
2.57153e-06
-2.03945e-06
2.53574e-06
-1.99907e-06
-1.95899e-06
2.50143e-06
6.36627e-06
-3.30277e-06
6.20711e-06
-3.28731e-06
6.05007e-06
-3.27e-06
5.89543e-06
-3.25118e-06
5.74345e-06
-3.23111e-06
5.5944e-06
-3.20998e-06
5.44849e-06
-3.18794e-06
5.30593e-06
-3.16506e-06
5.1669e-06
-3.1414e-06
5.03155e-06
-3.11697e-06
4.89997e-06
-3.09179e-06
4.77227e-06
-3.06585e-06
4.64849e-06
-3.03913e-06
4.52867e-06
-3.01162e-06
4.41281e-06
-2.9833e-06
4.30091e-06
-2.95418e-06
4.19293e-06
-2.92425e-06
4.08883e-06
-2.89351e-06
3.98856e-06
-2.86198e-06
3.89204e-06
-2.82966e-06
3.7992e-06
-2.79659e-06
3.70995e-06
-2.76279e-06
3.6242e-06
-2.7283e-06
3.54186e-06
-2.69314e-06
3.46282e-06
-2.65737e-06
3.38698e-06
-2.62103e-06
3.31425e-06
-2.58416e-06
3.24451e-06
-2.54682e-06
3.17767e-06
-2.50905e-06
3.11361e-06
-2.4709e-06
3.05224e-06
-2.43242e-06
2.99345e-06
-2.39367e-06
2.93714e-06
-2.35469e-06
2.88322e-06
-2.31553e-06
2.8316e-06
-2.27624e-06
2.78217e-06
-2.23688e-06
2.73484e-06
-2.19747e-06
2.68954e-06
-2.15808e-06
2.64617e-06
-2.11873e-06
2.60465e-06
-2.07948e-06
2.5649e-06
-2.04035e-06
2.52685e-06
-2.00139e-06
2.49042e-06
-1.96264e-06
-1.92411e-06
2.45554e-06
6.48434e-06
-3.12875e-06
6.31252e-06
-3.11549e-06
6.14323e-06
-3.10071e-06
5.97677e-06
-3.08472e-06
5.81346e-06
-3.06779e-06
5.65356e-06
-3.05009e-06
5.49733e-06
-3.03171e-06
5.34498e-06
-3.01271e-06
5.19669e-06
-2.9931e-06
5.0526e-06
-2.97288e-06
4.91281e-06
-2.952e-06
4.77739e-06
-2.93043e-06
4.6464e-06
-2.90813e-06
4.51983e-06
-2.88505e-06
4.39769e-06
-2.86116e-06
4.27993e-06
-2.83643e-06
4.16651e-06
-2.81083e-06
4.05737e-06
-2.78437e-06
3.95242e-06
-2.75703e-06
3.85157e-06
-2.72882e-06
3.75473e-06
-2.69975e-06
3.6618e-06
-2.66986e-06
3.57266e-06
-2.63916e-06
3.4872e-06
-2.60768e-06
3.4053e-06
-2.57547e-06
3.32684e-06
-2.54258e-06
3.25171e-06
-2.50903e-06
3.17978e-06
-2.47489e-06
3.11094e-06
-2.44021e-06
3.04508e-06
-2.40503e-06
2.98206e-06
-2.36941e-06
2.92179e-06
-2.3334e-06
2.86415e-06
-2.29705e-06
2.80904e-06
-2.26041e-06
2.75634e-06
-2.22354e-06
2.70595e-06
-2.18649e-06
2.65779e-06
-2.1493e-06
2.61174e-06
-2.11203e-06
2.56772e-06
-2.07471e-06
2.52564e-06
-2.03739e-06
2.48541e-06
-2.00012e-06
2.44695e-06
-1.96293e-06
2.41017e-06
-1.92586e-06
-1.88895e-06
2.37501e-06
6.56172e-06
6.37658e-06
-2.93036e-06
6.19445e-06
-2.91857e-06
6.01569e-06
-2.90596e-06
5.84063e-06
-2.89274e-06
5.66959e-06
-2.87904e-06
5.50282e-06
-2.86494e-06
5.34056e-06
-2.85044e-06
5.18297e-06
-2.83551e-06
5.03018e-06
-2.82009e-06
4.88227e-06
-2.8041e-06
4.73932e-06
-2.78748e-06
4.60132e-06
-2.77013e-06
4.46827e-06
-2.752e-06
4.34013e-06
-2.73302e-06
4.21685e-06
-2.71315e-06
4.09835e-06
-2.69233e-06
3.98453e-06
-2.67055e-06
3.8753e-06
-2.64779e-06
3.77053e-06
-2.62405e-06
3.67011e-06
-2.59934e-06
3.57391e-06
-2.57366e-06
3.4818e-06
-2.54704e-06
3.39365e-06
-2.51953e-06
3.30931e-06
-2.49114e-06
3.22866e-06
-2.46192e-06
3.15155e-06
-2.43193e-06
3.07786e-06
-2.4012e-06
3.00745e-06
-2.36979e-06
2.94018e-06
-2.33776e-06
2.87593e-06
-2.30516e-06
2.81458e-06
-2.27204e-06
2.75599e-06
-2.23846e-06
2.70006e-06
-2.20448e-06
2.64667e-06
-2.17015e-06
2.5957e-06
-2.13552e-06
2.54705e-06
-2.10065e-06
2.50061e-06
-2.06559e-06
2.45629e-06
-2.03039e-06
2.41398e-06
-1.99509e-06
2.37359e-06
-1.95973e-06
2.33504e-06
-1.92438e-06
2.29824e-06
-1.88906e-06
-1.85381e-06
2.2631e-06
6.39771e-06
6.20212e-06
6.01057e-06
-2.71441e-06
5.82344e-06
-2.70561e-06
5.64106e-06
-2.69667e-06
5.4637e-06
-2.68758e-06
5.29157e-06
-2.67831e-06
5.12482e-06
-2.66876e-06
4.96356e-06
-2.65883e-06
4.80785e-06
-2.64839e-06
4.6577e-06
-2.63733e-06
4.51311e-06
-2.62554e-06
4.37403e-06
-2.61292e-06
4.24038e-06
-2.59938e-06
4.11208e-06
-2.58484e-06
3.98901e-06
-2.56926e-06
3.87105e-06
-2.5526e-06
3.75808e-06
-2.53482e-06
3.64994e-06
-2.51591e-06
3.54649e-06
-2.49588e-06
3.44757e-06
-2.47474e-06
3.35304e-06
-2.45251e-06
3.26273e-06
-2.42922e-06
3.17649e-06
-2.4049e-06
3.09417e-06
-2.3796e-06
3.01561e-06
-2.35337e-06
2.94066e-06
-2.32625e-06
2.86917e-06
-2.2983e-06
2.80099e-06
-2.26959e-06
2.73599e-06
-2.24016e-06
2.67402e-06
-2.21007e-06
2.61496e-06
-2.1794e-06
2.55866e-06
-2.14819e-06
2.50501e-06
-2.1165e-06
2.45388e-06
-2.0844e-06
2.40516e-06
-2.05193e-06
2.35874e-06
-2.01917e-06
2.3145e-06
-1.98615e-06
2.27234e-06
-1.95293e-06
2.23217e-06
-1.91956e-06
2.19389e-06
-1.8861e-06
2.15741e-06
-1.85258e-06
-1.81904e-06
2.12264e-06
5.95847e-06
5.75931e-06
-2.50646e-06
5.5658e-06
-2.50315e-06
5.37816e-06
-2.49995e-06
5.19659e-06
-2.49674e-06
5.02121e-06
-2.49337e-06
4.85206e-06
-2.48968e-06
4.68918e-06
-2.48551e-06
4.53254e-06
-2.48069e-06
4.38207e-06
-2.47507e-06
4.23768e-06
-2.46853e-06
4.09927e-06
-2.46096e-06
3.96669e-06
-2.45227e-06
3.83981e-06
-2.44238e-06
3.71847e-06
-2.43125e-06
3.60249e-06
-2.41884e-06
3.49171e-06
-2.40513e-06
3.38595e-06
-2.39012e-06
3.28503e-06
-2.37382e-06
3.18876e-06
-2.35625e-06
3.09698e-06
-2.33744e-06
3.0095e-06
-2.31742e-06
2.92614e-06
-2.29625e-06
2.84675e-06
-2.27397e-06
2.77114e-06
-2.25064e-06
2.69915e-06
-2.22632e-06
2.63062e-06
-2.20106e-06
2.5654e-06
-2.17494e-06
2.50334e-06
-2.14801e-06
2.4443e-06
-2.12035e-06
2.38812e-06
-2.09201e-06
2.33469e-06
-2.06306e-06
2.28386e-06
-2.03357e-06
2.23552e-06
-2.00359e-06
2.18954e-06
-1.97318e-06
2.1458e-06
-1.94241e-06
2.10421e-06
-1.91134e-06
2.06464e-06
-1.88e-06
2.02701e-06
-1.84847e-06
1.99122e-06
-1.81678e-06
-1.78499e-06
1.95716e-06
5.64485e-06
5.441e-06
5.244e-06
-2.30295e-06
5.05396e-06
-2.3067e-06
4.87094e-06
-2.31036e-06
4.69496e-06
-2.3137e-06
4.52596e-06
-2.31651e-06
4.36386e-06
-2.31859e-06
4.20855e-06
-2.31976e-06
4.0599e-06
-2.31987e-06
3.91773e-06
-2.31879e-06
3.78187e-06
-2.31641e-06
3.65214e-06
-2.31265e-06
3.52834e-06
-2.30745e-06
3.41027e-06
-2.30077e-06
3.29773e-06
-2.29259e-06
3.1905e-06
-2.2829e-06
3.08839e-06
-2.27171e-06
2.99119e-06
-2.25905e-06
2.8987e-06
-2.24494e-06
2.81072e-06
-2.22944e-06
2.72705e-06
-2.21258e-06
2.64751e-06
-2.19443e-06
2.57191e-06
-2.17504e-06
2.50008e-06
-2.15448e-06
2.43184e-06
-2.13282e-06
2.36703e-06
-2.11013e-06
2.30548e-06
-2.08646e-06
2.24704e-06
-2.06191e-06
2.19155e-06
-2.03652e-06
2.13887e-06
-2.01039e-06
2.08887e-06
-1.98357e-06
2.0414e-06
-1.95613e-06
1.99635e-06
-1.92813e-06
1.95359e-06
-1.89965e-06
1.913e-06
-1.87075e-06
1.87448e-06
-1.84148e-06
1.83791e-06
-1.8119e-06
1.8032e-06
-1.78207e-06
-1.75204e-06
1.77025e-06
5.06014e-06
4.86318e-06
4.67408e-06
4.49276e-06
4.31912e-06
-2.14287e-06
4.15301e-06
-2.15248e-06
3.99426e-06
-2.16101e-06
3.84267e-06
-2.16828e-06
3.69803e-06
-2.17416e-06
3.56013e-06
-2.17851e-06
3.42873e-06
-2.18126e-06
3.30361e-06
-2.18233e-06
3.18454e-06
-2.18169e-06
3.07127e-06
-2.17932e-06
2.96357e-06
-2.1752e-06
2.86122e-06
-2.16936e-06
2.764e-06
-2.16182e-06
2.67167e-06
-2.15262e-06
2.58403e-06
-2.1418e-06
2.50087e-06
-2.12942e-06
2.42197e-06
-2.11553e-06
2.34715e-06
-2.10022e-06
2.2762e-06
-2.08354e-06
2.20894e-06
-2.06556e-06
2.14519e-06
-2.04638e-06
2.08478e-06
-2.02605e-06
2.02754e-06
-2.00466e-06
1.97331e-06
-1.98229e-06
1.92193e-06
-1.95901e-06
1.87327e-06
-1.93491e-06
1.82719e-06
-1.91004e-06
1.78354e-06
-1.88449e-06
1.74221e-06
-1.85832e-06
1.70306e-06
-1.83161e-06
1.666e-06
-1.80441e-06
1.6309e-06
-1.7768e-06
1.59766e-06
-1.74883e-06
-1.72056e-06
1.56618e-06
4.07189e-06
-1.96644e-06
3.90354e-06
-1.98413e-06
3.74304e-06
-2.0005e-06
3.59013e-06
-2.01538e-06
3.44457e-06
-2.0286e-06
3.3061e-06
-2.04003e-06
3.17444e-06
-2.0496e-06
3.04933e-06
-2.05722e-06
2.93051e-06
-2.06287e-06
2.81771e-06
-2.06652e-06
2.71069e-06
-2.06818e-06
2.60918e-06
-2.06786e-06
2.51295e-06
-2.06559e-06
2.42175e-06
-2.06142e-06
2.33534e-06
-2.0554e-06
2.25351e-06
-2.04759e-06
2.17604e-06
-2.03806e-06
2.1027e-06
-2.02688e-06
2.03331e-06
-2.01414e-06
1.96767e-06
-1.99992e-06
1.90558e-06
-1.98429e-06
1.84687e-06
-1.96734e-06
1.79137e-06
-1.94916e-06
1.73891e-06
-1.92983e-06
1.68933e-06
-1.90944e-06
1.64249e-06
-1.88806e-06
1.59823e-06
-1.86578e-06
1.55641e-06
-1.84267e-06
1.51692e-06
-1.81882e-06
1.47962e-06
-1.7943e-06
1.44438e-06
-1.76918e-06
1.41111e-06
-1.74353e-06
1.37969e-06
-1.71741e-06
-1.69089e-06
1.35002e-06
3.78835e-06
-1.78919e-06
3.61961e-06
-1.81539e-06
3.45911e-06
-1.84e-06
3.30653e-06
-1.86281e-06
3.16159e-06
-1.88366e-06
3.02398e-06
-1.90243e-06
2.89342e-06
-1.91903e-06
2.76959e-06
-1.9334e-06
2.65223e-06
-1.9455e-06
2.54103e-06
-1.95533e-06
2.43573e-06
-1.96288e-06
2.33606e-06
-1.96818e-06
2.24175e-06
-1.97128e-06
2.15255e-06
-1.97222e-06
2.06822e-06
-1.97106e-06
1.98852e-06
-1.96789e-06
1.91323e-06
-1.96276e-06
1.84212e-06
-1.95578e-06
1.77499e-06
-1.94701e-06
1.71163e-06
-1.93656e-06
1.65184e-06
-1.92451e-06
1.59545e-06
-1.91095e-06
1.54227e-06
-1.89598e-06
1.49214e-06
-1.8797e-06
1.44488e-06
-1.86218e-06
1.40034e-06
-1.84353e-06
1.35839e-06
-1.82382e-06
1.31886e-06
-1.80315e-06
1.28163e-06
-1.7816e-06
1.24657e-06
-1.75924e-06
1.21357e-06
-1.73617e-06
1.18249e-06
-1.71245e-06
1.15324e-06
-1.68815e-06
-1.66335e-06
1.1257e-06
3.47505e-06
-1.61324e-06
3.3079e-06
-1.64824e-06
3.14922e-06
-1.68132e-06
2.99867e-06
-1.71226e-06
2.85594e-06
-1.74092e-06
2.72068e-06
-1.76717e-06
2.59258e-06
-1.79093e-06
2.47132e-06
-1.81214e-06
2.3566e-06
-1.83078e-06
2.24811e-06
-1.84684e-06
2.14558e-06
-1.86034e-06
2.04871e-06
-1.87132e-06
1.95725e-06
-1.87981e-06
1.87092e-06
-1.88589e-06
1.78948e-06
-1.88963e-06
1.71269e-06
-1.89109e-06
1.6403e-06
-1.89038e-06
1.5721e-06
-1.88757e-06
1.50786e-06
-1.88277e-06
1.44739e-06
-1.87608e-06
1.39047e-06
-1.86759e-06
1.33693e-06
-1.85741e-06
1.28657e-06
-1.84563e-06
1.23923e-06
-1.83235e-06
1.19474e-06
-1.81769e-06
1.15294e-06
-1.80172e-06
1.11367e-06
-1.78456e-06
1.07681e-06
-1.76628e-06
1.0422e-06
-1.74699e-06
1.00972e-06
-1.72677e-06
9.7925e-07
-1.7057e-06
9.50667e-07
-1.68387e-06
9.23862e-07
-1.66135e-06
-1.63822e-06
8.9873e-07
3.13966e-06
2.97604e-06
-1.48463e-06
2.82099e-06
-1.52627e-06
2.67415e-06
-1.56542e-06
2.53516e-06
-1.60193e-06
2.40367e-06
-1.63568e-06
2.27935e-06
-1.66661e-06
2.16188e-06
-1.69467e-06
2.05093e-06
-1.71984e-06
1.94621e-06
-1.74212e-06
1.84741e-06
-1.76155e-06
1.75425e-06
-1.77816e-06
1.66646e-06
-1.79202e-06
1.58377e-06
-1.8032e-06
1.50593e-06
-1.81178e-06
1.43269e-06
-1.81785e-06
1.36381e-06
-1.8215e-06
1.29907e-06
-1.82283e-06
1.23825e-06
-1.82195e-06
1.18114e-06
-1.81897e-06
1.12754e-06
-1.81399e-06
1.07726e-06
-1.80713e-06
1.03012e-06
-1.79848e-06
9.85936e-07
-1.78817e-06
9.44549e-07
-1.7763e-06
9.05798e-07
-1.76297e-06
8.6953e-07
-1.74829e-06
8.35603e-07
-1.73235e-06
8.03879e-07
-1.71527e-06
7.74226e-07
-1.69711e-06
7.46523e-07
-1.678e-06
7.20651e-07
-1.658e-06
6.965e-07
-1.6372e-06
-1.61569e-06
6.73963e-07
2.63261e-06
-1.32634e-06
2.48283e-06
-1.37648e-06
2.34117e-06
-1.42376e-06
2.20728e-06
-1.46804e-06
2.0808e-06
-1.50921e-06
1.9614e-06
-1.54721e-06
1.84875e-06
-1.58202e-06
1.74253e-06
-1.61361e-06
1.64243e-06
-1.64202e-06
1.54816e-06
-1.66728e-06
1.45944e-06
-1.68944e-06
1.376e-06
-1.70858e-06
1.29757e-06
-1.72477e-06
1.22389e-06
-1.73811e-06
1.15473e-06
-1.74869e-06
1.08985e-06
-1.75662e-06
1.02901e-06
-1.762e-06
9.72021e-07
-1.76496e-06
9.18658e-07
-1.76561e-06
8.68726e-07
-1.76406e-06
8.22034e-07
-1.76044e-06
7.78402e-07
-1.75485e-06
7.37655e-07
-1.74743e-06
6.99628e-07
-1.73827e-06
6.64161e-07
-1.7275e-06
6.31107e-07
-1.71523e-06
6.00318e-07
-1.70157e-06
5.71661e-07
-1.68661e-06
5.45005e-07
-1.67046e-06
5.20227e-07
-1.65322e-06
4.97211e-07
-1.63498e-06
4.75847e-07
-1.61583e-06
-1.59587e-06
4.56029e-07
2.28681e-06
-1.17489e-06
2.14366e-06
-1.23332e-06
2.00842e-06
-1.28852e-06
1.88075e-06
-1.34036e-06
1.76029e-06
-1.38875e-06
1.64672e-06
-1.43364e-06
1.53971e-06
-1.47501e-06
1.43896e-06
-1.51286e-06
1.34416e-06
-1.54723e-06
1.25504e-06
-1.57816e-06
1.17131e-06
-1.60571e-06
1.09271e-06
-1.62998e-06
1.01898e-06
-1.65104e-06
9.49879e-07
-1.669e-06
8.8516e-07
-1.68397e-06
8.24597e-07
-1.69605e-06
7.67971e-07
-1.70538e-06
7.1507e-07
-1.71206e-06
6.6569e-07
-1.71623e-06
6.19637e-07
-1.71801e-06
5.76723e-07
-1.71752e-06
5.36773e-07
-1.7149e-06
4.99612e-07
-1.71027e-06
4.65078e-07
-1.70374e-06
4.33017e-07
-1.69544e-06
4.03279e-07
-1.6855e-06
3.75722e-07
-1.67401e-06
3.50213e-07
-1.6611e-06
3.26624e-07
-1.64687e-06
3.04832e-07
-1.63143e-06
2.84724e-07
-1.61487e-06
2.6619e-07
-1.5973e-06
-1.5788e-06
2.49127e-07
1.94772e-06
1.81221e-06
-1.09781e-06
1.68429e-06
-1.16061e-06
1.56364e-06
-1.21971e-06
1.44992e-06
-1.27503e-06
1.34282e-06
-1.32654e-06
1.24202e-06
-1.37421e-06
1.14725e-06
-1.41808e-06
1.0582e-06
-1.45818e-06
9.74619e-07
-1.49457e-06
8.96229e-07
-1.52732e-06
8.22778e-07
-1.55653e-06
7.54019e-07
-1.58228e-06
6.89714e-07
-1.6047e-06
6.29635e-07
-1.62389e-06
5.73561e-07
-1.63998e-06
5.2128e-07
-1.65309e-06
4.72588e-07
-1.66337e-06
4.27287e-07
-1.67093e-06
3.85189e-07
-1.67591e-06
3.46113e-07
-1.67845e-06
3.09886e-07
-1.67867e-06
2.76341e-07
-1.67672e-06
2.4532e-07
-1.67272e-06
2.1667e-07
-1.66679e-06
1.90246e-07
-1.65907e-06
1.65911e-07
-1.64967e-06
1.43531e-07
-1.63872e-06
1.22983e-07
-1.62632e-06
1.04147e-07
-1.61259e-06
8.69105e-08
-1.59764e-06
7.11669e-08
-1.58156e-06
-1.56445e-06
5.68141e-08
1.49665e-06
-9.70567e-07
1.3766e-06
-1.04056e-06
1.26344e-06
-1.10655e-06
1.15687e-06
-1.16846e-06
1.0566e-06
-1.22626e-06
9.62329e-07
-1.27995e-06
8.73796e-07
-1.32955e-06
7.90727e-07
-1.37511e-06
7.12863e-07
-1.41671e-06
6.39956e-07
-1.45442e-06
5.71763e-07
-1.48834e-06
5.0805e-07
-1.51857e-06
4.48593e-07
-1.54524e-06
3.93176e-07
-1.56847e-06
3.41589e-07
-1.58839e-06
2.9363e-07
-1.60514e-06
2.49105e-07
-1.61884e-06
2.07827e-07
-1.62965e-06
1.69616e-07
-1.6377e-06
1.34297e-07
-1.64313e-06
1.01704e-07
-1.64608e-06
7.16771e-08
-1.64669e-06
4.4062e-08
-1.6451e-06
1.87131e-08
-1.64144e-06
-4.51075e-09
-1.63585e-06
-2.57442e-08
-1.62844e-06
-4.51148e-08
-1.61935e-06
-6.27444e-08
-1.60869e-06
-7.87492e-08
-1.59659e-06
-9.3239e-08
-1.58315e-06
-1.06319e-07
-1.56848e-06
-1.55268e-06
-1.18086e-07
1.20379e-06
-8.51794e-07
1.09178e-06
-9.28549e-07
9.86257e-07
-1.00103e-06
8.86967e-07
-1.06917e-06
7.93635e-07
-1.13293e-06
7.05992e-07
-1.1923e-06
6.23771e-07
-1.24733e-06
5.46717e-07
-1.29806e-06
4.74581e-07
-1.34457e-06
4.07127e-07
-1.38696e-06
3.4413e-07
-1.42534e-06
2.85373e-07
-1.45981e-06
2.30647e-07
-1.49052e-06
1.79752e-07
-1.51758e-06
1.32493e-07
-1.54113e-06
8.8683e-08
-1.56133e-06
4.81397e-08
-1.5783e-06
1.06877e-08
-1.5922e-06
-2.3842e-08
-1.60317e-06
-5.56136e-08
-1.61136e-06
-8.47858e-08
-1.61691e-06
-1.1151e-07
-1.61997e-06
-1.35933e-07
-1.62068e-06
-1.58197e-07
-1.61918e-06
-1.78436e-07
-1.61561e-06
-1.9678e-07
-1.6101e-06
-2.13352e-07
-1.60278e-06
-2.2827e-07
-1.59377e-06
-2.41648e-07
-1.58321e-06
-2.53592e-07
-1.5712e-06
-2.64204e-07
-1.55786e-06
-1.54331e-06
-2.73579e-07
9.39729e-07
-7.41376e-07
8.356e-07
-8.2442e-07
7.37591e-07
-9.03024e-07
6.45459e-07
-9.7704e-07
5.58938e-07
-1.04641e-06
4.7777e-07
-1.11114e-06
4.01689e-07
-1.17125e-06
3.30441e-07
-1.22681e-06
2.63791e-07
-1.27792e-06
2.01524e-07
-1.3247e-06
1.43432e-07
-1.36725e-06
8.93196e-08
-1.4057e-06
3.89997e-08
-1.4402e-06
-7.70958e-09
-1.47087e-06
-5.09822e-08
-1.49786e-06
-9.09897e-08
-1.52132e-06
-1.27897e-07
-1.54139e-06
-1.61866e-07
-1.55823e-06
-1.93054e-07
-1.57198e-06
-2.21614e-07
-1.5828e-06
-2.47693e-07
-1.59083e-06
-2.71437e-07
-1.59623e-06
-2.92984e-07
-1.59913e-06
-3.12469e-07
-1.5997e-06
-3.30021e-07
-1.59806e-06
-3.45765e-07
-1.59435e-06
-3.5982e-07
-1.58872e-06
-3.72302e-07
-1.58129e-06
-3.83318e-07
-1.57219e-06
-3.92975e-07
-1.56154e-06
-4.01369e-07
-1.54947e-06
-1.53608e-06
-4.08597e-07
7.08956e-07
-6.38576e-07
6.11886e-07
-7.2735e-07
5.20573e-07
-8.11712e-07
4.34951e-07
-8.91417e-07
3.54831e-07
-9.66288e-07
2.79914e-07
-1.03622e-06
2.09821e-07
-1.10116e-06
1.44162e-07
-1.16115e-06
8.26766e-08
-1.21644e-06
2.52019e-08
-1.26722e-06
-2.84218e-08
-1.31362e-06
-7.83506e-08
-1.35577e-06
-1.24738e-07
-1.39381e-06
-1.67734e-07
-1.42787e-06
-2.07492e-07
-1.4581e-06
-2.44158e-07
-1.48465e-06
-2.7788e-07
-1.50767e-06
-3.08805e-07
-1.5273e-06
-3.37075e-07
-1.54371e-06
-3.62833e-07
-1.55704e-06
-3.86217e-07
-1.56745e-06
-4.07363e-07
-1.57508e-06
-4.26402e-07
-1.58009e-06
-4.43463e-07
-1.58263e-06
-4.58671e-07
-1.58285e-06
-4.72146e-07
-1.58088e-06
-4.84004e-07
-1.57686e-06
-4.94357e-07
-1.57094e-06
-5.0331e-07
-1.56324e-06
-5.10966e-07
-1.55389e-06
-5.17421e-07
-1.54301e-06
-1.53073e-06
-5.22769e-07
5.12901e-07
-5.43304e-07
4.22424e-07
-6.36873e-07
3.36935e-07
-7.26223e-07
2.56603e-07
-8.11085e-07
1.81482e-07
-8.91166e-07
1.11458e-07
-9.66195e-07
4.62805e-08
-1.03598e-06
-1.44109e-08
-1.10046e-06
-7.10251e-08
-1.15982e-06
-1.2393e-07
-1.21432e-06
-1.73348e-07
-1.2642e-06
-2.19392e-07
-1.30973e-06
-2.62168e-07
-1.35103e-06
-3.01789e-07
-1.38825e-06
-3.38374e-07
-1.42152e-06
-3.72045e-07
-1.45098e-06
-4.0293e-07
-1.47678e-06
-4.31154e-07
-1.49908e-06
-4.56848e-07
-1.51802e-06
-4.80139e-07
-1.53375e-06
-5.01157e-07
-1.54643e-06
-5.20027e-07
-1.55621e-06
-5.36876e-07
-1.56325e-06
-5.51824e-07
-1.56769e-06
-5.64991e-07
-1.56968e-06
-5.76494e-07
-1.56938e-06
-5.86444e-07
-1.56691e-06
-5.94948e-07
-1.56243e-06
-6.02113e-07
-1.55607e-06
-6.08037e-07
-1.54797e-06
-6.12815e-07
-1.53824e-06
-1.52701e-06
-6.16539e-07
3.49291e-07
-4.56181e-07
2.6595e-07
-5.53533e-07
1.86593e-07
-6.46865e-07
1.11461e-07
-7.35954e-07
4.0763e-08
-8.20468e-07
-2.53724e-08
-9.0006e-07
-8.69127e-08
-9.74437e-07
-1.4395e-07
-1.04342e-06
-1.96785e-07
-1.10699e-06
-2.45852e-07
-1.16525e-06
-2.91538e-07
-1.21852e-06
-3.34096e-07
-1.26717e-06
-3.7364e-07
-1.31149e-06
-4.1025e-07
-1.35164e-06
-4.44018e-07
-1.38775e-06
-4.75043e-07
-1.41996e-06
-5.0343e-07
-1.4484e-06
-5.29292e-07
-1.47322e-06
-5.52741e-07
-1.49457e-06
-5.73896e-07
-1.51259e-06
-5.92871e-07
-1.52745e-06
-6.09787e-07
-1.53929e-06
-6.2476e-07
-1.54827e-06
-6.37905e-07
-1.55454e-06
-6.49338e-07
-1.55825e-06
-6.59167e-07
-1.55955e-06
-6.67502e-07
-1.55858e-06
-6.74449e-07
-1.55549e-06
-6.80107e-07
-1.55042e-06
-6.84575e-07
-1.5435e-06
-6.87945e-07
-1.53487e-06
-1.52465e-06
-6.90307e-07
2.17767e-07
-3.77198e-07
1.41753e-07
-4.77518e-07
6.88159e-08
-5.73929e-07
-7.75864e-10
-6.66362e-07
-6.67355e-08
-7.54509e-07
-1.28834e-07
-8.37962e-07
-1.86935e-07
-9.16336e-07
-2.41005e-07
-9.89354e-07
-2.91118e-07
-1.05687e-06
-3.37467e-07
-1.1189e-06
-3.80386e-07
-1.1756e-06
-4.20245e-07
-1.22731e-06
-4.5725e-07
-1.27448e-06
-4.91485e-07
-1.3174e-06
-5.23027e-07
-1.35621e-06
-5.51959e-07
-1.39102e-06
-5.78375e-07
-1.42198e-06
-6.02373e-07
-1.44922e-06
-6.24057e-07
-1.47288e-06
-6.43533e-07
-1.49312e-06
-6.60911e-07
-1.51007e-06
-6.76299e-07
-1.52391e-06
-6.89809e-07
-1.53476e-06
-7.0155e-07
-1.5428e-06
-7.11633e-07
-1.54817e-06
-7.20163e-07
-1.55102e-06
-7.27245e-07
-1.5515e-06
-7.32982e-07
-1.54975e-06
-7.37474e-07
-1.54592e-06
-7.40813e-07
-1.54016e-06
-7.43093e-07
-1.53259e-06
-1.52334e-06
-7.444e-07
1.18709e-07
-3.05841e-07
4.98915e-08
-4.08701e-07
-1.66417e-08
-5.07395e-07
-8.07406e-08
-6.02263e-07
-1.42069e-07
-6.9318e-07
-2.00279e-07
-7.79751e-07
-2.55108e-07
-8.61507e-07
-3.06413e-07
-9.3805e-07
-3.54171e-07
-1.00912e-06
-3.98467e-07
-1.0746e-06
-4.3948e-07
-1.13459e-06
-4.77473e-07
-1.18932e-06
-5.12694e-07
-1.23926e-06
-5.45266e-07
-1.28483e-06
-5.75254e-07
-1.32622e-06
-6.02733e-07
-1.36354e-06
-6.27787e-07
-1.39693e-06
-6.50506e-07
-1.4265e-06
-6.70982e-07
-1.45241e-06
-6.89316e-07
-1.47478e-06
-7.05608e-07
-1.49378e-06
-7.19963e-07
-1.50955e-06
-7.32485e-07
-1.52224e-06
-7.43279e-07
-1.53201e-06
-7.52451e-07
-1.539e-06
-7.60104e-07
-1.54336e-06
-7.6634e-07
-1.54526e-06
-7.71259e-07
-1.54483e-06
-7.74958e-07
-1.54223e-06
-7.7753e-07
-1.53759e-06
-7.79067e-07
-1.53105e-06
-1.52275e-06
-7.79654e-07
5.06384e-08
-2.41024e-07
-1.1732e-08
-3.4633e-07
-7.21204e-08
-4.47007e-07
-1.30788e-07
-5.43596e-07
-1.87546e-07
-6.36422e-07
-2.42011e-07
-7.25286e-07
-2.93805e-07
-8.09713e-07
-3.42653e-07
-8.89202e-07
-3.88413e-07
-9.63356e-07
-4.31068e-07
-1.03195e-06
-4.70703e-07
-1.09495e-06
-5.07472e-07
-1.15255e-06
-5.41567e-07
-1.20517e-06
-5.73114e-07
-1.25329e-06
-6.0217e-07
-1.29716e-06
-6.288e-07
-1.33691e-06
-6.53078e-07
-1.37265e-06
-6.75083e-07
-1.4045e-06
-6.94901e-07
-1.43259e-06
-7.12623e-07
-1.45706e-06
-7.28344e-07
-1.47806e-06
-7.42159e-07
-1.49573e-06
-7.54171e-07
-1.51023e-06
-7.64479e-07
-1.5217e-06
-7.73184e-07
-1.53029e-06
-7.80387e-07
-1.53616e-06
-7.86186e-07
-1.53946e-06
-7.90681e-07
-1.54034e-06
-7.93967e-07
-1.53894e-06
-7.96136e-07
-1.53542e-06
-7.97278e-07
-1.52991e-06
-1.52255e-06
-7.9748e-07
1.16887e-08
-1.81804e-07
-4.54154e-08
-2.89226e-07
-1.00546e-07
-3.91876e-07
-1.54173e-07
-4.89968e-07
-2.06537e-07
-5.84059e-07
-2.57402e-07
-6.7442e-07
-3.06354e-07
-7.60762e-07
-3.53006e-07
-8.42551e-07
-3.97088e-07
-9.19274e-07
-4.3847e-07
-9.90567e-07
-4.77138e-07
-1.05628e-06
-5.13163e-07
-1.11653e-06
-5.46661e-07
-1.17167e-06
-5.77712e-07
-1.22223e-06
-6.06363e-07
-1.26851e-06
-6.32664e-07
-1.31061e-06
-6.56679e-07
-1.34863e-06
-6.78476e-07
-1.3827e-06
-6.9813e-07
-1.41293e-06
-7.15722e-07
-1.43947e-06
-7.31341e-07
-1.46244e-06
-7.45076e-07
-1.482e-06
-7.5702e-07
-1.49829e-06
-7.6727e-07
-1.51145e-06
-7.75921e-07
-1.52164e-06
-7.83073e-07
-1.52901e-06
-7.88821e-07
-1.53371e-06
-7.93261e-07
-1.5359e-06
-7.96488e-07
-1.53571e-06
-7.98594e-07
-1.53331e-06
-7.99668e-07
-1.52883e-06
-1.52242e-06
-7.99795e-07
-9.63321e-10
-1.2753e-07
-5.36883e-08
-2.36501e-07
-1.04731e-07
-3.40834e-07
-1.54218e-07
-4.40481e-07
-2.02604e-07
-5.35673e-07
-2.50083e-07
-6.26941e-07
-2.96376e-07
-7.14468e-07
-3.41053e-07
-7.97874e-07
-3.83733e-07
-8.76593e-07
-4.24165e-07
-9.50135e-07
-4.62228e-07
-1.01822e-06
-4.97901e-07
-1.08085e-06
-5.31213e-07
-1.13836e-06
-5.62194e-07
-1.19125e-06
-5.90871e-07
-1.23984e-06
-6.17281e-07
-1.2842e-06
-6.4147e-07
-1.32445e-06
-6.63492e-07
-1.36068e-06
-6.83412e-07
-1.39301e-06
-7.01301e-07
-1.42158e-06
-7.17232e-07
-1.44651e-06
-7.31291e-07
-1.46794e-06
-7.43563e-07
-1.48601e-06
-7.54137e-07
-1.50087e-06
-7.63107e-07
-1.51267e-06
-7.70564e-07
-1.52155e-06
-7.76605e-07
-1.52767e-06
-7.81321e-07
-1.53118e-06
-7.84807e-07
-1.53223e-06
-7.87154e-07
-1.53096e-06
-7.8845e-07
-1.52754e-06
-1.52209e-06
-7.88783e-07
9.22388e-09
-3.96881e-08
-1.87589e-07
-8.74588e-08
-2.93063e-07
-1.3393e-07
-3.94009e-07
-1.7921e-07
-4.90393e-07
-2.23708e-07
-5.82442e-07
-2.67559e-07
-6.70618e-07
-3.10446e-07
-7.54987e-07
-3.51941e-07
-8.35099e-07
-3.91681e-07
-9.10395e-07
-4.29432e-07
-9.8047e-07
-4.65073e-07
-1.04521e-06
-4.98537e-07
-1.10489e-06
-5.29799e-07
-1.15999e-06
-5.58863e-07
-1.21077e-06
-5.85748e-07
-1.25732e-06
-6.10482e-07
-1.29971e-06
-6.33104e-07
-1.33806e-06
-6.5366e-07
-1.37246e-06
-6.72208e-07
-1.40303e-06
-6.88815e-07
-1.42991e-06
-7.0355e-07
-1.45321e-06
-7.16492e-07
-1.47307e-06
-7.27726e-07
-1.48964e-06
-7.37335e-07
-1.50306e-06
-7.4541e-07
-1.51348e-06
-7.52041e-07
-1.52104e-06
-7.5732e-07
-1.5259e-06
-7.61339e-07
-1.52821e-06
-7.64188e-07
-1.52812e-06
-7.65956e-07
-1.52577e-06
-1.52131e-06
-7.66731e-07
-6.97059e-09
-1.42034e-07
-5.19317e-08
-2.48102e-07
-9.61131e-08
-3.49828e-07
-1.39334e-07
-4.47173e-07
-1.81668e-07
-5.40108e-07
-2.23451e-07
-6.28835e-07
-2.64746e-07
-7.13692e-07
-3.05225e-07
-7.9462e-07
-3.44468e-07
-8.71153e-07
-3.82132e-07
-9.42806e-07
-4.17987e-07
-1.00936e-06
-4.51868e-07
-1.07101e-06
-4.8369e-07
-1.12817e-06
-5.13437e-07
-1.18103e-06
-5.41101e-07
-1.22965e-06
-5.66692e-07
-1.27412e-06
-5.90226e-07
-1.31452e-06
-6.11734e-07
-1.35095e-06
-6.31257e-07
-1.38351e-06
-6.48846e-07
-1.41232e-06
-6.64562e-07
-1.43749e-06
-6.7847e-07
-1.45916e-06
-6.90647e-07
-1.47746e-06
-7.01171e-07
-1.49254e-06
-7.10127e-07
-1.50452e-06
-7.17602e-07
-1.51357e-06
-7.23685e-07
-1.51982e-06
-7.28465e-07
-1.52343e-06
-7.32033e-07
-1.52455e-06
-7.3448e-07
-1.52332e-06
-1.5199e-06
-7.3589e-07
4.08503e-08
-9.95015e-08
-1.6362e-09
-2.05615e-07
-4.38681e-08
-3.07596e-07
-8.56394e-08
-4.05401e-07
-1.26749e-07
-4.98999e-07
-1.67219e-07
-5.88365e-07
-2.07269e-07
-6.73641e-07
-2.46894e-07
-7.54996e-07
-2.85772e-07
-8.32274e-07
-3.23499e-07
-9.05079e-07
-3.59741e-07
-9.73114e-07
-3.94234e-07
-1.03652e-06
-4.26837e-07
-1.09557e-06
-4.57504e-07
-1.15036e-06
-4.86203e-07
-1.20095e-06
-5.12913e-07
-1.24741e-06
-5.3763e-07
-1.2898e-06
-5.60362e-07
-1.32822e-06
-5.81129e-07
-1.36274e-06
-5.99967e-07
-1.39348e-06
-6.1692e-07
-1.42054e-06
-6.32045e-07
-1.44404e-06
-6.45405e-07
-1.4641e-06
-6.57074e-07
-1.48087e-06
-6.6713e-07
-1.49446e-06
-6.75656e-07
-1.50504e-06
-6.82737e-07
-1.51274e-06
-6.88464e-07
-1.5177e-06
-6.92925e-07
-1.52009e-06
-6.96209e-07
-1.52004e-06
-1.51771e-06
-6.98408e-07
1.00168e-07
-5.97705e-08
5.99501e-08
-1.65397e-07
1.94688e-08
-2.67115e-07
-2.10525e-08
-3.6488e-07
-6.13943e-08
-4.58657e-07
-1.01343e-07
-5.48416e-07
-1.40849e-07
-6.34135e-07
-1.79984e-07
-7.15861e-07
-2.1866e-07
-7.93598e-07
-2.56567e-07
-8.67172e-07
-2.93283e-07
-9.36398e-07
-3.28489e-07
-1.00131e-06
-3.62026e-07
-1.06203e-06
-3.93802e-07
-1.11858e-06
-4.23745e-07
-1.17101e-06
-4.51799e-07
-1.21936e-06
-4.77927e-07
-1.26368e-06
-5.0211e-07
-1.30403e-06
-5.24347e-07
-1.3405e-06
-5.44652e-07
-1.37317e-06
-5.63054e-07
-1.40214e-06
-5.79596e-07
-1.4275e-06
-5.94332e-07
-1.44937e-06
-6.07328e-07
-1.46787e-06
-6.18652e-07
-1.48314e-06
-6.28387e-07
-1.4953e-06
-6.36615e-07
-1.50451e-06
-6.43423e-07
-1.51089e-06
-6.48903e-07
-1.51461e-06
-6.53142e-07
-1.5158e-06
-1.51461e-06
-6.56234e-07
1.67362e-07
1.29283e-07
9.04455e-08
5.1087e-08
-3.25521e-07
1.14424e-08
-4.19012e-07
-2.82596e-08
-5.08714e-07
-6.77994e-08
-5.94595e-07
-1.07037e-07
-6.76623e-07
-1.45878e-07
-7.54758e-07
-1.84107e-07
-8.28943e-07
-2.21379e-07
-8.99126e-07
-2.57406e-07
-9.65286e-07
-2.92011e-07
-1.02742e-06
-3.25047e-07
-1.08555e-06
-3.56393e-07
-1.13966e-06
-3.85951e-07
-1.1898e-06
-4.13651e-07
-1.23598e-06
-4.39445e-07
-1.27824e-06
-4.63306e-07
-1.31664e-06
-4.85228e-07
-1.35125e-06
-5.05222e-07
-1.38214e-06
-5.23317e-07
-1.4094e-06
-5.39557e-07
-1.43313e-06
-5.53996e-07
-1.45343e-06
-5.66702e-07
-1.47043e-06
-5.77748e-07
-1.48426e-06
-5.87216e-07
-1.49504e-06
-5.95193e-07
-1.50292e-06