/*--------------------------------*- C++ -*----------------------------------*\
  =========                 |
  \\      /  F ield         | OpenFOAM: The Open Source CFD Toolbox
   \\    /   O peration     | Website:  https://openfoam.org
    \\  /    A nd           | Version:  10
     \\/     M anipulation  |
\*---------------------------------------------------------------------------*/
FoamFile
{
    format      ascii;
    class       volVectorField;
    location    "56000";
    object      U;
}
// * * * * * * * * * * * * * * * * * * * * * * * * * * * * * * * * * * * * * //

dimensions      [0 1 -1 0 0 0 0];

internalField   nonuniform List<vector> 
17981
(
(0.113532 3.26919 9.48127e-22)
(0.109654 3.27639 -9.51492e-22)
(0.105848 3.28329 0)
(0.10211 3.28986 -6.01861e-21)
(0.098441 3.29609 1.32556e-20)
(0.0948433 3.30197 -7.18184e-21)
(0.0913197 3.30749 0)
(0.0878728 3.31265 6.2119e-22)
(0.0845052 3.31744 0)
(0.0812194 3.32187 0)
(0.0780177 3.32592 -7.60489e-22)
(0.074902 3.32963 1.40322e-20)
(0.0718739 3.33298 -1.26979e-20)
(0.0689346 3.336 0)
(0.0660851 3.3387 0)
(0.0633256 3.34109 0)
(0.0606562 3.34319 0)
(0.0580766 3.345 -1.43022e-20)
(0.0555861 3.34656 1.36959e-20)
(0.0531837 3.34787 2.84292e-20)
(0.0508681 3.34894 -2.68036e-20)
(0.0486378 3.34981 -4.29359e-22)
(0.0464911 3.35047 0)
(0.0444262 3.35095 0)
(0.0424411 3.35125 2.7013e-20)
(0.0405335 3.3514 -2.55184e-20)
(0.0387014 3.3514 2.62164e-20)
(0.0369425 3.35127 -2.51857e-20)
(0.0352544 3.35101 -3.91411e-22)
(0.0336348 3.35065 0)
(0.0320813 3.35019 1.88931e-22)
(0.0305917 3.34963 -1.85449e-22)
(0.0291636 3.34899 -1.81928e-22)
(0.0277948 3.34828 2.28597e-20)
(0.0264828 3.3475 -2.20205e-20)
(0.0252257 3.34666 -1.71253e-22)
(0.0240211 3.34577 0)
(0.022867 3.34483 0)
(0.0217613 3.34385 1.60621e-22)
(0.0207021 3.34283 -2.04001e-20)
(0.0196873 3.34179 -9.55129e-23)
(0.0187151 3.34072 1.89579e-20)
(0.0177838 3.33962 7.34119e-23)
(0.0168915 3.33851 0)
(0.0160365 3.33738 0)
(0.0152173 3.33624 0)
(0.0144324 3.3351 0)
(0.0136801 3.33394 -1.69595e-20)
(0.0489861 3.28583 -5.76901e-21)
(0.0444673 3.29332 0)
(0.0400353 3.30049 -1.66304e-20)
(0.0356917 3.30733 4.09453e-20)
(0.0314391 3.31382 -2.32744e-20)
(0.0272801 3.31994 3.5137e-20)
(0.0232177 3.32568 -3.39551e-20)
(0.0192548 3.33103 6.18822e-22)
(0.0153944 3.33598 1.38261e-21)
(0.011639 3.34055 -5.01346e-20)
(0.0079909 3.34472 9.98823e-20)
(0.00445191 3.3485 -5.11907e-20)
(0.00102338 3.35192 0)
(-0.00229388 3.35497 1.72185e-21)
(-0.00549955 3.35767 -5.79606e-20)
(-0.00859384 3.36004 5.54616e-20)
(-0.0115774 3.36209 5.87966e-20)
(-0.0144513 3.36384 -5.62617e-20)
(-0.0172171 3.36531 8.97083e-22)
(-0.0198765 3.36652 0)
(-0.0224316 3.36748 -4.46879e-22)
(-0.0248849 3.3682 5.80724e-20)
(-0.0272387 3.36872 -5.43543e-20)
(-0.0294959 3.36904 5.7227e-20)
(-0.0316591 3.36917 -1.09686e-19)
(-0.0337315 3.36914 5.29569e-20)
(-0.0357158 3.36896 -5.3995e-20)
(-0.0376152 3.36864 5.18672e-20)
(-0.0394326 3.36818 4.03736e-22)
(-0.0411711 3.36762 0)
(-0.0428336 3.36695 1.94489e-22)
(-0.0444231 3.36618 1.91281e-22)
(-0.0459426 3.36533 -4.82774e-20)
(-0.0473948 3.36441 4.68611e-20)
(-0.0487825 3.36341 -5.409e-22)
(-0.0501085 3.36236 4.57596e-20)
(-0.0513755 3.36126 -4.39502e-20)
(-0.0525858 3.36011 0)
(-0.0537422 3.35892 4.25628e-20)
(-0.0548468 3.35769 -8.25432e-20)
(-0.0559021 3.35644 3.987e-20)
(-0.0569102 3.35516 -3.97914e-20)
(-0.0578733 3.35387 -6.81881e-22)
(-0.0587935 3.35255 3.75722e-20)
(-0.0596727 3.35123 0)
(-0.0605127 3.3499 0)
(-0.0613155 3.34856 1.38209e-22)
(-0.0620827 3.34722 -6.84094e-23)
(-0.0146987 3.30265 0)
(-0.019903 3.31041 9.11981e-21)
(-0.0249988 3.31784 -9.733e-21)
(-0.0299836 3.32493 2.37279e-20)
(-0.0348544 3.33165 -2.46107e-20)
(-0.0396077 3.33799 -1.9763e-21)
(-0.0442399 3.34392 0)
(-0.0487475 3.34943 -1.32343e-21)
(-0.0531272 3.35453 -4.26266e-21)
(-0.0573761 3.3592 0)
(-0.0614917 3.36345 1.62277e-21)
(-0.0654725 3.36728 3.33512e-21)
(-0.0693172 3.37072 0)
(-0.0730256 3.37376 -1.78473e-23)
(-0.0765979 3.37642 1.79811e-21)
(-0.0800351 3.37873 0)
(-0.0833386 3.38069 1.20775e-19)
(-0.0865104 3.38234 -1.13655e-19)
(-0.0895528 3.38368 -1.21684e-19)
(-0.0924688 3.38474 1.15549e-19)
(-0.0952614 3.38554 -1.82858e-21)
(-0.0979338 3.38609 0)
(-0.10049 3.38642 8.96846e-22)
(-0.102933 3.38654 -8.92902e-22)
(-0.105266 3.38647 8.79803e-22)
(-0.107495 3.38622 -1.11905e-19)
(-0.109622 3.38581 1.08272e-19)
(-0.111651 3.38526 -8.43108e-22)
(-0.113587 3.38457 0)
(-0.115433 3.38377 1.04804e-19)
(-0.117192 3.38285 2.51655e-21)
(-0.118869 3.38185 -1.00604e-19)
(-0.120467 3.38075 0)
(-0.121989 3.37958 0)
(-0.123439 3.37835 -9.63096e-20)
(-0.12482 3.37705 9.32092e-20)
(-0.126136 3.3757 -3.5677e-22)
(-0.127388 3.37431 0)
(-0.128581 3.37288 3.42046e-22)
(-0.129717 3.37142 -3.34634e-22)
(-0.130799 3.36994 -8.43616e-20)
(-0.131829 3.36843 8.14798e-20)
(-0.13281 3.36691 1.56527e-22)
(-0.133745 3.36537 -1.53219e-22)
(-0.134634 3.36383 -2.99303e-22)
(-0.135482 3.36228 0)
(-0.136289 3.36073 -1.4274e-22)
(-0.137058 3.35918 -7.27988e-20)
(-0.100548 3.3497 -1.49343e-21)
(-0.105929 3.35622 2.06722e-21)
(-0.111163 3.36232 8.20509e-20)
(-0.116245 3.36797 -1.69861e-19)
(-0.12117 3.37317 9.02522e-20)
(-0.125936 3.37792 -3.08487e-21)
(-0.130539 3.38221 1.0689e-19)
(-0.134979 3.38606 -1.08812e-19)
(-0.139254 3.38946 0)
(-0.143364 3.39245 -1.82637e-21)
(-0.147311 3.39504 1.20081e-19)
(-0.151097 3.39724 -1.16494e-19)
(-0.154723 3.39907 -1.20021e-19)
(-0.158193 3.40056 -9.47179e-21)
(-0.16151 3.40173 1.18542e-19)
(-0.164679 3.4026 -1.2331e-19)
(-0.167703 3.40319 1.18009e-19)
(-0.170588 3.40352 0)
(-0.173337 3.40361 1.18465e-19)
(-0.175956 3.40349 -2.34273e-19)
(-0.178449 3.40316 1.11364e-19)
(-0.180822 3.40265 1.14938e-19)
(-0.183079 3.40198 -1.0945e-19)
(-0.185225 3.40116 -8.65039e-22)
(-0.187265 3.4002 -1.10506e-19)
(-0.189203 3.39912 -6.78436e-22)
(-0.191044 3.39793 -3.84814e-21)
(-0.192793 3.39664 1.04321e-19)
(-0.194453 3.39527 1.02785e-19)
(-0.19603 3.39382 -1.99828e-19)
(-0.197526 3.3923 9.79209e-20)
(-0.198946 3.39073 -9.68424e-20)
(-0.200294 3.38911 9.37726e-20)
(-0.201573 3.38745 -9.28938e-20)
(-0.202786 3.38576 -2.33522e-21)
(-0.203938 3.38404 8.7796e-20)
(-0.20503 3.38229 1.01387e-21)
(-0.206067 3.38053 -8.48258e-20)
(-0.20705 3.37876 8.19642e-20)
(-0.207983 3.37697 3.16088e-22)
(-0.208868 3.37519 3.09004e-22)
(-0.209708 3.3734 7.74485e-20)
(-0.210505 3.37162 -7.52031e-20)
(-0.211261 3.36984 0)
(-0.165792 3.36803 -4.04529e-20)
(-0.17184 3.37473 -3.93996e-21)
(-0.177712 3.38096 0)
(-0.1834 3.38672 9.22734e-20)
(-0.1889 3.39199 -8.84045e-20)
(-0.194207 3.39677 6.33545e-21)
(-0.199319 3.40106 6.70177e-21)
(-0.204234 3.40487 0)
(-0.208951 3.4082 0)
(-0.213472 3.41109 -3.68923e-21)
(-0.217799 3.41353 0)
(-0.221934 3.41557 0)
(-0.225882 3.41722 -3.87086e-21)
(-0.229646 3.4185 1.94228e-21)
(-0.233232 3.41944 -1.26728e-19)
(-0.236645 3.42007 1.21178e-19)
(-0.239891 3.4204 -1.23576e-19)
(-0.242975 3.42045 1.20147e-19)
(-0.245905 3.42026 1.89205e-21)
(-0.248685 3.41985 0)
(-0.251322 3.41922 -1.20472e-19)
(-0.253822 3.41841 -5.08496e-21)
(-0.256191 3.41742 -4.83748e-21)
(-0.258435 3.41628 1.14346e-19)
(-0.260561 3.41501 -1.13541e-19)
(-0.262572 3.41361 -3.31131e-21)
(-0.264476 3.4121 1.0998e-19)
(-0.266277 3.4105 -1.08593e-19)
(-0.26798 3.40881 1.03791e-19)
(-0.269591 3.40705 0)
(-0.271114 3.40523 1.01785e-19)
(-0.272553 3.40335 -9.97068e-20)
(-0.273914 3.40142 0)
(-0.275199 3.39946 7.42916e-22)
(-0.276414 3.39747 7.27506e-22)
(-0.277561 3.39546 7.12765e-22)
(-0.278645 3.39343 8.91753e-20)
(-0.279669 3.39138 -1.75802e-19)
(-0.280636 3.38933 8.59955e-20)
(-0.28155 3.38728 0)
(-0.282412 3.38523 0)
(-0.283227 3.38319 8.07038e-20)
(-0.283996 3.38115 -7.77764e-20)
(-0.284723 3.37912 0)
(-0.230747 3.38676 -4.20202e-20)
(-0.237506 3.3936 -6.77622e-20)
(-0.244054 3.39995 1.52325e-19)
(-0.250383 3.40578 -7.9844e-20)
(-0.256486 3.41107 -1.01583e-19)
(-0.262357 3.41583 9.37869e-20)
(-0.267995 3.42007 -3.43409e-21)
(-0.273397 3.42377 0)
(-0.278565 3.42698 -1.22409e-19)
(-0.2835 3.42969 2.45674e-19)
(-0.288205 3.43195 7.77463e-21)
(-0.292686 3.43376 -1.21283e-19)
(-0.296947 3.43516 -3.92007e-21)
(-0.300994 3.43617 -1.29585e-19)
(-0.304836 3.43682 1.23809e-19)
(-0.308478 3.43714 -1.29086e-19)
(-0.311928 3.43715 -4.89099e-21)
(-0.315194 3.43688 1.22893e-19)
(-0.318283 3.43635 -5.81712e-21)
(-0.321204 3.43559 0)
(-0.323963 3.43461 4.93226e-24)
(-0.326568 3.43345 1.88032e-21)
(-0.329026 3.4321 1.20209e-19)
(-0.331346 3.43061 2.92774e-21)
(-0.333533 3.42897 -2.30491e-19)
(-0.335594 3.42721 1.10409e-19)
(-0.337536 3.42535 -3.4879e-21)
(-0.339365 3.42339 0)
(-0.341088 3.42135 -2.17701e-19)
(-0.342709 3.41924 2.09841e-19)
(-0.344235 3.41707 0)
(-0.34567 3.41485 7.96702e-22)
(-0.347019 3.41259 2.01609e-19)
(-0.348289 3.41029 -1.95399e-19)
(-0.349482 3.40798 0)
(-0.350603 3.40565 -7.35312e-22)
(-0.351657 3.4033 7.20609e-22)
(-0.352647 3.40095 7.05024e-22)
(-0.353577 3.3986 -1.78476e-19)
(-0.35445 3.39625 1.71936e-19)
(-0.35527 3.39391 -6.6122e-22)
(-0.356039 3.39158 -1.66991e-19)
(-0.356762 3.38927 1.60978e-19)
(-0.35744 3.38698 0)
(-0.303164 3.41296 -3.82839e-21)
(-0.310429 3.41937 -4.63463e-21)
(-0.317431 3.42521 0)
(-0.324161 3.43047 -5.91783e-21)
(-0.330614 3.43515 -6.41261e-21)
(-0.336787 3.43925 0)
(-0.34268 3.44279 -1.20618e-19)
(-0.348296 3.44579 1.14908e-19)
(-0.353637 3.44826 0)
(-0.35871 3.45025 -2.58793e-19)
(-0.363521 3.45176 2.50716e-19)
(-0.368077 3.45284 4.02516e-21)
(-0.372388 3.45351 0)
(-0.376462 3.45381 0)
(-0.380309 3.45376 -4.02286e-21)
(-0.383937 3.45339 0)
(-0.387358 3.45273 2.60597e-19)
(-0.390579 3.4518 -5.08047e-19)
(-0.393611 3.45064 5.03584e-19)
(-0.396463 3.44926 -2.43508e-19)
(-0.399143 3.44768 0)
(-0.401662 3.44593 2.44701e-19)
(-0.404026 3.44403 -2.37042e-19)
(-0.406245 3.44198 0)
(-0.408327 3.43982 2.37591e-19)
(-0.410278 3.43756 -4.57161e-19)
(-0.412106 3.4352 2.21678e-19)
(-0.413818 3.43277 -2.24082e-19)
(-0.415422 3.43028 2.14367e-19)
(-0.416922 3.42773 -2.16054e-19)
(-0.418325 3.42513 2.08502e-19)
(-0.419637 3.42251 0)
(-0.420863 3.41985 2.02319e-19)
(-0.422008 3.41718 -1.96984e-19)
(-0.423078 3.4145 0)
(-0.424076 3.41182 -1.92563e-19)
(-0.425007 3.40913 1.86205e-19)
(-0.425875 3.40646 -7.14329e-22)
(-0.426685 3.40379 -1.79971e-19)
(-0.427439 3.40114 3.50242e-19)
(-0.428141 3.39851 -1.69764e-19)
(-0.428795 3.39591 1.69124e-19)
(-0.429403 3.39332 1.63163e-21)
(-0.384831 3.44505 -5.31067e-21)
(-0.392197 3.45019 1.82272e-22)
(-0.399231 3.45471 6.61304e-21)
(-0.405933 3.4586 0)
(-0.412304 3.46188 -2.51483e-19)
(-0.418348 3.46458 4.77173e-19)
(-0.424073 3.46673 1.82211e-20)
(-0.429486 3.46836 1.68181e-20)
(-0.434597 3.4695 -2.62687e-19)
(-0.439417 3.47018 -4.0606e-21)
(-0.443957 3.47043 0)
(-0.448229 3.4703 -2.69482e-19)
(-0.452243 3.46981 -7.24733e-21)
(-0.456013 3.469 2.61462e-19)
(-0.45955 3.46788 0)
(-0.462865 3.4665 1.497e-23)
(-0.465971 3.46488 4.01918e-21)
(-0.468877 3.46304 -3.98229e-21)
(-0.471596 3.461 0)
(-0.474136 3.4588 2.51001e-19)
(-0.476509 3.45644 -2.43238e-19)
(-0.478724 3.45395 0)
(-0.480789 3.45135 1.87084e-21)
(-0.482714 3.44864 2.3856e-19)
(-0.484506 3.44585 -2.26288e-19)
(-0.486175 3.44299 0)
(-0.487727 3.44008 2.2679e-19)
(-0.489169 3.43711 -2.18871e-19)
(-0.490509 3.43411 1.69473e-21)
(-0.491752 3.43109 0)
(-0.492905 3.42805 1.63248e-21)
(-0.493973 3.42499 0)
(-0.494962 3.42194 -2.02467e-19)
(-0.495876 3.41889 3.94218e-19)
(-0.496721 3.41585 -3.86332e-19)
(-0.497502 3.41283 1.89568e-19)
(-0.498222 3.40982 0)
(-0.498885 3.40684 7.08517e-22)
(-0.499495 3.40389 -1.78592e-19)
(-0.500056 3.40097 3.47e-19)
(-0.500571 3.39808 -1.71697e-19)
(-0.46089 3.47017 -2.00752e-19)
(-0.468479 3.47441 1.90165e-19)
(-0.475677 3.47798 0)
(-0.482488 3.48091 7.42798e-21)
(-0.48892 3.48322 1.22179e-22)
(-0.494984 3.48495 0)
(-0.500691 3.48613 0)
(-0.506055 3.48681 1.6385e-20)
(-0.51109 3.48701 4.16163e-21)
(-0.51581 3.48677 4.15738e-21)
(-0.520229 3.48614 0)
(-0.524363 3.48514 -2.74304e-19)
(-0.528225 3.48381 2.58315e-19)
(-0.531831 3.48219 2.72071e-19)
(-0.535193 3.48029 -2.56655e-19)
(-0.538325 3.47815 -4.12598e-21)
(-0.541241 3.4758 4.08987e-21)
(-0.543952 3.47326 0)
(-0.546472 3.47055 4.00438e-21)
(-0.548809 3.4677 2.56272e-19)
(-0.550977 3.46472 -2.46708e-19)
(-0.552985 3.46163 -2.53099e-19)
(-0.554843 3.45845 2.42114e-19)
(-0.556562 3.45519 -3.73846e-21)
(-0.558148 3.45187 0)
(-0.559612 3.4485 3.62116e-21)
(-0.560959 3.4451 2.31716e-19)
(-0.562199 3.44167 -2.23851e-19)
(-0.563339 3.43821 2.21844e-19)
(-0.564384 3.43476 -4.32206e-19)
(-0.565342 3.4313 2.10565e-19)
(-0.566218 3.42785 -2.09601e-19)
(-0.567017 3.42441 2.02785e-19)
(-0.567746 3.42099 -7.81602e-22)
(-0.568409 3.4176 7.20567e-25)
(-0.569011 3.41424 7.51404e-22)
(-0.569555 3.41091 0)
(-0.570046 3.40762 -7.20882e-22)
(-0.570489 3.40436 0)
(-0.570885 3.40116 7.00863e-22)
(-0.546214 3.49719 0)
(-0.5534 3.49966 7.33009e-21)
(-0.560154 3.50148 7.78118e-21)
(-0.566491 3.5027 0)
(-0.572426 3.50335 -2.70167e-19)
(-0.577978 3.50348 2.49075e-19)
(-0.583162 3.50312 -8.37289e-21)
(-0.587998 3.50232 -4.26007e-21)
(-0.592503 3.50112 -2.79576e-19)
(-0.596695 3.49955 -1.22609e-20)
(-0.60059 3.49765 2.72017e-19)
(-0.604206 3.49546 0)
(-0.607558 3.49299 -2.76425e-19)
(-0.610662 3.4903 -9.09971e-21)
(-0.613534 3.48739 5.39881e-19)
(-0.616186 3.48429 -2.6156e-19)
(-0.618632 3.48104 -2.66532e-19)
(-0.620886 3.47765 5.15922e-19)
(-0.622959 3.47414 -2.57734e-19)
(-0.624864 3.47053 -1.97815e-21)
(-0.62661 3.46684 -1.95584e-21)
(-0.628208 3.46308 -2.45432e-19)
(-0.629669 3.45927 -4.84704e-21)
(-0.631001 3.45542 2.35178e-19)
(-0.632214 3.45154 -1.84e-21)
(-0.633315 3.44765 0)
(-0.634313 3.44375 -1.77931e-21)
(-0.635214 3.43985 0)
(-0.636026 3.43597 0)
(-0.636755 3.4321 0)
(-0.637407 3.42826 1.65513e-21)
(-0.637988 3.42444 0)
(-0.638503 3.42067 -7.9558e-22)
(-0.638956 3.41693 7.72935e-25)
(-0.639354 3.41324 -7.65189e-22)
(-0.639698 3.40959 1.9436e-19)
(-0.639995 3.406 -1.86908e-19)
(-0.640248 3.40245 1.87582e-19)
(-0.644694 3.51972 2.73441e-19)
(-0.65035 3.51922 -2.52203e-19)
(-0.655604 3.51824 8.57921e-21)
(-0.660478 3.51682 0)
(-0.664993 3.51499 -2.84714e-19)
(-0.669169 3.5128 2.72453e-19)
(-0.673027 3.51028 -2.4889e-23)
(-0.676585 3.50747 4.34416e-21)
(-0.679862 3.50439 0)
(-0.682875 3.50109 -4.31164e-21)
(-0.68564 3.49759 -4.29895e-21)
(-0.688174 3.49391 -2.76683e-19)
(-0.690492 3.49008 2.66338e-19)
(-0.692607 3.48612 4.18333e-21)
(-0.694533 3.48205 6.69644e-24)
(-0.696283 3.47789 2.6865e-19)
(-0.69787 3.47366 -2.55282e-19)
(-0.699304 3.46938 -1.99095e-21)
(-0.700596 3.46506 -1.96189e-21)
(-0.701756 3.4607 0)
(-0.702794 3.45634 2.45998e-19)
(-0.703719 3.45196 -2.37881e-19)
(-0.704538 3.4476 2.38006e-19)
(-0.70526 3.44324 -2.32117e-19)
(-0.705892 3.43892 -2.29848e-19)
(-0.70644 3.43462 2.24287e-19)
(-0.706912 3.43035 -1.71897e-21)
(-0.707314 3.42613 -2.15779e-19)
(-0.70765 3.42195 2.09038e-19)
(-0.707927 3.41783 -2.08393e-19)
(-0.708148 3.41376 2.04361e-19)
(-0.708319 3.40975 2.00216e-19)
(-0.708445 3.4058 -1.95639e-19)
(-0.708528 3.40192 -7.6008e-22)
(-0.717434 3.53492 0)
(-0.723102 3.53375 -1.0371e-22)
(-0.728338 3.53209 2.85603e-19)
(-0.733166 3.52999 -2.81592e-19)
(-0.737612 3.52749 0)
(-0.741697 3.52463 -8.85545e-21)
(-0.745444 3.52145 4.41369e-21)
(-0.748875 3.51798 2.90807e-19)
(-0.75201 3.51427 1.06145e-20)
(-0.754868 3.51033 -2.74179e-19)
(-0.757467 3.50621 -2.82282e-19)
(-0.759825 3.50192 2.75964e-19)
(-0.761958 3.49749 2.82058e-19)
(-0.763881 3.49294 -2.67583e-19)
(-0.76561 3.48829 2.80629e-19)
(-0.767157 3.48357 -2.70924e-19)
(-0.768537 3.47879 -4.16653e-21)
(-0.769759 3.47396 2.66352e-19)
(-0.770838 3.46911 -5.1405e-19)
(-0.771782 3.46424 -6.9607e-21)
(-0.772603 3.45937 2.50496e-19)
(-0.77331 3.4545 -2.51213e-19)
(-0.773911 3.44966 2.45067e-19)
(-0.774415 3.44484 -2.41291e-19)
(-0.77483 3.44005 4.7459e-19)
(-0.775163 3.43531 -2.31602e-19)
(-0.775421 3.43061 0)
(-0.77561 3.42597 -1.75849e-21)
(-0.775737 3.42139 1.72649e-21)
(-0.775806 3.41687 -3.3902e-21)
(-0.775823 3.41242 -2.14927e-19)
(-0.775792 3.40804 2.09266e-19)
(-0.775719 3.40373 1.59919e-21)
(-0.775606 3.39949 0)
(-0.790473 3.54867 -2.59422e-19)
(-0.796055 3.54678 2.76983e-19)
(-0.80118 3.5444 -5.71666e-19)
(-0.805875 3.54159 2.86349e-19)
(-0.810167 3.53838 -8.97217e-21)
(-0.814082 3.53483 -2.88151e-19)
(-0.817644 3.53097 2.7598e-19)
(-0.820876 3.52683 2.93412e-19)
(-0.823801 3.52245 -2.9092e-19)
(-0.826439 3.51786 2.91874e-19)
(-0.82881 3.5131 -2.89882e-19)
(-0.830933 3.50818 0)
(-0.832825 3.50313 -4.4737e-21)
(-0.834502 3.49798 2.83954e-19)
(-0.83598 3.49274 -5.64038e-19)
(-0.837274 3.48744 2.75889e-19)
(-0.838397 3.48209 5.87767e-24)
(-0.839363 3.47672 0)
(-0.840183 3.47132 -8.43231e-21)
(-0.840869 3.46592 2.71053e-19)
(-0.841432 3.46054 -5.25539e-19)
(-0.841882 3.45517 2.56774e-19)
(-0.842228 3.44984 0)
(-0.842479 3.44454 0)
(-0.842642 3.4393 -2.49272e-19)
(-0.842727 3.4341 4.84844e-19)
(-0.842739 3.42897 -2.37651e-19)
(-0.842686 3.42391 2.36754e-19)
(-0.842573 3.41891 -2.29611e-19)
(-0.842406 3.414 -1.1774e-24)
(-0.842191 3.40916 -2.24037e-19)
(-0.841933 3.4044 2.15667e-19)
(-0.841636 3.39973 -8.37165e-22)
(-0.841304 3.39514 -2.14382e-19)
(-0.863563 3.56067 8.44873e-21)
(-0.868958 3.55803 0)
(-0.873877 3.55492 8.98862e-21)
(-0.878349 3.55138 0)
(-0.882404 3.54746 3.11266e-19)
(-0.88607 3.5432 -2.98865e-19)
(-0.889373 3.53865 0)
(-0.892336 3.53383 9.33418e-21)
(-0.894985 3.52878 3.10449e-19)
(-0.897341 3.52354 -2.89642e-19)
(-0.899425 3.51813 -4.66252e-21)
(-0.901256 3.51257 4.64541e-21)
(-0.902852 3.50691 3.05269e-19)
(-0.904232 3.50115 -5.88668e-19)
(-0.905411 3.49532 2.88279e-19)
(-0.906406 3.48943 3.02192e-19)
(-0.907229 3.48352 -2.78988e-19)
(-0.907896 3.47758 -2.86942e-19)
(-0.908418 3.47165 5.70044e-19)
(-0.908807 3.46572 -2.74545e-19)
(-0.909076 3.45982 0)
(-0.909234 3.45395 0)
(-0.90929 3.44812 0)
(-0.909255 3.44235 0)
(-0.909136 3.43664 2.01993e-21)
(-0.908942 3.431 0)
(-0.90868 3.42543 -1.9568e-21)
(-0.908356 3.41994 2.49873e-19)
(-0.907978 3.41454 -2.40591e-19)
(-0.907551 3.40922 -9.14021e-25)
(-0.90708 3.40399 -2.35034e-19)
(-0.90657 3.39886 2.28148e-19)
(-0.906027 3.39383 1.75963e-21)
(-0.905454 3.38889 0)
(-0.94149 3.56729 2.73877e-19)
(-0.946114 3.56344 -3.00451e-19)
(-0.950282 3.55918 5.92909e-19)
(-0.954023 3.55455 -2.83265e-19)
(-0.957368 3.5496 9.53934e-21)
(-0.960344 3.54436 0)
(-0.962976 3.53886 -6.02924e-23)
(-0.965289 3.53315 -9.62518e-21)
(-0.967307 3.52726 3.14791e-19)
(-0.969049 3.52121 -2.93907e-19)
(-0.970538 3.51503 -1.77589e-23)
(-0.971792 3.50875 4.78652e-21)
(-0.972829 3.50239 0)
(-0.973666 3.49597 3.07292e-19)
(-0.97432 3.48951 -3.01957e-19)
(-0.974804 3.48303 3.01965e-19)
(-0.975134 3.47654 -5.91294e-19)
(-0.975322 3.47006 2.84964e-19)
(-0.97538 3.46361 4.51923e-21)
(-0.975321 3.4572 0)
(-0.975155 3.45083 0)
(-0.974892 3.44452 -2.81094e-19)
(-0.974542 3.43827 2.72657e-19)
(-0.974113 3.4321 -2.11697e-21)
(-0.973614 3.42601 0)
(-0.973052 3.42001 2.05313e-21)
(-0.972434 3.4141 -2.02038e-21)
(-0.971766 3.40828 0)
(-0.971056 3.40257 2.51641e-19)
(-0.970307 3.39696 -4.89664e-19)
(-0.969526 3.39146 2.40093e-19)
(-0.968718 3.38606 2.36489e-19)
(-0.967885 3.38078 -2.33007e-19)
(-1.01328 3.5744 2.90526e-19)
(-1.01753 3.56984 -2.86622e-19)
(-1.02132 3.56488 9.41314e-21)
(-1.02468 3.55957 3.16489e-19)
(-1.02765 3.55394 -2.94434e-19)
(-1.03024 3.54803 -9.8109e-21)
(-1.03248 3.54188 3.14264e-19)
(-1.03441 3.53552 2.27726e-20)
(-1.03604 3.529 -3.13646e-19)
(-1.0374 3.52233 -1.49788e-20)
(-1.0385 3.51554 -9.98266e-21)
(-1.03937 3.50865 -3.28465e-19)
(-1.04003 3.5017 6.34743e-19)
(-1.04049 3.49471 -6.31444e-19)
(-1.04077 3.48768 3.0486e-19)
(-1.04088 3.48065 -3.15115e-19)
(-1.04084 3.47362 3.05326e-19)
(-1.04066 3.46662 4.77671e-21)
(-1.04036 3.45965 -3.05914e-19)
(-1.03995 3.45273 2.96699e-19)
(-1.03943 3.44587 4.62413e-21)
(-1.03883 3.43908 0)
(-1.03814 3.43236 0)
(-1.03738 3.42574 -2.86938e-19)
(-1.03655 3.41921 2.78599e-19)
(-1.03567 3.41278 2.76339e-19)
(-1.03473 3.40645 -2.7048e-19)
(-1.03376 3.40023 0)
(-1.03275 3.39413 4.11942e-21)
(-1.0317 3.38814 -2.60759e-19)
(-1.03063 3.38227 2.55335e-19)
(-1.02954 3.37652 2.51632e-19)
(-1.02844 3.3709 -2.49992e-19)
(-1.08393 3.57929 2.92038e-19)
(-1.08775 3.57406 0)
(-1.09111 3.56844 -9.75012e-21)
(-1.09403 3.56247 -9.91222e-23)
(-1.09657 3.5562 -1.00786e-20)
(-1.09873 3.54966 3.42889e-19)
(-1.10054 3.54288 -6.55696e-19)
(-1.10205 3.53591 3.33492e-19)
(-1.10325 3.52878 0)
(-1.10419 3.52151 3.37966e-19)
(-1.10488 3.51413 -3.11146e-19)
(-1.10533 3.50667 0)
(-1.10558 3.49915 3.40867e-19)
(-1.10563 3.4916 -6.59207e-19)
(-1.10551 3.48403 6.60929e-19)
(-1.10522 3.47646 7.86224e-21)
(-1.10479 3.4689 -6.46918e-19)
(-1.10423 3.46138 3.17325e-19)
(-1.10355 3.45391 -7.25867e-24)
(-1.10276 3.4465 3.17711e-19)
(-1.10187 3.43916 -3.18163e-19)
(-1.1009 3.4319 0)
(-1.09985 3.42473 0)
(-1.09874 3.41766 -3.0473e-19)
(-1.09757 3.4107 -4.42707e-21)
(-1.09635 3.40385 2.92004e-19)
(-1.09509 3.39711 0)
(-1.09379 3.3905 0)
(-1.09246 3.38401 -2.17728e-21)
(-1.09111 3.37766 -2.14183e-21)
(-1.08974 3.37143 -4.21194e-21)
(-1.08836 3.36533 2.68447e-19)
(-1.08697 3.35938 -5.30151e-19)
(-1.15639 3.57614 2.99161e-19)
(-1.15927 3.5699 3.28711e-19)
(-1.16173 3.56333 -3.26309e-19)
(-1.1638 3.55645 -3.29789e-19)
(-1.1655 3.54931 3.17312e-19)
(-1.16686 3.54195 0)
(-1.16791 3.5344 -1.07345e-20)
(-1.16866 3.52669 3.51105e-19)
(-1.16915 3.51886 2.32501e-20)
(-1.1694 3.51092 -7.0369e-19)
(-1.16942 3.50291 3.3566e-19)
(-1.16924 3.49485 3.45697e-19)
(-1.16886 3.48676 -3.40334e-19)
(-1.16832 3.47866 0)
(-1.16762 3.47057 -3.46107e-19)
(-1.16678 3.46251 6.79578e-19)
(-1.16582 3.4545 -3.38921e-19)
(-1.16474 3.44654 -5.23144e-21)
(-1.16356 3.43865 0)
(-1.16229 3.43084 5.13126e-21)
(-1.16094 3.42313 0)
(-1.15953 3.41552 0)
(-1.15806 3.40802 -3.1708e-19)
(-1.15653 3.40063 3.1306e-19)
(-1.15496 3.39337 0)
(-1.15336 3.38624 0)
(-1.15173 3.37924 -2.34213e-21)
(-1.15008 3.37238 -2.99409e-19)
(-1.14841 3.36566 2.88852e-19)
(-1.14673 3.35908 4.17677e-25)
(-1.14505 3.35265 -2.84743e-19)
(-1.14336 3.34637 2.80887e-19)
(-1.22312 3.57617 3.29965e-19)
(-1.22551 3.56938 -3.07045e-19)
(-1.22748 3.56224 3.35592e-19)
(-1.22906 3.55481 -3.54926e-19)
(-1.23028 3.54712 -3.46106e-19)
(-1.23116 3.53922 3.33816e-19)
(-1.23174 3.53112 0)
(-1.23203 3.52288 0)
(-1.23206 3.51451 -3.677e-19)
(-1.23185 3.50605 3.56172e-19)
(-1.23143 3.49752 1.70001e-20)
(-1.2308 3.48895 5.66019e-21)
(-1.22999 3.48035 5.65281e-21)
(-1.22902 3.47175 -3.66084e-19)
(-1.2279 3.46317 -8.8925e-21)
(-1.22664 3.45463 3.5381e-19)
(-1.22527 3.44614 3.59634e-19)
(-1.22379 3.43771 -3.4945e-19)
(-1.22221 3.42936 0)
(-1.22056 3.4211 0)
(-1.21883 3.41295 -3.46382e-19)
(-1.21704 3.40491 3.42028e-19)
(-1.2152 3.39698 3.38289e-19)
(-1.21331 3.38919 -6.65509e-19)
(-1.21139 3.38153 3.24778e-19)
(-1.20945 3.37401 -3.24903e-19)
(-1.20748 3.36664 6.38656e-19)
(-1.2055 3.35941 -3.0896e-19)
(-1.20351 3.35234 0)
(-1.20152 3.34542 3.07765e-19)
(-1.19953 3.33866 -5.97353e-19)
(-1.19754 3.33206 2.93989e-19)
(-1.28764 3.57437 -3.15643e-19)
(-1.28953 3.56707 -1.06484e-20)
(-1.291 3.55942 1.09309e-20)
(-1.29209 3.55147 3.65727e-19)
(-1.29281 3.54326 -3.41858e-19)
(-1.29321 3.53485 2.29868e-20)
(-1.29331 3.52625 -3.80177e-19)
(-1.29313 3.51751 -1.49879e-20)
(-1.2927 3.50865 3.5945e-19)
(-1.29204 3.4997 1.18513e-20)
(-1.29117 3.49069 -1.19384e-20)
(-1.2901 3.48164 -5.97555e-21)
(-1.28886 3.47257 -5.97277e-21)
(-1.28746 3.4635 -5.94335e-21)
(-1.28592 3.45445 0)
(-1.28425 3.44545 0)
(-1.28247 3.4365 -5.86456e-21)
(-1.28059 3.42762 0)
(-1.27862 3.41883 -3.79809e-19)
(-1.27657 3.41014 -1.26425e-20)
(-1.27446 3.40156 7.21738e-19)
(-1.2723 3.3931 -7.25605e-19)
(-1.27009 3.38477 3.53167e-19)
(-1.26784 3.37658 -5.49465e-21)
(-1.26557 3.36854 -2.71337e-21)
(-1.26328 3.36064 0)
(-1.26097 3.3529 3.40486e-19)
(-1.25866 3.34532 -6.66813e-19)
(-1.25635 3.3379 3.2646e-19)
(-1.25404 3.33065 0)
(-1.25175 3.32357 3.22416e-19)
(-1.24947 3.31665 -3.13288e-19)
(-1.34967 3.57094 -3.51604e-19)
(-1.35109 3.56318 6.91197e-19)
(-1.35209 3.55505 -3.50354e-19)
(-1.3527 3.54662 1.16322e-20)
(-1.35295 3.53794 -3.99748e-19)
(-1.35286 3.52906 -1.83781e-20)
(-1.35249 3.52001 7.91778e-19)
(-1.35184 3.51082 -3.98386e-19)
(-1.35095 3.50151 4.04967e-19)
(-1.34984 3.49212 -4.05465e-19)
(-1.34853 3.48266 0)
(-1.34704 3.47316 0)
(-1.34538 3.46365 -6.27864e-21)
(-1.34356 3.45414 4.13781e-19)
(-1.34161 3.44465 -3.96048e-19)
(-1.33954 3.43521 -6.23638e-21)
(-1.33736 3.42583 -4.02197e-19)
(-1.33508 3.41652 3.91233e-19)
(-1.33272 3.40731 -3.84384e-19)
(-1.3303 3.3982 3.92057e-19)
(-1.32781 3.3892 3.95795e-19)
(-1.32527 3.38034 6.53121e-21)
(-1.3227 3.37161 -3.75575e-19)
(-1.3201 3.36303 5.85418e-21)
(-1.31747 3.3546 -3.69825e-19)
(-1.31484 3.34634 3.59959e-19)
(-1.31219 3.33824 -2.81515e-21)
(-1.30955 3.33031 0)
(-1.30692 3.32255 -3.52503e-19)
(-1.3043 3.31497 -3.98913e-21)
(-1.3017 3.30757 -6.40677e-21)
(-1.29912 3.30035 3.3721e-19)
(-1.40918 3.56628 3.78695e-19)
(-1.41014 3.55813 -3.44715e-19)
(-1.41067 3.54955 1.18902e-20)
(-1.41082 3.5406 1.22285e-20)
(-1.4106 3.53139 1.24896e-20)
(-1.41005 3.52198 4.04392e-19)
(-1.40923 3.51247 -8.35935e-19)
(-1.40815 3.50289 4.19519e-19)
(-1.40684 3.49322 1.31129e-20)
(-1.4053 3.48345 0)
(-1.40357 3.47361 -4.43675e-19)
(-1.40166 3.46372 -1.31254e-20)
(-1.39959 3.4538 4.2595e-19)
(-1.39737 3.44388 0)
(-1.39502 3.43398 -4.30293e-19)
(-1.39255 3.42413 4.25278e-19)
(-1.38997 3.41433 1.31905e-20)
(-1.38731 3.40461 4.24499e-19)
(-1.38457 3.39499 1.91384e-21)
(-1.38176 3.38547 -4.04097e-19)
(-1.3789 3.37608 0)
(-1.37599 3.36682 -4.11085e-19)
(-1.37306 3.3577 -6.59135e-21)
(-1.3701 3.34874 4.02497e-19)
(-1.36713 3.33994 -3.9159e-19)
(-1.36415 3.33131 3.90387e-19)
(-1.36117 3.32285 3.01025e-21)
(-1.3582 3.31458 0)
(-1.35525 3.30649 0)
(-1.35232 3.29859 2.88147e-21)
(-1.34942 3.29088 2.8373e-21)
(-1.34654 3.28336 0)
(-1.46607 3.56027 3.94417e-19)
(-1.46661 3.55194 -3.60599e-19)
(-1.46672 3.54309 4.02825e-19)
(-1.46644 3.5338 -4.16627e-19)
(-1.46579 3.52416 -1.12299e-22)
(-1.46482 3.51428 0)
(-1.46355 3.50424 0)
(-1.46203 3.49413 4.5154e-19)
(-1.46029 3.48399 -9.01959e-19)
(-1.45835 3.47385 4.37652e-19)
(-1.45623 3.46368 1.40229e-20)
(-1.45392 3.45344 0)
(-1.45146 3.44317 -4.57383e-19)
(-1.44885 3.43288 -1.23928e-20)
(-1.44611 3.4226 9.02233e-19)
(-1.44326 3.41236 -4.51903e-19)
(-1.4403 3.40217 4.54122e-19)
(-1.43726 3.39206 -4.35332e-19)
(-1.43414 3.38205 0)
(-1.43096 3.37214 -1.38113e-20)
(-1.42773 3.36236 6.84811e-21)
(-1.42447 3.35271 4.38883e-19)
(-1.42117 3.34322 -4.20849e-19)
(-1.41786 3.33388 -6.67422e-21)
(-1.41455 3.32472 -1.31928e-20)
(-1.41123 3.31573 -4.20221e-19)
(-1.40792 3.30693 4.09333e-19)
(-1.40463 3.29832 4.09317e-19)
(-1.40136 3.2899 8.03946e-21)
(-1.39812 3.28168 -3.9608e-19)
(-1.39491 3.27367 -3.97583e-19)
(-1.39175 3.26585 -4.14219e-21)
(-1.52027 3.55305 -2.23192e-19)
(-1.5204 3.54464 1.81529e-19)
(-1.52011 3.53565 2.17914e-19)
(-1.51943 3.52615 -2.12517e-19)
(-1.51837 3.51622 4.49244e-19)
(-1.51699 3.50598 -4.49163e-19)
(-1.51532 3.49553 0)
(-1.51339 3.48497 1.46921e-20)
(-1.51124 3.47436 4.83235e-19)
(-1.50891 3.46377 -4.66254e-19)
(-1.5064 3.4532 0)
(-1.50374 3.44263 1.488e-20)
(-1.50092 3.43202 1.49311e-20)
(-1.49795 3.42139 0)
(-1.49485 3.41076 0)
(-1.49163 3.40015 7.50656e-21)
(-1.48831 3.38959 -1.49575e-20)
(-1.4849 3.3791 4.74757e-19)
(-1.48142 3.36871 -4.62553e-19)
(-1.47789 3.35842 1.72334e-23)
(-1.4743 3.34826 -1.46561e-20)
(-1.47069 3.33824 0)
(-1.46705 3.32837 4.57975e-19)
(-1.46339 3.31867 -4.53368e-19)
(-1.45974 3.30915 7.07163e-21)
(-1.45609 3.29981 -3.4903e-21)
(-1.45246 3.29067 0)
(-1.44885 3.28172 -3.40447e-21)
(-1.44527 3.27298 -4.63163e-24)
(-1.44173 3.26445 -4.23259e-19)
(-1.43823 3.25613 4.15428e-19)
(-1.43477 3.24803 0)
(-1.57165 3.54477 -2.46947e-20)
(-1.57141 3.53639 2.17459e-19)
(-1.57077 3.5274 -2.2657e-19)
(-1.56973 3.51782 2.51018e-19)
(-1.56832 3.50773 -2.16281e-19)
(-1.56657 3.49724 -2.50013e-19)
(-1.56452 3.48646 2.42504e-19)
(-1.56221 3.47553 -2.87967e-19)
(-1.55969 3.46452 2.79354e-19)
(-1.55698 3.45351 1.5802e-20)
(-1.55412 3.44254 1.58188e-20)
(-1.55112 3.43161 -3.17568e-20)
(-1.54796 3.42067 -1.59578e-20)
(-1.54466 3.40971 -5.18273e-19)
(-1.54122 3.39872 1.03175e-18)
(-1.53767 3.38776 -5.13552e-19)
(-1.53401 3.37684 -5.09176e-19)
(-1.53026 3.36598 -1.12122e-20)
(-1.52644 3.35521 4.94662e-19)
(-1.52256 3.34455 7.90529e-21)
(-1.51864 3.33402 7.85617e-21)
(-1.51469 3.32363 0)
(-1.51071 3.3134 -7.71941e-21)
(-1.50673 3.30333 0)
(-1.50275 3.29346 -7.57303e-21)
(-1.49879 3.28377 4.945e-19)
(-1.49484 3.27428 -9.48386e-19)
(-1.49092 3.26501 4.65218e-19)
(-1.48704 3.25594 4.61267e-19)
(-1.48321 3.2471 -4.56412e-19)
(-1.47942 3.23848 3.50876e-21)
(-1.47569 3.23008 -3.49934e-21)
(-1.62022 3.53571 2.24841e-19)
(-1.61965 3.52733 0)
(-1.6187 3.51842 -2.37072e-19)
(-1.61736 3.50889 2.17588e-19)
(-1.61564 3.49878 -2.87836e-19)
(-1.61357 3.48816 -1.321e-20)
(-1.61119 3.47718 2.73551e-19)
(-1.60855 3.46595 -2.73013e-19)
(-1.60569 3.45461 2.4728e-19)
(-1.60265 3.44325 -3.09511e-19)
(-1.59946 3.43191 2.49254e-19)
(-1.59614 3.42063 -2.41654e-19)
(-1.59268 3.40936 2.84681e-19)
(-1.58907 3.39806 -1.70159e-20)
(-1.58533 3.38674 2.68483e-19)
(-1.58146 3.37543 -2.61652e-19)
(-1.57748 3.36415 8.53349e-21)
(-1.57341 3.35293 0)
(-1.56928 3.3418 0)
(-1.56508 3.33077 0)
(-1.56083 3.31986 0)
(-1.55656 3.3091 5.39739e-19)
(-1.55227 3.2985 -5.18082e-19)
(-1.54797 3.28808 0)
(-1.54368 3.27784 -5.16891e-19)
(-1.53941 3.2678 -1.54873e-20)
(-1.53516 3.25798 5.10125e-19)
(-1.53095 3.24837 3.93564e-21)
(-1.52677 3.23898 -3.87785e-21)
(-1.52265 3.22982 4.92741e-19)
(-1.51859 3.2209 -9.65326e-19)
(-1.51458 3.21221 4.8696e-19)
(-1.66607 3.52615 2.70453e-20)
(-1.66519 3.51774 -2.66352e-19)
(-1.66396 3.50887 2.46441e-19)
(-1.66237 3.49946 -2.58461e-19)
(-1.66041 3.48944 2.70524e-19)
(-1.65809 3.47884 0)
(-1.65544 3.46776 -3.48462e-20)
(-1.65251 3.45636 3.08129e-19)
(-1.64936 3.44477 -6.23659e-21)
(-1.64603 3.43311 -5.59782e-19)
(-1.64254 3.42146 -1.01455e-20)
(-1.63894 3.40985 2.84925e-19)
(-1.6352 3.39827 -1.81899e-20)
(-1.63132 3.38666 2.95826e-19)
(-1.62729 3.37501 -2.88605e-19)