/*--------------------------------*- C++ -*----------------------------------*\
  =========                 |
  \\      /  F ield         | OpenFOAM: The Open Source CFD Toolbox
   \\    /   O peration     | Website:  https://openfoam.org
    \\  /    A nd           | Version:  10
     \\/     M anipulation  |
\*---------------------------------------------------------------------------*/
FoamFile
{
    format      ascii;
    class       volVectorField;
    location    "31000";
    object      U;
}
// * * * * * * * * * * * * * * * * * * * * * * * * * * * * * * * * * * * * * //

dimensions      [0 1 -1 0 0 0 0];

internalField   nonuniform List<vector> 
17981
(
(0.0529263 3.41551 1.13874e-21)
(0.0501878 3.42515 -1.13189e-21)
(0.047511 3.43432 0)
(0.0448911 3.443 -7.10396e-21)
(0.04233 3.45123 1.55845e-20)
(0.0398308 3.459 -8.41412e-21)
(0.0373956 3.46633 0)
(0.0350266 3.47324 7.25579e-22)
(0.0327252 3.47974 0)
(0.0304928 3.48586 0)
(0.0283302 3.4916 -8.85723e-22)
(0.0262379 3.497 1.63481e-20)
(0.0242161 3.50206 -1.47934e-20)
(0.0222648 3.50681 0)
(0.0203833 3.51127 0)
(0.018571 3.51545 0)
(0.016827 3.51937 0)
(0.01515 3.52305 -1.67852e-20)
(0.0135388 3.5265 1.60897e-20)
(0.0119919 3.52973 3.34718e-20)
(0.0105076 3.53277 -3.15887e-20)
(0.00908433 3.53561 -5.06646e-22)
(0.0077202 3.53829 0)
(0.00641343 3.54079 0)
(0.00516214 3.54315 3.20287e-20)
(0.00396443 3.54536 -3.02744e-20)
(0.00281841 3.54744 3.11504e-20)
(0.00172217 3.5494 -2.9937e-20)
(0.000673821 3.55123 -4.65407e-22)
(-0.000328491 3.55296 0)
(-0.00128661 3.55459 2.24916e-22)
(-0.00220234 3.55612 -2.20868e-22)
(-0.00307744 3.55756 -2.16748e-22)
(-0.00391362 3.55891 2.72693e-20)
(-0.00471257 3.56019 -2.62609e-20)
(-0.0054759 3.56139 -2.04135e-22)
(-0.00620519 3.56252 0)
(-0.00690195 3.56358 0)
(-0.00756764 3.56459 1.91435e-22)
(-0.00820369 3.56553 -2.43348e-20)
(-0.00881143 3.56642 -1.23496e-22)
(-0.00939219 3.56725 2.25952e-20)
(-0.0099472 3.56803 8.74141e-23)
(-0.0104777 3.56877 0)
(-0.0109847 3.56946 0)
(-0.0114695 3.57011 0)
(-0.011933 3.57071 0)
(-0.0123763 3.57128 -2.01761e-20)
(-0.0197988 3.42621 -6.58367e-21)
(-0.023016 3.43603 0)
(-0.0261599 3.44536 -2.00364e-20)
(-0.029228 3.45419 4.90649e-20)
(-0.0322179 3.46254 -2.77491e-20)
(-0.0351272 3.47042 4.16744e-20)
(-0.0379539 3.47783 -4.01698e-20)
(-0.0406965 3.4848 7.33088e-22)
(-0.0433538 3.49134 1.63148e-21)
(-0.0459249 3.49748 -5.90849e-20)
(-0.0484096 3.50323 1.17696e-19)
(-0.0508078 3.5086 -6.03362e-20)
(-0.05312 3.51363 0)
(-0.0553469 3.51833 2.03384e-21)
(-0.0574896 3.52272 -6.8579e-20)
(-0.0595494 3.52682 6.56904e-20)
(-0.0615279 3.53065 6.97884e-20)
(-0.0634267 3.53422 -6.6857e-20)
(-0.0652479 3.53755 1.06758e-21)
(-0.0669935 3.54067 0)
(-0.0686657 3.54357 -5.34006e-22)
(-0.0702666 3.54628 6.94826e-20)
(-0.0717986 3.5488 -6.50917e-20)
(-0.073264 3.55116 6.86527e-20)
(-0.0746652 3.55337 -1.31708e-19)
(-0.0760046 3.55542 6.36397e-20)
(-0.0772844 3.55734 -6.49794e-20)
(-0.078507 3.55913 6.24387e-20)
(-0.0796746 3.56081 4.86802e-22)
(-0.0807896 3.56237 0)
(-0.0818541 3.56383 2.34033e-22)
(-0.0828703 3.5652 2.30955e-22)
(-0.0838402 3.56647 -5.82751e-20)
(-0.0847659 3.56766 5.65487e-20)
(-0.0856494 3.56878 -6.52687e-22)
(-0.0864924 3.56982 5.5245e-20)
(-0.087297 3.57079 -5.30326e-20)
(-0.0880647 3.5717 0)
(-0.0887974 3.57255 5.13593e-20)
(-0.0894967 3.57334 -9.95544e-20)
(-0.090164 3.57407 4.8061e-20)
(-0.090801 3.57476 -4.79663e-20)
(-0.091409 3.5754 -8.3896e-22)
(-0.0919894 3.576 4.52342e-20)
(-0.0925436 3.57655 0)
(-0.0930727 3.57706 0)
(-0.0935779 3.57754 1.66008e-22)
(-0.0940605 3.57797 -8.2271e-23)
(-0.0911529 3.4361 0)
(-0.0948708 3.44609 1.15759e-20)
(-0.098495 3.45557 -1.22795e-20)
(-0.102023 3.46453 2.88314e-20)
(-0.105452 3.47299 -2.98241e-20)
(-0.10878 3.48095 -2.38243e-21)
(-0.112005 3.48843 0)
(-0.115126 3.49545 -1.57953e-21)
(-0.118143 3.50201 -5.08962e-21)
(-0.121055 3.50815 0)
(-0.123863 3.51388 1.93552e-21)
(-0.126567 3.51922 3.98321e-21)
(-0.129168 3.5242 0)
(-0.131668 3.52883 -2.15011e-23)
(-0.134068 3.53314 2.15499e-21)
(-0.13637 3.53714 0)
(-0.138578 3.54085 1.45276e-19)
(-0.140692 3.5443 -1.36893e-19)
(-0.142716 3.5475 -1.46867e-19)
(-0.144652 3.55047 1.39631e-19)
(-0.146504 3.55323 -2.21227e-21)
(-0.148273 3.55578 0)
(-0.149964 3.55814 1.08655e-21)
(-0.151578 3.56034 -1.0858e-21)
(-0.153119 3.56237 1.06957e-21)
(-0.154589 3.56425 -1.36298e-19)
(-0.155992 3.56599 1.31919e-19)
(-0.15733 3.56761 -1.02736e-21)
(-0.158606 3.5691 0)
(-0.159822 3.57048 1.27962e-19)
(-0.160982 3.57176 3.12562e-21)
(-0.162087 3.57295 -1.2284e-19)
(-0.163141 3.57404 0)
(-0.164145 3.57506 0)
(-0.165101 3.576 -1.17644e-19)
(-0.166013 3.57686 1.13791e-19)
(-0.166882 3.57766 -4.35135e-22)
(-0.16771 3.5784 0)
(-0.168499 3.57908 4.16882e-22)
(-0.169251 3.57971 -4.08407e-22)
(-0.169967 3.58028 -1.02839e-19)
(-0.17065 3.58081 9.9237e-20)
(-0.171301 3.58129 1.90736e-22)
(-0.171921 3.58174 -1.85902e-22)
(-0.172513 3.58214 -3.63588e-22)
(-0.173076 3.58251 0)
(-0.173614 3.58284 -1.73489e-22)
(-0.174127 3.58314 -8.83561e-20)
(-0.177407 3.48267 -1.86626e-21)
(-0.181161 3.49071 2.51298e-21)
(-0.18479 3.49824 9.94818e-20)
(-0.188295 3.50528 -2.05681e-19)
(-0.191675 3.51185 1.09202e-19)
(-0.19493 3.51797 -3.73239e-21)
(-0.19806 3.52367 1.29216e-19)
(-0.201069 3.52896 -1.31696e-19)
(-0.203957 3.53386 0)
(-0.206726 3.5384 -2.21594e-21)
(-0.209379 3.5426 1.45938e-19)
(-0.211918 3.54649 -1.418e-19)
(-0.214348 3.55007 -1.46373e-19)
(-0.21667 3.55338 -1.16067e-20)
(-0.218889 3.55643 1.45014e-19)
(-0.221007 3.55924 -1.51125e-19)
(-0.223029 3.56182 1.44795e-19)
(-0.224957 3.5642 0)
(-0.226796 3.56639 1.45767e-19)
(-0.228548 3.5684 -2.88521e-19)
(-0.230218 3.57024 1.37252e-19)
(-0.231808 3.57193 1.41821e-19)
(-0.233323 3.57348 -1.35087e-19)
(-0.234765 3.5749 -1.06582e-21)
(-0.236137 3.5762 -1.36565e-19)
(-0.237444 3.57739 -8.91471e-22)
(-0.238687 3.57847 -4.80847e-21)
(-0.239869 3.57946 1.28924e-19)
(-0.240995 3.58036 1.27066e-19)
(-0.242065 3.58118 -2.46942e-19)
(-0.243084 3.58193 1.20954e-19)
(-0.244053 3.58261 -1.19628e-19)
(-0.244974 3.58322 1.15742e-19)
(-0.245851 3.58378 -1.14646e-19)
(-0.246685 3.58428 -2.92142e-21)
(-0.247479 3.58473 1.08191e-19)
(-0.248234 3.58513 1.24836e-21)
(-0.248952 3.58549 -1.0443e-19)
(-0.249635 3.5858 1.00797e-19)
(-0.250286 3.58608 3.88848e-22)
(-0.250905 3.58633 3.79835e-22)
(-0.251494 3.58654 9.50518e-20)
(-0.252054 3.58672 -9.21873e-20)
(-0.252588 3.58687 0)
(-0.24815 3.49167 -5.11277e-20)
(-0.252337 3.49976 -4.90572e-21)
(-0.256378 3.50732 0)
(-0.260271 3.51436 1.13189e-19)
(-0.264017 3.52092 -1.08549e-19)
(-0.267617 3.52701 7.76775e-21)
(-0.271072 3.53265 8.21947e-21)
(-0.274385 3.53786 0)
(-0.277557 3.54267 0)
(-0.280592 3.5471 -4.54129e-21)
(-0.283493 3.55118 0)
(-0.286265 3.55492 0)
(-0.288909 3.55836 -4.78922e-21)
(-0.291432 3.5615 2.40718e-21)
(-0.293837 3.56438 -1.57259e-19)
(-0.296128 3.56701 1.50561e-19)
(-0.298309 3.5694 -1.53773e-19)
(-0.300385 3.57159 1.49644e-19)
(-0.302361 3.57357 2.35772e-21)
(-0.304239 3.57538 0)
(-0.306025 3.57701 -1.50488e-19)
(-0.307723 3.57849 -6.40123e-21)
(-0.309337 3.57983 -6.09915e-21)
(-0.310869 3.58104 1.42989e-19)
(-0.312325 3.58213 -1.42057e-19)
(-0.313708 3.5831 -4.1932e-21)
(-0.315021 3.58398 1.37553e-19)
(-0.316268 3.58475 -1.35846e-19)
(-0.317452 3.58545 1.29756e-19)
(-0.318576 3.58606 0)
(-0.319644 3.58661 1.27191e-19)
(-0.320657 3.58708 -1.24483e-19)
(-0.321619 3.5875 0)
(-0.322532 3.58786 9.25605e-22)
(-0.323399 3.58816 9.07512e-22)
(-0.324222 3.58842 8.86701e-22)
(-0.325003 3.58864 1.10977e-19)
(-0.325745 3.58882 -2.18556e-19)
(-0.32645 3.58895 1.06795e-19)
(-0.327119 3.58906 0)
(-0.327754 3.58913 0)
(-0.328357 3.58918 9.99712e-20)
(-0.32893 3.5892 -9.6217e-20)
(-0.329474 3.58919 0)
(-0.317724 3.50008 -5.45114e-20)
(-0.322356 3.50819 -8.51432e-20)
(-0.326816 3.51576 1.90899e-19)
(-0.331105 3.5228 -9.98997e-20)
(-0.335222 3.52932 -1.26346e-19)
(-0.33917 3.53535 1.16893e-19)
(-0.342951 3.54091 -4.27193e-21)
(-0.346567 3.54602 0)
(-0.350021 3.55071 -1.52648e-19)
(-0.353319 3.55501 3.06923e-19)
(-0.356463 3.55893 9.66116e-21)
(-0.359459 3.56251 -1.52012e-19)
(-0.362311 3.56577 -4.91917e-21)
(-0.365025 3.56873 -1.62875e-19)
(-0.367606 3.57141 1.55834e-19)
(-0.370058 3.57384 -1.62681e-19)
(-0.372388 3.57602 -6.18814e-21)
(-0.374599 3.57799 1.55179e-19)
(-0.376699 3.57976 -7.35024e-21)
(-0.37869 3.58134 0)
(-0.380579 3.58274 9.74379e-24)
(-0.38237 3.584 2.38186e-21)
(-0.384068 3.58511 1.52216e-19)
(-0.385677 3.58608 3.75118e-21)
(-0.387202 3.58694 -2.91837e-19)
(-0.388647 3.58769 1.39752e-19)
(-0.390016 3.58833 -4.4142e-21)
(-0.391313 3.58888 0)
(-0.392541 3.58935 -2.75333e-19)
(-0.393704 3.58975 2.65149e-19)
(-0.394806 3.59007 0)
(-0.395849 3.59033 1.00642e-21)
(-0.396837 3.59054 2.54281e-19)
(-0.397773 3.59069 -2.46153e-19)
(-0.39866 3.59079 0)
(-0.399499 3.59085 -9.25629e-22)
(-0.400294 3.59087 9.04392e-22)
(-0.401047 3.59085 8.85697e-22)
(-0.40176 3.5908 -2.23791e-19)
(-0.402436 3.59072 2.15279e-19)
(-0.403075 3.59062 -8.2624e-22)
(-0.403682 3.59049 -2.08681e-19)
(-0.404256 3.59033 2.00869e-19)
(-0.4048 3.59016 0)
(-0.391291 3.51611 -4.97718e-21)
(-0.396183 3.52366 -5.9492e-21)
(-0.400876 3.53066 0)
(-0.405373 3.53712 -7.51602e-21)
(-0.409673 3.54306 -8.12986e-21)
(-0.413781 3.54851 0)
(-0.417699 3.55349 -1.5258e-19)
(-0.421433 3.55804 1.45723e-19)
(-0.424988 3.56217 0)
(-0.428368 3.56592 -3.2868e-19)
(-0.43158 3.56931 3.19056e-19)
(-0.43463 3.57236 5.12829e-21)
(-0.437524 3.57511 0)
(-0.440268 3.57757 0)
(-0.442869 3.57976 -5.1395e-21)
(-0.445332 3.58171 0)
(-0.447665 3.58344 3.33578e-19)
(-0.449873 3.58496 -6.50659e-19)
(-0.451962 3.58629 6.45199e-19)
(-0.453937 3.58745 -3.12034e-19)
(-0.455805 3.58845 0)
(-0.457572 3.58931 3.13649e-19)
(-0.459241 3.59004 -3.0371e-19)
(-0.460818 3.59065 0)
(-0.462308 3.59115 3.04281e-19)
(-0.463716 3.59155 -5.85095e-19)
(-0.465046 3.59186 2.83497e-19)
(-0.466302 3.59209 -2.86451e-19)
(-0.467488 3.59225 2.73731e-19)
(-0.468608 3.59234 -2.75728e-19)
(-0.469666 3.59237 2.65754e-19)
(-0.470665 3.59235 0)
(-0.471608 3.59228 2.57426e-19)
(-0.472499 3.59216 -2.50272e-19)
(-0.47334 3.59201 0)
(-0.474134 3.59182 -2.44161e-19)
(-0.474884 3.5916 2.3573e-19)
(-0.475592 3.59136 -9.02394e-22)
(-0.47626 3.59108 -2.27333e-19)
(-0.476892 3.59079 4.41765e-19)
(-0.477488 3.59048 -2.13807e-19)
(-0.478051 3.59014 2.12785e-19)
(-0.478582 3.5898 2.11591e-21)
(-0.469693 3.53804 -6.9112e-21)
(-0.474572 3.5444 1.898e-22)
(-0.479226 3.55022 8.5017e-21)
(-0.48366 3.55553 0)
(-0.487877 3.56035 -3.23419e-19)
(-0.491883 3.56472 6.14698e-19)
(-0.495686 3.56865 2.30258e-20)
(-0.499291 3.57219 2.13351e-20)
(-0.502707 3.57535 -3.39503e-19)
(-0.505941 3.57817 -5.25121e-21)
(-0.509 3.58067 0)
(-0.511891 3.58287 -3.48976e-19)
(-0.514624 3.58481 -9.30211e-21)
(-0.517204 3.5865 3.39063e-19)
(-0.51964 3.58796 0)
(-0.521938 3.58921 2.51576e-23)
(-0.524106 3.59027 5.21191e-21)
(-0.52615 3.59116 -5.16344e-21)
(-0.528077 3.59189 0)
(-0.529892 3.59247 3.25512e-19)
(-0.531602 3.59293 -3.15244e-19)
(-0.533213 3.59327 0)
(-0.53473 3.59351 2.41986e-21)
(-0.536159 3.59364 3.08618e-19)
(-0.537503 3.5937 -2.9241e-19)
(-0.538769 3.59367 0)
(-0.53996 3.59358 2.92557e-19)
(-0.541082 3.59342 -2.81941e-19)
(-0.542137 3.59321 2.17874e-21)
(-0.543129 3.59295 0)
(-0.544063 3.59265 2.09748e-21)
(-0.544942 3.59231 0)
(-0.545768 3.59193 -2.59231e-19)
(-0.546546 3.59152 5.03955e-19)
(-0.547277 3.59109 -4.9317e-19)
(-0.547965 3.59064 2.41601e-19)
(-0.548612 3.59016 0)
(-0.549221 3.58967 9.01371e-22)
(-0.549793 3.58917 -2.2667e-19)
(-0.550331 3.58865 4.3968e-19)
(-0.550837 3.58812 -2.172e-19)
(-0.54296 3.55123 -2.63429e-19)
(-0.547961 3.55689 2.50473e-19)
(-0.55271 3.56201 0)
(-0.557212 3.56663 9.71975e-21)
(-0.561477 3.57077 1.36709e-22)
(-0.565512 3.57447 0)
(-0.569325 3.57775 0)
(-0.572926 3.58065 2.14995e-20)
(-0.576323 3.5832 5.46224e-21)
(-0.579527 3.58542 5.46022e-21)
(-0.582545 3.58734 0)
(-0.585388 3.58899 -3.60347e-19)
(-0.588064 3.59038 3.39507e-19)
(-0.590581 3.59155 3.5747e-19)
(-0.592948 3.5925 -3.37222e-19)
(-0.595173 3.59327 -5.42211e-21)
(-0.597263 3.59386 5.37266e-21)
(-0.599226 3.59429 0)
(-0.60107 3.59459 5.25451e-21)
(-0.6028 3.59475 3.35808e-19)
(-0.604424 3.5948 -3.22951e-19)
(-0.605948 3.59475 -3.3104e-19)
(-0.607377 3.59461 3.16274e-19)
(-0.608716 3.59439 -4.87844e-21)
(-0.609972 3.59409 0)
(-0.61115 3.59373 4.71338e-21)
(-0.612253 3.59331 3.01224e-19)
(-0.613287 3.59285 -2.90515e-19)
(-0.614255 3.59234 2.87567e-19)
(-0.615162 3.59179 -5.59326e-19)
(-0.616012 3.59121 2.72035e-19)
(-0.616807 3.5906 -2.70442e-19)
(-0.617551 3.58996 2.61147e-19)
(-0.618248 3.58931 -1.00606e-21)
(-0.618901 3.58864 -9.91289e-25)
(-0.619511 3.58795 9.6211e-22)
(-0.620082 3.58725 0)
(-0.620616 3.58655 -9.19923e-22)
(-0.621115 3.58584 0)
(-0.621581 3.58512 8.91385e-22)
(-0.621042 3.56793 0)
(-0.625807 3.5723 9.80574e-21)
(-0.630306 3.57618 1.03626e-20)
(-0.634548 3.5796 0)
(-0.638544 3.58259 -3.59693e-19)
(-0.642305 3.58519 3.32204e-19)
(-0.645841 3.58744 -1.11624e-20)
(-0.649164 3.58934 -5.6747e-21)
(-0.652284 3.59095 -3.72238e-19)
(-0.655212 3.59227 -1.60788e-20)
(-0.657958 3.59335 3.62178e-19)
(-0.660532 3.59419 0)
(-0.662943 3.59482 -3.67491e-19)
(-0.6652 3.59527 -1.20148e-20)
(-0.667314 3.59554 7.16753e-19)
(-0.669291 3.59566 -3.46945e-19)
(-0.67114 3.59564 -3.53162e-19)
(-0.672867 3.5955 6.82856e-19)
(-0.674482 3.59525 -3.40697e-19)
(-0.675989 3.59489 -2.60623e-21)
(-0.677397 3.59445 -2.58065e-21)
(-0.678711 3.59394 -3.2316e-19)
(-0.679936 3.59336 -6.43224e-21)
(-0.681079 3.59271 3.08645e-19)
(-0.682145 3.59202 -2.41312e-21)
(-0.683139 3.59128 0)
(-0.684064 3.59051 -2.32174e-21)
(-0.684927 3.5897 0)
(-0.685729 3.58887 0)
(-0.686476 3.58802 0)
(-0.687172 3.58714 2.14422e-21)
(-0.687818 3.58626 0)
(-0.688419 3.58536 -1.02875e-21)
(-0.688978 3.58445 -8.65405e-25)
(-0.689497 3.58355 -9.83951e-22)
(-0.689978 3.58263 2.49729e-19)
(-0.690425 3.58172 -2.39635e-19)
(-0.69084 3.58081 2.40129e-19)
(-0.706995 3.58668 3.69941e-19)
(-0.710886 3.58895 -3.41722e-19)
(-0.714531 3.59085 1.15953e-20)
(-0.717944 3.59242 0)
(-0.721136 3.59367 -3.84207e-19)
(-0.72412 3.59465 3.67727e-19)
(-0.726908 3.59538 -3.29555e-23)
(-0.729511 3.59587 5.84915e-21)
(-0.731939 3.59616 0)
(-0.734202 3.59626 -5.79119e-21)
(-0.73631 3.59619 -5.77005e-21)
(-0.738274 3.59598 -3.70696e-19)
(-0.740102 3.59562 3.56389e-19)
(-0.741802 3.59515 5.59206e-21)
(-0.743382 3.59457 1.4805e-23)
(-0.74485 3.59391 3.57778e-19)
(-0.746214 3.59315 -3.39376e-19)
(-0.74748 3.59233 -2.64416e-21)
(-0.748654 3.59145 -2.59738e-21)
(-0.749742 3.59052 0)
(-0.750751 3.58954 3.24697e-19)
(-0.751685 3.58852 -3.13317e-19)
(-0.752549 3.58747 3.1294e-19)
(-0.753349 3.5864 -3.04518e-19)
(-0.754087 3.58531 -3.01012e-19)
(-0.75477 3.5842 2.93058e-19)
(-0.755399 3.58308 -2.24372e-21)
(-0.75598 3.58196 -2.80872e-19)
(-0.756515 3.58083 2.71463e-19)
(-0.757007 3.5797 -2.70148e-19)
(-0.75746 3.57857 2.64298e-19)
(-0.757876 3.57744 2.58481e-19)
(-0.758258 3.57632 -2.51983e-19)
(-0.758607 3.57521 -9.78054e-22)
(-0.774667 3.58996 0)
(-0.778651 3.59187 -1.12726e-22)
(-0.78237 3.5934 3.91477e-19)
(-0.785838 3.59459 -3.86153e-19)
(-0.789069 3.59548 0)
(-0.792076 3.59609 -1.21018e-20)
(-0.794874 3.59644 6.02463e-21)
(-0.797473 3.59656 3.95827e-19)
(-0.799887 3.59648 1.4176e-20)
(-0.802128 3.59622 -3.72228e-19)
(-0.804205 3.5958 -3.8239e-19)
(-0.806129 3.59522 3.7331e-19)
(-0.807911 3.59452 3.80749e-19)
(-0.809559 3.59371 -3.60606e-19)
(-0.811081 3.5928 3.77404e-19)
(-0.812488 3.5918 -3.6365e-19)
(-0.813785 3.59072 -5.57864e-21)
(-0.814981 3.58959 3.5605e-19)
(-0.816082 3.58839 -6.85705e-19)
(-0.817095 3.58716 -9.30219e-21)
(-0.818026 3.58588 3.32683e-19)
(-0.818881 3.58458 -3.32956e-19)
(-0.819665 3.58325 3.24037e-19)
(-0.820383 3.5819 -3.18393e-19)
(-0.821041 3.58054 6.24779e-19)
(-0.821641 3.57918 -3.04177e-19)
(-0.822188 3.57781 0)
(-0.822687 3.57644 -2.3011e-21)
(-0.82314 3.57507 2.25414e-21)
(-0.823552 3.57371 -4.41315e-21)
(-0.823924 3.57236 -2.79182e-19)
(-0.824261 3.57102 2.71144e-19)
(-0.824564 3.56969 2.06782e-21)
(-0.824836 3.56837 0)
(-0.841563 3.59239 -3.63858e-19)
(-0.845605 3.5939 3.859e-19)
(-0.849362 3.59503 -7.95691e-19)
(-0.852851 3.59583 3.98026e-19)
(-0.856087 3.59632 -1.24409e-20)
(-0.859085 3.59653 -3.9797e-19)
(-0.86186 3.5965 3.80881e-19)
(-0.864427 3.59624 4.03561e-19)
(-0.866798 3.59577 -3.99653e-19)
(-0.868985 3.59513 3.99762e-19)
(-0.871002 3.59433 -3.96418e-19)
(-0.872858 3.5934 0)
(-0.874565 3.59233 -6.08839e-21)
(-0.876133 3.59116 3.85517e-19)
(-0.877571 3.5899 -7.64115e-19)
(-0.878889 3.58856 3.72905e-19)
(-0.880094 3.58715 1.18725e-23)
(-0.881196 3.58569 0)
(-0.882201 3.58418 -1.13158e-20)
(-0.883116 3.58263 3.62845e-19)
(-0.883947 3.58105 -7.01771e-19)
(-0.884702 3.57945 3.42017e-19)
(-0.885386 3.57784 0)
(-0.886003 3.57621 0)
(-0.88656 3.57458 -3.29621e-19)
(-0.88706 3.57295 6.39478e-19)
(-0.887508 3.57133 -3.12637e-19)
(-0.887908 3.56971 3.10761e-19)
(-0.888263 3.5681 -3.00572e-19)
(-0.888578 3.56651 1.34636e-24)
(-0.888855 3.56493 -2.91921e-19)
(-0.889098 3.56337 2.8026e-19)
(-0.889308 3.56183 -1.0862e-21)
(-0.889489 3.56031 -2.77349e-19)
(-0.907634 3.59391 1.20482e-20)
(-0.911695 3.595 0)
(-0.915452 3.59572 1.26653e-20)
(-0.918924 3.5961 0)
(-0.922129 3.59617 4.35887e-19)
(-0.925083 3.59597 -4.18139e-19)
(-0.927803 3.59553 0)
(-0.930303 3.59486 1.29807e-20)
(-0.932597 3.594 4.3e-19)
(-0.9347 3.59297 -4.00494e-19)
(-0.936625 3.59178 -6.42835e-21)
(-0.938383 3.59046 6.38681e-21)
(-0.939988 3.58903 4.1837e-19)
(-0.941448 3.58749 -8.04781e-19)
(-0.942775 3.58588 3.93107e-19)
(-0.943979 3.58419 4.1085e-19)
(-0.945068 3.58244 -3.78345e-19)
(-0.946051 3.58064 -3.88021e-19)
(-0.946937 3.5788 7.68792e-19)
(-0.947732 3.57694 -3.69258e-19)
(-0.948443 3.57505 0)
(-0.949077 3.57316 0)
(-0.949641 3.57125 0)
(-0.950139 3.56934 0)
(-0.950576 3.56744 2.67903e-21)
(-0.950959 3.56554 0)
(-0.951291 3.56366 -2.58123e-21)
(-0.951576 3.56179 3.28892e-19)
(-0.951819 3.55995 -3.15766e-19)
(-0.952023 3.55812 1.18884e-24)
(-0.952191 3.55632 -3.06925e-19)
(-0.952326 3.55454 2.97085e-19)
(-0.952432 3.55279 2.28466e-21)
(-0.95251 3.55106 0)
(-0.976844 3.59514 3.94574e-19)
(-0.980563 3.59542 -4.28816e-19)
(-0.983982 3.59537 8.44118e-19)
(-0.98712 3.59501 -4.022e-19)
(-0.989995 3.59439 1.3459e-20)
(-0.992625 3.59352 0)
(-0.995025 3.59243 -6.24763e-23)
(-0.997212 3.59116 -1.34616e-20)
(-0.999201 3.58972 4.38213e-19)
(-1.001 3.58814 -4.08249e-19)
(-1.00264 3.58643 -2.00351e-23)
(-1.00411 3.58462 6.60529e-21)
(-1.00544 3.58271 0)
(-1.00663 3.58073 4.2118e-19)
(-1.00769 3.57868 -4.1275e-19)
(-1.00864 3.57659 4.11371e-19)
(-1.00948 3.57445 -8.03176e-19)
(-1.01023 3.57229 3.85926e-19)
(-1.01088 3.5701 6.10112e-21)
(-1.01145 3.56791 0)
(-1.01195 3.56571 0)
(-1.01237 3.56351 -3.76121e-19)
(-1.01273 3.56132 3.63726e-19)
(-1.01303 3.55914 -2.81679e-21)
(-1.01328 3.55698 0)
(-1.01348 3.55484 2.71604e-21)
(-1.01364 3.55273 -2.66505e-21)
(-1.01375 3.55064 0)
(-1.01383 3.54858 3.29959e-19)
(-1.01388 3.54655 -6.40191e-19)
(-1.0139 3.54456 3.12991e-19)
(-1.01388 3.5426 3.07523e-19)
(-1.01385 3.54067 -3.02108e-19)
(-1.04095 3.5943 4.22115e-19)
(-1.0446 3.59413 -4.16131e-19)
(-1.04793 3.59363 1.35852e-20)
(-1.05097 3.59284 4.52831e-19)
(-1.05373 3.59177 -4.20505e-19)
(-1.05624 3.59047 -1.39482e-20)
(-1.05851 3.58895 4.4389e-19)
(-1.06056 3.58726 3.13113e-20)
(-1.0624 3.58541 -4.40232e-19)
(-1.06406 3.58342 -2.09356e-20)
(-1.06553 3.58131 -1.38978e-20)
(-1.06685 3.57911 -4.55405e-19)
(-1.06802 3.57682 8.77275e-19)
(-1.06905 3.57447 -8.69655e-19)
(-1.06995 3.57206 4.18513e-19)
(-1.07073 3.56962 -4.30933e-19)
(-1.07141 3.56715 4.16271e-19)
(-1.072 3.56465 6.49062e-21)
(-1.07249 3.56215 -4.14203e-19)
(-1.0729 3.55964 4.00455e-19)
(-1.07324 3.55714 6.22075e-21)
(-1.07351 3.55465 0)
(-1.07371 3.55218 0)
(-1.07386 3.54973 -3.82309e-19)
(-1.07397 3.54731 3.69998e-19)
(-1.07402 3.54491 3.65893e-19)
(-1.07403 3.54255 -3.5698e-19)
(-1.07401 3.54023 0)
(-1.07395 3.53794 5.40461e-21)
(-1.07387 3.53569 -3.41105e-19)
(-1.07375 3.53348 3.32953e-19)
(-1.07362 3.53132 3.27245e-19)
(-1.07346 3.52919 -3.24114e-19)
(-1.10388 3.59248 4.32738e-19)
(-1.10742 3.59187 0)
(-1.11064 3.59092 -1.41667e-20)
(-1.11355 3.58967 -8.97458e-23)
(-1.11617 3.58815 -1.44806e-20)
(-1.11853 3.58641 4.90178e-19)
(-1.12064 3.58445 -9.33942e-19)
(-1.12253 3.58233 4.73243e-19)
(-1.1242 3.58005 0)
(-1.12568 3.57764 4.74519e-19)
(-1.12698 3.57513 -4.35616e-19)
(-1.12812 3.57253 0)
(-1.1291 3.56987 4.72893e-19)
(-1.12995 3.56714 -9.11325e-19)
(-1.13067 3.56437 9.102e-19)
(-1.13127 3.56158 1.05711e-20)
(-1.13177 3.55877 -8.84254e-19)
(-1.13217 3.55594 4.32225e-19)
(-1.13249 3.55312 -7.06625e-24)
(-1.13272 3.55031 4.29542e-19)
(-1.13289 3.54751 -4.28696e-19)
(-1.13298 3.54473 0)
(-1.13303 3.54198 0)
(-1.13301 3.53926 -4.06344e-19)
(-1.13295 3.53658 -5.90558e-21)
(-1.13285 3.53393 3.8675e-19)
(-1.13271 3.53133 0)
(-1.13254 3.52877 0)
(-1.13234 3.52626 -2.85621e-21)
(-1.13211 3.5238 -2.80087e-21)
(-1.13186 3.52138 -5.4904e-21)
(-1.13158 3.51902 3.4887e-19)
(-1.13129 3.5167 -6.86841e-19)
(-1.16888 3.58868 4.45004e-19)
(-1.17195 3.58729 4.82305e-19)
(-1.17471 3.58558 -4.77592e-19)
(-1.17718 3.58361 -4.77625e-19)
(-1.17937 3.58141 4.58359e-19)
(-1.18131 3.57901 0)
(-1.18301 3.57644 -1.52922e-20)
(-1.18449 3.57373 4.97754e-19)
(-1.18578 3.5709 3.20214e-20)
(-1.18688 3.56798 -9.88916e-19)
(-1.18781 3.56498 4.69842e-19)
(-1.1886 3.56192 4.8121e-19)
(-1.18925 3.55882 -4.7214e-19)
(-1.18977 3.55569 0)
(-1.19017 3.55254 -4.75797e-19)
(-1.19048 3.54938 9.30721e-19)
(-1.19069 3.54622 -4.62417e-19)
(-1.19081 3.54308 -7.10624e-21)
(-1.19086 3.53996 0)
(-1.19084 3.53687 6.91755e-21)
(-1.19075 3.5338 0)
(-1.19062 3.53078 0)
(-1.19043 3.5278 -4.22837e-19)
(-1.1902 3.52486 4.15984e-19)
(-1.18994 3.52197 0)
(-1.18963 3.51913 0)
(-1.1893 3.51635 -3.08106e-21)
(-1.18895 3.51362 -3.92535e-19)
(-1.18857 3.51095 3.77417e-19)
(-1.18818 3.50833 1.82182e-25)
(-1.18776 3.50578 -3.69754e-19)
(-1.18734 3.50328 3.63553e-19)
(-1.22886 3.58461 4.93602e-19)
(-1.23178 3.58281 -4.59123e-19)
(-1.23438 3.58068 4.96118e-19)
(-1.23668 3.57827 -5.24063e-19)
(-1.23869 3.57561 -5.0619e-19)
(-1.24044 3.57274 4.86768e-19)
(-1.24194 3.5697 0)
(-1.24323 3.56653 0)
(-1.24431 3.56325 -5.24076e-19)
(-1.24521 3.5599 5.04875e-19)
(-1.24594 3.5565 2.39166e-20)
(-1.24653 3.55305 7.91706e-21)
(-1.24697 3.54958 7.86496e-21)
(-1.24728 3.54609 -5.06375e-19)
(-1.24748 3.54258 -1.1898e-20)
(-1.24758 3.53908 4.85418e-19)
(-1.24758 3.5356 4.91022e-19)
(-1.24749 3.53214 -4.75323e-19)
(-1.24734 3.52871 0)
(-1.24712 3.52532 0)
(-1.24684 3.52197 -4.65562e-19)
(-1.24651 3.51867 4.58084e-19)
(-1.24614 3.51543 4.51346e-19)
(-1.24572 3.51224 -8.84722e-19)
(-1.24528 3.50912 4.30198e-19)
(-1.24481 3.50605 -4.28828e-19)
(-1.24431 3.50304 8.39944e-19)
(-1.2438 3.5001 -4.04899e-19)
(-1.24326 3.49723 0)
(-1.24272 3.49442 4.00621e-19)
(-1.24216 3.49168 -7.74924e-19)
(-1.24159 3.489 3.80109e-19)
(-1.28754 3.57964 -4.90824e-19)
(-1.2903 3.57745 -1.63223e-20)
(-1.29273 3.57492 1.66457e-20)
(-1.29484 3.5721 5.53295e-19)
(-1.29666 3.56902 -5.16092e-19)
(-1.29821 3.56572 3.43999e-20)
(-1.29952 3.56225 -5.64116e-19)
(-1.30059 3.55864 -2.07697e-20)
(-1.30146 3.55492 5.26476e-19)
(-1.30214 3.55112 1.72211e-20)
(-1.30264 3.54728 -1.71776e-20)
(-1.303 3.5434 -8.53273e-21)
(-1.30321 3.53951 -8.46645e-21)
(-1.30329 3.53561 -8.3787e-21)
(-1.30326 3.53172 0)
(-1.30313 3.52786 0)
(-1.3029 3.52402 -8.11332e-21)
(-1.3026 3.52022 0)
(-1.30222 3.51647 -5.18706e-19)
(-1.30179 3.51278 -1.70037e-20)
(-1.3013 3.50916 9.73977e-19)
(-1.30077 3.5056 -9.73643e-19)
(-1.3002 3.50212 4.71588e-19)
(-1.2996 3.4987 -7.30882e-21)
(-1.29896 3.49535 -3.59521e-21)
(-1.2983 3.49206 0)
(-1.29763 3.48885 4.47535e-19)
(-1.29693 3.48571 -8.73112e-19)
(-1.29623 3.48265 4.25838e-19)
(-1.29552 3.47966 0)
(-1.2948 3.47675 4.17796e-19)
(-1.29407 3.4739 -4.0551e-19)
(-1.34497 3.57377 -5.55951e-19)
(-1.34754 3.57124 1.08854e-18)
(-1.34977 3.56834 -5.49571e-19)
(-1.35167 3.56512 1.80325e-20)
(-1.35327 3.56163 -6.15421e-19)
(-1.35459 3.55791 -2.59025e-20)
(-1.35566 3.554 1.20288e-18)
(-1.35649 3.54995 -6.00917e-19)
(-1.35711 3.5458 6.03944e-19)
(-1.35753 3.54158 -6.00576e-19)
(-1.35779 3.53731 0)
(-1.35789 3.53302 0)
(-1.35785 3.52872 -9.07297e-21)
(-1.35768 3.52443 5.92496e-19)
(-1.3574 3.52016 -5.63447e-19)
(-1.35702 3.51592 -8.81052e-21)
(-1.35656 3.51172 -5.6354e-19)
(-1.35602 3.50758 5.44642e-19)
(-1.35541 3.5035 -5.31104e-19)
(-1.35474 3.49949 5.38191e-19)
(-1.35403 3.49556 5.39379e-19)
(-1.35327 3.49171 8.71711e-21)
(-1.35248 3.48794 -5.05119e-19)
(-1.35167 3.48426 7.82048e-21)
(-1.35083 3.48067 -4.91336e-19)
(-1.34997 3.47716 4.75654e-19)
(-1.3491 3.47374 -3.70299e-21)
(-1.34822 3.47041 0)
(-1.34733 3.46716 -4.59743e-19)
(-1.34644 3.46399 -5.23497e-21)
(-1.34554 3.46088 -8.38249e-21)
(-1.34462 3.45784 4.38423e-19)
(-1.40073 3.56704 6.03628e-19)
(-1.40309 3.56421 -5.47716e-19)
(-1.40509 3.56099 1.86751e-20)
(-1.40676 3.55741 1.90639e-20)
(-1.40812 3.55354 1.93693e-20)
(-1.40919 3.54941 6.22368e-19)
(-1.41 3.54509 -1.28506e-18)
(-1.41056 3.54062 6.42601e-19)
(-1.41092 3.53604 1.98759e-20)
(-1.41107 3.53139 0)
(-1.41106 3.5267 -6.6085e-19)
(-1.41089 3.52199 -1.83943e-20)
(-1.41058 3.51729 6.24135e-19)
(-1.41015 3.5126 0)
(-1.40961 3.50794 -6.18947e-19)
(-1.40897 3.50333 6.07128e-19)
(-1.40825 3.49878 1.86639e-20)
(-1.40746 3.49429 5.9537e-19)
(-1.40661 3.48989 2.35309e-21)
(-1.4057 3.48556 -5.57863e-19)
(-1.40476 3.48132 0)
(-1.40377 3.47718 -5.58571e-19)
(-1.40277 3.47314 -8.76509e-21)
(-1.40173 3.4692 5.39269e-19)
(-1.40069 3.46535 -5.21135e-19)
(-1.39963 3.46161 5.16434e-19)
(-1.39856 3.45796 3.95845e-21)
(-1.39748 3.45441 0)
(-1.3964 3.45095 0)
(-1.39532 3.44758 3.75167e-21)
(-1.39422 3.44427 3.69189e-21)
(-1.39312 3.44103 0)
(-1.45449 3.55953 6.33753e-19)
(-1.45662 3.55647 -5.76672e-19)
(-1.4584 3.55297 6.31466e-19)
(-1.45984 3.54909 -6.51235e-19)
(-1.46095 3.54488 -8.45607e-23)
(-1.46177 3.54038 0)
(-1.46231 3.53567 0)
(-1.46261 3.5308 6.91463e-19)
(-1.4627 3.52581 -1.38e-18)
(-1.46258 3.52074 6.67128e-19)
(-1.46229 3.51564 2.11503e-20)
(-1.46185 3.51052 0)
(-1.46128 3.50542 -6.76816e-19)
(-1.46058 3.50034 -1.72902e-20)
(-1.45977 3.4953 1.30955e-18)
(-1.45888 3.49032 -6.49886e-19)
(-1.4579 3.48541 6.46312e-19)
(-1.45686 3.48058 -6.14315e-19)
(-1.45577 3.47583 0)
(-1.45462 3.47119 -1.91377e-20)
(-1.45344 3.46664 9.41464e-21)
(-1.45223 3.4622 5.97786e-19)
(-1.451 3.45788 -5.6882e-19)
(-1.44975 3.45366 -8.94559e-21)
(-1.44849 3.44956 -1.75672e-20)
(-1.44722 3.44557 -5.5583e-19)
(-1.44595 3.44169 5.38318e-19)
(-1.44468 3.43791 5.35645e-19)
(-1.44341 3.43423 1.04942e-20)
(-1.44213 3.43064 -5.15326e-19)
(-1.44085 3.42713 -5.17235e-19)
(-1.43956 3.42368 -5.45979e-21)
(-1.50614 3.55134 -3.61555e-19)
(-1.50807 3.5481 2.928e-19)
(-1.50963 3.54439 3.43671e-19)
(-1.51084 3.54026 -3.33843e-19)
(-1.51172 3.53575 6.96062e-19)
(-1.5123 3.53093 -6.96194e-19)
(-1.51259 3.52586 0)
(-1.51263 3.5206 2.26324e-20)
(-1.51245 3.51522 7.40415e-19)
(-1.51207 3.50975 -7.14555e-19)
(-1.51151 3.50425 0)
(-1.5108 3.49873 2.24969e-20)
(-1.50996 3.49323 2.23296e-20)
(-1.509 3.48776 0)
(-1.50793 3.48235 0)
(-1.50678 3.477 1.08405e-20)
(-1.50555 3.47173 -2.14003e-20)
(-1.50426 3.46656 6.72136e-19)
(-1.50292 3.46148 -6.48941e-19)
(-1.50154 3.45651 6.68661e-24)
(-1.50013 3.45166 -2.01713e-20)
(-1.49869 3.44692 0)
(-1.49724 3.44231 6.19216e-19)
(-1.49577 3.43782 -6.08191e-19)
(-1.4943 3.43345 9.40707e-21)
(-1.49283 3.42921 -4.617e-21)
(-1.49136 3.42508 0)
(-1.48989 3.42107 -4.45364e-21)
(-1.48842 3.41716 -8.60263e-25)
(-1.48695 3.41335 -5.50279e-19)
(-1.48549 3.40961 5.40131e-19)
(-1.48401 3.40595 0)
(-1.55569 3.54252 -4.06038e-20)
(-1.55742 3.53918 3.50471e-19)
(-1.55878 3.53533 -3.63424e-19)
(-1.55979 3.531 3.9508e-19)
(-1.56046 3.52626 -3.39433e-19)
(-1.56081 3.52116 -3.87757e-19)
(-1.56087 3.51577 3.76279e-19)
(-1.56067 3.51016 -4.43867e-19)
(-1.56024 3.5044 4.30994e-19)
(-1.5596 3.49855 2.4318e-20)
(-1.55878 3.49265 2.4243e-20)
(-1.55781 3.48675 -4.82657e-20)
(-1.55671 3.48086 -2.3974e-20)
(-1.55549 3.47501 -7.69824e-19)
(-1.55417 3.46922 1.51577e-18)
(-1.55276 3.46351 -7.4629e-19)
(-1.55129 3.45789 -7.30832e-19)
(-1.54975 3.45236 -1.525e-20)
(-1.54817 3.44695 6.95569e-19)
(-1.54656 3.44166 1.09882e-20)
(-1.54491 3.4365 1.08126e-20)
(-1.54325 3.43146 0)
(-1.54158 3.42656 -1.04449e-20)
(-1.5399 3.42179 0)
(-1.53822 3.41715 -1.00775e-20)
(-1.53654 3.41265 6.52755e-19)
(-1.53486 3.40827 -1.24419e-18)
(-1.5332 3.40401 6.07258e-19)
(-1.53154 3.39987 5.99897e-19)
(-1.52988 3.39583 -5.92512e-19)
(-1.52823 3.39188 4.55366e-21)
(-1.52657 3.388 -4.559e-21)
(-1.60318 3.53313 3.70773e-19)
(-1.60474 3.52976 0)
(-1.60593 3.52583 -3.80948e-19)
(-1.60676 3.52139 3.48526e-19)
(-1.60724 3.51648 -4.53179e-19)
(-1.60739 3.51116 -1.85758e-20)
(-1.60723 3.5055 4.2697e-19)
(-1.6068 3.49957 -4.22898e-19)
(-1.60613 3.49347 3.83289e-19)
(-1.60525 3.48725 -4.76744e-19)
(-1.60418 3.48097 3.83621e-19)
(-1.60296 3.47468 -3.68704e-19)
(-1.6016 3.46841 4.31164e-19)
(-1.60012 3.46219 -2.54625e-20)
(-1.59855 3.45603 3.95897e-19)
(-1.5969 3.44995 -3.81622e-19)
(-1.59518 3.44398 1.23001e-20)
(-1.59341 3.43812 0)
(-1.59159 3.43237 0)
(-1.58975 3.42676 0)
(-1.58788 3.42128 0)
(-1.58599 3.41594 7.35719e-19)
(-1.5841 3.41074 -6.99846e-19)
(-1.58221 3.40569 0)
(-1.58032 3.40078 -6.85972e-19)
(-1.57843 3.39601 -2.02221e-20)
(-1.57656 3.39138 6.67821e-19)
(-1.5747 3.38687 5.12185e-21)
(-1.57285 3.38249 -5.03503e-21)
(-1.571 3.37822 6.38212e-19)
(-1.56916 3.37404 -1.25079e-18)
(-1.56732 3.36994 6.32707e-19)
(-1.64869 3.5232 4.42187e-20)
(-1.65009 3.51986 -4.30643e-19)
(-1.65112 3.51594 4.00927e-19)
(-1.65179 3.51147 -4.14385e-19)
(-1.65211 3.50647 4.32348e-19)
(-1.65208 3.50099 0)
(-1.65173 3.49511 -5.46337e-20)
(-1.65109 3.48892 4.7974e-19)
(-1.6502 3.48251 -1.13129e-20)
(-1.64908 3.47595 -8.67087e-19)
(-1.64778 3.46931 -1.44533e-20)
(-1.64631 3.46265 4.38013e-19)
(-1.64471 3.456 -2.76267e-20)
(-1.64299 3.44941 4.4366e-19)
(-1.64117 3.44288 -4.2775e-19)
(-1.63928 3.43645 0)
(-1.63733 3.43013 -4.4061e-19)