/*--------------------------------*- C++ -*----------------------------------*\
  =========                 |
  \\      /  F ield         | OpenFOAM: The Open Source CFD Toolbox
   \\    /   O peration     | Website:  https://openfoam.org
    \\  /    A nd           | Version:  10
     \\/     M anipulation  |
\*---------------------------------------------------------------------------*/
FoamFile
{
    format      ascii;
    class       volScalarField;
    location    "72000";
    object      omega;
}
// * * * * * * * * * * * * * * * * * * * * * * * * * * * * * * * * * * * * * //

dimensions      [0 0 -1 0 0 0 0];

internalField   nonuniform List<scalar> 
17969
(
5562.21
1226.95
533.981
417.258
440.845
545.343
670.043
753.901
783.987
771.3
729.37
670.636
604.785
538.856
477.371
421.739
372.138
328.589
290.711
257.956
229.768
205.642
185.093
167.634
152.798
140.165
129.366
120.089
112.075
105.105
99.0035
93.6246
88.8498
84.5822
80.7429
77.2669
74.1013
71.2023
68.5339
66.0662
63.7744
61.6377
59.6387
57.7629
55.9977
54.3328
52.759
51.2688
49.8556
48.5137
47.2382
46.0249
44.8701
43.7707
42.724
41.7275
40.7794
39.8779
39.0216
38.2094
37.4404
36.714
36.0296
35.3871
34.7865
34.228
33.712
33.2392
32.8104
32.4268
32.0898
31.8011
31.5626
31.3767
31.2478
31.1767
31.1591
31.1937
31.2755
31.4001
31.5649
31.767
32.004
32.2742
32.5767
32.9117
33.2801
33.6833
34.1223
34.5987
35.1171
35.6873
36.3192
37.0208
37.8
38.6647
39.6219
40.6772
41.8089
43.0055
5562.29
1228.09
444.257
288.407
266.669
298.073
365.424
447.393
532.499
605.044
645.62
654.863
638.507
603.955
558.659
508.7
458.748
411.732
368.562
329.489
294.623
263.807
236.742
213.065
192.42
174.486
158.962
145.554
133.977
123.965
115.281
107.719
101.1
95.2754
90.1209
85.532
81.4226
77.7209
74.3678
71.314
68.5186
65.9476
63.5726
61.3697
59.319
57.4036
55.6094
53.9242
52.3379
50.8417
49.428
48.0907
46.824
45.6234
44.4848
43.4048
42.3804
41.409
40.4887
39.6175
38.7943
38.0177
37.2871
36.6018
35.9617
35.3666
34.8168
34.3129
33.8556
33.446
33.0856
32.7759
32.5193
32.3178
32.1764
32.0952
32.0689
32.0966
32.1726
32.2921
32.4523
32.6499
32.8826
33.1486
33.4475
33.7797
34.1467
34.551
34.9952
35.4815
36.0118
36.5895
37.2255
37.9325
38.719
39.5936
40.5643
41.6359
42.7893
44.017
5562.35
1245.86
404.215
224.135
183.806
190.289
225.124
272.353
324.909
385.259
446.261
502.199
543.147
562.615
561.779
544.271
514.94
478.645
439.321
400.09
362.865
328.247
296.507
267.793
242.063
219.165
198.883
180.974
165.198
151.333
139.179
128.541
119.236
111.087
103.933
97.6318
92.059
87.1073
82.6859
78.7179
75.1388
71.8942
68.9388
66.2344
63.7487
61.455
59.3304
57.3557
55.5147
53.7936
52.1808
50.6662
49.2414
47.8991
46.6332
45.4383
44.31
43.2444
42.2384
41.2891
40.3944
39.5524
38.7618
38.0215
37.3307
36.6892
36.0968
35.5538
35.061
34.6193
34.2301
33.895
33.6162
33.3962
33.2396
33.1467
33.1113
33.1293
33.197
33.3093
33.4628
33.6543
33.8815
34.1431
34.4385
34.7685
35.1349
35.5404
35.9886
36.4832
37.0277
37.6238
38.2739
38.9899
39.7873
40.6756
41.6635
42.7526
43.9287
45.1909
5562.39
1261.06
392.353
193.063
140.406
130.852
144.668
174.468
207.566
244.966
286.526
333.156
380.37
424.525
461.829
485.711
494.469
489.206
472.564
447.838
418.296
386.6
354.965
324.694
296.211
269.813
245.66
223.778
204.096
186.483
170.776
156.803
144.393
133.384
123.632
115.001
107.363
100.601
94.6024
89.2674
84.5067
80.2422
76.4061
72.9407
69.7965
66.9315
64.3103
61.9027
59.6833
57.6303
55.7256
53.9534
52.3005
50.7557
49.3093
47.9531
46.6802
45.4846
44.3613
43.306
42.3152
41.3861
40.5161
39.7035
38.9468
38.2453
37.5982
37.0057
36.468
35.9859
35.5607
35.1938
34.8874
34.6437
34.4675
34.3586
34.3098
34.3135
34.3689
34.4702
34.6137
34.7965
35.0165
35.2725
35.5645
35.893
36.2599
36.6679
37.1209
37.6232
38.1795
38.7936
39.4675
40.2031
41.0138
41.9176
42.9247
44.0338
45.2355
46.5347
47.9379
49.44
51.0297
52.6915
5562.42
1268.65
390.518
179.901
119.398
100.608
100.084
112.951
134.626
158.971
186.663
217.493
251.403
288.806
327.554
363.97
396.138
420.984
435.177
438.323
431.376
416.262
395.333
370.907
344.865
318.846
293.756
269.906
247.597
226.982
208.124
191.002
175.541
161.636
149.166
138
128.014
119.09
111.117
103.995
97.6327
91.9447
86.8522
82.2837
78.1743
74.4666
71.1102
68.0611
65.2813
62.7381
60.4037
58.254
56.2688
54.4306
52.7245
51.1378
49.6597
48.2811
46.994
45.7919
44.6691
43.621
42.6438
41.7342
40.89
40.1091
39.3904
38.7332
38.1373
37.6029
37.1308
36.7224
36.379
36.1027
35.8981
35.7645
35.6936
35.6759
35.7126
35.7974
35.9264
36.0969
36.3073
36.5565
36.8445
37.172
37.5405
37.9528
38.4123
38.9234
39.4911
40.1203
40.8148
41.5764
42.409
43.3289
44.3557
45.4869
46.7171
48.0551
49.5039
51.057
52.7015
54.4203
5562.44
1272.03
390.522
174.538
109.728
85.9002
77.9001
79.2305
88.7582
104.396
122.408
143.385
166.971
193.054
221.474
252.327
284.879
315.901
343.25
366.722
383.437
391.864
391.917
384.457
370.947
353.124
332.679
310.98
289.252
268.14
247.888
228.782
210.973
194.542
179.499
165.811
153.41
142.212
132.121
123.038
114.868
107.519
100.907
94.9569
89.5978
84.7665
80.4055
76.4625
72.8902
69.6465
66.6937
63.9987
61.5326
59.27
57.1891
55.2708
53.4988
51.8592
50.34
48.9309
47.6232
46.4097
45.2841
44.2413
43.2773
42.3886
41.5728
40.828
40.153
39.5473
39.0108
38.5439
38.1475
37.8228
37.5749
37.403
37.2979
37.2485
37.2573
37.3186
37.4273
37.5812
37.7789
38.0194
38.3025
38.6288
38.9997
39.4173
39.8847
40.4058
40.9854
41.6286
42.3399
43.1224
43.9772
44.9171
45.9641
47.1195
48.3811
49.7595
51.255
52.8592
54.5577
56.3313
5562.45
1273.99
391.134
172.744
105.744
79.3184
67.6956
63.5199
64.6204
70.9689
82.0709
95.1653
110.696
128.862
149.267
171.663
195.847
221.695
249.442
276.344
300.438
321.549
338.677
349.942
354.682
352.98
345.579
333.595
318.336
301.06
282.808
264.454
246.47
229.105
212.597
197.094
182.681
169.387
157.201
146.085
135.98
126.817
118.522
111.018
104.232
98.0939
92.539
87.5086
82.949
78.8119
75.0536
71.6347
68.52
65.6775
63.0792
60.6997
58.517
56.5115
54.6663
52.9665
51.3993
49.9538
48.6205
47.3915
46.2601
45.2208
44.2691
43.4013
42.6148
41.9075
41.2782
40.7262
40.2516
39.855
39.5425
39.3142
39.1608
39.0718
39.0391
39.0669
39.1482
39.2804
39.4616
39.6909
39.9676
40.2919
40.6648
41.0876
41.5628
42.0937
42.6841
43.3388
44.0626
44.8592
45.7305
46.6891
47.7583
48.9403
50.2361
51.6563
53.1986
54.8528
56.6023
58.4264
60.301
5562.45
1275.89
392.723
173.032
104.785
76.914
63.4027
56.6041
53.8619
54.3266
58.1193
65.4191
75.0703
86.3952
99.8769
115.688
133.677
153.334
174.476
196.86
220.546
244.007
265.502
284.211
300.339
312.676
320.166
322.504
319.85
312.809
302.252
289.173
274.505
259.058
243.457
228.047
213.074
198.731
185.16
172.446
160.627
149.711
139.681
130.503
122.13
114.507
107.578
101.283
95.5656
90.372
85.6517
81.3584
77.45
73.8886
70.6398
67.6728
64.9601
62.4771
60.2019
58.1152
56.2
54.4412
52.8259
51.3425
49.9816
48.7346
47.5946
46.5558
45.6133
44.7636
44.0037
43.332
42.7473
42.2501
41.8479
41.5419
41.3219
41.176
41.092
41.0772
41.1255
41.2315
41.3926
41.6075
41.8751
42.1951
42.5675
42.9929
43.4727
44.0092
44.6056
45.2663
45.9964
46.8003
47.6814
48.6583
49.7508
50.9601
52.2926
53.7545
55.3414
57.041
58.8353
60.7016
62.6147
64.5489
66.48
5562.43
1277.98
395.495
174.786
105.623
76.806
62.1746
53.9497
49.2943
47.0631
46.856
48.7337
53.1394
60.0093
68.2046
78.0158
89.7799
103.65
119.627
137.102
155.858
175.6
196.214
217.07
236.536
253.33
267.894
280.075
288.905
293.805
294.611
291.518
285.02
275.797
264.606
252.13
239.009
225.69
212.419
199.427
186.885
174.924
163.627
153.044
143.199
134.092
125.706
118.013
110.975
104.549
98.6895
93.3503
88.4861
84.054
80.0137
76.3281
72.9635
69.8895
67.0786
64.5064
62.1511
59.9933
58.0161
56.2044
54.5451
53.0269
51.64
50.376
49.2279
48.19
47.2579
46.4284
45.6996
45.071
44.5523
44.1461
43.8406
43.6225
43.4777
43.4066
43.4112
43.4836
43.6183
43.813
44.0661
44.376
44.7414
45.1617
45.6373
46.1699
46.7629
47.421
48.1498
48.9548
49.8467
50.8456
51.9618
53.1986
54.5643
56.0618
57.685
59.4203
61.2478
63.1437
65.0818
67.0359
68.9821
70.8994
5562.41
1279.93
399.216
177.53
107.543
77.9961
62.6186
53.5458
47.8541
44.2842
42.2644
41.5726
42.2231
44.4608
48.6611
54.6236
61.6121
70.066
80.3011
92.4677
106.588
122.162
138.927
156.564
174.808
193.641
211.357
226.943
240.319
251.737
260.943
267.252
270.371
270.229
267.028
261.166
253.167
243.605
233.005
221.831
210.394
198.913
187.579
176.555
165.96
155.879
146.369
137.464
129.177
121.503
114.428
107.924
101.962
96.5049
91.5161
86.9582
82.795
78.9921
75.5173
72.3411
69.4367
66.7799
64.3488
62.1243
60.0893
58.2288
56.5297
54.9808
53.5723
52.2965
51.1467
50.1181
49.2072
48.4131
47.7477
47.2149
46.8014
46.4924
46.2736
46.1287
46.0711
46.0937
46.1894
46.3532
46.5806
46.868
47.2129
47.6143
48.0718
48.5886
49.1683
49.8171
50.5434
51.3547
52.2607
53.2762
54.4093
55.665
57.0519
58.5714
60.2162
61.9714
63.8159
65.7248
67.6715
69.6301
71.5769
73.492
75.3596
77.1676
5562.38
1281.23
403.431
180.815
110.025
79.8397
63.8983
54.267
47.9645
43.6734
40.7495
38.869
37.8892
37.7955
38.695
40.8438
44.5477
49.6122
55.5431
62.7539
71.5667
82.1645
94.5226
108.354
123.419
139.404
155.943
172.901
189.234
203.856
216.377
227.034
235.943
242.85
247.315
249.196
248.488
245.374
240.176
233.297
225.162
216.181
206.671
196.844
186.9
177.014
167.328
157.953
148.973
140.448
132.415
124.895
117.893
111.401
105.405
99.8822
94.8062
90.1485
85.8794
81.9695
78.3903
75.1148
72.1179
69.3768
66.8702
64.5792
62.4871
60.5792
58.8429
57.2673
55.8434
54.5639
53.4238
52.4205
51.5692
50.8753
50.3225
49.894
49.5737
49.3428
49.1964
49.1421
49.1728
49.2801
49.4575
49.7005
50.0061
50.3729
50.8027
51.2986
51.8634
52.503
53.2244
54.035
54.9424
55.9573
57.0881
58.3437
59.7321
61.2539
62.9007
64.6561
66.4983
68.4016
70.3395
72.2864
74.2198
76.1208
77.9745
79.7701
81.4999
83.1594
84.746
86.2589
5562.34
1281.39
407.639
184.234
112.686
81.9115
65.4993
55.4577
48.7603
44.0511
40.6475
38.1808
36.4483
35.3482
34.8525
35
35.909
37.8024
40.9523
45.2396
50.2505
56.337
63.8244
72.8752
83.5181
95.6718
109.12
123.552
138.585
153.957
169.19
183.137
195
205.147
213.656
220.574
225.713
228.829
229.854
228.826
225.909
221.369
215.521
208.685
201.125
193.04
184.626
176.058
167.483
159.024
150.782
142.834
135.239
128.036
121.249
114.89
108.961
103.454
98.3552
93.6473
89.3096
85.3202
81.6562
78.2946
75.2135
72.3927
69.8131
67.4575
65.3104
63.3578
61.5878
59.9905
58.5585
57.2878
56.1974
55.2945
54.5591
53.9712
53.513
53.166
52.9057
52.7412
52.6718
52.6896
52.7882
52.9634
53.2113
53.5296
53.9188
54.3779
54.9089
55.5166
56.2072
56.988
57.8671
58.8544
59.9589
61.191
62.5576
64.0586
65.6846
67.4187
69.2381
71.1172
73.0296
74.9508
76.859
78.7365
80.5693
82.3473
84.0634
85.7133
87.2945
88.806
5562.3
1280.27
411.393
187.471
115.261
83.947
67.1216
56.7511
49.7714
44.7971
41.1205
38.3484
36.2503
34.6891
33.5876
32.9137
32.6743
32.9192
33.7547
35.3665
37.9972
41.6148
45.842
50.9176
57.1323
64.7127
73.7692
84.2918
96.1368
109.045
122.663
136.622
150.792
164.067
175.689
185.494
193.783
200.591
205.927
209.697
211.811
212.25
211.066
208.419
204.531
199.636
193.916
187.554
180.722
173.574
166.25
158.874
151.549
144.363
137.386
130.673
124.263
118.184
112.451
107.073
102.048
97.3707
93.0309
89.0142
85.307
81.8924
78.7533
75.8733
73.2357
70.8256
68.6299
66.6371
64.8382
63.2281
61.831
60.6571
59.6818
58.8809
58.2343
57.7232
57.3271
57.0175
56.8071
56.6987
56.6846
56.7585
56.915
57.1499
57.4605
57.8453
58.3053
58.8433
59.464
60.1754
60.9875
61.9129
62.9616
64.1416
65.4589
66.9131
68.4945
70.1854
71.963
73.8017
75.6757
77.5609
79.4365
81.2856
83.0948
84.8543
86.5573
88.1993
89.7777
91.2912
5562.25
1277.89
414.483
190.36
117.596
85.7952
68.6027
57.9576
50.7617
45.6049
41.7605
38.8189
36.5361
34.7568
33.3823
32.3526
31.6359
31.2252
31.1381
31.4218
32.1634
33.5113
35.6514
38.6518
42.2301
46.4539
51.59
57.8815
65.4837
74.4568
84.746
96.1746
108.465
121.227
134.208
146.831
158.255
167.862
175.96
182.701
188.12
192.238
194.978
196.331
196.359
195.148
192.83
189.544
185.434
180.643
175.309
169.563
163.527
157.312
151.017
144.73
138.525
132.461
126.589
120.945
115.558
110.445
105.618
101.082
96.8373
92.8783
89.1983
85.7867
82.6331
79.727
77.0568
74.6122
72.3844
70.3674
68.5942
67.0818
65.801
64.7234
63.8258
63.0883
62.4925
62.0179
61.636
61.3432
61.1611
61.0795
61.0911
61.1908
61.3742
61.6384
61.9819
62.4059
62.915
63.5176
64.2249
65.0504
66.0063
67.1007
68.3387
69.7202
71.2351
72.8654
74.5877
76.3761
78.205
80.0507
81.8927
83.7143
85.5024
87.2472
88.9418
90.5813
92.1626
93.6841
5562.19
1274.23
416.772
192.769
119.589
87.3748
69.86
58.9893
51.6266
46.3407
42.3903
39.3541
36.9757
35.0908
33.591
32.4034
31.4803
30.7925
30.3269
30.0858
30.0884
30.3749
31.0147
32.1247
33.8459
36.3106
39.3691
42.9058
47.1538
52.3453
58.6652
66.2202
75.028
84.9896
95.8937
107.408
119.18
131.073
142.132
151.745
159.789
166.491
171.967
176.252
179.388
181.365
182.219
182.024
180.862
178.829
176.029
172.569
168.555
164.093
159.282
154.217
148.985
143.664
138.325
133.027
127.822
122.752
117.85
113.142
108.646
104.374
100.334
96.5298
92.9617
89.627
86.5211
83.639
80.9744
78.5252
76.3394
74.4429
72.8038
71.3922
70.1828
69.1544
68.2893
67.5709
66.9825
66.507
66.1163
65.8168
65.6166
65.5197
65.5185
65.6074
65.7835
66.0469
66.4018
66.8561
67.4216
68.1129
68.9452
69.9273
71.0652
72.3579
73.7951
75.3578
77.0216
78.7599
80.5464
82.3573
84.1719
85.9734
87.7485
89.4871
91.1818
92.8274
94.4204
95.9585
97.4404
5562.13
1269.43
418.069
194.586
121.181
88.66
70.8997
59.8392
52.342
46.961
42.9411
39.8505
37.4249
35.4933
33.941
32.6886
31.6805
30.878
30.2554
29.7976
29.5
29.3682
29.4202
29.6897
30.2312
31.1343
32.5185
34.5233
37.1251
40.1167
43.655
47.9372
53.1618
59.4599
66.8978
75.4513
84.9936
95.3012
106.013
116.88
127.421
136.946
144.939
151.614
157.102
161.495
164.843
167.206
168.622
169.136
168.815
167.731
165.957
163.574
160.665
157.311
153.593
149.587
145.367
140.999
136.545
132.058
127.588
123.174
118.852
114.646
110.58
106.671
102.931
99.368
95.9878
92.7936
89.7875
86.974
84.4148
82.1469
80.1444
78.3791
76.827
75.4678
74.2848
73.2633
72.39
71.6525
71.0384
70.5376
70.137
69.8259
69.6063
69.479
69.4448
69.5072
69.6742
69.9529
70.3547
70.8952
71.591
72.4542
73.4901
74.696
76.061
77.5646
79.1808
80.8812
82.6385
84.428
86.2287
88.0233
89.798
91.5426
93.2492
94.9121
96.5274
98.0922
99.6049
5562.07
1263.64
418.205
195.881
122.427
89.6304
71.6637
60.4681
52.8848
47.4496
43.3958
40.2838
37.8435
35.8997
34.3338
33.0627
32.0269
31.1832
30.5
29.9552
29.5341
29.229
29.0393
28.972
29.0434
29.2819
29.7317
30.4621
31.58
33.1877
35.3532
37.9246
40.9031
44.4537
48.7682
53.9926
60.2187
67.4739
75.6911
84.7109
94.2587
104.017
113.845
123.01
131.003
137.662
143.167
147.621
151.118
153.728
155.512
156.526
156.81
156.424
155.432
153.891
151.866
149.423
146.625
143.535
140.21
136.707
133.077
129.364
125.612
121.855
118.126
114.45
110.849
107.34
103.938
100.654
97.4958
94.4764
91.668
89.1254
86.8308
84.7621
82.9001
81.229
79.7353
78.4074
77.2352
76.2096
75.3223
74.5656
73.9317
73.4134
73.0053
72.703
72.5036
72.406
72.4111
72.5305
72.7812
73.1838
73.7588
74.5223
75.4774
76.6195
77.9367
79.4069
81.0007
82.6873
84.4377
86.2265
88.0322
89.8371
91.6275
93.3927
95.1247
96.8176
98.4671
100.07
101.624
5562
1256.9
417.357
196.524
123.151
90.2365
72.1678
60.9064
53.2861
47.8336
43.7754
40.6669
38.2345
36.3
34.7426
33.4771
32.4419
31.5913
30.8912
30.316
29.8466
29.4699
29.1775
28.9659
28.837
28.7985
28.8653
29.0619
29.4248
30.008
30.898
32.1826
33.9597
36.1822
38.7184
41.6966
45.2716
49.5984
54.7742
60.8516
67.8139
75.5666
83.9411
92.642
101.445
110.011
117.797
124.396
129.887
134.395
138.004
140.793
142.836
144.189
144.909
145.037
144.622
143.719
142.381
140.655
138.593
136.246
133.661
130.883
127.953
124.909
121.786
118.613
115.418
112.223
109.048
105.908
102.82
99.7997
96.9267
94.2684
91.8187
89.5644
87.4943
85.5985
83.8689
82.2987
80.8818
79.613
78.4874
77.5007
76.648
75.9244
75.3253
74.8466
74.4856
74.2422
74.1208
74.1326
74.2954
74.6313
75.1622
75.9042
76.8565
78.0098
79.3457
80.8353
82.4483
84.1541
85.9248
87.7368
89.5687
91.4028
93.2257
95.0268
96.7982
98.5339
100.229
101.882
103.488
105.047
5561.92
1249.69
415.848
196.557
123.486
90.5847
72.492
61.2162
53.5951
48.1525
44.1115
41.0246
38.6157
36.7047
35.1693
33.9228
32.9025
32.0616
31.3644
30.7836
30.2985
29.8932
29.5561
29.2795
29.0592
28.8949
28.79
28.7528
28.7972
28.9445
29.2256
29.6841
30.3866
31.4252
32.8719
34.761
36.9584
39.4938
42.4794
46.0668
50.3565
55.4085
61.2367
67.7847
74.9332
82.4792
90.1678
97.8753
105.163
111.669
117.113
121.638
125.335
128.268
130.503
132.108
133.134
133.63
133.646
133.216
132.386
131.201
129.703
127.929
125.919
123.707
121.33
118.817
116.197
113.494
110.731
107.927
105.099
102.269
99.5168
96.9163
94.4734
92.1843
90.0459
88.0552
86.21
84.5087
82.9497
81.5318
80.2538
79.115
78.1132
77.246
76.5111
75.9063
75.4306
75.0863
74.881
74.8291
74.952
75.2742
75.8181
76.5971
77.6042
78.8237
80.2326
81.7981
83.4852
85.2603
87.0936
88.9597
90.84
92.7211
94.592
96.4429
98.2662
100.056
101.809
103.521
105.19
106.814
5561.85
1242.38
413.551
196.392
123.655
90.8026
72.7206
61.4588
53.8595
48.4442
44.435
41.3823
39.0076
37.1295
35.6242
34.4044
33.4065
32.5831
31.8976
31.322
30.8345
30.4182
30.0603
29.7514
29.4848
29.2569
29.0666
28.9157
28.8091
28.7554
28.7677
28.8648
29.0736
29.4308
29.9874
30.8265
32.0062
33.5892
35.519
37.7066
40.2353
43.2226
46.776
50.9492
55.765
61.1969
67.1662
73.5532
80.1517
86.7671
93.3109
99.3953
104.775
109.276
113.008
116.043
118.43
120.223
121.474
122.238
122.555
122.467
122.012
121.224
120.137
118.785
117.201
115.417
113.457
111.347
109.11
106.767
104.339
101.847
99.3682
96.9779
94.6917
92.5145
90.45
88.5016
86.6724
84.9654
83.3832
81.9285
80.6029
79.4093
78.3485
77.4206
76.626
75.9651
75.4398
75.0562
74.8263
74.7699
74.9126
75.2816
75.8981
76.7681
77.8792
79.2085
80.726
82.3947
84.1775
86.0408
87.9558
89.8991
91.852
93.8
95.7328
97.6446
99.5303
101.385
103.204
104.985
106.726
108.424
5561.77
1235.11
410.732
195.882
123.645
90.9114
72.8795
61.659
54.103
48.7337
44.7701
41.7613
39.4283
37.5889
36.1188
34.9296
33.9575
33.1551
32.4849
31.9183
31.4331
31.0123
30.6426
30.3139
30.019
29.7529
29.513
29.2984
29.1104
28.9524
28.8301
28.7522
28.7309
28.7833
28.9323
29.2092
29.654
30.3295
31.3097
32.6349
34.3157
36.2334
38.4131
40.9205
43.8644
47.2981
51.2432
55.6922
60.5926
65.8596
71.3837
76.9866
82.5281
87.9273
92.9171
97.34
101.036
104.088
106.555
108.48
109.899
110.857
111.394
111.55
111.361
110.858
110.074
109.038
107.774
106.307
104.664
102.867
100.933
98.8882
96.7999
94.7413
92.7353
90.794
88.927
87.1428
85.4489
83.8517
82.3574
80.9722
79.6998
78.5461
77.515
76.6086
75.8304
75.1838
74.6748
74.3144
74.1207
74.1195
74.3412
74.814
75.556
76.5626
77.8139
79.2815
80.9286
82.7155
84.6049
86.5643
88.567
90.5919
92.6224
94.646
96.6533
98.6369
100.593
102.519
104.413
106.271
108.092
109.873
5561.69
1227.93
407.491
195.122
123.478
90.9227
72.9807
61.829
54.3353
49.0251
45.1178
42.1619
39.8782
38.0839
36.6544
35.5009
34.5587
33.7792
33.1253
32.5683
32.0858
31.6618
31.2827
30.9382
30.6213
30.3268
30.0516
29.7941
29.5541
29.3331
29.1336
28.9599
28.8182
28.7169
28.6673
28.6844
28.7879
29.0042
29.3671
29.9218
30.744
31.8596
33.3005
35.0074
36.9103
39.0472
41.494
44.318
47.5349
51.1434
55.1158
59.3899
63.886
68.5093
73.1202
77.6027
81.9368
85.9311
89.4794
92.5012
94.9667
96.9364
98.4513
99.5446
100.245
100.585
100.598
100.314
99.7643
98.9738
97.9676
96.7691
95.3987
93.8805
92.2737
90.6442
89.0177
87.4123
85.8432
84.3229
82.8623
81.4709
80.1575
78.9308
77.7976
76.7645
75.8383
75.0245
74.3286
73.7578
73.323
73.0415
72.9384
73.0459
73.398
74.022
74.9275
76.1011
77.5142
79.1333
80.9172
82.8254
84.8219
86.8768
88.9662
91.0716
93.1791
95.2783
97.3612
99.4219
101.456
103.46
105.434
107.375
109.283
111.154
5561.6
1221.01
403.979
194.187
123.201
90.8714
73.0517
61.9911
54.5757
49.3362
45.4936
42.5972
40.3676
38.622
37.2351
36.1182
35.206
34.45
33.8128
33.266
32.7874
32.3603
31.9717
31.6115
31.2738
30.954
30.6488
30.3566
30.0772
29.811
29.5596
29.3252
29.1114
28.9227
28.7652
28.6467
28.5776
28.571
28.6439
28.8183
29.1228
29.5905
30.2761
31.2316
32.4634
33.9707
35.6516
37.5107
39.5662
41.8905
44.512
47.424
50.6105
54.0339
57.6329
61.339
65.0867
68.7736
72.3094
75.6476
78.7432
81.5026
83.8824
85.8541
87.3938
88.5513
89.3601
89.8467
90.0327
89.9447
89.6081
89.0467
88.2864
87.3527
86.2912
85.1574
83.9825
82.7897
81.5978
80.4193
79.2683
78.157
77.0965
76.0972
75.1686
74.3194
73.5576
72.8913
72.3293
71.8832
71.5695
71.4126
71.445
71.7044
72.2264
73.0349
74.1271
75.4795
77.0607
78.8306
80.7466
82.7693
84.8656
87.0088
89.1785
91.3592
93.5396
95.7111
97.8676
100.004
102.118
104.205
106.264
108.293
110.293
112.261
5561.52
1214.56
400.383
193.156
122.861
90.7889
73.1154
62.1629
54.8377
49.6775
45.9062
43.0739
40.9018
39.2069
37.8641
36.7843
35.9021
35.1687
34.547
34.0085
33.5316
33.0997
32.7007
32.3255
31.9679
31.6237
31.2902
30.9662
30.6524
30.3489
30.0567
29.7776
29.5138
29.268
29.0439
28.8459
28.6799
28.5529
28.4742
28.4553
28.5106
28.6582
28.9212
29.327
29.9095
30.7328
31.7913
33.0916
34.5942
36.2223
37.9913
39.9171
42.0521
44.4
46.942
49.6567
52.5088
55.4457
58.411
61.3519
64.2126
66.9279
69.447
71.7456
73.8222
75.6251
77.1363
78.3486
79.2354
79.8391
80.184
80.2867
80.1693
79.8543
79.3744
78.774
78.0922
77.3556
76.5851
75.7984
75.0108
74.2315
73.4738
72.7503
72.0722
71.45
70.8938
70.4141
70.0232
69.7375
69.58
69.5824
69.784
70.2266
70.9455
71.9536
73.2383
74.7693
76.5106
78.4193
80.4536
82.577
84.7601
86.9802
89.2202
91.4679
93.7141
95.9526
98.1787
100.389
102.58
104.751
106.898
109.02
111.116
113.186
5561.43
1208.65
396.791
192.071
122.487
90.6977
73.1886
62.3566
55.1303
50.0556
46.3598
43.5947
41.4821
39.8394
38.5412
37.4985
36.6457
35.934
35.3264
34.7947
34.3175
33.879
33.4676
33.0751
32.6962
32.3274
31.9668
31.6139
31.2686
30.9312
30.6029
30.2865
29.9829
29.6942
29.4229
29.1718
28.9444
28.7449
28.5786
28.452
28.373
28.3517
28.4001
28.5332
28.7693
29.1318
29.6422
30.3386
31.2634
32.3809
33.6893
35.1318
36.6695
38.3054
40.0499
41.9409
43.973
46.1226
48.3683
50.6786
53.0122
55.3253
57.5789
59.7413
61.7855
63.6774
65.3932
66.9241
68.2949
69.4707
70.4282
71.1403
71.6333
71.9231
72.0262
71.9722
71.7965
71.5283
71.1921
70.8126
70.4068
69.9864
69.5583
69.137
68.7352
68.3651
68.0387
67.7691
67.5724
67.4703
67.4925
67.6776
68.0705
68.7148
69.6423
70.8531
72.321
74.017
75.9004
77.9281
80.0611
82.2671
84.5208
86.8035
89.1016
91.4057
93.7092
96.0075
98.2975
100.577
102.843
105.095
107.33
109.547
111.744
113.92
5561.35
1203.51
393.356
190.998
122.116
90.6191
73.2844
62.5804
55.4583
50.4728
46.8552
44.159
42.1071
40.5171
39.2638
38.2579
37.4339
36.7431
36.1484
35.622
35.1431
34.6965
34.2713
33.8602
33.4587
33.0642
32.6757
32.2932
31.9171
31.5485
31.1887
30.839
30.5006
30.1752
29.866
29.5745
29.3027
29.0537
28.8307
28.6375
28.4787
28.3603
28.289
28.2732
28.3232
28.451
28.6707
29
29.4587
30.0623
30.8489
31.8222
32.9389
34.1927
35.5341
36.9398
38.4119
39.9487
41.5832
43.3029
45.0792
46.887
48.7079
50.5209
52.2983
54.0144
55.651
57.1953
58.6436
59.9839
61.219
62.36
63.338
64.1325
64.7446
65.1861
65.485
65.6679
65.7577
65.7757
65.7419
65.6755
65.5791
65.4646
65.3458
65.2357
65.1479
65.0981
65.1064
65.1999
65.4147
65.7958
66.3919
67.2469
68.3784
69.7757
71.4106
73.2494
75.2504
77.3731
79.5825
81.8508
84.1571
86.4868
88.8295
91.1784
93.5291
95.8788
98.2257
100.568
102.905
105.235
107.557
109.869
112.169
114.455
5561.26
1199.25
390.151
189.969
121.765
90.5636
73.4087
62.837
55.8221
50.9279
47.3898
44.7635
42.7728
41.2357
40.0272
39.0579
38.2624
37.5917
37.0093
36.4875
36.0061
35.5505
35.1107
34.6803
34.2556
33.8349
33.418
33.0054
32.5985
32.1985
31.807
31.4257
31.0559
30.6993
30.3574
30.0314
29.7232
29.4361
29.1715
28.9318
28.7202
28.5401
28.3955
28.2914
28.2337
28.2292
28.2863
28.4147
28.6254
28.9306
29.3462
29.8836
30.5508
31.376
32.3414
33.3998
34.5509
35.7667
37.0261
38.3413
39.6808
41.0439
42.4449
43.8765
45.3131
46.7397
48.1483
49.5301
50.8763
52.1816
53.4463
54.6762
55.8826
57.007
57.9862
58.814
59.5049
60.0768
60.5464
60.9298
61.2431
61.5028
61.7174
61.8957
62.05
62.1932
62.3398
62.5082
62.7221
63.0136
63.4249
64.0058
64.8065
65.866
67.1894
68.7502
70.526
72.4796
74.5707
76.7625
79.0248
81.3346
83.6754
86.036
88.4091
90.7905
93.1776
95.5692
97.9646
100.363
102.765
105.169
107.575
109.979
112.382
114.78
5561.17
1195.93
387.227
189.007
121.447
90.5376
73.5636
63.1257
56.2191
51.4169
47.9587
45.4026
43.4732
41.9891
40.8253
39.8926
39.1254
38.4749
37.9047
37.3876
36.9037
36.4391
35.9848
35.535
35.0871
34.6402
34.1948
33.7523
33.3144
32.883
32.4599
32.047
31.646
31.2584
30.8857
30.5293
30.1907
29.8714
29.5728
29.2962
29.0454
28.8216
28.6272
28.4656
28.3401
28.2547
28.2143
28.2245
28.2919
28.4238
28.6287
28.9152
29.2922
29.7707
30.3527
31.0344
31.8278
32.7236
33.6711
34.6804
35.7581
36.8744
38.0129
39.1705
40.3167
41.4596
42.6134
43.7763
44.9368
46.0984
47.267
48.4485
49.6523
50.8938
52.0701
53.1455
54.1156
54.9855
55.7615
56.452
57.0657
57.6114
58.1016
58.5453
58.951
59.3301
59.6979
60.074
60.4859
60.9706
61.5752
62.3526
63.3537
64.6008
66.0857
67.7851
69.6726
71.7114
73.8645
76.0999
78.3923
80.7235
83.0807
85.4563
87.8456
90.2466
92.6586
95.0817
97.5165
99.9636
102.423
104.895
107.379
109.874
112.377
114.886
5561.08
1193.74
384.662
188.14
121.173
90.5452
73.7491
63.4437
56.6447
51.9339
48.5553
46.069
44.2007
42.7695
41.6506
40.7548
40.0165
39.387
38.8299
38.3183
37.833
37.3605
36.8925
36.4243
35.9539
35.4813
35.0079
34.5357
34.0669
33.604
33.1492
32.7046
32.2721
31.8534
31.4501
31.0636
30.6952
30.3463
30.0181
29.7117
29.4288
29.1706
28.9381
28.735
28.5625
28.4229
28.3192
28.2547
28.2332
28.2588
28.3366
28.4717
28.6699
28.9367
29.2755
29.6876
30.1743
30.7323
31.3524
32.0409
32.8262
33.6849
34.5793
35.5087
36.4824
37.4756
38.4759
39.4797
40.4643
41.4635
42.4952
43.5667
44.6891
45.8791
47.1226
48.3197
49.4564
50.5264
51.525
52.4509
53.3042
54.0821
54.8092
55.4849
56.1135
56.7051
57.274
57.8416
58.4385
59.1061
59.8949
60.859
62.0436
63.4571
65.074
66.8809
68.8487
70.9433
73.1315
75.3864
77.6876
80.0211
82.3779
84.7531
87.1447
89.5525
91.9774
94.421
96.885
99.371
101.88
104.413
106.969
109.548
112.148
114.766
5560.99
1192.84
382.525
187.392
120.954
90.5879
73.9621
63.7856
57.0921
52.4713
49.1713
46.7541
44.9466
43.5683
42.4948
41.6367
40.9285
40.3216
39.7796
39.2757
38.791
38.3127
37.8331
37.3481
36.8566
36.3596
35.8591
35.3577
34.8584
34.3641
33.8773
33.4006
32.9362
32.4859
32.0514
31.6344
31.2362
30.858
30.501
30.1661
29.8545
29.567
29.3046
29.0687
28.8603
28.6805
28.5319
28.4161
28.335
28.291
28.287
28.3258
28.4105
28.5439
28.7282
28.9639
29.2519
29.5913
29.9808
30.4233
30.926
31.4841
32.0888
32.745
33.4853
34.2834
35.1105
35.9708
36.8708
37.7934
38.7468
39.7298
40.7622
41.8808
43.0955
44.324
45.5388
46.7231
47.867
48.9551
49.9779
50.9501
51.8763
52.7497
53.5709
54.3478
55.0945
55.8339
56.5997
57.4363
58.3968
59.5366
60.8814
62.4246
64.1461
66.0305
68.0493
70.1718
72.3704
74.6229
76.9135
79.2319
81.5725
83.9329
86.3131
88.7149
91.1407
93.5934
96.0758
98.5904
101.139
103.724
106.345
109.001
111.692
114.416
117.168
5560.9
1193.35
380.859
186.778
120.79
90.6619
74.1966
64.1438
57.5526
53.0199
49.7971
47.4482
45.7011
44.3759
43.3483
42.5294
41.8535
41.2718
40.7479
40.2551
39.7746
39.2938
38.8055
38.3065
37.7963
37.2767
36.7504
36.2208
35.6915
35.1658
34.647
34.1377
33.6406
33.1579
32.6915
32.2431
31.8143
31.4063
31.0202
30.657
30.3175
30.0024
29.7123
29.448
29.21
28.999
28.8159
28.6617
28.5372
28.4441
28.3837
28.3573
28.3664
28.4122
28.4956
28.617
28.7765
28.9736
29.2083
29.4814
29.7948
30.1478
30.5389
30.9714
31.4556
31.9871
32.5639
33.1993
33.9306
34.7204
35.5667
36.4862
37.4865
38.5786
39.7714
41.0047
42.2508
43.4926
44.7176
45.9165
47.0829
48.2184
49.3097
50.3476
51.3315
52.266
53.1662
54.0565
54.9731
55.9625
57.0784
58.3732
59.8554
61.4963
63.2919
65.2239
67.2662
69.3924
71.5796
73.8104
76.0731
78.3609
80.6709
83.003
85.3592
87.7427
90.1574
92.6074
95.0968
97.6291
100.207
102.834
105.51
108.236
111.011
113.833
116.699
5560.81
1195.01
379.6
186.272
120.668
90.7556
74.441
64.5069
58.0152
53.5687
50.422
48.1407
46.4536
45.1817
44.2013
43.4235
42.7827
42.23
41.7287
41.2517
40.78
40.3013
39.8087
39.2994
38.7737
38.2341
37.684
37.1277
36.5692
36.0125
35.4614
34.919
34.3885
33.8722
33.3726
32.8916
32.4309
31.992
31.5759
31.1838
30.8161
30.4736
30.1567
29.8656
29.6006
29.362
29.15
28.9648
28.8069
28.6765
28.5744
28.5008
28.4562
28.4413
28.4557
28.4995
28.5723
28.6735
28.8027
28.9601
29.1457
29.3594
29.601
29.8726
30.1783
30.5198
30.9002
31.3296
31.8263
32.3911
33.0367
33.8003
34.6954
35.7166
36.8619
38.1053
39.3895
40.6985
42.0082
43.3102
44.6044
45.8725
47.0978
48.2698
49.3862
50.4519
51.482
52.5025
53.5513
54.677
55.9347
57.3592
58.9423
60.6554
62.4973
64.4504
66.4922
68.6007
70.7578
72.9503
75.1703
77.4139
79.6805
81.9722
84.2925
86.6461
89.0381
91.4739
93.9587
96.4972
99.0934
101.751
104.472
107.257
110.107
113.021
115.995
5560.72
1197.98
378.779
185.878
120.581
90.8584
74.6837
64.8628
58.4678
54.1061
51.0346
48.8203
47.1931
45.975
45.043
44.3089
43.707
43.1881
42.7148
42.2596
41.803
41.3324
40.8409
40.3263
39.7894
39.2333
38.6623
38.0811
37.4947
36.9076
36.3241
35.7482
35.1832
34.6322
34.098
33.5828
33.0887
32.6172
32.1698
31.7474
31.3507
30.9801
30.636
30.3184
30.0273
29.7626
29.5241
29.3117
29.1252
28.9644
28.8291
28.7192
28.6343
28.5742
28.5384
28.5262
28.5372
28.5704
28.625
28.7006
28.7966
28.9128
29.0491
29.2066
29.3876
29.5948
29.8325
30.1087
30.4354
30.8232
31.2889
31.8614
32.5673
33.4297
34.4642
35.6658
36.9686
38.3333
39.7251
41.123
42.5153
43.8858
45.2154
46.494
47.7161
48.8883
50.0259
51.1562
52.3185
53.5625
54.9435
56.474
58.1261
59.8851
61.7478
63.6988
65.7195
67.7925
69.9038
72.0444
74.2092
76.3971
78.6095
80.8502
83.124
85.437
87.7955
90.2059
92.6746
95.2075
97.8099
100.486
103.24
106.074
108.989
111.984
115.057
5560.63
1202.28
378.443
185.605
120.524
90.9606
74.9118
65.1978
58.8968
54.6191
51.6229
49.4757
47.9085
46.7447
45.8628
45.1752
44.6166
44.1371
43.6985