/*--------------------------------*- C++ -*----------------------------------*\
  =========                 |
  \\      /  F ield         | OpenFOAM: The Open Source CFD Toolbox
   \\    /   O peration     | Website:  https://openfoam.org
    \\  /    A nd           | Version:  10
     \\/     M anipulation  |
\*---------------------------------------------------------------------------*/
FoamFile
{
    format      ascii;
    class       volScalarField;
    location    "54000";
    object      nut;
}
// * * * * * * * * * * * * * * * * * * * * * * * * * * * * * * * * * * * * * //

dimensions      [0 2 -1 0 0 0 0];

internalField   nonuniform List<scalar> 
17981
(
0.00110435
0.00109904
0.0010961
0.00109561
0.00109761
0.00110209
0.00110894
0.00111802
0.00112915
0.00114211
0.00115667
0.00117258
0.00118961
0.00120752
0.0012261
0.00124515
0.00126451
0.00128401
0.00130352
0.00132292
0.00134212
0.00136103
0.0013796
0.00139776
0.00141548
0.00143273
0.00144947
0.0014657
0.00148141
0.00149659
0.00151125
0.00152538
0.00153899
0.0015521
0.00156472
0.00157686
0.00158853
0.00159974
0.00161052
0.00162088
0.00163082
0.00164037
0.00164954
0.00165835
0.00166681
0.00167493
0.00168273
0.00169021
0.00107009
0.00106641
0.00106509
0.00106624
0.00106989
0.00107601
0.0010845
0.00109521
0.00110794
0.00112245
0.0011385
0.00115584
0.00117421
0.00119339
0.00121315
0.0012333
0.00125366
0.00127407
0.0012944
0.00131454
0.00133439
0.00135388
0.00137295
0.00139155
0.00140963
0.00142718
0.00144418
0.0014606
0.00147646
0.00149175
0.00150647
0.00152063
0.00153424
0.00154731
0.00155987
0.00157192
0.00158348
0.00159458
0.00160521
0.00161541
0.00162518
0.00163455
0.00164353
0.00165214
0.00166039
0.00166831
0.00167589
0.00168316
0.00103545
0.00103372
0.00103436
0.00103747
0.00104308
0.00105113
0.00106153
0.0010741
0.00108862
0.00110486
0.00112255
0.00114143
0.00116125
0.00118176
0.00120274
0.001224
0.00124535
0.00126666
0.00128778
0.00130862
0.00132907
0.00134908
0.00136858
0.00138753
0.00140591
0.00142368
0.00144084
0.00145738
0.0014733
0.0014886
0.0015033
0.0015174
0.00153092
0.00154388
0.00155629
0.00156817
0.00157955
0.00159044
0.00160085
0.00161082
0.00162035
0.00162947
0.00163819
0.00164653
0.00165451
0.00166215
0.00166946
0.00167645
0.00101755
0.00102781
0.00104035
0.00105499
0.00107149
0.00108959
0.00110904
0.00112954
0.00115085
0.00117272
0.00119493
0.00121729
0.00123961
0.00126177
0.00128362
0.00130508
0.00132606
0.0013465
0.00136634
0.00138556
0.00140412
0.00142202
0.00143924
0.00145579
0.00147168
0.0014869
0.00150147
0.00151542
0.00152875
0.0015415
0.00155367
0.0015653
0.0015764
0.00158699
0.00159711
0.00160676
0.00161597
0.00162476
0.00163315
0.00164116
0.0016488
0.0016561
0.00166307
0.00166973
0.000993671
0.00100637
0.00102127
0.00103815
0.00105677
0.00107685
0.00109812
0.0011203
0.00114312
0.00116634
0.00118975
0.00121315
0.00123638
0.0012593
0.0012818
0.00130378
0.00132518
0.00134594
0.00136602
0.00138538
0.00140402
0.00142193
0.0014391
0.00145554
0.00147127
0.0014863
0.00150064
0.00151432
0.00152736
0.00153979
0.00155163
0.0015629
0.00157363
0.00158385
0.00159357
0.00160283
0.00161164
0.00162002
0.001628
0.0016356
0.00164284
0.00164973
0.0016563
0.00166256
0.000971816
0.000987163
0.00100458
0.00102384
0.00104467
0.00106679
0.00108992
0.00111376
0.00113806
0.00116258
0.00118711
0.00121147
0.0012355
0.00125908
0.00128211
0.00130449
0.00132618
0.00134713
0.0013673
0.00138668
0.00140526
0.00142304
0.00144003
0.00145624
0.00147169
0.0014864
0.00150039
0.00151369
0.00152633
0.00153833
0.00154973
0.00156055
0.00157081
0.00158055
0.0015898
0.00159857
0.00160689
0.00161479
0.00162229
0.00162941
0.00163617
0.00164259
0.00164869
0.00165449
0.000970485
0.000990542
0.00101225
0.00103534
0.0010595
0.00108445
0.0011099
0.0011356
0.00116133
0.00118687
0.00121206
0.00123676
0.00126086
0.00128426
0.0013069
0.00132873
0.00134971
0.00136983
0.00138907
0.00140744
0.00142496
0.00144162
0.00145746
0.00147249
0.00148676
0.00150027
0.00151307
0.00152519
0.00153665
0.0015475
0.00155776
0.00156746
0.00157664
0.00158531
0.00159352
0.00160127
0.00160861
0.00161555
0.00162212
0.00162834
0.00163423
0.00163981
0.00164509
0.00100349
0.00102881
0.00105496
0.00108165
0.00110861
0.00113558
0.00116237
0.00118877
0.00121463
0.00123983
0.00126427
0.00128788
0.00131059
0.00133239
0.00135324
0.00137313
0.00139208
0.00141009
0.00142718
0.00144337
0.00145869
0.00147318
0.00148686
0.00149977
0.00151195
0.00152343
0.00153425
0.00154444
0.00155404
0.00156309
0.0015716
0.00157962
0.00158718
0.00159429
0.001601
0.00160732
0.00161327
0.00161889
0.00162418
0.00162918
0.00163391
0.00102497
0.001053
0.0010813
0.00110961
0.0011377
0.00116536
0.00119243
0.00121877
0.00124428
0.00126887
0.00129249
0.00131509
0.00133666
0.0013572
0.0013767
0.00139517
0.00141265
0.00142916
0.00144472
0.00145939
0.00147318
0.00148615
0.00149833
0.00150977
0.0015205
0.00153056
0.00154
0.00154885
0.00155715
0.00156493
0.00157221
0.00157904
0.00158545
0.00159145
0.00159709
0.00160237
0.00160733
0.00161199
0.00161636
0.00162048
0.00108308
0.00111255
0.00114154
0.00116987
0.00119739
0.00122399
0.00124959
0.00127411
0.00129753
0.00131982
0.00134097
0.001361
0.00137992
0.00139776
0.00141454
0.00143031
0.0014451
0.00145896
0.00147193
0.00148405
0.00149539
0.00150597
0.00151584
0.00152506
0.00153365
0.00154166
0.00154913
0.00155609
0.00156257
0.00156862
0.00157425
0.0015795
0.00158439
0.00158896
0.00159322
0.00159719
0.00160091
0.00160438
0.0012031
0.00122972
0.00125516
0.0012794
0.0013024
0.00132417
0.0013447
0.00136404
0.00138219
0.00139921
0.00141514
0.00143001
0.00144389
0.00145681
0.00146882
0.00147999
0.00149036
0.00149999
0.00150892
0.00151719
0.00152486
0.00153196
0.00153853
0.00154461
0.00155023
0.00155543
0.00156024
0.00156469
0.00156881
0.00157262
0.00157615
0.00157942
0.00158245
0.00158526
0.00120894
0.00123533
0.00126039
0.0012841
0.00130646
0.00132749
0.00134722
0.00136567
0.00138289
0.00139893
0.00141384
0.00142768
0.0014405
0.00145236
0.00146331
0.00147341
0.00148273
0.00149132
0.00149922
0.00150648
0.00151316
0.00151928
0.0015249
0.00153005
0.00153477
0.00153909
0.00154305
0.00154667
0.00154999
0.00155302
0.0015558
0.00155835
0.00156068
0.00156281
0.00121429
0.00124018
0.00126461
0.00128756
0.00130907
0.00132916
0.00134787
0.00136527
0.00138139
0.0013963
0.00141006
0.00142274
0.00143438
0.00144507
0.00145486
0.00146382
0.00147201
0.00147948
0.00148629
0.00149249
0.00149812
0.00150323
0.00150786
0.00151205
0.00151584
0.00151927
0.00152235
0.00152514
0.00152764
0.00152989
0.00153192
0.00153375
0.00153538
0.00153686
0.00121848
0.00124361
0.00126715
0.00128913
0.00130957
0.00132853
0.00134607
0.00136225
0.00137713
0.00139078
0.00140327
0.00141467
0.00142504
0.00143447
0.00144303
0.00145079
0.00145779
0.00146411
0.00146979
0.00147489
0.00147945
0.00148353
0.00148715
0.00149038
0.00149323
0.00149575
0.00149797
0.00149992
0.00150162
0.00150311
0.0015044
0.00150552
0.00150648
0.00150731
0.00124497
0.0012674
0.00128819
0.00130739
0.00132506
0.00134127
0.00135609
0.00136961
0.00138189
0.00139301
0.00140305
0.00141209
0.00142022
0.0014275
0.00143401
0.0014398
0.00144494
0.00144947
0.00145346
0.00145695
0.00145999
0.00146262
0.00146488
0.00146682
0.00146845
0.00146982
0.00147096
0.00147189
0.00147264
0.00147322
0.00147367
0.00147399
0.00147422
0.00124365
0.00126479
0.00128422
0.00130201
0.00131825
0.00133301
0.00134638
0.00135844
0.00136927
0.00137896
0.00138759
0.00139527
0.00140207
0.00140806
0.00141331
0.00141788
0.00142183
0.00142523
0.00142812
0.00143056
0.00143258
0.00143424
0.00143558
0.00143662
0.00143741
0.00143797
0.00143834
0.00143853
0.00143859
0.00143851
0.00143834
0.00143807
0.00143774
0.00123916
0.00125884
0.00127677
0.00129304
0.00130775
0.00132098
0.00133282
0.00134337
0.0013527
0.00136093
0.00136815
0.00137445
0.00137991
0.00138461
0.00138862
0.00139199
0.00139479
0.00139708
0.00139891
0.00140033
0.00140139
0.00140213
0.00140258
0.00140278
0.00140278
0.00140259
0.00140224
0.00140177
0.00140118
0.00140051
0.00139977
0.00139898
0.00139815
0.00124921
0.00126555
0.00128023
0.00129334
0.00130499
0.00131526
0.00132427
0.00133209
0.00133887
0.00134468
0.00134963
0.00135379
0.00135724
0.00136004
0.00136225
0.00136395
0.00136519
0.00136601
0.00136648
0.00136663
0.0013665
0.00136614
0.00136558
0.00136485
0.00136398
0.00136299
0.00136191
0.00136076
0.00135957
0.00135833
0.00135709
0.00135583
0.00123571
0.0012504
0.00126345
0.00127494
0.00128499
0.0012937
0.00130117
0.00130752
0.00131288
0.00131733
0.00132098
0.00132388
0.00132613
0.00132778
0.00132891
0.00132957
0.00132983
0.00132972
0.00132931
0.00132863
0.00132772
0.00132663
0.00132538
0.001324
0.00132253
0.00132098
0.00131938
0.00131775
0.00131611
0.00131447
0.00131284
0.00131124
0.00121828
0.00123132
0.00124274
0.00125263
0.00126111
0.00126828
0.00127426
0.00127919
0.00128319
0.00128635
0.00128875
0.00129048
0.0012916
0.0012922
0.00129232
0.00129203
0.00129139
0.00129045
0.00128925
0.00128783
0.00128623
0.0012845
0.00128265
0.00128072
0.00127873
0.00127671
0.00127468
0.00127265
0.00127064
0.00126867
0.00126675
0.00126488
0.00119295
0.00120073
0.00120964
0.00122026
0.00123149
0.00123927
0.00124383
0.00124743
0.00125015
0.00125209
0.00125334
0.00125398
0.00125408
0.00125371
0.00125292
0.00125179
0.00125036
0.00124867
0.00124678
0.00124472
0.00124254
0.00124025
0.0012379
0.00123551
0.0012331
0.0012307
0.00122832
0.00122598
0.0012237
0.00122148
0.00121934
0.00121728
0.00115754
0.00116082
0.00116452
0.00116979
0.00117726
0.00118672
0.00119727
0.00120739
0.00121413
0.00121496
0.00121517
0.00121483
0.00121402
0.00121279
0.00121121
0.00120934
0.00120722
0.0012049
0.00120242
0.00119983
0.00119715
0.00119442
0.00119166
0.0011889
0.00118616
0.00118347
0.00118083
0.00117827
0.00117579
0.00117341
0.00117113
0.00116897
0.00112834
0.0011274
0.0011266
0.00112728
0.00113024
0.00113569
0.00114328
0.00115231
0.0011618
0.00117014
0.00117475
0.00117355
0.00117193
0.00116997
0.00116771
0.0011652
0.0011625
0.00115966
0.0011567
0.00115367
0.0011506
0.00114752
0.00114445
0.00114142
0.00113844
0.00113554
0.00113273
0.00113003
0.00112743
0.00112497
0.00112263
0.00112043
0.00110393
0.00109922
0.0010938
0.00108981
0.00108853
0.0010904
0.00109509
0.0011019
0.00111003
0.00111854
0.00112606
0.00113048
0.00112846
0.00112585
0.00112301
0.00111998
0.0011168
0.00111353
0.00111019
0.00110682
0.00110345
0.0011001
0.00109681
0.00109359
0.00109046
0.00108744
0.00108453
0.00108176
0.00107913
0.00107665
0.00107433
0.00107216
0.00108123
0.00107587
0.00106663
0.00105774
0.0010515
0.00104903
0.0010503
0.00105469
0.00106135
0.00106923
0.00107701
0.00108286
0.0010842
0.00108105
0.00107772
0.00107425
0.00107069
0.00106707
0.00106343
0.0010598
0.00105621
0.00105269
0.00104925
0.00104592
0.00104271
0.00103964
0.00103671
0.00103394
0.00103134
0.00102891
0.00102665
0.00102458
0.00104891
0.00105237
0.00104321
0.00103055
0.00101939
0.00101209
0.00100932
0.00101065
0.00101526
0.00102204
0.00102961
0.0010362
0.0010395
0.0010361
0.00103236
0.00102853
0.00102465
0.00102076
0.0010169
0.00101309
0.00100936
0.00100572
0.00100221
0.000998834
0.000995609
0.000992546
0.000989657
0.00098695
0.00098443
0.000982102
0.000979971
0.000978036
0.00101488
0.00101744
0.00101865
0.00100654
0.000991724
0.000979604
0.000972298
0.000970025
0.000972071
0.000977288
0.000984154
0.000990721
0.000994377
0.000991393
0.000987314
0.000983196
0.000979078
0.000974994
0.000970975
0.000967046
0.000963232
0.000959553
0.000956024
0.000952662
0.000949478
0.000946483
0.000943685
0.00094109
0.000938703
0.000936527
0.000934563
0.000932813
0.000980299
0.000981724
0.000982061
0.000980951
0.000966915
0.000951275
0.000939415
0.000933021
0.000931902
0.000935016
0.000940738
0.000946874
0.000950454
0.000947275
0.000942919
0.000938573
0.000934274
0.000930052
0.000925936
0.000921948
0.00091811
0.000914438
0.000910948
0.000907653
0.000904561
0.000901681
0.000899019
0.000896581
0.000894368
0.000892383
0.000890626
0.000889097
0.000945521
0.000945889
0.000945254
0.000943733
0.000940491
0.000925599
0.000910365
0.000899744
0.000894953
0.000895373
0.000899405
0.000904664
0.000907798
0.000903995
0.000899415
0.000894893
0.000890465
0.000886157
0.000881995
0.000877998
0.000874185
0.000870571
0.000867166
0.000863981
0.000861024
0.0008583
0.000855815
0.00085357
0.000851567
0.000849806
0.000848287
0.000847006
0.000910277
0.000908727
0.000906379
0.000903342
0.000898452
0.000883741
0.000869942
0.000861337
0.000858522
0.000860257
0.000864128
0.000866468
0.000861746
0.000856982
0.000852329
0.000847815
0.000843466
0.000839302
0.000835341
0.000831596
0.00082808
0.0008248
0.000821765
0.000818979
0.000816447
0.00081417
0.000812149
0.000810384
0.000808874
0.000807616
0.000806608
0.00087518
0.000872761
0.000869629
0.000865897
0.000861662
0.000855926
0.000842343
0.000830746
0.000824564
0.000823525
0.000825289
0.00082571
0.000820666
0.000815755
0.000811006
0.000806444
0.000802091
0.000797963
0.000794074
0.000790433
0.00078705
0.00078393
0.000781077
0.000778493
0.00077618
0.000774138
0.000772366
0.000770862
0.000769623
0.000768645
0.000767925
0.000840857
0.000837606
0.000833727
0.000829325
0.000824504
0.000819356
0.000813825
0.000802207
0.000793199
0.00078908
0.000788219
0.000786093
0.000780867
0.000775832
0.000771014
0.000766434
0.000762107
0.000758045
0.000754258
0.000750752
0.000747532
0.000744598
0.000741953
0.000739596
0.000737526
0.000735739
0.000734235
0.000733008
0.000732054
0.00073137
0.000730949
0.0008076
0.000803522
0.0007989
0.000793841
0.000788442
0.000782793
0.000776982
0.000771081
0.00076334
0.000757007
0.000753267
0.00074782
0.000742425
0.000737284
0.000732418
0.00072784
0.000723562
0.00071959
0.00071593
0.000712581
0.000709545
0.00070682
0.000704403
0.000702291
0.000700479
0.000698964
0.000697739
0.000696801
0.000696143
0.00069576
0.000695646
0.000759624
0.000753641
0.000747486
0.000741242
0.000734978
0.000728767
0.000722662
0.000716707
0.00071093
0.000705389
0.000700157
0.000695256
0.000690697
0.000686483
0.000682618
0.000679099
0.000675924
0.000673088
0.000670586
0.00066841
0.000666555
0.000665013
0.000663778
0.000662842
0.000662199
0.000661842
0.000661764
0.000661958
0.00072685
0.000720268
0.000713587
0.000706888
0.000700245
0.000693721
0.000687369
0.000681244
0.00067538
0.000669802
0.000664518
0.000659581
0.00065504
0.000650893
0.000647137
0.000643766
0.00064077
0.000638141
0.000635868
0.000633941
0.00063235
0.000631083
0.000630133
0.00062949
0.000629145
0.00062909
0.000629317
0.000629819
0.000695685
0.000688486
0.000681255
0.000674074
0.000667019
0.000660154
0.000653535
0.000647207
0.000641204
0.000635562
0.000630294
0.000625405
0.000620893
0.000616798
0.000613144
0.000609915
0.000607096
0.000604673
0.00060263
0.000600952
0.000599625
0.000598635
0.00059797
0.000597619
0.000597571
0.000597817
0.000598347
0.000599153
0.00066625
0.000658416
0.000650611
0.00064292
0.000635419
0.000628175
0.000621246
0.000614678
0.000608507
0.000602758
0.000597445
0.000592583
0.000588165
0.000584176
0.000580619
0.000577517
0.000574864
0.000572639
0.00057082
0.000569388
0.000568322
0.000567606
0.000567224
0.000567162
0.000567407
0.000567949
0.000568777
0.000569882
0.000638636
0.000630151
0.000621747
0.000613512
0.000605525
0.000597859
0.000590572
0.000583715
0.000577324
0.000571425
0.000566032
0.000561148
0.000556771
0.000552891
0.000549484
0.000546522
0.000544021
0.000541983
0.00054038
0.000539185
0.000538375
0.000537927
0.000537822
0.000538044
0.000538577
0.000539409
0.000540529
0.000541928
0.000612934
0.000603773
0.000594738
0.000585919
0.000577402
0.000569261
0.000561562
0.000554359
0.000547692
0.000541587
0.00053606
0.000531111
0.000526734
0.000522911
0.000519621
0.000516834
0.000514509
0.000512645
0.000511245
0.000510278
0.000509714
0.000509527
0.000509693
0.000510191
0.000511006
0.000512121
0.000513526
0.00051521
0.000589191
0.000579329
0.000569631
0.000560189
0.000551093
0.000542423
0.000534253
0.000526642
0.000519635
0.000513263
0.000507541
0.000502472
0.000498044
0.000494237
0.000491022
0.000488363
0.000486225
0.00048456
0.000483353
0.0004826
0.000482271
0.000482335
0.000482763
0.00048353
0.000484618
0.00048601
0.000487692
0.000489653
0.000567442
0.000556857
0.000546465
0.00053636
0.000526634
0.000517378
0.000508672
0.000500585
0.00049317
0.000486462
0.000480481
0.000475229
0.000470693
0.00046685
0.000463666
0.000461099
0.000459104
0.000457632
0.000456632
0.000456084
0.000455978
0.000456282
0.000456962
0.00045799
0.000459344
0.000461003
0.000462954
0.000465185
0.000547744
0.000536397
0.000525274
0.000514462
0.000504057
0.000494155
0.000484847
0.000476212
0.000468314
0.000461196
0.000454882
0.000449378
0.000444671
0.000440735
0.00043753
0.000435009
0.000433119
0.000431803
0.000431005
0.000430666
0.000430771
0.000431305
0.000432227
0.000433507
0.000435117
0.000437036
0.000439249
0.000441741
0.000530134
0.000517976
0.00050608
0.000494519
0.000483384
0.000472777
0.0004628
0.000453543
0.000445082
0.000437473
0.000430748
0.000424916
0.000419969
0.000415876
0.000412594
0.000410069
0.00040824
0.000407042
0.000406411
0.000406282
0.000406601
0.000407348
0.000408501
0.000410022
0.000411879
0.000414049
0.000416514
0.000419261
0.000514646
0.00050161
0.000488894
0.000476541
0.00046463
0.000453264
0.000442551
0.000432598
0.000423494
0.000415309
0.000408086
0.000401845
0.000396579
0.000392259
0.000388838
0.000386255
0.000384441
0.000383322
0.000382823
0.000382872
0.000383399
0.000384359
0.000385729
0.000387479
0.000389574
0.000391987
0.000394697
0.000397689
0.000501349
0.000487331
0.000473725
0.000460532
0.000447802
0.000435626
0.000424118
0.000413396
0.000403568
0.000394719
0.00038691
0.00038017
0.000374501
0.000369876
0.000366246
0.000363545
0.000361694
0.00036061
0.000360207
0.000360403
0.000361118
0.000362279
0.000363857
0.000365828
0.000368153
0.000370799
0.000373746
0.000376977
0.000490366
0.000475199
0.000460595
0.000446494
0.000432897
0.000419866
0.00040751
0.000395954
0.000385323
0.000375724
0.000367235
0.000359903
0.000353739
0.000348724
0.000344808
0.000341921
0.000339977
0.00033888
0.000338534
0.000338842
0.000339715
0.000341072
0.000342854
0.000345031
0.000347573
0.000350444
0.000353619
0.000357081
0.000481857
0.000465307
0.000449537
0.000434427
0.000419904
0.000405977
0.000392727
0.000380281
0.000368777
0.000358344
0.000349082
0.00034106
0.000334305
0.000328807
0.000324521
0.000321375
0.000319273
0.000318111
0.000317778
0.000318164
0.000319168
0.000320696
0.000322666
0.000325041
0.000327793
0.00033088
0.000334275
0.000337959
0.00047606
0.000457824
0.000440635
0.00042435
0.00040881
0.000393937
0.000379757
0.000366377
0.000353941
0.000342597
0.000332474
0.000323664
0.000316216
0.000310137
0.000305389
0.0003019
0.00029957
0.000298284
0.000297916
0.000298341
0.000299444
0.000301118
0.000303268
0.000305832
0.000308779
0.000312072
0.000315678
0.000319578
0.000473269
0.000453018
0.000434065
0.000416337
0.00039962
0.000383725
0.000368576
0.000354228
0.000340815
0.000328498
0.000317432
0.000307739
0.000299496
0.000292731
0.000287421
0.000283499
0.000280863
0.000279387
0.00027893
0.000279354
0.000280523
0.000282316
0.000284625
0.000287364
0.000290495
0.000293985
0.000297795
0.000301903
0.000473627
0.00045123
0.000430115
0.000410558
0.00039239
0.000375326
0.00035915
0.000343808
0.000329388
0.000316051
0.000303974
0.00029331
0.000284171
0.000276614
0.000270637
0.000266184
0.000263154
0.000261413
0.000260808
0.000261182
0.000262381
0.000264264
0.000266709
0.000269613
0.00027292
0.000276594
0.000280598
0.000284904
0.000475988
0.000452626
0.00042917
0.000407319
0.00038728
0.000368777
0.00035145
0.000335074
0.000319631
0.000305246
0.000292107
0.000280399
0.00027027
0.000261815
0.00025506
0.00024997
0.000246449
0.000244362
0.000243542
0.000243813
0.000245
0.000246943
0.000249501
0.000252555
0.000256024
0.000259869
0.000264057
0.000268555
0.000478614
0.000455919
0.000431451
0.00040706
0.000384611
0.000364223
0.000345489
0.000327984
0.000311496
0.000296055
0.000281826
0.000269018
0.000257819
0.000248364
0.000240721
0.000234881
0.000230766
0.00022824
0.000227128
0.000227236
0.000228366
0.000230334
0.000232978
0.000236162
0.00023978
0.000243788
0.000248148
0.000252828
0.000480908
0.000459242
0.000435544
0.000410067
0.000384873
0.000361986
0.000341386
0.000322523
0.000304928
0.000288428
0.000273106
0.000259168
0.000246835
0.000236291
0.000227652
0.000220948
0.000216126
0.00021306
0.000211571
0.000211447
0.000212467
0.000214422
0.000217124
0.000220416
0.000224172
0.00022833
0.00023285
0.000237702
0.000462017
0.000439444
0.000414825
0.000388442
0.000362605
0.000339456
0.000318779
0.000299889
0.0002823
0.000265897
0.000250826
0.000237324
0.000225621
0.000215887
0.000208203
0.000202556
0.000198841
0.000196878
0.000196445
0.000197297
0.000199194
0.000201922
0.000205299
0.000209179
0.000213474
0.000218143
0.000223154
0.000463994
0.000442581
0.00041918
0.000393736
0.000366568
0.000340271
0.000317044
0.000296426
0.000277609
0.000260128
0.000243948
0.000229272
0.000216365
0.000205454
0.000196683
0.000190091
0.000185607
0.000183066
0.000182235
0.00018285
0.00018464
0.000187359
0.000190794
0.000194778
0.000199198
0.000204004
0.000209164
0.000422555
0.000398429
0.000372268
0.000344458
0.000317906
0.000294792
0.00027436
0.000255717
0.000238457
0.000222637
0.000208515
0.000196372
0.000186421
0.000178767
0.000173391
0.000170154
0.000168828
0.000169127
0.000170753
0.00017342
0.000176886
0.000180953
0.000185482
0.000190414
0.000195712
0.000424679
0.000401925
0.000377189
0.000350431
0.000322143
0.000295566
0.000272753
0.000252627
0.000234259
0.000217345
0.000202038
0.000188642
0.00017744
0.000168618
0.000162226
0.00015817
0.000156238
0.000156133
0.000157527
0.000160098
0.000163561
0.000167688
0.000172311
0.000177356
0.00018278
0.000403941
0.000380695
0.000355476
0.000328252
0.000299678
0.000273325
0.000250988
0.000231278
0.000213294
0.000196865
0.000182239
0.000169753
0.000159677
0.000152149
0.000147145
0.000144486
0.000143878
0.000144964
0.000147383
0.000150806
0.000154968
0.000159671
0.000164812
0.000170348
0.000404205
0.000382493
0.00035889
0.000333325
0.000305775
0.000277137
0.000251272
0.00022957
0.000210376
0.000192891
0.000177104
0.000163343
0.000151961
0.000143196
0.000137116
0.000133601
0.000132375
0.000133066
0.00013527
0.000138611
0.000142779
0.00014754
0.000152761
0.000158397
0.000402459
0.000382304
0.000360371
0.000336557
0.000310792
0.000283063
0.000254616
0.000229508
0.000208572
0.000189989
0.000173136
0.000158165
0.00014547
0.000135394
0.000128118
0.000123613
0.000121646
0.00012184
0.000123756
0.000126966
0.000131106
0.000135902
0.000141186
0.000146906
0.000379874
0.00035964
0.00033764
0.000313769
0.000287957
0.000260202
0.000232235
0.000208141
0.000188073
0.000170198
0.000154128
0.000140169
0.000128752
0.000120185
0.000114559
0.000111716
0.000111301
0.000112844
0.000115865
0.000119939
0.000124742
0.00013007
0.000135858
0.000374979
0.000356446
0.000336294
0.000314392
0.000290627
0.00026493
0.000237306
0.000210131
0.000187277
0.000168154
0.000151095
0.000135985
0.000123255
0.000113339
0.000106474
0.000102618
0.000101467
0.000102541
0.000105304
0.000109268
0.000114049
0.000119399
0.000125237
0.000350581
0.000332277
0.00031238
0.000290748
0.000267262
0.00024185
0.00021453
0.000188453
0.000167016
0.000148902
0.000132792
0.000118848
0.00010758
9.93889e-05
9.43867e-05
9.23637e-05
9.28566e-05
9.52849e-05
9.9087e-05
0.000103812
0.000109159
0.000115026
0.000341891
0.000325398
0.000307499
0.000288034
0.000266851
0.000243822
0.000218874
0.000192064
0.000167361
0.000147451
0.000130415
0.000115423
0.000102878
9.33214e-05
8.70578e-05
8.40228e-05
8.38099e-05
8.58115e-05
8.93928e-05
9.40234e-05
9.93425e-05
0.000105209
0.000330292
0.000315539
0.000299583
0.000282262
0.000263405
0.000242845
0.000220444
0.000196131
0.000170112
0.000147022
0.000128679
0.000112815
9.91508e-05
8.82638e-05
8.06612e-05
7.64793e-05
7.54246e-05
7.6894e-05
8.01837e-05
8.46742e-05
8.9933e-05
9.57726e-05
0.000302667
0.000288559
0.000273305
0.000256729
0.000238642
0.000218858
0.000197219
0.000173652
0.000148848
0.000127625
0.000110821
9.62614e-05
8.41697e-05
7.52118e-05
6.97694e-05
6.77313e-05
6.85482e-05
7.14635e-05
7.57601e-05
8.09201e-05
8.67023e-05
0.000286853
0.000274465
0.000261157
0.000246761
0.000231085
0.000213914
0.000195032
0.000174256
0.000151494
0.000128429
0.00010933
9.40146e-05
8.09379e-05
7.06955e-05
6.39234e-05
6.07656e-05
6.07978e-05
6.32423e-05
6.72826e-05
7.22996e-05
7.79894e-05
0.000268265
0.000257446
0.000245929
0.000233567
0.00022018
0.000205554
0.000189447
0.000171611
0.000151828
0.000129998
0.000109064
9.22122e-05
7.83968e-05
6.70489e-05
5.89524e-05
5.45636e-05
5.3673e-05
5.55371e-05
5.9249e-05
6.40725e-05
6.96285e-05
0.000237757
0.00022785
0.000217334
0.000206056
0.000193825
0.000180407
0.000165534
0.000148928
0.000130355
0.000109737
9.09904e-05
7.62937e-05
6.41304e-05
5.48291e-05
4.91531e-05
4.72086e-05
4.8372e-05
5.16726e-05
5.62451e-05
6.1618e-05
0.000215752
0.000207264
0.000198379
0.000188981
0.000178913
0.000167974
0.000155911
0.000142429
0.000127225
0.00011006
9.10216e-05
7.43807e-05
6.16945e-05
5.14636e-05
4.45416e-05
4.14406e-05
4.17778e-05
4.45741e-05
4.88301e-05
5.39615e-05
0.000191868
0.000184618
0.000177145
0.000169373
0.000161189
0.000152433
0.000142889
0.000132276
0.00012025
0.000106435
9.05135e-05
7.36413e-05
5.94884e-05
4.87023e-05
4.07024e-05
3.63987e-05
3.57897e-05
3.79809e-05
4.18485e-05
4.66693e-05
0.00016661
0.000160437
0.000154178
0.000147789
0.000141201
0.000134303
0.000126935
0.000118864
0.000109774
9.92581e-05
8.68566e-05
7.21847e-05
5.77979e-05
4.63299e-05
3.75483e-05
3.20906e-05
3.04421e-05
3.1926e-05
3.53304e-05
3.97622e-05
0.000140523
0.000135304
0.000130095
0.000124879
0.000119622
0.000114264
0.000108703
0.000102778
9.62499e-05
8.87782e-05
7.9917e-05
6.91717e-05
5.62069e-05
4.39925e-05
3.48539e-05
2.84696e-05
2.57574e-05
2.64447e-05
2.93148e-05
3.32766e-05
0.000114177
0.000109829
0.000105552
0.000101348
9.72096e-05
9.31123e-05
8.90048e-05
8.47962e-05
8.0334e-05
7.53758e-05
6.95555e-05
6.23691e-05
5.32412e-05
4.2263e-05
3.22744e-05
2.54172e-05
2.17351e-05
2.15662e-05
2.38444e-05
2.72716e-05
8.81722e-05
8.46492e-05
8.12322e-05
7.79346e-05
7.47631e-05
7.17148e-05
6.87724e-05
6.58961e-05
6.30082e-05
5.99678e-05
5.65287e-05
5.22818e-05
4.66045e-05
3.8728e-05
2.99068e-05
2.27791e-05
1.83422e-05
1.73027e-05
1.8949e-05
2.18034e-05
6.31761e-05
6.04613e-05
5.78704e-05
5.54202e-05
5.3122e-05
5.09814e-05
4.89971e-05
4.7158e-05
4.54363e-05
4.37726e-05
4.20484e-05
4.00361e-05
3.73258e-05
3.32628e-05
2.70873e-05
2.01551e-05
1.5444e-05
1.36309e-05
1.46294e-05
1.69285e-05
4.00402e-05
3.81339e-05
3.63556e-05
3.47192e-05
3.32332e-05
3.19021e-05
3.07278e-05
2.97094e-05
2.88418e-05
2.81104e-05
2.74773e-05
2.68555e-05
2.60599e-05
2.47123e-05
2.21443e-05
1.7707e-05
1.27746e-05
1.04632e-05
1.08116e-05
1.18302e-05
2.00992e-05
1.89976e-05
1.80073e-05
1.71339e-05
1.63782e-05
1.57395e-05
1.52178e-05
1.4814e-05
1.45306e-05
1.43695e-05
1.43231e-05
1.43585e-05
1.4422e-05
1.43409e-05
1.38614e-05
1.24623e-05
9.78384e-06
7.55017e-06
7.51979e-06
7.55684e-06
5.82898e-06
5.44853e-06
5.12502e-06
4.85471e-06
4.63364e-06
4.4595e-06
4.33189e-06
4.25253e-06
4.22566e-06
4.2569e-06
4.33237e-06
4.37891e-06
4.41176e-06
4.47921e-06
4.59644e-06
4.7422e-06
4.88841e-06
4.86691e-06
4.75869e-06
4.66708e-06
2.37071e-07
2.09835e-07
1.86371e-07
1.66572e-07
1.50136e-07
1.36705e-07
1.25943e-07
1.17573e-07
1.11397e-07
1.07339e-07
1.06722e-07
1.1414e-07
1.26073e-07
1.42837e-07
1.66282e-07
1.99397e-07
2.54735e-07
3.75878e-07
9.60152e-07
2.57189e-06
0.00261116
0.00258549
0.00255895
0.00253136
0.00250254
0.00247234
0.00244056
0.00240705
0.00237163
0.00233416
0.00229449
0.00225251
0.00220811
0.00216122
0.00211179
0.00205979
0.00200524
0.0019482
0.00188874
0.00182698
0.00176307
0.00169721
0.00162961
0.00156053
0.00149024
0.00141904
0.00134725
0.0012752
0.00120324
0.00113171
0.00106095
0.000991295
0.000923068
0.000856573
0.000792093
0.000729884
0.000670167
0.00061313
0.00055892
0.000507639
0.000459338
0.000414016
0.000371611
0.000331996
0.000294971
0.000260263
0.000227513
0.000196284
0.000166069
0.000136318
0.000106532
7.6488e-05
4.68995e-05
2.11996e-05
6.14243e-06
0.00260975
0.00258375
0.00255683
0.00252883
0.00249957
0.00246889
0.0024366
0.00240255
0.00236658
0.00232853
0.00228829
0.00224572
0.00220075
0.0021533
0.00210333
0.00205083
0.00199583
0.00193839
0.00187859
0.00181656
0.00175246
0.0016865
0.00161888
0.00154986
0.00147972
0.00140877
0.00133731
0.00126567
0.00119419
0.0011232
0.00105304
0.000984029
0.000916479
0.000850683
0.00078691
0.000725402
0.000666369
0.000609984
0.00055638
0.000505647
0.000457823
0.000412896
0.000370791
0.000331374
0.000294436
0.0002597
0.000226806
0.000195326
0.000164769
0.000134634
0.000104526
7.44568e-05
4.55754e-05
2.15054e-05
7.964e-06
0.00260825
0.00258189
0.00255459
0.00252616
0.00249645
0.00246527
0.00243247
0.00239787
0.00236134
0.00232271
0.00228188
0.00223873
0.00219318
0.00214518
0.00209468
0.0020417
0.00198626
0.00192843
0.00186831
0.00180603
0.00174177
0.00167571
0.00160809
0.00153916
0.0014692
0.0013985
0.00132739
0.00125617
0.00118518
0.00111474
0.00104518
0.000976819
0.000909946
0.000844845
0.000781772
0.000720956
0.000662594
0.000606846
0.000553833
0.000503629
0.000456264
0.000411711
0.000369888
0.00033065
0.000293785
0.000259011
0.000225977
0.000194268
0.00016343
0.000133041
0.000102856
7.31523e-05
4.53749e-05
2.33923e-05
1.09031e-05
0.00260665
0.00257993
0.00255222
0.00252336
0.00249317
0.00246149
0.00242816
0.00239301
0.0023559
0.00231669
0.00227527
0.00223154
0.00218542
0.00213687
0.00208585
0.00203239
0.00197652
0.00191832
0.0018579
0.0017954
0.00173098
0.00166486
0.00159726
0.00152843
0.00145867
0.00138825
0.00131749
0.0012467
0.00117621
0.00110633
0.00103739
0.000969669
0.00090347
0.000839059
0.000776678
0.000716545
0.000658841
0.000603716
0.000551275
0.000501584
0.000454657
0.000410461
0.000368901
0.000329828
0.000293026
0.000258216
0.000225057
0.00019316
0.000162128
0.000131633
0.000101596
7.2514e-05
4.61005e-05
2.64539e-05
1.49815e-05
0.00260494
0.00257784
0.00254972
0.0025204
0.00248973
0.00245754