/*--------------------------------*- C++ -*----------------------------------*\
  =========                 |
  \\      /  F ield         | OpenFOAM: The Open Source CFD Toolbox
   \\    /   O peration     | Website:  https://openfoam.org
    \\  /    A nd           | Version:  10
     \\/     M anipulation  |
\*---------------------------------------------------------------------------*/
FoamFile
{
    format      ascii;
    class       volVectorField;
    location    "54000";
    object      U;
}
// * * * * * * * * * * * * * * * * * * * * * * * * * * * * * * * * * * * * * //

dimensions      [0 1 -1 0 0 0 0];

internalField   nonuniform List<vector> 
17981
(
(0.110593 3.2775 9.60912e-22)
(0.106768 3.28485 -9.64099e-22)
(0.103015 3.29189 0)
(0.0993282 3.2986 -6.09515e-21)
(0.0957097 3.30496 1.34212e-20)
(0.0921621 3.31096 -7.27006e-21)
(0.0886879 3.3166 0)
(0.0852898 3.32186 6.28553e-22)
(0.0819704 3.32675 0)
(0.0787322 3.33127 0)
(0.0755774 3.33543 -7.69264e-22)
(0.072508 3.33922 1.4195e-20)
(0.0695256 3.34267 -1.28442e-20)
(0.0666314 3.34579 0)
(0.0638261 3.34858 0)
(0.0611101 3.35106 0)
(0.0584834 3.35325 0)
(0.0559456 3.35517 -1.44682e-20)
(0.053496 3.35682 1.38549e-20)
(0.0511336 3.35823 2.87615e-20)
(0.0488572 3.35941 -2.71173e-20)
(0.0466651 3.36038 -4.34373e-22)
(0.0445556 3.36115 0)
(0.042527 3.36173 0)
(0.0405771 3.36214 2.73355e-20)
(0.0387039 3.3624 -2.58235e-20)
(0.0369051 3.36252 2.65319e-20)
(0.0351785 3.3625 -2.54892e-20)
(0.0335217 3.36236 -3.96115e-22)
(0.0319326 3.36211 0)
(0.0304086 3.36176 1.91216e-22)
(0.0289475 3.36132 -1.87699e-22)
(0.0275471 3.36079 -1.8414e-22)
(0.0262049 3.3602 2.31405e-20)
(0.0249188 3.35953 -2.22911e-20)
(0.0236866 3.35881 -1.73348e-22)
(0.0225062 3.35803 0)
(0.0213753 3.3572 0)
(0.0202921 3.35634 1.62593e-22)
(0.0192545 3.35543 -2.06527e-20)
(0.0182607 3.3545 -9.712e-23)
(0.0173087 3.35353 1.91926e-20)
(0.0163967 3.35255 7.43156e-23)
(0.0155231 3.35154 0)
(0.0146862 3.35052 0)
(0.0138844 3.34948 0)
(0.0131162 3.34843 0)
(0.01238 3.34738 -1.71698e-20)
(0.045626 3.29385 -5.84638e-21)
(0.0411687 3.30149 0)
(0.0367971 3.30881 -1.68438e-20)
(0.0325133 3.31578 4.14632e-20)
(0.0283195 3.32239 -2.35644e-20)
(0.0242186 3.32862 3.5572e-20)
(0.0202134 3.33447 -3.43688e-20)
(0.0163069 3.33992 6.26064e-22)
(0.012502 3.34497 1.39901e-21)
(0.00880122 3.34963 -5.07326e-20)
(0.00520676 3.35389 1.01065e-19)
(0.00172039 3.35776 -5.17936e-20)
(-0.00165659 3.36126 0)
(-0.00492343 3.3644 1.74193e-21)
(-0.00807985 3.36719 -5.86445e-20)
(-0.0111261 3.36965 5.61149e-20)
(-0.0140628 3.3718 5.94933e-20)
(-0.0168912 3.37364 -5.69284e-20)
(-0.0196127 3.37521 9.07678e-22)
(-0.0222291 3.37651 0)
(-0.0247426 3.37757 -4.52286e-22)
(-0.0271554 3.3784 5.87739e-20)
(-0.0294702 3.37903 -5.5012e-20)
(-0.0316896 3.37945 5.79241e-20)
(-0.0338163 3.3797 -1.11026e-19)
(-0.0358534 3.37977 5.36055e-20)
(-0.0378037 3.3797 -5.46605e-20)
(-0.0396703 3.37949 5.2507e-20)
(-0.0414561 3.37915 4.08773e-22)
(-0.0431641 3.3787 0)
(-0.0447973 3.37815 1.9686e-22)
(-0.0463586 3.3775 1.93686e-22)
(-0.0478509 3.37676 -4.88824e-20)
(-0.049277 3.37595 4.74483e-20)
(-0.0506397 3.37508 -5.47677e-22)
(-0.0519416 3.37414 4.63359e-20)
(-0.0531854 3.37315 -4.45033e-20)
(-0.0543736 3.37212 0)
(-0.0555086 3.37104 4.31003e-20)
(-0.0565927 3.36993 -8.35853e-20)
(-0.0576284 3.36879 4.03731e-20)
(-0.0586177 3.36762 -4.02945e-20)
(-0.0595628 3.36643 -6.91264e-22)
(-0.0604656 3.36523 3.80464e-20)
(-0.0613282 3.36401 0)
(-0.0621524 3.36278 0)
(-0.0629399 3.36155 1.39941e-22)
(-0.0636926 3.36031 -6.92777e-23)
(-0.0184572 3.31032 0)
(-0.0235907 3.31823 9.23392e-21)
(-0.0286164 3.32581 -9.85333e-21)
(-0.0335319 3.33303 2.40269e-20)
(-0.0383342 3.33987 -2.49161e-20)
(-0.0430199 3.34631 -2.00046e-21)
(-0.0475856 3.35234 0)
(-0.0520277 3.35796 -1.33975e-21)
(-0.056343 3.36314 -4.31417e-21)
(-0.0605288 3.3679 0)
(-0.0645828 3.37224 1.64249e-21)
(-0.0685033 3.37616 3.37479e-21)
(-0.0722895 3.37967 0)
(-0.0759409 3.3828 -1.84579e-23)
(-0.0794579 3.38555 1.81955e-21)
(-0.0828416 3.38795 0)
(-0.0860933 3.39001 1.2224e-19)
(-0.089215 3.39174 -1.15034e-19)
(-0.0922093 3.39318 -1.23171e-19)
(-0.0950787 3.39434 1.16962e-19)
(-0.0978266 3.39524 -1.85088e-21)
(-0.100456 3.39589 0)
(-0.102971 3.39632 9.07696e-22)
(-0.105374 3.39655 -9.04107e-22)
(-0.10767 3.39659 8.90711e-22)
(-0.109862 3.39645 -1.13311e-19)
(-0.111954 3.39615 1.09633e-19)
(-0.11395 3.39571 -8.5367e-22)
(-0.115854 3.39514 0)
(-0.117669 3.39445 1.06136e-19)
(-0.119399 3.39366 2.5514e-21)
(-0.121048 3.39277 -1.01885e-19)
(-0.122619 3.39179 0)
(-0.124116 3.39074 0)
(-0.125542 3.38962 -9.75449e-20)
(-0.1269 3.38844 9.44037e-20)
(-0.128193 3.38721 -3.61316e-22)
(-0.129425 3.38594 0)
(-0.130598 3.38463 3.46409e-22)
(-0.131715 3.38328 -3.38965e-22)
(-0.132778 3.38191 -8.54471e-20)
(-0.133791 3.38052 8.25265e-20)
(-0.134756 3.37911 1.58552e-22)
(-0.135674 3.37768 -1.55146e-22)
(-0.136549 3.37625 -3.03119e-22)
(-0.137382 3.37481 0)
(-0.138176 3.37337 -1.44584e-22)
(-0.138932 3.37192 -7.37325e-20)
(-0.104357 3.35749 -1.51114e-21)
(-0.10966 3.36413 2.09317e-21)
(-0.114816 3.37032 8.30687e-20)
(-0.119821 3.37607 -1.71954e-19)
(-0.124672 3.38136 9.1358e-20)
(-0.129365 3.38619 -3.12227e-21)
(-0.133897 3.39056 1.08202e-19)
(-0.138268 3.39449 -1.10142e-19)
(-0.142476 3.39799 0)
(-0.146522 3.40106 -1.84899e-21)
(-0.150407 3.40373 1.21562e-19)
(-0.154132 3.40602 -1.17929e-19)
(-0.157701 3.40794 -1.21511e-19)
(-0.161116 3.40952 -9.59483e-21)
(-0.164381 3.41079 1.2002e-19)
(-0.167499 3.41176 -1.24858e-19)
(-0.170475 3.41245 1.19493e-19)
(-0.173314 3.41288 0)
(-0.176019 3.41308 1.1997e-19)
(-0.178596 3.41307 -2.37257e-19)
(-0.18105 3.41285 1.12786e-19)
(-0.183385 3.41246 1.16414e-19)
(-0.185606 3.4119 -1.10856e-19)
(-0.187718 3.41119 -8.75925e-22)
(-0.189725 3.41035 -1.11936e-19)
(-0.191633 3.40939 -6.90513e-22)
(-0.193445 3.40832 -3.90123e-21)
(-0.195167 3.40715 1.05676e-19)
(-0.196801 3.4059 1.04125e-19)
(-0.198353 3.40457 -2.02433e-19)
(-0.199826 3.40318 9.91976e-20)
(-0.201224 3.40173 -9.81085e-20)
(-0.202551 3.40023 9.49967e-20)
(-0.203811 3.39869 -9.4109e-20)
(-0.205006 3.39711 -2.36787e-21)
(-0.20614 3.39551 8.89425e-20)
(-0.207215 3.39388 1.02708e-21)
(-0.208236 3.39224 -8.59347e-20)
(-0.209205 3.39058 8.30333e-20)
(-0.210124 3.38891 3.2024e-22)
(-0.210997 3.38724 3.1306e-22)
(-0.211824 3.38556 7.8458e-20)
(-0.21261 3.38389 -7.61809e-20)
(-0.213355 3.38222 0)
(-0.169895 3.37536 -4.09485e-20)
(-0.175852 3.38215 -3.98834e-21)
(-0.181633 3.38848 0)
(-0.187232 3.39433 9.34252e-20)
(-0.192646 3.39969 -8.95007e-20)
(-0.197869 3.40455 6.41431e-21)
(-0.202899 3.40892 6.78526e-21)
(-0.207735 3.41281 0)
(-0.212377 3.41623 0)
(-0.216825 3.4192 -3.73503e-21)
(-0.221082 3.42174 0)
(-0.225151 3.42387 0)
(-0.229035 3.42561 -3.92034e-21)
(-0.232739 3.42699 1.9672e-21)
(-0.236267 3.42803 -1.28349e-19)
(-0.239626 3.42875 1.22729e-19)
(-0.24282 3.42919 -1.25169e-19)
(-0.245855 3.42935 1.21696e-19)
(-0.248738 3.42927 1.91636e-21)
(-0.251474 3.42897 0)
(-0.25407 3.42846 -1.22046e-19)
(-0.256532 3.42776 -5.15545e-21)
(-0.258864 3.42689 -4.90511e-21)
(-0.261074 3.42588 1.15848e-19)
(-0.263167 3.42472 -1.15039e-19)
(-0.265148 3.42345 -3.35862e-21)
(-0.267024 3.42206 1.11432e-19)
(-0.268798 3.42058 -1.10032e-19)
(-0.270476 3.41902 1.05165e-19)
(-0.272063 3.41739 0)
(-0.273564 3.41569 1.03137e-19)
(-0.274983 3.41393 -1.01028e-19)
(-0.276324 3.41213 0)
(-0.277592 3.4103 7.52698e-22)
(-0.27879 3.40843 7.37227e-22)
(-0.279922 3.40654 7.22144e-22)
(-0.280991 3.40463 9.03581e-20)
(-0.282002 3.40271 -1.7813e-19)
(-0.282956 3.40078 8.71324e-20)
(-0.283858 3.39884 0)
(-0.28471 3.39691 0)
(-0.285515 3.39498 8.1769e-20)
(-0.286275 3.39306 -7.88001e-20)
(-0.286993 3.39114 0)
(-0.235101 3.39356 -4.25347e-20)
(-0.241755 3.40049 -6.86125e-20)
(-0.248198 3.40693 1.54236e-19)
(-0.254425 3.41284 -8.08449e-20)
(-0.260428 3.41822 -1.0287e-19)
(-0.266203 3.42307 9.49694e-20)
(-0.271748 3.42738 -3.47808e-21)
(-0.277061 3.43118 0)
(-0.282143 3.43447 -1.23975e-19)
(-0.286997 3.43728 2.48821e-19)
(-0.291624 3.43962 7.8813e-21)
(-0.296031 3.44153 -1.22845e-19)
(-0.300222 3.44303 -3.97037e-21)
(-0.304204 3.44414 -1.31272e-19)
(-0.307984 3.4449 1.25422e-19)
(-0.311567 3.44532 -1.30779e-19)
(-0.314962 3.44545 -4.96068e-21)
(-0.318176 3.44529 1.24511e-19)
(-0.321217 3.44488 -5.89381e-21)
(-0.324092 3.44423 0)
(-0.326809 3.44338 5.41543e-24)
(-0.329374 3.44233 1.90558e-21)
(-0.331796 3.44111 1.21817e-19)
(-0.334081 3.43974 2.97101e-21)
(-0.336236 3.43823 -2.33579e-19)
(-0.338268 3.4366 1.11889e-19)
(-0.340182 3.43487 -3.53474e-21)
(-0.341986 3.43304 0)
(-0.343684 3.43113 -2.20633e-19)
(-0.345284 3.42915 2.12662e-19)
(-0.346789 3.42711 0)
(-0.348206 3.42502 8.07503e-22)
(-0.349538 3.42289 2.04324e-19)
(-0.350792 3.42073 -1.98024e-19)
(-0.35197 3.41854 0)
(-0.353079 3.41634 -7.45257e-22)
(-0.35412 3.41412 7.30203e-22)
(-0.355099 3.41189 7.1454e-22)
(-0.356019 3.40967 -1.80867e-19)
(-0.356884 3.40744 1.74232e-19)
(-0.357696 3.40522 -6.69981e-22)
(-0.358458 3.40302 -1.69218e-19)
(-0.359174 3.40082 1.63119e-19)
(-0.359846 3.39865 0)
(-0.307598 3.41925 -3.87626e-21)
(-0.314743 3.42575 -4.69302e-21)
(-0.321628 3.43167 0)
(-0.328244 3.43702 -5.99314e-21)
(-0.334588 3.44178 -6.49456e-21)
(-0.340657 3.44597 0)
(-0.346451 3.4496 -1.22188e-19)
(-0.351971 3.45269 1.16402e-19)
(-0.357222 3.45526 0)
(-0.36221 3.45734 -2.62198e-19)
(-0.36694 3.45896 2.54013e-19)
(-0.371421 3.46015 4.07885e-21)
(-0.375661 3.46093 0)
(-0.379669 3.46134 0)
(-0.383454 3.4614 -4.07615e-21)
(-0.387025 3.46115 0)
(-0.390391 3.46062 2.64104e-19)
(-0.393562 3.45982 -5.1489e-19)
(-0.396548 3.45878 5.10382e-19)
(-0.399357 3.45753 -2.46797e-19)
(-0.401997 3.45608 0)
(-0.404479 3.45446 2.48028e-19)
(-0.40681 3.45269 -2.4026e-19)
(-0.408998 3.45079 0)
(-0.41105 3.44876 2.4083e-19)
(-0.412975 3.44664 -4.63389e-19)
(-0.41478 3.44442 2.24696e-19)
(-0.416471 3.44212 -2.2714e-19)
(-0.418054 3.43976 2.17286e-19)
(-0.419536 3.43735 -2.19001e-19)
(-0.420923 3.4349 2.11339e-19)
(-0.422221 3.43241 0)
(-0.423434 3.42989 2.05073e-19)
(-0.424567 3.42735 -1.99657e-19)
(-0.425627 3.42481 0)
(-0.426616 3.42225 -1.95175e-19)
(-0.427539 3.4197 1.88723e-19)
(-0.428401 3.41716 -7.2391e-22)
(-0.429205 3.41462 -1.82401e-19)
(-0.429954 3.4121 3.54958e-19)
(-0.430652 3.40959 -1.72044e-19)
(-0.431303 3.40711 1.71395e-19)
(-0.431908 3.40465 1.65706e-21)
(-0.38912 3.45086 -5.37936e-21)
(-0.396359 3.45609 1.85625e-22)
(-0.403272 3.46069 6.70058e-21)
(-0.409858 3.46467 0)
(-0.416119 3.46806 -2.54825e-19)
(-0.422059 3.47086 4.83527e-19)
(-0.427686 3.47311 1.84787e-20)
(-0.433007 3.47485 1.70576e-20)
(-0.438033 3.4761 -2.66215e-19)
(-0.442772 3.4769 -4.11502e-21)
(-0.447237 3.47727 0)
(-0.451439 3.47727 -2.73148e-19)
(-0.455389 3.4769 -7.3577e-21)
(-0.459099 3.47622 2.65024e-19)
(-0.462581 3.47524 0)
(-0.465846 3.47399 1.6025e-23)
(-0.468905 3.47251 4.07392e-21)
(-0.471769 3.47081 -4.03661e-21)
(-0.474448 3.46891 0)
(-0.476953 3.46685 2.54463e-19)
(-0.479294 3.46464 -2.46585e-19)
(-0.481479 3.46229 0)
(-0.483518 3.45983 1.89646e-21)
(-0.485419 3.45727 2.41854e-19)
(-0.48719 3.45463 -2.29404e-19)
(-0.488839 3.45191 0)
(-0.490375 3.44914 2.29919e-19)
(-0.491802 3.44633 -2.2188e-19)
(-0.493129 3.44347 1.71787e-21)
(-0.494361 3.44059 0)
(-0.495504 3.43769 1.65504e-21)
(-0.496564 3.43478 0)
(-0.497546 3.43187 -2.0524e-19)
(-0.498455 3.42896 3.99602e-19)
(-0.499297 3.42606 -3.91599e-19)
(-0.500074 3.42317 1.92145e-19)
(-0.500792 3.4203 0)
(-0.501454 3.41745 7.18186e-22)
(-0.502064 3.41463 -1.81009e-19)
(-0.502625 3.41184 3.51681e-19)
(-0.503142 3.40908 -1.74006e-19)
(-0.46506 3.47537 -2.0344e-19)
(-0.472517 3.4797 1.92715e-19)
(-0.479589 3.48338 0)
(-0.486281 3.48641 7.5293e-21)
(-0.492602 3.48883 1.25021e-22)
(-0.498561 3.49068 0)
(-0.504172 3.49198 0)
(-0.509446 3.49278 1.66102e-20)
(-0.514397 3.49311 4.21934e-21)
(-0.519039 3.49301 4.2144e-21)
(-0.523387 3.49252 0)
(-0.527456 3.49166 -2.78111e-19)
(-0.531258 3.49048 2.61894e-19)
(-0.534808 3.489 2.75858e-19)
(-0.53812 3.48725 -2.6022e-19)
(-0.541207 3.48526 -4.18386e-21)
(-0.544082 3.48306 4.14728e-21)
(-0.546756 3.48067 0)
(-0.549242 3.47812 4.06065e-21)
(-0.55155 3.47542 2.59853e-19)
(-0.553691 3.4726 -2.50146e-19)
(-0.555676 3.46966 -2.56634e-19)
(-0.557513 3.46664 2.45485e-19)
(-0.559214 3.46354 -3.79054e-21)
(-0.560785 3.46038 0)
(-0.562235 3.45716 3.6715e-21)
(-0.563572 3.45391 2.34936e-19)
(-0.564804 3.45063 -2.26951e-19)
(-0.565936 3.44733 2.24918e-19)
(-0.566976 3.44403 -4.38178e-19)
(-0.56793 3.44072 2.13466e-19)
(-0.568803 3.43742 -2.12489e-19)
(-0.569602 3.43413 2.05567e-19)
(-0.570331 3.43086 -7.92387e-22)
(-0.570995 3.42761 5.91379e-25)
(-0.571599 3.42439 7.61589e-22)
(-0.572147 3.4212 0)
(-0.572643 3.41805 -7.30605e-22)
(-0.57309 3.41493 0)
(-0.573492 3.41186 7.10267e-22)
(-0.550043 3.50188 0)
(-0.557104 3.50446 7.43168e-21)
(-0.563742 3.50641 7.89e-21)
(-0.56997 3.50776 0)
(-0.575805 3.50854 -2.73952e-19)
(-0.581264 3.50881 2.52559e-19)
(-0.586364 3.5086 -8.48991e-21)
(-0.591122 3.50795 -4.32031e-21)
(-0.595556 3.5069 -2.83517e-19)
(-0.599682 3.50549 -1.2445e-20)
(-0.603519 3.50375 2.75846e-19)
(-0.607081 3.50172 0)
(-0.610386 3.49942 -2.80331e-19)
(-0.613447 3.49688 -9.23885e-21)
(-0.61628 3.49414 5.475e-19)
(-0.618898 3.49122 -2.65245e-19)
(-0.621315 3.48813 -2.70297e-19)
(-0.623543 3.48491 5.23194e-19)
(-0.625593 3.48157 -2.61358e-19)
(-0.627479 3.47813 -2.00547e-21)
(-0.629208 3.4746 -1.98351e-21)
(-0.630793 3.47101 -2.48882e-19)
(-0.632243 3.46737 -4.9238e-21)
(-0.633568 3.46368 2.38466e-19)
(-0.634774 3.45997 -1.86588e-21)
(-0.635872 3.45624 0)
(-0.636868 3.4525 -1.80392e-21)
(-0.637769 3.44877 0)
(-0.638582 3.44504 0)
(-0.639314 3.44133 0)
(-0.63997 3.43764 1.67781e-21)
(-0.640557 3.43399 0)
(-0.641078 3.43036 -8.06562e-22)
(-0.641539 3.42677 6.5158e-25)
(-0.641944 3.42323 -7.75562e-22)
(-0.642299 3.41973 1.97006e-19)
(-0.642606 3.41628 -1.8944e-19)
(-0.642869 3.41288 1.90121e-19)
(-0.647912 3.52425 2.77353e-19)
(-0.653475 3.52392 -2.55807e-19)
(-0.658646 3.5231 8.70248e-21)
(-0.663444 3.52184 0)
(-0.66789 3.52018 -2.88795e-19)
(-0.672005 3.51816 2.76347e-19)
(-0.675807 3.51582 -2.58017e-23)
(-0.679316 3.51318 4.40604e-21)
(-0.682549 3.51029 0)
(-0.685523 3.50717 -4.37296e-21)
(-0.688255 3.50384 -4.36066e-21)
(-0.69076 3.50034 -2.80633e-19)
(-0.693052 3.4967 2.70127e-19)
(-0.695147 3.49292 4.24318e-21)
(-0.697055 3.48903 7.41475e-24)
(-0.698792 3.48506 2.72466e-19)
(-0.700369 3.48101 -2.58892e-19)
(-0.701795 3.47691 -2.01924e-21)
(-0.703082 3.47276 -1.9894e-21)
(-0.70424 3.46859 0)
(-0.705278 3.46439 2.49455e-19)
(-0.706204 3.4602 -2.41208e-19)
(-0.707027 3.456 2.41334e-19)
(-0.707755 3.45182 -2.35347e-19)
(-0.708394 3.44766 -2.33045e-19)
(-0.708951 3.44353 2.2739e-19)
(-0.709433 3.43943 -1.74285e-21)
(-0.709846 3.43537 -2.18754e-19)
(-0.710195 3.43136 2.11904e-19)
(-0.710484 3.4274 -2.11248e-19)
(-0.71072 3.42348 2.07145e-19)
(-0.710906 3.41963 2.0294e-19)
(-0.711047 3.41583 -1.98287e-19)
(-0.711146 3.41209 -7.70401e-22)
(-0.720434 3.5388 0)
(-0.726014 3.53781 -1.05406e-22)
(-0.73117 3.53633 2.89773e-19)
(-0.735927 3.53441 -2.85693e-19)
(-0.740309 3.5321 0)
(-0.744337 3.52943 -8.98392e-21)
(-0.748035 3.52644 4.47722e-21)
(-0.751422 3.52317 2.95026e-19)
(-0.754519 3.51965 1.07772e-20)
(-0.757344 3.51591 -2.78135e-19)
(-0.759916 3.51198 -2.86359e-19)
(-0.762251 3.50789 2.79933e-19)
(-0.764366 3.50365 2.86115e-19)
(-0.766275 3.4993 -2.71415e-19)
(-0.767993 3.49485 2.84649e-19)
(-0.769534 3.49033 -2.74786e-19)
(-0.770909 3.48574 -4.2256e-21)
(-0.772131 3.48111 2.70139e-19)
(-0.773211 3.47645 -5.21331e-19)
(-0.77416 3.47177 -7.06751e-21)
(-0.774988 3.46708 2.54019e-19)
(-0.775703 3.4624 -2.54745e-19)
(-0.776315 3.45774 2.48494e-19)
(-0.776831 3.4531 -2.44661e-19)
(-0.77726 3.4485 4.81191e-19)
(-0.777609 3.44393 -2.34809e-19)
(-0.777883 3.43941 0)
(-0.77809 3.43494 -1.78283e-21)
(-0.778235 3.43053 1.75029e-21)
(-0.778324 3.42618 -3.43654e-21)
(-0.778361 3.4219 -2.17857e-19)
(-0.778352 3.41768 2.12102e-19)
(-0.7783 3.41353 1.6208e-21)
(-0.77821 3.40945 0)
(-0.793209 3.55192 -2.63309e-19)
(-0.79871 3.55022 2.81117e-19)
(-0.803761 3.54804 -5.80174e-19)
(-0.808392 3.54543 2.90598e-19)
(-0.812627 3.54243 -9.10499e-21)
(-0.816493 3.53909 -2.92406e-19)
(-0.820012 3.53543 2.8004e-19)
(-0.823209 3.53151 2.97722e-19)
(-0.826103 3.52734 -2.95175e-19)
(-0.828717 3.52297 2.9614e-19)
(-0.831068 3.51841 -2.94099e-19)
(-0.833176 3.51371 0)
(-0.835057 3.50887 -4.53832e-21)
(-0.836728 3.50393 2.88057e-19)
(-0.838203 3.49891 -5.72156e-19)
(-0.839498 3.49381 2.79843e-19)
(-0.840625 3.48867 6.39857e-24)
(-0.841598 3.4835 0)
(-0.842428 3.47831 -8.55217e-21)
(-0.843126 3.47312 2.74895e-19)
(-0.843704 3.46793 -5.32954e-19)
(-0.84417 3.46277 2.6038e-19)
(-0.844534 3.45763 0)
(-0.844805 3.45253 0)
(-0.84499 3.44747 -2.52741e-19)
(-0.845097 3.44247 4.91558e-19)
(-0.845133 3.43752 -2.40925e-19)
(-0.845105 3.43264 2.4001e-19)
(-0.845018 3.42782 -2.32749e-19)
(-0.844878 3.42308 -9.95289e-25)
(-0.84469 3.41842 -2.2708e-19)
(-0.84446 3.41383 2.18578e-19)
(-0.844191 3.40933 -8.48477e-22)
(-0.843888 3.40491 -2.17257e-19)
(-0.865999 3.56333 8.5792e-21)
(-0.871322 3.5609 0)
(-0.876177 3.558 9.12491e-21)
(-0.880594 3.55468 0)
(-0.884602 3.55098 3.1595e-19)
(-0.888228 3.54695 -3.03344e-19)
(-0.891497 3.54262 0)
(-0.894434 3.53803 9.47299e-21)
(-0.897062 3.53321 3.15048e-19)
(-0.899402 3.52819 -2.93911e-19)
(-0.901475 3.52301 -4.73098e-21)
(-0.903301 3.51769 4.71335e-21)
(-0.904896 3.51225 3.09724e-19)
(-0.906278 3.50671 -5.97218e-19)
(-0.907464 3.50111 2.92446e-19)
(-0.908468 3.49545 3.06551e-19)
(-0.909304 3.48975 -2.82988e-19)
(-0.909986 3.48404 -2.91049e-19)
(-0.910527 3.47832 5.78161e-19)
(-0.910937 3.47261 -2.78434e-19)
(-0.911229 3.46692 0)
(-0.911411 3.46126 0)
(-0.911494 3.45565 0)
(-0.911487 3.45008 0)
(-0.911398 3.44457 2.04789e-21)
(-0.911234 3.43913 0)
(-0.911004 3.43375 -1.98364e-21)
(-0.910713 3.42846 2.53298e-19)
(-0.910368 3.42324 -2.43866e-19)
(-0.909975 3.41811 -7.62896e-25)
(-0.909538 3.41307 -2.38211e-19)
(-0.909064 3.40812 2.3121e-19)
(-0.908556 3.40326 1.78309e-21)
(-0.908019 3.3985 0)
(-0.943542 3.56962 2.78168e-19)
(-0.948114 3.56601 -3.05105e-19)
(-0.952238 3.56198 6.02045e-19)
(-0.955944 3.55759 -2.87605e-19)
(-0.959259 3.55287 9.6843e-21)
(-0.962213 3.54787 0)
(-0.964828 3.54262 -6.08265e-23)
(-0.967131 3.53715 -9.76952e-21)
(-0.969143 3.5315 3.19481e-19)
(-0.970885 3.52569 -2.98262e-19)
(-0.972378 3.51976 -1.80475e-23)
(-0.973641 3.51372 4.8568e-21)
(-0.97469 3.50759 0)
(-0.975543 3.50141 3.11763e-19)
(-0.976216 3.49519 -3.06322e-19)
(-0.976723 3.48894 3.06317e-19)
(-0.977078 3.48269 -5.99768e-19)
(-0.977293 3.47645 2.89023e-19)
(-0.977382 3.47022 4.58329e-21)
(-0.977355 3.46403 0)
(-0.977223 3.45789 0)
(-0.976995 3.4518 -2.85028e-19)
(-0.976682 3.44577 2.76446e-19)
(-0.976291 3.43981 -2.14634e-21)
(-0.975831 3.43393 0)
(-0.975309 3.42813 2.08133e-21)
(-0.974732 3.42243 -2.04799e-21)
(-0.974106 3.41681 0)
(-0.973437 3.41129 2.55039e-19)
(-0.972731 3.40588 -4.96233e-19)
(-0.971993 3.40056 2.43293e-19)
(-0.971227 3.39535 2.39631e-19)
(-0.970438 3.39025 -2.3608e-19)
(-1.01501 3.57624 2.95165e-19)
(-1.01922 3.57193 -2.91182e-19)
(-1.02298 3.56722 9.56208e-21)
(-1.02632 3.56215 3.21417e-19)
(-1.02927 3.55677 -2.98993e-19)
(-1.03185 3.55112 -9.96214e-21)
(-1.03409 3.54522 3.19053e-19)
(-1.03602 3.53913 2.31142e-20)
(-1.03765 3.53285 -3.18367e-19)
(-1.03902 3.52644 -1.52031e-20)
(-1.04014 3.5199 -1.01311e-20)
(-1.04103 3.51328 -3.3332e-19)
(-1.04171 3.50658 6.44069e-19)
(-1.04219 3.49984 -6.40668e-19)
(-1.0425 3.49306 3.09285e-19)
(-1.04264 3.48628 -3.19669e-19)
(-1.04264 3.4795 3.09707e-19)
(-1.0425 3.47273 4.84491e-21)
(-1.04224 3.46601 -3.10261e-19)
(-1.04187 3.45932 3.00884e-19)
(-1.0414 3.4527 4.689e-21)
(-1.04084 3.44614 0)
(-1.04019 3.43966 0)
(-1.03948 3.43326 -2.90901e-19)
(-1.0387 3.42695 2.82416e-19)
(-1.03787 3.42073 2.80111e-19)
(-1.03698 3.41462 -2.74142e-19)
(-1.03606 3.40861 0)
(-1.03509 3.40271 4.17463e-21)
(-1.0341 3.39693 -2.64236e-19)
(-1.03308 3.39125 2.58711e-19)
(-1.03204 3.3857 2.54946e-19)
(-1.03099 3.38026 -2.53258e-19)
(-1.08534 3.5807 2.96868e-19)
(-1.08914 3.57573 0)
(-1.09248 3.57036 -9.90567e-21)
(-1.09539 3.56465 -9.87259e-23)
(-1.09792 3.55864 -1.02363e-20)
(-1.10008 3.55236 3.48225e-19)
(-1.10191 3.54585 -6.65829e-19)
(-1.10342 3.53915 3.38609e-19)
(-1.10465 3.53229 0)
(-1.1056 3.52528 3.43066e-19)
(-1.10632 3.51818 -3.1581e-19)
(-1.1068 3.51098 0)
(-1.10708 3.50373 3.45906e-19)
(-1.10717 3.49644 -6.68882e-19)
(-1.10709 3.48913 6.70565e-19)
(-1.10684 3.48182 7.9807e-21)
(-1.10646 3.47453 -6.56225e-19)
(-1.10594 3.46726 3.21858e-19)
(-1.10531 3.46004 -7.29016e-24)
(-1.10457 3.45288 3.22196e-19)
(-1.10374 3.44579 -3.22618e-19)
(-1.10283 3.43877 0)
(-1.10184 3.43184 0)
(-1.10078 3.42501 -3.08921e-19)
(-1.09967 3.41828 -4.4954e-21)
(-1.09851 3.41165 2.9596e-19)
(-1.0973 3.40514 0)
(-1.09606 3.39875 0)
(-1.09479 3.39248 -2.20625e-21)
(-1.0935 3.38633 -2.17014e-21)
(-1.09219 3.38031 -4.26722e-21)
(-1.09087 3.37442 2.71949e-19)
(-1.08953 3.36866 -5.37013e-19)
(-1.15748 3.57743 3.0417e-19)
(-1.16037 3.57146 3.34087e-19)
(-1.16283 3.56515 -3.31614e-19)
(-1.1649 3.55854 -3.35056e-19)
(-1.16662 3.55167 3.2235e-19)
(-1.16799 3.54459 0)
(-1.16906 3.53731 -1.09005e-20)
(-1.16985 3.52988 3.56503e-19)
(-1.17037 3.52232 2.3596e-20)
(-1.17066 3.51467 -7.14332e-19)
(-1.17072 3.50693 3.40696e-19)
(-1.17058 3.49915 3.5084e-19)
(-1.17025 3.49134 -3.45358e-19)
(-1.16976 3.48351 0)
(-1.16911 3.4757 -3.51138e-19)
(-1.16833 3.46791 6.89379e-19)
(-1.16742 3.46016 -3.4377e-19)
(-1.16641 3.45247 -5.30568e-21)
(-1.16529 3.44484 0)
(-1.16409 3.43729 5.20301e-21)
(-1.1628 3.42983 0)
(-1.16145 3.42247 0)
(-1.16005 3.41522 -3.21423e-19)
(-1.15859 3.40807 3.17309e-19)
(-1.15709 3.40105 0)
(-1.15556 3.39415 0)
(-1.15399 3.38738 -2.3735e-21)
(-1.15241 3.38075 -3.03389e-19)
(-1.15081 3.37425 2.92655e-19)
(-1.1492 3.36788 4.08149e-25)
(-1.14758 3.36166 -2.88444e-19)
(-1.14596 3.35558 2.84503e-19)
(-1.22394 3.57715 3.35576e-19)
(-1.22634 3.57062 -3.12235e-19)
(-1.22833 3.56375 3.41126e-19)
(-1.22993 3.55659 -3.60743e-19)
(-1.23117 3.54917 -3.51672e-19)
(-1.23208 3.54154 3.39146e-19)
(-1.23269 3.53374 0)
(-1.23302 3.52578 0)
(-1.2331 3.5177 -3.73364e-19)
(-1.23294 3.50952 3.61617e-19)
(-1.23256 3.50128 1.72579e-20)
(-1.23199 3.493 5.74544e-21)
(-1.23125 3.48469 5.73714e-21)
(-1.23034 3.47638 -3.71471e-19)
(-1.22928 3.46808 -9.02199e-21)
(-1.22809 3.45982 3.58926e-19)
(-1.22679 3.45161 3.64792e-19)
(-1.22538 3.44346 -3.54416e-19)
(-1.22388 3.43538 0)
(-1.22229 3.42739 0)
(-1.22064 3.4195 -3.51224e-19)
(-1.21893 3.41172 3.46764e-19)
(-1.21716 3.40406 3.4294e-19)
(-1.21535 3.39651 -6.74576e-19)
(-1.21351 3.3891 3.29162e-19)
(-1.21164 3.38183 -3.2926e-19)
(-1.20975 3.37469 6.47141e-19)
(-1.20785 3.3677 -3.13027e-19)
(-1.20593 3.36086 0)
(-1.20402 3.35416 3.11757e-19)
(-1.2021 3.34762 -6.05029e-19)
(-1.20019 3.34123 2.97733e-19)
(-1.28819 3.57509 -3.21219e-19)
(-1.29012 3.56804 -1.08307e-20)
(-1.29162 3.56065 1.11152e-20)
(-1.29274 3.55297 3.71844e-19)
(-1.2935 3.54504 -3.47524e-19)
(-1.29394 3.53691 2.33601e-20)
(-1.29408 3.5286 -3.8626e-19)
(-1.29395 3.52015 -1.51968e-20)
(-1.29358 3.51158 3.65085e-19)
(-1.29298 3.50293 1.20358e-20)
(-1.29217 3.49422 -1.21199e-20)
(-1.29117 3.48546 -6.06548e-21)
(-1.29 3.47669 -6.06175e-21)
(-1.28868 3.46792 -6.03208e-21)
(-1.28721 3.45917 0)
(-1.28562 3.45046 0)
(-1.28392 3.4418 -5.94992e-21)
(-1.28212 3.43321 0)
(-1.28024 3.4247 -3.85212e-19)
(-1.27828 3.41629 -1.28239e-20)
(-1.27625 3.40799 7.31809e-19)
(-1.27418 3.3998 -7.35635e-19)
(-1.27205 3.39174 3.58001e-19)
(-1.26989 3.38381 -5.56939e-21)
(-1.26771 3.37601 -2.74993e-21)
(-1.2655 3.36837 0)
(-1.26328 3.36088 3.44982e-19)
(-1.26106 3.35354 -6.7553e-19)
(-1.25883 3.34636 3.30685e-19)
(-1.25661 3.33933 0)
(-1.25439 3.33248 3.26521e-19)
(-1.25219 3.32578 -3.17234e-19)
(-1.35002 3.57154 -3.59006e-19)
(-1.35148 3.56401 7.06971e-19)
(-1.35251 3.55609 -3.58476e-19)
(-1.35316 3.54787 1.18816e-20)
(-1.35346 3.53945 -4.0726e-19)
(-1.35344 3.53085 -1.86511e-20)
(-1.35313 3.5221 8.04717e-19)
(-1.35255 3.51321 -4.04825e-19)
(-1.35172 3.50421 4.11385e-19)
(-1.35069 3.49512 -4.11836e-19)
(-1.34945 3.48597 0)
(-1.34804 3.47679 0)
(-1.34645 3.46758 -6.37463e-21)
(-1.34473 3.45838 4.19999e-19)
(-1.34286 3.4492 -4.01943e-19)
(-1.34088 3.44005 -6.32846e-21)
(-1.33879 3.43097 -4.08046e-19)
(-1.33661 3.42196 3.96864e-19)
(-1.33434 3.41304 -3.89857e-19)
(-1.33201 3.40422 3.97579e-19)
(-1.32962 3.39551 4.01313e-19)
(-1.32718 3.38692 6.62445e-21)
(-1.3247 3.37847 -3.807e-19)
(-1.32219 3.37016 5.93308e-21)
(-1.31966 3.362 -3.74774e-19)
(-1.31712 3.35399 3.64722e-19)
(-1.31457 3.34615 -2.85214e-21)
(-1.31203 3.33847 0)
(-1.30948 3.33095 -3.57035e-19)
(-1.30696 3.32361 -4.04728e-21)
(-1.30444 3.31644 -6.495e-21)
(-1.30195 3.30945 3.41413e-19)
(-1.40935 3.5667 3.86932e-19)
(-1.41037 3.55883 -3.52413e-19)
(-1.41097 3.5505 1.21601e-20)
(-1.41118 3.5418 1.25091e-20)
(-1.41103 3.53282 1.27761e-20)
(-1.41055 3.52365 4.13494e-19)
(-1.40979 3.51437 -8.54232e-19)
(-1.40878 3.50503 4.27873e-19)
(-1.40754 3.49565 1.33376e-20)
(-1.40609 3.48621 0)
(-1.40444 3.47669 -4.50645e-19)
(-1.40262 3.46712 -1.33046e-20)
(-1.40064 3.45752 4.32488e-19)
(-1.39852 3.44792 0)
(-1.39626 3.43834 -4.36718e-19)
(-1.39389 3.4288 4.31562e-19)
(-1.39142 3.41931 1.33829e-20)
(-1.38885 3.4099 4.30617e-19)
(-1.38621 3.40058 1.93866e-21)
(-1.38351 3.39136 -4.09789e-19)
(-1.38075 3.38226 0)
(-1.37795 3.37329 -4.16746e-19)
(-1.37512 3.36445 -6.6839e-21)
(-1.37226 3.35577 4.07915e-19)
(-1.36939 3.34725 -3.96806e-19)
(-1.36652 3.33888 3.95526e-19)
(-1.36364 3.33069 3.04937e-21)
(-1.36077 3.32267 0)
(-1.35792 3.31484 0)
(-1.35508 3.30718 2.91791e-21)
(-1.35227 3.29971 2.87281e-21)
(-1.34949 3.29242 0)
(-1.46614 3.56054 4.03178e-19)
(-1.46675 3.55248 -3.68782e-19)
(-1.46693 3.5439 4.11837e-19)
(-1.46672 3.53487 -4.26042e-19)
(-1.46615 3.52549 -1.10231e-22)
(-1.46525 3.51585 0)
(-1.46406 3.50605 0)
(-1.46262 3.49618 4.61548e-19)
(-1.46095 3.48628 -9.21226e-19)
(-1.45909 3.4764 4.4611e-19)
(-1.45706 3.46653 1.42574e-20)
(-1.45486 3.45663 0)
(-1.4525 3.44668 -4.64431e-19)
(-1.45 3.43673 -1.25614e-20)
(-1.44736 3.42678 9.15786e-19)
(-1.44462 3.41686 -4.58609e-19)
(-1.44177 3.40699 4.60764e-19)
(-1.43884 3.3972 -4.41625e-19)
(-1.43583 3.38749 0)
(-1.43276 3.37789 -1.4006e-20)
(-1.42964 3.36841 6.9438e-21)
(-1.42649 3.35906 4.44918e-19)
(-1.42331 3.34986 -4.26566e-19)
(-1.4201 3.34081 -6.76354e-21)
(-1.4169 3.33193 -1.33678e-20)
(-1.41369 3.32322 -4.25733e-19)
(-1.41049 3.31469 4.14635e-19)
(-1.4073 3.30634 4.14564e-19)
(-1.40413 3.29818 8.1478e-21)
(-1.401 3.29022 -4.01038e-19)
(-1.39789 3.28244 -4.02512e-19)
(-1.39483 3.27487 -4.20047e-21)
(-1.52025 3.55319 -2.28049e-19)
(-1.52046 3.54507 1.8563e-19)
(-1.52026 3.53635 2.22787e-19)
(-1.51966 3.52711 -2.17356e-19)
(-1.51869 3.51744 4.59393e-19)
(-1.51739 3.50744 -4.59403e-19)
(-1.51579 3.49724 0)
(-1.51394 3.48691 1.50235e-20)
(-1.51188 3.47655 4.93854e-19)
(-1.50963 3.4662 -4.76136e-19)
(-1.50721 3.45589 0)
(-1.50465 3.44563 1.51313e-20)
(-1.50194 3.43536 1.51655e-20)
(-1.49909 3.42506 0)
(-1.4961 3.41476 0)
(-1.493 3.40448 7.61784e-21)
(-1.4898 3.39425 -1.51773e-20)
(-1.48651 3.38408 4.81631e-19)
(-1.48315 3.37401 -4.69169e-19)
(-1.47973 3.36403 1.66175e-23)
(-1.47627 3.35418 -1.48603e-20)
(-1.47277 3.34447 0)
(-1.46925 3.3349 4.64191e-19)
(-1.46571 3.3255 -4.59443e-19)
(-1.46217 3.31626 7.16489e-21)
(-1.45864 3.30721 -3.53609e-21)
(-1.45512 3.29834 0)
(-1.45163 3.28967 -3.44806e-21)
(-1.44816 3.28119 -4.40537e-24)
(-1.44472 3.27292 -4.28534e-19)
(-1.44133 3.26485 4.20538e-19)
(-1.43798 3.25699 0)
(-1.57157 3.54479 -2.52244e-20)
(-1.57142 3.5367 2.22156e-19)
(-1.57087 3.52799 -2.31686e-19)
(-1.56992 3.51868 2.56673e-19)
(-1.5686 3.50885 -2.21234e-19)
(-1.56694 3.4986 -2.55693e-19)
(-1.56497 3.48807 2.48056e-19)
(-1.56275 3.47738 -2.94479e-19)
(-1.56031 3.46661 2.85624e-19)
(-1.55769 3.45584 1.61481e-20)
(-1.55492 3.44512 1.61472e-20)
(-1.55202 3.43447 -3.23477e-20)
(-1.54898 3.42384 -1.62181e-20)
(-1.5458 3.41322 -5.26249e-19)
(-1.54249 3.40257 1.04742e-18)
(-1.53906 3.39194 -5.21246e-19)
(-1.53553 3.38135 -5.16674e-19)
(-1.53191 3.37082 -1.13608e-20)
(-1.52821 3.36038 5.01756e-19)
(-1.52446 3.35004 8.01651e-21)
(-1.52067 3.33982 7.9652e-21)
(-1.51684 3.32974 0)
(-1.51299 3.31981 -7.82458e-21)
(-1.50913 3.31005 0)
(-1.50528 3.30047 -7.67351e-21)
(-1.50143 3.29107 5.00952e-19)
(-1.4976 3.28187 -9.60601e-19)
(-1.49381 3.27287 4.71132e-19)
(-1.49004 3.26407 4.67064e-19)
(-1.48632 3.25549 -4.62072e-19)
(-1.48264 3.24713 3.55163e-21)
(-1.47902 3.23898 -3.5419e-21)
(-1.62009 3.53558 2.29568e-19)
(-1.61962 3.52752 0)
(-1.61877 3.5189 -2.42163e-19)
(-1.61753 3.50966 2.22515e-19)
(-1.6159 3.4998 -2.94363e-19)
(-1.61393 3.48943 -1.34526e-20)
(-1.61164 3.47869 2.79873e-19)
(-1.60909 3.46771 -2.79263e-19)
(-1.60632 3.45661 2.52933e-19)
(-1.60336 3.44547 -3.16393e-19)
(-1.60027 3.43438 2.5457e-19)
(-1.59704 3.42336 -2.46269e-19)
(-1.5937 3.4124 2.89455e-19)
(-1.59023 3.40144 -1.72822e-20)
(-1.58662 3.39046 2.72575e-19)
(-1.58288 3.37948 -2.65593e-19)
(-1.57904 3.36853 8.66046e-21)
(-1.57511 3.35764 0)
(-1.5711 3.34683 0)
(-1.56703 3.33613 0)
(-1.56292 3.32554 0)
(-1.55878 3.3151 5.47167e-19)
(-1.55462 3.30481 -5.2512e-19)
(-1.55046 3.29469 0)
(-1.5463 3.28475 -5.23722e-19)
(-1.54215 3.27501 -1.56896e-20)
(-1.53802 3.26547 5.1669e-19)
(-1.53393 3.25614 3.98545e-21)
(-1.52988 3.24703 -3.92669e-21)
(-1.52588 3.23814 4.98848e-19)
(-1.52194 3.22947 -9.77138e-19)
(-1.51805 3.22104 4.92845e-19)
(-1.66591 3.52589 2.7622e-20)
(-1.66514 3.51779 -2.71737e-19)
(-1.66402 3.50923 2.51547e-19)
(-1.66254 3.50012 -2.63981e-19)
(-1.66067 3.49037 2.76656e-19)
(-1.65845 3.48002 0)
(-1.6559 3.46919 -3.56533e-20)
(-1.65306 3.45802 3.15246e-19)
(-1.65 3.44666 -6.42909e-21)
(-1.64676 3.43523 -5.72458e-19)
(-1.64337 3.42382 -1.03281e-20)
(-1.63986 3.41247 2.90586e-19)
(-1.63625 3.40118 -1.8504e-20)
(-1.6325 3.3899 3.00505e-19)
(-1.62861 3.37859 -2.93049e-19)