/*--------------------------------*- C++ -*----------------------------------*\
  =========                 |
  \\      /  F ield         | OpenFOAM: The Open Source CFD Toolbox
   \\    /   O peration     | Website:  https://openfoam.org
    \\  /    A nd           | Version:  10
     \\/     M anipulation  |
\*---------------------------------------------------------------------------*/
FoamFile
{
    format      ascii;
    class       volVectorField;
    location    "48000";
    object      Urel;
}
// * * * * * * * * * * * * * * * * * * * * * * * * * * * * * * * * * * * * * //

dimensions      [0 1 -1 0 0 0 0];

internalField   nonuniform List<vector> 
17969
(
(0.137533 -0.144296 0)
(-0.0240629 -0.100483 0)
(-0.000529048 -0.0947496 -6.3899e-18)
(0.000905021 -0.0857168 7.3956e-18)
(0.00210776 -0.075017 -2.51654e-18)
(0.00446876 -0.0621446 -2.08059e-18)
(0.00833647 -0.0457888 1.80971e-18)
(0.0143406 -0.0244672 0)
(0.023124 0.00345616 9.85673e-20)
(0.0357946 0.0410612 0)
(0.0533703 0.0910469 0)
(0.0755048 0.152088 0)
(0.101162 0.21988 0)
(0.128823 0.288936 -8.79936e-19)
(0.156709 0.354144 8.03048e-19)
(0.183248 0.411748 0)
(0.207392 0.459839 -5.61983e-19)
(0.2282 0.497705 4.94924e-19)
(0.245587 0.526358 -4.44556e-19)
(0.259987 0.547465 4.10118e-19)
(0.271492 0.562506 0)
(0.2807 0.572921 0)
(0.287979 0.579857 -4.03739e-20)
(0.293784 0.584194 0)
(0.298468 0.586611 0)
(0.302308 0.587626 2.52396e-19)
(0.305522 0.587603 -4.66979e-19)
(0.308276 0.586785 2.16337e-19)
(0.310691 0.585326 1.99157e-19)
(0.31285 0.583321 -2.43501e-20)
(0.31481 0.580827 -2.16446e-19)
(0.316607 0.577882 0)
(0.318264 0.574508 1.50622e-19)
(0.319797 0.570721 -3.19785e-19)
(0.321213 0.566534 9.79379e-22)
(0.322521 0.561953 2.53494e-19)
(0.323721 0.556985 -1.20686e-19)
(0.324818 0.551632 -1.42478e-19)
(0.32581 0.545899 8.20948e-20)
(0.326697 0.539786 0)
(0.327478 0.533293 2.49515e-20)
(0.328151 0.526422 2.39172e-20)
(0.328714 0.519171 1.82273e-19)
(0.329163 0.511539 -1.77012e-19)
(0.329497 0.503524 -1.68574e-19)
(0.329712 0.495123 -3.91063e-20)
(0.329804 0.486335 1.5844e-19)
(0.32977 0.477154 1.51123e-19)
(0.329607 0.467577 -1.87853e-21)
(0.329309 0.4576 -1.42958e-19)
(0.328873 0.447217 -1.70862e-19)
(0.328294 0.436422 1.67258e-19)
(0.327568 0.425209 0)
(0.326689 0.41357 0)
(0.325652 0.401498 3.0304e-20)
(0.324452 0.388983 1.7476e-19)
(0.323083 0.376018 -1.14487e-19)
(0.321539 0.36259 0)
(0.319813 0.348691 0)
(0.317899 0.334307 5.0346e-20)
(0.31579 0.319426 -1.01258e-19)
(0.313478 0.304035 0)
(0.310957 0.288119 0)
(0.308218 0.271664 -4.57206e-20)
(0.305255 0.254653 -8.6892e-20)
(0.30206 0.237068 4.53754e-20)
(0.298625 0.218893 8.3766e-20)
(0.294943 0.200107 0)
(0.291007 0.18069 0)
(0.28681 0.160623 0)
(0.282345 0.139884 7.00621e-20)
(0.277606 0.118452 -4.95793e-21)
(0.272589 0.096304 -1.35505e-19)
(0.267287 0.0734213 0)
(0.261777 0.0501237 6.02183e-20)
(0.256223 0.0270775 5.65583e-20)
(0.250711 0.00462048 -5.27988e-20)
(0.245256 -0.0172441 0)
(0.239871 -0.038563 0)
(0.234544 -0.0593915 0)
(0.229294 -0.0797577 0)
(0.224133 -0.0996617 0)
(0.219061 -0.119102 6.53799e-20)
(0.214077 -0.138078 -1.09274e-19)
(0.209181 -0.156596 7.41302e-20)
(0.20437 -0.174663 -1.32341e-20)
(0.199641 -0.192287 0)
(0.195004 -0.209446 0)
(0.190483 -0.226067 0)
(0.186113 -0.242023 -2.28105e-20)
(0.181925 -0.257214 3.00779e-20)
(0.177875 -0.271735 2.31037e-20)
(0.1739 -0.285738 -2.27771e-20)
(0.169991 -0.299283 1.6673e-20)
(0.16614 -0.312401 -3.20738e-20)
(0.162345 -0.325122 1.19504e-20)
(0.158606 -0.337478 0)
(0.154922 -0.3495 -5.68043e-21)
(0.151293 -0.361217 5.57568e-21)
(0.14772 -0.372663 2.95563e-22)
(0.14468 -0.13825 0)
(-0.0239181 -0.0938668 -2.64297e-17)
(0.00154708 -0.0944518 1.63002e-17)
(0.00200663 -0.0905121 2.94353e-19)
(0.00214002 -0.0849124 1.23039e-17)
(0.00303721 -0.0779494 -1.8857e-17)
(0.00469553 -0.0690045 8.2e-18)
(0.00733673 -0.057104 7.52781e-18)
(0.0112709 -0.0414631 -7.11886e-18)
(0.0170524 -0.0216182 -6.62765e-18)
(0.025176 0.00321583 1.18617e-20)
(0.0364489 0.0351243 5.49929e-18)
(0.0518289 0.0766089 0)
(0.0714584 0.127883 0)
(0.0947482 0.186627 -4.07438e-18)
(0.120674 0.248913 3.59969e-18)
(0.147888 0.31054 0)
(0.174904 0.367817 -2.61922e-18)
(0.200447 0.418085 2.36929e-18)
(0.223793 0.460111 0)
(0.243979 0.493482 -1.78089e-18)
(0.261121 0.519097 1.52824e-18)
(0.275517 0.538259 4.70052e-20)
(0.287304 0.552107 0)
(0.29683 0.561815 1.30056e-18)
(0.304521 0.568305 -8.22324e-20)
(0.310743 0.572297 -2.25634e-18)
(0.315806 0.574378 1.05136e-18)
(0.319973 0.575014 -6.10057e-20)
(0.323457 0.574551 9.30326e-19)
(0.326426 0.573231 -7.9123e-19)
(0.329008 0.571219 0)
(0.331296 0.568621 6.35911e-19)
(0.333354 0.565502 -5.56285e-19)
(0.335226 0.561908 0)
(0.33694 0.557866 7.51621e-20)
(0.338515 0.553397 -7.07793e-20)
(0.339962 0.548515 -4.97843e-19)
(0.34129 0.543229 1.04098e-18)
(0.342502 0.537545 -6.42237e-20)
(0.343601 0.531469 -4.85964e-19)
(0.344587 0.525002 -5.13522e-19)
(0.34546 0.518146 8.29041e-19)
(0.346217 0.510902 -8.92467e-19)
(0.346857 0.503268 7.59833e-19)
(0.347378 0.495244 -3.21129e-19)
(0.347774 0.486826 3.48198e-19)
(0.348044 0.478014 -7.58264e-19)
(0.348183 0.468802 6.48774e-19)
(0.348187 0.459187 -6.2528e-19)
(0.348051 0.449165 2.65574e-19)
(0.34777 0.438729 -3.62689e-20)
(0.347339 0.427875 0)
(0.346753 0.416595 0)
(0.346005 0.404881 -3.27215e-20)
(0.345089 0.392727 -6.32884e-20)
(0.343998 0.380123 2.43542e-19)
(0.342727 0.367059 -3.59493e-19)
(0.341267 0.353525 -4.55694e-19)
(0.339611 0.33951 6.48987e-20)
(0.337751 0.325001 4.35983e-19)
(0.335678 0.309985 5.17143e-19)
(0.333385 0.294447 -5.10148e-19)
(0.330863 0.278374 4.86078e-20)
(0.328103 0.261748 0)
(0.325095 0.244552 4.62964e-20)
(0.321832 0.226768 3.4717e-19)
(0.318304 0.208376 -3.46231e-19)
(0.314502 0.189355 -1.65176e-19)
(0.310419 0.169685 -1.51451e-19)
(0.306046 0.149343 3.1127e-19)
(0.301376 0.128306 2.20544e-19)
(0.296403 0.106552 2.75201e-19)
(0.29112 0.0840611 -2.76046e-19)
(0.285602 0.0611477 -6.33641e-20)
(0.280015 0.0384698 -5.95523e-20)
(0.274446 0.0163659 5.56439e-20)
(0.268922 -0.00515143 1.04854e-19)
(0.26345 -0.026134 2.86435e-19)
(0.258015 -0.0466487 -1.15087e-20)
(0.252646 -0.0667158 -1.75873e-19)
(0.247351 -0.0863332 -3.99806e-20)
(0.242133 -0.105498 0)
(0.236993 -0.124207 1.74335e-20)
(0.231937 -0.142458 -1.54733e-20)
(0.226961 -0.160252 1.41493e-20)
(0.222065 -0.177596 0)
(0.217245 -0.194495 0)
(0.212505 -0.210934 -1.59476e-19)
(0.207862 -0.226851 6.31946e-21)
(0.20335 -0.242124 1.34724e-19)
(0.199002 -0.256634 0)
(0.194797 -0.270437 0)
(0.19067 -0.283697 7.31192e-20)
(0.186601 -0.296524 -1.30469e-19)
(0.18259 -0.308952 6.46179e-20)
(0.178638 -0.321015 0)
(0.174744 -0.332743 0)
(0.17091 -0.344168 -1.44843e-20)
(0.167139 -0.355326 8.18334e-21)
(0.149654 -0.132452 4.15548e-17)
(-0.0232502 -0.0880426 -5.85124e-17)
(0.00363504 -0.0904824 8.11685e-17)
(0.0035689 -0.0900537 -2.5047e-17)
(0.00311344 -0.0874825 4.7447e-19)
(0.00312476 -0.0840355 0)
(0.00359625 -0.0795179 2.95764e-19)
(0.00458966 -0.073367 0)
(0.00631023 -0.0649021 0)
(0.00896818 -0.0535938 4.65595e-19)
(0.0127946 -0.0390625 2.13964e-19)
(0.018209 -0.0210324 0)
(0.0256962 0.000979086 0)
(0.0357439 0.0282032 3.22462e-19)
(0.0491629 0.0625941 -4.77981e-18)
(0.0665222 0.105349 3.98762e-18)
(0.0875325 0.155573 -3.68397e-18)
(0.111596 0.210795 3.47403e-18)
(0.137704 0.267716 -9.48089e-20)
(0.16466 0.323107 -2.82183e-18)
(0.191168 0.374205 2.19632e-18)
(0.216183 0.418964 2.58036e-19)
(0.239032 0.456501 1.14384e-19)
(0.25899 0.486566 0)
(0.276083 0.50995 0)
(0.290634 0.527661 1.48802e-18)
(0.302719 0.540596 -1.15141e-18)
(0.312636 0.549733 -1.53852e-19)
(0.320758 0.555827 -9.30417e-19)
(0.327405 0.559481 1.07824e-18)
(0.332866 0.561213 0)
(0.337388 0.561452 0)
(0.341177 0.56053 1.09421e-19)
(0.344403 0.558694 1.53182e-18)
(0.347197 0.556115 -3.06632e-18)
(0.349659 0.552909 1.35094e-18)
(0.351858 0.549154 8.38766e-20)
(0.353845 0.544899 -1.58357e-19)
(0.355652 0.54018 1.49033e-19)
(0.357299 0.53502 6.99026e-20)
(0.358803 0.529434 0)
(0.360171 0.523434 6.25831e-20)
(0.36141 0.517025 1.195e-19)
(0.362521 0.510214 -7.89061e-19)
(0.363505 0.503002 9.13568e-21)
(0.364362 0.49539 9.32968e-19)
(0.36509 0.487379 0)
(0.365686 0.478967 -6.05662e-22)
(0.366148 0.470151 -1.8175e-19)
(0.366471 0.46093 0)
(0.36665 0.451298 8.33076e-20)
(0.366681 0.441252 -6.38758e-19)
(0.366559 0.430786 6.24135e-19)
(0.366277 0.419895 0)
(0.365829 0.408572 1.44484e-19)
(0.365208 0.396809 0)
(0.364407 0.384598 -1.34584e-19)
(0.363419 0.37193 -5.13846e-19)
(0.362235 0.358796 5.05006e-19)
(0.360847 0.345183 1.21302e-19)
(0.359245 0.331081 0)
(0.357422 0.316477 -5.57951e-19)
(0.355366 0.301356 1.1987e-18)
(0.353068 0.285704 -1.0949e-20)
(0.350518 0.269504 -2.15473e-19)
(0.347705 0.252739 -1.09113e-19)
(0.344619 0.235389 -7.57466e-19)
(0.341249 0.217436 1.20902e-20)
(0.337585 0.198858 7.1057e-19)
(0.333616 0.179633 1.91529e-21)
(0.329334 0.159736 0)
(0.324728 0.139146 4.57893e-19)
(0.319791 0.117837 1.23293e-19)
(0.314514 0.0957888 -5.89723e-19)
(0.308972 0.0733093 0)
(0.303331 0.0510458 0)
(0.297684 0.0293361 -1.20909e-19)
(0.292065 0.00820247 3.23675e-19)
(0.286479 -0.0124021 -9.42723e-19)
(0.280911 -0.0325549 7.87763e-19)
(0.27539 -0.0522759 -4.74033e-19)
(0.269928 -0.0715613 -2.90103e-19)
(0.264527 -0.0904073 3.31377e-19)
(0.259193 -0.10881 -3.22156e-19)
(0.253929 -0.126763 5.45803e-19)
(0.248739 -0.144264 -2.60113e-19)
(0.243623 -0.16131 2.18093e-19)
(0.23858 -0.177904 -4.12279e-19)
(0.233608 -0.194046 1.77729e-20)
(0.228707 -0.209725 1.6912e-20)
(0.223889 -0.224887 1.69605e-19)
(0.21918 -0.239423 0)
(0.214612 -0.253217 9.70177e-20)
(0.210184 -0.266289 -1.74827e-19)
(0.205836 -0.278817 3.16144e-21)
(0.201542 -0.290944 8.28886e-21)
(0.197314 -0.302709 5.33396e-21)
(0.193153 -0.314143 6.30313e-21)
(0.189061 -0.325279 2.46889e-20)
(0.185039 -0.336152 7.84995e-22)
(0.153259 -0.127007 -1.32782e-18)
(-0.0223246 -0.0834092 -1.22855e-16)
(0.00545934 -0.085915 1.24324e-19)
(0.00532846 -0.0868827 1.88361e-18)
(0.00459882 -0.0860759 3.58118e-17)
(0.00422128 -0.084583 2.54004e-17)
(0.0040778 -0.0824995 -3.57947e-19)
(0.00418726 -0.0796154 -1.85633e-17)
(0.00467948 -0.0755264 0)
(0.00569161 -0.0697525 1.64811e-17)
(0.00741811 -0.0618706 -1.5483e-17)
(0.0100278 -0.0514772 0)
(0.0137256 -0.0382453 0)
(0.0187911 -0.0219705 -3.79587e-19)
(0.0256805 -0.00245762 3.38602e-19)
(0.0347107 0.0210061 3.07174e-19)
(0.0464938 0.0498111 8.80906e-18)
(0.0617538 0.0854276 -8.4689e-18)
(0.0805437 0.12792 0)
(0.102542 0.176083 2.15538e-19)
(0.127134 0.227661 6.6796e-18)
(0.153347 0.279905 -1.0969e-17)
(0.180087 0.330226 4.63277e-18)
(0.206226 0.376424 2.64739e-19)
(0.230855 0.416843 3.75688e-18)
(0.253393 0.450807 -3.36958e-18)
(0.273207 0.478207 -3.22245e-18)
(0.290362 0.499728 3.17519e-18)
(0.305139 0.516152 7.01355e-22)
(0.317575 0.528218 -2.46948e-18)
(0.327935 0.536744 2.3347e-18)
(0.336538 0.542361 0)
(0.343671 0.545597 0)
(0.349594 0.546914 -1.92442e-18)
(0.354539 0.546711 2.04645e-18)
(0.358703 0.545307 -1.6954e-18)
(0.362252 0.542945 1.60328e-18)
(0.365321 0.5398 -1.30681e-18)
(0.368012 0.535995 -1.64103e-19)
(0.370401 0.531612 1.13112e-20)
(0.372542 0.526707 2.49581e-18)
(0.37447 0.52132 -2.35378e-18)
(0.376213 0.515475 9.78561e-19)
(0.377787 0.509189 0)
(0.379203 0.502476 0)
(0.380468 0.495342 -1.18069e-19)
(0.381585 0.487792 -8.96371e-19)
(0.382555 0.479829 7.55785e-19)
(0.38338 0.471453 -6.10714e-19)
(0.384055 0.462665 9.858e-19)
(0.38458 0.453462 9.33773e-19)
(0.384948 0.443841 -9.0489e-19)
(0.385157 0.433798 0)
(0.385199 0.42333 -4.91374e-19)
(0.38507 0.412429 6.43601e-19)
(0.384761 0.40109 0)
(0.384266 0.389305 1.46937e-19)
(0.383576 0.377067 1.41513e-19)
(0.382683 0.364365 -2.75076e-19)
(0.381577 0.35119 -1.31424e-19)
(0.380248 0.33753 2.55743e-19)
(0.378685 0.323374 9.70592e-19)
(0.376879 0.308707 -1.1942e-18)
(0.374817 0.293514 9.01602e-19)
(0.372487 0.277781 -1.32112e-18)
(0.369878 0.261488 8.61519e-19)
(0.366978 0.244618 -1.01172e-18)
(0.363772 0.22715 9.99825e-19)
(0.36025 0.209062 -1.88798e-19)
(0.356399 0.19033 -8.98717e-19)
(0.352205 0.170931 7.16716e-19)
(0.347659 0.150839 0)
(0.342749 0.13003 -1.60879e-19)
(0.337466 0.108479 0)
(0.331881 0.0864871 0)
(0.326165 0.0646877 0)
(0.320415 0.0434163 6.30969e-19)
(0.314672 0.0227053 -4.98629e-19)
(0.308941 0.00252273 -2.29032e-19)
(0.303207 -0.0172183 -2.1563e-19)
(0.297499 -0.0365435 9.95313e-20)
(0.291831 -0.0554481 -9.47508e-20)
(0.286207 -0.0739268 -3.37666e-19)
(0.280634 -0.0919747 3.36198e-19)
(0.275116 -0.109586 2.88107e-19)
(0.269659 -0.126755 -2.18889e-20)
(0.264267 -0.143476 -7.42001e-19)
(0.25894 -0.159745 4.04217e-20)
(0.253679 -0.175558 4.28229e-19)
(0.248482 -0.190913 -4.61479e-20)
(0.243351 -0.205795 2.08813e-20)
(0.238293 -0.220157 -2.60852e-19)
(0.233326 -0.233907 2.5074e-19)
(0.228481 -0.246938 -1.25059e-20)
(0.223767 -0.259272 9.95476e-21)
(0.219133 -0.271107 1.11712e-19)
(0.214561 -0.282581 -2.05318e-19)
(0.210073 -0.293733 9.66967e-20)
(0.205668 -0.304593 4.46685e-20)
(0.201346 -0.315196 -6.69192e-20)
(0.197108 -0.32558 2.42718e-20)
(0.19296 -0.335785 -2.12256e-21)
(0.188903 -0.345851 -3.36004e-20)
(0.184942 -0.355815 3.25348e-20)
(0.156064 -0.121813 8.9429e-17)
(-0.0213877 -0.0794926 0)
(0.00694294 -0.0814118 1.01478e-16)
(0.00687523 -0.0831028 9.35992e-19)
(0.0060843 -0.0831414 -8.34503e-17)
(0.00556021 -0.0826196 5.84928e-17)
(0.00515912 -0.0817419 -2.18635e-17)
(0.00487138 -0.0804735 0)
(0.00474245 -0.0786652 1.8252e-17)
(0.00487888 -0.0760534 -3.41166e-17)
(0.00538763 -0.0722928 1.61416e-17)
(0.00639897 -0.0670244 -5.03176e-19)
(0.00808732 -0.0598801 1.52165e-17)
(0.0106154 -0.0505025 -2.82655e-17)
(0.0141641 -0.0385918 1.25987e-17)
(0.0189196 -0.0239666 -7.41665e-19)
(0.0252166 -0.00656782 1.06338e-17)
(0.0334309 0.0140649 -8.98108e-18)
(0.0438898 0.0387306 0)
(0.0572102 0.068598 8.11301e-18)
(0.0738845 0.104486 -8.47248e-18)
(0.0937583 0.146022 -4.27725e-19)
(0.116493 0.1919 0)
(0.141451 0.240085 -6.83671e-19)
(0.167714 0.288239 0)
(0.194277 0.334208 4.04886e-18)
(0.220132 0.376186 2.23414e-19)
(0.244505 0.412821 -3.90659e-18)
(0.266842 0.44361 -1.94557e-19)
(0.286649 0.468599 0)
(0.304 0.488356 0)
(0.319098 0.503485 0)
(0.33198 0.514635 -2.04637e-18)
(0.342869 0.522486 2.22166e-18)
(0.352033 0.527572 -2.60433e-19)
(0.359726 0.530351 1.9628e-18)
(0.366182 0.531239 -1.63142e-18)
(0.371614 0.530599 1.74369e-18)
(0.376209 0.528732 -1.65615e-18)
(0.380132 0.525873 0)
(0.383518 0.522194 1.82548e-18)
(0.386472 0.517819 -1.38709e-18)
(0.389075 0.512835 9.69742e-19)
(0.391385 0.507303 -9.2751e-19)
(0.393445 0.501264 2.91573e-19)
(0.395284 0.494746 -2.75961e-19)
(0.396922 0.48777 0)
(0.398373 0.480348 -1.68521e-21)
(0.399646 0.472489 0)
(0.400745 0.464199 1.55583e-18)
(0.401673 0.455481 -1.93032e-18)
(0.402428 0.446335 2.02851e-19)
(0.403009 0.436761 -1.54522e-18)
(0.403413 0.426757 1.31525e-18)
(0.403634 0.416318 -1.77625e-19)
(0.403666 0.40544 0)
(0.403501 0.394118 0)
(0.403133 0.382344 -1.24887e-18)
(0.402552 0.370111 3.25089e-19)
(0.401747 0.357409 1.17666e-18)
(0.400709 0.344227 8.29492e-19)
(0.399426 0.330556 -1.09042e-18)
(0.397885 0.31638 0)
(0.396075 0.301687 0)
(0.393981 0.286461 -2.39194e-19)
(0.391589 0.270684 0)
(0.388885 0.254337 -2.26532e-19)
(0.385854 0.2374 6.3022e-19)
(0.382481 0.219851 -8.38724e-19)
(0.37875 0.201664 3.9877e-19)
(0.374647 0.182816 3.83117e-19)
(0.370156 0.16328 3.6776e-19)
(0.365265 0.143027 0)
(0.359961 0.122033 3.14816e-19)
(0.354314 0.100586 -3.30966e-19)
(0.348498 0.0793045 5.81096e-19)
(0.342617 0.0585185 -2.93446e-19)
(0.336717 0.0382714 1.02197e-18)
(0.330805 0.0185562 -6.28414e-20)
(0.32487 -0.000722143 1.73797e-19)
(0.318933 -0.0196004 -9.04715e-19)
(0.313016 -0.0380737 6.89029e-19)
(0.307124 -0.056135 -5.99734e-19)
(0.301263 -0.0737785 0)
(0.29544 -0.0909977 8.33147e-20)
(0.289661 -0.107786 5.82543e-19)
(0.283931 -0.124138 -1.16044e-19)
(0.278254 -0.140047 -4.41051e-20)
(0.272634 -0.155507 -4.74276e-19)
(0.267072 -0.17051 -1.37424e-21)
(0.261571 -0.185049 2.48373e-19)
(0.256132 -0.199105 -3.28534e-19)
(0.250762 -0.212639 2.48471e-19)
(0.245471 -0.225569 -2.5261e-19)
(0.240304 -0.23781 1.68148e-19)
(0.235256 -0.249436 -1.53559e-19)
(0.230294 -0.260657 0)
(0.22542 -0.271558 0)
(0.220651 -0.282166 5.70599e-20)
(0.21598 -0.292519 -4.91546e-20)
(0.211407 -0.302656 9.74559e-22)
(0.206935 -0.312623 -2.89611e-22)
(0.202568 -0.322462 -3.12625e-20)
(0.198313 -0.332217 3.02125e-20)
(0.158457 -0.116792 -4.07366e-18)
(-0.0205569 -0.0759489 2.78489e-16)
(0.0081724 -0.0770844 -2.20161e-16)
(0.0082135 -0.0791742 7.04813e-17)
(0.0074414 -0.0796837 0)
(0.00689786 -0.0796722 0)
(0.00641985 -0.0793968 -1.51869e-18)
(0.00598089 -0.0788966 -2.00267e-17)
(0.00560972 -0.0781379 3.48679e-17)
(0.00534474 -0.0770298 -1.65824e-17)
(0.00522949 -0.0754103 0)
(0.00537021 -0.0730513 4.89826e-23)
(0.00586614 -0.0696726 -4.91748e-19)
(0.00682392 -0.0649567 0)
(0.00842079 -0.0585714 9.22297e-19)
(0.0108107 -0.0501886 8.6126e-19)
(0.0141399 -0.0395208 -7.95406e-19)
(0.0185915 -0.0263687 -7.28725e-19)
(0.024372 -0.0106724 0)
(0.0318386 0.00770168 0)
(0.0412448 0.029265 5.33896e-19)
(0.0530009 0.0548378 -3.76042e-22)
(0.0676814 0.0852942 4.56643e-19)
(0.0854977 0.120879 -5.39013e-22)
(0.106264 0.161078 0)
(0.129608 0.204552 -3.4565e-19)
(0.154869 0.249448 -9.2643e-19)
(0.181186 0.293755 -2.77304e-19)
(0.207627 0.335671 0)
(0.233297 0.373716 0)
(0.257533 0.40684 -4.01779e-19)
(0.27979 0.43469 3.64584e-19)
(0.299699 0.457415 2.00158e-18)
(0.317346 0.47547 -3.30393e-19)
(0.332849 0.489328 -3.12161e-19)
(0.346243 0.499582 -2.52091e-18)
(0.357711 0.506776 -2.10273e-18)
(0.367482 0.511347 2.50628e-18)
(0.375775 0.513692 -1.8824e-18)
(0.382798 0.514178 1.79491e-18)
(0.388743 0.513135 -4.21337e-19)
(0.393793 0.510841 0)
(0.398108 0.507519 3.38324e-18)
(0.401824 0.503336 -2.8674e-18)
(0.405049 0.498419 -3.3647e-19)
(0.407869 0.492857 3.18266e-19)
(0.410346 0.486714 3.0328e-19)
(0.412527 0.480037 -1.70454e-18)
(0.414446 0.472856 2.18468e-18)
(0.416127 0.465194 0)
(0.417586 0.457067 -4.91486e-19)
(0.418832 0.448485 0)
(0.419873 0.439454 0)
(0.420709 0.429978 -4.24662e-19)
(0.42134 0.420057 0)
(0.421765 0.409692 -3.87402e-19)
(0.421977 0.398878 3.70579e-19)
(0.421969 0.387612 -1.39982e-18)
(0.421735 0.375889 1.70651e-18)
(0.421264 0.363699 1.28463e-18)
(0.420546 0.351036 -1.57112e-18)
(0.419568 0.337888 6.00619e-19)
(0.418317 0.324244 5.57106e-19)
(0.41678 0.310091 -1.11619e-18)
(0.414942 0.295414 1.04493e-18)
(0.412786 0.280196 -1.03195e-18)
(0.410294 0.264419 4.86087e-19)
(0.407451 0.248062 9.24081e-19)
(0.404238 0.231102 -9.17328e-19)
(0.400635 0.213516 -4.30207e-19)
(0.396625 0.195276 -8.30712e-19)
(0.392189 0.176354 3.83827e-19)
(0.38731 0.156721 1.09412e-18)
(0.38197 0.136347 -3.96099e-19)
(0.37624 0.115509 9.99703e-19)
(0.370297 0.0948036 -1.33469e-18)
(0.364254 0.074554 4.95471e-21)
(0.358155 0.0548125 -8.24489e-19)
(0.352026 0.0356082 1.37917e-18)
(0.345856 0.0168439 0)
(0.339648 -0.00153305 0)
(0.333434 -0.0195202 2.23326e-19)
(0.327222 -0.0371097 -1.02335e-18)
(0.321017 -0.0542946 8.12756e-19)
(0.314829 -0.0710676 6.1028e-19)
(0.308666 -0.0874219 -5.26412e-19)
(0.302533 -0.103352 5.0881e-19)
(0.296436 -0.118852 -5.11099e-19)
(0.290381 -0.133916 -6.37232e-20)
(0.284375 -0.148539 5.5397e-20)
(0.278425 -0.16271 4.88981e-20)
(0.272539 -0.176418 0)
(0.266723 -0.189643 0)
(0.260982 -0.20235 3.06793e-20)
(0.255328 -0.214467 2.62926e-20)
(0.249821 -0.225957 1.52072e-19)
(0.244434 -0.236985 -2.82365e-20)
(0.239131 -0.247676 -1.30348e-19)
(0.233951 -0.258061 6.25076e-20)
(0.228882 -0.268181 -6.37258e-20)
(0.223921 -0.278084 -1.30919e-20)
(0.219072 -0.287822 1.26576e-20)
(0.214343 -0.297445 -2.73808e-20)
(0.209741 -0.307004 -1.87391e-20)
(0.160577 -0.111919 -9.00954e-17)
(-0.019858 -0.0727057 1.45729e-16)
(0.00922987 -0.0730861 -2.35968e-16)
(0.00942457 -0.0754735 7.88904e-17)
(0.00873109 -0.0762817 1.59137e-18)
(0.00824369 -0.076552 -3.49628e-17)
(0.00779168 -0.0765818 5.32256e-17)
(0.00734208 -0.0764455 -2.1142e-17)
(0.00691089 -0.0761534 1.86274e-17)
(0.00651536 -0.0756861 -1.62844e-17)
(0.00617905 -0.0749947 0)
(0.0059364 -0.0739859 4.67333e-19)
(0.00582478 -0.0725129 -1.53703e-17)
(0.00595774 -0.0703881 1.49467e-17)
(0.0063994 -0.0673752 -9.29233e-19)
(0.00728591 -0.0631877 -1.46797e-17)
(0.00875073 -0.0575158 1.51532e-17)
(0.0109523 -0.0500502 1.42852e-17)
(0.0140494 -0.0405119 -3.14373e-20)
(0.0181837 -0.0286873 -1.15357e-17)
(0.023531 -0.0144784 -6.56805e-19)
(0.0303246 0.00210079 5.88741e-19)
(0.0389109 0.0213303 -1.58648e-18)
(0.0494534 0.0436669 -4.78222e-19)
(0.0624075 0.0697878 -7.952e-18)
(0.078314 0.100327 7.42525e-18)
(0.0971368 0.13516 -1.12013e-21)
(0.118679 0.173641 6.8906e-19)
(0.142534 0.214472 -6.2386e-19)
(0.168041 0.256005 5.6171e-19)
(0.194391 0.29654 4.53159e-18)
(0.220722 0.33459 -4.10253e-18)
(0.246241 0.368935 4.1021e-19)
(0.270385 0.398787 -1.54082e-21)
(0.292595 0.423923 3.39866e-19)
(0.312635 0.444555 3.15487e-19)
(0.330613 0.461016 -5.03791e-18)
(0.346545 0.473685 3.63669e-20)
(0.360466 0.483113 4.80706e-18)
(0.372524 0.489699 0)
(0.382906 0.493791 0)
(0.3918 0.495724 0)
(0.399388 0.495828 -3.85692e-18)
(0.405851 0.494402 3.28101e-18)
(0.411361 0.491702 0)
(0.416073 0.487937 0)
(0.420122 0.483272 -3.11002e-18)
(0.423617 0.477831 2.32118e-18)
(0.426646 0.471706 2.4833e-18)
(0.429276 0.464967 -2.38455e-18)
(0.431559 0.457661 5.60295e-19)
(0.433532 0.449826 0)
(0.435222 0.441486 0)
(0.436646 0.43266 9.66238e-19)
(0.437817 0.423358 1.82557e-18)
(0.43874 0.41359 -1.33126e-18)
(0.439418 0.403359 -4.16341e-19)
(0.439848 0.392665 0)
(0.440026 0.381508 -1.89092e-18)
(0.439946 0.369885 2.91145e-20)
(0.439597 0.357789 1.75787e-18)
(0.438968 0.345212 -1.33667e-18)
(0.438047 0.332146 6.36844e-19)
(0.436818 0.318579 0)
(0.435267 0.304497 0)
(0.433374 0.289886 5.447e-19)
(0.431121 0.274728 -3.21519e-20)
(0.428487 0.259002 -3.28512e-20)
(0.425451 0.242687 -5.10493e-19)
(0.421991 0.225757 0)
(0.418083 0.208186 9.12472e-19)
(0.413705 0.189943 8.79481e-19)
(0.408834 0.170998 -1.25572e-18)
(0.40345 0.151316 -7.88741e-19)
(0.397617 0.131158 0)
(0.391518 0.111097 -2.1011e-18)
(0.385276 0.0914426 1.71463e-18)
(0.37893 0.0722471 5.455e-21)
(0.37254 0.0535809 -2.98157e-19)
(0.366094 0.0353836 2.81628e-19)
(0.359568 0.0175708 2.66001e-19)
(0.353003 0.000132091 0)
(0.346412 -0.0169251 0)
(0.339802 -0.0335921 0)
(0.333183 -0.0498603 -7.72754e-19)
(0.326565 -0.0657219 -1.26161e-19)
(0.319955 -0.0811712 1.52383e-18)
(0.313361 -0.0962053 -7.19736e-19)
(0.306794 -0.110823 -4.63339e-19)
(0.300265 -0.125025 5.22226e-19)
(0.293791 -0.138808 0)
(0.287388 -0.152162 3.62717e-19)
(0.281076 -0.165071 -3.50233e-19)
(0.274857 -0.177511 0)
(0.26872 -0.189444 -5.7567e-20)
(0.262745 -0.20081 -1.70938e-19)
(0.256895 -0.211681 1.6579e-19)
(0.251124 -0.22218 -1.04099e-19)
(0.24548 -0.232345 1.00395e-19)
(0.23995 -0.242232 0)
(0.234535 -0.2519 -2.39955e-20)
(0.229243 -0.26141 1.89779e-20)
(0.224085 -0.270826 2.31227e-20)
(0.219075 -0.280204 -6.57871e-20)
(0.214226 -0.289599 4.51094e-20)
(0.162489 -0.107224 2.86771e-18)
(-0.0192701 -0.0698232 0)
(0.010205 -0.0695731 -1.18788e-16)
(0.0105983 -0.0722461 8.45845e-17)
(0.0100332 -0.0732835 -1.02373e-22)
(0.00965547 -0.073727 -1.18632e-18)
(0.00929477 -0.0739168 0)
(0.00891724 -0.0739527 -2.17836e-17)
(0.00853542 -0.0738661 1.94879e-17)
(0.00815822 -0.073663 0)
(0.00779392 -0.0733336 9.39533e-19)
(0.00745553 -0.0728527 0)
(0.00716396 -0.0721718 8.01007e-23)
(0.00695062 -0.0712049 -1.37131e-17)
(0.00686023 -0.0698259 2.77196e-17)
(0.00696052 -0.0678785 -1.40072e-17)
(0.00735847 -0.0651641 1.40385e-17)
(0.00815175 -0.0614292 -2.97897e-17)
(0.00946976 -0.0563884 1.37554e-17)
(0.0114838 -0.0497499 8.20306e-19)
(0.0143315 -0.0412376 -7.69275e-19)
(0.0181656 -0.0306256 -9.96158e-18)
(0.0231394 -0.017771 1.17969e-17)
(0.0294136 -0.00268012 1.17953e-18)
(0.0372547 0.0146239 1.05985e-18)
(0.0469268 0.0344873 -9.52484e-19)
(0.0586068 0.0573417 8.64117e-19)
(0.0727362 0.0836755 0)
(0.0897076 0.11379 -1.02521e-21)
(0.109398 0.147391 1.16112e-21)
(0.131571 0.18378 -6.24238e-19)
(0.15579 0.221758 0)
(0.181415 0.25989 0)
(0.207696 0.29676 7.84386e-18)
(0.233837 0.331146 -5.88678e-18)
(0.259145 0.362018 0)
(0.283147 0.388823 -5.53593e-18)
(0.305263 0.411458 8.94732e-18)
(0.325408 0.430151 -5.40211e-18)
(0.343705 0.445123 0)
(0.360037 0.456739 -4.80108e-18)
(0.374458 0.465387 4.08023e-18)
(0.387091 0.471371 9.64578e-19)
(0.398079 0.474976 -4.10582e-18)
(0.40757 0.476496 3.06451e-18)
(0.415723 0.476221 0)
(0.422704 0.47442 3.13027e-18)
(0.428675 0.471327 -3.75728e-18)
(0.433784 0.467136 2.8245e-18)
(0.438162 0.462004 -2.03824e-18)
(0.441919 0.456055 -3.19168e-18)
(0.445145 0.449385 2.45311e-18)
(0.447909 0.442065 -5.81458e-19)
(0.450267 0.434148 1.63804e-18)
(0.452258 0.425674 -3.21305e-20)
(0.453911 0.416672 -2.01059e-18)
(0.455245 0.407163 0)
(0.456271 0.397158 -2.70396e-18)
(0.456995 0.386668 2.58567e-18)
(0.457418 0.375696 -1.66382e-18)
(0.457535 0.364243 0)
(0.457338 0.352307 7.47691e-19)
(0.456818 0.33988 2.14226e-18)
(0.455963 0.326957 6.57129e-19)
(0.454754 0.313528 -3.41444e-20)
(0.453174 0.29958 -6.49634e-19)
(0.451201 0.285097 2.37122e-18)
(0.448813 0.27006 -2.33898e-18)
(0.445987 0.254449 -1.10201e-18)
(0.442696 0.23824 2.07012e-18)
(0.438911 0.221405 -1.53953e-18)
(0.434605 0.203912 -1.92608e-18)
(0.42975 0.185729 2.70975e-18)
(0.424318 0.166818 -9.08626e-19)
(0.41837 0.147423 0)
(0.412089 0.128088 -7.46627e-19)
(0.405609 0.109105 7.80132e-19)
(0.398969 0.0905121 -2.37731e-18)
(0.392245 0.0724004 1.65448e-18)
(0.38545 0.0548104 -6.12232e-19)
(0.378557 0.0376223 -1.40547e-18)
(0.371584 0.020796 6.93841e-20)
(0.364551 0.00433424 6.75944e-20)
(0.357469 -0.0117523 9.83789e-19)
(0.350348 -0.0274523 1.07415e-18)
(0.343199 -0.0427566 -6.15899e-20)
(0.336033 -0.0576611 -5.87626e-19)
(0.328864 -0.0721688 1.72427e-19)
(0.321711 -0.0862885 -5.86996e-19)
(0.314596 -0.100032 7.14667e-19)
(0.307546 -0.113411 0)
(0.300587 -0.126426 4.00333e-19)
(0.293745 -0.139053 -6.81572e-19)
(0.287021 -0.151251 3.27677e-19)
(0.280407 -0.162971 2.67782e-19)
(0.273942 -0.174171 -2.26563e-19)
(0.267567 -0.184858 2.17761e-20)
(0.261263 -0.19513 -1.01666e-19)
(0.255073 -0.205046 1.0141e-19)
(0.248996 -0.214678 9.04587e-21)
(0.24304 -0.2241 4.59911e-21)
(0.237224 -0.233386 0)
(0.231566 -0.242608 7.61225e-22)
(0.226085 -0.251834 -2.05658e-21)
(0.2208 -0.261122 -3.20063e-21)
(0.215727 -0.270519 1.40309e-19)
(0.210878 -0.280062 -1.4667e-19)
(0.16419 -0.102744 -9.34037e-17)
(-0.0187502 -0.067408 0)
(0.011169 -0.0666951 1.32627e-16)
(0.011789 -0.06967 -8.96947e-17)
(0.0113891 -0.070911 -1.84443e-18)
(0.0111549 -0.0714781 2.54855e-18)
(0.0109239 -0.0717583 3.03111e-17)
(0.0106649 -0.0718745 -2.47867e-17)
(0.0103908 -0.0718722 -1.24651e-18)
(0.0101082 -0.0717701 -1.82537e-17)
(0.00982066 -0.071573 1.53083e-17)
(0.00953247 -0.0712764 8.74242e-19)
(0.00925041 -0.0708668 5.88922e-23)
(0.00898603 -0.070319 7.91719e-19)
(0.00875774 -0.0695887 7.83449e-19)
(0.00859385 -0.0686023 1.26396e-17)
(0.00853781 -0.0672553 -2.92169e-20)
(0.00864084 -0.0654168 -1.22995e-17)
(0.00900536 -0.0629203 0)
(0.00971642 -0.0595482 -8.35611e-19)
(0.0109221 -0.0550428 -1.15362e-17)
(0.0127411 -0.0491289 1.11529e-17)
(0.0153591 -0.041541 1.20444e-17)
(0.0189174 -0.0320488 -1.12879e-17)
(0.0235558 -0.0204884 0)
(0.0294156 -0.00679044 1.18446e-18)
(0.0366659 0.00900118 0)
(0.0455614 0.0268935 9.59095e-19)
(0.0563066 0.0472067 1.71862e-18)
(0.0690818 0.0702794 -7.83338e-19)
(0.0842767 0.096414 7.25607e-19)
(0.102136 0.125654 -1.34574e-18)
(0.122502 0.15763 1.23713e-18)
(0.145094 0.191661 -1.01449e-17)
(0.169468 0.226679 8.25488e-18)
(0.195017 0.261436 0)
(0.221051 0.294762 6.77403e-18)
(0.246849 0.325654 -4.66076e-18)
(0.271843 0.35323 0)
(0.295511 0.377171 0)
(0.317495 0.397504 6.02078e-19)
(0.337783 0.414353 0)
(0.356322 0.427911 -5.36287e-19)
(0.37303 0.438511 0)
(0.387936 0.446389 -3.37791e-18)
(0.401123 0.451765 3.70932e-18)
(0.412686 0.454877 -8.81175e-19)
(0.422747 0.45598 8.33331e-19)
(0.431444 0.455328 0)
(0.438929 0.453157 -7.55422e-19)
(0.445351 0.449679 7.19161e-19)
(0.45085 0.445074 6.8994e-19)
(0.455551 0.439495 -5.27156e-21)
(0.45956 0.433063 0)
(0.462967 0.425874 1.7579e-18)
(0.465841 0.418004 -3.57617e-20)
(0.468237 0.40951 -2.16783e-18)
(0.470196 0.400434 1.01935e-18)
(0.471747 0.390804 -9.62429e-19)
(0.472909 0.380645 9.43546e-19)
(0.47369 0.369973 -1.75611e-18)
(0.47409 0.358795 2.53448e-18)
(0.474112 0.347108 -2.43741e-18)
(0.473752 0.334921 -2.29067e-18)
(0.472994 0.322232 1.49175e-18)
(0.471817 0.309029 -7.0775e-19)
(0.470204 0.295295 -2.64894e-18)
(0.468133 0.281019 1.31497e-18)
(0.465579 0.266184 -5.6826e-19)
(0.462508 0.25077 3.56239e-18)
(0.458889 0.234747 1.5883e-20)
(0.454689 0.218085 -1.57122e-20)
(0.449872 0.200749 -1.98728e-18)
(0.444404 0.1827 1.9278e-18)
(0.43834 0.164165 -2.79235e-18)
(0.431861 0.145656 -1.67957e-18)
(0.425108 0.127444 2.48287e-18)
(0.41813 0.109551 -1.49472e-18)
(0.410977 0.092043 3.57673e-18)
(0.40373 0.0750378 -1.04958e-18)
(0.396395 0.0585167 1.22495e-18)
(0.388945 0.042368 -1.22597e-18)
(0.381407 0.0265674 -1.35979e-18)
(0.373783 0.0111284 8.12661e-19)
(0.366084 -0.00393661 6.92813e-19)
(0.358331 -0.01862 -1.15016e-18)
(0.350546 -0.0329206 -2.01661e-19)
(0.342753 -0.0468523 3.40677e-19)
(0.334983 -0.0604403 -1.51046e-18)
(0.327269 -0.073707 6.31131e-19)
(0.319642 -0.0866748 1.34521e-19)
(0.312124 -0.0993629 0)
(0.304723 -0.111746 -4.89674e-20)
(0.297429 -0.123747 3.16375e-19)
(0.290261 -0.135239 -3.38514e-19)
(0.283194 -0.146156 -1.84987e-19)
(0.276173 -0.15655 3.82735e-19)
(0.269223 -0.166518 -1.67821e-19)
(0.262377 -0.17614 1.12307e-19)
(0.25565 -0.185498 -1.04718e-19)
(0.249068 -0.194678 -7.11779e-20)
(0.242655 -0.203763 4.84328e-20)
(0.236438 -0.212833 -1.57441e-20)
(0.230443 -0.221961 3.04085e-20)
(0.224692 -0.231209 0)
(0.219202 -0.240625 4.09019e-21)
(0.213989 -0.250243 0)
(0.209062 -0.260086 -5.78099e-21)
(0.165669 -0.0984988 9.49195e-17)
(-0.0182554 -0.0655243 -3.29129e-16)
(0.012172 -0.0645174 -3.99664e-18)
(0.0130242 -0.0678078 9.39343e-17)
(0.012807 -0.0692365 0)