/*--------------------------------*- C++ -*----------------------------------*\
  =========                 |
  \\      /  F ield         | OpenFOAM: The Open Source CFD Toolbox
   \\    /   O peration     | Website:  https://openfoam.org
    \\  /    A nd           | Version:  10
     \\/     M anipulation  |
\*---------------------------------------------------------------------------*/
FoamFile
{
    format      ascii;
    class       volScalarField;
    location    "17000";
    object      nut;
}
// * * * * * * * * * * * * * * * * * * * * * * * * * * * * * * * * * * * * * //

dimensions      [0 2 -1 0 0 0 0];

internalField   nonuniform List<scalar> 
17922
(
0.00340945
0.00346224
0.00351503
0.00356777
0.00362041
0.0036729
0.00372519
0.00377723
0.00382895
0.00388029
0.00393119
0.00398157
0.00403135
0.00408045
0.00412879
0.00417627
0.00422279
0.00426825
0.00431255
0.00435556
0.00439716
0.00443723
0.00447564
0.00451224
0.0045469
0.00457945
0.00460973
0.00463759
0.00466262
0.00468438
0.00470279
0.004718
0.00473015
0.00473393
0.00472624
0.004712
0.00469397
0.00467343
0.00465098
0.00462691
0.00460138
0.00457448
0.00454625
0.00451667
0.00448569
0.00445323
0.00441923
0.00438361
0.00434635
0.00430745
0.00426699
0.00422507
0.00418185
0.00413752
0.0040923
0.00404641
0.00400006
0.00395346
0.00390677
0.00386017
0.00381376
0.00376764
0.0037219
0.00367659
0.00363177
0.00358746
0.00354369
0.00350046
0.00345774
0.0034155
0.00337367
0.00333219
0.00329098
0.00324999
0.00320919
0.00316855
0.00312808
0.00308774
0.0030474
0.00300688
0.00296585
0.00292403
0.00288129
0.00283806
0.00279581
0.00275755
0.00272812
0.00271396
0.002722
0.00275733
0.00281941
0.00289636
0.00295492
0.00340941
0.0034622
0.00351499
0.00356772
0.00362035
0.00367284
0.00372512
0.00377716
0.00382887
0.00388021
0.0039311
0.00398147
0.00403125
0.00408035
0.00412868
0.00417615
0.00422266
0.00426812
0.00431241
0.00435541
0.00439701
0.00443708
0.00447548
0.00451208
0.00454673
0.00457927
0.00460956
0.00463742
0.00466245
0.00468421
0.00470262
0.00471784
0.00472999
0.00473395
0.00472578
0.00471118
0.00469297
0.00467231
0.00464978
0.00462565
0.00460008
0.00457314
0.00454487
0.00451524
0.00448421
0.0044517
0.00441764
0.00438197
0.00434465
0.0043057
0.00426518
0.00422319
0.0041799
0.00413549
0.00409018
0.0040442
0.00399774
0.00395103
0.00390423
0.00385749
0.00381095
0.00376469
0.00371881
0.00367337
0.0036284
0.00358395
0.00354003
0.00349666
0.0034538
0.00341143
0.00336948
0.00332788
0.00328657
0.0032455
0.00320464
0.00316397
0.00312348
0.00308314
0.00304283
0.00300234
0.00296139
0.00291968
0.00287713
0.00283426
0.00279262
0.00275534
0.00272732
0.00271497
0.00272498
0.00276197
0.00282457
0.0028999
0.00295476
0.00340938
0.00346217
0.00351495
0.00356768
0.00362031
0.00367279
0.00372507
0.0037771
0.00382881
0.00388014
0.00393102
0.00398139
0.00403116
0.00408025
0.00412857
0.00417604
0.00422255
0.004268
0.00431228
0.00435528
0.00439687
0.00443693
0.00447533
0.00451193
0.00454657
0.00457912
0.0046094
0.00463726
0.00466229
0.00468405
0.00470247
0.00471769
0.00472985
0.00473358
0.00472502
0.00471017
0.00469179
0.00467101
0.00464838
0.00462418
0.00459855
0.00457155
0.00454322
0.00451354
0.00448245
0.00444988
0.00441576
0.00438003
0.00434264
0.00430363
0.00426304
0.00422098
0.00417762
0.00413313
0.00408774
0.00404166
0.0039951
0.00394828
0.00390136
0.0038545
0.00380783
0.00376145
0.00371544
0.00366986
0.00362476
0.00358017
0.00353612
0.00349262
0.00344963
0.00340714
0.00336507
0.00332337
0.00328197
0.00324083
0.00319991
0.00315921
0.00311871
0.00307837
0.00303809
0.00299765
0.00295676
0.00291516
0.00287282
0.00283031
0.00278932
0.00275307
0.00272653
0.00271606
0.00272814
0.00276691
0.00283014
0.00290372
0.00295487
0.00340936
0.00346214
0.00351492
0.00356764
0.00362026
0.00367274
0.00372502
0.00377704
0.00382874
0.00388007
0.00393095
0.00398131
0.00403107
0.00408016
0.00412848
0.00417594
0.00422244
0.00426788
0.00431216
0.00435515
0.00439674
0.0044368
0.00447519
0.00451178
0.00454643
0.00457897
0.00460925
0.00463711
0.00466215
0.00468391
0.00470233
0.00471756
0.00472972
0.00473275
0.00472383
0.00470879
0.00469024
0.00466933
0.0046466
0.0046223
0.00459659
0.00456951
0.00454111
0.00451134
0.00448018
0.00444753
0.00441333
0.00437751
0.00434005
0.00430096
0.00426029
0.00421815
0.0041747
0.00413013
0.00408465
0.00403847
0.00399181
0.00394488
0.00389785
0.00385087
0.00380408
0.00375757
0.00371143
0.00366571
0.00362048
0.00357577
0.00353159
0.00348796
0.00344485
0.00340224
0.00336006
0.00331826
0.00327677
0.00323555
0.00319458
0.00315385
0.00311334
0.00307302
0.00303276
0.00299236
0.00295155
0.00291007
0.00286795
0.00282587
0.00278561
0.00275052
0.00272564
0.00271728
0.00273167
0.00277246
0.00283648
0.00290823
0.0029555
0.00340933
0.00346212
0.00351489
0.0035676
0.00362022
0.00367269
0.00372497
0.00377698
0.00382868
0.00388001
0.00393088
0.00398124
0.00403099
0.00408007
0.00412838
0.00417584
0.00422233
0.00426777
0.00431204
0.00435503
0.00439661
0.00443667
0.00447506
0.00451165
0.00454629
0.00457883
0.00460912
0.00463698
0.00466202
0.00468378
0.00470221
0.00471744
0.0047296
0.00473177
0.00472249
0.00470724
0.00468855
0.00466751
0.00464468
0.0046203
0.00459449
0.00456734
0.00453885
0.004509
0.00447775
0.00444502
0.00441074
0.00437484
0.0043373
0.00429812
0.00425738
0.00421516
0.00417164
0.00412698
0.00408141
0.00403514
0.00398839
0.00394135
0.00389421
0.00384713
0.00380022
0.00375359
0.00370733
0.00366149
0.00361614
0.0035713
0.00352701
0.00348325
0.00344003
0.0033973
0.00335502
0.00331312
0.00327155
0.00323026
0.00318924
0.00314848
0.00310796
0.00306764
0.00302741
0.00298706
0.00294632
0.00290498
0.00286313
0.00282153
0.0027821
0.0027483
0.00272523
0.00271911
0.00273593
0.00277877
0.00284356
0.00291304
0.00294989
0.00340931
0.00346209
0.00351486
0.00356757
0.00362018
0.00367265
0.00372492
0.00377693
0.00382863
0.00387994
0.00393081
0.00398116
0.00403092
0.00407999
0.0041283
0.00417574
0.00422224
0.00426767
0.00431193
0.00435492
0.0043965
0.00443655
0.00447494
0.00451152
0.00454616
0.00457871
0.00460899
0.00463685
0.0046619
0.00468367
0.0047021
0.00471733
0.00472951
0.00473079
0.00472112
0.00470566
0.00468682
0.00466568
0.00464275
0.00461828
0.0045924
0.00456517
0.0045366
0.00450667
0.00447534
0.00444253
0.00440816
0.00437219
0.00433457
0.00429532
0.0042545
0.00421221
0.00416861
0.00412388
0.00407823
0.00403187
0.00398503
0.0039379
0.00389066
0.00384347
0.00379645
0.00374971
0.00370333
0.00365738
0.00361191
0.00356696
0.00352255
0.00347869
0.00343535
0.00339251
0.00335013
0.00330813
0.00326647
0.00322512
0.00318405
0.00314325
0.00310273
0.00306242
0.00302221
0.00298191
0.00294125
0.00290007
0.00285852
0.00281747
0.00277896
0.00274657
0.00272544
0.0027217
0.00274102
0.0027859
0.00285133
0.00291806
0.00294203
0.00340929
0.00346206
0.00351483
0.00356754
0.00362015
0.00367261
0.00372488
0.00377688
0.00382857
0.00387989
0.00393075
0.0039811
0.00403084
0.00407991
0.00412821
0.00417565
0.00422214
0.00426757
0.00431183
0.00435481
0.00439639
0.00443643
0.00447482
0.00451141
0.00454605
0.00457859
0.00460888
0.00463674
0.00466179
0.00468357
0.004702
0.00471724
0.00472942
0.00472982
0.00471977
0.00470408
0.0046851
0.00466384
0.00464083
0.00461628
0.00459032
0.00456302
0.00453437
0.00450437
0.00447296
0.00444007
0.00440563
0.00436958
0.00433189
0.00429257
0.00425168
0.00420932
0.00416565
0.00412085
0.00407512
0.00402869
0.00398177
0.00393455
0.00388722
0.00383993
0.00379281
0.00374596
0.00369948
0.00365342
0.00360784
0.00356278
0.00351826
0.00347429
0.00343084
0.0033879
0.00334541
0.00330332
0.00326158
0.00322016
0.00317904
0.00313821
0.00309768
0.00305738
0.0030172
0.00297695
0.00293639
0.0028954
0.0028542
0.00281377
0.00277629
0.00274544
0.00272641
0.00272521
0.00274714
0.00279407
0.00285999
0.00292341
0.002934
0.00340927
0.00346204
0.0035148
0.00356751
0.00362012
0.00367258
0.00372483
0.00377684
0.00382852
0.00387983
0.00393069
0.00398103
0.00403077
0.00407984
0.00412813
0.00417557
0.00422205
0.00426748
0.00431173
0.00435471
0.00439628
0.00443633
0.00447471
0.0045113
0.00454594
0.00457848
0.00460877
0.00463664
0.0046617
0.00468348
0.00470192
0.00471717
0.00472936
0.00472887
0.00471842
0.00470251
0.00468338
0.00466202
0.00463891
0.00461429
0.00458827
0.00456089
0.00453218
0.00450211
0.00447063
0.00443767
0.00440316
0.00436704
0.00432928
0.00428989
0.00424894
0.00420652
0.00416278
0.00411792
0.00407213
0.00402562
0.00397862
0.00393132
0.0038839
0.00383652
0.00378931
0.00374237
0.00369578
0.00364962
0.00360394
0.00355877
0.00351415
0.00347007
0.00342652
0.00338347
0.00334088
0.0032987
0.00325688
0.0032154
0.00317423
0.00313338
0.00309284
0.00305256
0.00301242
0.00297225
0.00293182
0.00289105
0.00285027
0.00281056
0.00277424
0.0027451
0.00272834
0.00272985
0.00275451
0.00280348
0.00286962
0.00292909
0.00292582
0.00340925
0.00346202
0.00351478
0.00356748
0.00362008
0.00367254
0.0037248
0.00377679
0.00382848
0.00387978
0.00393064
0.00398097
0.00403071
0.00407977
0.00412806
0.00417549
0.00422197
0.00426739
0.00431165
0.00435462
0.00439619
0.00443623
0.00447462
0.0045112
0.00454584
0.00457839
0.00460868
0.00463656
0.00466162
0.00468341
0.00470186
0.00471711
0.00472931
0.00472792
0.00471709
0.00470096
0.00468169
0.00466021
0.00463702
0.00461233
0.00458624
0.0045588
0.00453003
0.0044999
0.00446835
0.00443532
0.00440075
0.00436456
0.00432674
0.0042873
0.00424628
0.00420381
0.00416002
0.00411509
0.00406924
0.00402267
0.0039756
0.00392823
0.00388073
0.00383327
0.00378596
0.00373893
0.00369225
0.00364599
0.00360021
0.00355495
0.00351022
0.00346604
0.00342239
0.00337924
0.00333656
0.00329429
0.0032524
0.00321086
0.00316965
0.00312879
0.00308826
0.00304801
0.00300793
0.00296785
0.00292758
0.0028871
0.00284682
0.00280794
0.00277293
0.00274568
0.00273141
0.00273582
0.00276335
0.0028143
0.00288018
0.00293507
0.00291749
0.00340924
0.003462
0.00351476
0.00356746
0.00362006
0.00367251
0.00372476
0.00377675
0.00382843
0.00387973
0.00393058
0.00398092
0.00403065
0.0040797
0.00412799
0.00417542
0.0042219
0.00426731
0.00431156
0.00435453
0.0043961
0.00443614
0.00447453
0.00451111
0.00454576
0.00457831
0.0046086
0.00463648
0.00466155
0.00468335
0.00470181
0.00471707
0.00472927
0.004727
0.00471579
0.00469944
0.00468001
0.00465843
0.00463516
0.00461039
0.00458424
0.00455675
0.00452792
0.00449773
0.00446612
0.00443303
0.0043984
0.00436215
0.00432428
0.00428478
0.00424371
0.00420119
0.00415735
0.00411237
0.00406646
0.00401984
0.00397271
0.00392527
0.0038777
0.00383016
0.00378277
0.00373566
0.00368889
0.00364254
0.00359667
0.00355131
0.00350648
0.0034622
0.00341846
0.00337522
0.00333245
0.0032901
0.00324814
0.00320655
0.00316532
0.00312445
0.00308394
0.00304373
0.00300374
0.00296378
0.00292372
0.00288359
0.0028439
0.00280599
0.00277245
0.0027473
0.00273573
0.00274325
0.00277381
0.00282665
0.00289156
0.00294143
0.00290901
0.00340922
0.00346199
0.00351474
0.00356743
0.00362003
0.00367248
0.00372473
0.00377672
0.00382839
0.00387969
0.00393054
0.00398086
0.00403059
0.00407964
0.00412793
0.00417535
0.00422183
0.00426724
0.00431149
0.00435445
0.00439602
0.00443606
0.00447445
0.00451103
0.00454568
0.00457823
0.00460853
0.00463642
0.00466149
0.0046833
0.00470177
0.00471704
0.00472925
0.0047261
0.00471452
0.00469794
0.00467836
0.00465667
0.00463331
0.00460848
0.00458228
0.00455473
0.00452585
0.00449561
0.00446394
0.0044308
0.00439611
0.00435982
0.00432189
0.00428234
0.00424123
0.00419866
0.00415478
0.00410976
0.0040638
0.00401713
0.00396994
0.00392244
0.00387481
0.0038272
0.00377974
0.00373254
0.00368569
0.00363926
0.0035933
0.00354785
0.00350294
0.00345857
0.00341473
0.00337141
0.00332855
0.00328613
0.00324412
0.00320248
0.00316123
0.00312037
0.00307989
0.00303975
0.00299986
0.00296006
0.00292025
0.00288053
0.00284151
0.0028047
0.0027728
0.00274993
0.00274125
0.00275205
0.00278571
0.00284025
0.00290348
0.00294781
0.00290037
0.00340921
0.00346197
0.00351472
0.00356741
0.00362001
0.00367245
0.0037247
0.00377668
0.00382836
0.00387965
0.00393049
0.00398082
0.00403054
0.00407959
0.00412787
0.00417529
0.00422176
0.00426717
0.00431142
0.00435438
0.00439595
0.00443599
0.00447438
0.00451097
0.00454561
0.00457817
0.00460848
0.00463637
0.00466145
0.00468327
0.00470175
0.00471703
0.00472925
0.0047252
0.00471325
0.00469645
0.00467672
0.00465492
0.00463149
0.0046066
0.00458034
0.00455275
0.00452382
0.00449353
0.00446182
0.00442863
0.00439389
0.00435755
0.00431958
0.00427999
0.00423884
0.00419623
0.00415231
0.00410725
0.00406126
0.00401454
0.0039673
0.00391975
0.00387206
0.00382439
0.00377686
0.00372959
0.00368266
0.00363615
0.00359011
0.00354458
0.00349958
0.00345513
0.00341121
0.0033678
0.00332487
0.00328239
0.00324032
0.00319865
0.00315739
0.00311655
0.00307611
0.00303605
0.00299627
0.00295666
0.00291713
0.00287789
0.00283965
0.00280404
0.00277393
0.0027535
0.00274786
0.002762
0.0027987
0.00285479
0.00291533
0.00294559
0.00289155
0.0034092
0.00346196
0.0035147
0.0035674
0.00361999
0.00367243
0.00372467
0.00377666
0.00382832
0.00387961
0.00393045
0.00398077
0.0040305
0.00407954
0.00412782
0.00417524
0.0042217
0.00426711
0.00431136
0.00435432
0.00439589
0.00443593
0.00447432
0.00451091
0.00454556
0.00457812
0.00460844
0.00463634
0.00466143
0.00468325
0.00470174
0.00471703
0.00472874
0.00472429
0.00471197
0.00469495
0.00467508
0.00465318
0.00462967
0.00460473
0.00457842
0.00455079
0.00452182
0.00449149
0.00445974
0.0044265
0.00439172
0.00435534
0.00431733
0.00427771
0.00423653
0.00419389
0.00414994
0.00410485
0.00405882
0.00401207
0.00396479
0.00391719
0.00386945
0.00382172
0.00377413
0.0037268
0.0036798
0.00363322
0.0035871
0.0035415
0.00349642
0.00345189
0.00340789
0.00336441
0.00332141
0.00327887
0.00323675
0.00319506
0.0031538
0.00311298
0.0030726
0.00303263
0.00299299
0.00295359
0.0029144
0.00287569
0.00283831
0.00280405
0.00277588
0.00275806
0.00275559
0.00277313
0.00281272
0.00287002
0.00292684
0.002937
0.00288254
0.00340919
0.00346195
0.00351469
0.00356738
0.00361997
0.00367241
0.00372465
0.00377663
0.0038283
0.00387958
0.00393042
0.00398074
0.00403045
0.0040795
0.00412777
0.00417519
0.00422165
0.00426706
0.0043113
0.00435427
0.00439583
0.00443588
0.00447426
0.00451086
0.00454552
0.00457808
0.0046084
0.00463631
0.00466141
0.00468325
0.00470175
0.00471706
0.00472817
0.00472336
0.00471067
0.00469345
0.00467343
0.00465144
0.00462787
0.00460287
0.00457653
0.00454886
0.00451986
0.00448949
0.0044577
0.00442443
0.00438961
0.0043532
0.00431516
0.00427551
0.0042343
0.00419164
0.00414766
0.00410255
0.0040565
0.00400971
0.00396241
0.00391477
0.00386698
0.0038192
0.00377156
0.00372416
0.00367711
0.00363046
0.00358428
0.0035386
0.00349345
0.00344885
0.00340478
0.00336123
0.00331817
0.00327557
0.00323342
0.00319171
0.00315046
0.00310967
0.00306937
0.00302951
0.00299003
0.00295087
0.00291207
0.00287399
0.00283761
0.00280484
0.00277883
0.00276383
0.00276475
0.0027858
0.00282817
0.00288606
0.00293814
0.00292827
0.00287337
0.00340919
0.00346194
0.00351468
0.00356737
0.00361995
0.00367239
0.00372463
0.00377661
0.00382827
0.00387955
0.00393039
0.0039807
0.00403042
0.00407946
0.00412773
0.00417514
0.00422161
0.00426701
0.00431125
0.00435422
0.00439579
0.00443583
0.00447422
0.00451082
0.00454548
0.00457806
0.00460839
0.0046363
0.00466142
0.00468326
0.00470178
0.00471709
0.00472764
0.00472244
0.00470939
0.00469195
0.00467179
0.00464971
0.00462607
0.00460103
0.00457465
0.00454695
0.00451792
0.00448752
0.00445571
0.00442241
0.00438756
0.00435112
0.00431305
0.00427338
0.00423215
0.00418948
0.00414548
0.00410036
0.00405428
0.00400748
0.00396014
0.00391247
0.00386465
0.00381683
0.00376914
0.00372169
0.00367458
0.00362787
0.00358163
0.00353589
0.00349068
0.003446
0.00340187
0.00335826
0.00331514
0.0032725
0.00323032
0.0031886
0.00314736
0.00310663
0.00306641
0.00302669
0.00298741
0.00294855
0.00291022
0.00287287
0.00283763
0.00280658
0.00278295
0.00277105
0.00277562
0.0028004
0.00284544
0.00290296
0.00294944
0.00291939
0.00286403
0.00340918
0.00346194
0.00351467
0.00356736
0.00361994
0.00367238
0.00372461
0.00377659
0.00382825
0.00387953
0.00393036
0.00398067
0.00403039
0.00407942
0.00412769
0.00417511
0.00422157
0.00426697
0.00431121
0.00435418
0.00439575
0.0044358
0.00447419
0.00451079
0.00454546
0.00457804
0.00460838
0.00463631
0.00466143
0.00468329
0.00470182
0.00471715
0.00472713
0.00472153
0.00470813
0.00469046
0.00467016
0.00464798
0.00462428
0.0045992
0.00457279
0.00454507
0.00451601
0.00448559
0.00445375
0.00442043
0.00438556
0.0043491
0.00431102
0.00427133
0.00423009
0.0041874
0.0041434
0.00409826
0.00405218
0.00400536
0.003958
0.00391031
0.00386246
0.0038146
0.00376687
0.00371938
0.00367222
0.00362546
0.00357916
0.00353336
0.00348809
0.00344336
0.00339917
0.0033555
0.00331233
0.00326965
0.00322745
0.00318573
0.00314453
0.00310386
0.00306375
0.00302419
0.00298514
0.00294664
0.00290886
0.00287237
0.00283844
0.00280929
0.00278828
0.00277972
0.00278814
0.00281669
0.00286405
0.00292018
0.00296017
0.00291036
0.00285454
0.0031989
0.0032513
0.00330383
0.00335647
0.00340918
0.00346193
0.00351467
0.00356735
0.00361993
0.00367237
0.0037246
0.00377657
0.00382823
0.00387951
0.00393034
0.00398065
0.00403036
0.00407939
0.00412766
0.00417508
0.00422153
0.00426694
0.00431118
0.00435415
0.00439572
0.00443577
0.00447417
0.00451078
0.00454545
0.00457804
0.00460839
0.00463633
0.00466146
0.00468334
0.00470188
0.00471722
0.00472664
0.00472063
0.0047069
0.004689
0.00466854
0.00464627
0.0046225
0.00459738
0.00457095
0.0045432
0.00451413
0.0044837
0.00445184
0.0044185
0.00438362
0.00434714
0.00430904
0.00426935
0.0042281
0.00418541
0.00414141
0.00409627
0.00405018
0.00400336
0.00395599
0.00390828
0.0038604
0.00381252
0.00376475
0.00371723
0.00367002
0.00362322
0.00357687
0.00353102
0.0034857
0.00344091
0.00339667
0.00335295
0.00330974
0.00326703
0.00322482
0.00318312
0.00314196
0.00310137
0.00306139
0.00302201
0.00298324
0.00294515
0.002908
0.00287249
0.00284002
0.00281297
0.00279479
0.00278974
0.00280207
0.00283427
0.00288378
0.00293681
0.00295622
0.00290112
0.00284487
0.0031989
0.00325131
0.00330384
0.00335648
0.00340919
0.00346194
0.00351467
0.00356735
0.00361993
0.00367236
0.00372459
0.00377656
0.00382822
0.00387949
0.00393032
0.00398063
0.00403034
0.00407937
0.00412764
0.00417505
0.00422151
0.00426691
0.00431116
0.00435413
0.0043957
0.00443575
0.00447416
0.00451077
0.00454545
0.00457805
0.00460841
0.00463636
0.00466151
0.0046834
0.00470195
0.00471731
0.00472616
0.00471976
0.0047057
0.00468756
0.00466694
0.00464457
0.00462074
0.00459558
0.00456912
0.00454137
0.00451228
0.00448184
0.00444997
0.00441662
0.00438172
0.00434524
0.00430714
0.00426744
0.0042262
0.00418351
0.00413952
0.00409438
0.0040483
0.00400147
0.0039541
0.00390638
0.00385849
0.00381058
0.00376279
0.00371523
0.003668
0.00362115
0.00357477
0.00352887
0.0034835
0.00343867
0.00339438
0.00335062
0.00330737
0.00326464
0.00322243
0.00318075
0.00313965
0.00309916
0.00305933
0.00302018
0.00298173
0.00294413
0.00290771
0.00287331
0.00284248
0.00281774
0.00280262
0.00280129
0.00281759
0.00285321
0.00290417
0.00295268
0.00294724
0.00289171
0.00283503
0.00319891
0.00325132
0.00330385
0.00335649
0.0034092
0.00346194
0.00351467
0.00356735
0.00361993
0.00367236
0.00372458
0.00377655
0.00382821
0.00387948
0.00393031
0.00398061
0.00403032
0.00407935
0.00412762
0.00417503
0.00422149
0.0042669
0.00431114
0.00435411
0.00439569
0.00443575
0.00447415
0.00451077
0.00454546
0.00457807
0.00460844
0.00463641
0.00466157
0.00468347
0.00470204
0.00471741
0.00472569
0.0047189
0.00470453
0.00468615
0.00466537
0.00464289
0.004619
0.0045938
0.00456733
0.00453956
0.00451047
0.00448001
0.00444814
0.00441478
0.00437988
0.00434339
0.0043053
0.00426561
0.00422437
0.0041817
0.00413772
0.00409259
0.00404652
0.0039997
0.00395233
0.00390461
0.00385671
0.0038088
0.00376099
0.00371341
0.00366614
0.00361927
0.00357284
0.00352691
0.0034815
0.00343663
0.0033923
0.0033485
0.00330523
0.00326249
0.00322028
0.00317864
0.00313762
0.00309725
0.0030576
0.00301871
0.00298065
0.00294361
0.00290805
0.00287494
0.00284597
0.00282382
0.00281206
0.00281473
0.00283524
0.00287409
0.00292524
0.00296801
0.00293811
0.00288213
0.00282503
0.00304278
0.00309462
0.00314667
0.00319892
0.00325133
0.00330387
0.0033565
0.00340921
0.00346195
0.00351468
0.00356735
0.00361993
0.00367236
0.00372458
0.00377655
0.0038282
0.00387947
0.0039303
0.0039806
0.00403031
0.00407934
0.00412761
0.00417502
0.00422148
0.00426689
0.00431113
0.00435411
0.00439569
0.00443575
0.00447416
0.00451079
0.00454549
0.00457811
0.00460849
0.00463647
0.00466164
0.00468356
0.00470215
0.00471754
0.00472524
0.00471806
0.00470338
0.00468476
0.00466382
0.00464123
0.00461728
0.00459205
0.00456555
0.00453777
0.00450868
0.00447822
0.00444635
0.00441299
0.0043781
0.00434161
0.00430353
0.00426385
0.00422263
0.00417997
0.00413601
0.00409091
0.00404486
0.00399805
0.00395069
0.00390298
0.00385508
0.00380716
0.00375934
0.00371174
0.00366446
0.00361756
0.00357111
0.00352514
0.0034797
0.00343479
0.00339043
0.0033466
0.00330331
0.00326057
0.00321838
0.0031768
0.00313586
0.00309564
0.0030562
0.00301762
0.00298001
0.00294364
0.00290908
0.00287744
0.00285057
0.00283127
0.00282315
0.00283005
0.00285478
0.00289636
0.00294642
0.00298222
0.00292883
0.00287239
0.00281487
0.00304279
0.00309464
0.00314669
0.00319894
0.00325134
0.00330388
0.00335652
0.00340922
0.00346196
0.00351469
0.00356736
0.00361993
0.00367236
0.00372458
0.00377655
0.0038282
0.00387947
0.0039303
0.0039806
0.00403031
0.00407934
0.0041276
0.00417502
0.00422148
0.00426689
0.00431113
0.00435411
0.00439569
0.00443576
0.00447418
0.00451082
0.00454553
0.00457816
0.00460855
0.00463654
0.00466174
0.00468367
0.00470228
0.00471768
0.00472481
0.00471725
0.00470226
0.00468341
0.0046623
0.0046396
0.00461559
0.00459032
0.00456381
0.00453602
0.00450693
0.00447648
0.00444461
0.00441126
0.00437637
0.0043399
0.00430183
0.00426217
0.00422097
0.00417834
0.00413441
0.00408933
0.0040433
0.00399652
0.00394919
0.00390149
0.0038536
0.00380568
0.00375785
0.00371025
0.00366295
0.00361603
0.00356956
0.00352357
0.0034781
0.00343316
0.00338877
0.00334493
0.00330163
0.00325889
0.00321673
0.00317521
0.00313439
0.00309434
0.00305515
0.00301693
0.00297984
0.00294425
0.00291083
0.00288084
0.0028563
0.0028401
0.00283582
0.00284703
0.00287587
0.00292007
0.00296653
0.00297512
0.00291934
0.00286247
0.00280454
0.00304281
0.00309466
0.00314671
0.00319896
0.00325136
0.0033039
0.00335653
0.00340924
0.00346197
0.0035147
0.00356737
0.00361994
0.00367237
0.00372459
0.00377656
0.0038282
0.00387947
0.0039303
0.0039806
0.00403031
0.00407934
0.0041276
0.00417502
0.00422148
0.00426689
0.00431114
0.00435412
0.00439571
0.00443579
0.00447421
0.00451086
0.00454558
0.00457822
0.00460863
0.00463664
0.00466185
0.0046838
0.00470242
0.00471784
0.0047244
0.00471647
0.00470118
0.00468208
0.0046608
0.004638
0.00461392
0.00458862
0.00456209
0.0045343
0.00450522
0.00447477
0.00444291
0.00440957
0.0043747
0.00433825
0.0043002
0.00426056
0.0042194
0.0041768
0.0041329
0.00408786
0.00404187
0.00399512
0.00394781
0.00390013
0.00385226
0.00380434
0.00375653
0.00370892
0.00366161
0.00361468
0.00356819
0.00352219
0.0034767
0.00343174
0.00338733
0.00334347
0.00330017
0.00325745
0.00321534
0.0031739
0.00313321
0.00309336
0.00305446
0.00301666
0.00298019
0.0029455
0.00291339
0.00288528
0.00286333
0.00285052
0.00285035
0.00286602
0.00289866
0.00294421
0.00298559
0.00296589
0.00290967
0.00285238
0.00279406
0.00304282
0.00309468
0.00314673
0.00319898
0.00325138
0.00330392
0.00335655
0.00340926
0.00346199
0.00351471
0.00356738
0.00361995
0.00367238
0.0037246
0.00377656
0.00382821
0.00387948
0.0039303
0.00398061
0.00403031
0.00407934
0.00412761
0.00417503
0.00422149
0.00426691
0.00431116
0.00435415
0.00439574
0.00443582
0.00447426
0.00451091
0.00454564
0.0045783
0.00460872
0.00463674
0.00466197
0.00468394
0.00470258
0.00471802
0.00472402
0.00471572
0.00470013
0.0046808
0.00465935
0.00463643
0.00461228
0.00458694
0.00456041
0.00453262
0.00450354
0.00447311
0.00444127
0.00440795
0.00437309
0.00433667
0.00429864
0.00425904
0.00421791
0.00417536
0.0041315
0.0040865
0.00404055
0.00399384
0.00394656
0.00389891
0.00385107
0.00380317
0.00375536
0.00370776
0.00366045
0.00361352
0.00356702
0.00352101
0.0034755
0.00343053
0.0033861
0.00334224
0.00329894
0.00325625
0.0032142
0.00317287
0.00313234
0.00309272
0.00305416
0.00301686
0.00298111
0.00294746
0.00291687
0.00289089
0.00287184
0.00286274
0.00286697
0.0028872
0.00292319
0.00296859
0.00300323
0.00295651
0.00289983
0.00284213
0.00278343
0.00304284
0.00309469
0.00314675
0.003199
0.0032514
0.00330394
0.00335657
0.00340928
0.00346201
0.00351473
0.0035674
0.00361997
0.00367239
0.00372461
0.00377658
0.00382823
0.00387949
0.00393032
0.00398062
0.00403033
0.00407936
0.00412763
0.00417504
0.00422151
0.00426693
0.00431119
0.00435418
0.00439578
0.00443587
0.00447431
0.00451098
0.00454572
0.00457839
0.00460882
0.00463687
0.00466211
0.0046841
0.00470276
0.00471822
0.00472368
0.00471501
0.00469913
0.00467956
0.00465792
0.00463489
0.00461067
0.0045853
0.00455876
0.00453098
0.00450191
0.0044715
0.00443967
0.00440638
0.00437155
0.00433516
0.00429717
0.0042576
0.00421652
0.00417401
0.0041302
0.00408525
0.00403935
0.00399269
0.00394546
0.00389784
0.00385003
0.00380215
0.00375437
0.00370678
0.00365948
0.00361255
0.00356604
0.00352002
0.00347451
0.00342952
0.00338509
0.00334123
0.00329795
0.0032553
0.00321333
0.00317212
0.00313177
0.00309244
0.00305428
0.00301755
0.00298264
0.00295021
0.00292135
0.00289776
0.00288189
0.00287677
0.00288556
0.0029103
0.0029494
0.00299198
0.00300301
0.00294693
0.00288983
0.00283172
0.00277265
0.00304286
0.00309472
0.00314678
0.00319902
0.00325143
0.00330396
0.0033566
0.0034093
0.00346203
0.00351475
0.00356742
0.00361999
0.00367241
0.00372463
0.0037766
0.00382824
0.00387951
0.00393033
0.00398064
0.00403035
0.00407938
0.00412765
0.00417507
0.00422154
0.00426696
0.00431122
0.00435422
0.00439583
0.00443592
0.00447438
0.00451106
0.00454581
0.00457849
0.00460895
0.004637
0.00466227
0.00468428
0.00470296
0.00471844
0.00472338
0.00471435
0.00469817
0.00467836
0.00465655
0.00463339
0.0046091
0.0045837
0.00455715
0.00452937
0.00450032
0.00446993
0.00443814
0.00440487
0.00437008
0.00433372
0.00429577
0.00425626
0.00421522
0.00417276
0.00412901
0.00408412
0.00403828
0.00399167
0.00394449
0.00389692
0.00384914
0.0038013
0.00375354
0.00370597
0.00365868
0.00361176
0.00356526
0.00351923
0.00347372
0.00342873
0.0033843
0.00334045
0.0032972
0.0032546
0.00321272
0.00317166
0.00313154
0.00309253
0.00305485
0.0030188
0.00298487
0.00295384
0.00292695
0.00290606
0.00289369
0.00289287
0.00290638
0.00293534
0.00297633
0.00301392
0.00299367
0.00293716
0.00287965
0.00282115
0.00276172
0.00304288
0.00309474
0.0031468
0.00319905
0.00325145
0.00330399
0.00335662
0.00340933
0.00346206
0.00351478
0.00356745
0.00362001
0.00367243
0.00372465
0.00377662
0.00382827
0.00387954
0.00393036
0.00398066
0.00403037
0.00407941
0.00412768
0.0041751
0.00422157
0.004267
0.00431127
0.00435427
0.00439589
0.00443599
0.00447446
0.00451115
0.00454591
0.00457861
0.00460908
0.00463716
0.00466245
0.00468448
0.00470318
0.00471868
0.00472312
0.00471374
0.00469727
0.00467721
0.00465522
0.00463194
0.00460757
0.00458214
0.00455558
0.00452782
0.00449879
0.00446843
0.00443666
0.00440343
0.00436868
0.00433236
0.00429446
0.004255
0.00421402
0.00417163
0.00412794
0.00408311
0.00403733
0.00399079
0.00394366
0.00389615
0.00384841
0.00380061
0.00375288
0.00370534
0.00365807
0.00361116
0.00356467
0.00351865
0.00347314
0.00342816
0.00338373
0.0033399
0.00329669
0.00325416
0.0032124
0.00317151
0.00313165
0.00309303
0.00305589
0.00302064
0.00298785
0.00295844
0.0029338
0.00291592
0.00290742
0.00291118
0.00292946
0.002962
0.00300316
0.00303395
0.00298418
0.00292723
0.00286931
0.00281044
0.00275067
0.00304291
0.00309476
0.00314683
0.00319907
0.00325148
0.00330402
0.00335665
0.00340936
0.00346209
0.00351481
0.00356747
0.00362004
0.00367246
0.00372468
0.00377665
0.00382829
0.00387956
0.00393039
0.00398069
0.0040304
0.00407944
0.00412772
0.00417514
0.00422162
0.00426705
0.00431132
0.00435433
0.00439596
0.00443607
0.00447455
0.00451125
0.00454603
0.00457875
0.00460924
0.00463733
0.00466264
0.00468469
0.00470342
0.00471894
0.00472292
0.0047132
0.00469643
0.00467613
0.00465394
0.00463053
0.00460609
0.00458062
0.00455406
0.00452631
0.00449731
0.00446698
0.00443525
0.00440207
0.00436736
0.00433109
0.00429324
0.00425384
0.00421292
0.0041706
0.00412698
0.00408223
0.00403652
0.00399004
0.00394298
0.00389553
0.00384784
0.00380009
0.0037524
0.00370489
0.00365764
0.00361076
0.00356428
0.00351827
0.00347277
0.00342779
0.00338339
0.00333958
0.00329643
0.00325398
0.00321235
0.00317168
0.00313213
0.00309395
0.00305747
0.00302314
0.00299167
0.00296411
0.002942
0.00292746
0.00292311
0.00293163
0.0029547
0.00299063
0.0030286
0.00303087
0.00297448
0.00291712
0.0028588
0.00279958
0.00273948
0.00304293
0.00309479
0.00314685
0.0031991
0.00325151
0.00330405
0.00335668
0.00340939
0.00346212
0.00351484
0.0035675
0.00362007
0.00367249
0.00372471
0.00377668
0.00382833
0.0038796
0.00393042
0.00398073
0.00403044
0.00407948
0.00412776
0.00417519
0.00422167
0.00426711
0.00431139
0.00435441
0.00439604
0.00443616
0.00447465
0.00451137
0.00454617
0.0045789
0.0046094
0.00463752
0.00466285
0.00468493
0.00470367
0.00471922
0.00472278
0.00471272
0.00469566
0.0046751
0.00465272
0.00462918
0.00460466
0.00457916
0.00455259
0.00452486
0.00449589
0.0044656
0.00443391
0.00440077
0.00436611
0.0043299
0.00429211
0.00425278
0.00421194
0.00416968
0.00412615
0.00408148
0.00403585
0.00398944
0.00394246
0.00389506
0.00384744
0.00379974
0.0037521
0.00370462
0.00365741
0.00361055
0.00356409
0.0035181
0.00347261
0.00342765
0.00338327
0.00333951
0.00329641
0.00325408
0.00321261
0.00317218
0.003133
0.00309535
0.00305962
0.00302639
0.00299645
0.00297102
0.00295177
0.00294093
0.00294107
0.00295453
0.00298194
0.00301968
0.00305219
0.00302141
0.0029646
0.00290684
0.00284815
0.00278858
0.00272817
0.00304296
0.00309482
0.00314688
0.00319913
0.00325154
0.00330408
0.00335672
0.00340942
0.00346215
0.00351487
0.00356754
0.00362011
0.00367253
0.00372475