/*--------------------------------*- C++ -*----------------------------------*\
  =========                 |
  \\      /  F ield         | OpenFOAM: The Open Source CFD Toolbox
   \\    /   O peration     | Website:  https://openfoam.org
    \\  /    A nd           | Version:  10
     \\/     M anipulation  |
\*---------------------------------------------------------------------------*/
FoamFile
{
    format      ascii;
    class       volScalarField;
    location    "67000";
    object      k;
}
// * * * * * * * * * * * * * * * * * * * * * * * * * * * * * * * * * * * * * //

dimensions      [0 2 -2 0 0 0 0];

internalField   nonuniform List<scalar> 
17922
(
0.076605
0.0768494
0.0771017
0.0773622
0.0776313
0.0779091
0.078196
0.0784923
0.0787984
0.0791145
0.0794411
0.0797785
0.0801272
0.0804875
0.08086
0.0812451
0.0816432
0.082055
0.0824811
0.0829218
0.083378
0.0838503
0.0843393
0.0848458
0.0853705
0.0859143
0.0864781
0.0870628
0.0876641
0.0882718
0.0888806
0.0894904
0.0901012
0.0907129
0.0913256
0.0919394
0.0925544
0.0931708
0.0937887
0.0944086
0.0950307
0.0956553
0.0962829
0.0969138
0.0975486
0.0981877
0.0988314
0.0994802
0.100135
0.100795
0.101461
0.102133
0.102812
0.103497
0.104189
0.104887
0.105592
0.106303
0.10702
0.107742
0.10847
0.109202
0.109939
0.110678
0.111421
0.112165
0.112909
0.113653
0.114395
0.115134
0.115869
0.116599
0.117321
0.118035
0.11874
0.119434
0.120117
0.120787
0.121444
0.122088
0.122718
0.123333
0.123934
0.124521
0.125094
0.125654
0.126201
0.126736
0.12726
0.127774
0.128278
0.128773
0.129261
0.0766058
0.0768501
0.0771025
0.077363
0.077632
0.0779099
0.0781968
0.0784931
0.0787992
0.0791153
0.0794419
0.0797793
0.080128
0.0804883
0.0808608
0.0812459
0.0816441
0.0820559
0.0824819
0.0829227
0.0833789
0.0838511
0.0843401
0.0848466
0.0853713
0.0859151
0.0864789
0.0870635
0.0876648
0.0882725
0.0888813
0.089491
0.0901018
0.0907135
0.0913262
0.09194
0.092555
0.0931714
0.0937894
0.0944093
0.0950314
0.0956562
0.0962839
0.096915
0.0975499
0.0981892
0.0988331
0.0994821
0.100137
0.100797
0.101463
0.102136
0.102815
0.1035
0.104192
0.104891
0.105596
0.106307
0.107024
0.107747
0.108474
0.109207
0.109943
0.110682
0.111424
0.112168
0.112912
0.113655
0.114396
0.115134
0.115868
0.116596
0.117317
0.118029
0.118732
0.119425
0.120106
0.120774
0.121429
0.122071
0.122698
0.123311
0.12391
0.124495
0.125066
0.125624
0.126169
0.126702
0.127224
0.127735
0.128237
0.12873
0.129216
0.0766065
0.0768509
0.0771032
0.0773638
0.0776328
0.0779107
0.0781976
0.0784939
0.0788
0.0791161
0.0794427
0.0797802
0.0801289
0.0804892
0.0808617
0.0812468
0.0816449
0.0820568
0.0824828
0.0829235
0.0833797
0.0838519
0.0843409
0.0848474
0.0853721
0.0859159
0.0864796
0.0870643
0.0876655
0.0882732
0.0888819
0.0894917
0.0901024
0.0907141
0.0913268
0.0919406
0.0925556
0.093172
0.09379
0.09441
0.0950322
0.0956571
0.0962849
0.0969162
0.0975513
0.0981907
0.0988348
0.0994841
0.100139
0.100799
0.101466
0.102139
0.102818
0.103504
0.104196
0.104895
0.1056
0.106311
0.107028
0.107751
0.108479
0.109211
0.109947
0.110686
0.111428
0.112171
0.112914
0.113657
0.114397
0.115134
0.115867
0.116593
0.117313
0.118023
0.118725
0.119415
0.120094
0.12076
0.121413
0.122053
0.122678
0.123289
0.123886
0.124469
0.125038
0.125593
0.126136
0.126667
0.127186
0.127695
0.128195
0.128686
0.129169
0.0766073
0.0768517
0.077104
0.0773646
0.0776336
0.0779115
0.0781984
0.0784948
0.0788008
0.079117
0.0794436
0.079781
0.0801297
0.0804901
0.0808626
0.0812476
0.0816458
0.0820576
0.0824836
0.0829244
0.0833806
0.0838528
0.0843417
0.0848482
0.0853729
0.0859167
0.0864804
0.087065
0.0876662
0.0882739
0.0888826
0.0894924
0.0901031
0.0907147
0.0913274
0.0919412
0.0925562
0.0931726
0.0937907
0.0944108
0.0950331
0.095658
0.096286
0.0969174
0.0975527
0.0981923
0.0988366
0.0994861
0.100141
0.100802
0.101469
0.102142
0.102821
0.103507
0.1042
0.104899
0.105604
0.106315
0.107033
0.107755
0.108483
0.109215
0.109951
0.11069
0.111431
0.112174
0.112917
0.113658
0.114398
0.115134
0.115865
0.11659
0.117308
0.118017
0.118716
0.119405
0.120082
0.120746
0.121397
0.122034
0.122657
0.123266
0.123861
0.124441
0.125008
0.125562
0.126102
0.126631
0.127148
0.127655
0.128152
0.12864
0.129121
0.0766081
0.0768525
0.0771048
0.0773654
0.0776345
0.0779123
0.0781993
0.0784956
0.0788017
0.0791179
0.0794445
0.0797819
0.0801306
0.080491
0.0808634
0.0812485
0.0816467
0.0820585
0.0824845
0.0829253
0.0833814
0.0838536
0.0843426
0.084849
0.0853737
0.0859175
0.0864812
0.0870658
0.0876669
0.0882746
0.0888833
0.089493
0.0901037
0.0907154
0.091328
0.0919418
0.0925568
0.0931733
0.0937914
0.0944116
0.0950339
0.095659
0.0962871
0.0969187
0.0975541
0.0981939
0.0988385
0.0994882
0.100143
0.100804
0.101471
0.102145
0.102824
0.103511
0.104203
0.104903
0.105608
0.10632
0.107037
0.10776
0.108487
0.10922
0.109955
0.110694
0.111435
0.112177
0.112919
0.11366
0.114398
0.115133
0.115863
0.116587
0.117303
0.11801
0.118708
0.119394
0.120069
0.120731
0.12138
0.122015
0.122636
0.123243
0.123835
0.124414
0.124978
0.12553
0.126068
0.126594
0.127109
0.127614
0.128108
0.128594
0.129071
0.0766089
0.0768533
0.0771056
0.0773662
0.0776353
0.0779132
0.0782001
0.0784965
0.0788026
0.0791187
0.0794453
0.0797828
0.0801315
0.0804919
0.0808644
0.0812494
0.0816476
0.0820594
0.0824854
0.0829262
0.0833823
0.0838545
0.0843435
0.0848499
0.0853745
0.0859183
0.086482
0.0870665
0.0876677
0.0882753
0.088884
0.0894937
0.0901044
0.090716
0.0913287
0.0919424
0.0925575
0.093174
0.0937922
0.0944123
0.0950348
0.09566
0.0962882
0.0969199
0.0975556
0.0981956
0.0988404
0.0994903
0.100146
0.100807
0.101474
0.102148
0.102828
0.103514
0.104207
0.104907
0.105612
0.106324
0.107041
0.107764
0.108492
0.109224
0.10996
0.110698
0.111438
0.11218
0.112921
0.113661
0.114398
0.115132
0.115861
0.116583
0.117297
0.118003
0.118699
0.119383
0.120056
0.120716
0.121363
0.121996
0.122614
0.123219
0.123809
0.124385
0.124948
0.125497
0.126033
0.126557
0.127069
0.127571
0.128063
0.128546
0.12902
0.0766097
0.0768541
0.0771065
0.0773671
0.0776362
0.077914
0.078201
0.0784974
0.0788034
0.0791196
0.0794463
0.0797837
0.0801324
0.0804928
0.0808653
0.0812504
0.0816485
0.0820604
0.0824863
0.0829271
0.0833832
0.0838554
0.0843444
0.0848508
0.0853754
0.0859191
0.0864828
0.0870673
0.0876685
0.0882761
0.0888848
0.0894944
0.0901051
0.0907167
0.0913293
0.0919431
0.0925581
0.0931747
0.0937929
0.0944132
0.0950357
0.095661
0.0962894
0.0969213
0.0975571
0.0981973
0.0988423
0.0994925
0.100148
0.10081
0.101477
0.102151
0.102831
0.103518
0.104211
0.104911
0.105617
0.106328
0.107046
0.107769
0.108497
0.109228
0.109964
0.110702
0.111442
0.112183
0.112923
0.113662
0.114399
0.115131
0.115858
0.116579
0.117292
0.117996
0.118689
0.119372
0.120043
0.1207
0.121345
0.121976
0.122592
0.123194
0.123782
0.124356
0.124916
0.125463
0.125997
0.126519
0.127029
0.127528
0.128017
0.128497
0.128968
0.0766106
0.076855
0.0771073
0.0773679
0.077637
0.0779149
0.0782019
0.0784983
0.0788044
0.0791205
0.0794472
0.0797846
0.0801333
0.0804937
0.0808662
0.0812513
0.0816495
0.0820613
0.0824873
0.082928
0.0833842
0.0838564
0.0843453
0.0848517
0.0853763
0.08592
0.0864836
0.0870681
0.0876693
0.0882768
0.0888855
0.0894951
0.0901057
0.0907173
0.09133
0.0919437
0.0925588
0.0931754
0.0937937
0.094414
0.0950367
0.0956621
0.0962906
0.0969226
0.0975587
0.0981991
0.0988443
0.0994947
0.100151
0.100812
0.10148
0.102154
0.102835
0.103522
0.104215
0.104915
0.105621
0.106333
0.107051
0.107773
0.108501
0.109233
0.109968
0.110706
0.111445
0.112185
0.112925
0.113663
0.114398
0.11513
0.115855
0.116575
0.117286
0.117988
0.11868
0.11936
0.120029
0.120684
0.121327
0.121955
0.122569
0.123169
0.123755
0.124326
0.124884
0.125429
0.12596
0.126479
0.126987
0.127483
0.127969
0.128446
0.128914
0.0766114
0.0768558
0.0771082
0.0773688
0.0776379
0.0779158
0.0782028
0.0784992
0.0788053
0.0791215
0.0794481
0.0797856
0.0801343
0.0804947
0.0808672
0.0812523
0.0816505
0.0820623
0.0824882
0.082929
0.0833851
0.0838573
0.0843462
0.0848526
0.0853772
0.0859208
0.0864845
0.087069
0.0876701
0.0882776
0.0888862
0.0894958
0.0901064
0.090718
0.0913306
0.0919444
0.0925595
0.0931761
0.0937944
0.0944148
0.0950376
0.0956631
0.0962918
0.096924
0.0975602
0.0982009
0.0988463
0.099497
0.100153
0.100815
0.101483
0.102158
0.102838
0.103526
0.104219
0.104919
0.105625
0.106337
0.107055
0.107778
0.108506
0.109237
0.109972
0.11071
0.111449
0.112188
0.112927
0.113664
0.114398
0.115128
0.115852
0.11657
0.117279
0.117979
0.118669
0.119348
0.120014
0.120668
0.121308
0.121934
0.122546
0.123143
0.123727
0.124296
0.124851
0.125393
0.125922
0.126439
0.126944
0.127437
0.127921
0.128394
0.128858
0.0766123
0.0768567
0.0771091
0.0773697
0.0776388
0.0779167
0.0782037
0.0785001
0.0788062
0.0791224
0.0794491
0.0797866
0.0801353
0.0804957
0.0808682
0.0812533
0.0816514
0.0820632
0.0824892
0.08293
0.0833861
0.0838582
0.0843471
0.0848535
0.0853781
0.0859217
0.0864853
0.0870698
0.0876709
0.0882784
0.088887
0.0894966
0.0901071
0.0907187
0.0913313
0.0919451
0.0925602
0.0931768
0.0937952
0.0944157
0.0950386
0.0956642
0.096293
0.0969255
0.0975619
0.0982027
0.0988484
0.0994993
0.100156
0.100818
0.101486
0.102161
0.102842
0.103529
0.104223
0.104924
0.10563
0.106342
0.10706
0.107783
0.10851
0.109242
0.109976
0.110713
0.111452
0.112191
0.112929
0.113665
0.114398
0.115126
0.115849
0.116565
0.117273
0.117971
0.118659
0.119335
0.119999
0.120651
0.121288
0.121912
0.122522
0.123117
0.123698
0.124265
0.124818
0.125357
0.125884
0.126398
0.1269
0.12739
0.12787
0.12834
0.1288
0.0766132
0.0768576
0.07711
0.0773707
0.0776398
0.0779177
0.0782047
0.0785011
0.0788072
0.0791234
0.0794501
0.0797875
0.0801363
0.0804967
0.0808692
0.0812543
0.0816525
0.0820643
0.0824902
0.082931
0.0833871
0.0838592
0.0843481
0.0848544
0.085379
0.0859226
0.0864862
0.0870707
0.0876717
0.0882792
0.0888878
0.0894973
0.0901078
0.0907194
0.091332
0.0919458
0.0925609
0.0931776
0.093796
0.0944166
0.0950396
0.0956653
0.0962943
0.0969269
0.0975635
0.0982046
0.0988506
0.0995017
0.100158
0.100821
0.10149
0.102164
0.102846
0.103533
0.104228
0.104928
0.105634
0.106347
0.107065
0.107788
0.108515
0.109246
0.109981
0.110717
0.111455
0.112193
0.11293
0.113665
0.114397
0.115124
0.115846
0.11656
0.117265
0.117962
0.118648
0.119322
0.119984
0.120633
0.121268
0.12189
0.122497
0.12309
0.123669
0.124233
0.124783
0.12532
0.125844
0.126355
0.126854
0.127341
0.127818
0.128284
0.12874
0.0766141
0.0768586
0.077111
0.0773716
0.0776407
0.0779187
0.0782057
0.0785021
0.0788082
0.0791244
0.0794511
0.0797886
0.0801373
0.0804977
0.0808702
0.0812553
0.0816535
0.0820653
0.0824912
0.082932
0.0833881
0.0838602
0.0843491
0.0848554
0.0853799
0.0859235
0.0864871
0.0870715
0.0876725
0.08828
0.0888885
0.0894981
0.0901086
0.0907201
0.0913327
0.0919465
0.0925616
0.0931783
0.0937968
0.0944175
0.0950406
0.0956665
0.0962956
0.0969284
0.0975653
0.0982066
0.0988528
0.0995042
0.100161
0.100824
0.101493
0.102168
0.10285
0.103538
0.104232
0.104932
0.105639
0.106352
0.10707
0.107793
0.10852
0.109251
0.109985
0.110721
0.111458
0.112196
0.112932
0.113666
0.114396
0.115122
0.115842
0.116554
0.117258
0.117952
0.118636
0.119308
0.119968
0.120615
0.121248
0.121867
0.122472
0.123062
0.123638
0.1242
0.124748
0.125282
0.125803
0.126311
0.126807
0.127291
0.127764
0.128225
0.128677
0.0766151
0.0768595
0.077112
0.0773726
0.0776417
0.0779196
0.0782066
0.0785031
0.0788092
0.0791254
0.0794521
0.0797896
0.0801383
0.0804987
0.0808712
0.0812563
0.0816545
0.0820663
0.0824923
0.082933
0.0833891
0.0838612
0.0843501
0.0848564
0.0853809
0.0859245
0.086488
0.0870724
0.0876734
0.0882808
0.0888893
0.0894988
0.0901093
0.0907208
0.0913334
0.0919472
0.0925623
0.0931791
0.0937977
0.0944184
0.0950416
0.0956677
0.096297
0.09693
0.097567
0.0982086
0.098855
0.0995067
0.100164
0.100827
0.101496
0.102172
0.102853
0.103542
0.104236
0.104937
0.105644
0.106357
0.107075
0.107797
0.108525
0.109255
0.109989
0.110725
0.111461
0.112198
0.112933
0.113666
0.114395
0.115119
0.115838
0.116548
0.11725
0.117943
0.118624
0.119294
0.119952
0.120596
0.121227
0.121844
0.122446
0.123034
0.123607
0.124167
0.124712
0.125243
0.125761
0.126266
0.126758
0.127238
0.127707
0.128165
0.128612
0.0766161
0.0768605
0.0771129
0.0773736
0.0776427
0.0779207
0.0782077
0.0785041
0.0788102
0.0791265
0.0794531
0.0797906
0.0801394
0.0804998
0.0808723
0.0812574
0.0816556
0.0820674
0.0824934
0.0829341
0.0833901
0.0838623
0.0843511
0.0848574
0.0853819
0.0859254
0.0864889
0.0870733
0.0876742
0.0882816
0.0888901
0.0894996
0.09011
0.0907215
0.0913341
0.0919479
0.0925631
0.0931798
0.0937985
0.0944193
0.0950427
0.0956689
0.0962984
0.0969315
0.0975688
0.0982106
0.0988573
0.0995093
0.100167
0.10083
0.1015
0.102175
0.102858
0.103546
0.104241
0.104942
0.105649
0.106362
0.10708
0.107802
0.10853
0.10926
0.109993
0.110728
0.111464
0.1122
0.112934
0.113666
0.114394
0.115117
0.115833
0.116542
0.117242
0.117933
0.118612
0.11928
0.119935
0.120577
0.121205
0.12182
0.122419
0.123005
0.123576
0.124132
0.124674
0.125203
0.125717
0.126219
0.126708
0.127184
0.127649
0.128101
0.128543
0.0766171
0.0768615
0.077114
0.0773746
0.0776438
0.0779217
0.0782087
0.0785051
0.0788113
0.0791275
0.0794542
0.0797917
0.0801405
0.0805009
0.0808734
0.0812585
0.0816567
0.0820685
0.0824944
0.0829351
0.0833912
0.0838633
0.0843521
0.0848584
0.0853829
0.0859264
0.0864898
0.0870742
0.0876751
0.0882825
0.0888909
0.0895003
0.0901108
0.0907222
0.0913348
0.0919486
0.0925638
0.0931806
0.0937994
0.0944203
0.0950437
0.0956701
0.0962998
0.0969332
0.0975707
0.0982127
0.0988597
0.099512
0.10017
0.100833
0.101503
0.102179
0.102862
0.10355
0.104246
0.104947
0.105654
0.106367
0.107085
0.107808
0.108534
0.109265
0.109998
0.110732
0.111467
0.112202
0.112935
0.113666
0.114392
0.115114
0.115829
0.116536
0.117234
0.117922
0.118599
0.119265
0.119918
0.120557
0.121183
0.121795
0.122392
0.122975
0.123543
0.124096
0.124636
0.125161
0.125672
0.12617
0.126655
0.127127
0.127587
0.128035
0.128471
0.0766181
0.0768626
0.077115
0.0773757
0.0776448
0.0779228
0.0782098
0.0785062
0.0788124
0.0791286
0.0794553
0.0797928
0.0801416
0.080502
0.0808745
0.0812596
0.0816578
0.0820696
0.0824955
0.0829362
0.0833923
0.0838644
0.0843532
0.0848594
0.0853839
0.0859274
0.0864908
0.0870751
0.087676
0.0882833
0.0888917
0.0895011
0.0901115
0.0907229
0.0913355
0.0919493
0.0925646
0.0931814
0.0938002
0.0944213
0.0950448
0.0956714
0.0963012
0.0969348
0.0975726
0.0982149
0.0988622
0.0995147
0.100173
0.100837
0.101507
0.102183
0.102866
0.103555
0.10425
0.104952
0.105659
0.106372
0.10709
0.107813
0.108539
0.109269
0.110002
0.110736
0.11147
0.112204
0.112937
0.113666
0.114391
0.115111
0.115824
0.116529
0.117225
0.117911
0.118586
0.119249
0.1199
0.120537
0.12116
0.121769
0.122364
0.122944
0.123509
0.12406
0.124596
0.125118
0.125625
0.12612
0.1266
0.127068
0.127523
0.127966
0.128396
0.0757145
0.0759302
0.0761528
0.0763823
0.0766192
0.0768636
0.0771161
0.0773768
0.0776459
0.0779239
0.0782109
0.0785073
0.0788135
0.0791297
0.0794564
0.079794
0.0801427
0.0805031
0.0808757
0.0812608
0.0816589
0.0820707
0.0824967
0.0829374
0.0833934
0.0838655
0.0843542
0.0848605
0.0853849
0.0859284
0.0864918
0.087076
0.0876768
0.0882841
0.0888925
0.0895019
0.0901122
0.0907237
0.0913362
0.0919501
0.0925653
0.0931823
0.0938011
0.0944223
0.095046
0.0956727
0.0963027
0.0969366
0.0975746
0.0982172
0.0988647
0.0995176
0.100176
0.10084
0.101511
0.102187
0.10287
0.10356
0.104255
0.104957
0.105664
0.106377
0.107095
0.107818
0.108545
0.109274
0.110006
0.11074
0.111473
0.112206
0.112937
0.113665
0.114389
0.115107
0.115818
0.116522
0.117216
0.1179
0.118573
0.119234
0.119882
0.120516
0.121137
0.121743
0.122335
0.122912
0.123474
0.124022
0.124554
0.125073
0.125577
0.126067
0.126543
0.127006
0.127456
0.127893
0.128317
0.0757156
0.0759313
0.0761538
0.0763834
0.0766202
0.0768647
0.0771172
0.0773779
0.077647
0.077925
0.078212
0.0785085
0.0788146
0.0791309
0.0794576
0.0797951
0.0801439
0.0805043
0.0808768
0.0812619
0.0816601
0.0820719
0.0824978
0.0829385
0.0833945
0.0838666
0.0843553
0.0848615
0.0853859
0.0859294
0.0864927
0.0870769
0.0876777
0.088285
0.0888933
0.0895027
0.090113
0.0907244
0.091337
0.0919508
0.0925661
0.0931831
0.0938021
0.0944233
0.0950472
0.095674
0.0963043
0.0969384
0.0975766
0.0982195
0.0988673
0.0995205
0.100179
0.100844
0.101515
0.102192
0.102875
0.103565
0.10426
0.104962
0.10567
0.106383
0.107101
0.107823
0.10855
0.109279
0.110011
0.110743
0.111476
0.112208
0.112938
0.113665
0.114387
0.115104
0.115813
0.116514
0.117207
0.117888
0.118559
0.119217
0.119863
0.120495
0.121113
0.121716
0.122305
0.122879
0.123438
0.123982
0.124511
0.125026
0.125526
0.126012
0.126483
0.126941
0.127385
0.127816
0.128234
0.0757167
0.0759324
0.0761549
0.0763844
0.0766213
0.0768659
0.0771183
0.077379
0.0776482
0.0779261
0.0782132
0.0785096
0.0788158
0.0791321
0.0794588
0.0797963
0.0801451
0.0805055
0.080878
0.0812631
0.0816613
0.0820731
0.082499
0.0829397
0.0833957
0.0838677
0.0843564
0.0848626
0.085387
0.0859304
0.0864937
0.0870779
0.0876786
0.0882859
0.0888942
0.0895035
0.0901138
0.0907252
0.0913377
0.0919516
0.0925669
0.093184
0.093803
0.0944244
0.0950484
0.0956754
0.0963059
0.0969402
0.0975788
0.0982219
0.0988701
0.0995236
0.100183
0.100848
0.101519
0.102196
0.10288
0.10357
0.104266
0.104968
0.105675
0.106389
0.107107
0.107829
0.108555
0.109284
0.110015
0.110747
0.111479
0.11221
0.112939
0.113664
0.114385
0.1151
0.115807
0.116507
0.117197
0.117876
0.118544
0.1192
0.119843
0.120473
0.121088
0.121688
0.122274
0.122845
0.123401
0.123941
0.124467
0.124977
0.125473
0.125954
0.12642
0.126873
0.127311
0.127735
0.128146
0.0751094
0.075306
0.0755087
0.0757178
0.0759335
0.076156
0.0763855
0.0766225
0.076867
0.0771195
0.0773802
0.0776493
0.0779273
0.0782144
0.0785108
0.078817
0.0791333
0.07946
0.0797975
0.0801463
0.0805067
0.0808792
0.0812643
0.0816625
0.0820743
0.0825002
0.0829408
0.0833968
0.0838689
0.0843576
0.0848637
0.085388
0.0859314
0.0864947
0.0870788
0.0876796
0.0882867
0.088895
0.0895043
0.0901145
0.0907259
0.0913385
0.0919523
0.0925677
0.0931848
0.093804
0.0944255
0.0950497
0.0956769
0.0963076
0.0969422
0.097581
0.0982244
0.0988729
0.0995267
0.100186
0.100852
0.101523
0.102201
0.102885
0.103575
0.104271
0.104973
0.105681
0.106394
0.107112
0.107835
0.108561
0.109289
0.11002
0.110751
0.111482
0.112212
0.11294
0.113664
0.114383
0.115096
0.115802
0.116499
0.117187
0.117864
0.11853
0.119183
0.119823
0.12045
0.121062
0.12166
0.122242
0.12281
0.123362
0.123898
0.12442
0.124926
0.125417
0.125893
0.126354
0.126801
0.127233
0.12765
0.128053
0.0751106
0.0753071
0.0755098
0.0757189
0.0759346
0.0761571
0.0763867
0.0766236
0.0768682
0.0771207
0.0773813
0.0776505
0.0779285
0.0782156
0.078512
0.0788182
0.0791345
0.0794612
0.0797987
0.0801475
0.0805079
0.0808805
0.0812656
0.0816637
0.0820755
0.0825014
0.082942
0.083398
0.08387
0.0843587
0.0848648
0.0853891
0.0859325
0.0864957
0.0870798
0.0876805
0.0882876
0.0888958
0.0895051
0.0901153
0.0907267
0.0913392
0.0919531
0.0925686
0.0931858
0.093805
0.0944266
0.095051
0.0956784
0.0963094
0.0969442
0.0975833
0.0982271
0.0988759
0.09953
0.10019
0.100856
0.101527
0.102205
0.10289
0.10358
0.104277
0.104979
0.105687
0.1064
0.107118
0.107841
0.108566
0.109294
0.110024
0.110755
0.111485
0.112214
0.11294
0.113663
0.11438
0.115092
0.115795
0.116491
0.117176
0.117851
0.118514
0.119165
0.119802
0.120426
0.121035
0.12163
0.122209
0.122773
0.123321
0.123854
0.124371
0.124873
0.125359
0.125829
0.126285
0.126725
0.12715
0.12756
0.127955
0.0751118
0.0753083
0.075511
0.0757201
0.0759357
0.0761583
0.0763878
0.0766248
0.0768694
0.0771219
0.0773826
0.0776518
0.0779297
0.0782168
0.0785133
0.0788195
0.0791357
0.0794625
0.0798
0.0801488
0.0805092
0.0808817
0.0812668
0.081665
0.0820768
0.0825027
0.0829433
0.0833993
0.0838712
0.0843599
0.084866
0.0853902
0.0859335
0.0864968
0.0870808
0.0876814
0.0882885
0.0888967
0.0895059
0.0901161
0.0907275
0.09134
0.0919539
0.0925694
0.0931867
0.0938061
0.0944278
0.0950524
0.09568
0.0963112
0.0969463
0.0975857
0.0982298
0.098879
0.0995335
0.100194
0.10086
0.101532
0.10221
0.102895
0.103586
0.104283
0.104985
0.105693
0.106407
0.107125
0.107847
0.108572
0.1093
0.110029
0.110759
0.111488
0.112216
0.112941
0.113662
0.114378
0.115087
0.115789
0.116482
0.117165
0.117838
0.118498
0.119146
0.119781
0.120401
0.121007
0.121598
0.122174
0.122734
0.123279
0.123807
0.12432
0.124816
0.125297
0.125762
0.126211
0.126645
0.127062
0.127464
0.127851
0.075113
0.0753094
0.0755121
0.0757212
0.0759369
0.0761594
0.076389
0.076626
0.0768706
0.0771231
0.0773838
0.077653
0.077931
0.0782181
0.0785145
0.0788207
0.079137
0.0794638
0.0798013
0.0801501
0.0805105
0.080883
0.0812681
0.0816663
0.082078
0.0825039
0.0829445
0.0834005
0.0838724
0.0843611
0.0848671
0.0853914
0.0859346
0.0864978
0.0870818
0.0876824
0.0882894
0.0888976
0.0895067
0.0901169
0.0907283
0.0913408
0.0919548
0.0925703
0.0931877
0.0938072
0.0944291
0.0950538
0.0956817
0.0963131
0.0969485
0.0975883
0.0982327
0.0988822
0.0995371
0.100198
0.100864
0.101537
0.102216
0.1029
0.103592
0.104289
0.104992
0.1057
0.106413
0.107131
0.107853
0.108578
0.109305
0.110034
0.110763
0.111491
0.112218
0.112941
0.113661
0.114375
0.115083
0.115782
0.116473
0.117154
0.117824
0.118482
0.119127
0.119759
0.120376
0.120979
0.121566
0.122138
0.122694
0.123234
0.123758
0.124266
0.124757
0.125232
0.125691
0.126134
0.12656
0.12697
0.127363
0.12774
0.0751141
0.0753106
0.0755133
0.0757224
0.0759381
0.0761606
0.0763902
0.0766272
0.0768718
0.0771244
0.0773851
0.0776543
0.0779323
0.0782194
0.0785158
0.0788221
0.0791383
0.0794651
0.0798026
0.0801514
0.0805118
0.0808844
0.0812694
0.0816676
0.0820793
0.0825052
0.0829458
0.0834018
0.0838737
0.0843623
0.0848683
0.0853925
0.0859357
0.0864989
0.0870828
0.0876834
0.0882904
0.0888984
0.0895076
0.0901178
0.0907291
0.0913417
0.0919557
0.0925713
0.0931887
0.0938083
0.0944304
0.0950553
0.0956835
0.0963152
0.0969509
0.0975909
0.0982357
0.0988856
0.099541
0.100202
0.100869
0.101542
0.102221
0.102906
0.103598
0.104295
0.104998
0.105707
0.10642
0.107138
0.107859
0.108584
0.109311
0.110039
0.110767
0.111494
0.11222
0.112942
0.11366
0.114372
0.115078
0.115775
0.116464
0.117142
0.11781
0.118465
0.119107
0.119735
0.120349
0.120948
0.121532
0.1221
0.122652
0.123188
0.123707
0.124209
0.124695
0.125164
0.125616
0.126052
0.12647
0.126872
0.127256
0.127624
0.0751153
0.0753118
0.0755145
0.0757236
0.0759393
0.0761618
0.0763915
0.0766285
0.0768731
0.0771256
0.0773864
0.0776556
0.0779336
0.0782207
0.0785172
0.0788234
0.0791397
0.0794664
0.079804
0.0801528
0.0805132
0.0808857
0.0812708
0.0816689
0.0820807
0.0825065
0.0829471
0.083403
0.0838749
0.0843635
0.0848695
0.0853937
0.0859369
0.0864999
0.0870839
0.0876843
0.0882913
0.0888993
0.0895084
0.0901186
0.0907299
0.0913425
0.0919566
0.0925722
0.0931898
0.0938096
0.0944318
0.095057
0.0956853
0.0963173
0.0969533
0.0975938
0.0982389
0.0988892
0.099545
0.100206
0.100874
0.101547
0.102227
0.102912
0.103604
0.104302
0.105005
0.105714
0.106427
0.107145
0.107866
0.10859
0.109316
0.110044
0.110771
0.111497
0.112222
0.112942
0.113659
0.114369
0.115073
0.115768
0.116454
0.11713
0.117795
0.118447
0.119086
0.119711
0.120322
0.120917
0.121497
0.12206
0.122608
0.123139
0.123652
0.124149
0.124629
0.125091
0.125537
0.125964
0.126375
0.126768
0.127143
0.1275
0.0751166
0.075313
0.0755157
0.0757248
0.0759405
0.0761631
0.0763927
0.0766297
0.0768744
0.0771269
0.0773877
0.0776569
0.0779349
0.078222
0.0785185
0.0788247
0.079141
0.0794678
0.0798053
0.0801541
0.0805146
0.0808871
0.0812722
0.0816703
0.082082
0.0825079
0.0829485
0.0834043
0.0838762
0.0843648
0.0848707
0.0853949
0.085938
0.086501
0.0870849
0.0876854
0.0882923
0.0889003
0.0895093
0.0901195
0.0907308
0.0913435
0.0919575
0.0925733
0.093191
0.0938109
0.0944333
0.0950587
0.0956873
0.0963196
0.096956
0.0975967
0.0982423
0.0988931
0.0995492
0.100211
0.100879
0.101553
0.102233
0.102919
0.103611
0.104309
0.105012
0.105721
0.106434
0.107152
0.107873
0.108597
0.109322
0.110049
0.110776
0.111501
0.112224
0.112943
0.113658
0.114366
0.115068
0.115761
0.116445
0.117118
0.117779
0.118428
0.119064
0.119686
0.120293
0.120884
0.12146
0.122019
0.122561
0.123087
0.123595
0.124086
0.124559
0.125015
0.125452
0.125872
0.126274
0.126657
0.127023
0.127369
0.0751178
0.0753142
0.0755169
0.075726
0.0759417
0.0761643
0.076394
0.076631
0.0768757
0.0771283
0.077389
0.0776583
0.0779363
0.0782234
0.0785199
0.0788261
0.0791424
0.0794692
0.0798068
0.0801555
0.080516
0.0808885
0.0812736
0.0816717
0.0820834
0.0825093
0.0829498
0.0834057
0.0838775
0.0843661
0.084872
0.0853961
0.0859392
0.0865022
0.087086
0.0876864
0.0882932
0.0889012
0.0895103
0.0901204
0.0907318
0.0913444
0.0919585
0.0925744
0.0931922
0.0938123
0.0944349
0.0950605
0.0956894
0.0963221
0.0969588
0.0975999
0.0982459
0.0988971
0.0995537
0.100216
0.100884
0.101559
0.102239
0.102925
0.103618
0.104316
0.10502
0.105729
0.106442
0.107159
0.10788
0.108604
0.109329
0.110055
0.11078
0.111504
0.112226
0.112944
0.113656
0.114363
0.115062
0.115753
0.116434
0.117105
0.117763
0.118409
0.119041
0.119659
0.120262
0.12085
0.121421
0.121975
0.122512
0.123032
0.123534
0.124019
0.124485
0.124933
0.125363
0.125774
0.126167
0.126541
0.126895
0.12723
0.075119
0.0753155
0.0755181
0.0757272
0.075943
0.0761656
0.0763953
0.0766323
0.076877
0.0771296
0.0773904
0.0776597
0.0779377
0.0782248
0.0785213
0.0788276
0.0791439
0.0794706
0.0798082
0.080157
0.0805174
0.0808899
0.081275
0.0816731
0.0820848
0.0825107
0.0829512
0.0834071
0.0838789
0.0843674
0.0848732
0.0853973
0.0859404
0.0865033
0.0870871
0.0876874
0.0882943
0.0889022
0.0895112
0.0901214
0.0907327
0.0913454
0.0919596
0.0925756
0.0931935
0.0938138
0.0944366
0.0950625
0.0956917
0.0963247
0.0969618
0.0976033
0.0982498
0.0989014
0.0995585
0.100221
0.10089
0.101565
0.102246
0.102932
0.103625
0.104324
0.105028
0.105737
0.10645
0.107167
0.107888
0.108611
0.109335
0.110061
0.110785
0.111508
0.112228
0.112944
0.113655
0.11436
0.115057
0.115745
0.116424
0.117091
0.117747
0.118389
0.119018
0.119632
0.12023
0.120813
0.121379
0.121929
0.12246
0.122974
0.12347
0.123948
0.124407
0.124847
0.125268
0.125671
0.126053
0.126417
0.12676
0.127084
0.0751202
0.0753167
0.0755194
0.0757285
0.0759442
0.0761669
0.0763966
0.0766337
0.0768784
0.077131
0.0773918
0.0776611
0.0779391
0.0782262
0.0785228
0.078829
0.0791453
0.0794721
0.0798097
0.0801585
0.0805189
0.0808914
0.0812765
0.0816746
0.0820863
0.0825121
0.0829526
0.0834084
0.0838802
0.0843687
0.0848746
0.0853986
0.0859416
0.0865045
0.0870882
0.0876885
0.0882953
0.0889032
0.0895122
0.0901224
0.0907337
0.0913465
0.0919608
0.0925768
0.0931949
0.0938154
0.0944385
0.0950646
0.0956941
0.0963275
0.096965
0.097607
0.0982539
0.098906
0.0995636
0.100227
0.100896
0.101571
0.102253
0.10294
0.103633
0.104332
0.105036
0.105745
0.106459
0.107176
0.107896
0.108619
0.109342
0.110067
0.11079
0.111512
0.112231
0.112945
0.113654
0.114357
0.115051
0.115737
0.116413
0.117077
0.117729
0.118368
0.118993
0.119603
0.120197
0.120775
0.121336
0.12188
0.122406
0.122913
0.123402
0.123873
0.124324
0.124756
0.125168
0.125561
0.125933
0.126286
0.126617
0.126929
0.0751215
0.0753179
0.0755206
0.0757297
0.0759455
0.0761682
0.0763979
0.076635
0.0768798
0.0771324
0.0773932
0.0776625
0.0779406
0.0782277
0.0785242
0.0788305
0.0791468
0.0794736
0.0798112
0.0801599
0.0805204
0.0808929
0.081278
0.0816761
0.0820878
0.0825136
0.0829541
0.0834099
0.0838816
0.0843701
0.0848759
0.0853999
0.0859428
0.0865057
0.0870894
0.0876896
0.0882964
0.0889043
0.0895132
0.0901234
0.0907348
0.0913476
0.091962
0.0925782
0.0931964
0.0938171
0.0944405
0.0950669
0.0956968
0.0963305
0.0969684
0.0976109
0.0982583
0.0989109
0.099569
0.100233
0.100903
0.101578
0.10226
0.102948
0.103641
0.10434
0.105045
0.105754
0.106467
0.107185
0.107905
0.108627
0.10935
0.110073
0.110796
0.111516
0.112233
0.112946
0.113653
0.114353
0.115046
0.115728
0.116401
0.117062
0.117711
0.118346
0.118967
0.119572
0.120162
0.120734
0.12129
0.121828
0.122347
0.122848
0.12333
0.123793
0.124236
0.124659
0.125062
0.125444
0.125806
0.126147
0.126467
0.126765
0.0751227
0.0753192
0.0755219
0.075731
0.0759468
0.0761695
0.0763993
0.0766364
0.0768812
0.0771338
0.0773947
0.077664
0.077942
0.0782292
0.0785257
0.078832
0.0791483
0.0794751
0.0798127
0.0801615
0.0805219
0.0808944
0.0812795
0.0816776
0.0820893
0.0825151
0.0829555
0.0834113
0.0838831
0.0843715
0.0848772
0.0854012
0.0859441
0.0865069
0.0870906
0.0876908
0.0882975
0.0889054
0.0895143
0.0901245
0.090736
0.0913488
0.0919633
0.0925797
0.0931981
0.093819
0.0944426
0.0950694
0.0956996
0.0963338
0.0969721
0.0976151
0.098263
0.0989162
0.0995748
0.100239
0.10091
0.101586
0.102268
0.102956
0.10365
0.10435
0.105054
0.105764
0.106477
0.107194
0.107914
0.108635
0.109358
0.11008
0.110801
0.11152
0.112236
0.112947
0.113652
0.11435
0.11504
0.11572
0.116389
0.117047
0.117691
0.118323
0.118939
0.11954
0.120124
0.120692
0.121241
0.121773
0.122286
0.12278
0.123254
0.123708
0.124142
0.124556
0.124949
0.125321
0.125671
0.126
0.126307
0.126592
0.075124
0.0753204
0.0755231
0.0757323
0.0759481
0.0761708
0.0764006
0.0766378
0.0768826
0.0771352
0.0773961
0.0776654
0.0779435
0.0782307
0.0785272
0.0788335
0.0791499
0.0794766
0.0798142
0.080163
0.0805235
0.080896
0.0812811
0.0816792
0.0820908
0.0825166
0.0829571
0.0834128
0.0838845
0.0843729
0.0848786
0.0854025
0.0859454
0.0865082
0.0870918
0.087692
0.0882987
0.0889065
0.0895155
0.0901257
0.0907372
0.0913502
0.0919648
0.0925813
0.0931999
0.093821
0.094445
0.0950721
0.0957027
0.0963373
0.0969761
0.0976196
0.0982681
0.0989218
0.0995811
0.100246
0.100917
0.101594
0.102277
0.102965
0.10366
0.104359
0.105064
0.105774
0.106487
0.107204
0.107923
0.108644
0.109366
0.110087
0.110807
0.111525
0.112239
0.112948
0.113651
0.114346
0.115033
0.11571
0.116376
0.11703
0.117671
0.118298
0.11891
0.119506
0.120085
0.120646
0.12119
0.121715
0.122221
0.122707
0.123173
0.123618
0.124043
0.124447
0.124829
0.12519
0.125529
0.125845
0.126139
0.126411
0.0751252
0.0753217
0.0755244
0.0757336
0.0759494
0.0761721
0.076402
0.0766392
0.076884
0.0771367
0.0773976
0.0776669
0.077945
0.0782322
0.0785288
0.0788351
0.0791514
0.0794782
0.0798158
0.0801646
0.0805251
0.0808976
0.0812827
0.0816808
0.0820924
0.0825182
0.0829586
0.0834143
0.083886
0.0843744
0.0848801
0.0854039
0.0859468
0.0865095
0.0870931