/*--------------------------------*- C++ -*----------------------------------*\
  =========                 |
  \\      /  F ield         | OpenFOAM: The Open Source CFD Toolbox
   \\    /   O peration     | Website:  https://openfoam.org
    \\  /    A nd           | Version:  10
     \\/     M anipulation  |
\*---------------------------------------------------------------------------*/
FoamFile
{
    format      ascii;
    class       volScalarField;
    location    "67000";
    object      p;
}
// * * * * * * * * * * * * * * * * * * * * * * * * * * * * * * * * * * * * * //

dimensions      [0 2 -2 0 0 0 0];

internalField   nonuniform List<scalar> 
17922
(
7.1071
7.0616
7.01524
6.96801
6.91989
6.87087
6.82094
6.77008
6.71827
6.66551
6.61177
6.55704
6.50131
6.44456
6.38677
6.32793
6.26802
6.20703
6.14493
6.0817
6.01734
5.95182
5.88512
5.81722
5.7481
5.67774
5.60611
5.5332
5.45963
5.38667
5.31494
5.24443
5.17511
5.10696
5.03995
4.97408
4.9093
4.84561
4.78298
4.72138
4.66081
4.60123
4.54263
4.48498
4.42828
4.37249
4.31759
4.26358
4.21042
4.15811
4.10661
4.05592
4.00602
3.95689
3.9085
3.86086
3.81393
3.7677
3.72216
3.67728
3.63307
3.58949
3.54653
3.50419
3.46245
3.42129
3.38071
3.34069
3.30122
3.26228
3.22388
3.186
3.14863
3.11176
3.07539
3.0395
3.00409
2.96915
2.93467
2.90064
2.86706
2.83393
2.80123
2.76896
2.73712
2.70569
2.67468
2.64408
2.61389
2.5841
2.5547
2.5257
2.49709
7.1071
7.06161
7.01525
6.96803
6.91991
6.8709
6.82097
6.77011
6.71831
6.66555
6.61181
6.55709
6.50136
6.44462
6.38683
6.32799
6.26809
6.2071
6.145
6.08178
6.01742
5.9519
5.8852
5.81731
5.74819
5.67784
5.60622
5.53331
5.45974
5.38678
5.31506
5.24455
5.17524
5.10709
5.04009
4.97422
4.90945
4.84576
4.78313
4.72153
4.66096
4.60138
4.54278
4.48514
4.42843
4.37264
4.31775
4.26373
4.21058
4.15826
4.10677
4.05608
4.00617
3.95704
3.90865
3.86101
3.81408
3.76785
3.7223
3.67743
3.63321
3.58963
3.54668
3.50434
3.4626
3.42145
3.38087
3.34085
3.30138
3.26246
3.22406
3.18619
3.14883
3.11197
3.0756
3.03972
3.00432
2.96939
2.93492
2.9009
2.86734
2.83422
2.80154
2.76928
2.73746
2.70605
2.67506
2.64448
2.61431
2.58454
2.55518
2.52621
2.49763
7.10705
7.06155
7.0152
6.96798
6.91986
6.87085
6.82092
6.77006
6.71826
6.6655
6.61177
6.55704
6.50132
6.44457
6.38678
6.32795
6.26804
6.20705
6.14495
6.08173
6.01737
5.95185
5.88515
5.81725
5.74814
5.67778
5.60616
5.53325
5.45968
5.38672
5.31499
5.24448
5.17516
5.10701
5.04001
4.97413
4.90936
4.84567
4.78303
4.72144
4.66086
4.60128
4.54267
4.48502
4.42831
4.37251
4.31761
4.26359
4.21043
4.15811
4.1066
4.05591
4.006
3.95685
3.90846
3.86081
3.81387
3.76763
3.72208
3.6772
3.63297
3.58939
3.54643
3.50408
3.46234
3.42118
3.3806
3.34057
3.3011
3.26218
3.22378
3.1859
3.14854
3.11168
3.07532
3.03944
3.00404
2.96911
2.93464
2.90063
2.86707
2.83396
2.80128
2.76904
2.73722
2.70583
2.67485
2.64428
2.61413
2.58438
2.55503
2.52608
2.49753
7.10696
7.06147
7.01511
6.96789
6.91977
6.87076
6.82083
6.76997
6.71817
6.66541
6.61167
6.55695
6.50122
6.44447
6.38668
6.32784
6.26794
6.20694
6.14484
6.08162
6.01725
5.95173
5.88503
5.81713
5.74801
5.67765
5.60602
5.53311
5.45954
5.38657
5.31484
5.24433
5.175
5.10685
5.03984
4.97396
4.90918
4.84548
4.78284
4.72124
4.66065
4.60107
4.54245
4.4848
4.42808
4.37228
4.31737
4.26334
4.21017
4.15784
4.10633
4.05562
4.0057
3.95655
3.90815
3.86049
3.81354
3.7673
3.72174
3.67685
3.63262
3.58902
3.54606
3.50371
3.46195
3.42079
3.3802
3.34018
3.3007
3.26177
3.22338
3.1855
3.14814
3.11128
3.07491
3.03904
3.00364
2.96871
2.93425
2.90025
2.8667
2.83359
2.80092
2.76869
2.73688
2.7055
2.67454
2.64399
2.61385
2.58412
2.5548
2.52587
2.49734
7.10689
7.0614
7.01505
6.96782
6.9197
6.87069
6.82076
6.7699
6.7181
6.66533
6.6116
6.55687
6.50114
6.44439
6.3866
6.32776
6.26785
6.20685
6.14475
6.08153
6.01716
5.95164
5.88493
5.81703
5.7479
5.67754
5.60591
5.533
5.45942
5.38645
5.31471
5.24419
5.17487
5.10671
5.0397
4.97381
4.90902
4.84532
4.78267
4.72107
4.66048
4.60088
4.54227
4.4846
4.42788
4.37207
4.31716
4.26312
4.20994
4.1576
4.10609
4.05537
4.00545
3.95629
3.90788
3.86021
3.81325
3.767
3.72143
3.67654
3.6323
3.5887
3.54573
3.50337
3.46161
3.42045
3.37985
3.33983
3.30035
3.26142
3.22302
3.18515
3.14778
3.11093
3.07456
3.03869
3.0033
2.96837
2.93392
2.89992
2.86638
2.83328
2.80062
2.7684
2.73661
2.70524
2.6743
2.64377
2.61365
2.58394
2.55464
2.52574
2.49724
7.10683
7.06134
7.01498
6.96776
6.91964
6.87063
6.8207
6.76984
6.71803
6.66527
6.61153
6.55681
6.50107
6.44432
6.38653
6.32769
6.26778
6.20678
6.14467
6.08145
6.01708
5.95155
5.88485
5.81694
5.74781
5.67744
5.60581
5.53289
5.45931
5.38634
5.3146
5.24408
5.17474
5.10658
5.03956
4.97367
4.90888
4.84517
4.78252
4.72091
4.66032
4.60072
4.54209
4.48443
4.42769
4.37188
4.31696
4.26291
4.20973
4.15738
4.10586
4.05514
4.0052
3.95604
3.90762
3.85994
3.81298
3.76672
3.72115
3.67624
3.632
3.58839
3.54542
3.50305
3.46129
3.42012
3.37952
3.33949
3.30002
3.26108
3.22269
3.18481
3.14745
3.11059
3.07423
3.03836
3.00297
2.96806
2.93361
2.89962
2.86608
2.833
2.80035
2.76814
2.73636
2.70501
2.67408
2.64357
2.61347
2.58378
2.5545
2.52563
2.49715
7.10677
7.06128
7.01492
6.9677
6.91958
6.87057
6.82064
6.76978
6.71797
6.66521
6.61147
6.55674
6.50101
6.44426
6.38647
6.32762
6.26771
6.20671
6.1446
6.08137
6.017
5.95147
5.88476
5.81685
5.74772
5.67735
5.60572
5.53279
5.45921
5.38623
5.31449
5.24396
5.17463
5.10646
5.03944
4.97354
4.90874
4.84503
4.78237
4.72076
4.66016
4.60055
4.54192
4.48425
4.42751
4.37169
4.31676
4.26271
4.20952
4.15716
4.10563
4.0549
4.00496
3.95579
3.90737
3.85968
3.81271
3.76644
3.72086
3.67595
3.6317
3.58809
3.54511
3.50274
3.46097
3.4198
3.3792
3.33917
3.29969
3.26075
3.22236
3.18448
3.14712
3.11027
3.07391
3.03804
3.00266
2.96775
2.93331
2.89933
2.8658
2.83272
2.80009
2.76789
2.73613
2.70479
2.67388
2.64338
2.61331
2.58364
2.55439
2.52554
2.49709
7.10671
7.06122
7.01487
6.96764
6.91953
6.87051
6.82058
6.76972
6.71791
6.66515
6.61141
6.55668
6.50095
6.44419
6.3864
6.32756
6.26764
6.20664
6.14453
6.0813
6.01693
5.95139
5.88468
5.81677
5.74764
5.67726
5.60562
5.5327
5.45911
5.38613
5.31438
5.24385
5.17451
5.10634
5.03931
4.97341
4.90861
4.84489
4.78223
4.72061
4.66
4.60039
4.54175
4.48407
4.42733
4.3715
4.31656
4.26251
4.20931
4.15695
4.10541
4.05467
4.00472
3.95554
3.90711
3.85942
3.81244
3.76617
3.72058
3.67566
3.6314
3.58779
3.5448
3.50243
3.46066
3.41948
3.37888
3.33885
3.29937
3.26043
3.22203
3.18416
3.1468
3.10995
3.0736
3.03774
3.00236
2.96745
2.93302
2.89905
2.86553
2.83246
2.79984
2.76766
2.73591
2.70459
2.67369
2.64322
2.61316
2.58352
2.55429
2.52546
2.49704
7.10666
7.06116
7.01481
6.96759
6.91947
6.87046
6.82053
6.76967
6.71786
6.66509
6.61135
6.55663
6.50089
6.44413
6.38634
6.32749
6.26758
6.20657
6.14446
6.08123
6.01686
5.95132
5.88461
5.81669
5.74756
5.67718
5.60554
5.53261
5.45901
5.38603
5.31428
5.24374
5.1744
5.10622
5.03919
4.97328
4.90848
4.84475
4.78209
4.72046
4.65985
4.60023
4.54159
4.4839
4.42715
4.37131
4.31637
4.26231
4.2091
4.15673
4.10519
4.05445
4.00449
3.9553
3.90686
3.85916
3.81218
3.7659
3.7203
3.67538
3.63112
3.5875
3.5445
3.50213
3.46036
3.41917
3.37857
3.33853
3.29905
3.26012
3.22172
3.18385
3.14649
3.10965
3.0733
3.03744
3.00207
2.96717
2.93274
2.89878
2.86527
2.83222
2.79961
2.76744
2.73571
2.7044
2.67353
2.64307
2.61304
2.58342
2.55421
2.52541
2.49702
7.1066
7.06111
7.01476
6.96754
6.91942
6.87041
6.82048
6.76962
6.71781
6.66504
6.6113
6.55657
6.50084
6.44408
6.38629
6.32744
6.26752
6.20651
6.1444
6.08116
6.01679
5.95125
5.88453
5.81662
5.74748
5.6771
5.60545
5.53252
5.45892
5.38593
5.31418
5.24364
5.17429
5.10611
5.03907
4.97316
4.90835
4.84462
4.78195
4.72031
4.6597
4.60007
4.54143
4.48373
4.42697
4.37113
4.31618
4.26211
4.2089
4.15653
4.10497
4.05422
4.00426
3.95507
3.90662
3.85891
3.81192
3.76564
3.72004
3.67511
3.63084
3.58721
3.54422
3.50184
3.46006
3.41888
3.37827
3.33823
3.29875
3.25982
3.22142
3.18355
3.1462
3.10935
3.07301
3.03716
3.00179
2.9669
2.93249
2.89853
2.86504
2.83199
2.7994
2.76724
2.73552
2.70424
2.67338
2.64295
2.61293
2.58334
2.55415
2.52538
2.49702
7.10656
7.06107
7.01472
6.96749
6.91938
6.87036
6.82043
6.76957
6.71776
6.665
6.61126
6.55652
6.50079
6.44403
6.38623
6.32738
6.26746
6.20645
6.14434
6.0811
6.01672
5.95118
5.88446
5.81654
5.7474
5.67702
5.60537
5.53243
5.45883
5.38584
5.31408
5.24354
5.17418
5.106
5.03896
4.97304
4.90822
4.84449
4.78181
4.72017
4.65955
4.59992
4.54127
4.48357
4.42681
4.37096
4.316
4.26192
4.2087
4.15632
4.10476
4.05401
4.00404
3.95484
3.90639
3.85867
3.81167
3.76538
3.71977
3.67484
3.63057
3.58694
3.54394
3.50155
3.45977
3.41859
3.37798
3.33794
3.29846
3.25953
3.22113
3.18327
3.14592
3.10908
3.07274
3.03689
3.00153
2.96665
2.93224
2.8983
2.86481
2.83178
2.7992
2.76706
2.73536
2.70409
2.67325
2.64284
2.61285
2.58328
2.55412
2.52537
2.49703
7.10651
7.06103
7.01467
6.96745
6.91934
6.87032
6.82039
6.76953
6.71772
6.66495
6.61121
6.55648
6.50074
6.44398
6.38618
6.32733
6.26741
6.2064
6.14429
6.08105
6.01666
5.95112
5.8844
5.81648
5.74733
5.67695
5.60529
5.53235
5.45875
5.38575
5.31399
5.24344
5.17408
5.10589
5.03885
4.97292
4.9081
4.84436
4.78168
4.72004
4.65941
4.59977
4.54112
4.48341
4.42664
4.37078
4.31582
4.26174
4.20851
4.15613
4.10456
4.0538
4.00382
3.95461
3.90616
3.85843
3.81143
3.76513
3.71952
3.67458
3.6303
3.58667
3.54367
3.50128
3.4595
3.41831
3.3777
3.33766
3.29818
3.25925
3.22086
3.18299
3.14565
3.10881
3.07248
3.03664
3.00129
2.96641
2.93201
2.89808
2.86461
2.83159
2.79902
2.7669
2.73521
2.70396
2.67314
2.64275
2.61278
2.58323
2.5541
2.52538
2.49707
7.10648
7.06099
7.01464
6.96741
6.9193
6.87028
6.82035
6.76949
6.71768
6.66491
6.61117
6.55644
6.5007
6.44394
6.38614
6.32729
6.26736
6.20635
6.14423
6.08099
6.01661
5.95107
5.88434
5.81641
5.74727
5.67688
5.60522
5.53228
5.45867
5.38567
5.3139
5.24335
5.17398
5.10579
5.03874
4.97281
4.90799
4.84424
4.78156
4.71991
4.65927
4.59963
4.54097
4.48326
4.42648
4.37062
4.31565
4.26156
4.20833
4.15593
4.10436
4.05359
4.00361
3.95439
3.90593
3.8582
3.8112
3.76489
3.71928
3.67433
3.63005
3.58641
3.5434
3.50102
3.45923
3.41804
3.37743
3.33739
3.29792
3.25899
3.22059
3.18273
3.14539
3.10856
3.07223
3.0364
3.00106
2.96619
2.9318
2.89788
2.86442
2.83142
2.79886
2.76675
2.73509
2.70386
2.67306
2.64268
2.61274
2.58321
2.5541
2.52541
2.49712
7.10644
7.06095
7.0146
6.96738
6.91926
6.87025
6.82032
6.76945
6.71765
6.66488
6.61113
6.5564
6.50066
6.4439
6.3861
6.32724
6.26732
6.20631
6.14419
6.08094
6.01656
5.95101
5.88428
5.81636
5.74721
5.67681
5.60515
5.53221
5.45859
5.38559
5.31382
5.24326
5.17389
5.10569
5.03864
4.97271
4.90788
4.84413
4.78143
4.71978
4.65914
4.59949
4.54082
4.48311
4.42632
4.37046
4.31548
4.26139
4.20815
4.15575
4.10417
4.05339
4.00341
3.95418
3.90572
3.85798
3.81097
3.76466
3.71904
3.67409
3.62981
3.58616
3.54315
3.50076
3.45898
3.41779
3.37718
3.33714
3.29766
3.25873
3.22035
3.18249
3.14515
3.10832
3.072
3.03618
3.00084
2.96599
2.93161
2.8977
2.86425
2.83126
2.79872
2.76663
2.73498
2.70377
2.67299
2.64264
2.61271
2.58321
2.55412
2.52545
2.49719
7.10641
7.06092
7.01457
6.96734
6.91923
6.87022
6.82028
6.76942
6.71761
6.66484
6.6111
6.55637
6.50063
6.44386
6.38606
6.32721
6.26728
6.20626
6.14414
6.0809
6.01651
5.95096
5.88423
5.8163
5.74715
5.67675
5.60509
5.53214
5.45852
5.38551
5.31374
5.24317
5.1738
5.1056
5.03854
4.9726
4.90777
4.84401
4.78132
4.71966
4.65901
4.59936
4.54068
4.48296
4.42617
4.3703
4.31532
4.26122
4.20797
4.15557
4.10398
4.0532
4.00321
3.95398
3.90551
3.85777
3.81075
3.76444
3.71881
3.67386
3.62957
3.58593
3.54291
3.50052
3.45874
3.41754
3.37693
3.3369
3.29742
3.2585
3.22011
3.18226
3.14492
3.10811
3.07179
3.03597
3.00065
2.9658
2.93144
2.89754
2.8641
2.83113
2.7986
2.76653
2.73489
2.7037
2.67294
2.64261
2.6127
2.58322
2.55416
2.52552
2.49728
7.10638
7.06089
7.01454
6.96732
6.9192
6.87019
6.82026
6.76939
6.71759
6.66482
6.61107
6.55634
6.50059
6.44383
6.38603
6.32717
6.26724
6.20623
6.1441
6.08086
6.01647
5.95091
5.88418
5.81625
5.74709
5.67669
5.60503
5.53207
5.45845
5.38544
5.31366
5.24309
5.17372
5.10551
5.03845
4.97251
4.90767
4.84391
4.7812
4.71954
4.65889
4.59923
4.54055
4.48282
4.42603
4.37015
4.31516
4.26106
4.20781
4.1554
4.10381
4.05302
4.00302
3.95379
3.90531
3.85757
3.81054
3.76422
3.7186
3.67364
3.62935
3.5857
3.54269
3.50029
3.45851
3.41731
3.37671
3.33667
3.2972
3.25827
3.21989
3.18204
3.14472
3.1079
3.0716
3.03579
3.00047
2.96564
2.93128
2.89739
2.86397
2.83101
2.7985
2.76644
2.73482
2.70365
2.67291
2.6426
2.61272
2.58326
2.55422
2.5256
2.49739
7.27996
7.23778
7.1948
7.15099
7.10635
7.06086
7.01452
6.96729
6.91918
6.87017
6.82023
6.76937
6.71756
6.66479
6.61105
6.55631
6.50057
6.4438
6.386
6.32714
6.26721
6.20619
6.14407
6.08082
6.01643
5.95087
5.88414
5.8162
5.74704
5.67664
5.60497
5.53201
5.45839
5.38537
5.31359
5.24302
5.17364
5.10542
5.03836
4.97241
4.90757
4.8438
4.7811
4.71942
4.65877
4.59911
4.54042
4.48269
4.42589
4.37
4.31502
4.2609
4.20765
4.15523
4.10363
4.05284
4.00284
3.9536
3.90512
3.85737
3.81034
3.76402
3.71839
3.67343
3.62914
3.58549
3.54247
3.50008
3.45829
3.4171
3.37649
3.33646
3.29699
3.25807
3.21969
3.18185
3.14452
3.10772
3.07142
3.03562
3.00031
2.96549
2.93114
2.89727
2.86386
2.83091
2.79842
2.76638
2.73478
2.70362
2.6729
2.64261
2.61275
2.58331
2.5543
2.5257
2.49752
7.27993
7.23775
7.19477
7.15096
7.10633
7.06084
7.0145
6.96727
6.91916
6.87015
6.82022
6.76935
6.71754
6.66477
6.61102
6.55629
6.50054
6.44378
6.38597
6.32711
6.26718
6.20616
6.14404
6.08078
6.01639
5.95083
5.8841
5.81616
5.747
5.67659
5.60492
5.53196
5.45833
5.38531
5.31352
5.24295
5.17356
5.10534
5.03827
4.97232
4.90747
4.84371
4.78099
4.71932
4.65866
4.59899
4.5403
4.48256
4.42576
4.36987
4.31487
4.26075
4.20749
4.15507
4.10347
4.05268
4.00267
3.95343
3.90494
3.85719
3.81016
3.76383
3.7182
3.67324
3.62894
3.58529
3.54227
3.49988
3.45809
3.4169
3.37629
3.33626
3.29679
3.25788
3.21951
3.18167
3.14435
3.10755
3.07126
3.03547
3.00017
2.96536
2.93102
2.89716
2.86377
2.83084
2.79836
2.76633
2.73475
2.70361
2.67291
2.64264
2.6128
2.58339
2.5544
2.52582
2.49766
7.27991
7.23773
7.19475
7.15095
7.10631
7.06083
7.01448
6.96726
6.91915
6.87013
6.8202
6.76934
6.71753
6.66475
6.61101
6.55627
6.50052
6.44376
6.38595
6.32709
6.26716
6.20614
6.14401
6.08075
6.01636
5.9508
5.88406
5.81612
5.74695
5.67655
5.60487
5.5319
5.45827
5.38525
5.31346
5.24288
5.17349
5.10527
5.03819
4.97224
4.90739
4.84361
4.7809
4.71922
4.65855
4.59888
4.54018
4.48244
4.42563
4.36974
4.31474
4.26061
4.20735
4.15492
4.10332
4.05252
4.0025
3.95326
3.90477
3.85701
3.80998
3.76365
3.71801
3.67305
3.62875
3.5851
3.54208
3.49969
3.4579
3.41671
3.37611
3.33608
3.29662
3.25771
3.21934
3.1815
3.1442
3.1074
3.07112
3.03534
3.00005
2.96525
2.93093
2.89708
2.8637
2.83078
2.79832
2.76631
2.73475
2.70362
2.67294
2.64269
2.61288
2.58348
2.55451
2.52596
2.49782
7.40169
7.36187
7.32128
7.2799
7.23773
7.19475
7.15095
7.10631
7.06082
7.01448
6.96725
6.91914
6.87012
6.82019
6.76933
6.71751
6.66474
6.61099
6.55626
6.50051
6.44374
6.38593
6.32707
6.26714
6.20611
6.14398
6.08073
6.01633
5.95077
5.88403
5.81608
5.74692
5.6765
5.60483
5.53186
5.45822
5.38519
5.3134
5.24282
5.17342
5.1052
5.03812
4.97216
4.9073
4.84353
4.78081
4.71912
4.65845
4.59878
4.54007
4.48233
4.42551
4.36961
4.31461
4.26048
4.20721
4.15478
4.10317
4.05237
4.00235
3.9531
3.90461
3.85685
3.80981
3.76348
3.71785
3.67288
3.62858
3.58493
3.54191
3.49952
3.45773
3.41655
3.37595
3.33592
3.29646
3.25755
3.21919
3.18136
3.14406
3.10728
3.071
3.03523
2.99995
2.96516
2.93085
2.89702
2.86365
2.83075
2.7983
2.76631
2.73476
2.70366
2.67299
2.64277
2.61297
2.5836
2.55465
2.52612
2.498
7.40168
7.36186
7.32127
7.2799
7.23773
7.19475
7.15094
7.10631
7.06082
7.01447
6.96725
6.91913
6.87012
6.82018
6.76932
6.71751
6.66473
6.61099
6.55624
6.5005
6.44373
6.38592
6.32706
6.26712
6.20609
6.14396
6.08071
6.01631
5.95074
5.884
5.81605
5.74688
5.67647
5.60479
5.53181
5.45818
5.38514
5.31335
5.24276
5.17336
5.10513
5.03805
4.97209
4.90723
4.84345
4.78072
4.71903
4.65836
4.59868
4.53997
4.48222
4.4254
4.3695
4.31449
4.26036
4.20709
4.15465
4.10304
4.05223
4.00221
3.95296
3.90446
3.8567
3.80966
3.76333
3.71769
3.67273
3.62843
3.58477
3.54176
3.49936
3.45758
3.4164
3.3758
3.33578
3.29632
3.25742
3.21906
3.18124
3.14395
3.10717
3.07091
3.03514
2.99988
2.9651
2.9308
2.89698
2.86362
2.83074
2.7983
2.76633
2.7348
2.70371
2.67307
2.64286
2.61308
2.58373
2.5548
2.52629
2.4982
7.40169
7.36187
7.32128
7.2799
7.23773
7.19475
7.15095
7.10631
7.06082
7.01447
6.96725
6.91914
6.87012
6.82018
6.76932
6.7175
6.66473
6.61098
6.55624
6.50049
6.44372
6.38591
6.32704
6.26711
6.20608
6.14395
6.08069
6.01629
5.95072
5.88397
5.81602
5.74685
5.67644
5.60475
5.53178
5.45813
5.3851
5.3133
5.24271
5.17331
5.10508
5.03799
4.97202
4.90716
4.84337
4.78064
4.71895
4.65827
4.59859
4.53988
4.48212
4.4253
4.36939
4.31438
4.26025
4.20697
4.15453
4.10292
4.05211
4.00208
3.95283
3.90433
3.85657
3.80953
3.76319
3.71755
3.67259
3.62829
3.58463
3.54162
3.49923
3.45745
3.41626
3.37567
3.33565
3.2962
3.2573
3.21895
3.18114
3.14385
3.10709
3.07083
3.03508
2.99982
2.96505
2.93077
2.89696
2.86362
2.83075
2.79833
2.76637
2.73486
2.70379
2.67316
2.64297
2.61321
2.58388
2.55497
2.52649
2.49841
7.4017
7.36188
7.32129
7.27992
7.23775
7.19476
7.15096
7.10632
7.06083
7.01448
6.96726
6.91914
6.87012
6.82019
6.76932
6.71751
6.66473
6.61098
6.55624
6.50049
6.44372
6.3859
6.32704
6.2671
6.20607
6.14393
6.08067
6.01627
5.9507
5.88395
5.816
5.74683
5.67641
5.60472
5.53174
5.4581
5.38506
5.31325
5.24266
5.17326
5.10502
5.03793
4.97196
4.90709
4.8433
4.78057
4.71887
4.65819
4.59851
4.53979
4.48203
4.42521
4.3693
4.31428
4.26015
4.20686
4.15442
4.10281
4.05199
4.00197
3.95271
3.90421
3.85644
3.8094
3.76307
3.71743
3.67246
3.62816
3.58451
3.5415
3.49911
3.45733
3.41615
3.37556
3.33555
3.2961
3.25721
3.21887
3.18106
3.14378
3.10703
3.07078
3.03504
2.99979
2.96503
2.93076
2.89697
2.86364
2.83078
2.79838
2.76644
2.73494
2.70389
2.67328
2.64311
2.61337
2.58406
2.55517
2.5267
2.49864
7.40173
7.36191
7.32132
7.27994
7.23777
7.19478
7.15098
7.10634
7.06085
7.01449
6.96727
6.91915
6.87013
6.82019
6.76933
6.71751
6.66474
6.61098
6.55624
6.50049
6.44372
6.3859
6.32703
6.26709
6.20606
6.14393
6.08066
6.01626
5.95069
5.88394
5.81598
5.74681
5.67638
5.6047
5.53171
5.45807
5.38502
5.31322
5.24262
5.17321
5.10497
5.03788
4.97191
4.90704
4.84324
4.78051
4.71881
4.65812
4.59843
4.53972
4.48195
4.42513
4.36921
4.31419
4.26005
4.20677
4.15433
4.10271
4.05189
4.00186
3.9526
3.9041
3.85634
3.80929
3.76296
3.71732
3.67236
3.62806
3.58441
3.5414
3.49901
3.45723
3.41606
3.37547
3.33547
3.29602
3.25714
3.2188
3.18101
3.14374
3.10699
3.07075
3.03502
2.99978
2.96504
2.93078
2.897
2.86369
2.83084
2.79846
2.76653
2.73505
2.70402
2.67342
2.64327
2.61355
2.58425
2.55538
2.52693
2.4989
7.40176
7.36194
7.32134
7.27997
7.23779
7.19481
7.151
7.10636
7.06087
7.01451
6.96728
6.91917
6.87015
6.82021
6.76934
6.71752
6.66474
6.61099
6.55625
6.50049
6.44372
6.38591
6.32704
6.26709
6.20606
6.14392
6.08066
6.01625
5.95068
5.88393
5.81597
5.74679
5.67637
5.60467
5.53169
5.45804
5.38499
5.31318
5.24259
5.17318
5.10493
5.03784
4.97186
4.90699
4.84319
4.78045
4.71875
4.65806
4.59837
4.53965
4.48188
4.42505
4.36914
4.31412
4.25997
4.20669
4.15424
4.10262
4.0518
4.00177
3.95251
3.90401
3.85625
3.8092
3.76287
3.71723
3.67227
3.62797
3.58432
3.54131
3.49893
3.45716
3.41599
3.37541
3.33541
3.29597
3.25709
3.21876
3.18097
3.14371
3.10697
3.07075
3.03503
2.9998
2.96507
2.93082
2.89705
2.86376
2.83093
2.79856
2.76664
2.73518
2.70416
2.67359
2.64345
2.61375
2.58447
2.55562
2.52718
2.49917
7.4018
7.36197
7.32138
7.28
7.23782
7.19483
7.15103
7.10638
7.06089
7.01454
6.96731
6.91919
6.87017
6.82023
6.76935
6.71754
6.66476
6.611
6.55626
6.5005
6.44373
6.38591
6.32704
6.2671
6.20607
6.14392
6.08066
6.01625
5.95068
5.88392
5.81596
5.74678
5.67635
5.60466
5.53167
5.45802
5.38497
5.31316
5.24256
5.17314
5.1049
5.0378
4.97182
4.90694
4.84314
4.7804
4.7187
4.65801
4.59831
4.53959
4.48182
4.42499
4.36907
4.31405
4.2599
4.20662
4.15417
4.10255
4.05173
4.0017
3.95244
3.90394
3.85617
3.80913
3.7628
3.71716
3.6722
3.6279
3.58426
3.54125
3.49887
3.45711
3.41594
3.37537
3.33537
3.29594
3.25707
3.21875
3.18097
3.14372
3.10699
3.07077
3.03506
2.99985
2.96513
2.93089
2.89714
2.86385
2.83104
2.79868
2.76678
2.73534
2.70434
2.67378
2.64366
2.61397
2.58471
2.55587
2.52746
2.49946
7.40184
7.36202
7.32142
7.28004
7.23786
7.19487
7.15106
7.10641
7.06092
7.01456
6.96733
6.91921
6.87019
6.82025
6.76938
6.71756
6.66478
6.61102
6.55627
6.50052
6.44374
6.38592
6.32705
6.26711
6.20607
6.14393
6.08066
6.01625
5.95068
5.88392
5.81596
5.74677
5.67635
5.60465
5.53166
5.458
5.38495
5.31314
5.24253
5.17312
5.10487
5.03777
4.97179
4.90691
4.84311
4.78036
4.71866
4.65796
4.59827
4.53954
4.48177
4.42494
4.36902
4.31399
4.25985
4.20656
4.15411
4.10249
4.05167
4.00164
3.95238
3.90388
3.85611
3.80907
3.76274
3.7171
3.67215
3.62785
3.58421
3.54121
3.49884
3.45707
3.41592
3.37535
3.33536
3.29594
3.25707
3.21876
3.18099
3.14374
3.10702
3.07082
3.03512
2.99992
2.96521
2.93099
2.89725
2.86398
2.83117
2.79883
2.76695
2.73552
2.70454
2.67399
2.64389
2.61422
2.58498
2.55616
2.52776
2.49978
7.40189
7.36207
7.32147
7.28008
7.2379
7.19491
7.1511
7.10645
7.06096
7.0146
6.96737
6.91924
6.87022
6.82028
6.7694
6.71758
6.6648
6.61104
6.55629
6.50054
6.44376
6.38594
6.32707
6.26712
6.20608
6.14394
6.08067
6.01626
5.95068
5.88392
5.81596
5.74677
5.67634
5.60464
5.53165
5.45799
5.38494
5.31312
5.24252
5.1731
5.10485
5.03774
4.97176
4.90688
4.84308
4.78033
4.71862
4.65793
4.59823
4.5395
4.48173
4.4249
4.36898
4.31395
4.2598
4.20652
4.15407
4.10244
4.05163
4.0016
3.95234
3.90384
3.85607
3.80903
3.76271
3.71707
3.67212
3.62783
3.58419
3.54119
3.49882
3.45707
3.41591
3.37535
3.33537
3.29596
3.2571
3.2188
3.18103
3.1438
3.10709
3.0709
3.03521
3.00002
2.96532
2.93112
2.89739
2.86413
2.83134
2.79902
2.76715
2.73573
2.70476
2.67424
2.64415
2.6145
2.58527
2.55647
2.52808
2.50012
7.40195
7.36212
7.32152
7.28013
7.23795
7.19496
7.15114
7.10649
7.061
7.01464
6.9674
6.91928
6.87025
6.82031
6.76943
6.71761
6.66483
6.61107
6.55632
6.50056
6.44378
6.38596
6.32709
6.26714
6.2061
6.14395
6.08068
6.01627
5.95069
5.88393
5.81597
5.74678
5.67634
5.60464
5.53165
5.45799
5.38494
5.31312
5.24251
5.17309
5.10484
5.03773
4.97175
4.90686
4.84306
4.78031
4.7186
4.6579
4.5982
4.53948
4.48171
4.42487
4.36895
4.31392
4.25978
4.20649
4.15404
4.10242
4.0516
4.00157
3.95231
3.90381
3.85605
3.80902
3.76269
3.71706
3.67211
3.62782
3.58419
3.5412
3.49884
3.45709
3.41594
3.37538
3.33541
3.29601
3.25716
3.21887
3.18111
3.14389
3.10719
3.071
3.03533
3.00015
2.96547
2.93127
2.89756
2.86431
2.83154
2.79923
2.76738
2.73598
2.70502
2.67451
2.64444
2.6148
2.58559
2.5568
2.52844
2.50048
7.40202
7.36218
7.32158
7.28019
7.238
7.19501
7.15119
7.10654
7.06104
7.01468
6.96744
6.91932
6.87029
6.82035
6.76947
6.71765
6.66486
6.6111
6.55635
6.50059
6.44381
6.38599
6.32711
6.26716
6.20612
6.14397
6.0807
6.01628
5.9507
5.88394
5.81598
5.74679
5.67635
5.60465
5.53166
5.45799
5.38494
5.31311
5.24251
5.17308
5.10483
5.03772
4.97174
4.90685
4.84305
4.7803
4.71859
4.65789
4.59819
4.53946
4.48169
4.42486
4.36893
4.31391
4.25976
4.20647
4.15403
4.10241
4.05159
4.00156
3.95231
3.90381
3.85605
3.80902
3.7627
3.71707
3.67212
3.62784
3.58422
3.54123
3.49887
3.45713
3.41599
3.37544
3.33548
3.29608
3.25725
3.21896
3.18122
3.14401
3.10732
3.07114
3.03548
3.00031
2.96564
2.93146
2.89776
2.86453
2.83177
2.79947
2.76764
2.73625
2.70531
2.67482
2.64476
2.61514
2.58594
2.55717
2.52882
2.50088
7.40209
7.36225
7.32164
7.28025
7.23806
7.19507
7.15125
7.1066
7.06109
7.01473
6.96749
6.91937
6.87033
6.82039
6.76951
6.71768
6.6649
6.61114
6.55638
6.50062
6.44384
6.38602
6.32714
6.26719
6.20615
6.144
6.08072
6.0163
5.95072
5.88396
5.81599
5.7468
5.67637
5.60466
5.53167
5.458
5.38494
5.31312
5.24251
5.17309
5.10483
5.03773
4.97174
4.90685
4.84305
4.7803
4.71859
4.65789
4.59819
4.53946
4.48169
4.42486
4.36893
4.31391
4.25976
4.20648
4.15403
4.10241
4.0516
4.00157
3.95232
3.90382
3.85607
3.80904
3.76272
3.7171
3.67216
3.62788
3.58426
3.54129
3.49894
3.4572
3.41607
3.37553
3.33558
3.29619
3.25737
3.21909
3.18136
3.14416
3.10748
3.07132
3.03566
3.00051
2.96585
2.93168
2.89799
2.86478
2.83204
2.79975
2.76793
2.73656
2.70564
2.67516
2.64512
2.61551
2.58633
2.55757
2.52923
2.50131
7.40216
7.36232
7.32171
7.28032
7.23813
7.19513
7.15131
7.10665
7.06115
7.01478
6.96754
6.91942
6.87038
6.82043
6.76955
6.71773
6.66494
6.61118
6.55642
6.50066
6.44387
6.38605
6.32717
6.26722
6.20618
6.14403
6.08075
6.01633
5.95075
5.88398
5.81602
5.74682
5.67639
5.60468
5.53168
5.45802
5.38496
5.31313
5.24252
5.1731
5.10485
5.03774
4.97175
4.90686
4.84306
4.78031
4.7186
4.6579
4.5982
4.53948
4.4817
4.42487
4.36895
4.31393
4.25978
4.2065
4.15405
4.10244
4.05162
4.0016
3.95235
3.90386
3.85611
3.80909
3.76277
3.71715
3.67222
3.62795
3.58434
3.54137
3.49903
3.4573
3.41618
3.37565
3.3357
3.29633
3.25752
3.21925
3.18153
3.14434
3.10767
3.07153
3.03588
3.00075
2.9661
2.93194
2.89827
2.86507
2.83234
2.80007
2.76826
2.73691
2.706
2.67553
2.64551
2.61591
2.58675
2.55801
2.52968
2.50177
7.40225
7.3624
7.32179
7.28039
7.2382
7.1952
7.15138
7.10672
7.06121
7.01484
6.9676
6.91947
6.87044
6.82049
6.7696
6.71777
6.66499
6.61122
6.55646
6.5007
6.44391
6.38609
6.32721
6.26725
6.20621
6.14406
6.08078
6.01636
5.95078
5.88401
5.81604
5.74685
5.67641
5.6047
5.53171
5.45804
5.38498
5.31316
5.24254
5.17312
5.10487
5.03776
4.97177
4.90688
4.84308
4.78033
4.71862
4.65792
4.59822
4.5395
4.48173
4.4249
4.36898
4.31396
4.25982
4.20653
4.15409
4.10248
4.05167
4.00165
3.95241
3.90392
3.85617
3.80915
3.76285
3.71723
3.6723
3.62804
3.58444
3.54148
3.49914
3.45743
3.41632
3.3758
3.33587
3.2965
3.2577
3.21945
3.18174
3.14456
3.10791
3.07177
3.03614
3.00102
2.96639
2.93224
2.89858
2.86539
2.83268
2.80043
2.76863
2.73729
2.7064
2.67595
2.64594
2.61636
2.58721
2.55848
2.53017
2.50228
7.40233
7.36249
7.32187
7.28047
7.23828
7.19527
7.15145
7.10679
7.06128
7.01491
6.96766
6.91953
6.87049
6.82054
6.76966
6.71783
6.66504
6.61127
6.55651
6.50075
6.44396
6.38613
6.32725
6.26729
6.20625
6.1441
6.08082
6.0164
5.95081
5.88405
5.81608
5.74688
5.67644
5.60474
5.53174
5.45807
5.38501
5.31319
5.24257
5.17315
5.1049
5.03779
4.9718
4.90692
4.84311
4.78036
4.71865
4.65796
4.59826
4.53954
4.48177
4.42494
4.36903
4.31401
4.25987
4.20659
4.15415
4.10254
4.05173
4.00172
3.95248
3.904
3.85626
3.80924
3.76294
3.71734
3.67241
3.62816
3.58457
3.54161
3.49929
3.45758
3.41648
3.37598
3.33606
3.29671
3.25792
3.21968
3.18199
3.14482
3.10818
3.07206
3.03644
3.00133
2.96671
2.93258
2.89893
2.86576
2.83306
2.80082
2.76904
2.73772
2.70684
2.67641
2.64641
2.61685
2.58771
2.559
2.53071
2.50282
7.40242
7.36257
7.32195
7.28055
7.23835
7.19535
7.15152
7.10686
7.06135
7.01497
6.96773
6.91959
6.87056
6.8206
6.76971
6.71788
6.66509
6.61132
6.55656
6.5008
6.44401
6.38618
6.32729
6.26734
6.20629
6.14414
6.08086
6.01644
5.95085
5.88408
5.81611
5.74692
5.67648
5.60477
5.53177
5.45811
5.38505
5.31322
5.24261
5.17319
5.10494
5.03783
4.97184
4.90696
4.84315
4.78041
4.7187
4.65801
4.59831
4.53959
4.48183
4.425
4.36909
4.31407
4.25994
4.20666
4.15423
4.10262
4.05182
4.00181
3.95258
3.9041
3.85637
3.80936
3.76306
3.71746
3.67255
3.62831
3.58472
3.54177
3.49946
3.45777
3.41668
3.37619
3.33629
3.29696
3.25818
3.21996
3.18228
3.14513
3.1085
3.07239
3.03678
3.00168
2.96708
2.93296
2.89933
2.86617
2.83349
2.80126
2.7695
2.73819
2.70733
2.67691
2.64693
2.61739
2.58827
2.55957
2.53129
2.50342
7.44161
7.40251
7.36266
7.32204
7.28064
7.23844
7.19543
7.1516
7.10693
7.06142
7.01505
6.9678
6.91966
6.87062
6.82066
6.76978
6.71794
6.66515
6.61138
6.55662
6.50085
6.44406
6.38623
6.32735
6.26739
6.20634
6.14419
6.08091
6.01648
5.9509
5.88413
5.81616
5.74696
5.67652
5.60482
5.53182
5.45815
5.38509
5.31327
5.24266
5.17324
5.10498
5.03788
4.97189
4.90701
4.84321
4.78047
4.71876
4.65807
4.59838
4.53966
4.4819
4.42508
4.36917
4.31416
4.26003
4.20675
4.15433
4.10272
4.05193
4.00192
3.9527
3.90422
3.8565
3.8095
3.76321
3.71762
3.67271
3.62848
3.5849
3.54196
3.49966
3.45798
3.41691
3.37644
3.33656
3.29725
3.25849
3.22028
3.18261
3.14547
3.10886
3.07276
3.03717
3.00209
2.96749
2.93339
2.89977
2.86663
2.83396
2.80175
2.77001
2.73871
2.70787
2.67747
2.6475
2.61797
2.58887
2.56018
2.53192
2.50406
7.44171
7.40261
7.36276
7.32213
7.28073
7.23852
7.19551
7.15168
7.10701
7.0615
7.01512
6.96787
6.91973
6.87069
6.82073
6.76984
6.71801
6.66521
6.61144
6.55668
6.50091
6.44412
6.38629
6.3274
6.26744
6.20639
6.14424
6.08096
6.01654
5.95095
5.88418
5.81621
5.74701
5.67657
5.60487
5.53187
5.4582
5.38515
5.31332
5.24271
5.17329
5.10504
5.03794
4.97196
4.90708
4.84328
4.78054
4.71884
4.65815
4.59846
4.53975
4.48199
4.42517
4.36927
4.31426
4.26013
4.20687
4.15444
4.10285
4.05206
4.00206
3.95284
3.90437
3.85665
3.80966
3.76338
3.7178
3.6729
3.62867
3.5851
3.54218
3.49989
3.45822
3.41716
3.37671
3.33686
3.29759
3.25886
3.22067
3.18301
3.14588
3.10927
3.07319
3.03761
3.00254
2.96796
2.93387
2.90027
2.86714
2.83449
2.8023
2.77056
2.73929
2.70846
2.67807
2.64813
2.61861
2.58952
2.56086
2.53261
2.50477
7.44181
7.40271
7.36285
7.32223
7.28082
7.23861
7.1956
7.15176
7.10709
7.06158
7.0152
6.96795
6.91981
6.87076
6.8208
6.76991
6.71807
6.66528
6.6115
6.55674
6.50097
6.44418
6.38635
6.32746
6.2675
6.20645
6.1443
6.08102
6.01659
5.951
5.88424
5.81626
5.74707
5.67663
5.60492
5.53193
5.45826
5.38521
5.31339
5.24278
5.17336
5.10511
5.03801
4.97203
4.90716
4.84336
4.78062
4.71892
4.65824
4.59856
4.53985
4.4821
4.42528
4.36938
4.31438
4.26026
4.207
4.15458
4.10299
4.05221
4.00222
3.953
3.90455
3.85683
3.80985
3.76357
3.718
3.67311
3.62889
3.58533
3.54241
3.50013
3.45847
3.41744
3.37703
3.33721
3.29797
3.25928
3.22111
3.18346
3.14633
3.10974
3.07366
3.0381
3.00304
2.96847
2.9344
2.90081
2.8677
2.83506
2.80289
2.77118
2.73992
2.70911
2.67874
2.64881
2.61931
2.59024
2.56159
2.53335
7.44191
7.40281
7.36295
7.32232
7.28091
7.2387
7.19569
7.15185
7.10718
7.06166
7.01528
6.96803
6.91988
6.87084
6.82088
6.76998
6.71814
6.66535
6.61157
6.55681
6.50104
6.44424
6.38641
6.32752
6.26756
6.20651
6.14436
6.08108
6.01665
5.95107
5.8843
5.81633
5.74713
5.67669
5.60499
5.53199
5.45833