/*--------------------------------*- C++ -*----------------------------------*\
  =========                 |
  \\      /  F ield         | OpenFOAM: The Open Source CFD Toolbox
   \\    /   O peration     | Website:  https://openfoam.org
    \\  /    A nd           | Version:  10
     \\/     M anipulation  |
\*---------------------------------------------------------------------------*/
FoamFile
{
    format      ascii;
    class       volScalarField;
    location    "5000";
    object      omega;
}
// * * * * * * * * * * * * * * * * * * * * * * * * * * * * * * * * * * * * * //

dimensions      [0 0 -1 0 0 0 0];

internalField   nonuniform List<scalar> 
17969
(
5562.21
1401.1
427.519
176.572
90.3496
52.3642
33.5458
23.4474
17.5743
13.8949
11.4401
9.71651
8.45574
7.50254
6.76235
6.17483
5.70003
5.31059
4.98563
4.7083
4.46971
4.26636
4.09513
3.95337
3.8388
3.74932
3.68308
3.63833
3.61346
3.60693
3.61723
3.64318
3.68335
3.73594
3.79876
3.86909
3.94381
4.0195
4.09267
4.16003
4.21868
4.26636
4.30159
4.3237
4.33286
4.32989
4.31617
4.29345
4.2637
4.22899
4.19138
4.1528
4.11504
4.07965
4.0479
4.02073
3.99873
3.98204
3.9704
3.96314
3.95923
3.95744
3.95643
3.95502
3.95231
3.94784
3.9416
3.93387
3.92352
3.91161
3.89937
3.88811
3.87885
3.87096
3.86247
3.85334
3.84569
3.84061
3.83778
3.83675
3.83716
3.83863
3.84078
3.84329
3.84597
3.84873
3.85153
3.85432
3.85699
3.85933
3.86102
3.86161
3.86049
3.85699
3.85052
3.84063
3.82726
3.81102
3.79361
3.77816
5562.29
1399.84
426.855
175.891
89.8583
52.0197
33.2936
23.2527
17.4176
13.7647
11.3295
9.62106
8.37254
7.4297
6.69863
6.11947
5.6526
5.27093
4.95156
4.67745
4.44129
4.23988
4.07023
3.92973
3.81611
3.72737
3.6617
3.61742
3.59292
3.58658
3.59674
3.6217
3.65955
3.70847
3.76684
3.83245
3.90243
3.97374
4.04308
4.10725
4.16332
4.20888
4.24224
4.26251
4.26957
4.26404
4.24711
4.22041
4.18586
4.14552
4.10149
4.05581
4.01043
3.96708
3.92728
3.89227
3.86292
3.83975
3.82284
3.81186
3.8061
3.80451
3.80588
3.80895
3.81261
3.81606
3.81886
3.82092
3.82214
3.82106
3.81832
3.81451
3.80993
3.80364
3.79424
3.78277
3.77211
3.764
3.75872
3.75607
3.75567
3.7571
3.75994
3.76381
3.76835
3.77318
3.77795
3.78228
3.78577
3.78792
3.78814
3.78574
3.78003
3.77034
3.75613
3.7371
3.71318
3.68455
3.65155
3.61434
5562.35
1400.7
428.031
176.472
90.2205
52.2168
33.3654
23.2506
17.3777
13.7068
11.2639
9.55299
8.30469
7.3635
6.63487
6.05863
5.59499
5.21683
4.90017
4.62844
4.39514
4.19651
4.02919
3.89039
3.77777
3.68931
3.62326
3.57804
3.55213
3.54404
3.55218
3.57486
3.61025
3.65635
3.71094
3.77149
3.83593
3.9024
3.96819
4.03018
4.0854
4.13122
4.16563
4.18737
4.19595
4.19163
4.17531
4.14838
4.11259
4.06992
4.02242
3.97217
3.92117
3.87132
3.82432
3.78161
3.74436
3.71338
3.68911
3.67156
3.66037
3.65478
3.6538
3.65625
3.66101
3.66705
3.67367
3.68043
3.68719
3.69319
3.69712
3.69918
3.69935
3.69682
3.69074
3.68245
3.67468
3.66894
3.66554
3.66436
3.66509
3.66734
3.67065
3.67456
3.67861
3.6823
3.68506
3.68629
3.68532
3.6815
3.67419
3.66281
3.6469
3.62619
3.60062
3.57037
3.53587
3.49773
3.45668
3.41347
5562.39
1400.53
428.436
176.472
90.1437
52.1046
33.232
23.1134
17.2464
13.5848
11.1514
9.449
8.20799
7.2729
6.5493
5.97718
5.51684
5.1412
4.82872
4.56219
4.33288
4.1372
3.97186
3.83405
3.72146
3.6321
3.56431
3.51658
3.48756
3.47592
3.48025
3.49902
3.53052
3.57284
3.62385
3.68128
3.74264
3.80567
3.86873
3.92969
3.98556
4.03357
4.07138
4.09734
4.11054
4.11081
4.09867
4.07519
4.04184
4.00041
3.95283
3.9011
3.84723
3.79315
3.74066
3.69139
3.64671
3.60773
3.57518
3.54942
3.53044
3.51784
3.51093
3.50877
3.51031
3.51453
3.52055
3.52773
3.53566
3.54412
3.55148
3.55717
3.56102
3.56246
3.56108
3.55817
3.55582
3.55507
3.55592
3.5581
3.56121
3.56478
3.56831
3.57126
3.57305
3.57312
3.57088
3.56575
3.5572
3.54476
3.5281
3.50702
3.48151
3.45176
3.41815
3.38121
3.34162
3.30013
3.25748
3.21441
3.17164
3.1297
3.0894
3.05128
5562.42
1400.48
428.776
176.395
90.0067
51.9565
33.0791
22.9643
17.1067
13.456
11.0329
9.33966
8.10637
7.17774
6.45954
5.8919
5.4353
5.06276
4.75426
4.49205
4.26596
4.07245
3.90828
3.77062
3.65718
3.56598
3.49537
3.44391
3.41035
3.39349
3.39216
3.40509
3.43085
3.46783
3.51416
3.56777
3.62641
3.68767
3.74958
3.8106
3.86834
3.91991
3.96275
3.99487
4.01495
4.0224
4.01729
4.00032
3.97262
3.93568
3.89121
3.84107
3.78716
3.73136
3.67553
3.62137
3.57043
3.52401
3.48313
3.44848
3.42041
3.3989
3.3836
3.37388
3.36896
3.36791
3.36987
3.37408
3.37996
3.38709
3.39511
3.40228
3.40844
3.41319
3.41638
3.41891
3.42202
3.42608
3.43078
3.43566
3.44021
3.44391
3.44621
3.44659
3.44454
3.43959
3.43131
3.41937
3.40354
3.38374
3.36
3.33254
3.30172
3.26803
3.23206
3.19448
3.156
3.11729
3.07902
3.04176
3.00603
2.97224
2.94073
2.91171
5562.44
1400.39
429.104
176.305
89.8593
51.8018
32.9214
22.8114
16.9638
13.3245
10.9122
9.2282
8.00277
7.08071
6.36798
5.80492
5.35215
4.98282
4.67811
4.42026
4.19779
4.00666
3.8437
3.70613
3.59167
3.4984
3.42468
3.36911
3.33049
3.30775
3.29986
3.30577
3.32437
3.35437
3.39431
3.44246
3.49693
3.55559
3.61655
3.67817
3.73822
3.79384
3.8424
3.88166
3.90996
3.9263
3.9303
3.92221
3.90278
3.87312
3.83466
3.789
3.73786
3.68301
3.62626
3.56932
3.51384
3.46127
3.41289
3.36966
3.33226
3.30105
3.27606
3.25705
3.24354
3.23486
3.23028
3.22911
3.23071
3.23461
3.24047
3.24714
3.25407
3.26088
3.2674
3.27399
3.28097
3.28816
3.29497
3.30083
3.30518
3.30752
3.3074
3.30441
3.29825
3.28867
3.27552
3.2588
3.23859
3.21511
3.18872
3.15983
3.12898
3.09675
3.06373
3.03053
2.9977
2.96578
2.93519
2.90631
2.87942
2.85472
2.83233
2.81228
5562.45
1400.33
429.433
176.21
89.7037
51.6425
32.7615
22.6575
16.8205
13.1929
10.7914
9.11679
7.89918
6.9836
6.27621
5.71756
5.26844
4.90214
4.59995
4.34621
4.12855
3.9407
3.77967
3.64278
3.52779
3.43282
3.35631
3.29692
3.25351
3.22507
3.21071
3.20954
3.22066
3.24307
3.27566
3.31711
3.36593
3.42045
3.47921
3.54053
3.602
3.66092
3.71466
3.76088
3.79762
3.8235
3.8377
3.84
3.83067
3.81044
3.78034
3.74167
3.69588
3.64457
3.5894
3.53204
3.47415
3.4173
3.36292
3.31222
3.2662
3.22554
3.19067
3.16172
3.13858
3.12091
3.10825
3.10005
3.09576
3.09489
3.097
3.10161
3.1078
3.11509
3.12315
3.13174
3.14043
3.14862
3.15561
3.16081
3.16374
3.16401
3.16135
3.15555
3.14655
3.13434
3.11905
3.10089
3.08018
3.05731
3.03271
3.00689
2.98036
2.95361
2.92714
2.90138
2.87671
2.85346
2.83188
2.81215
2.79439
2.77865
2.76491
2.75312
2.74316
5562.45
1400.28
429.763
176.109
89.5436
51.4818
32.6019
22.5044
16.6783
13.0626
10.672
9.00674
7.79691
6.88768
6.18544
5.63092
5.18508
4.82135
4.52109
4.27091
4.05821
3.87443
3.7161
3.58064
3.46584
3.36988
3.29126
3.2287
3.18114
3.14766
3.12745
3.11975
3.12382
3.1389
3.16412
3.19851
3.24094
3.29035
3.34556
3.4049
3.4661
3.52671
3.58422
3.63625
3.68065
3.71572
3.74022
3.75346
3.75524
3.7458
3.72578
3.69608
3.65784
3.6124
3.56122
3.50585
3.4479
3.38897
3.3306
3.2742
3.22099
3.172
3.12797
3.08941
3.05658
3.02951
3.00805
2.99192
2.98073
2.97406
2.9715
2.97261
2.97662
2.98282
2.9906
2.9992
3.00766
3.01516
3.02102
3.02473
3.02596
3.02451
3.02028
3.01327
3.0036
2.99145
2.97711
2.96091
2.94322
2.92447
2.90507
2.88544
2.86599
2.84708
2.82903
2.81212
2.79658
2.78258
2.77023
2.7596
2.75069
2.74346
2.73789
2.7338
2.73059
2.72708
2.72151
5562.43
1400.25
430.097
176.011
89.3873
51.327
32.4482
22.3565
16.5406
12.9362
10.5562
8.90017
7.698
6.79503
6.09785
5.54738
5.10475
4.74351
4.44513
4.1963
3.98704
3.80791
3.65288
3.51951
3.40564
3.30947
3.22956
3.16469
3.11385
3.07618
3.05098
3.03758
3.03539
3.0438
3.06215
3.08971
3.12574
3.16953
3.22014
3.276
3.33525
3.39577
3.45526
3.51141
3.56202
3.60515
3.63922
3.66311
3.67615
3.67811
3.66916
3.6498
3.6208
3.58317
3.53813
3.48702
3.43136
3.3727
3.31262
3.25266
3.19423
3.1386
3.08683
3.03976
2.99799
2.96191
2.93171
2.90737
2.88877
2.87563
2.86757
2.86429
2.86495
2.86868
2.87469
2.88182
2.88878
2.89469
2.89896
2.90126
2.90139
2.89932
2.89509
2.88885
2.88083
2.87129
2.86055
2.84895
2.83685
2.82458
2.81246
2.8008
2.78985
2.77983
2.77092
2.76327
2.757
2.75218
2.74885
2.74703
2.74681
2.74794
2.74946
2.74815
2.74139
2.73068
2.71923
2.70896
5562.41
1400.23
430.451
175.93
89.245
51.1856
32.3057
22.2175
16.41
12.8159
10.4458
8.79851
7.60372
6.70686
6.01467
5.46825
5.02886
4.67016
4.37371
4.12628
3.91815
3.74185
3.59049
3.45966
3.3473
3.25166
3.17127
3.10496
3.05178
3.01091
2.98171
2.9636
2.95607
2.95865
2.97083
2.99208
3.02193
3.05991
3.10514
3.15647
3.21243
3.27127
3.33098
3.38943
3.44447
3.49405
3.53637
3.56994
3.59368
3.60692
3.60936
3.60106
3.58242
3.55406
3.51691
3.47208
3.42088
3.36478
3.30532
3.2441
3.18266
3.12246
3.06481
3.01083
2.96144
2.91735
2.87905
2.84684
2.82082
2.80094
2.78694
2.77864
2.77504
2.77529
2.77848
2.78325
2.78814
2.79229
2.79523
2.79677
2.79687
2.79556
2.79301
2.7894
2.78498
2.78003
2.7748
2.76959
2.76464
2.76018
2.7564
2.75346
2.75149
2.7506
2.75084
2.75228
2.75495
2.75891
2.76438
2.77135
2.77787
2.77891
2.77314
2.76457
2.75644
2.74978
2.74461
2.7408
2.73813
2.73636
5562.38
1400.24
430.838
175.871
89.1186
51.0579
32.1746
22.0875
16.2867
12.7017
10.3408
8.70179
7.51409
6.62317
5.9359
5.39352
4.95743
4.60139
4.30705
4.0612
3.8542
3.6788
3.52955
3.40143
3.29098
3.19645
3.11635
3.04947
2.99488
2.95182
2.91965
2.89786
2.88599
2.88362
2.89035
2.90585
2.92981
2.96185
3.00137
3.04756
3.09931
3.15522
3.21362
3.27265
3.33028
3.3845
3.43338
3.47519
3.50853
3.53232
3.54585
3.54875
3.541
3.52286
3.49491
3.45796
3.41311
3.36164
3.30502
3.24481
3.18263
3.12005
3.05858
2.99957
2.94421
2.89349
2.84819
2.80889
2.77594
2.74951
2.72958
2.71579
2.70732
2.70341
2.70322
2.70526
2.70803
2.7107
2.71293
2.71463
2.71581
2.7166
2.71714
2.71763
2.71825
2.71923
2.72071
2.72288
2.72586
2.72977
2.73469
2.74065
2.74765
2.75565
2.76459
2.77439
2.78516
2.7974
2.80958
2.81696
2.81851
2.81743
2.81614
2.81558
2.81609
2.81765
2.81998
2.82262
2.82521
2.82762
2.82989
2.83221
2.83476
2.83772
5562.34
1400.25
431.241
175.815
88.9927
50.9329
32.0481
21.9625
16.1682
12.592
10.24
8.60903
7.42825
6.54316
5.86076
5.32245
4.88974
4.53652
4.24449
4.00054
3.79503
3.62078
3.47231
3.3454
3.23689
3.14398
3.06473
2.99801
2.94288
2.89854
2.86434
2.83977
2.82439
2.8178
2.81976
2.83005
2.84851
2.87486
2.90875
2.94959
2.99661
3.04874
3.10465
3.16276
3.22127
3.2783
3.3319
3.38025
3.42171
3.45487
3.47867
3.49236
3.49552
3.48802
3.47008
3.44221
3.4052
3.36014
3.30831
3.25122
3.19046
3.12767
3.06448
3.00241
2.94288
2.88712
2.83617
2.79086
2.7518
2.71935
2.69362
2.67421
2.66061
2.65228
2.64849
2.64782
2.6487
2.65037
2.65257
2.65527
2.65851
2.6624
2.66706
2.6726
2.67911
2.68672
2.69552
2.70555
2.71682
2.72932
2.743
2.75774
2.7734
2.78978
2.80664
2.82402
2.84201
2.85889
2.872
2.88172
2.88977
2.89756
2.90595
2.91516
2.92486
2.93442
2.94335
2.95149
2.95894
2.96593
2.97269
2.97943
2.98633
2.99359
5562.3
1400.27
431.627
175.742
88.8531
50.8011
31.9204
21.8389
16.0521
12.485
10.142
8.51899
7.34508
6.46578
5.78825
5.25403
4.82477
4.47447
4.18494
3.94312
3.73945
3.56677
3.41964
3.29389
3.18628
3.09429
3.01596
2.94981
2.89468
2.84967
2.81409
2.7874
2.76922
2.75924
2.75726
2.76315
2.77678
2.79802
2.82664
2.86229
2.90442
2.95228
3.00484
3.06084
3.11876
3.17689
3.23341
3.28648
3.33433
3.37538
3.40827
3.4319
3.4455
3.4486
3.44103
3.42298
3.39492
3.35766
3.3123
3.26017
3.20279
3.1418
3.07889
3.0157
2.95381
2.89467
2.83954
2.78948
2.74528
2.70743
2.6761
2.65123
2.63258
2.61985
2.61256
2.60936
2.6087
2.60984
2.61257
2.61687
2.62279
2.63037
2.63965
2.6507
2.66353
2.67815
2.69451
2.71254
2.73214
2.75314
2.77536
2.79857
2.82249
2.84681
2.87117
2.8955
2.91948
2.94176
2.96172
2.98019
2.99826
3.01678
3.03586
3.055
3.07351
3.09096
3.10728
3.12265
3.13732
3.15153
3.16548
3.17931
3.19318
3.20726
5562.25
1400.29
432.001
175.654
88.6967
50.6584
31.7876
21.7137
15.9362
12.379
10.0453
8.43048
7.26354
6.39009
5.71745
5.18734
4.76156
4.41423
4.12725
3.88766
3.68594
3.51497
3.36936
3.24494
3.13848
3.04745
2.96985
2.90412
2.84903
2.80362
2.76715
2.73904
2.7189
2.70641
2.7014
2.70375
2.71337
2.7302
2.75412
2.78493
2.82229
2.8657
2.9144
2.96744
3.02356
3.08133
3.13909
3.19511
3.2476
3.29487
3.33537
3.36777
3.39098
3.4042
3.40694
3.39903
3.38062
3.3522
3.31462
3.269
3.21671
3.15934
3.09855
3.03605
2.97354
2.91264
2.85481
2.80115
2.75262
2.70992
2.6735
2.64357
2.62018
2.60332
2.59276
2.5873
2.58539
2.58634
2.58994
2.59614
2.60497
2.61646
2.6306
2.64733
2.66656
2.68814
2.71193
2.73771
2.76526
2.7943
2.82457
2.85575
2.88753
2.91957
2.95157
2.98327
3.01433
3.04448
3.07387
3.10289
3.13224
3.16217
3.19192
3.22068
3.24816
3.27446
3.2998
3.3244
3.34844
3.37207
3.39539
3.41847
3.44123
3.4636
5562.19
1400.31
432.363
175.55
88.52
50.5004
31.6461
21.5841
15.8181
12.2722
9.94862
8.3425
7.18282
6.31539
5.64776
5.12183
4.69957
4.35524
4.07084
3.83348
3.63372
3.46449
3.32042
3.19736
3.09209
3.00206
2.92526
2.86008
2.80526
2.75978
2.72287
2.69393
2.67249
2.65826
2.65101
2.65062
2.65702
2.67018
2.69004
2.71652
2.74943
2.78845
2.83308
2.88261
2.93609
2.99231
3.04989
3.10723
3.16264
3.21443
3.26095
3.3007
3.33237
3.3549
3.36749
3.36965
3.36119
3.34229
3.31346
3.27558
3.22982
3.17763
3.12062
3.06051
2.99898
2.93768
2.87817
2.82182
2.7698
2.72303
2.6822
2.64779
2.62014
2.59953
2.58599
2.57849
2.57554
2.57642
2.58099
2.58921
2.60103
2.61644
2.63537
2.6576
2.68291
2.71105
2.74175
2.77468
2.80952
2.84596
2.88364
2.92226
2.96151
3.00111
3.04082
3.08047
3.11995
3.15928
3.19851
3.23774
3.27699
3.31593
3.35423
3.39182
3.42876
3.46506
3.50068
3.53569
3.57013
3.60395
3.63691
3.66879
3.69969
3.72978
3.75911
5562.13
1400.36
432.711
175.429
88.3209
50.3245
31.4932
21.448
15.6966
12.1637
9.85128
8.25449
7.10248
6.24135
5.57891
5.05728
4.63862
4.29732
4.01552
3.78041
3.5826
3.41509
3.27255
3.15084
3.04676
2.95776
2.88182
2.81732
2.76295
2.71769
2.68071
2.65137
2.62918
2.6138
2.60498
2.60256
2.60647
2.61667
2.63316
2.6559
2.68481
2.71972
2.7603
2.80608
2.85636
2.91019
2.96643
3.02371
3.08049
3.13516
3.18607
3.23163
3.27041
3.30114
3.32278
3.33457
3.336
3.32692
3.30749
3.27828
3.24021
3.19448
3.14255
3.08601
3.02658
2.96596
2.90587
2.84785
2.79328
2.7433
2.69885
2.66065
2.62928
2.6053
2.58907
2.57974
2.57585
2.57675
2.5823
2.59244
2.60709
2.62615
2.64943
2.67662
2.70737
2.74132
2.77811
2.81734
2.85863
2.90163
2.94599
2.99139
3.03758
3.08431
3.13141
3.17874
3.22621
3.27378
3.32139
3.36896
3.41638
3.46353
3.51028
3.5566
3.6024
3.6476
3.69215
3.73597
3.77879
3.8204
3.86077
3.89982
3.9378
3.97479
4.01044
5562.07
1400.44
433.046
175.29
88.099
50.1294
31.3278
21.3044
15.5708
12.0529
9.75288
8.16619
7.02235
6.16785
5.51082
4.99363
4.57867
4.24046
3.96128
3.72841
3.53255
3.36674
3.22569
3.10531
3.00241
2.91444
2.83939
2.77564
2.72185
2.67699
2.64019
2.61079
2.58826
2.57221
2.56235
2.55851
2.56057
2.56849
2.58226
2.60187
2.62731
2.6585
2.69527
2.73731
2.78412
2.83502
2.8891
2.94522
3.00205
3.05812
3.11185
3.16165
3.20609
3.24385
3.27368
3.29446
3.30536
3.30591
3.29596
3.27577
3.24596
3.20748
3.16158
3.1097
3.05349
2.99467
2.93503
2.87629
2.82006
2.76772
2.72044
2.67915
2.64466
2.61779
2.59918
2.58823
2.58355
2.58446
2.59082
2.60256
2.61956
2.64166
2.66856
2.69983
2.73505
2.77376
2.81552
2.85989
2.90646
2.95485
3.00472
3.05579
3.10779
3.16052
3.21381
3.26752
3.32155
3.37579
3.43015
3.48451
3.53875
3.59277
3.64647
3.69969
3.75237
3.80442
3.85571
3.90587
3.95481
4.00248
4.04877
4.09361
4.13689
4.17846
4.21813
5562
1400.56
433.366
175.135
87.8553
49.9155
31.1497
21.1532
15.4408
11.9398
9.6534
8.07757
6.94241
6.09489
5.4435
4.93092
4.51975
4.18472
3.90819
3.67758
3.48365
3.31951
3.17992
3.06083
2.95907
2.87211
2.79795
2.73496
2.68183
2.63746
2.60101
2.57177
2.54918
2.53281
2.52235
2.51757
2.51832
2.52454
2.53619
2.55328
2.57581
2.60378
2.63709
2.67558
2.71891
2.76662
2.818
2.87217
2.92801
2.98422
3.03946
3.09238
3.1414
3.18499
3.22172
3.25033
3.26978
3.27931
3.2785
3.26728
3.24599
3.21529
3.17617
3.12989
3.0779
3.02185
2.96355
2.9049
2.84776
2.7938
2.7444
2.70078
2.66383
2.63458
2.61402
2.60171
2.59626
2.597
2.60381
2.61662
2.63526
2.65952
2.68901
2.72322
2.76163
2.80373
2.84901
2.89701
2.94727
2.99943
3.05314
3.10812
3.16412
3.22095
3.27842
3.33641
3.39478
3.45341
3.51219
3.57099
3.62966
3.6881
3.74623
3.80389
3.86096
3.91727
3.97255
4.02675
4.07981
4.13162
4.18208
4.23108
4.27849
4.32419
4.36808
4.41005
5561.92
1400.74
433.675
174.968
87.5925
49.6848
30.9603
20.9952
15.3068
11.8246
9.55297
7.9887
6.86266
6.02241
5.3769
4.86913
4.46191
4.13015
3.85636
3.62803
3.43603
3.27354
3.13538
3.01753
2.91686
2.83087
2.75757
2.69533
2.64283
2.59901
2.56298
2.53402
2.51156
2.49512
2.48436
2.47901
2.47889
2.48389
2.49395
2.50907
2.52925
2.5545
2.5848
2.62007
2.6601
2.70457
2.75301
2.80471
2.85885
2.91448
2.97037
3.02513
3.07724
3.12518
3.16745
3.20266
3.22961
3.24731
3.25508
3.25257
3.23981
3.21717
3.18539
3.14546
3.09861
3.04628
2.99022
2.93241
2.87491
2.81985
2.76894
2.72353
2.68483
2.65384
2.63173
2.61821
2.61194
2.61222
2.61898
2.63215
2.65154
2.67688
2.70772
2.74347
2.78356
2.8274
2.87446
2.92422
2.97622
3.03008
3.08546
3.14205
3.19963
3.25798
3.31694
3.37635
3.43608
3.49601
3.55598
3.61591
3.67572
3.73528
3.79446
3.85315
3.9112
3.96854
4.02519
4.08114
4.13636
4.19078
4.24432
4.29686
4.34827
4.39841
4.44712
4.49426
5561.85
1400.98
433.971
174.791
87.3139
49.44
30.7615
20.8319
15.17
11.7079
9.45162
7.89952
6.78324
5.95079
5.31152
4.80875
4.40556
4.07709
3.806
3.57994
3.38986
3.229
3.09223
2.97558
2.87595
2.79087
2.71836
2.65682
2.60493
2.56163
2.52603
2.4974
2.47515
2.45879
2.44793
2.44227
2.4416
2.44577
2.45468
2.46831
2.48664
2.50968
2.53744
2.56989
2.60691
2.64831
2.69378
2.74293
2.79512
2.8495
2.90502
2.96042
3.01433
3.06526
3.11173
3.15229
3.1856
3.21051
3.22611
3.2318
3.22733
3.2128
3.18868
3.15571
3.11487
3.06729
3.01441
2.95823
2.9011
2.84535
2.79318
2.74639
2.70641
2.67419
2.65076
2.63608
2.62886
2.62837
2.63451
2.64724
2.66638
2.69161
2.72243
2.7582
2.79827
2.84203
2.88889
2.93831
2.98981
3.04297
3.09744
3.15293
3.20918
3.26598
3.32314
3.38052
3.43795
3.49535
3.55264
3.60973
3.66653
3.72296
3.77891
3.83434
3.88941
3.94435
3.99928
4.05432
4.1095
4.16484
4.22028
4.27574
4.33109
4.38614
4.44066
4.49439
5561.77
1401.29
434.255
174.606
87.0201
49.1814
30.5538
20.6639
15.0311
11.591
9.35213
7.81338
6.70732
5.88279
5.24971
4.75184
4.35258
4.02725
3.75871
3.53473
3.34634
3.18688
3.05127
2.9356
2.8368
2.75244
2.68057
2.6196
2.56823
2.52538
2.49017
2.46187
2.43985
2.42362
2.41277
2.40696
2.40596
2.40957
2.41768
2.4302
2.44711
2.4684
2.49408
2.52415
2.55858
2.59731
2.64014
2.68676
2.7367
2.78929
2.84367
2.89878
2.95339
3.00612
3.05555
3.10022
3.13872
3.16978
3.19232
3.20551
3.20884
3.20219
3.18577
3.16009
3.12593
3.08403
3.03541
2.98192
2.92596
2.87027
2.81736
2.7694
2.72809
2.6947
2.67007
2.65414
2.64578
2.64415
2.64911
2.66061
2.67849
2.7024
2.73178
2.76598
2.80432
2.84611
2.89072
2.93759
2.9862
3.03612
3.08695
3.13838
3.19013
3.24197
3.29367
3.34509
3.39615
3.44672
3.49671
3.54615
3.59517
3.64385
3.69202
3.73965
3.78752
3.83609
3.88571
3.93664
3.98908
4.04318
4.09899
4.15648
4.21555
4.27598
4.33748
4.39967
5561.69
1401.69
434.522
174.411
86.7095
48.9071
30.3356
20.4902
14.8901
11.475
9.25453
7.72963
6.6341
5.81766
5.19088
4.69795
4.3026
3.9804
3.71437
3.4924
3.30565
3.14751
3.01298
2.89818
2.80011
2.71633
2.64494
2.58436
2.53332
2.49074
2.45576
2.42763
2.40574
2.38958
2.37873
2.37283
2.37161
2.37485
2.38239
2.39413
2.41
2.43
2.4541
2.48232
2.51466
2.55108
2.59146
2.63562
2.6832
2.73371
2.78646
2.8406
2.89504
2.94858
2.99986
3.04748
3.09002
3.12614
3.15462
3.17447
3.18495
3.18572
3.17674
3.15835
3.13114
3.09558
3.05213
3.00247
2.94903
2.89449
2.84154
2.7927
2.75006
2.71519
2.6892
2.67191
2.66211
2.65895
2.66213
2.67161
2.68724
2.70865
2.73527
2.76642
2.80136
2.83939
2.87982
2.92203
2.96549
3.0097
3.05424
3.09873
3.14284
3.18631
3.22895
3.27054
3.31095
3.35032
3.38866
3.42575
3.46178
3.49709
3.53191
3.56732
3.60378
3.64185
3.68212
3.72513
3.77136
3.82118
3.87488
3.93259
3.99431
4.05988
4.12898
4.20112
5561.6
1402.17
434.762
174.203
86.3803
48.6158
30.1062
20.3096
14.7468
11.3587
9.15798
7.64773
6.56321
5.75516
5.13484
4.64696
4.25557
3.93649
3.67295
3.45296
3.26778
3.1109
2.97736
2.86336
2.7659
2.68261
2.61158
2.55129
2.50045
2.45803
2.42316
2.39511
2.37327
2.35712
2.34622
2.34022
2.33881
2.34176
2.34888
2.36004
2.37514
2.39414
2.417
2.44372
2.47431
2.50875
2.54696
2.58883
2.63413
2.68248
2.73336
2.78608
2.83974
2.89328
2.94548
2.99502
3.04054
3.08064
3.11405
3.13963
3.15649
3.16403
3.16204
3.15065
3.13025
3.10113
3.06363
3.019
2.96944
2.91738
2.86547
2.81643
2.77268
2.73623
2.7085
2.68945
2.67785
2.67274
2.67359
2.68027
2.6927
2.71055
2.73321
2.76
2.79012
2.82283
2.85741
2.89318
2.92955
2.96597
3.00198
3.03712
3.07103
3.1034
3.13396
3.1625
3.18897
3.21344
3.2361
3.25706
3.27637
3.29434
3.31229
3.33127
3.35204
3.37543
3.40225
3.43331
3.46936
3.51105
3.55892
3.61337
3.67462
3.7427
3.81744
3.8984
5561.52
1402.74
434.97
173.982
86.0346
48.3103
29.8671
20.1246
14.6017
11.2424
9.06268
7.56782
6.49478
5.6954
5.08172
4.59896
4.21157
3.89563
3.63455
3.41649
3.23283
3.07714
2.94452
2.83121
2.73426
2.65135
2.58058
2.52045
2.4697
2.42732
2.39245
2.36436
2.34245
2.3262
2.31518
2.30902
2.30741
2.31009
2.31685
2.32753
2.34201
2.36021
2.38209
2.40761
2.43676
2.46954
2.50589
2.54575
2.58894
2.6352
2.68415
2.73521
2.78768
2.84065
2.89304
2.94366
2.99119
3.0343
3.07165
3.10203
3.1244
3.13799
3.14237
3.13744
3.12342
3.10069
3.06944
3.03052
2.98583
2.93751
2.88798
2.83988
2.7958
2.75808
2.72851
2.7073
2.69334
2.68572
2.68379
2.68714
2.69559
2.70889
2.72657
2.74791
2.7721
2.79833
2.82581
2.85385
2.88177
2.90898
2.93496
2.95921
2.98133
3.00097
3.01787
3.03167
3.04265
3.05089
3.05638
3.05934
3.06019
3.05999
3.06048
3.0625
3.06696
3.07478
3.08692
3.10431
3.12786
3.15837
3.19662
3.24323
3.29875
3.36352
3.43773
3.5213
5561.43
1403.41
435.13
173.745
85.6719
47.9918
29.6182
19.9351
14.4555
11.127
8.96936
7.49056
6.42935
5.63884
5.03189
4.55428
4.17087
3.85802
3.59935
3.38316
3.20095
3.04635
2.91455
2.80184
2.70531
2.62266
2.55204
2.49195
2.44118
2.39871
2.36369
2.33544
2.31334
2.29688
2.28563
2.27922
2.27733
2.2797
2.28609
2.29632
2.31027
2.32781
2.34887
2.37341
2.40139
2.43279
2.46758
2.5057
2.54703
2.59138
2.63845
2.68781
2.73888
2.79091
2.84297
2.89399
2.94276
2.98799
3.02838
3.06265
3.08966
3.10852
3.11856
3.11952
3.11147
3.09473
3.06952
3.03645
2.99697
2.95309
2.90696
2.86103
2.8178
2.77968
2.74872
2.72539
2.70877
2.6981
2.69291
2.69267
2.69679
2.70486
2.71668
2.73178
2.74928
2.76829
2.788
2.80762
2.82643
2.84381
2.85917
2.87201
2.88194
2.88864
2.89195
2.89179
2.88798
2.88072
2.87032
2.85732
2.84243
2.82787
2.81445
2.80305
2.79456
2.78988
2.78991
2.79555
2.80764
2.82697
2.85431
2.89038
2.93586
2.99139
3.0575
3.1346
5561.35
1404.18
435.222
173.491
85.2973
47.6684
29.37
19.7479
14.3124
11.0153
8.88
7.41732
6.36794
5.58624
4.98592
4.51337
4.13384
3.82397
3.56759
3.35317
3.17229
3.01868
2.8876
2.77538
2.67915
2.59665
2.52605
2.4659
2.41497
2.37229
2.33701
2.30846
2.28604
2.26924
2.25764
2.25087
2.2486
2.25057
2.25654
2.26631
2.27973
2.29667
2.31702
2.34072
2.36772
2.39798
2.43147
2.46811
2.50784
2.55049
2.59584
2.64355
2.69316
2.74405
2.79544
2.84638
2.89578
2.94243
2.98506
3.0224
3.05325
3.07657
3.09162
3.09792
3.09535
3.08413
3.06452
3.03698
3.00258
2.96314
2.92074
2.87761
2.83612
2.79858
2.76709
2.74227
2.72332
2.70964
2.70094
2.69675
2.6963
2.6989
2.7046
2.71314
2.72367
2.73529
2.7471
2.75827
2.76803
2.77572
2.78074
2.78263
2.78106
2.77586
2.767
2.75478
2.73906
2.71971
2.69745
2.67309
2.64856
2.62492
2.60297
2.58351
2.56717
2.55469
2.54694
2.5447
2.54869
2.55961
2.57815
2.6049
2.64045
2.68532
2.74011
2.80542
5561.26
1405.06
435.337
173.296
84.9666
47.3698
29.1384
19.5728
14.1788
10.9113
8.79726
7.34996
6.31187
5.53855
4.94454
4.47677
4.10089
3.79381
3.53955
3.32672
3.14703
2.99428
2.86379
2.75193
2.65588
2.57341
2.50273
2.44238
2.39118
2.34816
2.3125
2.28352
2.26065
2.24339
2.23131
2.22405
2.2213
2.22277
2.22823
2.23748
2.25034
2.26667
2.28635
2.3093
2.33545
2.36473
2.39711
2.4325
2.47085
2.51202
2.55583
2.60202
2.65022
2.69991
2.75045
2.801
2.85059
2.89812
2.94236
2.98207
3.01603
3.04317
3.06259
3.07367
3.07612
3.06997
3.05546
3.03297
3.00334
2.96805
2.92911
2.88872
2.84912
2.81257
2.78115
2.75554
2.73496
2.71879
2.70674
2.69831
2.69298
2.69048
2.6907
2.69314
2.69708
2.7017
2.70608
2.70935
2.71071
2.70945
2.70506
2.69717
2.68558
2.67024
2.65132
2.62922
2.60417
2.57662
2.54733
2.51702
2.48727
2.4588
2.43234
2.40852
2.38816
2.37222
2.36127
2.35571
2.35596
2.36243
2.37559
2.39589
2.42382
2.45996
2.50497
2.55967
5561.17
1406.16
435.531
173.22
84.7287
47.1315
28.9445
19.4214
14.0612
10.8192
8.72384
7.29032
6.26244
5.49675
4.90848
4.44505
4.07246
3.76787
3.51548
3.30405
3.12535
2.97328
2.84322
2.73158
2.63558
2.55301
2.48211
2.42145
2.36987
2.32639
2.29023
2.26071
2.23727
2.21942
2.20674
2.19888
2.19552
2.19639
2.20124
2.20988
2.22211
2.2378
2.25681
2.27904
2.30439
2.3328
2.36419
2.39851
2.43566
2.47554
2.518
2.56282
2.6097
2.65823
2.70784
2.75783
2.80734
2.85535
2.90073
2.94227
2.97878
3.00913
3.03236
3.04772
3.05474
3.05327
3.04344
3.0256
3.00038
2.96897
2.93317
2.89513
2.85709
2.82131
2.78993
2.76367
2.74174
2.7234
2.70823
2.69591
2.68645
2.67995
2.67571
2.67299
2.67125
2.66976
2.66762
2.66393
2.65785
2.64878
2.63632
2.62023
2.60046
2.57712
2.5505
2.52111
2.48957
2.45679
2.42309
2.39011
2.35847
2.32888
2.30195
2.27832
2.25866
2.24347
2.23299
2.22744
2.22702
2.23198
2.24257
2.2591
2.28191
2.31141
2.34814
2.39271
5561.08
1407.28
435.736
173.239
84.57
46.9517
28.7902
19.2969
13.9628
10.7413
8.66165
7.23989
6.22082
5.46173
4.87844
4.41876
4.04898
3.74649
3.49565
3.28532
3.10739
2.95579
2.82597
2.71439
2.61829
2.53549
2.46425
2.40316
2.35107
2.30704
2.27026
2.2401
2.21597
2.19742
2.18404
2.17546
2.17138
2.17153
2.17568
2.18361
2.19515
2.21013
2.22842
2.24991
2.27448
2.30206
2.33255
2.36588
2.40197
2.44071
2.48197
2.52556
2.57125
2.61868
2.66738
2.71674
2.766
2.81425
2.86043
2.9034
2.942
2.97509
3.00165
3.02083
3.03203
3.03492
3.02949
3.01597
2.99488
2.96717
2.93436
2.89844
2.86167
2.82637
2.79474
2.76757
2.74413
2.72369
2.70594
2.6909
2.67875
2.6692
2.6613
2.65444
2.64816
2.6417
2.63412
2.62447
2.61204
2.59637
2.57724
2.55461
2.5286
2.4995
2.46776
2.43401
2.39902
2.36366
2.32892
2.29606
2.26555
2.23785
2.21333
2.19242
2.17544
2.16257
2.15396
2.1497
2.14989
2.15464
2.1641
2.17843
2.1979
2.2228
2.25354
2.2906
5560.99
1408.26
436.045
173.366
84.4897
46.8267
28.6753
19.2014
13.8858
10.68
8.6126
7.20022
6.18822
5.43446
4.85515
4.39844
4.03086
3.72998
3.48028
3.27071
3.09324
2.94188
2.81209
2.70038
2.60401
2.52084
2.44914
2.3875
2.3348
2.2901
2.25262
2.22171
2.19681
2.17747
2.16328
2.15389
2.14899
2.14834
2.15168
2.15882
2.16957
2.18378
2.20129
2.22199
2.24576
2.2725
2.30212
2.33452
2.36962
2.40731
2.44749
2.48998
2.53457
2.58097
2.62879
2.6775
2.72643
2.77476
2.82153
2.86565
2.90601
2.94147
2.97098
2.99361
3.00865
3.01563
3.01437
3.00498
2.98787
2.96378
2.93399
2.90025
2.86477
2.82994
2.798
2.76984
2.74497
2.72288
2.70346
2.68673
2.67257
2.66045
2.64967
2.63974
2.63014
2.61986
2.60763
2.59274
2.57478
2.55352
2.52899
2.50136
2.47093
2.43814
2.40355
2.36781
2.33194
2.2968
2.26367
2.233
2.20517
2.18048
2.15915
2.14137
2.12727
2.11693
2.11039
2.10766
2.10878
2.1138
2.12278
2.13583
2.15313
2.17491
2.20148
2.23321
2.27059
5560.9
1409.1
436.293
173.5
84.4542
46.7524
28.6053
19.141
13.8357
10.6392
8.5796
7.1734
6.16617
5.41601
4.83939
4.38466
4.0185
3.71859
3.46952
3.26031
3.08297
2.93156
2.80156
2.68952
2.59272
2.50903
2.43673
2.37444
2.32103
2.27557
2.23729
2.20556
2.17981
2.1596
2.14453
2.13425
2.12847
2.12692
2.12938
2.13565
2.14554
2.1589
2.17557
2.19543
2.21835
2.24422
2.27295
2.30443
2.33857
2.37527
2.41442
2.45587
2.49944
2.54488
2.59185
2.6399
2.68846
2.73678
2.78398
2.82906
2.87093
2.90848
2.94065
2.96645
2.98506
2.99592
2.99868
2.99332
2.98013
2.95968
2.93305
2.90177
2.86787
2.83373
2.80169
2.77294
2.74724
2.72419
2.70372
2.6857
2.66994
2.65594
2.64334
2.63165
2.61978
2.60611
2.58924
2.56921
2.54611
2.51992
2.49099
2.45971
2.42647
2.3918
2.35635
2.32087
2.28618
2.25311
2.22253
2.19473
2.16997
2.1484
2.13014
2.11527
2.10381
2.09576
2.09111
2.08984
2.09194
2.09741
2.10629
2.11864
2.13459
2.15431
2.17805
2.20611
2.23889
5560.81
1409.82
436.543
173.737
84.5301
46.7756
28.61
19.1342
13.8234
10.6257
8.56693
7.1622
6.15645
5.40756
4.83192
4.37788
4.01216
3.71249
3.46345
3.25412
3.07653
2.92475
2.7943
2.68172
2.58432
2.49996
2.42695
2.3639
2.30969
2.2634
2.22427
2.19165
2.165
2.14387
2.12786
2.11663
2.1099
2.10741
2.10893
2.11426
2.12323
2.13567
2.15143
2.17039
2.1924
2.21736
2.24517
2.2757
2.30888
2.3446
2.38275
2.42319
2.46577
2.51026
2.55638
2.60376
2.65189
2.70013
2.74766
2.79355
2.83676
2.87621
2.91081
2.93956
2.96157
2.97614
2.98282
2.98145
2.97218
2.95546
2.93218
2.90368
2.87179
2.83879
2.80718
2.77845
2.75257
2.72922
2.70826
2.68956
2.67315
2.65866
2.6456
2.6332
2.61854
2.59921
2.57648
2.55153
2.52407
2.49418
2.46229
2.42885
2.39433
2.35931
2.32441
2.29032
2.25771
2.22732
2.19958
2.17473
2.15292
2.13423
2.11871
2.10638
2.09719
2.09114
2.08815
2.08821
2.09126
2.09729
2.10631
2.11836
2.13353
2.15196
2.17383
2.19941
2.22902
5560.72
1410.31
437.015
174.248
84.8356
46.9696
28.7322
19.2052
13.8629
10.6476
8.57931
7.16939
6.16072
5.41007
4.83327
4.37839
4.01197
3.71165
3.46199
3.25203
3.07378
2.92132
2.79015
2.67683
2.57867
2.49352
2.41968
2.35579
2.30072
2.25354
2.2135
2.17996
2.15237
2.13028
2.11331
2.10111
2.0934
2.08992
2.09046
2.09482
2.10282
2.11429
2.12909
2.14709
2.16814
2.19214
2.21897
2.24852
2.28071
2.31542
2.35255
2.39197
2.43354
2.47706
2.52231
2.56897
2.61662
2.6647
2.71247
2.75904
2.80344
2.84461
2.88149
2.91304
2.9383
2.95649
2.96705
2.96967
2.96439
2.95152
2.9318
2.90642
2.87702
2.84578
2.81531
2.78733
2.76204
2.73921
2.71884
2.70082
2.68529
2.67215
2.65959
2.64379
2.62108
2.5942
2.56664
2.53792
2.50734
2.4751
2.44161
2.40734
2.37276
2.33842
2.3049
2.27278
2.24261
2.21491
2.18991
2.16779
2.14862
2.13244
2.11928
2.10909
2.10185
2.09749
2.09595
2.09719
2.10116
2.10782
2.11717
2.12923
2.14406
2.16176
2.18248
2.20645
2.23392
5560.63
1410.37
437.905
175.185
85.4848
47.4088
29.0152
19.378
13.967
10.7117
8.62035
7.19686
6.17987
5.42389
4.8435
4.38606
4.0177