/*--------------------------------*- C++ -*----------------------------------*\
  =========                 |
  \\      /  F ield         | OpenFOAM: The Open Source CFD Toolbox
   \\    /   O peration     | Website:  https://openfoam.org
    \\  /    A nd           | Version:  10
     \\/     M anipulation  |
\*---------------------------------------------------------------------------*/
FoamFile
{
    format      ascii;
    class       volScalarField;
    location    "14000";
    object      Co;
}
// * * * * * * * * * * * * * * * * * * * * * * * * * * * * * * * * * * * * * //

dimensions      [0 0 0 0 0 0 0];

internalField   nonuniform List<scalar> 
17922
(
2028.93
2013.82
1998.71
1983.57
1968.42
1953.25
1938.1
1922.96
1907.77
1892.55
1877.27
1861.94
1846.55
1831.09
1815.56
1799.95
1784.24
1768.44
1752.53
1736.51
1720.36
1704.08
1687.66
1671.08
1654.34
1637.43
1620.32
1603.03
1585.71
1568.65
1551.95
1535.56
1519.46
1503.64
1488.08
1472.77
1457.71
1442.89
1428.3
1413.93
1399.77
1385.81
1372.05
1358.46
1345.05
1331.8
1318.71
1305.76
1292.95
1280.28
1267.73
1255.3
1243
1230.81
1218.73
1206.76
1194.91
1183.17
1171.53
1160.01
1148.6
1137.3
1126.11
1115.02
1104.05
1093.18
1082.43
1071.78
1061.25
1050.82
1040.5
1030.28
1020.18
1010.18
1000.29
990.509
980.829
971.254
961.779
952.404
943.126
933.943
924.853
915.858
906.959
898.157
889.455
880.855
872.358
863.968
855.691
847.55
839.581
1970.59
1955.92
1941.23
1926.53
1911.81
1897.1
1882.4
1867.68
1852.93
1838.14
1823.3
1808.41
1793.46
1778.45
1763.36
1748.19
1732.93
1717.58
1702.13
1686.57
1670.88
1655.07
1639.11
1623.01
1606.75
1590.32
1573.71
1556.91
1540.09
1523.53
1507.31
1491.4
1475.76
1460.39
1445.27
1430.41
1415.78
1401.39
1387.22
1373.26
1359.51
1345.95
1332.58
1319.39
1306.37
1293.5
1280.79
1268.22
1255.79
1243.48
1231.3
1219.24
1207.29
1195.45
1183.73
1172.12
1160.61
1149.22
1137.93
1126.74
1115.67
1104.7
1093.84
1083.08
1072.43
1061.89
1051.45
1041.12
1030.9
1020.78
1010.77
1000.86
991.053
981.355
971.76
962.268
952.879
943.59
934.4
925.306
916.307
907.401
898.587
889.866
881.238
872.706
864.272
855.938
847.705
839.577
831.563
823.684
815.979
1913.94
1899.68
1885.41
1871.13
1856.83
1842.56
1828.29
1814
1799.67
1785.3
1770.89
1756.42
1741.9
1727.31
1712.65
1697.92
1683.1
1668.19
1653.18
1638.06
1622.82
1607.46
1591.97
1576.33
1560.53
1544.58
1528.44
1512.13
1495.79
1479.71
1463.96
1448.5
1433.31
1418.38
1403.7
1389.26
1375.06
1361.08
1347.31
1333.76
1320.4
1307.24
1294.25
1281.44
1268.8
1256.31
1243.96
1231.76
1219.68
1207.74
1195.91
1184.2
1172.6
1161.12
1149.74
1138.46
1127.3
1116.24
1105.28
1094.43
1083.68
1073.03
1062.49
1052.05
1041.72
1031.49
1021.36
1011.34
1001.41
991.595
981.879
972.265
962.754
953.344
944.035
934.827
925.718
916.708
907.793
898.973
890.245
881.608
873.061
864.605
856.24
847.97
839.795
831.719
823.742
815.869
808.11
800.486
793.036
1858.9
1845.05
1831.19
1817.32
1803.45
1789.6
1775.74
1761.86
1747.94
1733.98
1719.98
1705.93
1691.82
1677.65
1663.41
1649.1
1634.7
1620.21
1605.63
1590.95
1576.15
1561.23
1546.18
1530.98
1515.64
1500.14
1484.48
1468.63
1452.77
1437.15
1421.85
1406.83
1392.08
1377.58
1363.32
1349.3
1335.5
1321.92
1308.55
1295.39
1282.42
1269.63
1257.02
1244.58
1232.3
1220.17
1208.19
1196.34
1184.62
1173.02
1161.53
1150.17
1138.91
1127.76
1116.71
1105.77
1094.93
1084.2
1073.56
1063.03
1052.6
1042.26
1032.03
1021.91
1011.88
1001.95
992.121
982.394
972.766
963.239
953.811
944.483
935.255
926.125
917.094
908.161
899.325
890.584
881.936
873.381
864.915
856.539
848.251
840.052
831.943
823.926
816.003
808.177
800.448
792.823
785.312
777.936
770.735
1805.45
1792
1778.53
1765.06
1751.6
1738.17
1724.7
1711.22
1697.69
1684.14
1670.53
1656.88
1643.18
1629.41
1615.58
1601.68
1587.69
1573.62
1559.46
1545.19
1530.81
1516.32
1501.7
1486.94
1472.04
1456.99
1441.77
1426.38
1410.98
1395.81
1380.95
1366.37
1352.04
1337.95
1324.1
1310.48
1297.08
1283.89
1270.91
1258.12
1245.52
1233.11
1220.86
1208.78
1196.85
1185.08
1173.44
1161.93
1150.55
1139.29
1128.14
1117.11
1106.18
1095.35
1084.63
1074.01
1063.49
1053.07
1042.75
1032.52
1022.4
1012.37
1002.45
992.615
982.883
973.248
963.712
954.272
944.93
935.685
926.538
917.487
908.533
899.675
890.914
882.247
873.674
865.194
856.806
848.508
840.297
832.173
824.136
816.186
808.325
800.553
792.875
785.291
777.804
770.419
763.148
756.013
749.054
1753.53
1740.46
1727.38
1714.31
1701.26
1688.21
1675.13
1662.03
1648.9
1635.72
1622.51
1609.25
1595.93
1582.56
1569.13
1555.62
1542.03
1528.37
1514.61
1500.75
1486.78
1472.7
1458.5
1444.17
1429.7
1415.07
1400.29
1385.35
1370.39
1355.66
1341.23
1327.06
1313.14
1299.46
1286.01
1272.78
1259.76
1246.95
1234.34
1221.92
1209.69
1197.63
1185.73
1174
1162.42
1150.98
1139.68
1128.51
1117.46
1106.53
1095.7
1084.99
1074.38
1063.87
1053.47
1043.16
1032.95
1022.83
1012.81
1002.89
993.063
983.332
973.696
964.156
954.712
945.362
936.107
926.947
917.882
908.911
900.035
891.253
882.565
873.971
865.47
857.062
848.746
840.519
832.382
824.332
816.369
808.49
800.696
792.988
785.366
777.833
770.391
763.042
755.789
748.637
741.6
734.7
727.976
1703.11
1690.41
1677.71
1665.04
1652.37
1639.69
1626.99
1614.26
1601.5
1588.7
1575.87
1562.98
1550.05
1537.06
1524.01
1510.89
1497.69
1484.41
1471.05
1457.58
1444.02
1430.34
1416.55
1402.62
1388.57
1374.36
1360.01
1345.49
1330.97
1316.66
1302.65
1288.89
1275.37
1262.08
1249.01
1236.16
1223.52
1211.07
1198.82
1186.76
1174.88
1163.16
1151.62
1140.22
1128.97
1117.87
1106.89
1096.05
1085.32
1074.7
1064.19
1053.79
1043.49
1033.29
1023.19
1013.18
1003.27
993.452
983.728
974.098
964.56
955.116
945.764
936.506
927.34
918.266
909.285
900.396
891.599
882.894
874.281
865.76
857.33
848.992
840.744
832.586
824.517
816.537
808.643
800.834
793.11
785.469
777.91
770.436
763.046
755.744
748.531
741.411
734.385
727.46
720.65
713.978
707.484
1654.13
1641.79
1629.48
1617.19
1604.89
1592.57
1580.23
1567.86
1555.47
1543.04
1530.57
1518.05
1505.49
1492.87
1480.19
1467.44
1454.62
1441.72
1428.74
1415.66
1402.48
1389.2
1375.8
1362.27
1348.62
1334.82
1320.88
1306.78
1292.68
1278.79
1265.18
1251.81
1238.68
1225.77
1213.08
1200.59
1188.31
1176.22
1164.33
1152.61
1141.07
1129.69
1118.47
1107.41
1096.49
1085.7
1075.04
1064.51
1054.09
1043.79
1033.58
1023.49
1013.49
1003.58
993.777
984.063
974.441
964.911
955.472
946.125
936.868
927.701
918.625
909.639
900.744
891.938
883.222
874.596
866.059
857.612
849.254
840.986
832.806
824.715
816.713
808.798
800.969
793.227
785.569
777.994
770.501
763.09
755.76
748.512
741.348
734.269
727.279
720.379
713.574
706.87
700.281
693.832
687.561
1606.55
1594.59
1582.66
1570.72
1558.77
1546.8
1534.81
1522.8
1510.76
1498.68
1486.57
1474.41
1462.2
1449.94
1437.63
1425.24
1412.79
1400.26
1387.65
1374.94
1362.14
1349.24
1336.22
1323.09
1309.82
1296.42
1282.88
1269.19
1255.49
1242
1228.78
1215.8
1203.04
1190.5
1178.17
1166.05
1154.12
1142.38
1130.82
1119.44
1108.23
1097.18
1086.28
1075.54
1064.93
1054.46
1044.11
1033.88
1023.76
1013.75
1003.85
994.045
984.337
974.724
965.203
955.773
946.433
937.182
928.021
918.947
909.962
901.065
892.256
883.535
874.902
866.355
857.897
849.525
841.241
833.044
824.933
816.91
808.973
801.122
793.357
785.677
778.082
770.57
763.14
755.792
748.524
741.335
734.226
727.198
720.252
713.39
706.616
699.931
693.34
686.85
680.476
674.243
668.189
1560.37
1548.77
1537.18
1525.59
1513.98
1502.35
1490.7
1479.03
1467.33
1455.6
1443.83
1432.02
1420.17
1408.26
1396.29
1384.26
1372.16
1359.99
1347.74
1335.4
1322.96
1310.43
1297.78
1285.02
1272.14
1259.13
1245.97
1232.67
1219.37
1206.27
1193.43
1180.82
1168.43
1156.25
1144.27
1132.49
1120.9
1109.5
1098.27
1087.22
1076.33
1065.6
1055.01
1044.58
1034.28
1024.1
1014.05
1004.12
994.298
984.58
974.964
965.445
956.02
946.687
937.444
928.289
919.223
910.243
901.35
892.542
883.821
875.185
866.635
858.171
849.791
841.497
833.287
825.163
817.123
809.168
801.297
793.511
785.809
778.191
770.656
763.205
755.835
748.546
741.338
734.209
727.159
720.186
713.291
706.476
699.741
693.09
686.524
680.047
673.664
667.382
661.218
655.195
649.352
1515.53
1504.28
1493.02
1481.75
1470.47
1459.18
1447.86
1436.53
1425.16
1413.76
1402.33
1390.86
1379.34
1367.77
1356.14
1344.46
1332.7
1320.88
1308.98
1296.99
1284.91
1272.73
1260.45
1248.05
1235.54
1222.9
1210.13
1197.21
1184.29
1171.57
1159.1
1146.85
1134.81
1122.98
1111.34
1099.9
1088.64
1077.56
1066.66
1055.92
1045.34
1034.92
1024.64
1014.5
1004.5
994.621
984.861
975.215
965.676
956.241
946.903
937.661
928.51
919.449
910.476
901.589
892.787
884.07
875.437
866.887
858.422
850.04
841.741
833.524
825.391
817.341
809.373
801.488
793.686
785.965
778.327
770.771
763.297
755.904
748.592
741.362
734.211
727.139
720.145
713.228
706.388
699.624
692.937
686.328
679.798
673.35
666.987
660.712
654.531
648.452
642.491
636.673
631.035
1471.99
1461.06
1450.12
1439.18
1428.22
1417.25
1406.25
1395.24
1384.2
1373.13
1362.02
1350.87
1339.68
1328.44
1317.15
1305.8
1294.38
1282.89
1271.33
1259.68
1247.95
1236.12
1224.19
1212.15
1199.99
1187.72
1175.31
1162.77
1150.22
1137.87
1125.75
1113.85
1102.16
1090.66
1079.36
1068.25
1057.31
1046.55
1035.95
1025.52
1015.25
1005.12
995.141
985.294
975.577
965.982
956.504
947.136
937.873
928.711
919.644
910.67
901.785
892.988
884.276
875.648
867.103
858.641
850.26
841.961
833.743
825.607
817.551
809.576
801.682
793.868
786.135
778.482
770.909
763.416
756.003
748.67
741.416
734.242
727.147
720.13
713.19
706.328
699.542
692.831
686.195
679.634
673.147
666.738
660.406
654.156
647.989
641.91
635.924
630.042
624.279
618.661
613.223
1429.7
1419.08
1408.46
1397.82
1387.18
1376.52
1365.84
1355.14
1344.41
1333.66
1322.87
1312.04
1301.17
1290.25
1279.28
1268.25
1257.16
1246
1234.77
1223.45
1212.05
1200.56
1188.97
1177.28
1165.47
1153.55
1141.49
1129.31
1117.13
1105.13
1093.36
1081.8
1070.45
1059.28
1048.3
1037.5
1026.88
1016.42
1006.13
995.998
986.017
976.181
966.485
956.921
947.482
938.164
928.958
919.861
910.865
901.967
893.163
884.449
875.822
867.281
858.822
850.446
842.15
833.935
825.799
817.742
809.765
801.866
794.047
786.305
778.643
771.058
763.552
756.123
748.773
741.501
734.306
727.189
720.149
713.187
706.301
699.491
692.757
686.097
679.512
673.001
666.562
660.197
653.905
647.689
641.549
635.49
629.513
623.625
617.83
612.139
606.569
601.144
595.9
1388.63
1378.31
1367.99
1357.66
1347.32
1336.96
1326.59
1316.2
1305.77
1295.33
1284.84
1274.32
1263.76
1253.15
1242.5
1231.78
1221.01
1210.17
1199.25
1188.26
1177.19
1166.03
1154.77
1143.41
1131.94
1120.36
1108.65
1096.82
1084.99
1073.33
1061.9
1050.68
1039.64
1028.8
1018.13
1007.64
997.315
987.159
977.162
967.319
957.623
948.069
938.65
929.36
920.192
911.141
902.2
893.365
884.629
875.988
867.438
858.977
850.6
842.306
834.094
825.961
817.907
809.931
802.032
794.211
786.466
778.799
771.207
763.693
756.254
748.892
741.606
734.395
727.261
720.202
713.219
706.311
699.478
692.72
686.037
679.428
672.892
666.43
660.039
653.72
647.473
641.297
635.194
629.165
623.211
617.337
611.545
605.841
600.231
594.726
589.344
584.108
579.052
1348.74
1338.72
1328.69
1318.65
1308.61
1298.55
1288.47
1278.37
1268.25
1258.09
1247.91
1237.69
1227.43
1217.12
1206.77
1196.36
1185.89
1175.36
1164.76
1154.08
1143.33
1132.48
1121.55
1110.51
1099.37
1088.12
1076.75
1065.26
1053.77
1042.45
1031.35
1020.45
1009.73
999.187
988.824
978.631
968.604
958.737
949.025
939.462
930.043
920.762
911.612
902.588
893.683
884.892
876.208
867.626
859.142
850.75
842.448
834.231
826.097
818.043
810.069
802.172
794.352
786.608
778.94
771.346
763.828
756.384
749.014
741.719
734.498
727.351
720.278
713.279
706.353
699.501
692.723
686.018
679.386
672.826
666.339
659.924
653.581
647.309
641.106
634.974
628.912
622.92
616.999
611.151
605.378
599.683
594.07
588.545
583.115
577.791
572.591
567.539
562.665
1310
1300.26
1290.52
1280.77
1271.01
1261.23
1251.44
1241.63
1231.8
1221.93
1212.04
1202.11
1192.14
1182.13
1172.07
1161.96
1151.79
1141.56
1131.26
1120.89
1110.44
1099.91
1089.28
1078.56
1067.74
1056.81
1045.77
1034.61
1023.45
1012.46
1001.68
991.082
980.669
970.43
960.362
950.459
940.717
931.13
921.695
912.405
903.254
894.238
885.349
876.583
867.933
859.393
850.959
842.623
834.383
826.233
818.17
810.19
802.291
794.471
786.728
779.06
771.467
763.948
756.503
749.13
741.83
734.603
727.448
720.366
713.356
706.417
699.551
692.756
686.033
679.382
672.801
666.293
659.855
653.487
647.191
640.964
634.806
628.718
622.698
616.747
610.864
605.049
599.304
593.632
588.033
582.512
577.073
571.722
566.466
561.319
556.296
551.422
546.725
1310.25
1300.77
1291.3
1281.83
1272.37
1262.91
1253.44
1243.97
1234.49
1224.99
1215.48
1205.95
1196.4
1186.81
1177.2
1167.56
1157.87
1148.15
1138.37
1128.55
1118.67
1108.73
1098.73
1088.65
1078.5
1068.27
1057.95
1047.53
1037.02
1026.41
1015.68
1004.84
994.004
983.329
972.854
962.563
952.446
942.499
932.717
923.095
913.63
904.316
895.149
886.123
877.233
868.474
859.839
851.323
842.92
834.625
826.431
818.335
810.332
802.416
794.585
786.835
779.164
771.57
764.051
756.605
749.232
741.931
734.702
727.543
720.456
713.439
706.492
699.616
692.809
686.073
679.407
672.81
666.283
659.826
653.438
647.119
640.869
634.688
628.575
622.53
616.553
610.643
604.799
599.022
593.312
587.67
582.096
576.593
571.164
565.811
560.541
555.358
550.272
545.296
540.445
535.744
531.217
1272.62
1263.41
1254.21
1245.01
1235.82
1226.63
1217.43
1208.23
1199.02
1189.79
1180.55
1171.29
1162.01
1152.7
1143.37
1133.99
1124.59
1115.14
1105.64
1096.1
1086.5
1076.85
1067.13
1057.34
1047.48
1037.54
1027.51
1017.4
1007.19
996.876
986.459
975.931
965.403
955.035
944.861
934.863
925.035
915.37
905.866
896.518
887.321
878.272
869.365
860.596
851.959
843.448
835.059
826.786
818.623
810.564
802.606
794.741
786.967
779.279
771.673
764.146
756.696
749.321
742.019
734.788
727.629
720.539
713.519
706.568
699.686
692.872
686.127
679.45
672.842
666.301
659.829
653.424
647.087
640.818
634.616
628.481
622.413
616.412
610.477
604.608
598.805
593.068
587.395
581.787
576.244
570.768
565.36
560.021
554.755
549.566
544.459
539.44
534.519
529.709
525.027
520.493
516.129
1236.07
1227.13
1218.19
1209.25
1200.32
1191.39
1182.46
1173.52
1164.57
1155.61
1146.63
1137.63
1128.62
1119.57
1110.5
1101.4
1092.26
1083.08
1073.85
1064.58
1055.26
1045.88
1036.43
1026.93
1017.35
1007.69
997.951
988.126
978.208
968.193
958.076
947.85
937.625
927.555
917.672
907.959
898.411
889.021
879.786
870.703
861.768
852.975
844.321
835.8
827.408
819.14
810.989
802.951
795.021
787.192
779.461
771.821
764.269
756.801
749.414
742.103
734.868
727.705
720.613
713.591
706.638
699.753
692.936
686.186
679.503
672.887
666.337
659.854
653.437
647.086
640.801
634.582
628.429
622.342
616.32
610.363
604.471
598.644
592.882
587.183
581.549
575.978
570.47
565.026
559.645
554.33
549.081
543.901
538.794
533.763
528.815
523.956
519.195
514.547
510.028
505.656
501.45
1226.71
1217.98
1209.27
1200.57
1191.88
1183.2
1174.52
1165.84
1157.17
1148.49
1139.8
1131.11
1122.4
1113.68
1104.94
1096.18
1087.4
1078.58
1069.74
1060.86
1051.94
1042.98
1033.97
1024.91
1015.8
1006.63
997.388
988.082
978.701
969.241
959.697
950.063
940.336
930.508
920.576
910.645
900.865
891.264
881.829
872.552
863.429
854.456
845.63
836.948
828.404
819.995
811.716
803.562
795.528
787.609
779.8
772.095
764.489
756.977
749.556
742.22
734.966
727.789
720.689
713.661
706.704
699.816
692.996
686.243
679.557
672.936
666.381
659.891
653.466
647.105
640.809
634.578
628.411
622.308
616.268
610.293
604.382
598.534
592.75
587.029
581.37
575.775
570.241
564.769
559.359
554.011
548.725
543.501
538.341
533.247
528.222
523.268
518.391
513.596
508.892
504.288
499.797
495.435
491.22
487.164
1191.48
1183
1174.54
1166.09
1157.65
1149.22
1140.79
1132.36
1123.93
1115.5
1107.06
1098.61
1090.15
1081.68
1073.19
1064.68
1056.14
1047.58
1038.99
1030.36
1021.7
1012.99
1004.24
995.44
986.586
977.675
968.701
959.659
950.546
941.357
932.086
922.728
913.279
903.734
894.087
884.441
874.941
865.615
856.449
847.436
838.572
829.853
821.277
812.84
804.538
796.367
788.322
780.399
772.593
764.898
757.31
749.824
742.434
735.137
727.927
720.8
713.753
706.781
699.884
693.057
686.3
679.609
672.986
666.427
659.933
653.503
647.136
640.833
634.593
628.415
622.301
616.249
610.26
604.333
598.468
592.665
586.924
581.245
575.627
570.071
564.576
559.141
553.767
548.453
543.199
538.005
532.871
527.799
522.79
517.846
512.969
508.164
503.436
498.791
494.237
489.784
485.446
481.238
477.173
473.258
1157.26
1149.03
1140.81
1132.6
1124.4
1116.21
1108.02
1099.83
1091.64
1083.45
1075.25
1067.05
1058.83
1050.6
1042.35
1034.08
1025.79
1017.47
1009.12
1000.74
992.325
983.867
975.365
966.815
958.214
949.556
940.838
932.054
923.202
914.275
905.269
896.179
887.001
877.729
868.359
858.991
849.763
840.704
831.799
823.042
814.429
805.957
797.623
789.425
781.357
773.417
765.599
757.9
750.315
742.838
735.465
728.19
721.011
713.92
706.915
699.991
693.144
686.372
679.671
673.04
666.476
659.977
653.543
647.172
640.864
634.619
628.435
622.313
616.252
610.252
604.313
598.435
592.618
586.861
581.165
575.529
569.953
564.437
558.981
553.584
548.247
542.968
537.748
532.586
527.482
522.438
517.452
512.526
507.663
502.863
498.131
493.47
488.887
484.387
479.979
475.674
471.485
467.425
463.504
459.719
1124.03
1116.03
1108.05
1100.08
1092.11
1084.15
1076.2
1068.24
1060.29
1052.33
1044.36
1036.39
1028.41
1020.41
1012.4
1004.36
996.309
988.227
980.117
971.974
963.796
955.579
947.32
939.013
930.657
922.246
913.776
905.243
896.643
887.971
879.223
870.393
861.478
852.472
843.371
834.272
825.309
816.509
807.857
799.349
790.979
782.747
774.648
766.681
758.841
751.125
743.528
736.046
728.675
721.409
714.244
707.176
700.199
693.31
686.503
679.776
673.124
666.544
660.034
653.592
647.215
640.902
634.652
628.463
622.336
616.269
610.262
604.315
598.428
592.6
586.831
581.122
575.471
569.879
564.346
558.872
553.455
548.097
542.797
537.555
532.369
527.241
522.17
517.155
512.198
507.297
502.454
497.67
492.947
488.288
483.696
479.175
474.731
470.373
466.107
461.946
457.901
453.983
450.2
446.535
1091.75
1083.98
1076.23
1068.48
1060.75
1053.01
1045.29
1037.56
1029.83
1022.1
1014.36
1006.62
998.861
991.092
983.306
975.501
967.675
959.823
951.944
944.033
936.088
928.105
920.081
912.011
903.892
895.721
887.493
879.204
870.849
862.425
853.926
845.349
836.689
827.942
819.102
810.263
801.557
793.009
784.603
776.336
768.203
760.203
752.333
744.59
736.971
729.472
722.089
714.818
707.654
700.594
693.631
686.762
679.983
673.288
666.674
660.137
653.674
647.281
640.956
634.697
628.502
622.368
616.296
610.284
604.332
598.438
592.603
586.825
581.106
575.445
569.841
564.294
558.805
553.372
547.997
542.679
537.417
532.212
527.063
521.969
516.931
511.949
507.021
502.149
497.332
492.57
487.866
483.219
478.632
474.108
469.652
465.267
460.959
456.738
452.611
448.589
444.683
440.903
437.248
433.693
1060.39
1052.85
1045.32
1037.8
1030.28
1022.77
1015.26
1007.76
1000.25
992.738
985.221
977.697
970.162
962.614
955.05
947.468
939.864
932.236
924.581
916.895
909.176
901.421
893.625
885.785
877.898
869.959
861.966
853.913
845.796
837.613
829.357
821.026
812.613
804.116
795.53
786.945
778.488
770.184
762.018
753.985
746.082
738.307
730.659
723.134
715.729
708.441
701.265
694.199
687.236
680.374
673.608
666.932
660.344
653.838
647.411
641.059
634.778
628.567
622.421
616.339
610.32
604.361
598.461
592.62
586.837
581.111
575.441
569.828
564.272
558.771
553.327
547.938
542.605
537.327
532.105
526.937
521.825
516.767
511.764
506.815
501.919
497.078
492.289
487.554
482.873
478.246
473.675
469.161
464.706
460.313
455.988
451.735
447.56
443.472
439.479
435.593
431.822
428.173
424.636
421.183
1029.94
1022.61
1015.3
1007.99
1000.69
993.396
986.103
978.81
971.517
964.22
956.918
949.608
942.288
934.955
927.606
920.24
912.852
905.442
898.004
890.538
883.038
875.504
867.929
860.313
852.65
844.938
837.172
829.349
821.464
813.514
805.495
797.401
789.23
780.976
772.636
764.297
756.083
748.015
740.081
732.275
724.596
717.04
709.607
702.293
695.096
688.012
681.038
674.17
667.403
660.733
654.157
647.669
641.266
634.943
628.697
622.524
616.421
610.385
604.413
598.503
592.654
586.864
581.131
575.456
569.836
564.273
558.764
553.31
547.911
542.567
537.277
532.04
526.858
521.73
516.655
511.634
506.666
501.751
496.889
492.079
487.322
482.616
477.962
473.36
468.81
464.313
459.871
455.484
451.157
446.892
442.694
438.568
434.522
430.564
426.702
422.946
419.305
415.781
412.352
408.993
1000.36
993.245
986.14
979.043
971.951
964.864
957.78
950.696
943.611
936.522
929.428
922.326
915.215
908.09
900.951
893.794
886.617
879.417
872.192
864.938
857.652
850.331
842.973
835.573
828.129
820.636
813.092
805.492
797.832
790.109
782.318
774.456
766.519
758.501
750.4
742.3
734.32
726.483
718.775
711.19
703.727
696.384
689.159
682.05
675.055
668.17
661.391
654.715
648.138
641.655
635.263
628.957
622.733
616.588
610.518
604.518
598.587
592.72
586.917
581.174
575.49
569.863
564.292
558.777
553.317
547.91
542.557
537.257
532.011
526.817
521.676
516.588
511.552
506.568
501.636
496.757
491.929
487.152
482.426
477.751
473.126
468.552
464.027
459.554
455.131
450.759
446.441
442.179
437.975
433.833
429.759
425.758
421.837
418.005
414.271
410.642
407.125
403.716
400.386
397.116
971.633
964.72
957.819
950.925
944.037
937.152
930.27
923.389
916.506
909.619
902.728
895.828
888.919
881.998
875.062
868.109
861.136
854.141
847.121
840.073
832.995
825.883
818.734
811.545
804.312
797.033
789.703
782.32
774.879
767.376
759.809
752.171
744.461
736.673
728.803
720.935
713.184
705.57
698.08
690.71
683.457
676.32
669.298
662.389
655.589
648.896
642.307
635.817
629.424
623.122
616.909
610.78
604.73
598.757
592.857
587.025
581.26
575.559
569.918
564.337
558.812
553.344
547.93
542.57
537.263
532.009
526.807
521.656
516.557
511.51
506.513
501.568
496.673
491.829
487.036
482.293
477.6
472.956
468.362
463.817
459.321
454.874
450.475
446.125
441.824
437.574
433.377
429.234
425.15
421.128
417.174
413.293
409.495
405.786
402.175
398.669
395.27
391.965
388.727
385.544
943.729
937.014
930.311
923.614
916.923
910.236
903.55
896.866
890.179
883.489
876.794
870.091
863.379
856.655
849.916
843.161
836.387
829.591
822.771
815.923
809.046
802.137
795.191
788.207
781.18
774.108
766.988
759.815
752.586
745.298
737.946
730.527
723.037
715.471
707.826
700.183
692.654
685.258
677.98
670.818
663.77
656.833
650.008
643.291
636.681
630.175
623.77
617.461
611.246
605.12
599.08
593.122
587.241
581.435
575.699
570.031
564.427
558.885
553.403
547.978
542.608
537.293
532.031
526.822
521.664
516.557
511.5
506.494
501.538
496.632
491.775
486.968
482.21
477.501
472.842
468.231
463.668
459.154
454.687
450.268
445.896
441.571
437.293
433.063
428.881
424.748
420.667
416.64
412.671
408.765
404.928
401.165
397.485
393.896
390.404
387.016
383.728
380.519
377.366
374.265
916.626
910.104
903.592
897.088
890.588
884.092
877.598
871.104
864.608
858.109
851.605
845.093
838.572
832.039
825.493
818.93
812.348
805.746
799.12
792.467
785.786
779.073
772.325
765.54
758.713
751.843
744.925
737.957
730.934
723.854
716.712
709.505
702.229
694.879
687.453
680.029
672.715
665.529
658.458
651.498
644.648
637.906
631.271
624.742
618.316
611.991
605.764
599.631
593.588
587.633
581.761
575.968
570.251
564.607
559.031
553.521
548.073
542.686
537.356
532.083
526.863
521.697
516.582
511.518
506.504
501.54
496.625
491.758
486.94
482.171
477.449
472.776
468.15
463.573
459.042
454.559
450.123
445.733
441.389
437.092
432.839
428.633
424.472
420.357
416.289
412.269
408.301
404.386
400.53
396.736
393.012
389.364
385.8
382.326
378.951
375.675
372.489
369.367
366.296
363.275
890.301
883.966
877.641
871.322
865.009
858.699
852.39
846.082
839.772
833.458
827.139
820.813
814.478
808.131
801.771
795.395
789.001
782.586
776.149
769.686
763.194
756.672
750.116
743.524
736.892
730.217
723.497
716.727
709.904
703.026
696.088
689.087
682.019
674.879
667.665
660.453
653.348
646.366
639.496
632.733
626.075
619.521
613.072
606.724
600.477
594.328
588.274
582.311
576.436
570.646
564.937
559.305
553.747
548.259
542.838
537.481
532.185
526.947
521.766
516.639
511.565
506.542
501.57
496.647
491.772
486.946
482.168
477.436
472.752
468.115
463.525
458.981
454.483
450.032
445.626
441.266
436.952
432.683
428.458
424.278
420.141
416.049
412
407.997
404.039
400.129
396.269
392.464
388.716
385.032
381.418
377.881
374.429
371.069
367.804
364.635
361.541
358.5
355.508
352.564
864.732
858.578
852.434
846.297
840.164
834.034
827.906
821.778
815.648
809.515
803.376
797.23
791.076
784.91
778.73
772.536
766.324
760.092
753.837
747.558
741.251
734.915
728.546
722.141
715.698
709.213
702.684
696.107
689.479
682.797
676.057
669.256
662.39
655.454
648.446
641.439
634.537
627.755
621.079
614.507
608.035
601.665
595.395
589.224
583.15
577.172
571.285
565.487
559.775
554.145
548.594
543.118
537.714
532.378
527.107
521.898
516.749
511.656
506.619
501.634
496.7
491.817
486.982
482.196
477.456
472.764
468.117
463.517
458.962
454.453
449.989
445.57
441.196
436.867
432.583
428.342
424.146
419.993
415.883
411.816
407.791
403.809
399.869
395.973
392.122
388.318
384.563
380.863
377.221
373.643
370.136
366.708
363.366
360.114
356.957
353.885
350.875
347.912
344.995
342.125
839.896
833.919
827.951
821.989
816.032
810.078
804.125
798.172
792.217
786.258
780.295
774.324
768.345
762.355
756.351
750.333
744.298
738.243
732.167
726.066
719.939
713.783
707.595
701.372
695.112
688.813
682.469
676.08
669.641
663.15
656.602
649.995
643.325
636.587
629.779
622.972
616.267
609.677
603.191
596.803
590.513
584.321
578.225
572.226
566.32
560.507
554.783
549.145
543.591
538.116
532.718
527.393
522.138
516.949
511.824
506.759
501.752
496.8
491.901
487.054
482.257
477.508
472.807
468.153
463.544
458.981
454.462
449.988
445.559
441.173
436.832
432.534
428.28
424.069
419.901
415.776
411.693
407.653
403.654
399.696
395.779
391.903
388.068
384.276
380.528
376.826
373.173
369.575
366.035
362.561
359.159
355.837
352.6
349.455
346.398
343.415
340.482
337.595
334.751
331.952
815.774
809.968
804.171
798.379
792.592
786.808
781.026
775.243
769.458
763.67
757.876
752.076
746.267
740.447
734.615
728.768
722.904
717.022
711.118
705.191
699.239
693.258
687.246
681.2
675.119
668.998
662.836
656.628
650.373
644.067
637.706
631.287
624.807
618.262
611.648
605.035
598.521
592.119
585.817
579.609
573.495
567.475
561.548
555.715
549.973
544.32
538.753
533.271
527.87
522.546
517.296
512.118
507.007
501.961
496.976
492.051
487.181
482.365
477.602
472.888
468.223
463.605
459.033
454.506
450.024
445.586
441.191
436.84
432.531
428.266
424.042
419.862
415.723
411.626
407.571
403.558
399.585
395.653
391.761
387.908
384.096
380.322
376.589
372.897
369.248
365.645
362.091
358.591
355.151
351.778
348.478
345.259
342.126
339.081
336.118
333.215
330.357
327.541
324.767
322.037
792.344
786.704
781.073
775.447
769.826
764.207
758.589
752.972
747.352
741.729
736.101
730.466
724.822
719.168
713.502
707.822
702.125
696.41
690.675
684.916
679.133
673.322
667.481
661.608
655.699
649.753
643.766
637.736
631.659
625.532
619.353
613.118
606.822
600.464
594.038
587.613
581.285
575.065
568.941
562.908
556.965
551.112
545.35
539.678
534.094
528.597
523.183
517.852
512.598
507.42
502.315
497.278
492.308
487.4
482.552
477.761
473.025
468.341
463.708
459.123
454.586
450.094
445.647
441.244
436.885
432.568
428.293
424.06
419.869
415.719
411.61
407.543
403.516
399.53
395.584
391.678
387.811
383.984
380.195
376.444
372.732
369.058
365.422
361.827
358.274
354.766
351.308
347.904
344.561
341.286
338.086
334.967
331.934
328.986
326.107
323.278
320.49
317.744
315.038
312.374
775.076
769.587
764.108
758.637
753.172
747.712
742.254
736.797
731.339
725.88
720.418
714.95
709.476
703.993
698.5
692.996
687.477
681.942
676.39
670.818
665.223
659.604
653.959
648.284
642.578
636.838
631.061
625.245
619.386
613.482
607.53
601.527
595.47
589.354
583.177
576.934
570.692
564.543
558.5
552.55
546.687
540.91
535.22
529.617
524.101
518.671
513.324
508.059
502.874
497.764
492.728
487.762
482.863
478.028
473.254
468.538
463.878
459.272
454.716
450.209
445.749
441.335
436.966
432.64
428.357
424.116
419.916
415.757
411.639
407.561
403.523
399.525
395.567
391.648
387.769
383.928
380.126
376.362
372.636
368.947
365.295
361.679
358.1
354.559
351.057
347.596
344.181
340.816
337.506
334.258
331.078
327.975
324.954
322.016
319.157
316.356
313.597
310.877
308.197
305.557
302.957
752.813
747.481
742.16
736.846
731.537
726.232
720.93
715.629
710.328
705.024
699.718
694.406
689.088
683.762
678.425
673.077
667.716
662.339
656.945
651.531
646.096
640.637
635.152
629.639
624.095
618.518
612.906
607.255
601.563
595.828
590.046
584.214
578.329
572.387
566.386
560.321
554.256
548.282
542.411
536.629
530.931
525.315
519.783
514.335
508.971
503.689
498.489
493.369
488.324
483.354
478.455
473.625
468.859
464.156
459.512
454.924
450.391
445.909
441.477
437.093
432.754
428.46
424.209
420.001
415.834
411.707
407.621
403.574
399.566
395.598
391.668
387.777
383.925
380.111
376.334
372.596
368.894
365.229
361.601
358.008
354.45
350.928
347.441
343.991
340.579
337.208
333.883
330.607
327.388
324.232
321.147
318.138
315.211
312.365
309.587
306.856
304.164
301.511
298.895
296.318
293.779
731.189
726.01
720.841
715.679
710.522
705.369
700.218
695.069
689.919
684.767
679.612
674.452
669.285
664.111
658.926
653.731
648.522
643.298
638.057
632.797
627.517
622.213
616.884
611.528
606.142
600.724
595.272
589.782
584.252
578.68
573.063
567.397
561.68
555.908
550.078
544.185
538.292
532.487
526.784
521.166
515.627
510.168
504.789
499.492
494.275
489.138
484.08
479.099
474.192
469.357
464.591
459.891
455.255
450.679
446.161
441.698
437.287
432.927
428.615
424.349
420.128
415.95
411.813
407.718
403.663
399.648
395.671
391.733
387.832
383.97
380.145
376.358
372.607
368.894
365.218
361.577
357.973
354.404
350.869
347.369
343.903
340.471
337.073
333.71
330.385
327.101
323.862
320.674
317.544
314.478
311.484
308.568
305.731
302.971
300.266
297.602
294.974
292.384
289.831
287.314
710.185
705.155
700.134
695.119
690.11
685.104
680.101
675.098
670.095
665.09
660.082
655.069
650.05
645.023
639.987
634.939
629.879
624.803
619.712
614.602
609.471
604.319
599.142
593.938
588.705
583.441
578.144
572.811
567.439
562.026
556.568
551.064
545.51