/*--------------------------------*- C++ -*----------------------------------*\
  =========                 |
  \\      /  F ield         | OpenFOAM: The Open Source CFD Toolbox
   \\    /   O peration     | Website:  https://openfoam.org
    \\  /    A nd           | Version:  10
     \\/     M anipulation  |
\*---------------------------------------------------------------------------*/
FoamFile
{
    format      ascii;
    class       volScalarField;
    location    "14000";
    object      omega;
}
// * * * * * * * * * * * * * * * * * * * * * * * * * * * * * * * * * * * * * //

dimensions      [0 0 -1 0 0 0 0];

internalField   nonuniform List<scalar> 
17922
(
33.0316
32.3497
31.6877
31.0452
30.4215
29.8163
29.229
28.6591
28.1063
27.5701
27.0502
26.5461
26.0575
25.5841
25.1256
24.6816
24.2518
23.8361
23.434
23.0455
22.6702
22.3079
21.9585
21.6218
21.2975
20.9857
20.6861
20.3988
20.1261
19.8721
19.6372
19.4194
19.2175
19.0303
18.8566
18.6956
18.5464
18.4081
18.2802
18.1619
18.0525
17.9516
17.8585
17.7728
17.6939
17.6215
17.5551
17.4942
17.4387
17.388
17.3419
17.3001
17.2623
17.2283
17.1978
17.1706
17.1467
17.1257
17.1076
17.0923
17.0796
17.0694
17.0618
17.0566
17.0539
17.0536
17.0557
17.0603
17.0674
17.0772
17.0897
17.1051
17.1235
17.1452
17.1703
17.1991
17.2319
17.269
17.3107
17.3576
17.4099
17.4683
17.5332
17.6051
17.6847
17.7726
17.8695
17.9761
18.0932
18.2215
18.3619
18.5147
18.68
33.0323
32.3504
31.6884
31.0458
30.4222
29.8169
29.2296
28.6597
28.1069
27.5707
27.0507
26.5466
26.058
25.5846
25.126
24.682
24.2522
23.8364
23.4344
23.0458
22.6705
22.3082
21.9587
21.6219
21.2977
20.9858
20.6862
20.3988
20.1262
19.8722
19.6372
19.4195
19.2175
19.0302
18.8565
18.6954
18.5461
18.4079
18.2799
18.1615
18.052
17.951
17.8579
17.7721
17.6932
17.6207
17.5542
17.4934
17.4378
17.387
17.3409
17.2991
17.2613
17.2272
17.1967
17.1696
17.1457
17.1247
17.1067
17.0914
17.0787
17.0687
17.0611
17.0561
17.0535
17.0533
17.0557
17.0605
17.068
17.0781
17.0909
17.1068
17.1257
17.1479
17.1736
17.2031
17.2366
17.2746
17.3174
17.3653
17.4189
17.4786
17.5449
17.6184
17.6998
17.7895
17.8884
17.9972
18.1166
18.2474
18.3903
18.5456
18.7135
33.0329
32.351
31.689
31.0464
30.4228
29.8175
29.2301
28.6602
28.1074
27.5712
27.0512
26.5471
26.0585
25.5851
25.1265
24.6824
24.2527
23.8368
23.4348
23.0462
22.6708
22.3085
21.959
21.6222
21.2979
20.9859
20.6863
20.399
20.1264
19.8724
19.6374
19.4196
19.2176
19.0303
18.8565
18.6954
18.5461
18.4077
18.2797
18.1612
18.0518
17.9507
17.8575
17.7716
17.6927
17.6202
17.5536
17.4927
17.4371
17.3863
17.3402
17.2983
17.2605
17.2264
17.196
17.1689
17.1449
17.124
17.106
17.0908
17.0782
17.0683
17.0608
17.0559
17.0535
17.0536
17.0561
17.0612
17.069
17.0794
17.0927
17.109
17.1284
17.1512
17.1775
17.2078
17.2422
17.2811
17.3249
17.374
17.4288
17.4899
17.5577
17.6329
17.716
17.8077
17.9087
18.0197
18.1415
18.2748
18.4202
18.5781
18.7485
33.0335
32.3516
31.6896
31.047
30.4233
29.8181
29.2307
28.6608
28.108
27.5717
27.0518
26.5476
26.059
25.5856
25.127
24.6829
24.2531
23.8373
23.4352
23.0465
22.6712
22.3088
21.9593
21.6224
21.2981
20.9861
20.6865
20.3992
20.1266
19.8726
19.6376
19.4198
19.2178
19.0304
18.8566
18.6954
18.5461
18.4077
18.2796
18.1611
18.0515
17.9504
17.8572
17.7713
17.6923
17.6197
17.5531
17.4922
17.4365
17.3857
17.3395
17.2977
17.2598
17.2258
17.1953
17.1683
17.1444
17.1235
17.1056
17.0904
17.0779
17.0681
17.0608
17.056
17.0538
17.054
17.0568
17.0622
17.0703
17.0811
17.0948
17.1116
17.1316
17.155
17.182
17.2131
17.2483
17.2882
17.3331
17.3834
17.4395
17.502
17.5715
17.6484
17.7333
17.827
17.9302
18.0434
18.1676
18.3034
18.4514
18.6119
18.7848
33.0342
32.3522
31.6902
31.0476
30.424
29.8187
29.2313
28.6614
28.1085
27.5723
27.0523
26.5482
26.0596
25.5861
25.1275
24.6834
24.2536
23.8377
23.4356
23.047
22.6715
22.3092
21.9596
21.6227
21.2984
20.9864
20.6868
20.3994
20.1269
19.8729
19.6379
19.4201
19.218
19.0306
18.8568
18.6956
18.5461
18.4077
18.2795
18.161
18.0514
17.9502
17.8569
17.771
17.6919
17.6193
17.5527
17.4917
17.436
17.3852
17.339
17.2972
17.2593
17.2253
17.1949
17.1678
17.1439
17.1231
17.1053
17.0902
17.0778
17.0681
17.0609
17.0564
17.0543
17.0548
17.0579
17.0636
17.072
17.0832
17.0974
17.1146
17.1352
17.1593
17.1871
17.2189
17.2551
17.296
17.342
17.3936
17.4511
17.5151
17.5861
17.6648
17.7517
17.8474
17.9528
18.0684
18.195
18.3333
18.4839
18.6469
18.8223
33.0348
32.3529
31.6909
31.0483
30.4246
29.8193
29.2319
28.662
28.1091
27.5729
27.0529
26.5488
26.0601
25.5867
25.128
24.6839
24.2541
23.8382
23.4361
23.0474
22.672
22.3096
21.96
21.6231
21.2987
20.9867
20.6871
20.3997
20.1272
19.8733
19.6382
19.4204
19.2183
19.0309
18.857
18.6957
18.5463
18.4078
18.2796
18.161
18.0514
17.9502
17.8568
17.7708
17.6917
17.6191
17.5524
17.4914
17.4357
17.3849
17.3387
17.2968
17.259
17.2249
17.1945
17.1675
17.1437
17.123
17.1052
17.0902
17.0779
17.0683
17.0613
17.0569
17.0551
17.0558
17.0592
17.0652
17.074
17.0857
17.1003
17.1181
17.1393
17.1641
17.1927
17.2254
17.2626
17.3045
17.3517
17.4045
17.4635
17.529
17.6018
17.6823
17.7711
17.869
17.9765
18.0945
18.2236
18.3644
18.5176
18.6832
18.8609
33.0355
32.3535
31.6915
31.0489
30.4252
29.8199
29.2325
28.6626
28.1098
27.5735
27.0535
26.5494
26.0607
25.5872
25.1286
24.6845
24.2546
23.8387
23.4366
23.0479
22.6724
22.31
21.9604
21.6235
21.2991
20.987
20.6874
20.4001
20.1276
19.8737
19.6386
19.4208
19.2187
19.0312
18.8573
18.696
18.5465
18.408
18.2797
18.1611
18.0514
17.9502
17.8568
17.7707
17.6916
17.6189
17.5522
17.4912
17.4354
17.3846
17.3384
17.2965
17.2587
17.2247
17.1943
17.1674
17.1436
17.123
17.1052
17.0904
17.0782
17.0688
17.062
17.0578
17.0562
17.0572
17.0608
17.0672
17.0764
17.0885
17.1037
17.1221
17.1439
17.1694
17.1988
17.2325
17.2706
17.3137
17.3622
17.4163
17.4767
17.5439
17.6184
17.7007
17.7916
17.8916
18.0015
18.1218
18.2534
18.3969
18.5526
18.7207
18.9007
33.0362
32.3542
31.6922
31.0496
30.4259
29.8206
29.2332
28.6633
28.1104
27.5742
27.0541
26.55
26.0613
25.5878
25.1292
24.6851
24.2552
23.8393
23.4371
23.0484
22.6729
22.3105
21.9608
21.6239
21.2995
20.9874
20.6878
20.4005
20.128
19.8741
19.6391
19.4212
19.2191
19.0316
18.8577
18.6963
18.5468
18.4082
18.2799
18.1613
18.0515
17.9502
17.8568
17.7708
17.6916
17.6188
17.5522
17.4911
17.4353
17.3845
17.3383
17.2964
17.2586
17.2246
17.1943
17.1674
17.1437
17.1231
17.1055
17.0907
17.0788
17.0695
17.0629
17.0589
17.0575
17.0588
17.0628
17.0696
17.0792
17.0918
17.1075
17.1265
17.149
17.1753
17.2056
17.2402
17.2794
17.3237
17.3734
17.429
17.4909
17.5597
17.636
17.7203
17.8132
17.9154
18.0276
18.1504
18.2845
18.4305
18.5888
18.7593
18.9416
33.0369
32.3549
31.6929
31.0503
30.4266
29.8213
29.2339
28.664
28.1111
27.5748
27.0548
26.5506
26.062
25.5885
25.1298
24.6857
24.2558
23.8399
23.4377
23.0489
22.6734
22.311
21.9613
21.6243
21.2999
20.9879
20.6882
20.4009
20.1285
19.8747
19.6396
19.4217
19.2196
19.0321
18.8581
18.6967
18.5472
18.4086
18.2802
18.1615
18.0518
17.9504
17.857
17.7709
17.6917
17.6189
17.5522
17.4911
17.4353
17.3845
17.3383
17.2964
17.2586
17.2247
17.1944
17.1676
17.1439
17.1235
17.106
17.0913
17.0795
17.0704
17.064
17.0602
17.0591
17.0608
17.0651
17.0723
17.0823
17.0955
17.1118
17.1314
17.1547
17.1818
17.2129
17.2485
17.2889
17.3344
17.3854
17.4424
17.506
17.5765
17.6546
17.7409
17.8359
17.9404
18.0549
18.1802
18.3169
18.4654
18.6262
18.7991
18.9836
33.0376
32.3556
31.6936
31.051
30.4273
29.822
29.2346
28.6647
28.1118
27.5755
27.0555
26.5513
26.0627
25.5891
25.1305
24.6863
24.2564
23.8405
23.4383
23.0495
22.674
22.3115
21.9618
21.6248
21.3004
20.9883
20.6887
20.4014
20.1291
19.8752
19.6402
19.4223
19.2202
19.0326
18.8586
18.6972
18.5476
18.409
18.2806
18.1619
18.0521
17.9507
17.8572
17.7711
17.6918
17.619
17.5523
17.4912
17.4354
17.3846
17.3384
17.2966
17.2588
17.2249
17.1947
17.1679
17.1444
17.124
17.1066
17.0921
17.0804
17.0715
17.0653
17.0618
17.0611
17.063
17.0677
17.0753
17.0859
17.0995
17.1165
17.1368
17.1608
17.1888
17.2209
17.2576
17.2991
17.3458
17.3982
17.4568
17.5219
17.5943
17.6743
17.7626
17.8598
17.9665
18.0835
18.2112
18.3504
18.5015
18.6647
18.8399
19.0264
33.0384
32.3564
31.6944
31.0517
30.428
29.8227
29.2353
28.6654
28.1125
27.5763
27.0562
26.552
26.0634
25.5898
25.1312
24.687
24.2571
23.8411
23.4389
23.0501
22.6746
22.3121
21.9624
21.6254
21.3009
20.9889
20.6892
20.402
20.1297
19.8759
19.6409
19.423
19.2208
19.0332
18.8592
18.6978
18.5481
18.4095
18.2811
18.1623
18.0525
17.9511
17.8575
17.7714
17.6921
17.6193
17.5525
17.4914
17.4356
17.3848
17.3386
17.2968
17.2591
17.2253
17.1951
17.1684
17.145
17.1247
17.1074
17.0931
17.0816
17.0729
17.067
17.0637
17.0633
17.0656
17.0707
17.0788
17.0898
17.1041
17.1216
17.1427
17.1676
17.1964
17.2295
17.2673
17.31
17.358
17.4119
17.472
17.5389
17.613
17.695
17.7854
17.8848
17.9939
18.1132
18.2434
18.3852
18.5387
18.7044
18.8818
19.0702
33.0392
32.3572
31.6951
31.0525
30.4288
29.8235
29.2361
28.6662
28.1133
27.577
27.057
26.5528
26.0641
25.5906
25.1319
24.6877
24.2578
23.8418
23.4396
23.0508
22.6752
22.3127
21.963
21.626
21.3015
20.9894
20.6898
20.4026
20.1303
19.8766
19.6416
19.4237
19.2215
19.0339
18.8598
18.6984
18.5487
18.41
18.2816
18.1628
18.0529
17.9515
17.8579
17.7718
17.6925
17.6197
17.5529
17.4918
17.436
17.3852
17.339
17.2972
17.2596
17.2258
17.1957
17.169
17.1457
17.1256
17.1085
17.0943
17.083
17.0745
17.0688
17.0659
17.0658
17.0685
17.074
17.0826
17.0942
17.109
17.1273
17.1491
17.1748
17.2046
17.2388
17.2777
17.3216
17.3711
17.4264
17.4882
17.5568
17.6328
17.7167
17.8093
17.9109
18.0223
18.1441
18.2769
18.4211
18.5771
18.7451
18.9245
19.1147
33.04
32.358
31.696
31.0533
30.4296
29.8243
29.2369
28.667
28.1141
27.5778
27.0578
26.5536
26.0649
25.5914
25.1327
24.6885
24.2585
23.8426
23.4403
23.0515
22.6759
22.3134
21.9636
21.6266
21.3021
20.9901
20.6904
20.4033
20.1311
19.8773
19.6423
19.4244
19.2223
19.0346
18.8606
18.6991
18.5494
18.4107
18.2822
18.1634
18.0535
17.9521
17.8585
17.7723
17.6929
17.6201
17.5533
17.4922
17.4364
17.3856
17.3395
17.2978
17.2601
17.2264
17.1964
17.1699
17.1467
17.1266
17.1097
17.0957
17.0846
17.0764
17.071
17.0684
17.0686
17.0717
17.0777
17.0868
17.099
17.1145
17.1334
17.1561
17.1827
17.2135
17.2487
17.2888
17.3341
17.3849
17.4418
17.5052
17.5756
17.6536
17.7396
17.8343
17.9382
18.052
18.1762
18.3114
18.4581
18.6166
18.7867
18.9682
19.1599
33.0408
32.3588
31.6968
31.0542
30.4305
29.8252
29.2378
28.6678
28.1149
27.5787
27.0586
26.5544
26.0657
25.5922
25.1335
24.6893
24.2593
23.8433
23.4411
23.0522
22.6766
22.3141
21.9643
21.6273
21.3028
20.9907
20.6911
20.404
20.1318
19.8782
19.6432
19.4253
19.2231
19.0355
18.8614
18.6999
18.5502
18.4114
18.283
18.1641
18.0542
17.9527
17.8591
17.7728
17.6935
17.6207
17.5539
17.4928
17.437
17.3862
17.3401
17.2984
17.2609
17.2272
17.1973
17.1709
17.1478
17.1279
17.1111
17.0973
17.0865
17.0785
17.0734
17.0711
17.0717
17.0752
17.0818
17.0914
17.1042
17.1204
17.1401
17.1636
17.1911
17.2229
17.2593
17.3006
17.3473
17.3996
17.4581
17.5232
17.5955
17.6754
17.7635
17.8604
17.9666
18.0828
18.2095
18.3472
18.4963
18.657
18.8293
19.0125
19.2058
33.0418
32.3597
31.6977
31.0551
30.4314
29.8261
29.2387
28.6687
28.1158
27.5796
27.0595
26.5553
26.0666
25.593
25.1343
24.6901
24.2602
23.8442
23.4419
23.053
22.6774
22.3148
21.9651
21.628
21.3035
20.9915
20.6919
20.4048
20.1327
19.879
19.6441
19.4262
19.224
19.0364
18.8623
18.7008
18.551
18.4123
18.2838
18.1648
18.0549
17.9534
17.8598
17.7735
17.6942
17.6213
17.5546
17.4935
17.4377
17.3869
17.3409
17.2992
17.2617
17.2282
17.1983
17.172
17.1491
17.1294
17.1128
17.0992
17.0886
17.0809
17.0761
17.0742
17.0752
17.0792
17.0862
17.0964
17.1098
17.1267
17.1473
17.1717
17.2002
17.2331
17.2706
17.3133
17.3613
17.4152
17.4753
17.5422
17.6163
17.6982
17.7885
17.8876
17.9961
18.1147
18.2438
18.384
18.5355
18.6984
18.8727
19.0576
19.2521
33.0427
32.3607
31.6987
31.056
30.4323
29.827
29.2396
28.6697
28.1168
27.5805
27.0604
26.5562
26.0675
25.5939
25.1352
24.691
24.261
23.845
23.4427
23.0538
22.6782
22.3156
21.9658
21.6288
21.3043
20.9922
20.6927
20.4056
20.1336
19.88
19.645
19.4271
19.225
19.0373
18.8632
18.7017
18.552
18.4132
18.2846
18.1657
18.0558
17.9542
17.8606
17.7743
17.695
17.6221
17.5553
17.4943
17.4385
17.3878
17.3418
17.3002
17.2627
17.2293
17.1995
17.1733
17.1505
17.131
17.1146
17.1013
17.0909
17.0835
17.0791
17.0775
17.079
17.0834
17.091
17.1018
17.116
17.1336
17.155
17.1803
17.2099
17.2439
17.2827
17.3266
17.3761
17.4316
17.4934
17.5621
17.6382
17.7221
17.8145
17.9159
18.0268
18.1478
18.2793
18.4218
18.5756
18.7407
18.9168
19.1032
19.2988
35.9816
35.2144
34.4695
33.7462
33.0437
32.3617
31.6997
31.057
30.4333
29.828
29.2406
28.6706
28.1177
27.5815
27.0614
26.5572
26.0685
25.5949
25.1362
24.6919
24.262
23.8459
23.4436
23.0547
22.6791
22.3164
21.9667
21.6296
21.3051
20.9931
20.6935
20.4065
20.1345
19.8809
19.6461
19.4282
19.226
19.0384
18.8643
18.7027
18.553
18.4141
18.2856
18.1667
18.0567
17.9551
17.8615
17.7752
17.6959
17.623
17.5562
17.4952
17.4394
17.3888
17.3428
17.3012
17.2639
17.2305
17.2009
17.1748
17.1522
17.1328
17.1167
17.1036
17.0935
17.0864
17.0823
17.0812
17.0831
17.0881
17.0962
17.1077
17.1225
17.141
17.1633
17.1896
17.2202
17.2553
17.2954
17.3408
17.3918
17.4488
17.5124
17.583
17.661
17.7471
17.8416
17.9453
18.0586
18.1819
18.3159
18.4607
18.6167
18.7838
18.9616
19.1493
19.3458
35.9827
35.2154
34.4705
33.7471
33.0447
32.3627
31.7007
31.0581
30.4344
29.829
29.2416
28.6717
28.1188
27.5825
27.0624
26.5582
26.0695
25.5959
25.1371
24.6929
24.2629
23.8469
23.4445
23.0556
22.68
22.3173
21.9675
21.6305
21.3059
20.9939
20.6944
20.4075
20.1355
19.882
19.6471
19.4293
19.2271
19.0395
18.8654
18.7038
18.554
18.4152
18.2867
18.1677
18.0577
17.9561
17.8625
17.7762
17.6968
17.624
17.5572
17.4962
17.4405
17.3898
17.3439
17.3025
17.2652
17.2319
17.2024
17.1765
17.1541
17.1349
17.1189
17.1061
17.0963
17.0896
17.0859
17.0852
17.0876
17.0931
17.1019
17.114
17.1296
17.1489
17.1721
17.1994
17.2311
17.2675
17.3089
17.3557
17.4083
17.467
17.5324
17.6048
17.6849
17.7731
17.8699
17.9758
18.0914
18.2171
18.3534
18.5006
18.6587
18.8276
19.0069
19.1957
19.3931
35.9838
35.2165
34.4715
33.7481
33.0457
32.3638
31.7018
31.0592
30.4354
29.8301
29.2427
28.6728
28.1198
27.5835
27.0635
26.5592
26.0705
25.5969
25.1382
24.6939
24.2639
23.8479
23.4455
23.0566
22.6809
22.3183
21.9685
21.6314
21.3069
20.9949
20.6954
20.4085
20.1366
19.8831
19.6483
19.4305
19.2283
19.0407
18.8665
18.705
18.5552
18.4164
18.2878
18.1688
18.0588
17.9572
17.8636
17.7773
17.6979
17.6251
17.5583
17.4973
17.4417
17.3911
17.3452
17.3038
17.2667
17.2335
17.2041
17.1784
17.1561
17.1371
17.1214
17.1089
17.0994
17.0931
17.0897
17.0895
17.0924
17.0985
17.1079
17.1208
17.1372
17.1574
17.1815
17.2099
17.2428
17.2804
17.3232
17.3715
17.4256
17.4861
17.5533
17.6277
17.7098
17.8001
17.8991
18.0074
18.1253
18.2534
18.392
18.5413
18.7014
18.872
19.0526
19.2423
19.4403
38.4273
37.589
36.7752
35.9849
35.2176
34.4726
33.7492
33.0468
32.3649
31.7029
31.0603
30.4366
29.8312
29.2438
28.6739
28.121
27.5847
27.0646
26.5604
26.0716
25.598
25.1393
24.695
24.265
23.8489
23.4465
23.0576
22.6819
22.3193
21.9694
21.6323
21.3078
20.9959
20.6964
20.4095
20.1377
19.8843
19.6495
19.4317
19.2296
19.0419
18.8678
18.7063
18.5564
18.4176
18.289
18.17
18.06
17.9584
17.8647
17.7785
17.6991
17.6263
17.5596
17.4986
17.443
17.3924
17.3466
17.3053
17.2683
17.2352
17.206
17.1804
17.1583
17.1396
17.1242
17.1119
17.1028
17.0968
17.0939
17.0942
17.0976
17.1043
17.1144
17.128
17.1453
17.1664
17.1915
17.221
17.2551
17.2941
17.3383
17.3881
17.4439
17.5061
17.5751
17.6515
17.7357
17.8282
17.9294
18.0399
18.1602
18.2906
18.4314
18.5828
18.7447
18.9168
19.0986
19.289
19.4876
38.4286
37.5903
36.7764
35.9861
35.2188
34.4738
33.7504
33.048
32.3661
31.7041
31.0615
30.4378
29.8324
29.245
28.6751
28.1221
27.5858
27.0658
26.5615
26.0728
25.5992
25.1404
24.6961
24.2661
23.85
23.4476
23.0587
22.683
22.3203
21.9705
21.6334
21.3089
20.9969
20.6975
20.4107
20.1389
19.8855
19.6508
19.433
19.2309
19.0433
18.8692
18.7076
18.5578
18.4189
18.2903
18.1713
18.0613
17.9597
17.866
17.7797
17.7004
17.6276
17.5609
17.4999
17.4444
17.3939
17.3482
17.307
17.27
17.2371
17.208
17.1826
17.1608
17.1423
17.1271
17.1152
17.1064
17.1008
17.0984
17.0992
17.1032
17.1106
17.1214
17.1357
17.1539
17.1759
17.2021
17.2328
17.2681
17.3084
17.3541
17.4055
17.463
17.527
17.5979
17.6763
17.7626
17.8572
17.9607
18.0735
18.1961
18.3287
18.4716
18.625
18.7886
18.9621
19.1447
19.3358
19.5351
38.43
37.5916
36.7776
35.9873
35.22
34.475
33.7516
33.0492
32.3673
31.7053
31.0627
30.439
29.8337
29.2463
28.6763
28.1234
27.5871
27.067
26.5627
26.074
25.6004
25.1416
24.6973
24.2673
23.8512
23.4488
23.0598
22.6841
22.3214
21.9715
21.6344
21.3099
20.998
20.6986
20.4118
20.1401
19.8868
19.6521
19.4344
19.2323
19.0447
18.8706
18.709
18.5592
18.4203
18.2917
18.1727
18.0627
17.9611
17.8674
17.7811
17.7018
17.629
17.5623
17.5014
17.4459
17.3955
17.3499
17.3087
17.2719
17.2391
17.2102
17.185
17.1634
17.1452
17.1303
17.1187
17.1103
17.1052
17.1032
17.1046
17.1092
17.1172
17.1288
17.144
17.163
17.1861
17.2134
17.2452
17.2818
17.3236
17.3707
17.4237
17.4829
17.5488
17.6217
17.7021
17.7905
17.8873
17.993
18.1081
18.2329
18.3676
18.5126
18.6678
18.8329
19.0075
19.1909
19.3825
19.5827
38.4314
37.5929
36.7789
35.9886
35.2213
34.4762
33.7528
33.0505
32.3686
31.7066
31.064
30.4403
29.835
29.2476
28.6776
28.1247
27.5884
27.0683
26.564
26.0753
25.6016
25.1428
24.6986
24.2685
23.8524
23.4499
23.061
22.6852
22.3225
21.9727
21.6355
21.311
20.9991
20.6998
20.4131
20.1414
19.8882
19.6535
19.4358
19.2338
19.0462
18.8721
18.7105
18.5607
18.4218
18.2932
18.1742
18.0642
17.9626
17.8689
17.7826
17.7033
17.6305
17.5639
17.503
17.4476
17.3972
17.3517
17.3107
17.274
17.2414
17.2126
17.1877
17.1662
17.1483
17.1337
17.1225
17.1145
17.1098
17.1084
17.1103
17.1156
17.1243
17.1366
17.1527
17.1727
17.1968
17.2252
17.2583
17.2963
17.3394
17.3882
17.4428
17.5038
17.5715
17.6463
17.7288
17.8193
17.9183
18.0263
18.1436
18.2705
18.4074
18.5543
18.7111
18.8775
19.0531
19.237
19.4289
19.6307
38.4329
37.5943
36.7803
35.99
35.2226
34.4776
33.7542
33.0518
32.37
31.708
31.0654
30.4417
29.8363
29.2489
28.679
28.126
27.5897
27.0696
26.5654
26.0766
25.6029
25.1441
24.6998
24.2698
23.8536
23.4512
23.0622
22.6864
22.3237
21.9738
21.6367
21.3122
21.0003
20.701
20.4143
20.1427
19.8896
19.655
19.4374
19.2353
19.0477
18.8736
18.7121
18.5623
18.4234
18.2948
18.1758
18.0657
17.9642
17.8705
17.7842
17.7049
17.6322
17.5656
17.5048
17.4494
17.3991
17.3536
17.3128
17.2762
17.2438
17.2152
17.1905
17.1693
17.1517
17.1374
17.1266
17.119
17.1148
17.1139
17.1164
17.1223
17.1318
17.145
17.1619
17.1829
17.2081
17.2377
17.2721
17.3114
17.3561
17.4064
17.4628
17.5255
17.5951
17.672
17.7565
17.8491
17.9503
18.0604
18.1799
18.3089
18.4478
18.5964
18.7548
18.9223
19.0986
19.2829
19.4753
19.6789
38.4344
37.5958
36.7817
35.9914
35.224
34.479
33.7556
33.0532
32.3714
31.7094
31.0668
30.4431
29.8378
29.2504
28.6804
28.1274
27.5911
27.071
26.5667
26.078
25.6043
25.1455
24.7012
24.2711
23.8549
23.4525
23.0635
22.6877
22.3249
21.9751
21.6379
21.3135
21.0016
20.7023
20.4157
20.1441
19.8911
19.6565
19.4389
19.2369
19.0494
18.8753
18.7138
18.5639
18.4251
18.2964
18.1774
18.0674
17.9658
17.8722
17.7859
17.7066
17.6339
17.5674
17.5066
17.4513
17.4011
17.3558
17.315
17.2786
17.2463
17.218
17.1935
17.1726
17.1552
17.1414
17.1309
17.1238
17.1201
17.1198
17.1229
17.1296
17.1398
17.1538
17.1717
17.1937
17.2201
17.2509
17.2866
17.3273
17.3735
17.4255
17.4836
17.5481
17.6196
17.6985
17.7851
17.8798
17.9832
18.0954
18.217
18.3481
18.4888
18.6391
18.7987
18.9671
19.1439
19.3285
19.5218
19.7276
38.436
37.5974
36.7832
35.9929
35.2255
34.4804
33.757
33.0547
32.3728
31.7109
31.0683
30.4446
29.8393
29.2518
28.6819
28.1289
27.5926
27.0725
26.5682
26.0794
25.6057
25.1469
24.7026
24.2725
23.8563
23.4538
23.0648
22.689
22.3262
21.9763
21.6392
21.3147
21.0029
20.7036
20.4171
20.1456
19.8926
19.6581
19.4406
19.2386
19.0511
18.877
18.7155
18.5657
18.4268
18.2982
18.1792
18.0692
17.9676
17.8739
17.7877
17.7085
17.6358
17.5693
17.5086
17.4533
17.4032
17.358
17.3174
17.2811
17.2491
17.221
17.1967
17.1761
17.1591
17.1456
17.1356
17.1289
17.1258
17.126
17.1298
17.1372
17.1483
17.1632
17.1821
17.2051
17.2326
17.2647
17.3018
17.344
17.3917
17.4453
17.5052
17.5716
17.645
17.7259
17.8145
17.9114
18.0169
18.1312
18.2548
18.3878
18.5302
18.682
18.8427
19.0118
19.1889
19.3737
19.5684
19.7767
38.4377
37.599
36.7848
35.9944
35.227
34.482
33.7586
33.0563
32.3744
31.7124
31.0699
30.4462
29.8408
29.2534
28.6834
28.1305
27.5941
27.074
26.5697
26.0809
25.6072
25.1484
24.704
24.2739
23.8577
23.4552
23.0661
22.6903
22.3275
21.9777
21.6405
21.3161
21.0042
20.705
20.4185
20.1471
19.8942
19.6598
19.4423
19.2404
19.0529
18.8788
18.7173
18.5675
18.4286
18.3
18.181
18.071
17.9695
17.8758
17.7896
17.7104
17.6378
17.5713
17.5107
17.4555
17.4055
17.3604
17.3199
17.2839
17.252
17.2241
17.2001
17.1798
17.1632
17.1501
17.1405
17.1344
17.1318
17.1327
17.1371
17.1453
17.1572
17.173
17.193
17.2171
17.2458
17.2792
17.3177
17.3614
17.4107
17.466
17.5276
17.5959
17.6713
17.7541
17.8449
17.9438
18.0513
18.1678
18.2933
18.4281
18.572
18.725
18.8866
19.0562
19.2335
19.4188
19.6152
19.8261
38.4394
37.6006
36.7865
35.996
35.2286
34.4836
33.7602
33.0579
32.376
31.7141
31.0715
30.4478
29.8424
29.255
28.685
28.1321
27.5957
27.0756
26.5713
26.0825
25.6088
25.1499
24.7055
24.2754
23.8592
23.4566
23.0676
22.6917
22.3289
21.979
21.6419
21.3174
21.0056
20.7065
20.42
20.1487
19.8958
19.6615
19.4441
19.2422
19.0548
18.8807
18.7192
18.5694
18.4306
18.302
18.183
18.073
17.9714
17.8778
17.7916
17.7125
17.6399
17.5735
17.5129
17.4578
17.4079
17.363
17.3226
17.2868
17.2551
17.2275
17.2037
17.1838
17.1675
17.1548
17.1457
17.1401
17.1381
17.1397
17.1449
17.1538
17.1666
17.1834
17.2044
17.2297
17.2597
17.2944
17.3343
17.3795
17.4305
17.4875
17.5509
17.6211
17.6984
17.7832
17.876
17.977
18.0865
18.2049
18.3323
18.4687
18.6141
18.7681
18.9303
19.1002
19.2775
19.4638
19.6625
19.8758
38.4412
37.6024
36.7882
35.9977
35.2303
34.4852
33.7619
33.0595
32.3777
31.7157
31.0732
30.4495
29.8441
29.2567
28.6867
28.1337
27.5974
27.0772
26.5729
26.0841
25.6104
25.1515
24.7071
24.2769
23.8607
23.4581
23.069
22.6932
22.3304
21.9805
21.6433
21.3189
21.0071
20.7079
20.4215
20.1503
19.8975
19.6633
19.4459
19.2441
19.0567
18.8827
18.7212
18.5714
18.4326
18.304
18.185
18.075
17.9735
17.8799
17.7937
17.7146
17.6421
17.5757
17.5152
17.4603
17.4105
17.3657
17.3255
17.2898
17.2584
17.231
17.2076
17.188
17.1721
17.1599
17.1512
17.1462
17.1448
17.1471
17.153
17.1628
17.1766
17.1944
17.2164
17.2429
17.2741
17.3103
17.3516
17.3984
17.451
17.5097
17.575
17.647
17.7263
17.8131
17.9079
18.0109
18.1224
18.2426
18.3717
18.5096
18.6561
18.811
18.9736
19.1436
19.3211
19.5088
19.7099
19.9256
38.443
37.6042
36.7899
35.9995
35.2321
34.487
33.7636
33.0613
32.3794
31.7175
31.0749
30.4512
29.8459
29.2584
28.6884
28.1355
27.5991
27.0789
26.5746
26.0858
25.612
25.1531
24.7087
24.2785
23.8622
23.4597
23.0705
22.6947
22.3318
21.9819
21.6448
21.3204
21.0086
20.7095
20.4231
20.1519
19.8993
19.6651
19.4478
19.2461
19.0587
18.8847
18.7233
18.5735
18.4347
18.3061
18.1871
18.0772
17.9756
17.8821
17.796
17.7169
17.6444
17.5781
17.5177
17.4629
17.4132
17.3685
17.3286
17.2931
17.2619
17.2348
17.2117
17.1924
17.177
17.1652
17.1571
17.1527
17.1519
17.1549
17.1617
17.1723
17.187
17.2058
17.229
17.2568
17.2893
17.3268
17.3696
17.418
17.4723
17.5328
17.5998
17.6737
17.7549
17.8437
17.9405
18.0454
18.1588
18.2808
18.4114
18.5506
18.6981
18.8536
19.0164
19.1863
19.3645
19.5541
19.7575
19.9755
38.4449
37.6061
36.7918
36.0013
35.2339
34.4888
33.7654
33.0631
32.3813
31.7193
31.0768
30.453
29.8477
29.2603
28.6903
28.1373
27.6009
27.0807
26.5764
26.0875
25.6137
25.1548
24.7104
24.2801
23.8639
23.4613
23.0721
22.6962
22.3334
21.9835
21.6463
21.3219
21.0101
20.7111
20.4248
20.1536
19.9011
19.667
19.4498
19.2481
19.0608
18.8868
18.7254
18.5757
18.4369
18.3083
18.1893
18.0794
17.9779
17.8844
17.7983
17.7193
17.6468
17.5807
17.5203
17.4656
17.4161
17.3716
17.3318
17.2965
17.2656
17.2388
17.216
17.1972
17.1821
17.1708
17.1633
17.1595
17.1594
17.1631
17.1707
17.1823
17.1979
17.2179
17.2422
17.2712
17.305
17.344
17.3883
17.4383
17.4943
17.5565
17.6254
17.7012
17.7843
17.875
17.9737
18.0805
18.1956
18.3193
18.4513
18.5916
18.7399
18.8957
19.0585
19.2285
19.4078
19.5995
19.8051
20.0252
38.4469
37.608
36.7937
36.0032
35.2358
34.4907
33.7673
33.065
32.3831
31.7212
31.0786
30.4549
29.8496
29.2621
28.6921
28.1391
27.6027
27.0825
26.5782
26.0893
25.6155
25.1566
24.7121
24.2818
23.8655
23.4629
23.0737
22.6978
22.335
21.985
21.6479
21.3235
21.0117
20.7127
20.4264
20.1554
19.9029
19.669
19.4518
19.2502
19.0629
18.889
18.7276
18.5779
18.4391
18.3106
18.1916
18.0817
17.9803
17.8868
17.8007
17.7218
17.6494
17.5833
17.5231
17.4685
17.4191
17.3748
17.3352
17.3001
17.2695
17.243
17.2206
17.2021
17.1876
17.1768
17.1698
17.1666
17.1673
17.1718
17.1802
17.1927
17.2094
17.2304
17.256
17.2862
17.3215
17.3619
17.4077
17.4593
17.517
17.581
17.6517
17.7294
17.8144
17.907
18.0075
18.1161
18.2329
18.358
18.4913
18.6325
18.7813
18.9372
19.0999
19.2702
19.4511
19.645
19.8526
20.0747
38.4489
37.61
36.7957
36.0052
35.2377
34.4927
33.7693
33.0669
32.3851
31.7232
31.0806
30.4569
29.8515
29.2641
28.6941
28.1411
27.6046
27.0844
26.58
26.0911
25.6173
25.1584
24.7139
24.2836
23.8672
23.4646
23.0754
22.6994
22.3366
21.9866
21.6495
21.3251
21.0134
20.7144
20.4282
20.1572
19.9048
19.671
19.4539
19.2524
19.0652
18.8913
18.7299
18.5802
18.4415
18.313
18.194
18.0841
17.9827
17.8893
17.8033
17.7244
17.6521
17.5861
17.526
17.4715
17.4223
17.3781
17.3387
17.304
17.2736
17.2474
17.2254
17.2074
17.1933
17.1831
17.1767
17.1742
17.1755
17.1809
17.1902
17.2037
17.2214
17.2436
17.2703
17.3019
17.3385
17.3804
17.4278
17.4811
17.5404
17.6062
17.6787
17.7582
17.845
17.9395
18.0417
18.152
18.2704
18.3968
18.5311
18.673
18.8221
18.9779
19.1404
19.3116
19.4945
19.6903
19.8999
20.1238
38.4511
37.6121
36.7978
36.0073
35.2398
34.4947
33.7713
33.069
32.3871
31.7252
31.0826
30.4589
29.8536
29.2661
28.6961
28.143
27.6066
27.0864
26.582
26.093
25.6192
25.1602
24.7157
24.2854
23.869
23.4663
23.0771
22.7011
22.3382
21.9883
21.6511
21.3267
21.0151
20.7161
20.4299
20.159
19.9067
19.673
19.4561
19.2546
19.0675
18.8937
18.7323
18.5827
18.4439
18.3154
18.1965
18.0867
17.9853
17.8919
17.8059
17.7271
17.6549
17.589
17.529
17.4746
17.4256
17.3816
17.3425
17.308
17.2779
17.2521
17.2305
17.2129
17.1993
17.1896
17.1839
17.1821
17.1842
17.1904
17.2006
17.2151
17.2339
17.2573
17.2853
17.3182
17.3562
17.3996
17.4486
17.5034
17.5645
17.632
17.7063
17.7876
17.8762
17.9724
18.0764
18.1882
18.308
18.4355
18.5707
18.713
18.8621
19.0178
19.1804
19.3529
19.5377
19.7354
19.9468
20.1724
38.4532
37.6143
36.7999
36.0094
35.2419
34.4968
33.7734
33.0711
32.3892
31.7273
31.0847
30.461
29.8556
29.2682
28.6981
28.1451
27.6086
27.0884
26.584
26.095
25.6212
25.1621
24.7176
24.2872
23.8708
23.4681
23.0788
22.7028
22.3399
21.99
21.6528
21.3285
21.0168
20.7179
20.4317
20.1609
19.9087
19.6751
19.4583
19.2569
19.0698
18.8961
18.7348
18.5851
18.4464
18.318
18.1991
18.0893
17.9879
17.8946
17.8087
17.7299
17.6578
17.592
17.5322
17.4779
17.4291
17.3853
17.3464
17.3122
17.2825
17.257
17.2358
17.2187
17.2056
17.1966
17.1915
17.1904
17.1933
17.2003
17.2115
17.227
17.247
17.2715
17.3008
17.335
17.3745
17.4194
17.4699
17.5264
17.5892
17.6584
17.7344
17.8175
17.9079
18.0058
18.1113
18.2246
18.3456
18.4741
18.6098
18.7523
18.9013
19.0566
19.22
19.3942
19.5807
19.7802
19.9932
20.2204
39.3197
38.4554
37.6165
36.8021
36.0116
35.2441
34.499
33.7756
33.0732
32.3914
31.7294
31.0869
30.4631
29.8578
29.2703
28.7002
28.1472
27.6107
27.0905
26.586
26.097
25.6231
25.1641
24.7195
24.2891
23.8727
23.4699
23.0806
22.7046
22.3417
21.9917
21.6546
21.3302
21.0186
20.7197
20.4336
20.1628
19.9107
19.6772
19.4605
19.2592
19.0722
18.8985
18.7373
18.5877
18.449
18.3206
18.2018
18.092
17.9907
17.8974
17.8116
17.7329
17.6609
17.5952
17.5355
17.4814
17.4327
17.3892
17.3506
17.3166
17.2872
17.2622
17.2414
17.2248
17.2123
17.2038
17.1994
17.1991
17.2028
17.2108
17.2229
17.2395
17.2606
17.2863
17.3169
17.3525
17.3934
17.4398
17.4919
17.55
17.6144
17.6854
17.7631
17.8479
17.9399
18.0394
18.1464
18.261
18.383
18.5122
18.6483
18.7909
18.9396
19.0948
19.2592
19.4352
19.6234
19.8244
20.0389
20.2675
39.3219
38.4577
37.6188
36.8044
36.0138
35.2463
34.5012
33.7778
33.0755
32.3936
31.7317
31.0891
30.4654
29.86
29.2725
28.7024
28.1493
27.6129
27.0926
26.5881
26.0991
25.6252
25.166
24.7214
24.291
23.8745
23.4717
23.0824
22.7064
22.3434
21.9935
21.6563
21.332
21.0204
20.7215
20.4355
20.1647
19.9127
19.6794
19.4628
19.2616
19.0747
18.9011
18.7399
18.5904
18.4517
18.3233
18.2046
18.0948
17.9936
17.9003
17.8146
17.736
17.6641
17.5985
17.5389
17.485
17.4366
17.3933
17.3549
17.3213
17.2922
17.2676
17.2473
17.2312
17.2192
17.2114
17.2077
17.2082
17.2128
17.2216
17.2348
17.2524
17.2747
17.3016
17.3335
17.3705
17.4129
17.4608
17.5145
17.5742
17.6402
17.7128
17.7922
17.8786
17.9723
18.0732
18.1816
18.2973
18.4201
18.5499
18.6861
18.8283
18.9766
19.1324
19.2982
19.4758
19.6655
19.8679
20.0837
20.3135
39.3243
38.46
37.6211
36.8067
36.0161
35.2486
34.5035
33.7801
33.0777
32.3959
31.7339
31.0914
30.4676
29.8622
29.2747
28.7046
28.1516
27.615
27.0947
26.5902
26.1012
25.6272
25.1681
24.7234
24.293
23.8765
23.4736
23.0843
22.7082
22.3453
21.9953
21.6581
21.3338
21.0222
20.7234
20.4374
20.1667
19.9148
19.6815
19.4651
19.2641
19.0773
18.9037
18.7426
18.5931
18.4545
18.3262
18.2074
18.0977
17.9965
17.9033
17.8177
17.7392
17.6674
17.6019
17.5425
17.4888
17.4406
17.3975
17.3594
17.3261
17.2975
17.2733
17.2534
17.2379
17.2265
17.2194
17.2164
17.2176
17.2231
17.2329
17.2471
17.2659
17.2893
17.3175
17.3507
17.3891
17.4329
17.4823
17.5375
17.5988
17.6665
17.7407
17.8217
17.9097
18.0048
18.1071
18.2166
18.3333
18.4568
18.5868
18.7229
18.8648
19.0129
19.1694
19.3368
19.5158
19.7068
19.9104
20.1271
39.3268
38.4624
37.6235
36.8091
36.0185
35.251
34.5059
33.7824
33.0801
32.3982
31.7363
31.0937
30.4699
29.8645
29.277
28.7069
28.1538
27.6173
27.0969
26.5924
26.1033
25.6293
25.1701
24.7254
24.295
23.8784
23.4755
23.0862
22.7101
22.3471
21.9971
21.66