/*--------------------------------*- C++ -*----------------------------------*\
  =========                 |
  \\      /  F ield         | OpenFOAM: The Open Source CFD Toolbox
   \\    /   O peration     | Website:  https://openfoam.org
    \\  /    A nd           | Version:  10
     \\/     M anipulation  |
\*---------------------------------------------------------------------------*/
FoamFile
{
    format      ascii;
    class       volScalarField;
    location    "40000";
    object      k;
}
// * * * * * * * * * * * * * * * * * * * * * * * * * * * * * * * * * * * * * //

dimensions      [0 2 -2 0 0 0 0];

internalField   nonuniform List<scalar> 
17808
(
0.0940394
0.10682
0.0989106
0.0960811
0.0949072
0.0943297
0.0940164
0.0938341
0.093721
0.0936455
0.0935907
0.0935468
0.0935079
0.0934708
0.0934332
0.0933939
0.093352
0.093307
0.0932587
0.0932068
0.0931515
0.0930925
0.0930301
0.0929641
0.0928948
0.0928223
0.0927465
0.0926677
0.0925859
0.0925013
0.092414
0.0923241
0.0922317
0.092137
0.09204
0.0919409
0.0918398
0.0917368
0.091632
0.0915256
0.0914176
0.0913082
0.0911974
0.0910854
0.0909723
0.0908581
0.0907431
0.0906273
0.0905107
0.0903936
0.0902759
0.0901579
0.0900396
0.0899211
0.0898024
0.0896838
0.0895653
0.0894471
0.0893291
0.0892115
0.0890944
0.0889779
0.0888621
0.0887471
0.088633
0.0885199
0.0884079
0.088297
0.0881875
0.0880793
0.0879726
0.0878676
0.0877641
0.0876625
0.0875628
0.087465
0.0873693
0.0872758
0.0871846
0.0870958
0.0870095
0.0869259
0.0868449
0.0867668
0.0866916
0.0866195
0.0865506
0.0864849
0.0864227
0.086364
0.086309
0.0862577
0.0939896
0.106811
0.0989181
0.0961251
0.0949599
0.0943836
0.0940686
0.0938833
0.0937668
0.093688
0.0936299
0.0935829
0.0935413
0.0935016
0.0934616
0.0934201
0.0933763
0.0933295
0.0932795
0.0932262
0.0931695
0.0931093
0.0930456
0.0929786
0.0929084
0.0928349
0.0927583
0.0926787
0.0925962
0.0925109
0.092423
0.0923325
0.0922396
0.0921444
0.0920469
0.0919474
0.0918459
0.0917426
0.0916374
0.0915307
0.0914224
0.0913127
0.0912017
0.0910894
0.0909761
0.0908618
0.0907465
0.0906305
0.0905138
0.0903965
0.0902787
0.0901606
0.0900421
0.0899235
0.0898048
0.0896861
0.0895675
0.0894492
0.0893311
0.0892135
0.0890963
0.0889798
0.088864
0.0887489
0.0886348
0.0885216
0.0884096
0.0882987
0.0881892
0.088081
0.0879743
0.0878692
0.0877658
0.0876641
0.0875644
0.0874666
0.0873709
0.0872775
0.0871863
0.0870975
0.0870112
0.0869275
0.0868466
0.0867685
0.0866933
0.0866212
0.0865523
0.0864867
0.0864244
0.0863658
0.0863107
0.0862594
0.0939925
0.106776
0.0988927
0.0961273
0.0949705
0.0944002
0.0940886
0.0939052
0.0937898
0.0937116
0.0936537
0.0936066
0.0935646
0.0935243
0.0934836
0.0934413
0.0933965
0.0933489
0.093298
0.0932437
0.093186
0.0931249
0.0930604
0.0929926
0.0929215
0.0928473
0.09277
0.0926897
0.0926065
0.0925207
0.0924322
0.0923412
0.0922477
0.092152
0.0920542
0.0919542
0.0918523
0.0917486
0.0916431
0.0915361
0.0914275
0.0913175
0.0912062
0.0910937
0.0909801
0.0908656
0.0907502
0.090634
0.0905171
0.0903996
0.0902817
0.0901634
0.0900448
0.0899261
0.0898073
0.0896885
0.0895698
0.0894514
0.0893333
0.0892155
0.0890983
0.0889817
0.0888659
0.0887508
0.0886366
0.0885234
0.0884113
0.0883005
0.0881909
0.0880827
0.087976
0.0878708
0.0877674
0.0876658
0.087566
0.0874682
0.0873725
0.0872791
0.0871879
0.0870991
0.0870128
0.0869291
0.0868482
0.0867701
0.0866949
0.0866228
0.0865539
0.0864883
0.0864261
0.0863674
0.0863124
0.0862611
0.094001
0.106749
0.0988755
0.0961243
0.0949745
0.0944094
0.0941001
0.0939181
0.0938038
0.0937263
0.0936691
0.0936224
0.0935808
0.0935407
0.0935
0.0934576
0.0934127
0.0933646
0.0933134
0.0932586
0.0932005
0.0931388
0.0930738
0.0930054
0.0929338
0.0928589
0.0927811
0.0927003
0.0926166
0.0925302
0.0924412
0.0923497
0.0922559
0.0921597
0.0920614
0.0919611
0.0918589
0.0917548
0.091649
0.0915416
0.0914327
0.0913224
0.0912109
0.0910982
0.0909844
0.0908696
0.090754
0.0906376
0.0905205
0.0904029
0.0902848
0.0901664
0.0900477
0.0899288
0.0898099
0.089691
0.0895722
0.0894537
0.0893355
0.0892177
0.0891004
0.0889838
0.0888678
0.0887527
0.0886385
0.0885253
0.0884131
0.0883022
0.0881926
0.0880844
0.0879777
0.0878725
0.0877691
0.0876674
0.0875676
0.0874699
0.0873742
0.0872807
0.0871895
0.0871007
0.0870144
0.0869307
0.0868498
0.0867717
0.0866966
0.0866245
0.0865556
0.08649
0.0864278
0.0863691
0.0863141
0.0862628
0.0940134
0.106727
0.098861
0.0961175
0.0949762
0.0944161
0.0941091
0.0939282
0.0938145
0.0937376
0.0936808
0.0936345
0.0935932
0.0935533
0.0935129
0.0934706
0.0934256
0.0933776
0.0933262
0.0932713
0.0932129
0.0931509
0.0930856
0.0930168
0.0929448
0.0928696
0.0927914
0.0927101
0.0926261
0.0925393
0.0924499
0.0923581
0.0922638
0.0921673
0.0920687
0.091968
0.0918654
0.091761
0.0916549
0.0915472
0.0914381
0.0913275
0.0912157
0.0911028
0.0909888
0.0908738
0.0907579
0.0906414
0.0905241
0.0904063
0.0902881
0.0901695
0.0900507
0.0899317
0.0898126
0.0896936
0.0895748
0.0894561
0.0893378
0.08922
0.0891026
0.0889859
0.0888699
0.0887547
0.0886404
0.0885272
0.088415
0.0883041
0.0881944
0.0880861
0.0879794
0.0878742
0.0877708
0.0876691
0.0875693
0.0874715
0.0873758
0.0872823
0.0871911
0.0871023
0.087016
0.0869324
0.0868514
0.0867733
0.0866982
0.0866261
0.0865572
0.0864916
0.0864294
0.0863708
0.0863157
0.0862645
0.094032
0.106709
0.0988458
0.0961068
0.094974
0.0944184
0.0941138
0.0939344
0.0938216
0.0937453
0.093689
0.0936432
0.0936023
0.0935628
0.0935227
0.0934807
0.0934359
0.093388
0.0933366
0.0932818
0.0932233
0.0931613
0.0930958
0.0930269
0.0929546
0.0928792
0.0928007
0.0927192
0.0926349
0.0925478
0.0924581
0.092366
0.0922714
0.0921746
0.0920757
0.0919747
0.0918718
0.0917672
0.0916608
0.0915529
0.0914434
0.0913327
0.0912206
0.0911075
0.0909932
0.090878
0.090762
0.0906453
0.0905278
0.0904099
0.0902915
0.0901728
0.0900538
0.0899347
0.0898155
0.0896964
0.0895774
0.0894587
0.0893403
0.0892223
0.0891049
0.0889881
0.088872
0.0887568
0.0886425
0.0885291
0.0884169
0.0883059
0.0881962
0.088088
0.0879812
0.087876
0.0877725
0.0876708
0.087571
0.0874732
0.0873775
0.087284
0.0871927
0.0871039
0.0870177
0.086934
0.0868531
0.086775
0.0866998
0.0866278
0.0865589
0.0864933
0.0864311
0.0863724
0.0863174
0.0862661
0.094054
0.106694
0.0988312
0.096095
0.0949694
0.0944176
0.0941155
0.0939375
0.0938256
0.0937499
0.0936942
0.093649
0.0936086
0.0935696
0.0935299
0.0934883
0.0934438
0.0933962
0.093345
0.0932903
0.0932319
0.0931699
0.0931044
0.0930355
0.0929632
0.0928877
0.092809
0.0927274
0.0926428
0.0925556
0.0924657
0.0923733
0.0922785
0.0921815
0.0920823
0.0919812
0.091878
0.0917731
0.0916666
0.0915584
0.0914488
0.0913378
0.0912255
0.0911121
0.0909977
0.0908823
0.0907661
0.0906492
0.0905316
0.0904135
0.090295
0.0901761
0.090057
0.0899377
0.0898185
0.0896992
0.0895801
0.0894613
0.0893428
0.0892248
0.0891073
0.0889904
0.0888743
0.0887589
0.0886446
0.0885312
0.0884189
0.0883079
0.0881981
0.0880898
0.087983
0.0878778
0.0877743
0.0876725
0.0875727
0.0874749
0.0873792
0.0872856
0.0871944
0.0871056
0.0870193
0.0869356
0.0868547
0.0867766
0.0867015
0.0866294
0.0865605
0.0864949
0.0864327
0.0863741
0.0863191
0.0862678
0.0940767
0.106682
0.0988178
0.0960838
0.0949639
0.0944155
0.0941157
0.0939391
0.093828
0.0937529
0.0936977
0.0936529
0.093613
0.0935745
0.0935352
0.0934939
0.0934499
0.0934025
0.0933516
0.0932971
0.0932389
0.0931771
0.0931117
0.0930428
0.0929705
0.092895
0.0928163
0.0927346
0.09265
0.0925626
0.0924726
0.0923801
0.0922851
0.092188
0.0920886
0.0919872
0.091884
0.0917789
0.0916721
0.0915638
0.0914539
0.0913428
0.0912303
0.0911168
0.0910022
0.0908866
0.0907703
0.0906532
0.0905355
0.0904172
0.0902985
0.0901795
0.0900603
0.0899409
0.0898215
0.0897021
0.0895829
0.089464
0.0893454
0.0892273
0.0891097
0.0889928
0.0888765
0.0887612
0.0886467
0.0885333
0.088421
0.0883099
0.0882001
0.0880917
0.0879849
0.0878796
0.0877761
0.0876743
0.0875745
0.0874766
0.0873809
0.0872873
0.0871961
0.0871073
0.087021
0.0869373
0.0868564
0.0867783
0.0867031
0.0866311
0.0865622
0.0864966
0.0864344
0.0863757
0.0863207
0.0862695
0.094099
0.106672
0.0988057
0.0960735
0.0949578
0.0944125
0.094115
0.0939397
0.0938294
0.0937549
0.0937001
0.0936557
0.0936162
0.093578
0.0935391
0.0934982
0.0934545
0.0934075
0.0933569
0.0933027
0.0932447
0.093183
0.0931178
0.093049
0.0929768
0.0929013
0.0928226
0.0927409
0.0926563
0.0925689
0.0924788
0.0923862
0.0922912
0.0921939
0.0920944
0.0919929
0.0918895
0.0917843
0.0916774
0.0915689
0.0914589
0.0913476
0.091235
0.0911213
0.0910066
0.0908909
0.0907744
0.0906571
0.0905393
0.0904209
0.0903021
0.0901829
0.0900636
0.0899441
0.0898245
0.0897051
0.0895858
0.0894668
0.0893481
0.0892299
0.0891122
0.0889952
0.0888789
0.0887634
0.0886489
0.0885354
0.0884231
0.0883119
0.0882021
0.0880937
0.0879868
0.0878815
0.0877779
0.0876761
0.0875763
0.0874784
0.0873826
0.0872891
0.0871978
0.087109
0.0870227
0.086939
0.086858
0.0867799
0.0867048
0.0866327
0.0865638
0.0864982
0.086436
0.0863774
0.0863224
0.0862711
0.0941206
0.106664
0.098795
0.0960641
0.0949514
0.0944088
0.0941134
0.0939394
0.0938299
0.0937559
0.0937016
0.0936575
0.0936184
0.0935806
0.093542
0.0935015
0.0934581
0.0934114
0.0933611
0.0933071
0.0932493
0.0931879
0.0931228
0.0930542
0.0929821
0.0929067
0.0928281
0.0927464
0.0926618
0.0925744
0.0924843
0.0923917
0.0922967
0.0921993
0.0920998
0.0919982
0.0918947
0.0917894
0.0916824
0.0915737
0.0914637
0.0913522
0.0912395
0.0911257
0.0910108
0.090895
0.0907784
0.090661
0.090543
0.0904245
0.0903056
0.0901863
0.0900669
0.0899473
0.0898276
0.0897081
0.0895887
0.0894696
0.0893508
0.0892325
0.0891147
0.0889976
0.0888813
0.0887658
0.0886512
0.0885376
0.0884252
0.088314
0.0882041
0.0880957
0.0879887
0.0878834
0.0877798
0.087678
0.0875781
0.0874802
0.0873844
0.0872908
0.0871995
0.0871107
0.0870244
0.0869407
0.0868597
0.0867816
0.0867065
0.0866344
0.0865655
0.0864999
0.0864377
0.0863791
0.086324
0.0862728
0.094141
0.106658
0.0987857
0.0960556
0.0949451
0.0944047
0.0941111
0.0939385
0.0938298
0.0937563
0.0937023
0.0936587
0.0936198
0.0935823
0.0935441
0.0935039
0.0934608
0.0934144
0.0933644
0.0933106
0.0932531
0.0931919
0.093127
0.0930585
0.0929866
0.0929113
0.0928328
0.0927512
0.0926667
0.0925793
0.0924893
0.0923966
0.0923016
0.0922042
0.0921046
0.092003
0.0918995
0.0917941
0.091687
0.0915783
0.0914681
0.0913566
0.0912438
0.0911299
0.0910149
0.090899
0.0907823
0.0906648
0.0905467
0.0904281
0.0903091
0.0901897
0.0900701
0.0899504
0.0898307
0.0897111
0.0895916
0.0894724
0.0893535
0.0892351
0.0891173
0.0890001
0.0888837
0.0887681
0.0886535
0.0885399
0.0884274
0.0883161
0.0882062
0.0880977
0.0879907
0.0878854
0.0877817
0.0876799
0.0875799
0.087482
0.0873862
0.0872926
0.0872013
0.0871124
0.0870261
0.0869424
0.0868614
0.0867833
0.0867082
0.0866361
0.0865672
0.0865016
0.0864394
0.0863807
0.0863257
0.0862745
0.0941601
0.106653
0.0987778
0.0960481
0.0949389
0.0944004
0.0941084
0.093937
0.0938291
0.0937562
0.0937026
0.0936593
0.0936207
0.0935835
0.0935456
0.0935056
0.0934628
0.0934167
0.0933669
0.0933134
0.0932562
0.0931951
0.0931304
0.0930621
0.0929904
0.0929152
0.0928368
0.0927554
0.0926709
0.0925836
0.0924936
0.092401
0.092306
0.0922086
0.0921091
0.0920074
0.0919038
0.0917984
0.0916913
0.0915826
0.0914723
0.0913608
0.0912479
0.0911339
0.0910188
0.0909029
0.090786
0.0906685
0.0905503
0.0904316
0.0903125
0.090193
0.0900734
0.0899536
0.0898338
0.089714
0.0895945
0.0894752
0.0893563
0.0892378
0.0891199
0.0890027
0.0888862
0.0887705
0.0886558
0.0885421
0.0884296
0.0883183
0.0882083
0.0880998
0.0879928
0.0878873
0.0877837
0.0876818
0.0875818
0.0874839
0.087388
0.0872944
0.0872031
0.0871142
0.0870279
0.0869441
0.0868632
0.086785
0.0867099
0.0866378
0.0865689
0.0865033
0.0864411
0.0863824
0.0863274
0.0862761
0.0941778
0.10665
0.0987713
0.0960416
0.0949331
0.094396
0.0941055
0.0939351
0.093828
0.0937557
0.0937025
0.0936594
0.0936211
0.0935842
0.0935465
0.0935068
0.0934643
0.0934184
0.0933689
0.0933157
0.0932586
0.0931978
0.0931333
0.0930652
0.0929935
0.0929185
0.0928403
0.0927589
0.0926746
0.0925874
0.0924974
0.0924049
0.0923099
0.0922126
0.092113
0.0920114
0.0919078
0.0918024
0.0916953
0.0915865
0.0914763
0.0913646
0.0912517
0.0911377
0.0910226
0.0909065
0.0907896
0.090672
0.0905538
0.090435
0.0903158
0.0901963
0.0900765
0.0899567
0.0898368
0.089717
0.0895974
0.089478
0.089359
0.0892405
0.0891225
0.0890052
0.0888886
0.0887729
0.0886581
0.0885444
0.0884318
0.0883205
0.0882105
0.0881019
0.0879948
0.0878894
0.0877856
0.0876837
0.0875837
0.0874857
0.0873899
0.0872962
0.0872049
0.087116
0.0870296
0.0869459
0.0868649
0.0867868
0.0867116
0.0866395
0.0865706
0.086505
0.0864428
0.0863841
0.0863291
0.0862778
0.0941939
0.106648
0.0987659
0.096036
0.0949277
0.0943917
0.0941023
0.0939329
0.0938266
0.0937548
0.093702
0.0936593
0.0936212
0.0935845
0.0935471
0.0935077
0.0934653
0.0934197
0.0933704
0.0933174
0.0932606
0.0932
0.0931356
0.0930677
0.0929962
0.0929214
0.0928433
0.092762
0.0926778
0.0925906
0.0925008
0.0924083
0.0923134
0.0922161
0.0921166
0.092015
0.0919115
0.091806
0.0916989
0.0915901
0.0914799
0.0913682
0.0912553
0.0911412
0.0910261
0.09091
0.090793
0.0906754
0.0905571
0.0904382
0.090319
0.0901994
0.0900796
0.0899597
0.0898397
0.0897199
0.0896002
0.0894808
0.0893617
0.0892431
0.0891251
0.0890077
0.0888911
0.0887753
0.0886605
0.0885467
0.0884341
0.0883227
0.0882126
0.088104
0.0879969
0.0878914
0.0877876
0.0876857
0.0875856
0.0874876
0.0873917
0.0872981
0.0872067
0.0871178
0.0870314
0.0869477
0.0868667
0.0867885
0.0867133
0.0866412
0.0865723
0.0865067
0.0864445
0.0863858
0.0863308
0.0862795
0.0942087
0.106646
0.0987617
0.0960313
0.0949229
0.0943875
0.094099
0.0939305
0.0938249
0.0937536
0.0937012
0.0936588
0.093621
0.0935845
0.0935474
0.0935081
0.093466
0.0934206
0.0933716
0.0933188
0.0932621
0.0932017
0.0931376
0.0930698
0.0929985
0.0929238
0.0928458
0.0927647
0.0926805
0.0925935
0.0925037
0.0924113
0.0923165
0.0922193
0.0921198
0.0920183
0.0919147
0.0918094
0.0917022
0.0915935
0.0914832
0.0913716
0.0912586
0.0911445
0.0910294
0.0909132
0.0907963
0.0906786
0.0905602
0.0904414
0.0903221
0.0902024
0.0900826
0.0899626
0.0898426
0.0897227
0.0896029
0.0894835
0.0893644
0.0892457
0.0891276
0.0890102
0.0888935
0.0887777
0.0886628
0.088549
0.0884363
0.0883249
0.0882148
0.0881061
0.087999
0.0878934
0.0877896
0.0876877
0.0875876
0.0874896
0.0873936
0.0872999
0.0872086
0.0871196
0.0870332
0.0869495
0.0868685
0.0867903
0.0867151
0.086643
0.0865741
0.0865085
0.0864463
0.0863876
0.0863325
0.0862812
0.0942221
0.106645
0.0987585
0.0960274
0.0949186
0.0943835
0.0940957
0.093928
0.093823
0.0937522
0.0937002
0.0936581
0.0936205
0.0935843
0.0935473
0.0935083
0.0934665
0.0934212
0.0933724
0.0933198
0.0932633
0.0932031
0.0931391
0.0930715
0.0930004
0.0929258
0.0928479
0.0927669
0.0926829
0.092596
0.0925063
0.092414
0.0923192
0.0922221
0.0921227
0.0920212
0.0919177
0.0918124
0.0917053
0.0915965
0.0914863
0.0913746
0.0912617
0.0911476
0.0910324
0.0909163
0.0907993
0.0906816
0.0905632
0.0904443
0.090325
0.0902053
0.0900855
0.0899654
0.0898454
0.0897254
0.0896056
0.0894861
0.089367
0.0892483
0.0891301
0.0890127
0.088896
0.0887801
0.0886652
0.0885513
0.0884386
0.0883271
0.088217
0.0881082
0.0880011
0.0878955
0.0877917
0.0876896
0.0875896
0.0874915
0.0873955
0.0873018
0.0872104
0.0871215
0.0870351
0.0869513
0.0868703
0.0867921
0.0867169
0.0866448
0.0865759
0.0865103
0.0864481
0.0863894
0.0863343
0.086283
0.0942342
0.106645
0.0987562
0.0960243
0.0949149
0.0943799
0.0940925
0.0939254
0.093821
0.0937507
0.093699
0.0936572
0.0936199
0.0935839
0.0935471
0.0935083
0.0934666
0.0934216
0.0933729
0.0933205
0.0932643
0.0932042
0.0931404
0.0930729
0.0930019
0.0929275
0.0928498
0.0927689
0.092685
0.0925982
0.0925086
0.0924164
0.0923217
0.0922246
0.0921253
0.0920238
0.0919204
0.0918151
0.091708
0.0915993
0.0914891
0.0913775
0.0912646
0.0911505
0.0910353
0.0909192
0.0908022
0.0906844
0.0905661
0.0904472
0.0903278
0.0902081
0.0900882
0.0899682
0.0898481
0.0897281
0.0896083
0.0894887
0.0893695
0.0892508
0.0891326
0.0890151
0.0888983
0.0887824
0.0886675
0.0885536
0.0884408
0.0883293
0.0882191
0.0881104
0.0880031
0.0878976
0.0877937
0.0876916
0.0875915
0.0874934
0.0873975
0.0873037
0.0872123
0.0871233
0.0870369
0.0869531
0.0868721
0.0867939
0.0867187
0.0866466
0.0865777
0.0865122
0.0942452
0.106645
0.0987547
0.096022
0.0949118
0.0943766
0.0940895
0.0939227
0.0938188
0.0937489
0.0936976
0.0936561
0.093619
0.0935832
0.0935467
0.0935081
0.0934666
0.0934217
0.0933733
0.093321
0.0932649
0.093205
0.0931414
0.0930741
0.0930032
0.0929289
0.0928513
0.0927706
0.0926868
0.0926
0.0925106
0.0924184
0.0923238
0.0922268
0.0921276
0.0920262
0.0919228
0.0918175
0.0917105
0.0916019
0.0914917
0.0913801
0.0912672
0.0911531
0.091038
0.0909218
0.0908049
0.0906871
0.0905687
0.0904498
0.0903305
0.0902108
0.0900908
0.0899708
0.0898507
0.0897307
0.0896108
0.0894912
0.089372
0.0892532
0.089135
0.0890175
0.0889007
0.0887848
0.0886698
0.0885558
0.088443
0.0883315
0.0882213
0.0881125
0.0880052
0.0878996
0.0877957
0.0876936
0.0875935
0.0874954
0.0873994
0.0873056
0.0872142
0.0871252
0.0870388
0.086955
0.0868739
0.0867958
0.0867206
0.0866485
0.0865796
0.086514
0.0942552
0.106646
0.0987539
0.0960203
0.0949093
0.0943737
0.0940866
0.0939201
0.0938165
0.093747
0.0936961
0.0936548
0.093618
0.0935825
0.0935461
0.0935077
0.0934664
0.0934217
0.0933734
0.0933213
0.0932654
0.0932057
0.0931422
0.093075
0.0930043
0.0929301
0.0928526
0.092772
0.0926883
0.0926017
0.0925123
0.0924203
0.0923257
0.0922288
0.0921296
0.0920283
0.091925
0.0918198
0.0917128
0.0916042
0.091494
0.0913825
0.0912696
0.0911556
0.0910404
0.0909243
0.0908074
0.0906896
0.0905713
0.0904523
0.090333
0.0902133
0.0900933
0.0899733
0.0898532
0.0897331
0.0896132
0.0894936
0.0893744
0.0892556
0.0891374
0.0890198
0.088903
0.088787
0.088672
0.0885581
0.0884452
0.0883336
0.0882234
0.0881146
0.0880073
0.0879017
0.0877977
0.0876956
0.0875955
0.0874973
0.0874013
0.0873075
0.0872161
0.0871271
0.0870406
0.0869568
0.0868758
0.0867976
0.0867225
0.0866504
0.0865815
0.0865159
0.0942643
0.106647
0.0987538
0.0960192
0.0949073
0.0943712
0.0940839
0.0939176
0.0938143
0.0937451
0.0936944
0.0936534
0.0936169
0.0935815
0.0935454
0.0935071
0.093466
0.0934215
0.0933734
0.0933214
0.0932657
0.0932061
0.0931428
0.0930757
0.0930051
0.0929311
0.0928538
0.0927732
0.0926896
0.0926031
0.0925138
0.0924219
0.0923274
0.0922306
0.0921314
0.0920302
0.0919269
0.0918218
0.0917149
0.0916063
0.0914962
0.0913847
0.0912719
0.0911578
0.0910427
0.0909266
0.0908097
0.090692
0.0905736
0.0904547
0.0903353
0.0902156
0.0900957
0.0899756
0.0898555
0.0897355
0.0896156
0.089496
0.0893767
0.0892579
0.0891397
0.0890221
0.0889052
0.0887893
0.0886742
0.0885602
0.0884474
0.0883358
0.0882255
0.0881167
0.0880094
0.0879037
0.0877997
0.0876976
0.0875974
0.0874993
0.0874033
0.0873095
0.087218
0.087129
0.0870425
0.0869587
0.0868777
0.0867996
0.0867245
0.0942726
0.106649
0.0987542
0.0960187
0.0949058
0.094369
0.0940815
0.0939152
0.0938121
0.0937431
0.0936927
0.093652
0.0936156
0.0935805
0.0935445
0.0935064
0.0934655
0.0934211
0.0933732
0.0933214
0.0932658
0.0932064
0.0931432
0.0930763
0.0930058
0.0929319
0.0928547
0.0927742
0.0926908
0.0926043
0.0925151
0.0924233
0.0923289
0.0922321
0.0921331
0.0920319
0.0919287
0.0918236
0.0917168
0.0916082
0.0914982
0.0913867
0.0912739
0.0911599
0.0910448
0.0909288
0.0908119
0.0906942
0.0905758
0.0904569
0.0903376
0.0902179
0.090098
0.0899779
0.0898578
0.0897377
0.0896178
0.0894982
0.0893789
0.0892601
0.0891419
0.0890243
0.0889074
0.0887914
0.0886764
0.0885624
0.0884495
0.0883379
0.0882276
0.0881187
0.0880114
0.0879057
0.0878017
0.0876996
0.0875994
0.0875012
0.0874052
0.0873114
0.0872199
0.0871309
0.0870444
0.0869606
0.0868796
0.0868015
0.0867264
0.0942803
0.10665
0.098755
0.0960187
0.0949048
0.0943673
0.0940794
0.093913
0.0938099
0.0937411
0.0936909
0.0936504
0.0936143
0.0935793
0.0935435
0.0935056
0.0934648
0.0934207
0.0933729
0.0933212
0.0932658
0.0932065
0.0931434
0.0930767
0.0930063
0.0929326
0.0928554
0.0927751
0.0926917
0.0926054
0.0925163
0.0924245
0.0923302
0.0922335
0.0921346
0.0920334
0.0919303
0.0918253
0.0917185
0.09161
0.0915
0.0913886
0.0912758
0.0911618
0.0910468
0.0909308
0.0908139
0.0906962
0.0905779
0.090459
0.0903397
0.09022
0.0901001
0.08998
0.0898599
0.0897399
0.08962
0.0895004
0.0893811
0.0892623
0.089144
0.0890264
0.0889095
0.0887935
0.0886785
0.0885644
0.0884516
0.0883399
0.0882296
0.0881207
0.0880134
0.0879077
0.0878037
0.0877016
0.0876014
0.0875032
0.0874071
0.0873133
0.0872218
0.0871328
0.0870463
0.0869626
0.0868816
0.0868035
0.0867284
0.0942873
0.106652
0.0987562
0.0960191
0.0949043
0.0943661
0.0940776
0.0939109
0.0938078
0.0937391
0.0936891
0.0936487
0.0936128
0.093578
0.0935424
0.0935047
0.0934641
0.0934201
0.0933724
0.093321
0.0932656
0.0932065
0.0931436
0.0930769
0.0930067
0.0929331
0.092856
0.0927758
0.0926925
0.0926063
0.0925173
0.0924256
0.0923314
0.0922348
0.0921359
0.0920348
0.0919317
0.0918268
0.09172
0.0916116
0.0915016
0.0913902
0.0912775
0.0911636
0.0910486
0.0909326
0.0908158
0.0906981
0.0905798
0.090461
0.0903417
0.090222
0.0901021
0.089982
0.089862
0.0897419
0.089622
0.0895024
0.0893831
0.0892643
0.0891461
0.0890284
0.0889116
0.0887956
0.0886805
0.0885665
0.0884536
0.0883419
0.0882316
0.0881227
0.0880154
0.0879097
0.0878057
0.0877035
0.0876033
0.0875051
0.087409
0.0873152
0.0872237
0.0871347
0.0870483
0.0869645
0.0868835
0.0868054
0.0867303
0.0942938
0.106654
0.0987576
0.0960199
0.0949042
0.0943652
0.0940761
0.0939091
0.0938059
0.0937372
0.0936872
0.0936471
0.0936113
0.0935767
0.0935412
0.0935037
0.0934632
0.0934194
0.0933719
0.0933205
0.0932654
0.0932064
0.0931436
0.0930771
0.093007
0.0929334
0.0928565
0.0927764
0.0926932
0.0926071
0.0925182
0.0924266
0.0923324
0.0922359
0.092137
0.092036
0.091933
0.0918281
0.0917214
0.0916131
0.0915032
0.0913918
0.0912791
0.0911653
0.0910503
0.0909343
0.0908175
0.0906999
0.0905816
0.0904628
0.0903435
0.0902239
0.090104
0.089984
0.0898639
0.0897439
0.089624
0.0895044
0.0893851
0.0892663
0.089148
0.0890304
0.0889136
0.0887975
0.0886825
0.0885684
0.0884555
0.0883439
0.0882336
0.0881247
0.0880173
0.0879116
0.0878076
0.0877054
0.0876052
0.087507
0.0874109
0.0873171
0.0872257
0.0871366
0.0870502
0.0869664
0.0868854
0.0868073
0.0867322
0.0942999
0.106656
0.0987594
0.0960211
0.0949046
0.0943646
0.094075
0.0939075
0.0938041
0.0937353
0.0936854
0.0936454
0.0936097
0.0935753
0.09354
0.0935026
0.0934623
0.0934186
0.0933712
0.09332
0.093265
0.0932061
0.0931435
0.0930771
0.0930071
0.0929337
0.0928569
0.0927769
0.0926938
0.0926077
0.0925189
0.0924274
0.0923333
0.0922368
0.0921381
0.0920372
0.0919342
0.0918293
0.0917227
0.0916144
0.0915045
0.0913932
0.0912806
0.0911668
0.0910519
0.0909359
0.0908191
0.0907016
0.0905833
0.0904645
0.0903453
0.0902257
0.0901058
0.0899858
0.0898657
0.0897457
0.0896258
0.0895062
0.089387
0.0892682
0.0891499
0.0890323
0.0889155
0.0887995
0.0886844
0.0885703
0.0884575
0.0883458
0.0882355
0.0881266
0.0880192
0.0879135
0.0878095
0.0877073
0.0876071
0.0875089
0.0874128
0.087319
0.0872276
0.0871386
0.0870521
0.0869684
0.0868874
0.0868092
0.0867341
0.0943056
0.106658
0.0987613
0.0960226
0.0949052
0.0943645
0.0940741
0.0939062
0.0938025
0.0937336
0.0936837
0.0936437
0.0936081
0.0935738
0.0935387
0.0935014
0.0934612
0.0934177
0.0933705
0.0933194
0.0932645
0.0932058
0.0931432
0.093077
0.0930071
0.0929338
0.0928571
0.0927772
0.0926942
0.0926083
0.0925195
0.0924281
0.0923341
0.0922377
0.092139
0.0920381
0.0919353
0.0918305
0.0917239
0.0916156
0.0915058
0.0913945
0.091282
0.0911682
0.0910533
0.0909374
0.0908207
0.0907031
0.0905849
0.0904661
0.0903469
0.0902273
0.0901075
0.0899875
0.0898674
0.0897474
0.0896276
0.089508
0.0893888
0.08927
0.0891517
0.0890342
0.0889173
0.0888013
0.0886862
0.0885722
0.0884593
0.0883477
0.0882373
0.0881285
0.0880211
0.0879154
0.0878114
0.0877092
0.087609
0.0875108
0.0874147
0.0873209
0.0872295
0.0871405
0.087054
0.0869703
0.0868893
0.0868111
0.0867359
0.0943109
0.106659
0.0987633
0.0960243
0.0949062
0.0943647
0.0940736
0.0939051
0.093801
0.093732
0.093682
0.093642
0.0936065
0.0935723
0.0935373
0.0935002
0.0934601
0.0934167
0.0933697
0.0933188
0.093264
0.0932054
0.0931429
0.0930768
0.0930071
0.0929339
0.0928573
0.0927775
0.0926946
0.0926087
0.09252
0.0924287
0.0923348
0.0922384
0.0921398
0.092039
0.0919362
0.0918315
0.0917249
0.0916167
0.091507
0.0913958
0.0912832
0.0911695
0.0910546
0.0909388
0.0908221
0.0907046
0.0905864
0.0904676
0.0903484
0.0902289
0.0901091
0.0899891
0.0898691
0.0897491
0.0896293
0.0895097
0.0893905
0.0892717
0.0891535
0.0890359
0.0889191
0.0888031
0.088688
0.088574
0.0884611
0.0883495
0.0882392
0.0881303
0.0880229
0.0879172
0.0878132
0.087711
0.0876108
0.0875126
0.0874166
0.0873228
0.0872314
0.0871424
0.0870559
0.0869722
0.0868912
0.086813
0.0867378
0.094316
0.106661
0.0987655
0.0960262
0.0949075
0.0943651
0.0940733
0.0939043
0.0937998
0.0937305
0.0936804
0.0936403
0.0936049
0.0935708
0.0935359
0.0934989
0.093459
0.0934157
0.0933687
0.093318
0.0932633
0.0932049
0.0931426
0.0930765
0.0930069
0.0929338
0.0928573
0.0927776
0.0926948
0.092609
0.0925205
0.0924292
0.0923353
0.0922391
0.0921405
0.0920398
0.091937
0.0918324
0.0917259
0.0916177
0.091508
0.0913969
0.0912844
0.0911707
0.0910559
0.0909401
0.0908234
0.0907059
0.0905878
0.0904691
0.0903499
0.0902304
0.0901106
0.0899906
0.0898706
0.0897507
0.0896309
0.0895113
0.0893921
0.0892734
0.0891552
0.0890376
0.0889208
0.0888048
0.0886897
0.0885757
0.0884629
0.0883512
0.0882409
0.088132
0.0880247
0.087919
0.087815
0.0877129
0.0876126
0.0875145
0.0874184
0.0873247
0.0872332
0.0871443
0.0870578
0.0869741
0.0868931
0.0868149
0.0867396
0.0943209
0.106663
0.0987677
0.0960282
0.094909
0.0943659
0.0940734
0.0939038
0.0937988
0.0937292
0.0936789
0.0936388
0.0936033
0.0935693
0.0935344
0.0934975
0.0934578
0.0934146
0.0933678
0.0933171
0.0932626
0.0932043
0.0931421
0.0930762
0.0930067
0.0929337
0.0928573
0.0927777
0.092695
0.0926093
0.0925208
0.0924296
0.0923358
0.0922396
0.0921412
0.0920405
0.0919378
0.0918332
0.0917267
0.0916186
0.091509
0.0913979
0.0912854
0.0911718
0.091057
0.0909413
0.0908246
0.0907072
0.0905891
0.0904704
0.0903512
0.0902317
0.090112
0.0899921
0.0898721
0.0897522
0.0896324
0.0895129
0.0893937
0.089275
0.0891568
0.0890392
0.0889224
0.0888064
0.0886914
0.0885774
0.0884646
0.0883529
0.0882426
0.0881338
0.0880264
0.0879207
0.0878168
0.0877146
0.0876144
0.0875163
0.0874203
0.0873265
0.0872351
0.0871461
0.0870597
0.086976
0.0868949
0.0868168
0.0867415
0.0943255
0.106665
0.0987699
0.0960304
0.0949107
0.094367
0.0940737
0.0939035
0.093798
0.093728
0.0936775
0.0936373
0.0936018
0.0935677
0.093533
0.0934962
0.0934565
0.0934134
0.0933667
0.0933162
0.0932618
0.0932036
0.0931415
0.0930758
0.0930064
0.0929335
0.0928572
0.0927777
0.0926951
0.0926095
0.092521
0.0924299
0.0923362
0.0922401
0.0921417
0.0920411
0.0919385
0.0918339
0.0917275
0.0916195
0.0915099
0.0913988
0.0912864
0.0911728
0.0910581
0.0909424
0.0908257
0.0907083
0.0905903
0.0904716
0.0903525
0.0902331
0.0901133
0.0899934
0.0898735
0.0897536
0.0896339
0.0895143
0.0893952
0.0892765
0.0891583
0.0890408
0.088924
0.088808
0.088693
0.088579
0.0884662
0.0883546
0.0882443
0.0881355
0.0880281
0.0879225
0.0878185
0.0877164
0.0876162
0.0875181
0.0874221
0.0873283
0.0872369
0.087148
0.0870616
0.0869778
0.0868968
0.0868186
0.0867433
0.09433
0.106667
0.0987721
0.0960327
0.0949126
0.0943682
0.0940743
0.0939034
0.0937975
0.0937271
0.0936763
0.0936359
0.0936003
0.0935663
0.0935315
0.0934948
0.0934552
0.0934122
0.0933656
0.0933152
0.093261
0.0932029
0.0931409
0.0930752
0.093006
0.0929332
0.092857
0.0927776
0.0926951
0.0926095
0.0925212
0.0924302
0.0923366
0.0922405
0.0921422
0.0920416
0.0919391
0.0918345
0.0917282
0.0916202
0.0915107
0.0913997
0.0912873
0.0911737
0.0910591
0.0909434
0.0908268
0.0907094
0.0905914
0.0904728
0.0903537
0.0902343
0.0901146
0.0899947
0.0898748
0.089755
0.0896352
0.0895157
0.0893966
0.0892779
0.0891598
0.0890423
0.0889255
0.0888096
0.0886946
0.0885806
0.0884678
0.0883562
0.0882459
0.0881371
0.0880298
0.0879241
0.0878202
0.0877181
0.0876179
0.0875198
0.0874238
0.0873301
0.0872387
0.0871498
0.0870634
0.0869797
0.0868986
0.0868204
0.0867451
0.0943343
0.106668
0.0987743
0.096035
0.0949146
0.0943697
0.0940751
0.0939036
0.0937971
0.0937263
0.0936752
0.0936346
0.0935989
0.0935648
0.0935301
0.0934934
0.0934538
0.093411
0.0933645
0.0933142
0.0932601
0.093202
0.0931402
0.0930747
0.0930055
0.0929328
0.0928567
0.0927774
0.092695
0.0926096
0.0925213
0.0924303
0.0923368
0.0922408
0.0921426
0.0920421
0.0919396
0.0918351
0.0917289
0.0916209
0.0915114
0.0914004
0.0912881
0.0911746
0.09106
0.0909443
0.0908278
0.0907105
0.0905925
0.0904739
0.0903549
0.0902355
0.0901158
0.089996
0.0898761
0.0897562
0.0896365
0.0895171
0.089398
0.0892793
0.0891612
0.0890437
0.0889269
0.088811
0.0886961
0.0885821
0.0884693
0.0883578
0.0882475
0.0881387
0.0880314
0.0879258
0.0878219
0.0877198
0.0876196
0.0875215
0.0874256
0.0873319
0.0872405
0.0871516
0.0870652
0.0869815
0.0869004
0.0868222
0.0867469
0.0943385
0.10667
0.0987764
0.0960374
0.0949168
0.0943713
0.0940762
0.093904
0.093797
0.0937258
0.0936743
0.0936335
0.0935976
0.0935634
0.0935287
0.093492
0.0934525
0.0934097
0.0933633
0.0933131
0.0932591
0.0932012
0.0931395
0.093074
0.0930049
0.0929324
0.0928564
0.0927772
0.0926948
0.0926095
0.0925213
0.0924304
0.092337
0.0922411
0.0921429
0.0920425
0.09194
0.0918356
0.0917294
0.0916215
0.0915121
0.0914012
0.0912889
0.0911754
0.0910608
0.0909452
0.0908287
0.0907114
0.0905935
0.0904749
0.0903559
0.0902366
0.0901169
0.0899971
0.0898773
0.0897575
0.0896378
0.0895184
0.0893993
0.0892806
0.0891625
0.0890451
0.0889283
0.0888125
0.0886975
0.0885836
0.0884708
0.0883593
0.088249
0.0881403
0.088033
0.0879274
0.0878235
0.0877214
0.0876213
0.0875233
0.0874273
0.0873336
0.0872423
0.0871534
0.087067
0.0869833
0.0869022
0.086824
0.0867487
0.0943426
0.106671
0.0987785
0.0960397
0.094919
0.0943731
0.0940774
0.0939047
0.0937971
0.0937254
0.0936736
0.0936324
0.0935964
0.0935621
0.0935273
0.0934906
0.0934512
0.0934084
0.0933621
0.093312
0.0932581
0.0932003
0.0931386
0.0930733
0.0930043
0.0929319
0.092856
0.0927769
0.0926946
0.0926094
0.0925213
0.0924305
0.0923371
0.0922413
0.0921431
0.0920428
0.0919404
0.0918361
0.0917299
0.0916221