/*--------------------------------*- C++ -*----------------------------------*\
  =========                 |
  \\      /  F ield         | OpenFOAM: The Open Source CFD Toolbox
   \\    /   O peration     | Website:  https://openfoam.org
    \\  /    A nd           | Version:  10
     \\/     M anipulation  |
\*---------------------------------------------------------------------------*/
FoamFile
{
    format      ascii;
    class       volScalarField;
    location    "40000";
    object      p;
}
// * * * * * * * * * * * * * * * * * * * * * * * * * * * * * * * * * * * * * //

dimensions      [0 2 -2 0 0 0 0];

internalField   nonuniform List<scalar> 
17808
(
11.4468
11.4768
11.4942
11.5022
11.5075
11.5096
11.5095
11.5076
11.5043
11.4999
11.4944
11.4881
11.481
11.4732
11.4648
11.4557
11.4462
11.436
11.4254
11.4143
11.4026
11.3905
11.378
11.3649
11.3514
11.3374
11.323
11.3081
11.2927
11.2769
11.2606
11.2438
11.2265
11.2088
11.1906
11.1719
11.1527
11.133
11.1128
11.0921
11.0709
11.0491
11.0268
11.004
10.9806
10.9567
10.9322
10.9071
10.8814
10.8552
10.8283
10.8009
10.7728
10.7441
10.7148
10.6848
10.6541
10.6228
10.5908
10.5581
10.5248
10.4907
10.4558
10.4203
10.384
10.3469
10.3091
10.2704
10.231
10.1908
10.1497
10.1078
10.065
10.0214
9.97692
9.93153
9.88523
9.83801
9.78986
9.74075
9.69067
9.63962
9.58757
9.5345
9.48041
9.42527
9.36908
9.31181
9.25344
9.19397
9.13337
9.07163
11.5265
11.5309
11.5253
11.5218
11.5199
11.5172
11.5139
11.5099
11.5053
11.4999
11.4938
11.4871
11.4797
11.4717
11.4632
11.4541
11.4445
11.4344
11.4237
11.4126
11.401
11.3889
11.3764
11.3634
11.3499
11.336
11.3216
11.3067
11.2914
11.2756
11.2593
11.2426
11.2254
11.2077
11.1896
11.1709
11.1517
11.1321
11.1119
11.0912
11.07
11.0483
11.0261
11.0033
10.9799
10.956
10.9315
10.9065
10.8809
10.8546
10.8278
10.8004
10.7723
10.7437
10.7143
10.6844
10.6537
10.6224
10.5905
10.5578
10.5244
10.4903
10.4555
10.42
10.3837
10.3466
10.3088
10.2702
10.2308
10.1905
10.1495
10.1076
10.0648
10.0212
9.97674
9.93135
9.88506
9.83785
9.7897
9.74059
9.69053
9.63947
9.58743
9.53437
9.48028
9.42515
9.36895
9.31168
9.25332
9.19385
9.13326
9.07152
11.5641
11.5616
11.5525
11.5465
11.5402
11.5335
11.5268
11.52
11.513
11.5057
11.4981
11.4902
11.4819
11.4732
11.4641
11.4546
11.4446
11.4342
11.4234
11.4121
11.4004
11.3882
11.3756
11.3626
11.3491
11.3351
11.3207
11.3058
11.2905
11.2747
11.2585
11.2418
11.2246
11.2069
11.1888
11.1701
11.151
11.1314
11.1112
11.0906
11.0694
11.0477
11.0254
11.0027
10.9793
10.9555
10.931
10.906
10.8804
10.8542
10.8274
10.7999
10.7719
10.7433
10.7139
10.684
10.6534
10.6221
10.5901
10.5575
10.5241
10.4901
10.4553
10.4197
10.3834
10.3464
10.3086
10.2699
10.2305
10.1903
10.1493
10.1074
10.0646
10.021
9.97654
9.93116
9.88488
9.83767
9.78952
9.74042
9.69035
9.6393
9.58726
9.5342
9.48011
9.42498
9.36879
9.31152
9.25316
9.19369
9.1331
9.07136
11.5656
11.5629
11.5566
11.5521
11.5461
11.5396
11.5328
11.5256
11.5181
11.5102
11.5021
11.4936
11.4847
11.4755
11.466
11.456
11.4457
11.435
11.424
11.4125
11.4006
11.3883
11.3755
11.3624
11.3488
11.3347
11.3203
11.3054
11.29
11.2742
11.258
11.2412
11.224
11.2064
11.1882
11.1696
11.1504
11.1308
11.1107
11.09
11.0689
11.0472
11.0249
11.0022
10.9789
10.955
10.9305
10.9055
10.8799
10.8537
10.827
10.7996
10.7715
10.7429
10.7136
10.6837
10.6531
10.6218
10.5898
10.5572
10.5238
10.4898
10.455
10.4195
10.3832
10.3461
10.3083
10.2697
10.2303
10.1901
10.149
10.1072
10.0644
10.0208
9.97635
9.93097
9.88469
9.83748
9.78933
9.74024
9.69017
9.63913
9.58708
9.53403
9.47994
9.42481
9.36862
9.31135
9.25299
9.19352
9.13293
9.07119
11.5669
11.5637
11.5581
11.5536
11.5477
11.5415
11.5349
11.5278
11.5203
11.5124
11.5042
11.4955
11.4865
11.4772
11.4674
11.4573
11.4468
11.4359
11.4247
11.413
11.401
11.3885
11.3757
11.3624
11.3487
11.3346
11.3201
11.3051
11.2897
11.2739
11.2576
11.2408
11.2236
11.2059
11.1877
11.1691
11.15
11.1303
11.1102
11.0895
11.0684
11.0467
11.0245
11.0017
10.9784
10.9546
10.9301
10.9051
10.8795
10.8534
10.8266
10.7992
10.7712
10.7425
10.7133
10.6833
10.6527
10.6215
10.5895
10.5569
10.5236
10.4895
10.4547
10.4192
10.3829
10.3459
10.3081
10.2695
10.2301
10.1899
10.1488
10.107
10.0642
10.0206
9.97616
9.93079
9.88451
9.8373
9.78916
9.74007
9.69
9.63896
9.58692
9.53386
9.47978
9.42465
9.36846
9.31119
9.25283
9.19336
9.13277
9.07103
11.5718
11.5681
11.5626
11.5576
11.5514
11.5449
11.5379
11.5306
11.5229
11.5148
11.5063
11.4975
11.4883
11.4788
11.4688
11.4586
11.4479
11.4369
11.4255
11.4137
11.4015
11.3889
11.376
11.3626
11.3489
11.3347
11.3201
11.305
11.2896
11.2737
11.2574
11.2406
11.2233
11.2056
11.1874
11.1687
11.1496
11.13
11.1098
11.0892
11.068
11.0463
11.0241
11.0013
10.978
10.9542
10.9297
10.9047
10.8792
10.853
10.8262
10.7988
10.7708
10.7422
10.7129
10.683
10.6524
10.6212
10.5893
10.5566
10.5233
10.4892
10.4545
10.419
10.3827
10.3457
10.3079
10.2693
10.2299
10.1897
10.1486
10.1068
10.064
10.0205
9.97598
9.93061
9.88434
9.83713
9.789
9.7399
9.68985
9.6388
9.58676
9.53371
9.47963
9.4245
9.36831
9.31104
9.25269
9.19322
9.13262
9.07088
11.5758
11.5717
11.5665
11.5612
11.5548
11.5482
11.5411
11.5335
11.5256
11.5173
11.5086
11.4996
11.4902
11.4805
11.4704
11.4599
11.4491
11.438
11.4264
11.4145
11.4022
11.3896
11.3765
11.363
11.3492
11.3349
11.3202
11.3051
11.2896
11.2737
11.2573
11.2404
11.2232
11.2054
11.1872
11.1685
11.1493
11.1297
11.1095
11.0889
11.0677
11.046
11.0238
11.001
10.9777
10.9538
10.9294
10.9044
10.8789
10.8527
10.8259
10.7985
10.7705
10.7419
10.7127
10.6827
10.6522
10.6209
10.589
10.5564
10.523
10.489
10.4542
10.4187
10.3825
10.3454
10.3077
10.2691
10.2297
10.1895
10.1485
10.1066
10.0639
10.0203
9.97581
9.93044
9.88417
9.83697
9.78884
9.73975
9.68969
9.63865
9.58661
9.53356
9.47948
9.42435
9.36817
9.3109
9.25254
9.19307
9.13248
9.07074
11.5781
11.5739
11.5688
11.5634
11.5571
11.5504
11.5432
11.5356
11.5276
11.5192
11.5105
11.5013
11.4919
11.482
11.4718
11.4613
11.4503
11.4391
11.4274
11.4154
11.403
11.3902
11.3771
11.3635
11.3496
11.3353
11.3205
11.3054
11.2898
11.2738
11.2573
11.2405
11.2231
11.2053
11.1871
11.1684
11.1492
11.1295
11.1093
11.0886
11.0675
11.0458
11.0235
11.0007
10.9774
10.9536
10.9291
10.9042
10.8786
10.8524
10.8256
10.7983
10.7703
10.7417
10.7124
10.6825
10.6519
10.6207
10.5888
10.5561
10.5228
10.4888
10.454
10.4185
10.3823
10.3452
10.3075
10.2689
10.2295
10.1893
10.1483
10.1064
10.0637
10.0201
9.97564
9.93028
9.88401
9.83682
9.78868
9.7396
9.68954
9.6385
9.58647
9.53342
9.47934
9.42421
9.36803
9.31076
9.25241
9.19294
9.13235
9.07061
11.5799
11.5755
11.5706
11.5651
11.5588
11.5521
11.5449
11.5372
11.5292
11.5208
11.5119
11.5028
11.4932
11.4833
11.473
11.4624
11.4514
11.44
11.4283
11.4162
11.4038
11.3909
11.3777
11.3641
11.3501
11.3357
11.3209
11.3057
11.29
11.274
11.2575
11.2406
11.2232
11.2054
11.1871
11.1683
11.1491
11.1294
11.1092
11.0885
11.0673
11.0456
11.0233
11.0005
10.9772
10.9534
10.9289
10.9039
10.8783
10.8522
10.8254
10.798
10.77
10.7414
10.7122
10.6823
10.6517
10.6204
10.5885
10.5559
10.5226
10.4886
10.4538
10.4183
10.3821
10.3451
10.3073
10.2687
10.2293
10.1891
10.1481
10.1062
10.0635
10.0199
9.97548
9.93013
9.88386
9.83667
9.78854
9.73945
9.6894
9.63837
9.58633
9.53328
9.47921
9.42408
9.3679
9.31064
9.25228
9.19281
9.13222
9.07048
11.5816
11.577
11.5722
11.5666
11.5603
11.5536
11.5463
11.5387
11.5306
11.5221
11.5133
11.504
11.4944
11.4845
11.4741
11.4634
11.4524
11.441
11.4292
11.417
11.4045
11.3916
11.3783
11.3646
11.3506
11.3361
11.3213
11.306
11.2903
11.2742
11.2577
11.2407
11.2233
11.2054
11.1871
11.1684
11.1491
11.1294
11.1091
11.0884
11.0672
11.0455
11.0232
11.0004
10.9771
10.9532
10.9287
10.9037
10.8782
10.852
10.8252
10.7978
10.7698
10.7412
10.712
10.682
10.6515
10.6202
10.5883
10.5557
10.5224
10.4884
10.4536
10.4181
10.3819
10.3449
10.3071
10.2685
10.2291
10.189
10.1479
10.1061
10.0634
10.0198
9.97533
9.92998
9.88371
9.83653
9.7884
9.73932
9.68927
9.63823
9.5862
9.53316
9.47908
9.42396
9.36777
9.31051
9.25216
9.19269
9.1321
9.07036
11.583
11.5783
11.5736
11.5679
11.5616
11.5549
11.5476
11.5399
11.5318
11.5233
11.5144
11.5051
11.4955
11.4855
11.4751
11.4644
11.4533
11.4418
11.43
11.4178
11.4052
11.3923
11.3789
11.3652
11.3511
11.3366
11.3217
11.3064
11.2907
11.2745
11.2579
11.2409
11.2235
11.2056
11.1872
11.1684
11.1491
11.1294
11.1091
11.0884
11.0672
11.0454
11.0231
11.0003
10.977
10.9531
10.9286
10.9036
10.878
10.8518
10.825
10.7977
10.7697
10.741
10.7118
10.6819
10.6513
10.6201
10.5881
10.5555
10.5222
10.4882
10.4534
10.418
10.3817
10.3447
10.3069
10.2684
10.229
10.1888
10.1478
10.1059
10.0632
10.0196
9.97519
9.92984
9.88358
9.83639
9.78827
9.73919
9.68914
9.63811
9.58608
9.53303
9.47896
9.42384
9.36766
9.3104
9.25204
9.19258
9.13198
9.07025
11.5841
11.5794
11.5748
11.569
11.5628
11.556
11.5487
11.541
11.5329
11.5243
11.5154
11.5061
11.4965
11.4864
11.476
11.4652
11.4541
11.4426
11.4307
11.4185
11.4059
11.3929
11.3795
11.3658
11.3516
11.3371
11.3221
11.3068
11.291
11.2748
11.2582
11.2412
11.2237
11.2058
11.1874
11.1686
11.1492
11.1295
11.1092
11.0884
11.0672
11.0454
11.0231
11.0003
10.9769
10.953
10.9285
10.9035
10.8779
10.8517
10.8249
10.7975
10.7695
10.7409
10.7116
10.6817
10.6512
10.6199
10.588
10.5554
10.5221
10.488
10.4533
10.4178
10.3816
10.3446
10.3068
10.2682
10.2288
10.1887
10.1476
10.1058
10.0631
10.0195
9.97506
9.92971
9.88345
9.83627
9.78814
9.73907
9.68902
9.63799
9.58596
9.53292
9.47885
9.42373
9.36755
9.31029
9.25193
9.19247
9.13188
9.07014
11.5851
11.5804
11.5757
11.57
11.5637
11.5569
11.5496
11.5419
11.5338
11.5252
11.5163
11.507
11.4973
11.4872
11.4768
11.466
11.4548
11.4433
11.4314
11.4191
11.4065
11.3935
11.3801
11.3663
11.3521
11.3375
11.3225
11.3072
11.2914
11.2752
11.2585
11.2414
11.2239
11.206
11.1876
11.1687
11.1494
11.1296
11.1093
11.0885
11.0672
11.0454
11.0231
11.0003
10.9769
10.953
10.9285
10.9034
10.8778
10.8516
10.8248
10.7974
10.7694
10.7408
10.7115
10.6816
10.651
10.6198
10.5879
10.5553
10.5219
10.4879
10.4532
10.4177
10.3814
10.3444
10.3066
10.2681
10.2287
10.1885
10.1475
10.1057
10.063
10.0194
9.97494
9.92959
9.88333
9.83615
9.78803
9.73895
9.68891
9.63788
9.58586
9.53281
9.47874
9.42363
9.36745
9.31019
9.25184
9.19237
9.13178
9.07004
11.586
11.5812
11.5766
11.5708
11.5645
11.5577
11.5504
11.5427
11.5346
11.526
11.5171
11.5077
11.498
11.488
11.4775
11.4667
11.4555
11.444
11.432
11.4197
11.4071
11.394
11.3806
11.3668
11.3526
11.338
11.323
11.3076
11.2917
11.2755
11.2588
11.2417
11.2242
11.2062
11.1878
11.1689
11.1495
11.1297
11.1094
11.0886
11.0673
11.0455
11.0231
11.0003
10.9769
10.9529
10.9285
10.9034
10.8778
10.8516
10.8248
10.7974
10.7693
10.7407
10.7114
10.6815
10.6509
10.6197
10.5878
10.5551
10.5218
10.4878
10.453
10.4175
10.3813
10.3443
10.3065
10.268
10.2286
10.1884
10.1474
10.1056
10.0628
10.0193
9.97483
9.92948
9.88323
9.83604
9.78792
9.73885
9.68881
9.63778
9.58576
9.53272
9.47865
9.42353
9.36735
9.3101
9.25174
9.19228
9.13169
9.06995
11.5868
11.5819
11.5773
11.5716
11.5653
11.5585
11.5512
11.5434
11.5353
11.5267
11.5178
11.5084
11.4987
11.4886
11.4781
11.4673
11.4561
11.4445
11.4326
11.4203
11.4076
11.3945
11.3811
11.3672
11.353
11.3384
11.3234
11.3079
11.2921
11.2758
11.2591
11.242
11.2245
11.2065
11.188
11.1691
11.1497
11.1299
11.1095
11.0887
11.0674
11.0456
11.0232
11.0003
10.9769
10.953
10.9285
10.9034
10.8778
10.8515
10.8247
10.7973
10.7693
10.7406
10.7114
10.6814
10.6508
10.6196
10.5877
10.5551
10.5217
10.4877
10.4529
10.4174
10.3812
10.3442
10.3064
10.2679
10.2285
10.1883
10.1473
10.1054
10.0627
10.0192
9.97473
9.92938
9.88313
9.83595
9.78783
9.73876
9.68872
9.63769
9.58567
9.53263
9.47856
9.42344
9.36727
9.31001
9.25166
9.1922
9.1316
9.06987
11.5874
11.5826
11.578
11.5722
11.5659
11.5591
11.5518
11.5441
11.5359
11.5273
11.5184
11.509
11.4993
11.4892
11.4787
11.4679
11.4567
11.4451
11.4331
11.4208
11.4081
11.395
11.3815
11.3677
11.3534
11.3388
11.3238
11.3083
11.2924
11.2762
11.2595
11.2423
11.2247
11.2067
11.1882
11.1693
11.1499
11.1301
11.1097
11.0889
11.0675
11.0457
11.0233
11.0004
10.977
10.953
10.9285
10.9034
10.8778
10.8516
10.8247
10.7973
10.7693
10.7406
10.7113
10.6814
10.6508
10.6195
10.5876
10.555
10.5217
10.4876
10.4529
10.4174
10.3811
10.3441
10.3063
10.2678
10.2284
10.1882
10.1472
10.1054
10.0627
10.0191
9.97464
9.92929
9.88304
9.83586
9.78774
9.73867
9.68863
9.63761
9.58558
9.53254
9.47848
9.42336
9.36719
9.30993
9.25158
9.19212
9.13152
9.06979
11.588
11.5832
11.5786
11.5728
11.5665
11.5597
11.5524
11.5447
11.5365
11.5279
11.5189
11.5096
11.4998
11.4897
11.4792
11.4684
11.4572
11.4456
11.4336
11.4213
11.4086
11.3955
11.382
11.3681
11.3538
11.3392
11.3241
11.3087
11.2928
11.2765
11.2598
11.2426
11.225
11.207
11.1885
11.1695
11.1501
11.1302
11.1099
11.089
11.0677
11.0458
11.0234
11.0005
10.9771
10.9531
10.9286
10.9035
10.8778
10.8516
10.8247
10.7973
10.7693
10.7406
10.7113
10.6814
10.6508
10.6195
10.5876
10.5549
10.5216
10.4876
10.4528
10.4173
10.3811
10.344
10.3063
10.2677
10.2283
10.1881
10.1471
10.1053
10.0626
10.019
9.97456
9.92922
9.88296
9.83578
9.78767
9.73859
9.68856
9.63753
9.58551
9.53247
9.4784
9.42329
9.36711
9.30986
11.5886
11.5837
11.5791
11.5733
11.5671
11.5602
11.5529
11.5452
11.537
11.5284
11.5194
11.5101
11.5003
11.4902
11.4797
11.4689
11.4576
11.446
11.4341
11.4217
11.409
11.3959
11.3824
11.3685
11.3542
11.3396
11.3245
11.309
11.2931
11.2768
11.2601
11.2429
11.2253
11.2072
11.1887
11.1698
11.1503
11.1304
11.1101
11.0892
11.0678
11.0459
11.0235
11.0006
10.9772
10.9532
10.9287
10.9036
10.8779
10.8516
10.8248
10.7973
10.7693
10.7406
10.7113
10.6814
10.6508
10.6195
10.5875
10.5549
10.5216
10.4875
10.4528
10.4173
10.381
10.344
10.3062
10.2676
10.2283
10.1881
10.1471
10.1052
10.0625
10.0189
9.9745
9.92915
9.8829
9.83572
9.7876
9.73853
9.68849
9.63747
9.58544
9.53241
9.47834
9.42323
9.36705
9.30979
11.5891
11.5842
11.5796
11.5738
11.5675
11.5607
11.5534
11.5456
11.5375
11.5289
11.5199
11.5105
11.5008
11.4907
11.4802
11.4693
11.4581
11.4465
11.4345
11.4221
11.4094
11.3963
11.3828
11.3689
11.3546
11.3399
11.3248
11.3093
11.2934
11.2771
11.2603
11.2432
11.2255
11.2075
11.189
11.17
11.1506
11.1306
11.1103
11.0894
11.068
11.0461
11.0237
11.0008
10.9773
10.9533
10.9288
10.9036
10.878
10.8517
10.8248
10.7974
10.7693
10.7406
10.7113
10.6814
10.6508
10.6195
10.5875
10.5549
10.5216
10.4875
10.4527
10.4172
10.381
10.344
10.3062
10.2676
10.2282
10.188
10.147
10.1052
10.0625
10.0189
9.97444
9.9291
9.88284
9.83566
9.78754
9.73847
9.68843
9.63741
9.58539
9.53235
9.47828
9.42317
9.36699
9.30973
11.5895
11.5846
11.5801
11.5743
11.568
11.5612
11.5538
11.5461
11.5379
11.5293
11.5203
11.511
11.5012
11.4911
11.4806
11.4697
11.4585
11.4468
11.4349
11.4225
11.4097
11.3966
11.3831
11.3692
11.3549
11.3402
11.3251
11.3096
11.2937
11.2774
11.2606
11.2434
11.2258
11.2077
11.1892
11.1702
11.1508
11.1309
11.1104
11.0896
11.0682
11.0463
11.0238
11.0009
10.9774
10.9534
10.9289
10.9037
10.878
10.8518
10.8249
10.7975
10.7694
10.7407
10.7114
10.6814
10.6508
10.6195
10.5875
10.5549
10.5216
10.4875
10.4527
10.4172
10.381
10.3439
10.3061
10.2676
10.2282
10.188
10.147
10.1051
10.0624
10.0189
9.9744
9.92905
9.8828
9.83562
9.7875
9.73843
9.68839
9.63736
9.58534
9.5323
9.47823
11.5899
11.585
11.5805
11.5747
11.5684
11.5616
11.5542
11.5465
11.5383
11.5297
11.5207
11.5113
11.5016
11.4915
11.481
11.4701
11.4588
11.4472
11.4352
11.4228
11.4101
11.397
11.3834
11.3695
11.3552
11.3405
11.3254
11.3099
11.294
11.2777
11.2609
11.2437
11.2261
11.208
11.1894
11.1705
11.151
11.1311
11.1106
11.0897
11.0683
11.0464
11.024
11.0011
10.9776
10.9536
10.929
10.9039
10.8782
10.8519
10.825
10.7975
10.7695
10.7408
10.7114
10.6815
10.6508
10.6195
10.5876
10.5549
10.5216
10.4875
10.4527
10.4172
10.381
10.3439
10.3061
10.2676
10.2282
10.188
10.147
10.1051
10.0624
10.0188
9.97437
9.92902
9.88276
9.83558
9.78746
9.73839
9.68835
9.63732
9.5853
9.53226
9.47819
11.5903
11.5854
11.5808
11.575
11.5688
11.5619
11.5546
11.5468
11.5387
11.5301
11.5211
11.5117
11.5019
11.4918
11.4813
11.4704
11.4592
11.4475
11.4355
11.4232
11.4104
11.3973
11.3838
11.3698
11.3555
11.3408
11.3257
11.3102
11.2943
11.2779
11.2612
11.244
11.2263
11.2082
11.1897
11.1707
11.1512
11.1313
11.1108
11.0899
11.0685
11.0466
11.0242
11.0012
10.9777
10.9537
10.9291
10.904
10.8783
10.852
10.8251
10.7976
10.7695
10.7408
10.7115
10.6815
10.6509
10.6196
10.5876
10.555
10.5216
10.4875
10.4528
10.4172
10.381
10.3439
10.3061
10.2676
10.2282
10.188
10.147
10.1051
10.0624
10.0188
9.97435
9.929
9.88274
9.83556
9.78744
9.73837
9.68832
9.6373
9.58527
9.53223
9.47816
11.5907
11.5858
11.5812
11.5754
11.5691
11.5623
11.555
11.5472
11.539
11.5304
11.5214
11.512
11.5023
11.4921
11.4816
11.4708
11.4595
11.4479
11.4359
11.4235
11.4107
11.3976
11.3841
11.3701
11.3558
11.3411
11.326
11.3105
11.2946
11.2782
11.2614
11.2442
11.2266
11.2085
11.1899
11.1709
11.1514
11.1315
11.111
11.0901
11.0687
11.0468
11.0243
11.0014
10.9779
10.9538
10.9293
10.9041
10.8784
10.8521
10.8252
10.7977
10.7696
10.7409
10.7116
10.6816
10.651
10.6197
10.5877
10.555
10.5217
10.4876
10.4528
10.4173
10.381
10.344
10.3062
10.2676
10.2282
10.188
10.147
10.1051
10.0624
10.0188
9.97435
9.929
9.88273
9.83555
9.78743
9.73835
9.68831
9.63728
9.58525
9.53221
9.47814
11.591
11.5861
11.5815
11.5757
11.5694
11.5626
11.5553
11.5475
11.5393
11.5307
11.5217
11.5124
11.5026
11.4925
11.4819
11.4711
11.4598
11.4482
11.4362
11.4238
11.411
11.3979
11.3843
11.3704
11.3561
11.3414
11.3263
11.3108
11.2948
11.2785
11.2617
11.2445
11.2268
11.2087
11.1901
11.1711
11.1516
11.1317
11.1112
11.0903
11.0689
11.047
11.0245
11.0015
10.978
10.954
10.9294
10.9042
10.8785
10.8522
10.8253
10.7978
10.7697
10.741
10.7117
10.6817
10.651
10.6197
10.5877
10.5551
10.5217
10.4876
10.4528
10.4173
10.381
10.344
10.3062
10.2676
10.2282
10.188
10.147
10.1051
10.0624
10.0188
9.97435
9.929
9.88274
9.83555
9.78742
9.73835
9.6883
9.63727
9.58525
9.53221
9.47813
11.5913
11.5864
11.5818
11.576
11.5697
11.5629
11.5556
11.5478
11.5396
11.531
11.522
11.5127
11.5029
11.4928
11.4822
11.4714
11.4601
11.4485
11.4364
11.4241
11.4113
11.3982
11.3846
11.3707
11.3564
11.3417
11.3265
11.311
11.2951
11.2787
11.2619
11.2447
11.227
11.2089
11.1904
11.1713
11.1519
11.1319
11.1114
11.0905
11.0691
11.0471
11.0247
11.0017
10.9782
10.9542
10.9296
10.9044
10.8787
10.8524
10.8255
10.798
10.7699
10.7411
10.7118
10.6818
10.6511
10.6198
10.5878
10.5552
10.5218
10.4877
10.4529
10.4174
10.3811
10.344
10.3062
10.2676
10.2282
10.188
10.147
10.1051
10.0624
10.0188
9.97437
9.92901
9.88275
9.83556
9.78743
9.73835
9.68831
9.63728
9.58525
9.53221
9.47814
11.5916
11.5867
11.5821
11.5763
11.57
11.5632
11.5559
11.5481
11.5399
11.5313
11.5223
11.5129
11.5032
11.493
11.4825
11.4716
11.4604
11.4487
11.4367
11.4243
11.4116
11.3984
11.3849
11.371
11.3566
11.3419
11.3268
11.3113
11.2953
11.2789
11.2621
11.2449
11.2273
11.2091
11.1906
11.1716
11.1521
11.1321
11.1116
11.0907
11.0693
11.0473
11.0249
11.0019
10.9784
10.9543
10.9297
10.9045
10.8788
10.8525
10.8256
10.7981
10.77
10.7412
10.7119
10.6819
10.6512
10.6199
10.5879
10.5552
10.5219
10.4878
10.453
10.4174
10.3811
10.3441
10.3063
10.2677
10.2283
10.1881
10.147
10.1052
10.0625
10.0189
9.9744
9.92904
9.88277
9.83558
9.78745
9.73837
9.68832
9.63729
9.58526
9.53222
9.47815
11.5919
11.587
11.5824
11.5766
11.5703
11.5635
11.5562
11.5484
11.5402
11.5316
11.5226
11.5132
11.5034
11.4933
11.4828
11.4719
11.4606
11.449
11.437
11.4246
11.4118
11.3987
11.3851
11.3712
11.3569
11.3422
11.327
11.3115
11.2955
11.2792
11.2624
11.2451
11.2275
11.2094
11.1908
11.1718
11.1523
11.1323
11.1118
11.0909
11.0695
11.0475
11.025
11.0021
10.9785
10.9545
10.9299
10.9047
10.879
10.8526
10.8257
10.7982
10.7701
10.7414
10.712
10.682
10.6513
10.62
10.588
10.5553
10.522
10.4879
10.4531
10.4175
10.3812
10.3442
10.3063
10.2677
10.2283
10.1881
10.1471
10.1052
10.0625
10.0189
9.97444
9.92908
9.88281
9.83561
9.78748
9.7384
9.68835
9.63732
9.58529
9.53224
9.47817
11.5922
11.5873
11.5827
11.5769
11.5706
11.5637
11.5564
11.5487
11.5405
11.5319
11.5229
11.5135
11.5037
11.4936
11.483
11.4722
11.4609
11.4493
11.4372
11.4248
11.4121
11.3989
11.3854
11.3714
11.3571
11.3424
11.3273
11.3117
11.2958
11.2794
11.2626
11.2454
11.2277
11.2096
11.191
11.172
11.1525
11.1325
11.112
11.0911
11.0696
11.0477
11.0252
11.0022
10.9787
10.9546
10.93
10.9049
10.8791
10.8528
10.8259
10.7984
10.7702
10.7415
10.7121
10.6821
10.6515
10.6201
10.5881
10.5554
10.5221
10.488
10.4531
10.4176
10.3813
10.3442
10.3064
10.2678
10.2284
10.1882
10.1472
10.1053
10.0626
10.019
9.97449
9.92912
9.88285
9.83566
9.78752
9.73844
9.68839
9.63735
9.58532
9.53227
9.4782
11.5924
11.5875
11.5829
11.5771
11.5708
11.564
11.5567
11.5489
11.5407
11.5321
11.5231
11.5137
11.504
11.4938
11.4833
11.4724
11.4611
11.4495
11.4375
11.4251
11.4123
11.3992
11.3856
11.3717
11.3574
11.3426
11.3275
11.312
11.296
11.2796
11.2628
11.2456
11.2279
11.2098
11.1912
11.1722
11.1527
11.1327
11.1122
11.0913
11.0698
11.0479
11.0254
11.0024
10.9789
10.9548
10.9302
10.905
10.8793
10.8529
10.826
10.7985
10.7704
10.7416
10.7123
10.6822
10.6516
10.6202
10.5882
10.5556
10.5222
10.4881
10.4532
10.4177
10.3814
10.3443
10.3065
10.2679
10.2285
10.1883
10.1472
10.1053
10.0626
10.019
9.97455
9.92918
9.8829
9.83571
9.78757
9.73849
9.68843
9.63739
9.58536
9.53231
9.47823
11.5927
11.5878
11.5832
11.5774
11.5711
11.5643
11.5569
11.5492
11.541
11.5324
11.5234
11.514
11.5042
11.4941
11.4835
11.4726
11.4614
11.4497
11.4377
11.4253
11.4125
11.3994
11.3858
11.3719
11.3576
11.3429
11.3277
11.3122
11.2962
11.2798
11.263
11.2458
11.2281
11.21
11.1914
11.1724
11.1529
11.1329
11.1124
11.0915
11.07
11.0481
11.0256
11.0026
10.9791
10.955
10.9304
10.9052
10.8794
10.8531
10.8262
10.7987
10.7705
10.7418
10.7124
10.6824
10.6517
10.6204
10.5884
10.5557
10.5223
10.4882
10.4534
10.4178
10.3815
10.3444
10.3066
10.268
10.2286
10.1884
10.1473
10.1054
10.0627
10.0191
9.97462
9.92925
9.88297
9.83577
9.78763
9.73854
9.68849
9.63745
9.58541
9.53236
9.47828
11.5929
11.588
11.5834
11.5776
11.5713
11.5645
11.5572
11.5494
11.5412
11.5326
11.5236
11.5142
11.5044
11.4943
11.4838
11.4729
11.4616
11.45
11.4379
11.4256
11.4128
11.3996
11.3861
11.3721
11.3578
11.3431
11.3279
11.3124
11.2964
11.2801
11.2632
11.246
11.2283
11.2102
11.1916
11.1726
11.1531
11.1331
11.1126
11.0917
11.0702
11.0482
11.0258
11.0028
10.9792
10.9552
10.9305
10.9054
10.8796
10.8533
10.8263
10.7988
10.7707
10.7419
10.7125
10.6825
10.6518
10.6205
10.5885
10.5558
10.5224
10.4883
10.4535
10.4179
10.3816
10.3445
10.3067
10.2681
10.2287
10.1884
10.1474
10.1055
10.0628
10.0192
9.97469
9.92932
9.88304
9.83584
9.7877
9.73861
9.68855
9.63751
9.58547
9.53242
9.47834
11.5931
11.5883
11.5836
11.5779
11.5716
11.5647
11.5574
11.5496
11.5414
11.5328
11.5238
11.5144
11.5047
11.4945
11.484
11.4731
11.4618
11.4502
11.4382
11.4258
11.413
11.3998
11.3863
11.3724
11.358
11.3433
11.3282
11.3126
11.2966
11.2803
11.2635
11.2462
11.2285
11.2104
11.1918
11.1728
11.1533
11.1333
11.1128
11.0919
11.0704
11.0484
11.026
11.003
10.9794
10.9553
10.9307
10.9055
10.8798
10.8534
10.8265
10.799
10.7708
10.7421
10.7127
10.6827
10.652
10.6206
10.5886
10.5559
10.5225
10.4884
10.4536
10.418
10.3817
10.3447
10.3068
10.2682
10.2288
10.1885
10.1475
10.1056
10.0629
10.0193
9.97478
9.92941
9.88312
9.83592
9.78778
9.73868
9.68862
9.63758
9.58554
9.53248
9.4784
11.5934
11.5885
11.5839
11.5781
11.5718
11.565
11.5576
11.5499
11.5417
11.5331
11.5241
11.5147
11.5049
11.4948
11.4842
11.4733
11.4621
11.4504
11.4384
11.426
11.4132
11.4001
11.3865
11.3726
11.3582
11.3435
11.3284
11.3128
11.2969
11.2805
11.2637
11.2464
11.2287
11.2106
11.192
11.173
11.1535
11.1335
11.113
11.092
11.0706
11.0486
11.0261
11.0031
10.9796
10.9555
10.9309
10.9057
10.8799
10.8536
10.8267
10.7991
10.771
10.7422
10.7128
10.6828
10.6521
10.6208
10.5888
10.5561
10.5227
10.4886
10.4537
10.4182
10.3818
10.3448
10.3069
10.2683
10.2289
10.1887
10.1476
10.1057
10.063
10.0194
9.97488
9.9295
9.88321
9.83601
9.78786
9.73877
9.6887
9.63766
9.58562
9.53256
9.47847
11.5936
11.5888
11.5841
11.5783
11.572
11.5652
11.5579
11.5501
11.5419
11.5333
11.5243
11.5149
11.5051
11.495
11.4844
11.4736
11.4623
11.4506
11.4386
11.4262
11.4134
11.4003
11.3867
11.3728
11.3585
11.3437
11.3286
11.313
11.2971
11.2807
11.2639
11.2466
11.2289
11.2108
11.1922
11.1732
11.1537
11.1337
11.1132
11.0922
11.0708
11.0488
11.0263
11.0033
10.9798
10.9557
10.9311
10.9059
10.8801
10.8538
10.8268
10.7993
10.7712
10.7424
10.713
10.683
10.6523
10.6209
10.5889
10.5562
10.5228
10.4887
10.4539
10.4183
10.382
10.3449
10.3071
10.2684
10.229
10.1888
10.1477
10.1058
10.0631
10.0195
9.97498
9.9296
9.88331
9.8361
9.78795
9.73886
9.68879
9.63774
9.5857
9.53264
9.47856
11.5938
11.589
11.5843
11.5786
11.5722
11.5654
11.5581
11.5503
11.5421
11.5335
11.5245
11.5151
11.5053
11.4952
11.4847
11.4738
11.4625
11.4508
11.4388
11.4264
11.4136
11.4005
11.3869
11.373
11.3587
11.3439
11.3288
11.3132
11.2973
11.2809
11.2641
11.2468
11.2291
11.211
11.1924
11.1734
11.1539
11.1339
11.1134
11.0924
11.071
11.049
11.0265
11.0035
10.98
10.9559
10.9312
10.906
10.8803
10.8539
10.827
10.7995
10.7713
10.7426
10.7132
10.6831
10.6524
10.6211
10.5891
10.5564
10.5229
10.4888
10.454
10.4184
10.3821
10.345
10.3072
10.2686
10.2291
10.1889
10.1478
10.1059
10.0632
10.0196
9.97509
9.9297
9.88341
9.8362
9.78805
9.73895
9.68889
9.63784
9.58579
9.53273
9.47864
11.594
11.5892
11.5845
11.5788
11.5725
11.5656
11.5583
11.5505
11.5423
11.5337
11.5247
11.5153
11.5056
11.4954
11.4849
11.474
11.4627
11.4511
11.439
11.4266
11.4139
11.4007
11.3871
11.3732
11.3589
11.3441
11.329
11.3134
11.2975
11.2811
11.2643
11.247
11.2293
11.2112
11.1926
11.1736
11.154
11.1341
11.1136
11.0926
11.0712
11.0492
11.0267
11.0037
10.9801
10.9561
10.9314
10.9062
10.8804
10.8541
10.8272
10.7996
10.7715
10.7427
10.7133
10.6833
10.6526
10.6212
10.5892
10.5565
10.5231
10.489
10.4541
10.4186
10.3822
10.3452
10.3073
10.2687
10.2293
10.189
10.148
10.1061
10.0633
10.0197
9.9752
9.92982
9.88353
9.83631
9.78816
9.73906
9.68899
9.63794
9.58589
9.53283
11.5943
11.5894
11.5847
11.579
11.5727
11.5658
11.5585
11.5507
11.5425
11.5339
11.5249
11.5155
11.5058
11.4956
11.4851
11.4742
11.4629
11.4513
11.4393
11.4268
11.4141
11.4009
11.3874
11.3734
11.3591
11.3443
11.3292
11.3136
11.2977
11.2813
11.2645
11.2472
11.2295
11.2114
11.1928
11.1738
11.1542
11.1342
11.1138
11.0928
11.0713
11.0494
11.0269
11.0039
10.9803
10.9562
10.9316
10.9064
10.8806
10.8543
10.8273
10.7998
10.7717
10.7429
10.7135
10.6834
10.6528
10.6214
10.5894
10.5567
10.5232
10.4891
10.4543
10.4187
10.3824
10.3453
10.3075
10.2688
10.2294
10.1892
10.1481
10.1062
10.0634
10.0198
9.97533
9.92994
9.88364
9.83643
9.78827
9.73917
9.6891
9.63805
9.586
9.53293
11.5945
11.5897
11.585
11.5792
11.5729
11.5661
11.5587
11.551
11.5428
11.5341
11.5251
11.5158
11.506
11.4958
11.4853
11.4744
11.4631
11.4515
11.4395
11.4271
11.4143
11.4011
11.3876
11.3736
11.3593
11.3445
11.3294
11.3138
11.2979
11.2815
11.2647
11.2474
11.2297
11.2116
11.193
11.174
11.1544
11.1344
11.114
11.093
11.0715
11.0496
11.0271
11.004
10.9805
10.9564
10.9318
10.9066
10.8808
10.8545
10.8275
10.8
10.7718
10.7431
10.7137
10.6836
10.6529
10.6216
10.5895
10.5568
10.5234
10.4893
10.4544
10.4189
10.3825
10.3455
10.3076
10.269
10.2295
10.1893
10.1482
10.1063
10.0636
10.0199
9.97545
9.93006
9.88377
9.83655
9.78839
9.73929
9.68922
9.63816
9.58611
9.53304
11.5947
11.5899
11.5852
11.5794
11.5731
11.5663
11.5589
11.5512
11.543
11.5344
11.5254
11.516
11.5062
11.496
11.4855
11.4746
11.4633
11.4517
11.4397
11.4273
11.4145
11.4013
11.3878
11.3738
11.3595
11.3447
11.3296
11.314
11.2981
11.2817
11.2649
11.2476
11.2299
11.2118
11.1932
11.1741
11.1546
11.1346
11.1142
11.0932
11.0717
11.0497
11.0273
11.0042
10.9807
10.9566
10.932
10.9068
10.881
10.8546
10.8277
10.8001
10.772
10.7432
10.7138
10.6838
10.6531
10.6217
10.5897
10.557
10.5236
10.4894
10.4546
10.419
10.3827
10.3456
10.3077
10.2691
10.2297
10.1894
10.1484
10.1065
10.0637
10.0201
9.97559
9.93019
9.8839
9.83668
9.78852
9.73941
9.68934
9.63828
9.58623
9.53316
11.5949
11.5901
11.5854
11.5796
11.5733
11.5665
11.5591
11.5514
11.5432
11.5346
11.5256
11.5162
11.5064
11.4962
11.4857
11.4748
11.4635
11.4519
11.4399
11.4275
11.4147
11.4015
11.388
11.374
11.3597
11.3449
11.3298
11.3142
11.2983
11.2819
11.2651
11.2478
11.2301
11.212
11.1934
11.1743
11.1548
11.1348
11.1143
11.0934
11.0719
11.0499
11.0274
11.0044
10.9809
10.9568
10.9321
10.9069
10.8812
10.8548
10.8279
10.8003
10.7722
10.7434
10.714
10.6839
10.6533
10.6219
10.5899
10.5571
10.5237
10.4896
10.4547
10.4192
10.3828
10.3458
10.3079
10.2693
10.2298
10.1896
10.1485
10.1066
10.0638
10.0202
9.97572
9.93033
9.88403
9.83681
9.78865
9.73954
9.68946
9.63841
9.58635
9.53328
11.5951
11.5903
11.5856
11.5798
11.5735
11.5667
11.5594
11.5516
11.5434
11.5348
11.5258
11.5164
11.5066
11.4964
11.4859
11.475
11.4637
11.4521
11.4401
11.4277
11.4149
11.4017
11.3882
11.3742
11.3599
11.3451
11.33
11.3144
11.2985
11.2821
11.2653
11.248
11.2303
11.2122
11.1936
11.1745
11.155
11.135
11.1145
11.0936
11.0721
11.0501
11.0276
11.0046
10.9811
10.957
10.9323
10.9071
10.8813
10.855
10.828
10.8005
10.7723
10.7436
10.7142
10.6841
10.6534
10.6221
10.59
10.5573
10.5239
10.4898
10.4549
10.4193
10.383
10.3459
10.3081
10.2694
10.23
10.1897
10.1487
10.1067
10.064
10.0204
9.97586
9.93047
9.88417
9.83695
9.78879
9.73967
9.6896
9.63854
9.58648
9.53341
11.5953
11.5905
11.5858
11.58
11.5737
11.5669
11.5596
11.5518
11.5436
11.535
11.526
11.5166
11.5068
11.4967
11.4861
11.4752
11.4639
11.4523
11.4403
11.4279
11.4151
11.4019
11.3884
11.3744
11.3601
11.3453
11.3302
11.3146
11.2987
11.2823
11.2655
11.2482
11.2305
11.2124
11.1938
11.1747
11.1552
11.1352
11.1147
11.0938
11.0723
11.0503
11.0278
11.0048
10.9812
10.9571
10.9325
10.9073
10.8815
10.8552
10.8282
10.8007
10.7725
10.7437
10.7143
10.6843
10.6536
10.6222
10.5902
10.5575
10.5241
10.4899
10.4551
10.4195
10.3832
10.3461
10.3082
10.2696
10.2301
10.1899
10.1488
10.1069
10.0641
10.0205
9.97601
9.93061
9.88431
9.83709
9.78892
9.73981
9.68973
9.63867
9.58661
9.53354
11.5955
11.5907
11.586
11.5802
11.5739
11.5671
11.5598
11.552
11.5438
11.5352
11.5262
11.5168
11.507
11.4969
11.4863
11.4754
11.4641
11.4525
11.4405
11.4281
11.4153
11.4021
11.3886
11.3746
11.3603
11.3455
11.3304
11.3148
11.2989
11.2825
11.2657
11.2484
11.2307