/*--------------------------------*- C++ -*----------------------------------*\
  =========                 |
  \\      /  F ield         | OpenFOAM: The Open Source CFD Toolbox
   \\    /   O peration     | Website:  https://openfoam.org
    \\  /    A nd           | Version:  10
     \\/     M anipulation  |
\*---------------------------------------------------------------------------*/
FoamFile
{
    format      ascii;
    class       volScalarField;
    location    "21000";
    object      Co;
}
// * * * * * * * * * * * * * * * * * * * * * * * * * * * * * * * * * * * * * //

dimensions      [0 0 0 0 0 0 0];

internalField   nonuniform List<scalar> 
17922
(
2609.84
2595.72
2581.58
2567.4
2553.19
2538.93
2524.62
2510.26
2495.84
2481.35
2466.79
2452.15
2437.42
2422.6
2407.67
2392.64
2377.48
2362.22
2346.86
2331.35
2315.69
2299.86
2283.84
2267.63
2251.2
2234.55
2217.66
2200.51
2183.23
2166.13
2149.32
2132.81
2116.56
2100.59
2084.87
2069.39
2054.15
2039.13
2024.34
2009.76
1995.38
1981.19
1967.14
1953.24
1939.46
1925.8
1912.27
1898.86
1885.57
1872.4
1859.34
1846.39
1833.56
1820.82
1808.19
1795.66
1783.23
1770.89
1758.65
1746.49
1734.42
1722.43
1710.53
1698.71
1686.96
1675.3
1663.71
1652.19
1640.74
1629.38
1618.08
1606.86
1595.7
1584.62
1573.59
1562.62
1551.7
1540.8
1529.93
1519.09
1508.31
1497.64
1487.15
1476.92
1467.02
1457.47
1448.17
1439.01
1429.94
1420.95
1412.06
1403.25
1394.54
2534.86
2521.15
2507.41
2493.64
2479.83
2465.98
2452.08
2438.13
2424.12
2410.05
2395.9
2381.68
2367.37
2352.97
2338.48
2323.87
2309.15
2294.33
2279.41
2264.35
2249.13
2233.75
2218.2
2202.45
2186.5
2170.32
2153.91
2137.25
2120.47
2103.86
2087.54
2071.5
2055.72
2040.21
2024.94
2009.91
1995.1
1980.52
1966.16
1951.99
1938.03
1924.25
1910.61
1897.1
1883.72
1870.46
1857.32
1844.3
1831.39
1818.6
1805.92
1793.35
1780.88
1768.52
1756.25
1744.08
1732.01
1720.03
1708.14
1696.34
1684.62
1672.98
1661.42
1649.95
1638.54
1627.22
1615.96
1604.78
1593.67
1582.64
1571.67
1560.77
1549.95
1539.19
1528.49
1517.84
1507.24
1496.66
1486.12
1475.6
1465.15
1454.8
1444.63
1434.73
1425.14
1415.89
1406.88
1398
1389.21
1380.5
1371.88
1363.35
1354.9
2462.04
2448.72
2435.37
2421.99
2408.58
2395.12
2381.62
2368.07
2354.46
2340.79
2327.05
2313.24
2299.34
2285.35
2271.27
2257.08
2242.78
2228.39
2213.9
2199.27
2184.49
2169.55
2154.44
2139.14
2123.65
2107.94
2092
2075.82
2059.52
2043.38
2027.53
2011.95
1996.63
1981.56
1966.73
1952.13
1937.76
1923.6
1909.64
1895.89
1882.33
1868.94
1855.7
1842.58
1829.59
1816.71
1803.95
1791.3
1778.77
1766.35
1754.03
1741.82
1729.71
1717.71
1705.8
1693.98
1682.26
1670.63
1659.08
1647.62
1636.24
1624.94
1613.72
1602.58
1591.51
1580.51
1569.59
1558.73
1547.95
1537.23
1526.59
1516.01
1505.51
1495.06
1484.68
1474.34
1464.05
1453.79
1443.56
1433.36
1423.22
1413.19
1403.34
1393.74
1384.46
1375.5
1366.77
1358.17
1349.65
1341.21
1332.85
1324.58
1316.39
2391.3
2378.36
2365.4
2352.4
2339.37
2326.3
2313.19
2300.02
2286.8
2273.52
2260.18
2246.76
2233.26
2219.67
2205.99
2192.2
2178.32
2164.34
2150.27
2136.06
2121.7
2107.19
2092.51
2077.65
2062.6
2047.35
2031.86
2016.14
2000.32
1984.64
1969.25
1954.11
1939.24
1924.6
1910.2
1896.02
1882.06
1868.3
1854.75
1841.4
1828.23
1815.23
1802.36
1789.63
1777.01
1764.5
1752.11
1739.83
1727.66
1715.59
1703.63
1691.77
1680.02
1668.36
1656.79
1645.32
1633.94
1622.64
1611.43
1600.3
1589.25
1578.28
1567.39
1556.57
1545.82
1535.15
1524.54
1514
1503.53
1493.13
1482.8
1472.53
1462.34
1452.2
1442.12
1432.09
1422.1
1412.14
1402.21
1392.32
1382.49
1372.76
1363.22
1353.93
1344.95
1336.27
1327.81
1319.47
1311.21
1303.03
1294.93
1286.91
1278.97
2322.6
2310.03
2297.43
2284.81
2272.15
2259.46
2246.72
2233.93
2221.09
2208.19
2195.22
2182.19
2169.07
2155.87
2142.58
2129.19
2115.71
2102.14
2088.47
2074.66
2060.72
2046.62
2032.37
2017.93
2003.32
1988.49
1973.46
1958.19
1942.81
1927.59
1912.64
1897.94
1883.49
1869.27
1855.29
1841.52
1827.96
1814.6
1801.44
1788.47
1775.68
1763.05
1750.56
1738.19
1725.94
1713.79
1701.76
1689.83
1678.01
1666.29
1654.68
1643.16
1631.75
1620.42
1609.19
1598.05
1587
1576.03
1565.15
1554.34
1543.61
1532.96
1522.38
1511.88
1501.44
1491.08
1480.78
1470.55
1460.39
1450.29
1440.26
1430.3
1420.4
1410.56
1400.78
1391.04
1381.35
1371.68
1362.05
1352.45
1342.92
1333.5
1324.25
1315.26
1306.56
1298.15
1289.96
1281.88
1273.87
1265.94
1258.09
1250.32
1242.62
2255.87
2243.66
2231.42
2219.16
2206.87
2194.53
2182.16
2169.74
2157.26
2144.73
2132.14
2119.47
2106.73
2093.91
2081
2067.99
2054.9
2041.72
2028.44
2015.03
2001.49
1987.8
1973.95
1959.93
1945.73
1931.33
1916.73
1901.9
1886.96
1872.18
1857.66
1843.38
1829.34
1815.54
1801.95
1788.58
1775.41
1762.44
1749.66
1737.06
1724.64
1712.38
1700.25
1688.23
1676.33
1664.54
1652.85
1641.27
1629.79
1618.41
1607.13
1595.95
1584.86
1573.86
1562.96
1552.14
1541.41
1530.76
1520.19
1509.69
1499.28
1488.94
1478.67
1468.47
1458.34
1448.27
1438.28
1428.35
1418.48
1408.68
1398.94
1389.27
1379.66
1370.11
1360.62
1351.17
1341.76
1332.38
1323.03
1313.72
1304.48
1295.35
1286.4
1277.69
1269.27
1261.13
1253.19
1245.35
1237.59
1229.91
1222.3
1214.76
1207.3
2191.06
2179.19
2167.31
2155.4
2143.45
2131.47
2119.45
2107.39
2095.27
2083.1
2070.86
2058.56
2046.18
2033.73
2021.19
2008.55
1995.84
1983.05
1970.14
1957.12
1943.96
1930.66
1917.21
1903.59
1889.8
1875.82
1861.63
1847.23
1832.72
1818.36
1804.25
1790.39
1776.76
1763.35
1750.15
1737.16
1724.37
1711.78
1699.36
1687.13
1675.07
1663.16
1651.38
1639.71
1628.15
1616.7
1605.34
1594.1
1582.95
1571.9
1560.94
1550.08
1539.32
1528.64
1518.05
1507.54
1497.12
1486.78
1476.52
1466.33
1456.21
1446.17
1436.2
1426.3
1416.46
1406.69
1396.99
1387.35
1377.77
1368.25
1358.8
1349.42
1340.09
1330.82
1321.6
1312.43
1303.3
1294.2
1285.13
1276.1
1267.14
1258.29
1249.62
1241.19
1233.04
1225.16
1217.47
1209.87
1202.35
1194.9
1187.52
1180.22
1172.99
2128.1
2116.58
2105.04
2093.46
2081.86
2070.22
2058.55
2046.83
2035.06
2023.23
2011.34
1999.39
1987.37
1975.27
1963.09
1950.82
1938.47
1926.05
1913.52
1900.87
1888.09
1875.17
1862.1
1848.88
1835.48
1821.9
1808.12
1794.12
1780.04
1766.09
1752.39
1738.92
1725.68
1712.66
1699.84
1687.23
1674.8
1662.57
1650.51
1638.63
1626.92
1615.35
1603.91
1592.58
1581.35
1570.23
1559.2
1548.28
1537.45
1526.72
1516.08
1505.54
1495.08
1484.71
1474.43
1464.23
1454.11
1444.06
1434.1
1424.2
1414.38
1404.63
1394.95
1385.34
1375.79
1366.3
1356.88
1347.52
1338.22
1328.99
1319.81
1310.7
1301.65
1292.65
1283.7
1274.8
1265.94
1257.11
1248.31
1239.55
1230.86
1222.29
1213.9
1205.74
1197.85
1190.22
1182.76
1175.4
1168.11
1160.88
1153.73
1146.65
1139.64
2066.96
2055.76
2044.55
2033.31
2022.04
2010.74
1999.39
1988.01
1976.57
1965.08
1953.54
1941.93
1930.25
1918.5
1906.66
1894.75
1882.76
1870.7
1858.52
1846.24
1833.82
1821.27
1808.58
1795.73
1782.72
1769.52
1756.14
1742.55
1728.86
1715.32
1702.01
1688.93
1676.07
1663.42
1650.97
1638.72
1626.66
1614.78
1603.07
1591.53
1580.15
1568.92
1557.81
1546.8
1535.9
1525.09
1514.39
1503.78
1493.26
1482.84
1472.51
1462.27
1452.11
1442.04
1432.06
1422.15
1412.32
1402.57
1392.89
1383.29
1373.75
1364.28
1354.88
1345.55
1336.28
1327.07
1317.92
1308.83
1299.81
1290.84
1281.93
1273.09
1264.3
1255.57
1246.89
1238.25
1229.65
1221.08
1212.54
1204.04
1195.62
1187.32
1179.19
1171.3
1163.66
1156.27
1149.05
1141.91
1134.84
1127.84
1120.9
1114.04
1107.24
2007.57
1996.69
1985.8
1974.88
1963.94
1952.95
1941.94
1930.87
1919.77
1908.61
1897.39
1886.12
1874.77
1863.36
1851.86
1840.29
1828.65
1816.93
1805.11
1793.17
1781.11
1768.92
1756.59
1744.11
1731.47
1718.66
1705.66
1692.45
1679.16
1666
1653.08
1640.38
1627.89
1615.6
1603.51
1591.61
1579.9
1568.36
1556.98
1545.78
1534.73
1523.82
1513.03
1502.34
1491.75
1481.26
1470.86
1460.55
1450.34
1440.22
1430.18
1420.24
1410.38
1400.6
1390.9
1381.28
1371.73
1362.26
1352.87
1343.54
1334.28
1325.09
1315.96
1306.9
1297.89
1288.95
1280.07
1271.25
1262.49
1253.78
1245.14
1236.55
1228.02
1219.55
1211.12
1202.73
1194.39
1186.07
1177.79
1169.55
1161.39
1153.35
1145.48
1137.84
1130.45
1123.29
1116.29
1109.37
1102.51
1095.72
1089
1082.34
1075.75
1949.88
1939.32
1928.74
1918.13
1907.5
1896.83
1886.13
1875.38
1864.59
1853.75
1842.86
1831.91
1820.89
1809.8
1798.63
1787.4
1776.1
1764.72
1753.23
1741.63
1729.92
1718.08
1706.1
1693.98
1681.7
1669.25
1656.62
1643.8
1630.89
1618.11
1605.56
1593.22
1581.09
1569.15
1557.41
1545.86
1534.48
1523.27
1512.23
1501.34
1490.61
1480.02
1469.53
1459.15
1448.87
1438.68
1428.58
1418.57
1408.65
1398.82
1389.07
1379.41
1369.84
1360.34
1350.92
1341.58
1332.31
1323.11
1313.99
1304.93
1295.94
1287.01
1278.15
1269.35
1260.61
1251.93
1243.31
1234.74
1226.23
1217.79
1209.39
1201.06
1192.78
1184.55
1176.37
1168.23
1160.13
1152.06
1144.02
1136.04
1128.13
1120.34
1112.72
1105.33
1098.18
1091.25
1084.47
1077.75
1071.1
1064.52
1058
1051.55
1045.15
1893.86
1883.6
1873.32
1863.02
1852.68
1842.32
1831.93
1821.49
1811.01
1800.48
1789.89
1779.25
1768.55
1757.77
1746.93
1736.03
1725.06
1714
1702.84
1691.58
1680.2
1668.7
1657.06
1645.29
1633.36
1621.27
1609
1596.55
1584.01
1571.59
1559.4
1547.41
1535.63
1524.04
1512.64
1501.41
1490.36
1479.48
1468.75
1458.18
1447.76
1437.47
1427.29
1417.2
1407.22
1397.32
1387.51
1377.79
1368.15
1358.61
1349.14
1339.76
1330.46
1321.24
1312.09
1303.02
1294.02
1285.09
1276.22
1267.43
1258.7
1250.03
1241.42
1232.88
1224.39
1215.96
1207.59
1199.28
1191.02
1182.82
1174.67
1166.58
1158.54
1150.55
1142.61
1134.71
1126.85
1119.02
1111.22
1103.48
1095.81
1088.27
1080.9
1073.75
1066.83
1060.13
1053.55
1047.03
1040.58
1034.2
1027.88
1021.62
1015.42
1839.44
1829.47
1819.49
1809.48
1799.44
1789.38
1779.28
1769.14
1758.96
1748.73
1738.45
1728.11
1717.71
1707.25
1696.72
1686.14
1675.48
1664.74
1653.9
1642.96
1631.91
1620.73
1609.43
1597.99
1586.41
1574.66
1562.75
1550.65
1538.47
1526.41
1514.57
1502.93
1491.48
1480.23
1469.15
1458.25
1447.52
1436.94
1426.53
1416.26
1406.14
1396.14
1386.25
1376.46
1366.76
1357.15
1347.62
1338.18
1328.82
1319.55
1310.36
1301.24
1292.21
1283.25
1274.37
1265.56
1256.82
1248.15
1239.54
1231
1222.52
1214.1
1205.75
1197.45
1189.21
1181.02
1172.9
1164.82
1156.81
1148.84
1140.93
1133.08
1125.28
1117.52
1109.82
1102.15
1094.52
1086.92
1079.36
1071.85
1064.42
1057.12
1049.99
1043.07
1036.38
1029.88
1023.5
1017.18
1010.93
1004.74
998.604
992.533
986.521
1786.58
1776.9
1767.2
1757.48
1747.73
1737.96
1728.14
1718.3
1708.4
1698.47
1688.48
1678.44
1668.34
1658.17
1647.95
1637.68
1627.33
1616.9
1606.37
1595.74
1585
1574.15
1563.17
1552.06
1540.81
1529.4
1517.82
1506.07
1494.24
1482.53
1471.02
1459.72
1448.6
1437.67
1426.91
1416.32
1405.9
1395.63
1385.51
1375.54
1365.71
1356
1346.4
1336.89
1327.46
1318.13
1308.87
1299.7
1290.62
1281.61
1272.68
1263.83
1255.06
1246.36
1237.73
1229.17
1220.69
1212.26
1203.91
1195.61
1187.38
1179.2
1171.09
1163.03
1155.03
1147.09
1139.19
1131.35
1123.57
1115.84
1108.16
1100.54
1092.96
1085.44
1077.95
1070.51
1063.1
1055.73
1048.4
1041.12
1033.92
1026.85
1019.95
1013.26
1006.79
1000.5
994.305
988.177
982.109
976.102
970.155
964.265
958.435
1735.25
1725.84
1716.42
1706.98
1697.51
1688.01
1678.48
1668.91
1659.3
1649.65
1639.95
1630.2
1620.38
1610.51
1600.59
1590.62
1580.56
1570.43
1560.2
1549.87
1539.44
1528.9
1518.24
1507.45
1496.51
1485.43
1474.19
1462.77
1451.28
1439.91
1428.73
1417.75
1406.95
1396.34
1385.89
1375.6
1365.48
1355.5
1345.68
1336
1326.45
1317.02
1307.69
1298.45
1289.3
1280.23
1271.24
1262.33
1253.51
1244.76
1236.09
1227.49
1218.97
1210.52
1202.14
1193.83
1185.59
1177.41
1169.29
1161.24
1153.24
1145.3
1137.42
1129.6
1121.83
1114.11
1106.45
1098.84
1091.28
1083.78
1076.32
1068.92
1061.57
1054.26
1047
1039.77
1032.58
1025.43
1018.31
1011.26
1004.29
997.446
990.773
984.303
978.041
971.942
965.935
959.989
954.103
948.275
942.505
936.792
931.136
1685.38
1676.25
1667.1
1657.92
1648.72
1639.5
1630.24
1620.95
1611.61
1602.24
1592.81
1583.34
1573.81
1564.23
1554.6
1544.91
1535.14
1525.29
1515.36
1505.33
1495.2
1484.96
1474.6
1464.12
1453.5
1442.73
1431.81
1420.72
1409.56
1398.51
1387.66
1376.99
1366.5
1356.19
1346.04
1336.05
1326.22
1316.53
1306.99
1297.58
1288.31
1279.15
1270.09
1261.12
1252.23
1243.42
1234.69
1226.03
1217.46
1208.96
1200.54
1192.19
1183.92
1175.71
1167.57
1159.5
1151.49
1143.55
1135.67
1127.84
1120.08
1112.37
1104.72
1097.12
1089.58
1082.08
1074.64
1067.25
1059.92
1052.63
1045.39
1038.2
1031.06
1023.97
1016.92
1009.91
1002.93
995.988
989.087
982.248
975.497
968.875
962.421
956.165
950.107
944.195
938.365
932.595
926.884
921.23
915.632
910.089
904.601
1672.36
1663.52
1654.67
1645.82
1636.95
1628.08
1619.19
1610.28
1601.34
1592.38
1583.39
1574.36
1565.29
1556.18
1547.03
1537.83
1528.57
1519.27
1509.93
1500.51
1491.02
1481.46
1471.81
1462.06
1452.22
1442.28
1432.21
1422.03
1411.71
1401.26
1390.65
1379.88
1369.04
1358.3
1347.76
1337.4
1327.22
1317.2
1307.34
1297.64
1288.09
1278.68
1269.41
1260.28
1251.27
1242.37
1233.57
1224.85
1216.22
1207.66
1199.18
1190.78
1182.45
1174.2
1166.02
1157.91
1149.87
1141.9
1133.99
1126.15
1118.38
1110.66
1103
1095.41
1087.87
1080.38
1072.95
1065.57
1058.24
1050.97
1043.74
1036.57
1029.44
1022.37
1015.34
1008.36
1001.43
994.545
987.7
980.892
974.119
967.383
960.69
954.061
947.524
941.116
934.875
928.825
922.963
917.232
911.573
905.973
900.43
894.943
889.511
884.133
878.808
1624.31
1615.72
1607.12
1598.52
1589.92
1581.3
1572.66
1564
1555.32
1546.61
1537.88
1529.11
1520.3
1511.45
1502.56
1493.62
1484.64
1475.62
1466.54
1457.39
1448.18
1438.88
1429.51
1420.04
1410.48
1400.82
1391.05
1381.15
1371.13
1360.98
1350.67
1340.21
1329.68
1319.25
1309.01
1298.95
1289.06
1279.33
1269.75
1260.33
1251.05
1241.91
1232.91
1224.04
1215.29
1206.65
1198.1
1189.63
1181.24
1172.93
1164.69
1156.53
1148.44
1140.42
1132.48
1124.6
1116.79
1109.05
1101.37
1093.76
1086.21
1078.71
1071.28
1063.9
1056.57
1049.3
1042.09
1034.92
1027.81
1020.74
1013.72
1006.76
999.837
992.966
986.144
979.368
972.639
965.953
959.308
952.699
946.125
939.589
933.099
926.675
920.345
914.146
908.112
902.262
896.588
891.029
885.535
880.098
874.719
869.394
864.122
858.902
853.733
1577.63
1569.29
1560.94
1552.59
1544.23
1535.85
1527.46
1519.05
1510.62
1502.16
1493.68
1485.16
1476.6
1468.01
1459.37
1450.69
1441.98
1433.22
1424.4
1415.51
1406.56
1397.53
1388.42
1379.23
1369.94
1360.56
1351.06
1341.45
1331.72
1321.85
1311.84
1301.68
1291.45
1281.32
1271.38
1261.6
1251.99
1242.54
1233.24
1224.09
1215.08
1206.2
1197.46
1188.84
1180.35
1171.95
1163.64
1155.42
1147.27
1139.2
1131.19
1123.27
1115.41
1107.62
1099.9
1092.25
1084.67
1077.15
1069.69
1062.29
1054.96
1047.68
1040.45
1033.29
1026.17
1019.11
1012.1
1005.15
998.235
991.374
984.56
977.794
971.075
964.403
957.778
951.199
944.665
938.174
931.721
925.306
918.926
912.584
906.291
900.066
893.938
887.942
882.108
876.453
870.958
865.564
860.229
854.951
849.728
844.559
839.441
834.374
829.357
1556.62
1548.51
1540.4
1532.3
1524.2
1516.09
1507.98
1499.85
1491.72
1483.57
1475.4
1467.21
1458.99
1450.75
1442.47
1434.16
1425.81
1417.42
1409
1400.54
1392.03
1383.46
1374.83
1366.14
1357.37
1348.52
1339.59
1330.57
1321.45
1312.23
1302.89
1293.44
1283.85
1274.13
1264.26
1254.32
1244.48
1234.82
1225.33
1215.99
1206.81
1197.78
1188.89
1180.14
1171.52
1163.03
1154.66
1146.4
1138.25
1130.18
1122.19
1114.27
1106.43
1098.66
1090.95
1083.32
1075.76
1068.26
1060.83
1053.46
1046.15
1038.91
1031.73
1024.6
1017.53
1010.51
1003.55
996.644
989.786
982.978
976.219
969.508
962.844
956.227
949.656
943.131
936.652
930.219
923.83
917.486
911.182
904.917
898.689
892.496
886.344
880.242
874.211
868.28
862.48
856.841
851.373
846.049
840.812
835.632
830.508
825.436
820.417
815.448
810.529
805.658
1511.89
1504.01
1496.14
1488.27
1480.4
1472.52
1464.64
1456.75
1448.85
1440.93
1433
1425.04
1417.06
1409.05
1401.01
1392.94
1384.83
1376.69
1368.52
1360.3
1352.03
1343.71
1335.33
1326.88
1318.36
1309.77
1301.09
1292.33
1283.47
1274.51
1265.44
1256.26
1246.95
1237.5
1227.91
1218.26
1208.7
1199.32
1190.1
1181.03
1172.11
1163.34
1154.71
1146.2
1137.83
1129.58
1121.45
1113.44
1105.51
1097.67
1089.91
1082.22
1074.6
1067.05
1059.57
1052.16
1044.81
1037.52
1030.3
1023.15
1016.05
1009.01
1002.03
995.11
988.243
981.429
974.667
967.956
961.295
954.682
948.117
941.599
935.127
928.7
922.318
915.982
909.69
903.442
897.238
891.077
884.956
878.873
872.826
866.816
860.847
854.931
849.088
843.348
837.739
832.288
827
821.839
816.754
811.723
806.747
801.822
796.948
792.123
787.345
782.616
1468.44
1460.79
1453.15
1445.51
1437.86
1430.21
1422.55
1414.89
1407.21
1399.52
1391.81
1384.08
1376.33
1368.55
1360.74
1352.9
1345.03
1337.13
1329.2
1321.21
1313.18
1305.1
1296.95
1288.75
1280.47
1272.12
1263.7
1255.18
1246.58
1237.87
1229.07
1220.14
1211.1
1201.92
1192.61
1183.23
1173.95
1164.84
1155.88
1147.07
1138.41
1129.89
1121.5
1113.24
1105.11
1097.1
1089.2
1081.42
1073.72
1066.1
1058.56
1051.09
1043.69
1036.35
1029.08
1021.88
1014.74
1007.67
1000.65
993.7
986.806
979.97
973.19
966.465
959.794
953.174
946.606
940.087
933.617
927.194
920.817
914.485
908.199
901.957
895.758
889.604
883.493
877.425
871.4
865.417
859.473
853.566
847.695
841.861
836.071
830.336
824.677
819.122
813.699
808.429
803.313
798.308
793.368
788.482
783.648
778.865
774.131
769.445
764.804
760.21
1426.25
1418.82
1411.39
1403.97
1396.54
1389.11
1381.67
1374.23
1366.77
1359.3
1351.81
1344.3
1336.77
1329.22
1321.63
1314.02
1306.38
1298.71
1291.01
1283.25
1275.45
1267.6
1259.68
1251.71
1243.67
1235.56
1227.38
1219.11
1210.75
1202.29
1193.74
1185.07
1176.28
1167.37
1158.32
1149.21
1140.2
1131.34
1122.64
1114.09
1105.67
1097.4
1089.25
1081.23
1073.33
1065.55
1057.88
1050.31
1042.84
1035.44
1028.11
1020.85
1013.66
1006.54
999.473
992.475
985.54
978.665
971.851
965.097
958.399
951.758
945.171
938.638
932.157
925.727
919.346
913.013
906.728
900.488
894.294
888.144
882.037
875.974
869.953
863.975
858.04
852.147
846.295
840.484
834.711
828.975
823.275
817.613
811.996
806.437
800.957
795.583
790.34
785.246
780.293
775.436
770.636
765.888
761.192
756.546
751.947
747.394
742.886
738.423
1385.27
1378.05
1370.84
1363.62
1356.41
1349.19
1341.97
1334.73
1327.49
1320.23
1312.96
1305.67
1298.35
1291.01
1283.65
1276.26
1268.85
1261.4
1253.91
1246.38
1238.8
1231.17
1223.49
1215.74
1207.93
1200.05
1192.1
1184.07
1175.95
1167.73
1159.42
1151
1142.47
1133.81
1125.02
1116.17
1107.42
1098.81
1090.36
1082.05
1073.88
1065.84
1057.93
1050.13
1042.46
1034.9
1027.45
1020.1
1012.84
1005.65
998.532
991.481
984.494
977.571
970.711
963.911
957.173
950.494
943.874
937.311
930.805
924.352
917.953
911.606
905.309
899.062
892.863
886.711
880.605
874.543
868.526
862.551
856.619
850.729
844.881
839.074
833.309
827.585
821.901
816.256
810.649
805.079
799.545
794.05
788.601
783.214
777.908
772.709
767.642
762.717
757.918
753.202
748.537
743.924
739.361
734.846
730.377
725.953
721.573
717.236
1345.46
1338.45
1331.44
1324.44
1317.43
1310.42
1303.4
1296.38
1289.34
1282.29
1275.22
1268.14
1261.03
1253.91
1246.77
1239.6
1232.4
1225.16
1217.88
1210.57
1203.21
1195.79
1188.33
1180.8
1173.22
1165.57
1157.84
1150.04
1142.15
1134.17
1126.09
1117.92
1109.63
1101.21
1092.68
1084.08
1075.57
1067.22
1059.01
1050.94
1043
1035.19
1027.5
1019.93
1012.48
1005.14
997.903
990.762
983.703
976.719
969.803
962.952
956.164
949.437
942.772
936.166
929.619
923.13
916.698
910.321
903.999
897.73
891.513
885.346
879.228
873.159
867.136
861.159
855.226
849.337
843.491
837.687
831.924
826.202
820.52
814.879
809.279
803.718
798.197
792.713
787.267
781.857
776.484
771.151
765.867
760.646
755.51
750.481
745.582
740.82
736.168
731.584
727.052
722.569
718.134
713.746
709.402
705.103
700.845
696.63
1306.8
1299.99
1293.18
1286.38
1279.57
1272.76
1265.94
1259.12
1252.28
1245.44
1238.57
1231.69
1224.8
1217.89
1210.95
1203.99
1196.99
1189.96
1182.89
1175.78
1168.63
1161.43
1154.18
1146.87
1139.5
1132.07
1124.56
1116.98
1109.32
1101.57
1093.72
1085.78
1077.73
1069.56
1061.26
1052.91
1044.65
1036.53
1028.56
1020.72
1013
1005.42
997.95
990.599
983.36
976.229
969.2
962.262
955.403
948.617
941.897
935.241
928.645
922.11
915.633
909.214
902.853
896.548
890.298
884.103
877.96
871.869
865.828
859.836
853.892
847.994
842.142
836.335
830.571
824.849
819.169
813.529
807.93
802.371
796.851
791.37
785.929
780.527
775.163
769.836
764.546
759.292
754.075
748.899
743.774
738.716
733.744
728.881
724.145
719.536
715.023
710.567
706.162
701.804
697.493
693.227
689.005
684.826
680.687
676.589
1269.24
1262.63
1256.02
1249.41
1242.8
1236.18
1229.56
1222.93
1216.29
1209.64
1202.99
1196.31
1189.62
1182.9
1176.16
1169.4
1162.6
1155.77
1148.91
1142
1135.05
1128.06
1121.01
1113.91
1106.76
1099.53
1092.24
1084.88
1077.43
1069.9
1062.28
1054.57
1046.74
1038.81
1030.75
1022.64
1014.61
1006.73
998.98
991.363
983.872
976.502
969.248
962.107
955.075
948.149
941.32
934.579
927.915
921.321
914.792
908.324
901.915
895.565
889.271
883.035
876.853
870.727
864.654
858.634
852.665
846.746
840.876
835.053
829.277
823.547
817.861
812.217
806.616
801.057
795.537
790.058
784.617
779.215
773.852
768.527
763.24
757.991
752.78
747.605
742.465
737.362
732.297
727.274
722.305
717.405
712.593
707.891
703.311
698.848
694.466
690.134
685.85
681.613
677.422
673.274
669.169
665.104
661.079
657.094
1232.77
1226.35
1219.93
1213.51
1207.08
1200.66
1194.23
1187.8
1181.35
1174.9
1168.43
1161.94
1155.44
1148.92
1142.37
1135.8
1129.2
1122.56
1115.89
1109.19
1102.44
1095.64
1088.8
1081.9
1074.95
1067.93
1060.85
1053.7
1046.46
1039.15
1031.75
1024.25
1016.65
1008.94
1001.11
993.235
985.437
977.778
970.252
962.853
955.576
948.417
941.371
934.434
927.603
920.875
914.241
907.691
901.215
894.808
888.463
882.178
875.951
869.78
863.665
857.604
851.598
845.644
839.743
833.893
828.092
822.34
816.636
810.978
805.365
799.796
794.27
788.787
783.344
777.941
772.577
767.252
761.966
756.716
751.505
746.33
741.193
736.092
731.028
726
721.007
716.05
711.132
706.259
701.441
696.694
692.038
687.491
683.063
678.736
674.477
670.265
666.099
661.979
657.902
653.868
649.875
645.922
642.007
638.13
1197.35
1191.11
1184.88
1178.65
1172.41
1166.17
1159.93
1153.68
1147.42
1141.15
1134.86
1128.57
1122.25
1115.91
1109.55
1103.17
1096.76
1090.31
1083.83
1077.32
1070.76
1064.16
1057.51
1050.81
1044.06
1037.24
1030.36
1023.41
1016.39
1009.28
1002.09
994.806
987.423
979.934
972.33
964.676
957.101
949.661
942.35
935.162
928.093
921.138
914.293
907.555
900.919
894.383
887.938
881.574
875.281
869.055
862.889
856.782
850.73
844.734
838.791
832.902
827.064
821.279
815.544
809.858
804.221
798.631
793.088
787.589
782.134
776.722
771.352
766.022
760.733
755.482
750.269
745.094
739.956
734.855
729.79
724.761
719.768
714.812
709.89
705.004
700.153
695.338
690.563
685.834
681.164
676.566
672.061
667.664
663.379
659.181
655.039
650.942
646.891
642.884
638.918
634.994
631.109
627.263
623.453
619.681
1162.96
1156.9
1150.84
1144.79
1138.73
1132.67
1126.61
1120.54
1114.46
1108.37
1102.26
1096.15
1090.01
1083.85
1077.68
1071.47
1065.25
1058.99
1052.69
1046.36
1039.99
1033.58
1027.12
1020.61
1014.05
1007.43
1000.75
993.995
987.171
980.269
973.284
966.208
959.036
951.76
944.373
936.938
929.58
922.352
915.249
908.266
901.399
894.643
887.994
881.448
875.002
868.652
862.391
856.206
850.091
844.04
838.048
832.113
826.232
820.405
814.629
808.906
803.233
797.61
792.036
786.51
781.032
775.599
770.211
764.867
759.565
754.305
749.085
743.905
738.764
733.66
728.594
723.564
718.57
713.612
708.689
703.801
698.949
694.131
689.348
684.6
679.886
675.209
670.573
665.985
661.458
657.006
652.648
648.394
644.244
640.167
636.137
632.152
628.211
624.312
620.453
616.634
612.854
609.11
605.403
601.731
1129.55
1123.67
1117.79
1111.91
1106.02
1100.14
1094.25
1088.35
1082.45
1076.53
1070.6
1064.66
1058.7
1052.72
1046.72
1040.69
1034.64
1028.56
1022.45
1016.3
1010.11
1003.88
997.607
991.285
984.909
978.477
971.984
965.426
958.796
952.091
945.305
938.431
931.464
924.396
917.22
909.997
902.848
895.827
888.927
882.143
875.472
868.908
862.449
856.09
849.828
843.66
837.576
831.566
825.623
819.742
813.919
808.151
802.436
796.772
791.159
785.596
780.083
774.618
769.2
763.829
758.504
753.224
747.986
742.792
737.638
732.525
727.452
722.417
717.419
712.458
707.533
702.644
697.789
692.97
688.184
683.433
678.716
674.033
669.384
664.769
660.189
655.645
651.144
646.694
642.306
637.996
633.779
629.664
625.64
621.676
617.755
613.878
610.042
606.247
602.492
598.774
595.094
591.45
587.84
584.265
1097.11
1091.39
1085.68
1079.97
1074.25
1068.54
1062.82
1057.09
1051.35
1045.6
1039.85
1034.07
1028.28
1022.47
1016.65
1010.79
1004.91
999.007
993.068
987.095
981.085
975.034
968.939
962.797
956.604
950.356
944.048
937.676
931.236
924.723
918.13
911.453
904.684
897.818
890.847
883.83
876.885
870.064
863.36
856.77
850.289
843.913
837.638
831.46
825.377
819.384
813.472
807.632
801.856
796.141
790.481
784.875
779.32
773.815
768.36
762.953
757.594
752.282
747.016
741.795
736.619
731.486
726.395
721.345
716.336
711.365
706.433
701.538
696.68
691.857
687.069
682.316
677.597
672.911
668.258
663.639
659.053
654.501
649.981
645.495
641.044
636.631
632.261
627.944
623.692
619.519
615.439
611.455
607.548
603.691
599.876
596.102
592.369
588.675
585.018
581.399
577.815
574.266
570.75
567.269
1065.59
1060.04
1054.49
1048.95
1043.4
1037.84
1032.29
1026.72
1021.15
1015.57
1009.97
1004.37
998.743
993.1
987.438
981.752
976.042
970.303
964.534
958.732
952.893
947.016
941.095
935.128
929.112
923.042
916.914
910.725
904.468
898.141
891.736
885.249
878.674
872.003
865.231
858.414
851.667
845.04
838.528
832.126
825.829
819.635
813.538
807.537
801.627
795.805
790.06
784.384
778.771
773.216
767.715
762.266
756.866
751.516
746.213
740.957
735.748
730.584
725.465
720.39
715.358
710.368
705.419
700.51
695.639
690.807
686.012
681.253
676.529
671.84
667.185
662.563
657.974
653.418
648.894
644.403
639.944
635.517
631.123
626.762
622.437
618.15
613.908
609.721
605.6
601.561
597.612
593.751
589.954
586.2
582.486
578.812
575.177
571.579
568.018
564.493
561.002
557.545
554.119
550.727
1034.98
1029.59
1024.2
1018.81
1013.42
1008.03
1002.63
997.228
991.816
986.394
980.961
975.513
970.05
964.57
959.069
953.546
947.999
942.424
936.82
931.184
925.512
919.802
914.05
908.254
902.409
896.513
890.56
884.547
878.469
872.322
866.1
859.798
853.411
846.93
840.351
833.729
827.174
820.736
814.409
808.189
802.072
796.053
790.131
784.3
778.559
772.902
767.319
761.803
756.347
750.947
745.6
740.303
735.055
729.854
724.699
719.59
714.526
709.506
704.529
699.596
694.703
689.852
685.04
680.266
675.531
670.832
666.17
661.542
656.949
652.389
647.863
643.368
638.906
634.475
630.076
625.708
621.372
617.067
612.794
608.555
604.351
600.187
596.069
592.008
588.017
584.106
580.283
576.536
572.841
569.186
565.57
561.992
558.452
554.947
551.478
548.043
544.641
541.271
537.933
534.627
1005.25
1000.02
994.782
989.548
984.312
979.074
973.831
968.582
963.325
958.058
952.78
947.488
942.182
936.858
931.515
926.15
920.761
915.346
909.902
904.426
898.917
893.37
887.782
882.152
876.474
870.745
864.963
859.121
853.217
847.245
841.201
835.079
828.873
822.578
816.186
809.753
803.385
797.13
790.983
784.94
778.996
773.149
767.395
761.73
756.152
750.655
745.23
739.868
734.565
729.316
724.119
718.97
713.868
708.812
703.8
698.833
693.91
689.029
684.191
679.394
674.637
669.919
665.24
660.599
655.994
651.425
646.891
642.391
637.924
633.489
629.087
624.716
620.376
616.066
611.787
607.539
603.321
599.135
594.979
590.857
586.772
582.726
578.73
574.792
570.925
567.138
563.433
559.792
556.195
552.635
549.113
545.628
542.178
538.763
535.382
532.034
528.718
525.433
522.178
518.954
981.468
976.377
971.29
966.206
961.122
956.037
950.948
945.856
940.757
935.651
930.535
925.408
920.268
915.114
909.942
904.752
899.54
894.306
889.045
883.757
878.438
873.085
867.697
862.269
856.799
851.283
845.718
840.101
834.426
828.69
822.889
817.017
811.069
805.04
798.925
792.715
786.465
780.278
774.201
768.229
762.357
756.583
750.902
745.311
739.807
734.388
729.047
723.774
718.562
713.407
708.305
703.252
698.246
693.286
688.371
683.499
678.669
673.882
669.137
664.432
659.767
655.142
650.554
646.004
641.49
637.012
632.568
628.158
623.781
619.437
615.124
610.841
606.589
602.367
598.175
594.013
589.88
585.777
581.705
577.663
573.655
569.684
565.755
561.876
558.058
554.312
550.643
547.049
543.506
540.002
536.534
533.103
529.706
526.344
523.015
519.718
516.454
513.22
510.016
506.841
503.696
953.274
948.329
943.389
938.45
933.512
928.573
923.63
918.684
913.732
908.772
903.802
898.822
893.83
888.823
883.799
878.757
873.695
868.61
863.5
858.362
853.195
847.996
842.761
837.488
832.174
826.816
821.41
815.953
810.44
804.867
799.231
793.527
787.749
781.892
775.951
769.918
763.846
757.835
751.93
746.128
740.423
734.813
729.293
723.861
718.513
713.248
708.057
702.932
697.867
692.855
687.895
682.982
678.116
673.293
668.514
663.777
659.081
654.426
649.812
645.237
640.7
636.202
631.74
627.315
622.924
618.569
614.246
609.957
605.699
601.473
597.277
593.111
588.974
584.866
580.788
576.738
572.717
568.725
564.763
560.832
556.934
553.074
549.258
545.494
541.792
538.161
534.606
531.113
527.663
524.248
520.869
517.524
514.213
510.935
507.688
504.473
501.289
498.134
495.008
491.91
488.841
925.889
921.086
916.288
911.492
906.695
901.897
897.097
892.292
887.482
882.664
877.837
873
868.15
863.286
858.407
853.509
848.591
843.652
838.688
833.697
828.678
823.627
818.541
813.419
808.257
803.052
797.8
792.498
787.142
781.729
776.254
770.712
765.099
759.409
753.636
747.776
741.876
736.036
730.299
724.662
719.119
713.668
708.304
703.026
697.83
692.714
687.67
682.688
677.764
672.892
668.069
663.293
658.561
653.872
649.225
644.618
640.052
635.525
631.037
626.588
622.176
617.8
613.461
609.156
604.886
600.648
596.444
592.271
588.128
584.016
579.934
575.88
571.855
567.858
563.889
559.948
556.034
552.15
548.295
544.471
540.68
536.929
533.222
529.57
525.98
522.461
519.011
515.613
512.25
508.922
505.627
502.366
499.137
495.939
492.772
489.635
486.527
483.448
480.396
477.372
899.291
894.626
889.966
885.307
880.648
875.988
871.325
866.658
861.986
857.306
852.617
847.919
843.208
838.483
833.743
828.985
824.208
819.41
814.588
809.74
804.864
799.957
795.017
790.041
785.026
779.969
774.867
769.717
764.514
759.255
753.936
748.552
743.099
737.571
731.963
726.269
720.538
714.863
709.289
703.811
698.426
693.129
687.918