/*--------------------------------*- C++ -*----------------------------------*\
  =========                 |
  \\      /  F ield         | OpenFOAM: The Open Source CFD Toolbox
   \\    /   O peration     | Website:  https://openfoam.org
    \\  /    A nd           | Version:  10
     \\/     M anipulation  |
\*---------------------------------------------------------------------------*/
FoamFile
{
    format      ascii;
    class       surfaceScalarField;
    location    "21000";
    object      phi;
}
// * * * * * * * * * * * * * * * * * * * * * * * * * * * * * * * * * * * * * //

dimensions      [0 3 -1 0 0 0 0];

internalField   nonuniform List<scalar> 
35539
(
-3.23763e-09
2.60531e-05
-2.60531e-05
-3.19805e-09
2.62735e-05
-2.62736e-05
-3.14299e-09
2.64928e-05
-2.64928e-05
-3.06717e-09
2.67106e-05
-2.67106e-05
-2.97067e-09
2.69268e-05
-2.69269e-05
-2.85662e-09
2.71412e-05
-2.71413e-05
-2.71972e-09
2.73536e-05
-2.73537e-05
-2.56016e-09
2.75638e-05
-2.75639e-05
-2.38098e-09
2.77715e-05
-2.77717e-05
-2.17976e-09
2.79765e-05
-2.79767e-05
-1.9539e-09
2.81786e-05
-2.81788e-05
-1.70391e-09
2.83775e-05
-2.83778e-05
-1.42867e-09
2.85729e-05
-2.85732e-05
-1.1312e-09
2.87646e-05
-2.87649e-05
-8.06624e-10
2.89522e-05
-2.89525e-05
-4.56741e-10
2.91354e-05
-2.91357e-05
-7.93332e-11
2.93139e-05
-2.93142e-05
3.23653e-10
2.94873e-05
-2.94877e-05
7.54176e-10
2.96552e-05
-2.96557e-05
1.2116e-09
2.98173e-05
-2.98178e-05
1.69638e-09
2.99732e-05
-2.99737e-05
2.20974e-09
3.01224e-05
-3.01229e-05
2.74844e-09
3.02645e-05
-3.0265e-05
3.31466e-09
3.03989e-05
-3.03995e-05
3.9071e-09
3.05252e-05
-3.05258e-05
4.52742e-09
3.06429e-05
-3.06435e-05
5.17038e-09
3.07514e-05
-3.0752e-05
5.83727e-09
3.085e-05
-3.08507e-05
6.51567e-09
3.04062e-05
-3.04069e-05
7.18903e-09
2.94504e-05
-2.94511e-05
7.85847e-09
2.85288e-05
-2.85295e-05
8.51805e-09
2.764e-05
-2.76407e-05
9.1684e-09
2.67827e-05
-2.67833e-05
9.80761e-09
2.59555e-05
-2.59561e-05
1.0436e-08
2.51571e-05
-2.51578e-05
1.10522e-08
2.43865e-05
-2.43871e-05
1.16573e-08
2.36425e-05
-2.36431e-05
1.22496e-08
2.29241e-05
-2.29247e-05
1.28294e-08
2.22302e-05
-2.22308e-05
1.33979e-08
2.15598e-05
-2.15604e-05
1.39533e-08
2.09121e-05
-2.09127e-05
1.44948e-08
2.0286e-05
-2.02866e-05
1.50205e-08
1.96805e-05
-1.9681e-05
1.55363e-08
1.90946e-05
-1.90951e-05
1.60454e-08
1.85277e-05
-1.85282e-05
1.65479e-08
1.7979e-05
-1.79795e-05
1.70452e-08
1.74479e-05
-1.74483e-05
1.75423e-08
1.69337e-05
-1.69342e-05
1.80375e-08
1.6436e-05
-1.64365e-05
1.85343e-08
1.59541e-05
-1.59546e-05
1.90308e-08
1.54874e-05
-1.54879e-05
1.95295e-08
1.50355e-05
-1.5036e-05
2.00298e-08
1.45977e-05
-1.45982e-05
2.05314e-08
1.41737e-05
-1.41742e-05
2.10392e-08
1.37629e-05
-1.37634e-05
2.15494e-08
1.33649e-05
-1.33654e-05
2.20653e-08
1.29792e-05
-1.29797e-05
2.2588e-08
1.26054e-05
-1.26059e-05
2.31153e-08
1.2243e-05
-1.22436e-05
2.36496e-08
1.18918e-05
-1.18924e-05
2.41911e-08
1.15513e-05
-1.15519e-05
2.47398e-08
1.12212e-05
-1.12218e-05
2.5298e-08
1.09011e-05
-1.09016e-05
2.5863e-08
1.05906e-05
-1.05912e-05
2.64382e-08
1.02895e-05
-1.02901e-05
2.70209e-08
9.99744e-06
-9.99802e-06
2.76143e-08
9.7141e-06
-9.7147e-06
2.82177e-08
9.43923e-06
-9.43983e-06
2.88287e-08
9.17254e-06
-9.17315e-06
2.94504e-08
8.91378e-06
-8.9144e-06
3.00802e-08
8.66269e-06
-8.66332e-06
3.07209e-08
8.41902e-06
-8.41966e-06
3.13689e-08
8.18254e-06
-8.18319e-06
3.20267e-08
7.953e-06
-7.95366e-06
3.26942e-08
7.73016e-06
-7.73082e-06
3.33698e-08
7.51376e-06
-7.51443e-06
3.40562e-08
7.30356e-06
-7.30425e-06
3.47506e-08
7.09932e-06
-7.10002e-06
3.54475e-08
6.90085e-06
-6.90154e-06
3.61375e-08
6.70799e-06
-6.70868e-06
3.68056e-08
6.52072e-06
-6.52139e-06
3.74317e-08
6.33909e-06
-6.33971e-06
3.79946e-08
6.16325e-06
-6.16381e-06
3.84822e-08
5.99337e-06
-5.99386e-06
3.88891e-08
5.82953e-06
-5.82994e-06
3.92254e-08
5.67153e-06
-5.67187e-06
3.95019e-08
5.51881e-06
-5.51909e-06
3.97242e-08
5.37075e-06
-5.37098e-06
3.98981e-08
5.22702e-06
-5.2272e-06
4.00274e-08
5.08749e-06
-5.08762e-06
4.01131e-08
4.95203e-06
-4.95212e-06
4.01585e-08
4.82051e-06
-4.82056e-06
4.69282e-06
-4.69282e-06
-3.22823e-09
2.60531e-05
-3.19064e-09
2.62735e-05
-3.13457e-09
2.64927e-05
-3.05971e-09
2.67105e-05
-2.96378e-09
2.69267e-05
-2.84697e-09
2.71411e-05
-2.70825e-09
2.73534e-05
-2.55071e-09
2.75636e-05
-2.36773e-09
2.77713e-05
-2.16227e-09
2.79763e-05
-1.93226e-09
2.81784e-05
-1.6793e-09
2.83773e-05
-1.40235e-09
2.85727e-05
-1.10056e-09
2.87643e-05
-7.70413e-10
2.89519e-05
-4.15112e-10
2.9135e-05
-3.25854e-11
2.93135e-05
3.77809e-10
2.94869e-05
8.14155e-10
2.96548e-05
1.27816e-09
2.98169e-05
1.77126e-09
2.99727e-05
2.29025e-09
3.01219e-05
2.83968e-09
3.02639e-05
3.41598e-09
3.03983e-05
4.0175e-09
3.05246e-05
4.64613e-09
3.06423e-05
5.29991e-09
3.07507e-05
5.9788e-09
3.08494e-05
6.66716e-09
3.04055e-05
7.35095e-09
2.94497e-05
8.0301e-09
2.85281e-05
8.70175e-09
2.76393e-05
9.36445e-09
2.6782e-05
1.00171e-08
2.59548e-05
1.06569e-08
2.51565e-05
1.12858e-08
2.43859e-05
1.19005e-08
2.36419e-05
1.25043e-08
2.29235e-05
1.30971e-08
2.22296e-05
1.36767e-08
2.15592e-05
1.42422e-08
2.09116e-05
1.4795e-08
2.02855e-05
1.53346e-08
1.968e-05
1.5866e-08
1.90941e-05
1.63894e-08
1.85271e-05
1.69102e-08
1.79784e-05
1.74276e-08
1.74473e-05
1.79436e-08
1.69332e-05
1.8461e-08
1.64355e-05
1.89778e-08
1.59535e-05
1.94961e-08
1.54869e-05
2.00166e-08
1.50349e-05
2.05407e-08
1.45972e-05
2.10706e-08
1.41732e-05
2.16036e-08
1.37624e-05
2.2142e-08
1.33643e-05
2.2686e-08
1.29786e-05
2.32366e-08
1.26048e-05
2.37939e-08
1.22425e-05
2.43586e-08
1.18913e-05
2.49309e-08
1.15508e-05
2.55129e-08
1.12206e-05
2.61019e-08
1.09005e-05
2.67012e-08
1.059e-05
2.73095e-08
1.02889e-05
2.79273e-08
9.99682e-06
2.85559e-08
9.71348e-06
2.91928e-08
9.43859e-06
2.98406e-08
9.17189e-06
3.04979e-08
8.91312e-06
3.11649e-08
8.66202e-06
3.18391e-08
8.41835e-06
3.25247e-08
8.18185e-06
3.32188e-08
7.95231e-06
3.39216e-08
7.72945e-06
3.46356e-08
7.51304e-06
3.53584e-08
7.30284e-06
3.60884e-08
7.09859e-06
3.68204e-08
6.90012e-06
3.7544e-08
6.70727e-06
3.82419e-08
6.52002e-06
3.88936e-08
6.33844e-06
3.94779e-08
6.16266e-06
3.99795e-08
5.99287e-06
4.03969e-08
5.82911e-06
4.07386e-08
5.67119e-06
4.10167e-08
5.51854e-06
4.12376e-08
5.37053e-06
4.14081e-08
5.22685e-06
4.15303e-08
5.08737e-06
4.16078e-08
4.95195e-06
4.16427e-08
4.82048e-06
4.69282e-06
-3.21419e-09
2.60531e-05
-3.17617e-09
2.62735e-05
-3.11858e-09
2.64926e-05
-3.04239e-09
2.67104e-05
-2.94765e-09
2.69266e-05
-2.8276e-09
2.71409e-05
-2.68832e-09
2.73533e-05
-2.52742e-09
2.75634e-05
-2.34243e-09
2.77711e-05
-2.138e-09
2.79761e-05
-1.90481e-09
2.81782e-05
-1.64751e-09
2.8377e-05
-1.36792e-09
2.85724e-05
-1.05982e-09
2.8764e-05
-7.25122e-10
2.89515e-05
-3.65807e-10
2.91347e-05
2.28372e-11
2.93131e-05
4.37412e-10
2.94864e-05
8.8109e-10
2.96543e-05
1.35391e-09
2.98164e-05
1.85273e-09
2.99722e-05
2.38111e-09
3.01214e-05
2.93672e-09
3.02634e-05
3.52046e-09
3.03978e-05
4.13181e-09
3.0524e-05
4.77015e-09
3.06417e-05
5.43444e-09
3.07501e-05
6.12376e-09
3.08487e-05
6.8218e-09
3.04048e-05
7.51913e-09
2.9449e-05
8.20932e-09
2.85274e-05
8.89152e-09
2.76387e-05
9.56325e-09
2.67813e-05
1.02255e-08
2.59541e-05
1.08774e-08
2.51558e-05
1.15167e-08
2.43853e-05
1.21459e-08
2.36413e-05
1.27634e-08
2.29229e-05
1.3366e-08
2.2229e-05
1.3958e-08
2.15587e-05
1.45353e-08
2.0911e-05
1.50994e-08
2.02849e-05
1.56543e-08
1.96794e-05
1.62002e-08
1.90935e-05
1.67411e-08
1.85266e-05
1.72798e-08
1.79779e-05
1.78158e-08
1.74468e-05
1.83517e-08
1.69327e-05
1.88886e-08
1.64349e-05
1.94271e-08
1.5953e-05
1.99705e-08
1.54863e-05
2.05159e-08
1.50344e-05
2.10657e-08
1.45966e-05
2.16201e-08
1.41726e-05
2.21808e-08
1.37618e-05
2.27463e-08
1.33638e-05
2.33197e-08
1.2978e-05
2.3899e-08
1.26042e-05
2.44871e-08
1.22419e-05
2.50839e-08
1.18907e-05
2.56896e-08
1.15502e-05
2.63033e-08
1.122e-05
2.6927e-08
1.08999e-05
2.75601e-08
1.05894e-05
2.82023e-08
1.02883e-05
2.88562e-08
9.99616e-06
2.95189e-08
9.71281e-06
3.01933e-08
9.43792e-06
3.08775e-08
9.17121e-06
3.15705e-08
8.91243e-06
3.22735e-08
8.66132e-06
3.29866e-08
8.41763e-06
3.37081e-08
8.18113e-06
3.4439e-08
7.95157e-06
3.51799e-08
7.72871e-06
3.59299e-08
7.51229e-06
3.66905e-08
7.30208e-06
3.74571e-08
7.09783e-06
3.82256e-08
6.89935e-06
3.89827e-08
6.70651e-06
3.97107e-08
6.51929e-06
4.03865e-08
6.33776e-06
4.0989e-08
6.16206e-06
4.1504e-08
5.99236e-06
4.19271e-08
5.82869e-06
4.2268e-08
5.67085e-06
4.25412e-08
5.51826e-06
4.27582e-08
5.37032e-06
4.29215e-08
5.22669e-06
4.30348e-08
5.08726e-06
4.31009e-08
4.95189e-06
4.31222e-08
4.82046e-06
4.69285e-06
-3.18588e-09
2.6053e-05
-3.14908e-09
2.62734e-05
-3.093e-09
2.64926e-05
-3.01665e-09
2.67103e-05
-2.91907e-09
2.69265e-05
-2.80198e-09
2.71408e-05
-2.66317e-09
2.73532e-05
-2.49872e-09
2.75633e-05
-2.31327e-09
2.77709e-05
-2.10194e-09
2.79759e-05
-1.86783e-09
2.81779e-05
-1.61011e-09
2.83768e-05
-1.32271e-09
2.85721e-05
-1.01024e-09
2.87637e-05
-6.7455e-10
2.89512e-05
-3.08276e-10
2.91343e-05
8.48273e-11
2.93127e-05
5.05601e-10
2.9486e-05
9.55309e-10
2.96539e-05
1.43342e-09
2.98159e-05
1.93983e-09
2.99717e-05
2.47572e-09
3.01208e-05
3.03995e-09
3.02628e-05
3.63188e-09
3.03972e-05
4.25239e-09
3.05234e-05
4.89938e-09
3.0641e-05
5.57307e-09
3.07494e-05
6.27008e-09
3.0848e-05
6.97935e-09
3.04041e-05
7.68586e-09
2.94483e-05
8.38622e-09
2.85267e-05
9.07855e-09
2.7638e-05
9.76335e-09
2.67807e-05
1.04375e-08
2.59535e-05
1.11019e-08
2.51552e-05
1.17523e-08
2.43846e-05
1.23924e-08
2.36407e-05
1.30209e-08
2.29222e-05
1.36367e-08
2.22284e-05
1.42402e-08
2.15581e-05
1.48295e-08
2.09104e-05
1.54074e-08
2.02843e-05
1.59759e-08
1.96788e-05
1.65379e-08
1.9093e-05
1.70973e-08
1.8526e-05
1.76521e-08
1.79773e-05
1.82087e-08
1.74462e-05
1.87648e-08
1.69321e-05
1.93238e-08
1.64344e-05
1.98856e-08
1.59524e-05
2.04507e-08
1.54858e-05
2.10214e-08
1.50338e-05
2.15978e-08
1.45961e-05
2.21784e-08
1.4172e-05
2.27665e-08
1.37612e-05
2.33619e-08
1.33632e-05
2.39641e-08
1.29774e-05
2.45758e-08
1.26036e-05
2.51957e-08
1.22413e-05
2.58237e-08
1.189e-05
2.64626e-08
1.15495e-05
2.711e-08
1.12194e-05
2.77674e-08
1.08992e-05
2.84358e-08
1.05887e-05
2.91151e-08
1.02876e-05
2.98043e-08
9.99548e-06
3.05044e-08
9.71211e-06
3.12143e-08
9.43721e-06
3.19353e-08
9.17049e-06
3.26668e-08
8.9117e-06
3.34074e-08
8.66058e-06
3.41579e-08
8.41688e-06
3.49169e-08
8.18037e-06
3.56864e-08
7.9508e-06
3.6465e-08
7.72793e-06
3.72539e-08
7.51151e-06
3.80515e-08
7.30128e-06
3.88569e-08
7.09702e-06
3.96602e-08
6.89854e-06
4.04487e-08
6.70573e-06
4.1205e-08
6.51854e-06
4.1904e-08
6.33706e-06
4.25234e-08
6.16144e-06
4.30453e-08
5.99184e-06
4.34702e-08
5.82827e-06
4.38059e-08
5.67051e-06
4.40711e-08
5.518e-06
4.4279e-08
5.37011e-06
4.44323e-08
5.22654e-06
4.45346e-08
5.08715e-06
4.45869e-08
4.95184e-06
4.45916e-08
4.82045e-06
4.69289e-06
-3.14962e-09
2.6053e-05
-3.11321e-09
2.62734e-05
-3.05763e-09
2.64925e-05
-2.97934e-09
2.67103e-05
-2.88169e-09
2.69264e-05
-2.76385e-09
2.71407e-05
-2.6217e-09
2.7353e-05
-2.45892e-09
2.75631e-05
-2.27175e-09
2.77707e-05
-2.05789e-09
2.79757e-05
-1.82221e-09
2.81777e-05
-1.5584e-09
2.83765e-05
-1.27127e-09
2.85718e-05
-9.57295e-10
2.87634e-05
-6.13251e-10
2.89508e-05
-2.44159e-10
2.91339e-05
1.53283e-10
2.93123e-05
5.80748e-10
2.94856e-05
1.03482e-09
2.96534e-05
1.51911e-09
2.98154e-05
2.03264e-09
2.99712e-05
2.57537e-09
3.01203e-05
3.14799e-09
3.02622e-05
3.74671e-09
3.03966e-05
4.37663e-09
3.05228e-05
5.0323e-09
3.06404e-05
5.71277e-09
3.07487e-05
6.42106e-09
3.08473e-05
7.14198e-09
3.04034e-05
7.85728e-09
2.94476e-05
8.56786e-09
2.8526e-05
9.27176e-09
2.76373e-05
9.96726e-09
2.678e-05
1.06511e-08
2.59528e-05
1.13245e-08
2.51545e-05
1.19898e-08
2.43839e-05
1.26406e-08
2.364e-05
1.32807e-08
2.29216e-05
1.39095e-08
2.22277e-05
1.45236e-08
2.15574e-05
1.51262e-08
2.09098e-05
1.57175e-08
2.02837e-05
1.63012e-08
1.96782e-05
1.68795e-08
1.90924e-05
1.7453e-08
1.85255e-05
1.80285e-08
1.79768e-05
1.86031e-08
1.74457e-05
1.91812e-08
1.69315e-05
1.9762e-08
1.64338e-05
2.03467e-08
1.59519e-05
2.09378e-08
1.54852e-05
2.15329e-08
1.50332e-05
2.21345e-08
1.45955e-05
2.27448e-08
1.41714e-05
2.33607e-08
1.37606e-05
2.3986e-08
1.33625e-05
2.46199e-08
1.29768e-05
2.52622e-08
1.2603e-05
2.59136e-08
1.22406e-05
2.65755e-08
1.18894e-05
2.72462e-08
1.15489e-05
2.79297e-08
1.12187e-05
2.86231e-08
1.08985e-05
2.93273e-08
1.0588e-05
3.00422e-08
1.02869e-05
3.07679e-08
9.99475e-06
3.15055e-08
9.71138e-06
3.22536e-08
9.43646e-06
3.30129e-08
9.16973e-06
3.37814e-08
8.91093e-06
3.45601e-08
8.6598e-06
3.5349e-08
8.41609e-06
3.61469e-08
8.17958e-06
3.69542e-08
7.95e-06
3.7771e-08
7.72712e-06
3.85982e-08
7.51068e-06
3.94345e-08
7.30044e-06
4.02747e-08
7.09618e-06
4.11135e-08
6.8977e-06
4.19353e-08
6.7049e-06
4.27173e-08
6.51776e-06
4.34367e-08
6.33634e-06
4.40681e-08
6.16081e-06
4.45966e-08
5.99131e-06
4.50186e-08
5.82784e-06
4.53456e-08
5.67018e-06
4.55992e-08
5.51774e-06
4.57951e-08
5.36991e-06
4.59353e-08
5.2264e-06
4.60221e-08
5.08707e-06
4.60575e-08
4.9518e-06
4.60439e-08
4.82046e-06
4.69295e-06
-3.10447e-09
2.6053e-05
-3.06673e-09
2.62734e-05
-3.01233e-09
2.64925e-05
-2.93581e-09
2.67102e-05
-2.83782e-09
2.69263e-05
-2.71762e-09
2.71406e-05
-2.57562e-09
2.73529e-05
-2.40827e-09
2.75629e-05
-2.22041e-09
2.77706e-05
-2.00563e-09
2.79755e-05
-1.76743e-09
2.81775e-05
-1.50382e-09
2.83762e-05
-1.21134e-09
2.85715e-05
-8.92359e-10
2.8763e-05
-5.46415e-10
2.89505e-05
-1.7144e-10
2.91336e-05
2.31549e-10
2.93119e-05
6.61255e-10
2.94852e-05
1.12319e-09
2.9653e-05
1.61379e-09
2.9815e-05
2.13383e-09
2.99707e-05
2.68335e-09
3.01197e-05
3.25963e-09
3.02617e-05
3.86797e-09
3.0396e-05
4.50407e-09
3.05221e-05
5.16708e-09
3.06397e-05
5.8591e-09
3.0748e-05
6.57665e-09
3.08465e-05
7.30488e-09
3.04027e-05
8.03056e-09
2.94469e-05
8.75115e-09
2.85253e-05
9.46467e-09
2.76366e-05
1.01684e-08
2.67793e-05
1.08651e-08
2.59521e-05
1.15507e-08
2.51538e-05
1.22237e-08
2.43833e-05
1.28893e-08
2.36393e-05
1.35392e-08
2.2921e-05
1.41798e-08
2.22271e-05
1.48073e-08
2.15568e-05
1.54215e-08
2.09092e-05
1.60262e-08
2.02831e-05
1.6625e-08
1.96776e-05
1.72202e-08
1.90918e-05
1.78131e-08
1.85249e-05
1.84056e-08
1.79762e-05
1.90024e-08
1.74451e-05
1.96003e-08
1.69309e-05
2.02031e-08
1.64332e-05
2.08133e-08
1.59513e-05
2.1427e-08
1.54846e-05
2.20498e-08
1.50326e-05
2.2679e-08
1.45948e-05
2.33154e-08
1.41708e-05
2.39621e-08
1.37599e-05
2.46173e-08
1.33619e-05
2.52816e-08
1.29761e-05
2.59557e-08
1.26023e-05
2.66406e-08
1.22399e-05
2.73365e-08
1.18887e-05
2.80434e-08
1.15482e-05
2.87597e-08
1.1218e-05
2.94895e-08
1.08978e-05
3.02294e-08
1.05873e-05
3.09811e-08
1.02861e-05
3.17457e-08
9.99399e-06
3.25209e-08
9.7106e-06
3.33069e-08
9.43567e-06
3.41036e-08
9.16893e-06
3.4912e-08
8.91012e-06
3.57299e-08
8.65898e-06
3.65566e-08
8.41527e-06
3.73926e-08
8.17874e-06
3.82379e-08
7.94915e-06
3.90941e-08
7.72626e-06
3.99602e-08
7.50981e-06
4.08332e-08
7.29957e-06
4.1711e-08
7.0953e-06
4.25827e-08
6.89683e-06
4.34345e-08
6.70405e-06
4.42423e-08
6.51695e-06
4.49797e-08
6.3356e-06
4.56212e-08
6.16017e-06
4.61509e-08
5.99078e-06
4.65669e-08
5.82743e-06
4.68803e-08
5.66987e-06
4.7118e-08
5.51751e-06
4.72989e-08
5.36973e-06
4.74231e-08
5.22627e-06
4.7492e-08
5.087e-06
4.75083e-08
4.95178e-06
4.74715e-08
4.8205e-06
4.69304e-06
-3.04644e-09
2.6053e-05
-3.01177e-09
2.62733e-05
-2.95553e-09
2.64924e-05
-2.87985e-09
2.67101e-05
-2.78111e-09
2.69262e-05
-2.65981e-09
2.71405e-05
-2.51689e-09
2.73527e-05
-2.35258e-09
2.75628e-05
-2.15952e-09
2.77704e-05
-1.94534e-09
2.79753e-05
-1.70248e-09
2.81772e-05
-1.43325e-09
2.8376e-05
-1.13969e-09
2.85712e-05
-8.17476e-10
2.87627e-05
-4.68693e-10
2.89502e-05
-9.17572e-11
2.91332e-05
3.14815e-10
2.93115e-05
7.52552e-10
2.94847e-05
1.21893e-09
2.96525e-05
1.71259e-09
2.98145e-05
2.23842e-09
2.99702e-05
2.79253e-09
3.01192e-05
3.37897e-09
3.02611e-05
3.99486e-09
3.03953e-05
4.63582e-09
3.05215e-05
5.30889e-09
3.0639e-05
6.00824e-09
3.07473e-05
6.73355e-09
3.08458e-05
7.47104e-09
3.04019e-05
8.20614e-09
2.94461e-05
8.93638e-09
2.85246e-05
9.6595e-09
2.76358e-05
1.03748e-08
2.67785e-05
1.10801e-08
2.59514e-05
1.17761e-08
2.51531e-05
1.2463e-08
2.43826e-05
1.31363e-08
2.36387e-05
1.38e-08
2.29203e-05
1.44517e-08
2.22264e-05
1.50906e-08
2.15562e-05
1.57185e-08
2.09085e-05
1.63361e-08
2.02825e-05
1.69502e-08
1.9677e-05
1.7561e-08
1.90912e-05
1.8173e-08
1.85243e-05
1.87848e-08
1.79756e-05
1.93996e-08
1.74445e-05
2.00206e-08
1.69303e-05
2.06479e-08
1.64326e-05
2.128e-08
1.59506e-05
2.192e-08
1.54839e-05
2.25687e-08
1.5032e-05
2.32259e-08
1.45942e-05
2.38921e-08
1.41701e-05
2.45679e-08
1.37593e-05
2.52524e-08
1.33612e-05
2.59497e-08
1.29754e-05
2.66574e-08
1.26016e-05
2.73752e-08
1.22392e-05
2.81056e-08
1.1888e-05
2.88462e-08
1.15474e-05
2.96007e-08
1.12172e-05
3.03653e-08
1.0897e-05
3.11429e-08
1.05865e-05
3.19331e-08
1.02853e-05
3.27344e-08
9.99318e-06
3.35469e-08
9.70979e-06
3.43726e-08
9.43485e-06
3.52084e-08
9.1681e-06
3.60553e-08
8.90927e-06
3.69118e-08
8.65812e-06
3.77775e-08
8.4144e-06
3.86524e-08
8.17786e-06
3.95375e-08
7.94827e-06
4.04313e-08
7.72537e-06
4.13338e-08
7.50891e-06
4.22447e-08
7.29866e-06
4.31591e-08
7.09439e-06
4.40645e-08
6.89593e-06
4.49435e-08
6.70317e-06
4.57745e-08
6.51612e-06
4.65259e-08
6.33485e-06
4.71737e-08
6.15952e-06
4.7701e-08
5.99025e-06
4.81065e-08
5.82702e-06
4.84029e-08
5.66957e-06
4.86232e-08
5.51729e-06
4.87835e-08
5.36957e-06
4.8888e-08
5.22617e-06
4.89357e-08
5.08695e-06
4.89288e-08
4.95179e-06
4.88681e-08
4.82056e-06
4.69315e-06
-2.98121e-09
2.6053e-05
-2.94596e-09
2.62733e-05
-2.88777e-09
2.64924e-05
-2.81202e-09
2.671e-05
-2.71469e-09
2.69261e-05
-2.59376e-09
2.71403e-05
-2.44987e-09
2.73526e-05
-2.28108e-09
2.75626e-05
-2.08936e-09
2.77702e-05
-1.8717e-09
2.7975e-05
-1.62878e-09
2.8177e-05
-1.36021e-09
2.83757e-05
-1.06293e-09
2.85709e-05
-7.39108e-10
2.87624e-05
-3.84585e-10
2.89498e-05
-2.04935e-12
2.91328e-05
4.09068e-10
2.93111e-05
8.48631e-10
2.94843e-05
1.31793e-09
2.9652e-05
1.82039e-09
2.9814e-05
2.34971e-09
2.99696e-05
2.91263e-09
3.01186e-05
3.50258e-09
3.02605e-05
4.12351e-09
3.03947e-05
4.77473e-09
3.05209e-05
5.45343e-09
3.06383e-05
6.1609e-09
3.07466e-05
6.89217e-09
3.08451e-05
7.63937e-09
3.04012e-05
8.38367e-09
2.94454e-05
9.12149e-09
2.85238e-05
9.8549e-09
2.76351e-05
1.05809e-08
2.67778e-05
1.1297e-08
2.59507e-05
1.20022e-08
2.51524e-05
1.26994e-08
2.43819e-05
1.33857e-08
2.3638e-05
1.40606e-08
2.29196e-05
1.47229e-08
2.22258e-05
1.53744e-08
2.15555e-05
1.60121e-08
2.09079e-05
1.66441e-08
2.02819e-05
1.72726e-08
1.96764e-05
1.79019e-08
1.90906e-05
1.85303e-08
1.85236e-05
1.9163e-08
1.79749e-05
1.97997e-08
1.74438e-05
2.04427e-08
1.69297e-05
2.10913e-08
1.64319e-05
2.17487e-08
1.595e-05
2.24158e-08
1.54833e-05
2.30897e-08
1.50313e-05
2.3775e-08
1.45935e-05
2.44707e-08
1.41694e-05
2.51764e-08
1.37586e-05
2.58939e-08
1.33605e-05
2.66224e-08
1.29747e-05
2.73628e-08
1.26009e-05
2.81155e-08
1.22385e-05
2.88793e-08
1.18872e-05
2.96581e-08
1.15466e-05
3.04471e-08
1.12164e-05
3.12499e-08
1.08962e-05
3.20652e-08
1.05857e-05
3.28924e-08
1.02845e-05
3.37315e-08
9.99234e-06
3.45845e-08
9.70893e-06
3.54481e-08
9.43399e-06
3.63229e-08
9.16722e-06
3.7207e-08
8.90839e-06
3.81026e-08
8.65723e-06
3.90074e-08
8.4135e-06
3.99218e-08
8.17695e-06
4.08443e-08
7.94734e-06
4.17765e-08
7.72443e-06
4.2718e-08
7.50797e-06
4.36656e-08
7.29771e-06
4.46127e-08
7.09344e-06
4.55497e-08
6.89499e-06
4.64572e-08
6.70227e-06
4.73064e-08
6.51527e-06
4.80709e-08
6.33409e-06
4.8721e-08
6.15887e-06
4.92413e-08
5.98973e-06
4.96306e-08
5.82663e-06
4.99066e-08
5.6693e-06
5.01028e-08
5.51709e-06
5.0242e-08
5.36943e-06
5.03234e-08
5.22609e-06
5.03467e-08
5.08693e-06
5.03132e-08
4.95182e-06
5.02235e-08
4.82065e-06
4.69329e-06
-2.90518e-09
2.6053e-05
-2.86896e-09
2.62732e-05
-2.81193e-09
2.64923e-05
-2.73477e-09
2.671e-05
-2.63691e-09
2.6926e-05
-2.51594e-09
2.71402e-05
-2.37141e-09
2.73524e-05
-2.20291e-09
2.75624e-05
-2.00969e-09
2.777e-05
-1.79011e-09
2.79748e-05
-1.54511e-09
2.81767e-05
-1.27293e-09
2.83754e-05
-9.73268e-10
2.85706e-05
-6.46199e-10
2.87621e-05
-2.91281e-10
2.89494e-05
9.42673e-11
2.91324e-05
5.09044e-10
2.93107e-05
9.54147e-10
2.94838e-05
1.42827e-09
2.96516e-05
1.93351e-09
2.98135e-05
2.46967e-09
2.99691e-05
3.03584e-09
3.0118e-05
3.63288e-09
3.02599e-05
4.25853e-09
3.03941e-05
4.91625e-09
3.05202e-05
5.60041e-09
3.06377e-05
6.31411e-09
3.07459e-05
7.05773e-09
3.08443e-05
7.81106e-09
3.04004e-05
8.56375e-09
2.94446e-05
9.31098e-09
2.85231e-05
1.00517e-08
2.76344e-05
1.0785e-08
2.67771e-05
1.15121e-08
2.59499e-05
1.22299e-08
2.51517e-05
1.29363e-08
2.43812e-05
1.36322e-08
2.36373e-05
1.43186e-08
2.29189e-05
1.49925e-08
2.22251e-05
1.56553e-08
2.15549e-05
1.63057e-08
2.09073e-05
1.69504e-08
2.02812e-05
1.75955e-08
1.96758e-05
1.82408e-08
1.90899e-05
1.88886e-08
1.8523e-05
1.95403e-08
1.79743e-05
2.01975e-08
1.74432e-05
2.08622e-08
1.6929e-05
2.15353e-08
1.64312e-05
2.22177e-08
1.59493e-05
2.29098e-08
1.54826e-05
2.36129e-08
1.50306e-05
2.43258e-08
1.45928e-05
2.50514e-08
1.41687e-05
2.57883e-08
1.37578e-05
2.65377e-08
1.33597e-05
2.72983e-08
1.2974e-05
2.8072e-08
1.26001e-05
2.88596e-08
1.22377e-05
2.96598e-08
1.18864e-05
3.04721e-08
1.15458e-05
3.12986e-08
1.12156e-05
3.21388e-08
1.08954e-05
3.29912e-08
1.05848e-05
3.38564e-08
1.02836e-05
3.47364e-08
9.99147e-06
3.56265e-08
9.70804e-06
3.65288e-08
9.43308e-06
3.74431e-08
9.16631e-06
3.83675e-08
8.90746e-06
3.9301e-08
8.65629e-06
4.02448e-08
8.41255e-06
4.11965e-08
8.176e-06
4.21573e-08
7.94638e-06
4.3128e-08
7.72346e-06
4.41048e-08
7.50699e-06
4.50895e-08
7.29673e-06
4.60709e-08
7.09246e-06
4.70379e-08
6.89402e-06
4.7968e-08
6.70134e-06
4.88357e-08
6.5144e-06
4.96075e-08
6.33332e-06
5.02563e-08
6.15822e-06
5.07642e-08
5.98922e-06
5.11324e-08
5.82626e-06
5.13834e-08
5.66905e-06
5.1553e-08
5.51692e-06
5.16662e-08
5.36932e-06
5.17199e-08
5.22603e-06
5.17156e-08
5.08693e-06
5.16519e-08
4.95189e-06
5.15314e-08
4.82077e-06
4.69347e-06
-2.8152e-09
2.60529e-05
-2.77885e-09
2.62732e-05
-2.72579e-09
2.64923e-05
-2.64782e-09
2.67099e-05
-2.54868e-09
2.69259e-05
-2.42789e-09
2.71401e-05
-2.28311e-09
2.73523e-05
-2.11271e-09
2.75623e-05
-1.91788e-09
2.77698e-05
-1.69795e-09
2.79746e-05
-1.453e-09
2.81765e-05
-1.17722e-09
2.83751e-05
-8.76123e-10
2.85703e-05
-5.4629e-10
2.87617e-05
-1.87064e-10
2.89491e-05
2.00486e-10
2.9132e-05
6.17659e-10
2.93103e-05
1.06663e-09
2.94834e-05
1.54582e-09
2.96511e-05
2.0538e-09
2.98129e-05
2.59456e-09
2.99686e-05
3.16422e-09
3.01175e-05
3.76641e-09
3.02593e-05
4.39909e-09
3.03935e-05
5.06085e-09
3.05195e-05
5.75397e-09
3.0637e-05
6.4733e-09
3.07452e-05
7.22083e-09
3.08436e-05
7.9839e-09
3.03997e-05
8.74152e-09
2.94439e-05
9.49856e-09
2.85223e-05
1.02483e-08
2.76336e-05
1.09929e-08
2.67763e-05
1.17277e-08
2.59492e-05
1.24542e-08
2.5151e-05
1.31711e-08
2.43805e-05
1.38784e-08
2.36366e-05
1.45749e-08
2.29182e-05
1.52619e-08
2.22244e-05
1.59333e-08
2.15542e-05
1.65965e-08
2.09066e-05
1.72559e-08
2.02806e-05
1.79155e-08
1.96751e-05
1.85766e-08
1.90893e-05
1.92439e-08
1.85223e-05
1.99145e-08
1.79736e-05
2.05939e-08
1.74425e-05
2.12815e-08
1.69283e-05
2.19791e-08
1.64305e-05
2.26864e-08
1.59486e-05
2.34047e-08
1.54818e-05
2.41352e-08
1.50298e-05
2.48775e-08
1.4592e-05
2.56317e-08
1.41679e-05
2.63997e-08
1.37571e-05
2.71801e-08
1.33589e-05
2.79748e-08
1.29732e-05
2.87836e-08
1.25993e-05
2.96044e-08
1.22369e-05
3.04405e-08
1.18856e-05
3.12902e-08
1.1545e-05
3.21534e-08
1.12147e-05
3.30302e-08
1.08945e-05
3.3921e-08
1.05839e-05
3.48256e-08
1.02827e-05
3.57418e-08
9.99055e-06
3.66711e-08
9.70712e-06
3.76129e-08
9.43214e-06
3.85652e-08
9.16536e-06
3.95281e-08
8.9065e-06
4.05013e-08
8.65532e-06
4.14825e-08
8.41157e-06
4.24727e-08
8.17501e-06
4.34726e-08
7.94538e-06
4.44788e-08
7.72246e-06
4.54938e-08
7.50598e-06
4.65113e-08
7.29571e-06
4.75249e-08
7.09145e-06
4.85199e-08
6.89303e-06
4.94731e-08
6.70038e-06
5.03542e-08
6.51352e-06
5.11299e-08
6.33254e-06
5.17711e-08
6.15758e-06
5.22603e-08
5.98873e-06
5.26031e-08
5.82592e-06
5.28229e-08
5.66883e-06
5.2964e-08
5.51678e-06
5.30476e-08
5.36923e-06
5.30709e-08
5.22601e-06
5.30342e-08
5.08697e-06
5.29378e-08
4.95198e-06
5.2782e-08
4.82093e-06
4.69369e-06
-2.71738e-09
2.60529e-05
-2.68045e-09
2.62732e-05
-2.62414e-09
2.64922e-05
-2.54886e-09
2.67098e-05
-2.44958e-09
2.69258e-05
-2.32855e-09
2.714e-05
-2.18278e-09
2.73522e-05
-2.01163e-09
2.75621e-05
-1.81657e-09
2.77696e-05
-1.5959e-09
2.79744e-05
-1.34673e-09
2.81762e-05
-1.07179e-09
2.83749e-05
-7.68244e-10
2.857e-05
-4.36356e-10
2.87614e-05
-7.60141e-11
2.89487e-05
3.15237e-10
2.91316e-05
7.35475e-10
2.93098e-05
1.18505e-09
2.94829e-05
1.66792e-09
2.96506e-05
2.18008e-09
2.98124e-05
2.72574e-09
2.9968e-05
3.30027e-09
3.01169e-05
3.9065e-09
3.02587e-05
4.54414e-09
3.03928e-05
5.21115e-09
3.05189e-05
5.90703e-09
3.06363e-05
6.63471e-09
3.07445e-05
7.38874e-09
3.08428e-05
8.15658e-09
3.03989e-05
8.92568e-09
2.94431e-05
9.68775e-09
2.85216e-05
1.04466e-08
2.76328e-05
1.1197e-08
2.67756e-05
1.19414e-08
2.59485e-05
1.2678e-08
2.51502e-05
1.34046e-08
2.43797e-05
1.41238e-08
2.36359e-05
1.48311e-08
2.29175e-05
1.5526e-08
2.22237e-05
1.62103e-08
2.15535e-05
1.68847e-08
2.09059e-05
1.75564e-08
2.02799e-05
1.82312e-08
1.96744e-05
1.89104e-08
1.90886e-05
1.95947e-08
1.85216e-05
2.0287e-08
1.79729e-05
2.09867e-08
1.74418e-05
2.16966e-08
1.69276e-05
2.24182e-08
1.64298e-05
2.31511e-08
1.59478e-05
2.3896e-08
1.54811e-05
2.46537e-08
1.50291e-05
2.54259e-08
1.45913e-05
2.62106e-08
1.41672e-05
2.70102e-08
1.37563e-05
2.78231e-08
1.33581e-05
2.86503e-08
1.29723e-05
2.94924e-08
1.25984e-05
3.03494e-08
1.2236e-05
3.12212e-08
1.18847e-05
3.2107e-08
1.15441e-05
3.30072e-08
1.12138e-05
3.39217e-08
1.08936e-05
3.48503e-08
1.0583e-05
3.57924e-08
1.02818e-05
3.67478e-08
9.98959e-06
3.77163e-08
9.70615e-06
3.86961e-08
9.43116e-06
3.96877e-08
9.16436e-06
4.06895e-08
8.9055e-06
4.16999e-08
8.65431e-06
4.27192e-08
8.41055e-06
4.37475e-08
8.17398e-06
4.47822e-08
7.94435e-06
4.58269e-08
7.72141e-06
4.68767e-08
7.50493e-06
4.79279e-08
7.29466e-06
4.89727e-08
7.0904e-06
4.99926e-08
6.89201e-06
5.09641e-08
6.69941e-06
5.18557e-08
6.51263e-06
5.26311e-08
6.33176e-06
5.32602e-08
6.15695e-06
5.37267e-08
5.98827e-06
5.40341e-08
5.82561e-06
5.42193e-08
5.66864e-06
5.43275e-08
5.51667e-06
5.43774e-08
5.36919e-06
5.43663e-08
5.22602e-06
5.42943e-08
5.08704e-06
5.416e-08
4.95212e-06
5.39652e-08
4.82112e-06
4.69394e-06
-2.60515e-09
2.60529e-05
-2.57232e-09
2.62731e-05
-2.51616e-09
2.64921e-05
-2.43856e-09
2.67097e-05
-2.34181e-09
2.69257e-05
-2.21826e-09
2.71399e-05
-2.0721e-09
2.7352e-05
-1.90312e-09
2.75619e-05
-1.70542e-09
2.77694e-05
-1.48337e-09
2.79742e-05
-1.2329e-09
2.8176e-05
-9.56813e-10
2.83746e-05
-6.51123e-10
2.85697e-05
-3.17416e-10
2.87611e-05
4.41683e-11
2.89484e-05
4.37209e-10
2.91312e-05
8.60051e-10
2.93094e-05
1.31568e-09
2.94825e-05
1.79891e-09
2.96501e-05
2.31635e-09
2.98119e-05
2.86219e-09
2.99675e-05
3.44157e-09
3.01163e-05
4.05204e-09
3.02581e-05
4.6915e-09
3.03922e-05
5.36394e-09
3.05182e-05
6.06573e-09
3.06356e-05
6.79719e-09
3.07437e-05
7.55883e-09
3.08421e-05
8.33351e-09
3.03981e-05
9.1058e-09
2.94423e-05
9.87687e-09
2.85208e-05
1.06421e-08
2.76321e-05
1.14025e-08
2.67748e-05
1.21547e-08
2.59477e-05
1.29006e-08
2.51495e-05
1.3637e-08
2.4379e-05
1.4364e-08
2.36351e-05
1.50814e-08
2.29168e-05
1.57896e-08
2.2223e-05
1.64822e-08
2.15528e-05
1.71674e-08
2.09052e-05
1.78534e-08
2.02792e-05
1.85425e-08
1.96737e-05
1.92389e-08
1.90879e-05
1.99415e-08
1.85209e-05
2.06528e-08
1.79722e-05
2.13749e-08
1.74411e-05
2.21078e-08
1.69269e-05
2.28519e-08
1.64291e-05
2.36103e-08
1.59471e-05
2.43831e-08
1.54803e-05
2.51689e-08
1.50283e-05
2.59695e-08
1.45905e-05
2.67855e-08
1.41663e-05
2.76145e-08
1.37554e-05
2.84612e-08
1.33573e-05
2.93225e-08
1.29715e-05
3.01988e-08
1.25976e-05
3.10908e-08
1.22351e-05
3.19967e-08
1.18838e-05
3.29186e-08
1.15432e-05
3.38567e-08
1.12129e-05
3.48088e-08
1.08926e-05
3.57755e-08
1.0582e-05
3.67557e-08
1.02808e-05
3.77496e-08
9.9886e-06
3.87557e-08
9.70514e-06
3.97745e-08
9.43014e-06
4.08031e-08
9.16334e-06
4.1843e-08
8.90446e-06
4.28914e-08
8.65326e-06
4.39486e-08
8.40949e-06
4.50134e-08
8.17292e-06
4.60855e-08
7.94328e-06
4.71637e-08
7.72033e-06
4.82482e-08
7.50384e-06
4.93327e-08
7.29357e-06
5.04054e-08
7.08933e-06
5.14487e-08
6.89097e-06
5.24363e-08
6.69842e-06
5.33336e-08
6.51173e-06
5.41041e-08
6.33099e-06
5.47157e-08
6.15634e-06
5.51527e-08
5.98783e-06
5.54211e-08
5.82535e-06
5.55658e-08
5.6685e-06
5.56365e-08
5.5166e-06
5.56475e-08
5.36917e-06
5.55974e-08
5.22607e-06
5.54839e-08
5.08715e-06
5.53091e-08
4.95229e-06
5.50717e-08
4.82136e-06
4.69424e-06
-2.48415e-09
2.60529e-05
-2.4486e-09
2.62731e-05
-2.39484e-09
2.64921e-05
-2.31916e-09
2.67097e-05
-2.21927e-09
2.69256e-05
-2.09961e-09
2.71397e-05
-1.95133e-09
2.73519e-05
-1.7803e-09
2.75618e-05
-1.58518e-09
2.77692e-05
-1.36069e-09
2.79739e-05
-1.10959e-09
2.81757e-05
-8.32293e-10
2.83743e-05
-5.26119e-10
2.85694e-05
-1.90521e-10
2.87607e-05
1.75841e-10
2.8948e-05
5.68304e-10
2.91309e-05
9.94245e-10
2.9309e-05
1.44914e-09
2.9482e-05
1.93716e-09
2.96496e-05
2.45508e-09
2.98114e-05
3.00568e-09
2.99669e-05
3.58746e-09
3.01157e-05
4.19965e-09
3.02574e-05
4.84542e-09
3.03915e-05
5.52064e-09
3.05175e-05
6.22713e-09
3.06349e-05
6.9641e-09
3.0743e-05
7.72864e-09
3.08413e-05
8.50908e-09
3.03973e-05
9.28824e-09
2.94415e-05
1.00643e-08
2.852e-05
1.08375e-08
2.76313e-05
1.16036e-08
2.67741e-05
1.23656e-08
2.59469e-05
1.31185e-08
2.51487e-05
1.38647e-08
2.43783e-05
1.46022e-08
2.36344e-05
1.53295e-08
2.29161e-05
1.60452e-08
2.22223e-05
1.67491e-08
2.15521e-05
1.74442e-08
2.09045e-05
1.81425e-08
2.02785e-05
1.88476e-08
1.9673e-05
1.95593e-08
1.90872e-05
2.02812e-08
1.85202e-05
2.10132e-08
1.79715e-05
2.1756e-08
1.74403e-05
2.25119e-08
1.69261e-05
2.32818e-08
1.64283e-05
2.40649e-08
1.59463e-05
2.48631e-08
1.54795e-05
2.56771e-08
1.50275e-05
2.65068e-08
1.45896e-05
2.73529e-08
1.41655e-05
2.82154e-08
1.37546e-05
2.90931e-08
1.33564e-05
2.99873e-08
1.29706e-05
3.0897e-08
1.25966e-05
3.18242e-08
1.22342e-05
3.27669e-08
1.18828e-05
3.37255e-08
1.15422e-05
3.46995e-08
1.12119e-05
3.56882e-08
1.08916e-05
3.66922e-08
1.0581e-05