/*--------------------------------*- C++ -*----------------------------------*\
  =========                 |
  \\      /  F ield         | OpenFOAM: The Open Source CFD Toolbox
   \\    /   O peration     | Website:  https://openfoam.org
    \\  /    A nd           | Version:  10
     \\/     M anipulation  |
\*---------------------------------------------------------------------------*/
FoamFile
{
    format      ascii;
    class       volVectorField;
    location    "69000";
    object      Urel;
}
// * * * * * * * * * * * * * * * * * * * * * * * * * * * * * * * * * * * * * //

dimensions      [0 1 -1 0 0 0 0];

internalField   nonuniform List<vector> 
17981
(
(0.168032 -0.463818 8.81613e-22)
(0.164251 -0.476347 -8.85791e-22)
(0.160535 -0.488599 0)
(0.156877 -0.500612 -5.62681e-21)
(0.153279 -0.512417 1.24212e-20)
(0.149744 -0.524048 -6.74536e-21)
(0.146273 -0.535531 0)
(0.142871 -0.546891 5.86344e-22)
(0.139538 -0.558149 0)
(0.13628 -0.569321 0)
(0.133098 -0.58042 -7.21242e-22)
(0.129996 -0.591456 1.33132e-20)
(0.126975 -0.602433 -1.20615e-20)
(0.124037 -0.613354 0)
(0.121185 -0.62422 0)
(0.118419 -0.63503 0)
(0.115739 -0.645778 0)
(0.113146 -0.656462 -1.36173e-20)
(0.110641 -0.667075 1.30439e-20)
(0.108222 -0.677611 2.70714e-20)
(0.105888 -0.688063 -2.55266e-20)
(0.103639 -0.698425 -4.09057e-22)
(0.101473 -0.70869 0)
(0.0993887 -0.718852 0)
(0.0973841 -0.728903 2.57038e-20)
(0.0954574 -0.738839 -2.42795e-20)
(0.0936065 -0.748653 2.49332e-20)
(0.0918294 -0.75834 -2.39503e-20)
(0.0901239 -0.767895 -3.72272e-22)
(0.0884876 -0.777315 0)
(0.0869184 -0.786594 1.79592e-22)
(0.085414 -0.795731 -1.76234e-22)
(0.0839721 -0.804721 -1.72842e-22)
(0.0825903 -0.813563 2.17e-20)
(0.0812666 -0.822254 -2.09013e-20)
(0.0799985 -0.830793 -1.62579e-22)
(0.0787841 -0.839178 0)
(0.0776212 -0.847409 0)
(0.0765076 -0.855484 1.52387e-22)
(0.0754414 -0.863404 -1.93405e-20)
(0.0744206 -0.871168 -8.82103e-23)
(0.0734434 -0.878778 1.7969e-20)
(0.0725077 -0.886232 6.95995e-23)
(0.071612 -0.893533 0)
(0.0707545 -0.900682 0)
(0.0699335 -0.907678 0)
(0.0691474 -0.914524 0)
(0.0683947 -0.921222 -1.60602e-20)
(0.191589 -0.444456 -5.30255e-21)
(0.187596 -0.456657 0)
(0.183668 -0.468585 -1.55687e-20)
(0.179805 -0.480281 3.84069e-20)
(0.176011 -0.491782 -2.18754e-20)
(0.172288 -0.503123 3.30627e-20)
(0.168641 -0.514336 -3.20278e-20)
(0.165073 -0.525449 5.86416e-22)
(0.161587 -0.536484 1.30967e-21)
(0.158189 -0.547462 -4.7512e-20)
(0.154879 -0.558395 9.47977e-20)
(0.151663 -0.569295 -4.86476e-20)
(0.148542 -0.580166 0)
(0.145519 -0.591011 1.64001e-21)
(0.142595 -0.60183 -5.51903e-20)
(0.13977 -0.61262 5.28444e-20)
(0.137045 -0.623376 5.60232e-20)
(0.134421 -0.634091 -5.36271e-20)
(0.131895 -0.644759 8.55539e-22)
(0.129468 -0.655371 0)
(0.127138 -0.665919 -4.25601e-22)
(0.124903 -0.676394 5.53227e-20)
(0.12276 -0.686789 -5.17791e-20)
(0.120709 -0.697093 5.44922e-20)
(0.118746 -0.707301 -1.04423e-19)
(0.116869 -0.717404 5.0406e-20)
(0.115076 -0.727395 -5.13688e-20)
(0.113362 -0.737267 4.93375e-20)
(0.111727 -0.747015 3.837e-22)
(0.110166 -0.756634 0)
(0.108678 -0.766117 1.85102e-22)
(0.107258 -0.775461 1.81624e-22)
(0.105906 -0.784663 -4.58455e-20)
(0.104617 -0.793718 4.44947e-20)
(0.103389 -0.802625 -5.13506e-22)
(0.10222 -0.81138 4.34199e-20)
(0.101106 -0.819981 -4.16989e-20)
(0.100046 -0.828428 0)
(0.0990376 -0.83672 4.03593e-20)
(0.0980776 -0.844855 -7.8259e-20)
(0.097164 -0.852832 3.77958e-20)
(0.0962947 -0.860653 -3.77099e-20)
(0.0954677 -0.868318 -6.41668e-22)
(0.0946809 -0.875826 3.55995e-20)
(0.0939324 -0.883179 0)
(0.0932204 -0.890377 0)
(0.0925431 -0.897422 1.30953e-22)
(0.0918987 -0.904315 -6.47524e-23)
(0.21344 -0.422905 0)
(0.209172 -0.434779 8.61491e-21)
(0.204977 -0.446386 -9.21174e-21)
(0.200856 -0.457769 2.23175e-20)
(0.196814 -0.46897 -2.32104e-20)
(0.192855 -0.480029 -1.86731e-21)
(0.188983 -0.490982 0)
(0.185204 -0.50186 -1.25177e-21)
(0.181522 -0.512689 -4.04335e-21)
(0.177942 -0.523491 0)
(0.174469 -0.534282 1.54166e-21)
(0.171105 -0.545071 3.1766e-21)
(0.167853 -0.555865 0)
(0.164716 -0.566666 -1.46355e-23)
(0.161695 -0.577471 1.71574e-21)
(0.158791 -0.588277 0)
(0.156003 -0.599077 1.15198e-19)
(0.15333 -0.609862 -1.08437e-19)
(0.150772 -0.620624 -1.16063e-19)
(0.148326 -0.631352 1.10222e-19)
(0.14599 -0.642035 -1.74477e-21)
(0.143762 -0.652664 0)
(0.14164 -0.663227 8.56246e-22)
(0.139619 -0.673715 -8.50252e-22)
(0.137696 -0.684118 8.38438e-22)
(0.135869 -0.694427 -1.06535e-19)
(0.134134 -0.704633 1.03059e-19)
(0.132488 -0.714728 -8.02598e-22)
(0.130926 -0.724706 0)
(0.129446 -0.734559 9.96338e-20)
(0.128043 -0.744281 2.37573e-21)
(0.126716 -0.753868 -9.55941e-20)
(0.125459 -0.763314 0)
(0.124271 -0.772615 0)
(0.123147 -0.781768 -9.1416e-20)
(0.122085 -0.790769 8.84622e-20)
(0.121082 -0.799617 -3.38658e-22)
(0.120134 -0.80831 0)
(0.119239 -0.816844 3.24525e-22)
(0.118395 -0.825221 -3.17114e-22)
(0.117598 -0.833438 -7.99616e-20)
(0.116847 -0.841496 7.72255e-20)
(0.116139 -0.849394 1.48249e-22)
(0.115471 -0.857133 -1.45367e-22)
(0.114841 -0.864713 -2.83653e-22)
(0.114248 -0.872135 0)
(0.11369 -0.879399 -1.35115e-22)
(0.113164 -0.886509 -6.89282e-20)
(0.215606 -0.444043 -1.41923e-21)
(0.211358 -0.454827 1.95385e-21)
(0.207212 -0.46553 7.77177e-20)
(0.203175 -0.476188 -1.61197e-19)
(0.199254 -0.486829 8.57937e-20)
(0.195453 -0.497479 -2.93776e-21)
(0.191778 -0.508153 1.0179e-19)
(0.188234 -0.518864 -1.03758e-19)
(0.184822 -0.529615 0)
(0.181546 -0.540408 -1.74202e-21)
(0.178407 -0.551239 1.14633e-19)
(0.175404 -0.562103 -1.11261e-19)
(0.172537 -0.57299 -1.14596e-19)
(0.169804 -0.583889 -9.01246e-21)
(0.167203 -0.59479 1.13192e-19)
(0.164732 -0.605678 -1.17686e-19)
(0.162387 -0.616543 1.12621e-19)
(0.160164 -0.62737 0)
(0.15806 -0.638147 1.12953e-19)
(0.156071 -0.648862 -2.23311e-19)
(0.154192 -0.659504 1.06122e-19)
(0.152419 -0.670062 1.09461e-19)
(0.150748 -0.680525 -1.04213e-19)
(0.149175 -0.690884 -8.24595e-22)
(0.147694 -0.701131 -1.05115e-19)
(0.146303 -0.711257 -6.26173e-22)
(0.144996 -0.721256 -3.63985e-21)
(0.143769 -0.731121 9.91388e-20)
(0.142619 -0.740847 9.76286e-20)
(0.141542 -0.750429 -1.89757e-19)
(0.140533 -0.759862 9.29646e-20)
(0.139589 -0.769142 -9.18986e-20)
(0.138707 -0.778268 8.89755e-20)
(0.137884 -0.787235 -8.81054e-20)
(0.137115 -0.796043 -2.2019e-21)
(0.136398 -0.804689 8.32435e-20)
(0.135731 -0.813173 9.61188e-22)
(0.13511 -0.821494 -8.03826e-20)
(0.134532 -0.829651 7.76673e-20)
(0.133995 -0.837645 2.99306e-22)
(0.133496 -0.845475 2.92554e-22)
(0.133034 -0.853143 7.33441e-20)
(0.132606 -0.86065 -7.12174e-20)
(0.13221 -0.867996 0)
(0.232266 -0.417071 -3.84672e-20)
(0.227672 -0.427589 -3.74473e-21)
(0.223197 -0.438055 0)
(0.218852 -0.448511 8.77469e-20)
(0.214643 -0.45899 -8.42397e-20)
(0.210579 -0.469518 6.0409e-21)
(0.206666 -0.480112 6.39594e-21)
(0.202908 -0.490783 0)
(0.199309 -0.501535 0)
(0.195871 -0.512367 -3.52876e-21)
(0.192594 -0.523274 0)
(0.189478 -0.534247 0)
(0.186521 -0.545273 -3.69809e-21)
(0.183721 -0.556339 1.85526e-21)
(0.181073 -0.567432 -1.21075e-19)
(0.178574 -0.578534 1.15767e-19)
(0.17622 -0.589632 -1.17982e-19)
(0.174005 -0.600709 1.14689e-19)
(0.171925 -0.611752 1.80613e-21)
(0.169974 -0.622744 0)
(0.168147 -0.633674 -1.14821e-19)
(0.166438 -0.644528 -4.82116e-21)
(0.164842 -0.655294 -4.58247e-21)
(0.163353 -0.665962 1.08856e-19)
(0.161967 -0.676522 -1.08021e-19)
(0.160677 -0.686964 -3.12843e-21)
(0.159479 -0.69728 1.04568e-19)
(0.158369 -0.707464 -1.0319e-19)
(0.15734 -0.717508 9.8609e-20)
(0.156388 -0.727407 0)
(0.15551 -0.737155 9.66205e-20)
(0.154701 -0.746749 -9.46342e-20)
(0.153956 -0.756185 0)
(0.153272 -0.76546 7.05023e-22)
(0.152645 -0.774571 6.89533e-22)
(0.152072 -0.783517 6.76072e-22)
(0.15155 -0.792296 8.45175e-20)
(0.151074 -0.800906 -1.66597e-19)
(0.150642 -0.809349 8.14832e-20)
(0.150251 -0.817623 0)
(0.149899 -0.825728 0)
(0.149583 -0.833665 7.64214e-20)
(0.1493 -0.841436 -7.36494e-20)
(0.149048 -0.84904 0)
(0.246671 -0.38808 -4.01279e-20)
(0.241665 -0.398342 -6.44664e-20)
(0.236801 -0.408591 1.45156e-19)
(0.232092 -0.418873 -7.62035e-20)
(0.227549 -0.429224 -9.69435e-20)
(0.22318 -0.439671 8.96559e-20)
(0.218993 -0.450232 -3.28134e-21)
(0.214993 -0.460916 0)
(0.211184 -0.471725 -1.17122e-19)
(0.207566 -0.482655 2.35154e-19)
(0.20414 -0.493698 7.39497e-21)
(0.200903 -0.504841 -1.16102e-19)
(0.197852 -0.516069 -3.75329e-21)
(0.194983 -0.527364 -1.2394e-19)
(0.192292 -0.53871 1.18409e-19)
(0.189771 -0.550087 -1.23366e-19)
(0.187416 -0.561477 -4.63937e-21)
(0.18522 -0.572863 1.17368e-19)
(0.183176 -0.584227 -5.55305e-21)
(0.181277 -0.595551 0)
(0.179516 -0.606822 2.73492e-24)
(0.177887 -0.618024 1.79093e-21)
(0.176383 -0.629143 1.14487e-19)
(0.174997 -0.640168 2.76333e-21)
(0.173723 -0.651087 -2.19334e-19)
(0.172554 -0.66189 1.05027e-19)
(0.171485 -0.672567 -3.31616e-21)
(0.170509 -0.68311 0)
(0.169621 -0.693512 -2.06797e-19)
(0.168815 -0.703766 1.99294e-19)
(0.168087 -0.713867 0)
(0.167432 -0.72381 7.55706e-22)
(0.166844 -0.73359 1.91256e-19)
(0.16632 -0.743204 -1.85343e-19)
(0.165854 -0.75265 0)
(0.165444 -0.761925 -6.9672e-22)
(0.165084 -0.771028 6.833e-22)
(0.164773 -0.779956 6.67733e-22)
(0.164506 -0.78871 -1.69071e-19)
(0.164279 -0.797289 1.62871e-19)
(0.164091 -0.805694 -6.26513e-22)
(0.163938 -0.813924 -1.58116e-19)
(0.163818 -0.82198 1.52423e-19)
(0.163727 -0.829864 0)
(0.253129 -0.36711 -3.6616e-21)
(0.247813 -0.377176 -4.43277e-21)
(0.242687 -0.387328 0)
(0.237763 -0.397604 -5.66665e-21)
(0.233054 -0.40803 -6.14406e-21)
(0.228565 -0.418623 0)
(0.224304 -0.429389 -1.15553e-19)
(0.220271 -0.440327 1.1016e-19)
(0.216466 -0.45143 0)
(0.212889 -0.462683 -2.47945e-19)
(0.209534 -0.47407 2.40244e-19)
(0.206397 -0.485573 3.85267e-21)
(0.203471 -0.497169 0)
(0.200749 -0.508839 0)
(0.198223 -0.520558 -3.8492e-21)
(0.195885 -0.532308 0)
(0.193727 -0.544065 2.48904e-19)
(0.19174 -0.555812 -4.85043e-19)
(0.189915 -0.567528 4.80504e-19)
(0.188245 -0.579196 -2.32247e-19)
(0.18672 -0.5908 0)
(0.185332 -0.602325 2.33074e-19)
(0.184073 -0.613757 -2.25714e-19)
(0.182937 -0.625083 0)
(0.181914 -0.636292 2.25966e-19)
(0.180999 -0.647374 -4.34643e-19)
(0.180183 -0.658319 2.10688e-19)
(0.179462 -0.669119 -2.12845e-19)
(0.178828 -0.679768 2.03579e-19)
(0.178275 -0.690258 -2.05069e-19)
(0.177798 -0.700584 1.97872e-19)
(0.177391 -0.710743 0)
(0.17705 -0.72073 1.91854e-19)
(0.17677 -0.730541 -1.86776e-19)
(0.176545 -0.740175 0)
(0.176373 -0.749629 -1.82467e-19)
(0.176248 -0.758903 1.76434e-19)
(0.176167 -0.767994 -6.76974e-22)
(0.176126 -0.776903 -1.70437e-19)
(0.176123 -0.78563 3.31657e-19)
(0.176154 -0.794175 -1.60745e-19)
(0.176216 -0.802539 1.60095e-19)
(0.176306 -0.810723 1.52267e-21)
(0.250371 -0.353952 -5.09324e-21)
(0.245038 -0.364229 1.67932e-22)
(0.239969 -0.374717 6.34004e-21)
(0.235169 -0.385429 0)
(0.230643 -0.396366 -2.41275e-19)
(0.226391 -0.407523 4.57908e-19)
(0.22241 -0.418885 1.73663e-20)
(0.218697 -0.430436 1.60242e-20)
(0.215243 -0.442153 -2.51912e-19)
(0.212042 -0.454013 -3.89324e-21)
(0.209084 -0.46599 0)
(0.206359 -0.478059 -2.57921e-19)
(0.203857 -0.490194 -6.85704e-21)
(0.201568 -0.502372 2.50014e-19)
(0.199479 -0.514569 0)
(0.197582 -0.526762 1.05208e-23)
(0.195865 -0.53893 3.83717e-21)
(0.194317 -0.551055 -3.79963e-21)
(0.19293 -0.563117 0)
(0.191692 -0.5751 2.39066e-19)
(0.190594 -0.586989 -2.31601e-19)
(0.189628 -0.59877 0)
(0.188784 -0.610432 1.78015e-21)
(0.188055 -0.621962 2.26758e-19)
(0.187432 -0.633351 -2.15042e-19)
(0.186907 -0.644589 0)
(0.186475 -0.65567 2.153e-19)
(0.186127 -0.666585 -2.07747e-19)
(0.185858 -0.67733 1.60864e-21)
(0.185662 -0.6879 0)
(0.185532 -0.69829 1.54717e-21)
(0.185464 -0.708497 0)
(0.185452 -0.718518 -1.9186e-19)
(0.185492 -0.728351 3.7351e-19)
(0.185579 -0.737995 -3.65961e-19)
(0.18571 -0.747448 1.79552e-19)
(0.18588 -0.756711 0)
(0.186085 -0.765783 6.70507e-22)
(0.186323 -0.774664 -1.6905e-19)
(0.18659 -0.783355 3.28444e-19)
(0.186882 -0.791858 -1.62508e-19)
(0.249097 -0.329303 -1.9275e-19)
(0.243676 -0.339957 1.82803e-19)
(0.238582 -0.350893 0)
(0.233815 -0.362107 7.13337e-21)
(0.229372 -0.373584 1.11277e-22)
(0.225248 -0.385307 0)
(0.221435 -0.397251 0)
(0.217922 -0.40939 1.57175e-20)
(0.214697 -0.421694 3.98804e-21)
(0.211749 -0.434135 3.98482e-21)
(0.209064 -0.446683 0)
(0.206629 -0.45931 -2.62414e-19)
(0.204431 -0.471988 2.47024e-19)
(0.202456 -0.484692 2.5992e-19)
(0.200691 -0.497395 -2.45096e-19)
(0.199124 -0.510076 -3.93517e-21)
(0.197742 -0.522713 3.8982e-21)
(0.196533 -0.535286 0)
(0.195486 -0.547778 3.81207e-21)
(0.194589 -0.560171 2.43909e-19)
(0.193833 -0.572452 -2.34732e-19)
(0.193206 -0.584608 -2.40636e-19)
(0.192701 -0.596625 2.3013e-19)
(0.192307 -0.608494 -3.55135e-21)
(0.192016 -0.620205 0)
(0.191821 -0.631751 3.43711e-21)
(0.191714 -0.643125 2.19841e-19)
(0.191687 -0.654319 -2.12345e-19)
(0.191734 -0.66533 2.10337e-19)
(0.191849 -0.676151 -4.09704e-19)
(0.192025 -0.68678 1.99567e-19)
(0.192257 -0.697215 -1.98569e-19)
(0.19254 -0.707451 1.92101e-19)
(0.192869 -0.717489 -7.39884e-22)
(0.193239 -0.727326 1.30226e-24)
(0.193646 -0.736963 7.11656e-22)
(0.194087 -0.7464 0)
(0.194558 -0.755636 -6.82554e-22)
(0.195054 -0.764672 0)
(0.195574 -0.773511 6.63446e-22)
(0.238625 -0.315349 0)
(0.23367 -0.32695 7.04934e-21)
(0.229092 -0.338856 7.47634e-21)
(0.224883 -0.351041 0)
(0.221028 -0.363475 -2.59341e-19)
(0.217514 -0.376126 2.39041e-19)
(0.214326 -0.388961 -8.03047e-21)
(0.211447 -0.401946 -4.08017e-21)
(0.20886 -0.415048 -2.6763e-19)
(0.20655 -0.428236 -1.1651e-20)
(0.2045 -0.441479 2.60082e-19)
(0.202693 -0.45475 0)
(0.201116 -0.468021 -2.63838e-19)
(0.199751 -0.481269 -8.6148e-21)
(0.198586 -0.494469 5.14659e-19)
(0.197607 -0.507602 -2.49209e-19)
(0.196799 -0.520648 -2.5373e-19)
(0.196151 -0.53359 4.90907e-19)
(0.195652 -0.546414 -2.4513e-19)
(0.195289 -0.559104 -1.88241e-21)
(0.195052 -0.571649 -1.85731e-21)
(0.194933 -0.584038 -2.33031e-19)
(0.194919 -0.596259 -4.55518e-21)
(0.195002 -0.608305 2.2316e-19)
(0.195174 -0.620168 -1.74445e-21)
(0.195428 -0.63184 0)
(0.195755 -0.643318 -1.68718e-21)
(0.196149 -0.654596 0)
(0.196604 -0.665671 0)
(0.197112 -0.67654 0)
(0.19767 -0.687201 1.56785e-21)
(0.198271 -0.697651 0)
(0.198911 -0.707891 -7.52751e-22)
(0.199585 -0.717919 1.31793e-24)
(0.200288 -0.727736 -7.24358e-22)
(0.201018 -0.737342 1.83881e-19)
(0.201771 -0.746739 -1.76839e-19)
(0.202542 -0.755926 1.77434e-19)
(0.217506 -0.329536 2.62461e-19)
(0.214072 -0.342785 -2.41989e-19)
(0.210998 -0.356229 8.22167e-21)
(0.208264 -0.369831 0)
(0.20585 -0.383554 -2.72445e-19)
(0.203737 -0.397365 2.60579e-19)
(0.201904 -0.411232 -2.15168e-23)
(0.200334 -0.425124 4.14881e-21)
(0.199009 -0.439013 0)
(0.197911 -0.452874 -4.11181e-21)
(0.197023 -0.466682 -4.09441e-21)
(0.196332 -0.480416 -2.63402e-19)
(0.19582 -0.494056 2.53453e-19)
(0.195476 -0.507584 3.9768e-21)
(0.195285 -0.520984 3.75518e-24)
(0.195236 -0.53424 2.55178e-19)
(0.195313 -0.547339 -2.42414e-19)
(0.19551 -0.56027 -1.88884e-21)
(0.195814 -0.573023 -1.86179e-21)
(0.196216 -0.585589 0)
(0.196707 -0.597961 2.33178e-19)
(0.197278 -0.610132 -2.25452e-19)
(0.197922 -0.622097 2.2546e-19)
(0.198631 -0.63385 -2.19864e-19)
(0.199397 -0.645389 -2.17621e-19)
(0.200216 -0.656709 2.12345e-19)
(0.20108 -0.66781 -1.62635e-21)
(0.201984 -0.678689 -2.04176e-19)
(0.202923 -0.689346 1.97799e-19)
(0.203892 -0.699779 -1.97128e-19)
(0.204887 -0.70999 1.93323e-19)
(0.205903 -0.719979 1.89352e-19)
(0.206937 -0.729746 -1.85036e-19)
(0.207986 -0.739294 -7.185e-22)
(0.210957 -0.295888 0)
(0.207694 -0.309808 -9.86646e-23)
(0.204823 -0.323928 2.73551e-19)
(0.202318 -0.338207 -2.6956e-19)
(0.200157 -0.352607 0)
(0.198317 -0.367092 -8.46277e-21)
(0.196775 -0.381629 4.21618e-21)
(0.195511 -0.396184 2.77411e-19)
(0.194504 -0.410729 1.00568e-20)
(0.193735 -0.425237 -2.61223e-19)
(0.193187 -0.439684 -2.68696e-19)
(0.19284 -0.454046 2.62569e-19)
(0.192681 -0.468304 2.68143e-19)
(0.192692 -0.482438 -2.54287e-19)
(0.19286 -0.496433 2.66484e-19)
(0.193172 -0.510273 -2.5719e-19)
(0.193614 -0.523946 -3.95407e-21)
(0.194175 -0.53744 2.52572e-19)
(0.194843 -0.550744 -4.87308e-19)
(0.195609 -0.56385 -6.5511e-21)
(0.196462 -0.576749 2.37319e-19)
(0.197393 -0.589435 -2.37882e-19)
(0.198393 -0.601902 2.32038e-19)
(0.199456 -0.614145 -2.28365e-19)
(0.200573 -0.626161 4.49103e-19)
(0.201737 -0.637947 -2.19137e-19)
(0.202942 -0.649499 0)
(0.204183 -0.660818 -1.66261e-21)
(0.205453 -0.671902 1.63212e-21)
(0.206749 -0.682751 -3.20551e-21)
(0.208064 -0.693364 -2.03184e-19)
(0.209395 -0.703743 1.97848e-19)
(0.210738 -0.71389 1.51168e-21)
(0.212089 -0.723804 0)
(0.201604 -0.262968 -2.48661e-19)
(0.198614 -0.277613 2.65222e-19)
(0.196042 -0.292456 -5.46999e-19)
(0.193858 -0.307455 2.73793e-19)
(0.192037 -0.322569 -8.57028e-21)
(0.190552 -0.337762 -2.75007e-19)
(0.189379 -0.352997 2.63236e-19)
(0.188495 -0.368243 2.79589e-19)
(0.187877 -0.383469 -2.77063e-19)
(0.187505 -0.398648 2.7772e-19)
(0.187359 -0.413755 -2.75691e-19)
(0.18742 -0.428767 0)
(0.18767 -0.443662 -4.2496e-21)
(0.188094 -0.458423 2.69517e-19)
(0.188677 -0.473032 -5.35131e-19)
(0.189402 -0.487475 2.61647e-19)
(0.190258 -0.501738 3.84491e-24)
(0.191231 -0.515808 0)
(0.192309 -0.529676 -7.98628e-21)
(0.193481 -0.543332 2.56612e-19)
(0.194737 -0.556768 -4.97428e-19)
(0.196068 -0.569978 2.42992e-19)
(0.197463 -0.582955 0)
(0.198916 -0.595696 0)
(0.200417 -0.608196 -2.3569e-19)
(0.20196 -0.620453 4.58384e-19)
(0.203539 -0.632464 -2.24665e-19)
(0.205147 -0.644227 2.23751e-19)
(0.206778 -0.655743 -2.1701e-19)
(0.208428 -0.667011 -2.00477e-24)
(0.210091 -0.678031 -2.11673e-19)
(0.211763 -0.688804 2.03785e-19)
(0.21344 -0.699332 -7.90713e-22)
(0.215118 -0.709616 -2.02524e-19)
(0.189755 -0.231222 8.07972e-21)
(0.187147 -0.246623 0)
(0.184975 -0.262216 8.58828e-21)
(0.183207 -0.277956 0)
(0.181814 -0.293804 2.96865e-19)
(0.180768 -0.309719 -2.84848e-19)
(0.180042 -0.325667 0)
(0.179612 -0.341614 8.88176e-21)
(0.179453 -0.357531 2.95193e-19)
(0.179543 -0.373389 -2.75264e-19)
(0.179862 -0.389162 -4.42789e-21)
(0.180389 -0.404829 4.40905e-21)
(0.181106 -0.420367 2.8954e-19)
(0.181995 -0.435758 -5.58088e-19)
(0.183041 -0.450985 2.73193e-19)
(0.184229 -0.466033 2.86205e-19)
(0.185543 -0.480888 -2.64164e-19)
(0.18697 -0.495538 -2.71548e-19)
(0.188499 -0.509972 5.39321e-19)
(0.190117 -0.524182 -2.59689e-19)
(0.191814 -0.538158 0)
(0.19358 -0.551894 0)
(0.195405 -0.565385 0)
(0.19728 -0.578625 0)
(0.199198 -0.591611 1.90867e-21)
(0.201151 -0.604341 0)
(0.203132 -0.616811 -1.84853e-21)
(0.205135 -0.629021 2.35962e-19)
(0.207154 -0.64097 -2.27213e-19)
(0.209183 -0.652658 -1.6134e-24)
(0.211219 -0.664085 -2.21907e-19)
(0.213255 -0.675253 2.15432e-19)
(0.215289 -0.686162 1.66174e-21)
(0.217316 -0.696816 0)
(0.173689 -0.217199 2.61258e-19)
(0.172013 -0.233544 -2.86424e-19)
(0.17075 -0.250027 5.64811e-19)
(0.169868 -0.266606 -2.69652e-19)
(0.169338 -0.283241 9.07561e-21)
(0.169132 -0.299897 0)
(0.169222 -0.316541 -5.98399e-23)
(0.169585 -0.333143 -9.1356e-21)
(0.170197 -0.349673 2.98623e-19)
(0.171037 -0.366108 -2.78677e-19)
(0.172082 -0.382424 -1.70548e-23)
(0.173315 -0.3986 4.5331e-21)
(0.174718 -0.414616 0)
(0.176273 -0.430457 2.90751e-19)
(0.177964 -0.446105 -2.85626e-19)
(0.179778 -0.461548 2.85491e-19)
(0.181699 -0.476773 -5.58888e-19)
(0.183716 -0.49177 2.69286e-19)
(0.185816 -0.506528 4.2694e-21)
(0.187987 -0.521041 0)
(0.190221 -0.5353 0)
(0.192506 -0.5493 -2.6535e-19)
(0.194834 -0.563037 2.57384e-19)
(0.197197 -0.576507 -1.99764e-21)
(0.199586 -0.589706 0)
(0.201996 -0.602632 1.93701e-21)
(0.204419 -0.615286 -1.90598e-21)
(0.206849 -0.627664 0)
(0.209282 -0.639769 2.374e-19)
(0.211711 -0.6516 -4.61981e-19)
(0.214133 -0.663158 2.26537e-19)
(0.216543 -0.674446 2.2311e-19)
(0.218938 -0.685465 -2.19863e-19)
(0.158702 -0.189628 2.76436e-19)
(0.157609 -0.206706 -2.72496e-19)
(0.156929 -0.22391 8.93976e-21)
(0.156632 -0.241197 3.00565e-19)
(0.156685 -0.258531 -2.79433e-19)
(0.15706 -0.275874 -9.30211e-21)
(0.157729 -0.293194 2.97892e-19)
(0.158668 -0.31046 2.15688e-20)
(0.159852 -0.327645 -2.96973e-19)
(0.161259 -0.344723 -1.41734e-20)
(0.162868 -0.361671 -9.44169e-21)
(0.16466 -0.378469 -3.10526e-19)
(0.166615 -0.395096 5.99853e-19)
(0.168716 -0.411535 -5.9651e-19)
(0.170948 -0.427771 2.87911e-19)
(0.173294 -0.44379 -2.9747e-19)
(0.175742 -0.459579 2.88181e-19)
(0.178277 -0.475127 4.50701e-21)
(0.180888 -0.490425 -2.88565e-19)
(0.183562 -0.505464 2.79855e-19)
(0.18629 -0.520237 4.3607e-21)
(0.189061 -0.534739 0)
(0.191866 -0.548965 0)
(0.194697 -0.56291 -2.70478e-19)
(0.197545 -0.576572 2.62637e-19)
(0.200405 -0.589948 2.60459e-19)
(0.203268 -0.603037 -2.54967e-19)
(0.20613 -0.615839 0)
(0.208983 -0.628354 3.88283e-21)
(0.211825 -0.640583 -2.4578e-19)
(0.214649 -0.652526 2.40711e-19)
(0.217451 -0.664185 2.37202e-19)
(0.220229 -0.675563 -2.35704e-19)
(0.142682 -0.164105 2.76854e-19)
(0.14224 -0.181874 0)
(0.142208 -0.199757 -9.24349e-21)
(0.142552 -0.217715 -1.04378e-22)
(0.143242 -0.235709 -9.54419e-21)
(0.144247 -0.253704 3.24431e-19)
(0.145541 -0.271666 -6.20041e-19)
(0.147098 -0.289565 3.15189e-19)
(0.148894 -0.307374 0)
(0.150905 -0.325068 3.19142e-19)
(0.153112 -0.342623 -2.93694e-19)
(0.155493 -0.360017 0)
(0.158031 -0.377232 3.21508e-19)
(0.160708 -0.39425 -6.21589e-19)
(0.163507 -0.411054 6.23039e-19)
(0.166413 -0.42763 7.38587e-21)
(0.169411 -0.443966 -6.09545e-19)
(0.172489 -0.46005 2.9895e-19)
(0.175632 -0.475873 -7.22551e-24)
(0.178831 -0.491425 2.99196e-19)
(0.182074 -0.5067 -2.9962e-19)
(0.18535 -0.521692 0)
(0.188651 -0.536394 0)
(0.191968 -0.550804 -2.86887e-19)
(0.195293 -0.564919 -4.13404e-21)
(0.198618 -0.578735 2.74938e-19)
(0.201938 -0.592251 0)
(0.205245 -0.605468 0)
(0.208534 -0.618384 -2.05002e-21)
(0.211801 -0.631001 -2.01679e-21)
(0.21504 -0.64332 -3.96662e-21)
(0.218247 -0.655343 2.52827e-19)
(0.221419 -0.667072 -4.9939e-19)
(0.126387 -0.159125 2.82484e-19)
(0.127048 -0.177633 3.10504e-19)
(0.128075 -0.196208 -3.08009e-19)
(0.129438 -0.214812 -3.11306e-19)
(0.131108 -0.233411 2.99327e-19)
(0.133058 -0.251971 0)
(0.135261 -0.270462 -1.01234e-20)
(0.137694 -0.288858 3.30889e-19)
(0.140335 -0.307131 2.19334e-20)
(0.143162 -0.325259 -6.62709e-19)
(0.146156 -0.34322 3.16018e-19)
(0.149297 -0.360994 3.25389e-19)
(0.152569 -0.378563 -3.20268e-19)
(0.155953 -0.395911 0)
(0.159435 -0.413022 -3.25568e-19)
(0.163001 -0.429884 6.39167e-19)
(0.166636 -0.446484 -3.18738e-19)
(0.170328 -0.462814 -4.91965e-21)
(0.174066 -0.478863 0)
(0.177837 -0.494624 4.82474e-21)
(0.181632 -0.51009 0)
(0.185441 -0.525256 0)
(0.189256 -0.540118 -2.9811e-19)
(0.193069 -0.554673 2.94373e-19)
(0.196872 -0.568917 0)
(0.200657 -0.58285 0)
(0.20442 -0.59647 -2.20318e-21)
(0.208155 -0.609778 -2.81707e-19)
(0.211855 -0.622773 2.71857e-19)
(0.215518 -0.635459 3.69996e-25)
(0.219138 -0.647835 -2.6803e-19)
(0.222712 -0.659906 2.64468e-19)
(0.1105 -0.138448 3.1061e-19)
(0.11188 -0.157513 -2.88809e-19)
(0.113614 -0.176643 3.15853e-19)
(0.115672 -0.195799 -3.33807e-19)
(0.118024 -0.214947 -3.25579e-19)
(0.120646 -0.234053 3.13839e-19)
(0.12351 -0.253089 0)
(0.126595 -0.272026 0)
(0.129878 -0.290838 -3.45528e-19)
(0.133338 -0.309501 3.3458e-19)
(0.136954 -0.327993 1.59653e-20)
(0.140709 -0.346294 5.3137e-21)
(0.144584 -0.364385 5.30619e-21)
(0.148563 -0.382248 -3.43709e-19)
(0.15263 -0.399868 -8.3503e-21)
(0.156771 -0.417232 3.32128e-19)
(0.160972 -0.434328 3.37574e-19)
(0.16522 -0.451144 -3.28017e-19)
(0.169503 -0.467671 0)
(0.173811 -0.4839 0)
(0.178131 -0.499825 -3.25323e-19)
(0.182456 -0.51544 3.2129e-19)
(0.186775 -0.53074 3.1777e-19)
(0.191081 -0.545721 -6.25211e-19)
(0.195367 -0.560381 3.05154e-19)
(0.199624 -0.574718 -3.05276e-19)
(0.203848 -0.58873 6.0018e-19)
(0.208032 -0.602418 -2.90402e-19)
(0.212172 -0.615782 0)
(0.216262 -0.628823 2.89344e-19)
(0.220298 -0.641544 -5.61728e-19)
(0.224277 -0.653946 2.76524e-19)
(0.0949803 -0.119757 -2.95561e-19)
(0.0970886 -0.139306 -9.99001e-21)
(0.0995358 -0.158921 1.02554e-20)
(0.102293 -0.178564 3.42969e-19)
(0.105332 -0.1982 -3.20373e-19)
(0.108628 -0.217797 2.15439e-20)
(0.112156 -0.237325 -3.56379e-19)
(0.115894 -0.256755 -1.41568e-20)
(0.11982 -0.276061 3.36789e-19)
(0.123912 -0.295218 1.10982e-20)
(0.128152 -0.314204 -1.11897e-20)
(0.13252 -0.332996 -5.60029e-21)
(0.136999 -0.351576 -5.59727e-21)
(0.141573 -0.369925 -5.56587e-21)
(0.146226 -0.388027 0)
(0.150942 -0.405869 0)
(0.15571 -0.423436 -5.49656e-21)
(0.160514 -0.440717 0)
(0.165344 -0.457702 -3.56093e-19)
(0.170187 -0.474382 -1.18434e-20)
(0.175034 -0.49075 6.76772e-19)
(0.179874 -0.506798 -6.80466e-19)
(0.184698 -0.522521 3.31246e-19)
(0.189499 -0.537916 -5.15328e-21)
(0.194268 -0.552978 -2.54523e-21)
(0.198998 -0.567707 0)
(0.203683 -0.5821 3.19542e-19)
(0.208318 -0.596157 -6.25948e-19)
(0.212896 -0.609879 3.06533e-19)
(0.217414 -0.623266 0)
(0.221867 -0.63632 3.02847e-19)
(0.226251 -0.649043 -2.94373e-19)
(0.0801714 -0.102908 -3.28192e-19)
(0.0830001 -0.122863 6.44745e-19)
(0.0861518 -0.14289 -3.2674e-19)
(0.0895987 -0.162952 1.08691e-20)
(0.0933148 -0.183014 -3.73415e-19)
(0.0972753 -0.203043 -1.73719e-20)
(0.101457 -0.223009 7.39516e-19)
(0.105838 -0.242882 -3.7205e-19)
(0.110396 -0.262636 3.78418e-19)
(0.115112 -0.282244 -3.78773e-19)
(0.119965 -0.301683 0)
(0.124938 -0.32093 0)
(0.130013 -0.339966 -5.86974e-21)
(0.135174 -0.35877 3.87052e-19)
(0.140404 -0.377327 -3.70431e-19)
(0.14569 -0.39562 -5.83168e-21)
(0.151017 -0.413636 -3.76272e-19)
(0.156371 -0.431361 3.66038e-19)
(0.161741 -0.448785 -3.59689e-19)
(0.167116 -0.465897 3.66918e-19)
(0.172484 -0.48269 3.70478e-19)
(0.177835 -0.499156 6.10824e-21)
(0.18316 -0.515289 -3.51691e-19)
(0.188451 -0.531084 5.48396e-21)
(0.1937 -0.546537 -3.46447e-19)
(0.198899 -0.561646 3.37306e-19)
(0.204042 -0.576409 -2.63812e-21)
(0.209123 -0.590825 0)
(0.214137 -0.604894 -3.30562e-19)
(0.219079 -0.618618 -3.71704e-21)
(0.223945 -0.631996 -5.9861e-21)
(0.228731 -0.645032 3.16521e-19)
(0.0663534 -0.087716 3.48875e-19)
(0.0698798 -0.107997 -3.15915e-19)
(0.073713 -0.128363 1.08698e-20)
(0.0778272 -0.148775 1.11794e-20)
(0.0821979 -0.169199 1.14451e-20)
(0.0868017 -0.189601 3.72574e-19)
(0.0916163 -0.209949 -7.74163e-19)
(0.09662 -0.230215 3.90082e-19)
(0.101792 -0.250368 1.22271e-20)
(0.107112 -0.270384 0)
(0.112562 -0.290236 -4.13819e-19)
(0.118122 -0.309902 -1.23693e-20)
(0.123777 -0.329359 3.97298e-19)
(0.129509 -0.348589 0)
(0.135302 -0.367572 -4.01573e-19)
(0.141142 -0.386291 3.96905e-19)
(0.147015 -0.404732 1.23138e-20)
(0.152908 -0.42288 3.96385e-19)
(0.158807 -0.440723 1.81149e-21)
(0.164702 -0.458251 -3.77486e-19)
(0.170581 -0.475454 0)
(0.176433 -0.492323 -3.84224e-19)
(0.182251 -0.508853 -6.16168e-21)
(0.188023 -0.525036 3.76412e-19)
(0.193744 -0.540869 -3.66317e-19)
(0.199404 -0.556349 3.65317e-19)
(0.204998 -0.571472 2.81828e-21)
(0.210519 -0.586238 0)
(0.215962 -0.600646 0)
(0.221322 -0.614697 2.69952e-21)
(0.226595 -0.628392 2.65908e-21)
(0.231777 -0.641733 0)
(0.0537392 -0.0739663 3.60962e-19)
(0.0579284 -0.0944949 -3.27551e-19)
(0.062409 -0.115125 3.64697e-19)
(0.0671572 -0.13582 -3.75691e-19)
(0.0721507 -0.156543 -1.20377e-22)
(0.0773677 -0.177261 0)
(0.0827861 -0.19794 0)
(0.0883845 -0.218547 4.14092e-19)
(0.0941423 -0.239054 -8.32716e-19)
(0.10004 -0.259433 4.06003e-19)
(0.106059 -0.279659 1.30449e-20)
(0.112182 -0.299705 0)
(0.118392 -0.319551 -4.25678e-19)
(0.124672 -0.339175 -1.16509e-20)
(0.131007 -0.358556 8.40048e-19)
(0.137382 -0.377676 -4.20839e-19)
(0.143782 -0.39652 4.23105e-19)
(0.150195 -0.415071 -4.05673e-19)
(0.156606 -0.433317 0)
(0.163006 -0.451244 -1.28794e-20)
(0.169381 -0.468843 6.38657e-21)
(0.175722 -0.486103 4.0956e-19)
(0.182018 -0.503017 -3.92861e-19)
(0.188261 -0.519579 -6.23404e-21)
(0.194442 -0.535782 -1.23245e-20)
(0.200554 -0.551623 -3.92713e-19)
(0.206588 -0.567099 3.82693e-19)
(0.21254 -0.582207 3.82816e-19)
(0.218403 -0.596948 7.50563e-21)
(0.224172 -0.61132 -3.70747e-19)
(0.229843 -0.625325 -3.72283e-19)
(0.235413 -0.638965 -3.85835e-21)
(0.0424837 -0.0614458 -2.03997e-19)
(0.0472912 -0.0821419 1.64347e-19)
(0.0523735 -0.102963 1.96289e-19)
(0.0577096 -0.123874 -1.90115e-19)
(0.063281 -0.144838 4.01691e-19)
(0.0690694 -0.165815 -4.01809e-19)
(0.0750544 -0.186769 0)
(0.0812129 -0.207666 1.32815e-20)
(0.087523 -0.228477 4.40694e-19)
(0.0939646 -0.249175 -4.28347e-19)
(0.10052 -0.269732 0)
(0.107174 -0.290123 1.3795e-20)
(0.113908 -0.310324 1.38559e-20)
(0.120708 -0.330312 0)
(0.127557 -0.350066 0)
(0.134441 -0.369564 6.97959e-21)
(0.141346 -0.388791 -1.39084e-20)
(0.148256 -0.407727 4.41668e-19)
(0.155161 -0.426359 -4.30432e-19)
(0.162046 -0.444671 1.98753e-23)
(0.1689 -0.462654 -1.36504e-20)
(0.175713 -0.480294 0)
(0.182473 -0.497584 4.26921e-19)
(0.189172 -0.514516 -4.22797e-19)
(0.1958 -0.531083 6.5992e-21)
(0.20235 -0.547279 -3.25712e-21)
(0.208813 -0.563102 0)
(0.215184 -0.578548 -3.17991e-21)
(0.221457 -0.593616 -5.56804e-24)
(0.227625 -0.608305 -3.95773e-19)
(0.233685 -0.622616 3.88641e-19)
(0.239633 -0.63655 0)
(0.0326467 -0.0499513 -2.25193e-20)
(0.0380187 -0.070726 1.97883e-19)
(0.0436492 -0.0916442 -2.04063e-19)
(0.0495219 -0.112682 2.2501e-19)
(0.0556292 -0.13383 -1.9292e-19)
(0.0619537 -0.155047 -2.23089e-19)
(0.0684672 -0.17626 2.16406e-19)
(0.0751398 -0.197406 -2.58219e-19)
(0.0819526 -0.218462 2.52095e-19)
(0.0888934 -0.239424 1.43833e-20)
(0.0959454 -0.260267 1.45224e-20)
(0.103092 -0.280962 -2.93412e-20)
(0.110317 -0.301484 -1.47858e-20)
(0.117605 -0.321807 -4.80441e-19)
(0.124939 -0.341907 9.56747e-19)
(0.132305 -0.361761 -4.76391e-19)
(0.139688 -0.381351 -4.72678e-19)
(0.147074 -0.400655 -1.05006e-20)
(0.154448 -0.419659 4.59566e-19)
(0.161799 -0.438345 7.35071e-21)
(0.169114 -0.456701 7.30852e-21)
(0.17638 -0.474713 0)
(0.183588 -0.492371 -7.18445e-21)
(0.190727 -0.509667 0)
(0.197789 -0.526591 -7.05535e-21)
(0.204763 -0.543139 4.61047e-19)
(0.211643 -0.559305 -8.84666e-19)
(0.218422 -0.575085 4.34181e-19)
(0.225092 -0.590477 4.30702e-19)
(0.231649 -0.605481 -4.26391e-19)
(0.238088 -0.620096 3.28018e-21)
(0.244403 -0.634322 -3.27165e-21)
(0.024243 -0.0393156 2.04618e-19)
(0.0301289 -0.0601054 0)
(0.0362622 -0.081064 -2.1512e-19)
(0.0426249 -0.102152 1.95331e-19)