/*--------------------------------*- C++ -*----------------------------------*\
  =========                 |
  \\      /  F ield         | OpenFOAM: The Open Source CFD Toolbox
   \\    /   O peration     | Website:  https://openfoam.org
    \\  /    A nd           | Version:  10
     \\/     M anipulation  |
\*---------------------------------------------------------------------------*/
FoamFile
{
    format      ascii;
    class       volVectorField;
    location    "38000";
    object      Urel;
}
// * * * * * * * * * * * * * * * * * * * * * * * * * * * * * * * * * * * * * //

dimensions      [0 1 -1 0 0 0 0];

internalField   nonuniform List<vector> 
17981
(
(0.123359 -0.32443 1.09253e-21)
(0.120234 -0.33438 -1.08992e-21)
(0.117174 -0.344223 0)
(0.114176 -0.353978 -6.83595e-21)
(0.111242 -0.363658 1.49885e-20)
(0.108375 -0.373277 -8.08646e-21)
(0.105578 -0.382842 0)
(0.102853 -0.392359 6.94759e-22)
(0.100202 -0.401829 0)
(0.0976275 -0.411254 0)
(0.0951298 -0.420632 -8.44976e-22)
(0.0927101 -0.429958 1.5582e-20)
(0.0903691 -0.43923 -1.40829e-20)
(0.0881068 -0.448441 0)
(0.0859231 -0.457585 0)
(0.0838175 -0.466657 0)
(0.0817891 -0.475649 0)
(0.079837 -0.484557 -1.58737e-20)
(0.0779597 -0.493373 1.52036e-20)
(0.0761558 -0.502092 3.15937e-20)
(0.0744237 -0.510708 -2.9798e-20)
(0.0727616 -0.519216 -4.77507e-22)
(0.0711676 -0.527612 0)
(0.0696396 -0.535892 0)
(0.0681758 -0.544051 3.01405e-20)
(0.0667739 -0.552086 -2.84852e-20)
(0.0654319 -0.559994 2.92973e-20)
(0.0641477 -0.567773 -2.81562e-20)
(0.0629192 -0.575421 -4.37673e-22)
(0.0617442 -0.582936 0)
(0.0606207 -0.590316 2.11526e-22)
(0.0595467 -0.597561 -2.07743e-22)
(0.0585202 -0.60467 -2.03902e-22)
(0.0575392 -0.611643 2.56536e-20)
(0.0566017 -0.618479 -2.47145e-20)
(0.055706 -0.62518 -1.92177e-22)
(0.0548503 -0.631745 0)
(0.0540327 -0.638175 0)
(0.0532517 -0.644471 1.80406e-22)
(0.0525055 -0.650635 -2.29366e-20)
(0.0517927 -0.656667 -1.13496e-22)
(0.0511117 -0.662569 2.13171e-20)
(0.050461 -0.668342 8.25138e-23)
(0.0498393 -0.673989 0)
(0.0492453 -0.679511 0)
(0.0486776 -0.68491 0)
(0.048135 -0.690188 0)
(0.0476164 -0.695347 -1.90833e-20)
(0.139238 -0.308628 -6.57363e-21)
(0.135982 -0.318352 0)
(0.132795 -0.327985 -1.90399e-20)
(0.129679 -0.33755 4.6645e-20)
(0.126639 -0.347061 -2.63868e-20)
(0.123677 -0.356533 3.96735e-20)
(0.120796 -0.365974 -3.81893e-20)
(0.117998 -0.375391 6.93451e-22)
(0.115286 -0.384787 1.54598e-21)
(0.112661 -0.39416 -5.59719e-20)
(0.110124 -0.403509 1.11321e-19)
(0.107675 -0.41283 -5.69797e-20)
(0.105316 -0.422116 0)
(0.103045 -0.431362 1.91407e-21)
(0.100863 -0.44056 -6.44769e-20)
(0.0987675 -0.449703 6.16865e-20)
(0.0967578 -0.458782 6.54505e-20)
(0.0948322 -0.467791 -6.26405e-20)
(0.092989 -0.476721 9.99077e-22)
(0.0912262 -0.485565 0)
(0.0895415 -0.494318 -4.99087e-22)
(0.0879328 -0.502971 6.48876e-20)
(0.0863975 -0.511521 -6.07638e-20)
(0.0849332 -0.51996 6.40531e-20)
(0.0835376 -0.528285 -1.22853e-19)
(0.0822079 -0.53649 5.93517e-20)
(0.0809418 -0.544573 -6.05845e-20)
(0.0797368 -0.55253 5.82201e-20)
(0.0785902 -0.560359 4.53867e-22)
(0.0774998 -0.568056 0)
(0.076463 -0.57562 2.18331e-22)
(0.0754775 -0.583049 2.15421e-22)
(0.0745412 -0.590342 -5.43711e-20)
(0.0736516 -0.597499 5.27833e-20)
(0.0728067 -0.604519 -6.09435e-22)
(0.0720043 -0.611401 5.1597e-20)
(0.0712426 -0.618147 -4.95574e-20)
(0.0705194 -0.624755 0)
(0.0698329 -0.631228 4.8031e-20)
(0.0691815 -0.637566 -9.31534e-20)
(0.0685632 -0.643771 4.49961e-20)
(0.0679765 -0.649842 -4.49251e-20)
(0.0674198 -0.655782 -7.81071e-22)
(0.0668916 -0.661593 4.24161e-20)
(0.0663905 -0.667275 0)
(0.065915 -0.672832 0)
(0.0654639 -0.678264 1.55945e-22)
(0.0650359 -0.683574 -7.7294e-23)
(0.153685 -0.291331 0)
(0.150253 -0.300841 1.06088e-20)
(0.146903 -0.310279 -1.12605e-20)
(0.143637 -0.319667 2.71138e-20)
(0.14046 -0.329025 -2.7997e-20)
(0.137374 -0.338367 -2.23777e-21)
(0.134382 -0.347703 0)
(0.131488 -0.357041 -1.48791e-21)
(0.128694 -0.366381 -4.77954e-21)
(0.125999 -0.375725 0)
(0.123406 -0.385068 1.81428e-21)
(0.120915 -0.394406 3.72241e-21)
(0.118525 -0.403732 0)
(0.116236 -0.413038 -2.18474e-23)
(0.114046 -0.422314 2.00563e-21)
(0.111954 -0.431553 0)
(0.109958 -0.440744 1.34934e-19)
(0.108055 -0.449879 -1.27021e-19)
(0.106244 -0.458948 -1.36152e-19)
(0.104521 -0.467943 1.29351e-19)
(0.102884 -0.476856 -2.0479e-21)
(0.101329 -0.485679 0)
(0.099855 -0.494406 1.00492e-21)
(0.0984575 -0.503029 -1.004e-21)
(0.0971338 -0.511542 9.88831e-22)
(0.0958808 -0.519942 -1.25986e-19)
(0.0946956 -0.528222 1.21949e-19)
(0.0935753 -0.536378 -9.49816e-22)
(0.0925168 -0.544408 0)
(0.0915173 -0.552309 1.18328e-19)
(0.090574 -0.560076 2.87859e-21)
(0.0896843 -0.567709 -1.13675e-19)
(0.0888454 -0.575206 0)
(0.0880549 -0.582565 0)
(0.0873103 -0.589786 -1.08993e-19)
(0.0866092 -0.596868 1.05488e-19)
(0.0859493 -0.603811 -4.03647e-22)
(0.0853286 -0.610616 0)
(0.0847449 -0.617281 3.87156e-22)
(0.0841962 -0.623809 -3.79367e-22)
(0.0836806 -0.6302 -9.55968e-20)
(0.0831964 -0.636456 9.23156e-20)
(0.0827417 -0.642577 1.775e-22)
(0.082315 -0.648564 -1.73258e-22)
(0.0819147 -0.654421 -3.38934e-22)
(0.0815393 -0.660147 0)
(0.0811874 -0.665746 -1.61863e-22)
(0.0808577 -0.671219 -8.24998e-20)
(0.152668 -0.309618 -1.71067e-21)
(0.149432 -0.31885 2.34589e-21)
(0.146307 -0.328103 9.27619e-20)
(0.143295 -0.337383 -1.91464e-19)
(0.140398 -0.346693 1.01483e-19)
(0.137617 -0.356031 -3.46191e-21)
(0.134954 -0.365394 1.19838e-19)
(0.132407 -0.374775 -1.21878e-19)
(0.129976 -0.384167 0)
(0.12766 -0.393559 -2.04611e-21)
(0.125456 -0.402942 1.34525e-19)
(0.123362 -0.412304 -1.30533e-19)
(0.121377 -0.421635 -1.3462e-19)
(0.119495 -0.430924 -1.06748e-20)
(0.117716 -0.440159 1.33136e-19)
(0.116034 -0.449332 -1.38664e-19)
(0.114447 -0.458433 1.32788e-19)
(0.11295 -0.467452 0)
(0.111541 -0.476381 1.33593e-19)
(0.110215 -0.485213 -2.6439e-19)
(0.108969 -0.493941 1.2577e-19)
(0.107799 -0.502558 1.29956e-19)
(0.106702 -0.511059 -1.2381e-19)
(0.105674 -0.519438 -9.77324e-22)
(0.104711 -0.527692 -1.25218e-19)
(0.103811 -0.535817 -8.07587e-22)
(0.102969 -0.54381 -4.40217e-21)
(0.102184 -0.551667 1.1837e-19)
(0.101451 -0.559387 1.16714e-19)
(0.100769 -0.566968 -2.2696e-19)
(0.100134 -0.574409 1.11238e-19)
(0.0995432 -0.581709 -1.10076e-19)
(0.0989945 -0.588867 1.06581e-19)
(0.0984855 -0.595884 -1.05632e-19)
(0.0980137 -0.602758 -2.68348e-21)
(0.097577 -0.609492 9.98346e-20)
(0.0971732 -0.616085 1.15282e-21)
(0.0968004 -0.622539 -9.64949e-20)
(0.0964568 -0.628855 9.32167e-20)
(0.0961404 -0.635033 3.59778e-22)
(0.0958496 -0.641077 3.517e-22)
(0.0955828 -0.646986 8.8092e-20)
(0.0953386 -0.652763 -8.55096e-20)
(0.0951154 -0.658411 0)
(0.163201 -0.288929 -4.64864e-20)
(0.159788 -0.298075 -4.49481e-21)
(0.156503 -0.307269 0)
(0.153351 -0.316517 1.04313e-19)
(0.150332 -0.325823 -9.97392e-20)
(0.147448 -0.335185 7.13492e-21)
(0.1447 -0.344597 7.53908e-21)
(0.142085 -0.354053 0)
(0.139604 -0.363542 0)
(0.137254 -0.373054 -4.14578e-21)
(0.135031 -0.382575 0)
(0.132934 -0.392093 0)
(0.130958 -0.401596 -4.36154e-21)
(0.129099 -0.41107 2.19044e-21)
(0.127353 -0.420504 -1.42995e-19)
(0.125716 -0.429886 1.36824e-19)
(0.124184 -0.439205 -1.3971e-19)
(0.122752 -0.448449 1.35923e-19)
(0.121415 -0.45761 2.14145e-21)
(0.120169 -0.46668 0)
(0.119009 -0.475648 -1.36702e-19)
(0.117932 -0.48451 -5.81385e-21)
(0.116932 -0.493257 -5.53921e-21)
(0.116007 -0.501884 1.3001e-19)
(0.115151 -0.510387 -1.29215e-19)
(0.11436 -0.51876 -3.80902e-21)
(0.113632 -0.527 1.25261e-19)
(0.112963 -0.535103 -1.23776e-19)
(0.112348 -0.543068 1.18313e-19)
(0.111786 -0.550891 0)
(0.111272 -0.558571 1.16133e-19)
(0.110803 -0.566107 -1.13756e-19)
(0.110377 -0.573499 0)
(0.109992 -0.580745 8.47352e-22)
(0.109643 -0.587845 8.31097e-22)
(0.10933 -0.594801 8.13093e-22)
(0.109049 -0.601612 1.01821e-19)
(0.108799 -0.608279 -2.00704e-19)
(0.108577 -0.614804 9.81599e-20)
(0.108382 -0.621187 0)
(0.108212 -0.62743 0)
(0.108064 -0.633535 9.21165e-20)
(0.107937 -0.639504 -8.87412e-20)
(0.107831 -0.645337 0)
(0.172013 -0.267019 -4.86458e-20)
(0.168393 -0.276104 -7.74709e-20)
(0.164922 -0.285265 1.73519e-19)
(0.161606 -0.294512 -9.06863e-20)
(0.158446 -0.303846 -1.1499e-19)
(0.155442 -0.313265 1.06046e-19)
(0.152595 -0.322762 -3.87857e-21)
(0.149904 -0.332329 0)
(0.147365 -0.341953 -1.38164e-19)
(0.144977 -0.35162 2.77368e-19)
(0.142735 -0.361318 8.79907e-21)
(0.140634 -0.371029 -1.37082e-19)
(0.138671 -0.380741 -4.43275e-21)
(0.136839 -0.390437 -1.46747e-19)
(0.135134 -0.400105 1.4031e-19)
(0.13355 -0.40973 -1.46469e-19)
(0.132082 -0.4193 -5.59167e-21)
(0.130724 -0.428803 1.39678e-19)
(0.12947 -0.438227 -6.61729e-21)
(0.128315 -0.447564 0)
(0.127255 -0.456804 8.46828e-24)
(0.126283 -0.465938 2.1462e-21)
(0.125394 -0.474959 1.37234e-19)
(0.124585 -0.48386 3.38305e-21)
(0.123849 -0.492636 -2.63426e-19)
(0.123183 -0.501282 1.26234e-19)
(0.122583 -0.509793 -3.9902e-21)
(0.122043 -0.518165 0)
(0.121561 -0.526395 -2.49276e-19)
(0.121132 -0.534481 2.40274e-19)
(0.120753 -0.54242 0)
(0.120421 -0.550212 9.13413e-22)
(0.120132 -0.557855 2.31037e-19)
(0.119883 -0.565348 -2.23879e-19)
(0.119672 -0.572691 0)
(0.119495 -0.579885 -8.43256e-22)
(0.11935 -0.586929 8.25129e-22)
(0.119235 -0.593824 8.08441e-22)
(0.119148 -0.600572 -2.04511e-19)
(0.119086 -0.607174 1.96942e-19)
(0.119048 -0.61363 -7.56782e-22)
(0.119031 -0.619943 -1.9126e-19)
(0.119034 -0.626114 1.84293e-19)
(0.119055 -0.632145 0)
(0.17515 -0.252992 -4.42185e-21)
(0.171466 -0.262156 -5.31589e-21)
(0.167962 -0.271438 0)
(0.164641 -0.280841 -6.73645e-21)
(0.161505 -0.290361 -7.28533e-21)
(0.15855 -0.299988 0)
(0.155776 -0.309711 -1.36758e-19)
(0.153179 -0.319515 1.30315e-19)
(0.150755 -0.329385 0)
(0.148497 -0.339303 -2.93724e-19)
(0.1464 -0.349252 2.84757e-19)
(0.144458 -0.359215 4.57758e-21)
(0.142664 -0.369176 0)
(0.141012 -0.379117 0)
(0.139495 -0.389024 -4.58392e-21)
(0.138105 -0.398883 0)
(0.136836 -0.40868 2.97683e-19)
(0.135682 -0.418402 -5.80798e-19)
(0.134636 -0.42804 5.76186e-19)
(0.133691 -0.437581 -2.78797e-19)
(0.132842 -0.447018 0)
(0.132083 -0.456342 2.80629e-19)
(0.131407 -0.465545 -2.71934e-19)
(0.13081 -0.474621 0)
(0.130287 -0.483564 2.7291e-19)
(0.129831 -0.492369 -5.25255e-19)
(0.12944 -0.501033 2.54748e-19)
(0.129107 -0.50955 -2.57651e-19)
(0.12883 -0.51792 2.46468e-19)
(0.128603 -0.526138 -2.48514e-19)
(0.128424 -0.534204 2.39789e-19)
(0.128288 -0.542116 0)
(0.128193 -0.549873 2.32762e-19)
(0.128134 -0.557476 -2.26556e-19)
(0.12811 -0.564922 0)
(0.128117 -0.572214 -2.21495e-19)
(0.128152 -0.579352 2.14097e-19)
(0.128214 -0.586337 -8.20685e-22)
(0.1283 -0.593169 -2.06908e-19)
(0.128407 -0.59985 4.02527e-19)
(0.128535 -0.606382 -1.95035e-19)
(0.12868 -0.612767 1.94295e-19)
(0.128842 -0.619006 1.91828e-21)
(0.172285 -0.24737 -6.10264e-21)
(0.168795 -0.256896 1.94729e-22)
(0.165521 -0.266572 7.54547e-21)
(0.16246 -0.276384 0)
(0.159609 -0.286319 -2.86585e-19)
(0.156962 -0.296359 5.43918e-19)
(0.154513 -0.306484 2.07e-20)
(0.152254 -0.316675 1.91406e-20)
(0.150177 -0.326912 -2.99921e-19)
(0.148275 -0.337174 -4.63879e-21)
(0.146539 -0.347444 0)
(0.14496 -0.357703 -3.08494e-19)
(0.14353 -0.367935 -8.33709e-21)
(0.142241 -0.378122 2.99826e-19)
(0.141085 -0.388251 0)
(0.140053 -0.398307 2.20973e-23)
(0.139138 -0.408279 4.61826e-21)
(0.138333 -0.418156 -4.57905e-21)
(0.137629 -0.427926 0)
(0.137022 -0.437582 2.89172e-19)
(0.136503 -0.447114 -2.80303e-19)
(0.136067 -0.456516 0)
(0.135707 -0.465782 2.15665e-21)
(0.135419 -0.474906 2.75302e-19)
(0.135197 -0.483882 -2.61139e-19)
(0.135035 -0.492709 0)
(0.134929 -0.501382 2.6188e-19)
(0.134875 -0.509898 -2.52688e-19)
(0.134869 -0.518256 1.95553e-21)
(0.134905 -0.526454 0)
(0.134982 -0.534492 1.88625e-21)
(0.135095 -0.542368 0)
(0.13524 -0.550082 -2.3375e-19)
(0.135416 -0.557636 4.54993e-19)
(0.135619 -0.565029 -4.45801e-19)
(0.135846 -0.572262 2.1867e-19)
(0.136096 -0.579336 0)
(0.136365 -0.586254 8.17532e-22)
(0.136652 -0.593016 -2.05881e-19)
(0.136954 -0.599624 3.99842e-19)
(0.13727 -0.60608 -1.97755e-19)
(0.170751 -0.232159 -2.30838e-19)
(0.167355 -0.242058 2.18672e-19)
(0.164206 -0.252123 0)
(0.161299 -0.262334 8.51379e-21)
(0.158627 -0.272671 1.34248e-22)
(0.156178 -0.283111 0)
(0.153945 -0.293632 0)
(0.151917 -0.304209 1.88123e-20)
(0.150083 -0.314823 4.78231e-21)
(0.148434 -0.325451 4.7797e-21)
(0.146958 -0.336073 0)
(0.145645 -0.346671 -3.15943e-19)
(0.144487 -0.357228 2.97755e-19)
(0.143472 -0.367727 3.13885e-19)
(0.142591 -0.378153 -2.96282e-19)
(0.141836 -0.388493 -4.76904e-21)
(0.141198 -0.398735 4.73037e-21)
(0.140669 -0.408868 0)
(0.140241 -0.418883 4.63662e-21)
(0.139905 -0.428769 2.9673e-19)
(0.139656 -0.438521 -2.85699e-19)
(0.139487 -0.448132 -2.9325e-19)
(0.139392 -0.457595 2.80522e-19)
(0.139364 -0.466906 -4.33275e-21)
(0.139397 -0.47606 0)
(0.139488 -0.485054 4.19747e-21)
(0.13963 -0.493886 2.68621e-19)
(0.139819 -0.502552 -2.5943e-19)
(0.14005 -0.511052 2.57144e-19)
(0.14032 -0.519384 -5.00849e-19)
(0.140625 -0.527548 2.43933e-19)
(0.140962 -0.535543 -2.42826e-19)
(0.141326 -0.54337 2.34812e-19)
(0.141715 -0.551029 -9.05542e-22)
(0.142127 -0.558521 -3.91106e-25)
(0.142558 -0.565848 8.68793e-22)
(0.143006 -0.57301 0)
(0.143468 -0.58001 -8.32881e-22)
(0.143944 -0.586849 0)
(0.14443 -0.59353 8.09098e-22)
(0.163703 -0.227435 0)
(0.160781 -0.237988 8.4699e-21)
(0.158123 -0.248684 8.97454e-21)
(0.155717 -0.259496 0)
(0.15355 -0.2704 -3.11775e-19)
(0.15161 -0.281371 2.8773e-19)
(0.149885 -0.292383 -9.67719e-21)
(0.148361 -0.303413 -4.92689e-21)
(0.147026 -0.314441 -3.23504e-19)
(0.145869 -0.325446 -1.41715e-20)
(0.144878 -0.336408 3.15224e-19)
(0.14404 -0.347312 0)
(0.143347 -0.35814 -3.20744e-19)
(0.142787 -0.36888 -1.05899e-20)
(0.14235 -0.379517 6.27089e-19)
(0.142028 -0.390042 -3.03925e-19)
(0.141811 -0.400442 -3.09857e-19)
(0.141692 -0.41071 5.99932e-19)
(0.141662 -0.420837 -2.99746e-19)
(0.141714 -0.430816 -2.29773e-21)
(0.14184 -0.44064 -2.27704e-21)
(0.142035 -0.450304 -2.85628e-19)
(0.142291 -0.459804 -5.70382e-21)
(0.142604 -0.469136 2.73626e-19)
(0.142967 -0.478298 -2.14217e-21)
(0.143376 -0.487286 0)
(0.143826 -0.4961 -2.06835e-21)
(0.144313 -0.504739 0)
(0.144832 -0.513201 0)
(0.14538 -0.521486 0)
(0.145954 -0.529596 1.9218e-21)
(0.146549 -0.53753 0)
(0.147164 -0.545289 -9.24259e-22)
(0.147795 -0.552875 -2.80147e-25)
(0.14844 -0.560289 -8.8704e-22)
(0.149096 -0.567533 2.25379e-19)
(0.149762 -0.574609 -2.16584e-19)
(0.150434 -0.58152 2.17311e-19)
(0.151128 -0.247252 3.17603e-19)
(0.149327 -0.25866 -2.93246e-19)
(0.147759 -0.270114 9.97398e-21)
(0.146409 -0.281587 0)
(0.145262 -0.293057 -3.31334e-19)
(0.144305 -0.304503 3.17315e-19)
(0.143524 -0.315904 -2.98651e-23)
(0.142907 -0.327243 5.06359e-21)
(0.142441 -0.338503 0)
(0.142115 -0.349669 -5.02952e-21)
(0.141918 -0.360727 -5.01921e-21)
(0.141839 -0.371666 -3.23048e-19)
(0.141869 -0.382473 3.11021e-19)
(0.141997 -0.39314 4.88829e-21)
(0.142217 -0.403658 1.16992e-23)
(0.142519 -0.414019 3.13877e-19)
(0.142895 -0.424218 -2.9821e-19)
(0.14334 -0.434249 -2.32705e-21)
(0.143846 -0.444108 -2.29062e-21)
(0.144407 -0.453791 0)
(0.145017 -0.463294 2.87282e-19)
(0.14567 -0.472616 -2.77677e-19)
(0.146362 -0.481755 2.7781e-19)
(0.147088 -0.490709 -2.70787e-19)
(0.147844 -0.499478 -2.68107e-19)
(0.148626 -0.508063 2.61458e-19)
(0.149429 -0.516462 -2.00447e-21)
(0.150251 -0.524678 -2.51383e-19)
(0.151088 -0.53271 2.43357e-19)
(0.151938 -0.540561 -2.42543e-19)
(0.152797 -0.548232 2.37671e-19)
(0.153664 -0.555725 2.32778e-19)
(0.154536 -0.563042 -2.27278e-19)
(0.155411 -0.570186 -8.83172e-22)
(0.146774 -0.22445 0)
(0.145166 -0.236335 -1.07927e-22)
(0.143806 -0.248265 3.34141e-19)
(0.142678 -0.260214 -3.29753e-19)
(0.141766 -0.272157 0)
(0.141054 -0.284072 -1.0375e-20)
(0.140527 -0.295937 5.17313e-21)
(0.140172 -0.307734 3.40784e-19)
(0.139973 -0.319445 1.23938e-20)
(0.139919 -0.331055 -3.21506e-19)
(0.139998 -0.34255 -3.3105e-19)
(0.140197 -0.353917 3.23696e-19)
(0.140508 -0.365146 3.30879e-19)
(0.140919 -0.376226 -3.13898e-19)
(0.141421 -0.387149 3.29222e-19)
(0.142006 -0.397907 -3.17779e-19)
(0.142664 -0.408494 -4.8853e-21)
(0.14339 -0.418905 3.12366e-19)
(0.144174 -0.429133 -6.02683e-19)
(0.145011 -0.439176 -8.20945e-21)
(0.145895 -0.449031 2.93493e-19)
(0.146819 -0.458694 -2.94287e-19)
(0.147778 -0.468165 2.86922e-19)
(0.148767 -0.477443 -2.82437e-19)
(0.149783 -0.486526 5.55213e-19)
(0.15082 -0.495415 -2.70788e-19)
(0.151874 -0.50411 0)
(0.152943 -0.512611 -2.05516e-21)
(0.154022 -0.520921 2.01662e-21)
(0.155109 -0.529041 -3.95558e-21)
(0.156201 -0.536972 -2.5064e-19)
(0.157296 -0.544717 2.43831e-19)
(0.158391 -0.552277 1.8624e-21)
(0.159484 -0.559656 0)
(0.14066 -0.202223 -3.06272e-19)
(0.1393 -0.214613 3.26319e-19)
(0.138203 -0.227047 -6.73747e-19)
(0.137349 -0.239495 3.37572e-19)
(0.136721 -0.251933 -1.05784e-20)
(0.136301 -0.264337 -3.39436e-19)
(0.136074 -0.276686 3.25285e-19)
(0.136023 -0.288959 3.45698e-19)
(0.136133 -0.301139 -3.42885e-19)
(0.136392 -0.31321 3.43932e-19)
(0.136785 -0.325158 -3.41643e-19)
(0.137301 -0.336969 0)
(0.137928 -0.348633 -5.27132e-21)
(0.138656 -0.360138 3.34541e-19)
(0.139473 -0.371477 -6.64408e-19)
(0.140372 -0.382641 3.24903e-19)
(0.141342 -0.393624 9.25597e-24)
(0.142376 -0.40442 0)
(0.143466 -0.415025 -9.92189e-21)
(0.144605 -0.425434 3.18815e-19)
(0.145786 -0.435644 -6.17836e-19)
(0.147004 -0.445654 3.01706e-19)
(0.148253 -0.455461 0)
(0.149527 -0.465065 0)
(0.150823 -0.474464 -2.92475e-19)
(0.152134 -0.48366 5.68486e-19)
(0.153458 -0.492652 -2.7845e-19)
(0.154791 -0.501442 2.77278e-19)
(0.15613 -0.510031 -2.68679e-19)
(0.15747 -0.51842 3.90274e-25)
(0.158811 -0.526612 -2.61851e-19)
(0.160148 -0.534608 2.51834e-19)
(0.16148 -0.542412 -9.77428e-22)
(0.162805 -0.550026 -2.50026e-19)
(0.133006 -0.180794 1.0066e-20)
(0.131952 -0.193707 0)
(0.131171 -0.20666 1.06613e-20)
(0.130642 -0.219623 0)
(0.130347 -0.23257 3.68984e-19)
(0.130267 -0.245475 -3.54485e-19)
(0.130383 -0.258318 0)
(0.130679 -0.271077 1.10664e-20)
(0.131139 -0.283735 3.67722e-19)
(0.131748 -0.296274 -3.43134e-19)
(0.132493 -0.308681 -5.52272e-21)
(0.13336 -0.320942 5.5007e-21)
(0.134336 -0.333045 3.61276e-19)
(0.135411 -0.34498 -6.96488e-19)
(0.136574 -0.356738 3.40966e-19)
(0.137814 -0.368311 3.5727e-19)
(0.139122 -0.379693 -3.29693e-19)
(0.140491 -0.390877 -3.38948e-19)
(0.141911 -0.40186 6.73011e-19)
(0.143375 -0.412636 -3.23949e-19)
(0.144877 -0.423204 0)
(0.14641 -0.43356 0)
(0.147968 -0.443704 0)
(0.149546 -0.453634 0)
(0.151139 -0.46335 2.37559e-21)
(0.152743 -0.472852 0)
(0.154353 -0.48214 -2.29799e-21)
(0.155965 -0.491217 2.93321e-19)
(0.157577 -0.500083 -2.82158e-19)
(0.159186 -0.508739 3.42032e-25)
(0.160787 -0.51719 -2.7526e-19)
(0.16238 -0.525435 2.66926e-19)
(0.163961 -0.53348 2.05661e-21)
(0.165528 -0.541325 0)
(0.123384 -0.173777 3.28495e-19)
(0.12297 -0.187255 -3.59117e-19)
(0.122815 -0.200739 7.08572e-19)
(0.122898 -0.2142 -3.38447e-19)
(0.123199 -0.227612 1.13737e-20)
(0.123699 -0.240954 0)
(0.124381 -0.254203 -5.8145e-23)
(0.125228 -0.267342 -1.14716e-20)
(0.126223 -0.280353 3.74681e-19)
(0.127352 -0.293221 -3.49808e-19)
(0.128602 -0.305933 -1.78491e-23)
(0.129958 -0.318476 5.69168e-21)
(0.131409 -0.330841 0)
(0.132944 -0.343018 3.64866e-19)
(0.134551 -0.354999 -3.58363e-19)
(0.136222 -0.366777 3.58132e-19)
(0.137948 -0.378348 -7.00855e-19)
(0.139719 -0.389705 3.3754e-19)
(0.141529 -0.400847 5.34955e-21)
(0.14337 -0.411768 0)
(0.145236 -0.422468 0)
(0.147121 -0.432944 -3.32016e-19)
(0.149019 -0.443197 3.21764e-19)
(0.150926 -0.453225 -2.4969e-21)
(0.152836 -0.463029 0)
(0.154746 -0.47261 2.41763e-21)
(0.156651 -0.481968 -2.37705e-21)
(0.158549 -0.491107 0)
(0.160436 -0.500027 2.95498e-19)
(0.16231 -0.508731 -5.74436e-19)
(0.164168 -0.517221 2.81376e-19)
(0.166008 -0.525501 2.76951e-19)
(0.167827 -0.533574 -2.72575e-19)
(0.113907 -0.154938 3.50545e-19)
(0.1139 -0.168936 -3.46085e-19)
(0.114156 -0.182937 1.13507e-20)
(0.114653 -0.196909 3.80273e-19)
(0.115371 -0.210827 -3.53846e-19)
(0.11629 -0.224666 -1.17826e-20)
(0.11739 -0.238404 3.76527e-19)
(0.118654 -0.252022 2.69707e-20)
(0.120065 -0.265501 -3.75463e-19)
(0.121608 -0.278827 -1.79157e-20)
(0.123267 -0.291986 -1.19286e-20)
(0.125028 -0.304965 -3.92096e-19)
(0.12688 -0.317754 7.57264e-19)
(0.128809 -0.330343 -7.52747e-19)
(0.130806 -0.342726 3.63172e-19)
(0.132859 -0.354895 -3.75035e-19)
(0.13496 -0.366845 3.63128e-19)
(0.1371 -0.378571 5.67705e-21)
(0.139271 -0.39007 -3.63197e-19)
(0.141467 -0.401339 3.51953e-19)
(0.14368 -0.412375 5.48092e-21)
(0.145905 -0.423178 0)
(0.148135 -0.433747 0)
(0.150366 -0.444081 -3.39149e-19)
(0.152594 -0.454181 3.28943e-19)
(0.154814 -0.464047 3.25997e-19)
(0.157022 -0.473682 -3.1873e-19)
(0.159215 -0.483087 0)
(0.16139 -0.492264 4.84515e-21)
(0.163544 -0.501216 -3.06399e-19)
(0.165675 -0.509945 2.9967e-19)
(0.16778 -0.518455 2.95074e-19)
(0.169858 -0.526748 -2.92805e-19)
(0.103874 -0.137184 3.56748e-19)
(0.104306 -0.151692 0)
(0.105004 -0.166203 -1.18132e-20)
(0.105944 -0.180685 -8.69208e-23)
(0.107105 -0.195109 -1.21717e-20)
(0.108467 -0.209449 4.13693e-19)
(0.110009 -0.223679 -7.90588e-19)
(0.111713 -0.237778 4.0182e-19)
(0.11356 -0.251727 0)
(0.115535 -0.26551 4.05936e-19)
(0.11762 -0.279112 -3.7358e-19)
(0.119802 -0.292521 0)
(0.122068 -0.305726 4.08233e-19)
(0.124404 -0.318719 -7.88841e-19)
(0.1268 -0.331493 7.90109e-19)
(0.129246 -0.344042 9.30782e-21)
(0.131732 -0.356361 -7.71807e-19)
(0.13425 -0.368446 3.78226e-19)
(0.136792 -0.380292 -5.80754e-24)
(0.13935 -0.391898 3.7787e-19)
(0.141918 -0.403261 -3.78021e-19)
(0.144489 -0.414381 0)
(0.147059 -0.425257 0)
(0.149622 -0.435889 -3.60902e-19)
(0.152173 -0.446276 -5.26408e-21)
(0.154709 -0.456421 3.45043e-19)
(0.157226 -0.466325 0)
(0.159719 -0.475989 0)
(0.162188 -0.485417 -2.56436e-21)
(0.164627 -0.494609 -2.5198e-21)
(0.167036 -0.503571 -4.94961e-21)
(0.169413 -0.512303 3.15113e-19)
(0.171754 -0.520812 -6.2157e-19)
(0.0945382 -0.135525 3.67648e-19)
(0.0956739 -0.150521 4.01586e-19)
(0.0970526 -0.165492 -3.98624e-19)
(0.0986534 -0.180406 -4.01191e-19)
(0.100456 -0.195232 3.85964e-19)
(0.10244 -0.209943 0)
(0.104586 -0.224516 -1.29901e-20)
(0.106876 -0.238928 4.24482e-19)
(0.109292 -0.253161 2.77215e-20)
(0.111816 -0.267199 -8.48744e-19)
(0.114432 -0.281029 4.04434e-19)
(0.117125 -0.294643 4.15731e-19)
(0.119879 -0.308032 -4.08958e-19)
(0.122684 -0.321191 0)
(0.12553 -0.334114 -4.14682e-19)
(0.128408 -0.346795 8.13344e-19)
(0.131309 -0.35923 -4.05171e-19)
(0.134226 -0.371417 -6.24367e-21)
(0.137151 -0.383353 0)
(0.140078 -0.395037 6.10941e-21)
(0.143001 -0.406467 0)
(0.145914 -0.417644 0)
(0.148812 -0.428567 -3.76214e-19)
(0.151692 -0.439236 3.70971e-19)
(0.154548 -0.449654 0)
(0.157377 -0.459821 0)
(0.160175 -0.46974 -2.76615e-21)
(0.162941 -0.479412 -3.5315e-19)
(0.16567 -0.488841 3.40237e-19)
(0.168361 -0.49803 1.35373e-26)
(0.171012 -0.506981 -3.34604e-19)
(0.173621 -0.515699 3.29623e-19)
(0.0846059 -0.120222 4.1658e-19)
(0.0861792 -0.135672 -3.88224e-19)
(0.087997 -0.151123 4.2211e-19)
(0.0900394 -0.166535 -4.46301e-19)
(0.0922858 -0.18187 -4.33e-19)
(0.0947154 -0.197096 4.16793e-19)
(0.0973078 -0.21218 0)
(0.100043 -0.227098 0)
(0.102901 -0.241823 -4.52383e-19)
(0.105863 -0.256332 4.3619e-19)
(0.108908 -0.270597 2.06917e-20)
(0.11202 -0.284602 6.85621e-21)
(0.115189 -0.298351 6.82383e-21)
(0.118409 -0.31186 -4.40731e-19)
(0.121669 -0.325128 -1.05188e-20)
(0.124956 -0.338147 4.24855e-19)
(0.128258 -0.350913 4.31065e-19)
(0.131566 -0.363423 -4.18359e-19)
(0.134873 -0.375674 0)
(0.138172 -0.387666 0)
(0.141457 -0.399395 -4.12983e-19)
(0.144724 -0.410863 4.07256e-19)
(0.147968 -0.422068 4.0221e-19)
(0.151184 -0.433012 -7.90159e-19)
(0.154369 -0.443696 3.85064e-19)
(0.157519 -0.454121 -3.84679e-19)
(0.16063 -0.464288 7.55083e-19)
(0.163699 -0.4742 -3.64761e-19)
(0.166725 -0.483861 0)
(0.169705 -0.493272 3.62372e-19)
(0.172636 -0.502437 -7.02341e-19)
(0.175518 -0.51136 3.45173e-19)
(0.0744821 -0.10598 -4.10811e-19)
(0.0765116 -0.121789 -1.37834e-20)
(0.0787872 -0.137634 1.4127e-20)
(0.0812888 -0.153471 4.71606e-19)
(0.0839952 -0.169254 -4.40424e-19)
(0.0868837 -0.18494 2.9462e-20)
(0.0899326 -0.200492 -4.8463e-19)
(0.0931208 -0.21588 -1.83966e-20)
(0.0964291 -0.23108 4.54154e-19)
(0.0998392 -0.246068 1.48941e-20)
(0.103334 -0.260824 -1.48961e-20)
(0.106898 -0.275327 -7.4112e-21)
(0.110517 -0.289562 -7.36219e-21)
(0.114176 -0.303519 -7.28781e-21)
(0.117861 -0.317188 0)
(0.121558 -0.33056 0)
(0.125256 -0.343634 -7.06698e-21)
(0.128952 -0.356426 0)
(0.132642 -0.368954 -4.55169e-19)
(0.136319 -0.38122 -1.50391e-20)
(0.139975 -0.393221 8.62228e-19)
(0.143603 -0.404956 -8.65453e-19)
(0.1472 -0.416425 4.20581e-19)
(0.15076 -0.427627 -6.53473e-21)
(0.154281 -0.438561 -3.22183e-21)
(0.157758 -0.44923 0)
(0.161188 -0.459635 4.02913e-19)
(0.164568 -0.469777 -7.87839e-19)
(0.167896 -0.47966 3.85108e-19)
(0.17117 -0.489285 0)
(0.174387 -0.498657 3.79214e-19)
(0.177547 -0.507778 -3.67901e-19)
(0.0645451 -0.0928288 -4.64144e-19)
(0.0670473 -0.10893 9.13968e-19)
(0.0697982 -0.125113 -4.63704e-19)
(0.0727778 -0.141327 1.53202e-20)
(0.0759638 -0.157517 -5.25112e-19)
(0.0793324 -0.173631 -2.29522e-20)
(0.0828593 -0.189622 1.03164e-18)
(0.0865219 -0.205452 -5.16504e-19)
(0.0902989 -0.22109 5.21072e-19)
(0.0941705 -0.236511 -5.19e-19)
(0.0981183 -0.251692 0)
(0.102126 -0.266617 0)
(0.106178 -0.281273 -7.88267e-21)
(0.110263 -0.295648 5.15602e-19)
(0.114367 -0.309734 -4.90574e-19)
(0.118479 -0.323521 -7.6763e-21)
(0.122589 -0.337003 -4.91467e-19)
(0.126687 -0.350174 4.75151e-19)
(0.130762 -0.363032 -4.63884e-19)
(0.134808 -0.375583 4.70915e-19)
(0.138821 -0.387841 4.73711e-19)
(0.142801 -0.399825 7.72803e-21)
(0.146743 -0.411539 -4.47817e-19)
(0.150642 -0.422983 6.96531e-21)
(0.154494 -0.434157 -4.39367e-19)
(0.158295 -0.445059 4.26919e-19)
(0.162041 -0.455692 -3.33404e-21)
(0.16573 -0.466055 0)
(0.16936 -0.476152 -4.15946e-19)
(0.172927 -0.485985 -4.72302e-21)
(0.17643 -0.495556 -7.56387e-21)
(0.179867 -0.50487 3.95928e-19)
(0.0552643 -0.0806505 5.01172e-19)
(0.0582297 -0.096953 -4.57181e-19)
(0.0614442 -0.113391 1.57247e-20)
(0.0648894 -0.12991 1.61519e-20)
(0.0685432 -0.146447 1.64912e-20)
(0.0723806 -0.162942 5.32599e-19)
(0.0763759 -0.179337 -1.1024e-18)
(0.0805047 -0.195584 5.52613e-19)
(0.0847441 -0.211645 1.7153e-20)
(0.0890733 -0.227489 0)
(0.0934727 -0.243092 -5.72396e-19)
(0.0979247 -0.258432 -1.6307e-20)
(0.102413 -0.273492 5.41761e-19)
(0.106923 -0.28826 0)
(0.111441 -0.302728 -5.38754e-19)
(0.115956 -0.316886 5.28901e-19)
(0.120458 -0.330731 1.62853e-20)
(0.124939 -0.34426 5.20378e-19)
(0.129389 -0.35747 2.17026e-21)
(0.133804 -0.370362 -4.89171e-19)
(0.138175 -0.382937 0)
(0.142499 -0.395201 -4.92324e-19)
(0.146774 -0.407169 -7.79441e-21)
(0.150998 -0.418855 4.79394e-19)
(0.15517 -0.430267 -4.65449e-19)
(0.159285 -0.441403 4.63169e-19)
(0.16334 -0.452264 3.56357e-21)
(0.16733 -0.462849 0)
(0.171254 -0.473161 0)
(0.175109 -0.483202 3.39457e-21)
(0.178893 -0.492973 3.33659e-21)
(0.182603 -0.502479 0)
(0.0468487 -0.0693813 5.23708e-19)
(0.0502539 -0.0857909 -4.7968e-19)
(0.0539082 -0.102395 5.31563e-19)
(0.057796 -0.119139 -5.50807e-19)
(0.0618963 -0.135956 -8.86691e-23)
(0.0661835 -0.152776 0)
(0.0706301 -0.169528 0)
(0.0752094 -0.186154 5.95313e-19)
(0.0798963 -0.202606 -1.18982e-18)
(0.0846681 -0.218846 5.76014e-19)
(0.0895036 -0.234843 1.83071e-20)
(0.0943839 -0.250575 0)
(0.099292 -0.266021 -5.8756e-19)
(0.104213 -0.281168 -1.53205e-20)
(0.109133 -0.296005 1.1403e-18)
(0.11404 -0.310525 -5.66693e-19)
(0.118925 -0.324721 5.64664e-19)
(0.123778 -0.338591 -5.3744e-19)
(0.128592 -0.352134 0)
(0.13336 -0.365349 -1.68073e-20)
(0.138077 -0.378239 8.28457e-21)
(0.142738 -0.390807 5.27536e-19)
(0.14734 -0.40306 -5.03475e-19)
(0.151882 -0.415009 -7.95129e-21)
(0.156363 -0.426668 -1.56844e-20)
(0.160783 -0.438047 -4.98519e-19)
(0.165137 -0.449144 4.84642e-19)
(0.169421 -0.459959 4.83634e-19)
(0.173633 -0.470494 9.48286e-21)
(0.177769 -0.48075 -4.66163e-19)
(0.181828 -0.490728 -4.67058e-19)
(0.185807 -0.500433 -4.88441e-21)
(0.0393641 -0.0589555 -2.97253e-19)
(0.0431787 -0.0753742 2.42507e-19)
(0.0472397 -0.0920458 2.8845e-19)
(0.0515368 -0.108924 -2.81834e-19)
(0.056052 -0.125942 5.92966e-19)
(0.0607604 -0.143021 -5.94723e-19)
(0.0656333 -0.16008 0)
(0.0706413 -0.177046 1.94496e-20)
(0.0757567 -0.193858 6.38285e-19)
(0.0809537 -0.210468 -6.16498e-19)
(0.0862092 -0.226838 0)
(0.0915021 -0.24294 1.94845e-20)
(0.0968143 -0.258751 1.93759e-20)
(0.10213 -0.274255 0)
(0.107435 -0.289442 0)
(0.112719 -0.304304 9.45861e-21)
(0.11797 -0.318835 -1.86983e-20)
(0.123181 -0.333032 5.884e-19)
(0.128344 -0.346895 -5.69038e-19)
(0.133453 -0.360424 1.03596e-23)
(0.138503 -0.37362 -1.77686e-20)
(0.14349 -0.386487 0)
(0.14841 -0.39903 5.48633e-19)
(0.153263 -0.411258 -5.40803e-19)
(0.158048 -0.423183 8.40332e-21)
(0.162765 -0.434817 -4.14121e-21)
(0.167413 -0.446163 0)
(0.171985 -0.45722 -4.02175e-21)
(0.17648 -0.467989 -2.20438e-24)
(0.180893 -0.47847 -4.97696e-19)
(0.185223 -0.488667 4.87489e-19)
(0.189466 -0.49858 0)
(0.0328133 -0.0493648 -3.30694e-20)
(0.0370092 -0.0656836 2.89641e-19)
(0.0414439 -0.0823159 -3.0278e-19)
(0.0461144 -0.0992254 3.33233e-19)
(0.0510086 -0.116351 -2.87802e-19)
(0.0561045 -0.13361 -3.31132e-19)
(0.0613735 -0.150913 3.21956e-19)
(0.0667836 -0.168169 -3.81374e-19)
(0.0723035 -0.185302 3.70743e-19)
(0.0779042 -0.202252 2.097e-20)
(0.0835592 -0.218969 2.09541e-20)
(0.0892455 -0.235419 -4.18124e-20)
(0.0949431 -0.251574 -2.08092e-20)
(0.100635 -0.267417 -6.69164e-19)
(0.106308 -0.282935 1.31915e-18)
(0.111949 -0.29812 -6.50356e-19)
(0.11755 -0.312969 -6.38199e-19)
(0.123102 -0.327478 -1.35297e-20)
(0.128598 -0.341648 6.09617e-19)
(0.134034 -0.355478 9.65649e-21)
(0.139403 -0.368972 9.52662e-21)
(0.144704 -0.382133 0)
(0.149932 -0.394964 -9.25518e-21)
(0.155087 -0.407475 0)
(0.160169 -0.419676 -9.00388e-21)
(0.16518 -0.431579 5.86043e-19)
(0.170116 -0.443186 -1.12141e-18)
(0.174973 -0.454498 5.48852e-19)
(0.179747 -0.465514 5.4295e-19)
(0.184434 -0.476233 -5.36073e-19)
(0.18903 -0.486659 4.11067e-21)
(0.193535 -0.496793 -4.09462e-21)
(0.0272222 -0.0406493 2.98645e-19)