/*--------------------------------*- C++ -*----------------------------------*\
  =========                 |
  \\      /  F ield         | OpenFOAM: The Open Source CFD Toolbox
   \\    /   O peration     | Website:  https://openfoam.org
    \\  /    A nd           | Version:  10
     \\/     M anipulation  |
\*---------------------------------------------------------------------------*/
FoamFile
{
    format      ascii;
    class       volScalarField;
    location    "1700";
    object      k;
}
// * * * * * * * * * * * * * * * * * * * * * * * * * * * * * * * * * * * * * //

dimensions      [0 2 -2 0 0 0 0];

internalField   nonuniform List<scalar> 
420
(
2.22045e-16
2.22045e-16
2.22045e-16
2.22045e-16
2.22045e-16
2.22045e-16
2.22045e-16
2.22045e-16
2.22045e-16
2.22045e-16
2.22045e-16
2.22045e-16
2.22045e-16
2.22045e-16
2.22045e-16
2.22045e-16
2.22045e-16
2.22045e-16
2.22045e-16
2.22045e-16
2.22045e-16
2.22045e-16
2.22045e-16
2.22045e-16
2.22045e-16
2.22045e-16
2.22045e-16
2.22045e-16
2.22045e-16
2.22045e-16
2.22045e-16
2.22045e-16
2.22045e-16
2.22045e-16
2.22045e-16
2.22045e-16
2.22045e-16
2.22045e-16
2.22045e-16
2.22045e-16
2.22045e-16
2.22045e-16
2.22045e-16
2.22045e-16
2.22045e-16
2.22045e-16
2.22045e-16
2.22045e-16
2.22045e-16
2.22045e-16
2.22045e-16
2.22045e-16
2.22045e-16
2.22045e-16
2.22045e-16
2.22045e-16
2.22045e-16
2.22045e-16
2.22045e-16
2.22045e-16
2.22045e-16
2.22045e-16
2.22045e-16
2.22045e-16
2.22045e-16
2.22045e-16
2.22045e-16
2.22045e-16
2.22045e-16
2.22045e-16
2.22045e-16
2.22045e-16
2.22045e-16
2.22045e-16
2.22045e-16
2.22045e-16
2.22045e-16
2.22045e-16
2.22045e-16
2.22045e-16
2.22045e-16
2.22045e-16
2.22045e-16
2.22045e-16
2.22045e-16
2.22045e-16
2.22045e-16
2.22045e-16
2.22045e-16
2.22045e-16
2.22045e-16
2.22045e-16
2.22045e-16
2.22045e-16
2.22045e-16
2.22045e-16
2.22045e-16
2.22045e-16
2.22045e-16
2.22045e-16
2.22045e-16
2.22045e-16
2.22045e-16
2.51137e-16
2.97976e-16
3.05524e-16
2.50019e-16
2.22045e-16
2.40858e-16
2.8432e-16
2.22045e-16
2.22045e-16
2.22045e-16
2.50235e-16
2.97107e-16
3.03766e-16
2.41181e-16
2.22045e-16
2.30812e-16
2.76857e-16
2.22045e-16
2.22045e-16
2.22045e-16
2.522e-16
2.9843e-16
3.02024e-16
2.34251e-16
2.22045e-16
2.24306e-16
2.73199e-16
2.22045e-16
2.22045e-16
2.22045e-16
2.55585e-16
3.003e-16
2.998e-16
2.29129e-16
2.22045e-16
2.22045e-16
2.71054e-16
2.22045e-16
2.22045e-16
2.22045e-16
2.60544e-16
3.02893e-16
2.9747e-16
2.25027e-16
2.22045e-16
2.22045e-16
2.69324e-16
2.22045e-16
2.22045e-16
2.22045e-16
2.66891e-16
3.05801e-16
2.94777e-16
2.22045e-16
2.22045e-16
2.22045e-16
2.68384e-16
2.22045e-16
2.22045e-16
2.22045e-16
2.74088e-16
3.08169e-16
2.91489e-16
2.22045e-16
2.22045e-16
2.22045e-16
2.68379e-16
2.22045e-16
2.22045e-16
2.22045e-16
2.81272e-16
3.09577e-16
2.88128e-16
2.22045e-16
2.22045e-16
2.22045e-16
2.69151e-16
2.22045e-16
2.22045e-16
2.22045e-16
2.87766e-16
3.0979e-16
2.84519e-16
2.22045e-16
2.22045e-16
2.22045e-16
2.70644e-16
2.22045e-16
2.22045e-16
2.24643e-16
2.93623e-16
3.10744e-16
2.82762e-16
2.22045e-16
2.22045e-16
2.22882e-16
2.72708e-16
2.22045e-16
2.22045e-16
2.42575e-16
3.0147e-16
3.15184e-16
2.85027e-16
2.22045e-16
2.22045e-16
2.25278e-16
2.75174e-16
2.22045e-16
2.22045e-16
2.58291e-16
3.06302e-16
3.17192e-16
2.84981e-16
2.22045e-16
2.22045e-16
2.26927e-16
2.79367e-16
2.22045e-16
2.22045e-16
2.73422e-16
3.05756e-16
3.13303e-16
2.79903e-16
2.22045e-16
2.22045e-16
2.31305e-16
2.84788e-16
2.22045e-16
2.52826e-16
2.7528e-16
2.97339e-16
3.0559e-16
2.74644e-16
2.22045e-16
2.22045e-16
2.38388e-16
2.90325e-16
2.35023e-16
2.54078e-16
2.6782e-16
2.89493e-16
3.01305e-16
2.73135e-16
2.22045e-16
2.22045e-16
2.41803e-16
2.92828e-16
2.35399e-16
2.46146e-16
2.5861e-16
2.8161e-16
2.97764e-16
2.72969e-16
2.22045e-16
2.22045e-16
2.45502e-16
2.93601e-16
2.2915e-16
2.36915e-16
2.48551e-16
2.7301e-16
2.94149e-16
2.73625e-16
2.22045e-16
2.22045e-16
2.50033e-16
2.93244e-16
2.23376e-16
2.28599e-16
2.38753e-16
2.64477e-16
2.90942e-16
2.75235e-16
2.22048e-16
2.22264e-16
2.55145e-16
2.91599e-16
2.22045e-16
2.22462e-16
2.30353e-16
2.56883e-16
2.88355e-16
2.78277e-16
2.26914e-16
2.2545e-16
2.59751e-16
2.86803e-16
2.22045e-16
2.22045e-16
2.23931e-16
2.51174e-16
2.86788e-16
2.8301e-16
2.32744e-16
2.28846e-16
2.62747e-16
2.7828e-16
2.22045e-16
2.22045e-16
2.22045e-16
2.5006e-16
2.89875e-16
2.89762e-16
2.3846e-16
2.30583e-16
2.66185e-16
2.73149e-16
2.22151e-16
2.22045e-16
2.22483e-16
2.5177e-16
2.95341e-16
2.96498e-16
2.41384e-16
2.30186e-16
2.7246e-16
2.7652e-16
2.22045e-16
2.22045e-16
2.22045e-16
2.22045e-16
2.22045e-16
2.22045e-16
2.22045e-16
2.22045e-16
2.22045e-16
2.22045e-16
2.22045e-16
2.22045e-16
2.22045e-16
2.22045e-16
2.22045e-16
2.22045e-16
2.22045e-16
2.22045e-16
2.22045e-16
2.22045e-16
2.22045e-16
2.22045e-16
2.22045e-16
2.22045e-16
2.22045e-16
2.22045e-16
2.22045e-16
2.22045e-16
2.22045e-16
2.22045e-16
2.22045e-16
2.22045e-16
2.22045e-16
2.22045e-16
2.22045e-16
2.22045e-16
2.22045e-16
2.22045e-16
2.22045e-16
2.22045e-16
2.22045e-16
2.22045e-16
2.22045e-16
2.22045e-16
2.22045e-16
2.22045e-16
2.22045e-16
2.22045e-16
2.22045e-16
2.22045e-16
2.22045e-16
2.22045e-16
2.22045e-16
2.22045e-16
2.22045e-16
2.22045e-16
2.22045e-16
2.22045e-16
2.22045e-16
2.22045e-16
2.22045e-16
2.22045e-16
2.22045e-16
2.22045e-16
2.22045e-16
2.22045e-16
2.22045e-16
2.22045e-16
2.22045e-16
2.22045e-16
2.22045e-16
2.22045e-16
2.22045e-16
2.22045e-16
2.22045e-16
2.22045e-16
2.22045e-16
2.22045e-16
2.22045e-16
2.22045e-16
2.22045e-16
2.22045e-16
2.22045e-16
2.22045e-16
2.22045e-16
2.22045e-16
2.22045e-16
2.22045e-16
2.22045e-16
2.22045e-16
2.22045e-16
2.22045e-16
2.22045e-16
2.22045e-16
2.22045e-16
2.22045e-16
2.22045e-16
2.22045e-16
2.22045e-16
2.22045e-16
)
;

boundaryField
{
    right
    {
        type            cyclic;
    }
    left
    {
        type            cyclic;
    }
    outerWall
    {
        type            kqRWallFunction;
        value           nonuniform List<scalar> 
22
(
2.8432e-16
2.76857e-16
2.73199e-16
2.71054e-16
2.69324e-16
2.68384e-16
2.68379e-16
2.69151e-16
2.70644e-16
2.72708e-16
2.75174e-16
2.79367e-16
2.84788e-16
2.90325e-16
2.92828e-16
2.93601e-16
2.93244e-16
2.91599e-16
2.86803e-16
2.7828e-16
2.73149e-16
2.7652e-16
)
;
    }
    stirrerWall
    {
        type            kqRWallFunction;
        value           uniform 2.22045e-16;
    }
    top
    {
        type            empty;
    }
    bottom
    {
        type            empty;
    }
}


// ************************************************************************* //
