/*--------------------------------*- C++ -*----------------------------------*\
  =========                 |
  \\      /  F ield         | OpenFOAM: The Open Source CFD Toolbox
   \\    /   O peration     | Website:  https://openfoam.org
    \\  /    A nd           | Version:  10
     \\/     M anipulation  |
\*---------------------------------------------------------------------------*/
FoamFile
{
    format      ascii;
    class       volScalarField;
    location    "1700";
    object      nut;
}
// * * * * * * * * * * * * * * * * * * * * * * * * * * * * * * * * * * * * * //

dimensions      [0 2 -1 0 0 0 0];

internalField   nonuniform List<scalar> 
420
(
1.04478e-20
5.50581e-20
1.53055e-19
2.98633e-19
4.69548e-19
6.42489e-19
7.82363e-19
8.31292e-19
7.60078e-19
6.26796e-19
1.04473e-20
5.5646e-20
1.5071e-19
2.90392e-19
4.57472e-19
6.29541e-19
7.65717e-19
8.01745e-19
7.14587e-19
5.74418e-19
1.04471e-20
5.71775e-20
1.53217e-19
2.90738e-19
4.54651e-19
6.23369e-19
7.51159e-19
7.67971e-19
6.61289e-19
5.15875e-19
1.04472e-20
5.90812e-20
1.58915e-19
2.96673e-19
4.55702e-19
6.14749e-19
7.26033e-19
7.19126e-19
5.95913e-19
4.50741e-19
1.04476e-20
6.11734e-20
1.64928e-19
2.98767e-19
4.42504e-19
5.77809e-19
6.62794e-19
6.37023e-19
5.12661e-19
3.79145e-19
1.04483e-20
6.25195e-20
1.63247e-19
2.75307e-19
3.82201e-19
4.7631e-19
5.31513e-19
5.07046e-19
4.10245e-19
3.0282e-19
1.04493e-20
5.99811e-20
1.3593e-19
2.0173e-19
2.58925e-19
3.09976e-19
3.44523e-19
3.42337e-19
2.94968e-19
2.2345e-19
1.04506e-20
4.7654e-20
7.93973e-20
1.03411e-19
1.2647e-19
1.49427e-19
1.70106e-19
1.84133e-19
1.79826e-19
1.43724e-19
1.04522e-20
2.14763e-20
2.7917e-20
3.44627e-20
4.1674e-20
4.93641e-20
5.74685e-20
6.61774e-20
7.57036e-20
6.89093e-20
2.82342e-21
3.6643e-21
4.61494e-21
5.67535e-21
6.84552e-21
8.12545e-21
9.51514e-21
1.10146e-20
1.26238e-20
1.43428e-20
5.10617e-19
4.51752e-19
4.76915e-19
6.68309e-19
9.95698e-19
8.44298e-19
5.07045e-19
5.00071e-19
2.17153e-19
7.21349e-20
4.60838e-19
4.11787e-19
4.53545e-19
6.62939e-19
1.00593e-18
8.60729e-19
5.42298e-19
4.87336e-19
2.30179e-19
7.34985e-20
4.08138e-19
3.7132e-19
4.31272e-19
6.67678e-19
1.02358e-18
8.56745e-19
5.83021e-19
4.74454e-19
2.306e-19
7.33581e-20
3.52594e-19
3.30479e-19
4.10528e-19
6.79685e-19
1.04337e-18
8.74309e-19
6.06296e-19
4.62367e-19
2.32137e-19
7.26711e-20
2.94648e-19
2.89439e-19
3.91356e-19
6.99437e-19
1.06445e-18
8.85763e-19
6.19289e-19
4.50419e-19
2.32372e-19
7.21189e-20
2.35183e-19
2.48521e-19
3.74042e-19
7.27048e-19
1.00587e-18
8.91151e-19
6.3339e-19
4.38116e-19
2.28903e-19
7.17436e-20
1.75492e-19
2.08265e-19
3.59281e-19
7.61958e-19
9.83349e-19
8.64168e-19
6.55969e-19
4.25897e-19
2.24923e-19
7.15086e-20
1.18271e-19
1.69211e-19
3.47486e-19
7.75832e-19
9.52755e-19
8.30088e-19
6.54345e-19
4.14696e-19
2.20023e-19
7.13945e-20
6.77226e-20
1.32177e-19
3.40881e-19
8.16356e-19
9.53913e-19
8.2573e-19
6.50072e-19
4.04428e-19
2.14243e-19
7.14031e-20
3.04143e-20
9.99227e-20
3.48427e-19
8.97698e-19
1.12391e-18
9.74475e-19
6.52108e-19
3.97297e-19
2.0884e-19
7.11978e-20
1.03958e-20
7.91578e-20
4.11158e-19
9.53214e-19
1.14278e-18
1.01971e-18
6.58341e-19
3.95024e-19
2.05625e-19
7.1541e-20
1.03958e-20
9.87814e-20
5.2147e-19
7.6977e-19
8.84038e-19
8.42408e-19
6.59119e-19
4.02032e-19
2.08417e-19
7.27916e-20
6.04254e-20
2.71084e-19
6.35009e-19
7.23113e-19
8.18728e-19
7.95983e-19
6.58084e-19
4.0822e-19
2.14833e-19
7.38031e-20
2.76363e-19
5.55611e-19
6.68613e-19
7.57499e-19
8.6481e-19
8.52836e-19
6.64449e-19
4.03721e-19
2.18576e-19
7.31617e-20
5.80643e-19
6.14431e-19
6.98464e-19
7.88604e-19
9.01283e-19
9.05182e-19
6.76591e-19
4.07619e-19
2.13642e-19
7.26947e-20
6.68145e-19
6.44286e-19
6.99792e-19
7.89626e-19
9.01119e-19
9.47587e-19
6.92595e-19
4.1916e-19
2.11385e-19
7.25303e-20
7.06018e-19
6.5741e-19
7.0129e-19
8.00921e-19
9.28736e-19
1.01647e-18
7.11435e-19
4.36596e-19
2.10309e-19
7.20636e-20
7.11594e-19
6.62199e-19
6.79028e-19
8.18126e-19
1.01826e-18
1.02767e-18
7.299e-19
4.60882e-19
2.12927e-19
7.05494e-20
6.82537e-19
6.12857e-19
6.22797e-19
7.6644e-19
1.00198e-18
1.03781e-18
7.58641e-19
4.72213e-19
2.14894e-19
6.81648e-20
6.48232e-19
5.74954e-19
5.71841e-19
7.2009e-19
9.75982e-19
1.04527e-18
7.78302e-19
4.57302e-19
2.29474e-19
6.78902e-20
6.06261e-19
5.33489e-19
5.31706e-19
6.87268e-19
9.65192e-19
1.05416e-18
7.87546e-19
4.59761e-19
2.53425e-19
7.32141e-20
5.58782e-19
4.90148e-19
4.99162e-19
6.69394e-19
9.73035e-19
9.16725e-19
4.80828e-19
5.32864e-19
2.45538e-19
7.41595e-20
1.43428e-20
1.11777e-19
4.10665e-19
6.90744e-19
7.82536e-19
7.96435e-19
7.86025e-19
7.60741e-19
7.23193e-19
6.76806e-19
1.26238e-20
8.37157e-20
2.959e-19
5.97434e-19
7.83909e-19
8.564e-19
8.78439e-19
8.71401e-19
8.44286e-19
8.0438e-19
1.10146e-20
6.34849e-20
2.10506e-19
4.49446e-19
6.71368e-19
8.10001e-19
8.81633e-19
9.02287e-19
8.91604e-19
8.6363e-19
9.51514e-21
5.11011e-20
1.46333e-19
3.01086e-19
4.81995e-19
6.38959e-19
7.47666e-19
8.01737e-19
8.14883e-19
8.03035e-19
8.12545e-21
4.35865e-20
1.15349e-19
2.20001e-19
3.44358e-19
4.67031e-19
5.68198e-19
6.32867e-19
6.58929e-19
6.56903e-19
6.84552e-21
3.74079e-20
9.68215e-20
1.76588e-19
2.66208e-19
3.53568e-19
4.26254e-19
4.726e-19
4.88671e-19
4.83499e-19
5.67535e-21
3.17329e-20
8.25246e-20
1.46887e-19
2.12323e-19
2.68404e-19
3.07417e-19
3.23947e-19
3.21994e-19
3.11189e-19
4.61494e-21
2.62322e-20
6.76737e-20
1.13355e-19
1.4862e-19
1.69352e-19
1.77475e-19
1.74998e-19
1.68041e-19
1.60098e-19
3.6643e-21
2.06387e-20
4.42003e-20
5.76099e-20
6.25082e-20
6.36197e-20
6.30341e-20
6.16962e-20
5.9996e-20
5.7622e-20
2.82342e-21
1.04522e-20
1.04506e-20
1.04493e-20
1.04483e-20
1.04476e-20
1.04472e-20
1.04471e-20
1.04473e-20
1.04478e-20
)
;

boundaryField
{
    right
    {
        type            cyclic;
    }
    left
    {
        type            cyclic;
    }
    outerWall
    {
        type            nutkWallFunction;
        Cmu             0.09;
        kappa           0.41;
        E               9.8;
        value           uniform 0;
    }
    stirrerWall
    {
        type            nutkWallFunction;
        Cmu             0.09;
        kappa           0.41;
        E               9.8;
        value           uniform 0;
    }
    top
    {
        type            empty;
    }
    bottom
    {
        type            empty;
    }
}


// ************************************************************************* //
