/*--------------------------------*- C++ -*----------------------------------*\
  =========                 |
  \\      /  F ield         | OpenFOAM: The Open Source CFD Toolbox
   \\    /   O peration     | Website:  https://openfoam.org
    \\  /    A nd           | Version:  10
     \\/     M anipulation  |
\*---------------------------------------------------------------------------*/
FoamFile
{
    format      ascii;
    class       volScalarField;
    location    "1700";
    object      omega;
}
// * * * * * * * * * * * * * * * * * * * * * * * * * * * * * * * * * * * * * //

dimensions      [0 0 -1 0 0 0 0];

internalField   nonuniform List<scalar> 
420
(
21252.7
4032.92
1450.75
743.538
472.89
345.601
283.813
267.108
292.134
354.253
21253.7
3990.3
1473.32
764.637
485.373
352.709
289.982
276.952
310.731
386.556
21254.2
3883.42
1449.22
763.727
488.384
356.201
295.603
289.132
335.775
430.423
21254
3758.3
1397.25
748.449
487.258
361.195
305.833
308.77
372.613
492.621
21253.2
3629.76
1346.31
743.202
501.792
384.287
335.013
348.566
433.122
585.646
21251.7
3551.6
1360.18
806.533
580.964
466.177
417.759
437.918
541.249
733.257
21249.7
3701.91
1633.52
1100.7
857.563
716.328
644.499
648.614
752.776
993.709
21247.1
4659.52
2796.63
2147.21
1755.72
1485.97
1305.33
1205.89
1234.77
1544.94
21243.8
10339.1
7953.74
6443.04
5328.14
4498.1
3863.76
3355.29
2933.08
3222.27
78643.9
60596.7
48114.3
39124.4
32436.5
27327.1
23335.9
20159.1
17589.3
15481.3
434.855
491.519
465.585
375.78
299.263
279.636
313.088
444.026
908.178
3581.27
481.828
539.222
489.576
377.463
295.354
279.039
314.538
455.629
913.684
3581.17
544.043
597.987
514.859
377.727
291.554
278.811
317.368
468
929.763
3581.13
629.745
671.888
540.876
376.034
287.817
278.802
321.302
480.234
942.734
3581.18
753.593
767.155
567.372
372.505
284.554
279.232
325.808
492.973
955.558
3581.3
944.137
893.464
593.635
367.088
281.869
280.009
330.678
506.816
970.036
3581.49
1265.27
1066.16
618.025
359.715
279.79
280.963
335.459
521.358
987.204
3581.76
1877.43
1312.23
639.003
350.473
277.841
281.548
339.339
535.439
1009.19
3582.1
3278.74
1679.91
651.384
339.142
275.903
281.267
341.569
549.033
1036.41
3582.51
7300.67
2222.16
644.735
327.085
274.52
279.828
340.503
558.888
1067.24
3582.99
21359.1
2805.09
589.979
316.267
275.647
279.518
337.279
562.104
1095.58
3575.63
21359.1
2247.84
495.313
309.427
277.095
280.144
336.881
552.306
1088.81
3575.63
3674.69
819.097
367.663
301.077
277.031
280.004
337.411
543.933
1076.67
3582.99
803.451
402.761
323.386
297.899
275.919
277.397
334.179
549.995
1090.64
3582.51
379.01
331.181
319.312
300.364
276.118
274.31
328.181
544.735
1097.77
3582.1
313.581
324.676
325.968
305.9
277.57
271.584
320.598
529.737
1089.72
3581.76
307.341
332.138
336.961
313.486
279.808
269.192
312.108
508.582
1071.84
3581.49
313.635
345.212
351.611
323.272
283.156
267.826
304.216
482.257
1040.2
3581.3
325.323
362.992
369.868
335.163
287.784
268.139
299.106
455.547
995.889
3581.18
342.539
386.195
391.597
348.81
293.846
270.753
299.041
439.759
957.471
3581.13
366.252
416.213
417.608
363.846
300.329
274.876
302.789
431.991
938.772
3581.17
397.564
453.015
445.713
376.117
303.525
278.576
309.719
431.979
943.676
3581.27
15481.3
1986.49
540.695
321.457
283.75
278.798
282.491
291.879
307.034
328.077
17589.3
2652.37
750.405
371.664
283.253
259.277
252.772
254.813
262.997
276.045
20159.1
3497.6
1054.81
494.04
330.735
274.129
251.856
246.091
249.039
257.106
23335.9
4345.2
1517.39
737.48
460.678
347.51
296.984
276.954
272.487
276.507
27327.1
5094.35
1924.99
1009.29
644.807
475.438
390.787
350.855
336.978
338.018
32436.5
5935.76
2293.34
1257.41
834.101
628.011
520.921
469.836
454.385
459.245
39124.4
6997.31
2690.65
1511.67
1045.79
827.278
722.29
685.436
689.593
713.537
48114.3
8464.57
3281.11
1958.85
1494.04
1311.15
1251.13
1268.84
1321.37
1386.93
60596.7
10758.6
5023.59
3854.28
3552.25
3490.19
3522.61
3599
3700.99
3853.47
78643.9
21243.8
21247.1
21249.7
21251.7
21253.2
21254
21254.2
21253.7
21252.7
)
;

boundaryField
{
    right
    {
        type            cyclic;
    }
    left
    {
        type            cyclic;
    }
    outerWall
    {
        beta1           0.075;
        blended         0;
        type            omegaWallFunction;
        value           nonuniform List<scalar> 
22
(
3581.27
3581.17
3581.13
3581.18
3581.3
3581.49
3581.76
3582.1
3582.51
3582.99
3575.63
3575.63
3582.99
3582.51
3582.1
3581.76
3581.49
3581.3
3581.18
3581.13
3581.17
3581.27
)
;
    }
    stirrerWall
    {
        beta1           0.075;
        blended         0;
        type            omegaWallFunction;
        value           nonuniform List<scalar> 
42
(
21252.7
21253.7
21254.2
21254
21253.2
21251.7
21249.7
21247.1
21243.8
78643.9
78643.9
60596.7
48114.3
39124.4
32436.5
27327.1
23335.9
20159.1
17589.3
15481.3
21359.1
21359.1
15481.3
17589.3
20159.1
23335.9
27327.1
32436.5
39124.4
48114.3
60596.7
78643.9
78643.9
21243.8
21247.1
21249.7
21251.7
21253.2
21254
21254.2
21253.7
21252.7
)
;
    }
    top
    {
        type            empty;
    }
    bottom
    {
        type            empty;
    }
}


// ************************************************************************* //
