/*--------------------------------*- C++ -*----------------------------------*\
  =========                 |
  \\      /  F ield         | OpenFOAM: The Open Source CFD Toolbox
   \\    /   O peration     | Website:  https://openfoam.org
    \\  /    A nd           | Version:  10
     \\/     M anipulation  |
\*---------------------------------------------------------------------------*/
FoamFile
{
    format      ascii;
    class       volScalarField;
    location    "1700";
    object      p;
}
// * * * * * * * * * * * * * * * * * * * * * * * * * * * * * * * * * * * * * //

dimensions      [0 2 -2 0 0 0 0];

internalField   nonuniform List<scalar> 
420
(
-0.366327
14.0282
29.7393
47.7761
67.4479
88.1908
109.618
131.227
152.587
173.187
-1.44585
13.3146
28.8792
46.698
66.192
86.8844
108.441
130.355
152.064
172.997
-1.99896
12.7734
28.1389
45.7077
64.9966
85.6249
107.3
129.49
151.54
172.797
-2.2384
12.4216
27.5604
44.8515
63.9034
84.4277
106.179
128.618
150.994
172.566
-2.34896
12.2334
27.1529
44.1479
62.9241
83.2861
105.046
127.687
150.365
172.258
-2.40245
12.1847
26.9101
43.5961
62.0534
82.1773
103.838
126.599
149.571
171.831
-2.43079
12.2555
26.8198
43.1825
61.2709
81.061
102.488
125.242
148.517
171.29
-2.45891
12.4349
26.8741
42.8943
60.5676
79.9223
100.953
123.494
147.013
170.465
-2.53682
12.7326
27.0603
42.7315
59.9896
78.8536
99.327
121.346
144.647
168.416
-2.73213
13.119
27.2229
42.5981
59.5372
77.9803
97.8763
119.134
141.496
164.582
192.528
211.07
228.995
246.006
262.167
277.864
293.625
310.851
303.672
382.41
192.583
211.225
229.112
246.07
262.263
278.011
293.576
310.575
303.022
373.182
192.609
211.316
229.124
246.002
262.157
277.801
292.92
309.11
302.168
368.143
192.591
211.322
228.993
245.743
261.779
277.221
291.779
306.963
301.324
365.615
192.496
211.213
228.709
245.295
261.133
276.308
290.297
304.529
299.819
362.995
192.318
210.981
228.291
244.723
260.304
275.144
288.524
301.83
297.572
359.926
192.179
210.662
227.742
244.074
259.389
273.855
286.593
298.959
294.801
356.758
192.118
210.29
227.039
243.38
258.513
272.618
284.763
296.342
292.426
353.801
191.57
210.122
226.515
242.828
257.843
271.621
283.276
294.518
291.821
351.757
189.989
210.745
226.803
242.731
257.55
271.076
282.384
293.47
290.521
351.495
189.659
211.17
227.317
242.943
257.436
270.713
281.717
292.967
279.57
354.816
190.577
211.051
227.488
242.811
256.965
269.893
280.504
290.754
273.969
353.281
195.128
211.506
227.674
242.856
256.736
269.245
279.403
287.254
278.025
347.518
194.746
211.187
227.465
242.815
256.733
269.142
279.156
286.332
279.972
343.795
193.544
210.553
227.166
242.794
256.936
269.533
280.057
287.611
281.364
343.646
192.681
210.012
226.969
242.936
257.42
270.396
281.678
289.596
283.346
346.315
192.224
209.771
227.018
243.339
258.256
271.831
284.229
292.888
286.903
350.602
192.078
209.827
227.33
243.992
259.383
273.75
287.605
297.488
292.827
358.865
192.152
210.11
227.834
244.785
260.602
275.693
290.77
301.95
301.188
376.492
192.302
210.458
228.351
245.491
261.56
276.961
292.301
304.066
308.184
402.424
192.382
210.687
228.646
245.8
261.877
277.218
292.443
304.633
308.056
415.866
192.432
210.845
228.766
245.787
261.825
277.293
292.768
308.087
305.914
398.373
179.424
176.868
175.366
174.568
174.13
173.896
173.791
173.714
173.564
173.363
154.732
154.707
154.848
154.852
154.781
154.636
154.42
154.107
153.653
153.106
128.444
130.727
132.696
133.794
134.314
134.418
134.199
133.72
132.994
132.109
104.396
107.167
110.038
111.944
113.019
113.435
113.314
112.774
111.899
110.794
82.9624
85.2193
87.9621
90.0849
91.4132
92.0342
92.0427
91.5414
90.6474
89.4817
63.7264
65.2465
67.3019
69.0776
70.2951
70.9171
70.9874
70.5649
69.7551
68.6772
46.4429
47.2996
48.489
49.5947
50.4002
50.8063
50.8071
50.4311
49.7424
48.8315
30.9991
31.3175
31.7078
32.0567
32.2973
32.3629
32.2151
31.8476
31.2856
30.5745
17.43
17.1947
16.9406
16.7055
16.4973
16.2746
15.9952
15.6367
15.1919
14.6648
4.96197
3.77268
2.70104
1.97567
1.46477
1.05002
0.666297
0.279857
-0.11086
-0.410249
)
;

boundaryField
{
    right
    {
        type            cyclic;
    }
    left
    {
        type            cyclic;
    }
    outerWall
    {
        type            zeroGradient;
    }
    stirrerWall
    {
        type            zeroGradient;
    }
    top
    {
        type            empty;
    }
    bottom
    {
        type            empty;
    }
}


// ************************************************************************* //
