/*--------------------------------*- C++ -*----------------------------------*\
  =========                 |
  \\      /  F ield         | OpenFOAM: The Open Source CFD Toolbox
   \\    /   O peration     | Website:  https://openfoam.org
    \\  /    A nd           | Version:  10
     \\/     M anipulation  |
\*---------------------------------------------------------------------------*/
FoamFile
{
    format      ascii;
    class       surfaceScalarField;
    location    "1700";
    object      phi;
}
// * * * * * * * * * * * * * * * * * * * * * * * * * * * * * * * * * * * * * //

dimensions      [0 3 -1 0 0 0 0];

internalField   nonuniform List<scalar> 
788
(
2.19178e-06
-1.88017e-06
2.82036e-06
7.62754e-06
4.06162e-06
1.22159e-05
5.34232e-06
1.33176e-05
6.2968e-06
1.23929e-05
6.71615e-06
9.78289e-06
6.71949e-06
4.80658e-06
6.91735e-06
-4.05654e-06
7.30232e-06
-1.56412e-05
-3.05338e-05
7.57273e-06
1.75772e-06
-3.64675e-06
2.86814e-06
6.4623e-06
4.30662e-06
1.07088e-05
5.73375e-06
1.1845e-05
6.69095e-06
1.1412e-05
7.00168e-06
9.45685e-06
6.84435e-06
4.90084e-06
6.72129e-06
-4.08776e-06
6.60499e-06
-1.57108e-05
-3.03504e-05
6.29608e-06
1.29554e-06
-4.96231e-06
2.52293e-06
5.16178e-06
4.06273e-06
9.08419e-06
5.49868e-06
1.03699e-05
6.48327e-06
1.04204e-05
6.84542e-06
9.09026e-06
6.65249e-06
5.0385e-06
6.21181e-06
-3.78402e-06
5.59463e-06
-1.52358e-05
-2.97987e-05
4.9901e-06
8.51911e-07
-5.84416e-06
1.91782e-06
4.01263e-06
3.45471e-06
7.4563e-06
4.94172e-06
8.84765e-06
6.07064e-06
9.29773e-06
6.68109e-06
8.48805e-06
6.73026e-06
4.94852e-06
6.09046e-06
-3.24909e-06
4.97182e-06
-1.42071e-05
-2.88018e-05
3.983e-06
3.90212e-07
-6.27182e-06
1.21708e-06
3.09128e-06
2.71938e-06
5.85426e-06
4.34885e-06
7.18156e-06
5.80747e-06
7.8559e-06
6.83931e-06
7.48589e-06
7.21502e-06
4.56704e-06
6.42692e-06
-2.51569e-06
4.83539e-06
-1.26602e-05
-2.71587e-05
3.22327e-06
-1.18596e-07
-6.19623e-06
4.43015e-07
2.42192e-06
1.88919e-06
4.29911e-06
3.68698e-06
5.35076e-06
5.53981e-06
6.03955e-06
7.13334e-06
5.9516e-06
8.00001e-06
3.72985e-06
7.3759e-06
-1.9069e-06
5.30168e-06
-1.05969e-05
-2.44093e-05
2.5995e-06
-7.05977e-07
-5.53727e-06
-4.19533e-07
2.01419e-06
9.24392e-07
2.83838e-06
2.79809e-06
3.45185e-06
4.92187e-06
3.97583e-06
6.95466e-06
4.0106e-06
8.1634e-06
2.5852e-06
7.5753e-06
-1.30146e-06
4.88704e-06
-7.89604e-06
-2.0424e-05
9.58705e-07
-1.41229e-06
-4.17607e-06
-1.31388e-06
1.78122e-06
-1.17045e-07
1.52084e-06
1.62385e-06
1.69953e-06
3.71027e-06
1.97661e-06
5.79765e-06
2.04731e-06
7.03256e-06
1.44369e-06
6.14167e-06
-3.73242e-07
2.35279e-06
-4.09116e-06
-1.49559e-05
-3.06758e-06
-2.26613e-06
-1.96592e-06
-1.94051e-06
1.32502e-06
-9.78061e-07
4.72553e-07
3.60997e-07
3.88892e-07
2.04903e-06
4.03255e-07
3.86039e-06
3.71223e-07
5.16108e-06
2.31957e-07
4.6932e-06
1.12872e-07
6.47925e-07
-5.55163e-08
-6.77491e-06
-7.49699e-06
-2.01241e-06
-7.28056e-07
-2.4128e-07
2.07519e-07
6.80584e-07
1.09398e-06
1.32995e-06
1.42971e-06
1.38049e-06
-5.35557e-06
7.93834e-06
-4.99248e-05
8.88774e-06
-8.18886e-05
1.08251e-05
-0.000124647
1.34682e-05
-0.000177589
1.64428e-05
-0.000241663
1.97505e-05
-0.000323302
2.79059e-05
-0.000440653
3.99239e-05
-0.000543214
2.71056e-06
-0.000518689
-0.00130156
6.10651e-06
-4.97362e-05
6.71286e-06
-8.23891e-05
8.27981e-06
-0.000126063
1.03834e-05
-0.000179531
1.28079e-05
-0.000243979
1.49705e-05
-0.000325479
1.93127e-05
-0.000444908
2.58987e-05
-0.000549836
1.21203e-05
-0.000505122
-0.00128944
4.5142e-06
-4.92066e-05
4.86729e-06
-8.26685e-05
5.94111e-06
-0.000127152
7.24934e-06
-0.0001809
8.82424e-06
-0.000245503
9.68103e-06
-0.000326287
1.08684e-05
-0.000446009
1.19994e-05
-0.000551108
1.36695e-05
-0.000507062
-0.00127567
3.14616e-06
-4.82642e-05
3.25896e-06
-8.26878e-05
3.88526e-06
-0.000127832
4.52363e-06
-0.000181657
5.50381e-06
-0.000246392
5.66888e-06
-0.000326486
5.7467e-06
-0.000446248
5.82314e-06
-0.000550963
1.26512e-05
-0.000513975
-0.00126296
1.94062e-06
-4.68784e-05
1.88688e-06
-8.25636e-05
2.14257e-06
-0.000128164
2.2563e-06
-0.000181876
2.82241e-06
-0.000246813
2.79717e-06
-0.000326384
2.19365e-06
-0.000445792
2.25426e-06
-0.00055087
1.07401e-05
-0.000522556
-0.00125219
8.43924e-07
-4.50309e-05
7.68048e-07
-8.24573e-05
6.63213e-07
-0.000128171
2.63549e-07
-0.000181578
3.88031e-07
-0.000246859
2.26607e-07
-0.000326258
-8.80211e-07
-0.00044477
-1.0954e-06
-0.000550611
8.14061e-06
-0.000531937
-0.001244
-7.19667e-07
-4.32709e-05
-5.36537e-07
-8.2634e-05
-9.92277e-07
-0.000127833
-1.87329e-06
-0.000180752
-2.15205e-06
-0.000246508
-2.46609e-06
-0.000326102
-3.8593e-06
-0.000443412
-4.28481e-06
-0.000550162
5.34848e-06
-0.000541733
-0.00123858
-3.23404e-06
-4.30335e-05
-2.45597e-06
-8.33979e-05
-3.07465e-06
-0.000127291
-4.38565e-06
-0.000179412
-5.1049e-06
-0.000245657
-5.62631e-06
-0.000325783
-7.2383e-06
-0.000441811
-7.1997e-06
-0.000550127
3.48114e-06
-0.000552548
-0.00123505
-5.56911e-06
-4.48883e-05
-4.10593e-06
-8.48497e-05
-5.36728e-06
-0.000126087
-7.49588e-06
-0.000177199
-9.24152e-06
-0.000243734
-1.09404e-05
-0.000324289
-1.3535e-05
-0.000439244
-1.32039e-05
-0.000550296
3.25797e-06
-0.00056891
-0.00123193
-8.41556e-07
-4.93862e-05
-1.71259e-06
-8.39368e-05
-4.82265e-06
-0.000123041
-7.91481e-06
-0.000174098
-1.06511e-05
-0.000240908
-1.32719e-05
-0.000321719
-1.76449e-05
-0.000434727
-1.91467e-05
-0.000548885
-4.04578e-07
-0.000587379
-0.00123241
1.53127e-06
-5.09029e-05
4.98964e-07
-8.29591e-05
-1.01087e-06
-0.000121631
-2.2465e-06
-0.000172804
-3.23183e-06
-0.00023978
-4.26382e-06
-0.000320768
-6.57303e-06
-0.00043231
-1.96529e-05
-0.000535963
-6.96978e-06
-0.000599881
-0.00123941
2.89582e-06
-5.3789e-05
2.86318e-06
-8.29891e-05
1.70587e-06
-0.000120608
8.88993e-07
-0.000171896
2.99443e-07
-0.000239024
-7.16835e-07
-0.000319916
-3.45326e-06
-0.000429514
-1.54603e-05
-0.000523968
-9.67034e-06
-0.000605579
-0.00124914
7.2831e-07
-4.67223e-05
-7.76779e-06
-2.98359e-06
-7.90955e-05
-5.99136e-06
-0.000117725
-8.26741e-06
-0.000169593
-9.89714e-06
-0.000237292
-1.1158e-05
-0.000318734
-1.50126e-05
-0.000425502
-9.59685e-06
-0.000529505
-6.29932e-06
-0.000608825
-0.0012554
-5.85016e-06
-4.46074e-05
3.92448e-06
-8.58626e-06
-7.62514e-05
-1.10189e-05
-0.00011546
-1.30227e-05
-0.000167533
-1.48819e-05
-0.000235274
-1.58125e-05
-0.000317917
-1.74709e-05
-0.000423716
-2.00044e-05
-0.000527077
-4.72252e-06
-0.000624051
-0.00126009
-8.73134e-06
-4.4787e-05
9.05672e-06
-9.89875e-06
-7.4965e-05
-1.14403e-05
-0.000114067
-1.27924e-05
-0.000166127
-1.43621e-05
-0.00023355
-1.53336e-05
-0.000317074
-1.79381e-05
-0.000421043
-2.40568e-05
-0.000520923
-7.67839e-06
-0.00064038
-0.00126774
-9.25191e-06
-4.49335e-05
9.5425e-06
-9.80041e-06
-7.42912e-05
-1.08013e-05
-0.000113203
-1.18763e-05
-0.000165007
-1.33685e-05
-0.000231902
-1.46124e-05
-0.000315899
-1.7839e-05
-0.000417814
-2.37309e-05
-0.000515001
-8.52042e-06
-0.000655523
-0.00127623
-7.93522e-06
-4.48543e-05
8.0124e-06
-8.24744e-06
-7.38465e-05
-8.87856e-06
-0.000112708
-9.70141e-06
-0.000164181
-1.11002e-05
-0.000230416
-1.25413e-05
-0.000314543
-1.6054e-05
-0.000414277
-2.22143e-05
-0.000508786
-9.55578e-06
-0.0006681
-0.00128577
-5.26163e-06
-4.48243e-05
5.38071e-06
-5.38136e-06
-7.36366e-05
-5.65455e-06
-0.000112593
-6.10093e-06
-0.000163737
-7.21222e-06
-0.000229202
-8.59153e-06
-0.000313211
-1.13719e-05
-0.000411428
-1.72489e-05
-0.000502854
-9.54393e-06
-0.000675752
-0.00129536
-1.70997e-06
-4.50676e-05
2.07667e-06
-1.43223e-06
-7.39294e-05
-1.07094e-06
-0.000113147
-7.65845e-07
-0.00016402
-1.17459e-06
-0.000228624
-2.11055e-06
-0.000312252
-2.76321e-06
-0.000410708
-4.68865e-06
-0.000500937
-3.7489e-06
-0.000676697
-0.0012992
2.63738e-06
-4.58884e-05
-1.75904e-06
3.85835e-06
-7.53147e-05
5.56021e-06
-0.000115046
7.47585e-06
-0.000165833
8.67418e-06
-0.000229567
8.73792e-06
-0.000312289
1.05468e-05
-0.000412603
1.4221e-05
-0.000504778
3.36494e-06
-0.000665838
-0.00129562
6.98635e-06
-4.77715e-05
-5.14538e-06
9.86572e-06
-7.8479e-05
1.39465e-05
-0.000119202
1.89242e-05
-0.000170524
2.35994e-05
-0.000234031
2.56328e-05
-0.000314716
2.78489e-05
-0.000415298
3.58913e-05
-0.000512676
4.65643e-06
-0.000634398
-0.00129114
9.49999e-06
-8.0542e-06
1.17281e-05
1.53777e-05
2.01375e-05
2.49836e-05
2.98977e-05
4.68601e-05
6.55894e-05
-1.28293e-05
-1.82937e-05
1.06742e-05
-2.44619e-05
1.02978e-05
-2.73149e-05
1.20935e-05
-2.81235e-05
1.05428e-05
-2.79528e-05
8.03757e-06
-2.74974e-05
5.07993e-06
-2.72074e-05
1.83855e-06
-2.74282e-05
-1.62653e-06
-2.84287e-05
-4.32242e-06
-6.95386e-06
-4.78755e-06
1.55457e-05
-9.98339e-06
1.55965e-05
-1.31933e-05
1.53455e-05
-1.4397e-05
1.18374e-05
-1.43515e-05
8.11346e-06
-1.37605e-05
4.6001e-06
-1.31746e-05
1.31284e-06
-1.30121e-05
-1.81863e-06
-1.34043e-05
-4.06601e-06
-6.07112e-06
1.62103e-06
1.3938e-05
-3.90829e-07
1.75527e-05
-2.26451e-06
1.71183e-05
-3.31592e-06
1.28629e-05
-3.39555e-06
8.1947e-06
-2.9419e-06
4.14379e-06
-2.51611e-06
8.40626e-07
-2.48918e-06
-1.96416e-06
-2.71993e-06
-4.03407e-06
-5.66134e-06
3.49917e-06
1.03981e-05
4.92233e-06
1.5971e-05
5.34996e-06
1.65083e-05
5.19303e-06
1.28987e-05
4.97034e-06
8.31106e-06
4.91713e-06
4.09493e-06
4.94357e-06
7.00207e-07
4.93598e-06
-2.08458e-06
4.98173e-06
-4.21675e-06
-5.72421e-06
3.36879e-06
6.96265e-06
6.77618e-06
1.23958e-05
9.49101e-06
1.36403e-05
1.08746e-05
1.13983e-05
1.13047e-05
7.77494e-06
1.13065e-05
3.99813e-06
1.118e-05
7.42253e-07
1.09226e-05
-1.89622e-06
1.05716e-05
-3.91344e-06
-5.36448e-06
2.84008e-06
4.0701e-06
6.73886e-06
8.39236e-06
1.06361e-05
9.69807e-06
1.34456e-05
8.54458e-06
1.49831e-05
6.19338e-06
1.55161e-05
3.42483e-06
1.54481e-05
7.77131e-07
1.49769e-05
-1.45176e-06
1.42606e-05
-3.20925e-06
-4.51525e-06
2.20933e-06
1.84345e-06
5.89477e-06
4.69452e-06
1.00256e-05
5.62692e-06
1.34357e-05
5.16203e-06
1.57249e-05
3.91852e-06
1.68942e-05
2.26127e-06
1.71747e-05
4.9476e-07
1.67968e-05
-1.08549e-06
1.59772e-05
-2.39939e-06
-3.40751e-06
1.72896e-06
1.24252e-07
5.0385e-06
1.44735e-06
8.77737e-06
2.00607e-06
1.19647e-05
2.04498e-06
1.42577e-05
1.67124e-06
1.55841e-05
9.59533e-07
1.60183e-05
6.32638e-08
1.5746e-05
-8.34059e-07
1.49657e-05
-1.65012e-06
-2.3475e-06
1.01922e-06
-8.75937e-07
3.48848e-06
-9.25283e-07
6.22162e-06
-6.10364e-07
8.51964e-06
-1.73671e-07
1.01728e-05
7.29802e-08
1.10887e-05
7.54293e-08
1.12576e-05
-9.82694e-08
1.07764e-05
-3.71388e-07
9.77802e-06
-6.9429e-07
-1.29955e-06
-8.60693e-07
-1.72915e-06
-2.30379e-06
-2.45481e-06
-2.3706e-06
-2.29427e-06
-2.40115e-06
-2.79074e-06
-3.52169e-06
)
;

boundaryField
{
    right
    {
        type            cyclic;
        value           nonuniform List<scalar> 
20
(
0.00130459
0.000555876
0.000531069
0.000432352
0.000319321
0.000238288
0.000174801
0.000122685
8.09217e-05
4.94248e-05
2.98617e-05
1.47462e-05
3.49816e-06
-4.90183e-06
-1.0166e-05
-1.33496e-05
-1.47367e-05
-1.37252e-05
-8.58949e-06
4.86137e-06
)
;
    }
    left
    {
        type            cyclic;
        value           nonuniform List<scalar> 
20
(
-0.00130459
-0.000555876
-0.000531069
-0.000432352
-0.000319321
-0.000238288
-0.000174801
-0.000122685
-8.09217e-05
-4.94248e-05
-2.98617e-05
-1.47462e-05
-3.49816e-06
4.90183e-06
1.0166e-05
1.33496e-05
1.47367e-05
1.37252e-05
8.58949e-06
-4.86137e-06
)
;
    }
    outerWall
    {
        type            calculated;
        value           uniform 0;
    }
    stirrerWall
    {
        type            calculated;
        value           uniform 0;
    }
    top
    {
        type            empty;
        value           nonuniform List<scalar> 0();
    }
    bottom
    {
        type            empty;
        value           nonuniform List<scalar> 0();
    }
}


// ************************************************************************* //
