/*--------------------------------*- C++ -*----------------------------------*\
  =========                 |
  \\      /  F ield         | OpenFOAM: The Open Source CFD Toolbox
   \\    /   O peration     | Website:  https://openfoam.org
    \\  /    A nd           | Version:  10
     \\/     M anipulation  |
\*---------------------------------------------------------------------------*/
FoamFile
{
    format      ascii;
    class       volVectorField;
    location    "1700";
    object      U;
}
// * * * * * * * * * * * * * * * * * * * * * * * * * * * * * * * * * * * * * //

dimensions      [0 1 -1 0 0 0 0];

internalField   nonuniform List<vector> 
420
(
(0.672178 8.76021 4.90064e-18)
(-0.138655 10.9315 -4.04673e-17)
(-0.0312871 12.6051 -2.13676e-16)
(0.0170184 13.9482 6.00395e-17)
(0.0282232 15.1027 -4.27719e-16)
(0.00412557 16.1088 0)
(-0.0140842 16.9313 0)
(-0.0420356 17.4668 5.26359e-16)
(-0.0397537 17.7759 -6.33378e-16)
(-0.108045 17.7787 0)
(0.0100871 8.83951 1.88047e-17)
(-0.984948 10.8088 -9.01833e-17)
(-0.942079 12.4414 6.38888e-16)
(-0.968304 13.7878 -9.67333e-16)
(-1.03907 14.9815 2.99852e-16)
(-1.15296 16.0435 1.45285e-18)
(-1.23916 16.9085 2.66692e-15)
(-1.31901 17.4228 -7.17343e-16)
(-1.39112 17.6985 1.3699e-15)
(-1.50242 17.7071 0)
(-0.670561 8.69007 -1.47057e-17)
(-1.83924 10.599 -4.20922e-16)
(-1.87352 12.2152 6.57017e-16)
(-1.99949 13.5718 1.12416e-15)
(-2.16264 14.8064 -7.51132e-16)
(-2.34799 15.9177 3.58204e-15)
(-2.48969 16.8105 1.61734e-15)
(-2.62476 17.3041 4.8699e-15)
(-2.78598 17.5563 -1.97911e-15)
(-2.90461 17.5646 -4.32927e-15)
(-1.33127 8.50539 4.19513e-17)
(-2.68099 10.3107 3.93339e-16)
(-2.81321 11.8957 -8.22155e-16)
(-3.03863 13.2557 7.81654e-16)
(-3.2832 14.5187 -1.53948e-15)
(-3.53286 15.6666 1.6864e-15)
(-3.72252 16.5904 -9.12861e-15)
(-3.89973 17.0959 0)
(-4.15041 17.3449 -4.63348e-15)
(-4.26991 17.3457 4.08799e-15)
(-1.9754 8.31415 0)
(-3.50135 9.96916 3.29882e-16)
(-3.73118 11.4968 -3.20705e-16)
(-4.04519 12.8437 0)
(-4.3578 14.121 -3.04469e-16)
(-4.6577 15.2975 -2.89707e-16)
(-4.90634 16.2541 3.09621e-15)
(-5.13743 16.82 -4.21677e-15)
(-5.46732 17.0881 0)
(-5.60252 17.0685 -1.66842e-14)
(-2.6153 8.11463 -1.16959e-17)
(-4.29838 9.57858 0)
(-4.61607 11.0228 0)
(-5.00654 12.3344 1.42631e-15)
(-5.37885 13.6072 -2.21566e-15)
(-5.72888 14.8053 2.45112e-15)
(-6.03667 15.7984 6.47221e-16)
(-6.32608 16.459 9.09941e-15)
(-6.70916 16.7909 -1.25198e-14)
(-6.91865 16.764 8.07345e-15)
(-3.26323 7.90231 0)
(-5.07264 9.14146 -3.62432e-16)
(-5.46496 10.4797 -2.24371e-15)
(-5.92387 11.7329 -8.76374e-16)
(-6.35806 12.9769 -3.97414e-15)
(-6.76765 14.1738 2.4768e-15)
(-7.15029 15.2141 -5.98657e-15)
(-7.53846 15.9632 7.4065e-16)
(-7.99519 16.408 -3.60295e-15)
(-8.3098 16.4264 -1.20896e-14)
(-3.93974 7.67644 1.8578e-17)
(-5.81796 8.66028 3.74196e-16)
(-6.26891 9.88132 2.97529e-15)
(-6.79593 11.0587 5.76538e-16)
(-7.30513 12.2461 2.39888e-15)
(-7.79589 13.4101 0)
(-8.27916 14.4755 6.1911e-15)
(-8.81602 15.3307 7.64135e-15)
(-9.4225 15.925 9.17954e-15)
(-9.89346 16.006 8.93221e-15)
(-4.67277 7.41387 1.82436e-17)
(-6.49628 8.14243 3.86866e-16)
(-7.00317 9.25565 -4.17106e-16)
(-7.61522 10.3553 -2.00383e-15)
(-8.23183 11.4741 6.46959e-15)
(-8.83996 12.593 8.67167e-15)
(-9.45132 13.6766 -2.97247e-15)
(-10.1219 14.6688 0)
(-10.8971 15.4723 0)
(-11.5731 15.5749 -9.71369e-15)
(-5.51037 7.04689 -1.04751e-16)
(-6.93319 7.74486 6.47387e-16)
(-7.53723 8.74506 0)
(-8.28015 9.73636 0)
(-9.04047 10.7059 -3.34408e-15)
(-9.79577 11.6598 -2.36288e-17)
(-10.5549 12.6016 5.96318e-15)
(-11.3272 13.5452 -1.30088e-14)
(-12.1006 14.4521 1.55506e-14)
(-12.7291 14.7814 1.2523e-15)
(-0.168846 17.454 0)
(-0.168549 16.8243 0)
(-0.0650475 16.0498 0)
(0.0987557 15.3026 -8.65646e-16)
(0.262375 14.6542 0)
(0.113443 13.8994 0)
(-0.0361313 12.5007 8.73732e-16)
(4.0886 12.9046 0)
(-4.24167 17.7641 0)
(3.94016 -2.61213 0)
(-1.57208 17.3816 1.74896e-15)
(-1.54121 16.7111 2.8273e-15)
(-1.38217 15.8903 1.35226e-16)
(-1.17993 15.1319 9.47871e-16)
(-0.979565 14.4941 5.901e-17)
(-1.0577 13.7418 1.16926e-15)
(-1.25423 12.1913 1.85879e-16)
(2.64071 12.7679 7.82885e-17)
(-5.59255 18.3028 -3.02155e-15)
(4.19573 -2.13165 -5.73827e-16)
(-2.95374 17.234 1.57278e-15)
(-2.8774 16.5096 0)
(-2.6602 15.6448 -2.2235e-15)
(-2.43343 14.8786 -1.89573e-15)
(-2.20893 14.2448 5.6562e-15)
(-2.24468 13.5157 -1.13296e-15)
(-2.3547 11.9077 1.94715e-15)
(1.06434 12.6854 0)
(-6.95358 17.8709 3.56505e-15)
(3.98241 -1.28958 -4.83718e-17)
(-4.30772 17.008 3.47921e-15)
(-4.1815 16.2171 8.38199e-15)
(-3.89751 15.3196 -8.63665e-15)
(-3.64447 14.5593 3.40143e-15)
(-3.39095 13.938 7.33024e-17)
(-3.37168 13.2502 0)
(-3.37462 11.621 -1.94141e-15)
(-0.239693 12.6242 -4.15876e-15)
(-8.24355 17.0784 -3.53851e-15)
(3.92808 -0.601276 2.77286e-15)
(-5.64447 16.7095 3.13097e-15)
(-5.45226 15.8411 -2.70956e-15)
(-5.0915 14.929 8.84829e-15)
(-4.81139 14.1819 -3.53437e-15)
(-4.52278 13.5686 3.08741e-15)
(-4.4346 12.9246 -4.78968e-15)
(-4.3361 11.2881 4.46017e-15)
(-1.4157 12.4774 4.51368e-15)
(-9.48944 16.1154 0)
(3.95623 0.0941895 -5.69344e-15)
(-6.98105 16.3416 3.79423e-15)
(-6.68202 15.3772 -1.61891e-14)
(-6.23916 14.4744 -4.64691e-15)
(-5.94037 13.747 1.09054e-14)
(-5.6166 13.1343 9.53619e-15)
(-5.46161 12.5273 3.93945e-16)
(-5.26851 10.9294 2.01616e-16)
(-2.56082 12.2375 -4.15254e-15)
(-10.6668 14.9963 -3.23788e-15)
(4.00463 0.754728 6.22537e-15)
(-8.36821 15.8665 3.81396e-15)
(-7.88398 14.7981 5.58368e-15)
(-7.35693 13.9459 0)
(-7.05128 13.2452 -3.56399e-15)
(-6.68745 12.6273 -5.80582e-15)
(-6.46338 12.0459 4.10527e-16)
(-6.16625 10.5153 -1.25661e-14)
(-3.69869 11.9064 -4.25843e-15)
(-11.734 13.7529 6.9971e-15)
(4.07827 1.37029 -3.22927e-15)
(-9.80794 15.1925 1.43253e-14)
(-9.05624 14.0532 -5.05162e-15)
(-8.44545 13.3289 0)
(-8.14788 12.6677 -3.06509e-16)
(-7.74275 12.0398 2.42343e-14)
(-7.44496 11.4682 -1.00725e-14)
(-7.03887 10.026 -9.0822e-15)
(-4.8223 11.4664 7.89653e-15)
(-12.6544 12.458 -7.06136e-15)
(4.16756 1.94803 0)
(-11.0262 14.2068 3.93473e-16)
(-10.12 13.1993 -5.0147e-15)
(-9.51946 12.6572 0)
(-9.24512 12.0392 7.41381e-15)
(-8.82208 11.3875 -1.793e-14)
(-8.47119 10.8153 1.02837e-14)
(-8.00386 9.4479 4.24378e-15)
(-6.00858 10.8041 0)
(-13.467 11.1141 2.39882e-16)
(4.25825 2.54744 3.15263e-15)
(-11.4202 13.4898 4.67644e-16)
(-10.9991 12.4945 -6.10177e-17)
(-10.5249 12.1073 0)
(-10.2515 11.492 -1.47184e-14)
(-9.80463 10.8104 5.60707e-15)
(-9.42087 10.218 -5.62246e-15)
(-8.87121 8.95462 4.68648e-15)
(-7.03869 10.125 8.8101e-17)
(-14.2036 9.35857 -2.18849e-16)
(4.29858 3.28299 -3.10955e-15)
(-11.0116 13.4895 2.91242e-15)
(-11.4234 12.0742 -5.2768e-15)
(-11.0619 11.7105 0)
(-10.7022 11.1323 0)
(-10.1661 10.491 0)
(-9.71726 9.91689 -2.64034e-15)
(-9.09198 8.74268 1.03763e-14)
(-7.90658 9.87852 0)
(-14.767 7.231 0)
(4.57507 3.7957 0)
(-11.6729 12.7505 -2.7685e-15)
(-11.9782 11.6629 -4.98509e-15)
(-11.677 11.2919 0)
(-11.2649 10.7234 3.62822e-15)
(-10.6676 10.1053 -2.80261e-15)
(-10.1532 9.57686 2.53773e-15)
(-9.56063 8.47691 3.83315e-15)
(-8.61704 9.94224 7.00525e-17)
(-14.7546 6.29988 1.49669e-15)
(4.60546 3.60182 0)
(-13.1617 11.4863 1.69802e-16)
(-12.9113 10.8984 7.02518e-17)
(-12.665 10.4197 0)
(-12.2232 9.84047 3.0737e-16)
(-11.5838 9.23594 5.92301e-15)
(-11.0039 8.78416 -4.30944e-15)
(-10.3449 7.90858 -1.14175e-14)
(-9.52805 9.25683 -6.23592e-15)
(-14.6934 6.67597 9.99311e-15)
(4.43783 3.55106 2.64597e-15)
(-14.6097 10.1843 -1.21279e-14)
(-14.105 9.76458 4.8286e-15)
(-13.6995 9.30136 0)
(-13.1416 8.75706 -7.00316e-15)
(-12.4266 8.1722 -5.86834e-15)
(-11.7439 7.73464 9.37308e-15)
(-10.9518 7.10227 3.64552e-15)
(-10.4409 8.01545 0)
(-14.522 5.03105 -4.74497e-15)
(4.42832 3.96479 1.09692e-17)
(-15.476 8.95618 -3.01416e-16)
(-14.9685 8.64291 4.81625e-15)
(-14.4794 8.27889 0)
(-13.8444 7.81954 1.36413e-14)
(-13.0853 7.30456 4.484e-17)
(-12.3267 6.8752 -1.99511e-16)
(-11.4682 6.44707 6.90449e-15)
(-11.302 7.09086 -5.97115e-15)
(-14.5736 3.29289 -4.04619e-15)
(4.63326 4.773 0)
(-16.0872 7.76327 -2.89111e-15)
(-15.6339 7.52541 9.62178e-15)
(-15.1058 7.23317 8.25513e-15)
(-14.4274 6.84777 -9.4757e-15)
(-13.6484 6.39345 -1.58781e-14)
(-12.8319 5.98592 -1.76185e-16)
(-11.9644 5.76135 -3.4613e-15)
(-12.0836 6.17235 -2.72197e-15)
(-14.3526 1.85124 -3.31136e-15)
(4.74668 5.4371 -2.21547e-15)
(-16.588 6.64415 -8.62626e-15)
(-16.1583 6.43949 4.67074e-15)
(-15.6044 6.20219 -3.62258e-15)
(-14.9048 5.88983 -9.55384e-15)
(-14.1233 5.49698 7.45812e-15)
(-13.2702 5.11937 -1.54571e-16)
(-12.4334 5.10563 6.54951e-15)
(-12.7724 5.31414 2.26565e-15)
(-13.9723 0.533595 1.08242e-15)
(4.72428 5.80951 1.59414e-16)
(-16.9896 5.56352 2.51462e-15)
(-16.5653 5.38774 -2.36995e-15)
(-15.9882 5.19994 -1.16806e-16)
(-15.2795 4.96067 9.41439e-15)
(-14.5051 4.63631 -1.26431e-14)
(-13.6316 4.29116 3.97591e-15)
(-12.8438 4.4779 -3.16316e-15)
(-13.3008 4.62273 7.8153e-15)
(-13.6109 -0.57184 0)
(4.6449 5.98946 -2.91603e-17)
(-17.304 4.49528 2.86798e-15)
(-16.8738 4.36435 2.39277e-15)
(-16.2694 4.23654 4.03739e-15)
(-15.5594 4.08384 -6.27425e-15)
(-14.8042 3.8451 2.45705e-15)
(-13.9227 3.54111 0)
(-13.1621 3.86358 -1.60272e-15)
(-13.6868 4.245 -4.65926e-15)
(-13.2998 -1.51626 4.33099e-16)
(4.4505 6.81879 1.95717e-15)
(-17.5018 3.43094 1.33933e-15)
(-17.034 3.37633 0)
(-16.387 3.33818 2.06267e-15)
(-15.6665 3.30805 1.71698e-15)
(-14.9294 3.18775 5.28173e-17)
(-14.048 2.94422 -1.00214e-15)
(-13.2173 3.29943 1.61008e-15)
(-13.5971 4.14207 0)
(-13.153 -2.40409 1.19491e-15)
(3.84099 8.06238 2.13487e-15)
(-17.589 2.33973 1.58245e-15)
(-17.0662 2.39907 -2.70583e-15)
(-16.3941 2.50602 -1.3355e-16)
(-15.6786 2.66425 7.67321e-16)
(-14.9605 2.74282 -3.80214e-17)
(-14.1095 2.571 1.00524e-15)
(-13.3878 3.02298 -1.66987e-15)
(-13.6761 4.23887 2.20223e-16)
(-13.3968 -2.57088 1.62148e-15)
(3.47125 7.03769 -1.50552e-15)
(-17.506 1.20244 2.51535e-29)
(-16.8944 1.22881 0)
(-16.1558 1.34738 0)
(-15.4296 1.54744 -8.6356e-16)
(-14.7935 1.73487 0)
(-14.1078 1.56609 0)
(-12.9643 1.71063 8.28831e-16)
(-13.2326 5.65994 0)
(-15.97 -1.99827 0)
(2.4522 1.92859 -6.99381e-30)
(-14.428 12.1901 8.39964e-16)
(-15.13 10.5186 -7.27565e-15)
(-15.7326 8.95651 7.03617e-15)
(-16.2368 7.72886 -9.31615e-15)
(-16.7018 6.62091 6.0848e-15)
(-17.1212 5.5579 -1.2658e-14)
(-17.4719 4.50611 3.18041e-15)
(-17.7198 3.45467 -3.56078e-15)
(-17.8582 2.33612 0)
(-17.8306 1.21056 -4.74866e-16)
(-14.8865 11.556 1.52759e-14)
(-15.4183 10.1702 0)
(-15.8077 8.66019 7.34895e-15)
(-16.2043 7.55972 -2.83833e-15)
(-16.599 6.53443 -9.35375e-15)
(-16.9986 5.53027 0)
(-17.3622 4.51383 -3.55104e-15)
(-17.6458 3.47458 -1.66314e-15)
(-17.8235 2.3516 1.18354e-15)
(-17.8311 1.22277 -5.2607e-16)
(-14.5296 10.7938 -1.27134e-14)
(-15.2919 9.53799 0)
(-15.6412 8.20621 6.78118e-15)
(-15.977 7.25045 4.94722e-16)
(-16.3072 6.33639 7.73657e-15)
(-16.6618 5.41165 -3.63312e-15)
(-16.9974 4.44823 0)
(-17.2701 3.4337 4.52773e-15)
(-17.4471 2.32096 -7.55644e-16)
(-17.4938 1.15573 6.31583e-16)
(-13.4871 10.0642 5.77276e-15)
(-14.6613 8.88123 -2.47242e-15)
(-15.1577 7.71643 5.64924e-15)
(-15.5211 6.90008 -6.05759e-15)
(-15.8073 6.11314 6.25249e-16)
(-16.0935 5.26479 3.53414e-15)
(-16.3812 4.33325 -1.07097e-14)
(-16.6313 3.34189 1.8354e-15)
(-16.8271 2.2805 2.91523e-15)
(-16.9233 1.1551 8.57548e-17)
(-12.2912 9.38374 -8.57567e-15)
(-13.5858 8.26897 6.92478e-15)
(-14.3269 7.23994 0)
(-14.8267 6.47129 2.21066e-15)
(-15.1709 5.73873 2.32304e-15)
(-15.4409 4.96183 -2.86076e-16)
(-15.6861 4.1033 1.74436e-15)
(-15.8975 3.17239 3.87814e-15)
(-16.0567 2.1724 3.42864e-18)
(-16.1234 1.11027 3.39989e-16)
(-11.1216 8.72631 -3.39247e-15)
(-12.3494 7.70044 5.06706e-15)
(-13.1827 6.78863 1.97153e-15)
(-13.814 6.06793 -3.30067e-15)
(-14.2631 5.3759 -1.93269e-15)
(-14.5856 4.6507 -2.56785e-16)
(-14.8282 3.85596 -3.33547e-15)
(-15.0101 2.98569 1.03721e-15)
(-15.129 2.04981 3.10342e-16)
(-15.1575 1.06199 -3.4128e-16)
(-9.99872 8.07312 0)
(-11.045 7.15861 -1.6278e-15)
(-11.8818 6.37592 5.02346e-16)
(-12.558 5.70193 -7.35836e-16)
(-13.0835 5.03336 1.1999e-15)
(-13.4734 4.32965 0)
(-13.7483 3.57568 7.36451e-16)
(-13.9324 2.75953 1.10646e-15)
(-14.0337 1.8876 -9.69215e-16)
(-14.0355 0.97102 -2.96128e-17)
(-8.90257 7.40729 0)
(-9.75182 6.64373 -3.26599e-16)
(-10.5263 5.99892 2.49687e-15)
(-11.1824 5.36856 -1.83349e-15)
(-11.723 4.71261 0)
(-12.134 4.01883 -2.72867e-16)
(-12.4253 3.28687 -7.61981e-16)
(-12.6137 2.50771 6.29159e-16)
(-12.7067 1.69042 6.30702e-16)
(-12.7009 0.841753 -2.47563e-16)
(-7.81399 6.66972 -8.29273e-16)
(-8.48093 6.06632 3.28435e-16)
(-9.15328 5.49871 3.16681e-16)
(-9.74285 4.87099 -3.04745e-16)
(-10.2322 4.20407 0)
(-10.6035 3.50974 2.87352e-16)
(-10.8609 2.79183 3.50116e-16)
(-11.0113 2.05536 -3.80671e-16)
(-11.0606 1.30609 -8.70123e-17)
(-11.0225 0.567198 4.3308e-18)
(-6.37638 6.25763 -1.96068e-16)
(-6.57707 6.02701 3.11705e-17)
(-6.97301 5.52744 1.69543e-17)
(-7.37068 4.92689 0)
(-7.73652 4.31629 -4.44086e-19)
(-8.05376 3.70678 0)
(-8.30873 3.09435 2.40894e-17)
(-8.49501 2.4709 2.60498e-17)
(-8.59692 1.83639 2.20348e-17)
(-8.62815 1.2407 -4.35547e-18)
)
;

boundaryField
{
    right
    {
        type            cyclic;
    }
    left
    {
        type            cyclic;
    }
    outerWall
    {
        type            calculated;
        value           nonuniform List<vector> 
22
(
(-1.55201 41.8305 0)
(-4.64749 41.6006 0)
(-7.71741 41.1419 0)
(-10.7449 40.4569 0)
(-13.7132 39.5492 0)
(-16.6061 38.424 0)
(-19.4075 37.0874 0)
(-22.1022 35.5467 0)
(-24.6752 33.8104 0)
(-27.1124 31.8882 0)
(-28.9573 30.2506 0)
(-30.2506 28.9573 0)
(-31.8882 27.1124 0)
(-33.8104 24.6752 0)
(-35.5467 22.1022 0)
(-37.0874 19.4075 0)
(-38.424 16.6061 0)
(-39.5492 13.7132 0)
(-40.4569 10.7449 0)
(-41.1419 7.71741 0)
(-41.6006 4.64749 0)
(-41.8305 1.55201 0)
)
;
    }
    stirrerWall
    {
        type            calculated;
        value           nonuniform List<vector> 
42
(
(-0.310178 8.3662 0)
(-0.928834 8.32046 0)
(-1.54239 8.22894 0)
(-2.14746 8.09214 0)
(-2.74072 7.91082 0)
(-3.31888 7.68598 0)
(-3.87877 7.41885 0)
(-4.41729 7.11092 0)
(-4.93148 6.76387 0)
(-5.4185 6.37963 0)
(-6.07951 6.64185 0)
(-6.92878 7.56862 0)
(-7.77806 8.49539 0)
(-8.62734 9.42216 0)
(-9.47661 10.3489 0)
(-10.3259 11.2757 0)
(-11.1752 12.2025 0)
(-12.0244 13.1292 0)
(-12.8737 14.056 0)
(-13.723 14.9828 0)
(-14.4723 15.1215 0)
(-15.1215 14.4723 0)
(-14.9828 13.723 0)
(-14.056 12.8737 0)
(-13.1292 12.0244 0)
(-12.2025 11.1752 0)
(-11.2757 10.3259 0)
(-10.3489 9.47661 0)
(-9.42216 8.62734 0)
(-8.49539 7.77806 0)
(-7.56862 6.92878 0)
(-6.64185 6.07951 0)
(-6.37963 5.4185 0)
(-6.76387 4.93148 0)
(-7.11092 4.41729 0)
(-7.41885 3.87877 0)
(-7.68598 3.31888 0)
(-7.91082 2.74072 0)
(-8.09214 2.14746 0)
(-8.22894 1.54239 0)
(-8.32046 0.928834 0)
(-8.3662 0.310178 0)
)
;
    }
    top
    {
        type            empty;
    }
    bottom
    {
        type            empty;
    }
}


// ************************************************************************* //
