/*--------------------------------*- C++ -*----------------------------------*\
  =========                 |
  \\      /  F ield         | OpenFOAM: The Open Source CFD Toolbox
   \\    /   O peration     | Website:  https://openfoam.org
    \\  /    A nd           | Version:  10
     \\/     M anipulation  |
\*---------------------------------------------------------------------------*/
FoamFile
{
    format      ascii;
    class       volVectorField;
    location    "1700";
    object      Urel;
}
// * * * * * * * * * * * * * * * * * * * * * * * * * * * * * * * * * * * * * //

dimensions      [0 1 -1 0 0 0 0];

internalField   nonuniform List<vector> 
420
(
(1.00618 -0.248044 4.90064e-18)
(0.241846 0.670189 -4.04673e-17)
(0.395729 1.09028 -2.13676e-16)
(0.490559 1.17962 6.00395e-17)
(0.548297 1.08015 -4.27719e-16)
(0.570738 0.832112 0)
(0.599071 0.40034 0)
(0.617666 -0.318446 5.26359e-16)
(0.666496 -1.26372 -6.33378e-16)
(0.644756 -2.51541 0)
(1.01026 -0.11945 1.88047e-17)
(0.154475 0.603635 -9.01833e-17)
(0.336632 0.989678 6.38888e-16)
(0.449727 1.08931 -9.67333e-16)
(0.518307 1.03588 2.99852e-16)
(0.543768 0.850692 1.45285e-18)
(0.59694 0.468394 2.66692e-15)
(0.656477 -0.264649 -7.17343e-16)
(0.723757 -1.23641 1.3699e-15)
(0.751849 -2.47541 0)
(0.990301 -0.170321 -1.47057e-17)
(0.0528508 0.506164 -4.20922e-16)
(0.249866 0.889598 6.57017e-16)
(0.35524 1.0131 1.12416e-15)
(0.423474 1.0145 -7.51132e-16)
(0.469535 0.892364 3.58204e-15)
(0.559273 0.551652 1.61734e-15)
(0.655658 -0.188417 4.8699e-15)
(0.725899 -1.16988 -1.97911e-15)
(0.838745 -2.39536 -4.32927e-15)
(0.981146 -0.207678 4.19513e-17)
(-0.0466366 0.38576 3.93339e-16)
(0.143174 0.758496 -8.22155e-16)
(0.239859 0.905917 7.81654e-16)
(0.317453 0.956185 -1.53948e-15)
(0.38999 0.891224 1.6864e-15)
(0.522554 0.602067 -9.12861e-15)
(0.667595 -0.105602 0)
(0.739182 -1.0697 -4.63348e-15)
(0.941972 -2.28213 4.08799e-15)
(0.975842 -0.203676 0)
(-0.139229 0.266605 3.29882e-16)
(0.0419534 0.609207 -3.20705e-16)
(0.139036 0.770721 0)
(0.23759 0.862506 -3.04469e-16)
(0.348915 0.853326 -2.89707e-16)
(0.511526 0.624071 3.09621e-15)
(0.691714 0.00412282 -4.21677e-15)
(0.773136 -0.913771 0)
(1.04926 -2.11937 -1.66842e-14)
(0.958524 -0.161104 -1.16959e-17)
(-0.226984 0.151796 0)
(-0.0469393 0.444636 0)
(0.0604243 0.604518 1.42631e-15)
(0.186033 0.725534 -2.21566e-15)
(0.333986 0.771603 2.45112e-15)
(0.52422 0.612597 6.47221e-16)
(0.732871 0.121074 9.09941e-15)
(0.84788 -0.699264 -1.25198e-14)
(1.1365 -1.87848 8.07345e-15)
(0.913505 -0.0858086 0)
(-0.314366 0.0422774 -3.62432e-16)
(-0.124966 0.269094 -2.24371e-15)
(-0.00202021 0.410648 -8.76374e-16)
(0.145734 0.542872 -3.97414e-15)
(0.318152 0.627738 2.4768e-15)
(0.517584 0.555992 -5.98657e-15)
(0.711527 0.192977 7.4065e-16)
(0.836936 -0.474411 -3.60295e-15)
(1.1045 -1.56833 -1.20896e-14)
(0.816904 0.0198681 1.8578e-17)
(-0.398994 -0.0612702 3.74196e-16)
(-0.187408 0.0944712 2.97529e-15)
(-0.0517607 0.206291 5.76538e-16)
(0.101823 0.327973 2.39888e-15)
(0.273923 0.426152 0)
(0.453577 0.425649 6.1911e-15)
(0.579691 0.214829 7.64135e-15)
(0.636214 -0.256969 9.17954e-15)
(0.828299 -1.24211 8.93221e-15)
(0.637591 0.130953 1.82436e-17)
(-0.446439 -0.153534 3.86866e-16)
(-0.213622 -0.0536702 -4.17106e-16)
(-0.0858014 0.0323536 -2.00383e-15)
(0.0375729 0.137457 6.46959e-15)
(0.169516 0.242476 8.67167e-15)
(0.298304 0.312116 -2.97247e-15)
(0.367969 0.290308 0)
(0.332969 0.0796653 0)
(0.39722 -0.831788 -9.71369e-15)
(0.324469 0.17767 -1.04751e-16)
(-0.285767 -0.0799061 6.47387e-16)
(-0.0769765 -0.0355557 0)
(-0.00688603 -0.000310111 0)
(0.0459308 0.0130181 -3.34408e-15)
(0.103869 0.0105679 -2.36288e-17)
(0.158039 -0.0040167 5.96318e-15)
(0.199129 -0.0169132 -1.30088e-14)
(0.239136 -0.0665428 1.55506e-14)
(0.42413 -0.693781 1.2523e-15)
(0.630762 -4.10126 0)
(0.680667 -6.06772 0)
(0.839094 -8.32241 0)
(1.06371 -10.7083 -8.65646e-16)
(1.29466 -13.1711 0)
(1.22028 -15.9348 0)
(1.15324 -19.5577 8.73732e-16)
(5.36936 -21.6165 0)
(-2.85973 -19.4835 0)
(5.43413 -42.8785 0)
(0.822336 -4.05506 1.74896e-15)
(1.00176 -6.05504 2.8273e-15)
(1.32528 -8.34781 1.35226e-16)
(1.70962 -10.736 9.47871e-16)
(2.11161 -13.1783 5.901e-17)
(2.25671 -15.9284 1.16926e-15)
(2.30734 -19.6909 1.85879e-16)
(6.47594 -21.5634 7.82885e-17)
(-1.45433 -18.7402 -3.02155e-15)
(8.66941 -42.1768 -5.73827e-16)
(1.02233 -3.96629 1.57278e-15)
(1.34534 -6.00552 0)
(1.83567 -8.32605 -2.2235e-15)
(2.36483 -10.704 -1.89573e-15)
(2.92414 -13.1224 5.6562e-15)
(3.25909 -15.8273 -1.13296e-15)
(3.5595 -19.6229 1.94715e-15)
(7.43295 -21.2674 0)
(-0.0818403 -18.7636 3.56505e-15)
(11.4112 -40.8932 -4.83718e-17)
(1.22817 -3.8395 3.47921e-15)
(1.69783 -5.92329 8.38199e-15)
(2.36208 -8.25227 -8.63665e-15)
(3.03613 -10.5975 3.40143e-15)
(3.7558 -12.9737 7.33024e-17)
(4.29118 -15.6044 0)
(4.85967 -19.3848 -1.94141e-15)
(8.62728 -20.7633 -4.15876e-15)
(1.32392 -18.9461 -3.53851e-15)
(14.2711 -39.5455 2.77286e-15)
(1.42082 -3.67072 3.13097e-15)
(2.05134 -5.80301 -2.70956e-15)
(2.89741 -8.11446 8.84829e-15)
(3.71484 -10.4109 -3.53437e-15)
(4.59836 -12.7395 3.08741e-15)
(5.34522 -15.2828 -4.78968e-15)
(6.173 -19.0223 4.46017e-15)
(9.90085 -20.1612 4.51368e-15)
(2.72111 -19.101 0)
(17.1566 -37.9763 -5.69344e-15)
(1.57485 -3.45934 3.79423e-15)
(2.40465 -5.65157 -1.61891e-14)
(3.43517 -7.91384 -4.64691e-15)
(4.38462 -10.1465 1.09054e-14)
(5.4288 -12.4258 9.53619e-15)
(6.3814 -14.8779 3.93945e-16)
(7.45761 -18.5188 2.01616e-16)
(11.1431 -19.4727 -4.15254e-15)
(4.11966 -19.2182 -3.23788e-15)
(19.9897 -36.2326 6.22537e-15)
(1.63131 -3.24638 3.81396e-15)
(2.73584 -5.49988 5.58368e-15)
(3.94968 -7.66425 0)
(5.01573 -9.8177 -3.56399e-15)
(6.22148 -12.0441 -5.80582e-15)
(7.3777 -14.4064 4.10527e-16)
(8.7069 -17.9089 -1.25661e-14)
(12.3172 -18.7009 -4.25843e-15)
(5.54702 -19.2716 6.9971e-15)
(22.76 -34.3305 -3.22927e-15)
(1.5803 -3.12731 1.43253e-14)
(3.0384 -5.40236 -5.05162e-15)
(4.43132 -7.38423 0)
(5.59485 -9.43787 -3.06509e-16)
(6.95876 -11.6073 2.42343e-14)
(8.31809 -13.8859 -1.00725e-14)
(9.89951 -17.2178 -9.0822e-15)
(13.4174 -17.8698 7.89653e-15)
(7.02606 -19.1948 -7.06136e-15)
(25.4432 -32.2697 0)
(1.68825 -3.21929 3.93473e-16)
(3.38304 -5.30703 -5.0147e-15)
(4.85672 -7.0452 0)
(6.09779 -8.98753 7.41381e-15)
(7.59118 -11.1054 -1.793e-14)
(9.12715 -13.301 1.02837e-14)
(10.9066 -16.4658 4.24378e-15)
(14.3546 -17.0997 0)
(8.50468 -18.9929 2.39882e-16)
(28.0108 -29.9991 3.15263e-15)
(2.55058 -2.94684 4.67644e-16)
(3.83822 -4.96087 -6.10177e-17)
(5.27171 -6.47608 0)
(6.60731 -8.3403 -1.47184e-14)
(8.23017 -10.4046 5.60707e-15)
(9.91601 -12.5279 -5.62246e-15)
(11.9073 -15.4864 4.68648e-15)
(15.336 -16.1927 8.8101e-17)
(9.93829 -19.0371 -2.18849e-16)
(30.3972 -27.4133 -3.10955e-15)
(3.90409 -2.09498 2.91242e-15)
(4.41812 -4.47726 -5.2768e-15)
(5.80465 -5.9115 0)
(7.29924 -7.67513 0)
(9.09196 -9.62882 0)
(10.932 -11.6561 -2.64034e-15)
(13.0977 -14.4392 1.03763e-14)
(15.9886 -15.0846 0)
(11.0164 -19.7044 0)
(32.4492 -25.3233 0)
(3.9115 -2.16517 -2.7685e-15)
(4.57325 -4.17858 -4.98509e-15)
(5.94506 -5.57468 0)
(7.54247 -7.2781 3.62822e-15)
(9.45223 -9.15269 -2.80261e-15)
(11.4198 -11.0724 2.53773e-15)
(13.6212 -13.7128 3.83315e-15)
(16.3461 -13.9529 7.00525e-17)
(12.1808 -19.4836 1.49669e-15)
(33.7245 -24.2723 0)
(3.27495 -2.48453 1.69802e-16)
(4.54414 -3.93884 7.02518e-17)
(5.91835 -5.37688 0)
(7.60908 -7.01831 3.0737e-16)
(9.63122 -8.79886 5.92301e-15)
(11.742 -10.5527 -4.30944e-15)
(14.0961 -12.8699 -1.14175e-14)
(16.7897 -13.1179 -6.23592e-15)
(13.7023 -17.466 9.99311e-15)
(35.1341 -22.5475 2.64597e-15)
(2.81639 -2.53016 -1.21279e-14)
(4.4014 -3.73846 4.8286e-15)
(6.0029 -5.07482 0)
(7.88514 -6.58585 -7.00316e-15)
(10.0664 -8.24107 -5.86834e-15)
(12.3724 -9.86371 9.37308e-15)
(14.9618 -11.8082 3.64552e-15)
(17.4628 -12.3477 0)
(15.5851 -16.9406 -4.74497e-15)
(36.9749 -19.7877 1.09692e-17)
(2.84381 -2.43206 -3.01416e-16)
(4.4871 -3.45173 4.81625e-15)
(6.23378 -4.59788 0)
(8.26112 -5.92319 1.36413e-14)
(10.5618 -7.39695 4.484e-17)
(13.0273 -8.88785 -1.99511e-16)
(15.7757 -10.4913 6.90449e-15)
(18.0342 -11.1488 -5.97115e-15)
(17.0792 -16.3876 -4.04619e-15)
(38.851 -16.5027 0)
(3.02569 -2.23625 -2.89111e-15)
(4.66408 -3.09441 9.62178e-15)
(6.50435 -4.07344 8.25513e-15)
(8.6355 -5.21925 -9.4757e-15)
(11.0231 -6.51548 -1.58781e-14)
(13.6205 -7.85516 -1.76185e-16)
(16.4597 -9.1118 -3.4613e-15)
(18.5237 -9.84349 -2.72197e-15)
(18.672 -15.4298 -3.31136e-15)
(40.4474 -13.2447 -2.21547e-15)
(3.21291 -1.91175 -8.62626e-15)
(4.87044 -2.64718 4.67074e-15)
(6.78385 -3.47214 -3.62258e-15)
(8.98868 -4.43517 -9.55384e-15)
(11.4367 -5.54842 7.45812e-15)
(14.135 -6.72364 -1.54571e-16)
(17.0148 -7.62049 6.54951e-15)
(18.9377 -8.38975 2.26565e-15)
(20.2423 -14.2529 1.08242e-15)
(41.7117 -10.1756 1.59414e-16)
(3.39062 -1.50177 2.51462e-15)
(5.07873 -2.11587 -2.36995e-15)
(7.05522 -2.78897 -1.16806e-16)
(9.31331 -3.56556 9.41439e-15)
(11.8031 -4.48483 -1.26431e-14)
(14.5759 -5.48866 3.97591e-15)
(17.4666 -6.0312 -3.16316e-15)
(19.3378 -6.69383 7.8153e-15)
(21.6055 -12.7824 0)
(42.7154 -7.21091 -2.91603e-17)
(3.54348 -1.0406 2.86798e-15)
(5.26664 -1.51498 2.39277e-15)
(7.30248 -2.02305 4.03739e-15)
(9.59746 -2.59676 -6.27425e-15)
(12.1074 -3.30165 2.45705e-15)
(14.9319 -4.12176 0)
(17.8436 -4.37072 -1.60272e-15)
(19.7007 -4.62197 -4.65926e-15)
(22.7247 -11.0837 4.33099e-16)
(43.3947 -3.52425 1.95717e-15)
(3.69855 -0.545129 1.33933e-15)
(5.48117 -0.846418 0)
(7.58388 -1.15769 2.06267e-15)
(9.91612 -1.49022 1.71698e-15)
(12.4378 -1.94532 5.28173e-17)
(15.2951 -2.55955 -1.00214e-15)
(18.3134 -2.61477 1.61008e-15)
(20.3557 -2.22655 0)
(23.4815 -9.27583 1.19491e-15)
(43.4446 0.633587 2.13487e-15)
(3.8477 -0.0546841 1.58245e-15)
(5.69991 -0.143901 -2.70583e-15)
(7.84402 -0.201428 -1.3355e-16)
(10.1892 -0.225299 7.67321e-16)
(12.7118 -0.348356 -3.80214e-17)
(15.5607 -0.743408 1.00524e-15)
(18.4944 -0.538601 -1.66987e-15)
(20.6552 0.403641 2.20223e-16)
(23.6461 -6.7091 1.62148e-15)
(43.5164 2.56401 -1.50552e-15)
(4.0493 0.402837 2.51535e-29)
(5.9977 0.379598 0)
(8.21633 0.443241 0)
(10.5813 0.582487 -8.6356e-16)
(13.0318 0.702579 0)
(15.7264 0.459253 0)
(19.0941 0.521254 8.28831e-16)
(21.2884 4.37918 0)
(21.2776 -3.38021 0)
(42.7186 0.434622 -6.99381e-30)
(1.04719 -0.963086 8.39964e-16)
(1.27673 -1.45179 -7.27565e-15)
(1.51553 -1.76525 7.03617e-15)
(1.75795 -1.68544 -9.31615e-15)
(1.9407 -1.43424 6.0848e-15)
(2.06666 -1.09388 -1.2658e-14)
(2.15592 -0.705773 3.18041e-15)
(2.24021 -0.288682 -3.56078e-15)
(2.32422 0.0818487 0)
(2.46353 0.457761 -4.74866e-16)
(-0.367811 -0.783734 1.52759e-14)
(-0.0256985 -1.05984 0)
(0.374243 -1.39853 7.34895e-15)
(0.678147 -1.27241 -2.83833e-15)
(0.891236 -1.02261 -9.35375e-15)
(1.0032 -0.710179 0)
(1.0524 -0.375769 -3.55104e-15)
(1.08043 -0.0372962 -1.66314e-15)
(1.11142 0.236723 1.18354e-15)
(1.20851 0.516518 -5.2607e-16)
(-0.967469 -0.732522 -1.27134e-14)
(-0.913449 -0.951837 0)
(-0.525343 -1.1895 6.78118e-15)
(-0.206771 -0.999538 4.94722e-16)
(0.0307976 -0.722559 7.73657e-15)
(0.154095 -0.417496 -3.63312e-15)
(0.204097 -0.119093 0)
(0.222435 0.153286 4.52773e-15)
(0.240391 0.345479 -7.55644e-16)
(0.291416 0.496026 6.31583e-16)
(-0.881499 -0.648749 5.77276e-15)
(-1.29679 -0.868391 -2.47242e-15)
(-1.10786 -1.0163 5.64924e-15)
(-0.863016 -0.767794 -6.05759e-15)
(-0.621484 -0.447747 6.25249e-16)
(-0.463476 -0.153076 3.53414e-15)
(-0.392846 0.0881731 -1.07097e-14)
(-0.372447 0.292926 1.8354e-15)
(-0.386982 0.444398 2.91523e-15)
(-0.392359 0.541946 8.57548e-17)
(-0.641959 -0.515902 -8.57567e-15)
(-1.23532 -0.740513 6.92478e-15)
(-1.34301 -0.829874 0)
(-1.28067 -0.614514 2.21066e-15)
(-1.13725 -0.324135 2.32304e-15)
(-0.996714 -0.0447804 -2.86076e-16)
(-0.910714 0.180455 1.74436e-15)
(-0.872139 0.354856 3.87814e-15)
(-0.863969 0.475669 3.42864e-18)
(-0.84674 0.543661 3.39989e-16)
(-0.428762 -0.360096 -3.39247e-15)
(-1.01271 -0.568966 5.06706e-15)
(-1.26455 -0.618319 1.97153e-15)
(-1.37996 -0.435861 -3.30067e-15)
(-1.38143 -0.188986 -1.93269e-15)
(-1.32711 0.0553096 -2.56785e-16)
(-1.26566 0.255306 -3.33547e-15)
(-1.21816 0.399569 1.03721e-15)
(-1.18346 0.492434 3.10342e-16)
(-1.13488 0.541912 -3.4128e-16)
(-0.262052 -0.200142 0)
(-0.7221 -0.370803 -1.6278e-15)
(-1.02943 -0.36825 5.02346e-16)
(-1.23576 -0.219916 -7.35836e-16)
(-1.35361 -0.0336104 1.1999e-15)
(-1.40042 0.145422 0)
(-1.39849 0.297188 7.36451e-16)
(-1.37375 0.404802 1.10646e-15)
(-1.33517 0.469572 -9.69215e-16)
(-1.26685 0.497479 -2.96128e-17)
(-0.12196 -0.0529585 0)
(-0.4425 -0.145818 -3.26599e-16)
(-0.739427 -0.0825752 2.49687e-15)
(-0.971835 0.0285589 -1.83349e-15)
(-1.1448 0.143478 0)
(-1.24631 0.245698 -2.72867e-16)
(-1.2881 0.330487 -7.61981e-16)
(-1.28812 0.384322 6.29159e-16)
(-1.25501 0.41171 6.30702e-16)
(-1.18604 0.414737 -2.47563e-16)
(0.0107838 0.0223029 -8.29273e-16)
(-0.184963 0.016477 3.28435e-16)
(-0.431729 0.0797395 3.16681e-16)
(-0.643664 0.112711 -3.04745e-16)
(-0.805442 0.132675 0)
(-0.900945 0.147613 2.87352e-16)
(-0.935946 0.157477 3.50116e-16)
(-0.918498 0.163272 -3.80671e-16)
(-0.855437 0.166665 -8.70123e-17)
(-0.761162 0.186698 4.3308e-18)
(0.492846 0.422785 -1.96068e-16)
(0.705849 0.716648 3.11705e-17)
(0.683565 0.770794 1.69543e-17)
(0.617445 0.750154 0)
(0.53922 0.742464 -4.44086e-19)
(0.464069 0.755536 0)
(0.404343 0.781938 2.40894e-17)
(0.365381 0.810034 2.60498e-17)
(0.36204 0.836212 2.20348e-17)
(0.380101 0.906699 -4.35547e-18)
)
;

boundaryField
{
    right
    {
        type            cyclic;
    }
    left
    {
        type            cyclic;
    }
    outerWall
    {
        type            noSlip;
    }
    stirrerWall
    {
        type            noSlip;
    }
    top
    {
        type            empty;
    }
    bottom
    {
        type            empty;
    }
}


// ************************************************************************* //
