/*--------------------------------*- C++ -*----------------------------------*\
  =========                 |
  \\      /  F ield         | OpenFOAM: The Open Source CFD Toolbox
   \\    /   O peration     | Website:  https://openfoam.org
    \\  /    A nd           | Version:  10
     \\/     M anipulation  |
\*---------------------------------------------------------------------------*/
FoamFile
{
    format      ascii;
    class       volScalarField;
    location    "24000";
    object      Co;
}
// * * * * * * * * * * * * * * * * * * * * * * * * * * * * * * * * * * * * * //

dimensions      [0 0 0 0 0 0 0];

internalField   nonuniform List<scalar> 
17981
(
109.708
111.119
112.501
113.851
115.173
116.47
117.743
118.997
120.234
121.455
122.663
123.86
125.048
126.228
127.404
128.576
129.747
130.917
132.089
133.264
134.443
135.629
136.823
138.026
139.24
140.466
141.705
142.96
144.231
145.52
146.828
148.157
149.507
150.881
152.279
153.703
155.154
156.634
158.143
159.684
161.257
162.864
164.506
166.185
167.901
169.657
171.453
173.291
115.013
116.452
117.858
119.234
120.584
121.909
123.214
124.501
125.773
127.031
128.277
129.515
130.745
131.97
133.19
134.409
135.627
136.847
138.069
139.296
140.528
141.768
143.016
144.275
145.546
146.83
148.128
149.443
150.775
152.127
153.498
154.891
156.308
157.748
159.215
160.71
162.232
163.786
165.37
166.988
168.64
170.328
172.053
173.817
175.621
177.467
179.357
181.291
119.894
121.344
122.763
124.154
125.52
126.866
128.193
129.504
130.802
132.089
133.367
134.638
135.904
137.166
138.426
139.686
140.947
142.21
143.478
144.751
146.032
147.321
148.619
149.929
151.252
152.589
153.942
155.311
156.699
158.106
159.534
160.985
162.46
163.96
165.486
167.041
168.626
170.241
171.889
173.571
175.288
177.042
178.834
180.667
182.541
184.458
186.419
188.427
129.992
131.348
132.688
134.015
135.332
136.641
137.943
139.241
140.536
141.829
143.123
144.418
145.716
147.019
148.327
149.643
150.967
152.301
153.646
155.004
156.375
157.761
159.164
160.584
162.023
163.483
164.964
166.469
167.998
169.552
171.134
172.744
174.384
176.056
177.76
179.498
181.272
183.083
184.933
186.823
188.755
190.73
192.75
194.816
133.973
135.327
136.669
138.001
139.325
140.644
141.959
143.273
144.587
145.901
147.219
148.54
149.866
151.198
152.538
153.886
155.245
156.615
157.996
159.392
160.802
162.228
163.671
165.133
166.614
168.116
169.64
171.188
172.76
174.358
175.984
177.638
179.321
181.036
182.784
184.566
186.382
188.236
190.128
192.059
194.031
196.046
198.105
200.209
137.472
138.811
140.141
141.465
142.784
144.102
145.419
146.737
148.057
149.382
150.711
152.046
153.388
154.738
156.098
157.467
158.847
160.24
161.646
163.066
164.501
165.952
167.421
168.909
170.416
171.944
173.494
175.068
176.665
178.289
179.939
181.617
183.325
185.063
186.833
188.636
190.474
192.348
194.259
196.208
198.198
200.229
202.303
204.421
141.796
143.101
144.402
145.703
147.005
148.311
149.621
150.937
152.259
153.589
154.927
156.275
157.632
159
160.379
161.771
163.175
164.594
166.027
167.476
168.942
170.425
171.926
173.447
174.989
176.552
178.138
179.748
181.383
183.044
184.732
186.449
188.195
189.972
191.782
193.625
195.503
197.418
199.37
201.361
203.392
205.465
207.582
146.817
148.086
149.361
150.643
151.934
153.234
154.545
155.866
157.198
158.542
159.898
161.267
162.649
164.045
165.454
166.879
168.319
169.775
171.248
172.739
174.248
175.776
177.325
178.895
180.487
182.102
183.741
185.406
187.097
188.816
190.563
192.34
194.149
195.989
197.864
199.773
201.719
203.703
205.726
207.789
209.895
149.921
151.155
152.402
153.663
154.938
156.227
157.531
158.849
160.183
161.531
162.894
164.273
165.667
167.076
168.501
169.943
171.402
172.878
174.372
175.884
177.415
178.966
180.538
182.132
183.748
185.387
187.05
188.739
190.454
192.197
193.968
195.769
197.601
199.465
201.363
203.296
205.265
207.271
209.317
211.403
153.576
154.797
156.038
157.299
158.579
159.877
161.194
162.529
163.882
165.253
166.641
168.046
169.469
170.909
172.367
173.843
175.337
176.849
178.38
179.931
181.501
183.093
184.706
186.341
187.999
189.681
191.387
193.12
194.879
196.667
198.483
200.329
202.207
204.117
206.061
208.04
210.055
212.108
158.997
160.27
161.566
162.883
164.221
165.58
166.958
168.356
169.772
171.207
172.661
174.132
175.622
177.131
178.658
180.204
181.769
183.354
184.96
186.586
188.234
189.904
191.597
193.313
195.055
196.821
198.614
200.435
202.284
204.163
206.073
208.014
209.988
211.997
158.787
160.03
161.3
162.596
163.916
165.26
166.625
168.011
169.418
170.845
172.29
173.755
175.238
176.739
178.259
179.797
181.353
182.928
184.522
186.135
187.768
189.421
191.095
192.791
194.509
196.249
198.014
199.803
201.618
203.459
205.328
207.226
209.153
211.111
157.952
159.163
160.405
161.677
162.978
164.304
165.655
167.03
168.426
169.843
171.281
172.737
174.213
175.706
177.218
178.747
180.294
181.858
183.44
185.039
186.657
188.292
189.946
191.62
193.313
195.027
196.761
198.517
200.296
202.098
203.924
205.775
207.653
209.557
156.504
157.681
158.896
160.145
161.425
162.735
164.072
165.435
166.821
168.23
169.66
171.11
172.579
174.066
175.571
177.093
178.631
180.186
181.757
183.344
184.948
186.567
188.203
189.856
191.527
193.214
194.92
196.644
198.388
200.151
201.936
203.741
205.569
207.42
155.601
156.79
158.016
159.279
160.574
161.9
163.253
164.632
166.035
167.46
168.906
170.371
171.854
173.355
174.873
176.406
177.954
179.518
181.096
182.689
184.296
185.917
187.553
189.203
190.868
192.549
194.245
195.957
197.685
199.431
201.194
202.976
204.776
152.94
154.106
155.315
156.564
157.849
159.167
160.516
161.892
163.293
164.718
166.164
167.63
169.115
170.616
172.134
173.667
175.214
176.775
178.35
179.936
181.536
183.148
184.772
186.408
188.056
189.717
191.39
193.076
194.776
196.489
198.216
199.961
201.732
149.727
150.877
152.075
153.317
154.598
155.915
157.265
158.645
160.051
161.483
162.936
164.41
165.902
167.412
168.937
170.476
172.029
173.595
175.172
176.761
178.36
179.969
181.588
183.218
184.857
186.505
188.164
189.831
191.509
193.202
194.915
196.661
198.457
147.133
148.328
149.572
150.858
152.184
153.544
154.937
156.358
157.804
159.274
160.765
162.275
163.802
165.344
166.9
168.468
170.048
171.637
173.237
174.845
176.461
178.085
179.715
181.352
182.996
184.65
186.318
188.006
189.722
191.476
193.279
195.14
142.907
144.113
145.37
146.673
148.018
149.401
150.817
152.264
153.738
155.237
156.757
158.297
159.854
161.425
163.01
164.605
166.209
167.82
169.436
171.058
172.687
174.324
175.97
177.628
179.3
180.991
182.705
184.448
186.227
188.049
189.919
191.843
138.249
139.48
140.764
142.098
143.476
144.893
146.347
147.834
149.35
150.891
152.453
154.032
155.626
157.233
158.851
160.479
162.116
163.76
165.412
167.072
168.742
170.423
172.118
173.828
175.558
177.31
179.088
180.894
182.733
184.613
186.539
188.517
133.219
134.49
135.818
137.195
138.616
140.076
141.57
143.098
144.656
146.243
147.853
149.484
151.132
152.794
154.466
156.148
157.838
159.537
161.245
162.965
164.697
166.441
168.199
169.972
171.762
173.572
175.408
177.272
179.171
181.11
183.094
185.129
127.849
129.17
130.543
131.965
133.431
134.937
136.481
138.063
139.679
141.325
142.997
144.692
146.406
148.137
149.881
151.635
153.397
155.168
156.948
158.737
160.538
162.351
164.178
166.021
167.883
169.765
171.673
173.609
175.579
177.588
179.641
181.744
122.142
123.515
124.941
126.416
127.94
129.509
131.122
132.778
134.472
136.199
137.954
139.733
141.531
143.346
145.174
147.014
148.864
150.725
152.596
154.477
156.369
158.274
160.192
162.125
164.076
166.047
168.043
170.067
172.123
174.217
176.353
178.537
116.155
117.598
119.098
120.654
122.262
123.92
125.625
127.374
129.166
130.995
132.857
134.747
136.658
138.586
140.528
142.482
144.446
146.419
148.402
150.394
152.397
154.41
156.437
158.477
160.535
162.612
164.712
166.839
168.997
171.191
173.424
175.701
110.019
111.565
113.171
114.834
116.553
118.327
120.152
122.026
123.946
125.907
127.902
129.927
131.974
134.037
136.114
138.202
140.298
142.403
144.515
146.636
148.766
150.905
153.056
155.219
157.399
159.596
161.815
164.059
166.333
168.639
170.983
173.367
103.92
105.597
107.337
109.136
110.993
112.907
114.875
116.894
118.961
121.071
123.218
125.396
127.596
129.813
132.042
134.279
136.524
138.775
141.032
143.295
145.565
147.844
150.133
152.433
154.747
157.078
159.429
162.271
166.13
170.442
174.582
178.556
98.021
99.85
101.741
103.692
105.702
107.769
109.892
112.069
114.295
116.566
118.876
121.219
123.584
125.967
128.36
130.761
133.166
135.576
137.99
140.409
142.833
145.263
147.702
150.642
155.103
160.506
165.713
170.727
175.552
180.192
184.651
188.936
92.3814
94.3747
96.4281
98.5404
100.711
102.939
105.225
107.566
109.959
112.4
114.883
117.4
119.942
122.502
125.072
127.648
130.228
132.81
135.394
137.98
140.571
144.673
150.643
156.835
162.821
168.601
174.176
179.55
184.725
189.705
194.496
199.101
86.9736
89.1428
91.3692
93.6525
95.9929
98.3914
100.848
103.362
105.932
108.552
111.218
113.922
116.653
119.404
122.165
124.931
127.699
130.468
133.236
137.207
143.368
150.404
157.223
163.825
170.212
176.384
182.342
188.09
193.629
198.963
204.096
209.033
84.0924
86.5134
88.986
91.5126
94.0957
96.7374
99.4384
102.197
105.011
107.874
110.778
113.714
116.67
119.638
122.611
125.584
128.556
133.541
140.971
148.678
156.158
163.412
170.44
177.244
183.824
190.181
196.317
202.234
207.935
213.424
218.704
79.1872
81.833
84.5264
87.2661
90.0567
92.9031
95.8084
98.7733
101.796
104.871
107.991
111.146
114.324
117.516
120.712
123.907
129.073
136.925
145.338
153.515
161.456
169.163
176.635
183.874
190.879
197.652
204.193
210.505
216.588
222.446
228.083
74.5093
77.3897
80.3224
83.3002
86.3225
89.3946
92.5218
95.7076
98.9522
102.252
105.6
108.988
112.402
115.831
119.264
123.719
131.085
140.244
149.157
157.825
166.248
174.427
182.363
190.056
197.507
204.714
211.68
218.403
224.886
231.131
237.139
70.1872
73.2983
76.466
79.685
82.9513
86.2646
89.6279
93.0463
96.5229
100.057
103.642
107.27
110.929
114.606
118.289
124.227
133.252
142.942
152.378
161.56
170.487
179.162
187.584
195.754
203.672
211.337
218.748
225.905
232.807
239.456
245.853
76.4889
79.9935
83.5491
87.1543
90.8121
94.5267
98.2995
102.127
106.002
109.912
113.844
117.785
124.631
134.731
144.978
154.963
164.685
174.143
183.338
192.272
200.944
209.353
217.499
225.379
232.993
240.337
247.412
254.218
73.7588
77.4924
81.2803
85.122
89.0179
92.9711
96.984
101.055
105.178
109.342
113.533
117.738
124.906
135.486
146.319
156.881
167.171
177.188
186.932
196.405
205.606
214.535
223.188
231.564
239.66
247.471
254.995
262.231
71.5132
75.4691
79.4803
83.548
87.6731
91.8581
96.1061
100.417
104.786
109.203
113.654
118.125
125.021
135.488
146.934
158.106
168.996
179.603
189.927
199.97
209.73
219.207
228.398
237.298
245.903
254.208
262.207
269.897
69.7521
73.9228
78.1488
82.4322
86.7753
91.1808
95.653
100.194
104.802
109.466
114.175
118.911
124.948
134.71
146.802
158.616
170.141
181.373
192.311
202.957
213.309
223.367
233.126
242.582
251.728
260.556
269.058
277.227
68.4598
72.8371
77.2683
81.7569
86.3066
90.9209
95.6042
100.362
105.195
110.097
115.055
120.053
125.072
133.565
145.905
158.397
170.594
182.489
194.078
205.363
216.343
227.016
237.378
247.423
257.142
266.525
275.56
284.237
67.6097
72.1855
76.8119
81.4941
86.2376
91.0478
95.9296
100.889
105.931
111.056
116.252
121.502
126.788
133.504
144.229
157.435
170.345
182.943
195.225
207.189
218.834
230.161
241.163
251.833
262.161
272.133
281.734
290.95
67.1657
71.9323
76.7442
81.6084
86.5322
91.5233
96.589
101.736
106.971
112.3
117.717
123.207
128.75
134.327
142.953
155.72
169.384
182.731
195.749
208.436
220.79
232.811
244.492
255.827
266.802
277.4
287.603
297.392
67.0839
72.0349
77.0235
82.0585
87.1493
92.3062
97.539
102.857
108.268
113.782
119.401
125.114
130.902
136.744
142.832
153.242
167.703
181.846
195.65
209.107
222.216
234.975
247.379
259.419
271.081
282.346
293.189
303.585
67.3132
72.4437
77.6017
82.7975
88.043
93.3508
98.734
104.205
109.774
115.454
121.253
127.168
133.184
139.278
145.43
153.126
165.294
180.282
194.924
209.204
223.118
236.663
249.836
262.626
275.019
286.991
298.514
309.557
70.8537
73.1033
78.4255
83.7742
89.1633
94.6085
100.126
105.732
111.441
117.268
123.224
129.317
135.538
141.869
148.285
154.766
164.088
178.032
193.568
208.729
223.503
237.888
251.878
265.466
278.636
291.361
303.608
315.34
78.6955
73.9545
79.4389
84.9359
90.4611
96.0326
101.67
107.394
113.223
119.176
125.27
131.516
137.917
144.462
151.129
157.892
164.73
175.766
191.569
207.674
223.371
238.653
253.517
267.954
281.95
295.475
308.493
320.957
87.498
78.5568
80.5808
86.2252
91.8829
97.5741
103.321
109.149
115.081
121.141
127.349
133.723
140.276
147.009
153.905
160.938
168.084
175.988
188.909
206.029
222.719
238.964
254.761
270.104
284.978
299.356
313.194
326.438
95.9761
87.2461
81.7898
87.5775
93.3678
99.1761
105.028
110.95
116.972
123.122
129.425
135.907
142.584
149.47
156.566
163.848
171.29
178.867
188.735
203.774
221.537
238.821
255.619
271.929
287.74
303.024
317.736
331.813
103.928
95.9917
86.9877
88.9219
94.8473
100.773
106.726
112.737
118.841
125.07
131.456
138.03
144.815
151.829
159.085
166.578
174.291
182.199
190.274
202.391
219.806
238.216
256.094
273.44
290.25
306.5
322.143
337.107
111.164
104.107
95.9599
90.5273
96.2487
102.292
108.345
114.441
120.617
126.914
133.37
140.023
146.903
154.035
161.435
169.111
177.06
185.268
193.707
202.799
217.526
237.173
256.219
274.673
292.548
309.827
326.462
342.373
117.528
111.407
104.201
95.8221
97.5052
103.667
109.818
115.991
122.23
128.579
135.086
141.797
148.752
155.986
163.524
171.379
179.556
188.047
196.836
205.897
217.886
235.638
256.003
275.671
294.683
313.052
330.739
347.655
122.9
117.743
111.532
104.162
99.0607
104.85
111.098
117.347
123.64
130.03
136.57
143.317
150.323
157.635
165.289
173.311
181.712
190.493
199.64
209.129
218.926
234.193
255.294
276.357
296.627
316.166
334.968
352.951
127.21
123.015
117.821
111.509
103.955
105.807
112.158
118.484
124.832
131.256
137.818
144.584
151.619
158.985
166.732
174.9
183.51
192.572
202.077
212.004
222.314
234.952
253.891
276.565
298.286
319.125
339.136
358.262
130.438
127.17
122.98
117.741
111.315
106.907
112.978
119.389
125.795
132.253
138.828
145.599
152.642
160.035
167.847
176.131
184.927
194.253
204.108
214.474
225.313
236.573
253.207
276.146
299.546
321.869
343.214
363.582
132.613
130.213
126.981
122.791
117.497
110.939
113.55
120.053
126.525
133.02
139.607
146.37
153.4
160.792
168.632
176.996
185.942
195.503
205.69
216.489
227.865
239.763
253.946
274.974
300.269
324.307
347.156
368.883
132.193
129.848
126.648
122.449
117.086
113.876
120.477
127.023
133.562
140.162
146.911
153.909
161.268
169.097
177.496
186.545
196.299
206.786
218.003
229.916
242.47
255.584
274.591
300.335
326.329
350.899
374.138
133.205
131.655
129.36
126.183
121.965
116.597
120.671
127.298
133.89
140.509
147.24
154.193
161.491
169.267
177.647
186.743
196.636
207.378
218.98
231.419
244.639
258.553
275.431
299.648
327.831
354.378
379.328
131.022
128.769
125.607
121.354
120.654
127.365
134.018
140.663
147.382
154.281
161.494
169.175
177.48
186.553
196.516
207.449
219.389
232.327
246.211
260.95
276.418
299.032
328.706
357.499
384.409
131.766
130.323
128.104
124.943
121.659
127.252
133.968
140.648
147.36
154.203
161.316
168.865
177.035
186.012
195.959
207.001
219.21
232.601
247.132
262.712
279.202
300.159
328.836
360.142
389.297
130.993
129.592
127.395
124.219
126.993
133.771
140.49
147.202
153.995
160.999
168.387
176.367
185.166
194.998
206.045
218.427
232.198
247.338
263.76
281.314
300.484
328.127
362.21
393.906
130.943
130.232
128.864
126.676
126.635
133.465
140.22
146.937
153.687
160.583
167.793
175.538
184.079
193.686
204.61
217.039
231.083
246.76
263.997
282.64
302.465
329.132
363.641
398.165
130.351
130.196
129.521
128.176
126.709
133.094
139.878
146.601
153.314
160.111
167.14
174.619
182.833
192.105
202.762
215.082
229.254
245.356
263.349
283.084
304.314
330.03
364.374
402.037
129.668
129.544
128.897
127.562
132.711
139.507
146.23
152.91
159.617
166.473
173.678
181.518
190.356
200.598
212.628
226.745
243.118
261.768
282.567
305.257
329.994
364.291
405.465
128.828
129.122
129.025
128.397
132.365
139.155
145.863
152.508
159.133
165.832
172.771
180.216
188.547
198.235
209.779
223.62
240.059
259.217
281.015
305.195
331.334
365.76
408.37
128.434
128.748
128.67
132.099
138.862
145.539
152.138
158.683
165.239
171.931
178.989
186.774
195.793
206.655
219.965
236.208
255.655
278.326
303.988
332.182
366.884
410.673
127.627
128.246
128.576
131.948
138.664
145.292
151.828
158.287
164.707
171.176
177.87
185.107
193.387
203.392
215.898
231.622
251.061
274.397
301.476
331.818
366.941
412.273
126.807
127.657
128.288
131.938
138.585
145.143
151.601
157.961
164.244
170.505
176.87
183.588
191.109
200.13
211.571
226.408
245.45
269.143
297.486
330.03
365.902
413.22
127.078
127.939
132.085
138.641
145.106
151.465
157.712
163.85
169.911
175.975
182.222
189.013
196.997
207.159
220.727
238.898
262.511
291.851
326.577
365.739
415.636
126.572
127.617
132.394
138.839
145.188
151.426
157.539
163.521
169.379
175.161
180.983
187.109
194.076
202.837
214.79
231.552
254.509
284.416
321.192
363.881
416.983
126.177
127.381
132.861
139.175
145.385
151.477
157.434
163.239
168.888
174.394
179.827
185.359
191.39
198.739
208.831
223.642
245.231
275.074
313.597
359.987
417.025
127.457
133.472
139.635
145.686
151.607
157.38
162.985
168.405
173.634
178.698
183.697
188.898
194.926
203.065
215.471
234.891
263.803
303.516
353.656
415.457
128.104
134.207
140.201
146.069
151.795
157.356
162.732
167.897
172.831
177.531
182.038
186.508
191.364
197.624
207.357
223.825
250.713
290.718
344.425
411.891
129.118
135.044
140.846
146.508
152.01
157.33
162.444
167.322
171.934
176.255
180.286
184.095
187.933
192.507
199.548
212.454
236.083
275.075
331.787
405.816
130.222
135.951
141.539
146.967
152.216
157.262
162.078
166.631
170.883
174.796
178.34
181.523
184.461
187.581
192.138
201.199
220.383
256.645
315.23
396.558
131.379
136.889
142.238
147.404
152.367
157.102
161.578
165.761
169.608
173.072
176.101
178.656
180.761
182.625
185.033
190.361
204.227
235.768
294.336
384.226
132.525
137.794
142.877
147.752
152.395
156.778
160.868
164.63
168.017
170.977
173.445
175.353
176.653
177.397
177.991
180.007
188.234
213.09
268.905
366.902
133.544
138.545
143.333
147.885
152.171
156.161
159.819
163.104
165.969
168.359
170.204
171.422
171.922
171.645
170.713
169.973
172.869
189.565
239.182
343.302
134.191
138.882
143.333
147.519
151.406
154.957
158.132
160.887
163.173
164.93
166.09
166.566
166.256
165.048
162.876
160.026
158.494
166.643
206.343
312.402
133.846
138.137
142.172
145.915
149.326
152.364
154.989
157.157
158.816
159.906
160.358
160.092
159.013
157.002
153.914
151.099
146.286
145.62
172.345
273.987
130.529
134.207
137.6
140.671
143.388
145.721
147.641
149.115
150.111
150.585
150.485
149.745
148.826
148.484
147.674
147.579
144.367
136.187
138.045
229.885
115.489
117.625
119.411
120.845
121.935
122.703
123.182
123.412
123.432
123.269
123.56
124.113
125.391
128.334
132.094
136.625
141.363
139.992
123.16
187.48
51.0701
50.577
49.975
49.3123
48.6448
48.0374
47.5656
47.3157
47.3901
47.916
49.6863
52.7075
57.2175
63.7714
73.1779
86.419
105.017
128.65
140.149
144.023
1591.09
1581.87
1572.72
1563.64
1554.63
1545.68
1536.78
1527.92
1519.12
1510.35
1501.61
1492.9
1484.2
1475.51
1466.83
1458.13
1449.41
1440.67
1431.88
1423.04
1414.13
1405.14
1396.06
1386.86
1377.54
1368.06
1358.41
1348.56
1338.5
1328.19
1317.6
1306.71
1295.46
1283.84
1271.78
1259.25
1246.2
1232.56
1218.26
1203.41
1189.47
1176.51
1163.15
1149.37
1135.12
1120.36
1104.98
1088.85
1071.74
1053.21
1032.35
1007.11
971.931
904.027
681.859
1545.8
1536.86
1527.99
1519.18
1510.43
1501.75
1493.11
1484.52
1475.97
1467.46
1458.98
1450.52
1442.08
1433.65
1425.21
1416.76
1408.3
1399.8
1391.27
1382.68
1374.03
1365.29
1356.47
1347.53
1338.47
1329.27
1319.89
1310.33
1300.56
1290.56
1280.28
1269.72
1258.82
1247.56
1235.89
1223.77
1211.16
1197.99
1184.22
1170.32
1157.39
1145.05
1132.34
1119.22
1105.65
1091.56
1076.84
1061.32
1044.67
1026.35
1005.15
978.286
938.1
856.714
617.246
1501.81
1493.14
1484.53
1475.99
1467.5
1459.07
1450.69
1442.36
1434.06
1425.8
1417.57
1409.36
1401.16
1392.97
1384.78
1376.58
1368.36
1360.11
1351.82
1343.47
1335.07
1326.59
1318.01
1309.33
1300.53
1291.59
1282.49
1273.21
1263.73
1254.02
1244.05
1233.81
1223.25
1212.35
1201.06
1189.35
1177.17
1164.47
1151.21
1138.15
1126.07
1114.27
1102.1
1089.53
1076.47
1062.85
1048.51
1033.21
1016.53
997.701
975.16
945.325
898.712
805.745
571.515
1459.08
1450.66
1442.31
1434.02
1425.79
1417.61
1409.48
1401.4
1393.35
1385.33
1377.34
1369.37
1361.41
1353.46
1345.5
1337.54
1329.55
1321.54
1313.49
1305.39
1297.22
1288.98
1280.66
1272.23
1263.68
1255
1246.16
1237.15
1227.95
1218.53
1208.87
1198.94
1188.72
1178.16
1167.24
1155.93
1144.17
1131.94
1119.17
1106.86
1095.51
1084.19
1072.5
1060.38
1047.75
1034.48
1020.4
1005.18
988.307
968.803
944.727
911.727
858.896
757.515
541.997
1417.56
1409.4
1401.3
1393.26
1385.27
1377.34
1369.45
1361.6
1353.79
1346.01
1338.25
1330.51
1322.79
1315.07
1307.35
1299.61
1291.86
1284.08
1276.25
1268.38
1260.45
1252.45
1244.37
1236.18
1227.88
1219.45
1210.87
1202.13
1193.2
1184.07
1174.7
1165.08
1155.18
1144.96
1134.41
1123.47
1112.13
1100.33
1088.03
1076.41
1065.73
1054.84
1043.57
1031.85
1019.58
1006.61
992.713
977.504
960.339
940.041
914.281
878.024
819.769
715.806
525.851
1377.23
1369.31
1361.46
1353.66
1345.91
1338.21
1330.56
1322.94
1315.36
1307.81
1300.28
1292.77
1285.27
1277.77
1270.27
1262.76
1255.23
1247.68
1240.08
1232.44
1224.74
1216.96
1209.11
1201.16
1193.1
1184.92
1176.59
1168.11
1159.45
1150.59
1141.51
1132.19
1122.6
1112.72
1102.51
1091.94
1080.99
1069.61
1057.84
1046.87
1036.72
1026.23
1015.35
1003.99
992.032
979.298
965.51
950.214
932.637
911.386
883.776
844.32
781.987
683.243
519.901
1338.05
1330.37
1322.75
1315.19
1307.67
1300.2
1292.77
1285.38
1278.03
1270.7
1263.39
1256.1
1248.82
1241.54
1234.26
1226.96
1219.65
1212.31
1204.94
1197.51
1190.03
1182.49
1174.86
1167.14
1159.32
1151.37
1143.29
1135.06
1126.66
1118.07
1109.27
1100.24
1090.95
1081.39
1071.52
1061.31
1050.73
1039.75
1028.61
1018.26
1008.49
998.363
987.826
976.776
965.074
952.506
938.74
923.241
905.107
882.742
853.182
810.862
747.254
655.227
515.058
1299.99
1292.54
1285.15
1277.81
1270.52
1263.27
1256.06
1248.89
1241.75
1234.64
1227.55
1220.47
1213.4
1206.33
1199.26
1192.18
1185.08
1177.96
1170.79
1163.58
1156.32
1148.99
1141.59
1134.09
1126.49
1118.78
1110.94
1102.95
1094.81
1086.48
1077.95
1069.2
1060.21
1050.95
1041.4
1031.53
1021.31
1010.71
1000.19
990.421
980.986
971.19
960.953
950.159
938.642
926.152
912.301
896.468
877.629
854.025
822.557
778.022
717.703
633.66
510.353
1263.01
1255.79
1248.62
1241.5
1234.42
1227.39
1220.4
1213.44
1206.51
1199.61
1192.72
1185.85
1178.99
1172.13
1165.26
1158.39
1151.49
1144.57
1137.62
1130.62
1123.56
1116.45
1109.26
1101.98
1094.61
1087.12
1079.51
1071.76
1063.86
1055.78
1047.52
1039.04
1030.33
1021.37
1012.13
1002.59
992.723
982.49
972.532
963.308
954.177
944.662
934.668
924.062
912.649
900.138
886.084
869.79
850.13
825.242
792.094
747.56
691.244
614.4
505.461
1227.09
1220.08
1213.12
1206.22
1199.35
1192.53
1185.75
1178.99
1172.27
1165.57
1158.89
1152.22
1145.55
1138.89
1132.23
1125.55
1118.86
1112.14
1105.38
1098.59
1091.74
1084.83
1077.84
1070.78
1063.62
1056.36
1048.97
1041.46
1033.79
1025.96
1017.95
1009.74
1001.31
992.635
983.7
974.477
964.94
955.06
945.62
936.872
928
918.712
908.899
898.407
887.009
874.376
860.011
843.154
822.611
796.508
762.085
720.498
668.819
597.153
501.11
1192.18
1185.39
1178.64
1171.94
1165.28
1158.66
1152.08
1145.53
1139
1132.49
1126.01
1119.53
1113.07
1106.6
1100.13
1093.65
1087.15
1080.62
1074.06
1067.46
1060.81
1054.1
1047.32
1040.47
1033.52
1026.47
1019.3
1012.01
1004.58
996.989
989.225
981.271
973.108
964.716
956.075
947.16
937.947
928.409
919.417
911.057
902.394
893.276
883.577
873.12
861.653
848.808
834.048
816.566
795.148
768.013
735.425
697.21
647.906
581.556
496.375
1158.27
1151.68
1145.13
1138.63
1132.18
1125.75
1119.36
1113.01
1106.67
1100.36
1094.06
1087.78
1081.5
1075.22
1068.94
1062.65
1056.33
1050
1043.63
1037.22
1030.76
1024.25
1017.67
1011.01
1004.27
997.428
990.478
983.406
976.199
968.841
961.319
953.616
945.715
937.596
929.24
920.625
911.728
902.548
893.917
885.808
877.302
868.295
858.643
848.149
836.536
823.407
808.197
790.077
767.863
741.457
711.703
675.659
628.455
567.275
491.309
1125.32
1118.93
1112.58
1106.27
1100.01
1093.78
1087.58
1081.41
1075.26
1069.13
1063.02
1056.92
1050.83
1044.73
1038.63
1032.52
1026.39
1020.24
1014.06
1007.83
1001.56
995.24
988.853
982.392
975.849
969.212
962.471
955.613
948.626
941.496
934.21
926.752
919.106
911.254
903.177
894.855
886.264
877.416
869.04
861.075
852.674
843.719
834.053
823.458
811.639
798.18
782.496
763.771
741.997
718.123
690.334
655.17
610.346
554.044
485.955
1093.3
1087.1
1080.95
1074.83
1068.75
1062.7
1056.69
1050.7
1044.73
1038.79
1032.86
1026.93
1021.02
1015.1
1009.18
1003.25
997.295
991.322
985.318
979.277
973.191
967.053
960.853
954.584
948.235
941.797
935.26
928.611
921.84
914.933
907.877
900.659
893.262
885.671
877.866
869.829
861.537
852.966
844.727
836.814
828.468
819.513
809.779
799.034
786.967
773.151
757.005
738.911
719.453
697.114
669.753
635.743
593.431
541.651
480.352
1062.2
1056.18
1050.21
1044.27
1038.38
1032.51
1026.67
1020.86
1015.07
1009.3
1003.54
997.795
992.051
986.307
980.558
974.797
969.02
963.221
957.392
951.528
945.621
939.663
933.647
927.564
921.405
915.161
908.823
902.379
895.818
889.129
882.3
875.316
868.163
860.825
853.286
845.527
837.525
829.256
821.03
812.99
804.654
795.654
785.808
774.876
762.537
748.365
733.31
717.354
698.812
676.739
650.001
617.335
577.56
529.935
474.532
1031.97
1026.13
1020.34
1014.58
1008.86
1003.17
997.505
991.865
986.247
980.645
975.056
969.476
963.9
958.324
952.743
947.151
941.543
935.913
930.255
924.563
918.829
913.048
907.21
901.309
895.336
889.283
883.139
876.895
870.541
864.066
857.457
850.702
843.787
836.698
829.417
821.927
814.205
806.227
797.962
789.651
781.211
772.129
762.14
750.999
739.155
726.685
712.823
697.051
678.722
657.04
631.081
599.881
562.601
518.772
468.522
1002.59
996.933
991.314
985.729
980.177
974.654
969.158
963.685
958.232
952.796
947.371
941.955
936.542
931.129
925.711
920.283
914.839
909.374
903.883
898.358
892.795
887.185
881.522
875.799
870.008
864.14
858.187
852.139
845.987
839.72
833.327
826.796
820.114
813.267
806.237
799.008
791.556
783.857
775.878
767.581
758.912
749.804
740.165
729.866
718.728
706.498
692.828
677.257
659.216
638.035
612.975
583.305
548.431
508.063
462.346
974.047
968.558
963.106
957.688
952.301
946.943
941.609
936.298
931.006
925.729
920.464
915.207
909.953
904.699
899.44
894.171
888.887
883.583
878.254
872.893
867.495
862.053
856.562
851.012
845.399
839.713
833.946
828.09
822.136
816.073
809.891
803.579
797.123
790.51
783.724
776.746
769.553
762.12
754.414
746.391
737.998
729.161
719.783
709.73
698.817
686.792
673.323
657.994
640.313
619.727
595.649
567.528
534.948
497.731
456.022
946.306
940.981
935.692
930.436
925.209
920.01
914.834
909.68
904.544
899.423
894.313
889.21
884.111
879.011
873.906
868.792
863.664
858.517
853.346
848.145
842.909
837.632
832.307
826.928
821.488
815.98
810.396
804.728
798.966
793.103
787.127
781.028
774.792
768.407
761.855
755.119
748.175
740.995
733.545
725.781
717.644
709.058
699.921
690.094
679.392
667.57
654.32
639.277
622.024
602.105
579.059
552.476
522.061
487.714
449.569
919.344
914.179
909.048
903.949
898.878
893.833
888.81
883.809
878.824
873.854
868.894
863.942
858.993
854.043
849.089
844.126
839.15
834.156
829.139
824.094
819.016
813.899
808.738
803.526
798.256
792.922
787.517
782.032
776.459
770.791
765.016
759.123
753.101
746.935
740.61
734.105
727.398
720.459
713.252
705.729
697.831
689.478
680.564
670.949
660.45
648.836
635.832
621.119
604.348
585.148
563.16
538.076
509.694
477.958
442.994
893.14
888.13
883.152
878.204
873.284
868.388
863.515
858.661
853.824
849
844.187
839.38
834.577
829.774
824.967
820.151
815.323
810.478
805.612
800.72
795.796
790.837
785.835
780.785
775.682
770.519
765.288
759.982
754.595
749.115
743.535
737.844
732.028
726.075
719.967
713.685
707.203
700.492
693.513
686.218
678.543
670.407
661.702
652.289
641.991
630.599
617.868
603.527
587.281
568.834
547.906
524.268
497.781
468.421
436.303
867.671
862.81
857.981
853.18
848.406
843.656
838.927
834.217
829.522
824.841
820.17
815.505
810.844
806.183
801.519
796.847
792.163
787.464
782.745
778.002
773.23
768.423
763.578
758.688
753.747
748.751
743.69
738.56
733.352
728.058
722.667
717.171
711.555
705.806
699.907
693.837
687.57
681.075
674.313
667.232
659.768
651.836
643.33
634.115
624.026
612.875
600.447
586.513
570.83
553.157
533.278
511.021
486.29
459.076
429.506
842.915
838.199
833.513
828.855
824.223
819.613
815.024
810.453
805.898
801.355
796.822
792.296
787.773
783.251
778.726
774.194
769.651
765.094
760.519
755.921
751.297
746.641
741.948
737.214
732.432
727.598
722.705
717.745
712.712
707.597
702.391
697.083
691.66
686.108
680.41
674.543
668.481
662.192
655.634
648.756
641.492
633.757
625.445
616.43
606.563
595.674
583.581
570.088
554.994
538.107
519.257
498.315
475.21
449.928
422.619
818.85
814.274
809.728
805.208
800.713
796.24
791.787
787.351
782.931
778.523
774.124
769.732
765.344
760.957
756.567
752.171
747.766
743.349
738.914
734.459
729.978
725.469
720.926
716.344
711.718
707.043
702.312
697.519
692.656
687.716
682.688
677.562
672.325
666.963
661.457
655.784
649.918
643.825
637.463
630.778
623.705
616.16
608.043
599.235
589.603
578.999
567.266
554.24
539.754
523.655
505.811
486.125
464.529
440.996
415.691
795.456
791.016
786.605
782.219
777.857
773.516
769.195
764.891
760.601
756.324
752.056
747.794
743.538
739.282
735.024
730.762
726.491
722.209
717.911
713.595
709.256
704.89
700.492
696.059
691.585
687.065
682.492
677.861
673.164
668.393
663.538
658.589
653.532
648.351
643.029
637.543
631.864
625.958
619.782
613.283
606.395
599.037
591.116
582.523
573.14
562.84
551.488
538.945
525.077
509.761
492.896
474.412
454.218
432.272
408.764
772.713
768.404
764.123
759.867