/*--------------------------------*- C++ -*----------------------------------*\
  =========                 |
  \\      /  F ield         | OpenFOAM: The Open Source CFD Toolbox
   \\    /   O peration     | Website:  https://openfoam.org
    \\  /    A nd           | Version:  10
     \\/     M anipulation  |
\*---------------------------------------------------------------------------*/
FoamFile
{
    format      ascii;
    class       volScalarField;
    location    "24000";
    object      omega;
}
// * * * * * * * * * * * * * * * * * * * * * * * * * * * * * * * * * * * * * //

dimensions      [0 0 -1 0 0 0 0];

internalField   nonuniform List<scalar> 
17981
(
24.8613
25.4833
26.0969
26.6976
27.2815
27.8452
28.3861
28.9021
29.3918
29.8545
30.2897
30.6976
31.0785
31.4332
31.7625
32.0676
32.3496
32.6098
32.8496
33.0702
33.273
33.4593
33.6303
33.7874
33.9317
34.064
34.1845
34.2936
34.3922
34.4813
34.5616
34.634
34.6992
34.7579
34.8107
34.8583
34.9011
34.9398
34.9746
35.0061
35.0347
35.0607
35.0845
35.1063
35.1264
35.1452
35.1628
35.1794
25.0839
25.7493
26.4085
27.0564
27.688
28.2995
28.8875
29.4495
29.9836
30.4886
30.964
31.4096
31.8258
32.2132
32.5728
32.9056
33.213
33.4962
33.7567
33.996
34.2153
34.4163
34.6002
34.7684
34.9223
35.063
35.1912
35.3071
35.4114
35.5051
35.5891
35.6644
35.7317
35.7917
35.8452
35.8928
35.9352
35.9728
36.0063
36.036
36.0624
36.0859
36.1069
36.1257
36.1426
36.158
36.172
36.185
25.315
26.0236
26.7288
27.4245
28.1053
28.7662
29.4032
30.0131
30.5936
31.1432
31.6609
32.1464
32.6
33.0222
33.4141
33.7766
34.1111
34.4191
34.7021
34.9616
35.1991
35.4162
35.6143
35.7951
35.9598
36.1098
36.2464
36.3699
36.4806
36.5796
36.668
36.7467
36.8166
36.8785
36.9331
36.9812
37.0234
37.0604
37.0927
37.1208
37.1452
37.1664
37.1848
37.2006
37.2144
37.2264
37.2369
37.2461
28.5331
29.2452
29.9329
30.5927
31.2216
31.8176
32.3796
32.907
33.3999
33.8588
34.2847
34.6786
35.042
35.3765
35.6835
35.9647
36.2218
36.4565
36.6703
36.8648
37.0416
37.2021
37.3477
37.4793
37.5973
37.7025
37.796
37.8788
37.9519
38.0161
38.0724
38.1214
38.1639
38.2006
38.2321
38.259
38.2817
38.3008
38.3167
38.3298
38.3406
38.3493
38.3563
38.3619
28.9761
29.7396
30.479
31.1897
31.8683
32.5124
33.1202
33.6911
34.225
34.7222
35.1837
35.6107
36.0046
36.3669
36.6994
37.0039
37.282
37.5355
37.7662
37.9758
38.1658
38.338
38.4937
38.6343
38.7604
38.8725
38.9718
39.0594
39.1363
39.2035
39.262
39.3125
39.3558
39.3926
39.4237
39.4496
39.4709
39.4882
39.502
39.5126
39.5205
39.5262
39.5299
39.532
29.4336
30.2492
31.0411
31.804
32.5336
33.227
33.8822
34.4981
35.0744
35.6115
36.1102
36.5716
36.9974
37.389
37.7484
38.0774
38.3777
38.6514
38.9003
39.1261
39.3306
39.5155
39.6825
39.8331
39.968
40.088
40.194
40.2872
40.3687
40.4396
40.5009
40.5534
40.598
40.6355
40.6666
40.692
40.7123
40.7281
40.7399
40.7483
40.7537
40.7564
40.757
40.7558
30.7746
31.6199
32.4358
33.2176
33.9616
34.6654
35.3276
35.9477
36.526
37.0631
37.5603
38.0192
38.4414
38.8289
39.1836
39.5075
39.8026
40.0708
40.3141
40.5343
40.7333
40.9128
41.0745
41.2193
41.348
41.4614
41.5609
41.6477
41.7228
41.7874
41.8423
41.8886
41.927
41.9584
41.9835
42.0029
42.0173
42.0273
42.0335
42.0363
42.0362
42.0336
42.0289
33.0858
33.9208
34.7164
35.4699
36.1796
36.8447
37.4652
38.042
38.5763
39.0695
39.5236
39.9404
40.3221
40.6707
40.9883
41.2771
41.539
41.776
41.99
42.183
42.3567
42.5123
42.6504
42.772
42.8784
42.971
43.0509
43.1192
43.177
43.2253
43.2649
43.2968
43.3218
43.3405
43.3536
43.3619
43.3659
43.3661
43.363
43.3572
43.349
34.6446
35.4923
36.2961
37.054
37.7649
38.4288
39.0464
39.6188
40.1475
40.6346
41.082
41.4918
41.8663
42.2077
42.5181
42.7996
43.0545
43.2847
43.4921
43.6787
43.8459
43.9943
44.1248
44.2388
44.3378
44.423
44.4956
44.5567
44.6074
44.6486
44.6813
44.7064
44.7246
44.7366
44.7433
44.7451
44.7427
44.7368
44.7276
44.7158
37.1426
37.9495
38.707
39.4152
40.0746
40.6863
41.2519
41.7732
42.2524
42.6916
43.0933
43.4596
43.7928
44.0953
44.3691
44.6164
44.8394
45.04
45.2197
45.3792
45.5194
45.6418
45.7479
45.839
45.9164
45.9813
46.0349
46.0781
46.1119
46.1374
46.1553
46.1664
46.1715
46.1713
46.1664
46.1575
46.145
46.1295
41.1238
41.7767
42.3807
42.9379
43.4503
43.9204
44.3505
44.743
45.1004
45.4249
45.719
45.9847
46.2243
46.4399
46.6332
46.8048
46.9555
47.0871
47.2011
47.2988
47.3816
47.4509
47.5078
47.5534
47.5887
47.6149
47.6328
47.6432
47.647
47.6449
47.6376
47.6257
47.61
47.5908
42.1974
42.8916
43.5345
44.1283
44.6749
45.1769
45.6368
46.0568
46.4396
46.7876
47.1031
47.3885
47.6459
47.8778
48.0857
48.2704
48.4328
48.5744
48.6971
48.8021
48.8911
48.9653
49.026
49.0745
49.1119
49.1391
49.1573
49.1673
49.1699
49.1661
49.1565
49.1419
49.1228
49.1
43.2891
44.0258
44.7091
45.3408
45.9231
46.4586
46.9497
47.3989
47.8087
48.1816
48.52
48.8265
49.1032
49.3526
49.5766
49.7757
49.9507
50.1036
50.2359
50.3493
50.4453
50.5252
50.5906
50.6425
50.6823
50.711
50.7297
50.7395
50.7412
50.7357
50.7239
50.7064
50.684
50.6574
44.395
45.1757
45.9007
46.572
47.1918
47.7625
48.2867
48.7668
49.2053
49.605
49.9683
50.2976
50.5954
50.8642
51.1059
51.3208
51.5099
51.6752
51.8183
51.941
52.0447
52.1312
52.2017
52.2576
52.3002
52.3308
52.3504
52.3601
52.361
52.3539
52.3398
52.3194
52.2936
52.263
46.3361
47.1051
47.8183
48.4778
49.0859
49.6453
50.1585
50.628
51.0566
51.4467
51.8009
52.1218
52.4119
52.6729
52.9052
53.1099
53.2889
53.444
53.577
53.6895
53.7833
53.8597
53.9202
53.9662
53.999
54.0197
54.0297
54.0298
54.0213
54.0049
53.9816
53.9522
53.9175
47.5055
48.3201
49.077
49.7782
50.426
51.023
51.5716
52.0745
52.5343
52.9536
53.335
53.6811
53.9945
54.2769
54.5286
54.7505
54.9447
55.1132
55.2578
55.3802
55.4821
55.5653
55.6311
55.681
55.7165
55.7388
55.7491
55.7488
55.7387
55.72
55.6937
55.6606
55.6217
48.677
49.5396
50.3427
51.0883
51.7786
52.4159
53.0029
53.542
54.0358
54.487
54.8982
55.2721
55.6113
55.9174
56.1905
56.4316
56.6429
56.8264
56.984
57.1175
57.2288
57.3196
57.3915
57.446
57.4846
57.5088
57.5199
57.5191
57.5076
57.4866
57.4572
57.4201
57.3759
50.7568
51.6096
52.4029
53.1391
53.8202
54.4488
55.0274
55.5585
56.0447
56.4888
56.8934
57.2613
57.5938
57.8907
58.1533
58.3838
58.5842
58.7565
58.9027
59.0246
59.1242
59.2031
59.2629
59.3053
59.3318
59.3438
59.3428
59.3301
59.3067
59.2735
59.231
59.1799
51.9684
52.8735
53.7179
54.5032
55.2318
55.9057
56.5275
57.0995
57.6245
58.1049
58.5436
58.9435
59.3055
59.6292
59.916
60.168
60.3875
60.5765
60.7371
60.8712
60.9808
61.0678
61.1339
61.181
61.2107
61.2243
61.2233
61.2088
61.1817
61.1431
61.0937
61.0338
53.1652
54.1266
55.026
55.8648
56.6451
57.3687
58.0381
58.6555
59.2234
59.7444
60.2212
60.6567
61.0518
61.4056
61.7197
61.9962
62.2374
62.4454
62.6227
62.7713
62.8933
62.9904
63.0644
63.1169
63.1498
63.1644
63.1623
63.1447
63.1127
63.0673
63.0091
62.9388
54.3391
55.361
56.3199
57.217
58.0539
58.8324
59.5544
60.2222
60.838
61.4043
61.9237
62.3994
62.8321
63.2209
63.5669
63.8722
64.139
64.3697
64.5665
64.7314
64.8667
64.9742
65.056
65.1138
65.1494
65.1645
65.1604
65.1387
65.1004
65.0466
64.9781
64.8955
55.4813
56.5679
57.591
58.5514
59.4501
60.2886
61.0695
61.7953
62.4674
63.0872
63.6569
64.1792
64.6548
65.0826
65.4635
65.7999
66.0944
66.3493
66.5668
66.7492
66.8988
67.0176
67.1075
67.1707
67.2088
67.2237
67.217
67.1902
67.1444
67.0809
67.0004
66.9036
56.5817
57.7374
58.8301
59.8612
60.8317
61.7414
62.5911
63.3819
64.1152
64.7927
65.4166
65.9895
66.5121
66.983
67.4025
67.7734
68.0983
68.3796
68.6199
68.8215
68.9867
69.1177
69.2167
69.2857
69.3266
69.3413
69.3315
69.2989
69.2447
69.1701
69.0761
68.9635
57.6333
58.8672
60.0396
61.1499
62.1978
63.1832
64.1064
64.9679
65.7686
66.5098
67.1933
67.8219
68.3965
68.9152
69.3778
69.7871
70.1459
70.457
70.7229
70.9461
71.129
71.274
71.3833
71.4591
71.5034
71.5182
71.5054
71.4665
71.4031
71.3165
71.2077
71.0776
58.6347
59.9512
61.2072
62.4015
63.5328
64.6003
65.6035
66.5424
67.4171
68.2286
68.9785
69.6689
70.3018
70.8744
71.3856
71.8385
72.2358
72.5807
72.8758
73.1237
73.3271
73.4883
73.6098
73.6938
73.7425
73.7579
73.7421
73.6968
73.6236
73.5239
73.399
73.2498
59.5716
60.9752
62.32
63.604
64.8252
65.9819
67.0727
68.0968
69.0536
69.9434
70.7672
71.5269
72.2252
72.8587
73.425
73.9273
74.3686
74.752
75.0805
75.3569
75.5839
75.7641
75.9
75.9939
76.0482
76.0651
76.0466
75.9947
75.9112
75.7975
75.655
75.4851
60.4346
61.9307
63.37
64.7499
66.0679
67.3214
68.508
69.6257
70.6733
71.6501
72.5565
73.3937
74.1646
74.8662
75.4952
76.0538
76.5452
76.9728
77.3396
77.6488
77.9031
78.1054
78.2583
78.3643
78.4258
78.4451
78.4245
78.3661
78.2717
78.1431
77.9819
77.7895
61.2194
62.8137
64.353
65.8349
67.2563
68.6138
69.9041
71.1241
72.2715
73.3445
74.3425
75.2662
76.1176
76.8956
77.5958
78.2183
78.7668
79.2447
79.6554
80.0023
80.2883
80.5164
80.6893
80.8097
80.8803
80.9034
80.8815
80.8168
80.7113
80.5671
80.3859
80.1694
61.9249
63.6218
65.2657
66.8544
68.3847
69.8528
71.2543
72.585
73.8412
75.0199
76.1194
77.1391
78.0804
78.944
79.7246
80.4197
81.033
81.5683
82.0293
82.4195
82.742
83.0001
83.1967
83.3346
83.4166
83.4453
83.4233
83.3528
83.2362
83.0757
82.8733
82.6311
64.3498
66.1021
67.8017
69.4456
71.0298
72.5493
73.9988
75.3729
76.6673
77.8786
79.005
80.0465
81.006
81.877
82.6544
83.3416
83.9426
84.4613
84.9013
85.2662
85.5594
85.784
85.9432
86.0397
86.0763
86.0557
85.9804
85.8529
85.6757
85.4512
85.1817
64.9986
66.8586
68.6699
70.4299
72.1345
73.778
75.3538
76.8552
78.2757
79.6103
80.8553
82.0093
83.0735
84.0448
84.9168
85.6889
86.3656
86.9507
87.4484
87.8627
88.1973
88.4555
88.6405
88.7552
88.8027
88.7856
88.7069
88.5691
88.375
88.1275
87.8294
65.5563
67.531
69.4558
71.3318
73.1584
74.9299
76.6386
78.2758
79.8331
81.3027
82.679
83.9583
85.14
86.2246
87.204
88.0733
88.8366
89.4983
90.0629
90.5349
90.9181
91.2161
91.4323
91.5698
91.6317
91.621
91.5405
91.3934
91.1827
90.9116
90.5835
66.0032
68.0999
70.1501
72.1493
74.0989
76
77.8458
79.626
81.3297
82.9464
84.4675
85.8866
87.2006
88.4105
89.5099
90.491
91.3542
92.1045
92.7468
93.286
93.7263
94.0716
94.3254
94.491
94.5717
94.5706
94.4908
94.3357
94.1088
93.8136
93.4542
72.8664
74.9532
76.9882
78.9728
80.9001
82.7579
84.5327
86.2119
87.7858
89.2481
90.5967
91.8305
92.9395
93.9176
94.7701
95.5026
96.12
96.6272
97.0283
97.3271
97.5271
97.6317
97.6442
97.568
97.4067
97.1642
96.8446
96.4528
73.4653
75.7037
77.8885
80.0189
82.0963
84.113
86.0542
87.9038
89.6475
91.2748
92.7797
94.1621
95.4139
96.5245
97.4953
98.3321
99.0406
99.626
100.093
100.445
100.687
100.821
100.852
100.783
100.618
100.361
100.017
99.5911
73.9263
76.3253
78.6768
80.9725
83.2103
85.3909
87.5052
89.5354
91.4631
93.2724
94.9527
96.499
97.9101
99.1726
100.28
101.237
102.051
102.728
103.272
103.688
103.979
104.151
104.206
104.148
103.981
103.711
103.342
102.882
74.2308
76.7988
79.328
81.8079
84.2282
86.5857
88.8803
91.1
93.2242
95.2321
97.107
98.8387
100.425
101.856
103.121
104.218
105.155
105.937
106.572
107.062
107.414
107.63
107.716
107.674
107.509
107.227
106.835
106.338
74.3591
77.1037
79.8207
82.4977
85.1221
87.6814
90.1715
92.5904
94.9225
97.1443
99.2331
101.172
102.952
104.573
106.017
107.275
108.354
109.26
109.999
110.578
111
111.271
111.394
111.374
111.216
110.925
110.508
109.975
74.2908
77.2176
80.1313
83.0176
85.8616
88.6479
91.3613
93.9967
96.5497
99.0003
101.322
103.491
105.492
107.317
108.96
110.405
111.648
112.698
113.56
114.242
114.748
115.084
115.254
115.263
115.115
114.817
114.377
113.805
74.0053
77.1172
80.2345
83.3409
86.4189
89.4504
92.4167
95.2996
98.0927
100.788
103.361
105.783
108.03
110.086
111.951
113.606
115.04
116.255
117.261
118.063
118.668
119.082
119.308
119.353
119.221
118.92
118.457
117.846
73.4831
76.7792
80.1036
83.4382
86.7632
90.0572
93.2981
96.4634
99.5315
102.494
105.339
108.036
110.556
112.875
114.982
116.873
118.526
119.934
121.106
122.049
122.77
123.275
123.57
123.66
123.55
123.249
122.766
122.114
72.7072
76.1814
79.7118
83.279
86.8609
90.4328
93.9689
97.4422
100.826
104.095
107.238
110.236
113.057
115.67
118.054
120.202
122.102
123.735
125.1
126.207
127.064
127.678
128.054
128.2
128.12
127.822
127.319
126.625
71.6633
75.3042
79.034
82.8329
86.677
90.539
94.389
98.1952
101.925
105.547
109.032
112.362
115.514
118.454
121.153
123.591
125.768
127.659
129.249
130.546
131.562
132.302
132.776
132.988
132.946
132.659
132.137
131.4
70.3487
74.1348
78.0488
82.0709
86.1762
90.335
94.5136
98.6754
102.782
106.793
110.672
114.385
117.907
121.212
124.265
127.037
129.518
131.696
133.549
135.071
136.272
137.163
137.751
138.044
138.05
137.778
137.241
136.458
68.7653
72.6638
76.7401
80.9688
85.3257
89.7803
94.2959
98.831
103.341
107.778
112.097
116.251
120.201
123.916
127.367
130.519
133.35
135.854
138.008
139.79
141.208
142.274
142.997
143.387
143.452
143.202
142.651
141.822
66.9312
70.9035
75.1052
79.5113
84.099
88.8379
93.6895
98.6084
103.543
108.439
113.24
117.89
122.336
126.53
130.435
134.02
137.256
140.125
142.618
144.707
146.38
147.652
148.534
149.039
149.175
148.955
148.394
147.516
64.8712
68.8685
73.1462
77.6925
82.479
87.4785
92.6534
97.9557
103.329
108.71
114.033
119.229
124.232
128.981
133.422
137.509
141.211
144.506
147.386
149.826
151.8
153.313
154.383
155.023
155.246
155.065
154.497
153.568
62.6262
66.5969
70.8976
75.5274
80.4645
85.6854
91.1556
96.8272
102.64
108.524
114.402
120.192
125.813
131.188
136.246
140.928
145.184
148.983
152.306
155.148
157.477
159.276
160.566
161.366
161.692
161.56
160.989
160.007
60.2413
64.1299
68.3913
73.0375
78.0674
83.4562
89.1771
95.1867
101.425
107.816
114.273
120.7
126.999
133.073
138.833
144.199
149.105
153.503
157.361
160.674
163.417
165.559
167.108
168.095
168.544
168.474
167.904
166.867
57.767
61.5232
65.6847
70.2797
75.3245
80.8091
86.7162
93.0114
99.6393
106.523
113.568
120.666
127.698
134.546
141.097
147.248
152.909
158.012
162.509
166.376
169.607
172.165
174.032
175.244
175.838
175.842
175.28
174.185
55.2476
58.8302
62.8343
67.3061
72.2812
77.7801
83.7917
90.2981
97.2557
104.593
112.214
119.997
127.807
135.501
142.935
149.978
156.512
162.442
167.696
172.231
176.04
179.09
181.351
182.843
183.614
183.709
183.16
182.003
52.7131
56.1001
59.9044
64.1915
69.0196
74.4346
80.4507
87.0702
94.2695
101.992
110.146
118.605
127.219
135.818
144.227
152.276
159.813
166.708
172.859
178.198
182.693
186.333
189.078
190.921
191.916
192.124
191.596
190.374
50.1635
53.3614
56.9459
61.0017
65.6106
70.845
76.7616
83.38
90.7068
98.7113
107.319
116.411
125.826
135.371
144.835
154.007
162.687
170.702
177.91
184.209
189.538
193.893
197.224
199.507
200.787
201.142
200.645
199.354
50.6087
53.9887
57.7976
62.1402
67.1186
72.8242
79.3139
86.6307
94.7813
103.724
113.36
123.531
134.03
144.612
155.015
164.986
174.294
182.746
190.193
196.539
201.743
205.783
208.621
210.272
210.824
210.376
209.011
47.7976
51.0202
54.6064
58.669
63.3365
68.7356
74.9784
82.1394
90.2745
99.3909
109.431
120.262
131.675
143.399
155.125
166.532
177.319
187.223
196.036
203.608
209.857
214.773
218.297
220.423
221.237
220.864
219.423
51.4087
55.2292
59.58
64.6199
70.5069
77.3669
85.3104
94.4062
104.659
115.987
128.21
141.047
154.149
167.123
179.582
191.172
201.604
210.657
218.195
224.172
228.543
231.282
232.452
232.198
230.679
48.1371
51.7891
55.8744
60.5518
66.0168
72.4592
80.0436
88.9098
99.1432
110.742
123.589
137.433
151.901
166.536
180.85
194.377
206.715
217.551
226.666
233.954
239.386
242.906
244.55
244.475
242.885
48.2657
52.1767
56.5624
61.6113
67.5648
74.652
83.0881
93.049
104.638
117.841
132.483
148.216
164.538
180.86
196.577
211.143
224.11
235.153
244.075
250.839
255.349
257.618
257.811
256.169
44.5921
48.3853
52.593
57.3199
62.7951
69.3066
77.151
86.5986
97.8703
111.089
126.214
142.985
160.912
179.323
197.464
214.602
230.107
243.501
254.466
262.867
268.636
271.744
272.327
270.672
41.1085
44.4603
48.5106
53.0594
58.1744
64.1343
71.2996
80.0422
90.7037
103.561
118.755
136.197
155.493
175.954
196.685
216.733
235.228
251.47
264.969
275.449
282.836
287.042
288.174
286.559
40.903
44.3513
48.6603
53.6016
59.1619
65.6844
73.6208
83.4398
95.5741
110.37
127.98
148.225
170.512
193.87
217.119
239.082
258.754
275.388
288.512
297.978
303.621
305.514
304.018
38.067
40.7568
44.2932
48.8654
54.2561
60.3305
67.512
76.3682
87.4934
101.438
118.633
139.222
162.87
188.677
215.292
241.185
264.941
285.443
301.929
314.027
321.568
324.535
323.279
37.9586
40.6901
44.3179
49.1667
55.0597
61.7393
69.7006
79.6693
92.4039
108.608
128.808
153.097
180.872
210.778
240.959
269.484
294.71
315.441
330.97
341.035
345.482
344.636
35.8213
37.9524
40.7358
44.4736
49.6123
56.0626
63.4617
72.3583
83.695
98.4466
117.515
141.526
170.435
203.191
237.777
271.707
302.624
328.689
348.695
362.12
368.614
368.434
34.2471
35.9238
38.0847
40.938
44.8156
50.261
57.3273
65.5917
75.6282
88.6791
106.007
128.77
157.669
192.355
231.044
270.813
308.436
341.146
366.972
384.848
394.201
395.094
34.5016
36.1942
38.3985
41.342
45.3904
51.1729
58.9391
68.2526
79.7049
94.9496
115.639
143.247
178.469
220.343
265.945
311.18
352.032
385.375
409.217
422.584
425.152
33.6275
34.9617
36.6798
38.9405
41.9915
46.243
52.4172
61.0093
71.6081
84.8573
102.978
128.151
162.22
205.651
256.341
309.709
360.259
403.194
435.104
454.126
459.269
33.2776
34.335
35.6837
37.4361
39.7637
42.942
47.4363
54.0863
63.6791
75.8789
91.47
113.466
144.763
187.56
241.604
302.833
364.433
419.378
462.101
489.116
498.242
34.3054
35.3715
36.7406
38.5338
40.9406
44.2709
49.061
56.3072
67.1382
81.3775
100.117
127.493
167.348
222.025
289.581
362.888
432.401
489.441
527.69
543.044
34.9101
35.7593
36.8375
38.2309
40.0718
42.5719
46.0858
51.2435
59.2564
71.6558
88.5657
111.695
146.78
198.836
269.632
353.886
440.157
515.728
569.875
594.944
36.2375
36.923
37.782
38.8756
40.2967
42.192
44.8015
48.5386
54.1621
63.191
77.6352
98.1565
127.663
174.162
243.824
336.12
440.071
538.709
615.164
655.421
38.4551
39.0217
39.7201
40.5924
41.7029
43.1529
45.1063
47.8403
51.8487
58.0746
68.5006
85.7169
111.309
150.516
214.421
309.475
429.543
555.202
662.044
726.017
41.8603
42.3484
42.937
43.6534
44.54
45.6643
47.1361
49.1412
52.0059
56.3368
63.3505
75.7643
96.9466
130.035
184.73
275.73
406.782
561.22
707.626
808.101
46.9914
47.4404
47.9671
48.5863
49.3226
50.2166
51.3371
52.8026
54.8242
57.7926
62.4723
70.4871
85.732
113.005
158.137
238.689
372.004
552.719
747.36
902.166
54.8851
55.3414
55.8574
56.4368
57.0887
57.8314
58.6998
59.7596
61.1348
63.0638
66.0178
70.978
80.1668
99.3455
136.75
203.314
328.35
526.953
775.022
1007.43
67.7912
68.317
68.8834
69.4828
70.1084
70.7573
71.4344
72.1605
72.9893
74.0426
75.5854
78.1906
83.1459
93.5921
118.422
174.175
281.793
484.314
784.1
1120.36
91.4863
92.1819
92.8816
93.5601
94.1895
94.7405
95.186
95.5029
95.6831
95.7566
95.844
96.2479
97.698
101.976
113.854
148.007
239.796
429.653
770.411
1235.69
145.342
146.353
147.249
147.971
148.451
148.613
148.38
147.669
146.4
144.53
142.202
139.614
137.351
136.623
139.49
153.396
205.162
371.205
731.783
1349.83
326.774
327.516
327.72
327.276
326.055
323.909
320.671
316.129
310.01
302.143
295.348
289.898
284.887
279.489
274.305
271.798
282.041
352.571
683.54
1448.5
1530.04
1523.65
1517.47
1511.5
1505.74
1500.16
1494.78
1489.57
1484.54
1479.67
1474.96
1470.4
1466
1461.73
1457.61
1453.61
1449.74
1446
1442.38
1438.87
26.4153
26.8138
27.2401
27.6967
28.1859
28.7106
29.2738
29.8785
30.5283
31.2269
31.9785
32.7874
33.6586
34.5973
35.6093
36.701
37.8792
39.1517
40.5268
42.0138
43.6227
45.3649
47.2529
49.3003
51.5225
53.9365
56.5612
59.4179
62.5302
65.9247
69.6315
73.6844
78.1222
82.9889
88.3356
94.2215
100.716
107.903
115.883
124.78
134.75
145.989
158.763
173.428
190.49
210.685
235.136
265.65
305.319
359.905
441.381
578.685
857.277
1586.86
3589.91
26.4573
26.8605
27.2919
27.7538
28.2488
28.7794
29.3488
29.9601
30.6168
31.3226
32.0816
32.8982
33.7773
34.7241
35.7444
36.8444
38.0311
39.312
40.6953
42.1903
43.8069
45.5564
47.4509
49.5041
51.7309
54.1483
56.7747
59.6312
62.7408
66.1299
69.828
73.8684
78.2893
83.1343
88.4539
94.3068
100.763
107.904
115.833
124.674
134.586
145.767
158.486
173.113
190.164
210.403
234.992
265.812
306.088
361.809
445.269
585.053
857.815
1479.97
2609.51
26.5011
26.9091
27.3456
27.813
28.3136
28.8503
29.426
30.0439
30.7075
31.4204
32.1869
33.0111
33.898
34.8528
35.8812
36.9895
38.1843
39.4733
40.8646
42.3673
43.9913
45.7475
47.6481
49.7065
51.9374
54.3575
56.9849
59.8403
62.9466
66.3294
70.018
74.0452
78.4486
83.2713
88.5634
94.3833
100.8
107.897
115.777
124.564
134.418
145.542
158.211
172.799
189.837
210.106
234.798
265.831
306.47
362.683
446.344
583.546
837.44
1314.83
2009.04
26.5465
26.9594
27.4011
27.8739
28.3803
28.9231
29.5051
30.1297
30.8001
31.5202
32.294
33.1258
34.0205
34.9832
36.0195
37.1357
38.3385
39.6354
41.0344
42.5444
44.1753
45.9379
47.844
49.907
52.1414
54.5634
57.1912
60.0448
63.1468
66.5226
70.2009
74.2141
78.5994
83.3994
88.6637
94.4505
100.829
107.882
115.712
124.447
134.246
145.314
157.931
172.478
189.495
209.771
234.512
265.634
306.355
362.418
444.816
576.244
803.58
1160.25
1601.29
26.5936
27.0115
27.4584
27.9367
28.4489
28.9977
29.5862
30.2173
30.8946
31.6218
32.4029
33.2422
34.1445
35.1149
36.1591
37.2831
38.4936
39.798
41.2043
42.7213
44.3587
46.1271
48.0383
50.1053
52.3425
54.7659
57.3932
60.2443
63.3414
66.7094
70.3767
74.3752
78.7418
83.5186
88.7549
94.5086
100.849
107.859
115.641
124.324
134.067
145.08
157.644
172.144
189.124
209.376
234.097
265.17
305.698
361.069
441.204
565.39
758.883
1027.69
1311.5
26.6423
27.0652
27.5174
28.0013
28.5193
29.0743
29.6691
30.3068
30.991
31.7252
32.5135
33.3602
34.27
35.248
36.2998
37.4313
38.6493
39.961
41.3743
42.8979
44.5413
46.3151
48.2308
50.3013
52.5406
54.9647
57.5908
60.4386
63.53
66.8895
70.5451
74.5284
78.8757
83.6289
88.8369
94.5575
100.859
107.826
115.561
124.192
133.88
144.836
157.342
171.786
188.709
208.898
233.526
264.414
304.502
358.752
435.935
551.048
710.762
914.588
1099.62
26.6927
27.1206
27.5782
28.0676
28.5916
29.1526
29.7538
30.3981
31.0891
31.8303
32.6258
33.4797
34.3969
35.3823
36.4415
37.5804
38.8055
40.1242
41.5441
43.0738
44.7228
46.5015
48.4211
50.4945
52.7354
55.1594
57.7837
60.6276
63.7125
67.0629
70.7061
74.6735
79.001
83.7302
88.9098
94.5972
100.861
107.785
115.472
124.051
133.682
144.578
157.021
171.395
188.239
208.322
232.783
263.36
302.803
355.62
429.414
532.618
663.121
817.583
941.898
26.7448
27.1778
27.6407
28.1358
28.6656
29.2328
29.8402
30.4912
31.1889
31.937
32.7395
33.6006
34.525
35.5176
36.584
37.7299
38.962
40.2873
41.7134
43.2489
44.903
46.686
48.6091
50.6847
52.9266
55.3499
57.9717
60.8109
63.8888
67.2292
70.8594
74.8104
79.1177
83.8226
88.9734
94.6274
100.853
107.734
115.373
123.899
133.471
144.302
156.673
170.964
187.701
207.635
231.86
262.016
300.644
351.782
421.37
511.11
617.371
734.367
821.395
26.7985
27.2367
27.7049
28.2057
28.7413
29.3146
29.9284
30.5859
31.2902
32.0452
32.8546
33.7228
34.6542
35.6538
36.7271
37.8799
39.1186
40.4501
41.8821
43.4229
45.0817
46.8685
48.7945
50.8718
53.114
55.536
58.1546
60.9884
64.0585
67.3884
71.0051
74.939
79.2255
83.9056
89.0274
94.6476
100.835
107.672
115.263
123.732
133.243
144.004
156.292
170.483
187.088
206.831
230.754
260.39
298.062
347.273
411.254
487.838
574.158
663.283
726.673
26.8538
27.2972
27.7709
28.2773
28.8188
29.3982
30.0183
30.6821
31.3931
32.1548
32.971
33.846
34.7843
35.7908
36.8708
38.0301
39.275
40.6124
42.0499
43.5956
45.2586
47.0487
48.977
51.0554
53.2972
55.7173
58.3321
61.1599
64.2216
67.5403
71.1427
75.0591
79.3244
83.9792
89.0713
94.6574
100.805
107.598
115.138
123.55
132.994
143.678
155.874
169.946
186.393
205.905
229.464
258.492
295.073
341.85
399.084
463.835
533.915
602.526
650.303
26.9108
27.3594
27.8385
28.3505
28.8979
29.4834
30.1097
30.7799
31.4974
32.2657
33.0886
33.9703
34.9152
35.9283
37.0147
38.1802
39.4311
40.7741
42.2166
43.7667
45.4334
47.2264
49.1564
51.2353
53.4762
55.8937
58.504
61.3252
64.3777
67.6847
71.2722
75.1704
79.4139
84.0429
89.1048
94.656
100.764
107.511
114.998
123.349
132.722
143.321
155.412
169.349
185.61
204.851
227.99
256.326
291.631
335.167
385.339
439.832
496.884
550.391
587.415
26.9694
27.4232
27.9077
28.4254
28.9786
29.5701
30.2025
30.8791
31.603
32.3778
33.2072
34.0954
35.0468
36.0662
37.1588
38.3302
39.5867
40.9348
42.3819
43.9361
45.606
47.4013
49.3325
51.4113
53.6507
56.0649
58.6701
61.484
64.5268
67.8213
71.3934
75.2728
79.4938
84.0963
89.1273
94.6426
100.709
107.408
114.84
123.127
132.423
142.929
154.903
168.687
184.735
203.667
226.329
253.878
287.55
327.123
370.553
416.428
463.067
505.379
534.728
27.0296
27.4886
27.9785
28.5018
29.0609
29.6583
30.2968
30.9796
31.7098
32.4909
33.3267
34.2212
35.1788
36.2043
37.3028
38.4798
39.7415
41.0944
42.5458
44.1034
45.7761
47.5731
49.5049
51.5831
53.8203
56.2307
58.8301
61.6361
64.6685
67.9499
71.5059
75.3659
79.5637
84.139
89.1382
94.6166
100.64
107.29
114.664
122.881
132.095
142.499
154.343
167.955
183.764
202.347
224.473
251.083
282.611
317.875
355.276
393.987
432.319
466.242
489.942
27.0913
27.5555
28.0509
28.5798
29.1446
29.7478
30.3924
31.0813
31.8176
32.6049
33.4469
34.3475
35.3111
36.3424
37.4465
38.6288
39.8954
41.2527
42.7078
44.2685
45.9434
47.7416
49.6736
51.7505
53.985
56.3909
58.9839
61.7813
64.8027
68.0703
71.6096
75.4493
79.6233
84.1705
89.1369
94.577
100.556
107.154
114.466
122.61
131.735
142.028
153.729
167.148
182.691
200.885
222.401
247.806
276.707
307.735
339.951
372.709
404.409
431.957
451.386
27.1545
27.6239
28.1247
28.6592
29.2296
29.8387
30.4892
31.1841
31.9264
32.7198
33.5677
34.4742
35.4436
36.4804
37.5898
38.777
40.0481
41.4093
42.8678
44.4312
46.1077
47.9067
49.8382
51.9133
54.1444
56.5453
59.1312
61.9194
64.9291
68.1823
71.704
75.5229
79.6722
84.1903
89.1228
94.5233
100.456
106.999
114.245
122.311
131.34
141.512
153.056
166.264
181.512
199.273
220.049
243.882
269.905
297.077
324.877
352.685
379.077
401.711
417.845
27.2193
27.6939
28.2
28.7399
29.316
29.9308
30.5871
31.2878
32.0361
32.8352
33.6889
34.6011
35.576
36.6181
37.7324
38.9242
40.1994
41.5643
43.0256
44.5911
46.2689
48.068
49.9985
52.0712
54.2984
56.6936
59.2718
62.0501
65.0475
68.2856
71.7891
75.5864
79.71
84.1981
89.0953
94.4545
100.339
106.823
114.001
121.983
130.909
140.949
152.322
165.299
180.223
197.48
217.288
239.236
262.418
286.203
310.246
333.935
356.057
374.854
388.403
27.2854
27.7652
28.2766
28.822
29.4036
30.0241
30.6861
31.3925
32.1464
32.9512
33.8105
34.7281
35.7082
36.7553
37.8742
39.0703
40.3492
41.7172
43.181
44.7482
46.4267
48.2255
50.1543
52.2241
54.4468
56.8357
59.4056
62.1734
65.1577
68.38
71.8646
75.6393
79.7364
84.1933
89.054
94.3701
100.203
106.628
113.732
121.625
130.438
140.337
151.523
164.246
178.8
195.428
214.017
233.93
254.486
275.333
296.176
316.432
335.1
350.862
362.351
27.3529
27.8378
28.3545
28.9052
29.4923
30.1183
30.7859
31.4978
32.2573
33.0676
33.9322
34.855
35.84
36.8918
38.015
39.2149
40.4972
41.8679
43.3338
44.9021
46.5808
48.3788
50.3055
52.3718
54.5893
56.9713
59.5323
62.2889
65.2596
68.4654
71.9302
75.6815
79.7511
84.1756
88.9982
94.2694
100.049
106.41
113.436
121.233
129.927
139.671
150.652
163.091
177.205
193.033
210.203
228.104
246.315
264.619
282.732
300.121
315.976
329.307
339.131
27.4218
27.9117
28.4336
28.9896
29.5821
30.2135
30.8864
31.6038
32.3686
33.1842
34.0539
34.9816
35.9713
37.0274
38.1546
39.358
40.6432
42.0163
43.4837
45.0527
46.7312
48.5277
50.4518
52.514
54.7259
57.1003
59.6518
62.3966
65.3529
68.5414
71.9857
75.7127
79.7536
84.1444
88.9273
94.1515
99.8753
106.168
113.112
120.807
129.37
138.946
149.701
161.814
175.382
190.231
205.892
221.917
238.063
254.165
269.945
284.933
298.482
309.845
318.307
27.4919
27.9869
28.5139
29.0751
29.6728
30.3094
30.9877
31.7103
32.4803
33.3008
34.1754
35.1078
36.1018
37.162
38.2928
39.4993
40.7871
42.162
43.6306
45.1999
46.8776
48.6722
50.5932
52.6507
54.8563
57.2226
59.764
62.4963
65.4375
68.6079
72.0307
75.7325
79.7435
84.0992
88.8405
94.0152
99.6798
105.901
112.756
120.34
128.763
138.155
148.658
160.38
173.268
187.007
201.182
215.51
229.847
244.039
257.821
270.792
282.436
292.19
299.528
27.5632
28.0631
28.5952
29.1615
29.7643
30.4061
31.0894
31.8171
32.592
33.4174
34.2966
35.2333
36.2315
37.2953
38.4294
39.6387
40.9287
42.3051
43.7743
45.3434
47.0198
48.8121
50.7293
52.7816
54.9804
57.338
59.8686
62.5877
65.5131
68.6646
72.0651
75.7404
79.7204
84.0392
88.7368
93.8595
99.4612
105.605
112.367
119.832
128.102
137.291
147.501
158.739
170.819
183.399
196.181
209
221.75
234.281
246.35
257.62
267.682
276.107
282.507
27.6356
28.1404
28.6774
29.2487
29.8565
30.5033
31.1916
31.9242
32.7038
33.5338
34.4174
35.3582
36.3601
37.4273
38.5643
39.776
41.0677
42.4452
43.9147
45.4831
47.1578
48.9471
50.8601
52.9067
55.098
57.4464
59.9655
62.6707
65.5795
68.7113
72.0885
75.7362
79.6835
83.9637
88.6153
93.6828
99.2177
105.28
111.94
119.277
127.382
136.342
146.195
156.843
168.033
179.478
190.992
202.474
213.828
224.913
235.511
245.342
254.081
261.403
267.013
27.7091
28.2187
28.7605
29.3367
29.9494
30.601
31.2941
32.0313
32.8155
33.6498
34.5375
35.4821
36.4875
37.5578
38.6974
39.9111
41.2042
42.5823
44.0516
45.6188
47.2914
49.0773
50.9855
53.0258
55.2091
57.5475
60.0545
62.7452
65.6366
68.7477
72.1004
75.7192
79.6322
83.8718
88.4747
93.4837
98.9475
104.922
111.473
118.672
126.593
135.282
144.699
154.669
164.944
175.324
185.698
195.994
206.121
215.944
225.274
233.88
241.506
247.914
252.867
27.7836
28.2979
28.8444
29.4253
30.0428
30.6991
31.3967
32.1384
32.9269
33.7653
34.6568
35.605
36.6135
37.6865
38.8284
40.0437
41.3378
42.7162
44.1849
45.7505
47.4204
49.2024
51.1053
53.1388
55.3135
57.6414
60.1356
62.811
65.684
68.7735
72.1005
75.6889
79.5659
83.7625
88.3139
93.2607
98.6487
104.53
110.964
118.012
125.72
134.08
142.98
152.22
161.605
171.011
180.365
189.608
198.651
207.371
215.605
223.164
229.855
235.5
239.9
27.859
28.3779
28.929
29.5146
30.1366
30.7974
31.4994
32.2454
33.038
33.8802
34.7753
35.7267
36.7381
37.8135
38.9572
40.1739
41.4686
42.8467
44.3144
45.878
47.5447
49.3223
51.2195
53.2456
55.4111
57.7278
60.2085
62.8677
65.7216
68.7882
72.0882
75.6447
79.4836
83.6348
88.1317
93.0124
98.3198
104.102
110.409
117.285
124.739
132.702
141.023
149.526
158.077
166.6
175.043
183.349
191.434
199.189
206.473
213.134
219.036
224.039
227.969
27.9352
28.4586
29.0142
29.6042
30.2307
30.8958
31.6021
32.3521
33.1485
33.9944
34.8928
35.8471
36.8611