/*--------------------------------*- C++ -*----------------------------------*\
  =========                 |
  \\      /  F ield         | OpenFOAM: The Open Source CFD Toolbox
   \\    /   O peration     | Website:  https://openfoam.org
    \\  /    A nd           | Version:  10
     \\/     M anipulation  |
\*---------------------------------------------------------------------------*/
FoamFile
{
    format      ascii;
    class       volScalarField;
    location    "24000";
    object      yPlus;
}
// * * * * * * * * * * * * * * * * * * * * * * * * * * * * * * * * * * * * * //

dimensions      [0 0 0 0 0 0 0];

internalField   uniform 0;

boundaryField
{
    right
    {
        type            cyclic;
    }
    left
    {
        type            cyclic;
    }
    outerWall
    {
        type            calculated;
        value           nonuniform List<scalar> 0();
    }
    stirrerWall
    {
        type            calculated;
        value           nonuniform List<scalar> 
98
(
0.919625
0.885897
0.853488
0.822671
0.793731
0.76698
0.742756
0.721454
0.703562
0.690148
0.696055
0.717586
0.751942
0.802387
0.872652
0.968488
1.12143
1.46206
2.73258
7.23317
13.7196
11.2909
8.87938
7.88756
7.67487
7.52923
7.37962
7.2363
7.10509
6.98847
6.88623
6.79905
6.72579
6.66521
6.61578
6.576
6.54456
6.52031
6.50232
6.48986
6.48235
6.47933
6.48049
6.48556
6.49441
6.50693
6.52309
6.54288
6.56636
6.5936
6.62473
6.65987
6.69912
6.74258
6.79014
6.84152
6.89532
6.94976
6.99434
6.93616
12.8796
13.0593
13.2417
13.427
13.6154
13.8071
14.0022
14.2011
14.404
14.6111
14.8229
15.0396
15.2617
15.4898
15.7244
15.9658
16.2151
16.4729
16.7402
17.0187
17.3101
17.6164
17.9368
18.2694
18.6204
18.9947
19.419
19.864
20.3403
20.8555
21.428
22.0824
22.8256
23.6573
24.6291
25.7701
26.9528
28.5399
)
;
    }
    top
    {
        type            empty;
    }
    bottom
    {
        type            empty;
    }
    procBoundary0to1
    {
        type            processor;
        value           uniform 0;
    }
    procBoundary0to3
    {
        type            processor;
        value           uniform 0;
    }
}


// ************************************************************************* //
