/*--------------------------------*- C++ -*----------------------------------*\
  =========                 |
  \\      /  F ield         | OpenFOAM: The Open Source CFD Toolbox
   \\    /   O peration     | Website:  https://openfoam.org
    \\  /    A nd           | Version:  10
     \\/     M anipulation  |
\*---------------------------------------------------------------------------*/
FoamFile
{
    format      ascii;
    class       volScalarField;
    location    "17000";
    object      k;
}
// * * * * * * * * * * * * * * * * * * * * * * * * * * * * * * * * * * * * * //

dimensions      [0 2 -2 0 0 0 0];

internalField   nonuniform List<scalar> 
17969
(
1.28332e-05
0.000340992
0.000860163
0.00141664
0.00180914
0.00204531
0.00217565
0.00226809
0.00237573
0.00252799
0.00272113
0.00294202
0.00317738
0.00341729
0.00365556
0.0038888
0.00411546
0.00433503
0.00454759
0.00475353
0.00495337
0.00514764
0.00533689
0.00552161
0.00570228
0.00587928
0.00605298
0.00622368
0.00639165
0.00655711
0.00672025
0.00688122
0.00704014
0.00719712
0.00735223
0.00750551
0.007657
0.00780673
0.00795468
0.00810085
0.00824522
0.00838775
0.00852839
0.0086671
0.00880381
0.00893846
0.00907098
0.0092013
0.00932933
0.00945499
0.00957819
0.00969883
0.00981683
0.00993209
0.0100445
0.010154
0.0102604
0.0103638
0.0104638
0.0105606
0.010654
0.0107438
0.0108302
0.010913
0.0109922
0.0110679
0.0111402
0.0112091
0.011275
0.0113383
0.0113993
0.0114589
0.011518
0.0115779
0.0116394
0.011703
0.0117699
0.0118422
0.0119219
0.0120104
0.0121097
0.0122215
0.0123474
0.0124891
0.0126482
0.0128262
0.0130238
0.0132395
0.0134716
0.0137196
0.0139836
0.0142633
0.0145587
0.0148694
0.015195
0.0155345
0.0158872
0.0162518
0.0166272
0.017012
9.55825e-06
0.00025809
0.000678683
0.00122035
0.00166685
0.00198218
0.00217704
0.0022869
0.00236579
0.00245338
0.00257928
0.00274407
0.00293891
0.00315276
0.00337613
0.00360222
0.0038267
0.00404712
0.00426225
0.00447164
0.00467526
0.00487334
0.00506623
0.00525432
0.00543803
0.00561773
0.00579377
0.00596649
0.00613616
0.00630303
0.00646731
0.00662918
0.00678879
0.00694625
0.00710167
0.00725512
0.00740665
0.00755629
0.00770405
0.00784995
0.00799395
0.00813605
0.00827619
0.00841434
0.00855044
0.00868442
0.00881622
0.00894575
0.00907293
0.00919767
0.00931987
0.00943945
0.00955628
0.00967027
0.00978131
0.00988928
0.00999407
0.0100956
0.0101937
0.0102882
0.0103792
0.0104664
0.0105498
0.0106293
0.010705
0.0107767
0.0108445
0.0109086
0.0109691
0.0110263
0.0110807
0.0111328
0.0111835
0.011234
0.0112852
0.0113377
0.0113929
0.011453
0.01152
0.0115955
0.0116814
0.0117795
0.0118917
0.0120197
0.0121653
0.0123305
0.0125156
0.012719
0.0129392
0.0131762
0.0134301
0.0137013
0.0139899
0.0142957
0.0146183
0.0149569
0.0153106
0.0156783
0.0160585
0.0164499
7.12216e-06
0.000193596
0.000530988
0.00101593
0.0014691
0.00183587
0.00211109
0.00228724
0.00238836
0.00245687
0.0025272
0.00262654
0.00276203
0.00292907
0.00311925
0.00332396
0.00353607
0.00375047
0.00396377
0.00417397
0.00437995
0.00458123
0.00477768
0.00496941
0.00515663
0.00533962
0.00551869
0.00569412
0.00586619
0.00603516
0.00620125
0.00636466
0.00652556
0.0066841
0.00684038
0.00699452
0.00714656
0.00729658
0.00744459
0.00759062
0.00773467
0.00787672
0.00801673
0.00815469
0.00829052
0.00842418
0.00855559
0.00868468
0.00881136
0.00893555
0.00905713
0.00917601
0.00929207
0.00940521
0.00951529
0.0096222
0.00972581
0.00982599
0.00992261
0.0100155
0.0101046
0.0101898
0.0102709
0.0103479
0.0104207
0.0104892
0.0105535
0.0106135
0.0106695
0.0107216
0.0107702
0.0108159
0.0108592
0.0109015
0.0109433
0.0109857
0.0110302
0.0110788
0.0111336
0.0111966
0.0112693
0.0113538
0.0114519
0.0115656
0.011697
0.0118479
0.012019
0.0122087
0.0124155
0.0126398
0.012882
0.0131429
0.0134227
0.0137216
0.0140392
0.014375
0.0147281
0.0150971
0.0154808
0.0158776
5.44093e-06
0.000147228
0.000418602
0.00083807
0.00125636
0.00163101
0.00195221
0.00220695
0.00237898
0.00248073
0.00254441
0.00260211
0.00267665
0.00278288
0.00292075
0.00308489
0.00326815
0.00346366
0.00366576
0.00387026
0.00407431
0.0042761
0.00447457
0.00466917
0.00485968
0.0050461
0.00522854
0.00540719
0.00558224
0.00575394
0.00592248
0.00608807
0.00625088
0.00641109
0.00656882
0.00672418
0.00687727
0.00702815
0.00717688
0.00732349
0.00746799
0.00761039
0.00775066
0.00788879
0.00802472
0.0081584
0.00828978
0.00841877
0.0085453
0.00866927
0.00879058
0.00890913
0.00902479
0.00913745
0.00924698
0.00935325
0.00945612
0.00955544
0.00965107
0.00974287
0.0098307
0.0099144
0.00999384
0.0100689
0.0101395
0.0102055
0.010267
0.0103238
0.0103761
0.010424
0.0104678
0.0105079
0.0105451
0.01058
0.0106137
0.010647
0.0106817
0.0107197
0.0107632
0.0108141
0.0108742
0.0109452
0.0110294
0.0111286
0.0112449
0.0113807
0.0115369
0.0117118
0.011904
0.0121142
0.0123431
0.0125918
0.0128609
0.0131509
0.0134615
0.0137924
0.0141427
0.0145113
0.0148968
0.0152977
0.0157122
0.0161385
0.0165747
0.017019
4.29464e-06
0.000116129
0.000334906
0.000697311
0.00106104
0.00140834
0.00173336
0.00202748
0.00227436
0.00245244
0.00256323
0.00262915
0.00267914
0.00273418
0.00281285
0.00292119
0.00305735
0.0032163
0.00339204
0.00357888
0.00377207
0.00396802
0.00416417
0.00435882
0.0045509
0.0047398
0.00492522
0.00510704
0.0052853
0.0054601
0.00563157
0.00579988
0.00596518
0.00612763
0.00628737
0.00644452
0.00659918
0.00675144
0.00690138
0.00704903
0.00719444
0.0073376
0.00747854
0.00761722
0.00775362
0.00788769
0.00801938
0.00814862
0.00827533
0.00839943
0.00852081
0.00863936
0.00875498
0.00886753
0.00897688
0.0090829
0.00918542
0.00928432
0.00937941
0.00947056
0.00955759
0.00964034
0.00971866
0.00979241
0.00986144
0.00992565
0.00998495
0.0100393
0.0100887
0.0101333
0.0101732
0.0102088
0.0102406
0.0102694
0.010296
0.0103214
0.0103472
0.0103757
0.0104087
0.0104484
0.0104963
0.0105545
0.0106249
0.0107096
0.0108108
0.0109308
0.0110713
0.0112308
0.0114076
0.0116026
0.0118169
0.0120518
0.0123084
0.0125873
0.0128886
0.0132121
0.0135572
0.0139227
0.0143075
0.0147105
0.0151301
0.0155633
0.0160078
0.016462
3.46135e-06
9.36809e-05
0.000272412
0.000587104
0.000904368
0.00120428
0.00150273
0.00179364
0.00206908
0.00231444
0.00250467
0.00263144
0.00270733
0.00275591
0.00280033
0.00285551
0.00293558
0.0030429
0.00317523
0.00332809
0.00349635
0.00367514
0.00386034
0.00404873
0.00423794
0.00442632
0.00461278
0.00479664
0.00497752
0.00515522
0.0053297
0.00550098
0.00566914
0.00583428
0.00599651
0.00615595
0.0063127
0.00646685
0.00661848
0.00676765
0.00691441
0.00705879
0.0072008
0.00734043
0.00747768
0.0076125
0.00774486
0.0078747
0.00800193
0.00812649
0.00824827
0.00836718
0.00848309
0.00859587
0.0087054
0.00881152
0.00891409
0.00901295
0.00910792
0.00919884
0.00928554
0.00936783
0.00944554
0.0095185
0.00958655
0.00964955
0.00970737
0.00975994
0.00980721
0.00984922
0.00988608
0.00991806
0.00994556
0.00996923
0.00998975
0.0100082
0.0100264
0.0100463
0.0100698
0.0100992
0.0101358
0.0101817
0.010239
0.0103095
0.0103957
0.0104998
0.0106241
0.0107677
0.0109287
0.0111078
0.0113064
0.0115262
0.0117685
0.0120344
0.0123242
0.012638
0.0129752
0.0133351
0.0137167
0.0141193
0.0145415
0.0149802
0.0154321
0.0158951
2.80932e-06
7.63263e-05
0.000224756
0.000494713
0.000774449
0.00103319
0.00128956
0.00155371
0.0018194
0.00208085
0.00232623
0.00253103
0.00267919
0.00277292
0.00282893
0.00286873
0.00290993
0.00296572
0.00304536
0.00315008
0.00327767
0.00342423
0.00358532
0.00375668
0.00393462
0.0041162
0.00429915
0.00448188
0.00466324
0.00484251
0.00501921
0.0051931
0.00536404
0.005532
0.005697
0.00585908
0.00601832
0.00617479
0.00632857
0.00647971
0.00662827
0.00677429
0.00691779
0.00705878
0.00719727
0.00733322
0.00746661
0.00759739
0.0077255
0.00785085
0.00797337
0.00809295
0.00820948
0.00832283
0.00843287
0.00853945
0.00864242
0.0087416
0.00883684
0.00892793
0.00901471
0.00909698
0.00917454
0.00924721
0.0093148
0.00937714
0.00943408
0.0094855
0.00953131
0.00957148
0.00960608
0.00963526
0.00965933
0.00967883
0.00969434
0.00970698
0.0097185
0.00973087
0.00974603
0.00976596
0.00979225
0.00982681
0.0098716
0.00992872
0.0100003
0.0100888
0.0101965
0.0103241
0.0104692
0.010632
0.0108142
0.0110178
0.0112445
0.0114957
0.011772
0.012074
0.0124013
0.0127534
0.0131295
0.0135287
0.0139503
0.0143914
0.0148487
0.0153192
0.0158012
2.27233e-06
6.20965e-05
0.000186022
0.000419608
0.000667064
0.000892482
0.00111122
0.00133608
0.00157395
0.00181918
0.00206797
0.00231133
0.00252935
0.00270104
0.00281908
0.00289161
0.00293607
0.0029713
0.00301065
0.00306607
0.00314401
0.0032452
0.00336766
0.003508
0.0036623
0.00382677
0.00399804
0.00417336
0.00435058
0.00452808
0.00470471
0.00487967
0.00505245
0.0052227
0.00539023
0.00555496
0.00571684
0.00587589
0.00603213
0.00618561
0.00633636
0.00648441
0.00662981
0.00677256
0.00691267
0.00705013
0.00718491
0.00731699
0.00744631
0.0075728
0.00769638
0.00781696
0.00793443
0.00804867
0.00815955
0.00826692
0.00837061
0.00847048
0.00856633
0.00865797
0.00874522
0.00882786
0.0089057
0.00897852
0.00904612
0.00910832
0.00916491
0.00921575
0.00926071
0.00929972
0.00933275
0.00935991
0.00938141
0.00939764
0.00940911
0.00941693
0.00942284
0.00942874
0.00943651
0.00944809
0.00946505
0.00948923
0.00952254
0.00956702
0.00962481
0.00969821
0.00978966
0.00990095
0.0100302
0.0101767
0.0103421
0.0105288
0.0107388
0.0109738
0.011235
0.011523
0.0118382
0.0121803
0.0125487
0.0129424
0.0133604
0.0138009
0.0142604
0.0147363
0.0152266
0.0157288
0.0162404
1.81442e-06
4.99548e-05
0.000152984
0.000356127
0.000575608
0.000774952
0.000964044
0.00115486
0.00135552
0.00157181
0.00179941
0.00203499
0.0022729
0.00249987
0.00269364
0.00283944
0.00293629
0.00299515
0.00303263
0.00306507
0.00310292
0.00315731
0.00323288
0.00333018
0.00344748
0.00358184
0.00372979
0.00388788
0.00405299
0.00422252
0.00439437
0.00456697
0.00473911
0.00490996
0.00507893
0.00524563
0.0054098
0.0055713
0.00573006
0.00588603
0.0060392
0.00618959
0.0063372
0.00648205
0.00662413
0.00676345
0.00689999
0.00703371
0.00716458
0.00729253
0.00741751
0.00753941
0.00765814
0.00777359
0.00788562
0.00799409
0.00809884
0.00819971
0.0082965
0.00838904
0.00847711
0.0085605
0.008639
0.00871238
0.00878043
0.00884293
0.00889966
0.00895044
0.00899511
0.00903354
0.00906566
0.0090915
0.00911118
0.00912499
0.00913333
0.0091373
0.00913859
0.00913902
0.00914042
0.00914462
0.00915339
0.00916828
0.00919116
0.00922401
0.0092689
0.00932807
0.00940389
0.00949883
0.00961252
0.00974296
0.00989171
0.0100611
0.0102536
0.0104712
0.0107155
0.0109876
0.0112882
0.0116174
0.0119749
0.01236
0.0127719
0.0132097
0.0136707
0.0141509
0.0146473
0.0151576
0.0156797
0.0162107
1.4151e-06
3.92928e-05
0.000123375
0.000298644
0.000494544
0.000671402
0.0008374
0.00100185
0.00117213
0.00135376
0.00155158
0.00176344
0.00198537
0.00221465
0.00244474
0.0026558
0.00282892
0.00295503
0.00303697
0.00308674
0.0031198
0.00315041
0.00318699
0.00324005
0.00331303
0.00340644
0.00351882
0.0036476
0.00378969
0.00394189
0.00410129
0.00426541
0.00443223
0.00460014
0.00476796
0.0049348
0.00510001
0.00526316
0.00542395
0.00558218
0.00573773
0.00589052
0.00604051
0.00618768
0.006332
0.00647347
0.00661206
0.00674774
0.00688048
0.00701022
0.0071369
0.00726044
0.00738074
0.0074977
0.00761119
0.00772107
0.00782718
0.00792936
0.00802742
0.00812117
0.00821039
0.00829487
0.00837439
0.00844871
0.00851759
0.00858079
0.0086381
0.00868928
0.00873415
0.00877254
0.00880434
0.00882949
0.00884805
0.0088602
0.00886626
0.00886726
0.00886487
0.00886084
0.00885691
0.00885485
0.00885646
0.00886313
0.00887667
0.00889899
0.00893208
0.0089781
0.00903936
0.00911832
0.00921645
0.00933158
0.00946396
0.00961608
0.00979066
0.0099901
0.0102164
0.0104709
0.0107549
0.0110689
0.0114131
0.0117869
0.0121898
0.0126211
0.0130796
0.0135617
0.0140632
0.0145805
0.0151115
0.0156539
0.0162047
0.0167612
1.0689e-06
2.99425e-05
9.63748e-05
0.000244065
0.00041766
0.000574661
0.0007213
0.00086462
0.00101106
0.0011654
0.00133162
0.00151349
0.00171102
0.00192023
0.0021402
0.00236763
0.00258903
0.00278524
0.00294149
0.00305273
0.00312401
0.00316755
0.00319763
0.00322672
0.00326276
0.00331465
0.0033853
0.00347518
0.00358307
0.00370676
0.00384347
0.00399024
0.00414434
0.00430338
0.00446538
0.00462879
0.00479239
0.00495525
0.00511671
0.00527627
0.00543361
0.00558847
0.00574069
0.00589017
0.00603683
0.0061806
0.00632146
0.00645935
0.00659422
0.00672603
0.0068547
0.00698016
0.00710233
0.0072211
0.00733634
0.00744791
0.00755568
0.00765947
0.00775909
0.00785435
0.00794504
0.00803093
0.00811179
0.00818737
0.00825743
0.00832172
0.00837999
0.00843199
0.00847751
0.00851634
0.00854832
0.00857335
0.00859142
0.00860261
0.00860715
0.00860601
0.00860082
0.00859325
0.00858499
0.00857772
0.00857319
0.00857273
0.00857805
0.00859097
0.00861341
0.00864742
0.00869519
0.00875899
0.00884132
0.00894183
0.00905877
0.00919426
0.00935102
0.00953188
0.00973925
0.0099751
0.010241
0.0105379
0.0108665
0.0112268
0.0116184
0.0120405
0.0124924
0.012972
0.0134753
0.013998
0.0145365
0.0150888
0.0156519
0.0162228
0.0167984
0.017376
0.0179531
0.0185275
7.77775e-07
2.1975e-05
7.22474e-05
0.000192067
0.000342726
0.000480914
0.00060932
0.000734816
0.000861832
0.000994541
0.00113631
0.00129021
0.00145936
0.00164518
0.00184318
0.00205208
0.00227211
0.00249703
0.00270976
0.00289314
0.00303588
0.00313573
0.00319921
0.00323853
0.00326694
0.0032952
0.00333114
0.00338217
0.00345084
0.00353761
0.00364148
0.00376054
0.00389228
0.00403401
0.00418313
0.00433734
0.00449473
0.00465375
0.00481318
0.00497208
0.00512975
0.00528566
0.00543945
0.00559082
0.00573958
0.00588559
0.00602874
0.00616894
0.00630611
0.00644018
0.00657107
0.00669871
0.006823
0.00694383
0.0070611
0.00717465
0.00728435
0.00739002
0.00749149
0.00758855
0.00768098
0.00776857
0.00785108
0.00792824
0.0079998
0.00806551
0.00812508
0.00817827
0.00822483
0.00826452
0.00829715
0.00832257
0.00834069
0.00835154
0.00835524
0.00835271
0.00834552
0.00833528
0.0083236
0.00831211
0.00830247
0.00829594
0.00829417
0.00829886
0.00831182
0.00833495
0.00837032
0.00842014
0.00848676
0.00857221
0.00867493
0.00879471
0.00893432
0.00909679
0.00928502
0.00950143
0.00974802
0.0100264
0.0103375
0.0106821
0.0110602
0.0114709
0.0119135
0.0123866
0.0128876
0.0134121
0.013956
0.0145163
0.0150902
0.0156741
0.0162649
0.0168593
0.0174545
0.018048
5.43573e-07
1.54821e-05
5.1691e-05
0.000144119
0.000270482
0.000389871
0.000501094
0.000609601
0.000719808
0.000834324
0.000956102
0.00108778
0.001232
0.0013913
0.00156693
0.00175547
0.00195462
0.00216448
0.00238549
0.00260744
0.00281201
0.00298441
0.0031161
0.00320704
0.00326483
0.00330141
0.00332905
0.00335705
0.00339318
0.00344362
0.00351065
0.00359469
0.00369496
0.00380978
0.00393692
0.00407391
0.00421831
0.00436791
0.00452083
0.00467556
0.00483087
0.00498581
0.00513965
0.00529184
0.00544197
0.00558973
0.00573488
0.00587725
0.00601669
0.00615308
0.00628632
0.00641629
0.0065429
0.00666602
0.00678554
0.00690131
0.00701319
0.00712101
0.00722457
0.00732369
0.00741815
0.00750771
0.00759213
0.00767115
0.00774451
0.00781193
0.00787313
0.00792784
0.00797578
0.00801671
0.00805039
0.00807664
0.00809531
0.00810637
0.00810985
0.00810659
0.00809813
0.00808599
0.00807173
0.00805691
0.00804311
0.00803158
0.00802381
0.00802139
0.00802602
0.00803948
0.00806371
0.00810081
0.00815307
0.00822301
0.00831154
0.00841683
0.00854028
0.008685
0.00885423
0.0090509
0.00927745
0.00953594
0.00982799
0.0101547
0.0105167
0.0109138
0.0113452
0.0118093
0.0123041
0.0128266
0.0133726
0.0139388
0.0145215
0.0151171
0.0157218
0.0163321
0.0169449
0.0175572
3.64563e-07
1.04492e-05
3.51502e-05
0.00010224
0.000203565
0.000304279
0.000399293
0.000492103
0.000586271
0.000684719
0.000789228
0.000902044
0.00102556
0.00116229
0.00131344
0.00147937
0.00165975
0.00185141
0.00205321
0.00226509
0.00248651
0.00270442
0.00290099
0.00306352
0.00318578
0.00326948
0.00332293
0.00335767
0.00338503
0.00341309
0.00344959
0.00349966
0.00356533
0.003647
0.00374401
0.00385494
0.0039778
0.00411033
0.00425024
0.00439541
0.00454403
0.00469456
0.0048458
0.00499678
0.00514677
0.00529517
0.00544155
0.00558556
0.00572694
0.00586547
0.00600098
0.00613331
0.00626231
0.00638785
0.00650979
0.00662797
0.00674223
0.00685241
0.00695831
0.00705973
0.00715645
0.00724822
0.00733482
0.00741596
0.00749137
0.00756078
0.00762389
0.00768041
0.00773006
0.00777256
0.00780765
0.00783511
0.00785476
0.00786651
0.00787031
0.00786692
0.00785783
0.00784451
0.00782843
0.00781108
0.00779392
0.00777843
0.00776571
0.00775728
0.00775475
0.00775979
0.00777423
0.00780003
0.00783934
0.00789454
0.00796822
0.00805996
0.00816842
0.00829637
0.00844717
0.00862417
0.00883031
0.00906809
0.00933962
0.00964659
0.00999012
0.0103707
0.0107879
0.0112407
0.0117272
0.0122446
0.0127898
0.0133589
0.0139481
0.0145532
0.0151702
0.0157952
0.0164246
0.0170551
2.38828e-07
6.85453e-06
2.29321e-05
6.87827e-05
0.000145811
0.000228251
0.000308094
0.000386659
0.000466433
0.000549669
0.000638455
0.000734389
0.000839338
0.000955701
0.0010849
0.00122723
0.00138377
0.00155631
0.0017416
0.00193736
0.00214251
0.00235731
0.00257842
0.00279145
0.00298002
0.00313333
0.00324719
0.00332471
0.00337464
0.00340804
0.00343538
0.00346365
0.00350064
0.00355049
0.003615
0.00369458
0.00378871
0.00389613
0.00401506
0.00414343
0.00427909
0.00442004
0.00456449
0.00471095
0.00485819
0.00500525
0.00515135
0.0052959
0.00543843
0.00557855
0.00571597
0.00585044
0.00598175
0.00610969
0.0062341
0.00635479
0.00647159
0.00658429
0.00669271
0.00679662
0.00689581
0.00699003
0.00707902
0.00716251
0.00724022
0.00731186
0.00737713
0.00743573
0.00748736
0.00753172
0.00756854
0.00759756
0.00761858
0.00763143
0.00763602
0.00763304
0.0076239
0.00761003
0.00759284
0.00757374
0.00755414
0.00753548
0.00751875
0.00750536
0.00749682
0.0074947
0.00750068
0.00751661
0.0075445
0.0075866
0.00764537
0.00772298
0.00781795
0.00793039
0.00806374
0.00822162
0.00840741
0.00862407
0.00887416
0.0091599
0.00948299
0.00984451
0.0102448
0.0106833
0.0111585
0.0116683
0.0122096
0.0127786
0.0133714
0.0139837
0.014611
0.0152492
0.0158941
0.016542
0.0171895
1.59973e-07
4.56365e-06
1.49331e-05
4.52806e-05
0.000101152
0.000166342
0.000232099
0.000297777
0.000364749
0.000434582
0.000508856
0.000589281
0.000677295
0.000774921
0.000883846
0.00100445
0.00113782
0.00128578
0.00144992
0.00162887
0.00181876
0.00201798
0.00222578
0.00244284
0.00266278
0.0028702
0.00305061
0.00319509
0.00330123
0.00337325
0.00342017
0.00345251
0.00347992
0.00350849
0.00354603
0.00359582
0.00365947
0.00373735
0.00382902
0.00393335
0.00404874
0.00417327
0.00430497
0.00444191
0.00458238
0.00472488
0.00486821
0.00501137
0.00515358
0.00529421
0.00543276
0.00556882
0.00570205
0.00583218
0.00595895
0.00608212
0.00620147
0.00631678
0.00642783
0.00653439
0.00663622
0.00673305
0.00682463
0.00691068
0.0069909
0.00706499
0.00713265
0.00719357
0.00724742
0.00729391
0.00733273
0.00736362
0.00738633
0.00740067
0.00740647
0.00740435
0.00739566
0.0073818
0.00736411
0.00734395
0.00732268
0.00730166
0.00728182
0.00726447
0.00725101
0.0072429
0.00724172
0.00724918
0.00726714
0.00729769
0.00734317
0.00740622
0.00748783
0.00758628
0.00770347
0.00784316
0.00800911
0.0082047
0.00843295
0.00869652
0.0089977
0.0093382
0.00971903
0.0101403
0.0106013
0.0111001
0.0116342
0.0122
0.0127934
0.0134101
0.0140454
0.0146946
0.0153533
0.0160173
0.0166828
1.16142e-07
3.27216e-06
1.03409e-05
3.1031e-05
7.12731e-05
0.000121722
0.000174914
0.000229111
0.000284789
0.000342894
0.000404515
0.000470923
0.00054345
0.000623656
0.00071357
0.000813725
0.000924774
0.00104881
0.00118751
0.00134229
0.00151383
0.00169782
0.0018919
0.00209392
0.00230367
0.00252241
0.00274019
0.00294123
0.00311328
0.00324916
0.00334801
0.00341493
0.00345902
0.00349025
0.00351732
0.0035469
0.00358531
0.00363542
0.00369857
0.00377517
0.00386484
0.00396656
0.00407884
0.00419993
0.00432798
0.00446117
0.00459783
0.00473652
0.004876
0.00501528
0.00515355
0.00529016
0.00542457
0.00555633
0.00568509
0.00581051
0.0059323
0.00605018
0.00616388
0.00627315
0.00637771
0.00647729
0.00657161
0.00666038
0.00674329
0.00682003
0.00689028
0.00695372
0.00701003
0.00705887
0.00709995
0.00713298
0.00715767
0.00717383
0.0071812
0.00718033
0.00717253
0.00715915
0.0071415
0.00712089
0.0070986
0.00707596
0.00705385
0.00703347
0.00701611
0.00700314
0.00699601
0.0069963
0.00700574
0.00702625
0.00705999
0.00710937
0.00717712
0.00726282
0.00736539
0.00748821
0.00763524
0.00781029
0.00801676
0.00825775
0.00853605
0.008854
0.0092133
0.00961482
0.0100585
0.0105431
0.0110666
0.0116257
0.0122165
0.0128346
0.0134751
0.014133
0.0148035
0.015482
0.0161641
9.46558e-08
2.62887e-06
8.01678e-06
2.35474e-05
5.42991e-05
9.42153e-05
0.000137427
0.00018205
0.00022813
0.000276229
0.000327054
0.000381516
0.00044035
0.000505005
0.000577382
0.000658729
0.000749237
0.000850363
0.000964337
0.00109293
0.00123761
0.0013998
0.00157688
0.00176472
0.00196148
0.00216596
0.0023783
0.00259709
0.00281098
0.00300497
0.00316839
0.00329566
0.00338731
0.00344924
0.00349066
0.00352115
0.00354821
0.00357907
0.00361858
0.00366923
0.00373227
0.00380806
0.00389625
0.00399586
0.00410553
0.00422361
0.00434835
0.00447804
0.00461107
0.00474603
0.00488171
0.00501707
0.0051513
0.00528371
0.00541373
0.00554088
0.00566475
0.00578497
0.00590121
0.00601314
0.00612045
0.00622284
0.00631999
0.0064116
0.00649733
0.00657688
0.0066499
0.00671605
0.00677501
0.00682643
0.00687
0.0069054
0.00693234
0.00695059
0.00695983
0.00696054
0.006954
0.00694153
0.0069244
0.00690385
0.0068811
0.00685738
0.00683385
0.00681131
0.006791
0.00677419
0.00676223
0.00675659
0.00675887
0.00677081
0.00679441
0.00683191
0.00688585
0.00695844
0.00704821
0.00715577
0.0072852
0.00744062
0.00762583
0.00784432
0.0080993
0.00839368
0.00872983
0.00910939
0.00953304
0.0100004
0.0105099
0.0110588
0.0116436
0.0122598
0.0129025
0.0135664
0.0142464
0.0149374
0.0156346
0.0163337
8.59746e-08
2.35882e-06
7.0028e-06
2.01654e-05
4.62331e-05
8.01794e-05
0.000116888
0.000154616
0.000193315
0.000233481
0.000275434
0.000319821
0.000367411
0.00041917
0.000476392
0.000540871
0.000613416
0.000694229
0.000785099
0.000888342
0.0010059
0.00113948
0.00129051
0.00145891
0.00163965
0.00183065
0.00202967
0.00223606
0.00245018
0.00266764
0.00287627
0.00306227
0.00321642
0.00333474
0.00341909
0.00347625
0.00351531
0.0035453
0.00357263
0.00360496
0.00364587
0.00369744
0.0037608
0.00383629
0.00392353
0.00402158
0.00412913
0.00424461
0.00436638
0.0044928
0.00462235
0.00475363
0.00488544
0.00501677
0.00514675
0.00527467
0.00539993
0.005522
0.00564043
0.0057548
0.00586475
0.00596989
0.00606989
0.0061644
0.00625306
0.00633554
0.00641147
0.00648051
0.00654231
0.0065965
0.00664275
0.00668073
0.00671014
0.0067307
0.00674208
0.00674467
0.00673972
0.00672851
0.0067123
0.00669228
0.00666962
0.00664551
0.00662112
0.00659713
0.00657469
0.00655496
0.0065392
0.00652877
0.00652511
0.00652986
0.00654482
0.00657205
0.0066139
0.0066731
0.00675055
0.00684463
0.00695804
0.00709508
0.00725993
0.00745641
0.00768812
0.00795844
0.00827036
0.00862623
0.00902757
0.0094748
0.00996713
0.0105025
0.0110777
0.0116886
0.0123302
0.0129972
0.0136839
0.014385
0.0150952
0.0158097
8.46884e-08
2.30168e-06
6.7195e-06
1.90742e-05
4.34684e-05
7.49222e-05
0.00010834
0.000142074
0.000175788
0.000210017
0.000245287
0.000282124
0.0003211
0.00036289
0.000408355
0.000458654
0.000515411
0.000579475
0.000651042
0.000731681
0.000823851
0.00092968
0.00105109
0.00118972
0.00134715
0.00151969
0.00170374
0.00189723
0.00209813
0.00230601
0.00252085
0.00273545
0.00293733
0.00311402
0.00325793
0.00336675
0.00344368
0.00349605
0.00353268
0.00356178
0.00359064
0.00362489
0.00366751
0.00372042
0.00378463
0.00386036
0.0039472
0.0040442
0.00415008
0.00426336
0.00438244
0.00450578
0.00463191
0.00475946
0.00488727
0.0050143
0.00513969
0.00526267
0.00538261
0.00549896
0.00561121
0.00571891
0.00582165
0.00591903
0.00601065
0.00609614
0.00617512
0.0062472
0.00631199
0.00636911
0.0064182
0.00645892
0.00649097
0.00651406
0.00652779
0.0065325
0.0065294
0.00651977
0.00650482
0.00648572
0.00646362
0.00643963
0.00641492
0.00639013
0.00636628
0.00634446
0.00632583
0.00631161
0.00630317
0.00630196
0.00630966
0.00632811
0.00635945
0.00640613
0.00647093
0.00655322
0.00665238
0.0067726
0.00691832
0.00709369
0.00730262
0.00754888
0.00783598
0.00816697
0.00854416
0.00896885
0.00944111
0.00995965
0.0105219
0.0111239
0.0117611
0.0124279
0.0131186
0.0138273
0.0145483
0.0152763
8.83356e-08
2.38292e-06
6.89293e-06
1.93532e-05
4.38473e-05
7.49722e-05
0.000107187
0.000138715
0.000169614
0.00020028
0.000231183
0.000262797
0.000295613
0.000330161
0.000367054
0.000407055
0.000451172
0.000500799
0.000557122
0.000620316
0.000691372
0.000772825
0.000866979
0.000976037
0.00110201
0.00124669
0.00140907
0.00158451
0.00177104
0.00196613
0.00216851
0.00237768
0.00259172
0.00280168
0.00299498
0.0031608
0.00329337
0.00339205
0.00346128
0.00350891
0.00354368
0.00357252
0.0036032
0.00363961
0.00368434
0.00373904
0.00380456
0.00388104
0.00396796
0.00406437
0.00416898
0.00428036
0.00439696
0.00451731
0.00463996
0.00476362
0.00488712
0.00500945
0.0051297
0.00524711
0.00536101
0.00547081
0.005576
0.00567608
0.00577059
0.00585914
0.00594123
0.00601641
0.00608427
0.0061444
0.00619644
0.00624003
0.00627486
0.00630063
0.00631689
0.00632392
0.00632289
0.00631509
0.00630169
0.00628385
0.00626266
0.0062392
0.00621458
0.0061896
0.00616501
0.00614183
0.00612114
0.00610407
0.00609185
0.00608583
0.00608753
0.00609862
0.00612105
0.00615706
0.00620925
0.00627961
0.00636659
0.00647184
0.00659994
0.00675538
0.00694237
0.00716499
0.00742718
0.00773259
0.00808428
0.00848443
0.00893403
0.00943269
0.00997855
0.0105684
0.0111977
0.0118611
0.0125527
0.0132663
0.0139958
0.0147354
9.60339e-08
2.5749e-06
7.42121e-06
2.06264e-05
4.63469e-05
7.79878e-05
0.000110091
0.000140993
0.000170624
0.000199346
0.000227607
0.00025586
0.000284548
0.000314119
0.000345051
0.000377895
0.000413315
0.000452172
0.000495629
0.000545147
0.000601013
0.00066368
0.00073538
0.000818533
0.000915517
0.0010286
0.00115981
0.00131038
0.00147604
0.00165443
0.00184321
0.00203974
0.00224294
0.00245244
0.00266386
0.002867
0.00304957
0.0032029
0.00332293
0.00341082
0.00347231
0.00351537
0.00354811
0.00357828
0.00361125
0.00365018
0.00369737
0.00375428
0.00382158
0.00389924
0.00398667
0.00408284
0.00418647
0.00429613
0.00441032
0.00452761
0.00464659
0.00476602
0.00488475
0.00500177
0.0051162
0.00522727
0.00533431
0.00543674
0.00553395
0.00562536
0.00571043
0.00578864
0.00585954
0.00592271
0.00597774
0.00602427
0.00606197
0.00609054
0.00610946
0.00611895
0.00612018
0.00611439
0.00610278
0.00608646
0.00606649
0.00604392
0.00601978
0.00599508
0.0059703
0.00594639
0.00592435
0.00590522
0.00589013
0.00588031
0.00587713
0.00588212
0.00589704
0.00592389
0.00596506
0.0060233
0.00609905
0.0061912
0.0063034
0.00644032
0.00660651
0.00680628
0.0070439
0.00732351
0.00764884
0.0080229
0.00844764
0.00892365
0.00944998
0.0100241
0.010642
0.0112987
0.011988
0.0127037
0.0134393
0.0141884
1.0762e-07
2.87185e-06
8.28467e-06
2.27929e-05
5.01222e-05
8.29773e-05
0.000115784
0.000146797
0.000175959
0.000203659
0.000230361
0.000256511
0.000282521
0.000308786
0.0003357
0.000363686
0.000393226
0.000424904
0.000459463
0.000497894
0.000541586
0.00059123
0.000647021
0.000710376
0.000783781
0.000869701
0.000970591
0.00108878
0.00122648
0.00138128
0.00155026
0.00173127
0.00192157
0.00211926
0.00232315
0.00253155
0.00273778
0.0029313
0.003101
0.00324006
0.00334649
0.00342325
0.00347715
0.00351641
0.00354867
0.00358065
0.00361609
0.00365781
0.00370784
0.00376737
0.00383685
0.00391606
0.00400428
0.00410043
0.00420319
0.00431114
0.0044228
0.00453678
0.00465172
0.00476642
0.00487979
0.00499086
0.00509885
0.00520287
0.00530216
0.00539595
0.00548365
0.00556465
0.00563845
0.00570456
0.00576255
0.00581202
0.00585263
0.00588404
0.0059057
0.00591776
0.00592136
0.00591774
0.00590809
0.0058935
0.00587501
0.00585364
0.00583038
0.00580626
0.00578171
0.00575759
0.00573481
0.00571431
0.00569713
0.00568439
0.00567732
0.00567733
0.00568598
0.00570506
0.00573671
0.0057834
0.00584773
0.00592878
0.00602697
0.00614706
0.00629382
0.00647184
0.00668563
0.00693967
0.00723827
0.00758519
0.00798331
0.00843426
0.00893809
0.00949318
0.0100963
0.0107426
0.0114264
0.0121412
0.0128801
0.0136364
1.23172e-07
3.2754e-06
9.48881e-06
2.5628e-05
5.50326e-05
8.96123e-05
0.000123456
0.000154868
0.000183899
0.000211019
0.000236742
0.000261528
0.000285777
0.000309848
0.000334073
0.000358789
0.000384354
0.000411181
0.000439766
0.000470739
0.00050518
0.000544419
0.000589198
0.000639452
0.000695973
0.000761144
0.00083745
0.000927458
0.00103371
0.00115864
0.00130191
0.00146059
0.00163283
0.00181623
0.00200791
0.00220613
0.00240952
0.00261462
0.00281311
0.00299428
0.00314874
0.00327185
0.00336395
0.00342997
0.0034774
0.00351374
0.00354682
0.00358083
0.00361904
0.00366392
0.00371716
0.00377965
0.00385159
0.00393256
0.00402172
0.00411787
0.00421968
0.00432571
0.00443452
0.00454477
0.00465523
0.00476473
0.00487218
0.00497658
0.00507691
0.00517233
0.00526208
0.00534547
0.00542186
0.0054907
0.0055515
0.00560383
0.00564729
0.00568155
0.00570596
0.00572063
0.00572667
0.00572532
0.00571775
0.00570505
0.00568822
0.00566827
0.00564614
0.00562279
0.00559891
0.00557503
0.00555201
0.00553073
0.00551213
0.00549722
0.00548714
0.00548314
0.00548661
0.00549919
0.00552277
0.0055596
0.00561239
0.00568262
0.00576887
0.00587398
0.00600292
0.00616052
0.00635151
0.00658062
0.00685256
0.00717178
0.007542
0.00796587
0.00844456
0.00897749
0.00956226
0.0101948
0.0108696
0.0115802
0.0123195
0.0130805
1.42815e-07
3.79011e-06
1.10707e-05
2.90637e-05
6.1044e-05
9.76067e-05
0.000132573
0.000164424
0.000193401
0.000220103
0.000245115
0.000268931
0.000291955
0.000314524
0.000336932
0.000359454
0.000382362
0.000405945
0.000430531
0.000456543
0.000484787
0.000516326
0.000552043
0.000592854
0.000638785
0.000690011
0.000748441
0.000816716
0.000897366
0.000993
0.00110619
0.00123815
0.00138634
0.00154931
0.0017249
0.0019103
0.00210288
0.00230076
0.00250197
0.00270115
0.00288883
0.00305452
0.00319144
0.00329754
0.00337557
0.00343174
0.00347373
0.00350953
0.00354383
0.00358022
0.00362157