/*--------------------------------*- C++ -*----------------------------------*\
  =========                 |
  \\      /  F ield         | OpenFOAM: The Open Source CFD Toolbox
   \\    /   O peration     | Website:  https://openfoam.org
    \\  /    A nd           | Version:  10
     \\/     M anipulation  |
\*---------------------------------------------------------------------------*/
FoamFile
{
    format      ascii;
    class       volScalarField;
    location    "17000";
    object      p;
}
// * * * * * * * * * * * * * * * * * * * * * * * * * * * * * * * * * * * * * //

dimensions      [0 2 -2 0 0 0 0];

internalField   nonuniform List<scalar> 
17969
(
-5.65618
-5.64646
-5.63786
-5.62865
-5.61852
-5.60761
-5.59596
-5.58362
-5.57065
-5.55709
-5.54299
-5.52837
-5.51322
-5.49756
-5.48138
-5.46467
-5.44741
-5.42959
-5.41119
-5.3922
-5.3726
-5.35237
-5.33149
-5.30993
-5.28769
-5.26473
-5.24102
-5.21655
-5.19129
-5.16521
-5.13829
-5.11048
-5.08177
-5.05213
-5.02151
-4.98989
-4.95722
-4.92348
-4.88863
-4.85262
-4.8154
-4.77695
-4.73722
-4.69614
-4.65369
-4.6098
-4.56443
-4.51751
-4.46899
-4.41881
-4.3669
-4.3132
-4.25765
-4.20016
-4.14067
-4.07909
-4.01535
-3.94935
-3.88102
-3.81025
-3.73695
-3.66102
-3.58235
-3.50083
-3.41635
-3.32877
-3.23799
-3.14385
-3.04623
-2.94499
-2.83996
-2.73099
-2.61792
-2.50057
-2.3805
-2.26111
-2.14409
-2.02944
-1.91716
-1.80722
-1.69961
-1.59431
-1.49131
-1.39058
-1.2921
-1.19584
-1.10178
-1.0099
-0.920168
-0.832565
-0.747057
-0.663614
-0.582203
-0.502791
-0.425345
-0.34983
-0.276211
-0.204453
-0.13452
-0.0663753
-5.65541
-5.64572
-5.63726
-5.62824
-5.61843
-5.60789
-5.59665
-5.58468
-5.57202
-5.55873
-5.54485
-5.53041
-5.51542
-5.4999
-5.48384
-5.46724
-5.45008
-5.43236
-5.41406
-5.39516
-5.37565
-5.35551
-5.33472
-5.31325
-5.29108
-5.2682
-5.24458
-5.22019
-5.19501
-5.16901
-5.14216
-5.11443
-5.0858
-5.05622
-5.02568
-4.99413
-4.96153
-4.92786
-4.89307
-4.85712
-4.81997
-4.78158
-4.74191
-4.70089
-4.65849
-4.61466
-4.56934
-4.52247
-4.474
-4.42386
-4.372
-4.31835
-4.26283
-4.20538
-4.14592
-4.08438
-4.02066
-3.9547
-3.88639
-3.81564
-3.74236
-3.66644
-3.58778
-3.50627
-3.42179
-3.33422
-3.24343
-3.14929
-3.05166
-2.9504
-2.84535
-2.73635
-2.62324
-2.50584
-2.38573
-2.26627
-2.14918
-2.03447
-1.9221
-1.81208
-1.70438
-1.59898
-1.49588
-1.39504
-1.29644
-1.20006
-1.10587
-1.01386
-0.924003
-0.836265
-0.750621
-0.66704
-0.585491
-0.50594
-0.428356
-0.352703
-0.278949
-0.207057
-0.136992
-0.0687196
-5.65475
-5.64508
-5.63671
-5.62783
-5.61826
-5.60805
-5.5972
-5.58565
-5.57338
-5.56043
-5.54683
-5.53263
-5.51784
-5.50249
-5.48657
-5.4701
-5.45306
-5.43545
-5.41725
-5.39845
-5.37904
-5.35899
-5.33828
-5.3169
-5.29482
-5.27203
-5.24849
-5.22418
-5.19908
-5.17316
-5.14638
-5.11873
-5.09018
-5.06068
-5.03021
-4.99873
-4.96621
-4.9326
-4.89788
-4.862
-4.82492
-4.7866
-4.74698
-4.70603
-4.66369
-4.61991
-4.57464
-4.52783
-4.47941
-4.42932
-4.37751
-4.3239
-4.26843
-4.21102
-4.1516
-4.09009
-4.02641
-3.96047
-3.89219
-3.82146
-3.74821
-3.67231
-3.59366
-3.51216
-3.42769
-3.34012
-3.24933
-3.15519
-3.05755
-2.95627
-2.85119
-2.74217
-2.62902
-2.51158
-2.39141
-2.27189
-2.15474
-2.03995
-1.92751
-1.8174
-1.70961
-1.60411
-1.5009
-1.39995
-1.30123
-1.20473
-1.11042
-1.01828
-0.928283
-0.840406
-0.754619
-0.670893
-0.589196
-0.509498
-0.431765
-0.355966
-0.282066
-0.210031
-0.139827
-0.0714178
-5.65419
-5.64452
-5.63621
-5.62743
-5.61805
-5.60809
-5.59756
-5.58641
-5.57458
-5.56204
-5.5488
-5.53489
-5.52036
-5.50523
-5.4895
-5.47318
-5.45628
-5.43879
-5.42071
-5.40202
-5.3827
-5.36275
-5.34214
-5.32084
-5.29886
-5.27614
-5.25269
-5.22846
-5.20344
-5.1776
-5.15091
-5.12334
-5.09486
-5.06544
-5.03504
-5.00364
-4.97119
-4.93766
-4.90301
-4.8672
-4.83018
-4.79193
-4.75238
-4.71149
-4.66921
-4.62549
-4.58028
-4.53353
-4.48516
-4.43513
-4.38336
-4.3298
-4.27437
-4.21701
-4.15763
-4.09616
-4.03251
-3.96661
-3.89835
-3.82766
-3.75442
-3.67854
-3.59992
-3.51843
-3.43396
-3.3464
-3.25561
-3.16146
-3.06381
-2.96252
-2.85742
-2.74837
-2.63519
-2.51771
-2.39749
-2.27791
-2.16069
-2.04583
-1.93331
-1.82311
-1.71523
-1.60964
-1.50633
-1.40526
-1.30643
-1.20981
-1.11537
-1.0231
-0.932966
-0.844948
-0.759017
-0.675143
-0.593297
-0.513448
-0.435563
-0.359612
-0.285562
-0.213379
-0.143028
-0.0744752
-0.00768389
0.0573779
0.120745
0.182454
-5.65371
-5.64404
-5.63576
-5.62705
-5.61779
-5.60802
-5.59774
-5.58691
-5.57547
-5.56337
-5.55057
-5.53705
-5.52285
-5.508
-5.49252
-5.47641
-5.45969
-5.44235
-5.4244
-5.40583
-5.38663
-5.36678
-5.34626
-5.32507
-5.30317
-5.28055
-5.25718
-5.23304
-5.2081
-5.18234
-5.15573
-5.12824
-5.09984
-5.07049
-5.04017
-5.00884
-4.97647
-4.94301
-4.90843
-4.87269
-4.83575
-4.79756
-4.75808
-4.71725
-4.67504
-4.63138
-4.58623
-4.53953
-4.49122
-4.44124
-4.38953
-4.33602
-4.28064
-4.22332
-4.16398
-4.10255
-4.03894
-3.97307
-3.90485
-3.83418
-3.76097
-3.68511
-3.6065
-3.52503
-3.44058
-3.35302
-3.26223
-3.16808
-3.07042
-2.96911
-2.864
-2.75492
-2.6417
-2.52418
-2.40391
-2.28427
-2.16699
-2.05206
-1.93946
-1.82918
-1.72121
-1.61552
-1.51211
-1.41094
-1.31199
-1.21525
-1.12069
-1.02828
-0.938011
-0.849852
-0.763774
-0.679751
-0.597751
-0.517747
-0.439706
-0.363598
-0.289391
-0.217053
-0.146547
-0.0778383
-0.0108959
0.05431
0.117816
0.179659
-5.6533
-5.6436
-5.63534
-5.62668
-5.6175
-5.60786
-5.59776
-5.58717
-5.57605
-5.56433
-5.55197
-5.53891
-5.52514
-5.51065
-5.49547
-5.47964
-5.46316
-5.44602
-5.42825
-5.40983
-5.39076
-5.37103
-5.35062
-5.32953
-5.30773
-5.28521
-5.26193
-5.23788
-5.21302
-5.18735
-5.16082
-5.13341
-5.10508
-5.07582
-5.04558
-5.01432
-4.98202
-4.94864
-4.91413
-4.87846
-4.84159
-4.80347
-4.76405
-4.72329
-4.68114
-4.63755
-4.59246
-4.54582
-4.49757
-4.44764
-4.39599
-4.34252
-4.28719
-4.22992
-4.17062
-4.10923
-4.04566
-3.97983
-3.91164
-3.841
-3.76781
-3.69198
-3.61339
-3.53193
-3.44749
-3.35994
-3.26915
-3.175
-3.07733
-2.97601
-2.87087
-2.76177
-2.64852
-2.53095
-2.41063
-2.29094
-2.17359
-2.05859
-1.94591
-1.83555
-1.72749
-1.62171
-1.5182
-1.41692
-1.31787
-1.22101
-1.12632
-1.03378
-0.943377
-0.855076
-0.768852
-0.684678
-0.602525
-0.522363
-0.444163
-0.367894
-0.293526
-0.221026
-0.150359
-0.0814918
-0.014396
0.0509592
0.114609
0.176592
-5.65294
-5.64323
-5.63497
-5.62633
-5.61721
-5.60766
-5.59769
-5.58728
-5.57637
-5.56495
-5.55295
-5.54032
-5.52701
-5.51298
-5.49821
-5.48272
-5.46653
-5.44967
-5.43213
-5.4139
-5.39501
-5.37543
-5.35516
-5.33419
-5.3125
-5.29008
-5.2669
-5.24294
-5.21818
-5.19259
-5.16614
-5.13882
-5.11057
-5.08139
-5.05122
-5.02005
-4.98782
-4.95451
-4.92008
-4.88448
-4.84768
-4.80962
-4.77028
-4.72958
-4.6875
-4.64397
-4.59894
-4.55236
-4.50417
-4.4543
-4.40269
-4.34928
-4.294
-4.23677
-4.17752
-4.11617
-4.05264
-3.98684
-3.91868
-3.84807
-3.77491
-3.6991
-3.62053
-3.53909
-3.45466
-3.36712
-3.27633
-3.18217
-3.0845
-2.98316
-2.87801
-2.76888
-2.65559
-2.53799
-2.41761
-2.29786
-2.18045
-2.06538
-1.95263
-1.84219
-1.73404
-1.62817
-1.52456
-1.42318
-1.32401
-1.22704
-1.13223
-1.03957
-0.949026
-0.860585
-0.774215
-0.689891
-0.607583
-0.527262
-0.4489
-0.372467
-0.297933
-0.225266
-0.154435
-0.0854058
-0.0181513
0.0473589
0.11116
0.173292
0.233792
-5.65264
-5.6429
-5.63464
-5.62601
-5.61693
-5.60745
-5.59757
-5.58727
-5.57653
-5.56531
-5.55357
-5.54128
-5.52837
-5.5148
-5.5005
-5.48546
-5.46967
-5.45313
-5.43588
-5.41793
-5.39926
-5.37988
-5.35978
-5.33896
-5.31741
-5.29511
-5.27204
-5.24819
-5.22353
-5.19803
-5.17168
-5.14443
-5.11628
-5.08717
-5.05709
-5.02599
-4.99384
-4.96061
-4.92625
-4.89072
-4.85399
-4.81601
-4.77672
-4.7361
-4.69408
-4.65061
-4.60565
-4.55913
-4.51099
-4.46118
-4.40963
-4.35627
-4.30103
-4.24385
-4.18465
-4.12334
-4.05985
-3.99408
-3.92596
-3.85538
-3.78224
-3.70646
-3.6279
-3.54648
-3.46206
-3.37452
-3.28374
-3.18958
-3.0919
-2.99054
-2.88537
-2.77621
-2.6629
-2.54525
-2.42482
-2.30502
-2.18754
-2.0724
-1.95957
-1.84905
-1.74082
-1.63486
-1.53115
-1.42967
-1.3304
-1.23331
-1.13838
-1.04559
-0.954923
-0.866343
-0.77983
-0.695357
-0.612895
-0.532417
-0.453893
-0.377296
-0.302595
-0.229762
-0.158764
-0.0895713
-0.0221531
0.043522
0.107489
0.169783
0.230437
0.289483
0.346957
-5.65238
-5.64262
-5.63435
-5.62573
-5.61668
-5.60724
-5.59742
-5.58721
-5.57657
-5.5655
-5.55395
-5.54189
-5.52929
-5.51609
-5.50223
-5.48767
-5.47235
-5.45625
-5.43938
-5.42174
-5.40336
-5.38425
-5.36438
-5.34376
-5.32238
-5.30023
-5.2773
-5.25357
-5.22902
-5.20363
-5.17737
-5.15023
-5.12216
-5.09314
-5.06314
-5.03212
-5.00005
-4.96689
-4.93261
-4.89716
-4.8605
-4.82258
-4.78337
-4.74281
-4.70086
-4.65746
-4.61255
-4.56609
-4.51801
-4.46826
-4.41676
-4.36345
-4.30827
-4.25113
-4.19197
-4.1307
-4.06725
-4.00152
-3.93343
-3.86288
-3.78977
-3.71401
-3.63547
-3.55406
-3.46965
-3.38212
-3.29134
-3.19718
-3.09949
-2.99812
-2.89293
-2.78374
-2.67039
-2.5527
-2.43223
-2.31236
-2.19482
-2.07961
-1.96671
-1.85611
-1.7478
-1.64174
-1.53794
-1.43636
-1.33698
-1.23979
-1.14474
-1.05183
-0.961032
-0.872318
-0.785664
-0.701044
-0.618431
-0.537797
-0.459114
-0.382353
-0.307486
-0.234485
-0.163319
-0.0939569
-0.0263662
0.0394829
0.10362
0.166076
0.226885
0.286084
0.343707
0.399788
-5.65216
-5.64239
-5.63411
-5.62548
-5.61645
-5.60704
-5.59727
-5.58711
-5.57656
-5.56559
-5.55418
-5.54229
-5.52989
-5.51696
-5.50345
-5.48928
-5.47442
-5.45881
-5.44241
-5.4252
-5.40719
-5.38838
-5.3688
-5.34845
-5.3273
-5.30534
-5.28259
-5.25901
-5.2346
-5.20933
-5.18319
-5.15614
-5.12818
-5.09925
-5.06934
-5.03841
-5.00642
-4.97334
-4.93914
-4.90376
-4.86717
-4.82933
-4.79019
-4.7497
-4.70781
-4.66447
-4.61963
-4.57323
-4.52521
-4.47551
-4.42406
-4.37081
-4.31567
-4.25858
-4.19947
-4.13824
-4.07482
-4.00913
-3.94107
-3.87055
-3.79747
-3.72172
-3.64321
-3.56181
-3.47741
-3.38989
-3.29911
-3.20494
-3.10724
-3.00586
-2.90065
-2.79143
-2.67805
-2.56031
-2.43979
-2.31987
-2.20227
-2.08699
-1.97401
-1.86333
-1.75493
-1.64879
-1.5449
-1.44322
-1.34374
-1.24643
-1.15128
-1.05825
-0.967324
-0.878477
-0.791685
-0.706921
-0.624159
-0.54337
-0.464528
-0.387605
-0.312572
-0.239402
-0.168065
-0.0985317
-0.0307704
0.0352495
0.099556
0.162179
0.223151
0.282507
0.340285
0.396516
0.451235
0.504475
-5.65199
-5.64219
-5.6339
-5.62527
-5.61624
-5.60686
-5.59712
-5.58701
-5.57652
-5.56563
-5.55431
-5.54255
-5.53031
-5.51756
-5.50428
-5.49042
-5.47592
-5.46073
-5.4448
-5.42808
-5.41053
-5.39215
-5.37292
-5.35286
-5.332
-5.31032
-5.28779
-5.26441
-5.24017
-5.21506
-5.18905
-5.16213
-5.13428
-5.10546
-5.07565
-5.04481
-5.01291
-4.97992
-4.9458
-4.9105
-4.87399
-4.83622
-4.79715
-4.75673
-4.71491
-4.67164
-4.62686
-4.58052
-4.53255
-4.48291
-4.43152
-4.37831
-4.32323
-4.26618
-4.20711
-4.14593
-4.08255
-4.01689
-3.94886
-3.87837
-3.80531
-3.72959
-3.65109
-3.5697
-3.48531
-3.39779
-3.30701
-3.21284
-3.11513
-3.01374
-2.9085
-2.79926
-2.68584
-2.56806
-2.44749
-2.32751
-2.20984
-2.09449
-1.98145
-1.87069
-1.76221
-1.65598
-1.55199
-1.45021
-1.35063
-1.25322
-1.15796
-1.06481
-0.973767
-0.884791
-0.797864
-0.712959
-0.630051
-0.549111
-0.470112
-0.393028
-0.31783
-0.244491
-0.172983
-0.103277
-0.0353424
0.0308497
0.095328
0.158121
0.21926
0.27878
0.336715
0.393102
0.447971
0.501357
0.553292
0.603813
0.652952
0.700743
-5.65184
-5.64202
-5.63371
-5.62508
-5.61606
-5.60669
-5.59698
-5.58691
-5.57647
-5.56563
-5.55439
-5.54272
-5.53059
-5.51799
-5.50487
-5.49121
-5.47698
-5.46212
-5.44657
-5.43029
-5.41322
-5.39532
-5.37655
-5.3569
-5.33638
-5.31499
-5.29275
-5.26964
-5.24562
-5.22071
-5.19488
-5.16812
-5.14041
-5.11171
-5.08202
-5.05129
-5.01949
-4.98659
-4.95256
-4.91734
-4.88091
-4.84322
-4.80423
-4.76388
-4.72213
-4.67892
-4.63421
-4.58793
-4.54002
-4.49044
-4.4391
-4.38595
-4.33091
-4.27391
-4.21488
-4.15373
-4.09039
-4.02477
-3.95677
-3.8863
-3.81327
-3.73757
-3.65908
-3.57771
-3.49333
-3.40581
-3.31503
-3.22086
-3.12314
-3.02172
-2.91647
-2.80719
-2.69374
-2.57592
-2.45529
-2.33525
-2.21753
-2.10211
-1.98899
-1.87815
-1.76959
-1.66327
-1.55919
-1.45732
-1.35764
-1.26013
-1.16476
-1.0715
-0.980334
-0.891233
-0.804175
-0.719132
-0.636081
-0.554993
-0.475841
-0.398599
-0.323238
-0.249733
-0.178054
-0.108175
-0.0400677
0.0262978
0.0909501
0.153917
0.215227
0.274914
0.333013
0.389559
0.444584
0.498119
0.550199
0.600857
0.650128
0.698044
-5.65171
-5.64187
-5.63354
-5.6249
-5.61589
-5.60653
-5.59684
-5.5868
-5.57639
-5.56561
-5.55442
-5.54282
-5.53078
-5.51828
-5.5053
-5.49179
-5.47774
-5.4631
-5.44784
-5.43191
-5.41524
-5.39779
-5.3795
-5.36034
-5.34026
-5.31927
-5.29736
-5.27454
-5.25082
-5.22617
-5.20057
-5.17401
-5.14647
-5.11794
-5.08838
-5.05778
-5.0261
-4.99331
-4.95938
-4.92426
-4.88792
-4.85031
-4.81139
-4.77112
-4.72944
-4.6863
-4.64165
-4.59544
-4.54759
-4.49806
-4.44678
-4.39368
-4.33869
-4.28174
-4.22275
-4.16164
-4.09834
-4.03274
-3.96478
-3.89434
-3.82133
-3.74564
-3.66718
-3.58581
-3.50144
-3.41393
-3.32314
-3.22896
-3.13123
-3.0298
-2.92452
-2.81522
-2.70173
-2.58386
-2.46318
-2.34309
-2.2253
-2.10981
-1.99662
-1.8857
-1.77705
-1.67065
-1.56648
-1.46452
-1.36474
-1.26713
-1.17165
-1.07828
-0.987
-0.897779
-0.810593
-0.725417
-0.642226
-0.560994
-0.481692
-0.404295
-0.328776
-0.255106
-0.18326
-0.11321
-0.0449295
0.0216105
0.0864371
0.149578
0.211064
0.270924
0.329194
0.385905
0.44109
0.494779
0.547008
0.597809
0.647216
0.695263
-5.6516
-5.64174
-5.63339
-5.62473
-5.61572
-5.60637
-5.5967
-5.58668
-5.5763
-5.56554
-5.5544
-5.54286
-5.53088
-5.51847
-5.50558
-5.4922
-5.47829
-5.46382
-5.44876
-5.43307
-5.41671
-5.39962
-5.38175
-5.36305
-5.34346
-5.32294
-5.30147
-5.27904
-5.25564
-5.23129
-5.20598
-5.17968
-5.15237
-5.12404
-5.09466
-5.06422
-5.03268
-5.00002
-4.96621
-4.9312
-4.89496
-4.85744
-4.81861
-4.77842
-4.73682
-4.69375
-4.64917
-4.60302
-4.55524
-4.50577
-4.45454
-4.40149
-4.34655
-4.28964
-4.2307
-4.16963
-4.10636
-4.0408
-3.97286
-3.90245
-3.82946
-3.75379
-3.67534
-3.59399
-3.50962
-3.42211
-3.33132
-3.23713
-3.13939
-3.03794
-2.93264
-2.82331
-2.70978
-2.59187
-2.47114
-2.35098
-2.23313
-2.11757
-2.00431
-1.89332
-1.78459
-1.6781
-1.57384
-1.47178
-1.37191
-1.27419
-1.17861
-1.08514
-0.993742
-0.904404
-0.817095
-0.731789
-0.648463
-0.56709
-0.487644
-0.410096
-0.334421
-0.260591
-0.188581
-0.118363
-0.0499106
0.0168027
0.0818046
0.145123
0.206785
0.266822
0.325265
0.382145
0.437493
0.491342
0.543724
0.594673
0.644222
0.692405
-5.65152
-5.64163
-5.63326
-5.62458
-5.61556
-5.60622
-5.59655
-5.58654
-5.57618
-5.56546
-5.55435
-5.54284
-5.53092
-5.51857
-5.50576
-5.49246
-5.47867
-5.46433
-5.44942
-5.43392
-5.41777
-5.40095
-5.38341
-5.36508
-5.34593
-5.32588
-5.3049
-5.28293
-5.25997
-5.23599
-5.21099
-5.185
-5.15798
-5.12991
-5.10076
-5.07052
-5.03916
-5.00666
-4.97299
-4.93811
-4.90198
-4.86458
-4.82585
-4.78575
-4.74423
-4.70125
-4.65674
-4.61066
-4.56294
-4.51353
-4.46236
-4.40936
-4.35447
-4.29761
-4.2387
-4.17767
-4.11444
-4.04891
-3.981
-3.91061
-3.83764
-3.76199
-3.68355
-3.60221
-3.51785
-3.43034
-3.33955
-3.24535
-3.1476
-3.04613
-2.9408
-2.83144
-2.71787
-2.59992
-2.47914
-2.35892
-2.24101
-2.12538
-2.01204
-1.90097
-1.79216
-1.68559
-1.58124
-1.4791
-1.37913
-1.28131
-1.18563
-1.09204
-1.00054
-0.911088
-0.82366
-0.738229
-0.654772
-0.573262
-0.493674
-0.41598
-0.340153
-0.266167
-0.193995
-0.123612
-0.0549903
0.0118953
0.0770716
0.140566
0.202405
0.262619
0.321237
0.378288
0.433804
0.487816
0.540356
0.591458
0.641154
0.689478
0.736462
-5.65145
-5.64155
-5.63315
-5.62445
-5.61542
-5.60607
-5.59641
-5.58641
-5.57606
-5.56535
-5.55427
-5.5428
-5.53092
-5.51861
-5.50586
-5.49263
-5.47892
-5.46468
-5.4499
-5.43454
-5.41856
-5.40194
-5.38463
-5.36659
-5.34778
-5.32813
-5.30759
-5.2861
-5.26362
-5.2401
-5.21553
-5.18989
-5.16318
-5.13541
-5.10656
-5.07657
-5.04544
-5.01314
-4.97965
-4.94493
-4.90895
-4.87167
-4.83306
-4.79306
-4.75164
-4.70874
-4.66432
-4.61831
-4.57066
-4.52132
-4.47021
-4.41726
-4.36242
-4.30561
-4.24675
-4.18576
-4.12256
-4.05706
-3.98918
-3.91881
-3.84586
-3.77023
-3.6918
-3.61047
-3.52611
-3.4386
-3.34781
-3.2536
-3.15583
-3.05435
-2.94899
-2.8396
-2.72599
-2.60799
-2.48716
-2.36689
-2.24891
-2.13322
-2.0198
-1.90866
-1.79977
-1.69311
-1.58868
-1.48644
-1.38637
-1.28846
-1.19267
-1.09899
-1.00738
-0.917812
-0.830268
-0.744717
-0.661133
-0.57949
-0.499764
-0.421928
-0.345954
-0.271815
-0.199486
-0.12894
-0.0601519
0.00690383
0.0722532
0.135923
0.197939
0.258329
0.317122
0.374346
0.430033
0.484211
0.536914
0.588173
0.638021
0.68649
0.733613
-5.65141
-5.64148
-5.63306
-5.62435
-5.6153
-5.60595
-5.59629
-5.58629
-5.57596
-5.56526
-5.5542
-5.54275
-5.53089
-5.51862
-5.50591
-5.49274
-5.47909
-5.46494
-5.45025
-5.435
-5.41916
-5.40269
-5.38557
-5.36774
-5.34918
-5.32983
-5.30965
-5.28858
-5.26655
-5.24351
-5.21941
-5.19423
-5.16792
-5.1405
-5.11195
-5.08227
-5.05142
-5.01937
-4.9861
-4.95158
-4.91577
-4.87865
-4.84018
-4.80031
-4.759
-4.71621
-4.67188
-4.62595
-4.57838
-4.52911
-4.47806
-4.42518
-4.37039
-4.31362
-4.2548
-4.19386
-4.13069
-4.06523
-3.99737
-3.92703
-3.8541
-3.77848
-3.70006
-3.61874
-3.53438
-3.44687
-3.35608
-3.26186
-3.16407
-3.06257
-2.95719
-2.84777
-2.73412
-2.61608
-2.49519
-2.37486
-2.25682
-2.14106
-2.02758
-1.91636
-1.80739
-1.70065
-1.59612
-1.49379
-1.39363
-1.29562
-1.19974
-1.10595
-1.01423
-0.924559
-0.836902
-0.751234
-0.667527
-0.585756
-0.505896
-0.427921
-0.351804
-0.277517
-0.205034
-0.13433
-0.0653795
0.00184328
0.0673633
0.131206
0.193397
0.253964
0.312932
0.370332
0.42619
0.480538
0.533406
0.584826
0.634829
0.683447
0.730714
-5.65139
-5.64144
-5.633
-5.62428
-5.61522
-5.60587
-5.5962
-5.58621
-5.57588
-5.5652
-5.55415
-5.54271
-5.53088
-5.51864
-5.50596
-5.49283
-5.47923
-5.46514
-5.45052
-5.43536
-5.41963
-5.40328
-5.3863
-5.36865
-5.35028
-5.33116
-5.31125
-5.29049
-5.26884
-5.24622
-5.22258
-5.19787
-5.17204
-5.14505
-5.11688
-5.08753
-5.05699
-5.02524
-4.99225
-4.95797
-4.92238
-4.88546
-4.84716
-4.80744
-4.76627
-4.7236
-4.67937
-4.63355
-4.58607
-4.53687
-4.48589
-4.43307
-4.37834
-4.32163
-4.26286
-4.20195
-4.13882
-4.07339
-4.00556
-3.93524
-3.86233
-3.78673
-3.70832
-3.627
-3.54265
-3.45514
-3.36434
-3.27011
-3.17231
-3.07078
-2.96538
-2.85593
-2.74225
-2.62416
-2.50322
-2.38283
-2.26473
-2.1489
-2.03534
-1.92405
-1.815
-1.70818
-1.60357
-1.50115
-1.4009
-1.30279
-1.2068
-1.11291
-1.02109
-0.931313
-0.843546
-0.757763
-0.673938
-0.592043
-0.512054
-0.433944
-0.357687
-0.283257
-0.210625
-0.139767
-0.0706575
-0.0032712
0.0624163
0.12643
0.188795
0.249536
0.30868
0.366254
0.422286
0.476805
0.52984
0.581423
0.631584
0.680355
0.72777
0.773859
-5.65138
-5.64142
-5.63297
-5.62423
-5.61517
-5.60582
-5.59616
-5.58617
-5.57585
-5.56518
-5.55414
-5.54272
-5.53091
-5.51869
-5.50603
-5.49294
-5.47938
-5.46533
-5.45077
-5.43567
-5.42002
-5.40377
-5.38691
-5.36938
-5.35117
-5.33224
-5.31253
-5.29201
-5.27064
-5.24836
-5.22511
-5.20083
-5.17546
-5.14894
-5.12123
-5.0923
-5.06212
-5.03068
-4.998
-4.96401
-4.92869
-4.892
-4.85391
-4.81439
-4.77338
-4.73085
-4.68676
-4.64105
-4.59367
-4.54456
-4.49367
-4.44092
-4.38625
-4.3296
-4.27087
-4.21001
-4.14692
-4.08152
-4.01372
-3.94343
-3.87054
-3.79495
-3.71656
-3.63524
-3.55089
-3.46338
-3.37257
-3.27833
-3.18052
-3.07898
-2.97354
-2.86406
-2.75034
-2.63221
-2.51122
-2.39078
-2.27261
-2.15672
-2.04309
-1.93172
-1.82259
-1.71569
-1.61099
-1.50849
-1.40814
-1.30994
-1.21386
-1.11987
-1.02795
-0.93806
-0.850184
-0.76429
-0.68035
-0.598336
-0.518221
-0.43998
-0.363589
-0.289018
-0.216242
-0.145235
-0.0759706
-0.00842501
0.0574263
0.121608
0.184143
0.245057
0.304376
0.362125
0.41833
0.473021
0.526225
0.577972
0.628294
0.677221
0.724785
0.771018
-5.6514
-5.64141
-5.63295
-5.62421
-5.61515
-5.6058
-5.59615
-5.58617
-5.57586
-5.5652
-5.55417
-5.54277
-5.53098
-5.51878
-5.50615
-5.49308
-5.47954
-5.46553
-5.45102
-5.43597
-5.42038
-5.40421
-5.38744
-5.37002
-5.35193
-5.33314
-5.3136
-5.29328
-5.27212
-5.2501
-5.22715
-5.20322
-5.17824
-5.15216
-5.1249
-5.09643
-5.06669
-5.03565
-5.0033
-4.96962
-4.93461
-4.8982
-4.86036
-4.82106
-4.78026
-4.73791
-4.69398
-4.64841
-4.60115
-4.55215
-4.50135
-4.44869
-4.39409
-4.3375
-4.27884
-4.21802
-4.15497
-4.08961
-4.02184
-3.95157
-3.8787
-3.80313
-3.72475
-3.64344
-3.5591
-3.47158
-3.38077
-3.28652
-3.18869
-3.08712
-2.98167
-2.87215
-2.7584
-2.64022
-2.51918
-2.39868
-2.28046
-2.1645
-2.0508
-1.93936
-1.83016
-1.72317
-1.61839
-1.5158
-1.41536
-1.31707
-1.22089
-1.1268
-1.03478
-0.944786
-0.856804
-0.770802
-0.68675
-0.604619
-0.524383
-0.446016
-0.369493
-0.294787
-0.221871
-0.150719
-0.0813047
-0.0136041
0.0524071
0.116752
0.179456
0.240541
0.300032
0.357955
0.414334
0.469197
0.522571
0.574485
0.62497
0.674055
0.721772
0.768152
-5.65142
-5.64142
-5.63296
-5.62422
-5.61516
-5.60581
-5.59617
-5.58621
-5.57591
-5.56526
-5.55426
-5.54287
-5.5311
-5.51891
-5.50631
-5.49326
-5.47975
-5.46577
-5.45129
-5.43629
-5.42075
-5.40464
-5.38793
-5.3706
-5.35261
-5.33393
-5.31452
-5.29435
-5.27338
-5.25156
-5.22884
-5.20517
-5.18051
-5.15479
-5.12794
-5.0999
-5.07061
-5.04002
-5.00808
-4.97477
-4.94007
-4.90397
-4.86643
-4.8274
-4.78684
-4.74471
-4.70097
-4.65556
-4.60846
-4.55959
-4.5089
-4.45634
-4.40183
-4.34531
-4.28671
-4.22595
-4.16295
-4.09763
-4.02989
-3.95965
-3.8868
-3.81125
-3.73288
-3.65158
-3.56724
-3.47972
-3.3889
-3.29464
-3.1968
-3.09522
-2.98974
-2.88019
-2.7664
-2.64818
-2.5271
-2.40654
-2.28825
-2.17223
-2.05847
-1.94696
-1.83767
-1.73061
-1.62575
-1.52307
-1.42255
-1.32416
-1.22789
-1.1337
-1.04157
-0.951482
-0.863395
-0.777285
-0.693123
-0.610881
-0.530528
-0.452039
-0.375388
-0.300551
-0.227499
-0.156206
-0.0866464
-0.0187953
0.0473714
0.111877
0.174745
0.235998
0.29566
0.353755
0.410307
0.465343
0.518888
0.570971
0.621621
0.670867
0.718739
0.76527
-5.65145
-5.64143
-5.63297
-5.62424
-5.61519
-5.60585
-5.59622
-5.58628
-5.57599
-5.56537
-5.55438
-5.54301
-5.53125
-5.51909
-5.50651
-5.49349
-5.48001
-5.46605
-5.45161
-5.43664
-5.42114
-5.40508
-5.38842
-5.37116
-5.35324
-5.33466
-5.31535
-5.29531
-5.27448
-5.25282
-5.23028
-5.20683
-5.18242
-5.15698
-5.13046
-5.10279
-5.07391
-5.04375
-5.01226
-4.97937
-4.94505
-4.90928
-4.87205
-4.83332
-4.79304
-4.75116
-4.70765
-4.66245
-4.61552
-4.56681
-4.51626
-4.46382
-4.40942
-4.35299
-4.29446
-4.23377
-4.17083
-4.10555
-4.03785
-3.96764
-3.89482
-3.81929
-3.74093
-3.65964
-3.5753
-3.48779
-3.39696
-3.3027
-3.20484
-3.10324
-2.99773
-2.88816
-2.77434
-2.65608
-2.53494
-2.41433
-2.29599
-2.17991
-2.06608
-1.95449
-1.84514
-1.738
-1.63305
-1.53029
-1.42968
-1.3312
-1.23483
-1.14055
-1.04833
-0.958134
-0.869945
-0.78373
-0.69946
-0.617108
-0.536642
-0.458035
-0.381262
-0.306296
-0.233113
-0.161684
-0.0919834
-0.0239864
0.0423311
0.106993
0.170021
0.231439
0.291269
0.349534
0.406258
0.461466
0.515183
0.567436
0.618252
0.667661
0.715692
0.762376
-5.6515
-5.64145
-5.633
-5.62427
-5.61523
-5.60592
-5.5963
-5.58637
-5.5761
-5.56549
-5.55452
-5.54318
-5.53144
-5.5193
-5.50674
-5.49375
-5.48029
-5.46637
-5.45195
-5.43702
-5.42155
-5.40553
-5.38893
-5.37171
-5.35386
-5.33534
-5.31613
-5.29618
-5.27546
-5.25393
-5.23155
-5.20828
-5.18406
-5.15884
-5.13258
-5.10521
-5.07668
-5.0469
-5.01581
-4.98335
-4.94946
-4.91408
-4.8772
-4.83878
-4.7988
-4.75721
-4.71397
-4.66901
-4.62229
-4.57377
-4.52339
-4.47109
-4.41681
-4.36049
-4.30206
-4.24145
-4.17857
-4.11335
-4.0457
-3.97552
-3.90273
-3.82722
-3.74888
-3.66761
-3.58327
-3.49576
-3.40493
-3.31066
-3.21279
-3.11117
-3.00564
-2.89604
-2.78219
-2.66389
-2.54271
-2.42205
-2.30365
-2.1875
-2.07361
-1.96196
-1.85253
-1.74532
-1.64029
-1.53744
-1.43675
-1.33818
-1.24172
-1.14735
-1.05503
-0.964734
-0.876443
-0.790125
-0.70575
-0.62329
-0.542714
-0.463994
-0.387102
-0.312013
-0.238701
-0.167141
-0.0973044
-0.0291664
0.0372972
0.10211
0.165295
0.226873
0.286868
0.345301
0.402195
0.457574
0.511462
0.563885
0.614869
0.664443
0.712635
0.759475
-5.65154
-5.64148
-5.63304
-5.62432
-5.61529
-5.60599
-5.59639
-5.58648
-5.57623
-5.56564
-5.55469
-5.54337
-5.53166
-5.51954
-5.507
-5.49403
-5.4806
-5.46671
-5.45232
-5.43742
-5.42199
-5.406
-5.38944
-5.37227
-5.35447
-5.33601
-5.31686
-5.297
-5.27637
-5.25495
-5.23269
-5.20956
-5.1855
-5.16047
-5.13442
-5.10729
-5.07902
-5.04956
-5.01882
-4.98675
-4.95327
-4.91831
-4.88182
-4.84375
-4.80409
-4.76281
-4.71986
-4.67517
-4.6287
-4.5804
-4.53022
-4.47809
-4.42397
-4.36778
-4.30946
-4.24894
-4.18614
-4.12099
-4.0534
-3.98327
-3.91051
-3.83503
-3.75672
-3.67545
-3.59113
-3.50362
-3.41279
-3.31851
-3.22063
-3.119
-3.01345
-2.90382
-2.78994
-2.6716
-2.55038
-2.42967
-2.31122
-2.19502
-2.08106
-1.96934
-1.85985
-1.75256
-1.64746
-1.54453
-1.44375
-1.34509
-1.24855
-1.15408
-1.06166
-0.971272
-0.882881
-0.796461
-0.711983
-0.629417
-0.548734
-0.469904
-0.392898
-0.31769
-0.244255
-0.172567
-0.102599
-0.0343247
0.0322801
0.0972391
0.160575
0.22231
0.282465
0.341063
0.398125
0.453673
0.507731
0.560324
0.611476
0.661215
0.70957
0.756568
-5.65159
-5.64151
-5.63309
-5.62438
-5.61537
-5.60608
-5.5965
-5.5866
-5.57637
-5.5658
-5.55487
-5.54357
-5.53188
-5.51979
-5.50727
-5.49433
-5.48093
-5.46706
-5.45269
-5.43783
-5.42243
-5.40648
-5.38995
-5.37283
-5.35507
-5.33667
-5.31758
-5.29777
-5.27722
-5.25589
-5.23373
-5.21071
-5.18679
-5.16191
-5.13604
-5.1091
-5.08106
-5.05184
-5.02139
-4.98965
-4.95652
-4.92195
-4.88586
-4.84819
-4.80889
-4.76793
-4.72528
-4.68089
-4.6347
-4.58665
-4.5367
-4.48478
-4.43083
-4.3748
-4.31662
-4.25621
-4.19351
-4.12844
-4.06092
-3.99084
-3.91814
-3.84269
-3.7644
-3.68316
-3.59885
-3.51135
-3.42052
-3.32624
-3.22835
-3.1267
-3.02114
-2.91149
-2.79758
-2.6792
-2.55794
-2.43719
-2.31868
-2.20243
-2.08842
-1.97663
-1.86707
-1.75971
-1.65453
-1.55152
-1.45066
-1.35193
-1.25529
-1.16073
-1.06822
-0.977737
-0.889249
-0.802729
-0.71815
-0.635481
-0.554693
-0.475756
-0.398641
-0.323318
-0.249763
-0.177952
-0.107857
-0.0394515
0.0272892
0.0923892
0.155871
0.217758
0.278069
0.336828
0.394054
0.449769
0.503995
0.556756
0.608077
0.657982
0.706499
0.753657
-5.65164
-5.64154
-5.63313
-5.62444
-5.61544
-5.60617
-5.59661
-5.58673
-5.57652
-5.56597
-5.55506
-5.54377
-5.53211
-5.52004
-5.50755
-5.49463
-5.48125
-5.46741
-5.45308
-5.43824
-5.42287
-5.40695
-5.39046
-5.37337
-5.35566
-5.3373
-5.31826
-5.29851
-5.27803
-5.25677
-5.2347
-5.21177
-5.18796
-5.16321
-5.13747
-5.1107
-5.08284
-5.05383
-5.02362
-4.99214
-4.95932
-4.92508
-4.88936
-4.85208
-4.81316
-4.77255
-4.73022
-4.68614
-4.64024
-4.59248
-4.54278
-4.49109
-4.43736
-4.38151
-4.32349
-4.26322
-4.20064
-4.13567
-4.06823
-3.99823
-3.92557
-3.85017
-3.77192
-3.69071
-3.60642
-3.51893
-3.42811
-3.33382
-3.23593
-3.13428
-3.0287
-2.91903
-2.80509
-2.68669
-2.56539
-2.44459
-2.32604
-2.20973
-2.09566
-1.98382
-1.87419
-1.76676
-1.66151
-1.55843
-1.45749
-1.35867
-1.26195
-1.1673
-1.0747
-0.98412
-0.895537
-0.80892
-0.724242
-0.641472
-0.560581
-0.48154
-0.404318
-0.328887
-0.255218
-0.183287
-0.113069
-0.0445377
0.0223336
0.0875691
0.151192
0.213224
0.273687
0.332601
0.389988
0.445866
0.500258
0.553187
0.604674
0.654745
0.703426
0.750744
-5.65169
-5.64157
-5.63318
-5.6245
-5.61552
-5.60627
-5.59672
-5.58686
-5.57666
-5.56613
-5.55524
-5.54397
-5.53233
-5.52028
-5.50781
-5.49492
-5.48157
-5.46775
-5.45345
-5.43864
-5.4233
-5.40742
-5.39096
-5.37391
-5.35623
-5.33791
-5.31892
-5.29922
-5.27879
-5.25759
-5.23559
-5.21275
-5.18903
-5.16438
-5.13876
-5.11213
-5.08442
-5.05559
-5.02557
-4.99431
-4.96174
-4.92778
-4.89238
-4.85544
-4.81689
-4.77666
-4.73468
-4.69091
-4.64531
-4.59784
-4.54842
-4.49699
-4.44349
-4.38786
-4.33002
-4.26992
-4.20748
-4.14263
-4.07529
-4.00538
-3.93279
-3.85745
-3.77925
-3.69807
-3.6138
-3.52633
-3.43553
-3.34125
-3.24336
-3.1417
-3.03611
-2.92642
-2.81246
-2.69403
-2.5727
-2.45186
-2.33326
-2.21691
-2.10279
-1.99089
-1.88119
-1.7737
-1.66838
-1.56522
-1.46421
-1.36531
-1.2685
-1.17377
-1.08108
-0.990413
-0.901737
-0.815025
-0.73025
-0.647381
-0.566391
-0.487248
-0.409924
-0.334386
-0.260608
-0.188564
-0.118228
-0.0495746
0.017422
0.0827874
0.146545
0.208718
0.269326
0.328391
0.385933
0.441971
0.496526
0.549618
0.601271
0.651508
0.700352
0.747831
-5.65174
-5.64159
-5.63323
-5.62456
-5.61559
-5.60635
-5.59682
-5.58697
-5.5768
-5.56628
-5.55541
-5.54416
-5.53253
-5.52051
-5.50806
-5.49519
-5.48187
-5.46807
-5.4538
-5.43902
-5.42371
-5.40785
-5.39143
-5.37441
-5.35677
-5.33849
-5.31954
-5.29988
-5.2795
-5.25836
-5.23642
-5.21365
-5.19
-5.16544
-5.13993
-5.1134
-5.08583
-5.05714
-5.02729
-4.99622
-4.96385
-4.93013
-4.89499
-4.85835
-4.82012
-4.78024
-4.73862
-4.69519
-4.64991
-4.60273
-4.5536
-4.50245
-4.44921
-4.39381
-4.33619
-4.27627
-4.214
-4.14929
-4.08208
-4.01226
-3.93977
-3.8645
-3.78635
-3.70522
-3.62099
-3.53355
-3.44276
-3.34849
-3.25061
-3.14895
-3.04335
-2.93366
-2.81968
-2.70122
-2.57986
-2.45899
-2.34035
-2.22395
-2.10978
-1.99782
-1.88807
-1.78052
-1.67513
-1.5719
-1.47081
-1.37184
-1.27495
-1.18014
-1.08736
-0.996606
-0.907839
-0.821036
-0.736166
-0.653202
-0.572114
-0.492872
-0.415447
-0.339809
-0.265926
-0.193773
-0.123324
-0.0545542
0.0125625
0.0780522
0.141939
0.204246
0.264994
0.324204
0.381895
0.438088
0.492801
0.546056
0.597872
0.648272
0.697279
0.744919
-5.65178
-5.64161
-5.63327
-5.62461
-5.61566
-5.60643
-5.59692
-5.58708
-5.57692
-5.56642
-5.55556
-5.54433
-5.53272
-5.52071
-5.50829
-5.49544
-5.48214
-5.46837
-5.45412
-5.43936
-5.42408
-5.40825
-5.39186
-5.37487
-5.35727
-5.33902
-5.32011
-5.3005
-5.28016
-5.25906
-5.23718
-5.21446
-5.19089
-5.1664
-5.14097
-5.11455
-5.08708
-5.05852
-5.02881
-4.99789
-4.96571
-4.93219
-4.89727
-4.86087
-4.82293
-4.78336
-4.74207
-4.69898
-4.65403
-4.60716
-4.55832
-4.50746
-4.45449
-4.39934
-4.34195
-4.28224
-4.22016
-4.15562
-4.08855
-4.01886
-3.94647
-3.87128
-3.79321
-3.71214
-3.62796
-3.54055
-3.44979
-3.35554
-3.25767
-3.15601
-3.05042
-2.94072
-2.82672
-2.70825
-2.58686
-2.46596
-2.34729
-2.23084
-2.11663
-2.00462
-1.89482
-1.7872
-1.68175
-1.57846
-1.4773
-1.37825
-1.28128
-1.18639
-1.09353
-1.00269
-0.913836
-0.826942
-0.741981
-0.658924
-0.577742
-0.498404
-0.420882
-0.345145
-0.271163
-0.198907
-0.12835
-0.0594685
0.00776317
0.0733713
0.137381
0.199815
0.260697
0.320045
0.377881
0.434223
0.48909
0.542502
0.594478
0.645039
0.694208
0.742008
-5.65181
-5.64163
-5.6333
-5.62465
-5.61572
-5.6065
-5.597
-5.58717
-5.57702