/*--------------------------------*- C++ -*----------------------------------*\
  =========                 |
  \\      /  F ield         | OpenFOAM: The Open Source CFD Toolbox
   \\    /   O peration     | Website:  https://openfoam.org
    \\  /    A nd           | Version:  10
     \\/     M anipulation  |
\*---------------------------------------------------------------------------*/
FoamFile
{
    format      ascii;
    class       volVectorField;
    location    "17000";
    object      Urel;
}
// * * * * * * * * * * * * * * * * * * * * * * * * * * * * * * * * * * * * * //

dimensions      [0 1 -1 0 0 0 0];

internalField   nonuniform List<vector> 
17969
(
(0.14422 -0.130787 0)
(-0.0244655 -0.0467961 0)
(2.23532e-05 -0.00061544 -1.31201e-17)
(0.00614548 0.0397129 1.48538e-17)
(0.00866023 0.0790074 -5.0829e-18)
(0.0124395 0.116058 -3.93942e-18)
(0.0166835 0.147232 2.96295e-18)
(0.0203555 0.170544 0)
(0.0234024 0.186983 1.20086e-19)
(0.0259062 0.198194 0)
(0.0279167 0.205556 0)
(0.0295329 0.21028 0)
(0.0308587 0.213263 0)
(0.0319766 0.215105 -7.87302e-19)
(0.0329461 0.216184 7.23133e-19)
(0.0338084 0.216735 0)
(0.0345918 0.21691 -5.22808e-19)
(0.0353154 0.216802 4.68118e-19)
(0.0359925 0.216476 -4.20424e-19)
(0.0366324 0.215973 3.83521e-19)
(0.0372416 0.215323 0)
(0.0378248 0.214546 0)
(0.0383852 0.213655 -3.75323e-20)
(0.0389252 0.212661 0)
(0.0394464 0.21157 0)
(0.0399499 0.210388 2.46561e-19)
(0.0404364 0.209118 -4.66975e-19)
(0.0409064 0.207761 2.21879e-19)
(0.0413598 0.20632 2.09948e-19)
(0.0417968 0.204795 -2.61194e-20)
(0.0422172 0.203186 -2.40191e-19)
(0.0426207 0.201493 0)
(0.0430069 0.199716 1.75617e-19)
(0.0433754 0.197854 -3.80799e-19)
(0.0437257 0.195906 1.00904e-21)
(0.0440573 0.193871 3.13838e-19)
(0.0443697 0.191748 -1.51878e-19)
(0.0446623 0.189536 -1.82216e-19)
(0.0449347 0.187234 1.06446e-19)
(0.0451862 0.184841 0)
(0.0454163 0.182354 3.30794e-20)
(0.0456246 0.179774 3.2037e-20)
(0.0458106 0.177097 2.47164e-19)
(0.0459738 0.174324 -2.417e-19)
(0.0461139 0.171451 -2.32277e-19)
(0.0462304 0.168479 -5.44344e-20)
(0.0463231 0.165404 2.2078e-19)
(0.0463916 0.162225 2.12079e-19)
(0.0464356 0.15894 -2.28494e-21)
(0.046455 0.155547 -2.02097e-19)
(0.0464494 0.152045 -2.42727e-19)
(0.0464187 0.148431 2.38036e-19)
(0.0463627 0.144702 0)
(0.0462812 0.140855 0)
(0.0461741 0.13689 4.33889e-20)
(0.0460412 0.132802 2.51353e-19)
(0.0458824 0.128588 -1.64792e-19)
(0.0456973 0.124245 0)
(0.0454857 0.11977 0)
(0.0452473 0.115159 7.32285e-20)
(0.0449818 0.110409 -1.46343e-19)
(0.0446886 0.105514 0)
(0.0443672 0.10047 0)
(0.0440169 0.0952725 -6.60108e-20)
(0.0436366 0.0899162 -1.2612e-19)
(0.0432254 0.0843954 6.51622e-20)
(0.0427819 0.0787039 1.21223e-19)
(0.0423045 0.0728349 0)
(0.0417911 0.0667811 0)
(0.0412393 0.0605344 0)
(0.0406464 0.0540857 1.01557e-19)
(0.0400085 0.0474248 -6.17098e-21)
(0.039322 0.04054 -1.95312e-19)
(0.0385838 0.0334178 0)
(0.0377995 0.026148 8.60852e-20)
(0.0369846 0.0189272 8.05305e-20)
(0.0361501 0.0118497 -7.48766e-20)
(0.0352977 0.00490439 0)
(0.0344275 -0.00192059 0)
(0.0335393 -0.00863761 0)
(0.0326334 -0.0152598 0)
(0.0317104 -0.0218005 0)
(0.0307715 -0.0282738 8.94131e-20)
(0.0298183 -0.0346933 -1.48519e-19)
(0.028853 -0.0410731 1.00013e-19)
(0.0278787 -0.0474265 -1.77303e-20)
(0.0268987 -0.0537652 0)
(0.0259169 -0.0600963 0)
(0.0249373 -0.0664209 0)
(0.0239636 -0.0727374 -3.20926e-20)
(0.0229996 -0.0790426 4.26708e-20)
(0.022049 -0.0853333 3.28532e-20)
(0.0211154 -0.0916052 -3.20232e-20)
(0.0202027 -0.0978537 2.32128e-20)
(0.0193143 -0.104073 -4.39936e-20)
(0.0184534 -0.110258 1.62088e-20)
(0.017623 -0.1164 0)
(0.0168258 -0.122494 -7.49093e-21)
(0.0160636 -0.128532 7.24429e-21)
(0.0153384 -0.134506 3.49579e-22)
(0.14808 -0.128618 0)
(-0.0247893 -0.0524483 -3.4161e-17)
(0.000169881 -0.0161935 2.75631e-17)
(0.00446869 0.0164245 5.33302e-19)
(0.00596524 0.0491704 2.27268e-17)
(0.00878742 0.0827462 -3.44775e-17)
(0.0127306 0.115201 1.37119e-17)
(0.0167447 0.143247 1.08588e-17)
(0.020278 0.164814 -8.92055e-18)
(0.0233239 0.180582 -7.52949e-18)
(0.0259233 0.191854 1.57683e-20)
(0.0280644 0.199623 5.23066e-18)
(0.0298247 0.20483 0)
(0.0312863 0.208251 0)
(0.0325222 0.210453 -3.29635e-18)
(0.0335916 0.211817 2.91421e-18)
(0.0345384 0.212594 0)
(0.0353941 0.212947 -2.18747e-18)
(0.0361806 0.212983 2.02357e-18)
(0.0369137 0.212775 0)
(0.0376044 0.21237 -1.60366e-18)
(0.0382606 0.211803 1.38233e-18)
(0.038888 0.211096 4.23819e-20)
(0.0394906 0.210265 0)
(0.0400714 0.209324 1.17025e-18)
(0.0406324 0.208279 -7.35186e-20)
(0.0411752 0.207137 -2.06591e-18)
(0.0417007 0.205902 9.77389e-19)
(0.0422095 0.204577 -5.77412e-20)
(0.0427019 0.203163 9.02385e-19)
(0.0431781 0.201661 -7.85492e-19)
(0.043638 0.200073 0)
(0.0440814 0.198397 6.6541e-19)
(0.0445079 0.196634 -5.96332e-19)
(0.0449173 0.194784 0)
(0.045309 0.192844 8.44165e-20)
(0.0456826 0.190815 -8.12704e-20)
(0.0460375 0.188695 -5.8505e-19)
(0.0463734 0.186483 1.24641e-18)
(0.0466895 0.184178 -7.73793e-20)
(0.0469854 0.181778 -6.01501e-19)
(0.0472605 0.179283 -6.45619e-19)
(0.0475144 0.17669 1.0559e-18)
(0.0477466 0.173998 -1.15028e-18)
(0.0479566 0.171205 9.90429e-19)
(0.048144 0.16831 -4.22274e-19)
(0.0483083 0.165311 4.62896e-19)
(0.0484494 0.162206 -1.01514e-18)
(0.0485667 0.158994 8.75144e-19)
(0.04866 0.155672 -8.48968e-19)
(0.0487291 0.152238 3.62752e-19)
(0.0487738 0.14869 -4.99232e-20)
(0.0487937 0.145026 0)
(0.0487887 0.141243 0)
(0.0487587 0.137338 -4.5614e-20)
(0.0487033 0.13331 -8.85177e-20)
(0.0486225 0.129154 3.40968e-19)
(0.048516 0.124868 -5.03135e-19)
(0.0483837 0.120449 -6.41053e-19)
(0.0482251 0.115892 9.01854e-20)
(0.04804 0.111195 6.14117e-19)
(0.0478279 0.106353 7.30514e-19)
(0.0475884 0.101362 -7.20073e-19)
(0.0473207 0.0962178 6.90461e-20)
(0.0470241 0.0909147 0)
(0.0466977 0.0854478 6.48523e-20)
(0.0463402 0.0798114 4.93028e-19)
(0.0459501 0.0739993 -4.9039e-19)
(0.0455257 0.0680047 -2.33271e-19)
(0.0450648 0.0618203 -2.16523e-19)
(0.0445647 0.0554378 4.40559e-19)
(0.0440222 0.048848 3.11887e-19)
(0.0434338 0.0420402 3.90125e-19)
(0.0427969 0.0350023 -3.89169e-19)
(0.0421159 0.0278243 -8.96368e-20)
(0.0414037 0.0207012 -8.39074e-20)
(0.0406697 0.0137263 7.80722e-20)
(0.0399158 0.00688881 1.45496e-19)
(0.0391423 0.000177098 3.96735e-19)
(0.0383488 -0.00642137 -1.49556e-20)
(0.0375354 -0.01292 -2.36853e-19)
(0.0367026 -0.0193331 -5.29921e-20)
(0.0358515 -0.0256753 0)
(0.0349832 -0.0319621 2.24591e-20)
(0.0340999 -0.0382092 -2.04357e-20)
(0.0332042 -0.0444323 1.86646e-20)
(0.0322992 -0.0506456 0)
(0.0313886 -0.0568575 0)
(0.0304762 -0.0630705 -2.09813e-19)
(0.0295658 -0.0692841 8.08427e-21)
(0.0286609 -0.0754967 1.81813e-19)
(0.0277655 -0.0817064 0)
(0.0268836 -0.0879105 0)
(0.0260189 -0.0941056 9.94888e-20)
(0.0251755 -0.100287 -1.74951e-19)
(0.0243569 -0.106449 8.52957e-20)
(0.0235665 -0.112586 0)
(0.0228073 -0.11869 0)
(0.0220816 -0.124753 -1.71922e-20)
(0.0213918 -0.130768 1.0801e-20)
(0.15143 -0.12532 4.08402e-17)
(-0.0244145 -0.05597 -6.9296e-17)
(0.000886693 -0.0273099 1.13219e-16)
(0.00380087 -0.00137182 -3.92326e-17)
(0.0043362 0.024473 7.77626e-19)
(0.00606707 0.0518795 0)
(0.00913319 0.0811905 4.84178e-19)
(0.0128851 0.110352 0)
(0.0167412 0.136393 0)
(0.0202957 0.157233 5.28703e-19)
(0.0234191 0.172984 2.2219e-19)
(0.0261459 0.184649 0)
(0.0284566 0.193064 0)
(0.0303955 0.198951 2.8213e-19)
(0.0320223 0.202971 -3.89174e-18)
(0.0334002 0.205657 3.07107e-18)
(0.0345873 0.207399 -2.7669e-18)
(0.0356303 0.208468 2.60802e-18)
(0.0365648 0.209048 -7.22297e-20)
(0.0374167 0.209263 -2.19564e-18)
(0.038205 0.209197 1.75445e-18)
(0.0389433 0.208907 2.1225e-19)
(0.0396414 0.208433 9.71714e-20)
(0.0403064 0.207804 0)
(0.0409437 0.207039 0)
(0.0415568 0.206153 1.30893e-18)
(0.0421487 0.205155 -1.01292e-18)
(0.0427213 0.204054 -1.35618e-19)
(0.0432758 0.202853 -8.28127e-19)
(0.0438134 0.201558 9.69454e-19)
(0.0443344 0.200169 0)
(0.0448393 0.198689 0)
(0.0453281 0.197119 1.03955e-19)
(0.0458007 0.195458 1.48591e-18)
(0.0462569 0.193706 -3.04422e-18)
(0.0466964 0.191864 1.37313e-18)
(0.0471188 0.18993 8.75758e-20)
(0.0475237 0.187904 -1.68611e-19)
(0.0479106 0.185784 1.6235e-19)
(0.0482789 0.183569 7.81632e-20)
(0.0486283 0.181258 0)
(0.048958 0.178849 7.28144e-20)
(0.0492677 0.176341 1.40873e-19)
(0.0495568 0.173733 -9.48179e-19)
(0.0498248 0.171022 9.72503e-21)
(0.0500714 0.168208 1.15224e-18)
(0.0502959 0.165288 0)
(0.0504982 0.16226 -1.46068e-22)
(0.0506777 0.159123 -2.31837e-19)
(0.0508341 0.155874 0)
(0.0509672 0.152512 1.08756e-19)
(0.0510766 0.149034 -8.38673e-19)
(0.0511622 0.145438 8.23703e-19)
(0.0512237 0.141722 0)
(0.0512608 0.137883 1.92471e-19)
(0.0512734 0.133918 0)
(0.0512613 0.129824 -1.80935e-19)
(0.0512243 0.125599 -6.95382e-19)
(0.0511621 0.121239 6.85574e-19)
(0.0510745 0.116741 1.6476e-19)
(0.0509612 0.112101 0)
(0.0508219 0.107316 -7.65742e-19)
(0.050656 0.102382 1.64528e-18)
(0.050463 0.0972938 -1.36758e-20)
(0.0502423 0.0920474 -2.94314e-19)
(0.0499929 0.0866378 -1.49673e-19)
(0.0497138 0.0810598 -1.04594e-18)
(0.0494036 0.0753076 1.53381e-20)
(0.0490608 0.0693751 9.81607e-19)
(0.0486834 0.0632556 4.8098e-22)
(0.048269 0.0569415 0)
(0.0478147 0.0504245 6.32953e-19)
(0.0473172 0.0436952 1.71707e-19)
(0.0467743 0.0367426 -8.1104e-19)
(0.0461895 0.0296568 0)
(0.0455729 0.0226313 0)
(0.0449329 0.0157587 -1.63435e-19)
(0.0442715 0.00902893 4.3871e-19)
(0.043589 0.00243048 -1.26894e-18)
(0.042885 -0.00404898 1.04281e-18)
(0.0421594 -0.0104229 -6.16988e-19)
(0.0414127 -0.0167058 -3.74102e-19)
(0.0406456 -0.0229132 4.22722e-19)
(0.0398592 -0.0290614 -4.09329e-19)
(0.0390551 -0.0351679 6.89585e-19)
(0.0382359 -0.0412503 -3.27959e-19)
(0.0374041 -0.0473252 2.75372e-19)
(0.0365631 -0.0534031 -5.20484e-19)
(0.0357167 -0.0594879 2.23913e-20)
(0.0348683 -0.0655804 2.1488e-20)
(0.0340218 -0.0716809 2.16437e-19)
(0.0331809 -0.0777893 0)
(0.0323499 -0.0839046 1.27509e-19)
(0.0315328 -0.0900248 -2.31034e-19)
(0.0307339 -0.0961467 4.98236e-21)
(0.0299572 -0.102266 1.13288e-20)
(0.0292066 -0.108376 7.82914e-21)
(0.0284853 -0.114471 9.04774e-21)
(0.0277966 -0.120542 2.90754e-20)
(0.0271432 -0.126581 8.31601e-22)
(0.154212 -0.121525 -1.29458e-18)
(-0.023717 -0.0580981 -1.38533e-16)
(0.00190902 -0.0349312 1.73503e-19)
(0.00373251 -0.0143688 2.55682e-18)
(0.00358697 0.00589362 5.30397e-17)
(0.00440621 0.027049 3.96784e-17)
(0.00636322 0.0504142 -5.8797e-19)
(0.00927224 0.0762239 -2.86307e-17)
(0.0128138 0.10274 0)
(0.0165816 0.127391 1.98494e-17)
(0.0202206 0.148116 -1.64561e-17)
(0.023474 0.164264 0)
(0.026356 0.176546 0)
(0.0288778 0.18578 -3.31227e-19)
(0.0310292 0.192518 2.89354e-19)
(0.032858 0.197297 2.52699e-19)
(0.0344146 0.200606 6.85361e-18)
(0.0357511 0.202837 -6.24471e-18)
(0.0369159 0.204284 0)
(0.0379488 0.205155 1.53433e-19)
(0.0388805 0.205594 4.8079e-18)
(0.0397339 0.205703 -8.07319e-18)
(0.040526 0.205552 3.50594e-18)
(0.0412694 0.20519 2.06511e-19)
(0.0419733 0.20465 3.03192e-18)
(0.0426445 0.203959 -2.81644e-18)
(0.0432879 0.203133 -2.76967e-18)
(0.0439073 0.202186 2.75017e-18)
(0.0445053 0.201127 1.2406e-22)
(0.0450839 0.199962 -2.14737e-18)
(0.0456445 0.198695 2.03833e-18)
(0.0461879 0.197331 0)
(0.0467147 0.195871 0)
(0.0472253 0.194317 -1.73604e-18)
(0.0477198 0.192668 1.87423e-18)
(0.048198 0.190926 -1.58322e-18)
(0.0486597 0.189089 1.52614e-18)
(0.0491048 0.187158 -1.2717e-18)
(0.0495328 0.185131 -1.65023e-19)
(0.0499433 0.183008 1.00806e-20)
(0.0503358 0.180787 2.59528e-18)
(0.0507099 0.178466 -2.50114e-18)
(0.051065 0.176045 1.06065e-18)
(0.0514006 0.173522 0)
(0.0517164 0.170895 0)
(0.0520117 0.168163 -1.35796e-19)
(0.0522862 0.165324 -1.04583e-18)
(0.0525394 0.162375 8.94807e-19)
(0.052771 0.159315 -7.32777e-19)
(0.0529805 0.156143 1.19635e-18)
(0.0531677 0.152855 1.14756e-18)
(0.0533322 0.149449 -1.12236e-18)
(0.0534738 0.145924 0)
(0.0535922 0.142277 -6.22643e-19)
(0.0536871 0.138506 8.18151e-19)
(0.0537585 0.134607 0)
(0.053806 0.130578 1.90358e-19)
(0.0538296 0.126417 1.84388e-19)
(0.0538289 0.122119 -3.57746e-19)
(0.0538037 0.117683 -1.7293e-19)
(0.0537538 0.113104 3.35408e-19)
(0.0536789 0.108379 1.28374e-18)
(0.0535785 0.103504 -1.58275e-18)
(0.0534522 0.0984749 1.1997e-18)
(0.0532993 0.0932878 -1.76029e-18)
(0.0531191 0.0879381 1.14889e-18)
(0.0529106 0.0824208 -1.35306e-18)
(0.0526726 0.0767307 1.33633e-18)
(0.0524038 0.0708622 -2.54211e-19)
(0.0521022 0.0648091 -1.20768e-18)
(0.0517658 0.0585648 9.60044e-19)
(0.0513919 0.0521217 0)
(0.0509773 0.0454713 -2.16639e-19)
(0.0505205 0.0386041 0)
(0.0500237 0.0316103 0)
(0.049495 0.0246817 0)
(0.0489417 0.0179106 8.33786e-19)
(0.0483657 0.0112874 -6.52407e-19)
(0.0477675 0.00480126 -2.95585e-19)
(0.0471467 -0.00155977 -2.7357e-19)
(0.0465032 -0.0078089 1.2596e-19)
(0.0458374 -0.0139607 -1.16647e-19)
(0.0451496 -0.0200309 -4.14648e-19)
(0.0444408 -0.0260367 4.09003e-19)
(0.0437124 -0.0319963 3.49203e-19)
(0.0429663 -0.0379292 -2.62464e-20)
(0.0422051 -0.0438543 -8.97479e-19)
(0.0414315 -0.0497846 4.90652e-20)
(0.0406492 -0.0557257 5.18924e-19)
(0.0398617 -0.06168 -5.53654e-20)
(0.0390726 -0.0676497 2.45847e-20)
(0.0382857 -0.0736363 -3.19127e-19)
(0.0375053 -0.0796412 3.12457e-19)
(0.0367357 -0.0856641 -1.55334e-20)
(0.0359814 -0.0917036 1.27515e-20)
(0.0352466 -0.0977566 1.37295e-19)
(0.0345354 -0.103818 -2.46803e-19)
(0.0338516 -0.109883 1.13614e-19)
(0.0331987 -0.115943 4.54132e-20)
(0.0325804 -0.121989 -6.05966e-20)
(0.0319994 -0.128011 5.85994e-21)
(0.0314575 -0.133997 1.09587e-20)
(0.0309552 -0.139937 -5.57873e-20)
(0.0304928 -0.145823 5.37611e-20)
(0.156696 -0.117525 8.67592e-17)
(-0.0229623 -0.0589542 0)
(0.00298408 -0.0395237 1.18442e-16)
(0.00408114 -0.0231267 1.11111e-18)
(0.00337734 -0.00738366 -1.11146e-16)
(0.00358438 0.00877986 8.48298e-17)
(0.00464493 0.0263792 -3.34967e-17)
(0.00650844 0.046394 0)
(0.00919156 0.0691255 2.77243e-17)
(0.0125338 0.0933028 -4.69296e-17)
(0.0162234 0.116805 1.94318e-17)
(0.0199372 0.137591 -5.24968e-19)
(0.0233715 0.154426 1.41135e-17)
(0.0264411 0.167544 -2.44353e-17)
(0.0291912 0.177691 1.04465e-17)
(0.0315837 0.185402 -5.95299e-19)
(0.0336489 0.191092 8.40147e-18)
(0.0354229 0.195175 -6.98748e-18)
(0.0369476 0.198029 0)
(0.0382688 0.199962 5.85286e-18)
(0.0394288 0.201207 -5.90182e-18)
(0.0404628 0.201935 -2.94102e-19)
(0.0413987 0.202267 0)
(0.0422575 0.20229 -4.82442e-19)
(0.0430554 0.202064 0)
(0.0438044 0.201634 3.02996e-18)
(0.0445133 0.201029 1.73551e-19)
(0.0451889 0.200274 -3.12964e-18)
(0.0458362 0.199384 -1.61653e-19)
(0.0464588 0.19837 0)
(0.0470595 0.197243 0)
(0.0476403 0.196007 0)
(0.0482026 0.194667 -1.76812e-18)
(0.0487473 0.193226 1.92784e-18)
(0.0492751 0.191685 -2.28257e-19)
(0.0497864 0.190047 1.73484e-18)
(0.0502812 0.188311 -1.45895e-18)
(0.0507595 0.186477 1.5831e-18)
(0.0512213 0.184546 -1.52699e-18)
(0.0516661 0.182515 0)
(0.0520938 0.180385 1.74693e-18)
(0.0525039 0.178154 -1.35328e-18)
(0.0528959 0.175821 9.67308e-19)
(0.0532695 0.173383 -9.4267e-19)
(0.0536242 0.170841 3.01463e-19)
(0.0539595 0.168192 -2.90868e-19)
(0.054275 0.165434 0)
(0.0545704 0.162565 -3.67276e-22)
(0.054845 0.159584 0)
(0.0550988 0.156488 1.76127e-18)
(0.0553311 0.153276 -2.21568e-18)
(0.0555418 0.149945 2.36732e-19)
(0.0557306 0.146492 -1.82156e-18)
(0.0558972 0.142916 1.56496e-18)
(0.0560414 0.139214 -2.14486e-19)
(0.0561629 0.135384 0)
(0.0562616 0.131422 0)
(0.0563373 0.127326 -1.54352e-18)
(0.0563898 0.123093 4.03077e-19)
(0.0564189 0.11872 1.47121e-18)
(0.0564243 0.114203 1.04383e-18)
(0.0564058 0.10954 -1.37795e-18)
(0.056363 0.104726 0)
(0.0562955 0.0997582 0)
(0.0562027 0.0946323 -3.0744e-19)
(0.056084 0.089344 0)
(0.0559384 0.0838889 -2.8757e-19)
(0.0557649 0.0782622 8.12665e-19)
(0.0555623 0.0724588 -1.08211e-18)
(0.0553288 0.0664731 5.12953e-19)
(0.0550626 0.060299 4.93007e-19)
(0.054761 0.05393 4.73165e-19)
(0.0544214 0.0473584 0)
(0.0540422 0.0405759 4.09834e-19)
(0.0536252 0.0336728 -4.26955e-19)
(0.0531762 0.0268396 7.44125e-19)
(0.0527014 0.0201679 -3.74817e-19)
(0.0522031 0.013649 1.29095e-18)
(0.0516818 0.00727277 -7.19854e-20)
(0.0511372 0.00102777 2.17443e-19)
(0.050569 -0.00509868 -1.09107e-18)
(0.0499775 -0.0111208 8.22702e-19)
(0.049363 -0.0170545 -7.05892e-19)
(0.0487263 -0.0229168 0)
(0.0480683 -0.0287269 9.55922e-20)
(0.0473908 -0.0345053 6.72362e-19)
(0.0466958 -0.0402727 -1.33561e-19)
(0.045986 -0.0460453 -5.16532e-20)
(0.0452645 -0.0518308 -5.49274e-19)
(0.0445348 -0.0576332 -3.49165e-22)
(0.0438005 -0.0634564 2.87679e-19)
(0.0430654 -0.0693042 -3.84412e-19)
(0.0423337 -0.0751796 2.91305e-19)
(0.04161 -0.0810849 -3.02057e-19)
(0.0408987 -0.0870203 2.00792e-19)
(0.0402044 -0.0929844 -1.84959e-19)
(0.0395313 -0.098974 0)
(0.0388832 -0.104984 0)
(0.0382647 -0.111007 5.437e-20)
(0.0376795 -0.117042 -4.66699e-20)
(0.0371309 -0.123077 2.45433e-22)
(0.0366227 -0.129091 -8.2076e-23)
(0.0361552 -0.135069 -5.88261e-20)
(0.0357284 -0.141006 5.6699e-20)
(0.158934 -0.113397 -3.93367e-18)
(-0.0222671 -0.0588917 2.9868e-16)
(0.00400547 -0.0420804 -2.48882e-16)
(0.00467655 -0.0288641 7.92862e-17)
(0.00360237 -0.0164873 0)
(0.00334882 -0.00414163 0)
(0.00381443 0.00910637 -2.18477e-18)
(0.00485454 0.023884 -3.0382e-17)
(0.0065358 0.0409858 5.47589e-17)
(0.0089773 0.0608945 -2.55932e-17)
(0.0120968 0.0828173 0)
(0.0156746 0.105088 -1.84442e-22)
(0.0194037 0.125795 -5.36761e-19)
(0.0230407 0.143506 0)
(0.0263352 0.157657 7.75895e-19)
(0.0292986 0.168785 6.84523e-19)
(0.0319665 0.177524 -6.12407e-19)
(0.03429 0.184226 -5.46699e-19)
(0.0363112 0.189221 0)
(0.0380621 0.192839 0)
(0.0395783 0.195383 3.89636e-19)
(0.0409003 0.197108 -2.81597e-22)
(0.0420664 0.198207 3.14847e-19)
(0.0431089 0.198826 -2.436e-22)
(0.0440536 0.19907 0)
(0.0449208 0.199017 -2.364e-19)
(0.0457259 0.198722 -6.49996e-19)
(0.0464808 0.198225 -2.00027e-19)
(0.0471943 0.197554 0)
(0.0478732 0.196731 0)
(0.0485226 0.195771 -3.21693e-19)
(0.0491463 0.194685 3.01587e-19)
(0.0497471 0.193483 1.69486e-18)
(0.0503272 0.192168 -2.80246e-19)
(0.050888 0.190746 -2.6566e-19)
(0.0514305 0.18922 -2.16789e-18)
(0.0519556 0.18759 -1.82082e-18)
(0.0524635 0.185859 2.18247e-18)
(0.0529545 0.184026 -1.65613e-18)
(0.0534287 0.182091 1.59529e-18)
(0.0538859 0.180054 -3.80322e-19)
(0.0543258 0.177913 0)
(0.0547484 0.175669 3.14175e-18)
(0.0551531 0.173319 -2.70598e-18)
(0.0555396 0.170862 -3.2386e-19)
(0.0559077 0.168297 3.11852e-19)
(0.0562567 0.165621 3.00927e-19)
(0.0565865 0.162833 -1.72767e-18)
(0.0568966 0.159931 2.2503e-18)
(0.0571867 0.156913 0)
(0.0574564 0.153777 -5.21964e-19)
(0.0577054 0.150521 0)
(0.0579334 0.147142 0)
(0.0581402 0.143638 -4.70917e-19)
(0.0583257 0.140007 0)
(0.0584895 0.136245 -4.401e-19)
(0.0586315 0.132351 4.25506e-19)
(0.0587515 0.128322 -1.63026e-18)
(0.0588494 0.124155 2.00133e-18)
(0.058925 0.119846 1.52215e-18)
(0.0589781 0.115393 -1.87143e-18)
(0.0590084 0.110793 7.18259e-19)
(0.0590157 0.106042 6.77124e-19)
(0.0589994 0.101136 -1.35453e-18)
(0.0589593 0.0960723 1.27622e-18)
(0.0588945 0.0908465 -1.26335e-18)
(0.0588043 0.0854544 6.00459e-19)
(0.0586879 0.0798918 1.14072e-18)
(0.0585439 0.074154 -1.13294e-18)
(0.0583709 0.0682359 -5.35479e-19)
(0.058167 0.0621321 -1.02985e-18)
(0.05793 0.0558368 4.74548e-19)
(0.0576571 0.0493432 1.35748e-18)
(0.0573473 0.0426441 -4.91643e-19)
(0.0570015 0.03583 1.23305e-18)
(0.0566237 0.0290897 -1.63768e-18)
(0.0562193 0.0225145 1.15445e-21)
(0.0557907 0.0160967 -1.00303e-18)
(0.0553384 0.00982675 1.65352e-18)
(0.0548622 0.00369412 0)
(0.054362 -0.00231326 0)
(0.0538378 -0.00820909 2.55899e-19)
(0.0532898 -0.0140087 -1.15037e-18)
(0.0527187 -0.0197293 9.0264e-19)
(0.0521251 -0.0253898 6.72184e-19)
(0.0515106 -0.0310114 -5.807e-19)
(0.0508767 -0.0366163 5.61172e-19)
(0.0502257 -0.0422237 -5.64026e-19)
(0.0495606 -0.0478444 -6.95412e-20)
(0.0488848 -0.0534838 6.18911e-20)
(0.0482015 -0.0591475 5.48505e-20)
(0.0475147 -0.0648412 0)
(0.0468285 -0.0705703 0)
(0.0461476 -0.0763391 3.5319e-20)
(0.0454767 -0.0821501 2.97062e-20)
(0.0448206 -0.0880037 1.71851e-19)
(0.0441837 -0.0938979 -3.73074e-20)
(0.0435705 -0.0998284 -1.40982e-19)
(0.0429862 -0.105791 5.56949e-20)
(0.0424339 -0.111788 -5.65679e-20)
(0.0419174 -0.117811 8.55509e-21)
(0.0414406 -0.123838 -9.71706e-21)
(0.041005 -0.129845 -5.90198e-20)
(0.0406117 -0.135821 -2.50077e-20)
(0.161005 -0.109226 -8.68413e-17)
(-0.0216687 -0.0582121 1.54427e-16)
(0.00494666 -0.0432707 -2.60829e-16)
(0.00536884 -0.0324654 8.53512e-17)
(0.00408518 -0.0225506 1.76207e-18)
(0.00353937 -0.0129884 -4.19649e-17)
(0.00358247 -0.00298127 7.06619e-17)
(0.0040703 0.00806428 -3.02797e-17)
(0.00501751 0.0205575 2.81485e-17)
(0.00650891 0.0351319 -2.57362e-17)
(0.00868816 0.0523799 0)
(0.0115475 0.0719878 7.01967e-19)
(0.0149499 0.0927786 -2.07461e-17)
(0.0186604 0.113119 1.76413e-17)
(0.0224049 0.131456 -9.44867e-19)
(0.025964 0.146806 -1.29004e-17)
(0.0291816 0.159101 1.19748e-17)
(0.0320939 0.168886 1.0676e-17)
(0.034705 0.176638 -2.98654e-20)
(0.0369977 0.182634 -8.18929e-18)
(0.0390049 0.18714 -4.60026e-19)
(0.0407531 0.190427 4.1371e-19)
(0.042275 0.192748 -1.11905e-18)
(0.0436076 0.194317 -3.37289e-19)
(0.0447862 0.195302 -5.4828e-18)
(0.0458412 0.195831 5.00352e-18)
(0.0467973 0.195999 -4.86653e-22)
(0.0476741 0.195875 4.64274e-19)
(0.0484869 0.195511 -4.27943e-19)
(0.0492474 0.194945 3.95742e-19)
(0.0499648 0.194205 3.29753e-18)
(0.0506459 0.193309 -3.08826e-18)
(0.0512959 0.192274 3.20098e-19)
(0.0519188 0.19111 -3.35994e-22)
(0.0525176 0.189824 2.82926e-19)
(0.0530944 0.188424 2.67168e-19)
(0.053651 0.186912 -4.28911e-18)
(0.0541884 0.185291 2.68472e-20)
(0.0547075 0.183563 4.12526e-18)
(0.0552088 0.181729 0)
(0.0556924 0.179789 0)
(0.0561586 0.177742 0)
(0.0566072 0.175589 -3.41182e-18)
(0.0570383 0.173328 2.93136e-18)
(0.0574514 0.170958 0)
(0.0578465 0.168478 0)
(0.0582232 0.165885 -2.89773e-18)
(0.0585812 0.163179 2.19192e-18)
(0.0589203 0.160357 2.38484e-18)
(0.05924 0.157418 -2.32373e-18)
(0.0595402 0.154359 5.56484e-19)
(0.0598206 0.151178 0)
(0.0600809 0.147873 0)
(0.0603209 0.144442 1.00044e-18)
(0.0605405 0.140882 1.91763e-18)
(0.0607394 0.13719 -1.41331e-18)
(0.0609175 0.133365 -4.49883e-19)
(0.0610747 0.129403 0)
(0.0612108 0.125302 -2.08445e-18)
(0.0613258 0.121058 3.02942e-20)
(0.0614193 0.11667 1.97296e-18)
(0.0614913 0.112133 -1.51219e-18)
(0.0615415 0.107445 7.29037e-19)
(0.0615694 0.102602 0)
(0.0615747 0.0976007 0)
(0.0615568 0.0924377 6.36568e-19)
(0.061515 0.0871089 -3.55926e-20)
(0.0614484 0.0816106 -3.65952e-20)
(0.0613558 0.0759383 -6.02213e-19)
(0.0612359 0.0700876 0)
(0.061087 0.0640537 1.07763e-18)
(0.0609068 0.0578313 1.03428e-18)
(0.0606929 0.0514146 -1.48336e-18)
(0.0604443 0.0447973 -9.3846e-19)
(0.0601614 0.0380699 0)
(0.0598465 0.0314198 -2.46171e-18)
(0.0595043 0.0249379 1.9925e-18)
(0.0591373 0.0186173 1.21672e-21)
(0.058746 0.0124496 -3.39451e-19)
(0.0583304 0.00642476 3.15386e-19)
(0.0578904 0.000531778 2.91831e-19)
(0.057426 -0.00524234 0)
(0.0569373 -0.0109123 0)
(0.0564248 -0.0164946 0)
(0.055889 -0.0220081 -8.11806e-19)
(0.0553311 -0.0274735 -1.3264e-19)
(0.0547524 -0.0329142 1.59635e-18)
(0.0541549 -0.0383519 -7.56502e-19)
(0.053541 -0.0438009 -4.8541e-19)
(0.052914 -0.0492689 5.52658e-19)
(0.0522772 -0.0547626 0)
(0.0516344 -0.0602896 3.85758e-19)
(0.0509897 -0.0658576 -3.79767e-19)
(0.0503477 -0.0714732 0)
(0.0497135 -0.0771416 -6.34501e-20)
(0.049092 -0.0828655 -1.85378e-19)
(0.0484883 -0.0886454 1.81318e-19)
(0.0479074 -0.0944787 -1.00434e-19)
(0.047355 -0.10036 9.76582e-20)
(0.0468349 -0.106291 0)
(0.0463505 -0.112272 6.14437e-21)
(0.0459047 -0.118285 -7.14207e-21)
(0.0455001 -0.124302 5.88314e-20)
(0.0451387 -0.130306 -1.47839e-19)
(0.0448211 -0.136291 9.26304e-20)
(0.162906 -0.105067 2.75803e-18)
(-0.0211914 -0.0571654 0)
(0.00579774 -0.0435423 -1.30074e-16)
(0.00609202 -0.0346253 8.97158e-17)
(0.00469231 -0.0265258 -8.67044e-23)
(0.00398519 -0.0189582 -1.31366e-18)
(0.00375888 -0.0112659 0)
(0.00387179 -0.00295854 -2.87294e-17)
(0.00432498 0.00635673 2.77306e-17)
(0.00517032 0.0169887 0)
(0.00647768 0.0293966 1.49009e-18)
(0.00838676 0.0441705 0)
(0.010959 0.0614224 -2.82153e-22)
(0.0141338 0.0804559 -2.01516e-17)
(0.0177383 0.0999934 3.61015e-17)
(0.021529 0.118567 -1.58201e-17)
(0.0252819 0.134977 1.35847e-17)
(0.0287832 0.148569 -2.49457e-17)
(0.0319525 0.159514 1.03972e-17)
(0.0348404 0.168318 5.8643e-19)
(0.0374229 0.175351 -5.33176e-19)
(0.0397063 0.180833 -6.74926e-18)
(0.041716 0.184979 7.89377e-18)
(0.0434736 0.188018 7.93034e-19)
(0.0450093 0.190167 7.19114e-19)
(0.0463577 0.191611 -6.53844e-19)
(0.0475521 0.1925 5.9484e-19)
(0.0486216 0.192948 0)
(0.0495901 0.193042 -5.17273e-22)
(0.0504769 0.192848 4.86998e-22)
(0.0512973 0.192414 -4.23572e-19)
(0.0520631 0.191775 0)
(0.0527835 0.190959 0)
(0.0534656 0.189986 5.77834e-18)
(0.0541147 0.188868 -4.48488e-18)
(0.0547351 0.187618 0)
(0.0553299 0.186242 -4.50812e-18)
(0.0559013 0.184747 7.47815e-18)
(0.0564512 0.183136 -4.56709e-18)
(0.0569808 0.181412 0)
(0.057491 0.179576 -4.09663e-18)
(0.0579823 0.177629 3.4953e-18)
(0.0584552 0.175572 8.30674e-19)
(0.0589099 0.173403 -3.55868e-18)
(0.0593464 0.171123 2.67318e-18)
(0.0597646 0.16873 0)
(0.0601646 0.166222 2.78007e-18)
(0.0605461 0.163599 -3.36773e-18)
(0.060909 0.160859 2.56391e-18)
(0.061253 0.157999 -1.87287e-18)
(0.061578 0.155017 -2.96825e-18)
(0.0618839 0.151913 2.31114e-18)
(0.0621704 0.148682 -5.5359e-19)
(0.0624373 0.145324 1.58483e-18)
(0.0626847 0.141836 -2.95858e-20)
(0.0629122 0.138215 -1.99662e-18)
(0.06312 0.134458 0)
(0.0633078 0.130564 -2.75034e-18)
(0.0634756 0.126529 2.66611e-18)
(0.0636233 0.122351 -1.73101e-18)
(0.0637508 0.118027 0)
(0.0638578 0.113554 7.96899e-19)
(0.0639443 0.108929 2.29124e-18)
(0.0640098 0.104149 7.07556e-19)
(0.064054 0.0992102 -3.54747e-20)
(0.0640763 0.0941099 -7.07005e-19)
(0.0640762 0.0888444 2.61227e-18)
(0.0640527 0.08341 -2.58716e-18)
(0.0640048 0.077803 -1.22506e-18)
(0.0639311 0.0720191 2.31203e-18)
(0.0638301 0.0660543 -1.7321e-18)
(0.0636995 0.0599038 -2.16168e-18)
(0.0635371 0.0535625 3.05448e-18)
(0.063342 0.0470252 -1.02686e-18)
(0.0631139 0.0403821 0)
(0.0628539 0.0338193 -8.29258e-19)
(0.062566 0.0274272 8.60815e-19)
(0.0622526 0.0211999 -2.62594e-18)
(0.0619145 0.0151296 1.81588e-18)
(0.0615518 0.00920764 -6.60926e-19)
(0.0611644 0.00342365 -1.49097e-18)
(0.0607522 -0.00223438 7.25191e-20)
(0.0603154 -0.00778019 6.99614e-20)
(0.0598544 -0.0132296 9.96476e-19)
(0.0593695 -0.0186005 1.07565e-18)
(0.0588616 -0.0239134 -6.33966e-20)
(0.0583321 -0.0291911 -5.90281e-19)
(0.0577824 -0.0344577 1.71028e-19)
(0.0572146 -0.0397314 -5.89763e-19)
(0.0566317 -0.0450223 7.24299e-19)
(0.0560372 -0.0503385 0)
(0.0554346 -0.0556891 4.10301e-19)
(0.0548281 -0.0610837 -7.11265e-19)
(0.0542223 -0.0665316 3.48901e-19)
(0.0536221 -0.0720406 2.82785e-19)
(0.0530329 -0.0776163 -2.44424e-19)
(0.0524601 -0.0832622 2.20071e-20)
(0.0519089 -0.0889788 -9.33281e-20)
(0.0513847 -0.0947641 9.56793e-20)
(0.0508925 -0.100614 6.16075e-21)
(0.0504359 -0.106529 1.31616e-21)
(0.0500177 -0.112498 0)
(0.0496425 -0.118497 3.34983e-21)
(0.0493119 -0.124507 -5.07539e-21)
(0.0490269 -0.130519 -6.62424e-21)
(0.0487883 -0.13652 2.64339e-19)
(0.0485958 -0.142499 -2.78763e-19)
(0.164639 -0.100955 -8.96876e-17)
(-0.0208253 -0.0559226 0)
(0.00655655 -0.0432576 1.45627e-16)
(0.00681109 -0.0358701 -9.48108e-17)
(0.00536419 -0.0291246 -1.9001e-18)
(0.00457552 -0.0229824 2.67664e-18)
(0.00419838 -0.0169189 3.35897e-17)
(0.00408014 -0.0105309 -2.9655e-17)
(0.00421042 -0.00350828 -1.62669e-18)
(0.00462039 0.00442681 -2.5681e-17)
(0.00536605 0.013523 2.28693e-17)
(0.00650245 0.0240824 1.38205e-18)
(0.00815219 0.0366351 -1.86564e-22)
(0.0104219 0.0515855 1.3285e-18)
(0.0133135 0.0686517 1.25545e-18)
(0.0167255 0.0869586 1.83708e-17)
(0.0204732 0.10527 -4.71399e-20)
(0.0243165 0.122323 -1.35157e-17)
(0.0280732 0.137182 0)
(0.0315322 0.149417 -6.76306e-19)
(0.03467 0.159329 -8.46559e-18)
(0.0375491 0.167382 7.74873e-18)
(0.0401199 0.173865 8.06233e-18)
(0.0424058 0.17895 -7.38619e-18)
(0.0444259 0.182814 0)
(0.0461989 0.185654 7.64945e-19)
(0.0477525 0.187659 0)
(0.0491197 0.188995 6.37117e-19)
(0.0503319 0.189794 1.16483e-18)
(0.051417 0.190163 -5.33763e-19)
(0.0523986 0.190183 4.90881e-19)
(0.0532958 0.189915 -9.06817e-19)
(0.0541237 0.189406 8.39447e-19)
(0.0548943 0.18869 -6.99528e-18)
(0.055617 0.187793 5.82722e-18)
(0.056299 0.186734 0)
(0.056946 0.185527 5.0749e-18)
(0.0575621 0.184182 -3.60687e-18)
(0.0581508 0.182708 0)
(0.0587145 0.18111 0)
(0.059255 0.179391 5.04766e-19)
(0.0597739 0.177554 0)
(0.060272 0.1756 -4.55625e-19)
(0.0607502 0.17353 0)
(0.0612089 0.171345 -2.88595e-18)
(0.0616485 0.169043 3.18229e-18)
(0.0620691 0.166624 -7.58059e-19)
(0.0624709 0.164086 7.2487e-19)
(0.0628539 0.161429 0)
(0.0632181 0.15865 -6.66716e-19)
(0.0635635 0.155748 6.40194e-19)
(0.06389 0.15272 6.16172e-19)
(0.0641976 0.149565 -1.00593e-21)
(0.0644862 0.146281 0)
(0.0647559 0.142864 1.6276e-18)
(0.0650065 0.139314 -3.18462e-20)
(0.0652382 0.135626 -2.04799e-18)
(0.0654508 0.1318 9.7762e-19)
(0.0656443 0.127832 -9.26848e-19)
(0.0658188 0.123719 9.24005e-19)
(0.0659742 0.119459 -1.7324e-18)
(0.0661103 0.11505 2.52715e-18)
(0.066227 0.110488 -2.45195e-18)
(0.066324 0.10577 -2.32566e-18)
(0.066401 0.100894 1.52338e-18)
(0.0664575 0.0958557 -7.24837e-19)
(0.0664929 0.0906529 -2.74605e-18)
(0.0665064 0.085282 1.37695e-18)
(0.0664969 0.0797394 -6.00563e-19)
(0.0664631 0.0740216 3.74455e-18)
(0.0664034 0.0681248 3.12197e-21)
(0.0663158 0.0620449 -3.09445e-21)
(0.0661979 0.0557776 -2.11609e-18)
(0.0660491 0.0493183 2.05391e-18)
(0.0658685 0.0427571 -2.96244e-18)
(0.0656559 0.0362786 -1.78036e-18)
(0.0654146 0.0299729 2.61167e-18)
(0.0651474 0.0238347 -1.55664e-18)
(0.0648549 0.0178574 3.72749e-18)
(0.0645375 0.012033 -1.08252e-18)
(0.0641951 0.00635217 1.24611e-18)
(0.0638276 0.000804009 -1.22672e-18)
(0.0634354 -0.00462421 -1.33617e-18)
(0.0630186 -0.00994721 7.93955e-19)
(0.0625777 -0.015182 6.65246e-19)
(0.0621132 -0.020348 -1.1044e-18)
(0.0616263 -0.0254674 -1.95848e-19)
(0.0611183 -0.0305648 3.27644e-19)
(0.0605909 -0.0356623 -1.46923e-18)
(0.0600468 -0.0407739 6.18975e-19)