/*--------------------------------*- C++ -*----------------------------------*\
  =========                 |
  \\      /  F ield         | OpenFOAM: The Open Source CFD Toolbox
   \\    /   O peration     | Website:  https://openfoam.org
    \\  /    A nd           | Version:  10
     \\/     M anipulation  |
\*---------------------------------------------------------------------------*/
FoamFile
{
    format      ascii;
    class       volScalarField;
    location    "12000";
    object      Co;
}
// * * * * * * * * * * * * * * * * * * * * * * * * * * * * * * * * * * * * * //

dimensions      [0 0 0 0 0 0 0];

internalField   nonuniform List<scalar> 
17981
(
18.5846
19.1113
19.7192
20.326
20.933
21.5409
22.1502
22.7616
23.3757
23.993
24.6141
25.2396
25.87
26.5059
27.1476
27.7959
28.4512
29.1139
29.7848
30.4641
31.1526
31.8507
32.5589
33.2777
34.0078
34.7496
35.5037
36.2706
37.0508
37.845
38.6537
39.4775
40.3169
41.1726
42.0451
42.9351
43.8431
44.7699
45.716
46.6821
47.6689
48.677
49.7073
50.7603
51.8368
52.9497
54.1188
55.353
19.7991
20.4064
21.018
21.6316
22.2471
22.8648
23.4852
24.1086
24.7357
25.3667
26.0024
26.643
27.2893
27.9415
28.6003
29.2662
29.9397
30.6213
31.3115
32.0109
32.7199
33.4392
34.1693
34.9106
35.6638
36.4294
37.208
38.0001
38.8062
39.627
40.463
41.3149
42.1832
43.0685
43.9714
44.8927
45.8328
46.7925
47.7724
48.7732
49.7955
50.8402
51.9078
52.9992
54.1151
55.2673
56.4751
57.7486
21.0267
21.6475
22.2692
22.8924
23.5176
24.1455
24.7765
25.4111
26.0497
26.6927
27.3407
27.9942
28.6536
29.3196
29.9925
30.673
31.3616
32.0587
32.765
33.4809
34.207
34.9439
35.6921
36.4521
37.2246
38.0101
38.8091
39.6222
40.4501
41.2932
42.1523
43.0278
43.9205
44.831
45.7598
46.7077
47.6753
48.6633
49.6723
50.7031
51.7564
52.8328
53.9332
55.0583
56.2089
57.3955
58.6364
59.9432
24.79
25.4288
26.0707
26.7161
27.3657
28.0199
28.6793
29.3444
30.0158
30.694
31.3796
32.073
32.7749
33.4859
34.2063
34.9369
35.6781
36.4306
37.1948
37.9713
38.7608
39.5638
40.3808
41.2126
42.0595
42.9224
43.8017
44.6982
45.6124
46.5449
47.4966
48.4679
49.4596
50.4724
51.507
52.5642
53.6446
54.749
55.8783
57.0331
58.2144
59.4307
60.6993
62.0335
26.0426
26.6893
27.3394
27.993
28.6508
29.3133
29.9813
30.6552
31.3357
32.0233
32.7186
33.4222
34.1346
34.8564
35.5881
36.3304
37.0838
37.8488
38.6261
39.4162
40.2197
41.0371
41.8691
42.7163
43.5792
44.4584
45.3547
46.2685
47.2006
48.1516
49.1221
50.1129
51.1245
52.1578
53.2133
54.2919
55.3942
56.5211
57.6733
58.8515
60.0567
61.2957
62.5853
63.941
27.2886
27.942
28.5986
29.2588
29.9234
30.5929
31.268
31.9493
32.6373
33.3327
34.0361
34.7481
35.4692
36.2001
36.9412
37.6932
38.4567
39.2322
40.0203
40.8216
41.6367
42.4662
43.3106
44.1706
45.0468
45.9397
46.8501
47.7785
48.7256
49.692
50.6783
51.6854
52.7138
53.7642
54.8374
55.9341
57.055
58.2008
59.3724
60.5705
61.796
63.0543
64.3617
65.7359
29.1843
29.8453
30.5105
31.1799
31.8544
32.5347
33.2213
33.9148
34.616
35.3254
36.0436
36.7712
37.5088
38.257
39.0164
39.7877
40.5713
41.3678
42.178
43.0023
43.8413
44.6958
45.5662
46.4531
47.3574
48.2794
49.22
50.1797
51.1592
52.1593
53.1805
54.2236
55.2894
56.3784
57.4916
58.6296
59.7932
60.9833
62.2006
63.446
64.7231
66.0473
67.4375
31.7588
32.433
33.112
33.7968
34.4879
35.1862
35.8922
36.6067
37.3301
38.0633
38.8067
39.561
40.3268
41.1048
41.8955
42.6995
43.5175
44.35
45.1976
46.061
46.9408
47.8376
48.752
49.6848
50.6364
51.6077
52.5993
53.6119
54.6461
55.7028
56.7826
57.8863
59.0146
60.1683
61.3482
62.5552
63.7901
65.0537
66.3477
67.6867
69.0905
33.6832
34.3664
35.0551
35.7501
36.4523
37.1623
37.8808
38.6086
39.3463
40.0946
40.854
41.6253
42.409
43.2057
44.0162
44.841
45.6806
46.5359
47.4073
48.2954
49.201
50.1247
51.0671
52.0289
53.0107
54.0133
55.0373
56.0835
57.1525
58.2452
59.3622
60.5043
61.6724
62.8672
64.0895
65.3402
66.6202
67.9302
69.2839
70.7006
36.3163
37.0155
37.7216
38.4354
39.1577
39.8893
40.6312
41.3838
42.1479
42.9241
43.713
44.5152
45.3315
46.1623
47.0084
47.8703
48.7488
49.6445
50.5579
51.4899
52.441
53.4119
54.4032
55.4158
56.4502
57.5072
58.5874
59.6918
60.8209
61.9757
63.1568
64.3651
65.6015
66.8667
68.1616
69.4872
70.8545
72.2808
40.4356
41.172
41.9185
42.6758
43.4445
44.2254
45.0191
45.8263
46.6476
47.4836
48.3351
49.2027
50.0872
50.9891
51.9091
52.848
53.8065
54.7851
55.7846
56.8058
57.8492
58.9156
60.0058
61.1204
62.2603
63.4262
64.6189
65.8392
67.0879
68.366
69.6743
71.0136
72.3911
73.8217
41.7208
42.4617
43.2132
43.9754
44.7489
45.5346
46.333
47.1449
47.9709
48.8117
49.6681
50.5407
51.4303
52.3375
53.2631
54.2078
55.1722
56.1572
57.1634
58.1915
59.2423
60.3166
61.4149
62.5382
63.6871
64.8624
66.0649
67.2954
68.5547
69.8437
71.1633
72.5143
73.8998
75.3327
43.0152
43.7615
44.518
45.2851
46.0635
46.854
47.6571
48.4736
49.3043
50.1497
51.0107
51.888
52.7823
53.6944
54.6249
55.5745
56.5441
57.5343
58.546
59.5798
60.6364
61.7168
62.8216
63.9515
65.1075
66.2902
67.5005
68.7391
70.0069
71.3047
72.6333
73.9937
75.3868
76.8246
44.3216
45.074
45.8362
46.6091
47.3931
48.189
48.9975
49.8192
50.6549
51.5053
52.3712
53.2533
54.1523
55.069
56.0042
56.9585
57.9328
58.9277
59.9442
60.9828
62.0444
63.1298
64.2398
65.3752
66.5367
67.7252
68.9415
70.1865
71.461
72.7658
74.1019
75.47
76.8711
78.3145
46.3966
47.1665
47.9467
48.7379
49.5406
50.3557
51.1838
52.0256
52.8819
53.7535
54.641
55.5453
56.4672
57.4073
58.3665
59.3455
60.3451
61.3662
62.4094
63.4756
64.5656
65.6802
66.8202
67.9865
69.1799
70.4013
71.6515
72.9315
74.2421
75.5843
76.9589
78.3669
79.8128
47.7274
48.5064
49.296
50.0962
50.9077
51.7311
52.5673
53.4168
54.2806
55.1593
56.0537
56.9645
57.8926
58.8388
59.8037
60.7882
61.7931
62.8192
63.8672
64.9381
66.0325
67.1514
68.2956
69.4659
70.6631
71.8883
73.1421
74.4256
75.7397
77.0853
78.4632
79.8746
81.3209
49.0595
49.8503
50.6511
51.4622
52.2844
53.1182
53.9644
54.8237
55.6967
56.5844
57.4873
58.4063
59.3422
60.2957
61.2676
62.2588
63.27
64.302
65.3556
66.4317
67.5311
68.6546
69.803
70.9773
72.1782
73.4067
74.6637
75.95
77.2665
78.6143
79.9942
81.4073
82.8545
51.1892
52.0037
52.8284
53.6637
54.5104
55.3689
56.2401
57.1245
58.0231
58.9365
59.8655
60.8109
61.7735
62.754
63.7533
64.7721
65.8113
66.8717
67.9541
69.0594
70.1884
71.342
72.5209
73.7262
74.9587
76.2192
77.5088
78.8283
80.1787
81.5609
82.976
84.4249
52.514
53.3445
54.1851
55.0361
55.898
56.7713
57.6566
58.5548
59.4666
60.3926
61.3337
62.2906
63.2641
64.2549
65.264
66.292
67.3399
68.4083
69.4982
70.6103
71.7456
72.9048
74.0889
75.2987
76.535
77.7987
79.0909
80.4122
81.7638
83.1464
84.5611
86.0089
53.8121
54.6611
55.5199
56.3887
57.2679
58.1581
59.0599
59.9738
60.9007
61.8412
62.796
63.766
64.7519
65.7545
66.7745
67.8128
68.8701
69.9473
71.0451
72.1645
73.3063
74.4712
75.6602
76.874
78.1136
79.3798
80.6736
81.9957
83.3471
84.7287
86.1414
87.5861
55.0703
55.9393
56.8181
57.7065
58.6049
59.5138
60.4336
61.3649
62.3084
63.2647
64.2346
65.2188
66.218
67.233
68.2645
69.3134
70.3804
71.4664
72.5721
73.6985
74.8462
76.0162
77.2093
78.4264
79.6683
80.9359
82.2301
83.5518
84.9018
86.2812
87.6907
89.1314
56.2739
57.1645
58.0649
58.9746
59.8938
60.8229
61.7622
62.7122
63.6735
64.6467
65.6325
66.6315
67.6445
68.6721
69.7152
70.7745
71.8507
72.9448
74.0574
75.1894
76.3418
77.5152
78.7105
79.9287
81.1706
82.437
83.7289
85.0472
86.3928
87.7665
89.1694
90.6024
57.4086
58.3229
59.2463
60.1786
61.1201
62.0708
63.031
64.001
64.9814
65.9726
66.9752
67.9899
69.0172
70.0578
71.1125
72.182
73.267
74.3683
75.4868
76.6231
77.7783
78.9531
80.1483
81.3649
82.6038
83.8657
85.1518
86.4628
87.7997
89.1635
90.555
91.9753
58.4629
59.4012
60.3488
61.3051
62.2702
63.2441
64.2268
65.2185
66.2194
67.2301
68.251
69.2826
70.3254
71.38
72.4471
73.5273
74.6213
75.73
76.8539
77.994
79.1509
80.3256
81.5189
82.7317
83.9649
85.2193
86.4959
87.7957
89.1195
90.4684
91.8433
93.2452
59.4249
60.3874
61.36
62.3413
63.3312
64.3296
65.3363
66.3512
67.3745
68.4065
69.4475
70.4978
71.5579
72.6283
73.7095
74.802
75.9066
77.0237
78.1541
79.2985
80.4577
81.6324
82.8233
84.0315
85.2575
86.5025
87.7672
89.0527
90.3597
91.6894
93.0427
94.4206
60.284
61.2713
62.2688
63.2753
64.2904
65.3139
66.3453
67.3845
68.4313
69.4859
70.5484
71.6191
72.6982
73.7861
74.8832
75.99
77.1069
78.2345
79.3733
80.524
81.6871
82.8633
84.0533
85.2579
86.4778
87.7137
88.9664
90.2369
91.5258
92.8342
94.1629
95.5129
61.0339
62.0454
63.0671
64.0984
65.1385
66.1868
67.243
68.3065
69.3772
70.4547
71.5391
72.6306
73.7293
74.8354
75.9492
77.0709
78.2011
79.3401
80.4883
81.6462
82.8144
83.9933
85.1835
86.3857
87.6003
88.828
90.0694
91.3251
92.5959
93.8823
95.185
96.5047
61.6725
62.7062
63.7509
64.8058
65.8698
66.9421
68.0221
69.1092
70.2026
71.3021
72.4074
73.5185
74.6353
75.7579
76.8865
78.0212
79.1622
80.31
81.4647
82.6268
83.7967
84.9747
86.1613
87.3571
88.5624
89.7778
91.0038
92.2409
93.4895
94.7503
96.0237
97.3103
62.2032
63.2574
64.3239
65.4015
66.4888
67.5847
68.6882
69.7984
70.9145
72.0358
73.1618
74.2922
75.4268
76.5654
77.7082
78.855
80.0059
81.1612
82.3211
83.4857
84.6554
85.8306
87.0116
88.1987
89.3926
90.5936
91.8022
93.0189
94.2443
95.4788
96.7231
97.9777
63.7035
64.792
65.8925
67.0037
68.124
69.2522
70.3871
71.5278
72.673
73.8222
74.9747
76.1301
77.288
78.4484
79.611
80.7758
81.9427
83.112
84.2838
85.4582
86.6356
87.8162
89.0005
90.1889
91.3817
92.5795
93.7828
94.9921
96.208
97.4311
98.662
64.0532
65.1624
66.2862
67.422
68.5682
69.723
70.885
72.053
73.2257
74.4019
75.5807
76.7616
77.944
79.1273
80.3114
81.4961
82.6811
83.8665
85.0523
86.2387
87.4258
88.614
89.8034
90.9946
92.1879
93.3838
94.5829
95.7855
96.9923
98.204
99.4211
64.311
65.4411
66.5885
67.7503
68.924
70.1078
71.2998
72.4986
73.7027
74.9107
76.1213
77.3334
78.5461
79.7589
80.9713
82.1828
83.3931
84.6021
85.8097
87.0159
88.2208
89.4246
90.6276
91.8299
93.0321
94.2346
95.4378
96.6422
97.8485
99.0571
100.269
64.4828
65.633
66.8045
67.9931
69.1961
70.411
71.6357
72.868
74.1069
75.3515
76.5994
77.8487
79.0981
80.3469
81.5942
82.8396
84.0825
85.3226
86.5597
87.7936
89.0243
90.2519
91.4765
92.6983
93.9176
95.1348
96.3503
97.5645
98.7781
99.9915
101.205
68.1519
69.3859
70.6342
71.8943
73.1636
74.4403
75.7244
77.0141
78.3061
79.5984
80.8895
82.1786
83.4648
84.7475
86.0261
87.3003
88.5696
89.8339
91.093
92.347
93.596
94.8402
96.0798
97.3152
98.5468
99.7751
101.001
102.224
68.2261
69.491
70.774
72.0718
73.3814
74.7002
76.0273
77.362
78.7012
80.0415
81.3808
82.7179
84.0517
85.3814
86.7059
88.0247
89.3371
90.6428
91.9415
93.2329
94.517
95.7939
97.0637
98.3267
99.5832
100.834
102.078
103.318
68.2178
69.5119
70.8295
72.1661
73.5181
74.8824
76.2567
77.6402
79.0306
80.4239
81.8167
83.2077
84.5954
85.9787
87.3562
88.727
90.0902
91.4451
92.791
94.1277
95.4549
96.7723
98.0801
99.3783
100.667
101.947
103.218
104.481
68.128
69.4502
70.8013
72.1765
73.5719
74.9836
76.4086
77.8446
79.2898
80.7406
82.1923
83.6426
85.0904
86.5338
87.9713
89.4014
90.823
92.2348
93.6361
95.0262
96.4045
97.7706
99.1244
100.466
101.795
103.112
104.645
106.383
67.9634
69.3095
70.6917
72.1042
73.5422
75.0019
76.4793
77.9712
79.4747
80.9868
82.5027
84.0181
85.5314
87.0413
88.5455
90.0423
91.5299
93.0067
94.4715
95.9232
97.361
98.7842
100.318
102.352
104.704
106.911
108.983
110.927
67.7288
69.0945
70.504
71.9509
73.4299
74.9364
76.4662
78.0154
79.5801
81.1571
82.7418
84.3286
85.9137
87.4959
89.0736
90.6443
92.2058
93.7558
95.2927
96.8148
98.3209
100.529
103.411
106.151
108.724
111.14
113.407
115.535
67.4339
68.8117
70.2434
71.7206
73.2375
74.7889
76.3699
77.9761
79.6032
81.2471
82.9037
84.5669
86.2304
87.8917
89.5499
91.2022
92.8456
94.4774
96.0952
97.7813
100.397
103.784
106.97
109.964
112.775
115.412
117.888
120.21
67.0839
68.4686
69.915
71.4166
72.9668
74.5596
76.1896
77.8517
79.541
81.253
82.9831
84.7258
86.4736
88.2211
89.9669
91.7086
93.4425
95.1651
96.8733
99.5733
103.342
107.042
110.52
113.787
116.852
119.728
122.424
124.952
66.6915
68.0724
69.525
71.0437
72.6211
74.2505
75.9258
77.6414
79.3918
81.1719
82.9766
84.8001
86.6359
88.476
90.3168
92.1562
93.9896
95.8125
98.2194
101.926
106.219
110.258
114.052
117.614
120.954
124.084
127.016
129.763
66.2677
67.6333
69.0819
70.6082
72.2047
73.864
75.5794
77.3446
79.1537
81.0008
82.8802
84.7857
86.7107
88.6478
90.5911
92.5363
94.478
96.411
99.6354
104.325
109.011
113.418
117.556
121.437
125.073
128.477
131.662
134.643
65.8266
67.1624
68.595
70.1177
71.723
73.4031
75.151
76.9599
78.8233
80.7348
82.6882
84.6767
86.6932
88.7304
90.7813
92.8394
94.8982
97.1532
101.154
106.583
111.699
116.508
121.02
125.248
129.204
132.904
136.361
139.591
65.3799
66.6747
68.0777
69.5834
71.1849
72.8746
74.6451
76.4894
78.4005
80.3718
82.3964
84.4674
86.5771
88.7174
90.8802
93.0577
95.2421
98.0196
102.744
108.673
114.259
119.507
124.428
129.034
133.339
137.358
141.109
144.607
64.9417
66.1843
67.5445
69.0188
70.6023
72.2882
74.0694
75.9385
77.8885
79.9126
82.0036
84.1541
86.3563
88.6013
90.8798
93.1827
95.5006
98.7092
104.083
110.561
116.663
122.394
127.763
132.782
137.467
141.834
145.901
149.687
64.5194
65.7049
67.0104
68.4387
69.9887
71.6556
73.433
75.3139
77.2915
79.3588
81.5086
83.7334
86.025
88.3741
90.7705
93.2035
95.6625
99.1934
105.128
112.208
118.879
125.141
131.003
136.476
141.577
146.323
150.734
154.831
64.1152
65.2466
66.49
67.8595
69.3603
70.9914
72.7484
74.6255
76.6163
78.7142
80.9123
83.2031
85.5784
88.0286
90.5429
93.1095
95.7157
99.439
105.827
113.572
120.869
127.718
134.123
140.097
145.655
150.815
155.601
160.035
63.7311
64.8146
65.9952
67.2973
68.7347
70.3127
72.031
73.886
75.8727
77.9854
80.2179
82.5631
85.0131
87.5585
90.1882
92.8893
95.6476
99.4085
106.121
114.598
122.589
130.088
137.095
143.622
149.684
155.3
160.496
165.297
63.3638
64.41
65.5342
66.7666
68.1299
69.6385
71.2988
73.1115
75.074
77.1824
79.4317
81.8161
84.3282
86.9592
89.6982
92.5318
95.4446
99.0594
105.944
115.229
123.988
132.208
139.884
147.025
153.645
159.765
165.412
170.613
63.0016
64.0244
65.1051
66.2736
67.5593
68.9866
70.5711
72.3204
74.2366
76.3186
78.5636
80.9677
83.525
86.2278
89.066
92.0264
95.0928
98.3432
105.215
115.393
125.005
134.027
142.45
150.275
157.516
164.194
170.337
175.977
62.6272
63.64
64.6947
65.8146
67.0299
68.3723
69.8681
71.5347
73.3816
75.4126
77.6288
80.0289
82.6097
85.3656
88.2879
91.3646
94.5796
97.9127
104.57
115.006
125.566
135.484
144.741
153.332
161.267
168.567
175.26
181.384
62.2311
63.2423
64.289
65.3802
66.5413
67.8058
69.2082
70.7775
72.5335
74.4881
76.6481
79.0167
81.5945
84.3793
87.3651
90.542
93.895
97.4038
103.589
113.97
125.584
136.504
146.697
156.149
164.864
172.86
180.167
186.826
62.8315
63.8763
64.9562
66.0839
67.2875
68.6034
70.0695
71.7181
73.5724
75.6477
77.9542
80.4981
83.2819
86.3041
89.5584
93.0322
96.7066
102.107
112.17
124.955
136.998
148.245
158.669
168.263
177.042
185.038
192.293
62.3776
63.4373
64.5209
65.6366
66.8031
68.0514
69.4218
70.9565
72.6921
74.6562
76.8688
79.3441
82.0917
85.1168
88.4182
91.9882
95.8107
100.048
109.472
123.555
136.856
149.293
160.818
171.41
181.077
189.848
197.771
64.0483
65.1715
66.3257
67.5341
68.8304
70.2596
71.8694
73.702
75.7907
78.1614
80.8337
83.8214
87.132
90.7647
94.709
98.9434
107.381
121.241
135.95
149.732
162.507
174.236
184.915
194.567
203.243
63.5341
64.6658
65.825
67.0205
68.2737
69.6219
71.1153
72.8082
74.7501
76.9822
79.5377
82.4429
85.7167
89.369
93.3981
97.7891
104.785
117.846
134.128
149.429
163.631
176.662
188.499
199.158
208.689
64.1072
65.2779
66.4805
67.7206
69.0217
70.4251
71.9881
73.7734
75.8401
78.2391
81.0134
84.1973
87.8155
91.8799
96.3868
101.391
113.185
131.214
148.232
164.062
178.589
191.761
203.576
214.084
63.4891
64.6766
65.8933
67.1394
68.4247
69.7747
71.2362
72.8748
74.764
76.975
79.5713
82.6079
86.1293
90.1666
94.7333
99.8209
109.852
127.002
145.951
163.642
179.896
194.613
207.767
219.399
62.8684
64.1812
65.4567
66.6324
67.7862
69.1194
70.5219
72.0466
73.7695
75.7779
78.1587
80.992
84.3481
88.2839
92.8376
98.0226
105.622
121.254
142.365
162.179
180.429
196.946
211.662
224.598
63.9349
65.3442
66.5804
67.6623
68.6741
69.7973
71.256
72.8494
74.6671
76.8142
79.3985
82.5213
86.2726
90.7242
95.9218
101.875
115.341
137.209
159.438
179.999
198.624
215.173
229.636
63.6682
65.219
66.6908
67.987
68.9256
69.7082
70.4503
71.9682
73.6367
75.5627
77.8747
80.7076
84.1904
88.4382
93.5411
99.5508
110.072
130.177
155.132
178.369
199.471
218.19
234.455
64.8217
66.4349
67.9728
69.332
70.3149
70.6928
71.3077
72.6497
74.4021
76.4545
78.9665
82.1088
86.0475
90.9299
96.8669
103.913
121.416
148.914
175.236
199.258
220.564
238.979
64.2133
65.9035
67.5775
69.1805
70.6008
71.6288
71.8613
72.2335
73.2927
75.14
77.3435
80.1043
83.6413
88.1693
93.877
100.899
114.847
140.364
170.212
197.679
222.092
243.1
63.4095
65.1324
66.8835
68.6216
70.2863
71.7692
72.8443
73.065
73.0774
73.8891
75.8478
78.2385
81.3178
85.3701
90.6759
97.4772
106.553
129.003
162.814
194.331
222.497
246.669
64.1778
65.9512
67.7527
69.546
71.2727
72.8207
73.9414
74.1471
73.8262
74.4337
76.5272
79.1562
82.654
87.3953
93.7511
102.031
120.149
152.462
188.686
221.395
249.472
63.037
64.8035
66.6274
68.4806
70.3325
72.1251
73.7329
74.8982
75.0801
74.4537
74.9143
77.1759
80.1173
84.1802
89.868
97.6771
109.736
138.499
180.074
218.266
251.209
61.7358
63.4776
65.2859
67.1519
69.0578
70.9676
72.8169
74.4796
75.6835
75.8266
74.9283
75.3115
77.7866
81.1499
86.0006
93.0299
102.91
126.405
167.688
212.41
251.455
61.9695
63.7474
65.6012
67.5131
69.4651
71.4235
73.3237
75.0364
76.2709
76.3461
75.2114
75.5935
78.3491
82.3029
88.2926
97.2909
113.251
150.645
202.919
249.609
60.2842
62.0282
63.8476
65.7377
67.6892
69.6841
71.689
73.6361
75.3921
76.6288
76.5913
75.2399
75.7054
78.8434
83.6644
91.38
103.4
134.589
188.669
244.819
58.3775
60.0854
61.8779
63.7428
65.6768
67.6703
69.7055
71.7488
73.7329
75.5083
76.7161
76.5005
74.9368
75.5859
79.2844
85.4544
95.9285
117.928
168.456
235.918
56.1974
57.8877
59.6633
61.5105
63.4283
65.4116
67.4502
69.5254
71.6022
73.6071
75.3741
76.5043
76.0032
74.1934
75.1343
79.7234
88.1532
103.35
147.222
221.38
53.6601
55.3445
57.1159
58.9644
60.8867
62.8774
64.9261
67.0187
69.1356
71.2404
73.2528
74.9864
75.9813
75.0409
72.8731
74.3009
80.4589
93.0188
126.321
199.581
50.5859
52.2849
54.0808
55.9589
57.9167
59.9467
62.0398
64.1824
66.3544
68.5294
70.6636
72.6676
74.3277
75.092
73.4553
70.7401
73.0572
82.3541
103.362
171.851
46.7468
48.4687
50.3068
52.2366
54.2577
56.3637
58.5434
60.7822
63.0647
65.3656
67.6466
69.851
71.8718
73.4428
73.8524
71.0908
67.4344
71.8079
88.3597
147.265
41.7598
43.4919
45.3401
47.2958
49.3657
51.5544
53.8577
56.2504
58.7163
61.2326
63.7634
66.259
68.6484
70.7909
72.3196
72.2323
67.6108
62.4674
73.1812
117.213
34.7805
36.4476
38.2019
40.0894
42.1353
44.367
46.792
49.3941
52.1554
55.053
58.0543
61.1153
64.1765
67.1437
69.8151
71.6196
71.0452
63.1059
60.3902
89.2191
27.8751
29.9141
31.8396
33.7931
35.8905
37.9778
40.0856
42.2703
44.5987
47.1551
50.0083
53.1712
56.6803
60.5104
64.5662
68.5099
71.4694
70.3422
58.5326
67.7611
27.5789
24.8909
22.5633
20.8756
20.0647
20.0449
20.7801
22.228
24.3368
27.089
30.5088
34.5345
39.1918
44.5374
50.6611
57.6254
65.3511
72.5366
70.8994
57.5328
3.01109
5.72466
8.04233
9.96218
11.4413
12.5637
13.4214
14.0991
14.6782
15.2833
16.131
17.4359
19.4567
22.5161
27.0242
33.5299
42.879
56.2464
73.1728
84.7934
659.389
652.489
645.786
639.281
632.978
626.883
621.002
615.337
609.887
604.618
599.486
594.463
589.54
584.716
579.988
575.354
570.81
566.354
561.982
557.691
553.478
549.338
545.269
541.265
537.322
533.437
529.604
525.819
522.075
518.366
514.687
511.029
507.385
503.745
500.098
496.432
492.732
488.98
485.155
481.23
477.173
472.94
468.476
463.709
461.809
463.342
465.502
468.316
471.961
476.687
482.823
490.813
502.004
505.355
381.747
641.025
634.354
627.879
621.6
615.522
609.649
603.986
598.533
593.285
588.2
583.236
578.376
573.615
568.951
564.38
559.901
555.511
551.206
546.984
542.841
538.775
534.783
530.86
527.004
523.21
519.474
515.794
512.163
508.578
505.034
501.524
498.044
494.587
491.146
487.711
484.275
480.826
477.351
473.835
470.259
466.602
462.835
458.922
454.819
451.46
451.081
453.112
455.732
459.064
463.237
468.253
473.424
476.071
456.003
279.576
623.165
616.715
610.46
604.4
598.539
592.881
587.429
582.181
577.126
572.217
567.416
562.715
558.11
553.6
549.182
544.852
540.61
536.451
532.374
528.375
524.453
520.603
516.822
513.109
509.459
505.87
502.337
498.858
495.428
492.044
488.702
485.397
482.124
478.879
475.656
472.449
469.251
466.055
462.852
459.633
456.387
453.102
449.764
446.357
442.863
439.577
438.788
440.42
442.325
444.403
446.309
446.831
441.767
409.071
237.01
605.791
599.556
593.515
587.668
582.018
576.568
571.32
566.272
561.398
556.656
552.012
547.465
543.012
538.651
534.38
530.195
526.096
522.079
518.142
514.283
510.499
506.787
503.145
499.571
496.061
492.613
489.225
485.893
482.614
479.386
476.207
473.072
469.98
466.926
463.909
460.925
457.971
455.044
452.141
449.26
446.4
443.559
440.737
437.938
435.165
432.428
429.739
427.114
425.307
424.706
423.835
420.328
410.388
378.965
229.406
588.888
582.863
577.03
571.39
565.944
560.697
555.647
550.788
546.087
541.502
537.011
532.613
528.307
524.091
519.961
515.917
511.956
508.076
504.275
500.55
496.9
493.322
489.814
486.374
483
479.689
476.44
473.25
470.117
467.041
464.018
461.047
458.126
455.256
452.433
449.659
446.932
444.253
441.624
439.047
436.525
434.064
431.671
429.357
427.135
425.022
423.036
421.197
419.514
417.95
416.297
413.608
405.864
375.548
247.578
572.444
566.622
560.992
555.553
550.307
545.255
540.396
535.718
531.18
526.744
522.4
518.147
513.983
509.906
505.914
502.005
498.178
494.43
490.76
487.165
483.644
480.195
476.816
473.505
470.261
467.082
463.967
460.913
457.92
454.987
452.112
449.296
446.537
443.836
441.194
438.611
436.089
433.63
431.239
428.92
426.679
424.524
422.464
420.512
418.683
416.99
415.448
414.063
412.818
411.617
410.115
407.098
398.171
367.575
266.789
556.444
550.821
545.387
540.144
535.091
530.23
525.556
521.048
516.663
512.371
508.169
504.055
500.027
496.084
492.225
488.447
484.748
481.128
477.583
474.114
470.717
467.392
464.137
460.951
457.831
454.778
451.79
448.866
446.004
443.206
440.471
437.798
435.188
432.642
430.162
427.75
425.407
423.138
420.946
418.838
416.82
414.899
413.085
411.388
409.817
408.381
407.084
405.912
404.81
403.611
401.827
398.01
387.786
358.149
280.189
540.876
535.445
530.203
525.15
520.285
515.607
511.11
506.761
502.52
498.368
494.302
490.323
486.427
482.614
478.882
475.23
471.655
468.157
464.734
461.385
458.108
454.901
451.765
448.697
445.696
442.763
439.895
437.092
434.355
431.683
429.076
426.535
424.06
421.654
419.318
417.053
414.864
412.754
410.726
408.786
406.94
405.194
403.554
402.027
400.617
399.325
398.139
397.024
395.884
394.481
392.203
387.467
376.233
348.612
287.934
525.725
520.482
515.427
510.558
505.875
501.375
497.045
492.846
488.742
484.724
480.79
476.94
473.171
469.483
465.874
462.342
458.887
455.507
452.2
448.966
445.803
442.71
439.687
436.731
433.843
431.022
428.268
425.58
422.957
420.402
417.913
415.491
413.138
410.856
408.645
406.509
404.45
402.471
400.576
398.769
397.054
395.435
393.916
392.5
391.185
389.961
388.804
387.652
386.372
384.658
381.807
376.219
364.398
339.268
291.153
510.981
505.92
501.046
496.357
491.851
487.522
483.348
479.29
475.317
471.428
467.621
463.895
460.248
456.68
453.189
449.773
446.432
443.165
439.97
436.845
433.791
430.807
427.89
425.042
422.261
419.546
416.897
414.315
411.8
409.351
406.969
404.656
402.412
400.239
398.138
396.112
394.162
392.291
390.503
388.8
387.184
385.658
384.223
382.875
381.608
380.403
379.218
377.97
376.488
374.413
370.998
364.735
352.762
330.183
291.22
496.631
491.747
487.049
482.534
478.197
474.032
470.005
466.077
462.232
458.467
454.782
451.176
447.647
444.194
440.816
437.511
434.28
431.121
428.032
425.013
422.063
419.181
416.366
413.618
410.937
408.322
405.772
403.289
400.872
398.521
396.237
394.021
391.874
389.797
387.792
385.859
384.002
382.222
380.52
378.899
377.359
375.9
374.52
373.212
371.961
370.738
369.488
368.105
366.386
363.94
360.023
353.294
341.509
321.319
289.158
482.663
477.952
473.425
469.078
464.906
460.895
457.004
453.201
449.477
445.832
442.264
438.773
435.356
432.013
428.744
425.547
422.42
419.364
416.376
413.457
410.606
407.821
405.103
402.45
399.863
397.341
394.884
392.492
390.165
387.904
385.709
383.581
381.52
379.528
377.606
375.755
373.977
372.272
370.641
369.084
367.602
366.192
364.846
363.555
362.295
361.029
359.687
358.144
356.176
353.382
349.059
342.07
330.702
312.663
285.679
469.066
464.522
460.161
455.978
451.964
448.096
444.333
440.649
437.043
433.512
430.056
426.675
423.366
420.13
416.964
413.869
410.842
407.884
404.993
402.17
399.412
396.719
394.092
391.529
389.03
386.595
384.224
381.916
379.673
377.494
375.38
373.331
371.348
369.432
367.583
365.803
364.092
362.45
360.878
359.373
357.935
356.557
355.231
353.939
352.653
351.326
349.875
348.162
345.953
342.853
338.232
331.156
320.337
304.194
281.237
455.828
451.448
447.248
443.221
439.358
435.624
431.979
428.41
424.916
421.496
418.148
414.872
411.667
408.532
405.466
402.468
399.537
396.673
393.874
391.141
388.472
385.866
383.325
380.846
378.43
376.076
373.785
371.556
369.39
367.287
365.246
363.269
361.356
359.508
357.725
356.006
354.353
352.766
351.241
349.779
348.373
347.016
345.696
344.39
343.064
341.661
340.092
338.21
335.78
332.433
327.62
320.592
310.388
295.906
276.143
442.941
438.719
434.675
430.8
427.078
423.467
419.935
416.476
413.09
409.775
406.53
403.356
400.25
397.211
394.24
391.335
388.495
385.721
383.009
380.362
377.777
375.254
372.793
370.394
368.056
365.778
363.562
361.406
359.311
357.278
355.305
353.394
351.544
349.757
348.032
346.368
344.766
343.224
341.74
340.31
338.927
337.581
336.256
334.926
333.55
332.066
330.379
328.339
325.719
322.185
317.274
310.393
300.826
287.795
270.609
430.392
426.324
422.432
418.703
415.111
411.614
408.19
404.836
401.553
398.339
395.194
392.116
389.104
386.159
383.278
380.462
377.709
375.019
372.392
369.826
367.32
364.876
362.491
360.167
357.902
355.696
353.549
351.461
349.433
347.464
345.553
343.703
341.911
340.179
338.506
336.891
335.333
333.83
332.379
330.974
329.606
328.263
326.925
325.562
324.13
322.563
320.762
318.582
315.809
312.149
307.22
300.555
291.621
279.859
264.783
418.172
414.253
410.506
406.915
403.443
400.053
396.732
393.481
390.297
387.18
384.129
381.144
378.223
375.366
372.572
369.841
367.171
364.562
362.013
359.524
357.095
354.724
352.412
350.158
347.962
345.823
343.742
341.718
339.751
337.842
335.989
334.194
332.455
330.773
329.147
327.575
326.056
324.586
323.161
321.774
320.415
319.068
317.711
316.311
314.821
313.173
311.269
308.97
306.083
302.353
297.468
291.064
282.741
272.093
258.772
406.272
402.498
398.891
395.428
392.068
388.778
385.557
382.402
379.313
376.288
373.328
370.431
367.597
364.825
362.114
359.463
356.872
354.34
351.867
349.452
347.094
344.793
342.55
340.362
338.231
336.155
334.136
332.171
330.262
328.409
326.61
324.866
323.176
321.539
319.955
318.422
316.936
315.494
314.09
312.716
311.359
310.002
308.621
307.182
305.635
303.912
301.919
299.526
296.562
292.81
288.018
281.903
274.161
264.495
252.65
394.683
391.048
387.575
384.23
380.972
377.78
374.653
371.591
368.592
365.657
362.783
359.971
357.22
354.528
351.896
349.322
346.806
344.348
341.946
339.601
337.311
335.077
332.898
330.774
328.704
326.688
324.726
322.818
320.963
319.162
317.413
315.716
314.071
312.476
310.93
309.43
307.973
306.554
305.166
303.799
302.44
301.071
299.664
298.184
296.583
294.794
292.728
290.266
287.259
283.525
278.862
273.048
265.853
257.055
246.466
383.394
379.894
376.547
373.31
370.147
367.048
364.012
361.039
358.127
355.277
352.486
349.755
347.083
344.469
341.912
339.411
336.967
334.579
332.245
329.967
327.742
325.571
323.453
321.389
319.377
317.418
315.51
313.655
311.851
310.098
308.395
306.742
305.138
303.581
302.069
300.598
299.166
297.766
296.39
295.027
293.663
292.278
290.844
289.327
287.677
285.832
283.709
281.201
278.18
274.496
269.986
264.477
257.792
249.765
240.253
372.398
369.027
365.796
362.659
359.587
356.577
353.628
350.74
347.911
345.142
342.43
339.777
337.18
334.639
332.154
329.724
327.348
325.027
322.758
320.543
318.38
316.269
314.21
312.202
310.245
308.339
306.483
304.677
302.921
301.214
299.554
297.942
296.375
294.852
293.371
291.926
290.515
289.13
287.762
286.4
285.029
283.627
282.168
280.616
278.925
277.034
274.87
272.338
269.329
265.719
261.378
256.17
249.959
242.617
234.036
361.684
358.438
355.313
352.267
349.282
346.357
343.491
340.685
337.936
335.244
332.608
330.029
327.504
325.034
322.618
320.254
317.944
315.686
313.479
311.324
309.22
307.166
305.163
303.209
301.304
299.449
297.642
295.883
294.171
292.506
290.887
289.312
287.78
286.288
284.833
283.412
282.018
280.645
279.284
277.921
276.541
275.123
273.64
272.058
270.332
268.409
266.219
263.682
260.705
257.187
253.024
248.108
242.333
235.602
227.83
351.246
348.115
345.088
342.127
339.225
336.382
333.596
330.867
328.194
325.577
323.014
320.505
318.049
315.647
313.296
310.997
308.749
306.551
304.404
302.306
300.258
298.259
296.308
294.405
292.55
290.742
288.981
287.266
285.597
283.972
282.39
280.85
279.349
277.886
276.455
275.054
273.676
272.312
270.955
269.589
268.2
266.767
265.264
263.656
261.905
259.959
257.758
255.232
252.304
248.891
244.909
240.273
234.9
228.714
221.651
341.076
338.05
335.112
332.232
329.41
326.645
323.936
321.281
318.681
316.135
313.641
311.2
308.81
306.472
304.184
301.946
299.757
297.618
295.527
293.484
291.489
289.542
287.641
285.787
283.979
282.216
280.499
278.825
277.196
275.608
274.061
272.552
271.081
269.643
268.234
266.851
265.485
264.13
262.775
261.407
260.01
258.564
257.043
255.416
253.647
251.689
249.489
246.989
244.122
240.822
237.022
232.652
227.649
221.952
215.511
331.163
328.232
325.375
322.575
319.829
317.139
314.503
311.92
309.389
306.911
304.484
302.107
299.781
297.504
295.276
293.096
290.964
288.88
286.843
284.853
282.909
281.011
279.158
277.35
275.587
273.867
272.191
270.557
268.964
267.41
265.896
264.417
262.972
261.557
260.168
258.8
257.446
256.098
254.745
253.375
251.971
250.514
248.98
247.341
245.561
243.601
241.414
238.949
236.154
232.973
229.35
225.233
220.568
215.31
209.418
321.497
318.655
315.874
313.149
310.477
307.858
305.292
302.777
300.314