/*--------------------------------*- C++ -*----------------------------------*\
  =========                 |
  \\      /  F ield         | OpenFOAM: The Open Source CFD Toolbox
   \\    /   O peration     | Website:  https://openfoam.org
    \\  /    A nd           | Version:  10
     \\/     M anipulation  |
\*---------------------------------------------------------------------------*/
FoamFile
{
    format      ascii;
    class       volScalarField;
    location    "12000";
    object      omega;
}
// * * * * * * * * * * * * * * * * * * * * * * * * * * * * * * * * * * * * * //

dimensions      [0 0 -1 0 0 0 0];

internalField   nonuniform List<scalar> 
17981
(
9.93827
10.0629
10.1832
10.2993
10.4115
10.52
10.625
10.7269
10.8258
10.9219
11.0155
11.1068
11.1959
11.283
11.3682
11.4518
11.5338
11.6144
11.6936
11.7715
11.8483
11.9239
11.9986
12.0722
12.145
12.2168
12.2878
12.358
12.4275
12.4961
12.5641
12.6313
12.6979
12.7638
12.829
12.8936
12.9575
13.0209
13.0836
13.1457
13.2072
13.2682
13.3285
13.3883
13.4476
13.5097
13.5795
13.6581
10.0651
10.1939
10.3176
10.4364
10.5505
10.6604
10.7662
10.8683
10.967
11.0625
11.1552
11.2451
11.3326
11.4178
11.501
11.5822
11.6618
11.7398
11.8163
11.8915
11.9655
12.0384
12.1102
12.1811
12.251
12.3201
12.3884
12.456
12.5229
12.5891
12.6546
12.7195
12.7839
12.8476
12.9108
12.9735
13.0356
13.0972
13.1583
13.2189
13.279
13.3387
13.3978
13.4565
13.5148
13.5754
13.6431
13.7193
10.209
10.3432
10.4712
10.5935
10.7107
10.8228
10.9302
11.0333
11.1325
11.2279
11.3199
11.4089
11.495
11.5786
11.6598
11.739
11.8162
11.8917
11.9655
12.038
12.1092
12.1791
12.248
12.3159
12.383
12.4492
12.5146
12.5794
12.6435
12.7069
12.7699
12.8323
12.8942
12.9556
13.0165
13.077
13.1371
13.1968
13.2561
13.315
13.3735
13.4317
13.4894
13.5469
13.6039
13.6631
13.7285
13.8022
10.8903
11.0064
11.1168
11.222
11.3224
11.4185
11.5106
11.5991
11.6843
11.7665
11.8461
11.9233
11.9983
12.0714
12.1427
12.2124
12.2807
12.3478
12.4137
12.4786
12.5425
12.6057
12.6681
12.7299
12.791
12.8516
12.9117
12.9714
13.0306
13.0895
13.148
13.2061
13.264
13.3215
13.3788
13.4357
13.4924
13.5489
13.6051
13.661
13.7167
13.7741
13.8371
13.9079
11.093
11.2137
11.3277
11.4357
11.5381
11.6354
11.7281
11.8167
11.9014
11.9827
12.061
12.1365
12.2095
12.2803
12.3492
12.4163
12.4818
12.5459
12.6088
12.6706
12.7315
12.7915
12.8507
12.9094
12.9674
13.0249
13.082
13.1388
13.1951
13.2512
13.307
13.3626
13.4179
13.4731
13.5281
13.5829
13.6376
13.6921
13.7465
13.8008
13.855
13.9104
13.9706
14.0383
11.3157
11.4424
11.5613
11.6733
11.7787
11.8783
11.9724
12.0617
12.1466
12.2276
12.305
12.3792
12.4506
12.5195
12.5861
12.6507
12.7136
12.7748
12.8348
12.8935
12.9513
13.0081
13.0641
13.1195
13.1743
13.2287
13.2826
13.3362
13.3895
13.4426
13.4955
13.5482
13.6008
13.6534
13.7058
13.7583
13.8107
13.863
13.9154
13.9678
14.0201
14.0735
14.1312
14.196
11.6902
11.816
11.9335
12.0434
12.1464
12.2431
12.3342
12.4201
12.5014
12.5786
12.6522
12.7225
12.7898
12.8546
12.9171
12.9776
13.0364
13.0936
13.1495
13.2042
13.2579
13.3107
13.3628
13.4143
13.4653
13.5159
13.5662
13.6162
13.6661
13.7158
13.7655
13.8151
13.8648
13.9144
13.9642
14.014
14.0639
14.114
14.1641
14.2144
14.2655
14.3203
14.3818
12.2153
12.3317
12.4399
12.5407
12.6348
12.7229
12.8056
12.8835
12.9571
13.0269
13.0934
13.1568
13.2176
13.2761
13.3326
13.3872
13.4404
13.4921
13.5428
13.5924
13.6413
13.6894
13.737
13.7842
13.831
13.8776
13.924
13.9703
14.0166
14.063
14.1094
14.156
14.2027
14.2497
14.2968
14.3442
14.3919
14.4398
14.4883
14.5398
14.5977
12.6448
12.7597
12.866
12.9645
13.0559
13.1411
13.2206
13.2951
13.3652
13.4313
13.494
13.5536
13.6105
13.665
13.7174
13.768
13.8171
13.8648
13.9114
13.957
14.0018
14.046
14.0896
14.1329
14.1759
14.2187
14.2614
14.3041
14.3469
14.3899
14.4331
14.4765
14.5202
14.5643
14.6087
14.6535
14.6987
14.7443
14.7924
14.8462
13.2176
13.3223
13.4186
13.5076
13.5901
13.6667
13.7382
13.805
13.8677
13.9268
13.9827
14.0358
14.0864
14.1349
14.1815
14.2265
14.2702
14.3126
14.3541
14.3948
14.4349
14.4745
14.5138
14.5528
14.5917
14.6307
14.6697
14.7089
14.7483
14.7881
14.8282
14.8688
14.9098
14.9514
14.9935
15.0361
15.0808
15.1302
13.991
14.072
14.1466
14.2155
14.2796
14.3394
14.3953
14.4479
14.4976
14.5446
14.5892
14.6318
14.6725
14.7118
14.75
14.7872
14.8235
14.8592
14.8944
14.9293
14.9641
14.9989
15.0338
15.0688
15.1042
15.1399
15.1761
15.2128
15.2501
15.288
15.3266
15.3658
15.4067
15.4512
14.4277
14.5136
14.5922
14.6644
14.7309
14.7924
14.8496
14.9028
14.9519
14.9973
15.0396
15.0792
15.1166
15.1521
15.1862
15.2191
15.2511
15.2826
15.3138
15.3448
15.3759
15.407
15.438
15.4691
15.5004
15.5321
15.5642
15.5969
15.6302
15.6643
15.699
15.7346
15.7713
15.8109
14.8933
14.9857
15.0696
15.1461
15.2161
15.2803
15.3393
15.3929
15.4414
15.4856
15.526
15.5633
15.598
15.6305
15.6612
15.6905
15.7187
15.7461
15.773
15.7996
15.8261
15.8527
15.8796
15.9069
15.935
15.9634
15.992
16.021
16.0505
16.0807
16.1116
16.1434
16.176
16.2107
15.3843
15.4849
15.5755
15.6575
15.7319
15.7998
15.8612
15.9161
15.965
16.0089
16.0485
16.0843
16.1169
16.1469
16.1748
16.2009
16.2256
16.2492
16.2722
16.2947
16.317
16.3392
16.3617
16.3845
16.4078
16.4318
16.4565
16.4822
16.5086
16.5356
16.5631
16.5913
16.6202
16.6506
16.0079
16.1074
16.1968
16.2773
16.3501
16.4153
16.4726
16.5231
16.5677
16.6071
16.642
16.6732
16.7012
16.7265
16.7497
16.7712
16.7913
16.8105
16.829
16.8471
16.8651
16.8831
16.9015
16.9203
16.9397
16.9599
16.9809
17.0029
17.026
17.0503
17.0756
17.1015
17.1282
16.5564
16.6662
16.7642
16.852
16.931
17.001
17.0619
17.1149
17.1609
17.2009
17.2356
17.2659
17.2923
17.3156
17.3362
17.3547
17.3714
17.387
17.4016
17.4156
17.4293
17.4429
17.4568
17.471
17.4858
17.5013
17.5177
17.5351
17.5536
17.5732
17.5941
17.6163
17.64
17.1267
17.2489
17.3574
17.454
17.5404
17.6166
17.6825
17.7391
17.7876
17.8289
17.8642
17.8941
17.9195
17.941
17.9594
17.9751
17.9888
18.0008
18.0116
18.0215
18.0309
18.0402
18.0494
18.059
18.0691
18.0798
18.0915
18.1041
18.1178
18.1327
18.1489
18.1666
18.1856
17.8524
17.974
18.0815
18.177
18.2609
18.3332
18.3948
18.4468
18.4905
18.527
18.5572
18.5821
18.6024
18.6188
18.632
18.6427
18.6512
18.6582
18.6641
18.6692
18.6739
18.6785
18.6833
18.6885
18.6943
18.701
18.7087
18.7175
18.7276
18.7391
18.752
18.7666
18.4781
18.6147
18.7348
18.8408
18.9339
19.0141
19.0818
19.1385
19.1855
19.224
19.2552
19.28
19.2993
19.3141
19.325
19.3327
19.3378
19.341
19.3426
19.3432
19.343
19.3426
19.3422
19.3421
19.3425
19.3438
19.3459
19.3493
19.3539
19.36
19.3676
19.3768
19.1225
19.2769
19.412
19.5305
19.6347
19.7245
19.7999
19.8625
19.9139
19.9553
19.9881
20.0135
20.0324
20.0458
20.0545
20.0594
20.0611
20.0602
20.0574
20.0532
20.0479
20.042
20.0359
20.03
20.0244
20.0195
20.0155
20.0126
20.0109
20.0107
20.012
20.015
19.7834
19.9588
20.1119
20.2454
20.3625
20.4635
20.5484
20.6185
20.6755
20.7211
20.7565
20.7832
20.8023
20.8148
20.8217
20.824
20.8224
20.8176
20.8103
20.8011
20.7904
20.7788
20.7668
20.7545
20.7425
20.731
20.7203
20.7106
20.7022
20.6951
20.6896
20.6858
20.458
20.6583
20.8325
20.984
21.116
21.2302
21.3268
21.4063
21.4707
21.5217
21.561
21.5899
21.6099
21.6222
21.6278
21.6279
21.6232
21.6146
21.6028
21.5886
21.5725
21.555
21.5367
21.518
21.4992
21.4808
21.463
21.4461
21.4303
21.4159
21.4031
21.392
21.1431
21.3727
21.572
21.7447
21.8943
22.0245
22.135
22.226
22.2994
22.3574
22.4018
22.4342
22.4561
22.4689
22.4738
22.4721
22.4647
22.4525
22.4364
22.4172
22.3956
22.3721
22.3474
22.3218
22.296
22.2703
22.245
22.2204
22.1969
22.1747
22.154
22.1349
21.835
22.099
22.3279
22.5258
22.6968
22.8448
22.9712
23.0762
23.1611
23.2281
23.2792
23.3164
23.3413
23.3556
23.3606
23.3577
23.348
23.3325
23.3123
23.2882
23.2611
23.2315
23.2001
23.1676
23.1344
23.1009
23.0677
23.0351
23.0033
22.9727
22.9436
22.9161
22.529
22.8331
23.0968
23.3245
23.5207
23.6897
23.8351
23.957
24.0556
24.1337
24.1934
24.237
24.2663
24.2831
24.2891
24.2857
24.2743
24.256
24.2319
24.2031
24.1704
24.1346
24.0965
24.0567
24.0158
23.9744
23.9328
23.8916
23.851
23.8115
23.7733
23.7367
23.2196
23.5707
23.8751
24.1379
24.3641
24.5583
24.7255
24.8667
24.9821
25.0738
25.1444
25.1962
25.2316
25.2523
25.2604
25.2574
25.2449
25.2243
25.1967
25.1634
25.1253
25.0833
25.0383
24.9911
24.9422
24.8924
24.8421
24.7919
24.7421
24.6931
24.6453
24.599
23.9002
24.3061
24.6582
24.9623
25.2238
25.4481
25.6403
25.804
25.9397
26.048
26.132
26.1943
26.2375
26.2638
26.2753
26.2738
26.2611
26.2388
26.2082
26.1706
26.1273
26.0792
26.0274
25.9726
25.9156
25.8571
25.7978
25.7381
25.6786
25.6197
25.5618
25.5053
24.5632
25.0326
25.4403
25.7927
26.0959
26.3558
26.5778
26.7679
26.9269
27.0553
27.1556
27.231
27.2843
27.3179
27.3343
27.3356
27.3237
27.3005
27.2675
27.2262
27.1779
27.1238
27.0651
27.0026
26.9373
26.87
26.8013
26.7319
26.6623
26.5932
26.5248
26.4576
25.1989
25.7423
26.2149
26.6239
26.9761
27.2781
27.5359
27.7558
27.9416
28.0941
28.2144
28.3059
28.3718
28.415
28.4381
28.4437
28.4338
28.4106
28.3758
28.3312
28.2782
28.2183
28.1526
28.0824
28.0085
27.9319
27.8535
27.7739
27.6938
27.6137
27.5343
27.4559
26.425
26.9737
27.4491
27.859
28.2106
28.5107
28.7661
28.9835
29.1641
29.3081
29.4191
29.5006
29.5558
29.5878
29.5993
29.5929
29.5707
29.535
29.4877
29.4304
29.3647
29.2921
29.2138
29.1311
29.0448
28.9561
28.8656
28.7743
28.6826
28.5912
28.5008
27.0738
27.71
28.2623
28.7393
29.1492
29.4995
29.7974
30.0504
30.2628
30.4357
30.5705
30.6712
30.7416
30.785
30.8046
30.8032
30.7835
30.7478
30.6984
30.6372
30.566
30.4864
30.4
30.308
30.2116
30.1119
30.0099
29.9064
29.8022
29.698
29.5944
27.6741
28.4119
29.0537
29.6091
30.0873
30.4967
30.8452
31.1405
31.3909
31.5973
31.7605
31.8845
31.9736
32.0314
32.0616
32.0673
32.0516
32.0173
31.9666
31.9021
31.8256
31.7391
31.6443
31.5427
31.4356
31.3243
31.21
31.0935
30.9758
30.8577
30.7398
28.2109
29.0662
29.8119
30.4594
31.018
31.4973
31.9061
32.2527
32.5456
32.7904
32.9881
33.1407
33.2527
33.3287
33.3725
33.3878
33.3782
33.3465
33.2959
33.2287
33.1473
33.054
32.9507
32.8391
32.7208
32.5972
32.4695
32.3391
32.2067
32.0735
31.94
31.2776
31.9317
32.4938
32.9738
33.3814
33.7255
34.0158
34.2538
34.4404
34.5803
34.6785
34.7395
34.7674
34.7661
34.7392
34.6897
34.6209
34.5352
34.4353
34.3234
34.2014
34.0712
33.9345
33.7927
33.6471
33.4989
33.3492
33.1988
32.0579
32.8217
33.4798
34.0434
34.5231
34.9287
35.2703
35.5546
35.7826
35.9566
36.0822
36.1647
36.2087
36.2187
36.1986
36.1522
36.0828
35.9936
35.8874
35.7669
35.6342
35.4916
35.3409
35.1838
35.0219
34.8565
34.6888
34.5199
32.7807
33.6727
34.4432
35.105
35.6698
36.1484
36.5515
36.8902
37.1667
37.3817
37.5407
37.6498
37.7142
37.7389
37.7285
37.6872
37.6189
37.5271
37.4152
37.2861
37.1425
36.9868
36.8213
36.6479
36.4683
36.2842
36.097
35.9078
33.4261
34.4679
35.3703
36.1476
36.8131
37.3788
37.8561
38.2567
38.5891
38.8542
39.0542
39.1961
39.2861
39.3299
39.3326
39.2991
39.2338
39.1408
39.0239
38.8865
38.7317
38.5624
38.3812
38.1902
37.9916
37.7871
37.5784
37.367
33.9705
35.1871
36.244
37.1571
37.9413
38.6101
39.176
39.6513
40.0489
40.3723
40.6224
40.8047
40.9267
40.9948
41.0149
40.9925
40.9327
40.8402
40.7193
40.574
40.408
40.2245
40.0265
39.8167
39.5974
39.3709
39.1388
38.9031
34.3851
35.8057
37.0435
38.1162
39.0404
39.8314
40.5032
41.069
41.5419
41.9329
42.2436
42.4758
42.6375
42.7364
42.7791
42.772
42.7208
42.631
42.5076
42.3552
42.178
41.9799
41.7642
41.5343
41.2927
41.0421
40.7845
40.5219
34.6357
36.2938
37.7432
39.0033
40.0924
41.028
41.8257
42.4999
43.0646
43.5346
43.9154
44.2087
44.4197
44.5573
44.6291
44.6425
44.604
44.5199
44.3959
44.2374
44.0493
43.8362
43.602
43.3505
43.0848
42.8079
42.5223
42.2302
34.682
36.6152
38.3119
39.7918
41.0754
42.1819
43.1291
43.9332
44.6091
45.172
45.6356
46.0021
46.2738
46.4597
46.5687
46.609
46.5882
46.5134
46.3914
46.2284
46.0301
45.8018
45.5482
45.2737
44.9819
44.6763
44.3599
44.0354
34.4774
36.7268
38.7114
40.4491
41.9615
43.27
44.3947
45.3536
46.1634
46.84
47.4005
47.8525
48.1987
48.4448
48.6009
48.6763
48.6795
48.619
48.5024
48.3369
48.1294
47.886
47.6122
47.3131
46.9931
46.6563
46.3061
45.9457
33.9705
36.5785
38.896
40.9351
42.7167
44.2638
45.5988
46.7421
47.7124
48.527
49.2029
49.7577
50.1937
50.5138
50.7289
50.8491
50.8844
50.8442
50.7374
50.5724
50.3573
50.0991
49.8044
49.4792
49.1287
48.7577
48.3703
47.9703
33.1079
36.1132
38.8115
41.2012
43.2987
45.1273
46.7116
48.0745
49.237
50.2181
51.0363
51.7109
52.2527
52.665
52.9541
53.1317
53.2091
53.1969
53.1056
52.9451
52.7245
52.4524
52.1363
51.7835
51.4001
50.9918
50.5635
50.1195
31.8422
35.2703
38.3953
41.189
43.6558
45.8162
47.6956
49.3194
50.7114
51.8929
52.8837
53.7033
54.3737
54.8974
55.2779
55.5278
55.6595
55.6854
55.617
55.4661
55.2432
54.9585
54.621
54.239
53.8201
53.371
52.8976
52.405
30.1441
33.9925
37.5791
40.8301
43.7254
46.2754
48.5038
50.4378
52.1039
53.5262
54.7265
55.7256
56.5457
57.2015
57.697
58.0387
58.2409
58.3173
58.2817
58.1472
57.9265
57.6314
57.2727
56.8603
56.4033
55.9096
55.3863
54.8396
28.0217
32.2389
36.2952
40.0482
43.433
46.4375
49.0775
51.3796
53.3725
55.083
56.5358
57.7533
58.7576
59.5751
60.2099
60.6661
60.958
61.1009
61.1102
61.0012
60.7887
60.4866
60.1077
59.6639
59.166
58.6235
58.0451
57.4381
25.5393
30.0058
34.4897
38.7642
42.6934
46.2216
49.3446
52.0826
54.4648
56.5209
58.2782
59.7618
60.995
62.0027
62.8049
63.4057
63.8125
64.0425
64.113
64.0416
63.8455
63.5412
63.144
62.6681
62.1265
61.5308
60.8914
60.2172
22.828
27.3508
32.1453
36.9104
41.4159
45.5333
49.2167
52.4687
55.3138
57.7828
59.9062
61.7116
63.2244
64.4693
65.4759
66.253
66.8055
67.1482
67.3005
67.2823
67.1137
66.8142
66.4019
65.8939
65.3059
64.6521
63.9451
63.1956
20.0702
24.4097
29.3108
34.4542
39.5175
44.2694
48.5899
52.4423
55.8357
58.7979
61.361
63.5559
65.4103
66.9504
68.2035
69.1964
69.9329
70.4211
70.6818
70.7374
70.6113
70.3262
69.9038
69.3648
68.7281
68.0109
67.2287
66.395
17.4569
21.3849
26.1244
31.4323
36.9482
42.3301
47.3471
51.8884
55.9262
59.4751
62.5654
65.2302
67.5
69.4028
70.9658
72.2215
73.1844
73.8602
74.2642
74.4207
74.357
74.0998
73.675
73.1074
72.42
71.634
70.7685
69.8398
15.1366
18.499
22.8091
27.9835
33.7301
39.6458
45.3705
50.6753
55.4586
59.7009
63.4213
66.652
69.426
71.7734
73.7225
75.3025
76.5479
77.4615
78.0521
78.3448
78.3703
78.1597
77.7436
77.152
76.4129
75.5525
74.5942
73.5586
13.1851
15.9313
19.6228
24.3517
30
36.2213
42.5687
48.6651
54.2846
59.3352
63.8042
67.7145
71.0988
73.9895
76.416
78.407
79.9968
81.2069
82.0427
82.5191
82.67
82.5318
82.1408
81.5329
80.7426
79.8021
78.7408
77.5844
13.7764
16.7813
20.8342
26.0226
32.1885
38.9258
45.7421
52.2448
58.2117
63.5593
68.281
72.4017
75.9535
78.9673
81.4714
83.4956
85.082
86.2311
86.9508
87.2746
87.2439
86.9011
86.2893
85.4505
84.4249
83.249
81.9557
12.0486
14.404
17.6906
22.14
27.8333
34.5661
41.8668
49.1963
56.1469
62.5003
68.1804
73.185
77.5393
81.2737
84.4165
86.9951
89.0431
90.5886
91.635
92.1972
92.323
92.062
91.4654
90.5847
89.4698
88.167
86.7179
15.0668
18.6613
23.5468
29.7963
37.1523
45.072
52.9675
60.4161
67.2029
73.2575
78.5797
83.1931
87.1242
90.3976
93.0394
95.0932
96.5615
97.4477
97.7963
97.664
97.1113
96.2008
94.9945
93.5515
91.925
12.9912
15.7689
19.698
25.0628
31.9263
39.9705
48.5747
57.0997
65.1072
72.3839
78.8629
84.5434
89.4443
93.5864
96.9897
99.6812
101.694
103.022
103.685
103.748
103.283
102.363
101.067
99.4702
97.6411
13.4955
16.5079
20.8024
26.6959
34.24
43.0488
52.4157
61.6473
70.2874
78.1223
85.0847
91.1695
96.3876
100.751
104.272
106.987
108.899
110.002
110.356
110.04
109.145
107.768
106.004
103.943
11.7771
14.0208
17.2845
21.9777
28.4559
36.7582
46.4219
56.6463
66.6781
76.0409
84.5163
92.0324
98.5744
104.141
108.73
112.35
115.032
116.745
117.521
117.448
116.632
115.192
113.249
110.923
10.5033
12.1582
14.5619
18.0951
23.2257
30.3538
39.5062
50.1335
61.3301
72.2771
82.4725
91.6882
99.8409
106.899
112.842
117.651
121.333
123.876
125.263
125.57
124.918
123.45
121.323
118.693
10.7949
12.5487
15.1184
18.937
24.5465
32.4034
42.5163
54.2386
66.5479
78.5513
89.7146
99.7916
108.679
116.318
122.659
127.661
131.329
133.581
134.464
134.106
132.674
130.367
127.392
9.7635
11.1016
12.9578
15.7024
19.8258
25.9548
34.6289
45.8317
58.8079
72.4029
85.6378
97.9363
109.023
118.76
127.049
133.797
138.941
142.412
144.165
144.302
143.017
140.555
137.192
10.009
11.4238
13.3865
16.3154
20.7675
27.4645
37.0533
49.5057
63.932
79.0271
93.7119
107.353
119.63
130.349
139.35
146.479
151.653
154.676
155.611
154.654
152.098
148.306
9.14472
10.2664
11.7641
13.8372
16.9605
21.7687
29.098
39.7169
53.6115
69.7294
86.593
103.003
118.25
131.941
143.799
153.565
161.007
165.893
168.1
167.775
165.254
161.006
8.63766
9.37935
10.5367
12.1245
14.3134
17.6439
22.8418
30.8809
42.6745
58.2442
76.353
95.3236
113.81
130.995
146.374
159.534
170.066
177.632
181.784
182.577
180.336
175.642
8.90387
9.63455
10.8235
12.5078
14.8195
18.3717
23.9979
32.8375
45.9873
63.5253
84.0061
105.522
126.544
146.102
163.515
178.152
189.376
196.509
199.216
197.708
192.659
8.78676
9.20897
9.92307
11.136
12.9158
15.3608
19.1519
25.2531
35.0057
49.7402
69.6182
92.9634
117.6
141.766
164.264
184.124
200.352
211.92
217.75
217.776
212.637
8.92713
9.16116
9.56792
10.2667
11.4916
13.3506
15.9459
19.9977
26.6321
37.4399
54.0529
76.7545
103.618
132.155
160.3
186.5
209.302
227.094
237.968
240.927
236.308
9.39345
9.61074
10
10.6831
11.9008
13.821
16.591
20.9309
28.1733
40.2223
59.1022
85.2738
116.548
150.071
183.355
214.268
240.494
259.188
267.396
264.578
9.86952
9.96389
10.161
10.5273
11.1843
12.3692
14.3402
17.3198
21.9844
29.9354
43.4793
65.1623
95.6999
132.645
172.716
212.81
249.78
279.67
296.961
298.479
10.6022
10.612
10.6834
10.8537
11.1875
11.8021
12.9251
14.9329
18.1641
23.207
32.0105
47.412
72.666
108.86
153.327
202.283
251.646
296.312
328.459
338.976
11.6536
11.6018
11.5869
11.6293
11.7644
12.0545
12.6136
13.665
15.692
19.1713
24.6797
34.5522
52.3523
82.3214
126.108
180.951
242.468
304.809
358.537
386.4
13.1724
13.0711
12.9911
12.9436
12.9475
13.0365
13.2716
13.7684
14.7628
16.7836
20.4435
26.5573
37.8307
58.8721
95.3566
149.844
219.805
300.111
381.034
439.525
15.4782
15.33
15.1939
15.0744
14.981
14.931
14.9557
15.1151
15.5261
16.43
18.3629
22.17
29.1306
42.3336
67.9794
113.943
184.428
278.017
388.232
493.372
19.3014
19.1018
18.9075
18.7184
18.5371
18.3712
18.2354
18.1577
18.1941
18.4562
19.1749
20.8495
24.6822
32.9487
49.0144
81.7383
142.791
239.881
375.144
536.941
26.5537
26.2935
26.0249
25.746
25.4576
25.157
24.8508
24.5503
24.2783
24.0839
24.0721
24.4765
25.8598
29.7427
39.3409
59.8791
104.339
192.028
339.749
560.165
43.3203
42.9179
42.4595
41.9876
41.5019
40.9671
40.3733
39.7235
39.0243
38.293
37.5724
36.965
36.7135
37.4548
40.9319
51.6874
79.6818
146.424
291.557
563.31
93.2894
91.8655
90.5005
89.4974
88.8138
88.0004
86.8654
85.3897
83.602
81.5469
79.3012
77.0373
74.8564
72.9192
71.8485
73.6015
85.081
128.577
255.635
579.158
267.652
264.593
263.316
263.711
263.898
263.069
261.172
258.396
254.742
250.178
244.876
240.294
235.934
231.306
226.243
221.239
218.897
229.53
299.14
651.706
1530.04
1523.65
1517.47
1511.5
1505.74
1500.16
1494.78
1489.57
1484.54
1479.67
1474.96
1470.4
1466
1461.73
1457.61
1453.61
1449.74
1446
1442.38
1438.87
16.4448
16.5777
16.7231
16.8816
17.0534
17.2389
17.4379
17.6503
17.8761
18.1175
18.3793
18.6652
18.9774
19.3177
19.6884
20.0921
20.5312
21.0089
21.5284
22.0934
22.7078
23.3763
24.104
24.8966
25.7604
26.703
27.7326
28.8588
30.0927
31.4468
32.9361
34.5778
36.3923
38.4039
40.6416
43.1406
45.9438
49.1043
52.6888
56.7822
61.4947
66.9721
73.4127
81.094
90.4213
101.981
116.716
136.221
163.429
204.363
273.271
409.251
733.518
1548.51
2827.82
16.4744
16.6096
16.7574
16.918
17.0919
17.2791
17.4796
17.6932
17.9202
18.1637
18.4286
18.7179
19.0335
19.3773
19.7517
20.159
20.6019
21.0834
21.6068
22.1757
22.7941
23.4667
24.1984
24.9951
25.8631
26.8098
27.8436
28.9739
30.2119
31.5703
33.0637
34.7097
36.5286
38.5449
40.7877
43.2923
46.1021
49.2709
52.8661
56.9741
61.7072
67.2148
73.7012
81.4537
90.8921
102.645
117.702
137.758
165.921
208.46
279.489
414.183
697.458
1238.03
1763.23
16.5054
16.6431
16.7931
16.9559
17.1317
17.3206
17.5224
17.7372
17.9654
18.2112
18.4794
18.772
19.091
19.4383
19.8162
20.2271
20.6737
21.159
21.6861
22.2589
22.8812
23.5577
24.2933
25.0939
25.9659
26.9165
27.9541
29.0883
30.3301
31.6922
33.1895
34.8392
36.6619
38.682
40.9289
43.438
46.2531
49.4281
53.0314
57.1502
61.8983
67.4276
73.9451
81.7424
91.243
103.087
118.287
138.51
166.766
208.858
276.95
398.258
615.029
990.216
1251.14
16.5377
16.6777
16.8299
16.9947
17.1724
17.3628
17.5658
17.7815
18.0113
18.2598
18.5312
18.8271
19.1494
19.5002
19.8815
20.296
20.7462
21.2351
21.766
22.3425
22.9685
23.6487
24.3882
25.1924
26.0681
27.0223
28.0635
29.2013
30.4465
31.8119
33.3123
34.965
36.7907
38.8137
41.0635
43.5755
46.3937
49.5722
53.1796
57.3036
62.0584
67.5962
74.124
81.9318
91.4374
103.265
118.385
138.377
165.977
206.173
268.624
372.602
530.745
801.076
972.934
16.5712
16.7134
16.8678
17.0346
17.2139
17.4057
17.6098
17.8264
18.058
18.3095
18.584
18.8832
19.2088
19.5629
19.9477
20.3657
20.8194
21.3118
21.8463
22.4263
23.056
23.7398
24.4827
25.2905
26.1695
27.1271
28.1716
29.3124
30.5605
31.9286
33.4316
35.0866
36.9143
38.9389
41.1899
43.7028
46.5213
49.6997
53.306
57.4278
62.1783
67.7082
74.221
81.9995
91.447
103.157
118.033
137.509
163.964
201.524
257.619
344.465
461.331
653.273
784.549
16.6058
16.7502
16.9067
17.0753
17.2561
17.4492
17.6542
17.8717
18.1054
18.3601
18.6378
18.9401
19.269
19.6264
20.0146
20.4359
20.8931
21.389
21.9269
22.5104
23.1434
23.8306
24.5768
25.3879
26.27
27.2306
28.2779
29.4213
30.6718
32.042
33.5467
35.203
37.0315
39.0563
41.3066
43.8179
46.6334
49.8069
53.4059
57.5164
62.2498
67.7528
74.2226
81.93
91.2562
102.752
117.238
135.978
160.987
195.577
245.29
316.071
404.626
539.439
641.284
16.6414
16.7881
16.9465
17.1168
17.299
17.4931
17.6989
17.9177
18.1539
18.4117
18.6924
18.9979
19.33
19.6907
20.0821
20.5068
20.9672
21.4665
22.0077
22.5944
23.2307
23.921
24.6703
25.4843
26.3693
27.3325
28.3822
29.5277
30.78
32.1515
33.657
35.3135
37.1413
39.1644
41.4118
43.9184
46.7269
49.8902
53.4745
57.5636
62.2655
67.7216
74.1196
81.7146
90.86
102.057
116.034
133.88
157.257
188.759
232.34
289.402
357.777
452.542
530.027
16.6781
16.8268
16.9871
17.159
17.3425
17.5374
17.7439
17.9643
18.2034
18.4641
18.7479
19.0565
19.3917
19.7556
20.1502
20.5781
21.0417
21.5441
22.0885
22.6783
23.3176
24.0109
24.763
25.5796
26.467
27.4324
28.484
29.631
30.8843
32.2563
33.7615
35.4169
37.2424
39.2619
41.5036
44.0021
46.799
49.9461
53.5076
57.5643
62.2199
67.6085
73.9065
81.3504
90.2623
101.09
114.468
131.313
152.972
181.422
219.22
265.255
318.544
385.959
443.83
16.7158
16.8665
17.0285
17.2018
17.3863
17.582
17.7893
18.0116
18.2537
18.5173
18.8042
19.1158
19.4541
19.821
20.2188
20.6497
21.1164
21.6219
22.1692
22.7619
23.4041
24.1
24.8546
25.6735
26.5629
27.53
28.5829
29.7308
30.9843
32.3558
33.8596
35.5123
37.3337
39.347
41.5801
44.0666
46.847
49.9714
53.5014
57.5145
62.1086
67.4097
73.5813
80.8392
89.4728
99.8752
112.59
128.375
148.296
173.824
206.265
243.581
285.348
334.224
377.243
16.7544
16.907
17.0705
17.2451
17.4305
17.6268
17.8351
18.0598
18.3048
18.5713
18.8611
19.1757
19.517
19.8869
20.2877
20.7216
21.1912
21.6995
22.2496
22.8451
23.4897
24.188
24.9448
25.7656
26.6566
27.6249
28.6785
29.8264
31.0792
32.4491
33.95
35.5984
37.4136
39.4182
41.6394
44.1097
46.8683
49.963
53.4528
57.4108
61.9288
67.1235
73.1446
80.1865
88.5051
98.4406
110.45
125.149
143.362
166.127
193.739
224.128
257.057
293.275
325.526
16.7939
16.9482
17.1131
17.2888
17.4749
17.6716
17.8814
18.1089
18.3566
18.626
18.9187
19.2362
19.5804
19.9532
20.3568
20.7935
21.266
21.777
22.3296
22.9275
23.5745
24.2748
25.0334
25.8557
26.7478
27.7166
28.7701
29.9172
31.1684
32.5353
34.0319
35.6742
37.4808
39.4739
41.6797
44.1293
46.8604
49.9185
53.3592
57.251
61.679
66.75
72.5994
79.4001
87.3751
96.8143
108.095
121.707
138.27
158.437
181.814
206.664
232.811
260.244
284.797
16.8341
16.99
17.1562
17.3327
17.5194
17.7167
17.9283
18.1586
18.4091
18.6813
18.9768
19.2971
19.6441
20.0197
20.4261
20.8655
21.3405
21.854
22.409
23.0091
23.658
24.36
25.12
25.9433
26.8358
27.8046
28.8572
30.0026
31.2509
32.6136
34.1042
35.7383
37.5339
39.5125
41.699
44.1235
46.8215
49.8359
53.2189
57.0338
61.3588
66.2907
71.9502
78.4892
86.0992
95.023
105.566
118.109
133.097
150.838
170.576
190.986
211.924
233.132
252.16
16.8749
17.0323
17.1996
17.3768
17.5638
17.7622
17.976
18.209
18.4622
18.7372
19.0354
19.3584
19.7081
20.0864
20.4953
20.9372
21.4146
21.9304
22.4875
23.0895
23.74
24.4434
25.2043
26.028
26.9204
27.8883
28.9392
30.0819
31.326
32.683
34.1658
35.7895
37.5716
39.5324
41.6959
44.0905
46.7496
49.7136
53.0305
56.7587
60.9691
65.7482
71.2027
77.4638
84.6936
93.0918
102.9
114.404
127.901
143.408
160.061
176.909
193.831
210.535
225.54
16.9164
17.075
17.2432
17.4209
17.6083
17.808
18.0244
18.2599
18.5158
18.7934
19.0943
19.4199
19.7722
20.153
20.5643
21.0086
21.4882
22.006
22.565
23.1685
23.8203
24.5245
25.2858
26.1093
27.0009
27.9672
29.0155
30.1542
31.3929
32.7426
34.2157
35.8268
37.5925
39.5323
41.6689
44.0289
46.6437
49.5505
52.7936
56.426
60.5112
65.126
70.363
76.3342
83.1743
91.0437
100.129
110.635
122.726
136.212
150.275
164.262
178.069
191.442
203.467
16.9583
17.118
17.2869
17.465
17.6528
17.8542
18.0733
18.3114
18.5699
18.8501
19.1534
19.4816
19.8363
20.2194
20.6331
21.0794
21.561
22.0805
22.641
23.2457
23.8984
24.603
25.3641
26.1869
27.0769
28.0406
29.0852
30.2188
31.4506
32.7913
34.2527
35.8488
37.5954
39.5109
41.6166
43.9375
46.5025
49.3459
52.508
56.0363
59.9873
64.428
69.4379
75.1107
81.5562
88.9003
97.2813
106.836
117.615
129.301
141.204
152.883
164.255
175.117
184.893
17.0006
17.1612
17.3305
17.5088
17.6976
17.9012
18.1227
18.3633
18.6243
18.9069
19.2127
19.5432
19.9002
20.2856
20.7012
21.1495
21.6328
22.1538
22.7154
23.3209
23.974
24.6784
25.4389
26.2601
27.1478
28.108
29.1478
30.2749
31.4984
32.8282
34.2759
35.8546
37.5792
39.4671
41.5382
43.8154
46.3255
49.0997
52.174
55.591
59.4
63.6588
68.4343
73.8038
79.8543
86.6815
94.3834
103.039
112.603
122.71
132.815
142.627
152.076
161.011
169.06
17.0431
17.2043
17.374
17.5524
17.7426
17.9486
18.1725
18.4155
18.6789
18.9639
19.272
19.6047
19.9639
20.3512
20.7687
21.2186
21.7033
22.2254
22.7879
23.3938
24.0467
24.7505
25.5095
26.3285
27.2129
28.1686
29.2024
30.3218
31.5353
32.8526
34.2844
35.8432
37.543
39.4001
41.4326
43.662
46.1123
48.8118
51.7925
55.0918
58.7524
62.8231
67.3596
72.4236
78.0827
84.4063
91.4588
99.2684
107.722
116.459
125.068
133.36
141.277
148.708
155.409
17.0857
17.2474
17.4173
17.5961
17.7878
17.9963
18.2226
18.468
18.7336
19.0208
19.3311
19.6659
20.027
20.4161
20.8352
21.2865
21.7723
22.2952
22.858
23.4639
24.1161
24.8186
25.5755
26.3915
27.2717
28.2219
29.2484
30.3587
31.5606
32.8633
34.2772
35.8136
37.4859
39.3088
41.2993
43.4767
45.8628
48.4826
51.3646
54.5408
58.0478
61.9262
66.221
70.9806
76.2551
82.0925
88.5284
95.5488
102.998
110.554
117.919
124.966
131.65
137.89
143.524
17.1282
17.2902
17.4601
17.6398
17.8336
18.0443
18.2729
18.5205
18.7883
19.0777
19.3899
19.7266
20.0894
20.4801
20.9006
21.3529
21.8395
22.3628
22.9256
23.5308
24.1819
24.8824
25.6365
26.4485
27.3236
28.2671
29.2852
30.3848
31.5734
32.8598
34.2535
35.7652
37.4071
39.1928
41.1378
43.2594
45.5772
48.113
50.8916
53.9405
57.2901
60.9735
65.0263
69.485
74.3851
79.7565
85.6108
91.9
98.4514
104.995
111.321
117.342
123.023
128.308
133.086
17.1706
17.3327
17.5026
17.6836
17.8797
18.0926
18.3233
18.573
18.8429
19.1342
19.4483
19.7867
20.151
20.5429
20.9645
21.4176
21.9046
22.4278
22.9901
23.5942
24.2435
24.9413
25.6918
26.499
27.3679
28.3036
29.3119
30.3993
31.5731
32.8412
34.2125
35.6971
37.306
39.0516
40.9478
43.0102
45.2558
47.7039
50.3755
53.2936
56.4832
59.9706
63.7831
67.9468
72.4852
77.4132
82.7219
88.3392
94.0947
99.7733
105.227
110.397
115.258
119.766
123.849
17.2127
17.3747
17.545
17.7275
17.9258
18.1408
18.3737
18.6253
18.8971
19.1902
19.5059
19.8458
20.2114
20.6044
21.0267
21.4802
21.9672
22.49
23.0512
23.6537
24.3004
24.995
25.7409
26.5425
27.4041
28.3307
29.3279
30.4017
31.5589
32.8068
34.1537
35.6088
37.1821
38.8848
40.7293
42.7292
44.8995
47.2566
49.8181
52.6031
55.6314
58.9235
62.499
66.3758
70.5672
75.0757
79.8754
84.8806
89.9352
94.8741
99.5941
104.055
108.236
112.107
115.62
17.2543
17.4162
17.5873
17.7718
17.9721
18.1891
18.4238
18.6774
18.9509
19.2456
19.5627
19.9039
20.2705
20.6643
21.0869
21.5405
22.0271
22.5489
23.1086
23.7087
24.3524
25.0427
25.7834
26.5782
27.4315
28.3479
29.3326
30.3913
31.5302
32.756
34.0765
35.4998
37.0351
38.6922
40.4822
42.4169
44.509
46.7725
49.2219
51.8723
54.7393
57.8378
61.1816
64.7813
68.6419
72.7554
77.0832
81.5346
85.9753
90.2814
94.3811
98.246
101.861
105.205
108.244
17.2954
17.4572
17.6294
17.8159
18.0182
18.2371
18.4737
18.7289
19.004
19.3001
19.6185
19.9606
20.328
20.7222
21.1449
21.5981
22.0838
22.6042
23.1617
23.759
24.3988
25.0842
25.8186
26.6058
27.4496
28.3546
29.3254
30.3674
31.4863
32.6883
33.9803
35.3697
36.8647
38.4739
40.2069
42.0739
44.0856
46.2535
48.5892
51.1046
53.8113
56.7197
59.8382
63.1718
66.7186
70.462
74.3548
78.3088
82.2133
85.977
89.5499
92.912
96.0524
98.956
101.599
17.3358
17.4979
17.6716
17.8601
18.0642
18.2848
18.523
18.7798
19.0563
19.3536
19.673
20.0158
20.3836
20.7779
21.2003
21.6527
22.1371
22.6555
23.2103
23.8039
24.4391
25.1188
25.8461
26.6245
27.4578
28.3501
29.3057
30.3296
31.4269
32.6032
33.8649
35.2184
36.6709
38.23
39.9039
41.7011
43.6305
45.7014
47.9228
50.3037
52.8521
55.5746
58.4756
61.5551
64.8057
68.2037
71.6979
75.2075
78.6445
81.9421
85.0657
88.0011
90.7403
93.2727
95.5824
17.3754
17.5382
17.7137
17.904
18.1098
18.3321
18.5718
18.8299
19.1075
19.4058
19.7259
20.0692
20.4371
20.8311
21.2528
21.704
22.1865
22.7024
23.2538
23.8432
24.473
25.1461
25.8653
26.634
27.4556
28.3339
29.273
30.2772
31.3513
32.5003
33.7298
35.0455
36.4536
37.9607
39.5736
41.2994
43.1453
45.1183
47.2255
49.473
51.8661
54.4082
57.1001
59.9382
62.9101
65.9874
69.1183
72.2327
75.262
78.1582
80.8969
83.4682
85.8663
88.0839
90.1103
17.4145
17.5783
17.7556
17.9475
18.1549
18.3787
18.6197
18.879
19.1575
19.4565
19.7771
20.1205
20.4882
20.8815
21.3021
21.7516
22.2317
22.7445