/*--------------------------------*- C++ -*----------------------------------*\
  =========                 |
  \\      /  F ield         | OpenFOAM: The Open Source CFD Toolbox
   \\    /   O peration     | Website:  https://openfoam.org
    \\  /    A nd           | Version:  10
     \\/     M anipulation  |
\*---------------------------------------------------------------------------*/
FoamFile
{
    format      ascii;
    class       volScalarField;
    location    "12000";
    object      p;
}
// * * * * * * * * * * * * * * * * * * * * * * * * * * * * * * * * * * * * * //

dimensions      [0 2 -2 0 0 0 0];

internalField   nonuniform List<scalar> 
17981
(
0.000142522
0.0674851
0.133098
0.197074
0.259471
0.320322
0.379658
0.43751
0.493909
0.548887
0.602475
0.654704
0.705602
0.755201
0.803529
0.850615
0.896488
0.941175
0.984704
1.0271
1.0684
1.10861
1.14777
1.1859
1.22304
1.25919
1.29438
1.32865
1.362
1.39447
1.42607
1.45683
1.48676
1.51589
1.54424
1.57183
1.59868
1.6248
1.65021
1.67494
1.69899
1.72239
1.74516
1.76731
1.78884
1.80974
1.83003
1.84978
-7.88405e-05
0.0671597
0.132749
0.196723
0.259116
0.319958
0.379283
0.437123
0.493508
0.548471
0.602043
0.654254
0.705134
0.754713
0.803021
0.850087
0.895938
0.940604
0.984111
1.02649
1.06776
1.10795
1.14709
1.1852
1.22231
1.25844
1.29361
1.32785
1.36118
1.39363
1.42521
1.45595
1.48586
1.51498
1.54331
1.57087
1.5977
1.6238
1.6492
1.67391
1.69794
1.72133
1.74408
1.76621
1.78773
1.80862
1.8289
1.84863
-0.000566252
0.0666853
0.132286
0.196269
0.258667
0.319512
0.378837
0.436674
0.493055
0.548012
0.601575
0.653775
0.704644
0.75421
0.802504
0.849554
0.89539
0.940038
0.983528
1.02589
1.06714
1.10731
1.14643
1.18452
1.22161
1.25772
1.29288
1.3271
1.36041
1.39284
1.4244
1.45512
1.48502
1.51411
1.54243
1.56998
1.59679
1.62287
1.64825
1.67294
1.69697
1.72034
1.74307
1.76519
1.78669
1.80757
1.82784
1.84756
0.258156
0.319008
0.378336
0.436173
0.492552
0.547504
0.601061
0.653253
0.704112
0.753667
0.801948
0.848985
0.894805
0.939438
0.982912
1.02525
1.06649
1.10664
1.14574
1.18382
1.22089
1.25698
1.29212
1.32632
1.35961
1.39202
1.42357
1.45427
1.48414
1.51322
1.54152
1.56905
1.59584
1.62191
1.64727
1.67195
1.69596
1.71931
1.74203
1.76413
1.78562
1.80649
1.82675
1.84646
0.257572
0.318437
0.377775
0.43562
0.492004
0.546958
0.600514
0.652704
0.703558
0.753107
0.80138
0.848408
0.894218
0.938839
0.9823
1.02463
1.06585
1.10599
1.14507
1.18313
1.22019
1.25626
1.29138
1.32557
1.35885
1.39124
1.42276
1.45345
1.48331
1.51237
1.54065
1.56817
1.59494
1.62099
1.64634
1.671
1.69499
1.71833
1.74104
1.76312
1.7846
1.80546
1.82572
1.84541
0.256917
0.317802
0.377156
0.435013
0.491407
0.546367
0.599928
0.652119
0.702973
0.752519
0.800788
0.847808
0.893611
0.938223
0.981673
1.02399
1.0652
1.10532
1.1444
1.18244
1.21948
1.25554
1.29064
1.32481
1.35808
1.39045
1.42196
1.45263
1.48248
1.51152
1.53978
1.56729
1.59405
1.62008
1.64541
1.67006
1.69404
1.71736
1.74005
1.76213
1.78359
1.80445
1.82469
1.84437
0.317104
0.376481
0.434358
0.490767
0.54574
0.59931
0.651509
0.702367
0.751915
0.800184
0.847203
0.893002
0.937609
0.981053
1.02336
1.06456
1.10468
1.14374
1.18177
1.2188
1.25484
1.28994
1.32409
1.35734
1.3897
1.4212
1.45185
1.48168
1.51071
1.53896
1.56645
1.59319
1.61922
1.64454
1.66917
1.69313
1.71644
1.73912
1.76118
1.78263
1.80348
1.82371
1.84338
0.433649
0.49008
0.545071
0.598657
0.650867
0.701734
0.751289
0.799562
0.846583
0.892381
0.936986
0.980426
1.02273
1.06392
1.10403
1.14309
1.18111
1.21812
1.25416
1.28924
1.32338
1.35662
1.38897
1.42045
1.45109
1.48091
1.50992
1.53816
1.56563
1.59236
1.61837
1.64368
1.6683
1.69225
1.71554
1.73821
1.76025
1.7817
1.80254
1.82276
1.84241
0.489347
0.544362
0.597968
0.650196
0.701077
0.750643
0.798925
0.845952
0.891755
0.936362
0.979802
1.0221
1.06329
1.1034
1.14245
1.18046
1.21747
1.2535
1.28857
1.3227
1.35593
1.38826
1.41973
1.45036
1.48017
1.50917
1.53739
1.56485
1.59157
1.61757
1.64286
1.66746
1.6914
1.71469
1.73734
1.75937
1.78081
1.80164
1.82186
1.8415
0.59724
0.64949
0.700391
0.749973
0.798267
0.845305
0.891116
0.935728
0.979172
1.02147
1.06266
1.10277
1.14181
1.17982
1.21683
1.25285
1.28791
1.32203
1.35525
1.38758
1.41904
1.44965
1.47945
1.50844
1.53665
1.5641
1.59081
1.61679
1.64207
1.66666
1.69059
1.71386
1.7365
1.75852
1.77994
1.80077
1.82099
1.84062
0.797592
0.844644
0.890467
0.935089
0.97854
1.02085
1.06204
1.10215
1.14119
1.1792
1.2162
1.25221
1.28727
1.32139
1.3546
1.38692
1.41837
1.44898
1.47876
1.50774
1.53594
1.56338
1.59008
1.61605
1.64132
1.6659
1.68981
1.71307
1.7357
1.75771
1.77912
1.79994
1.82015
1.83978
0.796891
0.843964
0.889803
0.934438
0.9779
1.02022
1.06141
1.10152
1.14057
1.17858
1.21558
1.25159
1.28664
1.32076
1.35396
1.38627
1.41772
1.44832
1.47809
1.50707
1.53526
1.56269
1.58937
1.61534
1.64059
1.66516
1.68907
1.71232
1.73493
1.75693
1.77833
1.79914
1.81935
1.83897
0.796165
0.843262
0.889122
0.933775
0.977252
1.01958
1.06079
1.1009
1.13996
1.17797
1.21497
1.25098
1.28603
1.32015
1.35335
1.38565
1.41709
1.44769
1.47746
1.50642
1.5346
1.56202
1.5887
1.61465
1.6399
1.66446
1.68835
1.7116
1.7342
1.75619
1.77758
1.79838
1.8186
1.83822
0.795409
0.842534
0.88842
0.933096
0.976591
1.01894
1.06016
1.10028
1.13934
1.17736
1.21437
1.25038
1.28544
1.31955
1.35275
1.38505
1.41649
1.44708
1.47684
1.5058
1.53397
1.56139
1.58805
1.614
1.63924
1.66379
1.68767
1.71091
1.7335
1.75548
1.77686
1.79765
1.81787
1.83749
0.84178
0.887695
0.932397
0.975916
1.01828
1.05952
1.09966
1.13873
1.17676
1.21377
1.24979
1.28485
1.31896
1.35216
1.38447
1.4159
1.44649
1.47624
1.5052
1.53337
1.56077
1.58744
1.61337
1.63861
1.66315
1.68702
1.71025
1.73283
1.7548
1.77617
1.79696
1.81717
1.83679
0.840993
0.886944
0.931677
0.975222
1.01761
1.05887
1.09903
1.13812
1.17616
1.21318
1.24921
1.28427
1.31839
1.35159
1.38389
1.41533
1.44591
1.47567
1.50462
1.53279
1.56019
1.58684
1.61277
1.638
1.66253
1.6864
1.70962
1.7322
1.75416
1.77552
1.79629
1.81649
1.83613
0.840173
0.886162
0.930931
0.974508
1.01692
1.05821
1.09839
1.13749
1.17555
1.21259
1.24863
1.2837
1.31782
1.35103
1.38334
1.41477
1.44535
1.47511
1.50406
1.53222
1.55962
1.58627
1.6122
1.63742
1.66195
1.68581
1.70901
1.73158
1.75354
1.77489
1.79565
1.81585
1.83548
0.885349
0.930157
0.97377
1.01622
1.05753
1.09774
1.13686
1.17494
1.21199
1.24804
1.28312
1.31726
1.35047
1.38279
1.41423
1.44481
1.47457
1.50352
1.53168
1.55907
1.58572
1.61164
1.63686
1.66138
1.68524
1.70844
1.731
1.75295
1.77429
1.79505
1.81523
1.83486
0.884501
0.929353
0.973006
1.01549
1.05683
1.09707
1.13622
1.17432
1.21139
1.24746
1.28255
1.3167
1.34992
1.38224
1.41369
1.44428
1.47404
1.50299
1.53115
1.55854
1.58519
1.61111
1.63632
1.66084
1.68469
1.70788
1.73044
1.75238
1.77371
1.79446
1.81464
1.83427
0.883617
0.928518
0.972215
1.01474
1.05612
1.09639
1.13557
1.17369
1.21078
1.24687
1.28198
1.31614
1.34938
1.38171
1.41316
1.44376
1.47352
1.50247
1.53064
1.55803
1.58468
1.61059
1.6358
1.66032
1.68416
1.70735
1.7299
1.75184
1.77317
1.79391
1.81408
1.8337
0.882697
0.92765
0.971396
1.01396
1.05538
1.09569
1.1349
1.17305
1.21017
1.24628
1.28141
1.31559
1.34883
1.38118
1.41264
1.44324
1.47301
1.50197
1.53014
1.55753
1.58418
1.6101
1.6353
1.65982
1.68366
1.70684
1.72939
1.75132
1.77265
1.79338
1.81355
1.83316
0.88174
0.926751
0.970548
1.01316
1.05463
1.09497
1.13422
1.1724
1.20955
1.24568
1.28084
1.31503
1.3483
1.38065
1.41213
1.44274
1.47252
1.50148
1.52966
1.55705
1.5837
1.60962
1.63483
1.65934
1.68318
1.70636
1.72891
1.75083
1.77216
1.79289
1.81305
1.83265
0.880749
0.925821
0.969675
1.01234
1.05385
1.09424
1.13352
1.17174
1.20892
1.24508
1.28026
1.31448
1.34776
1.38014
1.41163
1.44225
1.47204
1.50101
1.52919
1.55659
1.58325
1.60917
1.63437
1.65889
1.68273
1.70591
1.72845
1.75038
1.77169
1.79242
1.81258
1.83217
0.879722
0.92486
0.968775
1.0115
1.05306
1.09349
1.13282
1.17108
1.20829
1.24449
1.27969
1.31393
1.34724
1.37963
1.41114
1.44178
1.47158
1.50056
1.52874
1.55615
1.58281
1.60874
1.63395
1.65846
1.6823
1.70548
1.72803
1.74995
1.77126
1.79199
1.81214
1.83173
0.878663
0.92387
0.96785
1.01063
1.05225
1.09273
1.13211
1.17041
1.20766
1.24388
1.27912
1.31339
1.34672
1.37913
1.41066
1.44131
1.47113
1.50012
1.52832
1.55574
1.5824
1.60833
1.63354
1.65806
1.6819
1.70508
1.72763
1.74954
1.77086
1.79158
1.81173
1.83132
0.877571
0.922853
0.966901
1.00975
1.05142
1.09196
1.13138
1.16973
1.20702
1.24329
1.27856
1.31285
1.34621
1.37865
1.41019
1.44087
1.4707
1.4997
1.52791
1.55534
1.58201
1.60794
1.63316
1.65769
1.68153
1.70471
1.72726
1.74918
1.77049
1.79121
1.81136
1.83094
0.876449
0.921808
0.965929
1.00884
1.05058
1.09118
1.13065
1.16905
1.20638
1.24269
1.27799
1.31233
1.34571
1.37817
1.40974
1.44044
1.47028
1.4993
1.52752
1.55496
1.58164
1.60759
1.63281
1.65734
1.68118
1.70437
1.72691
1.74883
1.77014
1.79086
1.81101
1.83059
0.875295
0.920736
0.964934
1.00792
1.04973
1.09038
1.12992
1.16836
1.20574
1.24209
1.27744
1.31181
1.34522
1.37772
1.40931
1.44003
1.46989
1.49893
1.52717
1.55462
1.58131
1.60726
1.6325
1.65703
1.68088
1.70407
1.72662
1.74854
1.76985
1.79057
1.81071
1.8303
0.87411
0.919637
0.963916
1.00698
1.04886
1.08958
1.12917
1.16767
1.20511
1.24151
1.27689
1.3113
1.34475
1.37728
1.4089
1.43964
1.46953
1.49859
1.52685
1.55431
1.58102
1.60698
1.63222
1.65677
1.68063
1.70382
1.72637
1.7483
1.76961
1.79033
1.81048
1.83007
0.918511
0.962875
1.00602
1.04797
1.08876
1.12842
1.16698
1.20447
1.24092
1.27636
1.31081
1.3443
1.37686
1.40851
1.43928
1.4692
1.49828
1.52655
1.55404
1.58076
1.60673
1.63199
1.65654
1.68041
1.70361
1.72617
1.7481
1.76942
1.79014
1.81029
1.82988
0.917358
0.961811
1.00504
1.04707
1.08793
1.12766
1.16629
1.20384
1.24034
1.27583
1.31032
1.34385
1.37645
1.40814
1.43894
1.46888
1.49799
1.52628
1.55379
1.58053
1.60652
1.63179
1.65635
1.68023
1.70344
1.72601
1.74794
1.76927
1.79
1.81015
1.82974
0.916177
0.960722
1.00404
1.04615
1.08709
1.12689
1.16559
1.2032
1.23976
1.2753
1.30984
1.34342
1.37606
1.40778
1.43862
1.46859
1.49772
1.52604
1.55357
1.58033
1.60634
1.63162
1.65619
1.68008
1.7033
1.72588
1.74782
1.76915
1.78988
1.81004
1.82963
0.914968
0.959607
1.00301
1.04521
1.08623
1.12611
1.16488
1.20256
1.23918
1.27478
1.30937
1.343
1.37568
1.40744
1.43831
1.46832
1.49748
1.52582
1.55337
1.58015
1.60618
1.63147
1.65606
1.67997
1.7032
1.72578
1.74773
1.76907
1.78981
1.80997
1.82956
1.04425
1.08536
1.12532
1.16416
1.2019
1.23859
1.27425
1.3089
1.34258
1.3753
1.40711
1.43802
1.46806
1.49725
1.52562
1.5532
1.57999
1.60604
1.63136
1.65596
1.67987
1.70312
1.72571
1.74767
1.76901
1.78976
1.80992
1.82952
1.04327
1.08446
1.1245
1.16342
1.20124
1.238
1.27372
1.30843
1.34216
1.37493
1.40678
1.43773
1.46781
1.49703
1.52543
1.55304
1.57986
1.60593
1.63126
1.65588
1.67981
1.70306
1.72567
1.74763
1.76899
1.78974
1.80991
1.82951
1.04226
1.08354
1.12367
1.16267
1.20057
1.23739
1.27318
1.30795
1.34174
1.37456
1.40646
1.43745
1.46757
1.49683
1.52526
1.55289
1.57974
1.60583
1.63118
1.65582
1.67976
1.70303
1.72565
1.74762
1.76898
1.78974
1.80992
1.82953
1.04122
1.0826
1.12282
1.1619
1.19988
1.23678
1.27263
1.30747
1.34131
1.37419
1.40614
1.43718
1.46734
1.49663
1.5251
1.55276
1.57963
1.60575
1.63112
1.65578
1.67974
1.70302
1.72565
1.74764
1.769
1.78977
1.80995
1.82957
1.04015
1.08163
1.12194
1.16111
1.19917
1.23615
1.27207
1.30698
1.34088
1.37382
1.40582
1.43691
1.46711
1.49645
1.52495
1.55264
1.57954
1.60568
1.63108
1.65575
1.67973
1.70303
1.72567
1.74767
1.76905
1.78982
1.81001
1.82963
1.03906
1.08063
1.12103
1.16029
1.19844
1.2355
1.2715
1.30647
1.34045
1.37345
1.4055
1.43664
1.46688
1.49626
1.52481
1.55253
1.57946
1.60563
1.63105
1.65575
1.67974
1.70306
1.72571
1.74772
1.76911
1.78989
1.81008
1.82971
1.03793
1.0796
1.12009
1.15945
1.19768
1.23483
1.27091
1.30596
1.34
1.37306
1.40518
1.43637
1.46666
1.49609
1.52467
1.55243
1.5794
1.60559
1.63103
1.65575
1.67977
1.7031
1.72577
1.74779
1.76919
1.78998
1.81018
1.82981
1.03676
1.07853
1.11913
1.15858
1.1969
1.23413
1.2703
1.30542
1.33954
1.37267
1.40485
1.43609
1.46644
1.49591
1.52454
1.55233
1.57933
1.60556
1.63103
1.65577
1.67981
1.70316
1.72584
1.74788
1.76929
1.79009
1.8103
1.82993
1.03557
1.07744
1.11813
1.15767
1.19609
1.23341
1.26966
1.30487
1.33906
1.37226
1.40451
1.43581
1.46622
1.49574
1.52441
1.55225
1.57928
1.60554
1.63104
1.65581
1.67986
1.70323
1.72593
1.74798
1.7694
1.79021
1.81043
1.83007
1.03435
1.07631
1.1171
1.15674
1.19525
1.23267
1.269
1.30429
1.33856
1.37184
1.40415
1.43552
1.46598
1.49556
1.52427
1.55216
1.57923
1.60552
1.63106
1.65585
1.67993
1.70332
1.72603
1.7481
1.76953
1.79035
1.81058
1.83023
1.03309
1.07515
1.11603
1.15577
1.19438
1.23189
1.26832
1.30369
1.33804
1.3714
1.40378
1.43522
1.46574
1.49537
1.52414
1.55207
1.57919
1.60552
1.63108
1.6559
1.68001
1.70342
1.72615
1.74823
1.76968
1.79051
1.81075
1.8304
1.03181
1.07395
1.11493
1.15477
1.19347
1.23107
1.2676
1.30306
1.3375
1.37093
1.40339
1.4349
1.46549
1.49518
1.524
1.55198
1.57914
1.60551
1.63111
1.65596
1.68009
1.70352
1.72628
1.74838
1.76984
1.79068
1.81093
1.83059
1.0305
1.07273
1.1138
1.15373
1.19253
1.23022
1.26684
1.3024
1.33693
1.37044
1.40298
1.43457
1.46522
1.49498
1.52386
1.55189
1.57909
1.6055
1.63114
1.65602
1.68019
1.70364
1.72642
1.74853
1.77001
1.79086
1.81112
1.83079
1.02918
1.07148
1.11264
1.15265
1.19155
1.22934
1.26605
1.3017
1.33632
1.36993
1.40255
1.43421
1.46494
1.49476
1.5237
1.55178
1.57904
1.6055
1.63117
1.65609
1.68028
1.70377
1.72656
1.7487
1.77019
1.79106
1.81133
1.83101
1.02785
1.07022
1.11145
1.15155
1.19053
1.22842
1.26522
1.30097
1.33568
1.36937
1.40208
1.43382
1.46463
1.49452
1.52352
1.55167
1.57898
1.60548
1.6312
1.65616
1.68038
1.70389
1.72672
1.74887
1.77038
1.79127
1.81154
1.83124
1.02652
1.06894
1.11024
1.15041
1.18948
1.22746
1.26436
1.3002
1.335
1.36879
1.40158
1.43341
1.46429
1.49426
1.52333
1.55154
1.57891
1.60546
1.63123
1.65622
1.68048
1.70403
1.72687
1.74905
1.77058
1.79148
1.81177
1.83147
1.02519
1.06766
1.10901
1.14925
1.1884
1.22646
1.26345
1.29939
1.33428
1.36816
1.40105
1.43297
1.46393
1.49398
1.52312
1.5514
1.57883
1.60543
1.63125
1.65629
1.68058
1.70416
1.72703
1.74924
1.77078
1.7917
1.812
1.83172
1.02388
1.06639
1.10778
1.14808
1.18729
1.22543
1.26251
1.29853
1.33352
1.3675
1.40048
1.43249
1.46354
1.49367
1.52289
1.55123
1.57873
1.60539
1.63126
1.65634
1.68068
1.70429
1.7272
1.74942
1.77099
1.79192
1.81224
1.83197
1.02259
1.06512
1.10655
1.1469
1.18617
1.22437
1.26153
1.29764
1.33272
1.36679
1.39987
1.43197
1.46311
1.49332
1.52263
1.55105
1.57861
1.60534
1.63126
1.65639
1.68077
1.70442
1.72736
1.74961
1.77121
1.79216
1.81249
1.83223
1.02133
1.06388
1.10534
1.14572
1.18503
1.2233
1.26052
1.29671
1.33188
1.36604
1.39921
1.4314
1.46264
1.49294
1.52233
1.55083
1.57847
1.60526
1.63124
1.65643
1.68086
1.70455
1.72752
1.74981
1.77142
1.79239
1.81274
1.83249
1.06266
1.10414
1.14454
1.18389
1.2222
1.25949
1.29575
1.331
1.36525
1.39851
1.4308
1.46213
1.49252
1.522
1.55058
1.5783
1.60516
1.63121
1.65646
1.68094
1.70467
1.72768
1.75
1.77164
1.79263
1.813
1.83276
1.06148
1.10297
1.14339
1.18276
1.22111
1.25844
1.29476
1.33008
1.36441
1.39776
1.43014
1.46157
1.49206
1.52163
1.5503
1.57809
1.60504
1.63115
1.65647
1.681
1.70478
1.72784
1.75019
1.77186
1.79288
1.81326
1.83304
1.14226
1.18165
1.22002
1.25739
1.29376
1.32914
1.36354
1.39697
1.42945
1.46097
1.49155
1.52121
1.54998
1.57786
1.60488
1.63107
1.65645
1.68105
1.70488
1.72798
1.75037
1.77207
1.79312
1.81352
1.83331
1.14116
1.18056
1.21895
1.25634
1.29274
1.32817
1.36264
1.39615
1.4287
1.46031
1.49099
1.52075
1.54961
1.57758
1.60469
1.63096
1.65642
1.68108
1.70497
1.72812
1.75055
1.77229
1.79336
1.81379
1.83359
1.1795
1.2179
1.25531
1.29174
1.3272
1.36172
1.39528
1.42791
1.45961
1.49038
1.52024
1.54919
1.57726
1.60446
1.63082
1.65635
1.68108
1.70504
1.72824
1.75072
1.77249
1.7936
1.81405
1.83387
1.17848
1.21688
1.2543
1.29074
1.32623
1.36078
1.3944
1.42709
1.45887
1.48972
1.51967
1.54873
1.57689
1.60419
1.63064
1.65625
1.68106
1.70508
1.72835
1.75087
1.77269
1.79383
1.81431
1.83416
1.17748
1.2159
1.25332
1.28977
1.32528
1.35985
1.3935
1.42625
1.45808
1.48902
1.51906
1.54821
1.57647
1.60387
1.63041
1.65612
1.68101
1.7051
1.72843
1.75102
1.77288
1.79406
1.81457
1.83443
1.21494
1.25237
1.28883
1.32435
1.35893
1.39261
1.42539
1.45727
1.48828
1.5184
1.54763
1.576
1.60349
1.63013
1.65593
1.68091
1.70509
1.72849
1.75114
1.77306
1.79428
1.81482
1.83471
1.21403
1.25146
1.28792
1.32344
1.35804
1.39173
1.42453
1.45645
1.4875
1.51769
1.54701
1.57546
1.60306
1.6298
1.6557
1.68078
1.70505
1.72853
1.75124
1.77322
1.79448
1.81506
1.83498
1.25058
1.28704
1.32257
1.35717
1.39086
1.42368
1.45563
1.48671
1.51695
1.54634
1.57488
1.60257
1.62941
1.65542
1.68059
1.70496
1.72852
1.75132
1.77336
1.79468
1.8153
1.83525
1.24973
1.2862
1.32173
1.35633
1.39003
1.42285
1.45481
1.48592
1.5162
1.54564
1.57425
1.60203
1.62897
1.65508
1.68036
1.70482
1.72848
1.75136
1.77348
1.79486
1.81552
1.83551
1.24893
1.2854
1.32092
1.35553
1.38923
1.42206
1.45402
1.48515
1.51544
1.54492
1.57359
1.60144
1.62847
1.65467
1.68006
1.70463
1.72839
1.75137
1.77356
1.79501
1.81573
1.83576
1.28463
1.32016
1.35476
1.38847
1.42129
1.45326
1.48439
1.5147
1.5442
1.5729
1.60081
1.62791
1.65421
1.6797
1.70438
1.72825
1.75133
1.77362
1.79514
1.81593
1.836
1.2839
1.31942
1.35403
1.38774
1.42056
1.45253
1.48366
1.51398
1.54349
1.57221
1.60015
1.62732
1.6537
1.67929
1.70407
1.72806
1.75124
1.77363
1.79524
1.8161
1.83623
1.2832
1.31873
1.35334
1.38704
1.41987
1.45184
1.48297
1.51329
1.5428
1.57153
1.5995
1.6267
1.65314
1.67881
1.7037
1.7278
1.75109
1.77359
1.79531
1.81625
1.83644
1.31807
1.35268
1.38639
1.41921
1.45118
1.48231
1.51263
1.54215
1.57088
1.59886
1.62608
1.65256
1.6783
1.70327
1.72747
1.75089
1.7735
1.79533
1.81636
1.83663
1.31746
1.35206
1.38577
1.41859
1.45056
1.48169
1.51201
1.54152
1.57026
1.59824
1.62548
1.65198
1.67775
1.7028
1.72709
1.75062
1.77335
1.7953
1.81644
1.83679
1.31687
1.35148
1.38518
1.41801
1.44998
1.48111
1.51142
1.54094
1.56968
1.59766
1.62489
1.65141
1.6772
1.70229
1.72666
1.75028
1.77314
1.79521
1.81647
1.83693
1.31633
1.35094
1.38464
1.41746
1.44943
1.48056
1.51087
1.54039
1.56912
1.5971
1.62434
1.65086
1.67667
1.70178
1.72619
1.7499
1.77287
1.79506
1.81645
1.83702
1.31583
1.35043
1.38413
1.41695
1.44892
1.48005
1.51036
1.53987
1.56861
1.59659
1.62382
1.65034
1.67616
1.70128
1.72572
1.74948
1.77254
1.79485
1.81637
1.83707
1.31536
1.34996
1.38366
1.41648
1.44845
1.47957
1.50988
1.53939
1.56812
1.5961
1.62334
1.64986
1.67567
1.7008
1.72526
1.74905
1.77217
1.79458
1.81624
1.83707
1.31495
1.34954
1.38324
1.41605
1.44801
1.47913
1.50944
1.53895
1.56768
1.59565
1.62289
1.64941
1.67522
1.70036
1.72482
1.74863
1.77179
1.79428
1.81605
1.83702
1.31458
1.34917
1.38286
1.41567
1.44762
1.47874
1.50904
1.53854
1.56727
1.59524
1.62247
1.64899
1.6748
1.69993
1.7244
1.74822
1.7714
1.79395
1.81582
1.83693
1.31426
1.34884
1.38252
1.41533
1.44727
1.47838
1.50867
1.53817
1.56689
1.59486
1.62209
1.6486
1.67441
1.69954
1.72401
1.74783
1.77103
1.7936
1.81554
1.83677
1.31399
1.34858
1.38226
1.41506
1.447
1.47811
1.5084
1.53789
1.5666
1.59456
1.62177
1.64827
1.67407
1.69919
1.72365
1.74747
1.77066
1.79324
1.81522
1.83648
1.31387
1.34845
1.38212
1.41491
1.44684
1.47793
1.50821
1.53768
1.56638
1.59432
1.62152
1.64801
1.67379
1.6989
1.72334
1.74714
1.77032
1.79289
1.81486
1.83617
1.31375
1.34833
1.382
1.41479
1.44672
1.47782
1.50809
1.53756
1.56626
1.5942
1.62139
1.64787
1.67364
1.69872
1.72313
1.74688
1.76999
1.79247
1.81431
1.83539
3.67383
3.62098
3.56909
3.51812
3.46807
3.41891
3.37062
3.32321
3.27665
3.23108
3.1865
3.14277
3.09984
3.05772
3.01638
2.97581
2.936
2.89693
2.8586
2.82098
2.78406
2.74783
2.71227
2.67738
2.64313
2.60952
2.57654
2.54416
2.51239
2.4812
2.45059
2.42055
2.39106
2.36212
2.33371
2.30582
2.27845
2.25158
2.22521
2.19932
2.17391
2.14897
2.12449
2.10046
2.07688
2.05374
2.03103
2.00876
1.98693
1.96556
1.94463
1.92396
1.90369
1.88653
1.85979
3.67334
3.62049
3.56859
3.51762
3.46756
3.4184
3.37012
3.32271
3.27619
3.23067
3.1861
3.14236
3.09944
3.05731
3.01598
2.97541
2.93561
2.89654
2.85821
2.82059
2.78367
2.74744
2.71188
2.67699
2.64274
2.60913
2.57614
2.54376
2.51198
2.48079
2.45017
2.42012
2.39063
2.36168
2.33326
2.30536
2.27797
2.25109
2.2247
2.19879
2.17336
2.14838
2.12387
2.0998
2.07616
2.05295
2.03016
2.00776
1.98575
1.96411
1.94281
1.92162
1.90024
1.88068
1.85846
3.6728
3.61995
3.56805
3.51708
3.46702
3.41785
3.36957
3.32215
3.27569
3.23022
3.18566
3.14193
3.09902
3.0569
3.01558
2.97502
2.93523
2.89617
2.85785
2.82024
2.78333
2.7471
2.71155
2.67666
2.64242
2.60882
2.57583
2.54346
2.51168
2.4805
2.44988
2.41984
2.39034
2.36139
2.33297
2.30507
2.27768
2.25079
2.22439
2.19847
2.17302
2.14803
2.12349
2.09938
2.07571
2.05244
2.02957
2.00709
1.98496
1.96318
1.94172
1.92051
1.89918
1.87872
1.85779
3.67229
3.61944
3.56754
3.51657
3.4665
3.41733
3.36905
3.32164
3.27523
3.22981
3.18526
3.14154
3.09863
3.05653
3.01521
2.97467
2.93488
2.89583
2.85752
2.81991
2.78301
2.74679
2.71125
2.67636
2.64213
2.60853
2.57555
2.54318
2.5114
2.48022
2.44961
2.41956
2.39007
2.36111
2.33269
2.30479
2.27739
2.25049
2.22409
2.19816
2.1727
2.14769
2.12314
2.09902
2.07532
2.05204
2.02915
2.00665
1.98452
1.96275
1.94131
1.92021
1.89923
1.8786
1.85778
3.67179
3.61894
3.56703
3.51606
3.46599
3.41682
3.36854
3.32115
3.27478
3.2294
3.18486
3.14115
3.09825
3.05616
3.01485
2.97431
2.93453
2.89549
2.85718
2.81959
2.78269
2.74648
2.71094
2.67606
2.64183
2.60823
2.57526
2.54289
2.51112
2.47994
2.44933
2.41928
2.38979
2.36083
2.33241
2.3045
2.2771
2.2502
2.22379
2.19785
2.17239
2.14737
2.12281
2.09868
2.07498
2.05169
2.0288
2.0063
1.98419
1.96243
1.94103
1.91995
1.89915
1.87856
1.85776
3.67129
3.61843
3.56653
3.51555
3.46548
3.4163
3.36802
3.32068
3.27437
3.229
3.18446
3.14076
3.09787
3.05579
3.01449
2.97396
2.93419
2.89516
2.85686
2.81927
2.78238
2.74617
2.71064
2.67577
2.64154
2.60795
2.57498
2.54261
2.51085
2.47967
2.44906
2.41901
2.38952
2.36056
2.33214
2.30423
2.27683
2.24993
2.22351
2.19757
2.1721
2.14709
2.12252
2.09839
2.07469
2.0514
2.02852
2.00603
1.98393
1.96219
1.9408
1.91974
1.89898
1.87843
1.85771
3.67079
3.61793
3.56602
3.51503
3.46496
3.41579
3.3675
3.32023
3.27397
3.2286
3.18407
3.14038
3.0975
3.05542
3.01413
2.97361
2.93385
2.89483
2.85653
2.81895
2.78207
2.74587
2.71034
2.67548
2.64125
2.60766
2.5747
2.54234
2.51057
2.4794
2.44879
2.41875
2.38926
2.3603
2.33188
2.30397
2.27657
2.24967
2.22325
2.19732
2.17185
2.14684
2.12227
2.09815
2.07445
2.05117
2.0283
2.00582
1.98373
1.96201
1.94064
1.91959
1.89883
1.87828
1.85763
3.67029
3.61743
3.56551
3.51452
3.46445
3.41527
3.36702
3.31979
3.27357
3.22821
3.18369
3.14
3.09714
3.05507
3.01379
2.97327
2.93352
2.8945
2.85622
2.81864
2.78176
2.74557
2.71005
2.67519
2.64097
2.60739
2.57442
2.54207
2.51031
2.47914
2.44853
2.41849
2.389
2.36005
2.33163
2.30372
2.27633
2.24943
2.22302
2.19708
2.17162
2.14661
2.12205
2.09793
2.07424
2.05097
2.0281
2.00564
1.98356
1.96184
1.94048
1.91943
1.89866
1.87809
1.85751
3.66979
3.61692
3.565
3.51401
3.46393
3.41476
3.36655
3.31939
3.27318
3.22782
3.18331
3.13964
3.09678
3.05472
3.01344
2.97294
2.93319
2.89419
2.8559
2.81834
2.78146
2.74528
2.70976
2.67491
2.6407
2.60712
2.57416
2.54181
2.51005
2.47888
2.44828
2.41825
2.38876
2.35981
2.33139
2.30349
2.2761
2.2492
2.22279
2.19686
2.1714
2.1464
2.12185
2.09773
2.07405
2.05078
2.02792
2.00546
1.98338
1.96166
1.94029
1.91924
1.89845
1.87787
1.85735
3.66929
3.61642
3.5645
3.5135
3.46342
3.41425
3.36611
3.319
3.27279
3.22744
3.18294
3.13928
3.09642
3.05437
3.01311
2.97261
2.93287
2.89387
2.8556
2.81804
2.78117
2.74499
2.70948
2.67463
2.64043
2.60685
2.5739
2.54155
2.5098
2.47864
2.44804
2.41801
2.38852
2.35958
2.33117
2.30327
2.27588
2.24899
2.22258
2.19666
2.1712
2.1462
2.12165
2.09754
2.07386
2.0506
2.02774
2.00528
1.98319
1.96147
1.94009
1.91902
1.89822
1.87763
1.85717
3.6688
3.61593
3.564
3.513
3.46292
3.41377
3.36568
3.31861
3.27241
3.22707
3.18258
3.13892
3.09608
3.05404
3.01278
2.97229
2.93256
2.89357
2.8553
2.81774
2.78089
2.74471
2.70921
2.67437
2.64017
2.6066
2.57365
2.54131
2.50956
2.4784
2.44781
2.41778
2.3883
2.35936
2.33095
2.30306
2.27567
2.24878
2.22238
2.19646
2.17101
2.14601
2.12147
2.09736
2.07368
2.05041
2.02755
2.00508
1.98299
1.96126
1.93986
1.91878
1.89797
1.87738
1.85695
3.66831
3.61543
3.5635
3.51249
3.46241
3.41332
3.36529
3.31823
3.27204
3.22671
3.18222
3.13857
3.09574
3.05371
3.01246
2.97198
2.93225
2.89327
2.85501
2.81746
2.78061
2.74444
2.70894
2.6741
2.63991
2.60635
2.5734
2.54107
2.50932
2.47817
2.44758
2.41756
2.38808
2.35915
2.33074
2.30285
2.27547
2.24859
2.22219
2.19627
2.17082
2.14583
2.12128
2.09717
2.07349
2.05022
2.02736
2.00488
1.98278
1.96103
1.93962
1.91852
1.8977
1.87711
1.85673
3.66782
3.61493
3.563
3.51199
3.46192
3.41289
3.36492
3.31786
3.27167
3.22635
3.18188
3.13823
3.09541
3.05338
3.01214
2.97167
2.93195
2.89297
2.85472
2.81718
2.78034
2.74418
2.70869
2.67385
2.63966
2.6061
2.57317
2.54083
2.5091
2.47794
2.44736
2.41734
2.38787
2.35894
2.33054
2.30265
2.27528
2.2484
2.222
2.19608
2.17063
2.14564
2.12109
2.09698
2.0733
2.05002
2.02715
2.00466
1.98255
1.96079
1.93936
1.91825
1.89742
1.87684
1.85648
3.66733
3.61444
3.5625
3.5115
3.46145
3.41248
3.36454
3.31749
3.27131
3.226
3.18154
3.1379
3.09509
3.05307
3.01183
2.97137
2.93166
2.89269
2.85444
2.81691
2.78007
2.74392
2.70843
2.67361
2.63942
2.60587
2.57293
2.54061
2.50888
2.47773
2.44715
2.41714
2.38767
2.35874
2.33034
2.30246
2.27508
2.24821
2.22181
2.1959
2.17045
2.14545
2.1209
2.09679
2.07309
2.04981
2.02693
2.00443
1.9823
1.96053
1.93909
1.91797
1.89713
1.87656
1.85623
3.66685
3.61396
3.56201
3.511
3.46102
3.41211
3.36418
3.31713
3.27096
3.22566
3.1812
3.13758
3.09477
3.05276
3.01154
2.97108
2.93138
2.89241
2.85417
2.81665
2.77982
2.74367
2.70819
2.67337
2.63919
2.60564
2.57271
2.54039
2.50866
2.47752
2.44694
2.41693
2.38747
2.35854
2.33015
2.30227
2.27489
2.24802
2.22162
2.19571
2.17025
2.14526
2.1207
2.09658
2.07288
2.04959
2.0267
2.00419
1.98205
1.96026
1.93881
1.91768
1.89684
1.87627
1.85596
3.66637
3.61347
3.56152
3.51052
3.46061
3.41175
3.36382
3.31678
3.27062
3.22533
3.18088
3.13727
3.09446
3.05246
3.01124
2.9708
2.9311
2.89214
2.85391
2.81639
2.77957
2.74342
2.70795
2.67313
2.63896
2.60542
2.57249
2.54018
2.50845
2.47731
2.44674
2.41673
2.38727
2.35835
2.32996
2.30208
2.2747
2.24782
2.22143
2.19551
2.17006
2.14505
2.1205
2.09637
2.07266
2.04936
2.02646
2.00394
1.98178
1.95998
1.93852
1.91738
1.89654
1.87598
1.85569
3.6659
3.61299
3.56104
3.51009
3.46022
3.41139
3.36347
3.31644
3.27029
3.22501
3.18057
3.13696
3.09417
3.05217
3.01096
2.97052
2.93083
2.89188
2.85366
2.81614
2.77933
2.74319
2.70772
2.67291
2.63874
2.6052
2.57228
2.53997
2.50825
2.47711
2.44655
2.41654
2.38708
2.35816
2.32976
2.30189
2.27451
2.24763
2.22124
2.19531
2.16985
2.14485
2.12028
2.09615
2.07243
2.04912
2.0262
2.00367
1.98151
1.9597
1.93823
1.91708
1.89624
1.87569
1.85541
3.66543
3.61252
3.56057
3.50968
3.45987
3.41105
3.36314
3.31611
3.26997
3.2247
3.18027
3.13667
3.09388
3.05189
3.01069
2.97026
2.93058
2.89163
2.85342
2.81591
2.77909
2.74296
2.7075
2.67269
2.63853
2.60499
2.57208
2.53977
2.50805
2.47692
2.44635
2.41635
2.38689
2.35797
2.32957
2.30169
2.27432
2.24744
2.22104
2.19511
2.16965
2.14463
2.12006
2.09592
2.07219
2.04887
2.02594
2.0034
1.98122
1.9594
1.93792
1.91677
1.89593
1.87538
1.85513
3.66496
3.61205
3.56012
3.50929
3.45954
3.41072
3.36281
3.3158
3.26966
3.2244
3.17997
3.13638
3.0936
3.05162
3.01043
2.97
2.93033
2.89139
2.85318
2.81568
2.77887
2.74274
2.70728
2.67248
2.63832
2.60479
2.57188
2.53957
2.50786
2.47672
2.44616
2.41616
2.3867
2.35778
2.32938
2.3015
2.27412
2.24724
2.22084
2.19491
2.16943
2.14441
2.11983
2.09568
2.07194
2.04861
2.02568
2.00312
1.98093
1.9591
1.93762
1.91646
1.89562
1.87508
1.85484
3.66451
3.6116
3.55971
3.50894
3.4592
3.41039
3.36249
3.31549
3.26937
3.22411
3.17969
3.13611
3.09334
3.05137
3.01018
2.96976
2.93009
2.89116
2.85295
2.81545
2.77865
2.74253
2.70708
2.67228
2.63812
2.6046
2.57169
2.53938
2.50767
2.47654
2.44598
2.41597
2.38651
2.35759
2.32919
2.30131
2.27393
2.24704
2.22063
2.19469
2.16922
2.14419
2.1196
2.09544
2.07169
2.04835
2.0254
2.00284
1.98064
1.9588
1.93731
1.91615
1.89531
1.87478
1.85454
3.66406
3.61115
3.55933
3.50861
3.45889
3.41008
3.36219
3.31519
3.26908
3.22383
3.17942
3.13584
3.09308
3.05112
3.00994
2.96952
2.92986
2.89094
2.85273
2.81524
2.77844
2.74233
2.70688
2.67208
2.63793
2.60441
2.5715
2.53919
2.50748
2.47635
2.44579
2.41579
2.38633
2.3574
2.329
2.30112
2.27373
2.24684
2.22042
2.19448
2.169
2.14396
2.11936
2.09519
2.07143
2.04808
2.02512
2.00255
1.98034
1.9585
1.937
1.91583
1.89499
1.87447
1.85425
3.66362
3.61074
3.55898
3.5083
3.45858
3.40978
3.3619
3.31491
3.26881
3.22356
3.17916
3.13559
3.09284
3.05088
3.00971
2.9693
2.92964
2.89072
2.85253
2.81504
2.77825
2.74213
2.70669
2.67189
2.63774
2.60422
2.57132
2.53901
2.5073
2.47617
2.44561
2.4156
2.38614
2.35722
2.32881
2.30092
2.27353
2.24663
2.22021
2.19426
2.16877
2.14373
2.11912
2.09494
2.07117
2.04781
2.02484
2.00226
1.98004
1.95819
1.93668
1.91552
1.89468
1.87416
1.85395
3.6632
3.61036
3.55866
3.508
3.45829
3.4095
3.36162
3.31464
3.26854
3.22331
3.17892
3.13536
3.09261
3.05066
3.00949
2.96909
2.92943
2.89052
2.85233
2.81484
2.77805
2.74195
2.7065
2.67171
2.63756
2.60404
2.57114
2.53884
2.50713
2.476
2.44543
2.41542
2.38596
2.35703
2.32862
2.30073
2.27333
2.24643
2.22
2.19404
2.16854
2.14349
2.11887
2.09468
2.07091
2.04754
2.02456
2.00196
1.97974
1.95788
1.93637
1.91521
1.89437
1.87386
1.85366
3.66279
3.61002
3.55837
3.50772
3.45801
3.40923
3.36136
3.31439
3.2683
3.22307
3.17869
3.13513
3.09239
3.05044
3.00928
2.96888
2.92924
2.89033
2.85214
2.81466
2.77787
2.74177
2.70633
2.67154
2.63739
2.60387
2.57097
2.53867
2.50696
2.47582
2.44526
2.41525
2.38578
2.35685
2.32843
2.30053
2.27313
2.24622
2.21979
2.19382
2.16831
2.14325
2.11863
2.09443
2.07064
2.04726
2.02427
2.00167
1.97944
1.95758
1.93606
1.91489
1.89406
1.87355
1.85336
3.66242
3.60971
3.5581
3.50745
3.45774
3.40897
3.36111
3.31415
3.26807
3.22284
3.17847
3.13492
3.09218
3.05024
3.00909
2.96869
2.92905
2.89015
2.85196
2.81449
2.7777
2.7416
2.70616
2.67137
2.63723
2.60371
2.5708
2.5385
2.50679
2.47565
2.44509
2.41507
2.3856
2.35666