/*--------------------------------*- C++ -*----------------------------------*\
  =========                 |
  \\      /  F ield         | OpenFOAM: The Open Source CFD Toolbox
   \\    /   O peration     | Website:  https://openfoam.org
    \\  /    A nd           | Version:  10
     \\/     M anipulation  |
\*---------------------------------------------------------------------------*/
FoamFile
{
    format      ascii;
    class       surfaceScalarField;
    location    "12000";
    object      phi;
}
// * * * * * * * * * * * * * * * * * * * * * * * * * * * * * * * * * * * * * //

dimensions      [0 3 -1 0 0 0 0];

internalField   nonuniform List<scalar> 
35585
(
6.60669e-08
-6.36693e-07
6.61172e-08
-6.43604e-07
6.67546e-08
-6.49087e-07
6.79831e-08
-6.53186e-07
6.97636e-08
-6.55973e-07
7.20527e-08
-6.57537e-07
7.48079e-08
-6.57969e-07
7.79862e-08
-6.57355e-07
8.15454e-08
-6.5578e-07
8.54445e-08
-6.53325e-07
8.96437e-08
-6.50067e-07
9.4105e-08
-6.46079e-07
9.87932e-08
-6.4143e-07
1.03674e-07
-6.36187e-07
1.08718e-07
-6.30409e-07
1.13894e-07
-6.24155e-07
1.19176e-07
-6.17479e-07
1.2454e-07
-6.10429e-07
1.29963e-07
-6.03053e-07
1.35426e-07
-5.95393e-07
1.40909e-07
-5.87488e-07
1.46396e-07
-5.79375e-07
1.51871e-07
-5.71088e-07
1.57323e-07
-5.62656e-07
1.62739e-07
-5.54109e-07
1.68107e-07
-5.45471e-07
1.73421e-07
-5.36765e-07
1.7867e-07
-5.28015e-07
1.83849e-07
-5.19237e-07
1.88951e-07
-5.10451e-07
1.93972e-07
-5.0167e-07
1.98906e-07
-4.92911e-07
2.03752e-07
-4.84186e-07
2.08504e-07
-4.75505e-07
2.13163e-07
-4.66881e-07
2.17725e-07
-4.5832e-07
2.22189e-07
-4.49832e-07
2.26556e-07
-4.41423e-07
2.30823e-07
-4.33101e-07
2.34992e-07
-4.2487e-07
2.39062e-07
-4.16736e-07
2.43035e-07
-4.08702e-07
2.4691e-07
-4.00772e-07
2.50689e-07
-3.9295e-07
2.54368e-07
-3.85237e-07
2.57928e-07
-3.77785e-07
2.61342e-07
-3.70825e-07
-3.64452e-07
2.64594e-07
9.42599e-08
-6.3387e-07
9.23867e-08
-6.4173e-07
9.13218e-08
-6.48021e-07
9.09858e-08
-6.52849e-07
9.1324e-08
-6.56311e-07
9.22837e-08
-6.58496e-07
9.38118e-08
-6.59496e-07
9.58566e-08
-6.594e-07
9.83683e-08
-6.58292e-07
1.01299e-07
-6.56256e-07
1.04604e-07
-6.53371e-07
1.08239e-07
-6.49714e-07
1.12164e-07
-6.45355e-07
1.16342e-07
-6.40364e-07
1.20736e-07
-6.34803e-07
1.25314e-07
-6.28733e-07
1.30045e-07
-6.2221e-07
1.34902e-07
-6.15286e-07
1.39859e-07
-6.0801e-07
1.44893e-07
-6.00426e-07
1.49981e-07
-5.92577e-07
1.55106e-07
-5.845e-07
1.60249e-07
-5.76231e-07
1.65396e-07
-5.67802e-07
1.70531e-07
-5.59244e-07
1.75643e-07
-5.50582e-07
1.8072e-07
-5.41843e-07
1.85753e-07
-5.33048e-07
1.90733e-07
-5.24217e-07
1.95654e-07
-5.15371e-07
2.00507e-07
-5.06524e-07
2.05288e-07
-4.97692e-07
2.09992e-07
-4.8889e-07
2.14615e-07
-4.80129e-07
2.19154e-07
-4.7142e-07
2.23606e-07
-4.62772e-07
2.2797e-07
-4.54195e-07
2.32242e-07
-4.45696e-07
2.36423e-07
-4.37282e-07
2.40512e-07
-4.28959e-07
2.44507e-07
-4.20732e-07
2.4841e-07
-4.12605e-07
2.5222e-07
-4.04583e-07
2.55938e-07
-3.96667e-07
2.59564e-07
-3.88863e-07
2.63079e-07
-3.81301e-07
2.66453e-07
-3.74199e-07
-3.67667e-07
2.69668e-07
1.2012e-07
1.16592e-07
1.13925e-07
1.12068e-07
1.10968e-07
-6.55211e-07
1.10575e-07
-6.58103e-07
1.10836e-07
-6.59757e-07
1.11696e-07
-6.60259e-07
1.13101e-07
-6.59697e-07
1.15e-07
-6.58155e-07
1.17344e-07
-6.55716e-07
1.20087e-07
-6.52456e-07
1.23183e-07
-6.48452e-07
1.26593e-07
-6.43773e-07
1.30275e-07
-6.38486e-07
1.34195e-07
-6.32653e-07
1.38319e-07
-6.26333e-07
1.42614e-07
-6.19582e-07
1.47054e-07
-6.12449e-07
1.5161e-07
-6.04982e-07
1.56259e-07
-5.97226e-07
1.6098e-07
-5.8922e-07
1.65752e-07
-5.81003e-07
1.70557e-07
-5.72607e-07
1.75378e-07
-5.64066e-07
1.80203e-07
-5.55407e-07
1.85016e-07
-5.46656e-07
1.89807e-07
-5.37839e-07
1.94567e-07
-5.28976e-07
1.99284e-07
-5.20088e-07
2.03952e-07
-5.11192e-07
2.08564e-07
-5.02304e-07
2.13113e-07
-4.9344e-07
2.17596e-07
-4.84611e-07
2.22006e-07
-4.7583e-07
2.26342e-07
-4.67107e-07
2.30599e-07
-4.58452e-07
2.34775e-07
-4.49873e-07
2.38869e-07
-4.41376e-07
2.42879e-07
-4.32969e-07
2.46804e-07
-4.24657e-07
2.50644e-07
-4.16444e-07
2.54397e-07
-4.08336e-07
2.58064e-07
-4.00335e-07
2.61645e-07
-3.92444e-07
2.65121e-07
-3.84776e-07
2.68458e-07
-3.77535e-07
-3.70849e-07
2.7164e-07
1.30345e-07
-6.52665e-07
1.28573e-07
-6.5633e-07
1.27525e-07
-6.58709e-07
1.27147e-07
-6.59881e-07
1.27387e-07
-6.59936e-07
1.28191e-07
-6.58959e-07
1.29509e-07
-6.57033e-07
1.31292e-07
-6.5424e-07
1.33494e-07
-6.50654e-07
1.3607e-07
-6.46349e-07
1.38978e-07
-6.41394e-07
1.4218e-07
-6.35854e-07
1.45637e-07
-6.2979e-07
1.49316e-07
-6.2326e-07
1.53184e-07
-6.16317e-07
1.57213e-07
-6.09011e-07
1.61376e-07
-6.01389e-07
1.65647e-07
-5.93492e-07
1.70005e-07
-5.8536e-07
1.74428e-07
-5.7703e-07
1.78897e-07
-5.68536e-07
1.83398e-07
-5.59907e-07
1.87913e-07
-5.51172e-07
1.9243e-07
-5.42356e-07
1.96936e-07
-5.33483e-07
2.01421e-07
-5.24573e-07
2.05876e-07
-5.15646e-07
2.10291e-07
-5.0672e-07
2.1466e-07
-4.97809e-07
2.18977e-07
-4.88928e-07
2.23236e-07
-4.80089e-07
2.27432e-07
-4.71303e-07
2.31561e-07
-4.62582e-07
2.35621e-07
-4.53932e-07
2.39608e-07
-4.45363e-07
2.4352e-07
-4.36881e-07
2.47356e-07
-4.28493e-07
2.51114e-07
-4.20203e-07
2.54794e-07
-4.12016e-07
2.58396e-07
-4.03936e-07
2.61918e-07
-3.95966e-07
2.65337e-07
-3.88196e-07
2.68618e-07
-3.80816e-07
-3.73975e-07
2.71744e-07
1.48873e-07
-6.48571e-07
1.45623e-07
-6.53081e-07
1.43168e-07
-6.56253e-07
1.41456e-07
-6.58169e-07
1.40435e-07
-6.58915e-07
1.40052e-07
-6.58576e-07
1.40256e-07
-6.57238e-07
1.40996e-07
-6.5498e-07
1.42225e-07
-6.51882e-07
1.43893e-07
-6.48018e-07
1.45958e-07
-6.43458e-07
1.48376e-07
-6.38272e-07
1.51106e-07
-6.32521e-07
1.54113e-07
-6.26267e-07
1.57361e-07
-6.19565e-07
1.60816e-07
-6.12467e-07
1.6445e-07
-6.05022e-07
1.68234e-07
-5.97275e-07
1.72143e-07
-5.89269e-07
1.76153e-07
-5.8104e-07
1.80244e-07
-5.72626e-07
1.84395e-07
-5.64058e-07
1.88591e-07
-5.55367e-07
1.92813e-07
-5.46579e-07
1.9705e-07
-5.37719e-07
2.01287e-07
-5.2881e-07
2.05514e-07
-5.19873e-07
2.0972e-07
-5.10926e-07
2.13897e-07
-5.01986e-07
2.18037e-07
-4.93067e-07
2.22133e-07
-4.84184e-07
2.26179e-07
-4.75349e-07
2.30169e-07
-4.66572e-07
2.341e-07
-4.57863e-07
2.37968e-07
-4.49231e-07
2.4177e-07
-4.40683e-07
2.45503e-07
-4.32225e-07
2.49165e-07
-4.23864e-07
2.52754e-07
-4.15605e-07
2.5627e-07
-4.07451e-07
2.59711e-07
-3.99407e-07
2.63056e-07
-3.91541e-07
2.66274e-07
-3.84034e-07
-3.77051e-07
2.6935e-07
1.67193e-07
1.62395e-07
-6.48283e-07
1.58461e-07
-6.52319e-07
1.55345e-07
-6.55052e-07
1.52995e-07
-6.56564e-07
1.51358e-07
-6.56939e-07
1.50383e-07
-6.56262e-07
1.50017e-07
-6.54614e-07
1.50209e-07
-6.52073e-07
1.50909e-07
-6.48718e-07
1.52071e-07
-6.4462e-07
1.53649e-07
-6.39849e-07
1.556e-07
-6.34472e-07
1.57882e-07
-6.2855e-07
1.60459e-07
-6.22142e-07
1.63295e-07
-6.15302e-07
1.66355e-07
-6.08082e-07
1.6961e-07
-6.0053e-07
1.7303e-07
-5.92689e-07
1.76591e-07
-5.84601e-07
1.80267e-07
-5.76303e-07
1.84038e-07
-5.67829e-07
1.87882e-07
-5.59211e-07
1.91783e-07
-5.50479e-07
1.95723e-07
-5.41659e-07
1.99689e-07
-5.32776e-07
2.03665e-07
-5.2385e-07
2.07642e-07
-5.14903e-07
2.11608e-07
-5.05952e-07
2.15554e-07
-4.97013e-07
2.19472e-07
-4.88102e-07
2.23354e-07
-4.79231e-07
2.27195e-07
-4.70412e-07
2.30987e-07
-4.61656e-07
2.34727e-07
-4.52971e-07
2.38411e-07
-4.44366e-07
2.42034e-07
-4.35849e-07
2.45595e-07
-4.27425e-07
2.4909e-07
-4.191e-07
2.52519e-07
-4.1088e-07
2.55878e-07
-4.02767e-07
2.5915e-07
-3.94813e-07
2.62307e-07
-3.87191e-07
-3.80077e-07
2.65334e-07
1.78968e-07
1.73489e-07
1.68894e-07
-6.50457e-07
1.65136e-07
-6.52806e-07
1.62168e-07
-6.53971e-07
1.59936e-07
-6.5403e-07
1.58388e-07
-6.53065e-07
1.57471e-07
-6.51156e-07
1.57133e-07
-6.4838e-07
1.57325e-07
-6.44812e-07
1.57998e-07
-6.40523e-07
1.59107e-07
-6.35581e-07
1.60609e-07
-6.30051e-07
1.62461e-07
-6.23994e-07
1.64626e-07
-6.17467e-07
1.67066e-07
-6.10523e-07
1.69749e-07
-6.03213e-07
1.72642e-07
-5.95583e-07
1.75717e-07
-5.87676e-07
1.78947e-07
-5.79532e-07
1.82307e-07
-5.71189e-07
1.85775e-07
-5.62679e-07
1.8933e-07
-5.54035e-07
1.92955e-07
-5.45283e-07
1.96631e-07
-5.36452e-07
2.00345e-07
-5.27563e-07
2.04081e-07
-5.18639e-07
2.07828e-07
-5.09699e-07
2.11576e-07
-5.00761e-07
2.15313e-07
-4.9184e-07
2.19032e-07
-4.8295e-07
2.22726e-07
-4.74105e-07
2.26386e-07
-4.65316e-07
2.30008e-07
-4.56593e-07
2.33586e-07
-4.47945e-07
2.37116e-07
-4.39379e-07
2.40594e-07
-4.30904e-07
2.44018e-07
-4.22524e-07
2.47383e-07
-4.14245e-07
2.50689e-07
-4.06073e-07
2.53914e-07
-3.98037e-07
2.57025e-07
-3.90302e-07
-3.83057e-07
2.60005e-07
1.82574e-07
1.77366e-07
-6.47598e-07
1.73016e-07
-6.49621e-07
1.69475e-07
-6.50489e-07
1.66691e-07
-6.50281e-07
1.6461e-07
-6.49075e-07
1.6318e-07
-6.4695e-07
1.62349e-07
-6.43981e-07
1.62068e-07
-6.40241e-07
1.62287e-07
-6.358e-07
1.62961e-07
-6.30725e-07
1.64046e-07
-6.25079e-07
1.655e-07
-6.1892e-07
1.67283e-07
-6.12306e-07
1.69359e-07
-6.05289e-07
1.71694e-07
-5.97917e-07
1.74255e-07
-5.90236e-07
1.77012e-07
-5.8229e-07
1.79939e-07
-5.74115e-07
1.83009e-07
-5.6575e-07
1.86201e-07
-5.57227e-07
1.89494e-07
-5.48576e-07
1.92867e-07
-5.39825e-07
1.96304e-07
-5.31e-07
1.99789e-07
-5.22124e-07
2.03307e-07
-5.13218e-07
2.06848e-07
-5.04301e-07
2.10397e-07
-4.9539e-07
2.13947e-07
-4.865e-07
2.17487e-07
-4.77646e-07
2.2101e-07
-4.68839e-07
2.24509e-07
-4.60091e-07
2.27977e-07
-4.51413e-07
2.3141e-07
-4.42811e-07
2.34801e-07
-4.34295e-07
2.38148e-07
-4.25871e-07
2.41448e-07
-4.17544e-07
2.44696e-07
-4.09321e-07
2.47871e-07
-4.01213e-07
2.5094e-07
-3.93371e-07
-3.85995e-07
2.53878e-07
1.89813e-07
1.8404e-07
1.79142e-07
-6.45591e-07
1.75068e-07
-6.46207e-07
1.71769e-07
-6.45776e-07
1.69191e-07
-6.44372e-07
1.67283e-07
-6.42072e-07
1.65994e-07
-6.38951e-07
1.65273e-07
-6.35079e-07
1.65071e-07
-6.30523e-07
1.65342e-07
-6.2535e-07
1.66042e-07
-6.1962e-07
1.67128e-07
-6.13392e-07
1.6856e-07
-6.06721e-07
1.70301e-07
-5.99658e-07
1.72315e-07
-5.92251e-07
1.74571e-07
-5.84545e-07
1.77038e-07
-5.76582e-07
1.79688e-07
-5.684e-07
1.82495e-07
-5.60034e-07
1.85437e-07
-5.51517e-07
1.8849e-07
-5.42878e-07
1.91636e-07
-5.34146e-07
1.94856e-07
-5.25345e-07
1.98135e-07
-5.16497e-07
2.01458e-07
-5.07623e-07
2.04811e-07
-4.98743e-07
2.08184e-07
-4.89872e-07
2.11565e-07
-4.81026e-07
2.14944e-07
-4.72219e-07
2.18314e-07
-4.63462e-07
2.21667e-07
-4.54766e-07
2.24997e-07
-4.46141e-07
2.28297e-07
-4.37596e-07
2.31563e-07
-4.29137e-07
2.3479e-07
-4.20772e-07
2.37975e-07
-4.12506e-07
2.41106e-07
-4.04344e-07
2.44149e-07
-3.96413e-07
-3.88908e-07
2.47062e-07
1.89202e-07
1.8381e-07
1.79253e-07
1.75483e-07
1.72449e-07
-6.39038e-07
1.70101e-07
-6.36604e-07
1.68392e-07
-6.33369e-07
1.67269e-07
-6.294e-07
1.66683e-07
-6.24763e-07
1.66586e-07
-6.19523e-07
1.66933e-07
-6.13739e-07
1.67681e-07
-6.07469e-07
1.6879e-07
-6.00767e-07
1.70222e-07
-5.93683e-07
1.71942e-07
-5.86265e-07
1.73917e-07
-5.78557e-07
1.76116e-07
-5.70599e-07
1.7851e-07
-5.62428e-07
1.81074e-07
-5.54081e-07
1.83783e-07
-5.45588e-07
1.86616e-07
-5.36979e-07
1.89552e-07
-5.28281e-07
1.92573e-07
-5.19518e-07
1.95662e-07
-5.10712e-07
1.98804e-07
-5.01885e-07
2.01986e-07
-4.93054e-07
2.05194e-07
-4.84235e-07
2.08419e-07
-4.75443e-07
2.1165e-07
-4.66693e-07
2.14879e-07
-4.57994e-07
2.18097e-07
-4.4936e-07
2.21299e-07
-4.40797e-07
2.24477e-07
-4.32315e-07
2.27628e-07
-4.23922e-07
2.30745e-07
-4.15623e-07
2.33825e-07
-4.07424e-07
2.36831e-07
-3.9942e-07
-3.91784e-07
2.39708e-07
1.77914e-07
-6.3485e-07
1.7448e-07
-6.3317e-07
1.71749e-07
-6.30638e-07
1.69668e-07
-6.27319e-07
1.68185e-07
-6.2328e-07
1.67251e-07
-6.18588e-07
1.66819e-07
-6.13306e-07
1.66842e-07
-6.07492e-07
1.67278e-07
-6.01203e-07
1.68088e-07
-5.94492e-07
1.69232e-07
-5.87409e-07
1.70675e-07
-5.8e-07
1.72386e-07
-5.72309e-07
1.74332e-07
-5.64374e-07
1.76485e-07
-5.56234e-07
1.78819e-07
-5.47922e-07
1.8131e-07
-5.39469e-07
1.83935e-07
-5.30905e-07
1.86673e-07
-5.22256e-07
1.89507e-07
-5.13546e-07
1.92418e-07
-5.04796e-07
1.9539e-07
-4.96026e-07
1.98411e-07
-4.87255e-07
2.01467e-07
-4.78499e-07
2.04546e-07
-4.69772e-07
2.07639e-07
-4.61087e-07
2.10735e-07
-4.52456e-07
2.13828e-07
-4.4389e-07
2.1691e-07
-4.35397e-07
2.19975e-07
-4.26987e-07
2.23017e-07
-4.18665e-07
2.26031e-07
-4.10438e-07
2.28976e-07
-4.02365e-07
-3.946e-07
2.31792e-07
1.83846e-07
-6.29482e-07
1.79295e-07
-6.28619e-07
1.75509e-07
-6.26852e-07
1.72434e-07
-6.24244e-07
1.70018e-07
-6.20864e-07
1.68209e-07
-6.1678e-07
1.66959e-07
-6.12056e-07
1.66219e-07
-6.06753e-07
1.65945e-07
-6.00929e-07
1.66094e-07
-5.94641e-07
1.66625e-07
-5.87941e-07
1.67501e-07
-5.80877e-07
1.68687e-07
-5.73494e-07
1.70149e-07
-5.65836e-07
1.71857e-07
-5.57942e-07
1.73781e-07
-5.49846e-07
1.75897e-07
-5.41585e-07
1.78179e-07
-5.33187e-07
1.80604e-07
-5.24682e-07
1.83153e-07
-5.16094e-07
1.85805e-07
-5.07448e-07
1.88544e-07
-4.98765e-07
1.91354e-07
-4.90065e-07
1.9422e-07
-4.81365e-07
1.97128e-07
-4.7268e-07
2.00067e-07
-4.64026e-07
2.03026e-07
-4.55416e-07
2.05996e-07
-4.4686e-07
2.08968e-07
-4.38369e-07
2.11934e-07
-4.29953e-07
2.14888e-07
-4.21619e-07
2.17825e-07
-4.13374e-07
2.20702e-07
-4.05242e-07
-3.97361e-07
2.23463e-07
1.90376e-07
-6.22891e-07
1.84666e-07
-6.22909e-07
1.79783e-07
-6.21968e-07
1.75674e-07
-6.20134e-07
1.72284e-07
-6.17474e-07
1.69562e-07
-6.14058e-07
1.67456e-07
-6.09949e-07
1.65917e-07
-6.05213e-07
1.64896e-07
-5.99908e-07
1.6435e-07
-5.94094e-07
1.64235e-07
-5.87825e-07
1.64511e-07
-5.81152e-07
1.6514e-07
-5.74123e-07
1.66086e-07
-5.66782e-07
1.67317e-07
-5.59172e-07
1.68802e-07
-5.51331e-07
1.70512e-07
-5.43295e-07
1.72421e-07
-5.35096e-07
1.74503e-07
-5.26764e-07
1.76737e-07
-5.18328e-07
1.79102e-07
-5.09813e-07
1.81579e-07
-5.01242e-07
1.8415e-07
-4.92636e-07
1.86799e-07
-4.84014e-07
1.89512e-07
-4.75393e-07
1.92275e-07
-4.66789e-07
1.95075e-07
-4.58216e-07
1.97902e-07
-4.49687e-07
2.00746e-07
-4.41213e-07
2.03598e-07
-4.32804e-07
2.06449e-07
-4.2447e-07
2.09293e-07
-4.16218e-07
2.12106e-07
-4.08055e-07
-4.00094e-07
2.14839e-07
1.97606e-07
1.90709e-07
-6.16012e-07
1.84699e-07
-6.15958e-07
1.79524e-07
-6.14959e-07
1.7513e-07
-6.1308e-07
1.71463e-07
-6.1039e-07
1.68469e-07
-6.06955e-07
1.66097e-07
-6.02841e-07
1.64298e-07
-5.98109e-07
1.63024e-07
-5.92821e-07
1.62231e-07
-5.87032e-07
1.61875e-07
-5.80797e-07
1.61917e-07
-5.74165e-07
1.62318e-07
-5.67184e-07
1.63044e-07
-5.59898e-07
1.6406e-07
-5.52348e-07
1.65336e-07
-5.44571e-07
1.66844e-07
-5.36604e-07
1.68558e-07
-5.28477e-07
1.70451e-07
-5.20222e-07
1.72503e-07
-5.11865e-07
1.74692e-07
-5.03431e-07
1.76999e-07
-4.94943e-07
1.79407e-07
-4.86421e-07
1.81899e-07
-4.77885e-07
1.84461e-07
-4.69351e-07
1.8708e-07
-4.60835e-07
1.89744e-07
-4.52351e-07
1.92441e-07
-4.4391e-07
1.9516e-07
-4.35524e-07
1.97893e-07
-4.27203e-07
2.00632e-07
-4.18956e-07
2.03368e-07
-4.10791e-07
-4.0278e-07
2.06055e-07
1.97432e-07
-6.07916e-07
1.90281e-07
-6.08807e-07
1.84023e-07
-6.08701e-07
1.78604e-07
-6.07661e-07
1.73969e-07
-6.05755e-07
1.70065e-07
-6.0305e-07
1.66837e-07
-5.99613e-07
1.64234e-07
-5.95507e-07
1.62208e-07
-5.90794e-07
1.60711e-07
-5.85535e-07
1.59697e-07
-5.79783e-07
1.59126e-07
-5.73593e-07
1.58956e-07
-5.67014e-07
1.59151e-07
-5.60092e-07
1.59674e-07
-5.5287e-07
1.60492e-07
-5.4539e-07
1.61575e-07
-5.37687e-07
1.62896e-07
-5.29797e-07
1.64426e-07
-5.21752e-07
1.66142e-07
-5.13581e-07
1.68021e-07
-5.0531e-07
1.70043e-07
-4.96965e-07
1.72188e-07
-4.88567e-07
1.7444e-07
-4.80137e-07
1.76782e-07
-4.71693e-07
1.79199e-07
-4.63253e-07
1.81679e-07
-4.5483e-07
1.84209e-07
-4.4644e-07
1.86779e-07
-4.38094e-07
1.89378e-07
-4.29802e-07
1.91997e-07
-4.21575e-07
1.94628e-07
-4.13422e-07
-4.05376e-07
1.97223e-07
2.0482e-07
-5.98618e-07
1.96523e-07
-6.00509e-07
1.89172e-07
-6.01351e-07
1.82716e-07
-6.01205e-07
1.77099e-07
-6.00138e-07
1.72267e-07
-5.98218e-07
1.68166e-07
-5.95511e-07
1.64743e-07
-5.92083e-07
1.61946e-07
-5.87998e-07
1.59727e-07
-5.83315e-07
1.58038e-07
-5.78095e-07
1.56835e-07
-5.7239e-07
1.56076e-07
-5.66255e-07
1.5572e-07
-5.59736e-07
1.55731e-07
-5.52881e-07
1.56072e-07
-5.45731e-07
1.56712e-07
-5.38327e-07
1.57619e-07
-5.30705e-07
1.58766e-07
-5.22899e-07
1.60126e-07
-5.14941e-07
1.61675e-07
-5.06859e-07
1.6339e-07
-4.9868e-07
1.65252e-07
-4.90428e-07
1.6724e-07
-4.82125e-07
1.69338e-07
-4.73791e-07
1.7153e-07
-4.65444e-07
1.73801e-07
-4.57101e-07
1.76138e-07
-4.48777e-07
1.7853e-07
-4.40485e-07
1.80964e-07
-4.32236e-07
1.83431e-07
-4.24043e-07
1.85922e-07
-4.15913e-07
-4.0786e-07
1.88407e-07
2.12815e-07
2.03363e-07
-5.91057e-07
1.94911e-07
-5.92898e-07
1.87406e-07
-5.937e-07
1.80796e-07
-5.93528e-07
1.75025e-07
-5.92447e-07
1.70037e-07
-5.90524e-07
1.6578e-07
-5.87825e-07
1.62199e-07
-5.84417e-07
1.59244e-07
-5.8036e-07
1.56865e-07
-5.75716e-07
1.55017e-07
-5.70542e-07
1.53653e-07
-5.64891e-07
1.52733e-07
-5.58816e-07
1.52217e-07
-5.52364e-07
1.52067e-07
-5.45581e-07
1.52249e-07
-5.38508e-07
1.52729e-07
-5.31185e-07
1.53478e-07
-5.23648e-07
1.54468e-07
-5.15931e-07
1.55672e-07
-5.08063e-07
1.57067e-07
-5.00075e-07
1.5863e-07
-4.91991e-07
1.6034e-07
-4.83836e-07
1.62179e-07
-4.75631e-07
1.6413e-07
-4.67395e-07
1.66177e-07
-4.59149e-07
1.68306e-07
-4.50906e-07
1.70502e-07
-4.42682e-07
1.72756e-07
-4.3449e-07
1.75054e-07
-4.26341e-07
1.77389e-07
-4.18248e-07
-4.10218e-07
1.79746e-07
2.10702e-07
-5.80457e-07
2.01149e-07
-5.83346e-07
1.92597e-07
-5.85147e-07
1.84989e-07
-5.85921e-07
1.78272e-07
-5.8573e-07
1.72391e-07
-5.84642e-07
1.67289e-07
-5.82724e-07
1.62914e-07
-5.80041e-07
1.59212e-07
-5.76658e-07
1.56132e-07
-5.72636e-07
1.53626e-07
-5.68036e-07
1.51648e-07
-5.62912e-07
1.50152e-07
-5.5732e-07
1.49098e-07
-5.5131e-07
1.48446e-07
-5.44929e-07
1.48159e-07
-5.38221e-07
1.48202e-07
-5.31229e-07
1.48544e-07
-5.2399e-07
1.49154e-07
-5.1654e-07
1.50004e-07
-5.08914e-07
1.51069e-07
-5.0114e-07
1.52325e-07
-4.93247e-07
1.5375e-07
-4.8526e-07
1.55323e-07
-4.77204e-07
1.57027e-07
-4.69099e-07
1.58843e-07
-4.60965e-07
1.60757e-07
-4.52819e-07
1.62754e-07
-4.44679e-07
1.64821e-07
-4.36557e-07
1.66946e-07
-4.28467e-07
1.69119e-07
-4.2042e-07
-4.12429e-07
1.7133e-07
2.18425e-07
-5.6872e-07
2.07781e-07
-5.72702e-07
1.98182e-07
-5.75548e-07
1.89576e-07
-5.77315e-07
1.8191e-07
-5.78065e-07
1.7513e-07
-5.77862e-07
1.69178e-07
-5.76773e-07
1.64001e-07
-5.74864e-07
1.59544e-07
-5.72201e-07
1.55755e-07
-5.68848e-07
1.52584e-07
-5.64865e-07
1.49982e-07
-5.6031e-07
1.47903e-07
-5.55241e-07
1.46302e-07
-5.4971e-07
1.4514e-07
-5.43766e-07
1.44376e-07
-5.37457e-07
1.43974e-07
-5.30827e-07
1.43899e-07
-5.23916e-07
1.44121e-07
-5.16762e-07
1.44609e-07
-5.09402e-07
1.45335e-07
-5.01866e-07
1.46275e-07
-4.94186e-07
1.47404e-07
-4.86389e-07
1.487e-07
-4.785e-07
1.50144e-07
-4.70543e-07
1.51717e-07
-4.62538e-07
1.53403e-07
-4.54505e-07
1.55185e-07
-4.46461e-07
1.5705e-07
-4.38421e-07
1.58984e-07
-4.30401e-07
1.60976e-07
-4.22413e-07
-4.14468e-07
1.63015e-07
2.26403e-07
-5.55855e-07
2.14671e-07
-5.6097e-07
2.04027e-07
-5.64904e-07
1.94422e-07
-5.6771e-07
1.85804e-07
-5.69446e-07
1.78118e-07
-5.70176e-07
1.7131e-07
-5.69964e-07
1.65323e-07
-5.68877e-07
1.60102e-07
-5.66981e-07
1.55595e-07
-5.6434e-07
1.51748e-07
-5.61018e-07
1.48512e-07
-5.57074e-07
1.45838e-07
-5.52567e-07
1.43681e-07
-5.47552e-07
1.41997e-07
-5.42082e-07
1.40745e-07
-5.36205e-07
1.39887e-07
-5.29969e-07
1.39387e-07
-5.23415e-07
1.39209e-07
-5.16585e-07
1.39324e-07
-5.09516e-07
1.39702e-07
-5.02243e-07
1.40315e-07
-4.94799e-07
1.41137e-07
-4.87212e-07
1.42147e-07
-4.7951e-07
1.43322e-07
-4.71718e-07
1.44642e-07
-4.63858e-07
1.4609e-07
-4.55952e-07
1.47648e-07
-4.48019e-07
1.49302e-07
-4.40075e-07
1.51037e-07
-4.32136e-07
1.5284e-07
-4.24216e-07
-4.16327e-07
1.547e-07
2.34485e-07
-5.41876e-07
2.21673e-07
-5.48158e-07
2.09987e-07
-5.53218e-07
1.99381e-07
-5.57104e-07
1.89806e-07
-5.59871e-07
1.81209e-07
-5.61579e-07
1.73535e-07
-5.6229e-07
1.66728e-07
-5.6207e-07
1.60733e-07
-5.60986e-07
1.55495e-07
-5.59102e-07
1.5096e-07
-5.56483e-07
1.47077e-07
-5.53191e-07
1.43795e-07
-5.49286e-07
1.41068e-07
-5.44825e-07
1.3885e-07
-5.39864e-07
1.37097e-07
-5.34453e-07
1.3577e-07
-5.28642e-07
1.3483e-07
-5.22475e-07
1.34242e-07
-5.15997e-07
1.33972e-07
-5.09246e-07
1.3399e-07
-5.02261e-07
1.34265e-07
-4.95075e-07
1.34773e-07
-4.87719e-07
1.35487e-07
-4.80224e-07
1.36385e-07
-4.72616e-07
1.37445e-07
-4.64919e-07
1.3865e-07
-4.57157e-07
1.39979e-07
-4.49349e-07
1.41418e-07
-4.41514e-07
1.42952e-07
-4.33669e-07
1.44565e-07
-4.2583e-07
-4.18009e-07
1.46247e-07
2.4254e-07
-5.268e-07
2.28658e-07
-5.34276e-07
2.15935e-07
-5.40495e-07
2.0433e-07
-5.45498e-07
1.93795e-07
-5.49336e-07
1.8428e-07
-5.52065e-07
1.75733e-07
-5.53742e-07
1.68096e-07
-5.54434e-07
1.61315e-07
-5.54204e-07
1.55333e-07
-5.5312e-07
1.50097e-07
-5.51246e-07
1.45552e-07
-5.48646e-07
1.41648e-07
-5.45382e-07
1.38336e-07
-5.41513e-07
1.35567e-07
-5.37095e-07
1.33298e-07
-5.32184e-07
1.31486e-07
-5.26829e-07
1.30092e-07
-5.2108e-07
1.29077e-07
-5.14982e-07
1.28406e-07
-5.08576e-07
1.28048e-07
-5.01903e-07
1.27972e-07
-4.94998e-07
1.28149e-07
-4.87896e-07
1.28553e-07
-4.80628e-07
1.2916e-07
-4.73223e-07
1.29948e-07
-4.65707e-07
1.30896e-07
-4.58105e-07
1.31985e-07
-4.50438e-07
1.33198e-07
-4.42727e-07
1.34519e-07
-4.3499e-07
1.35933e-07
-4.27244e-07
-4.19503e-07
1.37427e-07
2.5046e-07
-5.10645e-07
2.35521e-07
-5.19337e-07
2.21769e-07
-5.26743e-07
2.09167e-07
-5.32897e-07
1.97673e-07
-5.37842e-07
1.87238e-07
-5.4163e-07
1.77811e-07
-5.44316e-07
1.69339e-07
-5.45961e-07
1.61763e-07
-5.46629e-07
1.5503e-07
-5.46387e-07
1.49082e-07
-5.45299e-07
1.43866e-07
-5.4343e-07
1.39328e-07
-5.40845e-07
1.35419e-07
-5.37603e-07
1.32088e-07
-5.33765e-07
1.29289e-07
-5.29386e-07
1.26979e-07
-5.24519e-07
1.25115e-07
-5.19217e-07
1.23659e-07
-5.13526e-07
1.22574e-07
-5.07491e-07
1.21825e-07
-5.01154e-07
1.21381e-07
-4.94554e-07
1.21212e-07
-4.87727e-07
1.21291e-07
-4.80707e-07
1.21591e-07
-4.73524e-07
1.2209e-07
-4.66206e-07
1.22766e-07
-4.58781e-07
1.23599e-07
-4.51271e-07
1.24571e-07
-4.43698e-07
1.25664e-07
-4.36083e-07
1.26864e-07
-4.28444e-07
-4.20796e-07
1.28157e-07
2.58155e-07
-4.93438e-07
2.42177e-07
-5.03358e-07
2.27408e-07
-5.11974e-07
2.13818e-07
-5.19306e-07
2.01368e-07
-5.25392e-07
1.90015e-07
-5.30277e-07
1.79709e-07
-5.3401e-07
1.70398e-07
-5.3665e-07
1.62026e-07
-5.38257e-07
1.54537e-07
-5.38897e-07
1.47874e-07
-5.38636e-07
1.41983e-07
-5.37539e-07
1.36808e-07
-5.3567e-07
1.32296e-07
-5.33092e-07
1.28398e-07
-5.29867e-07
1.25065e-07
-5.26052e-07
1.22251e-07
-5.21705e-07
1.19913e-07
-5.16878e-07
1.18009e-07
-5.11622e-07
1.16501e-07
-5.05983e-07
1.15353e-07
-5.00006e-07
1.14531e-07
-4.93733e-07
1.14006e-07
-4.87201e-07
1.13747e-07
-4.80448e-07
1.13728e-07
-4.73505e-07
1.13925e-07
-4.66403e-07
1.14314e-07
-4.5917e-07
1.14876e-07
-4.51832e-07
1.1559e-07
-4.44413e-07
1.16439e-07
-4.36933e-07
1.17408e-07
-4.29412e-07
-4.21869e-07
1.18481e-07
2.65563e-07
-4.75204e-07
2.48566e-07
-4.8636e-07
2.32793e-07
-4.96201e-07
2.18222e-07
-5.04736e-07
2.04823e-07
-5.11992e-07
1.92554e-07
-5.18008e-07
1.8137e-07
-5.22827e-07
1.71221e-07
-5.26501e-07
1.62053e-07
-5.29089e-07
1.5381e-07
-5.30654e-07
1.46433e-07
-5.3126e-07
1.39868e-07
-5.30973e-07
1.34058e-07
-5.2986e-07
1.28948e-07
-5.27983e-07
1.24487e-07
-5.25406e-07
1.20624e-07
-5.22189e-07
1.17311e-07
-5.18392e-07
1.14502e-07
-5.14069e-07
1.12154e-07
-5.09274e-07
1.10226e-07
-5.04056e-07
1.08682e-07
-4.98462e-07
1.07485e-07
-4.92536e-07
1.06603e-07
-4.86319e-07
1.06005e-07
-4.7985e-07
1.05663e-07
-4.73163e-07
1.05553e-07
-4.66292e-07
1.05648e-07
-4.59266e-07
1.05928e-07
-4.52113e-07
1.06374e-07
-4.44858e-07
1.06966e-07
-4.37525e-07
1.07687e-07
-4.30134e-07
-4.22705e-07
1.08523e-07
2.72661e-07
-4.55971e-07
2.5466e-07
-4.68358e-07
2.37891e-07
-4.79433e-07
2.22345e-07
-4.89189e-07
2.07994e-07
-4.97642e-07
1.94806e-07
-5.0482e-07
1.8274e-07
-5.10761e-07
1.71749e-07
-5.1551e-07
1.61779e-07
-5.1912e-07
1.52777e-07
-5.21651e-07
1.44684e-07
-5.23167e-07
1.37444e-07
-5.23733e-07
1.31e-07
-5.23415e-07
1.25296e-07
-5.22278e-07
1.20277e-07
-5.20387e-07
1.15891e-07
-5.17803e-07
1.12088e-07
-5.14589e-07
1.08819e-07
-5.108e-07
1.06039e-07
-5.06494e-07
1.03706e-07
-5.01722e-07
1.01779e-07
-4.96535e-07
1.00221e-07
-4.90978e-07
9.89973e-08
-4.85095e-07
9.80747e-08
-4.78927e-07
9.74235e-08
-4.72512e-07
9.70162e-08
-4.65885e-07
9.68277e-08
-4.59077e-07
9.68343e-08
-4.52119e-07
9.7015e-08
-4.45039e-07
9.73501e-08
-4.3786e-07
9.7822e-08
-4.30606e-07
-4.23298e-07
9.84146e-08
2.79461e-07
-4.35768e-07
2.60474e-07
-4.49371e-07
2.4272e-07
-4.61678e-07
2.26198e-07
-4.72666e-07
2.10892e-07
-4.82336e-07
1.96777e-07
-4.90704e-07
1.83816e-07
-4.978e-07
1.71968e-07
-5.03661e-07
1.61183e-07
-5.08334e-07
1.51407e-07
-5.11875e-07
1.42584e-07
-5.14345e-07
1.34658e-07
-5.15807e-07
1.2757e-07
-5.16327e-07
1.21262e-07
-5.15971e-07
1.1568e-07
-5.14805e-07
1.10769e-07
-5.12892e-07
1.06475e-07
-5.10295e-07
1.02749e-07
-5.07075e-07
9.95438e-08
-5.03289e-07
9.68131e-08
-4.98992e-07
9.45144e-08
-4.94236e-07
9.2608e-08
-4.89072e-07
9.10567e-08
-4.83544e-07
8.98254e-08
-4.77696e-07
8.88822e-08
-4.71569e-07
8.8197e-08
-4.652e-07
8.77424e-08
-4.58623e-07
8.74932e-08
-4.5187e-07
8.7426e-08
-4.44971e-07
8.75195e-08
-4.37953e-07
8.77542e-08
-4.30841e-07
-4.23656e-07
8.81125e-08
2.86021e-07
-4.14633e-07
2.66071e-07
-4.2942e-07
2.4734e-07
-4.42947e-07
2.29844e-07
-4.55169e-07
2.13577e-07
-4.66069e-07
1.98521e-07
-4.75648e-07
1.84648e-07
-4.83926e-07
1.7192e-07
-4.90933e-07
1.60293e-07
-4.96708e-07
1.49717e-07
-5.01299e-07
1.40136e-07
-5.04764e-07
1.31494e-07
-5.07165e-07
1.23732e-07
-5.08566e-07
1.16794e-07
-5.09032e-07
1.1062e-07
-5.08631e-07
1.05156e-07
-5.07428e-07
1.00347e-07
-5.05486e-07
9.61403e-08
-5.02868e-07
9.24862e-08
-4.99634e-07
8.93371e-08
-4.95843e-07
8.66485e-08
-4.91548e-07
8.43777e-08
-4.86801e-07
8.24856e-08
-4.81652e-07
8.09353e-08
-4.76146e-07
7.9692e-08
-4.70326e-07
7.87247e-08
-4.64232e-07
7.80034e-08
-4.57901e-07
7.75012e-08
-4.51368e-07
7.7193e-08
-4.44663e-07
7.70562e-08
-4.37817e-07
7.70696e-08
-4.30854e-07
-4.23801e-07
7.72141e-08
2.92458e-07
2.71583e-07
-4.08545e-07
2.519e-07
-4.23263e-07
2.33439e-07
-4.36708e-07
2.16211e-07
-4.48841e-07
2.00209e-07
-4.59646e-07
1.85413e-07
-4.69129e-07
1.71791e-07
-4.7731e-07
1.59304e-07
-4.84221e-07
1.47906e-07
-4.89901e-07
1.37545e-07
-4.94402e-07
1.28164e-07
-4.97784e-07
1.19706e-07
-5.00107e-07
1.12112e-07
-5.01439e-07
1.05325e-07
-5.01844e-07
9.92866e-08
-5.01389e-07
9.3941e-08
-5.0014e-07
8.9234e-08
-4.98161e-07
8.51136e-08
-4.95514e-07
8.15304e-08
-4.92259e-07
7.84373e-08
-4.88454e-07
7.57903e-08
-4.84154e-07
7.35475e-08
-4.79409e-07
7.16704e-08
-4.74269e-07
7.01232e-08
-4.68779e-07
6.88721e-08
-4.62981e-07
6.78865e-08
-4.56916e-07
6.71379e-08
-4.50619e-07
6.66001e-08
-4.44125e-07
6.6249e-08
-4.37465e-07
6.60631e-08
-4.30668e-07
-4.2376e-07
6.60221e-08
2.77136e-07
-3.868e-07
2.56541e-07
-4.02667e-07
2.37146e-07
-4.17312e-07
2.18977e-07
-4.30671e-07
2.02041e-07
-4.42709e-07
1.86326e-07
-4.53414e-07
1.71811e-07
-4.62794e-07
1.58462e-07
-4.70871e-07
1.46238e-07
-4.77677e-07
1.35092e-07
-4.83255e-07
1.24968e-07
-4.8766e-07
1.15811e-07
-4.9095e-07
1.07562e-07
-4.93189e-07
1.00161e-07
-4.94443e-07
9.35514e-08
-4.94779e-07
8.76745e-08
-4.94263e-07
8.24749e-08
-4.92961e-07
7.78986e-08
-4.90937e-07
7.38938e-08
-4.88254e-07
7.04117e-08
-4.84972e-07
6.74059e-08
-4.81148e-07
6.48332e-08
-4.76836e-07
6.26524e-08
-4.72088e-07
6.08258e-08
-4.66952e-07
5.93181e-08
-4.61473e-07
5.80969e-08
-4.55694e-07
5.71319e-08
-4.49654e-07
5.6396e-08
-4.43389e-07
5.58637e-08
-4.36933e-07
5.55115e-08
-4.30316e-07
-4.23567e-07
5.53192e-08
2.82838e-07
-3.64264e-07
2.61389e-07
-3.81216e-07
2.411e-07
-3.97023e-07
2.22019e-07
-4.11589e-07
2.04166e-07
-4.24856e-07
1.87546e-07
-4.36793e-07
1.72145e-07
-4.47393e-07
1.57938e-07
-4.56664e-07
1.44892e-07
-4.6463e-07
1.32962e-07
-4.71325e-07
1.22098e-07
-4.76795e-07
1.12244e-07
-4.81095e-07
1.03342e-07
-4.84287e-07
9.53341e-08
-4.86435e-07
8.81603e-08
-4.87605e-07
8.17621e-08
-4.87865e-07
7.60818e-08
-4.87281e-07
7.10636e-08
-4.85919e-07
6.6654e-08
-4.83845e-07
6.28019e-08
-4.8112e-07
5.94588e-08
-4.77805e-07
5.65785e-08
-4.73956e-07
5.41187e-08
-4.69628e-07
5.2039e-08
-4.64872e-07
5.03023e-08
-4.59737e-07
4.8874e-08
-4.54266e-07
4.77226e-08
-4.48503e-07
4.68185e-08
-4.42485e-07
4.6135e-08
-4.3625e-07
4.56476e-08
-4.29829e-07
-4.23253e-07
4.53338e-08
2.8876e-07
-3.41029e-07
2.66527e-07
-3.58983e-07
2.45399e-07
-3.75893e-07
2.25443e-07
-3.91633e-07
2.06703e-07
-4.06115e-07
1.89196e-07
-4.19285e-07
1.72921e-07
-4.31117e-07
1.57865e-07
-4.41607e-07
1.44e-07
-4.50765e-07
1.3129e-07
-4.58614e-07
1.19687e-07
-4.65192e-07
1.0914e-07
-4.70547e-07
9.95893e-08
-4.74736e-07
9.09779e-08
-4.77823e-07
8.32456e-08
-4.79872e-07
7.63327e-08
-4.80951e-07
7.018e-08
-4.81127e-07
6.47301e-08
-4.80469e-07
5.99273e-08
-4.79041e-07
5.57182e-08
-4.7691e-07
5.20516e-08
-4.74138e-07
4.88799e-08
-4.70784e-07
4.61574e-08
-4.66905e-07
4.38418e-08
-4.62556e-07
4.18941e-08
-4.57789e-07
4.02771e-08
-4.52649e-07
3.89572e-08
-4.47183e-07
3.79036e-08
-4.41431e-07
3.70872e-08
-4.35433e-07
3.64823e-08
-4.29224e-07
-4.22836e-07
3.60647e-08
2.94931e-07
2.72004e-07
2.50103e-07
2.29322e-07
-3.70852e-07
2.09728e-07
-3.8652e-07
1.91356e-07
-4.00913e-07
1.74221e-07
-4.13981e-07
1.58316e-07
-4.25701e-07
1.43629e-07
-4.36077e-07
1.30138e-07
-4.45123e-07
1.178e-07
-4.52853e-07
1.06558e-07
-4.59304e-07
9.63579e-08
-4.64536e-07
8.71418e-08
-4.68607e-07
7.88503e-08
-4.7158e-07
7.14232e-08
-4.73524e-07
6.48002e-08
-4.74504e-07
5.89221e-08
-4.74591e-07
5.3731e-08
-4.7385e-07
4.91713e-08
-4.7235e-07
4.51896e-08
-4.70156e-07
4.17352e-08
-4.67329e-07
3.87605e-08
-4.6393e-07
3.62206e-08
-4.60016e-07
3.40733e-08
-4.55641e-07
3.22801e-08
-4.50856e-07
3.08049e-08
-4.45708e-07
2.96143e-08
-4.40241e-07
2.86782e-08
-4.34497e-07
2.79681e-08
-4.28514e-07
-4.22326e-07
2.74589e-08
2.33684e-07
-3.49304e-07
2.13278e-07
-3.66115e-07
1.94072e-07
-3.81707e-07
1.76096e-07
-3.96004e-07
1.59356e-07
-4.08961e-07
1.43844e-07
-4.20564e-07
1.29551e-07
-4.3083e-07
1.16461e-07
-4.39762e-07
1.04521e-07
-4.47363e-07
9.36658e-08
-4.5368e-07
8.38396e-08
-4.58779e-07
7.49832e-08
-4.62723e-07
6.70367e-08
-4.65576e-07
5.99393e-08
-4.67406e-07
5.363e-08