/*--------------------------------*- C++ -*----------------------------------*\
  =========                 |
  \\      /  F ield         | OpenFOAM: The Open Source CFD Toolbox
   \\    /   O peration     | Website:  https://openfoam.org
    \\  /    A nd           | Version:  10
     \\/     M anipulation  |
\*---------------------------------------------------------------------------*/
FoamFile
{
    format      ascii;
    class       volVectorField;
    location    "12000";
    object      U;
}
// * * * * * * * * * * * * * * * * * * * * * * * * * * * * * * * * * * * * * //

dimensions      [0 1 -1 0 0 0 0];

internalField   nonuniform List<vector> 
17981
(
(-0.04103 3.61991 2.27362e-21)
(-0.0413147 3.63603 -2.17794e-21)
(-0.0414978 3.65169 0)
(-0.0416577 3.66691 -1.33318e-20)
(-0.0418031 3.68169 2.89759e-20)
(-0.0419319 3.69606 -1.55225e-20)
(-0.0420445 3.71002 0)
(-0.0421422 3.72359 1.34058e-21)
(-0.0422264 3.73678 0)
(-0.0422983 3.74959 0)
(-0.0423589 3.76204 -1.62324e-21)
(-0.0424093 3.77414 2.98119e-20)
(-0.0424506 3.7859 -2.69525e-20)
(-0.0424836 3.79732 0)
(-0.0425092 3.80841 0)
(-0.0425282 3.81919 0)
(-0.0425413 3.82966 0)
(-0.0425492 3.83983 -3.09384e-20)
(-0.0425525 3.8497 2.96859e-20)
(-0.0425517 3.85929 6.19956e-20)
(-0.0425473 3.8686 -5.85618e-20)
(-0.0425399 3.87763 -9.44037e-22)
(-0.0425297 3.88639 0)
(-0.0425172 3.8949 0)
(-0.0425027 3.90315 5.99597e-20)
(-0.0424865 3.91115 -5.66981e-20)
(-0.0424688 3.91891 5.85037e-20)
(-0.0424499 3.92643 -5.62325e-20)
(-0.04243 3.93373 -8.76762e-22)
(-0.0424092 3.9408 0)
(-0.0423878 3.94764 4.24425e-22)
(-0.0423658 3.95428 -4.17033e-22)
(-0.0423435 3.9607 -4.09427e-22)
(-0.0423208 3.96692 5.15128e-20)
(-0.0422979 3.97294 -4.95633e-20)
(-0.0422749 3.97877 -3.85714e-22)
(-0.0422518 3.98441 0)
(-0.0422287 3.98986 0)
(-0.0422057 3.99513 3.61325e-22)
(-0.0421828 4.00023 -4.59018e-20)
(-0.0421599 4.00515 -2.71914e-22)
(-0.0421373 4.00991 4.25133e-20)
(-0.0421148 4.0145 1.64433e-22)
(-0.0420917 4.01893 0)
(-0.0420701 4.02321 0)
(-0.0420488 4.02728 0)
(-0.0420252 4.03103 0)
(-0.0420005 4.03442 -5.78171e-20)
(-0.124496 3.61817 -9.53129e-21)
(-0.125129 3.63421 0)
(-0.125722 3.64978 -4.02493e-20)
(-0.126281 3.66491 9.66275e-20)
(-0.126806 3.67961 -5.36631e-20)
(-0.127301 3.6939 7.87267e-20)
(-0.127767 3.70778 -7.53497e-20)
(-0.128207 3.72127 1.40524e-21)
(-0.128621 3.73439 3.04046e-21)
(-0.129012 3.74713 -1.08697e-19)
(-0.129381 3.75951 2.16021e-19)
(-0.129729 3.77155 -1.10602e-19)
(-0.130059 3.78324 0)
(-0.130371 3.79461 3.74634e-21)
(-0.130667 3.80565 -1.25902e-19)
(-0.130947 3.81638 1.20668e-19)
(-0.131213 3.8268 1.28505e-19)
(-0.131466 3.83692 -1.23217e-19)
(-0.131706 3.84675 1.97757e-21)
(-0.131935 3.85629 0)
(-0.132152 3.86556 -9.88024e-22)
(-0.13236 3.87456 1.29139e-19)
(-0.132558 3.88329 -1.21062e-19)
(-0.132746 3.89176 1.28031e-19)
(-0.132927 3.89998 -2.45857e-19)
(-0.133099 3.90796 1.18892e-19)
(-0.133264 3.91569 -1.21662e-19)
(-0.133421 3.9232 1.16904e-19)
(-0.133572 3.93047 9.11667e-22)
(-0.133717 3.93752 0)
(-0.133856 3.94434 4.40587e-22)
(-0.133988 3.95096 4.33322e-22)
(-0.134116 3.95737 -1.09508e-19)
(-0.134238 3.96358 1.06168e-19)
(-0.134355 3.96959 -1.22613e-21)
(-0.134467 3.9754 1.03778e-19)
(-0.134575 3.98103 -9.9494e-20)
(-0.134678 3.98647 0)
(-0.134777 3.99173 9.63212e-20)
(-0.134872 3.99682 -1.86477e-19)
(-0.134963 4.00173 8.9902e-20)
(-0.13505 4.00648 -8.9703e-20)
(-0.135134 4.01107 -1.63483e-21)
(-0.135213 4.0155 8.43187e-20)
(-0.13529 4.01977 0)
(-0.135363 4.02384 0)
(-0.135426 4.02761 3.98861e-22)
(-0.135481 4.03103 -2.28612e-22)
(-0.205454 3.6149 0)
(-0.20649 3.63082 2.8296e-20)
(-0.207475 3.64629 -2.93132e-20)
(-0.208413 3.66131 5.90431e-20)
(-0.209305 3.67591 -6.04739e-20)
(-0.210155 3.69009 -4.72897e-21)
(-0.210964 3.70387 0)
(-0.211734 3.71727 -2.96015e-21)
(-0.212469 3.73029 -9.58508e-21)
(-0.213169 3.74295 0)
(-0.213838 3.75525 3.57073e-21)
(-0.214476 3.7672 7.42187e-21)
(-0.215086 3.77882 0)
(-0.215669 3.79012 -2.72918e-24)
(-0.216226 3.80109 3.9981e-21)
(-0.21676 3.81175 0)
(-0.217272 3.82211 2.68722e-19)
(-0.217762 3.83218 -2.53404e-19)
(-0.218231 3.84195 -2.72305e-19)
(-0.218682 3.85144 2.59102e-19)
(-0.219115 3.86066 -4.12138e-21)
(-0.219531 3.86962 0)
(-0.21993 3.8783 2.0364e-21)
(-0.220314 3.88674 -2.02168e-21)
(-0.220683 3.89492 2.00029e-21)
(-0.221038 3.90286 -2.54789e-19)
(-0.221379 3.91057 2.46592e-19)
(-0.221708 3.91804 -1.92479e-21)
(-0.222024 3.92528 0)
(-0.222329 3.9323 2.39699e-19)
(-0.222622 3.9391 6.04766e-21)
(-0.222905 3.9457 -2.29955e-19)
(-0.223177 3.95209 0)
(-0.223439 3.95827 0)
(-0.223691 3.96426 -2.20215e-19)
(-0.223934 3.97006 2.12713e-19)
(-0.224168 3.97567 -8.13642e-22)
(-0.224394 3.9811 0)
(-0.224611 3.98635 7.7805e-22)
(-0.22482 3.99142 -7.60715e-22)
(-0.225021 3.99632 -1.91479e-19)
(-0.225214 4.00106 1.84398e-19)
(-0.2254 4.00564 3.53939e-22)
(-0.225578 4.01006 -3.44867e-22)
(-0.22575 4.01432 -6.88103e-22)
(-0.225914 4.01839 0)
(-0.226063 4.02218 -4.05902e-22)
(-0.226195 4.02562 -2.38758e-19)
(-0.289308 3.6707 -4.21162e-21)
(-0.290502 3.68478 4.99428e-21)
(-0.291643 3.69845 1.95032e-19)
(-0.292735 3.71174 -3.98936e-19)
(-0.29378 3.72466 2.09882e-19)
(-0.294781 3.73722 -7.14635e-21)
(-0.29574 3.74943 2.43241e-19)
(-0.296659 3.76129 -2.47605e-19)
(-0.29754 3.77282 0)
(-0.298386 3.78403 -4.12008e-21)
(-0.299198 3.79493 2.72203e-19)
(-0.299978 3.80552 -2.64583e-19)
(-0.300727 3.8158 -2.72876e-19)
(-0.301447 3.8258 -2.15672e-20)
(-0.30214 3.83551 2.70639e-19)
(-0.302806 3.84494 -2.82185e-19)
(-0.303447 3.85411 2.70484e-19)
(-0.304064 3.863 0)
(-0.304659 3.87164 2.72714e-19)
(-0.305231 3.88003 -5.39954e-19)
(-0.305783 3.88817 2.569e-19)
(-0.306315 3.89606 2.6567e-19)
(-0.306828 3.90373 -2.52955e-19)
(-0.307322 3.91116 -2.00436e-21)
(-0.307799 3.91837 -2.55874e-19)
(-0.308258 3.92536 -1.82582e-21)
(-0.308702 3.93213 -9.1595e-21)
(-0.309129 3.93869 2.4117e-19)
(-0.309542 3.94506 2.37711e-19)
(-0.309939 3.95122 -4.61492e-19)
(-0.310323 3.95718 2.25776e-19)
(-0.310693 3.96296 -2.23239e-19)
(-0.311049 3.96855 2.15613e-19)
(-0.311393 3.97395 -2.13464e-19)
(-0.311724 3.97918 -5.56948e-21)
(-0.312044 3.98424 2.00772e-19)
(-0.312351 3.98913 2.31424e-21)
(-0.312648 3.99385 -1.93327e-19)
(-0.312933 3.99842 1.86169e-19)
(-0.313207 4.00282 7.1695e-22)
(-0.313471 4.00708 7.11867e-22)
(-0.313723 4.01114 1.90955e-19)
(-0.313956 4.01494 -2.09689e-19)
(-0.314165 4.01841 0)
(-0.366883 3.66418 -1.16899e-19)
(-0.36841 3.67813 -1.05364e-20)
(-0.369875 3.69168 0)
(-0.37128 3.70486 2.24373e-19)
(-0.372627 3.71766 -2.14311e-19)
(-0.37392 3.73011 1.50764e-20)
(-0.375161 3.74221 1.58151e-20)
(-0.376353 3.75397 0)
(-0.377498 3.7654 0)
(-0.378599 3.77652 -8.65735e-21)
(-0.379657 3.78732 0)
(-0.380675 3.79782 0)
(-0.381655 3.80803 -9.00452e-21)
(-0.382597 3.81795 4.52424e-21)
(-0.383505 3.82758 -2.96293e-19)
(-0.38438 3.83695 2.83757e-19)
(-0.385222 3.84604 -2.89645e-19)
(-0.386035 3.85487 2.81875e-19)
(-0.386818 3.86345 4.44915e-21)
(-0.387573 3.87178 0)
(-0.388301 3.87987 -2.8328e-19)
(-0.389003 3.88771 -1.21159e-20)
(-0.389681 3.89533 -1.15456e-20)
(-0.390335 3.90272 2.68695e-19)
(-0.390967 3.90988 -2.66867e-19)
(-0.391576 3.91683 -7.98071e-21)
(-0.392164 3.92357 2.57864e-19)
(-0.392731 3.9301 -2.54528e-19)
(-0.393279 3.93642 2.42728e-19)
(-0.393807 3.94255 0)
(-0.394317 3.94849 2.37458e-19)
(-0.394809 3.95424 -2.31947e-19)
(-0.395284 3.9598 0)
(-0.395742 3.96518 1.72072e-21)
(-0.396184 3.97039 1.68253e-21)
(-0.39661 3.97543 1.64256e-21)
(-0.39702 3.9803 2.05167e-19)
(-0.397416 3.985 -4.03158e-19)
(-0.397797 3.98955 1.96549e-19)
(-0.398164 3.99394 0)
(-0.398517 3.99817 0)
(-0.398856 4.00223 1.96806e-19)
(-0.399171 4.00604 -2.12489e-19)
(-0.399456 4.00953 0)
(-0.442068 3.65648 -1.3326e-19)
(-0.443921 3.6703 -1.84467e-19)
(-0.4457 3.68372 4.04852e-19)
(-0.447409 3.69677 -2.0818e-19)
(-0.449049 3.70944 -2.53808e-19)
(-0.450626 3.72177 2.34291e-19)
(-0.45214 3.73375 -8.35428e-21)
(-0.453597 3.7454 0)
(-0.454997 3.75672 -2.95744e-19)
(-0.456345 3.76773 5.93171e-19)
(-0.457641 3.77843 1.76643e-20)
(-0.458889 3.78884 -2.9229e-19)
(-0.460091 3.79895 -9.46103e-21)
(-0.46125 3.80878 -3.1127e-19)
(-0.462365 3.81833 2.9781e-19)
(-0.463441 3.82761 -3.10142e-19)
(-0.464478 3.83663 -1.15545e-20)
(-0.465479 3.84539 2.95417e-19)
(-0.466444 3.8539 -1.39837e-20)
(-0.467375 3.86217 0)
(-0.468273 3.87019 2.60316e-24)
(-0.469141 3.87798 4.50594e-21)
(-0.469978 3.88554 2.88066e-19)
(-0.470786 3.89287 7.1233e-21)
(-0.471566 3.89999 -5.50795e-19)
(-0.47232 3.90689 2.63334e-19)
(-0.473047 3.91359 -8.30593e-21)
(-0.473749 3.92008 0)
(-0.474428 3.92636 -5.16444e-19)
(-0.475082 3.93246 4.96267e-19)
(-0.475714 3.93836 0)
(-0.476324 3.94408 1.87565e-21)
(-0.476913 3.94961 4.73364e-19)
(-0.477481 3.95497 -4.57071e-19)
(-0.478029 3.96015 0)
(-0.478558 3.96516 -1.71095e-21)
(-0.479068 3.97001 1.66929e-21)
(-0.47956 3.97469 1.62979e-21)
(-0.480034 3.97921 -4.11074e-19)
(-0.48049 3.98359 3.94288e-19)
(-0.48093 3.9878 -1.52615e-21)
(-0.481351 3.99185 -4.05083e-19)
(-0.481746 3.99567 4.34386e-19)
(-0.482104 3.99916 0)
(-0.517091 3.66143 -1.18449e-20)
(-0.519176 3.67471 -1.34119e-20)
(-0.521179 3.68762 0)
(-0.523105 3.70016 -1.59011e-20)
(-0.524956 3.71235 -1.6865e-20)
(-0.526736 3.7242 0)
(-0.528449 3.73572 -3.04947e-19)
(-0.530097 3.74693 2.91009e-19)
(-0.531683 3.75782 0)
(-0.53321 3.76841 -6.45382e-19)
(-0.534681 3.7787 6.2631e-19)
(-0.536098 3.78871 9.97575e-21)
(-0.537464 3.79844 0)
(-0.538781 3.8079 0)
(-0.540051 3.81709 -9.98351e-21)
(-0.541276 3.82602 0)
(-0.542457 3.8347 6.43024e-19)
(-0.543598 3.84313 -1.25231e-18)
(-0.544698 3.85132 1.2392e-18)
(-0.545761 3.85928 -5.98224e-19)
(-0.546787 3.867 0)
(-0.547777 3.8745 5.98567e-19)
(-0.548733 3.88177 -5.78447e-19)
(-0.549657 3.88883 0)
(-0.550549 3.89568 5.76915e-19)
(-0.55141 3.90233 -1.10676e-18)
(-0.552242 3.90877 5.34946e-19)
(-0.553046 3.91501 -5.3932e-19)
(-0.553822 3.92106 5.13982e-19)
(-0.554571 3.92693 -5.16575e-19)
(-0.555294 3.93261 4.96469e-19)
(-0.555992 3.9381 0)
(-0.556666 3.94343 4.78558e-19)
(-0.557316 3.94858 -4.63846e-19)
(-0.557943 3.95356 0)
(-0.558548 3.95838 -4.50232e-19)
(-0.559131 3.96304 4.33303e-19)
(-0.559694 3.96754 -1.65489e-21)
(-0.560235 3.97189 -4.15695e-19)
(-0.560757 3.97608 8.1099e-19)
(-0.561258 3.98012 -4.08762e-19)
(-0.56173 3.98393 4.49921e-19)
(-0.56216 3.98744 5.30795e-21)
(-0.592641 3.67754 -1.56899e-20)
(-0.594843 3.68994 2.45049e-23)
(-0.59696 3.70199 1.79313e-20)
(-0.598997 3.7137 0)
(-0.600958 3.72508 -6.66154e-19)
(-0.602844 3.73615 1.25904e-18)
(-0.604661 3.74692 4.25048e-20)
(-0.606411 3.75738 3.94998e-20)
(-0.608097 3.76756 -6.82929e-19)
(-0.609721 3.77745 -1.05288e-20)
(-0.611288 3.78707 0)
(-0.612798 3.79643 -6.90384e-19)
(-0.614254 3.80552 -1.69607e-20)
(-0.61566 3.81435 6.67455e-19)
(-0.617016 3.82294 0)
(-0.618324 3.83129 5.83175e-24)
(-0.619588 3.83939 1.017e-20)
(-0.620808 3.84727 -1.00418e-20)
(-0.621985 3.85492 0)
(-0.623123 3.86234 6.27807e-19)
(-0.624222 3.86955 -6.0636e-19)
(-0.625283 3.87655 0)
(-0.626307 3.88334 4.62919e-21)
(-0.627297 3.88993 5.87841e-19)
(-0.628253 3.89632 -5.55211e-19)
(-0.629177 3.90251 0)
(-0.630069 3.90851 5.51931e-19)
(-0.63093 3.91433 -5.30118e-19)
(-0.631761 3.91997 4.08599e-21)
(-0.632564 3.92543 0)
(-0.633339 3.93071 3.90356e-21)
(-0.634086 3.93583 0)
(-0.634808 3.94077 -4.796e-19)
(-0.635504 3.94556 9.29155e-19)
(-0.636175 3.95019 -9.06274e-19)
(-0.636822 3.95466 4.42438e-19)
(-0.637445 3.95898 0)
(-0.638046 3.96316 1.64469e-21)
(-0.638624 3.96718 -4.26614e-19)
(-0.63917 3.97099 9.06258e-19)
(-0.639671 3.97451 -5.09161e-19)
(-0.664322 3.6789 -5.91316e-19)
(-0.666697 3.6908 5.6106e-19)
(-0.668982 3.70236 0)
(-0.671182 3.7136 2.06778e-20)
(-0.6733 3.72453 2.03621e-23)
(-0.67534 3.73515 0)
(-0.677304 3.74549 0)
(-0.679197 3.75553 4.43682e-20)
(-0.681021 3.7653 1.11565e-20)
(-0.68278 3.7748 1.11697e-20)
(-0.684476 3.78404 0)
(-0.686112 3.79302 -7.25958e-19)
(-0.687691 3.80175 6.82394e-19)
(-0.689214 3.81024 7.136e-19)
(-0.690684 3.81849 -6.7132e-19)
(-0.692104 3.82651 -1.07159e-20)
(-0.693474 3.83429 1.05732e-20)
(-0.694798 3.84186 0)
(-0.696076 3.84921 1.02541e-20)
(-0.697311 3.85634 6.53256e-19)
(-0.698503 3.86327 -6.25912e-19)
(-0.699655 3.86999 -6.38609e-19)
(-0.700767 3.87651 6.07761e-19)
(-0.701842 3.88284 -9.33398e-21)
(-0.70288 3.88898 0)
(-0.703883 3.89493 8.94401e-21)
(-0.704851 3.9007 5.69284e-19)
(-0.705786 3.90628 -5.46795e-19)
(-0.706689 3.9117 5.39118e-19)
(-0.70756 3.91694 -1.04436e-18)
(-0.708401 3.92201 5.05875e-19)
(-0.709213 3.92692 -5.01033e-19)
(-0.709995 3.93167 4.81814e-19)
(-0.710751 3.93627 -1.8486e-21)
(-0.711479 3.94071 -8.88534e-25)
(-0.71218 3.945 1.75522e-21)
(-0.712855 3.94914 0)
(-0.713507 3.95314 -1.70755e-21)
(-0.714125 3.95695 0)
(-0.714695 3.96047 2.0244e-21)
(-0.736749 3.69031 0)
(-0.73918 3.7014 2.20164e-20)
(-0.741521 3.71217 2.26215e-20)
(-0.743775 3.72265 0)
(-0.745946 3.73284 -7.70051e-19)
(-0.748038 3.74275 7.10028e-19)
(-0.750055 3.75238 -2.36729e-20)
(-0.751999 3.76175 -1.18575e-20)
(-0.753874 3.77087 -7.7366e-19)
(-0.755682 3.77973 -3.0789e-20)
(-0.757426 3.78834 7.45534e-19)
(-0.75911 3.79672 0)
(-0.760735 3.80486 -7.45487e-19)
(-0.762303 3.81278 -2.30075e-20)
(-0.763818 3.82047 1.43847e-18)
(-0.765281 3.82795 -6.92728e-19)
(-0.766693 3.83521 -7.00368e-19)
(-0.768058 3.84226 1.34732e-18)
(-0.769376 3.84911 -6.6878e-19)
(-0.770649 3.85576 -5.10223e-21)
(-0.771879 3.86221 -5.00479e-21)
(-0.773067 3.86847 -6.23914e-19)
(-0.774214 3.87455 -1.21928e-20)
(-0.775322 3.88044 5.89949e-19)
(-0.776393 3.88615 -4.58589e-21)
(-0.777426 3.89168 0)
(-0.778424 3.89704 -4.37396e-21)
(-0.779388 3.90224 0)
(-0.780318 3.90727 0)
(-0.781215 3.91213 0)
(-0.782081 3.91684 3.96347e-21)
(-0.782916 3.9214 0)
(-0.783721 3.9258 -1.88353e-21)
(-0.784498 3.93006 -8.70462e-25)
(-0.785245 3.93417 -1.78649e-21)
(-0.785965 3.93814 4.60207e-19)
(-0.786651 3.94193 -4.71193e-19)
(-0.787288 3.94546 5.26628e-19)
(-0.812402 3.71955 8.2096e-19)
(-0.814685 3.72931 -7.56366e-19)
(-0.816886 3.7388 2.52173e-20)
(-0.819007 3.74804 0)
(-0.821052 3.75701 -8.22279e-19)
(-0.823025 3.76574 7.83861e-19)
(-0.824928 3.77424 -7.30873e-24)
(-0.826765 3.78249 1.2278e-20)
(-0.828538 3.79052 0)
(-0.830249 3.79833 -1.19709e-20)
(-0.831902 3.80592 -1.17994e-20)
(-0.833497 3.81329 -7.5333e-19)
(-0.835038 3.82046 7.20157e-19)
(-0.836527 3.82742 1.11996e-20)
(-0.837964 3.83418 5.23615e-24)
(-0.839353 3.84075 7.07433e-19)
(-0.840694 3.84713 -6.67073e-19)
(-0.84199 3.85331 -5.15744e-21)
(-0.843242 3.85932 -5.0416e-21)
(-0.844451 3.86514 0)
(-0.845619 3.87079 6.21977e-19)
(-0.846746 3.87626 -5.96721e-19)
(-0.847835 3.88157 5.9243e-19)
(-0.848886 3.88671 -5.73251e-19)
(-0.8499 3.89169 -5.63463e-19)
(-0.85088 3.89651 5.45574e-19)
(-0.851824 3.90117 -4.15351e-21)
(-0.852735 3.90569 -5.17394e-19)
(-0.853614 3.91005 4.97435e-19)
(-0.854461 3.91427 -4.92603e-19)
(-0.855277 3.91834 4.79477e-19)
(-0.856063 3.92228 4.72737e-19)
(-0.856815 3.92605 -4.83746e-19)
(-0.857518 3.92959 -2.06364e-21)
(-0.87673 3.70573 0)
(-0.879197 3.71533 -2.19937e-23)
(-0.881574 3.72467 8.82496e-19)
(-0.883865 3.73375 -8.66799e-19)
(-0.886074 3.74259 0)
(-0.888205 3.75118 -2.66071e-20)
(-0.89026 3.75954 1.31807e-20)
(-0.892243 3.76767 8.50257e-19)
(-0.894156 3.77558 2.78557e-20)
(-0.896004 3.78326 -7.87482e-19)
(-0.897788 3.79074 -7.99994e-19)
(-0.89951 3.79801 7.75851e-19)
(-0.901173 3.80507 7.83285e-19)
(-0.902779 3.81193 -7.36744e-19)
(-0.904331 3.8186 7.63791e-19)
(-0.90583 3.82508 -7.30819e-19)
(-0.907277 3.83137 -1.1126e-20)
(-0.908676 3.83748 7.03753e-19)
(-0.910026 3.84341 -1.34543e-18)
(-0.911331 3.84916 -1.78011e-20)
(-0.912591 3.85474 6.43229e-19)
(-0.913808 3.86015 -6.38918e-19)
(-0.914983 3.86539 6.17621e-19)
(-0.916117 3.87047 -6.02628e-19)
(-0.917212 3.8754 1.17483e-18)
(-0.918269 3.88016 -5.68321e-19)
(-0.919288 3.88478 0)
(-0.920272 3.88924 -4.24571e-21)
(-0.92122 3.89356 4.1347e-21)
(-0.922134 3.89774 -8.04963e-21)
(-0.923015 3.90178 -5.06421e-19)
(-0.923863 3.90567 4.92005e-19)
(-0.924678 3.90942 3.87276e-21)
(-0.925447 3.91297 0)
(-0.938995 3.69146 -8.84763e-19)
(-0.941638 3.70089 9.14547e-19)
(-0.944184 3.71007 -1.8688e-18)
(-0.946638 3.719 9.25873e-19)
(-0.949003 3.72768 -2.85765e-20)
(-0.951284 3.73613 -8.98463e-19)
(-0.953484 3.74435 8.54288e-19)
(-0.955606 3.75234 8.91375e-19)
(-0.957655 3.76012 -8.76342e-19)
(-0.959631 3.76768 8.64672e-19)
(-0.96154 3.77503 -8.50877e-19)
(-0.963382 3.78219 0)
(-0.965161 3.78914 -1.28083e-20)
(-0.96688 3.7959 8.01534e-19)
(-0.968539 3.80247 -1.57475e-18)
(-0.970142 3.80885 7.61751e-19)
(-0.971691 3.81505 5.13799e-24)
(-0.973186 3.82107 0)
(-0.974631 3.82691 -2.24819e-20)
(-0.976026 3.83258 7.14454e-19)
(-0.977373 3.83809 -1.37051e-18)
(-0.978675 3.84342 6.62535e-19)
(-0.979931 3.8486 0)
(-0.981144 3.85362 0)
(-0.982315 3.85848 -6.23262e-19)
(-0.983445 3.86319 1.20019e-18)
(-0.984536 3.86775 -5.8253e-19)
(-0.985588 3.87217 5.74927e-19)
(-0.986602 3.87644 -5.52319e-19)
(-0.98758 3.88057 1.75426e-24)
(-0.988523 3.88456 -5.2953e-19)
(-0.98943 3.88842 5.05208e-19)
(-0.990305 3.89214 -1.98975e-21)
(-0.991136 3.89568 -5.42643e-19)
(-0.999258 3.67683 3.05648e-20)
(-1.00207 3.6861 0)
(-1.00478 3.69511 3.08063e-20)
(-1.00739 3.70387 0)
(-1.0099 3.71239 1.03023e-18)
(-1.01233 3.72069 -9.80818e-19)
(-1.01466 3.72875 0)
(-1.01692 3.7366 2.96355e-20)
(-1.01909 3.74424 9.65717e-19)
(-1.02119 3.75167 -8.91634e-19)
(-1.02322 3.7589 -1.41379e-20)
(-1.02518 3.76593 1.38807e-20)
(-1.02707 3.77276 8.96776e-19)
(-1.02889 3.77941 -1.70755e-18)
(-1.03065 3.78587 8.25615e-19)
(-1.03235 3.79215 8.52359e-19)
(-1.034 3.79825 -7.77689e-19)
(-1.03558 3.80417 -7.88474e-19)
(-1.03712 3.80993 1.54729e-18)
(-1.0386 3.81551 -7.36151e-19)
(-1.04003 3.82094 0)
(-1.04141 3.8262 0)
(-1.04274 3.8313 0)
(-1.04403 3.83625 0)
(-1.04527 3.84104 5.09958e-21)
(-1.04647 3.84569 0)
(-1.04763 3.85019 -4.8309e-21)
(-1.04875 3.85455 6.10474e-19)
(-1.04982 3.85877 -5.81592e-19)
(-1.05086 3.86285 1.76426e-24)
(-1.05186 3.86679 -5.56973e-19)
(-1.05283 3.87061 5.35349e-19)
(-1.05375 3.87429 4.14977e-21)
(-1.05464 3.87781 0)
(-1.06056 3.67102 1.02764e-18)
(-1.06342 3.67985 -1.08443e-18)
(-1.06618 3.68844 2.10859e-18)
(-1.06883 3.6968 -9.92109e-19)
(-1.07139 3.70493 3.24695e-20)
(-1.07386 3.71284 0)
(-1.07624 3.72054 -1.81235e-23)
(-1.07854 3.72803 -3.12012e-20)
(-1.08075 3.73532 9.98048e-19)
(-1.08289 3.74241 -9.20327e-19)
(-1.08496 3.74931 -6.98143e-24)
(-1.08695 3.75602 1.44941e-20)
(-1.08887 3.76255 0)
(-1.09073 3.76889 8.99393e-19)
(-1.09253 3.77506 -8.72176e-19)
(-1.09426 3.78106 8.57707e-19)
(-1.09593 3.78688 -1.65637e-18)
(-1.09755 3.79254 7.87315e-19)
(-1.09911 3.79804 1.23078e-20)
(-1.10062 3.80337 0)
(-1.10207 3.80855 0)
(-1.10348 3.81357 -7.34589e-19)
(-1.10484 3.81845 7.03655e-19)
(-1.10615 3.82317 -5.39397e-21)
(-1.10741 3.82775 0)
(-1.10863 3.83219 5.105e-21)
(-1.10981 3.83648 -4.9646e-21)
(-1.11094 3.84064 0)
(-1.11204 3.84467 6.04228e-19)
(-1.11309 3.84856 -1.1628e-18)
(-1.11411 3.85232 5.64015e-19)
(-1.11509 3.85596 5.54102e-19)
(-1.11603 3.85945 -5.60306e-19)
(-1.11716 3.65572 1.13318e-18)
(-1.12017 3.66438 -1.10779e-18)
(-1.12307 3.67279 3.53748e-20)
(-1.12586 3.68098 1.14936e-18)
(-1.12855 3.68894 -1.05612e-18)
(-1.13115 3.69669 -3.43801e-20)
(-1.13364 3.70423 1.07086e-18)
(-1.13605 3.71157 6.95842e-20)
(-1.13838 3.71871 -1.03326e-18)
(-1.14062 3.72565 -4.83073e-20)
(-1.14279 3.73242 -3.15756e-20)
(-1.14488 3.73899 -1.01833e-18)
(-1.14689 3.74539 1.93633e-18)
(-1.14884 3.75162 -1.89289e-18)
(-1.15072 3.75767 8.9942e-19)
(-1.15254 3.76355 -9.12345e-19)
(-1.15429 3.76927 8.71218e-19)
(-1.15599 3.77483 1.341e-20)
(-1.15762 3.78023 -8.44496e-19)
(-1.15921 3.78547 8.07506e-19)
(-1.16073 3.79056 1.23957e-20)
(-1.1622 3.7955 0)
(-1.16363 3.8003 0)
(-1.165 3.80495 -7.36598e-19)
(-1.16633 3.80945 7.05771e-19)
(-1.16761 3.81382 6.90656e-19)
(-1.16884 3.81805 -6.67421e-19)
(-1.17003 3.82215 0)
(-1.17118 3.82611 9.91474e-21)
(-1.17228 3.82995 -6.20149e-19)
(-1.17335 3.83366 6.00129e-19)
(-1.17437 3.83724 5.85547e-19)
(-1.17536 3.8407 -5.87274e-19)
(-1.17196 3.64028 1.23022e-18)
(-1.17511 3.64875 0)
(-1.17814 3.65699 -3.80938e-20)
(-1.18106 3.66499 -2.82389e-23)
(-1.18387 3.67278 -3.7398e-20)
(-1.18658 3.68036 1.2407e-18)
(-1.18919 3.68773 -2.32732e-18)
(-1.1917 3.69491 1.16091e-18)
(-1.19413 3.7019 0)
(-1.19647 3.7087 1.11912e-18)
(-1.19873 3.71531 -1.01406e-18)
(-1.20091 3.72175 0)
(-1.20302 3.72802 1.06275e-18)
(-1.20505 3.73412 -2.01908e-18)
(-1.20701 3.74005 1.98638e-18)
(-1.20891 3.74582 2.10687e-20)
(-1.21073 3.75142 -1.8746e-18)
(-1.2125 3.75687 9.04251e-19)
(-1.21421 3.76217 -5.12495e-24)
(-1.21586 3.76732 8.73901e-19)
(-1.21745 3.77231 -8.61867e-19)
(-1.21898 3.77717 0)
(-1.22047 3.78187 0)
(-1.2219 3.78644 -7.8729e-19)
(-1.22328 3.79087 -1.0971e-20)
(-1.22462 3.79517 7.33051e-19)
(-1.2259 3.79933 0)
(-1.22714 3.80336 0)
(-1.22834 3.80726 -5.24717e-21)
(-1.22949 3.81104 -5.0959e-21)
(-1.23061 3.81469 -9.895e-21)
(-1.23168 3.81822 6.23049e-19)
(-1.23271 3.82163 -1.2313e-18)
(-1.22828 3.63304 1.28697e-18)
(-1.23144 3.64108 1.34452e-18)
(-1.23448 3.64891 -1.31381e-18)
(-1.2374 3.65651 -1.27339e-18)
(-1.24022 3.66392 1.2054e-18)
(-1.24294 3.67112 0)
(-1.24556 3.67813 -3.83903e-20)
(-1.24808 3.68496 1.22444e-18)
(-1.25051 3.6916 7.25325e-20)
(-1.25286 3.69807 -2.34845e-18)
(-1.25512 3.70436 1.09769e-18)
(-1.25731 3.71049 1.10144e-18)
(-1.25942 3.71645 -1.06524e-18)
(-1.26145 3.72226 0)
(-1.26342 3.7279 -1.03674e-18)
(-1.26532 3.73339 1.99835e-18)
(-1.26715 3.73873 -9.78553e-19)
(-1.26892 3.74392 -1.48016e-20)
(-1.27064 3.74897 0)
(-1.27229 3.75387 1.40078e-20)
(-1.27388 3.75862 0)
(-1.27542 3.76324 0)
(-1.27691 3.76773 -8.23106e-19)
(-1.27834 3.77208 8.00308e-19)
(-1.27973 3.77629 0)
(-1.28106 3.78038 0)
(-1.28235 3.78434 -5.72377e-21)
(-1.28359 3.78818 -7.21399e-19)
(-1.28479 3.79189 6.86574e-19)
(-1.28595 3.79549 1.74387e-24)
(-1.28706 3.79896 -6.59367e-19)
(-1.28813 3.80232 6.46472e-19)
(-1.27976 3.61728 1.46415e-18)
(-1.28304 3.62514 -1.33986e-18)
(-1.28619 3.63277 1.3914e-18)
(-1.28923 3.64019 -1.44501e-18)
(-1.29215 3.64741 -1.3504e-18)
(-1.29496 3.65444 1.27791e-18)
(-1.29767 3.66128 0)
(-1.30028 3.66794 0)
(-1.3028 3.67442 -1.28624e-18)
(-1.30523 3.68073 1.22169e-18)
(-1.30757 3.68688 5.67614e-20)
(-1.30983 3.69286 1.84687e-20)
(-1.31201 3.69869 1.80163e-20)
(-1.31412 3.70436 -1.1372e-18)
(-1.31615 3.70987 -2.40269e-20)
(-1.31811 3.71524 1.05526e-18)
(-1.32001 3.72046 1.04814e-18)
(-1.32184 3.72554 -9.99958e-19)
(-1.32361 3.73048 0)
(-1.32531 3.73528 0)
(-1.32696 3.73994 -9.34957e-19)
(-1.32855 3.74446 9.07754e-19)
(-1.33009 3.74886 8.81572e-19)
(-1.33157 3.75312 -1.70581e-18)
(-1.333 3.75726 8.19067e-19)
(-1.33438 3.76127 -8.06014e-19)
(-1.33572 3.76516 1.56022e-18)
(-1.337 3.76893 -7.43547e-19)
(-1.33824 3.77257 0)
(-1.33943 3.7761 7.19523e-19)
(-1.34058 3.77952 -1.37747e-18)
(-1.34169 3.78282 6.69356e-19)
(-1.32961 3.60153 -1.50563e-18)
(-1.333 3.60919 -4.79414e-20)
(-1.33626 3.61663 4.74279e-20)
(-1.3394 3.62387 1.52798e-18)
(-1.34242 3.6309 -1.39929e-18)
(-1.34532 3.63775 9.05072e-20)
(-1.34812 3.64441 -1.44473e-18)
(-1.35081 3.6509 -4.45808e-20)
(-1.35341 3.65721 1.29831e-18)
(-1.35591 3.66336 4.15673e-20)
(-1.35833 3.66935 -4.06022e-20)
(-1.36066 3.67519 -1.98033e-20)
(-1.3629 3.68087 -1.9303e-20)
(-1.36507 3.6864 -1.87954e-20)
(-1.36717 3.69178 0)
(-1.36919 3.69702 0)
(-1.37114 3.70212 -1.73143e-20)
(-1.37302 3.70708 0)
(-1.37484 3.71191 -1.07282e-18)
(-1.3766 3.7166 -3.35245e-20)
(-1.37829 3.72116 1.95997e-18)
(-1.37993 3.72559 -1.93289e-18)
(-1.38151 3.72989 9.23751e-19)
(-1.38304 3.73407 -1.41125e-20)
(-1.38451 3.73812 -6.84674e-21)
(-1.38594 3.74206 0)
(-1.38731 3.74587 8.30175e-19)
(-1.38863 3.74956 -1.60012e-18)
(-1.38991 3.75314 7.71312e-19)
(-1.39114 3.75661 0)
(-1.39232 3.75996 7.3932e-19)
(-1.39347 3.76321 -7.08367e-19)
(-1.37789 3.58583 -1.71942e-18)
(-1.38139 3.5933 3.27069e-18)
(-1.38475 3.60054 -1.60535e-18)
(-1.38799 3.60758 5.05958e-20)
(-1.3911 3.61443 -1.67241e-18)
(-1.39409 3.62109 -5.67217e-20)
(-1.39696 3.62757 3.11061e-18)
(-1.39974 3.63388 -1.5215e-18)
(-1.4024 3.64002 1.48715e-18)
(-1.40498 3.646 -1.45472e-18)
(-1.40746 3.65183 0)
(-1.40985 3.65751 0)
(-1.41215 3.66304 -2.06949e-20)
(-1.41438 3.66843 1.32448e-18)
(-1.41653 3.67367 -1.24057e-18)
(-1.4186 3.67878 -1.90525e-20)
(-1.4206 3.68375 -1.19704e-18)
(-1.42254 3.68859 1.14045e-18)
(-1.4244 3.6933 -1.09332e-18)
(-1.42621 3.69788 1.09301e-18)
(-1.42795 3.70234 1.07866e-18)
(-1.42963 3.70667 1.62256e-20)
(-1.43125 3.71087 -9.84038e-19)
(-1.43282 3.71496 1.50292e-20)
(-1.43433 3.71893 -9.31847e-19)
(-1.43579 3.72278 8.91154e-19)
(-1.4372 3.72651 -6.84812e-21)
(-1.43855 3.73013 0)
(-1.43986 3.73364 -8.28655e-19)
(-1.44113 3.73704 -9.10465e-21)
(-1.44235 3.74033 -1.45319e-20)
(-1.44352 3.74351 7.5686e-19)
(-1.42466 3.57022 1.92528e-18)
(-1.42827 3.57749 -1.70343e-18)
(-1.43173 3.58454 5.55948e-20)
(-1.43505 3.59138 5.47484e-20)
(-1.43825 3.59803 5.37964e-20)
(-1.44132 3.6045 1.66674e-18)
(-1.44427 3.61079 -3.3587e-18)
(-1.44711 3.61692 1.64127e-18)
(-1.44985 3.62289 4.93517e-20)
(-1.45248 3.6287 0)
(-1.45502 3.63436 -1.56854e-18)
(-1.45747 3.63988 -3.74981e-20)
(-1.45983 3.64525 1.42791e-18)
(-1.46211 3.65049 0)
(-1.46431 3.65559 -1.3601e-18)
(-1.46643 3.66057 1.31382e-18)
(-1.46847 3.66541 3.96674e-20)
(-1.47045 3.67012 1.24398e-18)
(-1.47236 3.67471 3.03083e-21)
(-1.4742 3.67917 -1.13195e-18)
(-1.47598 3.68352 0)
(-1.4777 3.68774 -1.09974e-18)
(-1.47936 3.69185 -1.60833e-20)
(-1.48096 3.69584 1.03386e-18)
(-1.48251 3.69972 -9.85111e-19)
(-1.484 3.70348 9.64006e-19)
(-1.48545 3.70714 7.29026e-21)
(-1.48684 3.71068 0)
(-1.48818 3.71411 0)
(-1.48947 3.71744 6.62696e-21)
(-1.49072 3.72067 6.41946e-21)
(-1.49192 3.72379 0)
(-1.46999 3.55473 2.09593e-18)
(-1.47369 3.5618 -1.85202e-18)
(-1.47725 3.56865 1.91554e-18)
(-1.48066 3.5753 -1.92117e-18)
(-1.48393 3.58175 -4.327e-23)
(-1.48707 3.58803 0)
(-1.4901 3.59413 0)
(-1.493 3.60007 1.77485e-18)
(-1.4958 3.60585 -3.4618e-18)
(-1.49849 3.61149 1.63739e-18)
(-1.50109 3.61698 5.05657e-20)
(-1.50359 3.62233 0)
(-1.506 3.62755 -1.54947e-18)
(-1.50832 3.63263 -3.44148e-20)
(-1.51056 3.63759 2.8901e-18)
(-1.51273 3.64241 -1.41017e-18)
(-1.51481 3.64712 1.37506e-18)
(-1.51683 3.6517 -1.28756e-18)
(-1.51878 3.65617 0)
(-1.52065 3.66051 -3.88055e-20)
(-1.52247 3.66474 1.88036e-20)
(-1.52422 3.66886 1.17561e-18)
(-1.52592 3.67286 -1.10378e-18)
(-1.52755 3.67676 -1.71065e-20)
(-1.52913 3.68054 -3.31336e-20)
(-1.53065 3.68422 -1.03372e-18)
(-1.53212 3.68778 9.87971e-19)
(-1.53354 3.69125 9.68793e-19)
(-1.53491 3.69461 1.83442e-20)
(-1.53623 3.69786 -9.04533e-19)
(-1.5375 3.70102 -8.92344e-19)
(-1.53873 3.70407 -9.05477e-21)
(-1.51392 3.53938 -1.24453e-18)
(-1.51772 3.54626 9.75146e-19)
(-1.52136 3.55291 1.07484e-18)
(-1.52485 3.55936 -1.01141e-18)
(-1.5282 3.56562 2.00165e-18)
(-1.53142 3.5717 -1.94627e-18)
(-1.5345 3.57761 0)
(-1.53747 3.58336 5.90538e-20)
(-1.54032 3.58895 1.87056e-18)
(-1.54307 3.59441 -1.76859e-18)
(-1.54571 3.59972 0)
(-1.54825 3.60491 5.30354e-20)
(-1.55071 3.60996 5.15322e-20)
(-1.55307 3.61488 0)
(-1.55535 3.61969 0)
(-1.55755 3.62437 2.35681e-20)
(-1.55968 3.62893 -4.57028e-20)
(-1.56173 3.63338 1.40909e-18)
(-1.56371 3.63772 -1.34e-18)
(-1.56562 3.64194 5.73431e-24)
(-1.56746 3.64606 -4.02927e-20)
(-1.56925 3.65006 0)
(-1.57097 3.65396 1.1993e-18)
(-1.57263 3.65775 -1.1619e-18)
(-1.57424 3.66144 1.77046e-20)
(-1.57579 3.66502 -8.56588e-21)
(-1.57728 3.6685 0)
(-1.57873 3.67188 -8.02262e-21)
(-1.58012 3.67516 -1.83262e-24)
(-1.58147 3.67834 -9.59661e-19)
(-1.58276 3.68142 9.25466e-19)
(-1.58401 3.68441 0)
(-1.55651 3.52421 -1.47584e-19)
(-1.56041 3.5309 1.19307e-18)
(-1.56413 3.53735 -1.1916e-18)
(-1.5677 3.5436 1.21794e-18)
(-1.57112 3.54966 -1.01078e-18)
(-1.5744 3.55554 -1.09612e-18)
(-1.57755 3.56125 1.03276e-18)
(-1.58057 3.56681 -1.16894e-18)
(-1.58347 3.57222 1.10706e-18)
(-1.58626 3.57749 6.06435e-20)
(-1.58895 3.58262 5.89555e-20)
(-1.59153 3.58763 -1.14571e-19)
(-1.59402 3.59251 -5.56263e-20)
(-1.59642 3.59728 -1.74688e-18)
(-1.59874 3.60192 3.37575e-18)
(-1.60097 3.60646 -1.63192e-18)
(-1.60312 3.61088 -1.56446e-18)
(-1.6052 3.61519 -2.90476e-20)
(-1.60721 3.61939 1.43953e-18)
(-1.60915 3.62349 2.23321e-20)
(-1.61102 3.62748 2.16168e-20)
(-1.61283 3.63137 0)
(-1.61458 3.63516 -2.02382e-20)
(-1.61626 3.63885 0)
(-1.61789 3.64244 -1.89416e-20)
(-1.61947 3.64593 1.20809e-18)
(-1.62099 3.64932 -2.26858e-18)
(-1.62245 3.65261 1.09027e-18)
(-1.62387 3.65581 1.05898e-18)
(-1.62523 3.65891 -1.02823e-18)
(-1.62655 3.66193 7.75317e-21)
(-1.62782 3.66484 -7.60524e-21)
(-1.59782 3.50925 1.42133e-18)
(-1.60181 3.51574 0)
(-1.60561 3.522 -1.27873e-18)
(-1.60926 3.52805 1.12339e-18)
(-1.61274 3.53391 -1.37221e-18)
(-1.61608 3.53958 -4.28608e-20)
(-1.61928 3.5451 1.19346e-18)
(-1.62235 3.55046 -1.12984e-18)
(-1.6253 3.55567 9.97622e-19)
(-1.62813 3.56075 -1.198e-18)
(-1.63086 3.5657 9.43509e-19)
(-1.63348 3.57053 -8.80106e-19)
(-1.636 3.57524 1.0099e-18)
(-1.63843 3.57984 -5.82575e-20)
(-1.64077 3.58432 8.85202e-19)
(-1.64303 3.5887 -8.38662e-19)
(-1.64521 3.59298 2.64809e-20)
(-1.64731 3.59715 0)
(-1.64934 3.60122 0)
(-1.6513 3.60518 0)
(-1.65319 3.60906 0)
(-1.65502 3.61283 1.44889e-18)
(-1.65679 3.61651 -1.35773e-18)
(-1.6585 3.62009 0)
(-1.66015 3.62358 -1.28814e-18)
(-1.66174 3.62697 -3.64735e-20)
(-1.66328 3.63027 1.21585e-18)
(-1.66477 3.63348 9.16975e-21)
(-1.6662 3.6366 -8.86127e-21)
(-1.66759 3.63962 1.10265e-18)
(-1.66892 3.64256 -2.11939e-18)
(-1.67021 3.64541 1.04986e-18)
(-1.63789 3.4945 1.7722e-19)
(-1.64196 3.5008 -1.60286e-18)
(-1.64585 3.50687 1.42249e-18)
(-1.64956 3.51273 -1.36657e-18)
(-1.65312 3.51838 1.36371e-18)
(-1.65651 3.52386 0)
(-1.65976 3.52917 -1.55298e-19)
(-1.66288 3.53433 1.30383e-18)
(-1.66587 3.53934 -3.75515e-20)
(-1.66874 3.54423 -2.2101e-18)
(-1.67149 3.54899 -3.01527e-20)
(-1.67414 3.55364 1.0596e-18)
(-1.67669 3.55817 -6.5041e-20)
(-1.67914 3.56259 1.01971e-18)
(-1.68151 3.56691 -9.65319e-19)
(-1.68379 3.57113 0)
(-1.68599 3.57525 -9.52031e-19)
(-1.68811 3.57928 -4.45181e-20)