/*--------------------------------*- C++ -*----------------------------------*\
  =========                 |
  \\      /  F ield         | OpenFOAM: The Open Source CFD Toolbox
   \\    /   O peration     | Website:  https://openfoam.org
    \\  /    A nd           | Version:  10
     \\/     M anipulation  |
\*---------------------------------------------------------------------------*/
FoamFile
{
    format      ascii;
    class       volScalarField;
    location    "25000";
    object      Co;
}
// * * * * * * * * * * * * * * * * * * * * * * * * * * * * * * * * * * * * * //

dimensions      [0 0 0 0 0 0 0];

internalField   nonuniform List<scalar> 
17969
(
74.3929
43.0541
33.3572
26.318
23.8308
23.6633
34.3206
55.6936
90.2978
133.327
183.646
238.048
292.141
341.691
383.806
417.176
442.018
459.378
470.559
476.849
479.33
478.905
476.305
472.11
466.765
460.599
453.85
446.686
439.224
431.545
423.707
415.752
407.71
399.602
391.444
383.248
375.024
366.779
358.518
350.247
341.968
333.685
325.402
317.12
308.842
300.571
292.309
284.057
275.818
267.594
259.387
251.198
243.03
234.884
226.762
218.666
210.597
202.556
194.546
186.567
178.62
170.708
162.831
154.99
147.187
139.422
131.697
124.012
116.37
108.77
101.215
93.7045
86.2405
78.8238
73.2807
69.6445
66.1955
63.5218
67.0909
70.6133
73.9669
77.1648
80.2205
83.1478
85.9576
88.6565
91.248
93.7344
96.119
98.4065
100.602
102.712
104.739
106.689
108.565
110.37
112.111
113.791
115.415
116.989
75.9814
43.2904
36.8963
29.5967
25.2507
24.464
25.175
30.5648
45.2937
70.8962
105.55
147.787
196.296
248.211
299.848
347.59
388.816
422.214
447.673
465.941
478.103
485.333
488.631
488.828
486.638
482.643
477.311
471.004
463.995
456.483
448.611
440.479
432.16
423.707
415.155
406.533
397.861
389.154
380.423
371.677
362.922
354.164
345.406
336.654
327.908
319.173
310.451
301.743
293.052
284.379
275.727
267.097
258.49
249.909
241.355
232.83
224.334
215.869
207.438
199.04
190.677
182.351
174.063
165.813
157.604
149.436
141.311
133.229
125.193
117.202
109.26
101.367
93.5236
85.7325
79.9848
76.3075
72.8182
69.5036
72.1599
75.7308
79.1281
82.3649
85.4554
88.4137
91.2506
93.9744
96.5922
99.1075
101.523
103.84
106.061
108.191
110.237
112.203
114.093
115.911
117.664
119.356
120.994
122.581
77.4211
42.6682
38.8409
33.1769
28.2461
26.3003
26.4818
27.6562
29.8749
39.7109
55.0039
81.9873
115.519
155.796
201.706
250.856
300.121
346.364
387.091
420.85
447.189
466.595
479.989
488.38
492.7
493.744
492.2
488.642
483.549
477.31
470.228
462.535
454.401
445.95
437.27
428.427
419.468
410.427
401.328
392.192
383.031
373.857
364.678
355.499
346.327
337.165
328.016
318.883
309.769
300.676
291.606
282.56
273.541
264.549
255.587
246.656
237.756
228.89
220.059
211.265
202.507
193.788
185.109
176.471
167.875
159.323
150.816
142.354
133.941
125.576
117.262
109.001
100.793
92.6403
86.6976
82.9853
79.4608
76.1116
77.0297
80.6453
84.0815
87.3523
90.4725
93.4548
96.3087
99.0421
101.664
104.182
106.603
108.932
111.166
113.309
115.362
117.333
119.225
121.044
122.797
124.488
126.125
127.713
78.8513
41.8105
40.1599
36.5715
31.7038
28.217
27.5624
28.3219
29.7836
31.9583
35.1967
47.0137
63.4099
89.3432
121.047
158.757
201.661
247.862
294.739
339.526
379.788
413.909
441.229
461.913
476.659
486.338
491.845
493.925
493.226
490.316
485.676
479.709
472.746
465.045
456.804
448.172
439.257
430.138
420.873
411.506
402.069
392.585
383.071
373.54
364.004
354.47
344.943
335.429
325.932
316.455
307.001
297.571
288.169
278.796
269.453
260.142
250.865
241.622
232.416
223.248
214.118
205.028
195.98
186.974
178.012
169.095
160.225
151.402
142.629
133.907
125.237
116.622
108.063
99.562
93.4339
89.6932
86.1391
82.7595
81.71
85.364
88.8313
92.128
95.2699
98.269
101.133
103.871
106.489
108.996
111.401
113.713
115.936
118.072
120.121
122.084
123.965
125.772
127.511
129.188
130.811
132.385
133.918
135.415
136.88
138.318
80.2432
40.7078
40.6478
39.0764
36.0475
32.1631
28.7618
27.8574
28.8128
30.3107
32.3407
34.9353
39.9078
51.642
68.4954
93.1464
122.796
157.79
197.632
240.88
285.348
328.548
368.189
402.572
430.802
452.718
468.806
479.835
486.6
489.817
490.102
488.005
483.999
478.489
471.82
464.276
456.079
447.401
438.371
429.085
419.615
410.014
400.321
390.566
380.771
370.952
361.122
351.292
341.468
331.657
321.863
312.091
302.343
292.623
282.932
273.273
263.647
254.056
244.502
234.986
225.509
216.072
206.678
197.326
188.019
178.759
169.545
160.38
151.265
142.203
133.194
124.241
115.345
106.509
100.206
96.4445
92.867
89.4622
86.789
89.8946
93.3859
96.7012
99.8569
102.864
105.73
108.463
111.071
113.561
115.941
118.219
120.406
122.507
124.526
126.463
128.318
130.096
131.804
133.451
135.044
136.59
138.095
139.567
141.009
142.428
81.6645
39.5164
40.2939
40.3164
38.9041
36.7297
33.8048
30.0408
27.6794
27.9455
29.254
31.021
33.2929
36.1348
42.2967
53.8995
70.7641
94.1066
121.741
154.119
191.017
231.361
273.343
314.79
353.588
387.987
416.88
439.893
457.262
469.596
477.608
481.998
483.343
482.158
478.908
473.993
467.764
460.519
452.5
443.9
434.869
425.52
415.938
406.187
396.317
386.363
376.354
366.309
356.245
346.174
336.105
326.046
316.004
305.982
295.984
286.015
276.076
266.169
256.298
246.463
236.667
226.91
217.195
207.522
197.894
188.311
178.776
169.289
159.853
150.468
141.137
131.863
122.646
113.489
107.023
103.249
99.6555
96.2323
92.9683
94.2438
97.7524
101.079
104.24
107.245
110.104
112.822
115.409
117.871
120.217
122.454
124.592
126.639
128.602
130.487
132.294
134.026
135.688
137.288
138.836
140.338
141.8
143.231
144.635
146.019
83.1631
38.3919
39.4162
40.399
40.1103
39.2331
37.7889
35.7126
32.9085
29.2434
26.991
27.3858
28.8207
30.7412
33.1963
36.2327
43.1023
54.5076
71.0181
93.0968
118.855
148.817
182.933
220.439
259.894
299.438
337.106
371.187
400.463
424.346
442.815
456.324
465.516
471.036
473.437
473.205
470.785
466.564
460.888
454.059
446.334
437.923
428.994
419.676
410.069
400.249
390.274
380.189
370.027
359.814
349.57
339.309
329.044
318.784
308.536
298.306
288.098
277.917
267.766
257.648
247.565
237.519
227.512
217.546
207.622
197.743
187.909
178.123
168.385
158.699
149.065
139.487
129.965
120.504
113.886
110.11
106.511
103.077
99.8001
98.4145
101.932
105.259
108.416
111.409
114.248
116.94
119.493
121.915
124.214
126.398
128.477
130.46
132.355
134.17
135.909
137.576
139.174
140.712
142.197
143.638
145.041
146.413
147.761
149.092
150.409
84.7639
37.4461
38.4503
39.8924
40.1946
40.0794
39.5845
38.6632
37.2483
35.2435
32.51
28.8689
26.3817
26.5932
28.1181
30.1469
32.7197
35.8702
43.0048
54.1342
70.0151
90.9211
114.99
142.728
174.234
209.006
245.913
283.38
319.641
353.068
382.382
406.808
426.151
440.68
450.927
457.479
460.89
461.603
460.034
456.556
451.503
445.176
437.837
429.709
420.972
411.77
402.217
392.401
382.389
372.236
361.98
351.653
341.278
330.875
320.458
310.038
299.624
289.224
278.843
268.486
258.156
247.858
237.594
227.366
217.177
207.029
196.924
186.863
176.849
166.884
156.968
147.106
137.298
127.548
120.794
117.028
113.431
109.996
106.714
103.745
105.918
109.238
112.378
115.348
118.155
120.808
123.314
125.682
127.921
130.041
132.05
133.96
135.778
137.515
139.176
140.765
142.285
143.744
145.15
146.509
147.831
149.124
150.395
151.651
152.899
154.143
155.388
86.4615
36.6754
37.6015
39.2412
39.7643
39.9634
39.9182
39.6087
38.9959
38.0203
36.5937
34.5884
31.8415
28.1798
25.8171
26.1817
27.7553
29.8326
32.4475
35.6247
42.6574
53.4275
68.5232
88.325
110.833
136.519
165.58
197.721
232.075
267.336
301.956
334.387
363.352
387.989
407.926
423.246
434.366
441.826
446.145
447.745
447.006
444.284
439.894
434.127
427.245
419.474
411.005
401.995
392.568
382.823
372.838
362.674
352.379
341.988
331.531
321.03
310.502
299.962
289.419
278.883
268.362
257.859
247.382
236.933
226.515
216.133
205.788
195.482
185.219
175
164.827
154.703
144.63
134.612
127.737
123.992
120.41
116.982
113.704
110.567
109.701
113.002
116.116
119.05
121.814
124.416
126.865
129.171
131.343
133.391
135.325
137.155
138.888
140.534
142.101
143.594
145.019
146.379
147.683
148.937
150.154
151.343
152.513
153.672
154.828
155.987
157.153
158.329
88.2507
36.0519
36.9165
38.6431
39.191
39.4282
39.4876
39.3815
39.0978
38.6077
37.864
36.7954
35.2977
33.2349
30.4526
26.88
25.3905
26.5054
28.0683
30.1206
32.6921
35.8009
42.4914
52.8489
67.0909
85.84
106.897
130.683
157.456
187.079
218.907
251.858
284.595
315.711
343.968
368.455
388.654
404.504
416.302
424.51
429.605
432.001
432.04
430.055
426.336
421.159
414.778
407.421
399.282
390.526
381.288
371.675
361.775
351.656
341.372
330.966
320.47
309.913
299.313
288.688
278.051
267.412
256.781
246.163
235.565
224.991
214.445
203.932
193.453
183.011
172.609
162.251
151.938
141.674
134.697
130.988
127.432
124.024
120.758
117.631
114.854
116.537
119.614
122.503
125.215
127.759
130.147
132.387
134.489
136.462
138.314
140.054
141.689
143.225
144.671
146.036
147.329
148.558
149.733
150.859
151.948
153.012
154.061
155.105
156.153
157.209
158.281
159.371
160.483
161.619
90.1322
35.575
36.4305
38.1852
38.6777
38.8249
38.8057
38.6643
38.4124
38.0437
37.5386
36.8638
35.9674
34.7712
33.1689
31.0344
28.2253
26.4017
26.5837
27.644
29.1302
31.0847
33.5373
36.504
42.7327
52.6423
66.0304
83.7776
103.486
125.521
150.171
177.394
206.723
237.29
267.966
297.504
324.717
348.68
368.804
384.902
397.143
405.906
411.626
414.705
415.445
414.145
411.076
406.493
400.638
393.731
385.97
377.522
368.527
359.101
349.338
339.314
329.089
318.711
308.219
297.644
287.009
276.334
265.634
254.923
244.211
233.504
222.811
212.136
201.484
190.86
180.266
169.706
159.183
148.702
141.646
137.991
134.476
131.098
127.855
124.747
121.768
120.37
122.853
125.691
128.347
130.832
133.154
135.322
137.344
139.226
140.975
142.6
144.108
145.509
146.811
148.025
149.162
150.234
151.253
152.228
153.168
154.088
154.999
155.912
156.835
157.776
158.741
159.733
160.756
161.812
162.9
164.021
165.174
166.359
92.1072
35.2587
36.2226
37.9939
38.4088
38.4212
38.2495
37.9643
37.5955
37.1525
36.6323
36.023
35.3031
34.4377
33.3731
32.0317
30.314
28.4077
27.5798
27.9057
28.5206
29.482
30.8427
32.6468
34.9256
37.6957
43.4201
52.8592
65.4385
82.2393
100.725
121.185
143.876
168.825
195.721
223.889
252.384
280.112
305.978
329.078
348.794
364.832
377.249
386.352
392.529
396.15
397.486
396.802
394.341
390.336
385.011
378.578
371.227
363.127
354.42
345.227
335.648
325.763
315.641
305.333
294.884
284.328
273.692
263
252.271
241.516
230.749
219.979
209.214
198.459
187.72
177.002
166.309
155.647
148.541
144.961
141.506
138.175
134.966
131.885
128.933
126.087
125.808
128.592
131.188
133.604
135.848
137.925
139.842
141.608
143.228
144.713
146.071
147.314
148.453
149.5
150.469
151.371
152.219
153.024
153.798
154.554
155.309
156.075
156.86
157.673
158.519
159.404
160.329
161.296
162.305
163.356
164.447
165.576
94.1748
35.0935
36.2795
38.0984
38.4488
38.33
37.999
37.5471
37.0166
36.4263
35.7832
35.0866
34.3299
33.4998
32.5744
31.5187
30.7585
30.4368
30.2389
30.1514
30.217
30.4849
31.0105
31.8515
33.0624
34.6901
36.7684
39.3167
44.5599
53.5216
65.349
81.2756
98.6527
117.681
138.572
161.398
185.971
211.767
238.001
263.74
288.01
309.949
328.933
344.599
356.926
366.151
372.605
376.617
378.43
378.274
376.359
372.896
368.087
362.13
355.206
347.479
339.093
330.169
320.811
311.106
301.125
290.927
280.557
270.058
259.458
248.78
238.048
227.278
216.483
205.673
194.855
184.037
173.228
162.432
155.313
151.837
148.466
145.201
142.044
139.001
136.082
133.279
130.666
131.154
133.675
136.003
138.146
140.111
141.904
143.532
145.005
146.332
147.524
148.593
149.552
150.416
151.201
151.919
152.585
153.21
153.805
154.385
154.968
155.571
156.206
156.88
157.599
158.368
159.189
160.061
160.986
161.962
162.987
164.058
96.3395
35.0985
36.599
38.4956
38.8072
38.5857
38.1234
37.5278
36.8491
36.1112
35.6361
35.4493
35.2579
35.0397
34.7965
34.5314
34.25
33.9619
33.6825
33.4337
33.2433
33.1438
33.1739
33.3795
33.8136
34.5326
35.5916
37.0392
38.9119
41.2306
46.0278
54.52
65.6807
80.7959
97.1584
114.885
134.139
155.016
177.392
200.876
224.835
248.487
270.983
291.513
309.471
324.475
336.451
345.571
352.115
356.363
358.525
358.797
357.353
354.376
350.049
344.55
338.051
330.708
322.661
314.034
304.931
295.444
285.642
275.59
265.335
254.92
244.387
233.759
223.055
212.294
201.49
190.656
179.803
168.94
161.86
158.522
155.267
152.095
149.01
146.022
143.144
140.387
137.704
135.473
135.718
137.941
139.965
141.8
143.452
144.93
146.241
147.397
148.408
149.29
150.055
150.72
151.304
151.823
152.294
152.73
153.143
153.543
153.948
154.381
154.858
155.387
155.976
156.626
157.341
158.12
158.962
159.865
160.826
161.841
98.5965
35.2705
37.1799
39.183
39.4815
39.193
38.6522
38.3926
38.4572
38.4812
38.4706
38.4277
38.3532
38.247
38.109
37.9397
37.7402
37.5135
37.2648
37.0033
36.7436
36.506
36.3152
36.2002
36.1955
36.3432
36.6924
37.297
38.2109
39.4827
41.1504
43.2368
47.6454
55.6807
66.2597
80.6086
96.0375
112.606
130.411
149.518
169.852
191.14
212.874
234.395
254.98
273.904
290.595
304.682
316.061
324.859
331.308
335.646
338.03
338.615
337.547
334.98
331.076
325.998
319.903
312.939
305.24
296.924
288.099
278.86
269.277
259.407
249.306
239.012
228.573
218.015
207.359
196.626
185.835
174.998
168.025
164.878
161.78
158.736
155.752
152.84
150.017
147.305
144.687
142.099
139.797
139.623
141.213
142.905
144.404
145.718
146.856
147.829
148.65
149.331
149.891
150.346
150.716
151.024
151.288
151.526
151.751
151.974
152.205
152.467
152.784
153.169
153.627
154.161
154.772
155.459
156.221
157.053
157.952
158.914
159.934
100.942
35.6071
38.0148
40.1488
40.4586
40.4062
40.5524
40.7777
40.9384
41.054
41.133
41.1792
41.1937
41.1766
41.1276
41.046
40.9313
40.7838
40.6045
40.396
40.1635
39.9155
39.666
39.4336
39.2403
39.1117
39.0784
39.178
39.4553
39.9602
40.7442
41.855
43.3313
45.1989
49.2992
56.9038
66.9707
80.584
95.1591
110.683
127.185
144.692
163.163
182.39
201.982
221.389
240
257.185
272.432
285.391
295.961
304.252
310.451
314.73
317.202
317.972
317.163
314.908
311.353
306.643
300.921
294.321
286.971
278.98
270.445
261.463
252.114
242.452
232.534
222.402
212.083
201.62
191.039
180.359
173.592
170.703
167.822
164.955
162.114
159.31
156.563
153.904
151.349
148.845
146.334
143.792
143.149
143.32
144.656
145.798
146.754
147.536
148.157
148.633
148.979
149.217
149.368
149.457
149.509
149.544
149.58
149.629
149.7
149.804
149.97
150.218
150.553
150.977
151.491
152.093
152.78
153.548
154.392
155.307
156.288
103.37
36.0992
39.0825
41.3653
41.9241
42.3208
42.731
43.0176
43.2334
43.4021
43.5344
43.6353
43.7071
43.7503
43.7646
43.7493
43.7033
43.6259
43.5164
43.3749
43.2023
43.0011
42.7762
42.5359
42.2931
42.0648
41.8707
41.7334
41.6797
41.743
41.9636
42.3871
43.0617
44.0336
45.3418
47.014
50.8689
58.0493
67.6518
80.5612
94.3301
108.891
124.225
140.315
157.104
174.432
191.997
209.354
225.983
241.354
255.029
266.706
276.322
283.98
289.81
293.885
296.28
297.087
296.413
294.373
291.091
286.694
281.307
275.049
268.035
260.37
252.141
243.433
234.323
224.884
215.166
205.214
195.045
184.7
178.271
175.735
173.15
170.53
167.889
165.242
162.61
160.026
157.532
155.118
152.713
150.269
147.768
145.854
145.205
145.054
145.824
146.412
146.831
147.097
147.229
147.249
147.181
147.054
146.896
146.734
146.588
146.475
146.404
146.379
146.414
146.537
146.761
147.087
147.516
148.044
148.668
149.382
150.182
151.06
152.011
105.873
36.7343
40.3603
42.8012
43.6532
44.3115
44.7489
45.0545
45.2873
45.4737
45.6262
45.751
45.8508
45.9268
45.9788
46.0062
46.0079
45.9828
45.9296
45.8473
45.735
45.5929
45.4217
45.2238
45.0039
44.7697
44.5332
44.3101
44.1181
43.9769
43.9103
43.9478
44.1255
44.4846
45.0697
45.924
47.0851
48.5799
52.2362
59.0114
68.201
80.4306
93.4133
107.076
121.345
136.158
151.436
167.037
182.714
198.117
212.819
226.365
238.395
248.724
257.337
264.27
269.568
273.278
275.461
276.188
275.548
273.634
270.552
266.408
261.311
255.366
248.676
241.335
233.423
225.005
216.151
206.943
197.423
187.633
181.709
179.644
177.46
175.18
172.82
170.401
167.944
165.483
163.067
160.734
158.447
156.132
153.748
151.281
148.724
146.731
145.73
144.575
144.566
144.628
144.553
144.365
144.091
143.765
143.416
143.076
142.769
142.511
142.312
142.176
142.108
142.129
142.258
142.502
142.862
143.332
143.908
144.585
145.355
146.211
147.146
148.154
108.442
37.4901
41.8151
44.4492
45.4305
46.132
46.5533
46.8406
47.0571
47.2309
47.3756
47.4978
47.6008
47.686
47.7534
47.8025
47.8323
47.8414
47.8282
47.7913
47.729
47.6401
47.5238
47.3799
47.2091
47.0136
46.7978
46.5692
46.3388
46.1212
45.9323
45.7899
45.715
45.7339
45.8788
46.1868
46.698
47.452
48.4842
49.8212
53.3291
59.7176
68.5092
80.0722
92.2905
105.083
118.353
132.003
145.923
159.967
173.923
187.496
200.332
212.093
222.534
231.547
239.109
245.217
249.881
253.128
255
255.553
254.854
252.983
250.024
246.068
241.205
235.526
229.119
222.061
214.425
206.284
197.696
188.722
183.502
182.053
180.401
178.577
176.604
174.506
172.311
170.048
167.765
165.522
163.345
161.176
158.945
156.619
154.184
151.634
148.961
146.156
144.546
143.01
141.313
140.502
140.049
139.553
139.049
138.563
138.117
137.729
137.414
137.179
137.03
136.978
137.04
137.228
137.542
137.979
138.532
139.193
139.955
140.808
141.747
142.762
111.069
38.3398
43.3992
46.1698
47.1218
47.7394
48.1052
48.3415
48.5131
48.6483
48.7615
48.8592
48.945
49.0202
49.085
49.1388
49.1805
49.2086
49.2212
49.2165
49.1923
49.1466
49.0776
48.9837
48.8639
48.7179
48.5465
48.3518
48.1382
47.9128
47.6863
47.4721
47.2852
47.1414
47.0598
47.0639
47.1824
47.4484
47.8978
48.5668
49.4878
50.6863
54.0733
60.0877
68.4999
79.4015
90.8662
102.794
115.089
127.635
140.3
152.924
165.304
177.192
188.302
198.412
207.39
215.163
221.686
226.937
230.915
233.633
235.121
235.422
234.588
232.685
229.779
225.946
221.263
215.805
209.641
202.839
195.466
187.578
183.274
182.595
181.619
180.384
178.922
177.26
175.43
173.463
171.402
169.307
167.244
165.221
163.17
161.026
158.761
156.361
153.82
151.128
148.273
145.243
142.02
139.658
137.589
135.37
133.746
133.138
132.581
132.096
131.697
131.395
131.196
131.106
131.136
131.3
131.601
132.036
132.594
133.267
134.047
134.923
135.887
136.932
113.745
39.2566
45.0653
48.0035
48.7685
49.0964
49.3765
49.5344
49.6353
49.7103
49.7722
49.8275
49.8795
49.9295
49.9776
50.023
50.0645
50.1003
50.1281
50.1453
50.1494
50.1375
50.1071
50.0558
49.9814
49.8824
49.7576
49.6071
49.4317
49.2338
49.018
48.7915
48.5647
48.3504
48.1625
48.0158
47.9274
47.9186
48.0149
48.246
48.6437
49.2399
50.0632
51.1363
54.4247
60.0765
68.1286
78.3639
89.0746
100.153
111.484
122.949
134.418
145.724
156.653
166.985
176.55
185.218
192.897
199.522
205.052
209.461
212.744
214.909
215.977
215.981
214.965
212.978
210.079
206.328
201.785
196.508
190.554
183.979
180.771
180.995
180.83
180.318
179.494
178.392
177.044
175.485
173.755
171.906
170.01
168.133
166.269
164.342
162.292
160.095
157.737
155.21
152.5
149.595
146.478
143.13
139.525
135.639
132.214
129.659
126.966
125.604
125.17
124.85
124.646
124.562
124.602
124.778
125.101
125.566
126.162
126.878
127.704
128.63
129.647
130.745
116.462
40.2069
46.7663
49.8768
50.7795
50.9908
50.8996
50.6357
50.4422
50.4095
50.4034
50.4012
50.4058
50.4184
50.439
50.467
50.5002
50.5362
50.572
50.6044
50.6299
50.6451
50.6467
50.6313
50.596
50.5382
50.456
50.348
50.2135
50.0529
49.8677
49.6609
49.4374
49.2047
48.9732
48.7552
48.5638
48.4126
48.3173
48.2971
48.3748
48.5762
48.9289
49.4607
50.1959
51.1542
54.3656
59.6627
67.3842
76.9711
86.9341
97.172
107.574
118.012
128.325
138.337
147.886
156.829
165.051
172.46
178.985
184.571
189.185
192.804
195.422
197.047
197.696
197.397
196.185
194.103
191.193
187.501
183.07
177.945
175.946
177.157
177.899
178.215
178.142
177.713
176.963
175.926
174.641
173.155
171.528
169.84
168.155
166.454
164.659
162.714
160.595
158.287
155.778
153.054
150.096
146.883
143.391
139.596
135.473
131.005
126.185
122.512
119.57
117.579
117.422
117.394
117.491
117.719
118.091
118.613
119.275
120.061
120.957
121.95
123.028
124.184
119.21
41.1475
48.4314
51.7206
52.8164
53.2357
53.3535
53.292
53.101
52.8036
52.4117
51.9299
51.3573
50.7597
50.4747
50.4819
50.5034
50.5362
50.5767
50.6208
50.6644
50.703
50.7323
50.7484
50.7475
50.7262
50.6817
50.612
50.5156
50.3917
50.2406
50.0634
49.8624
49.6412
49.4054
49.1629
48.9238
48.7001
48.5041
48.3482
48.2466
48.2165
48.2778
48.4529
48.7654
49.2385
49.8926
50.7436
53.9066
58.8633
66.2974
75.2568
84.5057
93.9354
103.418
112.811
121.972
130.768
139.079
146.804
153.854
160.158
165.66
170.318
174.104
177.005
179.018
180.15
180.42
179.852
178.471
176.307
173.389
169.747
168.984
171.196
172.884
174.087
174.838
175.169
175.111
174.696
173.961
172.947
171.709
170.31
168.836
167.344
165.808
164.153
162.324
160.292
158.038
155.547
152.798
149.772
146.445
142.792
138.789
134.416
129.664
124.535
119.036
114.272
111.165
109.638
109.841
110.169
110.625
111.22
111.954
112.817
113.79
114.856
116.003
117.222
121.981
42.0497
49.993
53.4761
54.8006
55.4555
55.8088
55.9781
56.0105
55.9249
55.7309
55.4332
55.0361
54.5389
53.9386
53.2331
52.4208
51.4999
50.6001
50.2232
50.2838
50.3444
50.3999
50.4453
50.4761
50.4881
50.4781
50.4432
50.3814
50.2915
50.173
50.0262
49.8523
49.6534
49.4325
49.194
48.9439
48.6904
48.4433
48.214
48.0138
47.8538
47.7468
47.7079
47.7543
47.9052
48.1804
48.5989
49.1775
49.929
53.085
57.7191
64.9161
73.2646
81.7993
90.4036
98.955
107.333
115.425
123.127
130.348
137.004
143.026
148.36
152.962
156.803
159.865
162.144
163.641
164.368
164.337
163.562
162.058
159.841
160.261
163.419
166.029
168.121
169.72
170.853
171.545
171.823
171.72
171.271
170.521
169.527
168.358
167.096
165.793
164.422
162.911
161.2
159.253
157.047
154.56
151.772
148.66
145.2
141.366
137.138
132.504
127.465
122.029
116.214
110.042
105.261
102.046
102.144
102.734
103.441
104.267
105.213
106.27
107.422
108.657
109.968
124.766
42.9002
51.4394
55.1423
56.7238
57.6391
58.2432
58.6527
58.9177
59.0604
59.0895
59.0062
58.8117
58.506
58.0874
57.5523
56.8989
56.1254
55.2307
54.2141
53.0759
51.8171
50.4398
49.7635
49.8196
49.8641
49.8869
49.8849
49.8556
49.7975
49.7097
49.5922
49.4457
49.2715
49.0717
48.8492
48.6076
48.3518
48.0881
47.8246
47.5709
47.3373
47.134
46.9708
46.8591
46.8119
46.8442
46.9722
47.2125
47.581
48.0915
48.7552
51.9485
56.2752
63.2444
70.9664
78.7732
86.5607
94.2266
101.674
108.81
115.546
121.804
127.522
132.646
137.136
140.965
144.116
146.586
148.372
149.479
149.91
149.669
148.755
150.248
154.249
157.706
160.636
163.059
164.99
166.448
167.454
168.032
168.212
168.029
167.532
166.776
165.831
164.772
163.644
162.425
161.048
159.446
157.572
155.397
152.897
150.048
146.826
143.206
139.168
134.701
129.802
124.478
118.745
112.627
106.152
99.3542
95.7559
94.49
95.3661
96.3459
97.4282
98.6108
99.8875
101.25
102.692
127.556
43.6423
52.6972
56.6449
58.5018
59.7072
60.5958
61.2827
61.8141
62.2105
62.4815
62.6299
62.6557
62.558
62.3358
61.9865
61.5074
60.8964
60.1519
59.2734
58.2611
57.1163
55.8411
54.4389
52.9136
51.2702
49.6892
48.978
48.981
48.954
48.8962
48.8072
48.6877
48.5387
48.3619
48.1594
47.934
47.689
47.4286
47.1578
46.8828
46.6115
46.353
46.1165
45.9108
45.7448
45.6283
45.573
45.5917
45.6984
45.9074
46.2322
46.6848
47.2754
50.5233
54.541
61.2558
68.3482
75.4516
82.4832
89.3554
95.9748
102.26
108.142
113.56
118.466
122.824
126.611
129.818
132.44
134.473
135.915
136.76
136.997
139.424
144.138
148.331
152.015
155.197
157.885
160.089
161.82
163.095
163.936
164.369
164.433
164.173
163.645
162.911
162.036
161.059
159.968
158.702
157.187
155.368
153.204
150.665
147.725
144.363
140.563
136.313
131.61
126.457
120.87
114.868
108.479
101.731
94.6638
89.3917
87.2162
88.405
89.6853
91.0537
92.5069
94.0411
95.6514
130.332
44.2319
53.7748
58.0135
60.1762
61.692
62.88
63.8532
64.6602
65.3224
65.8489
66.2432
66.5052
66.6335
66.6255
66.4785
66.1897
65.7563
65.1767
64.4501
63.5765
62.5573
61.3952
60.0936
58.6574
57.092
55.4037
53.5992
51.6858
49.6708
48.1975
47.7151
47.6232
47.5
47.3472
47.1666
46.9606
46.7319
46.4835
46.2191
45.9428
45.6597
45.3759
45.0987
44.8365
44.5975
44.3894
44.2201
44.0984
44.0347
44.0405
44.1279
44.3091
44.5957
44.9975
45.522
48.8034
52.5046
58.9587
65.464
71.9453
78.3115
84.4805
90.3766
95.929
101.079
105.782
110.008
113.745
116.993
119.751
122.016
123.77
124.994
128.206
133.496
138.307
142.64
146.495
149.871
152.77
155.195
157.153
158.657
159.726
160.389
160.68
160.644
160.331
159.795
159.087
158.236
157.239
156.044
154.58
152.783
150.606
148.011
144.972
141.473
137.502
133.055
128.135
122.755
116.931
110.69
104.057
97.0657
89.7526
83.2656
80.6443
82.1582
83.7511
85.4187
87.1575
88.9642
133.075
44.5516
54.5434
59.1127
61.6139
63.4638
64.976
66.2615
67.369
68.3202
69.1247
69.786
70.304
70.6767
70.9011
70.974
70.8918
70.6518
70.2517
69.6904
68.9682
68.0865
67.048
65.8569
64.5183
63.0385
61.4245
59.684
57.8251
55.856
53.7852
51.6206
49.3702
47.1754
46.0703
45.9134
45.7289
45.5193
45.2872
45.0355
44.7674
44.4866
44.197
43.9036
43.6122
43.3297
43.0637
42.8214
42.6096
42.4356
42.3074
42.2341
42.2257
42.292
42.4428
42.6861
43.0269
43.4658
46.7394
50.4318
56.4043
62.3889
68.3151
74.1059
79.6836
84.9761
89.9208
94.4708
98.5998
102.306
105.609
108.521
111.02
113.073
116.928
122.665
127.973
132.847
137.28
141.263
144.79
147.856
150.46
152.607
154.307
155.58
156.452
156.957
157.137
157.035
156.695
156.151
155.418
154.491
153.328
151.875
150.074
147.869
145.212
142.076
138.444
134.31
129.676
124.552
118.954
112.906
106.435
99.5705
92.3452
84.794
77.5557
74.9316
76.7633
78.6619
80.6231
82.6436
135.804
44.5967
54.9608
59.9003
62.7769
64.9937
66.8572
68.4786
69.908
71.1684
72.27
73.2166
74.0081
74.6424
75.1159
75.4249
75.5653
75.5336
75.3274
74.9451
74.3868
73.654
72.7497
71.6784
70.4459
69.0592
67.5262
65.8553
64.0556
62.1363
60.1067
57.976
55.7531
53.4464
51.064
48.6131
46.1004
44.4143
43.8773
43.6417
43.3865
43.1146
42.8292
42.5336
42.2318
41.9285
41.6292
41.3403
41.0686
40.8206
40.6023
40.4201
40.281
40.1921
40.1606
40.1927
40.2928
40.4613
40.6935
41.3238
44.3105
48.1767
53.7138
59.2434
64.6958
70.0017
75.0886
79.8931
84.3607
88.4571
92.1953
95.6154
98.7165
101.458
105.828
111.898
117.596
122.91
127.826
132.331
136.411
140.055
143.254
146.006
148.314
150.188
151.647
152.716
153.428
153.822
153.936
153.796
153.425
152.826
151.978
150.841
149.369
147.512
145.218
142.449
139.177
135.386
131.073
126.242
120.908
115.091
108.817
102.116
95.019
87.559
79.7684
72.2362
70.0466
72.1897
74.3896
76.6413
138.507
44.3707
55.0411
60.3866
63.6651
66.2696
68.5024
70.4766
72.2444
73.8301
75.245
76.493
77.5741
78.4859
79.2244
79.7851
80.1634
80.3551
80.357
80.1673
79.7858
79.2137
78.4544
77.5126
76.3948
75.1087
73.663
72.0673
70.3314
68.4656
66.4803
64.3857
62.1915
59.9074
57.5423
55.1046
52.6021
50.0416
47.4289
44.769
42.5654
41.5734
41.297
41.0061
40.7039
40.3937
40.079
39.7643
39.4549
39.1565
38.8752
38.6166
38.3856
38.1869
38.025
37.9041
37.8272
37.7948
37.8054
37.8581
37.9636
38.9577
41.6817
45.9328
51.1025
56.2517
61.3179
66.2382
70.9457
75.38
79.5128
83.3692
86.9687
90.2835
95.0651
101.375
107.37
113.033
118.348
123.293
127.852
132.006
135.743
139.052
141.929
144.379
146.411
148.044
149.303
150.215
150.819
151.137
151.19
150.979
150.492
149.7
148.566
147.046
145.097
142.676
139.752
136.304
132.32
127.799
122.75
117.188
111.137
104.623
97.6775
90.3336
82.6238
74.5818
67.2028
65.8884
68.3463
70.856
73.4132
141.178
43.822
54.7494
60.5462
64.2516
67.2625
69.8807
72.2228
74.3434
76.2688
78.0112
79.5749
80.9602
82.1642
83.1825
84.0099
84.641
85.0708
85.2954
85.3123
85.1207
84.7218
84.1189
83.317
82.3231
81.1456
79.7941
78.2791
76.6117
74.8032
72.865
70.8085
68.6446
66.3838
64.0362
61.611
59.1171
56.5622
53.9536
51.2974
48.5986
45.8611
43.0875
40.4369
39.0474
38.7372
38.4173
38.0906
37.7607
37.4315
37.1078
36.7946
36.4965
36.2174
35.9606
35.7289
35.5242
35.3477
35.1999
35.0829
35.0045
34.9624
34.9408
36.4658
39.0299
43.9002
48.7928
53.6631
58.4513
63.0973
67.5508
71.7945
75.8238
79.6263
84.7381
91.2137
97.4296
103.366
109.002
114.315
119.281
123.88
128.093
131.906
135.307
138.295
140.874
143.055
144.855
146.296
147.4
148.191
148.688
148.897
148.806
148.388
147.615
146.447
144.845
142.771
140.193
137.087
133.438
129.239
124.495
119.216
113.421
107.133
100.378
93.1888
85.5953
77.6307
69.3291
62.5523
62.5538
65.3255
68.1487
143.823
42.9132
54.052
60.3503
64.508
67.943
70.9614
73.6845
76.1706
78.4482
80.5306
82.4228
84.1252
85.6347
86.9465
88.0548
88.9531
89.6358
90.0979
90.336
90.3485
90.1363
89.7023
89.0517
88.1919
87.1318
85.882
84.4541
82.8602
81.1129
79.225
77.2089
75.0766
72.8399
70.5099
68.0968
65.6105
63.0598
60.4526
57.7964
55.0971
52.3601
49.5892
46.7872
43.9554
41.0932
38.1984
36.4595
35.9856
35.6396
35.2906
34.9419
34.5968
34.2589
33.9312
33.6169
33.3181
33.036
32.7721
32.5291
32.3122
32.1204
31.9398
31.7627
31.6615
33.895
37.5988
42.3044
47.0321
51.7393
56.3831
60.9262
65.3158
69.5336
74.9092
81.4913
87.865
94.0095
99.901
105.514
110.824
115.805
120.436
124.697
128.573
132.057
135.145
137.843
140.162
142.119
143.729
145.005
145.958
146.595
146.917
146.896
146.505
145.71
144.474
142.764
140.547
137.8
134.503
130.649
126.235
121.27
115.765
109.74
103.219
96.2281
88.7958
80.953
72.7315
64.1644
58.4425
60.202
63.2838
146.439
41.608
52.9209
59.7744
64.4079
68.2822
71.7133
74.8288
77.6914
80.332
82.7652
84.9969
87.0276
88.8545
90.4722
91.8746
93.0544
94.0048
94.7197
95.1946
95.4267
95.416
95.1649
94.6784
93.964
93.0314
91.892
90.5584
89.044
87.3627
85.5286
83.5554
81.4566
79.2451
76.933
74.5318
72.0523
69.5043
66.8967
64.2379
61.5347
58.7936
56.0195
53.2165
50.3872
47.5329
44.6535
41.7471
38.81
35.8366
33.7919
33.0468
32.672
32.2949
31.9179
31.544
31.1753
30.8136
30.4612
30.1208
29.7955
29.484
29.1779
28.869
28.5368
28.1623
29.2299
32.133
36.731
41.3948
46.104
50.827
55.4852
60.0414
65.6181
72.255
78.7322
85.0281
91.1176
96.9736
102.568
107.875
112.868
117.524
121.825
125.758
129.316
132.496
135.305
137.752
139.847
141.603
143.022
144.104
144.846
145.235
145.244
144.841
143.993
142.667
140.834
138.469
135.551
132.068
128.016
123.397
118.221
112.5
106.255
99.5079
92.2835
84.6097
76.5157
68.0322
59.1915
55.5863
58.928
149.023
39.8784
51.3325
58.7956
63.9239
68.2491
72.1027
75.6202
78.8689
81.882
84.6756
87.2563
89.6252
91.7795
93.7143
95.423
96.8981
98.1314