/*--------------------------------*- C++ -*----------------------------------*\
  =========                 |
  \\      /  F ield         | OpenFOAM: The Open Source CFD Toolbox
   \\    /   O peration     | Website:  https://openfoam.org
    \\  /    A nd           | Version:  10
     \\/     M anipulation  |
\*---------------------------------------------------------------------------*/
FoamFile
{
    format      ascii;
    class       volScalarField;
    location    "25000";
    object      k;
}
// * * * * * * * * * * * * * * * * * * * * * * * * * * * * * * * * * * * * * //

dimensions      [0 2 -2 0 0 0 0];

internalField   nonuniform List<scalar> 
17969
(
1.746e-05
0.000431338
0.00105957
0.0018337
0.00256544
0.00330237
0.00409661
0.00494301
0.0057969
0.00659649
0.00723853
0.00765718
0.00786405
0.00792487
0.00791868
0.00791451
0.00794418
0.00804773
0.00823651
0.00850547
0.00884107
0.00922683
0.00964707
0.0100885
0.0105408
0.0109963
0.0114495
0.011897
0.0123363
0.0127662
0.013186
0.0135955
0.0139946
0.0143835
0.0147623
0.0151312
0.0154904
0.0158402
0.0161806
0.0165116
0.0168335
0.0171462
0.0174496
0.0177438
0.0180287
0.0183041
0.01857
0.0188263
0.0190728
0.0193094
0.019536
0.0197525
0.0199587
0.0201546
0.0203399
0.0205148
0.020679
0.0208326
0.0209754
0.0211074
0.0212286
0.0213391
0.0214387
0.0215276
0.0216056
0.021673
0.0217297
0.0217759
0.0218116
0.0218369
0.0218522
0.0218576
0.0218536
0.0218409
0.0218208
0.0217957
0.0217683
0.0217414
0.0217165
0.0216963
0.0216832
0.02168
0.0216894
0.0217145
0.0217582
0.021824
0.0219158
0.0220379
0.0221945
0.0223896
0.0226267
0.0229095
0.0232358
0.0236018
0.0240098
0.0244626
0.0249624
0.02551
0.0261051
0.0267464
1.15989e-05
0.000297686
0.00078457
0.00142002
0.00202345
0.00260772
0.00321781
0.00388755
0.00463347
0.00542644
0.00622797
0.00697427
0.00757183
0.0079722
0.00818506
0.00826115
0.00826399
0.00825323
0.00826383
0.00832535
0.00845878
0.00866634
0.00894108
0.00927122
0.00964347
0.0100452
0.0104656
0.010896
0.0113297
0.0117622
0.0121899
0.0126106
0.0130231
0.0134262
0.0138197
0.0142033
0.0145769
0.0149405
0.0152942
0.0156381
0.0159722
0.0162967
0.0166114
0.0169164
0.0172118
0.0174975
0.0177733
0.0180393
0.0182954
0.0185414
0.0187773
0.019003
0.0192184
0.0194234
0.0196179
0.0198018
0.0199751
0.0201377
0.0202896
0.0204307
0.020561
0.0206805
0.0207892
0.0208871
0.0209743
0.0210506
0.0211163
0.0211712
0.0212156
0.0212494
0.0212728
0.0212861
0.0212895
0.0212835
0.0212691
0.0212486
0.0212245
0.0211993
0.0211756
0.0211548
0.0211396
0.0211327
0.0211368
0.0211547
0.0211897
0.0212454
0.0213254
0.0214335
0.021574
0.0217516
0.0219706
0.0222348
0.0225448
0.0228968
0.0232916
0.0237333
0.0242243
0.0247663
0.0253592
0.0260021
6.95725e-06
0.000185525
0.000536647
0.00104543
0.00153639
0.00200442
0.00248117
0.00299323
0.00356287
0.00421181
0.00492923
0.0056879
0.00646553
0.00719028
0.00778252
0.00819915
0.00844235
0.00854939
0.00857278
0.00856462
0.00856505
0.00859303
0.008678
0.008829
0.00904506
0.00931909
0.00964094
0.00999957
0.0103843
0.010786
0.0111969
0.0116114
0.0120249
0.0124344
0.0128377
0.0132332
0.0136199
0.0139973
0.014365
0.0147228
0.0150706
0.0154082
0.0157358
0.0160533
0.0163607
0.0166579
0.0169451
0.017222
0.0174888
0.0177453
0.0179914
0.0182272
0.0184526
0.0186674
0.0188716
0.0190652
0.0192482
0.0194203
0.0195818
0.0197324
0.0198723
0.0200013
0.0201195
0.0202269
0.0203235
0.0204093
0.0204844
0.0205487
0.0206023
0.0206452
0.0206776
0.0206995
0.0207111
0.0207129
0.0207055
0.0206909
0.0206716
0.02065
0.0206286
0.0206086
0.0205927
0.0205833
0.020583
0.0205948
0.0206225
0.0206699
0.020741
0.0208394
0.0209685
0.021132
0.0213346
0.0215817
0.0218764
0.0222156
0.0225981
0.023029
0.0235116
0.0240479
0.0246385
0.0252827
3.82541e-06
0.000104617
0.000330199
0.000708167
0.00108937
0.00145262
0.00181907
0.0022092
0.00264098
0.00313215
0.00369284
0.0043309
0.00502866
0.00576741
0.00653257
0.00725911
0.00787177
0.00832793
0.00862082
0.00877456
0.00883127
0.00883677
0.00883263
0.00884249
0.00889052
0.00899396
0.00915717
0.00937761
0.00964862
0.00996155
0.0103071
0.010676
0.0110604
0.0114533
0.0118496
0.0122451
0.0126368
0.0130227
0.013401
0.0137709
0.0141316
0.0144825
0.0148234
0.0151542
0.0154746
0.0157846
0.0160842
0.0163733
0.0166519
0.0169199
0.0171773
0.0174241
0.0176602
0.0178856
0.0181003
0.0183042
0.0184973
0.0186796
0.0188511
0.0190117
0.0191615
0.0193005
0.0194285
0.0195458
0.0196523
0.0197479
0.0198328
0.0199069
0.0199702
0.0200227
0.0200646
0.0200958
0.0201165
0.020127
0.0201277
0.0201202
0.0201068
0.02009
0.0200723
0.0200547
0.0200395
0.0200291
0.0200258
0.020033
0.0200547
0.0200951
0.0201582
0.0202484
0.0203694
0.0205244
0.0207166
0.0209499
0.0212301
0.0215571
0.0219288
0.0223501
0.0228251
0.0233564
0.023945
0.0245908
0.0252926
0.026048
0.0268537
0.0277056
2.00986e-06
5.57144e-05
0.000186304
0.000443906
0.000723916
0.000990845
0.00126058
0.00154836
0.00186757
0.00223352
0.00265602
0.00314027
0.00369628
0.00433106
0.00502245
0.00574903
0.00650248
0.00723466
0.00787442
0.00837757
0.00872741
0.00893587
0.00903548
0.00906689
0.0090698
0.00907461
0.0090972
0.00916222
0.00927929
0.00945037
0.00967219
0.00993857
0.010242
0.0105744
0.0109279
0.0112954
0.0116707
0.0120489
0.0124264
0.0128001
0.0131679
0.0135284
0.0138804
0.0142232
0.0145561
0.0148789
0.0151913
0.0154931
0.0157843
0.0160646
0.0163341
0.0165927
0.0168404
0.0170772
0.017303
0.0175179
0.0177218
0.0179148
0.0180968
0.0182678
0.018428
0.0185772
0.0187155
0.018843
0.0189596
0.0190654
0.0191604
0.0192446
0.019318
0.0193806
0.0194325
0.0194736
0.019504
0.0195239
0.0195335
0.019534
0.0195277
0.0195168
0.0195038
0.0194901
0.0194773
0.0194675
0.0194632
0.0194679
0.0194856
0.0195204
0.0195768
0.0196595
0.019773
0.0199212
0.0201074
0.0203344
0.0206048
0.0209208
0.0212833
0.0216963
0.0221647
0.0226917
0.023279
0.0239268
0.0246343
0.0253994
0.0262191
0.0270892
1.09763e-06
3.04951e-05
0.000103545
0.000269522
0.000467717
0.000658081
0.000848477
0.00105109
0.00127814
0.00154094
0.00184766
0.00220373
0.00261851
0.00310126
0.00366076
0.00429596
0.00498202
0.00569684
0.006435
0.00716702
0.00782911
0.00837494
0.00877979
0.00904519
0.00919365
0.0092592
0.00927798
0.00928289
0.00929347
0.00933044
0.00940978
0.00953731
0.0097133
0.00993422
0.0101945
0.0104875
0.0108063
0.0111439
0.0114941
0.0118513
0.012211
0.0125696
0.0129244
0.0132733
0.0136147
0.0139476
0.0142711
0.0145847
0.014888
0.0151806
0.0154624
0.0157332
0.015993
0.0162417
0.0164792
0.0167056
0.0169209
0.017125
0.017318
0.0174999
0.0176708
0.0178307
0.0179796
0.0181175
0.0182446
0.0183608
0.0184662
0.0185608
0.0186446
0.0187176
0.0187799
0.0188313
0.0188719
0.0189018
0.0189211
0.0189305
0.0189322
0.0189283
0.0189211
0.018913
0.0189044
0.0188969
0.0188937
0.018898
0.0189136
0.0189449
0.0189963
0.0190728
0.0191792
0.0193206
0.0195012
0.0197244
0.0199922
0.0203044
0.0206606
0.0210666
0.0215297
0.0220535
0.0226404
0.023291
0.0240049
0.0247804
0.0256146
0.0265034
6.73249e-07
1.86071e-05
6.2055e-05
0.000170042
0.000310927
0.000447672
0.000582258
0.000722938
0.000878392
0.00105863
0.00127252
0.00152378
0.00182024
0.00217157
0.00258532
0.00306844
0.00362865
0.00426067
0.0049389
0.00564092
0.00636039
0.00708509
0.00776182
0.00834222
0.0087962
0.00911595
0.00931421
0.0094181
0.00946042
0.00947321
0.00948167
0.00949941
0.00954825
0.00963793
0.00977203
0.0099497
0.0101673
0.0104196
0.0107008
0.0110048
0.0113255
0.0116573
0.0119953
0.0123353
0.0126739
0.0130084
0.013337
0.013658
0.0139703
0.0142732
0.014566
0.0148482
0.0151197
0.0153802
0.0156295
0.0158676
0.0160945
0.0163101
0.0165144
0.0167075
0.0168895
0.0170603
0.01722
0.0173687
0.0175065
0.0176334
0.0177494
0.0178546
0.017949
0.0180326
0.0181054
0.0181675
0.0182187
0.0182592
0.0182887
0.0183078
0.0183184
0.0183226
0.0183229
0.0183215
0.0183185
0.0183155
0.0183154
0.0183215
0.0183374
0.0183674
0.0184158
0.0184877
0.0185885
0.0187236
0.0188983
0.0191174
0.019384
0.0196979
0.0200553
0.0204588
0.0209183
0.0214406
0.0220284
0.0226831
0.0234046
0.0241915
0.0250412
0.0259496
0.0269116
4.77098e-07
1.30828e-05
4.22748e-05
0.0001178
0.000222762
0.000325477
0.000424408
0.000524886
0.000632755
0.000754512
0.00089817
0.00106844
0.00127076
0.00151408
0.001806
0.00215398
0.00256473
0.00304449
0.00360032
0.00422465
0.00489155
0.00558172
0.00628782
0.00700237
0.00768681
0.00829343
0.00878872
0.00915767
0.00940474
0.00954968
0.00962065
0.00964717
0.00965641
0.00966498
0.00969124
0.0097497
0.00984671
0.00998416
0.0101605
0.0103722
0.0106145
0.0108822
0.0111699
0.0114722
0.0117841
0.0121012
0.0124198
0.0127368
0.0130496
0.0133562
0.0136553
0.0139455
0.0142263
0.0144968
0.0147568
0.0150059
0.015244
0.0154708
0.0156864
0.0158908
0.0160839
0.0162657
0.0164364
0.016596
0.0167446
0.0168822
0.0170089
0.0171248
0.01723
0.0173243
0.017408
0.0174809
0.017543
0.0175945
0.0176349
0.0176644
0.0176849
0.0176984
0.0177071
0.017713
0.017718
0.0177217
0.017727
0.0177372
0.0177557
0.0177864
0.017834
0.0179034
0.018
0.01813
0.0182994
0.0185141
0.0187788
0.019095
0.0194584
0.0198674
0.0203285
0.0208514
0.0214422
0.0221026
0.0228332
0.023633
0.0244993
0.0254285
0.0264152
0.0274532
0.0285353
3.82302e-07
1.04102e-05
3.26298e-05
9.07769e-05
0.00017464
0.000257003
0.000334518
0.00041065
0.000489347
0.00057468
0.000671507
0.000785766
0.000920737
0.00108107
0.00127648
0.00151402
0.00180066
0.00214334
0.00254852
0.00302216
0.00357096
0.00418684
0.00484409
0.00552383
0.00621772
0.00692153
0.00760858
0.00823382
0.00876328
0.00917627
0.00946985
0.00965639
0.009759
0.00980492
0.00982077
0.00982746
0.00983782
0.00987076
0.00993537
0.010036
0.0101733
0.0103451
0.0105483
0.0107783
0.0110305
0.0113
0.0115821
0.0118723
0.0121669
0.0124623
0.0127557
0.0130449
0.0133279
0.0136033
0.01387
0.0141272
0.0143743
0.0146109
0.0148366
0.0150514
0.0152551
0.0154476
0.015629
0.0157994
0.0159586
0.0161069
0.0162443
0.0163709
0.0164867
0.0165919
0.0166865
0.0167704
0.0168439
0.0169069
0.0169589
0.0169998
0.0170313
0.0170554
0.0170741
0.0170893
0.0171032
0.0171153
0.017128
0.0171444
0.0171675
0.0172013
0.0172501
0.0173189
0.0174133
0.0175395
0.0177043
0.0179145
0.0181764
0.018494
0.0188643
0.0192846
0.0197561
0.0202847
0.0208808
0.0215492
0.0222907
0.0231047
0.0239891
0.0249401
0.0259524
0.0270196
0.0281342
0.0292881
3.35031e-07
9.0737e-06
2.77585e-05
7.66386e-05
0.000148573
0.000219206
0.000284292
0.000346229
0.000407874
0.000471897
0.000541129
0.000619072
0.000710397
0.000817674
0.000944241
0.00109785
0.00128701
0.00151767
0.00179721
0.00213264
0.00253046
0.00299653
0.0035373
0.004145
0.00479405
0.00546539
0.0061499
0.00684133
0.00752529
0.00816405
0.00872157
0.00917325
0.00951018
0.0097384
0.00987553
0.00994553
0.00997321
0.0099813
0.0099833
0.00999693
0.0100345
0.0101025
0.0102035
0.0103372
0.0105016
0.0106935
0.0109088
0.0111434
0.0113928
0.0116528
0.0119196
0.0121897
0.01246
0.0127281
0.0129919
0.0132495
0.0134996
0.0137413
0.0139736
0.0141961
0.0144083
0.01461
0.0148009
0.014981
0.0151503
0.0153087
0.0154564
0.0155934
0.0157198
0.0158358
0.0159414
0.0160367
0.0161219
0.0161971
0.0162615
0.0163149
0.0163587
0.0163948
0.0164248
0.0164505
0.0164737
0.0164962
0.0165185
0.016543
0.0165729
0.0166119
0.016664
0.0167342
0.0168282
0.0169522
0.017113
0.0173182
0.0175753
0.0178915
0.0182666
0.018699
0.01919
0.0197371
0.0203443
0.0210221
0.021776
0.0226058
0.0235095
0.0244835
0.0255223
0.0266195
0.0277673
0.0289571
0.0301801
0.0314273
3.13262e-07
8.44805e-06
2.53774e-05
6.94534e-05
0.000134999
0.000199189
0.000257305
0.000311177
0.000363104
0.000415049
0.000468831
0.000526419
0.000590273
0.000663822
0.000749794
0.000850395
0.000970618
0.00111808
0.00129943
0.00152177
0.00179257
0.0021191
0.00250806
0.00296536
0.00349731
0.00409688
0.00473863
0.00540269
0.00607843
0.0067585
0.007438
0.00808512
0.0086642
0.00914902
0.00952589
0.00979502
0.00996825
0.0100657
0.0101102
0.0101242
0.0101244
0.0101248
0.0101408
0.0101805
0.0102486
0.0103464
0.0104733
0.0106272
0.0108051
0.0110033
0.0112181
0.0114454
0.0116816
0.0119233
0.0121673
0.0124111
0.0126523
0.0128891
0.0131199
0.0133435
0.0135589
0.0137655
0.0139625
0.0141498
0.014327
0.014494
0.0146508
0.0147973
0.0149337
0.0150601
0.0151765
0.0152833
0.0153805
0.0154685
0.0155461
0.0156129
0.0156701
0.0157193
0.0157622
0.0157999
0.015834
0.0158671
0.0159002
0.0159346
0.0159731
0.0160193
0.0160768
0.0161502
0.0162449
0.0163674
0.0165251
0.0167259
0.0169786
0.0172915
0.017668
0.0181085
0.0186166
0.01919
0.0198235
0.0205187
0.0212867
0.0221337
0.0230579
0.0240559
0.0251223
0.0262503
0.0274317
0.0286578
0.029919
0.031206
0.0325095
0.0338207
0.0351314
0.0364343
3.07603e-07
8.26795e-06
2.45176e-05
6.64606e-05
0.000129049
0.000190053
0.000244497
0.00029394
0.000340421
0.000385577
0.000430761
0.000477241
0.000526391
0.000579904
0.000640084
0.00071002
0.000791286
0.00088623
0.00100073
0.00114085
0.00131365
0.0015266
0.00178742
0.00210364
0.00248228
0.00292941
0.00345124
0.0040417
0.00467527
0.00533093
0.00599989
0.00667368
0.00734694
0.00799705
0.00859168
0.00910409
0.00951665
0.0098245
0.0100343
0.010162
0.010228
0.0102535
0.0102571
0.0102499
0.0102496
0.0102659
0.010305
0.0103698
0.0104611
0.010578
0.0107186
0.0108799
0.0110588
0.0112518
0.0114554
0.0116663
0.0118815
0.0120983
0.0123144
0.0125278
0.0127369
0.0129402
0.0131367
0.0133255
0.0135061
0.0136779
0.0138408
0.0139944
0.0141389
0.0142743
0.0144006
0.0145181
0.014627
0.0147275
0.0148185
0.0148991
0.0149702
0.0150334
0.01509
0.0151408
0.0151871
0.0152305
0.0152755
0.0153213
0.0153701
0.0154246
0.0154887
0.0155667
0.0156636
0.0157861
0.0159417
0.0161389
0.0163873
0.0166965
0.0170726
0.0175179
0.0180377
0.0186335
0.0192998
0.0200282
0.0208195
0.0216853
0.0226315
0.0236546
0.0247493
0.0259086
0.027124
0.0283863
0.0296856
0.031012
0.0323555
0.033707
0.0350578
0.0364002
3.13406e-07
8.40197e-06
2.47013e-05
6.6258e-05
0.000128117
0.000187983
0.000240765
0.000287938
0.000331449
0.000372808
0.000413169
0.000453493
0.0004947
0.000537775
0.000583902
0.000634647
0.000692239
0.000758947
0.000835954
0.000925836
0.00103415
0.00116702
0.00133133
0.00153459
0.00178473
0.00208963
0.00245669
0.00289223
0.00340256
0.00398271
0.00460766
0.00525619
0.00591961
0.00658801
0.00725299
0.00790118
0.00850596
0.00903971
0.0094826
0.00982589
0.0100717
0.0102314
0.0103224
0.0103638
0.0103744
0.0103658
0.0103551
0.0103535
0.0103682
0.0104038
0.0104622
0.0105439
0.0106479
0.0107724
0.0109149
0.0110725
0.0112421
0.0114206
0.0116052
0.0117933
0.0119824
0.0121706
0.0123562
0.0125377
0.012714
0.0128841
0.0130475
0.0132036
0.0133523
0.0134935
0.013627
0.0137531
0.013872
0.0139837
0.014087
0.0141807
0.0142654
0.0143426
0.0144131
0.0144778
0.0145373
0.0145923
0.0146472
0.0147049
0.0147646
0.0148286
0.0149004
0.0149842
0.015085
0.0152091
0.0153641
0.0155589
0.0158034
0.0161086
0.0164835
0.0169317
0.0174588
0.0180711
0.0187659
0.019534
0.0203643
0.0212578
0.0222272
0.0232765
0.0244001
0.025591
0.0268405
0.0281389
0.0294758
0.0308408
0.0322236
0.0336144
0.0350042
0.0363849
3.28886e-07
8.79555e-06
2.57097e-05
6.81325e-05
0.000130781
0.000190807
0.000243144
0.000289319
0.000331284
0.000370533
0.000408163
0.000444966
0.000481683
0.000519007
0.000557662
0.000598487
0.000642535
0.000691228
0.000746605
0.000810463
0.000883822
0.000969449
0.00107252
0.00119886
0.00135518
0.00154898
0.00178834
0.00208147
0.00243618
0.00285922
0.00335716
0.00392627
0.00454209
0.0051834
0.00584078
0.00650227
0.00715829
0.00780241
0.00841134
0.00895921
0.00942624
0.00980037
0.0100797
0.0102712
0.010389
0.01045
0.010472
0.0104672
0.0104518
0.0104377
0.0104332
0.0104438
0.0104726
0.0105215
0.0105906
0.0106792
0.0107856
0.0109075
0.0110424
0.0111876
0.0113405
0.0114986
0.0116596
0.0118214
0.0119825
0.0121414
0.012297
0.0124484
0.012595
0.0127365
0.0128725
0.0130032
0.0131284
0.0132485
0.0133617
0.0134665
0.0135634
0.0136537
0.0137379
0.0138163
0.0138891
0.0139565
0.0140214
0.014088
0.0141587
0.0142329
0.0143137
0.0144048
0.0145111
0.0146385
0.0147945
0.014988
0.0152295
0.0155306
0.0159034
0.016353
0.0168849
0.0175087
0.0182257
0.0190292
0.019906
0.0208423
0.0218417
0.0229178
0.0240707
0.0252933
0.0265765
0.0279103
0.029284
0.0306866
0.0321074
0.0335362
0.0349636
0.036381
3.53343e-07
9.42785e-06
2.74573e-05
7.17311e-05
0.000136239
0.000197242
0.000249841
0.00029577
0.00033696
0.000374983
0.000410926
0.000445589
0.000479616
0.000513564
0.000547961
0.000583353
0.000620355
0.000659709
0.000702379
0.000749687
0.000803531
0.000865373
0.000936101
0.00101849
0.00111734
0.00123818
0.00138749
0.00157267
0.00180188
0.00208357
0.00242595
0.00283618
0.00332113
0.00387807
0.00448314
0.00511526
0.00576372
0.00641835
0.00706864
0.00770489
0.00831158
0.0088672
0.00935144
0.00975033
0.0100589
0.0102803
0.0104253
0.0105083
0.0105455
0.0105488
0.0105339
0.0105126
0.0104937
0.0104837
0.0104869
0.0105062
0.010543
0.0105975
0.0106689
0.0107558
0.0108562
0.010968
0.0110887
0.0112162
0.0113485
0.0114837
0.0116201
0.0117566
0.011892
0.0120258
0.0121572
0.0122861
0.0124123
0.0125358
0.0126548
0.0127675
0.012874
0.0129751
0.0130711
0.0131621
0.0132477
0.0133276
0.0134028
0.0134782
0.0135568
0.0136414
0.013732
0.0138316
0.0139446
0.0140767
0.0142352
0.0144289
0.0146685
0.0149665
0.0153359
0.0157848
0.0163196
0.0169514
0.0176849
0.0185167
0.0194359
0.0204249
0.0214683
0.0225741
0.0237564
0.0250102
0.0263264
0.0276947
0.029104
0.0305428
0.0320001
0.0334652
0.0349283
0.0363806
0.0378143
3.86837e-07
1.02978e-05
2.99246e-05
7.68669e-05
0.000144002
0.000206481
0.000259654
0.000305549
0.000346392
0.000383743
0.000418689
0.000452024
0.000484362
0.000516208
0.000548008
0.000580183
0.000613162
0.000647416
0.000683491
0.000722071
0.000764051
0.000810671
0.000863707
0.000924406
0.000993548
0.00107381
0.00116966
0.00128634
0.00143005
0.00160804
0.00182838
0.00209967
0.00243036
0.00282791
0.00329942
0.00384282
0.0044352
0.00505641
0.00569606
0.00634317
0.00698551
0.00761177
0.00821295
0.00876985
0.00926373
0.00968023
0.0100121
0.0102596
0.0104304
0.0105361
0.0105908
0.0106047
0.0105942
0.0105701
0.0105416
0.0105156
0.0104976
0.0104915
0.0104996
0.010523
0.0105618
0.0106153
0.0106823
0.0107612
0.0108502
0.0109476
0.0110515
0.0111605
0.0112732
0.0113885
0.0115055
0.0116238
0.0117431
0.0118633
0.0119821
0.0120973
0.0122088
0.0123169
0.0124216
0.0125229
0.0126201
0.0127122
0.0127986
0.0128831
0.0129694
0.0130605
0.0131597
0.0132683
0.0133888
0.0135268
0.0136889
0.0138839
0.0141227
0.0144179
0.0147837
0.015231
0.0157672
0.0164037
0.0171487
0.0180019
0.0189552
0.0199923
0.0210919
0.0222409
0.0234517
0.0247359
0.0260839
0.0274851
0.028928
0.030401
0.0318925
0.0333916
0.034888
0.0363727
0.0378376
4.29799e-07
1.14141e-05
3.31211e-05
8.34166e-05
0.000153717
0.000217772
0.00027166
0.000317824
0.000358575
0.000395537
0.000429832
0.000462273
0.00049347
0.000523912
0.000554012
0.000584134
0.000614625
0.000645834
0.000678131
0.000711938
0.00074776
0.000786237
0.000828216
0.000874869
0.000927872
0.000988337
0.00105695
0.00113626
0.00123044
0.00134447
0.00148426
0.00165679
0.00186999
0.00213237
0.00245244
0.0028378
0.00329567
0.00382461
0.00440323
0.00501217
0.00564106
0.00627729
0.0069103
0.00752816
0.0081201
0.00867254
0.00916883
0.00959542
0.00994372
0.010212
0.0104048
0.0105308
0.0106012
0.0106277
0.010624
0.0106006
0.010567
0.0105303
0.0104965
0.0104699
0.0104537
0.0104498
0.0104591
0.0104819
0.0105176
0.0105654
0.0106243
0.0106929
0.0107701
0.0108546
0.0109457
0.0110427
0.011145
0.0112524
0.0113625
0.0114728
0.0115828
0.0116925
0.0118017
0.0119099
0.0120161
0.0121189
0.0122168
0.0123105
0.0124048
0.0125026
0.0126067
0.0127206
0.012848
0.0129921
0.0131585
0.0133557
0.0135943
0.0138871
0.0142492
0.0146942
0.0152307
0.0158692
0.0166215
0.0174899
0.018469
0.0195454
0.0206977
0.0219008
0.0231508
0.024464
0.025842
0.027274
0.0287483
0.0302528
0.0317758
0.0333059
0.0348328
0.036347
0.0378404
4.82957e-07
1.27936e-05
3.70746e-05
9.1272e-05
0.000165009
0.000230729
0.000285487
0.000332011
0.00037277
0.000409473
0.000443296
0.000475078
0.000505442
0.000534878
0.000563784
0.000592503
0.000621342
0.000650594
0.000680546
0.000711503
0.0007438
0.000777826
0.000814059
0.000853106
0.000895779
0.000943203
0.000996977
0.00105813
0.00112726
0.00120679
0.00130067
0.00141359
0.00155121
0.00172019
0.00192818
0.00218348
0.00249449
0.00286876
0.00331353
0.00382768
0.00439133
0.00498608
0.00560175
0.0062263
0.0068481
0.0074557
0.00803658
0.0085803
0.00907294
0.00950206
0.00985892
0.0101403
0.0103483
0.010489
0.0105717
0.01061
0.0106149
0.0105961
0.0105619
0.0105195
0.0104748
0.0104326
0.0103968
0.0103699
0.0103537
0.0103493
0.0103572
0.0103771
0.0104089
0.0104518
0.0105056
0.0105697
0.0106436
0.0107271
0.0108182
0.0109145
0.011015
0.0111192
0.0112267
0.0113365
0.0114474
0.0115577
0.0116654
0.0117688
0.0118703
0.0119744
0.0120839
0.0122016
0.0123311
0.0124776
0.0126472
0.0128469
0.0130857
0.0133766
0.0137349
0.0141769
0.0147122
0.0153504
0.016106
0.016984
0.0179805
0.0190846
0.0202793
0.0215393
0.0228421
0.0241896
0.0255949
0.0270546
0.0285569
0.0300895
0.0316403
0.033198
0.0347519
0.0362924
0.0378112
0.0393011
5.47143e-07
1.44568e-05
4.18252e-05
0.000100374
0.000177606
0.000245122
0.000300765
0.00034765
0.000388436
0.000424935
0.000458377
0.000489633
0.000519345
0.000548008
0.000576022
0.000603719
0.000631392
0.000659304
0.000687705
0.000716842
0.000746967
0.000778354
0.000811315
0.000846218
0.000883519
0.000923809
0.000967877
0.00101681
0.00107217
0.00113491
0.00120559
0.0012865
0.00138141
0.00149479
0.00163201
0.00179942
0.00200431
0.00225464
0.00255852
0.00292321
0.00335571
0.00385485
0.00440247
0.00498183
0.00558254
0.00619307
0.00680094
0.00739528
0.00796434
0.00849624
0.00897992
0.00940418
0.00976021
0.0100437
0.0102553
0.0104037
0.0104985
0.0105489
0.0105639
0.0105517
0.0105198
0.0104752
0.0104238
0.0103706
0.0103198
0.0102748
0.010238
0.0102112
0.0101958
0.0101924
0.0102017
0.010224
0.0102597
0.0103088
0.0103705
0.0104428
0.0105245
0.0106148
0.0107127
0.0108172
0.0109267
0.0110393
0.0111525
0.0112639
0.0113726
0.011482
0.011596
0.0117175
0.0118497
0.011997
0.0121653
0.0123625
0.0125993
0.012888
0.0132432
0.0136811
0.0142129
0.0148491
0.0156035
0.0164831
0.0174887
0.0186128
0.0198401
0.021148
0.0225094
0.0239039
0.0253369
0.02682
0.0283457
0.0299017
0.0314758
0.0330565
0.034633
0.0361957
0.037736
0.0392465
6.23217e-07
1.64232e-05
4.74053e-05
0.00011065
0.000191389
0.000260695
0.000317165
0.000364371
0.000405175
0.000441488
0.000474597
0.000505406
0.000534576
0.000562614
0.000589922
0.000616835
0.000643637
0.000670582
0.000697901
0.00072581
0.000754523
0.000784256
0.000815236
0.000847717
0.000881993
0.000918418
0.000957439
0.000999637
0.00104579
0.00109698
0.00115473
0.00121996
0.00129318
0.00137663
0.0014739
0.00158929
0.0017279
0.00189575
0.00209971
0.00234728
0.00264607
0.00300282
0.0034241
0.00390854
0.00443958
0.00500216
0.00558576
0.00617898
0.00677025
0.00734727
0.00789948
0.00841558
0.00888383
0.00929335
0.00963675
0.00991316
0.0101262
0.0102816
0.010386
0.0104466
0.0104706
0.0104652
0.0104371
0.0103926
0.0103377
0.0102773
0.010216
0.0101574
0.0101048
0.0100608
0.0100273
0.0100064
0.0099994
0.0100078
0.0100322
0.010072
0.0101262
0.0101938
0.0102739
0.010365
0.0104657
0.0105739
0.0106869
0.0108019
0.0109161
0.0110297
0.0111467
0.0112707
0.0114049
0.0115534
0.0117215
0.0119167
0.0121489
0.0124309
0.0127781
0.0132086
0.0137349
0.0143664
0.0151175
0.0159967
0.0170058
0.0181396
0.0193862
0.0207265
0.0221353
0.0235853
0.0250586
0.0265625
0.0281062
0.0296801
0.0312721
0.0328706
0.0344647
0.0360447
0.037602
0.0391293
7.12008e-07
1.87121e-05
5.38468e-05
0.000122107
0.000206216
0.000277215
0.000334414
0.000381884
0.000422683
0.000458815
0.00049162
0.000522032
0.000550734
0.000578242
0.000604969
0.00063125
0.000657371
0.000683583
0.000710109
0.000737153
0.000764907
0.000793558
0.00082329
0.000854298
0.00088679
0.000921005
0.000957227
0.000995804
0.00103718
0.00108194
0.00113088
0.00118507
0.00124604
0.00131467
0.00139146
0.00147861
0.0015796
0.00169856
0.00184033
0.00201059
0.00221575
0.00246272
0.00275848
0.00310905
0.00352034
0.00399051
0.00450439
0.00504847
0.00561266
0.00618537
0.00675508
0.0073101
0.00783923
0.00833095
0.00877476
0.00916286
0.00949165
0.0097607
0.00997252
0.010131
0.0102412
0.0103085
0.0103391
0.0103391
0.0103144
0.010271
0.0102143
0.0101493
0.0100806
0.0100124
0.00994855
0.00989234
0.00984699
0.00981541
0.00980048
0.00980354
0.00982447
0.00986275
0.00991762
0.00998798
0.0100724
0.0101688
0.0102748
0.0103872
0.0105029
0.0106196
0.0107378
0.0108624
0.010997
0.0111455
0.0113131
0.0115067
0.0117359
0.0120131
0.0123531
0.0127735
0.0132893
0.0139117
0.014655
0.0155299
0.0165381
0.0176743
0.0189283
0.0202843
0.0217214
0.0232139
0.0247362
0.0262731
0.0278311
0.0294169
0.0310206
0.0326307
0.0342365
0.0358283
0.0373975
0.0389367
8.13913e-07
2.13313e-05
6.11335e-05
0.000134663
0.00022212
0.000294473
0.000352276
0.000399951
0.000440732
0.000476683
0.0005092
0.00053925
0.000567533
0.00059458
0.000620808
0.000646558
0.00067212
0.000697748
0.000723664
0.000750069
0.000777145
0.000805064
0.000833989
0.000864081
0.000895504
0.000928434
0.000963065
0.00099963
0.00103841
0.00107975
0.00112412
0.00117211
0.00122454
0.00128251
0.00134758
0.00142056
0.00150196
0.00159403
0.00170012
0.00182421
0.00197089
0.00214547
0.00235386
0.00260229
0.00289696
0.00324301
0.00364542
0.00410172
0.00459796
0.00512202
0.00566388
0.00621239
0.00675612
0.00728329
0.00778253
0.00824412
0.00866053
0.00902643
0.00933901
0.0095977
0.009804
0.00996076
0.0100718
0.0101417
0.0101754
0.0101782
0.0101554
0.0101122
0.0100537
0.00998505
0.00991096
0.00983617
0.00976525
0.0097027
0.00965368
0.00962201
0.00960909
0.00961543
0.00964103
0.0096854
0.00974753
0.00982586
0.00991819
0.0100217
0.010133
0.0102492
0.0103682
0.0104916
0.0106247
0.0107717
0.0109377
0.0111294
0.0113559
0.0116286
0.0119628
0.0123759
0.012884
0.0134979
0.0142306
0.0150945
0.016093
0.0172231
0.0184749
0.0198335
0.0212803
0.022794
0.0243504
0.0259272
0.0275114
0.0291059
0.0307145
0.0323293
0.03394
0.0355367
0.0371112
0.0386559
9.28933e-07
2.42744e-05
6.91924e-05
0.000148106
0.000238771
0.000312396
0.000370685
0.000418477
0.000459164
0.000494914
0.000527151
0.00055686
0.000584757
0.000611386
0.000637177
0.000662459
0.000687536
0.00071267
0.00073809
0.000763998
0.00079057
0.000817974
0.000846364
0.000875883
0.00090667
0.000938863
0.00097261
0.00100807
0.00104544
0.00108495
0.00112688
0.0011716
0.0012196
0.00127152
0.0013282
0.0013908
0.00146089
0.00153923
0.00162637
0.0017246
0.0018372
0.00196797
0.00212126
0.00230197
0.00251544
0.00276717
0.00306244
0.00340536
0.00379989
0.00424268
0.00472072
0.00522326
0.00574045
0.00626124
0.00677425
0.00726844
0.00773409
0.00816387
0.00855181
0.00889373
0.00918718
0.00943154
0.00962774
0.00977796
0.00988521
0.00995313
0.00998584
0.00998778
0.0099636
0.00991817
0.00985651
0.00978385
0.0097056
0.00962738
0.00955613
0.00949805
0.00945646
0.00943337
0.00942999
0.00944681
0.00948368
0.00953976
0.00961348
0.00970254
0.00980402
0.00991473
0.010032
0.0101545
0.0102849
0.010429
0.0105922
0.0107812
0.0110045
0.0112738
0.0116037
0.0120112
0.0125135
0.0131205
0.013843
0.0146948
0.0156801
0.0167961
0.0180346
0.019383
0.0208249
0.0223405
0.0239085
0.0255078
0.0271203
0.028735
0.0303479
0.0319598
0.0335673
0.0351608
0.0367323
0.0382767
1.05757e-06
2.75423e-05
7.79578e-05
0.000162257
0.000255887
0.000330632
0.000389337
0.00043723
0.000477845
0.000513412
0.00054539
0.00057478
0.000602308
0.000628526
0.000653871
0.000678702
0.000703326
0.000728013
0.000753003
0.000778505
0.000804677
0.000831696
0.000859717
0.000888878
0.000919298
0.000951094
0.000984386
0.0010193
0.00105596
0.00109454
0.00113522
0.00117825
0.00122393
0.00127267
0.00132499
0.00138157
0.00144331
0.00151145
0.00158757
0.00167233
0.00176636
0.00187207
0.00199259
0.00213156
0.00229305
0.00248152
0.00270168
0.0029582
0.0032554
0.00359624
0.00398355
0.00441297
0.00487226
0.00535167
0.00584132
0.00633069
0.0068095
0.00726841
0.00769931
0.00809611
0.00845398
0.00876962
0.00904111
0.00926758
0.00944957
0.00958865
0.00968714
0.00974792
0.00977439
0.00977044
0.00974045
0.00968935
0.00962261
0.00954626
0.00946813
0.00939616
0.00933561
0.00929014
0.00926238
0.00925411
0.00926628
0.00929906
0.00935178
0.00942295
0.00951035
0.00961122
0.00972283
0.00984318
0.00997215
0.0101131
0.0102729
0.0104585
0.0106789
0.0109455
0.0112723
0.0116759
0.0121739
0.0127749
0.0134874
0.0143261
0.0152955
0.0163936
0.017613
0.0189418
0.0203655
0.0218673
0.0234284
0.0250283
0.0266489
0.0282755
0.0298986
0.0315131
0.0331161
0.0347042
0.0362723
0.0378154
1.20077e-06
3.11587e-05
8.73784e-05
0.000176973
0.000273292
0.000349
0.000408046
0.000456011
0.000496548
0.000531942
0.000563675
0.000592766
0.00061995
0.00064579
0.000670731
0.000695143
0.000719341
0.000743601
0.000768165
0.000793252
0.000819053
0.000845745
0.000873489
0.000902441
0.000932659
0.000964265
0.000997372
0.00103208
0.00106847
0.00110667
0.00114681
0.00118906
0.00123362
0.00128076
0.00133081
0.00138423
0.00144159
0.00150363
0.00157133
0.001646
0.00172918
0.00182147
0.00192361
0.00203809
0.00216791
0.00231651
0.00248762
0.00268521
0.00291331
0.0031757
0.00347563
0.00381484
0.00419496
0.00461046
0.0050496
0.00550368
0.00596336
0.00641929
0.00686253
0.00728511
0.00768025
0.00804293
0.00836953
0.00865729
0.00890435
0.00910933
0.00927266
0.00939539
0.00947923
0.00952661
0.00954064
0.00952528
0.00948536
0.00942661
0.0093567
0.00928446
0.00921666
0.00915847
0.00911395
0.00908619
0.00907737
0.00908879
0.00912086
0.0091731
0.00924421
0.00933222
0.00943488
0.00955024
0.00967747
0.0098176
0.00997505
0.0101579
0.010376
0.0106406
0.0109656
0.0113669
0.0118616
0.0124568
0.0131596
0.0139842
0.0149353
0.0160115
0.0172063
0.0185091
0.0199065
0.021383
0.0229223
0.0245074
0.0261197
0.0277433
0.0293664
0.0309806
0.032581
0.034164
0.0357263
0.0372644
1.35818e-06
3.50995e-05
9.73157e-05
0.000192042
0.000290779
0.00036732
0.000426654
0.000474669
0.000515124
0.000550344
0.000581835
0.000610627
0.000637468
0.000662928
0.000687464
0.000711457
0.000735233
0.00075908
0.000783252
0.000807976
0.000833455
0.000859867
0.000887372
0.000916104
0.00094618
0.000977707