/*--------------------------------*- C++ -*----------------------------------*\
  =========                 |
  \\      /  F ield         | OpenFOAM: The Open Source CFD Toolbox
   \\    /   O peration     | Website:  https://openfoam.org
    \\  /    A nd           | Version:  10
     \\/     M anipulation  |
\*---------------------------------------------------------------------------*/
FoamFile
{
    format      ascii;
    class       volVectorField;
    location    "25000";
    object      U;
}
// * * * * * * * * * * * * * * * * * * * * * * * * * * * * * * * * * * * * * //

dimensions      [0 1 -1 0 0 0 0];

internalField   nonuniform List<vector> 
17969
(
(0.119758 1.53935 0)
(-0.0433831 1.60281 0)
(-0.0202232 1.6257 -7.70536e-18)
(-0.0184307 1.64635 9.10776e-18)
(-0.01763 1.66632 -3.12414e-18)
(-0.0157975 1.68723 -2.57707e-18)
(-0.0127535 1.71039 2.18018e-18)
(-0.00834864 1.73693 0)
(-0.00218511 1.76846 1.18984e-19)
(0.00627284 1.80651 0)
(0.0170181 1.85076 0)
(0.0294637 1.89863 0)
(0.0426625 1.94643 0)
(0.0555641 1.99074 -1.10578e-18)
(0.0674657 2.02935 1.00084e-18)
(0.077672 2.06132 0)
(0.0862065 2.08754 -7.16141e-19)
(0.0933322 2.10935 6.49955e-19)
(0.0991022 2.1277 -5.86382e-19)
(0.103741 2.1434 5.32145e-19)
(0.107481 2.15709 0)
(0.110497 2.16932 0)
(0.112941 2.18055 -4.89684e-20)
(0.114943 2.19111 0)
(0.116609 2.20125 0)
(0.118022 2.21114 2.93499e-19)
(0.119241 2.22089 -5.39416e-19)
(0.120309 2.2306 2.49037e-19)
(0.121255 2.24031 2.29225e-19)
(0.122101 2.25008 -2.79136e-20)
(0.122862 2.25993 -2.49884e-19)
(0.123547 2.26989 0)
(0.124165 2.27998 1.75255e-19)
(0.124718 2.29022 -3.73409e-19)
(0.125212 2.30062 1.04871e-21)
(0.125647 2.3112 2.98355e-19)
(0.126025 2.32196 -1.42511e-19)
(0.126346 2.33293 -1.68878e-19)
(0.126609 2.3441 9.75906e-20)
(0.126814 2.3555 0)
(0.126959 2.36713 2.97844e-20)
(0.127045 2.379 2.86112e-20)
(0.127069 2.39113 2.18821e-19)
(0.12703 2.40353 -2.12674e-19)
(0.126926 2.4162 -2.02992e-19)
(0.126756 2.42916 -4.72351e-20)
(0.126518 2.44243 1.91011e-19)
(0.12621 2.456 1.82493e-19)
(0.125831 2.4699 -2.09261e-21)
(0.125378 2.48414 -1.72614e-19)
(0.124851 2.49872 -2.06477e-19)
(0.124247 2.51367 2.01957e-19)
(0.123563 2.52899 0)
(0.1228 2.5447 0)
(0.121953 2.56081 3.65358e-20)
(0.121022 2.57734 2.10938e-19)
(0.120004 2.59429 -1.38061e-19)
(0.118898 2.61169 0)
(0.1177 2.62955 0)
(0.116409 2.64787 6.08619e-20)
(0.115022 2.66669 -1.21827e-19)
(0.113536 2.68601 0)
(0.11195 2.70584 0)
(0.110261 2.72621 -5.48347e-20)
(0.108465 2.74712 -1.04471e-19)
(0.10656 2.76861 5.41814e-20)
(0.104542 2.79068 1.00431e-19)
(0.102409 2.81335 0)
(0.100157 2.83664 0)
(0.0977827 2.86056 0)
(0.0952822 2.88515 8.39946e-20)
(0.0926517 2.91042 -5.43187e-21)
(0.0898871 2.93638 -1.61845e-19)
(0.086985 2.96307 0)
(0.0839841 2.99011 7.15396e-20)
(0.0809688 3.01674 6.70015e-20)
(0.0779862 3.04261 -6.23593e-20)
(0.07504 3.06772 0)
(0.0721321 3.09212 0)
(0.069264 3.1158 0)
(0.066437 3.13879 0)
(0.0636525 3.16109 0)
(0.0609136 3.18271 7.32923e-20)
(0.0582262 3.20367 -1.21455e-19)
(0.0555939 3.22399 8.16843e-20)
(0.0530194 3.24368 -1.44758e-20)
(0.0504994 3.26278 0)
(0.0480267 3.28127 0)
(0.0455937 3.29918 0)
(0.0431927 3.31648 -2.62188e-20)
(0.0408204 3.33319 3.52222e-20)
(0.0384741 3.3493 2.73566e-20)
(0.0361521 3.3648 -2.69515e-20)
(0.0338548 3.3797 1.97092e-20)
(0.0315834 3.39401 -3.77237e-20)
(0.0293394 3.40774 1.40026e-20)
(0.0271249 3.4209 0)
(0.0249425 3.43348 -6.58508e-21)
(0.0227953 3.44551 6.4237e-21)
(0.020686 3.457 3.26068e-22)
(0.0859734 1.54311 0)
(-0.0821232 1.60424 -2.74129e-17)
(-0.058162 1.6228 1.69651e-17)
(-0.0571712 1.63958 3.05701e-19)
(-0.0572363 1.65557 1.27584e-17)
(-0.0565488 1.67179 -1.93131e-17)
(-0.0551183 1.68912 8.246e-18)
(-0.0529114 1.7083 7.48941e-18)
(-0.0496882 1.73008 -7.19175e-18)
(-0.0451716 1.75542 -7.06146e-18)
(-0.0389094 1.78572 1.46835e-20)
(-0.0305107 1.82204 6.53592e-18)
(-0.0201065 1.86366 0)
(-0.00819412 1.90837 0)
(0.00446881 1.95325 -4.87299e-18)
(0.0169837 1.99549 4.31408e-18)
(0.0286958 2.03312 0)
(0.0390398 2.06526 -3.10707e-18)
(0.0478032 2.09219 2.84535e-18)
(0.0551687 2.11493 0)
(0.0612733 2.13437 -2.28186e-18)
(0.0662177 2.15125 1.96286e-18)
(0.0702178 2.16612 5.95178e-20)
(0.0734377 2.17945 0)
(0.076017 2.19165 1.57986e-18)
(0.0780826 2.20308 -9.71869e-20)
(0.0797447 2.21398 -2.64019e-18)
(0.0810931 2.22457 1.21282e-18)
(0.0821976 2.23497 -6.95981e-20)
(0.0831098 2.24528 1.05556e-18)
(0.0838674 2.25559 -8.94028e-19)
(0.0844975 2.26593 0)
(0.0850192 2.27636 7.19314e-19)
(0.0854461 2.28689 -6.30435e-19)
(0.0857875 2.29756 0)
(0.0860499 2.30838 8.57713e-20)
(0.0862376 2.31938 -8.11287e-20)
(0.0863532 2.33056 -5.74037e-19)
(0.0863981 2.34194 1.20532e-18)
(0.0863728 2.35354 -7.42006e-20)
(0.0862772 2.36537 -5.67122e-19)
(0.0861105 2.37743 -6.01775e-19)
(0.0858715 2.38975 9.74502e-19)
(0.0855588 2.40232 -1.05202e-18)
(0.0851706 2.41517 8.98184e-19)
(0.0847049 2.42831 -3.80231e-19)
(0.0841598 2.44174 4.1357e-19)
(0.0835329 2.45549 -9.01643e-19)
(0.0828221 2.46955 7.72705e-19)
(0.0820247 2.48395 -7.45627e-19)
(0.0811385 2.4987 3.17032e-19)
(0.0801608 2.51381 -4.33913e-20)
(0.079089 2.52929 0)
(0.0779204 2.54515 0)
(0.0766523 2.56142 -3.92006e-20)
(0.0752817 2.5781 -7.58324e-20)
(0.0738059 2.5952 2.91494e-19)
(0.0722218 2.61275 -4.29527e-19)
(0.0705264 2.63075 -5.45285e-19)
(0.0687164 2.64923 7.70129e-20)
(0.0667887 2.66819 5.20721e-19)
(0.0647399 2.68765 6.1794e-19)
(0.0625666 2.70763 -6.08648e-19)
(0.0602652 2.72814 5.81519e-20)
(0.057832 2.7492 0)
(0.0552633 2.77083 5.4838e-20)
(0.0525552 2.79304 4.1429e-19)
(0.0497037 2.81585 -4.12264e-19)
(0.0467047 2.83928 -1.96234e-19)
(0.0435539 2.86335 -1.81182e-19)
(0.0402471 2.88808 3.69976e-19)
(0.0367794 2.91349 2.6192e-19)
(0.0331464 2.93961 3.27217e-19)
(0.029344 2.96644 -3.26981e-19)
(0.025424 2.99363 -7.5177e-20)
(0.0214972 3.02041 -7.04417e-20)
(0.0176241 3.04641 6.5598e-20)
(0.0138087 3.07167 1.22866e-19)
(0.0100529 3.09619 3.32923e-19)
(0.00635782 3.12001 -1.2715e-20)
(0.0027234 3.14313 -1.97827e-19)
(-0.000850122 3.16556 -4.42541e-20)
(-0.00435516 3.1873 0)
(-0.00779499 3.20837 1.88932e-20)
(-0.0111673 3.22877 -1.69797e-20)
(-0.014463 3.24853 1.54335e-20)
(-0.0176783 3.2677 0)
(-0.0208104 3.28631 0)
(-0.0238709 3.30436 -1.71754e-19)
(-0.0268739 3.32182 6.69475e-21)
(-0.0298253 3.3387 1.50596e-19)
(-0.0327335 3.35498 0)
(-0.0356 3.37067 0)
(-0.0384251 3.38576 8.49963e-20)
(-0.0412078 3.40026 -1.50998e-19)
(-0.0439469 3.41417 7.43762e-20)
(-0.0466406 3.42751 0)
(-0.0492867 3.44026 0)
(-0.0518826 3.45245 -1.59656e-20)
(-0.0544253 3.46407 9.48616e-21)
(0.0530048 1.54625 4.09502e-17)
(-0.119822 1.6056 -5.93786e-17)
(-0.0948285 1.62051 7.86216e-17)
(-0.0943049 1.63432 -2.30752e-17)
(-0.0948548 1.64767 4.30495e-19)
(-0.0947993 1.66102 0)
(-0.0942421 1.67495 2.53566e-19)
(-0.0932234 1.68994 0)
(-0.0916557 1.70643 0)
(-0.0893718 1.72491 3.98435e-19)
(-0.0861579 1.74592 1.9523e-19)
(-0.0817229 1.77037 0)
(-0.0756297 1.79947 0)
(-0.0676195 1.83386 3.7613e-19)
(-0.0577601 1.87294 -5.62981e-18)
(-0.0464389 1.91497 4.65002e-18)
(-0.0342916 1.95757 -4.26999e-18)
(-0.0220829 1.9984 4.01933e-18)
(-0.0104809 2.03565 -1.09339e-19)
(7.35903e-05 2.06835 -3.22096e-18)
(0.00912272 2.09623 2.50955e-18)
(0.0167796 2.12007 3.03473e-19)
(0.0232605 2.14075 1.39997e-19)
(0.0285587 2.15889 0)
(0.0328538 2.175 0)
(0.036317 2.18952 1.84899e-18)
(0.0390774 2.2028 -1.40502e-18)
(0.0412519 2.21518 -1.84021e-19)
(0.0429494 2.22694 -1.09399e-18)
(0.0442658 2.23829 1.24644e-18)
(0.0452795 2.2494 0)
(0.046052 2.26038 0)
(0.0466292 2.27132 1.22735e-19)
(0.047045 2.28228 1.70946e-18)
(0.0473239 2.29332 -3.41551e-18)
(0.0474836 2.30446 1.50496e-18)
(0.0475364 2.31573 9.37772e-20)
(0.0474911 2.32717 -1.7722e-19)
(0.0473533 2.33879 1.67453e-19)
(0.0471267 2.35061 7.90836e-20)
(0.0468135 2.36265 0)
(0.0464144 2.37491 7.14617e-20)
(0.0459294 2.38742 1.36707e-19)
(0.0453577 2.40018 -9.07926e-19)
(0.0446981 2.41321 9.80186e-21)
(0.0439487 2.42653 1.08083e-18)
(0.0431074 2.44013 0)
(0.0421717 2.45405 -3.81042e-22)
(0.0411392 2.46828 -2.12189e-19)
(0.0400068 2.48285 0)
(0.0387716 2.49776 9.79768e-20)
(0.0374305 2.51303 -7.51687e-19)
(0.0359802 2.52867 7.3483e-19)
(0.0344174 2.54469 0)
(0.0327384 2.56111 1.7024e-19)
(0.0309397 2.57794 0)
(0.0290177 2.5952 -1.58769e-19)
(0.0269685 2.6129 -6.07361e-19)
(0.0247882 2.63106 5.96975e-19)
(0.0224728 2.64968 1.43193e-19)
(0.0200181 2.66879 0)
(0.0174201 2.68839 -6.60657e-19)
(0.0146743 2.70852 1.41752e-18)
(0.0117763 2.72917 -1.22581e-20)
(0.00872164 2.75038 -2.53467e-19)
(0.00550565 2.77215 -1.28544e-19)
(0.00212361 2.7945 -8.94955e-19)
(-0.00142932 2.81746 1.35813e-20)
(-0.00515805 2.84103 8.3839e-19)
(-0.00906762 2.86524 1.14858e-21)
(-0.0131632 2.89012 0)
(-0.01745 2.91567 5.39501e-19)
(-0.0219335 2.94192 1.45891e-19)
(-0.0266181 2.9689 -6.91867e-19)
(-0.0314396 2.99622 0)
(-0.0362613 3.02314 0)
(-0.0410095 3.04927 -1.40064e-19)
(-0.0456798 3.07465 3.75361e-19)
(-0.0502704 3.0993 -1.08141e-18)
(-0.0547811 3.12324 8.86746e-19)
(-0.0592146 3.14648 -5.23656e-19)
(-0.0635628 3.16904 -3.16964e-19)
(-0.0678268 3.1909 3.59442e-19)
(-0.0720133 3.21208 -3.49348e-19)
(-0.0761149 3.23259 5.90069e-19)
(-0.0801312 3.25244 -2.80221e-19)
(-0.0840575 3.27167 2.33958e-19)
(-0.0878856 3.29031 -4.38343e-19)
(-0.0916113 3.30841 1.86024e-20)
(-0.0952334 3.32599 1.77347e-20)
(-0.0987719 3.34302 1.80508e-19)
(-0.102244 3.35948 0)
(-0.105654 3.37534 1.08481e-19)
(-0.109008 3.39061 -1.98564e-19)
(-0.112304 3.40529 3.9185e-21)
(-0.11554 3.41939 9.61615e-21)
(-0.118716 3.43289 6.43315e-21)
(-0.121827 3.44581 7.54431e-21)
(-0.124873 3.45815 2.69967e-20)
(-0.12785 3.46992 8.22184e-22)
(0.0204397 1.54873 -1.30758e-18)
(-0.156392 1.60639 -1.2645e-16)
(-0.130475 1.61843 1.29291e-19)
(-0.130277 1.62956 1.71356e-18)
(-0.131158 1.64084 3.13048e-17)
(-0.131509 1.65215 2.17811e-17)
(-0.13148 1.66385 -3.00804e-19)
(-0.131139 1.67626 -1.48388e-17)
(-0.130455 1.68969 0)
(-0.129367 1.70445 1.25328e-17)
(-0.127779 1.72089 -1.22075e-17)
(-0.125527 1.7393 0)
(-0.122441 1.76002 0)
(-0.11824 1.78375 -3.63585e-19)
(-0.112515 1.81154 3.61984e-19)
(-0.105032 1.84395 3.52384e-19)
(-0.0958097 1.8806 1.02969e-17)
(-0.0851261 1.92022 -9.78324e-18)
(-0.0735078 1.96089 0)
(-0.0615979 2.00063 2.4377e-19)
(-0.0500756 2.0377 7.50682e-18)
(-0.0393951 2.07092 -1.2227e-17)
(-0.0299861 2.0999 5.14215e-18)
(-0.0219601 2.125 2.98676e-19)
(-0.0151415 2.14696 4.38926e-18)
(-0.00944864 2.16636 -4.08678e-18)
(-0.00481109 2.18375 -4.00583e-18)
(-0.00106553 2.19951 3.94379e-18)
(0.00191565 2.21395 4.91468e-22)
(0.00424315 2.22738 -2.97934e-18)
(0.00602108 2.24008 2.76681e-18)
(0.00734593 2.25229 0)
(0.00830229 2.26418 0)
(0.0089598 2.27589 -2.17941e-18)
(0.00937306 2.28752 2.29171e-18)
(0.00958351 2.29915 -1.88488e-18)
(0.0096219 2.31083 1.77234e-18)
(0.0095107 2.32262 -1.44131e-18)
(0.00926607 2.33455 -1.81981e-19)
(0.00889936 2.34664 1.16175e-20)
(0.00841836 2.35892 2.76058e-18)
(0.00782811 2.37142 -2.61233e-18)
(0.00713163 2.38414 1.08979e-18)
(0.00633036 2.3971 0)
(0.00542452 2.41033 0)
(0.00441342 2.42383 -1.33485e-19)
(0.0032956 2.43762 -1.01663e-18)
(0.00206903 2.45171 8.60475e-19)
(0.000731196 2.46612 -6.97721e-19)
(-0.000720803 2.48086 1.12932e-18)
(-0.00229019 2.49593 1.07365e-18)
(-0.00398044 2.51137 -1.04258e-18)
(-0.0057953 2.52717 0)
(-0.00773867 2.54335 -5.69773e-19)
(-0.00981466 2.55993 7.45707e-19)
(-0.0120275 2.57692 0)
(-0.0143817 2.59434 1.71286e-19)
(-0.0168818 2.61219 1.65146e-19)
(-0.0195324 2.6305 -3.19981e-19)
(-0.0223384 2.64927 -1.53622e-19)
(-0.0253048 2.66853 2.97795e-19)
(-0.0284365 2.68829 1.13379e-18)
(-0.0317389 2.70856 -1.39442e-18)
(-0.0352172 2.72936 1.05354e-18)
(-0.0388768 2.75071 -1.54277e-18)
(-0.0427233 2.77263 1.00523e-18)
(-0.0467623 2.79512 -1.18097e-18)
(-0.0509994 2.81822 1.16534e-18)
(-0.0554405 2.84194 -2.20797e-19)
(-0.0600914 2.86629 -1.04878e-18)
(-0.0649581 2.8913 8.3405e-19)
(-0.0700468 2.91699 0)
(-0.0753636 2.94338 -1.87522e-19)
(-0.0809135 2.9705 0)
(-0.0866206 2.99796 0)
(-0.0923225 3.025 0)
(-0.0979326 3.05126 7.24722e-19)
(-0.103446 3.07676 -5.68093e-19)
(-0.108862 3.10153 -2.57482e-19)
(-0.114182 3.12559 -2.37601e-19)
(-0.119406 3.14895 1.0862e-19)
(-0.124526 3.17161 -1.01374e-19)
(-0.129549 3.19359 -3.61294e-19)
(-0.134473 3.21489 3.58245e-19)
(-0.139294 3.23551 3.06754e-19)
(-0.144017 3.25548 -2.29982e-20)
(-0.148641 3.2748 -7.8721e-19)
(-0.153162 3.29349 4.24934e-20)
(-0.157571 3.31161 4.49242e-19)
(-0.161859 3.32919 -4.76897e-20)
(-0.166024 3.34628 2.12129e-20)
(-0.170076 3.36287 -2.71661e-19)
(-0.174038 3.37891 2.67252e-19)
(-0.177923 3.39436 -1.35475e-20)
(-0.181735 3.40922 1.11062e-20)
(-0.185472 3.42348 1.22866e-19)
(-0.189132 3.43716 -2.24092e-19)
(-0.192713 3.45024 1.04759e-19)
(-0.196212 3.46274 4.56112e-20)
(-0.199625 3.47464 -6.53655e-20)
(-0.202951 3.48596 1.69418e-20)
(-0.206187 3.49672 3.41666e-21)
(-0.209329 3.50691 -4.4001e-20)
(-0.212376 3.51656 4.26433e-20)
(-0.011737 1.55052 8.80887e-17)
(-0.191764 1.60656 0)
(-0.165145 1.61697 1.06821e-16)
(-0.165184 1.62568 9.13764e-19)
(-0.166364 1.63515 -7.74008e-17)
(-0.167065 1.64479 5.27379e-17)
(-0.167463 1.65476 -1.93539e-17)
(-0.167629 1.66527 0)
(-0.167553 1.67655 1.52221e-17)
(-0.167202 1.68884 -2.75384e-17)
(-0.166528 1.7024 1.28165e-17)
(-0.165466 1.71746 -4.00964e-19)
(-0.163938 1.73417 1.24148e-17)
(-0.161799 1.75267 -2.38147e-17)
(-0.158881 1.77319 1.10814e-17)
(-0.154956 1.79627 -6.95089e-19)
(-0.149664 1.82275 1.09621e-17)
(-0.142736 1.85327 -1.00513e-17)
(-0.134163 1.88772 0)
(-0.12412 1.92518 9.40027e-18)
(-0.113028 1.96414 -9.62805e-18)
(-0.101455 2.00283 -4.78626e-19)
(-0.0900318 2.03965 0)
(-0.0792746 2.07338 -7.50336e-19)
(-0.0695175 2.10346 0)
(-0.0611201 2.12982 4.41098e-18)
(-0.0539717 2.15306 2.51131e-19)
(-0.0478835 2.17378 -4.5528e-18)
(-0.042881 2.19245 -2.34779e-19)
(-0.0388309 2.20947 0)
(-0.0355984 2.22512 0)
(-0.0330793 2.23968 0)
(-0.0311795 2.25342 -2.44765e-18)
(-0.0298063 2.26656 2.61378e-18)
(-0.0288726 2.27931 -3.01991e-19)
(-0.0283024 2.29182 2.2408e-18)
(-0.0280333 2.30421 -1.83788e-18)
(-0.0280164 2.31657 1.94403e-18)
(-0.0282141 2.32896 -1.83008e-18)
(-0.0285984 2.34145 0)
(-0.0291488 2.35408 1.99796e-18)
(-0.0298504 2.36687 -1.51508e-18)
(-0.030693 2.37986 1.06034e-18)
(-0.0316697 2.39307 -1.01469e-18)
(-0.0327762 2.40652 3.1924e-19)
(-0.0340102 2.42023 -3.03074e-19)
(-0.035371 2.43423 0)
(-0.0368592 2.44851 -1.0197e-21)
(-0.0384762 2.4631 0)
(-0.0402242 2.47802 1.73796e-18)
(-0.0421061 2.49327 -2.16373e-18)
(-0.0441253 2.50888 2.28601e-19)
(-0.0462857 2.52485 -1.7448e-18)
(-0.0485913 2.5412 1.48795e-18)
(-0.0510466 2.55794 -2.01999e-19)
(-0.0536565 2.57509 0)
(-0.0564258 2.59266 0)
(-0.0593598 2.61068 -1.42716e-18)
(-0.0624639 2.62914 3.71346e-19)
(-0.0657436 2.64807 1.34717e-18)
(-0.0692048 2.66748 9.51053e-19)
(-0.0728532 2.68739 -1.25072e-18)
(-0.0766949 2.70781 0)
(-0.0807362 2.72877 0)
(-0.0849833 2.75027 -2.75534e-19)
(-0.0894427 2.77233 0)
(-0.0941209 2.79497 -2.5816e-19)
(-0.0990244 2.81822 7.23913e-19)
(-0.10416 2.84207 -9.62446e-19)
(-0.109535 2.86657 4.56174e-19)
(-0.115155 2.89172 4.37858e-19)
(-0.121029 2.91755 4.19812e-19)
(-0.127162 2.94408 0)
(-0.133561 2.97132 3.61312e-19)
(-0.140139 2.99892 -3.77332e-19)
(-0.146707 3.02608 6.59049e-19)
(-0.153167 3.05246 -3.31884e-19)
(-0.159515 3.07807 1.14569e-18)
(-0.165748 3.10296 -6.58237e-20)
(-0.171871 3.12713 1.91336e-19)
(-0.177877 3.15061 -9.64747e-19)
(-0.183765 3.17339 7.30489e-19)
(-0.189544 3.19547 -6.31793e-19)
(-0.195202 3.21687 0)
(-0.200741 3.23761 8.66983e-20)
(-0.206165 3.25769 6.08598e-19)
(-0.211476 3.27712 -1.2055e-19)
(-0.216674 3.29592 -4.60102e-20)
(-0.221755 3.3141 -4.93825e-19)
(-0.226713 3.3317 -7.81294e-22)
(-0.231535 3.34877 2.55115e-19)
(-0.236219 3.36536 -3.35885e-19)
(-0.240764 3.38149 2.54181e-19)
(-0.245194 3.3971 -2.64005e-19)
(-0.249531 3.41213 1.78791e-19)
(-0.253775 3.42657 -1.65726e-19)
(-0.257926 3.44041 0)
(-0.261982 3.45365 0)
(-0.265939 3.46629 5.63599e-20)
(-0.269794 3.47833 -4.86171e-20)
(-0.273545 3.48978 6.8296e-22)
(-0.277188 3.50064 -2.01986e-22)
(-0.280721 3.51092 -4.38356e-20)
(-0.284143 3.52064 4.24912e-20)
(-0.0434787 1.55154 -4.01011e-18)
(-0.22597 1.60591 2.99844e-16)
(-0.198871 1.61584 -2.48869e-16)
(-0.199022 1.6227 7.80089e-17)
(-0.200461 1.63066 0)
(-0.201464 1.63892 0)
(-0.202235 1.64749 -1.49338e-18)
(-0.202838 1.6565 -1.95349e-17)
(-0.203264 1.66612 3.37321e-17)
(-0.203499 1.67653 -1.57773e-17)
(-0.203505 1.68792 0)
(-0.203238 1.70051 -8.11636e-24)
(-0.202648 1.71444 -4.32546e-19)
(-0.201672 1.72982 0)
(-0.20024 1.74675 7.89235e-19)
(-0.198233 1.76529 7.44711e-19)
(-0.195483 1.78563 -7.02051e-19)
(-0.191836 1.80811 -6.70889e-19)
(-0.186979 1.83345 0)
(-0.180592 1.86235 0)
(-0.172646 1.89488 6.11941e-19)
(-0.163238 1.93043 -5.30175e-22)
(-0.152695 1.96779 5.2252e-19)
(-0.141512 2.00545 -6.34095e-22)
(-0.130243 2.04198 0)
(-0.119446 2.07614 -3.75745e-19)
(-0.10948 2.10711 -9.96326e-19)
(-0.100693 2.13471 -2.96626e-19)
(-0.0931759 2.15926 0)
(-0.0867636 2.18128 0)
(-0.081389 2.2012 -4.68178e-19)
(-0.0770148 2.21948 4.37766e-19)
(-0.0735166 2.23637 2.441e-18)
(-0.0707898 2.25212 -4.00496e-19)
(-0.0687444 2.26696 -3.74246e-19)
(-0.0672943 2.28113 -2.99194e-18)
(-0.066355 2.29483 -2.46127e-18)
(-0.065848 2.30823 2.88824e-18)
(-0.0657053 2.32145 -2.14054e-18)
(-0.065871 2.3346 2.01455e-18)
(-0.066301 2.34777 -4.68505e-19)
(-0.0669615 2.36102 0)
(-0.0678269 2.37439 3.70044e-18)
(-0.0688787 2.38794 -3.1204e-18)
(-0.0701034 2.40169 -3.65562e-19)
(-0.0714919 2.41567 3.45331e-19)
(-0.0730382 2.4299 3.28085e-19)
(-0.074739 2.44441 -1.84954e-18)
(-0.0765929 2.45922 2.37345e-18)
(-0.0786 2.47434 0)
(-0.0807618 2.48978 -5.36095e-19)
(-0.0830806 2.50557 0)
(-0.0855595 2.52172 0)
(-0.0882025 2.53825 -4.67571e-19)
(-0.091014 2.55517 0)
(-0.0939988 2.57249 -4.29035e-19)
(-0.0971621 2.59023 4.11466e-19)
(-0.10051 2.6084 -1.56186e-18)
(-0.104047 2.62703 1.90596e-18)
(-0.107781 2.64612 1.4391e-18)
(-0.111718 2.66569 -1.76073e-18)
(-0.115864 2.68576 6.72885e-19)
(-0.120226 2.70634 6.2857e-19)
(-0.124811 2.72744 -1.2554e-18)
(-0.129627 2.7491 1.17706e-18)
(-0.134681 2.77131 -1.16175e-18)
(-0.13998 2.7941 5.49093e-19)
(-0.145531 2.81749 1.04149e-18)
(-0.151343 2.8415 -1.03247e-18)
(-0.157424 2.86614 -4.85718e-19)
(-0.163781 2.89143 -9.34257e-19)
(-0.170422 2.9174 4.30402e-19)
(-0.177355 2.94406 1.22805e-18)
(-0.184588 2.97144 -4.44177e-19)
(-0.192021 2.99916 1.1158e-18)
(-0.199443 3.02645 -1.48339e-18)
(-0.206742 3.05295 2.75674e-21)
(-0.213913 3.07867 -9.09153e-19)
(-0.220956 3.10367 1.50064e-18)
(-0.227875 3.12794 0)
(-0.234658 3.15154 0)
(-0.24131 3.17443 2.33291e-19)
(-0.247839 3.19662 -1.06143e-18)
(-0.254231 3.21813 8.38703e-19)
(-0.260489 3.23897 6.27804e-19)
(-0.266616 3.25916 -5.41741e-19)
(-0.272614 3.27871 5.23718e-19)
(-0.278483 3.29762 -5.25588e-19)
(-0.284226 3.31591 -6.51138e-20)
(-0.289839 3.33358 5.73268e-20)
(-0.295314 3.35067 5.05078e-20)
(-0.300642 3.36723 0)
(-0.305814 3.38332 0)
(-0.310831 3.39897 3.14498e-20)
(-0.315709 3.41414 2.68943e-20)
(-0.320471 3.42874 1.57984e-19)
(-0.325122 3.44274 -3.17277e-20)
(-0.329659 3.45613 -1.34251e-19)
(-0.33408 3.46892 5.96875e-20)
(-0.338382 3.48109 -6.09661e-20)
(-0.342562 3.49265 -4.08624e-21)
(-0.346617 3.50362 3.34734e-21)
(-0.350545 3.51399 -4.14838e-20)
(-0.354343 3.52377 -2.1957e-20)
(-0.0746431 1.55178 -8.86811e-17)
(-0.259082 1.60431 1.58561e-16)
(-0.231661 1.61445 -2.80381e-16)
(-0.231808 1.62017 9.73372e-17)
(-0.233439 1.62705 1.90551e-18)
(-0.234668 1.63428 -3.99076e-17)
(-0.23573 1.6418 5.89159e-17)
(-0.236688 1.64967 -2.31827e-17)
(-0.237537 1.65802 2.05509e-17)
(-0.238251 1.66696 -1.82322e-17)
(-0.238815 1.67666 0)
(-0.239189 1.68729 5.16408e-19)
(-0.239331 1.69901 -1.63003e-17)
(-0.239194 1.71193 1.51034e-17)
(-0.238722 1.72614 -8.95436e-19)
(-0.237859 1.74174 -1.3549e-17)
(-0.236544 1.7588 1.35604e-17)
(-0.234689 1.77736 1.26361e-17)
(-0.232121 1.79754 -3.06433e-20)
(-0.228754 1.81956 -1.04503e-17)
(-0.224317 1.844 -6.3324e-19)
(-0.218453 1.87159 6.1773e-19)
(-0.211115 1.90251 -1.77751e-18)
(-0.202346 1.93637 -5.56772e-19)
(-0.192377 1.97226 -9.20404e-18)
(-0.181622 2.00893 8.39011e-18)
(-0.170587 2.04504 -1.31748e-21)
(-0.159815 2.07941 7.48576e-19)
(-0.149733 2.11116 -6.68621e-19)
(-0.140608 2.1399 5.94984e-19)
(-0.132751 2.16568 4.81023e-18)
(-0.126059 2.18897 -4.47655e-18)
(-0.120349 2.21018 4.64391e-19)
(-0.115663 2.2297 -1.1796e-21)
(-0.111904 2.24783 4.08238e-19)
(-0.108965 2.26479 3.82503e-19)
(-0.10676 2.2808 -6.07698e-18)
(-0.105215 2.29607 4.04057e-20)
(-0.104251 2.3108 5.66952e-18)
(-0.10379 2.32515 0)
(-0.10376 2.33929 0)
(-0.1041 2.35331 0)
(-0.104761 2.36733 -4.31679e-18)
(-0.105702 2.3814 3.6305e-18)
(-0.106894 2.3956 0)
(-0.108313 2.40996 0)
(-0.109943 2.42452 -3.36875e-18)
(-0.111772 2.43933 2.50197e-18)
(-0.113792 2.4544 2.67184e-18)
(-0.115998 2.46977 -2.56095e-18)
(-0.118387 2.48544 6.02762e-19)
(-0.120961 2.50144 0)
(-0.123718 2.5178 0)
(-0.126663 2.53452 1.04138e-18)
(-0.129798 2.55162 1.97219e-18)
(-0.133128 2.56913 -1.43945e-18)
(-0.136658 2.58705 -4.52584e-19)
(-0.140393 2.6054 0)
(-0.14434 2.6242 -2.06183e-18)
(-0.148505 2.64346 3.07439e-20)
(-0.152894 2.66319 1.92314e-18)
(-0.157516 2.68342 -1.46432e-18)
(-0.162377 2.70417 7.00408e-19)
(-0.167485 2.72543 0)
(-0.172849 2.74724 0)
(-0.178477 2.76961 6.01532e-19)
(-0.184376 2.79256 -3.44077e-20)
(-0.190557 2.8161 -3.51893e-20)
(-0.197026 2.84026 -5.63273e-19)
(-0.203794 2.86504 0)
(-0.210869 2.89048 1.00371e-18)
(-0.21826 2.91659 9.63395e-19)
(-0.225977 2.94339 -1.37738e-18)
(-0.234028 2.97091 -8.67934e-19)
(-0.242302 2.99876 0)
(-0.250565 3.02618 -2.28596e-18)
(-0.258692 3.05279 1.85418e-18)
(-0.266678 3.07863 2.94673e-21)
(-0.274522 3.10373 -3.16761e-19)
(-0.282228 3.12812 2.94426e-19)
(-0.289785 3.15182 2.7315e-19)
(-0.297202 3.17482 0)
(-0.304478 3.19712 0)
(-0.311604 3.21874 0)
(-0.318583 3.23968 -7.84774e-19)
(-0.325416 3.25998 -1.28764e-19)
(-0.332105 3.27964 1.5452e-18)
(-0.338651 3.29867 -7.30731e-19)
(-0.345055 3.31707 -4.70187e-19)
(-0.351317 3.33485 5.33111e-19)
(-0.357433 3.35201 0)
(-0.363396 3.3686 3.70743e-19)
(-0.369197 3.38465 -3.58758e-19)
(-0.374827 3.40024 0)
(-0.380284 3.41541 -5.86432e-20)
(-0.38558 3.43011 -1.73558e-19)
(-0.390738 3.44425 1.69716e-19)
(-0.395767 3.45779 -1.01447e-19)
(-0.40066 3.47071 9.86633e-20)
(-0.405415 3.48301 0)
(-0.410031 3.49469 -1.13863e-20)
(-0.414504 3.50575 8.11937e-21)
(-0.418832 3.5162 3.87895e-20)
(-0.423013 3.52605 -1.02741e-19)
(-0.427044 3.53532 6.70961e-20)
(-0.105121 1.55129 2.81969e-18)
(-0.291168 1.60178 0)
(-0.263512 1.61239 -1.45018e-16)
(-0.263611 1.61747 1.12466e-16)
(-0.265354 1.62368 -1.04771e-22)
(-0.266726 1.63026 -1.51933e-18)
(-0.267985 1.63707 0)
(-0.269197 1.64418 -2.63404e-17)
(-0.270353 1.65165 2.36205e-17)
(-0.271441 1.65955 0)
(-0.272442 1.668 1.1953e-18)
(-0.273326 1.67714 0)
(-0.27406 1.68711 2.67115e-23)
(-0.274602 1.69805 -1.71204e-17)
(-0.274904 1.71005 3.26365e-17)
(-0.27492 1.72322 -1.5471e-17)
(-0.274594 1.73765 1.45543e-17)
(-0.273874 1.75343 -2.91208e-17)
(-0.272704 1.77059 1.28055e-17)
(-0.271022 1.78917 7.42149e-19)
(-0.268676 1.80921 -6.87345e-19)
(-0.265584 1.83092 -8.96985e-18)
(-0.261534 1.85475 1.11031e-17)
(-0.2562 1.8813 1.196e-18)
(-0.249456 1.91087 1.14916e-18)
(-0.241319 1.94327 -1.08503e-18)
(-0.231944 1.97783 1.00458e-18)
(-0.221672 2.0135 0)
(-0.210962 2.04911 -1.30842e-21)
(-0.200307 2.08355 1.34477e-21)
(-0.190183 2.11592 -6.70823e-19)
(-0.180887 2.14562 0)
(-0.17271 2.17258 0)
(-0.165726 2.19709 8.38325e-18)
(-0.159774 2.21954 -6.49171e-18)
(-0.154802 2.24027 0)
(-0.150792 2.25963 -6.50902e-18)
(-0.147652 2.27783 1.07422e-17)
(-0.145299 2.29504 -6.50677e-18)
(-0.14366 2.31147 0)
(-0.142665 2.32729 -5.69457e-18)
(-0.142242 2.34269 4.78389e-18)
(-0.142318 2.35781 1.11711e-18)
(-0.142831 2.37279 -4.69566e-18)
(-0.143725 2.38773 3.4599e-18)
(-0.144956 2.4027 0)
(-0.146489 2.41778 3.45586e-18)
(-0.148296 2.43302 -4.10657e-18)
(-0.150358 2.44847 3.06466e-18)
(-0.15266 2.46417 -2.19751e-18)
(-0.155191 2.48014 -3.42223e-18)
(-0.157945 2.49642 2.62047e-18)
(-0.160918 2.51302 -6.18531e-19)
(-0.16411 2.52997 1.7424e-18)
(-0.167521 2.5473 -3.31623e-20)
(-0.171153 2.56501 -2.13715e-18)
(-0.175011 2.58313 0)
(-0.179099 2.60167 -2.87658e-18)
(-0.183423 2.62065 2.75723e-18)
(-0.187988 2.6401 -1.7745e-18)
(-0.192803 2.66001 0)
(-0.197873 2.68042 8.01502e-19)
(-0.203208 2.70133 2.29188e-18)
(-0.208815 2.72277 7.03044e-19)
(-0.214704 2.74475 -3.58258e-20)
(-0.220883 2.76728 -6.95078e-19)
(-0.227361 2.79039 2.54763e-18)
(-0.234149 2.81409 -2.51241e-18)
(-0.241255 2.8384 -1.18421e-18)
(-0.248691 2.86334 2.22557e-18)
(-0.256465 2.88893 -1.65923e-18)
(-0.264589 2.91519 -2.06864e-18)
(-0.273074 2.94213 2.9133e-18)
(-0.281927 2.96979 -9.77037e-19)
(-0.291029 2.99778 0)
(-0.300122 3.02532 -7.92684e-19)
(-0.309066 3.05205 8.23871e-19)
(-0.317857 3.078 -2.51008e-18)
(-0.326495 3.10321 1.73505e-18)
(-0.334982 3.12772 -6.32928e-19)
(-0.343309 3.15153 -1.4348e-18)
(-0.351485 3.17465 7.0048e-20)
(-0.359509 3.19705 6.82386e-20)
(-0.36737 3.21878 9.92161e-19)
(-0.375071 3.23983 1.08004e-18)
(-0.382615 3.26024 -6.24728e-20)
(-0.39 3.28001 -5.92858e-19)
(-0.397227 3.29915 1.72655e-19)
(-0.404297 3.31766 -5.92955e-19)
(-0.411209 3.33555 7.26098e-19)
(-0.417961 3.35282 0)
(-0.424549 3.36947 4.11224e-19)
(-0.430967 3.38554 -7.05004e-19)
(-0.437204 3.40108 3.39885e-19)
(-0.443255 3.41616 2.73972e-19)
(-0.449112 3.43084 -2.3126e-19)
(-0.454791 3.44506 2.14168e-20)
(-0.460315 3.45872 -9.64515e-20)
(-0.465691 3.47177 9.78946e-20)
(-0.47091 3.48418 7.75917e-21)
(-0.475972 3.49597 3.23387e-21)
(-0.480874 3.50713 0)
(-0.485613 3.51766 1.87559e-21)
(-0.490184 3.52758 -3.40097e-21)
(-0.494588 3.53689 -4.77909e-21)
(-0.498822 3.54561 1.99575e-19)
(-0.502887 3.55377 -2.10839e-19)
(-0.134833 1.55015 -9.17398e-17)
(-0.322271 1.59845 0)
(-0.294407 1.60954 1.64241e-16)
(-0.294457 1.61421 -1.24864e-16)
(-0.296251 1.62002 -2.66706e-18)
(-0.2977 1.6262 3.57549e-18)
(-0.299075 1.63262 4.07725e-17)
(-0.300444 1.63927 -3.24206e-17)
(-0.301802 1.6462 -1.61606e-18)
(-0.303138 1.65347 -2.39017e-17)
(-0.304441 1.66112 2.05921e-17)
(-0.305696 1.66925 1.22178e-18)
(-0.306874 1.67797 4.39e-23)
(-0.307939 1.6874 1.16369e-18)
(-0.308851 1.69767 1.13036e-18)
(-0.309577 1.70888 1.73269e-17)
(-0.310057 1.72114 -4.01133e-20)
(-0.310246 1.73455 -1.46293e-17)
(-0.310094 1.74919 0)
(-0.309547 1.76512 -8.58807e-19)
(-0.30856 1.78239 -1.11638e-17)
(-0.30708 1.80101 1.03639e-17)
(-0.304989 1.82101 1.08929e-17)
(-0.302188 1.84254 -1.01413e-17)
(-0.298525 1.86594 0)
(-0.293712 1.89171 1.16058e-18)
(-0.287557 1.92019 0)
(-0.280058 1.95135 1.05813e-18)
(-0.27131 1.9847 1.97114e-18)
(-0.261582 2.01942 -9.05345e-19)
(-0.251276 2.05448 8.23869e-19)
(-0.240851 2.08883 -1.49197e-18)
(-0.230781 2.1216 1.34288e-18)
(-0.221426 2.15211 -1.08204e-17)
(-0.213014 2.18014 8.69115e-18)
(-0.205796 2.20579 0)
(-0.199667 2.22944 7.3191e-18)
(-0.194471 2.25139 -5.20514e-18)
(-0.190251 2.27196 0)
(-0.186939 2.29138 0)
(-0.184456 2.30982 7.20489e-19)
(-0.182736 2.32744 0)
(-0.181717 2.34442 -6.38032e-19)
(-0.181334 2.36093 0)
(-0.181519 2.37713 -3.93638e-18)
(-0.182208 2.39313 4.27243e-18)
(-0.183343 2.40907 -1.00154e-18)
(-0.184877 2.42502 9.38547e-19)
(-0.186769 2.44106 0)
(-0.18899 2.45725 -8.3227e-19)
(-0.191514 2.47366 7.84801e-19)
(-0.194325 2.49031 7.44079e-19)
(-0.19741 2.50725 -3.13022e-21)
(-0.20076 2.5245 0)
(-0.204371 2.5421 1.86721e-18)
(-0.20824 2.56007 -3.70459e-20)
(-0.212369 2.57842 -2.2853e-18)
(-0.216759 2.59719 1.07486e-18)
(-0.221414 2.61639 -1.00939e-18)
(-0.22634 2.63604 9.92572e-19)
(-0.231542 2.65615 -1.84312e-18)
(-0.237027 2.67675 2.66139e-18)
(-0.242804 2.69785 -2.55919e-18)
(-0.24888 2.71947 -2.40614e-18)
(-0.255265 2.74163 1.56544e-18)
(-0.261969 2.76434 -7.40812e-19)
(-0.269001 2.78762 -2.78201e-18)
(-0.276372 2.81149 1.3848e-18)
(-0.284093 2.83596 -5.99628e-19)
(-0.292175 2.86107 3.7365e-18)
(-0.300629 2.88681 8.34905e-21)
(-0.309467 2.91323 -8.22053e-21)
(-0.318702 2.94032 -2.08579e-18)
(-0.328343 2.96813 2.0204e-18)
(-0.338259 2.99626 -2.91418e-18)
(-0.348169 3.02393 -1.74988e-18)
(-0.357921 3.05078 2.57102e-18)
(-0.367508 3.07685 -1.53652e-18)
(-0.376933 3.10217 3.67202e-18)
(-0.386194 3.12679 -1.06787e-18)
(-0.395285 3.15072 1.23995e-18)
(-0.404216 3.17396 -1.23648e-18)
(-0.412986 3.19648 -1.3678e-18)
(-0.421583 3.21831 8.19272e-19)
(-0.430008 3.23948 6.9495e-19)
(-0.438262 3.26 -1.15651e-18)
(-0.446345 3.27988 -2.04568e-19)
(-0.454254 3.29912 3.44018e-19)
(-0.461989 3.31775 -1.53431e-18)
(-0.469548 3.33575 6.44722e-19)
(-0.476931 3.35313 1.37747e-19)
(-0.484135 3.36987 0)
(-0.491158 3.386 -5.16856e-20)
(-0.497995 3.40153 3.30911e-19)
(-0.504638 3.41654 -3.5476e-19)
(-0.51108 3.43111 -1.86635e-19)
(-0.51731 3.4453 3.75533e-19)
(-0.523348 3.45903 -1.623e-19)
(-0.529218 3.47219 9.99849e-20)
(-0.534916 3.48473 -9.34388e-20)
(-0.540439 3.49662 -3.75715e-20)
(-0.545783 3.50787 5.93587e-20)
(-0.550943 3.51848 -1.05313e-19)
(-0.555916 3.52845 7.71006e-20)
(-0.560699 3.53779 0)
(-0.565292 3.54652 6.16835e-21)
(-0.569694 3.55467 0)
(-0.573906 3.56225 -8.3654e-21)
(-0.163745 1.54843 9.31458e-17)
(-0.352417 1.5944 -3.61071e-16)
(-0.324326 1.60592 -4.99067e-18)
(-0.324328 1.61024 1.34783e-16)
(-0.326135 1.61575 0)
(-0.327616 1.62171 -2.0308e-18)
(-0.329052 1.6279 -4.6465e-17)
(-0.33051 1.63431 6.17623e-20)
(-0.331985 1.64096 2.70376e-17)
(-0.333471 1.64787 1.53555e-18)
(-0.334963 1.65508 2.04927e-17)
(-0.336452 1.66263 -4.06326e-20)
(-0.337923 1.67058 -3.76257e-17)
(-0.339353 1.67904 1.66715e-17)
(-0.340719 1.6881 -1.87573e-17)
(-0.341971 1.69786 1.8514e-17)
(-0.343079 1.70843 0)
(-0.344 1.71993 -2.16066e-18)
(-0.34468 1.73245 2.05815e-18)
(-0.345071 1.7461 -1.94679e-18)
(-0.345123 1.76095 2.92554e-17)
(-0.344786 1.77707 -2.74848e-17)
(-0.344017 1.79449 0)
(-0.342772 1.81322 0)
(-0.340958 1.83327 1.35382e-18)
(-0.338463 1.85473 0)
(-0.335196 1.87785 1.17419e-18)
(-0.330902 1.90303 1.68799e-17)
(-0.325336 1.93065 -1.9556e-17)
(-0.318488 1.96077 2.0614e-18)