/*--------------------------------*- C++ -*----------------------------------*\
  =========                 |
  \\      /  F ield         | OpenFOAM: The Open Source CFD Toolbox
   \\    /   O peration     | Website:  https://openfoam.org
    \\  /    A nd           | Version:  10
     \\/     M anipulation  |
\*---------------------------------------------------------------------------*/
FoamFile
{
    format      ascii;
    class       volScalarField;
    location    "2000";
    object      omega;
}
// * * * * * * * * * * * * * * * * * * * * * * * * * * * * * * * * * * * * * //

dimensions      [0 0 -1 0 0 0 0];

internalField   nonuniform List<scalar> 
17922
(
10.9298
10.6163
10.3092
10.009
9.71563
9.42943
9.15056
8.87916
8.61533
8.35913
8.11052
7.86946
7.63552
7.40818
7.1871
6.97194
6.76234
6.55782
6.35806
6.1629
5.97233
5.78645
5.60544
5.42953
5.25892
5.09398
4.93533
4.78385
4.64037
4.50514
4.3771
4.25486
4.13739
4.0239
3.9139
3.80718
3.70378
3.60398
3.50821
3.41691
3.33074
3.25043
3.17653
3.10948
3.05051
3.00152
2.96448
2.9404
2.92983
2.93313
2.94988
2.97955
3.02197
3.07647
3.14227
3.21863
3.30487
3.40016
3.50347
3.61374
3.72962
3.84958
3.9716
4.09459
4.21745
4.33833
4.45461
4.56497
4.67028
4.76953
4.86167
4.94593
5.02176
5.08888
5.14734
5.19752
5.24
5.27553
5.30537
5.33123
5.35571
5.38138
5.4111
5.44937
5.50012
5.56655
5.65165
5.75496
5.87376
6.00695
6.1605
6.33637
6.53516
10.9176
10.6017
10.2922
9.98935
9.69346
9.40475
9.12343
8.8497
8.58369
8.32547
8.07505
7.83233
7.59699
7.3687
7.14715
6.93207
6.72303
6.51953
6.3213
6.12821
5.94017
5.75719
5.57933
5.40673
5.23956
5.07807
4.92276
4.774
4.63243
4.49871
4.37202
4.25097
4.13455
4.02201
3.91288
3.80693
3.70424
3.60508
3.50986
3.41913
3.3337
3.25433
3.18152
3.11572
3.05853
3.01232
2.97899
2.95957
2.95448
2.96404
2.98775
3.0248
3.07476
3.13681
3.21002
3.2936
3.38691
3.48909
3.59903
3.71554
3.83725
3.9626
4.08982
4.21785
4.34551
4.47091
4.59185
4.70744
4.8179
4.92228
5.01962
5.10915
5.19028
5.26266
5.32621
5.38113
5.42786
5.46708
5.49994
5.52819
5.55418
5.58036
5.60981
5.64704
5.69576
5.75854
5.83702
5.93114
6.04035
6.16482
6.30843
6.47288
6.65865
10.9109
10.5928
10.2809
9.97574
9.67745
9.38635
9.10269
8.82672
8.55862
8.29847
8.04633
7.80212
7.56563
7.33658
7.11467
6.89956
6.69088
6.48825
6.29141
6.10017
5.91437
5.73392
5.55883
5.38916
5.225
5.06643
4.91367
4.76692
4.62689
4.49438
4.36872
4.24853
4.13282
4.02089
3.91227
3.80677
3.70446
3.60562
3.51067
3.42019
3.33494
3.25576
3.18327
3.11789
3.06137
3.01619
2.98399
2.96566
2.96161
2.97199
2.99627
3.03377
3.08397
3.14616
3.21947
3.30311
3.39637
3.49831
3.60781
3.72361
3.84427
3.96825
4.09393
4.22012
4.34546
4.4682
4.58658
4.69981
4.80761
4.90915
5.0036
5.09027
5.16866
5.23849
5.29974
5.35264
5.39766
5.43556
5.46756
5.49543
5.52138
5.54792
5.57808
5.61552
5.66347
5.72428
5.79944
5.88939
5.99431
6.11495
6.25368
6.412
6.59045
10.9087
10.5883
10.2742
9.96667
9.666
9.37252
9.08653
8.80832
8.53809
8.27599
8.0221
7.77639
7.53871
7.30883
7.08647
6.87132
6.66302
6.46123
6.26566
6.07606
5.89224
5.71409
5.54151
5.37446
5.21289
5.05678
4.90622
4.76128
4.62266
4.49121
4.36639
4.24688
4.13172
4.02023
3.91197
3.80677
3.70472
3.60609
3.51133
3.42102
3.33592
3.25688
3.18463
3.1196
3.06361
3.01918
2.98779
2.9702
2.96683
2.97769
3.00229
3.03999
3.09025
3.15239
3.22559
3.30908
3.40208
3.50361
3.61251
3.72749
3.84709
3.96978
4.09399
4.21845
4.34175
4.46225
4.57846
4.68961
4.79519
4.89443
4.98659
5.07103
5.14734
5.21529
5.27489
5.32641
5.37036
5.40754
5.43923
5.46713
5.49339
5.52046
5.55122
5.58889
5.63634
5.69573
5.76852
5.85548
5.95717
6.07455
6.20935
6.36286
6.53563
10.9107
10.5883
10.272
9.96215
9.65916
9.36334
9.07504
8.79458
8.52223
8.25816
8.0025
7.75525
7.51633
7.28555
7.06266
6.84736
6.63932
6.43821
6.24371
6.05556
5.87351
5.69737
5.52699
5.3622
5.20288
5.04892
4.90029
4.75694
4.61952
4.48896
4.36481
4.2458
4.13101
4.0198
3.91175
3.80672
3.7048
3.60628
3.51162
3.42141
3.33641
3.25749
3.18545
3.12074
3.06526
3.02151
2.99085
2.97397
2.97121
2.98254
3.00747
3.0454
3.09576
3.1579
3.23104
3.31439
3.40711
3.5082
3.61647
3.73059
3.84908
3.97041
4.09307
4.21571
4.3369
4.45515
4.56912
4.67802
4.78126
4.87809
4.96784
5.04996
5.12407
5.19001
5.24785
5.29787
5.34064
5.37702
5.4083
5.43614
5.46261
5.49009
5.52127
5.55899
5.60584
5.66385
5.73446
5.81863
5.91716
6.03106
6.16168
6.31012
6.47691
10.9171
10.5926
10.2742
9.96217
9.65694
9.35884
9.06828
8.7856
8.51112
8.24508
7.98763
7.73882
7.4986
7.26685
7.04333
6.82777
6.61985
6.41925
6.22563
6.03869
5.85814
5.68373
5.51522
5.35238
5.19499
5.04286
4.89586
4.75386
4.61744
4.48757
4.3639
4.24522
4.13065
4.01955
3.91158
3.80658
3.70469
3.60618
3.51154
3.42137
3.33644
3.25762
3.18575
3.12135
3.06635
3.02323
2.99326
2.97703
2.97484
2.9866
3.01186
3.05002
3.1005
3.16265
3.23572
3.31892
3.41134
3.51197
3.61958
3.7328
3.85015
3.9701
4.09116
4.21193
4.33101
4.44698
4.55866
4.66524
4.76605
4.86042
4.94772
5.02747
5.09934
5.16324
5.21927
5.26778
5.30937
5.34495
5.37581
5.4036
5.43029
5.45816
5.4897
5.52747
5.5738
5.63059
5.69929
5.78096
5.87653
5.98701
6.11355
6.25706
6.41802
10.9275
10.6011
10.2807
9.96668
9.6593
9.35901
9.06625
8.7814
8.50483
8.23681
7.97755
7.72714
7.48558
7.25278
7.02853
6.81258
6.60464
6.40436
6.2114
6.02543
5.84611
5.67313
5.50618
5.34496
5.18918
5.03856
4.8929
4.75198
4.61633
4.48697
4.36361
4.24509
4.13056
4.01946
3.91142
3.80635
3.70437
3.60579
3.51109
3.42089
3.33598
3.25724
3.18554
3.12144
3.06688
3.02435
2.995
2.97938
2.97771
2.98988
3.01544
3.05381
3.10441
3.16657
3.23957
3.32257
3.41468
3.51481
3.62171
3.734
3.85017
3.9687
4.08811
4.20697
4.32391
4.4376
4.54694
4.65111
4.74945
4.84131
4.92611
5.00345
5.07306
5.1349
5.18912
5.23612
5.27654
5.31134
5.34181
5.36956
5.39649
5.42474
5.45663
5.49448
5.54039
5.59617
5.66323
5.74269
5.83554
5.94279
6.06541
6.2042
6.35957
10.9419
10.6138
10.2916
9.97559
9.66618
9.36381
9.06893
8.78198
8.50335
8.23338
7.9723
7.72026
7.4773
7.24336
7.01827
6.8018
6.59366
6.39352
6.201
6.01574
5.83737
5.66552
5.49981
5.33988
5.18537
5.03594
4.89132
4.75122
4.61613
4.48707
4.36383
4.2453
4.13069
4.01943
3.91121
3.80595
3.70379
3.60505
3.51022
3.41994
3.33501
3.25633
3.18479
3.12098
3.06684
3.02485
2.99609
2.98103
2.97985
2.99239
3.01825
3.05683
3.10755
3.16973
3.24265
3.32547
3.41723
3.51684
3.62301
3.73433
3.8493
3.96638
4.08408
4.201
4.31577
4.42716
4.53411
4.63582
4.73162
4.82092
4.90319
4.97808
5.0454
5.10515
5.15754
5.20302
5.24229
5.27633
5.30642
5.33413
5.36129
5.38991
5.42214
5.46008
5.50568
5.56061
5.62626
5.70375
5.79412
5.89832
6.01721
6.15149
6.3015
10.96
10.6304
10.3066
9.98879
9.6775
9.37316
9.07626
8.78729
8.50666
8.23475
7.97186
7.71816
7.47374
7.23857
7.01253
6.7954
6.5869
6.38667
6.19436
6.00955
5.83184
5.6608
5.49601
5.33704
5.18348
5.03493
4.89105
4.7515
4.61672
4.48778
4.36448
4.24579
4.13094
4.0194
3.91089
3.80534
3.7029
3.60392
3.5089
3.41849
3.33352
3.25488
3.18348
3.11995
3.06622
3.02472
2.99651
2.98198
2.98125
2.99417
3.02031
3.05911
3.10996
3.17217
3.24502
3.32764
3.41906
3.51813
3.62356
3.73389
3.84761
3.9632
4.07917
4.1941
4.30668
4.41573
4.52023
4.61942
4.71264
4.79932
4.87901
4.95142
5.01641
5.07405
5.1246
5.16857
5.20669
5.23997
5.26969
5.29737
5.32475
5.35373
5.3863
5.42437
5.46974
5.52398
5.58842
5.66419
5.7523
5.85365
5.96903
6.09903
6.24397
10.9818
10.6508
10.3255
10.0061
9.69311
9.38695
9.08816
8.79725
8.51469
8.24089
7.97618
7.7208
7.47487
7.23839
7.01127
6.79332
6.58426
6.38375
6.19139
6.00677
5.82942
5.65889
5.4947
5.33636
5.18342
5.03543
4.89201
4.75273
4.61804
4.489
4.36548
4.24648
4.13125
4.01931
3.91039
3.80446
3.70166
3.60237
3.5071
3.41652
3.33146
3.25284
3.18159
3.11833
3.06499
3.02395
2.99626
2.98223
2.98194
2.99523
3.02166
3.06068
3.11166
3.17393
3.24671
3.32914
3.42021
3.51874
3.62339
3.73271
3.84516
3.95923
4.07341
4.18632
4.29668
4.40334
4.50535
4.60196
4.69252
4.77654
4.85361
4.9235
4.98614
5.04166
5.09037
5.13283
5.16981
5.20235
5.2317
5.25934
5.28695
5.31629
5.34919
5.38744
5.43268
5.48638
5.54981
5.62407
5.71014
5.80887
5.92098
6.047
6.18721
11.007
10.6749
10.3483
10.0275
9.71288
9.40505
9.1045
8.81176
8.52735
8.2517
7.9852
7.72812
7.48061
7.24274
7.01442
6.79549
6.58569
6.38466
6.19201
6.00729
5.83001
5.65967
5.49575
5.33773
5.18509
5.03736
4.89409
4.75484
4.62
4.49067
4.36675
4.24729
4.13156
4.0191
3.90968
3.80326
3.70004
3.60037
3.50479
3.414
3.32883
3.25022
3.1791
3.11611
3.06313
3.02254
2.99534
2.98179
2.98194
2.99559
3.02232
3.06157
3.11271
3.17503
3.24777
3.33002
3.42073
3.5187
3.62256
3.73084
3.842
3.9545
4.06687
4.17772
4.2858
4.39003
4.4895
4.58346
4.67133
4.75263
4.82705
4.89439
4.95466
5.00803
5.0549
5.09586
5.13172
5.16352
5.19252
5.22014
5.24796
5.27766
5.31092
5.34939
5.39459
5.44789
5.5105
5.58347
5.66774
5.7641
5.87323
5.99559
6.13148
11.0353
10.7023
10.3746
10.0526
9.73662
9.42729
9.12513
8.83069
8.54451
8.26708
7.9988
7.74
7.49088
7.25152
7.02188
6.80181
6.59107
6.3893
6.19611
6.01101
5.8335
5.66304
5.49907
5.34104
5.1884
5.04062
4.89723
4.75773
4.62252
4.49271
4.36823
4.24815
4.1318
4.01872
3.90869
3.80171
3.69798
3.59787
3.50194
3.4109
3.3256
3.24698
3.17598
3.11326
3.06065
3.02049
2.99375
2.98067
2.98126
2.99528
3.02232
3.06182
3.11313
3.17554
3.24824
3.33031
3.42067
3.51807
3.62114
3.72836
3.83819
3.94909
4.05959
4.16834
4.27411
4.37586
4.47272
4.56398
4.64909
4.72765
4.79936
4.86413
4.92201
4.97324
5.01827
5.05774
5.09249
5.12358
5.15223
5.17984
5.20789
5.23796
5.2716
5.31035
5.3556
5.40864
5.4706
5.54249
5.62519
5.71947
5.82593
5.94505
6.07711
11.0667
10.7328
10.4043
10.0812
9.76412
9.45348
9.14986
8.85385
8.56602
8.28687
8.01686
7.75634
7.50555
7.26462
7.03353
6.81217
6.60029
6.39756
6.20356
6.01781
5.83977
5.66888
5.50456
5.3462
5.19324
5.04512
4.90133
4.76134
4.62554
4.49505
4.36985
4.24902
4.13192
4.0181
3.90738
3.79976
3.69545
3.59485
3.49852
3.4072
3.32175
3.24311
3.17223
3.10978
3.05753
3.01778
2.99151
2.9789
2.97992
2.99433
3.0217
3.06147
3.11298
3.17549
3.24818
3.33008
3.42009
3.51692
3.61917
3.72531
3.83377
3.94304
4.05163
4.15823
4.26164
4.36086
4.45505
4.54355
4.62586
4.70162
4.7706
4.83277
4.88824
4.93733
4.98054
5.01853
5.05221
5.0826
5.11093
5.13853
5.16682
5.19728
5.23134
5.27042
5.31582
5.36873
5.43023
5.50126
5.58267
5.67516
5.77935
5.89569
6.02453
11.1008
10.7663
10.4371
10.1132
9.79515
9.48338
9.17849
8.88107
8.59169
8.31091
8.03921
7.77698
7.52449
7.28191
7.04926
6.82644
6.61323
6.40931
6.21425
6.02757
5.84871
5.67709
5.5121
5.35312
5.19954
5.05079
4.90632
4.76559
4.62898
4.49764
4.37155
4.24984
4.13187
4.01722
3.90571
3.79737
3.69243
3.59128
3.49452
3.40288
3.31726
3.23859
3.16782
3.10565
3.05376
3.01442
2.98861
2.97648
2.97795
2.99277
3.0205
3.06056
3.1123
3.17494
3.24764
3.32939
3.41904
3.5153
3.61672
3.72174
3.82882
3.9364
4.04304
4.14744
4.24843
4.34506
4.43652
4.52221
4.60167
4.67458
4.7408
4.80035
4.85342
4.90037
4.94176
4.97832
5.01093
5.04066
5.06869
5.09632
5.12488
5.15574
5.19027
5.22975
5.27541
5.32834
5.38956
5.45998
5.54037
5.63146
5.73382
5.84798
5.97438
11.1374
10.8025
10.4727
10.1482
9.82943
9.51676
9.21078
8.9121
8.62132
8.339
8.06567
7.80174
7.54753
7.30323
7.06891
6.84448
6.62976
6.42442
6.22806
6.04017
5.86021
5.68756
5.5216
5.36169
5.2072
5.05754
4.91214
4.77043
4.6328
4.50041
4.37329
4.25056
4.1316
4.01602
3.90365
3.79452
3.68887
3.58713
3.4899
3.39793
3.31211
3.2334
3.16275
3.10085
3.04933
3.01041
2.98507
2.97343
2.97537
2.99063
3.01875
3.05914
3.11113
3.17394
3.24666
3.32828
3.41759
3.51327
3.61383
3.71772
3.82336
3.92922
4.03386
4.136
4.23452
4.32849
4.41717
4.49999
4.57653
4.64657
4.71
4.76692
4.81758
4.86241
4.90202
4.93716
4.96876
4.99786
5.02563
5.05331
5.08216
5.11349
5.14854
5.18851
5.23454
5.28767
5.34883
5.4189
5.49864
5.58875
5.68987
5.80261
5.92758
11.1761
10.8408
10.5108
10.186
9.86667
9.55331
9.24646
8.9467
8.65466
8.37092
8.09603
7.83044
7.57449
7.32842
7.09232
6.86615
6.64973
6.44277
6.24486
6.05551
5.87416
5.7002
5.53297
5.37184
5.21616
5.06532
4.91872
4.7758
4.63694
4.50334
4.37503
4.25115
4.1311
4.01448
3.90116
3.79117
3.68476
3.58238
3.48464
3.39231
3.30629
3.22754
3.157
3.09539
3.04424
3.00575
2.9809
2.96977
2.97221
2.98794
3.01649
3.05725
3.10954
3.17253
3.24531
3.32681
3.41579
3.51088
3.61057
3.7133
3.81746
3.92154
4.02412
4.12394
4.21992
4.31118
4.39701
4.47689
4.55049
4.61761
4.67823
4.73252
4.78078
4.82351
4.86137
4.89514
4.92577
4.9543
4.98186
5.00963
5.03884
5.07068
5.10633
5.14692
5.19348
5.247
5.30837
5.37842
5.45793
5.54763
5.64825
5.76056
5.88545
12.5851
12.2365
11.893
11.5534
11.2148
10.8805
10.5508
10.226
9.90652
9.59274
9.28523
8.9846
8.69146
8.40643
8.13007
7.86285
7.60517
7.35729
7.11933
6.89128
6.673
6.46422
6.26453
6.07347
5.89046
5.7149
5.54613
5.3835
5.22635
5.07406
4.92603
4.78167
4.64138
4.50639
4.37674
4.25158
4.13032
4.01258
3.89822
3.7873
3.68008
3.57701
3.47873
3.38601
3.29977
3.22097
3.15056
3.08924
3.03848
3.00045
2.97611
2.96552
2.9685
2.98474
3.01376
3.05494
3.10756
3.17079
3.24365
3.32504
3.41369
3.50819
3.60699
3.70851
3.81115
3.9134
4.01385
4.11129
4.20466
4.29313
4.37605
4.45295
4.52355
4.58772
4.64553
4.69718
4.74307
4.78374
4.81989
4.85236
4.88208
4.9101
4.93751
4.96546
4.99509
5.02755
5.06393
5.10527
5.15256
5.20673
5.26864
5.33911
5.41893
5.50894
5.61002
5.7232
5.84982
12.6244
12.275
11.9311
11.5914
11.2545
10.9214
10.5924
10.268
9.94864
9.6347
9.32678
9.02548
8.73143
8.44525
8.16752
7.89876
7.63936
7.38964
7.14975
6.91972
6.69943
6.48863
6.28696
6.09394
5.90902
5.7316
5.56101
5.39661
5.23772
5.08373
4.93402
4.78799
4.64608
4.50952
4.37839
4.25183
4.12925
4.01029
3.89481
3.78289
3.6748
3.571
3.47215
3.37903
3.29255
3.2137
3.14341
3.0824
3.03206
2.99451
2.97072
2.9607
2.96427
2.98107
3.01061
3.05226
3.10526
3.16876
3.24173
3.32303
3.41136
3.50524
3.60313
3.7034
3.80447
3.90482
4.00308
4.09806
4.18875
4.27437
4.35431
4.42817
4.49573
4.55694
4.61191
4.66095
4.7045
4.74316
4.77768
4.80892
4.83782
4.86542
4.89278
4.92101
4.95119
4.9844
5.02167
5.06399
5.11228
5.16744
5.23031
5.30174
5.38261
5.47387
5.57667
5.69245
5.82316
12.6644
12.3146
11.9706
11.6312
11.2954
10.9634
10.6354
10.3117
9.99269
9.67886
9.37078
9.06903
8.77426
8.4871
8.20813
7.93789
7.67683
7.42526
7.1834
6.95129
6.72886
6.51588
6.31202
6.11682
5.92975
5.7502
5.57754
5.4111
5.25023
5.09429
4.94266
4.79476
4.65103
4.51274
4.37997
4.25188
4.12787
4.00759
3.89091
3.77792
3.66891
3.56434
3.46488
3.37133
3.28462
3.20571
3.13556
3.07487
3.02497
2.98794
2.96474
2.95535
2.95955
2.97697
3.0071
3.04926
3.1027
3.16649
3.23961
3.32084
3.40884
3.5021
3.59903
3.69801
3.79743
3.89582
3.99181
4.08425
4.17219
4.25487
4.33178
4.40255
4.46704
4.52526
4.57742
4.62388
4.66514
4.70187
4.73485
4.76496
4.79316
4.82046
4.84792
4.87658
4.90748
4.94166
4.98007
5.02366
5.07332
5.12993
5.19434
5.26747
5.35032
5.44407
5.55023
5.67082
5.80869
13.7873
13.4187
13.0585
12.7031
12.3542
12.0107
11.672
11.3373
11.0065
10.6795
10.3567
10.0383
9.72487
9.41687
9.11491
8.81963
8.53165
8.25159
7.97999
7.71731
7.46392
7.22006
6.9858
6.76112
6.54582
6.33958
6.142
5.95255
5.77065
5.59567
5.42695
5.26384
5.10571
4.95195
4.80196
4.65621
4.51602
4.38148
4.25173
4.12618
4.00448
3.88653
3.7724
3.6624
3.55701
3.45691
3.36292
3.27595
3.19699
3.12698
3.06665
3.01722
2.98075
2.95819
2.94948
2.95438
2.97248
3.00325
3.046
3.09992
3.16406
3.23735
3.31853
3.40619
3.49879
3.59473
3.69236
3.79008
3.88641
3.98005
4.06987
4.15496
4.23465
4.30845
4.37609
4.43748
4.49273
4.5421
4.58603
4.62508
4.65998
4.69154
4.72067
4.74833
4.77552
4.80327
4.83259
4.86449
4.89992
4.93984
4.98513
5.03667
5.09535
5.16209
5.23788
5.32393
5.42175
5.53337
5.66162
5.81053
13.8269
13.4572
13.0962
12.7419
12.3938
12.0512
11.7134
11.3798
11.0502
10.7245
10.4027
10.0852
9.77236
9.46469
9.16276
8.86718
8.57859
8.29759
8.02475
7.76055
7.50538
7.25951
7.02306
6.79604
6.57829
6.36954
6.16939
5.97736
5.79288
5.61534
5.4441
5.27853
5.11798
4.96187
4.80958
4.66164
4.51938
4.38291
4.25137
4.12417
4.00097
3.88165
3.76631
3.65526
3.54901
3.44824
3.35377
3.26654
3.18754
3.11769
3.05772
3.00881
2.97296
2.9511
2.94313
2.94879
2.96765
2.99913
3.04253
3.09698
3.16153
3.23501
3.31614
3.40345
3.49538
3.59027
3.68647
3.7824
3.8766
3.96779
4.05489
4.13706
4.21368
4.28432
4.34879
4.40709
4.45938
4.50601
4.54749
4.58445
4.61766
4.64798
4.67633
4.70367
4.73101
4.75935
4.78967
4.82293
4.86007
4.902
4.94959
5.00373
5.06534
5.13542
5.21513
5.30597
5.40988
5.5296
5.66901
5.83373
13.8666
13.4961
13.1348
12.7808
12.4334
12.0917
11.755
11.4227
11.0944
10.7699
10.4494
10.133
9.82098
9.51388
9.21221
8.91656
8.62756
8.3458
8.07186
7.80625
7.54937
7.30152
7.06287
6.83346
6.61317
6.40176
6.19889
6.00409
5.81683
5.63652
5.46255
5.29428
5.13111
4.97242
4.81764
4.66732
4.52283
4.38429
4.25083
4.12186
3.99705
3.87627
3.75965
3.6475
3.54034
3.43885
3.34389
3.25639
3.17734
3.10767
3.0481
2.99975
2.96458
2.94348
2.93633
2.94283
2.96253
2.9948
3.0389
3.09396
3.15894
3.23265
3.31373
3.40068
3.49188
3.58566
3.68036
3.77441
3.86637
3.95501
4.03931
4.11847
4.19194
4.25938
4.32066
4.37587
4.42525
4.46923
4.50839
4.54342
4.57515
4.60446
4.63231
4.65967
4.68753
4.71688
4.74868
4.78386
4.82335
4.86802
4.91877
4.97649
5.04217
5.11695
5.20222
5.29983
5.41233
5.54337
5.69818
5.88442
13.9061
13.5351
13.1735
12.8198
12.473
12.1322
11.7965
11.4655
11.1386
10.8156
10.4965
10.1813
9.87036
9.56405
9.26288
8.96739
8.67819
8.39587
8.121
7.85411
7.59561
7.34584
7.10501
6.87317
6.65027
6.43612
6.23038
6.03266
5.84244
5.65918
5.48226
5.3111
5.14508
4.98362
4.82616
4.67327
4.52638
4.38562
4.25011
4.11926
3.99273
3.87041
3.75243
3.63911
3.53098
3.42875
3.33327
3.24549
3.1664
3.09692
3.0378
2.99006
2.95563
2.93537
2.92912
2.93655
2.95716
2.9903
3.0352
3.09091
3.15637
3.23032
3.31134
3.3979
3.48832
3.58092
3.67403
3.76609
3.85571
3.9417
4.02309
4.09915
4.16942
4.23362
4.29172
4.34388
4.39043
4.43189
4.46891
4.50225
4.53278
4.56143
4.58918
4.61702
4.64594
4.67691
4.71089
4.74881
4.79156
4.84002
4.89509
4.95773
5.02902
5.11027
5.20316
5.31003
5.43417
5.58035
5.75554
5.96989
13.9453
13.5737
13.212
12.8585
12.5122
12.1723
11.8378
11.5081
11.1826
10.8612
10.5436
10.2298
9.92013
9.61484
9.31439
9.01929
8.73011
8.44744
8.17183
7.9038
7.64382
7.39221
7.14923
6.91499
6.68945
6.47247
6.26378
6.063
5.86967
5.68327
5.50323
5.32897
5.15992
4.9955
4.83516
4.67952
4.53007
4.38694
4.24925
4.1164
3.98804
3.86408
3.74465
3.63009
3.52095
3.41793
3.32191
3.23384
3.15471
3.08547
3.02681
2.97975
2.94615
2.92681
2.92155
2.93
2.95161
2.98571
3.03146
3.0879
3.15387
3.22807
3.30904
3.39515
3.48473
3.57605
3.66746
3.75743
3.84459
3.92781
4.00619
4.07909
4.1461
4.20705
4.262
4.31118
4.35505
4.39419
4.42933
4.46131
4.49105
4.51954
4.54776
4.57675
4.6075
4.64099
4.67817
4.71997
4.76728
4.82099
4.88202
4.95139
5.03031
5.1203
5.22342
5.34259
5.48199
5.64779
5.849
6.09883
13.9839
13.6119
13.25
12.8967
12.551
12.2118
11.8784
11.5501
11.2262
10.9063
10.5904
10.2782
9.96992
9.66585
9.36634
9.07186
8.78294
8.50013
8.22397
7.955
7.69367
7.44035
7.19531
6.95868
6.73051
6.51067
6.29895
6.09501
5.89845
5.70877
5.52544
5.34791
5.17564
5.00807
4.84468
4.68612
4.53394
4.38829
4.24828
4.11329
3.983
3.85731
3.73634
3.62047
3.51025
3.4064
3.30981
3.22144
3.1423
3.0733
3.01517
2.96885
2.93615
2.91783
2.91366
2.92322
2.94594
2.98108
3.02777
3.08498
3.1515
3.22597
3.30684
3.39246
3.4811
3.57105
3.66065
3.74839
3.83296
3.9133
3.98858
4.05824
4.12196
4.17969
4.23155
4.27792
4.31931
4.35642
4.39007
4.42117
4.45072
4.47973
4.50927
4.54037
4.57407
4.61137
4.65322
4.70055
4.75425
4.81522
4.88442
4.96295
5.05215
5.15381
5.27043
5.40558
5.56453
5.75505
5.98856
6.28173
14.0218
13.6494
13.2873
12.9341
12.5889
12.2505
11.9182
11.5912
11.2689
10.9508
10.6365
10.326
10.0194
9.71671
9.41835
9.12471
8.83627
8.55355
8.27707
8.00735
7.74485
7.48995
7.24296
7.00404
6.77326
6.55056
6.33578
6.12862
5.92872
5.73563
5.54887
5.36792
5.19226
5.02138
4.85476
4.6931
4.53803
4.38971
4.24723
4.10999
3.97765
3.85011
3.72752
3.61026
3.49889
3.39417
3.29698
3.20831
3.12915
3.06044
3.00288
2.95738
2.92568
2.90847
2.90549
2.91628
2.9402
2.97649
3.02419
3.08223
3.14933
3.22404
3.30478
3.38983
3.47745
3.56589
3.65354
3.73891
3.82077
3.89811
3.9702
4.03658
4.09702
4.15158
4.20052
4.24428
4.28353
4.31906
4.35177
4.38269
4.41288
4.44344
4.47549
4.51012
4.5484
4.59136
4.63996
4.69513
4.75778
4.82881
4.9092
5.00014
5.10313
5.22022
5.3544
5.51004
5.6936
5.91464
6.18722
6.53171
14.0588
13.6859
13.3236
12.9706
12.6258
12.2882
11.957
11.6313
11.3106
10.9941
10.6817
10.373
10.0681
9.76703
9.47003
9.17744
8.88971
8.60731
8.33074
8.06048
7.79701
7.54071
7.2919
7.05079
6.81749
6.59197
6.37412
6.1637
5.9604
5.76382
5.57352
5.38901
5.20982
5.03545
4.86543
4.70052
4.5424
4.39125
4.24617
4.10654
3.97201
3.84252
3.71821
3.59948
3.4869
3.38125
3.28344
3.19445
3.1153
3.0469
2.98997
2.94537
2.91477
2.8988
2.89712
2.90925
2.93448
2.972
3.02079
3.0797
3.14738
3.22232
3.30287
3.38726
3.47373
3.56053
3.64608
3.72894
3.80795
3.88219
3.95102
4.0141
4.07133
4.12287
4.1691
4.21063
4.24823
4.28281
4.31541
4.34715
4.37921
4.41279
4.44909
4.48927
4.53447
4.58573
4.64405
4.71035
4.78552
4.87047
4.9662
5.07394
5.19534
5.33278
5.48975
5.67146
5.88569
6.14387
6.46271
6.86614
14.0948
13.7212
13.3588
13.0058
12.6614
12.3246
11.9944
11.6701
11.3509
11.0362
10.7256
10.4189
10.1158
9.81645
9.52098
9.22966
8.94286
8.66101
8.38457
8.11402
7.84979
7.59229
7.34184
7.09869
6.86296
6.6347
6.41383
6.20016
5.99343
5.79329
5.59935
5.41118
5.22832
5.05033
4.87676
4.70843
4.5471
4.39298
4.24514
4.10298
3.96616
3.83459
3.70845
3.58815
3.47429
3.36766
3.26919
3.17988
3.10075
3.03272
2.97647
2.93287
2.90348
2.88885
2.88861
2.90218
2.92884
2.96768
3.01763
3.07745
3.14572
3.22085
3.30112
3.38473
3.46991
3.55492
3.6382
3.7184
3.79442
3.86547
3.93103
3.99085
4.045
4.09377
4.1377
4.17753
4.2142
4.24877
4.28244
4.31648
4.35219
4.39092
4.43398
4.48264
4.53809
4.60144
4.67368
4.75574
4.84846
4.95271
5.06949
5.20004
5.34616
5.51053
5.69718
5.91219
6.1646
6.46767
6.84044
7.3096
14.1294
13.7553
13.3926
13.0396
12.6956
12.3595
12.0303
11.7073
11.3896
11.0767
10.768
10.4632
10.1621
9.8646
9.57083
9.28097
8.99532
8.71426
8.4382
8.16758
7.90283
7.64434
7.39246
7.14743
6.90944
6.67855
6.45472
6.23784
6.02769
5.82397
5.62634
5.43441
5.24779
5.06605
4.8888
4.7169
4.5522
4.39495
4.24422
4.09939
3.96012
3.82636
3.69828
3.57631
3.46109
3.35342
3.25426
3.16462
3.08553
3.01791
2.96243
2.91992
2.89186
2.8787
2.88001
2.89517
2.92336
2.96361
3.01478
3.07553
3.14436
3.21961
3.2995
3.38221
3.46593
3.54896
3.62981
3.7072
3.78015
3.84796
3.91026
3.96697
4.01829
4.0647
4.10692
4.14588
4.1827
4.21864
4.25511
4.29355
4.33549
4.38244
4.43588
4.4972
4.56769
4.6485
4.74065
4.84502
4.96239
5.09354
5.2394
5.40123
5.58092
5.78141
6.00724
6.26528
6.56569
6.92315
7.35824
7.89889
14.1627
13.788
13.4249
13.0719
12.7282
12.3927
12.0645
11.7427
11.4265
11.1153
10.8085
10.5057
10.2067
9.91116
9.61923
9.331
9.0467
8.76665
8.4912
8.22077
7.95574
7.69652
7.44342
7.19674
6.95665
6.72327
6.49662
6.27661
6.06308
5.85579
5.65445
5.45872
5.26824
5.08265
4.90159
4.72599
4.55778
4.39725
4.24346
4.09581
3.95397
3.81788
3.68774
3.56401
3.44733
3.33856
3.23867
3.1487
3.06968
3.00252
2.94787
2.90656
2.87996
2.86841
2.87141
2.88827
2.91811
2.95986
3.01229
3.07397
3.14333
3.21861
3.298
3.37963
3.46171
3.5426
3.62085
3.6953
3.76509
3.82968
3.88885
3.94271
3.99165
4.03636
4.07778
4.11708
4.15563
4.19495
4.23671
4.28263
4.33449
4.39406
4.46303
4.54297
4.63532
4.74127
4.86185
4.99788
5.15004
5.31898
5.50551
5.7108
5.9368
6.18661
6.46515
6.77983
7.14149
7.56539
8.07225
8.68894
14.1943
13.819
13.4555
13.1025
12.759
12.4241
12.0967
11.7761
11.4614
11.1519
10.847
10.5462
10.2492
9.95578
9.66582
9.37939
9.09663
8.8178
8.54321
8.2732
8.00816
7.74845
7.49439
7.24627
7.00431
6.76864
6.53931
6.31629
6.09946
5.88865
5.68361
5.48406
5.28968
5.10016
4.91518
4.73575
4.56389
4.39994
4.24296
4.09234
3.94777
3.80921
3.67688
3.55127
3.43306
3.32312
3.22246
3.13215
3.05321
2.98657
2.93285
2.89286
2.86785
2.85805
2.86288
2.88158
2.91316
2.95648
3.01021
3.07282
3.14263
3.21784
3.29656
3.37693
3.45719
3.53573
3.61124
3.68266
3.7493
3.81079
3.86711
3.91858
3.96586
4.00987
4.05186
4.09329
4.13586
4.18145
4.23208
4.28985
4.35689
4.43532
4.52714
4.63418
4.75804
4.90003
5.06119
5.24225
5.44376
5.66616
5.91002
6.17635
6.46691
6.78476
7.13478
7.52433
7.96396
8.46805
9.05531
9.74864
14.2241
13.8482
13.4843
13.1312
12.7879
12.4534
12.1268
11.8073
11.494
11.1861
10.8831
10.5844
10.2895
9.99818
9.71029
9.42579
9.14474
8.86734
8.59382
8.3245
8.0597
7.79977
7.54501
7.29572
7.05211
6.81436
6.58255
6.35668
6.13669
5.92244
5.71376
5.5104
5.3121
5.1186
4.92962
4.74626
4.57062
4.4031
4.24277
4.08903
3.94159
3.80042
3.66577
3.53815
3.4183
3.30712
3.20566
3.11499
3.03618
2.97012
2.91743
2.87888
2.85561
2.8477
2.85451
2.87516
2.9086
2.95355
3.00858
3.07208
3.14226
3.21724
3.29512
3.37404
3.45227
3.52832
3.60097
3.66935
3.73295
3.79162
3.8456
3.89546
3.94217
3.98701
4.03156
4.07771
4.1276
4.18357
4.24813
4.32389
4.4135
4.51954
4.64445
4.79042
4.95932
5.15263
5.37138
5.61618
5.8873
6.18477
6.50864
6.85925
7.23764
7.64599
8.08811
8.56991
9.09979
9.68899
10.3514
11.1032
14.2521
13.8755
13.5112
13.1579
12.8147
12.4806
12.1548
11.8362
11.5242
11.218
10.9167
10.62
10.3272
10.0381
9.75234
9.46988
9.1907
8.91491
8.64269
8.37429
8.10999
7.8501
7.59492
7.34473
7.09975
6.86017
6.62609
6.39757
6.17458
5.95703
5.74479
5.53767
5.33547
5.13797
4.94494
4.75755
4.57802
4.4068
4.24298
4.08598
3.9355
3.79157
3.65445
3.52471
3.40311
3.29062
3.1883
3.09728
3.01862
2.95322
2.90166
2.86469
2.84331
2.83746
2.84638
2.86912
2.90449
2.95113
3.00746
3.07177
3.14218
3.21678
3.29362
3.37088
3.44691
3.52034
3.59012
3.65558
3.71644
3.77283
3.82529
3.87476
3.92257
3.97043
4.02044
4.07499
4.13681
4.20889
4.29439
4.39663
4.51893
4.66454
4.83649
5.03746
5.26965
5.53461
5.83323
6.16561
6.53115
6.92859
7.35629
7.81247
8.29566
8.80516
9.34142
9.90647
10.5042
11.1407
11.8238
12.5631
14.2782
13.9008
13.536
13.1824
12.8393
12.5055
12.1803
11.8627
11.5519
11.2472
10.9477
10.6529
10.3622
10.0753
9.79171
9.51138
9.23419
8.96018
8.68945
8.4222
8.15866
7.89909
7.64377
7.39296
7.14689
6.90575
6.66967
6.43873
6.21294
5.99226
5.77659
5.56581
5.35976
5.15827
4.96115
4.76967
4.58616
4.41113
4.24368
4.08325
3.92959
3.78273
3.643
3.511
3.38754
3.27365
3.17044
3.07906
3.00059
2.93594
2.88561
2.85038
2.83105
2.82741
2.8386
2.86354
2.90092
2.94925
3.00685
3.07187
3.14238
3.2164
3.292
3.36742
3.44113
3.51191
3.57894
3.64179
3.70049
3.75551
3.80778
3.85866
3.90999
3.96405
4.02355
4.09158
4.17166
4.2676
4.38346
4.52345
4.69181
4.89261
5.12955
5.40572
5.72333
6.08343
6.48567
6.92811
7.40716
7.9177
8.45337
9.00702
9.57153
10.1406
10.7097
11.2772
11.8452
12.4196
13.0095
13.6254
14.3022
13.924
13.5586
13.2048
12.8616
12.5281
12.2034
11.8867
11.577
11.2736
10.9758
10.6829
10.3943
10.1095
9.82816
9.55002
9.27493
9.00284
8.73378
8.46789
8.20535
7.94638
7.6912
7.44008
7.19321
6.95081
6.713
6.4799
6.25155
6.02794
5.80902
5.59471
5.3849
5.17946
4.97827
4.78267
4.5951
4.41614
4.24493
4.08094
3.92393
3.77399
3.63149
3.49708
3.37165
3.25626
3.15211
3.06038
2.98215
2.91832
2.86937
2.83602
2.81891
2.81764
2.83124
2.85849
2.89795
2.94798
3.00677
3.07239
3.14282
3.21607
3.29026
3.36371
3.43507
3.50334
3.56796
3.62884
3.68637
3.74144
3.79548
3.85041
3.90869
3.97331
4.04777
4.1361
4.24276
4.37263
4.53087
4.7228
4.95361
5.2281
5.55022
5.92261
6.34599
6.81862
7.33585
7.88988
8.46981
9.06226
9.65253
10.2263
10.7715
11.2811
11.7537
12.1945
12.613
13.0201
13.4269
13.8416
14.7155
14.3231
13.9446
13.5787
13.2247
12.8815
12.5482
12.224
11.908
11.5993
11.2973
11.001
10.7099
10.4233
10.1406
9.86149
9.58559
9.31267
9.04261
8.77539
8.51106
8.24975
7.99162
7.73687
7.48572
7.23837
6.99501
6.75578
6.52081
6.29017
6.06387
5.84191
5.62424
5.4108
5.2015
4.99628
4.79654
4.60486
4.42189
4.24681
4.07911
3.9186
3.76542
3.61998
3.48302
3.35548
3.23852
3.13338
3.04129
2.96336
2.90046
2.85301
2.82171
2.807
2.80827
2.82441
2.85407
2.89564
2.94735
3.00725
3.07332
3.1435
3.21581
3.28847
3.35995
3.42911
3.49525
3.55815
3.61813
3.67604
3.7333
3.79195
3.85458
3.92446
4.00544
4.10202
4.21929
4.36291
4.53896
4.75376
5.01357
5.3241
5.68987
6.11335
6.59405
7.12755
7.7048
8.31183
8.9303
9.53886
10.1158
10.6425
11.1074
11.5072
11.8476
12.1386
12.3928
12.6203
12.8271
13.0162
13.1878
14.7351
14.342
13.9628
13.5965
13.2421
12.8988
12.5657
12.2419
11.9266
11.6189
11.318
11.0232
10.7338
10.4491
10.1685
9.89156
9.6179
9.3472
9.07927
8.81401
8.55141
8.29154
8.0345
7.78045
7.52957
7.28204
7.03804
6.79771
6.56118
6.32854
6.09983
5.87507
5.65425
5.43735
5.22432
5.01514
4.8113
4.61548
4.42843
4.24937
4.07784
3.91368
3.75709
3.60856
3.46888
3.33911
3.22048
3.1143
3.02185
2.94427
2.88242
2.83662
2.80755
2.79541
2.79939
2.81821
2.85036
2.89406
2.9474
3.00831
3.0747
3.14449
3.21577
3.28691
3.3566
3.424
3.48877
3.55113
3.61188
3.67247
3.73495
3.80209
3.87732
3.96482
4.06949
4.19694
4.35348
4.54593
4.78144
5.06703
5.40894
5.81168
6.27685
6.80177
7.37823
7.99173
8.62158
9.24228
9.82655
10.3498
10.7956
11.1587
11.444
11.6626
11.8275
11.9475
12.0281
12.071
12.0751
12.0372
11.9543
14.7525
14.3585
13.9787
13.6118
13.2571
12.9137
12.5807
12.2572
11.9424
11.6356
11.3358
11.0423
10.7545
10.4716
10.193
9.91823
9.64679
9.37833
9.11259
8.84941
8.58869
8.33044
8.07472
7.82163
7.5713
7.32391
7.07958
6.83848
6.60072
6.36639
6.13557
5.90829
5.68457
5.46442
5.24783
5.0348
4.82691
4.62697
4.43581
4.25269
4.0772
3.90925
3.74908
3.59728
3.45474
3.3226
3.20219
3.09492
3.00213
2.92497
2.86428
2.8203
2.79365
2.78427
2.79112
2.81276
2.84746
2.89331
2.94823
3.01006
3.07665
3.14599
3.2163
3.28614
3.35454
3.42101
3.4857
3.54934
3.61334
3.67983
3.75163
3.83235
3.92637
4.03888
4.17588
4.3441
4.55087
4.80381
5.11024
5.47641
5.9062
6.39963
6.95127
7.54881
8.17259
8.79647
9.39059
9.92604
10.3807
10.7446
11.0205
11.2192
11.3523
11.4294
11.4551
11.4308
11.355
11.2256
11.0398
10.7966
14.7675
14.3727
13.9921
13.6247
13.2696
12.926
12.593
12.2698
11.9555
11.6494
11.3505
11.0583
10.772
10.4908
10.2141
9.94142
9.67216
9.40594
9.14243
8.88139
8.62268
8.36622
8.11201
7.86012
7.61062
7.36365
7.11932
6.87777
6.63911
6.40344
6.17083
5.94134
5.715
5.49184
5.27189
5.05517
4.84335
4.63933