/*--------------------------------*- C++ -*----------------------------------*\
  =========                 |
  \\      /  F ield         | OpenFOAM: The Open Source CFD Toolbox
   \\    /   O peration     | Website:  https://openfoam.org
    \\  /    A nd           | Version:  10
     \\/     M anipulation  |
\*---------------------------------------------------------------------------*/
FoamFile
{
    format      ascii;
    class       volVectorField;
    location    "52000";
    object      U;
}
// * * * * * * * * * * * * * * * * * * * * * * * * * * * * * * * * * * * * * //

dimensions      [0 1 -1 0 0 0 0];

internalField   nonuniform List<vector> 
17981
(
(0.107206 3.28613 9.74683e-22)
(0.103427 3.29365 -9.77443e-22)
(0.09972 3.30085 0)
(0.0960802 3.30771 -6.17514e-21)
(0.0925087 3.3142 1.35903e-20)
(0.0890085 3.32034 -7.3578e-21)
(0.0855822 3.3261 0)
(0.0822324 3.33149 6.35556e-22)
(0.0789617 3.3365 0)
(0.0757725 3.34114 0)
(0.0726669 3.34541 -7.77001e-22)
(0.0696469 3.34932 1.4335e-20)
(0.0667137 3.35289 -1.29676e-20)
(0.0638685 3.35613 0)
(0.0611119 3.35904 0)
(0.0584441 3.36165 0)
(0.0558651 3.36397 0)
(0.0533743 3.36602 -1.46006e-20)
(0.0509709 3.36781 1.39809e-20)
(0.0486538 3.36935 2.90243e-20)
(0.0464216 3.37067 -2.73644e-20)
(0.0442729 3.37178 -4.38328e-22)
(0.0422057 3.37269 0)
(0.0402182 3.37342 0)
(0.0383083 3.37398 2.75902e-20)
(0.0364739 3.37438 -2.60645e-20)
(0.0347127 3.37464 2.6782e-20)
(0.0330226 3.37477 -2.573e-20)
(0.0314011 3.37477 -3.99862e-22)
(0.0298461 3.37467 0)
(0.0283551 3.37446 1.93046e-22)
(0.0269258 3.37417 -1.89505e-22)
(0.025556 3.37379 -1.85921e-22)
(0.0242434 3.37333 2.33673e-20)
(0.0229858 3.3728 -2.25099e-20)
(0.021781 3.37222 -1.75048e-22)
(0.0206269 3.37157 0)
(0.0195215 3.37088 0)
(0.0184627 3.37015 1.64206e-22)
(0.0174486 3.36937 -2.086e-20)
(0.0164773 3.36857 -9.86669e-23)
(0.015547 3.36773 1.93858e-20)
(0.0146559 3.36686 7.50619e-23)
(0.0138023 3.36597 0)
(0.0129847 3.36507 0)
(0.0122014 3.36415 0)
(0.0114509 3.36321 0)
(0.0107319 3.36226 -1.73454e-20)
(0.0417445 3.30223 -5.93058e-21)
(0.0373384 3.31004 0)
(0.0330183 3.3175 -1.70739e-20)
(0.0287863 3.32462 4.20075e-20)
(0.0246447 3.33135 -2.3861e-20)
(0.0205965 3.33771 3.60033e-20)
(0.0166446 3.34367 -3.47675e-20)
(0.0127919 3.34923 6.32998e-22)
(0.00904107 3.35439 1.41404e-21)
(0.00539458 3.35915 -5.12629e-20)
(0.00185448 3.36352 1.02089e-19)
(-0.00157763 3.36751 -5.23044e-20)
(-0.00490064 3.37112 0)
(-0.00811395 3.37437 1.75843e-21)
(-0.0112175 3.37727 -5.91975e-20)
(-0.0142115 3.37985 5.66371e-20)
(-0.017097 3.38212 6.00465e-20)
(-0.0198752 3.38409 -5.74539e-20)
(-0.0225475 3.38578 9.16018e-22)
(-0.025116 3.38722 0)
(-0.0275828 3.38842 -4.56513e-22)
(-0.0299502 3.38938 5.93234e-20)
(-0.0322209 3.39014 -5.55266e-20)
(-0.0343976 3.39071 5.84712e-20)
(-0.0364831 3.3911 -1.12078e-19)
(-0.0384803 3.39132 5.41159e-20)
(-0.0403922 3.3914 -5.51863e-20)
(-0.0422216 3.39133 5.30134e-20)
(-0.0439717 3.39114 4.12771e-22)
(-0.0456453 3.39084 0)
(-0.0472455 3.39043 1.98757e-22)
(-0.048775 3.38992 1.95614e-22)
(-0.0502368 3.38933 -4.93691e-20)
(-0.0516336 3.38867 4.79215e-20)
(-0.0529682 3.38793 -5.53159e-22)
(-0.0542433 3.38714 4.68036e-20)
(-0.0554612 3.38629 -4.49528e-20)
(-0.0566247 3.38539 0)
(-0.057736 3.38445 4.35401e-20)
(-0.0587975 3.38347 -8.44398e-20)
(-0.0598114 3.38246 4.07864e-20)
(-0.0607799 3.38142 -4.07092e-20)
(-0.061705 3.38036 -6.99419e-22)
(-0.0625888 3.37928 3.84389e-20)
(-0.0634331 3.37818 0)
(-0.0642398 3.37707 0)
(-0.0650106 3.37595 1.41385e-22)
(-0.0657471 3.37482 -7.00033e-23)
(-0.0228053 3.31842 0)
(-0.0278815 3.32648 9.3683e-21)
(-0.0328496 3.3342 -9.99117e-21)
(-0.0377069 3.34155 2.43439e-20)
(-0.0424504 3.34851 -2.52311e-20)
(-0.0470765 3.35506 -2.02471e-21)
(-0.051582 3.3612 0)
(-0.0559634 3.36691 -1.35478e-21)
(-0.0602177 3.37219 -4.36072e-21)
(-0.0643424 3.37705 0)
(-0.0683355 3.38148 1.65927e-21)
(-0.0721955 3.3855 3.4082e-21)
(-0.0759216 3.38911 0)
(-0.0795139 3.39234 -1.88124e-23)
(-0.0829727 3.3952 1.83678e-21)
(-0.0862993 3.39771 0)
(-0.0894953 3.39988 1.23394e-19)
(-0.0925628 3.40174 -1.16114e-19)
(-0.0955042 3.4033 -1.24334e-19)
(-0.0983225 3.40459 1.18065e-19)
(-0.101021 3.40562 -1.86832e-21)
(-0.103602 3.40641 0)
(-0.106071 3.40698 9.16223e-22)
(-0.108429 3.40734 -9.12877e-22)
(-0.110682 3.40752 8.99294e-22)
(-0.112833 3.40753 -1.1442e-19)
(-0.114886 3.40738 1.10708e-19)
(-0.116844 3.40709 -8.62056e-22)
(-0.118712 3.40667 0)
(-0.120492 3.40613 1.072e-19)
(-0.122189 3.40548 2.58052e-21)
(-0.123806 3.40474 -1.02915e-19)
(-0.125347 3.40391 0)
(-0.126815 3.403 0)
(-0.128213 3.40203 -9.85476e-20)
(-0.129545 3.40099 9.53752e-20)
(-0.130813 3.39991 -3.65029e-22)
(-0.132021 3.39877 0)
(-0.133171 3.3976 3.49993e-22)
(-0.134266 3.39639 -3.42529e-22)
(-0.135309 3.39515 -8.63432e-20)
(-0.136302 3.39389 8.33918e-20)
(-0.137248 3.39261 1.60231e-22)
(-0.138149 3.39131 -1.56749e-22)
(-0.139007 3.39 -3.06299e-22)
(-0.139824 3.38868 0)
(-0.140602 3.38736 -1.46126e-22)
(-0.141343 3.38603 -7.4516e-20)
(-0.108878 3.36577 -1.53077e-21)
(-0.114112 3.3725 2.11861e-21)
(-0.1192 3.37878 8.40379e-20)
(-0.124136 3.38462 -1.73884e-19)
(-0.128917 3.38999 9.23479e-20)
(-0.13354 3.39491 -3.15505e-21)
(-0.138004 3.39937 1.09314e-19)
(-0.142306 3.40338 -1.11247e-19)
(-0.146447 3.40696 0)
(-0.150427 3.41013 -1.86713e-21)
(-0.154247 3.4129 1.22741e-19)
(-0.15791 3.4153 -1.19063e-19)
(-0.161418 3.41733 -1.22682e-19)
(-0.164774 3.41903 -9.6916e-21)
(-0.167981 3.42042 1.21174e-19)
(-0.171045 3.42151 -1.26068e-19)
(-0.173968 3.42233 1.20653e-19)
(-0.176756 3.4229 0)
(-0.179413 3.42324 1.21151e-19)
(-0.181944 3.42336 -2.39604e-19)
(-0.184353 3.42329 1.13907e-19)
(-0.186645 3.42304 1.17583e-19)
(-0.188826 3.42263 -1.11973e-19)
(-0.190899 3.42207 -8.84646e-22)
(-0.19287 3.42138 -1.13082e-19)
(-0.194743 3.42057 -7.01246e-22)
(-0.196522 3.41965 -3.94505e-21)
(-0.198212 3.41863 1.06772e-19)
(-0.199817 3.41753 1.05213e-19)
(-0.20134 3.41635 -2.04555e-19)
(-0.202786 3.41511 1.0024e-19)
(-0.204159 3.41381 -9.91466e-20)
(-0.205462 3.41245 9.60025e-20)
(-0.206698 3.41106 -9.51113e-20)
(-0.207872 3.40963 -2.39568e-21)
(-0.208985 3.40816 8.98925e-20)
(-0.210041 3.40667 1.03806e-21)
(-0.211044 3.40517 -8.68591e-20)
(-0.211995 3.40364 8.39261e-20)
(-0.212898 3.4021 3.23716e-22)
(-0.213754 3.40056 3.16463e-22)
(-0.214567 3.39901 7.93075e-20)
(-0.215339 3.39746 -7.7005e-20)
(-0.216071 3.39591 0)
(-0.17478 3.38321 -4.14839e-20)
(-0.180657 3.39009 -4.03769e-21)
(-0.186358 3.3965 0)
(-0.191878 3.40243 9.44819e-20)
(-0.197211 3.40786 -9.04803e-20)
(-0.202355 3.41279 6.48255e-21)
(-0.207307 3.41724 6.85577e-21)
(-0.212065 3.42121 0)
(-0.216631 3.42471 0)
(-0.221006 3.42777 -3.77208e-21)
(-0.225191 3.4304 0)
(-0.229191 3.43263 0)
(-0.233008 3.43447 -3.95918e-21)
(-0.236648 3.43596 1.98672e-21)
(-0.240114 3.43712 -1.29622e-19)
(-0.243414 3.43797 1.23948e-19)
(-0.246552 3.43854 -1.26423e-19)
(-0.249534 3.43884 1.22918e-19)
(-0.252366 3.43889 1.93564e-21)
(-0.255054 3.43873 0)
(-0.257603 3.43837 -1.23299e-19)
(-0.260021 3.43782 -5.21252e-21)
(-0.262313 3.4371 -4.96007e-21)
(-0.264484 3.43624 1.17057e-19)
(-0.266539 3.43523 -1.1625e-19)
(-0.268486 3.43411 -3.39778e-21)
(-0.270328 3.43288 1.12614e-19)
(-0.272072 3.43156 -1.11209e-19)
(-0.273721 3.43015 1.06291e-19)
(-0.27528 3.42867 0)
(-0.276755 3.42712 1.04253e-19)
(-0.27815 3.42552 -1.02123e-19)
(-0.279468 3.42388 0)
(-0.280714 3.42219 7.60859e-22)
(-0.281892 3.42047 7.45345e-22)
(-0.283005 3.41872 7.30011e-22)
(-0.284057 3.41696 9.13521e-20)
(-0.28505 3.41518 -1.80091e-19)
(-0.285989 3.41338 8.8092e-20)
(-0.286876 3.41158 0)
(-0.287714 3.40978 0)
(-0.288506 3.40798 8.26748e-20)
(-0.289254 3.40619 -7.9672e-20)
(-0.289961 3.4044 0)
(-0.240302 3.40095 -4.31087e-20)
(-0.246863 3.40796 -6.94651e-20)
(-0.253213 3.41446 1.56078e-19)
(-0.259347 3.42044 -8.17755e-20)
(-0.265258 3.42588 -1.04011e-19)
(-0.270942 3.43079 9.59969e-20)
(-0.276397 3.43517 -3.51494e-21)
(-0.281623 3.43903 0)
(-0.28662 3.4424 -1.25251e-19)
(-0.29139 3.44529 2.5136e-19)
(-0.295939 3.44772 7.96404e-21)
(-0.30027 3.44973 -1.24089e-19)
(-0.304388 3.45133 -4.01051e-21)
(-0.3083 3.45255 -1.3261e-19)
(-0.312013 3.45343 1.26701e-19)
(-0.315534 3.45398 -1.32124e-19)
(-0.31887 3.45423 -5.01576e-21)
(-0.322027 3.45421 1.25802e-19)
(-0.325015 3.45394 -5.95532e-21)
(-0.32784 3.45344 0)
(-0.330509 3.45273 5.70516e-24)
(-0.33303 3.45184 1.92601e-21)
(-0.33541 3.45077 1.23125e-19)
(-0.337656 3.44956 3.00674e-21)
(-0.339774 3.44821 -2.36112e-19)
(-0.341772 3.44674 1.13106e-19)
(-0.343654 3.44516 -3.57345e-21)
(-0.345428 3.44349 0)
(-0.347098 3.44174 -2.23073e-19)
(-0.348671 3.43992 2.15016e-19)
(-0.350152 3.43804 0)
(-0.351546 3.43611 8.16566e-22)
(-0.352858 3.43413 2.06612e-19)
(-0.354092 3.43213 -2.00242e-19)
(-0.355252 3.43009 0)
(-0.356343 3.42804 -7.53699e-22)
(-0.357369 3.42597 7.38384e-22)
(-0.358334 3.42389 7.22659e-22)
(-0.35924 3.42181 -1.82914e-19)
(-0.360092 3.41972 1.76202e-19)
(-0.360892 3.41764 -6.7752e-22)
(-0.361644 3.41557 -1.71138e-19)
(-0.36235 3.41351 1.64967e-19)
(-0.363013 3.41146 0)
(-0.312951 3.42619 -3.92686e-21)
(-0.319987 3.43274 -4.75091e-21)
(-0.326764 3.43871 0)
(-0.333274 3.44411 -6.06146e-21)
(-0.339514 3.44893 -6.56659e-21)
(-0.345481 3.45318 0)
(-0.351175 3.45688 -1.23494e-19)
(-0.356601 3.46004 1.17634e-19)
(-0.361761 3.46269 0)
(-0.366661 3.46486 -2.6495e-19)
(-0.371308 3.46657 2.56674e-19)
(-0.37571 3.46786 4.12184e-21)
(-0.379876 3.46875 0)
(-0.383813 3.46928 0)
(-0.387531 3.46948 -4.1193e-21)
(-0.391039 3.46936 0)
(-0.394347 3.46896 2.66949e-19)
(-0.397463 3.4683 -5.20463e-19)
(-0.400398 3.46741 5.15941e-19)
(-0.403158 3.46631 -2.49498e-19)
(-0.405755 3.46502 0)
(-0.408195 3.46357 2.50781e-19)
(-0.410487 3.46196 -2.42934e-19)
(-0.412639 3.46021 0)
(-0.414658 3.45835 2.43544e-19)
(-0.416553 3.45639 -4.68626e-19)
(-0.418329 3.45434 2.27242e-19)
(-0.419993 3.45221 -2.29729e-19)
(-0.421552 3.45002 2.19765e-19)
(-0.423012 3.44777 -2.21512e-19)
(-0.424379 3.44548 2.13762e-19)
(-0.425657 3.44315 0)
(-0.426853 3.44079 2.0744e-19)
(-0.427971 3.43841 -2.0196e-19)
(-0.429016 3.43602 0)
(-0.429992 3.43363 -1.97437e-19)
(-0.430904 3.43123 1.90907e-19)
(-0.431754 3.42883 -7.32255e-22)
(-0.432548 3.42644 -1.8452e-19)
(-0.433289 3.42406 3.59079e-19)
(-0.433979 3.4217 -1.7404e-19)
(-0.434622 3.41936 1.73387e-19)
(-0.435221 3.41703 1.67988e-21)
(-0.394399 3.4573 -5.44503e-21)
(-0.401516 3.46258 1.86984e-22)
(-0.40831 3.46723 6.77679e-21)
(-0.414782 3.47126 0)
(-0.420932 3.47471 -2.57636e-19)
(-0.426768 3.47758 4.88822e-19)
(-0.432294 3.47991 1.8678e-20)
(-0.437521 3.48174 1.72429e-20)
(-0.442456 3.48309 -2.69109e-19)
(-0.447112 3.48399 -4.15976e-21)
(-0.451497 3.48449 0)
(-0.455625 3.4846 -2.76149e-19)
(-0.459506 3.48437 -7.44373e-21)
(-0.463151 3.48382 2.67962e-19)
(-0.466573 3.48299 0)
(-0.469782 3.48189 1.66047e-23)
(-0.472789 3.48056 4.11972e-21)
(-0.475606 3.47902 -4.08223e-21)
(-0.478241 3.47729 0)
(-0.480705 3.47539 2.57387e-19)
(-0.483009 3.47334 -2.49425e-19)
(-0.485159 3.47117 0)
(-0.487167 3.46888 1.9184e-21)
(-0.489039 3.46649 2.4468e-19)
(-0.490785 3.46402 -2.32087e-19)
(-0.492411 3.46148 0)
(-0.493924 3.45888 2.32629e-19)
(-0.495332 3.45623 -2.24496e-19)
(-0.496641 3.45355 1.73807e-21)
(-0.497858 3.45084 0)
(-0.498987 3.4481 1.67478e-21)
(-0.500034 3.44536 0)
(-0.501005 3.44261 -2.07682e-19)
(-0.501905 3.43986 4.04355e-19)
(-0.502737 3.43712 -3.9626e-19)
(-0.503507 3.43439 1.9443e-19)
(-0.504218 3.43167 0)
(-0.504875 3.42897 7.26786e-22)
(-0.50548 3.4263 -1.83166e-19)
(-0.506038 3.42365 3.55867e-19)
(-0.506551 3.42103 -1.76075e-19)
(-0.470264 3.4812 -2.05895e-19)
(-0.477587 3.48558 1.95011e-19)
(-0.484532 3.48931 0)
(-0.491103 3.49241 7.61562e-21)
(-0.49731 3.49491 1.26157e-22)
(-0.503161 3.49683 0)
(-0.50867 3.49823 0)
(-0.513849 3.49913 1.67984e-20)
(-0.518711 3.49958 4.26731e-21)
(-0.523271 3.4996 4.2623e-21)
(-0.527543 3.49923 0)
(-0.53154 3.49851 -2.81306e-19)
(-0.535277 3.49748 2.64914e-19)
(-0.538767 3.49615 2.79061e-19)
(-0.542024 3.49456 -2.63252e-19)
(-0.54506 3.49273 -4.23309e-21)
(-0.547888 3.4907 4.19633e-21)
(-0.55052 3.48848 0)
(-0.552966 3.4861 4.10912e-21)
(-0.55524 3.48357 2.62957e-19)
(-0.55735 3.48093 -2.53139e-19)
(-0.559306 3.47817 -2.59723e-19)
(-0.561118 3.47533 2.48443e-19)
(-0.562796 3.47241 -3.83637e-21)
(-0.564347 3.46942 0)
(-0.565778 3.46639 3.71607e-21)
(-0.5671 3.46332 2.37795e-19)
(-0.568317 3.46021 -2.29712e-19)
(-0.569437 3.45709 2.27663e-19)
(-0.570467 3.45396 -4.43525e-19)
(-0.571412 3.45082 2.1607e-19)
(-0.572279 3.44769 -2.15088e-19)
(-0.573072 3.44457 2.08076e-19)
(-0.573796 3.44146 -8.02121e-22)
(-0.574457 3.43838 4.9908e-25)
(-0.575058 3.43532 7.70843e-22)
(-0.575605 3.43228 0)
(-0.5761 3.42929 -7.39473e-22)
(-0.576547 3.42632 0)
(-0.57695 3.42339 7.18875e-22)
(-0.55492 3.50713 0)
(-0.561851 3.50978 7.52156e-21)
(-0.568366 3.51181 7.98378e-21)
(-0.57448 3.51325 0)
(-0.580208 3.51413 -2.77189e-19)
(-0.585568 3.51451 2.5555e-19)
(-0.590576 3.51442 -8.59053e-21)
(-0.59525 3.51391 -4.37169e-21)
(-0.599606 3.513 -2.86895e-19)
(-0.603662 3.51173 -1.25948e-20)
(-0.607433 3.51015 2.79159e-19)
(-0.610937 3.50827 0)
(-0.614187 3.50614 -2.8373e-19)
(-0.6172 3.50378 -9.35541e-21)
(-0.619989 3.50121 5.54191e-19)
(-0.622567 3.49846 -2.68497e-19)
(-0.624949 3.49556 -2.73627e-19)
(-0.627145 3.49252 5.29656e-19)
(-0.629168 3.48937 -2.64592e-19)
(-0.631029 3.48611 -2.03009e-21)
(-0.632736 3.48278 -2.00832e-21)
(-0.634303 3.47937 -2.51991e-19)
(-0.635737 3.47591 -4.99146e-21)
(-0.637048 3.47242 2.41449e-19)
(-0.638243 3.46889 -1.88937e-21)
(-0.639332 3.46535 0)
(-0.64032 3.46179 -1.82646e-21)
(-0.641216 3.45824 0)
(-0.642026 3.45469 0)
(-0.642756 3.45116 0)
(-0.643411 3.44765 1.69877e-21)
(-0.643998 3.44416 0)
(-0.64452 3.44071 -8.16722e-22)
(-0.644984 3.43729 5.65157e-25)
(-0.645393 3.43391 -7.85223e-22)
(-0.645751 3.43057 1.99471e-19)
(-0.646063 3.42727 -1.91804e-19)
(-0.646331 3.42403 1.92494e-19)
(-0.652141 3.52918 2.80786e-19)
(-0.657604 3.52897 -2.58982e-19)
(-0.662682 3.52828 8.8103e-21)
(-0.667396 3.52717 0)
(-0.671766 3.52566 -2.92386e-19)
(-0.675811 3.5238 2.79797e-19)
(-0.679551 3.52162 -2.62385e-23)
(-0.683003 3.51916 4.46132e-21)
(-0.686186 3.51644 0)
(-0.689115 3.5135 -4.42815e-21)
(-0.691807 3.51036 -4.4161e-21)
(-0.694277 3.50705 -2.84204e-19)
(-0.696539 3.5036 2.7357e-19)
(-0.698606 3.50001 4.2976e-21)
(-0.700492 3.49632 7.82117e-24)
(-0.70221 3.49254 2.75967e-19)
(-0.70377 3.48869 -2.62219e-19)
(-0.705184 3.48478 -2.04533e-21)
(-0.706461 3.48083 -2.01496e-21)
(-0.707611 3.47686 0)
(-0.708643 3.47286 2.52677e-19)
(-0.709566 3.46886 -2.44318e-19)
(-0.710388 3.46485 2.44452e-19)
(-0.711116 3.46086 -2.38381e-19)
(-0.711757 3.45689 -2.36053e-19)
(-0.712318 3.45294 2.30319e-19)
(-0.712804 3.44903 -1.7654e-21)
(-0.713223 3.44515 -2.21571e-19)
(-0.713578 3.44131 2.14626e-19)
(-0.713876 3.43752 -2.13962e-19)
(-0.714121 3.43378 2.09799e-19)
(-0.714316 3.43009 2.0554e-19)
(-0.714467 3.42646 -2.00819e-19)
(-0.714577 3.42288 -7.80277e-22)
(-0.724415 3.54309 0)
(-0.729895 3.54223 -1.05932e-22)
(-0.734962 3.54089 2.9353e-19)
(-0.739637 3.53913 -2.89411e-19)
(-0.743946 3.53698 0)
(-0.747909 3.53448 -9.10106e-21)
(-0.751548 3.53167 4.53569e-21)
(-0.754884 3.52859 2.98882e-19)
(-0.757936 3.52526 1.09174e-20)
(-0.760722 3.52171 -2.81786e-19)
(-0.76326 3.51798 -2.90127e-19)
(-0.765566 3.51408 2.83622e-19)
(-0.767656 3.51005 2.89895e-19)
(-0.769545 3.50591 -2.75004e-19)
(-0.771246 3.50166 2.88421e-19)
(-0.772774 3.49734 -2.78426e-19)
(-0.77414 3.49296 -4.28153e-21)
(-0.775355 3.48853 2.73727e-19)
(-0.776432 3.48408 -5.28253e-19)
(-0.777379 3.4796 -7.16615e-21)
(-0.778208 3.47512 2.5739e-19)
(-0.778926 3.47065 -2.58128e-19)
(-0.779543 3.46618 2.51787e-19)
(-0.780067 3.46174 -2.47906e-19)
(-0.780504 3.45733 4.87563e-19)
(-0.780862 3.45296 -2.37913e-19)
(-0.781148 3.44863 0)
(-0.781367 3.44435 -1.80643e-21)
(-0.781526 3.44012 1.77342e-21)
(-0.781629 3.43595 -3.48172e-21)
(-0.781681 3.43185 -2.20717e-19)
(-0.781687 3.4278 2.14877e-19)
(-0.781651 3.42382 1.64198e-21)
(-0.781578 3.41991 0)
(-0.796875 3.55558 -2.66947e-19)
(-0.802281 3.55403 2.84949e-19)
(-0.807247 3.55201 -5.88085e-19)
(-0.811802 3.54957 2.94561e-19)
(-0.81597 3.54675 -9.22919e-21)
(-0.819777 3.54359 -2.96375e-19)
(-0.823244 3.54013 2.83852e-19)
(-0.826396 3.5364 3.0177e-19)
(-0.829252 3.53243 -2.99197e-19)
(-0.831834 3.52826 3.00174e-19)
(-0.834158 3.52392 -2.98111e-19)
(-0.836244 3.51942 0)
(-0.838108 3.5148 -4.60028e-21)
(-0.839766 3.51008 2.91995e-19)
(-0.841232 3.50527 -5.7998e-19)
(-0.842522 3.50039 2.83669e-19)
(-0.843647 3.49547 6.69949e-24)
(-0.844621 3.49051 0)
(-0.845454 3.48554 -8.66908e-21)
(-0.846159 3.48056 2.78652e-19)
(-0.846745 3.47558 -5.40226e-19)
(-0.847222 3.47063 2.63928e-19)
(-0.847599 3.4657 0)
(-0.847883 3.4608 0)
(-0.848084 3.45595 -2.56175e-19)
(-0.848209 3.45115 4.9822e-19)
(-0.848263 3.4464 -2.44182e-19)
(-0.848254 3.44171 2.43253e-19)
(-0.848187 3.43709 -2.35882e-19)
(-0.848069 3.43254 -8.6115e-25)
(-0.847903 3.42806 -2.30127e-19)
(-0.847695 3.42366 2.215e-19)
(-0.847449 3.41933 -8.59837e-22)
(-0.847169 3.41509 -2.2015e-19)
(-0.869293 3.56639 8.70497e-21)
(-0.874528 3.56413 0)
(-0.879306 3.56141 9.25489e-21)
(-0.883656 3.55828 0)
(-0.887605 3.55477 3.20431e-19)
(-0.89118 3.55094 -3.07657e-19)
(-0.894406 3.54681 0)
(-0.897307 3.54243 9.60741e-21)
(-0.899905 3.53783 3.195e-19)
(-0.902222 3.53303 -2.98069e-19)
(-0.904277 3.52806 -4.79791e-21)
(-0.906089 3.52296 4.77998e-21)
(-0.907675 3.51775 3.14097e-19)
(-0.909053 3.51244 -6.05647e-19)
(-0.910238 3.50706 2.9657e-19)
(-0.911246 3.50163 3.10872e-19)
(-0.912088 3.49616 -2.86972e-19)
(-0.91278 3.49067 -2.95144e-19)
(-0.913333 3.48518 5.86284e-19)
(-0.913758 3.47969 -2.82339e-19)
(-0.914066 3.47422 0)
(-0.914268 3.46878 0)
(-0.914372 3.46338 0)
(-0.914387 3.45803 0)
(-0.914321 3.45274 2.07631e-21)
(-0.914183 3.4475 0)
(-0.913979 3.44234 -2.01103e-21)
(-0.913715 3.43724 2.56795e-19)
(-0.913398 3.43223 -2.47221e-19)
(-0.913033 3.42729 -6.50824e-25)
(-0.912627 3.42245 -2.41473e-19)
(-0.912182 3.41768 2.34363e-19)
(-0.911704 3.41301 1.80729e-21)
(-0.911198 3.40843 0)
(-0.946345 3.57233 2.82416e-19)
(-0.950851 3.5689 -3.09674e-19)
(-0.954917 3.56508 6.11042e-19)
(-0.958574 3.56089 -2.91894e-19)
(-0.961849 3.55639 9.8271e-21)
(-0.964769 3.5516 0)
(-0.967359 3.54657 -6.0806e-23)
(-0.969642 3.54133 -9.9134e-21)
(-0.97164 3.53591 3.24158e-19)
(-0.973374 3.53034 -3.02629e-19)
(-0.974863 3.52463 -1.81183e-23)
(-0.976126 3.51883 4.92772e-21)
(-0.977181 3.51294 0)
(-0.978043 3.507 3.16293e-19)
(-0.978729 3.50101 -3.10766e-19)
(-0.979251 3.495 3.10752e-19)
(-0.979625 3.48899 -6.08436e-19)
(-0.979862 3.48298 2.93191e-19)
(-0.979974 3.47699 4.64924e-21)
(-0.979973 3.47103 0)
(-0.979869 3.46511 0)
(-0.979671 3.45924 -2.89103e-19)
(-0.979389 3.45344 2.80384e-19)
(-0.979031 3.4477 -2.17689e-21)
(-0.978605 3.44204 0)
(-0.978117 3.43646 2.11079e-21)
(-0.977576 3.43096 -2.07689e-21)
(-0.976986 3.42556 0)
(-0.976354 3.42024 2.5861e-19)
(-0.975686 3.41503 -5.03153e-19)
(-0.974985 3.40991 2.46672e-19)
(-0.974257 3.4049 2.42952e-19)
(-0.973506 3.39998 -2.39336e-19)
(-1.01738 3.57847 2.99849e-19)
(-1.02154 3.57437 -2.95812e-19)
(-1.02526 3.56987 9.71301e-21)
(-1.02856 3.56502 3.26393e-19)
(-1.03148 3.55986 -3.03624e-19)
(-1.03403 3.55444 -1.0116e-20)
(-1.03626 3.54878 3.23921e-19)
(-1.03818 3.54292 2.34473e-20)
(-1.03981 3.53689 -3.23206e-19)
(-1.04118 3.53072 -1.54334e-20)
(-1.04231 3.52443 -1.02841e-20)
(-1.04321 3.51805 -3.3833e-19)
(-1.0439 3.5116 6.5373e-19)
(-1.04441 3.5051 -6.50251e-19)
(-1.04474 3.49857 3.139e-19)
(-1.04491 3.49203 -3.24424e-19)
(-1.04493 3.48549 3.14302e-19)
(-1.04483 3.47898 4.91663e-21)
(-1.0446 3.47249 -3.14837e-19)
(-1.04426 3.46605 3.05307e-19)
(-1.04383 3.45966 4.75774e-21)
(-1.04331 3.45334 0)
(-1.0427 3.44709 0)
(-1.04203 3.44092 -2.95123e-19)
(-1.0413 3.43483 2.86498e-19)
(-1.0405 3.42884 2.84147e-19)
(-1.03967 3.42295 -2.78075e-19)
(-1.03879 3.41715 0)
(-1.03787 3.41147 4.2341e-21)
(-1.03692 3.40589 -2.67986e-19)
(-1.03595 3.40043 2.62364e-19)
(-1.03496 3.39507 2.58535e-19)
(-1.03395 3.38983 -2.56806e-19)
(-1.08727 3.58251 3.01911e-19)
(-1.09103 3.57776 0)
(-1.09434 3.57262 -1.00668e-20)
(-1.09723 3.56714 -9.78614e-23)
(-1.09974 3.56136 -1.04e-20)
(-1.10189 3.55532 3.5377e-19)
(-1.10372 3.54906 -6.76399e-19)
(-1.10523 3.5426 3.43968e-19)
(-1.10646 3.53599 0)
(-1.10743 3.52924 3.4842e-19)
(-1.10816 3.52238 -3.20733e-19)
(-1.10867 3.51545 0)
(-1.10898 3.50845 3.51242e-19)
(-1.1091 3.50142 -6.79169e-19)
(-1.10905 3.49436 6.80838e-19)
(-1.10884 3.48731 8.0983e-21)
(-1.1085 3.48027 -6.66202e-19)
(-1.10802 3.47326 3.26733e-19)
(-1.10744 3.46629 -7.22758e-24)
(-1.10674 3.45938 3.27039e-19)
(-1.10596 3.45253 -3.27447e-19)
(-1.10509 3.44576 0)
(-1.10415 3.43907 0)
(-1.10315 3.43248 -3.1349e-19)
(-1.10209 3.42598 -4.56415e-21)
(-1.10098 3.41959 3.00298e-19)
(-1.09983 3.4133 0)
(-1.09865 3.40714 0)
(-1.09744 3.40108 -2.23818e-21)
(-1.0962 3.39515 -2.20141e-21)
(-1.09494 3.38934 -4.32841e-21)
(-1.09367 3.38366 2.7583e-19)
(-1.09239 3.3781 -5.44639e-19)
(-1.15895 3.57911 3.09511e-19)
(-1.16182 3.57337 3.39783e-19)
(-1.16427 3.5673 -3.37263e-19)
(-1.16634 3.56093 -3.40646e-19)
(-1.16806 3.55431 3.27726e-19)
(-1.16944 3.54748 0)
(-1.17053 3.54046 -1.10779e-20)
(-1.17133 3.53329 3.62283e-19)
(-1.17188 3.52599 2.39529e-20)
(-1.17219 3.5186 -7.25802e-19)
(-1.17228 3.51113 3.46145e-19)
(-1.17218 3.50362 3.56406e-19)
(-1.1719 3.49607 -3.50822e-19)
(-1.17145 3.48851 0)
(-1.17085 3.48096 -3.56629e-19)
(-1.17012 3.47344 7.00115e-19)
(-1.16927 3.46595 -3.491e-19)
(-1.16831 3.45852 -5.38738e-21)
(-1.16725 3.45115 0)
(-1.1661 3.44386 5.28239e-21)
(-1.16488 3.43665 0)
(-1.16359 3.42954 0)
(-1.16225 3.42253 -3.26262e-19)
(-1.16086 3.41563 3.2206e-19)
(-1.15942 3.40885 0)
(-1.15795 3.40219 0)
(-1.15645 3.39565 -2.40868e-21)
(-1.15494 3.38924 -3.07861e-19)
(-1.1534 3.38297 2.96943e-19)
(-1.15185 3.37682 3.85427e-25)
(-1.1503 3.37082 -2.92628e-19)
(-1.14874 3.36495 2.88605e-19)
(-1.22499 3.57857 3.41659e-19)
(-1.22739 3.57227 -3.17889e-19)
(-1.22938 3.56563 3.47123e-19)
(-1.23098 3.55871 -3.67077e-19)
(-1.23224 3.55154 -3.57717e-19)
(-1.23317 3.54417 3.44964e-19)
(-1.2338 3.53662 0)
(-1.23417 3.52892 0)
(-1.23428 3.52111 -3.79569e-19)
(-1.23416 3.51321 3.6761e-19)
(-1.23383 3.50525 1.75422e-20)
(-1.23331 3.49724 5.83975e-21)
(-1.23262 3.48921 5.83066e-21)
(-1.23177 3.48118 -3.77449e-19)
(-1.23077 3.47316 -9.15554e-21)
(-1.22965 3.46517 3.64645e-19)
(-1.22841 3.45723 3.70562e-19)
(-1.22707 3.44935 -3.59995e-19)
(-1.22564 3.44154 0)
(-1.22413 3.43382 0)
(-1.22255 3.4262 -3.56691e-19)
(-1.22091 3.41867 3.52132e-19)
(-1.21922 3.41126 3.48217e-19)
(-1.21749 3.40397 -6.84894e-19)
(-1.21572 3.39681 3.34167e-19)
(-1.21393 3.38978 -3.34237e-19)
(-1.21212 3.38288 6.56864e-19)
(-1.21029 3.37612 -3.177e-19)
(-1.20845 3.36951 0)
(-1.20661 3.36304 3.16358e-19)
(-1.20477 3.35672 -6.13901e-19)
(-1.20293 3.35055 3.02071e-19)
(-1.28882 3.57631 -3.27417e-19)
(-1.29077 3.56948 -1.10327e-20)
(-1.2923 3.56232 1.13194e-20)
(-1.29344 3.55487 3.78619e-19)
(-1.29423 3.54719 -3.53841e-19)
(-1.2947 3.53931 2.37767e-20)
(-1.29488 3.53127 -3.93049e-19)
(-1.29479 3.52309 -1.54073e-20)
(-1.29446 3.5148 3.71409e-19)
(-1.29391 3.50643 1.22428e-20)
(-1.29317 3.498 -1.23239e-20)
(-1.29223 3.48954 -6.16674e-21)
(-1.29113 3.48105 -6.16218e-21)
(-1.28988 3.47257 -6.13219e-21)
(-1.2885 3.46411 0)
(-1.28699 3.45568 0)
(-1.28537 3.4473 -6.04732e-21)
(-1.28365 3.43899 0)
(-1.28185 3.43077 -3.91405e-19)
(-1.27997 3.42263 -1.30232e-20)
(-1.27804 3.4146 7.43417e-19)
(-1.27604 3.40667 -7.47223e-19)
(-1.27401 3.39887 3.63603e-19)
(-1.27194 3.3912 -5.65612e-21)
(-1.26984 3.38367 -2.79246e-21)
(-1.26772 3.37627 0)
(-1.26559 3.36903 3.50233e-19)
(-1.26345 3.36193 -6.85741e-19)
(-1.2613 3.35498 3.35649e-19)
(-1.25917 3.34819 0)
(-1.25704 3.34156 3.31357e-19)
(-1.25492 3.33509 -3.21898e-19)
(-1.35031 3.57271 -3.6855e-19)
(-1.35181 3.56539 7.26157e-19)
(-1.35289 3.55768 -3.68371e-19)
(-1.35358 3.54965 1.22106e-20)
(-1.35391 3.5414 -4.18163e-19)
(-1.35394 3.533 -1.90132e-20)
(-1.35368 3.5245 8.20491e-19)
(-1.35317 3.51591 -4.12156e-19)
(-1.35241 3.50721 4.18696e-19)
(-1.35144 3.49843 -4.19106e-19)
(-1.35027 3.48958 0)
(-1.34893 3.4807 0)
(-1.34743 3.47179 -6.48495e-21)
(-1.34578 3.46289 4.27163e-19)
(-1.34401 3.45401 -4.08762e-19)
(-1.34211 3.44517 -6.43502e-21)
(-1.34012 3.43638 -4.14833e-19)
(-1.33803 3.42766 4.03424e-19)
(-1.33586 3.41902 -3.96236e-19)
(-1.33362 3.41048 4.04043e-19)
(-1.33133 3.40206 4.07777e-19)
(-1.32898 3.39375 6.72523e-21)
(-1.3266 3.38557 -3.86742e-19)
(-1.32419 3.37752 6.02627e-21)
(-1.32176 3.36962 -3.80627e-19)
(-1.31931 3.36187 3.70375e-19)
(-1.31686 3.35428 -2.89609e-21)
(-1.31441 3.34685 0)
(-1.31196 3.33958 -3.62443e-19)
(-1.30953 3.33247 -4.10982e-21)
(-1.30711 3.32554 -6.59389e-21)
(-1.30471 3.31877 3.46466e-19)
(-1.40939 3.56776 3.97134e-19)
(-1.41047 3.56014 -3.61892e-19)
(-1.41113 3.55206 1.24894e-20)
(-1.4114 3.54358 1.28529e-20)
(-1.41131 3.53481 1.31335e-20)
(-1.4109 3.52583 4.25053e-19)
(-1.41019 3.51674 -8.77972e-19)
(-1.40924 3.50758 4.39243e-19)
(-1.40806 3.49842 1.36477e-20)
(-1.40669 3.48926 0)
(-1.40513 3.48007 -4.58756e-19)
(-1.40339 3.47083 -1.35045e-20)
(-1.4015 3.46156 4.40128e-19)
(-1.39947 3.45228 0)
(-1.39731 3.44301 -4.44246e-19)
(-1.39504 3.43378 4.38952e-19)
(-1.39267 3.4246 1.36096e-20)
(-1.39021 3.4155 4.37835e-19)
(-1.38767 3.40647 1.95835e-21)
(-1.38507 3.39755 -4.16547e-19)
(-1.38242 3.38874 0)
(-1.37973 3.38005 -4.2349e-19)
(-1.377 3.3715 -6.78611e-21)
(-1.37425 3.36309 4.14407e-19)
(-1.37148 3.35484 -4.03064e-19)
(-1.36871 3.34674 4.01713e-19)
(-1.36594 3.33881 3.09656e-21)
(-1.36317 3.33105 0)
(-1.36042 3.32346 0)
(-1.35769 3.31605 2.96213e-21)
(-1.35498 3.30882 2.91598e-21)
(-1.3523 3.30177 0)
(-1.46599 3.5615 4.14002e-19)
(-1.46666 3.5537 -3.78907e-19)
(-1.46691 3.54536 4.22982e-19)
(-1.46677 3.53657 -4.37741e-19)
(-1.46626 3.52741 -1.08374e-22)
(-1.46543 3.518 0)
(-1.46431 3.50841 0)
(-1.46294 3.49874 4.7425e-19)
(-1.46135 3.48905 -9.46189e-19)
(-1.45956 3.47937 4.57522e-19)
(-1.45761 3.46974 1.45768e-20)
(-1.4555 3.46015 0)
(-1.45324 3.45055 -4.72756e-19)
(-1.45085 3.44092 -1.27487e-20)
(-1.44832 3.43131 9.31873e-19)
(-1.44569 3.42171 -4.66592e-19)
(-1.44295 3.41217 4.68677e-19)
(-1.44013 3.40269 -4.4915e-19)
(-1.43724 3.3933 0)
(-1.43429 3.384 -1.42396e-20)
(-1.43129 3.37482 7.05881e-21)
(-1.42825 3.36577 4.52192e-19)
(-1.42518 3.35686 -4.3348e-19)
(-1.42209 3.3481 -6.87183e-21)
(-1.419 3.3395 -1.35804e-20)
(-1.4159 3.33106 -4.32437e-19)
(-1.41281 3.3228 4.21106e-19)
(-1.40974 3.31471 4.20973e-19)
(-1.40668 3.30681 8.27313e-21)
(-1.40365 3.2991 -4.07125e-19)
(-1.40066 3.29157 -4.08567e-19)
(-1.39769 3.28424 -4.26531e-21)
(-1.51992 3.55407 -2.34073e-19)
(-1.52021 3.54621 1.90721e-19)
(-1.52008 3.53775 2.28828e-19)
(-1.51956 3.52875 -2.23373e-19)
(-1.51866 3.51932 4.72104e-19)
(-1.51744 3.50955 -4.72357e-19)
(-1.51592 3.49956 0)
(-1.51414 3.48945 1.54443e-20)
(-1.51215 3.47929 5.07406e-19)
(-1.50998 3.46915 -4.88951e-19)
(-1.50764 3.45907 0)
(-1.50517 3.44905 1.54741e-20)
(-1.50257 3.43909 1.54609e-20)
(-1.49984 3.42913 0)
(-1.49697 3.41918 0)
(-1.494 3.40923 7.75151e-21)
(-1.49092 3.39933 -1.54415e-20)
(-1.48776 3.3895 4.89908e-19)
(-1.48453 3.37974 -4.77163e-19)
(-1.48123 3.37008 1.61302e-23)
(-1.47789 3.36054 -1.51078e-20)
(-1.47452 3.35113 0)
(-1.47112 3.34187 4.71758e-19)
(-1.46771 3.33275 -4.66863e-19)
(-1.46429 3.32381 7.27909e-21)
(-1.46088 3.31504 -3.59218e-21)
(-1.45748 3.30645 0)
(-1.45411 3.29804 -3.50166e-21)
(-1.45076 3.28983 -4.21419e-24)
(-1.44744 3.28182 -4.35049e-19)
(-1.44416 3.274 4.26869e-19)
(-1.44092 3.26639 0)
(-1.57108 3.54555 -2.58806e-20)
(-1.57103 3.53776 2.28052e-19)
(-1.57056 3.52932 -2.38109e-19)
(-1.5697 3.52026 2.63803e-19)
(-1.56846 3.51067 -2.27506e-19)
(-1.56688 3.50066 -2.62895e-19)
(-1.565 3.49036 2.55125e-19)
(-1.56286 3.47988 -3.02792e-19)
(-1.5605 3.46932 2.93676e-19)
(-1.55796 3.45876 1.65951e-20)
(-1.55527 3.44826 1.65761e-20)
(-1.55245 3.43783 -3.31337e-20)
(-1.54952 3.42749 -1.65615e-20)
(-1.54647 3.41719 -5.3616e-19)
(-1.54329 3.4069 1.0663e-18)
(-1.54 3.39661 -5.30538e-19)
(-1.5366 3.38636 -5.25736e-19)
(-1.53312 3.37617 -1.15311e-20)
(-1.52956 3.36605 5.10372e-19)
(-1.52595 3.35604 8.15193e-21)
(-1.52229 3.34614 8.09821e-21)
(-1.5186 3.33637 0)
(-1.51488 3.32675 -7.95313e-21)
(-1.51116 3.31729 0)
(-1.50743 3.308 -7.79681e-21)
(-1.50372 3.29889 5.08888e-19)
(-1.50002 3.28997 -9.75661e-19)
(-1.49635 3.28125 4.78441e-19)
(-1.49271 3.27273 4.74233e-19)
(-1.48911 3.26441 -4.69091e-19)
(-1.48555 3.25631 3.60489e-21)
(-1.48205 3.24841 -3.59475e-21)
(-1.61949 3.53621 2.35279e-19)
(-1.61912 3.52848 0)
(-1.61837 3.52015 -2.48723e-19)
(-1.61722 3.51117 2.28817e-19)
(-1.61569 3.50157 -3.02686e-19)
(-1.61381 3.49144 -1.37579e-20)
(-1.61161 3.48092 2.87957e-19)
(-1.60914 3.47016 -2.87258e-19)
(-1.60645 3.45927 2.60182e-19)
(-1.60358 3.44835 -3.25261e-19)
(-1.60056 3.43747 2.6152e-19)
(-1.59743 3.42667 -2.52541e-19)
(-1.5942 3.41597 2.96018e-19)
(-1.59085 3.40533 -1.76204e-20)
(-1.58738 3.39471 2.77517e-19)
(-1.5838 3.38408 -2.70365e-19)
(-1.5801 3.37348 8.81422e-21)
(-1.57631 3.36293 0)
(-1.57245 3.35245 0)
(-1.56853 3.34208 0)
(-1.56457 3.33182 0)
(-1.56057 3.32169 5.56243e-19)
(-1.55655 3.31171 -5.33743e-19)
(-1.55253 3.3019 0)
(-1.54851 3.29227 -5.32111e-19)
(-1.5445 3.28282 -1.59309e-20)
(-1.54051 3.27357 5.24787e-19)
(-1.53655 3.26452 4.04701e-21)
(-1.53264 3.25569 -3.98702e-21)
(-1.52876 3.24707 5.06406e-19)
(-1.52495 3.23867 -9.91783e-19)
(-1.52118 3.23049 5.00154e-19)
(-1.66523 3.52636 2.82985e-20)
(-1.66457 3.51862 -2.78322e-19)
(-1.66357 3.51038 2.58201e-19)
(-1.66219 3.50156 -2.71226e-19)
(-1.66043 3.49207 2.84581e-19)
(-1.6583 3.48196 0)
(-1.65583 3.47136 -3.6692e-20)
(-1.65309 3.46041 3.24404e-19)
(-1.65011 3.44926 -6.68011e-21)
(-1.64695 3.43804 -5.88854e-19)
(-1.64365 3.42684 -1.05654e-20)
(-1.64024 3.41571 2.98214e-19)
(-1.63672 3.40468 -1.89295e-20)
(-1.63311 3.39372 3.06407e-19)
(-1.62938 3.38276 -2.98425e-19)