/*--------------------------------*- C++ -*----------------------------------*\
  =========                 |
  \\      /  F ield         | OpenFOAM: The Open Source CFD Toolbox
   \\    /   O peration     | Website:  https://openfoam.org
    \\  /    A nd           | Version:  10
     \\/     M anipulation  |
\*---------------------------------------------------------------------------*/
FoamFile
{
    format      ascii;
    class       volVectorField;
    location    "52000";
    object      Urel;
}
// * * * * * * * * * * * * * * * * * * * * * * * * * * * * * * * * * * * * * //

dimensions      [0 1 -1 0 0 0 0];

internalField   nonuniform List<vector> 
17981
(
(0.150732 -0.403466 9.74683e-22)
(0.147175 -0.414822 -9.77443e-22)
(0.143685 -0.425976 0)
(0.140256 -0.436958 -6.17514e-21)
(0.136889 -0.447795 1.35903e-20)
(0.133587 -0.45851 -7.3578e-21)
(0.130354 -0.469124 0)
(0.127192 -0.479654 6.35556e-22)
(0.124104 -0.490112 0)
(0.121092 -0.500507 0)
(0.118159 -0.510846 -7.77001e-22)
(0.115307 -0.521132 1.4335e-20)
(0.112536 -0.531366 -1.29676e-20)
(0.10985 -0.541547 0)
(0.107247 -0.55167 0)
(0.104729 -0.561733 0)
(0.102295 -0.571729 0)
(0.0999455 -0.581654 -1.46006e-20)
(0.0976794 -0.591501 1.39809e-20)
(0.0954957 -0.601263 2.90243e-20)
(0.0933933 -0.610934 -2.73644e-20)
(0.0913705 -0.620508 -4.38328e-22)
(0.0894259 -0.629979 0)
(0.0875574 -0.63934 0)
(0.0857633 -0.648587 2.75902e-20)
(0.0840414 -0.657715 -2.60645e-20)
(0.0823896 -0.666719 2.6782e-20)
(0.0808057 -0.675595 -2.573e-20)
(0.0792875 -0.684339 -3.99862e-22)
(0.0778328 -0.692949 0)
(0.0764393 -0.70142 1.93046e-22)
(0.0751049 -0.709752 -1.89505e-22)
(0.0738272 -0.717941 -1.85921e-22)
(0.0726042 -0.725987 2.33673e-20)
(0.0714336 -0.733889 -2.25099e-20)
(0.0703134 -0.741644 -1.75048e-22)
(0.0692416 -0.749254 0)
(0.0682161 -0.756717 0)
(0.0672349 -0.764034 1.64206e-22)
(0.0662963 -0.771205 -2.086e-20)
(0.0653984 -0.77823 -9.86669e-23)
(0.0645394 -0.785111 1.93858e-20)
(0.0637176 -0.791849 7.50619e-23)
(0.0629314 -0.798444 0)
(0.0621793 -0.804898 0)
(0.0614596 -0.811213 0)
(0.060771 -0.817389 0)
(0.060112 -0.82343 -1.73454e-20)
(0.171048 -0.385359 -5.93058e-21)
(0.167303 -0.396426 0)
(0.163627 -0.407302 -1.70739e-20)
(0.16002 -0.418017 4.20075e-20)
(0.156486 -0.428604 -2.3861e-20)
(0.153029 -0.439089 3.60033e-20)
(0.149651 -0.449495 -3.47675e-20)
(0.146356 -0.45984 6.32998e-22)
(0.143148 -0.47014 1.41404e-21)
(0.140028 -0.480404 -5.12629e-20)
(0.137001 -0.49064 1.02089e-19)
(0.134066 -0.50085 -5.23044e-20)
(0.131227 -0.511034 0)
(0.128484 -0.521191 1.75843e-21)
(0.125838 -0.531316 -5.91975e-20)
(0.123288 -0.541404 5.66371e-20)
(0.120834 -0.551448 6.00465e-20)
(0.118476 -0.56144 -5.74539e-20)
(0.116212 -0.571373 9.16018e-22)
(0.11404 -0.581239 0)
(0.111958 -0.591029 -4.56513e-22)
(0.109965 -0.600735 5.93234e-20)
(0.108058 -0.610351 -5.55266e-20)
(0.106235 -0.619869 5.84712e-20)
(0.104494 -0.629282 -1.12078e-19)
(0.102831 -0.638584 5.41159e-20)
(0.101244 -0.647769 -5.51863e-20)
(0.0997299 -0.656832 5.30134e-20)
(0.0982866 -0.665769 4.12771e-22)
(0.0969111 -0.674574 0)
(0.0956008 -0.683245 1.98757e-22)
(0.0943529 -0.691779 1.95614e-22)
(0.0931649 -0.700172 -4.93691e-20)
(0.0920341 -0.708423 4.79215e-20)
(0.0909581 -0.716529 -5.53159e-22)
(0.0899344 -0.72449 4.68036e-20)
(0.0889607 -0.732304 -4.49528e-20)
(0.0880347 -0.739971 0)
(0.0871541 -0.74749 4.35401e-20)
(0.0863169 -0.754862 -8.44398e-20)
(0.0855209 -0.762086 4.07864e-20)
(0.0847643 -0.769163 -4.07092e-20)
(0.084045 -0.776094 -6.99419e-22)
(0.0833614 -0.78288 3.84389e-20)
(0.0827116 -0.789522 0)
(0.0820939 -0.796022 0)
(0.0815069 -0.80238 1.41385e-22)
(0.0809489 -0.8086 -7.00033e-23)
(0.189745 -0.365325 0)
(0.185757 -0.376111 9.3683e-21)
(0.181847 -0.386716 -9.99117e-21)
(0.178017 -0.397175 2.43439e-20)
(0.174273 -0.407524 -2.52311e-20)
(0.170618 -0.417792 -2.02471e-21)
(0.167056 -0.428004 0)
(0.163592 -0.438184 -1.35478e-21)
(0.160229 -0.448345 -4.36072e-21)
(0.156971 -0.458501 0)
(0.15382 -0.468658 1.65927e-21)
(0.150779 -0.478818 3.4082e-21)
(0.147848 -0.488982 0)
(0.145029 -0.499146 -1.88124e-23)
(0.142321 -0.509304 1.83678e-21)
(0.139725 -0.51945 0)
(0.137239 -0.529574 1.23394e-19)
(0.134861 -0.539668 -1.16114e-19)
(0.13259 -0.549721 -1.24334e-19)
(0.130424 -0.559724 1.18065e-19)
(0.128359 -0.569668 -1.86832e-21)
(0.126393 -0.579541 0)
(0.124523 -0.589336 9.16223e-22)
(0.122746 -0.599044 -9.12877e-22)
(0.121058 -0.608656 8.99294e-22)
(0.119456 -0.618164 -1.1442e-19)
(0.117937 -0.627563 1.10708e-19)
(0.116498 -0.636844 -8.62056e-22)
(0.115135 -0.646004 0)
(0.113845 -0.655036 1.072e-19)
(0.112624 -0.663936 2.58052e-21)
(0.11147 -0.6727 -1.02915e-19)
(0.110379 -0.681324 0)
(0.109348 -0.689807 0)
(0.108375 -0.698144 -9.85476e-20)
(0.107457 -0.706336 9.53752e-20)
(0.10659 -0.714379 -3.65029e-22)
(0.105772 -0.722273 0)
(0.105002 -0.730017 3.49993e-22)
(0.104275 -0.737612 -3.42529e-22)
(0.10359 -0.745056 -8.63432e-20)
(0.102946 -0.75235 8.33918e-20)
(0.102338 -0.759495 1.60231e-22)
(0.101767 -0.766491 -1.56749e-22)
(0.101229 -0.77334 -3.06299e-22)
(0.100722 -0.780043 0)
(0.100246 -0.7866 -1.46126e-22)
(0.0997984 -0.793015 -7.4516e-20)
(0.190185 -0.384617 -1.53077e-21)
(0.18629 -0.394683 2.11861e-21)
(0.182505 -0.40472 8.40379e-20)
(0.178835 -0.414753 -1.73884e-19)
(0.175284 -0.4248 9.23479e-20)
(0.171856 -0.434873 -3.15505e-21)
(0.168554 -0.444979 1.09314e-19)
(0.165381 -0.455121 -1.11247e-19)
(0.162338 -0.465297 0)
(0.159425 -0.475503 -1.86713e-21)
(0.156642 -0.485731 1.22741e-19)
(0.153987 -0.495971 -1.19063e-19)
(0.151458 -0.506214 -1.22682e-19)
(0.149054 -0.516448 -9.6916e-21)
(0.146772 -0.526661 1.21174e-19)
(0.144608 -0.536841 -1.26068e-19)
(0.142559 -0.546976 1.20653e-19)
(0.14062 -0.557055 0)
(0.138789 -0.567067 1.21151e-19)
(0.137061 -0.577001 -2.39604e-19)
(0.135431 -0.586848 1.13907e-19)
(0.133897 -0.596599 1.17583e-19)
(0.132453 -0.606245 -1.11973e-19)
(0.131095 -0.615779 -8.84646e-22)
(0.12982 -0.625195 -1.13082e-19)
(0.128624 -0.634485 -7.01246e-22)
(0.127502 -0.643645 -3.94505e-21)
(0.126451 -0.652669 1.06772e-19)
(0.125468 -0.661554 1.05213e-19)
(0.124548 -0.670297 -2.04555e-19)
(0.123688 -0.678893 1.0024e-19)
(0.122886 -0.687342 -9.91466e-20)
(0.122137 -0.69564 9.60025e-20)
(0.121439 -0.703786 -9.51113e-20)
(0.120789 -0.71178 -2.39568e-21)
(0.120184 -0.71962 8.98925e-20)
(0.119622 -0.727307 1.03806e-21)
(0.1191 -0.734839 -8.68591e-20)
(0.118616 -0.742219 8.39261e-20)
(0.118167 -0.749446 3.23716e-22)
(0.117752 -0.75652 3.16463e-22)
(0.117368 -0.763444 7.93075e-20)
(0.117013 -0.770219 -7.7005e-20)
(0.116686 -0.776846 0)
(0.204119 -0.359958 -4.14839e-20)
(0.199939 -0.369839 -4.03769e-21)
(0.195888 -0.379721 0)
(0.191972 -0.389634 9.44819e-20)
(0.188197 -0.399595 -9.04803e-20)
(0.184569 -0.409618 6.48255e-21)
(0.181089 -0.41971 6.85577e-21)
(0.177761 -0.429873 0)
(0.174586 -0.440103 0)
(0.171563 -0.450394 -3.77208e-21)
(0.168691 -0.460735 0)
(0.165969 -0.471116 0)
(0.163393 -0.481523 -3.95918e-21)
(0.160959 -0.491943 1.98672e-21)
(0.158664 -0.50236 -1.29622e-19)
(0.156504 -0.512762 1.23948e-19)
(0.154474 -0.523133 -1.26423e-19)
(0.152568 -0.533461 1.22918e-19)
(0.150782 -0.543732 1.93564e-21)
(0.149111 -0.553935 0)
(0.147549 -0.564057 -1.23299e-19)
(0.146092 -0.57409 -5.21252e-21)
(0.144734 -0.584022 -4.96007e-21)
(0.14347 -0.593846 1.17057e-19)
(0.142296 -0.603553 -1.1625e-19)
(0.141206 -0.613136 -3.39778e-21)
(0.140197 -0.62259 1.12614e-19)
(0.139263 -0.631907 -1.11209e-19)
(0.1384 -0.641085 1.06291e-19)
(0.137605 -0.650117 0)
(0.136874 -0.659002 1.04253e-19)
(0.136201 -0.667735 -1.02123e-19)
(0.135585 -0.676315 0)
(0.135021 -0.68474 7.60859e-22)
(0.134507 -0.693008 7.45345e-22)
(0.134038 -0.701118 7.30011e-22)
(0.133613 -0.70907 9.13521e-20)
(0.133228 -0.716864 -1.80091e-19)
(0.132881 -0.724499 8.8092e-20)
(0.132569 -0.731976 0)
(0.13229 -0.739297 0)
(0.132041 -0.746461 8.26748e-20)
(0.131821 -0.753471 -7.9672e-20)
(0.131628 -0.760328 0)
(0.215976 -0.333586 -4.31087e-20)
(0.21146 -0.343302 -6.94651e-20)
(0.207096 -0.353056 1.56078e-19)
(0.202893 -0.36288 -8.17755e-20)
(0.198859 -0.372792 -1.04011e-19)
(0.195 -0.382808 9.59969e-20)
(0.191317 -0.392932 -3.51494e-21)
(0.187815 -0.403164 0)
(0.184493 -0.413499 -1.25251e-19)
(0.18135 -0.423927 2.5136e-19)
(0.178383 -0.434436 7.96404e-21)
(0.17559 -0.44501 -1.24089e-19)
(0.172966 -0.455635 -4.01051e-21)
(0.170506 -0.466293 -1.3261e-19)
(0.168205 -0.476967 1.26701e-19)
(0.166056 -0.487641 -1.32124e-19)
(0.164054 -0.498298 -5.01576e-21)
(0.162192 -0.508922 1.25802e-19)
(0.160464 -0.5195 -5.95532e-21)
(0.158864 -0.530016 0)
(0.157384 -0.540459 5.70516e-24)
(0.156019 -0.550815 1.92601e-21)
(0.154763 -0.561074 1.23125e-19)
(0.15361 -0.571227 3.00674e-21)
(0.152554 -0.581264 -2.36112e-19)
(0.151588 -0.591177 1.13106e-19)
(0.150709 -0.600959 -3.57345e-21)
(0.14991 -0.610604 0)
(0.149187 -0.620105 -2.23073e-19)
(0.148534 -0.629459 2.15016e-19)
(0.147948 -0.638662 0)
(0.147424 -0.647709 8.16566e-22)
(0.146958 -0.656599 2.06612e-19)
(0.146546 -0.665328 -2.00242e-19)
(0.146184 -0.673896 0)
(0.145869 -0.6823 -7.53699e-22)
(0.145597 -0.690541 7.38384e-22)
(0.145366 -0.698618 7.22659e-22)
(0.145172 -0.706531 -1.82914e-19)
(0.145013 -0.71428 1.76202e-19)
(0.144886 -0.721865 -6.7752e-22)
(0.144788 -0.729289 -1.71138e-19)
(0.144718 -0.736552 1.64967e-19)
(0.144673 -0.743655 0)
(0.220678 -0.315111 -3.92686e-21)
(0.215955 -0.324776 -4.75091e-21)
(0.211426 -0.334557 0)
(0.207101 -0.344474 -6.06146e-21)
(0.202986 -0.354539 -6.56659e-21)
(0.199083 -0.364756 0)
(0.195395 -0.375121 -1.23494e-19)
(0.191919 -0.385625 1.17634e-19)
(0.188655 -0.396255 0)
(0.185596 -0.406995 -2.6495e-19)
(0.182739 -0.417826 2.56674e-19)
(0.180077 -0.428731 4.12184e-21)
(0.177603 -0.439687 0)
(0.175309 -0.450677 0)
(0.173188 -0.46168 -4.1193e-21)
(0.171233 -0.472677 0)
(0.169434 -0.483652 2.66949e-19)
(0.167784 -0.494586 -5.20463e-19)
(0.166275 -0.505465 5.15941e-19)
(0.1649 -0.516273 -2.49498e-19)
(0.16365 -0.526998 0)
(0.162519 -0.537628 2.50781e-19)
(0.161498 -0.54815 -2.42934e-19)
(0.160583 -0.558556 0)
(0.159765 -0.568836 2.43544e-19)
(0.159038 -0.578983 -4.68626e-19)
(0.158397 -0.588989 2.27242e-19)
(0.157836 -0.598848 -2.29729e-19)
(0.157349 -0.608555 2.19765e-19)
(0.156931 -0.618105 -2.21512e-19)
(0.156577 -0.627495 2.13762e-19)
(0.156282 -0.636722 0)
(0.156043 -0.645782 2.0744e-19)
(0.155855 -0.654674 -2.0196e-19)
(0.155714 -0.663397 0)
(0.155616 -0.67195 -1.97437e-19)
(0.155558 -0.680331 1.90907e-19)
(0.155537 -0.688542 -7.32255e-22)
(0.155549 -0.696582 -1.8452e-19)
(0.155593 -0.704453 3.59079e-19)
(0.155664 -0.712154 -1.7404e-19)
(0.155761 -0.719687 1.73387e-19)
(0.155882 -0.727054 1.67988e-21)
(0.217352 -0.304754 -5.44503e-21)
(0.212719 -0.314747 1.86984e-22)
(0.208339 -0.324937 6.77679e-21)
(0.204214 -0.335324 0)
(0.200344 -0.345899 -2.57636e-19)
(0.196725 -0.356649 4.88822e-19)
(0.193352 -0.367557 1.8678e-20)
(0.19022 -0.378602 1.72429e-20)
(0.187319 -0.389763 -2.69109e-19)
(0.184642 -0.401016 -4.15976e-21)
(0.182178 -0.412338 0)
(0.179919 -0.423706 -2.76149e-19)
(0.177854 -0.435099 -7.44373e-21)
(0.175973 -0.446494 2.67962e-19)
(0.174266 -0.457873 0)
(0.172724 -0.469217 1.66047e-23)
(0.171337 -0.480508 4.11972e-21)
(0.170096 -0.49173 -4.08223e-21)
(0.168991 -0.502868 0)
(0.168014 -0.51391 2.57387e-19)
(0.167157 -0.524843 -2.49425e-19)
(0.166411 -0.535657 0)
(0.165769 -0.546342 1.9184e-21)
(0.165224 -0.556889 2.4468e-19)
(0.164769 -0.567289 -2.32087e-19)
(0.164397 -0.577538 0)
(0.164102 -0.587628 2.32629e-19)
(0.163878 -0.597556 -2.24496e-19)
(0.16372 -0.607316 1.73807e-21)
(0.163623 -0.616906 0)
(0.163581 -0.626322 1.67478e-21)
(0.16359 -0.635563 0)
(0.163646 -0.644627 -2.07682e-19)
(0.163745 -0.653512 4.04355e-19)
(0.163883 -0.66222 -3.9626e-19)
(0.164056 -0.670748 1.9443e-19)
(0.164262 -0.679098 0)
(0.164496 -0.68727 7.26786e-22)
(0.164756 -0.695266 -1.83166e-19)
(0.16504 -0.703085 3.55867e-19)
(0.165345 -0.710731 -1.76075e-19)
(0.215486 -0.283807 -2.05895e-19)
(0.210857 -0.294215 1.95011e-19)
(0.206532 -0.304863 0)
(0.202507 -0.315739 7.61562e-21)
(0.198775 -0.326823 1.26157e-22)
(0.195328 -0.338093 0)
(0.192157 -0.349524 0)
(0.18925 -0.36109 1.67984e-20)
(0.186596 -0.372764 4.26731e-21)
(0.184182 -0.38452 4.2623e-21)
(0.181996 -0.396332 0)
(0.180026 -0.408175 -2.81306e-19)
(0.17826 -0.420027 2.64914e-19)
(0.176684 -0.431865 2.79061e-19)
(0.175289 -0.44367 -2.63252e-19)
(0.174062 -0.455421 -4.23309e-21)
(0.172992 -0.467102 4.19633e-21)
(0.172068 -0.478698 0)
(0.171282 -0.490193 4.10912e-21)
(0.170623 -0.501575 2.62957e-19)
(0.170082 -0.512833 -2.53139e-19)
(0.169651 -0.523955 -2.59723e-19)
(0.16932 -0.534932 2.48443e-19)
(0.169083 -0.545757 -3.83637e-21)
(0.168932 -0.556423 0)
(0.16886 -0.566924 3.71607e-21)
(0.168861 -0.577254 2.37795e-19)
(0.168929 -0.587409 -2.29712e-19)
(0.169058 -0.597386 2.27663e-19)
(0.169242 -0.60718 -4.43525e-19)
(0.169477 -0.616791 2.1607e-19)
(0.169757 -0.626217 -2.15088e-19)
(0.170079 -0.635455 2.08076e-19)
(0.170438 -0.644506 -8.02121e-22)
(0.17083 -0.65337 4.9908e-25)
(0.171251 -0.662046 7.70843e-22)
(0.1717 -0.670536 0)
(0.172171 -0.67884 -7.39473e-22)
(0.172663 -0.68696 0)
(0.173173 -0.694898 7.18875e-22)
(0.205905 -0.273686 0)
(0.201778 -0.284956 7.52156e-21)
(0.197987 -0.296462 7.98378e-21)
(0.194521 -0.308177 0)
(0.191366 -0.320072 -2.77189e-19)
(0.188507 -0.332116 2.5555e-19)
(0.18593 -0.34428 -8.59053e-21)
(0.183619 -0.356533 -4.37169e-21)
(0.181559 -0.368849 -2.86895e-19)
(0.179735 -0.381199 -1.25948e-20)
(0.178133 -0.393559 2.79159e-19)
(0.176737 -0.405906 0)
(0.175536 -0.418217 -2.8373e-19)
(0.174515 -0.430472 -9.35541e-21)
(0.173661 -0.442654 5.54191e-19)
(0.172964 -0.454745 -2.68497e-19)
(0.172411 -0.46673 -2.73627e-19)
(0.171992 -0.478595 5.29656e-19)
(0.171696 -0.49033 -2.64592e-19)
(0.171514 -0.501922 -2.03009e-21)
(0.171438 -0.513362 -2.00832e-21)
(0.171457 -0.524642 -2.51991e-19)
(0.171564 -0.535754 -4.99146e-21)
(0.171751 -0.546691 2.41449e-19)
(0.172011 -0.557449 -1.88937e-21)
(0.172337 -0.568021 0)
(0.172724 -0.578405 -1.82646e-21)
(0.173164 -0.588598 0)
(0.173654 -0.598597 0)
(0.174187 -0.6084 0)
(0.174758 -0.618008 1.69877e-21)
(0.175365 -0.627418 0)
(0.176001 -0.63663 -8.16722e-22)
(0.176664 -0.645646 5.65157e-25)
(0.17735 -0.654466 -7.85223e-22)
(0.178056 -0.663091 1.99471e-19)
(0.178779 -0.671522 -1.91804e-19)
(0.179515 -0.679761 1.92494e-19)
(0.187898 -0.29062 2.80786e-19)
(0.185158 -0.303209 -2.58982e-19)
(0.182726 -0.315923 8.8103e-21)
(0.180585 -0.328731 0)
(0.178715 -0.341602 -2.92386e-19)
(0.177099 -0.354508 2.79797e-19)
(0.175721 -0.367421 -2.62385e-23)
(0.174564 -0.380317 4.46132e-21)
(0.173613 -0.393174 0)
(0.172852 -0.405969 -4.42815e-21)
(0.172267 -0.418685 -4.4161e-21)
(0.171845 -0.431303 -2.84204e-19)
(0.171574 -0.443808 2.7357e-19)
(0.171441 -0.456186 4.2976e-21)
(0.171435 -0.468424 7.82117e-24)
(0.171545 -0.48051 2.75967e-19)
(0.171761 -0.492434 -2.62219e-19)
(0.172074 -0.504187 -2.04533e-21)
(0.172475 -0.515762 -2.01496e-21)
(0.172955 -0.527153 0)
(0.173508 -0.538353 2.52677e-19)
(0.174125 -0.549359 -2.44318e-19)
(0.174801 -0.560166 2.44452e-19)
(0.175528 -0.57077 -2.38381e-19)
(0.176301 -0.581171 -2.36053e-19)
(0.177115 -0.591366 2.30319e-19)
(0.177964 -0.601354 -1.7654e-21)
(0.178844 -0.611134 -2.21571e-19)
(0.179751 -0.620707 2.14626e-19)
(0.180679 -0.630073 -2.13962e-19)
(0.181627 -0.639232 2.09799e-19)
(0.18259 -0.648186 2.0554e-19)
(0.183565 -0.656937 -2.00819e-19)
(0.18455 -0.665487 -7.80277e-22)
(0.181865 -0.261553 0)
(0.179322 -0.274742 -1.05932e-22)
(0.177111 -0.288057 2.9353e-19)
(0.17521 -0.301464 -2.89411e-19)
(0.173599 -0.314933 0)
(0.172257 -0.328431 -9.10106e-21)
(0.171166 -0.341932 4.53569e-21)
(0.170306 -0.355409 2.98882e-19)
(0.169661 -0.36884 1.09174e-20)
(0.169215 -0.382201 -2.81786e-19)
(0.16895 -0.395474 -2.90127e-19)
(0.168854 -0.40864 2.83622e-19)
(0.168911 -0.421683 2.89895e-19)
(0.16911 -0.434589 -2.75004e-19)
(0.169437 -0.447345 2.88421e-19)
(0.169881 -0.459939 -2.78426e-19)
(0.170431 -0.472362 -4.28153e-21)
(0.171078 -0.484603 2.73727e-19)
(0.171812 -0.496656 -5.28253e-19)
(0.172624 -0.508514 -7.16615e-21)
(0.173505 -0.52017 2.5739e-19)
(0.174449 -0.531621 -2.58128e-19)
(0.175447 -0.542861 2.51787e-19)
(0.176493 -0.553889 -2.47906e-19)
(0.177582 -0.564701 4.87563e-19)
(0.178706 -0.575296 -2.37913e-19)
(0.179862 -0.585673 0)
(0.181044 -0.595832 -1.80643e-21)
(0.182247 -0.605772 1.77342e-21)
(0.183467 -0.615494 -3.48172e-21)
(0.184701 -0.625 -2.20717e-19)
(0.185945 -0.634289 2.14877e-19)
(0.187195 -0.643365 1.64198e-21)
(0.18845 -0.652229 0)
(0.173482 -0.233235 -2.66947e-19)
(0.171222 -0.247061 2.84949e-19)
(0.169312 -0.261011 -5.88085e-19)
(0.167729 -0.275048 2.94561e-19)
(0.166449 -0.28914 -9.22919e-21)
(0.165449 -0.303255 -2.96375e-19)
(0.164709 -0.317365 2.83852e-19)
(0.164209 -0.331443 3.0177e-19)
(0.163929 -0.345465 -2.99197e-19)
(0.163853 -0.359409 3.00174e-19)
(0.163962 -0.373255 -2.98111e-19)
(0.164242 -0.386984 0)
(0.164678 -0.40058 -4.60028e-21)
(0.165255 -0.414028 2.91995e-19)
(0.16596 -0.427316 -5.7998e-19)
(0.166782 -0.44043 2.83669e-19)
(0.167709 -0.453362 6.69949e-24)
(0.168729 -0.466101 0)
(0.169833 -0.47864 -8.66908e-21)
(0.171012 -0.490971 2.78652e-19)
(0.172257 -0.50309 -5.40226e-19)
(0.17356 -0.514992 2.63928e-19)
(0.174913 -0.526671 0)
(0.176309 -0.538127 0)
(0.177741 -0.549355 -2.56175e-19)
(0.179205 -0.560354 4.9822e-19)
(0.180694 -0.571124 -2.44182e-19)
(0.182203 -0.581664 2.43253e-19)
(0.183727 -0.591975 -2.35882e-19)
(0.185263 -0.602056 -8.6115e-25)
(0.186805 -0.611909 -2.30127e-19)
(0.188352 -0.621535 2.215e-19)
(0.189898 -0.630937 -8.59837e-22)
(0.191443 -0.640116 -2.2015e-19)
(0.163036 -0.206021 8.70497e-21)
(0.161147 -0.220505 0)
(0.159621 -0.235105 9.25489e-21)
(0.158433 -0.249786 0)
(0.157556 -0.264513 3.20431e-19)
(0.156967 -0.279255 -3.07657e-19)
(0.156643 -0.293981 0)
(0.156563 -0.308666 9.60741e-21)
(0.156706 -0.323285 3.195e-19)
(0.157054 -0.337816 -2.98069e-19)
(0.157589 -0.352238 -4.79791e-21)
(0.158294 -0.366533 4.77998e-21)
(0.159154 -0.380684 3.14097e-19)
(0.160154 -0.394676 -6.05647e-19)
(0.161279 -0.408497 2.9657e-19)
(0.162518 -0.422133 3.10872e-19)
(0.163858 -0.435575 -2.86972e-19)
(0.165288 -0.448812 -2.95144e-19)
(0.166797 -0.461838 5.86284e-19)
(0.168376 -0.474646 -2.82339e-19)
(0.170015 -0.487228 0)
(0.171707 -0.499581 0)
(0.173443 -0.511701 0)
(0.175216 -0.523584 0)
(0.177019 -0.535228 2.07631e-21)
(0.178847 -0.546632 0)
(0.180693 -0.557795 -2.01103e-21)
(0.182552 -0.568716 2.56795e-19)
(0.18442 -0.579396 -2.47221e-19)
(0.186292 -0.589836 -6.50824e-25)
(0.188164 -0.600036 -2.41473e-19)
(0.190032 -0.609998 2.34363e-19)
(0.191894 -0.619725 1.80729e-21)
(0.193745 -0.629218 0)
(0.149452 -0.195355 2.82416e-19)
(0.148387 -0.210604 -3.09674e-19)
(0.147666 -0.225925 6.11042e-19)
(0.147259 -0.241282 -2.91894e-19)
(0.147144 -0.256645 9.8271e-21)
(0.147294 -0.271982 0)
(0.147689 -0.287268 -6.0806e-23)
(0.148307 -0.302478 -9.9134e-21)
(0.149128 -0.317589 3.24158e-19)
(0.150134 -0.332582 -3.02629e-19)
(0.151308 -0.347436 -1.81183e-23)
(0.152633 -0.362136 4.92772e-21)
(0.154094 -0.376667 0)
(0.155676 -0.391015 3.16293e-19)
(0.157367 -0.405168 -3.10766e-19)
(0.159154 -0.419114 3.10752e-19)
(0.161025 -0.432846 -6.08436e-19)
(0.16297 -0.446354 2.93191e-19)
(0.164978 -0.459632 4.64924e-21)
(0.16704 -0.472674 0)
(0.169147 -0.485475 0)
(0.171291 -0.49803 -2.89103e-19)
(0.173465 -0.510338 2.80384e-19)
(0.175663 -0.522394 -2.17689e-21)
(0.177876 -0.534199 0)
(0.180101 -0.545751 2.11079e-21)
(0.182331 -0.557049 -2.07689e-21)
(0.184561 -0.568095 0)
(0.186788 -0.578888 2.5861e-19)
(0.189006 -0.589431 -5.03153e-19)
(0.191213 -0.599725 2.46672e-19)
(0.193405 -0.609773 2.42952e-19)
(0.195579 -0.619576 -2.39336e-19)
(0.136542 -0.171825 2.99849e-19)
(0.136007 -0.187703 -2.95812e-19)
(0.135814 -0.203644 9.71301e-21)
(0.135936 -0.219612 3.26393e-19)
(0.136346 -0.235576 -3.03624e-19)
(0.137021 -0.251505 -1.0116e-20)
(0.137938 -0.267374 3.23921e-19)
(0.139074 -0.283158 2.34473e-20)
(0.140409 -0.298833 -3.23206e-19)
(0.141925 -0.314379 -1.54334e-20)
(0.143604 -0.329779 -1.02841e-20)
(0.145428 -0.345014 -3.3833e-19)
(0.147383 -0.36007 6.5373e-19)
(0.149453 -0.374932 -6.50251e-19)
(0.151625 -0.389589 3.139e-19)
(0.153886 -0.40403 -3.24424e-19)
(0.156225 -0.418244 3.14302e-19)
(0.158629 -0.432225 4.91663e-21)
(0.16109 -0.445964 -3.14837e-19)
(0.163596 -0.459456 3.05307e-19)
(0.16614 -0.472696 4.75774e-21)
(0.168713 -0.485679 0)
(0.171308 -0.498403 0)
(0.173917 -0.510864 -2.95123e-19)
(0.176534 -0.523063 2.86498e-19)
(0.179154 -0.534996 2.84147e-19)
(0.18177 -0.546665 -2.78075e-19)
(0.184378 -0.55807 0)
(0.186974 -0.569212 4.2341e-21)
(0.189553 -0.580091 -2.67986e-19)
(0.192111 -0.590711 2.62364e-19)
(0.194646 -0.601072 2.58535e-19)
(0.197155 -0.611179 -2.56806e-19)
(0.12285 -0.150044 3.01911e-19)
(0.122895 -0.166515 0)
(0.123279 -0.183043 -1.00668e-20)
(0.123974 -0.19959 -9.78614e-23)
(0.124953 -0.216125 -1.04e-20)
(0.126191 -0.232619 3.5377e-19)
(0.127665 -0.249044 -6.76399e-19)
(0.129353 -0.265375 3.43968e-19)
(0.131234 -0.28159 0)
(0.13329 -0.297668 3.4842e-19)
(0.135501 -0.31359 -3.20733e-19)
(0.13785 -0.329339 0)
(0.140323 -0.3449 3.51242e-19)
(0.142904 -0.360258 -6.79169e-19)
(0.145578 -0.375402 6.80838e-19)
(0.148334 -0.39032 8.0983e-21)
(0.151158 -0.405002 -6.66202e-19)
(0.154041 -0.41944 3.26733e-19)
(0.15697 -0.433627 -7.22758e-24)
(0.159937 -0.447556 3.27039e-19)
(0.162933 -0.461223 -3.27447e-19)
(0.165949 -0.474623 0)
(0.168978 -0.487752 0)
(0.172012 -0.500608 -3.1349e-19)
(0.175045 -0.513191 -4.56415e-21)
(0.178072 -0.525497 3.00298e-19)
(0.181085 -0.537528 0)
(0.184082 -0.549284 0)
(0.187057 -0.560765 -2.23818e-21)
(0.190006 -0.571973 -2.20141e-21)
(0.192925 -0.58291 -4.32841e-21)
(0.195812 -0.593579 2.7583e-19)
(0.198663 -0.603981 -5.44639e-19)
(0.109462 -0.147063 3.09511e-19)
(0.110454 -0.164136 3.39783e-19)
(0.111752 -0.181225 -3.37263e-19)
(0.113327 -0.198296 -3.40646e-19)
(0.115156 -0.21532 3.27726e-19)
(0.117213 -0.232267 0)
(0.119477 -0.249114 -1.10779e-20)
(0.121926 -0.265838 3.62283e-19)
(0.124541 -0.282418 2.39529e-20)
(0.127303 -0.298835 -7.25802e-19)
(0.130195 -0.315071 3.46145e-19)
(0.1332 -0.331112 3.56406e-19)
(0.136305 -0.346942 -3.50822e-19)
(0.139495 -0.36255 0)
(0.142756 -0.377924 -3.56629e-19)
(0.146078 -0.393055 7.00115e-19)
(0.149448 -0.407933 -3.491e-19)
(0.152857 -0.42255 -5.38738e-21)
(0.156293 -0.436901 0)
(0.15975 -0.45098 5.28239e-21)
(0.163217 -0.464783 0)
(0.166687 -0.478305 0)
(0.170153 -0.491544 -3.26262e-19)
(0.173609 -0.504499 3.2206e-19)
(0.177049 -0.517168 0)
(0.180466 -0.529551 0)
(0.183857 -0.541648 -2.40868e-21)
(0.187217 -0.55346 -3.07861e-19)
(0.190541 -0.564988 2.96943e-19)
(0.193826 -0.576235 3.85427e-25)
(0.197069 -0.587202 -2.92628e-19)
(0.200266 -0.597893 2.88605e-19)
(0.0960938 -0.12927 3.41659e-19)
(0.0977119 -0.14685 -3.17889e-19)
(0.0996297 -0.164447 3.47123e-19)
(0.10182 -0.182023 -3.67077e-19)
(0.104255 -0.199545 -3.57717e-19)
(0.106911 -0.216984 3.44964e-19)
(0.109762 -0.234313 0)
(0.112789 -0.251511 0)
(0.115971 -0.268558 -3.79569e-19)
(0.11929 -0.285436 3.6761e-19)
(0.122728 -0.302127 1.75422e-20)
(0.126271 -0.318617 5.83975e-21)
(0.129903 -0.334891 5.83066e-21)
(0.13361 -0.350937 -3.77449e-19)
(0.137379 -0.366742 -9.15554e-21)
(0.141199 -0.382298 3.64645e-19)
(0.145059 -0.397594 3.70562e-19)
(0.148947 -0.412623 -3.59995e-19)
(0.152855 -0.427378 0)
(0.156773 -0.441853 0)
(0.160692 -0.456043 -3.56691e-19)
(0.164605 -0.469945 3.52132e-19)
(0.168505 -0.483555 3.48217e-19)
(0.172385 -0.496871 -6.84894e-19)
(0.17624 -0.509892 3.34167e-19)
(0.180063 -0.522617 -3.34237e-19)
(0.183849 -0.535046 6.56864e-19)
(0.187595 -0.547179 -3.177e-19)
(0.191295 -0.559019 0)
(0.194948 -0.570567 3.16358e-19)
(0.198548 -0.581826 -6.13901e-19)
(0.202094 -0.592797 3.02071e-19)
(0.0831598 -0.113017 -3.27417e-19)
(0.0853878 -0.131063 -1.10327e-20)
(0.087914 -0.149132 1.13194e-20)
(0.0907127 -0.167179 3.78619e-19)
(0.093756 -0.185164 -3.53841e-19)
(0.0970145 -0.203055 2.37767e-20)
(0.100459 -0.220827 -3.93049e-19)
(0.104066 -0.238463 -1.54073e-20)
(0.107813 -0.255941 3.71409e-19)
(0.111684 -0.273244 1.22428e-20)
(0.115663 -0.290356 -1.23239e-20)
(0.119735 -0.307263 -6.16674e-21)
(0.123886 -0.32395 -6.16218e-21)
(0.128103 -0.340405 -6.13219e-21)
(0.132373 -0.356617 0)
(0.136684 -0.372575 0)
(0.141027 -0.388269 -6.04732e-21)
(0.145389 -0.40369 0)
(0.149763 -0.418833 -3.91405e-19)
(0.154137 -0.433689 -1.30232e-20)
(0.158505 -0.448253 7.43417e-19)
(0.162858 -0.462522 -7.47223e-19)
(0.167189 -0.476491 3.63603e-19)
(0.171491 -0.490158 -5.65612e-21)
(0.175758 -0.503521 -2.79246e-21)
(0.179985 -0.516579 0)
(0.184166 -0.529332 3.50233e-19)
(0.188296 -0.54178 -6.85741e-19)
(0.192373 -0.553925 3.35649e-19)
(0.196391 -0.565767 0)
(0.200348 -0.57731 3.31357e-19)
(0.204241 -0.588556 -3.21898e-19)
(0.0708649 -0.0979613 -3.6855e-19)
(0.0736895 -0.116441 7.26157e-19)
(0.0768137 -0.135004 -3.68371e-19)
(0.0802089 -0.153575 1.22106e-20)
(0.0838418 -0.172079 -4.18163e-19)
(0.0876762 -0.190443 -1.90132e-20)
(0.0916816 -0.208617 8.20491e-19)
(0.0958417 -0.226618 -4.12156e-19)
(0.100142 -0.244464 4.18696e-19)
(0.104558 -0.262136 -4.19106e-19)
(0.10907 -0.279621 0)
(0.113663 -0.296902 0)
(0.118324 -0.313967 -6.48495e-21)
(0.123041 -0.3308 4.27163e-19)
(0.127803 -0.347391 -4.08762e-19)
(0.132599 -0.363728 -6.43502e-21)
(0.137418 -0.379799 -4.14833e-19)
(0.142249 -0.395595 4.03424e-19)
(0.147082 -0.411109 -3.96236e-19)
(0.15191 -0.426333 4.04043e-19)
(0.156722 -0.44126 4.07777e-19)
(0.161511 -0.455885 6.72523e-21)
(0.16627 -0.470204 -3.86742e-19)
(0.170992 -0.484213 6.02627e-21)
(0.17567 -0.497911 -3.80627e-19)
(0.180298 -0.511295 3.70375e-19)
(0.184872 -0.524365 -2.89609e-21)
(0.189386 -0.537121 0)
(0.193837 -0.549564 -3.62443e-19)
(0.19822 -0.561695 -4.10982e-21)
(0.202532 -0.573517 -6.59389e-21)
(0.206771 -0.585031 3.46466e-19)
(0.0593169 -0.0841594 3.97134e-19)
(0.0627066 -0.102885 -3.61892e-19)
(0.0663886 -0.121765 1.24894e-20)
(0.07034 -0.14073 1.28529e-20)
(0.0745327 -0.1597 1.31335e-20)
(0.0789351 -0.178589 4.25053e-19)
(0.0835146 -0.197319 -8.77972e-19)
(0.0882378 -0.215831 4.39243e-19)
(0.0930762 -0.234092 1.36477e-20)
(0.0980071 -0.252094 0)
(0.103024 -0.269879 -4.58756e-19)
(0.108119 -0.287476 -1.35045e-20)
(0.113277 -0.304867 4.40128e-19)
(0.118483 -0.322037 0)
(0.123727 -0.338972 -4.44246e-19)
(0.128999 -0.355657 4.38952e-19)
(0.134286 -0.37208 1.36096e-20)
(0.139579 -0.38823 4.37835e-19)
(0.144868 -0.404097 1.95835e-21)
(0.150144 -0.419672 -4.16547e-19)
(0.155397 -0.434947 0)
(0.16062 -0.449916 -4.2349e-19)
(0.165804 -0.464574 -6.78611e-21)
(0.170942 -0.478917 4.14407e-19)
(0.176029 -0.49294 -4.03064e-19)
(0.181057 -0.506643 4.01713e-19)
(0.186022 -0.520023 3.09656e-21)
(0.190918 -0.533081 0)
(0.195741 -0.545816 0)
(0.200488 -0.55823 2.96213e-21)
(0.205154 -0.570324 2.91598e-21)
(0.209737 -0.582102 0)
(0.0486511 -0.0716192 4.14002e-19)
(0.0525912 -0.0904742 -3.78907e-19)
(0.0568186 -0.109551 4.22982e-19)
(0.0613137 -0.128781 -4.37741e-19)
(0.0660489 -0.148079 -1.08374e-22)
(0.0709917 -0.167355 0)
(0.076108 -0.186521 0)
(0.0813659 -0.205507 4.7425e-19)
(0.0867365 -0.224255 -9.46189e-19)
(0.0921935 -0.242727 4.57522e-19)
(0.0977139 -0.260907 1.45768e-20)
(0.103287 -0.278813 0)
(0.10891 -0.296491 -4.72756e-19)
(0.114581 -0.313964 -1.27487e-20)
(0.120287 -0.331212 9.31873e-19)
(0.126015 -0.34822 -4.66592e-19)
(0.131756 -0.364972 4.68677e-19)
(0.137498 -0.381456 -4.4915e-19)
(0.14323 -0.397659 0)
(0.148943 -0.41357 -1.42396e-20)
(0.154628 -0.42918 7.05881e-21)
(0.160275 -0.444482 4.52192e-19)
(0.165877 -0.459469 -4.3348e-19)
(0.171426 -0.474135 -6.87183e-21)
(0.176915 -0.488476 -1.35804e-20)
(0.182337 -0.50249 -4.32437e-19)
(0.187687 -0.516174 4.21106e-19)
(0.19296 -0.529526 4.20973e-19)
(0.19815 -0.542548 8.27313e-21)
(0.203255 -0.555239 -4.07125e-19)
(0.20827 -0.567601 -4.08567e-19)
(0.213192 -0.579636 -4.26531e-21)
(0.0391027 -0.060246 -2.34073e-19)
(0.0435598 -0.079095 1.90721e-19)
(0.0482975 -0.0982372 2.28828e-19)
(0.0533023 -0.117616 -2.23373e-19)
(0.0585507 -0.137145 4.72104e-19)
(0.0640102 -0.156722 -4.72357e-19)
(0.0696441 -0.176243 0)
(0.0754159 -0.19562 1.54443e-20)
(0.0812924 -0.214781 5.07406e-19)
(0.0872446 -0.233674 -4.88951e-19)
(0.0932495 -0.252268 0)
(0.0992901 -0.270554 1.54741e-20)
(0.105359 -0.288551 1.54609e-20)
(0.111463 -0.306312 0)
(0.117601 -0.323862 0)
(0.123762 -0.34118 7.75151e-21)
(0.129932 -0.358251 -1.54415e-20)
(0.136102 -0.375058 4.89908e-19)
(0.142258 -0.391587 -4.77163e-19)
(0.148392 -0.407826 1.61302e-23)
(0.154492 -0.423765 -1.51078e-20)
(0.16055 -0.439393 0)
(0.166556 -0.454703 4.71758e-19)
(0.172502 -0.469688 -4.66863e-19)
(0.178382 -0.484344 7.27909e-21)
(0.184187 -0.498664 -3.59218e-21)
(0.189913 -0.512648 0)
(0.195553 -0.526293 -3.50166e-21)
(0.201103 -0.539598 -4.21419e-24)
(0.206557 -0.552563 -4.35049e-19)
(0.211913 -0.56519 4.26869e-19)
(0.217167 -0.57748 0)
(0.0308248 -0.0499665 -2.58806e-20)
(0.0357548 -0.0686976 2.28052e-19)
(0.0409569 -0.0877653 -2.38109e-19)
(0.0464234 -0.107151 2.63803e-19)
(0.0521367 -0.126781 -2.27506e-19)
(0.0580673 -0.146549 -2.62895e-19)
(0.064178 -0.166337 2.55125e-19)
(0.0704286 -0.186035 -3.02792e-19)
(0.0767811 -0.205552 2.93676e-19)
(0.0832013 -0.224818 1.65951e-20)
(0.0896617 -0.243784 1.65761e-20)
(0.0961432 -0.262431 -3.31337e-20)
(0.102638 -0.280766 -1.65615e-20)
(0.109152 -0.298834 -5.3616e-19)
(0.115694 -0.316679 1.0663e-18)
(0.12226 -0.334304 -5.30538e-19)
(0.128835 -0.351688 -5.25736e-19)
(0.135409 -0.368815 -1.15311e-20)
(0.141968 -0.385668 5.10372e-19)
(0.148502 -0.402233 8.15193e-21)
(0.155 -0.418498 8.09821e-21)
(0.16145 -0.434452 0)
(0.167845 -0.450085 -7.95313e-21)
(0.174174 -0.465389 0)
(0.180431 -0.480357 -7.79681e-21)
(0.186607 -0.494986 5.08888e-19)
(0.192697 -0.50927 -9.75661e-19)
(0.198693 -0.523207 4.78441e-19)
(0.20459 -0.536796 4.74233e-19)
(0.210384 -0.550036 -4.69091e-19)
(0.216072 -0.562928 3.60489e-21)
(0.221648 -0.575473 -3.59475e-21)
(0.0238531 -0.0405696 2.35279e-19)
(0.029222 -0.0591861 0)
(0.0348333 -0.0780816 -2.48723e-19)