/*--------------------------------*- C++ -*----------------------------------*\
  =========                 |
  \\      /  F ield         | OpenFOAM: The Open Source CFD Toolbox
   \\    /   O peration     | Website:  https://openfoam.org
    \\  /    A nd           | Version:  10
     \\/     M anipulation  |
\*---------------------------------------------------------------------------*/
FoamFile
{
    format      ascii;
    class       surfaceScalarField;
    location    "63000";
    object      phi;
}
// * * * * * * * * * * * * * * * * * * * * * * * * * * * * * * * * * * * * * //

dimensions      [0 3 -1 0 0 0 0];

internalField   nonuniform List<scalar> 
35536
(
-5.12036e-09
-3.52662e-07
-1.46839e-08
-2.66667e-07
8.84964e-09
-2.55033e-07
6.40503e-08
-2.31954e-07
1.59488e-07
-2.00302e-07
3.14695e-07
-1.56231e-07
5.56451e-07
-9.26864e-08
9.05462e-07
1.1339e-09
1.36708e-06
1.34829e-07
1.926e-06
3.1314e-07
2.54861e-06
5.35332e-07
3.19308e-06
7.92374e-07
3.81793e-06
1.06932e-06
4.39139e-06
1.34965e-06
4.89477e-06
1.61897e-06
5.3216e-06
1.86633e-06
5.67506e-06
2.08702e-06
5.96414e-06
2.28041e-06
6.20036e-06
2.44833e-06
6.39486e-06
2.59521e-06
6.55774e-06
2.72521e-06
6.69758e-06
2.84207e-06
6.8211e-06
2.94935e-06
6.93333e-06
3.04987e-06
7.03793e-06
3.14571e-06
7.13746e-06
3.23836e-06
7.23364e-06
3.32889e-06
7.32756e-06
3.41799e-06
7.4199e-06
3.50605e-06
7.51111e-06
3.59328e-06
7.60144e-06
3.67973e-06
7.69107e-06
3.76536e-06
7.78013e-06
3.8501e-06
7.86868e-06
3.9338e-06
7.95676e-06
4.01632e-06
8.04439e-06
4.09747e-06
8.13158e-06
4.17705e-06
8.2183e-06
4.25485e-06
8.30452e-06
4.33063e-06
8.3902e-06
4.40412e-06
8.47526e-06
4.47504e-06
8.55964e-06
4.54309e-06
8.64325e-06
4.60794e-06
8.726e-06
4.66925e-06
8.80779e-06
4.72663e-06
8.88849e-06
4.77968e-06
8.96799e-06
4.82796e-06
9.04613e-06
4.871e-06
9.12279e-06
4.90831e-06
9.19778e-06
4.93935e-06
9.27093e-06
4.96353e-06
9.34206e-06
4.98025e-06
9.41094e-06
4.98884e-06
9.47736e-06
4.9886e-06
9.54107e-06
4.97875e-06
9.60179e-06
4.95848e-06
9.65924e-06
4.92692e-06
9.71311e-06
4.88313e-06
9.76307e-06
4.8261e-06
9.80874e-06
4.75475e-06
9.84975e-06
4.66792e-06
9.88567e-06
4.56437e-06
9.91606e-06
4.44277e-06
9.94044e-06
4.30168e-06
9.95832e-06
4.13956e-06
9.96917e-06
3.95477e-06
9.97241e-06
3.74553e-06
9.96748e-06
3.50993e-06
9.95376e-06
3.24595e-06
9.93062e-06
2.95138e-06
9.89741e-06
2.6239e-06
9.85345e-06
2.261e-06
9.79805e-06
1.86003e-06
9.73051e-06
1.41819e-06
9.65248e-06
9.13683e-07
9.56677e-06
4.02978e-07
9.47423e-06
-6.77354e-08
9.37555e-06
-5.0059e-07
9.2714e-06
-8.97854e-07
9.16246e-06
-1.26269e-06
9.04938e-06
-1.59795e-06
8.93272e-06
-1.90529e-06
8.81297e-06
-2.18617e-06
8.69047e-06
-2.44203e-06
8.56545e-06
-2.67428e-06
8.43814e-06
-2.88433e-06
8.30904e-06
-3.07349e-06
8.17935e-06
-3.24278e-06
8.05086e-06
-3.39261e-06
7.92483e-06
-3.52277e-06
7.80078e-06
-3.63316e-06
7.67697e-06
-3.72512e-06
7.55239e-06
-3.80141e-06
7.42698e-06
-3.86423e-06
7.3008e-06
-3.91488e-06
7.17396e-06
-3.95447e-06
7.04654e-06
-3.98404e-06
6.91863e-06
-4.00459e-06
6.79033e-06
-4.01702e-06
-4.0222e-06
-3.43817e-09
-3.49221e-07
-1.68489e-08
-2.53257e-07
-9.27873e-09
-2.62609e-07
1.59428e-08
-2.57177e-07
6.05728e-08
-2.44933e-07
1.30336e-07
-2.25996e-07
2.34742e-07
-1.97093e-07
3.89643e-07
-1.53767e-07
6.16447e-07
-9.19767e-08
9.34881e-07
-5.29438e-09
1.3555e-06
1.14714e-07
1.8739e-06
2.73977e-07
2.46886e-06
4.74361e-07
3.10702e-06
7.11481e-07
3.75161e-06
9.7438e-07
4.36897e-06
1.24896e-06
4.93453e-06
1.52146e-06
5.43425e-06
1.78069e-06
5.86381e-06
2.01877e-06
6.2264e-06
2.23262e-06
6.52949e-06
2.42211e-06
6.78255e-06
2.58902e-06
6.99487e-06
2.73703e-06
7.17521e-06
2.86953e-06
7.33132e-06
2.9896e-06
7.4694e-06
3.10028e-06
7.59433e-06
3.20396e-06
7.70986e-06
3.30246e-06
7.81878e-06
3.39714e-06
7.92307e-06
3.48899e-06
8.02411e-06
3.57869e-06
8.12283e-06
3.66665e-06
8.21984e-06
3.75308e-06
8.31558e-06
3.83806e-06
8.41034e-06
3.92156e-06
8.5043e-06
4.0035e-06
8.59761e-06
4.08375e-06
8.69034e-06
4.16212e-06
8.78252e-06
4.23844e-06
8.87418e-06
4.31247e-06
8.96527e-06
4.38395e-06
9.05575e-06
4.45261e-06
9.14556e-06
4.51813e-06
9.23461e-06
4.5802e-06
9.3228e-06
4.63844e-06
9.41001e-06
4.69247e-06
9.4961e-06
4.74186e-06
9.58094e-06
4.78616e-06
9.66436e-06
4.82489e-06
9.74619e-06
4.85752e-06
9.82623e-06
4.88349e-06
9.90428e-06
4.90221e-06
9.9801e-06
4.91302e-06
1.00535e-05
4.91524e-06
1.01241e-05
4.90813e-06
1.01917e-05
4.89089e-06
1.02559e-05
4.86267e-06
1.03165e-05
4.82257e-06
1.0373e-05
4.7696e-06
1.0425e-05
4.70271e-06
1.04721e-05
4.62078e-06
1.05139e-05
4.52258e-06
1.05499e-05
4.40683e-06
1.05794e-05
4.27213e-06
1.0602e-05
4.11696e-06
1.06171e-05
3.93972e-06
1.06239e-05
3.73866e-06
1.06219e-05
3.51192e-06
1.06104e-05
3.25749e-06
1.05886e-05
2.97321e-06
1.05557e-05
2.65677e-06
1.0511e-05
2.30569e-06
1.04537e-05
1.91734e-06
1.03829e-05
1.48895e-06
1.03004e-05
9.9618e-07
1.02092e-05
4.94223e-07
1.01102e-05
3.12877e-08
1.00041e-05
-3.9455e-07
9.89176e-06
-7.855e-07
9.77384e-06
-1.14476e-06
9.65099e-06
-1.47511e-06
9.52385e-06
-1.77815e-06
9.39299e-06
-2.05531e-06
9.2589e-06
-2.30794e-06
9.12196e-06
-2.53735e-06
8.98245e-06
-2.74481e-06
8.84055e-06
-2.93159e-06
8.69668e-06
-3.09891e-06
8.55182e-06
-3.24775e-06
8.40763e-06
-3.37858e-06
8.26569e-06
-3.49122e-06
8.12591e-06
-3.58534e-06
7.9866e-06
-3.6621e-06
7.84664e-06
-3.72427e-06
7.70591e-06
-3.77415e-06
7.56458e-06
-3.81314e-06
7.4228e-06
-3.84226e-06
7.28071e-06
-3.86249e-06
7.13842e-06
-3.87473e-06
-3.87985e-06
-5.53459e-09
-3.43685e-07
-2.27687e-08
-2.36023e-07
-3.01548e-08
-2.55216e-07
-2.7687e-08
-2.59636e-07
-1.43482e-08
-2.58267e-07
1.27532e-08
-2.53095e-07
5.84291e-08
-2.42768e-07
1.29221e-07
-2.24558e-07
2.32739e-07
-1.95493e-07
3.80354e-07
-1.52907e-07
5.88978e-07
-9.39074e-08
8.77057e-07
-1.41002e-08
1.25857e-06
9.28471e-08
1.73671e-06
2.33341e-07
2.30019e-06
4.10905e-07
2.92434e-06
6.24802e-07
3.5779e-06
8.67905e-07
4.22886e-06
1.12973e-06
4.84922e-06
1.39842e-06
5.41878e-06
1.66306e-06
5.92586e-06
1.91503e-06
6.36677e-06
2.14811e-06
6.74419e-06
2.35961e-06
7.0645e-06
2.54921e-06
7.3357e-06
2.7184e-06
7.56586e-06
2.87012e-06
7.76288e-06
3.00693e-06
7.93396e-06
3.13139e-06
8.08507e-06
3.24602e-06
8.22117e-06
3.35289e-06
8.34626e-06
3.4536e-06
8.46343e-06
3.54948e-06
8.57499e-06
3.64152e-06
8.68259e-06
3.73045e-06
8.7874e-06
3.81676e-06
8.89019e-06
3.90071e-06
8.99151e-06
3.98243e-06
9.0917e-06
4.06193e-06
9.19101e-06
4.13914e-06
9.28956e-06
4.21391e-06
9.38743e-06
4.28608e-06
9.48464e-06
4.3554e-06
9.58117e-06
4.42161e-06
9.67695e-06
4.48441e-06
9.77192e-06
4.54348e-06
9.86596e-06
4.59843e-06
9.95895e-06
4.64887e-06
1.00507e-05
4.69437e-06
1.01412e-05
4.73446e-06
1.02301e-05
4.76863e-06
1.03172e-05
4.79634e-06
1.04024e-05
4.81701e-06
1.04854e-05
4.83002e-06
1.0566e-05
4.83469e-06
1.06438e-05
4.83032e-06
1.07185e-05
4.81613e-06
1.07899e-05
4.79131e-06
1.08575e-05
4.75497e-06
1.09209e-05
4.70615e-06
1.09798e-05
4.64386e-06
1.10336e-05
4.56698e-06
1.10818e-05
4.47436e-06
1.11239e-05
4.36473e-06
1.11593e-05
4.23672e-06
1.11874e-05
4.08889e-06
1.12075e-05
3.91965e-06
1.12188e-05
3.72731e-06
1.12207e-05
3.51005e-06
1.12123e-05
3.26588e-06
1.11928e-05
2.9927e-06
1.11614e-05
2.68823e-06
1.1117e-05
2.35001e-06
1.10589e-05
1.97546e-06
1.09861e-05
1.56181e-06
1.09002e-05
1.08208e-06
1.08044e-05
5.9001e-07
1.06998e-05
1.35863e-07
1.05873e-05
-2.82073e-07
1.04676e-05
-6.65806e-07
1.03415e-05
-1.0186e-06
1.02096e-05
-1.34319e-06
1.00726e-05
-1.64114e-06
9.93108e-06
-1.91383e-06
9.7857e-06
-2.16256e-06
9.63694e-06
-2.38859e-06
9.48521e-06
-2.59309e-06
9.33083e-06
-2.77721e-06
9.17401e-06
-2.9421e-06
9.0151e-06
-3.08884e-06
8.85488e-06
-3.21836e-06
8.69482e-06
-3.33115e-06
8.53659e-06
-3.42712e-06
8.38042e-06
-3.50594e-06
8.22484e-06
-3.56869e-06
8.0688e-06
-3.61811e-06
7.91231e-06
-3.65665e-06
7.75559e-06
-3.68554e-06
7.59881e-06
-3.7057e-06
7.44209e-06
-3.71802e-06
-3.72334e-06
-6.84592e-09
-3.36847e-07
-2.42218e-08
-2.18652e-07
-3.84135e-08
-2.41027e-07
-4.75367e-08
-2.5052e-07
-5.10171e-08
-2.54792e-07
-4.74049e-08
-2.56711e-07
-3.40341e-08
-2.5614e-07
-6.80962e-09
-2.51784e-07
3.93626e-08
-2.41666e-07
1.10078e-07
-2.23623e-07
2.11683e-07
-1.95513e-07
3.52759e-07
-1.55178e-07
5.45976e-07
-1.00372e-07
8.07453e-07
-2.8137e-08
1.15227e-06
6.6086e-08
1.58841e-06
1.88666e-07
2.11253e-06
3.43778e-07
2.70938e-06
5.32881e-07
3.35473e-06
7.53068e-07
4.02023e-06
9.9756e-07
4.67785e-06
1.2574e-06
5.30327e-06
1.52269e-06
5.87876e-06
1.78412e-06
6.3939e-06
2.03408e-06
6.84539e-06
2.26691e-06
7.23575e-06
2.47976e-06
7.57071e-06
2.67197e-06
7.85714e-06
2.84496e-06
8.10226e-06
3.0009e-06
8.3135e-06
3.14165e-06
8.49761e-06
3.2695e-06
8.66045e-06
3.38664e-06
8.80706e-06
3.4949e-06
8.94163e-06
3.59589e-06
9.06747e-06
3.69093e-06
9.18707e-06
3.78111e-06
9.30225e-06
3.86725e-06
9.41429e-06
3.94989e-06
9.52406e-06
4.02938e-06
9.63211e-06
4.10586e-06
9.73882e-06
4.17936e-06
9.84442e-06
4.2498e-06
9.94902e-06
4.31701e-06
1.00527e-05
4.38077e-06
1.01553e-05
4.4408e-06
1.0257e-05
4.49678e-06
1.03575e-05
4.54833e-06
1.04568e-05
4.59506e-06
1.05548e-05
4.63652e-06
1.06512e-05
4.67223e-06
1.07459e-05
4.70167e-06
1.08386e-05
4.72428e-06
1.09291e-05
4.73947e-06
1.10172e-05
4.74659e-06
1.11026e-05
4.74496e-06
1.11849e-05
4.73383e-06
1.12638e-05
4.71242e-06
1.13389e-05
4.67987e-06
1.14097e-05
4.63528e-06
1.14759e-05
4.57767e-06
1.15369e-05
4.50598e-06
1.15922e-05
4.41909e-06
1.16411e-05
4.31578e-06
1.16831e-05
4.19474e-06
1.17175e-05
4.05456e-06
1.17434e-05
3.89372e-06
1.17601e-05
3.71057e-06
1.17668e-05
3.50334e-06
1.17626e-05
3.27011e-06
1.17465e-05
3.0088e-06
1.17176e-05
2.71719e-06
1.16747e-05
2.39288e-06
1.16169e-05
2.03329e-06
1.1543e-05
1.63569e-06
1.14547e-05
1.17037e-06
1.13553e-05
6.89417e-07
1.1246e-05
2.45133e-07
1.11279e-05
-1.63987e-07
1.10017e-05
-5.39597e-07
1.08681e-05
-8.84948e-07
1.07277e-05
-1.20284e-06
1.05814e-05
-1.49481e-06
1.04297e-05
-1.76217e-06
1.02734e-05
-2.0062e-06
1.01129e-05
-2.2281e-06
9.94877e-06
-2.429e-06
9.78156e-06
-2.60999e-06
9.61157e-06
-2.77211e-06
9.4391e-06
-2.91637e-06
9.2645e-06
-3.04375e-06
9.08843e-06
-3.15509e-06
8.91219e-06
-3.25088e-06
8.7374e-06
-3.33114e-06
8.56441e-06
-3.3957e-06
8.39205e-06
-3.44575e-06
8.21966e-06
-3.48427e-06
8.04742e-06
-3.5133e-06
7.87545e-06
-3.53374e-06
7.70389e-06
-3.54646e-06
7.53284e-06
-3.55229e-06
7.36242e-06
-3.5521e-06
7.19276e-06
-3.54671e-06
7.02405e-06
-3.5369e-06
-3.52341e-06
-5.81823e-09
-3.31026e-07
-1.99318e-08
-2.0452e-07
-3.3319e-08
-2.27622e-07
-4.43345e-08
-2.395e-07
-5.26724e-08
-2.46452e-07
-5.77251e-08
-2.51655e-07
-5.83176e-08
-2.55545e-07
-5.23282e-08
-2.5777e-07
-3.654e-08
-2.57451e-07
-6.90594e-09
-2.53255e-07
4.11676e-08
-2.43584e-07
1.12645e-07
-2.26655e-07
2.12861e-07
-2.00587e-07
3.48234e-07
-1.63509e-07
5.27958e-07
-1.13637e-07
7.65092e-07
-4.84667e-08
1.0736e-06
3.52735e-08
1.46428e-06
1.42202e-07
1.94039e-06
2.76962e-07
2.49514e-06
4.42802e-07
3.11229e-06
6.40253e-07
3.76926e-06
8.65729e-07
4.44023e-06
1.11315e-06
5.09988e-06
1.37443e-06
5.72636e-06
1.64042e-06
6.3038e-06
1.90233e-06
6.82298e-06
2.1528e-06
7.28149e-06
2.38644e-06
7.68192e-06
2.60047e-06
8.02936e-06
2.79421e-06
8.32963e-06
2.96923e-06
8.58924e-06
3.12703e-06
8.81508e-06
3.26907e-06
9.0134e-06
3.39757e-06
9.18979e-06
3.51453e-06
9.34918e-06
3.62172e-06
9.49573e-06
3.7207e-06
9.63276e-06
3.81285e-06
9.76284e-06
3.89929e-06
9.88784e-06
3.98086e-06
1.00091e-05
4.05813e-06
1.01274e-05
4.13143e-06
1.02435e-05
4.20091e-06
1.03577e-05
4.26655e-06
1.04703e-05
4.32824e-06
1.05814e-05
4.38574e-06
1.06909e-05
4.43879e-06
1.07989e-05
4.48703e-06
1.09054e-05
4.53007e-06
1.10101e-05
4.56747e-06
1.1113e-05
4.59875e-06
1.12139e-05
4.62339e-06
1.13126e-05
4.64081e-06
1.14088e-05
4.65042e-06
1.15022e-05
4.65154e-06
1.15925e-05
4.64349e-06
1.16794e-05
4.62551e-06
1.17625e-05
4.59679e-06
1.18413e-05
4.55646e-06
1.19154e-05
4.50358e-06
1.19842e-05
4.43716e-06
1.20472e-05
4.35612e-06
1.21037e-05
4.25929e-06
1.2153e-05
4.14543e-06
1.21944e-05
4.01317e-06
1.22271e-05
3.86106e-06
1.22501e-05
3.68751e-06
1.22627e-05
3.49082e-06
1.22636e-05
3.26913e-06
1.2252e-05
3.02044e-06
1.22266e-05
2.74257e-06
1.21863e-05
2.43317e-06
1.21299e-05
2.08973e-06
1.2056e-05
1.70955e-06
1.19663e-05
1.26009e-06
1.18641e-05
7.91601e-07
1.17509e-05
3.58361e-07
1.16279e-05
-4.0991e-08
1.1496e-05
-4.07668e-07
1.13555e-05
-7.44535e-07
1.12073e-05
-1.05462e-06
1.10521e-05
-1.33955e-06
1.08905e-05
-1.60062e-06
1.07234e-05
-1.83903e-06
1.05512e-05
-2.05595e-06
1.03747e-05
-2.25247e-06
1.01943e-05
-2.42963e-06
1.00106e-05
-2.58843e-06
9.82407e-06
-2.72982e-06
9.63503e-06
-2.85471e-06
9.44391e-06
-2.96397e-06
9.25139e-06
-3.05836e-06
9.05866e-06
-3.13841e-06
8.8672e-06
-3.20424e-06
8.67738e-06
-3.25592e-06
8.48844e-06
-3.29534e-06
8.30015e-06
-3.32501e-06
8.11259e-06
-3.34618e-06
7.92577e-06
-3.35964e-06
7.73975e-06
-3.36627e-06
7.55458e-06
-3.36694e-06
7.37041e-06
-3.36254e-06
7.18741e-06
-3.35391e-06
-3.34182e-06
-4.67216e-09
-3.26352e-07
-1.55774e-08
-1.93628e-07
-2.64914e-08
-2.16725e-07
-3.63011e-08
-2.297e-07
-4.4857e-08
-2.379e-07
-5.19094e-08
-2.44605e-07
-5.69691e-08
-2.50487e-07
-5.91623e-08
-2.55578e-07
-5.69838e-08
-2.59631e-07
-4.81352e-08
-2.62105e-07
-2.95758e-08
-2.62146e-07
2.38231e-09
-2.58614e-07
5.19121e-08
-2.50118e-07
1.23429e-07
-2.35026e-07
2.21361e-07
-2.1157e-07
3.50837e-07
-1.77943e-07
5.18531e-07
-1.3242e-07
7.33817e-07
-7.30838e-08
1.00836e-06
2.41641e-09
1.35397e-06
9.71882e-08
1.77826e-06
2.15969e-07
2.28154e-06
3.62448e-07
2.85555e-06
5.39134e-07
3.48423e-06
7.45754e-07
4.14626e-06
9.78395e-07
4.81766e-06
1.23092e-06
5.47519e-06
1.49527e-06
6.09932e-06
1.76231e-06
6.67608e-06
2.02371e-06
7.19771e-06
2.27259e-06
7.66285e-06
2.50408e-06
8.07401e-06
2.71587e-06
8.43535e-06
2.90773e-06
8.7516e-06
3.08131e-06
9.02848e-06
3.23765e-06
9.27205e-06
3.37815e-06
9.48791e-06
3.50484e-06
9.68122e-06
3.61954e-06
9.85661e-06
3.72391e-06
1.00181e-05
3.81942e-06
1.01688e-05
3.90736e-06
1.03115e-05
3.9888e-06
1.04479e-05
4.06449e-06
1.05795e-05
4.13496e-06
1.07072e-05
4.2005e-06
1.08318e-05
4.26118e-06
1.09536e-05
4.31696e-06
1.1073e-05
4.36766e-06
1.119e-05
4.413e-06
1.13049e-05
4.45263e-06
1.14175e-05
4.48617e-06
1.15277e-05
4.51313e-06
1.16355e-05
4.53302e-06
1.17407e-05
4.54527e-06
1.18429e-05
4.54927e-06
1.19421e-05
4.54439e-06
1.20377e-05
4.52989e-06
1.21294e-05
4.50505e-06
1.22169e-05
4.46902e-06
1.22995e-05
4.42094e-06
1.23768e-05
4.35985e-06
1.24482e-05
4.28474e-06
1.2513e-05
4.19452e-06
1.25704e-05
4.08798e-06
1.26197e-05
3.96386e-06
1.266e-05
3.82076e-06
1.26903e-05
3.65717e-06
1.27097e-05
3.47148e-06
1.27169e-05
3.2619e-06
1.27108e-05
3.02652e-06
1.26901e-05
2.76324e-06
1.26535e-05
2.46978e-06
1.25996e-05
2.14369e-06
1.25268e-05
1.7823e-06
1.24367e-05
1.35024e-06
1.23325e-05
8.95729e-07
1.2216e-05
4.74887e-07
1.20886e-05
8.63859e-08
1.19516e-05
-2.70596e-07
1.1805e-05
-5.97925e-07
1.16493e-05
-8.98987e-07
1.14855e-05
-1.17573e-06
1.13143e-05
-1.42941e-06
1.11364e-05
-1.66118e-06
1.09526e-05
-1.87215e-06
1.07635e-05
-2.06337e-06
1.05698e-05
-2.23586e-06
1.03719e-05
-2.39059e-06
1.01706e-05
-2.52851e-06
9.96645e-06
-2.65052e-06
9.75996e-06
-2.75747e-06
9.55176e-06
-2.85016e-06
9.34263e-06
-2.92929e-06
9.13369e-06
-2.9953e-06
8.92615e-06
-3.04838e-06
8.72031e-06
-3.08949e-06
8.51578e-06
-3.12049e-06
8.31235e-06
-3.14274e-06
8.10987e-06
-3.15716e-06
7.90832e-06
-3.16471e-06
7.70774e-06
-3.16637e-06
7.50829e-06
-3.16309e-06
7.31019e-06
-3.15581e-06
-3.14537e-06
-4.03427e-09
-3.22312e-07
-1.2979e-08
-1.8468e-07
-2.21046e-08
-2.07591e-07
-3.06861e-08
-2.21104e-07
-3.86995e-08
-2.29876e-07
-4.60625e-08
-2.37236e-07
-5.25745e-08
-2.43971e-07
-5.78867e-08
-2.50264e-07
-6.14177e-08
-2.56099e-07
-6.2195e-08
-2.61327e-07
-5.86994e-08
-2.6564e-07
-4.8797e-08
-2.68515e-07
-2.97249e-08
-2.69188e-07
1.90463e-09
-2.66654e-07
4.9978e-08
-2.59641e-07
1.18642e-07
-2.46606e-07
2.12022e-07
-2.258e-07
3.3436e-07
-1.95422e-07
4.90523e-07
-1.53746e-07
6.87004e-07
-9.92925e-08
9.32829e-07
-2.98557e-08
1.23847e-06
5.68101e-08
1.61391e-06
1.6369e-07
2.0646e-06
2.95063e-07
2.58889e-06
4.54112e-07
3.17742e-06
6.42394e-07
3.81424e-06
8.58446e-07
4.47883e-06
1.09772e-06
5.14886e-06
1.35368e-06
5.80325e-06
1.61821e-06
6.42489e-06
1.88244e-06
7.00182e-06
2.13894e-06
7.52767e-06
2.38188e-06
8.00182e-06
2.60716e-06
8.42632e-06
2.81315e-06
8.80415e-06
3.00032e-06
9.13909e-06
3.1699e-06
9.43601e-06
3.32262e-06
9.6999e-06
3.46001e-06
9.93562e-06
3.5837e-06
1.01478e-05
3.69516e-06
1.03408e-05
3.7958e-06
1.05184e-05
3.8869e-06
1.06838e-05
3.96958e-06
1.08395e-05
4.04476e-06
1.09876e-05
4.11311e-06
1.11295e-05
4.17505e-06
1.12663e-05
4.23082e-06
1.13989e-05
4.28045e-06
1.15277e-05
4.32384e-06
1.16531e-05
4.36078e-06
1.17752e-05
4.39096e-06
1.18943e-05
4.41398e-06
1.20102e-05
4.42939e-06
1.21228e-05
4.43666e-06
1.22319e-05
4.43522e-06
1.23374e-05
4.42443e-06
1.24388e-05
4.40362e-06
1.25358e-05
4.37203e-06
1.26279e-05
4.32883e-06
1.27146e-05
4.27317e-06
1.27953e-05
4.20409e-06
1.28692e-05
4.12058e-06
1.29357e-05
4.02152e-06
1.29938e-05
3.90571e-06
1.30427e-05
3.77186e-06
1.30813e-05
3.61855e-06
1.31086e-05
3.44427e-06
1.31231e-05
3.24733e-06
1.31237e-05
3.02591e-06
1.31089e-05
2.77803e-06
1.30772e-05
2.50151e-06
1.30269e-05
2.19396e-06
1.29565e-05
1.85279e-06
1.28669e-05
1.43979e-06
1.27617e-05
1.00092e-06
1.26426e-05
5.9405e-07
1.25111e-05
2.17814e-07
1.23689e-05
-1.28392e-07
1.22163e-05
-4.45351e-07
1.20537e-05
-7.36293e-07
1.18815e-05
-1.00361e-06
1.17008e-05
-1.2487e-06
1.15123e-05
-1.47269e-06
1.13168e-05
-1.67662e-06
1.11149e-05
-1.8615e-06
1.09074e-05
-2.02834e-06
1.0695e-05
-2.17813e-06
1.04783e-05
-2.31189e-06
1.02584e-05
-2.43057e-06
1.0036e-05
-2.53509e-06
9.81207e-06
-2.62622e-06
9.58737e-06
-2.70459e-06
9.36272e-06
-2.77065e-06
9.13904e-06
-2.82469e-06
8.9169e-06
-2.86735e-06
8.69608e-06
-2.89967e-06
8.47624e-06
-2.9229e-06
8.25723e-06
-2.93815e-06
8.03905e-06
-2.94653e-06
7.82183e-06
-2.94914e-06
7.60582e-06
-2.94708e-06
7.39136e-06
-2.94135e-06
7.17889e-06
-2.93289e-06
-2.92251e-06
-3.66734e-09
-3.1865e-07
-1.13452e-08
-1.77012e-07
-1.90919e-08
-1.99852e-07
-2.64659e-08
-2.13736e-07
-3.35633e-08
-2.22783e-07
-4.04142e-08
-2.30388e-07
-4.69627e-08
-2.37425e-07
-5.30788e-08
-2.4415e-07
-5.8545e-08
-2.50635e-07
-6.30097e-08
-2.56864e-07
-6.58997e-08
-2.62751e-07
-6.62924e-08
-2.68123e-07
-6.28063e-08
-2.72675e-07
-5.35247e-08
-2.75936e-07
-3.59495e-08
-2.77218e-07
-6.96598e-09
-2.7559e-07
3.71301e-08
-2.69896e-07
1.0037e-07
-2.58663e-07
1.86825e-07
-2.40202e-07
3.00236e-07
-2.12703e-07
4.44764e-07
-1.74383e-07
6.25268e-07
-1.23695e-07
8.48093e-07
-5.9134e-08
1.12171e-06
2.14484e-08
1.45565e-06
1.20174e-07
1.8582e-06
2.39838e-07
2.33274e-06
3.8391e-07
2.87569e-06
5.54766e-07
3.47661e-06
7.52754e-07
4.11964e-06
9.75179e-07
4.78512e-06
1.21695e-06
5.45259e-06
1.47147e-06
6.10338e-06
1.73109e-06
6.72276e-06
1.98779e-06
7.30063e-06
2.23528e-06
7.83211e-06
2.46884e-06
8.31675e-06
2.68526e-06
8.75579e-06
2.88358e-06
9.15103e-06
3.06478e-06
9.50544e-06
3.22928e-06
9.82288e-06
3.37772e-06
1.01074e-05
3.51132e-06
1.03631e-05
3.63119e-06
1.05942e-05
3.73847e-06
1.08047e-05
3.83424e-06
1.09983e-05
3.91954e-06
1.1178e-05
3.99532e-06
1.13465e-05
4.06234e-06
1.15058e-05
4.12115e-06
1.16575e-05
4.17213e-06
1.18028e-05
4.21544e-06
1.19427e-05
4.25113e-06
1.20776e-05
4.27905e-06
1.2208e-05
4.29899e-06
1.23341e-05
4.31059e-06
1.24559e-05
4.31337e-06
1.25735e-05
4.30687e-06
1.26865e-05
4.29058e-06
1.27948e-05
4.2638e-06
1.28978e-05
4.22577e-06
1.29952e-05
4.17573e-06
1.30864e-05
4.11289e-06
1.31707e-05
4.03629e-06
1.32474e-05
3.94488e-06
1.33155e-05
3.83758e-06
1.33742e-05
3.7132e-06
1.34222e-05
3.57048e-06
1.34585e-05
3.40798e-06
1.34817e-05
3.22416e-06
1.34903e-05
3.01733e-06
1.34827e-05
2.78565e-06
1.34571e-05
2.52704e-06
1.34119e-05
2.23923e-06
1.33449e-05
1.91974e-06
1.32571e-05
1.5276e-06
1.31517e-05
1.10632e-06
1.30304e-05
7.15342e-07
1.2895e-05
3.53188e-07
1.27475e-05
1.91692e-08
1.25889e-05
-2.8682e-07
1.24194e-05
-5.66727e-07
1.22391e-05
-8.23327e-07
1.20489e-05
-1.05853e-06
1.18497e-05
-1.27348e-06
1.16422e-05
-1.46914e-06
1.14273e-05
-1.64653e-06
1.12056e-05
-1.8067e-06
1.09783e-05
-1.95077e-06
1.07462e-05
-2.07987e-06
1.05107e-05
-2.19505e-06
1.02729e-05
-2.29722e-06
1.00338e-05
-2.38714e-06
9.79437e-06
-2.46519e-06
9.55514e-06
-2.53142e-06
9.31633e-06
-2.58589e-06
9.07797e-06
-2.62899e-06
8.84e-06
-2.6617e-06
8.60237e-06
-2.68527e-06
8.36516e-06
-2.70094e-06
8.12859e-06
-2.70996e-06
7.89301e-06
-2.71356e-06
7.65885e-06
-2.71292e-06
7.42665e-06
-2.70915e-06
7.19698e-06
-2.70322e-06
6.97044e-06
-2.69597e-06
6.74762e-06
-2.68804e-06
-2.67993e-06
-3.38021e-09
-3.15267e-07
-9.96443e-09
-1.7041e-07
-1.63311e-08
-1.93474e-07
-2.22935e-08
-2.07772e-07
-2.80493e-08
-2.17027e-07
-3.3701e-08
-2.24735e-07
-3.92697e-08
-2.31855e-07
-4.47273e-08
-2.38691e-07
-5.00038e-08
-2.45357e-07
-5.4981e-08
-2.51885e-07
-5.94674e-08
-2.58264e-07
-6.31485e-08
-2.64442e-07
-6.55055e-08
-2.70318e-07
-6.57272e-08
-2.75714e-07
-6.26038e-08
-2.80341e-07
-5.44218e-08
-2.83772e-07
-3.89031e-08
-2.85414e-07
-1.31612e-08
-2.84403e-07
2.63025e-08
-2.79665e-07
8.34168e-08
-2.69817e-07
1.62278e-07
-2.53244e-07
2.66763e-07
-2.28179e-07
4.00447e-07
-1.92818e-07
5.67395e-07
-1.455e-07
7.72437e-07
-8.48679e-08
1.02172e-06
-9.44238e-09
1.32297e-06
8.26564e-08
1.68452e-06
1.9322e-07
2.11266e-06
3.24613e-07
2.60848e-06
4.79359e-07
3.16657e-06
6.58863e-07
3.77572e-06
8.62318e-07
4.42059e-06
1.08622e-06
5.08297e-06
1.32541e-06
5.74451e-06
1.57373e-06
6.38914e-06
1.82421e-06
7.00429e-06
2.07011e-06
7.58157e-06
2.30631e-06
8.11765e-06
2.5287e-06
8.61192e-06
2.73502e-06
9.06444e-06
2.9252e-06
9.47613e-06
3.09963e-06
9.84915e-06
3.25818e-06
1.01861e-05
3.40147e-06
1.04903e-05
3.53006e-06
1.07652e-05
3.64462e-06
1.10147e-05
3.7459e-06
1.12423e-05
3.83473e-06
1.14515e-05
3.91194e-06
1.16453e-05
3.97829e-06
1.18263e-05
4.03442e-06
1.19966e-05
4.08082e-06
1.21579e-05
4.11782e-06
1.23113e-05
4.14558e-06
1.24578e-05
4.16412e-06
1.25981e-05
4.17302e-06
1.27325e-05
4.17247e-06
1.2861e-05
4.16203e-06
1.29838e-05
4.14106e-06
1.31007e-05
4.10889e-06
1.32114e-05
4.06504e-06
1.33153e-05
4.00893e-06
1.34119e-05
3.93967e-06
1.35005e-05
3.85628e-06
1.35804e-05
3.75776e-06
1.36504e-05
3.64317e-06
1.37095e-05
3.51139e-06
1.37564e-05
3.36109e-06
1.37897e-05
3.19087e-06
1.38077e-05
2.99925e-06
1.38089e-05
2.78455e-06
1.3791e-05
2.54484e-06
1.37523e-05
2.27798e-06
1.36904e-05
1.98166e-06
1.36057e-05
1.61231e-06
1.35012e-05
1.21083e-06
1.33785e-05
8.38043e-07
1.32393e-05
4.92352e-07
1.30858e-05
1.72667e-07
1.29202e-05
-1.21225e-07
1.27431e-05
-3.89644e-07
1.25546e-05
-6.3477e-07
1.23549e-05
-8.58899e-07
1.21449e-05
-1.06345e-06
1.19253e-05
-1.24956e-06
1.16972e-05
-1.41844e-06
1.14618e-05
-1.57126e-06
1.12202e-05
-1.70922e-06
1.0974e-05
-1.83368e-06
1.07245e-05
-1.94548e-06
1.04726e-05
-2.04531e-06
1.02192e-05
-2.13375e-06
9.96497e-06
-2.21098e-06
9.71014e-06
-2.27659e-06
9.45438e-06
-2.33013e-06
9.19757e-06
-2.37218e-06
8.94009e-06
-2.40422e-06
8.68235e-06
-2.42753e-06
8.42482e-06
-2.44341e-06
8.16801e-06
-2.45315e-06
7.91252e-06
-2.45807e-06
7.65901e-06
-2.45941e-06
7.40819e-06
-2.45832e-06
7.16077e-06
-2.45581e-06
6.91748e-06
-2.45267e-06
6.67896e-06
-2.44953e-06
6.44583e-06
-2.4468e-06
-2.44472e-06
-3.08507e-09
-3.12184e-07
-8.50981e-09
-1.64994e-07
-1.33619e-08
-1.88632e-07
-1.77254e-08
-2.03414e-07
-2.18705e-08
-2.12885e-07
-2.59234e-08
-2.20684e-07
-2.99361e-08
-2.27843e-07
-3.39237e-08
-2.34704e-07
-3.7877e-08
-2.41404e-07
-4.17637e-08
-2.47999e-07
-4.55275e-08
-2.54501e-07
-4.90735e-08
-2.60896e-07
-5.22428e-08
-2.67149e-07
-5.47617e-08
-2.73196e-07
-5.61711e-08
-2.78931e-07
-5.576e-08
-2.84183e-07
-5.2496e-08
-2.88678e-07
-4.4873e-08
-2.92027e-07
-3.08413e-08
-2.93697e-07
-7.70788e-09
-2.92952e-07
2.78277e-08
-2.88781e-07
7.95813e-08
-2.79934e-07
1.5166e-07
-2.64898e-07
2.48119e-07
-2.4196e-07
3.72572e-07
-2.09321e-07
5.28429e-07
-1.65299e-07
7.19558e-07
-1.08473e-07
9.50531e-07
-3.7752e-08
1.22692e-06
4.82237e-08
1.55526e-06
1.51021e-07
1.94221e-06
2.7191e-07
2.39189e-06
4.12638e-07
2.90331e-06
5.74808e-07
3.46979e-06
7.58923e-07
4.08009e-06
9.63436e-07
4.71979e-06
1.18451e-06
5.37271e-06
1.41719e-06
6.02292e-06
1.6561e-06
6.65681e-06
1.89481e-06
7.26399e-06
2.12784e-06
7.83834e-06
2.35085e-06
8.37739e-06
2.56057e-06
8.87961e-06
2.75596e-06
9.34397e-06
2.93711e-06
9.7706e-06
3.10344e-06
1.01605e-05
3.25475e-06
1.05154e-05
3.39095e-06
1.0838e-05
3.51214e-06
1.11313e-05
3.61865e-06
1.13986e-05
3.711e-06
1.16432e-05
3.78983e-06
1.18682e-05
3.8558e-06
1.20765e-05
3.90956e-06
1.22704e-05
3.95163e-06
1.24521e-05
3.9824e-06
1.26228e-05
4.00231e-06
1.27837e-05
4.01158e-06
1.2936e-05
4.0097e-06
1.30803e-05
3.99685e-06
1.32171e-05
3.97208e-06
1.33461e-05
3.93604e-06
1.34669e-05
3.88806e-06
1.35794e-05
3.82717e-06
1.36832e-05
3.75255e-06
1.37775e-05
3.66338e-06
1.38616e-05
3.55912e-06
1.39341e-05
3.43889e-06
1.39938e-05
3.30135e-06
1.40394e-05
3.14529e-06
1.40691e-05
2.96956e-06
1.40809e-05
2.77274e-06
1.40727e-05
2.55301e-06
1.40424e-05
2.30832e-06
1.39874e-05
2.03666e-06
1.39076e-05
1.69212e-06
1.38056e-05
1.31282e-06
1.36829e-05
9.60746e-07
1.3541e-05
6.34236e-07
1.33817e-05
3.31958e-07
1.32075e-05
5.30461e-08
1.30206e-05
-2.02781e-07
1.28221e-05
-4.36228e-07
1.26119e-05
-6.48761e-07
1.23908e-05
-8.42307e-07
1.21598e-05
-1.01856e-06
1.19202e-05
-1.17891e-06
1.16735e-05
-1.32447e-06
1.14205e-05
-1.4563e-06
1.11625e-05
-1.57562e-06
1.09001e-05
-1.68309e-06
1.0634e-05
-1.77917e-06
1.03643e-05
-1.86412e-06
1.00915e-05
-1.9382e-06
9.81631e-06
-2.00135e-06
9.53929e-06
-2.05311e-06
9.26082e-06
-2.09371e-06
8.98142e-06
-2.12482e-06
8.70183e-06
-2.14794e-06
8.42275e-06
-2.16433e-06
8.14494e-06
-2.17534e-06
7.86918e-06
-2.18232e-06
7.59632e-06
-2.18655e-06
7.32719e-06
-2.1892e-06
7.06263e-06
-2.19125e-06
6.80341e-06
-2.19346e-06
6.55025e-06
-2.19636e-06
6.30374e-06
-2.20029e-06
6.06438e-06
-2.20536e-06
5.83255e-06
-2.21155e-06
-2.21873e-06
-2.81036e-09
-3.09373e-07
-7.02475e-09
-1.60783e-07
-1.01952e-08
-1.85458e-07
-1.29569e-08
-2.00645e-07
-1.54832e-08
-2.10354e-07
-1.78773e-08
-2.18288e-07
-2.01921e-08
-2.25528e-07
-2.24551e-08
-2.32441e-07
-2.46804e-08
-2.39179e-07
-2.68588e-08
-2.45821e-07
-2.89816e-08
-2.52378e-07
-3.10245e-08
-2.58853e-07
-3.29417e-08
-2.65231e-07
-3.46543e-08
-2.71482e-07
-3.60257e-08
-2.77559e-07
-3.68171e-08
-2.83391e-07
-3.66259e-08
-2.8887e-07
-3.48282e-08
-2.93825e-07
-3.05208e-08
-2.98005e-07
-2.24159e-08
-3.01057e-07
-8.69712e-09
-3.02501e-07
1.3066e-08
-3.01698e-07
4.59394e-08
-2.97771e-07
9.3569e-08
-2.89589e-07
1.60024e-07
-2.75776e-07
2.49466e-07
-2.54741e-07
3.6574e-07
-2.24748e-07
5.12102e-07
-1.84115e-07
6.91659e-07
-1.31334e-07
9.07932e-07
-6.52536e-08
1.16493e-06
1.49076e-08
1.46725e-06
1.10317e-07
1.81979e-06
2.22273e-07
2.2272e-06
3.51511e-07
2.69166e-06
4.98972e-07
3.21079e-06
6.65384e-07
3.77746e-06
8.50518e-07
4.38095e-06
1.05261e-06
5.00797e-06
1.26779e-06
5.6446e-06
1.49121e-06
6.27778e-06
1.71767e-06
6.89638e-06
1.94196e-06
7.49262e-06
2.15972e-06
8.06246e-06
2.36728e-06
8.60272e-06
2.56318e-06
9.11052e-06
2.74695e-06
9.58404e-06
2.91743e-06
1.00227e-05
3.0735e-06
1.04269e-05
3.21448e-06
1.07978e-05
3.34003e-06
1.11376e-05
3.45008e-06
1.14485e-05
3.54483e-06
1.17334e-05
3.62466e-06
1.1995e-05
3.69005e-06
1.22359e-05
3.7415e-06
1.24587e-05
3.77955e-06
1.26657e-05
3.8046e-06
1.28585e-05
3.8169e-06
1.30387e-05
3.81658e-06
1.32067e-05
3.80412e-06
1.3363e-05
3.7797e-06
1.35091e-05
3.74198e-06
1.36448e-05
3.69154e-06
1.377e-05
3.62726e-06
1.38847e-05
3.5487e-06
1.39874e-05
3.45642e-06
1.40772e-05
3.34909e-06
1.41534e-05
3.22517e-06
1.42147e-05
3.084e-06
1.42591e-05
2.9251e-06
1.42845e-05
2.74738e-06
1.42886e-05
2.54893e-06
1.42692e-05
2.32769e-06
1.42237e-05
2.0822e-06
1.41512e-05
1.76461e-06
1.4054e-05
1.40998e-06
1.39336e-05
1.08114e-06
1.37914e-05
7.76444e-07
1.36289e-05
4.94471e-07
1.34479e-05
2.34048e-07
1.32508e-05
-5.68617e-09
1.30399e-05
-2.25373e-07
1.28172e-05
-4.26013e-07
1.2584e-05
-6.09115e-07
1.23416e-05
-7.76121e-07
1.20909e-05
-9.28256e-07
1.1833e-05
-1.06661e-06
1.15686e-05
-1.19189e-06
1.12975e-05
-1.30449e-06
1.10197e-05
-1.40532e-06
1.07357e-05
-1.49515e-06
1.0446e-05
-1.5744e-06
1.01512e-05
-1.64345e-06
9.85258e-06
-1.70271e-06
9.5518e-06
-1.75234e-06
9.25028e-06
-1.79219e-06
8.94852e-06
-1.82306e-06
8.64717e-06
-1.84659e-06
8.34706e-06
-1.86422e-06
8.04909e-06
-1.87736e-06
7.75418e-06
-1.88741e-06
7.46333e-06
-1.8957e-06
7.1775e-06
-1.90336e-06
6.89759e-06
-1.91133e-06
6.62441e-06
-1.92029e-06
6.35868e-06
-1.93063e-06
6.10096e-06
-1.94256e-06
5.85167e-06
-1.95607e-06
5.61113e-06
-1.97101e-06
5.37953e-06
-1.98712e-06
5.15694e-06
-2.00408e-06
4.94338e-06
-2.02154e-06
4.73877e-06
-2.03914e-06
-2.05652e-06
-2.54554e-09
-3.06831e-07
-5.59246e-09
-1.5774e-07
-7.27035e-09
-1.83782e-07
-8.57179e-09
-1.99346e-07
-9.61793e-09
-2.0931e-07
-1.04896e-08
-2.17418e-07
-1.12278e-08
-2.24791e-07
-1.18529e-08
-2.31817e-07
-1.23746e-08
-2.38658e-07
-1.28099e-08
-2.45387e-07
-1.31537e-08
-2.52035e-07
-1.33969e-08
-2.5861e-07
-1.35241e-08
-2.65104e-07
-1.35092e-08
-2.71498e-07
-1.33091e-08
-2.7776e-07
-1.28506e-08
-2.8385e-07
-1.20085e-08
-2.89713e-07
-1.05652e-08
-2.95269e-07
-8.16251e-09
-3.00409e-07
-4.25429e-09
-3.04966e-07
1.94748e-09
-3.08702e-07
1.15498e-08
-3.11299e-07
2.61125e-08
-3.12333e-07
4.77747e-08
-3.1125e-07
7.93277e-08
-3.07327e-07
1.24158e-07
-2.9957e-07
1.86166e-07
-2.86755e-07
2.69474e-07
-2.67423e-07
3.7809e-07
-2.39952e-07
5.15534e-07
-2.02698e-07
6.84584e-07
-1.54144e-07
8.879e-07
-9.29988e-08
1.12853e-06
-1.8358e-08
1.40977e-06
7.02759e-08
1.73499e-06
1.73745e-07
2.10728e-06
2.93096e-07
2.52903e-06
4.28766e-07
3.00097e-06
5.80676e-07
3.52005e-06
7.48714e-07
4.07932e-06
9.31929e-07
4.66879e-06
1.1282e-06
5.27662e-06
1.33414e-06
5.89119e-06
1.54514e-06
6.5024e-06
1.75608e-06
7.10252e-06
1.96305e-06
7.68611e-06
2.16336e-06
8.24848e-06
2.35506e-06
8.78563e-06
2.53635e-06
9.29453e-06
2.70559e-06
9.77312e-06
2.86144e-06
1.02203e-05
3.00287e-06
1.0636e-05
3.12916e-06
1.10208e-05
3.23989e-06
1.13759e-05