/*--------------------------------*- C++ -*----------------------------------*\
  =========                 |
  \\      /  F ield         | OpenFOAM: The Open Source CFD Toolbox
   \\    /   O peration     | Website:  https://openfoam.org
    \\  /    A nd           | Version:  10
     \\/     M anipulation  |
\*---------------------------------------------------------------------------*/
FoamFile
{
    format      ascii;
    class       volScalarField;
    location    "42000";
    object      Co;
}
// * * * * * * * * * * * * * * * * * * * * * * * * * * * * * * * * * * * * * //

dimensions      [0 0 0 0 0 0 0];

internalField   nonuniform List<scalar> 
17808
(
6657.02
6134.09
5903.89
5747.18
5627.33
5530.28
5448.57
5377.87
5315.43
5259.43
5208.58
5161.95
5118.83
5078.69
5041.08
5005.68
4972.2
4940.41
4910.13
4881.19
4853.46
4826.83
4801.18
4776.44
4752.52
4729.37
4706.91
4685.1
4663.9
4643.25
4623.12
4603.47
4584.28
4565.52
4547.15
4529.16
4511.53
4494.23
4477.24
4460.55
4444.14
4428
4412.12
4396.47
4381.05
4365.85
4350.85
4336.05
4321.44
4307
4292.74
4278.63
4264.68
4250.87
4237.2
4223.67
4210.26
4196.97
4183.79
4170.72
4157.76
4144.89
4132.12
4119.43
4106.83
4094.3
4081.85
4069.47
4057.16
4044.9
4032.7
4020.56
4008.46
3996.41
3984.4
3972.43
3960.49
3948.58
3936.7
3924.83
3912.99
3901.16
3889.33
3877.52
3865.7
3853.88
3842.06
3830.22
3818.37
3806.5
3794.6
3782.68
6453.2
5939.83
5714.71
5563.31
5448.8
5356.69
5279.43
5212.67
5153.69
5100.72
5052.54
5008.26
4967.22
4928.93
4892.99
4859.1
4827
4796.48
4767.36
4739.51
4712.8
4687.12
4662.37
4638.48
4615.37
4592.98
4571.26
4550.16
4529.64
4509.64
4490.14
4471.11
4452.51
4434.32
4416.51
4399.06
4381.96
4365.17
4348.69
4332.49
4316.57
4300.9
4285.48
4270.29
4255.32
4240.55
4225.99
4211.62
4197.42
4183.4
4169.54
4155.84
4142.29
4128.87
4115.59
4102.44
4089.42
4076.5
4063.7
4051.01
4038.41
4025.91
4013.5
4001.17
3988.93
3976.76
3964.67
3952.64
3940.67
3928.77
3916.91
3905.12
3893.36
3881.66
3869.99
3858.36
3846.76
3835.19
3823.64
3812.12
3800.61
3789.11
3777.63
3766.15
3754.67
3743.19
3731.71
3720.21
3708.7
3697.16
3685.61
3674.02
6266.28
5767.4
5547.86
5399.72
5287.67
5197.68
5122.4
5057.57
5000.47
4949.31
4902.87
4860.25
4820.78
4783.97
4749.43
4716.84
4685.97
4656.6
4628.58
4601.75
4576.01
4551.24
4527.36
4504.3
4481.98
4460.35
4439.36
4418.95
4399.09
4379.74
4360.86
4342.43
4324.41
4306.79
4289.53
4272.62
4256.03
4239.75
4223.76
4208.05
4192.6
4177.4
4162.43
4147.68
4133.15
4118.82
4104.68
4090.72
4076.94
4063.32
4049.86
4036.56
4023.39
4010.36
3997.46
3984.69
3972.03
3959.49
3947.06
3934.72
3922.49
3910.34
3898.28
3886.31
3874.41
3862.59
3850.84
3839.15
3827.53
3815.96
3804.45
3792.99
3781.57
3770.19
3758.86
3747.56
3736.29
3725.05
3713.83
3702.64
3691.46
3680.29
3669.13
3657.98
3646.83
3635.68
3624.52
3613.35
3602.17
3590.97
3579.74
3568.49
6084.6
5599.79
5386.39
5242.43
5133.49
5045.92
4972.65
4909.55
4854.01
4804.3
4759.22
4717.9
4679.67
4644.05
4610.66
4579.17
4549.35
4521
4493.94
4468.04
4443.18
4419.27
4396.21
4373.93
4352.37
4331.46
4311.16
4291.42
4272.21
4253.48
4235.21
4217.36
4199.92
4182.84
4166.12
4149.73
4133.65
4117.87
4102.37
4087.13
4072.14
4057.39
4042.87
4028.56
4014.45
4000.54
3986.82
3973.27
3959.89
3946.67
3933.6
3920.67
3907.89
3895.24
3882.71
3870.3
3858.01
3845.83
3833.75
3821.77
3809.88
3798.08
3786.37
3774.74
3763.18
3751.69
3740.28
3728.92
3717.63
3706.39
3695.21
3684.07
3672.98
3661.93
3650.92
3639.94
3628.99
3618.07
3607.18
3596.3
3585.44
3574.59
3563.75
3552.92
3542.09
3531.26
3520.42
3509.57
3498.7
3487.82
3476.92
3465.98
5908.55
5437.25
5229.48
5089.46
4983.56
4898.47
4827.32
4766.06
4712.16
4663.94
4620.22
4580.15
4543.11
4508.61
4476.27
4445.8
4416.95
4389.52
4363.35
4338.31
4314.28
4291.16
4268.86
4247.32
4226.47
4206.25
4186.61
4167.52
4148.93
4130.8
4113.12
4095.84
4078.94
4062.4
4046.2
4030.32
4014.73
3999.44
3984.41
3969.63
3955.09
3940.79
3926.7
3912.82
3899.13
3885.63
3872.31
3859.16
3846.17
3833.33
3820.65
3808.1
3795.68
3783.4
3771.23
3759.18
3747.24
3735.41
3723.68
3712.04
3700.5
3689.04
3677.66
3666.36
3655.13
3643.98
3632.89
3621.86
3610.89
3599.97
3589.1
3578.29
3567.51
3556.78
3546.08
3535.41
3524.78
3514.17
3503.58
3493.02
3482.47
3471.93
3461.4
3450.88
3440.35
3429.83
3419.3
3408.76
3398.21
3387.64
3377.04
3366.43
5738.06
5280.17
5078.01
4941.8
4838.76
4756
4686.82
4627.27
4574.9
4528.07
4485.64
4446.77
4410.84
4377.4
4346.06
4316.53
4288.59
4262.03
4236.7
4212.46
4189.2
4166.82
4145.24
4124.4
4104.22
4084.65
4065.65
4047.17
4029.17
4011.62
3994.5
3977.76
3961.4
3945.38
3929.68
3914.29
3899.19
3884.36
3869.79
3855.47
3841.37
3827.5
3813.83
3800.37
3787.09
3773.99
3761.06
3748.3
3735.69
3723.23
3710.92
3698.74
3686.68
3674.75
3662.94
3651.24
3639.65
3628.16
3616.76
3605.46
3594.24
3583.11
3572.06
3561.09
3550.18
3539.35
3528.57
3517.86
3507.2
3496.6
3486.04
3475.53
3465.07
3454.64
3444.24
3433.88
3423.55
3413.25
3402.96
3392.7
3382.45
3372.21
3361.99
3351.76
3341.54
3331.32
3321.09
3310.85
3300.6
3290.33
3280.04
3269.73
5572.72
5127.95
4931.42
4799.01
4698.81
4618.34
4551.05
4493.14
4442.22
4396.7
4355.46
4317.7
4282.81
4250.34
4219.92
4191.28
4164.18
4138.43
4113.87
4090.38
4067.85
4046.17
4025.27
4005.08
3985.54
3966.59
3948.18
3930.29
3912.86
3895.87
3879.28
3863.07
3847.22
3831.7
3816.49
3801.57
3786.94
3772.57
3758.44
3744.55
3730.89
3717.43
3704.18
3691.12
3678.23
3665.53
3652.99
3640.6
3628.37
3616.27
3604.32
3592.49
3580.79
3569.21
3557.74
3546.38
3535.13
3523.97
3512.9
3501.93
3491.04
3480.23
3469.49
3458.83
3448.24
3437.71
3427.25
3416.84
3406.49
3396.19
3385.94
3375.73
3365.56
3355.43
3345.33
3335.27
3325.23
3315.22
3305.23
3295.26
3285.31
3275.36
3265.43
3255.49
3245.57
3235.63
3225.7
3215.75
3205.79
3195.82
3185.82
3175.8
5412.24
4980.23
4789.23
4660.55
4563.14
4484.92
4419.51
4363.22
4313.72
4269.46
4229.38
4192.68
4158.78
4127.24
4097.7
4069.89
4043.58
4018.59
3994.77
3971.99
3950.13
3929.11
3908.86
3889.29
3870.34
3851.98
3834.15
3816.81
3799.92
3783.45
3767.38
3751.68
3736.31
3721.27
3706.53
3692.08
3677.89
3663.96
3650.27
3636.8
3623.55
3610.5
3597.65
3584.98
3572.49
3560.16
3547.99
3535.97
3524.1
3512.37
3500.76
3489.29
3477.93
3466.69
3455.55
3444.52
3433.59
3422.76
3412.01
3401.36
3390.78
3380.28
3369.86
3359.5
3349.22
3338.99
3328.83
3318.72
3308.67
3298.66
3288.7
3278.78
3268.91
3259.07
3249.26
3239.49
3229.74
3220.01
3210.31
3200.62
3190.95
3181.29
3171.64
3161.99
3152.35
3142.7
3133.05
3123.38
3113.71
3104.02
3094.31
3084.58
5256.45
4836.83
4651.24
4526.18
4431.51
4355.49
4291.91
4237.2
4189.09
4146.08
4107.12
4071.45
4038.52
4007.87
3979.18
3952.17
3926.63
3902.37
3879.25
3857.13
3835.93
3815.54
3795.89
3776.91
3758.54
3740.73
3723.44
3706.63
3690.26
3674.3
3658.72
3643.5
3628.61
3614.03
3599.74
3585.73
3571.97
3558.47
3545.19
3532.13
3519.28
3506.63
3494.16
3481.88
3469.76
3457.8
3445.99
3434.33
3422.81
3411.42
3400.17
3389.03
3378
3367.09
3356.28
3345.58
3334.96
3324.44
3314.01
3303.66
3293.39
3283.2
3273.08
3263.02
3253.03
3243.1
3233.23
3223.41
3213.65
3203.93
3194.26
3184.62
3175.03
3165.47
3155.95
3146.45
3136.98
3127.53
3118.11
3108.7
3099.3
3089.92
3080.54
3071.17
3061.8
3052.43
3043.05
3033.67
3024.27
3014.86
3005.43
2995.97
5105.19
4697.62
4517.31
4395.78
4303.78
4229.9
4168.12
4114.94
4068.19
4026.39
3988.53
3953.87
3921.87
3892.09
3864.22
3837.99
3813.18
3789.62
3767.17
3745.7
3725.12
3705.33
3686.26
3667.84
3650.02
3632.75
3615.98
3599.67
3583.8
3568.32
3553.21
3538.45
3524.01
3509.87
3496.02
3482.43
3469.1
3456
3443.13
3430.46
3418
3405.73
3393.64
3381.72
3369.96
3358.36
3346.91
3335.6
3324.42
3313.37
3302.44
3291.63
3280.93
3270.34
3259.85
3249.46
3239.16
3228.94
3218.82
3208.77
3198.8
3188.9
3179.07
3169.3
3159.6
3149.96
3140.37
3130.84
3121.35
3111.91
3102.52
3093.16
3083.84
3074.56
3065.31
3056.08
3046.88
3037.71
3028.55
3019.41
3010.29
3001.17
2992.06
2982.96
2973.86
2964.76
2955.65
2946.53
2937.4
2928.26
2919.1
2909.91
4958.33
4562.47
4387.31
4269.21
4179.82
4108.03
4048
3996.32
3950.89
3910.26
3873.47
3839.8
3808.7
3779.77
3752.69
3727.2
3703.1
3680.22
3658.41
3637.57
3617.58
3598.37
3579.86
3561.98
3544.69
3527.93
3511.66
3495.84
3480.43
3465.42
3450.76
3436.45
3422.44
3408.73
3395.29
3382.12
3369.18
3356.48
3343.99
3331.71
3319.63
3307.72
3295.99
3284.43
3273.03
3261.77
3250.66
3239.69
3228.84
3218.12
3207.52
3197.02
3186.64
3176.36
3166.18
3156.09
3146.09
3136.18
3126.34
3116.59
3106.91
3097.29
3087.75
3078.27
3068.85
3059.48
3050.17
3040.91
3031.7
3022.53
3013.41
3004.32
2995.27
2986.25
2977.27
2968.31
2959.37
2950.46
2941.57
2932.69
2923.82
2914.97
2906.12
2897.28
2888.44
2879.6
2870.75
2861.89
2853.03
2844.15
2835.25
2826.33
4815.73
4431.23
4261.08
4146.34
4059.49
3989.74
3931.4
3881.19
3837.04
3797.57
3761.82
3729.09
3698.88
3670.77
3644.46
3619.69
3596.28
3574.05
3552.87
3532.63
3513.22
3494.56
3476.59
3459.24
3442.45
3426.18
3410.38
3395.03
3380.09
3365.52
3351.3
3337.4
3323.82
3310.51
3297.48
3284.7
3272.15
3259.83
3247.72
3235.8
3224.08
3212.53
3201.15
3189.94
3178.87
3167.95
3157.17
3146.52
3136
3125.59
3115.3
3105.12
3095.05
3085.07
3075.19
3065.39
3055.69
3046.06
3036.52
3027.05
3017.65
3008.31
2999.05
2989.84
2980.69
2971.6
2962.56
2953.57
2944.62
2935.72
2926.86
2918.03
2909.24
2900.48
2891.75
2883.05
2874.37
2865.72
2857.08
2848.45
2839.84
2831.24
2822.65
2814.06
2805.47
2796.88
2788.29
2779.69
2771.07
2762.45
2753.8
2745.14
4677.24
4303.8
4138.52
4027.04
3942.66
3874.89
3818.21
3769.43
3726.53
3688.18
3653.44
3621.64
3592.28
3564.97
3539.41
3515.35
3492.61
3471.01
3450.44
3430.77
3411.92
3393.8
3376.35
3359.5
3343.2
3327.4
3312.07
3297.17
3282.66
3268.52
3254.72
3241.24
3228.05
3215.14
3202.5
3190.09
3177.92
3165.96
3154.21
3142.65
3131.28
3120.07
3109.04
3098.15
3087.42
3076.82
3066.36
3056.03
3045.82
3035.72
3025.74
3015.86
3006.08
2996.39
2986.8
2977.29
2967.87
2958.53
2949.26
2940.07
2930.94
2921.88
2912.89
2903.95
2895.07
2886.24
2877.46
2868.72
2860.04
2851.39
2842.78
2834.21
2825.68
2817.17
2808.69
2800.24
2791.81
2783.4
2775.01
2766.64
2758.27
2749.92
2741.57
2733.23
2724.89
2716.54
2708.2
2699.84
2691.47
2683.09
2674.7
2666.28
4542.76
4180.05
4019.51
3911.21
3829.22
3763.38
3708.32
3660.92
3619.24
3581.98
3548.23
3517.34
3488.81
3462.27
3437.44
3414.06
3391.97
3370.99
3351.01
3331.9
3313.59
3295.99
3279.04
3262.68
3246.85
3231.51
3216.62
3202.15
3188.07
3174.34
3160.95
3147.86
3135.06
3122.53
3110.26
3098.22
3086.41
3074.81
3063.4
3052.19
3041.15
3030.28
3019.57
3009.01
2998.59
2988.31
2978.16
2968.13
2958.22
2948.43
2938.74
2929.15
2919.65
2910.26
2900.95
2891.72
2882.57
2873.51
2864.51
2855.58
2846.73
2837.93
2829.19
2820.52
2811.89
2803.32
2794.79
2786.31
2777.88
2769.48
2761.12
2752.8
2744.51
2736.25
2728.01
2719.81
2711.62
2703.45
2695.3
2687.17
2679.04
2670.93
2662.82
2654.72
2646.62
2638.51
2630.4
2622.29
2614.16
2606.02
2597.86
2589.69
4412.16
4059.87
3903.94
3798.72
3719.08
3655.11
3601.62
3555.57
3515.08
3478.88
3446.09
3416.07
3388.35
3362.57
3338.44
3315.74
3294.27
3273.89
3254.48
3235.92
3218.13
3201.04
3184.58
3168.68
3153.31
3138.41
3123.96
3109.91
3096.23
3082.9
3069.9
3057.19
3044.77
3032.61
3020.7
3009.01
2997.55
2986.29
2975.22
2964.33
2953.62
2943.07
2932.68
2922.43
2912.32
2902.34
2892.49
2882.76
2873.14
2863.63
2854.23
2844.92
2835.71
2826.59
2817.55
2808.6
2799.72
2790.92
2782.19
2773.52
2764.92
2756.38
2747.9
2739.47
2731.1
2722.78
2714.5
2706.27
2698.07
2689.92
2681.8
2673.72
2665.67
2657.65
2649.65
2641.68
2633.73
2625.79
2617.88
2609.98
2602.09
2594.21
2586.33
2578.46
2570.59
2562.72
2554.84
2546.96
2539.07
2531.16
2523.24
2515.3
4285.32
3943.16
3791.7
3689.5
3612.12
3549.98
3498.01
3453.28
3413.94
3378.77
3346.91
3317.75
3290.82
3265.78
3242.33
3220.27
3199.42
3179.62
3160.76
3142.73
3125.46
3108.85
3092.86
3077.42
3062.49
3048.03
3033.99
3020.34
3007.06
2994.12
2981.49
2969.16
2957.1
2945.29
2933.72
2922.38
2911.25
2900.32
2889.58
2879.01
2868.62
2858.38
2848.29
2838.34
2828.53
2818.85
2809.29
2799.84
2790.51
2781.28
2772.15
2763.12
2754.18
2745.32
2736.55
2727.86
2719.24
2710.7
2702.22
2693.81
2685.46
2677.17
2668.94
2660.76
2652.63
2644.54
2636.51
2628.51
2620.56
2612.64
2604.76
2596.91
2589.09
2581.3
2573.53
2565.79
2558.07
2550.37
2542.68
2535
2527.34
2519.69
2512.04
2504.39
2496.75
2489.1
2481.45
2473.79
2466.13
2458.45
2450.75
2443.04
4162.14
3829.82
3682.71
3583.42
3508.26
3447.89
3397.4
3353.94
3315.73
3281.56
3250.61
3222.28
3196.12
3171.79
3149.02
3127.58
3107.32
3088.09
3069.77
3052.26
3035.47
3019.35
3003.81
2988.82
2974.31
2960.26
2946.63
2933.38
2920.48
2907.91
2895.65
2883.67
2871.96
2860.5
2849.27
2838.26
2827.45
2816.84
2806.41
2796.16
2786.06
2776.12
2766.33
2756.68
2747.15
2737.75
2728.47
2719.31
2710.25
2701.29
2692.43
2683.66
2674.98
2666.39
2657.88
2649.44
2641.07
2632.78
2624.55
2616.38
2608.28
2600.23
2592.24
2584.29
2576.4
2568.55
2560.75
2552.99
2545.26
2537.58
2529.92
2522.3
2514.71
2507.14
2499.6
2492.08
2484.58
2477.1
2469.63
2462.18
2454.74
2447.3
2439.87
2432.45
2425.02
2417.6
2410.17
2402.73
4042.51
3719.74
3576.85
3480.41
3407.39
3348.75
3299.7
3257.48
3220.36
3187.17
3157.1
3129.58
3104.17
3080.53
3058.4
3037.58
3017.9
2999.22
2981.42
2964.41
2948.1
2932.44
2917.35
2902.78
2888.69
2875.05
2861.81
2848.93
2836.41
2824.2
2812.3
2800.66
2789.29
2778.16
2767.26
2756.57
2746.08
2735.77
2725.65
2715.69
2705.89
2696.24
2686.74
2677.36
2668.12
2659
2649.99
2641.09
2632.3
2623.6
2615
2606.49
2598.07
2589.72
2581.46
2573.27
2565.15
2557.1
2549.11
2541.18
2533.31
2525.5
2517.74
2510.03
2502.36
2494.74
2487.17
2479.63
2472.13
2464.67
2457.23
2449.83
2442.46
2435.11
2427.79
2420.49
2413.2
2405.94
2398.69
2391.45
2384.22
2377
2369.78
2362.57
2355.36
2348.14
2340.93
2333.7
3926.32
3612.83
3474.05
3380.37
3309.44
3252.47
3204.82
3163.81
3127.75
3095.5
3066.3
3039.56
3014.87
2991.91
2970.42
2950.19
2931.07
2912.92
2895.63
2879.1
2863.27
2848.05
2833.39
2819.24
2805.56
2792.3
2779.44
2766.94
2754.78
2742.92
2731.36
2720.06
2709.02
2698.21
2687.62
2677.24
2667.05
2657.05
2647.22
2637.55
2628.03
2618.67
2609.44
2600.34
2591.36
2582.51
2573.76
2565.12
2556.59
2548.15
2539.8
2531.54
2523.36
2515.26
2507.23
2499.28
2491.4
2483.58
2475.83
2468.13
2460.49
2452.91
2445.37
2437.89
2430.45
2423.05
2415.69
2408.38
2401.09
2393.85
2386.63
2379.44
2372.28
2365.15
2358.04
2350.94
2343.87
2336.82
2329.77
2322.74
2315.72
2308.71
2301.7
2294.7
2287.69
2280.69
2273.68
2266.66
3813.48
3508.99
3374.2
3283.21
3214.31
3158.96
3112.68
3072.84
3037.81
3006.49
2978.11
2952.14
2928.16
2905.85
2884.97
2865.33
2846.75
2829.12
2812.32
2796.27
2780.89
2766.1
2751.86
2738.12
2724.83
2711.95
2699.46
2687.32
2675.5
2663.99
2652.76
2641.79
2631.06
2620.56
2610.28
2600.2
2590.31
2580.59
2571.05
2561.66
2552.42
2543.33
2534.37
2525.53
2516.82
2508.22
2499.73
2491.34
2483.06
2474.86
2466.76
2458.74
2450.8
2442.93
2435.14
2427.43
2419.77
2412.18
2404.66
2397.18
2389.77
2382.4
2375.09
2367.82
2360.6
2353.41
2346.27
2339.17
2332.09
2325.06
2318.05
2311.07
2304.12
2297.19
2290.28
2283.4
2276.53
2269.68
2262.84
2256.01
2249.19
2242.38
2235.57
2228.77
2221.97
3703.88
3408.15
3277.23
3188.85
3121.92
3068.16
3023.2
2984.5
2950.47
2920.04
2892.48
2867.25
2843.95
2822.28
2802
2782.91
2764.87
2747.74
2731.43
2715.83
2700.89
2686.53
2672.7
2659.35
2646.44
2633.93
2621.79
2610
2598.52
2587.34
2576.43
2565.78
2555.36
2545.17
2535.18
2525.39
2515.78
2506.35
2497.08
2487.96
2478.99
2470.16
2461.46
2452.88
2444.42
2436.07
2427.83
2419.69
2411.64
2403.69
2395.82
2388.03
2380.32
2372.69
2365.13
2357.63
2350.2
2342.84
2335.53
2328.27
2321.07
2313.92
2306.82
2299.76
2292.75
2285.78
2278.84
2271.94
2265.08
2258.24
2251.44
2244.66
2237.91
2231.18
2224.48
2217.79
2211.12
2204.46
2197.82
2191.19
2184.57
2177.96
2171.35
2164.74
2158.13
3597.44
3310.21
3183.05
3097.2
3032.19
2979.97
2936.3
2898.7
2865.64
2836.09
2809.31
2784.81
2762.18
2741.13
2721.42
2702.88
2685.35
2668.72
2652.87
2637.72
2623.2
2609.25
2595.82
2582.85
2570.31
2558.16
2546.37
2534.92
2523.77
2512.91
2502.31
2491.96
2481.85
2471.95
2462.25
2452.74
2443.41
2434.25
2425.25
2416.39
2407.68
2399.11
2390.66
2382.33
2374.11
2366.01
2358
2350.1
2342.28
2334.56
2326.92
2319.36
2311.87
2304.46
2297.12
2289.85
2282.63
2275.48
2268.38
2261.34
2254.35
2247.41
2240.51
2233.66
2226.85
2220.08
2213.35
2206.65
2199.98
2193.35
2186.74
2180.16
2173.6
2167.07
2160.56
2154.06
2147.59
2141.12
2134.67
2128.23
2121.8
2115.38
2108.96
2102.54
2096.13
3494.06
3215.09
3091.59
3008.2
2945.05
2894.32
2851.9
2815.38
2783.26
2754.55
2728.55
2704.74
2682.76
2662.31
2643.17
2625.16
2608.13
2591.97
2576.58
2561.86
2547.76
2534.21
2521.16
2508.56
2496.38
2484.58
2473.13
2462
2451.18
2440.63
2430.33
2420.28
2410.46
2400.84
2391.42
2382.18
2373.12
2364.23
2355.48
2346.89
2338.43
2330.1
2321.9
2313.81
2305.83
2297.96
2290.19
2282.51
2274.92
2267.42
2260
2252.66
2245.4
2238.2
2231.07
2224.01
2217
2210.06
2203.17
2196.33
2189.54
2182.8
2176.11
2169.46
2162.84
2156.27
2149.73
2143.23
2136.75
2130.31
2123.9
2117.51
2111.14
2104.8
2098.47
2092.17
2085.88
2079.6
2073.34
2067.08
2060.84
2054.6
2048.37
2042.13
2035.9
3393.65
3122.7
3002.75
2921.75
2860.41
2811.14
2769.93
2734.46
2703.26
2675.37
2650.11
2626.98
2605.63
2585.77
2567.18
2549.68
2533.14
2517.44
2502.49
2488.19
2474.5
2461.33
2448.65
2436.42
2424.59
2413.12
2402
2391.2
2380.68
2370.43
2360.43
2350.67
2341.13
2331.79
2322.64
2313.67
2304.87
2296.23
2287.74
2279.39
2271.17
2263.08
2255.12
2247.26
2239.51
2231.87
2224.32
2216.87
2209.5
2202.22
2195.01
2187.89
2180.83
2173.84
2166.92
2160.06
2153.26
2146.52
2139.83
2133.19
2126.6
2120.06
2113.55
2107.09
2100.67
2094.29
2087.94
2081.63
2075.34
2069.09
2062.86
2056.65
2050.47
2044.31
2038.17
2032.05
2025.94
2019.84
2013.76
2007.69
2001.62
1995.56
1989.51
1983.46
1977.4
3296.13
3032.97
2916.47
2837.8
2778.21
2730.35
2690.32
2655.86
2625.56
2598.47
2573.93
2551.47
2530.73
2511.43
2493.37
2476.38
2460.31
2445.06
2430.53
2416.65
2403.34
2390.56
2378.24
2366.36
2354.86
2343.73
2332.93
2322.43
2312.21
2302.26
2292.55
2283.07
2273.8
2264.72
2255.84
2247.13
2238.58
2230.19
2221.94
2213.83
2205.85
2198
2190.26
2182.63
2175.11
2167.69
2160.36
2153.12
2145.96
2138.89
2131.9
2124.98
2118.12
2111.34
2104.62
2097.96
2091.35
2084.81
2078.31
2071.86
2065.46
2059.11
2052.8
2046.53
2040.29
2034.09
2027.93
2021.8
2015.69
2009.62
2003.57
1997.54
1991.54
1985.56
1979.6
1973.65
1967.72
1961.8
1955.89
1950
1944.11
1938.22
1932.34
1926.46
1920.58
3201.41
2945.82
2832.66
2756.25
2698.38
2651.89
2613
2579.53
2550.1
2523.78
2499.95
2478.13
2457.98
2439.24
2421.69
2405.19
2389.58
2374.77
2360.66
2347.17
2334.24
2321.82
2309.86
2298.32
2287.15
2276.34
2265.84
2255.65
2245.72
2236.06
2226.63
2217.41
2208.41
2199.6
2190.97
2182.51
2174.2
2166.05
2158.04
2150.17
2142.42
2134.79
2127.28
2119.87
2112.56
2105.35
2098.23
2091.2
2084.26
2077.39
2070.6
2063.87
2057.22
2050.63
2044.11
2037.64
2031.23
2024.87
2018.56
2012.3
2006.09
1999.92
1993.79
1987.7
1981.64
1975.62
1969.64
1963.68
1957.76
1951.86
1945.99
1940.13
1934.31
1928.5
1922.71
1916.93
1911.17
1905.43
1899.69
1893.96
1888.24
1882.53
1876.82
1871.11
1865.4
3109.42
2861.18
2751.27
2677.05
2620.84
2575.68
2537.91
2505.4
2476.81
2451.24
2428.09
2406.9
2387.33
2369.12
2352.08
2336.05
2320.89
2306.5
2292.79
2279.69
2267.14
2255.07
2243.45
2232.24
2221.39
2210.89
2200.7
2190.79
2181.15
2171.76
2162.6
2153.65
2144.91
2136.35
2127.97
2119.75
2111.68
2103.77
2095.99
2088.34
2080.81
2073.4
2066.1
2058.91
2051.81
2044.81
2037.9
2031.07
2024.33
2017.66
2011.06
2004.53
1998.07
1991.67
1985.34
1979.05
1972.83
1966.65
1960.53
1954.45
1948.42
1942.42
1936.47
1930.56
1924.68
1918.84
1913.02
1907.24
1901.49
1895.76
1890.05
1884.37
1878.71
1873.07
1867.45
1861.84
1856.25
1850.67
1845.1
1839.53
1833.98
1828.43
1822.88
1817.34
1811.79
3020.07
2778.97
2672.22
2600.14
2545.54
2501.67
2464.98
2433.4
2405.63
2380.8
2358.31
2337.72
2318.71
2301.02
2284.47
2268.9
2254.17
2240.2
2226.88
2214.16
2201.96
2190.24
2178.96
2168.06
2157.53
2147.32
2137.42
2127.8
2118.44
2109.32
2100.42
2091.73
2083.24
2074.92
2066.78
2058.8
2050.97
2043.28
2035.72
2028.29
2020.98
2013.79
2006.7
1999.71
1992.82
1986.02
1979.3
1972.67
1966.12
1959.64
1953.24
1946.9
1940.62
1934.41
1928.26
1922.16
1916.11
1910.11
1904.17
1898.26
1892.4
1886.58
1880.8
1875.06
1869.35
1863.68
1858.03
1852.42
1846.83
1841.27
1835.73
1830.21
1824.72
1819.24
1813.78
1808.33
1802.9
1797.48
1792.07
1786.67
1781.28
1775.89
1770.5
1765.11
1759.73
2933.29
2699.12
2595.44
2525.43
2472.4
2429.79
2394.15
2363.47
2336.49
2312.37
2290.53
2270.53
2252.06
2234.89
2218.81
2203.68
2189.38
2175.8
2162.87
2150.51
2138.66
2127.28
2116.32
2105.74
2095.5
2085.59
2075.98
2066.63
2057.54
2048.68
2040.03
2031.59
2023.34
2015.27
2007.36
1999.6
1992
1984.53
1977.19
1969.97
1962.87
1955.88
1949
1942.21
1935.52
1928.91
1922.39
1915.95
1909.59
1903.3
1897.08
1890.92
1884.83
1878.8
1872.82
1866.89
1861.02
1855.2
1849.42
1843.69
1838
1832.35
1826.74
1821.16
1815.62
1810.11
1804.63
1799.17
1793.75
1788.34
1782.97
1777.61
1772.27
1766.95
1761.65
1756.36
1751.09
1745.82
1740.57
1735.32
1730.08
1724.85
1719.62
1714.39
1709.16
2849.01
2621.57
2520.87
2452.87
2401.36
2359.97
2325.35
2295.55
2269.35
2245.92
2224.7
2205.28
2187.34
2170.65
2155.04
2140.34
2126.45
2113.26
2100.7
2088.69
2077.19
2066.13
2055.48
2045.2
2035.27
2025.64
2016.3
2007.22
1998.39
1989.78
1981.38
1973.19
1965.17
1957.33
1949.65
1942.11
1934.73
1927.47
1920.34
1913.34
1906.44
1899.65
1892.96
1886.37
1879.87
1873.46
1867.12
1860.87
1854.69
1848.58
1842.54
1836.56
1830.64
1824.78
1818.98
1813.22
1807.52
1801.87
1796.26
1790.69
1785.16
1779.68
1774.22
1768.81
1763.43
1758.07
1752.75
1747.46
1742.19
1736.94
1731.72
1726.52
1721.33
1716.17
1711.02
1705.88
1700.76
1695.65
1690.55
1685.45
1680.36
1675.28
1670.2
1665.12
1660.04
2767.14
2546.24
2448.44
2382.39
2332.36
2292.16
2258.54
2229.59
2204.14
2181.38
2160.77
2141.9
2124.48
2108.27
2093.1
2078.83
2065.33
2052.52
2040.32
2028.66
2017.48
2006.74
1996.4
1986.42
1976.76
1967.41
1958.34
1949.52
1940.94
1932.58
1924.43
1916.46
1908.68
1901.06
1893.6
1886.28
1879.1
1872.06
1865.14
1858.33
1851.63
1845.04
1838.54
1832.14
1825.82
1819.59
1813.44
1807.37
1801.37
1795.43
1789.56
1783.76
1778.01
1772.32
1766.68
1761.1
1755.56
1750.07
1744.62
1739.21
1733.84
1728.52
1723.22
1717.96
1712.73
1707.54
1702.37
1697.23
1692.11
1687.01
1681.94
1676.89
1671.86
1666.84
1661.84
1656.85
1651.88
1646.91
1641.96
1637.01
1632.07
1627.13
1622.2
1617.27
1612.33
2687.63
2473.09
2378.1
2313.94
2265.35
2226.3
2193.64
2165.53
2140.8
2118.7
2098.67
2080.35
2063.42
2047.68
2032.95
2019.08
2005.97
1993.53
1981.68
1970.35
1959.49
1949.06
1939.02
1929.32
1919.94
1910.86
1902.04
1893.48
1885.15
1877.03
1869.11
1861.37
1853.81
1846.41
1839.16
1832.06
1825.09
1818.24
1811.52
1804.91
1798.4
1792
1785.69
1779.47
1773.33
1767.28
1761.31
1755.41
1749.58
1743.82
1738.12
1732.48
1726.9
1721.37
1715.89
1710.47
1705.09
1699.75
1694.46
1689.21
1684
1678.83
1673.69
1668.58
1663.5
1658.45
1653.43
1648.44
1643.47
1638.52
1633.6
1628.69
1623.8
1618.93
1614.07
1609.23
1604.4
1599.58
1594.77
1589.96
1585.16
1580.37
1575.58
1570.79
1566
2610.41
2402.03
2309.77
2247.46
2200.26
2162.34
2130.61
2103.3
2079.29
2057.81
2038.37
2020.56
2004.12
1988.83
1974.52
1961.05
1948.32
1936.24
1924.72
1913.72
1903.18
1893.04
1883.28
1873.87
1864.76
1855.93
1847.37
1839.05
1830.96
1823.07
1815.38
1807.87
1800.52
1793.33
1786.29
1779.39
1772.62
1765.97
1759.44
1753.02
1746.7
1740.48
1734.35
1728.31
1722.36
1716.48
1710.68
1704.95
1699.28
1693.69
1688.15
1682.67
1677.25
1671.88
1666.56
1661.3
1656.07
1650.89
1645.75
1640.65
1635.59
1630.57
1625.57
1620.61
1615.68
1610.78
1605.9
1601.05
1596.23
1591.42
1586.64
1581.88
1577.13
1572.4
1567.68
1562.98
1558.28
1553.6
1548.93
1544.26
1539.6
1534.95
1530.29
1525.64
1520.99
2535.4
2333.02
2243.41
2182.89
2137.05
2100.21
2069.4
2042.87
2019.54
1998.68
1979.79
1962.5
1946.53
1931.68
1917.78
1904.7
1892.33
1880.59
1869.41
1858.72
1848.48
1838.64
1829.16
1820.01
1811.16
1802.59
1794.28
1786.19
1778.33
1770.67
1763.2
1755.9
1748.77
1741.78
1734.95
1728.24
1721.67
1715.21
1708.87
1702.63
1696.49
1690.45
1684.5
1678.63
1672.84
1667.14
1661.5
1655.93
1650.43
1645
1639.62
1634.3
1629.03
1623.82
1618.66
1613.54
1608.46
1603.43
1598.44
1593.49
1588.57
1583.69
1578.84
1574.03
1569.24
1564.48
1559.74
1555.03
1550.34
1545.68
1541.03
1536.41
1531.79
1527.2
1522.62
1518.05
1513.49
1508.95
1504.41
1499.88
1495.35
1490.83
1486.31
1481.79
1477.27
2462.55
2265.99
2178.96
2120.18
2075.65
2039.87
2009.94
1984.18
1961.52
1941.26
1922.9
1906.11
1890.6
1876.17
1862.67
1849.96
1837.95
1826.55
1815.68
1805.3
1795.35
1785.79
1776.59
1767.7
1759.11
1750.78
1742.7
1734.86
1727.22
1719.78
1712.52
1705.43
1698.5
1691.72
1685.08
1678.57
1672.18
1665.91
1659.74
1653.69
1647.72
1641.86
1636.07
1630.38
1624.76
1619.21
1613.74
1608.33
1602.99
1597.71
1592.49
1587.32
1582.21
1577.14
1572.13
1567.15
1562.23
1557.34
1552.49
1547.68
1542.91
1538.17
1533.46
1528.78
1524.13
1519.51
1514.91
1510.33
1505.78
1501.25
1496.74
1492.24
1487.76
1483.3
1478.85
1474.42
1469.99
1465.58
1461.17
1456.77
1452.37
1447.98
1443.59
1439.2
1434.81
2391.79
2200.88
2116.35
2059.26
2016.02
1981.27
1952.2
1927.17
1905.16
1885.49
1867.66
1851.34
1836.27
1822.26
1809.14
1796.8
1785.13
1774.05
1763.5
1753.42
1743.76
1734.47
1725.53
1716.9
1708.55
1700.46
1692.62
1684.99
1677.58
1670.35
1663.3
1656.41
1649.68
1643.09
1636.64
1630.32
1624.11
1618.02
1612.04
1606.15
1600.36
1594.66
1589.05
1583.51
1578.05
1572.67
1567.35
1562.1
1556.91
1551.78
1546.71
1541.69
1536.72
1531.81
1526.93
1522.11
1517.32
1512.57
1507.87
1503.19
1498.56
1493.95
1489.38
1484.83
1480.32
1475.83
1471.36
1466.92
1462.5
1458.1
1453.71
1449.35
1445
1440.67
1436.34
1432.04
1427.74
1423.45
1419.17
1414.89
1410.62
1406.36
1402.1
1397.83
2323.07
2137.65
2055.55
2000.1
1958.1
1924.35
1896.12
1871.81
1850.43
1831.32
1814.01
1798.16
1783.52
1769.91
1757.16
1745.17
1733.83
1723.07
1712.82
1703.03
1693.64
1684.62
1675.94
1667.55
1659.45
1651.59
1643.97
1636.57
1629.36
1622.34
1615.49
1608.8
1602.27
1595.87
1589.6
1583.46
1577.43
1571.52
1565.7
1559.99
1554.36
1548.82
1543.37
1537.99
1532.69
1527.46
1522.3
1517.2
1512.16
1507.18
1502.25
1497.37
1492.55
1487.77
1483.04
1478.35
1473.7
1469.09
1464.52
1459.98
1455.48
1451.01
1446.57
1442.15
1437.76
1433.4
1429.07
1424.75
1420.46
1416.18
1411.93
1407.69
1403.46
1399.25
1395.06
1390.87
1386.7
1382.53
1378.38
1374.22
1370.08
1365.94
1361.8
1357.66
2256.32
2076.23
1996.5
1942.64
1901.85
1869.07
1841.64
1818.04
1797.27
1778.71
1761.89
1746.5
1732.28
1719.06
1706.68
1695.03
1684.02
1673.57
1663.61
1654.09
1644.97
1636.21
1627.77
1619.63
1611.75
1604.13
1596.72
1589.53
1582.53
1575.71
1569.06
1562.57
1556.21
1550
1543.91
1537.95
1532.09
1526.35
1520.7
1515.15
1509.68
1504.31
1499.01
1493.79
1488.64
1483.56
1478.54
1473.59
1468.69
1463.85
1459.07
1454.33
1449.65
1445.01
1440.41
1435.86
1431.34
1426.86
1422.42
1418.02
1413.64
1409.3
1404.98
1400.7
1396.44
1392.2
1387.99
1383.8
1379.62
1375.47
1371.34
1367.22
1363.12
1359.03
1354.96
1350.89
1346.84
1342.79
1338.75
1334.72
1330.7
1326.67
1322.65
1318.63
2191.49
2016.58
1939.14
1886.83
1847.21
1815.37
1788.74
1765.81
1745.64
1727.61
1711.28
1696.33
1682.52
1669.68
1657.65
1646.34
1635.64
1625.49
1615.82
1606.58
1597.72
1589.2
1581
1573.09
1565.44
1558.03
1550.84
1543.85
1537.05
1530.43
1523.97
1517.66
1511.49
1505.45
1499.54
1493.74
1488.06
1482.48
1476.99
1471.6
1466.29
1461.07
1455.92
1450.85
1445.85
1440.91
1436.04
1431.23
1426.48
1421.78
1417.13
1412.53
1407.98
1403.47
1399.01
1394.58
1390.2
1385.85
1381.54
1377.25
1373.01
1368.79
1364.6
1360.43
1356.29
1352.18
1348.09
1344.02
1339.97
1335.93
1331.92
1327.92
1323.94
1319.97
1316.01
1312.06
1308.12
1304.19
1300.27
1296.36
1292.44
1288.54
1284.63
1280.73
2128.52
1958.64
1883.43
1832.63
1794.14
1763.22
1737.35
1715.08
1695.49
1677.98
1662.12
1647.59
1634.18
1621.71
1610.03
1599.05
1588.66
1578.8
1569.4
1560.43
1551.82
1543.55
1535.59
1527.9
1520.47
1513.27
1506.28
1499.5
1492.89
1486.45
1480.18
1474.04
1468.05
1462.19
1456.44
1450.81
1445.29
1439.87
1434.54
1429.3
1424.15
1419.07
1414.08
1409.15
1404.29
1399.5
1394.77
1390.09
1385.47
1380.91
1376.39
1371.93
1367.51
1363.13
1358.79
1354.5
1350.24
1346.01
1341.82
1337.67
1333.54
1329.44
1325.37
1321.33
1317.31
1313.31
1309.34
1305.38
1301.45
1297.53
1293.63
1289.75
1285.88
1282.02
1278.18
1274.34
1270.52
1266.7
1262.89
1259.09
1255.29
1251.5
1247.7
1243.91
2067.36
1902.37
1829.32
1779.98
1742.6
1712.57
1687.44
1665.81
1646.79
1629.78
1614.37
1600.26
1587.24
1575.12
1563.78
1553.11
1543.02
1533.44
1524.32
1515.6
1507.24
1499.21
1491.48
1484.01
1476.8
1469.8
1463.02
1456.42
1450.01
1443.76
1437.66
1431.7
1425.88
1420.18
1414.61
1409.14
1403.77
1398.5
1393.32
1388.23
1383.22
1378.29
1373.44
1368.65
1363.93
1359.27
1354.68
1350.14
1345.65
1341.22
1336.83
1332.49
1328.2
1323.95
1319.74
1315.56
1311.42
1307.32
1303.25
1299.21
1295.21
1291.23
1287.27
1283.34
1279.44
1275.56
1271.7
1267.86
1264.04
1260.23
1256.45
1252.67
1248.92
1245.17
1241.44
1237.71
1234
1230.29
1226.59
1222.9
1219.21
1215.52
1211.84
1208.15
2007.96
1847.72
1776.76
1728.84
1692.54
1663.37
1638.97
1617.96
1599.48
1582.96
1567.99
1554.29
1541.64
1529.87
1518.86
1508.49
1498.69
1489.39
1480.53
1472.06
1463.95
1456.15
1448.64
1441.39
1434.37
1427.58
1420.99
1414.59
1408.36
1402.29
1396.36
1390.58
1384.93
1379.39
1373.97
1368.66
1363.45
1358.33
1353.3
1348.36
1343.5
1338.71
1333.99
1329.34
1324.76
1320.23
1315.77
1311.36
1307
1302.69
1298.43
1294.22
1290.04
1285.91
1281.82
1277.77
1273.75
1269.76
1265.81
1261.89
1257.99
1254.13
1250.29
1246.47
1242.68
1238.91
1235.16
1231.43
1227.72
1224.02
1220.35
1216.68
1213.03
1209.4
1205.77
1202.15
1198.55
1194.95
1191.35
1187.77
1184.19
1180.61
1177.03
1173.46
1950.27
1794.63
1725.72
1679.17
1643.92
1615.58
1591.88
1571.48
1553.53
1537.48
1522.95
1509.64
1497.35
1485.93
1475.23
1465.16
1455.64
1446.61
1438
1429.78
1421.89
1414.32
1407.02
1399.98
1393.17
1386.58
1380.18
1373.96
1367.9
1362.01
1356.26
1350.64
1345.15
1339.77
1334.51
1329.35
1324.29
1319.32
1314.44
1309.63