/*--------------------------------*- C++ -*----------------------------------*\
  =========                 |
  \\      /  F ield         | OpenFOAM: The Open Source CFD Toolbox
   \\    /   O peration     | Website:  https://openfoam.org
    \\  /    A nd           | Version:  10
     \\/     M anipulation  |
\*---------------------------------------------------------------------------*/
FoamFile
{
    format      ascii;
    class       volScalarField;
    location    "42000";
    object      omega;
}
// * * * * * * * * * * * * * * * * * * * * * * * * * * * * * * * * * * * * * //

dimensions      [0 0 -1 0 0 0 0];

internalField   nonuniform List<scalar> 
17808
(
10898.4
4391.07
2509.91
1724.4
1301.66
1039.95
862.747
735.077
638.832
563.733
503.53
454.207
413.069
378.242
348.383
322.502
299.858
279.882
262.129
246.251
231.967
219.049
207.311
196.601
186.789
177.769
169.449
161.751
154.61
147.967
141.773
135.984
130.564
125.477
120.696
116.194
111.948
107.938
104.144
100.55
97.1423
93.9061
90.8297
87.9021
85.1131
82.4538
79.9156
77.4911
75.1731
72.9553
70.8317
68.797
66.846
64.9741
63.177
61.4507
59.7916
58.1961
56.6611
55.1835
53.7606
52.3898
51.0686
49.7947
48.566
47.3807
46.2369
45.1327
44.0664
43.0366
42.0416
41.0802
40.151
39.2528
38.3844
37.5447
36.7326
35.9473
35.1877
34.453
33.7424
33.0551
32.3903
31.7473
31.1256
30.5244
29.9432
29.3814
28.8385
28.314
27.8074
27.3184
10895.3
4391.56
2511.29
1725.73
1302.75
1040.82
863.437
735.631
639.28
564.101
503.834
454.46
413.282
378.422
348.536
322.633
299.971
279.979
262.214
246.325
232.031
219.105
207.361
196.645
186.828
177.803
169.479
161.778
154.634
147.988
141.792
136.002
130.579
125.492
120.709
116.206
111.959
107.947
104.153
100.558
97.1494
93.9126
90.8356
87.9075
85.1181
82.4583
79.9198
77.4949
75.1766
72.9585
70.8347
68.7997
66.8485
64.9764
63.1791
61.4527
59.7934
58.1978
56.6627
55.185
53.762
52.3911
51.0698
49.7958
48.5672
47.3818
46.2379
45.1336
44.0673
43.0374
42.0424
41.081
40.1517
39.2535
38.385
37.5453
36.7332
35.9479
35.1883
34.4536
33.743
33.0556
32.3908
31.7478
31.1261
30.5248
29.9436
29.3818
28.8389
28.3144
27.8079
27.3188
10895.4
4391.21
2512.1
1726.45
1303.32
1041.29
863.824
735.956
639.557
564.339
504.04
454.639
413.438
378.559
348.656
322.739
300.064
280.061
262.286
246.389
232.088
219.156
207.406
196.685
186.864
177.835
169.508
161.804
154.657
148.009
141.811
136.019
130.595
125.505
120.722
116.217
111.969
107.957
104.161
100.566
97.1564
93.919
90.8414
87.9128
85.1229
82.4627
79.9238
77.4986
75.18
72.9616
70.8375
68.8023
66.8509
64.9786
63.1812
61.4546
59.7952
58.1994
56.6642
55.1864
53.7633
52.3923
51.0709
49.7969
48.5682
47.3828
46.2388
45.1344
44.0681
43.0382
42.0431
41.0816
40.1524
39.2541
38.3856
37.5459
36.7338
35.9484
35.1888
34.4541
33.7434
33.056
32.3912
31.7483
31.1265
30.5252
29.944
29.3822
28.8393
28.3148
27.8082
27.3192
10895.8
4390.69
2512.7
1726.98
1303.74
1041.64
864.111
736.194
639.759
564.512
504.191
454.773
413.557
378.665
348.75
322.823
300.139
280.129
262.347
246.444
232.137
219.2
207.446
196.721
186.897
177.865
169.535
161.828
154.679
148.029
141.829
136.035
130.609
125.519
120.734
116.228
111.979
107.966
104.169
100.574
97.1634
93.9253
90.8473
87.9181
85.1278
82.4672
79.9279
77.5023
75.1834
72.9648
70.8405
68.805
66.8534
64.9809
63.1833
61.4566
59.797
58.2011
56.6657
55.1878
53.7647
52.3935
51.0721
49.798
48.5692
47.3838
46.2397
45.1353
44.0689
43.0389
42.0439
41.0823
40.153
39.2547
38.3862
37.5464
36.7343
35.9489
35.1893
34.4545
33.7439
33.0565
32.3917
31.7487
31.1269
30.5256
29.9444
29.3826
28.8396
28.3151
27.8086
27.3195
10896.4
4389.8
2512.93
1727.26
1304.02
1041.89
864.32
736.371
639.911
564.645
504.308
454.877
413.65
378.748
348.826
322.892
300.202
280.185
262.398
246.49
232.18
219.239
207.481
196.753
186.926
177.892
169.559
161.85
154.699
148.047
141.846
136.05
130.623
125.532
120.746
116.239
111.989
107.975
104.178
100.581
97.1703
93.9317
90.8531
87.9234
85.1327
82.4717
79.9321
77.5061
75.1869
72.968
70.8434
68.8077
66.8559
64.9833
63.1855
61.4586
59.7989
58.2028
56.6673
55.1893
53.766
52.3948
51.0733
49.7992
48.5703
47.3848
46.2407
45.1362
44.0698
43.0397
42.0446
41.083
40.1537
39.2553
38.3868
37.547
36.7349
35.9494
35.1898
34.455
33.7444
33.057
32.3921
31.7491
31.1273
30.5261
29.9448
29.3829
28.84
28.3155
27.8089
27.3199
10897.4
4388.78
2512.95
1727.38
1304.19
1042.05
864.462
736.495
640.02
564.742
504.395
454.956
413.722
378.814
348.886
322.947
300.252
280.232
262.441
246.53
232.216
219.272
207.512
196.781
186.952
177.915
169.581
161.871
154.718
148.064
141.861
136.065
130.637
125.544
120.757
116.249
111.999
107.983
104.186
100.588
97.177
93.9379
90.8588
87.9287
85.1376
82.4762
79.9362
77.51
75.1905
72.9713
70.8464
68.8105
66.8585
64.9856
63.1877
61.4606
59.8007
58.2046
56.669
55.1908
53.7674
52.3962
51.0745
49.8003
48.5714
47.3858
46.2416
45.1371
44.0706
43.0405
42.0454
41.0838
40.1544
39.256
38.3874
37.5476
36.7354
35.95
35.1903
34.4555
33.7448
33.0574
32.3926
31.7495
31.1277
30.5265
29.9452
29.3833
28.8404
28.3159
27.8093
27.3202
10898.7
4387.8
2512.87
1727.43
1304.29
1042.16
864.564
736.586
640.1
564.814
504.461
455.015
413.777
378.865
348.933
322.991
300.293
280.27
262.477
246.562
232.246
219.3
207.538
196.805
186.974
177.936
169.6
161.889
154.734
148.08
141.875
136.078
130.649
125.555
120.767
116.259
112.007
107.992
104.193
100.596
97.1836
93.9439
90.8644
87.9339
85.1423
82.4806
79.9403
77.5137
75.194
72.9745
70.8494
68.8133
66.8611
64.988
63.1899
61.4627
59.8027
58.2064
56.6706
55.1924
53.7689
52.3975
51.0758
49.8015
48.5726
47.3869
46.2427
45.1381
44.0715
43.0414
42.0462
41.0845
40.1551
39.2567
38.3881
37.5482
36.736
35.9505
35.1908
34.456
33.7453
33.0579
32.393
31.75
31.1281
30.5269
29.9456
29.3837
28.8408
28.3162
27.8096
27.3206
10899.9
4386.91
2512.72
1727.44
1304.36
1042.23
864.641
736.655
640.162
564.87
504.511
455.062
413.82
378.905
348.971
323.026
300.326
280.301
262.506
246.59
232.272
219.324
207.561
196.827
186.994
177.955
169.617
161.905
154.749
148.094
141.888
136.09
130.66
125.566
120.777
116.268
112.016
107.999
104.2
100.602
97.1899
93.9498
90.8698
87.9389
85.147
82.4849
79.9443
77.5175
75.1974
72.9777
70.8524
68.8161
66.8636
64.9904
63.1921
61.4648
59.8046
58.2082
56.6723
55.194
53.7703
52.3989
51.0771
49.8027
48.5737
47.388
46.2437
45.139
44.0724
43.0422
42.047
41.0853
40.1558
39.2573
38.3887
37.5488
36.7366
35.9511
35.1914
34.4566
33.7458
33.0584
32.3935
31.7504
31.1286
30.5273
29.946
29.3841
28.8411
28.3166
27.81
27.3209
10901.2
4386.1
2512.53
1727.41
1304.4
1042.29
864.698
736.709
640.211
564.914
504.552
455.099
413.855
378.938
349.002
323.055
300.354
280.327
262.53
246.613
232.294
219.345
207.58
196.845
187.011
177.971
169.633
161.919
154.762
148.106
141.9
136.101
130.67
125.575
120.786
116.277
112.024
108.007
104.207
100.609
97.1958
93.9553
90.875
87.9437
85.1515
82.4891
79.9482
77.5211
75.2008
72.9809
70.8554
68.8188
66.8662
64.9928
63.1944
61.4668
59.8065
58.21
56.674
55.1955
53.7718
52.4003
51.0784
49.804
48.5749
47.3891
46.2447
45.14
44.0733
43.0431
42.0478
41.086
40.1565
39.258
38.3894
37.5494
36.7372
35.9517
35.1919
34.4571
33.7463
33.0588
32.3939
31.7509
31.129
30.5277
29.9464
29.3845
28.8415
28.317
27.8104
27.3213
10902.5
4385.36
2512.3
1727.36
1304.41
1042.32
864.74
736.75
640.249
564.948
504.583
455.129
413.882
378.964
349.026
323.079
300.376
280.348
262.55
246.632
232.312
219.362
207.596
196.86
187.026
177.985
169.646
161.931
154.774
148.117
141.911
136.111
130.68
125.584
120.794
116.284
112.031
108.014
104.214
100.615
97.2015
93.9606
90.8799
87.9484
85.1558
82.4932
79.952
77.5247
75.2042
72.984
70.8583
68.8215
66.8687
64.9952
63.1966
61.4689
59.8085
58.2118
56.6757
55.1971
53.7733
52.4016
51.0797
49.8052
48.576
47.3902
46.2457
45.141
44.0743
43.044
42.0486
41.0868
40.1573
39.2587
38.39
37.5501
36.7378
35.9522
35.1925
34.4576
33.7468
33.0593
32.3944
31.7513
31.1294
30.5281
29.9468
29.3849
28.8419
28.3173
27.8107
27.3216
10903.6
4384.7
2512.05
1727.29
1304.41
1042.35
864.769
736.78
640.278
564.975
504.608
455.152
413.904
378.985
349.047
323.098
300.395
280.366
262.567
246.648
232.327
219.377
207.61
196.874
187.039
177.997
169.657
161.942
154.785
148.127
141.92
136.12
130.688
125.592
120.802
116.291
112.038
108.02
104.22
100.62
97.2067
93.9656
90.8846
87.9528
85.16
82.4971
79.9556
77.5281
75.2074
72.987
70.8611
68.8242
66.8712
64.9975
63.1987
61.4709
59.8104
58.2136
56.6774
55.1987
53.7748
52.403
51.081
49.8065
48.5772
47.3913
46.2468
45.142
44.0752
43.0448
42.0494
41.0876
40.158
39.2594
38.3907
37.5507
36.7384
35.9528
35.193
34.4581
33.7473
33.0598
32.3949
31.7518
31.1299
30.5285
29.9472
29.3853
28.8423
28.3177
27.8111
27.322
10904.7
4384.11
2511.8
1727.21
1304.39
1042.36
864.789
736.803
640.3
564.996
504.628
455.171
413.922
379.002
349.063
323.114
300.41
280.38
262.582
246.662
232.341
219.39
207.622
196.885
187.05
178.008
169.668
161.952
154.794
148.136
141.928
136.128
130.696
125.599
120.809
116.298
112.044
108.026
104.225
100.625
97.2117
93.9702
90.889
87.9569
85.1639
82.5007
79.9591
77.5314
75.2104
72.9899
70.8638
68.8268
66.8736
64.9998
63.2009
61.473
59.8123
58.2154
56.679
55.2003
53.7763
52.4044
51.0823
49.8077
48.5784
47.3924
46.2479
45.143
44.0761
43.0457
42.0503
41.0884
40.1588
39.2602
38.3914
37.5514
36.739
35.9534
35.1936
34.4587
33.7478
33.0603
32.3953
31.7522
31.1303
30.529
29.9476
29.3857
28.8427
28.3181
27.8115
27.3223
10905.7
4383.58
2511.55
1727.12
1304.37
1042.36
864.801
736.819
640.317
565.013
504.644
455.186
413.937
379.016
349.077
323.127
300.422
280.393
262.593
246.673
232.352
219.4
207.633
196.895
187.059
178.017
169.676
161.96
154.802
148.144
141.936
136.135
130.702
125.606
120.815
116.304
112.049
108.031
104.23
100.63
97.2162
93.9746
90.8931
87.9608
85.1676
82.5042
79.9624
77.5345
75.2134
72.9927
70.8665
68.8292
66.876
65.002
63.203
61.4749
59.8141
58.2171
56.6807
55.2018
53.7777
52.4058
51.0837
49.809
48.5796
47.3935
46.2489
45.144
44.0771
43.0466
42.0511
41.0892
40.1595
39.2609
38.3921
37.552
36.7396
35.954
35.1942
34.4592
33.7484
33.0608
32.3958
31.7527
31.1308
30.5294
29.948
29.3861
28.8431
28.3185
27.8118
27.3227
10906.7
4383.12
2511.3
1727.03
1304.33
1042.35
864.806
736.83
640.33
565.025
504.656
455.198
413.948
379.027
349.087
323.138
300.433
280.403
262.603
246.683
232.361
219.409
207.642
196.904
187.068
178.025
169.684
161.968
154.809
148.151
141.943
136.141
130.709
125.611
120.82
116.309
112.055
108.036
104.235
100.635
97.2205
93.9786
90.897
87.9645
85.171
82.5075
79.9656
77.5375
75.2162
72.9954
70.869
68.8316
66.8782
65.0041
63.205
61.4768
59.8159
58.2188
56.6823
55.2033
53.7792
52.4072
51.085
49.8102
48.5807
47.3946
46.25
45.145
44.078
43.0475
42.052
41.09
40.1603
39.2616
38.3928
37.5527
36.7403
35.9546
35.1947
34.4598
33.7489
33.0613
32.3963
31.7532
31.1312
30.5298
29.9485
29.3865
28.8435
28.3189
27.8122
27.3231
10907.5
4382.71
2511.06
1726.94
1304.29
1042.34
864.806
736.835
640.338
565.035
504.666
455.207
413.957
379.036
349.096
323.146
300.442
280.412
262.612
246.691
232.369
219.417
207.649
196.911
187.075
178.032
169.691
161.974
154.816
148.157
141.948
136.147
130.714
125.617
120.825
116.314
112.059
108.04
104.239
100.639
97.2244
93.9823
90.9005
87.9679
85.1743
82.5106
79.9685
77.5403
75.2189
72.9979
70.8714
68.8339
66.8804
65.0062
63.2069
61.4787
59.8177
58.2205
56.6839
55.2048
53.7806
52.4085
51.0862
49.8114
48.5819
47.3957
46.251
45.146
44.079
43.0484
42.0528
41.0908
40.1611
39.2623
38.3935
37.5533
36.7409
35.9552
35.1953
34.4603
33.7494
33.0618
32.3968
31.7536
31.1317
30.5303
29.9489
29.3869
28.8439
28.3193
27.8126
27.3234
10908.3
4382.35
2510.83
1726.84
1304.25
1042.32
864.801
736.837
640.343
565.041
504.673
455.214
413.964
379.043
349.103
323.153
300.449
280.419
262.619
246.698
232.376
219.424
207.656
196.918
187.081
178.038
169.697
161.98
154.821
148.162
141.954
136.152
130.719
125.621
120.83
116.318
112.063
108.044
104.243
100.643
97.2279
93.9858
90.9038
87.971
85.1773
82.5135
79.9712
77.5429
75.2214
73.0003
70.8737
68.8361
66.8825
65.0081
63.2088
61.4805
59.8194
58.2221
56.6854
55.2063
53.782
52.4099
51.0875
49.8126
48.583
47.3968
46.2521
45.147
44.0799
43.0493
42.0537
41.0916
40.1618
39.2631
38.3942
37.554
36.7415
35.9558
35.1959
34.4609
33.75
33.0623
32.3973
31.7541
31.1321
30.5307
29.9493
29.3874
28.8444
28.3197
27.813
27.3239
10909
4382.03
2510.61
1726.74
1304.21
1042.3
864.793
736.836
640.345
565.045
504.677
455.219
413.97
379.049
349.109
323.159
300.454
280.424
262.625
246.704
232.382
219.43
207.662
196.923
187.086
178.043
169.702
161.985
154.826
148.167
141.958
136.156
130.723
125.626
120.834
116.322
112.067
108.048
104.247
100.646
97.2312
93.9889
90.9068
87.9739
85.1801
82.5162
79.9738
77.5453
75.2237
73.0025
70.8758
68.8382
66.8844
65.01
63.2106
61.4822
59.821
58.2236
56.6869
55.2077
53.7833
52.4111
51.0887
49.8138
48.5842
47.3979
46.2531
45.148
44.0809
43.0502
42.0545
41.0924
40.1626
39.2638
38.3948
37.5547
36.7422
35.9564
35.1965
34.4614
33.7505
33.0629
32.3978
31.7546
31.1326
30.5312
29.9498
29.3879
10909.6
4381.75
2510.41
1726.65
1304.16
1042.28
864.783
736.832
640.345
565.046
504.68
455.223
413.974
379.053
349.113
323.164
300.459
280.429
262.629
246.709
232.387
219.435
207.666
196.928
187.091
178.048
169.706
161.99
154.83
148.171
141.962
136.16
130.727
125.629
120.838
116.326
112.071
108.051
104.25
100.649
97.2342
93.9918
90.9096
87.9766
85.1827
82.5187
79.9762
77.5477
75.226
73.0047
70.8779
68.8401
66.8863
65.0118
63.2123
61.4838
59.8226
58.2251
56.6883
55.2091
53.7846
52.4124
51.0899
49.8149
48.5853
47.399
46.2541
45.1489
44.0818
43.0511
42.0554
41.0932
40.1634
39.2645
38.3955
37.5553
36.7428
35.957
35.197
34.462
33.751
33.0634
32.3983
31.7551
31.1331
30.5317
29.9503
29.3884
10910.2
4381.49
2510.22
1726.55
1304.11
1042.25
864.77
736.825
640.342
565.046
504.681
455.225
413.976
379.056
349.117
323.167
300.463
280.433
262.633
246.713
232.391
219.439
207.67
196.932
187.095
178.052
169.71
161.993
154.834
148.175
141.966
136.164
130.731
125.633
120.841
116.329
112.074
108.055
104.253
100.652
97.237
93.9945
90.9122
87.9791
85.1851
82.521
79.9785
77.5498
75.228
73.0067
70.8798
68.8419
66.8881
65.0135
63.2139
61.4854
59.8241
58.2266
56.6897
55.2104
53.7859
52.4136
51.0911
49.816
48.5863
47.4
46.2551
45.1499
44.0827
43.0519
42.0562
41.094
40.1641
39.2652
38.3962
37.556
36.7434
35.9576
35.1976
34.4626
33.7516
33.0639
32.3988
31.7556
31.1336
30.5322
29.9508
29.3889
10910.7
4381.27
2510.04
1726.46
1304.06
1042.22
864.755
736.817
640.338
565.044
504.681
455.225
413.977
379.058
349.119
323.17
300.465
280.436
262.637
246.716
232.394
219.442
207.674
196.936
187.099
178.055
169.714
161.997
154.837
148.178
141.969
136.167
130.734
125.636
120.844
116.332
112.077
108.057
104.255
100.654
97.2395
93.9969
90.9146
87.9814
85.1873
82.5231
79.9805
77.5518
75.23
73.0085
70.8816
68.8437
66.8897
65.0151
63.2155
61.4868
59.8255
58.2279
56.691
55.2116
53.7871
52.4148
51.0922
49.8171
48.5874
47.401
46.256
45.1508
44.0836
43.0528
42.057
41.0948
40.1648
39.2659
38.3969
37.5566
36.7441
35.9582
35.1982
34.4631
33.7521
33.0644
32.3993
31.7561
31.1342
10911.2
4381.07
2509.88
1726.37
1304.02
1042.2
864.739
736.807
640.332
565.041
504.679
455.224
413.977
379.058
349.12
323.171
300.467
280.438
262.639
246.719
232.397
219.445
207.677
196.939
187.102
178.058
169.717
162
154.84
148.181
141.972
136.17
130.736
125.638
120.847
116.334
112.079
108.06
104.258
100.657
97.2418
93.9991
90.9167
87.9835
85.1893
82.5251
79.9824
77.5537
75.2318
73.0103
70.8833
68.8453
66.8913
65.0166
63.2169
61.4883
59.8268
58.2292
56.6922
55.2128
53.7883
52.4159
51.0933
49.8182
48.5884
47.4019
46.257
45.1517
44.0844
43.0536
42.0578
41.0955
40.1656
39.2666
38.3976
37.5573
36.7447
35.9588
35.1988
34.4637
33.7526
33.0649
32.3998
31.7566
31.1347
10911.6
4380.89
2509.73
1726.29
1303.97
1042.17
864.722
736.797
640.325
565.036
504.676
455.223
413.977
379.058
349.12
323.172
300.469
280.44
262.641
246.721
232.399
219.447
207.679
196.941
187.104
178.061
169.719
162.002
154.843
148.184
141.975
136.172
130.739
125.641
120.849
116.337
112.081
108.062
104.26
100.659
97.2438
94.0012
90.9187
87.9854
85.1912
82.5269
79.9842
77.5554
75.2334
73.0119
70.8848
68.8468
66.8928
65.018
63.2183
61.4896
59.8281
58.2305
56.6934
55.214
53.7894
52.417
51.0943
49.8192
48.5894
47.4029
46.2579
45.1526
44.0853
43.0544
42.0586
41.0963
40.1663
39.2673
38.3982
37.5579
36.7453
35.9594
35.1994
34.4642
33.7532
33.0655
32.4004
31.7571
31.1352
10912
4380.73
2509.59
1726.21
1303.93
1042.14
864.704
736.785
640.317
565.031
504.672
455.22
413.975
379.057
349.12
323.172
300.469
280.441
262.642
246.722
232.401
219.449
207.681
196.943
187.106
178.063
169.722
162.005
154.845
148.186
141.977
136.174
130.741
125.643
120.851
116.339
112.083
108.064
104.262
100.661
97.2457
94.003
90.9205
87.9872
85.1929
82.5286
79.9858
77.557
75.235
73.0134
70.8863
68.8482
66.8941
65.0194
63.2196
61.4908
59.8293
58.2316
56.6946
55.2151
53.7905
52.418
51.0953
49.8201
48.5903
47.4038
46.2588
45.1534
44.0861
43.0552
42.0593
41.097
40.167
39.268
38.3989
37.5585
36.7459
35.96
35.1999
34.4648
33.7537
33.066
32.4009
31.7577
31.1357
10912.3
4380.58
2509.46
1726.13
1303.88
1042.12
864.687
736.773
640.308
565.024
504.667
455.217
413.973
379.056
349.119
323.172
300.469
280.441
262.643
246.723
232.402
219.45
207.683
196.945
187.108
178.065
169.723
162.006
154.847
148.188
141.979
136.176
130.743
125.645
120.853
116.341
112.085
108.066
104.264
100.663
97.2474
94.0047
90.9222
87.9888
85.1945
82.5302
79.9874
77.5584
75.2364
73.0148
70.8877
68.8496
66.8954
65.0206
63.2208
61.492
59.8305
58.2328
56.6956
55.2161
53.7915
52.419
51.0963
49.8211
48.5912
47.4047
46.2596
45.1542
44.0869
43.056
42.0601
41.0977
40.1677
39.2687
38.3995
37.5591
36.7465
35.9606
35.2005
34.4653
33.7543
33.0665
32.4014
31.7582
31.1362
10912.6
4380.45
2509.35
1726.06
1303.84
1042.09
864.669
736.76
640.299
565.017
504.662
455.213
413.97
379.054
349.118
323.171
300.469
280.441
262.643
246.724
232.403
219.451
207.684
196.946
187.109
178.066
169.725
162.008
154.849
148.189
141.98
136.178
130.745
125.647
120.855
116.342
112.087
108.067
104.265
100.664
97.249
94.0062
90.9237
87.9903
85.196
82.5316
79.9887
77.5598
75.2377
73.0161
70.8889
68.8508
66.8966
65.0218
63.222
61.4931
59.8315
58.2338
56.6967
55.2171
53.7924
52.4199
51.0972
49.822
48.5921
47.4055
46.2604
45.155
44.0876
43.0567
42.0608
41.0984
40.1684
39.2693
38.4002
37.5598
36.7471
35.9612
35.201
34.4659
33.7548
33.0671
32.4019
31.7587
31.1367
10912.9
4380.32
2509.24
1725.99
1303.8
1042.06
864.652
736.747
640.289
565.009
504.656
455.208
413.966
379.051
349.115
323.169
300.468
280.44
262.643
246.724
232.403
219.452
207.685
196.947
187.111
178.067
169.726
162.009
154.85
148.191
141.982
136.18
130.746
125.648
120.856
116.344
112.088
108.069
104.267
100.666
97.2504
94.0076
90.925
87.9916
85.1973
82.5329
79.99
77.561
75.2389
73.0173
70.8901
68.8519
66.8977
65.0229
63.223
61.4941
59.8326
58.2348
56.6976
55.2181
53.7933
52.4208
51.0981
49.8228
48.5929
47.4063
46.2612
45.1558
44.0884
43.0574
42.0615
41.0991
40.169
39.2699
38.4008
37.5603
36.7477
35.9617
35.2016
34.4664
33.7553
33.0676
32.4024
31.7592
31.1372
10913.2
4380.2
2509.14
1725.93
1303.76
1042.04
864.634
736.734
640.279
565.001
504.65
455.203
413.962
379.047
349.113
323.167
300.466
280.44
262.642
246.724
232.403
219.452
207.685
196.948
187.111
178.068
169.727
162.011
154.851
148.192
141.983
136.181
130.747
125.649
120.857
116.345
112.09
108.07
104.268
100.667
97.2517
94.0089
90.9263
87.9928
85.1985
82.5341
79.9912
77.5622
75.2401
73.0184
70.8912
68.853
66.8988
65.0239
63.224
61.4951
59.8335
58.2357
56.6985
55.219
53.7942
52.4217
51.0989
49.8236
48.5937
47.4071
46.262
45.1565
44.0891
43.0581
42.0621
41.0998
40.1696
39.2706
38.4014
37.5609
36.7482
35.9623
35.2021
34.4669
33.7558
33.0681
32.4029
31.7597
31.1376
10913.5
4380.1
2509.05
1725.87
1303.72
1042.02
864.618
736.722
640.269
564.993
504.643
455.197
413.957
379.044
349.11
323.165
300.465
280.438
262.641
246.723
232.403
219.452
207.685
196.948
187.112
178.069
169.728
162.011
154.852
148.193
141.984
136.182
130.749
125.651
120.859
116.346
112.091
108.071
104.269
100.668
97.2528
94.01
90.9274
87.994
85.1996
82.5351
79.9923
77.5632
75.2411
73.0194
70.8922
68.854
66.8997
65.0248
63.2249
61.496
59.8344
58.2366
56.6994
55.2198
53.795
52.4225
51.0997
49.8244
48.5944
47.4078
46.2627
45.1572
44.0898
43.0588
42.0628
41.1004
40.1702
39.2712
38.4019
37.5615
36.7488
35.9628
35.2026
34.4674
33.7563
33.0686
32.4034
31.7601
31.1381
10913.7
4379.99
2508.96
1725.81
1303.69
1041.99
864.602
736.709
640.259
564.985
504.636
455.191
413.952
379.039
349.106
323.162
300.462
280.436
262.64
246.722
232.402
219.452
207.685
196.948
187.112
178.069
169.729
162.012
154.853
148.194
141.985
136.183
130.75
125.652
120.86
116.347
112.092
108.072
104.27
100.669
97.2539
94.011
90.9284
87.995
85.2006
82.5361
79.9932
77.5642
75.2421
73.0203
70.8931
68.8549
66.9006
65.0257
63.2258
61.4969
59.8352
58.2374
56.7002
55.2206
53.7958
52.4232
51.1004
49.8251
48.5951
47.4085
46.2634
45.1579
44.0904
43.0594
42.0634
41.101
40.1708
39.2717
38.4025
37.562
36.7493
35.9633
35.2032
34.468
33.7568
33.0691
32.4039
31.7606
31.1386
10914
4379.9
2508.88
1725.76
1303.65
1041.97
864.586
736.697
640.249
564.976
504.628
455.185
413.947
379.035
349.103
323.159
300.46
280.434
262.639
246.721
232.401
219.451
207.685
196.948
187.112
178.07
169.729
162.013
154.854
148.195
141.986
136.184
130.75
125.652
120.86
116.348
112.093
108.073
104.271
100.67
97.2548
94.012
90.9293
87.9959
85.2015
82.537
79.9941
77.5651
75.2429
73.0212
70.8939
68.8557
66.9015
65.0265
63.2266
61.4977
59.836
58.2382
56.7009
55.2213
53.7965
52.4239
51.1011
49.8258
48.5958
47.4092
46.264
45.1585
44.091
43.06
42.064
41.1016
40.1714
39.2723
38.403
37.5626
36.7498
35.9638
35.2037
34.4684
33.7573
33.0696
32.4044
31.7611
31.139
10914.2
4379.8
2508.81
1725.71
1303.62
1041.95
864.572
736.686
640.239
564.968
504.621
455.178
413.941
379.03
349.098
323.156
300.457
280.432
262.637
246.72
232.4
219.451
207.684
196.948
187.112
178.07
169.729
162.013
154.854
148.195
141.986
136.184
130.751
125.653
120.861
116.349
112.094
108.074
104.272
100.671
97.2556
94.0128
90.9302
87.9967
85.2023
82.5379
79.9949
77.5659
75.2437
73.022
70.8947
68.8565
66.9022
65.0273
63.2273
61.4984
59.8367
58.2389
56.7016
55.222
53.7972
52.4246
51.1018
49.8264
48.5965
47.4098
46.2646
45.1591
44.0916
43.0606
42.0646
41.1021
40.172
39.2728
38.4036
37.5631
36.7503
35.9643
35.2042
34.4689
33.7578
33.07
32.4048
31.7615
31.1394
10914.4
4379.71
2508.74
1725.66
1303.59
1041.93
864.558
736.675
640.23
564.96
504.614
455.172
413.935
379.025
349.094
323.152
300.454
280.429
262.634
246.718
232.399
219.45
207.684
196.947
187.112
178.07
169.729
162.013
154.854
148.195
141.987
136.185
130.751
125.654
120.862
116.35
112.094
108.075
104.273
100.672
97.2563
94.0135
90.9309
87.9974
85.2031
82.5386
79.9957
77.5666
75.2445
73.0227
70.8954
68.8572
66.9029
65.028
63.228
61.4991
59.8374
58.2395
56.7023
55.2226
53.7978
52.4252
51.1024
49.8271
48.5971
47.4104
46.2652
45.1597
44.0922
43.0612
42.0651
41.1027
40.1725
39.2733
38.4041
37.5636
36.7508
35.9648
35.2046
34.4694
33.7583
33.0705
32.4053
31.762
31.1399
10914.6
4379.62
2508.67
1725.62
1303.56
1041.91
864.544
736.664
640.221
564.952
504.606
455.165
413.929
379.02
349.089
323.148
300.45
280.426
262.632
246.716
232.397
219.448
207.683
196.946
187.111
178.069
169.729
162.013
154.854
148.196
141.987
136.185
130.752
125.654
120.862
116.35
112.095
108.075
104.273
100.672
97.257
94.0142
90.9316
87.9981
85.2037
82.5393
79.9963
77.5673
75.2451
73.0234
70.8961
68.8578
66.9036
65.0286
63.2286
61.4997
59.838
58.2401
56.7029
55.2232
53.7984
52.4258
51.103
49.8276
48.5976
47.411
46.2658
45.1602
44.0928
43.0617
42.0657
41.1032
40.173
39.2738
38.4046
37.5641
36.7513
35.9653
35.2051
34.4699
33.7587
33.0709
32.4057
31.7624
31.1403
10914.8
4379.53
2508.6
1725.57
1303.54
1041.89
864.532
736.654
640.212
564.944
504.599
455.159
413.923
379.014
349.085
323.144
300.447
280.423
262.629
246.714
232.395
219.447
207.681
196.945
187.11
178.069
169.729
162.013
154.854
148.196
141.987
136.185
130.752
125.654
120.863
116.351
112.095
108.076
104.274
100.673
97.2575
94.0147
90.9321
87.9987
85.2043
82.5398
79.9969
77.5679
75.2457
73.024
70.8967
68.8584
66.9042
65.0292
63.2292
61.5003
59.8386
58.2407
56.7034
55.2238
53.799
52.4264
51.1035
49.8282
48.5982
47.4115
46.2663
45.1608
44.0933
43.0622
42.0661
41.1037
40.1735
39.2743
38.405
37.5645
36.7518
35.9658
35.2056
34.4703
33.7592
33.0714
32.4062
31.7628
31.1407
10915
4379.45
2508.54
1725.53
1303.51
1041.88
864.52
736.645
640.204
564.937
504.592
455.152
413.917
379.009
349.08
323.139
300.443
280.42
262.626
246.711
232.393
219.445
207.68
196.944
187.11
178.068
169.728
162.012
154.854
148.195
141.987
136.185
130.752
125.655
120.863
116.351
112.096
108.076
104.274
100.673
97.258
94.0152
90.9326
87.9992
85.2048
82.5404
79.9974
77.5684
75.2462
73.0245
70.8972
68.859
66.9047
65.0297
63.2298
61.5008
59.8391
58.2412
56.704
55.2243
53.7995
52.4269
51.104
49.8287
48.5987
47.412
46.2668
45.1613
44.0937
43.0627
42.0666
41.1041
40.1739
39.2748
38.4055
37.565
36.7522
35.9662
35.206
34.4707
33.7596
33.0718
32.4066
31.7632
31.1411
10915.2
4379.36
2508.48
1725.49
1303.49
1041.86
864.508
736.636
640.197
564.93
504.586
455.146
413.911
379.003
349.075
323.135
300.439
280.416
262.623
246.708
232.391
219.443
207.678
196.943
187.108
178.067
169.727
162.012
154.853
148.195
141.987
136.185
130.752
125.655
120.863
116.351
112.096
108.076
104.275
100.674
97.2583
94.0156
90.933
87.9996
85.2053
82.5408
79.9979
77.5689
75.2467
73.025
70.8977
68.8594
66.9052
65.0302
63.2302
61.5013
59.8396
58.2417
56.7044
55.2248
53.8
52.4274
51.1045
49.8292
48.5991
47.4125
46.2672
45.1617
44.0942
43.0631
42.0671
41.1046
40.1744
39.2752
38.4059
37.5654
36.7526
35.9666
35.2064
34.4712
33.76
33.0722
32.407
31.7637
10915.3
4379.28
2508.43
1725.45
1303.46
1041.85
864.498
736.628
640.189
564.923
504.579
455.14
413.906
378.998
349.07
323.13
300.435
280.413
262.62
246.706
232.388
219.441
207.676
196.941
187.107
178.066
169.726
162.011
154.853
148.195
141.987
136.185
130.752
125.655
120.863
116.351
112.096
108.077
104.275
100.674
97.2586
94.0159
90.9334
88
85.2056
82.5412
79.9983
77.5693
75.2471
73.0254
70.8981
68.8599
66.9056
65.0306
63.2307
61.5017
59.84
58.2421
56.7049
55.2252
53.8004
52.4278
51.1049
49.8296
48.5996
47.4129
46.2677
45.1621
44.0946
43.0636
42.0675
41.105
40.1748
39.2756
38.4063
37.5658
36.753
35.967
35.2068
34.4716
33.7604
33.0726
32.4074
31.7641
10915.5
4379.19
2508.37
1725.42
1303.44
1041.83
864.487
736.62
640.183
564.917
504.573
455.134
413.9
378.992
349.065
323.125
300.43
280.409
262.617
246.703
232.386
219.438
207.674
196.94
187.106
178.065
169.725
162.01
154.852
148.194
141.986
136.185
130.752
125.655
120.863
116.351
112.096
108.077
104.275
100.674
97.2589
94.0162
90.9336
88.0003
85.2059
82.5415
79.9986
77.5696
75.2475
73.0257
70.8985
68.8602
66.906
65.031
63.2311
61.5021
59.8404
58.2425
56.7053
55.2256
53.8008
52.4282
51.1054
49.83
48.6
47.4133
46.2681
45.1626
44.095
43.064
42.0679
41.1054
40.1752
39.276
38.4067
37.5662
36.7534
35.9674
35.2072
34.472
33.7608
33.073
32.4078
31.7645
10915.7
4379.11
2508.31
1725.38
1303.41
1041.82
864.477
736.613
640.176
564.911
504.567
455.128
413.894
378.987
349.06
323.121
300.426
280.405
262.613
246.699
232.383
219.436
207.672
196.938
187.104
178.063
169.724
162.009
154.851
148.194
141.986
136.184
130.752
125.654
120.863
116.351
112.096
108.077
104.275
100.674
97.259
94.0163
90.9339
88.0005
85.2062
82.5418
79.9989
77.5699
75.2478
73.0261
70.8988
68.8606
66.9063
65.0314
63.2314
61.5024
59.8408
58.2429
56.7056
55.226
53.8012
52.4286
51.1057
49.8304
48.6004
47.4137
46.2685
45.1629
44.0954
43.0643
42.0683
41.1058
40.1756
39.2764
38.4071
37.5666
36.7538
35.9678
35.2076
34.4723
33.7612
33.0734
32.4082
31.7648
10915.8
4379.02
2508.26
1725.34
1303.39
1041.8
864.468
736.606
640.17
564.905
504.562
455.123
413.889
378.982
349.054
323.116
300.422
280.401
262.609
246.696
232.38
219.433
207.67
196.936
187.102
178.062
169.723
162.008
154.851
148.193
141.985
136.184
130.751
125.654
120.863
116.351
112.096
108.077
104.275
100.674
97.2591
94.0164
90.934
88.0007
85.2064
82.542
79.9991
77.5702
75.248
73.0263
70.8991
68.8609
66.9066
65.0317
63.2317
61.5028
59.8411
58.2432
56.706
55.2263
53.8015
52.4289
51.1061
49.8307
48.6007
47.414
46.2688
45.1633
44.0958
43.0647
42.0686
41.1061
40.1759
39.2767
38.4075
37.5669
36.7542
35.9681
35.2079
34.4727
33.7616
33.0737
32.4085
31.7651
10916
4378.94
2508.2
1725.31
1303.37
1041.79
864.459
736.599
640.165
564.9
504.557
455.118
413.884
378.977
349.05
323.111
300.417
280.397
262.605
246.693
232.377
219.431
207.667
196.934
187.1
178.06
169.722
162.007
154.849
148.192
141.984
136.183
130.751
125.654
120.862
116.351
112.096
108.077
104.275
100.674
97.2591
94.0165
90.9341
88.0008
85.2065
82.5421
79.9993
77.5704
75.2482
73.0265
70.8993
68.8611
66.9068
65.0319
63.232
61.503
59.8413
58.2435
56.7062
55.2266
53.8018
52.4292
51.1064
49.831
48.601
47.4143
46.2691
45.1636
44.0961
43.065
42.0689
41.1065
40.1762
39.2771
38.4078
37.5673
36.7545
35.9685
35.2083
34.473
33.7619
33.0741
32.4088
31.7655
10916.2
4378.85
2508.15
1725.27
1303.34
1041.77
864.449
736.592
640.16
564.895
504.552
455.113
413.879
378.972
349.045
323.107
300.413
280.392
262.602
246.689
232.374
219.428
207.665
196.931
187.098
178.058
169.72
162.005
154.848
148.191
141.983
136.182
130.75
125.653
120.862
116.35
112.095
108.076
104.275
100.674
97.259
94.0165
90.9341
88.0008
85.2066
82.5422
79.9994
77.5705
75.2484
73.0267
70.8995
68.8613
66.907
65.0321
63.2322
61.5032
59.8416
58.2437
56.7065
55.2269
53.8021
52.4295
51.1066
49.8313
48.6013
47.4146
46.2694
45.1639
44.0964
43.0653
42.0692
41.1068
40.1765
39.2774
38.4081
37.5676
36.7548
35.9688
35.2086
34.4734
33.7622
33.0744
32.4091
31.7658
10916.3
4378.76
2508.09
1725.23
1303.32
1041.76
864.44
736.586
640.155
564.891
504.548
455.108
413.874
378.967
349.04
323.102
300.408
280.388
262.598
246.685
232.37
219.425
207.662
196.929
187.096
178.056
169.718
162.004
154.847
148.19
141.982
136.181
130.749
125.652
120.861
116.35
112.095
108.076