/*--------------------------------*- C++ -*----------------------------------*\
  =========                 |
  \\      /  F ield         | OpenFOAM: The Open Source CFD Toolbox
   \\    /   O peration     | Website:  https://openfoam.org
    \\  /    A nd           | Version:  10
     \\/     M anipulation  |
\*---------------------------------------------------------------------------*/
FoamFile
{
    format      ascii;
    class       volScalarField;
    location    "40000";
    object      p;
}
// * * * * * * * * * * * * * * * * * * * * * * * * * * * * * * * * * * * * * //

dimensions      [0 2 -2 0 0 0 0];

internalField   nonuniform List<scalar> 
17922
(
9.00873
8.94465
8.87938
8.8129
8.74519
8.67624
8.60602
8.53451
8.46171
8.38759
8.31213
8.23532
8.15713
8.07755
7.99655
7.91413
7.83025
7.7449
7.65806
7.56971
7.47982
7.38839
7.29538
7.20077
7.10455
7.0067
6.90718
6.80598
6.70396
6.60291
6.50368
6.40625
6.31059
6.21665
6.12441
6.03384
5.94491
5.85757
5.77181
5.68759
5.60489
5.52366
5.44388
5.36553
5.28858
5.21299
5.13873
5.06579
4.99413
4.92373
4.85456
4.78659
4.71981
4.65417
4.58967
4.52627
4.46396
4.4027
4.34248
4.28327
4.22506
4.16782
4.11152
4.05616
4.00171
3.94814
3.89546
3.84363
3.79264
3.74247
3.69311
3.64455
3.59676
3.54973
3.50345
3.4579
3.41308
3.36896
3.32555
3.28281
3.24075
3.19934
3.15859
3.11848
3.07899
3.04012
3.00186
2.96421
2.92714
2.89065
2.85474
2.81939
2.7846
9.00862
8.94455
8.87928
8.8128
8.74509
8.67614
8.60592
8.53442
8.46162
8.3875
8.31204
8.23523
8.15705
8.07747
7.99647
7.91405
7.83017
7.74482
7.65798
7.56963
7.47975
7.38832
7.29531
7.20071
7.10449
7.00664
6.90712
6.80592
6.70391
6.60286
6.50364
6.40621
6.31055
6.21662
6.12438
6.03381
5.94488
5.85755
5.77179
5.68758
5.60487
5.52365
5.44388
5.36553
5.28857
5.21298
5.13873
5.06579
4.99413
4.92373
4.85456
4.7866
4.71981
4.65418
4.58968
4.52628
4.46397
4.40271
4.34249
4.28329
4.22507
4.16783
4.11154
4.05618
4.00173
3.94817
3.89549
3.84367
3.79268
3.74252
3.69317
3.64461
3.59683
3.5498
3.50353
3.458
3.41318
3.36908
3.32567
3.28294
3.24089
3.1995
3.15876
3.11865
3.07918
3.04033
3.00209
2.96444
2.92739
2.89092
2.85503
2.8197
2.78493
9.00846
8.94439
8.87912
8.81264
8.74493
8.67598
8.60576
8.53426
8.46146
8.38734
8.31188
8.23507
8.15688
8.0773
7.9963
7.91388
7.83
7.74465
7.65781
7.56946
7.47958
7.38814
7.29513
7.20053
7.10431
7.00645
6.90693
6.80573
6.70372
6.60267
6.50344
6.40602
6.31035
6.21641
6.12418
6.03361
5.94467
5.85734
5.77158
5.68736
5.60465
5.52342
5.44365
5.3653
5.28834
5.21275
5.13849
5.06555
4.99389
4.92348
4.85431
4.78634
4.71955
4.65391
4.58941
4.52601
4.46369
4.40243
4.34221
4.283
4.22478
4.16754
4.11124
4.05588
4.00143
3.94787
3.89519
3.84336
3.79238
3.74222
3.69287
3.64431
3.59653
3.54951
3.50324
3.4577
3.41289
3.36879
3.32539
3.28267
3.24062
3.19923
3.1585
3.1184
3.07894
3.0401
3.00186
2.96423
2.92719
2.89074
2.85486
2.81955
2.78479
9.00829
8.94421
8.87894
8.81246
8.74476
8.6758
8.60558
8.53408
8.46127
8.38715
8.31169
8.23488
8.15669
8.0771
7.99611
7.91368
7.8298
7.74445
7.6576
7.56925
7.47936
7.38793
7.29491
7.20031
7.10409
7.00623
6.9067
6.8055
6.70348
6.60243
6.5032
6.40577
6.3101
6.21616
6.12392
6.03335
5.94441
5.85707
5.77131
5.68709
5.60437
5.52314
5.44337
5.36501
5.28805
5.21245
5.13819
5.06524
4.99358
4.92317
4.85399
4.78602
4.71922
4.65358
4.58907
4.52567
4.46335
4.40208
4.34186
4.28264
4.22442
4.16718
4.11088
4.05552
4.00106
3.9475
3.89482
3.84299
3.79201
3.74185
3.6925
3.64394
3.59616
3.54915
3.50288
3.45735
3.41254
3.36845
3.32505
3.28233
3.24029
3.19891
3.15819
3.1181
3.07865
3.03982
3.0016
2.96398
2.92695
2.89051
2.85465
2.81935
2.78462
9.00813
8.94406
8.87879
8.81231
8.7446
8.67564
8.60542
8.53391
8.46111
8.38699
8.31153
8.23471
8.15652
8.07693
7.99593
7.9135
7.82962
7.74426
7.65742
7.56906
7.47917
7.38773
7.29472
7.20011
7.10389
7.00602
6.9065
6.80529
6.70327
6.60221
6.50298
6.40555
6.30988
6.21593
6.12369
6.03311
5.94417
5.85683
5.77107
5.68684
5.60412
5.52289
5.44311
5.36475
5.28778
5.21218
5.13792
5.06497
4.9933
4.92289
4.85371
4.78573
4.71893
4.65329
4.58877
4.52536
4.46304
4.40177
4.34154
4.28232
4.2241
4.16685
4.11055
4.05519
4.00073
3.94717
3.89449
3.84266
3.79168
3.74152
3.69217
3.64362
3.59584
3.54883
3.50256
3.45704
3.41223
3.36814
3.32475
3.28204
3.24001
3.19864
3.15792
3.11785
3.0784
3.03958
3.00138
2.96377
2.92676
2.89034
2.85449
2.81921
2.7845
9.00798
8.94391
8.87864
8.81216
8.74445
8.67549
8.60527
8.53376
8.46096
8.38683
8.31137
8.23455
8.15636
8.07677
7.99577
7.91334
7.82945
7.7441
7.65725
7.56889
7.479
7.38756
7.29454
7.19993
7.1037
7.00584
6.90631
6.8051
6.70308
6.60201
6.50278
6.40534
6.30967
6.21572
6.12348
6.0329
5.94395
5.85661
5.77084
5.68661
5.60389
5.52265
5.44287
5.36451
5.28754
5.21193
5.13767
5.06471
4.99304
4.92262
4.85344
4.78545
4.71865
4.653
4.58849
4.52507
4.46274
4.40147
4.34124
4.28202
4.22379
4.16654
4.11024
4.05487
4.00041
3.94685
3.89417
3.84234
3.79136
3.7412
3.69186
3.6433
3.59553
3.54852
3.50226
3.45674
3.41194
3.36786
3.32447
3.28177
3.23974
3.19838
3.15767
3.11761
3.07818
3.03937
3.00117
2.96358
2.92659
2.89018
2.85435
2.81909
2.78439
9.00784
8.94377
8.8785
8.81201
8.7443
8.67535
8.60512
8.53362
8.46081
8.38668
8.31122
8.2344
8.15621
8.07662
7.99562
7.91318
7.82929
7.74394
7.65709
7.56873
7.47883
7.38739
7.29437
7.19975
7.10352
7.00566
6.90613
6.80491
6.70289
6.60182
6.50259
6.40515
6.30947
6.21552
6.12327
6.03269
5.94374
5.85639
5.77062
5.68639
5.60367
5.52242
5.44264
5.36427
5.2873
5.21169
5.13742
5.06446
4.99278
4.92236
4.85317
4.78519
4.71838
4.65273
4.58821
4.52479
4.46245
4.40118
4.34094
4.28172
4.22349
4.16624
4.10993
4.05456
4.00011
3.94654
3.89386
3.84203
3.79105
3.7409
3.69155
3.643
3.59523
3.54822
3.50197
3.45645
3.41166
3.36758
3.32419
3.2815
3.23948
3.19813
3.15743
3.11738
3.07796
3.03916
3.00098
2.9634
2.92642
2.89003
2.85422
2.81898
2.7843
9.00771
8.94363
8.87836
8.81188
8.74417
8.67521
8.60499
8.53348
8.46067
8.38654
8.31108
8.23426
8.15606
8.07647
7.99547
7.91303
7.82914
7.74378
7.65693
7.56857
7.47867
7.38723
7.29421
7.19959
7.10336
7.00549
6.90595
6.80474
6.70271
6.60164
6.5024
6.40496
6.30927
6.21532
6.12307
6.03248
5.94353
5.85618
5.77041
5.68617
5.60345
5.5222
5.44241
5.36404
5.28706
5.21145
5.13718
5.06422
4.99253
4.92211
4.85292
4.78493
4.71812
4.65246
4.58793
4.52451
4.46217
4.4009
4.34066
4.28143
4.2232
4.16594
4.10963
4.05426
3.9998
3.94624
3.89356
3.84173
3.79075
3.7406
3.69125
3.6427
3.59493
3.54793
3.50168
3.45617
3.41138
3.36731
3.32393
3.28125
3.23924
3.19789
3.15721
3.11716
3.07775
3.03897
3.0008
2.96324
2.92627
2.8899
2.8541
2.81888
2.78423
9.00758
8.9435
8.87823
8.81175
8.74404
8.67508
8.60486
8.53335
8.46054
8.38641
8.31095
8.23412
8.15593
8.07634
7.99533
7.91289
7.829
7.74364
7.65679
7.56842
7.47853
7.38708
7.29405
7.19943
7.1032
7.00532
6.90579
6.80457
6.70254
6.60147
6.50222
6.40478
6.30909
6.21514
6.12288
6.03229
5.94334
5.85598
5.7702
5.68597
5.60324
5.52199
5.44219
5.36382
5.28684
5.21122
5.13695
5.06398
4.99229
4.92187
4.85267
4.78467
4.71786
4.6522
4.58767
4.52424
4.4619
4.40062
4.34038
4.28115
4.22291
4.16565
4.10935
4.05397
3.99951
3.94595
3.89327
3.84144
3.79046
3.74031
3.69096
3.64242
3.59465
3.54765
3.50141
3.4559
3.41112
3.36705
3.32368
3.28101
3.239
3.19767
3.15699
3.11696
3.07756
3.03879
3.00064
2.96309
2.92614
2.88978
2.85401
2.8188
2.78417
9.00746
8.94338
8.87811
8.81163
8.74392
8.67496
8.60473
8.53323
8.46042
8.38629
8.31082
8.234
8.1558
8.07621
7.9952
7.91276
7.82887
7.74351
7.65665
7.56828
7.47838
7.38693
7.29391
7.19929
7.10305
7.00517
6.90563
6.80441
6.70238
6.6013
6.50206
6.40461
6.30892
6.21496
6.1227
6.03211
5.94315
5.85579
5.77001
5.68577
5.60304
5.52179
5.44199
5.36361
5.28662
5.21101
5.13672
5.06375
4.99206
4.92163
4.85243
4.78443
4.71761
4.65195
4.58741
4.52398
4.46164
4.40035
4.34011
4.28088
4.22264
4.16538
4.10907
4.05369
3.99923
3.94567
3.89298
3.84116
3.79018
3.74003
3.69069
3.64214
3.59438
3.54739
3.50114
3.45564
3.41087
3.36681
3.32345
3.28078
3.23878
3.19746
3.15679
3.11677
3.07739
3.03863
3.00049
2.96296
2.92602
2.88968
2.85392
2.81874
2.78412
9.00735
8.94327
8.878
8.81152
8.74381
8.67485
8.60462
8.53311
8.4603
8.38617
8.31071
8.23388
8.15568
8.07609
7.99508
7.91264
7.82874
7.74338
7.65652
7.56815
7.47825
7.3868
7.29377
7.19915
7.10291
7.00503
6.90549
6.80426
6.70222
6.60115
6.5019
6.40444
6.30875
6.21479
6.12253
6.03193
5.94297
5.85561
5.76982
5.68558
5.60284
5.52159
5.44179
5.3634
5.28642
5.21079
5.13651
5.06353
4.99184
4.9214
4.8522
4.78419
4.71737
4.6517
4.58717
4.52373
4.46138
4.4001
4.33985
4.28061
4.22237
4.16511
4.1088
4.05342
3.99896
3.9454
3.89271
3.84089
3.78991
3.73976
3.69042
3.64188
3.59412
3.54713
3.50089
3.4554
3.41063
3.36657
3.32322
3.28056
3.23858
3.19726
3.1566
3.1166
3.07722
3.03848
3.00035
2.96284
2.92592
2.88959
2.85385
2.81869
2.78409
9.00724
8.94317
8.8779
8.81141
8.7437
8.67474
8.60451
8.53301
8.46019
8.38606
8.3106
8.23377
8.15557
8.07597
7.99497
7.91252
7.82863
7.74326
7.6564
7.56803
7.47813
7.38667
7.29364
7.19902
7.10277
7.00489
6.90535
6.80412
6.70208
6.601
6.50175
6.40429
6.3086
6.21463
6.12237
6.03177
5.9428
5.85544
5.76965
5.6854
5.60266
5.5214
5.44159
5.36321
5.28622
5.21059
5.1363
5.06332
4.99163
4.92118
4.85197
4.78397
4.71714
4.65147
4.58693
4.52349
4.46114
4.39985
4.33959
4.28036
4.22212
4.16485
4.10854
4.05316
3.9987
3.94513
3.89245
3.84063
3.78965
3.7395
3.69017
3.64163
3.59387
3.54689
3.50065
3.45516
3.4104
3.36635
3.32301
3.28035
3.23838
3.19708
3.15643
3.11643
3.07707
3.03834
3.00023
2.96273
2.92583
2.88952
2.8538
2.81865
2.78407
9.00714
8.94307
8.8778
8.81131
8.7436
8.67464
8.60441
8.53291
8.46009
8.38596
8.31049
8.23367
8.15547
8.07587
7.99486
7.91242
7.82852
7.74315
7.65629
7.56792
7.47801
7.38655
7.29352
7.19889
7.10265
7.00476
6.90522
6.80399
6.70194
6.60086
6.5016
6.40414
6.30845
6.21448
6.12221
6.03161
5.94264
5.85527
5.76948
5.68523
5.60248
5.52122
5.44141
5.36302
5.28603
5.2104
5.1361
5.06312
4.99142
4.92097
4.85176
4.78375
4.71692
4.65124
4.5867
4.52326
4.4609
4.39961
4.33935
4.28011
4.22187
4.1646
4.10829
4.05291
3.99845
3.94488
3.8922
3.84038
3.7894
3.73925
3.68992
3.64139
3.59364
3.54665
3.50043
3.45494
3.41019
3.36614
3.32281
3.28016
3.2382
3.19691
3.15627
3.11629
3.07694
3.03822
3.00012
2.96264
2.92575
2.88946
2.85376
2.81863
2.78407
9.00705
8.94298
8.8777
8.81122
8.74351
8.67455
8.60432
8.53281
8.46
8.38587
8.3104
8.23357
8.15537
8.07577
7.99476
7.91232
7.82842
7.74305
7.65619
7.56781
7.47791
7.38645
7.29341
7.19878
7.10253
7.00465
6.9051
6.80386
6.70182
6.60073
6.50147
6.40401
6.30831
6.21434
6.12206
6.03146
5.94249
5.85512
5.76932
5.68506
5.60232
5.52105
5.44124
5.36284
5.28585
5.21021
5.13591
5.06293
4.99122
4.92077
4.85156
4.78354
4.71671
4.65103
4.58648
4.52304
4.46068
4.39938
4.33912
4.27988
4.22163
4.16436
4.10805
4.05267
3.99821
3.94464
3.89196
3.84014
3.78916
3.73902
3.68969
3.64116
3.59341
3.54643
3.50021
3.45473
3.40998
3.36595
3.32262
3.27999
3.23803
3.19675
3.15613
3.11615
3.07682
3.03812
3.00003
2.96256
2.92569
2.88942
2.85373
2.81862
2.78408
9.00697
8.94289
8.87762
8.81114
8.74342
8.67446
8.60424
8.53273
8.45992
8.38579
8.31031
8.23349
8.15528
8.07568
7.99467
7.91223
7.82833
7.74296
7.65609
7.56772
7.47781
7.38634
7.29331
7.19867
7.10242
7.00453
6.90498
6.80375
6.7017
6.60061
6.50135
6.40388
6.30818
6.2142
6.12193
6.03132
5.94234
5.85497
5.76917
5.68491
5.60216
5.52089
5.44107
5.36268
5.28567
5.21003
5.13573
5.06274
4.99103
4.92058
4.85136
4.78334
4.7165
4.65082
4.58627
4.52282
4.46046
4.39916
4.3389
4.27966
4.22141
4.16414
4.10782
4.05244
3.99798
3.94441
3.89173
3.83991
3.78894
3.7388
3.68947
3.64094
3.5932
3.54623
3.50001
3.45454
3.40979
3.36577
3.32245
3.27982
3.23788
3.19661
3.15599
3.11603
3.07671
3.03802
2.99995
2.9625
2.92565
2.88939
2.85372
2.81863
2.7841
9.00689
8.94281
8.87754
8.81106
8.74335
8.67439
8.60416
8.53265
8.45984
8.38571
8.31024
8.23341
8.1552
8.0756
7.99459
7.91214
7.82824
7.74287
7.656
7.56763
7.47772
7.38625
7.29321
7.19858
7.10233
7.00443
6.90488
6.80364
6.70159
6.6005
6.50123
6.40376
6.30805
6.21408
6.1218
6.03118
5.94221
5.85483
5.76903
5.68476
5.60201
5.52074
5.44091
5.36251
5.28551
5.20987
5.13556
5.06257
4.99086
4.9204
4.85117
4.78315
4.71631
4.65062
4.58607
4.52262
4.46026
4.39895
4.33869
4.27944
4.22119
4.16392
4.1076
4.05222
3.99776
3.9442
3.89151
3.8397
3.78873
3.73859
3.68926
3.64074
3.593
3.54603
3.49982
3.45436
3.40962
3.3656
3.32229
3.27967
3.23774
3.19648
3.15588
3.11593
3.07662
3.03794
2.99989
2.96245
2.92561
2.88937
2.85372
2.81865
2.78414
9.25151
9.19204
9.13145
9.06971
9.00681
8.94274
8.87747
8.81099
8.74328
8.67432
8.60409
8.53258
8.45977
8.38564
8.31016
8.23334
8.15513
8.07553
7.99452
7.91207
7.82817
7.74279
7.65592
7.56755
7.47763
7.38617
7.29313
7.19849
7.10223
7.00434
6.90478
6.80354
6.70149
6.60039
6.50112
6.40365
6.30794
6.21396
6.12168
6.03106
5.94208
5.8547
5.76889
5.68462
5.60187
5.52059
5.44077
5.36236
5.28535
5.20971
5.1354
5.0624
4.99069
4.92023
4.851
4.78297
4.71613
4.65044
4.58588
4.52243
4.46006
4.39875
4.33849
4.27924
4.22099
4.16372
4.1074
4.05202
3.99755
3.94399
3.89131
3.83949
3.78853
3.73839
3.68907
3.64055
3.59281
3.54585
3.49965
3.45419
3.40946
3.36545
3.32215
3.27954
3.23761
3.19636
3.15577
3.11584
3.07654
3.03788
2.99984
2.96242
2.9256
2.88937
2.85374
2.81868
2.78419
9.25143
9.19197
9.13137
9.06964
9.00675
8.94268
8.87741
8.81093
8.74322
8.67426
8.60403
8.53252
8.45971
8.38557
8.3101
8.23327
8.15507
8.07546
7.99445
7.912
7.8281
7.74272
7.65585
7.56747
7.47756
7.38609
7.29305
7.19841
7.10215
7.00425
6.90469
6.80345
6.70139
6.60029
6.50102
6.40355
6.30783
6.21385
6.12157
6.03095
5.94196
5.85458
5.76877
5.6845
5.60174
5.52046
5.44063
5.36222
5.28521
5.20956
5.13525
5.06224
4.99053
4.92006
4.85083
4.7828
4.71595
4.65026
4.5857
4.52225
4.45988
4.39857
4.3383
4.27905
4.2208
4.16352
4.1072
4.05182
3.99736
3.9438
3.89112
3.8393
3.78834
3.7382
3.68889
3.64037
3.59264
3.54569
3.49949
3.45403
3.40931
3.36531
3.32202
3.27942
3.2375
3.19626
3.15569
3.11576
3.07648
3.03783
2.99981
2.9624
2.92559
2.88938
2.85376
2.81872
2.78425
9.25137
9.19191
9.13132
9.06958
9.00669
8.94262
8.87735
8.81087
8.74316
8.6742
8.60398
8.53246
8.45965
8.38552
8.31005
8.23321
8.15501
8.07541
7.99439
7.91194
7.82803
7.74266
7.65579
7.56741
7.47749
7.38602
7.29298
7.19833
7.10208
7.00418
6.90461
6.80337
6.70131
6.60021
6.50093
6.40345
6.30774
6.21375
6.12146
6.03084
5.94185
5.85446
5.76865
5.68438
5.60161
5.52033
5.4405
5.36209
5.28507
5.20942
5.1351
5.0621
4.99038
4.91991
4.85067
4.78264
4.71579
4.6501
4.58553
4.52207
4.4597
4.39839
4.33812
4.27887
4.22062
4.16334
4.10702
4.05164
3.99718
3.94362
3.89094
3.83913
3.78816
3.73803
3.68872
3.64021
3.59248
3.54553
3.49934
3.45389
3.40918
3.36519
3.3219
3.27931
3.23741
3.19618
3.15561
3.1157
3.07643
3.0378
2.99979
2.96239
2.9256
2.88941
2.8538
2.81878
2.78433
9.42312
9.36694
9.30968
9.25132
9.19186
9.13127
9.06954
9.00665
8.94258
8.87731
8.81083
8.74312
8.67416
8.60393
8.53242
8.4596
8.38547
8.31
8.23317
8.15496
8.07536
7.99434
7.91189
7.82798
7.7426
7.65573
7.56735
7.47743
7.38596
7.29291
7.19827
7.10201
7.00411
6.90454
6.80329
6.70123
6.60013
6.50085
6.40337
6.30765
6.21366
6.12137
6.03074
5.94175
5.85436
5.76854
5.68427
5.6015
5.52021
5.44038
5.36196
5.28494
5.20929
5.13497
5.06196
4.99024
4.91977
4.85053
4.78249
4.71564
4.64994
4.58537
4.52191
4.45954
4.39823
4.33796
4.2787
4.22045
4.16317
4.10685
4.05147
3.99701
3.94345
3.89078
3.83896
3.788
3.73788
3.68857
3.64006
3.59234
3.54539
3.49921
3.45377
3.40906
3.36508
3.3218
3.27922
3.23733
3.19611
3.15555
3.11565
3.0764
3.03778
2.99978
2.9624
2.92562
2.88945
2.85386
2.81885
2.78441
9.42307
9.36689
9.30964
9.25128
9.19183
9.13124
9.0695
9.00661
8.94254
8.87727
8.81079
8.74308
8.67412
8.60389
8.53238
8.45956
8.38543
8.30996
8.23312
8.15492
8.07531
7.99429
7.91184
7.82794
7.74256
7.65568
7.5673
7.47738
7.38591
7.29286
7.19821
7.10195
7.00405
6.90448
6.80323
6.70116
6.60005
6.50078
6.40329
6.30757
6.21358
6.12128
6.03065
5.94166
5.85427
5.76844
5.68416
5.60139
5.5201
5.44027
5.36185
5.28483
5.20917
5.13485
5.06183
4.99011
4.91963
4.85039
4.78236
4.7155
4.6498
4.58523
4.52177
4.45939
4.39808
4.3378
4.27855
4.2203
4.16302
4.1067
4.05132
3.99686
3.9433
3.89062
3.83882
3.78786
3.73773
3.68843
3.63993
3.59221
3.54527
3.49909
3.45366
3.40896
3.36498
3.32171
3.27914
3.23726
3.19605
3.15551
3.11562
3.07638
3.03777
2.99979
2.96242
2.92566
2.8895
2.85393
2.81893
2.78451
9.42304
9.36686
9.30961
9.25126
9.1918
9.13121
9.06948
9.00658
8.94251
8.87724
8.81076
8.74305
8.67409
8.60386
8.53235
8.45953
8.3854
8.30992
8.23309
8.15488
8.07528
7.99426
7.9118
7.8279
7.74252
7.65564
7.56726
7.47734
7.38586
7.29281
7.19816
7.1019
7.00399
6.90442
6.80317
6.7011
6.59999
6.50071
6.40322
6.3075
6.2135
6.1212
6.03057
5.94157
5.85418
5.76836
5.68407
5.6013
5.52001
5.44017
5.36175
5.28472
5.20906
5.13473
5.06172
4.98999
4.91951
4.85027
4.78223
4.71537
4.64967
4.58509
4.52163
4.45925
4.39794
4.33766
4.27841
4.22015
4.16288
4.10656
4.05118
3.99672
3.94316
3.89049
3.83868
3.78773
3.73761
3.6883
3.63981
3.5921
3.54516
3.49899
3.45356
3.40887
3.3649
3.32164
3.27908
3.23721
3.19602
3.15548
3.11561
3.07638
3.03778
2.99981
2.96246
2.92571
2.88957
2.85401
2.81903
2.78462
9.42303
9.36685
9.30959
9.25124
9.19178
9.13119
9.06946
9.00656
8.94249
8.87722
8.81074
8.74302
8.67406
8.60383
8.53232
8.45951
8.38537
8.3099
8.23306
8.15485
8.07525
7.99423
7.91177
7.82787
7.74249
7.65561
7.56722
7.4773
7.38582
7.29277
7.19812
7.10186
7.00395
6.90438
6.80312
6.70105
6.59994
6.50065
6.40316
6.30743
6.21344
6.12114
6.0305
5.9415
5.8541
5.76828
5.68399
5.60121
5.51992
5.44007
5.36165
5.28462
5.20896
5.13463
5.06161
4.98988
4.9194
4.85015
4.78211
4.71525
4.64955
4.58497
4.52151
4.45913
4.39781
4.33754
4.27828
4.22003
4.16275
4.10643
4.05105
3.99659
3.94304
3.89037
3.83856
3.78761
3.73749
3.6882
3.6397
3.592
3.54507
3.4989
3.45348
3.4088
3.36484
3.32159
3.27904
3.23718
3.19599
3.15547
3.11561
3.07639
3.03781
2.99985
2.96251
2.92578
2.88965
2.8541
2.81914
2.78475
9.42302
9.36684
9.30958
9.25123
9.19177
9.13118
9.06944
9.00655
8.94247
8.8772
8.81072
8.74301
8.67405
8.60382
8.53231
8.45949
8.38535
8.30988
8.23305
8.15484
8.07523
7.99421
7.91175
7.82784
7.74246
7.65559
7.5672
7.47727
7.38579
7.29274
7.19809
7.10182
7.00391
6.90434
6.80308
6.70101
6.59989
6.5006
6.40311
6.30738
6.21338
6.12108
6.03044
5.94144
5.85404
5.76821
5.68392
5.60114
5.51984
5.43999
5.36157
5.28454
5.20887
5.13454
5.06152
4.98978
4.9193
4.85005
4.78201
4.71515
4.64944
4.58486
4.5214
4.45902
4.3977
4.33742
4.27817
4.21991
4.16263
4.10632
4.05094
3.99648
3.94293
3.89026
3.83846
3.78751
3.7374
3.6881
3.63962
3.59192
3.545
3.49883
3.45342
3.40875
3.36479
3.32155
3.27901
3.23716
3.19599
3.15548
3.11562
3.07642
3.03785
2.99991
2.96258
2.92586
2.88974
2.85421
2.81926
2.78488
9.42302
9.36684
9.30958
9.25123
9.19176
9.13117
9.06944
9.00654
8.94247
8.8772
8.81072
8.743
8.67404
8.60381
8.5323
8.45948
8.38535
8.30987
8.23303
8.15482
8.07522
7.99419
7.91174
7.82783
7.74244
7.65557
7.56718
7.47725
7.38577
7.29272
7.19807
7.10179
7.00388
6.90431
6.80305
6.70097
6.59985
6.50056
6.40307
6.30734
6.21333
6.12103
6.03039
5.94138
5.85398
5.76815
5.68385
5.60107
5.51977
5.43992
5.3615
5.28446
5.20879
5.13446
5.06144
4.9897
4.91922
4.84996
4.78192
4.71505
4.64934
4.58477
4.5213
4.45892
4.3976
4.33732
4.27807
4.21981
4.16254
4.10622
4.05084
3.99639
3.94283
3.89017
3.83837
3.78743
3.73732
3.68803
3.63955
3.59185
3.54494
3.49878
3.45338
3.40871
3.36477
3.32153
3.279
3.23716
3.196
3.1555
3.11566
3.07646
3.03791
2.99998
2.96266
2.92596
2.88985
2.85433
2.8194
2.78503
9.42303
9.36685
9.30959
9.25123
9.19177
9.13118
9.06944
9.00655
8.94247
8.8772
8.81072
8.743
8.67404
8.60381
8.5323
8.45948
8.38534
8.30987
8.23303
8.15482
8.07521
7.99419
7.91173
7.82782
7.74244
7.65556
7.56717
7.47724
7.38576
7.2927
7.19805
7.10178
7.00386
6.90429
6.80302
6.70094
6.59982
6.50053
6.40304
6.3073
6.21329
6.12099
6.03034
5.94134
5.85393
5.7681
5.6838
5.60102
5.51971
5.43986
5.36143
5.2844
5.20872
5.13439
5.06137
4.98962
4.91914
4.84989
4.78184
4.71497
4.64926
4.58468
4.52122
4.45883
4.39752
4.33724
4.27798
4.21973
4.16245
4.10614
4.05076
3.99631
3.94276
3.89009
3.8383
3.78736
3.73725
3.68797
3.63949
3.5918
3.54489
3.49875
3.45335
3.40869
3.36475
3.32153
3.27901
3.23718
3.19602
3.15554
3.11571
3.07653
3.03798
3.00006
2.96276
2.92607
2.88998
2.85447
2.81955
2.7852
9.42305
9.36686
9.3096
9.25125
9.19179
9.13119
9.06946
9.00656
8.94248
8.87721
8.81073
8.74301
8.67405
8.60382
8.5323
8.45949
8.38535
8.30987
8.23304
8.15482
8.07521
7.99419
7.91173
7.82782
7.74244
7.65556
7.56716
7.47724
7.38575
7.2927
7.19804
7.10177
7.00385
6.90427
6.803
6.70093
6.5998
6.50051
6.40301
6.30727
6.21327
6.12096
6.03031
5.9413
5.85389
5.76806
5.68376
5.60097
5.51967
5.43981
5.36138
5.28434
5.20867
5.13433
5.06131
4.98956
4.91908
4.84982
4.78177
4.71491
4.64919
4.58462
4.52115
4.45876
4.39745
4.33717
4.27791
4.21966
4.16238
4.10607
4.0507
3.99624
3.9427
3.89004
3.83825
3.78731
3.73721
3.68793
3.63946
3.59178
3.54487
3.49873
3.45334
3.40869
3.36476
3.32155
3.27903
3.23721
3.19607
3.15559
3.11577
3.0766
3.03807
3.00016
2.96288
2.9262
2.89012
2.85462
2.81971
2.78538
9.42307
9.36689
9.30963
9.25127
9.19181
9.13122
9.06948
9.00658
8.9425
8.87723
8.81075
8.74303
8.67406
8.60383
8.53232
8.4595
8.38536
8.30988
8.23305
8.15483
8.07523
7.9942
7.91174
7.82783
7.74244
7.65556
7.56717
7.47724
7.38576
7.2927
7.19804
7.10176
7.00385
6.90427
6.803
6.70092
6.59979
6.5005
6.403
6.30726
6.21325
6.12093
6.03029
5.94127
5.85386
5.76803
5.68373
5.60094
5.51963
5.43978
5.36134
5.2843
5.20863
5.13429
5.06126
4.98952
4.91903
4.84977
4.78172
4.71485
4.64914
4.58456
4.52109
4.45871
4.39739
4.33711
4.27786
4.21961
4.16233
4.10602
4.05065
3.9962
3.94265
3.89
3.83821
3.78728
3.73718
3.68791
3.63944
3.59176
3.54487
3.49873
3.45335
3.40871
3.36479
3.32158
3.27908
3.23727
3.19613
3.15567
3.11586
3.0767
3.03818
3.00028
2.96301
2.92634
2.89027
2.85479
2.8199
2.78557
9.42311
9.36693
9.30966
9.25131
9.19184
9.13125
9.06951
9.00661
8.94253
8.87726
8.81077
8.74305
8.67409
8.60386
8.53234
8.45952
8.38538
8.3099
8.23307
8.15485
8.07524
7.99422
7.91176
7.82784
7.74246
7.65558
7.56718
7.47725
7.38577
7.29271
7.19805
7.10177
7.00385
6.90427
6.803
6.70092
6.59979
6.50049
6.40299
6.30725
6.21324
6.12092
6.03027
5.94126
5.85385
5.76801
5.68371
5.60092
5.51961
5.43975
5.36131
5.28427
5.2086
5.13426
5.06123
4.98948
4.91899
4.84974
4.78168
4.71481
4.6491
4.58452
4.52105
4.45867
4.39735
4.33708
4.27782
4.21957
4.1623
4.10599
4.05062
3.99617
3.94263
3.88998
3.83819
3.78726
3.73717
3.6879
3.63944
3.59177
3.54488
3.49875
3.45338
3.40874
3.36483
3.32164
3.27914
3.23734
3.19622
3.15576
3.11596
3.07682
3.03831
3.00042
2.96316
2.9265
2.89045
2.85498
2.82009
2.78578
9.42316
9.36697
9.30971
9.25135
9.19188
9.13128
9.06955
9.00664
8.94257
8.87729
8.81081
8.74309
8.67412
8.60389
8.53237
8.45955
8.38541
8.30993
8.23309
8.15488
8.07527
7.99424
7.91178
7.82787
7.74248
7.6556
7.5672
7.47727
7.38578
7.29272
7.19806
7.10178
7.00386
6.90428
6.80301
6.70092
6.5998
6.5005
6.40299
6.30725
6.21324
6.12092
6.03027
5.94125
5.85384
5.768
5.6837
5.60091
5.5196
5.43974
5.3613
5.28426
5.20858
5.13424
5.06121
4.98946
4.91897
4.84971
4.78166
4.71479
4.64908
4.5845
4.52103
4.45864
4.39733
4.33705
4.2778
4.21955
4.16228
4.10597
4.0506
3.99616
3.94262
3.88997
3.83819
3.78727
3.73718
3.68792
3.63946
3.5918
3.54491
3.4988
3.45343
3.4088
3.3649
3.32171
3.27923
3.23743
3.19632
3.15587
3.11609
3.07695
3.03845
3.00058
2.96333
2.92668
2.89064
2.85518
2.82031
2.786
9.42321
9.36702
9.30976
9.2514
9.19193
9.13133
9.06959
9.00669
8.94261
8.87733
8.81085
8.74313
8.67416
8.60393
8.53241
8.45959
8.38545
8.30997
8.23313
8.15491
8.0753
7.99428
7.91181
7.8279
7.74251
7.65563
7.56723
7.4773
7.38581
7.29275
7.19809
7.10181
7.00389
6.9043
6.80303
6.70094
6.59981
6.50051
6.40301
6.30726
6.21325
6.12093
6.03028
5.94126
5.85384
5.768
5.6837
5.60091
5.51959
5.43973
5.3613
5.28425
5.20857
5.13423
5.0612
4.98945
4.91896
4.8497
4.78165
4.71478
4.64907
4.58449
4.52102
4.45864
4.39732
4.33705
4.2778
4.21955
4.16228
4.10597
4.05061
3.99617
3.94264
3.88999
3.83822
3.7873
3.73721
3.68796
3.63951
3.59185
3.54497
3.49886
3.4535
3.40888
3.36498
3.32181
3.27933
3.23755
3.19644
3.15601
3.11623
3.07711
3.03862
3.00076
2.96352
2.92689
2.89085
2.85541
2.82054
2.78625
9.42327
9.36708
9.30982
9.25146
9.19198
9.13139
9.06965
9.00674
8.94266
8.87739
8.8109
8.74318
8.67421
8.60397
8.53246
8.45964
8.38549
8.31001
8.23317
8.15496
8.07534
7.99432
7.91185
7.82794
7.74255
7.65566
7.56726
7.47733
7.38584
7.29278
7.19812
7.10184
7.00392
6.90433
6.80305
6.70097
6.59984
6.50054
6.40303
6.30728
6.21327
6.12095
6.0303
5.94128
5.85386
5.76802
5.68371
5.60092
5.51961
5.43974
5.36131
5.28426
5.20858
5.13424
5.06121
4.98946
4.91897
4.84971
4.78166
4.71479
4.64907
4.58449
4.52103
4.45864
4.39733
4.33706
4.27781
4.21956
4.1623
4.10599
4.05063
3.9962
3.94267
3.89003
3.83826
3.78734
3.73727
3.68801
3.63957
3.59192
3.54505
3.49894
3.45359
3.40898
3.36509
3.32192
3.27946
3.23768
3.19659
3.15617
3.1164
3.07729
3.03881
3.00096
2.96373
2.92711
2.89108
2.85565
2.8208
2.78651
9.42334
9.36715
9.30988
9.25152
9.19205
9.13145
9.06971
9.0068
8.94272
8.87744
8.81095
8.74323
8.67426
8.60403
8.53251
8.45969
8.38555
8.31006
8.23322
8.15501
8.07539
7.99436
7.9119
7.82798
7.74259
7.65571
7.56731
7.47738
7.38589
7.29282
7.19816
7.10188
7.00395
6.90437
6.80309
6.701
6.59987
6.50057
6.40306
6.30731
6.2133
6.12098
6.03032
5.9413
5.85389
5.76804
5.68374
5.60094
5.51963
5.43977
5.36133
5.28428
5.2086
5.13426
5.06123
4.98948
4.91899
4.84973
4.78168
4.71481
4.64909
4.58452
4.52105
4.45867
4.39735
4.33709
4.27784
4.21959
4.16233
4.10603
4.05068
3.99625
3.94272
3.89009
3.83832
3.78741
3.73734
3.6881
3.63966
3.59201
3.54515
3.49905
3.45371
3.4091
3.36523
3.32206
3.27961
3.23784
3.19676
3.15635
3.11659
3.07749
3.03902
3.00118
2.96396
2.92735
2.89134
2.85592
2.82107
2.7868
9.42342
9.36723
9.30996
9.2516
9.19212
9.13152
9.06978
9.00687
8.94279
8.87751
8.81102
8.7433
8.67433
8.60409
8.53257
8.45975
8.3856
8.31012
8.23328
8.15506
8.07545
7.99442
7.91196
7.82804
7.74265
7.65576
7.56736
7.47743
7.38594
7.29287
7.19821
7.10193
7.004
6.90441
6.80314
6.70105
6.59992
6.50061
6.4031
6.30735
6.21334
6.12102
6.03036
5.94134
5.85392
5.76808
5.68377
5.60098
5.51967
5.4398
5.36136
5.28432
5.20864
5.13429
5.06126
4.98951
4.91902
4.84976
4.78171
4.71484
4.64913
4.58455
4.52109
4.45871
4.3974
4.33713
4.27789
4.21965
4.16239
4.10609
4.05074
3.99632
3.9428
3.89017
3.83841
3.78751
3.73744
3.6882
3.63977
3.59213
3.54527
3.49918
3.45385
3.40925
3.36538
3.32223
3.27978
3.23803
3.19695
3.15655
3.11681
3.07771
3.03926
3.00143
2.96422
2.92762
2.89162
2.85621
2.82137
2.78711
9.42351
9.36731
9.31004
9.25168
9.1922
9.1316
9.06985
9.00695
8.94286
8.87758
8.81109
8.74337
8.6744
8.60416
8.53264
8.45982
8.38567
8.31019
8.23335
8.15513
8.07551
7.99448
7.91202
7.8281
7.74271
7.65582
7.56742
7.47749
7.386
7.29293
7.19827
7.10198
7.00406
6.90447
6.80319
6.7011
6.59997
6.50066
6.40315
6.30741
6.21339
6.12107
6.03041
5.94139
5.85397
5.76813
5.68382
5.60103
5.51971
5.43985
5.36141
5.28437
5.20869
5.13434
5.06131
4.98956
4.91907
4.84982
4.78177
4.7149
4.64919
4.58461
4.52115
4.45877
4.39746
4.33719
4.27795
4.21972
4.16246
4.10617
4.05083
3.99641
3.94289
3.89027
3.83852
3.78762
3.73757
3.68833
3.63991
3.59228
3.54543
3.49934
3.45401
3.40942
3.36557
3.32242
3.27998
3.23824
3.19718
3.15678
3.11705
3.07797
3.03952
3.00171
2.96451
2.92792
2.89193
2.85653
2.8217
2.78745
9.47874
9.4236
9.3674
9.31013
9.25177
9.19229
9.13169
9.06994
9.00703
8.94295
8.87766
8.81117
8.74345
8.67448
8.60424
8.53272
8.45989
8.38575
8.31026
8.23342
8.1552
8.07558
7.99455
7.91209
7.82817
7.74278
7.65589
7.56749
7.47755
7.38606
7.293
7.19833
7.10205
7.00412
6.90453
6.80326
6.70116
6.60003
6.50073
6.40322
6.30747
6.21345
6.12113
6.03048
5.94145
5.85404
5.76819
5.68389
5.60109
5.51978
5.43992
5.36148
5.28443
5.20875
5.13441
5.06138
4.98963
4.91914
4.84988
4.78183
4.71497
4.64926
4.58468
4.52122
4.45884
4.39754
4.33727
4.27804
4.2198
4.16255
4.10627
4.05093
3.99652
3.94302
3.8904
3.83866
3.78777
3.73772
3.68849
3.64007
3.59245
3.5456
3.49953
3.45421
3.40963
3.36578
3.32264
3.28021
3.23848
3.19743
3.15704
3.11732
3.07825
3.03982
3.00201
2.96482
2.92824
2.89226
2.85687
2.82206
2.78781
9.47884
9.4237
9.3675
9.31023
9.25186
9.19238
9.13178
9.07003
9.00712
8.94303
8.87775
8.81126
8.74353
8.67456
8.60432
8.5328
8.45997
8.38583
8.31034
8.2335
8.15528
8.07566
7.99463
7.91217
7.82825
7.74285
7.65596
7.56756
7.47763
7.38614
7.29307
7.1984
7.10212
7.0042
6.90461
6.80333
6.70124
6.60011
6.5008
6.40329
6.30754
6.21352
6.1212
6.03055
5.94153
5.85411
5.76827
5.68396
5.60117
5.51985
5.43999
5.36155
5.28451
5.20883
5.13449
5.06146
4.98971
4.91922
4.84997
4.78192
4.71505
4.64934
4.58477
4.52131
4.45894
4.39763
4.33737
4.27814
4.21991
4.16266
4.10638
4.05105
3.99665
3.94316
3.89056
3.83883
3.78795
3.7379
3.68868
3.64027
3.59265
3.54581
3.49974
3.45443
3.40986
3.36602
3.32289
3.28047
3.23875
3.1977
3.15733
3.11762
3.07856
3.04014
3.00234
2.96517
2.9286
2.89263
2.85725
2.82245
2.78821
9.47895
9.42381
9.36761
9.31033
9.25196
9.19248
9.13188
9.07013
9.00722
8.94313
8.87785
8.81135
8.74363
8.67465
8.60441
8.53289
8.46006
8.38592
8.31043
8.23359
8.15537
8.07575
7.99472
7.91225
7.82833
7.74294
7.65605
7.56765
7.47771
7.38622
7.29315
7.19849
7.1022
7.00428
6.90469
6.80341
6.70132
6.60019
6.50088
6.40337
6.30763
6.21361
6.12129
6.03063
5.94161
5.8542
5.76835
5.68405
5.60126
5.51994
5.44008
5.36164
5.2846
5.20892
5.13458
5.06155
4.98981
4.91932
4.85007
4.78202
4.71516
4.64945
4.58488
4.52142
4.45905
4.39775
4.33749
4.27826
4.22003
4.16278
4.10651
4.05118
3.9968
3.94333
3.89076
3.83905
3.78817
3.73812
3.6889
3.64049
3.59288
3.54605
3.49999
3.45468
3.41012
3.36628
3.32317
3.28076
3.23905
3.19801
3.15765
3.11795
3.0789
3.04049
3.00271
2.96554
2.92899
2.89303
2.85766
2.82286
9.47906
9.42392
9.36772
9.31044
9.25207
9.19259
9.13199
9.07023
9.00732
8.94323
8.87795
8.81145
8.74373
8.67475
8.60451
8.53299
8.46016
8.38601
8.31053
8.23368
8.15546
8.07584
7.99481
7.91234
7.82842
7.74303
7.65614
7.56774
7.4778
7.38631
7.29324
7.19858
7.10229
7.00437
6.90478
6.8035