/*--------------------------------*- C++ -*----------------------------------*\
  =========                 |
  \\      /  F ield         | OpenFOAM: The Open Source CFD Toolbox
   \\    /   O peration     | Website:  https://openfoam.org
    \\  /    A nd           | Version:  10
     \\/     M anipulation  |
\*---------------------------------------------------------------------------*/
FoamFile
{
    format      ascii;
    class       volScalarField;
    location    "200";
    object      k;
}
// * * * * * * * * * * * * * * * * * * * * * * * * * * * * * * * * * * * * * //

dimensions      [0 2 -2 0 0 0 0];

internalField   nonuniform List<scalar> 
420
(
7.45859e-10
2.01903e-08
1.51351e-07
5.40915e-07
1.29414e-06
2.39326e-06
3.54013e-06
4.21774e-06
4.4067e-06
4.60236e-06
6.33616e-10
1.66388e-08
1.19943e-07
4.25316e-07
1.00248e-06
1.7881e-06
2.49312e-06
2.80181e-06
2.91923e-06
3.32003e-06
5.18582e-10
1.37298e-08
9.3054e-08
3.18138e-07
7.24874e-07
1.23115e-06
1.62064e-06
1.81601e-06
1.98423e-06
2.58873e-06
4.11439e-10
1.09492e-08
7.02234e-08
2.28149e-07
4.96459e-07
8.01638e-07
1.00986e-06
1.16923e-06
1.39033e-06
2.18799e-06
3.13362e-10
8.3499e-09
5.11058e-08
1.56889e-07
3.241e-07
4.99256e-07
6.21035e-07
7.47028e-07
1.02493e-06
2.02864e-06
2.25e-10
5.89388e-09
3.45661e-08
1.00025e-07
1.95301e-07
2.87226e-07
3.59274e-07
4.73305e-07
8.2758e-07
2.05045e-06
1.49755e-10
3.51551e-09
1.96063e-08
5.35777e-08
9.88573e-08
1.39908e-07
1.84777e-07
3.03727e-07
7.52262e-07
2.05807e-06
7.55957e-11
1.53502e-09
7.5797e-09
1.98622e-08
3.51429e-08
4.93548e-08
7.53474e-08
1.80485e-07
5.48059e-07
1.59294e-06
2.09834e-11
3.11292e-10
1.37279e-09
3.49326e-09
6.10692e-09
8.63281e-09
1.4494e-08
4.55797e-08
1.98739e-07
8.29148e-07
9.07568e-13
1.21958e-11
5.10985e-11
1.30485e-10
2.31976e-10
3.32035e-10
5.513e-10
1.84859e-09
1.10854e-08
1.31203e-07
6.24813e-06
1.23844e-05
2.918e-05
5.83136e-05
8.38846e-05
7.91206e-05
5.90693e-05
2.63722e-05
1.42667e-05
3.65361e-06
5.37175e-06
1.23746e-05
3.10359e-05
6.15408e-05
8.55073e-05
7.87204e-05
5.81644e-05
2.4798e-05
1.34909e-05
2.9815e-06
5.04475e-06
1.29791e-05
3.36032e-05
6.50138e-05
8.66226e-05
7.78146e-05
5.73534e-05
2.35814e-05
1.28146e-05
2.39466e-06
5.06948e-06
1.39951e-05
3.65835e-05
6.81734e-05
8.6832e-05
7.65369e-05
5.64706e-05
2.28894e-05
1.23434e-05
2.19107e-06
5.34141e-06
1.52356e-05
3.96359e-05
7.06412e-05
8.61177e-05
7.50639e-05
5.56036e-05
2.27749e-05
1.20822e-05
2.23939e-06
5.73603e-06
1.64395e-05
4.23568e-05
7.21423e-05
8.46301e-05
7.36396e-05
5.51483e-05
2.30241e-05
1.20105e-05
2.32614e-06
5.66405e-06
1.72302e-05
4.46422e-05
7.27133e-05
8.32709e-05
7.25454e-05
5.50737e-05
2.34957e-05
1.20381e-05
2.44083e-06
4.81344e-06
1.74586e-05
4.66297e-05
7.28075e-05
8.21799e-05
7.17677e-05
5.52929e-05
2.41354e-05
1.215e-05
2.59115e-06
3.38789e-06
1.76514e-05
4.87186e-05
7.26509e-05
8.12862e-05
7.13033e-05
5.57496e-05
2.48979e-05
1.23613e-05
2.79887e-06
1.87571e-06
1.89678e-05
5.12808e-05
7.23063e-05
8.05529e-05
7.11451e-05
5.64537e-05
2.58161e-05
1.26965e-05
3.10812e-06
1.56134e-06
2.37715e-05
5.42264e-05
7.14915e-05
7.9964e-05
7.12061e-05
5.72214e-05
2.68809e-05
1.29859e-05
3.50005e-06
4.00377e-06
2.9541e-05
5.49402e-05
6.97373e-05
7.90802e-05
7.09466e-05
5.74615e-05
2.72356e-05
1.30174e-05
3.34116e-06
1.53209e-05
3.69935e-05
5.4017e-05
6.73658e-05
7.77817e-05
7.0348e-05
5.73672e-05
2.74433e-05
1.32257e-05
3.05289e-06
2.79395e-05
3.94807e-05
5.00778e-05
6.38349e-05
7.67675e-05
7.04112e-05
5.78291e-05
2.83201e-05
1.37695e-05
3.22575e-06
2.96394e-05
3.56763e-05
4.52603e-05
6.04888e-05
7.61525e-05
7.09839e-05
5.84639e-05
2.92564e-05
1.41327e-05
3.40117e-06
2.58521e-05
3.05883e-05
4.03472e-05
5.72447e-05
7.56155e-05
7.17585e-05
5.91057e-05
3.0134e-05
1.45188e-05
3.56753e-06
2.13991e-05
2.57699e-05
3.59057e-05
5.45542e-05
7.53836e-05
7.28436e-05
5.9688e-05
3.08712e-05
1.49021e-05
3.73571e-06
1.74225e-05
2.16598e-05
3.24027e-05
5.27504e-05
7.5547e-05
7.41861e-05
6.01234e-05
3.14053e-05
1.52768e-05
3.93895e-06
1.41944e-05
1.85471e-05
3.00543e-05
5.19493e-05
7.62166e-05
7.57616e-05
6.02789e-05
3.17147e-05
1.55954e-05
4.24477e-06
1.15771e-05
1.61395e-05
2.85306e-05
5.21274e-05
7.76587e-05
7.75163e-05
6.049e-05
3.13834e-05
1.54579e-05
4.78406e-06
9.4361e-06
1.43081e-05
2.77834e-05
5.32427e-05
7.96826e-05
7.89877e-05
6.05116e-05
3.03121e-05
1.50132e-05
5.20566e-06
7.71321e-06
1.29642e-05
2.77962e-05
5.51566e-05
8.18397e-05
7.97098e-05
6.00591e-05
2.84709e-05
1.50837e-05
5.03518e-06
1.93132e-06
1.58191e-05
2.37241e-05
2.32559e-05
1.9872e-05
1.62616e-05
1.31608e-05
1.05693e-05
8.34449e-06
6.47224e-06
4.74545e-07
8.2322e-06
1.66332e-05
1.8824e-05
1.72224e-05
1.45521e-05
1.19833e-05
9.77864e-06
7.87138e-06
6.26602e-06
1.52286e-07
3.74372e-06
9.9153e-06
1.3288e-05
1.34172e-05
1.19134e-05
1.00336e-05
8.29672e-06
6.80974e-06
5.63211e-06
5.86322e-08
1.58997e-06
5.13102e-06
7.88546e-06
8.83299e-06
8.46237e-06
7.45579e-06
6.33246e-06
5.25633e-06
4.40719e-06
2.23311e-08
6.28367e-07
2.38162e-06
4.08268e-06
4.98057e-06
5.08026e-06
4.66249e-06
4.06991e-06
3.42899e-06
2.89329e-06
7.85307e-09
2.25785e-07
9.87434e-07
1.86116e-06
2.42958e-06
2.59577e-06
2.44974e-06
2.17611e-06
1.85226e-06
1.56132e-06
2.44327e-09
7.12116e-08
3.52443e-07
7.25285e-07
1.00039e-06
1.10239e-06
1.05208e-06
9.35586e-07
7.94299e-07
6.61852e-07
6.22331e-10
1.82476e-08
9.89878e-08
2.19512e-07
3.1398e-07
3.47272e-07
3.23295e-07
2.83356e-07
2.36111e-07
1.91304e-07
1.0059e-10
2.91742e-09
1.61592e-08
3.69371e-08
5.27219e-08
5.63326e-08
5.10312e-08
4.39031e-08
3.56327e-08
2.74287e-08
5.8901e-12
1.48022e-10
6.23128e-10
1.34651e-09
1.9179e-09
2.07999e-09
1.91433e-09
1.65084e-09
1.34414e-09
1.03572e-09
)
;

boundaryField
{
    right
    {
        type            cyclic;
    }
    left
    {
        type            cyclic;
    }
    outerWall
    {
        type            kqRWallFunction;
        value           nonuniform List<scalar> 
22
(
3.65361e-06
2.9815e-06
2.39466e-06
2.19107e-06
2.23939e-06
2.32614e-06
2.44083e-06
2.59115e-06
2.79887e-06
3.10812e-06
3.50005e-06
3.34116e-06
3.05289e-06
3.22575e-06
3.40117e-06
3.56753e-06
3.73571e-06
3.93895e-06
4.24477e-06
4.78406e-06
5.20566e-06
5.03518e-06
)
;
    }
    stirrerWall
    {
        type            kqRWallFunction;
        value           nonuniform List<scalar> 
42
(
7.45859e-10
6.33616e-10
5.18582e-10
4.11439e-10
3.13362e-10
2.25e-10
1.49755e-10
7.55957e-11
2.09834e-11
9.07568e-13
9.07568e-13
1.21958e-11
5.10985e-11
1.30485e-10
2.31976e-10
3.32035e-10
5.513e-10
1.84859e-09
1.10854e-08
1.31203e-07
1.56134e-06
4.00377e-06
1.93132e-06
4.74545e-07
1.52286e-07
5.86322e-08
2.23311e-08
7.85307e-09
2.44327e-09
6.22331e-10
1.0059e-10
5.8901e-12
5.8901e-12
1.48022e-10
6.23128e-10
1.34651e-09
1.9179e-09
2.07999e-09
1.91433e-09
1.65084e-09
1.34414e-09
1.03572e-09
)
;
    }
    top
    {
        type            empty;
    }
    bottom
    {
        type            empty;
    }
}


// ************************************************************************* //
