/*--------------------------------*- C++ -*----------------------------------*\
  =========                 |
  \\      /  F ield         | OpenFOAM: The Open Source CFD Toolbox
   \\    /   O peration     | Website:  https://openfoam.org
    \\  /    A nd           | Version:  10
     \\/     M anipulation  |
\*---------------------------------------------------------------------------*/
FoamFile
{
    format      ascii;
    class       volScalarField;
    location    "200";
    object      k;
}
// * * * * * * * * * * * * * * * * * * * * * * * * * * * * * * * * * * * * * //

dimensions      [0 2 -2 0 0 0 0];

internalField   nonuniform List<scalar> 
2000
(
8.85307e-05
0.00244454
0.0173521
0.0609456
0.124255
0.195053
0.268224
0.340665
0.40852
0.466314
0.507941
0.528803
0.532734
0.527949
0.516991
0.508481
0.525997
0.601481
0.761546
1.01881
6.99574e-05
0.00179654
0.012423
0.0445105
0.0949221
0.152409
0.212101
0.271148
0.325863
0.372398
0.406972
0.426336
0.434302
0.436589
0.436795
0.446267
0.490901
0.607136
0.827632
1.16087
5.19584e-05
0.0013012
0.00865217
0.0304548
0.0736946
0.121986
0.170321
0.21738
0.261042
0.298627
0.32769
0.346462
0.358081
0.368507
0.383082
0.416769
0.501413
0.678223
0.979725
1.39838
3.55254e-05
0.00093908
0.00597914
0.0202518
0.0522691
0.0951741
0.136257
0.174732
0.210045
0.241114
0.266558
0.28574
0.302063
0.322286
0.354815
0.422299
0.568009
0.832271
1.23219
1.72078
2.80885e-05
0.00074898
0.00442044
0.0134548
0.0324246
0.0667687
0.103773
0.137301
0.167518
0.194552
0.218427
0.239744
0.263102
0.297848
0.36007
0.484473
0.73077
1.10688
1.58248
2.05518
2.7721e-05
0.000724488
0.00390894
0.0100656
0.0206189
0.0401031
0.0708378
0.100946
0.128288
0.153526
0.17809
0.204777
0.241495
0.303805
0.4289
0.657568
1.0565
1.47906
1.81656
2.19768
3.31095e-05
0.000855308
0.00430436
0.00947649
0.0157436
0.0255805
0.0437165
0.0679192
0.0924952
0.11708
0.144307
0.181929
0.251559
0.389421
0.670537
1.03465
1.34493
1.61825
1.87302
2.15043
4.40219e-05
0.00113081
0.00543853
0.0110427
0.0156655
0.0200927
0.0285045
0.0444391
0.0649174
0.0891789
0.122329
0.183105
0.33454
0.588024
0.866911
1.14072
1.38354
1.56916
1.70795
1.90731
6.09963e-05
0.00154963
0.00713998
0.0141417
0.0190238
0.0208551
0.0238167
0.0327816
0.0488821
0.0740653
0.121092
0.225445
0.409751
0.652017
0.892059
1.11985
1.30303
1.38292
1.43587
1.56944
8.65026e-05
0.00212477
0.00923264
0.0181853
0.0247204
0.025877
0.0255267
0.029981
0.0430968
0.0734279
0.138647
0.261164
0.457073
0.709101
0.944218
1.10932
1.15325
1.08807
1.06578
1.17597
0.000129063
0.00289223
0.0115415
0.0226387
0.0318362
0.0340591
0.0318697
0.0339427
0.04626
0.0850536
0.167883
0.315554
0.516638
0.733602
0.896426
0.958068
0.869953
0.748876
0.719179
0.821411
0.00019258
0.00386257
0.0140135
0.0269891
0.0394069
0.0448364
0.0433999
0.0464195
0.06037
0.10663
0.19935
0.347405
0.532508
0.711052
0.81938
0.80589
0.626623
0.492322
0.454788
0.528814
0.000264428
0.00477552
0.0160261
0.0308521
0.0470214
0.0581112
0.0609745
0.0666757
0.0821953
0.131944
0.229337
0.37249
0.534757
0.673969
0.735464
0.662349
0.433446
0.306579
0.26606
0.31058
0.000322827
0.00534692
0.0169096
0.0330044
0.0531441
0.0724669
0.0833511
0.0930924
0.113557
0.163885
0.256841
0.384336
0.516325
0.614491
0.633617
0.524751
0.306488
0.209181
0.164257
0.174331
0.000340537
0.00529011
0.0160697
0.032221
0.0551779
0.0832334
0.108282
0.125345
0.151019
0.197927
0.27838
0.38599
0.490905
0.55925
0.556711
0.448205
0.280629
0.194075
0.133208
0.109299
0.000297603
0.00443272
0.013158
0.0274852
0.0503558
0.0830091
0.121383
0.155121
0.190199
0.236189
0.303316
0.393835
0.481574
0.529973
0.509597
0.426935
0.322805
0.22458
0.14224
0.0940406
0.000198572
0.00288577
0.00848482
0.0187403
0.0371633
0.0671815
0.110145
0.161732
0.213116
0.267284
0.325315
0.406603
0.478411
0.509631
0.484725
0.419535
0.330861
0.226911
0.139436
0.0834601
8.63478e-05
0.00119923
0.00352285
0.00836808
0.0181447
0.0362198
0.0666064
0.112583
0.168835
0.232073
0.298895
0.382356
0.439417
0.455094
0.420985
0.353915
0.258107
0.167585
0.0990915
0.0572601
1.9364e-05
0.000203881
0.00059999
0.00152111
0.00353563
0.00763099
0.0155579
0.0304935
0.0582944
0.0976036
0.146669
0.203798
0.223293
0.215313
0.181644
0.126545
0.0829207
0.0522527
0.0310643
0.019317
7.86165e-07
7.50105e-06
2.13683e-05
5.41453e-05
0.000124127
0.00026318
0.000531876
0.0010658
0.00241592
0.00522052
0.00992431
0.0151903
0.0161561
0.0137998
0.00867435
0.00487356
0.00305278
0.00188502
0.00129549
0.00498811
1.40888
2.08969
3.43351
5.85478
8.86557
11.1244
11.9736
11.7058
10.8247
9.74381
8.78717
8.19152
8.20969
9.10563
11.1943
15.9794
26.9775
62.0404
173.506
718.403
1.64933
2.46859
3.9876
6.50822
9.37382
11.376
12.0611
11.7248
10.8198
9.73359
8.77945
8.18754
8.21204
9.11677
11.21
16.0097
27.0231
62.1714
172.808
693.151
1.98101
2.9086
4.51532
7.02399
9.69606
11.4719
12.0413
11.6747
10.7739
9.70201
8.76385
8.18445
8.21877
9.13233
11.2287
16.0461
27.0739
62.3085
172.355
648.796
2.35574
3.31103
4.88823
7.30844
9.80593
11.4301
11.9416
11.5772
10.7015
9.65714
8.74268
8.18025
8.22694
9.15087
11.2497
16.085
27.1253
62.4776
173.465
579.19
2.62671
3.53013
5.0571
7.33925
9.72383
11.2746
11.7796
11.4451
10.6108
9.60415
8.71924
8.17685
8.23675
9.17126
11.2716
16.1254
27.1738
62.6392
177.827
656.313
2.70619
3.54426
5.01362
7.21796
9.50611
11.0364
11.5754
11.2929
10.513
9.55064
8.69783
8.17605
8.24868
9.19367
11.2946
16.1667
27.2156
62.6809
180.322
777.173
2.57014
3.36392
4.80139
6.96502
9.21795
10.7592
11.3512
11.1356
10.4181
9.50222
8.68083
8.17847
8.26231
9.21689
11.3173
16.2076
27.2531
62.6357
178.252
767.547
2.29323
3.05887
4.4795
6.6297
8.88943
10.4697
11.1273
10.9841
10.3313
9.46156
8.66846
8.18319
8.27609
9.23921
11.3382
16.2459
27.2874
62.6203
175.95
752.023
1.91802
2.66541
4.08477
6.2581
8.55444
10.1909
10.9206
10.8506
10.2589
9.42983
8.66136
8.19124
8.29058
9.26047
11.3578
16.2816
27.3192
62.6462
173.458
731.256
1.5108
2.2402
3.66267
5.88354
8.24328
9.94543
10.7481
10.7475
10.2087
9.41199
8.6616
8.20253
8.30616
9.28058
11.3762
16.3147
27.35
62.7307
170.807
701.015
1.12908
1.82381
3.24928
5.53504
7.97455
9.74748
10.621
10.6805
10.1824
9.40774
8.66793
8.21518
8.32058
9.29813
11.3924
16.3433
27.3794
62.8969
168.291
655.323
0.791284
1.43718
2.8672
5.23417
7.76405
9.60835
10.5468
10.6561
10.1818
9.418
8.68118
8.22991
8.33429
9.31375
11.4074
16.3673
27.4082
63.1667
166.66
586.121
0.517979
1.10275
2.54078
5.0023
7.62777
9.53864
10.5303
10.6713
10.2064
9.4431
8.70181
8.24704
8.34749
9.32737
11.4221
16.3865
27.4357
63.5412
167.379
482.576
0.318691
0.834897
2.29241
4.85703
7.57123
9.53534
10.5628
10.7181
10.25
9.47913
8.72765
8.26551
8.35995
9.33865
11.4368
16.3998
27.4575
63.9681
173.047
515.288
0.190423
0.643411
2.14571
4.81657
7.59966
9.5962
10.6377
10.7925
10.3113
9.5258
8.75869
8.28558
8.37223
9.34809
11.4522
16.4066
27.4642
64.3147
179.144
568.901
0.131136
0.548162
2.13382
4.89504
7.70331
9.70322
10.7412
10.8837
10.383
9.57847
8.79242
8.30669
8.38449
9.35569
11.469
16.407
27.4555
64.5515
184.787
648.699
0.103751
0.54708
2.28164
5.11051
7.882
9.84564
10.8622
10.9843
10.4602
9.63401
8.82699
8.32784
8.39665
9.36216
11.4875
16.4015
27.4329
64.665
188.142
767.996
0.0854088
0.616261
2.59394
5.45814
8.12885
10.0175
10.9958
11.0887
10.5374
9.68854
8.86019
8.34789
8.40887
9.36819
11.5081
16.3896
27.4002
64.7033
186.038
754.795
0.0723511
0.749709
3.06374
5.90381
8.42259
10.2069
11.1352
11.1909
10.6098
9.73891
8.89072
8.36609
8.42083
9.37364
11.5306
16.3625
27.3641
64.7516
183.514
738.337
0.0626687
0.944014
3.6667
6.41441
8.74447
10.4002
11.2709
11.2835
10.6726
9.78176
8.91712
8.38213
8.43255
9.37758
11.5534
16.3108
27.3394
64.332
181.498
722.466
0.0667756
1.28504
4.43371
6.90177
9.01552
10.5334
11.365
11.3415
10.7117
9.80864
8.93441
8.39243
8.4438
9.38062
11.5773
16.2579
27.329
63.517
176.737
704.688
0.07211
1.37472
4.57111
6.98259
9.06027
10.5539
11.3763
11.3482
10.7166
9.81069
8.93247
8.38729
8.43776
9.37304
11.5752
16.2417
27.3322
63.3844
176.653
702.95
0.0829882
1.51294
4.77317
7.11276
9.13803
10.5862
11.3829
11.3457
10.712
9.80303
8.91948
8.3715
8.42283
9.35998
11.5705
16.2328
27.3617
63.3404
177.158
701.974
0.0974812
1.67605
4.99206
7.25038
9.21278
10.6107
11.3772
11.3317
10.6982
9.7893
8.90287
8.35397
8.40776
9.34809
11.5663
16.2276
27.3933
63.3041
177.733
700.748
0.115996
1.86399
5.22407
7.3902
9.27901
10.6213
11.3533
11.302
10.6727
9.76817
8.88267
8.3353
8.39336
9.338
11.5641
16.2257
27.426
63.2644
178.269
698.999
0.139405
2.07736
5.46468
7.52733
9.33215
10.614
11.3082
11.2527
10.633
9.7385
8.85847
8.31559
8.37985
9.32981
11.5639
16.2268
27.4589
63.2167
178.723
696.626
0.168877
2.31633
5.70824
7.65631
9.36848
10.5861
11.2401
11.1817
10.577
9.69928
8.82993
8.29478
8.36726
9.32355
11.5654
16.2308
27.4916
63.1586
179.075
693.6
0.205869
2.5801
5.94816
7.7713
9.38491
10.5355
11.148
11.0886
10.5029
9.64964
8.79678
8.27281
8.35559
9.31919
11.5685
16.2373
27.5238
63.0887
179.325
689.961
0.252167
2.86657
6.17719
7.86743
9.37882
10.4616
11.0328
10.9738
10.4107
9.58892
8.75889
8.24966
8.3448
9.31663
11.5732
16.2461
27.5552
63.0074
179.482
685.825
0.309949
3.17209
6.38745
7.93957
9.34836
10.3648
10.8965
10.8391
10.3023
9.51621
8.71623
8.22537
8.33487
9.3157
11.5794
16.2567
27.5857
62.9158
179.575
681.401
0.381847
3.49123
6.57068
7.98315
9.29286
10.2461
10.7421
10.688
10.1795
9.43245
8.66902
8.2
8.32569
9.31612
11.5869
16.2686
27.6153
62.8157
179.646
677.001
0.471031
3.81666
6.71802
7.99522
9.21213
10.1078
10.5731
10.5245
10.046
9.33994
8.61763
8.17369
8.31718
9.3176
11.595
16.2815
27.6441
62.7109
179.757
673.039
0.581278
4.13862
6.82133
7.97387
9.1066
9.95266
10.3936
10.353
9.90573
9.24086
8.56258
8.14661
8.30922
9.31983
11.6032
16.2949
27.6724
62.6074
179.988
670.018
0.717042
4.4453
6.87719
7.91798
8.97756
9.78367
10.2076
10.1781
9.7626
9.13817
8.50458
8.11897
8.30169
9.32253
11.611
16.3084
27.701
62.5129
180.434
668.516
0.883493
4.72398
6.88195
7.82745
8.82707
9.60419
10.0191
10.0038
9.62031
9.03493
8.44437
8.09103
8.29443
9.32536
11.618
16.3218
27.7306
62.4364
181.204
669.144
1.08647
4.96107
6.83439
7.70312
8.65779
9.41775
9.83195
9.83388
9.48204
8.93365
8.38292
8.06305
8.28727
9.32791
11.6238
16.3346
27.7625
62.388
182.414
672.502
1.33232
5.14259
6.73454
7.54669
8.47285
9.22794
9.64942
9.67127
9.35029
8.83643
8.32177
8.03534
8.28
9.32976
11.6278
16.3465
27.7982
62.3782
184.187
679.117
1.62749
5.25457
6.58375
7.3604
8.27564
9.03819
9.47445
9.51834
9.22695
8.74486
8.26243
8.00813
8.27237
9.33045
11.6296
16.3572
27.8384
62.4174
186.636
689.398
1.97774
5.28357
6.38414
7.14673
8.0695
8.85163
9.30934
9.37669
9.11315
8.65983
8.20606
7.98165
8.2641
9.32952
11.6284
16.3666
27.8847
62.5176
189.871
703.624
2.38671
5.21733
6.13796
6.90719
7.85689
8.67026
9.15532
9.24687
9.00911
8.58156
8.15333
7.95596
8.25488
9.32646
11.624
16.3743
27.9421
62.6986
194.046
722.068
3.02218
4.99767
5.77541
6.57968
7.5925
8.45896
8.98487
9.1064
8.89707
8.49625
8.09367
7.92605
8.2422
9.31862
11.6137
16.3771
28.0156
62.9834
200.216
749.526
4.24729
4.67293
5.2916
6.229
7.33897
8.31122
8.89674
9.05146
8.86064
8.46947
8.08251
7.92611
8.24812
9.32746
11.5904
16.4223
27.619
62.7775
192.641
764.687
3.73473
4.13064
4.81439
5.86057
7.10084
8.19257
8.85227
9.04247
8.86422
8.4791
8.09515
7.93633
8.25244
9.32438
11.5718
16.4042
27.4568
62.5439
187.549
774.634
3.12932
3.57145
4.32216
5.46645
6.84216
8.06353
8.80695
9.03793
8.87532
8.49678
8.11245
7.94789
8.2549
9.3172
11.5512
16.3682
27.3467
61.9719
184.836
784.088
2.62397
3.08118
3.86088
5.08202
6.59054
7.94796
8.77912
9.04993
8.90224
8.52542
8.13518
7.96034
8.255
9.30615
11.5259
16.3283
27.2414
61.4214
182.646
791.729
2.21644
2.65385
3.43085
4.70916
6.34763
7.84891
8.771
9.08359
8.94744
8.56596
8.16377
7.97393
8.25308
9.29144
11.4956
16.2852
27.1472
60.9104
179.21
785.749
1.89783
2.29366
3.04169
4.35376
6.11616
7.76799
8.78971
9.14209
9.01101
8.61786
8.19795
7.98867
8.24977
9.27411
11.462
16.2403
27.0698
60.4844
174.561
766.693
1.65767
1.99904
2.69468
4.02176
5.90712
7.71921
8.84022
9.22666
9.09271
8.68077
8.23749
8.00449
8.24565
9.25526
11.427
16.1955
27.0085
60.1951
170.223
747.128
1.48589
1.77446
2.40823
3.73185
5.72925
7.70339
8.92294
9.33668
9.19185
8.75443
8.28252
8.02213
8.24122
9.23586
11.3922
16.1525
26.9634
60.0719
166.834
729.148
1.37329
1.61736
2.18617
3.48907
5.58341
7.7187
9.03599
9.47061
9.3072
8.83768
8.33219
8.04184
8.23748
9.21682
11.3588
16.1124
26.9314
60.1001
164.661
713.878
1.29947
1.51529
2.03048
3.30044
5.47214
7.76238
9.17503
9.62515
9.43667
8.92915
8.38557
8.06305
8.23472
9.19889
11.3276
16.0756
26.9083
60.2564
163.929
702.45
1.24047
1.4406
1.92005
3.17395
5.41284
7.83186
9.33468
9.79568
9.57668
9.02628
8.44167
8.08564
8.23327
9.18278
11.2996
16.0426
26.8907
60.503
164.194
695.847
1.18893
1.38526
1.84393
3.09338
5.40304
7.94444
9.51782
9.97855
9.72356
9.12679
8.49948
8.10959
8.23359
9.16923
11.2759
16.0148
26.8796
60.8005
165.233
694.114
1.14044
1.3433
1.79873
3.06065
5.44698
8.10117
9.72884
10.1765
9.87667
9.22882
8.55739
8.13407
8.23568
9.15868
11.2568
15.992
26.8753
61.1121
166.885
697.054
1.09401
1.31228
1.78131
3.07717
5.55374
8.30744
9.96763
10.387
10.0333
9.33041
8.61414
8.15818
8.23897
9.15093
11.242
15.9747
26.873
61.4137
168.939
703.53
1.05376
1.29424
1.79284
3.14668
5.72773
8.56534
10.2321
10.6052
10.1892
9.42862
8.66798
8.18107
8.2433
9.14623
11.2317
15.9638
26.873
61.6761
171.222
712.015
1.02742
1.29382
1.83767
3.27679
5.97525
8.87174
10.5132
10.823
10.3386
9.51989
8.71691
8.20182
8.24846
9.14493
11.2267
15.9596
26.8737
61.8678
173.441
722.776
1.02481
1.31809
1.92379
3.47898
6.30346
9.22263
10.8025
11.0329
10.4762
9.60101
8.75957
8.22037
8.25491
9.14747
11.227
15.9618
26.875
61.9953
175.321
733.527
1.05439
1.37403
2.06026
3.76489
6.71794
9.61527
11.0951
11.2299
10.5983
9.6702
8.79559
8.23666
8.26271
9.15425
11.2328
15.9706
26.8774
62.0687
176.587
739.792
1.11294
1.45793
2.24623
4.12707
7.1878
9.9957
11.3357
11.3737
10.68
9.71367
8.81858
8.24877
8.27106
9.16401
11.2423
15.9856
26.8873
62.1059
177.203
740.54
1.01725
4.18546
3.96482
3.27959
2.69703
2.24016
1.89224
1.63757
1.46301
1.35557
1.28849
1.23204
1.17639
1.11666
1.05206
0.986509
0.928632
0.891762
0.888394
0.914953
0.597282
3.77
4.03081
3.33403
2.71236
2.23612
1.8836
1.62994
1.45619
1.34898
1.28255
1.22539
1.16704
1.10118
1.02583
0.943854
0.864616
0.802909
0.772143
0.768715
0.369044
3.30896
4.07931
3.4639
2.82233
2.32265
1.95051
1.67817
1.48281
1.35632
1.2813
1.2209
1.16116
1.09352
1.01391
0.922873
0.829346
0.747713
0.692671
0.665117
0.199129
2.77914
4.03388
3.59608
2.96907
2.45711
2.06726
1.7727
1.5484
1.39372
1.30326
1.24042
1.18226
1.11647
1.03636
0.939661
0.835209
0.736525
0.659168
0.609975
0.106061
2.12044
3.7959
3.67654
3.11548
2.60989
2.21015
1.89886
1.65291
1.4724
1.36215
1.29677
1.23821
1.17107
1.09003
0.990249
0.877736
0.764475
0.668128
0.600943
0.0641094
1.47724
3.27917
3.63167
3.21999
2.74393
2.34352
2.02784
1.77756
1.58326
1.45445
1.37786
1.30445
1.22259
1.13427
1.03566
0.923954
0.80596
0.696531
0.615472
0.0400617
0.978882
2.58576
3.3011
3.19147
2.82192
2.43656
2.12378
1.87127
1.66489
1.51572
1.4272
1.34182
1.24607
1.14889
1.05384
0.94822
0.834796
0.721258
0.629897
0.0247199
0.627491
1.90481
2.75997
2.94751
2.77222
2.48407
2.20507
1.96565
1.7661
1.60837
1.49047
1.38428
1.27227
1.16383
1.06189
0.955106
0.842879
0.729325
0.632412
0.0148829
0.39202
1.33102
2.14781
2.52489
2.55571
2.40943
2.20802
2.0093
1.83426
1.68685
1.55717
1.43198
1.30198
1.1765
1.05876
0.944403
0.830239
0.718298
0.621198
0.00870619
0.237435
0.889116
1.5695
2.01048
2.18888
2.18483
2.08625
1.95166
1.81228
1.67951
1.55168
1.41801
1.27963
1.14534
1.01968
0.902368
0.790158
0.683511
0.590802
0.00490627
0.137725
0.571715
1.08625
1.49597
1.7401
1.83623
1.83137
1.76784
1.67496
1.56862
1.4565
1.33025
1.19716
1.06608
0.942794
0.828554
0.722164
0.623221
0.537567
0.00262243
0.0751464
0.35319
0.719758
1.05127
1.29217
1.4322
1.48753
1.48146
1.4343
1.36056
1.27095
1.16703
1.05393
0.939903
0.830554
0.727839
0.632598
0.54466
0.468439
0.00132088
0.0384099
0.207959
0.45899
0.706132
0.907262
1.04679
1.12542
1.15242
1.13909
1.09568
1.03087
0.954578
0.868807
0.77982
0.692063
0.608028
0.528723
0.454656
0.389972
0.000635219
0.0187083
0.115068
0.281292
0.45767
0.611049
0.727654
0.804342
0.843112
0.848956
0.828074
0.786926
0.735012
0.675269
0.611584
0.546833
0.483115
0.421036
0.361536
0.308452
0.000292767
0.00864355
0.0586541
0.163033
0.285402
0.39803
0.488297
0.552184
0.590097
0.604078
0.597434
0.574265
0.541268
0.502122
0.458756
0.412804
0.365391
0.317479
0.270469
0.227808
0.000128787
0.00379752
0.0263815
0.0851915
0.16594
0.246527
0.314983
0.366328
0.399611
0.41583
0.417105
0.405766
0.385488
0.359511
0.32882
0.294548
0.257642
0.219836
0.18266
0.149427
4.85797e-05
0.00142072
0.00976955
0.0354208
0.0816009
0.135313
0.185249
0.225428
0.253702
0.269785
0.274481
0.268925
0.254462
0.234305
0.209511
0.181707
0.152781
0.124516
0.0979342
0.0761298
1.4389e-05
0.000416972
0.00284729
0.0103508
0.0275787
0.0548141
0.0844616
0.110403
0.129197
0.139363
0.14058
0.133285
0.119838
0.104321
0.0878495
0.0715461
0.0562771
0.0425258
0.0308952
0.0233654
3.14249e-06
9.00774e-05
0.000573472
0.00200297
0.00525103
0.0116067
0.0202222
0.0281192
0.0333095
0.0346935
0.0322186
0.0269839
0.0225437
0.0185333
0.0148042
0.0113723
0.00823289
0.005831
0.00412815
0.00324198
3.75291e-07
8.62695e-06
3.81603e-05
0.0001147
0.000270827
0.000537603
0.000931362
0.00130448
0.00150845
0.00149073
0.00128914
0.00101211
0.00082539
0.000673986
0.000536762
0.000412385
0.000301812
0.000214575
0.000153324
0.000117656
)
;

boundaryField
{
    right
    {
        type            cyclic;
    }
    left
    {
        type            cyclic;
    }
    outerWall
    {
        type            kqRWallFunction;
        value           nonuniform List<scalar> 
60
(
718.403
693.151
648.796
579.19
656.313
777.173
767.547
752.023
731.256
701.015
655.323
586.121
482.576
515.288
568.901
648.699
767.996
754.795
738.337
722.466
704.688
702.95
701.974
700.748
698.999
696.626
693.6
689.961
685.825
681.401
677.001
673.039
670.018
668.516
669.144
672.502
679.117
689.398
703.624
722.068
749.526
764.687
774.634
784.088
791.729
785.749
766.693
747.128
729.148
713.878
702.45
695.847
694.114
697.054
703.53
712.015
722.776
733.527
739.792
740.54
)
;
    }
    stirrerWall
    {
        type            kqRWallFunction;
        value           nonuniform List<scalar> 
100
(
8.85307e-05
6.99574e-05
5.19584e-05
3.55254e-05
2.80885e-05
2.7721e-05
3.31095e-05
4.40219e-05
6.09963e-05
8.65026e-05
0.000129063
0.00019258
0.000264428
0.000322827
0.000340537
0.000297603
0.000198572
8.63478e-05
1.9364e-05
7.86165e-07
7.86165e-07
7.50105e-06
2.13683e-05
5.41453e-05
0.000124127
0.00026318
0.000531876
0.0010658
0.00241592
0.00522052
0.00992431
0.0151903
0.0161561
0.0137998
0.00867435
0.00487356
0.00305278
0.00188502
0.00129549
0.00498811
0.0667756
0.07211
0.0829882
0.0974812
0.115996
0.139405
0.168877
0.205869
0.252167
0.309949
0.381847
0.471031
0.581278
0.717042
0.883493
1.08647
1.33232
1.62749
1.97774
2.38671
1.01725
0.597282
0.369044
0.199129
0.106061
0.0641094
0.0400617
0.0247199
0.0148829
0.00870619
0.00490627
0.00262243
0.00132088
0.000635219
0.000292767
0.000128787
4.85797e-05
1.4389e-05
3.14249e-06
3.75291e-07
3.75291e-07
8.62695e-06
3.81603e-05
0.0001147
0.000270827
0.000537603
0.000931362
0.00130448
0.00150845
0.00149073
0.00128914
0.00101211
0.00082539
0.000673986
0.000536762
0.000412385
0.000301812
0.000214575
0.000153324
0.000117656
)
;
    }
    top
    {
        type            empty;
    }
    bottom
    {
        type            empty;
    }
}


// ************************************************************************* //
