/*--------------------------------*- C++ -*----------------------------------*\
  =========                 |
  \\      /  F ield         | OpenFOAM: The Open Source CFD Toolbox
   \\    /   O peration     | Website:  https://openfoam.org
    \\  /    A nd           | Version:  10
     \\/     M anipulation  |
\*---------------------------------------------------------------------------*/
FoamFile
{
    format      ascii;
    class       volScalarField;
    location    "200";
    object      nut;
}
// * * * * * * * * * * * * * * * * * * * * * * * * * * * * * * * * * * * * * //

dimensions      [0 2 -1 0 0 0 0];

internalField   nonuniform List<scalar> 
2000
(
1.01977e-09
1.5424e-07
2.3163e-06
1.05077e-05
2.63164e-05
5.08509e-05
8.50938e-05
0.000128855
0.000179928
0.000233432
0.000281994
0.000317612
0.0003382
0.000347164
0.000346128
0.000340742
0.000346045
0.000380619
0.000456472
0.000575393
8.05799e-10
1.18492e-07
1.90239e-06
8.5168e-06
2.07334e-05
3.88681e-05
6.37909e-05
9.5516e-05
0.000132358
0.000170906
0.000206291
0.000233171
0.000250756
0.000260994
0.000265442
0.000270278
0.000289972
0.000343256
0.000443536
0.000591188
5.98465e-10
8.58666e-08
1.44128e-06
6.8786e-06
1.75609e-05
3.17905e-05
5.02377e-05
7.3158e-05
9.95744e-05
0.000127267
0.000153151
0.00017398
0.000189334
0.00020128
0.000211699
0.000227632
0.000264668
0.000341559
0.000470746
0.000647495
4.0918e-10
6.1009e-08
9.98033e-07
5.10059e-06
1.43189e-05
2.67895e-05
4.1335e-05
5.84753e-05
7.78232e-05
9.81703e-05
0.000117681
0.000134463
0.000148586
0.000162358
0.000178683
0.000207162
0.000266504
0.000373854
0.000536557
0.000734893
3.23518e-10
4.71282e-08
7.11911e-07
3.52802e-06
1.02496e-05
2.15545e-05
3.43326e-05
4.81417e-05
6.31229e-05
7.88235e-05
9.43752e-05
0.000108865
0.000122892
0.000139691
0.000164937
0.000212049
0.000304698
0.000450536
0.000639601
0.000823057
3.19285e-10
4.46449e-08
6.15866e-07
2.67048e-06
7.10874e-06
1.54663e-05
2.7246e-05
3.94741e-05
5.20536e-05
6.51211e-05
7.86199e-05
9.26513e-05
0.000108827
0.000132381
0.000176304
0.000255597
0.000399977
0.000570322
0.000699636
0.000827848
3.8135e-10
5.2648e-08
6.83813e-07
2.57161e-06
5.74587e-06
1.11032e-05
2.01139e-05
3.12774e-05
4.26358e-05
5.45162e-05
6.75624e-05
8.36426e-05
0.000108478
0.000152456
0.000243512
0.000376656
0.000503148
0.000606939
0.000682273
0.00076221
5.07043e-10
7.08887e-08
8.96642e-07
3.11906e-06
6.01414e-06
9.42679e-06
1.50753e-05
2.41154e-05
3.47228e-05
4.64905e-05
6.11307e-05
8.44039e-05
0.000134448
0.000216759
0.000318744
0.000428819
0.000519924
0.00056849
0.000592098
0.000637531
7.02568e-10
1.00241e-07
1.24039e-06
4.17451e-06
7.67358e-06
1.04966e-05
1.38521e-05
2.01938e-05
2.94903e-05
4.20711e-05
6.22192e-05
0.000100786
0.000160902
0.000245142
0.000343412
0.000430659
0.000479652
0.000477449
0.000469745
0.000491092
9.96381e-10
1.42475e-07
1.6849e-06
5.5198e-06
1.02986e-05
1.3823e-05
1.60941e-05
2.01386e-05
2.7845e-05
4.27891e-05
6.9798e-05
0.000114931
0.000184025
0.0002777
0.000366164
0.000411532
0.000402597
0.000360474
0.00033279
0.000344152
1.48667e-09
1.99004e-07
2.15807e-06
6.81706e-06
1.32231e-05
1.89094e-05
2.14724e-05
2.42317e-05
3.08189e-05
4.90515e-05
7.86507e-05
0.000139023
0.000214123
0.000295318
0.000349122
0.000351313
0.000300205
0.000244759
0.000215773
0.000224006
2.2184e-09
2.71821e-07
2.60372e-06
7.66422e-06
1.54849e-05
2.47508e-05
3.00467e-05
3.33443e-05
3.97533e-05
5.35281e-05
8.96168e-05
0.000157161
0.000228315
0.000293948
0.000321827
0.000296037
0.000218391
0.000159444
0.000130879
0.000134046
3.04619e-09
3.41883e-07
2.86076e-06
7.92097e-06
1.6544e-05
2.94994e-05
4.04646e-05
4.63812e-05
5.31879e-05
7.40158e-05
0.000109936
0.000171341
0.000235311
0.000284377
0.000291574
0.000245802
0.000154966
9.94926e-05
7.37013e-05
7.31301e-05
3.71915e-09
3.85245e-07
2.7792e-06
7.2729e-06
1.56441e-05
3.09628e-05
4.96997e-05
6.17234e-05
7.13828e-05
9.15974e-05
0.000129505
0.000180818
0.000234123
0.00026788
0.00026097
0.000206334
0.000118115
6.86546e-05
4.34235e-05
3.78562e-05
3.92342e-09
3.76616e-07
2.30822e-06
5.75778e-06
1.26984e-05
2.73913e-05
5.22601e-05
7.47936e-05
9.02195e-05
0.000106931
0.00014144
0.000185099
0.000228618
0.000253187
0.00024342
0.000194865
0.000119233
6.22604e-05
3.23979e-05
2.1386e-05
3.429e-09
3.02033e-07
1.54223e-06
3.72331e-06
8.40974e-06
1.92398e-05
4.23052e-05
7.49538e-05
0.000100519
0.000103819
0.000129576
0.000162478
0.000213117
0.000240835
0.000228838
0.000190726
0.000128759
6.39599e-05
2.98438e-05
1.57416e-05
2.28813e-09
1.75708e-07
7.29961e-07
1.74941e-06
4.06169e-06
9.59204e-06
2.28159e-05
5.0172e-05
8.05814e-05
8.30972e-05
9.58201e-05
0.000114585
0.000128484
0.000151182
0.000198814
0.000167856
0.000101581
4.74572e-05
2.23301e-05
1.10033e-05
9.95061e-10
5.38515e-08
1.82749e-07
4.58298e-07
1.11033e-06
2.66384e-06
6.38359e-06
1.52222e-05
2.9443e-05
4.91778e-05
7.32677e-05
8.29399e-05
8.90408e-05
0.000103863
0.000109336
8.25509e-05
4.25787e-05
2.07344e-05
1.06372e-05
5.38861e-06
2.23168e-10
3.9256e-09
1.25321e-08
3.48825e-08
8.97817e-08
2.18661e-07
5.16622e-07
1.21379e-06
2.76421e-06
5.41244e-06
9.4611e-06
1.47762e-05
1.7028e-05
1.67837e-05
1.39819e-05
8.44545e-06
4.86186e-06
2.99126e-06
1.89005e-06
1.07071e-06
2.32537e-12
2.55108e-11
8.28023e-11
2.37156e-10
6.10198e-10
1.44296e-09
3.2341e-09
7.15076e-09
1.78028e-08
4.20752e-08
8.71467e-08
1.44819e-07
1.66683e-07
1.53612e-07
1.0389e-07
6.26398e-08
4.20069e-08
2.77066e-08
2.02969e-08
8.31387e-08
0.000753061
0.0010724
0.00175728
0.00322443
0.00574756
0.00901651
0.0123282
0.0151633
0.0173695
0.0189325
0.0198022
0.0197563
0.0186037
0.01684
0.0153464
0.014856
0.015562
0.0195865
0.0271476
0.0438923
0.000806555
0.00118275
0.00196081
0.0035755
0.00624856
0.00957529
0.0128229
0.0155304
0.0176169
0.0190887
0.0198858
0.0197789
0.0185929
0.0168263
0.0153382
0.0148551
0.0155626
0.0195765
0.0267608
0.0424219
0.000895198
0.00131229
0.00214889
0.00387036
0.00665728
0.0100126
0.0131876
0.0157873
0.017788
0.0192004
0.0199494
0.0197986
0.0185869
0.0168178
0.0153331
0.0148577
0.0155662
0.0195896
0.0263982
0.0397472
0.000994699
0.00141867
0.00226648
0.00405187
0.00693147
0.0103158
0.0134336
0.0159532
0.0178997
0.0192782
0.0199963
0.0198132
0.0185824
0.0168131
0.0153306
0.0148622
0.0155693
0.0196318
0.0262295
0.0350294
0.00104501
0.00144417
0.00229472
0.00408477
0.0070434
0.0104701
0.0135583
0.0160318
0.0179562
0.0193254
0.0200296
0.0198249
0.0185803
0.0168122
0.0153302
0.0148684
0.0155698
0.0197026
0.0274255
0.0399841
0.00101468
0.00138552
0.00222078
0.00402319
0.00700916
0.0104763
0.0135691
0.016033
0.0179669
0.0193497
0.0200541
0.0198365
0.0185819
0.0168158
0.015333
0.0148767
0.0155653
0.0197093
0.0285007
0.0476064
0.000910152
0.00124954
0.00205597
0.0038514
0.00687424
0.0103825
0.0134861
0.0159726
0.0179434
0.0193583
0.0200736
0.0198495
0.0185874
0.0168234
0.015338
0.0148871
0.0155591
0.0196497
0.0281153
0.0470596
0.000759685
0.00106511
0.00182924
0.00359515
0.0066485
0.0102118
0.0133522
0.0158789
0.0178999
0.019356
0.0200897
0.0198634
0.0185955
0.0168336
0.0153443
0.0148986
0.0155542
0.0195912
0.0276236
0.0461521
0.000588841
0.000857647
0.00156694
0.00328847
0.00636354
0.00999222
0.0131867
0.0157695
0.0178506
0.0193532
0.0201068
0.0198799
0.0186066
0.016846
0.015352
0.0149111
0.0155522
0.0195437
0.0270512
0.0449247
0.000425137
0.000655548
0.00129955
0.0029602
0.00605365
0.00975636
0.0130155
0.015664
0.0178087
0.019357
0.0201294
0.0199004
0.0186205
0.0168601
0.0153611
0.0149243
0.0155541
0.0195183
0.0264043
0.0431161
0.000288227
0.000478338
0.00105162
0.00263904
0.0057461
0.00953038
0.0128616
0.015578
0.0177825
0.0193695
0.0201568
0.0199241
0.0186349
0.0168732
0.0153703
0.0149369
0.0155602
0.0195283
0.0257259
0.040357
0.00018173
0.00033354
0.000837007
0.00234674
0.00546647
0.009338
0.0127432
0.0155266
0.0177786
0.0193937
0.0201903
0.0199511
0.0186503
0.0168848
0.0153798
0.0149484
0.0155703
0.0195871
0.0251215
0.0361508
0.000106199
0.000223951
0.000663862
0.0021001
0.00523903
0.00920202
0.0126746
0.0155119
0.0177995
0.0194321
0.0202304
0.0199811
0.0186657
0.0168948
0.0153898
0.014958
0.0155832
0.0197029
0.0247913
0.0292741
5.77187e-05
0.000146922
0.000534351
0.00191033
0.00508254
0.00913468
0.0126563
0.0155305
0.0178414
0.019482
0.0202748
0.0200123
0.0186802
0.0169025
0.0153999
0.0149647
0.0155961
0.0198726
0.0258946
0.0311544
2.99311e-05
9.72245e-05
0.000446861
0.00178483
0.00501265
0.00913759
0.012683
0.01558
0.0179048
0.0195458
0.0203249
0.0200448
0.0186932
0.0169077
0.0154105
0.0149678
0.0156045
0.0200208
0.0272312
0.0343828
1.73246e-05
7.05554e-05
0.00039972
0.00172904
0.00502933
0.00919851
0.0127469
0.0156555
0.0179871
0.0196213
0.0203798
0.0200773
0.018705
0.0169107
0.0154217
0.0149668
0.0156079
0.0201273
0.0286979
0.0393849
1.06671e-05
5.88946e-05
0.00039072
0.00176753
0.00516201
0.00932972
0.0128486
0.0157559
0.0180865
0.0197067
0.0204381
0.0201094
0.0187155
0.016911
0.0154334
0.0149621
0.0156073
0.0201757
0.0300691
0.0477318
6.13375e-06
5.43352e-05
0.000419274
0.00193081
0.00547183
0.00956273
0.0130022
0.0158893
0.018207
0.0198035
0.0205002
0.0201403
0.018724
0.0169089
0.0154458
0.0149541
0.015605
0.0201611
0.0298198
0.0470149
3.18578e-06
5.40664e-05
0.000488885
0.00223559
0.00595534
0.00987702
0.0132
0.0160522
0.0183454
0.019909
0.0205642
0.020169
0.01873
0.0169039
0.015459
0.0149423
0.0156043
0.0201413
0.0294866
0.0461293
1.53208e-06
5.56236e-05
0.000604945
0.00273795
0.00659824
0.00979952
0.0134306
0.016239
0.0184973
0.0200194
0.0206281
0.0201947
0.0187332
0.0168946
0.0154717
0.014924
0.0156087
0.0200426
0.0291877
0.044659
7.79155e-07
6.4545e-05
0.000850879
0.00352627
0.00689182
0.00942379
0.0127963
0.0164277
0.0186481
0.0201246
0.0206853
0.0202123
0.018732
0.0168799
0.0154808
0.0149007
0.0156165
0.0198807
0.0286256
0.0434069
8.42024e-07
6.90437e-05
0.000906459
0.0036739
0.00673206
0.00933452
0.0122979
0.0160591
0.0187021
0.0201614
0.020699
0.0202053
0.0187145
0.016862
0.0154699
0.0148883
0.0156144
0.019852
0.0286114
0.0433521
9.69687e-07
7.75626e-05
0.000993939
0.00387702
0.00617083
0.00877431
0.0115771
0.0153711
0.0187725
0.0202021
0.0207
0.0201745
0.0186725
0.0168273
0.0154487
0.0148749
0.0156199
0.0198431
0.0286762
0.0432194
1.13969e-06
8.84346e-05
0.00110094
0.00410418
0.00572081
0.00817055
0.0107168
0.0143401
0.0183736
0.0202362
0.0206949
0.020139
0.0186285
0.0167924
0.0154272
0.0148633
0.0156261
0.0198367
0.0287517
0.0430626
1.35682e-06
0.000101785
0.00122907
0.00425069
0.00541391
0.00769201
0.00994973
0.0133332
0.0170491
0.0202584
0.0206819
0.0201
0.0185848
0.0167596
0.0154076
0.0148538
0.0156334
0.0198312
0.0288247
0.0428595
1.63132e-06
0.000118003
0.00138073
0.00419926
0.00518271
0.00729871
0.00930133
0.0123793
0.0158489
0.0202644
0.0206597
0.0200575
0.0185422
0.0167293
0.0153903
0.0148466
0.0156417
0.0198259
0.02889
0.0425993
1.97685e-06
0.000137626
0.00155839
0.00415598
0.00500514
0.00697362
0.00876045
0.0115399
0.0147139
0.0191837
0.0206268
0.0200113
0.0185009
0.0167018
0.0153753
0.0148418
0.0156509
0.0198207
0.0289448
0.0422782
2.41047e-06
0.000161316
0.00176409
0.00411778
0.00487044
0.00671312
0.0083139
0.0108345
0.01368
0.0179753
0.020582
0.0199615
0.0184613
0.0166774
0.0153627
0.0148392
0.0156609
0.0198153
0.0289882
0.0418942
2.95306e-06
0.000189865
0.00199889
0.00409413
0.00476945
0.00650995
0.00796015
0.0102502
0.0128273
0.0168546
0.0205243
0.0199079
0.0184234
0.0166561
0.0153526
0.0148389
0.0156718
0.0198099
0.029021
0.0414623
3.63001e-06
0.000224227
0.00226197
0.00409091
0.0046947
0.00635602
0.00768685
0.00978987
0.0121467
0.0158357
0.0204529
0.0198506
0.0183875
0.0166382
0.015345
0.0148406
0.0156836
0.019805
0.0290455
0.0410015
4.47207e-06
0.000265553
0.00237618
0.00410764
0.00464064
0.00624482
0.0074825
0.00944423
0.0116217
0.0150238
0.0203676
0.0197898
0.0183538
0.0166233
0.01534
0.0148443
0.0156964
0.0198008
0.0290661
0.0405288
5.5161e-06
0.000315238
0.00239785
0.00414308
0.00460347
0.00616984
0.00733865
0.00919981
0.0112523
0.01442
0.0202685
0.0197259
0.0183224
0.0166115
0.0153372
0.0148498
0.0157102
0.0197984
0.0290892
0.040072
6.80604e-06
0.000374892
0.00241024
0.00419376
0.00458146
0.00612694
0.00724783
0.00904569
0.0110142
0.0140023
0.0201562
0.0196592
0.0182932
0.0166025
0.0153363
0.0148568
0.0157253
0.0197987
0.0291235
0.0396667
8.3936e-06
0.000446411
0.00241816
0.00425578
0.00457464
0.00611388
0.00720486
0.00896995
0.0108925
0.0137752
0.0200319
0.0195904
0.0182664
0.016596
0.015337
0.0148652
0.0157418
0.0198034
0.0291794
0.0393537
1.03386e-05
0.000532303
0.00242783
0.00432607
0.00458431
0.00613023
0.00720715
0.00896461
0.0108755
0.01371
0.0198416
0.01952
0.0182419
0.0165919
0.0153389
0.0148748
0.0157602
0.0198141
0.0292691
0.0391761
1.27087e-05
0.000636006
0.00244005
0.00440557
0.00461323
0.00617849
0.00725507
0.00902534
0.0109496
0.0137919
0.0197024
0.0194488
0.0182195
0.0165897
0.0153416
0.0148853
0.0157809
0.0198329
0.0294056
0.039173
1.55767e-05
0.000762596
0.00245329
0.00450138
0.00466705
0.0062661
0.00735258
0.00915287
0.0111139
0.0140165
0.019604
0.0193774
0.018199
0.0165891
0.0153447
0.0148965
0.0158044
0.0198618
0.0296027
0.0393718
1.90167e-05
0.000920316
0.00245814
0.00462965
0.00475885
0.00641162
0.00751152
0.00935577
0.0113733
0.0143756
0.0194532
0.0193065
0.0181799
0.0165894
0.0153474
0.0149081
0.0158311
0.0199032
0.0298732
0.0398133
2.30939e-05
0.00112467
0.00244308
0.00474165
0.00482193
0.00649529
0.00760511
0.00947707
0.0115644
0.0146782
0.0193033
0.0192367
0.0181619
0.01659
0.0153492
0.0149198
0.0158615
0.0199596
0.0302302
0.0407356
2.78487e-05
0.00141167
0.00273109
0.00432508
0.00459229
0.00581828
0.00701967
0.00877719
0.0109204
0.0139288
0.0191564
0.0191683
0.0181442
0.01659
0.0153493
0.0149311
0.0158973
0.0200354
0.0306902
0.0432183
0.000207496
0.00160113
0.00241557
0.00412815
0.00547802
0.00751001
0.00951147
0.011795
0.0145707
0.0179227
0.0189858
0.0190899
0.0181234
0.0165881
0.0153471
0.0149419
0.015944
0.0201443
0.0313938
0.0461224
0.00108403
0.00169917
0.00242675
0.0036215
0.00534452
0.0077926
0.0108637
0.0135721
0.0159235
0.0177783
0.0189142
0.0190928
0.0181722
0.0166354
0.0153707
0.0149725
0.0158626
0.0201005
0.0305322
0.046551
0.00130454
0.00166696
0.00232445
0.00339631
0.00498862
0.00721889
0.0101677
0.0133617
0.0157603
0.0176749
0.018877
0.0191136
0.0182229
0.01668
0.0153939
0.0149852
0.0158362
0.020044
0.0299448
0.0471756
0.00140387
0.00179423
0.0024325
0.00347052
0.00506121
0.00733659
0.0104261
0.0131499
0.0156006
0.0175789
0.0188457
0.0191386
0.0182749
0.0167243
0.0154153
0.0149917
0.0158223
0.0199328
0.0295712
0.0478036
0.00149148
0.00185128
0.00246781
0.0035137
0.00514428
0.00755041
0.0102701
0.0129474
0.0154551
0.0174942
0.018821
0.0191665
0.0183269
0.0167672
0.0154345
0.0149955
0.0158098
0.0198335
0.0292279
0.0482878
0.00157058
0.00190834
0.00250389
0.00356937
0.00529402
0.00745865
0.0100326
0.0127648
0.01533
0.0174241
0.0188039
0.0191965
0.0183775
0.0168069
0.0154499
0.0149962
0.0157992
0.0197683
0.0287837
0.0478557
0.00160935
0.0018616
0.00237723
0.00336985
0.00497776
0.00718956
0.0098221
0.0126105
0.0152285
0.0173698
0.0187945
0.0192283
0.0184258
0.0168431
0.0154615
0.0149936
0.0157898
0.0197406
0.0282562
0.0465705
0.00142497
0.00163014
0.00209372
0.00306008
0.00468783
0.00695499
0.00964739
0.0124894
0.0151532
0.0173327
0.0187932
0.0192613
0.0184706
0.0168756
0.01547
0.0149883
0.0157792
0.0197357
0.0277821
0.0452821
0.0012859
0.00144795
0.00185627
0.00278696
0.00442746
0.00675133
0.00950804
0.0124031
0.0151064
0.0173148
0.0188023
0.0192965
0.018512
0.0169041
0.0154759
0.0149813
0.0157669
0.0197522
0.0274333
0.0441187
0.00118791
0.00131417
0.0016668
0.0025536
0.00419762
0.00657592
0.00940015
0.0123507
0.0150899
0.0173186
0.0188238
0.0193347
0.0185501
0.0169284
0.0154794
0.0149729
0.0157524
0.0197836
0.0272346
0.0431828
0.00111592
0.00122016
0.00152758
0.00236701
0.00400527
0.00643344
0.0093249
0.0123312
0.0151039
0.0173453
0.0188591
0.0193753
0.018584
0.0169481
0.0154805
0.0149634
0.015735
0.0198223
0.0272016
0.042547
0.00105256
0.00114528
0.00142149
0.0022295
0.00386529
0.00632767
0.0092843
0.0123452
0.0151475
0.0173951
0.0189078
0.0194175
0.0186135
0.0169632
0.0154794
0.014953
0.0157146
0.0198599
0.0272784
0.0421887
0.000992086
0.00108302
0.00133947
0.00212584
0.00376902
0.00627838
0.0092945
0.0123997
0.0152198
0.0174672
0.0189688
0.0194609
0.0186385
0.0169736
0.0154765
0.0149425
0.0156927
0.0198899
0.0274286
0.0421488
0.00093098
0.00102792
0.00127698
0.00205419
0.00371592
0.0062827
0.00936283
0.0125083
0.0153356
0.0175685
0.0190451
0.0195072
0.01866
0.0169803
0.0154722
0.0149321
0.0156702
0.0199067
0.027622
0.042379
0.000868828
0.000977304
0.00122978
0.00201225
0.0037098
0.00634677
0.00949541
0.0126751
0.0154962
0.0176994
0.019137
0.019558
0.0186794
0.0169838
0.0154666
0.014922
0.0156467
0.0199082
0.0278236
0.0426139
0.00080831
0.000931218
0.00119645
0.00199956
0.00375242
0.00647589
0.00969839
0.0129026
0.0157007
0.017858
0.019243
0.0196125
0.0186967
0.0169845
0.0154601
0.0149128
0.0156231
0.0198916
0.0280104
0.043064
0.000754079
0.000891216
0.00117707
0.00201787
0.00384867
0.00667524
0.009973
0.0131883
0.0159447
0.0180398
0.0193603
0.0196696
0.0187122
0.0169835
0.0154537
0.0149048
0.0156
0.0198545
0.0281509
0.0438535
0.000711112
0.000859573
0.00117313
0.00207126
0.00400649
0.00695183
0.0103204
0.0135277
0.0162215
0.0182392
0.0194857
0.0197285
0.0187266
0.0169819
0.0154482
0.0148985
0.0155788
0.0198039
0.0282082
0.0445731
0.000682235
0.000837462
0.00118688
0.0021664
0.00423851
0.00731808
0.0107448
0.0139169
0.0165244
0.018451
0.0196164
0.0197882
0.0187404
0.0169809
0.0154444
0.0148942
0.0155604
0.0197486
0.0281687
0.0450929
0.000664283
0.000820795
0.00121801
0.00230695
0.00455239
0.00777547
0.0112304
0.0143296
0.0168289
0.0186577
0.0197428
0.0198458
0.0187531
0.0169796
0.0154412
0.0148918
0.0155456
0.0196937
0.0280348
0.045245
1.69548e-05
0.000788733
0.00119987
0.00134824
0.00144946
0.00154488
0.00166834
0.00148542
0.00134575
0.00125227
0.00118461
0.00112036
0.00105234
0.000977526
0.000896252
0.000812222
0.000732237
0.000665012
0.000616813
0.000583896
9.35783e-06
0.000552061
0.00120809
0.00133209
0.00139909
0.00148422
0.00162094
0.0015512
0.00141747
0.00132477
0.00125525
0.00118558
0.00110896
0.00102238
0.00092604
0.000823604
0.000723113
0.000635591
0.000569621
0.000521918
5.42432e-06
0.000405734
0.00134726
0.00141059
0.00142684
0.0014606
0.00153764
0.00164646
0.00150044
0.00139082
0.00130941
0.00123026
0.00114525
0.00105066
0.000945819
0.000832912
0.000719564
0.000616926
0.000535308
0.000474802
2.74005e-06
0.000288932
0.00150781
0.00154002
0.00150826
0.00147777
0.00147349
0.0015114
0.00158805
0.00145446
0.00135541
0.00126722
0.00117622
0.00107704
0.000968093
0.00084978
0.000729156
0.000616167
0.000521488
0.00044916
1.36321e-06
0.000172466
0.00126984
0.00172276
0.00165778
0.00156948
0.00149396
0.00144336
0.00146177
0.00153275
0.00141397
0.00131696
0.00121814
0.00111165
0.000997862
0.000875975
0.000751217
0.000631363
0.000527411
0.00044621
7.67822e-07
9.20651e-05
0.000776333
0.00189592
0.00187889
0.00175324
0.00162068
0.00150502
0.00143771
0.00151764
0.00149421
0.00138165
0.00126267
0.00113777
0.00101312
0.000888958
0.000765383
0.000645404
0.000537279
0.000451598
4.45944e-07
4.94542e-05
0.000415793
0.00129474
0.00201362
0.00203577
0.00190161
0.0017935
0.00172922
0.00171484
0.00157021
0.00143292
0.00128601
0.00113921
0.00100085
0.000875532
0.000756161
0.00064162
0.000535048
0.000448254
2.55037e-07
2.73669e-05
0.000224357
0.000737478
0.00140075
0.00183542
0.00196974
0.0019456
0.00186214
0.00175373
0.00162693
0.00146755
0.00129245
0.0011261
0.000975714
0.000845748
0.000727782
0.000617407
0.000514594
0.000428999
1.41888e-07
1.55126e-05
0.000124999
0.000409244
0.000845979
0.0012804
0.00156515
0.0016861
0.00169826
0.00164849
0.00155838
0.00142399
0.00125667
0.00108629
0.000931138
0.000797325
0.000680431
0.000574503
0.00047744
0.000395996
7.64502e-08
8.80484e-06
7.12185e-05
0.000229487
0.000485968
0.000789547
0.00106166
0.00124936
0.00134441
0.00136329
0.00132451
0.00123948
0.00110886
0.000964334
0.000827627
0.00070704
0.000601745
0.000507084
0.000420713
0.0003475
3.95425e-08
4.8945e-06
4.12676e-05
0.000131035
0.000277287
0.000462386
0.00065261
0.000814082
0.000925604
0.000981299
0.000985549
0.000950937
0.000872875
0.000774833
0.00067457
0.000581155
0.000496485
0.000418819
0.000346959
0.000285163
1.93246e-08
2.58389e-06
2.40329e-05
7.65633e-05
0.000160751
0.000269061
0.000386748
0.000496442
0.000583506
0.000639056
0.000660597
0.000652427
0.000618057
0.000565155
0.000504312
0.000442402
0.000382066
0.000323768
0.000267967
0.000218938
8.86215e-09
1.28212e-06
1.3913e-05
4.57319e-05
9.56092e-05
0.000159225
0.000229472
0.000297624
0.000355482
0.000396929
0.000418489
0.000420287
0.000408469
0.000384107
0.000351838
0.000315111
0.00027573
0.000234701
0.000193653
0.000156922
3.86249e-09
6.03822e-07
7.89321e-06
2.78914e-05
5.87377e-05
9.71552e-05
0.000139265
0.000180701
0.000217046
0.000244485
0.000260713
0.00026547
0.000262192
0.00025162
0.000235131
0.000213716
0.000188157
0.000159596
0.000130309
0.000104169
1.60517e-09
2.63492e-07
4.22203e-06
1.70662e-05
3.71735e-05
6.15412e-05
8.76343e-05
0.000113077
0.000135512
0.00015294
0.000164104
0.00016862
0.00016803
0.000162978
0.000153286
0.000138932
0.00012061
0.000100092
7.98537e-05
6.2631e-05
6.33105e-10
1.06175e-07
1.925e-06
9.71535e-06
2.33112e-05
3.97163e-05
5.68552e-05
7.31711e-05
8.73762e-05
9.84417e-05
0.000105717
0.000108884
0.00010819
0.000103692
9.50353e-05
8.28305e-05
6.86853e-05
5.46048e-05
4.20972e-05
3.23491e-05
2.12779e-10
3.52413e-08
6.47837e-07
4.05129e-06
1.22455e-05
2.33613e-05
3.50643e-05
4.59051e-05
5.49887e-05
6.16744e-05
6.5528e-05
6.61846e-05
6.28975e-05
5.62868e-05
4.75002e-05
3.81837e-05
2.96087e-05
2.23688e-05
1.6569e-05
1.25836e-05
5.57573e-11
8.98733e-09
1.5563e-07
9.30654e-07
3.36662e-06
8.12406e-06
1.38659e-05
1.91464e-05
2.30786e-05
2.52014e-05
2.53278e-05
2.34468e-05
1.96968e-05
1.57375e-05
1.21616e-05
9.20292e-06
6.81943e-06
4.91622e-06
3.47372e-06
2.75245e-06
1.06875e-11
1.67915e-09
2.13388e-08
9.56527e-08
2.91272e-07
7.32586e-07
1.3658e-06
1.94267e-06
2.31083e-06
2.38855e-06
2.18204e-06
1.78481e-06
1.44396e-06
1.14645e-06
8.87599e-07
6.64772e-07
4.67778e-07
3.21262e-07
2.24086e-07
1.89263e-07
1.11006e-12
9.94247e-11
4.39755e-10
1.32168e-09
3.12048e-09
6.19387e-09
1.07298e-08
1.50275e-08
1.73764e-08
1.71715e-08
1.48489e-08
1.16577e-08
9.50683e-09
7.76287e-09
6.18232e-09
4.74978e-09
3.47626e-09
2.4715e-09
1.76605e-09
1.35525e-09
)
;

boundaryField
{
    right
    {
        type            cyclic;
    }
    left
    {
        type            cyclic;
    }
    outerWall
    {
        type            nutkWallFunction;
        Cmu             0.09;
        kappa           0.41;
        E               9.8;
        value           nonuniform List<scalar> 
60
(
0
0
0
0
0
6.98597e-06
0
0
0
0
0
0
0
0
0
0
0
0
0
0
0
0
0
0
0
0
0
0
0
0
0
0
0
0
0
0
0
0
0
0
0
0
0
4.06012e-05
7.93064e-05
4.94184e-05
0
0
0
0
0
0
0
0
0
0
0
0
0
0
)
;
    }
    stirrerWall
    {
        type            nutkWallFunction;
        Cmu             0.09;
        kappa           0.41;
        E               9.8;
        value           uniform 0;
    }
    top
    {
        type            empty;
    }
    bottom
    {
        type            empty;
    }
}


// ************************************************************************* //
