/*--------------------------------*- C++ -*----------------------------------*\
  =========                 |
  \\      /  F ield         | OpenFOAM: The Open Source CFD Toolbox
   \\    /   O peration     | Website:  https://openfoam.org
    \\  /    A nd           | Version:  10
     \\/     M anipulation  |
\*---------------------------------------------------------------------------*/
FoamFile
{
    format      ascii;
    class       volScalarField;
    location    "200";
    object      nut;
}
// * * * * * * * * * * * * * * * * * * * * * * * * * * * * * * * * * * * * * //

dimensions      [0 2 -1 0 0 0 0];

internalField   nonuniform List<scalar> 
420
(
3.50948e-14
4.05091e-12
8.27515e-11
5.99435e-10
2.34029e-09
5.99711e-09
1.06784e-08
1.34462e-08
1.34323e-08
1.25576e-08
2.9812e-14
3.61035e-12
6.69219e-11
4.59975e-10
1.74161e-09
4.28108e-09
7.13776e-09
8.42926e-09
8.31678e-09
8.29684e-09
2.43991e-14
3.23613e-12
5.45102e-11
3.41442e-10
1.20079e-09
2.74986e-09
4.28727e-09
5.01706e-09
5.10306e-09
5.71181e-09
1.93582e-14
2.74191e-12
4.35213e-11
2.47656e-10
7.94417e-10
1.67239e-09
2.43599e-09
2.88976e-09
3.11232e-09
4.09611e-09
1.47442e-14
2.19537e-12
3.34962e-11
1.73314e-10
5.02945e-10
9.68494e-10
1.34284e-09
1.59752e-09
1.91752e-09
3.08478e-09
1.05874e-14
1.59897e-12
2.3032e-11
1.05964e-10
2.73731e-10
4.79273e-10
6.44477e-10
8.22295e-10
1.22828e-09
2.40832e-09
7.04739e-15
9.09486e-13
1.11917e-11
4.38053e-11
1.00223e-10
1.63865e-10
2.35293e-10
3.87682e-10
8.19794e-10
1.74571e-09
3.55794e-15
3.14123e-13
2.5544e-12
8.61956e-12
1.83471e-11
3.00608e-11
5.28574e-11
1.38942e-10
3.84936e-10
8.64135e-10
9.87739e-16
2.89358e-14
1.65608e-13
5.19315e-13
1.09324e-12
1.82939e-12
3.59591e-12
1.30128e-11
6.18671e-11
2.22932e-10
1.15402e-17
2.01262e-16
1.06202e-15
3.33514e-15
7.15169e-15
1.21504e-14
2.36245e-14
9.17e-14
6.30234e-13
8.47497e-12
1.4714e-08
2.55766e-08
6.11068e-08
1.46867e-07
2.58064e-07
2.68455e-07
1.73696e-07
5.41104e-08
9.61681e-09
1.0202e-09
1.13539e-08
2.3121e-08
6.15256e-08
1.5382e-07
2.65617e-07
2.56291e-07
1.68371e-07
4.94876e-08
8.51583e-09
8.32551e-10
9.25068e-09
2.15517e-08
6.32326e-08
1.6276e-07
2.72956e-07
2.4763e-07
1.63522e-07
4.59519e-08
8.01158e-09
6.68687e-10
7.80533e-09
2.04e-08
6.58824e-08
1.72848e-07
2.78271e-07
2.43992e-07
1.58958e-07
4.35699e-08
7.74152e-09
6.11831e-10
6.67019e-09
1.93013e-08
6.89608e-08
1.83096e-07
2.68132e-07
2.44441e-07
1.54925e-07
4.23551e-08
7.71552e-09
6.25302e-10
5.58384e-09
1.79182e-08
7.17334e-08
1.83518e-07
2.42068e-07
2.49429e-07
1.53021e-07
4.21841e-08
7.84207e-09
6.49488e-10
4.04657e-09
1.5843e-08
7.39104e-08
1.90879e-07
2.42567e-07
2.51219e-07
1.53113e-07
4.29593e-08
8.07554e-09
6.81462e-10
2.3081e-09
1.3119e-08
7.5586e-08
2.03393e-07
2.51347e-07
2.51801e-07
1.54778e-07
4.44493e-08
8.4433e-09
7.23361e-10
9.41945e-10
1.04781e-08
7.81688e-08
2.07358e-07
2.61409e-07
2.52019e-07
1.57679e-07
4.64645e-08
8.9411e-09
7.81258e-10
2.46848e-10
8.79058e-09
8.44169e-08
2.1082e-07
2.72715e-07
2.5312e-07
1.61653e-07
4.91765e-08
9.19238e-09
8.67465e-10
7.30997e-11
9.30968e-09
9.97261e-08
2.0963e-07
2.6409e-07
2.54433e-07
1.65234e-07
5.22717e-08
9.55561e-09
9.78861e-10
1.8745e-10
1.44644e-08
1.17382e-07
1.83577e-07
2.33256e-07
2.54278e-07
1.56172e-07
5.23496e-08
1.04196e-08
9.34424e-10
4.5946e-09
4.72373e-08
1.22967e-07
1.81047e-07
2.36616e-07
2.52956e-07
1.53551e-07
5.21543e-08
1.03623e-08
8.52049e-10
3.53701e-08
8.28494e-08
1.23612e-07
1.87385e-07
2.53478e-07
2.55117e-07
1.66581e-07
5.55994e-08
1.08485e-08
9.00415e-10
6.61514e-08
8.4539e-08
1.18785e-07
1.81602e-07
2.54219e-07
2.57712e-07
1.75114e-07
5.93755e-08
1.17476e-08
9.4949e-10
6.68413e-08
8.04309e-08
1.10373e-07
1.68911e-07
2.49497e-07
2.60138e-07
1.84748e-07
6.34679e-08
1.25545e-08
9.96026e-10
6.03403e-08
6.97406e-08
9.59745e-08
1.57533e-07
2.45266e-07
2.62325e-07
1.89319e-07
6.741e-08
1.32832e-08
1.04306e-09
4.99499e-08
5.74753e-08
8.41483e-08
1.48651e-07
2.42036e-07
2.64024e-07
1.91879e-07
7.05824e-08
1.39701e-08
1.09987e-09
4.02174e-08
4.79195e-08
7.55707e-08
1.42646e-07
2.40295e-07
2.65414e-07
1.91139e-07
7.2007e-08
1.41353e-08
1.1853e-09
3.2131e-08
4.03103e-08
6.90521e-08
1.39218e-07
2.40997e-07
2.67502e-07
1.89208e-07
7.04168e-08
1.41491e-08
1.33591e-09
2.53641e-08
3.40771e-08
6.41781e-08
1.38238e-07
2.44364e-07
2.69632e-07
1.85829e-07
6.66077e-08
1.32331e-08
1.45362e-09
1.97204e-08
2.90082e-08
6.0962e-08
1.39726e-07
2.49755e-07
2.70842e-07
1.81085e-07
6.09426e-08
1.07606e-08
1.40597e-09
1.24752e-10
8.1258e-09
4.13063e-08
6.22071e-08
5.94272e-08
5.02369e-08
4.08801e-08
3.25166e-08
2.51627e-08
1.88633e-08
2.69791e-11
3.06886e-09
2.0859e-08
4.38356e-08
5.09542e-08
4.71686e-08
4.01285e-08
3.26786e-08
2.59206e-08
1.99883e-08
7.55418e-12
1.04446e-09
8.2943e-09
2.25789e-08
3.34607e-08
3.5798e-08
3.28714e-08
2.77276e-08
2.26936e-08
1.85615e-08
2.51253e-12
3.55667e-10
3.00901e-09
8.9131e-09
1.54326e-08
1.93975e-08
2.00521e-08
1.84438e-08
1.57548e-08
1.34143e-08
8.1718e-13
1.18772e-10
1.09742e-09
3.38902e-09
6.25308e-09
8.51263e-09
9.4771e-09
9.29887e-09
8.26899e-09
7.20177e-09
2.42106e-13
3.66612e-11
3.85014e-10
1.25707e-09
2.40078e-09
3.35986e-09
3.80977e-09
3.75679e-09
3.31566e-09
2.83384e-09
6.24487e-14
9.83029e-12
1.19304e-10
4.19197e-10
8.17466e-10
1.12938e-09
1.22833e-09
1.13327e-09
9.38457e-10
7.56823e-10
1.29344e-14
2.08425e-12
2.81925e-11
1.02407e-10
1.90041e-10
2.37319e-10
2.2581e-10
1.89374e-10
1.4668e-10
1.10857e-10
1.65999e-15
2.60497e-13
3.04383e-12
9.04248e-12
1.3949e-11
1.49436e-11
1.31687e-11
1.09234e-11
8.4139e-12
6.00389e-12
7.48958e-17
6.96778e-15
2.93277e-14
6.3366e-14
9.02469e-14
9.78675e-14
9.00695e-14
7.76713e-14
6.32426e-14
4.87336e-14
)
;

boundaryField
{
    right
    {
        type            cyclic;
    }
    left
    {
        type            cyclic;
    }
    outerWall
    {
        type            nutkWallFunction;
        Cmu             0.09;
        kappa           0.41;
        E               9.8;
        value           uniform 0;
    }
    stirrerWall
    {
        type            nutkWallFunction;
        Cmu             0.09;
        kappa           0.41;
        E               9.8;
        value           uniform 0;
    }
    top
    {
        type            empty;
    }
    bottom
    {
        type            empty;
    }
}


// ************************************************************************* //
