/*--------------------------------*- C++ -*----------------------------------*\
  =========                 |
  \\      /  F ield         | OpenFOAM: The Open Source CFD Toolbox
   \\    /   O peration     | Website:  https://openfoam.org
    \\  /    A nd           | Version:  10
     \\/     M anipulation  |
\*---------------------------------------------------------------------------*/
FoamFile
{
    format      ascii;
    class       volScalarField;
    location    "200";
    object      omega;
}
// * * * * * * * * * * * * * * * * * * * * * * * * * * * * * * * * * * * * * //

dimensions      [0 0 -1 0 0 0 0];

internalField   nonuniform List<scalar> 
2000
(
86814.7
15849
7491.31
5800.08
4721.59
3835.78
3152.1
2643.8
2270.47
1997.64
1801.25
1664.93
1575.21
1520.75
1493.64
1492.27
1520.02
1580.27
1668.33
1770.64
86817.5
15161.7
6530.24
5226.2
4578.23
3921.19
3324.94
2838.77
2461.98
2178.97
1972.81
1828.43
1731.97
1672.79
1645.54
1651.14
1692.93
1768.76
1865.99
1963.62
86819.6
15153.7
6003.11
4427.47
4196.51
3837.18
3390.31
2971.38
2621.58
2346.47
2139.66
1991.39
1891.27
1830.82
1809.57
1830.89
1894.5
1985.67
2081.22
2159.68
86821.1
15392.5
5990.92
3970.47
3650.37
3552.67
3296.41
2988.14
2699
2456.08
2265.1
2125.05
2032.93
1985.04
1985.72
2038.49
2131.34
2226.19
2296.48
2341.54
86821.9
15892.4
6209.26
3813.7
3163.49
3097.68
3022.58
2852.03
2653.84
2468.2
2314.46
2202.2
2140.93
2132.19
2183.08
2284.72
2398.34
2456.8
2474.17
2497.01
86822.2
16227.8
6347.06
3769.23
2900.5
2592.93
2599.94
2557.28
2464.54
2357.54
2265.2
2210.19
2219.09
2294.94
2432.72
2572.67
2641.4
2593.37
2596.43
2654.69
86821.8
16245.8
6294.65
3685.05
2739.98
2303.89
2173.45
2171.51
2169.43
2147.62
2135.91
2175.08
2318.98
2554.31
2753.61
2746.94
2673.04
2666.25
2745.26
2821.3
86820.7
15951.9
6065.44
3540.39
2604.78
2131.44
1890.81
1842.77
1869.59
1918.22
2001.11
2169.39
2488.26
2712.8
2719.77
2660.14
2661.04
2760.22
2884.56
2991.71
86819.1
15459.1
5756.24
3387.64
2479.13
1986.84
1719.36
1623.35
1657.56
1760.48
1946.21
2236.87
2546.59
2659.75
2597.64
2600.32
2716.61
2896.48
3056.69
3195.81
86816.8
14913.3
5479.64
3294.56
2400.37
1872.02
1586.1
1488.73
1547.74
1716.04
1986.41
2272.35
2483.76
2553.48
2578.67
2695.58
2864.52
3018.44
3202.56
3417.01
86813.9
14533.5
5348.08
3320.88
2407.63
1801.17
1484.22
1400.76
1501.03
1733.97
2018.51
2269.79
2412.81
2484.11
2567.66
2727.11
2897.87
3059.64
3333.03
3666.92
86810.3
14210
5382.1
3521.45
2544.86
1811.51
1444.41
1392.13
1518.62
1758.99
2014.89
2210.5
2332.34
2418.97
2546.03
2722.26
2869.27
3087.74
3474.87
3945.02
86806.2
13968.3
5602.03
3894.99
2842.2
1969.91
1506.86
1437.56
1545.38
1764.91
1998.41
2173.97
2272.56
2369.98
2522.39
2694.64
2797.04
3081.43
3609.97
4246.95
86801.4
13879.3
6084.33
4538
3397.07
2340.45
1677.09
1508.22
1590.82
1785.27
1983.24
2125.54
2205.36
2293.9
2427.93
2543.21
2594.83
3046.85
3782.67
4605.09
86796
14046.4
6961.95
5596.07
4345.25
3038.68
2071.98
1675.88
1673.91
1814.48
1968.18
2085.32
2147.27
2208.84
2287.04
2300.09
2353.61
3117.14
4111.62
5110.79
86790.1
14676.3
8531.78
7381.93
5987.8
4314.46
2869.23
2069.55
1892.18
1928.79
2017.99
2108.14
2157.84
2200.57
2226.89
2238.47
2507.04
3511.26
4766.16
5974.01
86783.5
16423.7
11623.7
10712.3
9149.71
7003.88
4827.56
3223.56
2644.73
2417.83
2345.45
2365.1
2411.9
2434.83
2430.01
2499.37
3257.1
4781.39
6244.31
7584.98
86776.4
22269.3
19277
18259
16341.6
13596.8
10434
7396.03
5734.3
4719.06
4072.24
3781.84
3755.31
3765.92
3850.4
4287.24
6061.87
8082.47
9315.56
10626.1
86768.7
51936.3
47876.4
43606.8
39380.3
34898.8
30114.8
25122.6
21089
18033.2
15502.4
13792.3
13113.3
12828.7
12991.3
14983.7
17055.3
17468.4
16435.7
18041.2
338081
294034
258064
228311
203421
182390
164459
149047
135704
124076
113880
104892
96926.8
89835.7
83495.2
77802.9
72673.5
68035.1
63826.9
59997.5
1870.86
1948.6
1953.89
1815.75
1542.49
1233.78
971.236
771.984
623.202
514.66
443.747
414.628
441.295
540.713
729.439
1075.63
1733.54
3167.51
6391.2
14006
2044.91
2087.16
2033.66
1820.22
1500.16
1188.06
940.59
754.961
614.173
509.912
441.493
413.953
441.676
541.817
730.856
1077.73
1736.41
3175.82
6457.5
14005.7
2212.92
2216.43
2101.23
1814.82
1456.46
1145.74
913.075
739.499
605.684
505.303
439.305
413.385
442.181
543.016
732.322
1079.98
1739.28
3180.7
6529.06
14005.5
2368.29
2333.9
2156.75
1803.72
1414.7
1108.02
888.934
725.699
597.856
500.936
437.214
412.869
442.728
544.268
733.811
1082.28
1742.23
3182.47
6613.37
16534.4
2513.57
2444.4
2203.8
1796.74
1380.56
1076.84
868.81
713.901
590.927
496.97
435.319
412.453
443.306
545.513
735.251
1084.54
1745.29
3179.23
6484
16414.3
2667.03
2558.07
2257.59
1794.09
1356.24
1053.47
853.075
704.35
585.133
493.582
433.719
412.172
443.91
546.728
736.623
1086.71
1748.47
3180.26
6326.95
14005.3
2823.85
2692.13
2335.34
1808.44
1340.94
1036.28
841.695
697.17
580.612
490.861
432.45
412.025
444.511
547.86
737.862
1088.7
1751.59
3187.61
6340.02
14005.4
3018.65
2871.87
2448.82
1844.07
1337.06
1025.26
833.37
691.739
577.168
488.818
431.487
411.974
445.059
548.854
738.922
1090.43
1754.34
3196.35
6369.56
14005.6
3257.28
3107.81
2606.85
1903.04
1344.29
1019.88
828.154
688.077
574.709
487.25
430.768
412.037
445.571
549.713
739.823
1091.92
1756.62
3205.44
6412.19
14005.8
3553.68
3417.3
2818.41
1987.55
1361.7
1019.38
825.796
686.124
573.24
486.232
430.297
412.178
446.076
550.445
740.585
1093.17
1758.38
3213.94
6468.91
14006.1
3917.33
3812.81
3089.77
2097.37
1387.82
1022.78
825.792
685.613
572.606
485.698
430.025
412.324
446.504
551.059
741.197
1094.15
1759.59
3220.8
6541.7
14006.5
4354.17
4308.87
3425.54
2230.4
1420.3
1028.95
827.639
686.311
572.703
485.621
429.968
412.504
446.873
551.605
741.712
1094.92
1760.29
3224.92
6634.15
14006.9
4877.43
4924.05
3827.27
2381.93
1455.95
1036.58
830.819
687.947
573.408
485.953
430.136
412.742
447.209
552.087
742.188
1095.5
1760.59
3224.97
6751.51
16484.8
5521.45
5682.59
4290.09
2542.51
1489.65
1043.86
834.585
690.134
574.508
486.558
430.468
413.021
447.531
552.502
742.656
1095.9
1760.54
3218.9
6682.74
16539.8
6362.06
6617.79
4801.73
2698.62
1516.1
1050.19
838.738
692.714
575.896
487.358
430.933
413.353
447.876
552.888
743.142
1096.13
1760.02
3212.4
6578.63
16546.1
7569.34
7769.24
5338.28
2831.08
1531.68
1054.87
842.649
695.2
577.248
488.168
431.429
413.735
448.248
553.242
743.691
1096.23
1759.07
3207.16
6439.06
16470.8
9726.32
9289.14
5839.58
2891.33
1526.92
1055.3
845.402
697.154
578.344
488.87
431.888
414.127
448.647
553.614
744.328
1096.2
1757.69
3205.08
6257
14010.3
13924.4
11341.8
6186.74
2826.87
1485.58
1047.55
845.682
697.869
578.757
489.233
432.2
414.486
449.095
554.041
745.062
1095.99
1755.86
3209.32
6238.74
14011.1
22710.7
13866.4
6266.79
2640.83
1414.29
1033.4
843.572
697.16
578.339
489.172
432.339
414.799
449.589
554.525
745.882
1095.04
1753.63
3214.87
6223.64
14012.1
40904.2
16971.5
6061.21
2342.77
1325.27
1015.32
839.197
694.836
576.983
488.615
432.281
415.066
450.139
555.062
746.745
1092.92
1751.55
3209.77
6218.3
14013.1
85702.6
19909.2
5210.74
1957.24
1234.36
995.217
832.049
690.389
574.409
487.397
431.921
415.214
450.769
555.728
747.851
1091.08
1750.01
3194.91
6174.08
14005.5
85639
19910.9
5042.82
1900.6
1222.84
990.748
829.003
688.153
573.014
486.608
431.54
415.104
450.868
555.866
748.239
1090.91
1750.45
3192.85
6174.23
13999.8
85582.4
19506
4802.28
1834.6
1209.73
984.308
824.009
684.403
570.619
485.248
430.892
414.954
451.082
556.239
748.964
1091.28
1751.73
3192.07
6177.87
13994.6
85533
18952.4
4534.37
1766.58
1195.92
977.239
818.481
680.269
567.961
483.751
430.196
414.815
451.338
556.685
749.739
1091.79
1753.05
3191.27
6181.66
13990.2
85490.7
18313
4250.43
1698.24
1181.56
969.785
812.669
675.951
565.174
482.18
429.489
414.692
451.624
557.174
750.549
1092.36
1754.32
3190.15
6184.59
13986.4
85455.4
17604.3
3957.82
1631.16
1167.06
962.152
806.737
671.545
562.324
480.572
428.78
414.589
451.934
557.694
751.377
1092.96
1755.49
3188.59
6186.32
13983.2
85427.3
16830.6
3662.91
1566.76
1152.75
954.535
800.841
667.151
559.469
478.962
428.08
414.504
452.262
558.236
752.206
1093.59
1756.56
3186.5
6186.8
13980.6
85406.1
15994
3371.81
1506.21
1138.97
947.128
795.119
662.889
556.664
477.38
427.401
414.438
452.601
558.793
753.025
1094.22
1757.48
3183.84
6186.13
13978.7
85392
15097.9
3090.31
1450.61
1126.04
940.136
789.722
658.862
553.982
475.862
426.757
414.392
452.945
559.351
753.826
1094.84
1758.26
3180.6
6184.57
13977.4
85385
14146.8
2823.85
1400.92
1114.22
933.764
784.8
655.173
551.505
474.439
426.161
414.365
453.289
559.9
754.604
1095.42
1758.88
3176.77
6182.53
13976.8
85385
13147
2577.2
1357.83
1103.66
928.214
780.504
651.926
549.293
473.15
425.628
414.355
453.622
560.425
755.338
1095.95
1759.34
3172.37
6180.59
13976.8
85392
12107.2
2354.66
1321.26
1094.55
923.664
776.98
649.219
547.409
472.037
425.174
414.364
453.936
560.913
756.003
1096.41
1759.62
3167.48
6179.5
13977.4
85406.1
11039.5
2157.55
1290.93
1087.08
920.254
774.361
647.142
545.912
471.133
424.811
414.391
454.224
561.353
756.582
1096.8
1759.74
3162.19
6180.16
13978.7
85427.3
9957.86
1985.51
1266.63
1081.38
918.144
772.756
645.778
544.854
470.47
424.552
414.436
454.478
561.733
757.06
1097.09
1759.71
3156.68
6183.6
13980.6
85455.4
8874.61
1839.08
1247.99
1077.57
917.48
772.245
645.194
544.278
470.075
424.407
414.499
454.691
562.043
757.422
1097.28
1759.53
3151.11
6190.96
13983.2
85490.7
7800.36
1717.88
1234.52
1075.7
918.361
772.901
645.443
544.218
469.967
424.385
414.579
454.857
562.271
757.663
1097.36
1759.25
3145.69
6203.38
13986.4
85533
6743.53
1620.46
1225.62
1075.8
920.848
774.779
646.551
544.696
470.159
424.493
414.676
454.971
562.404
757.776
1097.34
1758.89
3140.61
6221.98
13990.2
85582.4
5709.53
1544.5
1220.71
1077.87
924.959
777.909
648.526
545.726
470.659
424.734
414.79
455.028
562.434
757.754
1097.2
1758.47
3136.05
6247.6
13994.6
85639
4697.88
1487.2
1219.21
1081.87
930.678
782.282
651.368
547.306
471.469
425.111
414.917
455.024
562.358
757.594
1096.97
1758.02
3132.2
6280.85
13999.8
85702.6
3695.85
1445.96
1220.55
1087.67
937.874
787.81
655.022
549.409
472.573
425.62
415.058
454.959
562.175
757.301
1096.66
1757.67
3129.39
6322.74
14005.5
14565
2482.95
1415.05
1224.28
1095.47
946.747
794.696
659.66
552.16
474.05
426.301
415.196
454.781
561.767
756.738
1096.05
1757.12
3126.61
6377.58
14013.1
2441.64
1523.42
1332.95
1230.55
1111.81
963.366
806.472
666.915
556.452
476.393
427.324
415.136
453.886
560.701
754.057
1096.83
1741.14
3123.18
6309.44
14012.1
1469.51
1363.41
1303.36
1235.82
1130.08
982.79
821.356
676.747
562.438
479.725
428.836
415.219
452.861
559.016
751.714
1094.7
1733.8
3120.33
6263.16
14011.1
1312.39
1298.48
1283.28
1241.98
1149.03
1003.08
837.122
687.3
568.909
483.352
430.467
415.28
451.708
557.104
749.332
1091.82
1728.37
3109.04
6250.56
14010.3
1245.52
1264.48
1275.71
1254.49
1172.22
1026.31
854.822
698.979
576.008
487.329
432.24
415.327
450.431
555.022
746.76
1088.88
1723.08
3096.85
6249.03
14009.5
1205.22
1243.94
1275.09
1271.57
1199.02
1052.32
874.246
711.61
583.654
491.616
434.154
415.384
449.086
552.834
744.06
1085.96
1718.26
3081.21
6226.08
14008.7
1179.26
1232.09
1279.51
1291.98
1228.7
1080.45
894.891
724.956
591.719
496.14
436.189
415.465
447.731
550.617
741.325
1083.15
1714.39
3063.95
6177.79
14008.1
1163.31
1226.3
1287.03
1314.27
1260.1
1109.88
916.333
738.761
600.053
500.83
438.324
415.574
446.421
548.44
738.653
1080.54
1711.66
3050.06
6127.08
14007.5
1155.53
1225.49
1297.35
1339.04
1294.03
1141.02
938.462
752.768
608.476
505.603
440.507
415.729
445.182
546.367
736.124
1078.18
1710.12
3041.28
6081.45
14006.9
1156.06
1230.71
1311.6
1366.33
1330.14
1173.78
961.26
766.81
616.783
510.301
442.64
415.928
444.068
544.459
733.798
1076.1
1709.67
3037.88
6046.05
14006.5
1164.48
1241.88
1329.21
1394.35
1366.23
1206.57
983.928
780.552
624.783
514.789
444.643
416.151
443.107
542.767
731.733
1074.33
1710.1
3039.83
6026.45
14006.1
1178.52
1257.85
1350.73
1423.61
1400.37
1237.72
1005.43
793.479
632.229
518.897
446.466
416.409
442.327
541.336
729.978
1072.87
1711.19
3046.49
6019.2
14005.8
1198.42
1279.07
1376.61
1455.13
1433.54
1265.36
1024.03
804.739
638.877
522.51
448.077
416.711
441.752
540.205
728.582
1071.77
1712.87
3056.86
6024.12
14005.6
1224.98
1306.81
1408.58
1489.96
1465.85
1289.44
1039.09
813.581
644.035
525.304
449.323
416.977
441.355
539.371
727.551
1070.98
1715.06
3069.92
6041.74
14005.4
1259.18
1342.76
1448.48
1529.22
1497.05
1308.92
1049.73
819.48
647.466
527.159
450.131
417.128
441.073
538.805
726.856
1070.54
1717.49
3084.84
6071.8
14005.3
1303.66
1389.84
1498.47
1573.68
1526.41
1322.65
1055.03
821.946
648.962
527.977
450.45
417.136
440.895
538.503
726.498
1070.48
1720.08
3100.6
6112.81
14005.3
1362.48
1451.75
1561.23
1623.88
1552.55
1329.05
1054.17
820.65
648.402
527.717
450.247
416.98
440.807
538.46
726.473
1070.77
1722.68
3116.07
6161.13
14005.4
1441.14
1533.42
1639.89
1679.65
1573.31
1326.65
1046.71
815.574
645.823
526.395
449.539
416.675
440.812
538.661
726.752
1071.37
1725.1
3130.45
6215.26
14005.5
1545.49
1640.7
1735.86
1737.85
1584.98
1313.91
1032.6
806.924
641.37
524.101
448.379
416.24
440.903
539.092
727.302
1072.27
1727.29
3142.94
6268.9
14005.7
1675.4
1776.24
1844.18
1788.97
1578.91
1285.54
1009.37
793.721
634.624
520.625
446.673
415.644
441.051
539.707
728.069
1073.45
1729.57
3153.59
6320.8
14006
59997.5
5306.56
1713.68
1343.8
1233.48
1170.79
1129.48
1102.42
1087.13
1082.5
1087.68
1099.67
1117.87
1142.33
1173.84
1214.58
1268.21
1340.97
1440.3
1566.98
63826.9
6828.96
1950.53
1385.55
1232.39
1147.22
1089.76
1050.76
1027.32
1018.28
1021.75
1033.58
1052.38
1077.08
1107.76
1146
1195.69
1263.25
1355.54
1472.87
68035.1
8155.49
2194.22
1438.44
1245.36
1141.05
1069.12
1019.26
988.248
975.189
978.535
992.393
1013.89
1040.79
1071.99
1108.01
1152.57
1212
1293.97
1400.83
72673.5
9618.65
2498.44
1508.2
1271.23
1152.11
1070.03
1012.15
975.031
958.237
961.526
978.856
1005.14
1036.61
1070.52
1105.77
1145.45
1195.33
1264.01
1358.04
77802.9
12294.9
2989.28
1611.52
1308.37
1174.92
1086.06
1022.78
980.967
960.629
963.352
984.671
1016.48
1053.45
1092.37
1130.45
1168.42
1210.83
1266.81
1346.77
83495.2
16045.6
4223.92
1834.27
1372.62
1207.39
1109.24
1041.11
995.499
971.679
973.392
997.255
1033.1
1074.55
1119.58
1165.03
1207.18
1248.77
1296.4
1362.88
89835.7
19793.7
6218.86
2549.63
1584.94
1284.27
1145.82
1063.38
1006.53
970.87
965.299
996.01
1043.4
1093.8
1147.91
1203.66
1253.99
1301.07
1348.02
1405.22
96926.8
22928.9
8490.07
3742.44
2104.23
1510.4
1261.12
1133.37
1055.58
1007.06
988.593
1015.62
1071.05
1129.8
1192.8
1255.56
1312.35
1365.19
1417.28
1474.16
104892
25271.1
10648.3
5248.24
2984.58
1996.02
1539.43
1309.55
1183.15
1112.69
1082.44
1093.53
1139.5
1198.56
1263.5
1327.9
1387.95
1445.14
1504.48
1568.7
113880
26966.4
12484.3
6839.17
4137.06
2772.32
2057.93
1669.86
1451.68
1329.34
1268.02
1251.88
1278.8
1326.96
1383.88
1442.18
1499.58
1558.24
1624.65
1700.15
124076
28138.7
13853.8
8289.76
5395.03
3763.29
2813.68
2249.61
1909.93
1706.88
1591.62
1531.65
1523.99
1545.06
1580.39
1622.28
1668.84
1724.29
1796.24
1885.12
135704
29082.6
14696.1
9400.82
6539.73
4802.49
3703.19
2996.39
2538.89
2244.4
2059.59
1948.04
1888.22
1864.86
1863.73
1877.37
1905.01
1953.86
2032.57
2139.6
149047
29958.2
14947.1
10036.6
7385.61
5697.97
4561.72
3781.34
3241.85
2869.77
2618.18
2452.78
2336.97
2261.89
2216.42
2196.25
2205.15
2252.75
2347.78
2485.13
164459
30983.2
14578.1
10085.3
7791.77
6289.41
5224.96
4451.23
3884.49
3472.43
3176.19
2964.28
2803.34
2683.69
2601.03
2558.69
2567.62
2638.13
2774.46
2961.07
182390
32803.8
13892.4
9553.01
7677.57
6467.7
5571.99
4883.23
4354.57
3949.77
3640.59
3405.68
3221.26
3080.91
2992.8
2971.26
3029.53
3171.89
3387.05
3637.3
203421
35766.6
13704.7
8768.75
7118.45
6207.19
5540.1
5006.46
4573.45
4224.13
3945.5
3726.6
3563.08
3467.11
3459.98
3556.04
3751.06
4025.95
4339
4619.2
228311
40314.2
15080.3
8743.09
6663.74
5792.18
5283.11
4910.73
4613.71
4374.34
4188.76
4063.25
4045.66
4162.69
4410.75
4758.77
5160.03
5566.49
5910.69
6049.91
258064
46395.6
18295.2
11122.1
8191.8
6747.13
6091.31
5766.24
5598.12
5529.98
5550.43
5684.56
6084.14
6628.79
7223.5
7774.27
8252.46
8650.1
8893.99
8488.94
294034
53644.7
26874.7
20940
18027.9
15843.5
14806.1
14474.5
14414.5
14524.9
14765.4
15118.7
15612.4
16165.8
16679
17107.1
17600
18150.3
18422.1
17129.5
338081
86768.7
86776.4
86783.5
86790.1
86796
86801.4
86806.2
86810.3
86813.9
86816.8
86819.1
86820.7
86821.8
86822.2
86821.9
86821.1
86819.6
86817.5
86814.7
)
;

boundaryField
{
    right
    {
        type            cyclic;
    }
    left
    {
        type            cyclic;
    }
    outerWall
    {
        beta1           0.075;
        blended         0;
        type            omegaWallFunction;
        value           nonuniform List<scalar> 
60
(
14006
14005.7
14005.5
16534.4
16414.3
14005.3
14005.4
14005.6
14005.8
14006.1
14006.5
14006.9
16484.8
16539.8
16546.1
16470.8
14010.3
14011.1
14012.1
14013.1
14005.5
13999.8
13994.6
13990.2
13986.4
13983.2
13980.6
13978.7
13977.4
13976.8
13976.8
13977.4
13978.7
13980.6
13983.2
13986.4
13990.2
13994.6
13999.8
14005.5
14013.1
14012.1
14011.1
14010.3
14009.5
14008.7
14008.1
14007.5
14006.9
14006.5
14006.1
14005.8
14005.6
14005.4
14005.3
14005.3
14005.4
14005.5
14005.7
14006
)
;
    }
    stirrerWall
    {
        beta1           0.075;
        blended         0;
        type            omegaWallFunction;
        value           nonuniform List<scalar> 
100
(
86814.7
86817.5
86819.6
86821.1
86821.9
86822.2
86821.8
86820.7
86819.1
86816.8
86813.9
86810.3
86806.2
86801.4
86796
86790.1
86783.5
86776.4
86768.7
338081
338081
294034
258064
228311
203421
182390
164459
149047
135704
124076
113880
104892
96926.8
89835.7
83495.2
77802.9
72673.5
68035.1
63826.9
59997.5
85702.6
85639
85582.4
85533
85490.7
85455.4
85427.3
85406.1
85392
85385
85385
85392
85406.1
85427.3
85455.4
85490.7
85533
85582.4
85639
85702.6
59997.5
63826.9
68035.1
72673.5
77802.9
83495.2
89835.7
96926.8
104892
113880
124076
135704
149047
164459
182390
203421
228311
258064
294034
338081
338081
86768.7
86776.4
86783.5
86790.1
86796
86801.4
86806.2
86810.3
86813.9
86816.8
86819.1
86820.7
86821.8
86822.2
86821.9
86821.1
86819.6
86817.5
86814.7
)
;
    }
    top
    {
        type            empty;
    }
    bottom
    {
        type            empty;
    }
}


// ************************************************************************* //
