/*--------------------------------*- C++ -*----------------------------------*\
  =========                 |
  \\      /  F ield         | OpenFOAM: The Open Source CFD Toolbox
   \\    /   O peration     | Website:  https://openfoam.org
    \\  /    A nd           | Version:  10
     \\/     M anipulation  |
\*---------------------------------------------------------------------------*/
FoamFile
{
    format      ascii;
    class       volScalarField;
    location    "200";
    object      omega;
}
// * * * * * * * * * * * * * * * * * * * * * * * * * * * * * * * * * * * * * //

dimensions      [0 0 -1 0 0 0 0];

internalField   nonuniform List<scalar> 
420
(
21252.7
4984.14
1828.98
902.374
552.982
399.069
331.521
313.676
328.066
366.501
21253.7
4608.65
1792.28
924.651
575.603
417.675
349.287
332.391
351.005
400.156
21254.2
4242.65
1707.09
931.749
603.665
447.713
378.012
361.967
388.831
453.224
21254
3993.28
1613.54
921.234
624.935
479.338
414.559
404.611
446.719
534.162
21253.2
3803.42
1525.72
905.228
644.403
515.498
462.479
467.617
534.511
657.63
21251.7
3686.04
1500.79
943.949
713.479
599.295
557.467
575.591
673.769
851.401
21249.7
3865.39
1751.86
1223.09
986.372
853.801
785.305
783.443
917.624
1178.92
21247.1
4886.68
2967.31
2304.31
1915.45
1641.83
1425.48
1298.99
1423.77
1843.4
21243.8
10758
8289.41
6726.67
5586.05
4718.94
4030.68
3502.68
3212.36
3719.29
78643.9
60596.7
48114.3
39124.4
32436.5
27327.1
23335.9
20159.1
17589.3
15481.3
424.638
484.207
477.524
397.05
325.054
294.726
340.074
487.379
1287.53
3581.27
473.12
535.209
504.439
400.083
321.919
294.04
345.454
501.096
1340.94
3581.17
545.338
602.232
531.422
399.446
317.35
292.63
350.737
513.175
1377.31
3581.13
649.489
686.036
555.285
394.413
312.042
291.089
355.256
525.349
1403.67
3581.18
800.789
789.359
574.76
385.815
306.788
289.677
358.907
537.713
1416.39
3581.3
1027.26
917.476
590.475
375.366
301.836
288.594
360.397
545.8
1410.43
3581.49
1399.72
1087.56
604.005
366.261
298.058
287
359.693
546.93
1394.51
3581.76
2085.45
1330.79
616.908
357.965
295.337
285.017
357.239
542.987
1370.69
3582.1
3596.7
1684.6
623.249
350.364
293.797
282.929
353.563
535.846
1340.05
3582.51
7598.66
2157.74
607.47
342.977
293.5
281.073
349.229
524.968
1299.38
3582.99
21359.1
2553.42
543.754
335.733
294.519
279.861
346.305
514.253
1236.39
3575.63
21359.1
2042.32
468.045
331.855
295.384
279.012
344.325
520.263
1249.32
3575.63
3334.54
783.142
393.125
328.526
295.409
278.104
341.568
526.195
1276.33
3582.99
789.917
435.366
362.837
328.9
296.636
275.996
333.713
509.36
1234.41
3582.51
418.909
374.32
360.491
333.084
299.554
275.439
326.505
492.734
1194.01
3582.1
359.425
366.263
365.554
338.905
303.072
275.848
319.926
474.791
1156.47
3581.76
349.02
369.51
374.118
346.303
307.355
277.685
315.277
457.962
1121.88
3581.49
348.799
376.855
385.066
354.859
312.131
280.982
313.34
444.944
1093.54
3581.3
352.942
387.046
397.697
364.183
317.18
285.447
315.367
440.44
1076.98
3581.18
360.311
400.383
413.175
374.431
322.239
289.778
319.701
445.68
1092.5
3581.13
372.026
419.874
432.911
385.151
326.082
292.947
325.631
455.085
1134.52
3581.17
391.128
446.914
455.96
394.749
327.68
294.303
331.662
467.176
1217.09
3581.27
15481.3
1946.77
574.346
373.847
334.393
323.699
321.937
325.044
331.621
343.112
17589.3
2682.49
797.411
429.423
337.998
308.513
298.624
299.237
303.673
311.621
20159.1
3584.35
1195.43
588.515
400.984
332.795
305.239
299.223
300.073
303.429
23335.9
4470.4
1705.22
884.705
572.359
436.26
371.821
343.338
333.635
328.543
27327.1
5290.54
2170.21
1204.68
796.497
596.791
491.974
437.678
414.681
401.747
32436.5
6158.7
2564.67
1480.55
1012
772.583
643.016
579.247
558.639
550.954
39124.4
7244.1
2954.15
1730.18
1223.77
976.106
856.514
825.563
846.388
874.514
48114.3
8754.97
3511.14
2143.51
1652.17
1463.31
1431.71
1496.28
1609.71
1725.68
60596.7
11199.5
5308.83
4084.84
3779.62
3769.68
3875.21
4019.16
4234.98
4568.49
78643.9
21243.8
21247.1
21249.7
21251.7
21253.2
21254
21254.2
21253.7
21252.7
)
;

boundaryField
{
    right
    {
        type            cyclic;
    }
    left
    {
        type            cyclic;
    }
    outerWall
    {
        beta1           0.075;
        blended         0;
        type            omegaWallFunction;
        value           nonuniform List<scalar> 
22
(
3581.27
3581.17
3581.13
3581.18
3581.3
3581.49
3581.76
3582.1
3582.51
3582.99
3575.63
3575.63
3582.99
3582.51
3582.1
3581.76
3581.49
3581.3
3581.18
3581.13
3581.17
3581.27
)
;
    }
    stirrerWall
    {
        beta1           0.075;
        blended         0;
        type            omegaWallFunction;
        value           nonuniform List<scalar> 
42
(
21252.7
21253.7
21254.2
21254
21253.2
21251.7
21249.7
21247.1
21243.8
78643.9
78643.9
60596.7
48114.3
39124.4
32436.5
27327.1
23335.9
20159.1
17589.3
15481.3
21359.1
21359.1
15481.3
17589.3
20159.1
23335.9
27327.1
32436.5
39124.4
48114.3
60596.7
78643.9
78643.9
21243.8
21247.1
21249.7
21251.7
21253.2
21254
21254.2
21253.7
21252.7
)
;
    }
    top
    {
        type            empty;
    }
    bottom
    {
        type            empty;
    }
}


// ************************************************************************* //
