/*--------------------------------*- C++ -*----------------------------------*\
  =========                 |
  \\      /  F ield         | OpenFOAM: The Open Source CFD Toolbox
   \\    /   O peration     | Website:  https://openfoam.org
    \\  /    A nd           | Version:  10
     \\/     M anipulation  |
\*---------------------------------------------------------------------------*/
FoamFile
{
    format      ascii;
    class       volScalarField;
    location    "200";
    object      p;
}
// * * * * * * * * * * * * * * * * * * * * * * * * * * * * * * * * * * * * * //

dimensions      [0 2 -2 0 0 0 0];

internalField   nonuniform List<scalar> 
2000
(
0.228912
153.598
307.455
497.45
716.365
954.008
1205.63
1467.45
1735.44
2006.44
2278.67
2549.99
2818.99
3085.75
3350.09
3610.59
3864.76
4108.13
4339.68
4562.93
4.23108
152.71
298.059
479.783
689.88
919.692
1165.52
1423.84
1690.92
1962.85
2236.9
2510.98
2783.32
3054.11
3322.48
3584.46
3837.59
4080.55
4313.63
4540.32
8.14651
154.009
291.963
465.245
665.908
886.454
1124.44
1377.22
1641.17
1912.7
2188
2464.42
2740.01
3015.09
3287.33
3550.34
3803.49
4048.43
4285.8
4517.83
11.0517
155.126
286.429
450.844
641.868
852.846
1081.88
1327.54
1586.94
1856.54
2132.28
2410.77
2689.89
2969.66
3245.15
3509.21
3764.21
4013.55
4257.33
4496.18
12.9201
155.306
280.714
435.863
616.751
817.855
1037.6
1275.27
1528.97
1795.43
2070.65
2350.83
2634.1
2918.47
3196.13
3462.3
3721.61
3977.47
4229.67
4476.62
14.1159
154.573
274.645
420.709
591.103
782.253
992.863
1222.22
1469.36
1731.72
2005.5
2287.15
2574.9
2863.3
3142.75
3412.6
3678.83
3943.43
4204.83
4459.45
15.0419
153.498
268.462
405.938
565.97
747.613
949.763
1171.17
1411.53
1669.16
1941.01
2224.22
2515.45
2806.46
3088.77
3365.28
3640.64
3913.62
4182.97
4444.42
16.0239
152.418
262.35
391.788
542.021
714.918
909.732
1124.39
1358.52
1611.54
1881.45
2165.53
2458.64
2751.92
3038.68
3323.07
3607.49
3888.77
4165.88
4433.2
17.3359
151.484
256.427
378.663
519.968
685.047
873.777
1083.3
1312.31
1561.41
1829.45
2113.23
2407.15
2702.94
2995.06
3288.31
3582.68
3872.3
4154.84
4425.25
19.2968
151.131
251.119
367.053
501.026
659.607
843.519
1049.28
1274.44
1520.33
1786.4
2069.17
2363.81
2663.2
2962.89
3265.85
3568.23
3862.79
4147.73
4419.62
22.2086
152.113
247.65
358.338
487.041
640.941
821.229
1024.01
1246.43
1489.79
1754.22
2036.71
2333.81
2638.71
2945.61
3255.08
3562.14
3859.94
4146.39
4418.24
26.2791
155.215
247.892
355.326
480.682
631.733
809.164
1009.37
1230.08
1471.7
1735.54
2019.55
2319.94
2629.19
2940.71
3254.13
3563.92
3863.29
4149.11
4419.09
31.4149
161.052
253.798
360.938
485.387
635.648
810.963
1008.97
1228.52
1469.23
1733.62
2019.9
2323.78
2636.22
2948.74
3260.27
3568.41
3867.33
4152.65
4422.03
37.3079
169.794
266.22
376.372
503.28
655.336
830.143
1026.37
1244.52
1484.99
1751.18
2040.38
2345.43
2655.69
2962.74
3267.93
3573.9
3873.37
4158.8
4427.72
43.5021
180.836
284.422
401.338
533.815
689.179
865.864
1061.45
1278.64
1520.66
1789.64
2080.53
2383.18
2686.69
2984.24
3280.07
3581.33
3879.99
4164.34
4433.25
49.1046
192.785
306.268
432.85
574.312
735.298
915.826
1113.43
1332.77
1578.59
1849.71
2138.68
2434.02
2725.59
3009.44
3291.91
3584.16
3881.27
4169.38
4442.34
53.05
204.023
328.901
466.332
618.849
788.947
977.006
1181.16
1406.8
1657.6
1927.23
2208.83
2492.25
2769.13
3038.61
3307.37
3586.67
3878.54
4170.77
4451.92
54.4469
213.308
349.414
497.26
660.394
840.656
1038.12
1251.97
1485.08
1738.91
2001.84
2269.03
2536.01
2798.37
3056.07
3314.68
3581.82
3864.37
4157.19
4447.86
53.1538
220.276
365.122
521.288
693.135
881.937
1086.86
1307.24
1543.27
1794.09
2049.13
2302.23
2552.52
2799.43
3043.75
3291.17
3548.2
3819.54
4108.38
4409.48
51.159
226.685
375.028
535.627
712.389
906.311
1116.35
1341.05
1578.21
1824.82
2073.77
2315.95
2550.7
2782.41
3014.82
3253.18
3503.81
3769.7
4053.07
4354.5
4782.99
5006.53
5235.93
5467
5694.17
5915.87
6136.2
6360.69
6593.73
6838.97
7099.96
7380.43
7684.72
8018.52
8386.9
8804.99
9260.53
9826.09
10317.1
11366.8
4765.17
4994.16
5228.74
5463.48
5692.48
5914.95
6135.69
6360.37
6593.39
6838.52
7099.4
7379.84
7684.19
8018.01
8386.53
8804.53
9260.53
9826.7
10319.8
11365.5
4748.4
4982.99
5222.04
5459.32
5689.27
5912.19
6133.45
6358.59
6591.93
6837.26
7098.28
7378.86
7683.39
8017.32
8386.07
8804.19
9260.28
9827.86
10322
11363.8
4733.24
4973.12
5215.57
5454.26
5684.44
5907.56
6129.41
6355.27
6589.25
6835.11
7096.54
7377.48
7682.32
8016.47
8385.55
8803.81
9260.15
9828.37
10323.7
11362.6
4720.06
4964.38
5209.26
5448.45
5678.35
5901.6
6124.19
6350.97
6585.79
6832.36
7094.39
7375.83
7681.07
8015.52
8384.98
8803.44
9260.24
9829.17
10325
11361.6
4708.42
4956.37
5202.87
5441.98
5671.38
5894.78
6118.2
6345.98
6581.72
6829.12
7091.83
7373.86
7679.53
8014.36
8384.31
8803.03
9260.42
9830.45
10326.1
11361.3
4698.33
4949.04
5196.33
5434.87
5663.66
5887.27
6111.58
6340.41
6577.17
6825.49
7088.95
7371.65
7677.81
8013.1
8383.58
8802.55
9260.74
9832.05
10327.1
11360.9
4690.29
4942.21
5189.52
5427.18
5655.4
5879.38
6104.66
6334.61
6572.42
6821.72
7085.98
7369.42
7676.1
8011.92
8382.83
8801.98
9261.08
9833.26
10327.5
11360.1
4683.55
4935.78
5182.75
5419.35
5647.07
5871.56
6097.85
6328.94
6567.82
6818.08
7083.13
7367.32
7674.45
8010.8
8382.02
8801.24
9261.18
9833.38
10326.7
11358.4
4678.44
4930.52
5176.7
5411.95
5639.19
5864.26
6091.55
6323.76
6563.64
6814.82
7080.61
7365.49
7672.97
8009.79
8381.14
8800.34
9260.94
9832.15
10324.6
11355.8
4675.79
4926.53
5171.49
5405.29
5632.18
5857.9
6086.12
6319.37
6560.18
6812.2
7078.63
7364.1
7671.79
8009.03
8380.32
8799.42
9260.5
9829.96
10322.6
11353.4
4674.9
4924.45
5167.87
5399.94
5626.44
5852.84
6081.83
6315.92
6557.5
6810.29
7077.29
7363.25
7671
8008.66
8379.66
8798.66
9260.17
9827.67
10322.4
11351.3
4677.17
4925.44
5166.23
5396.22
5622.28
5849.42
6079.06
6313.87
6556.03
6809.39
7076.75
7363.06
7670.74
8008.82
8379.3
8798.28
9260.21
9825.74
10323.6
11348.9
4682.17
4928.81
5166.36
5394.53
5620.15
5847.94
6077.93
6313.28
6555.86
6809.59
7077.12
7363.62
7671.11
8009.62
8379.33
8798.52
9260.85
9824
10325.9
11346.1
4689.46
4935.27
5169.04
5395.63
5620.24
5848.32
6078.36
6314.05
6556.82
6810.76
7078.29
7364.85
7672.05
8010.96
8379.6
8799.44
9262.11
9822.45
10329.6
11342.5
4702.56
4945.79
5174
5399.32
5622.24
5850.31
6080.16
6315.98
6558.72
6812.67
7080.04
7366.54
7673.38
8012.57
8379.77
8800.78
9263.07
9819.77
10334.1
11338.8
4719.19
4957.36
5177.75
5403.18
5624.75
5853.09
6082.86
6318.81
6561.39
6815.21
7082.3
7368.7
7675.15
8014.54
8380.14
8802.75
9262.44
9814.12
10339
11335
4728.12
4962.87
5176.42
5405.23
5627.33
5856.63
6086.57
6322.74
6565.13
6818.76
7085.56
7371.83
7678.06
8017.77
8382.57
8806.83
9261.94
9808.29
10350.3
11322.8
4717.22
4960.28
5173.39
5406.53
5630.71
5861.08
6091.44
6327.84
6570.18
6823.63
7090.31
7376.42
7682.69
8022.5
8388.62
8813.61
9267.55
9812.73
10381.6
11281.3
4694.96
4969.98
5177.06
5412.82
5636.32
5867.79
6097.65
6333.98
6575.8
6828.99
7095.33
7381.51
7687.25
8027.34
8393.52
8822.85
9273.46
9840.81
10407.9
11238.1
4681.07
5015
5174.53
5430.19
5640.24
5876.82
6102.59
6339.96
6579.67
6833.07
7097.65
7385.45
7687.53
8033.55
8385.89
8840.55
9248.66
9891.44
10336.6
11337.7
4681.18
5025.94
5173.87
5433.48
5640.34
5877.83
6102.68
6340.27
6579.49
6832.9
7097.09
7385.23
7686.51
8034.18
8383.04
8843.75
9242.08
9901.8
10320.2
11362.9
4684.2
5035.71
5174.13
5436.67
5640.81
5878.91
6102.94
6340.67
6579.46
6832.84
7096.68
7385.11
7685.67
8034.77
8380.91
8846.77
9237.46
9911.41
10306.9
11382.8
4687.79
5044.34
5174.84
5439.67
5641.4
5879.95
6103.26
6341.1
6579.51
6832.85
7096.36
7385.06
7684.96
8035.6
8379.05
8849.65
9232.82
9920.69
10294.5
11401.1
4691.71
5052.06
5175.88
5442.45
5642.06
5880.93
6103.62
6341.56
6579.65
6832.94
7096.15
7385.09
7684.38
8036.64
8377.75
8852.4
9228.38
9929.74
10282.2
11418.8
4696
5059.03
5177.26
5445.05
5642.82
5881.9
6104.07
6342.08
6579.9
6833.13
7096.05
7385.2
7683.9
8037.71
8377.05
8855.05
9224.17
9938.6
10270.3
11435.9
4700.74
5065.45
5179.02
5447.54
5643.76
5882.94
6104.67
6342.72
6580.28
6833.44
7096.07
7385.39
7683.52
8038.7
8376.72
8857.62
9220.22
9947.31
10258.6
11452.4
4706.01
5071.5
5181.27
5450.03
5644.98
5884.15
6105.52
6343.55
6580.86
6833.89
7096.23
7385.65
7683.23
8039.51
8376.32
8860.08
9216.59
9956
10246.9
11468.3
4711.91
5077.35
5184.12
5452.67
5646.62
5885.66
6106.72
6344.64
6581.67
6834.51
7096.52
7385.98
7683.03
8040.04
8375.61
8862.36
9213.29
9964.7
10235
11483.7
4718.51
5083.17
5187.69
5455.63
5648.86
5887.64
6108.39
6346.08
6582.76
6835.31
7096.95
7386.37
7682.92
8040.36
8374.82
8864.46
9210.2
9973.27
10222.7
11498.8
4725.83
5089.08
5192.11
5459.11
5651.86
5890.24
6110.63
6347.91
6584.15
6836.28
7097.5
7386.78
7682.87
8040.61
8374.17
8866.38
9207.22
9981.57
10210
11513.7
4733.75
5095.2
5197.49
5463.29
5655.81
5893.57
6113.51
6350.18
6585.83
6837.41
7098.12
7387.19
7682.86
8040.78
8373.63
8868.1
9204.29
9989.6
10196.6
11528.5
4742.01
5101.58
5203.94
5468.34
5660.79
5897.72
6117.05
6352.85
6587.76
6838.64
7098.77
7387.54
7682.84
8040.83
8373.15
8869.59
9201.29
9997.36
10182.4
11543.2
4750.27
5108.21
5211.55
5474.36
5666.84
5902.67
6121.18
6355.85
6589.84
6839.88
7099.39
7387.78
7682.77
8040.73
8372.68
8870.76
9198.19
10004.7
10167.4
11558
4758.12
5114.92
5220.39
5481.32
5673.89
5908.28
6125.73
6359
6591.93
6841.04
7099.9
7387.85
7682.62
8040.41
8372.29
8871.49
9195.26
10011.4
10151.6
11572.6
4764.79
5121.4
5230.24
5489.02
5681.67
5914.28
6130.44
6362.07
6593.86
6841.98
7100.23
7387.71
7682.37
8039.84
8371.97
8871.77
9192.92
10017.5
10135.1
11587.2
4768.3
5127.28
5240.41
5497.03
5689.58
5920.15
6134.83
6364.7
6595.33
6842.51
7100.22
7387.28
7681.88
8039.06
8371.4
8871.89
9190.49
10024.2
10116.5
11603.3
4766.37
5132.45
5250.36
5504.81
5696.88
5925.25
6138.29
6366.44
6596.02
6842.41
7099.7
7386.48
7680.98
8038.12
8370.1
8871.81
9185.74
10033.7
10091.7
11623.2
4763.28
5136.96
5261.34
5511.84
5703.34
5928.94
6140.42
6366.98
6595.85
6841.69
7098.83
7385.38
7680.04
8036.91
8368.89
8869.9
9180.2
10042.2
10063.9
11642.3
4776.71
5139.33
5274.7
5516.77
5708.96
5930.83
6141.5
6366.61
6595.41
6840.89
7098.41
7384.37
7680.26
8035.02
8370.56
8863.71
9185.04
10031.4
10062.9
11636
4914.57
5128.62
5314.89
5520.78
5722.07
5931.65
6143.51
6364.48
6594.5
6838.67
7098.63
7380.87
7684.04
8024.52
8386.64
8824.22
9250.25
9890.15
10248.8
11480
4919.13
5118.41
5318.32
5519.96
5723.29
5930.58
6143.24
6363.95
6594.99
6839.55
7100.61
7382.08
7687.31
8023.71
8393.12
8814.83
9270.93
9843.6
10320.1
11423
4897.44
5106.31
5311.68
5515.65
5720.58
5928.4
6141.76
6363.04
6594.84
6840.01
7101.59
7383.14
7688.65
8024.41
8394.53
8813.91
9274.26
9837.88
10345.5
11397.2
4877.3
5092.05
5301.83
5509.23
5716.45
5925.86
6140.25
6362.41
6594.96
6840.71
7102.66
7384.41
7689.96
8025.68
8395.58
8815.1
9275.09
9840.36
10352.2
11384.4
4864.11
5080.6
5293.05
5503.04
5712.4
5923.39
6138.91
6361.94
6595.18
6841.39
7103.62
7385.52
7691.06
8026.68
8396.36
8815.87
9275.5
9841.5
10353.6
11376.6
4856.43
5072.95
5286.73
5498.53
5709.53
5921.79
6138.27
6362.01
6595.73
6842.25
7104.63
7386.57
7692.05
8027.52
8396.93
8816.3
9275.41
9841.31
10352.9
11370.7
4852.95
5068.9
5283.24
5496.12
5708.23
5921.45
6138.61
6362.74
6596.69
6843.34
7105.74
7387.6
7692.92
8028.18
8397.31
8816.42
9274.89
9840.5
10351.1
11365.8
4852.36
5067.74
5282.33
5495.83
5708.66
5922.47
6139.96
6364.19
6598.14
6844.72
7106.98
7388.64
7693.72
8028.7
8397.53
8816.3
9274.09
9839.59
10348.3
11361
4853.64
5068.61
5283.34
5497.27
5710.57
5924.65
6142.15
6366.24
6599.98
6846.3
7108.26
7389.62
7694.39
8029.06
8397.53
8815.9
9273.11
9838.61
10344.3
11356.3
4855.78
5070.54
5285.48
5499.85
5713.49
5927.57
6144.84
6368.61
6601.98
6847.88
7109.44
7390.43
7694.86
8029.2
8397.29
8815.25
9272.03
9837.23
10338.9
11354.1
4857.92
5072.73
5288.02
5502.87
5716.78
5930.76
6147.68
6371
6603.88
6849.3
7110.43
7391.05
7695.16
8029.16
8396.85
8814.49
9270.96
9835.4
10333.7
11355.1
4859.33
5074.44
5290.25
5505.62
5719.81
5933.72
6150.29
6373.13
6605.51
6850.46
7111.22
7391.49
7695.3
8028.99
8396.31
8813.73
9269.88
9833.33
10330.3
11356.4
4859.25
5074.92
5291.45
5507.48
5722.09
5936.04
6152.33
6374.74
6606.67
6851.23
7111.65
7391.63
7695.18
8028.58
8395.63
8812.95
9268.56
9830.82
10327.9
11358.8
4857.23
5073.61
5291
5507.93
5723.19
5937.35
6153.47
6375.56
6607.14
6851.39
7111.55
7391.28
7694.64
8027.81
8394.7
8811.98
9266.9
9828.7
10327.9
11359.7
4853.21
5070.34
5288.68
5506.69
5722.81
5937.36
6153.5
6375.44
6606.84
6850.93
7110.95
7390.55
7693.81
8026.83
8393.64
8810.84
9265.12
9828.08
10329.6
11355.2
4847.14
5065
5284.41
5503.68
5720.85
5936.03
6152.43
6374.47
6605.95
6850.12
7110.23
7389.91
7693.24
8026.23
8393.06
8810.05
9263.75
9828.34
10326.8
11355.4
4838.95
5057.36
5277.89
5498.52
5716.93
5933
6149.99
6372.53
6604.45
6849.04
7109.54
7389.55
7693.16
8026.26
8393.11
8809.77
9263.12
9828.59
10323.8
11358.3
4828.31
5046.94
5268.16
5489.84
5709.5
5926.81
6144.99
6368.56
6601.32
6846.55
7107.56
7387.98
7691.97
8025.25
8392.16
8808.53
9262.25
9828.47
10321.8
11359.6
4815.31
5033.41
5254.63
5477.3
5698.58
5917.62
6137.44
6362.31
6595.94
6841.68
7103
7383.69
7688
8021.53
8388.86
8805.81
9260.22
9827.11
10318.8
11360.7
4800.36
5019.42
5243.38
5469.86
5694.28
5914.95
6135.17
6359.94
6593.35
6838.88
7100.06
7380.68
7685.06
8018.86
8387.02
8805.12
9259.99
9825.89
10317
11364.7
4758.13
4707.98
4670.97
4649.95
4638.73
4633.53
4632.29
4633.47
4635.97
4638.86
4641.35
4642.72
4642.25
4639.67
4635.01
4628.46
4620.12
4609.66
4597.37
4582.83
4436.27
4425.3
4410.11
4401.24
4398.01
4398.82
4402.06
4406.39
4411.05
4415.37
4418.65
4420.19
4419.48
4416.4
4411.07
4404
4395.58
4385.43
4373.77
4360.07
4055.45
4097.91
4117.9
4130.28
4140.65
4150.8
4160.73
4169.81
4177.66
4184.09
4188.59
4190.63
4189.91
4186.39
4180.27
4172.31
4163.21
4152.7
4140.92
4127.65
3676.31
3758.48
3808.33
3842.92
3869.23
3890.73
3908.88
3923.92
3935.88
3945
3951.25
3954.24
3953.86
3950.08
3943.14
3933.94
3923.29
3911.17
3897.43
3883.09
3314.32
3417.49
3491.38
3545.95
3587.73
3620.9
3647.8
3669.36
3685.97
3698.2
3706.59
3710.89
3711.13
3707.36
3699.86
3689.49
3677.03
3662.7
3645.96
3628.98
2967.14
3081.19
3174.11
3245.22
3300.38
3344.24
3379.43
3407.37
3428.73
3444.26
3454.9
3460.62
3461.71
3458.28
3450.74
3439.82
3426.3
3410.46
3391.5
3371.25
2641.08
2755.36
2861.59
2945.07
3011.04
3063.93
3106.34
3140
3165.82
3184.59
3197.5
3204.93
3207.21
3204.52
3197.38
3186.48
3172.6
3155.8
3135.29
3111.66
2340.58
2446.27
2558.18
2648.72
2722.61
2782.54
2830.75
2869.14
2898.86
2920.67
2935.78
2945.01
2948.53
2946.69
2940.17
2929.64
2915.63
2897.79
2875.55
2849.03
2065.47
2156.43
2265.82
2360.03
2438.43
2502.74
2554.85
2596.51
2629.02
2653.24
2670.27
2681.2
2686.16
2685.44
2679.68
2669.47
2655.09
2636.16
2612.22
2583.24
1813.48
1887.54
1989.17
2082.32
2160.79
2226.83
2280.99
2324.56
2358.91
2384.98
2403.67
2416.06
2422.38
2422.71
2417.58
2407.31
2391.99
2371.66
2345.95
2314.67
1583.36
1640.69
1727.68
1814.96
1891.66
1956.81
2011.13
2055.31
2090.43
2117.45
2137.13
2150.32
2157.29
2157.95
2152.67
2141.98
2126.07
2104.86
2077.81
2044.65
1371.39
1412.42
1481.22
1558.27
1630.37
1693.45
1746.38
1789.83
1824.65
1851.64
1871.45
1884.75
1891.8
1892.46
1886.98
1876
1859.77
1837.8
1809.52
1774.98
1173.64
1200.21
1249.93
1313.35
1377.37
1435.82
1486.57
1528.34
1562.16
1588.56
1607.94
1620.89
1627.67
1628.07
1622.27
1610.96
1594.24
1571.49
1542.36
1507.07
986.77
1001.78
1034.18
1081.35
1134.08
1185.38
1231.37
1270.44
1302.67
1328.15
1346.82
1359.21
1365.52
1365.53
1359.41
1347.81
1330.68
1307.51
1278.33
1243.47
808.567
815.177
833.575
864.292
902.864
943.593
982.894
1018.28
1047.83
1071.04
1088.26
1099.9
1105.8
1105.59
1099.48
1087.98
1071.02
1048.48
1020.59
988.031
638.132
639.092
647.157
663.69
687.503
715.687
745.33
773.729
798.979
819.957
835.921
846.405
851.235
850.522
844.735
834.161
818.676
798.275
773.425
745.132
475.233
472.687
473.309
478.86
490.023
506.009
525.184
545.429
564.669
581.268
594.217
602.946
607.105
606.637
601.776
592.567
579.148
561.904
541.526
519.177
321.523
316.359
310.917
307.964
309.601
316.112
326.417
338.709
351.221
362.53
371.659
377.992
381.201
381.334
378.476
372.525
363.441
351.481
337.02
321.269
178.297
168.53
158.019
150.422
147.891
150.239
155.913
163.044
170.2
176.473
181.405
184.894
187.101
188.099
187.547
185.111
180.636
174.216
166.328
158.709
33.871
13.2612
-3.44457
-12.7486
-16.6033
-16.6732
-14.1944
-10.5033
-6.80788
-3.89487
-2.07811
-1.28251
-1.14287
-1.23428
-1.41538
-1.83874
-2.75583
-4.36155
-5.80346
-4.47802
)
;

boundaryField
{
    right
    {
        type            cyclic;
    }
    left
    {
        type            cyclic;
    }
    outerWall
    {
        type            zeroGradient;
    }
    stirrerWall
    {
        type            zeroGradient;
    }
    top
    {
        type            empty;
    }
    bottom
    {
        type            empty;
    }
}


// ************************************************************************* //
