/*--------------------------------*- C++ -*----------------------------------*\
  =========                 |
  \\      /  F ield         | OpenFOAM: The Open Source CFD Toolbox
   \\    /   O peration     | Website:  https://openfoam.org
    \\  /    A nd           | Version:  10
     \\/     M anipulation  |
\*---------------------------------------------------------------------------*/
FoamFile
{
    format      ascii;
    class       volScalarField;
    location    "200";
    object      p;
}
// * * * * * * * * * * * * * * * * * * * * * * * * * * * * * * * * * * * * * //

dimensions      [0 2 -2 0 0 0 0];

internalField   nonuniform List<scalar> 
420
(
-1.1868
13.9041
30.3301
49.1918
69.7084
91.3309
113.493
135.365
156.413
176.025
-1.58569
13.6133
29.7958
48.418
68.7723
90.3421
112.574
134.628
155.856
175.621
-2.04696
13.2212
29.1919
47.5498
67.7061
89.1972
111.477
133.679
155.085
175.083
-2.45687
12.8042
28.5618
46.6228
66.5207
87.8433
110.078
132.394
154.038
174.383
-2.718
12.4568
27.9601
45.6611
65.2015
86.2396
108.338
130.743
152.688
173.508
-2.85137
12.2344
27.4499
44.7194
63.7947
84.4313
106.285
128.746
151.065
172.52
-2.90054
12.1653
27.0921
43.8734
62.3928
82.5126
104.014
126.484
149.268
171.572
-2.90087
12.2607
26.9347
43.2014
61.1138
80.6333
101.675
124.034
147.282
170.585
-2.92683
12.5317
26.9969
42.7774
60.1174
79.024
99.4939
121.471
144.746
168.599
-3.08516
12.9163
27.0708
42.4419
59.3535
77.7899
97.7556
119.19
141.783
165.081
193.776
210.28
225.726
239.73
252.081
262.823
269.56
274.223
273.031
301.094
193.517
210.136
225.603
239.568
251.902
262.643
269.49
275.148
277.666
307.589
193.244
210.086
225.675
239.738
252.246
263.261
270.563
277.55
283.65
314.826
192.932
210.094
225.878
240.15
252.966
264.437
272.452
281.03
290.447
321.359
192.578
210.134
226.162
240.737
253.944
265.962
274.776
284.944
297.315
327.83
192.253
210.21
226.501
241.456
255.092
267.7
277.339
288.943
303.402
333.286
192.137
210.334
226.809
242.226
256.342
269.587
280.03
292.841
308.747
337.75
192.259
210.461
226.971
242.958
257.673
271.632
282.86
296.756
314.143
341.685
191.991
210.786
227.273
243.752
259.093
273.784
285.884
301.177
320.529
345.287
190.795
211.955
228.344
244.829
260.566
275.904
288.868
305.985
326.57
348.482
190.786
213.047
229.633
246.054
261.873
277.779
290.836
309.049
327.227
349.647
192.348
213.572
230.564
246.866
262.67
278.78
292.225
310.434
326.585
349.584
197.496
214.648
231.589
247.96
263.822
279.906
294.244
311.526
328.72
351.954
197.297
214.684
231.773
248.336
264.314
280.566
295.363
312.579
331.02
353.501
196.388
214.186
231.458
248.132
264.15
280.498
295.646
313.028
331.416
352.717
195.685
213.512
230.83
247.491
263.403
279.622
294.778
311.826
329.299
349.849
195.219
212.871
230.053
246.542
262.182
278.081
293.011
309.21
325.122
344.906
194.881
212.277
229.189
245.345
260.535
275.946
290.435
305.266
319.5
340.315
194.602
211.714
228.267
243.947
258.499
273.125
286.484
299.136
313.18
340.086
194.347
211.19
227.36
242.502
256.293
269.69
280.615
289.514
303.596
338.224
194.129
210.748
226.57
241.218
254.304
266.35
274.538
279.07
287.676
310.747
193.979
210.482
226.036
240.26
252.857
264.051
271.153
274.704
274.534
289.326
180.426
178.255
177.176
176.772
176.638
176.603
176.58
176.527
176.429
176.291
154.184
154.935
155.555
156.061
156.473
156.79
156.993
157.063
156.983
156.773
126.998
130.029
132.455
134.059
135.125
135.82
136.218
136.349
136.211
135.873
102.352
105.749
109.045
111.429
113.05
114.084
114.65
114.824
114.644
114.182
80.4275
83.2287
86.383
88.9733
90.8299
92.0402
92.6961
92.8781
92.6603
92.1213
60.8236
62.8413
65.3044
67.5398
69.2639
70.4299
71.0693
71.2362
71.0115
70.4774
43.3358
44.6305
46.214
47.7704
49.0414
49.9207
50.4023
50.5096
50.2946
49.8344
27.8561
28.5143
29.2373
29.9764
30.6133
31.0635
31.2879
31.2863
31.0893
30.7573
14.3545
14.3424
14.3267
14.371
14.4432
14.4869
14.4658
14.3754
14.2345
14.0725
1.94842
0.872926
-0.0610112
-0.636615
-0.998486
-1.2671
-1.49635
-1.6671
-1.6911
-1.53747
)
;

boundaryField
{
    right
    {
        type            cyclic;
    }
    left
    {
        type            cyclic;
    }
    outerWall
    {
        type            zeroGradient;
    }
    stirrerWall
    {
        type            zeroGradient;
    }
    top
    {
        type            empty;
    }
    bottom
    {
        type            empty;
    }
}


// ************************************************************************* //
