/*--------------------------------*- C++ -*----------------------------------*\
  =========                 |
  \\      /  F ield         | OpenFOAM: The Open Source CFD Toolbox
   \\    /   O peration     | Website:  https://openfoam.org
    \\  /    A nd           | Version:  10
     \\/     M anipulation  |
\*---------------------------------------------------------------------------*/
FoamFile
{
    format      ascii;
    class       surfaceScalarField;
    location    "200";
    object      phi;
}
// * * * * * * * * * * * * * * * * * * * * * * * * * * * * * * * * * * * * * //

dimensions      [0 3 -1 0 0 0 0];

internalField   nonuniform List<scalar> 
3880
(
9.18974e-07
-3.91049e-05
5.72579e-06
-2.77702e-05
1.72548e-05
-1.11528e-05
3.08057e-05
1.48428e-05
4.32925e-05
3.92064e-05
5.31253e-05
5.43989e-05
6.04468e-05
5.99194e-05
6.56211e-05
5.81047e-05
6.89626e-05
5.07454e-05
7.08622e-05
3.95491e-05
7.16958e-05
2.58328e-05
7.16499e-05
1.04125e-05
7.08106e-05
-5.82408e-06
6.916e-05
-2.30989e-05
6.71046e-05
-4.00922e-05
6.49476e-05
-5.60469e-05
6.28845e-05
-7.03299e-05
6.00722e-05
-8.31382e-05
5.52261e-05
-9.43057e-05
-0.00010384
4.81466e-05
-7.36798e-07
-3.82932e-05
2.07572e-06
-3.05519e-05
1.26033e-05
-2.16807e-05
2.75298e-05
-1.19765e-07
4.20107e-05
2.47175e-05
5.3801e-05
4.26002e-05
6.27959e-05
5.0939e-05
6.93527e-05
5.14909e-05
7.37842e-05
4.63297e-05
7.63798e-05
3.69727e-05
7.74573e-05
2.47069e-05
7.72109e-05
1.06467e-05
7.59005e-05
-4.46357e-06
7.38453e-05
-2.1084e-05
7.12466e-05
-3.75556e-05
6.80019e-05
-5.2822e-05
6.36535e-05
-6.60312e-05
5.72698e-05
-7.68359e-05
4.84307e-05
-8.55324e-05
-9.35047e-05
3.8104e-05
-8.99201e-07
-3.74562e-05
-2.68803e-07
-3.11439e-05
5.9115e-06
-2.7935e-05
1.85197e-05
-1.28306e-05
3.40839e-05
9.17908e-06
4.8441e-05
2.82622e-05
5.9877e-05
3.95307e-05
6.83859e-05
4.30409e-05
7.43457e-05
4.0435e-05
7.80061e-05
3.33156e-05
7.96709e-05
2.30442e-05
7.97479e-05
1.05681e-05
7.84128e-05
-3.1766e-06
7.59172e-05
-1.8666e-05
7.21053e-05
-3.37949e-05
6.65284e-05
-4.72595e-05
5.86675e-05
-5.81885e-05
4.82211e-05
-6.64022e-05
3.57188e-05
-7.30908e-05
-8.10846e-05
2.32559e-05
-1.99012e-07
-3.71471e-05
2.09077e-07
-3.15239e-05
3.63943e-06
-3.13488e-05
1.16172e-05
-2.0713e-05
2.47758e-05
-4.03751e-06
3.95882e-05
1.34647e-05
5.25363e-05
2.65684e-05
6.2629e-05
3.29206e-05
6.9819e-05
3.3257e-05
7.43359e-05
2.88199e-05
7.65273e-05
2.08821e-05
7.67658e-05
1.03767e-05
7.51769e-05
-1.55957e-06
7.16871e-05
-1.51358e-05
6.59052e-05
-2.79659e-05
5.7198e-05
-3.85403e-05
4.54121e-05
-4.63964e-05
3.12542e-05
-5.22162e-05
1.65158e-05
-5.82705e-05
-6.89004e-05
4.39723e-06
5.23356e-07
-3.77594e-05
1.54372e-06
-3.25243e-05
3.79281e-06
-3.36268e-05
8.88956e-06
-2.56949e-05
1.76257e-05
-1.28426e-05
2.96542e-05
1.48403e-06
4.21569e-05
1.41423e-05
5.26576e-05
2.24442e-05
6.03651e-05
2.54862e-05
6.52913e-05
2.38726e-05
6.7596e-05
1.86325e-05
6.73717e-05
1.06976e-05
6.46832e-05
1.18578e-06
5.93135e-05
-9.69023e-06
5.06986e-05
-1.92309e-05
3.83238e-05
-2.60604e-05
2.26982e-05
-3.06789e-05
6.19369e-06
-3.56464e-05
-7.89768e-06
-4.41702e-05
-6.09679e-05
-1.58769e-05
1.02094e-06
-3.8766e-05
2.68085e-06
-3.40381e-05
5.05156e-06
-3.60703e-05
9.10875e-06
-2.97189e-05
1.41327e-05
-1.79027e-05
2.16578e-05
-6.05755e-06
3.12615e-05
4.49707e-06
4.03257e-05
1.33815e-05
4.71952e-05
1.85991e-05
5.13464e-05
1.97518e-05
5.2582e-05
1.74235e-05
5.08099e-05
1.25093e-05
4.60448e-05
6.02827e-06
3.77819e-05
-1.30922e-06
2.53532e-05
-6.71271e-06
9.11924e-06
-9.84566e-06
-9.02237e-06
-1.26418e-05
-2.42153e-05
-2.05593e-05
-3.24818e-05
-3.59797e-05
-6.08303e-05
-3.2659e-05
1.23577e-06
-4.00162e-05
3.2512e-06
-3.60147e-05
6.01152e-06
-3.89154e-05
9.47056e-06
-3.31002e-05
1.31241e-05
-2.15033e-05
1.7117e-05
-1.00482e-05
2.25768e-05
-9.8384e-07
2.84327e-05
7.49802e-06
3.28375e-05
1.41365e-05
3.48102e-05
1.77535e-05
3.3684e-05
1.85323e-05
2.89041e-05
1.7271e-05
2.0088e-05
1.48476e-05
7.09382e-06
1.16843e-05
-1.00487e-05
1.03509e-05
-2.86689e-05
8.60689e-06
-4.42414e-05
2.7927e-06
-5.199e-05
-1.28185e-05
-5.04401e-05
-3.74524e-05
-6.85039e-05
-4.27298e-05
1.13426e-06
-4.11894e-05
3.07463e-06
-3.78653e-05
6.01961e-06
-4.18368e-05
9.60171e-06
-3.65305e-05
1.27221e-05
-2.45905e-05
1.47232e-05
-1.21438e-05
1.68403e-05
-3.16653e-06
1.89872e-05
5.23882e-06
1.98619e-05
1.3175e-05
1.85246e-05
1.90123e-05
1.38679e-05
2.31252e-05
4.73186e-06
2.63598e-05
-1.03303e-05
2.98942e-05
-2.99009e-05
3.12364e-05
-5.14668e-05
3.18821e-05
-6.86916e-05
2.57951e-05
-7.2291e-05
6.43894e-06
-6.49749e-05
-2.00322e-05
-5.50428e-05
-4.73622e-05
-7.71353e-05
-4.64923e-05
7.80658e-07
-4.19536e-05
2.28802e-06
-3.9194e-05
4.98531e-06
-4.45169e-05
8.37946e-06
-3.98967e-05
1.11675e-05
-2.74138e-05
1.22584e-05
-1.33087e-05
1.21769e-05
-3.05654e-06
1.2049e-05
5.29762e-06
9.5921e-06
1.55973e-05
4.88219e-06
2.36812e-05
-3.45152e-06
3.14155e-05
-1.63863e-05
3.92804e-05
-3.67051e-05
5.02748e-05
-5.96327e-05
5.42328e-05
-7.38663e-05
4.6137e-05
-7.76435e-05
2.95868e-05
-7.34961e-05
2.33292e-06
-6.60499e-05
-2.75013e-05
-5.76015e-05
-5.59043e-05
-8.52694e-05
-4.96017e-05
2.22085e-07
-4.21553e-05
1.02763e-06
-3.98442e-05
3.05101e-06
-4.65586e-05
5.82428e-06
-4.27265e-05
8.20187e-06
-2.97887e-05
8.6764e-06
-1.37544e-05
7.5565e-06
-1.85905e-06
6.6845e-06
6.13858e-06
2.39316e-06
1.9849e-05
-4.15221e-06
3.01939e-05
-1.46607e-05
4.19106e-05
-2.97592e-05
5.44058e-05
-4.62553e-05
6.68254e-05
-6.13773e-05
6.9353e-05
-7.31433e-05
5.78554e-05
-7.91923e-05
3.55912e-05
-7.64324e-05
-4.50317e-07
-6.81376e-05
-3.5828e-05
-5.91191e-05
-6.49441e-05
-9.37256e-05
-5.06764e-05
-5.85024e-07
-4.15864e-05
-7.18055e-07
-3.96225e-05
8.17021e-08
-4.73582e-05
1.854e-06
-4.45185e-05
3.89722e-06
-3.17634e-05
4.46862e-06
-1.42576e-05
3.62059e-06
-1.03477e-06
2.37151e-06
7.35275e-06
-1.95096e-06
2.41172e-05
-1.02958e-05
3.84631e-05
-2.2348e-05
5.38995e-05
-3.82456e-05
7.02951e-05
-5.46698e-05
8.32117e-05
-6.84437e-05
8.30281e-05
-7.64585e-05
6.57828e-05
-7.57058e-05
3.48111e-05
-6.76217e-05
-8.48976e-06
-6.04995e-05
-4.28922e-05
-5.44965e-05
-7.0896e-05
-9.9711e-05
-4.84704e-05
-1.6941e-06
-3.99095e-05
-3.39138e-06
-3.78769e-05
-4.12345e-06
-4.66094e-05
-3.47337e-06
-4.51411e-05
-2.18619e-06
-3.29988e-05
-1.8057e-06
-1.46086e-05
-2.61564e-06
-3.50313e-07
-4.96835e-06
9.58388e-06
-8.39759e-06
2.74361e-05
-1.67365e-05
4.67022e-05
-2.76494e-05
6.47532e-05
-3.93172e-05
8.19615e-05
-4.9615e-05
9.35008e-05
-5.75072e-05
9.08749e-05
-6.21429e-05
7.03597e-05
-6.14751e-05
3.41432e-05
-5.7166e-05
-1.27515e-05
-5.30326e-05
-4.70305e-05
-4.80607e-05
-7.59328e-05
-0.000104909
-4.2933e-05
-2.95912e-06
-3.69464e-05
-6.38753e-06
-3.44192e-05
-8.77956e-06
-4.42171e-05
-9.61063e-06
-4.43103e-05
-9.17447e-06
-3.34911e-05
-8.71692e-06
-1.51501e-05
-9.05291e-06
-1.10585e-07
-1.09089e-05
1.13097e-05
-1.23575e-05
2.88061e-05
-1.80556e-05
5.24112e-05
-2.62331e-05
7.29676e-05
-3.55342e-05
9.1271e-05
-4.36317e-05
0.00010153
-4.93476e-05
9.64894e-05
-5.22993e-05
7.32434e-05
-5.07164e-05
3.25068e-05
-4.64917e-05
-1.69977e-05
-4.18138e-05
-5.17176e-05
-3.66575e-05
-8.11521e-05
-0.000108955
-3.26955e-05
-4.19301e-06
-3.27495e-05
-9.40093e-06
-2.92135e-05
-1.34973e-05
-4.01394e-05
-1.57129e-05
-4.21287e-05
-1.5452e-05
-3.38213e-05
-1.36748e-05
-1.70341e-05
-1.2677e-05
-1.11933e-06
-1.33078e-05
1.19801e-05
-1.44732e-05
2.99998e-05
-1.82258e-05
5.61579e-05
-2.3196e-05
7.78827e-05
-2.82754e-05
9.62573e-05
-3.17819e-05
0.000104938
-3.38586e-05
9.85625e-05
-3.3743e-05
7.32232e-05
-3.10873e-05
2.99018e-05
-2.78917e-05
-2.02406e-05
-2.34663e-05
-5.62164e-05
-1.91094e-05
-8.55119e-05
-0.000110226
-1.78325e-05
-5.24243e-06
-2.75131e-05
-1.20143e-05
-2.24696e-05
-1.80125e-05
-3.41524e-05
-2.20143e-05
-3.8139e-05
-2.25079e-05
-3.33053e-05
-1.97354e-05
-1.9802e-05
-1.67455e-05
-4.13949e-06
-1.55009e-05
1.06882e-05
-1.61278e-05
3.05966e-05
-1.70254e-05
5.70571e-05
-1.74609e-05
7.8303e-05
-1.59203e-05
9.47147e-05
-1.25585e-05
0.000101599
-7.75007e-06
9.3762e-05
-2.82317e-06
6.82657e-05
-4.8776e-07
2.75489e-05
-1.13406e-07
-2.06362e-05
3.3768e-06
-5.97293e-05
5.58695e-06
-8.77277e-05
-0.000107088
2.4039e-06
-5.96554e-06
-2.15492e-05
-1.37663e-05
-1.46563e-05
-2.1625e-05
-2.62525e-05
-2.80148e-05
-3.17263e-05
-3.10723e-05
-3.0271e-05
-2.98836e-05
-2.10047e-05
-2.64673e-05
-7.5121e-06
-2.36595e-05
7.9173e-06
-2.0985e-05
2.78256e-05
-1.63036e-05
5.22601e-05
-1.04798e-05
7.24027e-05
-2.5525e-06
8.67718e-05
8.32358e-06
9.07555e-05
2.2473e-05
7.96031e-05
3.7237e-05
5.3515e-05
4.76557e-05
1.72152e-05
4.75644e-05
-2.05551e-05
4.46854e-05
-5.7e-05
3.88047e-05
-8.18941e-05
-9.54212e-05
2.70729e-05
-6.15337e-06
-1.53855e-05
-1.40106e-05
-6.7394e-06
-2.30522e-05
-1.71729e-05
-3.16503e-05
-2.31081e-05
-3.7998e-05
-2.38815e-05
-4.01584e-05
-1.88786e-05
-3.82495e-05
-9.53145e-06
-3.38671e-05
3.43218e-06
-2.60912e-05
1.99983e-05
-1.44896e-05
4.06886e-05
-1.40117e-06
5.93612e-05
1.41438e-05
7.12428e-05
3.36629e-05
7.12162e-05
5.38549e-05
5.93768e-05
6.96663e-05
3.77231e-05
7.79309e-05
8.89677e-06
7.93161e-05
-2.20573e-05
7.47117e-05
-5.24115e-05
6.22303e-05
-6.93372e-05
-7.56089e-05
4.24532e-05
-5.65535e-06
-9.7019e-06
-1.178e-05
-5.95762e-07
-2.03983e-05
-8.58566e-06
-3.03079e-05
-1.31668e-05
-3.93162e-05
-1.4798e-05
-4.51127e-05
-1.30606e-05
-4.62983e-05
-8.38321e-06
-4.22288e-05
-7.04771e-07
-3.20467e-05
9.7827e-06
-1.53345e-05
2.39685e-05
4.52876e-06
3.946e-05
2.79127e-05
4.7791e-05
5.46826e-05
4.4395e-05
8.00074e-05
3.40125e-05
9.93307e-05
1.82773e-05
0.000108746
-5.96871e-07
0.000106868
-2.03033e-05
9.25784e-05
-3.81896e-05
6.87748e-05
-4.55896e-05
-4.50475e-05
3.81659e-05
-4.98817e-06
-4.6917e-06
-6.49782e-06
9.19882e-07
-1.21853e-05
-2.8409e-06
-2.13716e-05
-3.94051e-06
-3.15387e-05
-4.59735e-06
-4.0088e-05
-4.49793e-06
-4.49811e-05
-3.50162e-06
-4.46194e-05
-1.05467e-06
-3.74838e-05
2.63442e-06
-2.12323e-05
7.67826e-06
4.72276e-06
1.34842e-05
3.6425e-05
1.60292e-05
6.6216e-05
1.45293e-05
8.9847e-05
1.03357e-05
0.000104878
3.20585e-06
0.000109214
-4.88319e-06
0.000100404
-1.14068e-05
7.36306e-05
-1.14167e-05
3.53809e-05
-7.40627e-06
-1.52342e-05
5.42975e-06
-4.69844e-06
-3.72255e-06
-6.49766e-06
-1.04276e-05
-1.50474e-05
-1.95583e-05
-2.30656e-05
-2.41175e-05
-2.14972e-05
-1.38427e-05
-3.99692e-07
1.55274e-05
3.00626e-05
4.03244e-05
4.35169e-05
3.86399e-05
2.72575e-05
1.58752e-05
8.5228e-06
-6.65564e-06
3.96879e-05
-0.000114525
3.14306e-05
-0.000132118
2.5683e-05
-0.000158435
2.3141e-05
-0.000197796
2.23014e-05
-0.000248618
2.09192e-05
-0.000304666
1.84529e-05
-0.00036057
1.55786e-05
-0.000415216
1.28841e-05
-0.000469498
1.06031e-05
-0.000524002
8.72952e-06
-0.000578957
7.16445e-06
-0.000634506
5.8217e-06
-0.00068995
4.86739e-06
-0.00074489
3.97759e-06
-0.000796094
3.26822e-06
-0.000848777
2.71535e-06
-0.000884596
2.91649e-06
-0.000964355
4.17274e-06
-0.00092844
-0.00122742
2.80101e-05
-0.000104445
2.03299e-05
-0.000124443
1.68471e-05
-0.000155002
1.68303e-05
-0.00019784
1.76267e-05
-0.000249463
1.7301e-05
-0.00030436
1.57525e-05
-0.00035901
1.36879e-05
-0.000413128
1.16103e-05
-0.00046742
9.72888e-06
-0.00052213
8.12812e-06
-0.000577304
6.81534e-06
-0.000633091
5.65475e-06
-0.000688745
4.78085e-06
-0.000744009
3.93858e-06
-0.000795222
3.25353e-06
-0.000848012
2.44544e-06
-0.000883717
2.08976e-06
-0.000963959
2.74807e-06
-0.000929069
-0.00122464
1.33625e-05
-9.45456e-05
8.08188e-06
-0.000119165
7.80298e-06
-0.00015472
1.02343e-05
-0.000200219
1.24657e-05
-0.000251624
1.30827e-05
-0.00030494
1.23705e-05
-0.000358289
1.10897e-05
-0.000411831
9.6877e-06
-0.000465998
8.32332e-06
-0.000520782
7.0798e-06
-0.00057611
6.03151e-06
-0.000632096
5.08596e-06
-0.000687846
4.39368e-06
-0.000743335
3.60788e-06
-0.000794449
3.18854e-06
-0.000847599
2.27684e-06
-0.000882801
1.61747e-06
-0.000963281
2.21575e-06
-0.000929615
-0.0012224
-2.50333e-06
-8.76123e-05
-3.44785e-06
-0.000118209
-1.37081e-07
-0.00015803
4.23628e-06
-0.000204562
7.39479e-06
-0.000254733
8.71574e-06
-0.000306244
8.74339e-06
-0.000358346
8.19534e-06
-0.000411324
7.44055e-06
-0.000465289
6.60433e-06
-0.000520025
5.77463e-06
-0.000575369
5.05503e-06
-0.000631445
4.3606e-06
-0.000687209
3.87707e-06
-0.000742906
3.20582e-06
-0.000793831
2.97903e-06
-0.000847373
2.15969e-06
-0.000881979
1.55744e-06
-0.000962685
2.08174e-06
-0.000930185
-0.00122035
-1.70326e-05
-8.6518e-05
-1.31168e-05
-0.000122162
-7.05296e-06
-0.000164109
-1.47797e-06
-0.00021013
2.3019e-06
-0.000258492
4.20679e-06
-0.00030813
4.94322e-06
-0.000359083
5.10402e-06
-0.000411492
4.98e-06
-0.000465152
4.68657e-06
-0.000519709
4.30247e-06
-0.000574959
3.93165e-06
-0.000631046
3.49366e-06
-0.000686743
3.23844e-06
-0.000742602
2.69474e-06
-0.000793226
2.63079e-06
-0.000847248
1.85921e-06
-0.000881208
1.28338e-06
-0.000962172
1.85815e-06
-0.000930782
-0.00121852
-2.77636e-05
-9.14244e-05
-2.04215e-05
-0.000129503
-1.29167e-05
-0.000171625
-6.80892e-06
-0.000216241
-2.66681e-06
-0.00026261
-2.33248e-07
-0.000310523
1.18279e-06
-0.000360472
2.02007e-06
-0.000412305
2.49686e-06
-0.000465574
2.72286e-06
-0.000519856
2.77041e-06
-0.000574924
2.7475e-06
-0.000630953
2.57543e-06
-0.000686513
2.56023e-06
-0.000742517
2.14098e-06
-0.00079275
2.24369e-06
-0.0008473
1.48825e-06
-0.000880431
1.20957e-06
-0.000961919
2.09248e-06
-0.00093163
-0.00121639
-3.38949e-05
-0.000100284
-2.54842e-05
-0.000137946
-1.7852e-05
-0.000179285
-1.16949e-05
-0.000222413
-7.2996e-06
-0.000266997
-4.35997e-06
-0.000313444
-2.30043e-06
-0.000362537
-8.44147e-07
-0.000413788
1.72687e-07
-0.000466616
8.61811e-07
-0.000520566
1.29479e-06
-0.000575391
1.59384e-06
-0.000631302
1.66967e-06
-0.000686654
1.89045e-06
-0.00074275
1.60654e-06
-0.00079249
1.91444e-06
-0.000847633
1.19681e-06
-0.000879721
1.15767e-06
-0.000961882
2.28191e-06
-0.000932717
-0.00121407
-3.8144e-05
-0.000108744
-2.98132e-05
-0.000146367
-2.21508e-05
-0.000186999
-1.59898e-05
-0.000228607
-1.13519e-05
-0.000271669
-7.93285e-06
-0.000316899
-5.3093e-06
-0.000365211
-3.33413e-06
-0.000415828
-1.86731e-06
-0.000468142
-7.91239e-07
-0.000521686
-3.37466e-08
-0.000576191
5.48926e-07
-0.000631906
8.58868e-07
-0.000686984
1.28026e-06
-0.000743156
1.13209e-06
-0.00079232
1.65497e-06
-0.000848152
9.47252e-07
-0.000878999
1.18273e-06
-0.000962081
2.44009e-06
-0.000933916
-0.00121161
-4.16149e-05
-0.000116853
-3.32582e-05
-0.000154794
-2.54535e-05
-0.000194812
-1.92574e-05
-0.000234795
-1.44372e-05
-0.000276496
-1.06739e-05
-0.000320688
-7.65075e-06
-0.000368255
-5.30247e-06
-0.000418178
-3.4984e-06
-0.00046991
-2.12496e-06
-0.000522998
-1.11068e-06
-0.000577143
-3.13313e-07
-0.000632631
1.92704e-07
-0.000687403
7.74359e-07
-0.000743657
7.3785e-07
-0.000792208
1.4647e-06
-0.000848828
7.56056e-07
-0.000878227
1.26595e-06
-0.000962517
2.43116e-06
-0.000935006
-0.00120916
-4.2765e-05
-0.000124761
-3.46671e-05
-0.000162859
-2.71418e-05
-0.000202291
-2.11323e-05
-0.00024079
-1.62604e-05
-0.000281389
-1.23252e-05
-0.000324669
-9.11818e-06
-0.000371515
-6.59241e-06
-0.000420757
-4.60132e-06
-0.000471933
-3.04998e-06
-0.000524578
-1.86936e-06
-0.000578356
-9.3927e-07
-0.000633613
-3.13141e-07
-0.000688063
3.7258e-07
-0.000744376
4.18211e-07
-0.000792261
1.31426e-06
-0.000849717
5.90241e-07
-0.000877452
1.43878e-06
-0.0009633
2.26861e-06
-0.000935792
-0.0012069
-4.18649e-05
-0.000131355
-3.43503e-05
-0.000170398
-2.71788e-05
-0.000209497
-2.14441e-05
-0.00024654
-1.66894e-05
-0.000286175
-1.28192e-05
-0.000328598
-9.64898e-06
-0.000374746
-7.12962e-06
-0.000423337
-5.11772e-06
-0.00047398
-3.52692e-06
-0.000526202
-2.29105e-06
-0.000579609
-1.30563e-06
-0.000634622
-6.26235e-07
-0.000688747
1.05559e-07
-0.00074511
2.01343e-07
-0.000792337
1.20249e-06
-0.000850688
4.25233e-07
-0.000876616
1.63611e-06
-0.000964465
2.00312e-06
-0.000936146
-0.00120492
-3.76786e-05
-0.000136668
-3.13743e-05
-0.000176751
-2.50287e-05
-0.000215895
-1.98785e-05
-0.000251674
-1.55485e-05
-0.000290451
-1.2046e-05
-0.000332068
-9.17257e-06
-0.00037761
-6.86838e-06
-0.000425648
-5.00718e-06
-0.000475821
-3.5107e-06
-0.000527661
-2.34005e-06
-0.000580737
-1.39806e-06
-0.000635546
-7.43994e-07
-0.000689381
-3.62477e-08
-0.000745782
7.52044e-08
-0.000792389
1.09919e-06
-0.000851649
2.19292e-07
-0.000875673
1.69025e-06
-0.000965916
1.75078e-06
-0.000936215
-0.00120319
-2.98516e-05
-0.000139551
-2.55676e-05
-0.000181054
-2.04944e-05
-0.000220989
-1.63385e-05
-0.000255858
-1.28557e-05
-0.000293991
-1.00501e-05
-0.00033497
-7.72805e-06
-0.000380044
-5.83378e-06
-0.000427656
-4.29126e-06
-0.000477475
-3.04005e-06
-0.000529006
-2.05487e-06
-0.000581776
-1.24445e-06
-0.000636384
-6.81382e-07
-0.000689946
-6.83014e-08
-0.000746364
2.62099e-08
-0.000792434
9.76847e-07
-0.000852558
-4.63191e-08
-0.000874619
1.5008e-06
-0.000967474
1.242e-06
-0.00093599
-0.00120195
-1.88886e-05
-0.000138436
-1.71827e-05
-0.000182728
-1.38206e-05
-0.000224333
-1.11207e-05
-0.000258536
-8.8785e-06
-0.000296195
-7.04165e-06
-0.000336767
-5.49412e-06
-0.000381599
-4.18255e-06
-0.000428972
-3.07027e-06
-0.000478558
-2.15749e-06
-0.000529893
-1.44935e-06
-0.000582466
-8.55096e-07
-0.000636963
-4.50756e-07
-0.00069033
-7.3077e-09
-0.00074676
4.54816e-08
-0.000792436
8.25951e-07
-0.000853314
-2.83e-07
-0.000873505
1.47298e-06
-0.000969236
5.82325e-07
-0.000935132
-0.00120139
-4.29258e-06
-0.000131754
-6.03819e-06
-0.00018095
-5.21022e-06
-0.000225131
-4.5623e-06
-0.000259209
-3.96025e-06
-0.000296902
-3.3399e-06
-0.000337467
-2.69307e-06
-0.00038231
-2.06789e-06
-0.000429676
-1.49527e-06
-0.000479177
-1.00331e-06
-0.000530416
-6.30539e-07
-0.000582851
-3.04056e-07
-0.000637286
-1.02553e-07
-0.000690522
1.10936e-07
-0.00074695
1.05658e-07
-0.000792394
6.14938e-07
-0.000853807
-4.93191e-07
-0.000872411
1.4423e-06
-0.000971174
-3.5911e-07
-0.000933332
-0.00120176
1.28594e-05
-0.000117613
6.68786e-06
-0.000174848
4.13267e-06
-0.000222637
2.37672e-06
-0.000257452
1.26171e-06
-0.000295786
6.53639e-07
-0.000336879
3.76456e-07
-0.00038205
3.02828e-07
-0.000429629
3.03976e-07
-0.0004792
3.34335e-07
-0.000530486
3.27238e-07
-0.000582886
3.37727e-07
-0.00063732
3.0571e-07
-0.000690492
2.56881e-07
-0.000746903
1.72159e-07
-0.000792299
3.14508e-07
-0.000853929
-6.54272e-07
-0.00087146
1.32515e-06
-0.000973162
-1.72685e-06
-0.000930245
-0.00120348
2.49172e-05
-0.000100136
1.73594e-05
-0.000167409
1.21606e-05
-0.000217599
8.58987e-06
-0.00025397
6.07473e-06
-0.000293294
4.48225e-06
-0.000335288
3.40682e-06
-0.000380975
2.69665e-06
-0.000428926
2.14581e-06
-0.000478666
1.7257e-06
-0.000530092
1.34483e-06
-0.000582543
1.01151e-06
-0.000637023
7.18732e-07
-0.000690191
3.85644e-07
-0.000746566
1.84595e-07
-0.000792123
-1.57507e-07
-0.000853578
-7.632e-07
-0.000870847
9.84119e-07
-0.000974929
-3.5387e-06
-0.000925696
-0.00120698
2.41151e-05
-8.61137e-05
2.08216e-05
-0.000164117
1.62325e-05
-0.000213018
1.28871e-05
-0.000250607
1.00023e-05
-0.000290404
7.88737e-06
-0.000333174
6.24879e-06
-0.000379331
5.00886e-06
-0.000427693
3.95368e-06
-0.00047767
3.09312e-06
-0.000529273
2.38417e-06
-0.00058185
1.69784e-06
-0.000636386
1.14184e-06
-0.000689657
4.2359e-07
-0.000745835
1.65566e-07
-0.000791885
-1.0502e-06
-0.000852387
-7.89175e-07
-0.000871094
-4.02761e-07
-0.000975301
-4.90924e-06
-0.00092118
-0.00121188
1.35182e-05
-9.43399e-05
1.89655e-05
-0.000169622
1.88293e-05
-0.000212892
1.62283e-05
-0.000247942
1.36351e-05
-0.000287764
1.1153e-05
-0.000330678
9.08902e-06
-0.000377263
7.33629e-06
-0.000425904
5.83354e-06
-0.000476218
4.51105e-06
-0.000528011
3.49855e-06
-0.000580843
2.43861e-06
-0.000635347
1.75396e-06
-0.000689017
3.57325e-07
-0.000744478
4.85091e-07
-0.000792025
-2.49678e-06
-0.000849416
-2.53074e-07
-0.000873337
-4.51485e-06
-0.000971043
-4.9879e-06
-0.000920694
-0.00121689
1.49353e-05
-0.00011593
2.1545e-05
-0.000176151
2.04373e-05
-0.000211785
1.86506e-05
-0.000246153
1.6301e-05
-0.000285398
1.39515e-05
-0.000328295
1.16985e-05
-0.000375049
9.61751e-06
-0.00042382
7.72556e-06
-0.000474373
6.03243e-06
-0.000526335
4.68638e-06
-0.000579496
3.33207e-06
-0.000634033
2.48542e-06
-0.000688199
8.14406e-07
-0.000742841
9.37963e-07
-0.000792171
-2.23188e-06
-0.000846262
-1.51957e-08
-0.000875517
-7.25891e-06
-0.000963811
-1.17859e-05
-0.000916142
-0.00122869
1.95007e-06
-0.000117874
5.88746e-07
-0.000174773
8.43107e-07
-0.000212031
3.97686e-07
-0.000245702
4.33568e-07
-0.00028543
2.72137e-07
-0.000328124
1.53334e-07
-0.000374945
-4.94738e-08
-0.000423619
-2.08235e-07
-0.000474218
-3.72069e-07
-0.00052618
-4.44661e-07
-0.000579428
-5.62088e-07
-0.000633931
-4.8763e-07
-0.000688288
-6.90861e-07
-0.000742643
-2.38813e-07
-0.000792621
-8.98866e-07
-0.000845618
4.49511e-07
-0.000876877
-1.44168e-06
-0.000961936
2.35469e-06
-0.000919933
-0.00122634
2.09684e-06
-0.000119968
6.31288e-07
-0.000173305
8.84347e-07
-0.000212285
4.47593e-07
-0.000245263
5.10587e-07
-0.000285493
3.74581e-07
-0.000327987
2.7529e-07
-0.000374851
8.10663e-08
-0.000423425
-7.80726e-08
-0.000474061
-2.49723e-07
-0.000526009
-3.34444e-07
-0.000579343
-4.69337e-07
-0.000633799
-4.12741e-07
-0.000688342
-6.72645e-07
-0.000742384
-2.40719e-07
-0.000793055
-9.19999e-07
-0.000844941
4.55456e-07
-0.000878246
-1.49968e-06
-0.000959984
2.26257e-06
-0.000923696
-0.00122408
2.0417e-06
-0.000122008
6.58988e-07
-0.00017192
8.66695e-07
-0.000212491
4.69063e-07
-0.000244863
5.53476e-07
-0.000285579
4.5654e-07
-0.000327891
3.82323e-07
-0.000374782
2.04165e-07
-0.000423247
4.70064e-08
-0.000473908
-1.30258e-07
-0.000525831
-2.27555e-07
-0.000579245
-3.77087e-07
-0.000633652
-3.42641e-07
-0.000688376
-6.04237e-07
-0.000742123
-1.9987e-07
-0.00079346
-8.85724e-07
-0.000844258
4.80718e-07
-0.000879606
-1.49311e-06
-0.000958013
2.10915e-06
-0.0009273
-0.00122197
1.9381e-06
-0.000123944
6.47324e-07
-0.000170627
8.08229e-07
-0.000212649
4.49552e-07
-0.000244502
5.56965e-07
-0.000285689
5.05541e-07
-0.00032784
4.63476e-07
-0.000374744
3.07682e-07
-0.000423091
1.57094e-07
-0.000473761
-2.24223e-08
-0.000525651
-1.30155e-07
-0.000579135
-2.91952e-07
-0.000633493
-2.78429e-07
-0.000688389
-5.43966e-07
-0.000741857
-1.67127e-07
-0.000793836
-8.50933e-07
-0.000843578
5.01802e-07
-0.000880954
-1.48307e-06
-0.000956031
1.98385e-06
-0.000930768
-0.00121998
1.81871e-06
-0.00012576
6.11092e-07
-0.000169419
7.24818e-07
-0.000212761
4.0184e-07
-0.000244177
5.28678e-07
-0.00028582
5.23551e-07
-0.000327836
5.17449e-07
-0.000374743
3.8956e-07
-0.000422961
2.50006e-07
-0.000473625
7.21437e-08
-0.000525475
-4.31378e-08
-0.000579016
-2.13933e-07
-0.000633325
-2.17535e-07
-0.000688385
-4.83395e-07
-0.00074159
-1.35427e-07
-0.000794182
-8.14354e-07
-0.000842904
5.21137e-07
-0.000882285
-1.47399e-06
-0.000954038
1.87929e-06
-0.000934122
-0.0012181
1.69137e-06
-0.000127448
5.54266e-07
-0.000168283
6.20949e-07
-0.000212828
3.30857e-07
-0.000243885
4.73567e-07
-0.000285967
5.12758e-07
-0.000327875
5.43623e-07
-0.000374777
4.48548e-07
-0.000422862
3.2525e-07
-0.000473504
1.53245e-07
-0.000525305
3.35709e-08
-0.000578895
-1.42735e-07
-0.00063315
-1.58985e-07
-0.000688369
-4.19948e-07
-0.000741329
-1.01619e-07
-0.000794497
-7.76771e-07
-0.000842233
5.38668e-07
-0.000883598
-1.46783e-06
-0.000952033
1.79507e-06
-0.000937385
-0.00121631
1.55797e-06
-0.000129003
4.80231e-07
-0.000167209
4.99902e-07
-0.000212851
2.40402e-07
-0.000243623
3.95782e-07
-0.000286128
4.76309e-07
-0.000327955
5.43136e-07
-0.000374846
4.83824e-07
-0.000422799
3.82191e-07
-0.000473402
2.20696e-07
-0.000525148
9.99933e-08
-0.000578773
-7.83025e-08
-0.000632972
-1.04483e-07
-0.000688343
-3.55665e-07
-0.000741077
-6.5603e-08
-0.000794784
-7.38217e-07
-0.000841565
5.54786e-07
-0.000884889
-1.46562e-06
-0.000950015
1.73191e-06
-0.000940583
-0.00121458
1.4207e-06
-0.000130422
3.91731e-07
-0.000166185
3.64307e-07
-0.00021283
1.33929e-07
-0.000243391
2.99983e-07
-0.0002863
4.17737e-07
-0.000328071
5.1847e-07
-0.000374948
4.95762e-07
-0.000422771
4.19892e-07
-0.000473325
2.74519e-07
-0.000525008
1.56333e-07
-0.000578655
-2.05214e-08
-0.000632796
-5.43358e-08
-0.00068831
-2.93755e-07
-0.000740838
-3.15065e-08
-0.000795043
-6.99221e-07
-0.0008409
5.69004e-07
-0.000886156
-1.46732e-06
-0.000947982
1.6935e-06
-0.000943743
-0.00121289
1.28327e-06
-0.000131705
2.92018e-07
-0.0001652
2.16846e-07
-0.000212762
1.53708e-08
-0.000243189
1.91226e-07
-0.000286481
3.4176e-07
-0.000328219
4.73112e-07
-0.000375081
4.86118e-07
-0.00042278
4.38985e-07
-0.000473276
3.14941e-07
-0.000524891
2.02926e-07
-0.000578544
3.08022e-08
-0.000632624
-8.70957e-09
-0.000688271
-2.35578e-07
-0.000740612
-3.76578e-09
-0.000795273
-6.62828e-07
-0.000840244
5.77297e-07
-0.000887396
-1.47624e-06
-0.000945931
1.6855e-06
-0.000946905
-0.0012112
1.1471e-06
-0.000132853
1.83449e-07
-0.000164243
6.13254e-08
-0.000212646
-1.10435e-07
-0.000243017
7.43618e-08
-0.00028667
2.53358e-07
-0.000328394
4.11532e-07
-0.00037524
4.58452e-07
-0.000422822
4.40794e-07
-0.000473256
3.41816e-07
-0.000524799
2.40368e-07
-0.000578444
7.60269e-08
-0.000632459
2.96511e-08
-0.000688226
-1.89661e-07
-0.000740393
1.3433e-08
-0.000795476
-6.28502e-07
-0.000839603
5.78848e-07
-0.000888604
-1.49126e-06
-0.000943865
1.71035e-06
-0.000950108
-0.00120949
1.01455e-06
-0.00013387
6.98342e-08
-0.000163305
-9.80971e-08
-0.000212483
-2.38614e-07
-0.000242877
-4.59609e-08
-0.000286866
1.5746e-07
-0.000328594
3.38677e-07
-0.000375423
4.16728e-07
-0.000422897
4.27462e-07
-0.000473263
3.56298e-07
-0.000524735
2.69525e-07
-0.00057836
1.15781e-07
-0.000632306
6.40597e-08
-0.000688175
-1.4554e-07
-0.000740184
2.97477e-08
-0.000795652
-5.89974e-07
-0.000838985
5.83146e-07
-0.000889777
-1.50716e-06
-0.000941779
1.77184e-06
-0.000953388
-0.00120772
8.88413e-07
-0.00013476
-4.49153e-08
-0.000162377
-2.57144e-07
-0.000212272
-3.64406e-07
-0.000242772
-1.65529e-07
-0.000287067
5.87793e-08
-0.000328814
2.59458e-07
-0.000375625
3.65716e-07
-0.000423002
4.03157e-07
-0.000473297
3.60835e-07
-0.0005247
2.91463e-07
-0.000578293
1.50876e-07
-0.000632166
9.57317e-08
-0.000688122
-1.01826e-07
-0.000739985
4.57493e-08
-0.000795801
-5.49482e-07
-0.00083839
5.87347e-07
-0.000890914
-1.52284e-06
-0.000939673
1.87423e-06
-0.000956787
-0.00120584
7.71649e-07
-0.000135533
-1.5748e-07
-0.00016145
-4.12617e-07
-0.000212015
-4.83463e-07
-0.000242703
-2.8055e-07
-0.000287271
-3.8418e-08
-0.000329052
1.7861e-07
-0.000375843
3.1023e-07
-0.000423133
3.71784e-07
-0.000473356
3.57681e-07
-0.000524691
3.07494e-07
-0.000578245
1.82262e-07
-0.000632041
1.25406e-07
-0.000688067
-5.83367e-08
-0.000739799
6.13538e-08
-0.000795922
-5.05649e-07
-0.000837825
5.91457e-07
-0.000892012
-1.53769e-06
-0.000937548
2.02137e-06
-0.000960348
-0.00120382
6.67474e-07
-0.000136199
-2.64388e-07
-0.000160517
-5.60491e-07
-0.000211714
-5.91928e-07
-0.000242672
-3.87515e-07
-0.000287475
-1.30262e-07
-0.000329304
1.004e-07
-0.000376073
2.546e-07
-0.000423287
3.37539e-07
-0.000473436
3.49784e-07
-0.000524706
3.19134e-07
-0.000578215
2.11017e-07
-0.000631934
1.53886e-07
-0.000688013
-1.44577e-08
-0.000739627
7.69615e-08
-0.000796015
-4.58289e-07
-0.000837292
5.94524e-07
-0.000893065
-1.55129e-06
-0.000935405
2.21653e-06
-0.000964119
-0.0012016
5.78777e-07
-0.000136775
-3.61208e-07
-0.000159574
-6.95306e-07
-0.000211375
-6.8635e-07
-0.000242682
-4.83124e-07
-0.000287678
-2.13297e-07
-0.000329568
2.85468e-08
-0.000376313
2.02803e-07
-0.000423462
3.04528e-07
-0.000473536
3.40022e-07
-0.000524744
3.27908e-07
-0.000578202
2.38307e-07
-0.000631846
1.82157e-07
-0.000687961
3.02828e-08
-0.00073947
9.32199e-08
-0.00079608
-4.07355e-07
-0.000836796
5.96741e-07
-0.00089407
-1.56365e-06
-0.000933246
2.46225e-06
-0.000968148
-0.00119914
5.06985e-07
-0.00013728
-4.42217e-07
-0.000158619
-8.10919e-07
-0.000211003
-7.63403e-07
-0.000242729
-5.64174e-07
-0.000287877
-2.8431e-07
-0.000329841
-3.36436e-08
-0.00037656
1.58167e-07
-0.000423655
2.76017e-07
-0.000473652
3.31015e-07
-0.0005248
3.35546e-07
-0.000578207
2.65454e-07
-0.000631779
2.11202e-07
-0.000687911
7.62248e-08
-0.000739329
1.10436e-07
-0.000796116
-3.53288e-07
-0.000836339
5.98246e-07
-0.000895023
-1.5737e-06
-0.000931074
2.75952e-06
-0.000972485
-0.00119638
4.51701e-07
-0.00013773
-5.01065e-07
-0.000157662
-9.02672e-07
-0.000210601
-8.19304e-07
-0.000242812
-6.27298e-07
-0.000288071
-3.39959e-07
-0.000330122
-8.31009e-08
-0.000376811
1.23599e-07
-0.000423864
2.55048e-07
-0.000473784
3.25914e-07
-0.000524872
3.44327e-07
-0.000578225
2.93958e-07
-0.000631731
2.41782e-07
-0.000687864
1.24388e-07
-0.000739206
1.28051e-07
-0.000796121
-2.94455e-07
-0.000835924
5.95466e-07
-0.000895916
-1.57667e-06
-0.0009289
3.10541e-06
-0.00097717
-0.00119328
4.15679e-07
-0.000138146
-5.28828e-07
-0.000156716
-9.64685e-07
-0.000210166
-8.49897e-07
-0.000242927
-6.6894e-07
-0.000288256
-3.76891e-07
-0.00033041
-1.16897e-07
-0.000377065
1.01931e-07
-0.000424085
2.44306e-07
-0.000473927
3.27845e-07
-0.000524958
3.56925e-07
-0.000578255
3.2547e-07
-0.000631701
2.74527e-07
-0.000687819
1.76054e-07
-0.000739104
1.45957e-07
-0.000796092
-2.25035e-07
-0.000835561
5.79448e-07
-0.000896725
-1.56864e-06
-0.00092675
3.49275e-06
-0.000982234
-0.00118979
4.14626e-07
-0.000138561
-5.17947e-07
-0.000155786
-9.84503e-07
-0.000209699
-8.5172e-07
-0.000243059
-6.85612e-07
-0.000288424
-3.93753e-07
-0.0003307
-1.33449e-07
-0.000377319
9.44546e-08
-0.000424315
2.45525e-07
-0.00047408
3.39129e-07
-0.000525055
3.76037e-07
-0.000578293
3.60868e-07
-0.000631686
3.10884e-07
-0.000687774
2.30547e-07
-0.000739023
1.71515e-07
-0.000796035
-1.44886e-07
-0.000835251
5.52373e-07
-0.000897426
-1.56067e-06
-0.000924636
3.93025e-06
-0.000987727
-0.00118586
4.43304e-07
-0.000139001
-3.98878e-07
-0.000154945
-9.51356e-07
-0.000209142
-8.13792e-07
-0.000243191
-6.8395e-07
-0.000288551
-3.99215e-07
-0.000330988
-1.43129e-07
-0.000377571
9.35884e-08
-0.000424546
2.53054e-07
-0.000474238
3.57078e-07
-0.00052517
3.99704e-07
-0.00057834
4.00273e-07
-0.000631677
3.46632e-07
-0.00068772
2.91397e-07
-0.000738982
2.07252e-07
-0.000795957
-2.90142e-08
-0.000835006
5.12894e-07
-0.000897966
-1.41142e-06
-0.000922726
4.16121e-06
-0.000993308
-0.00118169
-1.07216e-05
-0.00011122
-1.70379e-05
-9.72622e-06
-0.00015589