/*--------------------------------*- C++ -*----------------------------------*\
  =========                 |
  \\      /  F ield         | OpenFOAM: The Open Source CFD Toolbox
   \\    /   O peration     | Website:  https://openfoam.org
    \\  /    A nd           | Version:  10
     \\/     M anipulation  |
\*---------------------------------------------------------------------------*/
FoamFile
{
    format      ascii;
    class       surfaceScalarField;
    location    "200";
    object      phi;
}
// * * * * * * * * * * * * * * * * * * * * * * * * * * * * * * * * * * * * * //

dimensions      [0 3 -1 0 0 0 0];

internalField   nonuniform List<scalar> 
788
(
6.23446e-06
-3.64444e-07
5.06932e-06
9.36031e-06
5.97304e-06
1.56682e-05
7.61571e-06
1.81671e-05
9.34415e-06
1.74977e-05
1.08643e-05
1.36893e-05
1.21404e-05
5.76086e-06
1.3886e-05
-5.72452e-06
1.58319e-05
-2.18374e-05
-3.78784e-05
1.67475e-05
3.39403e-06
-3.73642e-06
4.08968e-06
8.70737e-06
5.2699e-06
1.45127e-05
6.90327e-06
1.65749e-05
8.82492e-06
1.55888e-05
1.11776e-05
1.12658e-05
1.38468e-05
2.91246e-06
1.6456e-05
-8.57419e-06
1.76535e-05
-2.32169e-05
-3.76179e-05
1.73426e-05
1.95421e-06
-5.67607e-06
3.75848e-06
6.98912e-06
5.97849e-06
1.24002e-05
8.53775e-06
1.40776e-05
1.12799e-05
1.28098e-05
1.41259e-05
8.2749e-06
1.6538e-05
2.59489e-07
1.79679e-05
-1.02675e-05
1.76352e-05
-2.3053e-05
-3.60462e-05
1.60148e-05
1.22195e-06
-6.86281e-06
3.22127e-06
5.11173e-06
5.99768e-06
9.75346e-06
9.13978e-06
1.09879e-05
1.22825e-05
9.60168e-06
1.50806e-05
5.31118e-06
1.67986e-05
-1.68616e-06
1.70193e-05
-1.0699e-05
1.52567e-05
-2.13938e-05
-3.31656e-05
1.23935e-05
6.08308e-07
-7.42003e-06
2.32881e-06
3.53512e-06
5.13829e-06
7.0767e-06
8.3363e-06
7.83548e-06
1.13852e-05
6.48778e-06
1.3713e-05
2.83304e-06
1.4532e-05
-2.69606e-06
1.34876e-05
-9.81548e-06
1.03079e-05
-1.82796e-05
-2.91597e-05
6.33911e-06
-8.11448e-08
-7.2808e-06
1.13723e-06
2.47501e-06
3.62934e-06
4.72197e-06
6.46789e-06
5.04626e-06
8.99704e-06
3.91072e-06
1.05102e-05
1.19822e-06
1.02445e-05
-2.58642e-06
7.74452e-06
-7.45016e-06
3.16337e-06
-1.37581e-05
-2.45195e-05
-1.44792e-06
-8.52584e-07
-6.36682e-06
-1.4983e-07
1.94303e-06
1.85016e-06
2.87448e-06
4.07736e-06
2.88813e-06
5.84107e-06
2.1267e-06
6.385e-06
5.55632e-07
5.01387e-06
-1.3634e-06
1.19372e-06
-3.77521e-06
-4.35999e-06
-8.28789e-06
-2.01491e-05
-8.73073e-06
-1.63025e-06
-4.67227e-06
-1.22528e-06
1.72285e-06
2.99242e-07
1.52711e-06
1.85687e-06
1.4282e-06
2.8612e-06
1.12326e-06
2.68542e-06
6.29443e-07
8.44505e-07
3.0568e-07
-3.01595e-06
-6.97855e-08
-8.29525e-06
-3.06809e-06
-1.58688e-05
-1.25472e-05
-2.35434e-06
-2.2498e-06
-1.66898e-06
1.21959e-06
-4.51186e-07
4.71457e-07
6.11939e-07
4.43629e-07
1.18426e-06
5.29464e-07
9.21708e-07
7.7011e-07
-1.69343e-07
1.22304e-06
-1.92906e-06
1.57095e-06
-5.48224e-06
5.1954e-07
-8.44892e-06
-1.2773e-05
-2.1944e-06
-8.99052e-07
-3.88688e-07
4.56757e-08
5.24919e-07
1.2278e-06
2.39558e-06
3.94795e-06
4.49253e-06
-3.93735e-06
1.63097e-05
-5.56172e-05
1.51291e-05
-8.48553e-05
1.45114e-05
-0.000127988
1.498e-05
-0.000184209
1.65605e-05
-0.000250812
1.84524e-05
-0.000340751
2.68163e-05
-0.000442473
4.005e-05
-0.000569832
3.81898e-05
-0.000723225
-0.00013331
1.60159e-05
-5.42191e-05
1.43873e-05
-8.30845e-05
1.35094e-05
-0.000126988
1.34155e-05
-0.000184047
1.42085e-05
-0.000251541
1.50721e-05
-0.000341627
1.86866e-05
-0.000446257
2.64945e-05
-0.000577812
2.39353e-05
-0.000720243
-0.000109767
1.38924e-05
-5.20721e-05
1.20641e-05
-8.12702e-05
1.11227e-05
-0.00012624
1.0477e-05
-0.000183761
1.05135e-05
-0.000251652
1.02544e-05
-0.000341091
1.06538e-05
-0.000446717
1.4861e-05
-0.000582275
7.55515e-06
-0.000713235
-0.00010219
9.68139e-06
-4.92801e-05
8.10578e-06
-7.96786e-05
7.47666e-06
-0.000125795
6.62866e-06
-0.00018327
6.13244e-06
-0.000251186
4.91034e-06
-0.000339636
2.75643e-06
-0.000444971
4.55745e-06
-0.000583866
-1.90789e-06
-0.000707031
-0.000103959
3.59283e-06
-4.64577e-05
3.0001e-06
-7.90958e-05
3.05785e-06
-0.000126033
2.33615e-06
-0.000182777
1.60898e-06
-0.00025034
-2.89949e-07
-0.00033749
-3.96145e-06
-0.000441593
-3.95526e-06
-0.000583539
-8.14835e-06
-0.000703066
-0.000111988
-3.19063e-06
-4.46617e-05
-2.19136e-06
-8.01439e-05
-1.37819e-06
-0.000127038
-1.83649e-06
-0.000182452
-2.5886e-06
-0.000249415
-4.90986e-06
-0.000335106
-9.33801e-06
-0.000437374
-1.00605e-05
-0.000582541
-1.22992e-05
-0.000701102
-0.000124202
-8.53616e-06
-4.4823e-05
-6.25529e-06
-8.24701e-05
-5.10735e-06
-0.00012832
-5.35888e-06
-0.000182204
-6.07039e-06
-0.000248488
-8.53918e-06
-0.00033278
-1.31851e-05
-0.00043294
-1.42334e-05
-0.000581296
-1.53866e-05
-0.000700279
-0.000139522
-1.08648e-05
-4.64848e-05
-8.48915e-06
-8.4926e-05
-7.57059e-06
-0.00012935
-7.80164e-06
-0.000181885
-8.55288e-06
-0.000247499
-1.10133e-05
-0.000330611
-1.56334e-05
-0.000428553
-1.6705e-05
-0.000580031
-1.80636e-05
-0.000699236
-0.000157638
-1.01486e-05
-4.90759e-05
-8.3941e-06
-8.67752e-05
-8.29152e-06
-0.000129532
-8.88535e-06
-0.000181158
-9.82186e-06
-0.000246328
-1.22101e-05
-0.000328593
-1.71064e-05
-0.000423908
-1.96557e-05
-0.000577215
-2.14551e-05
-0.000697461
-0.000179532
-3.61343e-06
-4.94599e-05
-5.22215e-06
-8.52488e-05
-7.34814e-06
-0.000127561
-8.71361e-06
-0.000179802
-9.92226e-06
-0.000244965
-1.15256e-05
-0.000327121
-1.45796e-05
-0.000420893
-1.9896e-05
-0.000572161
-2.49191e-05
-0.000692203
-0.000204541
-4.11587e-07
-4.91295e-05
-3.03615e-06
-8.2799e-05
-4.86459e-06
-0.000125874
-5.66683e-06
-0.000178894
-5.97121e-06
-0.000244462
-7.16691e-06
-0.000326184
-9.67548e-06
-0.00041845
-3.64696e-06
-0.00057847
9.16831e-06
-0.000704891
-0.000195401
1.03093e-06
-5.022e-05
-1.20199e-06
-8.07091e-05
-2.82498e-06
-0.000124367
-3.37467e-06
-0.000178173
-3.55428e-06
-0.000244094
-4.76666e-06
-0.000325405
-8.04652e-06
-0.000415209
-3.47264e-06
-0.000583027
9.52628e-06
-0.00071782
-0.000186076
-7.0965e-06
-4.29421e-05
-2.47429e-07
-8.48141e-06
-7.86902e-05
-1.03229e-05
-0.00012267
-1.19178e-05
-0.000176617
-1.35438e-05
-0.000242451
-1.47121e-05
-0.000324582
-1.71381e-05
-0.000412621
-2.32615e-05
-0.0005772
-2.36142e-05
-0.000717452
-0.000209624
-1.13879e-05
-4.66103e-05
1.55255e-05
-9.79747e-06
-7.98554e-05
-9.87967e-06
-0.000122923
-1.04467e-05
-0.000176136
-1.14813e-05
-0.000241383
-1.25465e-05
-0.000324003
-1.677e-05
-0.000408247
-2.21635e-05
-0.000571966
-1.84441e-05
-0.000721331
-0.000228009
-1.17561e-05
-4.96878e-05
1.52454e-05
-9.68991e-06
-8.16686e-05
-9.24068e-06
-0.000123813
-9.29212e-06
-0.000176188
-1.00023e-05
-0.000240584
-1.08828e-05
-0.000323594
-1.55222e-05
-0.000403665
-2.1718e-05
-0.000565666
-1.74102e-05
-0.000725782
-0.000245362
-9.50332e-06
-5.19691e-05
1.20998e-05
-7.78038e-06
-8.33719e-05
-7.21223e-06
-0.000124865
-6.97795e-06
-0.000176503
-7.43248e-06
-0.000239941
-7.98014e-06
-0.000323289
-1.21942e-05
-0.000399453
-1.89103e-05
-0.000558844
-1.60735e-05
-0.000728822
-0.000261374
-5.84933e-06
-5.36104e-05
7.64964e-06
-4.6273e-06
-8.47656e-05
-4.04157e-06
-0.000125886
-3.55013e-06
-0.000177017
-3.65526e-06
-0.000239622
-3.87698e-06
-0.000323296
-7.27078e-06
-0.000396072
-1.39361e-05
-0.000552075
-1.37294e-05
-0.000729255
-0.000275026
-1.515e-06
-5.47189e-05
2.62942e-06
-6.89902e-07
-8.58404e-05
-5.69789e-08
-0.000126869
8.14976e-07
-0.000177815
1.39064e-06
-0.000239907
1.74386e-06
-0.000323853
1.25994e-07
-0.000394492
-5.75522e-06
-0.00054609
-9.3782e-06
-0.00072582
-0.000284327
2.98064e-06
-5.53579e-05
-2.40404e-06
3.54172e-06
-8.66486e-05
4.32516e-06
-0.000127898
5.83395e-06
-0.000179134
7.63166e-06
-0.000241336
9.34225e-06
-0.000325761
1.09774e-05
-0.00039621
8.27142e-06
-0.000543264
1.03741e-06
-0.000718681
-0.00028326
7.31267e-06
-5.57072e-05
-7.04682e-06
7.62637e-06
-8.71744e-05
8.48644e-06
-0.000128893
1.05233e-05
-0.000180884
1.3452e-05
-0.000243906
1.72726e-05
-0.000329909
2.41982e-05
-0.000403384
2.80052e-05
-0.000546944
2.63167e-05
-0.000717063
-0.000256879
1.13986e-05
-5.59666e-05
-1.12271e-05
1.11773e-05
-8.71038e-05
1.15841e-05
-0.000129324
1.35852e-05
-0.000182583
1.67218e-05
-0.000246909
2.10733e-05
-0.000335116
3.48441e-05
-0.000418115
3.57965e-05
-0.000547684
2.12347e-05
-0.000701931
-0.000236036
1.49838e-05
-1.48818e-05
1.39702e-05
1.32385e-05
1.41042e-05
1.55004e-05
1.75351e-05
3.31753e-05
4.3969e-05
6.52805e-05
-1.3544e-05
1.36318e-05
-2.30242e-05
2.56088e-05
-2.75695e-05
2.03446e-05
-3.04312e-05
1.52103e-05
-3.2378e-05
9.658e-06
-3.37161e-05
3.91493e-06
-3.45298e-05
-1.71491e-06
-3.49861e-05
-6.73843e-06
-3.56644e-05
-1.06426e-05
-1.37674e-05
-2.09951e-06
1.60176e-05
-6.32704e-06
3.04567e-05
-9.97939e-06
2.45839e-05
-1.25348e-05
1.82105e-05
-1.43232e-05
1.17734e-05
-1.56627e-05
5.45323e-06
-1.66537e-05
-6.1426e-07
-1.73169e-05
-6.00123e-06
-1.80373e-05
-9.90176e-06
-1.25217e-05
2.18408e-06
1.40756e-05
3.29324e-06
2.97991e-05
2.28523e-06
2.59734e-05
9.64141e-07
1.98149e-05
-1.64124e-07
1.30793e-05
-1.09956e-06
6.47624e-06
-1.88694e-06
2.17398e-07
-2.50403e-06
-5.37552e-06
-2.66202e-06
-9.83306e-06
-1.20746e-05
3.70628e-06
1.05144e-05
8.71296e-06
2.49952e-05
1.09365e-05
2.38147e-05
1.18144e-05
1.89692e-05
1.18939e-05
1.29822e-05
1.14919e-05
6.83268e-06
1.0743e-05
9.20466e-07
9.71126e-06
-4.4195e-06
8.67982e-06
-8.94164e-06
-1.09601e-05
3.59819e-06
6.9526e-06
1.04098e-05
1.81262e-05
1.49997e-05
1.90008e-05
1.77428e-05
1.60412e-05
1.913e-05
1.14303e-05
1.95757e-05
6.2534e-06
1.92968e-05
1.10433e-06
1.83962e-05
-3.605e-06
1.70211e-05
-7.65385e-06
-9.38816e-06
2.87907e-06
4.03286e-06
9.52112e-06
1.12466e-05
1.51813e-05
1.29601e-05
1.93191e-05
1.16186e-05
2.1938e-05
8.59194e-06
2.32308e-05
4.80476e-06
2.34028e-05
8.33538e-07
2.26585e-05
-2.92363e-06
2.11314e-05
-6.16946e-06
-7.53363e-06
2.1231e-06
1.83893e-06
7.59262e-06
5.45859e-06
1.30922e-05
7.04041e-06
1.7647e-05
6.77421e-06
2.08367e-05
5.19571e-06
2.26727e-05
2.834e-06
2.32728e-05
1.54269e-07
2.28078e-05
-2.49838e-06
2.1424e-05
-4.80337e-06
-5.82146e-06
1.57232e-06
1.96987e-07
5.47404e-06
1.24174e-06
9.86015e-06
2.27284e-06
1.38504e-05
2.53361e-06
1.68717e-05
1.99894e-06
1.87007e-05
8.91476e-07
1.93227e-05
-5.34743e-07
1.88942e-05
-2.10042e-06
1.76601e-05
-3.56801e-06
-4.46936e-06
9.73019e-07
-8.30798e-07
3.09513e-06
-1.14038e-06
5.8007e-06
-7.00175e-07
8.40483e-06
-2.46896e-07
1.04087e-05
-1.27543e-07
1.15135e-05
-2.97442e-07
1.1565e-05
-6.46552e-07
1.05866e-05
-1.16118e-06
8.96466e-06
-1.94204e-06
-3.37699e-06
-8.6773e-07
-2.13716e-06
-2.91631e-06
-3.21422e-06
-3.37378e-06
-3.691e-06
-4.34976e-06
-5.5097e-06
-7.41359e-06
)
;

boundaryField
{
    right
    {
        type            cyclic;
        value           nonuniform List<scalar> 
20
(
0.000171012
0.000724101
0.000558756
0.000433032
0.000336638
0.000247782
0.000182969
0.000128308
8.59738e-05
5.60225e-05
3.68714e-05
1.95595e-05
3.50829e-06
-7.34381e-06
-1.53347e-05
-1.91914e-05
-1.9663e-05
-1.63659e-05
-7.90037e-06
1.06003e-05
)
;
    }
    left
    {
        type            cyclic;
        value           nonuniform List<scalar> 
20
(
-0.000171012
-0.000724101
-0.000558756
-0.000433032
-0.000336638
-0.000247782
-0.000182969
-0.000128308
-8.59738e-05
-5.60225e-05
-3.68714e-05
-1.95595e-05
-3.50829e-06
7.34381e-06
1.53347e-05
1.91914e-05
1.9663e-05
1.63659e-05
7.90037e-06
-1.06003e-05
)
;
    }
    outerWall
    {
        type            calculated;
        value           uniform 0;
    }
    stirrerWall
    {
        type            calculated;
        value           uniform 0;
    }
    top
    {
        type            empty;
        value           nonuniform List<scalar> 0();
    }
    bottom
    {
        type            empty;
        value           nonuniform List<scalar> 0();
    }
}


// ************************************************************************* //
