/*--------------------------------*- C++ -*----------------------------------*\
  =========                 |
  \\      /  F ield         | OpenFOAM: The Open Source CFD Toolbox
   \\    /   O peration     | Website:  https://openfoam.org
    \\  /    A nd           | Version:  10
     \\/     M anipulation  |
\*---------------------------------------------------------------------------*/
FoamFile
{
    format      ascii;
    class       volVectorField;
    location    "200";
    object      U;
}
// * * * * * * * * * * * * * * * * * * * * * * * * * * * * * * * * * * * * * //

dimensions      [0 1 -1 0 0 0 0];

internalField   nonuniform List<vector> 
2000
(
(1.92533 37.1102 -6.33374e-18)
(-1.45186 42.3517 7.63542e-18)
(2.2736 48.8408 -6.05658e-18)
(5.51428 56.5921 0)
(8.51194 63.8361 0)
(10.5057 69.3826 1.46865e-16)
(11.7278 73.277 -1.99011e-16)
(12.3524 75.9473 -2.62031e-16)
(12.5242 77.7285 3.38646e-16)
(12.3706 78.9031 4.32614e-16)
(12.0042 79.6877 5.49927e-16)
(11.5074 80.2069 0)
(11.0085 80.5859 8.93962e-16)
(10.2974 80.7113 9.19329e-16)
(9.49605 80.8559 8.9605e-16)
(8.70683 81.163 8.72443e-16)
(8.0161 81.7588 -8.40427e-16)
(7.3692 82.5791 3.83279e-16)
(6.59401 83.6632 3.80973e-16)
(5.55659 85.082 1.5932e-15)
(0.584069 37.1299 5.23667e-18)
(-4.08362 41.6313 1.05052e-17)
(-0.856624 46.9529 -7.37824e-17)
(2.50249 54.4754 -2.37988e-16)
(5.67203 62.0529 4.16001e-17)
(7.97439 68.1195 -6.10221e-16)
(9.43665 72.4914 3.70494e-16)
(10.2399 75.5492 7.52959e-16)
(10.5757 77.629 2.95549e-16)
(10.4872 79.0125 3.79799e-16)
(10.1437 79.917 -9.79916e-16)
(9.58765 80.5125 -6.07354e-16)
(8.93534 80.9343 -8.28671e-16)
(8.11057 81.1404 -8.65389e-16)
(7.18842 81.3782 -2.58845e-15)
(6.23273 81.7996 -9.40887e-16)
(5.26791 82.5367 2.39138e-15)
(4.14838 83.6284 -2.26412e-15)
(2.74966 85.0624 0)
(1.14405 86.719 -2.3658e-15)
(-0.548308 37.2806 2.09944e-18)
(-5.60349 41.1983 -5.52386e-17)
(-4.12632 45.2915 8.58702e-17)
(-1.53139 51.5097 2.61462e-16)
(1.3323 58.986 4.01879e-16)
(4.12887 65.615 1.28863e-16)
(6.0522 70.6587 3.78231e-16)
(7.21574 74.2944 -7.18603e-16)
(7.76227 76.8626 -6.40085e-16)
(7.88944 78.6425 -7.97994e-16)
(7.59098 79.8702 9.89297e-16)
(7.05554 80.7348 0)
(6.36803 81.3869 -2.92777e-15)
(5.46673 81.7436 0)
(4.36761 82.1092 0)
(3.10023 82.6823 0)
(1.65329 83.6307 1.67243e-15)
(-0.0786631 85.0178 -2.92083e-15)
(-2.11059 86.7277 0)
(-4.15464 88.4542 1.65681e-15)
(-1.58811 37.3643 -4.36467e-17)
(-6.60569 40.9231 2.13741e-16)
(-5.95142 44.4791 0)
(-4.61059 49.766 5.11294e-16)
(-2.85421 56.2797 1.41228e-16)
(-0.224747 62.8894 1.21399e-16)
(1.91038 68.4365 -6.40327e-17)
(3.32047 72.658 1.24904e-15)
(4.07384 75.7596 0)
(4.29637 77.9988 5.90416e-16)
(4.08616 79.6082 8.3691e-16)
(3.54607 80.7605 2.19066e-15)
(2.82139 81.6442 2.88072e-15)
(1.77267 82.1969 6.05717e-15)
(0.404792 82.7898 -2.84121e-15)
(-1.28108 83.6605 -1.64812e-16)
(-3.32005 84.9506 5.93722e-15)
(-5.66957 86.6608 3.11196e-15)
(-8.1749 88.5521 3.3278e-15)
(-10.3212 90.0815 3.62622e-15)
(-2.72944 37.2885 0)
(-7.56838 40.5903 -3.78524e-16)
(-7.0615 43.8742 -1.39498e-16)
(-6.86032 48.6104 -5.79283e-16)
(-5.82702 54.1669 -8.81433e-16)
(-4.47743 60.2439 2.33427e-16)
(-2.60147 65.9191 -7.54229e-16)
(-1.22666 70.5889 -1.2625e-15)
(-0.446216 74.2059 -4.89117e-16)
(-0.208192 76.9284 8.15633e-17)
(-0.415866 78.9632 -1.60502e-15)
(-1.00809 80.4751 -2.27633e-15)
(-1.93346 81.6644 -2.66422e-15)
(-3.28061 82.5148 -3.01211e-15)
(-5.04004 83.4504 0)
(-7.24536 84.7525 9.5617e-17)
(-9.9175 86.4596 1.34622e-16)
(-12.7638 88.4211 -3.45149e-15)
(-15.366 90.2252 -1.1727e-14)
(-17.0164 91.1079 3.86905e-15)
(-3.9667 37.051 0)
(-8.69494 40.1167 1.91519e-16)
(-8.04977 43.228 0)
(-8.3491 47.6542 3.38058e-16)
(-7.95571 53.0107 1.11218e-15)
(-7.87518 58.2635 0)
(-6.95406 63.568 1.42602e-15)
(-6.01775 68.3863 2.67276e-15)
(-5.50157 72.3829 0)
(-5.46951 75.5465 -1.13557e-15)
(-5.89958 78.0062 3.79263e-15)
(-6.7634 79.9098 3.75628e-16)
(-8.05386 81.4281 3.27034e-15)
(-9.85365 82.6481 -2.87153e-15)
(-12.1733 84.0601 0)
(-14.9966 85.8935 -6.82088e-15)
(-18.2191 88.0322 -3.7166e-15)
(-21.1283 89.9978 0)
(-23.0289 91.1981 1.00072e-14)
(-23.3394 90.7979 -2.10279e-14)
(-5.24862 36.7048 -8.02778e-17)
(-9.98713 39.4941 4.34892e-17)
(-9.22953 42.5068 -3.64912e-16)
(-9.59406 46.7602 -1.53808e-16)
(-9.98501 51.956 4.40644e-17)
(-10.2799 57.0064 -8.84004e-16)
(-10.6289 61.7715 1.72035e-15)
(-10.5444 66.4326 -2.89531e-15)
(-10.623 70.6081 -3.7577e-15)
(-11.086 74.0988 2.74631e-15)
(-11.9886 76.9389 -2.21123e-15)
(-13.3929 79.2388 -2.6041e-15)
(-15.3772 81.1169 2.80483e-15)
(-17.9557 82.7515 -7.05339e-15)
(-21.0878 84.781 0)
(-24.5015 87.205 1.78042e-14)
(-27.7209 89.5321 -2.0017e-14)
(-29.5312 90.4692 1.12258e-14)
(-29.661 89.7619 1.44197e-14)
(-28.1689 88.1489 4.29399e-16)
(-6.55638 36.2864 9.30772e-18)
(-11.435 38.7706 -1.06306e-16)
(-10.6645 41.6506 4.47824e-16)
(-11.0412 45.7877 -5.52274e-16)
(-11.7117 50.9416 -9.87292e-16)
(-12.5729 56.0237 0)
(-13.5007 60.486 -2.07477e-15)
(-14.5322 64.9368 0)
(-15.4187 69.1498 2.82732e-15)
(-16.6072 72.8475 0)
(-18.2358 76.0172 0)
(-20.4679 78.738 -4.98617e-16)
(-23.5008 81.146 1.43234e-14)
(-27.2475 83.2387 1.0023e-14)
(-31.2519 85.5285 6.27257e-16)
(-34.6967 87.2753 -1.29661e-14)
(-36.5162 87.7617 0)
(-35.3571 87.6528 0)
(-33.5187 87.2506 1.39401e-14)
(-31.6599 85.8517 2.48076e-14)
(-7.89073 35.8449 6.11469e-17)
(-12.9915 38.0002 -2.47824e-16)
(-12.3046 40.7074 1.86001e-16)
(-12.8307 44.7062 -3.19297e-16)
(-13.6737 49.8895 -6.21895e-16)
(-15.0113 55.0934 7.00788e-16)
(-16.382 59.5743 1.44096e-15)
(-18.0672 63.8397 -1.3359e-15)
(-19.7979 68.1413 0)
(-21.7567 72.0001 -4.69573e-15)
(-24.2215 75.5039 4.67701e-15)
(-27.3754 78.7562 -6.64628e-15)
(-31.3392 81.7932 0)
(-35.9004 83.6937 1.26132e-15)
(-39.5047 85.2994 9.0173e-16)
(-40.4933 86.9222 1.58975e-14)
(-40.1475 86.7623 -2.77288e-14)
(-38.5798 85.8068 1.20872e-14)
(-36.672 84.454 -1.13632e-14)
(-34.821 82.9425 -1.04801e-14)
(-9.26842 35.4138 0)
(-14.6224 37.2454 9.41684e-18)
(-14.12 39.6914 -4.66104e-16)
(-14.8891 43.4924 -2.6132e-17)
(-15.9751 48.7184 0)
(-17.6672 54.1685 0)
(-19.588 58.8357 -4.83452e-15)
(-21.435 62.9593 1.7806e-15)
(-23.8256 67.5498 -9.92283e-15)
(-26.3472 71.5798 -1.14174e-15)
(-29.4074 75.2615 1.3153e-14)
(-33.1697 78.5829 -7.66005e-15)
(-37.5079 83.0473 5.18315e-16)
(-41.2956 86.9148 1.57797e-15)
(-43.7591 88.1248 -8.5637e-15)
(-44.5516 87.3457 0)
(-43.8402 84.7887 -1.07407e-14)
(-41.7022 82.5002 4.36697e-14)
(-39.4746 81.2808 -1.95467e-14)
(-37.5012 80.1474 9.84883e-15)
(-10.713 35.0126 5.53078e-17)
(-16.3437 36.4684 2.85289e-16)
(-16.1048 38.6308 4.65185e-16)
(-17.2935 42.1491 2.59483e-16)
(-18.5693 47.3576 5.19506e-16)
(-20.5174 53.0388 0)
(-22.6602 57.895 1.38615e-15)
(-24.6253 61.8378 2.43188e-15)
(-27.3918 66.8415 -7.32955e-15)
(-30.303 71.0167 1.36167e-14)
(-34.2521 75.5292 9.06679e-15)
(-38.9133 80.4896 -6.9404e-15)
(-43.1479 84.7673 1.30418e-14)
(-46.3821 86.7193 7.17085e-15)
(-48.2479 86.5797 7.65363e-15)
(-47.9566 85.2571 9.50162e-16)
(-45.4668 82.2654 -9.52857e-15)
(-42.9264 80.0111 4.11907e-16)
(-41.206 78.9174 -2.08618e-14)
(-39.6162 77.7421 -1.0254e-14)
(-12.2476 34.68 0)
(-18.2553 35.7434 -1.96802e-16)
(-18.492 37.5685 1.83306e-16)
(-19.9681 40.7536 -4.85002e-16)
(-21.4814 45.7552 1.44404e-15)
(-23.6248 51.3835 -1.11433e-15)
(-25.8824 56.1362 0)
(-28.2643 60.0919 0)
(-31.3367 65.69 6.34882e-15)
(-34.8924 71.0163 0)
(-39.0551 75.8494 9.87603e-16)
(-43.1279 80.5078 -1.17218e-14)
(-46.5543 84.6522 6.48178e-15)
(-48.9267 86.8122 -6.08991e-15)
(-49.7659 86.1197 0)
(-48.6526 83.6239 8.74976e-15)
(-46.2048 79.7844 0)
(-44.4103 77.9192 -1.09957e-14)
(-42.7999 76.8931 -2.07164e-14)
(-41.2852 75.7334 1.8024e-14)
(-13.8553 34.4612 -2.18639e-17)
(-20.3299 35.1419 -2.9566e-16)
(-21.0447 36.6079 0)
(-22.8288 39.4319 -7.80262e-16)
(-24.6897 44.3489 -5.93376e-16)
(-27.2201 50.2866 -1.08935e-15)
(-29.813 55.4058 0)
(-32.4073 59.7146 0)
(-35.2396 64.9653 6.74834e-15)
(-38.5646 70.7257 0)
(-42.4947 75.894 6.48029e-15)
(-46.4023 80.8076 -5.20067e-15)
(-49.6295 84.7076 -5.19348e-15)
(-51.6241 86.3658 8.45174e-16)
(-52.0975 85.5846 -2.06098e-14)
(-50.6192 82.5552 7.75857e-15)
(-47.426 78.485 -1.18092e-14)
(-45.5052 76.3202 0)
(-43.7218 75.2949 -1.01833e-14)
(-42.2936 74.1754 2.82972e-14)
(-15.522 34.3899 -1.08503e-16)
(-22.4851 34.6961 5.51167e-16)
(-23.6823 35.6525 -1.82002e-16)
(-25.6982 38.0054 7.51596e-16)
(-27.6876 42.5769 1.38173e-15)
(-30.1786 48.5497 -3.22705e-15)
(-32.8128 54.0056 8.93291e-15)
(-35.3659 58.6175 -1.12466e-14)
(-38.3448 63.6319 -2.33434e-16)
(-41.7519 69.8912 -6.45929e-15)
(-45.5281 75.3692 1.72732e-14)
(-49.0542 80.4682 -1.19205e-14)
(-51.7009 84.2751 5.66606e-15)
(-53.0205 85.7959 0)
(-52.7745 84.6051 0)
(-50.6903 81.0779 0)
(-47.0283 77.1621 1.54423e-14)
(-45.529 75.1904 8.52237e-16)
(-43.7739 74.2138 -1.09443e-14)
(-42.7452 73.2668 -9.56594e-15)
(-17.2343 34.4497 -2.02377e-17)
(-24.6558 34.4635 -6.21278e-16)
(-26.335 34.8609 -3.28294e-16)
(-28.5806 36.5601 3.15606e-16)
(-30.6255 40.3234 9.64524e-16)
(-32.8522 45.7767 -1.12484e-15)
(-35.2788 51.3372 0)
(-37.7258 56.3964 0)
(-40.9795 61.8181 0)
(-44.5015 68.5829 0)
(-47.9713 74.3472 -1.11558e-14)
(-50.835 79.6251 1.78594e-14)
(-52.4085 83.6409 -5.95964e-15)
(-52.9484 85.515 0)
(-51.769 84.6979 0)
(-49.3707 81.3637 0)
(-45.805 77.6122 3.60552e-14)
(-44.4915 74.9057 9.28645e-16)
(-42.9168 73.8664 5.22111e-16)
(-42.6531 73.337 0)
(-18.9787 34.61 0)
(-26.7759 34.4458 1.33519e-15)
(-28.8752 34.4111 -3.53526e-16)
(-31.419 35.4017 2.02666e-15)
(-33.7178 38.0387 -2.92764e-15)
(-35.9521 42.4349 0)
(-38.3249 47.5558 0)
(-40.8444 52.89 1.23805e-14)
(-43.9658 59.0556 0)
(-47.0162 66.2855 0)
(-49.8071 72.4498 -1.29315e-14)
(-51.7164 77.9499 2.09397e-14)
(-52.5954 82.2524 -7.11263e-15)
(-51.7262 84.6487 -3.62452e-14)
(-49.6013 84.6566 -1.45113e-15)
(-46.5181 82.5019 -2.04146e-15)
(-41.9731 80.3982 1.16766e-13)
(-41.4873 76.667 3.56208e-14)
(-41.3269 75.2204 0)
(-42.4723 74.9334 -2.49919e-14)
(-20.7269 34.818 0)
(-28.7326 34.6161 -7.35424e-16)
(-31.1162 34.49 1.33323e-15)
(-34.0191 34.9757 -1.1696e-15)
(-36.7547 36.6402 2.30995e-15)
(-39.3166 39.7861 0)
(-41.7805 44.0503 0)
(-44.3713 49.209 -3.57589e-17)
(-46.6556 55.6244 -7.31715e-15)
(-48.7171 63.0233 6.02765e-15)
(-50.6158 69.7023 1.43989e-14)
(-51.6571 75.7546 -1.66505e-14)
(-51.396 80.4989 -3.90112e-14)
(-49.4953 83.415 3.69051e-14)
(-47.0198 84.0706 1.87305e-14)
(-44.6243 83.2062 -2.20457e-14)
(-42.2146 81.4326 -7.1422e-16)
(-40.9982 78.7076 -2.10865e-14)
(-41.9294 77.2757 -2.16762e-14)
(-44.5682 77.1868 4.40498e-14)
(-22.3806 34.9546 0)
(-30.3492 34.8595 8.84544e-16)
(-32.6723 35.2147 -1.49336e-15)
(-35.9203 35.5589 1.65378e-15)
(-39.1677 36.6634 6.42327e-16)
(-42.1977 38.6799 0)
(-44.8114 41.8096 0)
(-47.2511 45.9168 -6.03572e-15)
(-48.7593 51.5396 -1.51027e-15)
(-49.8622 58.4987 6.65628e-15)
(-50.8344 65.4912 0)
(-50.8017 71.8197 0)
(-49.1347 76.6671 1.80873e-14)
(-46.5976 80.1109 -8.38497e-16)
(-44.1525 82.0298 1.85985e-14)
(-42.0484 82.5615 -1.92547e-14)
(-41.2627 81.8722 0)
(-41.8624 79.8163 0)
(-44.8948 78.6017 0)
(-49.3713 78.538 0)
(-24.1907 34.7848 2.56095e-16)
(-31.2488 34.8506 -2.07454e-15)
(-33.0096 36.1178 2.97903e-15)
(-36.2756 36.9653 -3.43117e-15)
(-39.97 37.9668 -2.3914e-15)
(-43.6344 39.5085 7.70482e-15)
(-46.7599 41.7239 0)
(-49.3952 44.6706 -1.00069e-14)
(-51.017 48.745 -7.27871e-15)
(-51.6357 54.2387 7.57587e-15)
(-51.7416 60.7491 3.47174e-14)
(-50.066 66.9562 -3.62463e-14)
(-47.197 71.8991 3.94891e-14)
(-44.9504 75.6557 -1.7678e-14)
(-43.4014 77.9664 1.8086e-14)
(-42.8047 78.8525 -3.51063e-14)
(-43.4451 78.7584 1.87095e-14)
(-46.9713 77.931 -1.81893e-14)
(-52.6645 77.265 0)
(-59.5854 77.3699 0)
(-26.8289 33.738 0)
(-32.3154 34.2887 2.26357e-15)
(-34.1747 36.5254 -3.80453e-15)
(-37.007 38.5143 0)
(-39.9172 40.3318 0)
(-42.7253 42.0909 -8.45254e-15)
(-45.3222 43.9281 -5.73738e-15)
(-47.5575 45.9828 5.6911e-15)
(-49.1586 48.3867 0)
(-49.8963 51.2158 0)
(-49.9108 54.623 -2.25739e-14)
(-49.7155 58.3913 0)
(-49.5589 62.2056 -3.22207e-14)
(-49.7075 65.4582 -3.18505e-14)
(-50.7631 68.0193 6.09813e-14)
(-53.1409 70.0699 3.38469e-14)
(-56.8773 72.0441 0)
(-61.7886 74.5059 4.40683e-14)
(-65.6566 77.2639 5.14896e-14)
(-66.4452 75.3758 -5.34927e-14)
(4.32605 86.7211 -7.7327e-16)
(3.04457 88.2683 -3.47969e-17)
(1.94411 89.0333 7.7862e-16)
(1.29925 88.411 -7.9691e-16)
(1.01957 86.6974 6.8286e-16)
(0.823519 84.94 -6.47554e-16)
(0.55491 84.0013 5.62194e-16)
(0.206849 84.0257 5.44398e-16)
(-0.149358 84.8398 -4.91319e-16)
(-0.466626 86.3261 -9.52187e-16)
(-0.738491 88.4359 -1.8517e-15)
(-0.979578 91.1408 8.72022e-16)
(-1.19322 94.483 0)
(-1.38344 98.484 0)
(-1.61708 103.387 -1.72336e-15)
(-1.58567 108.736 0)
(-2.45734 115.94 0)
(-0.500826 120.461 8.65004e-16)
(-7.37155 133.529 -8.67288e-16)
(11.5739 124.88 3.0253e-15)
(-0.448549 88.352 -1.71453e-15)
(-1.82301 89.5664 -9.83136e-16)
(-2.70296 89.7262 -6.00275e-17)
(-2.92449 88.5598 -1.58411e-15)
(-2.82408 86.6779 -2.92651e-15)
(-2.77712 85.0348 2.46569e-15)
(-2.90206 84.2188 5.93874e-17)
(-3.15844 84.2663 -2.08044e-15)
(-3.46641 85.0415 -1.99531e-15)
(-3.78229 86.4736 -9.88611e-16)
(-4.09522 88.5304 2.70917e-15)
(-4.4085 91.1832 1.73336e-15)
(-4.72242 94.4867 5.19112e-15)
(-5.05104 98.4513 0)
(-5.45345 103.341 5.16666e-15)
(-5.62915 108.697 -3.52828e-15)
(-6.75266 115.825 6.87191e-15)
(-5.00611 120.365 3.45693e-15)
(-12.3886 133.125 -3.46321e-15)
(6.7993 125.443 -9.97585e-19)
(-5.86399 89.8166 -3.66003e-15)
(-7.02306 90.3798 3.49967e-15)
(-7.43165 89.7526 9.07768e-15)
(-7.14107 88.1142 -1.52528e-15)
(-6.6795 86.2181 0)
(-6.42769 84.7855 -7.0884e-17)
(-6.43287 84.1414 2.25992e-15)
(-6.60469 84.2511 0)
(-6.85928 85.0222 2.0048e-15)
(-7.16102 86.4261 -3.88282e-15)
(-7.50187 88.4492 3.57877e-15)
(-7.87875 91.0646 -3.55701e-15)
(-8.28826 94.3378 7.37393e-17)
(-8.74659 98.2611 -3.37051e-15)
(-9.30789 103.135 -3.44627e-15)
(-9.68905 108.445 0)
(-11.0391 115.568 -3.48415e-15)
(-9.50292 120.133 0)
(-17.2962 132.539 -7.09749e-15)
(1.98877 125.751 0)
(-11.7071 90.7967 1.3598e-16)
(-12.2491 90.4239 -3.85606e-15)
(-11.9726 89.0437 -7.65489e-15)
(-11.1576 87.1871 0)
(-10.4449 85.4654 -5.98573e-15)
(-10.0584 84.301 2.40732e-15)
(-9.97593 83.8334 2.31181e-15)
(-10.0733 84.0129 4.24746e-15)
(-10.2782 84.7974 -3.99066e-15)
(-10.5654 86.1906 3.8839e-15)
(-10.9294 88.1923 1.57274e-16)
(-11.3619 90.7787 -3.47195e-15)
(-11.8622 94.0292 0)
(-12.4443 97.9126 6.88779e-15)
(-13.1618 102.775 -7.05786e-15)
(-13.7433 108.036 -1.71742e-16)
(-15.3246 115.149 -7.17394e-15)
(-13.9812 119.742 6.70574e-15)
(-22.1275 131.764 7.63028e-15)
(-2.81626 125.873 2.90238e-16)
(-17.5106 90.776 1.86072e-14)
(-17.1391 89.4302 -1.3525e-14)
(-16.1816 87.6168 3.80386e-15)
(-14.994 85.8571 0)
(-14.1196 84.4451 0)
(-13.6623 83.5756 -5.25181e-15)
(-13.5094 83.283 9.11847e-15)
(-13.5385 83.5413 -8.64267e-15)
(-13.6982 84.358 3.74262e-15)
(-13.9724 85.7605 7.44395e-15)
(-14.3582 87.7574 7.47134e-15)
(-14.8431 90.3253 -7.10818e-15)
(-15.4338 93.56 6.81044e-15)
(-16.1352 97.4042 -1.31979e-17)
(-17.0103 102.259 7.05692e-15)
(-17.7876 107.457 1.82564e-16)
(-19.6048 114.561 -7.17507e-15)
(-18.4393 119.197 1.32649e-14)
(-27.0127 130.822 -1.41707e-14)
(-7.50423 125.796 -1.2104e-14)
(-22.5774 89.2754 6.01151e-15)
(-21.4019 87.4443 -4.44756e-15)
(-20.0125 85.7072 2.51048e-16)
(-18.626 84.2681 0)
(-17.6994 83.2156 0)
(-17.207 82.634 -1.05533e-14)
(-16.9955 82.5064 9.03371e-15)
(-16.9646 82.8522 1.73042e-14)
(-17.0872 83.7189 -1.18655e-14)
(-17.3551 85.1481 -7.78692e-15)
(-17.7673 87.1534 1.46338e-14)
(-18.3058 89.7115 -2.84042e-14)
(-18.989 92.9361 6.64257e-15)
(-19.8053 96.7421 6.71646e-15)
(-20.8419 101.594 7.058e-15)
(-21.8095 106.717 -6.67762e-15)
(-23.8589 113.808 0)
(-22.876 118.441 1.38209e-14)
(-31.8264 129.683 1.52516e-14)
(-12.1519 125.564 1.27128e-14)
(-26.5475 86.7361 -1.22032e-14)
(-25.0576 85.1456 0)
(-23.5061 83.6269 1.77191e-14)
(-22.0738 82.5229 -1.39209e-14)
(-21.1623 81.8104 0)
(-20.6543 81.4884 0)
(-20.3924 81.5136 -4.67329e-15)
(-20.3142 81.955 -1.71985e-14)
(-20.4129 82.8854 8.03919e-15)
(-20.686 84.3535 0)
(-21.1337 86.3766 0)
(-21.7305 88.9319 7.113e-15)
(-22.512 92.1515 -6.97848e-15)
(-23.4403 95.9205 -6.89546e-15)
(-24.6453 100.772 -1.41226e-14)
(-25.7928 105.81 1.33486e-14)
(-28.0776 112.901 4.39741e-16)
(-27.2787 117.52 4.16326e-16)
(-36.5837 128.353 -1.41443e-14)
(-16.8181 125.175 -1.2154e-14)
(-30.0053 84.2205 -1.05901e-14)
(-28.3983 82.7016 -1.91851e-14)
(-26.749 81.4527 -7.9321e-16)
(-25.3392 80.6651 2.0464e-14)
(-24.4758 80.2445 0)
(-23.9637 80.1509 1.04271e-14)
(-23.6628 80.3205 -9.60189e-15)
(-23.5572 80.865 8.24396e-15)
(-23.6505 81.8685 7.87143e-15)
(-23.9438 83.3834 -7.81695e-15)
(-24.4386 85.4309 7.16995e-15)
(-25.1008 87.9897 0)
(-25.9875 91.2076 -1.42783e-14)
(-27.0265 94.9414 2.75725e-14)
(-28.4108 99.7933 -2.72027e-14)
(-29.7257 104.737 0)
(-32.2548 111.835 8.63352e-18)
(-31.6414 116.414 -1.34689e-14)
(-41.267 126.837 2.89548e-14)
(-21.4995 124.616 -3.59137e-14)
(-33.1239 81.485 -4.76624e-16)
(-31.4292 80.1734 2.5704e-14)
(-29.7366 79.1815 -1.47979e-14)
(-28.3904 78.7215 -6.63667e-15)
(-27.5869 78.5548 1.16837e-14)
(-27.0896 78.6548 -2.1064e-14)
(-26.7763 78.9629 9.20097e-15)
(-26.6722 79.6172 0)
(-26.7831 80.7007 1.74883e-16)
(-27.1145 82.2674 -7.48812e-15)
(-27.6693 84.3433 -1.50132e-14)
(-28.4061 86.9086 1.39091e-14)
(-29.4076 90.1244 -1.42874e-14)
(-30.5556 93.8211 1.3796e-14)
(-32.1329 98.6685 1.44826e-14)
(-33.5998 103.507 -1.33341e-14)
(-36.3878 110.617 4.23017e-14)
(-35.9549 115.13 -1.30385e-14)
(-45.8801 125.149 -2.81741e-14)
(-26.1928 123.873 1.52952e-17)
(-35.7746 78.92 -8.9972e-15)
(-34.0716 77.6994 3.2852e-14)
(-32.4032 76.9018 6.20683e-16)
(-31.1849 76.7294 -2.57223e-14)
(-30.4613 76.7818 -1.19322e-14)
(-30.001 77.0519 2.02806e-14)
(-29.7068 77.4882 0)
(-29.6405 78.2475 8.85717e-15)
(-29.795 79.4086 -1.60346e-14)
(-30.1841 81.0249 0)
(-30.8139 83.1273 -1.4704e-14)
(-31.6353 85.6969 1.42437e-14)
(-32.7634 88.9058 0)
(-34.0208 92.5628 2.75775e-14)
(-35.8065 97.3976 -1.37882e-14)
(-37.407 102.125 0)
(-40.477 109.248 -4.2345e-14)
(-40.2126 113.664 4.06258e-14)
(-50.4117 123.31 2.88549e-14)
(-30.8926 122.935 4.87737e-14)
(-38.0438 76.4804 1.69646e-14)
(-36.3794 75.2578 8.12411e-15)
(-34.7543 74.6483 -1.36772e-14)
(-33.7141 74.7337 -1.28237e-14)
(-33.0816 74.9669 2.24409e-14)
(-32.694 75.3828 -2.00155e-14)
(-32.4542 75.9359 9.28958e-15)
(-32.4558 76.7873 -1.76059e-14)
(-32.6779 78.0138 2.38775e-14)
(-33.1452 79.6694 1.56818e-14)
(-33.8657 81.7917 -1.43937e-14)
(-34.7821 84.3608 3.22891e-16)
(-36.0471 87.5558 -1.36588e-14)
(-37.4138 91.1721 -4.17113e-14)
(-39.4241 95.9823 2.76171e-14)
(-41.1381 100.596 7.25559e-16)
(-44.5223 107.726 2.83501e-14)
(-44.4064 112.011 0)
(-54.8613 121.343 -2.80735e-14)
(-35.5896 121.792 2.43895e-14)
(-39.8483 74.3886 0)
(-38.2889 73.0381 0)
(-36.7575 72.5219 -1.38909e-14)
(-35.9579 72.8052 -5.11874e-16)
(-35.4405 73.1855 3.33453e-14)
(-35.175 73.7169 -9.83054e-15)
(-35.0255 74.3612 9.63592e-15)
(-35.1243 75.2805 -1.67561e-14)
(-35.4381 76.5548 0)
(-36.0004 78.2354 1.53156e-14)
(-36.8258 80.3654 1.47003e-14)
(-37.8476 82.9243 0)
(-39.2591 86.0934 -1.4316e-14)
(-40.735 89.6659 2.72623e-14)
(-42.9854 94.4324 2.7974e-14)
(-44.7901 98.9356 -1.25791e-14)
(-48.5279 106.054 -5.52603e-14)
(-48.5277 110.182 0)
(-59.2421 119.268 0)
(-40.2718 120.438 -5.78409e-18)
(-41.1978 72.758 -1.65096e-14)
(-39.8664 71.1649 0)
(-38.4371 70.6325 1.61665e-16)
(-37.932 71.0179 1.28423e-14)
(-37.5619 71.4989 -2.18521e-14)
(-37.4696 72.0997 0)
(-37.44 72.7993 9.21311e-15)
(-37.6604 73.7539 0)
(-38.0833 75.0506 0)
(-38.7562 76.7369 -1.52709e-14)
(-39.6991 78.8597 0)
(-40.8349 81.3969 1.45782e-14)
(-42.3998 84.5265 -4.2007e-14)
(-43.9846 88.0532 2.7608e-14)
(-46.489 92.7516 -1.3481e-14)
(-48.3607 97.153 5.46554e-14)
(-52.4954 104.231 0)
(-52.5613 108.192 -2.68046e-14)
(-63.5542 117.011 0)
(-44.9301 118.862 4.88313e-14)
(-42.309 71.8006 0)
(-41.254 69.7545 1.21918e-16)
(-39.8755 69.0555 2.77458e-16)
(-39.7169 69.4367 -3.69808e-14)
(-39.5193 69.9637 1.08774e-14)
(-39.6337 70.5698 -1.00696e-14)
(-39.7406 71.2779 -9.17365e-15)
(-40.0963 72.2283 1.74501e-14)
(-40.6362 73.5189 -1.57262e-14)
(-41.4254 75.1889 -3.09055e-14)
(-42.4921 77.2864 1.43692e-14)
(-43.7465 79.7882 1.427e-14)
(-45.4692 82.8629 1.39974e-14)
(-47.1633 86.3407 1.38127e-14)
(-49.9321 90.9411 0)
(-51.8469 95.2591 7.37623e-16)
(-56.4212 102.255 -5.54535e-14)
(-56.4899 106.056 -6.96259e-16)
(-67.7853 114.643 2.73025e-14)
(-49.5554 117.047 -4.88639e-14)
(-43.3024 71.8494 1.83152e-14)
(-42.5661 68.9179 1.53516e-14)
(-41.1599 67.8962 1.37051e-14)
(-41.4184 68.1322 -1.29023e-14)
(-41.4026 68.6221 1.07576e-14)
(-41.7344 69.1524 2.05373e-14)
(-41.9787 69.8159 -8.83955e-15)
(-42.4656 70.719 -3.46573e-14)
(-43.1237 71.9734 -6.73696e-16)
(-44.0298 73.6031 -6.86377e-16)
(-45.2213 75.655 1.43855e-14)
(-46.5932 78.106 -2.85359e-14)
(-48.4725 81.1086 0)
(-50.2751 84.5333 1.44783e-14)
(-53.3121 89.0011 -5.53923e-14)
(-55.2479 93.2654 2.66126e-14)
(-60.3047 100.117 2.81523e-14)
(-60.3013 103.783 0)
(-71.9644 112.169 -2.8106e-14)
(-54.1284 114.975 0)
(-44.5909 73.1373 4.59036e-16)
(-44.1352 68.6861 3.38803e-16)
(-42.5251 67.209 1.43015e-14)
(-43.2193 67.103 -3.88143e-14)
(-43.3364 67.4529 3.36893e-14)
(-43.8426 67.8264 1.01707e-14)
(-44.1987 68.3972 -9.2704e-15)
(-44.7991 69.2154 1.68604e-14)
(-45.5647 70.4074 1.5816e-14)
(-46.5808 71.975 -3.78497e-17)
(-47.8939 73.963 0)
(-49.3799 76.35 -3.23566e-16)
(-51.4128 79.2637 1.37107e-14)
(-53.3229 82.6315 2.83012e-14)
(-56.6236 86.9311 1.37299e-15)
(-58.5645 91.1811 -5.39654e-14)
(-64.1401 97.7961 2.90626e-14)
(-63.9779 101.38 -5.25674e-14)
(-76.1085 109.583 2.81758e-14)
(-58.6309 112.641 0)
(-47.3236 74.91 0)
(-46.4842 68.6555 -1.70129e-14)
(-44.2865 66.8033 -1.47479e-14)
(-45.2704 66.2242 0)
(-45.4232 66.3769 3.51981e-14)
(-46.0196 66.5453 -3.06224e-14)
(-46.4434 66.9947 -3.78798e-14)
(-47.1288 67.7041 -3.16186e-16)
(-47.9838 68.8146 0)
(-49.0962 70.3018 -3.51212e-17)
(-50.5212 72.2103 1.47614e-14)
(-52.1143 74.5228 0)
(-54.2956 77.3328 2.87065e-14)
(-56.3131 80.6403 -5.53561e-14)
(-59.8647 84.7383 2.70539e-14)
(-61.8079 89.0176 -2.21786e-17)
(-67.9238 95.2673 -2.82475e-14)
(-67.5018 98.864 2.66429e-14)
(-80.2375 106.882 -2.96777e-14)
(-63.0332 110.041 4.77278e-14)
(-52.2345 75.1214 0)
(-49.6439 67.6178 0)
(-46.6606 66.0861 -2.94124e-14)
(-47.5881 65.1778 5.20318e-14)
(-47.6793 65.2283 -4.56302e-14)
(-48.2665 65.2239 1.02754e-14)
(-48.718 65.5632 3.74137e-14)
(-49.4584 66.159 1.76378e-14)
(-50.3868 67.1802 -1.58755e-14)
(-51.5826 68.5771 1.53504e-14)
(-53.109 70.3949 -2.98008e-14)
(-54.7995 72.6264 1.39973e-14)
(-57.1227 75.3183 2.87284e-14)
(-59.2498 78.5652 2.90087e-14)
(-63.0355 82.4355 -2.70828e-14)
(-64.9997 86.7834 2.66758e-14)
(-71.6647 92.5139 5.65612e-14)
(-70.8813 96.3054 -2.58329e-14)
(-84.4133 104.08 0)
(-67.2827 107.122 0)
(-57.4049 72.1254 0)
(-52.4155 64.661 1.69643e-14)
(-49.0915 64.8359 -1.4134e-14)
(-49.936 63.8704 -2.6117e-14)
(-49.978 63.9879 1.05681e-14)
(-50.5405 63.8563 2.00454e-14)
(-50.9966 64.1028 2.84797e-17)
(-51.7732 64.5775 0)
(-52.7589 65.4982 0)
(-54.0252 66.7951 3.10435e-14)
(-55.6418 68.5062 6.15328e-16)
(-57.4225 70.6537 -2.83285e-14)
(-59.8755 73.2112 0)
(-62.1163 76.4051 -5.55077e-14)
(-66.1191 80.0252 2.84728e-14)
(-68.1489 84.4911 -8.16394e-14)
(-75.3447 89.551 2.81982e-14)
(-74.1704 93.8852 2.74349e-14)
(-88.7308 101.067 -5.77214e-14)
(-71.3152 103.67 4.74586e-14)
(-56.7244 68.0705 -8.1123e-16)
(-54.3175 61.9658 -1.59351e-14)
(-51.5017 63.409 -1.36461e-14)
(-52.5308 62.5635 1.22372e-14)
(-52.4806 62.7774 2.21208e-14)
(-52.9866 62.5086 -1.91939e-14)
(-53.3632 62.6607 -1.78814e-14)
(-54.1325 63.0021 1.69311e-14)
(-55.1305 63.793 -1.52854e-14)
(-56.4393 64.9747 -1.51142e-14)
(-58.1149 66.5478 2.85666e-14)
(-59.9763 68.607 2.8627e-16)
(-62.5328 71.0004 -2.79775e-14)
(-64.8976 74.1682 2.64519e-14)
(-69.042 77.4734 0)
(-71.2431 82.1859 2.69881e-14)
(-78.7508 86.3482 8.9805e-16)
(-77.361 91.7708 -2.54576e-14)
(-93.1622 97.3762 0)
(-75.0393 99.2731 -4.66729e-14)
(-54.1363 68.5888 1.76593e-14)
(-55.389 60.5347 8.87326e-18)
(-52.9481 61.8307 1.2448e-14)
(-54.3393 60.8981 -2.17563e-14)
(-53.9834 61.3279 -2.96442e-16)
(-54.4487 61.2584 8.50311e-15)
(-54.7131 61.5591 2.37595e-16)
(-55.4756 61.9805 8.72701e-18)
(-56.4756 62.7849 -1.3023e-14)
(-57.8154 63.9552 -1.23918e-14)
(-59.53 65.4805 3.68417e-16)
(-61.4438 67.5072 -1.17537e-14)
(-64.0362 69.7935 0)
(-66.5214 72.9795 4.65032e-14)
(-70.6267 76.0273 0)
(-73.041 80.9705 -2.36624e-14)
(-80.448 84.4725 2.39682e-14)
(-79.2749 90.9157 2.29903e-14)
(-95.1605 95.0083 -3.80469e-16)
(-77.5853 98.2851 2.81436e-16)
(-54.2392 68.0793 0)
(-55.8417 60.4865 1.17024e-14)
(-53.2822 61.5369 0)
(-54.7239 60.6743 8.99961e-15)
(-54.3097 61.0607 0)
(-54.7664 61.0234 -1.33847e-14)
(-55.0109 61.3257 1.92244e-16)
(-55.7688 61.7589 -1.69768e-16)
(-56.7642 62.5554 1.04018e-14)
(-58.1081 63.7193 9.93953e-15)
(-59.8246 65.227 -9.83042e-15)
(-61.7535 67.2455 1.93487e-14)
(-64.3483 69.5048 0)
(-66.8678 72.697 -1.98259e-14)
(-70.996 75.6539 3.2449e-16)
(-73.4476 80.6883 5.67974e-18)
(-80.8233 84.0244 -3.1702e-16)
(-79.7318 90.711 -2.01749e-14)
(-95.5074 94.3419 -1.89509e-14)
(-78.0999 97.9951 -1.5826e-14)
(-54.4911 67.3685 2.18402e-16)
(-56.2813 60.385 -1.77725e-16)
(-53.6338 61.1691 0)
(-55.1077 60.4002 9.22472e-15)
(-54.6398 60.7452 7.32903e-15)
(-55.0833 60.7532 1.3172e-14)
(-55.3085 61.0679 3.76232e-16)
(-56.0605 61.5228 7.14225e-18)
(-57.0517 62.3171 -1.58929e-16)
(-58.4008 63.4781 -1.98668e-14)
(-60.1196 64.9709 -2.02702e-18)
(-62.0648 66.9816 -1.93701e-14)
(-64.6607 69.2156 1.48405e-16)
(-67.2185 72.4132 -3.16988e-16)
(-71.3052 75.3216 -1.99023e-14)
(-73.8565 80.3997 2.05953e-14)
(-81.1222 83.5905 3.36054e-16)
(-80.2065 90.4988 -3.00162e-16)
(-95.808 93.6884 1.9189e-14)
(-78.6511 97.7546 3.17688e-14)
(-54.8117 66.6312 0)
(-56.7277 60.2378 0)
(-54.0198 60.769 1.02262e-14)
(-55.511 60.0892 -8.89836e-15)
(-54.9936 60.3934 -7.38122e-15)
(-55.4179 60.4512 -2.14238e-16)
(-55.6205 60.7858 -1.1892e-14)
(-56.3628 61.2689 -3.45064e-16)
(-57.3476 62.0662 1.58635e-16)
(-58.7002 63.2278 9.92555e-15)
(-60.42 64.7084 1.93566e-14)
(-62.3806 66.7119 -3.33579e-18)
(-64.9756 68.9231 9.71603e-15)
(-67.5711 72.1244 0)
(-71.6204 74.9852 1.98875e-14)
(-74.2663 80.1059 3.13225e-16)
(-81.4236 83.1663 2.07274e-14)
(-80.6878 90.2769 1.99892e-14)
(-96.1009 93.0554 3.16199e-16)
(-79.1867 97.5148 -1.59272e-14)
(-55.1541 65.9032 1.30763e-14)
(-57.1824 60.0645 -7.22602e-18)
(-54.4318 60.3545 1.33172e-16)
(-55.9281 59.7572 -2.80386e-16)
(-55.3682 60.017 -7.45527e-15)
(-55.7699 60.1237 -6.83281e-15)
(-55.9495 60.4806 1.20694e-14)
(-56.6777 60.9972 1.69274e-16)
(-57.6541 61.802 1.03493e-14)
(-59.0078 62.9674 0)
(-60.7265 64.4388 -9.67816e-15)
(-62.7009 66.4361 1.92524e-14)
(-65.2926 68.6274 -9.72256e-15)
(-67.9227 71.8326 0)
(-71.9349 74.6507 -3.24843e-16)
(-74.6764 79.8064 -2.0349e-14)
(-81.7175 82.7445 -2.07052e-14)
(-81.1743 90.0456 -1.97e-14)
(-96.3898 92.4343 -2.91512e-16)
(-79.7024 97.2738 2.50992e-16)
(-55.5048 65.1897 -2.63311e-14)
(-57.6423 59.8666 1.15518e-14)
(-54.8638 59.9264 -3.08264e-17)
(-56.3545 59.4058 1.33625e-16)
(-55.7578 59.6189 1.55459e-14)
(-56.1355 59.7718 6.69507e-15)
(-56.294 60.1517 -1.20833e-14)
(-57.0058 60.7056 -1.71359e-16)
(-57.9706 61.5235 -1.03507e-14)
(-59.3231 62.696 -1.58084e-16)
(-61.0386 64.1617 1.48061e-16)
(-63.0255 66.1542 -9.63364e-15)
(-65.6112 68.3284 -9.58083e-15)
(-68.2719 71.5377 -1.51998e-16)
(-72.2453 74.3202 2.02292e-14)
(-75.0872 79.5011 2.06772e-14)
(-82.0055 82.326 2.10121e-14)
(-81.6657 89.8054 -3.01979e-16)
(-96.6753 91.8206 -1.92862e-14)
(-80.1984 97.037 2.3737e-16)
(-55.863 64.4919 1.28384e-14)
(-58.1071 59.6481 -1.15856e-14)
(-55.3129 59.4872 -2.00576e-14)
(-56.7884 59.0372 0)
(-56.1594 59.2028 -1.73948e-17)
(-56.5127 59.3978 -2.35433e-16)
(-56.6517 59.8007 1.29031e-14)
(-57.3471 60.3932 1.82292e-16)
(-58.2974 61.2295 -1.59485e-16)
(-59.6459 62.413 0)
(-61.3562 63.8765 0)
(-63.3538 65.8658 9.64796e-15)
(-65.931 68.026 9.74212e-15)
(-68.6216 71.2381 1.99617e-14)
(-72.5503 73.9927 -4.07957e-14)
(-75.4987 79.1901 3.14332e-16)
(-82.2875 81.9108 -2.06552e-14)
(-82.1619 89.5568 0)
(-96.9573 91.2113 1.08242e-17)
(-80.673 96.8079 -1.62938e-14)
(-56.2282 63.8132 1.2699e-14)
(-58.5762 59.4105 1.19134e-14)
(-55.7761 59.0394 9.95779e-15)
(-57.2287 58.6529 8.65674e-15)
(-56.5693 58.7721 -1.60147e-14)
(-56.8986 59.0048 -6.65499e-15)
(-57.0207 59.4294 8.68496e-18)
(-57.6997 60.0608 -1.18383e-14)
(-58.6349 60.9186 0)
(-59.9755 62.1181 9.90763e-15)
(-61.6786 63.5831 -1.54653e-16)
(-63.6854 65.5708 -9.35264e-15)
(-66.2519 67.7201 -1.49169e-16)
(-68.9712 70.9329 1.34113e-17)
(-72.8541 73.6655 2.02414e-14)
(-75.9104 78.8724 0)
(-82.5638 81.4992 0)
(-82.6644 89.3004 -2.02125e-14)
(-97.2346 90.6051 1.16687e-17)
(-81.1239 96.5911 -6.00861e-17)
(-56.5992 63.1574 -2.56074e-14)
(-59.0478 59.1582 -1.17559e-14)
(-56.2514 58.5848 -9.83375e-15)
(-57.6732 58.2549 -8.6824e-15)
(-56.9839 58.3305 1.58299e-14)
(-57.29 58.5963 0)
(-57.3981 59.0407 0)
(-58.0618 59.7098 5.81898e-18)
(-58.9822 60.5909 0)
(-60.3115 61.8106 -9.96219e-15)
(-62.0055 63.2813 -9.54547e-15)
(-64.0198 65.2692 -9.82081e-15)
(-66.5735 67.4105 -9.92587e-15)
(-69.3201 70.6209 -3.98644e-14)
(-73.1562 73.3355 0)
(-76.3262 78.5469 0)
(-82.8354 81.0919 0)
(-83.1748 89.0304 2.02447e-14)
(-97.5048 90.0016 3.75899e-14)
(-81.5493 96.3928 1.64702e-14)
(-56.9754 62.5245 1.27084e-14)
(-59.5227 58.8944 0)
(-56.7364 58.1257 9.75818e-15)
(-58.1179 57.8466 2.75567e-16)
(-57.4 57.8817 -8.19075e-15)
(-57.6838 58.1762 0)
(-57.7806 58.6382 0)
(-58.4307 59.3426 1.21281e-14)
(-59.3366 60.2483 1.77472e-16)
(-60.654 61.4899 -3.16573e-16)
(-62.336 62.971 9.85533e-15)
(-64.3564 64.9609 9.68086e-15)
(-66.8958 67.0972 9.7757e-15)
(-69.6738 70.3016 1.97082e-14)
(-73.4676 73.0017 -1.59939e-17)
(-76.7425 78.2141 3.15549e-16)
(-83.102 80.6849 0)
(-83.6923 88.7478 0)
(-97.7657 89.3993 -1.87459e-14)
(-81.9488 96.2158 0)
(-57.3568 61.9142 1.26146e-14)
(-59.9975 58.6227 0)