/*--------------------------------*- C++ -*----------------------------------*\
  =========                 |
  \\      /  F ield         | OpenFOAM: The Open Source CFD Toolbox
   \\    /   O peration     | Website:  https://openfoam.org
    \\  /    A nd           | Version:  10
     \\/     M anipulation  |
\*---------------------------------------------------------------------------*/
FoamFile
{
    format      ascii;
    class       volVectorField;
    location    "200";
    object      Urel;
}
// * * * * * * * * * * * * * * * * * * * * * * * * * * * * * * * * * * * * * //

dimensions      [0 1 -1 0 0 0 0];

internalField   nonuniform List<vector> 
2000
(
(2.73077 -6.35287 -6.33374e-18)
(-0.588193 -4.25053 7.63542e-18)
(3.1955 -0.900802 -6.05658e-18)
(6.49441 3.71103 0)
(9.5503 7.81539 0)
(11.6023 10.2222 1.46865e-16)
(12.8826 10.9768 -1.99011e-16)
(13.5655 10.5072 -2.62031e-16)
(13.7955 9.14857 3.38646e-16)
(13.7001 7.18322 4.32614e-16)
(13.3919 4.82773 5.49927e-16)
(12.9534 2.20696 0)
(12.5128 -0.554114 8.93962e-16)
(11.8599 -3.56885 9.19329e-16)
(11.1168 -6.56436 8.9605e-16)
(10.3858 -9.39742 8.72443e-16)
(9.75334 -11.9418 -8.40427e-16)
(9.16469 -14.2617 3.83279e-16)
(8.44774 -16.3178 3.80973e-16)
(7.46857 -18.0393 1.5932e-15)
(2.99931 -6.27406 5.23667e-18)
(-1.49378 -4.90745 1.05052e-17)
(1.90782 -2.72082 -7.37824e-17)
(5.44155 1.66654 -2.37988e-16)
(8.78571 6.10879 4.16001e-17)
(11.2627 9.04002 -6.10221e-16)
(12.8996 10.2765 3.70494e-16)
(13.8775 10.1989 7.52959e-16)
(14.3879 9.14312 2.95549e-16)
(14.474 7.39103 3.79799e-16)
(14.3052 5.15984 -9.79916e-16)
(13.9238 2.61966 -6.07354e-16)
(13.4461 -0.0942095 -8.28671e-16)
(12.796 -3.02389 -8.65389e-16)
(12.0485 -5.92177 -2.58845e-15)
(11.2674 -8.6362 -9.40887e-16)
(10.4773 -11.0349 2.39138e-15)
(9.53237 -13.079 -2.26412e-15)
(8.30831 -14.7808 0)
(6.87735 -16.2601 -2.3658e-15)
(3.47343 -6.0045 2.09944e-18)
(-1.29103 -5.21298 -5.52386e-17)
(0.47689 -4.24606 8.58702e-17)
(3.36256 -1.15434 2.61462e-16)
(6.51702 3.19534 4.01879e-16)
(9.60436 6.69771 1.28863e-16)
(11.8185 8.61469 3.78231e-16)
(13.2728 9.12354 -7.18603e-16)
(14.1101 8.56489 -6.40085e-16)
(14.5281 7.21789 -7.97994e-16)
(14.5204 5.3186 9.89297e-16)
(14.2758 3.05625 0)
(13.8791 0.581266 -2.92777e-15)
(13.2686 -2.1891 0)
(12.4603 -4.95062 0)
(11.4837 -7.50465 0)
(10.3276 -9.68334 1.67243e-15)
(8.88644 -11.4234 -2.92083e-15)
(7.14534 -12.8407 0)
(5.3921 -14.2414 1.65681e-15)
(4.03461 -5.74247 -4.36467e-17)
(-0.576517 -5.29679 2.13741e-16)
(0.484232 -4.85425 0)
(2.23155 -2.68084 5.11294e-16)
(4.39443 0.719329 1.41228e-16)
(7.43042 4.2153 1.21399e-16)
(9.97207 6.64861 -6.40327e-17)
(11.7887 7.75623 1.24904e-15)
(12.9486 7.74396 0)
(13.5777 6.86918 5.90416e-16)
(13.774 5.36461 8.3691e-16)
(13.6405 3.40284 2.19066e-15)
(13.3224 1.17252 2.88072e-15)
(12.6802 -1.38894 6.05717e-15)
(11.7189 -3.91012 -2.84121e-15)
(10.4396 -6.15359 -1.64812e-16)
(8.80726 -7.9777 5.93722e-15)
(6.86432 -9.38169 3.11196e-15)
(4.76557 -10.6046 3.3278e-15)
(3.02588 -12.1894 3.62622e-15)
(4.48654 -5.5805 0)
(0.169214 -5.37469 -3.78524e-16)
(1.19775 -5.187 -1.39498e-16)
(1.9206 -3.547 -5.79283e-16)
(3.47559 -1.08695 -8.81433e-16)
(5.34689 1.89363 2.33427e-16)
(7.74457 4.47231 -7.54229e-16)
(9.6411 6.04546 -1.2625e-15)
(10.9433 6.56583 -4.89117e-16)
(11.7031 6.19157 8.15633e-17)
(12.0171 5.12962 -1.60502e-15)
(11.9467 3.54467 -2.27633e-15)
(11.5431 1.63714 -2.66422e-15)
(10.7177 -0.60932 -3.01211e-15)
(9.48006 -2.77065 0)
(7.79652 -4.56543 9.5617e-17)
(5.64616 -5.95525 1.34622e-16)
(3.3217 -7.09075 -3.45149e-15)
(1.24127 -8.3836 -1.1727e-14)
(0.112618 -10.5979 3.86905e-15)
(4.8326 -5.5214 0)
(0.740439 -5.53014 1.91519e-16)
(2.02173 -5.49349 0)
(2.35853 -4.14212 3.38058e-16)
(3.38808 -1.86054 1.11218e-15)
(4.10479 0.317342 0)
(5.6621 2.54678 1.42602e-15)
(7.23462 4.28986 2.67276e-15)
(8.38703 5.2113 0)
(9.05532 5.2997 -1.13557e-15)
(9.26148 4.68406 3.79263e-15)
(9.03391 3.51241 3.75628e-16)
(8.37971 1.95528 3.27034e-15)
(7.21618 0.0999595 -2.87153e-15)
(5.53283 -1.56346 0)
(3.34581 -2.80549 -6.82088e-15)
(0.759529 -3.74231 -3.7166e-15)
(-1.51334 -4.85217 0)
(-2.77766 -6.72735 1.00072e-14)
(-2.45193 -10.2031 -2.10279e-14)
(5.12191 -5.51235 -8.02778e-17)
(1.13306 -5.77186 4.34892e-17)
(2.64036 -5.80807 -3.64912e-16)
(3.02556 -4.6038 -1.53808e-16)
(3.38437 -2.45717 4.40644e-17)
(3.83925 -0.456115 -8.84004e-16)
(4.24008 1.25971 1.72035e-15)
(5.07433 2.87138 -2.89531e-15)
(5.74564 3.99734 -3.7577e-15)
(6.0324 4.43849 2.74631e-15)
(5.87964 4.22899 -2.21123e-15)
(5.22523 3.47927 -2.6041e-15)
(3.99079 2.30776 2.80483e-15)
(2.16216 0.892653 -7.05339e-15)
(-0.220024 -0.127548 0)
(-2.88389 -0.753299 1.78042e-14)
(-5.35336 -1.47594 -2.0017e-14)
(-6.41379 -3.58853 1.12258e-14)
(-5.79368 -7.34561 1.44197e-14)
(-3.55162 -12.0085 4.29399e-16)
(5.37111 -5.51742 9.30772e-18)
(1.35475 -6.05213 -1.06306e-16)
(2.98747 -6.19123 4.47824e-16)
(3.47307 -5.0733 -5.52274e-16)
(3.66483 -2.93869 -9.87292e-16)
(3.66607 -0.876051 0)
(3.60056 0.566809 -2.07477e-15)
(3.43152 1.99807 0)
(3.40744 3.19146 2.82732e-15)
(3.08127 3.86952 0)
(2.31516 4.01955 0)
(0.945471 3.72061 -4.98617e-16)
(-1.225 3.10882 1.43234e-14)
(-4.10924 2.18169 1.0023e-14)
(-7.25115 1.45172 6.27257e-16)
(-9.8335 0.178621 -1.29661e-14)
(-10.7905 -2.35484 0)
(-8.76889 -5.48357 0)
(-6.06803 -8.90571 1.39401e-14)
(-3.34673 -13.3245 2.48076e-14)
(5.5773 -5.48811 6.11469e-17)
(1.45008 -6.31762 -2.47824e-16)
(3.11061 -6.5955 1.86001e-16)
(3.55827 -5.58191 -3.19297e-16)
(3.68891 -3.38391 -6.21895e-16)
(3.32503 -1.16541 7.00788e-16)
(2.92809 0.330067 1.44096e-15)
(2.21675 1.60999 -1.3359e-15)
(1.45979 2.92604 0)
(0.474877 3.79917 -4.69573e-15)
(-1.01612 4.31733 4.67701e-15)
(-3.19614 4.5839 -6.64628e-15)
(-6.18614 4.63516 0)
(-9.77352 3.5499 1.26132e-15)
(-12.4039 2.16989 9.0173e-16)
(-12.4187 0.806888 1.58975e-14)
(-11.0989 -2.33888 -2.77288e-14)
(-8.55738 -6.28025 1.20872e-14)
(-5.67566 -10.6188 -1.13632e-14)
(-2.8507 -15.1162 -1.04801e-14)
(5.72161 -5.3915 0)
(1.45126 -6.50664 9.41684e-18)
(3.03733 -7.00759 -4.66104e-16)
(3.35199 -6.15361 -2.6132e-17)
(3.34975 -3.87477 0)
(2.74137 -1.372 0)
(1.90442 0.347898 -4.83452e-15)
(1.14123 1.52413 1.7806e-15)
(-0.165482 3.16716 -9.92283e-15)
(-1.60324 4.24974 -1.14174e-15)
(-3.57947 4.98385 1.3153e-14)
(-6.2579 5.35769 -7.66005e-15)
(-9.51221 6.87452 5.18315e-16)
(-12.216 7.7944 1.57797e-15)
(-13.5955 6.05669 -8.5637e-15)
(-13.3041 2.32994 0)
(-11.5087 -3.17472 -1.07407e-14)
(-8.28676 -8.41096 4.36697e-14)
(-4.97518 -12.5781 -1.95467e-14)
(-1.91783 -16.6592 9.84883e-15)
(5.77839 -5.20882 5.53078e-17)
(1.33984 -6.6576 2.85289e-16)
(2.77099 -7.40005 4.65185e-16)
(2.77455 -6.78661 2.59483e-16)
(2.69109 -4.48313 5.19506e-16)
(1.93533 -1.70703 0)
(0.984966 0.244041 1.38615e-15)
(0.212257 1.28159 2.43188e-15)
(-1.36179 3.38011 -7.32955e-15)
(-3.08055 4.64999 1.36167e-14)
(-5.83715 6.25714 9.06679e-15)
(-9.30582 8.31212 -6.9404e-15)
(-12.348 9.6844 1.30418e-14)
(-14.3897 8.7309 7.17085e-15)
(-15.0629 5.68587 7.65363e-15)
(-13.5791 1.45771 9.50162e-16)
(-9.89674 -4.43949 -9.52857e-15)
(-6.16384 -9.5993 4.11907e-16)
(-3.25082 -13.5986 -2.08618e-14)
(-0.4685 -17.6795 -1.0254e-14)
(5.72246 -4.90226 0)
(1.01381 -6.69732 -1.96802e-16)
(2.07634 -7.73089 1.83306e-16)
(1.89945 -7.40445 -4.85002e-16)
(1.68531 -5.26178 1.44404e-15)
(0.841281 -2.49231 -1.11433e-15)
(-0.117054 -0.598633 0)
(-1.19951 0.497991 0)
(-2.9726 3.23699 6.34882e-15)
(-5.22886 5.70416 0)
(-8.09213 7.67805 9.87603e-16)
(-10.8655 9.47718 -1.17218e-14)
(-12.9925 10.7623 6.48178e-15)
(-14.0654 10.0631 -6.08991e-15)
(-13.6051 6.51115 0)
(-11.1923 1.15603 8.74976e-15)
(-7.44502 -5.54278 0)
(-4.35103 -10.2674 -1.09957e-14)
(-1.44117 -14.1529 -2.07164e-14)
(1.37311 -18.1719 1.8024e-14)
(5.5686 -4.42742 -2.18639e-17)
(0.498251 -6.55519 -2.9566e-16)
(1.18773 -7.8977 0)
(0.808014 -7.88239 -7.80262e-16)
(0.35155 -5.77415 -5.93376e-16)
(-0.774385 -2.64524 -1.08935e-15)
(-1.96286 -0.334978 0)
(-3.15265 1.16481 0)
(-4.5804 3.60653 6.74834e-15)
(-6.50075 6.55784 0)
(-9.02634 8.91704 6.48029e-15)
(-11.5293 11.0214 -5.20067e-15)
(-13.3519 12.1123 -5.19348e-15)
(-13.9419 10.9613 8.45174e-16)
(-13.0106 7.37082 -2.06098e-14)
(-10.1276 1.53221 7.75857e-15)
(-5.52983 -5.34727 -1.18092e-14)
(-2.20433 -10.3213 0)
(0.983783 -14.156 -1.01833e-14)
(3.81667 -18.0848 2.82972e-14)
(5.32906 -3.75161 -1.08503e-16)
(-0.126509 -6.19995 5.51167e-16)
(0.183738 -7.99811 -1.82002e-16)
(-0.324504 -8.39999 7.51596e-16)
(-0.806334 -6.58329 1.38173e-15)
(-1.78964 -3.36536 -3.22705e-15)
(-2.91609 -0.664459 8.93291e-15)
(-3.96142 1.19235 -1.12466e-14)
(-5.43261 3.45166 -2.33434e-16)
(-7.33186 6.95588 -6.45929e-15)
(-9.60021 9.67868 1.72732e-14)
(-11.6185 12.0225 -1.19205e-14)
(-12.7574 13.0741 5.66606e-15)
(-12.5691 11.8397 0)
(-10.8152 7.89359 0)
(-7.22305 1.61105 0)
(-2.05318 -5.06006 1.54423e-14)
(0.954064 -9.78714 8.52237e-16)
(4.21708 -13.5191 -1.09443e-14)
(6.75373 -17.2214 -9.56594e-15)
(5.01528 -2.89226 -2.02377e-17)
(-0.79764 -5.57525 -6.21278e-16)
(-0.868187 -7.8747 -3.28294e-16)
(-1.50509 -8.87256 3.15606e-16)
(-1.94117 -7.8064 9.64524e-16)
(-2.55902 -5.05029 -1.12484e-15)
(-3.37669 -2.18707 0)
(-4.21483 0.174834 0)
(-5.85958 2.89918 0)
(-7.77253 6.96658 0)
(-9.63333 10.0334 -1.11558e-14)
(-10.8881 12.6138 1.78594e-14)
(-10.8525 13.9321 -5.95964e-15)
(-9.78335 13.1087 0)
(-6.99493 9.594 0)
(-2.98756 3.56225 0)
(2.18727 -2.88694 3.60552e-14)
(5.10984 -8.29105 9.28645e-16)
(8.29365 -12.028 5.22111e-16)
(10.1665 -15.255 0)
(4.6386 -1.88098 0)
(-1.45105 -4.68058 1.33519e-15)
(-1.84275 -7.35079 -3.53526e-16)
(-2.67885 -8.99579 2.02666e-15)
(-3.26982 -8.99447 -2.92764e-15)
(-3.79637 -7.23405 0)
(-4.46133 -4.74904 0)
(-5.27296 -2.05072 1.23805e-14)
(-6.68635 1.47892 0)
(-8.02881 6.07285 0)
(-9.11181 9.60114 -1.29315e-14)
(-9.3131 12.4651 2.09397e-14)
(-8.48408 14.1315 -7.11263e-15)
(-5.90683 13.8917 -3.62452e-14)
(-2.07393 11.2635 -1.45113e-15)
(2.71733 6.47263 -2.04146e-15)
(8.97035 1.73274 1.16766e-13)
(11.1643 -4.63461 3.56208e-14)
(13.0327 -8.71739 0)
(13.5954 -11.6407 -2.49919e-14)
(4.22565 -0.771924 0)
(-1.97581 -3.54411 -7.35424e-16)
(-2.55523 -6.24068 1.33323e-15)
(-3.65385 -8.32555 -1.1696e-15)
(-4.58502 -9.23175 2.30995e-15)
(-5.34249 -8.65654 0)
(-6.00199 -6.96323 0)
(-6.78822 -4.37537 -3.57589e-17)
(-7.26799 -0.530816 -7.31715e-15)
(-7.52496 4.29707 6.02765e-15)
(-7.61904 8.40512 1.43989e-14)
(-6.85568 11.8864 -1.66505e-14)
(-4.78993 14.0596 -3.90112e-14)
(-1.08462 14.4046 3.69051e-14)
(3.19553 12.4892 1.87305e-14)
(7.39581 9.05363 -2.20457e-14)
(11.6101 4.70897 -7.1422e-16)
(14.6312 -0.587246 -2.10865e-14)
(15.5048 -4.59027 -2.16762e-14)
(14.6707 -7.25038 4.40498e-14)
(3.87286 0.314757 0)
(-2.19745 -2.28211 8.84544e-16)
(-2.62212 -4.42881 -1.49336e-15)
(-3.97172 -6.58659 1.65378e-15)
(-5.32063 -7.98423 6.42327e-16)
(-6.45197 -8.46991 0)
(-7.16706 -7.84242 0)
(-7.70817 -6.23755 -6.03572e-15)
(-7.31759 -3.11704 -1.51027e-15)
(-6.52176 1.33968 6.65628e-15)
(-5.59526 5.82976 0)
(-3.66371 9.65574 0)
(-0.0979129 12.0007 1.80873e-14)
(4.33793 12.942 -8.38497e-16)
(8.68188 12.3584 1.85985e-14)
(12.6849 10.3876 -1.92547e-14)
(15.3694 7.19567 0)
(16.6686 2.63721 0)
(15.5351 -1.07997 0)
(12.9575 -3.64626 0)
(3.32749 1.14265 2.56095e-16)
(-1.74082 -1.2213 -2.07454e-15)
(-1.51168 -2.38406 2.97903e-15)
(-2.7877 -3.96648 -3.43117e-15)
(-4.492 -5.39509 -2.3914e-15)
(-6.16629 -6.2836 7.70482e-15)
(-7.3016 -6.49846 0)
(-7.94672 -5.98205 -1.00069e-14)
(-7.57825 -4.33794 -7.27871e-15)
(-6.20662 -1.27469 7.57587e-15)
(-4.32219 2.80533 3.47174e-14)
(-0.656315 6.58198 -3.62463e-14)
(4.2031 9.09439 3.94891e-14)
(8.44003 10.4206 -1.7678e-14)
(11.9795 10.3007 1.8086e-14)
(14.5666 8.75627 -3.51063e-14)
(15.9167 6.23164 1.87095e-14)
(14.3808 2.97374 -1.81893e-14)
(10.6781 -0.122835 0)
(5.74765 -2.44851 0)
(1.9161 1.13983 0)
(-1.49175 -0.663934 2.26357e-15)
(-1.27231 -0.781818 -3.80453e-15)
(-2.02586 -1.14755 0)
(-2.85717 -1.68485 0)
(-3.58629 -2.28058 -8.45254e-15)
(-4.10419 -2.79829 -5.73738e-15)
(-4.26047 -3.09852 5.6911e-15)
(-3.78246 -3.04958 0)
(-2.44099 -2.57556 0)
(-0.376354 -1.52337 -2.25739e-14)
(1.89806 -0.110202 0)
(4.13393 1.34897 -3.22207e-14)
(6.06454 2.24643 -3.18505e-14)
(7.08818 2.45242 6.09813e-14)
(6.78959 2.14777 3.38469e-14)
(5.13243 1.76683 0)
(2.30048 1.87339 4.40683e-14)
(0.511702 2.27613 5.14896e-14)
(1.80241 -1.96718 -5.34927e-14)
(6.2967 -19.5633 -7.7327e-16)
(5.07579 -21.2811 -3.47969e-17)
(4.03888 -23.9425 7.7862e-16)
(3.46071 -28.1605 -7.9691e-16)
(3.25102 -33.6474 6.8286e-16)
(3.12842 -39.3645 -6.47554e-16)
(2.93689 -44.4587 5.62194e-16)
(2.66971 -48.795 5.44398e-16)
(2.39838 -52.5571 -4.91319e-16)
(2.17019 -55.873 -9.52187e-16)
(1.9918 -58.8027 -1.8517e-15)
(1.84881 -61.3864 8.72022e-16)
(1.7381 -63.5941 0)
(1.65591 -65.4172 0)
(1.53564 -66.6255 -1.72336e-15)
(1.68601 -67.6903 0)
(0.939182 -67.2175 0)
(3.02671 -69.7598 8.65004e-16)
(-3.70653 -64.1036 -8.67288e-16)
(15.3832 -80.531 3.0253e-15)
(5.46069 -17.786 -1.71453e-15)
(4.26783 -19.8321 -9.83136e-16)
(3.57845 -23.094 -6.00275e-17)
(3.55692 -27.8512 -1.58411e-15)
(3.8672 -33.5012 -2.92651e-15)
(4.13439 -39.0987 2.46569e-15)
(4.24058 -44.0644 5.93874e-17)
(4.22675 -48.3717 -2.08044e-15)
(4.1733 -52.1664 -1.99531e-15)
(4.12452 -55.53 -9.88611e-16)
(4.09189 -58.5059 2.70917e-15)
(4.07276 -61.1344 1.73336e-15)
(4.06751 -63.3732 5.19112e-15)
(4.06283 -65.2247 0)
(4.00036 -66.4385 5.16666e-15)
(4.18139 -67.4875 -3.52828e-15)
(3.43224 -67.0808 6.87191e-15)
(5.57165 -69.5946 3.45693e-15)
(-1.39861 -64.237 -3.46321e-15)
(18.222 -79.6869 -9.97585e-19)
(3.97571 -16.029 -3.66003e-15)
(3.11902 -18.7175 3.49967e-15)
(3.02777 -22.757 9.07768e-15)
(3.65136 -27.9763 -1.52528e-15)
(4.46239 -33.6302 0)
(5.08093 -39.0063 -7.0884e-17)
(5.46061 -43.7887 2.25992e-15)
(5.69266 -48.0219 0)
(5.86189 -51.8081 2.0048e-15)
(6.00491 -55.1867 -3.88282e-15)
(6.1308 -58.1826 3.57877e-15)
(6.24372 -60.834 -3.55701e-15)
(6.3482 -63.0878 7.37393e-17)
(6.42927 -64.9646 -3.37051e-15)
(6.43401 -66.1775 -3.44627e-15)
(6.64688 -67.2554 0)
(5.92014 -66.8348 -3.48415e-15)
(8.11053 -69.3043 0)
(1.00368 -64.2802 -7.09749e-15)
(21.0091 -78.8141 0)
(2.04957 -14.6112 1.3598e-16)
(1.93033 -18.2222 -3.85606e-15)
(2.65048 -23.0006 -7.65489e-15)
(3.93103 -28.4233 0)
(5.13227 -33.8874 -5.98573e-15)
(6.03152 -38.9789 2.40732e-15)
(6.65204 -43.5678 2.31181e-15)
(7.1193 -47.7131 4.24746e-15)
(7.50691 -51.4672 -3.99066e-15)
(7.84156 -54.8368 3.8839e-15)
(8.13008 -57.8332 1.57274e-16)
(8.38235 -60.4919 -3.47195e-15)
(8.60072 -62.7456 0)
(8.77269 -64.6384 6.88779e-15)
(8.84657 -65.8378 -7.05786e-15)
(9.09556 -66.9379 -1.71742e-16)
(8.38573 -66.5002 -7.17394e-15)
(10.6437 -68.912 6.70574e-15)
(3.45718 -64.2418 7.63028e-15)
(23.7756 -77.8473 2.90238e-16)
(0.144003 -14.0495 1.86072e-14)
(1.05812 -18.6156 -1.3525e-14)
(2.58499 -23.8084 3.80386e-15)
(4.37012 -29.1144 0)
(5.87154 -34.248 0)
(6.98675 -39.0231 -5.25181e-15)
(7.8302 -43.4142 9.11847e-15)
(8.52575 -47.4569 -8.64267e-15)
(9.12651 -51.1536 3.74262e-15)
(9.65031 -54.4876 7.44395e-15)
(10.1019 -57.4612 7.47134e-15)
(10.4958 -60.1093 -7.10818e-15)
(10.8273 -62.3485 6.81044e-15)
(11.0937 -64.2485 -1.31979e-17)
(11.2342 -65.4215 7.05692e-15)
(11.5228 -66.5497 1.82564e-16)
(10.8239 -66.0838 -7.17507e-15)
(13.1632 -68.4149 1.32649e-14)
(5.8215 -64.0998 -1.41707e-14)
(26.6225 -76.798 -1.2104e-14)
(-1.04899 -14.8235 6.01151e-15)
(0.788141 -19.8527 -4.44756e-15)
(2.87185 -24.9458 2.51048e-16)
(4.98692 -29.9066 0)
(6.67813 -34.6549 0)
(7.9729 -39.1149 -1.05533e-14)
(9.0264 -43.3126 9.03371e-15)
(9.9409 -47.2379 1.73042e-14)
(10.7456 -50.8534 -1.18655e-14)
(11.4508 -54.1277 -7.78692e-15)
(12.0597 -57.0585 1.46338e-14)
(12.5929 -59.6803 -2.84042e-14)
(13.0343 -61.8915 6.64257e-15)
(13.3982 -63.7899 6.71646e-15)
(13.6 -64.9242 7.058e-15)
(13.932 -66.0832 -6.67762e-15)
(13.2465 -65.5844 0)
(15.6606 -67.87 1.38209e-14)
(8.21223 -63.8878 1.52516e-14)
(29.4628 -75.6254 1.27128e-14)
(-1.17483 -16.4934 -1.22032e-14)
(1.09479 -21.2551 0)
(3.46453 -26.1018 1.77191e-14)
(5.75547 -30.698 -1.39209e-14)
(7.56814 -35.0755 0)
(9.0218 -39.2435 0)
(10.276 -43.2543 -4.67329e-15)
(11.3957 -47.0483 -1.71985e-14)
(12.3898 -50.5626 8.03919e-15)
(13.2635 -53.7587 0)
(14.0194 -56.6304 0)
(14.6856 -59.2116 7.113e-15)
(15.2295 -61.3824 -6.97848e-15)
(15.692 -63.2701 -6.89546e-15)
(15.9466 -64.3547 -1.41226e-14)
(16.3307 -65.5461 1.33486e-14)
(15.6533 -64.993 4.39741e-16)
(18.139 -67.2343 4.16326e-16)
(10.6042 -63.6 -1.41443e-14)
(32.2273 -74.3332 -1.2154e-14)
(-0.823314 -17.9977 -1.05901e-14)
(1.68048 -22.6567 -1.91851e-14)
(4.27085 -27.2009 -7.9321e-16)
(6.66823 -31.4465 2.0464e-14)
(8.56805 -35.4961 0)
(10.1678 -39.3979 1.04271e-14)
(11.61 -43.2247 -9.60189e-15)
(12.9133 -46.8741 8.24396e-15)
(14.077 -50.2716 7.87143e-15)
(15.1027 -53.3753 -7.81695e-15)
(15.9921 -56.1745 7.16995e-15)
(16.7825 -58.7019 0)
(17.4201 -60.8215 -1.42783e-14)
(17.9808 -62.6888 2.75725e-14)
(18.2752 -63.7149 -2.72027e-14)
(18.7219 -64.9398 0)
(18.0415 -64.315 8.63352e-18)
(20.5949 -66.5286 -1.34689e-14)
(13.0052 -63.234 2.89548e-14)
(34.9092 -72.9366 -3.59137e-14)
(-0.172602 -19.5815 -4.76624e-16)
(2.53463 -23.9978 2.5704e-14)
(5.28987 -28.2478 -1.47979e-14)
(7.75129 -32.1267 -6.63667e-15)
(9.72505 -35.8814 1.16837e-14)
(11.4503 -39.5467 -2.1064e-14)
(13.0524 -43.1899 9.20097e-15)
(14.509 -46.6821 0)
(15.8173 -49.95 1.74883e-16)
(16.9753 -52.9497 -7.48812e-15)
(17.9834 -55.6658 -1.50132e-14)
(18.8869 -58.1292 1.39091e-14)
(19.6065 -60.1907 -1.42874e-14)
(20.2647 -62.0321 1.3796e-14)
(20.583 -62.9962 1.44826e-14)
(21.1053 -64.2566 -1.33341e-14)
(20.4047 -63.5465 4.23017e-14)
(23.0282 -65.7494 -1.30385e-14)
(15.4018 -62.7792 -2.81741e-14)
(37.5015 -71.4509 1.52952e-17)
(0.9007 -20.8559 -8.9972e-15)
(3.73075 -25.1415 3.2852e-14)
(6.58183 -29.1555 6.20683e-16)
(9.04135 -32.7031 -2.57223e-14)
(11.0674 -36.1929 -1.19322e-14)
(12.8945 -39.6398 2.02806e-14)
(14.6232 -43.1042 0)
(16.1947 -46.4384 8.85717e-15)
(17.6198 -49.573 -1.60346e-14)
(18.8883 -52.4647 0)
(19.9981 -55.093 -1.4704e-14)
(21.0022 -57.4879 1.42437e-14)
(21.7898 -59.4887 0)
(22.5428 -61.2988 2.75775e-14)
(22.8668 -62.2013 -1.37882e-14)
(23.4802 -63.4951 0)
(22.7336 -62.6898 -4.2345e-14)
(25.436 -64.9046 4.06258e-14)
(17.7955 -62.2162 2.88549e-14)
(39.9996 -69.8926 4.87737e-14)
(2.3051 -21.8679 1.69646e-14)
(5.20949 -26.1115 8.12411e-15)
(8.1357 -29.8912 -1.36772e-14)
(10.5413 -33.1328 -1.28237e-14)
(12.6068 -36.3908 2.24409e-14)
(14.4981 -39.6388 -2.00155e-14)
(16.316 -42.9305 9.28958e-15)
(17.9704 -46.1139 -1.76059e-14)
(19.486 -49.1215 2.38775e-14)
(20.8425 -51.9092 1.56818e-14)
(22.0357 -54.4498 -1.43937e-14)
(23.1277 -56.774 3.22891e-16)
(23.9702 -58.714 -1.36588e-14)
(24.8153 -60.4864 -4.17113e-14)
(25.1259 -61.3313 2.76171e-14)
(25.8476 -62.6516 7.25559e-16)
(25.0194 -61.7491 2.83501e-14)
(27.8175 -63.9994 0)
(20.1774 -61.5261 -2.80735e-14)
(42.403 -68.2742 2.43895e-14)
(4.11893 -22.3969 0)
(7.02935 -26.7204 0)
(9.97859 -30.3563 -1.38909e-14)
(12.266 -33.347 -5.11874e-16)
(14.3448 -36.4024 3.33453e-14)
(16.2489 -39.4764 -9.83054e-15)
(18.1178 -42.6157 9.63592e-15)
(19.8235 -45.6669 -1.67561e-14)
(21.4033 -48.5593 0)
(22.8281 -51.2513 1.53156e-14)
(24.0882 -53.7099 1.47003e-14)
(25.2547 -55.9664 0)
(26.1398 -57.8506 -1.4316e-14)
(27.0738 -59.5809 2.72623e-14)
(27.3525 -60.3794 2.7974e-14)
(28.2018 -61.7161 -1.25791e-14)
(27.2491 -60.7259 -5.52603e-14)
(30.1721 -63.0296 0)
(22.5248 -60.692 0)
(44.7139 -66.6049 -5.78409e-18)
(6.32726 -22.3319 -1.65096e-14)
(9.11902 -26.8456 0)
(12.0808 -30.4431 1.61665e-16)
(14.1941 -33.2741 1.28423e-14)
(16.252 -36.1684 -2.18521e-14)
(18.1153 -39.1098 0)
(20.0035 -42.1273 9.21311e-15)
(21.7336 -45.0735 0)
(23.3575 -47.8703 0)
(24.8325 -50.4799 -1.52709e-14)
(26.1436 -52.8651 0)
(27.3732 -55.0587 1.45782e-14)
(28.2906 -56.8936 -4.2007e-14)
(29.3107 -58.5767 2.7608e-14)
(29.54 -59.3455 -1.3481e-14)
(30.537 -60.6815 5.46554e-14)
(29.4127 -59.6243 0)
(32.506 -61.9819 -2.68046e-14)
(24.8284 -59.7928 0)
(46.9316 -64.8999 4.88313e-14)
(8.70873 -21.4629 0)
(11.3314 -26.3734 1.21918e-16)
(14.3549 -30.0785 2.77458e-16)
(16.2399 -32.8518 -3.69808e-14)
(18.2491 -35.6352 1.08774e-14)
(20.0359 -38.503 -1.00696e-14)
(21.9242 -41.4404 -9.17365e-15)
(23.6622 -44.3158 1.74501e-14)
(25.3195 -47.04 -1.57262e-14)
(26.8359 -49.583 -3.09055e-14)
(28.1889 -51.9068 1.43692e-14)
(29.4736 -54.0447 1.427e-14)
(30.4156 -55.8389 1.39974e-14)
(31.5178 -57.4706 1.38127e-14)
(31.6835 -58.2323 0)
(32.8481 -59.5411 7.37623e-16)
(31.5054 -58.4502 -5.54535e-14)
(34.8279 -60.8454 -6.96259e-16)
(27.0914 -58.7616 2.73025e-14)
(49.0559 -63.1822 -4.88639e-14)
(11.1379 -19.4596 1.83152e-14)
(13.5469 -25.1954 1.53516e-14)
(16.7085 -29.1599 1.37051e-14)
(18.2922 -32.0123 -1.29023e-14)
(20.2411 -34.7631 1.07576e-14)
(21.938 -37.6338 2.05373e-14)
(23.8226 -40.5393 -8.83955e-15)
(25.5698 -43.3815 -3.46573e-14)
(27.2562 -46.0576 -6.73696e-16)
(28.8103 -48.5524 -6.86377e-16)
(30.2007 -50.8289 1.43855e-14)
(31.5383 -52.9201 -2.85359e-14)
(32.5023 -54.6842 0)
(33.6835 -56.2616 1.44783e-14)
(33.7777 -57.0431 -5.53923e-14)
(35.1278 -58.2876 2.66126e-14)
(33.5193 -57.2172 2.81523e-14)
(37.1413 -59.6172 0)
(29.2757 -57.5976 -2.8106e-14)
(51.0967 -61.4718 0)
(13.1972 -16.0918 4.59036e-16)
(15.4284 -23.2833 3.38803e-16)
(18.9018 -27.636 1.43015e-14)
(20.163 -30.7598 -3.88143e-14)
(22.0978 -33.5767 3.36893e-14)
(23.745 -36.5265 1.01707e-14)
(25.6487 -39.4431 -9.2704e-15)
(27.4196 -42.2848 1.68604e-14)
(29.1427 -44.9334 1.5816e-14)
(30.738 -47.3962 -3.78497e-17)
(32.1655 -49.6377 0)
(33.5554 -51.6893 -3.23566e-16)
(34.5407 -53.4333 1.37107e-14)
(35.7977 -54.9534 2.83012e-14)
(35.8207 -55.7833 1.37299e-15)
(37.3676 -56.9162 -5.39654e-14)
(35.4523 -55.9501 2.90626e-14)
(39.4555 -58.2939 -5.25674e-14)
(31.3558 -56.312 2.81758e-14)
(53.0634 -59.7822 0)
(13.733 -12.1167 0)
(16.4482 -21.0436 -1.70129e-14)
(20.6146 -25.7002 -1.47479e-14)
(21.6965 -29.2224 0)
(23.7117 -32.1581 3.51981e-14)
(25.3903 -35.2307 -3.06224e-14)
(27.354 -38.1826 -3.78798e-14)
(29.174 -41.0424 -3.16186e-16)
(30.9483 -43.6775 0)
(32.595 -46.1209 -3.51212e-17)
(34.0655 -48.3373 1.47614e-14)
(35.5109 -50.3534 0)
(36.5182 -52.086 2.87065e-14)
(37.8469 -53.5455 -5.53561e-14)
(37.8069 -54.45 2.70539e-14)
(39.5486 -55.4204 -2.21786e-17)
(37.2999 -54.6796 -2.82475e-14)
(41.78 -56.8643 2.66429e-14)
(33.3029 -54.9132 -2.96777e-14)
(54.9764 -58.1206 4.77278e-14)
(12.0067 -9.58319 0)
(16.5709 -19.6877 0)
(21.6254 -23.9488 -2.94124e-14)
(22.8715 -27.7214 5.20318e-14)
(25.0612 -30.6767 -4.56302e-14)
(26.8676 -33.8355 1.02754e-14)
(28.9281 -36.8064 3.74137e-14)
(30.8237 -39.6844 1.76378e-14)
(32.6616 -42.3085 -1.58755e-14)
(34.3687 -44.7371 1.53504e-14)
(35.8886 -46.9338 -2.98008e-14)
(37.395 -48.9152 1.39973e-14)
(38.4266 -50.6442 2.87284e-14)
(39.8201 -52.0368 2.90087e-14)
(39.7289 -53.0351 -2.70828e-14)
(41.6418 -53.7965 2.66758e-14)
(39.0454 -53.4276 5.65612e-14)
(44.0985 -55.2627 -2.58329e-14)
(35.0471 -53.3931 0)
(56.8798 -56.5473 0)
(9.93268 -10.1407 0)
(16.9908 -20.131 1.69643e-14)
(22.4858 -22.6067 -1.4134e-14)
(23.9195 -26.3538 -2.6117e-14)
(26.2682 -29.1554 1.05681e-14)
(28.2147 -32.3502 2.00454e-14)
(30.3915 -35.3184 2.84797e-17)
(32.3777 -38.2171 0)
(34.2915 -40.8366 0)
(36.068 -43.2548 3.10435e-14)
(37.6444 -45.4422 6.15328e-16)
(39.2145 -47.386 -2.83285e-14)
(40.2779 -49.1219 0)
(41.7272 -50.4335 -5.55077e-14)
(41.5969 -51.5416 2.84728e-14)
(43.6308 -52.0374 -8.16394e-14)
(40.6996 -52.1844 2.81982e-14)
(46.3492 -53.3143 2.74349e-14)
(36.4852 -51.8668 -5.77214e-14)
(58.8292 -55.2812 4.74586e-14)
(13.6172 -11.6442 -8.1123e-16)
(18.185 -20.1961 -1.59351e-14)
(23.2685 -21.3212 -1.36461e-14)
(24.6191 -24.8618 1.22372e-14)
(27.1666 -27.4761 2.21208e-14)
(29.2813 -30.7129 -1.91939e-14)
(31.655 -33.6754 -1.78814e-14)
(33.7717 -36.6026 1.69311e-14)
(35.8024 -39.2418 -1.52854e-14)
(37.6719 -41.6595 -1.51142e-14)
(39.3316 -43.8638 2.85666e-14)
(40.9704 -45.7686 2.8627e-16)
(42.087 -47.535 -2.79775e-14)
(43.5767 -48.7326 2.64519e-14)
(43.4773 -50.0085 0)
(45.5211 -50.1034 2.69881e-14)
(42.468 -50.9861 8.9805e-16)
(48.5325 -50.8576 -2.54576e-14)
(37.6369 -50.808 0)
(60.908 -54.7414 -4.66729e-14)
(17.8486 -9.65769 1.76593e-14)
(18.8077 -20.1143 8.87326e-18)
(23.5696 -21.3396 1.2448e-14)
(24.6141 -24.9182 -2.17563e-14)
(27.5261 -27.2649 -2.96442e-16)
(29.7432 -30.2482 8.50311e-15)
(32.2936 -33.0053 2.37595e-16)
(34.4851 -35.7927 8.72701e-18)
(36.585 -38.3557 -1.3023e-14)
(38.4982 -40.7192 -1.23918e-14)
(40.1975 -42.9023 3.68417e-16)
(41.8662 -44.7672 -1.17537e-14)
(43.0333 -46.5647 0)
(44.4933 -47.6644 4.65032e-14)
(44.5282 -49.114 0)
(46.4586 -48.8903 -2.36624e-14)
(43.611 -50.3412 2.39682e-14)
(49.5688 -49.0955 2.29903e-14)
(38.7043 -50.4572 -3.80469e-16)
(61.5486 -52.9041 2.81436e-16)
(18.0756 -9.838 0)
(18.6958 -19.8243 1.17024e-14)
(23.5878 -21.2855 0)
(24.5939 -24.7839 8.99961e-15)
(27.5767 -27.1635 0)
(29.8155 -30.1034 -1.33847e-14)
(32.3998 -32.8473 1.92244e-16)
(34.6104 -35.6106 -1.69768e-16)
(36.7302 -38.1687 1.04018e-14)
(38.6554 -40.5251 9.93953e-15)
(40.3695 -42.7116 -9.83042e-15)
(42.0408 -44.5698 1.93487e-14)
(43.2239 -46.3788 0)
(44.6691 -47.4559 -1.98259e-14)
(44.7015 -48.9792 3.2449e-16)
(46.616 -48.6465 5.67974e-18)
(43.8222 -50.2442 -3.1702e-16)
(49.7218 -48.7353 -2.01749e-14)
(38.9921 -50.5379 -1.89509e-14)
(61.6946 -52.5866 -1.5826e-14)
(18.1537 -10.2197 2.18402e-16)
(18.597 -19.5873 -1.77725e-16)
(23.5882 -21.3051 0)
(24.5739 -24.6996 9.22472e-15)
(27.623 -27.1099 7.32903e-15)
(29.8881 -29.9933 1.3172e-14)
(32.5055 -32.7129 3.76232e-16)
(34.7364 -35.4422 7.14225e-18)
(36.8756 -37.9895 -1.58929e-16)
(38.8114 -40.3351 -1.98668e-14)
(40.5399 -42.5223 -2.02702e-18)
(42.2123 -44.3733 -1.93701e-14)
(43.4128 -46.1918 1.48405e-16)
(44.839 -47.2469 -3.16988e-16)
(44.933 -48.8014 -1.99023e-14)
(46.7691 -48.4066 2.05953e-14)
(44.1075 -50.1307 3.36054e-16)
(49.8548 -48.38 -3.00162e-16)
(39.3236 -50.6028 1.9189e-14)
(61.8014 -52.2165 3.17688e-14)
(18.163 -10.6277 0)
(18.4911 -19.3959 0)
(23.5541 -21.3568 1.02262e-14)
(24.5343 -24.6519 -8.89836e-15)
(27.6452 -27.0921 -7.38122e-15)
(29.9426 -29.9143 -2.14238e-16)
(32.5961 -32.6022 -1.1892e-14)
(34.851 -35.2908 -3.45064e-16)
(37.0115 -37.8218 1.58635e-16)
(38.9597 -40.1531 9.92555e-15)
(40.7037 -42.338 1.93566e-14)
(42.3781 -44.181 -3.33579e-18)
(43.5977 -46.0064 9.71603e-15)
(45.0052 -47.0412 0)
(45.1567 -48.6257 1.98875e-14)
(46.9192 -48.1699 3.13225e-16)
(44.3881 -50.005 2.07274e-14)
(49.9787 -48.0318 1.99892e-14)
(39.6602 -50.6444 3.16199e-16)
(61.9208 -51.8426 -1.59272e-14)
(18.1505 -11.0265 1.30763e-14)
(18.3769 -19.2304 -7.22602e-18)
(23.4936 -21.4226 1.33172e-16)
(24.4805 -24.6248 -2.80386e-16)
(27.6461 -27.0984 -7.45527e-15)
(29.979 -29.8603 -6.83281e-15)
(32.669 -32.5138 1.20694e-14)
(34.9523 -35.1563 1.69274e-16)
(37.1361 -37.6665 1.03493e-14)
(39.0987 -39.9801 0)
(40.8603 -42.1595 -9.67816e-15)
(42.538 -43.9934 1.92524e-14)
(43.779 -45.8227 -9.72256e-15)
(45.1708 -46.8366 0)
(45.3793 -48.4461 -3.24843e-16)
(47.067 -47.9368 -2.0349e-14)
(44.674 -49.8746 -2.07052e-14)
(50.095 -47.6904 -1.97e-14)
(39.9982 -50.6713 -2.91512e-16)
(62.0572 -51.4668 2.50992e-16)
(18.1295 -11.4106 -2.63311e-14)
(18.2574 -19.0895 1.15518e-14)
(23.413 -21.5018 -3.08264e-17)
(24.417 -24.6167 1.33625e-16)
(27.6316 -27.126 1.55459e-14)
(30.0012 -29.8302 6.69507e-15)
(32.7257 -32.4484 -1.20833e-14)
(35.0395 -35.0408 -1.71359e-16)
(37.2496 -37.5246 -1.03507e-14)
(39.229 -39.817 -1.58084e-16)
(41.0099 -41.9873 1.48061e-16)
(42.6923 -43.8105 -9.63364e-15)
(43.9571 -45.6405 -9.58083e-15)
(45.3371 -46.6334 -1.51998e-16)
(45.6041 -48.2605 2.02292e-14)
(47.2121 -47.7072 2.06772e-14)
(44.9636 -49.7385 2.10121e-14)
(50.2039 -47.3553 -3.01979e-16)
(40.3369 -50.688 -1.92862e-14)
(62.2106 -51.0839 2.3737e-16)
(18.1011 -11.7791 1.28384e-14)
(18.1327 -18.969 -1.15856e-14)
(23.3151 -21.5919 -2.00576e-14)
(24.3457 -24.6255 0)
(27.6047 -27.1712 -1.73948e-17)
(30.0113 -29.8214 -2.35433e-16)
(32.7686 -32.4043 1.29031e-14)
(35.1126 -34.9453 1.82292e-16)
(37.352 -37.3971 -1.59485e-16)
(39.3507 -39.6642 0)
(41.1529 -41.8219 0)
(42.8414 -43.6326 9.64796e-15)
(44.1324 -45.4602 9.74212e-15)
(45.5012 -46.433 1.99617e-14)
(45.8324 -48.0701 -4.07957e-14)
(47.3545 -47.4812 3.14332e-16)
(45.2569 -49.5969 -2.06552e-14)
(50.3055 -47.0261 0)
(40.6765 -50.6976 1.08242e-17)
(62.3823 -50.6902 -1.62938e-14)
(18.0656 -12.1283 1.2699e-14)
(18.0036 -18.8673 1.19134e-14)
(23.2027 -21.6902 9.95779e-15)
(24.2677 -24.6496 8.65674e-15)
(27.5691 -27.2305 -1.60147e-14)
(30.0122 -29.8312 -6.65499e-15)
(32.7995 -32.3799 8.68496e-18)
(35.1737 -34.8689 -1.18383e-14)
(37.4426 -37.2856 0)
(39.4644 -39.5224 9.90763e-15)
(41.2898 -41.6635 -1.54653e-16)
(42.9859 -43.4599 -9.35264e-15)
(44.3052 -45.2819 -1.49169e-16)
(45.6637 -46.2365 1.34113e-17)
(46.0601 -47.8773 2.02414e-14)
(47.4945 -47.2598 0)
(45.5536 -49.4491 0)
(50.3985 -46.7021 -2.02125e-14)
(41.0181 -50.7013 1.16687e-17)
(62.5749 -50.2812 -6.00861e-17)
(18.0242 -12.4546 -2.56074e-14)
(17.8719 -18.7803 -1.17559e-14)
(23.0781 -21.7951 -9.83375e-15)
(24.1851 -24.6871 -8.6824e-15)
(27.5282 -27.3001 1.58299e-14)
(30.007 -29.8557 0)
(32.8214 -32.3722 0)
(35.2246 -34.8103 5.81898e-18)
(37.5226 -37.1898 0)
(39.5707 -39.3919 -9.96219e-15)
(41.4211 -41.5122 -9.54547e-15)
(43.1262 -43.2925 -9.82081e-15)
(44.4757 -45.1057 -9.92587e-15)
(45.8252 -46.0452 -3.98644e-14)
(46.2875 -47.6854 0)
(47.6283 -47.0441 0)
(45.8528 -49.2949 0)
(50.481 -46.3892 2.02447e-14)
(41.364 -50.6995 3.75899e-14)
(62.7901 -49.8507 1.64702e-14)
(17.9776 -12.7581 1.27084e-14)
(17.7368 -18.7046 0)
(22.9435 -21.9043 9.75818e-15)
(24.1019 -24.7345 2.75567e-16)
(27.4854 -27.3766 -8.19075e-15)
(29.9988 -29.8914 0)
(32.8374 -32.3776 0)
(35.2677 -34.7671 1.21281e-14)
(37.5944 -37.1081 1.77472e-16)
(39.6695 -39.2736 -3.16573e-16)
(41.5474 -41.368 9.85533e-15)
(43.2629 -43.1304 9.68086e-15)
(44.644 -44.9315 9.7757e-15)
(45.9801 -45.8592 1.97082e-14)
(46.5038 -47.4954 -1.59939e-17)
(47.7596 -46.8335 3.15549e-16)
(46.1547 -49.1381 0)
(50.5539 -46.0864 0)