/*--------------------------------*- C++ -*----------------------------------*\
  =========                 |
  \\      /  F ield         | OpenFOAM: The Open Source CFD Toolbox
   \\    /   O peration     | Website:  https://openfoam.org
    \\  /    A nd           | Version:  10
     \\/     M anipulation  |
\*---------------------------------------------------------------------------*/
FoamFile
{
    format      ascii;
    class       volVectorField;
    location    "200";
    object      Urel;
}
// * * * * * * * * * * * * * * * * * * * * * * * * * * * * * * * * * * * * * //

dimensions      [0 1 -1 0 0 0 0];

internalField   nonuniform List<vector> 
420
(
(1.26758 -0.408135 1.37129e-18)
(0.822239 0.719894 -2.01187e-17)
(0.62707 1.36321 -1.6061e-16)
(0.707034 1.61744 4.67943e-17)
(0.823024 1.57506 -3.82143e-16)
(0.950715 1.27088 0)
(1.0629 0.616195 0)
(1.05468 -0.318153 4.97741e-16)
(1.15426 -1.69898 -4.82558e-16)
(1.22974 -3.1095 0)
(1.18183 -0.0499346 8.67742e-18)
(0.384007 0.812271 -2.71433e-17)
(0.435026 1.34169 4.36857e-16)
(0.517588 1.55508 -8.18579e-16)
(0.647494 1.51459 2.49237e-16)
(0.83766 1.19757 9.45154e-18)
(1.07684 0.522784 2.41441e-15)
(1.30982 -0.466149 -6.83118e-16)
(1.46324 -1.77141 9.33927e-16)
(1.54797 -3.0383 0)
(1.08847 -0.198492 -1.55285e-16)
(0.177276 0.696146 -1.69835e-17)
(0.390833 1.21649 4.36471e-16)
(0.574336 1.41483 9.3546e-16)
(0.78823 1.35851 -6.11608e-16)
(1.04796 1.01979 3.0255e-15)
(1.31742 0.35424 1.30644e-15)
(1.54655 -0.552808 3.66076e-15)
(1.64728 -1.70072 -1.45495e-15)
(1.71017 -2.84667 -3.01008e-15)
(1.04079 -0.261685 1.3691e-16)
(0.0500071 0.529625 6.14335e-17)
(0.324476 1.03052 -5.27463e-16)
(0.574977 1.21787 6.12181e-16)
(0.845781 1.16851 -1.15244e-15)
(1.13046 0.850289 1.25332e-15)
(1.38984 0.255743 -7.67732e-15)
(1.57841 -0.544645 0)
(1.63251 -1.54505 -3.01732e-15)
(1.67508 -2.59493 2.75292e-15)
(1.0041 -0.284924 0)
(-0.0580313 0.350365 1.38105e-16)
(0.220626 0.798944 -1.28553e-16)
(0.490981 0.969537 0)
(0.773882 0.93442 -1.98632e-16)
(1.04887 0.66452 -3.12554e-16)
(1.26497 0.171361 2.64833e-15)
(1.39183 -0.506332 -2.86579e-15)
(1.39327 -1.35055 0)
(1.42068 -2.32185 -1.16031e-14)
(0.963405 -0.261648 -4.82871e-17)
(-0.174799 0.184659 0)
(0.0918187 0.551435 0)
(0.347797 0.696078 9.26507e-16)
(0.60504 0.677268 -1.67492e-15)
(0.83216 0.467815 1.9754e-15)
(0.974594 0.0896129 5.24911e-16)
(1.00727 -0.44837 6.54843e-15)
(0.939167 -1.13888 -8.37544e-15)
(0.978711 -2.0638 6.01457e-15)
(0.900219 -0.185743 0)
(-0.298772 0.0447667 -1.26996e-16)
(-0.0394451 0.316738 -1.21922e-15)
(0.180882 0.432316 -6.53691e-16)
(0.383954 0.433335 -2.8592e-15)
(0.531171 0.294748 2.04555e-15)
(0.571642 0.0422619 -5.17711e-15)
(0.489438 -0.33255 6.04339e-16)
(0.356848 -0.874526 -2.70569e-15)
(0.485891 -1.80794 -1.03924e-14)
(0.788866 -0.0603638 9.1079e-17)
(-0.40369 -0.0639485 1.27406e-16)
(-0.143105 0.124983 1.69189e-15)
(0.0319005 0.218767 5.4414e-16)
(0.16347 0.246281 1.90615e-15)
(0.216704 0.192349 0)
(0.158093 0.0811339 5.69888e-15)
(0.0052888 -0.110134 6.76716e-15)
(-0.100902 -0.51331 8.57903e-15)
(0.198083 -1.53378 8.53465e-15)
(0.615147 0.074412 8.98374e-17)
(-0.435292 -0.140266 1.31285e-16)
(-0.18083 0.00675448 -1.4192e-16)
(-0.0477823 0.0950989 -1.40049e-15)
(0.0335056 0.133111 4.74246e-15)
(0.0538564 0.115557 7.27862e-15)
(0.0103255 0.0669806 -2.68399e-15)
(-0.0478427 -0.013781 0)
(-0.0159899 -0.263402 0)
(0.264986 -1.29718 -8.38849e-15)
(0.311979 0.160646 -1.51492e-16)
(-0.308351 -0.0935638 5.73548e-16)
(-0.0955502 -0.0445976 0)
(-0.0392409 0.0110122 0)
(-0.0334293 0.0726244 -3.29664e-15)
(-0.0490696 0.166669 -3.00519e-17)
(-0.0568716 0.303173 6.26376e-15)
(-0.00314851 0.45078 -1.38762e-14)
(0.132161 0.443826 1.66393e-14)
(0.363251 -0.358722 1.33314e-15)
(1.25729 -4.59652 0)
(1.21347 -6.34661 0)
(1.12985 -8.60085 0)
(1.20706 -11.1329 -7.48707e-16)
(1.30254 -13.6638 0)
(1.34555 -16.7686 0)
(2.28131 -19.5427 7.55803e-16)
(1.0779 -22.8644 0)
(0.770922 -26.4238 0)
(10.8585 -4.5803 0)
(1.61069 -4.4117 1.33857e-15)
(1.64556 -6.12912 2.33726e-15)
(1.70336 -8.45196 9.48622e-17)
(1.95508 -11.0564 7.99842e-16)
(2.23305 -13.6416 1.89683e-17)
(2.49175 -16.7657 9.14102e-16)
(3.4297 -19.6676 -1.08662e-16)
(2.28396 -23.1045 -1.55162e-16)
(2.3736 -26.2838 -1.62955e-15)
(10.9372 -2.47016 -3.37809e-15)
(1.80899 -4.15294 1.18843e-15)
(1.93689 -5.87812 0)
(2.17573 -8.26375 -1.86701e-15)
(2.61731 -10.8883 -1.55729e-15)
(3.08048 -13.4834 4.73539e-15)
(3.56299 -16.56 -9.25786e-16)
(4.51277 -19.5115 1.52525e-15)
(3.63089 -23.2039 0)
(4.09359 -25.8592 1.52075e-15)
(10.0644 -1.58456 -1.7479e-16)
(1.82287 -3.8726 2.60425e-15)
(2.08072 -5.65187 6.89581e-15)
(2.55639 -8.09183 -7.28283e-15)
(3.21106 -10.6923 2.89212e-15)
(3.86853 -13.2602 1.50616e-17)
(4.58473 -16.2511 0)
(5.55835 -19.1937 -1.53727e-15)
(5.01615 -23.0853 -2.18682e-15)
(5.87153 -25.2487 -1.53677e-15)
(9.17406 -0.974797 1.18705e-14)
(1.65445 -3.6247 2.38103e-15)
(2.11856 -5.50765 -2.31245e-15)
(2.89007 -7.95652 7.54004e-15)
(3.76144 -10.4716 -2.98949e-15)
(4.61587 -12.9748 2.48447e-15)
(5.57081 -15.8427 -3.8626e-15)
(6.58897 -18.7374 3.13294e-15)
(6.45737 -22.7652 2.17962e-15)
(7.64095 -24.5995 0)
(8.46347 -0.78041 -2.32139e-14)
(1.38416 -3.47711 3.19053e-15)
(2.16193 -5.49266 -1.42781e-14)
(3.24748 -7.8627 -4.09185e-15)
(4.30414 -10.232 9.38067e-15)
(5.3463 -12.638 7.91839e-15)
(6.53286 -15.3494 1.3018e-16)
(7.61581 -18.1604 9.9799e-17)
(7.92371 -22.279 -2.36516e-15)
(9.4349 -23.8684 -3.53104e-15)
(7.91658 -0.782254 2.17319e-14)
(1.19523 -3.4707 3.51268e-15)
(2.34766 -5.58563 5.28045e-15)
(3.68419 -7.77289 0)
(4.8702 -9.96378 -3.17513e-15)
(6.08103 -12.25 -5.10263e-15)
(7.48278 -14.781 1.77404e-16)
(8.65578 -17.4763 -1.03499e-14)
(9.39598 -21.6749 -2.47024e-15)
(11.2413 -23.0319 5.88598e-15)
(7.5294 -0.95609 -9.61257e-15)
(1.27342 -3.55133 1.30671e-14)
(2.72143 -5.66759 -4.58315e-15)
(4.21057 -7.61796 0)
(5.47697 -9.63552 -1.51418e-16)
(6.82926 -11.7938 2.12935e-14)
(8.42485 -14.1363 -8.58004e-15)
(9.7021 -16.6959 -7.3125e-15)
(10.8448 -20.9292 5.39198e-15)
(13.0303 -22.0532 -5.05957e-15)
(7.26113 -1.21718 0)
(1.71977 -3.61042 2.72337e-16)
(3.21498 -5.61448 -4.46651e-15)
(4.78672 -7.32791 0)
(6.12241 -9.21052 6.93822e-15)
(7.59044 -11.2572 -1.61451e-14)
(9.36806 -13.4129 8.95366e-15)
(10.742 -15.8173 3.6817e-15)
(12.2367 -20.0888 0)
(14.6394 -20.9075 -3.19372e-16)
(7.18201 -1.59892 1.17347e-14)
(2.86662 -3.23056 3.94296e-16)
(3.77487 -5.33852 1.45364e-16)
(5.36093 -6.89837 0)
(6.80225 -8.69994 -1.35266e-14)
(8.38197 -10.6545 5.06786e-15)
(10.3366 -12.6403 -4.84172e-15)
(11.8752 -14.8458 3.58363e-15)
(13.6173 -18.9788 5.10611e-16)
(16.1331 -19.543 2.91562e-16)
(7.38516 -2.23971 -1.16918e-14)
(3.94179 -1.77402 3.09243e-15)
(4.06322 -4.76331 -5.24815e-15)
(5.65451 -6.35813 0)
(7.2531 -8.11403 0)
(8.97143 -9.97319 0)
(11.018 -11.8232 -2.49211e-15)
(12.6313 -13.859 1.00666e-14)
(14.8553 -17.9385 0)
(18.2434 -17.8445 0)
(7.68172 -1.82243 0)
(3.87529 -1.78818 -3.08689e-15)
(4.14207 -4.37118 -5.51084e-15)
(5.76082 -6.05567 0)
(7.49199 -7.78182 3.73561e-15)
(9.31726 -9.5829 -2.85981e-15)
(11.4485 -11.3265 2.59482e-15)
(13.1404 -13.1962 4.47333e-15)
(15.6912 -17.5201 -1.20985e-16)
(19.276 -17.3867 1.41188e-15)
(7.52261 -1.15325 0)
(2.56399 -2.8647 4.29525e-16)
(4.17094 -4.26987 -8.79563e-17)
(5.9669 -5.86375 0)
(7.83848 -7.4955 2.14399e-16)
(9.7564 -9.22662 6.43553e-15)
(12.0088 -10.8357 -4.64581e-15)
(13.8137 -12.4892 -1.26788e-14)
(16.5794 -16.9042 -7.15416e-15)
(19.8231 -17.3091 1.26056e-14)
(7.35773 -1.2553 1.20175e-14)
(2.46939 -2.85336 -1.31797e-14)
(4.33639 -4.03797 4.97087e-15)
(6.3082 -5.35304 0)
(8.3179 -6.77435 -7.60396e-15)
(10.3492 -8.34183 -6.29084e-15)
(12.7659 -9.78154 1.03576e-14)
(14.5918 -11.1834 4.58614e-15)
(17.4806 -15.4812 0)
(21.1893 -15.502 -7.80306e-15)
(7.82652 -1.4228 -1.54319e-15)
(2.92277 -2.83119 -2.78207e-16)
(4.73836 -3.77711 4.92188e-15)
(6.74639 -4.87419 0)
(8.82417 -6.08905 1.48237e-14)
(10.926 -7.48827 -5.79212e-17)
(13.4643 -8.75621 -2.20563e-16)
(15.3061 -9.81775 9.68059e-15)
(18.3672 -14.0534 -7.00069e-15)
(22.5017 -13.8857 -6.97897e-15)
(8.26577 -1.44235 0)
(3.39589 -2.56669 -3.01072e-15)
(5.18455 -3.36312 1.03912e-14)
(7.20315 -4.28989 9.06875e-15)
(9.32085 -5.31249 -1.06491e-14)
(11.4648 -6.54639 -1.87507e-14)
(14.1051 -7.64532 -5.46867e-16)
(15.9344 -8.33982 -4.99295e-15)
(19.1538 -12.4591 -3.66214e-15)
(23.6588 -12.148 -8.38722e-15)
(8.74296 -1.29135 -1.29619e-14)
(3.82731 -2.1466 -9.47736e-15)
(5.61196 -2.82671 5.17821e-15)
(7.64109 -3.60596 -3.99476e-15)
(9.78839 -4.44607 -1.10435e-14)
(11.9602 -5.5157 8.69148e-15)
(14.6837 -6.44562 -5.44786e-16)
(16.4733 -6.77602 9.33498e-15)
(19.8296 -10.7447 4.00612e-15)
(24.6267 -10.2452 4.95232e-15)
(9.24477 -1.04146 1.45494e-15)
(4.18085 -1.62225 2.80898e-15)
(5.97898 -2.19458 -2.60554e-15)
(8.02884 -2.83854 -1.38558e-16)
(10.2079 -3.50246 1.08831e-14)
(12.4089 -4.40041 -1.52951e-14)
(15.2011 -5.14582 4.94632e-15)
(16.9291 -5.13309 -4.86901e-15)
(20.4006 -8.86871 1.05756e-14)
(25.3466 -8.13051 0)
(9.62376 -0.623623 3.56e-16)
(4.43804 -1.03965 3.1724e-15)
(6.26466 -1.50306 2.6344e-15)
(8.34741 -2.01511 4.46224e-15)
(10.5699 -2.50443 -7.09503e-15)
(12.8239 -3.21133 2.91791e-15)
(15.6834 -3.73819 0)
(17.4028 -3.43906 -2.13343e-15)
(20.9474 -6.80743 -6.898e-15)
(25.7727 -5.64894 5.42146e-17)
(9.55509 0.190232 1.03906e-14)
(4.59943 -0.433671 1.48063e-15)
(6.4637 -0.786758 0)
(8.59118 -1.17225 2.16334e-15)
(10.8726 -1.49359 1.82907e-15)
(13.2005 -2.00739 1.24116e-16)
(16.1236 -2.30743 -1.08729e-15)
(17.9439 -1.69407 2.07699e-15)
(21.6293 -4.71056 0)
(26.0661 -2.6807 2.80905e-15)
(9.76282 1.39932 8.5091e-15)
(4.62891 0.184895 1.59038e-15)
(6.54789 -0.0678799 -2.5871e-15)
(8.74802 -0.351602 -1.09865e-16)
(11.0852 -0.525627 7.219e-16)
(13.4928 -0.84948 -4.74126e-17)
(16.5261 -1.04767 1.01634e-15)
(18.3569 0.0563766 -1.7207e-15)
(22.2119 -2.64211 8.07434e-17)
(26.748 -1.16685 2.02561e-15)
(10.1943 2.02515 -5.92416e-15)
(4.6825 0.785293 2.08601e-29)
(6.48944 0.646847 0)
(8.68886 0.417338 0)
(11.1426 0.328598 -7.87196e-16)
(13.6047 0.235362 0)
(16.6834 -0.0106953 0)
(19.3503 1.17389 8.60959e-16)
(22.1643 -0.472728 0)
(25.6133 -0.969048 0)
(5.93052 11.4224 -2.92756e-29)
(0.621039 -0.653565 1.12244e-15)
(0.512769 -2.00132 -7.1524e-15)
(1.17783 -2.1045 7.14078e-15)
(1.73092 -1.93054 -9.89554e-15)
(2.18267 -1.57317 6.75413e-15)
(2.54155 -1.11392 -1.43193e-14)
(2.79757 -0.606462 3.60229e-15)
(2.94702 -0.0998089 -3.91749e-15)
(2.9451 0.387395 0)
(3.07944 0.8414 -4.10748e-16)
(-0.803708 -0.504931 1.44826e-14)
(-0.868319 -1.85354 0)
(-0.270751 -1.72688 7.21766e-15)
(0.300019 -1.49456 -2.79861e-15)
(0.74513 -1.12816 -1.02342e-14)
(1.09596 -0.686901 0)
(1.35074 -0.207229 -4.11789e-15)
(1.50491 0.252621 -1.89486e-15)
(1.49881 0.620278 1.30007e-15)
(1.58965 0.903534 -4.9116e-16)
(-1.26998 -0.527311 -1.18022e-14)
(-1.62621 -1.82932 0)
(-1.29591 -1.58356 6.08935e-15)
(-0.81415 -1.30118 8.49616e-16)
(-0.415947 -0.916401 8.59769e-15)
(-0.0995455 -0.484064 -4.05368e-15)
(0.130943 -0.0293587 0)
(0.279493 0.409291 5.48617e-15)
(0.303372 0.775819 -8.95846e-16)
(0.244276 1.00013 6.68062e-16)
(-1.11239 -0.474248 5.33199e-15)
(-1.85654 -1.60665 -1.69284e-15)
(-1.87842 -1.35026 4.35375e-15)
(-1.60954 -1.00084 -4.48469e-15)
(-1.32858 -0.584565 6.39177e-16)
(-1.08089 -0.152305 2.86562e-15)
(-0.882629 0.280993 -8.83891e-15)
(-0.728916 0.686217 1.62259e-15)
(-0.644587 1.02515 2.80728e-15)
(-0.643127 1.14016 8.51821e-17)
(-0.823783 -0.363444 -7.7023e-15)
(-1.66152 -1.29259 4.54684e-15)
(-2.03885 -1.10756 0)
(-2.00036 -0.804666 1.696e-15)
(-1.87068 -0.41992 1.86259e-15)
(-1.72144 -0.0204201 -3.37439e-16)
(-1.58391 0.363073 1.46011e-15)
(-1.46076 0.702975 3.39953e-15)
(-1.36574 0.985316 7.76443e-18)
(-1.31392 1.05422 3.16206e-16)
(-0.555345 -0.245753 -2.99987e-15)
(-1.26219 -0.92645 2.66549e-15)
(-1.80356 -0.809107 1.41264e-15)
(-1.97143 -0.576316 -2.10657e-15)
(-2.01219 -0.255446 -1.48562e-15)
(-1.98418 0.0841662 -2.43593e-16)
(-1.91418 0.405722 -2.56569e-15)
(-1.8248 0.685846 8.87154e-16)
(-1.73092 0.911994 2.43631e-16)
(-1.64664 0.938474 -3.01322e-16)
(-0.338679 -0.132942 0)
(-0.816209 -0.550085 -8.40799e-16)
(-1.3647 -0.468465 4.75898e-16)
(-1.65437 -0.308685 -4.96292e-16)
(-1.81334 -0.0733167 6.95172e-16)
(-1.87819 0.185128 0)
(-1.88383 0.433453 5.75388e-16)
(-1.83777 0.648696 9.25834e-16)
(-1.76489 0.817453 -7.82351e-16)
(-1.68543 0.813152 -3.18695e-17)
(-0.162349 -0.0262951 0)
(-0.416386 -0.196906 3.6397e-17)
(-0.859198 -0.12321 8.93657e-16)
(-1.16121 -0.0212124 -6.47372e-16)
(-1.37043 0.127237 0)
(-1.49258 0.294355 -7.12306e-17)
(-1.53844 0.456465 -4.31719e-16)
(-1.51668 0.598163 3.75745e-16)
(-1.46237 0.704037 3.87582e-16)
(-1.39743 0.701803 -1.69175e-16)
(-0.0121256 0.0206381 -5.99078e-16)
(-0.122903 0.0226005 -3.77466e-17)
(-0.414204 0.0547325 -9.29903e-18)
(-0.650595 0.0760298 -2.15168e-17)
(-0.82531 0.122371 0)
(-0.927731 0.177433 7.75495e-17)
(-0.953469 0.230687 -7.19219e-18)
(-0.896206 0.29054 6.06296e-17)
(-0.800794 0.380023 -1.50075e-17)
(-0.686691 0.503338 -3.08597e-18)
(0.498452 0.418154 -3.1418e-17)
(0.732555 0.728442 -9.12618e-17)
(0.747411 0.790555 -1.01085e-16)
(0.700399 0.792024 0)
(0.642439 0.807987 5.21505e-17)
(0.597266 0.841949 0)
(0.578063 0.879315 2.41307e-16)
(0.591836 0.910589 -1.80649e-16)
(0.624565 0.949871 6.99738e-18)
(0.806776 1.06852 1.75699e-18)
)
;

boundaryField
{
    right
    {
        type            cyclic;
    }
    left
    {
        type            cyclic;
    }
    outerWall
    {
        type            noSlip;
    }
    stirrerWall
    {
        type            noSlip;
    }
    top
    {
        type            empty;
    }
    bottom
    {
        type            empty;
    }
}


// ************************************************************************* //
