/*--------------------------------*- C++ -*----------------------------------*\
  =========                 |
  \\      /  F ield         | OpenFOAM: The Open Source CFD Toolbox
   \\    /   O peration     | Website:  https://openfoam.org
    \\  /    A nd           | Version:  10
     \\/     M anipulation  |
\*---------------------------------------------------------------------------*/
FoamFile
{
    format      ascii;
    class       volScalarField;
    location    "80000";
    object      Co;
}
// * * * * * * * * * * * * * * * * * * * * * * * * * * * * * * * * * * * * * //

dimensions      [0 0 0 0 0 0 0];

internalField   nonuniform List<scalar> 
71680
(
81.603
64.436
53.6197
49.9482
59.1646
111.235
189.924
308.923
445.065
587.473
724.566
847.093
949.46
1029.34
1087.52
1126.65
1150.04
1161.26
1163.42
1159.03
1150.06
1137.96
1123.76
1108.15
1091.6
1074.43
1056.82
1038.89
1020.73
1002.39
983.902
965.296
946.591
927.805
908.95
890.037
871.076
852.075
833.043
813.986
794.911
775.825
756.735
737.647
718.567
699.5
680.452
661.428
642.434
623.474
604.553
585.674
566.843
548.063
529.337
510.668
492.061
473.517
455.039
436.631
418.294
400.031
381.844
363.735
345.705
327.758
309.894
292.117
274.427
256.828
239.322
221.911
204.599
187.389
175.006
167.506
167.465
176.347
184.809
192.889
200.631
208.065
215.207
222.071
228.671
235.016
241.116
246.98
252.621
258.049
263.27
268.282
273.088
277.697
282.118
286.36
290.432
294.342
298.1
301.712
305.185
308.531
311.763
314.89
317.92
320.865
323.736
326.544
329.298
332.009
334.687
337.341
339.979
342.61
345.24
347.877
350.527
353.195
355.887
358.608
361.361
364.151
366.982
369.857
372.78
375.755
378.783
381.869
385.014
388.223
391.497
394.84
398.254
401.743
405.308
408.953
412.681
416.494
420.396
424.389
428.477
432.663
436.949
441.34
445.839
450.448
455.172
460.014
82.4571
66.0402
61.093
53.016
51.723
57.5191
74.8115
123.041
192.967
298.011
419.841
550.899
682.138
804.898
912.636
1001.65
1070.62
1120.58
1153.89
1173.36
1181.93
1182.22
1176.35
1166.07
1152.69
1137.17
1120.18
1102.22
1083.58
1064.5
1045.09
1025.46
1005.66
985.732
965.712
945.623
925.481
905.303
885.101
864.885
844.665
824.449
804.244
784.056
763.893
743.758
723.658
703.597
683.58
663.611
643.693
623.83
604.026
584.284
564.606
544.996
525.455
505.986
486.591
467.273
448.033
428.872
409.792
390.796
371.883
353.056
334.316
315.665
297.102
278.632
260.254
241.971
223.787
205.705
192.908
185.44
182.391
191.461
200.095
208.333
216.219
223.782
231.038
238.001
244.685
251.101
257.256
263.158
268.814
274.234
279.43
284.406
289.164
293.709
298.052
302.203
306.171
309.967
313.598
317.075
320.407
323.604
326.678
329.639
332.501
335.275
337.973
340.61
343.196
345.743
348.263
350.766
353.262
355.759
358.266
360.79
363.337
365.914
368.525
371.176
373.871
376.614
379.408
382.258
385.166
388.135
391.168
394.268
397.438
400.68
403.997
407.391
410.866
414.423
418.066
421.797
425.619
429.534
433.547
437.658
441.872
446.192
450.621
455.161
459.817
464.592
469.489
474.513
82.7764
63.2752
65.4432
60.5081
54.4913
53.7936
58.1907
65.3848
81.7044
124.07
182.41
273.226
380.376
498.994
622.147
742.367
852.895
948.823
1027.55
1088.37
1132.35
1161.55
1178.35
1185.25
1184.43
1177.76
1166.77
1152.68
1136.37
1118.52
1099.6
1079.95
1059.81
1039.31
1018.57
997.665
976.636
955.526
934.362
913.167
891.959
870.753
849.56
828.389
807.251
786.151
765.096
744.09
723.139
702.246
681.415
660.65
639.952
619.325
598.771
578.292
557.89
537.566
517.324
497.163
477.085
457.092
437.184
417.363
397.629
377.983
358.426
338.957
319.579
300.291
281.095
261.991
242.983
224.073
210.904
203.503
197.69
206.327
215.12
223.501
231.515
239.188
246.537
253.577
260.319
266.777
272.957
278.868
284.515
289.901
295.035
299.924
304.578
309.002
313.209
317.211
321.019
324.643
328.093
331.378
334.508
337.494
340.348
343.082
345.712
348.249
350.711
353.11
355.462
357.78
360.077
362.365
364.655
366.957
369.28
371.631
374.017
376.445
378.919
381.445
384.027
386.668
389.371
392.141
394.979
397.889
400.873
403.933
407.072
410.293
413.596
416.986
420.463
424.032
427.693
431.449
435.303
439.258
443.317
447.481
451.754
456.139
460.639
465.257
469.996
474.86
479.853
484.977
83.59
60.3433
66.2323
66.5424
63.5681
57.6742
52.7545
53.3495
58.1457
65.6207
78.8079
115.712
163.701
240.668
333.841
439.544
552.901
667.694
777.764
877.773
963.969
1034.47
1088.9
1128.3
1154.43
1169.34
1175.12
1173.65
1166.56
1155.23
1140.76
1123.99
1105.59
1086.03
1065.67
1044.75
1023.45
1001.88
980.126
958.257
936.314
914.331
892.335
870.345
848.378
826.445
804.557
782.721
760.944
739.23
717.584
696.009
674.507
653.082
631.736
610.47
589.286
568.185
547.17
526.24
505.397
484.641
463.974
443.395
422.906
402.505
382.193
361.969
341.835
321.788
301.83
281.961
262.181
242.493
228.995
221.701
214.764
220.958
229.897
238.404
246.524
254.284
261.701
268.788
275.559
282.024
288.192
294.072
299.667
304.982
310.02
314.784
319.281
323.524
327.53
331.322
334.912
338.309
341.521
344.556
347.425
350.137
352.707
355.148
357.476
359.708
361.862
363.954
366.002
368.022
370.029
372.036
374.057
376.102
378.18
380.3
382.468
384.692
386.975
389.323
391.739
394.227
396.789
399.428
402.147
404.948
407.832
410.802
413.859
417.006
420.245
423.576
427.003
430.527
434.151
437.876
441.704
445.639
449.682
453.837
458.104
462.489
466.992
471.618
476.369
481.249
486.261
491.408
84.6137
58.0276
65.2953
68.1668
68.7406
67.6134
64.5368
58.8186
51.3204
49.3957
54.2641
61.5896
71.8224
103.116
144.256
206.545
286.858
379.618
481.764
588.689
695.024
795.686
886.418
964.288
1027.87
1077.01
1112.62
1136.25
1149.64
1154.57
1152.64
1145.29
1133.77
1119.07
1102.01
1083.24
1063.22
1042.35
1020.87
998.97
976.793
954.431
931.954
909.413
886.844
864.275
841.727
819.216
796.754
774.349
752.008
729.737
707.539
685.417
663.375
641.415
619.538
597.746
576.04
554.422
532.891
511.449
490.096
468.832
447.657
426.571
405.572
384.66
363.833
343.091
322.433
301.856
281.362
260.95
247.172
240.028
233.216
235.357
244.424
253.034
261.234
269.053
276.507
283.609
290.371
296.803
302.914
308.712
314.203
319.391
324.281
328.874
333.175
337.189
340.938
344.461
347.776
350.89
353.805
356.528
359.068
361.435
363.644
365.712
367.658
369.501
371.264
372.968
374.632
376.277
377.919
379.575
381.258
382.98
384.752
386.581
388.475
390.439
392.478
394.596
396.796
399.082
401.454
403.915
406.467
409.111
411.849
414.681
417.61
420.636
423.76
426.985
430.311
433.74
437.274
440.914
444.663
448.522
452.493
456.579
460.782
465.104
469.547
474.116
478.812
483.638
488.598
493.695
85.6588
56.0407
63.6693
67.4866
69.468
70.3861
70.2793
68.8907
65.716
60.0513
51.0819
46.7061
50.5543
57.5587
67.1219
90.9834
126.4
175.644
244.308
324.567
414.801
511.904
611.702
709.642
801.499
883.814
954.236
1011.66
1056.03
1088.22
1109.53
1121.47
1125.55
1123.15
1115.54
1103.84
1088.97
1071.71
1052.69
1032.39
1011.19
989.357
967.094
944.543
921.804
898.951
876.037
853.1
830.167
807.26
784.392
761.576
738.82
716.129
693.511
670.967
648.501
626.116
603.814
581.597
559.465
537.42
515.462
493.592
471.808
450.11
428.497
406.968
385.52
364.151
342.858
321.64
300.494
279.418
265.415
258.469
251.824
249.513
258.685
267.373
275.624
283.469
290.923
297.998
304.706
311.056
317.057
322.716
328.04
333.036
337.712
342.074
346.128
349.882
353.347
356.562
359.557
362.331
364.885
367.221
369.348
371.279
373.033
374.63
376.095
377.453
378.731
379.955
381.149
382.337
383.539
384.771
386.05
387.388
388.795
390.279
391.846
393.502
395.25
397.094
399.036
401.077
403.218
405.461
407.806
410.254
412.805
415.459
418.218
421.082
424.051
427.126
430.308
433.598
436.997
440.506
444.126
447.86
451.708
455.673
459.756
463.959
468.286
472.737
477.316
482.025
486.868
491.847
86.7349
54.1747
61.6874
65.698
68.0267
69.559
70.4693
70.7212
70.1448
68.4195
65.062
59.4609
50.9127
46.1748
49.2475
55.8689
64.725
81.8265
112.574
150.389
209.024
277.776
356.145
442.356
533.464
625.765
715.389
798.791
873.116
936.459
987.957
1027.7
1056.47
1075.41
1085.83
1088.96
1086.01
1078.11
1066.25
1051.3
1033.99
1014.92
994.565
973.288
951.361
928.984
906.302
883.417
860.405
837.32
814.2
791.075
767.966
744.888
721.854
698.873
675.952
653.098
630.314
607.605
584.973
562.421
539.949
517.559
495.251
473.025
450.878
428.809
406.816
384.896
363.044
341.256
319.528
297.856
283.691
276.997
270.567
265.206
272.647
281.385
289.654
297.484
304.892
311.89
318.489
324.698
330.525
335.979
341.068
345.806
350.205
354.28
358.042
361.5
364.661
367.545
370.168
372.531
374.631
376.476
378.078
379.455
380.633
381.64
382.507
383.269
383.958
384.606
385.242
385.892
386.58
387.323
388.138
389.037
390.029
391.121
392.32
393.629
395.05
396.584
398.233
399.998
401.876
403.87
405.977
408.197
410.53
412.976
415.533
418.201
420.981
423.872
426.874
429.988
433.214
436.553
440.005
443.571
447.253
451.052
454.968
459.005
463.164
467.446
471.853
476.39
481.056
485.856
87.9531
52.633
59.9025
63.8071
66.0756
67.6581
68.7887
69.513
69.7978
69.5405
68.5481
66.5194
63.035
57.571
49.5132
46.0777
49.9362
56.1593
64.387
75.293
102.351
134.568
180.709
239.469
306.876
382.12
463.373
547.919
632.519
713.86
788.946
855.409
911.745
957.348
992.441
1017.77
1034.31
1043.14
1045.3
1041.84
1033.73
1021.88
1007.05
989.934
971.078
950.93
929.836
908.06
885.796
863.19
840.347
817.344
794.24
771.076
747.884
724.689
701.509
678.358
655.247
632.187
609.184
586.243
563.369
540.565
517.832
495.172
472.583
450.064
427.613
405.226
382.897
360.622
338.393
316.205
301.95
295.573
289.415
283.469
286.264
295.012
303.254
311.018
318.323
325.184
331.609
337.607
343.189
348.366
353.156
357.58
361.658
365.413
368.855
371.986
374.799
377.282
379.436
381.264
382.776
383.986
384.915
385.594
386.056
386.341
386.49
386.545
386.546
386.531
386.532
386.579
386.695
386.899
387.207
387.629
388.174
388.848
389.653
390.592
391.664
392.871
394.209
395.679
397.278
399.005
400.857
402.833
404.93
407.147
409.483
411.936
414.505
417.189
419.986
422.898
425.923
429.062
432.314
435.68
439.161
442.757
446.469
450.299
454.247
458.316
462.507
466.823
471.264
475.833
89.354
51.5396
58.6166
62.3265
64.3918
65.821
66.8846
67.6605
68.1619
68.3651
68.21
67.5856
66.3109
64.123
60.664
55.4838
48.8801
47.0982
51.1752
56.8749
64.3871
73.817
93.5425
121.772
157.034
207.727
265.661
330.768
402.089
477.837
555.529
632.305
705.34
772.138
830.777
880.168
920.008
950.601
972.606
986.859
994.198
995.514
991.695
983.579
971.941
957.474
940.782
922.368
902.642
881.93
860.482
838.493
816.107
793.436
770.561
747.546
724.438
701.273
678.08
654.882
631.695
608.534
585.409
562.329
539.3
516.325
493.406
470.544
447.738
424.985
402.278
379.611
356.977
334.364
320.104
314.121
308.308
302.65
299.946
308.152
316.297
323.927
331.066
337.723
343.904
349.621
354.891
359.738
364.19
368.275
372.014
375.42
378.492
381.205
383.527
385.435
386.939
388.053
388.8
389.205
389.302
389.133
388.746
388.189
387.515
386.774
386.012
385.272
384.589
383.992
383.506
383.149
382.932
382.866
382.956
383.204
383.612
384.178
384.9
385.776
386.803
387.976
389.293
390.749
392.341
394.066
395.92
397.901
400.006
402.232
404.578
407.041
409.62
412.314
415.121
418.042
421.075
424.22
427.477
430.847
434.329
437.924
441.634
445.458
449.398
453.456
457.634
461.932
90.9284
50.895
57.8755
61.3668
63.1701
64.3516
65.2117
65.8483
66.2949
66.5557
66.6154
66.4392
65.9653
65.0902
63.6557
61.4395
58.1393
53.3698
48.969
48.8361
52.3854
57.3743
63.9971
72.3725
84.9774
109.998
138.791
180.731
231.005
287.365
349.5
416.346
486.18
556.744
625.522
690.164
748.677
799.636
842.331
876.69
903.057
922
934.149
940.189
940.845
936.839
928.873
917.61
903.652
887.53
869.696
850.523
830.315
809.314
787.71
765.65
743.248
720.595
697.758
674.792
651.738
628.628
605.487
582.34
559.202
536.083
512.988
489.925
466.899
443.908
420.946
398.005
375.079
352.155
337.989
332.491
327.11
321.823
316.616
320.675
328.634
336.043
342.927
349.294
355.159
360.546
365.479
369.984
374.086
377.8
381.127
384.054
386.562
388.616
390.193
391.294
391.939
392.151
391.961
391.407
390.536
389.401
388.062
386.581
385.018
383.432
381.873
380.387
379.009
377.768
376.686
375.777
375.052
374.515
374.169
374.013
374.044
374.258
374.651
375.216
375.948
376.842
377.892
379.091
380.436
381.921
383.542
385.295
387.175
389.18
391.306
393.551
395.913
398.388
400.975
403.673
406.479
409.394
412.416
415.545
418.781
422.123
425.573
429.13
432.796
436.571
440.456
444.453
92.6578
50.6744
57.6669
60.9495
62.481
63.3825
63.9786
64.3811
64.6352
64.7583
64.7527
64.6098
64.3104
63.8208
63.0848
62.0123
60.4697
58.2722
55.1686
50.8317
49.0529
50.8951
53.7705
57.8957
63.4734
70.6523
79.496
99.302
124.839
157.921
202.181
251.411
305.532
364.044
425.812
489.206
552.199
612.693
668.848
719.161
762.69
799.073
828.375
850.909
867.081
877.351
882.238
882.314
878.173
870.403
859.567
846.18
830.7
813.524
794.991
775.379
754.918
733.795
712.156
690.121
667.784
645.219
622.48
599.629
576.694
553.7
530.664
507.613
484.563
461.515
438.464
415.407
392.337
369.244
355.295
350.384
345.538
340.73
335.937
333.861
340.129
347.225
353.74
359.716
365.187
370.178
374.707
378.785
382.409
385.568
388.243
390.419
392.086
393.232
393.853
393.966
393.591
392.757
391.504
389.882
387.95
385.777
383.434
380.995
378.528
376.097
373.756
371.549
369.51
367.666
366.033
364.623
363.439
362.484
361.753
361.243
360.948
360.858
360.967
361.267
361.748
362.404
363.225
364.205
365.337
366.615
368.032
369.584
371.264
373.068
374.993
377.034
379.187
381.451
383.823
386.3
388.88
391.563
394.347
397.23
400.213
403.294
406.474
409.753
413.13
416.606
420.182
423.858
94.5236
50.8504
57.9592
61.0601
62.3447
62.9824
63.3157
63.4647
63.4812
63.3889
63.1979
62.9106
62.5233
62.026
61.4013
60.6199
59.6334
58.3657
56.7055
54.4993
52.2266
51.4527
52.1767
53.538
55.7421
59.0124
63.5609
69.559
77.1165
90.5431
113.375
139.314
178.796
222.327
269.794
320.882
374.945
430.862
487.162
542.149
594.18
641.865
684.232
720.788
751.407
776.156
795.178
808.727
817.154
820.877
820.355
816.07
808.498
798.101
785.308
770.508
754.045
736.218
717.284
697.457
676.918
655.815
634.255
612.34
590.142
567.746
545.177
522.511
499.766
476.939
454.046
431.096
408.09
385.025
371.445
367.237
363.04
358.826
354.565
350.239
350.541
357.116
363.231
368.746
373.695
378.1
381.975
385.327
388.152
390.449
392.21
393.426
394.09
394.195
393.739
392.739
391.225
389.238
386.83
384.068
381.026
377.787
374.436
371.054
367.718
364.492
361.428
358.57
355.945
353.576
351.472
349.638
348.074
346.774
345.732
344.937
344.38
344.049
343.933
344.02
344.301
344.765
345.401
346.202
347.159
348.263
349.508
350.886
352.392
354.02
355.765
357.624
359.59
361.663
363.837
366.11
368.48
370.945
373.502
376.15
378.888
381.714
384.629
387.631
390.721
393.897
397.161
400.512
96.5115
51.4011
58.717
61.6621
62.7393
63.1558
63.2645
63.1898
62.9853
62.6771
62.2779
61.7938
61.2268
60.5751
59.834
58.9943
58.052
57.3521
56.9336
56.5251
56.157
55.8733
55.7345
55.8213
56.2511
57.1782
58.7914
61.303
64.9286
69.8572
76.2286
84.3093
104.805
127.878
160.152
198.977
240.961
285.803
332.991
381.772
431.133
479.823
526.544
570.129
609.707
644.76
675.019
700.369
720.799
736.406
747.378
753.976
756.519
755.362
750.88
743.452
733.45
721.222
707.095
691.361
674.281
656.079
636.962
617.106
596.642
575.716
554.382
532.719
510.752
488.572
466.231
443.748
421.142
398.413
385.422
382.063
378.649
375.15
371.534
367.777
363.86
365.098
370.332
375.274
379.565
383.226
386.27
388.708
390.546
391.79
392.444
392.511
391.993
390.893
389.219
386.989
384.241
381.029
377.421
373.499
369.355
365.085
360.783
356.538
352.425
348.509
344.837
341.445
338.354
335.577
333.117
330.972
329.134
327.593
326.335
325.348
324.615
324.124
323.859
323.807
323.955
324.29
324.802
325.48
326.313
327.294
328.413
329.663
331.038
332.531
334.136
335.848
337.663
339.575
341.582
343.68
345.865
348.135
350.487
352.92
355.431
358.02
360.684
363.423
366.236
369.123
372.083
375.116
98.611
52.3067
59.9071
62.7232
63.6428
63.8958
63.8389
63.7233
63.7272
63.7756
63.7817
63.753
63.6927
63.6018
63.4798
63.3254
63.137
62.9136
62.6552
62.3642
62.0476
61.7198
61.4045
61.1359
60.9622
60.9511
61.1958
61.8245
63.0015
64.9212
67.7926
71.8145
77.1473
83.8947
98.9504
119.644
145.231
179.905
217.161
256.641
297.908
340.36
383.221
425.583
466.513
505.152
540.846
573.123
601.649
626.203
646.674
663.042
675.376
683.812
688.547
689.822
687.907
683.092
675.674
665.946
654.191
640.673
625.642
609.298
591.832
573.418
554.234
534.487
514.225
493.53
472.48
451.124
429.499
407.604
395.54
393.252
390.821
388.208
385.385
382.326
379.009
375.416
375.924
377.908
381.412
384.202
386.296
387.71
388.456
388.547
387.996
386.814
385.015
382.617
379.641
376.121
372.107
367.668
362.886
357.861
352.699
347.506
342.383
337.418
332.685
328.239
324.121
320.355
316.954
313.92
311.248
308.928
306.946
305.284
303.926
302.853
302.047
301.49
301.167
301.059
301.154
301.437
301.896
302.518
303.293
304.21
305.262
306.439
307.733
309.139
310.649
312.257
313.96
315.75
317.625
319.581
321.613
323.718
325.894
328.139
330.45
332.824
335.261
337.758
340.316
342.932
345.605
348.336
100.814
53.5449
61.4661
64.1966
65.3324
66.0958
66.5834
66.9297
67.1943
67.4067
67.5822
67.7292
67.8515
67.9503
68.0253
68.0748
68.0961
68.0862
68.0419
67.9604
67.8398
67.6804
67.4862
67.268
67.0453
66.846
66.7087
66.6871
66.8561
67.3197
68.2155
69.7128
72.0028
75.28
79.7162
85.4373
95.276
113.662
134.015
163.879
196.773
231.428
267.43
304.262
341.307
377.868
413.278
446.957
478.409
507.232
533.106
555.801
575.163
591.116
603.654
612.829
618.747
621.559
621.449
618.624
613.309
605.737
596.144
584.75
571.771
557.388
541.771
525.107
507.535
489.19
470.174
450.595
430.582
410.197
399.591
398.686
397.475
395.957
394.117
391.933
389.385
386.451
383.114
381.032
380.637
379.618
380.681
381.022
380.637
379.549
377.779
375.351
372.289
368.622
364.388
359.635
354.432
348.864
343.033
337.054
331.046
325.121
319.379
313.905
308.762
303.996
299.633
295.687
292.159
289.041
286.32
283.976
281.991
280.341
279.005
277.962
277.189
276.668
276.38
276.306
276.432
276.741
277.22
277.857
278.64
279.558
280.601
281.762
283.031
284.402
285.868
287.422
289.058
290.772
292.559
294.414
296.334
298.314
300.352
302.445
304.589
306.784
309.026
311.314
313.646
316.02
318.436
320.892
103.11
55.121
63.431
66.5902
68.1019
68.9547
69.5323
69.973
70.3385
70.6598
70.9533
71.2279
71.4885
71.737
71.9737
72.1972
72.4051
72.5941
72.7603
72.8991
73.006
73.0766
73.1074
73.0968
73.0468
72.9651
72.8672
72.7773
72.7271
72.7604
72.9365
73.3384
74.0775
75.2945
77.1548
79.8349
83.4996
88.2819
94.2671
109.441
127.297
150.134
179.03
209.336
240.628
272.431
304.241
335.564
365.933
394.919
422.143
447.278
470.058
490.271
507.766
522.447
534.272
543.247
549.422
552.887
553.76
552.187
548.329
542.359
534.476
524.866
513.687
501.105
487.277
472.365
456.506
439.798
422.327
404.162
395.392
396.057
396.31
396.134
395.517
394.442
392.891
390.845
388.287
385.202
381.58
377.414
375.48
372.884
369.62
365.712
361.188
357.495
353.294
348.495
343.151
337.33
331.119
324.625
317.969
311.278
304.68
298.286
292.191
286.468
281.167
276.32
271.938
268.023
264.565
261.544
258.941
256.73
254.886
253.382
252.193
251.295
250.665
250.281
250.123
250.172
250.412
250.827
251.403
252.126
252.985
253.969
255.068
256.273
257.576
258.968
260.443
261.994
263.615
265.302
267.047
268.849
270.7
272.599
274.542
276.524
278.544
280.598
282.684
284.8
286.944
289.114
291.308
293.525
105.477
57.0799
65.7929
69.1098
70.6449
71.5243
72.1343
72.6151
73.0298
73.4103
73.7743
74.1315
74.4876
74.8455
75.2059
75.5681
75.9303
76.2893
76.641
76.9805
77.3023
77.6003
77.8683
78.1005
78.2919
78.4393
78.543
78.6082
78.6475
78.6818
78.7391
78.8563
79.0817
79.481
80.1423
81.1781
82.7237
84.9298
87.9478
91.9072
96.9008
106.51
122.051
138.935
163.514
189.772
216.726
243.975
271.126
297.799
323.639
348.319
371.543
393.054
412.635
430.108
445.34
458.237
468.747
476.855
482.583
485.983
487.132
486.132
483.113
478.217
471.58
463.338
453.625
442.585
430.359
417.069
402.815
387.687
381.334
383.842
385.801
387.212
388.07
388.362
388.074
387.188
385.688
383.559
380.789
377.372
373.306
368.595
363.251
357.29
350.736
345.082
338.948
332.243
325.016
317.322
309.226
300.799
292.118
283.262
274.309
267.685
261.532
255.841
250.646
245.962
241.788
238.112
234.913
232.165
229.841
227.91
226.342
225.11
224.185
223.541
223.154
223.002
223.064
223.321
223.755
224.352
225.097
225.976
226.978
228.092
229.308
230.617
232.011
233.48
235.019
236.621
238.28
239.989
241.744
243.54
245.373
247.237
249.131
251.049
252.989
254.948
256.922
258.91
260.909
262.917
264.932
266.952
107.882
59.2696
68.19
71.3981
72.8781
73.72
74.3051
74.7728
75.1866
75.5791
75.9687
76.3661
76.7777
77.2069
77.6553
78.1224
78.6067
79.105
79.6133
80.1263
80.6376
81.1401
81.6263
82.0881
82.5177
82.908
83.2527
83.5479
83.7926
83.991
84.1536
84.2988
84.4533
84.6496
84.9288
85.3433
85.9629
86.876
88.1901
90.0276
92.5177
95.7817
99.9178
104.989
117.775
132.301
149.531
172.043
195.062
218.248
241.275
263.837
285.652
306.458
326.024
344.144
360.644
375.379
388.238
399.14
408.038
414.911
419.768
422.644
423.603
422.725
420.104
415.841
410.041
402.819
394.296
384.585
373.794
362.017
358.254
362.635
366.373
369.48
371.955
373.787
374.963
375.464
375.271
374.367
372.736
370.368
367.256
363.4
358.808
353.492
347.472
340.777
333.438
325.491
316.974
307.921
298.364
288.331
277.852
266.955
255.67
246.457
237.375
228.401
219.567
213.823
210.06
206.807
204.036
201.715
199.81
198.288
197.117
196.267
195.708
195.414
195.361
195.526
195.888
196.429
197.131
197.98
198.96
200.06
201.268
202.573
203.965
205.435
206.975
208.577
210.234
211.939
213.686
215.47
217.285
219.126
220.988
222.868
224.761
226.663
228.571
230.482
232.393
235.735
241.754
248.901
255.831
262.548
110.323
61.5626
70.5433
73.4482
74.7664
75.5021
76.0012
76.4003
76.762
77.1193
77.4909
77.8881
78.3179
78.7841
79.2884
79.8305
80.4089
81.02
81.6592
82.3204
82.9964
83.6787
84.3583
85.0255
85.6705
86.2835
86.8558
87.3792
87.8477
88.2574
88.6077
88.9027
89.1527
89.3751
89.5951
89.8438
90.158
90.5815
91.1699
91.993
93.1353
94.6942
96.7757
99.4846
102.91
107.117
113.953
126.289
139.394
155.694
175.176
194.747
214.13
233.072
251.336
268.71
285.007
300.059
313.728
325.898
336.48
345.409
352.647
358.179
362.016
364.191
364.752
363.763
361.297
357.441
352.287
345.932
338.473
330.002
328.714
334.777
340.168
344.899
348.967
352.362
355.065
357.054
358.306
358.794
358.498
357.399
355.479
352.736
349.169
344.781
339.588
333.611
326.879
319.424
311.284
302.493
293.09
283.111
272.597
261.587
250.125
238.254
226.018
213.461
200.625
190.565
182.164
174.971
172.767
170.998
169.628
168.623
167.947
167.571
167.465
167.603
167.96
168.515
169.247
170.139
171.173
172.335
173.611
174.99
176.46
178.011
179.633
181.318
183.057
184.843
186.669
188.529
190.415
192.323
194.247
196.557
202.769
212.473
221.936
231.16
240.146
248.897
257.415
265.704
273.767
281.608
289.231
296.64
112.756
63.8933
73.1015
76.0273
77.3074
78.0215
78.4523
78.697
78.7951
78.7627
78.6047
78.6814
79.0853
79.5589
80.0923
80.685
81.3348
82.0376
82.7876
83.5774
84.3981
85.2399
86.0916
86.9417
87.7782
88.5895
89.3644
90.0926
90.7653
91.3755
91.9185
92.3921
92.7977
93.1407
93.4326
93.6907
93.9391
94.2081
94.5322
94.9502
95.5068
96.258
97.27
98.6182
100.384
102.65
105.49
108.955
113.074
120.541
131.512
142.946
156.754
173.121
189.294
205.056
220.209
234.576
248.002
260.351
271.511
281.391
289.923
297.059
302.775
307.067
309.949
311.452
311.621
310.515
308.203
304.761
300.272
294.816
295.717
303.161
309.955
316.108
321.615
326.459
330.618
334.061
336.762
338.683
339.791
340.067
339.458
337.983
335.614
332.346
328.185
323.143
317.241
310.505
302.968
294.665
285.637
275.929
265.588
254.668
243.222
231.305
218.969
206.265
193.24
179.937
166.399
153.731
145.86
140.76
140.017
139.611
139.51
139.682
140.099
140.735
141.566
142.571
143.732
145.031
146.451
147.98
149.605
151.314
153.097
154.944
156.846
158.795
160.782
162.8
165.171
172.326
183.923
195.284
206.406
217.286
227.924
238.318
248.47
258.379
268.048
277.479
286.673
295.636
304.37
312.879
321.168
329.242
115.167
66.2339
75.5887
78.7303
80.3063
81.3381
82.088
82.6468
83.0518
83.3184
83.451
83.4482
83.3056
83.017
82.5745
81.9691
81.6977
82.1763
83.0228
83.9273
84.8791
85.8658
86.8741
87.89
88.8993
89.8881
90.843
91.7519
92.6043
93.3911
94.1059
94.7441
95.3039
95.7865
96.196
96.5402
96.8317
97.0885
97.3341
97.5972
97.9106
98.3095
98.8313
99.5197
100.425
101.604
103.116
105.02
107.37
110.207
113.554
117.412
123.9
133.339
143
153.152
166.514
179.502
191.952
203.715
214.661
224.683
233.69
241.613
248.403
254.031
258.484
261.769
263.908
264.935
264.901
263.863
261.888
259.048
261.785
270.288
278.199
285.522
292.248
298.355
303.815
308.59
312.644
315.935
318.411
320.066
320.807
320.644
319.545
317.491
314.475
310.497
305.567
299.702
292.927
285.274
276.786
267.513
257.513
246.848
235.582
223.777
211.494
198.79
185.715
172.319
158.644
144.732
130.62
119.047
111.68
111.869
112.401
113.178
114.171
115.357
116.713
118.218
119.855
121.607
123.46
125.402
127.42
129.504
131.644
133.831
136.056
142.432
154.252
167.199
179.928
192.432
204.707
216.745
228.545
240.102
251.415
262.483
273.304
283.881
294.213
304.302
314.152
323.766
333.147
342.3
351.23
359.941
117.531
68.5021
77.9457
81.3576
83.2886
84.6967
85.8222
86.75
87.5154
88.1326
88.6061
88.9349
89.1145
89.1379
88.9962
88.6799
88.1786
87.4819
86.5795
85.4614
84.9437
85.607
86.7619
87.9323
89.1012
90.2524
91.3704
92.4412
93.4525
94.3943
95.2587
96.0403
96.736
97.3454
97.8704
98.3155
98.688
98.998
99.2592
99.4899
99.7127
99.9541
100.244
100.614
101.096
101.723
102.532
103.562
104.857
106.454
108.392
110.699
113.39
116.467
119.914
124.118
131.972
139.866
147.686
156.257
166.39
175.935
184.787
192.862
200.09
206.423
211.831
216.297
219.826
222.435
224.154
225.028
225.11
224.461
228.682
237.95
246.707
254.951
262.667
269.829
276.404
282.348
287.616
292.161
295.913
298.85
300.907
302.04
302.214
301.398
299.57
296.717
292.834
287.925
282.008
275.11
267.275
258.558
249.023
238.741
227.783
216.221
204.119
191.539
178.537
165.164
151.466
137.487
123.264
108.833
94.2286
87.1523
87.1172
88.5393
90.1496
91.9245
93.8427
95.8856
98.0364
100.28
102.603
104.994
107.442
109.938
116.282
128.515
142.68
156.665
170.46
184.053
197.435
210.597
223.532
236.233
248.695
260.915
272.888
284.614
296.09
307.317
318.296
329.027
339.514
349.759
359.767
369.541
379.086
388.409
119.82
70.5897
80.0814
83.8175
86.1571
87.9891
89.5374
90.8824
92.0576
93.0768
93.9432
94.6549
95.2061
95.589
95.7948
95.813
95.6326
95.2424
94.6311
93.7881
92.7034
91.3689
89.778
88.3489
88.4536
89.7576
91.0273
92.2468
93.4025
94.4832
95.4801
96.3873
97.2013
97.9212
98.5482
99.0859
99.5398
99.9175
100.228
100.485
100.701
100.893
101.083
101.295
101.554
101.888
102.323
102.884
103.597
104.489
105.586
106.915
108.497
110.35
112.482
114.891
117.561
120.466
123.567
127.774
133.972
139.984
145.72
151.165
158.312
164.83
170.674
175.814
180.235
183.941
186.948
189.287
190.998
192.133
197.516
207.301
216.667
225.608
234.104
242.125
249.632
256.577
262.907
268.569
273.493
277.614
280.884
283.246
284.647
285.042
284.394
282.672
279.857
275.94
270.928
264.844
257.732
249.651
240.67
230.867
220.32
209.103
197.287
184.936
172.111
158.863
145.243
131.292
117.053
102.561
87.8512
72.9554
65.0133
66.1401
68.3951
70.7873
73.2967
75.9058
78.5992
81.3631
84.1855
87.0558
95.8199
110.764
125.804
140.712
155.469
170.063
184.477
198.699
212.719
226.524
240.107
253.458
266.572
279.442
292.065
304.438
316.557
328.423
340.035
351.394
362.503
373.363
383.979
394.355
404.495
414.406
122.01
72.3941
81.9097
86.0232
88.8284
91.1419
93.1691
94.9835
96.6163
98.0805
99.3797
100.513
101.474
102.256
102.849
103.241
103.422
103.378
103.097
102.567
101.777
100.719
99.3852
97.7702
95.8718
93.6906
91.5464
91.2523
92.5434
93.7527
94.8709
95.8917
96.8116
97.6295
98.3467
98.9666
99.4942
99.9364
100.301
100.599
100.839
101.035
101.2
101.351
101.504
101.682
101.905
102.196
102.575
103.062
103.674
104.426
105.335
106.415
107.678
109.129
110.769
112.591
114.577
116.699
118.921
121.198
123.473
125.75
130.093
134.098
137.701
140.842
145.515
149.894
153.774
157.174
160.124
162.667
168.922
179.017
188.794
198.24
207.332
216.036
224.307
232.094
239.338
245.975
251.933
257.14
261.53
265.036
267.594
269.145
269.635
269.018
267.257
264.331
260.236
254.992
248.642
241.248
232.884
223.632
213.572
202.783
191.339
179.307
166.748
153.716
140.26
126.427
112.257
97.7879
83.0546
68.09
52.9252
46.2437
49.1622
52.1911
55.3118
58.5078
61.7651
65.0712
73.4621
88.1219
103.854
119.516
135.086
150.545
165.874
181.055
196.072
210.909
225.554
239.992
254.212
268.206
281.964
295.478
308.744
321.757
334.512
347.009
359.246
371.224
382.944
394.408
405.619
416.581
427.3
437.781
124.082
73.8273
83.3667
87.9134
91.2326
94.0695
96.6121
98.9308
101.057
103.004
104.775
106.369
107.781
109.002
110.022
110.829
111.409
111.75
111.837
111.658
111.2
110.453
109.408
108.061
106.408
104.451
102.192
99.639
96.8006
94.1103
93.5259
94.6539
95.6727
96.5813
97.3812
98.076
98.6709
99.1726
99.5888
99.9283
100.201
100.417
100.587
100.723
100.838
100.945
101.06
101.199
101.379
101.617
101.928
102.328
102.825
103.429
104.146
104.98
105.935
107.006
108.186
109.46
110.805
112.191
113.578
114.917
116.154
117.223
118.055
118.569
120.789
122.795
124.782
128.888
132.728
136.337
143.213
153.445
163.465
173.254
182.783
192.016
200.903
209.39
217.41
224.895
231.767
237.947
243.356
247.917
251.553
254.191
255.761
256.202
255.46
253.501
250.313
245.913
240.343
233.668
225.963
217.313
207.802
197.509
186.509
174.871
162.655
149.918
136.71
123.074
109.054
94.6871
80.0082
65.051
49.8468
35.1081
32.6013
36.2795
40.0248
43.8222
49.3953
61.1108
77.2934
93.484
109.659
125.794
141.865
157.851
173.73
189.482
205.087
220.528
235.788
250.851
265.705
280.336
294.735
308.892
322.799
336.45
349.84
362.965
375.824
388.416
400.742
412.802
424.6
436.139
447.425
458.461
126.008
74.7866
84.3499
89.3767
93.2504
96.6507
99.7487
102.611
105.269
107.737
110.017
112.11
114.01
115.707
117.191
118.45
119.468
120.23