/*--------------------------------*- C++ -*----------------------------------*\
  =========                 |
  \\      /  F ield         | OpenFOAM: The Open Source CFD Toolbox
   \\    /   O peration     | Website:  https://openfoam.org
    \\  /    A nd           | Version:  10
     \\/     M anipulation  |
\*---------------------------------------------------------------------------*/
FoamFile
{
    format      ascii;
    class       volScalarField;
    location    "80000";
    object      k;
}
// * * * * * * * * * * * * * * * * * * * * * * * * * * * * * * * * * * * * * //

dimensions      [0 2 -2 0 0 0 0];

internalField   nonuniform List<scalar> 
71680
(
9.28174e-05
0.00165064
0.0037047
0.00601423
0.00860997
0.0117605
0.015089
0.0179411
0.0199901
0.0212355
0.0218692
0.0221307
0.0222482
0.0223845
0.0225938
0.0229951
0.023629
0.0244858
0.0255305
0.0267178
0.0280012
0.0293383
0.0306949
0.0320457
0.0333731
0.0346654
0.0359157
0.0371202
0.0382775
0.0393871
0.0404497
0.0414662
0.0424378
0.0433654
0.0442503
0.0450932
0.0458951
0.0466566
0.0473783
0.0480607
0.0487042
0.0493091
0.0498758
0.0504047
0.0508959
0.05135
0.0517674
0.0521485
0.0524939
0.0528042
0.0530803
0.0533228
0.0535328
0.0537114
0.0538597
0.053979
0.0540707
0.0541363
0.0541775
0.0541959
0.0541933
0.0541716
0.0541327
0.0540783
0.0540106
0.0539311
0.0538417
0.0537439
0.0536389
0.0535278
0.0534112
0.0532892
0.0531614
0.0530267
0.0528853
0.0527389
0.0525872
0.0524266
0.0522573
0.0520789
0.0518911
0.0516958
0.051496
0.0512951
0.051097
0.0509062
0.0507276
0.0505671
0.0504321
0.0503317
0.0502755
0.0502746
0.0503413
0.0504877
0.0507262
0.05107
0.0515325
0.0521275
0.0528632
0.0537471
0.0547926
0.0560095
0.0574046
0.0589805
0.0607367
0.0626687
0.0647685
0.0670247
0.0694229
0.0719465
0.0745773
0.0772961
0.0800835
0.0829204
0.0857884
0.0886704
0.0915505
0.0944146
0.0972499
0.100045
0.102792
0.105481
0.108106
0.110662
0.113144
0.11555
0.117877
0.120124
0.12229
0.124374
0.126378
0.128302
0.130147
0.131914
0.133606
0.135224
0.136771
0.138248
0.139659
0.141005
0.142289
0.143512
0.144676
0.145783
0.146837
0.147839
0.148791
0.149697
4.09257e-05
0.000859064
0.00204569
0.00350928
0.00512492
0.00705681
0.0094564
0.012409
0.0156433
0.0186043
0.0209104
0.0224724
0.0233754
0.0237954
0.023925
0.0239468
0.0239931
0.0241058
0.0243924
0.0248902
0.0255959
0.0264831
0.0275155
0.0286548
0.029864
0.0311107
0.0323683
0.0336169
0.0348421
0.0360344
0.0371875
0.038298
0.0393639
0.0403846
0.04136
0.0422904
0.0431766
0.0440192
0.0448189
0.0455764
0.0462924
0.0469673
0.0476017
0.0481963
0.0487514
0.0492677
0.0497455
0.0501856
0.0505886
0.050955
0.0512858
0.0515818
0.0518439
0.0520732
0.0522708
0.052438
0.0525761
0.0526865
0.052771
0.052831
0.0528683
0.0528847
0.052882
0.052862
0.0528266
0.0527776
0.0527166
0.0526451
0.0525646
0.0524759
0.0523799
0.0522767
0.0521661
0.0520472
0.0519204
0.0517874
0.0516484
0.0514993
0.0513405
0.0511715
0.0509925
0.050806
0.050615
0.0504233
0.0502353
0.050056
0.0498912
0.049747
0.0496305
0.0495499
0.0495144
0.049534
0.0496203
0.0497881
0.0500506
0.0504218
0.0509164
0.0515492
0.0523298
0.0532673
0.054377
0.0556698
0.0571527
0.0588292
0.0606984
0.0627556
0.064992
0.0673947
0.0699481
0.0726336
0.0754312
0.0783199
0.0812784
0.084286
0.0873229
0.0903706
0.0934121
0.0964325
0.0994182
0.102358
0.105241
0.10806
0.110808
0.113479
0.11607
0.118577
0.120998
0.123331
0.125577
0.127735
0.129806
0.131791
0.133691
0.135508
0.137245
0.138903
0.140484
0.141992
0.14343
0.144799
0.146101
0.147339
0.148515
0.149632
0.150692
0.151698
0.152652
0.153556
1.63045e-05
0.000388382
0.00102954
0.00188657
0.00283495
0.0039578
0.00536071
0.00715156
0.00945441
0.0123062
0.0154516
0.0185142
0.0211339
0.0231033
0.0243982
0.0251179
0.0254205
0.0254721
0.0254297
0.0254063
0.0254431
0.0256343
0.0260156
0.0265889
0.0273355
0.0282264
0.029229
0.0303118
0.0314455
0.0326046
0.0337681
0.0349197
0.0360475
0.0371433
0.0382016
0.0392189
0.0401933
0.0411237
0.0420099
0.0428518
0.0436498
0.0444042
0.0451156
0.0457845
0.0464115
0.0469973
0.0475425
0.0480477
0.0485137
0.0489414
0.0493314
0.0496848
0.0500026
0.0502857
0.0505354
0.0507529
0.0509396
0.0510968
0.0512262
0.0513292
0.0514076
0.0514631
0.0514974
0.0515124
0.0515099
0.0514915
0.0514591
0.051414
0.0513578
0.0512915
0.0512158
0.0511312
0.0510376
0.0509345
0.0508223
0.0507031
0.0505773
0.0504418
0.0502959
0.0501389
0.049972
0.0497977
0.0496193
0.0494408
0.0492668
0.0491029
0.0489551
0.0488308
0.0487377
0.0486844
0.04868
0.0487338
0.0488553
0.0490567
0.0493559
0.0497676
0.0503079
0.0509927
0.0518332
0.0528407
0.0540321
0.0554192
0.0570097
0.058807
0.0608104
0.0630141
0.0654081
0.067978
0.0707062
0.073572
0.0765534
0.0796272
0.0827704
0.0859604
0.089176
0.0923975
0.0956068
0.0987882
0.101928
0.105013
0.108034
0.110983
0.113852
0.116636
0.119331
0.121935
0.124445
0.12686
0.12918
0.131405
0.133536
0.135575
0.137524
0.139383
0.141157
0.142847
0.144455
0.145986
0.147442
0.148826
0.150138
0.151383
0.152563
0.153681
0.154739
0.155741
0.156688
0.157584
8.14137e-06
0.000201981
0.00056671
0.00108196
0.00163351
0.002255
0.0030347
0.00404172
0.00535146
0.00706103
0.00925557
0.0120035
0.0150567
0.0181179
0.0209534
0.0232798
0.0249854
0.0260804
0.0266665
0.0268852
0.0268813
0.0267898
0.026708
0.0266773
0.026781
0.027055
0.0275053
0.0281198
0.0288759
0.0297463
0.0307034
0.0317207
0.0327749
0.0338453
0.034915
0.0359706
0.0370019
0.0380016
0.0389647
0.0398878
0.0407688
0.0416065
0.0424003
0.0431501
0.043856
0.0445184
0.0451378
0.0457149
0.0462503
0.0467449
0.0471996
0.0476153
0.0479932
0.0483342
0.0486396
0.0489108
0.0491489
0.0493555
0.049532
0.0496801
0.0498013
0.0498974
0.0499701
0.0500211
0.0500522
0.0500652
0.0500617
0.0500434
0.0500115
0.0499674
0.049912
0.0498459
0.0497692
0.0496819
0.0495849
0.0494799
0.0493681
0.049249
0.049119
0.0489777
0.0488265
0.0486683
0.0485069
0.0483462
0.0481912
0.0480477
0.0479222
0.0478226
0.0477576
0.0477368
0.0477705
0.0478685
0.0480401
0.0482938
0.0486432
0.0491097
0.0497104
0.0504622
0.0513783
0.052474
0.0537664
0.0552682
0.0569877
0.0589282
0.0610885
0.0634615
0.0660354
0.0687938
0.0717167
0.0747811
0.0779626
0.0812358
0.0845758
0.0879582
0.0913605
0.0947617
0.098143
0.101488
0.104782
0.108012
0.111169
0.114245
0.117231
0.120123
0.122918
0.125612
0.128204
0.130693
0.133079
0.135363
0.137546
0.139631
0.141618
0.143511
0.145312
0.147024
0.148651
0.150195
0.15166
0.153048
0.154362
0.155605
0.156779
0.157888
0.158936
0.159924
0.160856
0.161735
5.32273e-06
0.000133024
0.000375574
0.000726951
0.00108499
0.00145531
0.0018857
0.00242698
0.00313279
0.00407733
0.00532423
0.00694427
0.0090094
0.0116139
0.0145487
0.0175592
0.0204879
0.023089
0.0251743
0.0266765
0.0276249
0.0281157
0.0282741
0.0282263
0.0280902
0.0279504
0.0278501
0.0278658
0.0280335
0.0283634
0.028849
0.029473
0.0302128
0.0310444
0.0319438
0.0328889
0.0338601
0.0348403
0.0358154
0.0367741
0.0377076
0.0386092
0.0394743
0.0402997
0.0410832
0.0418236
0.0425203
0.0431734
0.043783
0.0443496
0.0448739
0.0453569
0.0457996
0.046203
0.0465683
0.0468969
0.04719
0.0474492
0.0476758
0.0478715
0.0480379
0.0481766
0.0482893
0.0483778
0.0484439
0.0484892
0.0485155
0.0485243
0.0485173
0.0484957
0.0484608
0.0484134
0.0483542
0.0482835
0.0482027
0.0481142
0.0480194
0.0479191
0.0478081
0.0476858
0.0475543
0.0474168
0.047277
0.0471394
0.0470091
0.0468921
0.0467955
0.0467274
0.0466974
0.0467158
0.0467941
0.0469435
0.0471746
0.0474955
0.0479149
0.0484507
0.0491274
0.0499629
0.0509731
0.0521766
0.0535915
0.0552309
0.0571032
0.0592115
0.061553
0.0641193
0.066896
0.0698644
0.0730014
0.0762817
0.0796782
0.0831633
0.0867101
0.0902926
0.0938869
0.0974712
0.101026
0.104534
0.10798
0.111353
0.114641
0.117837
0.120934
0.123927
0.126813
0.129588
0.132253
0.134806
0.137249
0.139582
0.141807
0.143926
0.145941
0.147857
0.149675
0.151399
0.153033
0.15458
0.156043
0.157424
0.158728
0.159958
0.161116
0.162207
0.163233
0.164198
0.165105
0.165957
4.15014e-06
0.000104068
0.000291337
0.000565571
0.000833614
0.00108839
0.0013559
0.00166669
0.00205263
0.00254637
0.0031988
0.00408433
0.00525302
0.00676618
0.00868896
0.0111037
0.0139124
0.0168761
0.0198112
0.0225906
0.0249931
0.0268925
0.0282475
0.0290933
0.0295166
0.0296275
0.029538
0.029353
0.0291459
0.0289682
0.0288911
0.0289511
0.0291619
0.0295216
0.0300172
0.0306301
0.0313387
0.032121
0.032956
0.0338243
0.034709
0.0355956
0.0364723
0.0373293
0.0381593
0.0389565
0.0397169
0.0404377
0.0411172
0.0417543
0.0423488
0.0429009
0.0434109
0.0438797
0.0443083
0.0446977
0.0450491
0.0453641
0.0456438
0.04589
0.0461042
0.0462879
0.0464429
0.0465709
0.0466735
0.0467527
0.04681
0.0468472
0.046866
0.046868
0.0468546
0.0468271
0.0467868
0.0467346
0.0466724
0.0466029
0.0465281
0.0464499
0.0463617
0.0462627
0.0461556
0.0460438
0.0459312
0.0458227
0.0457236
0.0456403
0.0455803
0.0455522
0.0455659
0.0456325
0.0457642
0.0459735
0.0462723
0.0466701
0.0471734
0.0477959
0.0485655
0.0495037
0.050629
0.0519632
0.0535247
0.055327
0.0573781
0.05968
0.0622283
0.0650121
0.0680142
0.0712127
0.0745818
0.0780931
0.0817169
0.0854234
0.0891838
0.0929707
0.0967591
0.100526
0.104252
0.107919
0.111513
0.115021
0.118433
0.121742
0.12494
0.128023
0.130989
0.133835
0.136561
0.139167
0.141654
0.144023
0.146277
0.148418
0.15045
0.152376
0.154198
0.155922
0.157551
0.159089
0.160537
0.161901
0.163184
0.164389
0.16552
0.166581
0.167575
0.168507
0.169378
0.170192
3.56337e-06
8.98547e-05
0.000249846
0.00048649
0.000712722
0.000914892
0.00111012
0.00131498
0.00154772
0.00183127
0.00218473
0.00263728
0.00324132
0.00405816
0.0051355
0.00652865
0.00829774
0.0105146
0.0131716
0.0160742
0.0189864
0.0218425
0.0244821
0.0267313
0.0284945
0.0297437
0.0305133
0.0308807
0.0309444
0.0308071
0.0305656
0.0302807
0.0300208
0.0298517
0.0298084
0.0299071
0.0301487
0.0305234
0.0310149
0.0316039
0.0322697
0.0329921
0.0337524
0.034534
0.0353223
0.0361054
0.0368737
0.0376192
0.0383361
0.0390198
0.0396673
0.0402765
0.040846
0.0413752
0.0418643
0.0423134
0.0427232
0.0430948
0.0434292
0.0437276
0.0439915
0.0442224
0.0444217
0.0445913
0.0447327
0.0448477
0.0449381
0.0450058
0.0450525
0.0450801
0.0450905
0.0450854
0.0450666
0.0450357
0.044995
0.0449475
0.0448954
0.0448406
0.0447813
0.0447116
0.0446343
0.0445539
0.0444748
0.0444022
0.0443418
0.0443004
0.0442858
0.0443071
0.0443745
0.0444997
0.0446954
0.0449748
0.0453507
0.0458338
0.0464307
0.0471551
0.0480366
0.0490991
0.0503636
0.0518538
0.0535886
0.0555811
0.0578383
0.0603604
0.0631403
0.0661645
0.0694126
0.0728591
0.076475
0.0802288
0.0840885
0.0880219
0.0919987
0.0959902
0.0999705
0.103916
0.107808
0.111627
0.115359
0.118993
0.122518
0.125926
0.129213
0.132375
0.135408
0.138311
0.141084
0.143729
0.146246
0.148637
0.150906
0.153056
0.15509
0.157012
0.158827
0.160538
0.162148
0.163663
0.165084
0.166417
0.167666
0.168834
0.169926
0.170946
0.171897
0.172783
0.173607
0.174374
3.2557e-06
8.25296e-05
0.00022841
0.000446066
0.000652982
0.000831467
0.000994672
0.00115405
0.00131958
0.00150228
0.00171732
0.00197861
0.00230238
0.00271992
0.0032755
0.00402393
0.00500671
0.00627747
0.00789032
0.00990436
0.0123923
0.0151986
0.018103
0.0209721
0.0237508
0.0262711
0.0283951
0.0300454
0.0312021
0.0318984
0.0322056
0.0322153
0.0320252
0.0317266
0.0313658
0.0310303
0.0307779
0.030642
0.030639
0.0307706
0.0310289
0.0314002
0.0318671
0.0324107
0.0330125
0.0336546
0.0343213
0.0349988
0.0356755
0.0363419
0.0369903
0.0376146
0.0382103
0.0387741
0.0393036
0.0397972
0.0402542
0.0406743
0.0410575
0.0414044
0.0417157
0.0419926
0.0422361
0.0424477
0.0426289
0.0427813
0.0429067
0.0430069
0.0430839
0.0431397
0.0431765
0.0431965
0.043202
0.0431952
0.0431789
0.0431562
0.04313
0.0431029
0.0430771
0.043043
0.0430007
0.0429575
0.0429184
0.042889
0.0428755
0.042885
0.0429254
0.0430062
0.043138
0.0433327
0.0436036
0.0439644
0.0444281
0.0450057
0.045706
0.0465469
0.0475608
0.0487706
0.0501999
0.0518729
0.0538081
0.0560179
0.0585076
0.061275
0.0643098
0.0675947
0.0711056
0.0748139
0.078687
0.0826906
0.0867899
0.0909511
0.0951423
0.099334
0.1035
0.107616
0.111663
0.115622
0.119481
0.123226
0.12685
0.130345
0.133706
0.136929
0.140014
0.142958
0.145763
0.148431
0.150962
0.153361
0.15563
0.157773
0.159795
0.161699
0.163491
0.165174
0.166752
0.168229
0.16961
0.170899
0.1721
0.173219
0.17426
0.175226
0.176121
0.176951
0.177718
0.178425
3.10814e-06
7.90816e-05
0.000217996
0.000425895
0.000624024
0.000792032
0.000941049
0.00108043
0.00121712
0.0013573
0.00150777
0.00167752
0.00187936
0.00212281
0.00242218
0.00280837
0.0033202
0.00400579
0.00490606
0.00607341
0.00756036
0.00941807
0.0117123
0.0143808
0.0172601
0.0201513
0.0229794
0.025666
0.0280642
0.0300619
0.0315949
0.0326511
0.0332655
0.0335074
0.0334627
0.0332236
0.0328625
0.0324462
0.0320527
0.0317305
0.0315113
0.0314108
0.031432
0.0315696
0.0318125
0.0321465
0.0325554
0.0330228
0.0335328
0.0340709
0.0346244
0.0351822
0.0357349
0.0362752
0.0367969
0.0372953
0.0377669
0.038209
0.0386199
0.0389984
0.0393441
0.0396568
0.0399368
0.0401849
0.0404019
0.0405891
0.0407479
0.04088
0.0409872
0.0410717
0.0411358
0.041182
0.041213
0.0412316
0.0412409
0.0412444
0.041246
0.0412494
0.0412592
0.0412668
0.0412686
0.0412694
0.0412778
0.0412999
0.0413421
0.0414116
0.0415169
0.0416674
0.0418741
0.0421492
0.0425061
0.0429589
0.0435207
0.0442019
0.0450175
0.0459956
0.0471622
0.0485419
0.0501603
0.0520411
0.054202
0.0566541
0.0594002
0.0624349
0.0657441
0.0693063
0.0730934
0.0770726
0.0812083
0.0854635
0.0898011
0.0941858
0.0985846
0.102967
0.107307
0.111581
0.115769
0.119854
0.123823
0.127664
0.13137
0.134933
0.138351
0.141619
0.144737
0.147705
0.150525
0.153198
0.155727
0.158116
0.160369
0.16249
0.164483
0.166355
0.168109
0.169748
0.171278
0.172704
0.17403
0.175261
0.176403
0.17746
0.178436
0.179337
0.180166
0.180928
0.181626
0.182264
3.07065e-06
7.82892e-05
0.00021495
0.00041839
0.000613025
0.000776756
0.000919635
0.00105011
0.00117394
0.00129554
0.00141893
0.00154846
0.00168967
0.0018505
0.0020411
0.002269
0.00254784
0.00290579
0.00337802
0.00400573
0.00483111
0.00590393
0.00727479
0.00899128
0.0111059
0.0136473
0.0164648
0.0193709
0.0222484
0.0250219
0.0276063
0.0298733
0.0317357
0.0331441
0.034096
0.0346303
0.0348145
0.0347301
0.0344602
0.0340536
0.0335968
0.0331519
0.0327629
0.0324585
0.032254
0.0321549
0.0321594
0.0322605
0.0324473
0.032707
0.0330259
0.0333902
0.033787
0.0342044
0.0346322
0.0350613
0.0354843
0.035895
0.0362884
0.0366608
0.0370092
0.0373317
0.0376267
0.0378937
0.0381322
0.0383427
0.0385258
0.0386824
0.0388141
0.0389228
0.0390107
0.0390804
0.0391347
0.0391769
0.0392103
0.0392387
0.0392668
0.0392991
0.0393401
0.0393949
0.039451
0.0395098
0.0395758
0.0396581
0.0397644
0.0399029
0.0400822
0.0403118
0.0406029
0.0409674
0.0414179
0.0419684
0.0426358
0.0434354
0.0443862
0.0455176
0.0468555
0.0484253
0.0502539
0.0523647
0.0547742
0.0574909
0.0605145
0.0638353
0.0674347
0.0712863
0.0753577
0.0796123
0.0840109
0.088514
0.0930831
0.0976818
0.102276
0.106836
0.111335
0.115749
0.120061
0.124253
0.128313
0.13223
0.135998
0.139611
0.143065
0.146359
0.149492
0.152465
0.155281
0.157942
0.160451
0.162814
0.165034
0.167116
0.169067
0.17089
0.172589
0.174169
0.175637
0.176997
0.178255
0.179416
0.180485
0.181467
0.182368
0.183192
0.183943
0.184626
0.185245
0.185805
3.12249e-06
7.96666e-05
0.000217869
0.000420647
0.000615018
0.000777772
0.000918439
0.0010451
0.00116308
0.00127611
0.00138716
0.00149896
0.00161443
0.00173711
0.00187177
0.0020255
0.00220659
0.0024212
0.00268203
0.00301431
0.00345017
0.00402371
0.00477855
0.00576342
0.00702891
0.00862327
0.0105904
0.0129887
0.0157207
0.0186172
0.021531
0.0243729
0.0270628
0.0295238
0.0316481
0.0333706
0.0346583
0.0355191
0.0359947
0.0361453
0.0360425
0.0357418
0.035313
0.0348258
0.0343327
0.0338739
0.0334773
0.0331603
0.0329319
0.0327941
0.0327436
0.0327733
0.0328736
0.0330336
0.0332419
0.0334871
0.0337587
0.0340469
0.0343433
0.0346404
0.0349321
0.0352133
0.0354798
0.0357286
0.0359575
0.0361649
0.03635
0.0365125
0.0366531
0.0367729
0.0368737
0.0369577
0.0370276
0.037087
0.037139
0.0371875
0.0372377
0.037295
0.0373653
0.0374568
0.0375649
0.0376857
0.0378208
0.0379767
0.0381604
0.0383794
0.0386419
0.0389568
0.0393347
0.0397891
0.0403359
0.0409922
0.0417775
0.0427112
0.0438138
0.0451125
0.0466376
0.0484158
0.0504744
0.0528361
0.0555151
0.0585167
0.0618358
0.0654577
0.0693584
0.0735065
0.0778649
0.0823931
0.0870492
0.0917915
0.0965801
0.101378
0.106151
0.110869
0.115506
0.120041
0.124455
0.128732
0.132862
0.136834
0.140643
0.144283
0.147753
0.151052
0.15418
0.15714
0.159933
0.162563
0.165036
0.167355
0.169526
0.171555
0.173446
0.175203
0.176833
0.17834
0.179732
0.181014
0.182191
0.183269
0.184254
0.185151
0.185965
0.186702
0.187365
0.187961
0.188492
0.188964
3.25539e-06
8.30257e-05
0.000226159
0.000431393
0.000627875
0.000791759
0.000932436
0.00105793
0.00117342
0.00128243
0.00138754
0.00149087
0.00159439
0.00170014
0.00181051
0.00192852
0.0020584
0.00220645
0.00237991
0.00258385
0.00282947
0.00313889
0.00353809
0.00406083
0.00474841
0.00564838
0.00681172
0.00828872
0.0101224
0.0123606
0.0149886
0.0178495
0.020752
0.0236373
0.0264117
0.028991
0.0313134
0.0332968
0.0348928
0.0360828
0.0368807
0.0373241
0.0374651
0.0373487
0.037035
0.0365912
0.0360757
0.0355365
0.0350107
0.0345256
0.0341001
0.0337455
0.0334671
0.0332653
0.0331365
0.0330746
0.0330715
0.0331182
0.0332054
0.0333238
0.0334649
0.0336208
0.0337843
0.0339495
0.0341114
0.034266
0.0344099
0.0345415
0.0346594
0.0347633
0.0348538
0.0349321
0.0350005
0.0350622
0.0351201
0.0351779
0.0352408
0.0353143
0.0354041
0.0355173
0.0356644
0.0358358
0.0360328
0.0362592
0.0365203
0.0368228
0.0371745
0.0375844
0.0380632
0.0386239
0.039282
0.0400555
0.040966
0.0420385
0.0432987
0.0447771
0.0465042
0.0485075
0.0508144
0.0534456
0.0564123
0.0597148
0.0633426
0.067275
0.0714821
0.0759269
0.0805681
0.0853617
0.090263
0.095229
0.100219
0.105196
0.110125
0.114979
0.119732
0.124364
0.128855
0.133194
0.137369
0.141373
0.1452
0.148846
0.152311
0.155594
0.158697
0.161623
0.164375
0.166957
0.169376
0.171636
0.173743
0.175702
0.177517
0.179195
0.180742
0.182164
0.183467
0.184658
0.185744
0.186729
0.187619
0.188421
0.18914
0.189781
0.190348
0.190848
0.191284
0.191661
3.46703e-06
8.83057e-05
0.000239511
0.000449823
0.000650281
0.000816797
0.000958918
0.00108478
0.00119962
0.00130691
0.0014091
0.00150813
0.0016056
0.001703
0.00180186
0.00190388
0.00201111
0.00212627
0.00225302
0.00239689
0.00256461
0.00276009
0.00299183
0.00327882
0.00364462
0.00411951
0.00474137
0.00555528
0.00661096
0.00795881
0.00964332
0.0117032
0.0141912
0.0169625
0.0198413
0.0227207
0.0255418
0.0282257
0.030694
0.0328796
0.0347357
0.0362274
0.0373451
0.0381
0.0385173
0.0386307
0.0385039
0.0381944
0.0377559
0.0372355
0.0366737
0.0361036
0.0355517
0.0350376
0.0345747
0.0341714
0.0338312
0.0335541
0.0333372
0.0331754
0.0330625
0.0329913
0.0329547
0.0329453
0.0329566
0.0329822
0.0330165
0.0330558
0.0330963
0.0331358
0.0331731
0.0332078
0.0332417
0.0332771
0.0333165
0.0333629
0.033421
0.0334956
0.0335917
0.0337152
0.0338736
0.0340785
0.0343214
0.0346051
0.034934
0.0353138
0.0357513
0.0362549
0.0368347
0.037503
0.0382754
0.0391714
0.0402145
0.0414327
0.0428572
0.0445224
0.0464611
0.0487017
0.0512698
0.0541835
0.0574496
0.0610625
0.065005
0.0692494
0.0737597
0.0784936
0.0834055
0.0884482
0.0935756
0.0987434
0.103911
0.109041
0.114102
0.119065
0.123906
0.128607
0.133151
0.137526
0.141722
0.145732
0.149554
0.153184
0.156622
0.159869
0.162928
0.165802
0.168496
0.171015
0.173364
0.175551
0.177578
0.179452
0.181178
0.182765
0.184217
0.185543
0.186748
0.187839
0.188823
0.189707
0.190495
0.191194
0.19181
0.192348
0.192814
0.193212
0.193548
0.193825
3.75846e-06
9.55112e-05
0.00025775
0.000475324
0.000681182
0.000851376
0.000995888
0.00112311
0.00123839
0.00134523
0.00144612
0.00154292
0.00163713
0.00173003
0.00182281
0.00191667
0.00201289
0.00211294
0.00221862
0.00233229
0.00245717
0.00259799
0.00276119
0.00295011
0.00317059
0.00343878
0.00377512
0.00420597
0.004765
0.00549349
0.0064389
0.00765173
0.00918108
0.0110657
0.0133556
0.0159791
0.0187824
0.0216199
0.0244317
0.02715
0.0297112
0.032052
0.0341113
0.0358431
0.0372236
0.03825
0.0389426
0.0393336
0.0394628
0.0393735
0.0391092
0.038712
0.0382206
0.0376699
0.0370898
0.0365053
0.035936
0.0353968
0.034898
0.034446
0.0340437
0.0336912
0.0333869
0.0331272
0.0329074
0.0327225
0.0325679
0.0324382
0.0323293
0.0322375
0.0321599
0.0320951
0.0320432
0.0320051
0.0319836
0.0319828
0.0320053
0.0320545
0.0321341
0.0322484
0.0324028
0.0326046
0.0328643
0.0331805
0.0335537
0.033989
0.0344926
0.035072
0.0357369
0.0364997
0.0373764
0.0383871
0.0395576
0.0409188
0.042506
0.0443576
0.0465105
0.0489937
0.0518289
0.055031
0.0586007
0.0625252
0.0667796
0.0713289
0.0761305
0.0811372
0.0862995
0.0915682
0.0968957
0.102238
0.107554
0.112808
0.11797
0.123012
0.127914
0.132656
0.137224
0.141609
0.1458
0.149795
0.153588
0.157181
0.160572
0.163765
0.166762
0.169569
0.17219
0.174631
0.176899
0.178997
0.180932
0.18271
0.184337
0.185822
0.187171
0.188392
0.189491
0.190476
0.191353
0.192128
0.192808
0.1934
0.193908
0.19434
0.1947
0.194993
0.195225
0.195399
4.13283e-06
0.000104668
0.000280727
0.000507341
0.000719648
0.000894149
0.00104158
0.00117065
0.00128691
0.00139402
0.00149449
0.00159019
0.00168258
0.00177287
0.00186213
0.00195136
0.00204153
0.00213366
0.00222889
0.00232852
0.00243415
0.00254786
0.00267246
0.00281195
0.00297228
0.003157
0.00336972
0.00362306
0.00393469
0.00432699
0.0048289
0.00547678
0.0063139
0.00738794
0.00874718
0.0104318
0.0124842
0.0149117
0.0175804
0.0203234
0.0230744
0.0257729
0.0283538
0.030756
0.032926
0.0348188
0.0364078
0.0376858
0.0386577
0.0393405
0.0397586
0.0399412
0.0399209
0.0397312
0.0394058
0.0389765
0.0384727
0.037921
0.0373439
0.0367604
0.0361858
0.0356313
0.0351057
0.0346139
0.0341579
0.0337388
0.0333566
0.03301
0.0326974
0.0324159
0.0321635
0.0319391
0.0317417
0.0315722
0.0314369
0.0313403
0.0312825
0.0312649
0.0312898
0.0313599
0.031479
0.0316519
0.0318847
0.0321848
0.0325585
0.0330088
0.0335392
0.034157
0.0348717
0.0356961
0.0366468
0.037746
0.0390218
0.0405086
0.0422459
0.0442755
0.0466376
0.0493614
0.0524642
0.0559539
0.0598241
0.0640534
0.0686084
0.0734466
0.0785192
0.0837743
0.0891597
0.0946243
0.10012
0.105604
0.111036
0.116382
0.121613
0.126704
0.131635
0.13639
0.140956
0.145325
0.149488
0.153444
0.157189
0.160725
0.164052
0.167174
0.170096
0.172821
0.175358
0.177711
0.179884
0.181883
0.183716
0.185389
0.186911
0.188288
0.189528
0.190638
0.191627
0.1925
0.193266
0.19393
0.1945
0.194982
0.195381
0.195704
0.195957
0.196144
0.196272
0.196344
4.60016e-06
0.00011589
0.000308367
0.000545326
0.000764231
0.000943437
0.00109416
0.00122546
0.00134313
0.00145095
0.00155154
0.0016468
0.0017382
0.00182695
0.00191406
0.00200046
0.002087
0.00217452
0.00226388
0.00235598
0.00245186
0.00255268
0.00265989
0.00277531
0.00290138
0.00304148
0.00320059
0.00338334
0.00359198
0.00383465
0.00412681
0.00448703
0.00493949
0.00551482
0.00625036
0.00718872
0.00837503
0.0098504
0.0116481
0.013822
0.0162793
0.0188852
0.0215264
0.0241469
0.0266846
0.0290839
0.0312965
0.0332873
0.0350296
0.036508
0.0377191
0.0386671
0.0393637
0.0398266
0.0400775
0.0401409
0.0400427
0.0398094
0.0394667
0.0390393
0.0385495
0.0380173
0.03746
0.036892
0.0363244
0.0357662
0.0352245
0.0347044
0.0342095
0.0337422
0.0333037
0.0328961
0.0325211
0.0321824
0.0318899
0.0316503
0.031464
0.0313313
0.0312531
0.0312314
0.0312687
0.0313687
0.0315358
0.0317754
0.0320934
0.0324966
0.0329936
0.0335923
0.0343029
0.0351388
0.0361181
0.0372648
0.0386106
0.0401944
0.0420598
0.0442521
0.0468123
0.0497699
0.0531357
0.0569062
0.0610666
0.065586
0.0704223
0.0755252
0.0808405
0.0863126
0.091887
0.0975124
0.103141
0.10873
0.114243
0.119647
0.124914
0.130022
0.134954
0.139694
0.144233
0.148562
0.152676
0.156573
0.160252
0.163714
0.166963
0.170002
0.172836
0.175471
0.177914
0.180167
0.182237
0.184131
0.185856
0.18742
0.188832
0.190098
0.191226
0.192225
0.193101
0.193863
0.194517
0.195071
0.19553
0.195903
0.196194
0.19641
0.196558
0.196641
0.196666
0.196638
5.17486e-06
0.000129471
0.000340202
0.000588279
0.000814479
0.000998564
0.00115266
0.00128629
0.00140552
0.00151427
0.00161526
0.00171046
0.00180136
0.00188919
0.00197495
0.00205953
0.00214375
0.00222836
0.00231411
0.00240175
0.00249206
0.00258588
0.00268412
0.00278784
0.00289834
0.00301719
0.00314649
0.00328909
0.00344902
0.0036318
0.00383932
0.00407551
0.00435345
0.00468855
0.00510059
0.00561465
0.00626181
0.00707866
0.00810559
0.00938405
0.0109451
0.0128273
0.0150222
0.0174246
0.0198961
0.0223785
0.0248164
0.0271574
0.0293609
0.0313919
0.0332254
0.0348435
0.0362349
0.0373964
0.0383313
0.0390471
0.0395568
0.0398764
0.0400245
0.040021
0.0398865
0.0396415
0.0393056
0.0388971
0.0384328
0.0379276
0.0373947
0.0368451
0.036288
0.0357314
0.0351818
0.0346453
0.0341276
0.033635
0.033184
0.0327887
0.0324514
0.0321734
0.0319563
0.0318025
0.0317148
0.031697
0.0317532
0.0318888
0.0321097
0.032423
0.0328373
0.0333627
0.0340121
0.0348024
0.0357561
0.0369029
0.0382797
0.0399301
0.0419023
0.0442433
0.046993
0.0501776
0.0537985
0.0578385
0.062272
0.0670594
0.0721494
0.0774849
0.0830072
0.0886581
0.0943825
0.100129
0.105851
0.111509
0.117066
0.122492
0.127764
0.132859
0.137763
0.142464
0.146951
0.151219
0.155265
0.159087
0.162685
0.166062
0.169221
0.172167
0.174907
0.177445
0.179786
0.181934
0.183897
0.185683
0.187299
0.188753
0.190054
0.191209
0.192227
0.193116
0.193882
0.194535
0.19508
0.195526
0.195879
0.196146
0.196334
0.196448
0.196494
0.196479
0.196407
0.196283
5.8524e-06
0.000145328
0.000375507
0.000635876
0.000869557
0.00105849
0.00121592
0.00135188
0.0014727
0.00158248
0.00168404
0.0017794
0.0018701
0.00195738
0.00204226
0.00212561
0.00220825
0.0022909
0.00237427
0.00245904
0.00254588
0.00263549
0.00272858
0.0028259
0.00292828
0.00303668
0.0031522
0.00327624
0.00341058
0.00355761
0.00372067
0.00390474
0.00411313
0.00434736
0.00461626
0.00493335
0.00531456
0.00578032
0.00635579
0.00707113
0.00795991
0.00905741
0.0103932
0.0119895
0.0138885
0.0160197
0.0182855
0.0205859
0.0228785
0.0251175
0.0272614
0.029279
0.031144
0.0328362
0.0343425
0.0356541
0.0367672
0.0376839
0.0384101
0.0389541
0.0393281
0.0395459
0.0396225
0.0395734
0.0394144
0.0391612
0.0388285
0.0384298
0.0379775
0.0374827
0.0369557
0.036406
0.035843
0.0352763
0.034728
0.0342193
0.0337576
0.0333478
0.0329945
0.0327023
0.0324762
0.0323214
0.0322438
0.0322496
0.0323463
0.032542
0.0328468
0.0332727
0.0338353
0.0345548
0.035458
0.03658
0.037964
0.0396607
0.0417232
0.0442009
0.0471317
0.0505351
0.0544012
0.0586988
0.0633884
0.0684172
0.073726
0.0792531
0.0849378
0.0907227
0.096553
0.102378
0.108154
0.11384
0.119406
0.124822
0.130067
0.135122
0.139973
0.144611
0.149027
0.153217
0.157179
0.160912
0.164418
0.167701
0.170763
0.173612
0.176253
0.178689
0.180925
0.182967
0.184824
0.186502
0.188011
0.189358
0.190553
0.191602
0.192514
0.193297
0.193959
0.194508
0.194951
0.195296
0.195549
0.195718
0.195808
0.195827
0.19578
0.195673
0.195511
0.1953
6.63951e-06
0.000163297
0.000413998
0.000687273
0.000928477
0.00112217
0.00128285
0.0014211
0.00154352
0.00165438
0.00175659
0.00185225
0.00194292
0.00202987
0.00211414
0.00219662
0.0022781
0.00235934
0.002441
0.00252375
0.00260824
0.00269509
0.00278494
0.00287842
0.00297616
0.00307885
0.00318722
0.00330207
0.00342438
0.00355532
0.00369643
0.00384972
0.00401795
0.00420507
0.00441614
0.00465225
0.00491712
0.00522287
0.00558252
0.00601244
0.00653257
0.0071666
0.00794126
0.00888501
0.0100264
0.0113822
0.0129713
0.0148025
0.0168058
0.0188967
0.0210067
0.0231006
0.0251409
0.0270936
0.0289325
0.0306379
0.0321928
0.0335856
0.0348096
0.0358614
0.0367413
0.0374532
0.0380034
0.0383997
0.0386523
0.0387723
0.0387717
0.0386621
0.038455
0.0381617
0.037793
0.0373596
0.0368724
0.0363429
0.0357957
0.0352571
0.0347405
0.034256
0.0338126
0.0334186
0.0330822
0.0328115
0.032615
0.0325014
0.0324802
0.032562
0.0327589
0.0330855
0.0335605
0.0342085
0.0350611
0.0361592
0.037553
0.0392987
0.0414535
0.0440668
0.0471719
0.0507796
0.0548664
0.0593888
0.0642986
0.0695347
0.0750306
0.0807188
0.0865343
0.0924159
0.0983105
0.104172
0.109962
0.115641
0.121181
0.126557
0.131747
0.136736
0.141513
0.146068
0.150397
0.154495
0.158362
0.161997
0.165405
0.168587
0.171551
0.174301
0.176841
0.179174
0.181306
0.183245
0.184999
0.186576
0.187984
0.189231
0.190325
0.191275
0.19209
0.192776
0.193343
0.193798
0.194148
0.194401
0.194564
0.194644
0.194647
0.194581
0.19445
0.194262
0.19402
0.193731
7.53693e-06
0.000183418
0.000455728
0.000741971
0.000990474
0.00118877
0.00135259
0.00149305
0.00161704
0.00172898
0.00183188
0.00192792
0.00201866
0.0021054
0.0021892
0.00227098
0.00235154
0.00243163
0.00251193
0.00259312
0.00267583
0.00276069
0.0028483
0.00293926
0.00303412
0.00313346
0.00323784
0.00334783
0.00346403
0.00358715
0.00371798
0.00385754
0.00400712
0.00416847
0.00434394
0.00453677
0.0047519
0.00499211
0.00525834
0.00555889
0.00590531
0.00631045
0.00679008
0.00736246
0.00804825
0.00886892
0.00984604
0.0109975
0.012331
0.0138607
0.0155755
0.0174188
0.0193248
0.0212379
0.0231303
0.0249721
0.026734
0.0283937
0.0299341
0.0313422
0.0326076
0.0337236
0.0346871
0.0354975
0.0361565
0.0366683
0.0370387
0.0372745
0.0373831
0.037373
0.0372529
0.0370321
0.0367207
0.03633
0.0358827
0.0354068
0.0349213
0.034441
0.0339793
0.0335486
0.0331608
0.032827
0.0325587
0.0323677
0.0322659
0.0322668
0.0323849
0.0326382
0.0330496
0.033648
0.0344708
0.0355654
0.0369881
0.0388004
0.0410616
0.0438187
0.047098
0.0508978
0.0551811
0.0598957
0.0649847
0.0703802
0.0760109
0.0818074
0.0877044
0.0936422
0.099568
0.105435
0.111205
0.116845
0.122331
0.127638
0.13275
0.137653
0.142337
0.146794
0.151022
0.155018
0.158782
0.162315
0.16562
0.168702
0.171567
0.174218
0.176659
0.178893
0.180927
0.18277
0.18443
0.185913
0.187229
0.188386
0.189391
0.190253
0.19098
0.191582
0.192064
0.192436
0.192706
0.192879
0.192965
0.192969
0.192898
0.192759
0.192557
0.192299
0.19199
0.191635
8.5515e-06
0.000205671
0.000499855
0.000799397
0.00105495
0.00125766
0.00142452
0.00156715
0.00169268
0.00180569
0.00190928
0.00200563
0.00209643
0.00218296