/*--------------------------------*- C++ -*----------------------------------*\
  =========                 |
  \\      /  F ield         | OpenFOAM: The Open Source CFD Toolbox
   \\    /   O peration     | Website:  https://openfoam.org
    \\  /    A nd           | Version:  10
     \\/     M anipulation  |
\*---------------------------------------------------------------------------*/
FoamFile
{
    format      ascii;
    class       volScalarField;
    location    "80000";
    object      nut;
}
// * * * * * * * * * * * * * * * * * * * * * * * * * * * * * * * * * * * * * //

dimensions      [0 2 -1 0 0 0 0];

internalField   nonuniform List<scalar> 
71680
(
1.66871e-08
1.34797e-06
6.64033e-06
1.32278e-05
1.74641e-05
1.83571e-05
1.74247e-05
1.70548e-05
1.76095e-05
1.91103e-05
2.16885e-05
2.5627e-05
3.1641e-05
4.0788e-05
4.73845e-05
5.47758e-05
6.39175e-05
7.50877e-05
8.85097e-05
0.000104338
0.000122621
0.000143286
0.000166172
0.000191062
0.000217715
0.00024588
0.000275318
0.000305811
0.000337167
0.000369225
0.000401855
0.00043495
0.000468426
0.000502219
0.000536277
0.00057056
0.000605037
0.000639679
0.000674461
0.000709361
0.000744353
0.000779414
0.000814516
0.000849631
0.000884726
0.000919768
0.000954719
0.000989541
0.00102419
0.00105862
0.00109278
0.00112663
0.0011601
0.00119315
0.00122572
0.00125773
0.00128914
0.00131987
0.00134986
0.00137902
0.00140728
0.00143456
0.00146077
0.00148581
0.00150957
0.00153195
0.00155283
0.00157205
0.00158947
0.00160493
0.00161822
0.00162916
0.00163749
0.00164297
0.0016453
0.00164443
0.00164057
0.00163368
0.0016241
0.00159579
0.00155843
0.00152343
0.00149083
0.00146001
0.00143069
0.00140346
0.00138128
0.00136983
0.00137443
0.00139099
0.0013918
0.00136971
0.00134788
0.00132643
0.0013055
0.00128523
0.00126582
0.00124748
0.00123099
0.00121681
0.00120475
0.00119488
0.00118738
0.00118241
0.0011801
0.00118049
0.00118358
0.00118928
0.00119745
0.0012079
0.00122039
0.00123469
0.00125053
0.00126765
0.0012858
0.00130475
0.00132429
0.00134421
0.00136434
0.00138454
0.00140467
0.00142463
0.00144431
0.00146365
0.00148258
0.00150106
0.00151904
0.0015365
0.00155341
0.00156978
0.00158559
0.00160083
0.00161552
0.00162965
0.00164324
0.0016563
0.00166884
0.00168087
0.00169242
0.00170349
0.00171411
0.00172429
0.00173404
0.00174339
0.00175234
0.00176092
0.00176914
0.00177701
7.35772e-09
6.91513e-07
4.50154e-06
1.14342e-05
1.75716e-05
2.1216e-05
2.29082e-05
2.37056e-05
2.26167e-05
2.19735e-05
2.22165e-05
2.339e-05
2.5558e-05
2.89429e-05
3.38916e-05
4.11938e-05
5.19071e-05
5.85047e-05
6.62703e-05
7.57273e-05
8.7128e-05
0.000100667
0.000116487
0.000134671
0.000155216
0.000178024
0.000202917
0.000229676
0.000258065
0.000287848
0.000318801
0.000350723
0.000383436
0.000416787
0.000450649
0.000484915
0.0005195
0.000554331
0.000589349
0.000624504
0.000659755
0.000695064
0.000730395
0.000765715
0.00080099
0.000836187
0.00087127
0.000906202
0.000940944
0.000975454
0.00100969
0.0010436
0.00107714
0.00111026
0.00114289
0.00117499
0.00120649
0.00123733
0.00126743
0.00129674
0.00132516
0.00135262
0.00137903
0.0014043
0.00142832
0.00145099
0.00147218
0.00149175
0.00150957
0.00152545
0.00153921
0.00155066
0.00155955
0.00156565
0.00156866
0.00156855
0.00156558
0.00155967
0.00155114
0.00152015
0.00148246
0.00144758
0.00141541
0.00138567
0.00135816
0.00133254
0.0013091
0.00129007
0.0012802
0.00128487
0.00130341
0.00131612
0.00129606
0.00127643
0.00125734
0.00123896
0.00122145
0.00120503
0.00119042
0.00117804
0.00116772
0.00115959
0.00115385
0.00115067
0.00115016
0.00115237
0.00115729
0.00116482
0.0011748
0.00118703
0.00120126
0.00121723
0.00123467
0.00125331
0.0012729
0.00129318
0.00131396
0.00133502
0.00135619
0.00137733
0.00139831
0.00141903
0.00143938
0.00145931
0.00147875
0.00149766
0.00151601
0.00153377
0.00155094
0.0015675
0.00158345
0.0015988
0.00161354
0.0016277
0.00164127
0.00165429
0.00166676
0.0016787
0.00169013
0.00170106
0.00171153
0.00172154
0.00173111
0.00174026
0.00174901
0.00175737
0.00176537
0.00177302
2.93122e-09
2.9806e-07
2.54485e-06
8.09404e-06
1.436e-05
1.88922e-05
2.13243e-05
2.35061e-05
2.60065e-05
2.86593e-05
2.82285e-05
2.74064e-05
2.73557e-05
2.82073e-05
2.99966e-05
3.28512e-05
3.70632e-05
4.30126e-05
5.14881e-05
6.31621e-05
6.98651e-05
7.79221e-05
8.76076e-05
9.91559e-05
0.000112747
0.000128509
0.000146523
0.000166816
0.000189353
0.000214023
0.000240648
0.000269012
0.000298886
0.00033004
0.000362261
0.000395354
0.000429149
0.000463496
0.000498268
0.000533357
0.000568672
0.000604134
0.000639675
0.000675238
0.00071077
0.000746225
0.000781558
0.000816727
0.000851689
0.000886402
0.000920823
0.000954907
0.000988607
0.00102187
0.00105465
0.00108689
0.00111854
0.00114952
0.00117977
0.00120923
0.00123782
0.00126547
0.00129208
0.00131757
0.00134183
0.00136476
0.00138624
0.00140613
0.00142429
0.00144055
0.00145474
0.00146665
0.00147606
0.00148274
0.0014864
0.00148704
0.00148493
0.00148009
0.00147275
0.00144104
0.00140339
0.0013687
0.00133677
0.00130747
0.00128092
0.00125698
0.00123538
0.00121633
0.0012014
0.00119427
0.0011998
0.00121971
0.00124097
0.00122339
0.00120641
0.00119017
0.00117485
0.00116066
0.00114828
0.00113803
0.00112981
0.00112379
0.00112017
0.00111913
0.00112077
0.00112515
0.00113222
0.00114187
0.00115393
0.00116817
0.00118433
0.00120215
0.00122133
0.00124159
0.00126269
0.00128436
0.0013064
0.0013286
0.0013508
0.00137286
0.00139464
0.00141605
0.00143701
0.00145745
0.00147733
0.00149659
0.00151522
0.00153321
0.00155053
0.00156719
0.00158319
0.00159854
0.00161324
0.00162733
0.0016408
0.00165368
0.00166598
0.00167774
0.00168896
0.00169968
0.0017099
0.00171966
0.00172897
0.00173785
0.00174632
0.0017544
0.00176211
0.00176946
1.46365e-09
1.51439e-07
1.46554e-06
5.52215e-06
1.1083e-05
1.59151e-05
1.89204e-05
2.08182e-05
2.31654e-05
2.59236e-05
2.90765e-05
3.25023e-05
3.44617e-05
3.36382e-05
3.32826e-05
3.37728e-05
3.51827e-05
3.75754e-05
4.11114e-05
4.61136e-05
5.29702e-05
6.24351e-05
7.46099e-05
8.15734e-05
8.98449e-05
9.96819e-05
0.000111304
0.00012488
0.000140533
0.000158337
0.000178324
0.000200479
0.000224738
0.000250981
0.000279039
0.000308707
0.00033976
0.000371977
0.000405145
0.000439071
0.000473584
0.000508534
0.000543791
0.000579242
0.000614791
0.000650355
0.00068586
0.000721241
0.000756438
0.000791397
0.000826065
0.000860392
0.000894328
0.000927821
0.000960819
0.000993269
0.00102511
0.00105629
0.00108674
0.0011164
0.00114519
0.00117304
0.00119986
0.00122556
0.00125006
0.00127323
0.00129497
0.00131515
0.00133362
0.00135022
0.00136479
0.00137713
0.00138703
0.00139428
0.00139862
0.00140005
0.00139883
0.00139527
0.00138931
0.00135856
0.00132134
0.00128713
0.00125577
0.00122705
0.00120119
0.00117827
0.00115828
0.00114118
0.00112716
0.00111734
0.00111442
0.00112246
0.00114384
0.00116784
0.00115322
0.0011394
0.00112652
0.00111492
0.00110511
0.0010973
0.00109151
0.00108794
0.0010868
0.00108825
0.0010924
0.00109926
0.00110878
0.00112082
0.00113519
0.00115165
0.00116991
0.0011897
0.00121071
0.00123267
0.00125531
0.00127838
0.00130167
0.00132498
0.00134816
0.00137107
0.00139358
0.00141561
0.00143709
0.00145794
0.00147814
0.00149766
0.00151646
0.00153455
0.00155191
0.00156856
0.0015845
0.00159975
0.00161431
0.00162821
0.00164147
0.00165411
0.00166616
0.00167763
0.00168855
0.00169895
0.00170885
0.00171827
0.00172723
0.00173576
0.00174387
0.00175159
0.00175893
0.00176592
9.56909e-10
9.85466e-08
9.80092e-07
4.04218e-06
8.85174e-06
1.37096e-05
1.7377e-05
1.94346e-05
2.10459e-05
2.31441e-05
2.57441e-05
2.88489e-05
3.2426e-05
3.6419e-05
4.05041e-05
4.06236e-05
4.00593e-05
4.02314e-05
4.12491e-05
4.31966e-05
4.61779e-05
5.0376e-05
5.61229e-05
6.38039e-05
7.41354e-05
8.65374e-05
9.36861e-05
0.000102092
0.000112002
0.000123625
0.000137123
0.000152611
0.000170164
0.000189809
0.000211537
0.000235295
0.000260992
0.000288498
0.000317645
0.000348237
0.000380061
0.000412901
0.00044655
0.000480816
0.000515526
0.000550527
0.000585687
0.000620892
0.000656039
0.000691042
0.000725823
0.000760309
0.000794435
0.000828139
0.000861359
0.000894036
0.000926109
0.000957516
0.000988193
0.00101807
0.00104708
0.00107515
0.00110219
0.00112812
0.00115284
0.00117624
0.00119823
0.00121867
0.00123743
0.00125435
0.00126929
0.00128207
0.0012925
0.00130042
0.00130558
0.001308
0.00130797
0.00130585
0.00130145
0.00127358
0.0012372
0.00120382
0.00117346
0.00114579
0.00112098
0.00109916
0.00108048
0.00106506
0.00105304
0.00104474
0.001041
0.00104382
0.00105665
0.00108053
0.00109839
0.00108726
0.00107713
0.00106837
0.00106138
0.00105632
0.00105331
0.00105254
0.00105423
0.00105851
0.00106548
0.00107512
0.00108736
0.00110203
0.00111891
0.00113775
0.00115824
0.00118008
0.00120298
0.00122665
0.00125082
0.00127526
0.00129975
0.00132411
0.00134818
0.00137184
0.00139498
0.00141751
0.00143938
0.00146054
0.00148094
0.00150057
0.00151942
0.00153748
0.00155477
0.00157128
0.00158703
0.00160205
0.00161635
0.00162995
0.00164289
0.00165518
0.00166686
0.00167794
0.00168846
0.00169845
0.00170792
0.00171691
0.00172544
0.00173353
0.0017412
0.00174848
0.00175538
0.00176193
7.46101e-10
7.6479e-08
7.5649e-07
3.24488e-06
7.47671e-06
1.22562e-05
1.65399e-05
1.96061e-05
2.12313e-05
2.23678e-05
2.39185e-05
2.60127e-05
2.86991e-05
3.19707e-05
3.58069e-05
4.0176e-05
4.48293e-05
4.81746e-05
4.77182e-05
4.76172e-05
4.8305e-05
4.984e-05
5.23217e-05
5.58934e-05
6.07639e-05
6.72611e-05
7.57791e-05
8.69982e-05
9.89758e-05
0.000106231
0.000114694
0.000124606
0.000136166
0.000149533
0.000164817
0.000182083
0.000201356
0.00022262
0.000245819
0.000270866
0.00029764
0.000325993
0.000355757
0.000386741
0.000418749
0.000451578
0.000485037
0.000518941
0.000553125
0.00058744
0.000621751
0.000655942
0.000689908
0.000723554
0.000756794
0.000789549
0.000821742
0.000853299
0.000884146
0.00091421
0.000943416
0.000971684
0.000998932
0.00102507
0.00105001
0.00107366
0.00109589
0.00111661
0.00113568
0.00115299
0.00116838
0.00118172
0.00119286
0.00120166
0.0012079
0.00121157
0.00121299
0.00121251
0.00120988
0.00118765
0.00115277
0.00112056
0.00109159
0.0010654
0.00104212
0.0010219
0.00100484
0.000991163
0.000981117
0.000975039
0.000973401
0.000976913
0.000986924
0.0010069
0.00103522
0.00103444
0.0010273
0.0010216
0.00101769
0.00101569
0.00101577
0.00101814
0.00102298
0.00103041
0.0010405
0.00105318
0.00106837
0.00108585
0.00110539
0.00112671
0.00114949
0.00117342
0.00119821
0.00122356
0.00124921
0.00127494
0.00130053
0.00132582
0.00135067
0.00137495
0.00139858
0.00142148
0.0014436
0.0014649
0.00148536
0.00150497
0.00152372
0.00154161
0.00155867
0.00157491
0.00159034
0.001605
0.0016189
0.00163209
0.00164458
0.0016564
0.00166759
0.00167818
0.0016882
0.00169767
0.00170662
0.00171509
0.00172309
0.00173066
0.00173781
0.00174457
0.00175096
0.001757
6.40611e-10
6.566e-08
6.41525e-07
2.79758e-06
6.61945e-06
1.12285e-05
1.58445e-05
1.98466e-05
2.27425e-05
2.42604e-05
2.49168e-05
2.58808e-05
2.7266e-05
2.92475e-05
3.18914e-05
3.52036e-05
3.91748e-05
4.37875e-05
4.88919e-05
5.41172e-05
5.59571e-05
5.59152e-05
5.63855e-05
5.75938e-05
5.96702e-05
6.27357e-05
6.69657e-05
7.26037e-05
7.99527e-05
8.94456e-05
0.000101709
0.000111997
0.000119293
0.000127759
0.000137624
0.00014908
0.000162272
0.000177303
0.000194228
0.000213062
0.000233775
0.000256303
0.000280551
0.000306397
0.0003337
0.0003623
0.000392029
0.000422708
0.000454156
0.000486193
0.000518646
0.000551349
0.000584147
0.000616898
0.00064947
0.000681742
0.000713603
0.00074495
0.000775686
0.000805716
0.000834949
0.000863297
0.000890669
0.000916974
0.000942118
0.000966006
0.000988537
0.00100961
0.00102911
0.00104694
0.00106298
0.0010771
0.00108921
0.00109917
0.00110674
0.00111191
0.00111492
0.00111607
0.00111546
0.00110276
0.00107016
0.0010394
0.00101213
0.000987887
0.000966673
0.000948583
0.000933718
0.000922303
0.000914679
0.000911281
0.000912644
0.000919111
0.000930784
0.000950339
0.000978126
0.000981625
0.000977676
0.000975258
0.000974665
0.000976012
0.000979494
0.000985305
0.000993597
0.00100446
0.0010179
0.00103385
0.00105214
0.00107257
0.00109486
0.0011187
0.00114378
0.00116978
0.00119639
0.00122334
0.00125036
0.00127725
0.00130382
0.0013299
0.00135536
0.00138011
0.00140406
0.00142716
0.00144936
0.00147064
0.00149099
0.00151041
0.0015289
0.00154647
0.00156315
0.00157896
0.00159393
0.00160809
0.00162147
0.0016341
0.00164601
0.00165725
0.00166784
0.00167783
0.00168723
0.00169609
0.00170443
0.00171228
0.00171967
0.00172663
0.00173318
0.00173934
0.00174515
0.00175062
5.85299e-10
6.01118e-08
5.79114e-07
2.53862e-06
6.08362e-06
1.05023e-05
1.52017e-05
1.97223e-05
2.36553e-05
2.66225e-05
2.83113e-05
2.88468e-05
2.92145e-05
2.99083e-05
3.1061e-05
3.28477e-05
3.5354e-05
3.86082e-05
4.26109e-05
4.7347e-05
5.27978e-05
5.86166e-05
6.43813e-05
6.49951e-05
6.54853e-05
6.65868e-05
6.83854e-05
7.10679e-05
7.48023e-05
7.98158e-05
8.63778e-05
9.47111e-05
0.000105304
0.000118684
0.00012578
0.000133076
0.000141505
0.000151278
0.00016257
0.000175509
0.000190183
0.000206636
0.000224869
0.000244844
0.000266491
0.000289707
0.00031437
0.000340341
0.000367465
0.000395585
0.000424536
0.000454151
0.000484264
0.000514714
0.000545343
0.000575999
0.000606539
0.000636824
0.000666725
0.00069612
0.000724891
0.000752927
0.000780121
0.000806368
0.000831566
0.000855614
0.000878414
0.000899867
0.000919872
0.000938333
0.000955149
0.000970221
0.000983444
0.000994708
0.00100376
0.00101051
0.00101519
0.00101809
0.0010195
0.001019
0.000990996
0.000962557
0.000937551
0.000915833
0.000897224
0.00088179
0.00086973
0.000861361
0.000857074
0.000857245
0.000862319
0.000872468
0.000887254
0.000908136
0.000931415
0.000929525
0.000928938
0.000930003
0.000932939
0.000937892
0.000945048
0.000954568
0.000966565
0.000981079
0.000998073
0.00101743
0.00103895
0.00106238
0.00108744
0.00111378
0.0011411
0.00116907
0.00119739
0.0012258
0.00125405
0.00128194
0.00130929
0.00133597
0.00136187
0.00138689
0.00141097
0.00143407
0.00145617
0.00147725
0.00149731
0.00151636
0.00153442
0.00155151
0.00156765
0.00158288
0.00159724
0.00161075
0.00162347
0.00163541
0.00164663
0.00165716
0.00166705
0.00167632
0.00168501
0.00169315
0.00170078
0.00170793
0.00171463
0.0017209
0.00172678
0.00173228
0.00173743
0.00174226
5.58773e-10
5.75387e-08
5.46103e-07
2.38755e-06
5.74726e-06
9.99914e-06
1.46605e-05
1.93947e-05
2.39129e-05
2.79266e-05
3.11378e-05
3.32526e-05
3.40733e-05
3.39965e-05
3.40759e-05
3.44633e-05
3.53219e-05
3.68378e-05
3.91309e-05
4.22603e-05
4.62446e-05
5.10749e-05
5.67382e-05
6.2993e-05
6.94628e-05
7.48073e-05
7.58379e-05
7.69431e-05
7.86375e-05
8.10584e-05
8.44206e-05
8.89348e-05
9.4861e-05
0.000102432
0.000111835
0.000123451
0.000134088
0.000140504
0.000147772
0.000156111
0.000165709
0.000176716
0.000189246
0.00020337
0.000219124
0.000236502
0.000255466
0.000275944
0.000297835
0.00032102
0.000345363
0.000370717
0.000396929
0.000423839
0.000451291
0.000479125
0.000507188
0.000535326
0.000563391
0.000591242
0.00061874
0.000645753
0.000672154
0.000697822
0.000722638
0.000746492
0.000769274
0.00079088
0.000811208
0.00083016
0.00084764
0.000863552
0.000877798
0.000890271
0.000900688
0.000908929
0.0009152
0.000919783
0.000923042
0.000924632
0.000915916
0.00089313
0.000871564
0.000852683
0.000836917
0.000824692
0.000816334
0.000812079
0.000812152
0.000816575
0.000825025
0.000837063
0.000853625
0.000874157
0.000877325
0.000878737
0.000881655
0.000886362
0.000893031
0.000901819
0.000912883
0.000926337
0.00094224
0.000960576
0.000981253
0.0010041
0.00102889
0.00105532
0.00108309
0.00111186
0.0011413
0.00117109
0.00120096
0.00123064
0.00125991
0.00128859
0.00131652
0.00134359
0.0013697
0.00139478
0.00141878
0.00144169
0.00146348
0.00148416
0.00150374
0.00152224
0.00153969
0.00155611
0.00157156
0.00158606
0.00159965
0.00161238
0.00162429
0.00163543
0.00164583
0.00165554
0.00166461
0.00167306
0.00168094
0.00168828
0.00169512
0.00170149
0.00170741
0.00171293
0.00171806
0.00172284
0.00172728
0.00173142
5.52036e-10
5.70101e-08
5.32611e-07
2.30673e-06
5.54477e-06
9.66417e-06
1.42438e-05
1.90216e-05
2.37955e-05
2.83711e-05
3.25377e-05
3.60576e-05
3.867e-05
4.01096e-05
4.02953e-05
3.98202e-05
3.95704e-05
3.96101e-05
4.01092e-05
4.1273e-05
4.32614e-05
4.61697e-05
5.00402e-05
5.48733e-05
6.06512e-05
6.72876e-05
7.43822e-05
8.15209e-05
8.70922e-05
8.87146e-05
9.04368e-05
9.27633e-05
9.58808e-05
0.000100014
0.000105423
0.000112339
0.000120838
0.000131178
0.000143615
0.000149965
0.000156341
0.000163499
0.000171631
0.000180897
0.000191426
0.000203318
0.000216636
0.000231411
0.000247641
0.000265289
0.000284288
0.000304546
0.00032595
0.000348369
0.000371664
0.000395684
0.000420276
0.000445286
0.00047056
0.000495944
0.000521289
0.00054645
0.000571286
0.000595659
0.000619439
0.0006425
0.000664722
0.000685989
0.000706191
0.000725225
0.000742991
0.000759392
0.000774332
0.000787703
0.000799199
0.000808663
0.000816276
0.000822283
0.000826957
0.000830632
0.00083279
0.000831575
0.000815659
0.000801466
0.000790628
0.000783282
0.000779541
0.000779234
0.000781985
0.00078783
0.000796509
0.000802721
0.000810319
0.000821438
0.000824808
0.000829645
0.0008362
0.000844703
0.000855304
0.000868137
0.000883311
0.000900883
0.000920845
0.000943118
0.000967548
0.000993912
0.00102193
0.0010513
0.00108167
0.0011127
0.00114408
0.0011755
0.00120669
0.00123741
0.00126747
0.0012967
0.00132497
0.00135218
0.00137827
0.00140317
0.00142687
0.00144936
0.00147063
0.00149071
0.00150962
0.00152738
0.00154404
0.00155964
0.00157422
0.00158783
0.00160052
0.00161233
0.00162331
0.00163351
0.00164299
0.00165177
0.00165992
0.00166746
0.00167445
0.0016809
0.00168687
0.00169238
0.00169748
0.00170217
0.00170651
0.00171051
0.00171419
0.00171759
5.61359e-10
5.81619e-08
5.34607e-07
2.28062e-06
5.4496e-06
9.47885e-06
1.39807e-05
1.87343e-05
2.3589e-05
2.84152e-05
3.30784e-05
3.74244e-05
4.12698e-05
4.4398e-05
4.65622e-05
4.75117e-05
4.72341e-05
4.64177e-05
4.58187e-05
4.54752e-05
4.5554e-05
4.62828e-05
4.78571e-05
5.04214e-05
5.4057e-05
5.8789e-05
6.4604e-05
7.14903e-05
7.91055e-05
8.69989e-05
9.48087e-05
0.000101364
0.000103651
0.000106034
0.000109101
0.000113067
0.000118168
0.000124607
0.000132476
0.000141884
0.000153014
0.000161213
0.000166981
0.000173238
0.000180167
0.000187932
0.000196673
0.000206508
0.000217525
0.000229785
0.000243319
0.000258126
0.000274174
0.000291405
0.000309736
0.000329063
0.000349263
0.000370204
0.000391741
0.000413727
0.000436009
0.000458437
0.00048086
0.00050313
0.000525106
0.00054665
0.000567627
0.00058791
0.000607383
0.000625933
0.000643455
0.00065985
0.000675019
0.000688858
0.000701039
0.000711376
0.000720027
0.000727215
0.000733209
0.000738412
0.000742636
0.000745753
0.00074787
0.000749226
0.000750051
0.000750563
0.000750962
0.00075144
0.000749657
0.000746851
0.00074612
0.000747943
0.000753031
0.000762764
0.000774118
0.000782548
0.000792903
0.000805374
0.000820092
0.000837151
0.0008566
0.000878426
0.000902545
0.000928805
0.000956987
0.000986813
0.00101797
0.00105011
0.0010829
0.00111599
0.00114908
0.00118187
0.00121412
0.00124561
0.00127618
0.00130568
0.00133402
0.00136111
0.00138692
0.00141141
0.00143457
0.00145641
0.00147695
0.00149622
0.00151426
0.0015311
0.0015468
0.00156141
0.00157498
0.00158756
0.0015992
0.00160996
0.00161989
0.00162906
0.0016375
0.00164527
0.00165241
0.00165897
0.00166498
0.00167048
0.00167552
0.00168012
0.00168433
0.00168816
0.00169165
0.00169484
0.00169773
0.00170036
5.85255e-10
6.08652e-08
5.50278e-07
2.30184e-06
5.44954e-06
9.43646e-06
1.38922e-05
1.8616e-05
2.34835e-05
2.84005e-05
3.32798e-05
3.8028e-05
4.25357e-05
4.66683e-05
5.02592e-05
5.31053e-05
5.49665e-05
5.55987e-05
5.49974e-05
5.38652e-05
5.29255e-05
5.21953e-05
5.18233e-05
5.20401e-05
5.30884e-05
5.51687e-05
5.84151e-05
6.28929e-05
6.861e-05
7.55512e-05
8.35328e-05
9.207e-05
0.000100684
0.000109145
0.000117251
0.000120631
0.000123921
0.000127971
0.000132992
0.000139271
0.000146861
0.000155761
0.000166047
0.000173879
0.000179308
0.000184946
0.000190967
0.000197532
0.000204783
0.000212843
0.000221814
0.000231777
0.000242786
0.000254871
0.000268033
0.000282248
0.000297464
0.000313609
0.000330587
0.000348289
0.000366588
0.00038535
0.000404432
0.000423691
0.000442982
0.000462161
0.000481084
0.000499619
0.000517639
0.000535024
0.000551662
0.000567449
0.000582286
0.000596071
0.000608463
0.000619251
0.000628565
0.000636595
0.000643554
0.000649729
0.000655581
0.000660641
0.000665008
0.000668825
0.000672249
0.000675445
0.000678589
0.000681859
0.000685434
0.000689522
0.000694354
0.000700163
0.000706223
0.000715202
0.000725926
0.000738051
0.000752321
0.00076889
0.000787857
0.000809265
0.000833087
0.000859228
0.000887519
0.000917728
0.000949568
0.000982713
0.00101681
0.00105151
0.00108645
0.00112132
0.00115581
0.00118966
0.00122265
0.00125461
0.00128538
0.00131487
0.00134299
0.00136969
0.00139495
0.00141877
0.00144116
0.00146213
0.00148173
0.00149999
0.00151697
0.00153272
0.0015473
0.00156076
0.00157317
0.00158458
0.00159506
0.00160466
0.00161345
0.00162149
0.00162882
0.00163549
0.00164156
0.00164706
0.00165204
0.00165654
0.0016606
0.00166425
0.00166753
0.00167047
0.00167309
0.00167544
0.00167752
0.00167936
6.23308e-10
6.50984e-08
5.78686e-07
2.36554e-06
5.53543e-06
9.52827e-06
1.39815e-05
1.87031e-05
2.35792e-05
2.85307e-05
3.34941e-05
3.84094e-05
4.3213e-05
4.78304e-05
5.21691e-05
5.61118e-05
5.95084e-05
6.21694e-05
6.38609e-05
6.43432e-05
6.35729e-05
6.21889e-05
6.0963e-05
5.98876e-05
5.907e-05
5.87408e-05
5.91785e-05
6.06384e-05
6.33146e-05
6.73237e-05
7.27086e-05
7.94604e-05
8.75763e-05
9.65538e-05
0.000105864
0.000115145
0.000124217
0.000132931
0.000139756
0.000144482
0.00014985
0.000156282
0.000163898
0.000172795
0.000181731
0.000187222
0.000192555
0.000197882
0.000203348
0.000209094
0.000215248
0.000221927
0.000229237
0.000237265
0.00024608
0.000255732
0.000266247
0.000277627
0.000289853
0.000302882
0.00031665
0.000331072
0.000346053
0.000361478
0.000377226
0.000393166
0.000409165
0.000425098
0.000440838
0.000456265
0.000471261
0.00048572
0.000499549
0.000512647
0.000524676
0.000535401
0.000544926
0.000553401
0.00056099
0.000567887
0.000574372
0.000580907
0.000587036
0.00059285
0.000598474
0.000604042
0.000609702
0.000615613
0.000621945
0.000628887
0.000636658
0.000645497
0.000655672
0.000667465
0.000681154
0.000696996
0.000715211
0.000735921
0.00075918
0.000784961
0.000813152
0.00084356
0.000875925
0.00090993
0.000945226
0.000981438
0.00101819
0.00105512
0.00109188
0.00112816
0.0011637
0.00119826
0.00123165
0.00126373
0.00129438
0.00132354
0.00135114
0.00137717
0.00140163
0.00142453
0.00144591
0.00146579
0.00148425
0.00150132
0.00151707
0.00153157
0.00154488
0.00155706
0.00156818
0.00157832
0.00158753
0.00159589
0.00160345
0.00161028
0.00161643
0.00162195
0.00162689
0.00163129
0.00163521
0.00163867
0.00164172
0.0016444
0.00164674
0.00164877
0.00165052
0.00165202
0.00165329
0.00165435
6.75709e-10
7.09002e-08
6.19394e-07
2.46831e-06
5.69928e-06
9.74234e-06
1.42381e-05
1.89972e-05
2.39072e-05
2.88924e-05
3.38986e-05
3.88814e-05
4.37996e-05
4.86112e-05
5.32685e-05
5.77131e-05
6.18695e-05
6.56385e-05
6.88888e-05
7.14507e-05
7.31079e-05
7.36235e-05
7.28867e-05
7.13692e-05
6.99348e-05
6.8596e-05
6.74121e-05
6.65764e-05
6.63824e-05
6.71298e-05
6.90762e-05
7.24058e-05
7.72236e-05
8.35639e-05
9.14474e-05
0.000100536
0.000110291
0.000120241
0.000130122
0.000139751
0.000149019
0.000157849
0.000166201
0.000174021
0.000181286
0.000188011
0.000194255
0.000200105
0.000205664
0.000211044
0.000216357
0.000221718
0.000227236
0.000233016
0.000239155
0.00024574
0.000252843
0.000260521
0.000268817
0.000277752
0.000287328
0.000297528
0.000308318
0.000319642
0.000331431
0.0003436
0.000356061
0.000368715
0.000381454
0.000394173
0.000406772
0.000419154
0.000431239
0.000442933
0.000453921
0.000463973
0.000473159
0.00048159
0.000489387
0.000496682
0.00050364
0.000510499
0.000517658
0.000524943
0.000532259
0.000539734
0.000547483
0.000555641
0.000564363
0.000573829
0.000584252
0.00059588
0.000608996
0.000623911
0.000640938
0.000660365
0.000682416
0.000707187
0.000734655
0.00076471
0.000797135
0.000831632
0.000867839
0.00090536
0.000943783
0.000982698
0.00102171
0.00106046
0.00109863
0.00113592
0.0011721
0.00120697
0.00124038
0.00127223
0.00130243
0.00133093
0.00135772
0.00138281
0.00140621
0.00142796
0.00144811
0.00146672
0.00148384
0.00149956
0.00151393
0.00152704
0.00153895
0.00154973
0.00155947
0.00156825
0.00157612
0.00158317
0.00158946
0.00159503
0.00159996
0.00160429
0.00160808
0.00161136
0.00161419
0.00161661
0.00161865
0.00162036
0.00162176
0.00162289
0.00162377
0.00162443
0.00162491
0.00162521
7.43022e-10
7.83366e-08
6.72205e-07
2.60746e-06
5.93414e-06
1.0065e-05
1.4642e-05
1.94733e-05
2.44451e-05
2.94826e-05
3.45327e-05
3.95552e-05
4.45186e-05
4.93957e-05
5.41614e-05
5.8789e-05
6.32466e-05
6.74924e-05
7.14691e-05
7.50967e-05
7.82648e-05
8.08241e-05
8.2577e-05
8.32784e-05
8.27841e-05
8.13367e-05
7.97932e-05
7.83097e-05
7.68954e-05
7.5669e-05
7.49048e-05
7.49265e-05
7.60448e-05
7.85153e-05
8.25109e-05
8.81201e-05
9.53831e-05
0.000104202
0.000114051
0.000124381
0.000134849
0.000145217
0.000155306
0.000164982
0.000174147
0.00018276
0.000190792
0.000198257
0.000205199
0.000211677
0.00021776
0.000223529
0.000229069
0.000234468
0.000239815
0.000245198
0.0002507
0.000256398
0.000262361
0.000268646
0.000275299
0.000282352
0.000289822
0.000297711
0.000305999
0.000314661
0.000323659
0.000332946
0.000342463
0.000352143
0.000361921
0.000371735
0.000381523
0.000391219
0.000400564
0.000409354
0.000417627
0.00042546
0.000432939
0.000440159
0.000447225
0.000454269
0.000461468
0.000469062
0.000477222
0.000485916
0.000495061
0.000504793
0.000515263
0.000526649
0.000539167
0.000553072
0.000568672
0.00058631
0.000606332
0.00062905
0.000654683
0.000683295
0.000714759
0.000748853
0.000785242
0.000823508
0.000863189
0.000903813
0.000944916
0.000986063
0.00102686
0.00106695
0.00110604
0.00114388
0.00118027
0.00121504
0.00124809
0.00127934
0.00130875
0.00133631
0.00136201
0.00138589
0.001408
0.00142839
0.00144712
0.00146427
0.00147992
0.00149414
0.00150701
0.00151861
0.00152902
0.00153833
0.00154662
0.00155398
0.00156048
0.00156618
0.00157115
0.00157546
0.00157915
0.00158228
0.00158491
0.00158707
0.00158883
0.00159021
0.00159126
0.00159201
0.0015925
0.00159275
0.0015928
0.00159266
0.00159237
0.00159195
8.2705e-10
8.75568e-08
7.37446e-07
2.78068e-06
6.22334e-06
1.04747e-05
1.51698e-05
2.011e-05
2.51763e-05
3.02904e-05
3.5398e-05
4.04597e-05
4.54473e-05
5.03405e-05
5.51247e-05
5.97889e-05
6.43234e-05
6.87167e-05
7.29524e-05
7.70047e-05
8.08328e-05
8.43745e-05
8.75378e-05
9.01924e-05
9.21604e-05
9.31951e-05
9.31419e-05
9.20145e-05
9.04732e-05
8.8979e-05
8.74927e-05
8.60506e-05
8.48616e-05
8.42446e-05
8.4539e-05
8.60578e-05
8.90443e-05
9.36549e-05
9.99627e-05
0.000108052
0.000117528
0.000127863
0.000138586
0.00014939
0.000160033
0.000170344
0.000180204
0.000189542
0.000198349
0.000206612
0.000214346
0.000221585
0.000228374
0.000234764
0.000240815
0.000246591
0.000252159
0.000257588
0.000262944
0.000268291
0.000273688
0.000279186
0.00028483
0.000290653
0.000296676
0.000302913
0.000309368
0.000316034
0.0003229
0.000329944
0.000337141
0.000344471
0.000351911
0.000359441
0.000366876
0.000374047
0.000380989
0.000387759
0.000394422
0.000401052
0.000407728
0.000414541
0.000421596
0.000429012
0.000436918
0.00044545
0.000454836
0.000465144
0.000476478
0.000488986
0.000502861
0.000518341
0.000535777
0.000555563
0.000578087
0.000603674
0.000632519
0.000664629
0.000699766
0.000737542
0.000777489
0.000819069
0.000861724
0.000904913
0.000948139
0.000990956
0.00103298
0.00107388
0.00111339
0.00115129
0.00118744
0.0012217
0.00125401
0.00128433
0.00131264
0.00133895
0.00136331
0.00138577
0.00140638
0.00142523
0.00144239
0.00145795
0.00147199
0.0014846
0.00149588
0.00150589
0.00151475
0.00152254
0.00152935
0.00153527
0.00154037
0.00154471
0.00154837
0.0015514
0.00155386
0.00155582
0.00155731
0.00155838
0.00155909
0.00155948
0.00155957
0.00155941
0.00155902
0.00155844
0.0015577
0.00155682
0.00155582
0.00155472
9.30385e-10
9.88305e-08
8.14395e-07
2.98293e-06
6.57451e-06
1.09782e-05
1.58199e-05
2.08941e-05
2.6076e-05
3.12834e-05
3.64594e-05
4.15641e-05
4.65705e-05
5.14614e-05
5.62279e-05
6.08671e-05
6.53806e-05
6.97726e-05
7.40475e-05
7.82076e-05
8.22493e-05
8.61595e-05
8.99104e-05
9.34531e-05
9.67103e-05
9.95674e-05
0.000101866
0.000103377
0.000103895
0.000103307
0.000101955
0.000100575
9.9151e-05
9.76857e-05
9.62744e-05
9.5195e-05
9.47846e-05
9.53879e-05
9.73091e-05
0.000100778
0.000105938
0.000112873
0.000121481
0.000131309
0.000141845
0.000152699
0.000163587
0.000174296
0.000184686
0.000194661
0.000204165
0.000213179
0.000221702
0.000229738
0.000237305
0.000244437
0.00025117
0.000257546
0.000263612
0.000269417
0.000275012
0.000280444
0.000285761
0.000291004
0.000296212
0.000301416
0.000306643
0.000311912
0.000317239
0.000322633
0.000328103
0.000333657
0.000339306
0.000345058
0.000350794
0.00035641
0.000361949
0.000367468
0.000373034
0.000378711
0.000384575
0.000390701
0.000397179
0.000404102
0.000411578
0.000419724
0.000428681
0.000438598
0.00044965
0.000462055
0.0004761
0.000492159
0.000510617
0.000531893
0.000556389
0.000584411
0.000616087
0.000651322
0.000689732
0.000730734
0.000773713
0.000818019
0.000863017
0.000908123
0.000952824
0.00099668
0.00103932
0.00108047
0.00111987
0.00115737
0.00119284
0.0012262
0.00125742
0.00128648
0.00131341
0.00133825
0.00136105
0.0013819
0.00140086
0.00141802
0.00143349
0.00144735
0.0014597
0.00147064
0.00148026
0.00148865
0.00149592
0.00150219
0.00150752
0.001512
0.00151571
0.00151872
0.00152108
0.00152287
0.00152415
0.00152496
0.00152536
0.00152539
0.00152511
0.00152454
0.00152374
0.00152272
0.00152153
0.00152018
0.00151872
0.00151715
0.00151551
0.0015138
1.05221e-09
1.12127e-07
9.01061e-07
3.21673e-06
6.98235e-06
1.15618e-05
1.65709e-05
2.17964e-05
2.71076e-05
3.24179e-05
3.76678e-05
4.28167e-05
4.78382e-05
5.27175e-05
5.74493e-05
6.20362e-05
6.64868e-05
7.08143e-05
7.50343e-05
7.91638e-05
8.32181e-05
8.7209e-05
9.11411e-05
9.50091e-05
9.87925e-05
0.00010245
0.000105914
0.000109081
0.000111805
0.000113879
0.000115031
0.000115158
0.000114295
0.000113097
0.000111839
0.00011051
0.000109093