/*--------------------------------*- C++ -*----------------------------------*\
  =========                 |
  \\      /  F ield         | OpenFOAM: The Open Source CFD Toolbox
   \\    /   O peration     | Website:  https://openfoam.org
    \\  /    A nd           | Version:  10
     \\/     M anipulation  |
\*---------------------------------------------------------------------------*/
FoamFile
{
    format      ascii;
    class       volScalarField;
    location    "80000";
    object      p;
}
// * * * * * * * * * * * * * * * * * * * * * * * * * * * * * * * * * * * * * //

dimensions      [0 2 -2 0 0 0 0];

internalField   nonuniform List<scalar> 
71680
(
-6.03751
-6.02771
-6.02007
-6.01182
-6.00263
-5.99272
-5.98209
-5.97041
-5.9573
-5.9426
-5.92637
-5.90871
-5.88967
-5.86949
-5.84865
-5.82715
-5.80474
-5.78148
-5.75748
-5.73273
-5.7072
-5.68086
-5.65368
-5.62562
-5.59665
-5.56675
-5.53589
-5.50404
-5.47118
-5.43729
-5.40233
-5.36627
-5.32909
-5.29077
-5.25126
-5.21053
-5.16857
-5.12532
-5.08077
-5.03487
-4.98759
-4.93889
-4.88873
-4.83708
-4.78389
-4.72913
-4.67275
-4.6147
-4.55494
-4.49342
-4.43009
-4.3649
-4.2978
-4.22874
-4.15765
-4.08448
-4.00918
-3.93167
-3.85191
-3.76981
-3.68532
-3.59838
-3.5089
-3.41682
-3.32207
-3.22458
-3.12428
-3.02108
-2.91493
-2.80574
-2.69344
-2.57796
-2.45924
-2.33721
-2.21359
-2.09188
-1.97377
-1.85918
-1.74798
-1.64002
-1.53521
-1.43358
-1.33505
-1.23954
-1.14698
-1.05727
-0.970336
-0.886112
-0.804529
-0.725509
-0.648925
-0.574671
-0.502679
-0.432874
-0.365184
-0.299544
-0.235889
-0.17416
-0.114301
-0.0562606
1.42186e-05
0.0546005
0.107522
0.158831
0.208572
0.25679
0.303528
0.348825
0.392724
0.435265
0.476485
0.516425
0.555122
0.592612
0.628933
0.66412
0.698208
0.73123
0.76322
0.79421
0.82423
0.853312
0.881484
0.908777
0.935217
0.960831
0.985647
1.00969
1.03298
1.05555
1.07742
1.0986
1.11913
1.13902
1.1583
1.17698
1.19509
1.21263
1.22964
1.24612
1.26209
1.27758
1.29259
1.30714
1.32124
1.33492
1.34818
1.36103
-6.03467
-6.02491
-6.01741
-6.00942
-6.00077
-5.99157
-5.98176
-5.97129
-5.9601
-5.94794
-5.93446
-5.91948
-5.90294
-5.8849
-5.86544
-5.84457
-5.82256
-5.7999
-5.77649
-5.75209
-5.72675
-5.7006
-5.67363
-5.64581
-5.61712
-5.58752
-5.55698
-5.52547
-5.49295
-5.45941
-5.42481
-5.38912
-5.35232
-5.31437
-5.27524
-5.23491
-5.19333
-5.15048
-5.10632
-5.06081
-5.01392
-4.96561
-4.91585
-4.86458
-4.81178
-4.75739
-4.70138
-4.64369
-4.58429
-4.52312
-4.46013
-4.39527
-4.32848
-4.25971
-4.18891
-4.11601
-4.04095
-3.96367
-3.8841
-3.80218
-3.71783
-3.631
-3.5416
-3.44956
-3.35481
-3.25728
-3.15688
-3.05354
-2.94718
-2.83773
-2.72511
-2.60924
-2.49005
-2.36747
-2.24324
-2.12086
-2.00205
-1.88673
-1.77477
-1.666
-1.56038
-1.45793
-1.35858
-1.26224
-1.16885
-1.07832
-0.990578
-0.905543
-0.823151
-0.743347
-0.666059
-0.591141
-0.518455
-0.447946
-0.379569
-0.313256
-0.248943
-0.18657
-0.126081
-0.0674233
-0.0105409
0.0446196
0.0981063
0.149966
0.200243
0.24898
0.296221
0.342007
0.386378
0.429375
0.471037
0.511403
0.550511
0.588398
0.625101
0.660656
0.695099
0.728462
0.76078
0.792085
0.822409
0.851782
0.880235
0.907796
0.934493
0.960355
0.985407
1.00968
1.03319
1.05596
1.07803
1.0994
1.12012
1.14018
1.15963
1.17847
1.19672
1.21442
1.23156
1.24817
1.26428
1.27988
1.29501
1.30967
1.32388
1.33766
1.35101
1.36396
-6.03304
-6.02337
-6.01586
-6.00795
-5.99956
-5.99077
-5.98157
-5.97185
-5.96146
-5.95032
-5.93846
-5.92574
-5.9118
-5.89641
-5.87948
-5.86098
-5.84097
-5.81953
-5.79665
-5.77266
-5.74796
-5.72246
-5.69587
-5.6683
-5.63982
-5.61045
-5.58017
-5.54895
-5.51675
-5.48353
-5.44928
-5.41394
-5.3775
-5.33991
-5.30116
-5.2612
-5.22001
-5.17754
-5.13377
-5.08865
-5.04215
-4.99424
-4.94486
-4.89399
-4.84157
-4.78757
-4.73194
-4.67463
-4.61559
-4.55479
-4.49215
-4.42764
-4.36118
-4.29274
-4.22225
-4.14964
-4.07485
-3.99782
-3.91848
-3.83677
-3.7526
-3.66591
-3.57662
-3.48465
-3.38993
-3.29238
-3.19191
-3.08845
-2.98191
-2.87221
-2.75927
-2.643
-2.52334
-2.40021
-2.27533
-2.15226
-2.03271
-1.91661
-1.80384
-1.69423
-1.58774
-1.48441
-1.38417
-1.28695
-1.19266
-1.10124
-1.01261
-0.926701
-0.843435
-0.762754
-0.684609
-0.608935
-0.535569
-0.464332
-0.395186
-0.32812
-0.263075
-0.199988
-0.138804
-0.0794673
-0.0219231
0.0338806
0.0879926
0.140459
0.191326
0.240635
0.288429
0.334751
0.37964
0.423137
0.465283
0.506115
0.545673
0.583994
0.621116
0.657074
0.691904
0.725641
0.758318
0.789968
0.820623
0.850314
0.879072
0.906926
0.933904
0.960034
0.985344
1.00986
1.03361
1.05661
1.07889
1.10047
1.12138
1.14164
1.16126
1.18027
1.19869
1.21654
1.23384
1.25059
1.26683
1.28257
1.29782
1.3126
1.32692
1.34081
1.35427
1.36731
-6.03196
-6.02234
-6.01476
-6.00683
-5.99853
-5.9899
-5.98092
-5.97155
-5.96174
-5.95139
-5.94037
-5.92855
-5.91593
-5.90251
-5.88801
-5.87214
-5.85474
-5.83577
-5.81522
-5.79315
-5.76963
-5.74466
-5.71856
-5.6917
-5.66395
-5.63506
-5.60509
-5.57415
-5.54223
-5.50931
-5.47537
-5.44038
-5.40429
-5.36707
-5.32869
-5.28911
-5.24829
-5.20621
-5.16282
-5.1181
-5.07199
-5.02447
-4.97549
-4.92502
-4.873
-4.81939
-4.76416
-4.70724
-4.6486
-4.58817
-4.52591
-4.46177
-4.39568
-4.32759
-4.25743
-4.18514
-4.11066
-4.03392
-3.95485
-3.87337
-3.78942
-3.70291
-3.61377
-3.52191
-3.42725
-3.32971
-3.22921
-3.12565
-3.01895
-2.90903
-2.79578
-2.67914
-2.55901
-2.43531
-2.30979
-2.186
-2.06568
-1.94878
-1.83517
-1.72467
-1.61728
-1.51301
-1.41183
-1.31366
-1.21842
-1.12604
-1.03646
-0.949606
-0.865404
-0.783792
-0.704713
-0.62812
-0.553948
-0.482009
-0.4121
-0.3442
-0.278339
-0.214468
-0.152521
-0.0924427
-0.0341779
0.0223253
0.0771156
0.13024
0.181743
0.231668
0.280059
0.326956
0.372402
0.416437
0.4591
0.500432
0.540472
0.579257
0.616825
0.653213
0.688456
0.72259
0.755648
0.787664
0.81867
0.848698
0.877779
0.905941
0.933216
0.959629
0.98521
1.00998
1.03398
1.05722
1.07972
1.10152
1.12264
1.14309
1.1629
1.18209
1.20069
1.2187
1.23615
1.25305
1.26943
1.2853
1.30068
1.31558
1.33002
1.34402
1.35758
1.37073
-6.03111
-6.02148
-6.01383
-6.00584
-5.99754
-5.98893
-5.98001
-5.97075
-5.96112
-5.95107
-5.94055
-5.92948
-5.91775
-5.90521
-5.89181
-5.8776
-5.86242
-5.84598
-5.82807
-5.80859
-5.78753
-5.76487
-5.74067
-5.71498
-5.68785
-5.65956
-5.63042
-5.60028
-5.56893
-5.53643
-5.50285
-5.46819
-5.43245
-5.39559
-5.35758
-5.31838
-5.27795
-5.23626
-5.19327
-5.14894
-5.10324
-5.05612
-5.00755
-4.95748
-4.90587
-4.85268
-4.79785
-4.74135
-4.68311
-4.6231
-4.56124
-4.4975
-4.4318
-4.36409
-4.2943
-4.22237
-4.14824
-4.07182
-3.99305
-3.91186
-3.82816
-3.74187
-3.65291
-3.5612
-3.46665
-3.36917
-3.26867
-3.16506
-3.05824
-2.94811
-2.8346
-2.71759
-2.59701
-2.47276
-2.34658
-2.22206
-2.10096
-1.98323
-1.86874
-1.75734
-1.649
-1.54375
-1.44158
-1.3424
-1.24614
-1.15275
-1.06215
-0.974287
-0.889083
-0.806479
-0.726414
-0.648835
-0.5737
-0.500905
-0.430237
-0.36151
-0.29475
-0.230008
-0.167226
-0.10634
-0.047291
0.00997163
0.0654972
0.119333
0.171524
0.222115
0.271149
0.318668
0.364714
0.409327
0.452549
0.49442
0.534977
0.574262
0.61231
0.649159
0.684846
0.719406
0.752873
0.785282
0.816664
0.847052
0.876478
0.904971
0.932561
0.959277
0.985146
1.0102
1.03445
1.05794
1.08069
1.10272
1.12405
1.14471
1.16472
1.1841
1.20287
1.22106
1.23867
1.25573
1.27225
1.28827
1.30378
1.31881
1.33337
1.34748
1.36116
1.37441
-6.0304
-6.02075
-6.01303
-6.00498
-5.99663
-5.98799
-5.97906
-5.96981
-5.96021
-5.95026
-5.9399
-5.9291
-5.91781
-5.90596
-5.89345
-5.88017
-5.86598
-5.85089
-5.8349
-5.8178
-5.79931
-5.77929
-5.75768
-5.73446
-5.70962
-5.68321
-5.65526
-5.62584
-5.59523
-5.56365
-5.53094
-5.49693
-5.46168
-5.42523
-5.38761
-5.3488
-5.30876
-5.26747
-5.22488
-5.18095
-5.13566
-5.08895
-5.0408
-4.99115
-4.93997
-4.8872
-4.83281
-4.77674
-4.71894
-4.65936
-4.59794
-4.53462
-4.46935
-4.40206
-4.33268
-4.26115
-4.1874
-4.11135
-4.03293
-3.95206
-3.86866
-3.78264
-3.69392
-3.60241
-3.50801
-3.41064
-3.31019
-3.20656
-3.09966
-2.98938
-2.87563
-2.75829
-2.63728
-2.51249
-2.38568
-2.26043
-2.13852
-2.01994
-1.90455
-1.79223
-1.68292
-1.57665
-1.47343
-1.3732
-1.27587
-1.1814
-1.08973
-1.00078
-0.914506
-0.830842
-0.749729
-0.67111
-0.594941
-0.521181
-0.449621
-0.379991
-0.312287
-0.246608
-0.182927
-0.121172
-0.0612824
-0.00320682
0.0531051
0.107701
0.160628
0.211929
0.261649
0.30983
0.356515
0.401746
0.445562
0.488004
0.529113
0.568927
0.607485
0.644824
0.680981
0.715991
0.749891
0.782714
0.814493
0.845261
0.875049
0.903889
0.931811
0.958844
0.985015
1.01035
1.03489
1.05864
1.08163
1.1039
1.12546
1.14634
1.16655
1.18613
1.20508
1.22344
1.24122
1.25844
1.27512
1.29128
1.30693
1.32209
1.33677
1.351
1.36479
1.37815
-6.02984
-6.02017
-6.01239
-6.00428
-5.99588
-5.98721
-5.97824
-5.96897
-5.95936
-5.94941
-5.9391
-5.9284
-5.91727
-5.90568
-5.89358
-5.88091
-5.86757
-5.85348
-5.83849
-5.82254
-5.80565
-5.78775
-5.76859
-5.74796
-5.72578
-5.70195
-5.67646
-5.64931
-5.62051
-5.59009
-5.55818
-5.52506
-5.49082
-5.45526
-5.41831
-5.38003
-5.34044
-5.29957
-5.2574
-5.21389
-5.16902
-5.12274
-5.07501
-5.02581
-4.97507
-4.92276
-4.86882
-4.81321
-4.75587
-4.69676
-4.6358
-4.57295
-4.50814
-4.4413
-4.37238
-4.30129
-4.22796
-4.15233
-4.07431
-3.99381
-3.91076
-3.82507
-3.73664
-3.64538
-3.55119
-3.45398
-3.35363
-3.25005
-3.14312
-3.03274
-2.9188
-2.80118
-2.67977
-2.55448
-2.42703
-2.30106
-2.17835
-2.05889
-1.94259
-1.82934
-1.71904
-1.61172
-1.50742
-1.40607
-1.30763
-1.21203
-1.11921
-1.02912
-0.941712
-0.856921
-0.774695
-0.694975
-0.617718
-0.542892
-0.470288
-0.399629
-0.330911
-0.264247
-0.199614
-0.136938
-0.0761575
-0.0172185
0.0399291
0.0953337
0.149042
0.201099
0.251548
0.300435
0.3478
0.393685
0.438133
0.481184
0.522879
0.563256
0.602355
0.640213
0.676869
0.712358
0.746715
0.779976
0.812175
0.843344
0.873516
0.902723
0.930994
0.95836
0.98485
1.01049
1.03531
1.05934
1.0826
1.10511
1.12691
1.14801
1.16844
1.18822
1.20737
1.22591
1.24387
1.26125
1.27809
1.29439
1.31018
1.32548
1.34029
1.35464
1.36854
1.38201
-6.02943
-6.01973
-6.0119
-6.00376
-5.99531
-5.9866
-5.9776
-5.9683
-5.95868
-5.94872
-5.93841
-5.92774
-5.91667
-5.9052
-5.89327
-5.88087
-5.86793
-5.8544
-5.84021
-5.82526
-5.80944
-5.79263
-5.77479
-5.75598
-5.73604
-5.71469
-5.6918
-5.66727
-5.64104
-5.61306
-5.58333
-5.55188
-5.5187
-5.48401
-5.4481
-5.4109
-5.37219
-5.332
-5.29039
-5.24739
-5.20299
-5.15718
-5.10992
-5.06118
-5.01092
-4.95909
-4.90564
-4.85053
-4.79369
-4.73508
-4.67463
-4.61228
-4.54797
-4.48164
-4.41321
-4.3426
-4.26976
-4.19459
-4.11701
-4.03695
-3.95431
-3.86899
-3.78091
-3.68996
-3.59605
-3.49906
-3.39888
-3.2954
-3.18851
-3.07809
-2.96401
-2.84616
-2.72442
-2.59866
-2.47062
-2.34394
-2.22044
-2.10009
-1.98286
-1.86865
-1.75734
-1.64896
-1.54354
-1.44106
-1.34145
-1.24466
-1.15064
-1.05935
-0.97074
-0.884752
-0.801341
-0.72045
-0.642042
-0.566065
-0.492271
-0.420434
-0.350633
-0.282953
-0.217329
-0.153687
-0.0919672
-0.0321182
0.0259115
0.0821705
0.136706
0.189562
0.240785
0.290417
0.338501
0.385081
0.430198
0.473893
0.516206
0.557179
0.596849
0.635256
0.672437
0.708429
0.743269
0.776991
0.80963
0.84122
0.871794
0.901383
0.930019
0.957732
0.984554
1.01051
1.03563
1.05994
1.08347
1.10624
1.12828
1.14961
1.17026
1.19025
1.2096
1.22833
1.24646
1.26401
1.28101
1.29746
1.3134
1.32883
1.34377
1.35824
1.37226
1.38583
-6.02914
-6.0194
-6.01154
-6.00336
-5.99489
-5.98615
-5.97712
-5.9678
-5.95816
-5.94819
-5.93788
-5.92721
-5.91616
-5.90472
-5.89287
-5.88058
-5.86782
-5.85456
-5.84075
-5.82633
-5.81123
-5.79538
-5.77867
-5.761
-5.74224
-5.72237
-5.70141
-5.67918
-5.65543
-5.63002
-5.60288
-5.57393
-5.54313
-5.51049
-5.47604
-5.43986
-5.40219
-5.36315
-5.32264
-5.28054
-5.23689
-5.19172
-5.14506
-5.09689
-5.04718
-4.9959
-4.943
-4.88843
-4.83215
-4.77409
-4.71419
-4.6524
-4.58864
-4.52285
-4.45497
-4.3849
-4.31258
-4.23793
-4.16086
-4.08128
-3.99911
-3.91423
-3.82656
-3.73599
-3.64241
-3.54571
-3.44578
-3.34248
-3.2357
-3.12531
-3.01117
-2.89316
-2.77114
-2.64497
-2.5164
-2.38905
-2.26478
-2.14355
-2.02536
-1.91014
-1.79783
-1.68837
-1.58181
-1.47814
-1.37732
-1.2793
-1.18404
-1.09149
-1.00162
-0.914364
-0.829693
-0.747556
-0.667923
-0.590646
-0.515497
-0.442447
-0.371573
-0.302839
-0.236174
-0.171516
-0.108808
-0.0479993
0.0109619
0.0681239
0.123534
0.177236
0.229277
0.279698
0.328544
0.375858
0.421681
0.466056
0.509024
0.550625
0.590898
0.629883
0.667618
0.70414
0.739486
0.773692
0.806793
0.838824
0.869818
0.899807
0.928824
0.9569
0.984062
1.01034
1.03577
1.06038
1.0842
1.10726
1.12957
1.15115
1.17203
1.19223
1.21178
1.2307
1.24902
1.26675
1.2839
1.30052
1.3166
1.33216
1.34724
1.36183
1.37597
1.38965
-6.02893
-6.01916
-6.01128
-6.00308
-5.99458
-5.98581
-5.97677
-5.96742
-5.95776
-5.94778
-5.93746
-5.92679
-5.91575
-5.90433
-5.8925
-5.88025
-5.86756
-5.85441
-5.84076
-5.82659
-5.81184
-5.79646
-5.78039
-5.76355
-5.74585
-5.72718
-5.70744
-5.6865
-5.66433
-5.64093
-5.6161
-5.58963
-5.56138
-5.53128
-5.49928
-5.46536
-5.42954
-5.39184
-5.35243
-5.31157
-5.2692
-5.22517
-5.17949
-5.13217
-5.08324
-5.03268
-4.98047
-4.92656
-4.87092
-4.81349
-4.75421
-4.69304
-4.6299
-4.56472
-4.49743
-4.42797
-4.35624
-4.28216
-4.20565
-4.12662
-4.04497
-3.9606
-3.87341
-3.78328
-3.69012
-3.59378
-3.49416
-3.39112
-3.28453
-3.17426
-3.06015
-2.94206
-2.81984
-2.69335
-2.56431
-2.43636
-2.31136
-2.18928
-2.07014
-1.95389
-1.84052
-1.72998
-1.62224
-1.51731
-1.41521
-1.31591
-1.21937
-1.12553
-1.03437
-0.945824
-0.859844
-0.776346
-0.695302
-0.616629
-0.540197
-0.465969
-0.393949
-0.324085
-0.256313
-0.190575
-0.126818
-0.064989
-0.0050384
0.0530826
0.109421
0.164022
0.21693
0.26819
0.317845
0.365937
0.412511
0.457608
0.501269
0.543535
0.584447
0.624044
0.662365
0.699448
0.735331
0.770049
0.803639
0.836136
0.867574
0.897986
0.927406
0.955866
0.983396
1.01003
1.03578
1.06068
1.08475
1.10803
1.13057
1.15238
1.1735
1.19392
1.21369
1.23281
1.25132
1.26922
1.28655
1.30332
1.31955
1.33526
1.35047
1.36519
1.37945
1.39324
-6.02878
-6.01899
-6.0111
-6.00288
-5.99436
-5.98558
-5.97651
-5.96715
-5.95748
-5.94749
-5.93716
-5.92648
-5.91544
-5.90402
-5.8922
-5.87997
-5.86731
-5.85419
-5.84061
-5.82652
-5.81191
-5.79674
-5.78097
-5.76454
-5.74739
-5.72945
-5.71063
-5.69082
-5.66993
-5.64783
-5.6244
-5.59959
-5.5734
-5.54564
-5.51611
-5.48472
-5.45139
-5.41608
-5.37879
-5.33957
-5.29852
-5.25583
-5.21157
-5.16562
-5.11792
-5.06845
-5.01723
-4.96424
-4.90944
-4.8528
-4.79429
-4.73384
-4.67141
-4.60692
-4.54032
-4.47152
-4.40045
-4.32702
-4.25115
-4.17273
-4.09168
-4.00789
-3.92123
-3.83164
-3.73897
-3.64309
-3.54386
-3.44116
-3.33486
-3.22479
-3.1108
-2.99273
-2.87042
-2.7437
-2.61428
-2.48582
-2.36016
-2.23732
-2.11728
-2.00004
-1.88559
-1.7739
-1.66499
-1.55886
-1.4555
-1.3549
-1.25702
-1.16182
-1.06925
-0.979253
-0.891806
-0.806874
-0.724422
-0.644398
-0.566696
-0.491221
-0.41795
-0.346862
-0.277901
-0.211008
-0.14613
-0.0832138
-0.0222096
0.0369313
0.0942558
0.14981
0.203639
0.255786
0.306297
0.355214
0.40258
0.448438
0.492829
0.535795
0.577377
0.617615
0.656548
0.694215
0.730654
0.765902
0.799997
0.832973
0.864867
0.895712
0.925542
0.95439
0.982287
1.00927
1.03536
1.06061
1.08504
1.10866
1.13148
1.15355
1.1749
1.19554
1.21552
1.23484
1.25353
1.27161
1.28911
1.30603
1.32241
1.33826
1.3536
1.36845
1.38282
1.39673
-6.02869
-6.01887
-6.01097
-6.00274
-5.99422
-5.98542
-5.97635
-5.96698
-5.9573
-5.9473
-5.93696
-5.92628
-5.91523
-5.90381
-5.892
-5.87978
-5.86713
-5.85403
-5.84047
-5.82642
-5.81186
-5.79676
-5.78111
-5.76485
-5.74795
-5.73035
-5.71201
-5.69284
-5.67275
-5.65165
-5.62944
-5.606
-5.58123
-5.55498
-5.5272
-5.49789
-5.46691
-5.43407
-5.39928
-5.36251
-5.32373
-5.28293
-5.24022
-5.19579
-5.14968
-5.10177
-5.05197
-5.00026
-4.94664
-4.8911
-4.8336
-4.7741
-4.71257
-4.64894
-4.58315
-4.51514
-4.44484
-4.37215
-4.29701
-4.2193
-4.13894
-4.05584
-3.96978
-3.88074
-3.78869
-3.69335
-3.59457
-3.49231
-3.38643
-3.2767
-3.16295
-3.04501
-2.92272
-2.79589
-2.6662
-2.53731
-2.41111
-2.28758
-2.16675
-2.0486
-1.93315
-1.8204
-1.71033
-1.60297
-1.4983
-1.39634
-1.29704
-1.2004
-1.10637
-1.01493
-0.926042
-0.839648
-0.755708
-0.67419
-0.595035
-0.518178
-0.44358
-0.371197
-0.300973
-0.232855
-0.166786
-0.102717
-0.0405957
0.0196263
0.0779964
0.134561
0.189365
0.242453
0.29387
0.343658
0.391862
0.438524
0.483686
0.527391
0.569679
0.610592
0.650169
0.68845
0.725475
0.76128
0.795905
0.829385
0.861757
0.893056
0.923316
0.952572
0.980856
1.0082
1.03464
1.06019
1.0849
1.1088
1.13189
1.15423
1.17582
1.1967
1.2169
1.23642
1.25531
1.27358
1.29124
1.30833
1.32486
1.34086
1.35633
1.3713
1.38579
1.39981
-6.02864
-6.01879
-6.01089
-6.00266
-5.99413
-5.98533
-5.97625
-5.96688
-5.95719
-5.94719
-5.93685
-5.92617
-5.91512
-5.9037
-5.89189
-5.87968
-5.86704
-5.85396
-5.84041
-5.82639
-5.81186
-5.7968
-5.78119
-5.765
-5.7482
-5.73075
-5.71261
-5.69374
-5.67408
-5.65354
-5.63205
-5.60952
-5.58584
-5.56091
-5.53462
-5.50687
-5.47753
-5.44653
-5.41382
-5.37935
-5.34299
-5.30462
-5.26423
-5.22181
-5.17748
-5.13131
-5.08324
-5.03318
-4.9811
-4.92701
-4.87087
-4.81265
-4.75231
-4.6898
-4.62507
-4.55807
-4.48871
-4.41694
-4.34266
-4.26579
-4.18623
-4.10387
-4.01864
-3.93038
-3.83898
-3.7444
-3.64618
-3.54432
-3.43897
-3.3297
-3.21629
-3.0986
-2.97646
-2.84964
-2.71982
-2.59064
-2.46399
-2.33989
-2.21834
-2.09936
-1.98296
-1.86916
-1.75797
-1.6494
-1.54344
-1.44011
-1.33939
-1.24127
-1.14573
-1.05274
-0.962287
-0.87434
-0.788867
-0.70583
-0.625183
-0.546878
-0.470872
-0.397116
-0.325556
-0.25614
-0.188814
-0.123525
-0.0602234
0.00114065
0.0606147
0.118245
0.174077
0.228156
0.280526
0.331231
0.380315
0.42782
0.47379
0.518267
0.561293
0.602909
0.643158
0.682078
0.719711
0.756095
0.791269
0.825271
0.858138
0.889906
0.920612
0.950289
0.978972
1.00669
1.03349
1.05938
1.08441
1.1086
1.13198
1.15458
1.17643
1.19754
1.21796
1.2377
1.25678
1.27523
1.29307
1.31032
1.327
1.34314
1.35875
1.37385
1.38845
1.40258
-6.02861
-6.01874
-6.01085
-6.00262
-5.99408
-5.98528
-5.97621
-5.96683
-5.95715
-5.94715
-5.93682
-5.92614
-5.9151
-5.90368
-5.89188
-5.87968
-5.86705
-5.85398
-5.84046
-5.82646
-5.81195
-5.79693
-5.78136
-5.76521
-5.74847
-5.7311
-5.71306
-5.69433
-5.67485
-5.65459
-5.63348
-5.61146
-5.58844
-5.56434
-5.53905
-5.51248
-5.48453
-5.4551
-5.42408
-5.39139
-5.35694
-5.32064
-5.28244
-5.24228
-5.20014
-5.156
-5.10986
-5.06167
-5.01143
-4.95909
-4.90463
-4.84801
-4.78919
-4.72813
-4.66477
-4.59906
-4.53094
-4.46033
-4.38715
-4.31133
-4.23278
-4.15138
-4.06705
-3.97959
-3.88889
-3.79496
-3.69766
-3.59677
-3.49206
-3.38329
-3.27042
-3.15316
-3.0313
-2.90462
-2.77475
-2.64539
-2.51845
-2.3939
-2.27176
-2.15204
-2.03477
-1.91997
-1.80767
-1.69788
-1.59063
-1.48591
-1.38374
-1.28412
-1.18704
-1.0925
-1.00047
-0.910933
-0.823872
-0.739259
-0.657058
-0.577234
-0.499744
-0.424542
-0.351578
-0.280798
-0.212149
-0.14558
-0.0810376
-0.018474
0.042159
0.100908
0.157818
0.212935
0.266302
0.317965
0.367966
0.41635
0.46316
0.508439
0.552231
0.594577
0.635519
0.6751
0.71336
0.75034
0.786079
0.820617
0.853991
0.88624
0.9174
0.947506
0.976595
1.0047
1.03186
1.05809
1.08344
1.10793
1.1316
1.15447
1.17656
1.19792
1.21856
1.2385
1.25778
1.27641
1.29443
1.31184
1.32868
1.34496
1.3607
1.37592
1.39065
1.40489
-6.02861
-6.01871
-6.01084
-6.0026
-5.99407
-5.98528
-5.9762
-5.96683
-5.95716
-5.94716
-5.93684
-5.92617
-5.91514
-5.90374
-5.89195
-5.87976
-5.86715
-5.8541
-5.8406
-5.82662
-5.81215
-5.79716
-5.78163
-5.76554
-5.74885
-5.73154
-5.71358
-5.69494
-5.67558
-5.65546
-5.63454
-5.61277
-5.59011
-5.56648
-5.5418
-5.51601
-5.48898
-5.46064
-5.43088
-5.39961
-5.36674
-5.33217
-5.29581
-5.25758
-5.21742
-5.17531
-5.13119
-5.08501
-5.03675
-4.98635
-4.93378
-4.879
-4.82196
-4.7626
-4.70089
-4.63675
-4.57014
-4.50097
-4.42917
-4.35467
-4.27738
-4.19719
-4.11402
-4.02771
-3.93809
-3.84509
-3.74862
-3.64851
-3.54454
-3.43646
-3.32417
-3.20751
-3.08628
-2.96012
-2.83043
-2.701
-2.57391
-2.44906
-2.32645
-2.20611
-2.08807
-1.97237
-1.85904
-1.7481
-1.63958
-1.53352
-1.42992
-1.32879
-1.23016
-1.13401
-1.04036
-0.949194
-0.860498
-0.774259
-0.690452
-0.60905
-0.530018
-0.453312
-0.378886
-0.306685
-0.236659
-0.168753
-0.102919
-0.0391053
0.0227345
0.0826471
0.140678
0.196871
0.251273
0.303926
0.354876
0.404166
0.451842
0.497947
0.542526
0.585621
0.627276
0.667533
0.706436
0.744025
0.780341
0.815426
0.849318
0.882056
0.913679
0.944223
0.973725
1.00222
1.02974
1.05632
1.082
1.1068
1.13075
1.15389
1.17624
1.19784
1.2187
1.23885
1.25833
1.27715
1.29533
1.31291
1.3299
1.34632
1.36219
1.37754
1.39238
1.40672
-6.02862
-6.01869
-6.01084
-6.00261
-5.99408
-5.98529
-5.97623
-5.96686
-5.9572
-5.94721
-5.9369
-5.92624
-5.91522
-5.90384
-5.89207
-5.8799
-5.86731
-5.85428
-5.84081
-5.82686
-5.81243
-5.79748
-5.78199
-5.76595
-5.74932
-5.73208
-5.7142
-5.69564
-5.67638
-5.65638
-5.6356
-5.614
-5.59154
-5.56817
-5.54383
-5.51847
-5.49202
-5.46439
-5.4355
-5.40525
-5.37353
-5.34027
-5.30536
-5.26872
-5.23027
-5.18994
-5.14766
-5.10338
-5.05703
-5.00856
-4.95791
-4.90503
-4.84986
-4.79235
-4.73244
-4.67006
-4.60514
-4.53763
-4.46743
-4.39448
-4.31866
-4.2399
-4.15809
-4.0731
-3.9848
-3.89306
-3.79776
-3.69872
-3.59578
-3.48871
-3.3773
-3.26133
-3.14059
-3.01483
-2.88563
-2.75654
-2.6295
-2.50451
-2.38159
-2.26078
-2.14212
-2.02564
-1.91138
-1.79939
-1.6897
-1.58234
-1.47736
-1.37477
-1.2746
-1.17688
-1.0816
-0.988783
-0.898426
-0.810528
-0.725076
-0.642054
-0.561433
-0.483177
-0.40724
-0.333572
-0.262122
-0.192837
-0.125668
-0.0605645
0.0025192
0.0636294
0.122811
0.18011
0.23557
0.289237
0.341155
0.39137
0.439927
0.486872
0.53225
0.576104
0.618481
0.659423
0.698975
0.737179
0.774078
0.809715
0.844128
0.87736
0.909449
0.940433
0.970349
0.999235
1.02712
1.05405
1.08005
1.10516
1.1294
1.15281
1.17541
1.19724
1.21833
1.23869
1.25836
1.27736
1.29572
1.31346
1.33059
1.34715
1.36316
1.37862
1.39357
1.40803
-6.02864
-6.01867
-6.01085
-6.00263
-5.9941
-5.98532
-5.97626
-5.96691
-5.95725
-5.94728
-5.93698
-5.92633
-5.91533
-5.90397
-5.89222
-5.88007
-5.8675
-5.85451
-5.84107
-5.82715
-5.81276
-5.79785
-5.78241
-5.76643
-5.74986
-5.73269
-5.71488
-5.69642
-5.67726
-5.65737
-5.63671
-5.61526
-5.59297
-5.56979
-5.54568
-5.5206
-5.49448
-5.46727
-5.43891
-5.40931
-5.3784
-5.34608
-5.31225
-5.27682
-5.23971
-5.20083
-5.1601
-5.11744
-5.07279
-5.02606
-4.9772
-4.92613
-4.87279
-4.81711
-4.75901
-4.69844
-4.63531
-4.56954
-4.50106
-4.42978
-4.35561
-4.27844
-4.19817
-4.11469
-4.02785
-3.93752
-3.84356
-3.74581
-3.64408
-3.53817
-3.42786
-3.31291
-3.19307
-3.06807
-2.93947
-2.81083
-2.68401
-2.55908
-2.43605
-2.31495
-2.19583
-2.07874
-1.96371
-1.8508
-1.74006
-1.63153
-1.52526
-1.42129
-1.31966
-1.2204
-1.12353
-1.02909
-0.93709
-0.847537
-0.760438
-0.675786
-0.593563
-0.513738
-0.436271
-0.361113
-0.288215
-0.217526
-0.148998
-0.0825845
-0.0182383
0.0440858
0.104433
0.162848
0.219376
0.274063
0.326956
0.3781
0.427541
0.475328
0.521505
0.56612
0.609218
0.650845
0.691046
0.729865
0.767346
0.803533
0.838467
0.87219
0.904744
0.936166
0.966496
0.99577
1.02403
1.0513
1.07762
1.10303
1.12756
1.15123
1.17409
1.19616
1.21746
1.23803
1.25789
1.27707
1.2956
1.31349
1.33077
1.34747
1.3636
1.37918
1.39424
1.40879
-6.02865
-6.01865
-6.01086
-6.00264
-5.99412
-5.98535
-5.9763
-5.96695
-5.95731
-5.94734
-5.93706
-5.92643
-5.91545
-5.9041
-5.89237
-5.88025
-5.86771
-5.85475
-5.84134
-5.82746
-5.81311
-5.79825
-5.78286
-5.76693
-5.75043
-5.73333
-5.7156
-5.69722
-5.67816
-5.65838
-5.63785
-5.61654
-5.5944
-5.57139
-5.54748
-5.52262
-5.49675
-5.46984
-5.44181
-5.41263
-5.38221
-5.3505
-5.3174
-5.28284
-5.24672
-5.20895
-5.16943
-5.1281
-5.08485
-5.03961
-4.99229
-4.94283
-4.89114
-4.83715
-4.78076
-4.72191
-4.66051
-4.59648
-4.52972
-4.46015
-4.38766
-4.31215
-4.23352
-4.15163
-4.06635
-3.97755
-3.88508
-3.78876
-3.6884
-3.5838
-3.47473
-3.36096
-3.2422
-3.11818
-2.99041
-2.86242
-2.73608
-2.61144
-2.48851
-2.36734
-2.24797
-2.13046
-2.01485
-1.9012
-1.78958
-1.68003
-1.57262
-1.4674
-1.36442
-1.26372
-1.16536
-1.06937
-0.975777
-0.88462
-0.795911
-0.709659
-0.625854
-0.544476
-0.465489
-0.388849
-0.31451
-0.242424
-0.172545
-0.104828
-0.0392265
0.024303
0.0858053
0.145326
0.202911
0.258607
0.312461
0.364521
0.414835
0.463451
0.510417
0.555781
0.599589
0.64189
0.68273
0.722154
0.760209
0.796937
0.832384
0.866592
0.899603
0.931456
0.962192
0.991849
1.02046
1.04807
1.07472
1.10042
1.12523
1.14917
1.17227
1.19457
1.21609
1.23686
1.25691
1.27626
1.29495
1.31299
1.33042
1.34724
1.36349
1.37919
1.39436
1.40901
-6.02866
-6.01863
-6.01086
-6.00265
-5.99414
-5.98536
-5.97632
-5.96698
-5.95735
-5.9474
-5.93712
-5.92651
-5.91554
-5.90421
-5.89251
-5.88041
-5.8679
-5.85497
-5.84159
-5.82776
-5.81344
-5.79863
-5.7833
-5.76743
-5.75099
-5.73396
-5.71631
-5.69802
-5.67905
-5.65938
-5.63897
-5.61779
-5.59579
-5.57295
-5.54922
-5.52455
-5.49891
-5.47223
-5.44449
-5.41561
-5.38555
-5.35425
-5.32163
-5.28763
-5.25218
-5.21519
-5.17657
-5.13623
-5.09409
-5.05004
-5.004
-4.95589
-4.90561
-4.85309
-4.79822
-4.74093
-4.68111
-4.61869
-4.55355
-4.48561
-4.41476
-4.34088
-4.26386
-4.18357
-4.09988
-4.01265
-3.9217
-3.82687
-3.72797
-3.62478
-3.51707
-3.40458
-3.28704
-3.16414
-3.03737
-2.91023
-2.78455
-2.66039
-2.53777
-2.41674
-2.29734
-2.17962
-2.06365
-1.94947
-1.83717
-1.7268
-1.61843
-1.51212
-1.40795
-1.30597
-1.20624
-1.10881
-1.01375
-0.921078
-0.830843
-0.743062
-0.657739
-0.574861
-0.494399
-0.416316
-0.340572
-0.267124
-0.195928
-0.126942
-0.0601213
0.00457795
0.0672012
0.127794
0.186404
0.243078
0.297864
0.350812
0.401971
0.451391
0.499121
0.545211
0.589709
0.632664
0.674124
0.714137
0.752748
0.790004
0.825949
0.860629
0.894084
0.926357
0.957488
0.987517
1.01648
1.04442
1.07137
1.09737
1.12245
1.14664
1.16999
1.1925
1.21423
1.2352
1.25543
1.27495
1.2938
1.31199
1.32955
1.3465
1.36287
1.37867
1.39394
1.40868
-6.02866
-6.01859
-6.01084
-6.00263
-5.99412
-5.98536
-5.97632
-5.96699
-5.95736
-5.94742
-5.93715
-5.92655
-5.9156
-5.90429
-5.89261
-5.88053
-5.86805
-5.85514
-5.8418
-5.82801
-5.81374
-5.79897
-5.7837
-5.76788
-5.75151
-5.73455
-5.71698
-5.69877
-5.6799
-5.66033
-5.64003
-5.61897
-5.59712
-5.57442
-5.55085
-5.52636
-5.50092
-5.47446
-5.44696
-5.41835
-5.38858
-5.3576
-5.32534
-5.29176
-5.25677
-5.22032
-5.18231
-5.14268
-5.10134
-5.05819
-5.01315
-4.96611
-4.91699
-4.86568
-4.8121
-4.75614
-4.69771
-4.63671
-4.57304
-4.50658
-4.43723
-4.36487
-4.28938
-4.21062
-4.12846
-4.04273
-3.95329
-3.85995
-3.7625
-3.66074
-3.55441
-3.44327
-3.32701
-3.20532
-3.07966
-2.95348
-2.82861
-2.70509
-2.58295
-2.46224
-2.34299
-2.22527
-2.10913
-1.99464
-1.88187
-1.77089
-1.66175
-1.55457
-1.4494
-1.34631
-1.24538
-1.14669
-1.05028
-0.956241
-0.864602
-0.775404
-0.688662
-0.604373
-0.522518
-0.443068
-0.36599
-0.291246
-0.218798
-0.148604
-0.0806228
-0.0148105
0.0488782
0.11049
0.170072
0.227675
0.283348
0.337141
0.389104
0.43929
0.487749
0.534532
0.579688
0.623269
0.665323
0.705898
0.745044
0.782806
0.81923
0.854363
0.888246
0.920923
0.952435
0.982822
1.01213
1.04038
1.06763
1.09391
1.11925
1.14369
1.16726
1.19
1.21193
1.23308
1.25348
1.27317
1.29217
1.3105
1.32818
1.34526
1.36174
1.37765
1.393
1.40784
-6.02864
-6.01853
-6.0108
-6.0026
-5.99409
-5.98532
-5.97629
-5.96696
-5.95734
-5.9474
-5.93715
-5.92656
-5.91562
-5.90432
-5.89265
-5.8806
-5.86814
-5.85526
-5.84195
-5.82819
-5.81396
-5.79924
-5.78402
-5.76826
-5.75195
-5.73506
-5.71757
-5.69944
-5.68066
-5.66119
-5.641
-5.62006
-5.59833
-5.57577
-5.55235
-5.52803
-5.50276
-5.4765
-5.44921
-5.42083
-5.39131
-5.36061
-5.32866
-5.29541
-5.26079
-5.22475
-5.1872
-5.14808
-5.10731
-5.06481
-5.0205
-4.97427
-4.92603
-4.87569
-4.82315
-4.76829
-4.71102
-4.65123
-4.58881
-4.52365
-4.45564
-4.38463
-4.31052
-4.23316
-4.15241
-4.06811
-3.98008
-3.88814
-3.7921
-3.69171
-3.58675
-3.47693
-3.36195
-3.24149
-3.11698
-2.99183
-2.86785
-2.74507
-2.62353
-2.50327
-2.38433
-2.26678
-2.15065
-2.03602
-1.92297
-1.81155
-1.70187
-1.59402
-1.48804
-1.38405
-1.28211
-1.18232
-1.08476
-0.989498
-0.896608
-0.806134
-0.718104
-0.632525
-0.54939
-0.46868
-0.390369
-0.314428
-0.24082
-0.169508
-0.100451
-0.0336058
0.0310724
0.0936311
0.154119
0.212587
0.269086
0.323667
0.376383
0.427286
0.476428
0.523861
0.569638
0.613808
0.656422
0.69753
0.737181
0.775423
0.812303
0.847866
0.882156
0.915217
0.947092
0.977822
1.00745
1.03601
1.06354
1.09009
1.11568
1.14036
1.16415
1.18709
1.20921
1.23054
1.25111
1.27095
1.29009
1.30855
1.32637
1.34355
1.36014
1.37614
1.39159
1.40651
-6.02859
-6.01844
-6.01074
-6.00253
-5.99402
-5.98525
-5.97621
-5.96689
-5.95727
-5.94734
-5.93709
-5.9265
-5.91558
-5.90429
-5.89263
-5.88059
-5.86815
-5.8553
-5.84202
-5.82829
-5.8141
-5.79942
-5.78424
-5.76854
-5.75229
-5.73546
-5.71804
-5.7
-5.6813
-5.66193
-5.64184
-5.62101
-5.5994
-5.57697
-5.55369
-5.52952
-5.50441
-5.47833
-5.45123
-5.42305
-5.39376
-5.3633
-5.33161
-5.29864
-5.26433
-5.22862
-5.19144
-5.15273
-5.11241
-5.0704
-5.02662
-4.98099
-4.93342
-4.88381
-4.83206
-4.77807
-4.72173
-4.66293
-4.60156
-4.5375
-4.47061
-4.40079
-4.32789
-4.25176
-4.17227
-4.08924
-4.0025
-3.91186
-3.81711
-3.71802
-3.61433
-3.50577
-3.39203
-3.27277
-3.1494
-3.02528
-2.90221
-2.78022
-2.65935
-2.53963
-2.42111
-2.30383
-2.18786
-2.07324
-1.96007
-1.84841
-1.73838
-1.63001
-1.52342
-1.41869
-1.31593
-1.21522
-1.11668
-1.02038
-0.926402
-0.834809
-0.745641
-0.658917
-0.574639
-0.4928
-0.413384
-0.336365
-0.261713
-0.189392
-0.119364
-0.0515849
0.0139899
0.0774084
0.13872
0.197977
0.25523
0.310533
0.363939
0.415501
0.465273
0.513308
0.559658
0.604376
0.647512
0.689116
0.72924
0.767931
0.805238
0.841205
0.875879
0.909303
0.941521
0.972574
1.00251
1.03135
1.05916
1.08596
1.11179
1.13669
1.16069
1.18382
1.20613
1.22763
1.24836
1.26834
1.28762
1.30621
1.32414
1.34143
1.35812
1.37421
1.38975
1.40474
-6.02852
-6.01833
-6.01064
-6.00243
-5.99391
-5.98514
-5.9761
-5.96678
-5.95715
-5.94722
-5.93697
-5.92639
-5.91546
-5.90418
-5.89254
-5.88051
-5.86809
-5.85525
-5.84199
-5.82829
-5.81413
-5.79949
-5.78436
-5.7687
-5.7525
-5.73574
-5.71839
-5.70042
-5.68181
-5.66252
-5.64253
-5.6218
-5.6003
-5.57799
-5.55484
-5.53081
-5.50585
-5.47993
-5.453
-5.42501
-5.39591
-5.36566
-5.3342
-5.30147
-5.26743
-5.232
-5.19513
-5.15675
-5.11679
-5.07518
-5.03183
-4.98667
-4.93961
-4.89056
-4.83943