/*--------------------------------*- C++ -*----------------------------------*\
  =========                 |
  \\      /  F ield         | OpenFOAM: The Open Source CFD Toolbox
   \\    /   O peration     | Website:  https://openfoam.org
    \\  /    A nd           | Version:  10
     \\/     M anipulation  |
\*---------------------------------------------------------------------------*/
FoamFile
{
    format      ascii;
    class       surfaceScalarField;
    location    "80000";
    object      phi;
}
// * * * * * * * * * * * * * * * * * * * * * * * * * * * * * * * * * * * * * //

dimensions      [0 3 -1 0 0 0 0];

internalField   nonuniform List<scalar> 
142624
(
-6.86466e-09
-3.62739e-07
-1.04285e-08
-2.90765e-07
3.20582e-08
-2.58679e-07
1.28612e-07
-2.16665e-07
3.04124e-07
-1.61475e-07
5.90284e-07
-8.27842e-08
1.00603e-06
3.45241e-08
1.54632e-06
2.01262e-07
2.18108e-06
4.18797e-07
2.86382e-06
6.80237e-07
3.54475e-06
9.69781e-07
4.18273e-06
1.26893e-06
4.75084e-06
1.56135e-06
5.23663e-06
1.83324e-06
5.64005e-06
2.07756e-06
5.96887e-06
2.29285e-06
6.23574e-06
2.47943e-06
6.45362e-06
2.64177e-06
6.63416e-06
2.78485e-06
6.7876e-06
2.91274e-06
6.92197e-06
3.02951e-06
7.04327e-06
3.13841e-06
7.15587e-06
3.24188e-06
7.26285e-06
3.34169e-06
7.36626e-06
3.43911e-06
7.4674e-06
3.53498e-06
7.56709e-06
3.62983e-06
7.66582e-06
3.72392e-06
7.76391e-06
3.81739e-06
7.86153e-06
3.91025e-06
7.9588e-06
4.00244e-06
8.05577e-06
4.09386e-06
8.15247e-06
4.18437e-06
8.24891e-06
4.27382e-06
8.34507e-06
4.36202e-06
8.4409e-06
4.44875e-06
8.53637e-06
4.53379e-06
8.63142e-06
4.61688e-06
8.72598e-06
4.69775e-06
8.81998e-06
4.7761e-06
8.91333e-06
4.85161e-06
9.00596e-06
4.92396e-06
9.09777e-06
4.99276e-06
9.18864e-06
5.05764e-06
9.27848e-06
5.11818e-06
9.36715e-06
5.17393e-06
9.45452e-06
5.22442e-06
9.54044e-06
5.26913e-06
9.62476e-06
5.30752e-06
9.70731e-06
5.339e-06
9.78789e-06
5.36295e-06
9.8663e-06
5.37869e-06
9.94233e-06
5.38551e-06
1.00157e-05
5.38263e-06
1.00862e-05
5.36923e-06
1.01536e-05
5.34442e-06
1.02174e-05
5.30726e-06
1.02775e-05
5.25673e-06
1.03334e-05
5.19173e-06
1.03848e-05
5.1111e-06
1.04312e-05
5.01358e-06
1.04723e-05
4.89782e-06
1.05075e-05
4.76239e-06
1.05364e-05
4.60574e-06
1.05584e-05
4.42619e-06
1.05731e-05
4.22198e-06
1.05798e-05
3.99117e-06
1.05779e-05
3.73172e-06
1.05668e-05
3.44142e-06
1.05458e-05
3.1179e-06
1.05143e-05
2.75863e-06
1.04715e-05
2.36091e-06
1.04167e-05
1.92186e-06
1.03493e-05
1.43843e-06
1.02708e-05
8.89901e-07
1.01841e-05
3.3762e-07
1.00902e-05
-1.71247e-07
9.98989e-06
-6.39059e-07
9.8837e-06
-1.06805e-06
9.77238e-06
-1.46137e-06
9.65668e-06
-1.82221e-06
9.53718e-06
-2.15279e-06
9.41432e-06
-2.45478e-06
9.28846e-06
-2.72976e-06
9.15981e-06
-2.97927e-06
9.02865e-06
-3.20485e-06
8.89564e-06
-3.40787e-06
8.76219e-06
-3.58932e-06
8.6302e-06
-3.74948e-06
8.50061e-06
-3.88811e-06
8.37252e-06
-4.0055e-06
8.24432e-06
-4.10347e-06
8.11527e-06
-4.18477e-06
7.9854e-06
-4.2515e-06
7.8548e-06
-4.30494e-06
7.72356e-06
-4.34624e-06
7.59173e-06
-4.37649e-06
7.4594e-06
-4.39676e-06
7.32661e-06
-4.40805e-06
7.19345e-06
-4.41129e-06
7.05972e-06
-4.40738e-06
6.92612e-06
-4.39713e-06
6.79248e-06
-4.38137e-06
6.65897e-06
-4.36081e-06
6.52576e-06
-4.3361e-06
6.39306e-06
-4.30785e-06
6.26108e-06
-4.27657e-06
6.13006e-06
-4.24272e-06
6.00022e-06
-4.20666e-06
5.87181e-06
-4.16874e-06
5.74504e-06
-4.1292e-06
5.62015e-06
-4.08827e-06
5.49734e-06
-4.04611e-06
5.37678e-06
-4.00287e-06
5.25866e-06
-3.95866e-06
5.1431e-06
-3.91355e-06
5.03024e-06
-3.86763e-06
4.92018e-06
-3.82095e-06
4.81299e-06
-3.77357e-06
4.70873e-06
-3.72552e-06
4.60746e-06
-3.67685e-06
4.50918e-06
-3.6276e-06
4.4139e-06
-3.57782e-06
4.32163e-06
-3.52754e-06
4.23235e-06
-3.47681e-06
4.14602e-06
-3.42566e-06
4.06261e-06
-3.37416e-06
3.98207e-06
-3.32233e-06
3.90436e-06
-3.27024e-06
3.8294e-06
-3.21793e-06
3.75714e-06
-3.16544e-06
3.68752e-06
-3.11282e-06
3.62046e-06
-3.06013e-06
3.55589e-06
-3.00741e-06
3.49374e-06
-2.95472e-06
3.43393e-06
-2.90209e-06
3.37639e-06
-2.84957e-06
3.32105e-06
-2.7972e-06
3.26783e-06
-2.74504e-06
3.21666e-06
-2.69312e-06
3.16746e-06
-2.64147e-06
3.12018e-06
-2.59015e-06
3.07472e-06
-2.53918e-06
3.03103e-06
-2.4886e-06
2.98905e-06
-2.43844e-06
2.94869e-06
-2.38873e-06
2.90991e-06
-2.3395e-06
-2.29078e-06
2.87264e-06
-9.0566e-09
-3.53684e-07
-2.75887e-08
-2.72235e-07
-1.48323e-08
-2.71431e-07
2.49185e-08
-2.56413e-07
9.67585e-08
-2.33314e-07
2.13678e-07
-1.99703e-07
3.981e-07
-1.49897e-07
6.76048e-07
-7.6686e-08
1.06592e-06
2.89227e-08
1.57095e-06
1.75213e-07
2.17464e-06
3.66083e-07
2.84334e-06
6.00238e-07
3.53623e-06
8.68451e-07
4.21287e-06
1.1566e-06
4.84119e-06
1.44925e-06
5.40081e-06
1.73323e-06
5.88288e-06
1.99736e-06
6.28864e-06
2.23601e-06
6.62537e-06
2.44812e-06
6.90393e-06
2.63419e-06
7.1353e-06
2.79814e-06
7.32973e-06
2.94399e-06
7.4965e-06
3.07511e-06
7.64308e-06
3.19512e-06
7.77526e-06
3.30693e-06
7.89745e-06
3.4128e-06
8.01287e-06
3.5144e-06
8.12379e-06
3.613e-06
8.23172e-06
3.70946e-06
8.33764e-06
3.80433e-06
8.44217e-06
3.8979e-06
8.54571e-06
3.99032e-06
8.6485e-06
4.08158e-06
8.75071e-06
4.17162e-06
8.85243e-06
4.2603e-06
8.95372e-06
4.34747e-06
9.0546e-06
4.43291e-06
9.15507e-06
4.51641e-06
9.2551e-06
4.59771e-06
9.35466e-06
4.67654e-06
9.45369e-06
4.75258e-06
9.55213e-06
4.82552e-06
9.64989e-06
4.89501e-06
9.74687e-06
4.96066e-06
9.84296e-06
5.02209e-06
9.93805e-06
5.07885e-06
1.0032e-05
5.13048e-06
1.01246e-05
5.17649e-06
1.02158e-05
5.21635e-06
1.03053e-05
5.24949e-06
1.03929e-05
5.2753e-06
1.04785e-05
5.29313e-06
1.05617e-05
5.30227e-06
1.06424e-05
5.30199e-06
1.07201e-05
5.29147e-06
1.07947e-05
5.26985e-06
1.08658e-05
5.23622e-06
1.09329e-05
5.18957e-06
1.09958e-05
5.12886e-06
1.10539e-05
5.05293e-06
1.11069e-05
4.96057e-06
1.11543e-05
4.85046e-06
1.11955e-05
4.72119e-06
1.123e-05
4.57125e-06
1.12572e-05
4.39901e-06
1.12764e-05
4.20272e-06
1.12871e-05
3.9805e-06
1.12885e-05
3.73033e-06
1.12799e-05
3.45004e-06
1.12605e-05
3.1373e-06
1.12295e-05
2.78959e-06
1.11862e-05
2.40425e-06
1.11296e-05
1.97842e-06
1.1059e-05
1.50907e-06
1.0976e-05
9.72924e-07
1.08836e-05
4.29962e-07
1.0783e-05
-7.06567e-08
1.06751e-05
-5.31119e-07
1.05605e-05
-9.53475e-07
1.044e-05
-1.34083e-06
1.03142e-05
-1.69643e-06
1.01838e-05
-2.02242e-06
1.00494e-05
-2.32039e-06
9.91152e-06
-2.59184e-06
9.77045e-06
-2.8382e-06
9.6265e-06
-3.06089e-06
9.4799e-06
-3.26127e-06
9.33123e-06
-3.44064e-06
9.18169e-06
-3.59995e-06
9.03315e-06
-3.73956e-06
8.88688e-06
-3.85923e-06
8.74236e-06
-3.95895e-06
8.59787e-06
-4.04028e-06
8.45255e-06
-4.10618e-06
8.3065e-06
-4.1589e-06
8.15988e-06
-4.19961e-06
8.0128e-06
-4.22942e-06
7.86538e-06
-4.24934e-06
7.71771e-06
-4.26038e-06
7.56988e-06
-4.26347e-06
7.422e-06
-4.2595e-06
7.2742e-06
-4.24934e-06
7.12662e-06
-4.23379e-06
6.97944e-06
-4.21362e-06
6.83283e-06
-4.1895e-06
6.68703e-06
-4.16205e-06
6.54225e-06
-4.1318e-06
6.39876e-06
-4.09922e-06
6.2568e-06
-4.0647e-06
6.11663e-06
-4.02856e-06
5.97849e-06
-3.99106e-06
5.84262e-06
-3.9524e-06
5.70923e-06
-3.91273e-06
5.57852e-06
-3.87216e-06
5.45066e-06
-3.8308e-06
5.3258e-06
-3.78869e-06
5.20405e-06
-3.74588e-06
5.0855e-06
-3.70241e-06
4.97025e-06
-3.65831e-06
4.85833e-06
-3.6136e-06
4.74977e-06
-3.56829e-06
4.6446e-06
-3.52242e-06
4.54279e-06
-3.47601e-06
4.44435e-06
-3.42909e-06
4.34922e-06
-3.38168e-06
4.25738e-06
-3.33382e-06
4.16877e-06
-3.28555e-06
4.08333e-06
-3.23689e-06
4.00099e-06
-3.1879e-06
3.92169e-06
-3.13862e-06
3.84534e-06
-3.08909e-06
3.77187e-06
-3.03935e-06
3.70119e-06
-2.98945e-06
3.63322e-06
-2.93945e-06
3.56788e-06
-2.88938e-06
3.50507e-06
-2.83928e-06
3.44473e-06
-2.78922e-06
3.38675e-06
-2.73923e-06
3.33107e-06
-2.68935e-06
3.27758e-06
-2.63963e-06
3.22622e-06
-2.59011e-06
3.17691e-06
-2.54083e-06
3.12956e-06
-2.49183e-06
3.08409e-06
-2.44314e-06
3.04045e-06
-2.39479e-06
2.99854e-06
-2.34683e-06
2.95832e-06
-2.29927e-06
-2.25216e-06
2.91969e-06
-6.7811e-09
-3.469e-07
-2.64087e-08
-2.52608e-07
-2.78304e-08
-2.70009e-07
-1.35739e-08
-2.70668e-07
1.73508e-08
-2.64237e-07
6.95919e-08
-2.51944e-07
1.50861e-07
-2.31165e-07
2.72249e-07
-1.98073e-07
4.50252e-07
-1.49079e-07
7.06085e-07
-8.06196e-08
1.05858e-06
1.35866e-08
1.51714e-06
1.41684e-07
2.07655e-06
3.09034e-07
2.71576e-06
5.17393e-07
3.40222e-06
7.62789e-07
4.09994e-06
1.03551e-06
4.77461e-06
1.32269e-06
5.39976e-06
1.61086e-06
5.95891e-06
1.88897e-06
6.44516e-06
2.14794e-06
6.86012e-06
2.38318e-06
7.2103e-06
2.5938e-06
7.5049e-06
2.78051e-06
7.75331e-06
2.94671e-06
7.96463e-06
3.09561e-06
8.14736e-06
3.23007e-06
8.30849e-06
3.35328e-06
8.45364e-06
3.46785e-06
8.58726e-06
3.57584e-06
8.71276e-06
3.67884e-06
8.83259e-06
3.77807e-06
8.9485e-06
3.87441e-06
9.06166e-06
3.96842e-06
9.17285e-06
4.06043e-06
9.28258e-06
4.15057e-06
9.3912e-06
4.23885e-06
9.49894e-06
4.32517e-06
9.60595e-06
4.4094e-06
9.71232e-06
4.49133e-06
9.81812e-06
4.57074e-06
9.92335e-06
4.64735e-06
1.0028e-05
4.72087e-06
1.0132e-05
4.79097e-06
1.02354e-05
4.85731e-06
1.0338e-05
4.91951e-06
1.04396e-05
4.97716e-06
1.05403e-05
5.0298e-06
1.06398e-05
5.07698e-06
1.0738e-05
5.11818e-06
1.08346e-05
5.15286e-06
1.09295e-05
5.18042e-06
1.10224e-05
5.20023e-06
1.1113e-05
5.21163e-06
1.12012e-05
5.21388e-06
1.12864e-05
5.2062e-06
1.13685e-05
5.18777e-06
1.1447e-05
5.15768e-06
1.15216e-05
5.11497e-06
1.15919e-05
5.05863e-06
1.16573e-05
4.98753e-06
1.17174e-05
4.90049e-06
1.17716e-05
4.79623e-06
1.18194e-05
4.67339e-06
1.18601e-05
4.53049e-06
1.18932e-05
4.36595e-06
1.19179e-05
4.17805e-06
1.19334e-05
3.96497e-06
1.1939e-05
3.72472e-06
1.19339e-05
3.45518e-06
1.19171e-05
3.15405e-06
1.18878e-05
2.81887e-06
1.18451e-05
2.44699e-06
1.17879e-05
2.0356e-06
1.17153e-05
1.58168e-06
1.16289e-05
1.0593e-06
1.1532e-05
5.26878e-07
1.14258e-05
3.5601e-08
1.13112e-05
-4.16546e-07
1.11891e-05
-8.3141e-07
1.10602e-05
-1.21193e-06
1.09252e-05
-1.56139e-06
1.07847e-05
-1.88192e-06
1.06394e-05
-2.17505e-06
1.04898e-05
-2.44225e-06
1.03365e-05
-2.68489e-06
1.01798e-05
-2.90427e-06
1.00202e-05
-3.10166e-06
9.85789e-06
-3.2783e-06
9.69328e-06
-3.43534e-06
9.52743e-06
-3.57372e-06
9.36202e-06
-3.69383e-06
9.19858e-06
-3.79551e-06
9.0369e-06
-3.8786e-06
8.87533e-06
-3.94461e-06
8.71311e-06
-3.99667e-06
8.55043e-06
-4.03693e-06
8.38749e-06
-4.06648e-06
8.22444e-06
-4.08629e-06
8.06138e-06
-4.09732e-06
7.89842e-06
-4.10051e-06
7.73568e-06
-4.09675e-06
7.57326e-06
-4.08692e-06
7.41131e-06
-4.07185e-06
7.25001e-06
-4.05232e-06
7.08957e-06
-4.02906e-06
6.93022e-06
-4.0027e-06
6.77222e-06
-3.9738e-06
6.61584e-06
-3.94285e-06
6.46137e-06
-3.91023e-06
6.30909e-06
-3.87628e-06
6.15926e-06
-3.84123e-06
6.01213e-06
-3.80527e-06
5.86794e-06
-3.76853e-06
5.72689e-06
-3.73111e-06
5.58915e-06
-3.69306e-06
5.45486e-06
-3.65441e-06
5.32416e-06
-3.61518e-06
5.19713e-06
-3.57538e-06
5.07382e-06
-3.53501e-06
4.95429e-06
-3.49406e-06
4.83855e-06
-3.45255e-06
4.72659e-06
-3.41047e-06
4.6184e-06
-3.36782e-06
4.51395e-06
-3.32463e-06
4.41317e-06
-3.28091e-06
4.31603e-06
-3.23668e-06
4.22244e-06
-3.19196e-06
4.13234e-06
-3.14679e-06
4.04563e-06
-3.1012e-06
3.96224e-06
-3.05523e-06
3.88207e-06
-3.00892e-06
3.80503e-06
-2.96231e-06
3.73102e-06
-2.91544e-06
3.65994e-06
-2.86837e-06
3.5917e-06
-2.82114e-06
3.5262e-06
-2.77378e-06
3.46334e-06
-2.72636e-06
3.40304e-06
-2.67892e-06
3.34518e-06
-2.63149e-06
3.28968e-06
-2.58414e-06
3.23645e-06
-2.53689e-06
3.1854e-06
-2.48978e-06
3.13645e-06
-2.44287e-06
3.0895e-06
-2.39619e-06
3.04449e-06
-2.34978e-06
3.00132e-06
-2.30366e-06
2.95992e-06
-2.25788e-06
-2.21246e-06
2.92022e-06
-5.83686e-09
-3.41059e-07
-2.27596e-08
-2.35682e-07
-3.29399e-08
-2.59834e-07
-3.51602e-08
-2.6845e-07
-2.8483e-08
-2.70914e-07
-1.0466e-08
-2.6996e-07
2.31963e-08
-2.64827e-07
7.84541e-08
-2.53331e-07
1.62141e-07
-2.32766e-07
2.82101e-07
-2.0058e-07
4.49908e-07
-1.5422e-07
6.82332e-07
-9.07391e-08
9.9718e-07
-5.81452e-09
1.40793e-06
1.06646e-07
1.91776e-06
2.52957e-07
2.51642e-06
4.36849e-07
3.18084e-06
6.58271e-07
3.88051e-06
9.11199e-07
4.5833e-06
1.18617e-06
5.25958e-06
1.47166e-06
5.88683e-06
1.75593e-06
6.45107e-06
2.02957e-06
6.9465e-06
2.28508e-06
7.37474e-06
2.51847e-06
7.74148e-06
2.72886e-06
8.05451e-06
2.91704e-06
8.32188e-06
3.08591e-06
8.55174e-06
3.23799e-06
8.75186e-06
3.37572e-06
8.92879e-06
3.5019e-06
9.08803e-06
3.61883e-06
9.23407e-06
3.72837e-06
9.37047e-06
3.83202e-06
9.49993e-06
3.93097e-06
9.62442e-06
4.02608e-06
9.74532e-06
4.11794e-06
9.86361e-06
4.20688e-06
9.97996e-06
4.29306e-06
1.00948e-05
4.37648e-06
1.02085e-05
4.45706e-06
1.03212e-05
4.53463e-06
1.04331e-05
4.60898e-06
1.05442e-05
4.67984e-06
1.06546e-05
4.74693e-06
1.07642e-05
4.8099e-06
1.0873e-05
4.86838e-06
1.09808e-05
4.92197e-06
1.10876e-05
4.97022e-06
1.11931e-05
5.01266e-06
1.12972e-05
5.04876e-06
1.13997e-05
5.07797e-06
1.15002e-05
5.09968e-06
1.15986e-05
5.11324e-06
1.16945e-05
5.11795e-06
1.17877e-05
5.11307e-06
1.18776e-05
5.09779e-06
1.19641e-05
5.07124e-06
1.20466e-05
5.03249e-06
1.21246e-05
4.98056e-06
1.21978e-05
4.91437e-06
1.22655e-05
4.83278e-06
1.23272e-05
4.73454e-06
1.23822e-05
4.61834e-06
1.243e-05
4.48275e-06
1.24697e-05
4.32624e-06
1.25006e-05
4.14714e-06
1.25219e-05
3.94368e-06
1.25327e-05
3.71392e-06
1.25321e-05
3.4558e-06
1.2519e-05
3.16708e-06
1.24926e-05
2.84533e-06
1.24516e-05
2.48797e-06
1.2395e-05
2.09222e-06
1.23216e-05
1.6551e-06
1.2233e-05
1.1479e-06
1.21325e-05
6.27331e-07
1.20215e-05
1.46574e-07
1.19012e-05
-2.96227e-07
1.17725e-05
-7.02687e-07
1.1636e-05
-1.07541e-06
1.14923e-05
-1.41776e-06
1.13423e-05
-1.73189e-06
1.11866e-05
-2.01931e-06
1.10257e-05
-2.28142e-06
1.08604e-05
-2.51955e-06
1.06911e-05
-2.73497e-06
1.05183e-05
-2.92886e-06
1.03424e-05
-3.10237e-06
1.01636e-05
-3.25659e-06
9.98248e-06
-3.39258e-06
9.79984e-06
-3.51119e-06
9.61717e-06
-3.61285e-06
9.43607e-06
-3.6975e-06
9.25652e-06
-3.76506e-06
9.07719e-06
-3.81734e-06
8.89771e-06
-3.85745e-06
8.7183e-06
-3.88707e-06
8.53911e-06
-3.9071e-06
8.36023e-06
-3.91844e-06
8.18173e-06
-3.92201e-06
8.00369e-06
-3.91871e-06
7.82621e-06
-3.90944e-06
7.64943e-06
-3.89507e-06
7.47355e-06
-3.87644e-06
7.29878e-06
-3.85429e-06
7.1254e-06
-3.82932e-06
6.9537e-06
-3.8021e-06
6.78399e-06
-3.77314e-06
6.61659e-06
-3.74284e-06
6.45182e-06
-3.7115e-06
6.28996e-06
-3.67937e-06
6.1313e-06
-3.64661e-06
5.97607e-06
-3.61331e-06
5.82451e-06
-3.57954e-06
5.67677e-06
-3.54532e-06
5.53302e-06
-3.51065e-06
5.39335e-06
-3.47551e-06
5.25785e-06
-3.43988e-06
5.12658e-06
-3.40373e-06
4.99954e-06
-3.36703e-06
4.87676e-06
-3.32976e-06
4.75819e-06
-3.29191e-06
4.64382e-06
-3.25345e-06
4.53358e-06
-3.21439e-06
4.4274e-06
-3.17473e-06
4.32521e-06
-3.13449e-06
4.22692e-06
-3.09367e-06
4.13244e-06
-3.05231e-06
4.04166e-06
-3.01042e-06
3.95449e-06
-2.96805e-06
3.87081e-06
-2.92523e-06
3.79051e-06
-2.88201e-06
3.71348e-06
-2.83842e-06
3.63962e-06
-2.79451e-06
3.5688e-06
-2.75032e-06
3.50092e-06
-2.70591e-06
3.43587e-06
-2.66131e-06
3.37354e-06
-2.61659e-06
3.31383e-06
-2.57178e-06
3.25663e-06
-2.52694e-06
3.20184e-06
-2.4821e-06
3.14937e-06
-2.43731e-06
3.09911e-06
-2.39262e-06
3.05098e-06
-2.34806e-06
3.00488e-06
-2.30368e-06
2.96073e-06
-2.25951e-06
2.91845e-06
-2.21559e-06
-2.17196e-06
2.87795e-06
-5.7063e-09
-3.35352e-07
-2.05042e-08
-2.20879e-07
-3.3635e-08
-2.46702e-07
-4.3544e-08
-2.58542e-07
-4.93487e-08
-2.6511e-07
-4.98401e-08
-2.69469e-07
-4.27862e-08
-2.71881e-07
-2.46047e-08
-2.71512e-07
9.42646e-09
-2.66797e-07
6.46133e-08
-2.55766e-07
1.4667e-07
-2.36276e-07
2.6201e-07
-2.06078e-07
4.19122e-07
-1.62925e-07
6.30289e-07
-1.0452e-07
9.11045e-07
-2.7799e-08
1.27633e-06
7.15629e-08
1.73486e-06
1.99738e-07
2.2849e-06
3.61162e-07
2.91304e-06
5.58028e-07
3.59622e-06
7.88488e-07
4.30613e-06
1.04602e-06
5.01398e-06
1.32172e-06
5.69378e-06
1.60528e-06
6.32587e-06
1.88638e-06
6.89793e-06
2.1568e-06
7.40486e-06
2.41012e-06
7.84808e-06
2.64269e-06
8.23254e-06
2.85353e-06
8.56471e-06
3.04355e-06
8.85151e-06
3.2151e-06
9.10027e-06
3.37007e-06
9.31803e-06
3.51061e-06
9.51097e-06
3.63909e-06
9.68445e-06
3.75748e-06
9.84308e-06
3.86746e-06
9.99059e-06
3.97042e-06
1.01299e-05
4.06753e-06
1.02633e-05
4.15967e-06
1.03924e-05
4.24743e-06
1.05182e-05
4.33119e-06
1.06417e-05
4.41114e-06
1.07634e-05
4.4873e-06
1.08836e-05
4.55961e-06
1.10027e-05
4.6279e-06
1.11206e-05
4.69194e-06
1.12376e-05
4.75144e-06
1.13535e-05
4.80606e-06
1.14683e-05
4.85542e-06
1.15819e-05
4.89908e-06
1.16941e-05
4.93658e-06
1.18046e-05
4.96739e-06
1.19134e-05
4.99093e-06
1.202e-05
5.0066e-06
1.21243e-05
5.01372e-06
1.22258e-05
5.01159e-06
1.23241e-05
4.99942e-06
1.2419e-05
4.97639e-06
1.25098e-05
4.94161e-06
1.25963e-05
4.89412e-06
1.26777e-05
4.8329e-06
1.27537e-05
4.75683e-06
1.28235e-05
4.66474e-06
1.28865e-05
4.55535e-06
1.2942e-05
4.42729e-06
1.29891e-05
4.27907e-06
1.30271e-05
4.10911e-06
1.30551e-05
3.91569e-06
1.30721e-05
3.69694e-06
1.3077e-05
3.45087e-06
1.30688e-05
3.17529e-06
1.30463e-05
2.86787e-06
1.30082e-05
2.52606e-06
1.29533e-05
2.14714e-06
1.28802e-05
1.72819e-06
1.27904e-05
1.23767e-06
1.26874e-05
7.30361e-07
1.25726e-05
2.61394e-07
1.24473e-05
-1.70955e-07
1.23127e-05
-5.68035e-07
1.21692e-05
-9.31945e-07
1.20175e-05
-1.26611e-06
1.18585e-05
-1.57282e-06
1.16927e-05
-1.85355e-06
1.15209e-05
-2.10964e-06
1.13438e-05
-2.34239e-06
1.11618e-05
-2.553e-06
1.09756e-05
-2.74265e-06
1.07856e-05
-2.91241e-06
1.05924e-05
-3.06334e-06
1.03962e-05
-3.19644e-06
1.01977e-05
-3.31266e-06
9.99765e-06
-3.41278e-06
9.79741e-06
-3.49726e-06
9.59844e-06
-3.56609e-06
9.40077e-06
-3.61967e-06
9.20379e-06
-3.66047e-06
9.00741e-06
-3.69068e-06
8.81163e-06
-3.71133e-06
8.61646e-06
-3.72328e-06
8.4219e-06
-3.72745e-06
8.22799e-06
-3.72479e-06
8.03481e-06
-3.71626e-06
7.84251e-06
-3.70278e-06
7.65131e-06
-3.68524e-06
7.46149e-06
-3.66446e-06
7.27335e-06
-3.64118e-06
7.08726e-06
-3.616e-06
6.90357e-06
-3.58945e-06
6.72267e-06
-3.56193e-06
6.5449e-06
-3.53373e-06
6.3706e-06
-3.50507e-06
6.20006e-06
-3.47608e-06
6.03356e-06
-3.44681e-06
5.87131e-06
-3.41729e-06
5.71348e-06
-3.3875e-06
5.56022e-06
-3.35739e-06
5.41163e-06
-3.32692e-06
5.26776e-06
-3.29601e-06
5.12865e-06
-3.26462e-06
4.99431e-06
-3.23269e-06
4.86471e-06
-3.20016e-06
4.7398e-06
-3.167e-06
4.61953e-06
-3.13318e-06
4.50381e-06
-3.09868e-06
4.39256e-06
-3.06349e-06
4.28568e-06
-3.02761e-06
4.18306e-06
-2.99105e-06
4.08458e-06
-2.95382e-06
3.99011e-06
-2.91596e-06
3.89954e-06
-2.87749e-06
3.81275e-06
-2.83844e-06
3.72959e-06
-2.79885e-06
3.64995e-06
-2.75877e-06
3.57369e-06
-2.71825e-06
3.5007e-06
-2.67732e-06
3.43084e-06
-2.63605e-06
3.36399e-06
-2.59447e-06
3.30003e-06
-2.55263e-06
3.23885e-06
-2.5106e-06
3.18032e-06
-2.46841e-06
3.12435e-06
-2.42612e-06
3.07081e-06
-2.38377e-06
3.01961e-06
-2.34142e-06
2.97065e-06
-2.29909e-06
2.92382e-06
-2.25685e-06
2.87903e-06
-2.21472e-06
2.83619e-06
-2.17276e-06
-2.13099e-06
2.79522e-06
-5.54368e-09
-3.29811e-07
-1.8804e-08
-2.07621e-07
-3.19389e-08
-2.33563e-07
-4.35468e-08
-2.46932e-07
-5.33852e-08
-2.55272e-07
-6.09418e-08
-2.61913e-07
-6.53485e-08
-2.67475e-07
-6.50237e-08
-2.71837e-07
-5.73722e-08
-2.74448e-07
-3.88319e-08
-2.74307e-07
-5.11817e-09
-2.6999e-07
4.86242e-08
-2.59821e-07
1.27586e-07
-2.41887e-07
2.37196e-07
-2.14129e-07
3.83929e-07
-1.74532e-07
5.76694e-07
-1.21202e-07
8.27965e-07
-5.15324e-08
1.15163e-06
3.74989e-08
1.55952e-06
1.50131e-07
2.05646e-06
2.91548e-07
2.63725e-06
4.65232e-07
3.28697e-06
6.71999e-07
3.98359e-06
9.0866e-07
4.70093e-06
1.16904e-06
5.41287e-06
1.44486e-06
6.09621e-06
1.72678e-06
6.73338e-06
2.00551e-06
7.31327e-06
2.27364e-06
7.83138e-06
2.52543e-06
8.28901e-06
2.75747e-06
8.69035e-06
2.96873e-06
9.04063e-06
3.16033e-06
9.34584e-06
3.33388e-06
9.61268e-06
3.49065e-06
9.84744e-06
3.6327e-06
1.0056e-05
3.76189e-06
1.02436e-05
3.8799e-06
1.0415e-05
3.98825e-06
1.05742e-05
4.0883e-06
1.07241e-05
4.18122e-06
1.08673e-05
4.26792e-06
1.10056e-05
4.34907e-06
1.11401e-05
4.42508e-06
1.12718e-05
4.49618e-06
1.14014e-05
4.56242e-06
1.1529e-05
4.62374e-06
1.16551e-05
4.67996e-06
1.17797e-05
4.73082e-06
1.19028e-05
4.77599e-06
1.20244e-05
4.81506e-06
1.21442e-05
4.84758e-06
1.22621e-05
4.87303e-06
1.23778e-05
4.89085e-06
1.24911e-05
4.90041e-06
1.26017e-05
4.90103e-06
1.27091e-05
4.89199e-06
1.2813e-05
4.8725e-06
1.29129e-05
4.8417e-06
1.30084e-05
4.79868e-06
1.30988e-05
4.74246e-06
1.31836e-05
4.67199e-06
1.32623e-05
4.58613e-06
1.33339e-05
4.48368e-06
1.33979e-05
4.36331e-06
1.34533e-05
4.22363e-06
1.34994e-05
4.0631e-06
1.3535e-05
3.88008e-06
1.35591e-05
3.6728e-06
1.35706e-05
3.43934e-06
1.35683e-05
3.17761e-06
1.35508e-05
2.88534e-06
1.35168e-05
2.5601e-06
1.34647e-05
2.19922e-06
1.33931e-05
1.79983e-06
1.33032e-05
1.32756e-06
1.31985e-05
8.35069e-07
1.30806e-05
3.7931e-07
1.2951e-05
-4.13611e-08
1.2811e-05
-4.28037e-07
1.26612e-05
-7.82126e-07
1.2502e-05
-1.10699e-06
1.23344e-05
-1.40515e-06
1.21589e-05
-1.67808e-06
1.19764e-05
-1.92711e-06
1.17874e-05
-2.15345e-06
1.15927e-05
-2.35831e-06
1.13929e-05
-2.54281e-06
1.11885e-05
-2.70802e-06
1.09802e-05
-2.85498e-06
1.07684e-05
-2.98471e-06
1.05539e-05
-3.09815e-06
1.03373e-05
-3.19618e-06
1.01196e-05
-3.27954e-06
9.90211e-06
-3.34861e-06
9.68599e-06
-3.40355e-06
9.47126e-06
-3.44575e-06
9.25762e-06
-3.47704e-06
9.04485e-06
-3.49855e-06
8.8328e-06
-3.51123e-06
8.62142e-06
-3.51607e-06
8.41073e-06
-3.5141e-06
8.20084e-06
-3.50637e-06
7.99197e-06
-3.4939e-06
7.78439e-06
-3.47766e-06
7.57847e-06
-3.45854e-06
7.37461e-06
-3.43732e-06
7.17324e-06
-3.41464e-06
6.97481e-06
-3.39103e-06
6.77976e-06
-3.36687e-06
6.58848e-06
-3.34245e-06
6.40134e-06
-3.31794e-06
6.21866e-06
-3.2934e-06
6.04072e-06
-3.26886e-06
5.86772e-06
-3.24429e-06
5.69983e-06
-3.21961e-06
5.53718e-06
-3.19474e-06
5.37984e-06
-3.16957e-06
5.22784e-06
-3.14402e-06
5.0812e-06
-3.11798e-06
4.93988e-06
-3.09137e-06
4.80383e-06
-3.06411e-06
4.67298e-06
-3.03615e-06
4.54724e-06
-3.00744e-06
4.4265e-06
-2.97794e-06
4.31064e-06
-2.94763e-06
4.19954e-06
-2.9165e-06
4.09305e-06
-2.88456e-06
3.99105e-06
-2.85182e-06
3.89338e-06
-2.81829e-06
3.79991e-06
-2.78401e-06
3.71048e-06
-2.74901e-06
3.62494e-06
-2.71332e-06
3.54316e-06
-2.67699e-06
3.46498e-06
-2.64007e-06
3.39027e-06
-2.60261e-06
3.31888e-06
-2.56466e-06
3.25068e-06
-2.52627e-06
3.18554e-06
-2.48749e-06
3.12332e-06
-2.44838e-06
3.06389e-06
-2.40899e-06
3.00715e-06
-2.36937e-06
2.95296e-06
-2.32959e-06
2.90121e-06
-2.28967e-06
2.8518e-06
-2.24968e-06
2.80462e-06
-2.20967e-06
2.75956e-06
-2.16967e-06
2.71653e-06
-2.12973e-06
-2.08989e-06
2.67544e-06
-4.97508e-09
-3.24837e-07
-1.62882e-08
-1.9631e-07
-2.77277e-08
-2.22122e-07
-3.82986e-08
-2.36358e-07
-4.79825e-08
-2.45588e-07
-5.66617e-08
-2.53234e-07
-6.40407e-08
-2.60096e-07
-6.95605e-08
-2.66317e-07
-7.22192e-08
-2.7179e-07
-7.03441e-08
-2.76182e-07
-6.14511e-08
-2.78884e-07
-4.22796e-08
-2.78993e-07
-8.88826e-09
-2.75279e-07
4.32391e-08
-2.66257e-07
1.18877e-07
-2.5017e-07
2.22748e-07
-2.25074e-07
3.60261e-07
-1.89045e-07
5.3806e-07
-1.403e-07
7.65158e-07
-7.69665e-08
1.05324e-06
3.4611e-09
1.41456e-06
1.03912e-07
1.85788e-06
2.28678e-07
2.3849e-06
3.81641e-07
2.98841e-06
5.65536e-07
3.653e-06
7.80261e-07
4.35782e-06
1.02196e-06
5.07862e-06
1.28471e-06
5.79148e-06
1.56078e-06
6.47543e-06
1.84147e-06
7.11466e-06
2.11824e-06
7.69927e-06
2.38412e-06
8.22575e-06
2.63384e-06
8.69539e-06
2.86424e-06
9.11152e-06
3.07451e-06
9.47821e-06
3.26601e-06
9.80068e-06
3.43941e-06
1.00849e-05
3.59571e-06
1.03365e-05
3.73659e-06
1.05612e-05
3.86362e-06
1.07641e-05
3.97832e-06
1.09499e-05
4.08216e-06
1.11224e-05
4.17651e-06
1.1285e-05
4.26254e-06
1.14399e-05
4.3412e-06
1.15892e-05
4.41317e-06
1.1734e-05
4.47891e-06
1.18754e-05
4.53863e-06
1.20138e-05
4.59239e-06
1.21497e-05
4.64009e-06
1.22832e-05
4.68151e-06
1.24145e-05
4.71631e-06
1.25434e-05
4.7441e-06
1.26699e-05
4.76439e-06
1.27937e-05
4.77662e-06
1.29145e-05
4.78019e-06
1.30321e-05
4.77442e-06
1.3146e-05
4.75856e-06
1.32559e-05
4.73183e-06
1.33612e-05
4.69336e-06
1.34614e-05
4.64223e-06
1.3556e-05
4.57744e-06
1.36442e-05
4.49792e-06
1.37254e-05
4.40252e-06
1.37987e-05
4.29e-06
1.38633e-05
4.15903e-06
1.39182e-05
4.00818e-06
1.39624e-05
3.8359e-06
1.39947e-05
3.64049e-06
1.40139e-05
3.42016e-06
1.40186e-05
3.17292e-06
1.40073e-05
2.89662e-06
1.39785e-05
2.58891e-06
1.39304e-05
2.24725e-06
1.38614e-05
1.86885e-06
1.37725e-05
1.41651e-06
1.3667e-05
9.40571e-07
1.35466e-05
4.99672e-07
1.34131e-05
9.21552e-08
1.3268e-05
-2.82987e-07
1.31124e-05
-6.26501e-07
1.29463e-05
-9.40931e-07
1.27704e-05
-1.2292e-06
1.25854e-05
-1.49306e-06
1.23921e-05
-1.73382e-06
1.21913e-05
-1.95265e-06
1.19837e-05
-2.15069e-06
1.17699e-05
-2.32905e-06
1.15507e-05
-2.48882e-06
1.13268e-05
-2.63111e-06
1.10991e-05
-2.75696e-06
1.08683e-05
-2.8674e-06
1.06355e-05
-2.96331e-06
1.04014e-05
-3.04544e-06
1.01671e-05
-3.11431e-06
9.93372e-06
-3.17019e-06
9.70162e-06
-3.21365e-06
9.47047e-06
-3.24589e-06
9.23995e-06
-3.26804e-06
9.00993e-06
-3.2812e-06
8.78038e-06
-3.28652e-06
8.55142e-06
-3.28514e-06
8.32329e-06
-3.27824e-06
8.09632e-06
-3.26693e-06
7.87093e-06
-3.25228e-06
7.64762e-06
-3.23523e-06
7.42689e-06
-3.2166e-06
7.20931e-06
-3.19705e-06
6.99538e-06
-3.1771e-06
6.7856e-06
-3.15709e-06
6.58041e-06
-3.13727e-06
6.3802e-06
-3.11773e-06
6.1853e-06
-3.0985e-06
5.99596e-06
-3.07952e-06
5.81237e-06
-3.06071e-06
5.63469e-06
-3.04193e-06
5.46299e-06
-3.02304e-06
5.29731e-06
-3.0039e-06
5.13765e-06
-2.98436e-06
4.98399e-06
-2.96431e-06
4.83624e-06
-2.94362e-06
4.69433e-06
-2.9222e-06
4.55813e-06
-2.89996e-06
4.42753e-06
-2.87684e-06
4.30239e-06
-2.85279e-06
4.18254e-06
-2.82778e-06
4.06784e-06
-2.8018e-06
3.95813e-06
-2.77485e-06
3.85323e-06
-2.74692e-06
3.75297e-06
-2.71804e-06
3.6572e-06
-2.68824e-06
3.56574e-06
-2.65754e-06
3.47842e-06
-2.626e-06
3.39507e-06
-2.59365e-06
3.31555e-06
-2.56055e-06
3.23968e-06
-2.52674e-06
3.16731e-06
-2.49229e-06
3.0983e-06
-2.45725e-06
3.03248e-06
-2.42168e-06
2.96973e-06
-2.38563e-06
2.9099e-06
-2.34916e-06
2.85287e-06
-2.31234e-06
2.79849e-06
-2.27521e-06
2.74666e-06
-2.23784e-06
2.69725e-06
-2.20027e-06
2.65015e-06
-2.16256e-06
2.60524e-06
-2.12476e-06
2.56243e-06
-2.08692e-06
-2.04907e-06
2.52161e-06
-4.30372e-09
-3.20533e-07
-1.3529e-08
-1.87084e-07
-2.27332e-08
-2.1292e-07
-3.13732e-08
-2.27717e-07
-3.9535e-08
-2.37424e-07
-4.72226e-08
-2.45545e-07
-5.43395e-08
-2.52978e-07
-6.06847e-08
-2.59972e-07
-6.5905e-08
-2.6657e-07
-6.93867e-08
-2.727e-07
-7.00936e-08
-2.78176e-07
-6.64419e-08
-2.82644e-07
-5.61773e-08
-2.85544e-07
-3.6348e-08
-2.86087e-07
-3.32586e-09
-2.83192e-07
4.71236e-08
-2.75523e-07
1.19533e-07
-2.61455e-07
2.18375e-07
-2.39141e-07
3.48097e-07
-2.06687e-07
5.13848e-07
-1.6229e-07
7.22178e-07
-1.04418e-07
9.81792e-07
-3.09377e-08
1.30312e-06
6.03079e-08
1.69672e-06
1.71936e-07
2.16881e-06
3.08179e-07
2.71857e-06
4.722e-07
3.33753e-06
6.65748e-07
4.01054e-06
8.87769e-07
4.71781e-06
1.13421e-06
5.43679e-06
1.39925e-06
6.14552e-06
1.6754e-06
6.82527e-06
1.9541e-06
7.46206e-06
2.22745e-06
8.0475e-06
2.48907e-06
8.57957e-06
2.73395e-06
9.05932e-06
2.95966e-06
9.48889e-06
3.16615e-06
9.87147e-06
3.35401e-06
1.02117e-05
3.52341e-06
1.05144e-05
3.67557e-06
1.07848e-05
3.81176e-06
1.1028e-05
3.93334e-06
1.12488e-05
4.04173e-06
1.14516e-05
4.13835e-06
1.16403e-05
4.22451e-06
1.18179e-05
4.30136e-06
1.19867e-05
4.3698e-06
1.21486e-05
4.43045e-06
1.2305e-05
4.48372e-06
1.24567e-05
4.52978e-06
1.26044e-05
4.56862e-06
1.27484e-05
4.60008e-06
1.28889e-05
4.62387e-06
1.3026e-05
4.63958e-06
1.31595e-05
4.64671e-06
1.32892e-05
4.64468e-06
1.34149e-05
4.63285e-06
1.35363e-05
4.6105e-06
1.36528e-05
4.57683e-06
1.37641e-05
4.53098e-06
1.38694e-05
4.47205e-06
1.39683e-05
4.39902e-06
1.406e-05
4.31083e-06
1.41437e-05
4.20632e-06
1.42185e-05
4.08427e-06
1.42833e-05
3.94334e-06
1.43371e-05
3.78207e-06
1.43787e-05
3.59891e-06
1.44067e-05
3.39217e-06
1.44196e-05
3.16002e-06
1.44158e-05
2.90044e-06
1.43935e-05
2.61122e-06
1.43508e-05
2.28994e-06
1.42857e-05
1.93396e-06
1.41988e-05
1.50334e-06
1.40935e-05
1.0459e-06
1.39714e-05
6.218e-07
1.38342e-05
2.29309e-07
1.3684e-05
-1.32808e-07
1.35225e-05
-4.6497e-07
1.33496e-05
-7.6807e-07
1.31655e-05
-1.04507e-06
1.29709e-05
-1.2985e-06
1.27668e-05
-1.5297e-06
1.2554e-05
-1.73978e-06
1.23331e-05
-1.92985e-06
1.21051e-05
-2.10107e-06
1.18709e-05
-2.25462e-06
1.16315e-05
-2.3917e-06
1.1388e-05
-2.51346e-06
1.11416e-05
-2.62092e-06
1.08932e-05
-2.71496e-06
1.06438e-05
-2.79605e-06
1.03939e-05
-2.86443e-06
1.01441e-05
-2.92037e-06
9.89435e-06
-2.9639e-06
9.64453e-06
-2.99607e-06
9.39461e-06
-3.01812e-06
9.14468e-06
-3.03127e-06
8.89494e-06
-3.03678e-06
8.64574e-06
-3.03594e-06
8.3975e-06
-3.03e-06
8.15076e-06
-3.02019e-06
7.90613e-06
-3.00764e-06
7.66424e-06
-2.99334e-06
7.42575e-06
-2.97811e-06
7.1913e-06
-2.96259e-06
6.96146e-06
-2.94726e-06
6.73678e-06
-2.93241e-06
6.51771e-06
-2.9182e-06
6.30463e-06
-2.90465e-06
6.09785e-06
-2.89171e-06
5.89758e-06
-2.87925e-06
5.70398e-06
-2.86711e-06
5.51715e-06
-2.85509e-06
5.33712e-06
-2.843e-06
5.16387e-06
-2.83065e-06
4.99736e-06
-2.81785e-06
4.83749e-06
-2.80445e-06
4.68416e-06
-2.79029e-06
4.53723e-06
-2.77527e-06
4.39655e-06
-2.75927e-06
4.26194e-06
-2.74223e-06
4.13324e-06
-2.72408e-06
4.01024e-06
-2.70479e-06
3.89277e-06
-2.68433e-06
3.78063e-06
-2.6627e-06
3.67362e-06
-2.63991e-06
3.57155e-06
-2.61597e-06
3.47423e-06
-2.59091e-06
3.38146e-06
-2.56477e-06
3.29306e-06
-2.5376e-06
3.20883e-06
-2.50943e-06
3.12862e-06
-2.48033e-06
3.05223e-06
-2.45035e-06
2.97949e-06
-2.41956e-06
2.91026e-06
-2.38801e-06
2.84435e-06
-2.35577e-06
2.78163e-06
-2.3229e-06
2.72194e-06
-2.28947e-06
2.66514e-06
-2.25554e-06
2.61109e-06
-2.22116e-06
2.55966e-06
-2.18641e-06
2.51072e-06
-2.15133e-06
2.46416e-06
-2.116e-06
2.41985e-06
-2.08045e-06
2.37768e-06
-2.04475e-06
-2.00895e-06
2.33756e-06
-3.71988e-09
-3.16811e-07
-1.10458e-08
-1.79757e-07
-1.80897e-08
-2.05883e-07
-2.47248e-08
-2.21087e-07
-3.10929e-08
-2.31058e-07
-3.72499e-08
-2.39388e-07
-4.31744e-08
-2.47054e-07
-4.87864e-08
-2.5436e-07
-5.39446e-08
-2.61412e-07
-5.8422e-08
-2.68223e-07
-6.18494e-08
-2.74749e-07
-6.36109e-08
-2.80882e-07
-6.2728e-08
-2.86426e-07
-5.77684e-08
-2.91046e-07
-4.67142e-08
-2.94246e-07
-2.6895e-08
-2.95343e-07
5.02589e-09
-2.93376e-07
5.30222e-08