/*--------------------------------*- C++ -*----------------------------------*\
  =========                 |
  \\      /  F ield         | OpenFOAM: The Open Source CFD Toolbox
   \\    /   O peration     | Website:  https://openfoam.org
    \\  /    A nd           | Version:  10
     \\/     M anipulation  |
\*---------------------------------------------------------------------------*/
FoamFile
{
    format      ascii;
    class       volVectorField;
    location    "80000";
    object      U;
}
// * * * * * * * * * * * * * * * * * * * * * * * * * * * * * * * * * * * * * //

dimensions      [0 1 -1 0 0 0 0];

internalField   nonuniform List<vector> 
71680
(
(0.0986497 1.52586 0)
(-0.0371545 1.56199 0)
(-0.0195248 1.59066 -4.09487e-18)
(-0.0151921 1.62152 5.2671e-18)
(-0.00911045 1.65781 -2.08666e-18)
(0.00155148 1.70501 -1.87501e-18)
(0.0187474 1.77029 1.64529e-18)
(0.0429597 1.85571 0)
(0.0726183 1.95495 7.26307e-20)
(0.105619 2.05846 0)
(0.139418 2.15728 0)
(0.171748 2.24515 0)
(0.201066 2.31911 0)
(0.226014 2.37805 -4.88963e-19)
(0.24655 2.42376 4.65046e-19)
(0.263209 2.45899 0)
(0.276329 2.48612 -3.61765e-19)
(0.286543 2.50738 3.31965e-19)
(0.294571 2.52448 -3.02076e-19)
(0.30097 2.5387 2.77097e-19)
(0.306182 2.55096 0)
(0.310552 2.56191 0)
(0.314331 2.57199 -2.64864e-20)
(0.317696 2.58146 0)
(0.320768 2.59049 0)
(0.323624 2.59918 1.65304e-19)
(0.326313 2.60759 -3.08038e-19)
(0.328862 2.61577 1.44123e-19)
(0.331288 2.62375 1.342e-19)
(0.333601 2.63156 -1.66555e-20)
(0.335807 2.63922 -1.49753e-19)
(0.337907 2.64675 0)
(0.339903 2.65416 1.06989e-19)
(0.341793 2.66147 -2.3007e-19)
(0.343577 2.66869 7.45187e-22)
(0.345251 2.67583 1.86655e-19)
(0.346813 2.68291 -8.9814e-20)
(0.348261 2.68993 -1.0703e-19)
(0.34959 2.6969 6.22471e-20)
(0.350796 2.70384 0)
(0.351877 2.71075 1.92171e-20)
(0.352827 2.71766 1.85495e-20)
(0.353644 2.72456 1.42238e-19)
(0.354322 2.73146 -1.39013e-19)
(0.354857 2.73839 -1.3305e-19)
(0.355245 2.74535 -3.09704e-20)
(0.355481 2.75234 1.26331e-19)
(0.355561 2.75939 1.20957e-19)
(0.355478 2.76649 -1.57157e-21)
(0.355228 2.77367 -1.15368e-19)
(0.354806 2.78093 -1.38301e-19)
(0.354205 2.78827 1.35879e-19)
(0.35342 2.79572 0)
(0.352444 2.80327 0)
(0.351271 2.81095 2.48237e-20)
(0.349895 2.81875 1.43445e-19)
(0.348308 2.82668 -9.42243e-20)
(0.346502 2.83476 0)
(0.344472 2.84298 0)
(0.342208 2.85137 4.16133e-20)
(0.339703 2.85992 -8.39484e-20)
(0.336949 2.86864 0)
(0.333936 2.87754 0)
(0.330658 2.88663 -3.80558e-20)
(0.327105 2.8959 -7.23439e-20)
(0.323268 2.90536 3.79089e-20)
(0.31914 2.91503 6.99284e-20)
(0.314711 2.92489 0)
(0.309973 2.93495 0)
(0.304919 2.94523 0)
(0.299541 2.95571 5.85618e-20)
(0.293832 2.9664 -4.2744e-21)
(0.287785 2.9773 -1.13456e-19)
(0.281396 2.98842 0)
(0.274754 2.9996 5.04272e-20)
(0.26806 3.01054 4.73565e-20)
(0.261427 3.02111 -4.39911e-20)
(0.254863 3.03132 0)
(0.248384 3.04122 0)
(0.242 3.05077 0)
(0.235702 3.05994 0)
(0.229508 3.06871 0)
(0.223425 3.07711 5.32963e-20)
(0.21745 3.08517 -8.9118e-20)
(0.211581 3.09291 6.04964e-20)
(0.205812 3.10033 -1.07979e-20)
(0.200146 3.10748 0)
(0.194597 3.11442 0)
(0.189201 3.12128 0)
(0.183999 3.12824 -1.85664e-20)
(0.17899 3.13533 2.47158e-20)
(0.174107 3.14244 1.90722e-20)
(0.169316 3.14947 -1.88489e-20)
(0.164607 3.15642 1.37948e-20)
(0.159979 3.16327 -2.65736e-20)
(0.155429 3.17003 9.91846e-21)
(0.150953 3.17667 0)
(0.146549 3.18319 -4.73341e-21)
(0.142214 3.18956 4.66506e-21)
(0.137947 3.19578 2.4702e-22)
(0.133741 3.20182 8.47274e-22)
(0.129601 3.20765 -8.51588e-22)
(0.125529 3.21326 0)
(0.121522 3.21863 -5.41732e-21)
(0.117581 3.22372 1.197e-20)
(0.113708 3.22853 -6.50657e-21)
(0.109905 3.23303 0)
(0.106175 3.2372 5.668e-22)
(0.102521 3.24104 0)
(0.0989454 3.24455 0)
(0.0954516 3.24771 -6.98576e-22)
(0.0920424 3.25052 1.28949e-20)
(0.08872 3.253 -1.16889e-20)
(0.0854867 3.25514 0)
(0.0823441 3.25696 0)
(0.0792937 3.25846 0)
(0.0763362 3.25967 0)
(0.073472 3.26059 -1.32071e-20)
(0.0707013 3.26124 1.26529e-20)
(0.0680235 3.26163 2.62557e-20)
(0.0654379 3.26179 -2.4759e-20)
(0.0629436 3.26173 -3.96837e-22)
(0.0605391 3.26146 0)
(0.0582229 3.26099 0)
(0.0559931 3.26036 2.49168e-20)
(0.0538479 3.25956 -2.35355e-20)
(0.0517851 3.25862 2.4163e-20)
(0.0498025 3.25754 -2.32098e-20)
(0.0478978 3.25634 -3.60807e-22)
(0.0460687 3.25503 0)
(0.0443127 3.25363 1.74011e-22)
(0.0426275 3.25214 -1.70734e-22)
(0.0410106 3.25057 -1.67425e-22)
(0.0394595 3.24894 2.10094e-20)
(0.037972 3.24724 -2.02358e-20)
(0.0365457 3.2455 -1.57425e-22)
(0.0351781 3.24371 0)
(0.0338671 3.24189 0)
(0.0326104 3.24004 1.4751e-22)
(0.0314059 3.23817 -1.87132e-20)
(0.0302513 3.23627 -8.37045e-23)
(0.0291448 3.23437 1.73848e-20)
(0.0280842 3.23245 6.73492e-23)
(0.0270676 3.23053 0)
(0.0260933 3.22861 0)
(0.0251593 3.22669 0)
(0.024264 3.22478 0)
(0.0234058 3.22288 -1.55306e-20)
(0.0730193 1.53181 0)
(-0.0779136 1.56604 -1.84385e-17)
(-0.0572881 1.58101 9.92822e-18)
(-0.0557238 1.59921 1.85136e-19)
(-0.053892 1.62019 8.55032e-18)
(-0.0500899 1.64547 -1.44201e-17)
(-0.0433898 1.6774 6.63746e-18)
(-0.0329638 1.71896 6.13724e-18)
(-0.0175194 1.77432 -5.80789e-18)
(0.00379953 1.84597 -5.22229e-18)
(0.0303359 1.93105 1.04264e-20)
(0.0607307 2.02338 3.68009e-18)
(0.0931623 2.11607 0)
(0.125551 2.20307 0)
(0.156148 2.28015 -2.30277e-18)
(0.183827 2.34542 2.02709e-18)
(0.207479 2.39823 0)
(0.227183 2.44011 -1.55689e-18)
(0.243431 2.47321 1.48265e-18)
(0.256428 2.49933 0)
(0.266714 2.52025 -1.21907e-18)
(0.274897 2.53736 1.05997e-18)
(0.281456 2.55171 3.24709e-20)
(0.286793 2.56414 0)
(0.291225 2.57524 8.83598e-19)
(0.294998 2.58544 -5.56394e-20)
(0.298292 2.59502 -1.51352e-18)
(0.301236 2.60415 7.03671e-19)
(0.303916 2.61295 -4.08622e-20)
(0.30639 2.62149 6.25511e-19)
(0.308692 2.62982 -5.35654e-19)
(0.310844 2.63797 0)
(0.312859 2.64597 4.38548e-19)
(0.314745 2.65385 -3.88027e-19)
(0.316506 2.66161 0)
(0.318144 2.66927 5.36395e-20)
(0.31966 2.67686 -5.10859e-20)
(0.321052 2.68438 -3.63172e-19)
(0.322319 2.69184 7.67451e-19)
(0.323458 2.69926 -4.79501e-20)
(0.324467 2.70665 -3.65197e-19)
(0.325342 2.71402 -3.89093e-19)
(0.326078 2.72138 6.33276e-19)
(0.326673 2.72874 -6.86779e-19)
(0.327119 2.73612 5.88708e-19)
(0.327414 2.74352 -2.50449e-19)
(0.327551 2.75096 2.73011e-19)
(0.327524 2.75844 -5.979e-19)
(0.327328 2.76599 5.14115e-19)
(0.326955 2.7736 -4.97791e-19)
(0.326401 2.78128 2.12377e-19)
(0.325656 2.78906 -2.91073e-20)
(0.324715 2.79694 0)
(0.323568 2.80492 0)
(0.32221 2.81302 -2.65289e-20)
(0.32063 2.82125 -5.14602e-20)
(0.318821 2.82961 1.98546e-19)
(0.316774 2.83812 -2.93997e-19)
(0.314479 2.84678 -3.73285e-19)
(0.311927 2.8556 5.35357e-20)
(0.309108 2.86459 3.58853e-19)
(0.306011 2.87375 4.26173e-19)
(0.302628 2.88309 -4.21358e-19)
(0.298946 2.89262 4.01773e-20)
(0.294956 2.90234 0)
(0.290646 2.91225 3.84301e-20)
(0.286006 2.92236 2.87993e-19)
(0.281024 2.93267 -2.87757e-19)
(0.275691 2.94319 -1.37404e-19)
(0.269995 2.95391 -1.25814e-19)
(0.263926 2.96485 2.59297e-19)
(0.257476 2.97598 1.83761e-19)
(0.250635 2.98733 2.29221e-19)
(0.243395 2.9989 -2.30277e-19)
(0.235857 3.01051 -5.28067e-20)
(0.228249 3.02186 -4.96287e-20)
(0.2207 3.03281 4.62359e-20)
(0.213219 3.04339 8.66585e-20)
(0.205832 3.05365 2.34263e-19)
(0.198542 3.06354 -9.52468e-21)
(0.191341 3.07303 -1.42795e-19)
(0.18425 3.08211 -3.24525e-20)
(0.177276 3.09081 0)
(0.170421 3.09917 1.41618e-20)
(0.163683 3.1072 -1.25397e-20)
(0.157061 3.11493 1.14688e-20)
(0.150552 3.12239 0)
(0.144152 3.12958 0)
(0.137872 3.13659 -1.28957e-19)
(0.131741 3.14353 5.2261e-21)
(0.125795 3.15057 1.0903e-19)
(0.120056 3.1578 0)
(0.114457 3.16511 0)
(0.108951 3.17234 6.03635e-20)
(0.103539 3.17949 -1.07867e-19)
(0.0982189 3.18654 5.35132e-20)
(0.092988 3.19349 0)
(0.0878447 3.20032 0)
(0.082787 3.20701 -1.20311e-20)
(0.0778138 3.21355 6.88425e-21)
(0.0729239 3.21992 -5.06914e-21)
(0.0681167 3.22609 0)
(0.0633926 3.23204 -1.50081e-20)
(0.0587527 3.23773 3.70498e-20)
(0.0541985 3.24314 -2.11183e-20)
(0.0497327 3.24825 3.19273e-20)
(0.045358 3.25304 -3.09591e-20)
(0.041078 3.25748 5.68129e-22)
(0.0368961 3.26157 1.2682e-21)
(0.0328158 3.26528 -4.60069e-20)
(0.0288404 3.26863 9.18506e-20)
(0.024973 3.2716 -4.71604e-20)
(0.0212161 3.27419 0)
(0.0175718 3.27643 1.5914e-21)
(0.0140415 3.27831 -5.35377e-20)
(0.0106262 3.27984 5.12763e-20)
(0.00732627 3.28105 5.43555e-20)
(0.00414142 3.28195 -5.20389e-20)
(0.00107098 3.28255 8.30424e-22)
(-0.00188622 3.28287 0)
(-0.00473172 3.28294 -4.12736e-22)
(-0.00746744 3.28276 5.36585e-20)
(-0.0100956 3.28236 -5.02211e-20)
(-0.0126187 3.28175 5.28382e-20)
(-0.0150393 3.28095 -1.01244e-19)
(-0.0173603 3.27998 4.88665e-20)
(-0.0195846 3.27885 -4.97855e-20)
(-0.0217153 3.27758 4.78148e-20)
(-0.0237555 3.27618 3.71658e-22)
(-0.0257083 3.27467 0)
(-0.0275767 3.27305 1.7947e-22)
(-0.0293641 3.27134 1.75845e-22)
(-0.0310734 3.26955 -4.43919e-20)
(-0.0327077 3.26769 4.30827e-20)
(-0.0342701 3.26577 -4.97179e-22)
(-0.0357634 3.2638 4.20272e-20)
(-0.0371906 3.26178 -4.03609e-20)
(-0.0385543 3.25973 0)
(-0.0398575 3.25765 3.90524e-20)
(-0.0411026 3.25555 -7.57212e-20)
(-0.0422923 3.25343 3.65686e-20)
(-0.043429 3.25129 -3.64793e-20)
(-0.044515 3.24916 -6.17637e-22)
(-0.0455527 3.24702 3.44356e-20)
(-0.0465442 3.24488 0)
(-0.0474916 3.24274 0)
(-0.0483971 3.24062 1.26683e-22)
(-0.0492624 3.23851 -6.25993e-23)
(0.0455224 1.53681 4.06515e-17)
(-0.116746 1.57223 -4.49817e-17)
(-0.0928195 1.57732 5.27622e-17)
(-0.0926051 1.58791 -1.58242e-17)
(-0.0923991 1.60111 3.22695e-19)
(-0.0912134 1.6169 0)
(-0.0888361 1.63642 2.31107e-19)
(-0.0848666 1.66092 0)
(-0.0785195 1.69129 0)
(-0.0692017 1.72861 3.49635e-19)
(-0.0558971 1.77577 1.62285e-19)
(-0.0375171 1.83593 0)
(-0.0141595 1.90863 0)
(0.0133957 1.9904 2.24847e-19)
(0.0438766 2.07602 -3.0801e-18)
(0.0756724 2.16025 2.40783e-18)
(0.107019 2.2386 -2.14731e-18)
(0.136496 2.30793 2.00437e-18)
(0.163189 2.36699 -5.465e-20)
(0.186177 2.41548 -1.6527e-18)
(0.205563 2.45471 1.33871e-18)
(0.221769 2.48637 1.65139e-19)
(0.23493 2.51187 7.68736e-20)
(0.245501 2.5327 0)
(0.253997 2.55001 0)
(0.260845 2.56469 1.04703e-18)
(0.26641 2.57747 -8.05969e-19)
(0.270993 2.5889 -1.06968e-19)
(0.274832 2.5994 -6.42526e-19)
(0.278113 2.60924 7.41036e-19)
(0.280974 2.61862 0)
(0.28351 2.62767 0)
(0.28579 2.63645 7.50243e-20)
(0.287855 2.64502 1.0544e-18)
(0.289735 2.65343 -2.12375e-18)
(0.291448 2.6617 9.43004e-19)
(0.293004 2.66985 5.90514e-20)
(0.294411 2.67791 -1.12571e-19)
(0.295674 2.6859 1.0699e-19)
(0.296794 2.69382 5.06708e-20)
(0.297771 2.7017 0)
(0.298604 2.70955 4.62414e-20)
(0.299291 2.71738 8.91197e-20)
(0.299828 2.7252 -5.93293e-19)
(0.300211 2.73304 7.19781e-21)
(0.300435 2.74089 7.12834e-19)
(0.300495 2.74877 0)
(0.300384 2.7567 -4.97212e-22)
(0.300096 2.76469 -1.41636e-19)
(0.299623 2.77274 0)
(0.298957 2.78087 6.56057e-20)
(0.298091 2.78908 -5.05464e-19)
(0.297015 2.7974 4.96389e-19)
(0.295721 2.80583 0)
(0.294199 2.81437 1.15846e-19)
(0.29244 2.82304 0)
(0.290432 2.83186 -1.0866e-19)
(0.288167 2.84081 -4.15943e-19)
(0.285632 2.84993 4.1014e-19)
(0.282816 2.85921 9.87804e-20)
(0.279708 2.86865 0)
(0.276296 2.87828 -4.56131e-19)
(0.272567 2.88809 9.82357e-19)
(0.268509 2.89809 -9.25374e-21)
(0.264107 2.90828 -1.77557e-19)
(0.259351 2.91867 -9.01075e-20)
(0.254225 2.92927 -6.24819e-19)
(0.248716 2.94007 1.02552e-20)
(0.242811 2.95107 5.87701e-19)
(0.236498 2.96228 1.74273e-21)
(0.229762 2.97371 0)
(0.222591 2.98533 3.7945e-19)
(0.214973 2.99717 1.01819e-19)
(0.206898 3.00922 -4.89853e-19)
(0.198477 3.0213 0)
(0.189963 3.0331 0)
(0.181501 3.04447 -1.00424e-19)
(0.173103 3.05545 2.65996e-19)
(0.164801 3.06609 -7.66881e-19)
(0.1566 3.07636 6.36638e-19)
(0.148486 3.08621 -3.82785e-19)
(0.140485 3.09564 -2.33905e-19)
(0.132605 3.10468 2.67419e-19)
(0.124846 3.11336 -2.59633e-19)
(0.117211 3.12171 4.40136e-19)
(0.109701 3.12976 -2.09896e-19)
(0.102315 3.13754 1.75836e-19)
(0.0950493 3.14507 -3.32673e-19)
(0.0878999 3.15238 1.45033e-20)
(0.0808728 3.15951 1.37727e-20)
(0.0739877 3.16659 1.36552e-19)
(0.0672747 3.17378 0)
(0.0607723 3.18121 7.86428e-20)
(0.0544205 3.18873 -1.43487e-19)
(0.0481634 3.19618 2.6892e-21)
(0.042016 3.20353 6.92649e-21)
(0.0359768 3.21078 4.48709e-21)
(0.030043 3.21792 5.30182e-21)
(0.0242132 3.22493 2.05321e-20)
(0.0184864 3.23179 6.50736e-22)
(0.0128616 3.23848 0)
(0.00733841 3.24497 8.34543e-21)
(0.00191723 3.25124 -8.92919e-21)
(-0.00340025 3.25725 2.15632e-20)
(-0.0086114 3.26297 -2.24494e-20)
(-0.0137128 3.26837 -1.80727e-21)
(-0.0187003 3.27343 0)
(-0.0235696 3.27812 -1.21142e-21)
(-0.0283162 3.28243 -3.91799e-21)
(-0.0329356 3.28633 0)
(-0.0374239 3.28983 1.49433e-21)
(-0.0417777 3.29293 3.08293e-21)
(-0.0459942 3.29561 0)
(-0.0500715 3.2979 -1.28461e-23)
(-0.0540082 3.2998 1.66604e-21)
(-0.057804 3.30132 0)
(-0.0614591 3.30249 1.11812e-19)
(-0.0649746 3.30332 -1.05261e-19)
(-0.068352 3.30382 -1.12636e-19)
(-0.0715934 3.30403 1.06972e-19)
(-0.0747014 3.30395 -1.69358e-21)
(-0.077679 3.30361 0)
(-0.0805293 3.30303 8.31432e-22)
(-0.083256 3.30223 -8.24295e-22)
(-0.0858627 3.30122 8.13262e-22)
(-0.0883533 3.30004 -1.03273e-19)
(-0.0907317 3.29868 9.9899e-20)
(-0.0930019 3.29717 -7.78067e-22)
(-0.095168 3.29552 0)
(-0.097234 3.29376 9.6516e-20)
(-0.0992038 3.29188 2.29044e-21)
(-0.101081 3.28991 -9.25847e-20)
(-0.102871 3.28786 0)
(-0.104575 3.28574 0)
(-0.106199 3.28355 -8.84914e-20)
(-0.107746 3.28132 8.56304e-20)
(-0.109219 3.27904 -3.27869e-22)
(-0.110621 3.27672 0)
(-0.111956 3.27438 3.1412e-22)
(-0.113228 3.27201 -3.06722e-22)
(-0.114438 3.26964 -7.7355e-20)
(-0.11559 3.26725 7.47088e-20)
(-0.116687 3.26486 1.43356e-22)
(-0.117732 3.26247 -1.40736e-22)
(-0.118726 3.26009 -2.74427e-22)
(-0.119673 3.25772 0)
(-0.120574 3.25536 -1.30623e-22)
(-0.121433 3.25301 -6.66509e-20)
(0.0150256 1.54045 -1.31141e-18)
(-0.153462 1.57686 -1.01389e-16)
(-0.127384 1.57808 8.42742e-20)
(-0.128084 1.58404 1.25388e-18)
(-0.128871 1.59274 2.49188e-17)
(-0.129088 1.60307 1.93054e-17)
(-0.128684 1.61546 -2.94928e-19)
(-0.127491 1.63083 -1.58248e-17)
(-0.125202 1.65004 0)
(-0.121517 1.67364 1.30469e-17)
(-0.115847 1.70206 -1.18136e-17)
(-0.107597 1.73599 0)
(-0.0961275 1.77719 0)
(-0.0804853 1.82819 -2.77575e-19)
(-0.0600991 1.89022 2.50967e-19)
(-0.0354038 1.96179 2.21271e-19)
(-0.00716793 2.03949 5.97181e-18)
(0.02337 2.11896 -5.3705e-18)
(0.0547536 2.1961 0)
(0.0854634 2.26753 1.27591e-19)
(0.114299 2.33088 3.9354e-18)
(0.140472 2.38526 -6.48296e-18)
(0.163199 2.4306 2.78567e-18)
(0.182574 2.468 1.6547e-19)
(0.198949 2.49875 2.45741e-18)
(0.212425 2.52402 -2.30805e-18)
(0.223382 2.54503 -2.28251e-18)
(0.232263 2.56274 2.27356e-18)
(0.23945 2.57793 5.55075e-22)
(0.24528 2.59122 -1.75883e-18)
(0.25004 2.60315 1.65494e-18)
(0.253962 2.61409 0)
(0.257239 2.62433 0)
(0.260015 2.63408 -1.34661e-18)
(0.262401 2.64347 1.4302e-18)
(0.264473 2.65258 -1.18484e-18)
(0.266285 2.66147 1.12315e-18)
(0.267871 2.67021 -9.18706e-19)
(0.269258 2.67881 -1.15667e-19)
(0.27046 2.68731 8.36528e-21)
(0.271488 2.69573 1.78933e-18)
(0.272348 2.7041 -1.7012e-18)
(0.273043 2.71243 7.1338e-19)
(0.273574 2.72074 0)
(0.273938 2.72904 0)
(0.274133 2.73736 -8.82161e-20)
(0.274153 2.74571 -6.74987e-19)
(0.273993 2.75409 5.73599e-19)
(0.273646 2.76253 -4.66616e-19)
(0.273104 2.77103 7.58587e-19)
(0.272359 2.77962 7.22786e-19)
(0.271402 2.78829 -7.04805e-19)
(0.270222 2.79706 0)
(0.268809 2.80594 -3.86494e-19)
(0.267153 2.81495 5.09069e-19)
(0.265243 2.82409 0)
(0.263067 2.83337 1.17118e-19)
(0.260612 2.8428 1.13218e-19)
(0.257866 2.85238 -2.21006e-19)
(0.254816 2.86214 -1.05849e-19)
(0.251449 2.87207 2.06758e-19)
(0.24775 2.88219 7.86231e-19)
(0.243705 2.89249 -9.70333e-19)
(0.239298 2.90299 7.33888e-19)
(0.234516 2.91369 -1.07806e-18)
(0.229341 2.92459 7.04679e-19)
(0.223758 2.93571 -8.28525e-19)
(0.21775 2.94703 8.2068e-19)
(0.211301 2.95856 -1.55044e-19)
(0.204395 2.9703 -7.39091e-19)
(0.197015 2.98225 5.90713e-19)
(0.189145 2.99442 0)
(0.180769 3.00679 -1.32721e-19)
(0.171873 3.01936 0)
(0.162578 3.03197 0)
(0.153162 3.04425 0)
(0.143788 3.05608 5.21735e-19)
(0.134469 3.0675 -4.08451e-19)
(0.125246 3.07856 -1.85584e-19)
(0.116121 3.08924 -1.73521e-19)
(0.107081 3.0995 7.9847e-20)
(0.0981503 3.10932 -7.61209e-20)
(0.089341 3.11874 -2.70817e-19)
(0.0806533 3.12778 2.69925e-19)
(0.0720899 3.13649 2.31045e-19)
(0.063654 3.14489 -1.78193e-20)
(0.055347 3.15302 -5.95463e-19)
(0.0471681 3.1609 3.28758e-20)
(0.0391141 3.16856 3.44233e-19)
(0.0311821 3.17603 -3.71227e-20)
(0.0233743 3.18337 1.68203e-20)
(0.0157024 3.19067 -2.09373e-19)
(0.00819138 3.19809 2.01636e-19)
(0.000887553 3.20574 -1.01423e-20)
(-0.00625978 3.21348 8.16499e-21)
(-0.0133014 3.22114 9.21618e-20)
(-0.0202079 3.22868 -1.69837e-19)
(-0.0269842 3.23611 8.02064e-20)
(-0.0336355 3.24342 3.69081e-20)
(-0.040164 3.25059 -5.53049e-20)
(-0.0465714 3.25759 1.95573e-20)
(-0.0528584 3.2644 -1.2935e-21)
(-0.0590242 3.27099 -2.91074e-20)
(-0.0650663 3.2773 2.83412e-20)
(-0.0709808 3.28332 -1.37796e-21)
(-0.0767629 3.28901 1.89128e-21)
(-0.0824067 3.29432 7.52878e-20)
(-0.0879063 3.29924 -1.56262e-19)
(-0.0932556 3.30374 8.32167e-20)
(-0.098449 3.30781 -2.85155e-21)
(-0.103482 3.31143 9.87743e-20)
(-0.108349 3.31461 -1.00735e-19)
(-0.113049 3.31734 0)
(-0.117579 3.31963 -1.69089e-21)
(-0.121938 3.32151 1.11307e-19)
(-0.126127 3.32297 -1.08052e-19)
(-0.130147 3.32404 -1.11261e-19)
(-0.133999 3.32475 -8.73045e-21)
(-0.137687 3.32511 1.09891e-19)
(-0.141213 3.32514 -1.14217e-19)
(-0.144582 3.32487 1.09297e-19)
(-0.147798 3.32431 0)
(-0.150864 3.3235 1.09561e-19)
(-0.153787 3.32246 -2.16576e-19)
(-0.156571 3.32119 1.02908e-19)
(-0.15922 3.31974 1.0611e-19)
(-0.161741 3.3181 -1.01015e-19)
(-0.164138 3.3163 -7.99911e-22)
(-0.166417 3.31437 -1.01838e-19)
(-0.168582 3.31231 -5.94265e-22)
(-0.170638 3.31013 -3.51359e-21)
(-0.17259 3.30786 9.60112e-20)
(-0.174444 3.3055 9.45233e-20)
(-0.176202 3.30308 -1.83706e-19)
(-0.177871 3.30059 8.99928e-20)
(-0.179454 3.29805 -8.89398e-20)
(-0.180956 3.29547 8.61103e-20)
(-0.18238 3.29285 -8.52504e-20)
(-0.183731 3.29021 -2.12225e-21)
(-0.185011 3.28756 8.05386e-20)
(-0.186225 3.28489 9.29937e-22)
(-0.187376 3.28222 -7.77504e-20)
(-0.188468 3.27955 7.51255e-20)
(-0.189502 3.27688 2.89389e-22)
(-0.190483 3.27422 2.82843e-22)
(-0.191413 3.27158 7.09244e-20)
(-0.192294 3.26896 -6.88701e-20)
(-0.19313 3.26636 0)
(-0.016526 1.54307 8.87342e-17)
(-0.188563 1.5796 0)
(-0.161297 1.58009 7.69881e-17)
(-0.162391 1.58408 6.64495e-19)
(-0.163712 1.59041 -5.99575e-17)
(-0.164698 1.59792 4.47475e-17)
(-0.165415 1.60652 -1.81345e-17)
(-0.165748 1.61661 0)
(-0.165532 1.62886 1.69116e-17)
(-0.164542 1.64392 -3.08611e-17)
(-0.162528 1.66238 1.37512e-17)
(-0.159236 1.68473 -4.03169e-19)
(-0.15426 1.7113 1.16531e-17)
(-0.147012 1.74239 -2.05654e-17)
(-0.137088 1.77899 8.94691e-18)
(-0.123746 1.82293 -5.2892e-19)
(-0.106122 1.87604 7.75128e-18)
(-0.0842292 1.93816 -6.55889e-18)
(-0.0585137 2.00747 0)
(-0.0297566 2.08089 5.421e-18)
(0.00084987 2.15483 -5.36738e-18)
(0.0319778 2.22607 -2.62286e-19)
(0.0622953 2.29199 0)
(0.0907616 2.35072 -4.11954e-19)
(0.116664 2.4016 0)
(0.139325 2.44468 2.49565e-18)
(0.158822 2.48085 1.4192e-19)
(0.175448 2.51111 -2.6126e-18)
(0.189275 2.53642 -1.3558e-19)
(0.200626 2.55782 0)
(0.20988 2.5761 0)
(0.217386 2.59191 0)
(0.223454 2.60584 -1.47959e-18)
(0.228357 2.61835 1.60123e-18)
(0.23233 2.62982 -1.86919e-19)
(0.235569 2.64055 1.40373e-18)
(0.238231 2.65074 -1.16378e-18)
(0.240438 2.66053 1.24133e-18)
(0.242277 2.67002 -1.17881e-18)
(0.243811 2.6793 0)
(0.245084 2.68841 1.30314e-18)
(0.246124 2.69741 -9.93977e-19)
(0.246952 2.70632 6.97834e-19)
(0.247578 2.71518 -6.71531e-19)
(0.24801 2.724 2.12465e-19)
(0.24825 2.73283 -2.02466e-19)
(0.248297 2.74166 0)
(0.248147 2.75053 -1.34934e-21)
(0.247795 2.75944 0)
(0.247234 2.76842 1.17395e-18)
(0.246455 2.77748 -1.46701e-18)
(0.24545 2.78662 1.551e-19)
(0.244207 2.79587 -1.18886e-18)
(0.242715 2.80523 1.01844e-18)
(0.240964 2.81472 -1.3821e-19)
(0.23894 2.82434 0)
(0.23663 2.83411 0)
(0.234021 2.84403 -9.85968e-19)
(0.231099 2.85412 2.5826e-19)
(0.227849 2.86438 9.37029e-19)
(0.224256 2.87482 6.62584e-19)
(0.220303 2.88545 -8.74441e-19)
(0.215975 2.89628 0)
(0.211253 2.90731 0)
(0.206122 2.91854 -1.93319e-19)
(0.200561 2.92999 0)
(0.194552 2.94166 -1.84369e-19)
(0.188076 2.95353 5.12915e-19)
(0.181112 2.96563 -6.84442e-19)
(0.173641 2.97795 3.26084e-19)
(0.165641 2.99048 3.13804e-19)
(0.157094 3.00322 3.01687e-19)
(0.147978 3.01617 0)
(0.138274 3.02933 2.58229e-19)
(0.128113 3.04251 -2.72365e-19)
(0.117797 3.05534 4.78153e-19)
(0.107507 3.06767 -2.41785e-19)
(0.0972604 3.07956 8.341e-19)
(0.0871027 3.09107 -5.18713e-20)
(0.0770388 3.10221 1.38115e-19)
(0.0670523 3.11292 -7.23316e-19)
(0.057167 3.12317 5.49918e-19)
(0.0473992 3.13302 -4.79339e-19)
(0.0377497 3.14248 0)
(0.0282211 3.15159 6.66353e-20)
(0.0188173 3.16039 4.65229e-19)
(0.00954085 3.1689 -9.3317e-20)
(0.000393148 3.17716 -3.57272e-20)
(-0.00862566 3.1852 -3.79664e-19)
(-0.0175167 3.19305 -1.18092e-21)
(-0.026281 3.20076 1.9892e-19)
(-0.0349176 3.20836 -2.63687e-19)
(-0.0434202 3.21594 1.99298e-19)
(-0.0517568 3.22366 -2.03622e-19)
(-0.0598931 3.23156 1.36758e-19)
(-0.0678624 3.23948 -1.26587e-19)
(-0.075697 3.24728 0)
(-0.0833693 3.25499 0)
(-0.0908921 3.26258 4.71856e-20)
(-0.0982734 3.27004 -4.08474e-20)
(-0.105516 3.27734 7.88621e-22)
(-0.112622 3.28446 -2.40982e-22)
(-0.119588 3.29136 -2.73032e-20)
(-0.12641 3.29798 2.65343e-20)
(-0.133083 3.30429 -3.73543e-20)
(-0.139599 3.31024 -3.63473e-21)
(-0.145949 3.31579 0)
(-0.152126 3.32091 8.51347e-20)
(-0.15812 3.32558 -8.17924e-20)
(-0.163925 3.32977 5.86572e-21)
(-0.169535 3.33347 6.21182e-21)
(-0.174944 3.33669 0)
(-0.180149 3.33941 0)
(-0.18515 3.34166 -3.42943e-21)
(-0.189945 3.34345 0)
(-0.194536 3.34479 0)
(-0.198925 3.34571 -3.5903e-21)
(-0.203115 3.34624 1.8009e-21)
(-0.207111 3.34638 -1.17539e-19)
(-0.210917 3.34618 1.12382e-19)
(-0.214539 3.34565 -1.14489e-19)
(-0.217983 3.34483 1.11286e-19)
(-0.221254 3.34373 1.75261e-21)
(-0.22436 3.34238 0)
(-0.227305 3.3408 -1.11323e-19)
(-0.230098 3.33902 -4.65871e-21)
(-0.232744 3.33705 -4.42587e-21)
(-0.23525 3.33492 1.05485e-19)
(-0.237621 3.33264 -1.04644e-19)
(-0.239865 3.33023 -3.01694e-21)
(-0.241988 3.32771 1.01275e-19)
(-0.243994 3.32509 -9.99115e-20)
(-0.245891 3.32239 9.54733e-20)
(-0.247682 3.31961 0)
(-0.249375 3.31678 9.35113e-20)
(-0.250973 3.31389 -9.15879e-20)
(-0.252482 3.31097 0)
(-0.253907 3.30802 6.82365e-22)
(-0.255251 3.30505 6.66878e-22)
(-0.25652 3.30207 6.54221e-22)
(-0.257717 3.29908 8.17489e-20)
(-0.258846 3.29609 -1.61135e-19)
(-0.259911 3.29311 7.88102e-20)
(-0.260916 3.29014 0)
(-0.261863 3.28718 0)
(-0.262757 3.28424 7.38953e-20)
(-0.263599 3.28133 -7.12177e-20)
(-0.264394 3.27845 0)
(-0.0479065 1.54489 -4.05684e-18)
(-0.222458 1.581 2.44092e-16)
(-0.194478 1.58183 -1.73797e-16)
(-0.195653 1.58486 5.20251e-17)
(-0.197163 1.59012 0)
(-0.198472 1.59631 0)
(-0.19967 1.60318 -1.23454e-18)
(-0.200743 1.61081 -1.74368e-17)
(-0.201604 1.61948 3.24334e-17)
(-0.202104 1.62961 -1.60328e-17)
(-0.202067 1.64171 0)
(-0.201321 1.65631 4.33492e-23)
(-0.199619 1.67394 -4.29694e-19)
(-0.196729 1.69502 0)
(-0.192383 1.71984 7.1176e-19)
(-0.186119 1.7485 6.32877e-19)
(-0.177453 1.78165 -5.62342e-19)
(-0.165983 1.82038 -5.08875e-19)
(-0.150951 1.86617 0)
(-0.131783 1.91997 0)
(-0.108729 1.98107 3.85055e-19)
(-0.0822405 2.04763 -6.73951e-22)
(-0.0531212 2.11695 3.03493e-19)
(-0.0224916 2.18612 -7.67483e-22)
(0.0084258 2.25253 0)
(0.0384369 2.31406 -2.13236e-19)
(0.0666277 2.36921 -5.70204e-19)
(0.0923063 2.41745 -1.72217e-19)
(0.114909 2.45888 0)
(0.134518 2.49423 0)
(0.151346 2.52425 -2.74568e-19)
(0.16545 2.5498 2.58678e-19)
(0.177108 2.57169 1.45392e-18)
(0.186654 2.5906 -2.42878e-19)
(0.194405 2.60708 -2.29701e-19)
(0.200646 2.62165 -1.84759e-18)
(0.205642 2.63476 -1.53674e-18)
(0.209627 2.64679 1.82719e-18)
(0.212807 2.65802 -1.36797e-18)
(0.215345 2.66867 1.30168e-18)
(0.217372 2.6789 -3.04923e-19)
(0.218982 2.68883 0)
(0.220243 2.69854 2.44742e-18)
(0.221204 2.70811 -2.07766e-18)
(0.221896 2.71759 -2.44291e-19)
(0.222338 2.72701 2.31842e-19)
(0.222543 2.73641 2.21968e-19)
(0.222515 2.74582 -1.25287e-18)
(0.222255 2.75527 1.61519e-18)
(0.221759 2.76476 0)
(0.221022 2.77433 -3.67698e-19)
(0.220036 2.78398 0)
(0.218791 2.79373 0)
(0.217278 2.8036 -3.23518e-19)
(0.215483 2.8136 0)
(0.213394 2.82373 -2.9852e-19)
(0.210997 2.83402 2.87089e-19)
(0.208278 2.84446 -1.08921e-18)
(0.205222 2.85507 1.33499e-18)
(0.201812 2.86587 1.0089e-18)
(0.198032 2.87685 -1.2399e-18)
(0.193865 2.88802 4.75971e-19)
(0.189291 2.8994 4.42367e-19)
(0.184292 2.91099 -8.90725e-19)
(0.178847 2.9228 8.3601e-19)
(0.172936 2.93483 -8.28677e-19)
(0.166535 2.94708 3.91066e-19)
(0.159624 2.95955 7.45557e-19)
(0.152176 2.97226 -7.4249e-19)
(0.144169 2.98519 -3.48637e-19)
(0.135577 2.99834 -6.75132e-19)
(0.126375 3.01172 3.12505e-19)
(0.116538 3.02531 8.92023e-19)
(0.10604 3.03911 -3.24055e-19)
(0.0950191 3.05291 8.17896e-19)
(0.0838031 3.06634 -1.09422e-18)
(0.072589 3.07923 4.52892e-21)
(0.0614035 3.09164 -6.72502e-19)
(0.0502913 3.10364 1.10942e-18)
(0.0392663 3.11528 0)
(0.0283129 3.12648 0)
(0.0174435 3.13723 1.77541e-19)
(0.00668191 3.14755 -8.13898e-19)
(-0.00396994 3.15748 6.47284e-19)
(-0.0145092 3.16705 4.85628e-19)
(-0.024931 3.17629 -4.19355e-19)
(-0.0352316 3.18524 4.0482e-19)
(-0.0454084 3.19393 -4.07466e-19)
(-0.0554584 3.20239 -5.08709e-20)
(-0.0653788 3.21065 4.41616e-20)
(-0.0751662 3.21876 3.90324e-20)
(-0.0848154 3.22673 0)
(-0.0943248 3.23463 0)
(-0.103695 3.24254 2.46162e-20)
(-0.112854 3.25057 2.13286e-20)
(-0.121806 3.25865 1.24947e-19)
(-0.130602 3.26668 -2.36692e-20)
(-0.13922 3.27462 -1.08378e-19)
(-0.14767 3.28248 5.18076e-20)
(-0.155964 3.29023 -5.30764e-20)
(-0.164108 3.29784 -1.03916e-20)
(-0.172099 3.30528 1.00597e-20)
(-0.179935 3.31248 -2.40994e-20)
(-0.187607 3.31941 -1.61232e-20)
(-0.195105 3.326 -3.90387e-20)
(-0.202417 3.3322 -6.25901e-20)
(-0.209531 3.33796 1.40991e-19)
(-0.216436 3.34326 -7.40482e-20)
(-0.22312 3.34805 -9.41678e-20)
(-0.229574 3.35231 8.71395e-20)
(-0.23579 3.35604 -3.18754e-21)
(-0.241764 3.35923 0)
(-0.247492 3.36189 -1.1381e-19)
(-0.252974 3.36402 2.28517e-19)
(-0.258211 3.36566 7.15896e-21)
(-0.263205 3.36681 -1.12808e-19)
(-0.26796 3.3675 -3.64699e-21)
(-0.272482 3.36777 -1.2035e-19)
(-0.276776 3.36763 1.14974e-19)
(-0.280849 3.36713 -1.19736e-19)
(-0.284709 3.36628 -4.48202e-21)
(-0.288363 3.36511 1.13877e-19)
(-0.291819 3.36365 -5.38671e-21)
(-0.295086 3.36194 0)
(-0.298172 3.35998 1.47199e-24)
(-0.301084 3.35782 1.73528e-21)
(-0.303831 3.35546 1.10934e-19)
(-0.30642 3.35294 2.66225e-21)
(-0.30886 3.35026 -2.12455e-19)
(-0.311157 3.34746 1.01721e-19)
(-0.31332 3.34454 -3.21101e-21)
(-0.315354 3.34153 0)
(-0.317268 3.33843 -2.00165e-19)
(-0.319066 3.33527 1.92899e-19)
(-0.320756 3.33205 0)
(-0.322344 3.32878 7.30998e-22)
(-0.323835 3.32548 1.85031e-19)
(-0.325235 3.32216 -1.79312e-19)
(-0.326548 3.31882 0)
(-0.32778 3.31547 -6.73685e-22)
(-0.328936 3.31213 6.61076e-22)
(-0.330019 3.30879 6.45565e-22)
(-0.331035 3.30547 -1.63491e-19)
(-0.331986 3.30216 1.57502e-19)
(-0.332878 3.29887 -6.05992e-22)
(-0.333712 3.29562 -1.52875e-19)
(-0.334494 3.29239 1.47378e-19)
(-0.335226 3.2892 0)
(-0.0786784 1.54589 -8.9964e-17)
(-0.255283 1.58111 1.2951e-16)
(-0.226736 1.58252 -1.90837e-16)
(-0.227821 1.585 5.98145e-17)
(-0.229346 1.58968 1.19486e-18)
(-0.230733 1.59523 -2.68617e-17)
(-0.232093 1.60133 4.24301e-17)
(-0.233433 1.60792 -1.76656e-17)
(-0.234711 1.61508 1.6484e-17)
(-0.235871 1.62295 -1.5334e-17)
(-0.23685 1.63182 0)
(-0.237471 1.64202 4.68592e-19)
(-0.237616 1.65397 -1.52014e-17)
(-0.237099 1.66813 1.4214e-17)
(-0.235685 1.68496 -8.30561e-19)
(-0.233197 1.70488 -1.22225e-17)
(-0.229385 1.72818 1.18613e-17)
(-0.223947 1.75496 1.06341e-17)
(-0.216406 1.78542 -2.35287e-20)
(-0.206452 1.82024 -7.98703e-18)
(-0.193564 1.86054 -4.53659e-19)
(-0.177052 1.90739 4.17455e-19)
(-0.156708 1.96098 -1.14354e-18)
(-0.132797 2.02056 -3.44366e-19)
(-0.105795 2.08436 -5.51577e-18)
(-0.0765226 2.15007 4.92917e-18)
(-0.0460276 2.21525 -1.55784e-21)
(-0.015445 2.27773 4.34305e-19)
(0.0141447 2.33573 -3.91085e-19)
(0.0419472 2.38801 3.52403e-19)
(0.0672361 2.43411 2.86481e-18)
(0.0896216 2.47425 -2.65701e-18)
(0.10922 2.50895 2.75165e-19)
(0.126118 2.53881 -1.39869e-21)
(0.140381 2.5646 2.45058e-19)
(0.152252 2.58696 2.31824e-19)
(0.162022 2.60641 -3.72715e-18)
(0.169973 2.62347 2.86393e-20)
(0.176373 2.63863 3.56372e-18)
(0.181474 2.65231 0)
(0.185508 2.66488 0)
(0.188675 2.67663 0)
(0.19114 2.6878 -2.83654e-18)
(0.193034 2.69856 2.4104e-18)
(0.194454 2.70902 0)
(0.195468 2.7193 0)
(0.196126 2.72947 -2.28414e-18)
(0.196459 2.73958 1.70848e-18)
(0.196487 2.74967 1.83151e-18)
(0.196222 2.75978 -1.76495e-18)
(0.195666 2.76994 4.16047e-19)
(0.194819 2.78017 0)
(0.193677 2.79049 0)
(0.192232 2.80091 7.27604e-19)
(0.190475 2.81147 1.38127e-18)
(0.188394 2.82216 -1.01305e-18)
(0.185977 2.833 -3.18161e-19)
(0.183209 2.844 0)
(0.180075 2.85517 -1.45952e-18)
(0.176558 2.86653 2.31652e-20)
(0.172642 2.87809 1.37002e-18)
(0.168307 2.88984 -1.04619e-18)
(0.163533 2.90181 5.00239e-19)
(0.158299 2.91399 0)
(0.152583 2.9264 0)
(0.146362 2.93904 4.32335e-19)
(0.139609 2.95192 -2.62087e-20)
(0.132299 2.96504 -2.68523e-20)
(0.124403 2.97839 -4.09596e-19)
(0.115893 2.99199 0)
(0.106739 3.00582 7.36253e-19)
(0.0969084 3.01988 7.12048e-19)
(0.0863706 3.03417 -1.01861e-18)
(0.0750943 3.04867 -6.40525e-19)
(0.0632221 3.06317 0)
(0.0511046 3.07727 -1.71378e-18)
(0.0389562 3.09077 1.40175e-18)
(0.0268124 3.10375 4.983e-21)
(0.014713 3.11629 -2.40204e-19)
(0.00269849 3.12846 2.24273e-19)
(-0.00924427 3.14021 2.11157e-19)
(-0.0211321 3.15151 0)
(-0.0329314 3.16236 0)
(-0.0446359 3.17281 0)
(-0.0562414 3.1829 -6.13333e-19)
(-0.0677416 3.19265 -9.9415e-20)
(-0.079131 3.20209 1.21078e-18)
(-0.0904044 3.21126 -5.72322e-19)
(-0.101555 3.22019 -3.68301e-19)
(-0.112574 3.22891 4.15824e-19)
(-0.12345 3.23744 0)
(-0.134168 3.24581 2.89483e-19)
(-0.144723 3.25406 -2.80576e-19)
(-0.155125 3.26224 0)