/*--------------------------------*- C++ -*----------------------------------*\
  =========                 |
  \\      /  F ield         | OpenFOAM: The Open Source CFD Toolbox
   \\    /   O peration     | Website:  https://openfoam.org
    \\  /    A nd           | Version:  10
     \\/     M anipulation  |
\*---------------------------------------------------------------------------*/
FoamFile
{
    format      ascii;
    class       volVectorField;
    location    "80000";
    object      Urel;
}
// * * * * * * * * * * * * * * * * * * * * * * * * * * * * * * * * * * * * * //

dimensions      [0 1 -1 0 0 0 0];

internalField   nonuniform List<vector> 
71680
(
(0.118433 -0.151945 0)
(-0.0173114 -0.120903 0)
(0.000380196 -0.0974724 -4.09487e-18)
(0.00477654 -0.0720103 5.2671e-18)
(0.0109236 -0.0412662 -2.08666e-18)
(0.0216529 0.000220899 -1.87501e-18)
(0.0389182 0.0596345 1.64529e-18)
(0.0632018 0.139009 0)
(0.0929337 0.232033 7.26307e-20)
(0.12601 0.329149 0)
(0.159887 0.421381 0)
(0.192296 0.502478 0)
(0.221697 0.569472 0)
(0.24673 0.621249 -4.88963e-19)
(0.267352 0.659582 4.65046e-19)
(0.284101 0.687223 0)
(0.297313 0.706541 -3.61765e-19)
(0.307622 0.719765 3.31965e-19)
(0.315748 0.728604 -3.02076e-19)
(0.322247 0.734317 2.77097e-19)
(0.327563 0.737826 0)
(0.332039 0.739775 0)
(0.335926 0.740589 -2.64864e-20)
(0.339404 0.740527 0)
(0.342592 0.739748 0)
(0.345567 0.738344 1.65304e-19)
(0.348378 0.736374 -3.08038e-19)
(0.351053 0.733872 1.44123e-19)
(0.353609 0.730864 1.342e-19)
(0.356056 0.727367 -1.66555e-20)
(0.358399 0.723393 -1.49753e-19)
(0.36064 0.718951 0)
(0.362781 0.714046 1.06989e-19)
(0.364821 0.708682 -2.3007e-19)
(0.366759 0.702862 7.45187e-22)
(0.368591 0.696587 1.86655e-19)
(0.370317 0.689858 -8.9814e-20)
(0.371932 0.682674 -1.0703e-19)
(0.373433 0.675034 6.22471e-20)
(0.374817 0.666938 0)
(0.37608 0.658384 1.92171e-20)
(0.377219 0.649369 1.85495e-20)
(0.378229 0.639893 1.42238e-19)
(0.379105 0.629951 -1.39013e-19)
(0.379845 0.619541 -1.3305e-19)
(0.380444 0.608659 -3.09704e-20)
(0.380897 0.597302 1.26331e-19)
(0.381199 0.585464 1.20957e-19)
(0.381345 0.573141 -1.57157e-21)
(0.381331 0.560327 -1.15368e-19)
(0.381152 0.547016 -1.38301e-19)
(0.380801 0.5332 1.35879e-19)
(0.380272 0.518873 0)
(0.379561 0.504025 0)
(0.37866 0.488647 2.48237e-20)
(0.377564 0.47273 1.43445e-19)
(0.376265 0.456262 -9.42243e-20)
(0.374756 0.439233 0)
(0.37303 0.421628 0)
(0.37108 0.403435 4.16133e-20)
(0.368898 0.384639 -8.39484e-20)
(0.366475 0.365224 0)
(0.363805 0.345174 0)
(0.360878 0.324471 -3.80558e-20)
(0.357686 0.303096 -7.23439e-20)
(0.354222 0.281028 3.79089e-20)
(0.350476 0.258246 6.99284e-20)
(0.346441 0.234727 0)
(0.342109 0.210446 0)
(0.337472 0.18538 0)
(0.332523 0.1595 5.85618e-20)
(0.327255 0.132781 -4.2744e-21)
(0.321663 0.105194 -1.13456e-19)
(0.315741 0.0767115 0)
(0.309573 0.0477297 5.04272e-20)
(0.303346 0.0190708 4.73565e-20)
(0.297167 -0.00885197 -4.39911e-20)
(0.291045 -0.0360409 0)
(0.284995 -0.0624983 0)
(0.279029 -0.0882809 0)
(0.273136 -0.113461 0)
(0.267335 -0.138069 0)
(0.261635 -0.162107 5.32963e-20)
(0.256032 -0.185576 -8.9118e-20)
(0.250525 -0.208485 6.04964e-20)
(0.245108 -0.230841 -1.07979e-20)
(0.239783 -0.252642 0)
(0.234566 -0.27384 0)
(0.229493 -0.294321 0)
(0.224605 -0.313937 -1.85664e-20)
(0.2199 -0.332676 2.47158e-20)
(0.215314 -0.350672 1.90722e-20)
(0.21081 -0.368041 -1.88489e-20)
(0.206382 -0.38481 1.37948e-20)
(0.202026 -0.401004 -2.65736e-20)
(0.197739 -0.41665 9.91846e-21)
(0.19352 -0.431778 0)
(0.189366 -0.446421 -4.73341e-21)
(0.185274 -0.460612 4.66506e-21)
(0.181243 -0.474386 2.4702e-22)
(0.177267 -0.487777 8.47274e-22)
(0.173349 -0.500823 -8.51588e-22)
(0.169493 -0.513564 0)
(0.165697 -0.526036 -5.41732e-21)
(0.16196 -0.538276 1.197e-20)
(0.158286 -0.55032 -6.50657e-21)
(0.154677 -0.562197 0)
(0.151135 -0.573937 5.668e-22)
(0.147663 -0.585563 0)
(0.144265 -0.597095 0)
(0.140944 -0.608548 -6.98576e-22)
(0.137702 -0.619935 1.28949e-20)
(0.134543 -0.631262 -1.16889e-20)
(0.131468 -0.642535 0)
(0.128479 -0.653756 0)
(0.125578 -0.664923 0)
(0.122766 -0.676034 0)
(0.120043 -0.687085 -1.32071e-20)
(0.11741 -0.698069 1.26529e-20)
(0.114865 -0.708981 2.62557e-20)
(0.11241 -0.719814 -2.4759e-20)
(0.110041 -0.73056 -3.96837e-22)
(0.107759 -0.741213 0)
(0.105562 -0.751765 0)
(0.103448 -0.762208 2.49168e-20)
(0.101415 -0.772537 -2.35355e-20)
(0.0994619 -0.782745 2.4163e-20)
(0.0975856 -0.792826 -2.32098e-20)
(0.0957841 -0.802775 -3.60807e-22)
(0.0940554 -0.812587 0)
(0.092397 -0.822257 1.74011e-22)
(0.0908066 -0.831781 -1.70734e-22)
(0.0892818 -0.841157 -1.67425e-22)
(0.0878203 -0.85038 2.10094e-20)
(0.0864199 -0.859448 -2.02358e-20)
(0.0850781 -0.86836 -1.57425e-22)
(0.0837928 -0.877114 0)
(0.0825617 -0.885707 0)
(0.0813827 -0.89414 1.4751e-22)
(0.0802536 -0.902412 -1.87132e-20)
(0.0791725 -0.910523 -8.37045e-23)
(0.0781372 -0.918472 1.73848e-20)
(0.0771459 -0.92626 6.73492e-23)
(0.0761967 -0.933888 0)
(0.0752878 -0.941356 0)
(0.0744175 -0.948666 0)
(0.0735841 -0.955818 0)
(0.0727859 -0.962815 -1.55306e-20)
(0.13179 -0.145102 0)
(-0.0189644 -0.115963 -1.84385e-17)
(0.00184482 -0.10623 9.92822e-18)
(0.00359824 -0.0934209 1.85136e-19)
(0.00562448 -0.0779858 8.55032e-18)
(0.00962671 -0.0584122 -1.44201e-17)
(0.0165327 -0.0323507 6.63746e-18)
(0.0271706 0.0031716 6.13724e-18)
(0.042833 0.0523138 -5.80789e-18)
(0.0643761 0.117574 -5.22229e-18)
(0.0911433 0.196073 1.04264e-20)
(0.121775 0.281634 3.68009e-18)
(0.154451 0.367366 0)
(0.187091 0.447198 0)
(0.217947 0.516903 -2.30277e-18)
(0.245892 0.574596 2.02709e-18)
(0.269818 0.619596 0)
(0.289803 0.653451 -1.55689e-18)
(0.306341 0.678291 1.48265e-18)
(0.319636 0.695905 0)
(0.330229 0.708078 -1.21907e-18)
(0.338728 0.716188 1.05997e-18)
(0.345612 0.721287 3.24709e-20)
(0.351283 0.724186 0)
(0.356059 0.725485 8.83598e-19)
(0.360186 0.725599 -5.56394e-20)
(0.363844 0.7248 -1.51352e-18)
(0.367162 0.723258 7.03671e-19)
(0.370228 0.721074 -4.08622e-20)
(0.373098 0.718313 6.25511e-19)
(0.375808 0.715014 -5.35654e-19)
(0.37838 0.711201 0)
(0.380827 0.706891 4.38548e-19)
(0.383157 0.702097 -3.88027e-19)
(0.385375 0.696827 0)
(0.387483 0.691085 5.36395e-20)
(0.389483 0.684874 -5.10859e-20)
(0.391373 0.678198 -3.63172e-19)
(0.393152 0.671057 7.67451e-19)
(0.394819 0.663451 -4.79501e-20)
(0.39637 0.655379 -3.65197e-19)
(0.397803 0.64684 -3.89093e-19)
(0.399113 0.637834 6.33276e-19)
(0.400298 0.628356 -6.86779e-19)
(0.401353 0.618406 5.88708e-19)
(0.402273 0.60798 -2.50449e-19)
(0.403053 0.597075 2.73011e-19)
(0.403688 0.585686 -5.979e-19)
(0.404173 0.573809 5.14115e-19)
(0.404502 0.56144 -4.97791e-19)
(0.404668 0.548571 2.12377e-19)
(0.404665 0.535197 -2.91073e-20)
(0.404487 0.52131 0)
(0.404127 0.506903 0)
(0.403576 0.491967 -2.65289e-20)
(0.402828 0.476492 -5.14602e-20)
(0.401875 0.460468 1.98546e-19)
(0.400707 0.443883 -2.93997e-19)
(0.399318 0.426725 -3.73285e-19)
(0.397698 0.408981 5.35357e-20)
(0.395837 0.390636 3.58853e-19)
(0.393728 0.371676 4.26173e-19)
(0.391359 0.352083 -4.21358e-19)
(0.388722 0.33184 4.01773e-20)
(0.385806 0.310927 0)
(0.382602 0.289325 3.84301e-20)
(0.379099 0.26701 2.87993e-19)
(0.375288 0.243961 -2.87757e-19)
(0.371158 0.220151 -1.37404e-19)
(0.366701 0.195556 -1.25814e-19)
(0.361908 0.170147 2.59297e-19)
(0.356769 0.143897 1.83761e-19)
(0.351277 0.116777 2.29221e-19)
(0.345426 0.088758 -2.30277e-19)
(0.339296 0.0602286 -5.28067e-20)
(0.333077 0.0319998 -4.96287e-20)
(0.326877 0.00448278 4.62359e-20)
(0.320707 -0.0223184 8.66585e-20)
(0.314594 -0.0483977 2.34263e-19)
(0.308544 -0.0738161 -9.52468e-21)
(0.302546 -0.0986524 -1.42795e-19)
(0.296625 -0.122931 -3.24525e-20)
(0.290789 -0.146651 0)
(0.285039 -0.169809 1.41618e-20)
(0.279376 -0.192403 -1.25397e-20)
(0.273798 -0.214437 1.14688e-20)
(0.268303 -0.235915 0)
(0.26289 -0.256837 0)
(0.257569 -0.277163 -1.28957e-19)
(0.252369 -0.296788 5.2261e-21)
(0.24733 -0.31556 1.0903e-19)
(0.24247 -0.333417 0)
(0.237727 -0.350499 0)
(0.233053 -0.366968 6.03635e-20)
(0.228449 -0.382857 -1.07867e-19)
(0.223914 -0.398194 5.35132e-20)
(0.219446 -0.413006 0)
(0.215045 -0.427325 0)
(0.210708 -0.441185 -1.20311e-20)
(0.206436 -0.454621 6.88425e-21)
(0.202227 -0.46767 -5.06914e-21)
(0.198082 -0.480372 0)
(0.194001 -0.49277 -1.50081e-20)
(0.189986 -0.504905 3.70498e-20)
(0.18604 -0.516818 -2.11183e-20)
(0.182165 -0.528546 3.19273e-20)
(0.178364 -0.540127 -3.09591e-20)
(0.174642 -0.551591 5.68129e-22)
(0.171003 -0.562967 1.2682e-21)
(0.16745 -0.574276 -4.60069e-20)
(0.163986 -0.585536 9.18506e-20)
(0.160617 -0.59676 -4.71604e-20)
(0.157344 -0.607957 0)
(0.15417 -0.619131 1.5914e-21)
(0.151097 -0.630284 -5.35377e-20)
(0.148126 -0.641412 5.12763e-20)
(0.145258 -0.652514 5.43555e-20)
(0.142493 -0.663581 -5.20389e-20)
(0.13983 -0.674608 8.30424e-22)
(0.137269 -0.685586 0)
(0.134809 -0.696507 -4.12736e-22)
(0.132448 -0.70736 5.36585e-20)
(0.130184 -0.718138 -5.02211e-20)
(0.128014 -0.72883 5.28382e-20)
(0.125938 -0.739429 -1.01244e-19)
(0.123951 -0.749926 4.88665e-20)
(0.122051 -0.760313 -4.97855e-20)
(0.120236 -0.770582 4.78148e-20)
(0.118503 -0.780728 3.71658e-22)
(0.116848 -0.790744 0)
(0.11527 -0.800623 1.7947e-22)
(0.113764 -0.810362 1.75845e-22)
(0.112328 -0.819956 -4.43919e-20)
(0.11096 -0.829401 4.30827e-20)
(0.109656 -0.838693 -4.97179e-22)
(0.108414 -0.84783 4.20272e-20)
(0.107231 -0.856809 -4.03609e-20)
(0.106105 -0.865629 0)
(0.105033 -0.874287 3.90524e-20)
(0.104012 -0.882784 -7.57212e-20)
(0.10304 -0.891118 3.65686e-20)
(0.102115 -0.899288 -3.64793e-20)
(0.101235 -0.907296 -6.17637e-22)
(0.100398 -0.915141 3.44356e-20)
(0.0996005 -0.922824 0)
(0.0988421 -0.930345 0)
(0.0981204 -0.937706 1.26683e-22)
(0.0974336 -0.944908 -6.25993e-23)
(0.142131 -0.138371 4.06515e-17)
(-0.0198441 -0.108036 -4.49817e-17)
(0.00438474 -0.108174 5.27622e-17)
(0.00490986 -0.102969 -1.58242e-17)
(0.0054356 -0.0953081 3.22695e-19)
(0.00695029 -0.0852175 0)
(0.00966607 -0.0715655 2.31107e-19)
(0.0139837 -0.0530911 0)
(0.0206892 -0.0289297 0)
(0.0303756 0.00199915 3.49635e-19)
(0.0440595 0.0425941 1.62285e-19)
(0.0628299 0.0959938 0)
(0.0865889 0.161738 0)
(0.114557 0.236344 2.24847e-19)
(0.145463 0.314601 -3.0801e-18)
(0.177696 0.391252 2.40783e-18)
(0.209493 0.461804 -2.14731e-18)
(0.239433 0.523121 2.00437e-18)
(0.266603 0.573929 -5.465e-20)
(0.290081 0.613918 -1.6527e-18)
(0.309971 0.644419 1.33871e-18)
(0.326695 0.667085 1.65139e-19)
(0.34039 0.68334 7.68736e-20)
(0.351511 0.694653 0)
(0.360572 0.702168 0)
(0.368001 0.706775 1.04703e-18)
(0.374165 0.709186 -8.05969e-19)
(0.379363 0.709954 -1.06968e-19)
(0.383837 0.709479 -6.42526e-19)
(0.387769 0.708034 7.41036e-19)
(0.3913 0.7058 0)
(0.394527 0.70289 0)
(0.397516 0.699373 7.50243e-20)
(0.400312 0.695295 1.0544e-18)
(0.402943 0.690683 -2.12375e-18)
(0.405429 0.685558 9.43004e-19)
(0.407781 0.679931 5.90514e-20)
(0.410007 0.673812 -1.12571e-19)
(0.412111 0.667208 1.0699e-19)
(0.414098 0.660121 5.06708e-20)
(0.415966 0.652556 0)
(0.417717 0.644512 4.62414e-20)
(0.419347 0.635992 8.91197e-20)
(0.420855 0.626994 -5.93293e-19)
(0.422237 0.617518 7.19781e-21)
(0.42349 0.607562 7.12834e-19)
(0.424607 0.597123 0)
(0.425585 0.586199 -4.97212e-22)
(0.426416 0.574785 -1.41636e-19)
(0.427095 0.562878 0)
(0.427615 0.550472 6.56057e-20)
(0.427968 0.537561 -5.05464e-19)
(0.428147 0.524138 4.96389e-19)
(0.428145 0.510197 0)
(0.427951 0.495729 1.15846e-19)
(0.427558 0.480724 0)
(0.426957 0.465173 -1.0866e-19)
(0.426139 0.449065 -4.15943e-19)
(0.425093 0.432388 4.1014e-19)
(0.423809 0.415129 9.87804e-20)
(0.422277 0.397274 0)
(0.420486 0.378807 -4.56131e-19)
(0.418425 0.359713 9.82357e-19)
(0.416084 0.339973 -9.25374e-21)
(0.413449 0.319568 -1.77557e-19)
(0.410509 0.298478 -9.01075e-20)
(0.407253 0.276681 -6.24819e-19)
(0.403668 0.254152 1.02552e-20)
(0.399743 0.230867 5.87701e-19)
(0.395466 0.206799 1.74273e-21)
(0.390825 0.181919 0)
(0.38581 0.156198 3.7945e-19)
(0.380411 0.129605 1.01819e-19)
(0.374618 0.102112 -4.89853e-19)
(0.368512 0.0740965 0)
(0.36228 0.0463565 0)
(0.356036 0.0192994 -1.00424e-19)
(0.349793 -0.00706439 2.65996e-19)
(0.343587 -0.0327198 -7.66881e-19)
(0.337422 -0.0577242 6.36638e-19)
(0.331288 -0.0821621 -3.82785e-19)
(0.32521 -0.106057 -2.33905e-19)
(0.3192 -0.129406 2.67419e-19)
(0.313258 -0.152205 -2.59633e-19)
(0.307389 -0.174449 4.40136e-19)
(0.301596 -0.196133 -2.09896e-19)
(0.295878 -0.217254 1.75836e-19)
(0.290233 -0.237815 -3.32673e-19)
(0.28466 -0.257811 1.45033e-20)
(0.279165 -0.277209 1.37727e-20)
(0.273768 -0.295919 1.36552e-19)
(0.268502 -0.313792 0)
(0.263406 -0.330729 7.86428e-20)
(0.258421 -0.346883 -1.43487e-19)
(0.253492 -0.362446 2.6892e-21)
(0.248635 -0.377458 6.92649e-21)
(0.243851 -0.391944 4.48709e-21)
(0.239137 -0.405933 5.30182e-21)
(0.234492 -0.419458 2.05321e-20)
(0.229917 -0.432554 6.50736e-22)
(0.225412 -0.44526 0)
(0.220977 -0.457618 8.34543e-21)
(0.216614 -0.469674 -8.92919e-21)
(0.212324 -0.481473 2.15632e-20)
(0.208112 -0.49306 -2.24494e-20)
(0.203982 -0.504479 -1.80727e-21)
(0.199938 -0.51577 0)
(0.195986 -0.52697 -1.21142e-21)
(0.192131 -0.538109 -3.91799e-21)
(0.188378 -0.549213 0)
(0.184732 -0.560302 1.49433e-21)
(0.181196 -0.571389 3.08293e-21)
(0.177775 -0.582484 0)
(0.174471 -0.59359 -1.28461e-23)
(0.171286 -0.604708 1.66604e-21)
(0.16822 -0.615835 0)
(0.165275 -0.626965 1.11812e-19)
(0.162449 -0.63809 -1.05261e-19)
(0.159743 -0.649201 -1.12636e-19)
(0.157153 -0.660286 1.06972e-19)
(0.154678 -0.671336 -1.69358e-21)
(0.152316 -0.682339 0)
(0.150064 -0.693283 8.31432e-22)
(0.147919 -0.704159 -8.24295e-22)
(0.145878 -0.714954 8.13262e-22)
(0.143936 -0.72566 -1.03273e-19)
(0.142092 -0.736267 9.9899e-20)
(0.14034 -0.746765 -7.78067e-22)
(0.138679 -0.757146 0)
(0.137103 -0.767404 9.6516e-20)
(0.135609 -0.777531 2.29044e-21)
(0.134195 -0.787521 -9.25847e-20)
(0.132856 -0.797368 0)
(0.131588 -0.807069 0)
(0.130389 -0.816618 -8.84914e-20)
(0.129256 -0.826013 8.56304e-20)
(0.128185 -0.835249 -3.27869e-22)
(0.127172 -0.844325 0)
(0.126216 -0.853239 3.1412e-22)
(0.125314 -0.861989 -3.06722e-22)
(0.124462 -0.870574 -7.7355e-20)
(0.123658 -0.878993 7.47088e-20)
(0.122899 -0.887246 1.43356e-22)
(0.122184 -0.895333 -1.40736e-22)
(0.121509 -0.903255 -2.74427e-22)
(0.120873 -0.911011 0)
(0.120274 -0.918604 -1.30623e-22)
(0.119709 -0.926033 -6.66509e-20)
(0.148339 -0.132224 -1.31141e-18)
(-0.0197439 -0.100896 -1.01389e-16)
(0.00675114 -0.104894 8.42742e-20)
(0.00647986 -0.10431 1.25388e-18)
(0.00613457 -0.10114 2.49188e-17)
(0.00637088 -0.0965068 1.93054e-17)
(0.0072418 -0.0899678 -2.94928e-19)
(0.00891612 -0.0806219 -1.58248e-17)
(0.0116993 -0.0676062 0)
(0.0158931 -0.0503838 1.30469e-17)
(0.0220861 -0.0285297 -1.18136e-17)
(0.0308752 -0.00134883 0)
(0.0428984 0.0329082 0)
(0.0591107 0.0767562 -2.77575e-19)
(0.0800834 0.131432 2.50967e-19)
(0.105382 0.195444 2.21271e-19)
(0.134239 0.265358 5.97181e-18)
(0.165416 0.336818 -5.3705e-18)
(0.197457 0.40572 0)
(0.228843 0.468669 1.27591e-19)
(0.258375 0.523292 3.9354e-18)
(0.285263 0.568697 -6.48296e-18)
(0.308728 0.604801 2.78567e-18)
(0.328861 0.632703 1.6547e-19)
(0.346016 0.653678 2.45741e-18)
(0.360294 0.668882 -2.30805e-18)
(0.372077 0.679542 -2.28251e-18)
(0.381807 0.686608 2.27356e-18)
(0.389868 0.690839 5.55075e-22)
(0.396598 0.692862 -1.75883e-18)
(0.402282 0.693185 1.65494e-18)
(0.407157 0.692193 0)
(0.411413 0.690161 0)
(0.415198 0.687275 -1.34661e-18)
(0.41862 0.68366 1.4302e-18)
(0.421759 0.679395 -1.18484e-18)
(0.424668 0.674533 1.12315e-18)
(0.427385 0.669107 -9.18706e-19)
(0.429933 0.663142 -1.15667e-19)
(0.432331 0.656654 8.36528e-21)
(0.434589 0.649655 1.78933e-18)
(0.436715 0.642155 -1.7012e-18)
(0.438713 0.634158 7.1338e-19)
(0.440583 0.625671 0)
(0.442326 0.616695 0)
(0.443939 0.607231 -8.82161e-20)
(0.445419 0.59728 -6.74987e-19)
(0.446761 0.586841 5.73599e-19)
(0.447959 0.575911 -4.66616e-19)
(0.449007 0.564487 7.58587e-19)
(0.449898 0.552565 7.22786e-19)
(0.450623 0.54014 -7.04805e-19)
(0.451175 0.527206 0)
(0.451544 0.513756 -3.86494e-19)
(0.451721 0.499783 5.09069e-19)
(0.451697 0.485278 0)
(0.451461 0.470231 1.17118e-19)
(0.451003 0.454632 1.13218e-19)
(0.450312 0.438469 -2.21006e-19)
(0.449376 0.42173 -1.05849e-19)
(0.448183 0.404401 2.06758e-19)
(0.446722 0.386466 7.86231e-19)
(0.444979 0.367911 -9.70333e-19)
(0.442941 0.348716 7.33888e-19)
(0.440596 0.328864 -1.07806e-18)
(0.437928 0.308333 7.04679e-19)
(0.434926 0.287101 -8.28525e-19)
(0.431573 0.265145 8.2068e-19)
(0.427855 0.242437 -1.55044e-19)
(0.42376 0.218952 -7.39091e-19)
(0.419271 0.194659 5.90713e-19)
(0.414376 0.169527 0)
(0.409062 0.143526 -1.32721e-19)
(0.403315 0.116623 0)
(0.397214 0.0891873 0)
(0.390947 0.0619989 0)
(0.384633 0.0354598 5.21735e-19)
(0.378289 0.0095863 -4.08451e-19)
(0.371957 -0.0155962 -1.85584e-19)
(0.365643 -0.0401339 -1.73521e-19)
(0.359334 -0.0641165 7.9847e-20)
(0.353057 -0.0875699 -7.61209e-20)
(0.346828 -0.110491 -2.70817e-19)
(0.340648 -0.132874 2.69925e-19)
(0.334521 -0.154715 2.31045e-19)
(0.328454 -0.176005 -1.78193e-20)
(0.322449 -0.196737 -5.95463e-19)
(0.316508 -0.216903 3.28758e-20)
(0.310628 -0.236501 3.44233e-19)
(0.30481 -0.255522 -3.71227e-20)
(0.299056 -0.273935 1.68203e-20)
(0.293381 -0.291663 -2.09373e-19)
(0.28781 -0.308568 2.01636e-19)
(0.282392 -0.324554 -1.01423e-20)
(0.277078 -0.339789 8.16499e-21)
(0.271818 -0.354469 9.21618e-20)
(0.266643 -0.368629 -1.69837e-19)
(0.261549 -0.382292 8.02064e-20)
(0.256534 -0.395486 3.69081e-20)
(0.251595 -0.408245 -5.53049e-20)
(0.246733 -0.420609 1.95573e-20)
(0.241947 -0.432622 -1.2935e-21)
(0.237241 -0.444335 -2.91074e-20)
(0.232617 -0.455797 2.83412e-20)
(0.228081 -0.467059 -1.37796e-21)
(0.223639 -0.478173 1.89128e-21)
(0.219298 -0.489183 7.52878e-20)
(0.215064 -0.500131 -1.56262e-19)
(0.210945 -0.511051 8.32167e-20)
(0.206947 -0.521972 -2.85155e-21)
(0.203076 -0.532915 9.87743e-20)
(0.199338 -0.543897 -1.00735e-19)
(0.195736 -0.554924 0)
(0.192273 -0.566002 -1.69089e-21)
(0.188951 -0.577127 1.11307e-19)
(0.185769 -0.588296 -1.08052e-19)
(0.182729 -0.5995 -1.11261e-19)
(0.179829 -0.610729 -8.73045e-21)
(0.177067 -0.62197 1.09891e-19)
(0.174439 -0.633212 -1.14217e-19)
(0.171945 -0.644439 1.09297e-19)
(0.169579 -0.65564 0)
(0.167338 -0.666799 1.09561e-19)
(0.165217 -0.677905 -2.16576e-19)
(0.163213 -0.688944 1.02908e-19)
(0.161322 -0.699904 1.0611e-19)
(0.159538 -0.710774 -1.01015e-19)
(0.157857 -0.721544 -7.99911e-22)
(0.156274 -0.732205 -1.01838e-19)
(0.154785 -0.742746 -5.94265e-22)
(0.153387 -0.75316 -3.51359e-21)
(0.152073 -0.76344 9.60112e-20)
(0.150841 -0.77358 9.45233e-20)
(0.149685 -0.783573 -1.83706e-19)
(0.148603 -0.793415 8.99928e-20)
(0.14759 -0.803102 -8.89398e-20)
(0.146643 -0.812629 8.61103e-20)
(0.145757 -0.821994 -8.52504e-20)
(0.14493 -0.831194 -2.12225e-21)
(0.144158 -0.840227 8.05386e-20)
(0.143438 -0.849092 9.29937e-22)
(0.142768 -0.857788 -7.77504e-20)
(0.142144 -0.866314 7.51255e-20)
(0.141563 -0.874669 2.89389e-22)
(0.141023 -0.882855 2.82843e-22)
(0.140522 -0.89087 7.09244e-20)
(0.140058 -0.898717 -6.88701e-20)
(0.139627 -0.906396 0)
(0.152377 -0.126408 8.87342e-17)
(-0.0191476 -0.0949428 0)
(0.00864691 -0.0996627 7.69881e-17)
(0.00809656 -0.101041 6.64495e-19)
(0.00733417 -0.10023 -5.99575e-17)
(0.00692322 -0.0984007 4.47475e-17)
(0.00679757 -0.0956457 -1.81345e-17)
(0.00707409 -0.0915629 0)
(0.00791649 -0.0855045 1.69116e-17)
(0.00955067 -0.0768092 -3.08611e-17)
(0.0122283 -0.0648954 1.37512e-17)
(0.0162024 -0.0492811 -4.03169e-19)
(0.02188 -0.0296492 1.16531e-17)
(0.0298505 -0.00569129 -2.05654e-17)
(0.0405173 0.0235745 8.94691e-18)
(0.0546242 0.0599632 -5.2892e-19)
(0.0730352 0.105304 7.75128e-18)
(0.0957375 0.159431 -6.55889e-18)
(0.122286 0.22052 0)
(0.1519 0.285472 5.421e-18)
(0.183388 0.350709 -5.36738e-18)
(0.215423 0.412992 -2.62286e-19)
(0.246674 0.469686 0)
(0.276101 0.518933 -4.11954e-19)
(0.302992 0.560061 0)
(0.326669 0.593103 2.49565e-18)
(0.347212 0.618945 1.4192e-19)
(0.364914 0.638574 -2.6126e-18)
(0.379849 0.652951 -1.3558e-19)
(0.392339 0.663095 0)
(0.402766 0.669796 0)
(0.411478 0.673702 0)
(0.418787 0.675371 -1.47959e-18)
(0.424967 0.675272 1.60123e-18)
(0.430253 0.673775 -1.86919e-19)
(0.434844 0.671154 1.40373e-18)
(0.438897 0.667605 -1.16378e-18)
(0.442535 0.663263 1.24133e-18)
(0.445846 0.658219 -1.17881e-18)
(0.448895 0.652537 0)
(0.451726 0.64626 1.30314e-18)
(0.45437 0.639418 -9.93977e-19)
(0.456848 0.632035 6.97834e-19)
(0.459172 0.624127 -6.71531e-19)
(0.461351 0.615706 2.12465e-19)
(0.463388 0.60678 -2.02466e-19)
(0.465284 0.597355 0)
(0.467037 0.587434 -1.34934e-21)
(0.468643 0.577018 0)
(0.470096 0.566106 1.17395e-18)
(0.471389 0.554697 -1.46701e-18)
(0.472516 0.542786 1.551e-19)
(0.473467 0.530369 -1.18886e-18)
(0.474233 0.517441 1.01844e-18)
(0.474804 0.503993 -1.3821e-19)
(0.475169 0.490018 0)
(0.475318 0.475507 0)
(0.475239 0.46045 -9.85968e-19)
(0.47492 0.444835 2.5826e-19)
(0.474348 0.428652 9.37029e-19)
(0.473509 0.411885 6.62584e-19)
(0.472392 0.394521 -8.74441e-19)
(0.47098 0.376544 0)
(0.46926 0.357937 0)
(0.467216 0.338681 -1.93319e-19)
(0.464833 0.318755 0)
(0.462093 0.298137 -1.84369e-19)
(0.45898 0.276803 5.12915e-19)
(0.455477 0.254728 -6.84442e-19)
(0.451566 0.231882 3.26084e-19)
(0.44723 0.208236 3.13804e-19)
(0.442452 0.183757 3.01687e-19)
(0.437214 0.158413 0)
(0.431501 0.132169 2.58229e-19)
(0.425386 0.105381 -2.72365e-19)
(0.419061 0.078811 4.78153e-19)
(0.412648 0.0528514 -2.41785e-19)
(0.40617 0.0275235 8.341e-19)
(0.399676 0.00286441 -5.18713e-20)
(0.393172 -0.0211506 1.38115e-19)
(0.386646 -0.0446176 -7.23316e-19)
(0.380123 -0.0675701 5.49918e-19)
(0.373624 -0.0900036 -4.79339e-19)
(0.367152 -0.111912 0)
(0.360711 -0.13329 6.66353e-20)
(0.354308 -0.154128 4.65229e-19)
(0.347948 -0.174419 -9.3317e-20)
(0.341635 -0.194151 -3.57272e-20)
(0.335371 -0.213316 -3.79664e-19)
(0.329158 -0.231904 -1.18092e-21)
(0.322996 -0.249902 1.9892e-19)
(0.316889 -0.267281 -2.63687e-19)
(0.310845 -0.283969 1.99298e-19)
(0.304898 -0.299848 -2.03622e-19)
(0.299084 -0.314877 1.36758e-19)
(0.293372 -0.329254 -1.26587e-19)
(0.287731 -0.343108 0)
(0.28219 -0.35646 0)
(0.27674 -0.369333 4.71856e-20)
(0.271373 -0.38176 -4.08474e-20)
(0.266087 -0.393783 7.88621e-22)
(0.260884 -0.40545 -2.40982e-22)
(0.255767 -0.416817 -2.73032e-20)
(0.250742 -0.427941 2.65343e-20)
(0.245816 -0.438882 -3.73543e-20)
(0.240997 -0.449696 -3.63473e-21)
(0.236297 -0.460436 0)
(0.231724 -0.471148 8.51347e-20)
(0.227288 -0.481873 -8.17924e-20)
(0.222998 -0.492642 5.86572e-21)
(0.218861 -0.503477 6.21182e-21)
(0.214883 -0.514394 0)
(0.211068 -0.5254 0)
(0.207419 -0.536498 -3.42943e-21)
(0.203938 -0.547684 0)
(0.200624 -0.558949 0)
(0.197476 -0.570283 -3.5903e-21)
(0.194492 -0.581672 1.8009e-21)
(0.191668 -0.593101 -1.17539e-19)
(0.189001 -0.604555 1.12382e-19)
(0.186486 -0.616017 -1.14489e-19)
(0.184119 -0.627471 1.11286e-19)
(0.181893 -0.6389 1.75261e-21)
(0.179805 -0.65029 0)
(0.177847 -0.661624 -1.11323e-19)
(0.176015 -0.67289 -4.65871e-21)
(0.174302 -0.684074 -4.42587e-21)
(0.172704 -0.695165 1.05485e-19)
(0.171214 -0.70615 -1.04644e-19)
(0.169827 -0.71702 -3.01694e-21)
(0.168537 -0.727765 1.01275e-19)
(0.16734 -0.738378 -9.99115e-20)
(0.16623 -0.74885 9.54733e-20)
(0.165203 -0.759175 0)
(0.164254 -0.769348 9.35113e-20)
(0.163378 -0.779363 -9.15879e-20)
(0.162571 -0.789217 0)
(0.161829 -0.798905 6.82365e-22)
(0.161147 -0.808424 6.66878e-22)
(0.160523 -0.817772 6.54221e-22)
(0.159952 -0.826948 8.17489e-20)
(0.159432 -0.835949 -1.61135e-19)
(0.158959 -0.844775 7.88102e-20)
(0.158529 -0.853426 0)
(0.158141 -0.861901 0)
(0.157791 -0.870201 7.38953e-20)
(0.157476 -0.878326 -7.12177e-20)
(0.157195 -0.886277 0)
(0.15549 -0.120743 -4.05684e-18)
(-0.018443 -0.0896942 2.44092e-16)
(0.0101722 -0.0940646 -1.73797e-16)
(0.0096522 -0.096385 5.20251e-17)
(0.00881505 -0.0966318 0)
(0.00819872 -0.0961129 0)
(0.00771329 -0.0950737 -1.23454e-18)
(0.0073735 -0.0934387 -1.74368e-17)
(0.00726663 -0.0909431 3.24334e-17)
(0.00754278 -0.0871636 -1.60328e-17)
(0.00837793 -0.0815934 0)
(0.00994575 -0.0737112 4.33492e-23)
(0.0124929 -0.0630048 -4.29694e-19)
(0.0162532 -0.0490383 0)
(0.0214938 -0.0315437 7.1176e-19)
(0.0286793 -0.0104137 6.32877e-19)
(0.0382921 0.0149888 -5.62342e-19)
(0.0507368 0.0457369 -5.08875e-19)
(0.0667722 0.0833252 0)
(0.0869725 0.128677 0)
(0.111088 0.181096 3.85055e-19)
(0.138669 0.238714 -6.73951e-22)
(0.168912 0.298842 3.03493e-19)
(0.200698 0.358549 -7.67483e-22)
(0.232806 0.415223 0)
(0.264041 0.46674 -2.13236e-19)
(0.293491 0.511587 -5.70204e-19)
(0.320466 0.549215 -1.72217e-19)
(0.344403 0.579738 0)
(0.365384 0.60386 0)
(0.383623 0.622334 -2.74568e-19)
(0.399179 0.635998 2.58678e-19)
(0.412332 0.645669 1.45392e-18)
(0.423416 0.651992 -2.42878e-19)
(0.432749 0.655528 -2.29701e-19)
(0.440618 0.656782 -1.84759e-18)
(0.447288 0.656194 -1.53674e-18)
(0.452997 0.654122 1.82719e-18)
(0.457949 0.650845 -1.36797e-18)
(0.462312 0.64657 1.30168e-18)
(0.466216 0.641444 -3.04923e-19)
(0.469757 0.635574 0)
(0.473005 0.629034 2.44742e-18)
(0.476011 0.621878 -2.07766e-18)
(0.478806 0.614144 -2.44291e-19)
(0.481412 0.605859 2.31842e-19)
(0.483844 0.597042 2.21968e-19)
(0.486107 0.587708 -1.25287e-18)
(0.488204 0.577864 1.61519e-18)
(0.490134 0.567515 0)
(0.491893 0.556664 -3.67698e-19)
(0.493474 0.545309 0)
(0.494872 0.533449 0)
(0.496076 0.521079 -3.23518e-19)
(0.497078 0.508194 0)
(0.497866 0.494786 -2.9852e-19)
(0.498431 0.480847 2.87089e-19)
(0.498758 0.466369 -1.08921e-18)
(0.498836 0.45134 1.33499e-18)
(0.498651 0.435749 1.0089e-18)
(0.49819 0.419583 -1.2399e-18)
(0.497436 0.40283 4.75971e-19)
(0.496375 0.385472 4.42367e-19)
(0.49499 0.367494 -8.90725e-19)
(0.493264 0.348878 8.3601e-19)
(0.491178 0.329603 -8.28677e-19)
(0.488714 0.309648 3.91066e-19)
(0.485853 0.288988 7.45557e-19)
(0.482573 0.267599 -7.4249e-19)
(0.478853 0.24545 -3.48637e-19)
(0.474673 0.222513 -6.75132e-19)
(0.47001 0.198752 3.12505e-19)
(0.464843 0.174134 8.92023e-19)
(0.45915 0.148622 -3.24055e-19)
(0.453003 0.122557 8.17896e-19)
(0.446591 0.0966758 -1.09422e-18)
(0.440047 0.0713614 4.52892e-21)
(0.4334 0.046637 -6.72502e-19)
(0.426699 0.0225526 1.10942e-18)
(0.419961 -0.000882549 0)
(0.413174 -0.0237707 0)
(0.406355 -0.0461583 1.77541e-19)
(0.399529 -0.0680412 -8.13898e-19)
(0.392703 -0.0894116 6.47284e-19)
(0.385882 -0.110262 4.85628e-19)
(0.379074 -0.130585 -4.19355e-19)
(0.372286 -0.150371 4.0482e-19)
(0.365522 -0.169611 -4.07466e-19)
(0.35879 -0.188293 -5.08709e-20)
(0.352094 -0.206409 4.41616e-20)
(0.345441 -0.223945 3.90324e-20)
(0.338838 -0.240889 0)
(0.332289 -0.257211 0)
(0.325796 -0.272843 2.46162e-20)
(0.319434 -0.287695 2.13286e-20)
(0.313199 -0.301847 1.24947e-19)
(0.307045 -0.315435 -2.36692e-20)
(0.300994 -0.328496 -1.08378e-19)
(0.295041 -0.341054 5.18076e-20)
(0.289172 -0.353145 -5.30764e-20)
(0.283385 -0.364818 -1.03916e-20)
(0.277684 -0.376128 1.00597e-20)
(0.272076 -0.38714 -2.40994e-20)
(0.266568 -0.397922 -1.61232e-20)
(0.261173 -0.408541 -3.90387e-20)
(0.255905 -0.419064 -6.25901e-20)
(0.250778 -0.429553 1.40991e-19)
(0.245804 -0.440058 -7.40482e-20)
(0.240998 -0.450623 -9.41678e-20)
(0.236368 -0.461282 8.71395e-20)
(0.231924 -0.472058 -3.18754e-21)
(0.227674 -0.482966 0)
(0.22362 -0.494011 -1.1381e-19)
(0.219766 -0.505193 2.28517e-19)
(0.216111 -0.516503 7.15896e-21)
(0.212655 -0.527931 -1.12808e-19)
(0.209394 -0.539462 -3.64699e-21)
(0.206325 -0.551079 -1.2035e-19)
(0.203442 -0.562763 1.14974e-19)
(0.200741 -0.574495 -1.19736e-19)
(0.198215 -0.586256 -4.48202e-21)
(0.195857 -0.598026 1.13877e-19)
(0.19366 -0.609786 -5.38671e-21)
(0.191617 -0.621518 0)
(0.189722 -0.633206 1.47199e-24)
(0.187966 -0.644833 1.73528e-21)
(0.186343 -0.656384 1.10934e-19)
(0.184846 -0.667846 2.66225e-21)
(0.183468 -0.679206 -2.12455e-19)
(0.182203 -0.690453 1.01721e-19)
(0.181043 -0.701575 -3.21101e-21)
(0.179983 -0.712565 0)
(0.179017 -0.723412 -2.00165e-19)
(0.17814 -0.734111 1.92899e-19)
(0.177344 -0.744654 0)
(0.176626 -0.755035 7.30998e-22)
(0.175981 -0.765251 1.85031e-19)
(0.175403 -0.775296 -1.79312e-19)
(0.174888 -0.785168 0)
(0.174432 -0.794863 -6.73685e-22)
(0.174031 -0.80438 6.61076e-22)
(0.173681 -0.813716 6.45565e-22)
(0.173378 -0.822871 -1.63491e-19)
(0.173119 -0.831844 1.57502e-19)
(0.1729 -0.840635 -6.05992e-22)
(0.17272 -0.849244 -1.52875e-19)
(0.172574 -0.857671 1.47378e-19)
(0.17246 -0.865917 0)
(0.158139 -0.115332 -8.9964e-17)
(-0.0177468 -0.0851597 1.2951e-16)
(0.0115407 -0.0889367 -1.90837e-16)
(0.0112177 -0.091797 5.98145e-17)
(0.0104765 -0.0926118 1.19486e-18)
(0.00989574 -0.092711 -2.68617e-17)
(0.00936554 -0.092426 4.24301e-17)
(0.00887901 -0.091811 -1.76656e-17)
(0.0084789 -0.0908104 1.6484e-17)
(0.00822252 -0.0892693 -1.5334e-17)
(0.00817343 -0.0869209 0)
(0.00850925 -0.0834219 4.68592e-19)
(0.00934847 -0.0783686 -1.52014e-17)
(0.0108787 -0.0713056 1.4214e-17)
(0.0133347 -0.0617779 -8.30561e-19)
(0.0168949 -0.0493744 -1.22225e-17)
(0.0218095 -0.0338056 1.18613e-17)
(0.0283826 -0.0149752 1.06341e-17)
(0.037091 0.00729411 -2.35287e-20)
(0.0482468 0.0336982 -7.98703e-18)
(0.0623712 0.0653309 -4.53659e-19)
(0.0801554 0.103268 4.17455e-19)
(0.101807 0.147691 -1.14354e-18)
(0.127065 0.197832 -3.44366e-19)
(0.155452 0.251923 -5.51577e-18)
(0.18615 0.307642 4.92917e-18)
(0.218112 0.362543 -1.55784e-21)
(0.250204 0.414452 4.34305e-19)
(0.281346 0.461571 -3.91085e-19)
(0.310746 0.502651 3.52403e-19)
(0.337679 0.537232 2.86481e-18)
(0.361755 0.565517 -2.65701e-18)
(0.383094 0.58803 2.75165e-19)
(0.401782 0.60534 -1.39869e-21)
(0.417887 0.618225 2.45058e-19)
(0.431653 0.627299 2.31824e-19)
(0.443373 0.633086 -3.72715e-18)
(0.453331 0.636087 2.86393e-20)
(0.461795 0.636773 3.56372e-18)
(0.46902 0.635567 0)
(0.475239 0.632822 0)
(0.480654 0.628821 0)
(0.485434 0.623776 -2.83654e-18)
(0.489708 0.617849 2.4104e-18)
(0.493576 0.611154 0)
(0.497111 0.603776 0)
(0.500361 0.595772 -2.28414e-18)
(0.503362 0.587183 1.70848e-18)
(0.506135 0.57804 1.83151e-18)
(0.508693 0.568359 -1.76495e-18)
(0.511043 0.558155 4.16047e-19)
(0.513186 0.547433 0)
(0.51512 0.536196 0)
(0.51684 0.524445 7.27604e-19)
(0.518339 0.512177 1.38127e-18)
(0.519608 0.499386 -1.01305e-18)
(0.520638 0.486068 -3.18161e-19)