/*--------------------------------*- C++ -*----------------------------------*\
  =========                 |
  \\      /  F ield         | OpenFOAM: The Open Source CFD Toolbox
   \\    /   O peration     | Website:  https://openfoam.org
    \\  /    A nd           | Version:  10
     \\/     M anipulation  |
\*---------------------------------------------------------------------------*/
FoamFile
{
    format      ascii;
    class       volScalarField;
    location    "36000";
    object      nut;
}
// * * * * * * * * * * * * * * * * * * * * * * * * * * * * * * * * * * * * * //

dimensions      [0 2 -1 0 0 0 0];

internalField   nonuniform List<scalar> 
17969
(
1.11523e-09
1.15665e-07
1.2418e-06
5.052e-06
1.0576e-05
1.58543e-05
1.98117e-05
2.22327e-05
2.38035e-05
2.55175e-05
2.73678e-05
2.92458e-05
2.80164e-05
2.66062e-05
2.59743e-05
2.62696e-05
2.75196e-05
2.98454e-05
3.35187e-05
3.89478e-05
4.68789e-05
5.59861e-05
6.16491e-05
6.85743e-05
7.70031e-05
8.71379e-05
9.91355e-05
0.00011311
0.000129129
0.000147193
0.000167225
0.000189078
0.000212566
0.000237487
0.000263644
0.00029085
0.000318935
0.000347747
0.000377156
0.00040705
0.000437332
0.000467921
0.000498751
0.00052976
0.000560899
0.00059212
0.000623381
0.00065464
0.000685856
0.000716987
0.000747992
0.000778825
0.000809439
0.000839784
0.000869807
0.000899451
0.000928658
0.000957363
0.0009855
0.001013
0.00103978
0.00106576
0.00109087
0.001115
0.00113806
0.00115996
0.00118057
0.00119977
0.00121745
0.00123345
0.00124762
0.0012598
0.00126981
0.00127747
0.0012825
0.00128483
0.00128467
0.00128224
0.00125517
0.00122632
0.00120051
0.00117657
0.00115431
0.00113351
0.0011138
0.00109538
0.00107997
0.00107129
0.00107407
0.00109012
0.0011109
0.00110638
0.00109191
0.00107801
0.00106485
0.00105318
0.00104358
0.00103588
0.00102996
0.00102588
5.56453e-10
5.78288e-08
6.71681e-07
3.2759e-06
7.81936e-06
1.27158e-05
1.68068e-05
1.9558e-05
2.12214e-05
2.30162e-05
2.50453e-05
2.73212e-05
2.98002e-05
3.23321e-05
3.25922e-05
3.13216e-05
3.05636e-05
3.06323e-05
3.16104e-05
3.35811e-05
3.6717e-05
4.13196e-05
4.78793e-05
5.71423e-05
6.5845e-05
7.19428e-05
7.92941e-05
8.81195e-05
9.8602e-05
0.000110883
0.000125063
0.000141205
0.000159323
0.000179379
0.00020127
0.000224839
0.000249898
0.000276247
0.000303694
0.00033206
0.00036118
0.000390911
0.000421126
0.000451717
0.000482588
0.000513655
0.000544845
0.000576094
0.000607342
0.000638534
0.000669617
0.000700542
0.000731256
0.000761708
0.000791845
0.000821612
0.000850952
0.000879803
0.000908103
0.000935782
0.00096277
0.00098899
0.00101436
0.0010388
0.0010622
0.00108448
0.00110552
0.00112521
0.00114342
0.00116
0.00117481
0.00118769
0.00119845
0.0012069
0.00121278
0.00121599
0.00121674
0.00121359
0.00118391
0.00115541
0.00112988
0.00110626
0.00108459
0.00106484
0.00104671
0.00102989
0.00101446
0.0010016
0.00099429
0.000996992
0.00101264
0.00103671
0.00104786
0.00103569
0.00102422
0.00101411
0.0010059
0.000999476
0.000994766
0.000991873
3.37605e-10
3.48962e-08
4.06757e-07
2.20959e-06
5.83769e-06
1.02153e-05
1.42661e-05
1.73228e-05
1.91961e-05
2.0693e-05
2.24658e-05
2.4545e-05
2.69399e-05
2.96228e-05
3.25566e-05
3.56001e-05
3.76562e-05
3.65771e-05
3.5691e-05
3.5524e-05
3.62044e-05
3.78099e-05
4.04643e-05
4.43999e-05
4.99327e-05
5.76085e-05
6.81455e-05
7.60666e-05
8.25409e-05
9.02574e-05
9.94207e-05
0.000110195
0.000122707
0.000137046
0.000153262
0.00017137
0.000191343
0.000213111
0.000236553
0.00026151
0.000287796
0.000315219
0.000343589
0.000372732
0.000402489
0.000432719
0.000463298
0.000494115
0.000525076
0.000556093
0.000587089
0.000617992
0.000648736
0.000679257
0.000709494
0.000739386
0.000768871
0.000797889
0.000826373
0.000854259
0.000881476
0.00090795
0.000933602
0.00095835
0.000982104
0.00100477
0.00102624
0.00104639
0.00106512
0.00108228
0.00109772
0.00111127
0.00112277
0.00113203
0.00113877
0.00114288
0.00114458
0.00114031
0.00111166
0.00108399
0.00105897
0.00103576
0.00101446
0.000995166
0.00097783
0.000962338
0.000948551
0.000936528
0.0009271
0.000922531
0.000926441
0.000942009
0.000968172
0.000991615
0.000982086
0.000973817
0.000967282
0.000962422
0.000959219
0.000957797
2.4827e-10
2.54588e-08
2.89863e-07
1.64768e-06
4.62315e-06
8.52646e-06
1.24995e-05
1.58989e-05
1.83162e-05
1.97293e-05
2.09689e-05
2.24987e-05
2.43878e-05
2.66497e-05
2.92736e-05
3.22333e-05
3.5499e-05
3.89493e-05
4.23702e-05
4.23379e-05
4.14246e-05
4.10578e-05
4.14392e-05
4.26861e-05
4.49071e-05
4.8263e-05
5.30308e-05
5.95094e-05
6.82876e-05
8.00401e-05
8.67089e-05
9.35057e-05
0.00010153
0.00011097
0.000121974
0.000134655
0.000149085
0.000165307
0.000183327
0.000203116
0.000224614
0.000247723
0.000272314
0.00029823
0.000325292
0.000353318
0.000382126
0.000411548
0.000441426
0.000471622
0.00050201
0.000532479
0.000562929
0.000593269
0.000623415
0.000653289
0.000682817
0.000711925
0.000740543
0.000768598
0.000796017
0.000822726
0.000848645
0.000873693
0.000897781
0.000920816
0.000942696
0.000963311
0.000982542
0.00100026
0.00101631
0.00103056
0.00104282
0.00105294
0.00106062
0.00106576
0.00106859
0.00106639
0.00103873
0.00101183
0.000987544
0.000965026
0.000944325
0.000925564
0.000908776
0.000894018
0.000881357
0.00087085
0.000862671
0.000857485
0.000856926
0.000863693
0.000880719
0.000908696
0.000938157
0.000932648
0.000928067
0.000925048
0.000923625
0.000923939
0.000926133
0.000930312
0.000936526
0.000944765
2.03537e-10
2.07691e-08
2.3086e-07
1.33554e-06
3.87259e-06
7.37788e-06
1.1203e-05
1.4824e-05
1.78381e-05
1.99561e-05
2.11538e-05
2.20826e-05
2.3254e-05
2.47636e-05
2.66911e-05
2.90403e-05
3.18028e-05
3.49573e-05
3.84781e-05
4.22761e-05
4.6151e-05
4.85255e-05
4.7818e-05
4.72974e-05
4.7423e-05
4.83342e-05
5.01538e-05
5.30166e-05
5.71168e-05
6.27539e-05
7.0212e-05
8.0061e-05
9.17444e-05
9.7805e-05
0.000104869
0.000113138
0.000122785
0.000133942
0.000146707
0.000161142
0.000177275
0.000195102
0.000214589
0.000235673
0.000258263
0.000282246
0.000307486
0.000333828
0.000361106
0.000389149
0.000417789
0.000446863
0.000476221
0.000505723
0.000535244
0.000564668
0.000593888
0.000622808
0.000651335
0.000679382
0.000706863
0.000733693
0.000759789
0.000785063
0.000809427
0.000832785
0.00085504
0.000876085
0.000895807
0.000914084
0.000930784
0.000945769
0.000958891
0.000969996
0.0009788
0.000985196
0.000989376
0.000991598
0.000965461
0.00093949
0.000916091
0.00089452
0.000874753
0.000856874
0.000840905
0.000826924
0.000815087
0.000805605
0.000798739
0.000794863
0.000794641
0.000799281
0.000810686
0.000831245
0.000861616
0.000890999
0.000888628
0.000887704
0.000888317
0.000890622
0.000894765
0.000900851
0.000908924
0.000918968
1.78014e-10
1.81075e-08
1.96979e-07
1.1453e-06
3.37921e-06
6.55608e-06
1.01777e-05
1.38524e-05
1.72616e-05
2.01277e-05
2.22148e-05
2.34021e-05
2.40498e-05
2.48569e-05
2.59218e-05
2.73509e-05
2.92361e-05
3.15948e-05
3.44259e-05
3.77146e-05
4.14381e-05
4.55526e-05
4.98544e-05
5.40944e-05
5.4691e-05
5.42277e-05
5.4203e-05
5.48375e-05
5.6297e-05
5.8725e-05
6.22903e-05
6.72036e-05
7.37295e-05
8.21755e-05
9.30535e-05
0.000103098
0.000109378
0.000116645
0.000125083
0.000134848
0.000146059
0.000158801
0.000173122
0.000189039
0.00020654
0.000225579
0.000246089
0.000267978
0.000291136
0.000315435
0.000340737
0.000366891
0.00039374
0.000421127
0.000448894
0.000476891
0.000504973
0.000533003
0.000560856
0.000588411
0.000615556
0.000642185
0.000668195
0.000693488
0.000717964
0.000741525
0.00076407
0.000785496
0.000805698
0.000824562
0.000841973
0.000857809
0.000871943
0.00088424
0.000894404
0.000902291
0.000908061
0.000911927
0.000892271
0.000868128
0.000845945
0.000825657
0.000807137
0.000790445
0.000775612
0.000762702
0.000751856
0.000743306
0.0007374
0.000734631
0.00073565
0.000741261
0.000752386
0.000770232
0.00079674
0.000830196
0.000849351
0.000850745
0.000853616
0.000858134
0.000864444
0.000872644
0.000882772
0.000894798
1.62581e-10
1.65106e-08
1.75992e-07
1.0214e-06
3.03849e-06
5.94784e-06
9.34455e-06
1.29372e-05
1.65011e-05
1.98298e-05
2.27151e-05
2.4949e-05
2.63463e-05
2.69722e-05
2.74277e-05
2.80634e-05
2.89659e-05
3.02423e-05
3.19993e-05
3.4283e-05
3.71052e-05
4.04601e-05
4.43295e-05
4.86961e-05
5.3372e-05
5.81166e-05
6.18635e-05
6.17937e-05
6.17416e-05
6.22349e-05
6.34274e-05
6.54851e-05
6.85793e-05
7.29147e-05
7.87031e-05
8.6125e-05
9.55495e-05
0.000107427
0.000115014
0.000121446
0.000128833
0.000137345
0.000147118
0.000158259
0.000170838
0.000184895
0.000200439
0.000217446
0.000235865
0.00025562
0.000276615
0.00029874
0.00032187
0.000345869
0.000370596
0.000395904
0.000421645
0.00044767
0.000473833
0.000499992
0.00052601
0.000551755
0.000577103
0.000601932
0.000626129
0.00064958
0.000672178
0.000693816
0.000714389
0.00073379
0.000751913
0.000768646
0.000783876
0.000797474
0.00080912
0.000818618
0.000826084
0.000831684
0.000821009
0.000799174
0.000778534
0.000759856
0.000742893
0.000727676
0.000714257
0.0007027
0.000693139
0.000685797
0.000681024
0.000679353
0.000681549
0.000688561
0.000701293
0.000720322
0.000746245
0.000779507
0.000810696
0.000814565
0.000819874
0.000826791
0.000835457
0.000845955
0.000858307
0.000872464
0.000888316
1.54162e-10
1.56452e-08
1.63511e-07
9.42322e-07
2.80792e-06
5.51148e-06
8.70159e-06
1.21491e-05
1.56981e-05
1.92142e-05
2.25578e-05
2.55712e-05
2.80766e-05
2.98847e-05
3.08411e-05
3.11199e-05
3.13806e-05
3.17984e-05
3.24682e-05
3.35092e-05
3.5048e-05
3.71546e-05
3.98649e-05
4.31915e-05
4.71282e-05
5.16626e-05
5.66605e-05
6.18652e-05
6.70287e-05
6.96917e-05
7.0004e-05
7.0508e-05
7.15612e-05
7.33661e-05
7.60926e-05
7.99407e-05
8.51273e-05
9.18376e-05
0.000100197
0.00011059
0.000121711
0.000127485
0.000133992
0.000141406
0.000149877
0.000159528
0.00017045
0.000182704
0.000196322
0.000211305
0.000227622
0.000245219
0.000264016
0.000283912
0.000304796
0.000326541
0.000349015
0.000372078
0.000395589
0.000419406
0.000443387
0.000467392
0.000491285
0.000514934
0.00053821
0.000560991
0.000583158
0.000604596
0.000625194
0.000644846
0.000663443
0.000680879
0.00069704
0.000711801
0.000724807
0.000735812
0.000744893
0.000752175
0.000753166
0.0007345
0.000715773
0.000698901
0.000683737
0.000670294
0.000658593
0.000648663
0.00064068
0.000634987
0.000632016
0.000632165
0.000635992
0.000644422
0.000658494
0.000678928
0.000706096
0.000740307
0.000773082
0.00077954
0.00078743
0.000796908
0.000808091
0.000821041
0.000835752
0.000852155
0.000870116
0.000889456
0.000909961
1.51581e-10
1.53836e-08
1.57745e-07
8.98646e-07
2.66831e-06
5.22971e-06
8.26037e-06
1.15647e-05
1.50252e-05
1.85543e-05
2.20677e-05
2.54701e-05
2.86456e-05
3.14532e-05
3.37256e-05
3.5275e-05
3.59624e-05
3.59995e-05
3.60361e-05
3.61986e-05
3.65784e-05
3.73084e-05
3.85233e-05
4.03267e-05
4.27917e-05
4.59583e-05
4.98371e-05
5.44221e-05
5.96574e-05
6.52729e-05
7.0984e-05
7.65944e-05
7.86985e-05
7.95266e-05
8.06623e-05
8.23808e-05
8.4895e-05
8.83826e-05
9.30919e-05
9.92271e-05
0.00010687
0.000116221
0.000127553
0.000134677
0.000140487
0.000146982
0.000154316
0.00016262
0.000172001
0.000182539
0.000194287
0.000207272
0.000221488
0.000236904
0.000253461
0.000271078
0.000289654
0.000309078
0.000329226
0.000349965
0.000371159
0.000392672
0.000414369
0.000436115
0.000457775
0.000479223
0.000500333
0.000520986
0.000541068
0.000560467
0.000579073
0.000596779
0.000613471
0.000629022
0.000643053
0.000655273
0.000665734
0.000674532
0.000681722
0.000675109
0.000659985
0.000645111
0.000631832
0.000620476
0.000610894
0.000603042
0.000597204
0.000593933
0.000593816
0.000596812
0.000602744
0.000611847
0.000625029
0.000643507
0.00066885
0.000702886
0.000736849
0.000745975
0.000756561
0.00076873
0.000782561
0.00079808
0.000815249
0.00083397
0.000854087
0.000875401
0.000897687
0.000920703
1.54413e-10
1.56839e-08
1.57918e-07
8.85244e-07
2.60724e-06
5.08734e-06
8.01831e-06
1.12208e-05
1.45954e-05
1.80768e-05
2.16115e-05
2.51444e-05
2.86109e-05
3.19303e-05
3.50001e-05
3.76908e-05
3.98428e-05
4.12689e-05
4.18226e-05
4.16805e-05
4.14882e-05
4.13877e-05
4.14536e-05
4.18068e-05
4.26013e-05
4.39823e-05
4.60652e-05
4.89258e-05
5.26016e-05
5.7101e-05
6.24322e-05
6.8345e-05
7.4523e-05
8.07366e-05
8.68173e-05
8.90881e-05
9.05832e-05
9.24543e-05
9.49641e-05
9.83288e-05
0.000102735
0.000108433
0.000115562
0.000124186
0.000134477
0.000142896
0.000148204
0.000153975
0.000160361
0.000167494
0.000175491
0.000184447
0.000194432
0.000205494
0.000217651
0.000230896
0.000245195
0.00026049
0.000276702
0.000293735
0.000311475
0.000329808
0.000348612
0.000367755
0.000387106
0.000406538
0.000425925
0.000445147
0.000464085
0.000482626
0.000500662
0.000518082
0.000534776
0.000550619
0.000565215
0.000578246
0.000589743
0.000599791
0.000608445
0.000615718
0.000611643
0.00060103
0.000591005
0.000582257
0.00057502
0.000569679
0.00056683
0.000566398
0.000568205
0.000572465
0.000578998
0.000584505
0.00059109
0.000601372
0.000617147
0.000640531
0.000673889
0.000713045
0.000727392
0.000742369
0.000758951
0.000777121
0.000796806
0.000817876
0.000840149
0.000863411
0.000887423
0.000911942
0.000936732
0.00096157
1.62539e-10
1.65385e-08
1.63689e-07
8.98677e-07
2.61408e-06
5.06623e-06
7.95606e-06
1.1111e-05
1.44383e-05
1.78814e-05
2.1399e-05
2.49554e-05
2.85125e-05
3.20252e-05
3.54414e-05
3.8693e-05
4.16903e-05
4.43164e-05
4.64229e-05
4.78267e-05
4.83795e-05
4.81616e-05
4.7759e-05
4.74154e-05
4.71732e-05
4.71344e-05
4.74642e-05
4.83408e-05
4.99237e-05
5.23347e-05
5.56521e-05
5.99135e-05
6.51393e-05
7.11798e-05
7.77105e-05
8.44137e-05
9.11233e-05
9.76872e-05
0.000101075
0.00010344
0.000106195
0.000109657
0.000114054
0.000119625
0.000126451
0.00013458
0.00014413
0.000151933
0.000156927
0.000162172
0.000167813
0.000173985
0.000180804
0.00018837
0.000196765
0.000206049
0.00021626
0.000227412
0.000239496
0.000252477
0.000266305
0.000280906
0.000296192
0.000312061
0.000328402
0.000345106
0.000362059
0.000379142
0.000396241
0.000413246
0.000430052
0.00044655
0.000462633
0.000478182
0.000492797
0.000506143
0.000518234
0.000529142
0.000538926
0.00054763
0.000555295
0.000562086
0.000560797
0.000556031
0.000552711
0.000550785
0.000550273
0.000550838
0.00054536
0.000542953
0.000542677
0.000544607
0.000549187
0.000557115
0.000569579
0.000588168
0.00061517
0.000652813
0.000696413
0.000717885
0.000737289
0.000758156
0.000780374
0.00080378
0.000828169
0.000853309
0.000878956
0.000904866
0.000930807
0.000956569
0.000981965
0.00100684
0.00103105
0.00105452
1.75999e-10
1.79607e-08
1.75056e-07
9.36798e-07
2.67994e-06
5.14805e-06
8.04844e-06
1.12066e-05
1.45335e-05
1.79736e-05
2.14879e-05
2.50457e-05
2.86207e-05
3.21875e-05
3.57183e-05
3.91805e-05
4.25316e-05
4.57154e-05
4.86563e-05
5.12529e-05
5.33728e-05
5.48439e-05
5.55178e-05
5.53512e-05
5.47795e-05
5.42416e-05
5.37491e-05
5.33697e-05
5.32527e-05
5.35964e-05
5.45992e-05
5.64328e-05
5.92241e-05
6.30509e-05
6.79549e-05
7.39112e-05
8.061e-05
8.76937e-05
9.49142e-05
0.000102119
0.000109183
0.000114871
0.00011841
0.000122272
0.000126906
0.000132561
0.000139385
0.000147483
0.000156483
0.000161367
0.000166203
0.000171124
0.000176256
0.000181716
0.000187612
0.000194042
0.000201088
0.000208818
0.000217282
0.000226512
0.000236519
0.000247297
0.000258815
0.000271024
0.000283871
0.000297279
0.000311161
0.000325426
0.000339981
0.000354732
0.000369583
0.000384441
0.000399211
0.000413784
0.000427773
0.000440835
0.000452966
0.000464218
0.00047464
0.000484277
0.000493178
0.000501416
0.000509087
0.000516383
0.000523579
0.000530488
0.000526185
0.000520742
0.000515729
0.000511777
0.000509696
0.000510205
0.00051381
0.000520964
0.000532307
0.000548661
0.000571368
0.000602528
0.000644097
0.000691434
0.000717632
0.000741192
0.000765909
0.000791587
0.000817999
0.000844901
0.000872045
0.000899192
0.00092612
0.000952634
0.000978565
0.00100377
0.00102815
0.00105161
1.95042e-10
1.99854e-08
1.92085e-07
9.98237e-07
2.79756e-06
5.31063e-06
8.25205e-06
1.14563e-05
1.48282e-05
1.83072e-05
2.18518e-05
2.54316e-05
2.90231e-05
3.26073e-05
3.61676e-05
3.96876e-05
4.31494e-05
4.653e-05
4.97988e-05
5.29123e-05
5.58095e-05
5.84053e-05
6.05848e-05
6.21923e-05
6.30639e-05
6.30813e-05
6.24646e-05
6.18005e-05
6.11368e-05
6.0513e-05
6.00289e-05
5.98793e-05
6.02875e-05
6.1469e-05
6.36044e-05
6.68243e-05
7.12079e-05
7.6824e-05
8.34394e-05
9.07033e-05
9.82996e-05
0.000106014
0.000113687
0.00012122
0.000128528
0.000135553
0.000141179
0.000147523
0.000154596
0.000160194
0.000165467
0.000170495
0.000175373
0.0001802
0.000185076
0.000190098
0.000195361
0.000200952
0.00020695
0.000213424
0.00022043
0.000228011
0.000236191
0.000244981
0.000254381
0.000264374
0.000274925
0.00028599
0.000297521
0.000309457
0.00032173
0.000334275
0.000347027
0.000359901
0.000372551
0.00038465
0.000396173
0.00040715
0.000417611
0.000427586
0.000437112
0.000446229
0.000454991
0.000463489
0.000471842
0.000480192
0.000488556
0.000493504
0.000490208
0.000486716
0.000484397
0.000484324
0.000487253
0.00049368
0.000504081
0.000518948
0.00053904
0.00056565
0.000600681
0.000645824
0.00069626
0.000726242
0.000753356
0.000781177
0.000809457
0.000837946
0.000866396
0.000894579
0.000922289
0.000949347
0.000975607
0.00100095
0.00102529
0.00104856
2.20166e-10
2.26765e-08
2.1554e-07
1.08053e-06
2.94998e-06
5.54256e-06
8.56963e-06
1.186e-05
1.53125e-05
1.8862e-05
2.24639e-05
2.60861e-05
2.97051e-05
3.33039e-05
3.68701e-05
4.03948e-05
4.38707e-05
4.72909e-05
5.06469e-05
5.39258e-05
5.71073e-05
6.01596e-05
6.30347e-05
6.56615e-05
6.79403e-05
6.97321e-05
7.08529e-05
7.11875e-05
7.07434e-05
7.0012e-05
6.92643e-05
6.85063e-05
6.77773e-05
6.72334e-05
6.71028e-05
6.76304e-05
6.90465e-05
7.15398e-05
7.52437e-05
8.02524e-05
8.65004e-05
9.36755e-05
0.000101411
0.000109446
0.000117581
0.000125654
0.000133538
0.000141143
0.000148405
0.000155262
0.000161693
0.000167718
0.000173379
0.000178732
0.000183846
0.000188793
0.000193652
0.000198501
0.000203419
0.00020848
0.000213756
0.00021931
0.000225198
0.000231468
0.000238157
0.000245294
0.000252893
0.000260962
0.000269497
0.00027849
0.000287925
0.000297784
0.000308042
0.000318656
0.000329352
0.00033985
0.000350121
0.000360178
0.000370035
0.000379708
0.000389216
0.000398583
0.00040784
0.000417032
0.000426217
0.000435459
0.000444822
0.000454389
0.000464236
0.000466497
0.000465323
0.000465084
0.000467365
0.000473036
0.000482613
0.000496489
0.000515077
0.000539025
0.000569451
0.000608084
0.000656282
0.000709005
0.000742615
0.000772374
0.000802301
0.00083214
0.000861655
0.000890629
0.000918878
0.000946245
0.000972608
0.000997871
0.00102197
0.00104486
2.51085e-10
2.6024e-08
2.45273e-07
1.17825e-06
3.14667e-06
5.85124e-06
8.99504e-06
1.23996e-05
1.59576e-05
1.95993e-05
2.32766e-05
2.69555e-05
3.06119e-05
3.42294e-05
3.77977e-05
4.13111e-05
4.47679e-05
4.81688e-05
5.15159e-05
5.4811e-05
5.80539e-05
6.12398e-05
6.4357e-05
6.73824e-05
7.02776e-05
7.29826e-05
7.54096e-05
7.74367e-05
7.88867e-05
7.96163e-05
7.95174e-05
7.88327e-05
7.80838e-05
7.72795e-05
7.64364e-05
7.56333e-05
7.50776e-05
7.50225e-05
7.57309e-05
7.74394e-05
8.0334e-05
8.45396e-05
9.01442e-05
9.69195e-05
0.000104524
0.000112628
0.000120976
0.000129367
0.000137638
0.00014566
0.000153339
0.000160632
0.000167522
0.000174008
0.000180112
0.00018587
0.000191327
0.000196535
0.000201549
0.00020643
0.00021124
0.000216039
0.000220887
0.000225842
0.000230957
0.00023628
0.000241854
0.000247718
0.000253905
0.000260444
0.000267361
0.000274683
0.000282433
0.000290625
0.000299076
0.000307586
0.00031614
0.000324751
0.000333437
0.000342213
0.000351093
0.000360095
0.000369243
0.000378562
0.000388086
0.000397854
0.000407909
0.0004183
0.000429084
0.000440322
0.000449032
0.000450327
0.000452449
0.000457566
0.00046653
0.000479834
0.000497723
0.000520392
0.000548269
0.000582216
0.000623826
0.000674087
0.000727883
0.000764946
0.000796223
0.000827114
0.000857398
0.000886879
0.000915396
0.000942817
0.000969045
0.000994009
0.00101766
0.00103999
0.00106098
2.88229e-10
3.00561e-08
2.8044e-07
1.29629e-06
3.38795e-06
6.23048e-06
9.51465e-06
1.30535e-05
1.67334e-05
2.04801e-05
2.42425e-05
2.79849e-05
3.16827e-05
3.53201e-05
3.88882e-05
4.23841e-05
4.58094e-05
4.91695e-05
5.24723e-05
5.57273e-05
5.89442e-05
6.21314e-05
6.52945e-05
6.84342e-05
7.15434e-05
7.46043e-05
7.75844e-05
8.04308e-05
8.30645e-05
8.53748e-05
8.72021e-05
8.83429e-05
8.87039e-05
8.82906e-05
8.75829e-05
8.67997e-05
8.5951e-05
8.50353e-05
8.42029e-05
8.36955e-05
8.3785e-05
8.47403e-05
8.67947e-05
9.01247e-05
9.48612e-05
0.000100938
0.00010808
0.000115942
0.00012422
0.000132668
0.000141093
0.000149351
0.000157338
0.000164988
0.000172269
0.000179176
0.000185706
0.000191873
0.000197706
0.000203237
0.000208502
0.000213544
0.000218408
0.000223144
0.000227798
0.000232419
0.000237054
0.000241751
0.000246559
0.000251525
0.000256698
0.00026213
0.000267877
0.000273991
0.00028038
0.000286927
0.000293656
0.000300604
0.000307806
0.000315293
0.000323094
0.000331236
0.000339747
0.000348653
0.000357984
0.000367772
0.000378056
0.000388882
0.000400309
0.000412412
0.000425289
0.000436738
0.000440267
0.000445398
0.00045428
0.000467551
0.000485403
0.000507878
0.000534925
0.000566515
0.000603351
0.000647149
0.000698482
0.000751971
0.000790846
0.000822432
0.000853147
0.000882821
0.000911317
0.00093853
0.000964385
0.000988836
0.00101186
0.00103345
0.00105362
3.32146e-10
3.48297e-08
3.21055e-07
1.43439e-06
3.67087e-06
6.67243e-06
1.01144e-05
1.38008e-05
1.76118e-05
2.1469e-05
2.53187e-05
2.91242e-05
3.2861e-05
3.65141e-05
4.00768e-05
4.35485e-05
4.69342e-05
5.02431e-05
5.34875e-05
5.66818e-05
5.98413e-05
6.29817e-05
6.6117e-05
6.9259e-05
7.24157e-05
7.55891e-05
7.87735e-05
8.19527e-05
8.5096e-05
8.8154e-05
9.10525e-05
9.36868e-05
9.59148e-05
9.75232e-05
9.83819e-05
9.84e-05
9.7808e-05
9.71043e-05
9.63066e-05
9.54048e-05
9.4449e-05
9.36484e-05
9.32624e-05
9.35719e-05
9.48385e-05
9.72788e-05
0.00010104
0.000106193
0.000112567
0.000119871
0.000127776
0.00013601
0.000144357
0.000152656
0.000160788
0.000168667
0.000176235
0.000183461
0.000190341
0.000196867
0.000203044
0.00020889
0.000214427
0.000219682
0.000224685
0.000229471
0.000234076
0.000238541
0.000242911
0.000247231
0.000251555
0.000255941
0.000260454
0.000265163
0.000270035
0.000275026
0.000280197
0.000285619
0.000291358
0.000297471
0.000304011
0.00031103
0.000318573
0.000326685
0.000335406
0.000344781
0.000354857
0.000365691
0.000377355
0.000389941
0.000403558
0.000418331
0.000429582
0.000435588
0.000444509
0.000458059
0.000476467
0.00049968
0.000527466
0.000559257
0.000594319
0.000632876
0.000677354
0.000731858
0.000782155
0.000817578
0.000848383
0.000877933
0.000906119
0.000932862
0.000958113
0.000981847
0.00100406
0.00102477
0.001044
3.83897e-10
4.04412e-08
3.67121e-07
1.59232e-06
3.992e-06
7.1683e-06
1.07794e-05
1.46203e-05
1.85654e-05
2.25326e-05
2.64662e-05
3.03289e-05
3.40969e-05
3.77571e-05
4.1305e-05
4.47435e-05
4.8081e-05
5.13304e-05
5.45082e-05
5.76329e-05
6.07241e-05
6.38019e-05
6.68853e-05
6.99919e-05
7.31366e-05
7.63308e-05
7.95809e-05
8.28874e-05
8.62427e-05
8.96291e-05
9.30153e-05
9.63525e-05
9.95696e-05
0.000102566
0.000105211
0.000107314
0.000108645
0.000109155
0.000108862
0.000108251
0.000107531
0.000106727
0.00010579
0.000104861
0.000104177
0.000104003
0.000104609
0.000106229
0.000109038
0.000113149
0.000118532
0.000124987
0.000132234
0.000139989
0.000148018
0.00015614
0.000164216
0.000172144
0.000179844
0.000187264
0.000194368
0.000201142
0.000207579
0.000213677
0.000219441
0.000224887
0.000230031
0.000234897
0.000239513
0.000243912
0.000248137
0.000252235
0.000256266
0.000260298
0.00026432
0.000268332
0.000272427
0.000276705
0.000281259
0.000286178
0.000291544
0.000297436
0.000303929
0.000311091
0.000318989
0.000327692
0.000337272
0.00034781
0.000359403
0.000372171
0.000386252
0.000401793
0.000418935
0.000428649
0.000438353
0.000452471
0.000471765
0.000496195
0.000524979
0.000557626
0.000596146
0.00063196
0.000669635
0.000711444
0.00075735
0.000803557
0.000842741
0.000871834
0.000899412
0.00092542
0.000949833
0.000972649
0.000993884
0.00101357
0.00103175
0.00104847
4.44455e-10
4.70009e-08
4.1864e-07
1.76916e-06
4.34586e-06
7.7068e-06
1.14928e-05
1.54901e-05
1.95675e-05
2.36395e-05
2.76492e-05
3.15593e-05
3.53474e-05
3.90027e-05
4.25241e-05
4.59181e-05
4.91972e-05
5.23787e-05
5.54831e-05
5.85327e-05
6.1551e-05
6.45616e-05
6.75871e-05
7.06483e-05
7.37641e-05
7.69501e-05
8.02183e-05
8.35765e-05
8.70274e-05
9.05674e-05
9.41853e-05
9.78603e-05
0.000101559
0.000105232
0.000108809
0.000112193
0.000115255
0.000117833
0.000119668
0.000120668
0.000120798
0.000120313
0.000119704
0.00011902
0.000118216
0.000117313
0.000116512
0.000116046
0.000116172
0.000117119
0.000119086
0.000122189
0.000126488
0.000131904
0.000138255
0.000145284
0.000152755
0.000160468
0.000168269
0.000176034
0.00018367
0.000191103
0.000198279
0.000205158
0.000211715
0.000217946
0.000223837
0.000229387
0.000234603
0.000239502
0.000244102
0.000248436
0.000252547
0.000256487
0.000260243
0.000263827
0.000267352
0.000270938
0.0002747
0.000278753
0.000283197
0.000288142
0.000293696
0.000299955
0.000307016
0.000314981
0.000323954
0.000334053
0.000345415
0.0003582
0.000372585
0.000388748
0.000406844
0.00042465
0.000436597
0.000452065
0.000472418
0.000497767
0.000529618
0.000561179
0.000594738
0.00062976
0.000665381
0.000701933
0.000740392
0.000780523
0.00082008
0.000856118
0.000887007
0.000912968
0.000934941
0.000953803
0.000970262
0.000984878
0.000998096
0.00101026
5.14129e-10
5.45577e-08
4.75833e-07
1.96139e-06
4.72265e-06
8.27276e-06
1.22352e-05
1.63873e-05
2.05919e-05
2.47607e-05
2.88358e-05
3.27808e-05
3.65758e-05
4.02126e-05
4.36941e-05
4.70312e-05
5.02413e-05
5.3346e-05
5.63702e-05
5.93401e-05
6.22828e-05
6.52249e-05
6.81917e-05
7.1207e-05
7.42915e-05
7.74632e-05
8.07369e-05
8.41234e-05
8.76298e-05
9.12585e-05
9.50071e-05
9.88671e-05
0.000102823
0.00010685
0.000110913
0.00011496
0.000118922
0.000122706
0.000126186
0.000129214
0.000131573
0.000133019
0.0001336
0.000133383
0.000132888
0.000132314
0.000131707
0.000130965
0.000130211
0.000129647
0.000129495
0.000129974
0.000131272
0.00013353
0.000136815
0.000141147
0.000146441
0.000152549
0.000159244
0.000166325
0.000173624
0.000181005
0.000188357
0.000195591
0.000202636
0.000209435
0.000215947
0.000222139
0.000227993
0.000233501
0.000238658
0.000243473
0.000247969
0.000252174
0.000256055
0.000259617
0.000262977
0.000266263
0.000269604
0.000273127
0.00027696
0.000281229
0.00028606
0.00029158
0.00029792
0.000305217
0.000313615
0.000323274
0.000334379
0.000347142
0.000361788
0.000378533
0.000397552
0.000418941
0.000438285
0.000456551
0.000480134
0.000504548
0.000532518
0.000563539
0.000596277
0.000629806
0.000663462
0.000697069
0.000730909
0.000765158
0.000799304
0.000832067
0.000861973
0.000888051
0.00091002
0.000928176
0.000943127
0.000955577
0.000966196
0.000975566
5.9352e-10
6.31284e-08
5.39956e-07
2.16386e-06
5.11108e-06
8.85093e-06
1.29886e-05
1.72911e-05
2.16155e-05
2.58705e-05
2.99981e-05
3.39641e-05
3.77523e-05
4.13562e-05
4.47836e-05
4.80511e-05
5.11812e-05
5.42004e-05
5.7138e-05
6.00242e-05
6.28887e-05
6.57612e-05
6.867e-05
7.16406e-05
7.46954e-05
7.78538e-05
8.11317e-05
8.45416e-05
8.80919e-05
9.17878e-05
9.56301e-05
9.96158e-05
0.000103737
0.000107981
0.000112328
0.00011675
0.000121208
0.00012565
0.000130008
0.00013419
0.000138078
0.000141525
0.000144357
0.00014628
0.000147298
0.000147471
0.000147099
0.000146654
0.000146228
0.00014574
0.000145166
0.000144675
0.000144445
0.000144666
0.00014551
0.000147121
0.000149591
0.00015294
0.000157181
0.000162235
0.000167988
0.000174242
0.000180827
0.000187601
0.000194441
0.000201244
0.000207925
0.000214415
0.000220656
0.000226603
0.000232221
0.000237494
0.000242421
0.000246999
0.00025117
0.000254921
0.000258357
0.000261608
0.000264803
0.000268077
0.000271565
0.000275408
0.000279754
0.000284751
0.000290549
0.000297321
0.000305257
0.000314562
0.000325476
0.000338262
0.000353197
0.000370533
0.000390453
0.000413029
0.000438199
0.00046487
0.000488052
0.000513435
0.000541099
0.000570714
0.000601797
0.000633523
0.000665134
0.000696299
0.000727078
0.00075759
0.000787697
0.000816826
0.000844093
0.000868601
0.00088969
0.000907093
0.000920957
0.000931764
0.000940179
0.000946921
6.84032e-10
7.27356e-08
6.10063e-07
2.37887e-06
5.5118e-06
9.43959e-06
1.3749e-05
1.81958e-05
2.26308e-05
2.696e-05
3.11256e-05
3.50954e-05
3.88562e-05
4.24095e-05
4.57682e-05
4.89536e-05
5.1993e-05
5.49183e-05
5.77642e-05
6.05633e-05
6.33467e-05
6.61481e-05
6.89985e-05
7.19257e-05
7.49524e-05
7.80988e-05
8.13819e-05
8.48149e-05
8.84066e-05
9.21628e-05
9.60858e-05
0.000100175
0.000104424
0.000108827
0.000113371
0.000118038
0.000122805
0.000127642
0.000132507
0.000137348
0.000142096
0.000146662
0.000150935
0.000154772
0.000158025
0.000160467
0.000161884
0.000162467
0.000162339
0.00016203
0.00016172
0.000161501
0.000161209
0.000160908
0.000160755
0.000160899
0.000161491
0.000162653
0.00016449
0.000167057
0.000170345
0.000174369
0.000179067
0.000184344
0.000190031
0.000195986
0.000202085
0.000208217
0.00021429
0.000220221
0.000225947
0.000231413
0.000236577
0.000241411
0.000245825
0.000249776
0.000253355
0.000256682
0.000259878
0.000263075
0.000266409
0.000270026
0.000274083
0.000278744
0.000284185
0.000290602
0.000298221
0.000307301
0.000318131
0.000331028
0.000346311
0.000364253
0.000385021
0.000408624
0.000434905
0.000463469
0.000493872
0.000525705
0.000556039
0.000585238
0.000614879
0.000644595
0.000673711
0.000701899
0.000729385
0.000756487
0.00078315
0.000808997
0.000833471
0.000855877
0.000875473
0.000891676
0.000904255
0.000913404
0.000919673
0.000923808
7.83644e-10
8.32397e-08
6.84341e-07
2.60245e-06
5.92268e-06
1.00368e-05
1.45124e-05
1.90943e-05
2.36274e-05
2.80161e-05
3.22039e-05
3.61621e-05
3.98824e-05
4.33719e-05
4.66492e-05
4.97411e-05
5.26801e-05
5.55021e-05
5.82449e-05
6.09461e-05
6.36424e-05
6.63691e-05
6.91595e-05
7.20451e-05
7.50437e-05
7.81774e-05
8.14653e-05
8.49213e-05
8.85529e-05
9.2366e-05
9.63636e-05
0.000100545
0.000104908
0.000109444
0.000114145
0.000118998
0.000123988
0.000129094
0.00013429
0.000139542
0.000144809
0.000150036
0.000155155
0.00016008
0.000164707
0.000168905
0.000172526
0.000175419
0.00017727
0.000178235
0.00017849
0.000178305
0.00017814
0.000178066
0.000178071