/*--------------------------------*- C++ -*----------------------------------*\
  =========                 |
  \\      /  F ield         | OpenFOAM: The Open Source CFD Toolbox
   \\    /   O peration     | Website:  https://openfoam.org
    \\  /    A nd           | Version:  10
     \\/     M anipulation  |
\*---------------------------------------------------------------------------*/
FoamFile
{
    format      ascii;
    class       volVectorField;
    location    "36000";
    object      U;
}
// * * * * * * * * * * * * * * * * * * * * * * * * * * * * * * * * * * * * * //

dimensions      [0 1 -1 0 0 0 0];

internalField   nonuniform List<vector> 
17969
(
(0.123889 1.53754 0)
(-0.0458624 1.59614 0)
(-0.0206519 1.6029 -8.6095e-18)
(-0.019933 1.61275 9.7931e-18)
(-0.0198335 1.62397 -3.09421e-18)
(-0.0190903 1.6361 -2.35299e-18)
(-0.0177304 1.64955 1.90849e-18)
(-0.0156936 1.66498 0)
(-0.0127958 1.6831 1.01902e-19)
(-0.00879818 1.70444 0)
(-0.00328245 1.72932 0)
(0.00412004 1.75841 0)
(0.0141746 1.79355 0)
(0.0277847 1.83687 -1.24116e-18)
(0.0450098 1.88846 1.21893e-18)
(0.0653341 1.94627 0)
(0.0877476 2.00683 -9.01144e-19)
(0.110967 2.06644 7.90395e-19)
(0.133609 2.12187 -6.88048e-19)
(0.15464 2.17091 6.04011e-19)
(0.173316 2.21268 0)
(0.189147 2.24729 0)
(0.202345 2.27584 -5.43786e-20)
(0.213206 2.29952 0)
(0.221898 2.31934 0)
(0.228792 2.33623 3.4662e-19)
(0.234251 2.35093 -6.44278e-19)
(0.238567 2.364 2.99077e-19)
(0.241982 2.37594 2.75146e-19)
(0.244757 2.3871 -3.34493e-20)
(0.246932 2.39777 -2.95948e-19)
(0.248773 2.40812 0)
(0.250302 2.41828 2.02335e-19)
(0.251597 2.42834 -4.25063e-19)
(0.252709 2.43835 1.24248e-21)
(0.253665 2.44836 3.29787e-19)
(0.254484 2.45839 -1.55349e-19)
(0.25518 2.46847 -1.81602e-19)
(0.255761 2.47863 1.03624e-19)
(0.25623 2.48888 0)
(0.256592 2.49923 3.09515e-20)
(0.256847 2.5097 2.94387e-20)
(0.256995 2.52031 2.22832e-19)
(0.257035 2.53107 -2.14895e-19)
(0.256967 2.542 -2.03467e-19)
(0.256787 2.55309 -4.69828e-20)
(0.256493 2.56438 1.89088e-19)
(0.256084 2.57586 1.79547e-19)
(0.255555 2.58756 -2.15325e-21)
(0.254904 2.59949 -1.68306e-19)
(0.254127 2.61165 -2.00435e-19)
(0.25322 2.62406 1.95427e-19)
(0.252179 2.63673 0)
(0.251 2.64967 0)
(0.249678 2.66289 3.5066e-20)
(0.24821 2.67641 2.01736e-19)
(0.246588 2.69024 -1.31774e-19)
(0.24481 2.70439 0)
(0.242868 2.71886 0)
(0.240757 2.73367 5.76186e-20)
(0.238472 2.74883 -1.155e-19)
(0.236006 2.76436 0)
(0.233353 2.78025 0)
(0.230506 2.79653 -5.18616e-20)
(0.22746 2.8132 -9.84912e-20)
(0.224207 2.83027 5.12504e-20)
(0.220742 2.84775 9.46206e-20)
(0.217057 2.86566 0)
(0.213148 2.88401 0)
(0.209007 2.9028 0)
(0.20463 2.92205 7.88552e-20)
(0.20001 2.94178 -5.42337e-21)
(0.195145 2.96198 -1.52117e-19)
(0.190028 2.9827 0)
(0.184732 3.00362 6.74702e-20)
(0.179411 3.02419 6.33205e-20)
(0.174143 3.04414 -5.90742e-20)
(0.168947 3.0635 0)
(0.163822 3.08224 0)
(0.158754 3.10035 0)
(0.153773 3.11785 0)
(0.148882 3.13477 0)
(0.144079 3.15114 7.39773e-20)
(0.139365 3.16698 -1.23576e-19)
(0.13474 3.18231 8.37617e-20)
(0.130199 3.19714 -1.4942e-20)
(0.125743 3.21149 0)
(0.12138 3.22539 0)
(0.117132 3.23894 0)
(0.11303 3.25226 -2.5731e-20)
(0.109095 3.26544 3.38243e-20)
(0.105297 3.27844 2.59154e-20)
(0.101577 3.29114 -2.54795e-20)
(0.0979185 3.30349 1.86413e-20)
(0.0943136 3.31547 -3.5795e-20)
(0.0907614 3.32707 1.33107e-20)
(0.0872627 3.33827 0)
(0.0838184 3.34909 -6.29506e-21)
(0.0804299 3.35949 6.15864e-21)
(0.0770984 3.36947 3.23763e-22)
(0.089794 1.54225 0)
(-0.0841617 1.60028 -3.06321e-17)
(-0.0579269 1.60489 2.12465e-17)
(-0.0577589 1.61166 3.94687e-19)
(-0.0583062 1.62015 1.55956e-17)
(-0.0583695 1.62943 -2.21518e-17)
(-0.0580377 1.63962 9.05957e-18)
(-0.0572959 1.6511 8.04855e-18)
(-0.0560175 1.66437 -7.6223e-18)
(-0.0540511 1.67991 -7.2736e-18)
(-0.051247 1.69804 1.27813e-20)
(-0.047421 1.719 6.18078e-18)
(-0.0422316 1.74294 0)
(-0.0353422 1.7704 0)
(-0.0262181 1.80262 -5.00954e-18)
(-0.0141255 1.84126 4.84775e-18)
(0.00126259 1.887 0)
(0.0196691 1.93891 -3.97444e-18)
(0.0404574 1.99463 3.66688e-18)
(0.0626263 2.05121 0)
(0.0850249 2.10578 -2.75998e-18)
(0.106551 2.15605 2.2908e-18)
(0.126414 2.20055 6.71672e-20)
(0.143976 2.23874 0)
(0.158955 2.27096 1.72804e-18)
(0.171569 2.29811 -1.0823e-19)
(0.182015 2.32107 -2.99298e-18)
(0.190463 2.34071 1.40108e-18)
(0.197231 2.35777 -8.16807e-20)
(0.202601 2.37285 1.25088e-18)
(0.206873 2.38643 -1.06598e-18)
(0.210234 2.39891 0)
(0.212881 2.41064 8.5546e-19)
(0.214975 2.42188 -7.45069e-19)
(0.21664 2.4328 0)
(0.21797 2.44354 9.93391e-20)
(0.219034 2.45419 -9.27764e-20)
(0.21988 2.4648 -6.47067e-19)
(0.220541 2.47542 1.34067e-18)
(0.22104 2.48609 -8.17784e-20)
(0.221391 2.49683 -6.14747e-19)
(0.221603 2.50768 -6.44291e-19)
(0.221682 2.51864 1.0317e-18)
(0.221631 2.52974 -1.1022e-18)
(0.22145 2.54098 9.31756e-19)
(0.22114 2.5524 -3.91084e-19)
(0.220699 2.564 4.21596e-19)
(0.220125 2.57579 -9.1262e-19)
(0.219415 2.58779 7.76683e-19)
(0.218565 2.60001 -7.44827e-19)
(0.217572 2.61246 3.14855e-19)
(0.216431 2.62516 -4.28307e-20)
(0.215137 2.63812 0)
(0.213685 2.65136 0)
(0.212071 2.66487 -3.82087e-20)
(0.210287 2.67868 -7.36604e-20)
(0.208329 2.6928 2.8255e-19)
(0.206189 2.70723 -4.1565e-19)
(0.203861 2.722 -5.25756e-19)
(0.201338 2.7371 7.4429e-20)
(0.198613 2.75256 5.00301e-19)
(0.195678 2.76838 5.92353e-19)
(0.192526 2.78458 -5.82865e-19)
(0.189149 2.80115 5.54743e-20)
(0.185539 2.81813 0)
(0.181688 2.8355 5.25391e-20)
(0.177588 2.8533 3.94146e-19)
(0.173231 2.87151 -3.92237e-19)
(0.16861 2.89017 -1.86814e-19)
(0.163716 2.90927 -1.71435e-19)
(0.158544 2.92882 3.51272e-19)
(0.153086 2.94885 2.48641e-19)
(0.147335 2.96936 3.10149e-19)
(0.141288 2.99037 -3.10506e-19)
(0.135027 3.0116 -7.12838e-20)
(0.128735 3.03245 -6.69346e-20)
(0.122504 3.05268 6.25028e-20)
(0.116363 3.07231 1.18406e-19)
(0.1103 3.09132 3.24964e-19)
(0.104307 3.10968 -1.28949e-20)
(0.098413 3.12742 -1.99595e-19)
(0.0926201 3.14457 -4.53317e-20)
(0.0869289 3.16115 0)
(0.0813425 3.1772 1.97127e-20)
(0.0758618 3.19274 -1.75566e-20)
(0.0704854 3.20779 1.60498e-20)
(0.0652099 3.22236 0)
(0.0600327 3.23646 0)
(0.0549579 3.25014 -1.80526e-19)
(0.0500019 3.26346 7.04152e-21)
(0.0451929 3.27654 1.52145e-19)
(0.0405546 3.2895 0)
(0.0360813 3.30234 0)
(0.0317115 3.31493 8.16434e-20)
(0.0274135 3.32716 -1.45395e-19)
(0.0231865 3.33902 7.18368e-20)
(0.0190312 3.35048 0)
(0.014949 3.36153 0)
(0.0109417 3.37217 -1.59162e-20)
(0.00701163 3.38239 9.028e-21)
(0.0556701 1.54581 4.17243e-17)
(-0.121105 1.60271 -6.53026e-17)
(-0.0941916 1.60712 1.00551e-16)
(-0.0942493 1.6122 -3.27495e-17)
(-0.0952142 1.61898 6.04572e-19)
(-0.0958043 1.62646 0)
(-0.0961597 1.63458 3.27941e-19)
(-0.0962893 1.64351 0)
(-0.0961095 1.65354 0)
(-0.0955257 1.66507 5.03315e-19)
(-0.0943954 1.67842 2.37286e-19)
(-0.0925986 1.69387 0)
(-0.0899969 1.71168 0)
(-0.0864376 1.73203 3.81577e-19)
(-0.0816733 1.75503 -5.56349e-18)
(-0.0753579 1.78102 4.61412e-18)
(-0.0671765 1.81073 -4.41772e-18)
(-0.0565241 1.84546 4.47781e-18)
(-0.0428602 1.88628 -1.3167e-19)
(-0.0262952 1.93294 -4.11973e-18)
(-0.00718815 1.98401 3.29463e-18)
(0.0137526 2.03729 3.91488e-19)
(0.0355852 2.09032 1.74081e-19)
(0.0572866 2.14088 0)
(0.0779379 2.18724 0)
(0.0969162 2.22838 2.06901e-18)
(0.113638 2.26399 -1.53544e-18)
(0.127975 2.29452 -2.00815e-19)
(0.140157 2.32072 -1.21069e-18)
(0.150292 2.34325 1.40501e-18)
(0.158556 2.3629 0)
(0.165217 2.38024 0)
(0.170532 2.39576 1.44008e-19)
(0.17473 2.40989 2.01965e-18)
(0.178012 2.42298 -4.04463e-18)
(0.180552 2.43535 1.77995e-18)
(0.1825 2.44724 1.10268e-19)
(0.183979 2.45883 -2.07237e-19)
(0.185084 2.47023 1.93987e-19)
(0.185885 2.48155 9.04532e-20)
(0.186434 2.49285 0)
(0.186763 2.50419 7.98117e-20)
(0.186898 2.5156 1.51156e-19)
(0.186854 2.5271 -9.90945e-19)
(0.186643 2.53873 1.105e-20)
(0.186269 2.55051 1.15432e-18)
(0.185737 2.56246 0)
(0.185048 2.57459 -6.66742e-22)
(0.184199 2.58692 -2.20502e-19)
(0.183189 2.59946 0)
(0.182015 2.61224 1.00018e-19)
(0.180673 2.62525 -7.62919e-19)
(0.179158 2.63853 7.41661e-19)
(0.177463 2.65207 0)
(0.175585 2.66589 1.70197e-19)
(0.173515 2.68001 0)
(0.171247 2.69444 -1.57355e-19)
(0.168773 2.70919 -5.99038e-19)
(0.166087 2.72427 5.86739e-19)
(0.163179 2.73969 1.40482e-19)
(0.160042 2.75546 0)
(0.156666 2.7716 -6.4324e-19)
(0.153043 2.78811 1.37808e-18)
(0.149162 2.80501 -1.22897e-20)
(0.145015 2.82231 -2.46235e-19)
(0.140592 2.84001 -1.24441e-19)
(0.135883 2.85813 -8.63694e-19)
(0.130879 2.87668 1.34919e-20)
(0.12557 2.89566 8.07331e-19)
(0.119946 2.91509 1.91019e-21)
(0.113999 2.93498 0)
(0.107721 2.95533 5.18223e-19)
(0.101102 2.97617 1.39724e-19)
(0.094137 2.9975 -6.6523e-19)
(0.0869224 3.01904 0)
(0.0796673 3.04019 0)
(0.0724821 3.06071 -1.35936e-19)
(0.0653952 3.08063 3.6648e-19)
(0.0583954 3.09992 -1.07328e-18)
(0.0514766 3.11855 8.97235e-19)
(0.0446674 3.13655 -5.39348e-19)
(0.037969 3.15394 -3.30183e-19)
(0.0313821 3.17076 3.76719e-19)
(0.0249107 3.18703 -3.66339e-19)
(0.0185572 3.20279 6.20069e-19)
(0.0123228 3.21805 -2.9528e-19)
(0.00620638 3.23284 2.47644e-19)
(0.000205424 3.24717 -4.67814e-19)
(-0.00568312 3.26106 2.00464e-20)
(-0.0114581 3.27454 1.90837e-20)
(-0.0171082 3.28767 1.92053e-19)
(-0.0226119 3.30055 0)
(-0.0279486 3.31331 1.09211e-19)
(-0.0331004 3.326 -1.95326e-19)
(-0.0381262 3.33847 3.53595e-21)
(-0.0430696 3.35057 9.20263e-21)
(-0.0479184 3.36228 5.9466e-21)
(-0.0526717 3.37357 7.01099e-21)
(-0.057328 3.38443 2.70837e-20)
(-0.0618841 3.39486 8.5479e-22)
(0.02185 1.54838 -1.3294e-18)
(-0.156937 1.60363 -1.33979e-16)
(-0.129644 1.6086 1.52172e-19)
(-0.129799 1.61288 2.38182e-18)
(-0.131009 1.61873 4.50967e-17)
(-0.131911 1.62519 3.06603e-17)
(-0.132679 1.63212 -4.08604e-19)
(-0.133339 1.63957 -1.98731e-17)
(-0.13386 1.64768 0)
(-0.134154 1.65666 1.67673e-17)
(-0.13415 1.66681 -1.62865e-17)
(-0.133743 1.67839 0)
(-0.132809 1.69166 0)
(-0.131235 1.70689 -4.39722e-19)
(-0.128888 1.72428 4.07787e-19)
(-0.125641 1.74401 3.76405e-19)
(-0.121321 1.76616 1.06339e-17)
(-0.115606 1.79087 -9.98163e-18)
(-0.108288 1.81861 0)
(-0.0989054 1.85033 2.68445e-19)
(-0.0868709 1.88711 8.88861e-18)
(-0.0720699 1.92917 -1.54028e-17)
(-0.0546866 1.97584 6.73156e-18)
(-0.0351595 2.02561 3.91395e-19)
(-0.0142261 2.07648 5.59238e-18)
(0.0072353 2.12644 -5.01483e-18)
(0.0283057 2.17373 -4.73642e-18)
(0.048207 2.21697 4.50556e-18)
(0.0664453 2.25549 7.44909e-22)
(0.0824678 2.28915 -3.22596e-18)
(0.0962724 2.31846 3.00221e-18)
(0.108101 2.34399 0)
(0.117979 2.36633 0)
(0.12608 2.38612 -2.4766e-18)
(0.132639 2.40383 2.639e-18)
(0.137877 2.41987 -2.19138e-18)
(0.141996 2.43461 2.07466e-18)
(0.145179 2.44839 -1.69221e-18)
(0.147583 2.46147 -2.12874e-19)
(0.14938 2.4741 1.41679e-20)
(0.150621 2.48644 3.2147e-18)
(0.151474 2.49861 -3.01987e-18)
(0.151973 2.51072 1.24918e-18)
(0.152174 2.52282 0)
(0.152119 2.53498 0)
(0.151831 2.54723 -1.48119e-19)
(0.151327 2.55961 -1.11711e-18)
(0.15062 2.57215 9.3568e-19)
(0.149714 2.58486 -7.51434e-19)
(0.148614 2.59778 1.20518e-18)
(0.147319 2.61091 1.13522e-18)
(0.145828 2.62428 -1.09368e-18)
(0.144138 2.63789 0)
(0.142244 2.65177 -5.88183e-19)
(0.14014 2.66594 7.66172e-19)
(0.137821 2.68039 0)
(0.135279 2.69515 1.73573e-19)
(0.132506 2.71023 1.66518e-19)
(0.129494 2.72565 -3.22188e-19)
(0.126234 2.7414 -1.53558e-19)
(0.122715 2.75751 2.97545e-19)
(0.118929 2.77399 1.12671e-18)
(0.114864 2.79085 -1.38188e-18)
(0.11051 2.8081 1.04089e-18)
(0.105856 2.82574 -1.521e-18)
(0.100889 2.8438 9.89247e-19)
(0.0955989 2.86227 -1.15956e-18)
(0.0899734 2.88117 1.143e-18)
(0.0840009 2.90051 -2.15637e-19)
(0.0776699 2.92029 -1.02429e-18)
(0.0709694 2.94053 8.14814e-19)
(0.0638886 2.96124 0)
(0.0564172 2.98242 -1.82504e-19)
(0.0485464 3.0041 0)
(0.0403856 3.02597 0)
(0.0321725 3.04745 0)
(0.0240335 3.06827 7.11819e-19)
(0.0160026 3.0885 -5.63593e-19)
(0.00806952 3.10808 -2.61101e-19)
(0.000220899 3.127 -2.45937e-19)
(-0.0075113 3.14528 1.13675e-19)
(-0.0151252 3.16294 -1.07915e-19)
(-0.0226198 3.18002 -3.84934e-19)
(-0.0299913 3.19654 3.8279e-19)
(-0.0372365 3.21253 3.28069e-19)
(-0.0443534 3.22802 -2.47203e-20)
(-0.0513405 3.24303 -8.4392e-19)
(-0.0581977 3.25759 4.56934e-20)
(-0.0649264 3.27171 4.86475e-19)
(-0.0715284 3.28541 -5.23294e-20)
(-0.0780036 3.29872 2.35942e-20)
(-0.0843449 3.31169 -2.95773e-19)
(-0.0905384 3.32443 2.8376e-19)
(-0.0965667 3.33703 -1.40351e-20)
(-0.102399 3.34957 1.11022e-20)
(-0.108086 3.36189 1.23501e-19)
(-0.113672 3.37382 -2.26132e-19)
(-0.119134 3.38533 1.06128e-19)
(-0.124469 3.39639 4.85269e-20)
(-0.129678 3.40701 -7.20658e-20)
(-0.134757 3.41715 2.50994e-20)
(-0.139704 3.42682 -1.48383e-21)
(-0.144515 3.43599 -3.75256e-20)
(-0.149189 3.44466 3.62476e-20)
(-0.0112489 1.5501 8.94018e-17)
(-0.191757 1.60354 0)
(-0.164213 1.60931 1.18238e-16)
(-0.1644 1.61317 1.15665e-18)
(-0.165751 1.61849 -1.0445e-16)
(-0.166828 1.62439 7.13159e-17)
(-0.167832 1.63067 -2.55727e-17)
(-0.168801 1.63732 0)
(-0.169713 1.64441 1.92557e-17)
(-0.170534 1.65201 -3.45418e-17)
(-0.171226 1.66028 1.61274e-17)
(-0.171703 1.66942 -5.0952e-19)
(-0.171892 1.67965 1.59718e-17)
(-0.171703 1.69123 -3.10937e-17)
(-0.17101 1.70437 1.43791e-17)
(-0.169701 1.71933 -8.6778e-19)
(-0.167661 1.7363 1.28819e-17)
(-0.164767 1.75544 -1.11837e-17)
(-0.160892 1.77684 0)
(-0.155803 1.80051 9.87048e-18)
(-0.149245 1.8268 -1.01553e-17)
(-0.140958 1.85628 -5.20492e-19)
(-0.130449 1.8898 0)
(-0.117322 1.92796 -9.23923e-19)
(-0.101662 1.97059 0)
(-0.0837076 2.01678 5.83261e-18)
(-0.063964 2.06506 3.28029e-19)
(-0.0431641 2.11366 -5.70369e-18)
(-0.0221229 2.16092 -2.83314e-19)
(-0.00166984 2.20545 0)
(0.0175433 2.24612 0)
(0.0350805 2.28252 0)
(0.050491 2.3147 -2.63018e-18)
(0.0638445 2.34311 2.82207e-18)
(0.0753411 2.36822 -3.30398e-19)
(0.0849775 2.39055 2.48919e-18)
(0.0929165 2.4106 -2.07072e-18)
(0.0993602 2.42877 2.21678e-18)
(0.104501 2.44541 -2.10761e-18)
(0.108505 2.46086 0)
(0.111559 2.47541 2.32594e-18)
(0.1138 2.48931 -1.76612e-18)
(0.115365 2.50278 1.23358e-18)
(0.116371 2.51598 -1.17685e-18)
(0.11691 2.52903 3.68747e-19)
(0.117051 2.54203 -3.4771e-19)
(0.116849 2.55506 0)
(0.11634 2.56817 -1.88088e-21)
(0.115551 2.58139 0)
(0.114502 2.59478 1.92329e-18)
(0.113203 2.60835 -2.37275e-18)
(0.111661 2.62213 2.48117e-19)
(0.109879 2.63614 -1.87955e-18)
(0.107856 2.65041 1.59084e-18)
(0.105591 2.66495 -2.13915e-19)
(0.103078 2.67978 0)
(0.100312 2.69491 0)
(0.0972859 2.71035 -1.48312e-18)
(0.0939911 2.72613 3.83995e-19)
(0.0904184 2.74225 1.38561e-18)
(0.0865577 2.75872 9.73499e-19)
(0.082398 2.77557 -1.27485e-18)
(0.0779278 2.79279 0)
(0.0731346 2.81041 0)
(0.0680054 2.82843 -2.77282e-19)
(0.0625271 2.84686 0)
(0.0566859 2.86571 -2.60492e-19)
(0.0504679 2.885 7.24493e-19)
(0.0438589 2.90472 -9.61515e-19)
(0.0368451 2.92489 4.55892e-19)
(0.0294125 2.94551 4.3705e-19)
(0.0215477 2.9666 4.18663e-19)
(0.0132381 2.98817 0)
(0.00447228 3.01022 3.57935e-19)
(-0.00462833 3.03246 -3.75047e-19)
(-0.0137964 3.05428 6.57479e-19)
(-0.0228923 3.07542 -3.31495e-19)
(-0.0318677 3.09595 1.1548e-18)
(-0.0407363 3.11586 -7.03893e-20)
(-0.0495222 3.1351 1.99875e-19)
(-0.0581893 3.15368 -1.03405e-18)
(-0.0667336 3.17163 7.87946e-19)
(-0.0751538 3.18899 -6.84782e-19)
(-0.0834457 3.20579 0)
(-0.0916058 3.22204 9.48965e-20)
(-0.0996316 3.23779 6.64291e-19)
(-0.107521 3.25305 -1.31836e-19)
(-0.115272 3.26784 -5.00129e-20)
(-0.122883 3.28219 -5.39968e-19)
(-0.130353 3.29612 -1.38766e-21)
(-0.137681 3.30965 2.82467e-19)
(-0.144866 3.32282 -3.73158e-19)
(-0.151903 3.33567 2.8177e-19)
(-0.158784 3.34828 -2.8574e-19)
(-0.165492 3.36075 1.88521e-19)
(-0.171995 3.37313 -1.69987e-19)
(-0.178334 3.38524 0)
(-0.184542 3.39692 0)
(-0.190586 3.40815 6.1615e-20)
(-0.196471 3.41892 -5.29347e-20)
(-0.202197 3.42921 1.00638e-21)
(-0.207763 3.439 -2.93812e-22)
(-0.213166 3.44828 -3.53539e-20)
(-0.218403 3.45705 3.40951e-20)
(-0.0435316 1.55105 -4.06693e-18)
(-0.22561 1.60257 2.9896e-16)
(-0.19786 1.60913 -2.53967e-16)
(-0.198036 1.6127 8.65512e-17)
(-0.199458 1.6177 0)
(-0.200625 1.62326 0)
(-0.201752 1.62919 -1.81985e-18)
(-0.202887 1.63543 -2.3156e-17)
(-0.204016 1.642 3.86583e-17)
(-0.205122 1.64893 -1.75456e-17)
(-0.206185 1.65627 0)
(-0.207172 1.66412 4.44201e-23)
(-0.208046 1.67261 -4.90504e-19)
(-0.208719 1.68193 0)
(-0.209127 1.69226 9.61327e-19)
(-0.209187 1.70382 9.43448e-19)
(-0.208767 1.71684 -9.0802e-19)
(-0.207768 1.73155 -8.55311e-19)
(-0.206074 1.74814 0)
(-0.203576 1.76678 0)
(-0.200155 1.78755 6.79064e-19)
(-0.195663 1.81046 -1.98731e-22)
(-0.189831 1.83563 5.58745e-19)
(-0.182502 1.86344 -3.01928e-22)
(-0.173319 1.89449 0)
(-0.161793 1.92947 -4.5013e-19)
(-0.147824 1.96851 -1.25875e-18)
(-0.131533 2.01124 -3.87253e-19)
(-0.113224 2.05664 0)
(-0.0934438 2.10334 0)
(-0.0729028 2.1498 -5.75269e-19)
(-0.0523628 2.19465 5.1859e-19)
(-0.0325577 2.23675 2.79294e-18)
(-0.0140222 2.27527 -4.43904e-19)
(0.00280666 2.30996 -4.04454e-19)
(0.0176432 2.34102 -3.19757e-18)
(0.0305906 2.3688 -2.6455e-18)
(0.0417528 2.39368 3.14417e-18)
(0.0511472 2.41614 -2.36092e-18)
(0.0589091 2.43659 2.25123e-18)
(0.0652126 2.45534 -5.2903e-19)
(0.0702194 2.47269 0)
(0.0740839 2.48894 4.25128e-18)
(0.0769557 2.50436 -3.60216e-18)
(0.0789766 2.51919 -4.22597e-19)
(0.0802752 2.53362 3.99254e-19)
(0.080961 2.54781 3.79476e-19)
(0.0811227 2.56188 -2.12888e-18)
(0.0808299 2.57592 2.71953e-18)
(0.0801353 2.59001 0)
(0.0790774 2.6042 -6.07174e-19)
(0.0776841 2.61854 0)
(0.0759739 2.63307 0)
(0.073959 2.64781 -5.17767e-19)
(0.0716459 2.66281 0)
(0.069037 2.67807 -4.67994e-19)
(0.0661315 2.69362 4.4563e-19)
(0.0629258 2.70947 -1.67701e-18)
(0.0594139 2.72565 2.03471e-18)
(0.0555878 2.74217 1.52598e-18)
(0.0514384 2.75905 -1.85796e-18)
(0.0469551 2.77629 7.07301e-19)
(0.0421256 2.79391 6.54761e-19)
(0.0369365 2.81193 -1.30556e-18)
(0.0313733 2.83036 1.21865e-18)
(0.0254215 2.8492 -1.19915e-18)
(0.0190652 2.86846 5.63648e-19)
(0.0122879 2.88816 1.06795e-18)
(0.00507308 2.9083 -1.05668e-18)
(-0.00259634 2.92889 -4.94765e-19)
(-0.0107371 2.94993 -9.5217e-19)
(-0.0193658 2.97144 4.38768e-19)
(-0.028498 2.99342 1.24852e-18)
(-0.0381477 3.01589 -4.50735e-19)
(-0.0481819 3.03852 1.13544e-18)
(-0.0583044 3.06071 -1.51226e-18)
(-0.0683568 3.08219 4.86578e-21)
(-0.0782889 3.10304 -9.33437e-19)
(-0.0881095 3.1233 1.57292e-18)
(-0.0978403 3.14288 0)
(-0.107456 3.1618 0)
(-0.116948 3.18008 2.5594e-19)
(-0.126314 3.19775 -1.1711e-18)
(-0.13555 3.21485 9.28891e-19)
(-0.144653 3.2314 6.97408e-19)
(-0.153618 3.24744 -6.01455e-19)
(-0.162445 3.26297 5.81621e-19)
(-0.171129 3.27803 -5.8367e-19)
(-0.179667 3.29264 -7.26381e-20)
(-0.188055 3.3068 6.3335e-20)
(-0.196287 3.32056 5.58742e-20)
(-0.204357 3.33392 0)
(-0.212259 3.34694 0)
(-0.219988 3.35966 3.4861e-20)
(-0.227542 3.37216 2.96074e-20)
(-0.23489 3.3845 1.69452e-19)
(-0.242027 3.39667 -3.12796e-20)
(-0.24898 3.40846 -1.41733e-19)
(-0.255756 3.4198 6.70578e-20)
(-0.262337 3.43068 -6.81776e-20)
(-0.268728 3.44108 -1.26339e-20)
(-0.274931 3.45096 1.20914e-20)
(-0.280945 3.46033 -3.14621e-20)
(-0.286764 3.46916 -2.04874e-20)
(-0.0749496 1.55128 -8.98761e-17)
(-0.258503 1.60075 1.55852e-16)
(-0.230536 1.60799 -2.70467e-16)
(-0.230657 1.61129 9.63319e-17)
(-0.232094 1.61603 1.99265e-18)
(-0.233291 1.6214 -4.34855e-17)
(-0.23447 1.62713 6.49547e-17)
(-0.235681 1.63315 -2.5185e-17)
(-0.236914 1.63947 2.15626e-17)
(-0.238161 1.64607 -1.82232e-17)
(-0.239413 1.65299 0)
(-0.240658 1.66026 4.82473e-19)
(-0.241874 1.66792 -1.54012e-17)
(-0.243032 1.67608 1.48392e-17)
(-0.244096 1.68485 -9.27654e-19)
(-0.244981 1.69438 -1.48279e-17)
(-0.245642 1.70484 1.57135e-17)
(-0.245961 1.71644 1.55015e-17)
(-0.245867 1.7294 -3.57162e-20)
(-0.245216 1.74392 -1.34861e-17)
(-0.243908 1.7602 -7.89273e-19)
(-0.241834 1.77842 7.33438e-19)
(-0.238884 1.79866 -2.03215e-18)
(-0.23495 1.82096 -6.15784e-19)
(-0.22984 1.84529 -1.00367e-17)
(-0.223333 1.8719 9.12527e-18)
(-0.215272 1.90118 -6.8534e-22)
(-0.20526 1.93365 8.7236e-19)
(-0.192926 1.96969 -8.20521e-19)
(-0.178326 2.00922 7.62156e-19)
(-0.161623 2.05168 6.28626e-18)
(-0.143178 2.09607 -5.75613e-18)
(-0.12355 2.14112 5.78206e-19)
(-0.103415 2.18555 -1.48168e-21)
(-0.0834843 2.2282 4.73682e-19)
(-0.0643925 2.26816 4.29467e-19)
(-0.0465681 2.30486 -6.62542e-18)
(-0.0304702 2.3382 4.37068e-20)
(-0.0162215 2.36842 6.02357e-18)
(-0.00368592 2.39579 0)
(0.00712464 2.42065 0)
(0.0162492 2.44342 0)
(0.0238037 2.46439 -4.78739e-18)
(0.0299252 2.48384 4.07124e-18)
(0.0347483 2.50203 0)
(0.0384074 2.51921 0)
(0.0410381 2.53564 -3.85938e-18)
(0.0427718 2.55153 2.87734e-18)
(0.0437281 2.56707 3.07578e-18)
(0.0440097 2.58239 -2.94783e-18)
(0.0437016 2.59761 6.91576e-19)
(0.0428716 2.61284 0)
(0.0415719 2.62813 0)
(0.0398418 2.64356 1.18177e-18)
(0.0377093 2.65917 2.22532e-18)
(0.0351936 2.67499 -1.6159e-18)
(0.0323072 2.69107 -5.03845e-19)
(0.0290569 2.70743 0)
(0.0254434 2.72408 -2.2696e-18)
(0.0214635 2.74107 3.42088e-20)
(0.0171127 2.7584 2.09262e-18)
(0.012384 2.77609 -1.58502e-18)
(0.00726565 2.79415 7.52779e-19)
(0.00174328 2.81262 0)
(-0.00419722 2.83148 0)
(-0.0105708 2.85077 6.37305e-19)
(-0.0173947 2.87048 -3.69274e-20)
(-0.0246879 2.89063 -3.76228e-20)
(-0.0324697 2.91123 -5.91017e-19)
(-0.0407601 2.93228 0)
(-0.0495793 2.95379 1.04968e-18)
(-0.0589471 2.97576 1.00794e-18)
(-0.0688825 2.9982 -1.43604e-18)
(-0.0794029 3.02112 -9.00754e-19)
(-0.0903649 3.04419 0)
(-0.101444 3.06679 -2.38495e-18)
(-0.112459 3.08863 1.94064e-18)
(-0.123367 3.10983 5.34435e-21)
(-0.134154 3.13044 -3.38906e-19)
(-0.144838 3.15039 3.22824e-19)
(-0.155419 3.16967 3.04965e-19)
(-0.16588 3.18831 0)
(-0.176216 3.20633 0)
(-0.186425 3.22377 0)
(-0.196502 3.24066 -8.85021e-19)
(-0.206444 3.25702 -1.45031e-19)
(-0.216249 3.27287 1.7451e-18)
(-0.22591 3.28824 -8.24338e-19)
(-0.235423 3.30313 -5.30687e-19)
(-0.244778 3.31756 5.98435e-19)
(-0.253965 3.33155 0)
(-0.262967 3.34511 4.15283e-19)
(-0.27177 3.35828 -4.0035e-19)
(-0.280362 3.37111 0)
(-0.288744 3.38365 -6.52384e-20)
(-0.296915 3.39599 -1.91063e-19)
(-0.304836 3.40815 1.81661e-19)
(-0.312543 3.41999 -1.12109e-19)
(-0.320061 3.4314 1.07932e-19)
(-0.327355 3.44236 0)
(-0.334437 3.45283 -2.36076e-20)
(-0.341306 3.46279 1.84893e-20)
(-0.347957 3.47221 2.72151e-20)
(-0.354386 3.48108 -7.59673e-20)
(-0.360586 3.48937 5.14199e-20)
(-0.10552 1.5508 2.85762e-18)
(-0.290429 1.59809 0)
(-0.262205 1.60582 -1.35305e-16)
(-0.262234 1.60881 1.02594e-16)
(-0.263643 1.61333 -8.56885e-23)
(-0.264829 1.61854 -1.47901e-18)
(-0.266015 1.62415 0)
(-0.267249 1.63007 -2.63951e-17)
(-0.26852 1.63626 2.31783e-17)
(-0.269823 1.64272 0)
(-0.271156 1.64946 1.06451e-18)
(-0.272515 1.65648 0)
(-0.273892 1.66381 6.03513e-23)
(-0.275276 1.67148 -1.39826e-17)
(-0.276648 1.67954 2.76311e-17)
(-0.277981 1.68807 -1.38901e-17)
(-0.279231 1.69719 1.39921e-17)
(-0.280361 1.70701 -2.99988e-17)
(-0.281265 1.71767 1.41814e-17)
(-0.281891 1.72938 8.81962e-19)
(-0.282117 1.74233 -8.62236e-19)
(-0.281849 1.75673 -1.15338e-17)
(-0.280957 1.77278 1.40507e-17)
(-0.279335 1.79065 1.45695e-18)
(-0.276881 1.81046 1.35014e-18)
(-0.273496 1.83226 -1.23496e-18)
(-0.269057 1.85601 1.1192e-18)
(-0.263354 1.88175 0)
(-0.256243 1.90976 -6.5794e-22)
(-0.247508 1.94039 7.68876e-22)
(-0.236771 1.97402 -7.98694e-19)
(-0.223848 2.01077 0)
(-0.208838 2.05041 0)
(-0.191958 2.09231 1.0761e-17)
(-0.17361 2.13551 -8.13888e-18)
(-0.154345 2.1789 0)
(-0.134797 2.22139 -7.64377e-18)
(-0.115618 2.26207 1.22001e-17)
(-0.0973347 2.30015 -7.16815e-18)
(-0.0803325 2.33531 0)
(-0.0650028 2.3676 -6.01772e-18)
(-0.0513467 2.39723 5.05946e-18)
(-0.0392722 2.4244 1.19123e-18)
(-0.0288553 2.44947 -5.0594e-18)
(-0.0200498 2.47271 3.76994e-18)
(-0.0127611 2.49437 0)
(-0.00688729 2.51465 3.84643e-18)
(-0.00232207 2.53381 -4.61352e-18)
(0.00105076 2.55208 3.4679e-18)
(0.00335288 2.56967 -2.50072e-18)
(0.00470345 2.58678 -3.91257e-18)
(0.00521235 2.60357 3.00318e-18)
(0.00497594 2.62018 -7.10462e-19)
(0.00407526 2.63672 1.99866e-18)
(0.00257605 2.65329 -3.84145e-20)
(0.000528799 2.66996 -2.44089e-18)
(-0.00202297 2.68678 0)
(-0.00505403 2.70381 -3.26318e-18)
(-0.00854972 2.72109 3.11107e-18)
(-0.0125009 2.73867 -1.99435e-18)
(-0.0168961 2.75654 0)
(-0.0217319 2.77477 8.90551e-19)
(-0.0270182 2.79336 2.54046e-18)
(-0.0327692 2.81233 7.76501e-19)
(-0.0389954 2.8317 -3.96941e-20)
(-0.0457084 2.85149 -7.61443e-19)
(-0.0529261 2.8717 2.77295e-18)
(-0.0606698 2.89236 -2.72487e-18)
(-0.0689609 2.91346 -1.27969e-18)
(-0.0778218 2.93503 2.39651e-18)
(-0.0872761 2.95705 -1.77732e-18)
(-0.0973469 2.97953 -2.21502e-18)
(-0.108057 3.00249 3.1082e-18)
(-0.119428 3.02592 -1.03914e-18)
(-0.131307 3.04948 0)
(-0.143344 3.07253 -8.48013e-19)
(-0.155334 3.09478 8.83039e-19)
(-0.167242 3.11633 -2.69071e-18)
(-0.179017 3.13729 1.87657e-18)
(-0.190671 3.15764 -6.99809e-19)
(-0.202237 3.17733 -1.61762e-18)
(-0.21369 3.19636 7.92382e-20)
(-0.225025 3.21478 7.71975e-20)
(-0.236239 3.2326 1.12926e-18)
(-0.247329 3.24986 1.23278e-18)
(-0.258288 3.26659 -7.05088e-20)
(-0.269113 3.2828 -6.75336e-19)
(-0.279796 3.29852 1.97835e-19)
(-0.290325 3.31374 -6.75139e-19)
(-0.300682 3.32847 8.22333e-19)
(-0.310848 3.34271 0)
(-0.320801 3.35646 4.60943e-19)
(-0.330517 3.36975 -7.84017e-19)
(-0.339981 3.38262 3.75729e-19)
(-0.349192 3.39517 3.04357e-19)
(-0.35816 3.40749 -2.53129e-19)
(-0.366853 3.41964 2.36477e-20)
(-0.375328 3.43151 -1.08842e-19)
(-0.383611 3.44298 1.08517e-19)
(-0.391658 3.45402 9.45529e-21)
(-0.399472 3.46457 4.69029e-21)
(-0.407048 3.47458 0)
(-0.414375 3.48404 9.96584e-22)
(-0.421444 3.49292 -2.40681e-21)
(-0.428249 3.50119 -3.65163e-21)
(-0.434782 3.50885 1.58186e-19)
(-0.441041 3.5159 -1.65401e-19)
(-0.135265 1.54966 -9.29743e-17)
(-0.321382 1.59455 0)
(-0.29283 1.60258 1.50115e-16)
(-0.292753 1.60524 -1.07914e-16)
(-0.294106 1.60953 -2.28691e-18)
(-0.295259 1.61461 3.16561e-18)
(-0.296428 1.62013 3.73365e-17)
(-0.297656 1.62598 -3.02048e-17)
(-0.298931 1.63211 -1.50095e-18)
(-0.300248 1.63851 -2.16848e-17)
(-0.301606 1.64517 1.78979e-17)
(-0.303005 1.6521 1.00236e-18)
(-0.304441 1.6593 4.14092e-23)
(-0.305914 1.66679 8.60003e-19)
(-0.307415 1.67458 8.22035e-19)
(-0.308936 1.68272 1.28355e-17)
(-0.310461 1.69124 -2.96681e-20)
(-0.311964 1.70023 -1.21772e-17)
(-0.31341 1.70976 0)
(-0.314751 1.71994 -8.36315e-19)
(-0.31593 1.7309 -1.18235e-17)
(-0.31685 1.74281 1.18536e-17)
(-0.317428 1.75585 1.32635e-17)
(-0.317549 1.77022 -1.28711e-17)
(-0.317095 1.78613 0)
(-0.315951 1.80375 1.44332e-18)
(-0.314011 1.82321 0)
(-0.311178 1.84458 1.24001e-18)
(-0.307366 1.86787 2.24951e-18)
(-0.302433 1.89304 -1.02052e-18)
(-0.296184 1.92017 9.1965e-19)
(-0.288528 1.9495 -1.67534e-18)
(-0.279228 1.98131 1.55478e-18)
(-0.267949 2.0158 -1.3057e-17)
(-0.254652 2.05291 1.08605e-17)
(-0.239477 2.09235 0)
(-0.222689 2.13347 9.1783e-18)
(-0.204698 2.17539 -6.34676e-18)
(-0.186033 2.21712 0)
(-0.167285 2.25778 0)
(-0.149026 2.29662 7.99487e-19)
(-0.13167 2.33307 0)
(-0.115648 2.367 -6.74307e-19)
(-0.101139 2.39853 0)
(-0.0880865 2.4278 -4.15405e-18)
(-0.0765656 2.45504 4.54324e-18)
(-0.0666136 2.48052 -1.07616e-18)
(-0.0581995 2.50442 1.01708e-18)
(-0.051267 2.52691 0)
(-0.0457484 2.54821 -9.1991e-19)
(-0.041558 2.56851 8.75058e-19)
(-0.0385939 2.58802 8.37979e-19)
(-0.0367467 2.60693 -5.5566e-21)
(-0.0359082 2.62541 0)
(-0.0359774 2.64362 2.13034e-18)
(-0.0368746 2.66167 -4.25711e-20)
(-0.03848 2.6797 -2.61685e-18)
(-0.0408434 2.69778 1.22867e-18)
(-0.0437991 2.716 -1.15624e-18)
(-0.0473716 2.73441 1.13132e-18)
(-0.0514958 2.75303 -2.09907e-18)
(-0.0561693 2.77192 3.02052e-18)
(-0.0614058 2.79118 -2.89529e-18)
(-0.0672088 2.81079 -2.71256e-18)
(-0.0735646 2.83076 1.75978e-18)
(-0.0804757 2.85114 -8.31525e-19)
(-0.0879622 2.87195 -3.1044e-18)
(-0.0960472 2.89318 1.53638e-18)
(-0.104752 2.91487 -6.62398e-19)
(-0.1141 2.93701 4.12958e-18)
(-0.124118 2.95962 1.58861e-20)
(-0.134832 2.98269 -1.56359e-20)
(-0.146266 3.00622 -2.2816e-18)
(-0.158448 3.03023 2.20546e-18)
(-0.17122 3.05436 -3.18234e-18)
(-0.184205 3.07793 -1.90976e-18)
(-0.197178 3.10065 2.81287e-18)
(-0.210102 3.1226 -1.68776e-18)
(-0.222916 3.1439 4.04207e-18)
(-0.235598 3.16464 -1.19221e-18)
(-0.248168 3.18477 1.40679e-18)
(-0.260637 3.20424 -1.41249e-18)
(-0.273 3.22308 -1.56579e-18)
(-0.28525 3.24133 9.35832e-19)
(-0.297381 3.25902 7.97133e-19)
(-0.309388 3.27616 -1.32431e-18)
(-0.321262 3.29278 -2.32934e-19)
(-0.332987 3.30888 3.93266e-19)
(-0.344536 3.32446 -1.74463e-18)
(-0.355878 3.3395 7.29e-19)
(-0.366991 3.35399 1.5523e-19)
(-0.377858 3.36793 0)
(-0.388468 3.38132 -5.6708e-20)
(-0.398813 3.39422 3.64511e-19)
(-0.408899 3.40672 -3.86833e-19)
(-0.418729 3.41897 -2.05956e-19)
(-0.428268 3.4311 4.14746e-19)
(-0.437581 3.44307 -1.79773e-19)
(-0.446687 3.45466 1.18331e-19)
(-0.455543 3.46579 -1.09972e-19)
(-0.464138 3.4764 -6.97397e-20)
(-0.472459 3.48646 5.34943e-20)
(-0.480491 3.49592 -3.27671e-20)
(-0.488221 3.50475 4.04212e-20)
(-0.495639 3.51294 0)
(-0.502739 3.52048 4.66774e-21)
(-0.509517 3.52737 0)
(-0.515974 3.53363 -6.51742e-21)
(-0.164208 1.54789 9.43873e-17)
(-0.351352 1.59014 -3.48394e-16)
(-0.322397 1.59831 -4.49206e-18)
(-0.322219 1.60062 1.12058e-16)
(-0.3235 1.60469 0)
(-0.324615 1.60965 -1.66391e-18)
(-0.325761 1.6151 -3.93874e-17)
(-0.326976 1.62089 5.20477e-20)
(-0.328245 1.62698 2.38058e-17)
(-0.329561 1.63334 1.34584e-18)
(-0.330923 1.63997 1.75772e-17)
(-0.332332 1.64685 -3.23347e-20)
(-0.333786 1.654 -2.93692e-17)
(-0.335287 1.66142 1.22442e-17)
(-0.336834 1.66912 -1.30771e-17)
(-0.338423 1.67712 1.24708e-17)
(-0.340051 1.68543 0)
(-0.341709 1.69409 -1.48463e-18)
(-0.343385 1.70314 1.48958e-18)
(-0.345055 1.71264 -1.51425e-18)
(-0.346691 1.72266 2.46997e-17)
(-0.348249 1.73329 -2.51958e-17)
(-0.349675 1.74464 0)
(-0.350894 1.75685 0)
(-0.351816 1.77008 1.58144e-18)
(-0.35233 1.78454 0)
(-0.352326 1.8004 1.49411e-18)
(-0.351676 1.81787 2.12763e-17)
(-0.35027 1.83707 -2.40628e-17)
(-0.348007 1.85811 2.48095e-18)
(-0.344806 1.88103 2.26045e-18)
(-0.340577 1.90579 1.84154e-17)
(-0.335175 1.93233 -1.67035e-17)
(-0.328436 1.96077 1.67017e-18)
(-0.320308 1.99129 -1.36793e-17)
(-0.31058 2.02406 1.13366e-17)
(-0.298979 2.05914 0)