/*--------------------------------*- C++ -*----------------------------------*\
  =========                 |
  \\      /  F ield         | OpenFOAM: The Open Source CFD Toolbox
   \\    /   O peration     | Website:  https://openfoam.org
    \\  /    A nd           | Version:  10
     \\/     M anipulation  |
\*---------------------------------------------------------------------------*/
FoamFile
{
    format      ascii;
    class       volScalarField;
    location    "36000";
    object      yPlus;
}
// * * * * * * * * * * * * * * * * * * * * * * * * * * * * * * * * * * * * * //

dimensions      [0 0 0 0 0 0 0];

internalField   uniform 0;

boundaryField
{
    right
    {
        type            cyclic;
    }
    left
    {
        type            cyclic;
    }
    outerWall
    {
        type            calculated;
        value           nonuniform List<scalar> 0();
    }
    stirrerWall
    {
        type            calculated;
        value           nonuniform List<scalar> 
398
(
0.163602
0.115563
0.090014
0.0771911
0.069892
0.0653632
0.0624655
0.0608266
0.0603154
0.0608763
0.0624575
0.0649922
0.0684178
0.0726911
0.0776275
0.0831715
0.0892833
0.0959871
0.103281
0.111081
0.11935
0.128128
0.13714
0.146205
0.155253
0.164137
0.172771
0.181038
0.188766
0.195814
0.202033
0.207297
0.211485
0.214521
0.216732
0.218405
0.219532
0.21989
0.219003
0.216643
0.213577
0.209282
0.204306
0.199207
0.192963
0.18606
0.178899
0.171434
0.163957
0.156624
0.14939
0.142305
0.135401
0.128674
0.122119
0.1157
0.109312
0.103036
0.0970116
0.0912897
0.0858707
0.0807205
0.0758377
0.0711537
0.0666375
0.0623147
0.0581
0.0540919
0.050243
0.0466239
0.0433905
0.0407082
0.0386268
0.0371079
0.0359246
0.0345218
0.0320579
0.0275802
0.0201199
0.00583138
0.00583138
0.01556
0.00660486
0.00927168
0.0113884
0.0145638
0.0178
0.0207501
0.0229155
0.0243606
0.0251793
0.0254559
0.0252826
0.0247518
0.0239439
0.0229269
0.0217512
0.0204808
0.019139
0.0178172
0.0166207
0.0155151
0.0144659
0.0134627
0.0125154
0.0116343
0.0108379
0.0101553
0.00961963
0.00927672
0.00919475
0.00954587
0.0105209
0.0121546
0.0143883
0.0170155
0.0198124
0.0225947
0.0252531
0.0277522
0.0302111
0.032708
0.0351881
0.037687
0.0402911
0.0432138
0.0464641
0.0503546
0.0551374
0.06156
0.0693541
0.0790976
0.0907715
0.103971
0.119248
0.136759
0.156514
0.178638
0.203217
0.230332
0.260032
0.292395
0.327558
0.365763
0.40738
0.452903
0.502888
0.5579
0.618571
0.685812
0.760565
0.844347
0.93844
1.04518
1.1671
1.30107
1.4418
1.58576
1.72992
1.87115
2.01147
2.14234
2.26242
2.3722
2.47126
2.56153
2.64481
2.72353
2.79971
2.87424
2.94763
3.01964
3.08948
3.1566
3.21993
3.27309
3.31658
3.35471
3.38317
3.40027
3.40511
3.4022
3.39235
3.37681
3.35461
3.32541
3.28983
3.24806
3.20083
3.14837
3.0906
3.02731
2.95779
2.88147
2.8012
2.71657
2.63358
2.5462
2.45483
2.36002
2.26287
2.16449
2.06583
1.96784
1.87171
1.77882
1.69074
1.60844
0.0217957
0.0349486
0.0228227
0.0184128
0.0215903
0.0318645
0.0518723
0.0846852
0.118892
0.148241
0.170614
0.184914
0.191577
0.191701
0.185917
0.17456
0.163801
0.153883
0.14356
0.132727
0.121572
0.110288
0.0992023
0.0885653
0.0785226
0.0692897
0.0609325
0.0535312
0.0472869
0.0424399
0.0393884
0.0395839
0.0535604
0.0833567
0.129315
0.178896
0.223255
0.254564
0.274918
0.294271
0.316696
0.345756
0.378233
0.409637
0.437571
0.467722
0.498966
0.530661
0.567641
0.613222
0.679751
0.790964
0.961917
1.36928
2.42776
4.33551
6.7418
9.04353
10.6718
10.9806
9.93562
9.7556
11.6242
11.7458
10.0463
11.8673
11.1331
10.0102
10.6339
11.93
12.3991
12.6314
11.4329
12.9042
11.3128
11.7267
12.7797
11.5402
13.1352
11.7293
12.2919
12.2889
12.0523
11.5579
11.7337
11.908
12.0803
12.2522
12.4232
12.5932
12.7627
12.9321
13.1015
13.2713
13.4416
13.6128
13.785
13.9584
14.1332
14.3095
14.4877
14.6681
14.8513
15.0371
15.2258
15.4177
15.6131
15.8121
16.0148
16.2199
0.0217957
0.0619219
0.0904147
0.12368
0.12745
0.126368
0.12989
0.133088
0.14572
0.167838
0.195546
0.228983
0.268035
0.312624
0.362807
0.418613
0.47996
0.546536
0.618044
0.69399
0.773673
0.856708
0.942831
1.03185
1.12392
1.22062
1.32649
1.43813
1.54819
1.65638
1.76266
1.86596
1.96546
2.06255
2.16127
2.25939
2.35266
2.45216
2.55843
2.66524
2.78283
2.85157
2.89145
2.946
2.99281
3.04607
3.10059
3.15748
3.21915
3.28976
3.37266
3.46944
3.58673
3.72945
3.90152
4.10554
4.34794
4.63584
4.97694
5.37573
5.83032
6.26569
6.6735
7.0238
7.26784
7.24087
6.7333
5.62933
4.0343
2.40021
1.31784
0.893823
0.7002
0.685819
0.691518
0.627826
0.536981
0.44102
0.338789
0.240456
)
;
    }
    top
    {
        type            empty;
    }
    bottom
    {
        type            empty;
    }
    procBoundary1to0
    {
        type            processor;
        value           uniform 0;
    }
}


// ************************************************************************* //
