/*--------------------------------*- C++ -*----------------------------------*\
  =========                 |
  \\      /  F ield         | OpenFOAM: The Open Source CFD Toolbox
   \\    /   O peration     | Website:  https://openfoam.org
    \\  /    A nd           | Version:  10
     \\/     M anipulation  |
\*---------------------------------------------------------------------------*/
FoamFile
{
    format      ascii;
    class       volScalarField;
    location    "500";
    object      k;
}
// * * * * * * * * * * * * * * * * * * * * * * * * * * * * * * * * * * * * * //

dimensions      [0 2 -2 0 0 0 0];

internalField   nonuniform List<scalar> 
420
(
2.22045e-16
2.22045e-16
4.47855e-16
1.32935e-15
2.77705e-15
4.73463e-15
7.20478e-15
1.05676e-14
1.62087e-14
2.49671e-14
2.22045e-16
2.22045e-16
3.4128e-16
9.9775e-16
2.07149e-15
3.55074e-15
5.57243e-15
8.65942e-15
1.35489e-14
2.06403e-14
2.22045e-16
2.22045e-16
2.6218e-16
7.44753e-16
1.54416e-15
2.70017e-15
4.42106e-15
7.18856e-15
1.11419e-14
1.65026e-14
2.22045e-16
2.22045e-16
2.22045e-16
5.64837e-16
1.16986e-15
2.08052e-15
3.4694e-15
5.61613e-15
8.37718e-15
1.24379e-14
2.22045e-16
2.22045e-16
2.22045e-16
4.27202e-16
8.75257e-16
1.55623e-15
2.5579e-15
3.98709e-15
5.76877e-15
9.21724e-15
2.22045e-16
2.22045e-16
2.22045e-16
3.05386e-16
6.1009e-16
1.06944e-15
1.69694e-15
2.51971e-15
3.72287e-15
7.0857e-15
2.22045e-16
2.22045e-16
2.22045e-16
2.22045e-16
3.58771e-16
6.18581e-16
9.50463e-16
1.37038e-15
2.30158e-15
5.93033e-15
2.22045e-16
2.22045e-16
2.22045e-16
2.22045e-16
2.22045e-16
2.57197e-16
3.92657e-16
6.07808e-16
1.40987e-15
5.37329e-15
2.22045e-16
2.22045e-16
2.22045e-16
2.22045e-16
2.22045e-16
2.22045e-16
2.22045e-16
2.22045e-16
8.43498e-16
4.14618e-15
2.22045e-16
2.22045e-16
2.22045e-16
2.22045e-16
2.22045e-16
2.22045e-16
2.22045e-16
2.22045e-16
2.22045e-16
1.1108e-15
3.87366e-14
6.24319e-14
1.09396e-13
1.88441e-13
2.76107e-13
3.16278e-13
2.66869e-13
1.7505e-13
1.23395e-13
4.98378e-14
3.23257e-14
5.58702e-14
1.08409e-13
1.96221e-13
2.86662e-13
3.17765e-13
2.54845e-13
1.54851e-13
1.1607e-13
4.83902e-14
2.68157e-14
5.21658e-14
1.12698e-13
2.09155e-13
2.98349e-13
3.17374e-13
2.3906e-13
1.3557e-13
1.06563e-13
4.72961e-14
2.24994e-14
5.13807e-14
1.21656e-13
2.25389e-13
3.09193e-13
3.13865e-13
2.20614e-13
1.20095e-13
9.70634e-14
4.64723e-14
1.99581e-14
5.36638e-14
1.34694e-13
2.43167e-13
3.17578e-13
3.06786e-13
2.0145e-13
1.08556e-13
8.83635e-14
4.52739e-14
1.90644e-14
5.85978e-14
1.50666e-13
2.60722e-13
3.22894e-13
2.97248e-13
1.85362e-13
1.00415e-13
8.06812e-14
4.3508e-14
1.95154e-14
6.58162e-14
1.68549e-13
2.7667e-13
3.24931e-13
2.86309e-13
1.73037e-13
9.50251e-14
7.44935e-14
4.15272e-14
1.95976e-14
7.44965e-14
1.8771e-13
2.90195e-13
3.24216e-13
2.75679e-13
1.6386e-13
9.10831e-14
7.07589e-14
4.02102e-14
1.76354e-14
8.35223e-14
2.06579e-13
3.00441e-13
3.20794e-13
2.65553e-13
1.57067e-13
8.85432e-14
6.9009e-14
3.95732e-14
1.14592e-14
9.38622e-14
2.24135e-13
3.06459e-13
3.16023e-13
2.57682e-13
1.53659e-13
8.81925e-14
6.83637e-14
3.93995e-14
8.55299e-15
1.15101e-13
2.42246e-13
3.12063e-13
3.17102e-13
2.57178e-13
1.53912e-13
9.00561e-14
6.75729e-14
3.97523e-14
2.03414e-14
1.44667e-13
2.54711e-13
3.13605e-13
3.14955e-13
2.54268e-13
1.53035e-13
9.10171e-14
6.70671e-14
4.08972e-14
7.67831e-14
1.82986e-13
2.63533e-13
3.09002e-13
3.07109e-13
2.47992e-13
1.5226e-13
9.24102e-14
6.79e-14
4.27196e-14
1.38029e-13
2.05763e-13
2.5788e-13
2.9451e-13
2.96423e-13
2.43898e-13
1.55765e-13
9.69504e-14
7.10357e-14
4.52539e-14
1.48953e-13
1.96854e-13
2.42483e-13
2.80429e-13
2.88361e-13
2.43191e-13
1.626e-13
1.04005e-13
7.46979e-14
4.78169e-14
1.37337e-13
1.79612e-13
2.2452e-13
2.6607e-13
2.82151e-13
2.46147e-13
1.72705e-13
1.13298e-13
7.9161e-14
5.06334e-14
1.19043e-13
1.58736e-13
2.03659e-13
2.49745e-13
2.75883e-13
2.51564e-13
1.8566e-13
1.247e-13
8.4795e-14
5.35525e-14
9.94469e-14
1.36679e-13
1.81331e-13
2.32097e-13
2.69162e-13
2.59199e-13
2.01186e-13
1.37965e-13
9.17237e-14
5.60794e-14
8.13222e-14
1.15674e-13
1.59365e-13
2.1389e-13
2.62368e-13
2.68379e-13
2.18277e-13
1.52207e-13
1.00211e-13
5.74231e-14
6.71756e-14
9.78602e-14
1.39584e-13
1.97325e-13
2.57146e-13
2.78744e-13
2.35499e-13
1.66106e-13
1.10081e-13
5.66875e-14
5.47067e-14
8.21333e-14
1.23504e-13
1.86371e-13
2.56627e-13
2.90296e-13
2.51065e-13
1.78643e-13
1.20816e-13
5.41753e-14
4.65791e-14
7.24438e-14
1.15564e-13
1.85495e-13
2.65969e-13
3.07733e-13
2.67513e-13
1.8752e-13
1.28387e-13
5.17414e-14
1.02728e-14
6.99639e-14
1.05469e-13
1.04098e-13
9.04475e-14
7.38494e-14
5.83935e-14
4.7332e-14
3.78269e-14
3.06196e-14
2.24286e-15
3.25104e-14
6.76479e-14
7.41593e-14
6.58066e-14
5.28956e-14
4.06086e-14
3.18462e-14
2.49223e-14
1.97631e-14
5.98941e-16
1.31558e-14
3.79893e-14
4.86378e-14
4.58729e-14
3.7367e-14
2.85962e-14
2.19246e-14
1.67492e-14
1.30501e-14
2.22045e-16
5.25755e-15
1.86035e-14
2.71636e-14
2.79313e-14
2.42186e-14
1.94678e-14
1.5192e-14
1.16809e-14
9.1246e-15
2.22045e-16
2.04115e-15
8.2611e-15
1.33491e-14
1.48637e-14
1.37699e-14
1.17445e-14
9.60018e-15
7.61506e-15
6.03136e-15
2.22045e-16
7.4306e-16
3.31488e-15
5.86128e-15
7.01775e-15
6.88897e-15
6.15325e-15
5.26593e-15
4.33495e-15
3.50882e-15
2.22045e-16
2.47553e-16
1.17196e-15
2.25505e-15
2.89062e-15
2.98556e-15
2.74742e-15
2.41659e-15
2.03084e-15
1.66833e-15
2.22045e-16
2.22045e-16
3.45228e-16
7.04382e-16
9.50925e-16
1.01135e-15
9.33516e-16
8.20865e-16
6.86783e-16
5.63762e-16
2.22045e-16
2.22045e-16
2.22045e-16
2.22045e-16
2.22045e-16
2.22045e-16
2.22045e-16
2.22045e-16
2.22045e-16
2.22045e-16
2.22045e-16
2.22045e-16
2.22045e-16
2.22045e-16
2.22045e-16
2.22045e-16
2.22045e-16
2.22045e-16
2.22045e-16
2.22045e-16
)
;

boundaryField
{
    right
    {
        type            cyclic;
    }
    left
    {
        type            cyclic;
    }
    outerWall
    {
        type            kqRWallFunction;
        value           nonuniform List<scalar> 
22
(
4.98378e-14
4.83902e-14
4.72961e-14
4.64723e-14
4.52739e-14
4.3508e-14
4.15272e-14
4.02102e-14
3.95732e-14
3.93995e-14
3.97523e-14
4.08972e-14
4.27196e-14
4.52539e-14
4.78169e-14
5.06334e-14
5.35525e-14
5.60794e-14
5.74231e-14
5.66875e-14
5.41753e-14
5.17414e-14
)
;
    }
    stirrerWall
    {
        type            kqRWallFunction;
        value           nonuniform List<scalar> 
42
(
2.22045e-16
2.22045e-16
2.22045e-16
2.22045e-16
2.22045e-16
2.22045e-16
2.22045e-16
2.22045e-16
2.22045e-16
2.22045e-16
2.22045e-16
2.22045e-16
2.22045e-16
2.22045e-16
2.22045e-16
2.22045e-16
2.22045e-16
2.22045e-16
2.22045e-16
1.1108e-15
8.55299e-15
2.03414e-14
1.02728e-14
2.24286e-15
5.98941e-16
2.22045e-16
2.22045e-16
2.22045e-16
2.22045e-16
2.22045e-16
2.22045e-16
2.22045e-16
2.22045e-16
2.22045e-16
2.22045e-16
2.22045e-16
2.22045e-16
2.22045e-16
2.22045e-16
2.22045e-16
2.22045e-16
2.22045e-16
)
;
    }
    top
    {
        type            empty;
    }
    bottom
    {
        type            empty;
    }
}


// ************************************************************************* //
