/*--------------------------------*- C++ -*----------------------------------*\
  =========                 |
  \\      /  F ield         | OpenFOAM: The Open Source CFD Toolbox
   \\    /   O peration     | Website:  https://openfoam.org
    \\  /    A nd           | Version:  10
     \\/     M anipulation  |
\*---------------------------------------------------------------------------*/
FoamFile
{
    format      ascii;
    class       volScalarField;
    location    "500";
    object      k;
}
// * * * * * * * * * * * * * * * * * * * * * * * * * * * * * * * * * * * * * //

dimensions      [0 2 -2 0 0 0 0];

internalField   nonuniform List<scalar> 
2000
(
4.80793e-06
0.000116413
0.000829555
0.00294459
0.00693597
0.0119537
0.0169362
0.0217235
0.0264022
0.0310451
0.0355293
0.040231
0.047351
0.0599076
0.0807424
0.109125
0.136942
0.150872
0.164359
0.185425
3.31648e-06
8.44004e-05
0.000563402
0.0020222
0.00500749
0.00914301
0.0134278
0.0175159
0.0216131
0.0259398
0.0308432
0.0375249
0.048755
0.0684618
0.0970942
0.124465
0.135903
0.144545
0.153317
0.169863
2.33147e-06
6.12901e-05
0.000390347
0.00137074
0.00355219
0.00695218
0.0107741
0.0144192
0.0181199
0.0223545
0.0281188
0.0380754
0.0577007
0.0889055
0.116327
0.127328
0.133176
0.135971
0.13893
0.149354
1.68551e-06
4.48983e-05
0.000276152
0.000944763
0.00246154
0.00507647
0.00838766
0.0117775
0.0153263
0.0198093
0.0272393
0.0433484
0.0780317
0.105799
0.118468
0.124421
0.125693
0.120699
0.117181
0.124435
1.35117e-06
3.56095e-05
0.00020876
0.000674162
0.00172831
0.00364892
0.0063623
0.00949463
0.0130766
0.0182582
0.0288544
0.0562728
0.0893453
0.11003
0.119368
0.121169
0.110904
0.0971776
0.0916591
0.0978516
1.28447e-06
3.29107e-05
0.000180829
0.000519545
0.00124215
0.00263754
0.0048798
0.00777635
0.0115624
0.0182702
0.0352861
0.0650695
0.0950898
0.110861
0.116784
0.109677
0.0873802
0.0716743
0.0666131
0.0723596
1.44963e-06
3.62678e-05
0.000186913
0.000465627
0.000969052
0.00199124
0.00383886
0.00660517
0.0108657
0.0205181
0.0419014
0.0706721
0.0941341
0.105894
0.106628
0.0898702
0.0641855
0.0496171
0.0455743
0.0507369
1.83657e-06
4.50911e-05
0.000220722
0.000492313
0.00088187
0.00163609
0.0031661
0.00586186
0.0107564
0.0233993
0.0464121
0.0723962
0.0909161
0.0990117
0.0936037
0.0676258
0.0444682
0.0337176
0.0305692
0.0341322
2.48066e-06
5.91448e-05
0.000277048
0.000581931
0.000936863
0.00151912
0.00280857
0.00544678
0.0109525
0.0256757
0.0488687
0.0716759
0.086508
0.0920189
0.0817809
0.0535602
0.0335427
0.0247818
0.0214273
0.022816
3.54144e-06
7.88787e-05
0.000350483
0.000714795
0.00109865
0.00159855
0.00272872
0.0053213
0.0112197
0.0266641
0.0495065
0.0694324
0.0817478
0.0855302
0.0718672
0.044455
0.0286234
0.0214542
0.0173683
0.0163163
5.10218e-06
0.000106741
0.00043455
0.000868016
0.00133455
0.00185668
0.00292407
0.00549893
0.0115493
0.0263682
0.0485622
0.0661629
0.0767754
0.0798744
0.06541
0.0413816
0.0289917
0.0223925
0.01704
0.0136121
7.08742e-06
0.000139616
0.000525217
0.00102408
0.0016045
0.00228015
0.00339596
0.00596159
0.0119142
0.0256467
0.045868
0.061964
0.0715404
0.0750965
0.0619551
0.0424521
0.0330576
0.0260797
0.0190153
0.0134979
9.17155e-06
0.00017061
0.000600474
0.0011645
0.00187102
0.00276884
0.00409314
0.00669145
0.0123493
0.0248499
0.0428738
0.0572998
0.0656373
0.0692127
0.06023
0.0481639
0.039746
0.0308598
0.0218561
0.0147543
1.07107e-05
0.000189959
0.000633354
0.00123839
0.00207187
0.00324517
0.00492417
0.00772029
0.0129085
0.0240396
0.0398103
0.0526265
0.0598608
0.0630362
0.0581642
0.0518315
0.0446311
0.0347379
0.0244261
0.0161227
1.09084e-05
0.000186553
0.000596355
0.00119002
0.00209744
0.00352742
0.00570679
0.00887816
0.0137576
0.0235149
0.0370018
0.0485089
0.0550343
0.0575119
0.0550393
0.0515433
0.0457547
0.0360579
0.0254473
0.0166586
9.28183e-06
0.000153834
0.000477128
0.000985014
0.00184949
0.00335523
0.0059098
0.00963626
0.0149111
0.0235428
0.0349633
0.0451459
0.0514068
0.0537786
0.0522989
0.049663
0.0441375
0.0345845
0.0241645
0.0156502
6.14092e-06
9.73731e-05
0.000295671
0.000642561
0.00130459
0.00257755
0.00495777
0.00918143
0.0149841
0.0233795
0.0334512
0.042479
0.0482503
0.0506349
0.0498859
0.0470149
0.0394673
0.0291533
0.0195479
0.0124447
2.72243e-06
3.86603e-05
0.000116771
0.000270458
0.000603632
0.00132026
0.00279998
0.00576487
0.0108461
0.0186047
0.0288294
0.0366624
0.041583
0.0432485
0.0413245
0.0356354
0.0265846
0.0178505
0.0114026
0.00729662
7.00392e-07
7.3527e-06
1.95865e-05
4.67545e-05
0.000111101
0.000264654
0.000623647
0.0014533
0.00348043
0.00718282
0.0133574
0.0183488
0.0208566
0.0205165
0.0173398
0.0118574
0.00755253
0.0045878
0.00283581
0.0022872
2.87006e-08
2.93804e-07
6.81564e-07
1.64827e-06
3.98799e-06
9.66942e-06
2.31871e-05
5.52303e-05
0.000137447
0.0003877
0.0009158
0.00146938
0.00164777
0.00136166
0.00078045
0.000462785
0.000284397
0.000167376
0.00012976
0.000520527
0.223006
0.286185
0.389678
0.552598
0.788527
1.09975
1.46501
1.85554
2.23933
2.59715
2.94631
3.36353
4.00134
5.12991
7.41143
12.2612
24.6448
61.434
194.175
787.562
0.20243
0.261096
0.36162
0.524081
0.763304
1.07673
1.44199
1.83065
2.21356
2.57358
2.92899
3.35485
4.00374
5.14171
7.4343
12.2697
24.5667
61.0605
193.632
787.44
0.177525
0.23281
0.331665
0.494069
0.735528
1.05123
1.41752
1.80632
2.19006
2.55289
2.91403
3.3467
4.00441
5.14953
7.45301
12.2759
24.4764
60.583
192.686
786.545
0.149975
0.202743
0.299726
0.462396
0.706514
1.02528
1.39332
1.78301
2.16818
2.534
2.90043
3.33878
4.00431
5.15555
7.46969
12.2817
24.3844
60.0262
191.446
785.325
0.121295
0.171727
0.266872
0.429779
0.677008
0.999684
1.37033
1.7619
2.14938
2.51833
2.88935
3.33212
4.00417
5.15999
7.48385
12.2854
24.2845
59.4101
189.852
783.62
0.093972
0.141605
0.234377
0.397528
0.648556
0.975941
1.34983
1.74394
2.13407
2.5058
2.8805
3.32655
4.00406
5.16334
7.49638
12.2888
24.1804
58.7438
187.821
780.858
0.069792
0.113747
0.203507
0.3669
0.622386
0.955214
1.33285
1.7299
2.12279
2.49688
2.87449
3.32292
4.00502
5.16677
7.50856
12.2939
24.0779
58.0396
185.281
776.236
0.0496838
0.0891133
0.175364
0.339274
0.600112
0.939135
1.32086
1.72084
2.11601
2.49163
2.87127
3.32122
4.00698
5.17055
7.52031
12.3019
23.9836
57.3202
182.216
768.963
0.0342437
0.068468
0.15101
0.31607
0.583159
0.928724
1.31441
1.71695
2.11374
2.49009
2.87086
3.32155
4.00995
5.17496
7.53217
12.3141
23.9042
56.6259
178.681
758.478
0.0234262
0.052141
0.131283
0.298532
0.572692
0.924856
1.31428
1.71894
2.11661
2.49274
2.87367
3.3244
4.01468
5.18095
7.54498
12.3322
23.8447
55.9869
174.832
744.679
0.0167875
0.0403217
0.117185
0.288324
0.570297
0.928529
1.32085
1.72659
2.12394
2.49859
2.8788
3.32915
4.0207
5.18849
7.5587
12.3568
23.8066
55.4309
170.902
728.058
0.0136504
0.0331544
0.109879
0.287162
0.577223
0.940173
1.33386
1.73924
2.13512
2.50733
2.88591
3.33559
4.02788
5.19786
7.57367
12.3893
23.7889
54.9813
167.164
709.624
0.0131018
0.0311851
0.111023
0.29699
0.594597
0.960025
1.35301
1.75613
2.14886
2.51789
2.89435
3.34344
4.03609
5.20912
7.58941
12.4277
23.7879
54.6512
163.854
690.842
0.0132514
0.0317184
0.119398
0.317952
0.623444
0.988559
1.37754
1.77628
2.1644
2.52901
2.90281
3.35168
4.04467
5.22201
7.60471
12.4697
23.8013
54.4448
161.008
672.311
0.0132484
0.0340529
0.134716
0.349863
0.662534
1.02383
1.40556
1.7976
2.18
2.54014
2.91119
3.36005
4.05304
5.23589
7.6209
12.515
23.8277
54.3632
158.668
654.38
0.0125606
0.0382986
0.158071
0.392879
0.709648
1.06239
1.43395
1.81767
2.19357
2.5493
2.91798
3.36782
4.06047
5.24932
7.63403
12.5635
23.8539
54.4031
156.806
637.427
0.0109226
0.0451994
0.191702
0.447272
0.761987
1.10081
1.45988
1.83424
2.20355
2.55539
2.92226
3.37391
4.06617
5.26157
7.64365
12.6119
23.8625
54.5589
155.285
621.811
0.00883808
0.0555644
0.237766
0.510621
0.814295
1.13444
1.48019
1.84496
2.20819
2.55719
2.92311
3.37772
4.06944
5.27186
7.64825
12.6537
23.846
54.8288
153.816
607.849
0.00724495
0.0702446
0.297039
0.576389
0.859907
1.1584
1.49157
1.84708
2.20532
2.55323
2.91975
3.37862
4.06936
5.27896
7.6468
12.6815
23.805
55.1001
152.425
595.938
0.00588705
0.0912725
0.366711
0.634726
0.889685
1.16349
1.48709
1.83652
2.19212
2.5398
2.90824
3.37354
4.06465
5.28095
7.64125
12.678
23.7639
54.9901
151.201
586.288
0.00544423
0.125587
0.441039
0.664755
0.889963
1.14776
1.46299
1.80832
2.16333
2.51293
2.8823
3.3528
4.04804
5.27507
7.62841
12.6609
23.7277
54.588
147.727
577.492
0.00570197
0.134391
0.453225
0.667136
0.886237
1.13974
1.45229
1.7966
2.1517
2.50201
2.87207
3.34344
4.04047
5.26852
7.62159
12.6449
23.7101
54.4643
147.763
578.064
0.00633785
0.147096
0.467201
0.66854
0.879233
1.12687
1.43579
1.77939
2.13545
2.48713
2.85828
3.33049
4.03007
5.25927
7.614
12.6285
23.7029
54.3893
148.363
580.697
0.00714243
0.161055
0.479221
0.667215
0.86894
1.11073
1.4163
1.76
2.11786
2.4714
2.84372
3.31641
4.01785
5.24785
7.60437
12.6109
23.7036
54.3563
149.234
584.263
0.00807011
0.175418
0.488174
0.662412
0.854945
1.09121
1.39403
1.73885
2.09943
2.4553
2.82877
3.30147
4.00388
5.23404
7.59214
12.5916
23.7122
54.3684
150.331
588.678
0.00911644
0.189614
0.493453
0.653837
0.83715
1.06829
1.36908
1.71615
2.08042
2.4391
2.81364
3.28583
3.98831
5.2178
7.57714
12.5705
23.7284
54.4251
151.631
593.889
0.0102925
0.20315
0.494642
0.641381
0.815591
1.04206
1.34164
1.69213
2.0611
2.42304
2.79855
3.26965
3.97127
5.19917
7.55932
12.5474
23.7519
54.5249
153.113
599.829
0.0116178
0.215538
0.491455
0.625041
0.790394
1.01269
1.31193
1.66706
2.04173
2.40737
2.78372
3.25312
3.95294
5.17825
7.53868
12.5223
23.7824
54.6657
154.758
606.425
0.0131192
0.226288
0.483734
0.604899
0.761765
0.980403
1.28023
1.64122
2.02264
2.39238
2.76939
3.23646
3.93354
5.1552
7.51526
12.4952
23.8197
54.8452
156.549
613.597
0.0148302
0.234923
0.471457
0.581118
0.729987
0.945459
1.24684
1.61496
2.00416
2.37839
2.75584
3.21991
3.91334
5.13021
7.48916
12.466
23.8634
55.0611
158.471
621.269
0.016792
0.240994
0.454757
0.553962
0.695416
0.908151
1.21212
1.58863
1.98666
2.36574
2.74336
3.20378
3.89263
5.10358
7.46054
12.4348
23.9131
55.3112
160.51
629.365
0.0190522
0.24411
0.433922
0.52382
0.658491
0.868944
1.17644
1.5626
1.97052
2.35479
2.73229
3.18848
3.87176
5.07561
7.42962
12.402
23.9688
55.5934
162.659
637.816
0.0216639
0.243962
0.409405
0.491175
0.619716
0.828435
1.14023
1.53722
1.95616
2.34593
2.72298
3.1744
3.8511
5.04673
7.39671
12.3681
24.03
55.9056
164.912
646.557
0.0246832
0.240352
0.381771
0.45659
0.579732
0.787249
1.10413
1.51305
1.94397
2.33959
2.71587
3.16192
3.83105
5.01738
7.3622
12.3335
24.0965
56.2462
167.27
655.524
0.0281659
0.233079
0.351778
0.420738
0.539336
0.746093
1.06884
1.49068
1.93449
2.33628
2.71143
3.15141
3.81208
4.98809
7.3266
12.2988
24.1682
56.6133
169.739
664.658
0.0321665
0.222117
0.320188
0.384337
0.499331
0.705786
1.03512
1.47065
1.92825
2.33644
2.71006
3.1433
3.79465
4.95947
7.29049
12.2647
24.245
57.0053
172.329
673.916
0.0367401
0.207673
0.28783
0.348182
0.460542
0.667087
1.00369
1.45373
1.92565
2.34047
2.71213
3.13797
3.77923
4.93216
7.25454
12.232
24.3265
57.419
175.053
683.251
0.041952
0.190175
0.255642
0.313259
0.423974
0.631017
0.9753
1.44035
1.92732
2.34878
2.71799
3.13585
3.76635
4.90689
7.21921
12.202
24.4127
57.8485
177.918
692.605
0.0479023
0.170315
0.224702
0.280677
0.390758
0.598757
0.950893
1.43111
1.9335
2.36166
2.72798
3.13729
3.75642
4.88436
7.18537
12.1761
24.5035
58.2895
180.927
701.894
0.0547811
0.149004
0.196198
0.251339
0.362022
0.57152
0.931622
1.4268
1.94456
2.37927
2.74226
3.14255
3.74991
4.86519
7.15418
12.1557
24.5996
58.7476
184.101
711.077
0.0677528
0.121398
0.165178
0.221082
0.334351
0.547084
0.916322
1.42799
1.96253
2.40425
2.76295
3.15262
3.74656
4.84732
7.12221
12.1339
24.703
59.2241
187.857
721.973
0.126411
0.137761
0.161106
0.215881
0.32991
0.548767
0.923408
1.44465
1.98813
2.43395
2.7895
3.17055
3.75642
4.84305
7.10455
12.1169
24.5905
59.4553
184.37
725.103
0.117051
0.123621
0.14905
0.206983
0.325823
0.551765
0.933527
1.461
2.00806
2.45427
2.80729
3.18375
3.7638
4.84251
7.09628
12.1083
24.6162
59.7605
182.552
727.985
0.104407
0.114142
0.143262
0.205057
0.329266
0.561625
0.949167
1.4812
2.03013
2.47433
2.82514
3.19808
3.77289
4.84512
7.09114
12.1049
24.6898
60.1347
182.3
732.555
0.0960366
0.108628
0.141062
0.207387
0.338049
0.577953
0.972363
1.50752
2.05517
2.49592
2.84409
3.21377
3.7841
4.85118
7.09013
12.1031
24.7562
60.5133
183.147
737.905
0.091838
0.106714
0.142169
0.213573
0.351311
0.599666
1.00149
1.53823
2.08216
2.51787
2.86311
3.22995
3.79675
4.86007
7.09317
12.1039
24.8198
60.9226
184.41
743.894
0.0902757
0.10766
0.146371
0.223314
0.369039
0.62725
1.03701
1.57401
2.11142
2.54078
2.8824
3.24678
3.81106
4.87165
7.10048
12.1077
24.8777
61.3258
185.908
750.318
0.0909189
0.110993
0.153372
0.236567
0.391416
0.66082
1.0787
1.61428
2.14258
2.56403
2.90164
3.26416
3.82671
4.88567
7.11131
12.1141
24.9283
61.7099
187.539
756.919
0.0935942
0.116226
0.163119
0.25357
0.41889
0.700426
1.12613
1.65814
2.17475
2.58701
2.92055
3.28168
3.84322
4.90161
7.12525
12.1227
24.9702
62.0578
189.272
763.348
0.0978655
0.123626
0.175817
0.274642
0.451688
0.745952
1.17857
1.70433
2.20686
2.60898
2.93851
3.29861
3.86036
4.91918
7.14195
12.1327
25.0023
62.3552
191.009
769.283
0.103753
0.133285
0.191702
0.300083
0.489888
0.797017
1.23469
1.75092
2.23735
2.6291
2.95524
3.31484
3.87771
4.93796
7.16096
12.1442
25.0243
62.5894
192.566
774.85
0.111429
0.145456
0.211123
0.330162
0.53339
0.852718
1.29247
1.79588
2.26501
2.64667
2.96984
3.32986
3.89481
4.95764
7.18203
12.1568
25.0359
62.7535
193.882
780.365
0.121271
0.160569
0.234519
0.365008
0.581703
0.911382
1.34926
1.8368
2.28825
2.66076
2.98172
3.34333
3.91143
4.97786
7.20469
12.1703
25.0364
62.8459
194.922
784.994
0.133744
0.179111
0.262164
0.404334
0.633565
0.970297
1.40192
1.87139
2.30588
2.67063
2.99039
3.35471
3.9271
4.99819
7.22862
12.1841
25.0255
62.87
195.698
788.791
0.149403
0.201455
0.293964
0.447237
0.686731
1.02602
1.44723
1.89775
2.31717
2.67603
2.99582
3.36394
3.94174
5.01839
7.25338
12.1977
25.0033
62.8288
196.194
791.601
0.168676
0.227565
0.329117
0.491774
0.73785
1.07461
1.48263
1.91515
2.32224
2.67703
2.99801
3.37089
3.95513
5.03803
7.27839
12.2104
24.9707
62.7237
195.97
792.419
0.191483
0.256604
0.365679
0.534636
0.782636
1.11228
1.50651
1.92376
2.32176
2.67409
2.99711
3.37533
3.9668
5.0566
7.30324
12.2219
24.9258
62.5628
195.796
791.697
0.216568
0.286043
0.399675
0.569327
0.815137
1.13666
1.51851
1.92484
2.3166
2.66728
2.99283
3.37711
3.9769
5.07408
7.32705
12.2315
24.8693
62.3453
195.41
790.487
0.238681
0.30761
0.419003
0.587619
0.830861
1.14636
1.51868
1.91788
2.30479
2.65496
2.98458
3.37611
3.98512
5.09053
7.35068
12.239
24.8016
62.0704
194.833
788.643
0.24105
0.308673
0.417451
0.582531
0.820117
1.13209
1.49851
1.8928
2.27725
2.6307
2.96871
3.37108
3.99173
5.10647
7.3755
12.2475
24.7319
61.7419
194.196
786.731
0.0261081
0.114285
0.124149
0.105652
0.0930143
0.0859619
0.0821588
0.0804159
0.0804335
0.0821236
0.0851305
0.0892724
0.0947828
0.102216
0.112327
0.125962
0.143787
0.165737
0.188904
0.198114
0.015547
0.10902
0.137662
0.115263
0.0987159
0.0890194
0.0832509
0.0797978
0.0779381
0.0776431
0.0787487
0.0804846
0.0828107
0.0861544
0.0913803
0.0997531
0.112671
0.131329
0.15572
0.172239
0.00983983
0.1032
0.151556
0.129101
0.109196
0.0970153
0.0895394
0.0846921
0.0816285
0.0801916
0.0803317
0.0804763
0.0803565
0.0802767
0.0809647
0.0837463
0.0905198
0.10363
0.125686
0.148493
0.00569353
0.0921506
0.161693
0.144634
0.122627
0.108047
0.0988912
0.0929241
0.0890515
0.0870536
0.0866898
0.0858121
0.0838568
0.0812093
0.0783024
0.0760327
0.0762208
0.0817477
0.096651
0.118384
0.00323366
0.073682
0.16145
0.159223
0.137468
0.121052
0.110335
0.103205
0.0986201
0.0964921
0.0959151
0.0941556
0.0904906
0.0860246
0.0809127
0.0752947
0.070247
0.0684762
0.0743701
0.0878069
0.00208369
0.0514611
0.14663
0.168521
0.151991
0.134806
0.122729
0.114568
0.109478
0.107802
0.107652
0.104584
0.0986836
0.0924318
0.0858197
0.0783939
0.0704003
0.0636806
0.0623522
0.0672202
0.0013655
0.0347925
0.117376
0.160466
0.160309
0.146048
0.13381
0.125064
0.119933
0.119161
0.120723
0.11498
0.106132
0.0975892
0.0894452
0.0810216
0.0720731
0.0632584
0.0573224
0.0556766
0.000886514
0.0232685
0.0878508
0.137309
0.153211
0.149153
0.139663
0.130546
0.124417
0.122857
0.1259
0.119126
0.108144
0.0986751
0.0896043
0.0805966
0.0716954
0.0628998
0.0550458
0.0494004
0.000563475
0.0151657
0.0623501
0.108359
0.133632
0.140324
0.13723
0.130776
0.124705
0.12089
0.119796
0.11535
0.106451
0.0967425
0.0872776
0.0780557
0.0691715
0.0607244
0.0526004
0.0453087
0.000346529
0.00953589
0.0425585
0.0802815
0.107582
0.121624
0.125648
0.124051
0.120244
0.116138
0.112219
0.107296
0.100132
0.0915698
0.0826049
0.0736532
0.0650051
0.0568133
0.0488905
0.0414174
0.000204164
0.00572467
0.0278854
0.0567188
0.0811874
0.0975778
0.106283
0.109266
0.108715
0.106104
0.102157
0.0971117
0.0905524
0.0829072
0.0747885
0.0666249
0.0586838
0.0510778
0.0437885
0.0368408
0.00011472
0.00326824
0.0174323
0.0383426
0.0581961
0.0734961
0.0836298
0.0891643
0.0910981
0.0903375
0.0875531
0.083392
0.0778983
0.0715042
0.0646494
0.0577068
0.0508654
0.0442269
0.0377934
0.0317175
6.14642e-05
0.00177333
0.0102509
0.0247516
0.0399164
0.0526524
0.0620609
0.0682012
0.0713342
0.071897
0.0703834
0.0673803
0.063341
0.0585611
0.0533369
0.0479163
0.0424008
0.0369121
0.0314836
0.0263278
3.11909e-05
0.000907446
0.00557712
0.0149882
0.0261003
0.0361723
0.0440621
0.0496061
0.0529291
0.0542026
0.0536835
0.051707
0.0490896
0.0458807
0.0422241
0.0382366
0.033995
0.0295885
0.0251237
0.0208216
1.47279e-05
0.000430674
0.0027609
0.00821666
0.015771
0.0234113
0.0298531
0.0346405
0.0377387
0.0392899
0.0394529
0.0384479
0.0368541
0.0347592
0.032193
0.0291978
0.0258601
0.0222785
0.0186051
0.0150822
6.14012e-06
0.000179693
0.0011874
0.00384132
0.00822486
0.0134458
0.0184018
0.022425
0.0252773
0.026956
0.0275469
0.0271775
0.0262016
0.0247048
0.0227067
0.0202947
0.0175611
0.0146705
0.0117907
0.00916588
1.997e-06
5.75973e-05
0.000385141
0.00137119
0.00334626
0.00617614
0.00935351
0.0122852
0.014575
0.0160455
0.0166537
0.0164412
0.015651
0.0144422
0.0128798
0.0110852
0.0091621
0.00726658
0.00552071
0.00409568
5.29395e-07
1.51282e-05
0.000100815
0.000361833
0.000951835
0.00201136
0.00340029
0.00484018
0.00602725
0.00675294
0.00692151
0.00656835
0.00596419
0.00526388
0.00448841
0.00368646
0.00291565
0.00221345
0.00161051
0.0011616
1.0679e-07
2.97956e-06
1.86751e-05
6.467e-05
0.000169866
0.000374109
0.000686333
0.00101067
0.00126211
0.00137999
0.00134105
0.00118209
0.0010234
0.000878222
0.000723266
0.000566637
0.000425202
0.000304096
0.000214866
0.000158255
1.23655e-08
2.77393e-07
1.2035e-06
3.55358e-06
8.38205e-06
1.68619e-05
2.95359e-05
4.43029e-05
5.49299e-05
5.84578e-05
5.47062e-05
4.6584e-05
3.86671e-05
3.15373e-05
2.5721e-05
2.01316e-05
1.5135e-05
1.09704e-05
7.97238e-06
6.16025e-06
)
;

boundaryField
{
    right
    {
        type            cyclic;
    }
    left
    {
        type            cyclic;
    }
    outerWall
    {
        type            kqRWallFunction;
        value           nonuniform List<scalar> 
60
(
787.562
787.44
786.545
785.325
783.62
780.858
776.236
768.963
758.478
744.679
728.058
709.624
690.842
672.311
654.38
637.427
621.811
607.849
595.938
586.288
577.492
578.064
580.697
584.263
588.678
593.889
599.829
606.425
613.597
621.269
629.365
637.816
646.557
655.524
664.658
673.916
683.251
692.605
701.894
711.077
721.973
725.103
727.985
732.555
737.905
743.894
750.318
756.919
763.348
769.283
774.85
780.365
784.994
788.791
791.601
792.419
791.697
790.487
788.643
786.731
)
;
    }
    stirrerWall
    {
        type            kqRWallFunction;
        value           nonuniform List<scalar> 
100
(
4.80793e-06
3.31648e-06
2.33147e-06
1.68551e-06
1.35117e-06
1.28447e-06
1.44963e-06
1.83657e-06
2.48066e-06
3.54144e-06
5.10218e-06
7.08742e-06
9.17155e-06
1.07107e-05
1.09084e-05
9.28183e-06
6.14092e-06
2.72243e-06
7.00392e-07
2.87006e-08
2.87006e-08
2.93804e-07
6.81564e-07
1.64827e-06
3.98799e-06
9.66942e-06
2.31871e-05
5.52303e-05
0.000137447
0.0003877
0.0009158
0.00146938
0.00164777
0.00136166
0.00078045
0.000462785
0.000284397
0.000167376
0.00012976
0.000520527
0.00544423
0.00570197
0.00633785
0.00714243
0.00807011
0.00911644
0.0102925
0.0116178
0.0131192
0.0148302
0.016792
0.0190522
0.0216639
0.0246832
0.0281659
0.0321665
0.0367401
0.041952
0.0479023
0.0547811
0.0261081
0.015547
0.00983983
0.00569353
0.00323366
0.00208369
0.0013655
0.000886514
0.000563475
0.000346529
0.000204164
0.00011472
6.14642e-05
3.11909e-05
1.47279e-05
6.14012e-06
1.997e-06
5.29395e-07
1.0679e-07
1.23655e-08
1.23655e-08
2.77393e-07
1.2035e-06
3.55358e-06
8.38205e-06
1.68619e-05
2.95359e-05
4.43029e-05
5.49299e-05
5.84578e-05
5.47062e-05
4.6584e-05
3.86671e-05
3.15373e-05
2.5721e-05
2.01316e-05
1.5135e-05
1.09704e-05
7.97238e-06
6.16025e-06
)
;
    }
    top
    {
        type            empty;
    }
    bottom
    {
        type            empty;
    }
}


// ************************************************************************* //
