/*--------------------------------*- C++ -*----------------------------------*\
  =========                 |
  \\      /  F ield         | OpenFOAM: The Open Source CFD Toolbox
   \\    /   O peration     | Website:  https://openfoam.org
    \\  /    A nd           | Version:  10
     \\/     M anipulation  |
\*---------------------------------------------------------------------------*/
FoamFile
{
    format      ascii;
    class       volScalarField;
    location    "500";
    object      nut;
}
// * * * * * * * * * * * * * * * * * * * * * * * * * * * * * * * * * * * * * //

dimensions      [0 2 -1 0 0 0 0];

internalField   nonuniform List<scalar> 
420
(
1.04478e-20
4.66905e-20
2.58333e-19
1.5025e-18
4.91719e-18
1.14174e-17
2.14599e-17
3.53963e-17
5.4444e-17
7.40206e-17
1.04473e-20
4.94819e-20
1.96862e-19
1.08807e-18
3.51541e-18
8.24388e-18
1.60066e-17
2.76366e-17
4.17141e-17
5.36334e-17
1.04471e-20
5.24948e-20
1.56556e-19
8.14795e-19
2.5894e-18
6.17744e-18
1.24654e-17
2.19148e-17
3.08517e-17
3.66524e-17
1.04472e-20
5.55444e-20
1.4106e-19
6.43547e-19
2.0038e-18
4.79702e-18
9.66813e-18
1.60927e-17
2.02781e-17
2.30475e-17
1.04476e-20
5.86565e-20
1.51103e-19
5.08374e-19
1.51587e-18
3.51979e-18
6.73249e-18
1.01338e-17
1.16529e-17
1.3887e-17
1.04483e-20
6.14035e-20
1.55332e-19
3.50704e-19
9.5999e-19
2.09416e-18
3.7025e-18
5.08357e-18
5.85788e-18
8.37643e-18
1.04493e-20
5.97924e-20
1.33225e-19
1.93842e-19
3.98267e-19
8.18954e-19
1.37797e-18
1.85726e-18
2.55943e-18
5.18049e-18
1.04506e-20
4.76284e-20
7.85795e-20
1.01146e-19
1.23456e-19
1.68484e-19
2.87372e-19
4.42877e-19
9.46197e-19
3.06933e-18
1.04522e-20
2.14554e-20
2.78464e-20
3.43154e-20
4.14039e-20
4.90051e-20
5.64241e-20
6.13725e-20
2.4683e-19
1.16414e-18
2.82342e-21
3.6643e-21
4.61494e-21
5.67535e-21
6.84552e-21
8.12545e-21
9.51514e-21
1.10146e-20
1.26238e-20
7.1751e-20
9.39545e-17
1.28181e-16
2.15793e-16
4.02969e-16
6.67072e-16
7.86298e-16
4.78656e-16
2.02225e-16
7.94719e-17
9.97341e-18
6.73968e-17
1.00718e-16
1.97956e-16
4.08972e-16
6.91397e-16
7.97397e-16
4.64239e-16
2.22634e-16
8.20285e-17
1.03304e-17
4.73692e-17
8.28528e-17
1.94065e-16
4.34063e-16
7.26959e-16
7.87007e-16
4.4562e-16
2.2323e-16
8.228e-17
1.06416e-17
3.32441e-17
7.21691e-17
2.0101e-16
4.73565e-16
7.64044e-16
7.65698e-16
4.30498e-16
1.88846e-16
8.01688e-17
1.0743e-17
2.42815e-17
6.6777e-17
2.16857e-16
5.23477e-16
7.94743e-16
7.33463e-16
4.05568e-16
1.61713e-16
7.22526e-17
1.05606e-17
1.86061e-17
6.42547e-17
2.38588e-16
5.78217e-16
8.14914e-16
6.94275e-16
3.58982e-16
1.41565e-16
6.40398e-17
1.01253e-17
1.45565e-17
6.2503e-17
2.63253e-16
6.33947e-16
8.23838e-16
6.52182e-16
3.22138e-16
1.26957e-16
5.78061e-17
9.63723e-18
1.01273e-17
5.93934e-17
2.9254e-16
6.8985e-16
8.22397e-16
6.14846e-16
2.94375e-16
1.16477e-16
5.36303e-17
9.23383e-18
5.2837e-18
5.35316e-17
3.28168e-16
7.44627e-16
8.12549e-16
5.84382e-16
2.74189e-16
1.0932e-16
5.08095e-17
8.96917e-18
1.52216e-18
4.73468e-17
3.7233e-16
7.92186e-16
8.14578e-16
5.64914e-16
2.6332e-16
1.05773e-16
4.91355e-17
8.77423e-18
4.00437e-19
4.87111e-17
4.44679e-16
8.30928e-16
8.19972e-16
5.63092e-16
2.6103e-16
1.05006e-16
4.75326e-17
8.75332e-18
9.52351e-19
7.91399e-17
5.41892e-16
7.59881e-16
8.0685e-16
5.54203e-16
2.57209e-16
1.05181e-16
4.66381e-17
9.02814e-18
2.45803e-17
2.4859e-16
5.65566e-16
7.01136e-16
7.39799e-16
5.40488e-16
2.54068e-16
1.06088e-16
4.66564e-17
9.34186e-18
1.85656e-16
4.34794e-16
5.91316e-16
7.18199e-16
7.53304e-16
5.41626e-16
2.60587e-16
1.094e-16
4.83732e-17
9.5746e-18
3.95274e-16
4.90525e-16
6.34494e-16
7.65999e-16
7.78387e-16
5.60079e-16
2.77631e-16
1.1688e-16
5.03292e-17
9.92303e-18
4.39762e-16
5.08538e-16
6.37111e-16
7.63333e-16
7.81141e-16
5.93118e-16
3.05999e-16
1.28734e-16
5.29752e-17
1.03673e-17
4.02965e-16
4.88104e-16
5.91146e-16
7.1491e-16
7.80202e-16
6.37425e-16
3.48308e-16
1.4625e-16
5.68782e-17
1.07828e-17
3.43317e-16
4.18703e-16
5.16147e-16
6.53744e-16
7.68796e-16
6.88988e-16
4.0718e-16
1.71508e-16
6.22476e-17
1.09997e-17
2.78217e-16
3.45214e-16
4.3706e-16
5.82899e-16
7.42627e-16
7.38774e-16
4.80663e-16
2.06368e-16
6.97398e-17
1.08868e-17
2.20741e-16
2.77276e-16
3.61266e-16
5.11088e-16
7.06827e-16
7.76006e-16
5.56932e-16
2.50936e-16
7.81928e-17
1.05509e-17
1.68811e-16
2.15427e-16
2.95834e-16
4.52352e-16
6.74918e-16
7.96109e-16
6.12574e-16
2.96367e-16
7.82378e-17
1.05966e-17
1.30407e-16
1.70343e-16
2.50467e-16
4.15847e-16
6.60535e-16
8.13221e-16
6.48098e-16
2.5097e-16
7.89897e-17
1.07326e-17
6.63565e-19
3.65163e-17
1.99612e-16
3.24326e-16
3.27147e-16
2.80982e-16
2.2437e-16
1.77072e-16
1.35707e-16
1.02268e-16
1.27513e-19
1.21037e-17
8.90711e-17
1.95556e-16
2.29696e-16
2.0458e-16
1.61563e-16
1.24787e-16
9.50699e-17
7.19898e-17
2.97107e-20
3.52895e-18
3.25079e-17
9.06856e-17
1.29052e-16
1.26224e-16
1.0334e-16
7.99091e-17
6.03493e-17
4.58505e-17
9.51514e-21
1.14218e-18
1.10287e-17
3.22493e-17
5.20878e-17
5.89469e-17
5.47724e-17
4.56956e-17
3.58726e-17
2.79147e-17
8.12545e-21
3.79397e-19
3.84438e-18
1.13656e-17
1.91821e-17
2.3582e-17
2.43325e-17
2.22771e-17
1.85535e-17
1.48341e-17
6.84552e-21
1.20044e-19
1.30947e-18
4.04452e-18
7.08948e-18
9.09677e-18
9.77843e-18
9.31001e-18
7.93618e-18
6.39723e-18
5.67535e-21
3.44825e-20
4.054e-19
1.34017e-18
2.43697e-18
3.16591e-18
3.33239e-18
3.05437e-18
2.50386e-18
1.97356e-18
4.61494e-21
2.59694e-20
1.0182e-19
3.43082e-19
6.05098e-19
7.31466e-19
6.92299e-19
5.78509e-19
4.46609e-19
3.43268e-19
3.6643e-21
2.09384e-20
4.54937e-20
5.86882e-20
6.27128e-20
6.29593e-20
6.05272e-20
5.69046e-20
5.32585e-20
5.00864e-20
2.82342e-21
1.04522e-20
1.04506e-20
1.04493e-20
1.04483e-20
1.04476e-20
1.04472e-20
1.04471e-20
1.04473e-20
1.04478e-20
)
;

boundaryField
{
    right
    {
        type            cyclic;
    }
    left
    {
        type            cyclic;
    }
    outerWall
    {
        type            nutkWallFunction;
        Cmu             0.09;
        kappa           0.41;
        E               9.8;
        value           uniform 0;
    }
    stirrerWall
    {
        type            nutkWallFunction;
        Cmu             0.09;
        kappa           0.41;
        E               9.8;
        value           uniform 0;
    }
    top
    {
        type            empty;
    }
    bottom
    {
        type            empty;
    }
}


// ************************************************************************* //
