/*--------------------------------*- C++ -*----------------------------------*\
  =========                 |
  \\      /  F ield         | OpenFOAM: The Open Source CFD Toolbox
   \\    /   O peration     | Website:  https://openfoam.org
    \\  /    A nd           | Version:  10
     \\/     M anipulation  |
\*---------------------------------------------------------------------------*/
FoamFile
{
    format      ascii;
    class       volScalarField;
    location    "500";
    object      nut;
}
// * * * * * * * * * * * * * * * * * * * * * * * * * * * * * * * * * * * * * //

dimensions      [0 2 -1 0 0 0 0];

internalField   nonuniform List<scalar> 
2000
(
5.53816e-11
6.33729e-09
1.0968e-07
6.36166e-07
1.95037e-06
3.96454e-06
6.43458e-06
9.30615e-06
1.25369e-05
1.59993e-05
1.94063e-05
2.25772e-05
2.62521e-05
3.15383e-05
3.98085e-05
5.22274e-05
6.84749e-05
8.06223e-05
9.2054e-05
0.000107386
3.82006e-11
4.91504e-09
8.05202e-08
4.69217e-07
1.49425e-06
3.13368e-06
5.14768e-06
7.47136e-06
1.01238e-05
1.30686e-05
1.62382e-05
1.98155e-05
2.47597e-05
3.26007e-05
4.46406e-05
6.08679e-05
7.1331e-05
7.79891e-05
8.37919e-05
9.41332e-05
2.68542e-11
3.74344e-09
5.96287e-08
3.48212e-07
1.17834e-06
2.60844e-06
4.3658e-06
6.33099e-06
8.58437e-06
1.1221e-05
1.4454e-05
1.9002e-05
2.65846e-05
3.91017e-05
5.40663e-05
6.42492e-05
6.93831e-05
7.0778e-05
7.23281e-05
7.85029e-05
1.94136e-11
2.80567e-09
4.35078e-08
2.5306e-07
8.94282e-07
2.1499e-06
3.77769e-06
5.56827e-06
7.62207e-06
1.01998e-05
1.3942e-05
2.05919e-05
3.34096e-05
4.65493e-05
5.70858e-05
6.28226e-05
6.29965e-05
6.01513e-05
5.83255e-05
6.20241e-05
1.55625e-11
2.24593e-09
3.34888e-08
1.86832e-07
6.65146e-07
1.69719e-06
3.21864e-06
4.9733e-06
7.00461e-06
9.82919e-06
1.48435e-05
2.55642e-05
3.84036e-05
5.00315e-05
5.72988e-05
5.84e-05
5.32874e-05
4.68813e-05
4.37746e-05
4.62498e-05
1.47942e-11
2.09296e-09
2.96187e-08
1.49162e-07
5.00837e-07
1.3094e-06
2.69667e-06
4.46184e-06
6.65881e-06
1.02018e-05
1.79148e-05
2.94422e-05
4.18006e-05
5.10202e-05
5.46332e-05
5.10118e-05
4.12414e-05
3.3752e-05
3.05877e-05
3.24241e-05
1.66966e-11
2.33279e-09
3.15378e-08
1.39402e-07
4.10654e-07
1.04544e-06
2.25739e-06
4.0398e-06
6.58094e-06
1.15881e-05
2.08857e-05
3.22845e-05
4.27731e-05
4.9234e-05
4.91336e-05
4.12554e-05
2.9984e-05
2.28711e-05
2.01516e-05
2.15385e-05
2.11536e-11
2.95354e-09
3.88287e-08
1.55055e-07
3.93881e-07
9.0469e-07
1.95733e-06
3.73527e-06
6.70272e-06
1.31241e-05
2.29952e-05
3.36744e-05
4.23715e-05
4.62669e-05
4.28712e-05
3.13733e-05
2.08691e-05
1.52817e-05
1.30301e-05
1.37238e-05
2.85728e-11
3.95524e-09
5.11622e-08
1.93111e-07
4.38269e-07
8.77651e-07
1.80686e-06
3.57446e-06
6.32797e-06
1.42935e-05
2.42567e-05
3.40485e-05
4.12075e-05
4.32103e-05
3.75811e-05
2.51526e-05
1.58203e-05
1.11069e-05
8.84361e-06
8.69309e-06
4.07922e-11
5.32365e-09
6.77459e-08
2.4691e-07
5.27015e-07
9.49163e-07
1.80383e-06
3.55778e-06
5.90391e-06
1.36784e-05
2.47294e-05
3.3696e-05
3.97378e-05
4.04969e-05
3.34575e-05
2.13423e-05
1.37091e-05
9.60349e-06
6.97211e-06
5.88711e-06
5.87714e-11
7.312e-09
8.62173e-08
3.0094e-07
6.27169e-07
1.0941e-06
1.94062e-06
3.34359e-06
5.47571e-06
1.1406e-05
2.44325e-05
3.27915e-05
3.81669e-05
3.84596e-05
3.12728e-05
2.0603e-05
1.42992e-05
1.01239e-05
6.66938e-06
4.63825e-06
8.16425e-11
9.74264e-09
1.05345e-07
3.3773e-07
6.91417e-07
1.25739e-06
2.18454e-06
3.29151e-06
5.37352e-06
1.01438e-05
2.1728e-05
3.13521e-05
3.65252e-05
3.70443e-05
3.0671e-05
2.21545e-05
1.69246e-05
1.19285e-05
7.2078e-06
4.30941e-06
1.05655e-10
1.21076e-08
1.18585e-07
3.49115e-07
6.99408e-07
1.32588e-06
2.45019e-06
3.37726e-06
5.30772e-06
9.36378e-06
1.8422e-05
2.94977e-05
3.4381e-05
3.53105e-05
3.09045e-05
2.55107e-05
2.05568e-05
1.391e-05
7.83758e-06
4.34795e-06
1.23393e-10
1.36192e-08
1.18472e-07
3.20451e-07
6.39129e-07
1.26495e-06
2.57282e-06
3.72078e-06
5.43106e-06
8.75313e-06
1.57189e-05
2.73305e-05
3.1887e-05
3.3244e-05
3.08305e-05
2.67055e-05
2.27294e-05
1.47771e-05
7.98124e-06
4.26962e-06
1.25679e-10
1.33331e-08
1.00121e-07
2.50546e-07
5.03447e-07
1.04434e-06
2.36281e-06
4.00125e-06
5.55179e-06
8.13442e-06
1.32923e-05
2.2032e-05
2.92258e-05
3.08576e-05
2.98668e-05
2.78535e-05
2.25774e-05
1.37046e-05
7.16074e-06
3.81634e-06
1.06946e-10
1.06725e-08
6.64905e-08
1.56964e-07
3.21845e-07
6.93513e-07
1.66522e-06
3.88417e-06
5.3971e-06
7.47563e-06
1.08553e-05
1.54727e-05
2.10269e-05
2.74539e-05
2.78009e-05
2.6044e-05
1.92424e-05
1.05421e-05
5.41945e-06
2.9623e-06
7.07614e-11
6.12808e-09
3.00659e-08
6.98024e-08
1.49587e-07
3.35341e-07
8.23899e-07
2.30853e-06
4.67798e-06
6.62e-06
8.72785e-06
1.09984e-05
1.39394e-05
1.7627e-05
2.24994e-05
2.01126e-05
1.19904e-05
5.97817e-06
3.16808e-06
1.85126e-06
3.13729e-11
1.76731e-09
6.8352e-09
1.6632e-08
3.88065e-08
9.25823e-08
2.31056e-07
6.42153e-07
1.68502e-06
3.65298e-06
6.67354e-06
8.91854e-06
1.03831e-05
1.17225e-05
1.07669e-05
7.5252e-06
3.86932e-06
2.0102e-06
1.20764e-06
8.18519e-07
8.07195e-12
1.432e-10
4.29348e-10
1.11731e-09
2.86542e-09
7.40127e-09
1.92699e-08
5.18045e-08
1.58047e-07
3.8262e-07
8.26688e-07
1.26055e-06
1.52527e-06
1.53924e-06
1.27606e-06
7.19974e-07
3.98348e-07
2.36255e-07
1.69752e-07
1.73612e-07
8.48924e-14
9.99219e-13
2.64107e-12
7.21941e-12
1.96046e-11
5.30151e-11
1.4099e-10
3.70556e-10
1.01284e-09
3.1247e-09
8.04176e-09
1.40085e-08
1.70002e-08
1.51572e-08
9.34725e-09
5.94818e-09
3.91335e-09
2.46015e-09
2.033e-09
8.67582e-09
0.000133635
0.000181376
0.000273182
0.000455893
0.000815811
0.00146007
0.00241413
0.00359093
0.00488682
0.00620932
0.00744141
0.00846415
0.00919523
0.0096816
0.0103744
0.0116277
0.0142228
0.0195015
0.030929
0.050435
0.000115129
0.000156646
0.000240607
0.000414718
0.00076935
0.00141499
0.00237393
0.0035509
0.00484584
0.00617332
0.00741787
0.00845385
0.00919457
0.00968911
0.0103903
0.0116375
0.0141976
0.0194088
0.0308431
0.050471
9.52888e-05
0.000131447
0.00020806
0.000372414
0.000718362
0.00136201
0.00232404
0.00350225
0.00479906
0.00613449
0.0073932
0.00844204
0.00919148
0.00969287
0.0104032
0.011647
0.0141714
0.0192949
0.0306982
0.0503971
7.57885e-05
0.000107271
0.000176358
0.000330122
0.000665532
0.00130523
0.00226915
0.00344831
0.0047479
0.00609287
0.00736719
0.00842965
0.00918849
0.00969646
0.0104161
0.0116576
0.0141474
0.0191667
0.0305133
0.0503217
5.75851e-05
8.47919e-05
0.000146461
0.000289067
0.0006126
0.0012471
0.00221229
0.00339245
0.00469586
0.00605158
0.00734205
0.00841811
0.00918639
0.00969976
0.0104283
0.0116685
0.0141241
0.0190279
0.0302796
0.050218
4.17933e-05
6.49502e-05
0.000119306
0.000250615
0.000561739
0.00119052
0.00215666
0.00333765
0.00464492
0.00601162
0.00731804
0.0084074
0.00918507
0.00970299
0.0104401
0.0116802
0.0141027
0.0188822
0.0299891
0.0500506
2.9001e-05
4.82541e-05
9.55907e-05
0.000215913
0.0005148
0.0011381
0.00210517
0.00328652
0.00459703
0.0059745
0.00729644
0.00839861
0.00918554
0.009707
0.0104523
0.0116932
0.0140851
0.0187345
0.0296373
0.0497659
1.92513e-05
3.48356e-05
7.56909e-05
0.000185841
0.000473511
0.00109253
0.00206095
0.0032419
0.0045545
0.00594108
0.00727766
0.00839181
0.00918748
0.00971165
0.0104643
0.0117075
0.0140727
0.0185912
0.0292271
0.0493121
1.23471e-05
2.4575e-05
5.96883e-05
0.000160931
0.000439169
0.00105583
0.00202602
0.00320542
0.00451859
0.00591212
0.00726215
0.00838715
0.00919063
0.0097169
0.0104763
0.0117235
0.0140671
0.0184607
0.0287704
0.0486536
7.83824e-06
1.71238e-05
4.74197e-05
0.000141398
0.000412686
0.0010297
0.00200239
0.00317906
0.00449132
0.00588974
0.00725059
0.00838521
0.00919564
0.00972339
0.0104887
0.0117415
0.0140688
0.0183485
0.0282888
0.0477843
5.19266e-06
1.20755e-05
3.86587e-05
0.000127424
0.000395074
0.00101595
0.0019917
0.00316376
0.00447301
0.00587364
0.00724198
0.0083853
0.00920173
0.00973085
0.0105012
0.0117614
0.0140772
0.0182583
0.0278104
0.0467372
3.87924e-06
9.0191e-06
3.31481e-05
0.000119108
0.000387149
0.001016
0.00199483
0.00315957
0.00446363
0.00586403
0.00723639
0.0083871
0.00920856
0.00973936
0.0105138
0.0117835
0.0140912
0.0181916
0.0273647
0.0455804
3.39002e-06
7.66798e-06
3.07273e-05
0.000116599
0.000389699
0.00103098
0.00201172
0.00316547
0.0044615
0.0058598
0.00723396
0.00839018
0.00921587
0.00974885
0.0105263
0.0118069
0.0141091
0.0181477
0.0269728
0.0444078
3.05431e-06
6.94356e-06
3.036e-05
0.000120037
0.000408041
0.00107138
0.00204788
0.00318295
0.00446681
0.00585893
0.00723292
0.00839327
0.00922286
0.00975908
0.0105375
0.0118307
0.0141301
0.018126
0.0266356
0.043263
2.64206e-06
6.50441e-06
3.15242e-05
0.000129597
0.000444717
0.00113768
0.00210018
0.00320877
0.00447711
0.00586217
0.00723389
0.00839619
0.00922891
0.00976954
0.010548
0.0118549
0.0141533
0.0181254
0.0263545
0.0421682
2.08159e-06
6.224e-06
3.42556e-05
0.000146849
0.000503796
0.00122655
0.00216097
0.00323743
0.00448844
0.00586545
0.00723424
0.008399
0.0092335
0.00977934
0.0105561
0.0118793
0.0141759
0.0181443
0.0261244
0.0411449
1.41435e-06
6.07288e-06
3.91128e-05
0.000175922
0.000590666
0.00133107
0.00222136
0.00326342
0.00449706
0.005866
0.00723183
0.00839992
0.00923589
0.00978813
0.0105617
0.0119028
0.0141938
0.0181806
0.0259302
0.0402076
8.0508e-07
6.03144e-06
4.73856e-05
0.000223269
0.000707021
0.00143627
0.00227144
0.00324869
0.00439577
0.00586074
0.0072245
0.00839773
0.0092355
0.00979552
0.0105641
0.011923
0.014205
0.0182324
0.0257452
0.0393946
3.90789e-07
6.13752e-06
6.12731e-05
0.0002968
0.000842819
0.00136592
0.00197753
0.00271909
0.0037511
0.00520649
0.00713803
0.00839111
0.00923151
0.00980088
0.0105629
0.0119373
0.0142097
0.0182803
0.0255716
0.0387106
1.57191e-07
6.43553e-06
8.43667e-05
0.000407271
0.000721757
0.000995044
0.00143707
0.00199374
0.00276668
0.0038962
0.00542299
0.00837609
0.00922267
0.009803
0.0105592
0.0119392
0.0142146
0.0182649
0.0254144
0.0377909
6.35247e-08
7.52636e-06
0.000130362
0.000456423
0.000742654
0.00105021
0.00145793
0.00201067
0.00270879
0.00374384
0.00511821
0.00769406
0.00920124
0.00979919
0.0105507
0.0119342
0.0142197
0.0182011
0.0250613
0.036907
6.65815e-08
8.06365e-06
0.000140506
0.000545094
0.000941752
0.00136823
0.00182767
0.00246102
0.00321858
0.00433887
0.0057954
0.00832589
0.00919419
0.00979836
0.0105512
0.0119322
0.0142169
0.0181717
0.0250575
0.0368595
7.40554e-08
9.06492e-06
0.000153966
0.000558506
0.000877116
0.00132823
0.00175576
0.00238997
0.00313546
0.00424763
0.00570734
0.00824904
0.00918348
0.00979637
0.0105528
0.0119311
0.0142153
0.0181459
0.0251154
0.0369276
8.35049e-08
1.02869e-05
0.000168588
0.000586217
0.00088495
0.00138577
0.00180815
0.00247063
0.00322809
0.00436855
0.00587597
0.00827453
0.00917023
0.00979242
0.010553
0.0119291
0.0142153
0.0181281
0.0252066
0.0370993
9.43975e-08
1.16464e-05
0.000183526
0.000614949
0.000919796
0.001487
0.00190659
0.00260723
0.0033823
0.00456541
0.00613823
0.00824525
0.00915437
0.00978598
0.010551
0.0119256
0.0142171
0.0181205
0.025328
0.0373346
1.06681e-07
1.30896e-05
0.000198069
0.000625778
0.000963928
0.00146814
0.00202962
0.00277439
0.0035671
0.00479833
0.0064436
0.00821377
0.009136
0.0097769
0.0105467
0.0119205
0.0142205
0.0181233
0.0254771
0.0376159
1.20483e-07
1.4568e-05
0.000211482
0.000629979
0.000987987
0.00142589
0.00205345
0.00295417
0.00379866
0.00508674
0.00681725
0.00818033
0.00911528
0.0097651
0.0105398
0.0119135
0.0142256
0.0181365
0.0256516
0.0379361
1.36031e-07
1.60301e-05
0.000222968
0.000627015
0.000958393
0.00137828
0.0019932
0.00288742
0.00406243
0.00544108
0.00686431
0.00814527
0.00909241
0.00975058
0.0105303
0.0119046
0.0142323
0.01816
0.0258489
0.0382879
1.53634e-07
1.74197e-05
0.000231694
0.000616684
0.00092306
0.00132594
0.00192926
0.00281823
0.00399599
0.00538282
0.00681671
0.008109
0.00906769
0.00973342
0.010518
0.0118935
0.0142405
0.0181934
0.0260667
0.0386641
1.73687e-07
1.86806e-05
0.000236863
0.000599112
0.000882598
0.00126959
0.00186248
0.00274753
0.0039292
0.00532476
0.00676915
0.00807195
0.00904148
0.00971373
0.0105029
0.0118802
0.0142502
0.0182364
0.0263029
0.0390575
1.96662e-07
1.97603e-05
0.000237802
0.000574766
0.000837753
0.00120998
0.00179378
0.00267632
0.00386306
0.00526783
0.0067224
0.00803478
0.0090142
0.00969173
0.0104851
0.0118648
0.0142611
0.0182886
0.0265556
0.03946
2.23114e-07
2.06173e-05
0.000234069
0.000544435
0.000789399
0.00114812
0.00172409
0.00260563
0.00379865
0.00521304
0.00667732
0.00799837
0.00898636
0.00966769
0.0104647
0.0118472
0.0142734
0.0183497
0.0268236
0.0398641
2.53658e-07
2.12284e-05
0.000225546
0.000509153
0.00073848
0.00108517
0.00165442
0.00253643
0.00373707
0.00516146
0.00663482
0.00796362
0.00895853
0.00964201
0.0104418
0.0118277
0.0142869
0.0184193
0.0271063
0.0402542
2.88938e-07
2.15947e-05
0.000212476
0.000470131
0.000686085
0.00102225
0.00158608
0.00247004
0.00367937
0.00511423
0.00659617
0.00793138
0.00893137
0.00961514
0.0104168
0.0118065
0.0143017
0.0184972
0.0274036
0.040625
3.29597e-07
2.17166e-05
0.000196235
0.000428717
0.000633443
0.000960517
0.00152042
0.00240794
0.00362705
0.0050728
0.00656266
0.00790257
0.00890561
0.00958767
0.0103899
0.011784
0.0143177
0.0185828
0.0277162
0.0409853
3.76258e-07
2.16231e-05
0.000178105
0.000386459
0.000581748
0.00090122
0.00145879
0.00235134
0.00358157
0.00503862
0.00653552
0.00787818
0.00888204
0.00956028
0.0103617
0.0117606
0.014335
0.0186759
0.0280454
0.0413305
4.29543e-07
2.1384e-05
0.000159083
0.00034477
0.000532143
0.000845397
0.00140241
0.00230202
0.00354413
0.00501292
0.0065159
0.00785923
0.0088615
0.00953377
0.0103328
0.0117368
0.0143536
0.0187756
0.0283929
0.041643
4.90194e-07
2.11109e-05
0.000140061
0.000305028
0.000485893
0.00079436
0.00135239
0.00226082
0.00351662
0.00499719
0.00650491
0.00784678
0.0088449
0.00950904
0.0103038
0.0117134
0.0143735
0.0188809
0.0287598
0.0419071
5.59351e-07
2.09826e-05
0.00012182
0.000268548
0.000444328
0.000749555
0.00131011
0.00222896
0.00349988
0.00499263
0.00650396
0.00784199
0.00883322
0.0094871
0.0102757
0.0116911
0.0143949
0.0189904
0.0291467
0.0422282
6.392e-07
2.13317e-05
0.000105015
0.000217603
0.000365713
0.000712461
0.00127716
0.00220785
0.00349499
0.00500021
0.00651396
0.00784583
0.00882749
0.009469
0.0102494
0.0116711
0.0144179
0.0191042
0.0295544
0.0439196
3.47909e-06
2.41602e-05
8.74599e-05
0.000204511
0.000338537
0.000648697
0.00108481
0.00195321
0.00329804
0.00502361
0.0065385
0.00786039
0.00882823
0.00945335
0.0102229
0.0116501
0.0144442
0.019228
0.0300394
0.0455273
4.14234e-05
5.79701e-05
9.5595e-05
0.000157794
0.00033164
0.000660733
0.00118424
0.0019118
0.00297067
0.00450618
0.00658166
0.00788759
0.00884498
0.00945245
0.0102103
0.0116323
0.0144028
0.0192999
0.0296172
0.0458124
5.78427e-05
8.05317e-05
0.000128825
0.000228112
0.000380785
0.000693836
0.00128487
0.00196602
0.00295738
0.00442845
0.00659841
0.00791307
0.00885886
0.00945463
0.0102024
0.011619
0.014401
0.0193796
0.0294521
0.0462288
6.05204e-05
8.69879e-05
0.000145219
0.000225865
0.000383679
0.000705782
0.00131149
0.00205201
0.00299685
0.00442153
0.00655495
0.00794278
0.00887507
0.00945949
0.0101972
0.0116076
0.0144097
0.0194636
0.0294714
0.0465462
7.20775e-05
0.000104765
0.000148089
0.000226486
0.000391182
0.000724603
0.00134679
0.00212534
0.00304292
0.00444348
0.00656
0.0079777
0.00889422
0.00946695
0.0101945
0.0115975
0.014415
0.0195432
0.0296093
0.0468975
8.76402e-05
0.000107916
0.000147267
0.000230119
0.000402735
0.000749549
0.0013911
0.00226899
0.00318647
0.00459975
0.00677083
0.00801591
0.00891525
0.00947648
0.0101946
0.0115893
0.0144184
0.0196219
0.0297925
0.0472782
8.86348e-05
0.000106942
0.000148737
0.000236657
0.000418545
0.000781402
0.00144567
0.00249766
0.00344023
0.00489404
0.00684557
0.00805704
0.00893833
0.00948788
0.0101975
0.0115832
0.0144198
0.0196944
0.0299984
0.0476813
8.72485e-05
0.000107562
0.000152255
0.000246096
0.000439015
0.000820847
0.00151108
0.00258669
0.00387723
0.00540347
0.00691447
0.00810007
0.00896298
0.00950086
0.0102025
0.011579
0.0144192
0.0197581
0.0302134
0.0480816
8.71484e-05
0.000109355
0.000157789
0.00025871
0.000464714
0.000868456
0.00158728
0.00268683
0.00408641
0.00558669
0.00698578
0.008145
0.00898857
0.00951486
0.0102094
0.0115763
0.0144165
0.0198104
0.0304324
0.0484474
8.7923e-05
0.000112534
0.000165428
0.000274698
0.000495851
0.000924165
0.00167325
0.00279561
0.00419873
0.00568388
0.00705698
0.00819064
0.00901469
0.00952958
0.0102177
0.0115751
0.0144117
0.0198501
0.0306436
0.0488103
8.95617e-05
0.000117049
0.00017522
0.000294217
0.00053267
0.000987937
0.00176824
0.00291083
0.00431299
0.00577984
0.0071263
0.00823631
0.00904061
0.00954458
0.0102272
0.0115751
0.0144048
0.0198762
0.0308281
0.0492834
9.21197e-05
0.000123032
0.000187413
0.000317585
0.000575391
0.00105946
0.00187083
0.00303011
0.00442668
0.00587269
0.00719322
0.00828064
0.00906562
0.00955959
0.0102378
0.0115765
0.014396
0.0198886
0.0309783
0.0497411
9.58319e-05
0.000130782
0.000202349
0.000345028
0.000623728
0.00113743
0.00197826
0.00314988
0.00453652
0.00595999
0.00725643
0.00832242
0.00908925
0.00957432
0.0102491
0.0115789
0.0143853
0.0198879
0.0310914
0.0501157
0.000100979
0.000140598
0.000220243
0.000376367
0.000676518
0.00121895
0.00208615
0.00326544
0.00463877
0.00603919
0.00731392
0.00836031
0.0091108
0.00958847
0.0102612
0.0115823
0.0143727
0.0198752
0.0311685
0.0504631
0.000107852
0.000152684
0.000241025
0.000410729
0.000731305
0.00129962
0.00218895
0.00337153
0.00472973
0.0061088
0.00736411
0.00839357
0.00913005
0.00960196
0.0102739
0.0115865
0.0143582
0.0198518
0.0312079
0.0504771
0.000116648
0.000167001
0.000264027
0.000446116
0.000784098
0.00137362
0.00228076
0.00346357
0.0048065
0.00616688
0.00740581
0.00842152
0.00914669
0.00961457
0.010287
0.0115913
0.0143422
0.0198185
0.0311716
0.0503976
0.000127354
0.00018304
0.000287574
0.000479037
0.000829487
0.0014347
0.0023563
0.00353811
0.00486764
0.00621231
0.0074383
0.00844353
0.00916018
0.00962603
0.0103004
0.0115967
0.0143237
0.0197756
0.0311416
0.0504511
0.000139414
0.000199138
0.000308194
0.00050268
0.000860588
0.00147947
0.0024114
0.00359348
0.00491233
0.0062441
0.00746058
0.00845912
0.00917075
0.0096366
0.0103139
0.0116026
0.0143035
0.0197232
0.0310889
0.050399
0.000150398
0.000209524
0.000315066
0.000509576
0.000873534
0.00150558
0.00244593
0.00362723
0.00493704
0.00625934
0.00747133
0.00846795
0.00917814
0.00964667
0.0103282
0.0116092
0.0142816
0.0196612
0.0310194
0.0502577
0.00014929
0.000204273
0.000304615
0.000495555
0.000860901
0.00150222
0.00244972
0.0036282
0.00492794
0.0062474
0.00746467
0.00846819
0.00918279
0.00965699
0.0103446
0.0116173
0.01426
0.0195872
0.0309454
0.0502568
4.35154e-07
1.93986e-05
4.37391e-05
4.93395e-05
5.61268e-05
6.49833e-05
7.88626e-05
7.74299e-05
7.53719e-05
7.42815e-05
7.38211e-05
7.38649e-05
7.45798e-05
7.63061e-05
7.94438e-05
8.43766e-05
9.13751e-05
0.000100451
0.000110729
0.00011599
2.43581e-07
1.48626e-05
4.23889e-05
4.75529e-05
5.03159e-05
5.5083e-05
6.29589e-05
7.71676e-05
7.38493e-05
7.12553e-05
6.93215e-05
6.75269e-05
6.5919e-05
6.48244e-05
6.47641e-05
6.63463e-05
7.00992e-05
7.63876e-05
8.53407e-05
9.41587e-05
1.44629e-07
1.19841e-05
4.65859e-05
5.051e-05
5.05624e-05
5.27969e-05
5.79106e-05
6.86886e-05
7.83065e-05
7.48193e-05
7.19996e-05
6.88342e-05
6.52937e-05
6.16986e-05
5.86041e-05
5.67645e-05
5.69979e-05
6.00138e-05
6.63712e-05
7.49169e-05
7.8344e-08
9.2514e-06
5.30569e-05
5.64785e-05
5.43944e-05
5.44452e-05
5.75688e-05
6.58435e-05
8.60893e-05
8.22997e-05
7.89123e-05
7.46978e-05
6.95674e-05
6.39489e-05
5.83411e-05
5.33857e-05
5.00132e-05
4.93427e-05
5.24034e-05
5.85344e-05
4.15622e-08
6.11458e-06
5.45181e-05
6.5812e-05
6.18258e-05
5.94252e-05
6.0441e-05
6.64956e-05
8.76175e-05
9.18852e-05
8.79913e-05
8.26926e-05
7.59774e-05
6.87073e-05
6.13614e-05
5.42409e-05
4.79437e-05
4.36677e-05
4.29548e-05
4.53544e-05
2.49558e-08
3.35424e-06
3.87617e-05
7.77871e-05
7.34074e-05
6.91996e-05
6.7956e-05
7.14379e-05
8.86152e-05
0.00010272
9.84903e-05
9.16962e-05
8.30421e-05
7.39266e-05
6.5075e-05
5.65992e-05
4.86508e-05
4.19288e-05
3.80592e-05
3.70988e-05
1.52e-08
1.88807e-06
2.11584e-05
7.21872e-05
9.41328e-05
9.0175e-05
8.67113e-05
8.84669e-05
9.88586e-05
0.000111156
9.3853e-05
9.27151e-05
8.94347e-05
7.79172e-05
6.7288e-05
5.77667e-05
4.92053e-05
4.15983e-05
3.58511e-05
3.24258e-05
9.14622e-09
1.12506e-06
1.18466e-05
4.29665e-05
8.56965e-05
0.00011261
0.000117564
0.000121475
0.000121734
0.000118704
9.71808e-05
9.85355e-05
9.21476e-05
7.87256e-05
6.66654e-05
5.6409e-05
4.77828e-05
4.03679e-05
3.41187e-05
2.93623e-05
5.37196e-09
6.69121e-07
6.75188e-06
2.40879e-05
5.27477e-05
8.20887e-05
0.000102001
0.000111722
0.000115066
0.000114969
0.000112245
0.000103079
8.93778e-05
7.54034e-05
6.30951e-05
5.28766e-05
4.45059e-05
3.75597e-05
3.15904e-05
2.65333e-05
3.04292e-09
3.92399e-07
3.95665e-06
1.36697e-05
3.02263e-05
5.0799e-05
7.00879e-05
8.42029e-05
9.23476e-05
9.53159e-05
9.37596e-05
8.76046e-05
7.73672e-05
6.60984e-05
5.57436e-05
4.69046e-05
3.95327e-05
3.33404e-05
2.7956e-05
2.32562e-05
1.64547e-09
2.22142e-07
2.34207e-06
8.00558e-06
1.74447e-05
2.9711e-05
4.27922e-05
5.4352e-05
6.27602e-05
6.72863e-05
6.78735e-05
6.51994e-05
5.93387e-05
5.21633e-05
4.50333e-05
3.85652e-05
3.28828e-05
2.78828e-05
2.34082e-05
1.93868e-05
8.45367e-10
1.20302e-07
1.38015e-06
4.80012e-06
1.03582e-05
1.75305e-05
2.54296e-05
3.2943e-05
3.90307e-05
4.297e-05
4.44731e-05
4.39301e-05
4.14167e-05
3.776e-05
3.368e-05
2.9614e-05
2.5728e-05
2.20523e-05
1.85696e-05
1.53399e-05
4.12382e-10
6.18791e-08
7.91901e-07
2.92189e-06
6.3441e-06
1.06617e-05
1.5398e-05
2.00185e-05
2.39577e-05
2.67636e-05
2.81852e-05
2.83629e-05
2.75426e-05
2.59789e-05
2.39485e-05
2.16486e-05
1.91756e-05
1.66036e-05
1.39994e-05
1.14988e-05
1.89658e-10
2.96542e-08
4.27237e-07
1.75921e-06
3.97544e-06
6.72293e-06
9.67098e-06
1.25309e-05
1.50343e-05
1.6919e-05
1.80137e-05
1.83202e-05
1.81931e-05
1.7623e-05
1.66641e-05
1.5357e-05
1.37424e-05
1.19002e-05
9.95174e-06
8.05994e-06
8.07495e-11
1.29576e-08
2.06819e-07
9.87558e-07
2.44824e-06
4.30691e-06
6.28183e-06
8.17058e-06
9.81192e-06
1.10804e-05
1.18956e-05
1.22465e-05
1.23091e-05
1.20646e-05
1.14792e-05
1.05424e-05
9.30545e-06
7.88197e-06
6.41398e-06
5.05491e-06
3.01842e-11
4.90194e-09
8.36403e-08
4.62024e-07
1.33184e-06
2.58935e-06
3.98732e-06
5.33089e-06
6.49516e-06
7.39951e-06
7.99535e-06
8.26399e-06
8.25886e-06
7.95417e-06
7.33624e-06
6.4569e-06
5.42257e-06
4.36139e-06
3.3704e-06
2.55022e-06
8.74684e-12
1.39557e-09
2.40959e-08
1.51078e-07
5.24293e-07
1.19904e-06
2.07128e-06
2.96554e-06
3.74038e-06
4.30769e-06
4.61782e-06
4.64823e-06
4.4205e-06
3.98279e-06
3.40195e-06
2.76768e-06
2.15595e-06
1.61538e-06
1.16846e-06
8.52595e-07
2.05141e-12
3.22107e-10
5.35151e-09
3.17395e-08
1.1429e-07
2.9865e-07
5.74002e-07
8.77881e-07
1.13422e-06
1.28882e-06
1.31714e-06
1.22764e-06
1.07345e-06
8.98663e-07
7.17679e-07
5.49946e-07
4.07559e-07
2.90709e-07
2.01317e-07
1.45601e-07
3.6319e-13
5.56514e-11
7.02234e-10
3.11541e-09
9.40125e-09
2.31176e-08
4.57316e-08
6.89291e-08
8.66096e-08
9.45259e-08
9.11743e-08
7.94676e-08
6.81577e-08
5.76856e-08
4.55987e-08
3.39159e-08
2.40961e-08
1.62472e-08
1.09537e-08
8.16697e-09
3.65757e-14
3.19693e-12
1.3869e-11
4.09476e-11
9.65785e-11
1.94271e-10
3.4027e-10
5.10365e-10
6.32757e-10
6.73369e-10
6.30133e-10
5.36564e-10
4.45367e-10
3.63242e-10
2.96249e-10
2.31872e-10
1.74323e-10
1.26358e-10
9.18293e-11
7.09586e-11
)
;

boundaryField
{
    right
    {
        type            cyclic;
    }
    left
    {
        type            cyclic;
    }
    outerWall
    {
        type            nutkWallFunction;
        Cmu             0.09;
        kappa           0.41;
        E               9.8;
        value           nonuniform List<scalar> 
60
(
5.93261e-05
5.87923e-05
5.43438e-05
4.82283e-05
3.96362e-05
2.56683e-05
2.20516e-06
0
0
0
0
0
0
0
0
0
0
0
0
0
0
0
0
0
0
0
0
0
0
0
0
0
0
0
0
0
0
0
0
0
0
0
0
0
0
0
0
0
0
0
0
2.30376e-05
4.65058e-05
6.56889e-05
7.98391e-05
8.39524e-05
8.03057e-05
7.41879e-05
6.48498e-05
5.51417e-05
)
;
    }
    stirrerWall
    {
        type            nutkWallFunction;
        Cmu             0.09;
        kappa           0.41;
        E               9.8;
        value           uniform 0;
    }
    top
    {
        type            empty;
    }
    bottom
    {
        type            empty;
    }
}


// ************************************************************************* //
