/*--------------------------------*- C++ -*----------------------------------*\
  =========                 |
  \\      /  F ield         | OpenFOAM: The Open Source CFD Toolbox
   \\    /   O peration     | Website:  https://openfoam.org
    \\  /    A nd           | Version:  10
     \\/     M anipulation  |
\*---------------------------------------------------------------------------*/
FoamFile
{
    format      ascii;
    class       volScalarField;
    location    "500";
    object      omega;
}
// * * * * * * * * * * * * * * * * * * * * * * * * * * * * * * * * * * * * * //

dimensions      [0 0 -1 0 0 0 0];

internalField   nonuniform List<scalar> 
420
(
21252.7
4755.67
1733.64
884.758
564.763
414.686
335.732
298.551
297.713
337.299
21253.7
4487.39
1733.6
916.989
589.259
430.712
348.133
313.332
324.804
384.841
21254.2
4229.84
1674.67
914.037
596.339
437.102
354.668
328.023
361.144
450.246
21254
3997.61
1574.11
877.694
583.823
433.71
358.849
348.987
413.115
539.662
21253.2
3785.51
1469.49
840.33
577.394
442.137
379.934
393.445
495.048
663.729
21251.7
3616.16
1429.49
870.779
635.516
510.677
458.323
495.657
635.532
845.909
21249.7
3713.59
1666.69
1145.49
900.83
755.33
689.755
737.848
899.258
1144.74
21247.1
4662.02
2825.73
2195.29
1798.58
1526.54
1366.37
1372.41
1490.04
1750.64
21243.8
10349.1
7973.89
6470.7
5362.89
4531.05
3935.28
3617.98
3417.33
3561.59
78643.9
60596.7
48114.3
39124.4
32436.5
27327.1
23335.9
20159.1
17589.3
15481.3
412.291
487.061
506.947
467.632
413.909
394.515
436.442
584.719
1173.64
3581.27
479.632
554.716
547.641
479.79
414.612
398.503
447.756
589.334
1140.88
3581.17
566.1
629.62
580.723
481.854
410.407
403.267
462.331
607.313
1151.26
3581.13
676.793
711.949
605.225
475.942
404.679
409.907
478.926
635.943
1181.44
3581.18
821.949
803.627
621.116
464.522
399.598
418.27
496.71
671.291
1222.98
3581.3
1024.63
911.961
631.491
450.907
396.231
428.141
516.353
709.323
1259.86
3581.49
1340.66
1053.01
640.256
436.424
394.411
439.001
537.15
748.479
1288.68
3581.76
1935.13
1254.29
641.658
420.664
393.269
448.371
556.637
781.986
1319.38
3582.1
3337.7
1560.24
629.492
403.479
391.278
454.417
572.843
809.943
1358.19
3582.51
7528.23
1982.44
601.979
386.853
387.959
456.143
583.544
833.788
1391.33
3582.99
21359.1
2362.93
544.767
375.559
386.723
456.725
589.635
857.63
1421.61
3575.63
21359.1
1828
470.041
370.602
387.95
458.8
594.984
865.334
1438.03
3575.63
3123.77
736.097
395.07
365.385
387.548
458.829
599.288
871.069
1455.32
3582.99
743.465
409.258
356.813
357.385
380.562
450.308
597.746
886.202
1468.49
3582.51
376.835
343.962
345.164
351.218
370.46
434.209
585.668
889.846
1484.19
3582.1
312.299
329.135
342.614
348.564
361.203
415.005
564.397
880.096
1494.3
3581.76
295.419
325.209
344.516
349.337
353.605
394.656
533.033
852.653
1490.82
3581.49
289.665
326.434
351.317
355.027
350.108
376.203
494.097
804.421
1473.53
3581.3
292.298
335.078
364.63
366.941
353.297
363.276
454.115
737.551
1436.93
3581.18
304.318
352.934
386.375
386.089
363.804
359.204
422.85
661.946
1375.65
3581.13
324.071
381.258
417.479
412.005
380.234
364.644
409.852
602.778
1303.28
3581.17
357.183
425.283
461.395
446.065
402.657
378.413
412.766
573.701
1275.96
3581.27
15481.3
1915.96
528.372
320.967
276.474
262.827
260.255
267.304
278.739
299.406
17589.3
2685.98
759.482
379.222
286.494
258.557
251.349
255.204
262.147
274.526
20159.1
3727.97
1168.62
536.334
355.462
296.037
276.72
274.369
277.538
284.623
23335.9
4603.07
1686.82
842.302
536.235
410.854
355.431
332.461
325.621
326.874
27327.1
5379.98
2148.88
1174.52
774.871
583.915
482.665
430.943
410.437
406.589
32436.5
6189.89
2531.47
1449.19
989.883
757.298
629.267
565.621
546.227
548.491
39124.4
7179.09
2890.87
1682.66
1186.15
943.036
824.457
791.193
811.083
845.34
48114.3
8550.25
3390.58
2053.1
1571.52
1382.64
1348.43
1418.93
1537.77
1642.34
60596.7
10604.7
4880.77
3783.46
3540.66
3526.8
3668.51
3902.05
4169.19
4433.23
78643.9
21243.8
21247.1
21249.7
21251.7
21253.2
21254
21254.2
21253.7
21252.7
)
;

boundaryField
{
    right
    {
        type            cyclic;
    }
    left
    {
        type            cyclic;
    }
    outerWall
    {
        beta1           0.075;
        blended         0;
        type            omegaWallFunction;
        value           nonuniform List<scalar> 
22
(
3581.27
3581.17
3581.13
3581.18
3581.3
3581.49
3581.76
3582.1
3582.51
3582.99
3575.63
3575.63
3582.99
3582.51
3582.1
3581.76
3581.49
3581.3
3581.18
3581.13
3581.17
3581.27
)
;
    }
    stirrerWall
    {
        beta1           0.075;
        blended         0;
        type            omegaWallFunction;
        value           nonuniform List<scalar> 
42
(
21252.7
21253.7
21254.2
21254
21253.2
21251.7
21249.7
21247.1
21243.8
78643.9
78643.9
60596.7
48114.3
39124.4
32436.5
27327.1
23335.9
20159.1
17589.3
15481.3
21359.1
21359.1
15481.3
17589.3
20159.1
23335.9
27327.1
32436.5
39124.4
48114.3
60596.7
78643.9
78643.9
21243.8
21247.1
21249.7
21251.7
21253.2
21254
21254.2
21253.7
21252.7
)
;
    }
    top
    {
        type            empty;
    }
    bottom
    {
        type            empty;
    }
}


// ************************************************************************* //
