/*--------------------------------*- C++ -*----------------------------------*\
  =========                 |
  \\      /  F ield         | OpenFOAM: The Open Source CFD Toolbox
   \\    /   O peration     | Website:  https://openfoam.org
    \\  /    A nd           | Version:  10
     \\/     M anipulation  |
\*---------------------------------------------------------------------------*/
FoamFile
{
    format      ascii;
    class       volScalarField;
    location    "500";
    object      omega;
}
// * * * * * * * * * * * * * * * * * * * * * * * * * * * * * * * * * * * * * //

dimensions      [0 0 -1 0 0 0 0];

internalField   nonuniform List<scalar> 
2000
(
86814.7
18369.5
7563.4
4628.66
3556.23
3015.15
2632.07
2334.32
2105.97
1940.4
1830.81
1781.93
1803.7
1899.52
2028.27
2089.41
1999.89
1871.35
1785.46
1726.71
86817.5
17171.9
6997.03
4309.73
3351.17
2917.66
2608.52
2344.41
2134.88
1984.89
1899.42
1893.71
1969.13
2100.01
2175.02
2044.84
1905.25
1853.4
1829.74
1804.5
86819.6
16372.7
6546.29
3936.52
3014.57
2665.26
2467.84
2277.55
2110.8
1992.2
1945.4
2003.76
2170.45
2273.7
2151.56
1981.78
1919.43
1921.09
1920.82
1902.53
86821.1
16002.7
6347.19
3733.35
2752.53
2361.26
2220.32
2115.11
2010.78
1942.12
1953.76
2105.12
2335.61
2272.83
2075.27
1980.52
1995.24
2006.59
2009.08
2006.23
86821.9
15855.2
6233.71
3608.38
2598.39
2149.98
1976.71
1909.12
1866.86
1857.55
1943.91
2201.24
2326.48
2199.21
2083.26
2074.82
2081.25
2072.84
2093.89
2115.72
86822.2
15724.5
6105.24
3483.09
2480.14
2014.31
1809.57
1742.86
1736.4
1790.87
1969.66
2210.08
2274.84
2172.88
2137.6
2150.04
2118.75
2123.56
2177.78
2231.66
86821.8
15547
5926.63
3340.17
2359.78
1904.69
1700.58
1635.02
1651.09
1770.62
2006.22
2189.04
2200.78
2150.83
2170.16
2178.38
2140.66
2169.42
2261.57
2355.64
86820.7
15266.8
5684.5
3175.09
2238.92
1808.46
1617.56
1569.32
1604.79
1782.92
2018.33
2149.89
2145.69
2140.01
2183.37
2155.52
2130.82
2206.4
2346.05
2487.09
86819.1
14953.5
5415.09
3013.45
2137.64
1730.89
1554.39
1523.8
1582.08
1796.32
2014.65
2105.11
2099.33
2129.56
2176.12
2129.41
2120.23
2231.2
2422.92
2624.61
86816.8
14816.7
5173.49
2894.97
2084.67
1684.16
1512.74
1495.68
1572.8
1802.61
2001.93
2060.55
2057.18
2112.02
2148.02
2082.95
2087.91
2234.01
2491.11
2771.52
86813.9
14598.1
5040.17
2884.35
2127.9
1696.99
1506.77
1490.69
1574.9
1800.13
1987.6
2017.69
2011.57
2076.84
2091.6
2008.53
2027.51
2211.84
2554.95
2934.74
86810.3
14330.4
4985.68
3032.23
2320.59
1813.39
1554.55
1514.87
1588.06
1795.99
1971.98
1976.39
1958.66
2027.21
2019.99
1916.19
1953.23
2186.34
2638.16
3132.18
86806.2
14091.1
5063.64
3335.59
2675.14
2088.3
1670.54
1574.67
1625.89
1804.73
1956.28
1942.52
1909.12
1960.12
1948.91
1887.99
1933.47
2218.53
2788.62
3393.4
86801.4
13947.8
5346.01
3864.52
3241.71
2565.45
1913.92
1684.06
1695.7
1841.09
1953.17
1925.56
1877.28
1896.17
1886.58
1878.05
1963.58
2350.8
3060.43
3776.14
86796
13991.7
5956.35
4749.7
4166.15
3377.67
2415.26
1913.87
1816.48
1907.14
1978.93
1943.37
1883.08
1863.79
1842.82
1850.52
2026.57
2631.08
3553.73
4365.06
86790.1
14414.1
7175.88
6275.39
5746.51
4838.02
3548.95
2480.9
2104.89
2072.12
2084.44
2035.63
1965.43
1917.58
1881.2
1906.89
2293.77
3280.62
4458.85
5283.14
86783.5
15889.6
9834.11
9205.43
8721.28
7686.35
6017.45
3977.18
3027.33
2621.06
2474.27
2372.71
2278.39
2214.03
2194.92
2337.58
3291.58
4876.63
6170.26
6722.29
86776.4
21875.2
17083.8
16261.3
15554.9
14260.3
12118.2
8977.4
6436.78
5093.02
4319.95
3937.19
3741.28
3689.37
3838.09
4735.48
6870.6
8879.93
9442
8914.42
86768.7
51345.6
45619.3
41845.6
38773.2
35757.9
32363.9
28053.6
22021.4
18772.7
16157.7
14556.1
13674.1
13329
13588.5
16469.2
18959.6
19418.9
16705.7
13174.2
338081
294034
258064
228311
203421
182390
164459
149047
135704
124076
113880
104892
96926.8
89835.7
83495.2
77802.9
72673.5
68035.1
63826.9
59997.5
1668.78
1577.85
1426.44
1212.12
966.556
753.22
606.849
516.73
458.238
418.266
395.934
397.385
435.154
529.861
714.395
1054.48
1732.77
3150.23
6278.09
14006
1758.29
1666.78
1502.95
1263.71
992.142
760.945
607.428
515.545
456.795
416.888
394.856
396.843
435.446
530.669
715.503
1054.32
1730.34
3146.02
6277.96
14005.7
1863.02
1771.13
1594.08
1326.67
1023.9
771.82
609.937
515.761
456.351
416.154
394.15
396.433
435.665
531.27
716.416
1053.99
1727.17
3139.85
6276.77
14005.5
1978.86
1890.01
1699.53
1400.68
1061.58
785.514
614.028
517.069
456.662
415.895
393.696
396.076
435.796
531.694
717.13
1053.53
1723.6
3131.79
6274.19
14005.4
2106.36
2025.28
1822.13
1486.78
1105.14
801.605
619.417
519.359
457.718
416.143
393.534
395.828
435.881
531.971
717.649
1052.87
1719.37
3122.27
6269.96
14005.3
2248.49
2180.2
1964.5
1586.21
1154.55
819.762
625.89
522.504
459.442
416.826
393.616
395.669
435.932
532.139
718.035
1052.11
1714.59
3111.07
6262.98
14005.3
2406.53
2357.25
2128.95
1699.29
1208.98
839.305
633.131
526.362
461.775
417.924
393.958
395.651
436.014
532.273
718.366
1051.38
1709.47
3098
6251.62
14005.4
2580.81
2558.11
2316.84
1825.61
1267.37
859.594
640.897
530.812
464.598
419.391
394.533
395.769
436.134
532.407
718.664
1050.77
1704.26
3083.2
6234.48
14005.6
2773.41
2786.09
2529.98
1964.01
1327.87
879.614
648.763
535.638
467.787
421.184
395.318
396.029
436.308
532.574
718.971
1050.38
1699.3
3067.38
6210.58
14005.8
2988.71
3044.95
2768.54
2111.3
1387.72
898.179
656.357
540.707
471.268
423.234
396.335
396.46
436.585
532.834
719.342
1050.31
1694.87
3051.3
6180.26
14006.1
3232.93
3339.15
3031.26
2262.71
1443.52
913.952
663.175
545.74
474.833
425.39
397.516
397.023
436.951
533.2
719.794
1050.62
1691.15
3035.93
6145.28
14006.5
3518.84
3676.02
3314.78
2410.94
1490.96
925.372
668.655
550.466
478.337
427.577
398.806
397.705
437.406
533.697
720.353
1051.41
1688.21
3022.34
6108.76
14006.9
3864.83
4066.93
3613.15
2547.11
1525.79
931.178
672.565
554.779
481.645
429.689
400.106
398.495
437.95
534.331
720.998
1052.58
1686
3011.46
6074.81
14007.5
4338.57
4568.04
3932.74
2648.79
1527.9
922.7
672.666
558.062
484.552
431.65
401.333
399.33
438.549
535.092
721.683
1054.01
1684.45
3003.69
6044.83
14008.1
5014.4
5235.36
4273.41
2699.62
1489.79
899.929
669.256
560.214
486.922
433.311
402.437
400.187
439.168
535.94
722.496
1055.68
1683.55
2999.28
6020.5
14008.7
6034.16
6153.38
4614.45
2675.4
1408.6
866.159
663.565
561.455
488.716
434.629
403.357
400.979
439.754
536.777
723.185
1057.6
1682.7
2998.35
6002.3
14009.5
7722.68
7442.83
4901.26
2542.44
1290.05
827.014
657.201
562.062
489.997
435.627
404.083
401.66
440.257
537.546
723.712
1059.58
1681.19
3000.94
5988.6
14010.3
10977.9
9212.46
5017.68
2287.02
1151.73
789.85
651.652
562.269
490.824
436.325
404.611
402.219
440.631
538.191
723.988
1061.28
1678.7
3007.22
5974.55
14011.1
18539.3
11445.1
4847.79
1942.01
1020.27
760.742
647.66
562.16
491.224
436.741
404.957
402.643
440.812
538.621
723.931
1062.34
1675.27
3014.18
5960.73
14012.1
37451.6
14182.6
4346.63
1558.49
918.165
740.496
644.062
561.017
490.85
436.65
404.967
402.758
440.724
538.708
723.66
1061.87
1671.8
3010.7
5949.43
14013.1
85702.6
16686.3
3383.18
1249.72
858.554
723.977
637.343
556.463
487.767
434.684
403.589
401.92
439.945
538.317
723.023
1060.89
1668.65
2999.15
5894.6
14005.5
85639
16666.3
3225.66
1204.89
850.356
722.675
637.802
557.25
488.343
434.916
403.493
401.571
439.459
537.695
722.345
1059.73
1667.74
2997.19
5896.96
13999.8
85582.4
16227
3034.45
1158.05
842.877
722.817
639.777
559.394
489.87
435.668
403.601
401.191
438.839
536.859
721.517
1058.45
1667.42
2997.34
5907.26
13994.6
85533
15656.3
2842.56
1115.07
836.475
723.67
642.315
562.025
491.73
436.607
403.782
400.797
438.14
535.91
720.591
1057.15
1667.47
2998.45
5920.44
13990.2
85490.7
15061.9
2659.97
1077.18
831.381
725.262
645.406
565.124
493.919
437.741
404.055
400.409
437.374
534.851
719.563
1055.84
1667.87
3000.38
5935.38
13986.4
85455.4
14485.9
2491.31
1044.84
827.721
727.644
649.088
568.714
496.458
439.09
404.435
400.039
436.549
533.687
718.437
1054.53
1668.6
3003.05
5951.64
13983.2
85427.3
13944.9
2338.93
1018.1
825.507
730.817
653.361
572.794
499.35
440.657
404.927
399.697
435.672
532.424
717.215
1053.21
1669.65
3006.36
5968.93
13980.6
85406.1
13445.8
2204.15
996.851
824.707
734.754
658.205
577.351
502.589
442.443
405.536
399.388
434.752
531.071
715.905
1051.89
1671.01
3010.23
5987.02
13978.7
85392
12990.4
2087.81
980.891
825.261
739.404
663.587
582.359
506.168
444.448
406.265
399.12
433.798
529.639
714.515
1050.59
1672.67
3014.57
6005.71
13977.4
85385
12575.8
1990.42
969.965
827.089
744.699
669.454
587.787
510.069
446.667
407.117
398.902
432.821
528.141
713.055
1049.3
1674.6
3019.31
6024.85
13976.8
85385
12195.9
1912.33
963.803
830.096
750.549
675.739
593.586
514.271
449.092
408.093
398.739
431.834
526.591
711.535
1048.05
1676.81
3024.36
6044.32
13976.8
85392
11840
1853.82
962.135
834.168
756.837
682.358
599.7
518.743
451.712
409.19
398.641
430.849
525.008
709.968
1046.84
1679.26
3029.66
6064.02
13977.4
85406.1
11492.2
1815.17
964.69
839.178
763.415
689.205
606.058
523.447
454.51
410.407
398.613
429.88
523.41
708.372
1045.69
1681.96
3035.16
6083.9
13978.7
85427.3
11130.1
1796.78
971.198
844.986
770.117
696.139
612.559
528.342
457.467
411.735
398.659
428.944
521.82
706.764
1044.63
1684.87
3040.8
6103.95
13980.6
85455.4
10732.7
1792.64
981.389
851.435
776.763
702.994
619.069
533.352
460.549
413.16
398.783
428.054
520.261
705.166
1043.68
1688
3046.54
6124.19
13983.2
85490.7
10272.2
1797.75
994.509
858.328
783.145
709.576
625.45
538.381
463.707
414.666
398.988
427.227
518.757
703.6
1042.86
1691.31
3052.35
6144.65
13986.4
85533
9711.6
1809.31
1009.89
865.449
789.082
715.694
631.501
543.335
466.888
416.233
399.273
426.478
517.336
702.088
1042.19
1694.8
3058.16
6165.38
13990.2
85582.4
9008.37
1825.21
1026.98
872.568
794.371
721.17
637.091
548.059
470.021
417.837
399.636
425.821
516.024
700.633
1041.72
1698.45
3063.87
6186.34
13994.6
85639
8116.97
1844.55
1045.17
879.435
798.816
725.81
642.052
552.449
473.028
419.434
400.063
425.26
514.842
699.261
1041.48
1702.24
3069.43
6207.47
13999.8
85702.6
6985.07
1868.28
1063.29
885.669
802.177
729.449
646.238
556.386
475.834
420.982
400.538
424.799
513.802
698.008
1041.53
1706.18
3075.12
6229.22
14005.5
19474.3
5024.7
1888.61
1081.03
890.727
804.339
732.037
649.786
560.055
478.591
422.567
401.076
424.384
512.762
696.692
1041.54
1710.24
3080.1
6253.68
14013.1
2865.14
1498.39
1079.26
938.579
863.27
798.007
728.272
648.519
560.385
479.765
423.829
401.967
424.695
512.36
695.824
1041.66
1707.35
3080.6
6225.11
14012.1
1220.27
1043.53
960.866
907.375
855.663
795.239
725.733
646.189
558.811
479.136
423.933
402.341
424.863
512.184
695.546
1042.12
1709.34
3083.68
6198.25
14011.1
1046.91
989.442
948.224
907.874
858.18
795.749
723.733
643.299
556.385
477.856
423.699
402.639
425.111
512.197
695.403
1042.85
1713.41
3089.6
6185.67
14010.3
1009.16
981.074
952.553
915.672
864.173
797.613
721.986
639.776
553.098
475.94
423.129
402.844
425.456
512.433
695.486
1043.6
1717.39
3096.39
6185.45
14009.5
1005.86
988.865
965.382
928.096
872.313
800.036
719.923
635.393
548.955
473.437
422.235
402.942
425.872
512.856
695.78
1044.41
1721.4
3104.83
6189.8
14008.7
1018.51
1006.71
984.09
943.619
881.717
802.724
717.322
630.196
544.076
470.422
421.06
402.975
426.373
513.461
696.298
1045.29
1725.24
3113.86
6197.29
14008.1
1042.07
1031.9
1007.34
961.28
891.578
805.047
713.857
624.073
538.439
466.926
419.648
402.979
426.947
514.235
697.015
1046.22
1728.82
3123.28
6207.15
14007.5
1073.96
1062.83
1033.78
980.134
901.393
806.519
709.47
617.135
532.191
463.067
418.071
402.907
427.567
515.153
697.914
1047.19
1732.05
3132.59
6219.42
14006.9
1113.08
1098.56
1062.8
999.795
910.934
807.163
704.358
609.648
525.602
459.014
416.397
402.73
428.23
516.201
698.979
1048.18
1734.87
3141.31
6233.23
14006.5
1158.46
1138.71
1094.07
1019.94
919.684
806.749
698.261
601.52
518.746
454.873
414.695
402.467
428.921
517.357
700.188
1049.16
1737.22
3148.96
6246.45
14006.1
1209.61
1182.26
1126.52
1039.6
927.004
804.858
690.855
592.678
511.671
450.673
412.867
402.126
429.624
518.604
701.524
1050.13
1739.08
3155.25
6258.63
14005.8
1265.45
1227.76
1158.98
1057.91
932.623
801.265
682.045
583.134
504.407
446.436
410.907
401.726
430.335
519.917
702.958
1051.07
1740.41
3160.01
6269.31
14005.6
1324.48
1273.92
1190.34
1074.31
936.509
796.012
672.014
573.09
497.089
442.217
408.863
401.266
431.037
521.271
704.462
1051.96
1741.18
3163.24
6278.72
14005.4
1385.26
1319.42
1219.64
1088.89
939.049
789.477
661.154
562.874
489.916
438.061
406.814
400.775
431.733
522.642
706.002
1052.75
1741.39
3164.89
6286.69
14005.3
1446.02
1362.65
1246.53
1102.35
941.019
782.321
650.061
552.943
483.146
434.098
404.819
400.27
432.412
523.999
707.535
1053.41
1741.07
3164.9
6286.8
14005.3
1503.54
1401.9
1271.6
1116.06
943.519
775.271
639.355
543.725
476.978
430.45
402.93
399.754
433.049
525.305
709.023
1053.91
1740.17
3163.63
6287.29
14005.4
1553.42
1436.41
1296.83
1132.58
947.186
768.286
629.721
535.649
471.589
427.168
401.152
399.227
433.651
526.543
710.408
1054.2
1738.69
3161.01
6285.53
14005.5
1586.99
1468.14
1329.89
1153.15
951.149
761.41
620.899
528.747
466.837
424.16
399.471
398.693
434.197
527.698
711.707
1054.26
1736.6
3157.01
6281
14005.7
1614.65
1511.08
1370.43
1175.51
952.627
753.612
611.707
521.691
462.109
421.087
397.702
398.087
434.697
528.785
712.982
1054.24
1734.36
3152.15
6275.44
14006
59997.5
5891.39
1579.08
1124.98
1040.9
1019.29
1021.39
1038.56
1067.15
1105.57
1153.2
1208.59
1270.89
1339.55
1413.91
1492.85
1573.59
1649.93
1706.01
1708.02
63826.9
7335.17
1882.5
1211.34
1082.7
1040.21
1027.76
1034.08
1055.37
1089.65
1135.99
1191.89
1256.25
1329.04
1410.97
1503.52
1607.3
1719.25
1824.69
1829.24
68035.1
8611.41
2174.15
1299.11
1127.42
1065.09
1037.54
1030.96
1042.42
1071.8
1115.72
1169.13
1230.69
1301.11
1381.55
1475.33
1588.12
1726.77
1893.69
1982.11
72673.5
9960.72
2500.13
1391.43
1173.56
1093.71
1052.15
1033.13
1034.41
1057.76
1098.56
1148.79
1205.4
1269.91
1342.15
1424.21
1524.02
1656.73
1844.36
2022.48
77802.9
12050.2
2961.4
1502.53
1218.88
1123.12
1070.97
1040.81
1032.05
1050.14
1090.05
1138.62
1191.02
1252.04
1318.62
1388.15
1465.2
1568.12
1731.36
1936.02
83495.2
15342.1
3782.85
1691.17
1273.45
1149.25
1086.87
1048.77
1033.16
1049.48
1093.02
1140.55
1188.36
1250.32
1318.78
1385.07
1447.06
1518.78
1638.3
1811.92
89835.7
18427.6
5547.48
2222.91
1390.03
1182.4
1096.59
1047.94
1027.74
1047.79
1102.46
1148.15
1186.7
1252.47
1329.29
1402.57
1464.74
1520.7
1598.9
1717.04
96926.8
20682
7415.71
3195.72
1787.83
1324.52
1146.75
1061.62
1022.04
1024.3
1078.04
1123.62
1173.6
1253.41
1344.09
1428.79
1500.44
1558.16
1613.36
1682.44
104892
22665
9234.48
4498.47
2533.43
1709.42
1345.38
1170.55
1083.77
1051.5
1067.27
1119.05
1191.02
1283
1383.27
1476.19
1554.21
1616.75
1665.08
1707.62
113880
24301.5
10756.2
5872.97
3559.22
2394.23
1792.71
1473.24
1302.08
1218.45
1196.88
1224.78
1294.24
1385.36
1481.87
1570.28
1644.34
1704.04
1748.84
1780.91
124076
25770.3
11906.3
7084.91
4654
3284.23
2483.7
2010.34
1732.23
1576.91
1505.11
1489.46
1526.03
1589.38
1660.74
1727.59
1784.64
1831.87
1870.64
1900.31
135704
27166.9
12630.7
7987.84
5618.35
4192.46
3288.68
2706.62
2334.01
2102.34
1968.68
1898.29
1880.84
1893.65
1919.52
1948.63
1977.04
2005.55
2035.23
2067.65
149047
28657.9
12944.7
8471.09
6291.89
4938.46
4030.45
3406.92
2977.51
2686.38
2497.17
2375.65
2299.75
2254.18
2227.15
2213.36
2211.19
2223.15
2248.92
2289.61
164459
30600.9
13053.9
8519.82
6565.37
5380.44
4556.11
3958.69
3520.55
3203.66
2980.15
2822.4
2698.25
2603.46
2533.83
2489.85
2473.74
2486.4
2524.56
2583.35
182390
33237.2
13349.4
8320.18
6441.77
5435.76
4752.29
4239.66
3846.21
3545.9
3316.61
3139.5
2994.05
2881.09
2804.47
2769.56
2779.03
2826.51
2900.72
2983.67
203421
36657.6
14196.6
8314.12
6175.54
5192.73
4615.07
4206.62
3891.72
3642.94
3445.37
3288.67
3172.54
3105.89
3095.14
3143.09
3238.51
3363.71
3498.3
3594.16
228311
41271.7
15983.7
9076.06
6382.43
5150.88
4515.81
4142.67
3896.66
3724.84
3606.4
3537.08
3540.56
3626.14
3785.99
4005.24
4249.68
4498.38
4724.76
4803.78
258064
46966.4
18838.6
11400.1
8328.23
6734.83
5923.83
5513.48
5314.02
5239.61
5254.94
5350.4
5556.09
5857.46
6254.06
6703.32
7153.94
7613.96
7999.83
7977.99
294034
53539.7
26593.8
20758.1
18068.5
16182.9
15007.9
14662.5
14572.4
14599.1
14708.6
14875.2
15015.2
15224.3
15861.5
16707.1
17646.1
18716.8
19615.8
19377.5
338081
86768.7
86776.4
86783.5
86790.1
86796
86801.4
86806.2
86810.3
86813.9
86816.8
86819.1
86820.7
86821.8
86822.2
86821.9
86821.1
86819.6
86817.5
86814.7
)
;

boundaryField
{
    right
    {
        type            cyclic;
    }
    left
    {
        type            cyclic;
    }
    outerWall
    {
        beta1           0.075;
        blended         0;
        type            omegaWallFunction;
        value           nonuniform List<scalar> 
60
(
14006
14005.7
14005.5
14005.4
14005.3
14005.3
14005.4
14005.6
14005.8
14006.1
14006.5
14006.9
14007.5
14008.1
14008.7
14009.5
14010.3
14011.1
14012.1
14013.1
14005.5
13999.8
13994.6
13990.2
13986.4
13983.2
13980.6
13978.7
13977.4
13976.8
13976.8
13977.4
13978.7
13980.6
13983.2
13986.4
13990.2
13994.6
13999.8
14005.5
14013.1
14012.1
14011.1
14010.3
14009.5
14008.7
14008.1
14007.5
14006.9
14006.5
14006.1
14005.8
14005.6
14005.4
14005.3
14005.3
14005.4
14005.5
14005.7
14006
)
;
    }
    stirrerWall
    {
        beta1           0.075;
        blended         0;
        type            omegaWallFunction;
        value           nonuniform List<scalar> 
100
(
86814.7
86817.5
86819.6
86821.1
86821.9
86822.2
86821.8
86820.7
86819.1
86816.8
86813.9
86810.3
86806.2
86801.4
86796
86790.1
86783.5
86776.4
86768.7
338081
338081
294034
258064
228311
203421
182390
164459
149047
135704
124076
113880
104892
96926.8
89835.7
83495.2
77802.9
72673.5
68035.1
63826.9
59997.5
85702.6
85639
85582.4
85533
85490.7
85455.4
85427.3
85406.1
85392
85385
85385
85392
85406.1
85427.3
85455.4
85490.7
85533
85582.4
85639
85702.6
59997.5
63826.9
68035.1
72673.5
77802.9
83495.2
89835.7
96926.8
104892
113880
124076
135704
149047
164459
182390
203421
228311
258064
294034
338081
338081
86768.7
86776.4
86783.5
86790.1
86796
86801.4
86806.2
86810.3
86813.9
86816.8
86819.1
86820.7
86821.8
86822.2
86821.9
86821.1
86819.6
86817.5
86814.7
)
;
    }
    top
    {
        type            empty;
    }
    bottom
    {
        type            empty;
    }
}


// ************************************************************************* //
