/*--------------------------------*- C++ -*----------------------------------*\
  =========                 |
  \\      /  F ield         | OpenFOAM: The Open Source CFD Toolbox
   \\    /   O peration     | Website:  https://openfoam.org
    \\  /    A nd           | Version:  10
     \\/     M anipulation  |
\*---------------------------------------------------------------------------*/
FoamFile
{
    format      ascii;
    class       volScalarField;
    location    "500";
    object      p;
}
// * * * * * * * * * * * * * * * * * * * * * * * * * * * * * * * * * * * * * //

dimensions      [0 2 -2 0 0 0 0];

internalField   nonuniform List<scalar> 
420
(
-0.944721
13.3365
29.3575
47.7275
67.7005
88.6941
110.273
131.933
153.267
173.868
-2.35124
12.5572
28.427
46.5652
66.3349
87.2364
108.929
130.935
152.691
173.737
-3.11114
11.9245
27.5882
45.4631
65.0115
85.8318
107.647
129.976
152.161
173.651
-3.42821
11.5055
26.9163
44.4913
63.7889
84.505
106.428
129.076
151.691
173.597
-3.50416
11.3003
26.4539
43.707
62.7233
83.2968
105.284
128.225
151.25
173.551
-3.46472
11.2824
26.2088
43.1357
61.8393
82.2121
104.175
127.328
150.729
173.406
-3.38136
11.4196
26.1654
42.7637
61.1166
81.1993
102.993
126.218
149.975
173.12
-3.30172
11.6793
26.2947
42.556
60.5149
80.2002
101.637
124.689
148.715
172.503
-3.29933
12.0444
26.5493
42.4647
60.0161
79.2248
100.106
122.598
146.396
170.561
-3.44943
12.4671
26.752
42.3673
59.5951
78.3744
98.6508
120.325
143.163
166.767
193.391
212.267
230.556
247.864
264.259
280.203
295.816
310.684
317.014
440.263
193.645
212.75
231.107
248.424
264.874
280.985
296.809
312.066
317.248
437.698
193.897
213.146
231.466
248.711
265.127
281.238
297.03
312.613
316.977
429.348
194.116
213.405
231.558
248.616
264.857
280.749
296.166
312.099
316.116
416.595
194.269
213.486
231.352
248.12
264.037
279.513
294.282
309.948
314.087
403.097
194.295
213.344
230.868
247.322
262.811
277.717
291.598
305.935
309.591
393.375
194.294
213.05
230.192
246.374
261.398
275.623
288.419
300.82
302.617
386.028
194.365
212.698
229.338
245.327
259.934
273.431
285.028
295.4
295.731
377.775
193.943
212.52
228.631
244.385
258.613
271.388
281.887
290.936
291.275
370.327
192.526
213.133
228.726
243.886
257.625
269.697
279.239
287.614
287.915
366.764
192.763
213.521
229.01
243.716
256.908
268.333
276.856
284.318
275.456
369.587
193.64
213.186
228.861
243.17
255.86
266.636
274.228
279.974
267.96
366.535
197.226
213.151
228.524
242.607
254.859
264.897
271.439
274.579
268.98
358.483
196.353
212.359
227.883
242.113
254.307
263.986
269.837
271.957
269.463
354.435
194.851
211.453
227.362
241.916
254.334
264.05
270.014
272.443
271.365
355.838
193.812
210.803
227.166
242.184
255.057
265.167
271.662
274.664
275.271
360.921
193.3
210.612
227.421
242.97
256.468
267.34
274.911
278.86
281.19
367.784
193.193
210.831
228.054
244.135
258.363
270.322
279.465
284.592
288.89
378.101
193.355
211.307
228.887
245.456
260.441
273.638
284.397
290.431
298.375
397.158
193.532
211.752
229.615
246.576
262.216
276.476
288.446
294.893
307.545
425.111
193.479
211.91
229.961
247.146
263.199
278.195
291.298
298.595
310.675
445.869
193.306
211.912
230.042
247.231
263.409
278.887
293.467
305.384
314.718
443.448
181.622
178.602
176.857
175.87
175.327
175.046
174.936
174.827
174.526
174.131
156.535
156.276
156.316
156.212
156.067
155.851
155.567
155.171
154.565
153.886
129.608
131.928
133.96
135.082
135.623
135.714
135.423
134.83
133.943
132.928
104.873
107.889
110.935
112.955
114.123
114.611
114.488
113.862
112.848
111.597
82.8109
85.3959
88.3786
90.678
92.1218
92.8303
92.885
92.3582
91.3826
90.1104
63.0735
64.9085
67.2044
69.1852
70.5416
71.2579
71.3874
70.9772
70.1343
69.0019
45.4827
46.5602
47.9255
49.2134
50.1659
50.679
50.7553
50.4245
49.7471
48.8255
29.9074
30.3274
30.8069
31.2763
31.6329
31.7949
31.7265
31.4239
30.9079
30.2222
16.2986
16.0819
15.854
15.6716
15.5215
15.351
15.1206
14.8161
14.436
13.9757
3.78853
2.60866
1.54804
0.832172
0.324734
-0.0881263
-0.460603
-0.806158
-1.08982
-1.23082
)
;

boundaryField
{
    right
    {
        type            cyclic;
    }
    left
    {
        type            cyclic;
    }
    outerWall
    {
        type            zeroGradient;
    }
    stirrerWall
    {
        type            zeroGradient;
    }
    top
    {
        type            empty;
    }
    bottom
    {
        type            empty;
    }
}


// ************************************************************************* //
