/*--------------------------------*- C++ -*----------------------------------*\
  =========                 |
  \\      /  F ield         | OpenFOAM: The Open Source CFD Toolbox
   \\    /   O peration     | Website:  https://openfoam.org
    \\  /    A nd           | Version:  10
     \\/     M anipulation  |
\*---------------------------------------------------------------------------*/
FoamFile
{
    format      ascii;
    class       volScalarField;
    location    "500";
    object      p;
}
// * * * * * * * * * * * * * * * * * * * * * * * * * * * * * * * * * * * * * //

dimensions      [0 2 -2 0 0 0 0];

internalField   nonuniform List<scalar> 
2000
(
0.0642583
149.183
285.886
453.762
649.932
868.68
1106.42
1358.43
1619.5
1885.53
2153.23
2419.78
2683.28
2943.49
3199.12
3449.75
3698.93
3948.03
4194.51
4437.63
6.8739
149.179
278.788
438.579
626.209
837.085
1068.63
1316.73
1576.4
1843.02
2112.62
2382.07
2649.51
2914.03
3174.15
3430.84
3686.58
3940.49
4190.65
4436.79
9.28933
150.499
275.51
428.128
606.773
808.089
1030.79
1272.42
1528.63
1794.62
2065.76
2338.37
2610.83
2881.77
3148.45
3411.62
3673.31
3933.34
4188.67
4437.77
9.1645
151.033
273.327
420.34
590.935
783.043
995.694
1228.65
1479.34
1743.33
2015.56
2292.02
2570.68
2848.5
3122.06
3393.14
3662.71
3928.88
4188.7
4440.67
7.96228
150.397
270.872
413.8
577.787
762.184
965.977
1189.8
1433.58
1694.07
1966.52
2246.83
2531.9
2817
3099.01
3379.27
3656.34
3927.79
4191.32
4444.98
6.43746
149.023
267.878
407.584
566.453
744.704
941.899
1158
1394.89
1651.14
1923.04
2207.1
2499.11
2793.11
3084.73
3373.31
3656.14
3930.36
4195.4
4450.19
5.10978
147.463
264.703
401.473
556.334
730.005
922.581
1133.44
1364.9
1617.47
1889.16
2177.49
2477.9
2781.58
3081.56
3375.57
3660.55
3935.97
4202.3
4457.58
4.27514
146.361
262.029
395.93
547.266
717.504
906.819
1114.92
1343.38
1594.29
1867.45
2161.1
2470.04
2782.17
3087.16
3383.53
3670.04
3945.53
4210.9
4465.49
4.20592
146.231
260.488
391.551
539.4
706.75
893.871
1100.87
1328.92
1581.02
1857.74
2157.62
2473.83
2791.52
3098.92
3395.09
3680.71
3955.48
4220.74
4475.22
4.98817
147.298
260.437
389.032
533.344
697.888
883.498
1090.19
1319.79
1575.52
1857.71
2163.91
2485.54
2805.87
3112.43
3407.22
3692.46
3966.7
4231.1
4484.89
6.6837
149.762
262.214
388.78
529.837
691.554
875.911
1082.65
1314.86
1575.78
1864.5
2176.28
2500.26
2820.22
3124.87
3417.68
3702.21
3976.35
4241.21
4495.61
9.26211
153.753
266.364
391.286
529.475
688.529
871.895
1079.01
1314.16
1580.58
1875.43
2191.12
2516.02
2834.03
3134.81
3425.53
3710.61
3986.44
4252.21
4507.09
12.4567
159.199
273.303
397.484
533.365
690.081
872.646
1080.65
1318.47
1589.15
1889.03
2207.57
2531.75
2846.37
3143.36
3432.09
3717.08
3994.38
4262.05
4518.8
15.8039
165.779
282.982
407.894
542.719
698.005
879.928
1088.71
1328.04
1601.45
1905.03
2226.43
2550.19
2860.09
3150.81
3435.22
3720.41
4001.6
4272.55
4531.54
18.8103
172.892
294.895
422.52
558.038
712.987
894.676
1103.75
1343.38
1618.46
1924.64
2247.97
2570.24
2875.25
3159.93
3439.12
3723.34
4006.83
4279.78
4541.5
20.8476
179.707
308.153
440.815
579.682
735.34
917.032
1126.55
1366.07
1641.63
1948.63
2271.37
2589.72
2888.42
3166.57
3439.3
3720.02
4005.78
4284.18
4550.15
21.3142
185.439
321.425
461.112
606.49
765.642
948.066
1158.37
1398.55
1673.59
1977.04
2293.77
2604.17
2894.41
3166.6
3434.32
3710.24
3996.1
4279.76
4553.18
19.9886
189.705
333.161
480.723
634.732
800.921
986.225
1197.7
1438.06
1709.82
2002.61
2302.6
2596.64
2875.62
3142.68
3407.54
3679.43
3962.94
4251.6
4538.81
16.9205
193.024
342.052
496.298
659.024
833.897
1025.03
1237.95
1476.06
1739.56
2018.19
2297.45
2569
2830.39
3085.3
3342.9
3611.07
3894.07
4191.25
4498.01
12.5801
196.436
346.619
504.686
673.563
855.393
1052.8
1268.22
1503.44
1755.95
2019.76
2281.11
2530.81
2771.24
3011.37
3261.04
3529.03
3819.69
4128.54
4447.19
4679.9
4927.48
5184.53
5452.23
5731.88
6023.88
6328.26
6645.63
6977.85
7327.33
7696.75
8088.87
8507.03
8954.49
9434.27
9953.94
10503.6
11138.2
11688.5
12767.9
4680.87
4929.03
5185.99
5453.08
5731.67
6022.53
6325.95
6642.72
6974.73
7324.2
7693.72
8085.97
8504.35
8951.98
9431.99
9951.77
10501.7
11136.5
11687.8
12763.4
4683.28
4931.93
5188.63
5454.95
5732.47
6022.2
6324.6
6640.66
6972.29
7321.58
7691.06
8083.32
8501.83
8949.51
9429.7
9949.6
10499.8
11135.1
11686.7
12759.2
4687.38
4936.01
5192.11
5457.6
5734.12
6022.71
6324.02
6639.3
6970.45
7319.43
7688.73
8080.89
8499.4
8947.06
9427.4
9947.41
10497.8
11133.6
11685
12755.2
4692.07
4940.61
5196.32
5461.04
5736.51
6023.91
6324.12
6638.6
6969.21
7317.79
7686.81
8078.78
8497.22
8944.74
9425.15
9945.18
10495.8
11132.1
11682.9
12751.3
4697.99
4946.47
5201.49
5465.22
5739.54
6025.7
6324.81
6638.47
6968.47
7316.57
7685.21
8076.9
8495.15
8942.48
9422.93
9942.92
10493.6
11130.4
11680.7
12747.7
4705.04
4952.87
5207.11
5469.94
5743.13
6027.94
6325.91
6638.69
6968
7315.54
7683.73
8075.09
8493.1
8940.22
9420.68
9940.55
10491.2
11128.4
11678.4
12744.1
4712.56
4959.97
5213.53
5475.36
5747.23
6030.6
6327.41
6639.27
6967.85
7314.78
7682.46
8073.45
8491.16
8938.09
9418.49
9938.1
10488.7
11126.2
11676.1
12740.6
4721.54
4967.97
5220.74
5481.49
5751.93
6033.82
6329.48
6640.39
6968.14
7314.37
7681.46
8072.03
8489.4
8936.15
9416.39
9935.67
10486.4
11123.9
11674.1
12737.2
4730.58
4976.7
5229.08
5488.66
5757.41
6037.64
6332.03
6641.88
6968.71
7314.19
7680.66
8070.82
8487.82
8934.41
9414.42
9933.53
10484.7
11121.9
11672.7
12733.5
4741.37
4987.09
5238.82
5496.78
5763.54
6041.96
6334.96
6643.68
6969.58
7314.31
7680.15
8069.89
8486.45
8932.91
9412.7
9931.95
10483.6
11120.4
11671.9
12729.6
4752.99
4998.73
5249.91
5505.81
5770.29
6046.81
6338.28
6645.76
6970.61
7314.58
7679.79
8069.15
8485.25
8931.65
9411.24
9930.73
10482.4
11118.5
11671.1
12725
4766.06
5012.42
5262.47
5515.5
5777.4
6051.96
6341.81
6648.08
6971.93
7315.14
7679.7
8068.65
8484.24
8930.65
9409.78
9928.91
10480.5
11115.6
11669.9
12720.1
4780.23
5027
5275.22
5525.05
5784.38
6057.15
6345.39
6650.46
6973.31
7315.8
7679.75
8068.34
8483.42
8929.88
9408.13
9926.97
10478.9
11111.9
11668.9
12714.9
4793.97
5042.22
5287.81
5534.24
5790.85
6061.96
6348.69
6652.75
6974.71
7316.56
7679.97
8068.26
8482.88
8929.46
9406.73
9926.09
10478.2
11108.3
11669.6
12709.7
4807.85
5057.33
5298.89
5542.36
5796.38
6066.2
6351.63
6654.84
6976.05
7317.41
7680.38
8068.45
8482.68
8929.46
9405.66
9926.05
10477.7
11104.4
11672.5
12705.1
4819.72
5069.14
5304.99
5547.47
5799.8
6069.19
6353.87
6656.62
6977.31
7318.37
7681.03
8069.01
8482.98
8930.04
9405.05
9926.53
10475.7
11098.8
11677.1
12700.2
4822.02
5072.23
5303.24
5548.47
5801.05
6070.99
6355.37
6657.95
6978.31
7319.22
7681.74
8069.76
8483.64
8931.03
9405.18
9927.71
10473.2
11092.7
11687.2
12685.3
4809.89
5067.3
5298.19
5547.43
5801.17
6071.66
6355.96
6658.41
6978.6
7319.45
7682.03
8070.16
8484.23
8931.7
9406.12
9929.8
10474.7
11092.6
11711.8
12639.7
4787.87
5071.73
5296.57
5549.19
5801.51
6072.7
6356.49
6658.99
6979.05
7320.09
7682.78
8071.25
8485.42
8933.76
9407.65
9934.98
10477.1
11113
11735.4
12595.8
4762.1
5104.01
5287.45
5558.34
5800.7
6076.91
6358.26
6662.39
6981.88
7323.83
7686.06
8075.91
8488.16
8941.87
9407.15
9953.35
10461.9
11163.9
11674.7
12683.3
4756.24
5109.64
5284.43
5559.07
5799.33
6076.74
6357.65
6662.24
6981.69
7323.92
7686.06
8076.28
8488.13
8943.08
9406.47
9957.38
10458
11174.8
11661.3
12704.2
4752.66
5113.57
5282.28
5559.97
5798.4
6076.85
6357.38
6662.38
6981.8
7324.26
7686.32
8076.85
8488.34
8944.36
9406.02
9961.36
10455.5
11184.3
11650.7
12719.7
4749.79
5116.6
5280.65
5561
5797.84
6077.14
6357.33
6662.67
6982.07
7324.72
7686.71
8077.51
8488.65
8945.63
9405.61
9965.17
10453
11193.4
11640.9
12733.3
4747.31
5119.05
5279.49
5562.14
5797.6
6077.59
6357.43
6663.05
6982.42
7325.24
7687.17
8078.22
8489.05
8946.86
9405.33
9968.79
10450.6
11202.5
11631.2
12745.8
4745.32
5121.08
5278.82
5563.39
5797.66
6078.14
6357.61
6663.47
6982.81
7325.8
7687.7
8078.97
8489.53
8948.08
9405.22
9972.22
10448.2
11211.6
11621.6
12757.1
4743.87
5122.86
5278.66
5564.76
5797.97
6078.73
6357.83
6663.86
6983.21
7326.35
7688.26
8079.75
8490.1
8949.29
9405.28
9975.47
10446
11220.6
11612
12767.3
4743
5124.48
5278.99
5566.22
5798.46
6079.29
6358.01
6664.17
6983.57
7326.89
7688.85
8080.57
8490.76
8950.52
9405.5
9978.54
10443.9
11229.5
11602.2
12776.8
4742.81
5126.04
5279.78
5567.7
5799.05
6079.72
6358.08
6664.35
6983.86
7327.39
7689.47
8081.44
8491.54
8951.78
9405.89
9981.42
10441.9
11238.3
11592.3
12785.7
4743.42
5127.61
5280.96
5569.13
5799.64
6079.96
6357.98
6664.36
6984.07
7327.86
7690.14
8082.37
8492.44
8953.13
9406.51
9984.21
10439.9
11247
11582.2
12794.4
4744.95
5129.19
5282.43
5570.41
5800.12
6079.93
6357.67
6664.19
6984.2
7328.33
7690.89
8083.4
8493.51
8954.58
9407.4
9987.17
10438.2
11255.5
11571.8
12803.3
4747.42
5130.75
5284.05
5571.43
5800.39
6079.57
6357.15
6663.87
6984.29
7328.82
7691.74
8084.57
8494.77
8956.19
9408.59
9990.43
10437
11263.9
11561
12812.9
4750.79
5132.18
5285.64
5572.02
5800.35
6078.89
6356.45
6663.46
6984.41
7329.43
7692.78
8085.94
8496.27
8957.98
9410.07
9993.69
10436.5
11272.2
11549.7
12823.6
4754.86
5133.26
5286.98
5572.05
5799.99
6077.91
6355.69
6663.11
6984.7
7330.24
7694.07
8087.55
8498.03
8959.99
9411.84
9996.61
10436.5
11280.4
11537.7
12836
4759.23
5133.66
5287.9
5571.37
5799.32
6076.77
6355.04
6662.98
6985.31
7331.4
7695.72
8089.46
8500.12
8962.23
9413.92
9999.08
10436.9
11288.3
11525.2
12850.5
4763.11
5133.01
5288.14
5569.92
5798.38
6075.59
6354.67
6663.26
6986.4
7333
7697.77
8091.71
8502.53
8964.65
9416.29
10001.3
10437.7
11295.7
11511.9
12867.8
4764.88
5131.06
5287.41
5567.75
5797.26
6074.63
6354.82
6664.18
6988.12
7335.15
7700.26
8094.3
8505.2
8967.27
9418.69
10003.6
10437.7
11303.6
11496.1
12889.9
4762.7
5127.75
5285.81
5565.18
5796.39
6074.39
6355.95
6666.13
6990.74
7338.03
7703.29
8097.3
8508.12
8970.15
9420.91
10006.4
10435.6
11314.2
11474.4
12919.6
4758.33
5122.75
5284.97
5562.81
5796.81
6075.6
6358.82
6669.65
6994.72
7341.96
7707.13
8100.85
8511.57
8973.13
9423.57
10008.6
10433.4
11324.4
11450.4
12952.6
4761.81
5115.09
5287.47
5560.52
5798.93
6077.86
6363.06
6674.08
6999.45
7346.27
7711.27
8104.26
8515.37
8975.02
9427.95
10006.1
10439.1
11316.8
11449.2
12963.6
4835.94
5080.68
5302.53
5550.29
5805.43
6081.19
6372.46
6682.36
7008.64
7353.72
7718.87
8108.55
8523.02
8971.89
9443.95
9975.54
10495.5
11191.4
11617.9
12854.2
4839.73
5068.86
5303.19
5548.52
5807.51
6083.36
6376.47
6686.6
7013.3
7357.96
7723.01
8111.64
8526.66
8972.24
9449.24
9968.16
10513
11148.3
11684.4
12805.1
4826.02
5058.77
5297.14
5544.9
5806.29
6083.82
6378.49
6689.61
7016.87
7361.62
7726.54
8114.75
8529.43
8974.18
9451.28
9968.15
10517.1
11145.1
11709.5
12784.1
4814.45
5048.85
5289.1
5538.95
5802.12
6081.39
6377.65
6690.09
7018.29
7363.59
7728.74
8117.01
8531.57
8976.19
9453.08
9970.23
10518.5
11149
11718.9
12775.7
4806.23
5040.24
5281.23
5532.31
5796.92
6077.73
6375.56
6689.42
7018.69
7364.7
7730.28
8118.77
8533.39
8978.04
9454.93
9972.29
10520.9
11152.5
11723.4
12772
4800.1
5033.01
5273.97
5525.67
5791.26
6073.34
6372.61
6687.88
7018.27
7365.08
7731.19
8120.03
8534.85
8979.64
9456.69
9974.32
10522.8
11154.7
11725.6
12770.2
4795.26
5026.99
5267.65
5519.55
5785.72
6068.79
6369.35
6685.9
7017.35
7364.95
7731.64
8120.88
8535.97
8980.93
9458.14
9976.04
10524.5
11156.4
11726.5
12768.9
4791.23
5021.97
5262.21
5514.03
5780.53
6064.4
6366.07
6683.74
7016.13
7364.47
7731.71
8121.34
8536.7
8981.86
9459.22
9977.23
10525.6
11157.7
11726
12767.2
4787.73
5017.64
5257.4
5509.05
5775.81
6060.37
6363
6681.61
7014.79
7363.77
7731.5
8121.47
8537.06
8982.41
9459.87
9977.87
10526.1
11158.3
11723.6
12765.8
4784.16
5013.46
5252.86
5504.45
5771.5
6056.73
6360.18
6679.57
7013.39
7362.87
7730.99
8121.26
8537.06
8982.57
9460.09
9978
10526.1
11158
11719.7
12767.4
4779.91
5008.96
5248.3
5500.04
5767.51
6053.42
6357.6
6677.6
7011.89
7361.75
7730.17
8120.69
8536.67
8982.32
9459.88
9977.75
10525.9
11157.2
11716
12772
4774.71
5003.93
5243.55
5495.68
5763.76
6050.41
6355.25
6675.7
7010.26
7360.36
7729
8119.72
8535.87
8981.65
9459.24
9977.18
10525.3
11156
11714.1
12775.9
4768.19
4998.08
5238.35
5491.2
5760.13
6047.65
6353.1
6673.8
7008.48
7358.67
7727.45
8118.31
8534.6
8980.49
9458.16
9976.27
10524.3
11154.4
11713
12779.5
4760.2
4991.24
5232.56
5486.51
5756.62
6045.12
6351.07
6671.82
7006.41
7356.57
7725.41
8116.36
8532.79
8978.79
9456.6
9974.93
10522.8
11153
11713.8
12779.4
4750.63
4983.29
5226.09
5481.57
5753.19
6042.76
6349.05
6669.63
7003.94
7353.96
7722.81
8113.84
8530.4
8976.52
9454.52
9973.05
10520.9
11152.4
11714.2
12773.9
4739.48
4974.18
5218.92
5476.44
5749.89
6040.56
6346.99
6667.16
7001.03
7350.84
7719.66
8110.76
8527.45
8973.71
9451.92
9970.65
10518.6
11151.3
11709.3
12772.8
4726.76
4963.94
5211.26
5471.36
5746.82
6038.38
6344.65
6664.17
6997.5
7347.07
7715.87
8107.06
8523.94
8970.37
9448.81
9967.68
10515.7
11148.6
11704.2
12772.7
4711.93
4952.26
5202.91
5465.97
5743.36
6035.52
6341.36
6660.11
6992.89
7342.23
7711.07
8102.42
8519.56
8966.23
9444.97
9963.97
10512.2
11145.7
11699.5
12770.9
4695.04
4938.95
5193.26
5459.42
5738.66
6031.34
6336.7
6654.75
6987.15
7336.34
7705.26
8096.83
8514.32
8961.28
9440.41
9959.64
10508.3
11142.5
11694.5
12769.1
4683.64
4929.7
5186.17
5454.15
5734.27
6026.9
6331.92
6649.61
6981.83
7331.15
7700.34
8092.18
8510
8957.32
9436.89
9956.29
10505.5
11139.9
11690.7
12769
4637.89
4606.68
4587.18
4577.41
4572.33
4569.29
4567.01
4564.89
4562.79
4560.36
4556.73
4551.55
4544.46
4535.27
4523.87
4510.38
4494.97
4477.05
4456.79
4443.3
4328.72
4327.21
4326.9
4328.09
4330.52
4333.23
4335.42
4336.55
4336.71
4336.13
4333.8
4329.12
4321.72
4311.49
4298.25
4282.18
4263.79
4242.54
4218.55
4202.06
3976.32
4017.49
4045.08
4063.74
4077.91
4089.01
4097.46
4103.27
4106.83
4108.81
4108.49
4104.91
4097.74
4086.89
4072.07
4053.49
4032.01
4007.22
3979.13
3957.84
3630.05
3699.31
3750.75
3787.49
3814.97
3835.94
3851.89
3863.41
3871.13
3876.07
3878.12
3876.01
3869.45
3858.43
3842.62
3822.31
3798.37
3770.72
3739.56
3713.34
3297.85
3381.35
3451.24
3503.57
3543.59
3574.4
3598.04
3615.57
3627.72
3635.59
3639.7
3638.81
3632.87
3622.12
3606.29
3585.59
3560.73
3532.08
3499.72
3470.23
2979.45
3068.06
3151.46
3215.91
3266.24
3305.65
3336.21
3359.21
3375.42
3385.84
3391.57
3391.82
3386.96
3377.23
3362.44
3342.47
3317.76
3288.86
3255.97
3224.43
2678.53
2764.5
2855.54
2927.86
2985.94
3032.05
3068.1
3095.52
3115.15
3127.93
3135.55
3137.82
3134.62
3125.96
3111.98
3092.62
3068.03
3038.76
3005.46
2972.42
2397.91
2474.14
2565.52
2642.55
2705.81
2756.66
2796.76
2827.53
2849.93
2864.85
2874.01
2878.02
2876.25
2868.61
2855.25
2836.16
2811.61
2782.33
2749.36
2715.41
2135.6
2198.42
2285.45
2363.41
2428.33
2481.78
2524.48
2557.53
2582.02
2598.9
2609.51
2614.83
2614.09
2607.14
2594.21
2575.31
2550.98
2522.14
2489.66
2454.83
1890.88
1939.51
2016.29
2090.87
2155.29
2209.18
2253.06
2287.55
2313.6
2332.14
2344.08
2350.33
2350.38
2343.88
2331.25
2312.78
2288.83
2259.94
2227.01
2190.84
1661.7
1696.3
1758.66
1825.96
1887.33
1940.15
1983.78
2018.68
2045.54
2065.07
2077.96
2084.86
2085.5
2079.38
2066.81
2048.29
2024.26
1995.25
1961.93
1924.84
1445.61
1467.57
1513.67
1570.17
1625.67
1675.28
1717.47
1751.74
1778.57
1798.33
1811.51
1818.63
1819.52
1813.64
1801.22
1782.81
1758.99
1730.28
1696.94
1659.49
1240.58
1252.31
1282.76
1325.43
1371.87
1416.24
1455.23
1487.64
1513.59
1533.06
1546.18
1553.27
1554.21
1548.54
1536.44
1518.46
1495.26
1467.22
1434.52
1397.7
1045.21
1049.55
1066.74
1094.68
1129.06
1165.03
1198.99
1228.67
1252.77
1271.08
1283.74
1290.64
1291.53
1286.14
1274.6
1257.5
1235.44
1208.71
1177.72
1143.06
858.862
858.378
865.695
880.518
901.795
926.909
952.947
977.499
998.777
1015.54
1027.09
1033.27
1034
1029.07
1018.56
1002.99
982.9
958.751
931.15
900.692
681.261
677.983
678.637
683.52
693.136
706.892
723.419
740.795
757.072
770.676
780.531
785.968
786.52
782.032
772.865
759.606
742.799
722.938
700.534
675.893
512.538
507.718
503.726
501.578
502.686
507.372
515.254
525.216
535.68
545.082
552.189
556.124
556.308
552.669
545.539
535.329
522.555
507.705
491.05
472.628
355.183
348.684
340.532
332.936
328.287
327.303
329.532
333.97
339.422
344.737
348.953
351.359
351.551
349.519
345.368
339.232
331.265
321.626
310.177
297.388
210.129
199.454
187.394
177.189
170.959
168.783
169.512
171.755
174.495
177.087
179.119
180.399
180.91
180.564
179.123
176.506
172.597
167.164
160.214
153.462
63.5367
43.2765
26.2145
15.9886
10.6144
8.35393
8.09095
8.94972
10.2118
11.3867
12.2065
12.5955
12.6459
12.4498
12.0769
11.6124
10.8802
9.54648
7.59168
5.13807
)
;

boundaryField
{
    right
    {
        type            cyclic;
    }
    left
    {
        type            cyclic;
    }
    outerWall
    {
        type            zeroGradient;
    }
    stirrerWall
    {
        type            zeroGradient;
    }
    top
    {
        type            empty;
    }
    bottom
    {
        type            empty;
    }
}


// ************************************************************************* //
