/*--------------------------------*- C++ -*----------------------------------*\
  =========                 |
  \\      /  F ield         | OpenFOAM: The Open Source CFD Toolbox
   \\    /   O peration     | Website:  https://openfoam.org
    \\  /    A nd           | Version:  10
     \\/     M anipulation  |
\*---------------------------------------------------------------------------*/
FoamFile
{
    format      ascii;
    class       surfaceScalarField;
    location    "500";
    object      phi;
}
// * * * * * * * * * * * * * * * * * * * * * * * * * * * * * * * * * * * * * //

dimensions      [0 3 -1 0 0 0 0];

internalField   nonuniform List<scalar> 
3880
(
2.17068e-06
-3.31083e-05
4.04984e-06
-8.66399e-06
9.28349e-06
-1.94022e-06
1.57527e-05
7.06881e-06
2.38715e-05
1.76242e-05
3.24617e-05
2.96232e-05
3.95065e-05
3.88731e-05
4.44893e-05
4.21253e-05
4.75526e-05
3.95629e-05
4.88226e-05
3.20337e-05
4.8671e-05
2.07414e-05
4.71202e-05
7.29004e-06
4.26922e-05
-6.7519e-06
3.38683e-05
-1.76402e-05
1.96759e-05
-2.32978e-05
1.31318e-06
-2.47508e-05
-1.65997e-05
-2.84416e-05
-2.87523e-05
-4.10355e-05
-3.41299e-05
-5.97873e-05
-7.88993e-05
-3.45353e-05
1.226e-06
-3.42998e-05
2.92047e-06
-1.03727e-05
7.12171e-06
-6.26336e-06
1.24851e-05
1.6492e-06
1.98531e-05
1.0191e-05
2.86776e-05
2.08173e-05
3.62113e-05
3.12166e-05
4.12829e-05
3.71083e-05
4.37235e-05
3.71257e-05
4.37244e-05
3.2035e-05
4.12843e-05
2.32144e-05
3.63349e-05
1.22783e-05
2.79523e-05
1.62056e-06
1.4739e-05
-4.37372e-06
-2.86996e-06
-5.65599e-06
-2.00778e-05
-7.57185e-06
-3.09732e-05
-1.75716e-05
-3.5427e-05
-3.65409e-05
-3.62264e-05
-5.89251e-05
-8.02233e-05
-3.4851e-05
7.12116e-07
-3.5017e-05
2.13335e-06
-1.17426e-05
5.1405e-06
-9.34542e-06
8.36905e-06
-1.45338e-06
1.26431e-05
5.78357e-06
1.94821e-05
1.39335e-05
2.69258e-05
2.37252e-05
3.23619e-05
3.16013e-05
3.47311e-05
3.47298e-05
3.386e-05
3.30273e-05
2.94938e-05
2.76266e-05
2.13329e-05
2.04747e-05
8.62803e-06
1.43752e-05
-8.57396e-06
1.28561e-05
-2.70433e-05
1.27926e-05
-3.85884e-05
3.99678e-06
-4.11724e-05
-1.49408e-05
-4.04291e-05
-3.72496e-05
-3.84307e-05
-6.08948e-05
-8.27645e-05
-3.58386e-05
5.47999e-07
-3.55844e-05
2.20919e-06
-1.33596e-05
4.86037e-06
-1.20677e-05
7.52653e-06
-4.12733e-06
9.64874e-06
3.78748e-06
1.31502e-05
1.03816e-05
1.79502e-05
1.89233e-05
2.19888e-05
2.75235e-05
2.33967e-05
3.33145e-05
2.12581e-05
3.52547e-05
1.46442e-05
3.42268e-05
2.29501e-06
3.28052e-05
-1.63293e-05
3.30663e-05
-3.73119e-05
3.38883e-05
-4.99836e-05
2.54765e-05
-5.14125e-05
5.47473e-06
-4.84299e-05
-1.7863e-05
-4.45477e-05
-4.11169e-05
-4.06763e-05
-6.47817e-05
-8.63144e-05
-3.71116e-05
5.32544e-07
-3.61465e-05
2.32902e-06
-1.52749e-05
4.87151e-06
-1.47176e-05
7.49496e-06
-6.84913e-06
9.37236e-06
1.87565e-06
1.09229e-05
8.73754e-06
1.26352e-05
1.73846e-05
1.37614e-05
2.64779e-05
1.3015e-05
3.41138e-05
8.83114e-06
3.94696e-05
-9.77301e-08
4.31931e-05
-1.56508e-05
4.8411e-05
-3.4089e-05
5.15221e-05
-4.84051e-05
4.81988e-05
-5.75974e-05
3.46965e-05
-5.91644e-05
7.10737e-06
-5.28367e-05
-2.41072e-05
-4.69764e-05
-4.69554e-05
-4.24942e-05
-6.9243e-05
-9.0302e-05
-3.84621e-05
5.437e-07
-3.66874e-05
2.34431e-06
-1.69896e-05
4.76388e-06
-1.71212e-05
7.43247e-06
-9.48847e-06
9.62863e-06
-1.97052e-07
1.05968e-05
7.7778e-06
1.09018e-05
1.70979e-05
9.32301e-06
2.79805e-05
6.02816e-06
3.7495e-05
-4.07932e-07
4.59003e-05
-1.14998e-05
5.42575e-05
-2.66137e-05
6.35404e-05
-4.46e-05
6.95254e-05
-5.82541e-05
6.191e-05
-6.18538e-05
3.83927e-05
-5.85785e-05
3.93797e-06
-5.34337e-05
-2.92051e-05
-4.85661e-05
-5.18393e-05
-4.36965e-05
-7.41189e-05
-9.49147e-05
-3.90537e-05
4.87138e-07
-3.71734e-05
2.1901e-06
-1.86815e-05
4.50533e-06
-1.9503e-05
6.97687e-06
-1.20928e-05
9.23003e-06
-2.47418e-06
1.03017e-05
6.71444e-06
1.04325e-05
1.70273e-05
7.73761e-06
3.06903e-05
2.66854e-06
4.26521e-05
-5.81232e-06
5.43474e-05
-1.89545e-05
6.73964e-05
-3.51063e-05
7.97435e-05
-4.97879e-05
8.42569e-05
-5.91061e-05
7.12646e-05
-6.18206e-05
4.11658e-05
-5.77966e-05
-4.49326e-08
-5.28827e-05
-3.40959e-05
-4.81063e-05
-5.65795e-05
-4.3141e-05
-7.90018e-05
-9.97371e-05
-3.82601e-05
3.01314e-07
-3.75627e-05
1.81782e-06
-2.02464e-05
4.04068e-06
-2.16863e-05
6.32631e-06
-1.44035e-05
8.46542e-06
-4.54468e-06
9.62115e-06
5.5684e-06
9.7581e-06
1.68765e-05
7.20154e-06
3.32602e-05
1.42202e-06
4.84357e-05
-8.46852e-06
6.42181e-05
-2.18806e-05
8.08509e-05
-3.66976e-05
9.46166e-05
-4.88326e-05
9.6422e-05
-5.53924e-05
7.78255e-05
-5.64387e-05
4.22253e-05
-5.38867e-05
-2.5557e-06
-5.08023e-05
-3.71069e-05
-4.6326e-05
-6.10036e-05
-4.07396e-05
-8.45445e-05
-0.000105108
-3.53666e-05
8.07752e-09
-3.75884e-05
1.21551e-06
-2.14572e-05
3.18148e-06
-2.35671e-05
5.29246e-06
-1.66267e-05
7.40118e-06
-6.67737e-06
8.63267e-06
4.25468e-06
8.67386e-06
1.67675e-05
6.56404e-06
3.53931e-05
9.90489e-07
5.40156e-05
-8.65717e-06
7.38998e-05
-2.09303e-05
9.31821e-05
-3.34371e-05
0.000107111
-4.26743e-05
0.00010561
-4.71414e-05
8.22744e-05
-4.72545e-05
4.2383e-05
-4.70379e-05
-2.71114e-06
-4.5735e-05
-3.83644e-05
-4.1659e-05
-6.50519e-05
-3.57859e-05
-9.03621e-05
-0.00011068
-3.01661e-05
-3.83506e-07
-3.7186e-05
2.63025e-07
-2.2216e-05
1.67047e-06
-2.4979e-05
3.62395e-06
-1.87585e-05
5.89462e-06
-8.96548e-06
7.33252e-06
2.84011e-06
7.28521e-06
1.69066e-05
5.6189e-06
3.71215e-05
1.37718e-06
5.82648e-05
-6.33182e-06
8.16232e-05
-1.62199e-05
0.000103053
-2.57998e-05
0.000116627
-3.2782e-05
0.000112556
-3.66123e-05
8.61414e-05
-3.80948e-05
4.39301e-05
-4.00627e-05
-7.13764e-07
-3.93249e-05
-3.90933e-05
-3.50262e-05
-6.93184e-05
-2.86921e-05
-9.66512e-05
-0.000116616
-2.27348e-05
-9.32964e-07
-3.62547e-05
-1.1871e-06
-2.21065e-05
-5.20567e-07
-2.56207e-05
1.28437e-06
-2.05955e-05
3.76405e-06
-1.14062e-05
5.62563e-06
9.946e-07
5.78795e-06
1.67883e-05
4.85949e-06
3.7975e-05
2.8429e-06
6.01984e-05
-1.73528e-06
8.6199e-05
-8.36001e-06
0.000109666
-1.49346e-05
0.000123166
-1.97035e-05
0.000117326
-2.22344e-05
8.87056e-05
-2.4088e-05
4.57585e-05
-2.79863e-05
3.12166e-06
-2.85863e-05
-3.8506e-05
-2.47368e-05
-7.31409e-05
-1.85685e-05
-0.00010281
-0.000122387
-1.27937e-05
-1.62504e-06
-3.46201e-05
-2.97181e-06
-2.08216e-05
-3.20399e-06
-2.53281e-05
-1.67749e-06
-2.20731e-05
1.10806e-06
-1.42344e-05
3.72791e-06
-1.74836e-06
4.46733e-06
1.59865e-05
4.97059e-06
3.74535e-05
5.3567e-06
5.98473e-05
4.15761e-06
8.74436e-05
1.53272e-06
0.00011228
-1.00871e-06
0.000125669
-2.78183e-06
0.000119059
-4.38242e-06
9.02565e-05
-7.21697e-06
4.85242e-05
-1.17247e-05
7.63583e-06
-1.25534e-05
-3.75317e-05
-9.31222e-06
-7.62924e-05
-4.31398e-06
-0.000107883
-0.000126956
1.04306e-07
-2.41523e-06
-3.2169e-05
-4.99847e-06
-1.82559e-05
-6.37912e-06
-2.39605e-05
-5.55666e-06
-2.28886e-05
-2.68417e-06
-1.71641e-05
9.98469e-07
-5.46566e-06
3.33603e-06
1.36584e-05
5.89057e-06
3.49845e-05
8.45031e-06
5.73591e-05
1.0783e-05
8.51025e-05
1.27464e-05
0.000110216
1.49064e-05
0.00012343
1.72795e-05
0.000116692
1.87683e-05
8.88463e-05
1.82354e-05
4.91594e-05
1.55738e-05
1.02907e-05
1.33871e-05
-3.54424e-05
1.40463e-05
-7.70226e-05
1.58653e-05
-0.000109765
-0.000127827
1.67109e-05
-3.18643e-06
-2.89533e-05
-7.02949e-06
-1.44445e-05
-9.73821e-06
-2.13351e-05
-1.00941e-05
-2.25724e-05
-7.74732e-06
-1.95226e-05
-3.37904e-06
-9.7439e-06
1.22681e-06
9.0956e-06
6.19974e-06
3.00255e-05
1.13612e-05
5.21483e-05
1.74859e-05
7.89371e-05
2.43593e-05
0.000103347
3.16379e-05
0.000116192
3.81487e-05
0.00011018
4.18074e-05
8.51469e-05
4.24643e-05
4.84576e-05
4.18451e-05
1.09061e-05
3.99445e-05
-3.36106e-05
3.81541e-05
-7.5249e-05
3.55555e-05
-0.000107215
-0.000123378
3.10721e-05
-3.84199e-06
-2.51134e-05
-8.69561e-06
-9.64744e-06
-1.27085e-05
-1.73791e-05
-1.45416e-05
-2.07425e-05
-1.35115e-05
-2.05417e-05
-9.21055e-06
-1.39724e-05
-2.56833e-06
2.45155e-06
4.44496e-06
2.30261e-05
1.24721e-05
4.40763e-05
2.23502e-05
6.90002e-05
3.38048e-05
9.18739e-05
4.61292e-05
0.0001039
5.7131e-05
9.91897e-05
6.39652e-05
7.82718e-05
6.64e-05
4.59645e-05
6.66616e-05
1.05783e-05
6.52179e-05
-3.2198e-05
6.22237e-05
-7.22276e-05
5.55095e-05
-0.000100495
-0.000112465
4.46062e-05
-4.37151e-06
-2.07586e-05
-9.60173e-06
-4.45709e-06
-1.46293e-05
-1.23603e-05
-1.81811e-05
-1.71523e-05
-1.93383e-05
-1.93966e-05
-1.66813e-05
-1.66281e-05
-9.34073e-06
-4.95166e-06
-4.89752e-07
1.41585e-05
1.02533e-05
3.3297e-05
2.35656e-05
5.56755e-05
3.94302e-05
7.60131e-05
5.65365e-05
8.67994e-05
7.22426e-05
8.34427e-05
8.41346e-05
6.62675e-05
9.0985e-05
3.90468e-05
9.38951e-05
7.64027e-06
9.27803e-05
-3.11166e-05
8.64178e-05
-6.58745e-05
7.33077e-05
-8.73899e-05
-9.28118e-05
5.36443e-05
-4.83257e-06
-1.59443e-05
-9.47863e-06
1.86826e-07
-1.47375e-05
-7.18263e-06
-1.98897e-05
-1.1982e-05
-2.38048e-05
-1.54958e-05
-2.45826e-05
-1.58729e-05
-1.94559e-05
-1.01725e-05
-9.72779e-06
4.40141e-06
3.44776e-06
2.01316e-05
1.95058e-05
3.96416e-05
3.89177e-05
5.6569e-05
6.04075e-05
6.52435e-05
8.06609e-05
6.31329e-05
9.72475e-05
4.96396e-05
0.000108642
2.76619e-05
0.000114242
2.08984e-06
0.000112048
-2.88719e-05
0.000100902
-5.47101e-05
8.03393e-05
-6.68514e-05
-6.39894e-05
5.15221e-05
-5.22779e-06
-1.07575e-05
-8.23029e-06
3.18504e-06
-1.25547e-05
-3.00991e-06
-1.81571e-05
-6.33731e-06
-2.42584e-05
-9.48235e-06
-2.90267e-05
-1.1117e-05
-2.9307e-05
-9.87497e-06
-2.19569e-05
-2.9534e-06
-9.48535e-06
7.62853e-06
8.53574e-06
2.16393e-05
3.0868e-05
3.4246e-05
5.51839e-05
4.08984e-05
7.90281e-05
3.92649e-05
9.90097e-05
2.96586e-05
0.000113064
1.3651e-05
0.000120262
-5.08442e-06
0.000116749
-2.54218e-05
0.000100833
-3.88757e-05
7.18735e-05
-3.79256e-05
-2.9012e-05
3.68996e-05
-6.01874e-06
-4.80051e-06
-5.89088e-06
3.08403e-06
-8.12372e-06
-8.64645e-07
-1.21756e-05
-2.2561e-06
-1.79974e-05
-3.68096e-06
-2.42936e-05
-4.74101e-06
-2.91198e-05
-5.03511e-06
-2.81637e-05
-3.93259e-06
-2.0579e-05
2.10567e-08
-4.72817e-06
5.8093e-06
1.72798e-05
1.22032e-05
4.20265e-05
1.61684e-05
6.61318e-05
1.51949e-05
8.62187e-05
9.65353e-06
9.86396e-05
1.29652e-06
0.000101829
-8.2522e-06
9.23272e-05
-1.59718e-05
7.03517e-05
-1.69572e-05
3.99831e-05
-7.59833e-06
4.80149e-07
1.04908e-05
-4.83945e-06
-1.75211e-06
-2.64799e-06
-4.88571e-06
-8.56056e-06
-1.33053e-05
-1.8344e-05
-2.22565e-05
-2.2244e-05
-1.64083e-05
-4.20896e-06
1.19836e-05
2.722e-05
3.6894e-05
3.81646e-05
2.98632e-05
1.38515e-05
-3.12916e-06
-1.07181e-05
-1.0196e-05
-3.20754e-05
-9.87196e-05
-2.85469e-05
-0.000123095
-2.46106e-05
-0.000149095
-2.03237e-05
-0.000176352
-1.65677e-05
-0.000203981
-1.35409e-05
-0.000232687
-1.08751e-05
-0.000263468
-8.47485e-06
-0.000297351
-6.32747e-06
-0.000334819
-4.51708e-06
-0.000375938
-3.0982e-06
-0.000420602
-1.96704e-06
-0.00046867
-1.08131e-06
-0.000520661
-3.68893e-07
-0.000576351
1.60825e-07
-0.000636183
6.49663e-07
-0.000702843
9.76036e-07
-0.000763627
1.50238e-06
-0.000869331
2.5577e-06
-0.000866973
-0.00118888
-3.2077e-05
-0.00010144
-2.85871e-05
-0.000126534
-2.46394e-05
-0.000153019
-2.09883e-05
-0.000179978
-1.77295e-05
-0.000207264
-1.48575e-05
-0.000235632
-1.22379e-05
-0.000266142
-9.81795e-06
-0.0002998
-7.63573e-06
-0.000337016
-5.75458e-06
-0.000377837
-4.20236e-06
-0.000422172
-2.90045e-06
-0.000469966
-1.87109e-06
-0.000521707
-9.97181e-07
-0.000577281
-3.88593e-07
-0.000636909
2.10391e-07
-0.000703551
4.7803e-07
-0.000763956
1.05261e-06
-0.000869975
1.71973e-06
-0.000867702
-0.00118719
-3.26375e-05
-0.000104634
-2.90542e-05
-0.000130144
-2.54401e-05
-0.000156618
-2.19434e-05
-0.000183416
-1.87125e-05
-0.00021046
-1.58595e-05
-0.000238487
-1.32546e-05
-0.000268757
-1.08515e-05
-0.000302232
-8.66961e-06
-0.000339251
-6.7551e-06
-0.00037982
-5.13198e-06
-0.000423853
-3.73768e-06
-0.000471382
-2.63463e-06
-0.000522816
-1.63747e-06
-0.000578238
-9.57561e-07
-0.000637545
-2.27533e-07
-0.000704265
-2.45703e-08
-0.000764165
4.67094e-07
-0.000870489
1.26869e-06
-0.000868509
-0.00118591
-3.37196e-05
-0.000107945
-3.00979e-05
-0.000133692
-2.63839e-05
-0.00016032
-2.27677e-05
-0.000187066
-1.94638e-05
-0.000213792
-1.65185e-05
-0.000241436
-1.38731e-05
-0.000271417
-1.14774e-05
-0.000304652
-9.29434e-06
-0.000341426
-7.36177e-06
-0.000381735
-5.71374e-06
-0.000425491
-4.27205e-06
-0.000472806
-3.13796e-06
-0.000523959
-2.07289e-06
-0.000579314
-1.39248e-06
-0.000638239
-5.22196e-07
-0.000705121
-3.45849e-07
-0.00076433
2.21741e-07
-0.000871057
1.2318e-06
-0.000869565
-0.00118467
-3.46808e-05
-0.000111702
-3.08835e-05
-0.000137504
-2.70003e-05
-0.000164232
-2.31906e-05
-0.000190892
-1.97402e-05
-0.000217236
-1.6727e-05
-0.000244434
-1.40654e-05
-0.000274087
-1.16881e-05
-0.000307048
-9.53253e-06
-0.00034357
-7.63007e-06
-0.000383636
-6.0137e-06
-0.000427142
-4.58e-06
-0.00047427
-3.46281e-06
-0.000525129
-2.35593e-06
-0.000580456
-1.70057e-06
-0.000638911
-7.06318e-07
-0.000706109
-5.98856e-07
-0.000764452
9.59999e-08
-0.000871782
1.25393e-06
-0.000870748
-0.00118342
-3.48647e-05
-0.000115846
-3.09093e-05
-0.000141421
-2.68993e-05
-0.000168239
-2.29304e-05
-0.000194902
-1.93804e-05
-0.000220848
-1.63508e-05
-0.000247528
-1.3737e-05
-0.000276785
-1.14511e-05
-0.000309409
-9.39401e-06
-0.000345638
-7.58497e-06
-0.000385434
-6.04988e-06
-0.00042867
-4.66701e-06
-0.000475617
-3.59836e-06
-0.000526166
-2.48234e-06
-0.00058154
-1.89001e-06
-0.000639457
-7.91734e-07
-0.000707174
-8.01655e-07
-0.000764424
-3.46642e-08
-0.00087256
1.17346e-06
-0.000871923
-0.00118223
-3.38815e-05
-0.00012023
-2.98655e-05
-0.000145479
-2.58108e-05
-0.000172352
-2.18101e-05
-0.000198959
-1.82906e-05
-0.000224393
-1.53445e-05
-0.000250465
-1.28534e-05
-0.000279284
-1.07297e-05
-0.000311568
-8.84735e-06
-0.000347542
-7.20541e-06
-0.000387112
-5.80974e-06
-0.000430099
-4.52374e-06
-0.000476891
-3.55333e-06
-0.000527127
-2.45866e-06
-0.000582613
-1.97773e-06
-0.000639934
-7.88355e-07
-0.000708371
-9.13378e-07
-0.0007643
-6.39923e-08
-0.000873414
1.06928e-06
-0.000873013
-0.00118113
-3.10147e-05
-0.000124605
-2.73515e-05
-0.000149138
-2.35491e-05
-0.000176115
-1.9713e-05
-0.000202751
-1.63878e-05
-0.000227674
-1.36822e-05
-0.000253137
-1.14486e-05
-0.000281537
-9.58416e-06
-0.000313498
-7.9401e-06
-0.000349239
-6.5088e-06
-0.000388609
-5.30092e-06
-0.00043138
-4.15973e-06
-0.000478058
-3.33814e-06
-0.000528005
-2.31778e-06
-0.000583661
-1.97636e-06
-0.000640297
-7.2457e-07
-0.00070965
-9.32011e-07
-0.000764106
-1.61693e-08
-0.000874313
9.20061e-07
-0.000873914
-0.00118021
-2.60904e-05
-0.000128643
-2.31367e-05
-0.000152046
-1.99175e-05
-0.000179293
-1.65446e-05
-0.000206122
-1.36586e-05
-0.000230576
-1.13861e-05
-0.000255406
-9.55183e-06
-0.00028336
-8.04626e-06
-0.000314988
-6.7134e-06
-0.000350518
-5.55033e-06
-0.000389726
-4.57374e-06
-0.000432329
-3.63245e-06
-0.000478958
-2.97861e-06
-0.000528641
-2.07054e-06
-0.000584555
-1.89124e-06
-0.00064046
-6.12731e-07
-0.0007109
-9.11657e-07
-0.000763785
5.24469e-08
-0.000875235
7.05349e-07
-0.000874552
-0.00117953
-1.89942e-05
-0.000132404
-1.70685e-05
-0.000153991
-1.47961e-05
-0.000181554
-1.22133e-05
-0.000208697
-1.00285e-05
-0.000232758
-8.40111e-06
-0.000257024
-7.13172e-06
-0.000284629
-6.11098e-06
-0.000316018
-5.1842e-06
-0.000351429
-4.37142e-06
-0.000390565
-3.6796e-06
-0.000433048
-2.98194e-06
-0.000479673
-2.52368e-06
-0.000529113
-1.74623e-06
-0.000585342
-1.72172e-06
-0.000640491
-4.27846e-07
-0.00071217
-8.71598e-07
-0.000763319
1.4924e-07
-0.000876228
4.68351e-07
-0.000874886
-0.00117908
-9.80493e-06
-0.000135432
-9.27153e-06
-0.000154588
-8.2717e-06
-0.000182598
-6.79871e-06
-0.000210211
-5.60208e-06
-0.00023399
-4.84254e-06
-0.000257812
-4.30225e-06
-0.000285216
-3.89124e-06
-0.000316482
-3.45675e-06
-0.000351842
-3.03378e-06
-0.000390978
-2.66798e-06
-0.000433436
-2.24138e-06
-0.000480144
-1.99876e-06
-0.000529396
-1.37284e-06
-0.00058598
-1.49168e-06
-0.000640372
-1.57096e-07
-0.000713483
-8.51215e-07
-0.000762609
2.62395e-07
-0.000877349
2.29286e-07
-0.000874882
-0.00117886
1.4134e-06
-0.000136881
6.77778e-08
-0.000153324
-5.53412e-07
-0.000181984
-5.50068e-07
-0.000210182
-6.57876e-07
-0.000233822
-9.77476e-07
-0.000257398
-1.28357e-06
-0.000284815
-1.53847e-06
-0.000316189
-1.6675e-06
-0.000351712
-1.67959e-06
-0.000390966
-1.64624e-06
-0.000433459
-1.47816e-06
-0.000480307
-1.43357e-06
-0.000529452
-9.7732e-07
-0.000586444
-1.25377e-06
-0.000640104
1.81739e-07
-0.000714916
-9.56231e-07
-0.000761464
3.72701e-07
-0.000878707
-6.11312e-08
-0.000874459
-0.00117892
1.44904e-05
-0.000134656
1.04946e-05
-0.000149317
7.88111e-06
-0.000179388
6.07749e-06
-0.000208416
4.42457e-06
-0.000232225
2.88755e-06
-0.000255939
1.63049e-06
-0.000283659
6.89123e-07
-0.000315279
5.00761e-08
-0.000351063
-3.82198e-07
-0.000390571
-6.87983e-07
-0.000433219
-7.81479e-07
-0.000480263
-9.06432e-07
-0.000529352
-6.09093e-07
-0.000586746
-9.87892e-07
-0.000639745
2.38174e-07
-0.000716163
-1.0015e-06
-0.000760224
6.37286e-07
-0.000880354
-3.66563e-07
-0.000873443
-0.00117927
2.40596e-05
-0.000127631
1.79271e-05
-0.000143109
1.44337e-05
-0.000175825
1.14216e-05
-0.000205396
8.57229e-06
-0.000229405
6.11498e-06
-0.00025346
4.13864e-06
-0.0002817
2.59866e-06
-0.000313783
1.49925e-06
-0.000349938
7.10273e-07
-0.000389766
1.2858e-07
-0.000432644
-1.93415e-07
-0.000479957
-4.69307e-07
-0.000529094
-3.23609e-07
-0.000586908
-5.57853e-07
-0.000639556
3.75756e-07
-0.000717135
-9.5214e-07
-0.0007589
1.02721e-06
-0.000882305
-8.19394e-07
-0.000871571
-0.00118008
3.14126e-05
-0.000114426
2.32417e-05
-0.000134948
1.9348e-05
-0.000171965
1.5377e-05
-0.000201455
1.15854e-05
-0.000225661
8.41458e-06
-0.000250302
5.92542e-06
-0.000279212
3.98566e-06
-0.00031187
2.5409e-06
-0.000348505
1.47682e-06
-0.000388723
6.92044e-07
-0.000431864
1.89984e-07
-0.00047945
-2.13721e-07
-0.000528703
-2.89867e-07
-0.000586875
-5.8365e-07
-0.000639316
2.188e-07
-0.000717948
-1.04135e-06
-0.000757611
1.29291e-06
-0.000884618
-1.47701e-06
-0.000868801
-0.00118153
3.45911e-05
-9.53856e-05
2.64852e-05
-0.000126823
2.2757e-05
-0.00016821
1.7977e-05
-0.000196647
1.34997e-05
-0.000221164
9.85409e-06
-0.000246639
7.01471e-06
-0.000276368
4.81429e-06
-0.000309682
3.14856e-06
-0.00034684
1.90797e-06
-0.000387493
9.81758e-07
-0.000430943
3.30462e-07
-0.000478815
-1.57453e-07
-0.000528242
-4.09182e-07
-0.000586664
-6.48829e-07
-0.000639096
-2.11698e-07
-0.000718393
-1.30021e-06
-0.000756521
1.17665e-06
-0.000887091
-2.46645e-06
-0.000865128
-0.00118398
3.1578e-05
-7.53776e-05
2.69145e-05
-0.000122094
2.36152e-05
-0.000164878
1.85278e-05
-0.000191523
1.39281e-05
-0.000216532
1.02109e-05
-0.000242923
7.27782e-06
-0.000273444
4.9993e-06
-0.000307422
3.24779e-06
-0.000345095
1.94585e-06
-0.000386193
9.65443e-07
-0.000429976
2.21919e-07
-0.000478107
-2.87699e-07
-0.000527737
-6.71948e-07
-0.000586301
-8.08334e-07
-0.000638992
-8.37503e-07
-0.00071836
-1.60587e-06
-0.000755702
5.80131e-07
-0.000889223
-3.97743e-06
-0.000860517
-0.00118794
2.40594e-05
-6.2491e-05
2.39122e-05
-0.000121865
2.13287e-05
-0.000162254
1.69416e-05
-0.000187097
1.28336e-05
-0.000212409
9.37475e-06
-0.000239485
6.59309e-06
-0.00027067
4.43375e-06
-0.000305267
2.74392e-06
-0.000343434
1.50039e-06
-0.000384966
5.97903e-07
-0.000429064
-1.47259e-07
-0.000477393
-6.03891e-07
-0.000527301
-1.16293e-06
-0.000585767
-1.11489e-06
-0.000639063
-1.86764e-06
-0.000717571
-1.58965e-06
-0.000755932
-1.01359e-06
-0.000889751
-5.24266e-06
-0.000856262
-0.00119317
1.50787e-05
-6.70695e-05
1.82791e-05
-0.000125042
1.7544e-05
-0.000161541
1.33992e-05
-0.000182951
9.95404e-06
-0.000208921
6.78955e-06
-0.000236329
4.43205e-06
-0.000268339
2.61287e-06
-0.000303439
1.31256e-06
-0.000342137
3.1744e-07
-0.00038397
-2.95731e-07
-0.000428435
-9.32446e-07
-0.000476789
-1.0879e-06
-0.000527162
-1.93339e-06
-0.000584922
-1.23216e-06
-0.000639782
-3.75649e-06
-0.000715002
-9.92464e-07
-0.000758627
-5.25386e-06
-0.000885423
-6.18369e-06
-0.000855277
-0.00119932
1.04788e-05
-8.77264e-05
1.38574e-05
-0.000128423
9.91828e-06
-0.000157583
5.58289e-06
-0.00017865
2.38642e-06
-0.000205722
9.9377e-08
-0.000234062
-1.37889e-06
-0.000266876
-2.19795e-06
-0.000302585
-2.54778e-06
-0.00034178
-2.73096e-06
-0.000383789
-2.61847e-06
-0.000428524
-2.67265e-06
-0.00047675
-2.35279e-06
-0.000527491
-2.87597e-06
-0.000584367
-1.75253e-06
-0.000640876
-4.43731e-06
-0.000712298
-9.24761e-07
-0.000762146
-8.02878e-06
-0.000878279
-1.22878e-05
-0.000851017
-0.0012116
1.26629e-06
-8.90019e-05
-6.4151e-07
-0.000126523
-8.56284e-07
-0.00015736
-1.65673e-06
-0.000177853
-1.79666e-06
-0.000205578
-2.03634e-06
-0.000233815
-2.06724e-06
-0.000266842
-2.07995e-06
-0.000302558
-1.9826e-06
-0.000341873
-1.86251e-06
-0.000383917
-1.65776e-06
-0.000428725
-1.51442e-06
-0.000476895
-1.22162e-06
-0.000527789
-1.26767e-06
-0.000584313
-6.48718e-07
-0.000641477
-1.29106e-06
-0.000711634
2.07156e-07
-0.000763646
-1.6162e-06
-0.00087644
2.41097e-06
-0.000855017
-0.00120919
1.41015e-06
-9.04086e-05
-6.45899e-07
-0.000124474
-8.42946e-07
-0.000157164
-1.63539e-06
-0.000177068
-1.75921e-06
-0.000205456
-1.9933e-06
-0.000233584
-2.02593e-06
-0.000266815
-2.04306e-06
-0.000302541
-1.94987e-06
-0.00034196
-1.83233e-06
-0.000384032
-1.63014e-06
-0.000428931
-1.48759e-06
-0.000477038
-1.19325e-06
-0.000528079
-1.23909e-06
-0.000584268
-6.21027e-07
-0.000642102
-1.31047e-06
-0.000710941
2.19881e-07
-0.00076517
-1.67101e-06
-0.00087455
2.38098e-06
-0.000859068
-0.00120681
1.30145e-06
-9.17054e-05
-6.56126e-07
-0.000122525
-8.87599e-07
-0.000156934
-1.63573e-06
-0.000176329
-1.75589e-06
-0.00020534
-1.97269e-06
-0.000233372
-2.00627e-06
-0.000266786
-2.02251e-06
-0.000302524
-1.93031e-06
-0.000342045
-1.81122e-06
-0.000384147
-1.61009e-06
-0.000429134
-1.46482e-06
-0.000477183
-1.17196e-06
-0.000528368
-1.20631e-06
-0.000584234
-6.05611e-07
-0.00064271
-1.29559e-06
-0.000710249
2.36679e-07
-0.000766694
-1.66768e-06
-0.000872646
2.3149e-06
-0.000863052
-0.00120449
1.14895e-06
-9.28507e-05
-6.82457e-07
-0.000120703
-9.4034e-07
-0.000156677
-1.63431e-06
-0.000175644
-1.74651e-06
-0.000205232
-1.94362e-06
-0.000233179
-1.97787e-06
-0.000266754
-1.99367e-06
-0.000302507
-1.90342e-06
-0.00034213
-1.78357e-06
-0.000384262
-1.58423e-06
-0.000429333
-1.43719e-06
-0.00047733
-1.14761e-06
-0.000528657
-1.17224e-06
-0.000584208
-5.90884e-07
-0.000643297
-1.27323e-06
-0.000709566
2.54258e-07
-0.000768213
-1.65852e-06
-0.000870734
2.27631e-06
-0.000866992
-0.00120221
1.00214e-06
-9.38509e-05
-7.02079e-07
-0.000119011
-9.79337e-07
-0.000156399
-1.61392e-06
-0.000175016
-1.71586e-06
-0.000205135
-1.89402e-06
-0.000233002
-1.93072e-06
-0.000266718
-1.94826e-06
-0.000302487
-1.86236e-06
-0.000342211
-1.74383e-06
-0.000384377
-1.54804e-06
-0.000429528
-1.40075e-06
-0.000477478
-1.11683e-06
-0.000528942
-1.13385e-06
-0.000584191
-5.7382e-07
-0.000643861
-1.24484e-06
-0.000708896
2.70581e-07
-0.000769723
-1.6495e-06
-0.000868814
2.25053e-06
-0.000870899
-0.00119995
8.7624e-07
-9.47257e-05
-7.0751e-07
-0.000117439
-9.98179e-07
-0.000156105
-1.57111e-06
-0.000174446
-1.66187e-06
-0.000205047
-1.82245e-06
-0.00023284
-1.86378e-06
-0.000266677
-1.88553e-06
-0.000302463
-1.80662e-06
-0.000342287
-1.69159e-06
-0.000384491
-1.50128e-06
-0.000429716
-1.35519e-06
-0.000477626
-1.0789e-06
-0.000529223
-1.0904e-06
-0.00058418
-5.54119e-07
-0.0006444
-1.21072e-06
-0.000708242
2.85629e-07
-0.000771214
-1.64205e-06
-0.000866885
2.23588e-06
-0.000874785
-0.00119772
7.75073e-07
-9.54984e-05
-6.95415e-07
-0.000115978
-9.93098e-07
-0.0001558
-1.50351e-06
-0.000173935
-1.58264e-06
-0.00020497
-1.72726e-06
-0.00023269
-1.77552e-06
-0.000266628
-1.80423e-06
-0.000302432
-1.73512e-06
-0.000342355
-1.62596e-06
-0.0003846
-1.44322e-06
-0.000429898
-1.29985e-06
-0.000477772
-1.033e-06
-0.000529498
-1.03999e-06
-0.000584174
-5.30189e-07
-0.000644909
-1.17065e-06
-0.000707606
2.99798e-07
-0.000772682
-1.63682e-06
-0.000864947
2.23227e-06
-0.000878662
-0.00119548
7.00303e-07
-9.61944e-05
-6.6225e-07
-0.000114622
-9.61116e-07
-0.000155492
-1.40888e-06
-0.000173485
-1.47619e-06
-0.000204902
-1.60662e-06
-0.000232553
-1.66424e-06
-0.00026657
-1.70289e-06
-0.000302391
-1.64665e-06
-0.000342411
-1.54586e-06
-0.000384703
-1.37292e-06
-0.000430069
-1.23395e-06
-0.000477914
-9.78424e-07
-0.000529763
-9.82091e-07
-0.000584173
-5.01651e-07
-0.000645386
-1.12435e-06
-0.000706989
3.13564e-07
-0.000774119
-1.63432e-06
-0.000862997
2.24007e-06
-0.000882542
-0.00119324
6.54523e-07
-9.68428e-05
-6.03878e-07
-0.000113367
-8.99601e-07
-0.000155187
-1.28502e-06
-0.000173097
-1.34056e-06
-0.000204846
-1.4587e-06
-0.000232427
-1.52814e-06
-0.000266502
-1.58001e-06
-0.000302336
-1.53997e-06
-0.000342451
-1.45027e-06
-0.000384795
-1.28944e-06
-0.000430229
-1.15674e-06
-0.000478049
-9.145e-07
-0.000530016
-9.16279e-07
-0.000584175
-4.68266e-07
-0.000645828
-1.07155e-06
-0.000706392
3.27431e-07
-0.000775519
-1.63409e-06
-0.000861033
2.26154e-06
-0.000886441
-0.00119097
6.36484e-07
-9.74724e-05
-5.17348e-07
-0.000112217
-8.06253e-07
-0.00015489
-1.12975e-06
-0.000172775
-1.17386e-06
-0.000204802
-1.28161e-06
-0.000232313
-1.36548e-06
-0.00026642
-1.43409e-06
-0.000302264
-1.41384e-06
-0.00034247
-1.33816e-06
-0.000384872
-1.19186e-06
-0.000430375
-1.06751e-06
-0.000478175
-8.40672e-07
-0.000530252
-8.42088e-07
-0.000584178
-4.29861e-07
-0.000646232
-1.01175e-06
-0.000705817
3.42105e-07
-0.000776875
-1.63636e-06
-0.000859053
2.29844e-06
-0.000890375
-0.00118868
6.46265e-07
-9.81126e-05
-3.99656e-07
-0.000111175
-6.78983e-07
-0.000154607
-9.40922e-07
-0.000172518
-9.74588e-07
-0.00020477
-1.07364e-06
-0.000232211
-1.17448e-06
-0.000266322
-1.26365e-06
-0.00030217
-1.26703e-06
-0.000342465
-1.20853e-06
-0.000384931
-1.07942e-06
-0.000430504
-9.65669e-07
-0.000478289
-7.56462e-07
-0.000530468
-7.58979e-07
-0.000584181
-3.8602e-07
-0.000646597
-9.44125e-07
-0.000705264
3.58197e-07
-0.000778181
-1.64182e-06
-0.000857052
2.35237e-06
-0.000894366
-0.00118632
6.84289e-07
-9.87935e-05
-2.48379e-07
-0.000110248
-5.15708e-07
-0.000154341
-7.16273e-07
-0.000172326
-7.41763e-07
-0.000204749
-8.3343e-07
-0.00023212
-9.53308e-07
-0.000266205
-1.06699e-06
-0.000302052
-1.09833e-06
-0.00034243
-1.06028e-06
-0.000384968
-9.51285e-07
-0.000430614
-8.50666e-07
-0.000478389
-6.61515e-07
-0.00053066
-6.66433e-07
-0.000584182
-3.30896e-07
-0.000646927
-8.62937e-07
-0.000704736
3.76698e-07
-0.000779422
-1.65053e-06
-0.000855025
2.42615e-06
-0.000898436
-0.0011839
7.51051e-07
-9.95447e-05
-6.153e-08
-0.000109443
-3.14805e-07
-0.000154093
-4.54533e-07
-0.000172195
-4.74949e-07
-0.000204733
-5.60322e-07
-0.000232038
-7.00882e-07
-0.000266067
-8.42651e-07
-0.000301907
-9.06211e-07
-0.000342363
-8.92378e-07
-0.00038498
-8.068e-07
-0.000430701
-7.22017e-07
-0.000478473
-5.55632e-07
-0.000530825
-5.6406e-07
-0.000584179
-2.66525e-07
-0.000647223
-7.63514e-07
-0.000704243
4.06614e-07
-0.00078059
-1.66412e-06
-0.000852956
2.52086e-06
-0.000902616
-0.00118138
8.47019e-07
-0.000100395
1.62683e-07
-0.000108764
-7.49943e-08
-0.000153861
-1.55789e-07
-0.00017212
-1.74542e-07
-0.000204719
-2.54452e-07
-0.000231962
-4.17125e-07
-0.000265906
-5.90078e-07
-0.000301732
-6.89916e-07
-0.00034226
-7.04398e-07
-0.000384963
-6.45666e-07
-0.000430763
-5.79451e-07
-0.000478538
-4.38788e-07
-0.000530963
-4.51827e-07
-0.000584172
-1.93937e-07
-0.000647482
-6.51959e-07
-0.000703788
4.42135e-07
-0.000781677
-1.68285e-06
-0.000850834
2.64219e-06
-0.000906938
-0.00117873
9.72463e-07
-0.000101372
4.25226e-07
-0.000108219
2.03939e-07
-0.000153642
1.78589e-07
-0.000172094
1.58109e-07
-0.000204702
8.33537e-08
-0.000231891
-1.02423e-07
-0.00026572
-3.09531e-07
-0.000301525
-4.49616e-07
-0.000342119
-4.96439e-07
-0.000384913
-4.67798e-07
-0.000430796
-4.2294e-07
-0.000478583
-3.1106e-07
-0.000531069
-3.30003e-07
-0.000584158
-1.16844e-07
-0.000647699
-5.35097e-07
-0.000703374
4.8072e-07
-0.000782679
-1.70713e-06
-0.000848649
2.79306e-06
-0.00091144
-0.00117594
1.12597e-06
-0.0001025
7.25952e-07
-0.00010782
5.20427e-07
-0.000153436
5.4551e-07
-0.000172115
5.20429e-07
-0.000204681
4.51401e-07
-0.000231826
2.42267e-07
-0.00026551
-1.64046e-09
-0.000301282
-1.85752e-07
-0.000341936
-2.68783e-07
-0.000384828
-2.73402e-07
-0.000430795
-2.52711e-07
-0.000478605
-1.72767e-07
-0.000531144
-1.98922e-07
-0.000584137
-3.37966e-08
-0.000647868
-4.10299e-07
-0.000703001
5.21719e-07
-0.000783594
-1.73679e-06
-0.000846392
2.97395e-06
-0.00091616
-0.00117296
1.30248e-06
-0.000103801
1.06336e-06
-0.000107586
8.70142e-07
-0.000153239
9.39965e-07
-0.000172182
9.08386e-07
-0.000204657
8.46892e-07
-0.000231767
6.15198e-07
-0.000265277
3.32498e-07
-0.000301001
1.00925e-07
-0.000341707
-2.19784e-08
-0.000384702
-6.30976e-08
-0.000430756
-6.92428e-08
-0.000478599
-2.45843e-08
-0.000531184
-5.86584e-08
-0.000584107
5.55781e-08
-0.000647983
-2.75348e-07
-0.000702674
5.51773e-07
-0.000784403
-1.77171e-06
-0.000844067
3.18337e-06
-0.000921131
-0.00116977
1.49426e-06
-0.000105288
1.43221e-06
-0.000107537
1.24523e-06
-0.000153053
1.35381e-06
-0.000172292
1.31696e-06
-0.000204631
1.2658e-06
-0.000231717
1.01359e-06
-0.000265023
6.90997e-07
-0.000300678
4.09085e-07
-0.000341428
2.42988e-07
-0.000384533
1.62141e-07
-0.000430674
1.26776e-07
-0.000478565
1.32714e-07
-0.000531189
9.06948e-08
-0.000584069
1.49183e-07
-0.000648036
-1.39805e-07
-0.000702388
5.57275e-07
-0.000785091
-1.79377e-06
-0.000841713
3.41877e-06
-0.000926359
-0.00116635
1.70369e-06
-0.000106982
1.82575e-06
-0.000107676
1.64439e-06
-0.000152878
1.78074e-06
-0.000172434
1.74486e-06
-0.000204604
1.70481e-06
-0.000231677
1.435e-06
-0.000264752
1.07148e-06
-0.000300311
7.37333e-07
-0.000341094
5.25036e-07
-0.000384317
4.01962e-07
-0.000430548
3.34727e-07
-0.000478497
3.00274e-07
-0.000531158
2.48655e-07
-0.000584021
2.52995e-07
-0.000648025
7.87449e-09
-0.000702145
5.76149e-07
-0.000785666
-1.79784e-06
-0.000839337
3.69446e-06
-0.000931855
-0.00116266
1.88265e-06
-0.000108855
2.34216e-06
-0.00010813
2.09369e-06
-0.000152653
2.2615e-06
-0.000172618
2.20323e-06
-0.000204526
2.16112e-06
-0.000231638
1.86416e-06
-0.000264474
1.45936e-06
-0.000299906
1.07456e-06
-0.000340693
8.17548e-07
-0.000384057
6.51308e-07
-0.000430392
5.522e-07
-0.000478401
4.74627e-07
-0.000531078
4.18343e-07