/*--------------------------------*- C++ -*----------------------------------*\
  =========                 |
  \\      /  F ield         | OpenFOAM: The Open Source CFD Toolbox
   \\    /   O peration     | Website:  https://openfoam.org
    \\  /    A nd           | Version:  10
     \\/     M anipulation  |
\*---------------------------------------------------------------------------*/
FoamFile
{
    format      ascii;
    class       surfaceScalarField;
    location    "500";
    object      phi;
}
// * * * * * * * * * * * * * * * * * * * * * * * * * * * * * * * * * * * * * //

dimensions      [0 3 -1 0 0 0 0];

internalField   nonuniform List<scalar> 
788
(
5.08472e-06
1.19564e-06
5.2839e-06
8.15033e-06
7.14416e-06
1.36951e-05
9.48722e-06
1.49192e-05
1.1881e-05
1.36478e-05
1.39174e-05
1.02797e-05
1.54988e-05
4.50969e-06
1.67564e-05
-3.95927e-06
1.89362e-05
-1.51967e-05
-2.82591e-05
2.19572e-05
3.13908e-06
-1.96227e-06
4.63686e-06
6.60452e-06
6.84339e-06
1.14476e-05
9.29724e-06
1.24282e-05
1.15699e-05
1.12879e-05
1.33378e-05
8.34475e-06
1.45789e-05
3.05409e-06
1.56878e-05
-5.25323e-06
1.76481e-05
-1.72128e-05
-3.04605e-05
1.99462e-05
2.2287e-06
-4.21184e-06
4.31326e-06
4.48818e-06
6.81071e-06
8.90778e-06
9.29968e-06
9.87485e-06
1.12861e-05
9.19588e-06
1.23972e-05
7.07878e-06
1.26614e-05
2.61646e-06
1.27915e-05
-5.51888e-06
1.38442e-05
-1.83182e-05
-3.22447e-05
1.56543e-05
1.50757e-06
-5.73336e-06
3.35525e-06
2.61368e-06
5.75694e-06
6.46526e-06
8.00534e-06
7.5589e-06
9.67395e-06
7.43431e-06
1.0452e-05
6.19236e-06
1.03373e-05
2.63721e-06
9.85098e-06
-5.07145e-06
9.74622e-06
-1.81812e-05
-3.33042e-05
1.08659e-05
8.62289e-07
-6.6038e-06
2.24697e-06
1.21162e-06
4.39704e-06
4.28804e-06
6.47848e-06
5.42327e-06
8.05226e-06
5.7842e-06
8.81494e-06
5.34886e-06
8.73742e-06
2.66565e-06
8.05383e-06
-4.36463e-06
6.78648e-06
-1.68212e-05
-3.27754e-05
6.33422e-06
1.65118e-07
-6.77288e-06
9.84707e-07
3.88174e-07
2.81195e-06
2.45381e-06
4.7819e-06
3.42399e-06
6.4586e-06
4.06345e-06
7.51029e-06
4.25718e-06
7.62329e-06
2.54996e-06
6.76348e-06
-3.4368e-06
4.4955e-06
-1.44379e-05
-3.04386e-05
2.21723e-06
-6.22343e-07
-6.14826e-06
-4.26048e-07
2.10712e-07
9.643e-07
1.08925e-06
2.73701e-06
1.66021e-06
4.53546e-06
2.25922e-06
6.09525e-06
2.68928e-06
6.85403e-06
1.80984e-06
6.14301e-06
-2.65087e-06
3.17088e-06
-1.13623e-05
-2.62527e-05
-9.75251e-07
-1.53255e-06
-4.60306e-06
-1.89977e-06
6.28032e-07
-1.11732e-06
3.74845e-07
1.01373e-07
4.91129e-07
1.60803e-06
7.69614e-07
3.30173e-06
9.83903e-07
4.60095e-06
5.09862e-07
4.02061e-06
-2.01553e-06
3.61044e-07
-7.60743e-06
-1.99205e-05
-5.92433e-06
-2.5117e-06
-2.06586e-06
-2.99586e-06
1.18582e-06
-3.06591e-06
5.36432e-07
-3.08675e-06
5.71992e-07
-2.88733e-06
5.71944e-07
-2.34777e-06
3.95339e-07
-1.78783e-06
-9.0844e-08
-2.6075e-06
-1.15603e-06
-6.71126e-06
-3.37457e-06
-1.16357e-05
-1.48842e-05
-2.03775e-06
-8.04833e-07
-2.39992e-07
3.22221e-07
8.49213e-07
1.20439e-06
1.12891e-06
5.26496e-08
-3.24261e-06
-1.4887e-05
2.60124e-05
-4.72172e-05
3.17138e-05
-7.91825e-05
3.9411e-05
-0.000122338
4.93095e-05
-0.000176421
6.18446e-05
-0.000242757
7.81971e-05
-0.000328494
9.73619e-05
-0.000440392
9.34003e-05
-0.000550901
-6.05683e-06
-0.000708076
-0.00158136
2.28663e-05
-4.99773e-05
2.71353e-05
-8.32985e-05
3.31634e-05
-0.000128274
4.07691e-05
-0.000184013
4.99115e-05
-0.000251898
6.0839e-05
-0.000339345
7.35502e-05
-0.000453169
8.43562e-05
-0.000561741
2.13096e-05
-0.000645048
-0.00156017
1.79666e-05
-5.22767e-05
2.13456e-05
-8.67041e-05
2.60008e-05
-0.000132959
3.15482e-05
-0.000189545
3.77744e-05
-0.000258084
4.47546e-05
-0.000346377
5.45339e-05
-0.000462921
7.05532e-05
-0.000577686
3.55797e-05
-0.000610319
-0.00152467
1.23917e-05
-5.37996e-05
1.48187e-05
-8.91783e-05
1.80959e-05
-0.00013626
2.17097e-05
-0.000193122
2.54964e-05
-0.00026185
2.98047e-05
-0.000350784
3.78002e-05
-0.000471245
5.29013e-05
-0.000592715
4.60063e-05
-0.000603387
-0.00147875
6.56166e-06
-5.40443e-05
8.00346e-06
-9.06784e-05
1.00838e-05
-0.000138335
1.21087e-05
-0.000195112
1.39047e-05
-0.000263749
1.5823e-05
-0.000352687
1.9817e-05
-0.000475329
2.77517e-05
-0.0006007
4.45512e-05
-0.000620043
-0.00143432
1.18473e-06
-5.30684e-05
1.98232e-06
-9.15455e-05
3.08148e-06
-0.000139372
3.77699e-06
-0.000195696
4.0574e-06
-0.000264173
4.24996e-06
-0.00035292
5.65419e-06
-0.000476653
8.40549e-06
-0.000603652
3.37158e-05
-0.000645268
-0.00140072
-2.9818e-06
-5.1131e-05
-2.78373e-06
-9.1803e-05
-2.93531e-06
-0.000139119
-3.8163e-06
-0.000194679
-5.10173e-06
-0.000263066
-6.47543e-06
-0.0003517
-6.94208e-06
-0.000476061
-8.90323e-06
-0.000601969
1.27662e-05
-0.000666902
-0.00138801
-7.56291e-06
-4.95462e-05
-7.75877e-06
-9.16466e-05
-9.0395e-06
-0.000137701
-1.13064e-05
-0.000192265
-1.3917e-05
-0.000260649
-1.63791e-05
-0.000349452
-1.72418e-05
-0.000475034
-1.93342e-05
-0.000600109
-9.71955e-07
-0.00068526
-0.00138898
-1.35987e-05
-5.08694e-05
-1.30323e-05
-9.22604e-05
-1.56712e-05
-0.00013488
-1.95465e-05
-0.000188205
-2.37798e-05
-0.000256589
-2.7892e-05
-0.000345548
-3.03834e-05
-0.000472335
-2.79237e-05
-0.000602625
-4.95477e-06
-0.000708318
-0.00139397
-1.05076e-05
-5.53313e-05
-1.35935e-05
-8.92652e-05
-1.91991e-05
-0.000129198
-2.48246e-05
-0.000182428
-3.01528e-05
-0.000251274
-3.5188e-05
-0.000340512
-3.86978e-05
-0.00046881
-3.06415e-05
-0.000610757
-4.55944e-06
-0.000734342
-0.00139854
-2.74153e-06
-5.26784e-05
-6.49607e-06
-8.55679e-05
-9.60979e-06
-0.000125947
-1.26027e-05
-0.000179239
-1.58366e-05
-0.000248111
-1.88233e-05
-0.000337563
-2.15696e-05
-0.000466032
-2.77112e-05
-0.000604672
-2.81532e-06
-0.000759216
-0.00140136
-1.8185e-06
-5.09509e-05
-4.08221e-06
-8.34092e-05
-6.60272e-06
-0.000123273
-9.1424e-06
-0.000176512
-1.2297e-05
-0.000245103
-1.57774e-05
-0.000334169
-1.93505e-05
-0.000462397
-2.56606e-05
-0.00059837
-5.81223e-06
-0.000779048
-0.00140718
-1.02781e-05
-4.49691e-05
4.1546e-06
-1.55027e-05
-7.81528e-05
-2.01173e-05
-0.000118569
-2.46934e-05
-0.000171819
-2.9495e-05
-0.000240441
-3.44954e-05
-0.000329229
-3.96149e-05
-0.000457302
-3.30312e-05
-0.000605034
-1.8028e-05
-0.000794045
-0.00142518
-1.8301e-05
-4.2481e-05
1.58069e-05
-2.22393e-05
-7.42001e-05
-2.65502e-05
-0.0001142
-3.13097e-05
-0.000166959
-3.68043e-05
-0.000235133
-4.2198e-05
-0.000323966
-4.73124e-05
-0.000452204
-4.33223e-05
-0.000609057
-1.2235e-05
-0.000825108
-0.00143736
-1.96353e-05
-4.19047e-05
1.90914e-05
-2.24731e-05
-7.13869e-05
-2.61873e-05
-0.00011047
-3.05947e-05
-0.000162497
-3.60823e-05
-0.000229795
-4.20221e-05
-0.000318113
-4.98212e-05
-0.000444415
-4.95985e-05
-0.000609182
-1.16323e-05
-0.000863029
-0.00144894
-1.81119e-05
-4.11087e-05
1.73094e-05
-2.04702e-05
-6.91191e-05
-2.36642e-05
-0.000107278
-2.77938e-05
-0.000158316
-3.3365e-05
-0.0002243
-4.03103e-05
-0.000311132
-5.0779e-05
-0.000433862
-5.42887e-05
-0.000605557
-1.47493e-05
-0.000902559
-0.00146365
-1.39765e-05
-4.00342e-05
1.28574e-05
-1.60673e-05
-6.71568e-05
-1.87942e-05
-0.000104534
-2.25608e-05
-0.000154456
-2.7922e-05
-0.000218923
-3.53555e-05
-0.000303604
-4.80393e-05
-0.000421085
-5.60069e-05
-0.000597521
-1.68065e-05
-0.00094183
-0.00148041
-7.61841e-06
-3.90306e-05
6.54226e-06
-9.39556e-06
-6.55079e-05
-1.16286e-05
-0.000102244
-1.48278e-05
-0.000151111
-1.94807e-05
-0.000214178
-2.62916e-05
-0.000296687
-3.93215e-05
-0.00040807
-5.04582e-05
-0.000586408
-2.04189e-05
-0.000972
-0.00150074
-3.26776e-07
-3.82741e-05
-5.13209e-07
-1.63483e-06
-6.42918e-05
-3.04626e-06
-0.000100716
-5.12824e-06
-0.000148843
-8.44623e-06
-0.000210753
-1.3467e-05
-0.000291622
-2.37968e-05
-0.000397897
-3.67671e-05
-0.000573452
-2.34103e-05
-0.000985428
-0.00152399
6.83341e-06
-3.79984e-05
-7.18393e-06
6.60437e-06
-6.40886e-05
6.78219e-06
-0.000100733
6.66543e-06
-0.000148576
5.47206e-06
-0.000209544
3.04462e-06
-0.000289264
-2.48608e-06
-0.000392545
-1.34156e-05
-0.000562246
-1.89078e-05
-0.000979858
-0.00154316
1.14692e-05
-3.88612e-05
-1.06519e-05
1.40238e-05
-6.66165e-05
1.81569e-05
-0.000104774
2.2991e-05
-0.000153454
2.72408e-05
-0.000213939
3.0145e-05
-0.000292306
3.40236e-05
-0.000396657
3.98424e-05
-0.000567834
3.63473e-06
-0.000943393
-0.0015396
2.34898e-05
-1.90717e-05
3.07331e-05
4.0897e-05
5.37391e-05
6.94131e-05
8.90993e-05
0.000113986
0.000100619
-3.54838e-05
-1.69586e-05
2.10496e-05
-2.3129e-05
2.20116e-05
-2.58034e-05
2.17803e-05
-2.60545e-05
1.75083e-05
-2.52101e-05
1.19165e-05
-2.41291e-05
5.34025e-06
-2.31828e-05
-1.57046e-06
-2.25674e-05
-7.87864e-06
-2.23613e-05
-1.09364e-05
-1.65441e-05
-2.85051e-06
2.39721e-05
-8.1166e-06
2.7444e-05
-1.15152e-05
2.52954e-05
-1.26066e-05
1.8633e-05
-1.22659e-05
1.15522e-05
-1.1434e-05
4.44051e-06
-1.07539e-05
-2.3364e-06
-1.06551e-05
-8.05955e-06
-1.05597e-05
-1.11744e-05
-1.51797e-05
3.52141e-06
2.0525e-05
2.38761e-06
2.86805e-05
1.02187e-06
2.67097e-05
1.22267e-07
1.95302e-05
1.71586e-07
1.14642e-05
5.14441e-07
4.0202e-06
2.53809e-07
-2.18616e-06
-6.00898e-07
-7.35383e-06
-7.58751e-07
-1.12761e-05
-1.45873e-05
5.58688e-06
1.49762e-05
8.69425e-06
2.55967e-05
1.02692e-05
2.51079e-05
1.06096e-05
1.91507e-05
1.04921e-05
1.15209e-05
1.0279e-05
4.13897e-06
9.82212e-06
-1.86169e-06
9.11898e-06
-6.8263e-06
8.43134e-06
-1.08292e-05
-1.32736e-05
5.30003e-06
9.67823e-06
1.11251e-05
1.97178e-05
1.58448e-05
2.02795e-05
1.85339e-05
1.63832e-05
1.93933e-05
1.05814e-05
1.9115e-05
4.32168e-06
1.82496e-05
-1.11418e-06
1.68396e-05
-5.55599e-06
1.49929e-05
-9.14333e-06
-1.12043e-05
4.25757e-06
5.39023e-06
1.05812e-05
1.32893e-05
1.64962e-05
1.42205e-05
2.07066e-05
1.20797e-05
2.29031e-05
8.30539e-06
2.33491e-05
3.79708e-06
2.2644e-05
-4.94719e-07
2.1074e-05
-4.08359e-06
1.88285e-05
-6.99645e-06
-8.73446e-06
3.06028e-06
2.28688e-06
8.65984e-06
7.57078e-06
1.44951e-05
8.26658e-06
1.91567e-05
7.3469e-06
2.20718e-05
5.33313e-06
2.32183e-05
2.59671e-06
2.29863e-05
-3.18814e-07
2.17612e-05
-2.92051e-06
1.97996e-05
-5.08755e-06
-6.46752e-06
2.12879e-06
1.24695e-07
6.68561e-06
2.92517e-06
1.15755e-05
3.32671e-06
1.56958e-05
3.19918e-06
1.85673e-05
2.43882e-06
2.00233e-05
1.11659e-06
2.01671e-05
-4.90522e-07
1.933e-05
-2.11676e-06
1.77891e-05
-3.58788e-06
-4.62886e-06
9.93754e-07
-8.84396e-07
4.10161e-06
-2.20493e-07
7.45722e-06
-3.6282e-08
1.03137e-05
3.32177e-07
1.23156e-05
4.23408e-07
1.32641e-05
1.50325e-07
1.31585e-05
-4.05965e-07
1.21625e-05
-1.14547e-06
1.04585e-05
-1.93939e-06
-3.02222e-06
-8.86302e-07
-1.10115e-06
-1.13719e-06
-8.0738e-07
-3.88915e-07
-2.48041e-07
-6.68244e-07
-1.83081e-06
-3.79415e-06
)
;

boundaryField
{
    right
    {
        type            cyclic;
        value           nonuniform List<scalar> 
20
(
0.0015754
0.000807045
0.000554387
0.000421529
0.000311898
0.00022948
0.000165991
0.000114427
7.3406e-05
4.29998e-05
2.50022e-05
1.24168e-05
2.0567e-06
-6.56768e-06
-1.26387e-05
-1.62618e-05
-1.74149e-05
-1.5729e-05
-8.53863e-06
6.82407e-06
)
;
    }
    left
    {
        type            cyclic;
        value           nonuniform List<scalar> 
20
(
-0.0015754
-0.000807045
-0.000554387
-0.000421529
-0.000311898
-0.00022948
-0.000165991
-0.000114427
-7.3406e-05
-4.29998e-05
-2.50022e-05
-1.24168e-05
-2.0567e-06
6.56768e-06
1.26387e-05
1.62618e-05
1.74149e-05
1.5729e-05
8.53863e-06
-6.82407e-06
)
;
    }
    outerWall
    {
        type            calculated;
        value           uniform 0;
    }
    stirrerWall
    {
        type            calculated;
        value           uniform 0;
    }
    top
    {
        type            empty;
        value           nonuniform List<scalar> 0();
    }
    bottom
    {
        type            empty;
        value           nonuniform List<scalar> 0();
    }
}


// ************************************************************************* //
