/*--------------------------------*- C++ -*----------------------------------*\
  =========                 |
  \\      /  F ield         | OpenFOAM: The Open Source CFD Toolbox
   \\    /   O peration     | Website:  https://openfoam.org
    \\  /    A nd           | Version:  10
     \\/     M anipulation  |
\*---------------------------------------------------------------------------*/
FoamFile
{
    format      ascii;
    class       volVectorField;
    location    "500";
    object      U;
}
// * * * * * * * * * * * * * * * * * * * * * * * * * * * * * * * * * * * * * //

dimensions      [0 1 -1 0 0 0 0];

internalField   nonuniform List<vector> 
420
(
(0.835642 8.80522 1.32289e-18)
(0.332544 10.9591 -2.32032e-17)
(0.291905 12.7677 -1.69772e-16)
(0.407537 14.1424 4.83143e-17)
(0.509349 15.2875 -3.75374e-16)
(0.603577 16.2325 0)
(0.663838 16.9746 0)
(0.670365 17.5127 4.45897e-16)
(0.714318 17.8756 -6.90203e-16)
(0.851899 18.0904 0)
(0.0838212 9.04045 1.06893e-17)
(-0.725866 10.8538 -4.86492e-17)
(-0.695455 12.5415 4.89163e-16)
(-0.633591 13.8939 -8.27266e-16)
(-0.62284 15.0461 2.51162e-16)
(-0.635395 16.0392 6.0364e-18)
(-0.64631 16.8376 2.36225e-15)
(-0.647553 17.4095 -6.00579e-16)
(-0.664204 17.7096 1.57405e-15)
(-0.572142 17.8944 0)
(-0.624139 8.80939 -9.19364e-17)
(-1.62827 10.6138 -2.31499e-16)
(-1.60576 12.2814 5.44293e-16)
(-1.63207 13.6283 9.97954e-16)
(-1.71499 14.8078 -6.59385e-16)
(-1.86152 15.847 3.24921e-15)
(-1.98585 16.7019 1.46053e-15)
(-2.07418 17.2781 4.3697e-15)
(-2.23107 17.4702 -2.27772e-15)
(-2.16878 17.6107 -5.12868e-15)
(-1.29792 8.55509 9.49785e-17)
(-2.51416 10.267 2.44639e-16)
(-2.57655 11.9042 -6.75962e-16)
(-2.71922 13.2541 7.03639e-16)
(-2.92118 14.4687 -1.36998e-15)
(-3.17026 15.5653 1.59745e-15)
(-3.37698 16.4751 -8.39918e-15)
(-3.50263 17.0657 0)
(-3.81268 17.1547 -5.49192e-15)
(-3.76554 17.1959 4.71253e-15)
(-1.94662 8.31516 0)
(-3.36224 9.86991 2.71732e-16)
(-3.53634 11.4474 -2.55775e-16)
(-3.79357 12.7913 0)
(-4.09641 14.034 -3.13444e-16)
(-4.43107 15.183 -2.95033e-16)
(-4.71166 16.1466 2.90661e-15)
(-4.87148 16.769 -3.91393e-15)
(-5.25966 16.8243 0)
(-5.30255 16.7325 -1.83882e-14)
(-2.58625 8.08246 -2.38749e-17)
(-4.1917 9.44012 0)
(-4.47524 10.923 0)
(-4.83585 12.2377 1.30597e-15)
(-5.22373 13.4926 -2.11747e-15)
(-5.62762 14.6848 2.35428e-15)
(-5.97415 15.7057 7.05825e-16)
(-6.21134 16.3768 8.77176e-15)
(-6.6385 16.47 -1.45225e-14)
(-6.79798 16.2818 8.63797e-15)
(-3.2376 7.85616 0)
(-5.00788 8.98547 -3.23019e-16)
(-5.39388 10.3394 -2.06455e-15)
(-5.84942 11.5937 -8.24329e-16)
(-6.31427 12.8304 -3.82093e-15)
(-6.77641 14.0408 2.40316e-15)
(-7.18008 15.1269 -5.87329e-15)
(-7.49223 15.8737 7.65458e-16)
(-7.96126 16.1222 -4.08576e-15)
(-8.2534 15.9193 -1.26418e-14)
(-3.92367 7.63017 3.79335e-17)
(-5.80911 8.51552 3.41212e-16)
(-6.29449 9.72312 2.79485e-15)
(-6.85347 10.883 6.18136e-16)
(-7.40942 12.0535 2.35635e-15)
(-7.9424 13.2247 0)
(-8.41541 14.3319 6.12053e-15)
(-8.83126 15.1806 7.43339e-15)
(-9.37307 15.6171 9.93544e-15)
(-9.82276 15.4938 8.89901e-15)
(-4.67443 7.39 3.72995e-17)
(-6.55583 8.05123 3.52234e-16)
(-7.15072 9.11882 -3.75768e-16)
(-7.85925 10.1611 -2.00395e-15)
(-8.57423 11.2173 6.45581e-15)
(-9.26202 12.2918 8.89192e-15)
(-9.89537 13.3646 -3.01697e-15)
(-10.5061 14.3277 0)
(-11.1945 14.9368 0)
(-11.7445 14.9143 -9.34429e-15)
(-5.50345 7.0366 -1.39882e-16)
(-6.9243 7.71663 6.07039e-16)
(-7.52975 8.72396 0)
(-8.25334 9.71598 0)
(-8.9867 10.6703 -3.26448e-15)
(-9.70438 11.5827 -2.40174e-17)
(-10.4143 12.4496 5.69343e-15)
(-11.1414 13.2693 -1.22743e-14)
(-11.9553 13.9948 1.47366e-14)
(-12.8094 14.2088 1.22496e-15)
(0.911979 17.8471 0)
(1.07047 17.216 0)
(1.38046 16.4154 0)
(1.80128 15.6147 -1.01798e-15)
(2.22339 14.8737 0)
(2.60862 13.9711 0)
(3.65224 12.7418 1.01962e-15)
(6.65715 12.4197 0)
(-5.78327 9.67184 0)
(7.96491 -11.5032 0)
(-0.573015 17.589 2.08892e-15)
(-0.431595 16.8874 3.33133e-15)
(-0.110245 16.0148 1.33638e-16)
(0.301761 15.1724 1.03577e-15)
(0.659988 14.4002 3.69447e-17)
(0.927983 13.4542 1.27141e-15)
(1.62411 12.3192 1.38648e-16)
(5.2604 12.7724 -2.47875e-16)
(-6.25941 12.1777 -1.56478e-15)
(9.38581 -10.7639 -3.51965e-16)
(-2.15168 17.257 1.80215e-15)
(-1.96474 16.4965 0)
(-1.59931 15.5693 -2.43632e-15)
(-1.18032 14.7061 -1.99974e-15)
(-0.854095 13.9216 5.99989e-15)
(-0.646558 12.9465 -1.1859e-15)
(-0.153963 11.7182 2.10927e-15)
(3.68552 12.37 0)
(-6.63051 13.6049 2.32919e-15)
(9.0938 -9.22095 -7.90361e-17)
(-3.71657 16.8046 3.85457e-15)
(-3.48473 15.9966 9.0407e-15)
(-3.07495 15.0391 -9.13935e-15)
(-2.65097 14.1837 3.56353e-15)
(-2.33697 13.4119 8.65054e-17)
(-2.13271 12.4279 0)
(-1.73711 11.0602 -2.03015e-15)
(2.02866 11.7052 -4.20958e-15)
(-7.05385 14.0369 -2.46927e-15)
(8.47458 -7.37931 1.97025e-15)
(-5.25215 16.2856 3.32631e-15)
(-4.97925 15.4198 -2.83348e-15)
(-4.51694 14.4559 9.09786e-15)
(-4.08321 13.6307 -3.60367e-15)
(-3.76852 12.8816 3.09719e-15)
(-3.54384 11.8999 -4.82532e-15)
(-3.10681 10.4246 4.59649e-15)
(0.0537993 10.9642 4.48948e-15)
(-7.82032 13.2799 0)
(7.84201 -5.44834 -4.12286e-15)
(-6.75666 15.74 3.93046e-15)
(-6.39789 14.7914 -1.66646e-14)
(-5.86736 13.8426 -4.70126e-15)
(-5.42903 13.0538 1.09833e-14)
(-5.1022 12.3267 9.4653e-15)
(-4.84554 11.3575 3.89058e-16)
(-4.27652 9.86052 2.23901e-16)
(-1.65608 10.3498 -4.04965e-15)
(-8.7166 11.5683 -2.70055e-15)
(7.61274 -3.57646 5.20648e-15)
(-8.2161 15.19 3.88867e-15)
(-7.69951 14.1104 5.64332e-15)
(-7.11781 13.2032 0)
(-6.71029 12.448 -3.56146e-15)
(-6.37843 11.7274 -5.76529e-15)
(-6.09418 10.7646 4.05564e-16)
(-5.38421 9.28942 -1.2819e-14)
(-3.088 9.82641 -4.20886e-15)
(-10.0301 9.65971 6.2028e-15)
(7.68711 -2.28495 -2.78224e-15)
(-9.72421 14.5269 1.42183e-14)
(-8.97755 13.3257 -5.07988e-15)
(-8.33835 12.5177 0)
(-7.9749 11.8031 -2.9888e-16)
(-7.62649 11.0826 2.39102e-14)
(-7.28845 10.1186 -9.88223e-15)
(-6.41397 8.66989 -9.14399e-15)
(-4.33795 9.29412 7.80921e-15)
(-10.8417 7.93902 -6.07528e-15)
(8.0342 -1.52937 0)
(-11.1425 13.4491 3.56156e-16)
(-10.193 12.4153 -4.97051e-15)
(-9.58833 11.7953 0)
(-9.27503 11.1134 7.25284e-15)
(-8.91264 10.376 -1.76869e-14)
(-8.52223 9.4026 1.00437e-14)
(-7.52044 7.96517 4.31407e-15)
(-5.69338 8.60379 0)
(-11.2183 6.54944 3.49847e-16)
(8.54292 -0.790616 3.08116e-15)
(-11.6429 12.6088 4.75003e-16)
(-11.204 11.7117 -9.30576e-17)
(-10.8041 11.2527 0)
(-10.5207 10.5376 -1.47199e-14)
(-10.1136 9.76392 5.68886e-15)
(-9.64891 8.79062 -5.50183e-15)
(-8.55153 7.33327 4.77169e-15)
(-6.48266 7.78669 -8.93296e-17)
(-11.4131 5.19198 -2.25766e-16)
(9.14695 0.0945212 -3.07657e-15)
(-11.2184 12.895 2.85688e-15)
(-11.6217 11.4529 -5.39588e-15)
(-11.3515 10.9164 0)
(-10.9777 10.2127 0)
(-10.4838 9.43463 0)
(-9.94044 8.43347 -2.55153e-15)
(-8.73774 6.95124 1.03571e-14)
(-6.97623 7.01908 0)
(-11.0472 2.95905 0)
(9.67301 1.29009 0)
(-12.0634 12.2765 -2.74437e-15)
(-12.292 11.1288 -5.04768e-15)
(-12.0093 10.5682 0)
(-11.5679 9.88392 3.61615e-15)
(-11.0102 9.13075 -2.79988e-15)
(-10.4192 8.1282 2.40082e-15)
(-9.17372 6.63555 3.55133e-15)
(-7.4927 6.76699 1.41733e-16)
(-10.5719 1.85674 1.19904e-15)
(9.89415 1.45907 0)
(-13.9019 11.1354 1.49153e-16)
(-13.4514 10.3839 1.41417e-16)
(-13.1011 9.79245 0)
(-12.6126 9.13094 2.89883e-16)
(-11.9829 8.45973 5.56924e-15)
(-11.3072 7.57694 -4.14759e-15)
(-9.97802 6.19821 -1.05912e-14)
(-8.29507 6.23818 -4.97644e-15)
(-10.2823 1.64989 7.10141e-15)
(9.89888 1.67154 2.58966e-15)
(-15.2459 9.6011 -1.24429e-14)
(-14.6509 9.19357 4.87099e-15)
(-14.1927 8.62457 0)
(-13.6095 8.00058 -6.51572e-15)
(-12.9047 7.34652 -5.43694e-15)
(-12.1048 6.51042 8.35182e-15)
(-10.6446 5.18811 2.9698e-15)
(-8.94573 4.67017 0)
(-9.17484 0.489013 -4.06315e-15)
(10.3561 2.2867 -3.5479e-16)
(-15.9981 8.4637 -2.72493e-16)
(-15.5017 8.15153 4.5386e-15)
(-15.0208 7.695 0)
(-14.3948 7.15638 1.25422e-14)
(-13.6541 6.56703 1.2216e-16)
(-12.7755 5.78594 -1.18409e-16)
(-11.2544 4.54754 4.76964e-15)
(-9.47463 3.45028 -4.29218e-15)
(-8.08999 -0.86992 -2.34791e-15)
(10.7387 3.48018 0)
(-16.5783 7.40702 -2.68711e-15)
(-16.1841 7.16586 8.96621e-15)
(-15.6963 6.78502 7.54409e-15)
(-15.0486 6.32481 -8.68721e-15)
(-14.3 5.80113 -1.3992e-14)
(-13.3853 5.09229 2.33851e-16)
(-11.8953 3.93029 -2.29869e-15)
(-9.97004 2.35194 -1.37148e-15)
(-6.76888 -2.04651 -2.1352e-15)
(10.9898 4.27022 -2.5308e-15)
(-17.0563 6.46284 -8.06072e-15)
(-16.7236 6.251 4.36914e-15)
(-16.2384 5.93079 -3.4327e-15)
(-15.5924 5.54621 -8.61462e-15)
(-14.8597 5.09257 6.87212e-15)
(-13.9465 4.4916 3.18305e-16)
(-12.5516 3.44232 4.71177e-15)
(-10.4427 1.42463 1.10161e-15)
(-5.15527 -2.94175 9.40128e-16)
(11.1234 4.8245 7.111e-16)
(-17.4486 5.60724 2.39374e-15)
(-17.1487 5.41418 -2.2862e-15)
(-16.6716 5.14524 -8.92984e-17)
(-16.0443 4.83461 8.63329e-15)
(-15.3356 4.45651 -1.10834e-14)
(-14.4436 3.99439 3.37273e-15)
(-13.1801 3.13215 -1.61452e-15)
(-10.8637 0.799643 3.19721e-15)
(-3.42847 -3.47617 0)
(11.2661 5.07821 6.23755e-17)
(-17.7907 4.76942 2.84621e-15)
(-17.5169 4.59864 2.35687e-15)
(-17.0477 4.387 3.90175e-15)
(-16.4424 4.16561 -5.93092e-15)
(-15.7593 3.88979 2.22817e-15)
(-14.8973 3.58058 0)
(-13.7713 2.99405 -1.05029e-15)
(-11.233 0.554874 -1.0578e-15)
(-2.31437 -3.75102 5.15914e-16)
(11.5472 5.84682 1.55795e-15)
(-18.0322 3.86643 1.39983e-15)
(-17.7484 3.74584 0)
(-17.2403 3.61772 2.08947e-15)
(-16.6158 3.50987 1.63048e-15)
(-15.9334 3.36729 -3.25338e-17)
(-15.0807 3.22777 -9.01072e-16)
(-14.0098 2.91927 1.05483e-15)
(-11.5126 0.749005 0)
(-1.95491 -3.94326 -3.16617e-16)
(11.6466 7.81738 1.41269e-15)
(-18.2835 2.75395 1.76703e-15)
(-17.9992 2.77449 -2.98159e-15)
(-17.5017 2.86332 -1.27146e-16)
(-16.9266 3.0186 8.3053e-16)
(-16.3285 3.1605 9.46459e-18)
(-15.5591 3.29083 1.01238e-15)
(-14.5683 3.47913 -9.46323e-16)
(-11.5084 2.08483 6.72889e-16)
(-0.920866 -3.34864 6.93551e-17)
(12.2573 9.68591 -7.13118e-16)
(-18.1335 2.05009 3.0491e-29)
(-17.5826 2.27201 0)
(-16.8365 2.64405 0)
(-16.0816 3.15043 -1.04375e-15)
(-15.3964 3.68089 0)
(-14.5899 4.25579 0)
(-13.5441 5.36077 7.84746e-16)
(-12.0433 6.78447 0)
(-6.3864 -3.98454 0)
(11.232 5.21519 -2.55432e-30)
(-14.9301 11.5824 8.41157e-16)
(-15.7288 9.95199 -7.19238e-15)
(-16.1536 8.41723 6.5741e-15)
(-16.5949 7.3505 -8.66318e-15)
(-17.0013 6.43684 5.71342e-15)
(-17.3842 5.61884 -1.21717e-14)
(-17.7283 4.81415 3.1772e-15)
(-18.0039 3.94526 -3.78619e-15)
(-18.2726 2.82782 0)
(-18.2696 1.97389 -5.71374e-16)
(-15.4089 11.1058 1.46937e-14)
(-16.0748 9.61653 0)
(-16.2704 8.09809 6.8907e-15)
(-16.5616 7.16502 -2.62127e-15)
(-16.8585 6.33688 -8.83287e-15)
(-17.1931 5.57901 0)
(-17.5079 4.81554 -3.63974e-15)
(-17.7665 3.97661 -1.81382e-15)
(-17.9738 2.88671 1.36198e-15)
(-18.0288 1.88722 -5.86432e-16)
(-15.0405 10.462 -1.21108e-14)
(-16.0095 8.91345 0)
(-16.2559 7.6422 6.37243e-15)
(-16.4749 6.87631 5.17334e-16)
(-16.6959 6.16727 7.60154e-15)
(-16.9734 5.46838 -3.65633e-15)
(-17.2168 4.71998 0)
(-17.4016 3.8523 5.14284e-15)
(-17.5547 2.82718 -8.12275e-16)
(-17.6232 1.84116 5.90287e-16)
(-13.9675 9.84082 5.53368e-15)
(-15.376 8.30354 -2.06752e-15)
(-15.8771 7.25255 4.84715e-15)
(-16.151 6.61711 -5.04475e-15)
(-16.3222 6.07439 5.97514e-16)
(-16.5154 5.46694 3.02614e-15)
(-16.737 4.70464 -9.41788e-15)
(-16.9267 3.86519 1.6981e-15)
(-17.1053 2.95035 2.69898e-15)
(-17.1131 1.88358 8.18057e-17)
(-12.6425 9.25696 -8.15736e-15)
(-14.2362 7.777 5.69265e-15)
(-15.0904 6.8958 0)
(-15.5832 6.29612 1.83929e-15)
(-15.8824 5.76597 1.93084e-15)
(-16.0701 5.20276 -3.17386e-16)
(-16.2333 4.52271 1.51106e-15)
(-16.3531 3.72654 3.45293e-15)
(-16.441 2.83357 8.58122e-18)
(-16.3985 1.78334 3.04882e-16)
(-11.3463 8.66553 -3.22161e-15)
(-12.8528 7.31543 3.64213e-15)
(-13.8416 6.55244 1.61648e-15)
(-14.4934 5.95957 -2.48388e-15)
(-14.9456 5.41704 -1.5823e-15)
(-15.2203 4.84532 -2.59146e-16)
(-15.4031 4.18017 -2.64889e-15)
(-15.5074 3.40477 9.09395e-16)
(-15.5437 2.55173 2.51941e-16)
(-15.4649 1.57331 -3.00239e-16)
(-10.1184 8.05805 0)
(-11.3758 6.88426 -1.15527e-15)
(-12.3528 6.22551 5.63005e-16)
(-13.0821 5.63969 -5.47848e-16)
(-13.6275 5.07187 7.85727e-16)
(-13.9875 4.47613 0)
(-14.2143 3.8236 5.79835e-16)
(-14.3431 3.08475 9.32034e-16)
(-14.3787 2.27848 -8.03769e-16)
(-14.304 1.37709 -3.11703e-17)
(-8.95235 7.42097 0)
(-9.94124 6.45505 -1.06207e-17)
(-10.8121 5.90069 1.20434e-15)
(-11.521 5.32272 -8.44959e-16)
(-12.0899 4.72666 0)
(-12.4965 4.10523 -5.33321e-17)
(-12.7639 3.4477 -4.1518e-16)
(-12.9146 2.73845 3.58494e-16)
(-12.9636 1.983 4.01163e-16)
(-12.8987 1.16318 -1.76243e-16)
(-7.8254 6.6935 -6.90397e-16)
(-8.56627 5.92679 1.07123e-17)
(-9.28252 5.42529 2.05014e-17)
(-9.90678 4.83057 -3.03107e-17)
(-10.4127 4.20744 0)
(-10.7775 3.57166 5.69996e-17)
(-11.0111 2.92393 -5.90405e-17)
(-11.1282 2.26595 1.2533e-16)
(-11.1347 1.59318 -1.01928e-17)
(-11.053 0.914432 -3.24094e-18)
(-6.38472 6.26882 -9.61839e-17)
(-6.59725 6.01518 -8.48868e-17)
(-7.05502 5.53186 -9.73328e-17)
(-7.49211 4.94302 0)
(-7.88795 4.34743 5.45487e-17)
(-8.21777 3.75676 0)
(-8.46094 3.16455 2.55051e-16)
(-8.60321 2.56408 -1.95592e-16)
(-8.62038 1.9449 6.47079e-18)
(-8.52978 1.35136 1.76132e-18)
)
;

boundaryField
{
    right
    {
        type            cyclic;
    }
    left
    {
        type            cyclic;
    }
    outerWall
    {
        type            calculated;
        value           nonuniform List<vector> 
22
(
(-1.55201 41.8305 0)
(-4.64749 41.6006 0)
(-7.71741 41.1419 0)
(-10.7449 40.4569 0)
(-13.7132 39.5492 0)
(-16.6061 38.424 0)
(-19.4075 37.0874 0)
(-22.1022 35.5467 0)
(-24.6752 33.8104 0)
(-27.1124 31.8882 0)
(-28.9573 30.2506 0)
(-30.2506 28.9573 0)
(-31.8882 27.1124 0)
(-33.8104 24.6752 0)
(-35.5467 22.1022 0)
(-37.0874 19.4075 0)
(-38.424 16.6061 0)
(-39.5492 13.7132 0)
(-40.4569 10.7449 0)
(-41.1419 7.71741 0)
(-41.6006 4.64749 0)
(-41.8305 1.55201 0)
)
;
    }
    stirrerWall
    {
        type            calculated;
        value           nonuniform List<vector> 
42
(
(-0.310178 8.3662 0)
(-0.928834 8.32046 0)
(-1.54239 8.22894 0)
(-2.14746 8.09214 0)
(-2.74072 7.91082 0)
(-3.31888 7.68598 0)
(-3.87877 7.41885 0)
(-4.41729 7.11092 0)
(-4.93148 6.76387 0)
(-5.4185 6.37963 0)
(-6.07951 6.64185 0)
(-6.92878 7.56862 0)
(-7.77806 8.49539 0)
(-8.62734 9.42216 0)
(-9.47661 10.3489 0)
(-10.3259 11.2757 0)
(-11.1752 12.2025 0)
(-12.0244 13.1292 0)
(-12.8737 14.056 0)
(-13.723 14.9828 0)
(-14.4723 15.1215 0)
(-15.1215 14.4723 0)
(-14.9828 13.723 0)
(-14.056 12.8737 0)
(-13.1292 12.0244 0)
(-12.2025 11.1752 0)
(-11.2757 10.3259 0)
(-10.3489 9.47661 0)
(-9.42216 8.62734 0)
(-8.49539 7.77806 0)
(-7.56862 6.92878 0)
(-6.64185 6.07951 0)
(-6.37963 5.4185 0)
(-6.76387 4.93148 0)
(-7.11092 4.41729 0)
(-7.41885 3.87877 0)
(-7.68598 3.31888 0)
(-7.91082 2.74072 0)
(-8.09214 2.14746 0)
(-8.22894 1.54239 0)
(-8.32046 0.928834 0)
(-8.3662 0.310178 0)
)
;
    }
    top
    {
        type            empty;
    }
    bottom
    {
        type            empty;
    }
}


// ************************************************************************* //
