/*--------------------------------*- C++ -*----------------------------------*\
  =========                 |
  \\      /  F ield         | OpenFOAM: The Open Source CFD Toolbox
   \\    /   O peration     | Website:  https://openfoam.org
    \\  /    A nd           | Version:  10
     \\/     M anipulation  |
\*---------------------------------------------------------------------------*/
FoamFile
{
    format      ascii;
    class       volVectorField;
    location    "500";
    object      U;
}
// * * * * * * * * * * * * * * * * * * * * * * * * * * * * * * * * * * * * * //

dimensions      [0 1 -1 0 0 0 0];

internalField   nonuniform List<vector> 
2000
(
(2.56145 38.0846 2.03987e-17)
(-0.912942 45.3511 1.70762e-18)
(0.898824 49.8231 -5.61542e-18)
(2.18344 54.4114 0)
(3.73853 59.5442 0)
(5.65116 64.8405 1.85256e-16)
(7.08478 69.476 -2.3069e-16)
(7.90689 73.0248 -2.97368e-16)
(8.2591 75.5864 3.86816e-16)
(8.21223 77.3444 5.05583e-16)
(7.88374 78.4565 6.63201e-16)
(7.39555 79.145 0)
(6.52867 79.5962 9.26322e-16)
(4.99482 80.4269 9.17281e-16)
(2.75382 82.1383 9.45833e-16)
(-0.00960189 84.8878 1.02661e-15)
(-2.84962 87.9822 -1.1688e-15)
(-5.03472 89.867 6.72806e-16)
(-6.1431 90.2025 7.152e-16)
(-6.39604 90.3568 2.9028e-15)
(1.53442 37.9024 -9.60299e-17)
(-2.91101 44.8193 -1.95223e-17)
(-1.3989 49.0339 -7.69579e-17)
(-0.610425 53.4716 -4.40384e-16)
(0.632003 58.1375 7.41018e-17)
(2.33144 63.3408 -8.43555e-16)
(3.79553 68.2906 4.53146e-16)
(4.58704 72.2838 8.95467e-16)
(4.79726 75.2335 3.54764e-16)
(4.52664 77.287 4.7195e-16)
(3.8704 78.6638 -1.2668e-15)
(2.79879 79.6268 -8.27487e-16)
(1.27153 80.5737 -1.00503e-15)
(-0.986066 82.1834 -1.03417e-15)
(-3.86563 84.7493 -3.4687e-15)
(-6.78834 87.9506 -1.53122e-15)
(-8.97171 90.083 4.70851e-15)
(-9.86738 90.272 -4.98993e-15)
(-10.0559 90.0062 0)
(-9.93829 89.6687 -4.209e-15)
(0.412508 37.8463 5.9347e-17)
(-4.80064 44.4732 7.72004e-18)
(-3.37497 48.3902 5.26392e-17)
(-3.43279 52.9603 3.95878e-16)
(-2.86885 57.3021 9.11295e-16)
(-2.08391 61.9317 2.06108e-16)
(-0.789475 66.8481 5.38537e-16)
(0.0598633 71.2324 -9.28644e-16)
(0.285043 74.6641 -8.18913e-16)
(-0.115825 77.1969 -1.05438e-15)
(-1.06418 79.0393 1.38691e-15)
(-2.62714 80.4772 0)
(-4.88862 81.9321 -4.60185e-15)
(-7.87527 84.3789 0)
(-11.1206 87.4545 0)
(-13.7293 89.4973 0)
(-14.3517 90.0624 4.24044e-15)
(-14.2169 90.0617 -6.67903e-15)
(-13.9411 89.2813 0)
(-13.475 88.7474 2.71244e-15)
(-0.883815 37.7795 4.57238e-17)
(-6.45737 44.0242 -2.03114e-16)
(-5.04768 47.6845 0)
(-5.37426 52.293 7.25731e-16)
(-5.35521 56.8092 4.28235e-16)
(-5.45518 61.0701 2.07255e-16)
(-5.09218 65.6718 -1.73213e-18)
(-4.62535 70.2101 2.0908e-15)
(-4.65488 74.0841 0)
(-5.30135 77.1514 9.79585e-16)
(-6.60618 79.5743 1.32873e-15)
(-8.77337 81.6882 4.05309e-15)
(-12.0765 83.8195 5.64782e-15)
(-16.0093 86.098 1.54235e-14)
(-19.0106 88.2077 -8.45466e-15)
(-19.4758 89.4809 -2.59023e-16)
(-19.0702 89.7191 1.46338e-14)
(-18.4685 88.9079 6.68493e-15)
(-17.7015 88.0687 5.903e-15)
(-16.902 87.6661 5.4177e-15)
(-2.25271 37.6466 0)
(-8.05098 43.4703 3.10351e-16)
(-6.73087 46.9991 -1.53219e-16)
(-7.0648 51.515 -8.62822e-16)
(-7.44695 56.1998 -1.58563e-15)
(-7.79617 60.502 6.40985e-16)
(-8.44508 64.9756 -1.62439e-15)
(-8.76961 69.4852 -2.56554e-15)
(-9.35219 73.6345 -9.12146e-16)
(-10.4698 77.1942 3.02687e-16)
(-12.2728 80.2611 -3.02345e-15)
(-15.0763 83.0704 -4.6329e-15)
(-19.1694 85.6417 -6.79782e-15)
(-22.071 88.7978 -7.17336e-15)
(-23.485 90.7421 0)
(-24.3823 89.6911 4.53954e-16)
(-23.5148 87.9706 4.42386e-16)
(-22.0967 87.2446 -6.01612e-15)
(-21.145 86.5957 -1.69829e-14)
(-20.2483 86.2607 4.99566e-15)
(-3.65734 37.441 0)
(-9.60798 42.8455 -1.80203e-16)
(-8.43539 46.2985 0)
(-8.84842 50.7132 4.89247e-16)
(-9.33136 55.4266 1.94183e-15)
(-9.91573 59.8879 0)
(-11.0147 64.5069 4.05704e-15)
(-12.1313 69.1251 6.55782e-15)
(-13.4056 73.4455 0)
(-15.1232 77.3895 -2.79963e-15)
(-17.5945 80.8634 8.77954e-15)
(-20.9147 84.8834 8.53713e-16)
(-24.5374 89.1089 5.17067e-15)
(-27.629 91.1452 -3.97777e-15)
(-28.5058 90.6827 0)
(-27.8666 88.3569 -1.09283e-14)
(-26.5871 85.8524 -6.11426e-15)
(-25.429 85.3094 0)
(-24.3663 84.8815 1.08631e-14)
(-23.3558 84.7279 -1.989e-14)
(-5.06176 37.1805 5.18173e-16)
(-11.1748 42.1729 -2.26722e-16)
(-10.1248 45.5608 4.82541e-17)
(-10.7215 49.8982 -1.20375e-16)
(-11.3483 54.5899 -1.36918e-17)
(-12.1226 59.1971 -1.95049e-15)
(-13.3755 63.9203 4.58321e-15)
(-14.9845 68.9408 -6.86074e-15)
(-16.8589 73.5304 -8.89937e-15)
(-19.2515 77.7639 5.78708e-15)
(-22.3685 82.3211 -3.84372e-15)
(-26.1673 86.8483 -3.9836e-15)
(-29.4412 90.2239 3.23283e-15)
(-31.562 91.0783 -7.66772e-15)
(-31.9998 89.3715 0)
(-31.2167 86.2267 2.07515e-14)
(-29.4496 83.9106 -2.3128e-14)
(-28.232 83.4388 1.06277e-14)
(-27.178 83.1361 1.04864e-14)
(-26.1769 83.0676 1.39375e-16)
(-6.46322 36.8762 1.49236e-16)
(-12.7631 41.4385 7.05646e-17)
(-11.8191 44.7634 -1.0111e-16)
(-12.6225 49.0464 -6.55176e-16)
(-13.4451 53.7321 -1.82335e-15)
(-14.4098 58.3873 0)
(-15.8296 63.1749 -4.50004e-15)
(-17.672 68.6673 0)
(-20.0084 73.6857 5.64545e-15)
(-23.0153 78.6143 0)
(-26.5725 83.5964 0)
(-30.3143 88.1115 -4.15285e-16)
(-33.3942 91.0463 1.26734e-14)
(-34.8437 91.0125 7.37335e-15)
(-34.8955 88.392 2.10884e-16)
(-33.2925 84.2442 -1.07213e-14)
(-31.9833 81.9796 0)
(-30.8612 81.6891 0)
(-29.6607 81.343 1.00407e-14)
(-28.6176 81.3316 1.92191e-14)
(-7.87109 36.5547 -5.57786e-16)
(-14.3609 40.6691 8.34252e-16)
(-13.5566 43.9094 2.41042e-16)
(-14.5896 48.1233 -1.35806e-16)
(-15.6117 52.8128 -1.14865e-15)
(-16.7854 57.5349 1.33052e-15)
(-18.4014 62.385 2.78791e-15)
(-20.4344 68.2008 -2.26655e-15)
(-23.0317 73.7621 0)
(-26.4007 79.2389 -6.80228e-15)
(-30.1942 84.5388 5.28857e-15)
(-33.8426 89.0946 -5.64167e-15)
(-36.4658 91.4373 0)
(-37.317 90.5931 5.07203e-16)
(-36.9747 87.2297 2.67554e-16)
(-34.9908 83.2558 1.24141e-14)
(-34.0575 80.6999 -2.34799e-14)
(-32.9841 79.9866 1.04343e-14)
(-31.6876 79.49 -9.90496e-15)
(-30.6427 79.558 -9.41013e-15)
(-9.29241 36.2417 0)
(-15.9765 39.8827 3.13646e-17)
(-15.4097 43.0009 6.55997e-17)
(-16.6885 47.0765 4.73393e-18)
(-17.8633 51.7542 0)
(-19.2242 56.5877 0)
(-21.078 61.5487 -7.98272e-15)
(-23.3041 67.5521 2.31181e-15)
(-25.9096 73.6059 -1.2079e-14)
(-29.4297 79.619 -1.41e-15)
(-33.2283 85.2065 1.13144e-14)
(-36.6635 89.671 -5.14287e-15)
(-38.7958 91.6298 3.25091e-16)
(-39.3566 90.2389 6.98234e-16)
(-38.8143 86.3287 -8.58299e-15)
(-36.7452 82.3795 0)
(-36.0335 79.5553 -1.22637e-14)
(-34.7654 78.396 4.29604e-14)
(-33.3441 77.6228 -1.9417e-14)
(-32.2857 77.7897 9.4577e-15)
(-10.7263 35.9454 -5.98274e-17)
(-17.6589 39.1073 -4.0829e-16)
(-17.4365 42.0554 -6.38202e-17)
(-18.9004 45.8942 1.33034e-16)
(-20.2106 50.4907 6.38107e-16)
(-21.7292 55.4505 0)
(-23.8106 60.6015 2.17313e-15)
(-26.1367 66.7532 2.37821e-15)
(-28.5945 73.1484 -6.43636e-15)
(-32.0534 79.6592 1.10517e-14)
(-35.7457 85.5987 6.73728e-15)
(-38.8934 90.0907 -5.54017e-15)
(-40.6493 91.7636 1.17202e-14)
(-40.8665 89.9666 7.22429e-15)
(-40.0093 85.9488 9.92935e-15)
(-37.8327 82.3312 8.21533e-16)
(-37.3983 78.775 -1.24722e-14)
(-35.9623 76.9696 -2.02283e-17)
(-34.4644 75.8731 -2.0482e-14)
(-33.4869 76.1255 -1.03394e-14)
(-12.178 35.6974 0)
(-19.4385 38.4014 1.86003e-16)
(-19.5686 41.0808 -1.78035e-16)
(-21.2053 44.5828 -5.42471e-16)
(-22.5977 49.0042 1.70553e-15)
(-24.1982 54.0657 -1.33261e-15)
(-26.5181 59.5722 0)
(-28.8124 65.8968 0)
(-31.0353 72.3735 5.30658e-15)
(-34.3506 79.2415 0)
(-37.848 85.5095 6.3768e-16)
(-40.5549 90.1201 -1.09027e-14)
(-41.8245 91.7418 6.29571e-15)
(-41.6814 89.8933 -7.64001e-15)
(-40.795 85.8712 0)
(-38.6366 82.586 1.72644e-14)
(-38.0574 78.4614 0)
(-36.4211 75.9869 -1.15475e-14)
(-34.9475 74.5063 -2.11533e-14)
(-34.2171 74.7584 1.94989e-14)
(-13.6544 35.5178 5.51139e-16)
(-21.3186 37.7793 6.82392e-16)
(-21.8114 40.1186 0)
(-23.6295 43.1358 -7.39875e-16)
(-25.1124 47.1898 -5.91847e-16)
(-26.6828 52.1954 -1.23833e-15)
(-29.0086 58.0134 0)
(-31.0639 64.5003 0)
(-33.2159 71.1143 5.35907e-15)
(-36.3475 78.2506 0)
(-39.4981 84.8586 6.19447e-15)
(-41.7124 89.7122 -5.46584e-15)
(-42.4611 91.5944 -6.38332e-15)
(-41.8902 90.0421 6.5563e-16)
(-40.7396 86.5101 -3.70187e-14)
(-38.1827 83.9644 2.06386e-14)
(-37.389 79.2522 -1.68304e-14)
(-35.8909 75.9288 0)
(-34.6684 73.9912 -1.115e-14)
(-34.4917 74.0928 3.24211e-14)
(-15.1582 35.4233 -4.53347e-16)
(-23.2723 37.2691 -1.44994e-15)
(-24.1136 39.2 1.45165e-16)
(-26.1201 41.6588 7.10211e-16)
(-27.755 45.1905 1.48951e-15)
(-29.3465 49.9765 -3.2814e-15)
(-31.5474 56.0584 1.04349e-14)
(-33.2983 62.6779 -1.09519e-14)
(-35.3158 69.4163 -7.3212e-16)
(-38.1016 76.6959 -6.21197e-15)
(-40.7646 83.5756 1.60118e-14)
(-42.4492 88.7908 -1.16692e-14)
(-42.7135 90.9599 6.63885e-15)
(-41.7634 89.9388 0)
(-40.5177 86.9589 0)
(-38.1577 84.5961 0)
(-36.7418 80.2601 1.77393e-14)
(-35.4461 76.5099 6.3261e-16)
(-34.6938 74.2152 -1.01847e-14)
(-35.3046 74.1228 -9.60569e-15)
(-16.7006 35.392 2.78964e-16)
(-25.2476 36.8568 1.41585e-15)
(-26.3757 38.4103 -2.31461e-16)
(-28.5654 40.3126 2.16842e-16)
(-30.3928 43.1519 9.03592e-16)
(-32.0761 47.4317 -1.00043e-15)
(-34.0031 53.4607 0)
(-35.6657 60.1597 0)
(-37.4454 66.9522 0)
(-39.725 74.3208 0)
(-41.8659 81.3852 -1.08515e-14)
(-43.028 86.7708 1.71343e-14)
(-42.8291 89.5221 -5.63216e-15)
(-41.6098 89.4989 0)
(-40.1706 87.2953 0)
(-38.2505 84.971 0)
(-36.5334 81.0473 2.51497e-14)
(-35.2218 77.4374 5.12756e-16)
(-35.0814 75.1906 4.60684e-16)
(-36.6505 75.0572 0)
(-18.3053 35.3559 0)
(-27.1869 36.5112 -3.05059e-15)
(-28.4738 37.8561 -2.66632e-16)
(-30.8462 39.187 1.94075e-15)
(-32.923 41.334 -2.90235e-15)
(-34.8443 44.7011 0)
(-36.6222 50.1389 0)
(-38.2338 56.8575 1.03217e-14)
(-39.7792 63.6402 0)
(-41.4512 70.9797 0)
(-42.9969 78.0972 -1.03189e-14)
(-43.6447 83.7955 1.61316e-14)
(-43.0424 87.176 -5.28828e-15)
(-41.5171 88.1862 -2.58769e-14)
(-39.7344 87.1784 -1.1995e-15)
(-37.8984 85.45 -1.53081e-15)
(-36.1203 82.1323 3.86703e-14)
(-35.1075 78.8219 1.68694e-14)
(-36.1656 76.8053 0)
(-39.1468 76.7544 -1.75205e-14)
(-20.0121 35.288 0)
(-29.0202 36.1492 1.66682e-15)
(-30.2812 37.5139 3.71435e-16)
(-32.7963 38.5482 -1.16664e-15)
(-35.2239 40.0295 2.35339e-15)
(-37.534 42.362 0)
(-39.5056 46.4906 0)
(-41.1503 52.6846 -2.16215e-16)
(-42.3135 59.2825 -6.66296e-15)
(-43.4771 66.5094 5.31377e-15)
(-44.4149 73.5854 1.15052e-14)
(-44.5307 79.5169 -1.1123e-14)
(-43.5478 83.6129 -2.24753e-14)
(-41.823 85.5661 2.30041e-14)
(-39.8324 85.8371 1.35447e-14)
(-38.1119 85.0055 -1.84209e-14)
(-36.5894 82.6104 -7.63042e-16)
(-36.7569 80.071 -1.54514e-14)
(-39.2415 78.5499 -1.64787e-14)
(-43.9515 78.7607 3.74778e-14)
(-21.9115 35.1329 0)
(-30.6024 35.6709 -1.73866e-15)
(-31.7046 37.3244 -4.15159e-16)
(-34.2349 38.4666 1.38232e-15)
(-36.9717 39.5973 6.47189e-16)
(-39.7432 41.1955 0)
(-42.2759 43.6748 0)
(-44.172 48.3226 -5.18351e-15)
(-45.2162 54.0463 -1.41053e-15)
(-46.1502 60.9424 6.02948e-15)
(-46.2521 67.6996 0)
(-45.7261 73.5593 0)
(-44.5481 78.2689 1.09258e-14)
(-42.8138 81.3237 -1.0276e-15)
(-41.0321 82.7194 1.42325e-14)
(-39.7684 83.0094 -1.54183e-14)
(-39.1006 81.976 0)
(-40.5454 80.5613 0)
(-45.0193 79.9403 0)
(-51.6 80.72 0)
(-24.0927 34.6853 -4.28986e-17)
(-31.8903 35.057 4.19055e-15)
(-32.8566 37.3268 8.18346e-16)
(-35.2271 38.9896 -2.84869e-15)
(-37.9529 40.3458 -2.48934e-15)
(-40.918 41.6683 7.62847e-15)
(-43.9125 43.4259 0)
(-46.4418 46.141 -8.55285e-15)
(-48.2766 50.5172 -6.33078e-15)
(-49.2685 56.1707 6.37444e-15)
(-49.398 62.6084 2.49126e-14)
(-48.7327 68.1893 -2.34665e-14)
(-47.1887 72.6854 2.64797e-14)
(-45.5371 76.1233 -1.27202e-14)
(-44.2879 78.0566 1.50824e-14)
(-43.8308 78.8686 -3.09042e-14)
(-44.7865 78.8667 1.69819e-14)
(-48.3287 78.2687 -1.77052e-14)
(-54.4437 78.7797 0)
(-60.8724 80.0708 0)
(-26.8455 33.7726 0)
(-32.1357 34.4424 1.81827e-15)
(-33.1663 36.6984 -3.7139e-15)
(-35.434 38.7517 0)
(-38.1095 40.679 0)
(-41.0605 42.566 -8.70832e-15)
(-44.1127 44.4396 -5.72962e-15)
(-47.0056 46.3859 5.54085e-15)
(-49.3028 48.5646 0)
(-50.414 51.1158 0)
(-50.4521 54.331 -2.265e-14)
(-50.2814 58.1003 0)
(-49.98 61.8534 -2.15547e-14)
(-49.7654 64.9436 -2.12947e-14)
(-50.9295 67.2993 4.14663e-14)
(-53.3007 68.9267 2.35742e-14)
(-57.0784 70.197 0)
(-62.2273 71.6741 3.23172e-14)
(-67.2756 73.9213 4.3298e-14)
(-69.7962 75.818 -5.98555e-14)
(-6.22499 90.5329 -1.24855e-15)
(-5.59449 90.6279 -1.83954e-17)
(-5.16608 90.958 1.0667e-15)
(-4.47249 91.6964 -1.05499e-15)
(-3.92061 92.8791 9.48727e-16)
(-3.45569 94.4183 -9.38918e-16)
(-3.08023 96.1904 8.39484e-16)
(-2.80285 98.0907 8.31906e-16)
(-2.58481 100.105 -7.4048e-16)
(-2.41246 102.272 -1.43682e-15)
(-2.28694 104.646 -2.7561e-15)
(-2.21847 107.279 1.25744e-15)
(-2.16719 110.156 0)
(-2.16647 113.341 0)
(-2.19463 116.821 -2.31884e-15)
(-2.10826 120.424 0)
(-2.68334 125.153 0)
(-0.804797 127.342 1.03406e-15)
(-7.64428 137.781 -9.95248e-16)
(11.8341 127.458 3.36445e-15)
(-9.50448 89.506 -2.62545e-15)
(-9.03268 89.6302 -1.27599e-15)
(-8.43287 90.0803 -6.44764e-17)
(-7.8982 90.9231 -2.05041e-15)
(-7.44384 92.2143 -3.92382e-15)
(-7.05903 93.8339 3.5265e-15)
(-6.77064 95.6701 8.03338e-17)
(-6.56625 97.6262 -3.12166e-15)
(-6.41836 99.6938 -3.0271e-15)
(-6.31809 101.913 -1.51049e-15)
(-6.26758 104.335 3.99678e-15)
(-6.2827 107.008 2.5237e-15)
(-6.31673 109.918 7.40011e-15)
(-6.42957 113.119 0)
(-6.55787 116.615 6.96381e-15)
(-6.62606 120.227 -4.60365e-15)
(-7.3335 124.959 8.57029e-15)
(-5.58156 127.195 4.1371e-15)
(-12.7246 137.345 -3.97912e-15)
(6.92924 127.951 -4.35325e-19)
(-12.9125 88.5846 -5.18783e-15)
(-12.3291 88.7321 4.55528e-15)
(-11.7975 89.1873 1.09008e-14)
(-11.3338 90.0959 -1.94146e-15)
(-10.9117 91.4523 0)
(-10.6002 93.145 -7.58543e-17)
(-10.3923 95.0313 3.26719e-15)
(-10.2666 97.0256 0)
(-10.1954 99.1316 2.99631e-15)
(-10.1743 101.391 -5.84367e-15)
(-10.2071 103.855 5.26101e-15)
(-10.3154 106.559 -5.17486e-15)
(-10.4442 109.499 1.44897e-16)
(-10.6774 112.71 -4.6691e-15)
(-10.9081 116.228 -4.64643e-15)
(-11.1325 119.834 0)
(-11.9703 124.578 -4.35308e-15)
(-10.3402 126.85 0)
(-17.8239 136.731 -8.17294e-15)
(2.10351 128.203 0)
(-16.2678 87.4857 6.71643e-17)
(-15.6669 87.6087 -4.48874e-15)
(-15.1454 88.1246 -8.5038e-15)
(-14.6899 89.101 0)
(-14.3135 90.5355 -7.63797e-15)
(-14.0659 92.303 3.38073e-15)
(-13.9343 94.2456 3.32731e-15)
(-13.8876 96.2839 6.32015e-15)
(-13.8975 98.4303 -5.97791e-15)
(-13.9611 100.729 5.81613e-15)
(-14.0848 103.23 2.97964e-16)
(-14.2936 105.96 -5.02184e-15)
(-14.5249 108.929 0)
(-14.8839 112.143 9.60907e-15)
(-15.2246 115.687 -9.56884e-15)
(-15.6097 119.272 -2.6357e-16)
(-16.5742 124.036 -8.99049e-15)
(-15.0726 126.34 8.02525e-15)
(-22.8546 135.914 8.77181e-15)
(-2.7113 128.269 3.0755e-16)
(-19.521 86.2088 1.95987e-14)
(-18.8974 86.3954 -1.3422e-14)
(-18.3892 86.9358 3.96369e-15)
(-17.9467 87.9662 0)
(-17.6084 89.4877 0)
(-17.4334 91.3361 -7.15073e-15)
(-17.3865 93.3353 1.30982e-14)
(-17.4239 95.4185 -1.26829e-14)
(-17.5215 97.6034 5.47135e-15)
(-17.6779 99.9362 1.09823e-14)
(-17.9014 102.467 1.1055e-14)
(-18.218 105.213 -1.0304e-14)
(-18.5598 108.205 9.65054e-15)
(-19.0475 111.412 8.35607e-18)
(-19.504 114.984 9.56056e-15)
(-20.05 118.532 2.59831e-16)
(-21.1452 123.327 -8.99627e-15)
(-19.7779 125.642 1.58845e-14)
(-27.8363 134.899 -1.63128e-14)
(-7.52567 128.154 -1.35091e-14)
(-22.5708 84.7959 4.92903e-15)
(-21.9603 85.0449 -4.05068e-15)
(-21.4766 85.615 1.16051e-16)
(-21.0512 86.6987 0)
(-20.7675 88.3118 0)
(-20.68 90.2487 -1.41812e-14)
(-20.7307 92.3081 1.28842e-14)
(-20.8655 94.4368 2.53051e-14)
(-21.0633 96.6574 -1.74448e-14)
(-21.3232 99.0187 -1.15547e-14)
(-21.6554 101.573 2.14818e-14)
(-22.0855 104.329 -4.11803e-14)
(-22.5451 107.34 9.37056e-15)
(-23.162 110.528 9.31942e-15)
(-23.7429 114.13 9.55335e-15)
(-24.4468 117.619 -8.67741e-15)
(-25.6798 122.458 0)
(-24.4511 124.759 1.65555e-14)
(-32.7779 133.698 1.74916e-14)
(-12.3399 127.856 1.41331e-14)
(-25.3859 83.2446 -9.25612e-15)
(-24.8015 83.5874 0)
(-24.3587 84.1951 1.63617e-14)
(-23.9741 85.329 -1.4904e-14)
(-23.7759 87.0375 0)
(-23.7987 89.0659 0)
(-23.9628 91.1855 -6.53804e-15)
(-24.2082 93.3575 -2.48947e-14)
(-24.5182 95.6071 1.18391e-14)
(-24.8926 97.9891 0)
(-25.3428 100.56 0)
(-25.8918 103.318 1.02737e-14)
(-26.4778 106.342 -9.9031e-15)
(-27.2227 109.5 -9.56572e-15)
(-27.9389 113.131 -1.90946e-14)
(-28.7932 116.538 1.73348e-14)
(-30.1751 121.434 5.51709e-16)
(-29.0815 123.701 5.06521e-16)
(-37.6583 132.321 -1.62703e-14)
(-17.1525 127.369 -1.35329e-14)
(-27.8562 81.6574 -8.95291e-15)
(-27.3674 82.1112 -1.72256e-14)
(-27.0192 82.7326 -5.59514e-16)
(-26.706 83.9063 2.23018e-14)
(-26.6264 85.708 0)
(-26.7875 87.8225 1.37666e-14)
(-27.086 89.9927 -1.33954e-14)
(-27.4585 92.1971 1.18e-14)
(-27.8912 94.4637 1.1558e-14)
(-28.3873 96.8549 -1.15243e-14)
(-28.9619 99.4319 1.04407e-14)
(-29.6339 102.183 0)
(-30.3542 105.211 -2.03557e-14)
(-31.2253 108.328 3.82488e-14)
(-32.0905 111.987 -3.65885e-14)
(-33.0815 115.289 0)
(-34.6297 120.254 1.66649e-18)
(-33.6608 122.465 -1.61209e-14)
(-42.4727 130.777 3.32833e-14)
(-21.9579 126.688 -4.00005e-14)
(-29.9782 80.1135 -3.16443e-16)
(-29.6554 80.7174 2.52316e-14)
(-29.4488 81.3126 -1.54893e-14)
(-29.244 82.4881 -7.45645e-15)
(-29.323 84.3594 1.43577e-14)
(-29.6536 86.5445 -2.77116e-14)
(-30.1086 88.7515 1.27845e-14)
(-30.6247 90.9748 0)
(-31.1899 93.245 3.16882e-16)
(-31.8145 95.6323 -1.09524e-14)
(-32.5183 98.2031 -2.20084e-14)
(-33.3155 100.934 2.00042e-14)
(-34.1764 103.957 -2.03475e-14)
(-35.1674 107.022 1.91073e-14)
(-36.1976 110.702 1.95977e-14)
(-37.3029 113.885 -1.72885e-14)
(-39.0444 118.908 5.29282e-14)
(-38.1845 121.059 -1.56025e-14)
(-47.2224 129.078 -3.2502e-14)
(-26.7469 125.807 1.47353e-17)
(-31.7548 78.6705 -9.05867e-15)
(-31.673 79.4854 3.42397e-14)
(-31.6594 80.0026 5.65004e-16)
(-31.6 81.1334 -2.99658e-14)
(-31.8743 83.0416 -1.48994e-14)
(-32.4058 85.2711 2.72595e-14)
(-33.037 87.4923 0)
(-33.7126 89.7134 1.27747e-14)
(-34.4197 91.9677 -2.34121e-14)
(-35.1792 94.3327 0)
(-36.0173 96.8821 -2.14834e-14)
(-36.9399 99.5796 2.05649e-14)
(-37.9469 102.585 0)
(-39.0491 105.587 3.81829e-14)
(-40.2592 109.281 -1.85537e-14)
(-41.4505 112.332 0)
(-43.4179 117.415 -5.29453e-14)
(-42.6486 119.487 4.86056e-14)
(-51.9008 127.229 3.33735e-14)
(-31.5107 124.724 5.42993e-14)
(-33.2189 77.3936 1.82563e-14)
(-33.4824 78.4791 9.023e-15)
(-33.7008 78.8651 -1.57603e-14)
(-33.8143 79.8989 -1.54243e-14)
(-34.314 81.7985 2.89804e-14)
(-35.0739 84.0318 -2.74202e-14)
(-35.8942 86.2305 1.32408e-14)
(-36.7402 88.4184 -2.5681e-14)
(-37.5943 90.6337 3.50759e-14)
(-38.4901 92.957 2.31299e-14)
(-39.4627 95.4684 -2.09943e-14)
(-40.5082 98.1188 5.54348e-16)
(-41.6651 101.093 -1.92924e-14)
(-42.8685 104.025 -5.77744e-14)
(-44.2734 107.721 3.71247e-14)
(-45.5183 110.639 1.01009e-15)
(-47.7477 115.769 3.54455e-14)
(-47.0446 117.744 0)
(-56.5043 125.236 -3.2577e-14)
(-36.2416 123.44 2.71852e-14)
(-34.4175 76.3999 0)
(-35.1664 77.7682 0)
(-35.6414 77.9553 -1.68179e-14)
(-35.9542 78.8293 -5.82161e-16)
(-36.7027 80.6648 4.41939e-14)
(-37.7105 82.8477 -1.3759e-14)
(-38.7218 84.9799 1.39777e-14)
(-39.7358 87.098 -2.46884e-14)
(-40.7325 89.2466 0)
(-41.7623 91.5074 2.26631e-14)
(-42.8664 93.9643 2.15323e-14)
(-44.0275 96.5554 0)
(-45.3329 99.4836 -2.03642e-14)
(-46.6244 102.342 3.76378e-14)
(-48.2378 106.023 3.76514e-14)
(-49.504 108.801 -1.61891e-14)
(-52.0346 113.969 -6.89373e-14)
(-51.362 115.828 0)
(-61.0349 123.1 0)
(-40.9358 121.95 -7.188e-18)
(-35.4805 75.9481 -2.05424e-14)
(-36.8757 77.4392 0)
(-37.5915 77.3091 2.66373e-16)
(-38.1176 77.9495 1.65485e-14)
(-39.1163 79.656 -2.9778e-14)
(-40.3715 81.7203 0)
(-41.5615 83.7354 1.35332e-14)
(-42.7329 85.7464 0)
(-43.8562 87.8023 0)
(-45.0055 89.9803 -2.2717e-14)
(-46.233 92.3659 0)
(-47.5024 94.8863 2.11556e-14)
(-48.9531 97.754 -5.95632e-14)
(-50.3173 100.538 3.81551e-14)
(-52.1457 104.184 -1.80603e-14)
(-53.4041 106.769 7.06625e-14)
(-56.2829 112.044 0)
(-55.5815 113.734 -3.20349e-14)
(-65.4758 120.835 0)
(-45.5927 120.251 5.45493e-14)
(-37.284 75.9324 0)
(-39.2248 77.2096 2.97017e-16)
(-39.9079 76.7252 5.38493e-16)
(-40.5409 77.1398 -4.74149e-14)
(-41.7068 78.6923 1.47469e-14)
(-43.1469 80.593 -1.43638e-14)
(-44.4604 82.4604 -1.35637e-14)
(-45.7532 84.3395 2.62444e-14)
(-46.9819 86.2858 -2.36382e-14)
(-48.2334 88.3658 -4.62524e-14)
(-49.5695 90.6662 2.11429e-14)
(-50.9343 93.1077 2.06573e-14)
(-52.5239 95.9003 1.9868e-14)
(-53.9471 98.6117 1.90671e-14)
(-56.0076 102.185 0)
(-57.2108 104.723 9.92143e-16)
(-60.4974 109.939 -6.9039e-14)
(-59.6854 111.491 -8.27724e-16)
(-69.8527 118.463 3.19222e-14)
(-50.2034 118.333 -5.4622e-14)
(-39.8055 76.6042 1.90599e-14)
(-42.1496 77.0752 1.86192e-14)
(-42.4883 76.0603 1.67597e-14)
(-43.1942 76.3028 -1.61975e-14)
(-44.4779 77.7017 1.43477e-14)
(-46.0507 79.4075 2.9113e-14)
(-47.4397 81.1103 -1.29553e-14)
(-48.8135 82.8436 -5.18206e-14)
(-50.118 84.6719 -1.11168e-15)
(-51.4514 86.6473 -1.09964e-15)
(-52.881 88.8554 2.11692e-14)
(-54.3278 91.2138 -4.13554e-14)
(-56.0471 93.9179 0)
(-57.5222 96.5606 2.00939e-14)
(-59.8216 100.019 -7.43192e-14)
(-60.931 102.499 3.42145e-14)
(-64.678 107.656 3.50697e-14)
(-63.6727 109.084 0)
(-74.1816 115.986 -3.29079e-14)
(-54.7578 116.183 0)
(-43.5466 77.7545 4.53558e-16)
(-45.6363 76.753 4.38707e-16)
(-45.2076 75.2008 1.68112e-14)
(-46.0484 75.3656 -4.75031e-14)
(-47.4049 76.6276 4.42814e-14)
(-49.0591 78.1181 1.42781e-14)
(-50.4783 79.6511 -1.35435e-14)
(-51.9026 81.2342 2.50493e-14)
(-53.2569 82.9426 2.36306e-14)
(-54.6523 84.8113 -6.76511e-18)
(-56.1611 86.9237 0)
(-57.6794 89.1984 -5.24741e-16)
(-59.5186 91.8038 1.93732e-14)
(-61.039 94.3886 3.91477e-14)
(-63.5685 97.7024 2.05116e-15)
(-64.5667 100.184 -6.933e-14)
(-68.8235 105.163 3.61769e-14)
(-67.527 106.524 -6.25761e-14)
(-78.4867 113.386 3.30644e-14)
(-59.2453 113.796 0)
(-48.8449 78.6809 0)
(-49.4746 75.6541 -1.94313e-14)
(-48.0239 73.9863 -1.68313e-14)
(-49.1705 74.203 0)
(-50.5029 75.3722 4.57268e-14)
(-52.1735 76.6583 -4.25283e-14)
(-53.5733 78.0424 -5.50015e-14)
(-55.0169 79.4847 -5.47151e-16)
(-56.3962 81.0811 0)
(-57.8338 82.8461 2.58772e-18)
(-59.4056 84.8626 2.16988e-14)
(-60.9839 87.0566 0)
(-62.9315 89.5568 4.08171e-14)
(-64.4933 92.0968 -7.62263e-14)
(-67.2382 95.2314 3.61006e-14)
(-68.1171 97.7809 1.59429e-17)
(-72.9211 102.435 -3.51007e-14)
(-71.2145 103.86 3.1699e-14)
(-82.7863 110.612 -3.47782e-14)
(-63.6469 111.16 5.33539e-14)
(-54.9362 78.3069 0)
(-53.1271 73.414 0)
(-51.0705 72.391 -3.44897e-14)
(-52.5105 72.7042 6.38595e-14)
(-53.7201 73.8519 -6.02876e-14)
(-55.3642 74.9631 1.44756e-14)
(-56.705 76.2376 5.47496e-14)
(-58.1396 77.5549 2.63803e-14)
(-59.5203 79.0535 -2.37639e-14)
(-60.9828 80.724 2.29253e-14)
(-62.6017 82.6506 -4.39979e-14)
(-64.2283 84.7744 2.01791e-14)
(-66.2721 87.1664 4.08262e-14)
(-67.8777 89.6752 4.01216e-14)
(-70.8194 92.6013 -3.60639e-14)
(-71.6049 95.2845 3.41134e-14)
(-76.9651 99.4863 7.02696e-14)
(-74.7266 101.169 -3.06542e-14)
(-87.1218 107.678 0)
(-67.9095 108.196 0)
(-59.8637 75.5896 0)
(-56.3376 70.1729 2.00143e-14)
(-54.1518 70.5406 -1.68162e-14)
(-55.9755 70.7908 -3.3148e-14)
(-57.0181 72.016 1.42927e-14)
(-58.6384 72.963 2.88039e-14)
(-59.8862 74.1682 -5.59251e-18)
(-61.2815 75.3799 0)
(-62.6342 76.8096 0)
(-64.0907 78.4008 4.66834e-14)
(-65.7378 80.2523 1.05278e-15)
(-67.3985 82.3225 -4.09187e-14)
(-69.5211 84.607 0)
(-71.1714 87.1048 -7.61844e-14)
(-74.2824 89.802 3.80546e-14)
(-75.0235 92.6978 -1.04334e-13)
(-80.9304 96.2531 3.49963e-14)
(-78.1222 98.6387 3.25488e-14)
(-91.5839 104.419 -6.76464e-14)
(-71.9704 104.685 5.2886e-14)
(-60.0076 71.9796 -8.09139e-16)
(-59.6604 66.9315 -1.91171e-14)
(-57.4352 68.5574 -1.7085e-14)
(-60.042 68.521 1.65251e-14)
(-60.7584 69.8209 3.19326e-14)
(-62.3067 70.5865 -2.91105e-14)
(-63.3865 71.7707 -2.78935e-14)
(-64.678 72.9259 2.67231e-14)
(-65.9298 74.3271 -2.39436e-14)
(-67.3452 75.9059 -2.3493e-14)
(-68.9714 77.7123 4.30608e-14)
(-70.6391 79.7729 5.09225e-16)
(-72.8046 81.9625 -3.97659e-14)
(-74.5004 84.498 3.62322e-14)
(-77.702 86.9145 0)
(-78.4923 90.1686 3.44652e-14)
(-84.6403 92.75 1.1262e-15)
(-81.6309 96.5682 -3.01344e-14)
(-96.2456 100.809 0)
(-75.8825 100.48 -5.20789e-14)
(-57.5737 71.7147 1.98339e-14)
(-61.5525 65.0733 4.97444e-18)
(-59.7698 66.6026 1.55269e-14)
(-62.6031 66.3666 -2.93517e-14)
(-63.0865 67.6356 -4.34554e-16)
(-64.5917 68.4585 1.32157e-14)
(-65.522 69.6788 3.82996e-16)
(-66.7429 70.8976 1.5201e-17)
(-67.9241 72.3438 -2.14617e-14)
(-69.2808 73.9892 -2.01839e-14)
(-70.8531 75.8366 5.83823e-16)
(-72.4915 77.9693 -1.76458e-14)
(-74.6178 80.1435 0)
(-76.3629 82.8042 6.41542e-14)
(-79.5144 85.0303 0)
(-80.4542 88.6511 -3.00127e-14)
(-86.5152 90.5893 2.92644e-14)
(-83.4973 95.4075 2.69733e-14)
(-98.2571 98.2549 -4.46313e-16)
(-78.2248 99.1791 3.19973e-16)
(-57.7359 71.3339 0)
(-62.1054 65.0224 1.38188e-14)
(-60.1615 66.3147 0)
(-63.0395 66.1464 1.20831e-14)
(-63.4511 67.3468 0)
(-64.957 68.179 -2.14733e-14)
(-65.8762 69.3751 3.23245e-16)
(-67.1011 70.5858 -2.92523e-16)
(-68.2817 72.0152 1.80743e-14)
(-69.6419 73.6525 1.70265e-14)
(-71.2149 75.4893 -1.62848e-14)
(-72.8647 77.622 2.99832e-14)
(-74.9863 79.784 0)
(-76.7576 82.4645 -2.75371e-14)
(-79.8757 84.6451 4.32385e-16)
(-80.8988 88.3406 2.3871e-17)
(-86.8911 90.1101 -3.82477e-16)
(-83.9965 95.1875 -2.35846e-14)
(-98.5823 97.583 -2.23851e-14)
(-78.7427 98.9319 -1.81309e-14)
(-58.0966 70.7131 2.41068e-16)
(-62.6603 64.9376 -2.09843e-16)
(-60.5848 65.9632 0)
(-63.4695 65.8801 1.24567e-14)
(-63.8223 67.0142 1.09491e-14)
(-65.3239 67.8649 2.11056e-14)
(-66.2301 69.0404 6.32763e-16)
(-67.4576 70.2475 1.29786e-17)
(-68.6361 71.6645 -2.75977e-16)
(-69.9994 73.2979 -3.40782e-14)
(-71.5706 75.1267 8.65025e-18)
(-73.2324 77.261 -3.01134e-14)
(-75.3476 79.4127 2.14702e-16)
(-77.1471 82.1133 -4.41271e-16)
(-80.2246 84.2522 -2.64164e-14)
(-81.3459 88.016 2.59888e-14)
(-87.2164 89.6402 4.05527e-16)
(-84.5002 94.9445 -3.51288e-16)
(-98.8569 96.9232 2.26811e-14)
(-79.2746 98.7343 3.63751e-14)
(-58.5299 70.0496 0)
(-63.1994 64.8158 0)
(-61.0204 65.5953 1.25646e-14)
(-63.8887 65.6049 -1.20934e-14)
(-64.1862 66.6776 -1.09492e-14)
(-65.6788 67.5503 -3.37607e-16)
(-66.5745 68.7071 -1.99002e-14)
(-67.8046 69.9103 -5.97255e-16)
(-68.982 71.3146 2.75857e-16)
(-70.3489 72.9432 1.70364e-14)
(-71.919 74.764 3.20673e-14)
(-73.5931 76.8985 7.09521e-18)
(-75.7025 79.04 1.40845e-14)
(-77.5317 81.7578 0)
(-80.5704 83.8589 2.63732e-14)
(-81.7917 87.6848 3.93882e-16)
(-87.5318 89.1797 2.50537e-14)
(-85.008 94.6885 2.33216e-14)
(-99.1175 96.2789 3.70813e-16)
(-79.7919 98.5363 -1.82139e-14)
(-58.9769 69.4048 1.44232e-14)
(-63.7154 64.6829 -1.06908e-17)
(-61.4523 65.2335 1.71434e-16)
(-64.2872 65.3366 -3.84046e-16)
(-64.5338 66.3525 -1.09367e-14)
(-66.016 67.2474 -1.07066e-14)
(-66.9052 68.3856 1.98819e-14)
(-68.1392 69.5832 2.91514e-16)
(-69.3174 70.9731 1.80106e-14)
(-70.6893 72.5949 0)
(-72.2599 74.4068 -1.59895e-14)
(-73.947 76.5396 2.97805e-14)
(-76.0514 78.6703 -1.40812e-14)
(-77.9123 81.4018 0)
(-80.9124 83.4681 -4.3105e-16)
(-82.236 87.3494 -2.56186e-14)
(-87.8386 88.7245 -2.50206e-14)
(-85.521 94.4231 -2.29977e-14)
(-99.371 95.6418 -3.43038e-16)
(-80.2993 98.3351 2.85595e-16)
(-59.416 68.7918 -2.91631e-14)
(-64.2048 64.5474 1.38766e-14)
(-61.8731 64.8831 -2.70039e-17)
(-64.6616 65.0782 1.84399e-16)
(-64.8635 66.041 2.25476e-14)
(-66.3347 66.9579 1.03347e-14)
(-67.2213 68.0769 -1.95152e-14)
(-68.4608 69.2669 -2.90764e-16)
(-69.6418 70.64 -1.79723e-14)
(-71.0201 72.253 -2.70907e-16)
(-72.5926 74.0547 2.42912e-16)
(-74.2938 76.184 -1.48391e-14)
(-76.3936 78.3036 -1.38374e-14)
(-78.2881 81.0453 -2.08834e-16)
(-81.2496 83.0794 2.67251e-14)
(-82.6783 87.0094 2.60273e-14)
(-88.137 88.2741 2.53663e-14)
(-86.0388 94.1487 -3.53401e-16)
(-99.6173 95.0085 -2.27673e-14)
(-80.7992 98.1331 2.71477e-16)
(-59.8405 68.213 1.4278e-14)
(-64.667 64.4114 -1.39719e-14)
(-62.2789 64.5475 -2.50196e-14)
(-65.0106 64.8317 0)
(-65.1741 65.7447 -1.01219e-17)
(-66.6342 66.6833 -3.47436e-16)
(-67.5221 67.7823 2.04201e-14)
(-68.7688 68.9625 3.02905e-16)
(-69.9549 70.3166 -2.7363e-16)
(-71.341 71.9182 0)
(-72.9171 73.7086 0)
(-74.6331 75.8324 1.47671e-14)
(-76.729 77.9407 1.40617e-14)
(-78.6588 80.6891 2.74691e-14)
(-81.5819 82.6952 -5.38334e-14)
(-83.1184 86.6649 3.94174e-16)
(-88.4274 87.8291 -2.49295e-14)
(-86.5611 93.8656 0)
(-99.8565 94.3775 2.63677e-17)
(-81.2918 97.9316 -1.83051e-14)
(-60.2475 67.6662 1.416e-14)
(-65.1008 64.2787 1.44393e-14)
(-62.6665 64.2293 1.25016e-14)
(-65.3325 64.5989 1.20556e-14)
(-65.4643 65.4654 -2.2841e-14)
(-66.9135 66.425 -9.9647e-15)
(-67.8068 67.5034 1.30774e-17)
(-69.0626 68.6716 -1.91881e-14)
(-70.2561 70.0039 0)
(-71.6516 71.5917 1.68035e-14)
(-73.2329 73.3692 -2.52642e-16)
(-74.9648 75.4853 -1.42395e-14)
(-77.0574 77.5821 -2.13955e-16)
(-79.0241 80.3336 -1.52214e-17)
(-81.9088 82.3157 2.66799e-14)
(-83.5558 86.316 0)
(-88.71 87.3904 0)
(-87.0876 93.5741 -2.35411e-14)
(-100.089 93.7473 2.94313e-17)
(-81.7767 97.7321 -2.95378e-18)
(-60.6354 67.1508 -2.86864e-14)
(-65.5039 64.1544 -1.43025e-14)
(-63.0328 63.9306 -1.24766e-14)
(-65.6261 64.3815 -1.2052e-14)
(-65.7327 65.2048 2.2447e-14)
(-67.1716 66.1846 0)
(-68.0744 67.2416 0)
(-69.3416 68.3955 1.63132e-17)
(-70.5452 69.7032 0)
(-71.9516 71.2743 -1.67315e-14)
(-73.5397 73.0372 -1.54261e-14)
(-75.2885 75.1435 -1.48348e-14)
(-77.3786 77.2285 -1.42616e-14)
(-79.3837 79.9793 -5.46974e-14)
(-82.2306 81.9412 0)
(-83.9902 85.9624 0)
(-88.9848 86.9583 0)
(-87.618 93.2744 2.35799e-14)
(-100.314 93.1182 4.41037e-14)
(-82.2533 97.5365 1.82608e-14)
(-61.0044 66.6585 1.42988e-14)
(-65.8741 64.0407 0)
(-63.3754 63.6533 1.24804e-14)
(-65.89 64.1812 3.82621e-16)
(-65.9783 64.9641 -1.15524e-14)
(-67.4074 65.9637 0)
(-68.3242 66.9986 0)
(-69.6051 68.1357 1.87444e-14)
(-70.8218 69.4158 2.82477e-16)
(-72.2408 70.9672 -5.19604e-16)
(-73.8373 72.7136 1.5815e-14)
(-75.604 74.8078 1.45728e-14)
(-77.6927 76.8805 1.40379e-14)
(-79.7375 79.6266 2.70108e-14)
(-82.5475 81.572 -2.4094e-17)
(-84.4215 85.6046 3.94412e-16)
(-89.2518 86.5334 0)
(-88.1521 92.9668 0)
(-100.531 92.489 -2.19303e-14)
(-82.7207 97.347 0)
(-61.3547 66.1838 1.42144e-14)