/*--------------------------------*- C++ -*----------------------------------*\
  =========                 |
  \\      /  F ield         | OpenFOAM: The Open Source CFD Toolbox
   \\    /   O peration     | Website:  https://openfoam.org
    \\  /    A nd           | Version:  10
     \\/     M anipulation  |
\*---------------------------------------------------------------------------*/
FoamFile
{
    format      ascii;
    class       volVectorField;
    location    "500";
    object      Urel;
}
// * * * * * * * * * * * * * * * * * * * * * * * * * * * * * * * * * * * * * //

dimensions      [0 1 -1 0 0 0 0];

internalField   nonuniform List<vector> 
2000
(
(3.3669 -5.37847 2.03987e-17)
(-0.0492725 -1.25116 1.70762e-18)
(1.82072 0.0815144 -5.61542e-18)
(3.16357 1.53029 0)
(4.77689 3.52344 0)
(6.74776 5.68007 1.85256e-16)
(8.23961 7.17576 -2.3069e-16)
(9.11996 7.58471 -2.97368e-16)
(9.5304 7.00639 3.86816e-16)
(9.54178 5.62446 5.05583e-16)
(9.27153 3.59654 6.63201e-16)
(8.84158 1.14505 0)
(8.03294 -1.54383 9.26322e-16)
(6.55734 -3.85329 9.17281e-16)
(4.37457 -5.28195 9.45833e-16)
(1.6694 -5.67267 1.02661e-15)
(-1.11237 -5.71841 -1.1688e-15)
(-3.23923 -6.97381 6.72806e-16)
(-4.28937 -9.77853 7.152e-16)
(-4.48407 -12.7645 2.9028e-15)
(3.94967 -5.50149 -9.60299e-17)
(-0.321168 -1.71945 -1.95223e-17)
(1.36554 -0.639877 -7.69579e-17)
(2.32863 0.662722 -4.40384e-16)
(3.74568 2.19339 7.41018e-17)
(5.61974 4.26131 -8.43555e-16)
(7.25845 6.07575 4.53146e-16)
(8.22459 6.93345 8.95467e-16)
(8.60945 6.74759 3.54764e-16)
(8.51347 5.66546 4.7195e-16)
(8.03187 3.90663 -1.2668e-15)
(7.1349 1.734 -8.27487e-16)
(5.78229 -0.454834 -1.00503e-15)
(3.69934 -1.98085 -1.03417e-15)
(0.994417 -2.55071 -3.4687e-15)
(-1.75364 -2.48517 -1.53122e-15)
(-3.76236 -3.48861 4.70851e-15)
(-4.48338 -6.43543 -4.98993e-15)
(-4.49729 -9.83714 0)
(-4.20498 -13.3104 -4.209e-15)
(4.43425 -5.43881 5.9347e-17)
(-0.488175 -1.93811 7.72004e-18)
(1.22824 -1.14737 5.26392e-17)
(1.46117 0.296251 3.95878e-16)
(2.31587 1.51146 9.11295e-16)
(3.39158 3.01445 2.06108e-16)
(4.97679 4.80406 5.38537e-16)
(6.11692 6.06155 -9.28644e-16)
(6.63288 6.36633 -8.18913e-16)
(6.52281 5.77225 -1.05438e-15)
(5.86526 4.48774 1.38691e-15)
(4.5931 2.79856 0)
(2.62242 1.12647 -4.60185e-15)
(-0.0734201 0.44618 0)
(-3.02789 0.394741 0)
(-5.34581 -0.689655 0)
(-5.67738 -3.25164 4.24044e-15)
(-5.25178 -6.37954 -6.67903e-15)
(-4.68513 -10.2871 0)
(-3.9283 -13.9482 2.71244e-15)
(4.73891 -5.32718 4.57238e-17)
(-0.428193 -2.19573 -2.03114e-16)
(1.38796 -1.6488 0)
(1.46788 -0.153774 7.25731e-16)
(1.89343 1.24881 4.28235e-16)
(2.19998 2.39602 2.07255e-16)
(2.96951 3.88387 -1.73213e-18)
(3.84288 5.30837 2.0908e-15)
(4.21989 6.06844 0)
(3.97997 6.02176 9.79585e-16)
(3.0817 5.33072 1.32873e-15)
(1.32108 4.33052 4.05309e-15)
(-1.57552 3.3478 5.64782e-15)
(-5.10175 2.51213 1.54235e-14)
(-7.69646 1.50771 -8.45466e-15)
(-7.75506 -0.33317 -2.59023e-16)
(-6.94292 -3.20924 1.46338e-14)
(-5.93457 -7.1346 6.68493e-15)
(-4.76098 -11.088 5.903e-15)
(-3.55491 -14.6048 5.4177e-15)
(4.96327 -5.22242 0)
(-0.313386 -2.49467 3.10351e-16)
(1.52837 -2.06208 -1.53219e-16)
(1.71612 -0.642451 -8.62822e-16)
(1.85566 0.946006 -1.58563e-15)
(2.02814 2.15174 6.40985e-16)
(1.90096 3.52877 -1.62439e-15)
(2.09816 4.94178 -2.56554e-15)
(2.03732 5.99441 -9.12146e-16)
(1.44145 6.45735 3.02687e-16)
(0.160176 6.42751 -3.02345e-15)
(-2.1215 6.14003 -4.6329e-15)
(-5.69288 5.6145 -6.79782e-15)
(-8.07272 5.67367 -7.17336e-15)
(-8.96492 4.52109 0)
(-9.34042 0.373138 4.53954e-16)
(-7.95113 -4.44424 4.42386e-16)
(-6.01129 -8.26727 -6.01612e-15)
(-4.5378 -12.0131 -1.69829e-14)
(-3.11922 -15.4451 4.99566e-15)
(5.14196 -5.1314 0)
(-0.1726 -2.80137 -1.80203e-16)
(1.6361 -2.42298 0)
(1.85921 -1.08314 4.89247e-16)
(2.01243 0.555389 1.94183e-15)
(2.06424 1.94168 0)
(1.60151 3.48558 4.05704e-15)
(1.12104 5.02874 6.55782e-15)
(0.482988 6.2739 0)
(-0.598351 7.14269 -2.79963e-15)
(-2.43344 7.54129 8.77954e-15)
(-5.11735 8.48596 8.53713e-16)
(-8.1038 9.63607 5.17067e-15)
(-10.5592 8.59701 -3.97777e-15)
(-10.7997 5.05908 0)
(-9.52422 -0.342152 -1.09283e-14)
(-7.60845 -5.92212 -6.11426e-15)
(-5.81404 -9.54054 0)
(-4.11513 -13.0439 1.08631e-14)
(-2.46833 -16.2731 -1.989e-14)
(5.30877 -5.03664 5.18173e-16)
(-0.0546576 -3.09306 -2.26722e-16)
(1.74509 -2.75409 4.82541e-17)
(1.89813 -1.46582 -1.20375e-16)
(2.0211 0.176721 -1.36918e-17)
(1.99656 1.73461 -1.95049e-15)
(1.49343 3.40849 4.58321e-15)
(0.63423 5.37954 -6.86074e-15)
(-0.490335 6.91969 -8.89937e-15)
(-2.13306 8.10362 5.78708e-15)
(-4.50026 9.61128 -3.84372e-15)
(-7.54912 11.0888 -3.9836e-15)
(-10.0732 11.4147 3.23283e-15)
(-11.4441 9.21953 -7.66772e-15)
(-11.132 4.46301 0)
(-9.59904 -1.73156 2.07515e-14)
(-7.0821 -7.09743 -2.3128e-14)
(-5.1146 -10.619 1.06277e-14)
(-3.31064 -13.9715 1.04864e-14)
(-1.55969 -17.0897 1.39375e-16)
(5.46426 -4.92763 1.49236e-16)
(0.0266299 -3.38421 7.05646e-17)
(1.83286 -3.07838 -1.0111e-16)
(1.89171 -1.81459 -6.55176e-16)
(1.9315 -0.148207 -1.82335e-15)
(1.82917 1.48757 0)
(1.27173 3.25569 -4.50004e-15)
(0.291645 5.72858 0)
(-1.18229 7.72738 5.64545e-15)
(-3.3268 9.63628 0)
(-6.02156 11.5987 0)
(-8.90089 13.0941 -4.15285e-16)
(-11.1184 13.0091 1.26734e-14)
(-11.7054 9.95548 7.37335e-15)
(-10.8947 4.31525 2.10884e-16)
(-8.42926 -2.85246 -1.07213e-14)
(-6.25757 -8.13686 0)
(-4.27304 -11.4473 0)
(-2.20997 -14.8133 1.00407e-14)
(-0.304365 -17.8446 1.92191e-14)
(5.59694 -4.77828 -5.57786e-16)
(0.0807024 -3.64881 8.34252e-16)
(1.85862 -3.39348 2.41042e-16)
(1.79929 -2.16484 -1.35806e-16)
(1.75094 -0.460566 -1.14865e-15)
(1.55095 1.27611 1.33052e-15)
(0.908699 3.14078 2.78791e-15)
(-0.150502 5.97103 -2.26655e-15)
(-1.77399 8.54676 0)
(-4.16921 11.038 -6.80228e-15)
(-6.98885 13.3522 5.28857e-15)
(-9.66344 14.9223 -5.64167e-15)
(-11.3127 14.2793 0)
(-11.1901 10.4493 5.07203e-16)
(-9.8739 4.10015 2.67554e-16)
(-6.91616 -2.85957 1.24141e-14)
(-5.00889 -8.40124 -2.34799e-14)
(-2.96161 -12.1005 1.04343e-14)
(-0.691206 -15.5829 -9.90496e-15)
(1.32754 -18.5008 -9.41013e-15)
(5.69762 -4.56361 0)
(0.0971958 -3.8694 3.13646e-17)
(1.7476 -3.69809 6.55997e-17)
(1.55257 -2.56955 4.73393e-18)
(1.46156 -0.839054 0)
(1.18445 1.04726 0)
(0.41442 3.06087 -7.98272e-15)
(-0.727816 6.1169 2.31181e-15)
(-2.24947 9.22333 -1.2079e-14)
(-4.68573 12.2889 -1.41e-15)
(-7.40038 14.9289 1.13144e-14)
(-9.75173 16.4458 -5.14287e-15)
(-10.8001 15.457 3.25091e-16)
(-10.2769 11.1185 6.98234e-16)
(-8.65069 4.26065 -8.58299e-15)
(-5.49763 -2.63631 0)
(-3.70194 -8.40817 -1.22637e-14)
(-1.34995 -12.5152 4.29604e-14)
(1.15532 -16.2362 -1.9417e-14)
(3.29776 -19.017 9.4577e-15)
(5.76506 -4.27604 -5.98274e-17)
(0.0246329 -4.01875 -4.0829e-16)
(1.43929 -3.97542 -6.38202e-17)
(1.16765 -3.04147 1.33034e-16)
(1.04982 -1.35004 6.38107e-16)
(0.72358 0.704662 0)
(-0.165472 2.95052 2.17313e-15)
(-1.2991 6.19706 2.37821e-15)
(-2.56452 9.68695 -6.43636e-15)
(-4.83098 13.2925 1.10517e-14)
(-7.33072 16.3265 6.73728e-15)
(-9.28592 17.9132 -5.54017e-15)
(-9.84932 16.6807 1.17202e-14)
(-8.87405 11.9783 7.22429e-15)
(-6.82436 5.05492 9.92935e-15)
(-3.45521 -1.46819 8.21533e-16)
(-1.82828 -7.92991 -1.24722e-14)
(0.800318 -12.6408 -2.02283e-17)
(3.49075 -16.6429 -2.0482e-14)
(5.66079 -19.296 -1.03394e-14)
(5.79203 -3.88487 0)
(-0.169407 -4.03934 1.86003e-16)
(0.999642 -4.21853 -1.78035e-16)
(0.662178 -3.57527 -5.42471e-16)
(0.569035 -2.01276 1.70553e-15)
(0.267831 0.189838 -1.33261e-15)
(-0.75267 2.83734 0)
(-1.74763 6.30288 0)
(-2.67114 9.92045 5.30658e-15)
(-4.68704 13.9293 0)
(-6.88508 17.3381 6.3768e-16)
(-8.29251 19.0895 -1.09027e-14)
(-8.26269 17.8519 6.29571e-15)
(-6.82006 13.1441 -7.64001e-15)
(-4.63419 6.26269 0)
(-1.17635 0.118153 1.72644e-14)
(0.702318 -6.86584 0)
(3.63815 -12.1997 -1.15475e-14)
(6.41128 -16.5397 -2.11533e-14)
(8.44112 -19.1469 1.94989e-14)
(5.7695 -3.37083 5.51139e-16)
(-0.490413 -3.91775 6.82392e-16)
(0.421067 -4.38698 0)
(0.00730216 -4.17843 -7.39875e-16)
(-0.0711195 -2.93324 -5.91847e-16)
(-0.237142 -0.736495 -1.23833e-15)
(-1.15846 2.27262 0)
(-1.80922 5.95057 0)
(-2.55664 9.75547 5.35907e-15)
(-4.28373 14.0828 0)
(-6.02973 17.8816 6.19447e-15)
(-6.83942 19.926 -5.46584e-15)
(-6.18351 18.9991 -6.38332e-15)
(-4.208 14.6375 6.5563e-16)
(-1.65276 8.29636 -3.70187e-14)
(2.3088 2.9414 2.06386e-14)
(4.50723 -4.58009 -1.68304e-14)
(7.40993 -10.7127 0)
(10.0372 -15.4597 -1.115e-14)
(11.6185 -18.1673 3.24211e-14)
(5.69286 -2.71825 -4.53347e-16)
(-0.913779 -3.62692 -1.44994e-15)
(-0.247527 -4.45062 1.45165e-16)
(-0.746467 -4.74651 7.10211e-16)
(-0.87373 -3.96972 1.48951e-15)
(-0.957564 -1.93855 -3.2814e-15)
(-1.65074 1.38827 1.04349e-14)
(-1.8939 5.25273 -1.09519e-14)
(-2.40361 9.2361 -7.3212e-16)
(-3.68159 13.7605 -6.21197e-15)
(-4.83673 17.8851 1.60118e-14)
(-5.01354 20.3451 -1.16692e-14)
(-3.76996 19.7589 6.63885e-15)
(-1.31201 15.9825 0)
(1.44156 10.2474 0)
(5.30954 5.12925 0)
(8.23336 -1.96212 1.77393e-14)
(11.0369 -8.46763 6.3261e-16)
(13.2972 -13.5177 -1.01847e-14)
(14.1943 -16.3654 -9.60569e-15)
(5.54891 -1.94993 2.78964e-16)
(-1.38951 -3.18195 1.41585e-15)
(-0.908901 -4.3253 -2.31461e-16)
(-1.48984 -5.12007 2.16842e-16)
(-1.70849 -4.97791 9.03592e-16)
(-1.78292 -3.39529 -1.00043e-15)
(-2.10104 -0.0635651 0)
(-2.15467 3.93811 0)
(-2.32545 8.0333 0)
(-2.99607 12.7044 0)
(-3.52801 17.0714 -1.08515e-14)
(-3.08102 19.7595 1.71343e-14)
(-1.27311 19.8133 -5.63216e-15)
(1.55524 17.0926 0)
(4.60348 12.1914 0)
(8.13267 7.16954 0)
(11.4588 0.548222 2.51497e-14)
(14.3795 -5.75932 5.12756e-16)
(16.1291 -10.7038 4.60684e-16)
(16.1691 -13.5348 0)
(5.31202 -1.13516 0)
(-1.86207 -2.61517 -3.05059e-15)
(-1.44134 -3.90575 -2.66632e-16)
(-2.10596 -5.2105 1.94075e-15)
(-2.47508 -5.69917 -2.90235e-15)
(-2.68853 -4.96786 0)
(-2.75862 -2.16595 0)
(-2.66231 1.91675 1.03217e-14)
(-2.49978 6.06355 0)
(-2.46385 10.7671 0)
(-2.30159 15.2485 -1.03189e-14)
(-1.2414 18.3107 1.61316e-14)
(1.06896 19.0552 -5.28828e-15)
(4.30226 17.4293 -2.58769e-14)
(7.79294 13.7853 -1.1995e-15)
(11.337 9.42075 -1.53081e-15)
(14.8232 3.46689 3.86703e-14)
(17.544 -2.47971 1.68694e-14)
(18.1941 -7.13255 0)
(16.921 -9.81964 -1.75205e-14)
(4.94054 -0.301854 0)
(-2.26349 -2.01106 1.66682e-15)
(-1.72024 -3.21677 3.71435e-16)
(-2.43097 -4.75303 -1.16664e-15)
(-3.05419 -5.84243 2.35339e-15)
(-3.55988 -6.08068 0)
(-3.72701 -4.5229 0)
(-3.56725 -0.899711 -2.16215e-16)
(-2.92586 3.12727 -6.66296e-15)
(-2.28488 7.7832 5.31377e-15)
(-1.41814 12.2883 1.15052e-14)
(0.270737 15.6487 -1.1123e-14)
(3.05828 17.1736 -2.24753e-14)
(6.58769 16.5558 2.30041e-14)
(10.383 14.2557 1.35447e-14)
(13.9082 10.8529 -1.84209e-14)
(17.2354 5.88669 -7.63042e-16)
(18.8726 0.776146 -1.54514e-14)
(18.1927 -3.31612 -1.64787e-14)
(15.2874 -5.67643 3.74778e-14)
(4.34194 0.493051 0)
(-2.45059 -1.47065 -1.73866e-15)
(-1.65447 -2.31911 -4.15159e-16)
(-2.28635 -3.67893 1.38232e-15)
(-3.12459 -5.05033 6.47189e-16)
(-3.99748 -5.95433 0)
(-4.63159 -5.97724 0)
(-4.62898 -3.83176 -5.18351e-15)
(-3.77457 -0.610382 -1.41053e-15)
(-2.80982 3.78331 6.02948e-15)
(-1.01294 8.03812 0)
(1.41182 11.3954 0)
(4.48866 13.6025 1.09258e-14)
(8.12178 14.1549 -1.0276e-15)
(11.8023 13.048 1.42325e-14)
(14.9648 10.8354 -1.54183e-14)
(17.5315 7.29954 0)
(17.9856 3.38227 0)
(15.4106 0.25863 0)
(10.7288 -1.46427 0)
(3.42556 1.04323 -4.28986e-17)
(-2.38227 -1.01488 4.19055e-15)
(-1.35869 -1.17498 8.18346e-16)
(-1.73918 -1.94223 -2.84869e-15)
(-2.47493 -3.01614 -2.48934e-15)
(-3.44989 -4.12381 7.62847e-15)
(-4.45422 -4.79642 0)
(-4.99325 -4.5116 -8.55285e-15)
(-4.83784 -2.56581 -6.33078e-15)
(-3.83945 0.657303 6.37444e-15)
(-1.97863 4.66459 2.49126e-14)
(0.677024 7.81506 -2.34665e-14)
(4.21142 9.88075 2.64797e-14)
(7.85341 10.8881 -1.27202e-14)
(11.0929 10.3909 1.50824e-14)
(13.5405 8.77237 -3.09042e-14)
(14.5752 6.33996 1.69819e-14)
(13.0234 3.31141 -1.77052e-14)
(8.89888 1.39179 0)
(4.46069 0.252319 0)
(1.89954 1.17442 0)
(-1.31205 -0.510227 1.81827e-15)
(-0.263889 -0.608765 -3.7139e-15)
(-0.452857 -0.91015 0)
(-1.04943 -1.33764 0)
(-1.92148 -1.80548 -8.70832e-15)
(-2.89472 -2.28681 -5.72962e-15)
(-3.70855 -2.69547 5.54085e-15)
(-3.92666 -2.87171 0)
(-2.95867 -2.6755 0)
(-0.917639 -1.81544 -2.265e-14)
(1.3322 -0.401206 0)
(3.71279 0.996752 -2.15547e-14)
(6.00666 1.73183 -2.12947e-14)
(6.92179 1.73233 4.14663e-14)
(6.62982 1.00459 2.35742e-14)
(4.93141 -0.0802895 0)
(1.8617 -0.958439 3.23172e-14)
(-1.10725 -1.0664 4.3298e-14)
(-1.54852 -1.525 -5.98555e-14)
(-4.25434 -15.7515 -1.24855e-15)
(-3.56327 -18.9216 -1.83954e-17)
(-3.07131 -22.0178 1.0667e-15)
(-2.31103 -24.8751 -1.05499e-15)
(-1.68916 -27.4657 9.48727e-16)
(-1.15079 -29.8862 -9.38918e-16)
(-0.698252 -32.2695 8.39484e-16)
(-0.339986 -34.73 8.31906e-16)
(-0.0370723 -37.2916 -7.4048e-16)
(0.224355 -39.9269 -1.43682e-15)
(0.443347 -42.5923 -2.7561e-15)
(0.609916 -45.2483 1.25744e-15)
(0.764133 -47.9208 0)
(0.872886 -50.5603 0)
(0.958086 -53.1922 -2.31884e-15)
(1.16342 -56.0025 0)
(0.713185 -58.0044 0)
(2.72274 -62.8784 1.03406e-15)
(-3.97925 -59.8523 -9.95248e-16)
(15.6434 -77.953 3.36445e-15)
(-3.59524 -16.632 -2.62545e-15)
(-2.94184 -19.7683 -1.27599e-15)
(-2.15146 -22.7399 -6.44764e-17)
(-1.4168 -25.4878 -2.05041e-15)
(-0.752566 -27.9648 -3.92382e-15)
(-0.147513 -30.2995 3.5265e-15)
(0.371998 -32.6131 8.03338e-17)
(0.818928 -35.0118 -3.12166e-15)
(1.22134 -37.5141 -3.0271e-15)
(1.58872 -40.0909 -1.51049e-15)
(1.91953 -42.7012 3.99678e-15)
(2.19855 -45.3101 2.5237e-15)
(2.4732 -47.9415 7.40011e-15)
(2.6843 -50.5571 0)
(2.89594 -53.1644 6.96381e-15)
(3.18449 -55.9578 -4.60365e-15)
(2.85141 -57.9469 8.57029e-15)
(4.9962 -62.765 4.1371e-15)
(-1.73461 -60.0165 -3.97912e-15)
(18.3519 -77.1788 -4.35325e-19)
(-3.0728 -17.261 -5.18783e-15)
(-2.18704 -20.3652 4.55528e-15)
(-1.33809 -23.3223 1.09008e-14)
(-0.541335 -25.9946 -1.94146e-15)
(0.230184 -28.396 0)
(0.908388 -30.6468 -7.58543e-17)
(1.50122 -32.8988 3.26719e-15)
(2.03072 -35.2473 0)
(2.52573 -37.6987 2.99631e-15)
(2.99163 -40.2214 -5.84367e-15)
(3.42562 -42.7766 5.26101e-15)
(3.80711 -45.34 -5.17486e-15)
(4.19223 -47.9267 1.44897e-16)
(4.49847 -50.5157 -4.6691e-15)
(4.83385 -53.0845 -4.64643e-15)
(5.20343 -55.8658 0)
(4.98895 -57.8252 -4.35308e-15)
(7.2733 -62.5869 0)
(0.475989 -60.0876 -8.17294e-15)
(21.1238 -76.3625 0)
(-2.51115 -17.9222 6.71643e-17)
(-1.48752 -21.0374 -4.48874e-15)
(-0.522318 -23.9198 -8.5038e-15)
(0.398769 -26.5094 0)
(1.26372 -28.8172 -7.63797e-15)
(2.02405 -30.9769 3.38073e-15)
(2.69367 -33.1556 3.32731e-15)
(3.30501 -35.4421 6.32015e-15)
(3.88765 -37.8343 -5.97791e-15)
(4.44589 -40.2979 5.81613e-15)
(4.97469 -42.7951 2.97964e-16)
(5.45062 -45.3106 -5.02184e-15)
(5.93798 -47.8461 0)
(6.33307 -50.408 9.60907e-15)
(6.7838 -52.926 -9.56884e-15)
(7.22917 -55.7017 -2.6357e-16)
(7.13611 -57.6132 -8.99049e-15)
(9.55231 -62.3143 8.02525e-15)
(2.73003 -60.0913 8.77181e-15)
(23.8805 -75.4514 3.0755e-16)
(-1.86638 -18.6167 1.95987e-14)
(-0.700209 -21.6504 -1.3422e-14)
(0.377338 -24.4894 3.96369e-15)
(1.41733 -27.0054 0)
(2.38268 -29.2055 0)
(3.21566 -31.2626 -7.15073e-15)
(3.95306 -33.3619 1.30982e-14)
(4.64032 -35.5796 -1.26829e-14)
(5.30319 -37.9082 5.47135e-15)
(5.94477 -40.3118 1.09823e-14)
(6.55868 -42.7519 1.1055e-14)
(7.12091 -45.2212 -1.0304e-14)
(7.70134 -47.7032 9.65054e-15)
(8.18143 -50.2408 8.35607e-18)
(8.7406 -52.6972 9.56056e-15)
(9.26035 -55.4751 2.59831e-16)
(9.28355 -57.3183 -8.99627e-15)
(11.8246 -61.9697 1.58845e-14)
(4.9979 -60.0236 -1.63128e-14)
(26.6011 -74.4401 -1.35091e-14)
(-1.04242 -19.3031 4.92903e-15)
(0.229736 -22.2521 -4.05068e-15)
(1.40773 -25.0379 1.16051e-16)
(2.56169 -27.4761 0)
(3.61003 -29.5587 0)
(4.4999 -31.5003 -1.41812e-14)
(5.29116 -33.5108 1.28842e-14)
(6.04003 -35.6533 2.53051e-14)
(6.76947 -37.9149 -1.74448e-14)
(7.48266 -40.2571 -1.15547e-14)
(8.1717 -42.6393 2.14818e-14)
(8.81325 -45.0625 -4.11803e-14)
(9.47816 -47.4878 9.37056e-15)
(10.0414 -50.0037 9.31942e-15)
(10.699 -52.3882 9.55335e-15)
(11.2948 -55.181 -8.67741e-15)
(11.4256 -56.9348 0)
(14.0855 -61.5519 1.65555e-14)
(7.26063 -59.8724 1.74916e-14)
(29.2748 -73.3339 1.41331e-14)
(-0.0132301 -19.9849 -9.25612e-15)
(1.3509 -22.8134 0)
(2.61195 -25.5336 1.63617e-14)
(3.85522 -27.8919 -1.4904e-14)
(4.95455 -29.8483 0)
(5.87736 -31.666 0)
(6.70566 -33.5823 -6.53804e-15)
(7.50168 -35.6457 -2.48947e-14)
(8.28451 -37.8408 1.18391e-14)
(9.05696 -40.1232 0)
(9.81028 -42.4474 0)
(10.5242 -44.8252 1.02737e-14)
(11.2636 -47.1919 -9.9031e-15)
(11.9095 -49.6906 -9.56572e-15)
(12.653 -51.9958 -1.90946e-14)
(13.3304 -54.8186 1.73348e-14)
(13.5558 -56.4594 5.51709e-16)
(16.3362 -61.0526 5.06521e-16)
(9.52959 -59.6318 -1.62703e-14)
(31.8929 -72.1395 -1.35329e-14)
(1.32581 -20.5608 -8.95291e-15)
(2.71136 -23.2471 -1.72256e-14)
(4.00068 -25.9209 -5.59514e-16)
(5.30149 -28.2054 2.23018e-14)
(6.41746 -30.0326 0)
(7.34399 -31.7263 1.37666e-14)
(8.18678 -33.5525 -1.33954e-14)
(9.01206 -35.542 1.18e-14)
(9.83626 -37.6765 1.1558e-14)
(10.6592 -39.9038 -1.15243e-14)
(11.4688 -42.1735 1.04407e-14)
(12.2494 -44.5085 0)
(13.0534 -46.8176 -2.03557e-14)
(13.782 -49.3019 3.82488e-14)
(14.5955 -51.5217 -3.65885e-14)
(15.3661 -54.3874 0)
(15.6666 -55.8961 1.66649e-18)
(18.5755 -60.4779 -1.61209e-14)
(11.7995 -59.2939 3.32833e-14)
(34.4507 -70.8645 -4.00005e-14)
(2.97309 -20.953 -3.16443e-16)
(4.30844 -23.4538 2.52316e-14)
(5.57776 -26.1166 -1.54893e-14)
(6.89768 -28.3602 -7.45645e-15)
(7.98887 -30.0768 1.43577e-14)
(8.88635 -31.657 -2.77116e-14)
(9.72012 -33.4013 1.27845e-14)
(10.5565 -35.3245 0)
(11.4105 -37.4057 3.16882e-16)
(12.2753 -39.5848 -1.09524e-14)
(13.1344 -41.806 -2.20084e-14)
(13.9774 -44.1036 2.00042e-14)
(14.8378 -46.3583 -2.03475e-14)
(15.653 -48.8315 1.91073e-14)
(16.5183 -50.9623 1.95977e-14)
(17.4021 -53.8789 -1.72885e-14)
(17.7481 -55.2553 5.29282e-14)
(20.7985 -59.8206 -1.56025e-14)
(14.0595 -58.8503 -3.2502e-14)
(36.9474 -69.5176 1.47353e-17)
(4.92046 -21.1055 -9.05867e-15)
(6.12929 -23.3555 3.42397e-14)
(7.32568 -26.0546 5.65004e-16)
(8.62623 -28.2992 -2.99658e-14)
(9.65436 -29.9331 -1.48994e-14)
(10.4898 -31.4206 2.72595e-14)
(11.2929 -33.1002 0)
(12.1225 -34.9725 1.27747e-14)
(12.995 -37.014 -2.34121e-14)
(13.8932 -39.1569 0)
(14.7947 -41.3382 -2.14834e-14)
(15.6976 -43.6052 2.05649e-14)
(16.6064 -45.81 0)
(17.5144 -48.2751 3.81829e-14)
(18.4141 -50.318 -1.85537e-14)
(19.4368 -53.2875 0)
(19.7926 -54.523 -5.29453e-14)
(23.0001 -59.081 4.86056e-14)
(16.3064 -58.297 3.33735e-14)
(39.3815 -68.1035 5.42993e-14)
(7.13006 -20.9547 1.82563e-14)
(8.10646 -22.8901 9.023e-15)
(9.18917 -25.6744 -1.57603e-14)
(10.4412 -27.9676 -1.54243e-14)
(11.3744 -29.5592 2.89804e-14)
(12.1182 -30.9897 -2.74202e-14)
(12.8759 -32.6359 1.32408e-14)
(13.686 -34.4828 -2.5681e-14)
(14.5697 -36.5016 3.50759e-14)
(15.4975 -38.6216 2.31299e-14)
(16.4387 -40.7731 -2.09943e-14)
(17.4016 -43.0159 5.54348e-16)
(18.3522 -45.1769 -1.92924e-14)
(19.3605 -47.6335 -5.77744e-14)
(20.2765 -49.5929 3.71247e-14)
(21.4673 -52.6089 1.01009e-15)
(21.794 -53.7063 3.54455e-14)
(25.1793 -58.2667 0)
(18.5344 -57.6335 -3.2577e-14)
(41.751 -66.6265 2.71852e-14)
(9.54972 -20.3856 0)
(10.1518 -21.9903 0)
(11.0947 -24.9229 -1.68179e-14)
(12.2697 -27.3229 -5.82161e-16)
(13.0827 -28.9231 4.41939e-14)
(13.7134 -30.3456 -1.3759e-14)
(14.4216 -31.997 1.39777e-14)
(15.2121 -33.8494 -2.46884e-14)
(16.1089 -35.8675 0)
(17.0663 -37.9793 2.26631e-14)
(18.0475 -40.111 2.15323e-14)
(19.0748 -42.3353 0)
(20.066 -44.4603 -2.03642e-14)
(21.1844 -46.9053 3.76378e-14)
(22.1001 -48.7893 3.76514e-14)
(23.4878 -51.8512 -1.61891e-14)
(23.7424 -52.8115 -6.89373e-14)
(27.3377 -57.3834 0)
(20.732 -56.8599 0)
(44.0499 -65.0932 -7.188e-18)
(12.0445 -19.1417 -2.05424e-14)
(12.1097 -20.5714 0)
(12.9264 -23.7665 2.66373e-16)
(14.0086 -26.3425 1.65485e-14)
(14.6976 -28.0114 -2.9778e-14)
(15.2135 -29.4892 0)
(15.882 -31.1913 1.35332e-14)
(16.6611 -33.081 0)
(17.5845 -35.1187 0)
(18.5832 -37.2364 -2.2717e-14)
(19.6098 -39.3589 0)
(20.7057 -41.5693 2.11556e-14)
(21.7373 -43.6662 -5.95632e-14)
(22.9781 -46.0923 3.81551e-14)
(23.8833 -47.9133 -1.80603e-14)
(25.4936 -51.0654 7.06625e-14)
(25.6252 -51.8109 0)
(29.4858 -56.44 -3.20349e-14)
(22.9068 -55.9687 0)
(46.2689 -63.5112 5.45493e-14)
(13.7337 -17.3311 0)
(13.3606 -18.9184 2.97017e-16)
(14.3225 -22.4087 5.38493e-16)
(15.4159 -25.1487 -4.74149e-14)
(16.0617 -26.9065 1.47469e-14)
(16.5227 -28.4798 -1.43638e-14)
(17.2044 -30.258 -1.35637e-14)
(18.0053 -32.2046 2.62444e-14)
(18.9737 -34.2731 -2.36382e-14)
(20.0279 -36.4061 -4.62524e-14)
(21.1114 -38.527 2.11429e-14)
(22.2859 -40.7252 2.06573e-14)
(23.3609 -42.8015 1.9868e-14)
(24.734 -45.1996 1.90671e-14)
(25.6079 -46.9883 0)
(27.4842 -50.0775 9.92143e-16)
(27.4292 -50.766 -6.9039e-14)
(31.6324 -55.4104 -8.27724e-16)
(25.024 -54.9418 3.19222e-14)
(48.4079 -61.8961 -5.4622e-14)
(14.6348 -14.7048 1.90599e-14)
(13.9634 -17.0381 1.86192e-14)
(15.3801 -20.9959 1.67597e-14)
(16.5164 -23.8416 -1.61975e-14)
(17.1658 -25.6836 1.43477e-14)
(17.6216 -27.3787 2.9113e-14)
(18.3616 -29.2449 -1.29553e-14)
(19.2219 -31.257 -5.18206e-14)
(20.2619 -33.359 -1.11168e-15)
(21.3887 -35.5082 -1.09964e-15)
(22.5411 -37.6285 2.11692e-14)
(23.8037 -39.8124 -4.13554e-14)
(24.9277 -41.8749 0)
(26.4364 -44.2344 2.00939e-14)
(27.2682 -46.0255 -7.43192e-14)
(29.4448 -49.0535 3.42145e-14)
(29.146 -49.678 3.50697e-14)
(33.7699 -54.3165 0)
(27.0585 -53.7809 -3.29079e-14)
(50.4674 -60.264 0)
(14.2415 -11.4747 4.53558e-16)
(13.9274 -15.2164 4.38707e-16)
(16.2193 -19.6442 1.68112e-14)
(17.3339 -22.4972 -4.75031e-14)
(18.0293 -24.402 4.42814e-14)
(18.5285 -26.2347 1.42781e-14)
(19.369 -28.1892 -1.35435e-14)
(20.3161 -30.2659 2.50493e-14)
(21.4504 -32.3981 2.36306e-14)
(22.6665 -34.5599 -6.76511e-18)
(23.8983 -36.677 0)
(25.2559 -38.8408 -5.24741e-16)
(26.4348 -40.8932 1.93732e-14)
(28.0816 -43.1964 3.91477e-14)
(28.8757 -45.012 2.05116e-15)
(31.3655 -47.9132 -6.933e-14)
(30.7689 -48.5827 3.61769e-14)
(35.9064 -53.1498 -6.25761e-14)
(28.9776 -52.5088 3.30644e-14)
(52.4489 -58.6267 0)
(12.2117 -8.34578 0)
(13.4579 -14.045 -1.94313e-14)
(16.8771 -18.5172 -1.68313e-14)
(17.7965 -21.2435 0)
(18.632 -23.1628 4.57268e-14)
(19.2364 -25.1178 -4.25283e-14)
(20.2241 -27.1349 -5.50015e-14)
(21.2859 -29.2618 -5.47151e-16)
(22.5359 -31.411 0)
(23.8574 -33.5766 2.58772e-18)
(25.1811 -35.685 2.16988e-14)
(26.6413 -37.8196 0)
(27.8823 -39.8619 4.08171e-14)
(29.6667 -42.089 -7.62263e-14)
(30.4333 -43.9568 3.61006e-14)
(33.2395 -46.6571 1.59429e-17)
(32.3025 -47.5115 -3.51007e-14)
(38.0673 -51.868 3.1699e-14)
(30.7542 -51.1827 -3.47782e-14)
(54.3627 -57.0022 5.33539e-14)
(9.30496 -6.39768 0)
(13.0878 -13.8915 0)
(17.2155 -17.6439 -3.44897e-14)
(17.9491 -20.1951 6.38595e-14)
(19.0204 -22.0531 -6.02876e-14)
(19.77 -24.0963 1.44756e-14)
(20.9411 -26.1319 5.47496e-14)
(22.1425 -28.2884 2.63803e-14)
(23.528 -30.4352 -2.37639e-14)
(24.9685 -32.5902 2.29253e-14)
(26.3959 -34.678 -4.39979e-14)
(27.9662 -36.7672 2.01791e-14)
(29.2772 -38.7962 4.08262e-14)
(31.1922 -40.9268 4.01216e-14)
(31.9451 -42.8694 -3.60639e-14)
(35.0366 -45.2954 3.41134e-14)
(33.7451 -46.4552 7.02696e-14)
(40.2532 -50.3995 -3.06542e-14)
(32.3387 -49.7947 0)
(56.2529 -55.4734 0)
(7.4739 -6.67648 0)
(13.0687 -14.619 2.00143e-14)
(17.4255 -16.902 -1.68162e-14)
(17.88 -19.4334 -3.3148e-14)
(19.2282 -21.1273 1.42927e-14)
(20.1168 -23.2435 2.88039e-14)
(21.5018 -25.253 -5.59251e-18)
(22.8694 -27.4148 0)
(24.4163 -29.5252 0)
(26.0025 -31.6491 4.66834e-14)
(27.5484 -33.6962 1.05278e-15)
(29.2385 -35.7173 -4.09187e-14)
(30.6323 -37.7261 0)
(32.6721 -39.7338 -7.61844e-14)
(33.4336 -41.7647 3.80546e-14)
(36.7563 -43.8307 -1.04334e-13)
(35.1139 -45.4823 3.49963e-14)
(42.3974 -48.5608 3.25488e-14)
(33.6321 -48.5148 -6.76464e-14)
(58.174 -54.2664 5.2886e-14)
(10.334 -7.73503 -8.09139e-16)
(12.8421 -15.2304 -1.91171e-14)
(17.3349 -16.1727 -1.7085e-14)
(17.1079 -18.9043 1.65251e-14)
(18.8889 -20.4326 3.19326e-14)
(19.9613 -22.635 -2.91105e-14)
(21.6316 -24.5654 -2.78935e-14)
(23.2262 -26.6787 2.67231e-14)
(25.0031 -28.7076 -2.39436e-14)
(26.766 -30.7284 -2.3493e-14)
(28.4752 -32.6993 4.30608e-14)
(30.3076 -34.6027 5.09225e-16)
(31.8152 -36.5729 -3.97659e-14)
(33.9739 -38.4028 3.62322e-14)
(34.8173 -40.5674 0)
(38.2719 -42.1207 3.44652e-14)
(36.5785 -44.5842 1.1262e-15)
(44.2626 -46.0603 -3.01344e-14)
(34.5536 -47.3753 0)
(60.0647 -53.5347 -5.20789e-14)
(14.4112 -6.53177 1.98339e-14)
(12.6442 -15.5758 4.97444e-18)
(16.7479 -16.5677 1.55269e-14)
(16.3503 -19.4496 -2.93517e-14)
(18.423 -20.9573 -4.34554e-16)
(19.6002 -23.0481 1.32157e-14)
(21.4847 -24.8856 3.82996e-16)
(23.2178 -26.8756 1.5201e-17)
(25.1365 -28.7968 -2.14617e-14)
(27.0329 -30.6851 -2.01839e-14)
(28.8744 -32.5461 5.83823e-16)
(30.8185 -34.305 -1.76458e-14)
(32.4516 -36.2147 0)
(34.6518 -37.8397 6.41542e-14)
(35.6404 -40.111 0)
(39.0454 -41.2097 -3.00127e-14)
(37.5438 -44.2244 2.92644e-14)
(45.3463 -44.6036 2.69733e-14)
(35.6077 -47.2106 -4.46313e-16)
(60.9091 -52.0101 3.19973e-16)
(14.579 -6.58339 0)
(12.4321 -15.2884 1.38188e-14)
(16.7085 -16.5077 0)
(16.2782 -19.3118 1.20831e-14)
(18.4353 -20.8774 0)
(19.6249 -22.9479 -2.14733e-14)
(21.5345 -24.7979 3.23245e-16)
(23.2781 -26.7837 -2.92523e-16)
(25.2127 -28.7089 1.80743e-14)
(27.1215 -30.5919 1.70265e-14)
(28.9792 -32.4493 -1.62848e-14)
(30.9295 -34.1933 2.99832e-14)
(32.5859 -36.0996 0)
(34.7793 -37.6884 -2.75371e-14)
(35.8218 -39.988 4.32385e-16)
(39.1648 -40.9941 2.3871e-17)
(37.7544 -44.1585 -3.82477e-16)
(45.4572 -44.2588 -2.35846e-14)
(35.9172 -47.2968 -2.23851e-14)
(61.0519 -51.6498 -1.81309e-14)
(14.5482 -6.87506 2.41068e-16)
(12.218 -15.0347 -2.09843e-16)
(16.6373 -16.511 0)
(16.2122 -19.2198 1.24567e-14)
(18.4405 -20.8409 1.09491e-14)
(19.6476 -22.8816 2.11056e-14)
(21.5838 -24.7404 6.32763e-16)
(23.3393 -26.7176 1.29786e-17)
(25.2911 -28.6421 -2.75977e-16)
(27.2128 -30.5153 -3.40782e-14)
(29.0889 -32.3664 8.65025e-18)
(31.0448 -34.0939 -3.01134e-14)
(32.7259 -35.9946 2.14702e-16)
(34.9104 -37.5468 -4.41271e-16)
(36.0136 -39.8708 -2.64164e-14)
(39.2797 -40.7904 2.59888e-14)
(38.0133 -44.081 4.05527e-16)
(45.5611 -43.9342 -3.51288e-16)
(36.2747 -47.368 2.26811e-14)
(61.1778 -51.2368 3.63751e-14)
(14.4448 -7.20928 0)
(12.0194 -14.8179 0)
(16.5535 -16.5306 1.25646e-14)
(16.1565 -19.1362 -1.20934e-14)
(18.4526 -20.8079 -1.09492e-14)
(19.6816 -22.8153 -3.37607e-16)
(21.642 -24.6808 -1.99002e-14)
(23.4092 -26.6494 -5.97255e-16)
(25.3772 -28.5735 2.75857e-16)
(27.311 -30.4377 1.70364e-14)
(29.2047 -32.2823 3.20673e-14)
(31.1656 -33.9944 7.09521e-18)
(32.8707 -35.8896 1.40845e-14)
(35.0446 -37.4078 0)
(36.2067 -39.752 2.63732e-14)
(39.3938 -40.591 3.93882e-16)
(38.2799 -43.9916 2.50537e-14)
(45.6584 -43.6201 2.33216e-14)
(36.6436 -47.4209 3.70813e-16)
(61.3156 -50.821 -1.82139e-14)
(14.3276 -7.52487 1.44232e-14)
(11.8439 -14.612 -1.06908e-17)
(16.4732 -16.5437 1.71434e-16)
(16.1214 -19.0454 -3.84046e-16)
(18.4805 -20.763 -1.09367e-14)
(19.7329 -22.7366 -1.07066e-14)
(21.7133 -24.6087 1.98819e-14)
(23.4907 -26.5702 2.91514e-16)
(25.4728 -28.4955 1.80106e-14)
(27.4172 -30.3526 0)
(29.3269 -32.1916 -1.59895e-14)
(31.2919 -33.8899 2.97805e-14)
(33.0201 -35.7798 -1.40812e-14)
(35.1812 -37.2674 0)
(36.4019 -39.6287 -4.3105e-16)
(39.5074 -40.3938 -2.56186e-14)
(38.553 -43.8946 -2.50206e-14)
(45.7483 -43.3129 -2.29977e-14)
(37.0169 -47.4638 -3.43038e-16)
(61.4604 -50.4055 2.85595e-16)
(14.2184 -7.80857 -2.91631e-14)
(11.6948 -14.4087 1.38766e-14)
(16.4037 -16.5451 -2.70039e-17)
(16.1099 -18.9443 1.84399e-16)
(18.5259 -20.704 2.25476e-14)
(19.802 -22.644 1.03347e-14)
(21.7985 -24.5232 -1.95152e-14)
(23.5845 -26.4795 -2.90764e-16)
(25.5784 -28.408 -1.79723e-14)
(27.532 -30.26 -2.70907e-16)
(29.4559 -32.0943 2.42912e-16)
(31.424 -33.7807 -1.48391e-14)
(33.1746 -35.6653 -1.38374e-14)
(35.3209 -37.1257 -2.08834e-16)
(36.5998 -39.5014 2.67251e-14)
(39.621 -40.1989 2.60273e-14)
(38.8321 -43.7905 2.53663e-14)
(45.8308 -43.012 -3.53401e-16)
(37.3949 -47.5001 -2.27673e-14)
(61.6097 -49.9878 2.71477e-16)
(14.1236 -8.05794 1.4278e-14)
(11.5727 -14.2056 -1.39719e-14)
(16.349 -16.5315 -2.50196e-14)
(16.1236 -18.831 0)
(18.59 -20.6293 -1.01219e-17)
(19.8899 -22.536 -3.47436e-16)
(21.8982 -24.4228 2.04201e-14)
(23.6909 -26.3759 3.02905e-16)
(25.6945 -28.31 -2.7363e-16)
(27.6555 -30.159 0)
(29.592 -31.9898 0)
(31.5621 -33.6661 1.47671e-14)
(33.3344 -35.5456 1.40617e-14)
(35.464 -36.982 2.74691e-14)
(36.8009 -39.3675 -5.38334e-14)
(39.7347 -40.0064 3.94174e-16)
(39.117 -43.6785 -2.49295e-14)
(45.9064 -42.7173 0)
(37.7772 -47.5314 2.63677e-17)
(61.7635 -49.5664 -1.83051e-14)
(14.0463 -8.27534 1.416e-14)
(11.479 -13.9992 1.44393e-14)
(16.3124 -16.5003 1.25016e-14)
(16.1638 -18.7036 1.20556e-14)
(18.674 -20.5371 -2.2841e-14)
(19.9973 -22.4109 -9.9647e-15)
(22.0134 -24.306 1.30774e-17)
(23.8108 -26.2581 -1.91881e-14)
(25.8214 -28.2003 0)
(27.7883 -30.0488 1.68035e-14)
(29.7356 -31.8774 -2.52642e-16)
(31.7065 -33.5455 -1.42395e-14)
(33.4997 -35.4199 -2.13955e-16)
(35.6108 -36.8358 -1.52214e-17)
(37.0054 -39.2271 2.66799e-14)
(39.8491 -39.8163 0)
(39.4075 -43.558 0)
(45.9753 -42.4284 -2.35411e-14)
(38.1638 -47.559 2.94313e-17)
(61.9221 -49.1402 -2.95378e-18)
(13.988 -8.46128 -2.86864e-14)
(11.4158 -13.7842 -1.43025e-14)
(16.2967 -16.4493 -1.24766e-14)
(16.2322 -18.5604 -1.2052e-14)
(18.7793 -20.4258 2.2447e-14)
(20.1254 -22.2674 0)
(22.145 -24.1713 0)
(23.9448 -26.1246 1.63132e-17)
(25.9596 -28.0776 0)
(27.9306 -29.9282 -1.67315e-14)
(29.8869 -31.7562 -1.54261e-14)
(31.8575 -33.4182 -1.48348e-14)
(33.6706 -35.2877 -1.42616e-14)
(35.7615 -36.6867 -5.46974e-14)
(37.2131 -39.0797 0)
(39.9644 -39.6286 0)
(39.7034 -43.4285 0)
(46.0378 -42.1453 2.35799e-14)
(38.5551 -47.5829 4.41037e-14)
(62.0861 -48.707 1.82608e-14)
(13.9486 -8.62412 1.42988e-14)
(11.3854 -13.5584 0)
(16.3045 -16.3767 1.24804e-14)
(16.3299 -18.3999 3.82621e-16)
(18.9071 -20.2941 -1.15524e-14)
(20.2752 -22.1039 0)
(22.2938 -24.0172 0)
(24.0933 -25.974 1.87444e-14)
(26.1093 -27.9406 2.82477e-16)
(28.0827 -29.7963 -5.19604e-16)
(30.0461 -31.6255 1.5815e-14)
(32.0153 -33.2834 1.45728e-14)
(33.847 -35.1483 1.40379e-14)
(35.9164 -36.5342 2.70108e-14)