/*--------------------------------*- C++ -*----------------------------------*\
  =========                 |
  \\      /  F ield         | OpenFOAM: The Open Source CFD Toolbox
   \\    /   O peration     | Website:  https://openfoam.org
    \\  /    A nd           | Version:  10
     \\/     M anipulation  |
\*---------------------------------------------------------------------------*/
FoamFile
{
    format      ascii;
    class       volVectorField;
    location    "500";
    object      Urel;
}
// * * * * * * * * * * * * * * * * * * * * * * * * * * * * * * * * * * * * * //

dimensions      [0 1 -1 0 0 0 0];

internalField   nonuniform List<vector> 
420
(
(1.16964 -0.203027 1.32289e-18)
(0.713045 0.697784 -2.32032e-17)
(0.71892 1.25289 -1.69772e-16)
(0.881078 1.37378 4.83143e-17)
(1.02942 1.26496 -3.75374e-16)
(1.17019 0.955852 0)
(1.27699 0.443677 0)
(1.33007 -0.272552 4.45897e-16)
(1.42057 -1.16405 -6.90203e-16)
(1.6047 -2.20372 0)
(1.084 0.0814858 1.06893e-17)
(0.413557 0.648651 -4.86492e-17)
(0.583257 1.08985 4.89163e-16)
(0.78444 1.1954 -8.27266e-16)
(0.934533 1.10052 2.51162e-16)
(1.06134 0.846444 6.0364e-18)
(1.18979 0.397516 2.36225e-15)
(1.32793 -0.277982 -6.00579e-16)
(1.45067 -1.22533 1.57405e-15)
(1.68213 -2.28811 0)
(1.03672 -0.0509964 -9.19364e-17)
(0.263814 0.521009 -2.31499e-16)
(0.517627 0.95582 5.44293e-16)
(0.722665 1.06962 9.97954e-16)
(0.871122 1.01584 -6.59385e-16)
(0.956012 0.821662 3.24921e-15)
(1.06312 0.443038 1.46053e-15)
(1.20624 -0.21444 4.3697e-15)
(1.28081 -1.25597 -2.27772e-15)
(1.57458 -2.34926 -5.12868e-15)
(1.01449 -0.157986 9.49785e-17)
(0.120191 0.342049 2.44639e-16)
(0.37983 0.766946 -6.75962e-16)
(0.559267 0.904283 7.03639e-16)
(0.679474 0.906236 -1.36998e-15)
(0.752582 0.789932 1.59745e-15)
(0.868094 0.48677 -8.39918e-15)
(1.0647 -0.135796 0)
(1.07691 -1.25987 -5.49192e-15)
(1.44634 -2.43191 4.71253e-15)
(1.00463 -0.202669 0)
(-0.000120645 0.167357 2.71732e-16)
(0.236795 0.559728 -2.55775e-16)
(0.390656 0.718352 0)
(0.498988 0.775482 -3.13444e-16)
(0.575544 0.738767 -2.95033e-16)
(0.706204 0.516546 2.90661e-15)
(0.957665 -0.0469083 -3.91393e-15)
(0.980793 -1.17751 0)
(1.34923 -2.45536 -1.83882e-14)
(0.987572 -0.193277 -2.38749e-17)
(-0.120302 0.013338 0)
(0.0938852 0.344766 0)
(0.231116 0.507808 1.30597e-15)
(0.341158 0.6109 -2.11747e-15)
(0.435243 0.651104 2.35428e-15)
(0.586741 0.519909 7.05825e-16)
(0.847607 0.038829 8.77176e-15)
(0.918546 -1.02021 -1.45225e-14)
(1.25717 -2.36067 8.63797e-15)
(0.939135 -0.131965 0)
(-0.249609 -0.113707 -3.23019e-16)
(-0.0538815 0.128833 -2.06455e-15)
(0.0724258 0.271436 -8.24329e-16)
(0.18952 0.3963 -3.82093e-15)
(0.309392 0.494801 2.40316e-15)
(0.487797 0.468768 -5.87329e-15)
(0.757756 0.103463 7.65458e-16)
(0.87087 -0.760251 -4.08576e-15)
(1.1609 -2.07538 -1.26418e-14)
(0.832975 -0.0264081 3.79335e-17)
(-0.390136 -0.206033 3.41212e-16)
(-0.212992 -0.0637373 2.79485e-15)
(-0.109296 0.0305766 6.18136e-16)
(-0.0024695 0.135427 2.35635e-15)
(0.127409 0.240772 0)
(0.317328 0.282067 6.12053e-15)
(0.564442 0.0647162 7.43339e-15)
(0.685648 -0.564903 9.93544e-15)
(0.899 -1.75432 8.89901e-15)
(0.635932 0.107074 3.72995e-17)
(-0.505993 -0.244729 3.52234e-16)
(-0.361171 -0.190498 -3.75768e-16)
(-0.329833 -0.161812 -2.00395e-15)
(-0.304823 -0.119353 6.45581e-15)
(-0.252542 -0.0587288 8.89192e-15)
(-0.145746 0.000165493 -3.01697e-15)
(-0.0163179 -0.0508046 0)
(0.0355686 -0.455822 0)
(0.225875 -1.49241 -9.34429e-15)
(0.331395 0.167382 -1.39882e-16)
(-0.276886 -0.108138 6.07039e-16)
(-0.0694996 -0.0566516 0)
(0.0199248 -0.0206864 0)
(0.0997061 -0.022539 -3.26448e-15)
(0.19526 -0.0665394 -2.40174e-17)
(0.298622 -0.156004 5.69343e-15)
(0.384974 -0.292755 -1.22743e-14)
(0.384493 -0.523857 1.47366e-14)
(0.343852 -1.26645 1.22496e-15)
(1.71159 -3.70813 0)
(1.91968 -5.67604 0)
(2.2846 -7.95674 0)
(2.76624 -10.3962 -1.01798e-15)
(3.25568 -12.9516 0)
(3.71546 -15.8631 0)
(4.84161 -19.3166 1.01962e-15)
(7.93791 -22.1013 0)
(-4.40133 -27.5757 0)
(9.45888 -51.7696 0)
(1.8214 -3.84766 2.08892e-15)
(2.11137 -5.87872 3.33133e-15)
(2.5972 -8.22332 1.33638e-16)
(3.19131 -10.6955 1.03577e-15)
(3.75116 -13.2721 3.69447e-17)
(4.2424 -16.216 1.27141e-15)
(5.18569 -19.563 1.38648e-16)
(9.09563 -21.5589 -2.47875e-16)
(-2.12119 -24.8653 -1.56478e-15)
(13.8595 -50.8091 -3.51965e-16)
(1.82439 -3.94333 1.80215e-15)
(2.25801 -6.01862 0)
(2.89655 -8.4016 -2.43632e-15)
(3.61794 -10.8766 -1.99974e-15)
(4.27898 -13.4457 5.99989e-15)
(4.85721 -16.3966 -1.1859e-15)
(5.76023 -19.8124 2.10927e-15)
(10.0541 -21.5828 0)
(0.241229 -23.0296 2.32919e-15)
(16.5226 -48.8246 -7.90361e-17)
(1.81932 -4.04293 3.85457e-15)
(2.3946 -6.14384 9.0407e-15)
(3.18464 -8.53278 -9.13935e-15)
(4.02963 -10.9731 3.56353e-15)
(4.80978 -13.4998 8.65054e-17)
(5.53015 -16.4267 0)
(6.49718 -19.9456 -2.03015e-15)
(10.8956 -21.6823 -4.20958e-15)
(2.51362 -21.9876 -2.46927e-15)
(18.8176 -46.3235 1.97025e-15)
(1.81314 -4.09455 3.32631e-15)
(2.52436 -6.22422 -2.83348e-15)
(3.47196 -8.58756 9.09786e-15)
(4.44302 -10.962 -3.60367e-15)
(5.35262 -13.4266 3.09719e-15)
(6.23599 -16.3075 -4.82532e-15)
(7.4023 -19.8857 4.59649e-15)
(11.3704 -21.6744 4.48948e-15)
(4.39023 -21.9365 0)
(21.0424 -43.5188 -4.12286e-15)
(1.79924 -4.06094 3.93046e-15)
(2.68878 -6.23735 -1.66646e-14)
(3.80697 -8.54565 -4.70126e-15)
(4.89596 -10.8397 1.09833e-14)
(5.94319 -13.2333 9.4653e-15)
(6.99747 -16.0477 3.89058e-16)
(8.44961 -19.5877 2.23901e-16)
(12.0478 -21.3604 -4.04965e-15)
(6.06986 -22.6463 -2.70055e-15)
(23.5978 -40.5638 5.20648e-15)
(1.78342 -3.92287 3.88867e-15)
(2.92032 -6.18756 5.64332e-15)
(4.1888 -8.40686 0)
(5.35672 -10.615 -3.56146e-15)
(6.5305 -12.944 -5.76529e-15)
(7.7469 -15.6878 4.05564e-16)
(9.48894 -19.1348 -1.2819e-14)
(12.9278 -20.7809 -4.20886e-15)
(7.25095 -23.3648 6.2028e-15)
(26.3689 -37.9857 -2.78224e-15)
(1.66403 -3.79285 1.42183e-14)
(3.11709 -6.12986 -5.07988e-15)
(4.53842 -8.19551 0)
(5.76783 -10.3025 -2.9888e-16)
(7.07501 -12.5645 2.39102e-14)
(8.4746 -15.2354 -9.88223e-15)
(10.5244 -18.5739 -9.14399e-15)
(13.9017 -20.0421 7.80921e-15)
(8.83873 -23.7138 -6.07528e-15)
(29.3099 -35.7471 0)
(1.57197 -3.97696 3.56156e-16)
(3.31001 -6.09103 -4.97051e-15)
(4.78784 -7.90707 0)
(6.06788 -9.91333 7.25284e-15)
(7.50062 -12.1169 -1.76869e-14)
(9.07612 -14.7137 1.00437e-14)
(11.39 -17.9485 4.31407e-15)
(14.6698 -19.2999 0)
(10.7534 -23.5576 3.49847e-16)
(32.2954 -33.3371 3.08116e-15)
(2.32793 -3.82781 4.75003e-16)
(3.63322 -5.7437 -9.30576e-17)
(4.99249 -7.33071 0)
(6.33806 -9.29464 -1.47199e-14)
(7.92119 -11.4511 5.68886e-15)
(9.68796 -13.9553 -5.50183e-15)
(12.227 -17.1078 4.77169e-15)
(15.892 -18.5311 -8.93296e-17)
(12.7288 -23.2037 -2.25766e-16)
(35.2455 -30.6017 -3.07657e-15)
(3.6973 -2.68948 2.85688e-15)
(4.21979 -5.09848 -5.39588e-15)
(5.51501 -6.70567 0)
(7.02378 -8.59468 0)
(8.7742 -10.6852 0)
(10.7089 -13.1395 -2.55153e-15)
(13.4519 -16.2306 1.03571e-14)
(16.9189 -17.9441 0)
(14.7362 -23.9763 0)
(37.5471 -27.8289 0)
(3.52105 -2.63918 -2.74437e-15)
(4.25946 -4.71275 -5.04768e-15)
(5.61279 -6.29832 0)
(7.23949 -8.11755 3.61615e-15)
(9.10964 -10.1273 -2.79988e-15)
(11.1537 -12.5211 2.40082e-15)
(14.0081 -15.5541 3.55133e-15)
(17.4704 -17.1282 1.41733e-16)
(16.3635 -23.9267 1.19904e-15)
(39.0132 -26.4151 0)
(2.53475 -2.83541 1.49153e-16)
(4.00399 -4.45338 1.41417e-16)
(5.48227 -6.00416 0)
(7.21967 -7.72784 2.89883e-16)
(9.23212 -9.57507 5.56924e-15)
(11.4387 -11.7599 -4.14759e-15)
(14.463 -14.5803 -1.05912e-14)
(18.0227 -16.1365 -4.97644e-15)
(18.1133 -22.492 7.10141e-15)
(40.5951 -24.427 2.58966e-15)
(2.18018 -3.11333 -1.24429e-14)
(3.8555 -4.30947 4.87099e-15)
(5.50968 -5.75161 0)
(7.41716 -7.34232 -6.51572e-15)
(9.58821 -9.06675 -5.43694e-15)
(12.0115 -11.0879 8.35182e-15)
(15.2691 -13.7223 2.9698e-15)
(18.958 -15.693 0)
(20.9322 -21.4826 -4.06315e-15)
(42.9026 -21.4658 -3.5479e-16)
(2.32164 -2.92454 -2.72493e-16)
(3.95388 -3.94311 4.5386e-15)
(5.69234 -5.18177 0)
(7.71071 -6.58635 1.25422e-14)
(9.99307 -8.13447 1.2216e-16)
(12.5785 -9.97711 -1.18409e-16)
(15.9895 -12.3908 4.76964e-15)
(19.8616 -14.7894 -4.29218e-15)
(23.5628 -20.5504 -2.34791e-15)
(44.9565 -17.7955 0)
(2.53452 -2.5925 -2.68711e-15)
(4.11385 -3.45396 8.96621e-15)
(5.91379 -4.52159 7.54409e-15)
(8.01429 -5.74221 -8.68721e-15)
(10.3715 -7.1078 -1.3992e-14)
(13.067 -8.74879 2.33851e-16)
(16.5289 -10.9429 -2.29869e-15)
(20.6373 -13.6639 -1.37148e-15)
(26.2556 -19.3275 -2.1352e-15)
(46.6906 -14.4116 -2.5308e-15)
(2.74463 -2.09305 -8.06072e-15)
(4.30514 -2.83566 4.36914e-15)
(6.14992 -3.74355 -3.4327e-15)
(8.30109 -4.77878 -8.61462e-15)
(10.7003 -5.95283 6.87212e-15)
(13.4587 -7.35141 3.18305e-16)
(16.8966 -9.28381 4.71177e-15)
(21.2674 -12.2793 1.10161e-15)
(29.0593 -17.7282 9.40128e-16)
(48.1108 -11.1606 7.111e-16)
(2.93162 -1.45805 2.39374e-15)
(4.49536 -2.08942 -2.2862e-15)
(6.37184 -2.84366 -8.92984e-17)
(8.54849 -3.69162 8.63329e-15)
(10.9725 -4.66463 -1.10834e-14)
(13.7638 -5.78544 3.37273e-15)
(17.1302 -7.37696 -1.61452e-15)
(21.7749 -10.5169 3.19721e-15)
(31.7879 -15.6867 0)
(49.3365 -8.12216 6.23755e-17)
(3.05687 -0.766466 2.84621e-15)
(4.62355 -1.28068 2.35687e-15)
(6.52417 -1.87258 3.90175e-15)
(8.71445 -2.51499 -5.93092e-15)
(11.1524 -3.25696 2.22817e-15)
(13.9573 -4.08229 0)
(17.2345 -5.24024 -1.05029e-15)
(22.1545 -8.3121 -1.0578e-15)
(33.7101 -13.3185 5.15914e-16)
(50.4914 -4.49622 1.55795e-15)
(3.16817 -0.109643 1.39983e-15)
(4.76672 -0.476903 0)
(6.73055 -0.878147 2.08947e-15)
(8.96691 -1.28839 1.63048e-15)
(11.4338 -1.76578 -3.25338e-17)
(14.2624 -2.276 -9.01072e-16)
(17.5208 -2.99493 1.05483e-15)
(22.4402 -5.61961 0)
(34.6796 -10.815 -3.16617e-16)
(51.2502 0.388583 1.41269e-15)
(3.1532 0.359536 1.76703e-15)
(4.7669 0.231522 -2.98159e-15)
(6.73646 0.155875 -1.27146e-16)
(8.94132 0.12905 8.3053e-16)
(11.3439 0.0693222 9.46459e-18)
(14.1111 -0.0235823 1.01238e-15)
(17.3139 -0.0824492 -9.46323e-16)
(22.8229 -1.7504 6.72889e-16)
(36.122 -7.48686 6.93551e-17)
(52.3024 5.21222 -7.13118e-16)
(3.42178 1.25048 3.0491e-29)
(5.30951 1.4228 0)
(7.53569 1.73991 0)
(9.92929 2.18548 -1.04375e-15)
(12.4289 2.6486 0)
(15.2443 3.14896 0)
(18.5143 4.17139 7.84746e-16)
(22.4777 5.50371 0)
(30.8612 -5.36649 0)
(51.4984 3.72122 -2.55432e-30)
(0.545121 -1.57081 8.41157e-16)
(0.677956 -2.01836 -7.19238e-15)
(1.09452 -2.30453 6.5741e-15)
(1.39984 -2.0638 -8.66318e-15)
(1.64115 -1.61832 5.71342e-15)
(1.80369 -1.03294 -1.21717e-14)
(1.89951 -0.397729 3.1772e-15)
(1.95611 0.201903 -3.78619e-15)
(1.90983 0.573544 0)
(2.02448 1.22109 -5.71374e-16)
(-0.89029 -1.23393 1.46937e-14)
(-0.68217 -1.61354 0)
(-0.0883772 -1.96063 6.8907e-15)
(0.320859 -1.66711 -2.62127e-15)
(0.63166 -1.22016 -8.83287e-15)
(0.808709 -0.661443 0)
(0.906664 -0.0740561 -3.63974e-15)
(0.959694 0.464731 -1.81382e-15)
(0.961133 0.771838 1.36198e-15)
(1.01084 1.18097 -5.86432e-16)
(-1.47842 -1.06434 -1.21108e-14)
(-1.63098 -1.57638 0)
(-1.14004 -1.75351 6.37243e-15)
(-0.704611 -1.37367 5.17334e-16)
(-0.357903 -0.891676 7.60154e-15)
(-0.157514 -0.360769 -3.65633e-15)
(-0.0153717 0.152655 0)
(0.0909403 0.571885 5.14284e-15)
(0.132807 0.851696 -8.12275e-16)
(0.162082 1.18146 5.90287e-16)
(-1.36184 -0.872132 5.53368e-15)
(-2.01158 -1.44608 -2.06752e-15)
(-1.82721 -1.48019 4.84715e-15)
(-1.49295 -1.05076 -5.04475e-15)
(-1.13647 -0.486502 5.97514e-16)
(-0.88543 0.0490753 3.02614e-15)
(-0.748675 0.459568 -9.41788e-15)
(-0.667807 0.816222 1.6981e-15)
(-0.665249 1.11425 2.69898e-15)
(-0.582169 1.27043 8.18057e-17)
(-0.993252 -0.642682 -8.15736e-15)
(-1.88571 -1.23248 5.69265e-15)
(-2.10647 -1.17401 0)
(-2.03718 -0.789686 1.83929e-15)
(-1.84874 -0.296898 1.93084e-15)
(-1.62585 0.19615 -3.17386e-16)
(-1.45791 0.599866 1.51106e-15)
(-1.32772 0.909006 3.45293e-15)
(-1.2482 1.13684 8.58122e-18)
(-1.12176 1.21673 3.04882e-16)
(-0.653381 -0.420871 -3.22161e-15)
(-1.51614 -0.953969 3.64213e-15)
(-1.92351 -0.854511 1.61648e-15)
(-2.05929 -0.544218 -2.48388e-15)
(-2.06394 -0.14785 -1.5823e-15)
(-1.96174 0.249923 -2.59146e-16)
(-1.84064 0.579517 -2.64889e-15)
(-1.71547 0.818655 9.09395e-16)
(-1.59816 0.994357 2.51941e-16)
(-1.4423 1.05323 -3.00239e-16)
(-0.381738 -0.215206 0)
(-1.05287 -0.645159 -1.15527e-15)
(-1.50036 -0.518658 5.63005e-16)
(-1.75987 -0.282163 -5.47848e-16)
(-1.89769 0.00490588 7.85727e-16)
(-1.9145 0.291905 0)
(-1.86451 0.545108 5.79835e-16)
(-1.78443 0.730022 9.32034e-16)
(-1.6802 0.86045 -8.03769e-16)
(-1.53541 0.903553 -3.11703e-17)
(-0.17174 -0.0392832 0)
(-0.631922 -0.334498 -1.06207e-17)
(-1.0252 -0.180804 1.20434e-15)
(-1.31043 -0.0172804 -8.44959e-16)
(-1.5117 0.157534 0)
(-1.60885 0.332095 -5.33321e-17)
(-1.62663 0.491315 -4.1518e-16)
(-1.58895 0.615067 3.58494e-16)
(-1.51191 0.704287 4.01163e-16)
(-1.3839 0.736161 -1.76243e-16)
(-0.000630298 0.0460781 -6.90397e-16)
(-0.270304 -0.12305 1.07123e-17)
(-0.560975 0.00632243 2.05014e-17)
(-0.807598 0.072291 -3.03107e-17)
(-0.98591 0.13604 0)
(-1.07492 0.209539 5.69996e-17)
(-1.08615 0.289583 -5.90405e-17)
(-1.03544 0.373865 1.2533e-16)
(-0.929575 0.453753 -1.01928e-17)
(-0.791668 0.533932 -3.24094e-18)
(0.484503 0.433975 -9.61839e-17)
(0.685675 0.704809 -8.48868e-17)
(0.601558 0.775216 -9.73328e-17)
(0.496011 0.766284 0)
(0.387785 0.773608 5.45487e-17)
(0.300065 0.805515 0)
(0.252133 0.852135 2.55051e-16)
(0.257173 0.903222 -1.95592e-16)
(0.338581 0.944725 6.47079e-18)
(0.478474 1.01736 1.76132e-18)
)
;

boundaryField
{
    right
    {
        type            cyclic;
    }
    left
    {
        type            cyclic;
    }
    outerWall
    {
        type            noSlip;
    }
    stirrerWall
    {
        type            noSlip;
    }
    top
    {
        type            empty;
    }
    bottom
    {
        type            empty;
    }
}


// ************************************************************************* //
