/*--------------------------------*- C++ -*----------------------------------*\
  =========                 |
  \\      /  F ield         | OpenFOAM: The Open Source CFD Toolbox
   \\    /   O peration     | Website:  https://openfoam.org
    \\  /    A nd           | Version:  10
     \\/     M anipulation  |
\*---------------------------------------------------------------------------*/
FoamFile
{
    format      ascii;
    class       surfaceScalarField;
    location    "13000";
    object      phi;
}
// * * * * * * * * * * * * * * * * * * * * * * * * * * * * * * * * * * * * * //

dimensions      [0 3 -1 0 0 0 0];

internalField   nonuniform List<scalar> 
35320
(
2.37794e-08
1.34166e-05
-1.34404e-05
3.76243e-08
1.19529e-05
-1.19668e-05
4.47622e-08
1.14121e-05
-1.14192e-05
4.84346e-08
1.10953e-05
-1.1099e-05
5.00767e-08
1.08884e-05
-1.08901e-05
5.04932e-08
1.0749e-05
-1.07495e-05
5.01651e-08
1.06548e-05
-1.06545e-05
4.93844e-08
1.05927e-05
-1.05919e-05
4.83395e-08
1.05546e-05
-1.05535e-05
4.7128e-08
1.05351e-05
-1.05339e-05
4.58309e-08
1.05304e-05
-1.05292e-05
4.44791e-08
1.0538e-05
-1.05366e-05
4.31098e-08
1.05556e-05
-1.05543e-05
4.17372e-08
1.05819e-05
-1.05806e-05
4.03698e-08
1.06157e-05
-1.06143e-05
3.9016e-08
1.06559e-05
-1.06546e-05
3.76799e-08
1.07019e-05
-1.07006e-05
3.63679e-08
1.0753e-05
-1.07517e-05
3.50792e-08
1.08088e-05
-1.08075e-05
3.38074e-08
1.08687e-05
-1.08674e-05
3.25594e-08
1.09324e-05
-1.09312e-05
3.13414e-08
1.09997e-05
-1.09985e-05
3.01402e-08
1.10703e-05
-1.10691e-05
2.89685e-08
1.11439e-05
-1.11427e-05
2.78147e-08
1.12203e-05
-1.12191e-05
2.66872e-08
1.12994e-05
-1.12982e-05
2.5583e-08
1.1381e-05
-1.13799e-05
2.44999e-08
1.1465e-05
-1.14639e-05
2.34431e-08
1.15513e-05
-1.15502e-05
2.24043e-08
1.16397e-05
-1.16387e-05
2.13888e-08
1.17302e-05
-1.17292e-05
2.03962e-08
1.18227e-05
-1.18217e-05
1.94276e-08
1.1917e-05
-1.1916e-05
1.84809e-08
1.20132e-05
-1.20123e-05
1.75532e-08
1.21111e-05
-1.21102e-05
1.66481e-08
1.22108e-05
-1.22099e-05
1.57651e-08
1.2312e-05
-1.23112e-05
1.49033e-08
1.24149e-05
-1.2414e-05
1.40607e-08
1.25193e-05
-1.25184e-05
1.32403e-08
1.26251e-05
-1.26243e-05
1.24396e-08
1.27324e-05
-1.27316e-05
1.1662e-08
1.28411e-05
-1.28404e-05
1.09031e-08
1.29512e-05
-1.29504e-05
1.01642e-08
1.30625e-05
-1.30618e-05
9.44833e-09
1.31752e-05
-1.31745e-05
8.74964e-09
1.3289e-05
-1.32883e-05
8.07137e-09
1.34041e-05
-1.34034e-05
7.41426e-09
1.35203e-05
-1.35197e-05
6.77643e-09
1.36377e-05
-1.36371e-05
6.15882e-09
1.37561e-05
-1.37555e-05
5.56104e-09
1.38756e-05
-1.3875e-05
4.98086e-09
1.39961e-05
-1.39956e-05
4.42277e-09
1.41176e-05
-1.41171e-05
3.88287e-09
1.42401e-05
-1.42395e-05
3.36238e-09
1.43634e-05
-1.43629e-05
2.86234e-09
1.44876e-05
-1.44871e-05
2.38066e-09
1.46126e-05
-1.46122e-05
1.91853e-09
1.47385e-05
-1.4738e-05
1.47689e-09
1.48651e-05
-1.48646e-05
1.05239e-09
1.49924e-05
-1.49919e-05
6.4747e-10
1.51203e-05
-1.51199e-05
2.61767e-10
1.52489e-05
-1.52485e-05
-1.03628e-10
1.53781e-05
-1.53777e-05
-4.52119e-10
1.55078e-05
-1.55075e-05
-7.75309e-10
1.5638e-05
-1.56377e-05
-1.08377e-09
1.57687e-05
-1.57684e-05
-1.37052e-09
1.58997e-05
-1.58994e-05
-1.63743e-09
1.60311e-05
-1.60308e-05
-1.88614e-09
1.61628e-05
-1.61625e-05
-2.11155e-09
1.62947e-05
-1.62945e-05
-2.31779e-09
1.64268e-05
-1.64266e-05
-2.50255e-09
1.6559e-05
-1.65588e-05
-2.66727e-09
1.66913e-05
-1.66911e-05
-2.8095e-09
1.68235e-05
-1.68234e-05
-2.92805e-09
1.69557e-05
-1.69556e-05
-3.02701e-09
1.70877e-05
-1.70876e-05
-3.10244e-09
1.72196e-05
-1.72195e-05
-3.15308e-09
1.73511e-05
-1.7351e-05
-3.18162e-09
1.74823e-05
-1.74822e-05
-3.18524e-09
1.7613e-05
-1.7613e-05
-3.16145e-09
1.77432e-05
-1.77432e-05
-3.11277e-09
1.78728e-05
-1.78728e-05
-3.04004e-09
1.80017e-05
-1.80017e-05
-2.93831e-09
1.81298e-05
-1.81299e-05
-2.80836e-09
1.8257e-05
-1.82571e-05
-2.64881e-09
1.83832e-05
-1.83833e-05
-2.45938e-09
1.85082e-05
-1.85084e-05
-2.2407e-09
1.86321e-05
-1.86324e-05
-1.98776e-09
1.87547e-05
-1.87549e-05
-1.70447e-09
1.88758e-05
-1.88761e-05
-1.38359e-09
1.89954e-05
-1.89957e-05
1.91133e-05
-1.91136e-05
2.20094e-09
1.34144e-05
5.65228e-09
1.19495e-05
1.05664e-08
1.14072e-05
1.57018e-08
1.10902e-05
2.01551e-08
1.0884e-05
2.38094e-08
1.07454e-05
2.67055e-08
1.06519e-05
2.89148e-08
1.05905e-05
3.05297e-08
1.0553e-05
3.16574e-08
1.0534e-05
3.23669e-08
1.05297e-05
3.27508e-08
1.05376e-05
3.28644e-08
1.05555e-05
3.27602e-08
1.05821e-05
3.24833e-08
1.0616e-05
3.20684e-08
1.06564e-05
3.15434e-08
1.07025e-05
3.0929e-08
1.07537e-05
3.02451e-08
1.08095e-05
2.95134e-08
1.08694e-05
2.87367e-08
1.09332e-05
2.79289e-08
1.10005e-05
2.70974e-08
1.10711e-05
2.62464e-08
1.11447e-05
2.53874e-08
1.12211e-05
2.45177e-08
1.13002e-05
2.36473e-08
1.13819e-05
2.27764e-08
1.14659e-05
2.19036e-08
1.15521e-05
2.10362e-08
1.16406e-05
2.0176e-08
1.1731e-05
1.9326e-08
1.18235e-05
1.84792e-08
1.19179e-05
1.76462e-08
1.2014e-05
1.68237e-08
1.2112e-05
1.6012e-08
1.22116e-05
1.52116e-08
1.23128e-05
1.44283e-08
1.24157e-05
1.36548e-08
1.252e-05
1.28967e-08
1.26259e-05
1.21559e-08
1.27332e-05
1.14268e-08
1.28419e-05
1.07147e-08
1.29519e-05
1.00196e-08
1.30632e-05
9.33776e-09
1.31759e-05
8.67421e-09
1.32897e-05
8.02687e-09
1.34048e-05
7.39562e-09
1.3521e-05
6.78179e-09
1.36383e-05
6.18174e-09
1.37567e-05
5.60359e-09
1.38762e-05
5.04192e-09
1.39967e-05
4.49626e-09
1.41182e-05
3.96987e-09
1.42406e-05
3.45889e-09
1.43639e-05
2.96622e-09
1.44881e-05
2.49303e-09
1.46131e-05
2.03587e-09
1.47389e-05
1.59741e-09
1.48655e-05
1.17736e-09
1.49928e-05
7.76878e-10
1.51207e-05
3.95384e-10
1.52493e-05
3.1206e-11
1.53785e-05
-3.11647e-10
1.55082e-05
-6.39287e-10
1.56384e-05
-9.44791e-10
1.5769e-05
-1.23154e-09
1.59e-05
-1.49954e-09
1.60314e-05
-1.74515e-09
1.6163e-05
-1.97395e-09
1.62949e-05
-2.1795e-09
1.6427e-05
-2.3645e-09
1.65592e-05
-2.52816e-09
1.66914e-05
-2.67032e-09
1.68237e-05
-2.79116e-09
1.69558e-05
-2.8869e-09
1.70878e-05
-2.96155e-09
1.72196e-05
-3.01375e-09
1.73512e-05
-3.03847e-09
1.74823e-05
-3.04069e-09
1.7613e-05
-3.01785e-09
1.77432e-05
-2.96603e-09
1.78727e-05
-2.88882e-09
1.80016e-05
-2.78235e-09
1.81297e-05
-2.64886e-09
1.82568e-05
-2.48559e-09
1.8383e-05
-2.29099e-09
1.85081e-05
-2.06474e-09
1.86319e-05
-1.80759e-09
1.87544e-05
-1.51444e-09
1.88755e-05
-1.18722e-09
1.8995e-05
1.91129e-05
3.04341e-09
1.34113e-05
5.79392e-09
1.19467e-05
8.50034e-09
1.14045e-05
1.11058e-08
1.10876e-05
1.35178e-08
1.08816e-05
1.57567e-08
1.07432e-05
1.77938e-08
1.06499e-05
1.9602e-08
1.05887e-05
2.11649e-08
1.05514e-05
2.24744e-08
1.05327e-05
2.35473e-08
1.05287e-05
2.4387e-08
1.05367e-05
2.50161e-08
1.05549e-05
2.54568e-08
1.05816e-05
2.57261e-08
1.06157e-05
2.58461e-08
1.06562e-05
2.58348e-08
1.07025e-05
2.57068e-08
1.07538e-05
2.54839e-08
1.08097e-05
2.51683e-08
1.08697e-05
2.47852e-08
1.09336e-05
2.43342e-08
1.1001e-05
2.38373e-08
1.10716e-05
2.32918e-08
1.11452e-05
2.27086e-08
1.12217e-05
2.20959e-08
1.13009e-05
2.14588e-08
1.13825e-05
2.07997e-08
1.14665e-05
2.01242e-08
1.15528e-05
1.94379e-08
1.16412e-05
1.87412e-08
1.17317e-05
1.8037e-08
1.18242e-05
1.7329e-08
1.19186e-05
1.66212e-08
1.20147e-05
1.5911e-08
1.21127e-05
1.52036e-08
1.22123e-05
1.45021e-08
1.23135e-05
1.37999e-08
1.24164e-05
1.31089e-08
1.25207e-05
1.24261e-08
1.26266e-05
1.17464e-08
1.27339e-05
1.10795e-08
1.28425e-05
1.04222e-08
1.29526e-05
9.77436e-09
1.30639e-05
9.1384e-09
1.31765e-05
8.51587e-09
1.32903e-05
7.90518e-09
1.34054e-05
7.30814e-09
1.35216e-05
6.72135e-09
1.36389e-05
6.15309e-09
1.37573e-05
5.59656e-09
1.38768e-05
5.05483e-09
1.39972e-05
4.5281e-09
1.41187e-05
4.01729e-09
1.42411e-05
3.52422e-09
1.43644e-05
3.04369e-09
1.44886e-05
2.58173e-09
1.46136e-05
2.135e-09
1.47394e-05
1.70483e-09
1.48659e-05
1.29394e-09
1.49932e-05
8.98927e-10
1.51211e-05
5.22661e-10
1.52497e-05
1.61843e-10
1.53788e-05
-1.79428e-10
1.55085e-05
-4.99939e-10
1.56387e-05
-8.04424e-10
1.57693e-05
-1.09022e-09
1.59003e-05
-1.35335e-09
1.60316e-05
-1.59961e-09
1.61633e-05
-1.82381e-09
1.62952e-05
-2.03023e-09
1.64272e-05
-2.21359e-09
1.65594e-05
-2.37805e-09
1.66916e-05
-2.51864e-09
1.68238e-05
-2.63797e-09
1.69559e-05
-2.73474e-09
1.70879e-05
-2.80655e-09
1.72197e-05
-2.85604e-09
1.73512e-05
-2.88047e-09
1.74823e-05
-2.87886e-09
1.7613e-05
-2.85203e-09
1.77432e-05
-2.80006e-09
1.78727e-05
-2.71779e-09
1.80015e-05
-2.61e-09
1.81295e-05
-2.47151e-09
1.82567e-05
-2.30223e-09
1.83828e-05
-2.10288e-09
1.85079e-05
-1.86966e-09
1.86317e-05
-1.6034e-09
1.87542e-05
-1.30366e-09
1.88752e-05
-9.68908e-10
1.89947e-05
1.91125e-05
2.38781e-09
1.34089e-05
4.4766e-09
1.19446e-05
6.71842e-09
1.14022e-05
8.73781e-09
1.10856e-05
1.05387e-08
1.08798e-05
1.21598e-08
1.07415e-05
1.36119e-08
1.06484e-05
1.49264e-08
1.05874e-05
1.61105e-08
1.05502e-05
1.71663e-08
1.05316e-05
1.80991e-08
1.05277e-05
1.89017e-08
1.05359e-05
1.95802e-08
1.05542e-05
2.01396e-08
1.05811e-05
2.05796e-08
1.06153e-05
2.09102e-08
1.06559e-05
2.11347e-08
1.07022e-05
2.12601e-08
1.07537e-05
2.12978e-08
1.08096e-05
2.12526e-08
1.08698e-05
2.11337e-08
1.09337e-05
2.09455e-08
1.10012e-05
2.06925e-08
1.10719e-05
2.03914e-08
1.11455e-05
2.00372e-08
1.12221e-05
1.96414e-08
1.13013e-05
1.92047e-08
1.13829e-05
1.87377e-08
1.1467e-05
1.82441e-08
1.15533e-05
1.77238e-08
1.16418e-05
1.71819e-08
1.17323e-05
1.66252e-08
1.18248e-05
1.60522e-08
1.19191e-05
1.54674e-08
1.20153e-05
1.48749e-08
1.21133e-05
1.42762e-08
1.22129e-05
1.36711e-08
1.23141e-05
1.30646e-08
1.2417e-05
1.24546e-08
1.25213e-05
1.18475e-08
1.26272e-05
1.12425e-08
1.27345e-05
1.06403e-08
1.28431e-05
1.00416e-08
1.29532e-05
9.44893e-09
1.30645e-05
8.86442e-09
1.31771e-05
8.28663e-09
1.32909e-05
7.71628e-09
1.34059e-05
7.15671e-09
1.35221e-05
6.60988e-09
1.36394e-05
6.06926e-09
1.37578e-05
5.53993e-09
1.38773e-05
5.02529e-09
1.39978e-05
4.52363e-09
1.41192e-05
4.03174e-09
1.42416e-05
3.55595e-09
1.43649e-05
3.09433e-09
1.4489e-05
2.64555e-09
1.4614e-05
2.21402e-09
1.47398e-05
1.79639e-09
1.48663e-05
1.39407e-09
1.49936e-05
1.00989e-09
1.51215e-05
6.40566e-10
1.525e-05
2.87338e-10
1.53792e-05
-4.67429e-11
1.55088e-05
-3.6669e-10
1.5639e-05
-6.63805e-10
1.57696e-05
-9.44125e-10
1.59006e-05
-1.20659e-09
1.60319e-05
-1.44837e-09
1.61635e-05
-1.67271e-09
1.62954e-05
-1.87269e-09
1.64274e-05
-2.05556e-09
1.65596e-05
-2.21443e-09
1.66917e-05
-2.35365e-09
1.68239e-05
-2.47063e-09
1.69561e-05
-2.5656e-09
1.7088e-05
-2.63572e-09
1.72198e-05
-2.68251e-09
1.73512e-05
-2.70337e-09
1.74823e-05
-2.70077e-09
1.7613e-05
-2.66965e-09
1.77431e-05
-2.61237e-09
1.78726e-05
-2.52893e-09
1.80014e-05
-2.41405e-09
1.81294e-05
-2.27011e-09
1.82565e-05
-2.09673e-09
1.83826e-05
-1.89012e-09
1.85076e-05
-1.65134e-09
1.86314e-05
-1.37975e-09
1.87539e-05
-1.07166e-09
1.88749e-05
-7.28005e-10
1.89944e-05
1.91121e-05
1.3689e-09
1.34076e-05
2.43415e-09
1.19436e-05
3.87325e-09
1.14008e-05
5.34937e-09
1.10841e-05
6.80312e-09
1.08783e-05
8.17187e-09
1.07402e-05
9.45089e-09
1.06471e-05
1.06377e-08
1.05862e-05
1.17296e-08
1.05491e-05
1.27312e-08
1.05306e-05
1.36393e-08
1.05268e-05
1.44555e-08
1.05351e-05
1.51772e-08
1.05535e-05
1.58051e-08
1.05804e-05
1.63449e-08
1.06147e-05
1.67956e-08
1.06555e-05
1.7158e-08
1.07019e-05
1.74434e-08
1.07534e-05
1.76486e-08
1.08094e-05
1.77772e-08
1.08697e-05
1.78354e-08
1.09337e-05
1.78312e-08
1.10012e-05
1.77651e-08
1.10719e-05
1.76403e-08
1.11457e-05
1.74677e-08
1.12223e-05
1.72429e-08
1.13015e-05
1.69799e-08
1.13832e-05
1.66738e-08
1.14673e-05
1.63325e-08
1.15536e-05
1.59631e-08
1.16421e-05
1.55643e-08
1.17327e-05
1.51353e-08
1.18252e-05
1.46925e-08
1.19196e-05
1.4226e-08
1.20158e-05
1.37442e-08
1.21137e-05
1.32471e-08
1.22134e-05
1.27423e-08
1.23147e-05
1.22274e-08
1.24175e-05
1.17058e-08
1.25219e-05
1.11753e-08
1.26277e-05
1.0646e-08
1.2735e-05
1.01119e-08
1.28437e-05
9.57755e-09
1.29537e-05
9.04535e-09
1.3065e-05
8.51432e-09
1.31776e-05
7.98531e-09
1.32914e-05
7.4638e-09
1.34065e-05
6.94521e-09
1.35226e-05
6.43498e-09
1.36399e-05
5.93189e-09
1.37583e-05
5.43938e-09
1.38778e-05
4.95268e-09
1.39982e-05
4.47535e-09
1.41197e-05
4.01234e-09
1.4242e-05
3.55717e-09
1.43653e-05
3.11488e-09
1.44895e-05
2.68671e-09
1.46145e-05
2.26959e-09
1.47402e-05
1.86673e-09
1.48667e-05
1.47926e-09
1.4994e-05
1.10436e-09
1.51219e-05
7.46358e-10
1.52504e-05
4.04917e-10
1.53795e-05
7.83326e-11
1.55092e-05
-2.30425e-10
1.56393e-05
-5.23194e-10
1.57699e-05
-7.97055e-10
1.59009e-05
-1.05231e-09
1.60322e-05
-1.29217e-09
1.61638e-05
-1.50798e-09
1.62956e-05
-1.70719e-09
1.64276e-05
-1.88573e-09
1.65597e-05
-2.0425e-09
1.66919e-05
-2.17876e-09
1.68241e-05
-2.29209e-09
1.69562e-05
-2.38118e-09
1.70881e-05
-2.44884e-09
1.72198e-05
-2.49241e-09
1.73513e-05
-2.51062e-09
1.74824e-05
-2.50219e-09
1.7613e-05
-2.4708e-09
1.77431e-05
-2.40887e-09
1.78726e-05
-2.31624e-09
1.80013e-05
-2.19894e-09
1.81293e-05
-2.04959e-09
1.82564e-05
-1.86897e-09
1.83825e-05
-1.65694e-09
1.85074e-05
-1.41084e-09
1.86312e-05
-1.13157e-09
1.87536e-05
-8.16576e-10
1.88746e-05
-4.63364e-10
1.8994e-05
1.91118e-05
8.84106e-10
1.34067e-05
1.5461e-09
1.19429e-05
2.4527e-09
1.13999e-05
3.45151e-09
1.10831e-05
4.51112e-09
1.08772e-05
5.56137e-09
1.07391e-05
6.58253e-09
1.06461e-05
7.56444e-09
1.05852e-05
8.5017e-09
1.05482e-05
9.38812e-09
1.05297e-05
1.02123e-08
1.0526e-05
1.09828e-08
1.05344e-05
1.16855e-08
1.05528e-05
1.23252e-08
1.05798e-05
1.28978e-08
1.06141e-05
1.33974e-08
1.0655e-05
1.38355e-08
1.07014e-05
1.42054e-08
1.0753e-05
1.45038e-08
1.08091e-05
1.47451e-08
1.08694e-05
1.49223e-08
1.09335e-05
1.50399e-08
1.10011e-05
1.51038e-08
1.10719e-05
1.51126e-08
1.11457e-05
1.50686e-08
1.12223e-05
1.49848e-08
1.13016e-05
1.48495e-08
1.13833e-05
1.46754e-08
1.14675e-05
1.44631e-08
1.15539e-05
1.4217e-08
1.16424e-05
1.39375e-08
1.1733e-05
1.3635e-08
1.18255e-05
1.32979e-08
1.19199e-05
1.29399e-08
1.20161e-05
1.25632e-08
1.21141e-05
1.21673e-08
1.22138e-05
1.17526e-08
1.23151e-05
1.1326e-08
1.24179e-05
1.08872e-08
1.25223e-05
1.04392e-08
1.26282e-05
9.98001e-09
1.27355e-05
9.51594e-09
1.28441e-05
9.04637e-09
1.29542e-05
8.57579e-09
1.30655e-05
8.10133e-09
1.31781e-05
7.62748e-09
1.32919e-05
7.15315e-09
1.34069e-05
6.6822e-09
1.35231e-05
6.2138e-09
1.36404e-05
5.74969e-09
1.37588e-05
5.29033e-09
1.38782e-05
4.83634e-09
1.39987e-05
4.39274e-09
1.41201e-05
3.95465e-09
1.42425e-05
3.52732e-09
1.43658e-05
3.1093e-09
1.44899e-05
2.70048e-09
1.46149e-05
2.30272e-09
1.47406e-05
1.9204e-09
1.48671e-05
1.54766e-09
1.49943e-05
1.18883e-09
1.51222e-05
8.43683e-10
1.52507e-05
5.12506e-10
1.53798e-05
1.99422e-10
1.55095e-05
-1.00159e-10
1.56396e-05
-3.84718e-10
1.57702e-05
-6.48888e-10
1.59011e-05
-8.99817e-10
1.60324e-05
-1.12768e-09
1.6164e-05
-1.34129e-09
1.62958e-05
-1.53373e-09
1.64278e-05
-1.70632e-09
1.65599e-05
-1.85933e-09
1.66921e-05
-1.9889e-09
1.68242e-05
-2.0978e-09
1.69563e-05
-2.18479e-09
1.70882e-05
-2.24722e-09
1.72199e-05
-2.28646e-09
1.73513e-05
-2.30118e-09
1.74824e-05
-2.28752e-09
1.7613e-05
-2.24683e-09
1.77431e-05
-2.18267e-09
1.78725e-05
-2.08862e-09
1.80012e-05
-1.96351e-09
1.81292e-05
-1.80931e-09
1.82562e-05
-1.62125e-09
1.83823e-05
-1.40161e-09
1.85072e-05
-1.1498e-09
1.86309e-05
-8.59002e-10
1.87533e-05
-5.35857e-10
1.88743e-05
-1.75662e-10
1.89937e-05
1.91114e-05
6.74919e-10
1.3406e-05
1.22354e-09
1.19424e-05
1.87404e-09
1.13992e-05
2.61963e-09
1.10824e-05
3.41349e-09
1.08764e-05
4.20378e-09
1.07383e-05
4.99014e-09
1.06453e-05
5.75184e-09
1.05844e-05
6.49567e-09
1.05475e-05
7.21126e-09
1.0529e-05
7.89971e-09
1.05253e-05
8.55098e-09
1.05337e-05
9.16625e-09
1.05522e-05
9.73643e-09
1.05792e-05
1.02674e-08
1.06136e-05
1.07521e-08
1.06545e-05
1.11881e-08
1.0701e-05
1.15715e-08
1.07526e-05
1.1908e-08
1.08088e-05
1.21971e-08
1.08691e-05
1.24315e-08
1.09333e-05
1.26226e-08
1.10009e-05
1.27599e-08
1.10717e-05
1.2855e-08
1.11456e-05
1.29068e-08
1.12222e-05
1.29081e-08
1.13016e-05
1.28768e-08
1.13834e-05
1.2802e-08
1.14676e-05
1.26914e-08
1.1554e-05
1.25445e-08
1.16425e-05
1.23671e-08
1.17331e-05
1.21567e-08
1.18257e-05
1.1921e-08
1.19202e-05
1.16596e-08
1.20164e-05
1.13701e-08
1.21144e-05
1.10621e-08
1.22141e-05
1.07364e-08
1.23154e-05
1.03874e-08
1.24183e-05
1.00275e-08
1.25227e-05
9.65405e-09
1.26285e-05
9.26659e-09
1.27358e-05
8.86986e-09
1.28445e-05
8.4682e-09
1.29546e-05
8.05384e-09
1.30659e-05
7.63683e-09
1.31785e-05
7.21735e-09
1.32923e-05
6.79454e-09
1.34074e-05
6.36777e-09
1.35235e-05
5.94389e-09
1.36408e-05
5.52189e-09
1.37592e-05
5.09923e-09
1.38787e-05
4.68572e-09
1.39991e-05
4.27219e-09
1.41205e-05
3.86693e-09
1.42429e-05
3.46709e-09
1.43662e-05
3.07416e-09
1.44903e-05
2.69035e-09
1.46152e-05
2.31849e-09
1.4741e-05
1.95428e-09
1.48675e-05
1.59909e-09
1.49947e-05
1.25908e-09
1.51226e-05
9.29781e-10
1.52511e-05
6.15645e-10
1.53802e-05
3.11956e-10
1.55098e-05
2.48134e-11
1.56399e-05
-2.45994e-10
1.57704e-05
-5.03525e-10
1.59014e-05
-7.42205e-10
1.60327e-05
-9.6487e-10
1.61642e-05
-1.16754e-09
1.6296e-05
-1.35313e-09
1.6428e-05
-1.51897e-09
1.65601e-05
-1.66515e-09
1.66922e-05
-1.79046e-09
1.68243e-05
-1.89227e-09
1.69564e-05
-1.97464e-09
1.70883e-05
-2.03103e-09
1.722e-05
-2.06296e-09
1.73514e-05
-2.07284e-09
1.74824e-05
-2.05555e-09
1.7613e-05
-2.01223e-09
1.7743e-05
-1.93796e-09
1.78724e-05
-1.83755e-09
1.80011e-05
-1.70688e-09
1.81291e-05
-1.54488e-09
1.82561e-05
-1.35132e-09
1.83821e-05
-1.12468e-09
1.8507e-05
-8.61567e-10
1.86307e-05
-5.66426e-10
1.8753e-05
-2.32141e-10
1.88739e-05
1.37672e-10
1.89933e-05
1.91109e-05
5.52145e-10
1.34055e-05
9.92044e-10
1.19419e-05
1.47087e-09
1.13988e-05
2.03749e-09
1.10818e-05
2.64559e-09
1.08758e-05
3.269e-09
1.07377e-05
3.87985e-09
1.06447e-05
4.48819e-09
1.05838e-05
5.07975e-09
1.05469e-05
5.65786e-09
1.05284e-05
6.21957e-09
1.05248e-05
6.7639e-09
1.05332e-05
7.28242e-09
1.05517e-05
7.77884e-09
1.05787e-05
8.24084e-09
1.06132e-05
8.68146e-09
1.0654e-05
9.08166e-09
1.07006e-05
9.45078e-09
1.07523e-05
9.78852e-09
1.08085e-05
1.008e-08
1.08688e-05
1.03417e-08
1.0933e-05
1.05592e-08
1.10007e-05
1.07427e-08
1.10715e-05
1.08855e-08
1.11454e-05
1.09893e-08
1.12221e-05
1.10605e-08
1.13015e-05
1.10912e-08
1.13833e-05
1.10879e-08
1.14676e-05
1.10515e-08
1.1554e-05
1.09803e-08
1.16426e-05
1.08796e-08
1.17332e-05
1.07497e-08
1.18258e-05
1.05921e-08
1.19203e-05
1.04057e-08
1.20166e-05
1.01974e-08
1.21146e-05
9.96806e-09
1.22143e-05
9.7134e-09
1.23156e-05
9.4435e-09
1.24185e-05
9.15216e-09
1.2523e-05
8.84607e-09
1.26288e-05
8.52573e-09
1.27362e-05
8.19447e-09
1.28449e-05
7.84915e-09
1.29549e-05
7.49778e-09
1.30662e-05
7.13417e-09
1.31789e-05
6.76795e-09
1.32927e-05
6.39437e-09
1.34077e-05
6.01917e-09
1.35239e-05
5.63964e-09
1.36412e-05
5.2598e-09
1.37596e-05
4.87982e-09
1.3879e-05
4.49874e-09
1.39995e-05
4.12323e-09
1.41209e-05
3.7492e-09
1.42433e-05
3.37953e-09
1.43665e-05
3.01823e-09
1.44906e-05
2.66024e-09
1.46156e-05
2.31077e-09
1.47413e-05
1.96812e-09
1.48678e-05
1.63734e-09
1.4995e-05
1.31507e-09
1.51229e-05
1.00484e-09
1.52514e-05
7.0596e-10
1.53805e-05
4.2045e-10
1.55101e-05
1.4664e-10
1.56402e-05
-1.11494e-10
1.57707e-05
-3.57941e-10
1.59016e-05
-5.8423e-10
1.60329e-05
-7.96541e-10
1.61644e-05
-9.90469e-10
1.62962e-05
-1.16723e-09
1.64282e-05
-1.32337e-09
1.65602e-05
-1.46151e-09
1.66923e-05
-1.57753e-09
1.68244e-05
-1.67444e-09
1.69565e-05
-1.7469e-09
1.70884e-05
-1.79887e-09
1.722e-05
-1.82639e-09
1.73514e-05
-1.8271e-09
1.74824e-05
-1.80453e-09
1.76129e-05
-1.75268e-09
1.7743e-05
-1.67479e-09
1.78724e-05
-1.56718e-09
1.8001e-05
-1.42866e-09
1.81289e-05
-1.25995e-09
1.82559e-05
-1.05757e-09
1.83819e-05
-8.22399e-10
1.85068e-05
-5.53412e-10
1.86304e-05
-2.46784e-10
1.87527e-05
9.46614e-11
1.88736e-05
4.74469e-10
1.89929e-05
1.91105e-05
4.37456e-10
1.3405e-05
7.71723e-10
1.19416e-05
1.11767e-09
1.13984e-05
1.54474e-09
1.10814e-05
2.01729e-09
1.08754e-05
2.50554e-09
1.07372e-05
2.99699e-09
1.06442e-05
3.48463e-09
1.05833e-05
3.97048e-09
1.05464e-05
4.44374e-09
1.05279e-05
4.9077e-09
1.05243e-05
5.35982e-09
1.05327e-05
5.80229e-09
1.05512e-05
6.22503e-09
1.05783e-05
6.63448e-09
1.06127e-05
7.01646e-09
1.06536e-05
7.38421e-09
1.07002e-05
7.72377e-09
1.07519e-05
8.03539e-09
1.08082e-05
8.32541e-09
1.08685e-05
8.58368e-09
1.09327e-05
8.81255e-09
1.10004e-05
9.01102e-09
1.10713e-05
9.1778e-09
1.11453e-05
9.31408e-09
1.1222e-05
9.4193e-09
1.13014e-05
9.49502e-09
1.13833e-05
9.54295e-09
1.14675e-05
9.55659e-09
1.1554e-05
9.54448e-09
1.16426e-05
9.50238e-09
1.17333e-05
9.43286e-09
1.18259e-05
9.33597e-09
1.19204e-05
9.21651e-09
1.20167e-05
9.0726e-09
1.21148e-05
8.90304e-09
1.22145e-05
8.71625e-09
1.23158e-05
8.50686e-09
1.24188e-05
8.28148e-09
1.25232e-05
8.03689e-09
1.26291e-05
7.77771e-09
1.27364e-05
7.50393e-09
1.28451e-05
7.21701e-09
1.29552e-05
6.91907e-09
1.30665e-05
6.61223e-09
1.31792e-05
6.29233e-09
1.3293e-05
5.96836e-09
1.34081e-05
5.63913e-09
1.35242e-05
5.30344e-09
1.36416e-05
4.96509e-09
1.37599e-05
4.62795e-09
1.38794e-05
4.28727e-09
1.39998e-05
3.94518e-09
1.41212e-05
3.60672e-09
1.42436e-05
3.27087e-09
1.43669e-05
2.93745e-09
1.4491e-05
2.6086e-09
1.46159e-05
2.28579e-09
1.47417e-05
1.96942e-09
1.48682e-05
1.66068e-09
1.49953e-05
1.36176e-09
1.51232e-05
1.06899e-09
1.52517e-05
7.89113e-10
1.53807e-05
5.18672e-10
1.55103e-05
2.63665e-10
1.56404e-05
1.96946e-11
1.57709e-05
-2.07727e-10
1.59018e-05
-4.24407e-10
1.60331e-05
-6.23013e-10
1.61646e-05
-8.06621e-10
1.62964e-05
-9.71552e-10
1.64283e-05
-1.1186e-09
1.65604e-05
-1.24829e-09
1.66925e-05
-1.35665e-09
1.68246e-05
-1.4449e-09
1.69566e-05
-1.51067e-09
1.70884e-05
-1.55386e-09
1.72201e-05
-1.57328e-09
1.73514e-05
-1.56757e-09
1.74824e-05
-1.53681e-09
1.76129e-05
-1.4782e-09
1.77429e-05
-1.39191e-09
1.78723e-05
-1.27639e-09
1.80009e-05
-1.13041e-09
1.81288e-05
-9.52527e-10
1.82557e-05
-7.43564e-10
1.83817e-05
-5.00228e-10
1.85065e-05
-2.18654e-10
1.86301e-05
9.48132e-11
1.87524e-05
4.48186e-10
1.88732e-05
8.38538e-10
1.89925e-05
1.91101e-05
3.39964e-10
1.34047e-05
6.00459e-10
1.19413e-05
8.58836e-10
1.13982e-05
1.18205e-09
1.1081e-05
1.54863e-09
1.0875e-05
1.93529e-09
1.07368e-05
2.32998e-09
1.06438e-05
2.72523e-09
1.0583e-05
3.11912e-09
1.0546e-05
3.50995e-09
1.05276e-05
3.8977e-09
1.05239e-05
4.27342e-09
1.05323e-05
4.64458e-09
1.05508e-05
5.00654e-09
1.05779e-05
5.35469e-09
1.06124e-05
5.69288e-09
1.06533e-05
6.01035e-09
1.06999e-05
6.31799e-09
1.07516e-05
6.602e-09
1.08079e-05
6.86996e-09
1.08683e-05
7.11455e-09
1.09325e-05
7.33672e-09
1.10002e-05
7.53892e-09
1.10711e-05
7.71316e-09
1.11451e-05
7.86674e-09
1.12218e-05
7.99412e-09
1.13013e-05
8.0942e-09
1.13832e-05
8.16855e-09
1.14674e-05
8.22071e-09
1.15539e-05
8.24358e-09
1.16426e-05
8.24496e-09
1.17333e-05
8.2208e-09
1.18259e-05
8.17481e-09
1.19205e-05
8.10451e-09
1.20168e-05
8.01049e-09
1.21149e-05
7.89463e-09
1.22146e-05
7.75888e-09
1.2316e-05
7.60546e-09
1.24189e-05
7.43271e-09
1.25234e-05
7.24102e-09
1.26293e-05
7.03446e-09
1.27366e-05
6.81345e-09
1.28454e-05
6.5799e-09
1.29554e-05
6.33263e-09
1.30668e-05
6.07382e-09
1.31794e-05
5.80724e-09
1.32933e-05
5.52995e-09
1.34083e-05
5.24388e-09
1.35245e-05
4.95476e-09
1.36418e-05
4.65773e-09
1.37602e-05
4.35643e-09
1.38797e-05
4.05292e-09
1.40001e-05
3.75073e-09
1.41215e-05
3.44511e-09
1.42439e-05
3.14108e-09
1.43672e-05
2.8376e-09
1.44913e-05
2.53931e-09
1.46162e-05
2.24328e-09
1.4742e-05
1.95427e-09
1.48684e-05
1.6708e-09
1.49956e-05
1.39286e-09
1.51235e-05
1.12665e-09
1.52519e-05
8.66109e-10
1.5381e-05
6.17359e-10
1.55106e-05
3.78347e-10
1.56407e-05
1.51e-10
1.57712e-05
-6.33909e-11
1.59021e-05
-2.63355e-10
1.60333e-05
-4.48027e-10
1.61648e-05
-6.18544e-10
1.62966e-05
-7.72318e-10
1.64285e-05
-9.09531e-10
1.65605e-05
-1.02473e-09
1.66926e-05
-1.12494e-09
1.68247e-05
-1.20059e-09
1.69566e-05
-1.25852e-09
1.70885e-05
-1.29366e-09
1.72201e-05
-1.30325e-09
1.73514e-05
-1.29002e-09
1.74824e-05
-1.25012e-09
1.76129e-05
-1.18457e-09
1.77428e-05
-1.09081e-09
1.78722e-05
-9.6759e-10
1.80008e-05
-8.13284e-10
1.81286e-05
-6.26749e-10
1.82555e-05
-4.07628e-10
1.83815e-05
-1.51077e-10
1.85063e-05
1.36747e-10
1.86298e-05
4.64977e-10
1.87521e-05
8.26801e-10
1.88729e-05
1.22753e-09
1.89921e-05
1.91097e-05
2.79917e-10
1.34044e-05
4.91006e-10
1.19411e-05
6.84677e-10
1.1398e-05
9.3025e-10
1.10808e-05
1.21298e-09
1.08747e-05
1.51939e-09
1.07365e-05
1.83652e-09
1.06435e-05
2.1643e-09
1.05826e-05
2.4828e-09
1.05457e-05
2.80222e-09
1.05272e-05
3.11903e-09
1.05236e-05
3.4355e-09
1.0532e-05
3.74341e-09
1.05505e-05
4.04551e-09
1.05776e-05
4.34172e-09
1.06121e-05
4.63098e-09
1.0653e-05
4.91021e-09
1.06996e-05
5.1752e-09
1.07513e-05
5.43095e-09
1.08076e-05
5.66855e-09
1.0868e-05
5.89471e-09
1.09323e-05
6.1032e-09
1.1e-05
6.2921e-09
1.10709e-05
6.46872e-09
1.11449e-05
6.62249e-09
1.12217e-05
6.75641e-09
1.13011e-05
6.86934e-09
1.13831e-05
6.96193e-09
1.14673e-05
7.03303e-09
1.15539e-05
7.08621e-09
1.16425e-05
7.11601e-09
1.17333e-05
7.12232e-09
1.18259e-05
7.10998e-09
1.19205e-05
7.07695e-09
1.20168e-05
7.0246e-09
1.21149e-05
6.95265e-09
1.22147e-05
6.86062e-09
1.23161e-05
6.75072e-09
1.2419e-05
6.62067e-09
1.25235e-05
6.47786e-09
1.26294e-05
6.32041e-09
1.27368e-05
6.14321e-09
1.28455e-05
5.95343e-09
1.29556e-05
5.75295e-09
1.3067e-05
5.54015e-09
1.31796e-05
5.31514e-09
1.32935e-05
5.08173e-09
1.34086e-05
4.84002e-09
1.35248e-05
4.59018e-09
1.36421e-05
4.33394e-09
1.37605e-05
4.0735e-09
1.38799e-05
3.80726e-09
1.40004e-05
3.53849e-09
1.41218e-05
3.26908e-09
1.42442e-05
2.99774e-09
1.43674e-05
2.72886e-09
1.44916e-05
2.45992e-09
1.46165e-05
2.19379e-09
1.47422e-05
1.93067e-09
1.48687e-05
1.67381e-09
1.49959e-05
1.42152e-09
1.51237e-05
1.17538e-09
1.52522e-05
9.36742e-10
1.53812e-05
7.08519e-10
1.55108e-05
4.89482e-10
1.56409e-05
2.79404e-10
1.57714e-05
8.38094e-11
1.59023e-05
-1.00224e-10
1.60335e-05
-2.69887e-10
1.6165e-05
-4.2668e-10
1.62967e-05
-5.66525e-10
1.64286e-05
-6.88346e-10
1.65606e-05
-7.94839e-10
1.66927e-05
-8.80516e-10
1.68247e-05
-9.48747e-10
1.69567e-05
-9.95116e-10
1.70885e-05
-1.01725e-09
1.72201e-05
-1.02052e-09
1.73514e-05
-9.96889e-10
1.74823e-05
-9.48993e-10
1.76128e-05
-8.73297e-10
1.77428e-05
-7.70513e-10
1.78721e-05
-6.37039e-10
1.80007e-05
-4.73609e-10
1.81285e-05
-2.77687e-10
1.82553e-05
-4.78683e-11
1.83812e-05
2.17143e-10
1.8506e-05
5.18544e-10
1.86295e-05
8.57667e-10
1.87517e-05
1.23327e-09
1.88725e-05
1.64402e-09
1.89917e-05
1.91092e-05
2.26238e-10
1.34042e-05
3.97301e-10
1.19409e-05
5.50346e-10
1.13978e-05
7.37836e-10
1.10806e-05
9.57703e-10
1.08745e-05
1.19782e-09
1.07363e-05
1.45823e-09
1.06433e-05
1.71736e-09
1.05824e-05
1.98146e-09
1.05454e-05
2.24528e-09
1.0527e-05
2.50664e-09
1.05233e-05
2.76717e-09
1.05318e-05
3.02242e-09
1.05503e-05
3.27838e-09
1.05774e-05
3.53114e-09
1.06119e-05
3.77359e-09
1.06528e-05
4.01158e-09
1.06994e-05
4.2429e-09
1.07511e-05
4.46539e-09
1.08074e-05
4.67965e-09
1.08678e-05
4.87948e-09
1.09321e-05
5.0713e-09
1.09998e-05
5.24741e-09
1.10708e-05
5.41191e-09
1.11447e-05
5.55937e-09
1.12215e-05
5.69202e-09
1.1301e-05
5.8089e-09
1.13829e-05
5.91229e-09
1.14672e-05
5.99486e-09
1.15538e-05
6.06129e-09
1.16425e-05
6.10706e-09
1.17332e-05
6.13848e-09
1.18259e-05
6.15096e-09
1.19205e-05
6.14581e-09
1.20168e-05
6.12202e-09
1.21149e-05
6.0828e-09
1.22147e-05
6.02587e-09
1.23161e-05
5.95057e-09
1.24191e-05
5.86226e-09
1.25236e-05
5.75643e-09
1.26295e-05
5.6335e-09
1.27369e-05
5.50169e-09
1.28457e-05
5.35212e-09
1.29558e-05
5.18816e-09
1.30672e-05
5.01848e-09
1.31798e-05
4.83247e-09
1.32937e-05
4.64041e-09
1.34088e-05
4.43747e-09
1.3525e-05
4.22495e-09
1.36423e-05
4.00648e-09
1.37607e-05
3.78185e-09
1.38802e-05
3.55613e-09
1.40006e-05
3.3211e-09
1.41221e-05
3.08364e-09
1.42444e-05
2.84803e-09
1.43677e-05
2.60823e-09
1.44918e-05
2.37048e-09
1.46167e-05
2.1332e-09
1.47425e-05
1.898e-09
1.48689e-05
1.66619e-09
1.49961e-05
1.43934e-09
1.5124e-05
1.21759e-09
1.52524e-05
1.00361e-09
1.53815e-05
7.97336e-10
1.5511e-05
5.98697e-10
1.56411e-05
4.11901e-10
1.57716e-05
2.31134e-10
1.59024e-05
6.60839e-11
1.60336e-05
-8.87638e-11
1.61651e-05
-2.267e-10
1.62969e-05
-3.52238e-10
1.64287e-05
-4.62335e-10
1.65607e-05
-5.53377e-10
1.66928e-05
-6.28208e-10
1.68248e-05
-6.82795e-10
1.69568e-05
-7.17402e-10
1.70886e-05
-7.30824e-10
1.72201e-05
-7.2023e-10
1.73514e-05
-6.87301e-10
1.74823e-05
-6.2929e-10
1.76128e-05
-5.44788e-10
1.77427e-05
-4.31343e-10
1.7872e-05
-2.88551e-10
1.80005e-05
-1.14934e-10
1.81283e-05
9.21477e-11
1.82551e-05
3.33148e-10
1.8381e-05
6.10655e-10
1.85057e-05
9.24686e-10
1.86292e-05
1.27615e-09
1.87514e-05
1.66507e-09
1.88721e-05
2.09002e-09
1.89913e-05
1.91088e-05
1.83638e-10
1.3404e-05
3.26072e-10
1.19408e-05
4.38486e-10
1.13977e-05
5.77955e-10
1.10805e-05
7.50016e-10
1.08743e-05
9.46792e-10
1.07361e-05
1.15012e-09
1.06431e-05
1.3614e-09
1.05822e-05
1.57866e-09
1.05452e-05
1.79838e-09
1.05268e-05
2.01623e-09
1.05231e-05
2.23079e-09
1.05315e-05
2.44758e-09
1.05501e-05
2.65854e-09
1.05772e-05
2.86899e-09
1.06116e-05
3.07568e-09
1.06526e-05
3.28062e-09
1.06992e-05
3.47836e-09
1.07509e-05
3.67151e-09
1.08072e-05
3.8557e-09
1.08676e-05
4.03614e-09
1.09319e-05
4.20679e-09
1.09996e-05
4.36778e-09
1.10706e-05
4.51725e-09
1.11446e-05
4.65607e-09
1.12214e-05
4.7825e-09
1.13009e-05
4.89871e-09
1.13828e-05
4.99965e-09
1.14671e-05
5.08762e-09
1.15537e-05
5.15935e-09
1.16424e-05
5.22153e-09
1.17331e-05
5.26499e-09
1.18259e-05
5.29466e-09
1.19204e-05
5.30892e-09
1.20168e-05
5.31124e-09
1.21149e-05
5.29286e-09
1.22147e-05
5.26237e-09
1.23161e-05
5.21704e-09
1.24191e-05
5.15629e-09
1.25236e-05
5.08327e-09
1.26296e-05
4.99533e-09
1.2737e-05
4.89404e-09
1.28458e-05
4.78022e-09
1.29559e-05
4.65582e-09
1.30673e-05
4.51476e-09
1.318e-05
4.37087e-09
1.32938e-05
4.21183e-09
1.34089e-05
4.04401e-09
1.35251e-05
3.86901e-09
1.36425e-05
3.68664e-09
1.37609e-05
3.49678e-09
1.38804e-05
3.3006e-09
1.40008e-05
3.10183e-09
1.41223e-05
2.89964e-09
1.42446e-05
2.69253e-09
1.43679e-05
2.48544e-09
1.4492e-05
2.27621e-09
1.46169e-05
2.06659e-09
1.47427e-05
1.86093e-09
1.48691e-05
1.65785e-09
1.49963e-05
1.45534e-09
1.51242e-05
1.25933e-09
1.52526e-05
1.06966e-09
1.53816e-05
8.83516e-10
1.55112e-05
7.06238e-10
1.56412e-05
5.37731e-10
1.57717e-05
3.82108e-10
1.59026e-05
2.33816e-10
1.60338e-05
9.91466e-11
1.61653e-05
-2.47202e-11
1.6297e-05
-1.32005e-10
1.64289e-05
-2.26314e-10