/*--------------------------------*- C++ -*----------------------------------*\
  =========                 |
  \\      /  F ield         | OpenFOAM: The Open Source CFD Toolbox
   \\    /   O peration     | Website:  https://openfoam.org
    \\  /    A nd           | Version:  10
     \\/     M anipulation  |
\*---------------------------------------------------------------------------*/
FoamFile
{
    format      ascii;
    class       volScalarField;
    location    "13000";
    object      yPlus;
}
// * * * * * * * * * * * * * * * * * * * * * * * * * * * * * * * * * * * * * //

dimensions      [0 0 0 0 0 0 0];

internalField   uniform 0;

boundaryField
{
    right
    {
        type            cyclic;
    }
    left
    {
        type            cyclic;
    }
    outerWall
    {
        type            calculated;
        value           nonuniform List<scalar> 
200
(
27.0381
27.0365
27.0398
27.0428
27.0456
27.0486
27.0514
27.054
27.0562
27.0581
27.0598
27.0612
27.0625
27.0636
27.0645
27.0653
27.0661
27.0667
27.0673
27.0679
27.0684
27.0689
27.0693
27.0697
27.0702
27.0706
27.071
27.0714
27.0718
27.0722
27.0726
27.073
27.0734
27.0738
27.0742
27.0746
27.075
27.0754
27.0759
27.0763
27.0767
27.0772
27.0776
27.078
27.0785
27.079
27.0794
27.0799
27.0804
27.0808
27.0813
27.0817
27.0822
27.0827
27.0831
27.0836
27.084
27.0845
27.0849
27.0853
27.0857
27.0861
27.0865
27.0869
27.0872
27.0875
27.0878
27.088
27.0883
27.0884
27.0886
27.0887
27.0887
27.089
27.0872
27.0856
27.0811
27.0801
27.0812
27.082
27.0443
27.0504
27.0607
27.0703
27.079
27.0872
27.0948
27.1016
27.1077
27.113
27.1177
27.1218
27.1253
27.1283
27.1308
27.1328
27.1344
27.1356
27.1364
27.1368
27.1369
27.1367
27.1361
27.1353
27.1341
27.1325
27.1307
27.1286
27.1261
27.1232
27.12
27.1164
27.1124
27.1079
27.1028
27.0971
27.0904
27.0824
27.0723
27.056
27.0836
27.087
27.0887
27.0889
27.087
27.0856
27.0854
27.0858
27.0874
27.0892
27.0906
27.0917
27.0925
27.0931
27.0935
27.0939
27.0941
27.0943
27.0945
27.0946
27.0947
27.0947
27.0947
27.0947
27.0947
27.0947
27.0946
27.0946
27.0945
27.0944
27.0943
27.0942
27.0941
27.094
27.0939
27.0937
27.0936
27.0934
27.0932
27.093
27.0929
27.0927
27.0925
27.0922
27.092
27.0918
27.0916
27.0913
27.0911
27.0908
27.0905
27.0902
27.0899
27.0896
27.0893
27.089
27.0886
27.0883
27.0879
27.0875
27.0871
27.0867
27.0862
27.0858
27.0853
27.0848
27.0842
27.0836
27.0829
27.0822
27.0814
27.0805
27.0794
27.0782
27.0768
27.075
27.0727
27.0694
27.0647
27.0539
)
;
    }
    stirrerWall
    {
        type            calculated;
        value           nonuniform List<scalar> 0();
    }
    top
    {
        type            empty;
    }
    bottom
    {
        type            empty;
    }
    procBoundary2to3
    {
        type            processor;
        value           uniform 0;
    }
}


// ************************************************************************* //
