/*--------------------------------*- C++ -*----------------------------------*\
  =========                 |
  \\      /  F ield         | OpenFOAM: The Open Source CFD Toolbox
   \\    /   O peration     | Website:  https://openfoam.org
    \\  /    A nd           | Version:  10
     \\/     M anipulation  |
\*---------------------------------------------------------------------------*/
FoamFile
{
    format      ascii;
    class       volScalarField;
    location    "77000";
    object      nut;
}
// * * * * * * * * * * * * * * * * * * * * * * * * * * * * * * * * * * * * * //

dimensions      [0 2 -1 0 0 0 0];

internalField   nonuniform List<scalar> 
17922
(
0.00314222
0.0031986
0.00325488
0.00331099
0.00336686
0.0034224
0.00347754
0.00353219
0.00358624
0.00363961
0.00369218
0.00374385
0.0037945
0.003844
0.00389224
0.00393906
0.00398434
0.00402792
0.00406964
0.00410935
0.00414687
0.00418202
0.00421463
0.0042445
0.00427143
0.00429522
0.00431566
0.00433254
0.00434553
0.0043544
0.00435923
0.00436026
0.00435767
0.0043517
0.00434255
0.00433042
0.00431551
0.00429804
0.00427819
0.00425616
0.00423213
0.00420627
0.00417875
0.00414973
0.00411936
0.00408778
0.00405512
0.00402152
0.0039871
0.00395196
0.00391623
0.00388
0.00384339
0.00380648
0.00376937
0.00373214
0.00369489
0.00365769
0.00362062
0.00358374
0.00354712
0.00351083
0.00347491
0.00343943
0.00340442
0.00336993
0.00333601
0.00330269
0.00326999
0.00323795
0.00320659
0.00317592
0.00314597
0.00311674
0.00308824
0.00306046
0.00303341
0.00300706
0.00298141
0.00295643
0.00293209
0.00290836
0.0028852
0.00286256
0.00284039
0.00281862
0.00279719
0.00277601
0.00275499
0.00273403
0.00271302
0.00269183
0.00267033
0.00314222
0.0031986
0.00325488
0.00331099
0.00336686
0.0034224
0.00347754
0.00353219
0.00358624
0.00363961
0.00369218
0.00374385
0.0037945
0.00384401
0.00389225
0.00393907
0.00398435
0.00402793
0.00406965
0.00410936
0.00414688
0.00418203
0.00421464
0.00424451
0.00427144
0.00429523
0.00431567
0.00433255
0.00434554
0.00435441
0.00435925
0.00436027
0.0043577
0.00435173
0.00434258
0.00433045
0.00431556
0.0042981
0.00427826
0.00425624
0.00423221
0.00420636
0.00417886
0.00414985
0.00411949
0.00408792
0.00405528
0.0040217
0.00398729
0.00395217
0.00391645
0.00388024
0.00384364
0.00380675
0.00376966
0.00373246
0.00369523
0.00365805
0.00362099
0.00358414
0.00354754
0.00351126
0.00347537
0.0034399
0.00340492
0.00337045
0.00333655
0.00330324
0.00327056
0.00323853
0.00320718
0.00317653
0.00314659
0.00311737
0.00308887
0.00306109
0.00303403
0.00300768
0.00298202
0.00295702
0.00293266
0.0029089
0.00288571
0.00286302
0.00284079
0.00281896
0.00279744
0.00277615
0.00275501
0.0027339
0.00271272
0.00269133
0.0026696
0.00314222
0.0031986
0.00325488
0.00331099
0.00336686
0.00342241
0.00347755
0.00353219
0.00358625
0.00363962
0.00369219
0.00374386
0.00379451
0.00384402
0.00389225
0.00393908
0.00398436
0.00402794
0.00406966
0.00410937
0.00414689
0.00418204
0.00421465
0.00424452
0.00427145
0.00429524
0.00431568
0.00433256
0.00434555
0.00435442
0.00435926
0.00436029
0.00435772
0.00435175
0.00434261
0.00433049
0.0043156
0.00429815
0.00427832
0.00425631
0.0042323
0.00420646
0.00417897
0.00414997
0.00411962
0.00408807
0.00405545
0.00402187
0.00398748
0.00395238
0.00391668
0.00388048
0.0038439
0.00380703
0.00376996
0.00373278
0.00369557
0.00365841
0.00362138
0.00358454
0.00354796
0.00351171
0.00347584
0.00344039
0.00340542
0.00337098
0.00333709
0.0033038
0.00327114
0.00323913
0.00320779
0.00317715
0.00314722
0.003118
0.00308951
0.00306173
0.00303467
0.00300831
0.00298264
0.00295763
0.00293324
0.00290946
0.00288622
0.00286349
0.0028412
0.00281929
0.00279768
0.00277628
0.00275501
0.00273375
0.00271239
0.00269079
0.00266881
0.00314221
0.0031986
0.00325488
0.00331099
0.00336686
0.00342241
0.00347755
0.0035322
0.00358625
0.00363962
0.0036922
0.00374387
0.00379452
0.00384403
0.00389226
0.00393909
0.00398437
0.00402795
0.00406967
0.00410938
0.0041469
0.00418205
0.00421466
0.00424453
0.00427146
0.00429525
0.00431569
0.00433257
0.00434556
0.00435443
0.00435928
0.00436031
0.00435774
0.00435178
0.00434264
0.00433053
0.00431565
0.0042982
0.00427839
0.00425639
0.00423239
0.00420656
0.00417908
0.0041501
0.00411976
0.00408822
0.00405561
0.00402206
0.00398768
0.00395259
0.00391691
0.00388073
0.00384417
0.00380732
0.00377027
0.0037331
0.00369592
0.00365878
0.00362177
0.00358495
0.0035484
0.00351217
0.00347632
0.00344089
0.00340595
0.00337152
0.00333765
0.00330438
0.00327173
0.00323974
0.00320842
0.00317779
0.00314786
0.00311865
0.00309016
0.00306239
0.00303533
0.00300896
0.00298328
0.00295825
0.00293384
0.00291002
0.00288675
0.00286396
0.00284161
0.00281961
0.00279791
0.0027764
0.00275499
0.00273356
0.00271201
0.00269019
0.00266796
0.00314221
0.0031986
0.00325488
0.00331099
0.00336686
0.00342241
0.00347755
0.0035322
0.00358626
0.00363963
0.00369221
0.00374388
0.00379453
0.00384404
0.00389227
0.0039391
0.00398438
0.00402796
0.00406968
0.00410939
0.00414691
0.00418206
0.00421467
0.00424454
0.00427147
0.00429526
0.0043157
0.00433258
0.00434557
0.00435444
0.00435929
0.00436032
0.00435776
0.0043518
0.00434267
0.00433057
0.0043157
0.00429826
0.00427845
0.00425646
0.00423247
0.00420666
0.00417919
0.00415022
0.00411991
0.00408838
0.00405578
0.00402224
0.00398788
0.00395281
0.00391714
0.00388099
0.00384445
0.00380761
0.00377058
0.00373344
0.00369627
0.00365916
0.00362217
0.00358538
0.00354885
0.00351264
0.00347681
0.00344141
0.00340648
0.00337208
0.00333823
0.00330498
0.00327234
0.00324036
0.00320906
0.00317844
0.00314853
0.00311932
0.00309084
0.00306307
0.003036
0.00300963
0.00298393
0.00295888
0.00293445
0.0029106
0.00288728
0.00286444
0.00284201
0.00281994
0.00279813
0.00277649
0.00275493
0.00273334
0.00271158
0.00268952
0.00266703
0.00314222
0.0031986
0.00325488
0.003311
0.00336687
0.00342242
0.00347756
0.00353221
0.00358627
0.00363964
0.00369221
0.00374389
0.00379454
0.00384405
0.00389228
0.00393911
0.00398439
0.00402797
0.00406969
0.0041094
0.00414692
0.00418207
0.00421468
0.00424455
0.00427148
0.00429527
0.00431571
0.00433259
0.00434559
0.00435446
0.0043593
0.00436034
0.00435778
0.00435183
0.0043427
0.0043306
0.00431574
0.00429832
0.00427852
0.00425654
0.00423257
0.00420677
0.00417931
0.00415036
0.00412005
0.00408854
0.00405596
0.00402243
0.00398809
0.00395303
0.00391739
0.00388125
0.00384473
0.00380792
0.00377091
0.00373379
0.00369664
0.00365955
0.00362259
0.00358582
0.00354931
0.00351313
0.00347732
0.00344194
0.00340704
0.00337265
0.00333882
0.00330559
0.00327297
0.00324101
0.00320972
0.00317911
0.00314921
0.00312001
0.00309153
0.00306376
0.00303669
0.00301031
0.0029846
0.00295953
0.00293508
0.00291119
0.00288782
0.00286492
0.00284242
0.00282025
0.00279834
0.00277657
0.00275485
0.00273307
0.0027111
0.0026888
0.00266602
0.00314222
0.0031986
0.00325488
0.003311
0.00336687
0.00342242
0.00347756
0.00353221
0.00358627
0.00363964
0.00369222
0.00374389
0.00379455
0.00384406
0.00389229
0.00393912
0.0039844
0.00402798
0.00406971
0.00410941
0.00414693
0.00418209
0.00421469
0.00424456
0.00427149
0.00429528
0.00431572
0.0043326
0.0043456
0.00435447
0.00435932
0.00436036
0.0043578
0.00435185
0.00434273
0.00433065
0.00431579
0.00429837
0.00427859
0.00425662
0.00423266
0.00420687
0.00417943
0.00415049
0.0041202
0.00408871
0.00405614
0.00402263
0.0039883
0.00395327
0.00391764
0.00388152
0.00384502
0.00380823
0.00377124
0.00373414
0.00369702
0.00365996
0.00362301
0.00358627
0.00354979
0.00351363
0.00347784
0.00344248
0.0034076
0.00337324
0.00333943
0.00330622
0.00327362
0.00324167
0.00321039
0.0031798
0.00314991
0.00312072
0.00309225
0.00306448
0.00303741
0.00301102
0.00298529
0.0029602
0.00293571
0.00291178
0.00288837
0.0028654
0.00284283
0.00282056
0.00279853
0.00277662
0.00275474
0.00273277
0.00271057
0.00268801
0.00266493
0.00314222
0.0031986
0.00325489
0.003311
0.00336688
0.00342243
0.00347757
0.00353222
0.00358628
0.00363965
0.00369223
0.0037439
0.00379456
0.00384407
0.0038923
0.00393913
0.00398441
0.00402799
0.00406972
0.00410942
0.00414694
0.0041821
0.0042147
0.00424457
0.0042715
0.00429529
0.00431573
0.00433261
0.00434561
0.00435448
0.00435933
0.00436038
0.00435782
0.00435188
0.00434277
0.00433069
0.00431584
0.00429843
0.00427866
0.00425671
0.00423276
0.00420698
0.00417956
0.00415063
0.00412036
0.00408888
0.00405633
0.00402283
0.00398852
0.0039535
0.0039179
0.0038818
0.00384532
0.00380855
0.00377158
0.00373451
0.00369741
0.00366037
0.00362345
0.00358673
0.00355028
0.00351414
0.00347838
0.00344304
0.00340819
0.00337384
0.00334006
0.00330686
0.00327429
0.00324235
0.00321109
0.00318051
0.00315063
0.00312145
0.00309298
0.00306521
0.00303814
0.00301174
0.002986
0.00296088
0.00293636
0.00291239
0.00288892
0.00286589
0.00284323
0.00282086
0.0027987
0.00277665
0.00275459
0.00273241
0.00270997
0.00268714
0.00266375
0.00314222
0.0031986
0.00325489
0.00331101
0.00336688
0.00342243
0.00347758
0.00353223
0.00358629
0.00363966
0.00369224
0.00374391
0.00379457
0.00384408
0.00389232
0.00393915
0.00398443
0.00402801
0.00406973
0.00410944
0.00414696
0.00418211
0.00421471
0.00424458
0.00427151
0.0042953
0.00431574
0.00433263
0.00434562
0.0043545
0.00435935
0.00436039
0.00435784
0.00435191
0.0043428
0.00433073
0.00431589
0.0042985
0.00427873
0.00425679
0.00423286
0.0042071
0.00417968
0.00415077
0.00412051
0.00408905
0.00405652
0.00402304
0.00398875
0.00395375
0.00391816
0.00388209
0.00384563
0.00380888
0.00377194
0.00373489
0.00369782
0.0036608
0.00362391
0.00358721
0.00355078
0.00351467
0.00347893
0.00344362
0.00340879
0.00337447
0.0033407
0.00330753
0.00327497
0.00324306
0.00321181
0.00318124
0.00315137
0.0031222
0.00309374
0.00306597
0.00303889
0.00301248
0.00298672
0.00296158
0.00293703
0.00291301
0.00288948
0.00286638
0.00284363
0.00282115
0.00279885
0.00277664
0.0027544
0.002732
0.00270931
0.00268619
0.00266247
0.00314222
0.00319861
0.00325489
0.00331101
0.00336689
0.00342244
0.00347758
0.00353223
0.0035863
0.00363967
0.00369225
0.00374392
0.00379458
0.00384409
0.00389233
0.00393916
0.00398444
0.00402802
0.00406974
0.00410945
0.00414697
0.00418212
0.00421473
0.00424459
0.00427152
0.00429531
0.00431575
0.00433264
0.00434563
0.00435451
0.00435937
0.00436041
0.00435787
0.00435194
0.00434284
0.00433077
0.00431595
0.00429856
0.00427881
0.00425688
0.00423296
0.00420721
0.00417981
0.00415092
0.00412068
0.00408923
0.00405671
0.00402326
0.00398898
0.003954
0.00391843
0.00388238
0.00384594
0.00380922
0.0037723
0.00373528
0.00369823
0.00366124
0.00362437
0.0035877
0.0035513
0.00351521
0.0034795
0.00344421
0.0034094
0.00337511
0.00334136
0.00330821
0.00327567
0.00324378
0.00321255
0.003182
0.00315214
0.00312298
0.00309451
0.00306674
0.00303966
0.00301324
0.00298746
0.0029623
0.0029377
0.00291364
0.00289005
0.00286686
0.00284401
0.00282142
0.00279898
0.0027766
0.00275416
0.00273153
0.00270857
0.00268515
0.0026611
0.00314222
0.00319861
0.0032549
0.00331102
0.00336689
0.00342244
0.00347759
0.00353224
0.0035863
0.00363968
0.00369226
0.00374394
0.00379459
0.0038441
0.00389234
0.00393917
0.00398445
0.00402803
0.00406976
0.00410946
0.00414698
0.00418213
0.00421474
0.0042446
0.00427153
0.00429532
0.00431576
0.00433265
0.00434565
0.00435452
0.00435938
0.00436043
0.00435789
0.00435197
0.00434287
0.00433082
0.004316
0.00429862
0.00427889
0.00425697
0.00423306
0.00420733
0.00417995
0.00415107
0.00412084
0.00408941
0.00405691
0.00402348
0.00398922
0.00395426
0.00391872
0.00388268
0.00384627
0.00380957
0.00377268
0.00373568
0.00369866
0.00366169
0.00362485
0.00358821
0.00355183
0.00351577
0.00348008
0.00344482
0.00341004
0.00337577
0.00334205
0.00330891
0.0032764
0.00324452
0.00321331
0.00318277
0.00315292
0.00312377
0.00309531
0.00306754
0.00304045
0.00301402
0.00298822
0.00296303
0.00293839
0.00291427
0.00289061
0.00286734
0.00284439
0.00282167
0.00279908
0.00277652
0.00275387
0.00273099
0.00270776
0.00268402
0.00265961
0.00314223
0.00319861
0.0032549
0.00331102
0.0033669
0.00342245
0.0034776
0.00353225
0.00358631
0.00363969
0.00369227
0.00374395
0.0037946
0.00384412
0.00389235
0.00393919
0.00398447
0.00402805
0.00406977
0.00410948
0.00414699
0.00418215
0.00421475
0.00424462
0.00427154
0.00429533
0.00431578
0.00433266
0.00434566
0.00435454
0.0043594
0.00436045
0.00435792
0.004352
0.00434291
0.00433086
0.00431606
0.00429869
0.00427896
0.00425706
0.00423317
0.00420745
0.00418009
0.00415122
0.00412101
0.0040896
0.00405712
0.0040237
0.00398947
0.00395453
0.00391901
0.003883
0.00384661
0.00380993
0.00377306
0.00373609
0.0036991
0.00366216
0.00362534
0.00358873
0.00355238
0.00351634
0.00348069
0.00344545
0.00341069
0.00337644
0.00334275
0.00330964
0.00327714
0.00324529
0.00321409
0.00318357
0.00315373
0.00312459
0.00309613
0.00306836
0.00304126
0.00301482
0.002989
0.00296377
0.00293909
0.00291492
0.00289118
0.00286782
0.00284476
0.0028219
0.00279915
0.00277639
0.00275352
0.00273039
0.00270686
0.00268279
0.00265801
0.00314223
0.00319862
0.00325491
0.00331103
0.0033669
0.00342246
0.00347761
0.00353226
0.00358632
0.0036397
0.00369228
0.00374396
0.00379462
0.00384413
0.00389237
0.0039392
0.00398448
0.00402806
0.00406979
0.00410949
0.00414701
0.00418216
0.00421476
0.00424463
0.00427156
0.00429534
0.00431579
0.00433267
0.00434567
0.00435455
0.00435941
0.00436047
0.00435794
0.00435203
0.00434295
0.00433091
0.00431611
0.00429876
0.00427905
0.00425716
0.00423328
0.00420758
0.00418023
0.00415138
0.00412119
0.0040898
0.00405734
0.00402394
0.00398972
0.00395481
0.0039193
0.00388332
0.00384695
0.0038103
0.00377346
0.00373652
0.00369955
0.00366264
0.00362585
0.00358927
0.00355294
0.00351694
0.00348131
0.0034461
0.00341137
0.00337714
0.00334347
0.00331038
0.00327791
0.00324607
0.00321489
0.00318439
0.00315456
0.00312543
0.00309698
0.0030692
0.0030421
0.00301563
0.00298979
0.00296453
0.0029398
0.00291556
0.00289175
0.00286829
0.0028451
0.0028221
0.00279918
0.00277622
0.00275311
0.00272971
0.00270587
0.00268145
0.00265628
0.00314223
0.00319862
0.00325491
0.00331103
0.00336691
0.00342247
0.00347762
0.00353227
0.00358633
0.00363971
0.00369229
0.00374397
0.00379463
0.00384414
0.00389238
0.00393921
0.00398449
0.00402808
0.0040698
0.00410951
0.00414702
0.00418218
0.00421478
0.00424464
0.00427157
0.00429536
0.0043158
0.00433268
0.00434568
0.00435457
0.00435943
0.00436049
0.00435796
0.00435206
0.00434299
0.00433096
0.00431617
0.00429883
0.00427913
0.00425725
0.00423339
0.00420771
0.00418037
0.00415155
0.00412137
0.00409
0.00405756
0.00402418
0.00398998
0.00395509
0.00391961
0.00388365
0.00384731
0.00381069
0.00377387
0.00373696
0.00370002
0.00366313
0.00362638
0.00358982
0.00355352
0.00351755
0.00348194
0.00344677
0.00341206
0.00337786
0.00334422
0.00331115
0.0032787
0.00324688
0.00321572
0.00318523
0.00315542
0.00312629
0.00309784
0.00307007
0.00304295
0.00301647
0.0029906
0.0029653
0.00294052
0.00291621
0.00289231
0.00286875
0.00284543
0.00282227
0.00279916
0.00277599
0.00275263
0.00272894
0.00270478
0.00268
0.00265442
0.00314224
0.00319863
0.00325492
0.00331104
0.00336692
0.00342248
0.00347763
0.00353228
0.00358635
0.00363972
0.00369231
0.00374399
0.00379464
0.00384416
0.0038924
0.00393923
0.00398451
0.00402809
0.00406982
0.00410952
0.00414704
0.00418219
0.00421479
0.00424465
0.00427158
0.00429537
0.00431581
0.0043327
0.0043457
0.00435458
0.00435945
0.00436051
0.00435799
0.00435209
0.00434303
0.00433101
0.00431623
0.0042989
0.00427921
0.00425736
0.00423351
0.00420784
0.00418052
0.00415171
0.00412156
0.0040902
0.00405778
0.00402443
0.00399025
0.00395538
0.00391993
0.00388399
0.00384768
0.00381108
0.0037743
0.00373741
0.0037005
0.00366364
0.00362692
0.00359039
0.00355412
0.00351818
0.0034826
0.00344745
0.00341277
0.00337861
0.00334499
0.00331195
0.00327952
0.00324772
0.00321658
0.0031861
0.0031563
0.00312718
0.00309873
0.00307095
0.00304383
0.00301733
0.00299142
0.00296608
0.00294124
0.00291686
0.00289287
0.00286919
0.00284573
0.00282241
0.0027991
0.0027757
0.00275207
0.00272809
0.00270359
0.00267842
0.00265243
0.00314224
0.00319864
0.00325493
0.00331105
0.00336693
0.00342249
0.00347764
0.00353229
0.00358636
0.00363974
0.00369232
0.003744
0.00379466
0.00384417
0.00389241
0.00393925
0.00398453
0.00402811
0.00406983
0.00410954
0.00414705
0.0041822
0.00421481
0.00424467
0.00427159
0.00429538
0.00431582
0.00433271
0.00434571
0.0043546
0.00435947
0.00436053
0.00435802
0.00435212
0.00434307
0.00433106
0.00431629
0.00429898
0.0042793
0.00425746
0.00423363
0.00420798
0.00418068
0.00415189
0.00412175
0.00409042
0.00405802
0.00402468
0.00399053
0.00395569
0.00392026
0.00388435
0.00384806
0.00381149
0.00377474
0.00373788
0.003701
0.00366417
0.00362748
0.00359098
0.00355474
0.00351883
0.00348328
0.00344816
0.00341351
0.00337937
0.00334578
0.00331276
0.00328036
0.00324858
0.00321746
0.003187
0.00315721
0.00312809
0.00309965
0.00307186
0.00304472
0.0030182
0.00299226
0.00296687
0.00294197
0.00291751
0.00289341
0.00286961
0.002846
0.0028225
0.00279899
0.00277534
0.00275144
0.00272713
0.00270228
0.00267672
0.00265029
0.00291696
0.00297313
0.00302943
0.00308583
0.00314225
0.00319864
0.00325494
0.00331106
0.00336694
0.0034225
0.00347765
0.0035323
0.00358637
0.00363975
0.00369233
0.00374402
0.00379467
0.00384419
0.00389243
0.00393926
0.00398454
0.00402812
0.00406985
0.00410955
0.00414707
0.00418222
0.00421482
0.00424468
0.00427161
0.00429539
0.00431584
0.00433272
0.00434572
0.00435461
0.00435948
0.00436056
0.00435804
0.00435216
0.00434311
0.00433111
0.00431636
0.00429905
0.00427939
0.00425756
0.00423375
0.00420812
0.00418084
0.00415206
0.00412195
0.00409063
0.00405826
0.00402494
0.00399082
0.003956
0.0039206
0.00388471
0.00384845
0.00381192
0.00377519
0.00373836
0.00370151
0.00366472
0.00362805
0.00359159
0.00355538
0.0035195
0.00348398
0.00344889
0.00341427
0.00338016
0.00334659
0.0033136
0.00328122
0.00324947
0.00321836
0.00318792
0.00315814
0.00312903
0.00310059
0.0030728
0.00304564
0.00301909
0.00299311
0.00296767
0.0029427
0.00291815
0.00289395
0.00287001
0.00284624
0.00282255
0.00279881
0.00277491
0.00275072
0.00272608
0.00270085
0.00267488
0.00264799
0.00291697
0.00297313
0.00302944
0.00308583
0.00314226
0.00319865
0.00325494
0.00331107
0.00336695
0.00342251
0.00347766
0.00353232
0.00358639
0.00363976
0.00369235
0.00374403
0.00379469
0.00384421
0.00389245
0.00393928
0.00398456
0.00402814
0.00406987
0.00410957
0.00414709
0.00418224
0.00421484
0.0042447
0.00427162
0.00429541
0.00431585
0.00433273
0.00434574
0.00435463
0.0043595
0.00436058
0.00435807
0.00435219
0.00434315
0.00433116
0.00431642
0.00429913
0.00427949
0.00425767
0.00423387
0.00420826
0.004181
0.00415225
0.00412215
0.00409086
0.00405851
0.00402522
0.00399112
0.00395632
0.00392095
0.00388509
0.00384886
0.00381235
0.00377566
0.00373886
0.00370204
0.00366528
0.00362865
0.00359222
0.00355604
0.00352019
0.00348471
0.00344965
0.00341506
0.00338097
0.00334744
0.00331447
0.00328212
0.00325038
0.0032193
0.00318887
0.0031591
0.00313
0.00310155
0.00307375
0.00304658
0.00302
0.00299398
0.00296847
0.00294343
0.00291879
0.00289446
0.00287038
0.00284645
0.00282255
0.00279858
0.0027744
0.0027499
0.00272491
0.00269929
0.00267289
0.00264554
0.00291697
0.00297314
0.00302945
0.00308584
0.00314227
0.00319866
0.00325495
0.00331108
0.00336696
0.00342252
0.00347767
0.00353233
0.0035864
0.00363978
0.00369237
0.00374405
0.00379471
0.00384422
0.00389247
0.0039393
0.00398458
0.00402816
0.00406988
0.00410959
0.0041471
0.00418225
0.00421485
0.00424471
0.00427163
0.00429542
0.00431586
0.00433275
0.00434575
0.00435464
0.00435952
0.0043606
0.0043581
0.00435223
0.0043432
0.00433122
0.00431649
0.00429921
0.00427958
0.00425779
0.00423401
0.00420841
0.00418117
0.00415244
0.00412236
0.00409109
0.00405876
0.0040255
0.00399142
0.00395666
0.00392131
0.00388548
0.00384928
0.0038128
0.00377614
0.00373937
0.00370259
0.00366586
0.00362926
0.00359286
0.00355672
0.0035209
0.00348546
0.00345043
0.00341587
0.00338181
0.0033483
0.00331537
0.00328304
0.00325133
0.00322026
0.00318985
0.00316009
0.00313099
0.00310254
0.00307473
0.00304753
0.00302092
0.00299485
0.00296929
0.00294416
0.00291941
0.00289496
0.00287072
0.0028466
0.00282249
0.00279827
0.00277381
0.00274897
0.00272362
0.0026976
0.00267075
0.00264291
0.00274978
0.00280525
0.00286099
0.00291698
0.00297315
0.00302945
0.00308585
0.00314228
0.00319867
0.00325496
0.00331109
0.00336697
0.00342253
0.00347769
0.00353235
0.00358642
0.0036398
0.00369238
0.00374407
0.00379473
0.00384424
0.00389249
0.00393932
0.0039846
0.00402818
0.0040699
0.00410961
0.00414712
0.00418227
0.00421487
0.00424473
0.00427165
0.00429543
0.00431587
0.00433276
0.00434576
0.00435466
0.00435954
0.00436062
0.00435813
0.00435227
0.00434324
0.00433127
0.00431656
0.0042993
0.00427968
0.0042579
0.00423414
0.00420857
0.00418134
0.00415263
0.00412258
0.00409134
0.00405903
0.00402579
0.00399174
0.003957
0.00392168
0.00388589
0.00384972
0.00381327
0.00377664
0.0037399
0.00370315
0.00366646
0.0036299
0.00359353
0.00355743
0.00352164
0.00348623
0.00345123
0.0034167
0.00338268
0.0033492
0.00331629
0.00328399
0.0032523
0.00322125
0.00319085
0.00316111
0.00313201
0.00310356
0.00307573
0.00304851
0.00302186
0.00299574
0.0029701
0.00294488
0.00292002
0.00289543
0.00287103
0.00284671
0.00282237
0.00279788
0.00277311
0.00274794
0.0027222
0.00269576
0.00266845
0.00264011
0.00274979
0.00280526
0.002861
0.00291698
0.00297315
0.00302946
0.00308586
0.00314229
0.00319868
0.00325498
0.0033111
0.00336699
0.00342255
0.0034777
0.00353236
0.00358643
0.00363981
0.0036924
0.00374408
0.00379475
0.00384426
0.0038925
0.00393934
0.00398462
0.0040282
0.00406992
0.00410963
0.00414714
0.00418229
0.00421488
0.00424474
0.00427166
0.00429545
0.00431589
0.00433277
0.00434578
0.00435467
0.00435956
0.00436065
0.00435816
0.0043523
0.00434329
0.00433133
0.00431663
0.00429938
0.00427978
0.00425802
0.00423428
0.00420872
0.00418152
0.00415284
0.00412281
0.00409159
0.0040593
0.00402609
0.00399207
0.00395736
0.00392207
0.0038863
0.00385017
0.00381375
0.00377715
0.00374046
0.00370374
0.00366708
0.00363056
0.00359423
0.00355816
0.0035224
0.00348702
0.00345206
0.00341757
0.00338358
0.00335013
0.00331725
0.00328497
0.0032533
0.00322227
0.00319189
0.00316215
0.00313305
0.00310459
0.00307675
0.0030495
0.0030228
0.00299663
0.00297091
0.00294559
0.00292061
0.00289587
0.00287129
0.00284676
0.00282217
0.0027974
0.00277232
0.00274678
0.00272065
0.00269376
0.00266598
0.00263713
0.00274979
0.00280526
0.00286101
0.00291699
0.00297316
0.00302947
0.00308587
0.0031423
0.00319869
0.00325499
0.00331112
0.003367
0.00342256
0.00347772
0.00353238
0.00358645
0.00363983
0.00369242
0.0037441
0.00379477
0.00384428
0.00389253
0.00393936
0.00398464
0.00402822
0.00406994
0.00410964
0.00414716
0.0041823
0.0042149
0.00424476
0.00427168
0.00429546
0.0043159
0.00433279
0.00434579
0.00435469
0.00435958
0.00436067
0.00435819
0.00435234
0.00434334
0.00433139
0.0043167
0.00429947
0.00427989
0.00425815
0.00423442
0.00420889
0.00418171
0.00415304
0.00412304
0.00409185
0.00405959
0.0040264
0.00399241
0.00395773
0.00392247
0.00388674
0.00385063
0.00381425
0.00377769
0.00374103
0.00370435
0.00366773
0.00363123
0.00359494
0.00355891
0.00352319
0.00348785
0.00345292
0.00341846
0.0033845
0.00335108
0.00331823
0.00328598
0.00325434
0.00322332
0.00319295
0.00316322
0.00313413
0.00310566
0.00307779
0.00305051
0.00302376
0.00299752
0.00297171
0.00294629
0.00292117
0.00289627
0.0028715
0.00284675
0.0028219
0.00279683
0.00277141
0.0027455
0.00271895
0.00269161
0.00266333
0.00263395
0.0027498
0.00280527
0.00286102
0.002917
0.00297317
0.00302948
0.00308588
0.00314231
0.0031987
0.003255
0.00331113
0.00336701
0.00342258
0.00347773
0.0035324
0.00358647
0.00363985
0.00369244
0.00374412
0.00379479
0.0038443
0.00389255
0.00393938
0.00398466
0.00402824
0.00406996
0.00410967
0.00414718
0.00418232
0.00421492
0.00424477
0.00427169
0.00429548
0.00431592
0.0043328
0.00434581
0.00435471
0.0043596
0.0043607
0.00435822
0.00435238
0.00434339
0.00433146
0.00431678
0.00429956
0.00428
0.00425828
0.00423457
0.00420906
0.0041819
0.00415326
0.00412328
0.00409211
0.00405988
0.00402673
0.00399277
0.00395811
0.00392289
0.00388719
0.00385112
0.00381477
0.00377824
0.00374162
0.00370497
0.00366839
0.00363194
0.00359568
0.00355969
0.00352401
0.0034887
0.00345381
0.00341938
0.00338546
0.00335207
0.00331925
0.00328702
0.0032554
0.00322441
0.00319405
0.00316432
0.00313522
0.00310674
0.00307885
0.00305153
0.00302473
0.00299841
0.00297251
0.00294697
0.00292171
0.00289664
0.00287166
0.00284666
0.00282154
0.00279616
0.00277039
0.00274408
0.0027171
0.00268929
0.0026605
0.00263058
0.00274981
0.00280528
0.00286102
0.00291701
0.00297318
0.00302949
0.00308589
0.00314232
0.00319872
0.00325501
0.00331114
0.00336703
0.00342259
0.00347775
0.00353241
0.00358649
0.00363987
0.00369246
0.00374415
0.00379481
0.00384433
0.00389257
0.0039394
0.00398468
0.00402826
0.00406998
0.00410969
0.0041472
0.00418234
0.00421494
0.00424479
0.00427171
0.00429549
0.00431593
0.00433282
0.00434583
0.00435473
0.00435962
0.00436073
0.00435826
0.00435243
0.00434344
0.00433152
0.00431686
0.00429966
0.00428012
0.00425841
0.00423473
0.00420924
0.0041821
0.00415349
0.00412354
0.00409239
0.00406019
0.00402706
0.00399313
0.00395851
0.00392332
0.00388765
0.00385162
0.00381531
0.00377882
0.00374223
0.00370562
0.00366908
0.00363267
0.00359645
0.00356049
0.00352485
0.00348958
0.00345473
0.00342033
0.00338644
0.00335309
0.0033203
0.00328809
0.0032565
0.00322552
0.00319517
0.00316545
0.00313634
0.00310784
0.00307993
0.00305256
0.0030257
0.0029993
0.0029733
0.00294763
0.00292221
0.00289695
0.00287175
0.0028465
0.00282109
0.00279538
0.00276924
0.00274252
0.00271509
0.0026868
0.00265748
0.00262701
0.00274981
0.00280528
0.00286103
0.00291702
0.00297319
0.0030295
0.0030859
0.00314233
0.00319873
0.00325503
0.00331116
0.00336705
0.00342261
0.00347777
0.00353243
0.00358651
0.00363989
0.00369248
0.00374417
0.00379483
0.00384435
0.00389259
0.00393943
0.00398471
0.00402829
0.00407001
0.00410971
0.00414722
0.00418236
0.00421495
0.00424481
0.00427173
0.00429551
0.00431595
0.00433283
0.00434584
0.00435474
0.00435964
0.00436075
0.00435829
0.00435247
0.0043435
0.00433159
0.00431694
0.00429976
0.00428023
0.00425855
0.00423489
0.00420942
0.00418231
0.00415372
0.0041238
0.00409268
0.00406051
0.00402741
0.00399351
0.00395893
0.00392377
0.00388814
0.00385214
0.00381587
0.00377941
0.00374286
0.0037063
0.00366979
0.00363342
0.00359724
0.00356132
0.00352572
0.00349049
0.00345568
0.00342132
0.00338746
0.00335414
0.00332138
0.0032892
0.00325763
0.00322667
0.00319633
0.0031666
0.00313749
0.00310897
0.00308102
0.0030536
0.00302667
0.00300018
0.00297407
0.00294826
0.00292267
0.00289721
0.00287178
0.00284626
0.00282054
0.00279448
0.00276795
0.00274081
0.00271292
0.00268412
0.00265427
0.00262322
0.00274982
0.00280529
0.00286104
0.00291703
0.0029732
0.00302952
0.00308592
0.00314235
0.00319875
0.00325505
0.00331118
0.00336707
0.00342263
0.00347779
0.00353245
0.00358653
0.00363991
0.00369251
0.00374419
0.00379485
0.00384437
0.00389262
0.00393945
0.00398473
0.00402831
0.00407003
0.00410973
0.00414724
0.00418238
0.00421497
0.00424482
0.00427174
0.00429552
0.00431596
0.00433285
0.00434586
0.00435476
0.00435967
0.00436078
0.00435833
0.00435252
0.00434356
0.00433166
0.00431703
0.00429987
0.00428036
0.00425869
0.00423505
0.00420961
0.00418253
0.00415396
0.00412407
0.00409298
0.00406084
0.00402777
0.00399391
0.00395936
0.00392423
0.00388864
0.00385268
0.00381645
0.00378003
0.00374352
0.003707
0.00367053
0.0036342
0.00359806
0.00356219
0.00352663
0.00349143
0.00345666
0.00342234
0.00338852
0.00335523
0.00332249
0.00329034
0.00325879
0.00322784
0.00319751
0.00316779
0.00313866
0.00311011
0.00308212
0.00305464
0.00302764
0.00300105
0.00297481
0.00294885
0.00292308
0.00289741
0.00287173
0.00284593
0.00281988
0.00279346
0.00276653
0.00273894
0.00271057
0.00268125
0.00265085
0.00261923
0.00274983
0.0028053
0.00286105
0.00291704
0.00297322
0.00302953
0.00308593
0.00314236
0.00319876
0.00325506
0.0033112
0.00336708
0.00342265
0.00347781
0.00353248
0.00358655
0.00363994
0.00369253
0.00374422
0.00379488
0.0038444
0.00389264
0.00393948
0.00398476
0.00402833
0.00407005
0.00410975
0.00414726
0.0041824
0.00421499
0.00424484
0.00427176
0.00429554
0.00431598
0.00433286
0.00434588
0.00435478
0.00435969
0.00436081
0.00435837
0.00435256
0.00434362
0.00433173
0.00431712
0.00429997
0.00428049
0.00425884
0.00423523
0.00420981
0.00418275
0.00415422
0.00412435
0.00409329
0.00406118
0.00402815
0.00399432
0.0039598
0.00392471
0.00388916
0.00385324
0.00381705
0.00378067
0.00374421
0.00370772
0.0036713
0.00363501
0.00359892
0.00356308
0.00352756
0.00349241
0.00345767
0.00342339
0.00338961
0.00335635
0.00332364
0.00329152
0.00325998
0.00322905
0.00319872
0.00316899
0.00313985
0.00311128
0.00308324
0.00305569
0.0030286
0.00300191
0.00297553
0.00294941
0.00292344
0.00289754
0.00287159
0.00284549
0.0028191
0.0027923
0.00276495
0.00273691
0.00270804
0.00267819
0.00264723
0.00261502
0.00274984
0.00280531
0.00286107
0.00291705
0.00297323
0.00302955
0.00308595
0.00314238
0.00319878
0.00325508
0.00331122
0.0033671
0.00342267
0.00347783
0.0035325
0.00358658
0.00363996
0.00369255
0.00374424
0.00379491
0.00384442
0.00389267
0.0039395
0.00398478
0.00402836
0.00407008
0.00410978
0.00414728
0.00418242
0.00421501
0.00424486
0.00427178
0.00429556
0.00431599
0.00433288
0.00434589
0.00435481
0.00435972
0.00436084
0.00435841
0.00435261
0.00434368
0.00433181
0.00431722
0.00430009
0.00428062
0.004259
0.00423541
0.00421002
0.00418299
0.00415448
0.00412464
0.00409362
0.00406154
0.00402854
0.00399475
0.00396027
0.00392522
0.0038897
0.00385382
0.00381767
0.00378134
0.00374491
0.00370847
0.0036721
0.00363585
0.0035998
0.00356401
0.00352853
0.00349342
0.00345872
0.00342448
0.00339073
0.00335751
0.00332483
0.00329273
0.00326121
0.00323029
0.00319997
0.00317023
0.00314106
0.00311245
0.00308436
0.00305674
0.00302956
0.00300274
0.00297622
0.00294992
0.00292374
0.0028976
0.00287137
0.00284494
0.0028182
0.002791
0.00276321
0.0027347
0.00270532
0.00267493
0.00264339
0.00261058
0.00274985
0.00280533
0.00286108
0.00291707
0.00297324
0.00302956
0.00308597
0.0031424
0.0031988
0.0032551
0.00331124
0.00336713
0.00342269
0.00347786
0.00353252
0.0035866