/*--------------------------------*- C++ -*----------------------------------*\
  =========                 |
  \\      /  F ield         | OpenFOAM: The Open Source CFD Toolbox
   \\    /   O peration     | Website:  https://openfoam.org
    \\  /    A nd           | Version:  10
     \\/     M anipulation  |
\*---------------------------------------------------------------------------*/
FoamFile
{
    format      ascii;
    class       volScalarField;
    location    "77000";
    object      p;
}
// * * * * * * * * * * * * * * * * * * * * * * * * * * * * * * * * * * * * * //

dimensions      [0 2 -2 0 0 0 0];

internalField   nonuniform List<scalar> 
17922
(
6.75335
6.71125
6.66834
6.62463
6.58009
6.53471
6.48849
6.4414
6.39343
6.34457
6.2948
6.24412
6.1925
6.13992
6.08638
6.03186
5.97634
5.91981
5.86224
5.80363
5.74394
5.68317
5.6213
5.5583
5.49416
5.42885
5.36235
5.29464
5.2263
5.1585
5.09184
5.02628
4.96181
4.89841
4.83606
4.77474
4.71442
4.65509
4.59673
4.53931
4.48283
4.42725
4.37256
4.31875
4.26579
4.21366
4.16235
4.11184
4.06212
4.01316
3.96495
3.91747
3.8707
3.82464
3.77925
3.73454
3.69047
3.64705
3.60424
3.56205
3.52044
3.47942
3.43896
3.39906
3.3597
3.32087
3.28256
3.24476
3.20746
3.17064
3.1343
3.09844
3.06303
3.02809
2.99358
2.95952
2.92589
2.89269
2.8599
2.82753
2.79556
2.764
2.73283
2.70205
2.67166
2.64165
2.61202
2.58277
2.55389
2.52537
2.49722
2.46943
2.442
6.75339
6.71128
6.66838
6.62467
6.58014
6.53476
6.48854
6.44146
6.39349
6.34464
6.29488
6.24419
6.19258
6.14001
6.08647
6.03196
5.97644
5.91991
5.86235
5.80374
5.74406
5.68329
5.62142
5.55843
5.49429
5.42898
5.36249
5.29478
5.22644
5.15865
5.09199
5.02644
4.96198
4.89858
4.83623
4.77491
4.7146
4.65527
4.59691
4.5395
4.48301
4.42744
4.37275
4.31894
4.26598
4.21385
4.16254
4.11203
4.06231
4.01335
3.96513
3.91765
3.87089
3.82482
3.77943
3.73472
3.69065
3.64722
3.60442
3.56222
3.52062
3.47959
3.43914
3.39924
3.35988
3.32105
3.28275
3.24495
3.20765
3.17084
3.13451
3.09865
3.06325
3.02831
2.99382
2.95976
2.92614
2.89295
2.86018
2.82782
2.79586
2.76431
2.73316
2.7024
2.67203
2.64204
2.61243
2.5832
2.55434
2.52585
2.49773
2.46997
2.44258
6.75335
6.71125
6.66835
6.62464
6.58011
6.53474
6.48852
6.44143
6.39347
6.34461
6.29485
6.24417
6.19255
6.13999
6.08645
6.03193
5.97642
5.91989
5.86232
5.80371
5.74403
5.68327
5.62139
5.5584
5.49426
5.42895
5.36246
5.29475
5.22641
5.15861
5.09195
5.0264
4.96193
4.89853
4.83618
4.77485
4.71454
4.65521
4.59684
4.53942
4.48293
4.42735
4.37266
4.31884
4.26587
4.21374
4.16242
4.11191
4.06218
4.01321
3.96499
3.9175
3.87072
3.82465
3.77925
3.73453
3.69045
3.64702
3.6042
3.562
3.52038
3.47935
3.43889
3.39898
3.35962
3.32079
3.28247
3.24467
3.20737
3.17055
3.13422
3.09836
3.06296
3.02802
2.99353
2.95948
2.92586
2.89267
2.85989
2.82754
2.79559
2.76405
2.7329
2.70215
2.67179
2.64181
2.61222
2.583
2.55416
2.52569
2.49758
2.46985
2.44248
6.75329
6.71119
6.66829
6.62458
6.58004
6.53467
6.48845
6.44136
6.3934
6.34454
6.29478
6.2441
6.19248
6.13991
6.08637
6.03185
5.97633
5.9198
5.86224
5.80362
5.74394
5.68317
5.6213
5.5583
5.49415
5.42884
5.36234
5.29463
5.22629
5.15849
5.09182
5.02626
4.96179
4.89838
4.83603
4.7747
4.71437
4.65503
4.59666
4.53924
4.48274
4.42715
4.37245
4.31863
4.26565
4.21351
4.16219
4.11167
4.06192
4.01295
3.96472
3.91722
3.87043
3.82435
3.77895
3.73421
3.69013
3.64668
3.60386
3.56164
3.52002
3.47898
3.43851
3.3986
3.35923
3.32039
3.28207
3.24426
3.20696
3.17014
3.1338
3.09794
3.06254
3.0276
2.99311
2.95906
2.92544
2.89225
2.85949
2.82714
2.79519
2.76366
2.73252
2.70178
2.67143
2.64147
2.61189
2.58269
2.55387
2.52542
2.49734
2.46963
2.44229
6.75323
6.71113
6.66823
6.62452
6.57999
6.53462
6.4884
6.44131
6.39335
6.34449
6.29473
6.24404
6.19242
6.13985
6.08631
6.03179
5.97627
5.91973
5.86217
5.80355
5.74386
5.68309
5.62122
5.55821
5.49407
5.42875
5.36225
5.29453
5.22618
5.15838
5.09171
5.02614
4.96167
4.89826
4.8359
4.77456
4.71423
4.65489
4.59651
4.53908
4.48258
4.42698
4.37228
4.31844
4.26546
4.21332
4.16198
4.11145
4.0617
4.01272
3.96448
3.91697
3.87018
3.82409
3.77867
3.73393
3.68984
3.64638
3.60355
3.56133
3.5197
3.47865
3.43818
3.39826
3.35888
3.32004
3.28171
3.2439
3.20659
3.16977
3.13344
3.09757
3.06218
3.02724
2.99274
2.9587
2.92508
2.8919
2.85914
2.82679
2.79486
2.76334
2.73221
2.70148
2.67115
2.6412
2.61164
2.58246
2.55365
2.52523
2.49717
2.46949
2.44218
6.75319
6.71109
6.66819
6.62448
6.57995
6.53458
6.48835
6.44127
6.3933
6.34444
6.29468
6.24399
6.19237
6.1398
6.08626
6.03174
5.97622
5.91968
5.86211
5.80349
5.7438
5.68303
5.62115
5.55814
5.49399
5.42868
5.36217
5.29445
5.2261
5.15829
5.09161
5.02604
4.96156
4.89815
4.83578
4.77444
4.71411
4.65476
4.59638
4.53894
4.48243
4.42683
4.37212
4.31828
4.26529
4.21313
4.16179
4.11125
4.0615
4.0125
3.96426
3.91674
3.86994
3.82384
3.77842
3.73367
3.68957
3.6461
3.60326
3.56103
3.5194
3.47834
3.43786
3.39793
3.35855
3.3197
3.28137
3.24356
3.20625
3.16943
3.13309
3.09723
3.06183
3.02689
2.9924
2.95836
2.92475
2.89157
2.85881
2.82648
2.79455
2.76304
2.73192
2.70121
2.67089
2.64095
2.61141
2.58225
2.55347
2.52506
2.49703
2.46938
2.44209
6.75315
6.71105
6.66815
6.62444
6.57991
6.53453
6.48831
6.44122
6.39326
6.3444
6.29464
6.24395
6.19233
6.13975
6.08621
6.03169
5.97616
5.91963
5.86205
5.80343
5.74374
5.68297
5.62108
5.55808
5.49392
5.4286
5.36209
5.29437
5.22601
5.1582
5.09152
5.02594
4.96146
4.89804
4.83567
4.77432
4.71398
4.65463
4.59624
4.5388
4.48228
4.42667
4.37196
4.31811
4.26511
4.21295
4.1616
4.11106
4.06129
4.01229
3.96404
3.91651
3.8697
3.82359
3.77816
3.7334
3.68929
3.64582
3.60297
3.56074
3.51909
3.47803
3.43754
3.39761
3.35822
3.31937
3.28104
3.24322
3.20591
3.16909
3.13275
3.09688
3.06149
3.02655
2.99207
2.95802
2.92442
2.89125
2.8585
2.82617
2.79426
2.76275
2.73165
2.70095
2.67064
2.64072
2.6112
2.58205
2.5533
2.52491
2.49691
2.46928
2.44203
6.7531
6.71101
6.66811
6.6244
6.57987
6.53449
6.48827
6.44118
6.39322
6.34436
6.29459
6.24391
6.19228
6.13971
6.08616
6.03164
5.97611
5.91957
5.862
5.80338
5.74368
5.68291
5.62102
5.55801
5.49385
5.42853
5.36202
5.29429
5.22593
5.15811
5.09142
5.02585
4.96136
4.89793
4.83556
4.77421
4.71386
4.6545
4.59611
4.53866
4.48213
4.42652
4.3718
4.31794
4.26494
4.21277
4.16142
4.11086
4.06109
4.01208
3.96382
3.91628
3.86947
3.82335
3.77791
3.73314
3.68902
3.64555
3.60269
3.56045
3.5188
3.47773
3.43723
3.39729
3.3579
3.31905
3.28071
3.24289
3.20558
3.16875
3.13241
3.09655
3.06116
3.02622
2.99174
2.9577
2.9241
2.89094
2.8582
2.82588
2.79397
2.76248
2.73139
2.7007
2.67041
2.64051
2.611
2.58188
2.55314
2.52479
2.49681
2.46921
2.44198
6.75307
6.71097
6.66807
6.62436
6.57983
6.53446
6.48823
6.44115
6.39318
6.34432
6.29455
6.24387
6.19224
6.13967
6.08612
6.03159
5.97607
5.91952
5.86195
5.80332
5.74363
5.68285
5.62096
5.55795
5.49379
5.42846
5.36194
5.29421
5.22585
5.15803
5.09133
5.02575
4.96126
4.89783
4.83545
4.77409
4.71374
4.65437
4.59597
4.53852
4.48199
4.42637
4.37164
4.31778
4.26477
4.21259
4.16123
4.11067
4.06089
4.01187
3.9636
3.91606
3.86923
3.82311
3.77766
3.73289
3.68876
3.64528
3.60241
3.56016
3.5185
3.47743
3.43693
3.39699
3.35759
3.31873
3.28039
3.24257
3.20525
3.16843
3.13209
3.09623
3.06084
3.02591
2.99143
2.9574
2.9238
2.89064
2.85791
2.8256
2.79371
2.76222
2.73115
2.70047
2.6702
2.64032
2.61083
2.58173
2.55301
2.52468
2.49673
2.46916
2.44196
6.75303
6.71093
6.66804
6.62433
6.57979
6.53442
6.4882
6.44111
6.39315
6.34429
6.29452
6.24383
6.1922
6.13963
6.08608
6.03155
5.97602
5.91948
5.8619
5.80327
5.74358
5.68279
5.6209
5.55789
5.49372
5.42839
5.36187
5.29414
5.22577
5.15794
5.09125
5.02566
4.96116
4.89773
4.83534
4.77398
4.71362
4.65425
4.59584
4.53838
4.48185
4.42622
4.37148
4.31762
4.2646
4.21242
4.16105
4.11048
4.06069
4.01166
3.96339
3.91584
3.86901
3.82287
3.77742
3.73263
3.6885
3.64501
3.60214
3.55988
3.51822
3.47714
3.43663
3.39669
3.35729
3.31842
3.28008
3.24226
3.20494
3.16812
3.13178
3.09592
3.06053
3.0256
2.99113
2.9571
2.92351
2.89036
2.85764
2.82534
2.79346
2.76199
2.73092
2.70027
2.67001
2.64015
2.61068
2.5816
2.55291
2.5246
2.49667
2.46913
2.44196
6.753
6.7109
6.66801
6.6243
6.57976
6.53439
6.48817
6.44108
6.39311
6.34425
6.29449
6.2438
6.19217
6.13959
6.08604
6.03151
5.97598
5.91944
5.86186
5.80323
5.74353
5.68274
5.62085
5.55783
5.49366
5.42833
5.3618
5.29407
5.22569
5.15786
5.09116
5.02557
4.96107
4.89763
4.83524
4.77387
4.71351
4.65413
4.59572
4.53825
4.48171
4.42608
4.37133
4.31746
4.26443
4.21224
4.16087
4.11029
4.0605
4.01146
3.96318
3.91562
3.86878
3.82264
3.77718
3.73239
3.68825
3.64475
3.60188
3.55961
3.51794
3.47686
3.43635
3.3964
3.35699
3.31813
3.27978
3.24196
3.20464
3.16782
3.13148
3.09562
3.06024
3.02531
2.99084
2.95682
2.92324
2.8901
2.85738
2.82509
2.79322
2.76177
2.73072
2.70008
2.66984
2.63999
2.61054
2.58149
2.55282
2.52453
2.49664
2.46912
2.44198
6.75297
6.71087
6.66798
6.62427
6.57974
6.53436
6.48814
6.44105
6.39308
6.34422
6.29445
6.24376
6.19214
6.13956
6.08601
6.03148
5.97595
5.9194
5.86182
5.80318
5.74348
5.68269
5.6208
5.55778
5.49361
5.42827
5.36174
5.294
5.22562
5.15779
5.09108
5.02549
4.96098
4.89753
4.83514
4.77376
4.7134
4.65401
4.5956
4.53812
4.48158
4.42594
4.37119
4.3173
4.26427
4.21208
4.16069
4.11011
4.06031
4.01127
3.96297
3.91541
3.86856
3.82242
3.77695
3.73215
3.68801
3.6445
3.60162
3.55935
3.51767
3.47659
3.43607
3.39611
3.35671
3.31784
3.2795
3.24167
3.20435
3.16753
3.13119
3.09534
3.05996
3.02504
2.99057
2.95656
2.92299
2.88985
2.85715
2.82487
2.79301
2.76156
2.73053
2.69991
2.66968
2.63986
2.61043
2.5814
2.55275
2.52449
2.49662
2.46913
2.44202
6.75294
6.71085
6.66795
6.62424
6.57971
6.53434
6.48812
6.44103
6.39306
6.3442
6.29443
6.24374
6.19211
6.13953
6.08598
6.03144
5.97591
5.91936
5.86178
5.80314
5.74344
5.68265
5.62075
5.55772
5.49355
5.42821
5.36168
5.29393
5.22555
5.15771
5.091
5.0254
4.96089
4.89744
4.83504
4.77366
4.71329
4.6539
4.59548
4.538
4.48145
4.4258
4.37104
4.31715
4.26412
4.21191
4.16052
4.10993
4.06012
4.01108
3.96278
3.91521
3.86835
3.8222
3.77672
3.73192
3.68777
3.64426
3.60137
3.55909
3.51741
3.47632
3.4358
3.39584
3.35643
3.31756
3.27922
3.24139
3.20407
3.16725
3.13092
3.09507
3.05969
3.02477
2.99032
2.95631
2.92275
2.88962
2.85693
2.82466
2.79281
2.76138
2.73037
2.69976
2.66955
2.63975
2.61034
2.58133
2.5527
2.52447
2.49662
2.46916
2.44208
6.75292
6.71082
6.66793
6.62422
6.57969
6.53432
6.48809
6.441
6.39304
6.34417
6.2944
6.24371
6.19208
6.1395
6.08595
6.03141
5.97588
5.91933
5.86174
5.80311
5.7434
5.68261
5.6207
5.55768
5.4935
5.42816
5.36162
5.29387
5.22548
5.15764
5.09093
5.02532
4.96081
4.89735
4.83494
4.77356
4.71318
4.65379
4.59536
4.53788
4.48132
4.42567
4.3709
4.31701
4.26396
4.21175
4.16036
4.10976
4.05994
4.01089
3.96258
3.91501
3.86815
3.82198
3.77651
3.73169
3.68754
3.64402
3.60113
3.55885
3.51716
3.47607
3.43554
3.39558
3.35617
3.3173
3.27896
3.24113
3.20381
3.16699
3.13066
3.09481
3.05944
3.02453
2.99008
2.95608
2.92252
2.88941
2.85672
2.82447
2.79264
2.76122
2.73022
2.69963
2.66944
2.63966
2.61027
2.58128
2.55268
2.52447
2.49665
2.46921
2.44216
6.7529
6.7108
6.66791
6.6242
6.57967
6.5343
6.48807
6.44098
6.39302
6.34415
6.29438
6.24369
6.19206
6.13947
6.08592
6.03139
5.97585
5.9193
5.86171
5.80307
5.74336
5.68257
5.62066
5.55763
5.49345
5.42811
5.36157
5.29381
5.22542
5.15758
5.09086
5.02525
4.96072
4.89727
4.83485
4.77347
4.71308
4.65368
4.59525
4.53776
4.48119
4.42554
4.37077
4.31687
4.26382
4.2116
4.1602
4.10959
4.05977
4.01071
3.9624
3.91482
3.86795
3.82178
3.77629
3.73148
3.68731
3.64379
3.60089
3.55861
3.51692
3.47582
3.4353
3.39533
3.35592
3.31705
3.2787
3.24088
3.20356
3.16675
3.13042
3.09457
3.0592
3.0243
2.98986
2.95587
2.92232
2.88921
2.85654
2.8243
2.79248
2.76108
2.73009
2.69952
2.66935
2.63958
2.61022
2.58125
2.55267
2.52449
2.49669
2.46928
2.44226
6.75288
6.71079
6.66789
6.62419
6.57965
6.53428
6.48806
6.44097
6.393
6.34414
6.29436
6.24367
6.19204
6.13945
6.0859
6.03136
5.97582
5.91927
5.86168
5.80304
5.74333
5.68253
5.62062
5.55759
5.49341
5.42806
5.36151
5.29376
5.22536
5.15751
5.09079
5.02517
4.96065
4.89718
4.83477
4.77337
4.71298
4.65358
4.59514
4.53765
4.48108
4.42541
4.37064
4.31673
4.26367
4.21145
4.16004
4.10943
4.0596
4.01054
3.96222
3.91463
3.86776
3.82158
3.77609
3.73127
3.6871
3.64357
3.60067
3.55838
3.51669
3.47559
3.43506
3.3951
3.35569
3.31681
3.27847
3.24064
3.20333
3.16651
3.13019
3.09435
3.05899
3.02409
2.98965
2.95567
2.92213
2.88904
2.85638
2.82415
2.79234
2.76096
2.72999
2.69943
2.66928
2.63954
2.61019
2.58124
2.55269
2.52453
2.49676
2.46937
2.44237
6.9135
6.87448
6.83471
6.79417
6.75287
6.71077
6.66788
6.62417
6.57964
6.53427
6.48805
6.44096
6.39299
6.34412
6.29435
6.24365
6.19202
6.13944
6.08588
6.03134
5.9758
5.91924
5.86165
5.80301
5.7433
5.6825
5.62059
5.55755
5.49337
5.42801
5.36147
5.2937
5.22531
5.15745
5.09072
5.02511
4.96057
4.89711
4.83468
4.77329
4.71289
4.65348
4.59504
4.53754
4.48096
4.42529
4.37051
4.3166
4.26354
4.21131
4.15989
4.10928
4.05944
4.01037
3.96205
3.91445
3.86757
3.82139
3.7759
3.73107
3.6869
3.64337
3.60046
3.55817
3.51648
3.47537
3.43484
3.39488
3.35546
3.31659
3.27825
3.24042
3.20311
3.1663
3.12998
3.09415
3.05879
3.0239
2.98947
2.9555
2.92197
2.88889
2.85624
2.82402
2.79223
2.76086
2.72991
2.69937
2.66923
2.63951
2.61018
2.58126
2.55273
2.52459
2.49684
2.46949
2.44251
6.91348
6.87446
6.83469
6.79416
6.75285
6.71076
6.66787
6.62417
6.57963
6.53426
6.48804
6.44095
6.39298
6.34411
6.29434
6.24364
6.19201
6.13942
6.08586
6.03132
5.97578
5.91922
5.86163
5.80299
5.74327
5.68247
5.62055
5.55752
5.49333
5.42797
5.36142
5.29366
5.22525
5.15739
5.09066
5.02504
4.9605
4.89703
4.8346
4.7732
4.7128
4.65339
4.59494
4.53743
4.48085
4.42518
4.37039
4.31647
4.26341
4.21117
4.15975
4.10913
4.05929
4.01021
3.96188
3.91428
3.8674
3.82122
3.77571
3.73088
3.68671
3.64317
3.60026
3.55797
3.51627
3.47517
3.43464
3.39467
3.35526
3.31638
3.27804
3.24022
3.20291
3.1661
3.12979
3.09396
3.05861
3.02373
2.98931
2.95534
2.92183
2.88875
2.85612
2.82391
2.79214
2.76078
2.72984
2.69932
2.66921
2.6395
2.6102
2.58129
2.55279
2.52467
2.49695
2.46961
2.44267
6.91347
6.87445
6.83469
6.79416
6.75285
6.71076
6.66787
6.62416
6.57963
6.53426
6.48803
6.44094
6.39297
6.3441
6.29433
6.24363
6.192
6.13941
6.08585
6.03131
5.97577
5.91921
5.86161
5.80296
5.74325
5.68244
5.62053
5.55748
5.49329
5.42793
5.36138
5.29361
5.2252
5.15734
5.09061
5.02498
4.96044
4.89696
4.83453
4.77312
4.71272
4.6533
4.59484
4.53733
4.48075
4.42507
4.37028
4.31635
4.26328
4.21104
4.15962
4.10899
4.05914
4.01006
3.96173
3.91412
3.86724
3.82105
3.77554
3.73071
3.68653
3.64299
3.60008
3.55778
3.51608
3.47498
3.43445
3.39448
3.35506
3.31619
3.27785
3.24004
3.20273
3.16593
3.12962
3.0938
3.05845
3.02358
2.98916
2.95521
2.9217
2.88864
2.85602
2.82383
2.79207
2.76073
2.72981
2.6993
2.66921
2.63952
2.61023
2.58135
2.55286
2.52477
2.49707
2.46976
2.44284
7.02615
6.98931
6.95176
6.91348
6.87446
6.83469
6.79416
6.75286
6.71076
6.66787
6.62416
6.57963
6.53426
6.48803
6.44094
6.39297
6.3441
6.29432
6.24363
6.19199
6.1394
6.08584
6.0313
5.97575
5.91919
5.86159
5.80294
5.74322
5.68242
5.6205
5.55745
5.49326
5.4279
5.36134
5.29357
5.22516
5.15729
5.09055
5.02492
4.96037
4.89689
4.83446
4.77305
4.71264
4.65321
4.59475
4.53724
4.48065
4.42496
4.37017
4.31624
4.26316
4.21092
4.15949
4.10886
4.05901
4.00992
3.96158
3.91397
3.86708
3.82089
3.77538
3.73054
3.68636
3.64282
3.59991
3.55761
3.51591
3.4748
3.43427
3.3943
3.35489
3.31602
3.27768
3.23987
3.20257
3.16577
3.12947
3.09365
3.05831
3.02345
2.98904
2.9551
2.9216
2.88855
2.85594
2.82377
2.79202
2.76069
2.72979
2.6993
2.66922
2.63956
2.61029
2.58143
2.55297
2.5249
2.49722
2.46993
2.44303
7.02615
6.98931
6.95176
6.91348
6.87447
6.8347
6.79417
6.75286
6.71077
6.66787
6.62417
6.57963
6.53426
6.48803
6.44094
6.39297
6.3441
6.29432
6.24362
6.19199
6.13939
6.08583
6.03129
5.97574
5.91918
5.86158
5.80293
5.74321
5.6824
5.62048
5.55743
5.49323
5.42787
5.36131
5.29353
5.22512
5.15725
5.0905
5.02487
4.96032
4.89683
4.83439
4.77298
4.71256
4.65313
4.59467
4.53715
4.48056
4.42487
4.37007
4.31613
4.26305
4.2108
4.15937
4.10873
4.05888
4.00979
3.96145
3.91383
3.86694
3.82074
3.77523
3.73039
3.68621
3.64266
3.59975
3.55745
3.51575
3.47464
3.43411
3.39414
3.35473
3.31587
3.27753
3.23972
3.20243
3.16563
3.12934
3.09353
3.0582
3.02334
2.98894
2.95501
2.92153
2.88849
2.85589
2.82373
2.79199
2.76069
2.7298
2.69933
2.66927
2.63962
2.61037
2.58153
2.55309
2.52504
2.49738
2.47012
2.44324
7.02616
6.98933
6.95178
6.9135
6.87448
6.83471
6.79418
6.75287
6.71078
6.66788
6.62418
6.57964
6.53427
6.48804
6.44094
6.39297
6.3441
6.29433
6.24362
6.19199
6.13939
6.08583
6.03128
5.97574
5.91917
5.86157
5.80292
5.74319
5.68238
5.62046
5.55741
5.49321
5.42784
5.36127
5.2935
5.22508
5.1572
5.09046
5.02482
4.96026
4.89677
4.83433
4.77291
4.71249
4.65306
4.59459
4.53707
4.48047
4.42478
4.36997
4.31604
4.26295
4.2107
4.15926
4.10862
4.05876
4.00967
3.96132
3.91371
3.86681
3.82061
3.77509
3.73025
3.68606
3.64252
3.5996
3.5573
3.51561
3.4745
3.43397
3.39401
3.3546
3.31573
3.2774
3.2396
3.2023
3.16552
3.12923
3.09342
3.0581
3.02325
2.98887
2.95494
2.92147
2.88845
2.85586
2.82371
2.79199
2.7607
2.72983
2.69938
2.66934
2.6397
2.61048
2.58166
2.55323
2.52521
2.49757
2.47033
2.44347
7.02619
6.98935
6.9518
6.91352
6.8745
6.83473
6.7942
6.75289
6.7108
6.6679
6.62419
6.57965
6.53428
6.48805
6.44095
6.39298
6.34411
6.29433
6.24363
6.19199
6.13939
6.08583
6.03128
5.97573
5.91917
5.86156
5.80291
5.74318
5.68237
5.62044
5.55739
5.49319
5.42781
5.36125
5.29347
5.22504
5.15717
5.09042
5.02477
4.96022
4.89672
4.83427
4.77285
4.71243
4.65299
4.59452
4.53699
4.48039
4.4247
4.36989
4.31595
4.26286
4.2106
4.15916
4.10852
4.05865
4.00956
3.96121
3.91359
3.86669
3.82049
3.77497
3.73013
3.68594
3.64239
3.59948
3.55718
3.51548
3.47437
3.43385
3.39388
3.35448
3.31562
3.27729
3.23949
3.20221
3.16542
3.12914
3.09335
3.05803
3.02319
2.98882
2.95491
2.92144
2.88843
2.85586
2.82372
2.79202
2.76074
2.72989
2.69945
2.66943
2.63981
2.61061
2.5818
2.5534
2.52539
2.49778
2.47055
2.44372
7.02622
6.98939
6.95183
6.91355
6.87453
6.83476
6.79422
6.75291
6.71082
6.66792
6.62421
6.57967
6.53429
6.48806
6.44097
6.39299
6.34412
6.29434
6.24364
6.192
6.1394
6.08583
6.03129
5.97573
5.91916
5.86156
5.8029
5.74317
5.68236
5.62043
5.55737
5.49317
5.42779
5.36122
5.29344
5.22501
5.15713
5.09038
5.02473
4.96017
4.89668
4.83422
4.7728
4.71237
4.65293
4.59446
4.53693
4.48032
4.42462
4.36981
4.31587
4.26277
4.21051
4.15907
4.10842
4.05856
4.00946
3.96111
3.91349
3.86658
3.82038
3.77486
3.73002
3.68583
3.64228
3.59937
3.55707
3.51537
3.47427
3.43374
3.39379
3.35438
3.31553
3.27721
3.23941
3.20213
3.16536
3.12908
3.09329
3.05799
3.02316
2.98879
2.95489
2.92144
2.88844
2.85588
2.82376
2.79207
2.76081
2.72997
2.69955
2.66955
2.63995
2.61076
2.58198
2.55359
2.5256
2.49801
2.4708
2.44399
7.02626
6.98942
6.95187
6.91358
6.87456
6.83479
6.79425
6.75294
6.71084
6.66794
6.62423
6.57969
6.53431
6.48808
6.44098
6.39301
6.34413
6.29435
6.24365
6.19201
6.13941
6.08584
6.03129
5.97574
5.91917
5.86156
5.8029
5.74317
5.68235
5.62042
5.55736
5.49316
5.42778
5.36121
5.29342
5.22499
5.15711
5.09035
5.0247
4.96013
4.89664
4.83418
4.77275
4.71232
4.65288
4.5944
4.53687
4.48026
4.42455
4.36974
4.31579
4.2627
4.21044
4.15899
4.10834
4.05847
4.00937
3.96102
3.9134
3.86649
3.82029
3.77477
3.72993
3.68574
3.64219
3.59928
3.55698
3.51529
3.47418
3.43366
3.39371
3.35431
3.31546
3.27714
3.23935
3.20208
3.16531
3.12904
3.09327
3.05797
3.02315
2.9888
2.95491
2.92147
2.88848
2.85594
2.82383
2.79215
2.76091
2.73008
2.69968
2.66969
2.64011
2.61094
2.58217
2.55381
2.52584
2.49826
2.47108
2.44428
7.02631
6.98947
6.95191
6.91362
6.8746
6.83482
6.79429
6.75297
6.71087
6.66797
6.62426
6.57972
6.53434
6.4881
6.44101
6.39303
6.34415
6.29437
6.24366
6.19202
6.13942
6.08585
6.0313
5.97575
5.91917
5.86156
5.8029
5.74317
5.68235
5.62042
5.55736
5.49315
5.42777
5.36119
5.2934
5.22497
5.15708
5.09032
5.02467
4.9601
4.8966
4.83414
4.77271
4.71228
4.65283
4.59435
4.53682
4.4802
4.4245
4.36968
4.31573
4.26263
4.21037
4.15892
4.10827
4.0584
4.0093
3.96094
3.91332
3.86642
3.82021
3.7747
3.72985
3.68566
3.64212
3.59921
3.55691
3.51522
3.47412
3.4336
3.39365
3.35426
3.31541
3.2771
3.23932
3.20205
3.16529
3.12903
3.09327
3.05798
3.02317
2.98883
2.95495
2.92152
2.88855
2.85602
2.82392
2.79226
2.76103
2.73022
2.69983
2.66986
2.6403
2.61115
2.5824
2.55405
2.5261
2.49854
2.47137
2.44459
7.02636
6.98952
6.95195
6.91367
6.87464
6.83486
6.79432
6.75301
6.71091
6.668
6.62429
6.57975
6.53437
6.48813
6.44103
6.39305
6.34418
6.29439
6.24368
6.19204
6.13944
6.08587
6.03131
5.97576
5.91918
5.86157
5.80291
5.74317
5.68235
5.62042
5.55735
5.49314
5.42776
5.36118
5.29339
5.22496
5.15707
5.0903
5.02465
4.96008
4.89657
4.83411
4.77268
4.71224
4.6528
4.59431
4.53677
4.48016
4.42445
4.36963
4.31568
4.26258
4.21032
4.15887
4.10821
4.05835
4.00924
3.96089
3.91326
3.86636
3.82015
3.77464
3.72979
3.68561
3.64207
3.59916
3.55686
3.51517
3.47408
3.43356
3.39362
3.35423
3.31539
3.27709
3.23931
3.20205
3.1653
3.12905
3.09329
3.05802
3.02322
2.98889
2.95502
2.92161
2.88864
2.85613
2.82405
2.7924
2.76118
2.73039
2.70002
2.67006
2.64052
2.61138
2.58265
2.55432
2.52639
2.49885
2.4717
2.44493
7.02642
6.98957
6.95201
6.91372
6.87469
6.83491
6.79437
6.75305
6.71095
6.66804
6.62432
6.57978
6.5344
6.48816
6.44106
6.39308
6.3442
6.29442
6.24371
6.19206
6.13946
6.08589
6.03133
5.97577
5.91919
5.86158
5.80292
5.74318
5.68236
5.62042
5.55736
5.49314
5.42776
5.36118
5.29338
5.22495
5.15705
5.09029
5.02463
4.96006
4.89655
4.83409
4.77265
4.71222
4.65277
4.59428
4.53674
4.48012
4.42441
4.36959
4.31564
4.26254
4.21027
4.15882
4.10817
4.0583
4.0092
3.96084
3.91322
3.86632
3.82011
3.7746
3.72976
3.68557
3.64203
3.59913
3.55684
3.51515
3.47406
3.43355
3.39361
3.35423
3.3154
3.2771
3.23933
3.20208
3.16534
3.1291
3.09335
3.05809
3.0233
2.98898
2.95512
2.92172
2.88877
2.85627
2.8242
2.79257
2.76137
2.73059
2.70024
2.6703
2.64077
2.61165
2.58293
2.55462
2.5267
2.49918
2.47205
2.4453
7.02648
6.98963
6.95207
6.91377
6.87474
6.83496
6.79442
6.7531
6.71099
6.66809
6.62437
6.57982
6.53444
6.4882
6.44109
6.39311
6.34423
6.29444
6.24373
6.19208
6.13948
6.08591
6.03135
5.97579
5.91921
5.8616
5.80293
5.74319
5.68237
5.62043
5.55736
5.49315
5.42776
5.36118
5.29338
5.22494
5.15705
5.09028
5.02462
4.96005
4.89654
4.83407
4.77263
4.7122
4.65275
4.59426
4.53672
4.4801
4.42439
4.36957
4.31561
4.26251
4.21025
4.1588
4.10814
4.05827
4.00917
3.96082
3.91319
3.86629
3.82009
3.77458
3.72974
3.68556
3.64202
3.59912
3.55683
3.51515
3.47407
3.43356
3.39363
3.35426
3.31543
3.27714
3.23938
3.20214
3.16541
3.12918
3.09344
3.05819
3.02341
2.9891
2.95526
2.92187
2.88893
2.85644
2.82439
2.79277
2.76159
2.73083
2.70049
2.67056
2.64105
2.61195
2.58325
2.55495
2.52705
2.49954
2.47243
2.44569
7.02655
6.9897
6.95213
6.91384
6.8748
6.83502
6.79447
6.75315
6.71104
6.66813
6.62441
6.57986
6.53448
6.48824
6.44113
6.39315
6.34427
6.29448
6.24376
6.19211
6.13951
6.08593
6.03137
5.97581
5.91923
5.86162
5.80295
5.74321
5.68238
5.62044
5.55737
5.49315
5.42777
5.36118
5.29338
5.22494
5.15705
5.09028
5.02462
4.96004
4.89653
4.83407
4.77262
4.71219
4.65273
4.59425
4.5367
4.48008
4.42437
4.36955
4.3156
4.2625
4.21023
4.15878
4.10813
4.05826
4.00916
3.96081
3.91319
3.86628
3.82009
3.77458
3.72974
3.68556
3.64203
3.59913
3.55685
3.51518
3.4741
3.4336
3.39368
3.35431
3.31549
3.27721
3.23946
3.20223
3.16551
3.12929
3.09356
3.05832
3.02355
2.98926
2.95543
2.92205
2.88913
2.85665
2.82462
2.79301
2.76184
2.7311
2.70077
2.67086
2.64137
2.61228
2.5836
2.55532
2.52743
2.49994
2.47284
2.44612
7.02663
6.98977
6.9522
6.9139
6.87487
6.83508
6.79453
6.75321
6.7111
6.66819
6.62446
6.57991
6.53452
6.48828
6.44117
6.39319
6.3443
6.29451
6.2438
6.19215
6.13954
6.08596
6.0314
5.97584
5.91926
5.86164
5.80297
5.74323
5.6824
5.62046
5.55739
5.49317
5.42778
5.36119
5.29339
5.22495
5.15705
5.09028
5.02462
4.96004
4.89653
4.83407
4.77262
4.71219
4.65273
4.59424
4.5367
4.48008
4.42437
4.36955
4.3156
4.2625
4.21023
4.15878
4.10813
4.05827
4.00916
3.96081
3.9132
3.8663
3.8201
3.7746
3.72976
3.68559
3.64207
3.59917
3.5569
3.51523
3.47416
3.43367
3.39375
3.35439
3.31559
3.27732
3.23958
3.20236
3.16564
3.12944
3.09372
3.05849
3.02373
2.98945
2.95563
2.92227
2.88936
2.8569
2.82488
2.79329
2.76213
2.7314
2.70109
2.6712
2.64172
2.61265
2.58399
2.55572
2.52785
2.50038
2.47329
2.44659
7.02671
6.98985
6.95228
6.91397
6.87494
6.83515
6.79459
6.75327
6.71115
6.66824
6.62452
6.57996
6.53457
6.48833
6.44122
6.39323
6.34435
6.29455
6.24384
6.19218
6.13957
6.086
6.03143
5.97587
5.91929
5.86167
5.803
5.74325
5.68242
5.62048
5.55741
5.49319
5.4278
5.36121
5.29341
5.22496
5.15707
5.0903
5.02463
4.96005
4.89654
4.83407
4.77263
4.71219
4.65274
4.59425
4.53671
4.48009
4.42438
4.36956
4.31561
4.26251
4.21025
4.1588
4.10815
4.05829
4.00919
3.96084
3.91323
3.86633
3.82014
3.77464
3.72981
3.68565
3.64212
3.59924
3.55697
3.51531
3.47425
3.43376
3.39386
3.35451
3.31571
3.27745
3.23972
3.20251
3.16581
3.12962
3.09391
3.05869
3.02395
2.98968
2.95588
2.92253
2.88964
2.85719
2.82518
2.79361
2.76247
2.73175
2.70146
2.67158
2.64212
2.61306
2.58441
2.55616
2.52831
2.50085
2.47378
2.44709
7.0268
6.98993
6.95235
6.91405
6.87501
6.83522
6.79466
6.75333
6.71122
6.6683
6.62457
6.58002
6.53463
6.48838
6.44127
6.39328
6.34439
6.2946
6.24388
6.19222
6.13961
6.08603
6.03147
5.9759
5.91932
5.8617
5.80303
5.74328
5.68245
5.62051
5.55743
5.49321
5.42782
5.36123
5.29343
5.22498
5.15709
5.09031
5.02465
4.96007
4.89656
4.83409
4.77265
4.71221
4.65276
4.59427
4.53673
4.48011
4.42441
4.36959
4.31564
4.26254
4.21028
4.15883
4.10819
4.05833
4.00923
3.96089
3.91328
3.86639
3.8202
3.77471
3.72988
3.68572
3.64221
3.59933
3.55707
3.51542
3.47436
3.43389
3.39399
3.35465
3.31587
3.27762
3.2399
3.20271
3.16602
3.12984
3.09415
3.05894
3.02421
2.98996
2.95617
2.92283
2.88995
2.85752
2.82552
2.79397
2.76284
2.73214
2.70186
2.672
2.64256
2.61352
2.58488
2.55665
2.52881
2.50137
2.47431
2.44764
7.02688
6.99002
6.95244
6.91413
6.87509
6.83529
6.79473
6.7534
6.71128
6.66837
6.62464
6.58008
6.53468
6.48844
6.44132
6.39333
6.34444
6.29465
6.24393
6.19227
6.13966
6.08608
6.03151
5.97594
5.91936
5.86174
5.80306
5.74332
5.68248
5.62054
5.55746
5.49324
5.42785
5.36126
5.29345
5.22501
5.15711
5.09034
5.02468
4.9601
4.89659
4.83412
4.77268
4.71224
4.65279
4.5943
4.53676
4.48015
4.42444
4.36963
4.31568
4.26259
4.21033
4.15889
4.10824
4.05839
4.0093
3.96096
3.91335
3.86647
3.82028
3.77479
3.72998
3.68582
3.64232
3.59944
3.55719
3.51555
3.4745
3.43404
3.39415
3.35483
3.31606
3.27782
3.24012
3.20294
3.16627
3.1301
3.09442
3.05923
3.02452
2.99027
2.9565
2.92318
2.89031
2.85789
2.82591
2.79437
2.76326
2.73258
2.70232
2.67247
2.64304
2.61402
2.5854
2.55718
2.52936
2.50193
2.47489
2.44823
7.02698
6.99011
6.95252
6.91421
6.87517
6.83537
6.79481
6.75347
6.71135
6.66843
6.6247
6.58014
6.53474
6.4885
6.44138
6.39338
6.34449
6.2947
6.24398
6.19232
6.1397
6.08612
6.03155
5.97598
5.9194
5.86178
5.8031
5.74335
5.68252
5.62057
5.5575
5.49328
5.42788
5.36129
5.29349
5.22504
5.15715
5.09037
5.02471
4.96013
4.89662
4.83416
4.77272
4.71228
4.65283
4.59435
4.53681
4.4802
4.4245
4.36968
4.31574
4.26265
4.21039
4.15896
4.10832
4.05846
4.00938
3.96104
3.91345
3.86657
3.82039
3.77491
3.7301
3.68595
3.64245
3.59959
3.55734
3.51571
3.47468
3.43423
3.39435
3.35504
3.31628
3.27806
3.24038
3.20321
3.16656
3.1304
3.09474
3.05956
3.02487
2.99064
2.95687
2.92357
2.89072
2.85832
2.82635
2.79483
2.76373
2.73307
2.70282
2.67299
2.64358
2.61457
2.58597
2.55777
2.52996
2.50255
2.47552
2.44888
7.06324
7.02707
6.9902
6.95261
6.9143
6.87525
6.83545
6.79489
6.75355
6.71143
6.6685
6.62477
6.58021
6.53481
6.48856
6.44144
6.39344
6.34455
6.29475
6.24403
6.19237
6.13975
6.08617
6.0316
5.97603
5.91944
5.86182
5.80314
5.7434
5.68256
5.62061
5.55754
5.49332
5.42792
5.36133
5.29353
5.22509
5.15719
5.09042
5.02475
4.96018
4.89667
4.83421
4.77277
4.71233
4.65289
4.59441
4.53687
4.48026
4.42456
4.36975
4.31581
4.26273
4.21048
4.15904
4.10841
4.05856
4.00948
3.96115
3.91356
3.86669
3.82052
3.77504
3.73024
3.6861
3.64261
3.59976
3.55752
3.5159
3.47488
3.43444
3.39458
3.35528
3.31654
3.27834
3.24067
3.20353
3.16689
3.13076
3.09511
3.05995
3.02526
2.99105
2.9573
2.92401
2.89118
2.85879
2.82684
2.79533
2.76426
2.73361
2.70338
2.67357
2.64417
2.61518
2.5866
2.55841
2.53062
2.50323
2.47622
2.44959
7.06334
7.02717
6.99029
6.9527
6.91439
6.87534
6.83553
6.79497
6.75363
6.7115
6.66858
6.62484
6.58028
6.53488
6.48862
6.4415
6.3935
6.34461
6.29481
6.24408
6.19242
6.13981
6.08622
6.03165
5.97608
5.91949
5.86187
5.80319
5.74344
5.6826
5.62066
5.55758
5.49336
5.42797
5.36138
5.29358
5.22513
5.15724
5.09047
5.02481
4.96023
4.89672
4.83426
4.77283
4.7124
4.65295
4.59448
4.53694
4.48034
4.42464
4.36984
4.3159
4.26282
4.21058
4.15915
4.10852
4.05868
4.00961
3.96129
3.9137
3.86684
3.82068
3.77521
3.73041
3.68628
3.6428
3.59996
3.55773
3.51612
3.47511
3.43468
3.39483
3.35555
3.31682
3.27864
3.24101
3.2039
3.16729
3.13117
3.09554
3.06039
3.02572
2.99152
2.95779
2.92451
2.89169
2.85932
2.82739
2.7959
2.76483
2.7342
2.70399
2.6742
2.64482
2.61585
2.58728
2.55911
2.53134
2.50396
2.47697
2.45035
7.06344
7.02727
6.99039
6.9528
6.91448
6.87542
6.83562
6.79505
6.75371
6.71158
6.66865
6.62491
6.58035
6.53494
6.48869
6.44157
6.39357
6.34467
6.29487
6.24414
6.19248
6.13986
6.08628
6.0317
5.97613
5.91954
5.86192
5.80324
5.74349
5.68265
5.62071
5.55763
5.49341
5.42802
5.36143
5.29363
5.22519
5.15729
5.09053
5.02487
4.9603
4.89679
4.83433
4.7729
4.71247
4.65303
4.59456
4.53703
4.48043
4.42474
4.36994
4.31601
4.26294
4.2107
4.15928
4.10866
4.05882
4.00976
3.96144
3.91386
3.86701
3.82085
3.77539
3.73061
3.68649
3.64302
3.60018
3.55797
3.51637
3.47536
3.43495
3.39511
3.35584
3.31713
3.27898
3.24139
3.20432
3.16775
3.13165
3.09603
3.06089
3.02623
2.99205
2.95833
2.92507
2.89226
2.8599
2.82799
2.79652
2.76547
2.73486
2.70466
2.67489
2.64553
2.61658
2.58803
2.55988
2.53213
2.50477
2.47779
7.06355
7.02737
6.99049
6.95289
6.91457
6.87551
6.8357
6.79513
6.75379
6.71166
6.66873
6.62499
6.58042
6.53502
6.48876
6.44163
6.39363
6.34474
6.29493
6.2442
6.19254
6.13992
6.08633
6.03176
5.97619
5.9196
5.86197
5.80329
5.74355
5.68271
5.62076