/*--------------------------------*- C++ -*----------------------------------*\
  =========                 |
  \\      /  F ield         | OpenFOAM: The Open Source CFD Toolbox
   \\    /   O peration     | Website:  https://openfoam.org
    \\  /    A nd           | Version:  10
     \\/     M anipulation  |
\*---------------------------------------------------------------------------*/
FoamFile
{
    format      ascii;
    class       volScalarField;
    location    "11000";
    object      yPlus;
}
// * * * * * * * * * * * * * * * * * * * * * * * * * * * * * * * * * * * * * //

dimensions      [0 0 0 0 0 0 0];

internalField   uniform 0;

boundaryField
{
    right
    {
        type            cyclic;
    }
    left
    {
        type            cyclic;
    }
    outerWall
    {
        type            calculated;
        value           nonuniform List<scalar> 0();
    }
    stirrerWall
    {
        type            calculated;
        value           nonuniform List<scalar> 
98
(
0.0311604
0.0304536
0.0294869
0.0285471
0.0278638
0.027434
0.0272212
0.0274949
0.0285138
0.0303945
0.0334641
0.0381744
0.0448627
0.0541802
0.0674414
0.0872322
0.119547
0.179999
0.31344
0.704035
5.64709
4.28164
3.39573
2.84355
2.51652
2.31107
2.17056
2.06699
1.9836
1.91259
1.8511
1.79727
1.74966
1.70715
1.66887
1.63414
1.60243
1.5733
1.54642
1.5215
1.49832
1.47668
1.4564
1.43736
1.41944
1.40251
1.38648
1.37123
1.35664
1.3426
1.32895
1.31552
1.30203
1.28812
1.27326
1.25656
1.23873
1.21819
1.18361
1.05752
2.0519
2.1642
2.28128
2.40259
2.52773
2.65628
2.78793
2.92242
3.05895
3.19744
3.33836
3.48326
3.63593
3.792
3.95192
4.11603
4.28479
4.45897
4.63979
4.82859
5.02524
5.23106
5.44758
5.67658
5.92019
6.18096
6.46191
6.76651
7.09933
7.466
7.87335
8.32863
8.8361
9.40051
10.042
10.7838
11.5872
12.4686
)
;
    }
    top
    {
        type            empty;
    }
    bottom
    {
        type            empty;
    }
    procBoundary0to1
    {
        type            processor;
        value           uniform 0;
    }
    procBoundary0to3
    {
        type            processor;
        value           uniform 0;
    }
}


// ************************************************************************* //
