/*--------------------------------*- C++ -*----------------------------------*\
  =========                 |
  \\      /  F ield         | OpenFOAM: The Open Source CFD Toolbox
   \\    /   O peration     | Website:  https://openfoam.org
    \\  /    A nd           | Version:  10
     \\/     M anipulation  |
\*---------------------------------------------------------------------------*/
FoamFile
{
    format      ascii;
    class       volScalarField;
    location    "76000";
    object      Co;
}
// * * * * * * * * * * * * * * * * * * * * * * * * * * * * * * * * * * * * * //

dimensions      [0 0 0 0 0 0 0];

internalField   nonuniform List<scalar> 
17808
(
7069.56
6636.01
6442.59
6310.34
6209.12
6127.09
6057.99
5998.16
5945.33
5897.95
5854.94
5815.53
5779.1
5745.21
5713.48
5683.64
5655.44
5628.69
5603.23
5578.93
5555.65
5533.31
5511.82
5491.11
5471.1
5451.75
5432.99
5414.8
5397.11
5379.91
5363.15
5346.8
5330.84
5315.25
5300
5285.07
5270.45
5256.11
5242.03
5228.21
5214.63
5201.27
5188.13
5175.19
5162.45
5149.89
5137.49
5125.27
5113.19
5101.27
5089.48
5077.83
5066.3
5054.89
5043.6
5032.41
5021.32
5010.33
4999.42
4988.6
4977.86
4967.2
4956.6
4946.07
4935.6
4925.19
4914.83
4904.51
4894.24
4884.01
4873.81
4863.65
4853.51
4843.39
4833.29
4823.21
4813.14
4803.07
4793.01
4782.95
4772.88
4762.8
4752.7
4742.59
4732.45
4722.29
4712.09
4701.86
4691.58
4681.25
4670.87
4660.44
6852.65
6425.72
6236.18
6108.54
6012.26
5934.93
5870.1
5814.09
5764.6
5720.15
5679.69
5642.51
5608.05
5575.9
5545.74
5517.29
5490.36
5464.77
5440.37
5417.04
5394.67
5373.18
5352.49
5332.52
5313.23
5294.55
5276.43
5258.85
5241.75
5225.1
5208.88
5193.06
5177.61
5162.5
5147.73
5133.25
5119.07
5105.16
5091.51
5078.1
5064.92
5051.96
5039.21
5026.65
5014.27
5002.08
4990.04
4978.17
4966.44
4954.86
4943.41
4932.09
4920.89
4909.81
4898.84
4887.97
4877.19
4866.51
4855.92
4845.4
4834.97
4824.6
4814.31
4804.08
4793.9
4783.79
4773.72
4763.7
4753.72
4743.77
4733.87
4723.99
4714.14
4704.31
4694.5
4684.7
4674.92
4665.14
4655.36
4645.59
4635.8
4626.01
4616.2
4606.38
4596.53
4586.66
4576.75
4566.81
4556.82
4546.79
4536.71
4526.57
6653.92
6238.98
6053.98
5928.83
5834.4
5758.69
5695.47
5641.08
5593.22
5550.37
5511.48
5475.8
5442.77
5411.97
5383.08
5355.82
5330.01
5305.46
5282.04
5259.63
5238.13
5217.46
5197.53
5178.3
5159.7
5141.68
5124.2
5107.21
5090.69
5074.6
5058.92
5043.61
5028.65
5014.03
4999.72
4985.7
4971.96
4958.47
4945.24
4932.24
4919.45
4906.88
4894.51
4882.32
4870.31
4858.47
4846.79
4835.26
4823.87
4812.63
4801.51
4790.52
4779.64
4768.87
4758.21
4747.65
4737.19
4726.81
4716.52
4706.3
4696.17
4686.1
4676.1
4666.15
4656.27
4646.44
4636.66
4626.92
4617.22
4607.56
4597.94
4588.34
4578.77
4569.22
4559.69
4550.17
4540.67
4531.17
4521.67
4512.17
4502.66
4493.15
4483.62
4474.08
4464.51
4454.92
4445.3
4435.64
4425.94
4416.2
4406.4
4396.55
6460.88
6057.53
5877.7
5756.08
5664.27
5590.56
5528.98
5476.01
5429.43
5387.78
5350.04
5315.46
5283.5
5253.73
5225.83
5199.54
5174.65
5150.99
5128.43
5106.84
5086.12
5066.2
5046.99
5028.45
5010.5
4993.11
4976.24
4959.84
4943.88
4928.33
4913.16
4898.36
4883.89
4869.73
4855.88
4842.3
4828.99
4815.93
4803.1
4790.5
4778.11
4765.91
4753.91
4742.09
4730.43
4718.94
4707.61
4696.42
4685.37
4674.45
4663.65
4652.98
4642.42
4631.96
4621.61
4611.35
4601.19
4591.11
4581.11
4571.19
4561.34
4551.56
4541.84
4532.18
4522.58
4513.03
4503.53
4494.07
4484.65
4475.26
4465.91
4456.59
4447.29
4438.01
4428.75
4419.5
4410.27
4401.04
4391.81
4382.58
4373.35
4364.11
4354.85
4345.58
4336.29
4326.97
4317.62
4308.24
4298.81
4289.35
4279.83
4270.27
6273.86
5881.61
5706.4
5588.07
5498.8
5427.19
5367.39
5315.98
5270.79
5230.4
5193.82
5160.31
5129.36
5100.55
5073.56
5048.14
5024.09
5001.24
4979.44
4958.6
4938.59
4919.36
4900.82
4882.91
4865.59
4848.8
4832.49
4816.65
4801.22
4786.19
4771.53
4757.21
4743.21
4729.52
4716.1
4702.96
4690.07
4677.42
4664.99
4652.78
4640.76
4628.94
4617.3
4605.84
4594.54
4583.39
4572.39
4561.53
4550.81
4540.21
4529.73
4519.37
4509.11
4498.96
4488.91
4478.95
4469.08
4459.29
4449.58
4439.94
4430.37
4420.87
4411.43
4402.05
4392.72
4383.45
4374.21
4365.02
4355.87
4346.75
4337.67
4328.61
4319.58
4310.56
4301.57
4292.58
4283.61
4274.64
4265.68
4256.72
4247.75
4238.77
4229.78
4220.77
4211.74
4202.69
4193.61
4184.49
4175.34
4166.14
4156.9
4147.61
6092.76
5711.61
5541.04
5425.89
5338.98
5269.29
5211.13
5161.14
5117.24
5078.03
5042.52
5010.03
4980.03
4952.12
4925.99
4901.38
4878.11
4856
4834.93
4814.77
4795.44
4776.84
4758.92
4741.62
4724.87
4708.64
4692.88
4677.56
4662.65
4648.12
4633.93
4620.08
4606.54
4593.28
4580.3
4567.58
4555.09
4542.84
4530.8
4518.96
4507.32
4495.87
4484.58
4473.47
4462.5
4451.69
4441.02
4430.49
4420.08
4409.8
4399.63
4389.57
4379.62
4369.76
4360
4350.33
4340.74
4331.24
4321.81
4312.45
4303.16
4293.93
4284.76
4275.65
4266.59
4257.57
4248.61
4239.68
4230.79
4221.93
4213.11
4204.31
4195.53
4186.77
4178.03
4169.31
4160.59
4151.88
4143.17
4134.46
4125.75
4117.03
4108.29
4099.54
4090.77
4081.98
4073.15
4064.3
4055.41
4046.48
4037.5
4028.47
5917.14
5546.88
5381.02
5269.07
5184.52
5116.72
5060.13
5011.5
4968.8
4930.67
4896.17
4864.6
4835.47
4808.38
4783.03
4759.17
4736.61
4715.19
4694.77
4675.26
4656.54
4638.55
4621.21
4604.46
4588.26
4572.56
4557.31
4542.49
4528.07
4514
4500.28
4486.88
4473.77
4460.94
4448.37
4436.05
4423.96
4412.09
4400.43
4388.96
4377.68
4366.58
4355.64
4344.86
4334.23
4323.75
4313.4
4303.18
4293.08
4283.11
4273.24
4263.48
4253.82
4244.25
4234.78
4225.39
4216.08
4206.85
4197.69
4188.61
4179.58
4170.62
4161.72
4152.87
4144.07
4135.31
4126.6
4117.93
4109.29
4100.69
4092.12
4083.57
4075.04
4066.54
4058.05
4049.57
4041.1
4032.64
4024.18
4015.72
4007.25
3998.78
3990.3
3981.79
3973.27
3964.73
3956.16
3947.56
3938.92
3930.25
3921.53
3912.75
5746.71
5387.04
5225.82
5117
5034.79
4968.88
4913.85
4866.56
4825.04
4787.96
4754.41
4723.73
4695.43
4669.11
4644.49
4621.33
4599.44
4578.66
4558.86
4539.94
4521.8
4504.36
4487.57
4471.35
4455.66
4440.45
4425.69
4411.35
4397.38
4383.76
4370.48
4357.5
4344.81
4332.39
4320.21
4308.28
4296.57
4285.08
4273.78
4262.67
4251.74
4240.97
4230.37
4219.92
4209.62
4199.45
4189.42
4179.51
4169.71
4160.03
4150.46
4140.99
4131.61
4122.33
4113.13
4104.02
4094.98
4086.02
4077.13
4068.31
4059.55
4050.84
4042.2
4033.6
4025.05
4016.55
4008.09
3999.67
3991.28
3982.92
3974.59
3966.29
3958.01
3949.75
3941.5
3933.27
3925.04
3916.82
3908.6
3900.38
3892.16
3883.93
3875.69
3867.43
3859.15
3850.85
3842.53
3834.17
3825.78
3817.35
3808.88
3800.36
5581.25
5231.89
5075.2
4969.44
4889.52
4825.45
4771.95
4725.98
4685.61
4649.57
4616.96
4587.14
4559.63
4534.07
4510.15
4487.66
4466.4
4446.23
4427.02
4408.66
4391.07
4374.16
4357.88
4342.16
4326.95
4312.21
4297.91
4284.01
4270.48
4257.3
4244.43
4231.86
4219.56
4207.53
4195.74
4184.18
4172.84
4161.7
4150.75
4139.99
4129.39
4118.96
4108.68
4098.56
4088.57
4078.71
4068.97
4059.36
4049.86
4040.47
4031.18
4021.99
4012.9
4003.89
3994.96
3986.12
3977.35
3968.65
3960.02
3951.45
3942.94
3934.5
3926.1
3917.75
3909.45
3901.19
3892.98
3884.8
3876.65
3868.53
3860.44
3852.38
3844.34
3836.31
3828.3
3820.3
3812.31
3804.32
3796.34
3788.36
3780.37
3772.37
3764.37
3756.34
3748.31
3740.24
3732.16
3724.04
3715.89
3707.7
3699.47
3691.2
5420.62
5081.28
4929.02
4826.23
4748.56
4686.29
4634.29
4589.6
4550.36
4515.32
4483.63
4454.65
4427.92
4403.07
4379.84
4357.99
4337.35
4317.76
4299.11
4281.29
4264.22
4247.81
4232.02
4216.77
4202.02
4187.74
4173.87
4160.4
4147.28
4134.5
4122.03
4109.85
4097.94
4086.28
4074.85
4063.65
4052.66
4041.86
4031.25
4020.82
4010.55
4000.44
3990.48
3980.66
3970.97
3961.41
3951.97
3942.65
3933.44
3924.33
3915.32
3906.4
3897.58
3888.83
3880.17
3871.59
3863.08
3854.63
3846.26
3837.94
3829.68
3821.48
3813.32
3805.22
3797.16
3789.14
3781.16
3773.22
3765.31
3757.42
3749.57
3741.73
3733.92
3726.12
3718.34
3710.57
3702.81
3695.06
3687.3
3679.55
3671.79
3664.02
3656.24
3648.45
3640.64
3632.81
3624.95
3617.07
3609.15
3601.2
3593.21
3585.17
5264.66
4935.06
4787.13
4687.24
4611.76
4551.24
4500.7
4457.27
4419.13
4385.08
4354.27
4326.11
4300.13
4275.99
4253.41
4232.18
4212.13
4193.11
4175
4157.69
4141.12
4125.19
4109.86
4095.07
4080.76
4066.9
4053.45
4040.39
4027.67
4015.28
4003.18
3991.37
3979.83
3968.52
3957.45
3946.59
3935.94
3925.47
3915.19
3905.07
3895.12
3885.32
3875.66
3866.14
3856.74
3847.48
3838.32
3829.28
3820.35
3811.51
3802.77
3794.12
3785.55
3777.07
3768.67
3760.34
3752.08
3743.88
3735.75
3727.68
3719.66
3711.7
3703.78
3695.91
3688.09
3680.3
3672.55
3664.84
3657.15
3649.5
3641.87
3634.26
3626.67
3619.1
3611.54
3604
3596.46
3588.92
3581.39
3573.86
3566.32
3558.78
3551.22
3543.65
3536.07
3528.46
3520.83
3513.17
3505.48
3497.76
3489.99
3482.18
5113.22
4793.08
4649.37
4552.31
4478.97
4420.16
4371.05
4328.84
4291.77
4258.67
4228.74
4201.36
4176.12
4152.66
4130.72
4110.1
4090.62
4072.14
4054.54
4037.74
4021.65
4006.18
3991.3
3976.94
3963.05
3949.6
3936.56
3923.88
3911.54
3899.52
3887.79
3876.34
3865.14
3854.18
3843.44
3832.91
3822.58
3812.43
3802.46
3792.65
3783
3773.5
3764.13
3754.9
3745.79
3736.8
3727.93
3719.16
3710.49
3701.92
3693.44
3685.05
3676.74
3668.51
3660.35
3652.27
3644.25
3636.3
3628.41
3620.57
3612.79
3605.06
3597.37
3589.73
3582.14
3574.58
3567.05
3559.56
3552.1
3544.67
3537.26
3529.87
3522.5
3515.15
3507.8
3500.48
3493.15
3485.84
3478.52
3471.2
3463.88
3456.55
3449.22
3441.86
3434.49
3427.11
3419.69
3412.25
3404.78
3397.28
3389.74
3382.15
4966.16
4655.22
4515.61
4421.31
4350.04
4292.9
4245.18
4204.16
4168.14
4135.98
4106.89
4080.29
4055.75
4032.96
4011.64
3991.6
3972.68
3954.72
3937.63
3921.31
3905.68
3890.67
3876.21
3862.27
3848.79
3835.73
3823.07
3810.76
3798.79
3787.13
3775.75
3764.64
3753.77
3743.14
3732.73
3722.51
3712.49
3702.65
3692.98
3683.47
3674.11
3664.89
3655.81
3646.86
3638.02
3629.31
3620.7
3612.19
3603.78
3595.47
3587.24
3579.1
3571.04
3563.06
3555.14
3547.3
3539.52
3531.8
3524.14
3516.53
3508.98
3501.47
3494.02
3486.6
3479.22
3471.88
3464.58
3457.3
3450.06
3442.84
3435.64
3428.47
3421.31
3414.17
3407.04
3399.92
3392.81
3385.71
3378.6
3371.49
3364.38
3357.26
3350.14
3342.99
3335.84
3328.66
3321.46
3314.24
3306.98
3299.69
3292.36
3285
4823.35
4521.34
4385.73
4294.1
4224.86
4169.34
4122.98
4083.12
4048.12
4016.87
3988.6
3962.75
3938.91
3916.76
3896.05
3876.58
3858.19
3840.75
3824.15
3808.3
3793.11
3778.53
3764.49
3750.95
3737.86
3725.18
3712.89
3700.94
3689.32
3678
3666.96
3656.18
3645.64
3635.32
3625.21
3615.31
3605.59
3596.04
3586.66
3577.43
3568.35
3559.41
3550.61
3541.92
3533.35
3524.89
3516.54
3508.29
3500.14
3492.07
3484.09
3476.19
3468.37
3460.62
3452.94
3445.33
3437.78
3430.29
3422.86
3415.48
3408.14
3400.86
3393.62
3386.42
3379.26
3372.13
3365.04
3357.98
3350.94
3343.93
3336.95
3329.98
3323.03
3316.09
3309.17
3302.26
3295.35
3288.45
3281.55
3274.64
3267.74
3260.82
3253.9
3246.96
3240.01
3233.04
3226.05
3219.03
3211.98
3204.9
3197.79
3190.63
4684.67
4391.34
4259.61
4170.59
4103.32
4049.37
4004.32
3965.6
3931.6
3901.23
3873.76
3848.65
3825.48
3803.96
3783.84
3764.92
3747.05
3730.11
3713.98
3698.58
3683.83
3669.66
3656.03
3642.88
3630.16
3617.86
3605.92
3594.32
3583.04
3572.05
3561.33
3550.86
3540.63
3530.62
3520.82
3511.2
3501.77
3492.51
3483.41
3474.46
3465.65
3456.97
3448.43
3440
3431.69
3423.48
3415.38
3407.38
3399.46
3391.64
3383.9
3376.23
3368.64
3361.13
3353.68
3346.29
3338.96
3331.69
3324.48
3317.31
3310.2
3303.13
3296.1
3289.11
3282.16
3275.24
3268.35
3261.5
3254.67
3247.86
3241.08
3234.31
3227.56
3220.83
3214.1
3207.39
3200.68
3193.98
3187.28
3180.57
3173.87
3167.15
3160.43
3153.69
3146.94
3140.17
3133.37
3126.56
3119.71
3112.83
3105.92
3098.97
4549.98
4265.08
4137.13
4050.65
3985.29
3932.88
3889.11
3851.49
3818.45
3788.95
3762.26
3737.86
3715.35
3694.44
3674.89
3656.51
3639.15
3622.69
3607.02
3592.05
3577.73
3563.97
3550.72
3537.95
3525.6
3513.65
3502.06
3490.8
3479.84
3469.17
3458.76
3448.6
3438.67
3428.95
3419.44
3410.11
3400.95
3391.96
3383.13
3374.45
3365.9
3357.48
3349.19
3341.01
3332.95
3324.99
3317.13
3309.36
3301.68
3294.09
3286.58
3279.14
3271.78
3264.48
3257.25
3250.09
3242.98
3235.92
3228.92
3221.97
3215.06
3208.2
3201.37
3194.59
3187.84
3181.13
3174.44
3167.78
3161.15
3154.54
3147.96
3141.39
3134.83
3128.29
3121.77
3115.25
3108.73
3102.22
3095.71
3089.2
3082.69
3076.17
3069.63
3063.09
3056.53
3049.96
3043.36
3036.74
3030.09
3023.41
3016.7
3009.94
4419.18
4142.47
4018.19
3934.17
3870.68
3819.76
3777.24
3740.69
3708.59
3679.93
3654
3630.29
3608.42
3588.1
3569.11
3551.25
3534.38
3518.39
3503.17
3488.63
3474.71
3461.34
3448.48
3436.07
3424.08
3412.47
3401.21
3390.28
3379.64
3369.28
3359.17
3349.31
3339.67
3330.23
3320.99
3311.94
3303.05
3294.33
3285.75
3277.32
3269.03
3260.86
3252.81
3244.88
3237.05
3229.33
3221.7
3214.16
3206.71
3199.35
3192.06
3184.84
3177.7
3170.62
3163.6
3156.64
3149.74
3142.9
3136.1
3129.35
3122.65
3115.99
3109.36
3102.78
3096.23
3089.71
3083.22
3076.76
3070.32
3063.9
3057.51
3051.13
3044.76
3038.41
3032.07
3025.74
3019.42
3013.1
3006.77
3000.45
2994.12
2987.79
2981.45
2975.09
2968.72
2962.34
2955.93
2949.5
4292.15
4023.39
3902.68
3821.06
3759.37
3709.91
3668.6
3633.09
3601.91
3574.06
3548.87
3525.83
3504.59
3484.85
3466.39
3449.04
3432.66
3417.12
3402.33
3388.21
3374.68
3361.7
3349.2
3337.15
3325.5
3314.23
3303.29
3292.67
3282.34
3272.28
3262.47
3252.89
3243.52
3234.36
3225.39
3216.6
3207.98
3199.51
3191.19
3183
3174.95
3167.02
3159.21
3151.51
3143.92
3136.42
3129.02
3121.7
3114.48
3107.33
3100.25
3093.25
3086.31
3079.44
3072.63
3065.88
3059.19
3052.54
3045.95
3039.4
3032.89
3026.42
3019.99
3013.6
3007.24
3000.91
2994.61
2988.34
2982.09
2975.86
2969.65
2963.46
2957.28
2951.11
2944.96
2938.81
2932.67
2926.53
2920.39
2914.25
2908.1
2901.95
2895.79
2889.62
2883.43
2877.23
2871.01
2864.76
4168.78
3907.74
3790.49
3711.21
3651.28
3603.23
3563.1
3528.6
3498.31
3471.25
3446.78
3424.4
3403.76
3384.58
3366.65
3349.8
3333.88
3318.78
3304.42
3290.7
3277.56
3264.95
3252.81
3241.1
3229.79
3218.83
3208.21
3197.89
3187.86
3178.09
3168.56
3159.26
3150.17
3141.27
3132.56
3124.02
3115.65
3107.43
3099.35
3091.41
3083.59
3075.89
3068.31
3060.84
3053.47
3046.19
3039
3031.91
3024.89
3017.95
3011.08
3004.29
2997.56
2990.89
2984.28
2977.73
2971.23
2964.78
2958.38
2952.02
2945.7
2939.43
2933.19
2926.98
2920.81
2914.67
2908.55
2902.46
2896.39
2890.34
2884.31
2878.3
2872.3
2866.31
2860.34
2854.37
2848.4
2842.44
2836.48
2830.52
2824.55
2818.58
2812.59
2806.6
2800.59
2794.57
2788.52
2782.45
4048.96
3795.43
3681.54
3604.52
3546.31
3499.63
3460.65
3427.13
3397.7
3371.42
3347.64
3325.9
3305.85
3287.22
3269.8
3253.43
3237.96
3223.3
3209.34
3196.01
3183.25
3170.99
3159.2
3147.83
3136.84
3126.2
3115.88
3105.86
3096.12
3086.63
3077.37
3068.34
3059.51
3050.87
3042.41
3034.12
3025.99
3018.01
3010.16
3002.45
2994.86
2987.39
2980.03
2972.78
2965.62
2958.56
2951.58
2944.69
2937.88
2931.14
2924.48
2917.88
2911.35
2904.88
2898.47
2892.11
2885.8
2879.54
2873.32
2867.15
2861.02
2854.93
2848.87
2842.85
2836.86
2830.89
2824.95
2819.04
2813.15
2807.28
2801.43
2795.59
2789.76
2783.95
2778.15
2772.35
2766.56
2760.77
2754.98
2749.19
2743.39
2737.59
2731.78
2725.96
2720.12
3932.59
3686.35
3575.73
3500.92
3444.37
3399.02
3361.15
3328.59
3300
3274.47
3251.37
3230.25
3210.77
3192.67
3175.75
3159.84
3144.82
3130.57
3117.01
3104.06
3091.66
3079.76
3068.3
3057.26
3046.58
3036.25
3026.22
3016.49
3007.03
2997.81
2988.82
2980.04
2971.47
2963.08
2954.87
2946.82
2938.92
2931.17
2923.55
2916.06
2908.7
2901.44
2894.3
2887.25
2880.31
2873.45
2866.68
2859.99
2853.38
2846.84
2840.37
2833.97
2827.63
2821.34
2815.12
2808.94
2802.82
2796.74
2790.71
2784.72
2778.77
2772.86
2766.98
2761.13
2755.31
2749.52
2743.76
2738.02
2732.3
2726.6
2720.91
2715.25
2709.59
2703.95
2698.31
2692.68
2687.06
2681.44
2675.82
2670.19
2664.57
2658.93
2653.29
2647.64
2641.97
3819.56
3580.4
3472.96
3400.29
3345.36
3301.31
3264.52
3232.89
3205.11
3180.31
3157.87
3137.36
3118.43
3100.85
3084.41
3068.96
3054.36
3040.52
3027.35
3014.77
3002.73
2991.16
2980.03
2969.3
2958.93
2948.89
2939.16
2929.7
2920.51
2911.55
2902.82
2894.3
2885.97
2877.83
2869.85
2862.03
2854.36
2846.84
2839.44
2832.17
2825.01
2817.97
2811.03
2804.19
2797.45
2790.79
2784.22
2777.72
2771.3
2764.96
2758.68
2752.46
2746.31
2740.21
2734.16
2728.17
2722.23
2716.33
2710.47
2704.66
2698.88
2693.14
2687.43
2681.76
2676.11
2670.49
2664.89
2659.32
2653.77
2648.23
2642.71
2637.21
2631.72
2626.24
2620.77
2615.3
2609.84
2604.38
2598.93
2593.46
2588
2582.53
2577.05
2571.56
2566.06
3709.79
3477.51
3373.16
3302.56
3249.2
3206.41
3170.67
3139.95
3112.97
3088.87
3067.08
3047.15
3028.76
3011.68
2995.71
2980.7
2966.52
2953.07
2940.28
2928.06
2916.36
2905.12
2894.31
2883.89
2873.81
2864.06
2854.61
2845.42
2836.49
2827.79
2819.31
2811.04
2802.95
2795.03
2787.29
2779.69
2772.25
2764.94
2757.75
2750.69
2743.75
2736.91
2730.17
2723.53
2716.98
2710.52
2704.13
2697.83
2691.6
2685.43
2679.34
2673.3
2667.33
2661.41
2655.54
2649.72
2643.95
2638.22
2632.54
2626.89
2621.29
2615.71
2610.17
2604.66
2599.18
2593.72
2588.29
2582.88
2577.49
2572.11
2566.76
2561.41
2556.08
2550.76
2545.45
2540.14
2534.84
2529.54
2524.24
2518.94
2513.63
2508.32
2503
2497.67
2492.32
3603.18
3377.57
3276.22
3207.65
3155.82
3114.24
3079.53
3049.68
3023.47
3000.07
2978.89
2959.53
2941.68
2925.08
2909.57
2894.98
2881.21
2868.15
2855.72
2843.85
2832.48
2821.57
2811.07
2800.94
2791.15
2781.68
2772.5
2763.58
2754.9
2746.45
2738.21
2730.17
2722.32
2714.63
2707.11
2699.73
2692.5
2685.4
2678.43
2671.57
2664.82
2658.18
2651.64
2645.19
2638.83
2632.55
2626.36
2620.23
2614.18
2608.2
2602.28
2596.42
2590.62
2584.87
2579.17
2573.53
2567.92
2562.36
2556.85
2551.36
2545.92
2540.51
2535.13
2529.78
2524.46
2519.16
2513.89
2508.63
2503.4
2498.18
2492.98
2487.79
2482.62
2477.45
2472.29
2467.14
2461.99
2456.85
2451.7
2446.55
2441.4
2436.24
2431.07
2425.89
2420.7
3499.64
3280.52
3182.07
3115.47
3065.12
3024.74
2991.01
2962.02
2936.56
2913.82
2893.26
2874.45
2857.1
2840.98
2825.91
2811.74
2798.36
2785.67
2773.6
2762.07
2751.03
2740.43
2730.22
2720.39
2710.88
2701.68
2692.76
2684.09
2675.66
2667.46
2659.46
2651.65
2644.01
2636.55
2629.24
2622.08
2615.05
2608.16
2601.38
2594.72
2588.17
2581.72
2575.37
2569.11
2562.93
2556.84
2550.82
2544.87
2539
2533.19
2527.44
2521.75
2516.12
2510.54
2505.01
2499.52
2494.08
2488.69
2483.33
2478.01
2472.72
2467.47
2462.24
2457.05
2451.88
2446.74
2441.62
2436.52
2431.44
2426.37
2421.32
2416.29
2411.26
2406.24
2401.24
2396.23
2391.23
2386.24
2381.24
2376.24
2371.24
2366.23
2361.21
2356.18
2351.14
3399.07
3186.25
3090.63
3025.94
2977.03
2937.8
2905.04
2876.88
2852.15
2830.06
2810.08
2791.81
2774.96
2759.3
2744.66
2730.9
2717.9
2705.58
2693.85
2682.64
2671.92
2661.62
2651.71
2642.16
2632.92
2623.98
2615.31
2606.9
2598.71
2590.74
2582.97
2575.38
2567.97
2560.72
2553.62
2546.66
2539.84
2533.14
2526.56
2520.1
2513.73
2507.47
2501.3
2495.22
2489.22
2483.3
2477.46
2471.68
2465.98
2460.34
2454.75
2449.23
2443.76
2438.34
2432.97
2427.65
2422.37
2417.12
2411.92
2406.76
2401.62
2396.52
2391.45
2386.41
2381.39
2376.4
2371.43
2366.48
2361.54
2356.62
2351.72
2346.83
2341.95
2337.08
2332.22
2327.36
2322.51
2317.65
2312.8
2307.95
2303.09
2298.22
2293.35
2288.47
2283.57
3301.39
3094.69
3001.82
2938.99
2891.48
2853.37
2821.55
2794.19
2770.17
2748.71
2729.3
2711.56
2695.19
2679.98
2665.76
2652.39
2639.76
2627.79
2616.39
2605.51
2595.09
2585.09
2575.46
2566.18
2557.21
2548.53
2540.11
2531.93
2523.98
2516.24
2508.69
2501.32
2494.12
2487.08
2480.18
2473.42
2466.8
2460.29
2453.9
2447.62
2441.44
2435.35
2429.36
2423.45
2417.63
2411.88
2406.21
2400.6
2395.06
2389.58
2384.16
2378.8
2373.49
2368.22
2363.01
2357.84
2352.71
2347.62
2342.57
2337.56
2332.57
2327.62
2322.7
2317.8
2312.93
2308.08
2303.25
2298.44
2293.65
2288.88
2284.12
2279.37
2274.63
2269.9
2265.18
2260.47
2255.75
2251.04
2246.33
2241.61
2236.9
2232.17
2227.44
2222.7
2217.94
3206.52
3005.77
2915.57
2854.53
2808.39
2771.37
2740.46
2713.89
2690.55
2669.71
2650.85
2633.61
2617.71
2602.94
2589.12
2576.14
2563.87
2552.24
2541.17
2530.6
2520.48
2510.76
2501.41
2492.39
2483.68
2475.25
2467.07
2459.12
2451.4
2443.88
2436.55
2429.39
2422.39
2415.55
2408.86
2402.29
2395.86
2389.54
2383.33
2377.23
2371.23
2365.32
2359.5
2353.76
2348.1
2342.52
2337.01
2331.56
2326.18
2320.86
2315.6
2310.39
2305.23
2300.12
2295.06
2290.04
2285.06
2280.12
2275.21
2270.34
2265.5
2260.7
2255.92
2251.16
2246.43
2241.72
2237.04
2232.37
2227.72
2223.08
2218.46
2213.85
2209.25
2204.66
2200.07
2195.49
2190.91
2186.34
2181.76
2177.18
2172.6
2168.02
2163.42
2158.81
2154.2
3114.38
2919.4
2831.79
2772.51
2727.69
2691.73
2661.7
2635.89
2613.22
2592.97
2574.66
2557.91
2542.47
2528.12
2514.7
2502.08
2490.17
2478.87
2468.11
2457.85
2448.02
2438.58
2429.49
2420.73
2412.27
2404.08
2396.13
2388.42
2380.91
2373.61
2366.48
2359.53
2352.74
2346.09
2339.59
2333.21
2326.96
2320.82
2314.79
2308.87
2303.04
2297.3
2291.64
2286.07
2280.58
2275.16
2269.8
2264.52
2259.29
2254.12
2249.01
2243.95
2238.94
2233.98
2229.07
2224.19
2219.35
2214.56
2209.79
2205.06
2200.37
2195.7
2191.05
2186.44
2181.84
2177.27
2172.72
2168.19
2163.67
2159.17
2154.68
2150.21
2145.74
2141.28
2136.83
2132.38
2127.94
2123.49
2119.05
2114.61
2110.16
2105.7
2101.24
2096.77
2092.28
3024.89
2835.52
2750.43
2692.85
2649.31
2614.38
2585.21
2560.14
2538.11
2518.45
2500.66
2484.39
2469.39
2455.45
2442.41
2430.16
2418.58
2407.61
2397.16
2387.19
2377.64
2368.47
2359.65
2351.14
2342.92
2334.96
2327.24
2319.74
2312.46
2305.36
2298.44
2291.69
2285.09
2278.63
2272.31
2266.12
2260.05
2254.09
2248.23
2242.47
2236.81
2231.24
2225.75
2220.34
2215
2209.73
2204.53
2199.4
2194.32
2189.31
2184.34
2179.43
2174.56
2169.75
2164.97
2160.23
2155.54
2150.88
2146.25
2141.66
2137.1
2132.57
2128.06
2123.57
2119.11
2114.68
2110.26
2105.85
2101.47
2097.1
2092.74
2088.39
2084.06
2079.73
2075.4
2071.08
2066.77
2062.45
2058.14
2053.82
2049.5
2045.18
2040.84
2036.5
2032.15
2937.97
2754.05
2671.4
2615.47
2573.18
2539.25
2510.92
2486.56
2465.17
2446.07
2428.79
2412.99
2398.41
2384.87
2372.21
2360.3
2349.06
2338.4
2328.25
2318.57
2309.29
2300.38
2291.81
2283.55
2275.56
2267.83
2260.33
2253.05
2245.97
2239.08
2232.36
2225.8
2219.39
2213.12
2206.98
2200.96
2195.06
2189.27
2183.58
2177.99
2172.49
2167.08
2161.75
2156.49
2151.31
2146.19
2141.14
2136.16
2131.23
2126.35
2121.53
2116.76
2112.04
2107.36
2102.72
2098.12
2093.56
2089.03
2084.54
2080.08
2075.65
2071.25
2066.87
2062.52
2058.19
2053.88
2049.59
2045.31
2041.05
2036.81
2032.58
2028.36
2024.14
2019.94
2015.74
2011.55
2007.36
2003.17
1998.98
1994.79
1990.59
1986.39
1982.18
1977.96
1973.74
2853.55
2674.92
2594.65
2540.32
2499.24
2466.29
2438.77
2415.11
2394.33
2375.77
2358.98
2343.64
2329.48
2316.32
2304.02
2292.46
2281.54
2271.19
2261.33
2251.92
2242.91
2234.26
2225.93
2217.9
2210.14
2202.63
2195.35
2188.28
2181.4
2174.7
2168.18
2161.8
2155.58
2149.49
2143.52
2137.68
2131.95
2126.33
2120.8
2115.37
2110.03
2104.77
2099.59
2094.48
2089.45
2084.48
2079.58
2074.73
2069.95
2065.21
2060.53
2055.89
2051.31
2046.76
2042.26
2037.79
2033.36
2028.97
2024.61
2020.27
2015.97
2011.7
2007.45
2003.22
1999.01
1994.83
1990.66
1986.51
1982.37
1978.25
1974.14
1970.04
1965.95
1961.87
1957.79
1953.72
1949.65
1945.58
1941.51
1937.44
1933.37
1929.29
1925.2
1921.11
1917
2771.56
2598.06
2520.1
2467.34
2427.43
2395.42
2368.69
2345.7
2325.52
2307.5
2291.19
2276.28
2262.53
2249.75
2237.8
2226.57
2215.96
2205.9
2196.33
2187.19
2178.43
2170.03
2161.94
2154.14
2146.61
2139.31
2132.24
2125.37
2118.69
2112.18
2105.84
2099.65
2093.6
2087.69
2081.9
2076.22
2070.65
2065.19
2059.82
2054.55
2049.36
2044.25
2039.22
2034.26
2029.37
2024.55
2019.78
2015.08
2010.43
2005.83
2001.28
1996.78
1992.32
1987.91
1983.54
1979.2
1974.9
1970.63
1966.39
1962.19
1958.01
1953.86
1949.73
1945.62
1941.54
1937.47
1933.43
1929.39
1925.38
1921.38
1917.38
1913.4
1909.43
1905.47
1901.51
1897.55
1893.6
1889.65
1885.7
1881.75
1877.79
1873.83
1869.86
1865.88
1861.9
2691.92
2523.42
2447.7
2396.45
2357.69
2326.6
2300.63
2278.3
2258.69
2241.18
2225.35
2210.86
2197.5
2185.09
2173.49
2162.58
2152.27
2142.5
2133.2
2124.32
2115.82
2107.65
2099.8
2092.22
2084.9
2077.82
2070.94
2064.27
2057.78
2051.46
2045.3
2039.29
2033.41
2027.67
2022.04
2016.53
2011.12
2005.82
2000.6
1995.48
1990.44
1985.48
1980.59
1975.77
1971.02
1966.34
1961.71
1957.14
1952.62
1948.16
1943.74
1939.37
1935.04
1930.75
1926.5
1922.29
1918.11
1913.97
1909.85
1905.77
1901.71
1897.68
1893.67
1889.68
1885.72
1881.77
1877.84
1873.92
1870.02
1866.14
1862.26
1858.39
1854.54
1850.69
1846.84
1843
1839.16
1835.33
1831.49
1827.65
1823.81
1819.96
1816.11
1812.25
1808.37
2614.57
2450.92
2377.37
2327.59
2289.95
2259.75
2234.52
2212.83
2193.79
2176.78
2161.39
2147.33
2134.35
2122.29
2111.02
2100.42
2090.41
2080.92
2071.89
2063.26
2055
2047.07
2039.44
2032.08
2024.97
2018.09
2011.41
2004.93
1998.63
1992.49
1986.51
1980.67
1974.96
1969.38
1963.91
1958.56
1953.3
1948.15
1943.09
1938.11
1933.21
1928.39
1923.65
1918.97
1914.35
1909.8
1905.31
1900.87
1896.48
1892.14
1887.85
1883.61
1879.4
1875.24
1871.11
1867.02
1862.96
1858.94
1854.94
1850.97
1847.03
1843.12
1839.22
1835.35
1831.5
1827.66
1823.85
1820.05
1816.26
1812.48
1808.72
1804.96
1801.22
1797.48
1793.75
1790.02
1786.29
1782.56
1778.84
1775.11
1771.38
1767.64
1763.9
1760.15
1756.39
2539.45
2380.5
2309.07
2260.72
2224.16
2194.83
2170.33
2149.26
2130.76
2114.23
2099.28
2085.62
2073.01
2061.3
2050.35
2040.06
2030.33
2021.11
2012.34
2003.96
1995.94
1988.23
1980.82
1973.67
1966.77
1960.08
1953.6
1947.3
1941.18
1935.21
1929.4
1923.73
1918.18
1912.76
1907.45
1902.25
1897.15
1892.14
1887.22
1882.39
1877.63
1872.95
1868.34
1863.8
1859.31
1854.89
1850.53
1846.22
1841.95
1837.74
1833.57
1829.45
1825.37
1821.32
1817.31
1813.34
1809.4
1805.49
1801.61
1797.75
1793.93
1790.12
1786.34
1782.58
1778.84
1775.12
1771.41
1767.72
1764.04
1760.37
1756.72
1753.07
1749.43
1745.8
1742.17
1738.55
1734.93
1731.31
1727.7
1724.08
1720.45
1716.82
1713.19
1709.55
2466.48
2312.11
2242.73
2195.77
2160.26
2131.78
2107.98
2087.52
2069.54
2053.5
2038.98
2025.7
2013.45
2002.07
1991.43
1981.43
1971.98
1963.03
1954.5
1946.37
1938.57
1931.09
1923.89
1916.94
1910.23
1903.74
1897.44
1891.33
1885.38
1879.59
1873.94
1868.43
1863.04
1857.78
1852.62
1847.57
1842.61
1837.75
1832.97
1828.27
1823.65
1819.11
1814.63
1810.21
1805.86
1801.56
1797.32
1793.14
1789
1784.9
1780.86
1776.85
1772.88
1768.96
1765.06
1761.2
1757.38
1753.58
1749.81
1746.07
1742.35
1738.65
1734.98
1731.33
1727.69
1724.08
1720.48
1716.89
1713.32
1709.76
1706.21
1702.67
1699.13
1695.61
1692.09
1688.57
1685.05
1681.54
1678.02
1674.51
1670.99
1667.46
1663.93
1660.4
2395.61
2245.68
2178.3
2132.69
2098.21
2070.54
2047.42
2027.55
2010.09
1994.51
1980.4
1967.51
1955.61
1944.56
1934.22
1924.5
1915.33
1906.62
1898.34
1890.43
1882.86
1875.59
1868.59
1861.85
1855.33
1849.02
1842.9
1836.96
1831.18
1825.56
1820.07
1814.72
1809.49
1804.37
1799.36
1794.46
1789.64
1784.92
1780.28
1775.71
1771.23
1766.81
1762.46
1758.17
1753.94
1749.77
1745.65
1741.58
1737.56
1733.59
1729.66
1725.77
1721.91
1718.1
1714.32
1710.57
1706.85
1703.16
1699.5
1695.86
1692.25
1688.66
1685.1
1681.55
1678.02
1674.51
1671.01
1667.53
1664.06
1660.6
1657.15
1653.71
1650.28
1646.86
1643.44
1640.02
1636.61
1633.19
1629.78
1626.36
1622.95
1619.52
1616.1
1612.66
2326.78
2181.16
2115.72
2071.43
2037.93
2011.06
1988.6
1969.3
1952.35
1937.21
1923.51
1910.99
1899.44
1888.7
1878.66
1869.22
1860.31
1851.86
1843.81
1836.13
1828.78
1821.71
1814.92
1808.36
1802.03
1795.9
1789.95
1784.18
1778.56
1773.1
1767.76
1762.56
1757.48
1752.51
1747.64
1742.87
1738.2
1733.61
1729.1
1724.67
1720.31
1716.02
1711.79
1707.63
1703.52
1699.46
1695.46
1691.51
1687.61
1683.75
1679.93
1676.15
1672.41
1668.7
1665.03
1661.39
1657.77
1654.19
1650.64
1647.1
1643.6
1640.11
1636.65
1633.2
1629.77
1626.36
1622.96
1619.58
1616.21
1612.85
1609.5
1606.16
1602.83
1599.51
1596.18
1592.87
1589.55
1586.24
1582.93
1579.62
1576.3
1572.98
1569.66
1566.33
2259.92
2118.5
2054.94
2011.92
1979.39
1953.28
1931.48
1912.73
1896.27
1881.56
1868.26
1856.09
1844.87
1834.45
1824.7
1815.53
1806.88
1798.67
1790.85
1783.39
1776.25
1769.39
1762.79
1756.42
1750.27
1744.32
1738.54
1732.94
1727.48
1722.17
1717
1711.95
1707.01
1702.18
1697.45
1692.82
1688.28
1683.82
1679.44
1675.13
1670.89
1666.73
1662.62
1658.57
1654.58
1650.64
1646.76
1642.92
1639.13
1635.37
1631.66
1627.99
1624.36
1620.76
1617.19
1613.65
1610.15
1606.67
1603.21
1599.78
1596.38
1592.99
1589.63
1586.28
1582.95
1579.64
1576.35
1573.06
1569.79
1566.53
1563.28
1560.04
1556.81
1553.58
1550.36
1547.14
1543.92
1540.7
1537.49
1534.27
1531.05
1527.83
1524.6
1521.37
2194.99
2057.63
1995.91
1954.13
1922.53
1897.17
1876
1857.79
1841.79
1827.51
1814.59
1802.78
1791.88
1781.75
1772.28
1763.38
1754.98
1747
1739.42
1732.17
1725.23
1718.57
1712.16
1705.98
1700
1694.22
1688.61
1683.17
1677.87
1672.72
1667.69
1662.78
1657.99
1653.3
1648.71
1644.21
1639.8
1635.47
1631.21
1627.03
1622.92
1618.87
1614.88
1610.95
1607.07
1603.25
1599.48
1595.75
1592.06
1588.42
1584.82
1581.25
1577.72
1574.23
1570.76
1567.33
1563.92
1560.54
1557.19
1553.86
1550.55
1547.26
1543.99
1540.74
1537.51
1534.3
1531.09
1527.91
1524.73
1521.56
1518.41
1515.26
1512.12
1508.98
1505.85
1502.73
1499.6
1496.48
1493.36
1490.23
1487.11
1483.97
1480.84
1477.7
2131.92
1998.52
1938.57
1897.99
1867.3
1842.68
1822.11
1804.42
1788.89
1775.02
1762.47
1750.99
1740.41
1730.57
1721.38
1712.73
1704.57
1696.83
1689.46
1682.42
1675.68
1669.21
1662.99
1656.98
1651.18
1645.56
1640.12
1634.83
1629.69
1624.68
1619.8
1615.03
1610.38
1605.82
1601.36
1596.99
1592.71
1588.5
1584.37
1580.31
1576.32
1572.38
1568.51
1564.7
1560.93
1557.22
1553.55
1549.93
1546.35
1542.82
1539.32
1535.85
1532.43
1529.03
1525.67
1522.33
1519.02
1515.74
1512.48
1509.25
1506.04
1502.84
1499.67
1496.52
1493.38
1490.25
1487.14
1484.05
1480.96
1477.89
1474.82
1471.76
1468.71
1465.67
1462.63
1459.59
1456.56
1453.53
1450.49
1447.46
1444.42
1441.38
1438.34
1435.28
2070.67
1941.11
1882.88
1843.47
1813.66
1789.75
1769.77
1752.59
1737.5
1724.03
1711.84
1700.7
1690.42
1680.87
1671.94
1663.54
1655.61
1648.09
1640.93
1634.1
1627.55
1621.27
1615.23
1609.39
1603.76
1598.31
1593.02
1587.88
1582.89
1578.02
1573.28
1568.66
1564.13
1559.71