/*--------------------------------*- C++ -*----------------------------------*\
  =========                 |
  \\      /  F ield         | OpenFOAM: The Open Source CFD Toolbox
   \\    /   O peration     | Website:  https://openfoam.org
    \\  /    A nd           | Version:  10
     \\/     M anipulation  |
\*---------------------------------------------------------------------------*/
FoamFile
{
    format      ascii;
    class       volVectorField;
    location    "76000";
    object      U;
}
// * * * * * * * * * * * * * * * * * * * * * * * * * * * * * * * * * * * * * //

dimensions      [0 1 -1 0 0 0 0];

internalField   nonuniform List<vector> 
17808
(
(-1.15722 1.25439 -4.37369e-18)
(-1.43674 1.56648 -4.96635e-19)
(-1.56254 1.70518 3.20509e-18)
(-1.64968 1.79659 3.49273e-18)
(-1.71395 1.86689 -8.26398e-19)
(-1.76555 1.92275 -5.89917e-18)
(-1.80821 1.96931 2.98894e-18)
(-1.84461 2.00912 -3.20054e-18)
(-1.87632 2.04389 5.42289e-18)
(-1.90439 2.07474 -3.13569e-22)
(-1.92956 2.10245 -2.4767e-18)
(-1.95237 2.1276 1.77905e-18)
(-1.97321 2.15062 -2.562e-18)
(-1.99239 2.17182 2.73522e-19)
(-2.01016 2.19148 0)
(-2.02669 2.20979 2.5369e-19)
(-2.04214 2.22692 -4.89625e-19)
(-2.05664 2.243 -4.72966e-19)
(-2.07029 2.25815 -2.05741e-18)
(-2.08318 2.27247 1.42746e-21)
(-2.09538 2.28603 1.71634e-18)
(-2.10695 2.2989 0)
(-2.11795 2.31114 1.61361e-18)
(-2.12843 2.32281 -1.56856e-18)
(-2.13842 2.33394 1.52279e-18)
(-2.14797 2.34458 -1.85277e-18)
(-2.15709 2.35476 -3.6035e-19)
(-2.16583 2.3645 0)
(-2.1742 2.37385 -3.41747e-19)
(-2.18224 2.38281 -3.32964e-19)
(-2.18994 2.39142 1.29762e-18)
(-2.19734 2.39969 -9.50608e-19)
(-2.20446 2.40764 0)
(-2.21129 2.41528 0)
(-2.21787 2.42263 2.94278e-19)
(-2.22419 2.42971 1.43612e-18)
(-2.23027 2.43651 -8.43045e-19)
(-2.23613 2.44306 0)
(-2.24176 2.44937 -1.07122e-18)
(-2.24718 2.45543 1.75574e-21)
(-2.25239 2.46127 1.53748e-18)
(-2.2574 2.46688 1.50144e-18)
(-2.26222 2.47228 -9.80325e-19)
(-2.26685 2.47747 4.78886e-19)
(-2.2713 2.48245 0)
(-2.27557 2.48724 -4.58148e-19)
(-2.27967 2.49183 1.34366e-18)
(-2.2836 2.49624 -1.75467e-18)
(-2.28736 2.50046 4.28937e-19)
(-2.29096 2.5045 0)
(-2.29441 2.50836 0)
(-2.29769 2.51204 1.20398e-18)
(-2.30082 2.51555 -3.93848e-19)
(-2.3038 2.5189 0)
(-2.30663 2.52207 3.76006e-19)
(-2.30932 2.52509 3.67821e-19)
(-2.31186 2.52793 -3.59775e-19)
(-2.31425 2.53062 -3.51864e-19)
(-2.3165 2.53315 -3.44114e-19)
(-2.31861 2.53552 6.7208e-19)
(-2.32058 2.53774 -9.2685e-22)
(-2.32241 2.53979 6.42428e-19)
(-2.3241 2.5417 -6.29869e-19)
(-2.32566 2.54345 -6.14741e-19)
(-2.32708 2.54505 -1.20061e-18)
(-2.32836 2.54649 5.87038e-19)
(-2.3295 2.54779 -1.14804e-18)
(-2.33051 2.54893 1.12055e-18)
(-2.33139 2.54992 0)
(-2.33213 2.55076 5.34377e-19)
(-2.33273 2.55145 1.04251e-18)
(-2.3332 2.552 -5.11189e-19)
(-2.33354 2.55239 -4.98015e-19)
(-2.33373 2.55263 4.85045e-19)
(-2.3338 2.55272 -9.43385e-22)
(-2.33373 2.55266 -1.3847e-18)
(-2.33352 2.55245 9.01183e-19)
(-2.33318 2.55208 0)
(-2.33269 2.55157 -4.2874e-19)
(-2.33208 2.5509 -1.25169e-18)
(-2.33132 2.55009 0)
(-2.33043 2.54912 0)
(-2.3294 2.54799 7.70792e-19)
(-2.32823 2.54671 0)
(-2.32692 2.54528 7.306e-19)
(-2.32547 2.54369 0)
(-2.32387 2.54195 -9.30756e-24)
(-2.32214 2.54005 0)
(-2.32026 2.53799 0)
(-2.31824 2.53577 6.36465e-19)
(-2.31608 2.53339 1.23745e-18)
(-2.31377 2.53086 1.20267e-18)
(-1.15749 1.26733 -4.91849e-19)
(-1.43205 1.57921 4.85878e-19)
(-1.55848 1.7145 0)
(-1.64392 1.80587 0)
(-1.7075 1.87558 8.27785e-19)
(-1.75881 1.93081 -3.91803e-19)
(-1.80135 1.97683 2.97516e-18)
(-1.83773 2.01618 -2.47424e-18)
(-1.86947 2.05057 -3.36745e-19)
(-1.8976 2.08112 2.56842e-18)
(-1.92283 2.10858 -2.76277e-18)
(-1.94571 2.13354 5.87908e-19)
(-1.96662 2.15639 2.81946e-19)
(-1.98586 2.17748 -2.70878e-19)
(-2.00368 2.19703 0)
(-2.02026 2.21526 -2.51106e-19)
(-2.03575 2.23233 2.42241e-19)
(-2.05029 2.24837 2.33964e-19)
(-2.06397 2.26348 0)
(-2.07689 2.27777 0)
(-2.08911 2.29131 0)
(-2.10071 2.30416 -4.11281e-19)
(-2.11173 2.31639 0)
(-2.12222 2.32805 -3.87602e-19)
(-2.13223 2.33918 0)
(-2.14178 2.34982 3.66314e-19)
(-2.15092 2.36 3.565e-19)
(-2.15967 2.36975 0)
(-2.16805 2.37909 -1.35146e-18)
(-2.17609 2.38806 3.31127e-19)
(-2.1838 2.39668 9.64508e-19)
(-2.19121 2.40496 -3.13324e-19)
(-2.19833 2.41291 1.22218e-18)
(-2.20517 2.42056 -2.68607e-18)
(-2.21174 2.42792 8.75085e-19)
(-2.21807 2.43501 -2.84626e-19)
(-2.22415 2.44182 -5.56189e-19)
(-2.23001 2.44838 0)
(-2.23564 2.4547 0)
(-2.24106 2.46077 1.2976e-18)
(-2.24627 2.46662 -1.01662e-18)
(-2.25129 2.47224 -4.85862e-23)
(-2.2561 2.47765 -4.85853e-19)
(-2.26074 2.48285 -9.50523e-19)
(-2.26518 2.48785 -4.64096e-19)
(-2.26946 2.49264 1.36575e-18)
(-2.27355 2.49725 -8.89441e-19)
(-2.27748 2.50166 1.30781e-18)
(-2.28124 2.50589 -1.27803e-18)
(-2.28484 2.50994 8.35331e-19)
(-2.28828 2.5138 -8.1571e-19)
(-2.29157 2.5175 8.00115e-19)
(-2.2947 2.52102 -3.91087e-19)
(-2.29768 2.52437 0)
(-2.30051 2.52756 -3.74545e-19)
(-2.30319 2.53058 0)
(-2.30573 2.53343 0)
(-2.30812 2.53613 3.5091e-19)
(-2.31037 2.53866 9.35989e-22)
(-2.31248 2.54104 6.72654e-19)
(-2.31445 2.54326 -6.57064e-19)
(-2.31628 2.54533 6.42671e-19)
(-2.31797 2.54724 0)
(-2.31952 2.54899 0)
(-2.32094 2.55059 1.20092e-18)
(-2.32222 2.55205 -5.8748e-19)
(-2.32336 2.55334 1.14942e-18)
(-2.32437 2.55449 -9.55559e-22)
(-2.32525 2.55549 -5.49335e-19)
(-2.32599 2.55633 0)
(-2.32659 2.55703 -1.04577e-18)
(-2.32706 2.55757 2.04455e-18)
(-2.3274 2.55796 -1.89903e-21)
(-2.3276 2.55821 -1.89897e-21)
(-2.32766 2.5583 -9.44649e-22)
(-2.32759 2.55824 4.63214e-19)
(-2.32739 2.55803 -9.06714e-19)
(-2.32705 2.55767 4.41785e-19)
(-2.32657 2.55715 8.60793e-19)
(-2.32595 2.55649 -4.21075e-19)
(-2.3252 2.55567 4.08624e-19)
(-2.32431 2.5547 -1.19849e-18)
(-2.32328 2.55357 1.16598e-18)
(-2.32212 2.55229 -1.87946e-21)
(-2.32081 2.55086 -7.38164e-19)
(-2.31936 2.54926 3.60332e-19)
(-2.31778 2.54752 -1.39954e-18)
(-2.31605 2.54561 0)
(-2.31418 2.54355 0)
(-2.31216 2.54133 -1.28953e-18)
(-2.31001 2.53895 -9.39754e-19)
(-2.30771 2.53641 -6.07973e-19)
(-1.15642 1.27462 9.84404e-19)
(-1.43078 1.5863 7.77219e-18)
(-1.55735 1.72082 -1.47436e-17)
(-1.64115 1.81315 6.98491e-18)
(-1.70412 1.88264 -4.12216e-19)
(-1.75479 1.93776 0)
(-1.79678 1.98366 0)
(-1.83273 2.02288 0)
(-1.86413 2.05712 -5.01142e-18)
(-1.892 2.08752 5.09789e-18)
(-1.91704 2.11484 3.04161e-19)
(-1.93977 2.13967 1.46255e-22)
(-1.96058 2.16242 4.4651e-18)
(-1.97974 2.1834 -8.84609e-18)
(-1.9975 2.20287 4.12633e-18)
(-2.01404 2.22103 3.72335e-18)
(-2.0295 2.23803 -3.59354e-18)
(-2.04402 2.25401 0)
(-2.05769 2.26908 0)
(-2.0706 2.28334 0)
(-2.08281 2.29684 0)
(-2.0944 2.30968 8.12711e-19)
(-2.10542 2.32189 0)
(-2.11592 2.33354 3.82932e-19)
(-2.12592 2.34465 0)
(-2.13548 2.35528 -3.61896e-19)
(-2.14462 2.36545 0)
(-2.15337 2.3752 1.37059e-18)
(-2.16175 2.38455 -1.33673e-18)
(-2.16979 2.39352 3.25504e-19)
(-2.1775 2.40214 -3.17394e-19)
(-2.18491 2.41042 1.54735e-18)
(-2.19203 2.41838 -1.63979e-21)
(-2.19887 2.42603 -8.85751e-19)
(-2.20545 2.4334 8.63382e-19)
(-2.21177 2.44049 -8.45028e-19)
(-2.21786 2.44731 2.74985e-19)
(-2.22371 2.45388 0)
(-2.22935 2.4602 0)
(-2.23476 2.46629 -1.5406e-18)
(-2.23997 2.47214 1.72226e-21)
(-2.24499 2.47777 1.69253e-21)
(-2.2498 2.48319 1.44355e-18)
(-2.25443 2.4884 -9.40163e-19)
(-2.25888 2.4934 4.61311e-19)
(-2.26315 2.49821 0)
(-2.26725 2.50282 0)
(-2.27117 2.50724 0)
(-2.27493 2.51148 8.99898e-22)
(-2.27853 2.51554 4.14576e-19)
(-2.28197 2.51941 0)
(-2.28525 2.52312 3.96415e-19)
(-2.28838 2.52665 -7.7524e-19)
(-2.29136 2.53001 1.14059e-18)
(-2.29419 2.5332 7.42846e-19)
(-2.29687 2.53623 -7.2896e-19)
(-2.2994 2.53909 -7.11699e-19)
(-2.30179 2.54179 3.49672e-19)
(-2.30404 2.54433 -3.41319e-19)
(-2.30615 2.54672 3.34008e-19)
(-2.30812 2.54894 6.53694e-19)
(-2.30994 2.55101 -6.39594e-19)
(-2.31163 2.55293 0)
(-2.31319 2.55469 0)
(-2.3146 2.5563 -1.6048e-23)
(-2.31588 2.55775 -1.17003e-18)
(-2.31703 2.55905 5.73441e-19)
(-2.31804 2.5602 -5.58777e-19)
(-2.31891 2.5612 1.64143e-18)
(-2.31965 2.56205 -9.50049e-22)
(-2.32026 2.56275 5.22573e-19)
(-2.32073 2.5633 -5.10583e-19)
(-2.32106 2.56369 0)
(-2.32127 2.56393 0)
(-2.32133 2.56403 0)
(-2.32126 2.56397 4.63457e-19)
(-2.32106 2.56376 -4.54251e-19)
(-2.32072 2.5634 -4.42388e-19)
(-2.32024 2.56289 0)
(-2.31963 2.56222 0)
(-2.31888 2.5614 -1.23097e-18)
(-2.318 2.56043 2.00295e-18)
(-2.31697 2.5593 -8.05449e-24)
(-2.31581 2.55802 0)
(-2.31451 2.55658 -3.69739e-19)
(-2.31306 2.55499 1.88034e-21)
(-2.31148 2.55323 3.52647e-19)
(-2.30976 2.55133 -6.84922e-19)
(-2.30789 2.54926 -6.66771e-19)
(-2.30588 2.54704 9.72499e-19)
(-2.30373 2.54465 -1.85955e-21)
(-2.30144 2.54211 3.06221e-19)
(-1.15292 1.27884 6.89751e-18)
(-1.42768 1.59061 7.27412e-18)
(-1.55399 1.72573 -7.81187e-18)
(-1.63704 1.8188 4.34846e-19)
(-1.7 1.8882 0)
(-1.75037 1.9435 0)
(-1.79211 1.98952 0)
(-1.82783 2.0288 5.57815e-18)
(-1.85901 2.06308 -1.0608e-17)
(-1.88668 2.09349 1.01056e-17)
(-1.91154 2.12082 -4.82495e-18)
(-1.93412 2.14564 4.32396e-18)
(-1.95478 2.16836 -4.42249e-18)
(-1.97384 2.18932 2.6519e-19)
(-1.9915 2.20876 4.33374e-18)
(-2.00796 2.22689 -3.68446e-18)
(-2.02336 2.24386 3.7864e-18)
(-2.03782 2.25982 -2.31441e-19)
(-2.05144 2.27486 -3.53572e-18)
(-2.06431 2.28909 -2.1374e-19)
(-2.0765 2.30258 0)
(-2.08806 2.31539 -8.02735e-19)
(-2.09906 2.32759 0)
(-2.10954 2.33922 0)
(-2.11953 2.35033 -3.30594e-18)
(-2.12907 2.36095 2.86052e-18)
(-2.1382 2.37111 0)
(-2.14694 2.38086 0)
(-2.15532 2.3902 0)
(-2.16335 2.39917 -6.43018e-19)
(-2.17106 2.40779 3.13529e-19)
(-2.17846 2.41607 0)
(-2.18557 2.42403 0)
(-2.19241 2.43169 0)
(-2.19898 2.43906 -1.70627e-18)
(-2.20531 2.44616 2.50457e-18)
(-2.21139 2.45298 0)
(-2.21724 2.45956 0)
(-2.22287 2.46589 0)
(-2.22828 2.47198 2.2848e-18)
(-2.23349 2.47784 -3.40345e-21)
(-2.2385 2.48348 -4.86267e-18)
(-2.24331 2.4889 3.33072e-18)
(-2.24794 2.49412 -1.3987e-18)
(-2.25238 2.49913 0)
(-2.25665 2.50394 4.46147e-19)
(-2.26074 2.50856 1.74535e-18)
(-2.26467 2.51299 -1.71227e-18)
(-2.26843 2.51724 -4.18705e-19)
(-2.27202 2.5213 2.04805e-18)
(-2.27546 2.52519 -8.0554e-19)
(-2.27874 2.5289 -7.87962e-19)
(-2.28186 2.53243 -7.70721e-19)
(-2.28484 2.5358 -9.07474e-22)
(-2.28766 2.539 -1.10808e-18)
(-2.29034 2.54203 0)
(-2.29288 2.5449 3.52914e-19)
(-2.29526 2.54761 -6.93737e-19)
(-2.29751 2.55016 -1.0165e-18)
(-2.29962 2.55255 3.32915e-19)
(-2.30158 2.55478 6.49947e-19)
(-2.30341 2.55686 9.21308e-22)
(-2.3051 2.55878 1.86158e-21)
(-2.30665 2.56054 6.10159e-19)
(-2.30807 2.56215 -5.96101e-19)
(-2.30935 2.56361 5.8316e-19)
(-2.31049 2.56492 0)
(-2.3115 2.56607 -5.56979e-19)
(-2.31237 2.56708 -5.43713e-19)
(-2.31311 2.56793 9.36628e-22)
(-2.31372 2.56863 -1.04205e-18)
(-2.31419 2.56917 1.02038e-18)
(-2.31453 2.56957 0)
(-2.31473 2.56982 -9.45864e-22)
(-2.3148 2.56991 -9.51848e-19)
(-2.31473 2.56985 4.6437e-19)
(-2.31453 2.56965 4.53466e-19)
(-2.31419 2.56928 4.42715e-19)
(-2.31372 2.56877 0)
(-2.31311 2.5681 0)
(-2.31236 2.56728 8.22945e-19)
(-2.31148 2.56631 -1.60551e-18)
(-2.31046 2.56518 -7.82899e-19)
(-2.3093 2.56389 7.63349e-19)
(-2.308 2.56245 1.11525e-18)
(-2.30656 2.56086 3.61667e-19)
(-2.30498 2.5591 7.06644e-19)
(-2.30326 2.55719 3.43249e-19)
(-2.3014 2.55512 6.68543e-19)
(-2.2994 2.55289 -3.27327e-19)
(-2.29726 2.5505 3.16794e-19)
(-2.29497 2.54795 -1.87276e-21)
(-1.14935 1.28285 8.37013e-18)
(-1.42402 1.59461 -7.7464e-18)
(-1.5497 1.73058 -6.86676e-18)
(-1.6323 1.824 1.29835e-17)
(-1.6952 1.89344 -6.12936e-18)
(-1.74532 1.94897 6.55732e-18)
(-1.78692 1.9951 -1.16777e-17)
(-1.8225 2.03447 2.87712e-21)
(-1.85355 2.06882 5.25925e-18)
(-1.8811 2.09929 0)
(-1.90586 2.12666 0)
(-1.92833 2.15151 -2.85455e-19)
(-1.94891 2.17425 -2.73427e-19)
(-1.96787 2.19522 2.62366e-19)
(-1.98545 2.21466 5.99198e-23)
(-2.00184 2.23279 -2.42728e-19)
(-2.01717 2.24976 -4.67899e-19)
(-2.03157 2.26571 -3.56738e-23)
(-2.04514 2.28075 0)
(-2.05797 2.29497 2.11087e-19)
(-2.07011 2.30845 3.26941e-18)
(-2.08164 2.32126 -2.77583e-18)
(-2.09261 2.33345 0)
(-2.10306 2.34507 3.35887e-18)
(-2.11302 2.35617 -2.54131e-18)
(-2.12255 2.36679 -2.82108e-18)
(-2.13166 2.37695 2.74817e-18)
(-2.14038 2.38669 3.3429e-19)
(-2.14874 2.39603 0)
(-2.15676 2.405 3.17452e-19)
(-2.16445 2.41362 0)
(-2.17185 2.4219 0)
(-2.17895 2.42986 -2.35685e-18)
(-2.18578 2.43753 2.01664e-18)
(-2.19234 2.4449 -5.6236e-19)
(-2.19866 2.452 -2.1963e-18)
(-2.20473 2.45883 1.88137e-18)
(-2.21058 2.46541 -2.62532e-19)
(-2.2162 2.47174 -2.05226e-18)
(-2.22161 2.47784 2.01071e-18)
(-2.22681 2.48371 -1.96386e-18)
(-2.23181 2.48935 2.40591e-18)
(-2.23662 2.49478 -1.8807e-18)
(-2.24125 2.50001 3.41851e-21)
(-2.24569 2.50502 3.15676e-18)
(-2.24995 2.50984 -2.20943e-18)
(-2.25404 2.51447 0)
(-2.25796 2.51891 1.69182e-18)
(-2.26171 2.52316 -1.66033e-18)
(-2.26531 2.52723 0)
(-2.26874 2.53112 -3.97743e-19)
(-2.27202 2.53484 7.79167e-19)
(-2.27514 2.53838 -1.52456e-18)
(-2.27811 2.54176 3.3638e-18)
(-2.28093 2.54496 -1.10003e-18)
(-2.28361 2.548 -3.5855e-19)
(-2.28614 2.55088 1.75406e-18)
(-2.28853 2.55359 6.84216e-19)
(-2.29077 2.55615 3.33165e-19)
(-2.29288 2.55854 -3.66592e-21)
(-2.29484 2.56078 -3.87543e-18)
(-2.29667 2.56286 -6.28719e-19)
(-2.29835 2.56478 3.7007e-21)
(-2.2999 2.56656 1.21395e-18)
(-2.30132 2.56817 -1.7777e-18)
(-2.3026 2.56963 -1.15734e-18)
(-2.30374 2.57094 2.80892e-21)
(-2.30475 2.5721 5.56745e-19)
(-2.30562 2.57311 -5.42789e-19)
(-2.30636 2.57396 1.0646e-18)
(-2.30697 2.57466 0)
(-2.30744 2.57521 -1.01619e-18)
(-2.30778 2.57561 4.98134e-19)
(-2.30798 2.57586 9.51796e-22)
(-2.30805 2.57595 9.50832e-19)
(-2.30799 2.5759 -4.64066e-19)
(-2.30779 2.57569 0)
(-2.30745 2.57533 -8.85573e-19)
(-2.30698 2.57481 0)
(-2.30637 2.57415 -8.44277e-19)
(-2.30563 2.57332 0)
(-2.30475 2.57235 4.03071e-19)
(-2.30373 2.57122 3.93282e-19)
(-2.30258 2.56993 -1.14717e-18)
(-2.30128 2.56849 -3.72286e-19)
(-2.29985 2.56689 -1.09077e-18)
(-2.29828 2.56513 -3.53784e-19)
(-2.29656 2.56322 6.91425e-19)
(-2.29471 2.56114 -3.35896e-19)
(-2.29272 2.55891 6.58129e-19)
(-2.29058 2.55651 -3.18614e-19)
(-2.2883 2.55396 -9.34362e-19)
(-1.146 1.28699 0)
(-1.42042 1.5988 0)
(-1.54539 1.73558 6.84421e-18)
(-1.62769 1.82915 -3.0603e-21)
(-1.69041 1.89874 -6.90729e-18)
(-1.74026 1.95447 5.7471e-18)
(-1.78168 2.00069 -5.43415e-18)
(-1.8171 2.04015 0)
(-1.84802 2.07458 -3.25734e-19)
(-1.87544 2.1051 -5.26656e-18)
(-1.90009 2.13252 4.72979e-18)
(-1.92246 2.1574 5.64816e-19)
(-1.94294 2.18017 2.70363e-19)
(-1.96181 2.20116 -4.66724e-18)
(-1.97932 2.22063 3.73974e-18)
(-1.99563 2.23877 2.39801e-19)
(-2.0109 2.25575 2.31101e-19)
(-2.02524 2.27171 4.01306e-18)
(-2.03876 2.28675 -2.99387e-21)
(-2.05153 2.30097 -6.66997e-18)
(-2.06363 2.31445 3.23078e-18)
(-2.07512 2.32726 0)
(-2.08604 2.33945 -3.03498e-18)
(-2.09646 2.35107 3.06351e-21)
(-2.10639 2.36217 2.86641e-18)
(-2.11589 2.37279 3.48243e-19)
(-2.12497 2.38295 2.7093e-18)
(-2.13367 2.39269 -5.93889e-18)
(-2.14201 2.40203 5.14307e-18)
(-2.15001 2.411 -3.12827e-21)
(-2.15769 2.41962 -2.75182e-18)
(-2.16507 2.4279 0)
(-2.17215 2.43587 0)
(-2.17897 2.44354 2.84222e-19)
(-2.18552 2.45091 2.77653e-19)
(-2.19183 2.45802 -5.42647e-19)
(-2.19789 2.46485 9.21522e-24)
(-2.20373 2.47143 2.59343e-19)
(-2.20934 2.47777 0)
(-2.21474 2.48387 -2.23163e-18)
(-2.21994 2.48975 1.45854e-18)
(-2.22493 2.4954 -1.89946e-18)
(-2.22974 2.50084 2.3279e-18)
(-2.23435 2.50606 1.82028e-18)
(-2.23879 2.51109 -1.78572e-18)
(-2.24304 2.51592 0)
(-2.24713 2.52055 0)
(-2.25104 2.52499 0)
(-2.25479 2.52925 0)
(-2.25838 2.53333 -4.02085e-19)
(-2.26181 2.53723 -1.18e-18)
(-2.26508 2.54095 1.15954e-18)
(-2.2682 2.5445 0)
(-2.27117 2.54788 -3.70444e-19)
(-2.27399 2.55109 -1.44999e-18)
(-2.27666 2.55414 1.77972e-18)
(-2.27919 2.55702 3.48362e-19)
(-2.28158 2.55974 -1.07535e-23)
(-2.28382 2.5623 3.34319e-19)
(-2.28592 2.5647 0)
(-2.28788 2.56694 6.4155e-19)
(-2.28971 2.56903 0)
(-2.29139 2.57096 0)
(-2.29294 2.57273 -1.80581e-18)
(-2.29436 2.57435 2.94987e-18)
(-2.29563 2.57582 -5.79437e-19)
(-2.29678 2.57713 5.65405e-19)
(-2.29778 2.57829 0)
(-2.29866 2.5793 5.41559e-19)
(-2.2994 2.58016 5.28029e-19)
(-2.3 2.58086 -2.07372e-18)
(-2.30048 2.58141 1.01611e-18)
(-2.30082 2.58181 0)
(-2.30102 2.58206 0)
(-2.30109 2.58216 4.74147e-19)
(-2.30103 2.5821 0)
(-2.30083 2.58189 4.52954e-19)
(-2.30049 2.58153 -4.40686e-19)
(-2.30003 2.58102 8.66641e-19)
(-2.29942 2.58035 -4.21344e-19)
(-2.29868 2.57953 1.2381e-18)
(-2.29781 2.57855 0)
(-2.29679 2.57742 -3.92034e-19)
(-2.29564 2.57613 3.84455e-19)
(-2.29435 2.57468 0)
(-2.29292 2.57308 -3.6593e-19)
(-2.29136 2.57132 1.06686e-18)
(-2.28965 2.5694 0)
(-2.2878 2.56732 0)
(-2.28581 2.56508 -9.88058e-19)
(-2.28368 2.56268 1.60695e-18)
(-2.28141 2.56012 6.2576e-19)
(-1.14253 1.291 0)
(-1.41662 1.60302 -4.82428e-19)
(-1.54089 1.74053 4.54639e-19)
(-1.62302 1.83424 4.28654e-19)
(-1.68551 1.90403 6.05552e-18)
(-1.73513 1.95992 -6.0908e-18)
(-1.77639 2.00625 1.50755e-22)
(-1.81165 2.04581 -5.43991e-18)
(-1.84242 2.08033 5.48657e-18)
(-1.86972 2.11092 -4.90786e-18)
(-1.89425 2.1384 9.35859e-18)
(-1.91651 2.16333 -2.82403e-19)
(-1.93689 2.18614 -3.07913e-21)
(-1.95568 2.20716 -4.10359e-18)
(-1.9731 2.22665 0)
(-1.98933 2.24482 0)
(-2.00453 2.26182 3.65068e-18)
(-2.0188 2.27779 -7.26743e-18)
(-2.03226 2.29285 3.40535e-18)
(-2.04498 2.30708 -3.29047e-18)
(-2.05702 2.32057 3.18876e-18)
(-2.06847 2.33339 0)
(-2.07935 2.34559 -2.99491e-18)
(-2.08972 2.35722 2.18342e-18)
(-2.09962 2.36832 2.82527e-18)
(-2.10909 2.37894 -3.09387e-18)
(-2.11814 2.38911 0)
(-2.12681 2.39885 3.25538e-19)
(-2.13512 2.4082 0)
(-2.1431 2.41717 0)
(-2.15076 2.42579 3.01544e-19)
(-2.15811 2.43408 -2.35235e-18)
(-2.16518 2.44205 2.29949e-18)
(-2.17198 2.44972 -1.96206e-18)
(-2.17852 2.4571 2.1941e-18)
(-2.18481 2.46421 5.35702e-19)
(-2.19086 2.47105 -1.83141e-18)
(-2.19668 2.47763 3.84121e-18)
(-2.20228 2.48398 -2.00561e-18)
(-2.20767 2.49008 2.45103e-19)
(-2.21286 2.49596 9.59485e-19)
(-2.21785 2.50162 -1.87676e-18)
(-2.22264 2.50706 1.38095e-18)
(-2.22725 2.5123 0)
(-2.23168 2.51733 8.81852e-19)
(-2.23593 2.52216 0)
(-2.24001 2.5268 1.26754e-18)
(-2.24391 2.53125 -4.17901e-19)
(-2.24766 2.53552 -1.62619e-18)
(-2.25124 2.5396 3.97949e-19)
(-2.25467 2.5435 0)
(-2.25793 2.54723 0)
(-2.26105 2.55079 0)
(-2.26401 2.55417 3.67004e-19)
(-2.26683 2.55739 -1.43687e-18)
(-2.2695 2.56044 2.81973e-18)
(-2.27202 2.56333 -3.10869e-18)
(-2.2744 2.56606 -3.3491e-19)
(-2.27664 2.56862 6.65159e-19)
(-2.27874 2.57103 -1.2982e-18)
(-2.2807 2.57327 3.62348e-21)
(-2.28252 2.57536 1.24973e-18)
(-2.28421 2.5773 6.11248e-19)
(-2.28576 2.57908 5.98764e-19)
(-2.28717 2.5807 0)
(-2.28845 2.58217 1.72119e-18)
(-2.28959 2.58349 -3.70011e-21)
(-2.2906 2.58465 -1.1032e-18)
(-2.29147 2.58566 -5.39106e-19)
(-2.29221 2.58652 0)
(-2.29282 2.58723 0)
(-2.29329 2.58778 -5.05377e-19)
(-2.29363 2.58818 0)
(-2.29383 2.58843 -4.83692e-19)
(-2.2939 2.58853 -1.41736e-18)
(-2.29384 2.58847 4.66393e-19)
(-2.29365 2.58826 -4.48517e-19)
(-2.29332 2.5879 8.86147e-19)
(-2.29285 2.58739 -4.32097e-19)
(-2.29225 2.58672 8.44432e-19)
(-2.29151 2.58589 -8.24943e-19)
(-2.29064 2.58491 0)
(-2.28963 2.58378 0)
(-2.28848 2.58249 7.68147e-19)
(-2.2872 2.58104 0)
(-2.28578 2.57943 7.31681e-19)
(-2.28421 2.57767 -1.42771e-18)
(-2.28251 2.57574 0)
(-2.28067 2.57366 6.79035e-19)
(-2.27869 2.57142 0)
(-2.27656 2.56901 -6.45324e-19)
(-2.2743 2.56645 0)
(-1.13886 1.29488 8.36104e-18)
(-1.41253 1.60723 8.66092e-18)
(-1.53612 1.74542 -1.44967e-17)
(-1.61809 1.83926 3.00454e-21)
(-1.68033 1.90929 7.22419e-18)
(-1.72977 1.96533 -6.42077e-18)
(-1.77088 2.01178 -3.53117e-19)
(-1.806 2.05146 5.39429e-18)
(-1.83665 2.08606 5.43067e-18)
(-1.86383 2.11674 -9.41474e-18)
(-1.88824 2.14428 2.92514e-19)
(-1.91041 2.16927 4.14504e-18)
(-1.93069 2.19214 0)
(-1.9494 2.21321 2.53294e-19)
(-1.96674 2.23274 2.43279e-19)
(-1.9829 2.25094 0)
(-1.99802 2.26797 3.60434e-18)
(-2.01223 2.28397 -3.0452e-21)
(-2.02563 2.29905 -3.15096e-18)
(-2.03828 2.3133 2.03049e-19)
(-2.05028 2.32681 0)
(-2.06167 2.33964 -2.66501e-18)
(-2.07251 2.35185 2.58799e-18)
(-2.08284 2.36349 -3.52249e-23)
(-2.0927 2.37461 -2.78683e-18)
(-2.10212 2.38524 3.05175e-18)
(-2.11114 2.39541 0)
(-2.11978 2.40516 0)
(-2.12807 2.41452 -2.18839e-18)
(-2.13601 2.4235 3.08482e-21)
(-2.14365 2.43212 2.38123e-18)
(-2.15098 2.44042 0)
(-2.15803 2.44839 -2.26552e-18)
(-2.1648 2.45607 1.93903e-18)
(-2.17132 2.46346 -1.89145e-18)
(-2.17759 2.47057 1.85187e-18)
(-2.18363 2.47741 -2.58447e-19)
(-2.18944 2.48401 -1.76781e-18)
(-2.19503 2.49036 1.97997e-18)
(-2.2004 2.49647 0)
(-2.20558 2.50235 1.89335e-18)
(-2.21055 2.50802 -1.85687e-18)
(-2.21534 2.51347 0)
(-2.21994 2.51871 0)
(-2.22435 2.52374 -2.17693e-18)
(-2.2286 2.52858 1.28227e-18)
(-2.23267 2.53323 2.08957e-18)
(-2.23657 2.53768 -2.86893e-18)
(-2.2403 2.54195 1.60831e-18)
(-2.24388 2.54604 0)
(-2.2473 2.54995 0)
(-2.25056 2.55369 1.88927e-18)
(-2.25367 2.55725 -1.48463e-18)
(-2.25663 2.56064 -3.63401e-19)
(-2.25944 2.56386 0)
(-2.26211 2.56692 -1.74426e-18)
(-2.26463 2.56981 3.53094e-21)
(-2.267 2.57254 1.0084e-18)
(-2.26924 2.57511 1.9716e-18)
(-2.27134 2.57752 -1.61363e-18)
(-2.27329 2.57978 6.319e-19)
(-2.27511 2.58187 0)
(-2.2768 2.58381 -1.30124e-23)
(-2.27834 2.58559 0)
(-2.27975 2.58722 5.82637e-19)
(-2.28103 2.58869 5.68964e-19)
(-2.28217 2.59001 -1.12013e-18)
(-2.28318 2.59118 5.47659e-19)
(-2.28405 2.59219 5.36343e-19)
(-2.28479 2.59305 5.25189e-19)
(-2.2854 2.59376 -1.02653e-18)
(-2.28587 2.59432 1.51194e-18)
(-2.28621 2.59472 0)
(-2.28641 2.59497 4.82134e-19)
(-2.28649 2.59507 -4.71733e-19)
(-2.28643 2.59501 -9.2297e-19)
(-2.28623 2.5948 -4.51372e-19)
(-2.2859 2.59444 0)
(-2.28544 2.59393 4.3157e-19)
(-2.28484 2.59325 0)
(-2.28411 2.59243 8.24606e-19)
(-2.28324 2.59145 0)
(-2.28224 2.59031 0)
(-2.28109 2.58901 -7.66921e-19)
(-2.27982 2.58756 1.90696e-21)
(-2.2784 2.58595 7.32949e-19)
(-2.27684 2.58419 5.21642e-24)
(-2.27515 2.58226 -6.98127e-19)
(-2.27331 2.58017 -6.81114e-19)
(-2.27134 2.57792 -1.3268e-18)
(-2.26922 2.57551 6.4977e-19)
(-2.26696 2.57294 0)
(-1.13506 1.29873 -8.35328e-18)
(-1.40819 1.6115 7.2024e-18)
(-1.53112 1.75032 0)
(-1.61293 1.84431 6.78585e-18)
(-1.67492 1.91458 -7.17637e-18)
(-1.72418 1.97077 -9.63623e-23)
(-1.76514 2.01735 5.29874e-18)
(-1.80012 2.05714 -3.20658e-21)
(-1.83065 2.09184 -5.69605e-18)
(-1.85772 2.1226 0)
(-1.88204 2.15022 -2.86091e-19)
(-1.90411 2.17528 -4.36743e-18)
(-1.92431 2.1982 4.1798e-18)
(-1.94293 2.21932 0)
(-1.9602 2.2389 -2.40185e-19)
(-1.97628 2.25714 -2.30995e-19)
(-1.99134 2.27421 0)
(-2.00549 2.29024 -3.21627e-18)
(-2.01882 2.30535 6.42191e-18)
(-2.03142 2.31963 -6.60962e-18)
(-2.04337 2.33316 6.2039e-18)
(-2.05471 2.34601 -3.78709e-19)
(-2.0655 2.35824 -2.55232e-18)
(-2.07578 2.3699 3.53731e-19)
(-2.0856 2.38103 0)
(-2.09499 2.39168 -3.34176e-19)
(-2.10397 2.40186 0)
(-2.11257 2.41163 2.84812e-18)
(-2.12083 2.42099 -2.77792e-18)
(-2.12874 2.42998 2.40436e-18)
(-2.13635 2.43862 -4.69338e-18)
(-2.14365 2.44692 2.57791e-18)
(-2.15068 2.4549 0)
(-2.15743 2.46259 2.1824e-18)
(-2.16393 2.46998 -4.80165e-18)
(-2.17018 2.4771 2.08765e-18)
(-2.1762 2.48395 -2.17197e-24)
(-2.18199 2.49055 0)
(-2.18756 2.49691 -2.19481e-18)
(-2.19292 2.50303 3.19753e-21)
(-2.19808 2.50892 1.40454e-18)
(-2.20304 2.51459 0)
(-2.20782 2.52004 -1.79225e-18)
(-2.2124 2.52529 2.19814e-18)
(-2.21681 2.53033 0)
(-2.22104 2.53518 7.11735e-24)
(-2.2251 2.53983 -1.65154e-18)
(-2.22899 2.54429 2.83558e-18)
(-2.23272 2.54857 -1.98702e-18)
(-2.23629 2.55266 0)
(-2.2397 2.55658 3.81604e-19)
(-2.24296 2.56032 -3.74144e-19)
(-2.24606 2.56389 0)
(-2.24901 2.56728 -1.43699e-18)
(-2.25182 2.57051 1.41242e-18)
(-2.25448 2.57357 3.45811e-19)
(-2.257 2.57647 0)
(-2.25937 2.57921 6.64924e-19)
(-2.2616 2.58178 -3.25975e-19)
(-2.26369 2.5842 6.60805e-24)
(-2.26565 2.58645 6.24867e-19)
(-2.26747 2.58855 -1.23046e-18)
(-2.26914 2.59049 -6.02221e-19)
(-2.27069 2.59228 -5.90281e-19)
(-2.2721 2.59391 -5.78549e-19)
(-2.27337 2.59539 0)
(-2.27451 2.59671 5.55586e-19)
(-2.27552 2.59788 -5.44373e-19)
(-2.27639 2.5989 -1.06662e-18)
(-2.27713 2.59976 -5.22411e-19)
(-2.27774 2.60047 -1.02146e-18)
(-2.27821 2.60103 1.50503e-18)
(-2.27855 2.60143 -9.7934e-19)
(-2.27876 2.60168 4.82161e-19)
(-2.27883 2.60178 1.40848e-18)
(-2.27877 2.60172 -4.61957e-19)
(-2.27858 2.60152 4.50186e-19)
(-2.27826 2.60115 -8.78941e-19)
(-2.2778 2.60064 8.63446e-19)
(-2.2772 2.59996 0)
(-2.27647 2.59914 -1.64757e-18)
(-2.27561 2.59815 -8.05277e-19)
(-2.2746 2.59701 7.87026e-19)
(-2.27347 2.59572 -1.53806e-18)
(-2.27219 2.59426 7.51282e-19)
(-2.27078 2.59265 -1.46565e-18)
(-2.26923 2.59087 1.43497e-18)
(-2.26754 2.58894 4.6041e-24)
(-2.26571 2.58685 6.80861e-19)
(-2.26374 2.5846 -1.90898e-21)
(-2.26164 2.58218 -6.50021e-19)
(-2.25938 2.5796 6.32105e-19)
(-1.13116 1.30259 -7.85641e-18)
(-1.40364 1.61587 -7.66009e-18)
(-1.52595 1.75527 2.91763e-21)
(-1.60757 1.84944 1.3498e-17)
(-1.6693 1.91995 -5.93969e-18)
(-1.71839 1.97629 6.32133e-18)
(-1.75919 2.023 -5.25546e-18)
(-1.79404 2.0629 0)
(-1.82445 2.0977 3.13083e-19)
(-1.85141 2.12855 4.45702e-18)
(-1.87563 2.15624 -4.24473e-18)
(-1.89761 2.18137 5.39677e-19)
(-1.91773 2.20435 2.57983e-19)
(-1.93627 2.22553 -3.70488e-18)
(-1.95346 2.24516 4.03276e-18)
(-1.96948 2.26344 3.87366e-18)
(-1.98447 2.28055 -3.51316e-18)
(-1.99855 2.29662 3.3845e-18)
(-2.01183 2.31177 -3.27074e-18)
(-2.02437 2.32608 -1.97539e-19)
(-2.03626 2.33964 -3.05723e-18)
(-2.04755 2.35251 2.965e-18)
(-2.0583 2.36477 3.59278e-19)
(-2.06854 2.37645 -3.48754e-19)
(-2.07831 2.3876 0)
(-2.08766 2.39826 -2.63392e-18)
(-2.0966 2.40846 2.56584e-18)
(-2.10517 2.41824 -3.12099e-19)
(-2.11339 2.42762 0)
(-2.12128 2.43662 2.66662e-18)
(-2.12885 2.44527 -2.6041e-18)
(-2.13613 2.45358 -2.82062e-18)
(-2.14312 2.46158 2.20596e-18)
(-2.14985 2.46927 -2.15182e-18)
(-2.15633 2.47667 2.36892e-18)
(-2.16256 2.4838 0)
(-2.16855 2.49066 2.51482e-19)
(-2.17432 2.49727 2.46022e-19)
(-2.17988 2.50364 -1.44291e-18)
(-2.18522 2.50976 3.77046e-18)
(-2.19036 2.51566 -4.64635e-19)
(-2.19531 2.52134 -3.16339e-18)
(-2.20007 2.5268 1.77226e-18)
(-2.20464 2.53205 8.65758e-19)
(-2.20904 2.5371 -1.7015e-18)
(-2.21326 2.54195 4.16496e-19)
(-2.21731 2.54661 1.63132e-18)
(-2.22119 2.55108 -8.02052e-19)
(-2.22491 2.55536 1.96018e-18)
(-2.22847 2.55946 -1.15583e-18)
(-2.23187 2.56339 -5.82946e-24)
(-2.23512 2.56713 0)
(-2.23821 2.5707 -1.44957e-18)
(-2.24116 2.57411 1.78085e-18)
(-2.24396 2.57734 0)
(-2.24661 2.58041 0)
(-2.24912 2.58331 1.34108e-18)
(-2.25149 2.58605 -6.61979e-19)
(-2.25372 2.58863 -1.61631e-18)
(-2.25581 2.59105 -9.483e-19)
(-2.25776 2.59331 1.24405e-18)
(-2.25957 2.59541 -6.09107e-19)
(-2.26125 2.59736 5.95496e-19)
(-2.26279 2.59915 -5.87413e-19)
(-2.2642 2.60078 -1.14653e-18)
(-2.26547 2.60226 1.12756e-18)
(-2.26661 2.60359 -1.10351e-18)
(-2.26761 2.60476 0)
(-2.26848 2.60578 2.11815e-18)
(-2.26922 2.60664 -1.04052e-18)
(-2.26983 2.60735 -1.01584e-18)
(-2.2703 2.60791 5.00325e-19)
(-2.27065 2.60832 0)
(-2.27085 2.60857 4.78187e-19)
(-2.27093 2.60867 0)
(-2.27087 2.60861 4.58417e-19)
(-2.27068 2.6084 4.46853e-19)
(-2.27036 2.60804 -8.8022e-19)
(-2.2699 2.60752 0)
(-2.26931 2.60685 4.2042e-19)
(-2.26858 2.60602 1.64493e-18)
(-2.26772 2.60503 8.04327e-19)
(-2.26673 2.60389 -7.86429e-19)
(-2.26559 2.60259 5.52919e-24)
(-2.26432 2.60113 0)
(-2.26292 2.59952 -7.34159e-19)
(-2.26137 2.59774 -1.91351e-21)
(-2.25969 2.5958 -1.91002e-21)
(-2.25787 2.5937 0)
(-2.25591 2.59144 -6.67789e-19)
(-2.25381 2.58902 1.30166e-18)
(-2.25156 2.58644 -1.91911e-21)
(-1.12713 1.30647 -7.84918e-18)
(-1.39889 1.62034 -7.63956e-18)
(-1.52058 1.76029 1.43113e-17)
(-1.60201 1.85466 -6.711e-18)
(-1.66347 1.9254 0)
(-1.71239 1.98189 0)
(-1.75304 2.02874 0)
(-1.78775 2.06876 5.23778e-18)
(-1.81804 2.10365 -4.95877e-18)
(-1.8449 2.13459 2.9391e-19)
(-1.86902 2.16236 4.4719e-18)
(-1.89091 2.18756 -2.69673e-19)
(-1.91094 2.2106 -8.40644e-18)
(-1.9294 2.23184 3.6605e-18)
(-1.94652 2.25152 -4.68038e-19)
(-1.96247 2.26986 3.82186e-18)
(-1.97739 2.28701 2.13478e-19)
(-1.99141 2.30312 -3.54946e-18)
(-2.00463 2.3183 0)
(-2.01712 2.33265 3.50379e-18)
(-2.02896 2.34624 -3.0167e-18)
(-2.0402 2.35914 3.65149e-19)
(-2.05089 2.37142 -3.5406e-19)
(-2.06109 2.38313 3.43669e-19)
(-2.07082 2.3943 0)
(-2.08012 2.40498 2.59557e-18)
(-2.08903 2.41521 -2.52846e-18)
(-2.09756 2.425 3.07573e-19)
(-2.10574 2.4344 2.99675e-19)
(-2.1136 2.44342 -5.84295e-19)
(-2.12114 2.45208 2.56329e-18)
(-2.12838 2.46041 -4.172e-18)
(-2.13535 2.46842 2.17419e-18)
(-2.14205 2.47612 1.85564e-18)
(-2.1485 2.48354 -4.14864e-18)
(-2.15471 2.49067 2.02958e-18)
(-2.16068 2.49755 2.47946e-19)
(-2.16643 2.50417 -2.42579e-19)
(-2.17196 2.51054 1.89773e-18)
(-2.17729 2.51667 -1.62847e-18)
(-2.18242 2.52258 -9.08774e-19)
(-2.18735 2.52826 1.33906e-18)
(-2.19209 2.53373 -4.36771e-19)
(-2.19665 2.53899 1.71032e-18)
(-2.20103 2.54405 -1.67939e-18)
(-2.20523 2.54891 2.05414e-18)
(-2.20927 2.55357 -3.24222e-21)
(-2.21314 2.55805 -3.98483e-19)
(-2.21685 2.56234 -1.55187e-18)
(-2.2204 2.56645 -3.80088e-19)
(-2.22379 2.57037 1.1167e-18)
(-2.22703 2.57413 -1.46429e-18)
(-2.23012 2.5777 -3.58683e-19)
(-2.23306 2.58111 0)
(-2.23585 2.58435 -3.45178e-19)
(-2.2385 2.58742 -1.35282e-18)
(-2.241 2.59033 1.66276e-18)
(-2.24337 2.59308 1.95374e-18)
(-2.24559 2.59566 -6.41181e-19)
(-2.24767 2.59808 0)
(-2.24962 2.60035 6.15361e-19)
(-2.25143 2.60246 1.80912e-18)
(-2.2531 2.60441 -1.18591e-18)
(-2.25464 2.6062 5.8071e-19)
(-2.25604 2.60784 -1.13726e-18)
(-2.25731 2.60932 3.58404e-21)
(-2.25845 2.61065 2.19241e-18)
(-2.25945 2.61182 0)
(-2.26032 2.61284 -6.44753e-24)
(-2.26106 2.61371 1.0302e-18)
(-2.26167 2.61442 -1.01335e-18)
(-2.26214 2.61498 0)
(-2.26248 2.61539 1.45513e-18)
(-2.26269 2.61564 -3.7025e-21)
(-2.26277 2.61574 -9.34034e-19)
(-2.26272 2.61568 4.54625e-19)
(-2.26253 2.61547 -4.48886e-19)
(-2.26221 2.61511 0)
(-2.26175 2.61459 0)
(-2.26116 2.61391 -3.33019e-24)
(-2.26044 2.61308 -6.224e-24)
(-2.25959 2.61209 8.02882e-19)
(-2.25859 2.61095 -7.85345e-19)
(-2.25747 2.60965 1.90887e-21)
(-2.2562 2.60818 3.81408e-21)
(-2.2548 2.60656 2.20419e-18)
(-2.25326 2.60478 7.1746e-19)
(-2.25159 2.60284 7.01046e-19)
(-2.24977 2.60074 0)