/*--------------------------------*- C++ -*----------------------------------*\
  =========                 |
  \\      /  F ield         | OpenFOAM: The Open Source CFD Toolbox
   \\    /   O peration     | Website:  https://openfoam.org
    \\  /    A nd           | Version:  10
     \\/     M anipulation  |
\*---------------------------------------------------------------------------*/
FoamFile
{
    format      ascii;
    class       volScalarField;
    location    "2100";
    object      nut;
}
// * * * * * * * * * * * * * * * * * * * * * * * * * * * * * * * * * * * * * //

dimensions      [0 2 -1 0 0 0 0];

internalField   nonuniform List<scalar> 
420
(
1.04478e-20
6.47716e-20
1.68306e-19
2.98936e-19
4.40576e-19
5.79068e-19
6.88886e-19
7.28237e-19
6.66696e-19
5.46485e-19
1.04473e-20
6.51079e-20
1.72054e-19
3.03826e-19
4.43565e-19
5.78158e-19
6.80282e-19
7.02107e-19
6.16457e-19
4.88628e-19
1.04471e-20
6.48327e-20
1.77816e-19
3.15876e-19
4.57275e-19
5.89165e-19
6.79942e-19
6.73459e-19
5.5808e-19
4.30225e-19
1.04472e-20
6.44248e-20
1.83408e-19
3.29691e-19
4.73638e-19
6.00763e-19
6.73366e-19
6.31172e-19
4.94141e-19
3.74255e-19
1.04476e-20
6.4215e-20
1.83906e-19
3.31854e-19
4.70108e-19
5.85306e-19
6.38904e-19
5.71233e-19
4.35202e-19
3.19391e-19
1.04483e-20
6.36907e-20
1.72586e-19
2.97168e-19
4.06862e-19
4.99473e-19
5.48302e-19
4.98972e-19
3.76356e-19
2.6305e-19
1.04493e-20
6.05084e-20
1.38667e-19
2.09009e-19
2.71572e-19
3.31481e-19
3.77758e-19
3.7503e-19
2.99814e-19
2.01527e-19
1.04506e-20
4.77828e-20
7.99765e-20
1.04879e-19
1.3002e-19
1.57461e-19
1.84722e-19
2.00394e-19
1.85184e-19
1.33265e-19
1.04522e-20
2.14948e-20
2.79697e-20
3.46467e-20
4.20203e-20
5.02559e-20
5.91391e-20
6.75188e-20
7.27901e-20
6.3131e-20
2.82342e-21
3.6643e-21
4.61494e-21
5.67535e-21
6.84552e-21
8.12545e-21
9.51514e-21
1.10146e-20
1.26238e-20
1.43428e-20
4.53629e-19
4.25371e-19
5.00832e-19
8.58135e-19
1.21837e-18
1.18808e-18
9.54858e-19
5.99279e-19
2.8695e-19
6.20016e-20
4.05113e-19
3.87381e-19
4.63172e-19
8.38509e-19
1.20515e-18
1.12114e-18
9.48446e-19
6.00502e-19
2.84082e-19
6.20034e-20
3.57096e-19
3.48535e-19
4.31167e-19
8.12945e-19
1.18436e-18
1.10805e-18
9.16868e-19
6.01313e-19
2.83272e-19
6.2004e-20
3.08005e-19
3.08017e-19
4.04732e-19
7.87657e-19
1.16272e-18
1.1122e-18
8.98347e-19
6.02372e-19
2.84255e-19
6.20033e-20
2.57213e-19
2.66077e-19
3.77552e-19
7.65028e-19
1.03527e-18
1.12402e-18
8.78179e-19
6.0384e-19
2.86401e-19
6.20012e-20
2.04851e-19
2.23894e-19
3.50589e-19
7.49439e-19
9.84564e-19
1.14873e-18
8.60593e-19
6.05418e-19
2.89842e-19
6.19978e-20
1.52512e-19
1.83328e-19
3.25642e-19
7.429e-19
9.91294e-19
1.14966e-18
8.42873e-19
6.06625e-19
2.93723e-19
6.19932e-20
1.0318e-19
1.46225e-19
3.04991e-19
7.44819e-19
1.00205e-18
1.16896e-18
8.19323e-19
6.07092e-19
2.9753e-19
6.19873e-20
6.07643e-20
1.13851e-19
2.91366e-19
7.58815e-19
9.98972e-19
1.1909e-18
8.29314e-19
6.0713e-19
3.00405e-19
6.19801e-20
2.89142e-20
8.7378e-20
2.94955e-19
7.94349e-19
9.76572e-19
1.19842e-18
8.81546e-19
6.07018e-19
3.00491e-19
6.19718e-20
1.03958e-20
7.42759e-20
3.61565e-19
7.61456e-19
9.45468e-19
1.13554e-18
8.076e-19
6.0589e-19
2.9824e-19
6.20994e-20
1.03958e-20
9.32444e-20
4.55436e-19
7.38687e-19
9.16459e-19
1.1105e-18
7.53424e-19
6.05155e-19
2.96815e-19
6.20994e-20
5.7218e-20
2.40504e-19
6.07068e-19
7.4977e-19
9.46787e-19
1.17373e-18
7.46783e-19
6.04636e-19
2.92465e-19
6.19718e-20
2.76522e-19
5.16571e-19
6.07385e-19
7.52357e-19
9.42821e-19
1.20284e-18
8.01348e-19
6.09254e-19
2.86951e-19
6.19801e-20
5.19066e-19
5.59554e-19
6.1182e-19
7.56464e-19
9.38107e-19
1.20819e-18
7.92444e-19
6.08064e-19
2.83284e-19
6.19873e-20
6.01512e-19
5.88015e-19
6.2346e-19
7.7413e-19
9.58072e-19
1.21415e-18
8.25548e-19
6.06883e-19
2.83481e-19
6.19932e-20
6.33497e-19
5.97663e-19
6.28249e-19
7.90385e-19
9.8978e-19
1.22034e-18
8.6662e-19
6.05916e-19
2.85948e-19
6.19978e-20
6.40703e-19
5.97475e-19
6.39694e-19
8.33616e-19
1.07956e-18
1.22526e-18
9.17648e-19
6.04785e-19
2.90956e-19
6.20012e-20
6.18258e-19
5.71564e-19
6.35461e-19
8.98672e-19
1.21762e-18
1.2296e-18
9.40364e-19
6.02809e-19
2.96316e-19
6.20033e-20
5.8547e-19
5.36708e-19
6.08295e-19
8.94826e-19
1.22443e-18
1.23255e-18
9.3032e-19
5.98641e-19
2.97281e-19
6.2004e-20
5.47497e-19
5.00944e-19
5.77587e-19
8.86591e-19
1.22658e-18
1.23239e-18
8.75577e-19
5.94475e-19
2.92834e-19
6.20034e-20
5.04735e-19
4.6544e-19
5.42878e-19
8.72679e-19
1.22379e-18
1.23333e-18
8.66206e-19
5.93487e-19
2.8819e-19
6.20016e-20
1.43428e-20
1.1514e-19
4.16366e-19
6.24126e-19
6.95815e-19
7.25229e-19
7.15206e-19
6.86993e-19
6.49632e-19
6.0363e-19
1.26238e-20
8.6249e-20
3.058e-19
5.89802e-19
7.44272e-19
7.94203e-19
7.99147e-19
7.82966e-19
7.53167e-19
7.13768e-19
1.10146e-20
6.48037e-20
2.15518e-19
4.47879e-19
6.47711e-19
7.60956e-19
8.06849e-19
8.09449e-19
7.89448e-19
7.58669e-19
9.51514e-21
5.1262e-20
1.44303e-19
2.94131e-19
4.67881e-19
6.14334e-19
7.07623e-19
7.39741e-19
7.34421e-19
7.1057e-19
8.12545e-21
4.35472e-20
1.12321e-19
2.11085e-19
3.28735e-19
4.45015e-19
5.39021e-19
5.95127e-19
6.09193e-19
5.9479e-19
6.84552e-21
3.75393e-20
9.50608e-20
1.70334e-19
2.54632e-19
3.37363e-19
4.06533e-19
4.51168e-19
4.63851e-19
4.52304e-19
5.67535e-21
3.19595e-20
8.22019e-20
1.44412e-19
2.07252e-19
2.61779e-19
3.00908e-19
3.19582e-19
3.18571e-19
3.06492e-19
4.61494e-21
2.64545e-20
6.82423e-20
1.13925e-19
1.49167e-19
1.70312e-19
1.79638e-19
1.79696e-19
1.74887e-19
1.69702e-19
3.6643e-21
2.06616e-20
4.40243e-20
5.76582e-20
6.28756e-20
6.42341e-20
6.43099e-20
6.36599e-20
6.3227e-20
6.41105e-20
2.82342e-21
1.04522e-20
1.04506e-20
1.04493e-20
1.04483e-20
1.04476e-20
1.04472e-20
1.04471e-20
1.04473e-20
1.04478e-20
)
;

boundaryField
{
    right
    {
        type            cyclic;
    }
    left
    {
        type            cyclic;
    }
    outerWall
    {
        type            nutkWallFunction;
        Cmu             0.09;
        kappa           0.41;
        E               9.8;
        value           uniform 0;
    }
    stirrerWall
    {
        type            nutkWallFunction;
        Cmu             0.09;
        kappa           0.41;
        E               9.8;
        value           uniform 0;
    }
    top
    {
        type            empty;
    }
    bottom
    {
        type            empty;
    }
}


// ************************************************************************* //
