/*--------------------------------*- C++ -*----------------------------------*\
  =========                 |
  \\      /  F ield         | OpenFOAM: The Open Source CFD Toolbox
   \\    /   O peration     | Website:  https://openfoam.org
    \\  /    A nd           | Version:  10
     \\/     M anipulation  |
\*---------------------------------------------------------------------------*/
FoamFile
{
    format      ascii;
    class       volScalarField;
    location    "2100";
    object      omega;
}
// * * * * * * * * * * * * * * * * * * * * * * * * * * * * * * * * * * * * * //

dimensions      [0 0 -1 0 0 0 0];

internalField   nonuniform List<scalar> 
420
(
21252.7
3428.11
1319.29
742.783
503.987
383.452
322.324
304.907
333.052
406.314
21253.7
3410.41
1290.55
730.829
500.591
384.055
326.401
316.255
360.195
454.425
21254.2
3424.89
1248.73
702.948
485.582
376.88
326.564
329.708
397.872
516.113
21254
3446.57
1210.66
673.493
468.806
369.604
329.753
351.797
449.354
593.298
21253.2
3457.83
1207.38
669.104
472.327
379.365
347.54
388.711
510.21
695.212
21251.7
3486.29
1286.57
747.203
545.749
444.558
404.968
445.004
589.986
844.116
21249.7
3669.65
1601.28
1062.37
817.626
669.855
587.796
592.072
740.607
1101.81
21247.1
4646.96
2776.37
2117.15
1707.78
1410.16
1202.05
1108.04
1199.05
1666.18
21243.8
10330.2
7938.74
6408.82
5284.23
4418.28
3754.62
3288.63
3050.48
3517.2
78643.9
60596.7
48114.3
39124.4
32436.5
27327.1
23335.9
20159.1
17589.3
15481.3
489.485
522.002
461.012
353.567
286.27
264.475
287.376
370.519
773.809
3581.27
548.105
573.195
486.312
358.048
285.914
264.375
288.652
369.765
781.62
3581.17
621.806
637.08
514.985
361.895
285.106
263.937
289.932
369.266
783.856
3581.13
720.911
720.885
548.621
365.6
284.373
263.308
290.784
368.617
781.147
3581.18
863.272
834.514
588.116
369.024
283.78
262.631
291.26
367.721
775.293
3581.3
1083.93
991.741
633.347
371.791
283.403
261.989
291.441
366.762
766.09
3581.49
1455.91
1211.19
681.867
373.055
283.246
261.486
291.367
366.033
755.965
3581.76
2152.02
1518.52
728.038
371.758
283.278
261.24
291.049
365.751
746.294
3582.1
3654.2
1950.3
762.081
366.842
283.465
261.371
290.427
365.729
739.151
3582.51
7679.44
2541.2
752.808
354.376
283.291
261.701
290.069
365.796
738.94
3582.99
21359.1
2989.46
641.865
334.853
282.896
261.984
290.846
366.477
744.517
3575.63
21359.1
2381.32
532.259
326.513
282.948
261.05
290.072
366.922
748.092
3575.63
3880.68
923.248
402.268
318.545
282.485
259.699
288.695
367.237
759.218
3582.99
802.99
429.757
350.645
316.823
283.299
259.529
286.55
364.453
773.808
3582.51
391.323
355.824
347.118
319.088
284.167
259.897
285.903
365.167
783.823
3582.1
334.973
352.608
353.339
322.322
284.849
260.394
285.038
365.877
783.28
3581.76
333.655
362.402
362.566
326.143
285.557
261.201
284.595
366.461
776.52
3581.49
343.877
376.9
373.648
330.316
286.225
262.241
284.661
367.146
763.156
3581.3
359.146
394.977
386.321
334.653
286.782
263.456
285.302
368.35
749.35
3581.18
379.259
416.98
400.576
338.877
287.088
264.697
286.436
370.915
746.919
3581.13
405.563
443.814
416.644
342.913
286.975
265.696
287.68
373.514
758.261
3581.17
439.923
477.063
435.603
347.079
286.604
266.161
288.339
374.136
770.481
3581.27
15481.3
1928.47
533.292
334.191
303.48
302.783
310.463
323.212
341.801
367.849
17589.3
2574.46
726.111
376.473
298.338
279.581
277.852
283.594
294.815
311.088
20159.1
3426.42
1030.28
495.769
342.814
291.797
275.2
274.316
281.266
292.676
23335.9
4331.56
1538.74
754.918
474.574
361.44
313.789
300.165
302.34
312.488
27327.1
5098.94
1976.88
1051.92
675.452
498.96
411.94
373.105
364.489
373.316
32436.5
5914.99
2335.82
1303.59
872.023
658.177
546.191
492.155
478.698
490.919
39124.4
6947.68
2701.21
1537.57
1071.38
848.213
737.914
694.797
697.003
724.472
48114.3
8393.46
3253.77
1949.05
1488.57
1303.75
1236.07
1235.67
1269.64
1308.44
60596.7
10746.7
5043.68
3851.05
3531.49
3456.8
3452.73
3487.98
3511.87
3463.46
78643.9
21243.8
21247.1
21249.7
21251.7
21253.2
21254
21254.2
21253.7
21252.7
)
;

boundaryField
{
    right
    {
        type            cyclic;
    }
    left
    {
        type            cyclic;
    }
    outerWall
    {
        beta1           0.075;
        blended         0;
        type            omegaWallFunction;
        value           nonuniform List<scalar> 
22
(
3581.27
3581.17
3581.13
3581.18
3581.3
3581.49
3581.76
3582.1
3582.51
3582.99
3575.63
3575.63
3582.99
3582.51
3582.1
3581.76
3581.49
3581.3
3581.18
3581.13
3581.17
3581.27
)
;
    }
    stirrerWall
    {
        beta1           0.075;
        blended         0;
        type            omegaWallFunction;
        value           nonuniform List<scalar> 
42
(
21252.7
21253.7
21254.2
21254
21253.2
21251.7
21249.7
21247.1
21243.8
78643.9
78643.9
60596.7
48114.3
39124.4
32436.5
27327.1
23335.9
20159.1
17589.3
15481.3
21359.1
21359.1
15481.3
17589.3
20159.1
23335.9
27327.1
32436.5
39124.4
48114.3
60596.7
78643.9
78643.9
21243.8
21247.1
21249.7
21251.7
21253.2
21254
21254.2
21253.7
21252.7
)
;
    }
    top
    {
        type            empty;
    }
    bottom
    {
        type            empty;
    }
}


// ************************************************************************* //
