/*--------------------------------*- C++ -*----------------------------------*\
  =========                 |
  \\      /  F ield         | OpenFOAM: The Open Source CFD Toolbox
   \\    /   O peration     | Website:  https://openfoam.org
    \\  /    A nd           | Version:  10
     \\/     M anipulation  |
\*---------------------------------------------------------------------------*/
FoamFile
{
    format      ascii;
    class       volScalarField;
    location    "2100";
    object      p;
}
// * * * * * * * * * * * * * * * * * * * * * * * * * * * * * * * * * * * * * //

dimensions      [0 2 -2 0 0 0 0];

internalField   nonuniform List<scalar> 
420
(
0.413571
15.8759
32.0792
50.8252
71.2768
92.7048
114.542
135.974
156.393
175.459
0.337492
15.3917
31.2545
49.6751
69.8904
91.2592
113.219
134.937
155.691
175.065
0.234183
15.0122
30.5324
48.5909
68.5204
89.7853
111.843
133.789
154.842
174.569
0.196223
14.7242
29.9037
47.5676
67.1685
88.2523
110.311
132.434
153.84
173.989
0.235869
14.5668
29.4111
46.6447
65.8572
86.68
108.655
130.931
152.741
173.409
0.325286
14.5815
29.1325
45.9128
64.672
85.1419
106.936
129.361
151.652
172.931
0.440927
14.7785
29.1236
45.4753
63.7358
83.7679
105.289
127.789
150.551
172.579
0.546128
15.1347
29.3798
45.3478
63.1012
82.6051
103.696
126.06
149.174
172.092
0.563128
15.6076
29.8274
45.4653
62.7464
81.6599
102.125
123.973
146.911
170.249
0.451822
16.127
30.2067
45.587
62.5213
80.9472
100.803
121.946
144.008
166.653
192.926
209.345
224.892
239.12
251.843
262.956
270.384
285.817
286.568
315.725
192.783
209.392
225.049
239.335
252.15
263.472
271.2
286.863
288.883
316.886
192.595
209.438
225.239
239.647
252.681
264.342
272.298
287.809
290.784
318.68
192.39
209.497
225.437
240.006
253.318
265.352
273.557
289.227
292.91
319.541
192.262
209.628
225.674
240.409
253.989
266.364
274.837
290.9
295.1
320.122
192.3
209.879
225.969
240.843
254.624
267.279
275.968
292.322
296.889
320.987
192.611
210.23
226.23
241.24
255.168
268.016
276.759
293.08
297.723
321.996
193.102
210.545
226.31
241.524
255.604
268.54
277.133
293.196
298.403
322.758
193.001
210.993
226.528
241.853
256.014
268.905
277.22
293.371
300.169
323.329
191.915
212.306
227.581
242.527
256.496
269.131
277.134
294.075
301.327
324.25
192.278
213.565
228.86
243.357
256.936
269.326
275.838
294.51
295.788
324.189
194.034
214.054
229.522
243.633
256.827
268.861
275.054
293.052
291.241
320.866
198.916
214.766
229.929
243.92
256.821
268.419
275.579
289.98
290.917
317.493
198.396
214.314
229.518
243.61
256.461
267.947
275.202
288.346
290.315
314.607
196.999
213.357
228.764
242.995
255.929
267.509
275.037
287.985
289.173
311.787
195.898
212.344
227.878
242.231
255.286
267.034
274.911
287.706
287.742
309.018
195.107
211.461
226.998
241.406
254.563
266.562
275.015
287.852
286.573
306.546
194.484
210.701
226.159
240.54
253.734
266.02
275.217
288.349
286.574
307.581
193.958
210.057
225.415
239.71
252.85
265.272
274.865
288.328
288.479
317.392
193.531
209.59
224.897
239.112
252.129
264.33
273.318
286.425
290.099
330.643
193.233
209.356
224.701
238.89
251.75
263.404
271.075
283.143
286.448
328.165
193.062
209.312
224.756
238.938
251.612
262.654
269.655
283.584
285.694
313.022
182.978
180.444
178.957
178.155
177.656
177.25
176.86
176.46
176.082
175.794
156.908
157.65
158.219
158.468
158.561
158.501
158.284
157.907
157.409
156.938
129.5
132.943
135.684
137.273
138.14
138.524
138.511
138.166
137.539
136.811
104.913
108.839
112.62
115.176
116.72
117.511
117.69
117.367
116.644
115.679
83.3311
86.5321
90.1789
93.0334
94.9061
95.936
96.245
95.9376
95.1484
94.0262
64.1688
66.3584
69.1814
71.6769
73.4627
74.4885
74.8221
74.5317
73.7423
72.6004
47.0747
48.3505
50.0894
51.7966
53.1089
53.8681
54.074
53.7674
53.0282
51.9847
31.8741
32.4231
33.1477
33.9067
34.5124
34.8331
34.8187
34.4679
33.8206
32.9629
18.5352
18.4103
18.33
18.3192
18.3136
18.2283
18.01
17.6358
17.1103
16.4737
6.29733
5.09742
4.08769
3.43597
2.98348
2.5926
2.19372
1.76819
1.33665
0.881508
)
;

boundaryField
{
    right
    {
        type            cyclic;
    }
    left
    {
        type            cyclic;
    }
    outerWall
    {
        type            zeroGradient;
    }
    stirrerWall
    {
        type            zeroGradient;
    }
    top
    {
        type            empty;
    }
    bottom
    {
        type            empty;
    }
}


// ************************************************************************* //
