/*--------------------------------*- C++ -*----------------------------------*\
  =========                 |
  \\      /  F ield         | OpenFOAM: The Open Source CFD Toolbox
   \\    /   O peration     | Website:  https://openfoam.org
    \\  /    A nd           | Version:  10
     \\/     M anipulation  |
\*---------------------------------------------------------------------------*/
FoamFile
{
    format      ascii;
    class       surfaceScalarField;
    location    "2100";
    object      phi;
}
// * * * * * * * * * * * * * * * * * * * * * * * * * * * * * * * * * * * * * //

dimensions      [0 3 -1 0 0 0 0];

internalField   nonuniform List<scalar> 
788
(
-9.93798e-07
-8.60935e-06
2.03738e-06
5.05964e-06
4.37028e-06
1.12219e-05
6.45582e-06
1.31976e-05
8.07944e-06
1.14969e-05
8.83714e-06
6.58545e-06
8.37511e-06
-7.072e-07
6.66056e-06
-9.859e-06
3.99021e-06
-2.04989e-05
-3.44899e-05
1.15098e-06
-1.69237e-07
-8.43182e-06
1.76377e-06
3.10927e-06
4.10152e-06
8.84839e-06
6.28815e-06
1.10295e-05
7.81272e-06
1.00658e-05
8.23095e-06
6.3102e-06
7.229e-06
4.35375e-07
4.92302e-06
-7.49295e-06
1.8284e-06
-1.74319e-05
-3.17572e-05
-9.99324e-07
-7.89015e-08
-8.34797e-06
1.01951e-06
2.02598e-06
3.0228e-06
6.88469e-06
5.05552e-06
9.07214e-06
6.39741e-06
8.83271e-06
6.52671e-06
6.29011e-06
5.12496e-06
1.93367e-06
2.19481e-06
-4.50194e-06
-1.29304e-06
-1.3925e-05
-2.92144e-05
-3.8513e-06
-2.14806e-07
-8.12335e-06
2.99571e-07
1.5408e-06
1.87586e-06
5.38432e-06
3.59207e-06
7.46201e-06
4.62383e-06
7.92408e-06
4.25468e-06
6.76052e-06
2.19481e-06
4.05787e-06
-1.38299e-06
-9.01658e-07
-4.79251e-06
-1.05185e-05
-2.74068e-05
-6.60041e-06
-4.77817e-07
-7.62829e-06
-3.38916e-07
1.44114e-06
8.21315e-07
4.31458e-06
2.17456e-06
6.21661e-06
2.88718e-06
7.3088e-06
2.12395e-06
7.57806e-06
-4.19922e-07
6.61236e-06
-3.91319e-06
2.57159e-06
-6.55362e-06
-7.89492e-06
-2.61552e-05
-7.77107e-06
-7.98792e-07
-6.81159e-06
-8.77285e-07
1.55314e-06
1.70558e-08
3.4949e-06
1.19213e-06
5.11637e-06
1.93719e-06
6.60714e-06
1.54435e-06
7.96862e-06
-2.6804e-07
8.3907e-06
-2.80187e-06
5.06054e-06
-4.90292e-06
-5.80767e-06
-2.44881e-05
-6.50279e-06
-1.15601e-06
-5.64571e-06
-1.30697e-06
1.71614e-06
-4.38457e-07
2.66747e-06
8.85826e-07
3.82528e-06
2.18242e-06
5.31144e-06
2.96517e-06
7.15342e-06
2.80949e-06
8.49379e-06
1.53857e-06
6.27877e-06
-3.75681e-07
-3.90448e-06
-2.13903e-05
-3.38791e-06
-1.55511e-06
-4.09199e-06
-1.56153e-06
1.71027e-06
-5.45993e-07
1.66408e-06
1.01786e-06
2.27342e-06
2.9752e-06
3.34819e-06
5.20375e-06
4.89416e-06
7.26483e-06
6.37117e-06
7.88004e-06
5.57951e-06
5.29583e-06
-1.36114e-06
-1.58838e-05
-1.24236e-07
-1.98122e-06
-2.11937e-06
-1.37111e-06
1.0796e-06
-3.02169e-07
6.00545e-07
1.02061e-06
9.61131e-07
2.79064e-06
1.57406e-06
5.27123e-06
2.37991e-06
8.46398e-06
3.10668e-06
1.10339e-05
2.90381e-06
9.27327e-06
3.39527e-07
-8.10168e-06
1.57879e-06
-2.12684e-06
-1.04333e-06
-4.32543e-07
5.32108e-07
2.09698e-06
4.44571e-06
7.49357e-06
1.03388e-05
1.06862e-05
2.71683e-06
-9.06352e-07
-5.37878e-05
-1.87065e-06
-8.7072e-05
-1.85715e-06
-0.00013264
-1.73316e-06
-0.000191637
-1.96208e-06
-0.000265622
-3.16426e-06
-0.000356937
-1.16055e-06
-0.000459343
4.16433e-06
-0.000603783
2.15145e-06
-0.000612867
-0.000857999
-2.63138e-06
-5.22704e-05
-3.05649e-06
-8.67262e-05
-2.77312e-06
-0.000132922
-2.69694e-06
-0.000191713
-2.96813e-06
-0.000265505
-3.65056e-06
-0.000356348
-2.66636e-06
-0.000460264
1.44392e-06
-0.000608076
-1.90614e-06
-0.000608956
-0.000860129
-4.76534e-06
-5.13757e-05
-4.39889e-06
-8.70707e-05
-3.55904e-06
-0.0001337
-3.26392e-06
-0.000192026
-3.51313e-06
-0.000265362
-4.20196e-06
-0.000355449
-4.24744e-06
-0.000460122
-5.73461e-08
-0.000612489
-2.98365e-06
-0.000606312
-0.000862978
-6.62572e-06
-5.13094e-05
-5.44169e-06
-8.81637e-05
-4.15148e-06
-0.000134909
-3.65962e-06
-0.00019257
-3.72517e-06
-0.000265343
-4.2089e-06
-0.00035465
-5.26136e-06
-0.000459328
-6.44718e-07
-0.000616824
-3.60176e-06
-0.000603483
-0.00086635
-7.2486e-06
-5.1729e-05
-5.63028e-06
-8.96427e-05
-4.20779e-06
-0.000136256
-3.66673e-06
-0.0001932
-3.63857e-06
-0.000265388
-4.02185e-06
-0.0003539
-5.70855e-06
-0.00045782
-9.29653e-07
-0.000621207
-4.08439e-06
-0.000600368
-0.000870214
-6.19056e-06
-5.18922e-05
-4.66959e-06
-9.10009e-05
-3.45893e-06
-0.000137428
-3.03783e-06
-0.000193782
-3.02759e-06
-0.00026547
-3.41828e-06
-0.000353287
-5.64516e-06
-0.000455699
-9.36784e-07
-0.000625558
-3.93263e-06
-0.00059746
-0.000873959
-3.80211e-06
-5.12843e-05
-2.71638e-06
-9.18873e-05
-1.94423e-06
-0.000138151
-1.77471e-06
-0.000194127
-1.88202e-06
-0.000265458
-2.30279e-06
-0.00035279
-5.03392e-06
-0.000453067
-8.16024e-07
-0.000629469
-3.49538e-06
-0.000594922
-0.000877319
-7.99339e-07
-5.03649e-05
-2.05417e-07
-9.22146e-05
9.11303e-08
-0.000138331
-3.71619e-08
-0.000194103
-3.02403e-07
-0.000265226
-6.45568e-07
-0.000352414
-3.92446e-06
-0.000449891
-1.26639e-06
-0.000631857
-2.71288e-06
-0.000593567
-0.000880017
2.0666e-06
-5.05813e-05
2.54894e-06
-9.2313e-05
2.32957e-06
-0.000137861
1.86945e-06
-0.000193608
1.42503e-06
-0.000264708
1.16041e-06
-0.000352085
-2.47978e-06
-0.000446344
-2.04213e-06
-0.000632118
-1.18536e-06
-0.000594301
-0.000881317
6.23833e-06
-5.38448e-05
5.56741e-06
-9.12165e-05
4.35007e-06
-0.000136244
3.50738e-06
-0.000192561
2.79236e-06
-0.000263863
3.85325e-06
-0.000353196
2.38013e-06
-0.000444903
-2.2661e-06
-0.000627327
1.19627e-06
-0.000597396
-0.000880131
2.59708e-06
-5.62084e-05
2.17688e-06
-9.04241e-05
1.33539e-06
-0.000135077
8.65926e-07
-0.000191976
7.69218e-07
-0.000263662
-3.14944e-07
-0.000352146
2.1966e-06
-0.000447432
8.38749e-06
-0.000633507
-9.24397e-07
-0.000587915
-0.000881064
3.95868e-06
-6.00471e-05
4.56295e-06
-9.07269e-05
4.07372e-06
-0.000134387
3.84871e-06
-0.000191742
3.84631e-06
-0.000263562
2.25629e-06
-0.000350492
2.2478e-06
-0.000447404
8.42771e-06
-0.000639758
7.47514e-07
-0.000580114
-0.000880352
5.39688e-06
-5.3869e-05
-1.14054e-05
4.50951e-06
-8.96215e-05
4.01225e-06
-0.000133652
3.14352e-06
-0.000190786
2.17649e-06
-0.000262508
2.56767e-06
-0.000350931
-3.5076e-06
-0.000441192
-7.31509e-06
-0.000636075
2.61803e-06
-0.000589875
-0.000877553
2.62666e-06
-5.61287e-05
-1.89938e-07
2.96299e-06
-8.97343e-05
3.33408e-06
-0.000133768
3.33449e-06
-0.000190746
3.25642e-06
-0.000262391
4.22804e-06
-0.000352019
2.42026e-06
-0.000439177
-1.54468e-06
-0.000632048
-1.54559e-06
-0.000589987
-0.000878903
-1.08491e-07
-5.88082e-05
2.8581e-06
1.22759e-06
-9.08819e-05
2.03693e-06
-0.000134369
2.40877e-06
-0.000191134
2.51413e-06
-0.000262462
2.98367e-06
-0.000352542
2.51752e-06
-0.000438747
-2.17612e-06
-0.000627131
-4.2684e-06
-0.00058791
-0.000882989
-8.35216e-07
-6.04499e-05
2.53779e-06
3.93378e-07
-9.19404e-05
1.26115e-06
-0.00013505
1.75173e-06
-0.000191662
1.98914e-06
-0.000262692
2.57596e-06
-0.000353069
2.87594e-06
-0.000439005
-2.82192e-06
-0.000621221
-5.53689e-06
-0.000585229
-0.000888377
-7.17946e-07
-6.12244e-05
1.55023e-06
6.44359e-08
-9.25751e-05
7.29976e-07
-0.000135549
1.21263e-06
-0.000192195
1.59087e-06
-0.000263093
2.31774e-06
-0.000353735
3.33285e-06
-0.000439972
-3.09091e-06
-0.000614602
-6.48163e-06
-0.000581926
-0.000894769
-3.5029e-07
-6.133e-05
5.11205e-07
-8.03673e-08
-9.27173e-05
2.59164e-07
-0.000135746
6.70096e-07
-0.000192661
1.21861e-06
-0.000263667
2.05793e-06
-0.00035452
3.79433e-06
-0.000441719
-2.62635e-06
-0.000608037
-5.7914e-06
-0.000578923
-0.000900496
1.07047e-07
-6.08784e-05
-5.05736e-07
-2.01938e-07
-9.23156e-05
-3.15483e-07
-0.000135525
-5.08613e-08
-0.000192995
7.61163e-07
-0.000264519
1.82377e-06
-0.000355562
4.36783e-06
-0.000444368
-4.56179e-07
-0.00060313
-2.72067e-06
-0.000576822
-0.000903063
6.19751e-07
-5.97645e-05
-1.69976e-06
-4.7835e-07
-9.11853e-05
-1.25747e-06
-0.000134686
-1.39413e-06
-0.000192956
-3.94598e-07
-0.000265593
1.09115e-06
-0.000357089
4.01251e-06
-0.0004475
1.37778e-06
-0.000600419
4.91181e-06
-0.00058025
-0.000897961
6.99009e-07
-5.76881e-05
-2.78117e-06
-1.22804e-06
-8.93122e-05
-2.49571e-06
-0.000133403
-3.17076e-06
-0.000192388
-2.33818e-06
-0.00026648
-9.6916e-07
-0.000358478
1.75486e-06
-0.000450499
-3.94705e-07
-0.00059807
2.97691e-05
-0.000609104
-0.000869186
7.96694e-08
-2.46143e-06
-1.67297e-06
-2.58192e-06
-3.51463e-06
-4.48455e-06
-5.79737e-06
7.51538e-07
3.24524e-06
8.46715e-06
-2.14101e-05
1.02563e-05
-3.21466e-05
1.07303e-05
-3.76453e-05
8.41353e-06
-4.05389e-05
5.5094e-06
-4.19622e-05
3.05332e-06
-4.23967e-05
1.00135e-06
-4.2116e-05
-7.79514e-07
-4.11899e-05
-2.67644e-06
-3.93654e-05
-4.71235e-06
-4.98642e-06
-5.41953e-06
1.56369e-05
-1.34883e-05
1.86051e-05
-1.95193e-05
1.41808e-05
-2.33258e-05
9.10545e-06
-2.54751e-05
4.98973e-06
-2.64524e-05
1.75419e-06
-2.65973e-05
-8.55651e-07
-2.61596e-05
-3.31402e-06
-2.5076e-05
-5.96638e-06
-6.98493e-06
1.6153e-06
1.39363e-05
-9.22005e-07
2.08917e-05
-4.86982e-06
1.78142e-05
-8.32311e-06
1.22802e-05
-1.07454e-05
7.12827e-06
-1.21813e-05
2.91076e-06
-1.27571e-05
-5.23938e-07
-1.2908e-05
-3.35793e-06
-1.28416e-05
-6.16716e-06
-7.92233e-06
3.77514e-06
1.00772e-05
6.04111e-06
1.8395e-05
5.45913e-06
1.81275e-05
3.74081e-06
1.37449e-05
1.94267e-06
8.65984e-06
4.97098e-07
4.09018e-06
-4.56281e-07
2.05558e-07
-1.0721e-06
-2.89896e-06
-1.62948e-06
-5.68186e-06
-7.82914e-06
3.64274e-06
6.37481e-06
8.5232e-06
1.33442e-05
1.13095e-05
1.51549e-05
1.19423e-05
1.29268e-05
1.13963e-05
9.01424e-06
1.0453e-05
4.84637e-06
9.53674e-06
9.7472e-07
8.76634e-06
-2.20876e-06
7.95737e-06
-4.86968e-06
-6.96175e-06
2.87398e-06
3.46845e-06
7.98557e-06
8.11549e-06
1.26185e-05
1.04054e-05
1.55258e-05
9.90675e-06
1.68604e-05
7.57331e-06
1.71248e-05
4.48051e-06
1.66778e-05
1.33592e-06
1.58463e-05
-1.42189e-06
1.47109e-05
-3.72603e-06
-5.53602e-06
2.07962e-06
1.37769e-06
6.36128e-06
3.76122e-06
1.1192e-05
5.50297e-06
1.51485e-05
5.89126e-06
1.77042e-05
4.96222e-06
1.89743e-05
3.15386e-06
1.91989e-05
1.05591e-06
1.8618e-05
-8.80179e-07
1.73903e-05
-2.5237e-06
-3.8297e-06
1.51729e-06
-1.42186e-07
4.73483e-06
5.02412e-07
8.64277e-06
1.54862e-06
1.2305e-05
2.20347e-06
1.50862e-05
2.1561e-06
1.67231e-05
1.4882e-06
1.7258e-05
4.87431e-07
1.68551e-05
-5.13877e-07
1.56706e-05
-1.3919e-06
-1.98486e-06
8.95984e-07
-1.04088e-06
2.87896e-06
-1.5056e-06
5.30489e-06
-9.0814e-07
7.71149e-06
-2.18533e-07
9.69456e-06
1.59355e-07
1.09544e-05
2.11511e-07
1.13641e-05
5.51646e-08
1.09861e-05
-1.65591e-07
9.89694e-06
-3.37067e-07
-6.85134e-08
-1.04565e-06
-2.56067e-06
-3.46997e-06
-3.68712e-06
-3.52668e-06
-3.31698e-06
-3.26851e-06
-3.44314e-06
-3.7737e-06
)
;

boundaryField
{
    right
    {
        type            cyclic;
        value           nonuniform List<scalar> 
20
(
0.000860984
0.000613924
0.00060017
0.000457338
0.00035764
0.0002657
0.000191645
0.000132726
8.79741e-05
5.56619e-05
3.70639e-05
2.30465e-05
1.1635e-05
1.39857e-06
-7.1679e-06
-1.31346e-05
-1.54531e-05
-1.37077e-05
-8.07515e-06
3.76675e-06
)
;
    }
    left
    {
        type            cyclic;
        value           nonuniform List<scalar> 
20
(
-0.000860984
-0.000613924
-0.00060017
-0.000457338
-0.00035764
-0.0002657
-0.000191645
-0.000132726
-8.79741e-05
-5.56619e-05
-3.70639e-05
-2.30465e-05
-1.1635e-05
-1.39857e-06
7.1679e-06
1.31346e-05
1.54531e-05
1.37077e-05
8.07515e-06
-3.76675e-06
)
;
    }
    outerWall
    {
        type            calculated;
        value           uniform 0;
    }
    stirrerWall
    {
        type            calculated;
        value           uniform 0;
    }
    top
    {
        type            empty;
        value           nonuniform List<scalar> 0();
    }
    bottom
    {
        type            empty;
        value           nonuniform List<scalar> 0();
    }
}


// ************************************************************************* //
