/*--------------------------------*- C++ -*----------------------------------*\
  =========                 |
  \\      /  F ield         | OpenFOAM: The Open Source CFD Toolbox
   \\    /   O peration     | Website:  https://openfoam.org
    \\  /    A nd           | Version:  10
     \\/     M anipulation  |
\*---------------------------------------------------------------------------*/
FoamFile
{
    format      ascii;
    class       volVectorField;
    location    "2100";
    object      U;
}
// * * * * * * * * * * * * * * * * * * * * * * * * * * * * * * * * * * * * * //

dimensions      [0 1 -1 0 0 0 0];

internalField   nonuniform List<vector> 
420
(
(0.380034 8.51129 9.40156e-18)
(-0.522509 10.7893 -6.48777e-17)
(-0.04798 12.5668 -2.5914e-16)
(0.139706 13.9883 6.98162e-17)
(0.224424 15.0809 -4.47433e-16)
(0.235664 15.8806 0)
(0.172236 16.4632 0)
(-0.0592392 16.8911 3.65622e-16)
(-0.258836 17.2145 -4.00949e-16)
(-0.426779 17.303 0)
(-0.24179 8.32221 3.06568e-17)
(-1.23462 10.5222 -1.56507e-16)
(-0.988706 12.3163 8.01245e-16)
(-0.895775 13.7665 -1.03959e-15)
(-0.89481 14.913 3.40752e-16)
(-0.979114 15.7965 1.99511e-17)
(-1.13271 16.4762 2.6084e-15)
(-1.44937 16.9777 -5.82435e-16)
(-1.69084 17.3537 8.73079e-16)
(-1.86617 17.4293 0)
(-0.885467 8.29391 1.22385e-16)
(-2.0272 10.2781 -7.46239e-16)
(-1.97839 12.0061 7.55556e-16)
(-2.00772 13.4565 1.18809e-15)
(-2.10616 14.6577 -7.78513e-16)
(-2.29275 15.6201 3.54262e-15)
(-2.53109 16.405 1.51821e-15)
(-2.92234 16.9925 3.47083e-15)
(-3.21139 17.4099 -1.43929e-15)
(-3.38313 17.4361 -3.40594e-15)
(-1.52259 8.20842 -5.22941e-17)
(-2.81982 10.0231 6.64539e-16)
(-2.94184 11.6555 -1.0097e-15)
(-3.10752 13.0837 8.01418e-16)
(-3.32433 14.3225 -1.54444e-15)
(-3.63441 15.3648 1.48479e-15)
(-3.99938 16.25 -9.27666e-15)
(-4.47401 16.9315 0)
(-4.79457 17.3679 -3.62408e-15)
(-4.92123 17.2777 3.46194e-15)
(-2.15151 8.09248 0)
(-3.60483 9.74709 4.41654e-16)
(-3.86842 11.2737 -4.16938e-16)
(-4.17406 12.6626 0)
(-4.52131 13.9304 -2.16354e-16)
(-4.96596 15.0603 -2.9879e-16)
(-5.47195 16.0566 3.2787e-15)
(-5.98988 16.8283 -3.96161e-15)
(-6.27422 17.2019 0)
(-6.33482 16.9606 -1.43151e-14)
(-2.77498 7.95701 1.93063e-17)
(-4.3736 9.43272 0)
(-4.75128 10.8565 0)
(-5.17693 12.2015 1.51267e-15)
(-5.64191 13.4914 -2.23463e-15)
(-6.19203 14.7131 2.54987e-15)
(-6.77604 15.835 6.79077e-16)
(-7.24343 16.6897 9.43407e-15)
(-7.49444 16.9668 -1.17036e-14)
(-7.5443 16.5748 6.97552e-15)
(-3.39932 7.80028 0)
(-5.11774 9.06837 -4.32649e-16)
(-5.57525 10.3901 -2.42458e-15)
(-6.08461 11.6841 -9.11737e-16)
(-6.62503 12.9798 -4.18971e-15)
(-7.22225 14.2684 2.6141e-15)
(-7.81356 15.4956 -6.62088e-15)
(-8.23879 16.4279 7.25497e-16)
(-8.48055 16.6707 -3.86495e-15)
(-8.60442 16.2528 -1.12082e-14)
(-4.03958 7.61551 -3.83173e-17)
(-5.81784 8.6466 4.30302e-16)
(-6.32074 9.87001 3.1024e-15)
(-6.88637 11.0986 5.17984e-16)
(-7.47428 12.3602 2.42554e-15)
(-8.08063 13.6595 0)
(-8.6484 14.9497 6.29658e-15)
(-9.0718 16.0145 7.7338e-15)
(-9.36465 16.3984 1.1319e-14)
(-9.69873 16.0585 9.12147e-15)
(-4.71722 7.38088 -3.71542e-17)
(-6.42858 8.18484 4.3572e-16)
(-6.95832 9.30968 -4.63403e-16)
(-7.58416 10.4338 -1.98529e-15)
(-8.23732 11.5767 6.55559e-15)
(-8.88332 12.7644 8.63447e-15)
(-9.4834 14.0006 -2.87948e-15)
(-9.98886 15.1698 0)
(-10.4571 15.9147 0)
(-10.9203 15.8364 -9.36532e-15)
(-5.52128 7.02596 3.31361e-17)
(-6.95191 7.71255 7.91744e-16)
(-7.58261 8.73435 0)
(-8.32227 9.77741 0)
(-9.05397 10.8331 -3.53126e-15)
(-9.73331 11.9035 -1.4204e-17)
(-10.3378 12.9651 5.90765e-15)
(-10.8752 13.9636 -1.23063e-14)
(-11.4634 14.8118 1.42352e-14)
(-12.2443 15.185 1.1866e-15)
(-0.595808 17.0396 0)
(-0.694539 16.3739 0)
(-0.70157 15.4404 0)
(-0.655353 14.3547 -7.42676e-16)
(-0.555424 13.2356 0)
(-0.447882 12.1208 0)
(-1.46995 11.475 7.17979e-16)
(0.513373 10.1706 0)
(1.70294 14.9994 0)
(-5.91877 11.6261 0)
(-2.00042 17.0828 1.41503e-15)
(-2.01064 16.3212 2.44837e-15)
(-1.90495 15.3431 1.2994e-16)
(-1.7664 14.2687 8.2291e-16)
(-1.58808 13.1626 3.98301e-17)
(-1.37198 12.0824 9.28658e-16)
(-2.38722 11.2872 2.69382e-17)
(-0.319492 10.0708 1.61938e-16)
(0.535197 15.0771 -2.77395e-15)
(-6.91441 11.2462 -7.26893e-16)
(-3.45753 16.9637 1.3097e-15)
(-3.33425 16.1106 0)
(-3.0892 15.1133 -1.94192e-15)
(-2.85106 14.0809 -1.60818e-15)
(-2.58391 13.0144 4.70444e-15)
(-2.27162 11.9878 -9.3124e-16)
(-3.29506 11.0343 1.45329e-15)
(-1.07904 9.81425 0)
(-0.672974 15.2018 3.18267e-15)
(-7.63175 10.6047 -3.38471e-17)
(-4.88736 16.66 2.97357e-15)
(-4.60045 15.74 7.25642e-15)
(-4.2217 14.7625 -7.47369e-15)
(-3.90532 13.7962 2.90098e-15)
(-3.55457 12.7873 1.93377e-17)
(-3.13407 11.8353 0)
(-4.16704 10.7695 -1.4467e-15)
(-1.79046 9.53357 -2.5522e-15)
(-1.79083 15.206 -3.18095e-15)
(-8.47016 9.9035 3.27041e-15)
(-6.18805 16.2015 2.58976e-15)
(-5.7464 15.2438 -2.31253e-15)
(-5.271 14.3215 7.58341e-15)
(-4.90916 13.4309 -2.97237e-15)
(-4.49104 12.4873 2.44752e-15)
(-3.96763 11.6227 -3.78549e-15)
(-5.01063 10.466 3.08345e-15)
(-2.44603 9.20606 2.68236e-15)
(-2.92695 15.1522 0)
(-9.22659 9.10902 -6.54876e-15)
(-7.32157 15.6656 3.10352e-15)
(-6.75494 14.6934 -1.37585e-14)
(-6.22886 13.834 -3.96447e-15)
(-5.84887 13.007 9.15659e-15)
(-5.37941 12.1252 7.61647e-15)
(-4.75911 11.3579 8.33002e-17)
(-5.8192 10.1343 2.32457e-17)
(-3.06176 8.82903 -2.88437e-15)
(-4.05328 15.0088 -3.31505e-15)
(-9.84602 8.27283 7.01878e-15)
(-8.36336 15.1548 3.1213e-15)
(-7.66543 14.1374 4.82554e-15)
(-7.11047 13.326 0)
(-6.72525 12.5415 -3.04201e-15)
(-6.21885 11.7125 -4.83758e-15)
(-5.50538 11.0465 1.11769e-16)
(-6.59022 9.7777 -9.39961e-15)
(-3.64387 8.41283 -2.67819e-15)
(-5.15222 14.7667 6.57338e-15)
(-10.3632 7.42112 -3.61503e-15)
(-9.38252 14.6672 1.25284e-14)
(-8.54081 13.5656 -4.47555e-15)
(-7.93785 12.8035 0)
(-7.5486 12.0474 -1.4595e-16)
(-7.01859 11.26 2.02585e-14)
(-6.20932 10.7002 -8.19216e-15)
(-7.33088 9.39208 -6.7088e-15)
(-4.20277 7.9823 5.31883e-15)
(-6.25012 14.4445 -7.26012e-15)
(-10.7883 6.56646 0)
(-10.2668 14.072 2.71611e-16)
(-9.42608 12.9428 -4.64059e-15)
(-8.74945 12.2658 0)
(-8.33686 11.5279 6.62783e-15)
(-7.78831 10.7608 -1.53766e-14)
(-6.87352 10.3083 8.50237e-15)
(-8.07585 8.96313 3.26515e-15)
(-4.75505 7.60963 0)
(-7.28183 13.9783 -1.54206e-16)
(-11.1555 5.7321 3.6398e-15)
(-10.6847 13.4621 3.9703e-16)
(-10.3119 12.2852 8.24317e-17)
(-9.59846 11.7066 0)
(-9.11718 10.9774 -1.28131e-14)
(-8.53866 10.2175 4.82308e-15)
(-7.51196 9.80457 -4.43477e-15)
(-8.69364 8.58007 3.52766e-15)
(-5.31117 7.41679 8.58901e-16)
(-8.1822 13.2972 7.52605e-16)
(-11.5078 4.99469 -3.71342e-15)
(-10.5848 13.458 3.00599e-15)
(-11.0377 11.801 -5.14645e-15)
(-10.3631 11.2346 0)
(-9.78495 10.5085 0)
(-9.12864 9.77935 0)
(-8.11584 9.38039 -2.19305e-15)
(-9.05674 8.07517 8.43282e-15)
(-5.53406 7.2366 0)
(-8.90739 13.1635 0)
(-11.5404 4.42922 0)
(-11.2826 12.6044 -2.92507e-15)
(-11.5214 11.4054 -5.18602e-15)
(-10.93 10.8025 0)
(-10.286 10.0776 3.33127e-15)
(-9.58633 9.36072 -2.55168e-15)
(-8.57232 9.0443 2.18959e-15)
(-9.39105 7.59553 3.34498e-15)
(-5.94558 6.57712 -2.14077e-16)
(-9.51733 13.0678 1.69896e-15)
(-11.7735 3.98132 0)
(-12.5756 11.2343 2.14498e-16)
(-12.1062 10.7134 -2.37498e-17)
(-11.5525 10.109 0)
(-10.8707 9.42335 1.67788e-16)
(-10.1566 8.72064 5.55201e-15)
(-9.10657 8.53248 -4.17704e-15)
(-9.89203 7.1158 -1.00996e-14)
(-6.57136 5.56949 -6.01967e-15)
(-10.4774 12.3345 1.4321e-14)
(-12.1659 3.2432 3.6924e-15)
(-13.7059 10.0753 -1.34141e-14)
(-13.0104 9.71895 5.01398e-15)
(-12.3342 9.21086 0)
(-11.5789 8.61718 -6.64288e-15)
(-10.7971 7.9867 -5.37926e-15)
(-9.66859 7.81096 8.68186e-15)
(-10.4395 6.73761 3.4267e-15)
(-7.03061 5.42019 0)
(-11.1922 11.2461 -7.41072e-15)
(-12.2262 2.41977 9.75206e-17)
(-14.3158 8.77728 -2.68944e-16)
(-13.6974 8.58494 4.94901e-15)
(-12.9979 8.18083 0)
(-12.1994 7.67946 1.3064e-14)
(-11.3853 7.12199 -2.09287e-17)
(-10.227 6.988 -1.48502e-16)
(-10.8765 6.00688 6.92876e-15)
(-7.59774 4.91912 -5.1648e-15)
(-12.1612 10.2707 -7.39059e-15)
(-12.2069 1.59704 0)
(-14.7845 7.60736 -3.08445e-15)
(-14.2439 7.4682 9.90434e-15)
(-13.5513 7.1338 8.14619e-15)
(-12.7277 6.71032 -9.32814e-15)
(-11.8923 6.22488 -1.55244e-14)
(-10.7225 6.14725 -1.63121e-16)
(-11.254 5.26837 -3.43277e-15)
(-8.14726 4.42805 -2.54135e-15)
(-13.0483 9.18723 -6.82613e-15)
(-12.0494 0.797135 -3.32712e-15)
(-15.2069 6.48979 -9.05028e-15)
(-14.7039 6.36056 4.74299e-15)
(-14.0161 6.06887 -3.61419e-15)
(-13.1705 5.7106 -9.3633e-15)
(-12.316 5.29497 7.33876e-15)
(-11.1446 5.27582 -1.51687e-16)
(-11.5603 4.48906 6.6888e-15)
(-8.67951 3.94442 2.76203e-15)
(-13.8804 8.00836 3.35995e-15)
(-11.7702 0.0277199 -4.32867e-17)
(-15.5963 5.38305 2.60331e-15)
(-15.1052 5.24743 -2.32166e-15)
(-14.41 4.98493 -7.75706e-17)
(-13.5356 4.68198 9.16883e-15)
(-12.6561 4.33555 -1.2421e-14)
(-11.4885 4.37537 3.95761e-15)
(-11.7889 3.67373 -3.31351e-15)
(-9.20164 3.42465 7.33524e-15)
(-14.6256 6.80695 0)
(-11.4416 -0.585362 5.43928e-17)
(-15.951 4.26968 2.77384e-15)
(-15.4564 4.12243 2.30029e-15)
(-14.7423 3.87859 3.81965e-15)
(-13.8275 3.62299 -5.97285e-15)
(-12.9107 3.34648 2.40696e-15)
(-11.7504 3.45479 0)
(-11.9201 2.81126 -1.5793e-15)
(-9.66949 2.85415 -4.96985e-15)
(-15.2348 5.70968 -1.35762e-16)
(-11.2148 -1.08681 3.15982e-15)
(-16.2705 3.14933 1.23689e-15)
(-15.7673 2.97902 0)
(-15.0209 2.7404 1.88525e-15)
(-14.0475 2.52373 1.57622e-15)
(-13.0717 2.30947 6.70907e-17)
(-11.9263 2.48734 -9.5305e-16)
(-11.9491 1.88896 1.57248e-15)
(-9.94705 2.1329 0)
(-15.5289 4.7466 3.03854e-15)
(-11.1783 -1.55124 2.93032e-15)
(-16.5726 1.98727 1.33946e-15)
(-16.0607 1.78993 -2.31957e-15)
(-15.2799 1.57248 -1.16539e-16)
(-14.2368 1.40036 6.70088e-16)
(-13.1632 1.26721 -3.97557e-17)
(-11.9805 1.41354 9.41619e-16)
(-11.9237 0.894267 -1.49347e-15)
(-10.1323 1.30048 -8.025e-17)
(-15.3873 4.21528 2.60482e-15)
(-10.432 -2.28144 -2.17639e-15)
(-16.8835 0.735661 1.90564e-29)
(-16.3117 0.558627 0)
(-15.4522 0.434605 0)
(-14.378 0.335886 -7.32361e-16)
(-13.2387 0.312078 0)
(-12.1061 0.294583 0)
(-11.7635 -0.536436 7.39398e-16)
(-10.408 1.2428 0)
(-14.494 3.34355 0)
(-12.9653 -6.08037 -9.57646e-30)
(-14.2341 12.3114 9.23429e-16)
(-14.6938 10.3978 -7.71548e-15)
(-14.9067 8.8614 7.40834e-15)
(-15.1877 7.66117 -1.02273e-14)
(-15.5155 6.55465 6.69529e-15)
(-15.8569 5.46534 -1.31744e-14)
(-16.1875 4.37044 3.11457e-15)
(-16.4964 3.27692 -3.13788e-15)
(-16.7863 2.16827 0)
(-17.0874 0.922206 -3.45079e-16)
(-14.9646 11.6969 1.49211e-14)
(-15.3926 9.98328 0)
(-15.3779 8.62914 7.88249e-15)
(-15.4877 7.52274 -3.25557e-15)
(-15.6984 6.47241 -1.06909e-14)
(-15.9671 5.43069 0)
(-16.2429 4.37686 -3.40846e-15)
(-16.5064 3.32595 -1.40963e-15)
(-16.7513 2.27792 8.82519e-16)
(-17.0047 1.06821 -3.72116e-16)
(-14.6662 10.8698 -1.23765e-14)
(-15.4771 9.32049 0)
(-15.5552 8.18442 7.40253e-15)
(-15.6238 7.23743 5.4951e-16)
(-15.7523 6.29415 8.81542e-15)
(-15.9501 5.32806 -4.1298e-15)
(-16.17 4.32828 0)
(-16.3818 3.31802 3.82289e-15)
(-16.5619 2.31838 -6.15643e-16)
(-16.7355 1.19074 4.46173e-16)
(-13.5444 10.1125 5.64946e-15)
(-14.9142 8.70057 -2.48569e-15)
(-15.3155 7.65825 5.72913e-15)
(-15.5001 6.84957 -6.37924e-15)
(-15.6299 6.04147 6.18632e-16)
(-15.7851 5.18984 4.23092e-15)
(-15.9631 4.28724 -1.28634e-14)
(-16.1295 3.32443 2.0428e-15)
(-16.262 2.35112 2.9815e-15)
(-16.3781 1.32477 6.97746e-17)
(-12.2621 9.41705 -8.5333e-15)
(-13.7747 8.20066 7.24689e-15)
(-14.5839 7.19366 0)
(-15.0114 6.42348 2.35175e-15)
(-15.2526 5.69104 2.54942e-15)
(-15.4215 4.92142 -2.73769e-16)
(-15.5771 4.10599 1.98216e-15)
(-15.7157 3.21656 4.29533e-15)
(-15.8218 2.28679 -1.63686e-17)
(-15.8819 1.3061 3.54183e-16)
(-11.0348 8.73761 -3.44629e-15)
(-12.4175 7.72625 5.92373e-15)
(-13.3821 6.7781 2.13036e-15)
(-14.0561 6.02241 -3.64087e-15)
(-14.4766 5.3247 -2.13003e-15)
(-14.7575 4.61934 -2.5071e-16)
(-14.9529 3.87248 -3.96095e-15)
(-15.0825 3.05044 1.15434e-15)
(-15.1556 2.1711 3.57454e-16)
(-15.1579 1.24035 -3.70877e-16)
(-9.89299 8.06417 0)
(-11.0202 7.24539 -2.02029e-15)
(-11.9567 6.39783 4.57918e-16)
(-12.7382 5.66496 -8.53315e-16)
(-13.295 4.97577 1.45185e-15)
(-13.6718 4.29085 0)
(-13.9333 3.57604 8.80781e-16)
(-14.0878 2.80155 1.26565e-15)
(-14.15 1.97232 -1.11897e-15)
(-14.1179 1.09391 -2.77271e-17)
(-8.80729 7.38576 0)
(-9.68019 6.74904 -5.87461e-16)
(-10.4798 6.02437 3.49311e-15)
(-11.2232 5.33281 -2.54143e-15)
(-11.8177 4.65068 0)
(-12.2489 3.9679 -4.44048e-16)
(-12.5418 3.26098 -1.07621e-15)
(-12.7154 2.5026 8.57736e-16)
(-12.7797 1.6954 8.56085e-16)
(-12.7274 0.857114 -3.22491e-16)
(-7.74741 6.65131 -9.50695e-16)
(-8.40503 6.17112 5.89261e-16)
(-9.05472 5.51731 5.56282e-16)
(-9.67945 4.84174 -5.26521e-16)
(-10.2007 4.15707 0)
(-10.5998 3.46407 4.87857e-16)
(-10.8766 2.75358 7.29379e-16)
(-11.0329 2.01457 -8.50513e-16)
(-11.0807 1.24631 -1.7166e-16)
(-11.0124 0.412662 1.37294e-17)
(-6.3537 6.24841 -2.89833e-16)
(-6.54482 6.01437 1.22367e-16)
(-6.91072 5.46198 1.06189e-16)
(-7.30322 4.83789 0)
(-7.67342 4.21493 -4.44622e-17)
(-7.99731 3.59823 0)
(-8.26031 2.9774 -1.81077e-16)
(-8.45436 2.34882 2.26174e-16)
(-8.58245 1.71665 3.88283e-17)
(-8.66502 1.04477 -1.1503e-17)
)
;

boundaryField
{
    right
    {
        type            cyclic;
    }
    left
    {
        type            cyclic;
    }
    outerWall
    {
        type            calculated;
        value           nonuniform List<vector> 
22
(
(-1.55201 41.8305 0)
(-4.64749 41.6006 0)
(-7.71741 41.1419 0)
(-10.7449 40.4569 0)
(-13.7132 39.5492 0)
(-16.6061 38.424 0)
(-19.4075 37.0874 0)
(-22.1022 35.5467 0)
(-24.6752 33.8104 0)
(-27.1124 31.8882 0)
(-28.9573 30.2506 0)
(-30.2506 28.9573 0)
(-31.8882 27.1124 0)
(-33.8104 24.6752 0)
(-35.5467 22.1022 0)
(-37.0874 19.4075 0)
(-38.424 16.6061 0)
(-39.5492 13.7132 0)
(-40.4569 10.7449 0)
(-41.1419 7.71741 0)
(-41.6006 4.64749 0)
(-41.8305 1.55201 0)
)
;
    }
    stirrerWall
    {
        type            calculated;
        value           nonuniform List<vector> 
42
(
(-0.310178 8.3662 0)
(-0.928834 8.32046 0)
(-1.54239 8.22894 0)
(-2.14746 8.09214 0)
(-2.74072 7.91082 0)
(-3.31888 7.68598 0)
(-3.87877 7.41885 0)
(-4.41729 7.11092 0)
(-4.93148 6.76387 0)
(-5.4185 6.37963 0)
(-6.07951 6.64185 0)
(-6.92878 7.56862 0)
(-7.77806 8.49539 0)
(-8.62734 9.42216 0)
(-9.47661 10.3489 0)
(-10.3259 11.2757 0)
(-11.1752 12.2025 0)
(-12.0244 13.1292 0)
(-12.8737 14.056 0)
(-13.723 14.9828 0)
(-14.4723 15.1215 0)
(-15.1215 14.4723 0)
(-14.9828 13.723 0)
(-14.056 12.8737 0)
(-13.1292 12.0244 0)
(-12.2025 11.1752 0)
(-11.2757 10.3259 0)
(-10.3489 9.47661 0)
(-9.42216 8.62734 0)
(-8.49539 7.77806 0)
(-7.56862 6.92878 0)
(-6.64185 6.07951 0)
(-6.37963 5.4185 0)
(-6.76387 4.93148 0)
(-7.11092 4.41729 0)
(-7.41885 3.87877 0)
(-7.68598 3.31888 0)
(-7.91082 2.74072 0)
(-8.09214 2.14746 0)
(-8.22894 1.54239 0)
(-8.32046 0.928834 0)
(-8.3662 0.310178 0)
)
;
    }
    top
    {
        type            empty;
    }
    bottom
    {
        type            empty;
    }
}


// ************************************************************************* //
