/*--------------------------------*- C++ -*----------------------------------*\
  =========                 |
  \\      /  F ield         | OpenFOAM: The Open Source CFD Toolbox
   \\    /   O peration     | Website:  https://openfoam.org
    \\  /    A nd           | Version:  10
     \\/     M anipulation  |
\*---------------------------------------------------------------------------*/
FoamFile
{
    format      ascii;
    class       volVectorField;
    location    "2100";
    object      Urel;
}
// * * * * * * * * * * * * * * * * * * * * * * * * * * * * * * * * * * * * * //

dimensions      [0 1 -1 0 0 0 0];

internalField   nonuniform List<vector> 
420
(
(0.714034 -0.496958 9.40156e-18)
(-0.142009 0.527946 -6.48777e-17)
(0.379036 1.05198 -2.5914e-16)
(0.613247 1.21966 6.98162e-17)
(0.744498 1.0583 -4.47433e-16)
(0.802276 0.603877 0)
(0.785391 -0.0677161 0)
(0.600462 -0.894107 3.65622e-16)
(0.447414 -1.82514 -4.00949e-16)
(0.326023 -2.99116 0)
(0.758387 -0.636752 3.06568e-17)
(-0.0951948 0.31706 -1.56507e-16)
(0.290005 0.864559 8.01245e-16)
(0.522256 1.06797 -1.03959e-15)
(0.662563 0.967443 3.40752e-16)
(0.717617 0.603731 1.99511e-17)
(0.703393 0.0361563 2.6084e-15)
(0.526111 -0.709812 -5.82435e-16)
(0.42404 -1.58126 8.73079e-16)
(0.388099 -2.75321 0)
(0.775395 -0.566474 1.22385e-16)
(-0.135113 0.185319 -7.46239e-16)
(0.144993 0.680495 7.55556e-16)
(0.34701 0.897866 1.18809e-15)
(0.479952 0.86573 -7.78513e-16)
(0.524781 0.59474 3.54262e-15)
(0.517869 0.146071 1.51821e-15)
(0.358071 -0.5 3.47083e-15)
(0.300495 -1.31632 -1.43929e-15)
(0.360224 -2.52384 -3.40594e-15)
(0.789825 -0.50465 -5.22941e-17)
(-0.185472 0.098182 6.64539e-16)
(0.014546 0.51831 -1.0097e-15)
(0.170967 0.733933 8.01418e-16)
(0.276319 0.760012 -1.54444e-15)
(0.288436 0.589374 1.48479e-15)
(0.245694 0.261597 -9.27666e-15)
(0.0933155 -0.269978 0)
(0.095026 -1.0467 -3.62408e-15)
(0.290652 -2.3501 3.46194e-15)
(0.79973 -0.42535 0)
(-0.242704 0.0445375 4.41654e-16)
(-0.0952928 0.386066 -4.16938e-16)
(0.0101684 0.58963 0)
(0.0740873 0.671907 -2.16354e-16)
(0.0406519 0.61605 -2.9879e-16)
(-0.05409 0.426538 3.2787e-15)
(-0.16073 0.0123576 -3.96161e-15)
(-0.0337695 -0.799964 0)
(0.31696 -2.22728 -1.43151e-14)
(0.798845 -0.318727 1.93063e-17)
(-0.302203 0.00593233 0)
(-0.182149 0.27835 0)
(-0.109966 0.471638 1.51267e-15)
(-0.0770202 0.609703 -2.23463e-15)
(-0.129162 0.679428 2.54987e-15)
(-0.21515 0.649228 6.79077e-16)
(-0.184477 0.351782 9.43407e-15)
(0.0626049 -0.523394 -1.17036e-14)
(0.510856 -2.06774 6.97552e-15)
(0.777419 -0.187844 0)
(-0.359466 -0.03081 -4.32649e-16)
(-0.235247 0.179496 -2.42458e-15)
(-0.162762 0.361889 -9.11737e-16)
(-0.121236 0.545764 -4.18971e-15)
(-0.136442 0.72239 2.6141e-15)
(-0.145687 0.837491 -6.62088e-15)
(0.0111931 0.65766 7.25497e-16)
(0.351581 -0.211727 -3.86495e-15)
(0.809883 -1.74195 -1.12082e-14)
(0.717067 -0.0410647 -3.83173e-17)
(-0.398873 -0.074947 4.30302e-16)
(-0.23924 0.08316 3.1024e-15)
(-0.142203 0.246161 5.17984e-16)
(-0.0673268 0.442118 2.42554e-15)
(-0.0108159 0.675565 0)
(0.0843382 0.899807 6.29658e-15)
(0.323901 0.898558 7.7338e-15)
(0.694062 0.216391 1.1319e-14)
(1.02303 -1.18965 9.12147e-15)
(0.593142 0.097963 -3.71542e-17)
(-0.378743 -0.111127 4.3572e-16)
(-0.168778 0.000361768 -4.63403e-16)
(-0.0547403 0.110932 -1.98529e-15)
(0.0320871 0.240097 6.55559e-15)
(0.126157 0.413853 8.63447e-15)
(0.266222 0.636118 -2.87948e-15)
(0.500969 0.791271 0)
(0.772961 0.522094 0)
(1.05003 -0.570338 -9.36532e-15)
(0.313564 0.156741 3.31361e-17)
(-0.304492 -0.112221 7.91744e-16)
(-0.122364 -0.0462608 0)
(-0.049011 0.0407407 0)
(0.0324357 0.140199 -3.53126e-15)
(0.166332 0.254246 -1.4204e-17)
(0.375136 0.359505 5.90765e-15)
(0.651139 0.401481 -1.23063e-14)
(0.876394 0.293184 1.42352e-14)
(0.908939 -0.290198 1.1866e-15)
(0.2038 -4.51571 0)
(0.154677 -6.51817 0)
(0.202572 -8.93179 0)
(0.309602 -11.6562 -7.42676e-16)
(0.476862 -14.5897 0)
(0.658953 -17.7134 0)
(-0.280578 -20.5834 7.17979e-16)
(1.79413 -24.3505 0)
(3.08488 -22.2482 0)
(-4.4248 -28.6403 0)
(0.393998 -4.35387 1.41503e-15)
(0.532332 -6.4449 2.44837e-15)
(0.802498 -8.89502 1.2994e-16)
(1.12315 -11.5991 8.2291e-16)
(1.5031 -14.5097 3.98301e-17)
(1.94243 -17.5878 9.28658e-16)
(1.17436 -20.595 2.69382e-17)
(3.51574 -24.2605 1.61938e-16)
(4.67342 -21.9658 -2.77395e-15)
(-2.44072 -28.7989 -7.26893e-16)
(0.518542 -4.23665 1.3097e-15)
(0.888496 -6.40454 0)
(1.40667 -8.85757 -1.94192e-15)
(1.9472 -11.5018 -1.60818e-15)
(2.54916 -14.3528 4.70444e-15)
(3.23214 -17.3552 -9.3124e-16)
(2.61914 -20.4963 1.45329e-15)
(5.28958 -24.1385 0)
(6.19877 -21.4326 3.18267e-15)
(-0.202951 -28.9989 -3.38471e-17)
(0.648521 -4.18749 2.97357e-15)
(1.27888 -6.40043 7.25642e-15)
(2.03788 -8.80937 -7.47369e-15)
(2.77529 -11.3606 2.90098e-15)
(3.59218 -14.1243 1.93377e-17)
(4.52879 -17.0193 0)
(4.06726 -20.2363 -1.4467e-15)
(7.07651 -23.8539 -2.5522e-15)
(7.77664 -20.8185 -3.18095e-15)
(1.87288 -29.0407 3.27041e-15)
(0.877238 -4.17867 2.58976e-15)
(1.75721 -6.40031 -2.31253e-15)
(2.71791 -8.72195 7.58341e-15)
(3.61706 -11.1618 -2.97237e-15)
(4.6301 -13.8208 2.44752e-15)
(5.81219 -16.5847 -3.78549e-15)
(5.49848 -19.8443 3.08345e-15)
(8.87053 -23.4325 2.68236e-15)
(9.2836 -20.0642 0)
(3.97378 -28.9615 -6.54876e-15)
(1.23433 -4.13531 3.10352e-15)
(2.33173 -6.33536 -1.37585e-14)
(3.44547 -8.55426 -3.96447e-15)
(4.47612 -10.8865 9.15659e-15)
(5.66598 -13.4349 7.61647e-15)
(7.0839 -16.0474 8.33002e-17)
(6.90692 -19.3139 2.32457e-17)
(10.6421 -22.8811 -2.88437e-15)
(10.7332 -19.2058 -3.31505e-15)
(6.13904 -28.7145 7.01878e-15)
(1.63616 -3.95807 3.1213e-15)
(2.95439 -6.1606 4.82554e-15)
(4.19614 -8.28408 0)
(5.34177 -10.5214 -3.04201e-15)
(6.69008 -12.9589 -4.83758e-15)
(8.3357 -15.4058 1.11769e-16)
(8.28293 -18.6465 -9.39961e-15)
(12.372 -22.1945 -2.67819e-15)
(12.1288 -18.2579 6.57338e-15)
(8.31855 -28.2796 -3.61503e-15)
(2.00572 -3.65255 1.25284e-14)
(3.55383 -5.88998 -4.47555e-15)
(4.93892 -7.90964 0)
(6.19412 -10.0581 -1.4595e-16)
(7.68292 -12.3872 2.02585e-14)
(9.55373 -14.6539 -8.19216e-15)
(9.6075 -17.8518 -6.7088e-15)
(14.0369 -21.3539 5.31883e-15)
(13.4304 -17.2083 -7.26012e-15)
(10.4874 -27.6513 0)
(2.44766 -3.35408 2.71611e-16)
(4.07696 -5.56359 -4.64059e-15)
(5.62673 -7.43662 0)
(7.00605 -9.49877 6.62783e-15)
(8.62496 -11.7321 -1.53766e-14)
(10.7248 -13.808 8.50237e-15)
(10.8346 -16.9505 3.26515e-15)
(15.6081 -20.2941 0)
(14.6898 -16.1287 -1.54206e-16)
(12.597 -26.8144 3.6398e-15)
(3.28607 -2.97449 3.9703e-16)
(4.5254 -5.17021 8.24317e-17)
(6.19815 -6.87681 0)
(7.74159 -8.85485 -1.28131e-14)
(9.49614 -10.9975 4.82308e-15)
(11.8249 -12.9414 -4.43477e-15)
(12.0849 -15.8609 3.52766e-15)
(17.0635 -18.901 8.58901e-16)
(15.9597 -15.0985 7.52605e-16)
(14.5908 -25.7016 -3.71342e-15)
(4.33087 -2.12647 3.00599e-15)
(4.80379 -4.75042 -5.14645e-15)
(6.50341 -6.38746 0)
(8.21652 -8.29894 0)
(10.1294 -10.3405 0)
(12.5335 -12.1926 -2.19305e-15)
(13.1329 -15.1067 8.43282e-15)
(18.3611 -17.7265 0)
(16.8761 -13.7719 0)
(16.3337 -24.6898 0)
(4.30183 -2.3113 -2.92507e-15)
(5.03003 -4.43615 -5.18602e-15)
(6.69199 -6.06405 0)
(8.52137 -7.92383 3.33127e-15)
(10.5335 -9.89732 -2.55168e-15)
(13.0007 -11.605 2.18959e-15)
(13.7908 -14.5941 3.34498e-15)
(19.0176 -17.318 -2.14077e-16)
(17.4181 -12.7157 1.69896e-15)
(17.3455 -23.8928 0)
(3.86108 -2.73646 2.14498e-16)
(5.34918 -4.12384 -2.37498e-17)
(7.03091 -5.68765 0)
(8.96159 -7.43542 1.67788e-16)
(11.0584 -9.31416 5.55201e-15)
(13.6394 -10.8044 -4.17704e-15)
(14.549 -13.6627 -1.00996e-14)
(19.7464 -16.8052 -6.01967e-15)
(17.9182 -11.8074 1.4321e-14)
(18.5304 -22.8554 3.6924e-15)
(3.72014 -2.63915 -1.34141e-14)
(5.49593 -3.78409 5.01398e-15)
(7.36817 -5.16531 0)
(9.44775 -6.72573 -6.64288e-15)
(11.6958 -8.42656 -5.37926e-15)
(14.4477 -9.78739 8.68186e-15)
(15.4742 -12.1728 3.4267e-15)
(20.8731 -14.943 0)
(18.9148 -10.7255 -7.41072e-15)
(20.3203 -21.3327 9.75206e-17)
(4.00397 -2.61096 -2.68944e-16)
(5.7582 -3.5097 4.94901e-15)
(7.71525 -4.69594 0)
(9.90618 -6.06326 1.3064e-14)
(12.2619 -7.57951 -2.09287e-17)
(15.127 -8.77505 -1.48502e-16)
(16.3674 -10.9315 6.92876e-15)
(21.7385 -13.3206 -5.1648e-15)
(19.4916 -9.40978 -7.39059e-15)
(22.0108 -19.6786 0)
(4.32838 -2.39217 -3.08445e-15)
(6.05401 -3.15162 9.90434e-15)
(8.05878 -4.17281 8.14619e-15)
(10.3352 -5.35669 -9.32814e-15)
(12.7792 -6.68405 -1.55244e-14)
(15.7298 -7.69384 -1.63121e-16)
(17.1702 -9.60478 -3.43277e-15)
(22.4601 -11.5878 -2.54135e-15)
(19.9762 -8.09378 -6.82613e-15)
(23.6513 -17.8846 -3.32712e-15)
(4.59404 -2.06611 -9.05028e-15)
(6.32488 -2.72611 4.74299e-15)
(8.37218 -3.60547 -3.61419e-15)
(10.723 -4.61439 -9.3633e-15)
(13.244 -5.75042 7.33876e-15)
(16.2606 -6.56719 -1.51687e-16)
(17.888 -8.23707 6.6888e-15)
(23.0307 -9.75947 2.76203e-15)
(20.3342 -6.7781 3.35995e-15)
(25.2172 -15.9573 -4.32867e-17)
(4.78385 -1.68224 2.60331e-15)
(6.53891 -2.25617 -2.32166e-15)
(8.63341 -3.00398 -7.75706e-17)
(11.0571 -3.84424 9.16883e-15)
(13.6521 -4.78559 -1.2421e-14)
(16.7189 -5.40445 3.95761e-15)
(18.5215 -6.83538 -3.31351e-15)
(23.4369 -7.89191 7.33524e-15)
(20.5908 -5.4036 0)
(26.6289 -13.7857 5.43928e-17)
(4.89649 -1.2662 2.77384e-15)
(6.68405 -1.75689 2.30029e-15)
(8.82963 -2.381 3.81965e-15)
(11.3293 -3.05761 -5.97285e-15)
(14.0009 -3.80027 2.40696e-15)
(17.1042 -4.20807 0)
(19.0857 -5.42303 -1.5793e-15)
(23.718 -6.01282 -4.96985e-15)
(20.7897 -3.85779 -1.35762e-16)
(27.7293 -11.4298 3.15982e-15)
(4.92986 -0.826735 1.23689e-15)
(6.74788 -1.24373 0)
(8.95 -1.75547 1.88525e-15)
(11.5352 -2.27454 1.57622e-15)
(14.2955 -2.8236 6.70907e-17)
(17.4168 -3.01643 -9.5305e-16)
(19.5816 -4.02523 1.57248e-15)
(24.0057 -4.23571 0)
(21.1056 -2.12514 3.03854e-15)
(28.4253 -8.98004 2.93032e-15)
(4.86407 -0.407148 1.33946e-15)
(6.70543 -0.753043 -2.31957e-15)
(8.95818 -1.13496 -1.16539e-16)
(11.6311 -1.48919 6.70088e-16)
(14.5091 -1.82397 -3.97557e-17)
(17.6897 -1.90087 9.41619e-16)
(19.9585 -2.66731 -1.49347e-15)
(24.199 -2.53475 -8.025e-17)
(21.6556 0.077063 2.60482e-15)
(29.6132 -6.75512 -2.17639e-15)
(4.67181 -0.0639472 1.90564e-29)
(6.58032 -0.290589 0)
(8.91993 -0.469537 0)
(11.6329 -0.629069 -7.32361e-16)
(14.5866 -0.720208 0)
(17.7281 -0.812252 0)
(20.2949 -1.72581 7.39398e-16)
(24.1131 -0.0379606 0)
(22.7536 1.96161 0)
(27.3011 -7.57434 -9.57646e-30)
(1.24111 -0.841784 9.23429e-16)
(1.71289 -1.57251 -7.71548e-15)
(2.34138 -1.86035 7.40834e-15)
(2.80702 -1.75313 -1.02273e-14)
(3.12697 -1.50051 6.69529e-15)
(3.33091 -1.18644 -1.31744e-14)
(3.44034 -0.841439 3.11457e-15)
(3.46359 -0.466435 -3.13788e-15)
(3.39621 -0.0859998 0)
(3.20671 0.169405 -3.45079e-16)
(-0.445917 -0.642877 1.49211e-14)
(-3.27954e-05 -1.24678 0)
(0.804086 -1.42958 7.88249e-15)
(1.39474 -1.30939 -3.25557e-15)
(1.79179 -1.08463 -1.06909e-14)
(2.03478 -0.80976 0)
(2.1717 -0.512738 -3.40846e-15)
(2.21985 -0.185929 -1.40963e-15)
(2.18363 0.163041 8.82519e-16)
(2.03497 0.361963 -3.72116e-16)
(-1.10407 -0.656519 -1.23765e-14)
(-1.09858 -1.16933 0)
(-0.439271 -1.21129 7.40253e-15)
(0.146478 -1.01256 5.4951e-16)
(0.585638 -0.7648 8.81542e-15)
(0.865845 -0.501089 -4.1298e-15)
(1.03148 -0.239049 0)
(1.11074 0.037605 3.82289e-15)
(1.12553 0.342896 -6.15643e-16)
(1.04977 0.531036 4.46173e-16)
(-0.938754 -0.60041 5.64946e-15)
(-1.54974 -1.04906 -2.48569e-15)
(-1.26561 -1.07449 5.72913e-15)
(-0.841973 -0.818305 -6.37924e-15)
(-0.444164 -0.51942 6.18632e-16)
(-0.155135 -0.228024 4.23092e-15)
(0.025237 0.0421689 -1.28634e-14)
(0.129376 0.275462 2.0428e-15)
(0.178063 0.515018 2.9815e-15)
(0.152865 0.711619 6.97746e-17)
(-0.612847 -0.482593 -8.5333e-15)
(-1.42419 -0.808822 7.24689e-15)
(-1.59997 -0.87615 0)
(-1.46536 -0.662328 2.35175e-15)
(-1.2189 -0.371824 2.54942e-15)
(-0.977257 -0.0851862 -2.73769e-16)
(-0.801708 0.183143 1.98216e-15)
(-0.690363 0.399028 4.29533e-15)
(-0.629056 0.590061 -1.63686e-17)
(-0.605198 0.739488 3.54183e-16)
(-0.34197 -0.348787 -3.44629e-15)
(-1.08084 -0.543148 5.92373e-15)
(-1.46396 -0.628855 2.13036e-15)
(-1.62206 -0.481386 -3.64087e-15)
(-1.59487 -0.240186 -2.13003e-15)
(-1.49893 0.023949 -2.5071e-16)
(-1.3904 0.271829 -3.96095e-15)
(-1.29058 0.46432 1.15434e-15)
(-1.21004 0.613732 3.57454e-16)
(-1.13537 0.72028 -3.70877e-16)
(-0.156319 -0.209095 0)
(-0.69733 -0.284027 -2.02029e-15)
(-1.10427 -0.346339 4.57918e-16)
(-1.41593 -0.256883 -8.53315e-16)
(-1.56514 -0.0911927 1.45185e-15)
(-1.5988 0.106625 0)
(-1.58348 0.297549 8.80781e-16)
(-1.52909 0.446818 1.26565e-15)
(-1.45146 0.554288 -1.11897e-15)
(-1.34925 0.62037 -2.77271e-17)
(-0.0266779 -0.0744864 0)
(-0.370872 -0.0405025 -5.87461e-16)
(-0.692946 -0.0571278 3.49311e-15)
(-1.01262 -0.0071882 -2.54143e-15)
(-1.23949 0.0815527 0)
(-1.36123 0.194769 -4.44048e-16)
(-1.4046 0.304596 -1.07621e-15)
(-1.38976 0.379219 8.57736e-16)
(-1.32798 0.416689 8.56085e-16)
(-1.21257 0.430098 -3.22491e-16)
(0.0773619 0.00389564 -9.50695e-16)
(-0.109066 0.121282 5.89261e-16)
(-0.333172 0.0983393 5.56282e-16)
(-0.580267 0.0834676 -5.26521e-16)
(-0.773887 0.0856662 0)
(-0.897282 0.101947 4.87857e-16)
(-0.951674 0.119234 7.29379e-16)
(-0.940112 0.122485 -8.50513e-16)
(-0.875564 0.106888 -1.7166e-16)
(-0.751064 0.0321618 1.37294e-17)
(0.515522 0.413574 -2.89833e-16)
(0.738106 0.704002 1.22367e-16)
(0.745856 0.705337 1.06189e-16)
(0.684905 0.661157 0)
(0.60231 0.641104 -4.44622e-17)
(0.520523 0.646985 0)
(0.452759 0.664991 -1.81077e-16)
(0.40603 0.687963 2.26174e-16)
(0.376511 0.71647 3.88283e-17)
(0.343229 0.710768 -1.1503e-17)
)
;

boundaryField
{
    right
    {
        type            cyclic;
    }
    left
    {
        type            cyclic;
    }
    outerWall
    {
        type            noSlip;
    }
    stirrerWall
    {
        type            noSlip;
    }
    top
    {
        type            empty;
    }
    bottom
    {
        type            empty;
    }
}


// ************************************************************************* //
