/*--------------------------------*- C++ -*----------------------------------*\
  =========                 |
  \\      /  F ield         | OpenFOAM: The Open Source CFD Toolbox
   \\    /   O peration     | Website:  https://openfoam.org
    \\  /    A nd           | Version:  10
     \\/     M anipulation  |
\*---------------------------------------------------------------------------*/
FoamFile
{
    format      ascii;
    class       surfaceScalarField;
    location    "8000";
    object      phi;
}
// * * * * * * * * * * * * * * * * * * * * * * * * * * * * * * * * * * * * * //

dimensions      [0 3 -1 0 0 0 0];

internalField   nonuniform List<scalar> 
35539
(
3.09536e-08
1.25117e-05
-1.25134e-05
3.27438e-08
1.25301e-05
-1.25319e-05
3.4609e-08
1.25461e-05
-1.2548e-05
3.65529e-08
1.25598e-05
-1.25617e-05
3.85768e-08
1.25708e-05
-1.25729e-05
4.06803e-08
1.25793e-05
-1.25814e-05
4.28667e-08
1.2585e-05
-1.25871e-05
4.51363e-08
1.25878e-05
-1.25901e-05
4.74877e-08
1.25877e-05
-1.259e-05
4.99212e-08
1.25845e-05
-1.25869e-05
5.24365e-08
1.25782e-05
-1.25807e-05
5.50302e-08
1.25685e-05
-1.25711e-05
5.76986e-08
1.25555e-05
-1.25581e-05
6.04334e-08
1.25389e-05
-1.25416e-05
6.32282e-08
1.25187e-05
-1.25215e-05
6.60809e-08
1.24947e-05
-1.24975e-05
6.89908e-08
1.24667e-05
-1.24696e-05
7.19454e-08
1.24345e-05
-1.24375e-05
7.49413e-08
1.23981e-05
-1.24011e-05
7.79774e-08
1.23573e-05
-1.23603e-05
8.10484e-08
1.23119e-05
-1.23149e-05
8.41485e-08
1.22616e-05
-1.22647e-05
8.72682e-08
1.22064e-05
-1.22096e-05
9.03983e-08
1.21461e-05
-1.21493e-05
9.35266e-08
1.20805e-05
-1.20836e-05
9.66422e-08
1.20093e-05
-1.20124e-05
9.97343e-08
1.19323e-05
-1.19354e-05
1.02799e-07
1.18489e-05
-1.1852e-05
1.05784e-07
1.15575e-05
-1.15605e-05
1.08643e-07
1.10777e-05
-1.10806e-05
1.11385e-07
1.06197e-05
-1.06224e-05
1.14017e-07
1.01823e-05
-1.01849e-05
1.16544e-07
9.76452e-06
-9.76705e-06
1.18969e-07
9.36538e-06
-9.36781e-06
1.21295e-07
8.98395e-06
-8.98628e-06
1.23523e-07
8.61937e-06
-8.6216e-06
1.25655e-07
8.27082e-06
-8.27296e-06
1.27691e-07
7.93753e-06
-7.93956e-06
1.29633e-07
7.61874e-06
-7.62068e-06
1.3148e-07
7.31374e-06
-7.31558e-06
1.33233e-07
7.02183e-06
-7.02358e-06
1.34889e-07
6.74234e-06
-6.744e-06
1.36446e-07
6.47466e-06
-6.47622e-06
1.37901e-07
6.21818e-06
-6.21963e-06
1.39252e-07
5.97235e-06
-5.9737e-06
1.40496e-07
5.73666e-06
-5.7379e-06
1.41631e-07
5.51063e-06
-5.51177e-06
1.42657e-07
5.29382e-06
-5.29485e-06
1.43573e-07
5.08581e-06
-5.08673e-06
1.4438e-07
4.88622e-06
-4.88702e-06
1.45077e-07
4.69466e-06
-4.69536e-06
1.45668e-07
4.5108e-06
-4.51139e-06
1.46152e-07
4.33432e-06
-4.3348e-06
1.46532e-07
4.16489e-06
-4.16527e-06
1.4681e-07
4.00223e-06
-4.00251e-06
1.46989e-07
3.84606e-06
-3.84624e-06
1.47071e-07
3.69612e-06
-3.6962e-06
1.4706e-07
3.55215e-06
-3.55214e-06
1.46957e-07
3.41392e-06
-3.41382e-06
1.46767e-07
3.2812e-06
-3.28101e-06
1.46493e-07
3.15376e-06
-3.15349e-06
1.46136e-07
3.03141e-06
-3.03105e-06
1.45702e-07
2.91394e-06
-2.9135e-06
1.45192e-07
2.80116e-06
-2.80065e-06
1.4461e-07
2.69288e-06
-2.6923e-06
1.43959e-07
2.58893e-06
-2.58828e-06
1.43242e-07
2.48914e-06
-2.48842e-06
1.42461e-07
2.39334e-06
-2.39256e-06
1.4162e-07
2.30138e-06
-2.30054e-06
1.40721e-07
2.21311e-06
-2.21221e-06
1.39767e-07
2.12837e-06
-2.12741e-06
1.38761e-07
2.04703e-06
-2.04602e-06
1.37704e-07
1.96895e-06
-1.96789e-06
1.36599e-07
1.894e-06
-1.89289e-06
1.35449e-07
1.82206e-06
-1.82091e-06
1.34255e-07
1.753e-06
-1.75181e-06
1.33019e-07
1.68672e-06
-1.68548e-06
1.31743e-07
1.62309e-06
-1.62182e-06
1.3043e-07
1.56202e-06
-1.5607e-06
1.29081e-07
1.50339e-06
-1.50205e-06
1.27698e-07
1.44712e-06
-1.44574e-06
1.26283e-07
1.39311e-06
-1.3917e-06
1.24837e-07
1.34127e-06
-1.33982e-06
1.2336e-07
1.2915e-06
-1.29003e-06
1.21853e-07
1.24374e-06
-1.24223e-06
1.20317e-07
1.19789e-06
-1.19635e-06
1.18751e-07
1.15387e-06
-1.15231e-06
1.17156e-07
1.11161e-06
-1.11001e-06
1.15533e-07
1.07099e-06
-1.06937e-06
1.13886e-07
1.03195e-06
-1.0303e-06
1.12215e-07
9.94378e-07
-9.92708e-07
1.10525e-07
9.58228e-07
-9.56538e-07
9.23483e-07
-9.21775e-07
3.21206e-08
1.251e-05
3.39492e-08
1.25283e-05
3.58551e-08
1.25442e-05
3.78399e-08
1.25578e-05
3.99061e-08
1.25688e-05
4.20546e-08
1.25771e-05
4.42867e-08
1.25827e-05
4.66014e-08
1.25855e-05
4.90015e-08
1.25853e-05
5.14848e-08
1.2582e-05
5.40502e-08
1.25756e-05
5.66935e-08
1.25659e-05
5.941e-08
1.25528e-05
6.21913e-08
1.25361e-05
6.5029e-08
1.25159e-05
6.79188e-08
1.24918e-05
7.08591e-08
1.24637e-05
7.38458e-08
1.24316e-05
7.68773e-08
1.23951e-05
7.99495e-08
1.23542e-05
8.30568e-08
1.23087e-05
8.6191e-08
1.22585e-05
8.93456e-08
1.22033e-05
9.25084e-08
1.2143e-05
9.56669e-08
1.20773e-05
9.88103e-08
1.20062e-05
1.01929e-07
1.19292e-05
1.05019e-07
1.18458e-05
1.08026e-07
1.15545e-05
1.10906e-07
1.10748e-05
1.13668e-07
1.06169e-05
1.16318e-07
1.01796e-05
1.18862e-07
9.76198e-06
1.21303e-07
9.36294e-06
1.23643e-07
8.98161e-06
1.25884e-07
8.61713e-06
1.28026e-07
8.26868e-06
1.30073e-07
7.93548e-06
1.32024e-07
7.61679e-06
1.33879e-07
7.31188e-06
1.35638e-07
7.02007e-06
1.373e-07
6.74068e-06
1.3886e-07
6.4731e-06
1.40319e-07
6.21672e-06
1.41671e-07
5.971e-06
1.42915e-07
5.73541e-06
1.4405e-07
5.5095e-06
1.45074e-07
5.2928e-06
1.45987e-07
5.0849e-06
1.46789e-07
4.88541e-06
1.47481e-07
4.69397e-06
1.48063e-07
4.51022e-06
1.48538e-07
4.33384e-06
1.48908e-07
4.16452e-06
1.49174e-07
4.00196e-06
1.49339e-07
3.8459e-06
1.49406e-07
3.69605e-06
1.49378e-07
3.55218e-06
1.49257e-07
3.41404e-06
1.49048e-07
3.28141e-06
1.48752e-07
3.15406e-06
1.48373e-07
3.03179e-06
1.47915e-07
2.9144e-06
1.47381e-07
2.80169e-06
1.46773e-07
2.69349e-06
1.46095e-07
2.58961e-06
1.4535e-07
2.48989e-06
1.4454e-07
2.39415e-06
1.4367e-07
2.30225e-06
1.42741e-07
2.21403e-06
1.41756e-07
2.12935e-06
1.40717e-07
2.04806e-06
1.39628e-07
1.97003e-06
1.3849e-07
1.89514e-06
1.37306e-07
1.82324e-06
1.36078e-07
1.75423e-06
1.34809e-07
1.68799e-06
1.33499e-07
1.6244e-06
1.32151e-07
1.56336e-06
1.30767e-07
1.50478e-06
1.2935e-07
1.44854e-06
1.279e-07
1.39456e-06
1.26419e-07
1.34275e-06
1.24907e-07
1.29302e-06
1.23367e-07
1.24528e-06
1.21797e-07
1.19946e-06
1.20198e-07
1.15547e-06
1.18571e-07
1.11323e-06
1.16917e-07
1.07265e-06
1.15239e-07
1.03362e-06
1.1354e-07
9.96077e-07
1.11821e-07
9.59946e-07
9.25216e-07
3.33166e-08
1.25082e-05
3.51832e-08
1.25264e-05
3.71291e-08
1.25423e-05
3.9155e-08
1.25558e-05
4.12621e-08
1.25667e-05
4.34546e-08
1.25749e-05
4.57305e-08
1.25805e-05
4.80912e-08
1.25831e-05
5.05376e-08
1.25828e-05
5.30663e-08
1.25795e-05
5.56792e-08
1.2573e-05
5.837e-08
1.25632e-05
6.11313e-08
1.255e-05
6.39549e-08
1.25333e-05
6.6831e-08
1.2513e-05
6.97539e-08
1.24889e-05
7.27238e-08
1.24608e-05
7.57403e-08
1.24285e-05
7.88037e-08
1.2392e-05
8.19085e-08
1.23511e-05
8.50469e-08
1.23056e-05
8.8213e-08
1.22553e-05
9.13967e-08
1.22001e-05
9.45876e-08
1.21398e-05
9.77732e-08
1.20742e-05
1.00942e-07
1.2003e-05
1.04083e-07
1.1926e-05
1.07194e-07
1.18427e-05
1.10221e-07
1.15515e-05
1.13119e-07
1.10719e-05
1.15897e-07
1.06141e-05
1.18562e-07
1.0177e-05
1.21119e-07
9.75942e-06
1.23573e-07
9.36049e-06
1.25925e-07
8.97926e-06
1.28176e-07
8.61488e-06
1.30329e-07
8.26653e-06
1.32384e-07
7.93343e-06
1.34342e-07
7.61483e-06
1.36203e-07
7.31002e-06
1.37967e-07
7.0183e-06
1.39633e-07
6.73902e-06
1.41196e-07
6.47153e-06
1.42656e-07
6.21526e-06
1.44009e-07
5.96964e-06
1.45252e-07
5.73417e-06
1.46385e-07
5.50836e-06
1.47406e-07
5.29178e-06
1.48314e-07
5.08399e-06
1.49109e-07
4.88462e-06
1.49794e-07
4.69328e-06
1.50368e-07
4.50965e-06
1.50832e-07
4.33338e-06
1.5119e-07
4.16416e-06
1.51443e-07
4.00171e-06
1.51593e-07
3.84574e-06
1.51644e-07
3.696e-06
1.51597e-07
3.55222e-06
1.51458e-07
3.41418e-06
1.51227e-07
3.28164e-06
1.5091e-07
3.15438e-06
1.50508e-07
3.03219e-06
1.50025e-07
2.91488e-06
1.49465e-07
2.80225e-06
1.4883e-07
2.69412e-06
1.48124e-07
2.59032e-06
1.4735e-07
2.49066e-06
1.4651e-07
2.39499e-06
1.45609e-07
2.30315e-06
1.44648e-07
2.215e-06
1.43631e-07
2.13037e-06
1.42559e-07
2.04913e-06
1.41437e-07
1.97116e-06
1.40265e-07
1.89631e-06
1.39046e-07
1.82446e-06
1.37783e-07
1.75549e-06
1.36478e-07
1.68929e-06
1.35133e-07
1.62574e-06
1.33749e-07
1.56475e-06
1.3233e-07
1.5062e-06
1.30877e-07
1.44999e-06
1.29391e-07
1.39605e-06
1.27875e-07
1.34426e-06
1.26329e-07
1.29456e-06
1.24754e-07
1.24685e-06
1.2315e-07
1.20106e-06
1.21518e-07
1.1571e-06
1.19859e-07
1.11489e-06
1.18175e-07
1.07433e-06
1.16467e-07
1.03533e-06
1.1474e-07
9.97805e-07
1.12996e-07
9.6169e-07
9.26974e-07
3.45426e-08
1.25063e-05
3.64461e-08
1.25245e-05
3.84295e-08
1.25403e-05
4.04946e-08
1.25537e-05
4.26431e-08
1.25645e-05
4.48753e-08
1.25727e-05
4.71929e-08
1.25781e-05
4.95979e-08
1.25807e-05
5.20878e-08
1.25804e-05
5.46632e-08
1.25769e-05
5.73198e-08
1.25703e-05
6.00528e-08
1.25605e-05
6.28567e-08
1.25472e-05
6.57158e-08
1.25304e-05
6.8622e-08
1.25101e-05
7.15756e-08
1.24859e-05
7.45734e-08
1.24578e-05
7.76187e-08
1.24255e-05
8.071e-08
1.2389e-05
8.38419e-08
1.2348e-05
8.70079e-08
1.23024e-05
9.02006e-08
1.22521e-05
9.34103e-08
1.21969e-05
9.66253e-08
1.21366e-05
9.98335e-08
1.20709e-05
1.03022e-07
1.19998e-05
1.06183e-07
1.19229e-05
1.0931e-07
1.18396e-05
1.12352e-07
1.15484e-05
1.15263e-07
1.1069e-05
1.18054e-07
1.06113e-05
1.2073e-07
1.01743e-05
1.23299e-07
9.75685e-06
1.25762e-07
9.35802e-06
1.28123e-07
8.9769e-06
1.30382e-07
8.61262e-06
1.32542e-07
8.26437e-06
1.34603e-07
7.93136e-06
1.36566e-07
7.61287e-06
1.38431e-07
7.30815e-06
1.40198e-07
7.01654e-06
1.41865e-07
6.73735e-06
1.4343e-07
6.46997e-06
1.44889e-07
6.2138e-06
1.46241e-07
5.96829e-06
1.47482e-07
5.73293e-06
1.48612e-07
5.50723e-06
1.49628e-07
5.29076e-06
1.5053e-07
5.08309e-06
1.51319e-07
4.88383e-06
1.51994e-07
4.69261e-06
1.52558e-07
4.50908e-06
1.53012e-07
4.33292e-06
1.53356e-07
4.16382e-06
1.53595e-07
4.00147e-06
1.5373e-07
3.84561e-06
1.53763e-07
3.69597e-06
1.53699e-07
3.55229e-06
1.5354e-07
3.41434e-06
1.53288e-07
3.28189e-06
1.52948e-07
3.15471e-06
1.52523e-07
3.03262e-06
1.52015e-07
2.91539e-06
1.51429e-07
2.80284e-06
1.50767e-07
2.69478e-06
1.50033e-07
2.59105e-06
1.4923e-07
2.49146e-06
1.48361e-07
2.39586e-06
1.47429e-07
2.30409e-06
1.46437e-07
2.21599e-06
1.45388e-07
2.13142e-06
1.44284e-07
2.05024e-06
1.43128e-07
1.97231e-06
1.41923e-07
1.89751e-06
1.40671e-07
1.82571e-06
1.39374e-07
1.75679e-06
1.38034e-07
1.69063e-06
1.36655e-07
1.62712e-06
1.35238e-07
1.56616e-06
1.33784e-07
1.50765e-06
1.32297e-07
1.45148e-06
1.30778e-07
1.39756e-06
1.29229e-07
1.34581e-06
1.27651e-07
1.29614e-06
1.26044e-07
1.24846e-06
1.2441e-07
1.2027e-06
1.22749e-07
1.15877e-06
1.21063e-07
1.11658e-06
1.19352e-07
1.07604e-06
1.17621e-07
1.03706e-06
1.15871e-07
9.99554e-07
1.14107e-07
9.63453e-07
9.28749e-07
3.57957e-08
1.25045e-05
3.7735e-08
1.25225e-05
3.9755e-08
1.25383e-05
4.18587e-08
1.25516e-05
4.40457e-08
1.25623e-05
4.63175e-08
1.25704e-05
4.86766e-08
1.25758e-05
5.11214e-08
1.25783e-05
5.36529e-08
1.25778e-05
5.62702e-08
1.25743e-05
5.89674e-08
1.25676e-05
6.17413e-08
1.25577e-05
6.45791e-08
1.25444e-05
6.74677e-08
1.25276e-05
7.04005e-08
1.25071e-05
7.33777e-08
1.24829e-05
7.64016e-08
1.24547e-05
7.94733e-08
1.24224e-05
8.25886e-08
1.23858e-05
8.57442e-08
1.23448e-05
8.89333e-08
1.22993e-05
9.2148e-08
1.22489e-05
9.5379e-08
1.21937e-05
9.8613e-08
1.21333e-05
1.01839e-07
1.20677e-05
1.05044e-07
1.19966e-05
1.08217e-07
1.19197e-05
1.11357e-07
1.18365e-05
1.14411e-07
1.15454e-05
1.17332e-07
1.10661e-05
1.2013e-07
1.06085e-05
1.22815e-07
1.01716e-05
1.2539e-07
9.75428e-06
1.2786e-07
9.35556e-06
1.30226e-07
8.97454e-06
1.32491e-07
8.61036e-06
1.34654e-07
8.2622e-06
1.36718e-07
7.9293e-06
1.38684e-07
7.6109e-06
1.40551e-07
7.30629e-06
1.42319e-07
7.01477e-06
1.43985e-07
6.73568e-06
1.45549e-07
6.46841e-06
1.47007e-07
6.21234e-06
1.48355e-07
5.96694e-06
1.49592e-07
5.73169e-06
1.50716e-07
5.50611e-06
1.51727e-07
5.28975e-06
1.52622e-07
5.08219e-06
1.53402e-07
4.88305e-06
1.54069e-07
4.69194e-06
1.54621e-07
4.50853e-06
1.55062e-07
4.33248e-06
1.55394e-07
4.16348e-06
1.55618e-07
4.00125e-06
1.55737e-07
3.84549e-06
1.55753e-07
3.69595e-06
1.5567e-07
3.55237e-06
1.5549e-07
3.41452e-06
1.55218e-07
3.28216e-06
1.54855e-07
3.15508e-06
1.54406e-07
3.03306e-06
1.53874e-07
2.91592e-06
1.53262e-07
2.80345e-06
1.52573e-07
2.69547e-06
1.51811e-07
2.59181e-06
1.5098e-07
2.49229e-06
1.50082e-07
2.39676e-06
1.4912e-07
2.30505e-06
1.48097e-07
2.21701e-06
1.47016e-07
2.1325e-06
1.45881e-07
2.05137e-06
1.44693e-07
1.9735e-06
1.43456e-07
1.89875e-06
1.42171e-07
1.82699e-06
1.40842e-07
1.75812e-06
1.3947e-07
1.692e-06
1.38058e-07
1.62854e-06
1.36609e-07
1.56761e-06
1.35124e-07
1.50913e-06
1.33606e-07
1.453e-06
1.32056e-07
1.39911e-06
1.30477e-07
1.34739e-06
1.2887e-07
1.29775e-06
1.27236e-07
1.25009e-06
1.25576e-07
1.20436e-06
1.2389e-07
1.16045e-06
1.22181e-07
1.11829e-06
1.2045e-07
1.07777e-06
1.18701e-07
1.03881e-06
1.16936e-07
1.00132e-06
1.1516e-07
9.65229e-07
9.30533e-07
3.70746e-08
1.25026e-05
3.90492e-08
1.25206e-05
4.11039e-08
1.25362e-05
4.32427e-08
1.25494e-05
4.54664e-08
1.25601e-05
4.77765e-08
1.25681e-05
5.01732e-08
1.25734e-05
5.26582e-08
1.25758e-05
5.5228e-08
1.25753e-05
5.78831e-08
1.25717e-05
6.06174e-08
1.25649e-05
6.34243e-08
1.25549e-05
6.62927e-08
1.25415e-05
6.92066e-08
1.25246e-05
7.21597e-08
1.25042e-05
7.51583e-08
1.24799e-05
7.82054e-08
1.24517e-05
8.12979e-08
1.24193e-05
8.4435e-08
1.23827e-05
8.76105e-08
1.23417e-05
9.08183e-08
1.2296e-05
9.40507e-08
1.22457e-05
9.72965e-08
1.21904e-05
1.00546e-07
1.21301e-05
1.03785e-07
1.20645e-05
1.07e-07
1.19934e-05
1.10183e-07
1.19165e-05
1.13331e-07
1.18333e-05
1.1639e-07
1.15423e-05
1.19316e-07
1.10632e-05
1.22119e-07
1.06057e-05
1.24806e-07
1.01689e-05
1.27384e-07
9.7517e-06
1.29857e-07
9.35308e-06
1.32225e-07
8.97217e-06
1.34491e-07
8.60809e-06
1.36656e-07
8.26004e-06
1.3872e-07
7.92724e-06
1.40686e-07
7.60893e-06
1.42552e-07
7.30442e-06
1.44318e-07
7.013e-06
1.45982e-07
6.73402e-06
1.47542e-07
6.46685e-06
1.48996e-07
6.21089e-06
1.5034e-07
5.9656e-06
1.51571e-07
5.73046e-06
1.5269e-07
5.50499e-06
1.53692e-07
5.28875e-06
1.54578e-07
5.08131e-06
1.5535e-07
4.88228e-06
1.56005e-07
4.69129e-06
1.56546e-07
4.50799e-06
1.56974e-07
4.33205e-06
1.57291e-07
4.16317e-06
1.575e-07
4.00104e-06
1.57602e-07
3.84539e-06
1.576e-07
3.69595e-06
1.57498e-07
3.55247e-06
1.57298e-07
3.41472e-06
1.57004e-07
3.28245e-06
1.56619e-07
3.15546e-06
1.56146e-07
3.03354e-06
1.5559e-07
2.91647e-06
1.54952e-07
2.80409e-06
1.54237e-07
2.69619e-06
1.53448e-07
2.5926e-06
1.52588e-07
2.49315e-06
1.51661e-07
2.39769e-06
1.5067e-07
2.30604e-06
1.49618e-07
2.21806e-06
1.48507e-07
2.13361e-06
1.47341e-07
2.05254e-06
1.46123e-07
1.97472e-06
1.44855e-07
1.90002e-06
1.43539e-07
1.82831e-06
1.4218e-07
1.75948e-06
1.40777e-07
1.6934e-06
1.39336e-07
1.62998e-06
1.37856e-07
1.56909e-06
1.36343e-07
1.51065e-06
1.34796e-07
1.45454e-06
1.3322e-07
1.40069e-06
1.31615e-07
1.349e-06
1.29983e-07
1.29938e-06
1.28326e-07
1.25175e-06
1.26644e-07
1.20604e-06
1.2494e-07
1.16215e-06
1.23214e-07
1.12001e-06
1.21469e-07
1.07952e-06
1.19707e-07
1.04057e-06
1.17934e-07
1.00309e-06
1.16151e-07
9.67011e-07
9.3232e-07
3.83793e-08
1.25007e-05
4.03855e-08
1.25186e-05
4.24745e-08
1.25341e-05
4.46468e-08
1.25473e-05
4.69052e-08
1.25578e-05
4.92506e-08
1.25658e-05
5.16828e-08
1.25709e-05
5.42014e-08
1.25733e-05
5.68082e-08
1.25726e-05
5.94966e-08
1.2569e-05
6.22645e-08
1.25621e-05
6.51016e-08
1.2552e-05
6.79916e-08
1.25386e-05
7.09229e-08
1.25217e-05
7.3894e-08
1.25012e-05
7.69113e-08
1.24769e-05
7.99774e-08
1.24486e-05
8.30893e-08
1.24162e-05
8.6243e-08
1.23795e-05
8.9433e-08
1.23385e-05
9.26551e-08
1.22928e-05
9.58996e-08
1.22424e-05
9.91582e-08
1.21872e-05
1.02418e-07
1.21268e-05
1.05663e-07
1.20612e-05
1.08885e-07
1.19902e-05
1.12072e-07
1.19133e-05
1.15222e-07
1.18302e-05
1.18282e-07
1.15393e-05
1.21208e-07
1.10602e-05
1.24011e-07
1.06029e-05
1.26697e-07
1.01662e-05
1.29274e-07
9.74912e-06
1.31745e-07
9.35061e-06
1.34112e-07
8.9698e-06
1.36376e-07
8.60583e-06
1.38538e-07
8.25788e-06
1.406e-07
7.92517e-06
1.42562e-07
7.60697e-06
1.44424e-07
7.30256e-06
1.46186e-07
7.01124e-06
1.47846e-07
6.73236e-06
1.494e-07
6.46529e-06
1.50848e-07
6.20944e-06
1.52185e-07
5.96426e-06
1.53409e-07
5.72924e-06
1.54518e-07
5.50388e-06
1.55512e-07
5.28775e-06
1.56389e-07
5.08043e-06
1.57149e-07
4.88152e-06
1.57792e-07
4.69064e-06
1.58321e-07
4.50746e-06
1.58735e-07
4.33164e-06
1.59038e-07
4.16286e-06
1.5923e-07
4.00085e-06
1.59314e-07
3.8453e-06
1.59295e-07
3.69597e-06
1.59173e-07
3.55259e-06
1.58953e-07
3.41494e-06
1.58637e-07
3.28277e-06
1.58229e-07
3.15587e-06
1.57733e-07
3.03403e-06
1.57152e-07
2.91706e-06
1.56489e-07
2.80475e-06
1.55748e-07
2.69693e-06
1.54932e-07
2.59341e-06
1.54045e-07
2.49404e-06
1.53091e-07
2.39864e-06
1.52071e-07
2.30706e-06
1.5099e-07
2.21914e-06
1.49851e-07
2.13475e-06
1.48656e-07
2.05373e-06
1.47409e-07
1.97596e-06
1.46112e-07
1.90131e-06
1.44768e-07
1.82965e-06
1.43379e-07
1.76086e-06
1.41949e-07
1.69483e-06
1.40481e-07
1.63145e-06
1.38975e-07
1.5706e-06
1.37436e-07
1.51219e-06
1.35865e-07
1.45611e-06
1.34266e-07
1.40229e-06
1.32639e-07
1.35062e-06
1.30988e-07
1.30103e-06
1.29313e-07
1.25343e-06
1.27615e-07
1.20774e-06
1.25898e-07
1.16387e-06
1.24161e-07
1.12175e-06
1.22407e-07
1.08127e-06
1.20641e-07
1.04234e-06
1.18865e-07
1.00487e-06
1.17083e-07
9.68792e-07
9.34103e-07
3.9705e-08
1.24987e-05
4.17427e-08
1.25165e-05
4.38639e-08
1.2532e-05
4.60677e-08
1.25451e-05
4.83573e-08
1.25556e-05
5.07345e-08
1.25634e-05
5.31992e-08
1.25685e-05
5.57515e-08
1.25707e-05
5.83885e-08
1.257e-05
6.11077e-08
1.25662e-05
6.39023e-08
1.25593e-05
6.67615e-08
1.25492e-05
6.96692e-08
1.25357e-05
7.26126e-08
1.25188e-05
7.55989e-08
1.24982e-05
7.86331e-08
1.24739e-05
8.17146e-08
1.24455e-05
8.48394e-08
1.24131e-05
8.80049e-08
1.23764e-05
9.12075e-08
1.23353e-05
9.44384e-08
1.22896e-05
9.76923e-08
1.22392e-05
1.00956e-07
1.21839e-05
1.0422e-07
1.21236e-05
1.07469e-07
1.2058e-05
1.1069e-07
1.1987e-05
1.13877e-07
1.19101e-05
1.17023e-07
1.1827e-05
1.20079e-07
1.15362e-05
1.23e-07
1.10573e-05
1.25797e-07
1.06001e-05
1.28479e-07
1.01636e-05
1.3105e-07
9.74655e-06
1.33515e-07
9.34815e-06
1.35876e-07
8.96744e-06
1.38134e-07
8.60357e-06
1.40291e-07
8.25572e-06
1.42347e-07
7.92312e-06
1.44302e-07
7.60502e-06
1.46158e-07
7.3007e-06
1.47912e-07
7.00949e-06
1.49564e-07
6.73071e-06
1.51111e-07
6.46374e-06
1.5255e-07
6.208e-06
1.53878e-07
5.96293e-06
1.55093e-07
5.72802e-06
1.56193e-07
5.50278e-06
1.57176e-07
5.28677e-06
1.58041e-07
5.07956e-06
1.58789e-07
4.88077e-06
1.5942e-07
4.69001e-06
1.59934e-07
4.50695e-06
1.60333e-07
4.33124e-06
1.6062e-07
4.16258e-06
1.60795e-07
4.00067e-06
1.60862e-07
3.84524e-06
1.60824e-07
3.69601e-06
1.60682e-07
3.55274e-06
1.60442e-07
3.41518e-06
1.60104e-07
3.28311e-06
1.59675e-07
3.1563e-06
1.59155e-07
3.03455e-06
1.5855e-07
2.91766e-06
1.57862e-07
2.80544e-06
1.57096e-07
2.69769e-06
1.56254e-07
2.59426e-06
1.55341e-07
2.49495e-06
1.5436e-07
2.39962e-06
1.53314e-07
2.3081e-06
1.52205e-07
2.22025e-06
1.51039e-07
2.13591e-06
1.49817e-07
2.05495e-06
1.48543e-07
1.97724e-06
1.4722e-07
1.90264e-06
1.4585e-07
1.83102e-06
1.44436e-07
1.76228e-06
1.42982e-07
1.69629e-06
1.41489e-07
1.63294e-06
1.39961e-07
1.57212e-06
1.38401e-07
1.51375e-06
1.3681e-07
1.4577e-06
1.35192e-07
1.40391e-06
1.33549e-07
1.35226e-06
1.31883e-07
1.30269e-06
1.30196e-07
1.25511e-06
1.28489e-07
1.20944e-06
1.26763e-07
1.1656e-06
1.25021e-07
1.12349e-06
1.23266e-07
1.08303e-06
1.215e-07
1.04411e-06
1.19727e-07
1.00664e-06
1.17952e-07
9.70566e-07
9.35877e-07
4.10513e-08
1.24967e-05
4.31183e-08
1.25145e-05
4.52678e-08
1.25299e-05
4.7501e-08
1.25428e-05
4.98197e-08
1.25532e-05
5.22257e-08
1.2561e-05
5.47192e-08
1.2566e-05
5.72992e-08
1.25681e-05
5.99634e-08
1.25673e-05
6.2708e-08
1.25635e-05
6.55247e-08
1.25565e-05
6.8402e-08
1.25463e-05
7.13219e-08
1.25328e-05
7.42753e-08
1.25158e-05
7.72713e-08
1.24952e-05
8.0317e-08
1.24708e-05
8.34092e-08
1.24425e-05
8.65442e-08
1.241e-05
8.97178e-08
1.23732e-05
9.29261e-08
1.23321e-05
9.61626e-08
1.22864e-05
9.94187e-08
1.22359e-05
1.02684e-07
1.21806e-05
1.05946e-07
1.21203e-05
1.09193e-07
1.20547e-05
1.12409e-07
1.19838e-05
1.15588e-07
1.1907e-05
1.18728e-07
1.18239e-05
1.21773e-07
1.15332e-05
1.24685e-07
1.10544e-05
1.27471e-07
1.05974e-05
1.30142e-07
1.01609e-05
1.32702e-07
9.74399e-06
1.35158e-07
9.34569e-06
1.37509e-07
8.96509e-06
1.39757e-07
8.60132e-06
1.41903e-07
8.25357e-06
1.4395e-07
7.92107e-06
1.45895e-07
7.60307e-06
1.47741e-07
7.29886e-06
1.49485e-07
7.00774e-06
1.51127e-07
6.72907e-06
1.52663e-07
6.46221e-06
1.54092e-07
6.20657e-06
1.55409e-07
5.96162e-06
1.56612e-07
5.72682e-06
1.577e-07
5.5017e-06
1.5867e-07
5.2858e-06
1.59523e-07
5.07871e-06
1.60257e-07
4.88003e-06
1.60873e-07
4.6894e-06
1.61373e-07
4.50645e-06
1.61757e-07
4.33085e-06
1.62027e-07
4.16231e-06
1.62185e-07
4.00051e-06
1.62234e-07
3.84519e-06
1.62176e-07
3.69607e-06
1.62015e-07
3.5529e-06
1.61754e-07
3.41544e-06
1.61395e-07
3.28346e-06
1.60943e-07
3.15675e-06
1.60401e-07
3.03509e-06
1.59772e-07
2.91829e-06
1.59061e-07
2.80615e-06
1.5827e-07
2.69848e-06
1.57404e-07
2.59512e-06
1.56466e-07
2.49589e-06
1.55459e-07
2.40063e-06
1.54388e-07
2.30917e-06
1.53255e-07
2.22138e-06
1.52063e-07
2.1371e-06
1.50817e-07
2.0562e-06
1.49519e-07
1.97854e-06
1.48172e-07
1.90398e-06
1.46779e-07
1.83241e-06
1.45344e-07
1.76371e-06
1.43869e-07
1.69776e-06
1.42357e-07
1.63445e-06
1.4081e-07
1.57367e-06
1.39233e-07
1.51532e-06
1.37628e-07
1.45931e-06
1.35996e-07
1.40554e-06
1.34342e-07
1.35392e-06
1.32667e-07
1.30437e-06
1.30973e-07
1.25681e-06
1.29261e-07
1.21115e-06
1.27534e-07
1.16732e-06
1.25793e-07
1.12523e-06
1.2404e-07
1.08478e-06
1.2228e-07
1.04586e-06
1.20517e-07
1.0084e-06
1.18754e-07
9.72329e-07
9.37636e-07
4.2417e-08
1.24947e-05
4.45102e-08
1.25124e-05
4.66835e-08
1.25277e-05
4.89427e-08
1.25406e-05
5.12874e-08
1.25509e-05
5.37186e-08
1.25586e-05
5.62369e-08
1.25635e-05
5.88414e-08
1.25655e-05
6.15282e-08
1.25647e-05
6.42921e-08
1.25607e-05
6.7124e-08
1.25537e-05
7.00128e-08
1.25434e-05
7.29386e-08
1.25298e-05
7.58993e-08
1.25129e-05
7.89048e-08
1.24922e-05
8.1958e-08
1.24678e-05
8.50562e-08
1.24394e-05
8.81962e-08
1.24068e-05
9.13736e-08
1.237e-05
9.45828e-08
1.23288e-05
9.78191e-08
1.22831e-05
1.01073e-07
1.22327e-05
1.04334e-07
1.21774e-05
1.07591e-07
1.2117e-05
1.10828e-07
1.20515e-05
1.14035e-07
1.19805e-05
1.17201e-07
1.19038e-05
1.20325e-07
1.18208e-05
1.23356e-07
1.15301e-05
1.2625e-07
1.10515e-05
1.29021e-07
1.05946e-05
1.31676e-07
1.01582e-05
1.34223e-07
9.74145e-06
1.36662e-07
9.34325e-06
1.38999e-07
8.96275e-06
1.41233e-07
8.59909e-06
1.43366e-07
8.25144e-06
1.45398e-07
7.91904e-06
1.47331e-07
7.60114e-06
1.49163e-07
7.29702e-06
1.50894e-07
7.00601e-06
1.52523e-07
6.72744e-06
1.54046e-07
6.46068e-06
1.5546e-07
6.20516e-06
1.56764e-07
5.96031e-06
1.57954e-07
5.72563e-06
1.59028e-07
5.50062e-06
1.59985e-07
5.28484e-06
1.60823e-07
5.07787e-06
1.61542e-07
4.87931e-06
1.62143e-07
4.68879e-06
1.62627e-07
4.50596e-06
1.62994e-07
4.33049e-06
1.63246e-07
4.16205e-06
1.63387e-07
4.00037e-06
1.63417e-07
3.84516e-06
1.6334e-07
3.69614e-06
1.6316e-07
3.55308e-06
1.62877e-07
3.41572e-06
1.62498e-07
3.28384e-06
1.62024e-07
3.15722e-06
1.6146e-07
3.03566e-06
1.60809e-07
2.91894e-06
1.60075e-07
2.80688e-06
1.59261e-07
2.6993e-06
1.58372e-07
2.59601e-06
1.5741e-07
2.49685e-06
1.5638e-07
2.40166e-06
1.55286e-07
2.31027e-06
1.5413e-07
2.22254e-06
1.52916e-07
2.13832e-06
1.51648e-07
2.05747e-06
1.50329e-07
1.97985e-06
1.48962e-07
1.90535e-06
1.4755e-07
1.83383e-06
1.46097e-07
1.76517e-06
1.44605e-07
1.69925e-06
1.43078e-07
1.63598e-06
1.41518e-07
1.57523e-06
1.39929e-07
1.51691e-06
1.38314e-07
1.46093e-06
1.36674e-07
1.40718e-06
1.35014e-07
1.35558e-06
1.33335e-07
1.30605e-06
1.3164e-07
1.2585e-06
1.29929e-07
1.21286e-06
1.28205e-07
1.16905e-06
1.2647e-07
1.12697e-06
1.24726e-07
1.08652e-06
1.22977e-07
1.04761e-06
1.21226e-07
1.01015e-06
1.19479e-07
9.74076e-07
9.39377e-07
4.37964e-08
1.24927e-05
4.59125e-08
1.25102e-05
4.81095e-08
1.25255e-05
5.03893e-08
1.25383e-05
5.27559e-08
1.25485e-05
5.52084e-08
1.25561e-05
5.77476e-08
1.25609e-05
6.03715e-08
1.25629e-05
6.30753e-08
1.2562e-05
6.58533e-08
1.2558e-05
6.86967e-08
1.25508e-05
7.1589e-08
1.25405e-05
7.45167e-08
1.25269e-05
7.74815e-08
1.25099e-05
8.04918e-08
1.24892e-05
8.35492e-08
1.24647e-05
8.66493e-08
1.24363e-05
8.97885e-08
1.24037e-05
9.29643e-08
1.23669e-05
9.61702e-08
1.23256e-05
9.94014e-08
1.22799e-05
1.02648e-07
1.22294e-05
1.05899e-07
1.21741e-05
1.09144e-07
1.21138e-05
1.12367e-07
1.20483e-05
1.15556e-07
1.19774e-05
1.18705e-07
1.19007e-05
1.21808e-07
1.18177e-05
1.24817e-07
1.15271e-05
1.27691e-07
1.10486e-05
1.3044e-07
1.05918e-05
1.33074e-07
1.01556e-05
1.35599e-07
9.73892e-06
1.38019e-07
9.34083e-06
1.40336e-07
8.96043e-06
1.42552e-07
8.59687e-06
1.44667e-07
8.24933e-06
1.46682e-07
7.91702e-06
1.48597e-07
7.59922e-06
1.50413e-07
7.29521e-06
1.52128e-07
7.0043e-06
1.53739e-07
6.72583e-06
1.55246e-07
6.45918e-06
1.56645e-07
6.20376e-06
1.57933e-07
5.95902e-06
1.59107e-07
5.72445e-06
1.60165e-07
5.49956e-06
1.61106e-07
5.2839e-06
1.61928e-07
5.07705e-06
1.62631e-07
4.87861e-06
1.63215e-07
4.68821e-06
1.63681e-07
4.5055e-06
1.64032e-07
4.33014e-06
1.64266e-07
4.16182e-06
1.64389e-07
4.00025e-06
1.644e-07
3.84514e-06
1.64304e-07
3.69624e-06
1.64103e-07
3.55328e-06
1.63801e-07
3.41602e-06
1.63401e-07
3.28424e-06
1.62907e-07
3.15772e-06
1.62321e-07
3.03624e-06
1.61649e-07
2.91961e-06
1.60893e-07
2.80764e-06
1.60058e-07
2.70013e-06
1.59147e-07
2.59692e-06
1.58165e-07
2.49783e-06
1.57114e-07
2.40271e-06
1.55999e-07
2.31138e-06
1.54823e-07
2.22371e-06
1.5359e-07
2.13955e-06
1.52304e-07
2.05875e-06
1.50968e-07
1.98119e-06
1.49584e-07
1.90673e-06
1.48157e-07
1.83525e-06
1.4669e-07
1.76663e-06
1.45186e-07
1.70076e-06
1.43648e-07
1.63751e-06
1.4208e-07
1.5768e-06
1.40483e-07
1.51851e-06
1.38863e-07
1.46255e-06
1.37221e-07
1.40882e-06
1.3556e-07
1.35724e-06
1.33883e-07
1.30772e-06
1.3219e-07
1.26019e-06
1.30485e-07
1.21457e-06
1.28769e-07
1.17076e-06
1.27044e-07
1.12869e-06
1.25313e-07
1.08825e-06
1.23579e-07
1.04935e-06
1.21846e-07
1.01188e-06
1.20118e-07
9.75804e-07
9.41097e-07
4.51891e-08
1.24906e-05
4.73218e-08
1.25081e-05
4.95366e-08
1.25233e-05
5.18353e-08
1.2536e-05
5.42183e-08
1.25461e-05
5.66891e-08
1.25536e-05
5.92444e-08
1.25584e-05
6.18815e-08
1.25603e-05
6.45983e-08
1.25592e-05
6.73855e-08
1.25552e-05
7.02339e-08
1.2548e-05
7.31263e-08
1.25376e-05
7.60528e-08
1.2524e-05
7.90176e-08
1.25069e-05
8.20279e-08
1.24862e-05
8.50839e-08
1.24617e-05
8.81812e-08
1.24332e-05
9.1317e-08
1.24005e-05
9.44849e-08
1.23637e-05
9.76828e-08
1.23224e-05
1.00902e-07
1.22767e-05
1.04135e-07
1.22262e-05
1.07372e-07
1.21709e-05
1.10597e-07
1.21106e-05
1.13801e-07
1.20451e-05
1.16967e-07
1.19742e-05
1.20091e-07
1.18975e-05
1.23168e-07
1.18146e-05
1.2615e-07
1.15241e-05
1.28995e-07
1.10458e-05
1.31717e-07
1.05891e-05
1.34324e-07
1.0153e-05
1.36824e-07
9.73642e-06
1.39218e-07
9.33844e-06
1.41511e-07
8.95814e-06
1.43704e-07
8.59468e-06
1.45796e-07
8.24723e-06
1.47789e-07
7.91503e-06
1.49684e-07
7.59733e-06
1.51478e-07
7.29341e-06
1.53173e-07
7.0026e-06
1.54766e-07
6.72423e-06
1.56253e-07
6.45769e-06
1.57633e-07
6.20238e-06
1.58903e-07
5.95776e-06
1.60059e-07
5.7233e-06
1.61099e-07
5.49852e-06
1.62022e-07
5.28298e-06
1.62825e-07
5.07625e-06
1.63511e-07
4.87793e-06
1.64078e-07
4.68764e-06
1.64526e-07
4.50505e-06
1.64858e-07
4.3298e-06
1.65074e-07
4.1616e-06
1.65177e-07
4.00015e-06
1.6517e-07
3.84515e-06
1.65055e-07
3.69635e-06
1.64835e-07
3.5535e-06
1.64513e-07
3.41634e-06
1.64093e-07
3.28466e-06
1.63579e-07
3.15823e-06
1.62974e-07
3.03685e-06
1.62281e-07
2.9203e-06
1.61506e-07
2.80841e-06
1.60651e-07
2.70099e-06
1.59721e-07
2.59785e-06
1.5872e-07
2.49883e-06
1.57651e-07
2.40377e-06
1.56518e-07
2.31252e-06
1.55326e-07
2.2249e-06
1.54077e-07
2.1408e-06
1.52776e-07
2.06005e-06
1.51426e-07
1.98254e-06
1.5003e-07
1.90813e-06
1.48593e-07
1.83669e-06
1.47116e-07
1.76811e-06
1.45605e-07
1.70227e-06
1.44061e-07
1.63906e-06
1.42488e-07
1.57837e-06
1.4089e-07
1.52011e-06
1.3927e-07
1.46417e-06
1.3763e-07
1.41046e-06
1.35973e-07
1.3589e-06
1.34301e-07
1.3094e-06
1.32618e-07
1.26188e-06
1.30923e-07
1.21626e-06
1.29219e-07
1.17247e-06
1.27509e-07
1.1304e-06
1.25794e-07
1.08997e-06
1.24078e-07
1.05106e-06
1.22366e-07
1.0136e-06
1.2066e-07
9.77509e-07
9.42793e-07
4.65881e-08
1.24885e-05
4.87353e-08
1.2506e-05
5.09621e-08
1.25211e-05
5.32734e-08
1.25337e-05
5.56712e-08
1.25437e-05
5.81529e-08
1.25512e-05
6.07204e-08
1.25558e-05
6.33677e-08
1.25576e-05
6.60898e-08
1.25565e-05
6.88811e-08
1.25524e-05
7.17291e-08
1.25451e-05
7.46176e-08
1.25347e-05
7.75392e-08
1.25211e-05
8.05005e-08
1.2504e-05
8.35076e-08
1.24832e-05
8.65564e-08
1.24586e-05
8.96461e-08
1.24301e-05
9.27706e-08
1.23974e-05
9.59273e-08
1.23605e-05
9.91099e-08
1.23193e-05
1.02313e-07
1.22735e-05
1.05527e-07
1.2223e-05
1.08742e-07
1.21677e-05
1.11945e-07
1.21074e-05
1.15121e-07
1.20419e-05
1.18259e-07
1.19711e-05
1.21351e-07
1.18944e-05
1.24394e-07
1.18115e-05
1.27342e-07
1.15212e-05
1.30154e-07
1.1043e-05
1.32842e-07
1.05864e-05
1.35417e-07
1.01504e-05
1.37884e-07
9.73395e-06
1.40249e-07
9.33607e-06
1.42512e-07
8.95588e-06
1.44676e-07
8.59251e-06
1.46741e-07
8.24517e-06
1.48708e-07
7.91307e-06
1.50577e-07
7.59546e-06
1.52348e-07
7.29164e-06
1.54018e-07
7.00093e-06
1.55588e-07
6.72266e-06
1.57054e-07
6.45622e-06
1.58412e-07
6.20102e-06
1.59661e-07
5.95651e-06
1.60796e-07
5.72216e-06
1.61816e-07
5.4975e-06
1.62719e-07
5.28208e-06
1.63504e-07
5.07546e-06
1.6417e-07
4.87726e-06
1.64718e-07
4.6871e-06
1.65147e-07
4.50462e-06
1.6546e-07
4.32949e-06
1.65658e-07
4.1614e-06
1.65742e-07
4.00006e-06
1.65716e-07
3.84518e-06
1.65582e-07
3.69649e-06
1.65343e-07
3.55374e-06
1.65002e-07
3.41668e-06
1.64564e-07
3.2851e-06
1.64031e-07
3.15877e-06
1.63407e-07
3.03747e-06
1.62696e-07
2.92101e-06
1.61903e-07
2.8092e-06
1.61031e-07
2.70186e-06
1.60084e-07
2.5988e-06
1.59067e-07
2.49985e-06
1.57983e-07
2.40486e-06
1.56836e-07
2.31366e-06
1.5563e-07
2.22611e-06
1.54369e-07
2.14206e-06
1.53057e-07
2.06137e-06
1.51698e-07
1.9839e-06
1.50294e-07
1.90953e-06