/*--------------------------------*- C++ -*----------------------------------*\
  =========                 |
  \\      /  F ield         | OpenFOAM: The Open Source CFD Toolbox
   \\    /   O peration     | Website:  https://openfoam.org
    \\  /    A nd           | Version:  10
     \\/     M anipulation  |
\*---------------------------------------------------------------------------*/
FoamFile
{
    format      ascii;
    class       volVectorField;
    location    "72000";
    object      U;
}
// * * * * * * * * * * * * * * * * * * * * * * * * * * * * * * * * * * * * * //

dimensions      [0 1 -1 0 0 0 0];

internalField   nonuniform List<vector> 
17922
(
(-2.34559 2.56568 0)
(-2.34292 2.56275 2.89685e-19)
(-2.3401 2.55965 -1.12898e-18)
(-2.33713 2.55638 -3.51114e-24)
(-2.334 2.55295 2.6512e-19)
(-2.33073 2.54935 5.16413e-19)
(-2.3273 2.54558 8.62616e-24)
(-2.32372 2.54164 2.4215e-19)
(-2.31999 2.53753 -1.80871e-21)
(-2.31609 2.53325 -2.2952e-19)
(-2.31205 2.5288 -1.77332e-18)
(-2.30785 2.52418 0)
(-2.30349 2.51938 0)
(-2.29898 2.51442 -2.00928e-19)
(-2.29431 2.50928 1.96414e-19)
(-2.28948 2.50398 -1.88529e-19)
(-2.2845 2.4985 1.84349e-19)
(-2.27937 2.49285 -7.10786e-19)
(-2.27408 2.48703 -1.71209e-19)
(-2.26863 2.48105 -6.64739e-19)
(-2.26303 2.4749 -4.83083e-19)
(-2.25729 2.46858 1.5531e-19)
(-2.25139 2.4621 -7.56723e-19)
(-2.24534 2.45546 5.85341e-19)
(-2.23915 2.44867 -5.66584e-19)
(-2.23282 2.44172 0)
(-2.22635 2.43462 0)
(-2.21974 2.42738 0)
(-2.21306 2.42007 1.00887e-18)
(-2.20643 2.41282 1.24927e-19)
(-2.19992 2.4057 3.75568e-19)
(-2.19353 2.39871 1.00196e-18)
(-2.18726 2.39187 -4.38302e-19)
(-2.18112 2.38518 4.37341e-19)
(-2.1751 2.37863 -5.00391e-19)
(-2.16922 2.37223 0)
(-2.16347 2.36599 6.22756e-20)
(-2.15785 2.3599 -6.27981e-19)
(-2.15237 2.35398 -3.77686e-19)
(-2.14703 2.3482 -6.31282e-19)
(-2.14183 2.34259 6.37312e-20)
(-2.13676 2.33715 -6.31241e-20)
(-2.13184 2.33186 -4.46386e-19)
(-2.12705 2.32674 -6.36983e-20)
(-2.12241 2.32178 5.16092e-19)
(-2.11791 2.31699 -9.06272e-19)
(-2.11356 2.31236 -8.07706e-22)
(-2.10936 2.3079 -5.24314e-19)
(-2.1053 2.30361 4.60328e-19)
(-2.10138 2.29949 0)
(-2.09762 2.29554 2.6654e-19)
(-2.09401 2.29176 2.68219e-19)
(-2.09054 2.28815 -3.37057e-19)
(-2.08722 2.28471 3.40165e-19)
(-2.08406 2.28145 0)
(-2.08104 2.27835 2.07082e-19)
(-2.07817 2.27543 6.977e-20)
(-2.07545 2.27267 2.79362e-19)
(-2.07288 2.27009 0)
(-2.07046 2.26768 -2.83338e-19)
(-2.06818 2.26543 0)
(-2.06604 2.26335 7.13895e-20)
(-2.06405 2.26143 -3.62003e-19)
(-2.06219 2.25967 -2.91243e-19)
(-2.06047 2.25807 2.9326e-19)
(-2.05889 2.25663 -2.95211e-19)
(-2.05743 2.25533 2.23306e-19)
(-2.0561 2.25419 -1.49498e-19)
(-2.05489 2.25318 -3.7649e-19)
(-2.05379 2.25232 0)
(-2.0528 2.25158 1.52246e-19)
(-2.05191 2.25097 1.53078e-19)
(-2.05112 2.25049 -2.98111e-23)
(-2.05042 2.25011 2.31644e-19)
(-2.04981 2.24984 -2.33667e-19)
(-2.04927 2.24966 1.56214e-19)
(-2.0488 2.24958 1.56944e-19)
(-2.04839 2.24957 -3.15175e-19)
(-2.04804 2.24964 7.86352e-20)
(-2.04774 2.24978 -7.98377e-20)
(-2.04749 2.24998 2.38539e-19)
(-2.04728 2.25024 -1.59801e-19)
(-2.04711 2.25054 9.52195e-22)
(-2.04698 2.25088 8.07654e-20)
(-2.04687 2.25126 4.02254e-19)
(-2.04679 2.25166 1.35559e-23)
(-2.04673 2.25209 2.43058e-19)
(-2.0467 2.25254 0)
(-2.04669 2.253 -8.0672e-20)
(-2.04669 2.25348 8.17276e-20)
(-2.04672 2.25396 -1.62275e-19)
(-2.04677 2.25445 8.23998e-20)
(-2.04683 2.25494 1.63157e-19)
(-2.33943 2.57131 -3.04513e-19)
(-2.33677 2.56837 2.94092e-19)
(-2.33396 2.56527 -2.87629e-19)
(-2.331 2.56199 1.11403e-18)
(-2.32788 2.55855 -4.67101e-26)
(-2.32462 2.55494 -2.61735e-19)
(-2.3212 2.55117 7.65944e-19)
(-2.31763 2.54722 0)
(-2.3139 2.5431 -1.20004e-18)
(-2.31002 2.53881 2.33956e-19)
(-2.30599 2.53435 9.04218e-19)
(-2.3018 2.52972 -8.76955e-19)
(-2.29745 2.52492 0)
(-2.29295 2.51994 0)
(-2.28829 2.5148 0)
(-2.28348 2.50948 9.67252e-19)
(-2.27851 2.50399 7.48761e-19)
(-2.27339 2.49833 5.44516e-19)
(-2.26811 2.4925 1.75243e-19)
(-2.26268 2.4865 5.10949e-19)
(-2.2571 2.48034 -3.60157e-24)
(-2.25136 2.47401 0)
(-2.24548 2.46752 1.54113e-19)
(-2.23945 2.46086 -7.51304e-19)
(-2.23327 2.45405 5.81332e-19)
(-2.22696 2.44709 0)
(-2.2205 2.43998 0)
(-2.21391 2.43272 0)
(-2.20725 2.42539 8.20621e-24)
(-2.20064 2.41812 0)
(-2.19414 2.41099 1.28027e-19)
(-2.18777 2.40399 -1.29488e-19)
(-2.18151 2.39713 1.02806e-18)
(-2.17538 2.39042 3.86182e-19)
(-2.16938 2.38386 1.293e-19)
(-2.16352 2.37745 0)
(-2.15778 2.37119 -5.14885e-19)
(-2.15218 2.36509 5.15793e-19)
(-2.14671 2.35914 5.81164e-19)
(-2.14138 2.35336 4.53155e-19)
(-2.13619 2.34774 -4.55403e-19)
(-2.13113 2.34227 4.56183e-19)
(-2.12622 2.33697 0)
(-2.12145 2.33184 -6.53499e-20)
(-2.11682 2.32686 -5.27681e-19)
(-2.11233 2.32206 1.12897e-18)
(-2.10799 2.31742 6.6314e-20)
(-2.10379 2.31295 4.02528e-19)
(-2.09975 2.30864 -4.71848e-19)
(-2.09584 2.30451 3.38889e-19)
(-2.09209 2.30055 1.3654e-19)
(-2.08849 2.29675 -2.05661e-19)
(-2.08503 2.29313 2.76518e-19)
(-2.08172 2.28968 0)
(-2.07857 2.2864 -6.96112e-20)
(-2.07556 2.2833 7.09257e-20)
(-2.0727 2.28036 2.83893e-19)
(-2.06999 2.2776 -2.85812e-19)
(-2.06743 2.275 0)
(-2.06501 2.27257 -7.19931e-20)
(-2.06274 2.27031 7.3348e-20)
(-2.06061 2.26822 -7.29681e-20)
(-2.05862 2.26629 5.92005e-19)
(-2.05678 2.26452 3.72329e-19)
(-2.05506 2.26291 0)
(-2.05349 2.26145 0)
(-2.05204 2.26014 -7.53615e-20)
(-2.05071 2.25899 3.81785e-19)
(-2.04951 2.25797 6.13746e-19)
(-2.04841 2.25709 0)
(-2.04743 2.25634 0)
(-2.04655 2.25572 -2.34454e-19)
(-2.04577 2.25522 -1.57711e-19)
(-2.04507 2.25482 -7.92413e-20)
(-2.04446 2.25454 1.58296e-19)
(-2.04393 2.25435 -1.5899e-19)
(-2.04346 2.25425 -1.59644e-19)
(-2.04306 2.25423 8.05904e-20)
(-2.04272 2.25428 1.61762e-19)
(-2.04243 2.25441 1.62297e-19)
(-2.04218 2.25459 9.2955e-22)
(-2.04198 2.25483 -8.0687e-20)
(-2.04182 2.25512 -1.9494e-24)
(-2.0417 2.25545 -2.44162e-19)
(-2.0416 2.25581 -8.12352e-20)
(-2.04153 2.2562 -2.45093e-19)
(-2.04149 2.25662 -8.15094e-20)
(-2.04147 2.25705 0)
(-2.04147 2.25751 0)
(-2.04149 2.25797 2.46408e-19)
(-2.04154 2.25845 -8.23852e-20)
(-2.0416 2.25893 4.72254e-22)
(-2.04168 2.25941 0)
(-2.33308 2.57709 3.04977e-19)
(-2.33043 2.57414 -2.98423e-19)
(-2.32762 2.57103 1.15669e-18)
(-2.32467 2.56775 -1.12416e-18)
(-2.32156 2.5643 -5.46155e-19)
(-2.31831 2.56069 -2.64336e-19)
(-2.3149 2.5569 7.73872e-19)
(-2.31133 2.55294 1.00071e-18)
(-2.30762 2.54882 7.29566e-19)
(-2.30375 2.54452 -7.06285e-19)
(-2.29972 2.54005 0)
(-2.29554 2.53541 1.10886e-18)
(-2.29121 2.5306 -2.16224e-19)
(-2.28672 2.52561 -2.07906e-19)
(-2.28208 2.52045 2.03405e-19)
(-2.27728 2.51512 7.85312e-19)
(-2.27232 2.50962 -1.52257e-18)
(-2.26721 2.50395 0)
(-2.26195 2.49811 -5.37228e-19)
(-2.25653 2.4921 -1.78998e-21)
(-2.25096 2.48592 1.34105e-18)
(-2.24524 2.47958 -3.25241e-19)
(-2.23938 2.47307 6.31932e-19)
(-2.23336 2.4664 1.7699e-21)
(-2.2272 2.45958 -5.89505e-19)
(-2.2209 2.4526 1.44059e-19)
(-2.21446 2.44547 0)
(-2.20789 2.4382 1.33388e-19)
(-2.20124 2.43085 -1.18801e-18)
(-2.19465 2.42356 -1.30665e-19)
(-2.18817 2.41641 6.56881e-19)
(-2.18181 2.40939 -5.23867e-19)
(-2.17557 2.40252 -6.53217e-19)
(-2.16946 2.39579 -2.61494e-19)
(-2.16347 2.38921 -2.61503e-19)
(-2.15762 2.38279 6.55013e-19)
(-2.15189 2.37651 6.54101e-19)
(-2.1463 2.3704 -1.32048e-19)
(-2.14085 2.36444 0)
(-2.13553 2.35864 -6.58324e-19)
(-2.13035 2.353 5.30603e-19)
(-2.12531 2.34752 1.33519e-19)
(-2.12041 2.34221 -4.66549e-19)
(-2.11565 2.33705 -6.02201e-19)
(-2.11103 2.33207 6.04053e-19)
(-2.10656 2.32725 -6.74815e-19)
(-2.10223 2.3226 -4.74295e-19)
(-2.09804 2.31811 0)
(-2.094 2.31379 4.80241e-19)
(-2.09011 2.30965 -4.82132e-19)
(-2.08637 2.30567 -3.46285e-19)
(-2.08277 2.30186 7.01835e-20)
(-2.07933 2.29823 0)
(-2.07603 2.29477 0)
(-2.07288 2.29147 -2.84307e-19)
(-2.06989 2.28835 0)
(-2.06704 2.28541 -2.88025e-19)
(-2.06433 2.28263 0)
(-2.06178 2.28002 2.9179e-19)
(-2.05937 2.27758 0)
(-2.05711 2.27531 0)
(-2.05499 2.2732 0)
(-2.05301 2.27126 -2.99472e-19)
(-2.05117 2.26947 0)
(-2.04947 2.26785 -7.53612e-20)
(-2.04789 2.26638 1.52544e-19)
(-2.04645 2.26506 -1.53456e-19)
(-2.04513 2.26389 -2.31059e-19)
(-2.04393 2.26286 -3.10466e-19)
(-2.04285 2.26196 0)
(-2.04187 2.2612 -1.56888e-19)
(-2.041 2.26056 1.577e-19)
(-2.04022 2.26005 1.58444e-19)
(-2.03953 2.25964 0)
(-2.03892 2.25934 0)
(-2.03839 2.25913 7.9799e-20)
(-2.03793 2.25901 -8.10172e-20)
(-2.03753 2.25898 0)
(-2.0372 2.25902 -8.06747e-20)
(-2.03691 2.25913 -8.09098e-20)
(-2.03668 2.2593 0)
(-2.03649 2.25952 3.27166e-19)
(-2.03634 2.25979 1.63953e-19)
(-2.03622 2.26011 -1.64253e-19)
(-2.03613 2.26046 0)
(-2.03608 2.26083 8.28541e-20)
(-2.03604 2.26124 8.29665e-20)
(-2.03604 2.26166 1.65168e-19)
(-2.03605 2.26211 1.64858e-19)
(-2.03609 2.26256 -2.48201e-19)
(-2.03615 2.26303 8.27961e-20)
(-2.03623 2.2635 -9.33149e-22)
(-2.03633 2.26398 -8.33766e-20)
(-2.32652 2.58301 3.09107e-19)
(-2.32388 2.58006 -2.98785e-19)
(-2.32108 2.57694 -5.81108e-19)
(-2.31814 2.57366 8.51264e-19)
(-2.31504 2.5702 2.74565e-19)
(-2.31179 2.56658 -5.35526e-19)
(-2.30839 2.56278 -5.33741e-24)
(-2.30484 2.55882 -2.53688e-19)
(-2.30113 2.55468 2.44516e-19)
(-2.29727 2.55038 7.14098e-19)
(-2.29326 2.5459 0)
(-2.28909 2.54125 0)
(-2.28477 2.53642 -8.71786e-19)
(-2.28029 2.53143 8.45855e-19)
(-2.27566 2.52626 0)
(-2.27087 2.52092 -9.93926e-19)
(-2.26593 2.5154 9.65686e-19)
(-2.26084 2.50972 -7.48362e-19)
(-2.25559 2.50386 1.45107e-18)
(-2.25019 2.49784 -1.74918e-19)
(-2.24463 2.49165 -5.10368e-19)
(-2.23893 2.48529 0)
(-2.23308 2.47877 -6.40232e-19)
(-2.22708 2.47208 -6.2039e-19)
(-2.22093 2.46524 7.50527e-19)
(-2.21465 2.45825 -2.91224e-19)
(-2.20823 2.4511 1.41979e-19)
(-2.20167 2.44381 0)
(-2.19504 2.43645 0)
(-2.18847 2.42914 0)
(-2.182 2.42197 -5.34095e-19)
(-2.17566 2.41494 0)
(-2.16944 2.40805 -5.32418e-19)
(-2.16334 2.40131 -6.6425e-19)
(-2.15737 2.39471 2.66042e-19)
(-2.15153 2.38827 -6.66339e-19)
(-2.14582 2.38198 0)
(-2.14024 2.37584 0)
(-2.1348 2.36987 0)
(-2.1295 2.36405 1.33195e-19)
(-2.12433 2.3584 4.02454e-19)
(-2.1193 2.3529 -1.34026e-19)
(-2.11441 2.34757 6.77722e-19)
(-2.10967 2.34241 5.43656e-19)
(-2.10506 2.33741 5.45964e-19)
(-2.1006 2.33257 5.48464e-19)
(-2.09628 2.32791 2.90951e-23)
(-2.09211 2.32341 0)
(-2.08808 2.31908 -6.92118e-20)
(-2.0842 2.31492 6.30364e-19)
(-2.08047 2.31092 -2.11594e-19)
(-2.07688 2.30711 -3.54427e-19)
(-2.07345 2.30346 0)
(-2.07016 2.29998 -7.12213e-20)
(-2.06702 2.29668 3.60945e-19)
(-2.06403 2.29354 7.21114e-20)
(-2.06119 2.29058 1.46004e-19)
(-2.0585 2.28779 4.40799e-19)
(-2.05595 2.28517 -4.43618e-19)
(-2.05356 2.28272 3.7244e-19)
(-2.0513 2.28043 -7.44236e-20)
(-2.04919 2.27831 7.57843e-20)
(-2.04722 2.27636 3.03199e-19)
(-2.04539 2.27456 -7.58129e-20)
(-2.04369 2.27292 3.84042e-19)
(-2.04213 2.27144 -3.08667e-19)
(-2.04069 2.27011 0)
(-2.03938 2.26892 3.12193e-19)
(-2.03819 2.26788 7.80032e-20)
(-2.03711 2.26697 -2.37065e-19)
(-2.03614 2.26619 2.38261e-19)
(-2.03527 2.26554 8.01064e-20)
(-2.03449 2.26501 -3.99564e-19)
(-2.03381 2.26458 8.08152e-20)
(-2.03321 2.26427 0)
(-2.03268 2.26405 1.61953e-19)
(-2.03223 2.26391 3.25069e-19)
(-2.03184 2.26386 0)
(-2.03151 2.26389 -2.4486e-19)
(-2.03123 2.26398 1.63986e-19)
(-2.03101 2.26414 -2.47039e-19)
(-2.03082 2.26435 -2.46646e-19)
(-2.03068 2.2646 9.44732e-22)
(-2.03057 2.2649 4.1377e-19)
(-2.0305 2.26524 0)
(-2.03045 2.2656 -8.33541e-20)
(-2.03043 2.266 8.24719e-20)
(-2.03044 2.26641 -2.49519e-19)
(-2.03047 2.26684 -2.49204e-19)
(-2.03052 2.26729 8.31112e-20)
(-2.03059 2.26775 -8.31413e-20)
(-2.03069 2.26821 8.36495e-20)
(-2.03081 2.26869 0)
(-2.31976 2.5891 9.31537e-19)
(-2.31712 2.58614 -3.00899e-19)
(-2.31433 2.58302 2.94665e-19)
(-2.3114 2.57972 -5.71372e-19)
(-2.30831 2.57626 0)
(-2.30507 2.57263 0)
(-2.30168 2.56883 5.25143e-19)
(-2.29814 2.56485 -1.02071e-18)
(-2.29444 2.56071 -2.46983e-19)
(-2.29059 2.55639 2.41795e-19)
(-2.28659 2.5519 9.35652e-19)
(-2.28244 2.54724 1.13472e-18)
(-2.27813 2.54241 6.60589e-19)
(-2.27366 2.5374 -1.71227e-18)
(-2.26904 2.53222 -8.30848e-19)
(-2.26427 2.52686 -2.00611e-19)
(-2.25934 2.52134 1.96454e-19)
(-2.25426 2.51564 5.69909e-19)
(-2.24902 2.50977 -1.10365e-18)
(-2.24364 2.50373 -1.79293e-19)
(-2.2381 2.49753 -1.72031e-19)
(-2.23241 2.49115 1.68594e-19)
(-2.22657 2.48462 8.11839e-19)
(-2.22059 2.47792 1.25871e-18)
(-2.21447 2.47106 -3.05451e-19)
(-2.2082 2.46405 2.96055e-19)
(-2.20179 2.45688 -1.82124e-21)
(-2.19525 2.44958 -1.39893e-19)
(-2.18864 2.44219 -1.35666e-19)
(-2.18209 2.43487 6.81817e-19)
(-2.17564 2.42769 0)
(-2.16931 2.42064 -4.07569e-19)
(-2.16311 2.41373 2.70778e-19)
(-2.15702 2.40697 6.77339e-19)
(-2.15107 2.40035 0)
(-2.14525 2.39389 -6.75795e-19)
(-2.13955 2.38759 1.36338e-19)
(-2.13399 2.38144 0)
(-2.12856 2.37544 5.43693e-19)
(-2.12327 2.36961 0)
(-2.11812 2.36394 -4.10748e-19)
(-2.11311 2.35843 4.10285e-19)
(-2.10823 2.35309 -1.36666e-19)
(-2.1035 2.34791 5.53966e-19)
(-2.0989 2.34289 -4.15045e-19)
(-2.09445 2.33804 -6.95373e-19)
(-2.09015 2.33336 5.61342e-19)
(-2.08598 2.32885 1.41454e-19)
(-2.08197 2.3245 -1.13045e-18)
(-2.0781 2.32033 -2.84125e-19)
(-2.07438 2.31632 1.64038e-23)
(-2.0708 2.31249 3.58682e-19)
(-2.06738 2.30883 -7.2676e-20)
(-2.0641 2.30534 0)
(-2.06098 2.30202 0)
(-2.058 2.29887 -7.3092e-20)
(-2.05517 2.2959 -2.21518e-19)
(-2.05249 2.2931 -2.97752e-19)
(-2.04995 2.29046 0)
(-2.04756 2.288 -2.54411e-23)
(-2.04532 2.2857 0)
(-2.04321 2.28356 0)
(-2.04125 2.28159 -6.13672e-19)
(-2.03943 2.27979 -3.08611e-19)
(-2.03774 2.27813 -3.10408e-19)
(-2.03619 2.27664 7.76031e-20)
(-2.03476 2.27529 -7.89173e-20)
(-2.03345 2.27409 2.37064e-19)
(-2.03227 2.27303 -2.37345e-19)
(-2.03119 2.27211 1.59338e-19)
(-2.03023 2.27132 -3.20158e-19)
(-2.02936 2.27066 8.08592e-20)
(-2.0286 2.27011 2.42698e-19)
(-2.02792 2.26967 0)
(-2.02732 2.26934 0)
(-2.0268 2.2691 -1.63311e-19)
(-2.02636 2.26895 -3.27653e-19)
(-2.02597 2.26889 0)
(-2.02565 2.2689 1.64736e-19)
(-2.02538 2.26898 8.20923e-20)
(-2.02516 2.26912 1.64544e-19)
(-2.02499 2.26931 -2.49145e-19)
(-2.02485 2.26955 -1.66038e-19)
(-2.02475 2.26984 -1.66273e-19)
(-2.02469 2.27016 -1.66433e-19)
(-2.02466 2.27052 0)
(-2.02465 2.2709 -3.3338e-19)
(-2.02467 2.2713 1.66776e-19)
(-2.02471 2.27172 0)
(-2.02478 2.27216 8.34333e-20)
(-2.02487 2.27261 0)
(-2.02498 2.27307 -8.34531e-20)
(-2.02511 2.27355 -8.34683e-20)
(-2.31278 2.59535 -9.35222e-19)
(-2.31015 2.59238 1.2153e-18)
(-2.30737 2.58925 -1.9452e-21)
(-2.30444 2.58595 2.86824e-19)
(-2.30136 2.58248 0)
(-2.29813 2.57884 -5.44695e-19)
(-2.29475 2.57503 -5.29701e-19)
(-2.29122 2.57105 -1.28653e-18)
(-2.28754 2.56689 2.51257e-19)
(-2.2837 2.56257 -9.72979e-19)
(-2.27971 2.55807 -1.18076e-18)
(-2.27557 2.55339 -6.87814e-19)
(-2.27127 2.54855 0)
(-2.26682 2.54353 -2.15566e-19)
(-2.26221 2.53833 1.26128e-18)
(-2.25745 2.53297 -2.04993e-19)
(-2.25254 2.52743 7.92141e-19)
(-2.24747 2.52172 0)
(-2.24225 2.51584 8.11073e-24)
(-2.23688 2.50978 -7.23476e-19)
(-2.23136 2.50356 7.0175e-19)
(-2.22569 2.49717 -6.806e-19)
(-2.21987 2.49062 6.60023e-19)
(-2.2139 2.48391 -6.40022e-19)
(-2.20779 2.47703 0)
(-2.20154 2.47 0)
(-2.19515 2.46282 4.38441e-19)
(-2.18863 2.4555 1.42245e-19)
(-2.18204 2.44809 0)
(-2.1755 2.44076 -5.53958e-19)
(-2.16907 2.43355 0)
(-2.16276 2.42648 5.51348e-19)
(-2.15658 2.41956 -1.36743e-19)
(-2.15051 2.41278 -5.4835e-19)
(-2.14457 2.40615 2.75015e-19)
(-2.13876 2.39967 4.11787e-19)
(-2.13309 2.39334 0)
(-2.12754 2.38718 6.88401e-19)
(-2.12213 2.38117 -5.54203e-19)
(-2.11685 2.37532 -1.76314e-21)
(-2.11171 2.36963 5.53349e-19)
(-2.10671 2.36411 -5.5856e-19)
(-2.10185 2.35875 -2.79327e-19)
(-2.09713 2.35355 -4.1967e-19)
(-2.09255 2.34852 1.39856e-19)
(-2.08811 2.34365 -2.8267e-19)
(-2.08382 2.33896 -4.25029e-19)
(-2.07967 2.33443 -1.41763e-19)
(-2.07567 2.33007 1.29106e-18)
(-2.07181 2.32588 0)
(-2.0681 2.32186 2.89713e-19)
(-2.06454 2.31802 0)
(-2.06112 2.31434 2.92896e-19)
(-2.05786 2.31084 0)
(-2.05474 2.30751 0)
(-2.05177 2.30435 -4.46062e-19)
(-2.04895 2.30136 4.50478e-19)
(-2.04628 2.29854 7.49182e-20)
(-2.04376 2.29589 -9.07605e-22)
(-2.04138 2.29342 -3.81754e-19)
(-2.03914 2.2911 -3.06789e-19)
(-2.03705 2.28896 0)
(-2.0351 2.28697 2.80702e-23)
(-2.03329 2.28515 3.12059e-19)
(-2.03161 2.28349 7.79728e-20)
(-2.03006 2.28198 2.36116e-19)
(-2.02864 2.28062 0)
(-2.02734 2.2794 -2.39463e-19)
(-2.02616 2.27833 2.3968e-19)
(-2.0251 2.2774 -7.99423e-20)
(-2.02414 2.27659 8.12558e-20)
(-2.02328 2.27591 -8.15893e-20)
(-2.02252 2.27535 -8.1899e-20)
(-2.02185 2.2749 0)
(-2.02126 2.27455 0)
(-2.02074 2.2743 8.17919e-20)
(-2.0203 2.27413 1.64071e-19)
(-2.01993 2.27405 -9.54236e-22)
(-2.01961 2.27405 -1.66799e-19)
(-2.01935 2.27411 -9.55377e-22)
(-2.01914 2.27424 -1.66469e-19)
(-2.01897 2.27442 4.17282e-19)
(-2.01885 2.27465 1.66937e-19)
(-2.01876 2.27492 0)
(-2.0187 2.27523 1.67226e-19)
(-2.01868 2.27557 0)
(-2.01869 2.27594 1.37925e-23)
(-2.01872 2.27634 0)
(-2.01877 2.27675 8.32215e-20)
(-2.01885 2.27718 -9.44572e-22)
(-2.01895 2.27763 -8.36785e-20)
(-2.01908 2.27808 8.41396e-20)
(-2.01923 2.27855 1.66851e-19)
(-2.30557 2.60176 6.27528e-19)
(-2.30295 2.59879 -9.15869e-19)
(-2.30018 2.59565 2.98585e-19)
(-2.29726 2.59234 0)
(-2.29419 2.58886 0)
(-2.29097 2.58522 5.4887e-19)
(-2.2876 2.5814 0)
(-2.28408 2.5774 1.03879e-18)
(-2.28041 2.57324 1.01017e-18)
(-2.27658 2.5689 2.20882e-18)
(-2.2726 2.56439 -2.39629e-19)
(-2.26847 2.55971 0)
(-2.26419 2.55485 0)
(-2.25975 2.54982 8.75706e-19)
(-2.25516 2.54461 8.50527e-19)
(-2.25041 2.53923 2.05528e-19)
(-2.24552 2.53368 -1.00334e-18)
(-2.24046 2.52796 0)
(-2.23526 2.52206 7.93088e-24)
(-2.2299 2.51599 8.03761e-24)
(-2.2244 2.50976 -7.11513e-19)
(-2.21874 2.50335 1.71644e-19)
(-2.21294 2.49678 -8.38069e-19)
(-2.20699 2.49005 1.61464e-19)
(-2.2009 2.48316 -1.88255e-21)
(-2.19467 2.47611 -1.53728e-19)
(-2.1883 2.46891 -5.92743e-19)
(-2.1818 2.46157 -1.1491e-18)
(-2.17523 2.45415 -1.12947e-18)
(-2.16871 2.44679 0)
(-2.1623 2.43957 1.39458e-19)
(-2.15601 2.43248 -1.41007e-19)
(-2.14984 2.42554 0)
(-2.14379 2.41874 5.59047e-19)
(-2.13787 2.41209 -4.20054e-19)
(-2.13207 2.40559 -2.79498e-19)
(-2.12641 2.39925 2.79706e-19)
(-2.12088 2.39307 -7.01032e-19)
(-2.11549 2.38704 -5.6103e-19)
(-2.11023 2.38118 0)
(-2.1051 2.37547 -1.26724e-18)
(-2.10011 2.36993 1.42199e-19)
(-2.09527 2.36455 -1.40866e-19)
(-2.09056 2.35934 1.43151e-19)
(-2.08599 2.35429 -4.29291e-19)
(-2.08157 2.34941 -1.44279e-19)
(-2.07729 2.3447 1.00895e-18)
(-2.07315 2.34016 1.45558e-19)
(-2.06916 2.33579 -5.81425e-19)
(-2.06532 2.33158 0)
(-2.06162 2.32755 2.93624e-19)
(-2.05807 2.32369 -2.95162e-19)
(-2.05467 2.32 -2.96761e-19)
(-2.05142 2.31648 -1.48278e-19)
(-2.04831 2.31314 1.50917e-19)
(-2.04536 2.30996 3.01708e-19)
(-2.04255 2.30696 -1.52622e-19)
(-2.03989 2.30413 -4.58555e-19)
(-2.03737 2.30147 4.59296e-19)
(-2.035 2.29898 1.53337e-19)
(-2.03278 2.29665 3.10265e-19)
(-2.0307 2.29449 1.55048e-19)
(-2.02875 2.2925 1.55908e-19)
(-2.02695 2.29066 -1.56718e-19)
(-2.02528 2.28899 -1.57522e-19)
(-2.02374 2.28746 0)
(-2.02233 2.28609 -7.95526e-20)
(-2.02104 2.28486 -2.4072e-19)
(-2.01987 2.28378 3.23049e-19)
(-2.01881 2.28283 -8.06406e-20)
(-2.01786 2.28201 1.63859e-19)
(-2.01701 2.28131 8.2241e-20)
(-2.01625 2.28073 -8.1585e-20)
(-2.01558 2.28026 9.56107e-22)
(-2.015 2.2799 3.30384e-19)
(-2.0145 2.27963 -8.33126e-20)
(-2.01406 2.27946 0)
(-2.01369 2.27936 -8.27575e-20)
(-2.01338 2.27934 -8.29191e-20)
(-2.01313 2.27939 0)
(-2.01293 2.2795 1.67336e-19)
(-2.01277 2.27967 -1.6755e-19)
(-2.01265 2.27989 -8.3366e-20)
(-2.01258 2.28015 8.43798e-20)
(-2.01253 2.28044 1.67868e-19)
(-2.01252 2.28077 0)
(-2.01254 2.28113 1.67918e-19)
(-2.01258 2.28152 8.44142e-20)
(-2.01265 2.28192 4.7554e-22)
(-2.01274 2.28235 -4.72135e-22)
(-2.01285 2.28279 -2.51559e-19)
(-2.01299 2.28324 8.47606e-20)
(-2.01315 2.28371 8.42564e-20)
(-2.29813 2.60834 -1.26114e-18)
(-2.29552 2.60536 0)
(-2.29276 2.60222 0)
(-2.28985 2.5989 5.81095e-19)
(-2.28679 2.59541 -5.69733e-19)
(-2.28358 2.59176 -2.77355e-19)
(-2.28022 2.58793 -5.37998e-19)
(-2.27671 2.58393 5.23523e-19)
(-2.27305 2.57975 -1.52798e-18)
(-2.26924 2.57541 -9.88856e-19)
(-2.26527 2.57088 4.81751e-19)
(-2.26115 2.56619 -2.35162e-19)
(-2.25688 2.56132 -9.10573e-19)
(-2.25246 2.55628 1.10521e-18)
(-2.24788 2.55106 -1.0758e-18)
(-2.24315 2.54566 1.04321e-18)
(-2.23827 2.5401 -2.03807e-19)
(-2.23323 2.53436 7.87962e-19)
(-2.22804 2.52845 7.65112e-19)
(-2.22271 2.52237 7.7493e-24)
(-2.21722 2.51611 0)
(-2.21158 2.50969 5.25849e-19)
(-2.20579 2.50311 -5.08437e-19)
(-2.19987 2.49636 0)
(-2.19379 2.48945 0)
(-2.18758 2.48238 1.54168e-19)
(-2.18123 2.47517 -1.51457e-19)
(-2.17475 2.4678 1.44994e-19)
(-2.1682 2.46036 8.60765e-19)
(-2.1617 2.45299 1.43979e-19)
(-2.15531 2.44574 0)
(-2.14903 2.43864 0)
(-2.14288 2.43167 -4.27207e-19)
(-2.13685 2.42486 -1.4288e-19)
(-2.13095 2.41819 7.08574e-19)
(-2.12517 2.41168 -2.83828e-19)
(-2.11953 2.40532 -5.66178e-19)
(-2.11401 2.39911 8.52945e-19)
(-2.10863 2.39307 9.95739e-19)
(-2.10339 2.38719 0)
(-2.09828 2.38147 5.71976e-19)
(-2.09331 2.37591 -5.73506e-19)
(-2.08847 2.37051 -1.42908e-19)
(-2.08378 2.36528 1.45203e-19)
(-2.07923 2.36022 5.79311e-19)
(-2.07482 2.35533 0)
(-2.07055 2.3506 -7.29078e-19)
(-2.06643 2.34604 8.79777e-19)
(-2.06245 2.34165 -1.48209e-19)
(-2.05862 2.33743 1.48904e-19)
(-2.05494 2.33339 -5.93075e-19)
(-2.0514 2.32951 4.49338e-19)
(-2.04801 2.32581 1.49324e-19)
(-2.04477 2.32228 -1.51942e-19)
(-2.04168 2.31892 1.50907e-19)
(-2.03873 2.31573 -1.5356e-19)
(-2.03594 2.31271 0)
(-2.03329 2.30987 3.08589e-19)
(-2.03079 2.3072 -3.10249e-19)
(-2.02843 2.30469 -2.4757e-23)
(-2.02621 2.30235 -3.13535e-19)
(-2.02414 2.30018 0)
(-2.02221 2.29817 -1.57461e-19)
(-2.02042 2.29632 3.18394e-19)
(-2.01876 2.29463 3.19966e-19)
(-2.01723 2.29309 3.21479e-19)
(-2.01582 2.29171 -1.62429e-19)
(-2.01454 2.29047 3.2441e-19)
(-2.01338 2.28937 -4.89608e-19)
(-2.01233 2.2884 -9.61709e-22)
(-2.01138 2.28757 0)
(-2.01054 2.28686 1.6474e-19)
(-2.00979 2.28626 -1.65289e-19)
(-2.00913 2.28578 1.65796e-19)
(-2.00855 2.2854 -3.32539e-19)
(-2.00805 2.28512 -2.49543e-19)
(-2.00763 2.28493 8.4014e-20)
(-2.00727 2.28482 1.67386e-19)
(-2.00696 2.28479 1.67685e-19)
(-2.00672 2.28482 0)
(-2.00652 2.28492 -8.45414e-20)
(-2.00638 2.28507 -1.68238e-19)
(-2.00627 2.28528 8.46492e-20)
(-2.0062 2.28552 0)
(-2.00617 2.28581 -3.3682e-19)
(-2.00616 2.28613 1.68384e-19)
(-2.00619 2.28648 8.36905e-20)
(-2.00625 2.28686 -1.69219e-19)
(-2.00633 2.28725 -4.71233e-22)
(-2.00643 2.28767 1.6805e-19)
(-2.00656 2.28811 0)
(-2.00671 2.28855 -8.3907e-20)
(-2.00688 2.28902 8.33865e-20)
(-2.29045 2.6151 6.33243e-19)
(-2.28785 2.61211 6.15361e-19)
(-2.2851 2.60896 -6.03679e-19)
(-2.2822 2.60563 5.84339e-19)
(-2.27915 2.60214 -5.73169e-19)
(-2.27595 2.59847 1.11068e-18)
(-2.2726 2.59463 -1.97246e-21)
(-2.2691 2.59062 1.05477e-18)
(-2.26546 2.58644 5.11335e-19)
(-2.26166 2.58208 1.36658e-24)
(-2.2577 2.57755 -1.33999e-24)
(-2.2536 2.57284 7.06047e-19)
(-2.24934 2.56796 6.88494e-19)
(-2.24493 2.5629 -1.56512e-18)
(-2.24037 2.55767 -1.08702e-18)
(-2.23565 2.55226 -8.44416e-19)
(-2.23079 2.54668 0)
(-2.22577 2.54093 -9.95502e-19)
(-2.2206 2.535 1.94526e-21)
(-2.21527 2.5289 1.69319e-18)
(-2.2098 2.52264 0)
(-2.20418 2.5162 -1.76319e-19)
(-2.19842 2.5096 1.73101e-19)
(-2.19251 2.50283 -1.66122e-19)
(-2.18645 2.4959 1.93851e-21)
(-2.18026 2.48882 1.58394e-19)
(-2.17393 2.48158 -6.11155e-19)
(-2.16747 2.4742 1.18559e-18)
(-2.16094 2.46674 -1.44738e-19)
(-2.15446 2.45934 1.46228e-19)
(-2.14809 2.45208 7.23265e-19)
(-2.14183 2.44495 -7.23521e-19)
(-2.1357 2.43797 1.15421e-18)
(-2.12969 2.43114 -5.76478e-19)
(-2.1238 2.42445 -7.19286e-19)
(-2.11805 2.41792 5.78041e-19)
(-2.11242 2.41154 8.64712e-19)
(-2.10692 2.40532 -7.22217e-19)
(-2.10156 2.39926 -5.77844e-19)
(-2.09633 2.39335 0)
(-2.09124 2.38762 0)
(-2.08628 2.38204 5.81641e-19)
(-2.08146 2.37663 -4.3839e-19)
(-2.07679 2.37138 -1.47209e-19)
(-2.07225 2.3663 -5.87184e-19)
(-2.06786 2.36139 -4.42947e-19)
(-2.0636 2.35665 -2.95856e-19)
(-2.0595 2.35207 -4.44737e-19)
(-2.05553 2.34767 0)
(-2.05171 2.34344 -1.50803e-19)
(-2.04804 2.33937 6.00449e-19)
(-2.04452 2.33548 -3.02592e-19)
(-2.04114 2.33177 1.52967e-19)
(-2.03792 2.32822 0)
(-2.03484 2.32485 -1.54499e-19)
(-2.03191 2.32165 -4.64006e-19)
(-2.02912 2.31862 0)
(-2.02648 2.31576 -4.66906e-19)
(-2.02399 2.31307 4.71178e-19)
(-2.02165 2.31055 -3.15108e-19)
(-2.01944 2.3082 3.16694e-19)
(-2.01738 2.30602 -1.58176e-19)
(-2.01546 2.30399 1.60845e-19)
(-2.01368 2.30213 -3.21302e-19)
(-2.01203 2.30043 -6.456e-19)
(-2.01051 2.29888 1.63065e-19)
(-2.00911 2.29748 1.63775e-19)
(-2.00784 2.29622 1.6253e-19)
(-2.00669 2.29511 1.63192e-19)
(-2.00564 2.29413 -1.61211e-23)
(-2.0047 2.29328 -1.65313e-19)
(-2.00387 2.29256 -1.65868e-19)
(-2.00313 2.29195 1.65405e-19)
(-2.00247 2.29145 -5.00451e-19)
(-2.00191 2.29106 6.68913e-19)
(-2.00141 2.29076 -3.35174e-19)
(-2.00099 2.29055 1.93973e-21)
(-2.00064 2.29043 -5.92167e-24)
(-2.00035 2.29038 -1.69388e-19)
(-2.00011 2.2904 8.38147e-20)
(-1.99992 2.29049 8.38766e-20)
(-1.99978 2.29063 8.39249e-20)
(-1.99968 2.29082 1.67889e-19)
(-1.99962 2.29105 -8.49106e-20)
(-1.9996 2.29133 1.68828e-19)
(-1.99961 2.29164 -3.37494e-19)
(-1.99965 2.29198 0)
(-1.99971 2.29235 1.68507e-19)
(-1.9998 2.29274 8.41787e-20)
(-1.99992 2.29315 -1.67726e-19)
(-2.00006 2.29358 8.40155e-20)
(-2.00022 2.29402 -8.39332e-20)
(-2.0004 2.29449 4.67465e-22)
(-2.28253 2.62203 -1.27306e-18)
(-2.27993 2.61903 0)
(-2.27719 2.61587 0)
(-2.2743 2.61254 -5.89235e-19)
(-2.27126 2.60904 -5.74293e-19)
(-2.26807 2.60536 0)
(-2.26474 2.60151 -5.45157e-19)
(-2.26125 2.59749 -1.06192e-18)
(-2.25762 2.5933 -5.15031e-19)
(-2.25383 2.58893 -2.00934e-18)
(-2.24989 2.58438 1.47165e-18)
(-2.2458 2.57966 -1.90684e-18)
(-2.24156 2.57477 1.38937e-18)
(-2.23716 2.5697 1.35138e-18)
(-2.23261 2.56445 6.46123e-24)
(-2.22792 2.55903 0)
(-2.22306 2.55344 0)
(-2.21806 2.54767 0)
(-2.21291 2.54173 0)
(-2.2076 2.53561 -5.71826e-19)
(-2.20215 2.52933 -1.85837e-19)
(-2.19655 2.52288 0)
(-2.1908 2.51626 6.97595e-19)
(-2.18491 2.50947 1.68381e-19)
(-2.17888 2.50253 -1.65442e-19)
(-2.17271 2.49542 6.38743e-19)
(-2.1664 2.48817 6.20172e-19)
(-2.15996 2.48076 -1.20345e-18)
(-2.15345 2.47328 1.46942e-19)
(-2.14699 2.46587 4.4144e-19)
(-2.14064 2.45858 -1.03156e-23)
(-2.1344 2.45144 4.41016e-19)
(-2.12829 2.44443 2.92833e-19)
(-2.1223 2.43758 4.37806e-19)
(-2.11643 2.43087 5.84635e-19)
(-2.11069 2.42432 -7.29757e-19)
(-2.10508 2.41792 1.47133e-19)
(-2.0996 2.41168 0)
(-2.09426 2.4056 0)
(-2.08905 2.39968 0)
(-2.08397 2.39393 0)
(-2.07903 2.38833 7.36004e-19)
(-2.07423 2.3829 4.42447e-19)
(-2.06957 2.37764 7.40225e-19)
(-2.06505 2.37254 -1.49627e-19)
(-2.06067 2.36762 5.96999e-19)
(-2.05643 2.36286 0)
(-2.05234 2.35827 -1.4947e-19)
(-2.04839 2.35385 1.51959e-19)
(-2.04459 2.3496 1.50746e-19)
(-2.04093 2.34552 -4.58016e-19)
(-2.03742 2.34161 -3.06106e-19)
(-2.03406 2.33788 0)
(-2.03085 2.33432 -1.53567e-19)
(-2.02778 2.33093 4.66709e-19)
(-2.02486 2.32772 1.56964e-19)
(-2.02209 2.32468 4.71244e-19)
(-2.01946 2.3218 2.21988e-23)
(-2.01699 2.3191 -7.90557e-19)
(-2.01465 2.31657 4.78129e-19)
(-2.01246 2.31421 1.58866e-19)
(-2.01041 2.31201 -4.82645e-19)
(-2.0085 2.30997 1.60344e-19)
(-2.00673 2.30809 3.22142e-19)
(-2.00509 2.30638 1.93637e-23)
(-2.00358 2.30481 -1.98257e-23)
(-2.00219 2.3034 -9.51596e-24)
(-2.00093 2.30213 1.93359e-21)
(-1.99978 2.301 3.31522e-19)
(-1.99875 2.30001 -1.65853e-19)
(-1.99782 2.29915 1.6638e-19)
(-1.99699 2.29841 0)
(-1.99626 2.29779 5.00951e-19)
(-1.99561 2.29728 -1.94743e-21)
(-1.99505 2.29687 -5.05195e-19)
(-1.99457 2.29656 -1.67396e-19)
(-1.99415 2.29634 1.69627e-19)
(-1.99381 2.2962 1.68883e-19)
(-1.99352 2.29614 1.68071e-19)
(-1.99329 2.29614 -1.71106e-19)
(-1.99311 2.29621 -3.39464e-19)
(-1.99298 2.29634 -1.69267e-19)
(-1.99289 2.29652 -1.29933e-23)
(-1.99284 2.29674 0)
(-1.99283 2.29701 -1.68142e-19)
(-1.99284 2.29731 3.38918e-19)
(-1.99289 2.29764 0)
(-1.99297 2.298 -1.6864e-19)
(-1.99307 2.29838 -1.68436e-19)
(-1.99319 2.29879 -8.41113e-20)
(-1.99334 2.29921 1.67541e-19)
(-1.99351 2.29966 -1.68275e-19)
(-1.99371 2.30011 -1.42998e-25)
(-2.27434 2.62914 1.99775e-21)
(-2.27176 2.62614 -6.18013e-19)
(-2.26902 2.62297 1.21358e-18)
(-2.26615 2.61963 5.89816e-19)
(-2.26312 2.61611 5.77065e-19)
(-2.25994 2.61243 -5.60553e-19)
(-2.25662 2.60857 -5.44283e-19)
(-2.25315 2.60454 5.36237e-19)
(-2.24952 2.60033 -1.04089e-18)
(-2.24575 2.59595 2.02757e-18)
(-2.24182 2.59139 1.47875e-18)
(-2.23775 2.58666 4.78526e-19)
(-2.23352 2.58176 4.65693e-19)
(-2.22914 2.57667 -1.36736e-18)
(-2.22461 2.57141 1.77118e-18)
(-2.21993 2.56598 -4.28725e-19)
(-2.21509 2.56037 4.20881e-19)
(-2.21011 2.55459 8.14631e-19)
(-2.20497 2.54863 -3.94001e-19)
(-2.19969 2.5425 3.86909e-19)
(-2.19425 2.5362 -7.48204e-19)
(-2.18867 2.52972 0)
(-2.18294 2.52309 5.30832e-19)
(-2.17707 2.51628 1.72578e-19)
(-2.17106 2.50932 -6.6672e-19)
(-2.16491 2.5022 -6.47622e-19)
(-2.15862 2.49492 6.29013e-19)
(-2.1522 2.4875 1.37269e-18)
(-2.14571 2.47999 -1.51104e-19)
(-2.13927 2.47256 1.48641e-19)
(-2.13295 2.46525 -7.46882e-19)
(-2.12673 2.45808 0)
(-2.12064 2.45106 -5.94138e-19)
(-2.11467 2.44418 7.40726e-19)
(-2.10882 2.43746 4.43714e-19)
(-2.1031 2.43089 0)
(-2.09751 2.42447 -1.47267e-19)
(-2.09205 2.41821 2.96646e-19)
(-2.08672 2.41211 -1.49437e-19)
(-2.08153 2.40617 4.47074e-19)
(-2.07647 2.4004 1.89212e-21)
(-2.07155 2.39479 -5.95397e-19)
(-2.06676 2.38934 2.99392e-19)
(-2.06212 2.38406 -7.51555e-19)
(-2.05761 2.37895 7.51994e-19)
(-2.05325 2.374 -1.52029e-19)
(-2.04903 2.36922 1.50683e-19)
(-2.04495 2.36462 -1.53138e-19)
(-2.04102 2.36018 6.11176e-19)
(-2.03723 2.35592 -3.06841e-19)
(-2.03359 2.35182 -1.53128e-19)
(-2.0301 2.3479 4.6519e-19)
(-2.02675 2.34416 0)
(-2.02355 2.34058 -1.55187e-19)
(-2.0205 2.33718 1.57801e-19)
(-2.01759 2.33395 0)
(-2.01483 2.33089 -3.1662e-19)
(-2.01222 2.32801 6.36144e-19)
(-2.00976 2.32529 1.60737e-19)
(-2.00744 2.32275 -4.80519e-19)
(-2.00526 2.32037 1.60247e-19)
(-2.00322 2.31816 1.60971e-19)
(-2.00132 2.31611 -3.25214e-19)
(-1.99956 2.31422 0)
(-1.99793 2.31249 -1.62979e-19)
(-1.99643 2.31091 1.65552e-19)