/*--------------------------------*- C++ -*----------------------------------*\
  =========                 |
  \\      /  F ield         | OpenFOAM: The Open Source CFD Toolbox
   \\    /   O peration     | Website:  https://openfoam.org
    \\  /    A nd           | Version:  10
     \\/     M anipulation  |
\*---------------------------------------------------------------------------*/
FoamFile
{
    format      ascii;
    class       volScalarField;
    location    "3000";
    object      Co;
}
// * * * * * * * * * * * * * * * * * * * * * * * * * * * * * * * * * * * * * //

dimensions      [0 0 0 0 0 0 0];

internalField   nonuniform List<scalar> 
17922
(
319.17
313.76
308.386
303.042
297.727
292.437
287.17
281.923
276.693
271.477
266.273
261.077
255.887
250.7
245.512
240.32
235.12
229.909
224.679
219.427
214.15
208.844
203.505
198.129
192.71
187.244
181.726
176.15
170.626
165.246
159.988
154.851
149.836
144.943
140.172
135.525
131.001
126.602
122.328
118.179
114.156
110.26
106.491
102.85
99.3333
95.9362
92.6549
89.4881
86.4353
83.4959
80.6688
77.9529
75.3469
72.8502
70.4631
68.1862
66.0199
63.9638
62.0202
60.1867
58.4526
56.8085
55.2525
53.7871
52.4146
51.1376
50.0424
49.3884
49.0982
48.9111
48.8283
48.8544
48.9917
49.2384
49.5961
50.0692
50.6626
51.3815
52.2361
53.2428
54.4082
55.7498
57.2942
58.9447
60.4753
61.7818
62.8781
63.7567
64.8324
66.0277
66.7989
66.9969
66.664
310.014
304.758
299.538
294.347
289.185
284.047
278.931
273.835
268.755
263.69
258.636
253.591
248.551
243.515
238.478
233.438
228.39
223.329
218.252
213.154
208.032
202.882
197.701
192.485
187.227
181.925
176.572
171.163
165.806
160.591
155.494
150.514
145.652
140.909
136.284
131.779
127.394
123.13
118.988
114.967
111.068
107.293
103.641
100.114
96.7075
93.4174
90.2399
87.1736
84.2176
81.3713
78.6336
76.003
73.4783
71.0585
68.7433
66.5334
64.4293
62.4304
60.5406
58.7592
57.075
55.4783
53.967
52.5427
51.2073
49.9629
48.9376
48.3407
48.0502
47.8592
47.7702
47.7843
47.9009
48.1186
48.4388
48.8643
49.3994
50.0501
50.8247
51.7286
52.7537
53.9179
55.2566
56.7266
58.1985
59.5526
60.6748
61.4416
62.309
63.5306
64.3949
64.447
63.7679
301.119
296.014
290.943
285.902
280.887
275.896
270.928
265.978
261.045
256.125
251.217
246.318
241.425
236.535
231.645
226.752
221.852
216.94
212.011
207.062
202.09
197.092
192.064
187.002
181.901
176.757
171.564
166.317
161.122
156.066
151.125
146.298
141.584
136.986
132.502
128.135
123.884
119.751
115.735
111.837
108.058
104.399
100.859
97.4398
94.1381
90.9491
87.8696
84.8977
82.0325
79.2732
76.6186
74.0673
71.6178
69.2691
67.0211
64.8751
62.8318
60.891
59.0574
57.332
55.7024
54.1574
52.6933
51.3114
50.0138
48.8028
47.8548
47.3229
47.0353
46.8453
46.7529
46.756
46.8539
47.0458
47.3322
47.7144
48.1957
48.7781
49.4634
50.2498
51.127
52.1069
53.2068
54.3937
55.5967
56.7186
57.6097
58.6411
60.1697
61.6808
62.6244
62.8636
62.2586
292.48
287.52
282.594
277.697
272.826
267.979
263.152
258.345
253.553
248.776
244.009
239.252
234.5
229.753
225.006
220.256
215.499
210.73
205.946
201.142
196.316
191.465
186.585
181.673
176.723
171.732
166.694
161.605
156.567
151.666
146.876
142.196
137.627
133.169
128.823
124.589
120.469
116.462
112.57
108.792
105.13
101.583
98.1529
94.8392
91.6394
88.5493
85.5655
82.6859
79.9097
77.2357
74.6629
72.1897
69.8149
67.5374
65.3572
63.2757
61.2936
59.4108
57.6323
55.9605
54.3825
52.8842
51.4617
50.1164
48.8508
47.6672
46.7985
46.3396
46.0603
45.8739
45.779
45.7727
45.8542
46.0226
46.2773
46.6187
47.048
47.5653
48.1691
48.8545
49.6144
50.4589
51.394
52.3898
53.3882
54.3026
55.0116
56.0738
57.7671
59.348
60.3576
60.7284
60.3349
284.087
279.269
274.484
269.727
264.996
260.287
255.599
250.929
246.276
241.636
237.006
232.386
227.772
223.163
218.554
213.943
209.324
204.695
200.051
195.389
190.704
185.996
181.26
176.493
171.69
166.847
161.96
157.022
152.137
147.385
142.742
138.205
133.776
129.454
125.241
121.138
117.144
113.26
109.488
105.827
102.278
98.8409
95.5172
92.3061
89.2054
86.2114
83.3205
80.5308
77.841
75.2502
72.7572
70.3605
68.0589
65.8513
63.7377
61.7191
59.7957
57.9677
56.2395
54.615
53.0843
51.6292
50.2455
48.9351
47.7001
46.5428
45.7682
45.3982
45.1268
44.9431
44.8451
44.8299
44.896
45.0419
45.2665
45.569
45.949
46.4047
46.9331
47.5289
48.187
48.912
49.703
50.5323
51.3473
52.0746
52.6257
53.5047
55.0886
56.7027
57.7861
58.217
57.924
275.934
271.255
266.606
261.985
257.389
252.815
248.261
243.726
239.205
234.698
230.203
225.716
221.235
216.759
212.285
207.808
203.324
198.83
194.322
189.797
185.25
180.68
176.083
171.457
166.796
162.098
157.356
152.566
147.828
143.222
138.72
134.322
130.028
125.839
121.755
117.777
113.906
110.142
106.486
102.938
99.4984
96.1681
92.9472
89.8355
86.8309
83.9297
81.1288
78.4259
75.8199
73.3096
70.8938
68.5712
66.3404
64.2006
62.1512
60.1926
58.3249
56.5483
54.8674
53.2875
51.8022
50.3893
49.0431
47.7662
46.5608
45.508
44.8439
44.4971
44.2334
44.0521
43.951
43.9274
43.979
44.104
44.3004
44.5664
44.9002
45.2989
45.7584
46.2731
46.8384
47.4535
48.1125
48.7897
49.4397
50.0018
50.4029
50.985
52.3161
53.9213
55.0528
55.5605
55.3499
268.015
263.469
258.953
254.464
249.999
245.556
241.133
236.727
232.336
227.959
223.592
219.234
214.884
210.538
206.193
201.846
197.494
193.131
188.755
184.361
179.948
175.513
171.052
166.562
162.039
157.48
152.879
148.232
143.637
139.171
134.807
130.543
126.381
122.319
118.361
114.505
110.752
107.104
103.561
100.122
96.7891
93.5618
90.4405
87.425
84.5132
81.7019
78.9878
76.3689
73.8438
71.4113
69.0702
66.8192
64.6569
62.5822
60.5943
58.6932
56.8786
55.1511
53.5154
51.978
50.5351
49.1632
47.8536
46.6092
45.4322
44.5088
43.9701
43.6353
43.3791
43.2004
43.0968
43.0656
43.1041
43.2098
43.3803
43.6129
43.9047
44.2519
44.6496
45.0923
45.5743
46.0913
46.6335
47.1772
47.683
48.0987
48.3589
48.5374
49.4774
51.0243
52.1702
52.741
52.6041
260.322
255.906
251.519
247.158
242.821
238.504
234.207
229.928
225.663
221.41
217.169
212.937
208.712
204.492
200.274
196.053
191.827
187.592
183.343
179.079
174.796
170.49
166.161
161.803
157.415
152.99
148.527
144.018
139.562
135.232
131
126.867
122.831
118.894
115.056
111.318
107.681
104.145
100.711
97.378
94.1478
91.0201
87.9953
85.0728
82.2508
79.5262
76.8962
74.3584
71.9115
69.5542
67.2852
65.1033
63.007
60.9948
59.0659
57.2198
55.4563
53.7762
52.1841
50.6872
49.2835
47.9507
46.6764
45.4633
44.3139
43.5335
43.1347
42.8117
42.5631
42.3874
42.2821
42.2443
42.2712
42.3598
42.5071
42.7098
42.9642
43.266
43.6097
43.9895
44.3988
44.8306
45.273
45.7034
46.0872
46.3781
46.5171
46.4298
46.839
48.0246
49.1379
49.7347
49.648
252.849
248.558
244.297
240.061
235.847
231.654
227.48
223.322
219.179
215.048
210.929
206.818
202.715
198.618
194.522
190.424
186.321
182.209
178.084
173.945
169.787
165.609
161.406
157.177
152.918
148.625
144.295
139.921
135.598
131.4
127.297
123.289
119.376
115.559
111.839
108.215
104.69
101.262
97.9333
94.7033
91.5726
88.5413
85.6097
82.7772
80.0421
77.4015
74.8526
72.3932
70.0218
67.737
65.5377
63.4223
61.3893
59.4373
57.565
55.7719
54.0576
52.4233
50.8735
49.4151
48.0479
46.7517
45.5113
44.3283
43.3406
42.7197
42.3366
42.0254
41.7846
41.6125
41.5063
41.4633
41.4803
41.5541
41.6813
41.858
42.0801
42.3428
42.6404
42.9666
43.3141
43.6742
44.0338
44.3713
44.6557
44.8454
44.8873
44.7163
44.4657
44.9557
45.9886
46.5727
46.5056
245.59
241.421
237.282
233.166
229.072
224.999
220.943
216.904
212.879
208.867
204.865
200.873
196.888
192.91
188.933
184.954
180.97
176.977
172.973
168.955
164.919
160.863
156.785
152.68
148.547
144.382
140.18
135.936
131.744
127.673
123.694
119.808
116.015
112.314
108.707
105.194
101.776
98.4537
95.227
92.0963
89.0619
86.1239
83.2825
80.537
77.8858
75.3263
72.8558
70.4721
68.1735
65.9588
63.8264
61.7751
59.803
57.9088
56.091
54.3489
52.6822
51.0922
49.583
48.1614
46.8285
45.5664
44.358
43.2039
42.3905
41.9422
41.5746
41.2754
41.0428
40.8749
40.7691
40.7223
40.7315
40.793
40.9032
41.0582
41.2533
41.4835
41.7429
42.0251
42.3221
42.6243
42.9181
43.1832
43.3913
43.5052
43.4778
43.2522
42.765
42.4026
42.7428
43.271
43.1878
238.538
234.488
230.467
226.468
222.491
218.533
214.593
210.669
206.759
202.861
198.974
195.096
191.227
187.363
183.502
179.638
175.769
171.893
168.006
164.105
160.187
156.251
152.292
148.309
144.298
140.256
136.179
132.062
127.995
124.048
120.19
116.422
112.743
109.155
105.658
102.252
98.9386
95.7178
92.59
89.5553
86.614
83.7663
81.012
78.3507
75.7807
73.2996
70.9048
68.5941
66.3657
64.2184
62.1505
60.1607
58.2473
56.4086
54.6433
52.9504
51.3297
49.7824
48.3124
46.926
45.6255
44.395
43.2168
42.2422
41.6182
41.1998
40.8477
40.5606
40.3368
40.174
40.0697
40.0209
40.0242
40.0763
40.1731
40.3106
40.4841
40.6885
40.9179
41.1655
41.4234
41.6816
41.9265
42.1392
42.2944
42.3589
42.2915
42.0433
41.56
40.7873
40.0405
39.8607
39.7135
231.687
227.754
223.846
219.961
216.097
212.252
208.424
204.612
200.813
197.026
193.25
189.483
185.726
181.974
178.224
174.472
170.715
166.952
163.178
159.391
155.588
151.767
147.925
144.059
140.167
136.245
132.289
128.294
124.35
120.522
116.781
113.126
109.559
106.08
102.689
99.3873
96.175
93.0526
90.0204
87.0786
84.2274
81.4669
78.797
76.217
73.7255
71.3201
68.9983
66.758
64.5973
62.5149
60.5091
58.5786
56.7215
54.9363
53.2215
51.5761
49.9998
48.4937
47.0614
45.7089
44.4392
43.2378
42.1282
41.3552
40.891
40.4912
40.1548
39.8802
39.6657
39.509
39.4076
39.3584
39.3582
39.4036
39.4906
39.6151
39.7724
39.9576
40.1647
40.3873
40.6173
40.8448
41.0571
41.2368
41.3614
41.4019
41.3228
41.0822
40.6333
39.9273
38.9186
37.5128
36.2742
225.033
221.211
217.415
213.641
209.886
206.15
202.431
198.727
195.036
191.357
187.688
184.03
180.38
176.737
173.095
169.452
165.804
162.15
158.486
154.81
151.118
147.409
143.68
139.928
136.151
132.345
128.506
124.631
120.805
117.092
113.464
109.921
106.461
103.088
99.7996
96.598
93.4835
90.4563
87.5166
84.6647
81.9007
79.2245
76.6361
74.1347
71.7189
69.3866
67.1352
64.9628
62.8673
60.8474
58.9015
57.0279
55.2251
53.4914
51.8252
50.2256
48.6921
47.2257
45.8298
44.51
43.2695
42.0954
41.198
40.6393
40.1965
39.8153
39.4946
39.233
39.0284
38.8789
38.7817
38.734
38.7327
38.7743
38.855
38.9708
39.1174
39.2897
39.4822
39.6886
39.9013
40.1111
40.3059
40.4703
40.5847
40.6241
40.5585
40.352
39.9643
39.3507
38.4613
37.1961
35.3603
218.57
214.857
211.168
207.5
203.852
200.222
196.608
193.009
189.423
185.849
182.285
178.731
175.186
171.648
168.111
164.573
161.031
157.483
153.926
150.357
146.773
143.173
139.554
135.912
132.247
128.553
124.829
121.069
117.358
113.757
110.238
106.802
103.447
100.175
96.9866
93.8822
90.8623
87.9271
85.077
82.312
79.6322
77.0376
74.5279
72.1024
69.7598
67.498
65.3146
63.2075
61.1749
59.2152
57.3268
55.5081
53.7576
52.0734
50.4541
48.8986
47.4064
45.9783
44.6174
43.3291
42.1166
41.1106
40.4364
39.9551
39.5335
39.1708
38.8661
38.6178
38.424
38.2826
38.1912
38.1469
38.1467
38.1873
38.2653
38.3767
38.5175
38.6829
38.868
39.0666
39.2719
39.4754
39.6663
39.8311
39.9528
40.0106
39.9788
39.827
39.5194
39.0129
38.2504
37.1319
35.4733
212.291
208.683
205.099
201.535
197.99
194.463
190.952
187.454
183.97
180.497
177.034
173.582
170.139
166.703
163.268
159.833
156.393
152.948
149.494
146.029
142.551
139.056
135.543
132.009
128.451
124.867
121.254
117.606
114.006
110.513
107.1
103.767
100.514
97.3405
94.2484
91.2379
88.3095
85.4634
82.6998
80.0188
77.4205
74.9047
72.4711
70.119
67.847
65.6532
63.5353
61.4913
59.5192
57.6174
55.7845
54.0186
52.3183
50.6819
49.1077
47.5947
46.1423
44.7512
43.4242
42.1662
41.0525
40.2756
39.7595
39.3013
38.9006
38.5566
38.268
38.0335
37.8513
37.7192
37.6348
37.5957
37.5989
37.6414
37.72
37.831
37.9707
38.1349
38.3189
38.5174
38.724
38.9313
39.1299
39.3081
39.4515
39.5425
39.5593
39.4753
39.2578
38.8637
38.2318
37.2647
35.7992
206.192
202.686
199.203
195.74
192.295
188.868
185.456
182.058
178.672
175.298
171.933
168.58
165.235
161.898
158.562
155.226
151.886
148.54
145.187
141.823
138.446
135.054
131.644
128.214
124.761
121.284
117.778
114.239
110.747
107.358
104.048
100.815
97.6594
94.5818
91.5829
88.6634
85.8234
83.0635
80.3836
77.7839
75.2642
72.8245
70.4644
68.1832
65.9794
63.8512
61.7965
59.8131
57.8993
56.0534
54.2738
52.5588
50.9069
49.3163
47.7856
46.3136
44.8995
43.5442
42.2499
41.0331
40.1547
39.6042
39.1124
38.6768
38.2967
37.9712
37.6991
37.4789
37.309
37.1872
37.1114
37.0792
37.088
37.135
37.2172
37.3315
37.4744
37.6424
37.8311
38.0361
38.2516
38.4713
38.6871
38.8891
39.065
39.1999
39.2749
39.266
39.1422
38.8608
38.3606
37.5529
36.3244
214.159
210.645
207.159
203.7
200.267
196.86
193.475
190.11
186.763
183.432
180.117
176.815
173.525
170.246
166.978
163.719
160.471
157.229
153.989
150.749
147.506
144.257
141.001
137.735
134.457
131.164
127.854
124.525
121.175
117.8
114.398
110.965
107.577
104.29
101.079
97.943
94.8821
91.897
88.9883
86.1567
83.4024
80.7257
78.1268
75.6055
73.162
70.7958
68.5067
66.2938
64.1558
62.0909
60.0971
58.1723
56.3146
54.5225
52.7942
51.1282
49.5228
47.9765
46.4876
45.0549
43.6779
42.357
41.0944
40.1201
39.4869
38.9617
38.4935
38.08
37.7203
37.4134
37.158
36.9527
36.7957
36.6853
36.6194
36.5958
36.6121
36.666
36.7547
36.8756
37.0257
37.2017
37.4003
37.6173
37.8482
38.0873
38.3279
38.5617
38.7783
38.9648
39.1046
39.1761
39.1502
38.9871
38.6333
38.0223
37.1004
208.006
204.593
201.207
197.846
194.51
191.199
187.91
184.64
181.388
178.151
174.93
171.721
168.525
165.339
162.163
158.997
155.841
152.692
149.545
146.398
143.249
140.095
136.933
133.762
130.579
127.383
124.17
120.939
117.688
114.413
111.113
107.781
104.495
101.306
98.1913
95.149
92.1797
89.2841
86.4627
83.7161
81.0446
78.4485
75.9278
73.4824
71.1123
68.8172
66.5966
64.4497
62.3752
60.3714
58.4362
56.5678
54.7643
53.0239
51.345
49.7261
48.1656
46.6618
45.2131
43.8185
42.4771
41.1896
40.1365
39.4136
38.8475
38.347
37.9017
37.5098
37.1703
36.8819
36.6434
36.4534
36.3102
36.2121
36.1573
36.1437
36.1695
36.2324
36.3302
36.4606
36.6211
36.8091
37.0217
37.2555
37.5069
37.7711
38.0427
38.3146
38.5782
38.8226
39.0335
39.1919
39.273
39.2443
39.0671
38.7053
38.1577
202.029
198.714
195.424
192.159
188.918
185.7
182.504
179.326
176.166
173.021
169.891
166.773
163.667
160.571
157.486
154.409
151.343
148.284
145.227
142.171
139.112
136.049
132.98
129.901
126.811
123.708
120.59
117.454
114.299
111.121
107.918
104.686
101.498
98.4044
95.3824
92.4309
89.5504
86.7413
84.0043
81.34
78.7486
76.2303
73.7852
71.4132
69.1141
66.8875
64.7331
62.6499
60.6366
58.6917
56.8131
54.999
53.2475
51.557
49.9257
48.3522
46.8348
45.3719
43.962
42.6039
41.297
40.1826
39.3852
38.7747
38.2352
37.7584
37.3354
36.9648
36.6452
36.3754
36.154
35.9797
35.8508
35.7659
35.7233
35.7213
35.7581
35.8319
35.941
36.0834
36.2573
36.4604
36.6906
36.9453
37.2214
37.5155
37.8229
38.1383
38.4545
38.7628
39.0515
39.306
39.5075
39.6347
39.668
39.6043
39.4894
206.052
202.747
199.471
196.223
193.002
189.806
186.634
183.486
180.359
177.253
174.165
171.094
168.038
164.996
161.966
158.948
155.94
152.942
149.953
146.973
144
141.032
138.063
135.093
132.118
129.138
126.149
123.149
120.137
117.11
114.066
111.004
107.921
104.813
101.677
98.5839
95.5825
92.6504
89.7868
86.9921
84.2667
81.6114
79.0267
76.5127
74.0697
71.6976
69.3964
67.1659
65.0056
62.915
60.8932
58.9391
57.0509
55.2269
53.4651
51.7638
50.1212
48.5358
47.0059
45.53
44.1065
42.7339
41.4111
40.2501
39.3944
38.7428
38.162
37.6481
37.1941
36.7931
36.4435
36.1437
35.8925
35.6884
35.5301
35.4162
35.3453
35.3158
35.3265
35.3758
35.4622
35.5845
35.7412
35.9308
36.1518
36.4027
36.6815
36.9861
37.3139
37.6617
38.0252
38.3995
38.7779
39.1526
39.514
39.852
40.1589
40.4375
40.719
41.0983
200.13
196.92
193.738
190.583
187.454
184.349
181.268
178.209
175.17
172.152
169.151
166.167
163.197
160.241
157.297
154.364
151.442
148.528
145.623
142.727
139.839
136.955
134.072
131.187
128.299
125.404
122.502
119.59
116.665
113.727
110.773
107.802
104.81
101.794
98.7522
95.7507
92.8383
89.9932
87.2147
84.503
81.8587
79.2824
76.7745
74.3354
71.9651
69.6637
67.4309
65.2665
63.1702
61.1412
59.1788
57.2816
55.4482
53.6767
51.9654
50.3123
48.716
47.1746
45.6868
44.2509
42.8653
41.5287
40.3333
39.433
38.7457
38.1258
37.5732
37.0841
36.6525
36.2733
35.9444
35.6644
35.4318
35.2452
35.1033
35.0048
34.9485
34.9331
34.9575
35.0205
35.1211
35.2582
35.431
35.6385
35.8798
36.1539
36.4597
36.7961
37.1613
37.5534
37.97
38.4079
38.8636
39.3334
39.8144
40.3067
40.8188
41.3785
42.0552
42.998
194.377
191.259
188.168
185.104
182.064
179.048
176.055
173.083
170.13
167.197
164.281
161.381
158.495
155.623
152.762
149.912
147.072
144.241
141.418
138.603
135.796
132.995
130.194
127.392
124.587
121.776
118.958
116.131
113.292
110.44
107.573
104.689
101.786
98.8601
95.9085
92.9961
90.1698
87.409
84.7128
82.0814
79.5154
77.0155
74.582
72.2153
69.9153
67.6821
65.5154
63.415
61.3803
59.4108
57.5056
55.6634
53.8828
52.1619
50.4991
48.8926
47.3408
45.8419
44.3945
42.9971
41.6481
40.4285
39.495
38.7759
38.1216
37.5321
37.0064
36.5416
36.1323
35.7746
35.4663
35.206
34.992
34.823
34.6978
34.6152
34.5741
34.5735
34.6125
34.6903
34.8062
34.9597
35.1502
35.3775
35.6411
35.9408
36.2764
36.6476
37.0538
37.4946
37.9691
38.4769
39.0177
39.5931
40.2079
40.8744
41.6197
42.5005
43.6286
45.2093
188.788
185.76
182.759
179.783
176.83
173.9
170.991
168.104
165.235
162.385
159.551
156.732
153.928
151.137
148.357
145.587
142.827
140.076
137.333
134.598
131.87
129.147
126.426
123.705
120.981
118.251
115.515
112.77
110.014
107.246
104.463
101.664
98.8466
96.0078
93.144
90.318
87.5751
84.8958
82.2792
79.7255
77.2354
74.8093
72.4478
70.1509
67.9189
65.7516
63.6487
61.61
59.6349
57.7228
55.8728
54.0836
52.3539
50.6818
49.0658
47.5042
45.9951
44.5372
43.1288
41.7685
40.5336
39.5763
38.8281
38.1429
37.5203
36.9596
36.4601
36.0193
35.6322
35.2958
35.008
34.7672
34.5718
34.4206
34.3123
34.2459
34.2205
34.2354
34.2898
34.3834
34.5158
34.6868
34.8966
35.1453
35.4332
35.7609
36.1289
36.538
36.989
37.4828
38.021
38.6055
39.2405
39.9334
40.6985
41.562
42.5727
43.8197
45.4587
47.7397
183.361
180.42
177.505
174.614
171.746
168.899
166.074
163.268
160.48
157.71
154.957
152.218
149.493
146.78
144.079
141.387
138.705
136.032
133.366
130.708
128.056
125.41
122.766
120.123
117.477
114.826
112.169
109.504
106.829
104.141
101.44
98.7239
95.9899
93.2354
90.4569
87.7145
85.0523
82.4518
79.9122
77.4338
75.017
72.6623
70.3703
68.141
65.9746
63.871
61.8298
59.8506
57.933
56.0763
54.2795
52.5415
50.8608
49.2358
47.665
46.1464
44.6787
43.2602
41.8895
40.6467
39.6737
38.8982
38.1847
37.532
36.9394
36.4065
35.9329
35.5156
35.1508
34.8357
34.5683
34.347
34.1702
34.0368
33.9455
33.8957
33.8865
33.9173
33.9879
34.0981
34.2479
34.4378
34.6682
34.9399
35.2541
35.612
36.0151
36.4655
36.9653
37.5173
38.1252
38.7944
39.5339
40.3582
41.2924
42.3792
43.6915
45.3514
47.5497
50.5444
178.089
175.233
172.402
169.594
166.808
164.042
161.297
158.571
155.862
153.171
150.495
147.833
145.185
142.549
139.923
137.308
134.702
132.104
129.513
126.93
124.352
121.78
119.211
116.643
114.073
111.499
108.919
106.331
103.733
101.125
98.503
95.8667
93.2136
90.5409
87.8451
85.1837
82.5995
80.0753
77.6103
75.2046
72.8587
70.5731
68.3483
66.1844
64.0814
62.0392
60.0575
58.1358
56.2738
54.4705
52.725
51.0364
49.403
47.8234
46.296
44.8192
43.3913
42.0108
40.7666
39.7845
38.9832
38.243
37.5625
36.9406
36.3769
35.8714
35.4234
35.0297
34.687
34.3932
34.1461
33.9442
33.786
33.6704
33.5965
33.5634
33.5707
33.6181
33.7055
33.8331
34.0013
34.2111
34.4635
34.76
35.1024
35.4928
35.9341
36.4293
36.9824
37.598
38.2826
39.0455
39.9012
40.8727
41.9972
43.3356
44.9851
47.0936
49.8591
53.4799
172.97
170.195
167.446
164.718
162.011
159.325
156.658
154.009
151.377
148.762
146.161
143.575
141.001
138.44
135.888
133.347
130.814
128.289
125.772
123.261
120.755
118.255
115.758
113.263
110.767
108.267
105.761
103.248
100.726
98.1937
95.649
93.0904
90.5157
87.9223
85.3066
82.7238
80.215
77.7647
75.3718
73.0364
70.7591
68.5403
66.3804
64.2797
62.2379
60.2551
58.3309
56.4648
54.6563
52.9046
51.2087
49.5676
47.9799
46.4442
44.9587
43.5221
42.1327
40.8923
39.9066
39.0805
38.3148
37.6082
36.959
36.3667
35.8315
35.3535
34.9308
34.5606
34.2401
33.9674
33.7405
33.5579
33.4183
33.3206
33.2641
33.248
33.2722
33.3366
33.4414
33.5872
33.7748
34.0057
34.2815
34.6044
34.977
35.4026
35.8851
36.4291
37.0401
37.7253
38.4942
39.3606
40.3453
41.4808
42.8175
44.4335
46.4444
49.003
52.2632
56.2765
167.998
165.303
162.632
159.983
157.354
154.744
152.153
149.579
147.022
144.48
141.954
139.44
136.939
134.449
131.97
129.5
127.039
124.585
122.139
119.698
117.263
114.833
112.406
109.981
107.555
105.127
102.694
100.254
97.8049
95.3463
92.8761
90.3928
87.8942
85.3776
82.8397
80.3329
77.8972
75.5183
73.1952
70.9279
68.7169
66.5627
64.4656
62.4258
60.4433
58.5179
56.6492
54.8367
53.0799
51.3779
49.73
48.1348
46.5912
45.0978
43.6529
42.2551
41.0226
40.0379
39.1879
38.3979
37.6663
36.9914
36.3725
35.8096
35.3032
34.8523
34.4546
34.1076
33.8093
33.5575
33.3507
33.1873
33.0662
32.9865
32.9474
32.9487
32.9901
33.072
33.1948
33.3596
33.5676
33.8207
34.1213
34.4724
34.8774
35.3408
35.8678
36.4644
37.1385
37.8994
38.7605
39.7405
40.8672
42.1825
43.7491
45.6573
48.0247
50.9704
54.5368
58.5504
163.17
160.552
157.958
155.384
152.83
150.295
147.778
145.277
142.792
140.323
137.867
135.425
132.994
130.575
128.166
125.765
123.373
120.989
118.611
116.239
113.873
111.51
109.151
106.794
104.437
102.078
99.7145
97.3449
94.9673
92.5803
90.1825
87.7721
85.3473
82.9052
80.4426
78.0095
75.6444
73.3346
71.079
68.8776
66.7307
64.639
62.6026
60.6218
58.6965
56.8265
55.0114
53.2507
51.5439
49.89
48.2883
46.7376
45.2366
43.784
42.3783
41.1569
40.1764
39.3037
38.4902
37.7346
37.0353
36.3912
35.8024
35.2694
34.7915
34.367
33.9939
33.6701
33.3936
33.1627
32.9758
32.8316
32.729
32.6673
32.6459
32.6647
32.7238
32.8236
32.9651
33.1496
33.3789
33.6555
33.9824
34.3634
34.803
35.3069
35.8815
36.5349
37.2767
38.1195
39.0802
40.1829
41.4622
42.9683
44.7713
46.9613
49.6293
52.8094
56.3687
59.8662
158.482
155.939
153.419
150.919
148.438
145.975
143.529
141.1
138.686
136.286
133.9
131.526
129.164
126.813
124.472
122.139
119.815
117.497
115.186
112.881
110.581
108.285
105.991
103.7
101.409
99.1173
96.8216
94.5202
92.2115
89.8939
87.5661
85.2265
82.8731
80.5032
78.1138
75.7519
73.4552
71.2123
69.022
66.8842
64.7994
62.7681
60.7904
58.8667
56.9967
55.1802
53.4169
51.7063
50.0477
48.4404
46.8833
45.3756
43.9158
42.5028
41.2945
40.3206
39.4259
38.5899
37.8112
37.0884
36.4204
35.8072
35.2491
34.7456
34.2955
33.897
33.5482
33.2473
32.9925
32.7822
32.6151
32.49
32.406
32.3624
32.3589
32.3955
32.4726
32.5909
32.7518
32.9568
33.2085
33.5097
33.8643
34.277
34.7533
35.3001
35.9254
36.639
37.4528
38.3824
39.4486
40.6802
42.1173
43.8142
45.8391
48.2608
51.106
54.2738
57.4242
59.9351
153.93
151.459
149.012
146.583
144.173
141.78
139.404
137.044
134.698
132.366
130.048
127.741
125.446
123.161
120.886
118.619
116.36
114.107
111.861
109.621
107.385
105.153
102.925
100.697
98.4709
96.2434
94.0129
91.7776
89.5355
87.2852
85.0252
82.7541
80.47
78.1701
75.8515
73.5587
71.3281
69.1499
67.0228
64.9467
62.9219
60.949
59.0281
57.1595
55.343
53.5783
51.8651
50.2029
48.591
47.0286
45.5148
44.0486
42.6383
41.4445
40.4686
39.5528
38.6953
37.8945
37.149
36.4581
35.8217
35.2399
34.7123
34.2377
33.8147
33.4416
33.1167
32.8384
32.6051
32.4154
32.268
32.162
32.0966
32.0713
32.0859
32.1406
32.2362
32.3736
32.5544
32.7808
33.0557
33.3828
33.7665
34.2124
34.7273
35.3192
35.9976
36.774
37.6628
38.6822
39.8563
41.2173
42.8072
44.6773
46.8787
49.4321
52.2632
55.1121
57.4804
58.7457
149.51
147.11
144.733
142.374
140.032
137.708
135.399
133.106
130.827
128.561
126.308
124.067
121.836
119.616
117.404
115.201
113.006
110.817
108.634
106.457
104.284
102.114
99.9478
97.7831
95.6189
93.454
91.2868
89.1153
86.9377
84.7525
82.5582
80.3534
78.1364
75.9044
73.6544
71.4285
69.2619
67.1463
65.0803
63.0638
61.0972
59.1808
57.3149
55.4995
53.7347
52.0202
50.3554
48.74
47.1732
45.6543
44.1824
42.7935
41.615
40.6193
39.6831
38.8048
37.9828
37.2156
36.5028
35.8443
35.24
34.6895
34.1915
33.745
33.3484
33.0002
32.6989
32.4429
32.2309
32.0616
31.934
31.8471
31.8003
31.7934
31.8264
31.8997
32.0141
32.1711
32.3726
32.6212
32.9204
33.2743
33.6883
34.1689
34.7237
35.3622
36.0951
36.9356
37.9001
39.0088
40.288
41.77
43.4934
45.4954
47.7911
50.3264
52.9047
55.1242
56.4686
56.3843
145.219
142.888
140.579
138.287
136.013
133.754
131.512
129.283
127.069
124.867
122.678
120.5
118.332
116.174
114.025
111.884
109.75
107.623
105.502
103.385
101.273
99.1647
97.0589
94.9548
92.8514
90.7473
88.6412
86.5315
84.4163
82.2942
80.1635
78.0229
75.8708
73.7045
71.521
69.3599
67.2552
65.2002
63.1934
61.2347
59.3243
57.4626
55.6498
53.8861
52.1713
50.5052
48.8874
47.3172
45.7942
44.3174
42.9494
41.7857
40.7712
39.8154
38.9171
38.0747
37.2869
36.5531
35.8734
35.2477
34.6752
34.155
33.6859
33.2666
32.8958
32.5721
32.2939
32.0601
31.8692
31.7203
31.6123
31.5446
31.5167
31.5284
31.5801
31.6723
31.8061
31.9833
32.2061
32.4777
32.8018
33.1835
33.6287
34.1448
34.7405
35.426
36.2135
37.1174
38.1554
39.3487
40.7229
42.3067
44.127
46.1938
48.468
50.8063
52.8823
54.2737
54.4909
53.1427
141.053
138.79
136.546
134.32
132.111
129.917
127.738
125.573
123.421
121.282
119.154
117.038
114.931
112.834
110.745
108.665
106.591
104.523
102.462
100.405
98.3518
96.3024
94.2556
92.2105
90.1661
88.1211
86.0744
84.0245
81.9698
79.9086
77.8396
75.7612
73.6719
71.5692
69.4501
67.3518
65.3071
63.3107
61.3612
59.4583
57.6023
55.7936
54.0323
52.3185
50.6522
49.033
47.4606
45.9343
44.4536
43.1053
41.9553
40.9228
39.9485
39.0308
38.1687
37.3612
36.6075
35.9076
35.2614
34.668
34.1264
33.6357
33.1946
32.8019
32.4563
32.1565
31.9012
31.6892
31.5194
31.3908
31.3025
31.2541
31.2452
31.2759
31.3465
31.458
31.6117
31.8096
32.0544
32.3495
32.6993
33.1094
33.5864
34.1383
34.7747
35.5066
36.347
37.3112
38.4168
39.6844
41.1356
42.7899
44.6535
46.6966
48.8127
50.7566
52.1502
52.6181
51.7295
49.4343
137.011
134.812
132.633
130.47
128.323
126.192
124.075
121.971
119.881
117.802
115.735
113.678
111.631
109.593
107.563
105.54
103.525
101.516
99.5116
97.5124
95.5171
93.5252
91.5357
89.5479
87.5608
85.5733
83.5843
81.5924
79.5962
77.5942
75.5849
73.5668
71.5383
69.4973
67.4406
65.403
63.4163
61.4767
59.5827
57.7339
55.9306
54.1731
52.4617
50.7963
49.1769
47.6032
46.0748
44.5911
43.2606
42.1223
41.0726
40.0806
39.1447
38.2637
37.4372
36.6646
35.9456
35.2797
34.6662
34.1043
33.5928
33.1306
32.7167
32.3499
32.029
31.7528
31.5201
31.3298
31.1808
31.0724
31.0039
30.9749
30.9853
31.0351
31.1252
31.2564
31.4304
31.6495
31.9167
32.2358
32.6117
33.0504
33.5591
34.1465
34.8224
35.5986
36.4883
37.5066
38.67
39.9956
41.4976
43.1799
45.0194
46.9363
48.7515
50.1563
50.7954
50.3124
48.5321
45.7083
133.087
130.952
128.834
126.733
124.648
122.577
120.52
118.476
116.445
114.425
112.416
110.417
108.428
106.447
104.474
102.509
100.55
98.5971
96.6494
94.7062
92.7669
90.8307
88.897
86.9648
85.0334
83.1018
81.1688
79.2333
77.2939
75.3492
73.3979
71.4382
69.4688
67.4874
65.4912
63.5125
61.5821
59.6974
57.8571
56.0608
54.3086
52.6008
50.9376
49.3192
47.7453
46.2157
44.73
43.4144
42.285
41.2194
40.2104
39.2571
38.3585
37.5139
36.7232
35.9859
35.3014
34.6688
34.0873
33.5558
33.0734
32.639
32.2516
31.91
31.6133
31.3603
31.1498
30.9809
30.8528
30.7646
30.716
30.7065
30.7363
30.8056
30.9153
31.0666
31.2613
31.502
31.792
32.1353
32.5374
33.0045
33.5442
34.1655
34.8787
35.6953
36.6281
37.691
38.8974
40.2583
41.776
43.4324
45.1679
46.8496
48.2419
49.0199
48.8566
47.5597
45.2452
42.2816
131.373
129.279
127.205
125.148
123.106
121.08
119.068
117.07
115.084
113.11
111.148
109.196
107.253
105.32
103.395
101.478
99.5678
97.664
95.7658
93.8727
91.984
90.099
88.217
86.3374
84.4594
82.5821
80.7047
78.8262
76.9454
75.0611
73.172
71.2767
69.3738
67.4617
65.5382
63.6008
61.6793
59.8034
57.972
56.1838
54.4383
52.7357
51.0761
49.4598
47.8869
46.3572
44.883
43.5789
42.4417
41.3612
40.3365
39.3668
38.4515
37.5901
36.7822
36.0276
35.3253
34.6745
34.0743
33.5236
33.0217
32.5674
32.1599
31.7983
31.4814
31.2084
30.9781
30.7896
30.642
30.5345
30.4666
30.4378
30.448
30.4974
30.5864
30.7161
30.8877
31.1034
31.3659
31.6787
32.0462
32.474
32.9687
33.538
34.1908
34.9373
35.7884
36.7556
37.8499
39.0798
40.4467
41.9366
43.5043
45.0502
46.3956
47.2804
47.3886
46.5136
44.6798
42.1515
39.3413
127.616
125.583
123.568
121.57
119.587
117.619
115.664
113.723
111.793
109.875
107.968
106.071
104.184
102.305
100.435
98.5713
96.7148
94.8643
93.0194
91.1794
89.3435
87.5113
85.682
83.855
82.0296
80.2049
78.3802
76.5545
74.7268
72.896
71.0609
69.22
67.3721
65.5156
63.6484
61.7681
59.9024
58.0795
56.2999
54.5623
52.8663
51.2117
49.599
48.0283
46.4996
45.0381
43.7407
42.5909
41.4966
40.4574
39.4725
38.5415
37.6644
36.8407
36.0695
35.3504
34.6822
34.0641
33.4951
32.9743
32.5009
32.0739
31.6926
31.356
31.0632
30.8133
30.6054
30.4386
30.312
30.2251
30.1773
30.1684
30.1984
30.2675
30.3764
30.5261
30.7183
30.955
31.2393
31.5747
31.966
32.4187
32.9394
33.5358
34.2165
34.9909
35.8686
36.8586
37.9679
39.1973
40.5362
41.9506
43.3663
44.6423
45.5717
45.9076
45.4016
44.0106
41.9071
39.4305
36.9579
123.971
121.996
120.04
118.099
116.173
114.26
112.361
110.475
108.6
106.737
104.884
103.041
101.207
99.3807
97.5627
95.7518
93.9474
92.149
90.3557
88.5672
86.7828
85.0018
83.2237
81.4478
79.6734
77.8999
76.1263
74.352
72.5759
70.797
69.0142
67.2262
65.4317
63.6292
61.8167
59.992
58.1806
56.4097
54.6806
52.9923
51.3443
49.7367
48.1695
46.6431
45.1884
43.892
42.7308
41.6242
40.5716
39.573
38.628
37.7363
36.8976
36.1111
35.3759
34.6911
34.0559
33.4693
32.9304
32.4384
31.9926
31.5921
31.2361
30.9239
30.6545
30.4273
30.2413
30.0958
29.99
29.9234
29.8957
29.9066
29.9563
30.0452
30.1739
30.3438
30.5564
30.814
31.1198
31.4773
31.8913
32.3673
32.9117
33.5319
34.2355
35.0308
35.9252
36.9243
38.0291
39.2313
40.5055
41.7962
43.0005
43.9527
44.445
44.2566
43.2625
41.5616
39.4187
37.1697
120.433
118.516
116.616
114.731
112.86
111.002
109.157
107.325
105.503
103.693
101.892
100.101
98.3186
96.5442
94.7774
93.0174
91.2637
89.5157
87.7727
86.0342
84.2997
82.5685
80.8401
79.1138
77.3891
75.6652
73.9414
72.2169
70.4909
68.7624
67.0303
65.2936
63.5509
61.8008
60.0414
58.2708
56.5126