/*--------------------------------*- C++ -*----------------------------------*\
  =========                 |
  \\      /  F ield         | OpenFOAM: The Open Source CFD Toolbox
   \\    /   O peration     | Website:  https://openfoam.org
    \\  /    A nd           | Version:  10
     \\/     M anipulation  |
\*---------------------------------------------------------------------------*/
FoamFile
{
    format      ascii;
    class       volScalarField;
    location    "3000";
    object      k;
}
// * * * * * * * * * * * * * * * * * * * * * * * * * * * * * * * * * * * * * //

dimensions      [0 2 -2 0 0 0 0];

internalField   nonuniform List<scalar> 
17922
(
0.00765575
0.00743389
0.00721614
0.00700243
0.00679272
0.00658698
0.00638518
0.00618728
0.00599323
0.00580302
0.00561658
0.0054339
0.00525494
0.00507967
0.00490807
0.00474016
0.00457591
0.00441522
0.004258
0.0041042
0.00395378
0.00380672
0.00366302
0.00352261
0.00338546
0.00325151
0.0031207
0.00299301
0.00286915
0.0027502
0.00263644
0.00252761
0.0024234
0.00232357
0.0022279
0.0021362
0.00204829
0.00196401
0.00188323
0.0018058
0.00173159
0.00166051
0.00159243
0.00152726
0.00146483
0.00140499
0.0013476
0.00129255
0.00123976
0.00118913
0.00114059
0.00109406
0.00104947
0.00100678
0.000965938
0.000926942
0.000889656
0.000853934
0.000819779
0.000787165
0.000755997
0.000726132
0.000697443
0.000669839
0.000643257
0.000617635
0.000592913
0.000569038
0.000545984
0.000523662
0.000501956
0.000480749
0.000459921
0.000439347
0.000418912
0.000398497
0.000377986
0.000357275
0.000336314
0.000315224
0.000294002
0.00027133
0.000244708
0.000213636
0.000180749
0.000149469
0.000121846
9.86374e-05
8.01045e-05
6.61394e-05
5.59684e-05
4.88157e-05
4.38869e-05
0.00764616
0.00742433
0.00720659
0.00699289
0.0067832
0.0065775
0.00637575
0.00617791
0.00598395
0.00579383
0.00560751
0.00542497
0.00524616
0.00507108
0.0048997
0.00473204
0.00456807
0.00440769
0.00425076
0.00409724
0.0039471
0.00380033
0.00365692
0.00351682
0.00337999
0.00324638
0.00311592
0.00298858
0.00286508
0.00274648
0.00263307
0.00252459
0.00242072
0.00232123
0.00222589
0.00213451
0.00204691
0.00196293
0.00188242
0.00180525
0.00173129
0.00166042
0.00159254
0.00152753
0.00146525
0.00140554
0.00134827
0.00129332
0.0012406
0.00119003
0.00114153
0.00109502
0.00105043
0.00100771
0.000966816
0.000927702
0.000890273
0.000854432
0.000820192
0.000787544
0.00075638
0.000726518
0.000697799
0.000670139
0.000643485
0.000617783
0.000592977
0.000569032
0.000545955
0.000523653
0.00050196
0.00048076
0.000459968
0.000439479
0.000419185
0.000398975
0.000378744
0.000358397
0.000337879
0.000317217
0.000296466
0.000274617
0.000249585
0.000220816
0.00019013
0.000159712
0.000131301
0.000106341
8.58931e-05
7.03719e-05
5.90194e-05
5.09696e-05
4.54829e-05
0.00763756
0.0074157
0.00719795
0.00698426
0.0067746
0.00656894
0.00636724
0.00616947
0.00597559
0.00578557
0.00559937
0.00541696
0.00523832
0.00506342
0.00489227
0.00472486
0.00456117
0.00440105
0.00424438
0.00409113
0.00394126
0.00379478
0.00365165
0.00351185
0.00337533
0.00324203
0.0031119
0.0029849
0.00286173
0.00274346
0.00263038
0.00252222
0.00241867
0.00231949
0.00222445
0.00213336
0.00204604
0.00196233
0.00188207
0.00180513
0.00173139
0.00166071
0.001593
0.00152813
0.00146598
0.00140638
0.0013492
0.00129433
0.00124168
0.00119115
0.00114267
0.00109616
0.00105156
0.00100878
0.000967794
0.000928535
0.000890934
0.000854946
0.000820609
0.000787945
0.000756824
0.000726996
0.00069826
0.000670547
0.000643825
0.000618049
0.000593167
0.000569152
0.000545988
0.000523592
0.000501838
0.000480617
0.000459841
0.000439411
0.000419226
0.000399184
0.000379188
0.000359147
0.00033899
0.000318664
0.000298032
0.000276417
0.000252634
0.000226213
0.000197977
0.000169105
0.000141025
0.000115258
9.32245e-05
7.57413e-05
6.26758e-05
5.3387e-05
4.71146e-05
0.00762963
0.00740776
0.00719001
0.00697633
0.0067667
0.00656108
0.00635944
0.00616173
0.00596794
0.00577802
0.00559194
0.00540967
0.00523119
0.00505649
0.00488557
0.00471844
0.004555
0.0043951
0.00423867
0.00408567
0.00393608
0.00378987
0.00364702
0.00350751
0.00337128
0.0032383
0.00310848
0.0029818
0.00285895
0.002741
0.00262823
0.00252036
0.00241711
0.00231822
0.00222346
0.00213265
0.00204559
0.00196212
0.00188209
0.00180537
0.00173181
0.0016613
0.00159374
0.001529
0.00146696
0.00140745
0.00135035
0.00129553
0.00124291
0.00119241
0.00114393
0.0010974
0.00105275
0.0010099
0.000968806
0.000929411
0.000891665
0.000855554
0.000821154
0.000788524
0.000757417
0.000727534
0.000698747
0.000670984
0.000644203
0.00061836
0.000593407
0.000569325
0.000546081
0.000523601
0.000501785
0.000480535
0.000459762
0.000439376
0.000419282
0.000399385
0.000379592
0.000359813
0.00033996
0.000319931
0.000299526
0.000278252
0.000255396
0.000230632
0.000204453
0.000177302
0.000149919
0.00012404
0.000101357
8.25792e-05
6.79293e-05
5.72651e-05
4.99977e-05
0.00762238
0.0074005
0.00718275
0.0069691
0.00675949
0.00655392
0.00635233
0.0061547
0.00596099
0.00577117
0.00558521
0.00540309
0.00522478
0.00505028
0.00487961
0.00471274
0.00454951
0.00438983
0.00423362
0.00408087
0.00393153
0.00378558
0.00364301
0.00350378
0.00336785
0.00323516
0.00310564
0.00297927
0.00285673
0.00273907
0.00262659
0.00251902
0.00241604
0.00231742
0.00222293
0.00213237
0.00204555
0.0019623
0.00188249
0.00180595
0.00173257
0.00166222
0.00159479
0.00153016
0.0014682
0.00140877
0.00135172
0.00129695
0.00124435
0.00119385
0.00114535
0.00109878
0.00105407
0.00101115
0.000969948
0.000930434
0.000892569
0.000856351
0.000821858
0.000789185
0.000758074
0.000728163
0.000699331
0.000671515
0.000644671
0.000618758
0.00059373
0.000569576
0.000546254
0.000523695
0.000501816
0.00048053
0.000459753
0.000439398
0.000419378
0.000399603
0.000379984
0.000360428
0.000340838
0.000321086
0.000300963
0.000280102
0.000258049
0.000234579
0.000209906
0.000184403
0.000158511
0.000133219
0.000110108
9.02859e-05
7.42588e-05
6.22139e-05
5.38609e-05
0.00761581
0.00739392
0.00717618
0.00696255
0.00675298
0.00654745
0.00634592
0.00614836
0.00595474
0.00576503
0.00557919
0.00539721
0.00521908
0.00504479
0.00487438
0.00470773
0.0045447
0.00438521
0.00422924
0.00407671
0.00392762
0.00378193
0.00363962
0.00350066
0.003365
0.0032326
0.00310338
0.0029773
0.00285505
0.00273768
0.00262547
0.00251817
0.00241545
0.00231708
0.00222284
0.0021325
0.00204591
0.00196287
0.00188325
0.00180689
0.00173366
0.00166344
0.00159613
0.00153159
0.00146971
0.00141033
0.00135332
0.00129858
0.00124599
0.00119547
0.00114694
0.00110033
0.00105555
0.00101254
0.000971247
0.000931627
0.000893652
0.000857326
0.000822723
0.000789937
0.000758785
0.000728867
0.000699993
0.00067212
0.000645211
0.000619222
0.000594121
0.000569894
0.000546493
0.000523859
0.000501918
0.000480592
0.000459804
0.00043947
0.00041951
0.000399838
0.000380367
0.000361006
0.00034165
0.000322165
0.000302354
0.000281939
0.000260616
0.000238225
0.000214863
0.00019076
0.00016625
0.000141966
0.000119062
9.87269e-05
8.16772e-05
6.83906e-05
5.89086e-05
0.00760991
0.00738802
0.0071703
0.00695669
0.00674716
0.00654167
0.00634021
0.00614273
0.0059492
0.00575959
0.00557388
0.00539205
0.0052141
0.00504003
0.00486985
0.0047034
0.00454055
0.00438127
0.0042255
0.00407321
0.00392435
0.0037789
0.00363685
0.00349815
0.00336276
0.00323062
0.00310168
0.00297587
0.0028539
0.0027368
0.00262486
0.0025178
0.00241533
0.00231719
0.00222317
0.00213305
0.00204666
0.00196381
0.00188436
0.00180815
0.00173506
0.00166497
0.00159775
0.00153329
0.00147146
0.00141213
0.00135515
0.00130041
0.00124781
0.00119727
0.0011487
0.00110203
0.00105718
0.00101409
0.000972702
0.000932979
0.000894894
0.00085845
0.000823719
0.000790797
0.000759576
0.000729641
0.000700723
0.000672792
0.000645813
0.000619746
0.000594572
0.000570271
0.000546794
0.000524087
0.000502085
0.000480718
0.000459912
0.000439592
0.00041968
0.000400094
0.000380751
0.00036156
0.000342416
0.000323188
0.000303699
0.000283733
0.000263078
0.000241624
0.000219416
0.00019661
0.000173444
0.00015034
0.000128055
0.00010771
9.00818e-05
7.58456e-05
6.53549e-05
0.0076047
0.00738281
0.00716511
0.00695152
0.00674203
0.0065366
0.0063352
0.0061378
0.00594436
0.00575487
0.00556929
0.00538761
0.00520983
0.005036
0.00486602
0.00469974
0.00453707
0.00437799
0.00422242
0.00407034
0.00392171
0.0037765
0.00363468
0.00349623
0.00336109
0.00322922
0.00310054
0.00297499
0.00285328
0.00273643
0.00262473
0.0025179
0.00241566
0.00231774
0.00222392
0.002134
0.00204778
0.0019651
0.00188581
0.00180974
0.00173677
0.00166677
0.00159964
0.00153524
0.00147345
0.00141414
0.00135717
0.00130243
0.00124981
0.00119923
0.00115061
0.00110388
0.00105896
0.00101578
0.000974299
0.000934473
0.000896274
0.000859704
0.000824833
0.000791765
0.000760456
0.000730485
0.000701517
0.000673523
0.00064647
0.000620324
0.000595079
0.000570703
0.000547152
0.000524375
0.000502313
0.000480904
0.000460078
0.000439764
0.000419889
0.000400376
0.000381144
0.000362103
0.000343153
0.000324168
0.000304996
0.000285465
0.000265421
0.000244791
0.000223607
0.000201981
0.00018009
0.000158228
0.000136869
0.000116917
9.91455e-05
8.43141e-05
7.30364e-05
0.00760016
0.00737829
0.00716061
0.00694706
0.00673761
0.00653224
0.0063309
0.00613358
0.00594024
0.00575085
0.0055654
0.00538388
0.0052063
0.00503267
0.00486287
0.00469675
0.00453426
0.00437536
0.00421999
0.00406812
0.0039197
0.00377471
0.00363313
0.00349491
0.00336001
0.00322838
0.00309994
0.00297464
0.00285317
0.00273656
0.00262508
0.00251847
0.00241642
0.0023187
0.00222507
0.00213532
0.00204927
0.00196674
0.00188758
0.00181163
0.00173876
0.00166885
0.00160178
0.00153742
0.00147566
0.00141636
0.00135938
0.00130462
0.00125197
0.00120135
0.00115267
0.00110587
0.00106086
0.0010176
0.000976025
0.000936092
0.000897773
0.000861073
0.00082606
0.000792843
0.000761426
0.000731395
0.000702369
0.000674305
0.000647172
0.000620953
0.000595635
0.000571185
0.00054756
0.000524716
0.000502596
0.000481144
0.000460295
0.000439983
0.000420138
0.000400686
0.00038155
0.000362643
0.00034387
0.000325114
0.000306246
0.000287125
0.00026764
0.000247744
0.000227469
0.000206911
0.000186209
0.000165577
0.00014535
0.000126103
0.000108562
9.34501e-05
8.1592e-05
0.00759631
0.00737446
0.0071568
0.00694329
0.00673389
0.00652858
0.00632731
0.00613007
0.00593683
0.00574756
0.00556224
0.00538087
0.00520348
0.00503004
0.0048604
0.00469444
0.00453212
0.00437339
0.00421821
0.00406653
0.00391832
0.00377354
0.00363217
0.00349417
0.0033595
0.0032281
0.00309989
0.00297481
0.00285356
0.00273717
0.0026259
0.00251948
0.00241762
0.00232007
0.00222661
0.00213701
0.0020511
0.00196871
0.00188966
0.00181381
0.00174102
0.00167118
0.00160415
0.00153983
0.00147807
0.00141877
0.00136177
0.00130698
0.00125428
0.0012036
0.00115486
0.00110798
0.0010629
0.00101954
0.000977864
0.000937818
0.000899377
0.000862545
0.000827392
0.000794029
0.000762484
0.000732366
0.000703273
0.000675132
0.000647917
0.000621625
0.000596234
0.000571709
0.000548014
0.000525103
0.000502928
0.000481433
0.00046056
0.000440245
0.000420423
0.000401023
0.00038197
0.000363184
0.000344572
0.000326031
0.000307448
0.00028871
0.000269735
0.000250496
0.000231033
0.000211437
0.000191829
0.00017238
0.000153349
0.000135137
0.000118186
0.000103071
9.08454e-05
0.00759314
0.00737132
0.00715369
0.00694023
0.00673088
0.00652563
0.00632444
0.00612728
0.00593413
0.00574497
0.00555978
0.00537856
0.00520136
0.00502809
0.0048586
0.00469279
0.00453063
0.00437207
0.00421706
0.00406557
0.00391755
0.00377297
0.00363181
0.00349401
0.00335955
0.00322836
0.00310037
0.00297549
0.00285445
0.00273825
0.00262717
0.00252093
0.00241923
0.00232184
0.00222852
0.00213906
0.00205327
0.00197098
0.00189203
0.00181626
0.00174354
0.00167374
0.00160675
0.00154243
0.00148067
0.00142135
0.00136432
0.00130948
0.00125673
0.00120599
0.00115717
0.00111021
0.00106503
0.00102158
0.000979798
0.000939637
0.000901072
0.000864109
0.000828816
0.000795308
0.000763625
0.000733402
0.000704227
0.000675997
0.000648702
0.000622335
0.000596868
0.000572269
0.000548504
0.000525529
0.000503299
0.000481763
0.000460864
0.000440544
0.000420739
0.000401383
0.000382405
0.000363726
0.000345261
0.000326919
0.000308601
0.000290216
0.000271704
0.000253055
0.000234319
0.000215588
0.000196979
0.000178642
0.000160789
0.000143745
0.000127833
0.000113196
0.000100945
0.00759065
0.00736886
0.00715128
0.00693786
0.00672858
0.00652339
0.00632227
0.0061252
0.00593215
0.00574309
0.00555803
0.00537697
0.00519993
0.00502682
0.00485746
0.0046918
0.00452979
0.00437139
0.00421655
0.00406523
0.00391739
0.003773
0.00363203
0.00349443
0.00336016
0.00322917
0.00310136
0.00297668
0.00285581
0.0027398
0.00262888
0.0025228
0.00242125
0.00232399
0.00223079
0.00214144
0.00205576
0.00197356
0.00189468
0.00181897
0.0017463
0.00167653
0.00160954
0.00154523
0.00148345
0.00142409
0.00136701
0.00131212
0.00125931
0.00120849
0.00115959
0.00111254
0.00106727
0.00102371
0.000981813
0.000941534
0.000902844
0.000865751
0.000830321
0.000796669
0.000764843
0.000734501
0.000705225
0.000676898
0.000649522
0.000623075
0.00059753
0.000572858
0.000549022
0.000525985
0.000503702
0.000482124
0.0004612
0.000440872
0.00042108
0.000401761
0.000382847
0.000364264
0.000345934
0.000327774
0.0003097
0.000291639
0.000273546
0.000255428
0.000237343
0.000219389
0.000201686
0.000184379
0.000167654
0.000151778
0.000137124
0.000123621
0.000111876
0.00758882
0.00736708
0.00714956
0.0069362
0.00672698
0.00652185
0.00632081
0.00612382
0.00593087
0.00574192
0.00555699
0.00537607
0.00519918
0.00502621
0.00485699
0.00469146
0.0045296
0.00437135
0.00421666
0.00406551
0.00391784
0.00377363
0.00363283
0.00349541
0.00336132
0.00323051
0.00310287
0.00297835
0.00285765
0.0027418
0.00263103
0.00252508
0.00242365
0.0023265
0.00223341
0.00214415
0.00205855
0.00197641
0.00189759
0.00182193
0.00174928
0.00167952
0.00161253
0.00154819
0.00148638
0.00142697
0.00136984
0.00131488
0.00126199
0.00121109
0.0011621
0.00111495
0.00106957
0.00102591
0.000983895
0.000943496
0.000904681
0.000867459
0.000831894
0.000798099
0.00076613
0.000735656
0.00070626
0.000677837
0.000650371
0.000623839
0.000598214
0.000573466
0.000549561
0.000526462
0.000504126
0.000482508
0.000461556
0.000441218
0.000421435
0.000402147
0.000383289
0.000364792
0.000346584
0.00032859
0.000310738
0.00029297
0.000275256
0.000257614
0.000240113
0.000222857
0.000205977
0.000189617
0.00017396
0.000159254
0.000145855
0.000133853
0.000123456
0.00758764
0.00736599
0.00714854
0.00693525
0.00672608
0.00652103
0.00632006
0.00612316
0.00593029
0.00574146
0.00555664
0.00537585
0.0051991
0.00502626
0.00485716
0.00469177
0.00453004
0.00437193
0.0042174
0.0040664
0.00391889
0.00377483
0.00363419
0.00349694
0.00336301
0.00323236
0.00310489
0.00298051
0.00285995
0.00274424
0.00263359
0.00252775
0.00242643
0.00232937
0.00223636
0.00214717
0.00206163
0.00197954
0.00190075
0.00182511
0.00175247
0.00168271
0.0016157
0.00155132
0.00148946
0.00142999
0.00137279
0.00131775
0.00126477
0.00121378
0.00116469
0.00111743
0.00107194
0.00102816
0.00098603
0.000945508
0.000906568
0.000869218
0.000833522
0.000799588
0.000767476
0.000736858
0.000707336
0.000678806
0.000651242
0.000624619
0.00059891
0.000574085
0.00055011
0.00052695
0.000504562
0.000482902
0.000461922
0.000441571
0.000421793
0.000402529
0.000383719
0.000365297
0.000347198
0.000329353
0.000311702
0.000294198
0.000276824
0.000259608
0.000242629
0.000226003
0.000209866
0.000194375
0.000179717
0.000166142
0.000153995
0.000143607
0.00013509
0.00758711
0.00736559
0.00714822
0.006935
0.0067259
0.00652091
0.00632002
0.00612319
0.00593042
0.00574168
0.00555697
0.00537631
0.00519968
0.00502695
0.00485799
0.00469272
0.00453112
0.00437315
0.00421875
0.00406789
0.00392052
0.00377661
0.00363612
0.00349901
0.00336524
0.00323473
0.00310739
0.00298313
0.00286269
0.00274711
0.00263656
0.00253082
0.00242957
0.00233258
0.00223963
0.00215049
0.00206498
0.00198292
0.00190415
0.00182851
0.00175586
0.00168607
0.00161902
0.00155459
0.00149267
0.00143312
0.00137584
0.00132071
0.00126764
0.00121654
0.00116734
0.00111997
0.00107436
0.00103046
0.000988204
0.000947557
0.000908492
0.000871017
0.000835192
0.000801122
0.000768868
0.000738104
0.000708448
0.000679798
0.000652127
0.000625407
0.00059961
0.000574705
0.00055066
0.000527436
0.000504995
0.000483293
0.000462284
0.000441916
0.000422138
0.000402893
0.000384122
0.000365765
0.00034776
0.000330047
0.000312574
0.000295304
0.000278232
0.000261396
0.000244883
0.000228819
0.000213353
0.000198651
0.000184911
0.000172392
0.000161445
0.000152517
0.000145928
0.00758726
0.00736591
0.00714862
0.00693546
0.00672642
0.0065215
0.00632068
0.00612393
0.00593123
0.00574259
0.00555797
0.00537742
0.00520091
0.0050283
0.00485945
0.0046943
0.00453282
0.00437497
0.0042207
0.00406997
0.00392273
0.00377896
0.0036386
0.00350163
0.00336798
0.00323759
0.00311036
0.00298621
0.00286587
0.00275039
0.00263993
0.00253425
0.00243307
0.00233612
0.0022432
0.00215409
0.0020686
0.00198655
0.00190777
0.00183211
0.00175943
0.0016896
0.00162249
0.001558
0.00149599
0.00143636
0.00137898
0.00132375
0.00127057
0.00121935
0.00117004
0.00112255
0.00107681
0.00103278
0.000990403
0.000949629
0.000910439
0.000872841
0.000836892
0.000802689
0.000770297
0.000739393
0.000709587
0.000680805
0.000653018
0.000626194
0.000600305
0.000575318
0.000551199
0.000527911
0.000505415
0.000483669
0.000462627
0.000442239
0.000422456
0.000403221
0.000384481
0.000366177
0.000348252
0.000330652
0.000313333
0.000296267
0.000279458
0.000262953
0.000246851
0.000231285
0.000216414
0.000202413
0.000189487
0.0001779
0.000168001
0.000160223
0.000155016
0.00851959
0.00828016
0.008045
0.00781425
0.00758852
0.00736706
0.00714978
0.00693665
0.00672766
0.00652279
0.00632203
0.00612535
0.00593273
0.00574417
0.00555964
0.00537918
0.00520277
0.00503027
0.00486153
0.0046965
0.00453514
0.0043774
0.00422324
0.00407263
0.00392552
0.00378186
0.00364162
0.00350476
0.00337122
0.00324094
0.00311381
0.00298973
0.00286948
0.00275407
0.00264367
0.00253805
0.0024369
0.00233998
0.00224707
0.00215797
0.00207247
0.0019904
0.00191159
0.00183589
0.00176316
0.00169327
0.0016261
0.00156152
0.00149942
0.00143968
0.00138219
0.00132685
0.00127355
0.00122221
0.00117277
0.00112515
0.00107929
0.00103513
0.000992614
0.000951712
0.000912397
0.000874678
0.000838609
0.00080428
0.000771766
0.000740711
0.000710742
0.000681818
0.000653906
0.000626972
0.000600985
0.000575911
0.000551715
0.000528361
0.000505808
0.000484015
0.000462935
0.000442523
0.000422727
0.000403496
0.000384775
0.00036651
0.000348649
0.000331143
0.000313951
0.000297056
0.000280469
0.000264247
0.000248496
0.00023336
0.000219
0.000205593
0.000193343
0.000182502
0.000173387
0.000166364
0.00016175
0.00852089
0.0082818
0.00804694
0.00781646
0.00759054
0.00736899
0.00715168
0.00693856
0.00672961
0.00652478
0.00632407
0.00612746
0.00593491
0.00574641
0.00556197
0.00538158
0.00520526
0.00503286
0.00486423
0.0046993
0.00453805
0.00438042
0.00422637
0.00407586
0.00392886
0.00378531
0.00364517
0.00350841
0.00337496
0.00324477
0.00311771
0.00299368
0.00287349
0.00275815
0.00264779
0.00254219
0.00244105
0.00234414
0.00225122
0.0021621
0.00207657
0.00199446
0.00191561
0.00183985
0.00176706
0.00169709
0.00162982
0.00156514
0.00150294
0.00144308
0.00138547
0.00133
0.00127657
0.0012251
0.00117553
0.00112777
0.00108177
0.00103747
0.000994824
0.000953791
0.000914351
0.000876515
0.000840333
0.000805909
0.000773263
0.000742035
0.000711899
0.000682826
0.000654781
0.00062773
0.000601639
0.000576474
0.000552198
0.000528773
0.000506159
0.000484314
0.000463193
0.000442749
0.000422933
0.000403695
0.000384981
0.000366742
0.000348926
0.000331488
0.000314396
0.000297635
0.000281225
0.000265233
0.000249771
0.000234987
0.000221041
0.000208101
0.000196354
0.000186022
0.000177366
0.000170659
0.000166083
0.00852294
0.00828418
0.00804954
0.00781919
0.00759324
0.00737163
0.0071543
0.00694118
0.00673225
0.00652746
0.0063268
0.00613024
0.00593775
0.00574932
0.00556494
0.00538461
0.00520835
0.00503605
0.00486752
0.0047027
0.00454155
0.00438401
0.00423006
0.00407965
0.00393274
0.00378928
0.00364924
0.00351256
0.00337919
0.00324906
0.00312205
0.00299806
0.0028779
0.0027626
0.00265226
0.00254666
0.00244552
0.00234858
0.00225564
0.00216647
0.00208089
0.00199873
0.0019198
0.00184397
0.00177109
0.00170102
0.00163365
0.00156886
0.00150653
0.00144654
0.0013888
0.00133319
0.00127962
0.00122801
0.00117829
0.00113039
0.00108424
0.0010398
0.00099702
0.000955855
0.000916292
0.00087834
0.000842066
0.000807566
0.000774779
0.000743358
0.000713046
0.000683815
0.000655631
0.000628457
0.000602258
0.000576996
0.000552635
0.000529135
0.000506454
0.000484552
0.000463382
0.000442899
0.000423053
0.000403796
0.000385076
0.000366843
0.00034905
0.000331656
0.000314628
0.000297961
0.00028168
0.00026586
0.000250619
0.000236102
0.000222459
0.000209838
0.000198395
0.000188311
0.000179783
0.000172992
0.000168025
0.0092693
0.00901713
0.00876922
0.00852616
0.00828737
0.00805281
0.00782253
0.00759659
0.00737496
0.00715762
0.0069445
0.00673559
0.00653083
0.0063302
0.00613368
0.00594124
0.00575286
0.00556854
0.00538826
0.00521205
0.00503982
0.00487139
0.00470668
0.00454562
0.00438818
0.00423432
0.00408399
0.00393716
0.00379378
0.00365381
0.00351719
0.00338388
0.00325379
0.00312682
0.00300283
0.00288269
0.00276741
0.00265707
0.00255146
0.00245028
0.0023533
0.0022603
0.00217108
0.00208543
0.00200318
0.00192417
0.00184823
0.00177524
0.00170506
0.00163757
0.00157264
0.00151017
0.00145005
0.00139215
0.00133639
0.00128268
0.00123092
0.00118104
0.00113299
0.0010867
0.00104211
0.000999189
0.000957892
0.000918205
0.000880154
0.000843805
0.000809236
0.000776301
0.000744668
0.00071417
0.000684775
0.000656444
0.000629141
0.000602827
0.000577464
0.000553012
0.000529431
0.000506678
0.000484711
0.000463485
0.000442952
0.000423065
0.000403775
0.000385031
0.000366785
0.000348991
0.000331607
0.000314608
0.000297988
0.000281783
0.000266073
0.000250979
0.000236637
0.000223174
0.000210711
0.000199367
0.000189274
0.000180573
0.00017338
0.00016773
0.00927259
0.00902077
0.0087732
0.00853007
0.00829127
0.00805675
0.00782651
0.00760059
0.00737896
0.00716161
0.0069485
0.0067396
0.00653486
0.00633427
0.00613778
0.00594538
0.00575704
0.00557276
0.00539252
0.00521633
0.00504416
0.00487583
0.00471121
0.00455024
0.00439289
0.00423911
0.00408886
0.0039421
0.00379878
0.00365887
0.0035223
0.00338903
0.00325897
0.00313201
0.003008
0.00288785
0.00277257
0.00266221
0.00255655
0.00245532
0.00235828
0.00226521
0.00217589
0.00209015
0.0020078
0.00192868
0.00185263
0.00177951
0.0017092
0.00164156
0.00157649
0.00151387
0.00145358
0.00139553
0.00133961
0.00128573
0.00123381
0.00118378
0.00113557
0.00108913
0.00104439
0.00100132
0.000959889
0.000920092
0.000881964
0.000845547
0.000810906
0.000777808
0.000745949
0.000715257
0.000685691
0.000657209
0.000629771
0.000603337
0.000577866
0.000553317
0.000529648
0.000506815
0.000484775
0.000463482
0.000442888
0.000422946
0.000403606
0.000384819
0.000366536
0.00034871
0.000331303
0.000314288
0.000297667
0.000281481
0.000265818
0.000250795
0.00023653
0.000223122
0.000210652
0.000199204
0.000188871
0.000179752
0.00017193
0.000165428
0.00927666
0.00902505
0.00877767
0.00853459
0.00829582
0.00806133
0.00783114
0.00760523
0.00738362
0.00716628
0.00695317
0.00674428
0.00653956
0.00633899
0.00614253
0.00595015
0.00576185
0.00557759
0.00539738
0.0052212
0.00504905
0.0048808
0.00471628
0.0045554
0.00439813
0.00424442
0.00409424
0.00394754
0.00380428
0.0036644
0.00352787
0.00339462
0.00326456
0.00313759
0.00301352
0.00289336
0.00277809
0.00266765
0.00256194
0.00246064
0.00236351
0.00227034
0.00218091
0.00209505
0.00201258
0.00193333
0.00185714
0.00178388
0.00171341
0.00164562
0.00158038
0.00151759
0.00145714
0.00139891
0.00134282
0.00128877
0.00123668
0.00118649
0.00113811
0.00109151
0.00104662
0.0010034
0.000961849
0.000921966
0.000883771
0.000847312
0.00081256
0.000779255
0.000747178
0.00071629
0.000686549
0.000657911
0.000630333
0.000603774
0.000578189
0.000553536
0.000529771
0.000506849
0.000484726
0.000463353
0.000442685
0.000422671
0.000403262
0.000384409
0.00036606
0.00034817
0.000330699
0.000313622
0.000296947
0.000280725
0.000265048
0.000250021
0.000235734
0.000222249
0.000209615
0.000197881
0.000187113
0.000177392
0.000168796
0.000161348
0.0092814
0.00902994
0.00878269
0.0085397
0.00830098
0.00806655
0.00783639
0.00761052
0.00738893
0.00717159
0.0069585
0.00674961
0.00654491
0.00634435
0.0061479
0.00595555
0.00576727
0.00558303
0.00540283
0.00522665
0.00505449
0.00488629
0.00472186
0.00456107
0.00440388
0.00425024
0.00410012
0.00395347
0.00381024
0.0036704
0.00353388
0.00340064
0.00327057
0.00314356
0.00301943
0.0028992
0.00278389
0.00267339
0.0025676
0.0024662
0.00236896
0.00227567
0.00218612
0.00210012
0.0020175
0.00193809
0.00186175
0.00178832
0.00171768
0.00164972
0.0015843
0.00152133
0.00146069
0.00140228
0.00134601
0.00129178
0.00123952
0.00118915
0.00114061
0.00109384
0.00104879
0.00100544
0.000963789
0.000923828
0.000885575
0.000849075
0.000814176
0.00078063
0.000748336
0.000717252
0.000687334
0.000658536
0.000630815
0.000604124
0.000578418
0.000553654
0.000529784
0.000506763
0.000484544
0.000463079
0.000442319
0.000422215
0.000402715
0.000383768
0.000365322
0.00034733
0.00032975
0.000312563
0.000295785
0.000279476
0.000263726
0.00024862
0.000234211
0.000220525
0.000207578
0.0001954
0.000184045
0.000173595
0.000164133
0.000155647
0.00928679
0.00903544
0.00878831
0.00854541
0.00830676
0.00807238
0.00784227
0.00761644
0.00739487
0.00717755
0.00696446
0.00675559
0.00655089
0.00635033
0.0061539
0.00596156
0.00577328
0.00558905
0.00540885
0.00523267
0.00506049
0.00489228
0.00472793
0.00456723
0.00441011
0.00425654
0.00410647
0.00395986
0.00381666
0.00367683
0.00354032
0.00340706
0.00327696
0.0031499
0.00302569
0.00290537
0.00278997
0.0026794
0.00257351
0.00247199
0.00237463
0.00228119
0.00219149
0.00210533
0.00202254
0.00194296
0.00186644
0.00179283
0.001722
0.00165385
0.00158824
0.00152507
0.00146423
0.00140563
0.00134917
0.00129475
0.0012423
0.00119176
0.00114305
0.00109611
0.00105092
0.00100746
0.000965712
0.000925684
0.000887397
0.000850805
0.000815699
0.000781915
0.000749406
0.000718127
0.000688031
0.000659071
0.000631201
0.000604374
0.000578541
0.000553656
0.000529672
0.00050654
0.000484211
0.000462637
0.000441767
0.00042155
0.000401933
0.000382861
0.000364283
0.000346146
0.000328412
0.000311068
0.000294142
0.000277702
0.000261826
0.000246567
0.000231939
0.000217932
0.000204543
0.000191789
0.00017973
0.00016846
0.000158049
0.000148379
0.00929282
0.00904156
0.00879453
0.00855172
0.00831315
0.00807883
0.00784877
0.00762297
0.00740143
0.00718413
0.00697106
0.00676218
0.00655749
0.00635694
0.00616051
0.00596816
0.00577989
0.00559565
0.00541544
0.00523924
0.00506703
0.00489878
0.00473444
0.00457384
0.0044168
0.00426328
0.00411326
0.00396669
0.00382351
0.00368369
0.00354716
0.00341387
0.00328372
0.00315659
0.00303229
0.00291184
0.00279633
0.00268567
0.00257965
0.002478
0.00238048
0.00228689
0.00219701
0.00211067
0.0020277
0.00194792
0.0018712
0.00179738
0.00172636
0.00165799
0.00159217
0.00152879
0.00146775
0.00140894
0.00135228
0.00129767
0.00124503
0.00119431
0.00114542
0.00109833
0.00105302
0.00100946
0.000967629
0.000927545
0.000889213
0.000852462
0.000817105
0.00078309
0.000750371
0.000718899
0.000688625
0.000659501
0.000631479
0.000604509
0.000578541
0.000553527
0.000529417
0.00050616
0.000483706
0.000462005
0.000441003
0.000420647
0.000400883
0.000381652
0.0003629
0.000344576
0.000326643
0.000309102
0.000291994
0.000275386
0.000259333
0.000243847
0.000228904
0.000214468
0.000200521
0.000187085
0.000174232
0.00016206
0.000150586
0.000139549
0.00929948
0.0090483
0.00880135
0.00855863
0.00832013
0.00808588
0.00785587
0.00763012
0.00740861
0.00719133
0.00697826
0.00676939
0.0065647
0.00636414
0.00616771
0.00597536
0.00578707
0.00560282
0.00542259
0.00524636
0.0050741
0.0049058
0.00474142
0.00458085
0.0044239
0.00427045
0.00412048
0.00397393
0.00383077
0.00369094
0.00355439
0.00342105
0.00329084
0.00316362
0.00303919
0.00291859
0.00280294
0.00269217
0.00258601
0.0024842
0.00238651
0.00229273
0.00220266
0.00211612
0.00203294
0.00195295
0.00187601
0.00180197
0.00173072
0.00166213
0.00159609
0.00153249
0.00147123
0.00141221
0.00135533
0.00130052
0.0012477
0.00119679
0.00114774
0.00110053
0.0010551
0.00101145
0.000969555
0.000929435
0.000890965
0.000853969
0.000818375
0.00078414
0.000751215
0.000719552
0.000689101
0.000659812
0.000631633
0.000604514
0.000578403
0.000553249
0.000529
0.000505603
0.000483006
0.000461156
0.000439997
0.000419474
0.000399529
0.000380102
0.000361135
0.000342579
0.000324409
0.000306641
0.000289326
0.000272518
0.000256236
0.000240449
0.000225101
0.000210137
0.000195535
0.000181327
0.000167597
0.000154431
0.000141772
0.000129298
0.00930675
0.00905565
0.00880878
0.00856613
0.00832771
0.00809353
0.00786358
0.00763786
0.00741638
0.00719912
0.00698607
0.0067772
0.0065725
0.00637194
0.00617549
0.00598312
0.00579481
0.00561053
0.00543027
0.005254
0.0050817
0.00491333
0.00474887
0.00458827
0.00443137
0.004278
0.00412808
0.00398156
0.0038384
0.00369855
0.00356197
0.00342858
0.00329828
0.00317095
0.00304638
0.0029256
0.00280979
0.00269888
0.00259257
0.00249058
0.0023927
0.00229871
0.00220843
0.00212166
0.00203825
0.00195803
0.00188085
0.00180658
0.00173509
0.00166626
0.00159998
0.00153615
0.00147466
0.00141542
0.00135833
0.00130332
0.0012503
0.00119922
0.00115004
0.00110271
0.00105719
0.00101346
0.00097152
0.000931272
0.000892564
0.000855322
0.0008195
0.00078505
0.000751925
0.000720073
0.000689444
0.000659987
0.000631647
0.000604373
0.00057811
0.000552804
0.000528402
0.000504848
0.000482087
0.000460064
0.00043872
0.000417998
0.000397835
0.00037817
0.000358945
0.000340119
0.000321684
0.000303671
0.000286132
0.000269092
0.000252526
0.000236366
0.000220529
0.000204949
0.000189605
0.000174542
0.000159855
0.00014561
0.000131745
0.000118122
0.00931463
0.00906361
0.00881681
0.00857423
0.00833588
0.00810176
0.00787186
0.00764619
0.00742474
0.0072075
0.00699446
0.00678559
0.00658088
0.0063803
0.00618383
0.00599144
0.0058031
0.00561879
0.00543848
0.00526216