/*--------------------------------*- C++ -*----------------------------------*\
  =========                 |
  \\      /  F ield         | OpenFOAM: The Open Source CFD Toolbox
   \\    /   O peration     | Website:  https://openfoam.org
    \\  /    A nd           | Version:  10
     \\/     M anipulation  |
\*---------------------------------------------------------------------------*/
FoamFile
{
    format      ascii;
    class       volScalarField;
    location    "8000";
    object      p;
}
// * * * * * * * * * * * * * * * * * * * * * * * * * * * * * * * * * * * * * //

dimensions      [0 2 -2 0 0 0 0];

internalField   nonuniform List<scalar> 
17969
(
-5.42652
-5.41695
-5.40852
-5.39979
-5.39069
-5.38123
-5.37143
-5.3613
-5.35082
-5.33999
-5.3288
-5.31723
-5.30526
-5.29288
-5.28007
-5.26681
-5.25307
-5.23883
-5.22407
-5.20875
-5.19285
-5.17636
-5.15925
-5.14151
-5.12314
-5.10411
-5.08441
-5.06401
-5.04289
-5.02103
-4.99841
-4.975
-4.95076
-4.92567
-4.89969
-4.87279
-4.84491
-4.81603
-4.7861
-4.75507
-4.7229
-4.68954
-4.65495
-4.61906
-4.58183
-4.5432
-4.50312
-4.46152
-4.41833
-4.37351
-4.32696
-4.27863
-4.22843
-4.17629
-4.12212
-4.06584
-4.00735
-3.94656
-3.88336
-3.81765
-3.74931
-3.67823
-3.60429
-3.52735
-3.44728
-3.36393
-3.27717
-3.18683
-3.09275
-2.99472
-2.89273
-2.78678
-2.6766
-2.56175
-2.44366
-2.32571
-2.20961
-2.09539
-1.98309
-1.87272
-1.76429
-1.65783
-1.55333
-1.45081
-1.35026
-1.25167
-1.15505
-1.06038
-0.967652
-0.876852
-0.787965
-0.700973
-0.615856
-0.532593
-0.451163
-0.371543
-0.293708
-0.217629
-0.14328
-0.0706672
-5.42649
-5.41691
-5.40849
-5.39977
-5.39067
-5.38122
-5.37142
-5.36128
-5.35078
-5.33991
-5.32866
-5.31703
-5.30499
-5.29253
-5.27964
-5.26629
-5.25247
-5.23817
-5.22337
-5.20805
-5.19219
-5.17576
-5.15874
-5.14111
-5.12284
-5.10391
-5.08428
-5.06394
-5.04287
-5.02104
-4.99843
-4.97502
-4.95079
-4.92569
-4.8997
-4.87279
-4.84491
-4.81602
-4.78608
-4.75505
-4.72288
-4.68952
-4.65492
-4.61904
-4.58182
-4.54319
-4.50311
-4.46152
-4.41834
-4.37352
-4.32698
-4.27866
-4.22846
-4.17633
-4.12216
-4.06587
-4.00738
-3.94658
-3.88338
-3.81765
-3.74931
-3.67821
-3.60425
-3.52729
-3.4472
-3.36383
-3.27704
-3.18667
-3.09256
-2.99453
-2.89247
-2.78644
-2.67619
-2.56129
-2.44314
-2.32512
-2.20896
-2.09469
-1.98234
-1.87192
-1.76346
-1.65696
-1.55243
-1.44988
-1.34931
-1.25071
-1.15408
-1.05941
-0.966677
-0.875881
-0.787
-0.700018
-0.614913
-0.531666
-0.450254
-0.370652
-0.292838
-0.216784
-0.142465
-0.069854
-5.42642
-5.4168
-5.40837
-5.39963
-5.39052
-5.38106
-5.37125
-5.3611
-5.3506
-5.33974
-5.3285
-5.31688
-5.30487
-5.29244
-5.27958
-5.26628
-5.25252
-5.23828
-5.22354
-5.20826
-5.19243
-5.176
-5.15898
-5.14132
-5.12302
-5.10405
-5.08439
-5.06403
-5.04294
-5.02109
-4.99847
-4.97505
-4.9508
-4.92569
-4.89969
-4.87277
-4.84487
-4.81598
-4.78603
-4.75499
-4.72282
-4.68946
-4.65487
-4.61899
-4.58176
-4.54315
-4.50307
-4.46148
-4.41831
-4.3735
-4.32696
-4.27864
-4.22845
-4.17632
-4.12215
-4.06587
-4.00737
-3.94657
-3.88335
-3.81762
-3.74926
-3.67815
-3.60417
-3.52719
-3.44708
-3.36369
-3.27688
-3.18649
-3.09238
-2.99436
-2.89224
-2.78603
-2.67567
-2.56072
-2.4425
-2.32442
-2.2082
-2.09387
-1.98147
-1.87101
-1.76251
-1.65597
-1.55142
-1.44884
-1.34825
-1.24964
-1.153
-1.05832
-0.965591
-0.874798
-0.785926
-0.698955
-0.613867
-0.53064
-0.44925
-0.369675
-0.29189
-0.21587
-0.141587
-0.0690151
-5.42642
-5.41679
-5.40834
-5.39959
-5.39045
-5.38097
-5.37114
-5.36097
-5.35044
-5.33955
-5.32829
-5.31665
-5.3046
-5.29214
-5.27925
-5.26591
-5.2521
-5.2378
-5.223
-5.20768
-5.19181
-5.17538
-5.15837
-5.14075
-5.12249
-5.10358
-5.08398
-5.06368
-5.04263
-5.02083
-4.99825
-4.97486
-4.95064
-4.92555
-4.89956
-4.87265
-4.84476
-4.81587
-4.78592
-4.75489
-4.72272
-4.68936
-4.65477
-4.6189
-4.58168
-4.54307
-4.503
-4.46142
-4.41825
-4.37344
-4.32691
-4.27859
-4.22841
-4.17627
-4.1221
-4.06582
-4.00732
-3.94651
-3.88329
-3.81754
-3.74917
-3.67805
-3.60405
-3.52706
-3.44693
-3.36352
-3.27669
-3.18628
-3.09214
-2.99411
-2.89199
-2.78566
-2.6751
-2.56008
-2.44182
-2.32366
-2.20737
-2.093
-1.98054
-1.87003
-1.76149
-1.65492
-1.55034
-1.44774
-1.34713
-1.2485
-1.15185
-1.05717
-0.964438
-0.873649
-0.784784
-0.697825
-0.612751
-0.529543
-0.448175
-0.368625
-0.290868
-0.214878
-0.140629
-0.0680934
0.00275632
0.0719479
0.13951
0.20547
-5.42635
-5.41669
-5.40823
-5.39946
-5.39031
-5.38082
-5.37098
-5.36079
-5.35024
-5.33933
-5.32805
-5.31638
-5.30431
-5.29183
-5.27893
-5.26558
-5.25177
-5.23748
-5.22269
-5.20738
-5.19153
-5.17511
-5.15811
-5.14049
-5.12223
-5.10332
-5.08372
-5.06342
-5.04239
-5.0206
-4.99804
-4.97466
-4.95045
-4.92537
-4.8994
-4.87249
-4.84461
-4.81572
-4.78579
-4.75476
-4.72259
-4.68924
-4.65466
-4.61879
-4.58158
-4.54297
-4.50291
-4.46133
-4.41817
-4.37336
-4.32684
-4.27852
-4.22834
-4.1762
-4.12204
-4.06575
-4.00725
-3.94643
-3.8832
-3.81745
-3.74906
-3.67793
-3.60392
-3.52691
-3.44676
-3.36333
-3.27649
-3.18607
-3.09191
-2.99386
-2.89175
-2.78536
-2.6746
-2.55939
-2.4411
-2.32289
-2.20654
-2.09211
-1.9796
-1.86905
-1.76047
-1.65387
-1.54925
-1.44663
-1.346
-1.24736
-1.15069
-1.056
-0.963272
-0.872485
-0.783627
-0.696678
-0.611619
-0.528429
-0.447083
-0.367559
-0.28983
-0.213871
-0.139655
-0.0671555
0.00365634
0.0728083
0.140329
0.206247
-5.42633
-5.41665
-5.40816
-5.39938
-5.39021
-5.38069
-5.37082
-5.36061
-5.35004
-5.33912
-5.32782
-5.31613
-5.30405
-5.29155
-5.27863
-5.26526
-5.25144
-5.23713
-5.22232
-5.20699
-5.19113
-5.1747
-5.15769
-5.14008
-5.12184
-5.10294
-5.08337
-5.0631
-5.04209
-5.02033
-4.99779
-4.97443
-4.95024
-4.92518
-4.89922
-4.87232
-4.84445
-4.81557
-4.78565
-4.75462
-4.72247
-4.68912
-4.65454
-4.61868
-4.58147
-4.54287
-4.50281
-4.46124
-4.41808
-4.37328
-4.32676
-4.27845
-4.22826
-4.17613
-4.12196
-4.06567
-4.00717
-3.94635
-3.88311
-3.81735
-3.74895
-3.67781
-3.60378
-3.52676
-3.44659
-3.36315
-3.27629
-3.18585
-3.09168
-2.99361
-2.89147
-2.78509
-2.67426
-2.55884
-2.44042
-2.32216
-2.20575
-2.09125
-1.9787
-1.8681
-1.75948
-1.65284
-1.5482
-1.44555
-1.3449
-1.24624
-1.14956
-1.05486
-0.962125
-0.871338
-0.782483
-0.695543
-0.610496
-0.527321
-0.445994
-0.366492
-0.288789
-0.212859
-0.138674
-0.0662077
0.00456838
0.0736828
0.141164
0.207042
-5.42629
-5.41659
-5.40809
-5.39928
-5.3901
-5.38056
-5.37069
-5.36046
-5.34987
-5.33892
-5.3276
-5.3159
-5.30379
-5.29127
-5.27833
-5.26494
-5.25109
-5.23677
-5.22195
-5.20661
-5.19074
-5.17431
-5.15731
-5.1397
-5.12146
-5.10258
-5.08302
-5.06276
-5.04177
-5.02004
-4.99752
-4.97419
-4.95002
-4.92497
-4.89903
-4.87215
-4.84429
-4.81542
-4.7855
-4.75449
-4.72234
-4.689
-4.65443
-4.61857
-4.58137
-4.54277
-4.50272
-4.46115
-4.418
-4.3732
-4.32669
-4.27838
-4.22819
-4.17606
-4.12189
-4.0656
-4.00709
-3.94627
-3.88302
-3.81725
-3.74885
-3.67769
-3.60366
-3.52662
-3.44644
-3.36299
-3.27611
-3.18566
-3.09147
-2.99337
-2.89121
-2.7848
-2.67395
-2.55845
-2.43987
-2.32151
-2.20503
-2.09048
-1.97787
-1.86723
-1.75856
-1.65189
-1.54721
-1.44453
-1.34386
-1.24518
-1.14848
-1.05377
-0.961029
-0.870238
-0.781384
-0.694447
-0.609408
-0.526245
-0.444934
-0.365451
-0.28777
-0.211864
-0.137708
-0.065272
0.00547139
0.074551
0.141996
0.207835
0.272099
-5.42628
-5.41655
-5.40803
-5.39922
-5.39002
-5.38047
-5.37057
-5.36033
-5.34973
-5.33877
-5.32744
-5.31572
-5.3036
-5.29107
-5.27811
-5.26472
-5.25086
-5.23652
-5.2217
-5.20635
-5.19047
-5.17404
-5.15703
-5.13942
-5.12119
-5.10231
-5.08276
-5.0625
-5.04153
-5.0198
-4.99729
-4.97397
-4.94982
-4.92479
-4.89886
-4.87199
-4.84414
-4.81528
-4.78537
-4.75437
-4.72223
-4.68889
-4.65433
-4.61848
-4.58128
-4.54269
-4.50264
-4.46108
-4.41793
-4.37314
-4.32662
-4.27832
-4.22814
-4.176
-4.12184
-4.06554
-4.00703
-3.9462
-3.88295
-3.81718
-3.74877
-3.6776
-3.60356
-3.52651
-3.44632
-3.36285
-3.27596
-3.18549
-3.09128
-2.99317
-2.89097
-2.78453
-2.67363
-2.5581
-2.43944
-2.32097
-2.20442
-2.0898
-1.97714
-1.86645
-1.75774
-1.65103
-1.54632
-1.44361
-1.3429
-1.2442
-1.14749
-1.05276
-0.960008
-0.86921
-0.780352
-0.693415
-0.608379
-0.525223
-0.443922
-0.364453
-0.286789
-0.210904
-0.136771
-0.0643611
0.0063536
0.0754022
0.142814
0.208619
0.272846
0.335525
0.396686
-5.42626
-5.41651
-5.40798
-5.39915
-5.38994
-5.38038
-5.37047
-5.36022
-5.34961
-5.33864
-5.32729
-5.31556
-5.30343
-5.29089
-5.27792
-5.26451
-5.25065
-5.23631
-5.22147
-5.20612
-5.19024
-5.1738
-5.15679
-5.13918
-5.12095
-5.10207
-5.08253
-5.06228
-5.04131
-5.01959
-4.99709
-4.97379
-4.94964
-4.92462
-4.8987
-4.87184
-4.84401
-4.81516
-4.78526
-4.75427
-4.72213
-4.68881
-4.65425
-4.6184
-4.58121
-4.54262
-4.50258
-4.46102
-4.41788
-4.37309
-4.32658
-4.27827
-4.2281
-4.17597
-4.1218
-4.0655
-4.00699
-3.94616
-3.88291
-3.81713
-3.74871
-3.67754
-3.60349
-3.52643
-3.44623
-3.36275
-3.27584
-3.18536
-3.09113
-2.993
-2.89079
-2.78431
-2.67338
-2.55779
-2.43906
-2.32053
-2.20391
-2.08924
-1.97653
-1.86579
-1.75704
-1.65028
-1.54554
-1.4428
-1.34207
-1.24334
-1.1466
-1.05186
-0.959088
-0.868277
-0.77941
-0.692468
-0.60743
-0.524275
-0.442979
-0.363518
-0.285865
-0.209995
-0.13588
-0.063491
0.00720013
0.0762227
0.143606
0.20938
0.273575
0.33622
0.397346
0.456982
-5.42625
-5.41648
-5.40794
-5.3991
-5.38987
-5.3803
-5.37038
-5.36012
-5.3495
-5.33852
-5.32716
-5.31542
-5.30328
-5.29073
-5.27775
-5.26433
-5.25046
-5.23611
-5.22126
-5.20591
-5.19002
-5.17359
-5.15657
-5.13896
-5.12073
-5.10186
-5.08232
-5.06208
-5.04112
-5.01941
-4.99692
-4.97362
-4.94949
-4.92448
-4.89857
-4.87172
-4.8439
-4.81506
-4.78517
-4.75418
-4.72205
-4.68874
-4.65418
-4.61834
-4.58116
-4.54258
-4.50254
-4.46099
-4.41785
-4.37306
-4.32655
-4.27825
-4.22808
-4.17595
-4.12178
-4.06549
-4.00698
-3.94614
-3.88289
-3.81711
-3.74869
-3.67751
-3.60345
-3.52639
-3.44618
-3.3627
-3.27578
-3.18528
-3.09104
-2.99289
-2.89066
-2.78415
-2.67319
-2.55756
-2.43878
-2.32019
-2.20352
-2.0888
-1.97603
-1.86525
-1.75646
-1.64967
-1.54489
-1.44212
-1.34136
-1.2426
-1.14585
-1.05108
-0.958288
-0.867461
-0.77858
-0.691627
-0.606582
-0.523422
-0.442124
-0.362665
-0.285018
-0.209156
-0.135052
-0.0626776
0.00799612
0.0769985
0.144359
0.210108
0.274276
0.336892
0.397986
0.45759
0.515732
0.572442
-5.42625
-5.41645
-5.4079
-5.39905
-5.38981
-5.38023
-5.3703
-5.36003
-5.3494
-5.33841
-5.32704
-5.31529
-5.30314
-5.29058
-5.27759
-5.26417
-5.25028
-5.23593
-5.22108
-5.20571
-5.18982
-5.17338
-5.15636
-5.13875
-5.12053
-5.10165
-5.08212
-5.06188
-5.04093
-5.01923
-4.99675
-4.97347
-4.94935
-4.92435
-4.89846
-4.87162
-4.84381
-4.81498
-4.7851
-4.75412
-4.722
-4.68869
-4.65414
-4.61831
-4.58113
-4.54255
-4.50252
-4.46097
-4.41784
-4.37306
-4.32656
-4.27826
-4.22809
-4.17596
-4.1218
-4.06551
-4.007
-3.94616
-3.88291
-3.81713
-3.74871
-3.67753
-3.60347
-3.5264
-3.44619
-3.36269
-3.27577
-3.18526
-3.09101
-2.99284
-2.89059
-2.78406
-2.67307
-2.55741
-2.43859
-2.31996
-2.20324
-2.08847
-1.97567
-1.86485
-1.75602
-1.6492
-1.54438
-1.44158
-1.34079
-1.24201
-1.14523
-1.05044
-0.957627
-0.86678
-0.777882
-0.690913
-0.605854
-0.522684
-0.441379
-0.361915
-0.284266
-0.208405
-0.134305
-0.0619383
0.00872496
0.077714
0.145059
0.210789
0.274935
0.337528
0.398597
0.458173
0.516287
0.572967
0.628245
0.682148
0.734707
0.78595
-5.42625
-5.41643
-5.40787
-5.399
-5.38976
-5.38017
-5.37023
-5.35995
-5.34932
-5.33831
-5.32694
-5.31518
-5.30303
-5.29046
-5.27747
-5.26403
-5.25014
-5.23578
-5.22092
-5.20556
-5.18966
-5.17322
-5.1562
-5.13859
-5.12036
-5.10149
-5.08195
-5.06172
-5.04078
-5.01909
-4.99662
-4.97334
-4.94923
-4.92425
-4.89837
-4.87154
-4.84374
-4.81492
-4.78505
-4.75407
-4.72196
-4.68866
-4.65412
-4.61829
-4.58112
-4.54255
-4.50253
-4.46099
-4.41786
-4.37308
-4.32659
-4.27829
-4.22813
-4.17601
-4.12185
-4.06556
-4.00705
-3.94622
-3.88297
-3.81719
-3.74877
-3.67759
-3.60353
-3.52646
-3.44625
-3.36275
-3.27582
-3.18531
-3.09104
-2.99287
-2.8906
-2.78405
-2.67304
-2.55735
-2.4385
-2.31983
-2.20308
-2.08828
-1.97544
-1.86459
-1.75573
-1.64887
-1.54403
-1.4412
-1.34038
-1.24157
-1.14477
-1.04995
-0.95712
-0.866251
-0.777331
-0.690343
-0.605267
-0.522081
-0.440762
-0.361286
-0.283628
-0.207761
-0.133658
-0.0612909
0.00936976
0.0783532
0.145689
0.211408
0.27554
0.338117
0.399167
0.458722
0.516813
0.573469
0.62872
0.682597
0.735127
0.786342
-5.42625
-5.41641
-5.40784
-5.39896
-5.38971
-5.38011
-5.37017
-5.35988
-5.34924
-5.33824
-5.32686
-5.31509
-5.30293
-5.29036
-5.27737
-5.26393
-5.25004
-5.23567
-5.22081
-5.20544
-5.18955
-5.1731
-5.15608
-5.13847
-5.12024
-5.10137
-5.08184
-5.06162
-5.04067
-5.01899
-4.99653
-4.97326
-4.94915
-4.92418
-4.8983
-4.87148
-4.84369
-4.81488
-4.78501
-4.75405
-4.72194
-4.68865
-4.65412
-4.6183
-4.58114
-4.54258
-4.50256
-4.46102
-4.41791
-4.37314
-4.32664
-4.27836
-4.2282
-4.17608
-4.12193
-4.06565
-4.00714
-3.94632
-3.88307
-3.8173
-3.74888
-3.6777
-3.60364
-3.52658
-3.44636
-3.36286
-3.27593
-3.18541
-3.09115
-2.99296
-2.89069
-2.78413
-2.67309
-2.55738
-2.43851
-2.31981
-2.20304
-2.08821
-1.97534
-1.86446
-1.75558
-1.6487
-1.54383
-1.44098
-1.34014
-1.2413
-1.14447
-1.04964
-0.956778
-0.865886
-0.776943
-0.689933
-0.604835
-0.521628
-0.44029
-0.360796
-0.283122
-0.207242
-0.133128
-0.0607519
0.00991427
0.0789003
0.146236
0.211952
0.276078
0.338645
0.399684
0.459225
0.5173
0.573937
0.629169
0.683023
0.735531
0.786721
-5.42626
-5.4164
-5.40781
-5.39893
-5.38967
-5.38006
-5.37012
-5.35983
-5.34918
-5.33817
-5.32679
-5.31502
-5.30285
-5.29028
-5.27728
-5.26384
-5.24994
-5.23558
-5.22072
-5.20535
-5.18945
-5.173
-5.15598
-5.13837
-5.12015
-5.10128
-5.08175
-5.06153
-5.0406
-5.01891
-4.99646
-4.97319
-4.94909
-4.92413
-4.89825
-4.87144
-4.84366
-4.81486
-4.785
-4.75404
-4.72195
-4.68866
-4.65414
-4.61833
-4.58118
-4.54262
-4.50261
-4.46109
-4.41798
-4.37321
-4.32673
-4.27845
-4.2283
-4.17619
-4.12205
-4.06577
-4.00727
-3.94645
-3.88321
-3.81744
-3.74903
-3.67786
-3.60381
-3.52674
-3.44653
-3.36304
-3.27611
-3.18559
-3.09132
-2.99313
-2.89085
-2.78428
-2.67324
-2.55751
-2.43862
-2.31991
-2.20311
-2.08826
-1.97538
-1.86448
-1.75557
-1.64867
-1.54379
-1.44091
-1.34005
-1.2412
-1.14435
-1.04949
-0.956606
-0.865691
-0.776725
-0.689691
-0.604568
-0.521337
-0.439975
-0.360458
-0.282762
-0.206861
-0.132728
-0.0603359
0.0103443
0.0793415
0.146686
0.212406
0.276535
0.339101
0.400137
0.459672
0.517737
0.574364
0.629581
0.68342
0.73591
0.787081
-5.42627
-5.41638
-5.40779
-5.3989
-5.38963
-5.38002
-5.37007
-5.35977
-5.34912
-5.3381
-5.32672
-5.31495
-5.30278
-5.2902
-5.2772
-5.26376
-5.24986
-5.23549
-5.22063
-5.20526
-5.18936
-5.17291
-5.1559
-5.13829
-5.12006
-5.1012
-5.08168
-5.06146
-5.04053
-5.01885
-4.9964
-4.97314
-4.94905
-4.92409
-4.89822
-4.87142
-4.84364
-4.81485
-4.785
-4.75406
-4.72197
-4.6887
-4.65418
-4.61838
-4.58124
-4.54269
-4.50269
-4.46118
-4.41807
-4.37332
-4.32685
-4.27858
-4.22843
-4.17633
-4.1222
-4.06593
-4.00744
-3.94663
-3.8834
-3.81763
-3.74923
-3.67806
-3.60402
-3.52696
-3.44676
-3.36327
-3.27634
-3.18583
-3.09156
-2.99337
-2.89109
-2.78452
-2.67347
-2.55774
-2.43884
-2.32011
-2.2033
-2.08844
-1.97554
-1.86463
-1.75571
-1.6488
-1.5439
-1.44101
-1.34013
-1.24126
-1.14439
-1.04951
-0.956608
-0.86567
-0.77668
-0.68962
-0.604471
-0.521213
-0.439823
-0.360279
-0.282556
-0.206628
-0.13247
-0.0600534
0.0106487
0.0796655
0.147026
0.212761
0.276901
0.339475
0.400515
0.460052
0.518116
0.574739
0.62995
0.68378
0.736259
0.787416
0.837281
-5.42627
-5.41637
-5.40777
-5.39886
-5.38959
-5.37997
-5.37001
-5.35971
-5.34906
-5.33804
-5.32665
-5.31488
-5.30271
-5.29013
-5.27713
-5.26368
-5.24978
-5.23541
-5.22055
-5.20518
-5.18928
-5.17283
-5.15582
-5.13821
-5.11999
-5.10113
-5.08161
-5.06139
-5.04047
-5.0188
-4.99635
-4.9731
-4.94902
-4.92406
-4.89821
-4.87141
-4.84365
-4.81486
-4.78502
-4.75409
-4.72201
-4.68875
-4.65424
-4.61845
-4.58132
-4.54279
-4.5028
-4.46129
-4.4182
-4.37345
-4.32699
-4.27873
-4.2286
-4.17651
-4.12238
-4.06612
-4.00764
-3.94684
-3.88362
-3.81786
-3.74947
-3.67831
-3.60428
-3.52723
-3.44703
-3.36355
-3.27663
-3.18613
-3.09187
-2.99368
-2.8914
-2.78483
-2.67378
-2.55805
-2.43914
-2.32041
-2.2036
-2.08873
-1.97582
-1.8649
-1.75597
-1.64905
-1.54414
-1.44124
-1.34036
-1.24147
-1.14459
-1.04969
-0.956775
-0.865818
-0.776806
-0.689722
-0.604546
-0.521259
-0.439839
-0.360263
-0.282507
-0.206546
-0.132356
-0.0599096
0.0108215
0.0798655
0.147251
0.213009
0.277167
0.339758
0.400811
0.460358
0.518429
0.575055
0.630267
0.684095
0.73657
0.78772
0.837576
-5.42628
-5.41636
-5.40775
-5.39883
-5.38955
-5.37993
-5.36997
-5.35966
-5.349
-5.33798
-5.32659
-5.31482
-5.30265
-5.29006
-5.27706
-5.26361
-5.24971
-5.23534
-5.22048
-5.2051
-5.1892
-5.17276
-5.15574
-5.13814
-5.11992
-5.10106
-5.08154
-5.06133
-5.04041
-5.01874
-4.9963
-4.97306
-4.94898
-4.92404
-4.8982
-4.87141
-4.84366
-4.81489
-4.78506
-4.75414
-4.72207
-4.68882
-4.65433
-4.61855
-4.58142
-4.5429
-4.50292
-4.46142
-4.41834
-4.37361
-4.32716
-4.27891
-4.22879
-4.17671
-4.12259
-4.06634
-4.00788
-3.94709
-3.88387
-3.81813
-3.74975
-3.67861
-3.60458
-3.52754
-3.44736
-3.36389
-3.27698
-3.18648
-3.09223
-2.99406
-2.89178
-2.78522
-2.67417
-2.55844
-2.43953
-2.32081
-2.20399
-2.08912
-1.97621
-1.86529
-1.75636
-1.64943
-1.54452
-1.44161
-1.34072
-1.24183
-1.14493
-1.05002
-0.957089
-0.866115
-0.777083
-0.689977
-0.604777
-0.521462
-0.440011
-0.360403
-0.282613
-0.206617
-0.13239
-0.0599067
0.0108604
0.0799389
0.147357
0.213144
0.27733
0.339945
0.401019
0.460584
0.51867
0.575307
0.630527
0.684361
0.736837
0.787987
0.83784
-5.4263
-5.41636
-5.40773
-5.39881
-5.38951
-5.37988
-5.36992
-5.35961
-5.34895
-5.33793
-5.32654
-5.31476
-5.30259
-5.29
-5.277
-5.26355
-5.24965
-5.23528
-5.22041
-5.20504
-5.18914
-5.1727
-5.15568
-5.13808
-5.11986
-5.101
-5.08149
-5.06128
-5.04037
-5.01871
-4.99628
-4.97304
-4.94898
-4.92404
-4.89821
-4.87144
-4.84369
-4.81493
-4.78512
-4.7542
-4.72215
-4.68891
-4.65443
-4.61866
-4.58155
-4.54304
-4.50307
-4.46158
-4.41851
-4.37379
-4.32735
-4.27911
-4.229
-4.17694
-4.12283
-4.0666
-4.00814
-3.94736
-3.88417
-3.81844
-3.75007
-3.67894
-3.60492
-3.5279
-3.44773
-3.36427
-3.27738
-3.18689
-3.09265
-2.99449
-2.89222
-2.78567
-2.67463
-2.55891
-2.44001
-2.32128
-2.20447
-2.0896
-1.97669
-1.86577
-1.75684
-1.64992
-1.545
-1.4421
-1.3412
-1.2423
-1.1454
-1.05048
-0.957533
-0.866544
-0.777496
-0.690369
-0.605146
-0.521805
-0.440325
-0.360684
-0.282859
-0.206826
-0.132561
-0.0600382
0.0107687
0.0798865
0.147343
0.213167
0.277387
0.340034
0.401137
0.460727
0.518834
0.57549
0.630726
0.684571
0.737057
0.788212
0.838069
0.886655
-5.42631
-5.41635
-5.40771
-5.39878
-5.38948
-5.37984
-5.36988
-5.35956
-5.3489
-5.33788
-5.32648
-5.31471
-5.30253
-5.28995
-5.27694
-5.2635
-5.24959
-5.23522
-5.22036
-5.20499
-5.18909
-5.17265
-5.15564
-5.13803
-5.11982
-5.10097
-5.08146
-5.06126
-5.04035
-5.0187
-4.99628
-4.97305
-4.94899
-4.92407
-4.89824
-4.87148
-4.84374
-4.81499
-4.78519
-4.75429
-4.72224
-4.68901
-4.65454
-4.61879
-4.58169
-4.54319
-4.50323
-4.46176
-4.4187
-4.37399
-4.32756
-4.27934
-4.22924
-4.17719
-4.1231
-4.06688
-4.00843
-3.94767
-3.88449
-3.81877
-3.75042
-3.6793
-3.60531
-3.5283
-3.44814
-3.3647
-3.27782
-3.18735
-3.09312
-2.99497
-2.89272
-2.78618
-2.67515
-2.55944
-2.44055
-2.32183
-2.20503
-2.09017
-1.97727
-1.86635
-1.75742
-1.6505
-1.54558
-1.44268
-1.34178
-1.24288
-1.14597
-1.05104
-0.958089
-0.867088
-0.778024
-0.690879
-0.605635
-0.52227
-0.440762
-0.361091
-0.283232
-0.207162
-0.132857
-0.0602933
0.0105559
0.0797165
0.147216
0.213081
0.277341
0.340025
0.401163
0.460785
0.518921
0.575603
0.63086
0.684724
0.737225
0.788393
0.838258
0.88685
-5.42632
-5.41634
-5.40769
-5.39875
-5.38945
-5.37981
-5.36983
-5.35952
-5.34885
-5.33783
-5.32643
-5.31466
-5.30248
-5.2899
-5.27689
-5.26345
-5.24955
-5.23517
-5.22031
-5.20494
-5.18905
-5.17261
-5.1556
-5.138
-5.11979
-5.10095
-5.08144
-5.06125
-5.04034
-5.0187
-4.99628
-4.97306
-4.94901
-4.9241
-4.89828
-4.87153
-4.8438
-4.81507
-4.78527
-4.75438
-4.72235
-4.68913
-4.65467
-4.61893
-4.58184
-4.54336
-4.50341
-4.46195
-4.41891
-4.37421
-4.3278
-4.27958
-4.2295
-4.17746
-4.12339
-4.06718
-4.00875
-3.94801
-3.88484
-3.81914
-3.7508
-3.6797
-3.60572
-3.52873
-3.44859
-3.36516
-3.2783
-3.18784
-3.09364
-2.9955
-2.89327
-2.78674
-2.67573
-2.56003
-2.44116
-2.32245
-2.20566
-2.0908
-1.97791
-1.867
-1.75808
-1.65116
-1.54625
-1.44335
-1.34245
-1.24354
-1.14663
-1.0517
-0.958739
-0.867727
-0.77865
-0.691489
-0.606226
-0.522839
-0.441306
-0.361605
-0.283714
-0.207609
-0.133266
-0.0606605
0.010232
0.0794373
0.146981
0.212892
0.277196
0.339922
0.401101
0.46076
0.518931
0.575644
0.63093
0.684818
0.73734
0.788526
0.838406
0.887009
-5.42633
-5.41634
-5.40767
-5.39873
-5.38941
-5.37977
-5.36979
-5.35948
-5.34881
-5.33778
-5.32639
-5.31461
-5.30244
-5.28985
-5.27685
-5.2634
-5.2495
-5.23513
-5.22027
-5.20491
-5.18901
-5.17257
-5.15557
-5.13797
-5.11977
-5.10093
-5.08143
-5.06124
-5.04034
-5.0187
-4.99629
-4.97308
-4.94904
-4.92414
-4.89833
-4.87159
-4.84387
-4.81514
-4.78536
-4.75449
-4.72247
-4.68926
-4.65481
-4.61908
-4.58201
-4.54354
-4.50361
-4.46216
-4.41913
-4.37445
-4.32804
-4.27985
-4.22978
-4.17776
-4.12369
-4.06751
-4.0091
-3.94837
-3.88521
-3.81953
-3.75121
-3.68013
-3.60617
-3.52919
-3.44907
-3.36566
-3.27882
-3.18838
-3.09419
-2.99608
-2.89386
-2.78736
-2.67637
-2.56068
-2.44182
-2.32313
-2.20635
-2.0915
-1.97862
-1.86772
-1.75881
-1.65189
-1.54699
-1.44409
-1.34319
-1.24429
-1.14737
-1.05244
-0.959467
-0.868446
-0.779357
-0.692182
-0.606902
-0.523494
-0.441938
-0.362211
-0.28429
-0.208152
-0.133772
-0.0611266
0.00980874
0.0790589
0.14665
0.212607
0.276958
0.339731
0.400953
0.460655
0.518866
0.575615
0.630934
0.684853
0.737402
0.788611
0.838511
0.887131
-5.42635
-5.41634
-5.40766
-5.3987
-5.38938
-5.37973
-5.36975
-5.35943
-5.34876
-5.33774
-5.32634
-5.31456
-5.30239
-5.28981
-5.2768
-5.26336
-5.24946
-5.23509
-5.22023
-5.20487
-5.18898
-5.17254
-5.15554
-5.13795
-5.11974
-5.10091
-5.08141
-5.06123
-5.04034
-5.01871
-4.9963
-4.9731
-4.94907
-4.92417
-4.89838
-4.87165
-4.84394
-4.81523
-4.78546
-4.75459
-4.72259
-4.68939
-4.65496
-4.61924
-4.58218
-4.54372
-4.50381
-4.46237
-4.41936
-4.37469
-4.32831
-4.28012
-4.23007
-4.17806
-4.12402
-4.06785
-4.00946
-3.94874
-3.88561
-3.81995
-3.75165
-3.68058
-3.60664
-3.52968
-3.44958
-3.36619
-3.27937
-3.18895
-3.09478
-2.99669
-2.8945
-2.78801
-2.67704
-2.56138
-2.44253
-2.32386
-2.20709
-2.09226
-1.97939
-1.8685
-1.75959
-1.65269
-1.54778
-1.44489
-1.34399
-1.24509
-1.14817
-1.05323
-0.960259
-0.869229
-0.78013
-0.692942
-0.607646
-0.524221
-0.442644
-0.362893
-0.284945
-0.208775
-0.134361
-0.0616781
0.00929836
0.0785926
0.146229
0.212235
0.276634
0.339455
0.400726
0.460473
0.518728
0.575519
0.630876
0.68483
0.73741
0.788648
0.838573
0.887214
-5.42636
-5.41633
-5.40764
-5.39868
-5.38935
-5.3797
-5.36971
-5.35939
-5.34872
-5.33769
-5.32629
-5.31452
-5.30234
-5.28976
-5.27675
-5.26331
-5.24941
-5.23505
-5.22019
-5.20483
-5.18894
-5.17251
-5.15551
-5.13792
-5.11972
-5.10089
-5.0814
-5.06122
-5.04034
-5.01871
-4.99632
-4.97312
-4.9491
-4.92421
-4.89843
-4.87171
-4.84401
-4.81531
-4.78555
-4.7547
-4.72271
-4.68953
-4.65511
-4.61941
-4.58236
-4.54392
-4.50402
-4.4626
-4.4196
-4.37495
-4.32857
-4.28041
-4.23037
-4.17838
-4.12436
-4.06821
-4.00983
-3.94914
-3.88603
-3.82038
-3.7521
-3.68106
-3.60713
-3.5302
-3.45011
-3.36675
-3.27994
-3.18955
-3.0954
-2.99733
-2.89516
-2.7887
-2.67775
-2.56211
-2.44329
-2.32463
-2.20788
-2.09306
-1.98021
-1.86932
-1.76043
-1.65353
-1.54863
-1.44574
-1.34484
-1.24594
-1.14903
-1.05408
-0.961102
-0.870065
-0.780957
-0.693757
-0.608447
-0.525005
-0.443409
-0.363636
-0.285663
-0.209466
-0.13502
-0.0623017
0.00871329
0.0780495
0.145731
0.211784
0.276232
0.339103
0.400423
0.46022
0.518521
0.575357
0.630757
0.68475
0.737367
0.788637
0.838592
0.88726
-5.42638
-5.41633
-5.40763
-5.39865
-5.38932
-5.37966
-5.36967
-5.35935
-5.34867
-5.33765
-5.32625
-5.31447
-5.30229
-5.28971
-5.27671
-5.26327
-5.24937
-5.235
-5.22015
-5.20479
-5.1889
-5.17247
-5.15547
-5.13789
-5.1197
-5.10087
-5.08138
-5.06121
-5.04033
-5.01871
-4.99633
-4.97314
-4.94913
-4.92425
-4.89847
-4.87176
-4.84408
-4.81539
-4.78565
-4.75481
-4.72283
-4.68966
-4.65526
-4.61957
-4.58254
-4.54411
-4.50422
-4.46282
-4.41983
-4.37519
-4.32883
-4.28069
-4.23068
-4.17871
-4.12471
-4.06857
-4.01022
-3.94955
-3.88646
-3.82084
-3.75257
-3.68155
-3.60764
-3.53073
-3.45067
-3.36732
-3.28054
-3.19017
-3.09604
-2.998
-2.89586
-2.78942
-2.6785
-2.56288
-2.44408
-2.32544
-2.20871
-2.09391
-1.98106
-1.87019
-1.7613
-1.65441
-1.54952
-1.44663
-1.34574
-1.24684
-1.14992
-1.05497
-0.961987
-0.870944
-0.781826
-0.694615
-0.609291
-0.525834
-0.44422
-0.364428
-0.286432
-0.210209
-0.135735
-0.0629851
0.00806552
0.0774409
0.145166
0.211264
0.275761
0.338681
0.400051
0.459899
0.51825
0.575134
0.630579
0.684616
0.737273
0.78858
0.838568
0.887267
-5.42639
-5.41633
-5.40761
-5.39863
-5.38929
-5.37962
-5.36963
-5.3593
-5.34863
-5.3376
-5.3262
-5.31442
-5.30225
-5.28966
-5.27666
-5.26322
-5.24932
-5.23496
-5.22011
-5.20475
-5.18886
-5.17243
-5.15544
-5.13786
-5.11967
-5.10085
-5.08137
-5.0612
-5.04033
-5.01871
-4.99634
-4.97316
-4.94915
-4.92428
-4.89852
-4.87182
-4.84415
-4.81547
-4.78574
-4.75491
-4.72295
-4.68979
-4.65541
-4.61973
-4.58271
-4.5443
-4.50442
-4.46303
-4.42005
-4.37543
-4.32911
-4.28099
-4.231
-4.17904
-4.12506
-4.06895
-4.01062
-3.94997
-3.8869
-3.8213
-3.75306
-3.68205
-3.60817
-3.53128
-3.45123
-3.36791
-3.28115
-3.1908
-3.09671
-2.99869
-2.89657
-2.79017
-2.67927
-2.56368
-2.4449
-2.32629
-2.20957
-2.09479
-1.98195
-1.87109
-1.76222
-1.65533
-1.55045
-1.44756
-1.34667
-1.24777
-1.15085
-1.0559
-0.962906
-0.871855
-0.782729
-0.695507
-0.610171
-0.526699
-0.445069
-0.365258
-0.287242
-0.210996
-0.136496
-0.0637167
0.00736631
0.0767778
0.144542
0.210684
0.275227
0.338196
0.399617
0.459516
0.517918
0.574852
0.630346
0.684429
0.73713
0.788478
0.838504
0.887237
-5.42641
-5.41633
-5.40759
-5.3986
-5.38925
-5.37958
-5.36959
-5.35926
-5.34858
-5.33755
-5.32615
-5.31437
-5.3022
-5.28961
-5.27661
-5.26317
-5.24928
-5.23491
-5.22006
-5.2047
-5.18882
-5.1724
-5.15541
-5.13783
-5.11964
-5.10082
-5.08135
-5.06119
-5.04032
-5.01871
-4.99634
-4.97317
-4.94917
-4.92431
-4.89856
-4.87187
-4.84421
-4.81555
-4.78583
-4.75501
-4.72306
-4.68992
-4.65554
-4.61988
-4.58288
-4.54447
-4.5046
-4.46322
-4.42028
-4.3757
-4.3294
-4.28129
-4.23131
-4.17938
-4.12542
-4.06934
-4.01103
-3.9504
-3.88735
-3.82177
-3.75355
-3.68257
-3.60871
-3.53183
-3.45181
-3.36851
-3.28177
-3.19145
-3.09738
-2.9994
-2.89731
-2.79093
-2.68006
-2.5645
-2.44575
-2.32716
-2.21046
-2.09569
-1.98287
-1.87203
-1.76316
-1.65628
-1.5514
-1.44852
-1.34763
-1.24873
-1.1518
-1.05685
-0.963852
-0.872794
-0.783658
-0.696426
-0.611077
-0.527591
-0.445946
-0.366117
-0.288082
-0.211815
-0.137292
-0.0644865
0.00662589
0.0760702
0.143871
0.210053
0.27464
0.337657
0.399127
0.459076
0.517531
0.574516
0.630061
0.684192
0.73694
0.788332
0.838399
0.887171
-5.42642
-5.41633
-5.40758
-5.39858
-5.38922
-5.37954
-5.36954
-5.35921
-5.34853
-5.3375
-5.3261
-5.31432
-5.30215
-5.28956
-5.27656
-5.26312
-5.24923
-5.23487
-5.22002
-5.20466
-5.18878
-5.17236
-5.15537
-5.13779
-5.11961
-5.1008
-5.08132
-5.06117
-5.04031
-5.01871
-4.99634
-4.97318
-4.94919
-4.92434
-4.8986
-4.87192
-4.84427
-4.81561
-4.78591
-4.7551
-4.72316
-4.69004
-4.65567
-4.62002
-4.58302
-4.54462
-4.50479
-4.46346
-4.42054
-4.37597
-4.32968
-4.28159
-4.23163
-4.17973
-4.12579
-4.06973
-4.01144
-3.95083
-3.8878
-3.82225
-3.75405
-3.68309
-3.60925
-3.53239
-3.4524
-3.36912
-3.28241
-3.19211
-3.09807
-3.00012
-2.89806
-2.79172
-2.68088
-2.56534
-2.44662
-2.32805
-2.21137
-2.09662
-1.98382
-1.87298
-1.76412
-1.65726
-1.55238
-1.4495
-1.34861
-1.24971
-1.15278
-1.05782
-0.96482
-0.873754
-0.784608
-0.697365
-0.612004
-0.528504
-0.446843
-0.366998
-0.288945
-0.212659
-0.138114
-0.0652853
0.0058535
0.0753274
0.143162
0.20938
0.274008
0.337069
0.398587
0.458587
0.517093
0.57413
0.629727
0.683909
0.736706
0.788145
0.838256
0.887069
-5.42643
-5.41633
-5.40756
-5.39855
-5.38919
-5.37951
-5.3695
-5.35917
-5.34849
-5.33745
-5.32605
-5.31427
-5.3021
-5.28952
-5.27651
-5.26307
-5.24918
-5.23482
-5.21997
-5.20462
-5.18874
-5.17232
-5.15533
-5.13776
-5.11958
-5.10077
-5.0813
-5.06115
-5.0403
-5.0187
-4.99634
-4.97319
-4.94921
-4.92436
-4.89863
-4.87196
-4.84432
-4.81567
-4.78598
-4.75519
-4.72326
-4.69014
-4.65578
-4.62013
-4.58316
-4.54481
-4.50501
-4.46369
-4.42079
-4.37623
-4.32995
-4.28189
-4.23196
-4.18008
-4.12616
-4.07012
-4.01185
-3.95127
-3.88826
-3.82272
-3.75454
-3.68361
-3.60979
-3.53295
-3.45298
-3.36973
-3.28303
-3.19277
-3.09877
-3.00085
-2.89883
-2.79251
-2.68171
-2.5662
-2.4475
-2.32896
-2.2123
-2.09757
-1.98478
-1.87395
-1.76511
-1.65825
-1.55338
-1.4505
-1.34961
-1.25071
-1.15378
-1.05882
-0.965806
-0.874731
-0.785575
-0.69832
-0.612946
-0.529431
-0.447755
-0.367894
-0.289824
-0.21352
-0.138956
-0.0661053
0.00505742
0.0745581
0.142422
0.208675
0.27334
0.336442
0.398005
0.458053
0.516609
0.573699
0.629347
0.683582
0.736429
0.787917
0.838075
0.886932
-5.42645
-5.41633
-5.40754
-5.39852
-5.38915
-5.37947
-5.36946
-5.35912
-5.34844
-5.33741
-5.326
-5.31422
-5.30205
-5.28947
-5.27646
-5.26302
-5.24913
-5.23477
-5.21992
-5.20457
-5.1887
-5.17228
-5.15529
-5.13773
-5.11955
-5.10074
-5.08128
-5.06113
-5.04028
-5.01869
-4.99634
-4.97319
-4.94922
-4.92438
-4.89865
-4.87199
-4.84437
-4.81573
-4.78604
-4.75526
-4.72334
-4.69023
-4.65589
-4.62028
-4.58335
-4.54502
-4.50523
-4.46392
-4.42103
-4.37648
-4.33023
-4.2822
-4.23229
-4.18043
-4.12653
-4.07051
-4.01226
-3.9517
-3.88871
-3.82319
-3.75504
-3.68412
-3.61032
-3.53351
-3.45357
-3.37032
-3.28365
-3.19343
-3.09948
-3.00159
-2.89961
-2.79332
-2.68255
-2.56707
-2.4484
-2.32988
-2.21324
-2.09853
-1.98575
-1.87494
-1.7661
-1.65925
-1.55439
-1.45151
-1.35063
-1.25172
-1.15479
-1.05982
-0.966806
-0.875723
-0.786557
-0.69929
-0.6139
-0.530372
-0.448682
-0.368803
-0.290714
-0.214392
-0.13981
-0.0669393
0.00424507
0.0737698
0.141661
0.207943
0.272643
0.335783
0.397388
0.457481
0.516085
0.573226
0.628927
0.683214
0.736113
0.787652
0.837858
0.886761
-5.42646
-5.41633
-5.40753
-5.39849
-5.38912
-5.37943
-5.36942
-5.35908
-5.3484
-5.33736
-5.32596
-5.31417
-5.302
-5.28942
-5.27642