/*--------------------------------*- C++ -*----------------------------------*\
  =========                 |
  \\      /  F ield         | OpenFOAM: The Open Source CFD Toolbox
   \\    /   O peration     | Website:  https://openfoam.org
    \\  /    A nd           | Version:  10
     \\/     M anipulation  |
\*---------------------------------------------------------------------------*/
FoamFile
{
    format      ascii;
    class       volVectorField;
    location    "8000";
    object      U;
}
// * * * * * * * * * * * * * * * * * * * * * * * * * * * * * * * * * * * * * //

dimensions      [0 1 -1 0 0 0 0];

internalField   nonuniform List<vector> 
17969
(
(0.132141 1.54865 0)
(-0.0465261 1.6351 0)
(-0.0217976 1.6539 -2.08564e-17)
(-0.0187945 1.66504 4.15262e-17)
(-0.0193138 1.67646 -1.97141e-17)
(-0.0197625 1.68686 -1.79581e-17)
(-0.020266 1.696 1.46687e-17)
(-0.0208704 1.70431 0)
(-0.021484 1.71219 6.40703e-19)
(-0.0220479 1.72002 0)
(-0.0225305 1.72806 0)
(-0.022917 1.73644 0)
(-0.0231857 1.74526 0)
(-0.0233189 1.7546 -7.85826e-18)
(-0.0232993 1.76449 8.49501e-18)
(-0.0231177 1.77495 0)
(-0.022761 1.78608 -8.61271e-18)
(-0.0222065 1.79792 9.24521e-18)
(-0.0213968 1.81012 -9.82441e-18)
(-0.0204967 1.8214 9.86053e-18)
(-0.0197432 1.83135 0)
(-0.0192826 1.84086 0)
(-0.0190311 1.85042 -9.94232e-19)
(-0.0188502 1.86012 0)
(-0.0187669 1.86992 0)
(-0.0188242 1.87989 8.69387e-18)
(-0.018964 1.89015 -1.77181e-17)
(-0.0191631 1.90067 8.75161e-18)
(-0.0194503 1.91137 8.42861e-18)
(-0.0198544 1.92226 -1.05175e-18)
(-0.0202907 1.93344 -9.73195e-18)
(-0.0207448 1.945 0)
(-0.0212088 1.95697 6.92821e-18)
(-0.0216613 1.9694 -1.45869e-17)
(-0.0220879 1.9823 3.23865e-20)
(-0.0224767 1.99568 1.10493e-17)
(-0.0228242 2.00955 -5.07698e-18)
(-0.0231342 2.0239 -5.77633e-18)
(-0.0234101 2.03872 3.19767e-18)
(-0.0236565 2.05401 0)
(-0.0238791 2.06976 9.02163e-19)
(-0.0240828 2.08597 8.37743e-19)
(-0.0242726 2.10264 6.22784e-18)
(-0.0244526 2.11978 -5.87722e-18)
(-0.0246264 2.13738 -5.47649e-18)
(-0.0247973 2.15546 -1.2498e-18)
(-0.0249681 2.17402 4.90739e-18)
(-0.0251418 2.19308 4.59217e-18)
(-0.0253208 2.21266 -4.34255e-20)
(-0.0255081 2.23275 -4.1447e-18)
(-0.0257067 2.25338 -4.85126e-18)
(-0.0259199 2.27457 4.62642e-18)
(-0.0261508 2.29633 0)
(-0.0264017 2.31869 0)
(-0.0266752 2.34166 7.74783e-19)
(-0.0269737 2.36526 4.36111e-18)
(-0.0272991 2.38952 -2.77194e-18)
(-0.0276536 2.41446 0)
(-0.0280386 2.44011 0)
(-0.0284551 2.46648 1.12684e-18)
(-0.0289033 2.49361 -2.17992e-18)
(-0.0293832 2.52151 0)
(-0.0298933 2.5502 0)
(-0.0304322 2.57971 -9.0837e-19)
(-0.0309985 2.61005 -1.6999e-18)
(-0.0315864 2.64124 8.57715e-19)
(-0.0321873 2.67329 1.57386e-18)
(-0.0328633 2.70624 0)
(-0.0336881 2.74005 0)
(-0.0344108 2.77412 0)
(-0.0347859 2.80702 2.43356e-18)
(-0.0352185 2.84038 -1.17976e-19)
(-0.0359839 2.87683 -2.65447e-18)
(-0.0370484 2.91564 0)
(-0.0380332 2.95527 8.30967e-19)
(-0.0388887 2.99429 7.50841e-19)
(-0.0396991 3.03217 -6.76956e-19)
(-0.0404723 3.06896 0)
(-0.0411978 3.10467 0)
(-0.0418728 3.13934 0)
(-0.0424975 3.173 0)
(-0.0430741 3.20567 0)
(-0.0436034 3.2374 7.05342e-19)
(-0.0440857 3.26819 -1.14441e-18)
(-0.0445226 3.29809 7.51823e-19)
(-0.0449159 3.32711 -1.29979e-19)
(-0.0452676 3.3553 0)
(-0.0455796 3.38266 0)
(-0.0458538 3.40924 0)
(-0.0460923 3.43505 -2.16554e-19)
(-0.0462969 3.46012 2.82243e-19)
(-0.0464697 3.48447 2.14263e-19)
(-0.0466125 3.50813 -2.0564e-19)
(-0.0467271 3.53112 1.47387e-19)
(-0.0468152 3.55346 -2.75873e-19)
(-0.0468788 3.57517 1.0063e-19)
(-0.0469202 3.59628 0)
(-0.0469359 3.6168 -4.57195e-20)
(-0.0469097 3.63676 4.38476e-20)
(-0.0468816 3.65619 2.05193e-21)
(0.0962473 1.55119 0)
(-0.0852377 1.6328 -4.13263e-17)
(-0.060766 1.65089 4.49682e-17)
(-0.0580427 1.6603 1.43103e-18)
(-0.0587997 1.66987 8.93831e-17)
(-0.0591828 1.67897 -1.62451e-16)
(-0.059249 1.68748 6.99746e-17)
(-0.0592418 1.69564 5.80886e-17)
(-0.0592413 1.70357 -4.91049e-17)
(-0.0592712 1.71135 -4.20641e-17)
(-0.0593438 1.71903 7.62916e-20)
(-0.0594707 1.72671 3.17024e-17)
(-0.0596611 1.73441 0)
(-0.0599275 1.7422 0)
(-0.060286 1.75012 -2.7175e-17)
(-0.0607488 1.75818 2.74084e-17)
(-0.0613234 1.7664 0)
(-0.0620252 1.77479 -2.78761e-17)
(-0.0628359 1.78345 3.24206e-17)
(-0.0636379 1.79276 0)
(-0.0643083 1.80374 -4.0351e-17)
(-0.0648659 1.81594 3.91393e-17)
(-0.0652463 1.82878 1.32606e-18)
(-0.0654108 1.84193 0)
(-0.0653888 1.85519 4.23514e-17)
(-0.065319 1.86836 -2.63208e-18)
(-0.0654094 1.88121 -7.19349e-17)
(-0.0656803 1.89376 3.37085e-17)
(-0.066026 1.90615 -2.05637e-18)
(-0.0664081 1.91843 3.33339e-17)
(-0.0668414 1.93066 -2.95918e-17)
(-0.0673374 1.94296 0)
(-0.0678747 1.95543 2.50181e-17)
(-0.0684544 1.96817 -2.19404e-17)
(-0.069051 1.98125 0)
(-0.0696561 1.99472 2.89099e-18)
(-0.0702622 2.00861 -2.65656e-18)
(-0.0708645 2.02294 -1.81821e-17)
(-0.071463 2.03771 3.6711e-17)
(-0.0720574 2.05293 -2.15031e-18)
(-0.0726462 2.06862 -1.60561e-17)
(-0.0732301 2.08476 -1.6525e-17)
(-0.0738117 2.10138 2.59888e-17)
(-0.0743939 2.11846 -2.73267e-17)
(-0.0749797 2.13603 2.27774e-17)
(-0.0755721 2.15407 -9.41475e-18)
(-0.0761739 2.17262 1.0039e-17)
(-0.0767885 2.19167 -2.13863e-17)
(-0.0774206 2.21123 1.79206e-17)
(-0.0780736 2.23133 -1.69013e-17)
(-0.0787508 2.25197 7.01835e-18)
(-0.0794555 2.27318 -9.39714e-19)
(-0.0801912 2.29496 0)
(-0.080961 2.31734 0)
(-0.0817679 2.34033 -7.862e-19)
(-0.0826148 2.36396 -1.48e-18)
(-0.0835044 2.38826 5.528e-18)
(-0.0844386 2.41323 -7.89852e-18)
(-0.0854184 2.43891 -9.77139e-18)
(-0.0864447 2.46531 1.32064e-18)
(-0.0875191 2.49246 8.78939e-18)
(-0.0886421 2.52039 1.01621e-17)
(-0.0898123 2.5491 -9.7362e-18)
(-0.0910273 2.57861 9.12388e-19)
(-0.0922826 2.60896 0)
(-0.0935701 2.64014 8.21184e-19)
(-0.0948789 2.67217 6.1626e-18)
(-0.0962412 2.70509 -6.02448e-18)
(-0.0977191 2.7389 -2.96853e-18)
(-0.0992525 2.77324 -3.45855e-18)
(-0.100629 2.80661 9.6342e-18)
(-0.102222 2.83965 6.24967e-18)
(-0.103999 2.87587 5.1893e-18)
(-0.106043 2.91467 -3.90257e-18)
(-0.107996 2.95429 -8.33084e-19)
(-0.10978 2.99327 -7.55179e-19)
(-0.111481 3.0311 6.83216e-19)
(-0.113112 3.06783 1.238e-18)
(-0.114667 3.10347 3.30588e-18)
(-0.116144 3.13807 -1.191e-19)
(-0.117544 3.17165 -1.90198e-18)
(-0.118871 3.20424 -4.16529e-19)
(-0.120127 3.23588 0)
(-0.121315 3.26658 1.68126e-19)
(-0.122436 3.29639 -1.50631e-19)
(-0.123493 3.32533 1.34248e-19)
(-0.12449 3.35342 0)
(-0.12543 3.38069 0)
(-0.126315 3.40718 -1.40402e-18)
(-0.127148 3.4329 5.13672e-20)
(-0.127933 3.45789 1.16959e-18)
(-0.128672 3.48215 0)
(-0.129368 3.50573 0)
(-0.130023 3.52863 6.10988e-19)
(-0.130641 3.55089 -1.05955e-18)
(-0.131224 3.57252 5.10016e-19)
(-0.131772 3.59354 0)
(-0.132288 3.61396 0)
(-0.132771 3.63382 -9.79493e-20)
(-0.13322 3.6531 6.3282e-20)
(0.0599579 1.55441 4.00971e-17)
(-0.122505 1.63334 -8.16843e-17)
(-0.0980429 1.65228 1.78264e-16)
(-0.0960731 1.66275 -9.13442e-17)
(-0.0974988 1.6734 2.58477e-18)
(-0.0987168 1.68303 0)
(-0.0998312 1.69152 1.90681e-18)
(-0.100907 1.69932 0)
(-0.101911 1.70684 0)
(-0.102857 1.71431 2.21572e-18)
(-0.103766 1.7219 9.71838e-19)
(-0.104657 1.72972 0)
(-0.105536 1.73787 0)
(-0.106397 1.74644 1.65691e-18)
(-0.107225 1.7555 -2.7428e-17)
(-0.108 1.76506 2.61015e-17)
(-0.108706 1.77514 -2.8407e-17)
(-0.109335 1.78573 3.22915e-17)
(-0.109864 1.79677 -1.07486e-18)
(-0.110238 1.80795 -3.84423e-17)
(-0.11046 1.81866 3.37972e-17)
(-0.110648 1.82901 4.26679e-18)
(-0.110929 1.83921 1.96289e-18)
(-0.111304 1.84958 0)
(-0.111686 1.86025 0)
(-0.112003 1.87127 3.21455e-17)
(-0.112247 1.8826 -2.70267e-17)
(-0.112437 1.89414 -3.89745e-18)
(-0.112629 1.90582 -2.54317e-17)
(-0.112868 1.91762 3.1304e-17)
(-0.113187 1.92957 0)
(-0.113578 1.94168 0)
(-0.114045 1.95403 3.54242e-18)
(-0.114586 1.96666 4.99886e-17)
(-0.115205 1.97965 -9.98826e-17)
(-0.115887 1.99302 4.35286e-17)
(-0.116621 2.00682 2.66804e-18)
(-0.117399 2.02105 -4.90824e-18)
(-0.118214 2.03574 4.51451e-18)
(-0.119058 2.05088 2.08001e-18)
(-0.119929 2.06649 0)
(-0.120825 2.08258 1.78279e-18)
(-0.121743 2.09913 3.31826e-18)
(-0.122683 2.11617 -2.15887e-17)
(-0.123647 2.1337 1.92011e-19)
(-0.124634 2.15172 2.45916e-17)
(-0.125648 2.17024 0)
(-0.12669 2.18927 3.01187e-23)
(-0.127764 2.20882 -4.53726e-18)
(-0.128871 2.22891 0)
(-0.130016 2.24955 2.01477e-18)
(-0.131202 2.27076 -1.50985e-17)
(-0.132432 2.29254 1.43876e-17)
(-0.13371 2.31493 0)
(-0.135038 2.33794 3.16486e-18)
(-0.136422 2.36158 0)
(-0.137863 2.38589 -2.79464e-18)
(-0.139364 2.41088 -1.0416e-17)
(-0.140926 2.43657 9.94204e-18)
(-0.142552 2.46298 2.31624e-18)
(-0.14424 2.49014 0)
(-0.14599 2.51806 -1.01767e-17)
(-0.1478 2.54676 2.12934e-17)
(-0.149665 2.57625 -1.63028e-19)
(-0.151581 2.60656 -3.63583e-18)
(-0.153542 2.6377 -1.81497e-18)
(-0.155533 2.66967 -1.25245e-17)
(-0.157541 2.70249 1.72005e-19)
(-0.159657 2.7362 1.13454e-17)
(-0.162008 2.77075 -2.07555e-22)
(-0.164438 2.80524 0)
(-0.166977 2.83847 1.26213e-17)
(-0.169617 2.87381 2.43326e-18)
(-0.172579 2.91233 -8.03487e-18)
(-0.175508 2.95188 0)
(-0.178215 2.9908 0)
(-0.180775 3.02855 -1.38723e-18)
(-0.183235 3.06518 3.64906e-18)
(-0.185592 3.10074 -1.03394e-17)
(-0.187845 3.13524 8.36288e-18)
(-0.189998 3.16872 -4.86643e-18)
(-0.192053 3.20121 -2.90531e-18)
(-0.194015 3.23274 3.21345e-18)
(-0.195888 3.26334 -3.04826e-18)
(-0.197674 3.29304 5.01263e-18)
(-0.199377 3.32187 -2.32442e-18)
(-0.200999 3.34985 1.90479e-18)
(-0.202544 3.37702 -3.51132e-18)
(-0.204015 3.4034 1.46464e-19)
(-0.205416 3.42901 1.3791e-19)
(-0.206749 3.45389 1.36983e-18)
(-0.208018 3.47805 0)
(-0.209226 3.50153 7.79155e-19)
(-0.210376 3.52433 -1.38869e-18)
(-0.211471 3.54649 3.06294e-20)
(-0.212513 3.56803 6.69432e-20)
(-0.213506 3.58896 4.67982e-20)
(-0.214451 3.6093 5.34754e-20)
(-0.215353 3.62907 1.61336e-19)
(-0.216213 3.64829 4.42363e-21)
(0.025928 1.55595 -1.27552e-18)
(-0.158727 1.63141 -1.66436e-16)
(-0.134214 1.65053 3.02187e-19)
(-0.132118 1.66037 6.44755e-18)
(-0.13327 1.67036 1.91699e-16)
(-0.134164 1.67984 1.74933e-16)
(-0.134864 1.6886 -2.61904e-18)
(-0.135601 1.69684 -1.21235e-16)
(-0.136373 1.70473 0)
(-0.137156 1.71245 8.39197e-17)
(-0.13794 1.72016 -7.64721e-17)
(-0.138725 1.72795 0)
(-0.139509 1.73589 0)
(-0.14029 1.74401 -2.22518e-18)
(-0.141069 1.75234 2.22204e-18)
(-0.141849 1.76086 2.21426e-18)
(-0.142636 1.76956 6.80252e-17)
(-0.143439 1.77845 -7.01613e-17)
(-0.144259 1.78755 0)
(-0.145108 1.79701 2.3193e-18)
(-0.146004 1.80698 8.48794e-17)
(-0.146918 1.81754 -1.64972e-16)
(-0.147829 1.82865 8.07426e-17)
(-0.148723 1.84022 5.18746e-18)
(-0.149616 1.85211 8.04223e-17)
(-0.150541 1.86419 -7.62176e-17)
(-0.151491 1.87635 -7.45053e-17)
(-0.152445 1.88851 7.37417e-17)
(-0.153374 1.90068 -2.31544e-22)
(-0.154263 1.91292 -6.2451e-17)
(-0.155135 1.92523 6.11923e-17)
(-0.156037 1.93765 0)
(-0.156964 1.95026 0)
(-0.157916 1.96311 -5.30097e-17)
(-0.158898 1.97625 5.61707e-17)
(-0.159916 1.98973 -4.62415e-17)
(-0.160971 2.00359 4.30923e-17)
(-0.162063 2.01786 -3.46194e-17)
(-0.16319 2.03254 -4.34908e-18)
(-0.164354 2.04767 2.2509e-19)
(-0.165553 2.06326 6.27226e-17)
(-0.166786 2.07931 -5.82101e-17)
(-0.168054 2.09584 2.37998e-17)
(-0.169357 2.11284 0)
(-0.170696 2.13033 0)
(-0.172073 2.14832 -2.76699e-18)
(-0.173488 2.16681 -2.06779e-17)
(-0.174945 2.18582 1.71689e-17)
(-0.176447 2.20536 -1.36709e-17)
(-0.177996 2.22544 2.16668e-17)
(-0.179596 2.24607 2.02106e-17)
(-0.18125 2.26726 -1.91837e-17)
(-0.182963 2.28905 0)
(-0.184738 2.31143 -1.00426e-17)
(-0.186578 2.33444 1.27742e-17)
(-0.188486 2.35808 0)
(-0.190466 2.38239 2.7981e-18)
(-0.19252 2.40738 2.62761e-18)
(-0.194648 2.43307 -4.93656e-18)
(-0.196853 2.45947 -2.32033e-18)
(-0.199134 2.48662 4.3671e-18)
(-0.201489 2.51452 1.63007e-17)
(-0.203918 2.54319 -1.95925e-17)
(-0.206416 2.57265 1.45408e-17)
(-0.208982 2.60291 -2.09031e-17)
(-0.21161 2.63399 1.33876e-17)
(-0.214296 2.66589 -1.55048e-17)
(-0.21703 2.69862 1.50208e-17)
(-0.21984 2.73222 -2.80785e-18)
(-0.222823 2.76671 -1.35669e-17)
(-0.226039 2.80184 1.29657e-17)
(-0.229356 2.8364 0)
(-0.232962 2.87097 -3.3115e-18)
(-0.236759 2.90871 0)
(-0.240642 2.9481 0)
(-0.244272 2.98694 0)
(-0.247673 3.02459 6.94525e-18)
(-0.250936 3.06111 -5.32235e-18)
(-0.25407 3.09656 -2.36697e-18)
(-0.257077 3.13095 -2.16151e-18)
(-0.259962 3.16431 9.8615e-19)
(-0.262727 3.19669 -8.96857e-19)
(-0.265377 3.2281 -3.14239e-18)
(-0.267918 3.25858 3.03275e-18)
(-0.270353 3.28817 2.53369e-18)
(-0.272685 3.31687 -1.83974e-19)
(-0.274919 3.34474 -6.19231e-18)
(-0.277056 3.37179 3.28277e-19)
(-0.279102 3.39805 3.41003e-18)
(-0.28106 3.42354 -3.54726e-19)
(-0.282933 3.4483 1.53092e-19)
(-0.284725 3.47234 -1.96991e-18)
(-0.28644 3.4957 1.89361e-18)
(-0.288079 3.51839 -9.18638e-20)
(-0.289648 3.54043 7.48234e-20)
(-0.291149 3.56185 7.84159e-19)
(-0.292586 3.58266 -1.38402e-18)
(-0.29396 3.60289 6.26232e-19)
(-0.295277 3.62255 2.34737e-19)
(-0.296538 3.64166 -2.94523e-19)
(-0.297746 3.66023 -1.13382e-20)
(-0.298905 3.67829 8.40607e-20)
(-0.300018 3.69584 -3.28897e-19)
(-0.301086 3.7129 3.14953e-19)
(-0.00802314 1.5571 8.54058e-17)
(-0.194006 1.62955 0)
(-0.169671 1.64927 1.89973e-16)
(-0.168125 1.65939 2.66619e-18)
(-0.169948 1.66959 -3.68915e-16)
(-0.171453 1.67898 3.34267e-16)
(-0.172739 1.68743 -1.35548e-16)
(-0.173945 1.69529 0)
(-0.175087 1.70285 9.68191e-17)
(-0.176189 1.71032 -1.57822e-16)
(-0.17728 1.7178 6.61865e-17)
(-0.178379 1.72539 -1.90054e-18)
(-0.179496 1.73316 5.56759e-17)
(-0.180633 1.74115 -1.04786e-16)
(-0.181793 1.7494 4.88419e-17)
(-0.182972 1.75797 -3.09247e-18)
(-0.184167 1.76686 4.97633e-17)
(-0.18537 1.77612 -4.81705e-17)
(-0.186563 1.78576 0)
(-0.187714 1.79577 5.64128e-17)
(-0.1888 1.80608 -6.62014e-17)
(-0.189826 1.81664 -3.77375e-18)
(-0.190789 1.82741 0)
(-0.191686 1.83838 -7.80471e-18)
(-0.192513 1.84954 0)
(-0.193267 1.86089 5.97855e-17)
(-0.193973 1.8724 3.69266e-18)
(-0.194701 1.88412 -6.89333e-17)
(-0.195481 1.89606 -3.75914e-18)
(-0.196314 1.90822 0)
(-0.197199 1.92056 0)
(-0.198141 1.93308 0)
(-0.199155 1.94579 -4.80429e-17)
(-0.200242 1.95873 5.25928e-17)
(-0.2014 1.97196 -6.18934e-18)
(-0.202626 1.9855 4.62562e-17)
(-0.203916 1.99941 -3.79414e-17)
(-0.205265 2.01369 3.9998e-17)
(-0.20667 2.0284 -3.72993e-17)
(-0.208129 2.04353 0)
(-0.209639 2.0591 3.98199e-17)
(-0.211199 2.07513 -2.97759e-17)
(-0.212808 2.09163 2.06005e-17)
(-0.214465 2.10861 -1.94057e-17)
(-0.216172 2.12607 6.01046e-18)
(-0.217928 2.14403 -5.62362e-18)
(-0.219737 2.1625 0)
(-0.2216 2.18148 1.04415e-22)
(-0.22352 2.20099 0)
(-0.225501 2.22105 3.03155e-17)
(-0.227545 2.24166 -3.70131e-17)
(-0.229657 2.26284 3.84469e-18)
(-0.23184 2.2846 -2.87144e-17)
(-0.234098 2.30698 2.39108e-17)
(-0.236434 2.32997 -3.1841e-18)
(-0.238852 2.35361 0)
(-0.241354 2.3779 0)
(-0.243942 2.40287 -2.09186e-17)
(-0.246618 2.42854 5.28214e-18)
(-0.249382 2.45493 1.87965e-17)
(-0.252235 2.48204 1.2995e-17)
(-0.255176 2.50991 -1.67065e-17)
(-0.258205 2.53854 0)
(-0.261319 2.56795 0)
(-0.264517 2.59815 -3.49927e-18)
(-0.267797 2.62916 0)
(-0.271157 2.66099 -3.13987e-18)
(-0.274593 2.69364 8.73684e-18)
(-0.278096 2.72714 -1.13853e-17)
(-0.281726 2.76153 5.27593e-18)
(-0.285611 2.79683 5.30011e-18)
(-0.289773 2.83256 6.23926e-18)
(-0.294102 2.86786 0)
(-0.298614 2.90439 4.90854e-18)
(-0.303311 2.94318 -3.88749e-18)
(-0.307901 2.98186 6.21552e-18)
(-0.312196 3.01939 -3.07108e-18)
(-0.316252 3.05579 1.04118e-17)
(-0.320148 3.09111 -5.51903e-19)
(-0.323893 3.12537 1.72283e-18)
(-0.327493 3.15861 -8.48712e-18)
(-0.330953 3.19086 6.34065e-18)
(-0.334276 3.22215 -5.36185e-18)
(-0.33747 3.2525 0)
(-0.340539 3.28196 6.95717e-19)
(-0.343488 3.31054 4.79313e-18)
(-0.346318 3.33827 -9.25355e-19)
(-0.349035 3.36519 -3.49705e-19)
(-0.351643 3.39132 -3.63409e-18)
(-0.354146 3.41668 5.01528e-22)
(-0.356547 3.44131 1.81932e-18)
(-0.35885 3.46522 -2.38281e-18)
(-0.361059 3.48845 1.76512e-18)
(-0.363179 3.51101 -1.79492e-18)
(-0.365212 3.53292 1.16439e-18)
(-0.367164 3.55422 -1.05459e-18)
(-0.369037 3.57491 0)
(-0.370835 3.59502 0)
(-0.372562 3.61457 2.70597e-19)
(-0.374223 3.63357 -2.29223e-19)
(-0.375819 3.65203 -4.44627e-22)
(-0.377355 3.66999 1.1538e-22)
(-0.378834 3.68744 -3.53706e-19)
(-0.380259 3.70441 3.38433e-19)
(-0.0405207 1.55748 -3.87233e-18)
(-0.228193 1.627 3.59536e-16)
(-0.20388 1.64718 -4.05261e-16)
(-0.202318 1.65712 1.98621e-16)
(-0.204115 1.66718 0)
(-0.205607 1.67663 0)
(-0.2069 1.68526 -9.6596e-18)
(-0.20818 1.69332 -1.25335e-16)
(-0.209445 1.70103 2.01162e-16)
(-0.210691 1.70859 -8.63552e-17)
(-0.211925 1.71613 0)
(-0.213153 1.72375 1.01469e-22)
(-0.214381 1.73151 -2.10706e-18)
(-0.215611 1.73948 0)
(-0.216842 1.74766 4.08997e-18)
(-0.218071 1.75609 4.11545e-18)
(-0.219295 1.76478 -4.17096e-18)
(-0.220512 1.77373 -4.23201e-18)
(-0.221726 1.78293 0)
(-0.22296 1.79237 0)
(-0.224211 1.8021 4.24098e-18)
(-0.225474 1.81214 3.68403e-22)
(-0.226745 1.82251 4.25634e-18)
(-0.228017 1.83321 3.64825e-22)
(-0.229287 1.84424 0)
(-0.230565 1.85556 -4.08773e-18)
(-0.23186 1.86713 -1.17172e-17)
(-0.233174 1.8789 -3.73692e-18)
(-0.234476 1.89087 0)
(-0.235747 1.90303 0)
(-0.237003 1.91538 -7.11742e-18)
(-0.238273 1.92792 6.95859e-18)
(-0.239581 1.94068 4.02928e-17)
(-0.240942 1.95368 -6.72791e-18)
(-0.242362 1.96695 -6.40296e-18)
(-0.243846 1.98054 -5.22094e-17)
(-0.245396 1.99446 -4.32447e-17)
(-0.247014 2.00877 5.06925e-17)
(-0.248698 2.02347 -3.75135e-17)
(-0.250447 2.03859 3.5081e-17)
(-0.252259 2.05415 -8.12081e-18)
(-0.254135 2.07016 0)
(-0.256072 2.08663 6.30233e-17)
(-0.258071 2.10358 -5.2595e-17)
(-0.260132 2.12101 -6.11211e-18)
(-0.262257 2.13894 5.71242e-18)
(-0.264447 2.15737 5.34511e-18)
(-0.266704 2.17633 -2.98483e-17)
(-0.269031 2.19581 3.77287e-17)
(-0.271431 2.21583 0)
(-0.273907 2.23641 -8.25771e-18)
(-0.276463 2.25757 0)
(-0.279103 2.27931 0)
(-0.281829 2.30166 -6.82259e-18)
(-0.284646 2.32463 0)
(-0.287556 2.34824 -6.00893e-18)
(-0.290562 2.37251 5.64131e-18)
(-0.293666 2.39746 -2.10285e-17)
(-0.29687 2.42309 2.50693e-17)
(-0.300175 2.44944 1.8581e-17)
(-0.303581 2.47652 -2.22377e-17)
(-0.30709 2.50434 8.32846e-18)
(-0.310701 2.53291 7.70116e-18)
(-0.314414 2.56226 -1.50425e-17)
(-0.318228 2.5924 1.3912e-17)
(-0.322145 2.62334 -1.34947e-17)
(-0.326164 2.65508 6.30316e-18)
(-0.330287 2.68765 1.17344e-17)
(-0.334507 2.72106 -1.13986e-17)
(-0.338823 2.75532 -5.27701e-18)
(-0.343305 2.79048 -9.89026e-18)
(-0.348101 2.82654 4.74892e-18)
(-0.35318 2.86308 1.57832e-17)
(-0.358417 2.8998 -5.85289e-18)
(-0.363796 2.93765 1.19754e-17)
(-0.369199 2.97585 -1.37708e-17)
(-0.374361 3.01316 -1.03275e-21)
(-0.379235 3.04938 -8.02705e-18)
(-0.383889 3.08454 1.30704e-17)
(-0.388362 3.11866 0)
(-0.392664 3.15176 0)
(-0.396804 3.18387 1.98153e-18)
(-0.400788 3.21503 -8.80642e-18)
(-0.404622 3.24524 6.80389e-18)
(-0.408312 3.27456 4.96912e-18)
(-0.411864 3.303 -4.204e-18)
(-0.415281 3.3306 3.96658e-18)
(-0.418568 3.35738 -3.88547e-18)
(-0.421728 3.38337 -4.65595e-19)
(-0.424767 3.40859 4.07793e-19)
(-0.427688 3.43308 3.53398e-19)
(-0.430495 3.45685 0)
(-0.433194 3.47994 0)
(-0.435788 3.50236 2.12756e-19)
(-0.438281 3.52414 1.72572e-19)
(-0.440677 3.5453 9.73661e-19)
(-0.442982 3.56586 -2.19359e-19)
(-0.445198 3.58584 -7.58234e-19)
(-0.44733 3.60526 2.67575e-19)
(-0.449383 3.62414 -2.66706e-19)
(-0.451359 3.64249 9.51812e-20)
(-0.453264 3.66033 -1.01583e-19)
(-0.4551 3.67768 -3.64501e-19)
(-0.456871 3.69454 -1.36861e-19)
(-0.0723547 1.55717 -8.54616e-17)
(-0.261449 1.62375 1.85132e-16)
(-0.237221 1.64436 -4.2099e-16)
(-0.235917 1.65422 2.11116e-16)
(-0.238005 1.66414 6.51402e-18)
(-0.239723 1.67343 -1.91791e-16)
(-0.241178 1.68191 3.33755e-16)
(-0.242562 1.68984 -1.35049e-16)
(-0.243898 1.69747 1.13427e-16)
(-0.245205 1.70497 -9.14777e-17)
(-0.246507 1.71245 0)
(-0.247816 1.71998 2.16019e-18)
(-0.24914 1.72764 -6.58744e-17)
(-0.250482 1.73547 6.10295e-17)
(-0.251848 1.74349 -3.69928e-18)
(-0.253239 1.75174 -5.8265e-17)
(-0.254656 1.76024 6.19746e-17)
(-0.256093 1.769 6.24258e-17)
(-0.257548 1.77807 -1.72391e-19)
(-0.259015 1.78744 -6.09272e-17)
(-0.260493 1.79712 -3.88044e-18)
(-0.261977 1.80711 3.95459e-18)
(-0.263464 1.8174 -1.20414e-17)
(-0.264951 1.82798 -4.05312e-18)
(-0.266433 1.83883 -7.3246e-17)
(-0.267905 1.84994 7.37159e-17)
(-0.269356 1.8613 4.94211e-22)
(-0.270774 1.87292 8.1046e-18)
(-0.272185 1.88479 -7.85522e-18)
(-0.273643 1.89691 7.45099e-18)
(-0.275175 1.90927 6.36811e-17)
(-0.276757 1.92186 -6.196e-17)
(-0.278372 1.93469 6.67012e-18)
(-0.28003 1.94777 2.67362e-22)
(-0.281743 1.96112 6.12215e-18)
(-0.283517 1.97477 5.79516e-18)
(-0.285357 1.98874 -9.24075e-17)
(-0.287266 2.00308 4.97851e-19)
(-0.289245 2.0178 8.5929e-17)
(-0.291294 2.03292 0)
(-0.293415 2.04847 0)
(-0.295607 2.06447 0)
(-0.297871 2.08092 -6.40936e-17)
(-0.300208 2.09784 5.34773e-17)
(-0.302617 2.11524 0)
(-0.305102 2.13313 0)
(-0.307664 2.15153 -4.85968e-17)
(-0.310304 2.17044 3.56981e-17)
(-0.313026 2.18989 3.78025e-17)
(-0.315833 2.20988 -3.57759e-17)
(-0.318728 2.23042 8.33881e-18)
(-0.321714 2.25154 0)
(-0.324795 2.27325 0)
(-0.327975 2.29557 1.37495e-17)
(-0.331255 2.3185 2.56238e-17)
(-0.33464 2.34208 -1.83272e-17)
(-0.338132 2.36631 -5.68264e-18)
(-0.341734 2.39121 0)
(-0.345446 2.4168 -2.49349e-17)
(-0.349273 2.4431 3.32101e-19)
(-0.353214 2.47013 2.2432e-17)
(-0.357271 2.49789 -1.68067e-17)
(-0.361445 2.5264 7.93741e-18)
(-0.365738 2.55569 0)
(-0.370151 2.58575 0)
(-0.374686 2.61661 6.54244e-18)
(-0.379344 2.64828 -3.4332e-19)
(-0.384131 2.68077 -3.47005e-19)
(-0.389048 2.7141 -5.81726e-18)
(-0.394095 2.74827 0)
(-0.399274 2.78329 9.94293e-18)
(-0.404654 2.81922 9.29281e-18)
(-0.410346 2.85605 -1.35803e-17)
(-0.416295 2.89357 -9.1067e-18)
(-0.422382 2.93138 0)
(-0.428471 2.96908 -2.05142e-17)
(-0.434377 3.00604 1.597e-17)
(-0.44001 3.04204 -1.00381e-21)
(-0.445396 3.07701 -2.67165e-18)
(-0.450574 3.11096 2.4683e-18)
(-0.45556 3.14391 2.27678e-18)
(-0.460362 3.17587 0)
(-0.464989 3.20688 0)
(-0.469446 3.23695 0)
(-0.473742 3.26613 -6.11642e-18)
(-0.477883 3.29443 -9.82154e-19)
(-0.481873 3.32188 1.15306e-17)
(-0.485717 3.34852 -5.33482e-18)
(-0.489419 3.37436 -3.33438e-18)
(-0.492984 3.39944 3.71498e-18)
(-0.496416 3.42378 0)
(-0.49972 3.44741 2.46753e-18)
(-0.502901 3.47035 -2.37914e-18)
(-0.505962 3.49262 0)
(-0.508908 3.51426 -3.76377e-19)
(-0.511743 3.53527 -1.06023e-18)
(-0.514473 3.55569 1.01768e-18)
(-0.517101 3.57553 -5.21237e-19)
(-0.519632 3.59482 4.99719e-19)
(-0.522071 3.61356 0)
(-0.524422 3.63179 1.08153e-19)
(-0.526689 3.64951 -1.0153e-19)
(-0.528876 3.66674 3.77798e-19)
(-0.530987 3.6835 -9.21857e-19)
(-0.533023 3.69979 5.62463e-19)
(-0.103126 1.55626 2.71256e-18)
(-0.293689 1.61992 0)
(-0.269478 1.64092 -2.09826e-16)
(-0.268237 1.65065 2.22051e-16)
(-0.270439 1.66044 -1.00738e-22)
(-0.272274 1.66969 -6.41204e-18)
(-0.273847 1.67816 0)
(-0.275364 1.68609 -1.40355e-16)
(-0.276839 1.6937 1.21853e-16)
(-0.27828 1.70116 0)
(-0.279705 1.7086 5.16021e-18)
(-0.281133 1.7161 0)
(-0.282575 1.72372 1.38728e-22)
(-0.284035 1.7315 -6.09097e-17)
(-0.285513 1.73948 1.17937e-16)
(-0.287009 1.74768 -5.81268e-17)
(-0.288527 1.75611 5.79207e-17)
(-0.290069 1.7648 -1.24118e-16)
(-0.291636 1.77374 5.92256e-17)
(-0.293227 1.78297 3.75797e-18)
(-0.29484 1.79248 -3.82356e-18)
(-0.296473 1.80228 -5.43042e-17)
(-0.298124 1.81237 7.10173e-17)
(-0.299791 1.82275 7.95724e-18)
(-0.301471 1.83342 7.98737e-18)
(-0.303164 1.84437 -7.94124e-18)
(-0.304877 1.8556 7.78949e-18)
(-0.306626 1.8671 0)
(-0.308421 1.87886 3.39064e-22)
(-0.310249 1.89086 -3.17234e-22)
(-0.31209 1.90312 -6.88593e-18)
(-0.313946 1.91564 0)
(-0.315838 1.92842 0)
(-0.317775 1.94148 1.07946e-16)
(-0.319768 1.95482 -8.56183e-17)
(-0.321822 1.96847 0)
(-0.323943 1.98246 -8.72894e-17)
(-0.326137 1.9968 1.43903e-16)
(-0.328405 2.01151 -8.68036e-17)
(-0.330751 2.02663 0)
(-0.333175 2.04217 -7.5055e-17)
(-0.335679 2.05814 6.25565e-17)
(-0.338264 2.07457 1.45146e-17)
(-0.340931 2.09145 -6.06519e-17)
(-0.343681 2.10882 4.43551e-17)
(-0.346516 2.12667 0)
(-0.349439 2.14503 4.3786e-17)
(-0.352451 2.1639 -5.15936e-17)
(-0.355556 2.1833 3.82743e-17)
(-0.358756 2.20325 -2.71915e-17)
(-0.362055 2.22376 -4.19631e-17)
(-0.365456 2.24483 3.17715e-17)
(-0.368962 2.2665 -7.40184e-18)
(-0.372577 2.28877 2.06426e-17)
(-0.376304 2.31166 -3.48804e-19)
(-0.380146 2.33519 -2.46088e-17)
(-0.384106 2.35937 0)
(-0.388186 2.38422 -3.21812e-17)
(-0.392389 2.40976 3.04314e-17)
(-0.396718 2.436 -1.92718e-17)
(-0.401175 2.46296 0)
(-0.405761 2.49066 8.49771e-18)
(-0.41048 2.5191 2.39111e-17)
(-0.415334 2.54831 7.2489e-18)
(-0.420324 2.5783 -3.40567e-19)
(-0.425454 2.60909 -6.95361e-18)
(-0.430728 2.64068 2.52849e-17)
(-0.436151 2.67309 -2.45387e-17)
(-0.441729 2.70634 -1.13952e-17)
(-0.447467 2.74044 2.10697e-17)
(-0.453373 2.77539 -1.54415e-17)
(-0.459457 2.81122 -1.8825e-17)
(-0.465764 2.84796 2.60186e-17)
(-0.472349 2.88563 -8.6513e-18)
(-0.479123 2.92371 0)
(-0.485873 2.96131 -6.66666e-18)
(-0.492425 2.99804 6.84081e-18)
(-0.498722 3.03381 -2.0778e-17)
(-0.504788 3.06859 1.43091e-17)
(-0.510634 3.10237 -5.19285e-18)
(-0.516272 3.13515 -1.173e-17)
(-0.52171 3.16696 5.69117e-19)
(-0.526956 3.19782 5.49065e-19)
(-0.532016 3.22775 7.77459e-18)
(-0.536899 3.25677 8.28511e-18)
(-0.541612 3.28493 -4.8468e-19)
(-0.54616 3.31224 -4.39028e-18)
(-0.550547 3.33873 1.23677e-18)
(-0.554778 3.36443 -4.174e-18)
(-0.558858 3.38936 5.01056e-18)
(-0.562792 3.41355 0)
(-0.566583 3.43703 2.69824e-18)
(-0.570237 3.45982 -4.57004e-18)
(-0.573758 3.48194 2.18779e-18)
(-0.57715 3.50342 1.70843e-18)
(-0.580418 3.52429 -1.44403e-18)
(-0.583567 3.54456 1.22946e-19)
(-0.586601 3.56425 -4.84053e-19)
(-0.589526 3.58339 4.93289e-19)
(-0.592345 3.60199 2.4131e-20)
(-0.595064 3.62008 -2.13156e-21)
(-0.597687 3.63767 0)
(-0.600219 3.65477 2.34179e-20)
(-0.602664 3.67141 -3.26592e-20)
(-0.605026 3.68759 -4.07382e-20)
(-0.607309 3.70333 1.57528e-18)
(-0.609513 3.71863 -1.64542e-18)
(-0.133088 1.55477 -8.81212e-17)
(-0.324965 1.61554 0)
(-0.300798 1.63688 2.31684e-16)
(-0.299702 1.64646 -2.30396e-16)
(-0.302093 1.6561 -7.19717e-18)
(-0.304088 1.66523 1.34602e-17)
(-0.305793 1.6736 1.86443e-16)
(-0.307424 1.68146 -1.5905e-16)
(-0.309005 1.68902 -7.84746e-18)
(-0.31055 1.69643 -1.09846e-16)
(-0.312079 1.70382 8.73971e-17)
(-0.313608 1.71125 4.72835e-18)
(-0.31515 1.71881 1.285e-22)
(-0.316714 1.72651 3.83478e-18)
(-0.318305 1.7344 3.58389e-18)
(-0.319925 1.7425 5.50743e-17)
(-0.32157 1.75083 -1.45672e-19)
(-0.323243 1.75941 -5.07326e-17)
(-0.324945 1.76826 0)
(-0.326679 1.77738 -3.44866e-18)
(-0.328444 1.78679 -4.90409e-17)
(-0.33024 1.79649 5.0058e-17)
(-0.332067 1.80648 5.77965e-17)
(-0.333926 1.81676 -5.85051e-17)
(-0.335817 1.82732 0)
(-0.337741 1.83817 7.29525e-18)
(-0.339693 1.84929 0)
(-0.341672 1.86068 7.11536e-18)
(-0.34368 1.87234 1.39213e-17)
(-0.345721 1.88428 -6.8205e-18)
(-0.347795 1.89648 6.73141e-18)
(-0.349901 1.90895 -1.32666e-17)
(-0.35205 1.92169 1.29723e-17)
(-0.35425 1.93472 -1.12964e-16)
(-0.356508 1.94804 9.70655e-17)
(-0.358831 1.96168 0)
(-0.361225 1.97566 8.73395e-17)
(-0.363696 1.98999 -6.21833e-17)
(-0.366247 2.0047 0)
(-0.368882 2.0198 0)
(-0.371602 2.03531 8.46395e-18)
(-0.37441 2.05126 0)
(-0.377307 2.06765 -7.35908e-18)
(-0.380294 2.0845 0)
(-0.383375 2.10182 -4.45771e-17)
(-0.38655 2.11963 4.79726e-17)
(-0.389821 2.13795 -1.11507e-17)
(-0.393193 2.15677 1.04194e-17)
(-0.396666 2.17613 0)
(-0.400245 2.19602 -9.11446e-18)
(-0.403933 2.21648 8.5318e-18)
(-0.407732 2.2375 7.99037e-18)
(-0.411647 2.25912 5.85347e-23)
(-0.41568 2.28133 0)
(-0.419835 2.30417 1.95754e-17)
(-0.424115 2.32764 -3.48942e-19)
(-0.428524 2.35176 -2.3393e-17)
(-0.433065 2.37655 1.09154e-17)
(-0.437741 2.40203 -1.01004e-17)
(-0.442554 2.4282 9.84528e-18)
(-0.447508 2.45509 -1.80774e-17)
(-0.452606 2.48272 2.58346e-17)
(-0.45785 2.51109 -2.45763e-17)
(-0.463244 2.54022 -2.28975e-17)
(-0.46879 2.57013 1.47129e-17)
(-0.474493 2.60083 -6.87288e-18)
(-0.480358 2.63234 -2.56204e-17)
(-0.486391 2.66467 1.2611e-17)
(-0.492597 2.69784 -5.41565e-18)
(-0.498985 2.73187 3.2977e-17)
(-0.505567 2.76676 -5.68758e-22)
(-0.512353 2.80254 6.47228e-22)
(-0.519359 2.83922 -1.75759e-17)
(-0.526599 2.87685 1.67459e-17)
(-0.533995 2.91494 -2.37884e-17)
(-0.54135 2.95252 -1.41696e-17)
(-0.548514 2.98912 2.06323e-17)
(-0.555449 3.02473 -1.22465e-17)
(-0.562151 3.05934 2.93344e-17)
(-0.568627 3.09295 -8.51888e-18)
(-0.574882 3.12557 9.85664e-18)
(-0.580925 3.15723 -9.7395e-18)
(-0.586764 3.18794 -1.062e-17)
(-0.592404 3.21772 6.31772e-18)
(-0.597851 3.24661 5.2492e-18)
(-0.603116 3.27462 -8.60818e-18)
(-0.608203 3.30179 -1.505e-18)
(-0.613116 3.32814 2.45248e-18)
(-0.617862 3.3537 -1.0763e-17)
(-0.622443 3.37848 4.4289e-18)
(-0.626866 3.40253 9.17408e-19)
(-0.631134 3.42585 0)
(-0.635252 3.44849 -3.35722e-19)
(-0.639225 3.47046 2.06148e-18)
(-0.643055 3.49179 -2.21508e-18)
(-0.646749 3.51249 -1.10389e-18)
(-0.650311 3.53261 2.17411e-18)
(-0.653746 3.55215 -9.02906e-19)
(-0.657058 3.57113 4.06309e-19)
(-0.660252 3.58959 -3.5837e-19)
(-0.663335 3.60753 2.69287e-19)
(-0.666309 3.62497 4.44778e-19)
(-0.669181 3.64194 -1.72137e-18)
(-0.671955 3.65844 9.79134e-19)
(-0.674635 3.67449 0)
(-0.677226 3.69011 5.26012e-20)
(-0.679732 3.7053 0)
(-0.682155 3.72008 -6.46557e-20)
(-0.162186 1.55279 8.93601e-17)
(-0.355298 1.61074 -4.12013e-16)
(-0.331142 1.6324 -6.91968e-18)
(-0.330155 1.64182 2.39413e-16)
(-0.332692 1.65129 0)
(-0.334826 1.66031 -7.06736e-18)
(-0.336659 1.66861 -1.96927e-16)
(-0.338417 1.67642 3.18053e-19)
(-0.340125 1.68392 1.24979e-16)
(-0.341795 1.69129 6.85036e-18)
(-0.343447 1.69862 8.6335e-17)
(-0.345101 1.706 -1.7884e-19)
(-0.346768 1.71348 -1.36509e-16)
(-0.348458 1.72111 5.59497e-17)
(-0.350174 1.72892 -5.90144e-17)
(-0.351923 1.73692 5.56305e-17)
(-0.353709 1.74515 0)
(-0.355534 1.75362 -6.47698e-18)
(-0.357396 1.76234 6.47068e-18)
(-0.359294 1.77134 -6.54505e-18)
(-0.361226 1.78063 1.06183e-16)
(-0.363194 1.7902 -1.08268e-16)
(-0.365196 1.80007 0)
(-0.36723 1.81023 0)
(-0.369295 1.82068 7.02371e-18)
(-0.371391 1.83142 0)
(-0.373518 1.84245 7.03866e-18)
(-0.375679 1.85376 1.04158e-16)
(-0.377878 1.86535 -1.23086e-16)
(-0.380123 1.87722 1.33543e-17)
(-0.382412 1.88937 1.31285e-17)