/*--------------------------------*- C++ -*----------------------------------*\
  =========                 |
  \\      /  F ield         | OpenFOAM: The Open Source CFD Toolbox
   \\    /   O peration     | Website:  https://openfoam.org
    \\  /    A nd           | Version:  10
     \\/     M anipulation  |
\*---------------------------------------------------------------------------*/
FoamFile
{
    format      ascii;
    class       volScalarField;
    location    "3100";
    object      k;
}
// * * * * * * * * * * * * * * * * * * * * * * * * * * * * * * * * * * * * * //

dimensions      [0 2 -2 0 0 0 0];

internalField   nonuniform List<scalar> 
420
(
2.22045e-16
2.22045e-16
2.22045e-16
2.22045e-16
2.22045e-16
2.22045e-16
2.22045e-16
2.22045e-16
2.22045e-16
2.22045e-16
2.22045e-16
2.22045e-16
2.22045e-16
2.22045e-16
2.22045e-16
2.22045e-16
2.22045e-16
2.22045e-16
2.22045e-16
2.22045e-16
2.22045e-16
2.22045e-16
2.22045e-16
2.22045e-16
2.22045e-16
2.22045e-16
2.22045e-16
2.22045e-16
2.22045e-16
2.22045e-16
2.22045e-16
2.22045e-16
2.22045e-16
2.22045e-16
2.22045e-16
2.22045e-16
2.22045e-16
2.22045e-16
2.22045e-16
2.22045e-16
2.22045e-16
2.22045e-16
2.22045e-16
2.22045e-16
2.22045e-16
2.22045e-16
2.22045e-16
2.22045e-16
2.22045e-16
2.22045e-16
2.22045e-16
2.22045e-16
2.22045e-16
2.22045e-16
2.22045e-16
2.22045e-16
2.22045e-16
2.22045e-16
2.22045e-16
2.22045e-16
2.22045e-16
2.22045e-16
2.22045e-16
2.22045e-16
2.22045e-16
2.22045e-16
2.22045e-16
2.22045e-16
2.22045e-16
2.22045e-16
2.22045e-16
2.22045e-16
2.22045e-16
2.22045e-16
2.22045e-16
2.22045e-16
2.22045e-16
2.22045e-16
2.22045e-16
2.22045e-16
2.22045e-16
2.22045e-16
2.22045e-16
2.22045e-16
2.22045e-16
2.22045e-16
2.22045e-16
2.22045e-16
2.22045e-16
2.22045e-16
2.22045e-16
2.22045e-16
2.22045e-16
2.22045e-16
2.22045e-16
2.22045e-16
2.22045e-16
2.22045e-16
2.22045e-16
2.22045e-16
2.22045e-16
2.22045e-16
2.22045e-16
2.62423e-16
2.93584e-16
2.7706e-16
2.45541e-16
2.22045e-16
2.22045e-16
3.56196e-16
2.22045e-16
2.22045e-16
2.22045e-16
2.6068e-16
2.94325e-16
2.79727e-16
2.49907e-16
2.22045e-16
2.22045e-16
3.55059e-16
2.22045e-16
2.22045e-16
2.22045e-16
2.57921e-16
2.93855e-16
2.81538e-16
2.54436e-16
2.22045e-16
2.22045e-16
3.54506e-16
2.22045e-16
2.22045e-16
2.22045e-16
2.55722e-16
2.93361e-16
2.83199e-16
2.59169e-16
2.22045e-16
2.22045e-16
3.53079e-16
2.22045e-16
2.22045e-16
2.22045e-16
2.54215e-16
2.92713e-16
2.84357e-16
2.63438e-16
2.22045e-16
2.22045e-16
3.51157e-16
2.22045e-16
2.22045e-16
2.22045e-16
2.5376e-16
2.9223e-16
2.84933e-16
2.66763e-16
2.22045e-16
2.22045e-16
3.48228e-16
2.22045e-16
2.22045e-16
2.22045e-16
2.54746e-16
2.9266e-16
2.84905e-16
2.68561e-16
2.22045e-16
2.22045e-16
3.44292e-16
2.22045e-16
2.22045e-16
2.22045e-16
2.57688e-16
2.9383e-16
2.84761e-16
2.68698e-16
2.22045e-16
2.22045e-16
3.39697e-16
2.22045e-16
2.22045e-16
2.22045e-16
2.63135e-16
2.95652e-16
2.84575e-16
2.67625e-16
2.22045e-16
2.22045e-16
3.34821e-16
2.22045e-16
2.22045e-16
2.22045e-16
2.71118e-16
2.97745e-16
2.84231e-16
2.6642e-16
2.22045e-16
2.22045e-16
3.29938e-16
2.22045e-16
2.22045e-16
2.22045e-16
2.80263e-16
2.98998e-16
2.83585e-16
2.65521e-16
2.22045e-16
2.22045e-16
3.24742e-16
2.22045e-16
2.22045e-16
2.34717e-16
2.83316e-16
2.99541e-16
2.82276e-16
2.64097e-16
2.22045e-16
2.22045e-16
3.20413e-16
2.22045e-16
2.22045e-16
2.5057e-16
2.86282e-16
3.01352e-16
2.81278e-16
2.61819e-16
2.22045e-16
2.22045e-16
3.16861e-16
2.22045e-16
2.34642e-16
2.63132e-16
2.88955e-16
3.04032e-16
2.801e-16
2.57794e-16
2.22045e-16
2.22045e-16
3.14493e-16
2.3388e-16
2.48894e-16
2.64759e-16
2.89436e-16
3.05531e-16
2.78761e-16
2.53399e-16
2.22045e-16
2.22045e-16
3.12357e-16
2.40806e-16
2.48939e-16
2.6278e-16
2.89088e-16
3.06284e-16
2.77339e-16
2.48097e-16
2.22045e-16
2.22045e-16
3.11478e-16
2.39004e-16
2.46242e-16
2.60241e-16
2.88628e-16
3.0653e-16
2.7603e-16
2.42848e-16
2.22045e-16
2.22045e-16
3.11813e-16
2.35225e-16
2.42713e-16
2.57497e-16
2.87972e-16
3.05767e-16
2.74484e-16
2.38117e-16
2.22045e-16
2.22045e-16
3.13768e-16
2.30584e-16
2.38222e-16
2.53598e-16
2.86187e-16
3.03491e-16
2.7242e-16
2.33768e-16
2.22045e-16
2.22045e-16
3.17362e-16
2.25668e-16
2.32317e-16
2.47188e-16
2.82174e-16
2.99578e-16
2.69412e-16
2.292e-16
2.22045e-16
2.22045e-16
3.21062e-16
2.22045e-16
2.25218e-16
2.38374e-16
2.75992e-16
2.94121e-16
2.65854e-16
2.24407e-16
2.22045e-16
2.22045e-16
3.25594e-16
2.22045e-16
2.22045e-16
2.29604e-16
2.71033e-16
2.92105e-16
2.65775e-16
2.22999e-16
2.22045e-16
2.22045e-16
3.39605e-16
2.22045e-16
2.22045e-16
2.22045e-16
2.28477e-16
2.31786e-16
2.29905e-16
2.26689e-16
2.23177e-16
2.22045e-16
2.22045e-16
2.22045e-16
2.22045e-16
2.22045e-16
2.22045e-16
2.22099e-16
2.24123e-16
2.22481e-16
2.22045e-16
2.22045e-16
2.22045e-16
2.22045e-16
2.22045e-16
2.22045e-16
2.22045e-16
2.22045e-16
2.22045e-16
2.22045e-16
2.22045e-16
2.22045e-16
2.22045e-16
2.22045e-16
2.22045e-16
2.22045e-16
2.22045e-16
2.22045e-16
2.22045e-16
2.22045e-16
2.22045e-16
2.22045e-16
2.22045e-16
2.22045e-16
2.22045e-16
2.22045e-16
2.22045e-16
2.22045e-16
2.22045e-16
2.22045e-16
2.22045e-16
2.22045e-16
2.22045e-16
2.22045e-16
2.22045e-16
2.22045e-16
2.22045e-16
2.22045e-16
2.22045e-16
2.22045e-16
2.22045e-16
2.22045e-16
2.22045e-16
2.22045e-16
2.22045e-16
2.22045e-16
2.22045e-16
2.22045e-16
2.22045e-16
2.22045e-16
2.22045e-16
2.22045e-16
2.22045e-16
2.22045e-16
2.22045e-16
2.22045e-16
2.22045e-16
2.22045e-16
2.22045e-16
2.22045e-16
2.22045e-16
2.22045e-16
2.22045e-16
2.22045e-16
2.22045e-16
2.22045e-16
2.22045e-16
2.22045e-16
2.22045e-16
2.22045e-16
2.22045e-16
2.22045e-16
2.22045e-16
2.22045e-16
2.22045e-16
2.22045e-16
2.22045e-16
2.22045e-16
2.22045e-16
2.22045e-16
2.22045e-16
2.22045e-16
2.22045e-16
)
;

boundaryField
{
    right
    {
        type            cyclic;
    }
    left
    {
        type            cyclic;
    }
    outerWall
    {
        type            kqRWallFunction;
        value           nonuniform List<scalar> 
22
(
3.56196e-16
3.55059e-16
3.54506e-16
3.53079e-16
3.51157e-16
3.48228e-16
3.44292e-16
3.39697e-16
3.34821e-16
3.29938e-16
3.24742e-16
3.20413e-16
3.16861e-16
3.14493e-16
3.12357e-16
3.11478e-16
3.11813e-16
3.13768e-16
3.17362e-16
3.21062e-16
3.25594e-16
3.39605e-16
)
;
    }
    stirrerWall
    {
        type            kqRWallFunction;
        value           uniform 2.22045e-16;
    }
    top
    {
        type            empty;
    }
    bottom
    {
        type            empty;
    }
}


// ************************************************************************* //
