/*--------------------------------*- C++ -*----------------------------------*\
  =========                 |
  \\      /  F ield         | OpenFOAM: The Open Source CFD Toolbox
   \\    /   O peration     | Website:  https://openfoam.org
    \\  /    A nd           | Version:  10
     \\/     M anipulation  |
\*---------------------------------------------------------------------------*/
FoamFile
{
    format      ascii;
    class       volScalarField;
    location    "3100";
    object      nut;
}
// * * * * * * * * * * * * * * * * * * * * * * * * * * * * * * * * * * * * * //

dimensions      [0 2 -1 0 0 0 0];

internalField   nonuniform List<scalar> 
420
(
1.04478e-20
6.40551e-20
1.88987e-19
3.64065e-19
5.61301e-19
7.47967e-19
8.60232e-19
8.35549e-19
7.1799e-19
5.90549e-19
1.04473e-20
6.38833e-20
1.85165e-19
3.56276e-19
5.51834e-19
7.40363e-19
8.60456e-19
8.45903e-19
7.11309e-19
5.61825e-19
1.04471e-20
6.38017e-20
1.82427e-19
3.50262e-19
5.42264e-19
7.27374e-19
8.45999e-19
8.31285e-19
6.90754e-19
5.25184e-19
1.04472e-20
6.37895e-20
1.80889e-19
3.43817e-19
5.26326e-19
6.98819e-19
8.07137e-19
7.87934e-19
6.42774e-19
4.72076e-19
1.04476e-20
6.37187e-20
1.78724e-19
3.29904e-19
4.89986e-19
6.35506e-19
7.24683e-19
7.03018e-19
5.64873e-19
4.02477e-19
1.04483e-20
6.31069e-20
1.69618e-19
2.9092e-19
4.07335e-19
5.09544e-19
5.74784e-19
5.63101e-19
4.55982e-19
3.19548e-19
1.04493e-20
6.0067e-20
1.38967e-19
2.0784e-19
2.69118e-19
3.25216e-19
3.68527e-19
3.77021e-19
3.23633e-19
2.29766e-19
1.04506e-20
4.77959e-20
8.07906e-20
1.05262e-19
1.29107e-19
1.53611e-19
1.77206e-19
1.93331e-19
1.86571e-19
1.41355e-19
1.04522e-20
2.15553e-20
2.81011e-20
3.46941e-20
4.19064e-20
4.97583e-20
5.81305e-20
6.64206e-20
7.26216e-20
6.44221e-20
2.82342e-21
3.6643e-21
4.61494e-21
5.67535e-21
6.84552e-21
8.12545e-21
9.51514e-21
1.10146e-20
1.26238e-20
1.43428e-20
4.97227e-19
4.58621e-19
5.00376e-19
7.62317e-19
1.07172e-18
1.05188e-18
7.05268e-19
5.52898e-19
2.47773e-19
9.70531e-20
4.54822e-19
4.13471e-19
4.60272e-19
7.26717e-19
1.0637e-18
1.02035e-18
6.98839e-19
5.60835e-19
2.50104e-19
9.85283e-20
4.08362e-19
3.68207e-19
4.2202e-19
6.91684e-19
1.05349e-18
1.01329e-18
6.98159e-19
5.68136e-19
2.54399e-19
9.82112e-20
3.56435e-19
3.22212e-19
3.8484e-19
6.60185e-19
1.04339e-18
1.00343e-18
6.87096e-19
5.74654e-19
2.58918e-19
9.82105e-20
2.97484e-19
2.76183e-19
3.49628e-19
6.33626e-19
1.03366e-18
9.93123e-19
6.68823e-19
5.78277e-19
2.63038e-19
9.76798e-20
2.34441e-19
2.30617e-19
3.17184e-19
6.14261e-19
1.01565e-18
9.87319e-19
6.4843e-19
5.80046e-19
2.67752e-19
9.68654e-20
1.71392e-19
1.86675e-19
2.87616e-19
6.05405e-19
1.01887e-18
9.68244e-19
6.30098e-19
5.80453e-19
2.71749e-19
9.59938e-20
1.12931e-19
1.45893e-19
2.62292e-19
6.10851e-19
1.03163e-18
9.67846e-19
6.11682e-19
5.79364e-19
2.73523e-19
9.48318e-20
6.41794e-20
1.09916e-19
2.43924e-19
6.37425e-19
1.04575e-18
9.82561e-19
6.12674e-19
5.76503e-19
2.72971e-19
9.34597e-20
2.97002e-20
8.05164e-20
2.39137e-19
6.95738e-19
1.01402e-18
1.01251e-18
6.58455e-19
5.71821e-19
2.71985e-19
9.20843e-20
1.03958e-20
6.3754e-20
2.72866e-19
7.96537e-19
9.70685e-19
9.63778e-19
5.96985e-19
5.65024e-19
2.71123e-19
9.08209e-20
1.03958e-20
7.82042e-20
3.63393e-19
7.71311e-19
9.58729e-19
9.58278e-19
5.53337e-19
5.61073e-19
2.76137e-19
8.96101e-20
5.19213e-20
1.97661e-19
5.69712e-19
7.93132e-19
9.83715e-19
9.65706e-19
5.78453e-19
5.57156e-19
2.744e-19
8.84348e-20
2.44541e-19
5.04724e-19
6.63808e-19
7.79944e-19
9.51007e-19
1.02381e-18
5.98492e-19
5.5012e-19
2.70849e-19
8.77856e-20
5.5925e-19
6.18171e-19
6.50898e-19
7.58966e-19
9.19426e-19
1.03534e-18
5.86469e-19
5.40619e-19
2.67318e-19
8.71993e-20
6.36449e-19
6.2931e-19
6.4896e-19
7.60913e-19
9.18429e-19
1.04363e-18
5.9289e-19
5.30628e-19
2.62784e-19
8.69624e-20
6.49567e-19
6.18583e-19
6.42557e-19
7.65127e-19
9.28336e-19
1.0347e-18
6.05537e-19
5.20744e-19
2.57946e-19
8.70622e-20
6.39099e-19
6.01094e-19
6.43023e-19
7.93266e-19
9.85325e-19
1.02393e-18
6.21253e-19
5.13563e-19
2.54867e-19
8.7613e-20
6.34504e-19
6.25995e-19
7.16787e-19
9.06757e-19
1.12423e-18
1.01182e-18
6.16833e-19
5.09407e-19
2.5319e-19
8.86195e-20
6.07161e-19
5.98904e-19
6.77123e-19
9.09092e-19
1.1133e-18
9.66913e-19
5.79966e-19
5.07296e-19
2.5167e-19
8.96537e-20
5.67993e-19
5.5048e-19
6.26389e-19
8.75999e-19
1.09716e-18
9.9263e-19
6.33578e-19
5.08538e-19
2.44905e-19
9.09184e-20
5.34918e-19
5.05606e-19
5.67921e-19
8.36353e-19
1.08675e-18
1.00199e-18
7.00558e-19
5.25224e-19
2.38155e-19
9.4828e-20
1.43428e-20
1.12999e-19
4.01155e-19
6.37183e-19
6.89282e-19
6.97471e-19
6.95224e-19
6.64941e-19
6.36615e-19
6.12466e-19
1.26238e-20
8.53437e-20
2.97813e-19
5.85197e-19
7.39582e-19
7.81318e-19
7.67661e-19
7.48248e-19
7.30535e-19
7.19332e-19
1.10146e-20
6.81627e-20
2.20569e-19
4.67193e-19
6.85741e-19
7.94509e-19
8.28038e-19
8.3131e-19
8.25797e-19
8.24842e-19
9.51514e-21
5.34438e-20
1.57289e-19
3.35649e-19
5.49723e-19
7.14486e-19
8.0579e-19
8.47367e-19
8.61081e-19
8.6104e-19
8.12545e-21
4.51448e-20
1.23886e-19
2.46769e-19
4.01183e-19
5.51718e-19
6.66052e-19
7.35749e-19
7.66891e-19
7.63714e-19
6.84552e-21
3.85204e-20
1.03118e-19
1.94934e-19
3.03002e-19
4.09804e-19
4.97306e-19
5.55602e-19
5.82798e-19
5.77543e-19
5.67535e-21
3.24157e-20
8.62779e-20
1.57464e-19
2.31939e-19
2.96606e-19
3.43261e-19
3.70457e-19
3.80521e-19
3.74926e-19
4.61494e-21
2.66001e-20
6.92761e-20
1.17235e-19
1.54973e-19
1.77974e-19
1.89375e-19
1.93587e-19
1.93715e-19
1.91508e-19
3.6643e-21
2.06737e-20
4.38047e-20
5.73435e-20
6.31076e-20
6.47034e-20
6.49695e-20
6.48112e-20
6.4514e-20
6.42141e-20
2.82342e-21
1.04522e-20
1.04506e-20
1.04493e-20
1.04483e-20
1.04476e-20
1.04472e-20
1.04471e-20
1.04473e-20
1.04478e-20
)
;

boundaryField
{
    right
    {
        type            cyclic;
    }
    left
    {
        type            cyclic;
    }
    outerWall
    {
        type            nutkWallFunction;
        Cmu             0.09;
        kappa           0.41;
        E               9.8;
        value           uniform 0;
    }
    stirrerWall
    {
        type            nutkWallFunction;
        Cmu             0.09;
        kappa           0.41;
        E               9.8;
        value           uniform 0;
    }
    top
    {
        type            empty;
    }
    bottom
    {
        type            empty;
    }
}


// ************************************************************************* //
