/*--------------------------------*- C++ -*----------------------------------*\
  =========                 |
  \\      /  F ield         | OpenFOAM: The Open Source CFD Toolbox
   \\    /   O peration     | Website:  https://openfoam.org
    \\  /    A nd           | Version:  10
     \\/     M anipulation  |
\*---------------------------------------------------------------------------*/
FoamFile
{
    format      ascii;
    class       volScalarField;
    location    "3100";
    object      omega;
}
// * * * * * * * * * * * * * * * * * * * * * * * * * * * * * * * * * * * * * //

dimensions      [0 0 -1 0 0 0 0];

internalField   nonuniform List<scalar> 
420
(
21252.7
3466.46
1174.92
609.904
395.589
296.864
258.122
265.747
309.259
375.997
21253.7
3475.78
1199.17
623.238
402.376
299.913
258.054
262.494
312.163
395.22
21254.2
3480.23
1217.17
633.939
409.477
305.269
262.464
267.11
321.453
422.794
21254
3480.9
1227.52
645.823
421.876
317.743
275.102
281.806
345.447
470.358
21253.2
3484.76
1242.39
673.057
453.165
349.398
306.403
315.845
393.088
551.695
21251.7
3518.55
1309.09
763.248
545.116
435.771
386.31
394.325
486.959
694.871
21249.7
3696.62
1597.82
1068.34
825.082
682.761
602.52
588.945
686.101
966.393
21247.1
4645.68
2748.4
2109.45
1719.85
1445.5
1253.03
1148.52
1190.14
1570.83
21243.8
10301.1
7901.64
6400.07
5298.58
4462.46
3819.76
3343.01
3057.56
3446.72
78643.9
60596.7
48114.3
39124.4
32436.5
27327.1
23335.9
20159.1
17589.3
15481.3
446.566
484.157
443.756
344.244
273.937
263.396
311.008
401.602
896.163
3581.27
488.201
537.026
482.421
358.709
276.698
263.199
310.612
395.918
887.809
3581.17
543.745
603.042
526.147
372.889
278.935
262.75
310.412
390.83
872.82
3581.13
622.96
689.127
576.979
387.35
281.161
262.499
310.598
386.397
857.587
3581.18
746.408
803.977
635.087
401.207
283.18
262.435
311.057
383.976
844.155
3581.3
947.122
962.829
700.049
413.113
284.857
262.583
311.645
382.805
829.292
3581.49
1295.54
1189.47
772.018
420.786
285.507
262.877
312.265
382.537
817.094
3581.76
1966.21
1521.97
846.554
421.85
284.821
263.143
313.089
383.256
811.794
3582.1
3459.75
2020.14
910.302
412.81
282.684
263.444
313.874
385.158
813.436
3582.51
7476.2
2757.76
928.526
389.684
279.34
263.923
315.154
388.311
816.386
3582.99
21359.1
3482.84
813.749
351.851
275.497
264.591
318.257
392.983
818.981
3575.63
21359.1
2839.29
645.904
330.829
274.123
264.535
319.095
395.75
804.111
3575.63
4276.56
1123.36
439.818
311.672
272.592
264.205
319.017
398.533
809.201
3582.99
908.007
464.891
343.748
302.916
272.414
264.416
319.49
403.629
819.811
3582.51
401.87
347.149
329.069
302.402
272.25
265.036
320.955
410.723
830.638
3582.1
331.502
337.352
331.958
303.226
271.681
265.744
321.793
418.456
844.971
3581.76
329.932
345.38
338.014
304.343
271.055
266.773
322.526
426.399
860.818
3581.49
340.837
357.19
345.111
305.645
270.557
268.07
323.186
432.361
871.218
3581.3
355.102
371.129
353.798
307.527
269.954
269.238
323.854
435.888
876.987
3581.18
371.678
387.903
365.057
310.391
269.089
269.466
323.352
437.702
882.283
3581.13
390.929
409.129
380.553
315.06
268.074
267.828
319.976
436.634
906.655
3581.17
415.1
439.165
404.289
324.066
268.788
265.248
314.677
422.762
932.353
3581.27
15481.3
1965.01
553.513
339.685
309.277
312.591
323.144
335.634
348.79
362.542
17589.3
2601.77
745.585
379.435
300.303
286.852
289.817
296.753
303.948
308.682
20159.1
3257.57
1006.69
475.273
323.803
279.474
268.157
267.102
268.885
269.197
23335.9
4154.73
1411.7
661.538
403.921
310.775
275.562
262.041
257.867
257.88
27327.1
4918.49
1792.33
899.809
553.475
402.461
333.374
301.794
289.539
290.743
32436.5
5764.34
2153.31
1139.08
732.817
541.831
446.495
399.647
380.998
384.464
39124.4
6849.91
2573.6
1410.13
957.34
748.618
646.868
599.381
583.528
592.235
48114.3
8347.52
3205.21
1894.01
1432.8
1247.62
1172.52
1147
1146.24
1159.45
60596.7
10740.4
5068.97
3872.18
3518.51
3431.73
3417.67
3426.02
3441.8
3457.88
78643.9
21243.8
21247.1
21249.7
21251.7
21253.2
21254
21254.2
21253.7
21252.7
)
;

boundaryField
{
    right
    {
        type            cyclic;
    }
    left
    {
        type            cyclic;
    }
    outerWall
    {
        beta1           0.075;
        blended         0;
        type            omegaWallFunction;
        value           nonuniform List<scalar> 
22
(
3581.27
3581.17
3581.13
3581.18
3581.3
3581.49
3581.76
3582.1
3582.51
3582.99
3575.63
3575.63
3582.99
3582.51
3582.1
3581.76
3581.49
3581.3
3581.18
3581.13
3581.17
3581.27
)
;
    }
    stirrerWall
    {
        beta1           0.075;
        blended         0;
        type            omegaWallFunction;
        value           nonuniform List<scalar> 
42
(
21252.7
21253.7
21254.2
21254
21253.2
21251.7
21249.7
21247.1
21243.8
78643.9
78643.9
60596.7
48114.3
39124.4
32436.5
27327.1
23335.9
20159.1
17589.3
15481.3
21359.1
21359.1
15481.3
17589.3
20159.1
23335.9
27327.1
32436.5
39124.4
48114.3
60596.7
78643.9
78643.9
21243.8
21247.1
21249.7
21251.7
21253.2
21254
21254.2
21253.7
21252.7
)
;
    }
    top
    {
        type            empty;
    }
    bottom
    {
        type            empty;
    }
}


// ************************************************************************* //
