/*--------------------------------*- C++ -*----------------------------------*\
  =========                 |
  \\      /  F ield         | OpenFOAM: The Open Source CFD Toolbox
   \\    /   O peration     | Website:  https://openfoam.org
    \\  /    A nd           | Version:  10
     \\/     M anipulation  |
\*---------------------------------------------------------------------------*/
FoamFile
{
    format      ascii;
    class       volScalarField;
    location    "3100";
    object      p;
}
// * * * * * * * * * * * * * * * * * * * * * * * * * * * * * * * * * * * * * //

dimensions      [0 2 -2 0 0 0 0];

internalField   nonuniform List<scalar> 
420
(
0.534906
15.9672
31.5873
49.4375
68.8914
89.3977
110.531
131.751
152.624
172.635
0.654551
15.4902
30.8022
48.3803
67.6731
88.2001
109.559
131.145
152.353
172.628
0.612386
15.1226
30.1435
47.4364
66.5439
87.0669
108.609
130.508
152.057
172.638
0.515475
14.8471
29.6239
46.6358
65.5261
85.9758
107.618
129.778
151.667
172.593
0.410587
14.6765
29.2545
45.9856
64.6114
84.8969
106.534
128.891
151.121
172.457
0.32169
14.6231
29.0428
45.4853
63.7891
83.8091
105.315
127.784
150.362
172.184
0.251786
14.6907
28.9914
45.1302
63.051
82.6954
103.93
126.402
149.352
171.823
0.190165
14.8789
29.0991
44.9147
62.4042
81.5732
102.387
124.677
147.954
171.235
0.0926566
15.1964
29.3461
44.8299
61.8897
80.5372
100.781
122.583
145.714
169.398
-0.093756
15.619
29.5819
44.7912
61.5267
79.7391
99.4117
120.497
142.741
165.772
191.284
208.999
225.923
241.745
256.457
270.142
282.586
302.292
301.403
339.247
191.461
209.26
226.2
242.061
256.886
270.712
283.495
303.645
303.196
335.387
191.694
209.618
226.607
242.56
257.551
271.568
284.589
305.05
305.104
334.203
191.938
210.018
227.062
243.131
258.313
272.552
285.787
306.543
307.499
334.317
192.151
210.406
227.51
243.712
259.078
273.555
287.006
308.044
309.444
333.84
192.31
210.727
227.899
244.267
259.792
274.481
288.087
309.336
310.673
333.03
192.527
210.976
228.17
244.76
260.432
275.291
288.942
310.222
311.217
331.954
192.847
211.167
228.245
245.132
261.018
276.051
289.709
310.973
311.806
330.719
192.629
211.486
228.38
245.47
261.589
276.81
290.525
312.133
313.746
329.311
191.23
212.413
229.087
245.934
262.09
277.427
291.279
313.862
314.743
327.682
190.386
212.91
229.779
246.39
262.318
277.473
290.433
315.466
308.254
325.629
191.285
212.911
230.116
246.44
262.052
276.887
289.301
313.011
303.026
323.583
196.536
213.562
230.488
246.645
261.942
276.367
288.791
307.414
302.874
323.03
196.217
213.254
230.172
246.357
261.539
275.736
287.745
304.558
301.912
319.731
194.97
212.412
229.483
245.721
260.86
274.918
286.74
302.813
299.914
317.692
193.853
211.431
228.631
244.932
260.067
274.048
285.773
301.136
298.078
317.257
192.967
210.56
227.813
244.164
259.335
273.378
285.252
300.248
297.158
318.232
192.27
209.864
227.128
243.51
258.755
273.035
285.373
300.363
298.089
323.804
191.754
209.366
226.611
242.982
258.27
272.757
285.444
300.549
301.765
338.694
191.394
209.032
226.22
242.502
257.682
272.002
284.243
298.996
305.26
360.335
191.152
208.799
225.866
241.931
256.798
270.602
282.17
296.891
304.148
364.861
191.142
208.789
225.701
241.491
256.111
269.7
281.516
299.273
303.077
344.173
180.227
177.862
176.415
175.504
174.791
174.17
173.635
173.188
172.83
172.669
155.19
155.486
155.698
155.653
155.396
154.978
154.464
153.912
153.351
152.915
129.051
131.545
133.556
134.623
135.021
134.942
134.531
133.915
133.15
132.391
105.304
108.159
111.052
112.939
113.945
114.253
114.023
113.417
112.541
111.53
84.1745
86.4284
89.1854
91.3137
92.6211
93.1942
93.1473
92.614
91.7249
90.6055
65.1784
66.6593
68.7343
70.541
71.779
72.3988
72.4478
72.003
71.1834
70.1065
48.0601
48.8833
50.101
51.2587
52.1103
52.539
52.5366
52.1421
51.4314
50.5013
32.7399
33.0449
33.469
33.8752
34.1673
34.2607
34.1118
33.7227
33.1307
32.4045
19.2753
19.0397
18.8182
18.6312
18.4631
18.2589
17.9729
17.5865
17.0985
16.5483
6.95127
5.71981
4.6659
3.97114
3.4851
3.07647
2.67532
2.24625
1.76416
1.22131
)
;

boundaryField
{
    right
    {
        type            cyclic;
    }
    left
    {
        type            cyclic;
    }
    outerWall
    {
        type            zeroGradient;
    }
    stirrerWall
    {
        type            zeroGradient;
    }
    top
    {
        type            empty;
    }
    bottom
    {
        type            empty;
    }
}


// ************************************************************************* //
