/*--------------------------------*- C++ -*----------------------------------*\
  =========                 |
  \\      /  F ield         | OpenFOAM: The Open Source CFD Toolbox
   \\    /   O peration     | Website:  https://openfoam.org
    \\  /    A nd           | Version:  10
     \\/     M anipulation  |
\*---------------------------------------------------------------------------*/
FoamFile
{
    format      ascii;
    class       surfaceScalarField;
    location    "3100";
    object      phi;
}
// * * * * * * * * * * * * * * * * * * * * * * * * * * * * * * * * * * * * * //

dimensions      [0 3 -1 0 0 0 0];

internalField   nonuniform List<scalar> 
788
(
-2.09183e-06
-7.60199e-06
7.91944e-08
9.72353e-06
1.35323e-06
1.36925e-05
2.054e-06
1.49633e-05
2.03321e-06
1.41346e-05
1.11691e-06
1.1511e-05
-6.42432e-07
7.02688e-06
-3.05069e-06
-5.77819e-07
-5.10145e-06
-1.28232e-05
-2.93673e-05
-6.41359e-06
-7.65395e-07
-6.83971e-06
6.21222e-07
8.30251e-06
2.02116e-06
1.22241e-05
2.97934e-06
1.39391e-05
3.18623e-06
1.3859e-05
2.57085e-06
1.20604e-05
1.40017e-06
8.15318e-06
-1.32036e-07
9.6074e-07
-1.69303e-06
-1.12014e-05
-2.79505e-05
-3.04965e-06
-2.27944e-07
-6.62917e-06
8.09273e-07
7.21589e-06
2.14209e-06
1.082e-05
3.23643e-06
1.27698e-05
3.78877e-06
1.32244e-05
3.80331e-06
1.19725e-05
3.44013e-06
8.48104e-06
2.78546e-06
1.63682e-06
1.52159e-06
-9.87171e-06
-2.62468e-05
-1.05092e-07
-1.32136e-07
-6.51669e-06
7.92844e-07
6.23673e-06
2.1609e-06
9.37487e-06
3.51771e-06
1.13315e-05
4.56691e-06
1.20902e-05
5.2653e-06
1.12003e-05
5.5119e-06
8.1917e-06
5.27691e-06
1.88129e-06
4.09544e-06
-8.63291e-06
-2.42512e-05
2.18506e-06
-2.40371e-07
-6.295e-06
6.17196e-07
5.32435e-06
2.06312e-06
7.84993e-06
3.72058e-06
9.59268e-06
5.25099e-06
1.04757e-05
6.44738e-06
9.92753e-06
7.01337e-06
7.57404e-06
6.73705e-06
2.16155e-06
5.40324e-06
-7.22824e-06
-2.20811e-05
3.36061e-06
-4.72668e-07
-5.84089e-06
3.12143e-07
4.48359e-06
1.8422e-06
6.23992e-06
3.75384e-06
7.59969e-06
5.68855e-06
8.45483e-06
7.21589e-06
8.31523e-06
7.89322e-06
6.8293e-06
7.36819e-06
2.67416e-06
5.72809e-06
-5.51236e-06
-1.97357e-05
3.54541e-06
-8.11118e-07
-5.0492e-06
-7.50886e-08
3.69001e-06
1.55562e-06
4.52858e-06
3.65655e-06
5.415e-06
5.86326e-06
6.15601e-06
7.69349e-06
6.38824e-06
8.60516e-06
5.83223e-06
8.01569e-06
3.2277e-06
6.11602e-06
-3.54341e-06
-1.69624e-05
3.53786e-06
-1.27343e-06
-3.79655e-06
-4.59489e-07
2.81607e-06
1.29055e-06
2.69717e-06
3.46434e-06
3.15513e-06
5.79446e-06
3.72938e-06
7.91443e-06
4.16454e-06
9.37594e-06
4.2734e-06
9.36449e-06
3.1809e-06
7.14189e-06
-1.26587e-06
-1.27917e-05
3.19691e-06
-1.89259e-06
-1.92605e-06
-6.09601e-07
1.47596e-06
1.11084e-06
9.09594e-07
3.03011e-06
1.17175e-06
5.09354e-06
1.59001e-06
7.07858e-06
2.08018e-06
8.6965e-06
2.54163e-06
9.25611e-06
2.53668e-06
7.10311e-06
9.25949e-07
-6.66779e-06
1.22338e-06
-1.94344e-06
-4.90015e-07
3.98223e-07
1.53848e-06
3.08029e-06
5.09983e-06
7.58515e-06
1.01074e-05
1.11185e-05
4.65718e-06
-7.02449e-06
-5.00345e-05
-7.17513e-06
-8.1817e-05
-7.19223e-06
-0.000123804
-7.48867e-06
-0.000176005
-7.81551e-06
-0.000241187
-7.10009e-06
-0.000322085
-4.12126e-06
-0.00042612
-2.39469e-06
-0.000570301
-5.25211e-06
-0.000654191
-0.00106711
-4.06983e-06
-4.90255e-05
-4.84714e-06
-8.11799e-05
-5.37718e-06
-0.000123559
-6.0334e-06
-0.000175784
-6.55999e-06
-0.000241113
-6.51375e-06
-0.000322266
-5.43556e-06
-0.000427049
-3.02123e-06
-0.000572703
-7.07979e-06
-0.000649841
-0.00107447
-1.57434e-06
-4.75149e-05
-2.68033e-06
-8.01222e-05
-3.41765e-06
-0.000122995
-4.22109e-06
-0.000175256
-4.83608e-06
-0.000240617
-5.04453e-06
-0.000321721
-4.99447e-06
-0.000427033
-2.48988e-06
-0.000575555
-6.13618e-06
-0.00064629
-0.00108052
4.41147e-07
-4.57054e-05
-7.21675e-07
-7.898e-05
-1.45859e-06
-0.000122408
-2.27633e-06
-0.000174661
-2.85829e-06
-0.000240011
-3.21111e-06
-0.000320941
-4.07057e-06
-0.000426346
-6.69525e-07
-0.000578661
-4.78562e-06
-0.000642133
-0.00108515
1.68182e-06
-4.38963e-05
8.44738e-07
-7.8097e-05
3.2413e-07
-0.000121982
-3.9209e-07
-0.000174103
-9.05366e-07
-0.000239375
-1.431e-06
-0.000319945
-3.01042e-06
-0.000424898
1.53911e-06
-0.000582742
-4.37192e-06
-0.000636148
-0.00108939
2.25188e-06
-4.24115e-05
2.05517e-06
-7.77856e-05
1.91481e-06
-0.000121881
1.4425e-06
-0.000173749
1.0875e-06
-0.000238906
4.22451e-07
-0.000318965
-1.76608e-06
-0.000422814
4.06794e-06
-0.000588119
-3.23976e-06
-0.000628837
-0.00109252
2.7375e-06
-4.13407e-05
3.22367e-06
-7.80548e-05
3.44373e-06
-0.000122038
3.28498e-06
-0.000173621
3.1591e-06
-0.000238639
2.47912e-06
-0.000318118
-1.77419e-07
-0.000420276
6.4345e-06
-0.000594294
-1.44772e-06
-0.00062101
-0.00109388
3.32899e-06
-4.11156e-05
4.50211e-06
-7.88993e-05
5.04444e-06
-0.000122397
5.22779e-06
-0.000173719
5.39471e-06
-0.000238577
4.81717e-06
-0.00031742
1.73798e-06
-0.000417322
7.3899e-06
-0.000599502
8.07839e-07
-0.000614447
-0.00109309
4.16652e-06
-4.36586e-05
6.22356e-06
-8.05185e-05
6.77697e-06
-0.000122648
7.13148e-06
-0.000173875
7.58441e-06
-0.00023871
7.17996e-06
-0.000316874
3.40865e-06
-0.000413673
5.7251e-06
-0.000601449
3.60535e-06
-0.000612148
-0.00108958
8.58881e-06
-4.73045e-05
9.1091e-06
-8.05679e-05
8.49343e-06
-0.000121651
8.56552e-06
-0.000173697
9.46557e-06
-0.000239351
1.0886e-05
-0.000318237
6.85473e-06
-0.000409586
4.26505e-06
-0.000598613
6.64958e-06
-0.000614358
-0.00108274
4.97675e-06
-5.20247e-05
5.12176e-06
-8.03914e-05
4.35819e-06
-0.000120657
3.90095e-06
-0.000173096
3.73485e-06
-0.000238944
3.53841e-06
-0.00031802
7.83949e-06
-0.000413901
1.20257e-05
-0.000602669
-3.3631e-06
-0.000598961
-0.00108608
6.30591e-06
-5.82153e-05
7.27395e-06
-8.11522e-05
6.78164e-06
-0.000120124
6.50425e-06
-0.000172823
6.25844e-06
-0.000238482
5.27658e-06
-0.000317023
8.06888e-06
-0.000416785
1.52422e-05
-0.000609663
1.8921e-06
-0.000585521
-0.00108427
9.69804e-06
-4.97865e-05
-1.79731e-05
8.86912e-06
-8.01838e-05
8.3595e-06
-0.000119587
7.90373e-06
-0.000172408
8.06491e-06
-0.000238534
8.39395e-06
-0.000317413
3.01998e-06
-0.000411336
6.3931e-06
-0.000612988
1.52009e-05
-0.000594243
-0.00106888
7.61242e-06
-5.1257e-05
-5.99655e-06
7.65862e-06
-8.01668e-05
7.93586e-06
-0.000119893
8.1443e-06
-0.000172706
8.70786e-06
-0.000239001
9.36692e-06
-0.000318162
6.55494e-06
-0.000408378
3.31792e-06
-0.000609639
4.9933e-06
-0.000596004
-0.00106372
3.41663e-06
-5.31617e-05
-1.4762e-06
4.41848e-06
-8.11385e-05
5.12309e-06
-0.00012068
5.67283e-06
-0.000173369
6.31405e-06
-0.000239517
7.04901e-06
-0.000318953
5.96016e-06
-0.000407351
2.54842e-06
-0.000605826
3.73567e-06
-0.000597213
-0.00105984
-8.67547e-09
-5.43351e-05
1.21464e-06
1.14296e-06
-8.22978e-05
2.17921e-06
-0.000121792
3.02506e-06
-0.000174317
3.78056e-06
-0.000240121
4.61781e-06
-0.000319677
4.23487e-06
-0.000406962
-3.71985e-07
-0.000600868
1.28054e-06
-0.00059892
-0.00105845
-3.25029e-06
-5.48229e-05
3.73205e-06
-2.28836e-06
-8.32915e-05
-1.06057e-06
-0.000123056
2.28051e-08
-0.000175456
9.16419e-07
-0.00024084
1.80201e-06
-0.000320413
2.45306e-06
-0.000407605
-3.5386e-06
-0.000594587
-1.9895e-06
-0.000600582
-0.00106039
-6.53688e-06
-5.47937e-05
6.47627e-06
-5.80688e-06
-8.40172e-05
-4.53282e-06
-0.000124306
-3.30971e-06
-0.00017666
-2.3126e-06
-0.000241605
-1.46042e-06
-0.000321096
9.11796e-08
-0.000409215
-6.13966e-06
-0.000588165
-3.54143e-06
-0.000603403
-0.0010639
-9.43536e-06
-5.43559e-05
8.98646e-06
-9.08846e-06
-8.42949e-05
-8.08906e-06
-0.000125228
-7.04461e-06
-0.000177614
-6.20595e-06
-0.000242168
-5.69221e-06
-0.000321476
-3.08849e-06
-0.000412021
-7.03664e-06
-0.000584162
-3.92163e-06
-0.000606795
-0.00106771
-1.14905e-05
-5.34808e-05
1.06403e-05
-1.18398e-05
-8.38167e-05
-1.17416e-05
-0.000125212
-1.17682e-05
-0.000177459
-1.16629e-05
-0.000242027
-1.1809e-05
-0.000321341
-8.4225e-06
-0.000415816
-8.24784e-06
-0.000584299
2.71884e-06
-0.000617729
-0.00106479
-1.31059e-05
-5.20014e-05
1.16753e-05
-1.41029e-05
-8.26319e-05
-1.50084e-05
-0.000124183
-1.62015e-05
-0.000176162
-1.71539e-05
-0.000240945
-1.87291e-05
-0.000319971
-1.69235e-05
-0.00041807
-2.10051e-05
-0.000579511
1.59448e-05
-0.000653039
-0.00104971
-1.10449e-05
1.0068e-05
-1.15422e-05
-1.22852e-05
-1.30468e-05
-1.3729e-05
-1.32334e-05
-7.19114e-06
-1.56311e-05
-1.27263e-05
-2.07119e-05
2.91121e-06
-2.97139e-05
3.08685e-06
-3.41267e-05
2.87808e-06
-3.64811e-05
3.5247e-06
-3.7478e-05
4.70458e-06
-3.74573e-05
6.46312e-06
-3.66215e-05
8.19944e-06
-3.51488e-05
9.26624e-06
-3.29643e-05
9.65243e-06
8.30237e-06
-6.44099e-06
9.33016e-06
-1.34497e-05
9.93693e-06
-1.84459e-05
7.67809e-06
-2.15515e-05
6.52177e-06
-2.30966e-05
6.1714e-06
-2.32968e-05
6.58874e-06
-2.2366e-05
7.22317e-06
-2.05784e-05
7.49639e-06
-1.79047e-05
7.07525e-06
5.65532e-06
1.23348e-07
9.15631e-06
-2.86894e-06
1.27552e-05
-6.49038e-06
1.11223e-05
-9.18849e-06
9.10234e-06
-1.0764e-05
7.64457e-06
-1.11046e-05
6.84046e-06
-1.0252e-05
6.32748e-06
-8.48512e-06
5.74838e-06
-5.94003e-06
4.6029e-06
2.85676e-06
2.15146e-06
6.96028e-06
2.75079e-06
1.20017e-05
1.65874e-06
1.20594e-05
3.33229e-07
1.03098e-05
-6.07186e-07
8.47009e-06
-7.55784e-07
6.89284e-06
-6.7365e-09
5.52927e-06
1.44212e-06
4.29146e-06
3.32328e-06
2.74179e-06
7.95973e-07
2.28302e-06
4.64263e-06
4.66842e-06
9.49094e-06
5.88385e-06
1.07015e-05
6.15739e-06
9.92e-06
6.2818e-06
8.23389e-06
6.69227e-06
6.39216e-06
7.49247e-06
4.67585e-06
8.59367e-06
3.15689e-06
9.76165e-06
1.55127e-06
-3.38717e-07
1.94349e-06
2.66983e-06
4.85993e-06
6.4653e-06
7.59453e-06
7.82743e-06
9.56307e-06
7.8377e-06
1.087e-05
6.8277e-06
1.18414e-05
5.34459e-06
1.2705e-05
3.76245e-06
1.35182e-05
2.3025e-06
1.41504e-05
8.79593e-07
-6.85653e-07
1.54698e-06
1.09957e-06
4.5003e-06
3.40857e-06
7.74137e-06
4.43811e-06
1.06198e-05
4.8446e-06
1.2827e-05
4.5304e-06
1.44053e-05
3.70151e-06
1.54744e-05
2.64757e-06
1.61138e-05
1.62228e-06
1.63039e-05
6.4337e-07
-4.22057e-07
1.28116e-06
-2.001e-07
4.02819e-06
5.60011e-07
7.05241e-06
1.25533e-06
9.91564e-06
1.86815e-06
1.22835e-05
2.07983e-06
1.40402e-05
1.88718e-06
1.51889e-05
1.45672e-06
1.57857e-05
9.87815e-07
1.58005e-05
5.83726e-07
1.74818e-07
8.34686e-07
-1.05206e-06
2.88468e-06
-1.59338e-06
5.07736e-06
-1.07407e-06
7.22636e-06
-3.74437e-07
9.13629e-06
1.04967e-07
1.0653e-05
3.26079e-07
1.171e-05
3.65683e-07
1.23357e-05
3.30161e-07
1.25269e-05
3.54014e-07
7.31315e-07
-1.06742e-06
-2.72113e-06
-3.83478e-06
-4.23583e-06
-4.14751e-06
-3.83176e-06
-3.47337e-06
-3.14577e-06
-2.78094e-06
)
;

boundaryField
{
    right
    {
        type            cyclic;
        value           nonuniform List<scalar> 
20
(
0.00106253
0.000655609
0.000570639
0.000424506
0.000321567
0.000241279
0.000176183
0.000123867
8.2129e-05
5.08919e-05
3.09471e-05
1.51199e-05
3.11048e-06
-5.2971e-06
-1.07387e-05
-1.43162e-05
-1.58606e-05
-1.50782e-05
-1.18126e-05
1.94301e-06
)
;
    }
    left
    {
        type            cyclic;
        value           nonuniform List<scalar> 
20
(
-0.00106253
-0.000655609
-0.000570639
-0.000424506
-0.000321567
-0.000241279
-0.000176183
-0.000123867
-8.2129e-05
-5.08919e-05
-3.09471e-05
-1.51199e-05
-3.11048e-06
5.2971e-06
1.07387e-05
1.43162e-05
1.58606e-05
1.50782e-05
1.18126e-05
-1.94301e-06
)
;
    }
    outerWall
    {
        type            calculated;
        value           uniform 0;
    }
    stirrerWall
    {
        type            calculated;
        value           uniform 0;
    }
    top
    {
        type            empty;
        value           nonuniform List<scalar> 0();
    }
    bottom
    {
        type            empty;
        value           nonuniform List<scalar> 0();
    }
}


// ************************************************************************* //
