/*--------------------------------*- C++ -*----------------------------------*\
  =========                 |
  \\      /  F ield         | OpenFOAM: The Open Source CFD Toolbox
   \\    /   O peration     | Website:  https://openfoam.org
    \\  /    A nd           | Version:  10
     \\/     M anipulation  |
\*---------------------------------------------------------------------------*/
FoamFile
{
    format      ascii;
    class       volVectorField;
    location    "3100";
    object      U;
}
// * * * * * * * * * * * * * * * * * * * * * * * * * * * * * * * * * * * * * //

dimensions      [0 1 -1 0 0 0 0];

internalField   nonuniform List<vector> 
420
(
(0.29973 8.6374 7.65305e-18)
(-0.777067 11.1691 -5.94565e-17)
(-0.344435 12.7243 -2.67761e-16)
(-0.290125 14.0588 7.49175e-17)
(-0.322241 15.2106 -5.01099e-16)
(-0.429978 16.2084 0)
(-0.57961 17.0606 0)
(-0.782742 17.6552 4.40709e-16)
(-0.953215 17.9003 -4.58642e-16)
(-1.05202 17.7951 0)
(-0.286981 8.42934 2.79396e-17)
(-1.41042 10.9287 -1.39658e-16)
(-1.20493 12.5433 8.01686e-16)
(-1.2345 13.9264 -1.10258e-15)
(-1.34148 15.1424 3.61665e-16)
(-1.52168 16.2153 8.69955e-18)
(-1.71661 17.1223 3.10086e-15)
(-1.89263 17.7481 -7.01639e-16)
(-2.04847 17.9569 1.04125e-15)
(-2.14151 17.7936 0)
(-0.874298 8.42726 8.57013e-17)
(-2.13799 10.6981 -6.14361e-16)
(-2.10159 12.3098 7.35601e-16)
(-2.23558 13.7236 1.23324e-15)
(-2.41781 14.9916 -8.21412e-16)
(-2.64283 16.1066 3.89008e-15)
(-2.86191 17.031 1.79086e-15)
(-3.00344 17.6678 4.85682e-15)
(-3.15226 17.898 -1.70979e-15)
(-3.25876 17.7403 -3.61594e-15)
(-1.48507 8.35802 -2.84731e-17)
(-2.89855 10.4271 5.4063e-16)
(-2.9883 12.0002 -9.41248e-16)
(-3.20978 13.4165 8.12294e-16)
(-3.45338 14.7087 -1.57781e-15)
(-3.71472 15.8499 1.65148e-15)
(-3.96994 16.7959 -9.77293e-15)
(-4.13286 17.4693 0)
(-4.29392 17.7603 -4.36981e-15)
(-4.42807 17.6421 3.71579e-15)
(-2.10432 8.24 0)
(-3.66167 10.1037 3.61058e-16)
(-3.85455 11.6192 -3.48736e-16)
(-4.15225 13.0129 0)
(-4.45226 14.3145 -2.5977e-16)
(-4.76465 15.4667 -3.03365e-16)
(-5.07548 16.4447 3.19607e-15)
(-5.31494 17.1596 -4.33782e-15)
(-5.52059 17.5238 0)
(-5.67719 17.4584 -1.64011e-14)
(-2.72598 8.08444 3.47648e-18)
(-4.41181 9.7228 0)
(-4.69163 11.1657 0)
(-5.05785 12.5182 1.35851e-15)
(-5.41922 13.8088 -2.12336e-15)
(-5.79461 14.9789 2.40719e-15)
(-6.18965 15.9922 6.25964e-16)
(-6.53175 16.7677 9.23631e-15)
(-6.81399 17.2044 -1.30781e-14)
(-6.99241 17.1777 8.38659e-15)
(-3.35338 7.89837 0)
(-5.13759 9.28507 -3.39234e-16)
(-5.48638 10.6427 -2.06433e-15)
(-5.9145 11.9412 -8.41456e-16)
(-6.34547 13.2076 -3.70371e-15)
(-6.79909 14.392 2.4041e-15)
(-7.28824 15.4607 -5.9531e-15)
(-7.74179 16.3278 7.62704e-16)
(-8.10853 16.8472 -4.02388e-15)
(-8.31814 16.8442 -1.33375e-14)
(-4.00113 7.68301 -6.46373e-19)
(-5.82317 8.79115 3.32188e-16)
(-6.221 10.0572 2.70428e-15)
(-6.70932 11.2916 5.40312e-16)
(-7.21924 12.5164 2.22958e-15)
(-7.75953 13.7018 0)
(-8.33713 14.8209 5.97689e-15)
(-8.89067 15.8025 7.41264e-15)
(-9.35012 16.4479 1.03479e-14)
(-9.65887 16.4756 1.01093e-14)
(-4.69643 7.42347 2.00014e-18)
(-6.44063 8.26416 3.32104e-16)
(-6.8935 9.45151 -3.55878e-16)
(-7.47059 10.6167 -1.75655e-15)
(-8.08414 11.7715 5.57123e-15)
(-8.72251 12.9072 7.59085e-15)
(-9.38682 14.0133 -2.636e-15)
(-10.0508 15.0451 0)
(-10.6561 15.8386 0)
(-11.1143 15.9278 -9.99918e-15)
(-5.50922 7.04298 -5.96988e-18)
(-6.91275 7.74488 7.42987e-16)
(-7.49554 8.76724 0)
(-8.19576 9.79424 0)
(-8.90361 10.8193 -3.42173e-15)
(-9.59112 11.855 -2.67523e-17)
(-10.2485 12.898 5.90678e-15)
(-10.8681 13.9225 -1.24805e-14)
(-11.5059 14.85 1.43677e-14)
(-12.2371 15.3657 1.25547e-15)
(-1.09424 17.3949 0)
(-1.07219 16.7726 0)
(-1.02168 16.021 0)
(-0.950013 15.2834 -7.58308e-16)
(-0.90434 14.5549 0)
(-0.956473 13.8424 0)
(-1.25809 12.9434 8.16862e-16)
(0.672302 11.4528 0)
(0.18063 13.4691 0)
(-4.76692 4.85031 0)
(-2.18199 17.3387 1.40042e-15)
(-2.16169 16.6883 2.36904e-15)
(-2.08818 15.9238 1.3304e-16)
(-1.99187 15.2024 8.57483e-16)
(-1.9137 14.4736 5.56394e-17)
(-1.93224 13.7397 1.06098e-15)
(-2.33671 12.7855 9.94597e-17)
(-0.0911525 11.4844 1.47675e-16)
(-0.828188 13.3834 -2.62171e-15)
(-5.24266 4.3868 -5.07347e-16)
(-3.31045 17.2615 1.32483e-15)
(-3.27198 16.5725 0)
(-3.15309 15.7775 -1.98316e-15)
(-3.01669 15.0577 -1.71957e-15)
(-2.89325 14.3288 5.12649e-15)
(-2.86781 13.5866 -1.03956e-15)
(-3.33015 12.5477 1.69641e-15)
(-0.747009 11.3646 0)
(-1.94545 13.4652 3.06699e-15)
(-5.33845 3.76568 -3.38805e-17)
(-4.48499 17.1387 3.10085e-15)
(-4.40469 16.3978 7.57472e-15)
(-4.21643 15.5687 -7.89627e-15)
(-4.03175 14.8527 3.13347e-15)
(-3.85265 14.1305 5.1336e-17)
(-3.77548 13.3933 0)
(-4.29144 12.2682 -1.70028e-15)
(-1.37727 11.2172 -3.08894e-15)
(-2.90185 13.4172 -3.04092e-15)
(-5.6573 3.18628 2.56016e-15)
(-5.72344 16.9264 2.92608e-15)
(-5.55994 16.128 -2.53514e-15)
(-5.27864 15.2796 8.35332e-15)
(-5.04192 14.5789 -3.30171e-15)
(-4.80242 13.8732 2.7591e-15)
(-4.66338 13.157 -4.34868e-15)
(-5.25955 11.9424 3.76576e-15)
(-1.95916 11.0321 3.37632e-15)
(-3.89151 13.3643 0)
(-5.98384 2.58141 -5.12582e-15)
(-7.00567 16.5881 3.72861e-15)
(-6.71147 15.7351 -1.57771e-14)
(-6.3262 14.8969 -4.52294e-15)
(-6.03892 14.2262 1.0499e-14)
(-5.73532 13.5469 8.79051e-15)
(-5.52173 12.8723 1.21689e-16)
(-6.21554 11.567 5.26709e-17)
(-2.50669 10.7469 -3.4427e-15)
(-4.88331 13.2986 -2.69214e-15)
(-6.18379 1.9782 5.81312e-15)
(-8.28479 16.1213 3.8414e-15)
(-7.81371 15.2158 5.66502e-15)
(-7.3347 14.4211 0)
(-7.00729 13.7912 -3.53321e-15)
(-6.64329 13.148 -5.67069e-15)
(-6.34618 12.5371 1.33967e-16)
(-7.13433 11.1488 -1.108e-14)
(-3.05201 10.3814 -3.33893e-15)
(-5.84453 13.2073 5.95554e-15)
(-6.33624 1.4134 -3.11769e-15)
(-9.52915 15.5257 1.49791e-14)
(-8.8558 14.5764 -5.20151e-15)
(-8.28803 13.865 0)
(-7.93167 13.2815 -2.08319e-16)
(-7.51881 12.683 2.38177e-14)
(-7.13465 12.1566 -9.59821e-15)
(-8.00932 10.6959 -8.16844e-15)
(-3.60817 9.95299 6.41184e-15)
(-6.83371 13.0704 -7.05109e-15)
(-6.45985 0.899344 0)
(-10.5687 14.7376 3.75877e-16)
(-9.83018 13.8328 -5.16281e-15)
(-9.19405 13.249 0)
(-8.8059 12.7006 7.73749e-15)
(-8.35743 12.141 -1.81077e-14)
(-7.8937 11.7275 9.9663e-15)
(-8.85944 10.2003 3.8583e-15)
(-4.22952 9.51743 0)
(-7.82335 12.7592 -1.37795e-16)
(-6.58431 0.453929 2.88144e-15)
(-11.0044 14.0095 4.7962e-16)
(-10.6957 13.0615 5.98184e-17)
(-10.0888 12.6045 0)
(-9.653 12.0582 -1.47817e-14)
(-9.1583 11.5075 5.6113e-15)
(-8.59848 11.1861 -5.11136e-15)
(-9.62042 9.81681 4.4584e-15)
(-4.98347 9.29794 1.10658e-15)
(-8.61723 12.0681 5.78601e-16)
(-6.76716 0.157238 -2.8947e-15)
(-10.5317 14.0356 3.21493e-15)
(-11.3585 12.5163 -5.64042e-15)
(-10.8412 12.1129 0)
(-10.358 11.5445 0)
(-9.8402 10.9726 0)
(-9.29242 10.6224 -2.51637e-15)
(-9.99197 9.30352 9.71037e-15)
(-5.29544 9.22339 0)
(-9.44179 11.864 0)
(-6.66541 -0.248666 0)
(-11.13 13.1069 -3.02588e-15)
(-11.8812 12.0991 -5.60398e-15)
(-11.4416 11.6602 0)
(-10.9088 11.0783 3.8364e-15)
(-10.3511 10.5215 -2.93831e-15)
(-9.7887 10.1853 2.49298e-15)
(-10.3559 8.69901 3.70935e-15)
(-5.70544 8.52693 -2.82062e-16)
(-9.88398 12.336 1.70363e-15)
(-6.78851 -0.572855 0)
(-12.5147 11.6861 2.23369e-16)
(-12.4633 11.3955 -6.645e-19)
(-12.1338 10.9232 0)
(-11.5734 10.3721 2.66311e-16)
(-10.9638 9.87875 6.33537e-15)
(-10.3262 9.66825 -4.73885e-15)
(-10.8995 7.99501 -1.1458e-14)
(-6.42882 7.41876 -7.10628e-15)
(-10.5657 11.9272 1.37892e-14)
(-7.13171 -0.899278 2.7625e-15)
(-13.8021 10.5821 -1.37965e-14)
(-13.3994 10.3916 5.26117e-15)
(-12.9362 9.97842 0)
(-12.3126 9.48438 -7.31197e-15)
(-11.6425 9.02823 -6.05388e-15)
(-10.9568 8.88454 9.6921e-15)
(-11.5266 7.50907 3.77521e-15)
(-7.07229 6.91521 0)
(-11.518 10.5934 -6.75024e-15)
(-7.1781 -1.20333 3.50099e-16)
(-14.5656 9.19579 -3.24264e-16)
(-14.1961 9.1513 5.15672e-15)
(-13.6938 8.8245 0)
(-13.0293 8.40906 1.4269e-14)
(-12.3281 8.01223 9.09457e-18)
(-11.6048 7.93907 -1.84158e-16)
(-12.0941 6.6957 7.6324e-15)
(-7.80026 6.29315 -5.85863e-15)
(-12.2204 9.66354 -7.1164e-15)
(-7.13992 -1.58207 0)
(-15.1988 7.85893 -3.13458e-15)
(-14.857 7.85454 1.02238e-14)
(-14.3348 7.59613 8.65525e-15)
(-13.6406 7.26477 -9.94328e-15)
(-12.9232 6.93679 -1.6864e-14)
(-12.1759 6.93422 -1.6585e-16)
(-12.5705 5.80726 -3.66545e-15)
(-8.48392 5.58185 -2.82837e-15)
(-12.9182 8.48618 -5.84227e-15)
(-6.98566 -1.87263 -2.03936e-15)
(-15.7538 6.51375 -9.01037e-15)
(-15.4078 6.50541 4.86983e-15)
(-14.8599 6.30276 -3.73631e-15)
(-14.1476 6.05657 -9.91395e-15)
(-13.4304 5.80213 7.84125e-15)
(-12.68 5.86993 -1.55393e-16)
(-12.9628 4.86863 7.11385e-15)
(-9.14595 4.86159 2.98112e-15)
(-13.5791 7.15576 2.44956e-15)
(-6.67219 -2.09315 -2.53287e-16)
(-16.2427 5.14455 2.60738e-15)
(-15.8602 5.118 -2.39519e-15)
(-15.272 4.96293 -8.16051e-17)
(-14.5481 4.79773 9.66169e-15)
(-13.8421 4.61575 -1.31922e-14)
(-13.1093 4.74142 4.22891e-15)
(-13.2545 3.88811 -3.48971e-15)
(-9.83931 4.06035 7.88774e-15)
(-14.1239 5.86417 0)
(-6.26996 -2.22591 3.69995e-17)
(-16.6463 3.77644 2.86012e-15)
(-16.2126 3.7238 2.40943e-15)
(-15.5777 3.60354 4.00922e-15)
(-14.85 3.50304 -6.26378e-15)
(-14.1659 3.38082 2.53999e-15)
(-13.4604 3.53729 0)
(-13.4409 2.79972 -1.67242e-15)
(-10.4259 3.21169 -5.18673e-15)
(-14.4685 4.62253 -7.78774e-18)
(-5.91875 -2.28249 2.15144e-15)
(-16.9522 2.44202 1.31053e-15)
(-16.4766 2.35421 0)
(-15.7964 2.25114 1.98974e-15)
(-15.0712 2.16661 1.68335e-15)
(-14.3999 2.05389 9.13705e-17)
(-13.7201 2.23609 -1.03533e-15)
(-13.4439 1.54129 1.67766e-15)
(-10.618 2.167 0)
(-14.5285 3.5272 2.708e-15)
(-5.74635 -1.96133 2.10673e-15)
(-17.1605 1.10856 1.39164e-15)
(-16.6573 1.00603 -2.38621e-15)
(-15.9377 0.918459 -1.2703e-16)
(-15.2246 0.838832 6.78475e-16)
(-14.5452 0.751847 -6.12867e-17)
(-13.9189 0.85298 1.0156e-15)
(-13.4823 0.280447 -1.68107e-15)
(-10.8294 0.919112 -3.54708e-17)
(-14.1756 2.43184 2.38963e-15)
(-4.98467 -2.35425 -1.64374e-15)
(-17.3734 -0.0504277 1.87746e-29)
(-16.8274 -0.0733253 0)
(-16.1162 -0.104284 0)
(-15.4048 -0.132539 -7.32445e-16)
(-14.6829 -0.0881848 0)
(-14.0115 -0.18085 0)
(-13.2168 -0.412319 7.99918e-16)
(-11.4684 1.06237 0)
(-12.8937 1.27024 0)
(-6.38728 -5.96167 -7.1306e-30)
(-13.8453 12.6261 9.35157e-16)
(-14.5578 10.8993 -8.38099e-15)
(-14.9312 9.31488 8.11223e-15)
(-15.3988 7.93501 -1.05921e-14)
(-15.8779 6.59631 6.54745e-15)
(-16.3458 5.23557 -1.28961e-14)
(-16.7725 3.86764 3.14237e-15)
(-17.1329 2.52912 -3.31658e-15)
(-17.3981 1.20954 0)
(-17.6846 0.025353 -3.5064e-16)
(-14.4456 11.8474 1.66547e-14)
(-15.0522 10.4538 0)
(-15.1909 9.04531 8.99812e-15)
(-15.5058 7.74526 -3.5066e-15)
(-15.886 6.46957 -1.05884e-14)
(-16.2908 5.17069 0)
(-16.6962 3.86671 -3.33536e-15)
(-17.0658 2.58608 -1.45018e-15)
(-17.3574 1.3296 9.57965e-16)
(-17.6983 0.149594 -3.91027e-16)
(-14.0919 10.9713 -1.38303e-14)
(-15.0055 9.7991 0)
(-15.1527 8.54627 8.20018e-15)
(-15.4274 7.38332 5.41982e-16)
(-15.748 6.2199 8.76442e-15)
(-16.0937 5.02565 -3.77982e-15)
(-16.4563 3.82246 0)
(-16.8092 2.62504 3.80387e-15)
(-17.0949 1.45583 -6.42539e-16)
(-17.4129 0.321341 4.94529e-16)
(-13.1013 10.1786 6.20281e-15)
(-14.3749 9.11617 -3.09145e-15)
(-14.7484 7.96537 6.9294e-15)
(-15.094 6.95605 -7.64499e-15)
(-15.4192 5.90942 6.66185e-16)
(-15.7421 4.83058 3.90807e-15)
(-16.0717 3.73924 -1.10579e-14)
(-16.3881 2.63899 1.88246e-15)
(-16.6459 1.5546 2.99432e-15)
(-16.8739 0.492546 8.09106e-17)
(-11.9785 9.46199 -9.18177e-15)
(-13.3261 8.47142 8.89228e-15)
(-13.9601 7.38965 0)
(-14.4404 6.46626 2.77433e-15)
(-14.8046 5.54518 2.9658e-15)
(-15.1322 4.60373 -2.9155e-16)
(-15.4501 3.6334 2.19932e-15)
(-15.7392 2.62535 4.89662e-15)
(-15.9694 1.61209 -1.59199e-17)
(-16.117 0.609277 4.15358e-16)
(-10.8809 8.76519 -3.62668e-15)
(-12.1353 7.85888 7.05164e-15)
(-12.8757 6.87886 2.46044e-15)
(-13.5152 6.02709 -4.31644e-15)
(-13.9779 5.1927 -2.43947e-15)
(-14.3448 4.34378 -2.83353e-16)
(-14.652 3.46181 -4.33681e-15)
(-14.9128 2.53747 1.29715e-15)
(-15.1051 1.59064 4.0515e-16)
(-15.2009 0.647038 -4.1899e-16)
(-9.82743 8.07835 0)
(-10.897 7.27575 -2.28369e-15)
(-11.6507 6.43319 5.03257e-16)
(-12.3472 5.65233 -9.56156e-16)
(-12.8956 4.87472 1.65733e-15)
(-13.3185 4.08526 0)
(-13.6461 3.26833 9.43046e-16)
(-13.8941 2.40962 1.38218e-15)
(-14.0528 1.51832 -1.23261e-15)
(-14.1044 0.624943 -3.06909e-17)
(-8.79295 7.39313 0)
(-9.65565 6.73202 -6.4429e-16)
(-10.3586 6.02678 3.85571e-15)
(-11.0339 5.31596 -2.84754e-15)
(-11.5976 4.58304 0)
(-12.0419 3.8322 -4.8254e-16)
(-12.3814 3.05515 -1.12523e-15)
(-12.626 2.23825 9.21376e-16)
(-12.7705 1.38708 9.02698e-16)
(-12.804 0.524018 -3.37442e-16)
(-7.75023 6.65543 -9.92289e-16)
(-8.40954 6.16676 6.2753e-16)
(-9.03646 5.53035 5.97265e-16)
(-9.63879 4.84493 -5.62756e-16)
(-10.1546 4.13313 0)
(-10.5722 3.4043 5.06557e-16)
(-10.8933 2.65466 7.29579e-16)
(-11.1238 1.87697 -8.51877e-16)
(-11.2566 1.06191 -1.64666e-16)
(-11.2881 0.212818 1.20103e-17)
(-6.3527 6.24697 -3.20478e-16)
(-6.53783 6.0197 1.36441e-16)
(-6.88325 5.46531 1.18109e-16)
(-7.2572 4.83943 0)
(-7.61515 4.21609 -4.74644e-17)
(-7.93946 3.60316 0)
(-8.21969 2.99101 -1.76483e-16)
(-8.45036 2.37138 2.19832e-16)
(-8.63022 1.73669 3.73759e-17)
(-8.79739 1.04498 -1.07249e-17)
)
;

boundaryField
{
    right
    {
        type            cyclic;
    }
    left
    {
        type            cyclic;
    }
    outerWall
    {
        type            calculated;
        value           nonuniform List<vector> 
22
(
(-1.55201 41.8305 0)
(-4.64749 41.6006 0)
(-7.71741 41.1419 0)
(-10.7449 40.4569 0)
(-13.7132 39.5492 0)
(-16.6061 38.424 0)
(-19.4075 37.0874 0)
(-22.1022 35.5467 0)
(-24.6752 33.8104 0)
(-27.1124 31.8882 0)
(-28.9573 30.2506 0)
(-30.2506 28.9573 0)
(-31.8882 27.1124 0)
(-33.8104 24.6752 0)
(-35.5467 22.1022 0)
(-37.0874 19.4075 0)
(-38.424 16.6061 0)
(-39.5492 13.7132 0)
(-40.4569 10.7449 0)
(-41.1419 7.71741 0)
(-41.6006 4.64749 0)
(-41.8305 1.55201 0)
)
;
    }
    stirrerWall
    {
        type            calculated;
        value           nonuniform List<vector> 
42
(
(-0.310178 8.3662 0)
(-0.928834 8.32046 0)
(-1.54239 8.22894 0)
(-2.14746 8.09214 0)
(-2.74072 7.91082 0)
(-3.31888 7.68598 0)
(-3.87877 7.41885 0)
(-4.41729 7.11092 0)
(-4.93148 6.76387 0)
(-5.4185 6.37963 0)
(-6.07951 6.64185 0)
(-6.92878 7.56862 0)
(-7.77806 8.49539 0)
(-8.62734 9.42216 0)
(-9.47661 10.3489 0)
(-10.3259 11.2757 0)
(-11.1752 12.2025 0)
(-12.0244 13.1292 0)
(-12.8737 14.056 0)
(-13.723 14.9828 0)
(-14.4723 15.1215 0)
(-15.1215 14.4723 0)
(-14.9828 13.723 0)
(-14.056 12.8737 0)
(-13.1292 12.0244 0)
(-12.2025 11.1752 0)
(-11.2757 10.3259 0)
(-10.3489 9.47661 0)
(-9.42216 8.62734 0)
(-8.49539 7.77806 0)
(-7.56862 6.92878 0)
(-6.64185 6.07951 0)
(-6.37963 5.4185 0)
(-6.76387 4.93148 0)
(-7.11092 4.41729 0)
(-7.41885 3.87877 0)
(-7.68598 3.31888 0)
(-7.91082 2.74072 0)
(-8.09214 2.14746 0)
(-8.22894 1.54239 0)
(-8.32046 0.928834 0)
(-8.3662 0.310178 0)
)
;
    }
    top
    {
        type            empty;
    }
    bottom
    {
        type            empty;
    }
}


// ************************************************************************* //
