/*--------------------------------*- C++ -*----------------------------------*\
  =========                 |
  \\      /  F ield         | OpenFOAM: The Open Source CFD Toolbox
   \\    /   O peration     | Website:  https://openfoam.org
    \\  /    A nd           | Version:  10
     \\/     M anipulation  |
\*---------------------------------------------------------------------------*/
FoamFile
{
    format      ascii;
    class       volVectorField;
    location    "3100";
    object      Urel;
}
// * * * * * * * * * * * * * * * * * * * * * * * * * * * * * * * * * * * * * //

dimensions      [0 1 -1 0 0 0 0];

internalField   nonuniform List<vector> 
420
(
(0.63373 -0.370851 7.65305e-18)
(-0.396566 0.907776 -5.94565e-17)
(0.0825809 1.20946 -2.67761e-16)
(0.183416 1.29021 7.49175e-17)
(0.197833 1.188 -5.01099e-16)
(0.136634 0.931664 0)
(0.0335447 0.529655 0)
(-0.123041 -0.130096 4.40709e-16)
(-0.246965 -1.13934 -4.58642e-16)
(-0.299217 -2.49906 0)
(0.713196 -0.52962 2.79396e-17)
(-0.271002 0.723517 -1.39658e-16)
(0.0737777 1.0916 8.01686e-16)
(0.183527 1.22789 -1.10258e-15)
(0.215889 1.19684 3.61665e-16)
(0.175053 1.02253 8.69955e-18)
(0.119496 0.68227 3.10086e-15)
(0.0828569 0.0605823 -7.01639e-16)
(0.0664032 -0.978021 1.04125e-15)
(0.112766 -2.3889 0)
(0.786563 -0.433125 8.57013e-17)
(-0.245904 0.605306 -6.14361e-16)
(0.0217886 0.984162 7.35601e-16)
(0.119156 1.16498 1.23324e-15)
(0.168303 1.19963 -8.21412e-16)
(0.174701 1.08126 3.89008e-15)
(0.18705 0.77214 1.79086e-15)
(0.27698 0.175251 4.85682e-15)
(0.359619 -0.828166 -1.70979e-15)
(0.484595 -2.21962 -3.61594e-15)
(0.827341 -0.355048 -2.84731e-17)
(-0.264205 0.502132 5.4063e-16)
(-0.0319204 0.862933 -9.41248e-16)
(0.0687141 1.06676 8.12294e-16)
(0.147274 1.14622 -1.57781e-15)
(0.208123 1.07448 1.65148e-15)
(0.275137 0.807545 -9.77293e-15)
(0.434464 0.267844 0)
(0.595679 -0.654309 -4.36981e-15)
(0.783814 -1.98574 3.71579e-15)
(0.846925 -0.277829 0)
(-0.299543 0.401129 3.61058e-16)
(-0.0814175 0.731526 -3.48736e-16)
(0.0319778 0.939868 0)
(0.143134 1.05595 -2.5977e-16)
(0.241961 1.02247 -3.03365e-16)
(0.342384 0.814732 3.19607e-15)
(0.514209 0.343657 -4.33782e-15)
(0.719866 -0.47803 0)
(0.974588 -1.72946 -1.64011e-14)
(0.847849 -0.191294 3.47648e-18)
(-0.340412 0.296016 0)
(-0.122504 0.587524 0)
(0.00911281 0.788317 1.35851e-15)
(0.14567 0.927067 -2.12336e-15)
(0.268252 0.945253 2.40719e-15)
(0.371236 0.80641 6.25964e-16)
(0.527205 0.429793 9.23631e-15)
(0.743053 -0.285794 -1.30781e-14)
(1.06275 -1.46477 8.38659e-15)
(0.823353 -0.0897556 0)
(-0.379319 0.185887 -3.39234e-16)
(-0.146385 0.432101 -2.06433e-15)
(0.00735271 0.618983 -8.41456e-16)
(0.158323 0.773524 -3.70371e-15)
(0.286718 0.84599 2.4041e-15)
(0.379632 0.802626 -5.9531e-15)
(0.508199 0.557552 7.62704e-16)
(0.7236 -0.0352783 -4.02388e-15)
(1.09617 -1.15048 -1.33375e-14)
(0.755519 0.0264362 -6.46373e-19)
(-0.404198 0.0696041 3.32188e-16)
(-0.139504 0.270347 2.70428e-15)
(0.0348511 0.439211 5.40312e-16)
(0.187714 0.598305 2.22958e-15)
(0.310281 0.717818 0)
(0.395608 0.771042 5.97689e-15)
(0.50504 0.686642 7.41264e-15)
(0.708597 0.265888 1.03479e-14)
(1.06289 -0.772492 1.01093e-14)
(0.613931 0.140545 2.00014e-18)
(-0.390792 -0.0318074 3.32104e-16)
(-0.103949 0.142195 -3.55878e-16)
(0.058823 0.293843 -1.75655e-15)
(0.185264 0.434821 5.57123e-15)
(0.286973 0.556713 7.59085e-15)
(0.362809 0.648863 -2.636e-15)
(0.438999 0.666551 0)
(0.573948 0.446001 0)
(0.856004 -0.478974 -9.99918e-15)
(0.325616 0.17376 -5.96988e-18)
(-0.265331 -0.0798858 7.42987e-16)
(-0.0352854 -0.0133799 0)
(0.0775037 0.0575683 0)
(0.182792 0.126455 -3.42173e-15)
(0.308516 0.20581 -2.67523e-17)
(0.46442 0.292396 5.90678e-15)
(0.658232 0.360437 -1.24805e-14)
(0.833809 0.331317 1.43677e-14)
(0.916109 -0.109548 1.25547e-15)
(-0.294631 -4.16033 0)
(-0.222972 -6.11948 0)
(-0.117535 -8.35113 0)
(0.0149418 -10.7275 -7.58308e-16)
(0.127947 -13.2704 0)
(0.150363 -15.9918 0)
(-0.0687197 -19.115 8.16862e-16)
(1.95306 -23.0682 0)
(1.56257 -23.7785 0)
(-3.27295 -35.4161 0)
(0.212432 -4.09793 1.40042e-15)
(0.381283 -6.07784 2.36904e-15)
(0.619269 -8.31437 1.3304e-16)
(0.89768 -10.6655 8.57483e-16)
(1.17747 -13.1987 5.56394e-17)
(1.38218 -15.9305 1.06098e-15)
(1.22486 -19.0967 9.94597e-17)
(3.74408 -22.8469 1.47675e-16)
(3.31003 -23.6596 -2.62171e-15)
(-0.768977 -35.6584 -5.07347e-16)
(0.665623 -3.93882 1.32483e-15)
(0.950771 -5.94262 0)
(1.34278 -8.19339 -1.98316e-15)
(1.78157 -10.525 -1.71957e-15)
(2.23982 -13.0384 5.12649e-15)
(2.63596 -15.7565 -1.03956e-15)
(2.58405 -18.983 1.69641e-15)
(5.62161 -22.5882 0)
(4.9263 -23.1693 3.06699e-15)
(2.09035 -35.8379 -3.38805e-17)
(1.0509 -3.70877 3.10085e-15)
(1.47464 -5.74267 7.57472e-15)
(2.04315 -8.00321 -7.89627e-15)
(2.64886 -10.3041 3.13347e-15)
(3.2941 -12.7812 5.1336e-17)
(3.88738 -15.4613 0)
(3.94286 -18.7376 -1.70028e-15)
(7.48971 -22.1703 -3.08894e-15)
(6.66561 -22.6073 -3.04092e-15)
(4.68573 -35.7579 2.56016e-15)
(1.34185 -3.45375 2.92608e-15)
(1.94367 -5.51609 -2.53514e-15)
(2.71027 -7.76385 8.35332e-15)
(3.48431 -10.0138 -3.30171e-15)
(4.31872 -12.435 2.7591e-15)
(5.11644 -15.0504 -4.34868e-15)
(5.24955 -18.3679 3.76576e-15)
(9.3574 -21.6065 3.37632e-15)
(8.31905 -21.8521 0)
(7.21653 -35.4891 -5.12582e-15)
(1.55023 -3.21279 3.72861e-15)
(2.3752 -5.29369 -1.57771e-14)
(3.34814 -7.49139 -4.52294e-15)
(4.28607 -9.66732 1.0499e-14)
(5.31008 -12.0132 8.79051e-15)
(6.32128 -14.533 1.21689e-16)
(6.51059 -17.8812 5.26709e-17)
(11.1972 -20.9632 -3.4427e-15)
(9.90315 -20.916 -2.69214e-15)
(9.80127 -35.0092 5.81312e-15)
(1.71474 -2.99156 3.8414e-15)
(2.80612 -5.08219 5.66502e-15)
(3.97191 -7.18905 0)
(5.05973 -9.27169 -3.53321e-15)
(6.26563 -11.5234 -5.67069e-15)
(7.49491 -13.9152 1.33967e-16)
(7.73882 -17.2754 -1.108e-14)
(12.9638 -20.226 -3.33893e-15)
(11.4365 -19.8173 5.95554e-15)
(12.3455 -34.2874 -3.11769e-15)
(1.85909 -2.79405 1.49791e-14)
(3.23884 -4.87926 -5.20151e-15)
(4.58874 -6.84818 0)
(5.81105 -8.82408 -2.08319e-16)
(7.1827 -10.9642 2.38177e-14)
(8.6284 -13.1974 -9.59821e-15)
(8.92906 -16.5479 -8.16844e-15)
(14.6315 -19.3832 6.41184e-15)
(12.8468 -18.5825 -7.05109e-15)
(14.8158 -33.3184 0)
(2.1457 -2.6885 3.75877e-16)
(3.67286 -4.6735 -5.16281e-15)
(5.18213 -6.45339 0)
(6.53701 -8.32607 7.73749e-15)
(8.05583 -10.3519 -1.81077e-14)
(9.70464 -12.3888 9.9663e-15)
(10.051 -15.7133 3.8583e-15)
(16.1337 -18.3863 0)
(14.1483 -17.3478 -1.37795e-16)
(17.1682 -32.0926 2.88144e-15)
(2.96641 -2.42711 4.7962e-16)
(4.14161 -4.39394 5.98184e-17)
(5.70784 -5.97886 0)
(7.20578 -7.77408 -1.47817e-14)
(8.8765 -9.70748 5.6113e-15)
(10.7384 -11.5598 -5.11136e-15)
(11.1581 -14.6242 4.4584e-15)
(17.3912 -17.0198 1.10658e-15)
(15.5247 -16.3276 5.78601e-16)
(19.3314 -30.539 -2.8947e-15)
(4.38398 -1.54884 3.21493e-15)
(4.48304 -4.03516 -5.64042e-15)
(6.02534 -5.50909 0)
(7.64348 -7.26288 0)
(9.41784 -9.14728 0)
(11.3569 -10.9506 -2.51637e-15)
(12.1977 -13.8783 9.71037e-15)
(18.5997 -15.7398 0)
(16.3417 -15.0714 0)
(21.2087 -29.3677 0)
(4.45443 -1.80876 -3.02588e-15)
(4.67023 -3.74246 -5.60398e-15)
(6.1804 -5.20633 0)
(7.89861 -6.92321 3.8364e-15)
(9.76876 -8.73653 -2.93831e-15)
(11.7843 -10.464 2.49298e-15)
(12.8259 -13.4907 3.70935e-15)
(19.2577 -15.3682 -2.82062e-16)
(17.0514 -13.4475 1.70363e-15)
(22.3305 -28.447 0)
(3.92191 -2.28471 2.23369e-16)
(4.99211 -3.44179 -6.645e-19)
(6.4496 -4.87337 0)
(8.25888 -6.4867 2.66311e-16)
(10.2513 -8.15605 6.33537e-15)
(12.4197 -9.66863 -4.73885e-15)
(13.5415 -12.7835 -1.1458e-14)
(19.8889 -14.9559 -7.10628e-15)
(17.8299 -12.2147 1.37892e-14)
(23.5645 -26.9979 2.7625e-15)
(3.62395 -2.13229 -1.37965e-14)
(5.10698 -3.1114 5.26117e-15)
(6.76625 -4.39776 0)
(8.7141 -5.85853 -7.31197e-15)
(10.8504 -7.38503 -6.05388e-15)
(13.1595 -8.7138 9.6921e-15)
(14.3871 -11.4014 3.77521e-15)
(20.8314 -13.448 0)
(18.5891 -11.3783 -6.75024e-15)
(25.3684 -24.9558 3.50099e-16)
(3.75415 -2.19245 -3.24264e-16)
(5.25953 -2.94335 5.15672e-15)
(7.01942 -4.05227 0)
(9.07621 -5.33367 1.4269e-14)
(11.3191 -6.68927 9.09457e-18)
(13.7492 -7.82399 -1.84158e-16)
(15.1497 -10.2427 7.6324e-15)
(21.5359 -11.9465 -5.85863e-15)
(19.4324 -10.0169 -7.1164e-15)
(27.0779 -22.8578 0)
(3.91403 -2.14059 -3.13458e-15)
(5.44097 -2.76528 1.02238e-14)
(7.27531 -3.71048 8.65525e-15)
(9.42226 -4.80225 -9.94328e-15)
(11.7482 -5.97214 -1.6864e-14)
(14.2764 -6.90686 -1.6585e-16)
(15.8537 -9.06589 -3.66545e-15)
(22.1234 -10.434 -2.82837e-15)
(20.1064 -8.79483 -5.84227e-15)
(28.7151 -20.5544 -2.03936e-15)
(4.04711 -2.04215 -9.01037e-15)
(5.62098 -2.58126 4.86983e-15)
(7.52835 -3.37158 -3.73631e-15)
(9.74589 -4.26842 -9.91395e-15)
(12.1296 -5.24327 7.84125e-15)
(14.7253 -5.97308 -1.55393e-16)
(16.4854 -7.85749 7.11385e-15)
(22.5642 -8.84231 2.98112e-15)
(20.6354 -7.6307 2.44956e-15)
(30.3152 -18.0782 -2.53287e-16)
(4.13746 -1.92074 2.60738e-15)
(5.78382 -2.3856 -2.39519e-15)
(7.77145 -3.02598 -8.16051e-17)
(10.0446 -3.7285 9.66169e-15)
(12.4661 -4.5054 -1.31922e-14)
(15.0981 -5.0384 4.22891e-15)
(17.0559 -6.621 -3.48971e-15)
(22.7993 -7.25621 7.88774e-15)
(21.0925 -6.34638 0)
(31.8005 -15.4263 3.69995e-17)
(4.20121 -1.75944 2.86012e-15)
(5.9278 -2.15553 2.40943e-15)
(7.99422 -2.65605 4.00922e-15)
(10.3068 -3.17757 -6.26378e-15)
(12.7458 -3.76593 2.53999e-15)
(15.3941 -4.12557 0)
(17.5649 -5.43457 -1.67242e-15)
(22.9616 -5.65528 -5.18673e-15)
(21.556 -4.94493 -7.78774e-18)
(33.0254 -12.6255 2.15144e-15)
(4.24813 -1.53405 1.31053e-15)
(6.03854 -1.86853 0)
(8.17451 -2.24473 1.98974e-15)
(10.5115 -2.63166 1.68335e-15)
(12.9674 -3.07919 9.13705e-17)
(15.6229 -3.26768 -1.03533e-15)
(18.0868 -4.37291 1.67766e-15)
(23.3347 -4.20161 0)
(22.1059 -3.34454 2.708e-15)
(33.8573 -9.39013 2.10673e-15)
(4.27614 -1.28586 1.39164e-15)
(6.1088 -1.53694 -2.38621e-15)
(8.30043 -1.78899 -1.2703e-16)
(10.6433 -2.05072 6.78475e-16)
(13.1271 -2.33933 -6.12867e-17)
(15.7513 -2.46143 1.0156e-15)
(18.3999 -3.28113 -1.68107e-15)
(23.5019 -2.91612 -3.54708e-17)
(22.8673 -1.70638 2.38963e-15)
(35.0605 -6.82794 -1.64374e-15)
(4.1819 -0.850035 1.87746e-29)
(6.0647 -0.922541 0)
(8.25601 -1.00843 0)
(10.6061 -1.09749 -7.32445e-16)
(13.1425 -1.12047 0)
(15.8227 -1.28769 0)
(18.8416 -1.60169 7.99918e-16)
(23.0526 -0.218394 0)
(24.3539 -0.111705 0)
(33.8791 -7.45564 -7.1306e-30)
(1.6299 -0.527133 9.35157e-16)
(1.84894 -1.07103 -8.38099e-15)
(2.3169 -1.40688 8.11223e-15)
(2.59588 -1.47929 -1.05921e-14)
(2.76456 -1.45885 6.54745e-15)
(2.84205 -1.41621 -1.28961e-14)
(2.8553 -1.34424 3.14237e-15)
(2.82711 -1.21424 -3.31658e-15)
(2.78433 -1.04473 0)
(2.60952 -0.727448 -3.5064e-16)
(0.0730114 -0.492365 1.66547e-14)
(0.340421 -0.776314 0)
(0.991112 -1.01341 8.99812e-15)
(1.37666 -1.08687 -3.5066e-15)
(1.60423 -1.08747 -1.05884e-14)
(1.71101 -1.06976 0)
(1.71844 -1.02289 -3.33536e-15)
(1.66039 -0.925799 -1.45018e-15)
(1.5775 -0.785278 9.57965e-16)
(1.34131 -0.556656 -3.91027e-16)
(-0.529754 -0.554983 -1.38303e-14)
(-0.62699 -0.690726 0)
(-0.0367972 -0.849433 8.20018e-15)
(0.342881 -0.86666 5.41982e-16)
(0.58996 -0.839047 8.76442e-15)
(0.722203 -0.803493 -3.77982e-15)
(0.745129 -0.744867 0)
(0.683331 -0.655377 3.80387e-15)
(0.592579 -0.519658 -6.42539e-16)
(0.37231 -0.33836 4.94529e-16)
(-0.495725 -0.534352 6.20281e-15)
(-1.01046 -0.633452 -3.09145e-15)
(-0.698538 -0.767366 6.9294e-15)
(-0.435894 -0.711828 -7.64499e-15)
(-0.233392 -0.651469 6.66185e-16)
(-0.112118 -0.587285 3.90807e-15)
(-0.0832986 -0.505829 -1.10579e-14)
(-0.129182 -0.40997 1.88246e-15)
(-0.205796 -0.281506 2.99432e-15)
(-0.342928 -0.120609 8.09106e-17)
(-0.329328 -0.437649 -9.18177e-15)
(-0.975584 -0.538063 8.89228e-15)
(-0.976164 -0.680163 0)
(-0.894414 -0.619543 2.77433e-15)
(-0.770934 -0.517681 2.9658e-15)
(-0.687974 -0.402881 -2.9155e-16)
(-0.674728 -0.28945 2.19932e-15)
(-0.713831 -0.192175 4.89662e-15)
(-0.776599 -0.0846412 -1.59199e-17)
(-0.840323 0.0426645 4.15358e-16)
(-0.18803 -0.32121 -3.62668e-15)
(-0.798689 -0.410522 7.05164e-15)
(-0.957616 -0.528088 2.46044e-15)
(-1.08109 -0.476697 -4.31644e-15)
(-1.09618 -0.37219 -2.43947e-15)
(-1.08626 -0.251611 -2.83353e-16)
(-1.08948 -0.13884 -4.33681e-15)
(-1.12082 -0.0486489 1.29715e-15)
(-1.15957 0.0332718 4.0515e-16)
(-1.17834 0.126964 -4.1899e-16)
(-0.0907644 -0.194907 0)
(-0.574147 -0.253665 -2.28369e-15)
(-0.798289 -0.310979 5.03257e-16)
(-1.025 -0.269518 -9.56156e-16)
(-1.16578 -0.19225 1.65733e-15)
(-1.24547 -0.0989676 0)
(-1.29629 -0.0101612 9.43046e-16)
(-1.33546 0.0548862 1.38218e-15)
(-1.35428 0.100288 -1.23261e-15)
(-1.33575 0.151402 -3.06909e-17)
(-0.0123311 -0.067121 0)
(-0.346328 -0.0575281 -6.4429e-16)
(-0.571757 -0.0547156 3.85571e-15)
(-0.823357 -0.0240352 -2.84754e-15)
(-1.01937 0.0139145 0)
(-1.15424 0.0590696 -4.8254e-16)
(-1.24413 0.0987678 -1.12523e-15)
(-1.3004 0.114863 9.21376e-16)
(-1.31884 0.108373 9.02698e-16)
(-1.28921 0.0970026 -3.37442e-16)
(0.0745439 0.00800903 -9.92289e-16)
(-0.113578 0.116916 6.2753e-16)
(-0.314915 0.111384 5.97265e-16)
(-0.539605 0.0866588 -5.62756e-16)
(-0.727836 0.0617288 0)
(-0.869698 0.0421761 5.06557e-16)
(-0.968367 0.020308 7.29579e-16)
(-1.03101 -0.0151122 -8.51877e-16)
(-1.05144 -0.0775081 -1.64666e-16)
(-1.02677 -0.167682 1.20103e-17)
(0.516523 0.412126 -3.20478e-16)
(0.745095 0.709334 1.36441e-16)
(0.773327 0.708667 1.18109e-16)
(0.730926 0.662697 0)
(0.660582 0.642262 -4.74644e-17)
(0.578375 0.651913 0)
(0.493383 0.678596 -1.76483e-16)
(0.410031 0.710514 2.19832e-16)
(0.328743 0.736512 3.73759e-17)
(0.210862 0.710975 -1.07249e-17)
)
;

boundaryField
{
    right
    {
        type            cyclic;
    }
    left
    {
        type            cyclic;
    }
    outerWall
    {
        type            noSlip;
    }
    stirrerWall
    {
        type            noSlip;
    }
    top
    {
        type            empty;
    }
    bottom
    {
        type            empty;
    }
}


// ************************************************************************* //
