/*--------------------------------*- C++ -*----------------------------------*\
  =========                 |
  \\      /  F ield         | OpenFOAM: The Open Source CFD Toolbox
   \\    /   O peration     | Website:  https://openfoam.org
    \\  /    A nd           | Version:  10
     \\/     M anipulation  |
\*---------------------------------------------------------------------------*/
FoamFile
{
    format      ascii;
    class       volScalarField;
    location    "6000";
    object      nut;
}
// * * * * * * * * * * * * * * * * * * * * * * * * * * * * * * * * * * * * * //

dimensions      [0 2 -1 0 0 0 0];

internalField   nonuniform List<scalar> 
17808
(
4.18114e-06
3.36218e-05
5.85286e-05
8.21171e-05
0.000106714
0.000131868
0.000157365
0.000183088
0.00020896
0.00023493
0.00026096
0.000287019
0.000313082
0.000339128
0.000365136
0.00039109
0.000416973
0.000442771
0.000468469
0.000494052
0.000519507
0.000544819
0.000569971
0.000594598
0.000618837
0.000642836
0.00066664
0.000690254
0.000713674
0.000736891
0.000759879
0.000782587
0.000804925
0.000826774
0.000848011
0.000868549
0.00088838
0.000907598
0.000926383
0.000944967
0.000963567
0.000982338
0.00100134
0.00102055
0.00103986
0.00105914
0.00107827
0.00109717
0.00111585
0.00113439
0.00115298
0.00117189
0.00119137
0.00121165
0.00123282
0.00125476
0.00127712
0.00129934
0.0013207
0.00134024
0.00135618
0.00137135
0.00138617
0.00140063
0.00141474
0.00142848
0.00144184
0.00145482
0.0014674
0.00147958
0.00149134
0.00150269
0.00151359
0.00152405
0.00153405
0.00154356
0.00155257
0.00156103
0.00156893
0.00157621
0.00158285
0.00158881
0.00159406
0.00159856
0.0016023
0.00160526
0.00160741
0.00160875
0.00160927
0.00160895
0.0016078
0.00160584
4.17695e-06
3.38278e-05
5.85041e-05
8.20895e-05
0.000106681
0.000131831
0.000157325
0.000183046
0.000208917
0.000234887
0.000260918
0.000286978
0.000313041
0.000339087
0.000365096
0.00039105
0.000416934
0.000442731
0.000468427
0.000494008
0.000519459
0.000544765
0.00056991
0.000594533
0.000618709
0.000642639
0.000666375
0.00068993
0.000713304
0.000736482
0.000759432
0.000782096
0.000804385
0.000826182
0.000847372
0.000867878
0.000887697
0.000906923
0.00092573
0.000944335
0.000962948
0.000981718
0.00100071
0.00101989
0.00103917
0.00105843
0.00107754
0.00109644
0.0011151
0.00113363
0.00115219
0.00117104
0.00119043
0.00121059
0.00123161
0.00125339
0.00127563
0.00129782
0.00131928
0.00133907
0.0013556
0.00137073
0.00138552
0.00139996
0.00141404
0.00142775
0.00144109
0.00145403
0.00146659
0.00147874
0.00149047
0.00150178
0.00151266
0.00152309
0.00153305
0.00154253
0.0015515
0.00155993
0.00156779
0.00157503
0.00158163
0.00158754
0.00159274
0.0015972
0.00160089
0.0016038
0.0016059
0.00160719
0.00160765
0.00160728
0.00160607
0.00160406
4.1761e-06
3.38616e-05
5.84757e-05
8.2055e-05
0.000106642
0.00013179
0.000157284
0.000183004
0.000208877
0.000234848
0.00026088
0.000286941
0.000313006
0.000339053
0.000365063
0.000391017
0.0004169
0.000442696
0.000468391
0.000493969
0.000519416
0.000544718
0.000569859
0.000594826
0.00061904
0.000642861
0.000666498
0.00068997
0.000713274
0.000736392
0.000759286
0.000781892
0.000804118
0.000825851
0.000846984
0.000867447
0.000887244
0.000906467
0.000925283
0.000943899
0.000962515
0.000981275
0.00100024
0.00101939
0.00103865
0.00105787
0.00107696
0.00109583
0.00111448
0.00113299
0.00115152
0.00117031
0.00118961
0.00120964
0.0012305
0.00125213
0.00127424
0.00129639
0.00131793
0.00133796
0.00135504
0.00137015
0.00138491
0.00139933
0.00141338
0.00142707
0.00144037
0.00145329
0.00146582
0.00147794
0.00148965
0.00150093
0.00151178
0.00152218
0.00153212
0.00154156
0.0015505
0.0015589
0.00156672
0.00157392
0.00158048
0.00158635
0.00159151
0.00159592
0.00159956
0.00160242
0.00160447
0.00160571
0.00160612
0.0016057
0.00160445
0.00160239
4.17689e-06
3.3844e-05
5.84588e-05
8.20283e-05
0.00010661
0.000131755
0.000157248
0.000182968
0.000208841
0.000234813
0.000260846
0.000286908
0.000312974
0.000339022
0.000365032
0.000390987
0.00041687
0.000442665
0.000468357
0.000493932
0.000519376
0.000544674
0.000569812
0.000594776
0.000619556
0.000643373
0.000666864
0.000690224
0.000713443
0.000736488
0.000759316
0.000781857
0.000804014
0.000825679
0.000846749
0.000867165
0.000886934
0.000906146
0.000924963
0.000943583
0.000962195
0.00098094
0.00099988
0.001019
0.00103821
0.0010574
0.00107646
0.00109531
0.00111394
0.00113242
0.00115092
0.00116964
0.00118885
0.00120876
0.00122947
0.00125094
0.00127292
0.00129502
0.00131661
0.00133686
0.0013545
0.00136959
0.00138433
0.00139872
0.00141275
0.00142641
0.00143969
0.00145258
0.00146508
0.00147718
0.00148886
0.00150012
0.00151094
0.00152131
0.00153122
0.00154064
0.00154954
0.00155791
0.00156569
0.00157286
0.00157938
0.00158521
0.00159033
0.0015947
0.0015983
0.00160111
0.00160311
0.0016043
0.00160466
0.0016042
0.0016029
0.00160079
4.17753e-06
3.38366e-05
5.84521e-05
8.20126e-05
0.00010659
0.000131731
0.000157222
0.000182942
0.000208814
0.000234786
0.000260819
0.000286882
0.000312948
0.000338996
0.000365006
0.00039096
0.000416841
0.000442635
0.000468325
0.000493898
0.000519338
0.000544633
0.000569767
0.000594729
0.000619505
0.000643978
0.000667422
0.00069062
0.000713719
0.000736679
0.000759437
0.000781911
0.000804002
0.000825602
0.000846614
0.000866984
0.000886725
0.000905925
0.000924741
0.000943361
0.000961967
0.000980693
0.000999603
0.00101868
0.00103785
0.00105701
0.00107604
0.00109486
0.00111347
0.00113192
0.00115038
0.00116904
0.00118816
0.00120794
0.0012285
0.00124981
0.00127167
0.00129369
0.00131533
0.00133579
0.00135398
0.00136904
0.00138376
0.00139813
0.00141213
0.00142577
0.00143903
0.0014519
0.00146437
0.00147645
0.0014881
0.00149934
0.00151013
0.00152048
0.00153036
0.00153975
0.00154863
0.00155696
0.00156471
0.00157185
0.00157833
0.00158413
0.0015892
0.00159353
0.00159708
0.00159985
0.00160181
0.00160295
0.00160327
0.00160276
0.00160141
0.00159926
4.17797e-06
3.38331e-05
5.84497e-05
8.20026e-05
0.000106575
0.000131713
0.000157201
0.00018292
0.000208791
0.000234763
0.000260796
0.000286859
0.000312925
0.000338973
0.000364982
0.000390935
0.000416815
0.000442606
0.000468294
0.000493864
0.000519301
0.000544592
0.000569724
0.000594682
0.000619456
0.000644034
0.00066807
0.000691199
0.000714126
0.000736956
0.000759625
0.00078203
0.000804058
0.000825599
0.000846559
0.00086689
0.000886606
0.000905797
0.000924612
0.000943232
0.000961831
0.000980538
0.000999417
0.00101846
0.00103759
0.0010567
0.0010757
0.00109449
0.00111307
0.0011315
0.00114991
0.00116852
0.00118755
0.0012072
0.00122761
0.00124875
0.00127048
0.00129244
0.0013141
0.00133475
0.00135344
0.00136852
0.00138321
0.00139756
0.00141154
0.00142515
0.00143839
0.00145124
0.00146369
0.00147574
0.00148738
0.00149859
0.00150936
0.00151968
0.00152954
0.0015389
0.00154775
0.00155606
0.00156378
0.00157088
0.00157733
0.00158309
0.00158813
0.00159241
0.00159593
0.00159865
0.00160057
0.00160167
0.00160194
0.00160138
0.00159999
0.00159779
4.17842e-06
3.38301e-05
5.84494e-05
8.19961e-05
0.000106564
0.000131698
0.000157184
0.0001829
0.000208771
0.000234743
0.000260776
0.000286838
0.000312904
0.000338951
0.000364959
0.000390911
0.000416789
0.000442579
0.000468264
0.000493831
0.000519265
0.000544553
0.000569681
0.000594636
0.000619407
0.000643982
0.000668351
0.000691854
0.000714666
0.000737325
0.000759866
0.000782184
0.000804148
0.000825634
0.00084655
0.000866849
0.000886547
0.000905734
0.000924551
0.000943173
0.000961767
0.000980458
0.000999308
0.00101831
0.0010374
0.00105648
0.00107543
0.0010942
0.00111276
0.00113115
0.00114953
0.00116807
0.001187
0.00120653
0.00122678
0.00124777
0.00126936
0.00129124
0.00131294
0.00133376
0.00135268
0.00136801
0.00138268
0.00139701
0.00141097
0.00142456
0.00143778
0.00145061
0.00146304
0.00147507
0.00148668
0.00149787
0.00150862
0.00151892
0.00152875
0.0015381
0.00154692
0.0015552
0.00156289
0.00156996
0.00157638
0.0015821
0.0015871
0.00159135
0.00159483
0.00159751
0.00159938
0.00160044
0.00160067
0.00160007
0.00159864
0.0015964
4.17884e-06
3.38283e-05
5.84507e-05
8.19925e-05
0.000106555
0.000131686
0.000157169
0.000182884
0.000208754
0.000234724
0.000260757
0.000286818
0.000312884
0.00033893
0.000364937
0.000390887
0.000416764
0.000442551
0.000468234
0.000493798
0.000519229
0.000544514
0.000569638
0.000594591
0.000619359
0.000643931
0.000668296
0.000692445
0.000715302
0.000737779
0.000760154
0.000782357
0.000804244
0.000825678
0.000846556
0.000866831
0.00088652
0.000905708
0.000924533
0.000943162
0.000961755
0.000980433
0.000999259
0.00101823
0.00103728
0.00105631
0.00107524
0.00109398
0.00111251
0.00113088
0.00114921
0.00116769
0.00118653
0.00120594
0.00122604
0.00124687
0.00126832
0.00129012
0.00131185
0.00133282
0.00135194
0.00136752
0.00138217
0.00139648
0.00141042
0.001424
0.00143719
0.00145
0.00146241
0.00147442
0.00148602
0.00149719
0.00150792
0.0015182
0.00152801
0.00153733
0.00154613
0.00155438
0.00156205
0.00156909
0.00157548
0.00158117
0.00158613
0.00159034
0.00159378
0.00159642
0.00159826
0.00159927
0.00159946
0.00159882
0.00159734
0.00159507
4.17919e-06
3.38275e-05
5.8453e-05
8.19913e-05
0.00010655
0.000131677
0.000157158
0.00018287
0.000208739
0.000234708
0.000260739
0.0002868
0.000312865
0.00033891
0.000364916
0.000390865
0.000416739
0.000442524
0.000468204
0.000493765
0.000519193
0.000544475
0.000569596
0.000594545
0.00061931
0.000643878
0.00066824
0.000692382
0.000715916
0.000738354
0.000760523
0.000782556
0.000804338
0.000825711
0.000846556
0.000866815
0.000886502
0.000905698
0.000924538
0.000943179
0.000961776
0.000980447
0.000999252
0.00101819
0.00103721
0.00105621
0.0010751
0.00109381
0.00111232
0.00113066
0.00114896
0.00116738
0.00118613
0.00120541
0.00122536
0.00124603
0.00126735
0.00128908
0.00131084
0.00133194
0.00135126
0.00136704
0.00138168
0.00139597
0.0014099
0.00142345
0.00143663
0.00144942
0.00146182
0.00147381
0.00148538
0.00149653
0.00150725
0.00151751
0.0015273
0.0015366
0.00154538
0.0015536
0.00156125
0.00156826
0.00157462
0.00158028
0.00158521
0.00158938
0.00159278
0.00159539
0.00159719
0.00159816
0.00159831
0.00159763
0.00159612
0.0015938
4.17948e-06
3.38272e-05
5.84561e-05
8.19917e-05
0.000106547
0.000131671
0.000157149
0.000182859
0.000208725
0.000234694
0.000260724
0.000286784
0.000312847
0.000338891
0.000364895
0.000390842
0.000416715
0.000442497
0.000468175
0.000493733
0.000519158
0.000544436
0.000569554
0.0005945
0.000619261
0.000643825
0.000668183
0.000692321
0.00071623
0.000738944
0.000760974
0.000782804
0.000804439
0.000825729
0.000846535
0.000866783
0.000886476
0.000905688
0.000924548
0.000943207
0.000961813
0.000980482
0.000999272
0.00101819
0.00103717
0.00105614
0.00107501
0.0010937
0.00111218
0.0011305
0.00114876
0.00116712
0.00118579
0.00120495
0.00122476
0.00124527
0.00126646
0.00128812
0.0013099
0.00133113
0.00135062
0.00136659
0.00138121
0.00139548
0.00140939
0.00142293
0.00143609
0.00144887
0.00146125
0.00147322
0.00148478
0.00149591
0.00150661
0.00151685
0.00152662
0.0015359
0.00154466
0.00155287
0.00156049
0.00156748
0.0015738
0.00157943
0.00158433
0.00158848
0.00159184
0.00159441
0.00159617
0.00159711
0.00159722
0.0015965
0.00159495
0.0015926
4.17972e-06
3.38273e-05
5.84595e-05
8.19932e-05
0.000106546
0.000131667
0.000157142
0.00018285
0.000208714
0.000234681
0.000260709
0.000286768
0.00031283
0.000338872
0.000364875
0.00039082
0.000416691
0.000442471
0.000468146
0.000493701
0.000519122
0.000544397
0.000569512
0.000594454
0.000619211
0.000643772
0.000668125
0.000692259
0.000716161
0.000739479
0.000761497
0.000783122
0.000804568
0.000825741
0.000846494
0.000866728
0.000886431
0.000905666
0.000924552
0.000943234
0.000961855
0.000980526
0.000999307
0.0010182
0.00103716
0.00105611
0.00107495
0.00109362
0.00111208
0.00113038
0.00114861
0.00116692
0.00118551
0.00120455
0.00122422
0.00124458
0.00126564
0.00128724
0.00130904
0.00133038
0.00135005
0.00136615
0.00138076
0.00139502
0.00140891
0.00142243
0.00143558
0.00144834
0.0014607
0.00147266
0.0014842
0.00149532
0.001506
0.00151623
0.00152599
0.00153525
0.00154399
0.00155218
0.00155977
0.00156674
0.00157304
0.00157864
0.00158351
0.00158762
0.00159095
0.00159349
0.00159521
0.00159611
0.00159619
0.00159543
0.00159384
0.00159145
4.17992e-06
3.38276e-05
5.84631e-05
8.19956e-05
0.000106546
0.000131664
0.000157137
0.000182842
0.000208704
0.000234669
0.000260696
0.000286753
0.000312813
0.000338854
0.000364855
0.000390798
0.000416667
0.000442444
0.000468116
0.000493669
0.000519087
0.000544358
0.00056947
0.000594408
0.000619162
0.000643719
0.000668067
0.000692196
0.000716094
0.000739749
0.000762012
0.000783505
0.000804741
0.000825761
0.000846435
0.000866648
0.000886363
0.000905625
0.000924542
0.000943252
0.000961893
0.000980571
0.000999347
0.00101823
0.00103716
0.00105609
0.00107491
0.00109356
0.00111202
0.0011303
0.0011485
0.00116676
0.00118527
0.0012042
0.00122373
0.00124395
0.00126488
0.00128642
0.00130825
0.00132971
0.00134953
0.00136573
0.00138032
0.00139457
0.00140845
0.00142196
0.00143509
0.00144783
0.00146018
0.00147213
0.00148366
0.00149476
0.00150543
0.00151564
0.00152539
0.00153463
0.00154335
0.00155152
0.0015591
0.00156604
0.00157232
0.00157789
0.00158273
0.00158681
0.00159011
0.00159262
0.0015943
0.00159517
0.00159521
0.00159441
0.00159279
0.00159037
4.18009e-06
3.3828e-05
5.84667e-05
8.19986e-05
0.000106547
0.000131663
0.000157133
0.000182837
0.000208696
0.000234659
0.000260684
0.000286739
0.000312798
0.000338837
0.000364836
0.000390777
0.000416643
0.000442418
0.000468087
0.000493636
0.000519052
0.000544319
0.000569427
0.000594362
0.000619112
0.000643664
0.000668009
0.000692132
0.000716025
0.000739673
0.000762465
0.000783945
0.000804978
0.000825807
0.000846371
0.000866545
0.000886267
0.000905559
0.000924513
0.000943256
0.000961921
0.000980611
0.000999385
0.00101825
0.00103717
0.00105608
0.00107489
0.00109353
0.00111197
0.00113024
0.00114842
0.00116663
0.00118507
0.0012039
0.00122329
0.00124337
0.00126419
0.00128567
0.00130753
0.0013291
0.00134907
0.00136532
0.00137991
0.00139414
0.00140801
0.0014215
0.00143462
0.00144735
0.00145969
0.00147162
0.00148314
0.00149424
0.00150489
0.00151509
0.00152482
0.00153405
0.00154276
0.00155091
0.00155846
0.00156539
0.00157164
0.00157719
0.001582
0.00158606
0.00158932
0.00159179
0.00159344
0.00159427
0.00159427
0.00159344
0.00159179
0.00158934
4.18024e-06
3.38286e-05
5.84702e-05
8.2002e-05
0.000106549
0.000131664
0.000157131
0.000182832
0.00020869
0.00023465
0.000260673
0.000286726
0.000312783
0.00033882
0.000364817
0.000390755
0.000416619
0.000442391
0.000468058
0.000493604
0.000519016
0.00054428
0.000569384
0.000594315
0.000619061
0.00064361
0.000667949
0.000692068
0.000715955
0.000739599
0.000762848
0.000784379
0.000805256
0.000825892
0.000846317
0.00086643
0.000886148
0.000905469
0.000924462
0.000943243
0.000961936
0.000980641
0.000999419
0.00101828
0.00103719
0.00105608
0.00107487
0.0010935
0.00111194
0.0011302
0.00114836
0.00116653
0.0011849
0.00120363
0.0012229
0.00124284
0.00126355
0.00128498
0.00130688
0.00132856
0.00134866
0.00136493
0.00137951
0.00139373
0.00140759
0.00142107
0.00143418
0.0014469
0.00145923
0.00147115
0.00148266
0.00149374
0.00150438
0.00151457
0.00152429
0.0015335
0.0015422
0.00155033
0.00155787
0.00156477
0.001571
0.00157653
0.00158132
0.00158534
0.00158858
0.00159101
0.00159262
0.00159341
0.00159337
0.00159251
0.00159083
0.00158836
4.18037e-06
3.38293e-05
5.84736e-05
8.20056e-05
0.000106552
0.000131665
0.00015713
0.000182829
0.000208684
0.000234642
0.000260663
0.000286714
0.000312768
0.000338803
0.000364798
0.000390734
0.000416595
0.000442365
0.000468029
0.000493572
0.00051898
0.000544241
0.000569342
0.000594269
0.000619011
0.000643555
0.00066789
0.000692004
0.000715886
0.000739523
0.000762906
0.000784772
0.000805582
0.000826026
0.000846286
0.000866311
0.000886011
0.000905355
0.000924389
0.000943211
0.000961936
0.000980661
0.000999445
0.0010183
0.0010372
0.00105608
0.00107486
0.00109349
0.00111192
0.00113018
0.00114831
0.00116645
0.00118475
0.00120339
0.00122254
0.00124236
0.00126296
0.00128435
0.00130629
0.00132809
0.00134831
0.00136455
0.00137913
0.00139334
0.00140719
0.00142066
0.00143376
0.00144647
0.00145879
0.0014707
0.0014822
0.00149327
0.0015039
0.00151408
0.00152379
0.00153299
0.00154167
0.00154979
0.00155732
0.0015642
0.00157041
0.00157591
0.00158068
0.00158467
0.00158787
0.00159027
0.00159184
0.00159257
0.00159248
0.00159159
0.0015899
0.00158743
4.18049e-06
3.383e-05
5.84769e-05
8.20094e-05
0.000106555
0.000131666
0.00015713
0.000182827
0.00020868
0.000234636
0.000260654
0.000286702
0.000312754
0.000338787
0.000364779
0.000390713
0.000416571
0.000442338
0.000467999
0.000493539
0.000518944
0.000544202
0.000569298
0.000594222
0.000618959
0.000643499
0.00066783
0.000691939
0.000715815
0.000739447
0.000762822
0.000785106
0.000805931
0.000826205
0.000846287
0.0008662
0.000885862
0.00090522
0.000924294
0.00094316
0.000961921
0.000980668
0.000999462
0.00101832
0.00103721
0.00105608
0.00107486
0.00109348
0.00111191
0.00113016
0.00114829
0.00116639
0.00118463
0.00120318
0.00122221
0.00124191
0.00126242
0.00128378
0.00130577
0.00132768
0.00134801
0.0013642
0.00137876
0.00139297
0.00140681
0.00142027
0.00143336
0.00144607
0.00145837
0.00147028
0.00148177
0.00149283
0.00150346
0.00151363
0.00152332
0.00153252
0.00154119
0.00154929
0.0015568
0.00156367
0.00156986
0.00157534
0.00158007
0.00158404
0.00158721
0.00158956
0.00159107
0.00159174
0.00159156
0.00159066
0.00158897
0.00158653
4.18059e-06
3.38308e-05
5.848e-05
8.20131e-05
0.000106558
0.000131669
0.000157131
0.000182826
0.000208676
0.00023463
0.000260646
0.000286692
0.000312741
0.000338771
0.000364761
0.000390692
0.000416548
0.000442312
0.000467969
0.000493506
0.000518908
0.000544162
0.000569255
0.000594174
0.000618908
0.000643443
0.000667769
0.000691873
0.000715744
0.00073937
0.00076274
0.000785384
0.000806265
0.000826414
0.000846324
0.000866108
0.000885712
0.000905072
0.00092418
0.000943091
0.00096189
0.000980665
0.000999472
0.00101833
0.00103722
0.00105608
0.00107485
0.00109347
0.00111191
0.00113015
0.00114827
0.00116635
0.00118453
0.00120298
0.00122191
0.0012415
0.00126192
0.00128325
0.0013053
0.00132733
0.00134775
0.00136385
0.00137841
0.00139261
0.00140645
0.00141991
0.00143299
0.00144569
0.00145799
0.00146988
0.00148137
0.00149242
0.00150304
0.0015132
0.00152289
0.00153208
0.00154074
0.00154883
0.00155632
0.00156317
0.00156935
0.0015748
0.00157951
0.00158344
0.00158657
0.00158887
0.00159032
0.00159089
4.18069e-06
3.38316e-05
5.84829e-05
8.20168e-05
0.000106562
0.000131671
0.000157132
0.000182825
0.000208674
0.000234625
0.000260638
0.000286682
0.000312729
0.000338756
0.000364743
0.000390672
0.000416524
0.000442285
0.00046794
0.000493473
0.000518872
0.000544122
0.000569211
0.000594127
0.000618856
0.000643387
0.000667708
0.000691807
0.000715673
0.000739294
0.000762658
0.00078561
0.000806573
0.000826638
0.000846394
0.000866042
0.000885571
0.000904917
0.000924052
0.000943006
0.000961847
0.000980651
0.000999474
0.00101834
0.00103722
0.00105608
0.00107485
0.00109347
0.00111191
0.00113016
0.00114826
0.00116631
0.00118444
0.00120281
0.00122163
0.00124112
0.00126146
0.00128278
0.00130489
0.00132704
0.00134754
0.00136352
0.00137808
0.00139228
0.00140611
0.00141956
0.00143264
0.00144533
0.00145763
0.00146952
0.00148099
0.00149204
0.00150265
0.00151281
0.00152249
0.00153167
0.00154032
0.0015484
0.00155588
0.00156272
0.00156887
0.0015743
0.00157898
0.00158287
0.00158595
0.0015882
0.00158961
0.00159016
4.18079e-06
3.38324e-05
5.84857e-05
8.20205e-05
0.000106566
0.000131674
0.000157134
0.000182825
0.000208672
0.000234621
0.000260632
0.000286673
0.000312717
0.000338742
0.000364726
0.000390651
0.000416501
0.000442259
0.00046791
0.00049344
0.000518835
0.000544082
0.000569167
0.000594078
0.000618803
0.00064333
0.000667647
0.000691741
0.000715601
0.000739217
0.000762576
0.000785668
0.000806846
0.000826874
0.000846494
0.000866004
0.000885444
0.000904762
0.000923915
0.000942908
0.00096179
0.000980627
0.00099947
0.00101834
0.00103722
0.00105608
0.00107485
0.00109347
0.00111191
0.00113016
0.00114826
0.00116629
0.00118436
0.00120266
0.00122138
0.00124077
0.00126105
0.00128236
0.00130454
0.00132681
0.00134737
0.00136321
0.00137777
0.00139196
0.00140579
0.00141924
0.00143231
0.001445
0.00145729
0.00146917
0.00148065
0.00149169
0.0015023
0.00151245
0.00152212
0.0015313
0.00153994
0.00154801
0.00155548
0.0015623
0.00156843
0.00157384
0.00157848
0.00158233
0.00158534
0.00158751
0.00158891
0.00158949
4.18088e-06
3.38332e-05
5.84883e-05
8.2024e-05
0.000106569
0.000131677
0.000157136
0.000182826
0.000208671
0.000234617
0.000260626
0.000286664
0.000312706
0.000338728
0.000364709
0.000390632
0.000416478
0.000442233
0.000467881
0.000493407
0.000518798
0.000544041
0.000569123
0.00059403
0.000618751
0.000643273
0.000667585
0.000691674
0.00071553
0.00073914
0.000762493
0.000785578
0.000807075
0.000827129
0.000846629
0.000865997
0.000885336
0.000904612
0.000923771
0.000942798
0.000961722
0.000980594
0.000999459
0.00101834
0.00103723
0.00105608
0.00107485
0.00109348
0.00111192
0.00113018
0.00114827
0.00116627
0.0011843
0.00120253
0.00122116
0.00124045
0.00126067
0.00128198
0.00130424
0.00132662
0.00134725
0.00136292
0.00137747
0.00139166
0.00140549
0.00141894
0.00143201
0.00144469
0.00145698
0.00146886
0.00148033
0.00149137
0.00150197
0.00151212
0.00152179
0.00153095
0.00153959
0.00154765
0.00155511
0.00156191
0.00156802
0.00157341
0.00157801
0.00158179
0.0015847
4.18097e-06
3.3834e-05
5.84908e-05
8.20274e-05
0.000106573
0.000131681
0.000157138
0.000182827
0.00020867
0.000234615
0.000260621
0.000286657
0.000312696
0.000338714
0.000364693
0.000390612
0.000416455
0.000442207
0.000467851
0.000493374
0.000518762
0.000544001
0.000569078
0.000593981
0.000618698
0.000643216
0.000667523
0.000691607
0.000715458
0.000739062
0.00076241
0.000785489
0.000807266
0.000827376
0.000846787
0.00086602
0.000885251
0.000904471
0.000923625
0.00094268
0.000961644
0.000980552
0.000999444
0.00101834
0.00103723
0.00105609
0.00107486
0.00109349
0.00111194
0.0011302
0.00114829
0.00116627
0.00118425
0.00120241
0.00122095
0.00124016
0.00126033
0.00128166
0.00130399
0.00132649
0.00134716
0.00136263
0.00137719
0.00139138
0.00140521
0.00141866
0.00143172
0.00144441
0.00145669
0.00146857
0.00148004
0.00149108
0.00150168
0.00151182
0.00152148
0.00153064
0.00153927
0.00154733
0.00155477
0.00156156
0.00156766
0.00157301
0.00157758
0.00158133
0.00158421
4.18106e-06
3.38348e-05
5.84931e-05
8.20306e-05
0.000106577
0.000131684
0.000157141
0.000182828
0.000208669
0.000234612
0.000260616
0.00028665
0.000312686
0.000338702
0.000364677
0.000390593
0.000416433
0.000442181
0.000467822
0.000493341
0.000518725
0.00054396
0.000569033
0.000593932
0.000618645
0.000643158
0.00066746
0.00069154
0.000715385
0.000738985
0.000762327
0.000785401
0.000807428
0.000827609
0.000846958
0.000866072
0.000885191
0.000904346
0.000923484
0.000942559
0.000961559
0.000980504
0.000999424
0.00101834
0.00103723
0.00105609
0.00107487
0.0010935
0.00111196
0.00113023
0.00114831
0.00116628
0.00118422
0.00120231
0.00122077
0.00123991
0.00126004
0.00128139
0.0013038
0.0013264
0.0013471
0.00136237
0.00137693
0.00139112
0.00140495
0.00141839
0.00143146
0.00144414
0.00145643
0.00146831
0.00147977
0.00149081
0.00150141
0.00151155
0.00152121
0.00153037
0.00153899
0.00154704
0.00155447
0.00156125
0.00156733
0.00157266
0.00157721
0.00158092
0.0015838
4.18115e-06
3.38356e-05
5.84953e-05
8.20337e-05
0.00010658
0.000131687
0.000157144
0.000182829
0.000208669
0.00023461
0.000260612
0.000286643
0.000312676
0.000338689
0.000364662
0.000390575
0.000416411
0.000442156
0.000467793
0.000493308
0.000518688
0.00054392
0.000568989
0.000593883
0.000618591
0.0006431
0.000667398
0.000691472
0.000715313
0.000738907
0.000762245
0.000785314
0.000807565
0.000827826
0.000847136
0.000866146
0.000885158
0.00090424
0.000923351
0.000942437
0.00096147
0.000980451
0.000999401
0.00101833
0.00103724
0.00105611
0.00107488
0.00109353
0.00111199
0.00113027
0.00114835
0.00116629
0.0011842
0.00120222
0.00122061
0.00123969
0.00125979
0.00128117
0.00130367
0.00132637
0.00134707
0.00136212
0.00137668
0.00139088
0.0014047
0.00141815
0.00143122
0.00144391
0.00145619
0.00146807
0.00147953
0.00149057
0.00150117
0.00151131
0.00152097
0.00153012
0.00153874
0.00154678
0.00155421
0.00156097
0.00156703
0.00157235
0.00157688
0.00158058
0.00158345
4.18123e-06
3.38364e-05
5.84975e-05
8.20367e-05
0.000106584
0.000131691
0.000157146
0.000182831
0.00020867
0.000234609
0.000260608
0.000286637
0.000312668
0.000338678
0.000364647
0.000390557
0.00041639
0.000442131
0.000467764
0.000493276
0.000518652
0.000543879
0.000568944
0.000593834
0.000618538
0.000643042
0.000667335
0.000691405
0.000715241
0.00073883
0.000762163
0.000785227
0.000807683
0.000828028
0.000847315
0.000866239
0.00088515
0.000904155
0.000923231
0.00094232
0.000961379
0.000980395
0.000999375
0.00101833
0.00103725
0.00105612
0.00107491
0.00109356
0.00111203
0.00113031
0.0011484
0.00116632
0.00118419
0.00120216
0.00122048
0.0012395
0.00125959
0.00128101
0.00130361
0.00132637
0.00134696
0.00136188
0.00137645
0.00139065
0.00140448
0.00141793
0.00143101
0.00144369
0.00145598
0.00146786
0.00147932
0.00149036
0.00150096
0.0015111
0.00152076
0.00152991
0.00153852
0.00154656
0.00155398
0.00156073
0.00156678
0.00157209
0.0015766
0.00158029
0.00158315
4.18132e-06
3.38372e-05
5.84994e-05
8.20395e-05
0.000106587
0.000131694
0.000157149
0.000182833
0.00020867
0.000234607
0.000260605
0.000286631
0.000312659
0.000338667
0.000364633
0.000390539
0.000416369
0.000442106
0.000467736
0.000493244
0.000518616
0.000543839
0.000568899
0.000593785
0.000618484
0.000642984
0.000667272
0.000691338
0.000715169
0.000738754
0.000762082
0.000785142
0.000807785
0.000828215
0.000847495
0.000866347
0.000885165
0.000904092
0.000923126
0.000942209
0.000961289
0.000980337
0.000999349
0.00101833
0.00103727
0.00105615
0.00107494
0.0010936
0.00111209
0.00113037
0.00114845
0.00116636
0.00118419
0.0012021
0.00122037
0.00123934
0.00125944
0.00128093
0.00130362
0.00132642
0.00134673
0.00136167
0.00137624
0.00139044
0.00140428
0.00141773
0.00143081
0.0014435
0.00145579
0.00146767
0.00147914
0.00149018
0.00150078
0.00151092
0.00152058
0.00152973
0.00153834
0.00154637
0.00155378
0.00156053
0.00156657
0.00157187
0.00157637
0.00158005
0.00158291
4.18141e-06
3.38379e-05
5.85014e-05
8.20422e-05
0.00010659
0.000131697
0.000157152
0.000182835
0.000208671
0.000234606
0.000260602
0.000286626
0.000312651
0.000338656
0.000364619
0.000390522
0.000416348
0.000442082
0.000467708
0.000493212
0.00051858
0.000543799
0.000568855
0.000593737
0.000618431
0.000642926
0.00066721
0.000691271
0.000715097
0.000738677
0.000762001
0.000785057
0.000807835
0.000828389
0.000847675
0.000866469
0.000885202
0.000904052
0.000923038
0.000942108
0.000961202
0.000980279
0.000999323
0.00101833
0.00103728
0.00105618
0.00107498
0.00109365
0.00111215
0.00113044
0.00114852
0.00116641
0.00118421
0.00120207
0.00122028
0.00123923
0.00125934
0.0012809
0.0013037
0.0013265
0.00134653
0.00136146
0.00137604
0.00139025
0.00140409
0.00141755
0.00143064
0.00144333
0.00145562
0.00146751
0.00147898
0.00149003
0.00150063
0.00151077
0.00152043
0.00152958
0.00153819
0.00154621
0.00155362
0.00156037
0.0015664
0.00157169
0.00157618
0.00157986
0.00158272
4.18151e-06
3.38387e-05
5.85032e-05
8.20449e-05
0.000106593
0.0001317
0.000157155
0.000182837
0.000208671
0.000234605
0.000260599
0.000286621
0.000312644
0.000338646
0.000364606
0.000390506
0.000416328
0.000442058
0.000467681
0.00049318
0.000518544
0.000543759
0.000568811
0.000593688
0.000618378
0.000642869
0.000667148
0.000691204
0.000715026
0.000738602
0.000761921
0.000784973
0.000807746
0.000828541
0.000847871
0.000866611
0.00088526
0.000904033
0.000922967
0.000942018
0.000961121
0.000980223
0.000999296
0.00101833
0.00103731
0.00105622
0.00107503
0.00109371
0.00111222
0.00113052
0.0011486
0.00116648
0.00118424
0.00120205
0.00122022
0.00123915
0.00125929
0.00128094
0.00130384
0.00132662
0.00134633
0.00136128
0.00137586
0.00139008
0.00140392
0.00141739
0.00143048
0.00144318
0.00145548
0.00146737
0.00147885
0.0014899
0.0015005
0.00151065
0.00152031
0.00152946
0.00153807
0.00154609
0.0015535
0.00156024
0.00156627
0.00157155
0.00157604
0.00157972
0.00158257
4.1816e-06
3.38395e-05
5.8505e-05
8.20473e-05
0.000106596
0.000131703
0.000157157
0.000182839
0.000208672
0.000234605
0.000260597
0.000286616
0.000312637
0.000338636
0.000364593
0.000390489
0.000416309
0.000442035
0.000467654
0.00049315
0.000518509
0.00054372
0.000568767
0.00059364
0.000618326
0.000642812
0.000667086
0.000691138
0.000714955
0.000738527
0.000761842
0.000784889
0.000807658
0.000828675
0.000848069
0.000866771
0.000885341
0.000904036
0.000922915
0.000941941
0.000961046
0.000980169
0.000999272
0.00101833
0.00103733
0.00105626
0.00107509
0.00109378
0.0011123
0.00113061
0.00114869
0.00116655
0.00118428
0.00120206
0.00122019
0.00123911
0.0012593
0.00128105
0.00130404
0.00132678
0.00134615
0.0013611
0.00137569
0.00138992
0.00140378
0.00141725
0.00143035
0.00144306
0.00145536
0.00146726
0.00147874
0.0014898
0.00150041
0.00151055
0.00152022
0.00152937
0.00153798
0.00154601
0.00155341
0.00156015
0.00156618
0.00157146
0.00157595
0.00157962
0.00158248
4.18169e-06
3.38402e-05
5.85067e-05
8.20497e-05
0.000106599
0.000131706
0.00015716
0.000182841
0.000208673
0.000234604
0.000260594
0.000286612
0.00031263
0.000338626
0.00036458
0.000390474
0.00041629
0.000442013
0.000467627
0.000493119
0.000518475
0.000543681
0.000568724
0.000593593
0.000618274
0.000642755
0.000667025
0.000691072
0.000714885
0.000738452
0.000761763
0.000784806
0.000807572
0.000828792
0.000848263
0.000866943
0.000885443
0.000904061
0.000922882
0.000941878
0.000960981
0.000980121
0.00099925
0.00101834
0.00103736
0.00105631
0.00107516
0.00109387
0.0011124
0.00113071
0.00114879
0.00116664
0.00118434
0.00120208
0.00122019
0.00123912
0.00125937
0.00128122
0.00130429
0.00132698
0.00134599
0.00136095
0.00137555
0.00138978
0.00140365
0.00141713
0.00143024
0.00144295
0.00145527
0.00146718
0.00147866
0.00148972
0.00150034
0.00151049
0.00152016
0.00152931