/*--------------------------------*- C++ -*----------------------------------*\
  =========                 |
  \\      /  F ield         | OpenFOAM: The Open Source CFD Toolbox
   \\    /   O peration     | Website:  https://openfoam.org
    \\  /    A nd           | Version:  10
     \\/     M anipulation  |
\*---------------------------------------------------------------------------*/
FoamFile
{
    format      ascii;
    class       volScalarField;
    location    "6000";
    object      omega;
}
// * * * * * * * * * * * * * * * * * * * * * * * * * * * * * * * * * * * * * //

dimensions      [0 0 -1 0 0 0 0];

internalField   nonuniform List<scalar> 
17808
(
16477.7
6643.69
3789.49
2607.94
1973.64
1581.26
1315.61
1124.21
979.901
867.264
776.927
702.871
641.056
588.675
543.714
504.696
470.507
440.299
413.408
389.311
367.591
347.909
329.991
313.604
298.553
284.677
271.841
259.93
248.844
238.499
228.821
219.745
211.215
203.178
195.588
188.402
181.58
175.088
168.896
162.977
157.311
151.88
146.669
141.666
136.859
132.237
127.789
123.505
119.377
115.396
111.554
107.847
104.27
100.819
97.4942
94.292
91.2105
88.2459
85.3931
82.6455
79.9942
77.432
74.9551
72.5606
70.2453
68.0064
65.8413
63.7473
61.7219
59.7628
57.8676
56.0342
54.2606
52.5449
50.8852
49.2801
47.7282
46.2283
44.7793
43.3803
42.0301
40.7277
39.4719
38.2614
37.0947
35.9705
34.8873
33.8434
32.8375
31.8678
30.9331
30.0313
16478
6641.81
3790.24
2609.27
1975
1582.47
1316.65
1125.09
980.635
867.882
777.451
703.317
641.439
589.006
544.002
504.947
470.728
440.494
413.582
389.467
367.732
348.037
330.108
313.713
298.655
284.771
271.928
260.009
248.917
238.567
228.884
219.804
211.27
203.23
195.636
188.446
181.621
175.126
168.931
163.01
157.343
151.91
146.698
141.694
136.886
132.262
127.814
123.529
119.401
115.419
111.576
107.868
104.29
100.839
97.5123
94.3084
91.2248
88.2581
85.4033
82.6542
80.0022
77.4397
74.9626
72.5676
70.252
68.0127
65.8471
63.7526
61.7267
59.767
57.8713
56.0375
54.2633
52.5471
50.887
49.2815
47.7292
46.229
44.7797
43.3805
42.0302
40.7277
39.4719
38.2614
37.0949
35.9708
34.8877
33.8439
32.8381
31.8686
30.934
30.0323
16480.5
6640.14
3790.51
2609.76
1975.56
1583.05
1317.19
1125.58
981.083
868.282
777.808
703.635
641.723
589.259
544.229
505.151
470.913
440.661
413.733
389.604
367.857
348.153
330.214
313.812
298.749
284.861
272.012
260.087
248.99
238.634
228.947
219.863
211.325
203.281
195.684
188.491
181.662
175.165
168.967
163.044
157.375
151.941
146.728
141.722
136.913
132.289
127.839
123.554
119.424
115.442
111.599
107.89
104.311
100.859
97.5312
94.3257
91.2401
88.2712
85.4144
82.6636
80.0108
77.4481
74.9706
72.5754
70.2593
68.0196
65.8536
63.7586
61.7322
59.7721
57.8759
56.0415
54.2669
52.5502
50.8897
49.2838
47.7311
46.2306
44.7811
43.3817
42.0313
40.7288
39.473
38.2625
37.096
35.972
34.889
33.8454
32.8397
31.8703
30.9358
30.0343
16482.4
6638.77
3790.58
2610.01
1975.89
1583.42
1317.56
1125.93
981.4
868.571
778.07
703.874
641.941
589.458
544.411
505.318
471.065
440.801
413.862
389.724
367.968
348.255
330.309
313.899
298.833
284.944
272.092
260.163
249.061
238.701
229.009
219.922
211.38
203.333
195.732
188.535
181.704
175.203
169.003
163.078
157.407
151.972
146.758
141.751
136.941
132.316
127.865
123.579
119.449
115.465
111.622
107.913
104.333
100.88
97.5508
94.3436
91.2561
88.285
85.4261
82.6736
80.0199
77.4569
74.9792
72.5837
70.2672
68.0271
65.8607
63.7652
61.7384
59.7778
57.8811
56.0463
54.2712
52.554
50.893
49.2867
47.7337
46.2329
44.7832
43.3836
42.0331
40.7305
39.4747
38.2643
37.0979
35.974
34.891
33.8476
32.842
31.8728
30.9384
30.0369
16484
6637.19
3790.23
2609.93
1975.99
1583.6
1317.78
1126.16
981.623
868.782
778.267
704.057
642.111
589.616
544.557
505.454
471.192
440.919
413.972
389.827
368.065
348.346
330.394
313.978
298.907
285.017
272.166
260.236
249.13
238.767
229.071
219.98
211.435
203.384
195.78
188.58
181.745
175.242
169.039
163.112
157.44
152.003
146.788
141.78
136.969
132.343
127.891
123.605
119.474
115.49
111.646
107.936
104.356
100.902
97.5712
94.3624
91.2728
88.2996
85.4386
82.6843
80.0297
77.4663
74.9883
72.5924
70.2756
68.0352
65.8683
63.7724
61.7451
59.784
57.8869
56.0516
54.276
52.5584
50.897
49.2902
47.7369
46.2358
44.7858
43.3861
42.0355
40.7329
39.477
38.2667
37.1003
35.9765
34.8937
33.8504
32.8449
31.8758
30.9415
30.0402
16485.5
6635.72
3789.71
2609.71
1975.94
1583.65
1317.89
1126.29
981.769
868.93
778.411
704.195
642.242
589.74
544.675
505.565
471.297
441.018
414.066
389.916
368.149
348.426
330.47
314.049
298.974
285.081
272.231
260.303
249.197
238.831
229.132
220.038
211.489
203.435
195.828
188.625
181.787
175.281
169.076
163.147
157.472
152.035
146.818
141.81
136.998
132.371
127.918
123.631
119.499
115.515
111.67
107.96
104.379
100.924
97.5922
94.3818
91.2904
88.315
85.4518
82.6957
80.04
77.4762
74.9978
72.6016
70.2845
68.0437
65.8764
63.7802
61.7524
59.7909
57.8932
56.0574
54.2814
52.5633
50.9015
49.2944
47.7407
46.2393
44.7891
43.3892
42.0385
40.7358
39.48
38.2697
37.1034
35.9797
34.897
33.8538
32.8485
31.8795
30.9453
30.0441
16486.8
6634.54
3789.18
2609.46
1975.83
1583.64
1317.93
1126.37
981.866
869.034
778.518
704.301
642.344
589.839
544.77
505.656
471.384
441.101
414.145
389.992
368.222
348.497
330.537
314.113
299.034
285.138
272.288
260.363
249.259
238.892
229.192
220.094
211.543
203.485
195.875
188.669
181.828
175.319
169.112
163.181
157.505
152.066
146.849
141.84
137.026
132.399
127.945
123.657
119.525
115.54
111.695
107.984
104.402
100.947
97.6139
94.4019
91.3086
88.3311
85.4658
82.7079
80.0509
77.4866
75.0079
72.6113
70.2939
68.0527
65.885
63.7884
61.7602
59.7982
57.9001
56.0639
54.2874
52.5689
50.9066
49.2991
47.7451
46.2434
44.793
43.3929
42.0421
40.7394
39.4836
38.2733
37.1071
35.9835
34.9009
33.8578
32.8526
31.8838
30.9497
30.0487
16488
6633.61
3788.69
2609.21
1975.71
1583.59
1317.94
1126.42
981.931
869.11
778.599
704.383
642.426
589.919
544.848
505.731
471.457
441.172
414.214
390.059
368.287
348.559
330.597
314.171
299.089
285.19
272.338
260.415
249.315
238.951
229.25
220.15
211.596
203.535
195.922
188.713
181.869
175.358
169.148
163.216
157.538
152.098
146.88
141.869
137.056
132.427
127.973
123.684
119.551
115.566
111.72
108.009
104.427
100.97
97.6362
94.4227
91.3275
88.3479
85.4805
82.7207
80.0625
77.4974
75.0183
72.6215
70.3037
68.0622
65.8941
63.7971
61.7685
59.8061
57.9076
56.0708
54.2939
52.575
50.9123
49.3044
47.75
46.2481
44.7975
43.3972
42.0463
40.7436
39.4878
38.2776
37.1114
35.9879
34.9054
33.8625
32.8574
31.8886
30.9547
30.0537
16488.9
6632.85
3788.23
2608.97
1975.57
1583.52
1317.93
1126.43
981.971
869.164
778.66
704.448
642.493
589.986
544.913
505.796
471.52
441.233
414.274
390.117
368.344
348.614
330.651
314.223
299.139
285.239
272.385
260.461
249.365
239.005
229.305
220.205
211.648
203.585
195.969
188.756
181.91
175.396
169.184
163.25
157.571
152.13
146.91
141.899
137.085
132.455
128.001
123.711
119.578
115.592
111.746
108.034
104.451
100.994
97.659
94.4441
91.3471
88.3654
85.4959
82.7343
80.0747
77.5089
75.0293
72.6321
70.3139
68.0721
65.9037
63.8062
61.7773
59.8144
57.9155
56.0783
54.301
52.5816
50.9185
49.3102
47.7556
46.2533
44.8025
43.4022
42.0512
40.7484
39.4926
38.2824
37.1163
35.9929
34.9105
33.8676
32.8627
31.8941
30.9603
30.0594
16489.7
6632.23
3787.81
2608.74
1975.43
1583.45
1317.89
1126.43
981.993
869.2
778.706
704.499
642.546
590.04
544.968
505.85
471.574
441.287
414.327
390.169
368.395
348.664
330.699
314.27
299.185
285.283
272.428
260.503
249.408
239.053
229.357
220.258
211.7
203.634
196.015
188.8
181.951
175.434
169.22
163.284
157.604
152.161
146.941
141.929
137.114
132.484
128.029
123.739
119.605
115.618
111.772
108.06
104.477
101.019
97.6825
94.4661
91.3673
88.3836
85.512
82.7485
80.0876
77.5209
75.0408
72.6431
70.3246
68.0824
65.9137
63.8158
61.7865
59.8232
57.9239
56.0863
54.3085
52.5887
50.9252
49.3166
47.7616
46.2591
44.8081
43.4076
42.0565
40.7537
39.4979
38.2878
37.1218
35.9984
34.9162
33.8734
32.8685
31.9
30.9664
30.0656
16490.4
6631.73
3787.44
2608.53
1975.3
1583.37
1317.85
1126.42
982.002
869.224
778.739
704.539
642.59
590.086
545.015
505.898
471.621
441.334
414.373
390.215
368.441
348.709
330.744
314.314
299.228
285.325
272.469
260.543
249.448
239.096
229.405
220.308
211.75
203.682
196.06
188.842
181.991
175.472
169.256
163.318
157.637
152.193
146.972
141.959
137.143
132.513
128.057
123.766
119.632
115.645
111.799
108.086
104.502
101.043
97.7064
94.4887
91.3881
88.4023
85.5287
82.7634
80.1011
77.5335
75.0528
72.6546
70.3357
68.0931
65.924
63.8258
61.7961
59.8325
57.9327
56.0947
54.3165
52.5963
50.9325
49.3235
47.7682
46.2655
44.8143
43.4136
42.0625
40.7596
39.5038
38.2937
37.1277
36.0045
34.9223
33.8797
32.8749
31.9065
30.973
30.0723
16491
6631.33
3787.12
2608.34
1975.17
1583.29
1317.8
1126.4
982.002
869.239
778.764
704.57
642.626
590.125
545.056
505.939
471.663
441.376
414.416
390.258
368.483
348.751
330.785
314.354
299.268
285.364
272.507
260.581
249.485
239.135
229.449
220.356
211.799
203.73
196.106
188.885
182.031
175.509
169.292
163.352
157.669
152.225
147.003
141.989
137.173
132.541
128.085
123.794
119.659
115.672
111.825
108.112
104.528
101.069
97.7307
94.5117
91.4094
88.4217
85.546
82.779
80.1152
77.5466
75.0653
72.6666
70.3473
68.1043
65.9348
63.8363
61.8061
59.8421
57.942
56.1036
54.325
52.6044
50.9402
49.3309
47.7754
46.2724
44.821
43.4202
42.0689
40.766
39.5102
38.3001
37.1343
36.0111
34.929
33.8865
32.8818
31.9135
30.9801
30.0795
16491.4
6631.02
3786.84
2608.16
1975.06
1583.21
1317.76
1126.38
981.995
869.246
778.781
704.595
642.655
590.158
545.091
505.975
471.7
441.414
414.454
390.296
368.521
348.79
330.823
314.392
299.305
285.401
272.544
260.617
249.521
239.171
229.488
220.4
211.845
203.777
196.151
188.928
182.071
175.547
169.327
163.386
157.702
152.256
147.033
142.019
137.202
132.57
128.114
123.822
119.687
115.699
111.852
108.139
104.554
101.094
97.7555
94.5352
91.4312
88.4415
85.5639
82.7951
80.13
77.5604
75.0784
72.6791
70.3592
68.1158
65.9459
63.847
61.8165
59.8522
57.9516
56.1129
54.3339
52.613
50.9484
49.3388
47.783
46.2797
44.8282
43.4272
42.0759
40.7729
39.5171
38.3071
37.1413
36.0182
34.9362
33.8937
32.8892
31.921
30.9876
30.0871
16491.9
6630.77
3786.6
2608.01
1974.96
1583.14
1317.71
1126.35
981.985
869.248
778.793
704.613
642.679
590.185
545.121
506.008
471.734
441.449
414.489
390.332
368.557
348.825
330.859
314.428
299.341
285.436
272.578
260.651
249.555
239.205
229.524
220.441
211.89
203.822
196.195
188.97
182.11
175.584
169.362
163.419
157.734
152.287
147.064
142.049
137.231
132.599
128.142
123.85
119.714
115.727
111.879
108.166
104.581
101.12
97.7806
94.559
91.4534
88.4619
85.5824
82.8118
80.1453
77.5748
75.0919
72.692
70.3716
68.1277
65.9574
63.8581
61.8273
59.8625
57.9617
56.1225
54.3432
52.6219
50.957
49.3471
47.791
46.2876
44.8358
43.4347
42.0833
40.7803
39.5245
38.3145
37.1487
36.0257
34.9438
33.9014
32.897
31.9289
30.9956
30.0951
16492.3
6630.58
3786.41
2607.88
1974.87
1583.08
1317.67
1126.32
981.972
869.246
778.8
704.628
642.699
590.209
545.148
506.037
471.764
441.48
414.522
390.365
368.591
348.859
330.893
314.462
299.374
285.47
272.612
260.684
249.588
239.238
229.558
220.478
211.932
203.866
196.238
189.011
182.15
175.621
169.397
163.453
157.766
152.319
147.094
142.079
137.261
132.628
128.17
123.878
119.742
115.754
111.907
108.193
104.608
101.147
97.8061
94.5832
91.4761
88.4827
85.6013
82.829
80.1613
77.5897
75.1059
72.7053
70.3843
68.14
65.9693
63.8696
61.8384
59.8733
57.972
56.1325
54.3529
52.6313
50.966
49.3559
47.7995
46.2958
44.8439
43.4427
42.0912
40.7882
39.5323
38.3223
37.1565
36.0336
34.9518
33.9095
32.9052
31.9371
31.0038
30.1033
16492.6
6630.43
3786.24
2607.76
1974.79
1583.02
1317.63
1126.3
981.959
869.243
778.805
704.639
642.716
590.23
545.171
506.063
471.792
441.51
414.552
390.396
368.622
348.891
330.925
314.494
299.407
285.502
272.644
260.716
249.62
239.27
229.591
220.513
211.971
203.908
196.281
189.053
182.189
175.658
169.433
163.486
157.798
152.35
147.125
142.109
137.29
132.657
128.199
123.906
119.77
115.782
111.934
108.22
104.635
101.173
97.8318
94.6078
91.499
88.5039
85.6207
82.8468
80.1778
77.6051
75.1205
72.7191
70.3975
68.1526
65.9814
63.8813
61.8497
59.8843
57.9827
56.1429
54.3629
52.6409
50.9754
49.365
47.8083
46.3045
44.8524
43.4511
42.0995
40.7964
39.5405
38.3305
37.1647
36.0418
34.96
33.9178
32.9133
31.9452
31.0119
30.1115
16493
6630.32
3786.11
2607.67
1974.72
1582.97
1317.59
1126.28
981.945
869.239
778.808
704.648
642.729
590.247
545.192
506.086
471.818
441.537
414.58
390.425
368.652
348.922
330.956
314.525
299.438
285.533
272.675
260.747
249.651
239.301
229.622
220.546
212.008
203.948
196.322
189.093
182.228
175.696
169.468
163.52
157.831
152.381
147.155
142.139
137.319
132.686
128.227
123.934
119.798
115.81
111.962
108.248
104.662
101.2
97.8578
94.6326
91.5223
88.5255
85.6405
82.8651
80.1948
77.6211
75.1355
72.7333
70.411
68.1655
65.9939
63.8934
61.8614
59.8955
57.9936
56.1535
54.3732
52.6509
50.9851
49.3744
47.8175
46.3135
44.8612
43.4598
42.1081
40.8049
39.549
38.339
37.1732
36.0503
34.9686
33.9262
16493.3
6630.25
3786
2607.58
1974.66
1582.93
1317.56
1126.26
981.933
869.234
778.809
704.655
642.741
590.263
545.211
506.107
471.841
441.562
414.607
390.453
368.68
348.951
330.985
314.555
299.467
285.563
272.705
260.778
249.681
239.331
229.652
220.578
212.043
203.986
196.362
189.133
182.267
175.732
169.503
163.553
157.863
152.412
147.186
142.169
137.349
132.715
128.256
123.963
119.826
115.837
111.989
108.275
104.689
101.227
97.8839
94.6576
91.5459
88.5474
85.6607
82.8838
80.2123
77.6375
75.151
72.7479
70.4249
68.1788
66.0067
63.9057
61.8733
59.9071
58.0048
56.1643
54.3837
52.6612
50.9951
49.3841
47.8271
46.3228
44.8704
43.4688
42.117
40.8138
39.5579
38.3478
37.1821
36.0592
34.9777
33.9355
16493.6
6630.2
3785.91
2607.51
1974.61
1582.89
1317.54
1126.24
981.922
869.229
778.811
704.662
642.752
590.277
545.228
506.127
471.863
441.585
414.632
390.479
368.707
348.978
331.013
314.583
299.496
285.592
272.734
260.807
249.711
239.36
229.681
220.608
212.076
204.023
196.401
189.172
182.305
175.769
169.538
163.587
157.895
152.443
147.216
142.198
137.378
132.744
128.284
123.991
119.854
115.865
112.017
108.303
104.717
101.254
97.9102
94.6828
91.5697
88.5695
85.6812
82.9029
80.2303
77.6545
75.1669
72.7629
70.4391
68.1924
66.0197
63.9182
61.8854
59.9188
58.0162
56.1754
54.3945
52.6717
51.0054
49.3942
47.8369
46.3324
44.8799
43.4782
42.1263
40.823
39.567
38.3569
37.1913
36.0683
34.9869
33.9448
16493.9
6630.17
3785.84
2607.46
1974.57
1582.86
1317.52
1126.22
981.913
869.226
778.812
704.667
642.761
590.29
545.244
506.145
471.883
441.607
414.655
390.504
368.733
349.005
331.041
314.611
299.524
285.62
272.763
260.835
249.739
239.389
229.71
220.637
212.107
204.057
196.438
189.21
182.343
175.805
169.572
163.62
157.927
152.474
147.246
142.228
137.407
132.772
128.313
124.019
119.882
115.893
112.045
108.331
104.744
101.281
97.9366
94.7081
91.5936
88.5919
85.702
82.9224
80.2487
77.6718
75.1832
72.7783
70.4537
68.2063
66.033
63.931
61.8978
59.9308
58.0278
56.1867
54.4055
52.6824
51.0158
49.4044
47.8469
46.3423
44.8896
43.4878
42.1358
40.8324
39.5764
38.3664
37.2005
16494.2
6630.16
3785.79
2607.41
1974.54
1582.84
1317.5
1126.21
981.906
869.223
778.813
704.672
642.77
590.302
545.259
506.162
471.902
441.628
414.678
390.527
368.758
349.03
331.067
314.637
299.551
285.648
272.79
260.863
249.767
239.417
229.738
220.665
212.137
204.09
196.473
189.247
182.379
175.841
169.607
163.653
157.959
152.505
147.276
142.258
137.436
132.801
128.341
124.047
119.91
115.921
112.073
108.358
104.772
101.308
97.963
94.7336
91.6177
88.6145
85.7231
82.9422
80.2675
77.6896
75.1999
72.794
70.4686
68.2205
66.0465
63.944
61.9103
59.9429
58.0396
56.1982
54.4167
52.6933
51.0265
49.4149
47.8572
46.3525
44.8996
43.4977
42.1456
40.8423
39.5863
38.3764
37.2108
16494.5
6630.17
3785.75
2607.37
1974.51
1582.82
1317.48
1126.2
981.901
869.222
778.815
704.678
642.778
590.313
545.272
506.178
471.92
441.648
414.699
390.55
368.781
349.055
331.092
314.663
299.578
285.674
272.817
260.89
249.794
239.444
229.765
220.692
212.165
204.121
196.507
189.283
182.415
175.877
169.641
163.686
157.991
152.536
147.306
142.287
137.466
132.83
128.37
124.076
119.938
115.949
112.101
108.386
104.799
101.335
97.9895
94.759
91.6419
88.6372
85.7444
82.9623
80.2867
77.7078
75.2169
72.8101
70.4838
68.2349
66.0603
63.9572
61.923
59.9552
58.0515
56.2098
54.428
52.7044
51.0374
49.4255
47.8677
46.3628
44.9099
43.5079
42.1558
40.8524
39.5966
38.3868
37.2213
16494.8
6630.2
3785.73
2607.35
1974.49
1582.8
1317.47
1126.19
981.898
869.222
778.818
704.683
642.786
590.324
545.285
506.194
471.938
441.667
414.719
390.571
368.804
349.078
331.116
314.688
299.603
285.7
272.843
260.916
249.821
239.47
229.791
220.719
212.193
204.151
196.54
189.317
182.451
175.911
169.675
163.719
158.022
152.567
147.336
142.317
137.494
132.858
128.398
124.104
119.966
115.977
112.128
108.414
104.827
101.362
98.0159
94.7844
91.6661
88.66
85.766
82.9827
80.3061
77.7262
75.2343
72.8264
70.4993
68.2496
66.0743
63.9706
61.9359
59.9677
58.0636
56.2215
54.4394
52.7156
51.0484
49.4364
47.8784
46.3734
44.9204
43.5183
42.1662
40.8629
39.6071
38.3975
37.232
16495.1
6630.24
3785.71
2607.33
1974.47
1582.79
1317.47
1126.19
981.897
869.223
778.822
704.689
642.795
590.334
545.298
506.208
471.954
441.685
414.739
390.592
368.826
349.101
331.139
314.712
299.627
285.725
272.868
260.942
249.846
239.496
229.817
220.744
212.219
204.18
196.571
189.351
182.485
175.945
169.708
163.751
158.053
152.597
147.366
142.346
137.523
132.887
128.426
124.132
119.994
116.004
112.156
108.441
104.854
101.389
98.0422
94.8097
91.6902
88.6829
85.7876
83.0034
80.3259
77.7449
75.2519
72.843
70.515
68.2645
66.0885
63.9842
61.9489
59.9802
58.0757
56.2333
54.451
52.7269
51.0595
49.4473
47.8892
46.3841
44.931
43.529
42.1769
40.8736
39.6179
38.4082
37.2428
16495.4
6630.29
3785.71
2607.31
1974.46
1582.79
1317.46
1126.19
981.897
869.225
778.827
704.696
642.803
590.345
545.31
506.222
471.97
441.702
414.757
390.612
368.847
349.123
331.162
314.735
299.651
285.749
272.893
260.967
249.871
239.521
229.842
220.769
212.244
204.207
196.601
189.382
182.518
175.979
169.741
163.783
158.084
152.627
147.395
142.375
137.552
132.915
128.454
124.159
120.021
116.032
112.183
108.469
104.881
101.416
98.0683
94.8349
91.7142
88.7057
85.8094
83.0243
80.3459
77.7638
75.2697
72.8598
70.5308
68.2795
66.1028
63.9979
61.9621
59.9929
58.088
56.2452
54.4626
52.7383
51.0707
49.4584
47.9002
46.395
44.9419
43.5398
42.1877
40.8844
39.6287
38.4191
37.2536
16495.7
6630.34
3785.71
2607.31
1974.45
1582.78
1317.46
1126.19
981.9
869.229
778.832
704.703
642.812
590.355
545.322
506.236
471.985
441.719
414.775
390.631
368.867
349.143
331.184
314.757
299.674
285.772
272.916
260.99
249.895
239.545
229.866
220.792
212.268
204.233
196.629
189.413
182.549
176.011
169.773
163.814
158.115
152.657
147.425
142.403
137.58
132.943
128.482
124.187
120.049
116.059
112.211
108.496
104.908
101.443
98.0941
94.8599
91.7381
88.7285
85.8313
83.0455
80.3661
77.7829
75.2876
72.8768
70.5469
68.2947
66.1172
64.0117
61.9753
60.0056
58.1003
56.2572
54.4743
52.7498
51.082
49.4695
47.9112
46.406
44.9528
43.5507
42.1986
40.8953
39.6396
38.4299
37.2644
16496
6630.41
3785.72
2607.3
1974.45
1582.78
1317.46
1126.19
981.903
869.234
778.838
704.711
642.821
590.366
545.334
506.249
471.999
441.734
414.792
390.649
368.886
349.163
331.204
314.779
299.696
285.795
272.939
261.013
249.918
239.568
229.889
220.815
212.291
204.257
196.656
189.442
182.58
176.042
169.804
163.845
158.145
152.686
147.453
142.431
137.608
132.97
128.509
124.214
120.076
116.086
112.238
108.523
104.935
101.469
98.1197
94.8846
91.7618
88.7512
85.8532
83.0667
80.3864
77.8021
75.3058
72.8939
70.563
68.31
66.1318
64.0255
61.9886
60.0184
58.1127
56.2692
54.486
52.7613
51.0933
49.4807
47.9223
46.417
44.9638
43.5616
42.2095
40.9062
39.6505
38.4408
37.2752
16496.3
6630.49
3785.74
2607.31
1974.45
1582.78
1317.46
1126.2
981.908
869.24
778.845
704.719
642.83
590.376
545.346
506.262
472.014
441.75
414.808
390.666
368.904
349.182
331.224
314.799
299.717
285.816
272.961
261.035
249.94
239.59
229.911
220.837
212.313
204.28
196.681
189.469
182.609
176.072
169.834
163.875
158.174
152.715
147.481
142.459
137.635
132.997
128.536
124.241
120.102
116.113
112.264
108.549
104.961
101.495
98.1449
94.9089
91.7852
88.7737
85.875
83.088
80.4069
77.8214
75.324
72.9111
70.5793
68.3254
66.1464
64.0395
62.0019
60.0312
58.1251
56.2812
54.4977
52.7727
51.1046
49.4919
47.9334
46.428
44.9747
43.5726
42.2204
40.9171
39.6613
38.4516
37.2859
16496.6
6630.57
3785.76
2607.31
1974.45
1582.78
1317.47
1126.2
981.914
869.246
778.853
704.727
642.84
590.387
545.358
506.275
472.027
441.764
414.824
390.683
368.921
349.201
331.243
314.819
299.737
285.836
272.981
261.056
249.961
239.611
229.932
220.858
212.333
204.302
196.705
189.495
182.636
176.101
169.863
163.904
158.203
152.743
147.509
142.486
137.662
133.024
128.562
124.267
120.128
116.139
112.29
108.575
104.987
101.52
98.1696
94.9328
91.8082
88.796
85.8968
83.1093
80.4273
77.8407
75.3422
72.9283
70.5956
68.3408
66.161
64.0534
62.0152
60.044
58.1374
56.2932
54.5094
52.7842
51.1158
49.503
47.9444
46.4389
44.9856
43.5834
42.2313
40.9279
39.6721
38.4623
37.2966
16496.9
6630.66
3785.79
2607.32
1974.46
1582.79
1317.47
1126.21
981.92
869.254
778.861
704.736
642.849
590.397
545.369
506.287
472.04
441.779
414.839
390.699
368.938
349.218
331.261
314.837
299.756
285.856
273.001
261.076
249.981
239.631
229.952
220.878
212.353
204.322
196.727
189.519
182.663
176.128
169.891
163.932
158.23
152.77
147.536
142.512
137.688
133.05
128.588
124.292
120.154
116.164
112.316
108.6
105.012
101.545
98.1938
94.9562
91.8308
88.818
85.9183
83.1305
80.4477
77.86
75.3605
72.9455
70.6119
68.3562
66.1757
64.0673
62.0285
60.0568
58.1497
56.3051
54.521
52.7955
51.127
49.514
47.9553
46.4498
44.9964
43.5942
42.242
40.9386
39.6827
38.4728
37.3071
16497.2
6630.75
3785.82
2607.34
1974.47
1582.79
1317.48
1126.21
981.927
869.261
778.869
704.745
642.859
590.407
545.38
506.299
472.053
441.792
414.853
390.714
368.954
349.235
331.278
314.855
299.774
285.874
273.02
261.095
250
239.65
229.97
220.896
212.371
204.34
196.747
189.542
182.687
176.154
169.918
163.958
158.257
152.796
147.561
142.538
137.713
133.075
128.613
124.317
120.179
116.189
112.341
108.625
105.037
101.569
98.2173
94.979
91.853
88.8396
85.9396
83.1515
80.4681
77.8793
75.3787
72.9627
70.6281
68.3716
66.1902
64.0812
62.0417
60.0694
58.1619
56.3169
54.5325
52.8068
51.1381
49.5249
47.9661
46.4605
45.0071
43.6048
42.2525
40.9491
39.6931
38.4832
37.3174
16497.5
6630.85
3785.86
2607.35
1974.48
1582.8
1317.49
1126.22
981.935
869.269
778.877
704.754
642.869
590.418
545.391
506.31
472.065
441.805
414.867
390.728
368.969
349.25
331.294
314.872
299.791
285.891
273.037
261.113
250.018
239.668
229.988
220.913
212.388
204.357
196.766
189.562
182.71
176.178
169.943
163.984
158.282
152.822
147.586
142.563
137.738
133.099
128.637
124.342
120.203
116.214
112.365
108.649
105.06
101.592
98.2401
95.0012
91.8745
88.8607
85.9605
83.1723
80.4882
77.8984
75.3967
72.9798
70.6442
68.3869
66.2047
64.0949
62.0548
60.082
58.174
56.3286
54.5439
52.8179
51.149
49.5357
47.9768
46.4711
45.0176
43.6152
42.2629
40.9594
39.7033
38.4934
37.3275
16497.9
6630.96
3785.9
2607.37
1974.49
1582.81
1317.49
1126.23
981.943
869.278
778.886
704.763
642.878
590.428
545.401
506.321
472.077
441.817
414.88
390.742
368.983
349.265
331.309
314.887
299.807
285.908
273.054
261.129
250.034
239.684
230.004
220.929
212.403
204.373
196.783
189.581
182.731
176.201
169.966
164.008
158.307
152.846
147.61
142.586
137.761
133.123
128.661
124.365
120.227
116.237
112.388
108.673
105.083
101.615
98.2622
95.0226
91.8954
88.8813
85.981
83.1928
80.5082
77.9173
75.4146
72.9967
70.6602
68.402
66.219
64.1085
62.0678
60.0943
58.1859
56.3401
54.555
52.8288
51.1596
49.5462
47.9872
46.4814
45.0278
43.6254
42.273
40.9694
39.7133
38.5033
37.3373
16498.2
6631.07
3785.94
2607.39
1974.5
1582.82
1317.5
1126.24
981.951
869.286
778.894
704.772
642.887
590.437
545.411
506.332
472.088
441.829
414.892
390.754
368.996
349.278
331.323
314.902
299.821
285.923
273.069
261.144
250.049
239.699
230.019
220.944
212.417
204.387
196.798
189.599
182.75
176.221
169.988
164.03
158.329
152.869
147.633
142.609
137.784
133.145
128.683
124.387
120.249
116.259
112.411
108.695
105.106
101.637
98.2833
95.0431
91.9155
88.9012
86.0011
83.2129
80.5278
77.9359
75.4322
73.0134
70.676
68.4169
66.2331
64.1219
62.0805
60.1065
58.1975
56.3514
54.5659
52.8394
51.1701
49.5565
47.9973
46.4914
45.0377
43.6352
42.2828
40.9791
39.723
38.5128
37.3468
16498.5
6631.18
3785.98
2607.41
1974.51
1582.83
1317.51
1126.24
981.959
869.294
778.903
704.78
642.896
590.446
545.421
506.342
472.099
441.84
414.904
390.766
369.008
349.291
331.336
314.915
299.835
285.936
273.082
261.158
250.063
239.713
230.032
220.956
212.429
204.399
196.812
189.614
182.767
176.24
170.009
164.051
158.351
152.89
147.655
142.63
137.805
133.166
128.704
124.409
120.27
116.281
112.432
108.716
105.127
101.657
98.3034
95.0627
91.9348
88.9204
86.0205
83.2325
80.547
77.9541
75.4496
73.0298
70.6915
68.4315
66.247
64.135
62.093
60.1184
58.209
56.3624
54.5766
52.8498
51.1802
49.5664
48.0071
46.5011
45.0473
43.6447
42.2922
40.9884
39.7322
38.522
37.3557
16498.8
6631.29
3786.03
2607.44
1974.53
1582.84
1317.52
1126.25
981.967
869.302
778.911
704.788
642.904
590.455
545.43
506.351
472.108
441.85
414.914
390.777
369.02
349.303
331.348
314.927
299.847
285.948
273.095
261.17
250.075
239.725
230.044
220.968
212.44
204.41
196.823
189.628
182.782
176.257
170.027
164.071
158.371
152.91
147.675
142.65
137.825
133.186
128.724
124.429
120.291
116.301
112.452
108.736
105.146
101.677
98.3224
95.0813
91.9531
88.9388
86.0393
83.2516
80.5657
77.972
75.4665
73.0458
70.7066
68.4458
66.2605
64.1478
62.1052
60.13
58.2201
56.373
54.5869
52.8598
51.19
49.576
48.0166
46.5104
45.0565
43.6538
42.3011
40.9973
39.741
38.5303
16499.1
6631.41
3786.08
2607.46
1974.54
1582.85
1317.53
1126.26
981.974
869.309
778.918
704.796
642.912
590.463
545.438
506.36
472.117
441.859
414.924
390.787
369.03
349.313
331.359
314.938
299.858
285.959
273.106
261.181
250.086
239.735
230.054
220.977
212.449
204.419
196.833
189.639
182.796
176.272
170.043
164.088
158.389
152.928
147.693
142.669
137.843
133.205
128.743
124.447
120.309
116.32
112.471
108.755
105.165
101.695
98.3401
95.0987
91.9704
88.9565
86.0575
83.2701
80.5837
77.9892
75.4829
73.0613
70.7213
68.4597
66.2737
64.1603
62.117
60.1413
58.2308
56.3833
54.5969
52.8694
51.1994
49.5852
48.0256
46.5194
45.0654
43.6625
42.3098
41.0059
39.7495
38.5388
16499.5
6631.53
3786.13
2607.49
1974.56
1582.86
1317.54
1126.27
981.981
869.316
778.925
704.803
642.919
590.47
545.446
506.368
472.125
441.867
414.932
390.795
369.039
349.322
331.368
314.947
299.868
285.969
273.115
261.19
250.095
239.744
230.062
220.985
212.457
204.426
196.841
189.648
182.807
176.285
170.058
164.103
158.405
152.945
147.71
142.686
137.86
133.222
128.76
124.465
120.327
116.338
112.489
108.773
105.182
101.712
98.3565
95.1148
91.9867
88.9733
86.0752
83.2879
80.6009
78.0057
75.4986
73.0763
70.7355
68.4732
66.2864
64.1723
62.1284
60.1521
58.2411
56.3933
54.6064
52.8787
51.2084
49.5941
48.0343
46.5279
45.0738
43.6709
42.318
41.014
39.7576
38.5467
16499.8
6631.65
3786.18
2607.52
1974.58
1582.87
1317.55
1126.27
981.988
869.323
778.931
704.809
642.926
590.477
545.452
506.375
472.132
441.875
414.939
390.803
369.046
349.33
331.376
314.955
299.876
285.977
273.123
261.198
250.103
239.751
230.069
220.992
212.462
204.432
196.847
189.656
182.816
176.296
170.07
164.117
158.419
152.96
147.725
142.701
137.876
133.238
128.776
124.481
120.343
116.354
112.505
108.789
105.198
101.727
98.3714
95.1297
92.0018
88.9893
86.0921
83.3049
80.6173
78.0214
75.5136
73.0906
70.7491
68.486
66.2985
64.1838
62.1393
60.1625
58.251
56.4027
54.6155
52.8875
51.217
49.6024
48.0425
46.5359
45.0817
43.6787
42.3258
41.0217
39.7651
38.5541
16500.1
6631.77
3786.24
2607.55
1974.59
1582.89
1317.55
1126.28
981.994
869.328
778.937
704.815
642.931
590.482
545.458
506.38
472.138
441.881
414.946
390.809
369.053
349.336
331.383
314.962
299.882
285.983
273.129
261.204
250.108
239.756
230.074
220.996
212.467
204.435
196.851
189.661
182.823
176.304
170.08
164.128
158.431
152.972
147.738
142.715
137.889
133.251
128.79
124.495
120.357
116.368
112.519
108.803
105.212
101.741
98.3848
95.143
92.0157
89.0041
86.108
83.3211
80.6329
78.0363
75.5279
73.1042
70.762
68.4983
66.3101
64.1948
62.1497
60.1723
58.2604
56.4117
54.6241
52.8958
51.225
49.6103
48.0502
46.5435
45.0892
43.686
42.333
41.0288
39.7721
38.561
16500.4
6631.89
3786.29
2607.57
1974.61
1582.9
1317.56
1126.29
982
869.333
778.942
704.819
642.936
590.487
545.463
506.385
472.143
441.886
414.951
390.814
369.058
349.342
331.388
314.967
299.887
285.988
273.134
261.208
250.112
239.76
230.077
220.999
212.469
204.437
196.853
189.664
182.827
176.31
170.087
164.137
158.441
152.983
147.749
142.726
137.901
133.263
128.802
124.507
120.37
116.381
112.532
108.815
105.224
101.753
98.3965
95.1549
92.0282
89.0178
86.1229
83.3362
80.6475
78.0504
75.5413
73.117
70.7742
68.5098
66.321
64.2051
62.1595
60.1816
58.2692
56.4201
54.6322
52.9036
51.2325
49.6176
48.0573
46.5505
45.096
43.6928
42.3396
41.0353
39.7785
38.5672
16500.7
6632.01
3786.35
2607.6
1974.63
1582.91
1317.57
1126.29
982.004
869.338
778.945
704.823
642.939
590.49
545.466
506.388
472.146
441.889
414.954
390.818
369.061
349.345
331.391
314.97
299.89
285.991
273.137
261.211
250.115
239.762
230.078
221
212.469
204.437
196.852
189.664
182.829
176.314
170.093
164.144
158.448
152.991
147.758
142.735
137.911
133.273
128.812
124.518
120.38
116.392
112.543
108.826
105.235
101.763
98.4065
95.1651
92.0393
89.0302
86.1366
83.3503
80.6611
78.0634
75.5538
73.1289
70.7855
68.5205
66.3312
64.2147
62.1686
60.1902
58.2774
56.4279
54.6396
52.9107
51.2395
49.6243
48.0638
46.5569
45.1023
43.6989
42.3456
41.0412
39.7842
38.5729
16501.1
6632.13
3786.4
2607.63
1974.65
1582.92
1317.58
1126.3
982.008
869.341
778.948
704.825
642.942
590.493
545.468
506.391
472.149
441.891
414.956
390.82
369.063
349.347
331.393
314.972
299.892
285.992
273.138
261.212
250.115
239.761
230.078