/*--------------------------------*- C++ -*----------------------------------*\
  =========                 |
  \\      /  F ield         | OpenFOAM: The Open Source CFD Toolbox
   \\    /   O peration     | Website:  https://openfoam.org
    \\  /    A nd           | Version:  10
     \\/     M anipulation  |
\*---------------------------------------------------------------------------*/
FoamFile
{
    format      ascii;
    class       volScalarField;
    location    "6000";
    object      yPlus;
}
// * * * * * * * * * * * * * * * * * * * * * * * * * * * * * * * * * * * * * //

dimensions      [0 0 0 0 0 0 0];

internalField   uniform 0;

boundaryField
{
    right
    {
        type            cyclic;
    }
    left
    {
        type            cyclic;
    }
    outerWall
    {
        type            calculated;
        value           nonuniform List<scalar> 
200
(
30.8524
30.8531
30.8579
30.8616
30.8647
30.8677
30.8704
30.8727
30.8746
30.8763
30.8778
30.879
30.8801
30.8811
30.8821
30.8829
30.8838
30.8846
30.8854
30.8862
30.887
30.8877
30.8885
30.8893
30.8901
30.891
30.8918
30.8926
30.8935
30.8943
30.8952
30.8961
30.897
30.8978
30.8987
30.8996
30.9005
30.9014
30.9024
30.9033
30.9042
30.9051
30.9059
30.9068
30.9077
30.9086
30.9094
30.9103
30.9111
30.9119
30.9127
30.9134
30.9142
30.9149
30.9155
30.9161
30.9167
30.9173
30.9178
30.9182
30.9186
30.9189
30.9192
30.9194
30.9195
30.9195
30.9194
30.9193
30.919
30.9187
30.9182
30.9176
30.9169
30.916
30.9152
30.9134
30.9108
30.906
30.9047
30.904
30.8594
30.8668
30.8775
30.8866
30.8946
30.902
30.9086
30.9143
30.9192
30.9235
30.9272
30.9303
30.933
30.9351
30.9369
30.9383
30.9394
30.9401
30.9405
30.9406
30.9404
30.94
30.9393
30.9383
30.9371
30.9355
30.9338
30.9317
30.9294
30.9268
30.9239
30.9206
30.917
30.913
30.9085
30.9035
30.8978
30.8909
30.8822
30.868
30.9043
30.9058
30.9058
30.9032
30.901
30.9
30.8997
30.9003
30.9007
30.9007
30.9005
30.9002
30.8997
30.8992
30.8986
30.8981
30.8975
30.897
30.8965
30.896
30.8955
30.8951
30.8947
30.8943
30.8939
30.8936
30.8933
30.893
30.8927
30.8925
30.8923
30.8921
30.8919
30.8917
30.8916
30.8915
30.8914
30.8913
30.8912
30.8911
30.8911
30.891
30.891
30.8909
30.8909
30.8909
30.8909
30.8909
30.8909
30.8909
30.8908
30.8908
30.8908
30.8908
30.8908
30.8908
30.8907
30.8907
30.8906
30.8906
30.8905
30.8904
30.8903
30.8901
30.89
30.8898
30.8896
30.8894
30.8891
30.8888
30.8884
30.8879
30.8873
30.8866
30.8857
30.8846
30.883
30.8806
30.8769
30.8678
)
;
    }
    stirrerWall
    {
        type            calculated;
        value           nonuniform List<scalar> 0();
    }
    top
    {
        type            empty;
    }
    bottom
    {
        type            empty;
    }
    procBoundary2to3
    {
        type            processor;
        value           uniform 0;
    }
}


// ************************************************************************* //
