/*--------------------------------*- C++ -*----------------------------------*\
  =========                 |
  \\      /  F ield         | OpenFOAM: The Open Source CFD Toolbox
   \\    /   O peration     | Website:  https://openfoam.org
    \\  /    A nd           | Version:  10
     \\/     M anipulation  |
\*---------------------------------------------------------------------------*/
FoamFile
{
    format      ascii;
    class       volScalarField;
    location    "300";
    object      k;
}
// * * * * * * * * * * * * * * * * * * * * * * * * * * * * * * * * * * * * * //

dimensions      [0 2 -2 0 0 0 0];

internalField   nonuniform List<scalar> 
420
(
7.39863e-13
1.93961e-11
1.2908e-10
4.03056e-10
8.41233e-10
1.38991e-09
2.06392e-09
3.17031e-09
5.30221e-09
9.44061e-09
6.22588e-13
1.6077e-11
1.03341e-10
3.17781e-10
6.54488e-10
1.07392e-09
1.62437e-09
2.62429e-09
4.62446e-09
8.34159e-09
5.09221e-13
1.33197e-11
8.21139e-11
2.45064e-10
4.9409e-10
8.01638e-10
1.22142e-09
2.01988e-09
3.72873e-09
6.76352e-09
4.01572e-13
1.062e-11
6.3377e-11
1.83039e-10
3.60808e-10
5.80792e-10
8.93525e-10
1.50323e-09
2.85205e-09
5.17482e-09
3.02502e-13
7.95595e-12
4.63619e-11
1.2997e-10
2.51391e-10
4.03839e-10
6.28844e-10
1.06671e-09
2.01713e-09
3.74342e-09
2.15881e-13
5.43318e-12
3.07499e-11
8.41884e-11
1.60939e-10
2.60543e-10
4.14623e-10
7.15217e-10
1.33808e-09
2.59511e-09
1.33045e-13
3.15719e-12
1.69674e-11
4.55612e-11
8.70426e-11
1.44398e-10
2.39976e-10
4.32055e-10
8.33012e-10
1.72138e-09
6.12239e-14
1.30979e-12
6.51365e-12
1.71742e-11
3.3306e-11
5.80889e-11
1.04409e-10
2.03399e-10
4.17497e-10
9.83047e-10
1.57819e-14
2.55235e-13
1.16061e-12
3.01886e-12
6.02146e-12
1.1308e-11
2.29576e-11
5.17463e-11
1.26955e-10
4.23617e-10
6.43578e-16
9.61332e-15
4.10693e-14
1.05522e-13
2.11184e-13
4.12274e-13
9.27109e-13
2.49307e-12
9.31594e-12
8.21183e-11
1.74651e-08
3.23902e-08
5.82978e-08
9.11522e-08
1.10985e-07
1.00341e-07
6.94865e-08
3.65419e-08
2.59871e-08
7.9367e-09
1.53499e-08
2.87869e-08
5.37557e-08
8.7588e-08
1.09451e-07
1.01477e-07
7.3136e-08
3.91945e-08
3.07282e-08
7.86955e-09
1.25573e-08
2.44737e-08
4.9124e-08
8.49488e-08
1.09459e-07
1.03848e-07
7.73541e-08
4.20666e-08
3.65959e-08
7.95064e-09
9.77394e-09
2.02797e-08
4.50419e-08
8.29411e-08
1.09814e-07
1.06476e-07
8.1024e-08
4.44128e-08
4.12871e-08
8.40967e-09
7.36681e-09
1.69075e-08
4.25648e-08
8.22034e-08
1.10417e-07
1.08783e-07
8.36211e-08
4.64724e-08
4.20747e-08
9.07085e-09
5.62977e-09
1.51037e-08
4.16432e-08
8.27158e-08
1.11679e-07
1.11059e-07
8.54864e-08
4.7636e-08
3.9926e-08
8.9258e-09
4.22507e-09
1.36442e-08
4.19536e-08
8.45433e-08
1.13778e-07
1.13062e-07
8.65992e-08
4.78289e-08
3.67007e-08
8.20301e-09
2.98569e-09
1.2745e-08
4.38704e-08
8.76951e-08
1.16427e-07
1.14729e-07
8.68291e-08
4.72381e-08
3.33374e-08
7.26817e-09
1.98143e-09
1.28757e-08
4.80717e-08
9.21844e-08
1.19473e-07
1.1608e-07
8.61619e-08
4.60867e-08
3.03677e-08
6.42343e-09
1.35733e-09
1.51061e-08
5.52019e-08
9.77064e-08
1.22732e-07
1.17207e-07
8.4793e-08
4.45027e-08
2.82742e-08
5.99929e-09
1.49171e-09
2.17598e-08
6.36237e-08
9.95827e-08
1.21464e-07
1.14586e-07
8.13493e-08
4.21088e-08
2.73096e-08
6.38934e-09
3.74928e-09
2.82503e-08
6.50394e-08
9.66513e-08
1.18667e-07
1.12809e-07
7.94477e-08
4.20582e-08
2.73393e-08
5.83776e-09
1.26871e-08
3.65991e-08
6.64792e-08
9.6323e-08
1.19419e-07
1.13566e-07
7.85443e-08
4.22219e-08
2.67686e-08
4.84171e-09
2.69226e-08
4.53479e-08
6.89806e-08
9.84709e-08
1.22591e-07
1.14848e-07
7.69591e-08
4.09026e-08
2.4954e-08
4.51358e-09
3.11579e-08
4.53801e-08
6.84978e-08
9.92421e-08
1.23932e-07
1.1446e-07
7.43317e-08
3.93665e-08
2.34127e-08
4.20039e-09
2.88816e-08
4.31672e-08
6.76512e-08
9.96268e-08
1.24235e-07
1.13081e-07
7.19215e-08
3.80146e-08
2.18732e-08
4.08154e-09
2.64048e-08
4.15587e-08
6.7454e-08
1.00167e-07
1.23741e-07
1.11106e-07
6.99806e-08
3.68636e-08
2.04398e-08
4.22329e-09
2.48358e-08
4.0939e-08
6.7636e-08
1.0043e-07
1.22477e-07
1.08663e-07
6.84031e-08
3.60636e-08
1.9103e-08
4.73365e-09
2.36683e-08
4.03574e-08
6.7692e-08
1.00475e-07
1.21086e-07
1.06525e-07
6.72532e-08
3.54558e-08
1.79928e-08
5.47929e-09
2.25543e-08
3.95526e-08
6.73348e-08
1.0013e-07
1.19619e-07
1.04607e-07
6.64994e-08
3.51993e-08
1.73093e-08
6.50881e-09
2.11772e-08
3.81009e-08
6.60237e-08
9.88362e-08
1.17622e-07
1.02785e-07
6.63002e-08
3.52513e-08
1.801e-08
7.58197e-09
1.92879e-08
3.57012e-08
6.33992e-08
9.65653e-08
1.15345e-07
1.02132e-07
6.74458e-08
3.5114e-08
2.18333e-08
8.15778e-09
1.98034e-09
1.33769e-08
2.06467e-08
2.01559e-08
1.75287e-08
1.52136e-08
1.3522e-08
1.21927e-08
1.10483e-08
1.01521e-08
4.44135e-10
6.24803e-09
1.30245e-08
1.42939e-08
1.26655e-08
1.05814e-08
8.82143e-09
7.47095e-09
6.48859e-09
5.87387e-09
1.21466e-10
2.73568e-09
7.58984e-09
9.63653e-09
9.16721e-09
7.82418e-09
6.40069e-09
5.22571e-09
4.33668e-09
3.72977e-09
4.35493e-11
1.09036e-09
3.73549e-09
5.56446e-09
5.89015e-09
5.33306e-09
4.53855e-09
3.72652e-09
3.04232e-09
2.53173e-09
1.59279e-11
4.14455e-10
1.65945e-09
2.79288e-09
3.26642e-09
3.20023e-09
2.91102e-09
2.487e-09
2.05476e-09
1.70085e-09
5.49299e-12
1.46414e-10
6.73766e-10
1.26701e-09
1.61739e-09
1.69318e-09
1.60253e-09
1.43115e-09
1.21644e-09
1.01866e-09
1.72014e-12
4.66857e-11
2.41747e-10
5.06565e-10
6.97318e-10
7.67182e-10
7.41409e-10
6.733e-10
5.79532e-10
4.86752e-10
4.46599e-13
1.22353e-11
6.89426e-11
1.5837e-10
2.30845e-10
2.60428e-10
2.51443e-10
2.25502e-10
1.9173e-10
1.58245e-10
7.49557e-14
2.03425e-12
1.08692e-11
2.6182e-11
3.95004e-11
4.46927e-11
4.22711e-11
3.76005e-11
3.14091e-11
2.50273e-11
5.23051e-15
1.22815e-13
4.85655e-13
1.05381e-12
1.53536e-12
1.72268e-12
1.63852e-12
1.45412e-12
1.21568e-12
9.69206e-13
)
;

boundaryField
{
    right
    {
        type            cyclic;
    }
    left
    {
        type            cyclic;
    }
    outerWall
    {
        type            kqRWallFunction;
        value           nonuniform List<scalar> 
22
(
7.9367e-09
7.86955e-09
7.95064e-09
8.40967e-09
9.07085e-09
8.9258e-09
8.20301e-09
7.26817e-09
6.42343e-09
5.99929e-09
6.38934e-09
5.83776e-09
4.84171e-09
4.51358e-09
4.20039e-09
4.08154e-09
4.22329e-09
4.73365e-09
5.47929e-09
6.50881e-09
7.58197e-09
8.15778e-09
)
;
    }
    stirrerWall
    {
        type            kqRWallFunction;
        value           nonuniform List<scalar> 
42
(
7.39863e-13
6.22588e-13
5.09221e-13
4.01572e-13
3.02502e-13
2.15881e-13
1.33045e-13
6.12239e-14
1.57819e-14
6.43578e-16
6.43578e-16
9.61332e-15
4.10693e-14
1.05522e-13
2.11184e-13
4.12274e-13
9.27109e-13
2.49307e-12
9.31594e-12
8.21183e-11
1.49171e-09
3.74928e-09
1.98034e-09
4.44135e-10
1.21466e-10
4.35493e-11
1.59279e-11
5.49299e-12
1.72014e-12
4.46599e-13
7.49557e-14
5.23051e-15
5.23051e-15
1.22815e-13
4.85655e-13
1.05381e-12
1.53536e-12
1.72268e-12
1.63852e-12
1.45412e-12
1.21568e-12
9.69206e-13
)
;
    }
    top
    {
        type            empty;
    }
    bottom
    {
        type            empty;
    }
}


// ************************************************************************* //
