/*--------------------------------*- C++ -*----------------------------------*\
  =========                 |
  \\      /  F ield         | OpenFOAM: The Open Source CFD Toolbox
   \\    /   O peration     | Website:  https://openfoam.org
    \\  /    A nd           | Version:  10
     \\/     M anipulation  |
\*---------------------------------------------------------------------------*/
FoamFile
{
    format      ascii;
    class       volScalarField;
    location    "300";
    object      k;
}
// * * * * * * * * * * * * * * * * * * * * * * * * * * * * * * * * * * * * * //

dimensions      [0 2 -2 0 0 0 0];

internalField   nonuniform List<scalar> 
2000
(
3.81584e-05
0.00111079
0.00842042
0.0256809
0.0498621
0.0769207
0.103899
0.128881
0.151155
0.171715
0.1936
0.221709
0.262122
0.316567
0.379297
0.445575
0.478943
0.454084
0.386683
0.310779
3.23147e-05
0.0008928
0.0066866
0.0209788
0.0418648
0.0654597
0.0887268
0.109927
0.128733
0.146449
0.166003
0.192189
0.230247
0.280533
0.34248
0.421616
0.484359
0.471151
0.408111
0.329109
2.55365e-05
0.000722302
0.0052007
0.0167173
0.0341583
0.0541541
0.0739456
0.0919591
0.107895
0.123034
0.14
0.163372
0.198486
0.248133
0.312348
0.390819
0.469524
0.470401
0.419601
0.345256
1.89557e-05
0.000547591
0.00384921
0.012625
0.0264695
0.0428665
0.059494
0.0749244
0.0886594
0.101729
0.116441
0.137327
0.170077
0.218771
0.281491
0.353609
0.438092
0.458183
0.424384
0.359087
1.30704e-05
0.000384521
0.00269828
0.00896368
0.0192895
0.0320967
0.0456477
0.0587495
0.0708269
0.0824678
0.0956203
0.114647
0.145345
0.191583
0.249612
0.315187
0.39889
0.438547
0.422998
0.369216
8.39953e-06
0.00024994
0.00179197
0.00599521
0.013208
0.0226321
0.0331667
0.043954
0.0545142
0.0651134
0.0772636
0.0949808
0.123723
0.166459
0.218309
0.275752
0.354182
0.413538
0.415403
0.374095
5.16902e-06
0.000151906
0.00112162
0.00377454
0.00849456
0.0150051
0.0227468
0.0312338
0.0401868
0.0497881
0.0612465
0.0779332
0.104574
0.143467
0.189887
0.239177
0.308503
0.382144
0.400755
0.3726
3.42202e-06
9.60392e-05
0.00066549
0.00223553
0.00513277
0.00936485
0.0147437
0.021092
0.0283575
0.0368209
0.0475815
0.0633563
0.0878776
0.122892
0.164727
0.208095
0.267509
0.345865
0.380348
0.364997
2.91169e-06
7.42534e-05
0.000417055
0.00129504
0.00296716
0.00557093
0.00912947
0.0136688
0.0193302
0.0265709
0.0365143
0.0513644
0.0739301
0.105472
0.143385
0.182725
0.235876
0.313982
0.359442
0.352889
3.47547e-06
8.27442e-05
0.000396024
0.000921611
0.00183227
0.00335182
0.00561408
0.0087625
0.0130734
0.0191623
0.0282357
0.0421732
0.0631759
0.0918124
0.126642
0.163465
0.212949
0.288619
0.338606
0.33644
5.02856e-06
0.000113043
0.000514662
0.00106165
0.00165355
0.00247657
0.00385092
0.00600781
0.00931003
0.0144953
0.0228739
0.0361079
0.0559797
0.0826779
0.115564
0.150173
0.195702
0.266752
0.316121
0.316158
7.88208e-06
0.000160251
0.000703901
0.00146249
0.00222569
0.00288372
0.00365101
0.00514679
0.00781505
0.0125263
0.0207672
0.0341037
0.053843
0.0802639
0.112171
0.144975
0.187002
0.250112
0.294683
0.294943
1.22225e-05
0.000230812
0.000926062
0.00199496
0.00323001
0.0043879
0.00514791
0.00625971
0.00873354
0.0136855
0.0230281
0.0383181
0.0602156
0.0885735
0.121288
0.153061
0.187311
0.234952
0.275696
0.273211
1.7695e-05
0.000316881
0.00119575
0.0025878
0.00448439
0.00675648
0.00856471
0.00994996
0.0128315
0.0192206
0.0318607
0.0519978
0.0790301
0.110639
0.144104
0.175765
0.203365
0.235238
0.259419
0.249048
2.23872e-05
0.000386257
0.00141489
0.0032014
0.00593975
0.00964444
0.0138299
0.0176949
0.0218075
0.0309882
0.0477657
0.0735718
0.10673
0.141428
0.172388
0.198286
0.216267
0.229574
0.224339
0.214771
2.32707e-05
0.000391284
0.0014253
0.00345344
0.0069851
0.0123928
0.0196704
0.0283301
0.037271
0.0503959
0.0709242
0.0966962
0.120884
0.142729
0.158721
0.165585
0.163704
0.155533
0.147781
0.152482
1.80222e-05
0.000295176
0.00108053
0.0028383
0.00629978
0.0122246
0.0210316
0.032558
0.0456903
0.0598761
0.076409
0.092897
0.104853
0.109584
0.112117
0.109718
0.0984135
0.0820875
0.0680189
0.0767568
8.6959e-06
0.000131874
0.000476324
0.00133667
0.00320721
0.00668651
0.0121784
0.0195306
0.0287088
0.0393133
0.0491743
0.0557308
0.0584548
0.0611225
0.0634879
0.0613882
0.0508542
0.0350334
0.025371
0.0331619
1.97493e-06
2.19696e-05
7.74413e-05
0.000218413
0.000531676
0.00114184
0.00220509
0.00399909
0.006704
0.0102661
0.0135332
0.0145629
0.0148434
0.0164865
0.0177411
0.0184082
0.017077
0.0110952
0.00588202
0.00927763
7.39263e-08
7.9218e-07
2.40955e-06
6.67175e-06
1.62249e-05
3.52806e-05
7.02644e-05
0.000142077
0.000266124
0.000451371
0.000672474
0.000780232
0.000867152
0.000998095
0.000990484
0.000912637
0.000886849
0.000597876
0.000342561
0.000930426
0.253713
0.249007
0.363273
0.704851
1.34331
2.16746
2.93905
3.46653
3.69921
3.71917
3.68389
3.77367
4.21009
5.27176
7.53725
12.6493
24.9358
60.8299
177.323
703.115
0.261995
0.242527
0.340702
0.67404
1.32201
2.16792
2.96123
3.50161
3.73616
3.74853
3.70199
3.77983
4.20675
5.26067
7.51535
12.6173
24.8775
60.7992
179.951
730.908
0.274006
0.244375
0.331184
0.661634
1.3227
2.18917
2.99893
3.54647
3.77865
3.78159
3.72338
3.78963
4.20801
5.25534
7.50132
12.5959
24.8286
60.6234
180.797
751.072
0.287488
0.250797
0.3299
0.663062
1.34215
2.22886
3.05036
3.59957
3.82499
3.81581
3.74491
3.7996
4.21005
5.25146
7.48977
12.5783
24.7862
60.3575
179.828
759.627
0.300347
0.259823
0.335749
0.678944
1.38216
2.28807
3.11486
3.65882
3.873
3.84981
3.76585
3.80934
4.21264
5.24893
7.4809
12.5658
24.7579
60.0864
177.205
753.384
0.310421
0.269624
0.348182
0.710927
1.44503
2.3672
3.19114
3.72278
3.9219
3.88329
3.78622
3.81914
4.21621
5.2483
7.47521
12.5584
24.7473
59.8847
173.508
732.353
0.316103
0.278773
0.367326
0.761427
1.53239
2.465
3.27656
3.78909
3.9701
3.91533
3.80557
3.82891
4.22087
5.24971
7.47273
12.556
24.7552
59.8177
170.147
708.971
0.31654
0.286331
0.394098
0.83334
1.64428
2.57733
3.36575
3.8533
4.01446
3.94393
3.82272
3.83799
4.22618
5.25284
7.47309
12.5581
24.7794
59.8953
167.432
685.304
0.311725
0.292347
0.43091
0.929756
1.77781
2.69672
3.45149
3.91041
4.05209
3.96758
3.83685
3.84591
4.23171
5.25729
7.47601
12.563
24.8146
60.1183
165.544
662.261
0.302014
0.298116
0.481988
1.05231
1.92545
2.81241
3.52572
3.9561
4.08117
3.9858
3.84796
3.85269
4.2373
5.26271
7.48068
12.5699
24.8562
60.4808
164.664
641.013
0.288556
0.306583
0.552436
1.19682
2.07216
2.90976
3.57927
3.98581
4.09986
3.99815
3.85603
3.85845
4.24292
5.2689
7.48673
12.5768
24.8969
60.968
164.945
623.097
0.273932
0.32215
0.64364
1.34654
2.19434
2.97131
3.60277
3.99543
4.10671
4.00434
3.86102
3.86309
4.2483
5.2755
7.49366
12.5829
24.9299
61.5531
166.477
610.133
0.259759
0.348327
0.744139
1.47094
2.26852
2.98601
3.59376
3.98604
4.10344
4.00576
3.86369
3.86682
4.25321
5.28205
7.50079
12.5872
24.9489
62.2054
169.237
601.98
0.247596
0.382678
0.82197
1.5397
2.2845
2.95427
3.55677
3.96227
4.0934
4.00456
3.86509
3.87007
4.25759
5.28817
7.50744
12.5884
24.9466
62.8923
172.937
589.901
0.243736
0.40451
0.838783
1.54058
2.24339
2.89842
3.51702
3.93993
4.08224
4.00204
3.86582
3.87306
4.26129
5.29347
7.51287
12.5855
24.9158
63.598
178.733
591.851
0.200591
0.369735
0.816922
1.5054
2.18044
2.83942
3.48039
3.92287
4.07515
4.00026
3.86686
3.87614
4.26417
5.29759
7.5164
12.5775
24.8489
64.1293
184.993
562.52
0.128385
0.304438
0.778895
1.45832
2.11919
2.78535
3.4472
3.91089
4.07266
4.00074
3.86919
3.87974
4.26634
5.3005
7.51769
12.5647
24.7448
64.4144
192.678
646.565
0.0758331
0.249342
0.755183
1.41862
2.06033
2.73825
3.42334
3.90592
4.07521
4.0046
3.87345
3.8841
4.2678
5.30208
7.51628
12.5472
24.5992
64.4746
197.56
773.069
0.035866
0.208175
0.754649
1.39681
2.01346
2.70303
3.41006
3.91007
4.0847
4.013
3.88032
3.88951
4.26866
5.30232
7.51206
12.5156
24.4052
64.3837
196.342
768.085
0.0142479
0.200859
0.797297
1.40129
1.98752
2.6874
3.41453
3.92884
4.10576
4.03045
3.89203
3.89684
4.26961
5.29876
7.50728
12.4514
24.1946
63.7186
194.713
758.974
0.0134409
0.264992
0.912644
1.44844
2.01556
2.72457
3.46794
3.98452
4.15337
4.06505
3.91281
3.90762
4.272
5.29422
7.50315
12.3837
23.9828
62.4908
189.521
747.522
0.0135302
0.273598
0.912895
1.43774
2.00866
2.72498
3.47731
3.99897
4.16886
4.0771
3.91874
3.90742
4.26666
5.2838
7.49101
12.3534
23.9387
62.2283
189.277
746.369
0.01381
0.275038
0.892382
1.41227
1.99538
2.72484
3.49018
4.01951
4.19119
4.09459
3.92721
3.90663
4.25861
5.26963
7.47581
12.3222
23.9109
62.0096
189.461
745.37
0.0143342
0.275994
0.872067
1.39044
1.98808
2.73066
3.50746
4.04269
4.2151
4.11311
3.93645
3.90637
4.25111
5.2565
7.4624
12.2956
23.8943
61.8055
189.701
743.991
0.0151243
0.27785
0.85674
1.37658
1.98972
2.74398
3.52922
4.0676
4.23934
4.13168
3.94596
3.90674
4.24468
5.24518
7.45177
12.2751
23.8897
61.6145
189.904
742.08
0.0162778
0.281606
0.848673
1.37259
2.00137
2.7651
3.55504
4.09338
4.26299
4.1496
3.95536
3.90763
4.23943
5.2361
7.44408
12.2618
23.898
61.4394
190.049
739.637
0.0179549
0.288284
0.849443
1.37965
2.02351
2.79395
3.58434
4.11921
4.28521
4.1662
3.96425
3.90887
4.23539
5.22954
7.43948
12.2562
23.92
61.2839
190.135
736.711
0.020387
0.299037
0.860381
1.39861
2.05626
2.83016
3.6164
4.14426
4.30516
4.18084
3.97222
3.9103
4.23256
5.22564
7.43821
12.2586
23.9562
61.1515
190.168
733.349
0.0238986
0.315189
0.882674
1.43005
2.09939
2.87306
3.65028
4.16755
4.32193
4.19281
3.97887
3.91173
4.23095
5.22425
7.44068
12.2693
24.0071
61.0456
190.153
729.571
0.0289393
0.338232
0.917355
1.4742
2.15222
2.92164
3.68481
4.18802
4.3346
4.20141
3.98376
3.91298
4.23055
5.22536
7.44703
12.2883
24.0731
60.9685
190.088
725.329
0.0361279
0.369825
0.965234
1.5309
2.21363
2.97451
3.71859
4.20452
4.3422
4.20594
3.98648
3.91386
4.23132
5.22896
7.45733
12.3157
24.1542
60.922
189.967
720.47
0.0463101
0.411765
1.02681
1.59951
2.28197
3.02989
3.75
4.2158
4.34379
4.20571
3.98662
3.9142
4.23323
5.23503
7.47161
12.3514
24.2504
60.9066
189.769
714.687
0.0606327
0.465932
1.10215
1.67878
2.35513
3.08572
3.77735
4.22057
4.33841
4.20005
3.98377
3.91379
4.23621
5.24352
7.48982
12.3951
24.3613
60.9217
189.455
707.467
0.0806378
0.53418
1.19077
1.76681
2.43151
3.14038
3.79939
4.21745
4.32519
4.18839
3.9776
3.91246
4.24018
5.25434
7.51188
12.4465
24.4864
60.9647
188.972
698.026
0.108378
0.618163
1.29141
1.86093
2.50843
3.19158
3.81473
4.20569
4.30334
4.17022
3.96779
3.91006
4.24504
5.26739
7.53761
12.5047
24.6254
61.0316
188.239
685.252
0.146557
0.719058
1.40192
1.95771
2.58319
3.23727
3.82229
4.18501
4.27226
4.1452
3.95414
3.90643
4.25067
5.2825
7.56675
12.5683
24.778
61.1166
187.153
667.666
0.198703
0.83717
1.51899
2.05329
2.6531
3.2756
3.82138
4.15548
4.23257
4.11315
3.93651
3.90147
4.25693
5.29946
7.59896
12.6365
24.943
61.2116
185.59
643.396
0.269366
0.971406
1.63803
2.14456
2.71545
3.30503
3.81171
4.11763
4.18535
4.07426
3.91491
3.89511
4.26367
5.31798
7.63383
12.7085
25.1174
61.3064
183.403
610.234
0.364351
1.1186
1.7526
2.2274
2.7678
3.32442
3.79345
4.07258
4.13191
4.02982
3.88962
3.88736
4.27073
5.33776
7.67085
12.7833
25.2986
61.3913
180.447
565.849
0.490973
1.27268
1.85625
2.29842
2.80833
3.3333
3.76751
4.02228
4.07417
3.9815
3.86098
3.87825
4.27783
5.35837
7.70946
12.8596
25.4875
61.4668
176.634
508.296
0.714689
1.46691
1.96442
2.36394
2.83889
3.33039
3.7306
3.96269
4.00883
3.92673
3.82649
3.86637
4.28463
5.38013
7.75017
12.9383
25.6897
61.491
171.248
446.754
1.35676
1.64689
1.95726
2.34604
2.81162
3.29097
3.68159
3.90589
3.95176
3.87771
3.79261
3.85365
4.29537
5.40621
7.78939
13.005
25.5866
62.0962
174.452
474.078
1.40863
1.62665
1.92399
2.31297
2.77643
3.24834
3.63228
3.85476
3.90552
3.84131
3.76855
3.8484
4.30651
5.42926
7.82448
13.0678
25.6628
62.682
179.432
517.633
1.33915
1.55864
1.86054
2.25583
2.72401
3.19733
3.58265
3.80822
3.86494
3.81
3.74891
3.84525
4.31691
5.44953
7.85659
13.1183
25.7579
63.0535
185.812
580.839
1.25618
1.47651
1.78166
2.18298
2.65685
3.13624
3.52765
3.76
3.82494
3.77968
3.73018
3.84129
4.32449
5.46548
7.88152
13.1564
25.8174
63.2463
192.289
672.734
1.16767
1.38724
1.69483
2.10164
2.58352
3.07264
3.47327
3.71425
3.7879
3.75161
3.71307
3.83679
4.32937
5.47674
7.89908
13.1831
25.8489
63.2305
196.636
806.24
1.07836
1.2934
1.60115
2.01232
2.50426
3.00593
3.41862
3.67022
3.7533
3.72533
3.69742
3.83165
4.33163
5.48335
7.90922
13.1987
25.8588
63.0447
195.592
808.336
0.988895
1.19703
1.50242
1.9175
2.42059
2.93701
3.36424
3.62822
3.72127
3.7013
3.68345
3.82592
4.33128
5.48542
7.91237
13.2048
25.8508
62.8203
194.068
806.074
0.897388
1.09543
1.39582
1.81469
2.32985
2.86406
3.3091
3.58753
3.69118
3.68083
3.6713
3.81983
4.32854
5.48317
7.90863
13.2007
25.8243
62.5646
192.306
802.644
0.807393
0.995711
1.29165
1.71321
2.23912
2.79056
3.25463
3.54955
3.66547
3.66402
3.66088
3.81346
4.32367
5.47692
7.89823
13.1867
25.7828
62.2807
190.357
797.438
0.722266
0.899912
1.19003
1.61302
2.15015
2.7204
3.205
3.51693
3.64458
3.65066
3.65213
3.80691
4.31686
5.46698
7.88145
13.1629
25.7262
61.9748
188.377
790.329
0.642186
0.808045
1.0904
1.51383
2.06262
2.65316
3.15977
3.48926
3.62819
3.64058
3.64505
3.80029
4.30833
5.45366
7.85871
13.1294
25.6538
61.6441
186.213
781.314
0.567287
0.719813
0.992581
1.41565
1.97636
2.58847
3.11845
3.46622
3.61612
3.63373
3.63971
3.79371
4.29831
5.43736
7.83061
13.087
25.5691
61.3
183.515
769.755
0.49764
0.635229
0.896978
1.3186
1.89129
2.52609
3.08085
3.44768
3.60838
3.63018
3.63624
3.78741
4.28719
5.41866
7.79797
13.0373
25.4793
61.0006
180.662
755.637
0.433544
0.554991
0.804119
1.22273
1.80732
2.46595
3.04699
3.43374
3.60511
3.63014
3.6349
3.78178
4.2755
5.39833
7.76194
12.9821
25.3889
60.7645
177.725
739.739
0.375649
0.48
0.714232
1.12798
1.72437
2.40812
3.01697
3.42452
3.60647
3.63375
3.6359
3.77713
4.26379
5.37725
7.72408
12.9233
25.3012
60.5861
174.568
722.072
0.324749
0.410788
0.627423
1.03425
1.6424
2.35265
2.9908
3.41997
3.6124
3.64102
3.63935
3.77372
4.25253
5.35631
7.68617
12.8646
25.2205
60.4889
172.587
704.349
0.281602
0.347894
0.544016
0.941567
1.56151
2.29957
2.96847
3.42003
3.62283
3.65185
3.64517
3.77159
4.24195
5.33607
7.64949
12.8091
25.1531
60.5368
172.06
690.342
0.247712
0.29295
0.465764
0.85139
1.48281
2.24977
2.95057
3.42516
3.63798
3.66625
3.65333
3.7708
4.2323
5.31706
7.61499
12.7582
25.0952
60.6753
172.716
682.773
0.228864
0.252359
0.400683
0.772323
1.41506
2.21205
2.94452
3.4407
3.66088
3.68564
3.66437
3.77151
4.22356
5.29938
7.58393
12.7167
25.05
60.8273
174.551
685.497
0.203477
1.03589
1.23326
1.18511
1.1092
1.02949
0.951715
0.87538
0.798809
0.722644
0.651475
0.585121
0.523445
0.466515
0.414703
0.368602
0.328835
0.296085
0.272452
0.268074
0.098756
0.783264
1.07134
1.05103
0.986767
0.919936
0.855367
0.793221
0.732803
0.672379
0.61621
0.564212
0.516374
0.472634
0.433042
0.397848
0.367496
0.342868
0.327434
0.340587
0.050115
0.579406
0.91744
0.930137
0.878586
0.822853
0.770208
0.720794
0.674231
0.62937
0.58917
0.553369
0.52192
0.494785
0.471794
0.452311
0.435
0.418186
0.403373
0.425224
0.0236787
0.414376
0.767203
0.819027
0.780765
0.734193
0.690734
0.650819
0.614077
0.58204
0.555262
0.533219
0.516097
0.50455
0.499114
0.49928
0.501683
0.498547
0.478236
0.480035
0.0114402
0.283544
0.629173
0.718215
0.693422
0.65292
0.614182
0.579224
0.549363
0.525208
0.506235
0.491503
0.4811
0.476213
0.478521
0.489726
0.508314
0.526011
0.519159
0.481552
0.00671163
0.183779
0.496169
0.624838
0.618086
0.58255
0.545648
0.513105
0.486261
0.465129
0.448608
0.435325
0.424661
0.417134
0.41385
0.416169
0.424198
0.437925
0.443604
0.423302
0.00416174
0.117178
0.373953
0.527297
0.549988
0.525354
0.491057
0.459678
0.433788
0.413173
0.396527
0.382459
0.370043
0.35907
0.349568
0.341512
0.337003
0.342377
0.358184
0.35219
0.00259616
0.0735051
0.270348
0.42773
0.480288
0.473652
0.44693
0.418462
0.393722
0.37343
0.356672
0.342362
0.32973
0.318394
0.30768
0.29842
0.297971
0.310949
0.313305
0.294425
0.00161436
0.0458177
0.189231
0.33289
0.406423
0.421688
0.408433
0.386615
0.365008
0.346353
0.33091
0.318329
0.308199
0.300018
0.29308
0.293543
0.306098
0.302756
0.283637
0.254325
0.000996685
0.0283266
0.128434
0.248159
0.330438
0.365659
0.369534
0.358919
0.344042
0.329825
0.317984
0.309488
0.304946
0.303146
0.303439
0.308077
0.303568
0.285389
0.258792
0.226689
0.000610098
0.017374
0.0853263
0.178098
0.256602
0.304332
0.32469
0.328134
0.323618
0.316877
0.310772
0.307021
0.306164
0.306597
0.306062
0.301532
0.286901
0.264072
0.235757
0.204096
0.000368649
0.01052
0.0553577
0.123608
0.19028
0.240611
0.271966
0.288238
0.295018
0.297056
0.297422
0.297843
0.298537
0.297771
0.293839
0.283027
0.264084
0.239196
0.210869
0.181161
0.000218234
0.00624391
0.0349398
0.083091
0.135584
0.181059
0.215187
0.238591
0.253665
0.263067
0.268895
0.27234
0.273482
0.271308
0.26456
0.250257
0.230088
0.206154
0.18044
0.154372
0.000125587
0.00360758
0.0212996
0.0539688
0.0928955
0.130242
0.161529
0.18582
0.20365
0.216091
0.224283
0.228765
0.229539
0.226164
0.217569
0.203705
0.186156
0.166276
0.145291
0.124121
6.94488e-05
0.0020067
0.0123888
0.0335093
0.0608599
0.0892628
0.115055
0.136547
0.153362
0.165607
0.173616
0.177647
0.177748
0.173902
0.165636
0.154341
0.140599
0.125194
0.108844
0.0923444
3.58855e-05
0.00104478
0.00670272
0.0193897
0.0372821
0.0572615
0.0766645
0.0937885
0.107743
0.11817
0.124955
0.128141
0.127845
0.124232
0.117412
0.108438
0.0977157
0.0858103
0.0732971
0.0610422
1.60138e-05
0.000470353
0.00316029
0.00985267
0.0202743
0.0328383
0.0458295
0.0579003
0.0681198
0.0759164
0.080966
0.0831208
0.082417
0.0790718
0.0733045
0.0660721
0.0577921
0.0490213
0.0403517
0.032458
5.18564e-06
0.00015281
0.00107011
0.00376635
0.00856631
0.0149491
0.0219899
0.0287616
0.0345242
0.0387633
0.041163
0.041568
0.0399756
0.0364378
0.0321064
0.0274537
0.0227723
0.0183231
0.0143498
0.0110662
1.02628e-06
3.00658e-05
0.000200098
0.000745505
0.00204024
0.00396561
0.0061829
0.00829547
0.00996057
0.0109425
0.0111263
0.0105119
0.00921871
0.0075964
0.00619645
0.00496153
0.00387786
0.00294357
0.00216665
0.00156996
1.00131e-07
2.39498e-06
1.11259e-05
3.52191e-05
8.79843e-05
0.000189428
0.000315047
0.000430209
0.000506024
0.000526956
0.000492811
0.000417503
0.000326126
0.000265585
0.000215953
0.000172541
0.000134501
0.000101878
7.50835e-05
5.44756e-05
)
;

boundaryField
{
    right
    {
        type            cyclic;
    }
    left
    {
        type            cyclic;
    }
    outerWall
    {
        type            kqRWallFunction;
        value           nonuniform List<scalar> 
60
(
703.115
730.908
751.072
759.627
753.384
732.353
708.971
685.304
662.261
641.013
623.097
610.133
601.98
589.901
591.851
562.52
646.565
773.069
768.085
758.974
747.522
746.369
745.37
743.991
742.08
739.637
736.711
733.349
729.571
725.329
720.47
714.687
707.467
698.026
685.252
667.666
643.396
610.234
565.849
508.296
446.754
474.078
517.633
580.839
672.734
806.24
808.336
806.074
802.644
797.438
790.329
781.314
769.755
755.637
739.739
722.072
704.349
690.342
682.773
685.497
)
;
    }
    stirrerWall
    {
        type            kqRWallFunction;
        value           nonuniform List<scalar> 
100
(
3.81584e-05
3.23147e-05
2.55365e-05
1.89557e-05
1.30704e-05
8.39953e-06
5.16902e-06
3.42202e-06
2.91169e-06
3.47547e-06
5.02856e-06
7.88208e-06
1.22225e-05
1.7695e-05
2.23872e-05
2.32707e-05
1.80222e-05
8.6959e-06
1.97493e-06
7.39263e-08
7.39263e-08
7.9218e-07
2.40955e-06
6.67175e-06
1.62249e-05
3.52806e-05
7.02644e-05
0.000142077
0.000266124
0.000451371
0.000672474
0.000780232
0.000867152
0.000998095
0.000990484
0.000912637
0.000886849
0.000597876
0.000342561
0.000930426
0.0134409
0.0135302
0.01381
0.0143342
0.0151243
0.0162778
0.0179549
0.020387
0.0238986
0.0289393
0.0361279
0.0463101
0.0606327
0.0806378
0.108378
0.146557
0.198703
0.269366
0.364351
0.490973
0.203477
0.098756
0.050115
0.0236787
0.0114402
0.00671163
0.00416174
0.00259616
0.00161436
0.000996685
0.000610098
0.000368649
0.000218234
0.000125587
6.94488e-05
3.58855e-05
1.60138e-05
5.18564e-06
1.02628e-06
1.00131e-07
1.00131e-07
2.39498e-06
1.11259e-05
3.52191e-05
8.79843e-05
0.000189428
0.000315047
0.000430209
0.000506024
0.000526956
0.000492811
0.000417503
0.000326126
0.000265585
0.000215953
0.000172541
0.000134501
0.000101878
7.50835e-05
5.44756e-05
)
;
    }
    top
    {
        type            empty;
    }
    bottom
    {
        type            empty;
    }
}


// ************************************************************************* //
