/*--------------------------------*- C++ -*----------------------------------*\
  =========                 |
  \\      /  F ield         | OpenFOAM: The Open Source CFD Toolbox
   \\    /   O peration     | Website:  https://openfoam.org
    \\  /    A nd           | Version:  10
     \\/     M anipulation  |
\*---------------------------------------------------------------------------*/
FoamFile
{
    format      ascii;
    class       volScalarField;
    location    "300";
    object      nut;
}
// * * * * * * * * * * * * * * * * * * * * * * * * * * * * * * * * * * * * * //

dimensions      [0 2 -1 0 0 0 0];

internalField   nonuniform List<scalar> 
420
(
3.48127e-17
4.31575e-15
8.0607e-14
4.97932e-13
1.64176e-12
3.71801e-12
6.74031e-12
1.10161e-11
1.6918e-11
2.57827e-11
2.92931e-17
3.79282e-15
6.59868e-14
3.93823e-13
1.2802e-12
2.88653e-12
5.29887e-12
8.95087e-12
1.41679e-11
2.11499e-11
2.39586e-17
3.37616e-15
5.58834e-14
3.15079e-13
9.83537e-13
2.16521e-12
3.95261e-12
6.71729e-12
1.08953e-11
1.57605e-11
1.8894e-17
2.82579e-15
4.57733e-14
2.44488e-13
7.26518e-13
1.55101e-12
2.80689e-12
4.78189e-12
7.83255e-12
1.08995e-11
1.42333e-17
2.17156e-15
3.4585e-14
1.74575e-13
4.9163e-13
1.01779e-12
1.83233e-12
3.13264e-12
5.09335e-12
6.94911e-12
1.01583e-17
1.47789e-15
2.21091e-14
1.02819e-13
2.7217e-13
5.51467e-13
1.00958e-12
1.78604e-12
2.95005e-12
4.04837e-12
6.26103e-18
8.18089e-16
9.99085e-15
4.03903e-14
1.00382e-13
2.04261e-13
3.96463e-13
7.67884e-13
1.38231e-12
2.03186e-12
2.88152e-18
2.69097e-16
2.24357e-15
7.77321e-15
1.86938e-14
3.95567e-14
8.44839e-14
1.87058e-13
3.93051e-13
7.33732e-13
7.42894e-19
2.38424e-17
1.41199e-16
4.54781e-16
1.1012e-15
2.47725e-15
5.95155e-15
1.55816e-14
4.26498e-14
1.45524e-13
8.18345e-21
1.58644e-19
8.53578e-19
2.6971e-18
6.51068e-18
1.50867e-17
3.97288e-17
1.2367e-16
5.29635e-16
5.30436e-15
4.07215e-11
6.95098e-11
1.32605e-10
2.5336e-10
3.64748e-10
3.15586e-10
1.47606e-10
3.58817e-11
1.04849e-11
1.87227e-12
3.25829e-11
5.57048e-11
1.11639e-10
2.31964e-10
3.60494e-10
3.39954e-10
1.80748e-10
4.54416e-11
1.12454e-11
1.67389e-12
2.36755e-11
4.12095e-11
9.01757e-11
2.09296e-10
3.53319e-10
3.60041e-10
2.18591e-10
6.18035e-11
1.11953e-11
1.53388e-12
1.58823e-11
2.87796e-11
7.17483e-11
1.88457e-10
3.42985e-10
3.69492e-10
2.44037e-10
8.12268e-11
1.10031e-11
1.54135e-12
9.87354e-12
1.96098e-11
5.85022e-11
1.72895e-10
3.32666e-10
3.70248e-10
2.51104e-10
8.79538e-11
1.04588e-11
1.68009e-12
5.83716e-12
1.39963e-11
4.95301e-11
1.62587e-10
3.26545e-10
3.69942e-10
2.52139e-10
9.09547e-11
1.0382e-11
1.77745e-12
3.18596e-12
9.83383e-12
4.33795e-11
1.5831e-10
3.27171e-10
3.70016e-10
2.49504e-10
9.00498e-11
1.04816e-11
1.78203e-12
1.46918e-12
6.92923e-12
4.01516e-11
1.61446e-10
3.34594e-10
3.70374e-10
2.43545e-10
8.62946e-11
1.07587e-11
1.74921e-12
5.47673e-13
5.17099e-12
4.08224e-11
1.75344e-10
3.49123e-10
3.70401e-10
2.34494e-10
8.07421e-11
1.1374e-11
1.743e-12
1.67192e-13
4.57692e-12
4.86784e-11
2.07607e-10
3.01927e-10
3.00783e-10
2.22582e-10
7.39854e-11
1.26583e-11
1.67438e-12
6.98397e-14
6.18564e-12
7.68837e-11
2.26507e-10
2.86704e-10
2.91167e-10
2.05973e-10
6.56613e-11
1.29084e-11
1.78691e-12
1.75535e-13
1.00095e-11
9.86617e-11
2.687e-10
3.78433e-10
3.51151e-10
1.96638e-10
6.30473e-11
1.22339e-11
1.54752e-12
2.83692e-12
2.93077e-11
1.35473e-10
2.76666e-10
3.76441e-10
3.44791e-10
1.87672e-10
6.04601e-11
1.17476e-11
1.34702e-12
2.86852e-11
9.16999e-11
1.71892e-10
2.677e-10
3.51765e-10
3.37534e-10
1.73814e-10
5.42386e-11
1.16007e-11
1.25989e-12
7.15525e-11
1.08024e-10
1.65567e-10
2.56593e-10
3.33762e-10
3.22043e-10
1.58398e-10
4.81516e-11
1.17188e-11
1.17261e-12
7.85602e-11
1.09301e-10
1.64353e-10
2.54256e-10
3.26266e-10
3.12776e-10
1.44163e-10
4.27644e-11
1.17873e-11
1.13953e-12
7.7048e-11
1.07146e-10
1.6215e-10
2.51524e-10
3.20788e-10
2.99808e-10
1.31779e-10
3.80829e-11
1.13047e-11
1.1792e-12
7.39684e-11
1.05454e-10
1.63493e-10
2.61681e-10
3.4079e-10
2.86744e-10
1.21349e-10
3.4354e-11
9.8997e-12
1.32177e-12
6.9567e-11
1.07993e-10
1.82753e-10
2.95403e-10
3.69591e-10
2.79003e-10
1.14533e-10
3.14124e-11
8.7009e-12
1.53003e-12
6.37571e-11
1.03843e-10
1.79061e-10
2.9564e-10
3.706e-10
2.77439e-10
1.1192e-10
2.94392e-11
7.79161e-12
1.81753e-12
5.69365e-11
9.5537e-11
1.71416e-10
2.92605e-10
3.7382e-10
2.83393e-10
1.15204e-10
2.90311e-11
7.61541e-12
2.11718e-12
4.88303e-11
8.44268e-11
1.58776e-10
2.85369e-10
3.79205e-10
3.00464e-10
1.27729e-10
3.12453e-11
9.0463e-12
1.91548e-12
1.27919e-13
6.78e-12
3.71909e-11
5.75369e-11
5.72467e-11
5.03274e-11
4.39112e-11
3.8403e-11
3.3539e-11
2.93704e-11
2.52502e-14
2.36757e-12
1.71982e-11
3.60158e-11
4.05886e-11
3.65145e-11
3.08865e-11
2.59489e-11
2.20706e-11
1.93828e-11
6.02538e-15
8.17262e-13
7.24794e-12
1.8302e-11
2.46544e-11
2.47077e-11
2.15822e-11
1.80872e-11
1.51271e-11
1.30066e-11
1.86619e-15
2.51453e-13
2.4007e-12
7.05526e-12
1.1494e-11
1.34961e-11
1.31051e-11
1.14637e-11
9.64556e-12
8.17306e-12
5.82862e-16
7.98166e-14
8.18682e-13
2.54628e-12
4.53257e-12
5.91632e-12
6.5225e-12
6.1944e-12
5.36201e-12
4.51634e-12
1.69346e-16
2.41266e-14
2.7995e-13
9.37371e-13
1.76957e-12
2.43017e-12
2.76204e-12
2.73044e-12
2.40282e-12
2.00762e-12
4.3966e-17
6.53447e-15
8.73338e-14
3.21273e-13
6.29308e-13
8.645e-13
9.49298e-13
9.039e-13
7.69019e-13
6.21588e-13
9.28205e-18
1.40984e-15
2.06306e-14
7.86183e-14
1.47876e-13
1.88018e-13
1.89198e-13
1.66794e-13
1.34737e-13
1.0433e-13
1.23696e-18
1.8229e-16
2.03373e-15
6.29802e-15
1.03868e-14
1.21036e-14
1.14411e-14
9.99962e-15
8.02258e-15
6.01574e-15
6.65089e-20
5.7812e-18
2.28575e-17
4.95917e-17
7.22464e-17
8.10554e-17
7.70926e-17
6.84157e-17
5.71985e-17
4.56039e-17
)
;

boundaryField
{
    right
    {
        type            cyclic;
    }
    left
    {
        type            cyclic;
    }
    outerWall
    {
        type            nutkWallFunction;
        Cmu             0.09;
        kappa           0.41;
        E               9.8;
        value           uniform 0;
    }
    stirrerWall
    {
        type            nutkWallFunction;
        Cmu             0.09;
        kappa           0.41;
        E               9.8;
        value           uniform 0;
    }
    top
    {
        type            empty;
    }
    bottom
    {
        type            empty;
    }
}


// ************************************************************************* //
