/*--------------------------------*- C++ -*----------------------------------*\
  =========                 |
  \\      /  F ield         | OpenFOAM: The Open Source CFD Toolbox
   \\    /   O peration     | Website:  https://openfoam.org
    \\  /    A nd           | Version:  10
     \\/     M anipulation  |
\*---------------------------------------------------------------------------*/
FoamFile
{
    format      ascii;
    class       volScalarField;
    location    "300";
    object      nut;
}
// * * * * * * * * * * * * * * * * * * * * * * * * * * * * * * * * * * * * * //

dimensions      [0 2 -1 0 0 0 0];

internalField   nonuniform List<scalar> 
2000
(
4.39538e-10
4.60462e-08
8.42995e-07
4.64036e-06
1.35914e-05
2.79762e-05
4.6839e-05
6.89018e-05
9.2452e-05
0.000115525
0.000137235
0.000159342
0.000187985
0.000229863
0.000280096
0.000321536
0.000321758
0.000285507
0.000236772
0.00019083
3.72214e-10
4.04417e-08
6.93229e-07
3.77535e-06
1.1051e-05
2.26621e-05
3.76874e-05
5.50368e-05
7.36388e-05
9.25541e-05
0.000111727
0.000133154
0.000161787
0.000201778
0.000250835
0.000300201
0.000317847
0.000290539
0.000245454
0.000198295
2.94133e-10
3.49185e-08
5.45257e-07
2.95205e-06
8.68613e-06
1.78743e-05
2.97482e-05
4.34235e-05
5.81798e-05
7.36501e-05
9.01863e-05
0.00010994
0.000137313
0.000176177
0.000225052
0.000275272
0.000304774
0.000287513
0.000249779
0.000205115
2.18331e-10
2.74599e-08
4.01571e-07
2.15128e-06
6.39963e-06
1.33845e-05
2.25922e-05
3.33487e-05
4.51116e-05
5.77764e-05
7.18896e-05
8.97337e-05
0.00011551
0.00015295
0.000199917
0.000247589
0.000284946
0.000279994
0.000251549
0.000211096
1.50543e-10
1.98814e-08
2.82435e-07
1.4787e-06
4.42532e-06
9.4468e-06
1.63246e-05
2.4637e-05
3.40088e-05
4.44091e-05
5.64607e-05
7.24761e-05
9.64519e-05
0.0001316
0.000175021
0.000219626
0.000261219
0.000268874
0.000250387
0.000215111
9.6744e-11
1.34705e-08
1.92797e-07
9.77083e-07
2.90925e-06
6.31067e-06
1.11927e-05
1.73937e-05
2.47357e-05
3.32512e-05
4.35652e-05
5.78935e-05
7.9892e-05
0.000112073
0.000151132
0.000191642
0.000234223
0.000254872
0.000245903
0.000216031
5.9536e-11
8.60829e-09
1.27563e-07
6.26604e-07
1.84109e-06
4.03047e-06
7.32092e-06
1.1747e-05
1.73211e-05
2.41904e-05
3.3008e-05
4.57484e-05
6.55885e-05
9.45265e-05
0.000129526
0.000165649
0.000206831
0.000237789
0.000237588
0.00021295
3.94148e-11
5.71337e-09
8.21752e-08
3.92142e-07
1.13388e-06
2.49494e-06
4.62766e-06
7.6656e-06
1.17565e-05
1.71802e-05
2.4656e-05
3.5911e-05
5.35623e-05
7.92153e-05
0.000110544
0.000142986
0.000180876
0.000217635
0.000225459
0.000205372
3.35374e-11
4.61747e-09
5.73546e-08
2.50155e-07
6.97842e-07
1.53196e-06
2.89034e-06
4.93336e-06
7.8785e-06
1.21104e-05
1.84132e-05
2.83203e-05
4.39503e-05
6.65708e-05
9.45622e-05
0.000123961
0.000158984
0.00019789
0.000210972
0.000193238
4.00322e-11
5.36767e-09
6.02363e-08
2.03225e-07
4.79605e-07
9.94205e-07
1.86539e-06
3.24977e-06
5.38874e-06
8.72318e-06
1.40935e-05
2.28888e-05
3.68747e-05
5.6894e-05
8.20384e-05
0.000108994
0.000141586
0.000179798
0.000193925
0.000175932
5.79235e-11
7.57727e-09
8.54507e-08
2.61608e-07
4.90225e-07
8.1518e-07
1.38551e-06
2.35764e-06
3.98249e-06
6.74085e-06
1.15093e-05
1.95502e-05
3.2341e-05
5.04376e-05
7.33574e-05
9.78793e-05
0.000127259
0.000161826
0.000172672
0.000153091
9.07965e-11
1.08664e-08
1.2435e-07
3.85658e-07
7.06996e-07
1.03118e-06
1.42157e-06
2.15746e-06
3.51868e-06
6.04015e-06
1.06667e-05
1.85706e-05
3.0885e-05
4.80411e-05
6.91635e-05
9.11512e-05
0.000116405
0.00014276
0.000146669
0.000126065
1.40803e-10
1.59272e-08
1.65475e-07
5.2538e-07
1.01717e-06
1.58122e-06
2.08049e-06
2.75621e-06
4.12087e-06
6.83817e-06
1.20293e-05
2.06383e-05
3.16555e-05
4.51595e-05
6.05827e-05
8.19413e-05
9.40095e-05
0.000100667
0.000116452
9.73478e-05
2.03856e-10
2.2241e-08
2.07993e-07
6.26439e-07
1.2913e-06
2.27531e-06
3.35025e-06
4.44258e-06
6.24902e-06
9.82712e-06
1.47724e-05
2.1498e-05
3.13685e-05
4.36661e-05
5.63352e-05
7.28103e-05
7.82171e-05
7.80709e-05
8.60592e-05
7.03268e-05
2.57929e-10
2.71891e-08
2.25883e-07
6.7034e-07
1.47784e-06
2.82481e-06
4.7452e-06
7.1873e-06
1.02703e-05
1.55156e-05
2.36348e-05
2.99299e-05
3.64933e-05
4.64908e-05
5.73096e-05
6.77638e-05
6.79349e-05
6.25414e-05
5.59202e-05
4.71161e-05
2.68127e-10
2.67189e-08
1.91362e-07
5.76709e-07
1.39724e-06
2.99018e-06
5.63734e-06
8.64286e-06
1.35944e-05
1.90533e-05
2.53758e-05
3.50885e-05
4.95754e-05
5.50796e-05
5.64094e-05
5.26901e-05
4.53708e-05
3.70922e-05
3.0355e-05
2.68363e-05
2.07668e-10
1.81227e-08
1.06455e-07
3.31851e-07
8.82924e-07
2.11094e-06
4.47284e-06
8.24722e-06
1.33217e-05
1.92975e-05
2.57914e-05
3.14437e-05
3.46238e-05
3.46125e-05
3.30133e-05
2.92736e-05
2.31837e-05
1.65268e-05
1.1164e-05
1.02349e-05
1.0021e-10
5.94696e-09
2.73169e-08
8.76377e-08
2.46688e-07
6.20518e-07
1.36635e-06
2.51561e-06
4.19143e-06
6.50622e-06
8.89644e-06
1.0546e-05
1.13674e-05
1.22069e-05
1.29453e-05
1.23796e-05
9.56291e-06
5.60557e-06
3.03842e-06
3.07783e-06
2.27609e-11
4.24542e-10
1.70965e-09
5.43021e-09
1.49636e-08
3.67562e-08
8.13262e-08
1.64012e-07
3.04876e-07
5.17816e-07
7.50834e-07
8.63014e-07
9.32709e-07
1.11228e-06
1.28297e-06
1.42849e-06
1.41677e-06
9.18297e-07
3.79434e-07
5.03858e-07
2.18664e-13
2.69418e-12
9.33703e-12
2.92222e-11
7.976e-11
1.93435e-10
4.27247e-10
9.53234e-10
1.96106e-09
3.63786e-09
5.90509e-09
7.43844e-09
8.94646e-09
1.11102e-08
1.18628e-08
1.17301e-08
1.22032e-08
8.78776e-09
5.36703e-09
1.55078e-08
0.000156798
0.000152112
0.000217486
0.000432602
0.000941792
0.00193385
0.0034451
0.00518857
0.00683968
0.00827254
0.00942738
0.0101735
0.0104142
0.0104412
0.0108087
0.01197
0.0143787
0.0196956
0.0292613
0.0439542
0.000158599
0.000144529
0.000197708
0.000398938
0.000893939
0.00187552
0.00338873
0.00514391
0.00681084
0.00825793
0.00942311
0.0101742
0.0104167
0.0104392
0.0108018
0.0119598
0.0143483
0.01961
0.0294616
0.0458185
0.000162749
0.000141962
0.000186021
0.000377667
0.000865118
0.0018452
0.00336569
0.00513006
0.00680496
0.00826021
0.00943087
0.0101828
0.0104249
0.0104424
0.0108002
0.0119552
0.0143243
0.019507
0.0294523
0.0470779
0.000167678
0.000141808
0.000178972
0.000364837
0.000851346
0.00183896
0.00337194
0.00514196
0.00681783
0.00827507
0.00944594
0.0101941
0.0104332
0.0104448
0.0107986
0.0119515
0.0143053
0.0194122
0.0292618
0.0476102
0.000171911
0.0001426
0.000175377
0.000359872
0.000853183
0.00185866
0.00340892
0.00517895
0.00684787
0.0083014
0.00946778
0.0102079
0.0104413
0.0104466
0.0107971
0.0119492
0.014292
0.0193432
0.0289323
0.0471815
0.000173974
0.000142985
0.000174329
0.000362712
0.000872035
0.00190694
0.00347798
0.00524044
0.0068944
0.0083392
0.00949672
0.0102248
0.0104498
0.0104481
0.010796
0.0119482
0.0142837
0.0193064
0.0285506
0.0458379
0.000172636
0.00014183
0.000175231
0.000373812
0.000909957
0.00198643
0.00357886
0.00532369
0.00695491
0.00838693
0.00953187
0.0102443
0.0104588
0.0104497
0.0107954
0.0119483
0.0142785
0.0192888
0.0282314
0.0443884
0.000166984
0.000138293
0.000177793
0.000394069
0.000969501
0.00209889
0.00370791
0.0054226
0.00702457
0.00844087
0.00957087
0.0102654
0.0104678
0.0104512
0.0107953
0.0119498
0.0142757
0.0192876
0.0280028
0.0429404
0.000156541
0.000132078
0.000182269
0.000424974
0.0010536
0.00224406
0.00385746
0.00552871
0.00709779
0.00849738
0.00961161
0.0102868
0.0104764
0.0104525
0.0107957
0.0119518
0.0142745
0.0192994
0.027875
0.0415335
0.0001412
0.000123541
0.000189516
0.000468469
0.00116472
0.00241744
0.00401507
0.00563242
0.00716986
0.00855415
0.00965215
0.0103082
0.0104845
0.0104535
0.0107962
0.0119543
0.0142742
0.0193204
0.0278489
0.0402433
0.000121734
0.000113819
0.000200736
0.000525983
0.00130223
0.00260619
0.00416302
0.00572318
0.0072356
0.00860813
0.00969027
0.0103287
0.0104922
0.0104545
0.0107972
0.0119571
0.0142742
0.0193468
0.0279078
0.039179
0.000100272
0.000104634
0.000216416
0.000595849
0.00145746
0.00278668
0.00428175
0.00579237
0.00729093
0.0086567
0.00972413
0.0103477
0.0104993
0.0104556
0.0107986
0.01196
0.0142743
0.0193775
0.0280094
0.0384586
7.93708e-05
9.7361e-05
0.000234045
0.000669283
0.00161014
0.00287705
0.0038778
0.00522026
0.00688351
0.00869935
0.00975388
0.0103645
0.0105057
0.0104566
0.0108002
0.0119629
0.0142743
0.0194191
0.0280857
0.03803
6.15762e-05
9.1685e-05
0.000244653
0.000727625
0.00163951
0.00228564
0.00329761
0.00460996
0.00624675
0.0086526
0.00977947
0.0103795
0.0105116
0.0104576
0.010802
0.0119651
0.0142737
0.0194946
0.0280877
0.0373671
4.90884e-05
8.33931e-05
0.000235119
0.000748975
0.0013773
0.00211828
0.00312743
0.00442116
0.00603596
0.00842716
0.00980059
0.0103926
0.0105171
0.0104585
0.0108036
0.0119663
0.0142696
0.019609
0.0279493
0.0376981
3.16845e-05
6.39411e-05
0.000213364
0.000742616
0.00141793
0.00220083
0.00321011
0.00450223
0.00610483
0.00851108
0.00981803
0.0104047
0.0105221
0.010459
0.0108048
0.0119659
0.0142576
0.0197269
0.0279996
0.0341671
1.52501e-05
4.24158e-05
0.00018396
0.000717532
0.00158832
0.00241712
0.00343099
0.00473743
0.00634232
0.00879379
0.00983298
0.0104161
0.0105269
0.0104595
0.0108055
0.0119639
0.0142371
0.01983
0.029633
0.0393614
6.28122e-06
2.68904e-05
0.000158285
0.000686765
0.00178407
0.00272581
0.00376428
0.00509987
0.00673891
0.00881172
0.00984675
0.0104273
0.0105314
0.0104596
0.0108053
0.0119604
0.0142073
0.0198557
0.0312101
0.0494665
1.8644e-06
1.69416e-05
0.000139887
0.000665357
0.0017586
0.00298828
0.00435664
0.00589679
0.00745217
0.00882595
0.00986095
0.0104388
0.0105357
0.0104593
0.0108043
0.0119522
0.0141682
0.0197998
0.0310255
0.0493256
3.92455e-07
1.20712e-05
0.000133066
0.000664426
0.00174525
0.00295679
0.00433743
0.0059015
0.00747224
0.00884904
0.00988115
0.0104528
0.0105403
0.0104574
0.0108027
0.0119324
0.01413
0.0196441
0.0307257
0.0484171
1.56832e-07
1.22527e-05
0.000150291
0.000717772
0.00179143
0.00296945
0.00435839
0.00594062
0.00752165
0.00889598
0.00991461
0.0104714
0.0105457
0.0104523
0.0107994
0.0119086
0.014096
0.0193994
0.0300711
0.0474282
1.57991e-07
1.24493e-05
0.00014938
0.000711657
0.00178032
0.00296345
0.00436379
0.00595622
0.00754245
0.00891576
0.00992645
0.0104726
0.010539
0.0104409
0.0107882
0.0118935
0.0140817
0.0193454
0.0300289
0.0473406
1.61365e-07
1.24791e-05
0.000144406
0.00069291
0.00175904
0.00295833
0.00437953
0.0059889
0.00758332
0.00895278
0.00994786
0.0104733
0.0105252
0.0104212
0.0107702
0.011874
0.014068
0.019297
0.0300342
0.0471641
1.67586e-07
1.2534e-05
0.000139971
0.00067763
0.00174462
0.00296172
0.00440466
0.00603096
0.00763273
0.00899644
0.00997315
0.0104751
0.0105108
0.0104013
0.0107521
0.0118558
0.0140572
0.0192515
0.0300434
0.0469412
1.76912e-07
1.26412e-05
0.000137047
0.000669368
0.00174119
0.00297609
0.00444
0.00608201
0.00768933
0.00904552
0.0100018
0.0104781
0.0104967
0.0103822
0.0107354
0.01184
0.0140502
0.0192089
0.0300443
0.0466653
1.90483e-07
1.28421e-05
0.000136104
0.000669665
0.00175038
0.00300235
0.0044857
0.00614149
0.00775226
0.00909898
0.0100331
0.0104824
0.0104832
0.0103643
0.0107202
0.011827
0.0140474
0.0191697
0.0300328
0.0463428
2.10177e-07
1.31917e-05
0.000137531
0.00067964
0.00177311
0.0030409
0.00454159
0.00620876
0.00782048
0.00915583
0.0100665
0.0104877
0.0104704
0.010348
0.0107068
0.0118171
0.014049
0.0191344
0.0300068
0.0459817
2.38707e-07
1.37587e-05
0.000141772
0.00070044
0.00180994
0.00309183
0.00460727
0.00628298
0.00789285
0.00921488
0.010101
0.0104936
0.0104585
0.0103334
0.0106956
0.0118105
0.0140554
0.0191037
0.0299645
0.0455867
2.7987e-07
1.46276e-05
0.000149396
0.000733371
0.00185485
0.0030533
0.00444624
0.00636306
0.007968
0.0092748
0.0101358
0.0104998
0.0104475
0.0103207
0.0106866
0.0118075
0.0140665
0.0190777
0.0299031
0.045159
3.38928e-07
1.59049e-05
0.000161167
0.000779928
0.00171131
0.00284729
0.0041435
0.00625176
0.00804435
0.00933411
0.0101698
0.0105058
0.0104373
0.01031
0.0106802
0.011808
0.0140825
0.0190565
0.0298185
0.0446914
4.23118e-07
1.77284e-05
0.000178136
0.000841766
0.00159307
0.00266109
0.00386053
0.00583172
0.00804422
0.00939115
0.0102018
0.0105111
0.0104281
0.0103014
0.0106763
0.0118122
0.0141032
0.0190401
0.0297049
0.0441854
5.42323e-07
2.02829e-05
0.00020176
0.000920578
0.0014949
0.00249229
0.00359382
0.00542532
0.00745161
0.00944415
0.0102307
0.0105153
0.0104197
0.010295
0.0106751
0.01182
0.0141287
0.0190279
0.0295545
0.0436344
7.09934e-07
2.38264e-05
0.000234085
0.00101787
0.00141436
0.00234254
0.0033493
0.00503181
0.00689019
0.00923265
0.0102552
0.0105176
0.010412
0.0102908
0.0106767
0.0118315
0.0141588
0.019019
0.0293567
0.0430061
9.43935e-07
2.87354e-05
0.000278003
0.00101518
0.00135275
0.00221858
0.00313772
0.00465474
0.00636338
0.00850616
0.0102742
0.0105178
0.0104051
0.0102888
0.010681
0.0118464
0.0141931
0.0190122
0.0290984
0.042256
1.26824e-06
3.55869e-05
0.000337595
0.000983189
0.00130776
0.00211851
0.00295737
0.0043141
0.00586408
0.00784218
0.0102864
0.0105153
0.0103987
0.0102889
0.010688
0.0118645
0.0142316
0.0190061
0.0287638
0.0413218
1.71431e-06
4.53161e-05
0.000418519
0.00096053
0.00127639
0.00203799
0.00280417
0.00401903
0.00540185
0.0072382
0.0102907
0.0105096
0.0103928
0.0102912
0.0106976
0.0118853
0.0142739
0.0189988
0.0283349
0.0401134
2.32312e-06
5.9555e-05
0.000525654
0.000945691
0.00125762
0.00197812
0.00268045
0.00376782
0.00501241
0.00669397
0.00968659
0.0105003
0.0103873
0.0102956
0.0107097
0.0119085
0.0143197
0.0189883
0.0277926
0.0385014
3.14744e-06
8.14429e-05
0.00051984
0.000936436
0.00125307
0.00194787
0.00259805
0.00357456
0.00471337
0.0062555
0.00907128
0.0104873
0.0103819
0.0103017
0.010724
0.0119339
0.0143679
0.0189722
0.0271175
0.0363503
4.25449e-06
0.000117938
0.000507446
0.000941318
0.00127845
0.00197385
0.00260276
0.00350661
0.00455221
0.00597531
0.00857375
0.0104704
0.0103767
0.0103094
0.0107402
0.0119612
0.0144178
0.0189486
0.0262938
0.0336678
5.7288e-06
0.000188316
0.000565511
0.00103352
0.00144396
0.00222853
0.0029551
0.00391244
0.00488575
0.00616352
0.00832068
0.0104497
0.0103712
0.0103183
0.010758
0.0119896
0.0144694
0.0189178
0.0253161
0.0309639
4.05185e-05
0.000489172
0.000837854
0.00139745
0.00196414
0.00269847
0.00347544
0.00438707
0.00537559
0.00661899
0.00877464
0.010422
0.0103649
0.0103292
0.0107783
0.0120206
0.0145261
0.0188738
0.0241272
0.0269608
0.000389429
0.000682813
0.00106694
0.00156066
0.00216601
0.00285654
0.00368772
0.00468125
0.00590539
0.00753158
0.0101355
0.0103976
0.0103619
0.0103433
0.0107959
0.0120492
0.0145338
0.0191822
0.0249867
0.0285264
0.000522675
0.000747246
0.00107236
0.00154871
0.00220915
0.00304789
0.00406246
0.00523985
0.00657955
0.00833976
0.0100999
0.0103808
0.0103634
0.0103581
0.0108146
0.012074
0.0145816
0.0194831
0.0262845
0.0313001
0.000625754
0.000803946
0.0011016
0.00155386
0.00218885
0.0030214
0.00405584
0.00526915
0.0066654
0.00849964
0.0100618
0.0103654
0.010366
0.0103729
0.010833
0.0120935
0.0146244
0.0197185
0.0278156
0.0352642
0.000651289
0.000847342
0.00116093
0.00163803
0.00231043
0.00319682
0.00428465
0.00554351
0.00698854
0.00890297
0.010021
0.0103501
0.010369
0.0103869
0.0108492
0.0121086
0.0146502
0.0198791
0.0294749
0.0409618
0.000676125
0.000871474
0.00118996
0.00168071
0.00238455
0.00331579
0.0044578
0.005774
0.00729009
0.00926127
0.00997901
0.0103354
0.0103725
0.0103998
0.010863
0.0121197
0.0146626
0.0199511
0.0310404
0.0505771
0.000683286
0.000890477
0.00122747
0.00174997
0.00250389
0.00349616
0.00470481
0.00609289
0.00770124
0.00919389
0.00993641
0.0103212
0.0103764
0.0104115
0.0108742
0.0121273
0.0146657
0.0199332
0.0309508
0.0506713
0.00072445
0.000960192
0.00132004
0.00186465
0.00270698
0.00382042
0.0051104
0.00659158
0.00805814
0.0091215
0.00989373
0.0103076
0.0103804
0.0104219
0.010883
0.0121321
0.0146638
0.0199033
0.0307616
0.0504714
0.000696684
0.000885123
0.00120312
0.00172871
0.00255805
0.00373937
0.0051724
0.00663914
0.00795975
0.00904811
0.00985114
0.0102947
0.0103846
0.0104311
0.0108894
0.0121338
0.0146572
0.0198678
0.0305405
0.0501712
0.000616752
0.000788447
0.00108677
0.00159085
0.0024027
0.00358042
0.0050262
0.00651423
0.0078587
0.00897413
0.00980836
0.0102823
0.0103892
0.010439
0.0108934
0.0121327
0.0146475
0.0198291
0.0302967
0.0498125
0.00054071
0.00069554
0.000973172
0.00145319
0.00224425
0.00341618
0.00487517
0.00638622
0.00775606
0.00889918
0.0097651
0.0102706
0.0103938
0.0104459
0.0108949
0.0121286
0.0146346
0.0197905
0.030049
0.0494384
0.000470367
0.000608445
0.000864636
0.00131886
0.00208604
0.00324898
0.00472015
0.00625521
0.00765171
0.00882366
0.00972236
0.0102593
0.0103984
0.0104515
0.0108942
0.0121214
0.0146184
0.0197531
0.0297833
0.0489004
0.000406389
0.000527836
0.000762325
0.00118995
0.00193098
0.00308179
0.0045634
0.00612261
0.0075465
0.00874831
0.00968082
0.0102483
0.0104028
0.0104558
0.0108912
0.0121113
0.0145996
0.0197208
0.0294684
0.0481791
0.000348851
0.000453824
0.000666877
0.0010676
0.00178087
0.00291692
0.00440723
0.00599038
0.00744196
0.00867414
0.00964069
0.0102376
0.0104069
0.0104591
0.0108863
0.0120985
0.0145793
0.0197026
0.0291531
0.0473502
0.000297703
0.000386588
0.000578613
0.00095236
0.00163681
0.00275595
0.00425349
0.00586032
0.00733994
0.00860281
0.00960217
0.0102275
0.0104111
0.0104615
0.0108796
0.0120836
0.0145577
0.0196998
0.0288548
0.0461601
0.00025298
0.000326287
0.000497484
0.000844388
0.00149947
0.00260007
0.00410357
0.00573384
0.00724156
0.00853499
0.00956568
0.0102181
0.0104153
0.0104633
0.010872
0.012067
0.0145346
0.0197075
0.0285723
0.0448552
0.000214779
0.00027282
0.000423264
0.000743655
0.00136932
0.00245022
0.0039586
0.00561214
0.00714797
0.00847107
0.00953165
0.0102097
0.0104198
0.0104648
0.010864
0.0120501
0.0145103
0.0197226
0.0284515
0.043794
0.000183173
0.000226065
0.000355725
0.000650043
0.00124675
0.00230722
0.00381958
0.00549616
0.00705996
0.00841161
0.00950033
0.010202
0.0104242
0.010466
0.0108561
0.012034
0.0144858
0.019748
0.0285096
0.0428963
0.000158615
0.000186467
0.00029535
0.00056412
0.00113262
0.00217228
0.00368796
0.00538749
0.00697866
0.00835745
0.00947212
0.0101951
0.0104282
0.0104667
0.0108484
0.0120189
0.0144604
0.0197671
0.0286989
0.0423785
0.00014344
0.000156907
0.000245957
0.000490285
0.00103219
0.00205232
0.00357129
0.00529294
0.00690911
0.0083117
0.00944845
0.0101889
0.0104307
0.0104658
0.0108407
0.0120064
0.0144355
0.0197619
0.0289825
0.0426354
3.39142e-06
0.000179582
0.00041615
0.00050783
0.000545168
0.000569071
0.000574903
0.000599082
0.000603981
0.000539113
0.000477304
0.000420102
0.000368101
0.000321453
0.000280235
0.00024456
0.000214565
0.000190475
0.000173212
0.000166816
1.54725e-06
0.000107639
0.000388049
0.000449093
0.000488676
0.000506913
0.000510727
0.000522148
0.000546823
0.000495967
0.000447031
0.000401321
0.000359624
0.000322196
0.000289116
0.000260498
0.000236611
0.000218103
0.000207021
0.000211215
7.36605e-07
6.70528e-05
0.00037144
0.000431772
0.000464373
0.000475153
0.000475113
0.000475937
0.000503883
0.000465674
0.000429418
0.000395628
0.000365097
0.000338215
0.000315047
0.000295395
0.000278931
0.00026563
0.000257652
0.000270105
3.25823e-07
4.11635e-05
0.000294235
0.000437119
0.000464375
0.000468977
0.000464901
0.000456819
0.000467256
0.000439106
0.000413837
0.00039085
0.000370765
0.000354343
0.000341979
0.000333449
0.000327542
0.000321978
0.00031446
0.00032361
1.47041e-07
2.40513e-05
0.00020647
0.000448982
0.000487976
0.000489434
0.000480899
0.000457583
0.000432404
0.000410806
0.000392929
0.000377638
0.000364875
0.000355599
0.000350793
0.000351069
0.000355514
0.000360694
0.000358411
0.00034681
8.03834e-08
1.27608e-05
0.000127761
0.000358426
0.000461057
0.000466168
0.000446096
0.000422233
0.000400267
0.000381977
0.000367537
0.000356099
0.000346851
0.000340194
0.000337042
0.000338034
0.000342388
0.000347214
0.000341247
0.000316488
4.63261e-08
6.86333e-06
7.24098e-05
0.000246117
0.000389166
0.000425283
0.000414715
0.000394094
0.000374058
0.000357154
0.000343758
0.000333462
0.000325434
0.000319332
0.000315318
0.00031322
0.000311207
0.000303326
0.000289349
0.000263971
2.67847e-08
3.73592e-06
4.03506e-05
0.000151511
0.000293372
0.000369197
0.000381588
0.000369946
0.000353365
0.000337859
0.000324967
0.000314892
0.000307316
0.000301686
0.000297177
0.000293378
0.000288738
0.000277418
0.000254878
0.000222316
1.53907e-08
2.08676e-06
2.28559e-05
8.90129e-05
0.000197387
0.000292046
0.000335598
0.000342616
0.00033477
0.000323228
0.000312273
0.000303406
0.000297101
0.000292883
0.000289867
0.000288806
0.000285774
0.000265962
0.000234161
0.000195988
8.75203e-09
1.17436e-06
1.3028e-05
5.12092e-05
0.000122332
0.000206542
0.000270249
0.000301723
0.000310536
0.000308664
0.000303297
0.000298288
0.000295461
0.000294179
0.000293272
0.00028654
0.000278634
0.000251179
0.000214828
0.000174664
4.91713e-09
6.65855e-07
7.56567e-06
2.96134e-05
7.25572e-05
0.000132424
0.000193564
0.000240385
0.000268436
0.000282168
0.000287665
0.000289711
0.000290912
0.000291448
0.00028953
0.00028114
0.000259257
0.00022673
0.000188899
0.000150408
2.71656e-09
3.75387e-07
4.41522e-06
1.72901e-05
4.24061e-05
7.96985e-05
0.000124431
0.000168457
0.000204878
0.00023122
0.000248602
0.000259459
0.000265625
0.000267281
0.000263122
0.000248039
0.000221738
0.000188811
0.000154247
0.000121406
1.4642e-09
2.08325e-07
2.57351e-06
1.02011e-05
2.49639e-05
4.71083e-05
7.51592e-05
0.000106218
0.000136621
0.000163285
0.000184465
0.000199619
0.000208693
0.000211355
0.000206432
0.000190167
0.000166941
0.0001406
0.000114273
8.99453e-05
7.63637e-10
1.12863e-07
1.48609e-06
6.064e-06
1.48727e-05
2.80007e-05
4.47287e-05
6.38332e-05
8.36514e-05
0.000102402
0.000118574
0.000130931
0.000138576
0.000140811
0.000136401
0.000125406
0.000110465
9.35358e-05
7.63513e-05
6.04227e-05
3.80771e-10
5.8749e-08
8.3658e-07
3.58886e-06
8.93074e-06
1.68109e-05
2.67569e-05
3.80558e-05
4.98448e-05
6.11436e-05
7.09946e-05
7.85471e-05
8.3125e-05
8.4262e-05
8.12654e-05
7.51617e-05
6.65535e-05
5.63373e-05
4.56677e-05
3.59348e-05
1.7641e-10
2.82891e-08
4.41251e-07
2.04363e-06
5.26322e-06
1.00195e-05
1.59683e-05
2.26367e-05
2.94813e-05
3.59335e-05
4.14337e-05
4.54955e-05
4.77603e-05
4.79941e-05
4.58639e-05
4.17572e-05
3.6028e-05
2.94451e-05
2.29852e-05
1.76277e-05
7.01403e-11
1.1488e-08
1.97542e-07
1.02053e-06
2.81262e-06
5.53354e-06
8.93521e-06
1.26901e-05
1.64407e-05
1.98329e-05
2.25395e-05
2.42865e-05
2.48841e-05
2.41945e-05
2.18851e-05
1.85477e-05
1.47873e-05
1.12232e-05
8.26326e-06
6.1268e-06
2.00944e-11
3.26962e-09
5.82534e-08
3.45274e-07
1.05412e-06
2.19231e-06
3.60968e-06
5.09891e-06
6.45714e-06
7.51285e-06
8.13951e-06
8.26124e-06
7.84555e-06
6.81295e-06
5.47673e-06
4.18571e-06
3.08642e-06
2.22084e-06
1.5799e-06
1.1461e-06
3.49035e-12
5.57676e-10
7.64748e-09
3.83124e-08
1.27545e-07
2.69961e-07
4.36992e-07
5.96093e-07
7.18814e-07
7.86147e-07
7.90253e-07
7.33508e-07
6.26402e-07
4.87671e-07
3.72927e-07
2.79773e-07
2.05513e-07
1.4693e-07
1.01889e-07
6.96636e-08
2.96173e-13
2.76019e-11
1.28213e-10
4.05827e-10
1.01376e-09
2.18245e-09
3.62952e-09
4.95597e-09
5.82908e-09
6.06995e-09
5.67645e-09
4.80889e-09
3.75631e-09
3.05897e-09
2.4873e-09
1.9873e-09
1.54917e-09
1.17344e-09
8.64843e-10
6.27493e-10
)
;

boundaryField
{
    right
    {
        type            cyclic;
    }
    left
    {
        type            cyclic;
    }
    outerWall
    {
        type            nutkWallFunction;
        Cmu             0.09;
        kappa           0.41;
        E               9.8;
        value           nonuniform List<scalar> 
60
(
0
0
0
0
0
0
0
0
0
0
0
0
0
0
0
0
0
0
0
0
0
0
0
0
0
0
0
0
0
0
0
0
0
0
0
0
0
0
0
0
0
0
0
0
0
0.000152004
0.000162603
0.000151544
0.000134621
0.000108762
7.32257e-05
2.78397e-05
0
0
0
0
0
0
0
0
)
;
    }
    stirrerWall
    {
        type            nutkWallFunction;
        Cmu             0.09;
        kappa           0.41;
        E               9.8;
        value           uniform 0;
    }
    top
    {
        type            empty;
    }
    bottom
    {
        type            empty;
    }
}


// ************************************************************************* //
