/*--------------------------------*- C++ -*----------------------------------*\
  =========                 |
  \\      /  F ield         | OpenFOAM: The Open Source CFD Toolbox
   \\    /   O peration     | Website:  https://openfoam.org
    \\  /    A nd           | Version:  10
     \\/     M anipulation  |
\*---------------------------------------------------------------------------*/
FoamFile
{
    format      ascii;
    class       volScalarField;
    location    "300";
    object      omega;
}
// * * * * * * * * * * * * * * * * * * * * * * * * * * * * * * * * * * * * * //

dimensions      [0 0 -1 0 0 0 0];

internalField   nonuniform List<scalar> 
2000
(
86814.7
24123.5
9988.7
5534.25
3668.66
2749.51
2218.21
1870.5
1634.96
1486.39
1410.72
1391.41
1394.38
1377.2
1354.17
1385.77
1488.52
1590.45
1633.15
1628.56
86817.5
22076.2
9645.58
5556.78
3788.33
2888.51
2354.28
1997.34
1748.16
1582.31
1485.79
1443.36
1423.15
1390.31
1365.36
1404.44
1523.88
1621.64
1662.68
1659.69
86819.6
20685.4
9538.08
5662.92
3932.52
3029.72
2485.72
2117.73
1854.51
1670.52
1552.34
1486.02
1445.5
1408.43
1387.89
1419.76
1540.56
1636.1
1679.89
1683.23
86821.1
19941.5
9585.38
5868.59
4136.1
3202.7
2633.39
2246.7
1965.34
1760.74
1619.72
1530.39
1472.41
1430.34
1408.04
1428.21
1537.46
1636.4
1687.08
1701.06
86821.9
19340.7
9553.65
6061.88
4358.9
3397.63
2796.25
2384.61
2082.6
1857.01
1693.57
1581.87
1506.92
1455.79
1426.19
1435.11
1527.04
1631.05
1689.38
1716.4
86822.2
18554.6
9294.57
6135.83
4539.99
3586.33
2963.24
2527.02
2203.87
1958.23
1773.52
1640.61
1548.63
1485.27
1444.49
1438.89
1512.16
1622.54
1689.29
1731.67
86821.8
17646.5
8792.64
6023.81
4613.88
3722.91
3107.1
2658.88
2320.11
2058.17
1855.5
1703.52
1594.4
1517.74
1466.01
1443.88
1491.57
1607.07
1686.77
1749.71
86820.7
16809.6
8098.43
5700.81
4526.72
3753.53
3186
2751.52
2412.06
2143.22
1929.81
1764.26
1640.66
1551.36
1490.15
1455.35
1478.96
1589.19
1687
1777.25
86819.1
16081
7271.52
5176.96
4251.91
3636.46
3158.61
2770.69
2453.54
2194.06
1983.05
1813.7
1682.13
1584.36
1516.31
1474.06
1483.65
1586.65
1703.75
1826.2
86816.8
15415.3
6574.51
4534.92
3820.37
3371.35
3009.6
2696.34
2426.06
2196.71
2003.45
1842.53
1713.26
1613.74
1543.69
1499.76
1504.03
1605.24
1746.07
1912.32
86813.9
14918.7
6022.91
4058.17
3373.05
3038.06
2779.43
2548.23
2337.74
2150.37
1987.43
1846.93
1730.92
1639.21
1575.36
1534.26
1537.82
1648.38
1830.76
2065.16
86810.3
14747.4
5660.62
3792.21
3148.09
2796.54
2568.3
2385.58
2221.02
2073.85
1946.92
1836.43
1743.34
1670.74
1621.83
1590.49
1606.48
1751.97
2009.18
2339.61
86806.2
14491.7
5596.4
3797.18
3175.48
2775
2474.38
2271.13
2119.34
2001.34
1914.33
1844.51
1785.98
1742.55
1717.27
1706.86
1761.47
1989.84
2367.46
2806.54
86801.4
14247.7
5749
4130.98
3472.78
2969.48
2556.44
2239.68
2053.36
1955.87
1923.47
1920.6
1921.52
1922.15
1937.65
1974.4
2117.01
2475.5
3014.42
3541.3
86796
14206.3
6263.82
4775.78
4019.2
3414.19
2914.51
2461.96
2123.35
1997.23
1990.83
2064.25
2173.11
2259.83
2347.89
2495.85
2790.65
3312.81
4011.76
4558.33
86790.1
14644.5
7448.22
5988.19
4999.19
4144.48
3489.31
2985.58
2533.64
2342.9
2315.24
2364.83
2438.4
2591.32
2813.73
3142.63
3608.14
4193.15
4868.42
5681.92
86783.5
16287.7
10150.2
8552.94
7135.14
5791.06
4702.07
3947.75
3429.75
3102.8
2962.58
2954.4
3028.36
3166.02
3396.11
3748.02
4244.94
4966.94
6092.68
7499.52
86776.4
22175.1
17437
15252.2
13001.1
10775.7
8913.09
7763.79
6849.4
6042.42
5527.42
5284.54
5142.34
5007.2
4904.31
4958.83
5317.86
6249.74
8350.08
10774.4
86768.7
51749
45296.4
40221.9
35531.3
31065.1
27114.2
24382.9
21989.3
19825.7
18024.2
16874.5
15914.3
14822.3
13828.2
12886.5
12053.5
12082.3
15502.1
18413.2
338081
294034
258064
228311
203421
182390
164459
149047
135704
124076
113880
104892
96926.8
89835.7
83495.2
77802.9
72673.5
68035.1
63826.9
59997.5
1618.08
1637
1670.33
1629.33
1426.34
1120.8
853.11
668.108
540.846
449.581
390.765
370.93
404.264
504.9
697.332
1056.75
1734.22
3088.49
6059.97
14006
1651.93
1678.04
1723.26
1689.59
1478.86
1155.9
873.846
680.729
548.561
453.93
392.863
371.511
403.848
503.933
695.748
1054.98
1733.83
3100.42
6107.98
14005.7
1683.62
1721.41
1780.36
1751.9
1528.92
1186.41
891.029
691.312
555.279
457.808
394.808
372.161
403.648
503.271
694.551
1053.59
1733.32
3107.78
6138.65
14005.5
1714.53
1768.57
1843.31
1817.42
1576.5
1212.02
904.631
700.039
561.027
461.122
396.457
372.726
403.523
502.78
693.586
1052.45
1732.67
3109.26
6145.47
14005.4
1747.1
1822.04
1914.45
1886.63
1620.01
1231.03
913.739
706.479
565.577
463.754
397.754
373.175
403.459
502.456
692.864
1051.6
1732.29
3106.33
6124.81
14005.3
1784.3
1885.68
1997.27
1960.03
1657.07
1241.36
917.526
710.395
568.853
465.667
398.687
373.519
403.474
502.323
692.408
1051.07
1732.56
3101.81
6077.2
14005.3
1831.04
1965.55
2096.24
2036.93
1684.03
1240.92
915.531
711.741
570.834
466.837
399.248
373.76
403.573
502.381
692.214
1050.85
1733.74
3101.16
6026.86
14005.4
1895.63
2070.47
2216.62
2114.71
1696
1227.95
907.721
710.599
571.489
467.242
399.412
373.878
403.732
502.607
692.254
1050.9
1735.77
3105.39
5979.11
14005.6
1991.34
2213.44
2364.14
2187.8
1687.38
1201.71
894.756
707.292
570.894
466.918
399.189
373.866
403.927
502.97
692.501
1051.14
1738.39
3115.03
5938.81
14005.8
2138.91
2413.09
2543.26
2246.27
1653.15
1163.39
878.121
702.381
569.212
465.95
398.663
373.751
404.148
503.438
692.897
1051.5
1741.34
3130.42
5912.74
14006.1
2370.38
2693.6
2752.05
2275.39
1591.25
1116.48
859.779
696.433
566.624
464.462
397.928
373.564
404.389
503.981
693.395
1051.83
1744.19
3151.33
5910.34
14006.5
2731.88
3078.84
2974.09
2259.87
1505.59
1066.25
841.425
689.774
563.262
462.571
397.056
373.328
404.628
504.562
693.949
1052.08
1746.49
3176.52
5943.63
14006.9
3272.73
3577.69
3179.47
2197.78
1408.9
1018.66
824.327
682.761
559.427
460.467
396.118
373.081
404.848
505.139
694.504
1052.19
1747.82
3203.31
6025.75
14007.5
4020.96
4173.84
3359.74
2116.06
1318.6
977.695
809.197
675.934
555.6
458.43
395.225
372.858
405.037
505.677
695.008
1052.09
1747.73
3226.14
6157.05
14008.1
4965.24
4850.64
3567.49
2056.92
1245.17
945.372
796.799
670.006
552.267
456.68
394.447
372.673
405.179
506.142
695.405
1051.74
1746.07
3243.3
6394.9
14008.7
6330.88
5782.43
3828.77
2027.16
1200.52
924.415
788.265
665.742
549.813
455.4
393.853
372.538
405.259
506.508
695.655
1051.11
1742.85
3250.86
6606.98
16463.8
8418.65
7177.45
4234.05
2032.41
1171.54
911.593
783.56
663.349
548.356
454.661
393.491
372.476
405.281
506.766
695.731
1050.22
1738.05
3248.34
6502.13
16426.4
12073
9272.5
4771.03
2065.65
1154.85
905.378
781.651
662.438
547.886
454.463
393.373
372.494
405.246
506.91
695.611
1049.07
1731.45
3247.16
6330
14011.1
19237.3
12287.8
5394.71
2099.34
1144.92
904.543
782.727
663.086
548.122
454.682
393.504
372.6
405.162
506.945
695.284
1047.14
1722.53
3251.73
6328.4
14012.1
36304.5
16639.5
5991.74
2109.02
1138.82
908.891
787.224
665.736
549.468
455.467
393.884
372.802
405.074
506.698
694.948
1043.49
1712.29
3243.65
6337.15
14013.1
85702.6
21627.3
6072.52
2017.97
1125.11
917.533
795.692
670.724
552.189
456.954
394.651
373.173
405.094
506.514
694.772
1039.9
1701.39
3221.28
6302.43
14005.5
85639
21977
6111.23
2020.28
1128.26
919.529
796.854
671.394
552.72
457.292
394.777
373.11
404.845
506.068
694.368
1038.67
1699.98
3216.71
6303.15
13999.8
85582.4
22039.9
6179.66
2038.17
1134.36
921.075
796.931
671.16
552.686
457.354
394.779
373.009
404.613
505.663
694.123
1037.75
1699.67
3213.43
6308.17
13994.6
85533
22019.6
6230.34
2051.92
1139.55
921.986
796.307
670.323
552.241
457.193
394.704
372.921
404.453
505.369
694.038
1037.09
1699.79
3210.42
6314.24
13990.2
85490.7
21979.7
6251.43
2056.54
1142.74
922.009
794.869
668.792
551.328
456.765
394.526
372.846
404.383
505.21
694.133
1036.75
1700.32
3207.6
6320.81
13986.4
85455.4
21928.3
6235.47
2049.67
1143.39
920.978
792.526
666.512
549.903
456.051
394.229
372.779
404.403
505.205
694.399
1036.77
1701.24
3205.03
6328.04
13983.2
85427.3
21853.3
6176.36
2029.97
1141.22
918.788
789.225
663.452
547.948
455.033
393.806
372.71
404.509
505.368
694.835
1037.16
1702.6
3202.81
6336.38
13980.6
85406.1
21734.4
6068.77
1996.76
1136.1
915.368
784.933
659.601
545.451
453.705
393.249
372.635
404.699
505.704
695.448
1037.94
1704.41
3201.04
6346.43
13978.7
85392
21547.5
5908.3
1949.97
1127.99
910.667
779.631
654.959
542.411
452.064
392.555
372.552
404.973
506.192
696.26
1039.11
1706.69
3199.84
6358.96
13977.4
85385
21265.9
5691.94
1890.17
1117.02
904.658
773.316
649.541
538.837
450.114
391.726
372.458
405.328
506.825
697.275
1040.68
1709.44
3199.35
6374.85
13976.8
85385
20860.6
5418.51
1818.68
1103.39
897.339
766
643.374
534.748
447.862
390.763
372.354
405.762
507.598
698.492
1042.63
1712.67
3199.67
6395.14
13976.8
85392
20301.2
5089.27
1737.51
1087.41
888.727
757.708
636.499
530.172
445.324
389.672
372.24
406.273
508.504
699.907
1044.95
1716.39
3200.92
6420.97
13977.4
85406.1
19555.3
4708.36
1649.31
1069.43
878.854
748.482
628.974
525.148
442.52
388.462
372.116
406.858
509.537
701.511
1047.64
1720.58
3203.21
6453.57
13978.7
85427.3
18589.6
4283.29
1557.25
1049.88
867.805
738.416
620.868
519.726
439.476
387.145
371.985
407.511
510.688
703.295
1050.66
1725.23
3206.6
6494.24
13980.6
85455.4
17370.5
3825.33
1464.8
1029.24
855.732
727.65
612.277
513.967
436.227
385.734
371.846
408.228
511.947
705.241
1053.96
1730.33
3211.15
6544.3
13983.2
85490.7
15867.6
3349.72
1375.46
1007.97
842.818
716.336
603.345
507.938
432.812
384.246
371.703
409.001
513.301
707.331
1057.47
1735.89
3216.86
6605.04
13986.4
85533
14057.1
2875.35
1292.41
986.518
829.293
704.663
594.223
501.744
429.28
382.701
371.557
409.822
514.733
709.541
1061.13
1741.86
3223.65
6677.67
13990.2
85582.4
11927.4
2423.73
1218.36
965.336
815.454
692.865
585.073
495.515
425.683
381.123
371.411
410.682
516.225
711.845
1064.9
1748.15
3231.38
6763.25
13994.6
85639
9484.65
2016.78
1155.19
944.888
801.699
681.235
576.088
489.374
422.1
379.543
371.27
411.57
517.756
714.215
1068.73
1754.68
3239.89
6862.69
13999.8
85702.6
6758.24
1675.71
1103.87
925.831
788.598
670.2
567.549
483.474
418.623
377.99
371.136
412.472
519.305
716.624
1072.57
1761.48
3249.16
6977.14
16415.8
17638.6
2998.75
1364.15
1058.59
907.297
775.841
659.588
559.31
477.706
415.178
376.41
370.982
413.379
520.868
719.054
1076.35
1768.52
3258.01
7097.72
16570.5
2695.67
1479.78
1174.04
1020.81
887.645
760.916
645.955
548.474
469.977
410.466
374.192
370.63
414.533
522.679
721.515
1079.32
1760.49
3237.19
6981.79
16618.9
1461.29
1265.59
1132.32
1006.74
877.848
751.111
637.055
541.767
465.492
407.906
373.129
370.722
415.55
524.158
723.509
1082.31
1759.95
3217.25
6826.53
16537.7
1305.57
1216.5
1114.45
998.722
872.355
745.705
632.002
537.805
462.805
406.417
372.587
370.969
416.449
525.364
725.244
1084.74
1761.3
3197.68
6680.14
16471.1
1271.76
1199.52
1107.43
996.272
870.303
742.808
628.884
535.278
461.091
405.471
372.237
371.137
417.058
526.188
726.458
1086.54
1762.26
3181.54
6523.81
16423.5
1261.02
1197.24
1110.75
1001.27
873.744
743.822
628.394
534.434
460.421
405.086
372.088
371.229
417.389
526.618
727.153
1087.74
1762.91
3169.28
6334.83
14008.7
1263.25
1204.34
1121.39
1012.03
881.742
748.088
630.107
535.047
460.675
405.196
372.109
371.239
417.451
526.663
727.335
1088.35
1763.21
3162.79
6319.47
14008.1
1273.1
1218.41
1138.16
1028.34
894.203
755.526
633.941
537.051
461.803
405.778
372.302
371.175
417.256
526.335
727.037
1088.42
1762.9
3156.27
6308.78
14007.5
1288.08
1237.61
1160.17
1049.74
910.791
765.919
639.76
540.361
463.731
406.806
372.677
371.049
416.821
525.657
726.269
1087.93
1761.88
3149.05
6296.75
14006.9
1309.1
1262.88
1188.53
1076.91
931.919
779.396
647.533
544.892
466.422
408.287
373.241
370.874
416.172
524.657
725.05
1086.87
1760.23
3140.87
6283.09
14006.5
1335.77
1293.83
1222.84
1109.98
958.071
796.326
657.413
550.705
469.901
410.224
373.998
370.661
415.332
523.363
723.405
1085.28
1757.91
3131.55
6269
14006.1
1365.29
1328.05
1261.11
1147.83
988.772
816.616
669.421
557.816
474.167
412.594
374.914
370.425
414.327
521.808
721.366
1083.16
1754.9
3120.72
6252.24
14005.8
1395.92
1363.71
1302.04
1189.67
1023.51
839.923
683.362
566.134
479.178
415.364
375.971
370.181
413.189
520.031
718.982
1080.56
1751.36
3108.39
6227.5
14005.6
1426.51
1399.72
1345.04
1235.11
1062.01
866.012
699.046
575.537
484.869
418.506
377.176
369.952
411.955
518.082
716.313
1077.59
1747.64
3096.07
6196.99
14005.4
1456.3
1435.61
1389.73
1283.9
1104.17
894.773
716.352
585.931
491.164
421.971
378.55
369.767
410.669
516.021
713.438
1074.36
1744.02
3084.53
6159.29
14005.3
1484.9
1471.1
1435.69
1335.85
1149.99
926.177
735.206
597.247
498.024
425.747
380.098
369.65
409.376
513.917
710.458
1070.96
1740.75
3074.27
6109.71
14005.3
1512.02
1505.71
1482.34
1390.76
1199.43
960.18
755.519
609.388
505.374
429.818
381.817
369.623
408.121
511.841
707.491
1067.59
1738.11
3066.99
6066
14005.4
1537.35
1538.91
1529.31
1448.47
1252.47
996.686
777.173
622.258
513.152
434.144
383.689
369.692
406.934
509.849
704.627
1064.41
1736.4
3065.47
6035.16
14005.5
1561.72
1571.06
1576.99
1509.24
1309.18
1035.67
800.055
635.762
521.3
438.68
385.693
369.865
405.853
507.999
701.948
1061.52
1735.45
3069.52
6018.2
14005.7
1595.53
1608.33
1629.08
1575.25
1370.93
1077.83
824.498
650.055
529.864
443.428
387.828
370.16
404.915
506.355
699.578
1059.15
1735.3
3078
6022.65
14006
59997.5
5768.33
1764.15
1389.45
1326.1
1306.31
1304.07
1310.74
1322.57
1340.43
1364.9
1392.81
1422.01
1451.27
1479.84
1507.2
1532.57
1554.46
1572.94
1607
63826.9
7276.78
2018.74
1451.87
1357.56
1331.16
1325.47
1329.86
1340.11
1355.69
1378.45
1405.89
1435.87
1466.91
1497.81
1527.26
1553.17
1572.05
1581.65
1612.51
68035.1
8641.04
2285.23
1495.27
1366.15
1333.54
1325.73
1328.89
1338.07
1351.52
1372.02
1398.71
1429.54
1462.93
1497.54
1531.2
1559.53
1574.31
1565.57
1574.29
72673.5
10066.6
2607.45
1535.65
1356.86
1315.58
1305.11
1306.54
1314.22
1325.51
1341.74
1364.26
1391.98
1423.9
1459.49
1497.32
1531.66
1548.39
1520.81
1483.37
77802.9
11789.1
3047.29
1599.65
1341.37
1283.64
1267.8
1265.83
1270.48
1278.48
1288.36
1301.52
1318.53
1339.19
1364.11
1394.96
1429.8
1458.33
1448.5
1388.52
83495.2
14401.8
3883.59
1743.29
1340.59
1249.66
1223.16
1215.22
1214.84
1217.69
1220.58
1222.48
1224.34
1226.16
1227.89
1231.15
1238.94
1261.25
1299.95
1337.5
89835.7
17073
5164.39
2142.46
1413.25
1235.3
1184.09
1166.42
1159.68
1156.85
1153.51
1146.93
1137.08
1124.44
1108.62
1090.32
1082.89
1128.74
1237.9
1334.2
96926.8
19675.2
6699.99
2823.09
1637.13
1282.93
1171.24
1131.14
1114.21
1105.28
1097.56
1087.24
1072.93
1055.38
1035.34
1017.19
1031.98
1120.87
1229.24
1324.36
104892
21956.4
8279.31
3739.79
2059.02
1443.91
1217.03
1128.42
1090.32
1071.54
1059.68
1049.18
1037.36
1024.36
1011.08
1016.4
1071.12
1138.34
1211.29
1297.66
113880
24120.8
9858.27
4845.98
2701.16
1770.38
1367.38
1189.57
1107.9
1068.55
1048.42
1037.55
1032.1
1030.48
1034.67
1055.71
1089.49
1136.2
1204.64
1297.86
124076
26092.7
11278.1
6014.12
3536.55
2298.16
1677.43
1365.03
1205.57
1123.01
1080.33
1059.75
1052.43
1051.98
1057.1
1072.53
1106.63
1164.7
1248.06
1356.95
135704
28024.5
12537.9
7149.05
4487.09
3019.01
2185.68
1711.05
1439.97
1284.73
1196.38
1147.94
1123.9
1114.08
1116.74
1141.06
1190.97
1266.85
1367.08
1492.19
149047
29972
13576.7
8145.34
5431.21
3843.47
2863.08
2246.24
1856.7
1611.09
1457.7
1364.3
1310.45
1283.66
1281.58
1315.99
1378.26
1466.25
1579.02
1716.29
164459
31964.1
14332.7
8899.86
6246.04
4651.38
3611.3
2911.02
2434.5
2110.23
1891.49
1747.22
1656.41
1606.15
1595.07
1624.36
1685.2
1777.67
1902.93
2054.21
182390
34157.2
14808.9
9337.03
6814.66
5309.81
4300
3588.07
3076.8
2708.49
2445.48
2261.66
2138.32
2063.83
2038.21
2053.45
2112.57
2222.22
2383.39
2569.77
203421
36932.1
15190.3
9487.88
7083.52
5715.01
4801.04
4143.21
3654.61
3288.57
3015.78
2816.56
2676.8
2588.49
2560.02
2596.86
2712.22
2914.25
3188.88
3462.85
228311
40943
15998.1
9654.42
7208.33
5934.41
5129.09
4562.62
4143.35
3827.8
3592.18
3422.51
3312.03
3268.17
3349.52
3562.28
3908.23
4367.86
4883.27
5297.72
258064
46736.2
18369.8
10908.3
8126.5
6818.87
6091.93
5640.73
5346.67
5159.61
5057.19
5031.7
5095.32
5348.31
5862.33
6558.91
7378.21
8250.53
9082.74
9655.45
294034
53912.6
26165.2
19458.6
15996.3
14689.6
14148.8
13916.4
13856.9
13919.1
14079.5
14331
14716.9
15576.9
16615.7
17734.1
18869.2
20033.8
21264.9
22536.3
338081
86768.7
86776.4
86783.5
86790.1
86796
86801.4
86806.2
86810.3
86813.9
86816.8
86819.1
86820.7
86821.8
86822.2
86821.9
86821.1
86819.6
86817.5
86814.7
)
;

boundaryField
{
    right
    {
        type            cyclic;
    }
    left
    {
        type            cyclic;
    }
    outerWall
    {
        beta1           0.075;
        blended         0;
        type            omegaWallFunction;
        value           nonuniform List<scalar> 
60
(
14006
14005.7
14005.5
14005.4
14005.3
14005.3
14005.4
14005.6
14005.8
14006.1
14006.5
14006.9
14007.5
14008.1
14008.7
16463.8
16426.4
14011.1
14012.1
14013.1
14005.5
13999.8
13994.6
13990.2
13986.4
13983.2
13980.6
13978.7
13977.4
13976.8
13976.8
13977.4
13978.7
13980.6
13983.2
13986.4
13990.2
13994.6
13999.8
16415.8
16570.5
16618.9
16537.7
16471.1
16423.5
14008.7
14008.1
14007.5
14006.9
14006.5
14006.1
14005.8
14005.6
14005.4
14005.3
14005.3
14005.4
14005.5
14005.7
14006
)
;
    }
    stirrerWall
    {
        beta1           0.075;
        blended         0;
        type            omegaWallFunction;
        value           nonuniform List<scalar> 
100
(
86814.7
86817.5
86819.6
86821.1
86821.9
86822.2
86821.8
86820.7
86819.1
86816.8
86813.9
86810.3
86806.2
86801.4
86796
86790.1
86783.5
86776.4
86768.7
338081
338081
294034
258064
228311
203421
182390
164459
149047
135704
124076
113880
104892
96926.8
89835.7
83495.2
77802.9
72673.5
68035.1
63826.9
59997.5
85702.6
85639
85582.4
85533
85490.7
85455.4
85427.3
85406.1
85392
85385
85385
85392
85406.1
85427.3
85455.4
85490.7
85533
85582.4
85639
85702.6
59997.5
63826.9
68035.1
72673.5
77802.9
83495.2
89835.7
96926.8
104892
113880
124076
135704
149047
164459
182390
203421
228311
258064
294034
338081
338081
86768.7
86776.4
86783.5
86790.1
86796
86801.4
86806.2
86810.3
86813.9
86816.8
86819.1
86820.7
86821.8
86822.2
86821.9
86821.1
86819.6
86817.5
86814.7
)
;
    }
    top
    {
        type            empty;
    }
    bottom
    {
        type            empty;
    }
}


// ************************************************************************* //
