/*--------------------------------*- C++ -*----------------------------------*\
  =========                 |
  \\      /  F ield         | OpenFOAM: The Open Source CFD Toolbox
   \\    /   O peration     | Website:  https://openfoam.org
    \\  /    A nd           | Version:  10
     \\/     M anipulation  |
\*---------------------------------------------------------------------------*/
FoamFile
{
    format      ascii;
    class       volScalarField;
    location    "300";
    object      omega;
}
// * * * * * * * * * * * * * * * * * * * * * * * * * * * * * * * * * * * * * //

dimensions      [0 0 -1 0 0 0 0];

internalField   nonuniform List<scalar> 
420
(
21252.7
4494.26
1601.35
809.459
512.398
373.833
306.206
287.788
313.407
366.16
21253.7
4238.8
1566.09
806.914
511.24
372.044
306.551
293.189
326.404
394.403
21254.2
3945.21
1469.38
777.786
502.36
370.237
309.017
300.699
342.235
429.144
21254
3758.23
1384.58
748.661
496.626
374.46
318.332
314.358
364.128
474.774
21253.2
3663.7
1340.52
744.492
511.341
396.779
343.194
340.514
396.032
538.69
21251.7
3676.3
1390.82
818.806
591.319
472.454
410.689
400.45
453.579
641.026
21249.7
3859.22
1698.3
1128.02
867.115
706.928
605.292
562.657
602.624
847.192
21247.1
4867.36
2903.25
2209.41
1781.66
1468.5
1235.84
1087.35
1062.2
1339.79
21243.8
10705.1
8219.66
6638.05
5468.07
4564.74
3857.41
3320.99
2976.68
2910.98
78643.9
60596.7
48114.3
39124.4
32436.5
27327.1
23335.9
20159.1
17589.3
15481.3
428.891
465.981
439.636
359.773
304.277
317.952
470.756
1018.4
2478.52
3581.27
471.104
516.777
481.513
377.594
303.615
298.502
404.629
862.524
2542.66
3581.17
530.393
593.884
544.759
405.879
309.803
288.435
353.876
680.65
2547.43
3581.13
615.399
704.656
627.777
440.106
320.172
288.169
332.016
546.775
2458.3
3581.18
746.117
862.194
727.575
475.454
331.917
293.81
333.014
528.373
2241.54
3581.3
964.471
1079.12
840.765
508.748
342.003
300.208
339.045
523.733
1974.16
3581.49
1326.15
1387.48
967.131
534.038
347.762
305.561
347.086
531.138
1755.98
3581.76
2032.21
1839.31
1092.62
543.186
347.964
309.766
356.521
547.405
1602.91
3582.1
3617.9
2490
1177.58
525.735
342.208
313.39
367.438
570.789
1511.56
3582.51
8118.37
3300.5
1134.01
470.632
331.23
317.266
380.952
601.506
1481.96
3582.99
21359.1
3517.8
827.531
381.754
315.433
318.081
394.951
641.303
1524.39
3575.63
21359.1
2822.34
659.216
359.7
313.574
321.254
404.03
667.09
1552.66
3575.63
4472.13
1248.79
490.72
348.157
317.231
329.376
418.519
698.344
1567.95
3582.99
938.551
494.526
374.677
338.758
321.876
340.255
442.768
754.123
1597.49
3582.51
411.95
364.73
356.163
338.744
325.184
350.365
469.271
817.552
1648.67
3582.1
335.313
349.341
357.398
340.104
327.684
360.426
498.89
888.931
1716.02
3581.76
326.974
352.829
361.703
341.108
329.666
370.591
531.045
967.982
1808.09
3581.49
331.887
359.91
365.891
341.188
330.093
378.954
563.69
1049.77
1929.65
3581.3
340.223
368.05
370.402
340.131
327.621
381.807
587.196
1128.72
2067.93
3581.18
353.754
380.89
376.044
338.689
322.77
377.047
594.166
1195.66
2221.53
3581.13
371.944
398.808
385.166
337.781
314.647
362.693
575.504
1214.26
2364.94
3581.17
394.998
422.865
399.3
338.387
304.174
339.913
528.038
1123.82
2413.51
3581.27
15481.3
1973
555.154
342.975
306.196
302.292
307.939
317.494
329.417
345.657
17589.3
2639.01
757.32
396.878
312.046
289.785
285.608
287.91
293.993
303.046
20159.1
3347.37
1047.17
526.528
371.829
316.669
296.573
288.918
286.683
286.759
23335.9
4336.25
1556
788.697
512.452
395.155
346.318
325.071
315.411
309.765
27327.1
5192.59
2026.98
1096.85
720.655
540.916
446.305
401.491
383.207
376.6
32436.5
6068.56
2406.74
1351.66
914.002
696.733
580.197
524.148
506.255
507.396
39124.4
7144.54
2768.08
1576.74
1108.07
887.428
781.007
744.883
753.599
783.077
48114.3
8678.51
3341.77
2014.42
1561.07
1385.13
1328.99
1351.98
1423
1516.76
60596.7
11159.4
5344.46
4157.18
3802.92
3692.5
3694.65
3760.19
3915.09
4160.31
78643.9
21243.8
21247.1
21249.7
21251.7
21253.2
21254
21254.2
21253.7
21252.7
)
;

boundaryField
{
    right
    {
        type            cyclic;
    }
    left
    {
        type            cyclic;
    }
    outerWall
    {
        beta1           0.075;
        blended         0;
        type            omegaWallFunction;
        value           nonuniform List<scalar> 
22
(
3581.27
3581.17
3581.13
3581.18
3581.3
3581.49
3581.76
3582.1
3582.51
3582.99
3575.63
3575.63
3582.99
3582.51
3582.1
3581.76
3581.49
3581.3
3581.18
3581.13
3581.17
3581.27
)
;
    }
    stirrerWall
    {
        beta1           0.075;
        blended         0;
        type            omegaWallFunction;
        value           nonuniform List<scalar> 
42
(
21252.7
21253.7
21254.2
21254
21253.2
21251.7
21249.7
21247.1
21243.8
78643.9
78643.9
60596.7
48114.3
39124.4
32436.5
27327.1
23335.9
20159.1
17589.3
15481.3
21359.1
21359.1
15481.3
17589.3
20159.1
23335.9
27327.1
32436.5
39124.4
48114.3
60596.7
78643.9
78643.9
21243.8
21247.1
21249.7
21251.7
21253.2
21254
21254.2
21253.7
21252.7
)
;
    }
    top
    {
        type            empty;
    }
    bottom
    {
        type            empty;
    }
}


// ************************************************************************* //
