/*--------------------------------*- C++ -*----------------------------------*\
  =========                 |
  \\      /  F ield         | OpenFOAM: The Open Source CFD Toolbox
   \\    /   O peration     | Website:  https://openfoam.org
    \\  /    A nd           | Version:  10
     \\/     M anipulation  |
\*---------------------------------------------------------------------------*/
FoamFile
{
    format      ascii;
    class       volScalarField;
    location    "300";
    object      p;
}
// * * * * * * * * * * * * * * * * * * * * * * * * * * * * * * * * * * * * * //

dimensions      [0 2 -2 0 0 0 0];

internalField   nonuniform List<scalar> 
420
(
-0.725169
14.2415
30.3545
48.8515
68.9323
89.9948
111.563
133.11
154.226
174.52
-1.18774
13.8068
29.6799
47.908
67.7388
88.6112
110.08
131.609
152.728
173.051
-1.61894
13.3388
28.9658
46.8713
66.393
87.0272
108.363
129.866
151.044
171.472
-2.00268
12.8723
28.2325
45.7688
64.9277
85.2786
106.465
127.986
149.319
169.951
-2.29295
12.4759
27.5518
44.6835
63.4344
83.465
104.495
126.079
147.653
168.58
-2.51254
12.1942
26.993
43.7029
62.0137
81.6913
102.541
124.207
146.091
167.411
-2.68154
12.0536
26.6083
42.895
60.747
80.0348
100.653
122.372
144.626
166.499
-2.80894
12.0737
26.4337
42.3044
59.6936
78.554
98.853
120.501
143.098
165.683
-2.93525
12.2828
26.482
41.9576
58.9181
77.342
97.2164
118.512
141.02
163.946
-3.12288
12.6448
26.5804
41.7408
58.4145
76.5317
96.0339
116.802
138.48
160.513
193.687
212.269
230.41
247.736
264.237
280.224
294.702
308.061
318.905
401.332
192.217
210.646
228.36
244.952
260.399
274.93
287.34
298.146
309.585
395.099
190.677
208.932
226.168
242.028
256.503
269.738
280.21
288.542
299.908
387.796
189.248
207.332
224.091
239.288
252.911
265.054
273.878
279.983
290.611
379.207
188.033
205.97
222.305
236.982
249.938
261.256
268.822
273.2
283.204
370.453
187.1
204.899
220.91
235.27
247.786
258.601
265.428
268.814
278.754
363.084
186.58
204.168
219.931
234.227
246.581
257.251
263.887
267.137
277.591
358.265
186.513
203.821
219.369
233.89
246.417
257.303
264.271
268.298
280.122
356.641
186.286
204.103
219.532
234.377
247.31
258.681
266.473
272.317
286.737
358.457
185.126
205.568
220.999
235.89
249.239
261.275
270.177
278.2
294.383
363.461
185.44
207.341
223.265
238.386
252.16
265.058
274.863
283.473
294.495
370.24
187.838
208.707
225.235
240.582
254.78
268.351
279.182
288.477
297.728
374.234
193.521
210.774
227.528
243.355
258.169
272.466
284.756
295.352
309.24
379.899
194.431
212.101
229.362
245.904
261.565
276.899
290.897
303.667
320.231
387.348
194.756
213.067
230.923
248.197
264.775
281.266
297.216
312.736
330.482
394.427
195.241
213.869
232.214
250.146
267.587
285.163
302.917
320.914
339.235
400.576
195.752
214.536
233.223
251.674
269.844
288.41
307.872
328.046
346.461
404.936
196.112
214.988
233.888
252.68
271.365
290.751
311.707
333.61
352.457
409.732
196.258
215.18
234.164
253.074
271.947
291.72
313.371
336.047
357.54
418.531
196.134
215.057
234.009
252.826
271.51
290.902
311.651
333.07
358.05
426.554
195.708
214.582
233.402
251.963
270.175
288.572
307.331
325.512
348.627
416.866
194.917
213.687
232.261
250.33
267.838
285.189
301.671
316.754
331.021
403.409
176.358
175.249
175.233
175.802
176.412
176.83
176.992
176.867
176.438
175.681
150.675
152.106
153.556
154.848
155.84
156.461
156.708
156.599
156.138
155.369
124.081
127.554
130.585
132.809
134.33
135.255
135.651
135.582
135.087
134.262
100.124
103.783
107.46
110.307
112.295
113.525
114.095
114.093
113.605
112.74
78.9303
81.8716
85.2244
88.1097
90.2386
91.6189
92.3122
92.3912
91.9553
91.1244
60.053
62.0936
64.6268
67.0191
68.9112
70.1999
70.8853
71.0049
70.643
69.9211
43.2131
44.4327
45.9988
47.6056
48.9628
49.9197
50.4336
50.5151
50.2161
49.6413
28.2319
28.7669
29.4341
30.1693
30.84
31.3331
31.5809
31.5649
31.3161
30.9114
15.0529
14.9243
14.8628
14.9033
15.0038
15.0861
15.0884
14.989
14.8034
14.5649
2.88964
1.69447
0.745225
0.20503
-0.0942486
-0.296468
-0.477905
-0.646645
-0.74527
-0.772445
)
;

boundaryField
{
    right
    {
        type            cyclic;
    }
    left
    {
        type            cyclic;
    }
    outerWall
    {
        type            zeroGradient;
    }
    stirrerWall
    {
        type            zeroGradient;
    }
    top
    {
        type            empty;
    }
    bottom
    {
        type            empty;
    }
}


// ************************************************************************* //
