/*--------------------------------*- C++ -*----------------------------------*\
  =========                 |
  \\      /  F ield         | OpenFOAM: The Open Source CFD Toolbox
   \\    /   O peration     | Website:  https://openfoam.org
    \\  /    A nd           | Version:  10
     \\/     M anipulation  |
\*---------------------------------------------------------------------------*/
FoamFile
{
    format      ascii;
    class       volScalarField;
    location    "300";
    object      p;
}
// * * * * * * * * * * * * * * * * * * * * * * * * * * * * * * * * * * * * * //

dimensions      [0 2 -2 0 0 0 0];

internalField   nonuniform List<scalar> 
2000
(
-7.98898
170.763
347.675
555.568
783.821
1026.73
1284.2
1554.37
1833.43
2117.03
2401.52
2683.24
2960.21
3233.59
3503.63
3768.42
4026.63
4273.94
4507.29
4728.5
-11.2663
168.985
340.051
539.975
759.402
993.782
1244.01
1509.29
1786.65
2071.44
2359.3
2646.6
2931.3
3214.75
3495.25
3767.91
4030.83
4281.1
4516.29
4738.35
-15.6163
166.966
334.323
527.97
739.881
966.005
1207.84
1466.47
1740.07
2024.64
2315.26
2607.97
2901.25
3196.04
3486.8
3765.48
4031.68
4284.84
4522.58
4745.85
-20.1599
163.178
327.681
516.622
723.209
943.504
1178.24
1429.92
1698.66
1981.44
2273.75
2571.5
2873.74
3179.23
3477.24
3759.9
4029.23
4285.32
4525.73
4750.85
-24.0442
157.554
318.599
502.817
704.727
920.985
1151.29
1397.73
1662.06
1942.62
2235.66
2538.12
2849.15
3162.79
3464.88
3750.82
4023.2
4282.04
4525.86
4753.29
-26.9543
150.993
307.356
485.968
682.712
895.202
1122.9
1366.39
1627.79
1906.69
2200.57
2507.96
2826.53
3145.05
3448.88
3737.4
4013.17
4275.12
4522.13
4751.98
-28.8118
144.582
295.277
467.039
657.529
865.715
1091.05
1333.04
1593.19
1871.68
2167.51
2479.73
2803.37
3123.74
3428.13
3719.45
3998.43
4263.32
4514.1
4747.08
-29.7107
138.998
283.506
447.388
630.343
833.373
1055.71
1296.43
1556.28
1835.6
2134.18
2450.22
2776.16
3096.41
3400.73
3694.91
3978.51
4247.39
4501.68
4737.55
-29.9054
134.509
272.734
428.358
602.603
799.408
1018.01
1256.89
1516.34
1796.93
2098.03
2416.25
2742.82
3062.26
3366.84
3664.31
3952.48
4225.59
4483.86
4723.49
-29.3851
131.303
263.35
410.92
575.918
765.44
979.577
1215.8
1474.05
1755.14
2057.69
2376.48
2702.4
3021.06
3326.75
3627.42
3920.56
4198.87
4461.36
4704.6
-27.997
129.752
256.139
396.046
552.16
733.583
942.388
1174.96
1430.93
1711.15
2013.35
2331.37
2655.48
2973.03
3280.57
3585.33
3883.37
4166.31
4432.56
4679.77
-25.627
130.289
252.431
385.601
533.354
706.32
908.68
1136.49
1389.03
1666.73
1966.84
2282.63
2604.37
2921.35
3230.42
3537.95
3840.27
4128.63
4399.36
4650.9
-22.3528
133.198
253.528
381.99
522.071
686.76
881.437
1103.29
1350.93
1624.08
1920.63
2233.38
2552
2867.37
3177.22
3487.12
3793.89
4087.52
4362.26
4618.53
-18.4495
138.484
259.876
386.475
520.938
678.207
864.404
1078.61
1319.52
1586.68
1878.28
2186.86
2501.85
2815.12
3124.37
3434.38
3743.71
4041.7
4321.37
4585.06
-14.1893
145.637
271.083
399.455
531.298
682.124
860.358
1065.74
1298.48
1558.85
1844.52
2147.86
2457.81
2766.89
3072.79
3380.46
3690.99
3994.03
4281.29
4555.1
-10.2384
153.47
285.668
419.99
554.511
700.937
871.464
1068.17
1292.35
1545.01
1823.68
2120.53
2424.2
2727.37
3028.2
3331.37
3640.33
3948.2
4246.5
4533.64
-7.51942
160.616
301.037
444.407
587.9
737.045
903.238
1092.33
1308.56
1552.74
1820.75
2106.42
2400.31
2695.52
2991.03
3289.93
3596.25
3908.79
4219.78
4523.27
-6.56405
166.179
314.339
467.283
622.927
782.592
952.79
1140.75
1351.14
1586.79
1840.82
2110.27
2391.08
2677.15
2967.03
3262.6
3566.42
3881.02
4200.02
4515.67
-7.61926
170.357
323.687
483.666
649.968
822.162
1002.16
1194.64
1403.86
1633.23
1877.95
2134.13
2401.34
2677.49
2959.75
3249.95
3549.67
3859.4
4176.73
4497.5
-9.62301
174.353
327.851
491.071
664.317
846.787
1038.53
1240.39
1454.11
1680.97
1920.85
2171.05
2431.01
2699.93
2977.26
3264.25
3561.54
3865.85
4173.72
4484.58
4942.13
5156.05
5375.13
5600.25
5832.05
6072.06
6322.19
6584.14
6859.97
7152.07
7463.51
7797.59
8158.64
8551.16
8979.47
9453.97
9964.08
10570.8
11095.4
12163.3
4952.08
5165.7
5384.8
5609.82
5841.02
6080.18
6329.4
6590.58
6865.76
7157.3
7468.28
7801.93
8162.63
8554.74
8982.69
9456.69
9966.18
10572
11098.5
12162.3
4959.99
5173.95
5393.38
5618.49
5849.35
6087.9
6336.48
6597.02
6871.58
7162.55
7473.03
7806.26
8166.6
8558.26
8985.84
9459.47
9968.7
10574.7
11101.5
12161.6
4966.09
5180.67
5400.65
5626.09
5856.87
6095.05
6343.18
6603.25
6877.32
7167.78
7477.78
7810.56
8170.58
8561.86
8989.23
9462.75
9971.92
10578.1
11104.6
12161.5
4969.68
5185.19
5406.22
5632.42
5863.44
6101.51
6349.43
6609.21
6882.92
7172.97
7482.54
7814.97
8174.7
8565.65
8992.96
9466.57
9975.74
10581.8
11107.6
12161.7
4970.21
5187.35
5409.93
5637.26
5868.83
6107.04
6354.95
6614.58
6888.03
7177.76
7486.97
7819.06
8178.5
8569.18
8996.6
9470.43
9979.42
10585.4
11110.1
12162
4967.47
5186.64
5411.31
5640.22
5872.65
6111.24
6359.35
6618.99
6892.31
7181.83
7490.76
7822.61
8181.77
8572.25
8999.78
9473.49
9981.93
10588.3
11112.1
12162.3
4960.51
5182.53
5410.12
5641.13
5874.76
6114.05
6362.66
6622.55
6895.9
7185.35
7494.09
7825.78
8184.68
8574.94
9002.28
9475.06
9983.36
10590.5
11113.8
12162.6
4949.65
5175.05
5406.24
5639.84
5875.06
6115.44
6364.86
6625.23
6898.78
7188.26
7496.89
7828.46
8187.1
8577.15
9004.12
9476.16
9984.8
10592.3
11115.4
12162.9
4934.02
5163.61
5399.45
5636.15
5873.26
6115.07
6365.62
6626.76
6900.72
7190.39
7499
7830.54
8188.94
8578.89
9005.65
9477.34
9986.38
10593.6
11116.6
12163.1
4913.83
5149.1
5390.43
5630.32
5869.46
6113.05
6365.03
6627.25
6901.84
7191.88
7500.57
7832.15
8190.3
8580.25
9006.72
9478.08
9987.75
10594
11117.2
12162.7
4890.63
5132.77
5379.87
5622.65
5863.96
6109.67
6363.31
6626.74
6902.08
7192.57
7501.44
7833.19
8191.15
8581.24
9007.32
9478.41
9988.54
10593.1
11117.2
12161.1
4865.47
5116.07
5368.58
5613.49
5857.01
6105.23
6360.75
6625.62
6901.79
7192.79
7501.87
7833.81
8191.56
8581.9
9007.47
9478.4
9988.89
10591.2
11117.7
12159.2
4842.09
5101.7
5357.74
5603.87
5849.53
6100.41
6357.78
6624.06
6901.07
7192.63
7501.94
7834.09
8191.64
8582.34
9007.25
9478.32
9989.25
10589.2
11120.1
12157.2
4824.06
5091.38
5348.25
5595.07
5842.51
6095.88
6354.86
6622.4
6900.12
7192.2
7501.72
7834.07
8191.43
8582.57
9006.65
9478.34
9989.85
10587.5
11124
12154
4815.72
5087.16
5341.37
5588.57
5836.88
6092.24
6352.42
6620.97
6899.2
7191.67
7501.32
7833.83
8191.03
8582.64
9005.65
9478.47
9989.93
10584.4
11127.8
12150
4818.5
5087.8
5335.48
5583.9
5832.59
6089.6
6350.65
6619.98
6898.51
7191.23
7500.93
7833.6
8190.71
8582.81
9004.58
9478.91
9988.33
10578
11131.4
12145.3
4822.49
5087.43
5329
5580.98
5830.5
6088.86
6350.29
6620.02
6898.57
7191.34
7501
7833.76
8190.88
8583.39
9004.27
9480.24
9986.1
10570.7
11140.4
12132
4822.22
5089.14
5327.87
5582.27
5832.04
6090.55
6351.83
6621.5
6899.91
7192.52
7502.09
7834.79
8192
8584.38
9005.64
9482.62
9987.68
10571.9
11167.8
12089.3
4821.86
5107.2
5334.36
5588.52
5835.55
6094.16
6354.53
6623.99
6901.89
7194.22
7503.45
7836.26
8193.19
8585.89
9006.76
9488.39
9989.27
10593.6
11192.3
12044.9
4792.8
5143.95
5326.61
5600.03
5835.28
6099.12
6355.57
6626.01
6901.97
7194.41
7502
7836.11
8190.3
8588.7
8999.39
9503.31
9968.37
10638.9
11121
12133.5
4784.48
5151.41
5323.57
5601.27
5833.8
6098.74
6354.24
6624.89
6900.4
7192.83
7499.99
7834.38
8187.96
8588.02
8996.59
9505.24
9962.41
10648
11104.2
12154.1
4778.34
5157.24
5321.2
5602.46
5832.68
6098.51
6353.17
6623.94
6898.99
7191.36
7498.08
7832.71
8185.7
8587.35
8994.4
9506.54
9957.76
10656.2
11090.4
12169
4773.37
5161.94
5319.23
5603.57
5831.83
6098.44
6352.35
6623.15
6897.73
7189.98
7496.26
7831.05
8183.5
8586.54
8992.11
9507.54
9953.22
10664.1
11077.6
12182.3
4769.32
5165.81
5317.64
5604.66
5831.33
6098.61
6351.83
6622.57
6896.64
7188.7
7494.52
7829.42
8181.34
8585.56
8989.82
9508.43
9948.78
10671.8
11065
12195
4766.03
5168.97
5316.43
5605.77
5831.22
6099.06
6351.64
6622.19
6895.71
7187.5
7492.82
7827.78
8179.21
8584.42
8987.55
9509.2
9944.43
10679.3
11052.7
12207.1
4763.32
5171.48
5315.62
5606.97
5831.53
6099.82
6351.78
6622.02
6894.92
7186.36
7491.16
7826.12
8177.09
8583.14
8985.16
9509.82
9940.12
10686.5
11040.4
12218.6
4761
5173.36
5315.23
5608.3
5832.32
6100.89
6352.24
6622.03
6894.25
7185.24
7489.51
7824.41
8174.96
8581.74
8982.62
9510.26
9935.75
10693.4
11028.3
12229.7
4758.85
5174.63
5315.29
5609.79
5833.57
6102.26
6352.97
6622.16
6893.63
7184.1
7487.82
7822.63
8172.8
8580.21
8980.01
9510.44
9931.21
10700
11016.1
12240.2
4756.64
5175.27
5315.8
5611.44
5835.25
6103.85
6353.9
6622.33
6892.99
7182.89
7486.08
7820.75
8170.58
8578.53
8977.4
9510.34
9926.46
10706.4
11003.6
12250.2
4754.12
5175.26
5316.75
5613.22
5837.27
6105.56
6354.9
6622.44
6892.26
7181.55
7484.23
7818.75
8168.31
8576.7
8974.78
9509.93
9921.48
10712.4
10990.7
12259.8
4751.05
5174.59
5318.12
5615.04
5839.48
6107.22
6355.81
6622.35
6891.33
7180.01
7482.24
7816.6
8165.97
8574.7
8972.14
9509.16
9916.41
10718.1
10977.1
12269.1
4747.32
5173.33
5319.83
5616.78
5841.67
6108.61
6356.42
6621.91
6890.1
7178.21
7480.09
7814.31
8163.56
8572.57
8969.49
9508.06
9911.28
10723.4
10962.8
12278.4
4743.04
5171.55
5321.8
5618.26
5843.59
6109.47
6356.53
6620.96
6888.47
7176.09
7477.75
7811.88
8161.11
8570.32
8966.87
9506.74
9906.02
10728.1
10947.7
12287.8
4738.61
5169.36
5323.95
5619.24
5844.96
6109.53
6355.88
6619.33
6886.34
7173.63
7475.23
7809.33
8158.68
8567.98
8964.35
9505.55
9900.8
10732.1
10931.7
12297.5
4734.56
5166.89
5326.07
5619.44
5845.45
6108.48
6354.26
6616.89
6883.65
7170.79
7472.54
7806.69
8156.28
8565.57
8961.99
9504.6
9896.29
10735.5
10914.8
12308
4730.89
5164.37
5327.69
5618.59
5844.63
6106.06
6351.42
6613.51
6880.32
7167.56
7469.68
7803.99
8153.9
8563.22
8959.7
9503.46
9892.45
10739.5
10895.5
12321.3
4727.55
5162.26
5328.68
5616.55
5842.27
6102.12
6347.25
6609.16
6876.35
7163.99
7466.69
7801.35
8151.57
8561.15
8957.32
9501.83
9887.14
10746.3
10870.5
12340.5
4729.6
5160.78
5330.58
5613.4
5838.85
6096.79
6342.01
6604
6872
7160.31
7463.9
7798.98
8149.71
8559.3
8955.35
9498.64
9880.76
10753
10843.3
12362.2
4751.52
5158.9
5335.92
5609.59
5835.91
6091.12
6337.04
6599.09
6868.3
7157.26
7462.06
7797.19
8149.13
8557.06
8955.73
9492.33
9882.75
10742.4
10839.8
12363.2
4902.54
5142.61
5358.23
5594.89
5829.98
6075.47
6325.67
6587.09
6860.15
7149.86
7458.26
7791.48
8149.54
8545.32
8966.21
9456.94
9937.43
10607.1
11008
12234.7
4914.47
5134.3
5359.74
5590.69
5827.09
6070.38
6321.46
6582.92
6857.26
7147.67
7457.36
7790.41
8150.32
8543.1
8970.65
9447.3
9956.66
10564.4
11077.3
12185.7
4901.72
5125.72
5352.72
5583.64
5820.18
6063.31
6314.93
6577.13
6852.53
7143.94
7454.61
7788.27
8148.85
8541.57
8970.19
9445.31
9958.21
10559.4
11102.2
12165.1
4887.46
5114.68
5343.31
5575.38
5812.59
6056.37
6308.61
6571.56
6847.78
7140.04
7451.5
7785.85
8146.97
8540.21
8969.18
9444.95
9958.3
10562
11110.4
12156.3
4877.22
5104.69
5333.93
5566.61
5804.35
6048.76
6301.71
6565.46
6842.5
7135.59
7447.84
7782.89
8144.6
8538.37
8967.82
9444.23
9958.09
10563.5
11113.1
12151.8
4870.23
5096.58
5325.54
5558.31
5796.29
6041.16
6294.79
6559.29
6837.08
7130.96
7443.97
7779.7
8142.01
8536.29
8966.18
9443.09
9957.34
10563.8
11113.6
12149.1
4865.71
5090.5
5318.62
5550.92
5788.81
6033.95
6288.12
6553.28
6831.79
7126.4
7440.13
7776.5
8139.37
8534.1
8964.35
9441.53
9955.84
10563.4
11112.9
12146.5
4863.07
5086.23
5313.19
5544.69
5782.22
6027.44
6282.01
6547.73
6826.91
7122.21
7436.57
7773.51
8136.84
8531.95
8962.48
9439.74
9953.83
10562.5
11110.9
12143.3
4862.07
5083.57
5309.18
5539.75
5776.75
6021.88
6276.7
6542.89
6822.63
7118.51
7433.41
7770.84
8134.57
8529.99
8960.7
9437.94
9951.85
10561.3
11107.3
12140
4862.43
5082.29
5306.54
5536.08
5772.49
6017.43
6272.38
6538.92
6819.12
7115.46
7430.81
7768.63
8132.69
8528.35
8959.17
9436.36
9950.23
10559.9
11102.4
12139.5
4864.03
5082.34
5305.24
5533.74
5769.5
6014.19
6269.23
6536.04
6816.58
7113.29
7428.99
7767.1
8131.42
8527.24
8958.1
9435.27
9949.19
10558.4
11098.1
12142.8
4866.83
5083.7
5305.3
5532.77
5767.9
6012.37
6267.47
6534.49
6815.3
7112.27
7428.21
7766.51
8130.97
8526.85
8957.65
9434.8
9948.77
10557.4
11096.1
12146.1
4870.87
5086.35
5306.72
5533.27
5767.86
6012.17
6267.33
6534.49
6815.46
7112.58
7428.63
7766.99
8131.47
8527.26
8957.89
9434.87
9948.67
10556.4
11095.5
12149.9
4876.19
5090.37
5309.64
5535.39
5769.55
6013.74
6268.9
6536.09
6817.1
7114.22
7430.24
7768.51
8132.89
8528.51
8958.95
9435.76
9948.95
10556.3
11097.4
12151.5
4882.83
5095.89
5314.2
5539.31
5773.17
6017.25
6272.35
6539.46
6820.35
7117.3
7433.11
7771.14
8135.32
8530.71
8961
9437.69
9950.1
10558.2
11100.5
12147.5
4890.83
5102.96
5320.56
5545.32
5779.09
6023.13
6278.1
6544.95
6825.51
7122.06
7437.48
7775.14
8139.01
8534.05
8964.08
9440.53
9952.34
10561
11098.7
12148.8
4899.9
5111.6
5329.07
5553.92
5787.79
6031.73
6286.34
6552.63
6832.54
7128.46
7443.28
7780.38
8143.75
8538.28
8967.93
9443.91
9955.04
10563.3
11097.3
12152.4
4909.35
5121.78
5339.97
5565.27
5799.11
6042.55
6296.31
6561.63
6840.54
7135.47
7449.38
7785.65
8148.36
8542.24
8971.42
9446.89
9957.65
10565.9
11096.8
12154.6
4919.31
5133.4
5352.56
5578.12
5811.53
6053.94
6306.38
6570.43
6848.03
7141.71
7454.49
7789.75
8151.69
8544.98
8973.8
9448.92
9959.65
10567.9
11095.8
12157.6
4931.18
5145.46
5364.6
5589.98
5822.47
6063.62
6314.75
6577.54
6854.07
7146.79
7458.81
7793.45
8154.9
8547.76
8976.45
9451.38
9961.97
10569.8
11094.8
12161.7
4727.7
4694.27
4668.39
4653.96
4645.93
4641.71
4639.86
4639.57
4640.62
4642.91
4646.25
4650.64
4656.12
4662.79
4670.68
4679.7
4689.22
4697.93
4705.82
4717.17
4428.56
4421.08
4410.78
4405.32
4403.73
4404.76
4407.08
4410.02
4413.65
4418.24
4423.51
4429.53
4436.5
4444.54
4453.57
4463.49
4473.47
4481.38
4486.73
4496.22
4089.02
4115.64
4130.33
4140.3
4149.15
4157.71
4165.8
4173.1
4179.92
4187.01
4194.37
4202.01
4210.35
4219.58
4229.54
4240.03
4250.02
4256.85
4259.06
4264.57
3746.76
3800.13
3836.64
3863.02
3884.15
3901.86
3916.92
3929.49
3940.12
3949.92
3959.44
3968.62
3978.06
3988
3998.3
4008.63
4017.84
4023
4021.61
4021.31
3415.16
3482.67
3536.89
3578.45
3611.8
3639.23
3661.97
3680.53
3695.63
3708.56
3720.42
3730.98
3741.01
3750.9
3760.61
3769.73
3777.08
3779.93
3775.2
3769.13
3094.11
3168.22
3236.45
3290.85
3335.25
3372.02
3402.55
3427.57
3447.77
3464.34
3478.72
3490.64
3501.06
3510.53
3519.09
3526.17
3530.69
3530.59
3523.06
3512.06
2787.03
2861.54
2939.79
3003.57
3057.11
3102.17
3139.94
3171.34
3196.9
3217.46
3234.61
3248.51
3259.81
3269.1
3276.33
3280.83
3281.71
3277.64
3266.84
3250.93
2496.61
2566.38
2649.33
2719.32
2779.85
2831.56
2875.41
2912.34
2942.89
2967.54
2987.64
3003.93
3016.35
3025.45
3031.11
3032.74
3029.73
3021.2
3006.35
2985.54
2222.75
2283.91
2366.88
2441.02
2505.86
2562.3
2610.74
2651.95
2686.52
2714.84
2737.73
2756.02
2769.27
2777.79
2781.44
2779.76
2772.71
2759.91
2740.72
2715.03
1964.2
2016.05
2094.6
2168.98
2235.77
2295.1
2346.62
2390.87
2428.41
2459.59
2484.68
2504.27
2517.85
2525.25
2526.69
2521.99
2511
2493.43
2469.19
2438.55
1721.04
1763.55
1832.24
1904.18
1971.13
2030.84
2083.63
2129.38
2168.34
2200.81
2226.89
2246.71
2259.75
2265.43
2263.98
2255.83
2241.09
2219.71
2191.72
2157.48
1492.81
1526.38
1582.69
1647.66
1711.76
1770.75
1822.65
1868.04
1906.64
1938.58
1963.9
1982.53
1993.98
1997.57
1993.54
1982.68
1965.35
1941.47
1911.32
1875.19
1279.13
1304.91
1348.13
1402.8
1460.19
1514.75
1564.19
1607.54
1644.26
1674.4
1697.76
1714.23
1723.45
1724.87
1718.73
1705.96
1687.05
1662.02
1631.31
1595.21
1079.24
1098.53
1129.72
1172.04
1219.18
1266.46
1310.76
1349.71
1382.81
1409.95
1430.51
1444.29
1451.1
1450.6
1443.02
1429.29
1409.98
1385.27
1355.71
1321.72
891.867
905.71
926.905
957.036
992.184
1028.89
1064.68
1097.61
1126.09
1148.88
1165.45
1175.87
1180.26
1178.28
1170.07
1156.52
1138.15
1115.35
1088.88
1059
715.572
724.64
737.62
756.902
780.232
805.453
831.005
855.253
876.653
894.069
906.733
914.154
916.121
912.663
904.372
891.947
875.764
856.317
834.226
809.631
549.142
553.659
559.252
568.749
581.554
596.407
612.203
627.75
641.754
653.072
660.895
664.735
664.394
660.002
651.994
640.801
626.882
610.887
593.231
574.205
392.838
392.644
390.883
391.063
394.447
400.775
408.799
417.1
424.495
430.071
433.218
433.611
431.188
426.146
418.76
409.344
398.261
385.894
372.471
358.92
247.401
240.63
232.108
225.952
223.818
225.324
228.807
232.426
234.969
235.835
234.821
232.031
227.812
222.426
215.91
208.433
200.265
191.533
182.695
175.35
100.505
81.3929
65.075
55.4562
50.4367
48.2245
47.5594
47.1992
46.0211
43.4187
39.2785
33.7668
27.2363
20.1272
12.9121
6.05322
-0.0341094
-4.9512
-7.9945
-8.81816
)
;

boundaryField
{
    right
    {
        type            cyclic;
    }
    left
    {
        type            cyclic;
    }
    outerWall
    {
        type            zeroGradient;
    }
    stirrerWall
    {
        type            zeroGradient;
    }
    top
    {
        type            empty;
    }
    bottom
    {
        type            empty;
    }
}


// ************************************************************************* //
