/*--------------------------------*- C++ -*----------------------------------*\
  =========                 |
  \\      /  F ield         | OpenFOAM: The Open Source CFD Toolbox
   \\    /   O peration     | Website:  https://openfoam.org
    \\  /    A nd           | Version:  10
     \\/     M anipulation  |
\*---------------------------------------------------------------------------*/
FoamFile
{
    format      ascii;
    class       surfaceScalarField;
    location    "300";
    object      phi;
}
// * * * * * * * * * * * * * * * * * * * * * * * * * * * * * * * * * * * * * //

dimensions      [0 3 -1 0 0 0 0];

internalField   nonuniform List<scalar> 
788
(
3.92301e-06
-2.59655e-06
3.17541e-06
8.29709e-06
3.64307e-06
1.26685e-05
4.3556e-06
1.36991e-05
4.6316e-06
1.21254e-05
3.99229e-06
8.60893e-06
2.13699e-06
4.32902e-06
-4.32875e-07
-2.48296e-06
-3.94187e-06
-1.1239e-05
-2.28476e-05
-8.21857e-06
1.99986e-06
-4.55624e-06
2.50731e-06
7.91013e-06
3.26054e-06
1.19999e-05
3.94997e-06
1.31308e-05
4.10088e-06
1.22327e-05
3.33941e-06
9.88616e-06
1.51363e-06
6.89857e-06
-1.10674e-06
8.15842e-07
-4.76039e-06
-7.24409e-06
-1.87503e-05
-8.86748e-06
8.35858e-07
-5.35158e-06
1.44601e-06
7.35695e-06
2.36666e-06
1.10865e-05
3.21541e-06
1.23677e-05
3.55772e-06
1.21192e-05
3.06929e-06
1.08227e-05
1.65093e-06
8.90407e-06
-9.41199e-07
3.84595e-06
-4.53821e-06
-3.57561e-06
-1.54975e-05
-8.10874e-06
2.96595e-07
-5.64246e-06
7.61131e-07
6.84153e-06
1.70895e-06
1.00091e-05
2.71821e-06
1.13281e-05
3.31061e-06
1.16335e-05
3.12801e-06
1.12865e-05
2.00074e-06
1.03882e-05
-5.04093e-07
6.55448e-06
-3.7589e-06
-4.21041e-07
-1.32665e-05
-6.35785e-06
-8.92357e-08
-5.59369e-06
2.43324e-07
6.3266e-06
1.18562e-06
8.77248e-06
2.33168e-06
9.99796e-06
3.19674e-06
1.07218e-05
3.40298e-06
1.1182e-05
2.65003e-06
1.12857e-05
5.03577e-07
8.70118e-06
-2.14562e-06
1.97995e-06
-1.2311e-05
-3.49003e-06
-4.55046e-07
-5.2289e-06
-1.66335e-07
5.71455e-06
8.15439e-07
7.32023e-06
2.13552e-06
8.32e-06
3.36932e-06
9.27877e-06
4.15212e-06
1.0348e-05
4.08621e-06
1.13644e-05
2.61738e-06
1.00859e-05
8.07084e-07
3.52792e-06
-1.21132e-05
3.1532e-07
-8.41679e-07
-4.52708e-06
-4.71178e-07
4.87919e-06
6.63252e-07
5.53996e-06
2.25996e-06
6.19479e-06
4.04246e-06
7.15466e-06
5.71778e-06
8.54547e-06
6.81491e-06
1.02659e-05
6.45675e-06
1.04008e-05
5.06527e-06
4.74753e-06
-1.15414e-05
4.33737e-06
-1.28757e-06
-3.42709e-06
-6.57815e-07
3.65696e-06
7.56876e-07
3.33079e-06
2.70312e-06
3.58876e-06
5.15988e-06
4.29634e-06
8.04391e-06
5.56381e-06
1.09932e-05
7.40125e-06
1.27131e-05
8.72526e-06
1.15464e-05
5.79335e-06
-8.86088e-06
8.70159e-06
-1.82007e-06
-1.83676e-06
-5.43051e-07
1.74667e-06
1.06185e-06
9.67478e-07
3.15333e-06
9.211e-07
6.09706e-06
1.09571e-06
1.01131e-05
1.61608e-06
1.52016e-05
2.50462e-06
2.05495e-05
3.40509e-06
2.23522e-05
3.74349e-06
-1.81049e-06
1.4999e-05
-2.03868e-06
-6.26538e-07
8.97926e-08
9.12497e-07
2.06974e-06
3.8052e-06
6.33599e-06
9.59995e-06
1.3138e-05
1.12737e-05
-1.27388e-05
-3.86436e-05
-1.7508e-05
-6.50643e-05
-2.24218e-05
-0.00010397
-2.83977e-05
-0.000153692
-3.58941e-05
-0.000212063
-4.63078e-05
-0.0002848
-6.42999e-05
-0.000383883
-8.13996e-05
-0.000452511
-0.000106227
-0.000540144
-0.00116813
-1.26327e-05
-3.5105e-05
-1.59058e-05
-6.18943e-05
-1.88021e-05
-0.000100741
-2.26567e-05
-0.000149183
-2.80447e-05
-0.000206219
-3.59396e-05
-0.00027707
-4.96877e-05
-0.000370786
-6.273e-05
-0.000438277
-8.48953e-05
-0.000518964
-0.00125294
-1.06479e-05
-3.30618e-05
-1.1988e-05
-6.08874e-05
-1.27074e-05
-0.000100023
-1.43485e-05
-0.000147465
-1.70245e-05
-0.000203665
-2.06861e-05
-0.000273372
-2.85213e-05
-0.000362987
-3.38294e-05
-0.00043373
-4.27689e-05
-0.000509255
-0.00129566
-7.28992e-06
-3.25133e-05
-6.55467e-06
-6.1757e-05
-5.21326e-06
-0.000101291
-4.66125e-06
-0.000148171
-4.32698e-06
-0.000204362
-3.07913e-06
-0.000274088
-3.93738e-06
-0.000361682
1.66899e-06
-0.000439621
1.22421e-05
-0.000519448
-0.00128358
-2.64748e-06
-3.36087e-05
-2.53992e-08
-6.43369e-05
2.97185e-06
-0.000104155
5.48967e-06
-0.000150941
8.76423e-06
-0.000208017
1.46253e-05
-0.000279268
2.02549e-05
-0.00036763
3.6994e-05
-0.000456465
6.83485e-05
-0.00055076
-0.00121533
2.29544e-06
-3.56697e-05
6.20111e-06
-6.80906e-05
1.03492e-05
-0.000108245
1.43736e-05
-0.000155391
1.98653e-05
-0.000213903
2.86855e-05
-0.000287441
3.8446e-05
-0.000378059
6.11959e-05
-0.000479108
9.77217e-05
-0.000587282
-0.0011176
6.99279e-06
-3.82671e-05
1.14156e-05
-7.2278e-05
1.60056e-05
-0.000112785
2.08811e-05
-0.000160635
2.76492e-05
-0.000220755
3.76227e-05
-0.000296739
4.86357e-05
-0.000389753
7.0699e-05
-0.000500777
0.000102729
-0.000619282
-0.00101488
1.14194e-05
-4.09682e-05
1.56061e-05
-7.63165e-05
2.01059e-05
-0.000117395
2.52377e-05
-0.000166146
3.23251e-05
-0.000227616
4.18557e-05
-0.000305555
5.15465e-05
-0.000400115
6.82236e-05
-0.000516973
9.22287e-05
-0.000643109
-0.000922994
1.53505e-05
-4.13282e-05
1.8977e-05
-7.98519e-05
2.30845e-05
-0.000121868
2.79841e-05
-0.000171527
3.47457e-05
-0.000233974
4.32149e-05
-0.000313328
5.05246e-05
-0.000408172
5.83393e-05
-0.000524728
7.00391e-05
-0.0006544
-0.00085288
1.86385e-05
-4.86507e-05
2.17331e-05
-8.28095e-05
2.48912e-05
-0.000125217
2.92356e-05
-0.000176283
3.54246e-05
-0.000240116
4.31042e-05
-0.000321021
5.1409e-05
-0.00041668
5.33797e-05
-0.00052651
3.21144e-05
-0.000633653
-0.000819836
3.59425e-06
-5.20856e-05
5.29859e-06
-8.44722e-05
5.23756e-06
-0.000125531
5.40169e-06
-0.000177015
6.87768e-06
-0.000241377
8.88375e-06
-0.000322963
9.76032e-06
-0.000417828
1.80853e-05
-0.000534808
4.48628e-05
-0.000661059
-0.00077493
5.02309e-06
-5.68411e-05
6.77668e-06
-8.59569e-05
6.67003e-06
-0.000125881
6.68363e-06
-0.000177688
7.86014e-06
-0.000242146
9.56895e-06
-0.000324434
9.70462e-06
-0.000418441
1.76799e-05
-0.000542542
4.89134e-05
-0.000692495
-0.000726215
1.44776e-05
-5.40271e-05
-1.68253e-05
1.47104e-05
-8.64255e-05
1.59851e-05
-0.000127352
1.7792e-05
-0.000179919
2.13254e-05
-0.000245344
2.66498e-05
-0.00032981
3.47349e-05
-0.000426835
3.7977e-05
-0.000545614
3.29635e-05
-0.000687955
-0.000692943
1.06285e-05
-5.6638e-05
-8.01027e-06
1.22982e-05
-8.80971e-05
1.39993e-05
-0.000129188
1.57106e-05
-0.000182168
1.86569e-05
-0.000247966
2.27056e-05
-0.000333971
2.75675e-05
-0.000431935
2.73083e-05
-0.0005456
3.34965e-05
-0.000694397
-0.000659348
6.14574e-06
-5.98966e-05
-2.93232e-06
8.04499e-06
-8.98554e-05
9.21936e-06
-0.000130458
1.01974e-05
-0.000183623
1.20394e-05
-0.000249518
1.45144e-05
-0.000336685
1.79303e-05
-0.000435574
1.58609e-05
-0.000543345
2.2983e-05
-0.000701866
-0.000636288
3.46515e-06
-6.14694e-05
-1.85862e-06
4.15848e-06
-9.04417e-05
4.19705e-06
-0.000130668
4.08637e-06
-0.000184029
4.75698e-06
-0.000249872
6.06283e-06
-0.000338025
8.73735e-06
-0.000438887
7.01739e-06
-0.000541457
1.24488e-05
-0.000707565
-0.000623663
7.73802e-07
-6.12035e-05
-1.0491e-06
-1.07863e-07
-8.95558e-05
-1.44269e-06
-0.000129639
-2.90248e-06
-0.00018327
-3.65748e-06
-0.0002491
-3.82006e-06
-0.000337873
-2.12288e-06
-0.000441183
-2.97137e-06
-0.000540303
9.70721e-07
-0.00071163
-0.000622469
-2.29327e-06
-5.94591e-05
4.96447e-07
-4.57791e-06
-8.7332e-05
-7.34377e-06
-0.000127253
-1.03645e-05
-0.00018096
-1.28025e-05
-0.000246689
-1.51406e-05
-0.000335452
-1.55248e-05
-0.00044119
-1.50752e-05
-0.00054025
-1.25825e-05
-0.000714209
-0.000634976
-4.96528e-06
-5.64561e-05
1.92252e-06
-8.42294e-06
-8.3932e-05
-1.24599e-05
-0.000123687
-1.69479e-05
-0.000177228
-2.10308e-05
-0.000242591
-2.57816e-05
-0.000330421
-3.02883e-05
-0.000436826
-3.05123e-05
-0.000539404
-2.96527e-05
-0.000715367
-0.000664935
-7.56991e-06
-5.24247e-05
3.52227e-06
-1.20931e-05
-7.94637e-05
-1.73297e-05
-0.00011908
-2.31914e-05
-0.000172229
-2.90052e-05
-0.000236714
-3.64309e-05
-0.000322503
-4.56968e-05
-0.000427605
-5.91495e-05
-0.000525441
-7.52448e-05
-0.000699725
-0.000741221
-9.95754e-06
-4.75137e-05
5.04419e-06
-1.55434e-05
-7.40034e-05
-2.19198e-05
-0.000113618
-2.88998e-05
-0.000166287
-3.61689e-05
-0.000229318
-4.66907e-05
-0.000311489
-5.93253e-05
-0.000415926
-9.71549e-05
-0.000488438
-0.000177682
-0.000618415
-0.000917946
-1.23628e-05
7.23976e-06
-1.83064e-05
-2.51305e-05
-3.24648e-05
-4.05185e-05
-5.45482e-05
-7.01106e-05
-9.18207e-05
-0.000142644
-2.23088e-05
5.69978e-06
-3.43259e-05
4.06431e-06
-4.05191e-05
3.19124e-06
-4.36222e-05
1.17968e-06
-4.43523e-05
-4.83292e-07
-4.32712e-05
-7.86619e-07
-4.07473e-05
-7.94829e-07
-3.70654e-05
-3.47556e-07
-3.26505e-05
3.08414e-07
2.2548e-06
-6.04404e-06
1.15329e-05
-1.59456e-05
1.34699e-05
-2.31097e-05
9.8727e-06
-2.74731e-05
5.12137e-06
-2.95189e-05
1.10887e-06
-2.95063e-05
-1.213e-06
-2.78879e-05
-2.65417e-06
-2.49919e-05
-3.23402e-06
-2.13519e-05
-3.06244e-06
-1.35273e-06
5.0612e-07
1.08139e-05
-2.89145e-06
1.64851e-05
-7.77791e-06
1.43303e-05
-1.21542e-05
9.01147e-06
-1.50794e-05
3.51717e-06
-1.60539e-05
-6.37136e-07
-1.55473e-05
-3.28903e-06
-1.39007e-05
-4.66718e-06
-1.14678e-05
-4.90477e-06
-3.7544e-06
2.84756e-06
7.84536e-06
4.90546e-06
1.41711e-05
4.26818e-06
1.46372e-05
2.24129e-06
1.06594e-05
-2.46047e-07
5.65584e-06
-2.24432e-06
1.17366e-06
-3.33996e-06
-2.12737e-06
-3.35322e-06
-4.30548e-06
-2.35534e-06
-5.2453e-06
-4.93408e-06
3.01074e-06
4.78117e-06
7.61889e-06
9.39278e-06
1.02183e-05
1.17914e-05
1.07809e-05
9.85542e-06
9.95592e-06
6.29799e-06
8.50038e-06
2.57359e-06
7.09065e-06
-5.93247e-07
6.10424e-06
-3.00705e-06
5.80371e-06
-4.44952e-06
-4.87428e-06
2.38449e-06
2.36706e-06
7.07013e-06
4.55724e-06
1.1195e-05
7.4339e-06
1.36137e-05
7.25472e-06
1.44993e-05
5.30087e-06
1.43017e-05
2.75933e-06
1.35183e-05
2.98672e-07
1.25221e-05
-1.79041e-06
1.17004e-05
-3.31997e-06
-4.17723e-06
1.63934e-06
6.96788e-07
5.11251e-06
9.25344e-07
9.18721e-06
3.13248e-06
1.24474e-05
3.84645e-06
1.4415e-05
3.2611e-06
1.52419e-05
1.94377e-06
1.52582e-05
3.8157e-07
1.47355e-05
-1.09146e-06
1.40031e-05
-2.35271e-06
-3.31577e-06
1.1279e-06
-4.64541e-07
3.18747e-06
-1.29216e-06
6.13309e-06
-7.51692e-09
8.97867e-06
8.85554e-07
1.11156e-05
1.08047e-06
1.23732e-05
7.13542e-07
1.28267e-05
2.3854e-08
1.26715e-05
-7.79573e-07
1.22585e-05
-1.71392e-06
-2.60014e-06
6.44621e-07
-1.13642e-06
1.34413e-06
-2.11693e-06
2.73155e-06
-1.50193e-06
4.3438e-06
-7.7215e-07
5.76498e-06
-3.29982e-07
6.7199e-06
-1.77358e-07
7.08534e-06
-2.32646e-07
6.90498e-06
-4.57125e-07
6.37131e-06
-9.93455e-07
-1.9197e-06
-1.15253e-06
-3.32845e-06
-4.85727e-06
-5.63251e-06
-5.94252e-06
-6.07642e-06
-6.24374e-06
-6.61537e-06
-7.49774e-06
)
;

boundaryField
{
    right
    {
        type            cyclic;
        value           nonuniform List<scalar> 
20
(
0.00106241
0.000563611
0.000469655
0.000401165
0.00029511
0.000218295
0.000157788
0.000107038
6.84482e-05
4.26772e-05
2.78188e-05
1.63774e-05
7.13562e-06
-6.23744e-07
-6.80257e-06
-1.15919e-05
-1.36606e-05
-1.23135e-05
-6.52457e-06
9.0056e-06
)
;
    }
    left
    {
        type            cyclic;
        value           nonuniform List<scalar> 
20
(
-0.00106241
-0.000563611
-0.000469655
-0.000401165
-0.00029511
-0.000218295
-0.000157788
-0.000107038
-6.84482e-05
-4.26772e-05
-2.78188e-05
-1.63774e-05
-7.13562e-06
6.23744e-07
6.80257e-06
1.15919e-05
1.36606e-05
1.23135e-05
6.52457e-06
-9.0056e-06
)
;
    }
    outerWall
    {
        type            calculated;
        value           uniform 0;
    }
    stirrerWall
    {
        type            calculated;
        value           uniform 0;
    }
    top
    {
        type            empty;
        value           nonuniform List<scalar> 0();
    }
    bottom
    {
        type            empty;
        value           nonuniform List<scalar> 0();
    }
}


// ************************************************************************* //
