/*--------------------------------*- C++ -*----------------------------------*\
  =========                 |
  \\      /  F ield         | OpenFOAM: The Open Source CFD Toolbox
   \\    /   O peration     | Website:  https://openfoam.org
    \\  /    A nd           | Version:  10
     \\/     M anipulation  |
\*---------------------------------------------------------------------------*/
FoamFile
{
    format      ascii;
    class       volVectorField;
    location    "300";
    object      U;
}
// * * * * * * * * * * * * * * * * * * * * * * * * * * * * * * * * * * * * * //

dimensions      [0 1 -1 0 0 0 0];

internalField   nonuniform List<vector> 
420
(
(0.605778 8.56068 2.73897e-18)
(0.107158 10.8569 -2.37e-17)
(-0.0489608 12.557 -1.50284e-16)
(-0.0362418 13.919 4.57693e-17)
(-0.0574477 15.028 -3.63183e-16)
(-0.140418 15.9472 0)
(-0.340821 16.7769 0)
(-0.582288 17.4104 3.57066e-16)
(-0.861747 17.8771 -4.1607e-16)
(-1.11848 18.1478 0)
(-0.121501 8.75019 9.66144e-18)
(-0.967786 10.9056 -2.54915e-17)
(-1.03244 12.5315 3.83204e-16)
(-1.10693 13.8864 -7.38876e-16)
(-1.22055 15.0367 2.39392e-16)
(-1.39347 16.0278 2.82412e-17)
(-1.66158 16.9382 2.45727e-15)
(-1.96423 17.5973 -5.21959e-16)
(-2.27644 18.1085 8.66627e-16)
(-2.54145 18.3799 0)
(-0.83411 8.59806 -1.2316e-16)
(-1.96017 10.7314 5.40552e-17)
(-2.05408 12.3144 3.3059e-16)
(-2.20134 13.6618 8.62143e-16)
(-2.38595 14.8499 -5.69737e-16)
(-2.6322 15.9168 3.02399e-15)
(-2.9423 16.9194 1.27919e-15)
(-3.29442 17.6489 3.20729e-15)
(-3.64385 18.2099 -1.41363e-15)
(-3.90719 18.4582 -3.18957e-15)
(-1.49753 8.45663 1.09842e-16)
(-2.83795 10.4863 -9.40749e-18)
(-3.01834 12.0261 -4.09748e-16)
(-3.24843 13.3687 5.41346e-16)
(-3.51004 14.5928 -1.03346e-15)
(-3.8331 15.7277 1.24775e-15)
(-4.20116 16.7996 -7.69023e-15)
(-4.61899 17.6035 0)
(-4.99527 18.1881 -3.07656e-15)
(-5.22431 18.3717 2.87137e-15)
(-2.14014 8.29998 0)
(-3.66233 10.1809 6.09095e-17)
(-3.93198 11.6575 -5.8063e-17)
(-4.24976 12.982 0)
(-4.59315 14.2316 -1.99621e-16)
(-4.99382 15.4233 -3.46493e-16)
(-5.42855 16.561 2.65042e-15)
(-5.90499 17.44 -2.77111e-15)
(-6.29093 18.0342 0)
(-6.4547 18.1314 -1.23147e-14)
(-2.77199 8.12369 -4.92704e-17)
(-4.44652 9.81348 0)
(-4.78958 11.2134 0)
(-5.18875 12.5065 7.27081e-16)
(-5.60884 13.7681 -1.51599e-15)
(-6.08156 15.0028 1.87891e-15)
(-6.57765 16.2098 5.77502e-16)
(-7.09956 17.1705 6.70909e-15)
(-7.47252 17.7814 -8.89425e-15)
(-7.56522 17.7449 5.93851e-15)
(-3.40127 7.92548 0)
(-5.18498 9.37815 -1.72569e-17)
(-5.57764 10.6962 -7.17854e-16)
(-6.04146 11.9486 -5.21942e-16)
(-6.52354 13.2079 -2.43079e-15)
(-7.05004 14.4737 1.8499e-15)
(-7.59755 15.7451 -4.86207e-15)
(-8.13598 16.8294 6.65087e-16)
(-8.5167 17.4558 -2.63151e-15)
(-8.61212 17.3018 -8.58653e-15)
(-4.04346 7.70015 1.12148e-16)
(-5.86129 8.87099 4.41134e-18)
(-6.28143 10.1075 9.72356e-16)
(-6.79173 11.3155 5.10149e-16)
(-7.32164 12.5552 1.56527e-15)
(-7.87717 13.837 0)
(-8.45468 15.1572 4.87986e-15)
(-8.97562 16.4034 6.27534e-15)
(-9.38855 17.1753 7.26125e-15)
(-9.61201 16.9493 6.19149e-15)
(-4.72333 7.43055 1.18033e-16)
(-6.4474 8.31975 -4.43559e-19)
(-6.89163 9.47495 4.76001e-19)
(-7.44397 10.6089 -1.00067e-15)
(-8.00703 11.775 3.51757e-15)
(-8.56031 13.0056 5.69609e-15)
(-9.10228 14.311 -2.07519e-15)
(-9.59143 15.6481 0)
(-9.97922 16.8348 0)
(-10.5517 16.9183 -6.39702e-15)
(-5.51865 7.03822 -1.6898e-16)
(-6.93252 7.74617 5.29015e-16)
(-7.53129 8.77409 0)
(-8.26887 9.80883 0)
(-9.02972 10.8463 -3.17123e-15)
(-9.77491 11.9071 -1.92589e-17)
(-10.4777 12.9963 5.84297e-15)
(-11.1094 14.1015 -1.26739e-14)
(-11.6704 15.1428 1.50041e-14)
(-12.3187 15.5081 1.14448e-15)
(-1.34273 18.162 0)
(-1.58219 17.8777 0)
(-1.82171 17.221 0)
(-2.02323 16.4767 -9.67231e-16)
(-2.20394 15.928 0)
(-2.57295 15.3406 0)
(-2.75357 14.3977 1.36031e-15)
(-4.26535 15.6253 0)
(-7.85747 16.6415 0)
(22.9791 4.43828 0)
(-2.72997 18.3254 1.4227e-15)
(-2.87448 17.9636 2.73825e-15)
(-2.96314 17.2679 2.69488e-16)
(-3.01431 16.5709 1.19071e-15)
(-3.07869 16.091 1.98439e-16)
(-3.28351 15.6195 1.47151e-15)
(-3.32577 14.8455 1.31176e-16)
(-5.13911 16.0283 3.6389e-16)
(-8.54487 17.0385 -5.14819e-15)
(28.0614 2.81164 -1.35325e-14)
(-4.03238 18.3224 1.19548e-15)
(-4.04931 17.8906 0)
(-3.96975 17.1865 -2.1092e-15)
(-3.88112 16.5653 -1.90984e-15)
(-3.83185 16.1437 5.32057e-15)
(-3.82655 15.7491 -1.29913e-15)
(-3.74366 15.1915 1.74889e-15)
(-5.68823 16.0978 0)
(-8.99838 17.0826 2.64366e-15)
(35.317 4.04238 1.2747e-15)
(-5.24721 18.1239 2.66707e-15)
(-5.10962 17.6164 6.98629e-15)
(-4.86292 16.9227 -7.30627e-15)
(-4.65271 16.3815 2.86413e-15)
(-4.49039 16.0085 -4.22579e-16)
(-4.26862 15.6891 0)
(-4.03997 15.3072 -1.76718e-15)
(-5.9465 15.8686 -1.67111e-15)
(-9.24706 16.6544 -2.69591e-15)
(42.0918 7.84971 5.45431e-14)
(-6.35161 17.7621 2.29486e-15)
(-6.04937 17.193 -2.24437e-15)
(-5.65751 16.5353 6.60929e-15)
(-5.35298 16.0667 -2.74782e-15)
(-5.08255 15.721 1.94187e-15)
(-4.6598 15.4564 -3.0957e-15)
(-4.28578 15.1881 1.79293e-15)
(-6.02848 15.3014 9.79232e-16)
(-9.06121 15.6271 0)
(45.5939 13.6825 -1.15957e-13)
(-7.35983 17.2057 2.74333e-15)
(-6.90316 16.5973 -1.14897e-14)
(-6.40326 16.0095 -3.23135e-15)
(-6.0358 15.5982 6.46425e-15)
(-5.67334 15.2571 4.70541e-15)
(-5.09448 15.006 -4.35345e-16)
(-4.60933 14.7576 -5.18034e-16)
(-6.14602 14.3446 -8.23633e-16)
(-8.54219 14.2117 -3.58335e-15)
(42.1854 20.0189 8.35148e-14)
(-8.32146 16.562 2.58799e-15)
(-7.7154 15.9061 3.7078e-15)
(-7.14426 15.3782 0)
(-6.74386 14.9949 -2.13302e-15)
(-6.31222 14.643 -3.1644e-15)
(-5.63304 14.3862 -5.75493e-16)
(-5.07179 14.1368 -2.78217e-15)
(-6.44048 13.2195 -1.44718e-17)
(-8.37773 12.7666 2.31201e-15)
(35.8132 24.7023 -3.1252e-14)
(-9.2381 15.8566 9.02457e-15)
(-8.50257 15.1433 -3.36673e-15)
(-7.87709 14.6739 0)
(-7.46734 14.2984 1.56721e-16)
(-6.99988 13.9322 9.90521e-15)
(-6.27386 13.6617 -3.08237e-15)
(-5.67807 13.411 2.64277e-16)
(-6.9607 12.0801 -6.893e-17)
(-8.57907 11.3813 1.63945e-15)
(28.1689 27.7014 0)
(-10.0256 15.1565 1.42981e-16)
(-9.29542 14.3199 -3.18771e-15)
(-8.59309 13.904 0)
(-8.17058 13.5175 3.28115e-15)
(-7.69512 13.1352 -7.37372e-15)
(-6.95959 12.8502 2.77251e-15)
(-6.33795 12.6485 4.66499e-16)
(-7.66626 11.0571 0)
(-9.18195 10.1878 -1.95148e-16)
(20.1026 28.9518 2.81576e-14)
(-10.2129 14.5044 3.12441e-16)
(-10.1342 13.3712 1.15626e-16)
(-9.31168 13.0383 0)
(-8.82757 12.6289 -6.96212e-15)
(-8.32341 12.2189 2.86518e-15)
(-7.58183 11.9045 -8.04341e-16)
(-6.84448 11.8091 -5.46565e-16)
(-8.2453 10.2463 -1.23297e-15)
(-10.1708 9.27723 -5.18413e-16)
(13.0961 27.971 -2.33032e-14)
(-10.8535 13.8045 2.75739e-15)
(-11.2437 12.3882 -3.66202e-15)
(-10.6408 11.996 0)
(-10.1981 11.5161 0)
(-9.75811 11.0304 0)
(-9.10482 10.6527 -7.54299e-16)
(-8.46568 10.6082 2.22525e-15)
(-9.48253 9.16477 0)
(-10.2576 8.98447 0)
(8.60036 28.0694 0)
(-11.5216 12.9377 -2.80386e-15)
(-11.6755 11.91 -4.1105e-15)
(-11.2345 11.4446 0)
(-10.7622 10.9526 2.17138e-15)
(-10.3124 10.4546 -1.66074e-15)
(-9.64662 10.0632 9.70142e-16)
(-8.96375 10.1452 1.83814e-15)
(-9.82135 8.40512 3.59471e-16)
(-10.1301 8.05973 -2.38833e-17)
(7.20839 30.0775 0)
(-12.1113 11.6604 3.51694e-16)
(-11.8987 11.2666 -3.13908e-16)
(-11.4422 10.8495 0)
(-10.8623 10.4123 -3.45881e-16)
(-10.3054 9.95428 3.63839e-15)
(-9.52188 9.55828 -3.0999e-15)
(-8.612 9.83321 -4.90484e-15)
(-9.46578 7.76717 -1.257e-15)
(-10.4431 5.66432 2.35034e-15)
(5.47435 32.2055 2.68376e-14)
(-13.386 10.5301 -1.08379e-14)
(-12.8569 10.2499 3.91562e-15)
(-12.2988 9.90076 0)
(-11.6742 9.51298 -6.04912e-15)
(-11.0888 9.08827 -4.26103e-15)
(-10.2953 8.63269 6.43478e-15)
(-9.34715 9.01288 2.86454e-15)
(-10.3146 7.04642 0)
(-11.4301 4.81703 -3.30994e-15)
(0.803761 31.8822 -6.59484e-15)
(-14.0661 9.12055 -7.8013e-17)
(-13.5902 8.97146 4.1733e-15)
(-13.0355 8.67799 0)
(-12.3846 8.32579 1.2073e-14)
(-11.781 7.92598 6.38587e-17)
(-10.9824 7.38797 2.90583e-16)
(-9.98122 7.9227 7.22198e-15)
(-10.9155 6.15102 -4.7729e-15)
(-11.8089 3.26419 -2.70708e-15)
(-3.52267 30.6025 0)
(-14.5809 7.84551 -2.75808e-15)
(-14.2328 7.71601 1.01694e-14)
(-13.7222 7.43177 8.72768e-15)
(-13.0586 7.09598 -1.02596e-14)
(-12.4451 6.724 -1.73836e-14)
(-11.6252 6.10991 -3.66044e-16)
(-10.559 6.79952 -4.38082e-15)
(-11.4774 5.28418 -3.65717e-15)
(-12.0357 1.87102 -7.3624e-15)
(-7.16155 28.8195 -3.29113e-14)
(-15.1024 6.60329 -9.99936e-15)
(-14.8506 6.43609 5.66974e-15)
(-14.3691 6.131 -4.28541e-15)
(-13.689 5.79493 -1.21101e-14)
(-13.0668 5.4457 9.02523e-15)
(-12.2201 4.76195 -6.1535e-16)
(-11.0978 5.55184 9.52704e-15)
(-11.9673 4.3266 3.36973e-15)
(-12.1567 0.460237 5.68691e-15)
(-10.0657 26.6323 3.72219e-15)
(-15.6814 5.35124 2.9214e-15)
(-15.4761 5.13563 -2.9403e-15)
(-14.9915 4.79601 -4.26424e-16)
(-14.2817 4.44419 1.25028e-14)
(-13.6377 4.10142 -1.85938e-14)
(-12.7558 3.36415 5.97929e-15)
(-11.6048 4.14461 -6.5236e-15)
(-12.3811 3.21651 1.51775e-14)
(-12.1946 -0.889195 0)
(-12.4234 24.1288 -1.35881e-15)
(-16.267 4.09631 3.26071e-15)
(-16.0733 3.8328 2.84899e-15)
(-15.5731 3.46762 5.33367e-15)
(-14.8393 3.1087 -8.73855e-15)
(-14.1786 2.76745 3.38025e-15)
(-13.278 2.02976 0)
(-12.129 2.67801 -3.52761e-15)
(-12.6798 1.82942 -1.20931e-14)
(-12.1397 -2.01036 -6.97236e-16)
(-14.1925 21.343 2.91109e-14)
(-16.8391 2.79923 1.41439e-15)
(-16.6379 2.4926 0)
(-16.1043 2.1071 2.68816e-15)
(-15.3475 1.74643 2.68689e-15)
(-14.6734 1.41391 1.93652e-16)
(-13.778 0.643841 -1.79813e-15)
(-12.7566 1.21413 3.41401e-15)
(-13.1462 0.171933 0)
(-12.3348 -3.57771 5.471e-15)
(-14.0227 17.0572 3.42358e-14)
(-17.4099 1.4623 1.59182e-15)
(-17.195 1.11584 -3.04092e-15)
(-16.6142 0.714549 -3.52036e-16)
(-15.8537 0.359737 7.62324e-16)
(-15.224 0.0779181 -3.11179e-16)
(-14.3642 -0.765977 1.43597e-15)
(-13.4987 -0.262506 -4.04289e-15)
(-14.4581 -1.47663 -6.8779e-16)
(-13.8406 -7.10673 7.10091e-15)
(-16.7613 14.7561 -2.5787e-14)
(-17.8498 0.0305291 2.18115e-29)
(-17.6117 -0.288769 0)
(-16.9847 -0.666681 0)
(-16.1855 -1.00844 -1.08579e-15)
(-15.535 -1.24413 0)
(-14.8457 -1.84919 0)
(-13.573 -2.09146 1.68323e-15)
(-15.1627 -2.93864 0)
(-16.1809 -7.7601 0)
(-2.19707 18.8824 -1.3314e-28)
(-14.2362 12.7015 9.93882e-16)
(-14.1986 10.7026 -6.2799e-15)
(-14.5704 9.12164 6.56642e-15)
(-14.8528 7.8255 -9.74794e-15)
(-15.2218 6.64056 7.11273e-15)
(-15.6973 5.44969 -1.53836e-14)
(-16.2324 4.2693 3.52825e-15)
(-16.7705 3.03191 -3.67438e-15)
(-17.3246 1.74528 0)
(-17.7862 0.308692 -3.78979e-16)
(-14.8588 12.0341 1.39357e-14)
(-14.9731 10.2299 0)
(-15.0174 8.84475 6.78184e-15)
(-15.0844 7.6803 -2.87228e-15)
(-15.2742 6.60832 -1.09419e-14)
(-15.5922 5.49809 0)
(-16.0422 4.39827 -3.90504e-15)
(-16.5003 3.2294 -1.54394e-15)
(-16.9957 1.99759 1.00269e-15)
(-17.4798 0.592406 -3.9488e-16)
(-14.4904 11.1037 -1.14267e-14)
(-15.1035 9.50216 0)
(-15.2813 8.37701 5.70577e-15)
(-15.2756 7.38786 7.95624e-16)
(-15.3277 6.45062 9.12656e-15)
(-15.5017 5.46303 -4.52058e-15)
(-15.8401 4.44805 0)
(-16.1897 3.35097 4.22713e-15)
(-16.5673 2.16847 -5.7529e-16)
(-17.0032 0.841562 4.77885e-16)
(-13.4302 10.3189 5.24533e-15)
(-14.5533 8.88934 -1.67522e-15)
(-15.1287 7.87276 4.2055e-15)
(-15.3267 7.04088 -4.48723e-15)
(-15.4128 6.24163 5.80509e-16)
(-15.4997 5.38182 3.22512e-15)
(-15.6613 4.43211 -9.91469e-15)
(-15.8702 3.39252 1.64295e-15)
(-16.0991 2.24998 2.62756e-15)
(-16.4184 0.998068 8.36374e-17)
(-12.2098 9.60276 -7.78298e-15)
(-13.4411 8.40901 4.7956e-15)
(-14.3685 7.42962 0)
(-14.8211 6.63853 1.77649e-15)
(-15.0749 5.8869 1.99187e-15)
(-15.2251 5.09436 -3.03557e-16)
(-15.3497 4.2248 1.64267e-15)
(-15.4716 3.27724 3.44166e-15)
(-15.5831 2.23276 -9.05809e-18)
(-15.7501 1.08384 3.09441e-16)
(-11.0152 8.89449 -3.08884e-15)
(-12.0901 7.94789 3.60073e-15)
(-13.1584 7.00719 1.56032e-15)
(-13.8118 6.21514 -2.52363e-15)
(-14.2242 5.48241 -1.65035e-15)
(-14.4997 4.72879 -2.4506e-16)
(-14.6786 3.91732 -3.03009e-15)
(-14.7991 3.04088 9.39032e-16)
(-14.8655 2.08527 2.49281e-16)
(-14.9464 1.05059 -3.06698e-16)
(-9.87385 8.175 0)
(-10.7112 7.46257 -1.2207e-15)
(-11.7 6.59176 4.13967e-16)
(-12.4518 5.80986 -6.13116e-16)
(-12.9811 5.0767 9.71692e-16)
(-13.3503 4.34162 0)
(-13.5971 3.56978 6.82418e-16)
(-13.7561 2.75218 9.86676e-16)
(-13.829 1.88271 -8.44854e-16)
(-13.886 0.960046 -2.98467e-17)
(-8.78516 7.44646 0)
(-9.41973 6.92182 -2.31428e-16)
(-10.2172 6.15105 1.91374e-15)
(-10.9196 5.40574 -1.41168e-15)
(-11.4726 4.68069 0)
(-11.8847 3.95762 -2.2092e-16)
(-12.1716 3.21509 -6.53465e-16)
(-12.3513 2.44044 5.46885e-16)
(-12.4459 1.6437 5.07631e-16)
(-12.5151 0.832459 -1.98016e-16)
(-7.73182 6.67153 -7.08975e-16)
(-8.23182 6.26885 2.32714e-16)
(-8.83282 5.56109 2.29705e-16)
(-9.40614 4.83808 -2.3201e-16)
(-9.88497 4.12161 0)
(-10.2569 3.40916 2.41485e-16)
(-10.5215 2.69281 2.68259e-16)
(-10.6764 1.97495 -2.81959e-16)
(-10.7523 1.2909 -6.29451e-17)
(-10.7845 0.639914 1.20269e-18)
(-6.34535 6.24758 -1.11177e-16)
(-6.50425 6.016 5.18031e-19)
(-6.81747 5.44461 -1.25467e-17)
(-7.16253 4.80883 0)
(-7.49004 4.17919 1.04673e-17)
(-7.77987 3.55942 0)
(-8.01727 2.94035 6.07879e-17)
(-8.18946 2.32139 -1.34178e-17)
(-8.29853 1.71778 1.66062e-17)
(-8.27188 1.12898 -2.16492e-18)
)
;

boundaryField
{
    right
    {
        type            cyclic;
    }
    left
    {
        type            cyclic;
    }
    outerWall
    {
        type            calculated;
        value           nonuniform List<vector> 
22
(
(-1.55201 41.8305 0)
(-4.64749 41.6006 0)
(-7.71741 41.1419 0)
(-10.7449 40.4569 0)
(-13.7132 39.5492 0)
(-16.6061 38.424 0)
(-19.4075 37.0874 0)
(-22.1022 35.5467 0)
(-24.6752 33.8104 0)
(-27.1124 31.8882 0)
(-28.9573 30.2506 0)
(-30.2506 28.9573 0)
(-31.8882 27.1124 0)
(-33.8104 24.6752 0)
(-35.5467 22.1022 0)
(-37.0874 19.4075 0)
(-38.424 16.6061 0)
(-39.5492 13.7132 0)
(-40.4569 10.7449 0)
(-41.1419 7.71741 0)
(-41.6006 4.64749 0)
(-41.8305 1.55201 0)
)
;
    }
    stirrerWall
    {
        type            calculated;
        value           nonuniform List<vector> 
42
(
(-0.310178 8.3662 0)
(-0.928834 8.32046 0)
(-1.54239 8.22894 0)
(-2.14746 8.09214 0)
(-2.74072 7.91082 0)
(-3.31888 7.68598 0)
(-3.87877 7.41885 0)
(-4.41729 7.11092 0)
(-4.93148 6.76387 0)
(-5.4185 6.37963 0)
(-6.07951 6.64185 0)
(-6.92878 7.56862 0)
(-7.77806 8.49539 0)
(-8.62734 9.42216 0)
(-9.47661 10.3489 0)
(-10.3259 11.2757 0)
(-11.1752 12.2025 0)
(-12.0244 13.1292 0)
(-12.8737 14.056 0)
(-13.723 14.9828 0)
(-14.4723 15.1215 0)
(-15.1215 14.4723 0)
(-14.9828 13.723 0)
(-14.056 12.8737 0)
(-13.1292 12.0244 0)
(-12.2025 11.1752 0)
(-11.2757 10.3259 0)
(-10.3489 9.47661 0)
(-9.42216 8.62734 0)
(-8.49539 7.77806 0)
(-7.56862 6.92878 0)
(-6.64185 6.07951 0)
(-6.37963 5.4185 0)
(-6.76387 4.93148 0)
(-7.11092 4.41729 0)
(-7.41885 3.87877 0)
(-7.68598 3.31888 0)
(-7.91082 2.74072 0)
(-8.09214 2.14746 0)
(-8.22894 1.54239 0)
(-8.32046 0.928834 0)
(-8.3662 0.310178 0)
)
;
    }
    top
    {
        type            empty;
    }
    bottom
    {
        type            empty;
    }
}


// ************************************************************************* //
