/*--------------------------------*- C++ -*----------------------------------*\
  =========                 |
  \\      /  F ield         | OpenFOAM: The Open Source CFD Toolbox
   \\    /   O peration     | Website:  https://openfoam.org
    \\  /    A nd           | Version:  10
     \\/     M anipulation  |
\*---------------------------------------------------------------------------*/
FoamFile
{
    format      ascii;
    class       volVectorField;
    location    "300";
    object      U;
}
// * * * * * * * * * * * * * * * * * * * * * * * * * * * * * * * * * * * * * //

dimensions      [0 1 -1 0 0 0 0];

internalField   nonuniform List<vector> 
2000
(
(4.29001 39.9248 2.32616e-17)
(1.44719 50.7393 1.32177e-17)
(2.91588 58.5487 -1.043e-17)
(4.55859 64.9135 0)
(5.97146 70.2111 0)
(7.26616 74.3838 3.6062e-16)
(8.30247 77.647 -4.29733e-16)
(9.03201 80.2037 -5.05887e-16)
(9.22327 82.1537 5.99149e-16)
(9.04526 83.5599 7.24026e-16)
(8.36403 84.569 9.01642e-16)
(7.20002 85.4368 0)
(5.58796 86.7233 1.55621e-15)
(4.25548 88.7002 2.09891e-15)
(3.55276 90.3999 3.08702e-15)
(2.37627 90.3187 3.5122e-15)
(1.6625 88.3877 -2.33112e-15)
(0.728944 86.2161 8.78331e-16)
(0.0596299 84.2068 7.434e-16)
(-0.397325 82.6542 2.76784e-15)
(2.46953 40.9157 -1.21169e-16)
(-2.24608 50.7728 -2.97307e-18)
(-0.605255 57.6778 -2.01552e-16)
(0.445638 63.7526 -7.36816e-16)
(1.93005 68.8887 1.34036e-16)
(3.56357 73.0659 -1.62232e-15)
(5.00084 76.5315 8.76542e-16)
(6.07451 79.4383 1.5832e-15)
(6.61918 81.8025 5.96666e-16)
(6.61172 83.6614 7.0237e-16)
(6.04662 85.1501 -1.6828e-15)
(5.01172 86.4814 -1.0233e-15)
(3.56227 87.9729 -1.3664e-15)
(2.41941 89.5285 -1.7425e-15)
(2.02668 90.9435 -7.58128e-15)
(0.872208 91.7021 -4.50648e-15)
(0.18127 89.4375 7.79094e-15)
(-0.976298 87.0834 -5.60091e-15)
(-1.81339 84.8831 0)
(-2.38704 83.0848 -4.19091e-15)
(0.812549 40.3397 7.81659e-17)
(-3.80781 50.0953 -1.25674e-16)
(-2.19183 56.8945 1.90483e-16)
(-1.40442 62.7133 6.94481e-16)
(-0.189014 67.6766 1.33511e-15)
(1.23945 71.8766 3.61047e-16)
(2.5362 75.5048 9.45021e-16)
(3.54214 78.698 -1.575e-15)
(4.12405 81.4186 -1.2264e-15)
(4.20335 83.7889 -1.4067e-15)
(3.80367 85.6957 1.64788e-15)
(2.98687 87.3875 0)
(1.81432 89.0091 -4.70755e-15)
(0.945955 90.3907 0)
(0.430208 91.6714 0)
(-0.936168 92.7659 0)
(-1.85659 90.7014 6.09351e-15)
(-2.95355 88.097 -7.84641e-15)
(-3.81083 85.6548 0)
(-4.41636 83.595 2.85651e-15)
(-0.82406 39.7686 7.58951e-18)
(-5.13817 48.9712 2.76501e-16)
(-3.48875 55.8711 0)
(-2.67148 61.4784 1.33499e-15)
(-1.71576 66.2769 4.96034e-16)
(-0.583792 70.4581 2.06478e-16)
(0.450873 74.1916 -1.47363e-17)
(1.26721 77.6012 3.1517e-15)
(1.78819 80.6934 0)
(1.85218 83.4296 1.25203e-15)
(1.56354 85.7564 1.46455e-15)
(0.849821 87.7985 3.55227e-15)
(-0.185742 89.5543 4.26265e-15)
(-1.00389 90.9809 1.02656e-14)
(-1.6877 92.3236 -6.30259e-15)
(-2.7536 93.4893 -5.1418e-16)
(-4.04448 92.0931 2.18099e-14)
(-4.88505 89.1278 8.1306e-15)
(-5.78463 86.4553 6.6484e-15)
(-6.39987 84.1573 5.77938e-15)
(-2.4148 39.1007 0)
(-6.72866 47.5931 -5.93474e-16)
(-5.00597 54.6032 -4.66207e-16)
(-4.08616 60.117 -1.66976e-15)
(-3.27313 64.836 -2.19569e-15)
(-2.37299 69.0037 7.37135e-16)
(-1.58253 72.7904 -1.96784e-15)
(-0.982049 76.3289 -3.17428e-15)
(-0.595101 79.6685 -1.11681e-15)
(-0.559315 82.7682 1.29098e-16)
(-0.808146 85.4471 -2.78105e-15)
(-1.48552 87.8344 -3.34834e-15)
(-2.43761 89.7731 -3.73233e-15)
(-3.28759 91.3625 -4.47494e-15)
(-3.97885 92.8476 0)
(-4.75616 94.0472 2.58982e-16)
(-6.34836 93.4353 2.92536e-16)
(-6.79008 90.1042 -7.71945e-15)
(-7.67545 87.2378 -1.93217e-14)
(-8.3204 84.7711 5.21514e-15)
(-3.9297 38.4236 0)
(-8.57608 46.0766 3.28552e-16)
(-6.7871 53.062 0)
(-5.74944 58.5934 1.07908e-15)
(-4.99432 63.3415 2.71724e-15)
(-4.26224 67.553 0)
(-3.68262 71.3893 3.79239e-15)
(-3.29574 74.9985 6.43562e-15)
(-3.09009 78.4789 0)
(-3.11953 81.8017 -2.29606e-15)
(-3.37447 84.8475 5.73754e-15)
(-4.03479 87.5397 2.86561e-16)
(-4.94689 89.7222 3.77433e-15)
(-5.83858 91.5066 -3.7574e-15)
(-6.51231 93.126 0)
(-6.95254 94.4704 -1.27649e-14)
(-8.76804 94.6657 -9.58016e-15)
(-8.79108 91.0815 0)
(-9.61758 88.0535 1.21889e-14)
(-10.2729 85.4658 -2.04956e-14)
(-5.37255 37.813 1.67253e-16)
(-10.4664 44.5636 2.75543e-17)
(-8.75219 51.2744 -9.48607e-16)
(-7.62957 56.8257 -4.2753e-16)
(-6.87724 61.6917 -1.5764e-16)
(-6.28021 66.0325 -1.87579e-15)
(-5.89564 69.9578 3.61218e-15)
(-5.72932 73.6297 -6.31062e-15)
(-5.71524 77.1708 -6.93616e-15)
(-5.88045 80.6274 4.74704e-15)
(-6.1864 83.9205 -2.89055e-15)
(-6.84781 86.8934 -2.96217e-15)
(-7.75289 89.368 2.96038e-15)
(-8.63843 91.3799 -6.81488e-15)
(-9.34055 93.079 0)
(-9.62228 94.4835 2.26205e-14)
(-11.3092 95.4809 -3.37506e-14)
(-11.0153 92.0139 1.25984e-14)
(-11.6817 88.8507 1.13606e-14)
(-12.3468 86.2045 3.63024e-16)
(-6.77646 37.2496 2.35631e-17)
(-12.3099 43.1867 -3.49081e-16)
(-10.8003 49.3252 1.39164e-15)
(-9.68247 54.8014 -1.76609e-15)
(-8.93265 59.8227 -2.9226e-15)
(-8.45229 64.3608 0)
(-8.26028 68.4396 -3.87704e-15)
(-8.29994 72.1935 0)
(-8.49298 75.7674 4.60519e-15)
(-8.80314 79.2756 0)
(-9.24426 82.7054 0)
(-9.9399 85.9009 -4.44789e-16)
(-10.8293 88.6603 1.12366e-14)
(-11.6564 90.9361 6.5163e-15)
(-12.3715 92.7807 6.29596e-16)
(-12.6669 94.1036 -9.02197e-15)
(-13.9439 95.3499 0)
(-13.6468 92.6394 0)
(-14.0312 89.522 1.00048e-14)
(-14.692 86.9167 1.84714e-14)
(-8.16148 36.7312 -1.33043e-16)
(-13.9773 41.9353 -5.29214e-16)
(-12.8282 47.3312 8.70354e-16)
(-11.8961 52.5742 -8.27755e-16)
(-11.1857 57.7102 -1.68452e-15)
(-10.8312 62.472 1.44788e-15)
(-10.8201 66.7537 2.0219e-15)
(-11.0496 70.6405 -1.84252e-15)
(-11.4525 74.2627 0)
(-11.9583 77.7776 -4.75826e-15)
(-12.5514 81.2434 4.39985e-15)
(-13.3115 84.5722 -5.01957e-15)
(-14.1619 87.6321 0)
(-14.8966 90.0797 1.15421e-16)
(-15.5479 92.1263 5.46452e-16)
(-15.8135 93.4049 8.816e-15)
(-16.6799 94.7902 -2.26381e-14)
(-16.6844 92.9465 1.03608e-14)
(-16.7867 89.9795 -9.51307e-15)
(-17.4504 87.5238 -8.69285e-15)
(-9.54374 36.2433 0)
(-15.558 40.7425 -3.84726e-17)
(-14.6531 45.4159 -1.69587e-15)
(-14.1542 50.2274 1.60022e-16)
(-13.6383 55.3684 0)
(-13.4665 60.3084 0)
(-13.6352 64.8038 -5.48603e-15)
(-14.0391 68.8714 1.79626e-15)
(-14.6385 72.5913 -8.3611e-15)
(-15.3524 76.1084 -5.07328e-16)
(-16.1229 79.5437 8.76035e-15)
(-16.9688 82.9084 -4.25489e-15)
(-17.7933 86.1224 4.83989e-16)
(-18.4505 88.6856 5.76248e-16)
(-19.0498 91.0429 -5.72524e-15)
(-19.3659 92.3762 0)
(-20.0462 93.9045 -1.02852e-14)
(-20.2136 92.7557 3.98634e-14)
(-20.1245 90.1026 -1.65805e-14)
(-20.7933 87.9188 7.92219e-15)
(-10.9488 35.7911 5.61809e-17)
(-17.1483 39.6049 6.89863e-16)
(-16.3574 43.5937 1.5646e-15)
(-16.3373 47.9076 1.03095e-15)
(-16.2339 52.9566 1.37667e-15)
(-16.3453 57.8982 0)
(-16.7381 62.526 1.84368e-15)
(-17.3295 66.7808 1.77665e-15)
(-18.1125 70.6489 -3.89278e-15)
(-19.0308 74.2017 8.23976e-15)
(-19.9942 77.5728 4.38358e-15)
(-20.9184 80.9115 -4.42489e-15)
(-21.7679 84.2084 8.68255e-15)
(-22.3761 86.9751 4.51772e-15)
(-22.929 89.3757 5.95072e-15)
(-23.2973 90.8175 8.8873e-16)
(-23.8831 92.4711 -8.19778e-15)
(-24.2704 91.9455 -4.9219e-16)
(-24.1146 89.7793 -1.69431e-14)
(-24.822 88.0174 -9.05986e-15)
(-12.4135 35.3923 0)
(-18.7731 38.5109 -5.89728e-16)
(-18.1992 41.8757 5.54727e-16)
(-18.6883 45.7332 -1.27522e-15)
(-19.0446 50.5042 3.16275e-15)
(-19.4602 55.3629 -1.69046e-15)
(-20.1577 59.9346 0)
(-20.9945 64.2865 0)
(-21.9564 68.3157 4.21982e-15)
(-23.0722 71.9524 0)
(-24.2318 75.2669 -1.93889e-17)
(-25.2362 78.5049 -8.04346e-15)
(-26.0863 81.7794 3.90649e-15)
(-26.6753 84.7567 -4.68745e-15)
(-27.1511 87.206 0)
(-27.5569 88.8449 6.20475e-15)
(-28.1045 90.6974 0)
(-28.8124 90.6493 -8.73411e-15)
(-28.7184 88.9853 -1.60904e-14)
(-29.6882 87.7455 1.43171e-14)
(-13.9349 35.0547 1.04199e-17)
(-20.4951 37.4822 -9.13435e-16)
(-20.2965 40.291 0)
(-21.3494 43.683 -2.15357e-15)
(-22.2013 48.0107 -1.30923e-15)
(-23.0031 52.6243 -1.80223e-15)
(-23.9422 57.138 0)
(-25.0963 61.3804 0)
(-26.2575 65.505 4.06167e-15)
(-27.5786 69.2562 0)
(-28.9459 72.5303 4.31118e-15)
(-30.0491 75.6179 -3.81477e-15)
(-30.897 78.8212 -3.81349e-15)
(-31.4884 81.7744 6.2215e-16)
(-31.9014 84.3674 -1.55775e-14)
(-32.358 86.2614 5.0516e-15)
(-33.0565 88.3154 -7.38877e-15)
(-33.919 88.6676 0)
(-34.0588 87.6384 -7.29216e-15)
(-35.7645 87.096 2.32988e-14)
(-15.5008 34.8102 -1.78889e-16)
(-22.3854 36.5806 1.78909e-15)
(-22.7464 38.8653 -5.73798e-16)
(-24.3181 41.6579 2.08017e-15)
(-25.645 45.502 3.04875e-15)
(-26.8532 49.7641 -4.54635e-15)
(-28.1089 54.2823 1.02401e-14)
(-29.5454 58.3067 -1.0135e-14)
(-31.0007 62.3489 -4.49197e-16)
(-32.6081 66.1484 -4.86131e-15)
(-34.2445 69.3163 1.31625e-14)
(-35.4799 72.1279 -8.48161e-15)
(-36.3024 75.1144 4.43813e-15)
(-36.8488 78.0695 0)
(-37.3151 80.7204 0)
(-37.8742 82.8151 0)
(-38.8441 85.0428 9.18254e-15)
(-39.9694 85.8629 6.60104e-16)
(-40.967 85.6446 -7.20843e-15)
(-43.1157 85.827 -8.36775e-15)
(-17.1043 34.7243 -2.72358e-17)
(-24.4428 35.8721 -2.25849e-15)
(-25.4114 37.7181 -9.10164e-16)
(-27.5904 39.8569 8.74655e-16)
(-29.592 42.8716 1.51194e-15)
(-31.1336 46.6177 -1.80431e-15)
(-32.2476 50.9754 0)
(-33.3113 55.3089 0)
(-35.6011 59.2836 0)
(-37.8307 63.0048 0)
(-40.033 65.9407 -1.14987e-14)
(-41.5919 68.2417 1.65265e-14)
(-42.4581 70.7251 -4.83464e-15)
(-42.958 73.4713 0)
(-43.5183 76.1344 0)
(-44.3719 78.4379 0)
(-45.8549 80.6914 1.66598e-14)
(-47.7407 82.1353 7.7296e-16)
(-49.6092 82.8649 1.3235e-15)
(-52.2323 83.7589 0)
(-18.767 34.6956 0)
(-26.5794 35.3652 4.96851e-15)
(-28.0837 36.9212 -1.02518e-15)
(-30.8097 38.5749 5.59049e-15)
(-33.6023 40.8932 -5.76228e-15)
(-36.2356 43.7469 0)
(-38.2462 47.1246 0)
(-39.0449 50.7493 1.34255e-14)
(-40.5115 54.944 0)
(-42.6389 59.1085 0)
(-44.4181 62.512 -1.70286e-14)
(-46.4605 64.6503 2.57894e-14)
(-48.6079 66.3752 -7.1905e-15)
(-49.8119 68.7193 -3.07604e-14)
(-50.8407 71.363 -2.24538e-15)
(-52.4158 73.8591 -2.55885e-15)
(-54.9913 76.2148 4.00876e-14)
(-58.0201 78.4173 2.27716e-14)
(-60.407 79.6089 0)
(-62.4608 79.6456 -3.6202e-14)
(-20.5031 34.7018 0)
(-28.6618 34.9999 -2.80647e-15)
(-30.494 36.452 4.20382e-15)
(-33.5534 37.8906 -3.34743e-15)
(-36.8798 39.7715 4.2861e-15)
(-40.279 42.2208 0)
(-43.5902 44.9998 0)
(-46.3549 47.9416 1.41329e-15)
(-48.4071 50.9414 -6.04959e-15)
(-50.6183 54.4295 6.15121e-15)
(-52.8297 57.9404 1.37734e-14)
(-53.8778 60.9229 -1.6291e-14)
(-52.9918 62.5018 -4.5091e-14)
(-52.7363 63.4495 4.93292e-14)
(-55.1869 65.6778 2.6691e-14)
(-58.6552 68.7728 -3.29929e-14)
(-61.8899 71.4045 -1.90005e-15)
(-63.768 74.4277 -3.93293e-14)
(-63.0428 76.9074 -3.79658e-14)
(-61.8991 77.0101 6.33978e-14)
(-22.3388 34.6563 0)
(-30.5287 34.6998 3.53314e-15)
(-32.4071 36.2245 -4.63276e-15)
(-35.4366 37.6802 4.56359e-15)
(-38.749 39.4429 1.60876e-15)
(-42.266 41.6875 0)
(-45.9235 44.5076 0)
(-49.4725 47.8915 -3.78122e-15)
(-52.6008 51.4401 -4.40587e-16)
(-55.3716 55.0919 5.87603e-15)
(-57.0037 58.4809 0)
(-57.223 61.2193 0)
(-57.591 64.05 1.80751e-14)
(-59.0979 67.2493 4.44107e-17)
(-60.6137 70.1555 2.33606e-14)
(-62.2208 73.361 -2.19691e-14)
(-64.1414 76.6096 0)
(-65.0088 78.4258 0)
(-63.9164 77.4366 0)
(-62.1592 74.5493 0)
(-24.2947 34.357 3.47116e-16)
(-31.87 34.2907 -7.99416e-15)
(-33.6029 36.0019 7.57607e-15)
(-36.3431 37.5933 -9.09644e-15)
(-39.084 39.3361 -5.26158e-15)
(-41.6475 41.3501 1.60326e-14)
(-43.945 43.672 0)
(-45.8857 46.2962 -1.3068e-14)
(-47.4965 49.1934 -8.11525e-15)
(-48.7463 52.3009 8.28056e-15)
(-49.895 55.6598 2.91134e-14)
(-51.0882 58.9248 -2.96793e-14)
(-53.2201 61.8919 4.30904e-14)
(-55.8196 64.7692 -1.93358e-14)
(-57.8652 67.4845 2.26552e-14)
(-59.2919 70.2314 -4.76244e-14)
(-60.2451 73.3998 2.77686e-14)
(-60.4076 75.9536 -2.9674e-14)
(-60.5022 76.2607 0)
(-62.1624 74.9714 0)
(-26.9716 33.6781 0)
(-32.5458 34.4049 1.959e-15)
(-33.7477 36.749 -3.89637e-15)
(-35.8815 38.8928 0)
(-38.0569 40.9229 0)
(-40.2234 43.0485 -9.85e-15)
(-42.4376 45.4708 -6.5525e-15)
(-44.6562 48.3275 6.47345e-15)
(-46.8899 51.7167 0)
(-49.1267 55.534 0)
(-51.4041 59.616 -2.14752e-14)
(-53.3855 63.6071 0)
(-55.0317 67.2458 -3.06295e-14)
(-56.1203 70.2352 -3.80507e-14)
(-56.8934 72.5676 7.50724e-14)
(-57.9262 74.5728 3.87039e-14)
(-59.449 76.8048 0)
(-60.6256 78.5262 3.74387e-14)
(-61.7808 79.1786 3.83885e-14)
(-64.6945 78.6003 -4.26924e-14)
(-0.630027 81.7637 -1.23572e-15)
(-0.650254 81.6675 -1.91547e-17)
(-0.688363 82.2819 1.04616e-15)
(-0.98776 83.0303 -9.97886e-16)
(-1.30241 83.6561 8.84682e-16)
(-1.45667 84.5862 -8.48374e-16)
(-1.56549 85.956 7.59977e-16)
(-1.65067 87.6515 7.36181e-16)
(-1.7129 89.654 -6.6653e-16)
(-1.75866 92.0106 -1.28903e-15)
(-1.79386 94.7559 -2.485e-15)
(-1.84983 97.9018 1.15798e-15)
(-1.89137 101.462 0)
(-1.97382 105.453 0)
(-2.05926 109.959 -2.18653e-15)
(-1.99245 114.632 0)
(-2.69465 120.607 0)
(-0.604208 123.911 1.01318e-15)
(-7.97739 135.89 -9.95932e-16)
(12.5734 125.846 3.40257e-15)
(-2.72689 81.9756 -2.60862e-15)
(-2.86875 81.7976 -1.25914e-15)
(-3.02406 82.475 -4.51953e-17)
(-3.45875 83.2688 -1.99502e-15)
(-3.87643 83.8245 -3.71902e-15)
(-4.12849 84.671 3.312e-15)
(-4.34994 85.9734 5.09089e-17)
(-4.56273 87.6181 -2.85813e-15)
(-4.75877 89.5828 -2.7359e-15)
(-4.94329 91.9129 -1.34515e-15)
(-5.12263 94.6412 3.64901e-15)
(-5.33131 97.7718 2.32419e-15)
(-5.52884 101.327 6.84566e-15)
(-5.79018 105.301 0)
(-6.04923 109.813 6.56679e-15)
(-6.1955 114.464 -4.37621e-15)
(-7.10834 120.412 8.30672e-15)
(-5.20686 123.785 4.05087e-15)
(-12.9016 135.33 -3.96716e-15)
(7.50794 126.459 -4.12144e-19)
(-4.81625 82.2682 -5.31365e-15)
(-5.05021 81.9935 4.68568e-15)
(-5.33118 82.6998 1.11386e-14)
(-5.91121 83.4985 -1.95358e-15)
(-6.44749 83.9734 0)
(-6.80339 84.7356 -5.49548e-17)
(-7.14289 85.9697 3.09219e-15)
(-7.47982 87.5561 0)
(-7.80547 89.4709 2.74584e-15)
(-8.12724 91.7614 -5.29511e-15)
(-8.45241 94.4608 4.85056e-15)
(-8.81502 97.5633 -4.75098e-15)
(-9.17018 101.102 1.04773e-16)
(-9.60989 105.042 -4.38057e-15)
(-10.043 109.548 -4.38086e-15)
(-10.4024 114.158 0)
(-11.5191 120.078 -4.20585e-15)
(-9.80142 123.498 0)
(-17.8373 134.648 -8.1118e-15)
(2.54013 126.821 0)
(-6.85554 82.6374 1.05804e-16)
(-7.20519 82.2845 -4.66276e-15)
(-7.64828 83.0094 -8.83312e-15)
(-8.39525 83.7774 0)
(-9.0534 84.1399 -7.599e-15)
(-9.51258 84.797 3.32093e-15)
(-9.96527 85.9441 3.17445e-15)
(-10.4217 87.4513 5.90806e-15)
(-10.8721 89.2956 -5.52813e-15)
(-11.3249 91.5279 5.31375e-15)
(-11.7895 94.1833 1.98192e-16)
(-12.3 97.2447 -4.66351e-15)
(-12.8112 100.758 0)
(-13.4255 104.652 8.96975e-15)
(-14.0323 109.15 -8.98431e-15)
(-14.5998 113.706 -2.1602e-16)
(-15.9116 119.599 -8.65752e-15)
(-14.3791 123.058 7.87773e-15)
(-22.6839 133.806 8.64354e-15)
(-2.42486 126.975 2.95863e-16)
(-8.85651 83.1086 2.02303e-14)
(-9.3578 82.6998 -1.38501e-14)
(-10.0055 83.426 4.17005e-15)
(-10.9373 84.1142 0)
(-11.714 84.3266 0)
(-12.2742 84.8547 -6.95005e-15)
(-12.8357 85.8917 1.25432e-14)
(-13.4037 87.299 -1.18719e-14)
(-13.9681 89.0564 5.20416e-15)
(-14.5409 91.2176 1.02107e-14)
(-15.1362 93.8168 1.01115e-14)
(-15.7861 96.8246 -9.51777e-15)
(-16.4506 100.303 9.01745e-15)
(-17.2328 104.138 7.94382e-18)
(-18.0131 108.627 8.98879e-15)
(-18.7824 113.113 2.08339e-16)
(-20.2926 118.98 -8.66496e-15)
(-18.9417 122.455 1.56309e-14)
(-27.5895 132.832 -1.61952e-14)
(-7.29442 126.918 -1.35134e-14)
(-10.8909 83.7049 4.96868e-15)
(-11.5744 83.2713 -4.10203e-15)
(-12.4657 83.9779 1.86747e-16)
(-13.5908 84.5217 0)
(-14.4712 84.5313 0)
(-15.1187 84.9011 -1.38092e-14)
(-15.7754 85.8057 1.23696e-14)
(-16.44 87.0953 2.36729e-14)
(-17.1038 88.7517 -1.62936e-14)
(-17.7845 90.8288 -1.05933e-14)
(-18.501 93.3593 1.9808e-14)
(-19.2808 96.3008 -3.80441e-14)
(-20.0934 99.7342 8.815e-15)
(-21.0324 103.497 8.76831e-15)
(-21.985 107.975 8.99504e-15)
(-22.9445 112.375 -8.3299e-15)
(-24.6546 118.217 0)
(-23.4831 121.698 1.6251e-14)
(-32.5085 131.706 1.73216e-14)
(-12.0177 126.66 1.41461e-14)
(-13.0607 84.4159 -9.03244e-15)
(-13.9604 84.0007 0)
(-15.1258 84.6567 1.70081e-14)
(-16.4288 84.9703 -1.53376e-14)
(-17.3726 84.722 0)
(-18.0792 84.9111 0)
(-18.8073 85.6659 -6.27013e-15)
(-19.5472 86.823 -2.33771e-14)
(-20.292 88.3661 1.09664e-14)
(-21.066 90.3489 0)
(-21.8923 92.8017 0)
(-22.7895 95.6685 9.50027e-15)
(-23.7431 99.0482 -9.20901e-15)
(-24.823 102.729 -8.95744e-15)
(-25.9465 107.193 -1.80041e-14)
(-27.0824 111.482 1.66598e-14)
(-28.9938 117.308 4.7746e-16)
(-28.0027 120.774 4.63856e-16)
(-37.3607 130.391 -1.62554e-14)
(-16.6839 126.241 -1.36085e-14)
(-15.5068 85.1936 -8.25915e-15)
(-16.6525 84.853 -1.71115e-14)
(-18.103 85.4181 -7.52826e-16)
(-19.5287 85.4036 2.28559e-14)
(-20.4623 84.8514 0)
(-21.1829 84.8495 1.33726e-14)
(-21.9472 85.4429 -1.27113e-14)
(-22.7332 86.4563 1.12365e-14)
(-23.5349 87.8777 1.07301e-14)
(-24.3832 89.7597 -1.05645e-14)
(-25.3045 92.129 9.68629e-15)
(-26.3056 94.9157 0)
(-27.3935 98.2357 -1.88381e-14)
(-28.5984 101.827 3.58595e-14)
(-29.8951 106.273 -3.47653e-14)
(-31.1921 110.407 0)
(-33.3093 116.287 -1.19636e-17)
(-32.4915 119.677 -1.59101e-14)
(-42.1428 128.892 3.32598e-14)
(-21.35 125.665 -4.04458e-14)
(-18.3957 85.974 -4.63581e-16)
(-19.8202 85.7701 2.44705e-14)
(-21.5277 86.1806 -1.57286e-14)
(-22.9583 85.733 -7.71728e-15)
(-23.7742 84.8563 1.42524e-14)
(-24.4523 84.672 -2.69863e-14)
(-25.2087 85.1014 1.22142e-14)
(-26.0048 85.9664 0)
(-26.8345 87.2621 2.02082e-16)
(-27.7347 89.0395 -1.01512e-14)
(-28.7342 91.3215 -2.0171e-14)
(-29.8243 94.0245 1.86032e-14)
(-31.0395 97.2801 -1.88492e-14)
(-32.3542 100.778 1.79382e-14)
(-33.8346 105.199 1.84542e-14)
(-35.2634 109.228 -1.66578e-14)
(-37.5982 115.119 5.13557e-14)
(-36.936 118.408 -1.54674e-14)
(-46.8478 127.216 -3.25853e-14)
(-26.0113 124.929 -1.48311e-17)
(-21.9028 86.6668 -8.03787e-15)
(-23.6392 86.6553 3.24661e-14)
(-25.5044 86.7965 8.81758e-16)
(-26.7451 85.8204 -3.05841e-14)
(-27.3184 84.6493 -1.49512e-14)
(-27.8987 84.3192 2.63144e-14)
(-28.5994 84.5982 0)
(-29.3682 85.3231 1.18548e-14)
(-30.1956 86.4998 -2.16315e-14)
(-31.1241 88.1767 0)
(-32.1832 90.3723 -1.97521e-14)
(-33.3456 92.9911 1.8999e-14)
(-34.6793 96.1782 0)
(-36.0876 99.5819 3.58648e-14)
(-37.7591 103.972 -1.76311e-14)
(-39.2953 107.843 0)
(-41.8589 113.802 -5.14663e-14)
(-41.3311 116.964 4.80662e-14)
(-51.4666 125.375 3.33665e-14)
(-30.6669 124.03 5.52874e-14)
(-26.2922 87.1795 1.49411e-14)
(-28.2455 87.3381 8.43863e-15)
(-30.0548 87.0237 -1.5708e-14)
(-30.8341 85.4816 -1.57435e-14)
(-31.0544 84.1182 2.85267e-14)
(-31.4946 83.7069 -2.64214e-14)
(-32.0922 83.8676 1.23955e-14)
(-32.7995 84.4784 -2.37423e-14)
(-33.5985 85.5572 3.23919e-14)
(-34.5358 87.149 2.11469e-14)
(-35.6394 89.2679 -1.93428e-14)
(-36.8603 91.809 4.08611e-16)
(-38.3049 94.9272 -1.80585e-14)
(-39.7892 98.2405 -5.42567e-14)
(-41.6586 102.593 3.53204e-14)
(-43.2655 106.318 8.63694e-16)
(-46.0936 112.305 3.45043e-14)
(-45.6695 115.338 0)
(-55.992 123.374 -3.26348e-14)
(-35.3134 122.963 2.78e-14)
(-31.514 87.3903 0)
(-33.7112 87.5663 0)
(-35.0315 86.5505 -1.71621e-14)
(-35.074 84.5342 -8.77391e-16)
(-34.9012 83.1585 4.29684e-14)
(-35.1839 82.7521 -1.30663e-14)
(-35.6379 82.8472 1.29544e-14)
(-36.2568 83.3865 -2.28073e-14)
(-37.0075 84.4006 0)
(-37.9404 85.9307 2.07217e-14)
(-39.0791 87.9888 1.98207e-14)
(-40.3498 90.4641 0)
(-41.9016 93.5165 -1.89135e-14)
(-43.4483 96.7489 3.55071e-14)
(-45.5258 101.052 3.58043e-14)
(-47.167 104.637 -1.57874e-14)
(-50.2948 110.65 -6.73952e-14)
(-49.9425 113.521 0)
(-60.41 121.221 0)
(-39.9958 121.708 5.27252e-18)
(-37.9165 87.1414 -1.57196e-14)
(-39.9317 86.9891 0)
(-40.093 85.0881 7.2058e-16)
(-39.2696 82.9191 1.66368e-14)
(-38.7629 81.7589 -2.87165e-14)
(-38.8943 81.4449 0)
(-39.1823 81.5393 1.24913e-14)
(-39.7043 82.0557 0)
(-40.3972 83.0387 0)
(-41.3184 84.528 -2.08102e-14)
(-42.4858 86.5381 0)
(-43.8001 88.9575 1.94986e-14)
(-45.456 91.945 -5.5567e-14)
(-47.0551 95.1076 3.59724e-14)
(-49.3512 99.3434 -1.72873e-14)
(-50.9925 102.808 6.83476e-14)
(-54.4646 108.822 0)
(-54.1401 111.51 -3.17951e-14)
(-64.709 118.972 0)
(-44.756 120.228 5.60512e-14)
(-45.4525 86.0792 0)
(-46.3314 85.1114 9.7415e-16)
(-44.6626 82.5136 1.65649e-15)
(-43.2345 80.7098 -4.86199e-14)
(-42.5227 79.9437 1.43074e-14)
(-42.5324 79.7815 -1.36044e-14)
(-42.6582 79.9405 -1.2731e-14)
(-43.0944 80.4819 2.4174e-14)
(-43.733 81.4688 -2.16122e-14)
(-44.6446 82.9403 -4.21417e-14)
(-45.8411 84.9169 1.94476e-14)
(-47.1975 87.2913 1.91062e-14)
(-48.956 90.2147 1.8558e-14)
(-50.6014 93.3202 1.80069e-14)
(-53.1257 97.4659 0)
(-54.7359 100.84 8.8153e-16)
(-58.6045 106.815 -6.77493e-14)
(-58.2383 109.321 -7.49023e-16)
(-68.9616 116.587 3.19889e-14)
(-49.4344 118.557 -5.62742e-14)
(-53.5204 83.6526 2.46515e-14)
(-51.6123 81.4133 2.37947e-14)
(-48.2706 79.0263 1.93881e-14)
(-46.8695 78.05 -1.76968e-14)
(-46.0479 77.7477 1.4173e-14)
(-45.9831 77.776 2.85621e-14)
(-45.9801 78.0645 -1.21981e-14)
(-46.3639 78.6739 -4.82376e-14)
(-46.9691 79.6962 -1.0251e-15)
(-47.8846 81.17 -9.07887e-16)
(-49.1196 83.1262 1.94907e-14)
(-50.5229 85.4668 -3.83089e-14)
(-52.3856 88.3271 0)
(-54.0771 91.3891 1.88961e-14)
(-56.835 95.4167 -7.11268e-14)
(-58.3899 98.7439 3.33368e-14)
(-62.7065 104.62 3.44097e-14)
(-62.2094 106.98 0)
(-73.1374 114.033 -3.26993e-14)
(-54.188 116.59 0)
(-58.8042 78.3506 1.49298e-15)
(-54.4158 76.2618 1.08033e-15)
(-51.0004 75.2787 1.96824e-14)
(-50.1007 75.1605 -5.21334e-14)
(-49.2013 75.3004 4.5035e-14)
(-49.1555 75.5348 1.41058e-14)
(-49.0951 75.9899 -1.29869e-14)
(-49.4772 76.6821 2.34798e-14)
(-50.0806 77.754 2.18627e-14)
(-51.0192 79.2394 2.63137e-17)
(-52.3048 81.1808 0)
(-53.7625 83.4948 -4.30523e-16)
(-55.7321 86.29 1.81969e-14)
(-57.4749 89.32 3.69951e-14)
(-60.4647 93.1976 1.75857e-15)
(-61.9505 96.5342 -6.76038e-14)
(-66.76 102.219 3.54867e-14)
(-66.0383 104.495 -6.23467e-14)
(-77.2543 111.39 3.25104e-14)
(-59.1466 114.139 0)
(-58.493 74.6124 0)
(-55.3512 72.3802 -2.11022e-14)
(-52.865 72.2037 -1.86206e-14)
(-52.7797 72.3296 0)
(-51.9228 72.7981 4.73734e-14)
(-52.0158 73.1872 -4.17032e-14)
(-51.9859 73.7973 -5.28135e-14)
(-52.4184 74.5583 -6.47308e-16)
(-53.0537 75.6778 0)
(-54.0367 77.1744 1.52247e-17)
(-55.3854 79.0998 2.00447e-14)
(-56.906 81.3897 0)
(-58.9857 84.1144 3.8201e-14)
(-60.7905 87.1207 -7.23933e-14)
(-64.002 90.8167 3.47827e-14)
(-65.4231 94.2245 -1.16689e-17)
(-70.7557 99.5857 -3.45919e-14)
(-69.704 101.891 3.15744e-14)
(-81.4237 108.665 -3.40552e-14)
(-63.8508 111.401 5.35688e-14)
(-59.5351 71.8134 0)
(-56.8187 69.4462 0)
(-54.5904 69.7866 -3.64917e-14)
(-54.9856 69.788 6.57491e-14)
(-54.2955 70.4646 -5.98294e-14)
(-54.5977 70.876 1.41123e-14)
(-54.6722 71.5715 5.22266e-14)
(-55.1916 72.3526 2.48242e-14)
(-55.8885 73.4978 -2.2018e-14)
(-56.9339 74.9952 2.11422e-14)
(-58.3577 76.8989 -4.06606e-14)
(-59.9492 79.1641 1.88378e-14)
(-62.1402 81.811 3.82739e-14)
(-64.0213 84.8002 3.80045e-14)
(-67.4379 88.2877 -3.48207e-14)
(-68.8232 91.8256 3.34554e-14)
(-74.6877 96.7033 6.92626e-14)
(-73.2067 99.2338 -3.06635e-14)
(-85.6303 105.833 0)
(-68.2066 108.442 0)
(-60.1671 71.5765 0)
(-58.0034 67.0257 1.99967e-14)
(-55.9321 67.9684 -1.68691e-14)
(-56.8478 67.5296 -3.3575e-14)
(-56.4217 68.3392 1.3155e-14)
(-56.9299 68.6754 2.69955e-14)
(-57.1468 69.395 1.24221e-17)
(-57.7755 70.1388 0)
(-58.5676 71.2718 0)
(-59.6963 72.7433 4.26531e-14)
(-61.2134 74.6098 9.20091e-16)
(-62.8894 76.8461 -3.80963e-14)
(-65.1932 79.4039 0)
(-67.1655 82.3848 -7.25135e-14)
(-70.7662 85.6374 3.65521e-14)
(-72.1744 89.3688 -1.0225e-13)
(-78.5439 93.5867 3.45201e-14)
(-76.6041 96.6952 3.24165e-14)
(-90.0154 102.797 -6.63929e-14)
(-72.3549 104.954 5.3184e-14)
(-59.3814 73.0356 -1.05363e-15)
(-58.3622 64.0317 -2.01368e-14)
(-56.5123 66.4871 -1.77128e-14)
(-57.9614 65.5921 1.63098e-14)
(-57.8822 66.5364 3.03448e-14)
(-58.7426 66.8225 -2.6397e-14)
(-59.1995 67.4994 -2.50797e-14)
(-60.045 68.163 2.38443e-14)
(-60.9872 69.1944 -2.1216e-14)
(-62.2416 70.5762 -2.09651e-14)
(-63.8802 72.3466 3.90781e-14)
(-65.6614 74.5177 4.30804e-16)
(-68.0825 76.9455 -3.73296e-14)
(-70.1922 79.9453 3.46483e-14)
(-73.9281 82.899 0)
(-75.4877 86.9435 3.37789e-14)
(-82.1829 90.2746 1.0406e-15)
(-79.9754 94.5223 -3.01327e-14)
(-94.6068 99.1291 0)
(-76.3138 100.677 -5.20528e-14)
(-58.6239 75.1702 2.16754e-14)
(-59.9292 66.3401 -1.14784e-16)
(-56.9405 67.6143 1.48904e-14)
(-58.3096 66.455 -2.7524e-14)
(-58.1794 66.9345 -4.03731e-16)
(-59.2 66.8608 1.19947e-14)
(-59.8148 67.2184 3.44003e-16)
(-60.8327 67.6204 1.53385e-17)
(-61.9359 68.4286 -1.88154e-14)
(-63.3384 69.6407 -1.77601e-14)
(-65.0846 71.2455 5.21128e-16)
(-66.9893 73.3304 -1.63461e-14)
(-69.4885 75.6134 0)
(-71.7366 78.617 6.17921e-14)
(-75.482 81.3179 0)
(-77.2578 85.5926 -2.96673e-14)
(-83.9127 88.2755 2.92069e-14)
(-81.8955 93.4929 2.69844e-14)
(-96.6071 96.5645 -4.2919e-16)
(-78.829 99.3282 3.09964e-16)
(-58.6216 74.5521 0)
(-60.2052 66.1223 1.3575e-14)
(-57.1185 67.3257 0)
(-58.5419 66.2831 1.14103e-14)
(-58.4113 66.7406 0)
(-59.4578 66.7039 -1.95184e-14)
(-60.0739 67.0499 2.89297e-16)
(-61.0978 67.4501 -2.55051e-16)
(-62.2036 68.2375 1.56336e-14)
(-63.6156 69.432 1.47697e-14)
(-65.3698 71.0117 -1.43622e-14)
(-67.2944 73.0836 2.76694e-14)
(-69.8015 75.3367 0)
(-72.0878 78.3469 -2.6757e-14)
(-75.8482 80.9652 4.23898e-16)
(-77.6812 85.3142 2.52145e-17)
(-84.3115 87.8217 -3.85391e-16)
(-82.3728 93.2919 -2.35977e-14)
(-96.9519 95.9117 -2.13212e-14)
(-79.368 99.0273 -1.70919e-14)
(-58.7727 73.7207 2.58796e-16)
(-60.52 65.9872 -2.05255e-16)
(-57.2845 67.0972 0)
(-58.742 66.1785 1.18791e-14)
(-58.6141 66.5892 1.02e-14)
(-59.682 66.5762 1.92512e-14)
(-60.3017 66.8995 5.64742e-16)
(-61.3333 67.2934 1.28007e-17)
(-62.4453 68.0548 -2.38388e-16)
(-63.8705 69.2284 -2.95377e-14)
(-65.6351 70.7797 5.67143e-18)
(-67.5822 72.8344 -2.76752e-14)
(-70.0966 75.0551 2.06067e-16)
(-72.4242 78.0707 -4.27851e-16)
(-76.1639 80.6257 -2.5995e-14)
(-78.094 85.0262 2.58975e-14)
(-84.6283 87.3941 4.07212e-16)
(-82.8607 93.0771 -3.52019e-16)
(-97.244 95.2633 2.15923e-14)
(-79.9305 98.7685 3.42653e-14)
(-58.982 72.9 0)
(-60.7995 65.8802 0)
(-57.4489 66.8918 1.2326e-14)
(-58.9294 66.0923 -1.15371e-14)
(-58.8173 66.4489 -1.01986e-14)
(-59.9024 66.4549 -2.90084e-16)
(-60.5259 66.7547 -1.78059e-14)
(-61.5627 67.1424 -5.23457e-16)
(-62.6815 67.8782 2.3838e-16)
(-64.1208 69.0301 1.47662e-14)
(-65.8969 70.5524 2.8258e-14)
(-67.868 72.5883 4.69001e-18)
(-70.3893 74.777 1.34908e-14)
(-72.7595 77.7945 0)
(-76.4741 80.293 2.59737e-14)
(-78.5062 84.7382 3.9386e-16)
(-84.9357 86.9798 2.51963e-14)
(-83.3526 92.8533 2.33509e-14)
(-97.5277 94.6365 3.52719e-16)
(-80.4708 98.5129 -1.71664e-14)
(-59.1851 72.0978 1.54196e-14)
(-61.0329 65.758 -1.41033e-17)
(-57.6207 66.6775 2.41309e-16)
(-59.1224 65.9947 -3.72027e-16)
(-59.0357 66.2975 -1.02646e-14)
(-60.1334 66.3225 -9.82076e-15)
(-60.7587 66.6024 1.78101e-14)
(-61.7965 66.987 2.55314e-16)
(-62.9209 67.7001 1.56194e-14)
(-64.3731 68.8311 0)
(-66.1598 70.3252 -1.41258e-14)
(-68.155 72.3413 2.74518e-14)
(-70.6819 74.4993 -1.34942e-14)
(-73.0952 77.5148 0)
(-76.7801 79.9692 -4.23481e-16)
(-78.9216 84.4435 -2.55423e-14)
(-85.2353 86.5702 -2.51783e-14)
(-83.849 92.6218 -2.30274e-14)
(-97.8067 94.0204 -3.27945e-16)
(-80.9857 98.2625 2.69871e-16)
(-59.3636 71.3248 -3.11107e-14)
(-61.2314 65.621 1.40233e-14)
(-57.8055 66.4522 4.29399e-17)
(-59.3283 65.8815 1.76558e-16)
(-59.2738 66.1313 2.12168e-14)
(-60.3782 66.1758 9.53273e-15)
(-61.0024 66.4396 -1.75494e-14)
(-62.0371 66.8249 -2.55243e-16)
(-63.1653 67.5188 -1.56052e-14)
(-64.6291 68.6304 -2.35544e-16)
(-66.4254 70.0973 2.1562e-16)
(-68.4443 72.0932 -1.37275e-14)
(-70.9755 74.222 -1.32723e-14)
(-73.435 77.231 -2.04144e-16)
(-77.0838 79.6469 2.63697e-14)
(-79.3389 84.1429 2.59612e-14)
(-85.5281 86.1655 2.55433e-14)
(-84.35 92.3831 -3.5421e-16)
(-98.0804 93.413 -2.16745e-14)
(-81.4767 98.023 2.57244e-16)
(-59.5112 70.5774 1.51803e-14)
(-61.4035 65.4681 -1.40309e-14)
(-58.0063 66.2131 -2.48234e-14)
(-59.5515 65.7488 0)
(-59.5339 65.9469 2.01473e-17)
(-60.6388 66.0115 -3.03596e-16)
(-61.2583 66.2639 1.83855e-14)
(-62.2856 66.6539 2.67694e-16)
(-63.4157 67.3324 -2.37842e-16)
(-64.8897 68.4265 0)
(-66.6943 69.8677 0)
(-68.7364 71.843 1.37218e-14)
(-71.2707 73.9444 1.34915e-14)
(-73.7758 76.9432 2.6793e-14)
(-77.3866 79.3249 -5.31541e-14)
(-79.7581 83.8365 3.94732e-16)
(-85.8144 85.7653 -2.51183e-14)
(-84.8557 92.1371 0)
(-98.3488 92.8107 2.35802e-17)
(-81.9441 97.7975 -1.7461e-14)
(-59.6279 69.8497 1.5233e-14)
(-61.5576 65.2998 1.46271e-14)
(-58.2273 65.9583 1.24197e-14)
(-59.7969 65.5932 1.17694e-14)
(-59.8184 65.7412 -2.16691e-14)
(-60.9169 65.8269 -9.25103e-15)
(-61.5276 66.0727 1.38702e-17)
(-62.5435 66.4717 -1.69975e-14)
(-63.6734 67.1391 0)
(-65.1559 68.218 1.47196e-14)
(-66.9674 69.6353 -2.2524e-16)
(-69.0318 71.59 -1.32912e-14)
(-71.5679 73.6658 -2.0594e-16)
(-74.1181 76.6516 -6.71944e-18)
(-77.6925 79.0019 2.63617e-14)
(-80.1789 83.5238 0)
(-86.0943 85.3696 0)
(-85.3659 91.8839 -2.36039e-14)
(-98.6116 92.2115 2.45419e-17)
(-82.3883 97.5885 -3.3851e-17)
(-59.7157 69.1353 -3.07245e-14)
(-61.702 65.1174 -1.43866e-14)
(-58.4726 65.6851 -1.25077e-14)
(-60.0689 65.4111 -1.17729e-14)
(-60.1296 65.511 2.13801e-14)
(-61.2138 65.6193 0)
(-61.8113 65.8634 0)
(-62.8117 66.2761 -1.68357e-17)
(-63.9392 66.9371 0)
(-65.4286 68.0033 -1.47027e-14)
(-67.2455 69.3989 -1.38591e-14)
(-69.3311 71.3335 -1.39218e-14)
(-71.8678 73.3858 -1.36959e-14)
(-74.4622 76.3559 -5.34132e-14)
(-78.0012 78.6783 0)
(-80.6009 83.2046 0)
(-86.368 84.9783 0)
(-85.8807 91.6236 2.36522e-14)
(-98.8673 91.6139 4.22152e-14)
(-82.8098 97.3983 1.76218e-14)
(-59.7776 68.4276 1.52335e-14)
(-61.8447 64.9193 0)
(-58.7472 65.3909 1.24872e-14)
(-60.3719 65.199 3.7812e-16)
(-60.4688 65.2536 -1.10276e-14)
(-61.5305 65.3863 0)
(-62.1101 65.6339 0)
(-63.0912 66.0647 1.67137e-14)
(-64.2143 66.7243 2.48387e-16)
(-65.7086 67.781 -4.58852e-16)
(-67.5294 69.1574 1.42885e-14)
(-69.6347 71.0724 1.37104e-14)
(-72.1707 73.1035 1.34812e-14)
(-74.8083 76.0557 2.63873e-14)
(-78.3104 78.3546 -2.11596e-17)
(-81.0238 82.8784 3.9554e-16)
(-86.6356 84.5915 0)
(-86.4004 91.3558 0)
(-99.1141 91.0168 -2.10442e-14)
(-83.2085 97.2293 0)
(-59.8176 67.7204 1.52632e-14)
(-61.993 64.7061 0)