/*--------------------------------*- C++ -*----------------------------------*\
  =========                 |
  \\      /  F ield         | OpenFOAM: The Open Source CFD Toolbox
   \\    /   O peration     | Website:  https://openfoam.org
    \\  /    A nd           | Version:  10
     \\/     M anipulation  |
\*---------------------------------------------------------------------------*/
FoamFile
{
    format      ascii;
    class       volVectorField;
    location    "300";
    object      Urel;
}
// * * * * * * * * * * * * * * * * * * * * * * * * * * * * * * * * * * * * * //

dimensions      [0 1 -1 0 0 0 0];

internalField   nonuniform List<vector> 
2000
(
(5.09546 -3.53825 2.32616e-17)
(2.31086 4.13709 1.32177e-17)
(3.83778 8.80714 -1.043e-17)
(5.53872 12.0324 0)
(7.00982 14.1904 0)
(8.36275 15.2234 3.6062e-16)
(9.4573 15.3468 -4.29733e-16)
(10.2451 14.7636 -5.05887e-16)
(10.4946 13.5737 5.99149e-16)
(10.3748 11.8399 7.24026e-16)
(9.75182 9.70903 9.01642e-16)
(8.64605 7.43685 0)
(7.09223 5.58329 1.55621e-15)
(5.818 4.42004 2.09891e-15)
(5.17352 2.97964 3.08702e-15)
(4.05527 -0.241758 3.5122e-15)
(3.39974 -5.31291 -2.33112e-15)
(2.52443 -10.6247 8.78331e-16)
(1.91336 -15.7743 7.434e-16)
(1.51465 -20.4671 2.76784e-15)
(4.88478 -2.48821 -1.21169e-16)
(0.34376 4.23406 -2.97307e-18)
(2.15919 8.004 -2.01552e-16)
(3.3847 10.9437 -7.36816e-16)
(5.04372 12.9446 1.34036e-16)
(6.85187 13.9865 -1.62232e-15)
(8.46377 14.3166 8.76542e-16)
(9.71207 14.088 1.5832e-15)
(10.4314 13.3166 5.96666e-16)
(10.5985 12.0399 7.0237e-16)
(10.2081 10.393 -1.6828e-15)
(9.34783 8.58859 -1.0233e-15)
(8.07302 6.94435 -1.3664e-15)
(7.10482 5.36422 -1.7425e-15)
(6.88672 3.64346 -7.58128e-15)
(5.90691 1.2663 -4.50648e-15)
(5.39062 -4.13409 7.79094e-15)
(4.4077 -9.624 -5.60091e-15)
(3.74526 -14.9602 0)
(3.34626 -19.8943 -4.19091e-15)
(4.83429 -2.94538 7.81659e-17)
(0.504652 3.68403 -1.25674e-16)
(2.41138 7.35695 1.90483e-16)
(3.48953 10.0492 6.94481e-16)
(4.99571 11.8859 1.33511e-15)
(6.71494 12.9593 3.61047e-16)
(8.30247 13.4607 9.45021e-16)
(9.59919 13.5271 -1.575e-15)
(10.4719 13.1209 -1.2264e-15)
(10.842 12.3642 -1.4067e-15)
(10.7331 11.1441 1.64788e-15)
(10.2071 9.70895 0)
(9.32536 8.2035 -4.70755e-15)
(8.7478 6.45796 0)
(8.52287 4.61162 0)
(7.4473 2.57899 0)
(6.8177 -2.61265 6.09351e-15)
(6.01156 -8.34423 -7.84641e-15)
(5.44509 -13.9136 0)
(5.13039 -19.1006 2.85651e-15)
(4.79866 -3.33808 7.58951e-18)
(0.891001 2.75131 2.76501e-16)
(2.9469 6.5378 0)
(4.17066 9.0316 1.33499e-15)
(5.53289 10.7165 4.96034e-16)
(7.07137 11.7839 2.06478e-16)
(8.51256 12.4036 -1.47363e-17)
(9.73544 12.6995 3.1517e-15)
(10.663 12.6777 0)
(11.1335 12.3 1.25203e-15)
(11.2514 11.5128 1.46455e-15)
(10.9443 10.4408 3.55227e-15)
(10.3153 9.08253 4.26265e-15)
(9.90369 7.39503 1.02656e-14)
(9.62645 5.6236 -6.30259e-15)
(8.96713 3.67519 -5.1418e-16)
(8.08283 -0.835217 2.18099e-14)
(7.64884 -6.91467 8.1306e-15)
(7.15584 -12.7014 6.6484e-15)
(6.94719 -18.1136 5.77938e-15)
(4.80118 -3.76838 0)
(1.00894 1.6281 -5.93474e-16)
(3.25328 5.54209 -4.66207e-16)
(4.69476 7.95957 -1.66976e-15)
(6.02948 9.58222 -2.19569e-15)
(7.45132 10.6534 7.37135e-16)
(8.76351 11.3436 -1.96784e-15)
(9.88572 11.7855 -3.17428e-15)
(10.7944 12.0284 -1.11681e-15)
(11.3519 12.0314 1.29098e-16)
(11.6249 11.6135 -2.78105e-15)
(11.4693 10.904 -3.34834e-15)
(11.0389 9.74587 -3.73233e-15)
(10.7107 8.23835 -4.47494e-15)
(10.5412 6.62659 0)
(10.2857 4.72931 2.58982e-16)
(9.2153 1.02039 2.92536e-16)
(9.29537 -5.4076 -7.71945e-15)
(8.93179 -11.371 -1.93217e-14)
(8.80863 -16.9347 5.21514e-15)
(4.86961 -4.1488 0)
(0.859306 0.429737 3.28552e-16)
(3.2844 4.34046 0)
(4.95819 6.79708 1.07908e-15)
(6.34947 8.47028 2.71724e-15)
(7.71773 9.6068 0)
(8.93354 10.368 3.79239e-15)
(9.95663 10.9021 6.43562e-15)
(10.7985 11.3073 0)
(11.4053 11.5548 -2.29606e-15)
(11.7866 11.5254 5.73754e-15)
(11.7625 11.1423 2.86561e-16)
(11.4867 10.2494 3.77433e-15)
(11.2313 8.95843 -3.7574e-15)
(11.1938 7.50239 0)
(11.3898 5.77139 -1.27649e-14)
(10.2106 2.89125 -9.58016e-15)
(10.8238 -3.76847 0)
(10.6336 -9.87195 1.21889e-14)
(10.6146 -15.5352 -2.04956e-14)
(4.99799 -4.40417 1.67253e-16)
(0.653745 -0.702375 2.75543e-17)
(3.1177 2.95947 -9.48607e-16)
(4.99005 5.46172 -4.2753e-16)
(6.49213 7.27854 -1.5764e-16)
(7.83895 8.56999 -1.87579e-15)
(8.97331 9.446 3.61218e-15)
(9.88945 10.0684 -6.31062e-15)
(10.6533 10.56 -6.93616e-15)
(11.238 10.9671 4.74704e-15)
(11.6819 11.2107 -2.89055e-15)
(11.7703 11.1339 -2.96217e-15)
(11.6151 10.5588 2.96038e-15)
(11.4794 9.52109 -6.81488e-15)
(11.5272 8.17052 0)
(11.9954 6.5253 2.26205e-14)
(11.0583 4.47286 -3.37506e-14)
(12.1021 -2.04386 1.25984e-14)
(12.1856 -8.25689 1.13606e-14)
(12.2704 -13.9529 3.63024e-16)
(5.15103 -4.55425 2.35631e-17)
(0.479828 -1.63599 -3.49081e-16)
(2.85161 1.48337 1.39164e-15)
(4.83178 3.94041 -1.76609e-15)
(6.44392 5.9424 -2.9226e-15)
(7.78664 7.46109 0)
(8.84102 8.52043 -3.87704e-15)
(9.66374 9.25473 0)
(10.3331 9.80909 4.60519e-15)
(10.8854 10.2976 0)
(11.3067 10.7077 0)
(11.4735 10.8835 -4.44789e-16)
(11.4465 10.6232 1.12366e-14)
(11.4819 9.87908 6.5163e-15)
(11.6293 8.70386 6.29596e-16)
(12.1963 7.00694 -9.02197e-15)
(11.7818 5.23343 0)
(12.9414 -0.49696 0)
(13.4195 -6.6343 1.00048e-14)
(13.6212 -12.2595 1.84714e-14)
(5.30655 -4.60175 -1.33043e-16)
(0.464278 -2.38254 -5.29214e-16)
(2.58703 0.0282581 8.70354e-16)
(4.49279 2.28613 -8.27755e-16)
(6.17693 4.43681 -1.68452e-15)
(7.50522 6.21321 1.44788e-15)
(8.49008 7.50951 2.0219e-15)
(9.23434 8.41079 -1.84252e-15)
(9.80525 9.04739 0)
(10.2733 9.57671 -4.75826e-15)
(10.654 10.0568 4.39985e-15)
(10.8677 10.4 -5.01957e-15)
(10.9912 10.4741 0)
(11.2303 9.93594 1.15421e-16)
(11.5529 8.99679 5.46452e-16)
(12.2612 7.28955 8.816e-15)
(12.3687 5.68899 -2.26381e-14)
(13.3381 0.859466 1.03608e-14)
(14.2096 -5.09343 -9.51307e-15)
(14.5198 -10.535 -8.69285e-15)
(5.44629 -4.56194 0)
(0.515622 -3.0095 -3.84726e-17)
(2.50419 -1.28308 -1.69587e-15)
(4.0868 0.581374 1.60022e-16)
(5.68653 2.77518 0)
(6.94214 4.76794 0)
(7.85719 6.31601 -5.48603e-15)
(8.53713 7.43621 1.79626e-15)
(9.02165 8.20869 -8.3611e-15)
(9.39158 8.77832 -5.07328e-16)
(9.70502 9.2661 8.76035e-15)
(9.943 9.68321 -4.25489e-15)
(10.2025 9.94957 4.83989e-16)
(10.6291 9.56517 5.76248e-16)
(11.1138 8.97482 -5.72524e-15)
(11.8816 7.36045 0)
(12.2854 5.94104 -1.02852e-14)
(13.2019 1.84453 3.98634e-14)
(14.375 -3.7563 -1.65805e-14)
(14.7901 -8.88783 7.92219e-15)
(5.54261 -4.4303 5.61809e-17)
(0.535289 -3.52116 6.89863e-16)
(2.51842 -2.43711 1.5646e-15)
(3.73079 -1.02808 1.03095e-15)
(5.02655 1.11592 1.37667e-15)
(6.10746 3.15245 0)
(6.90704 4.87509 1.84368e-15)
(7.50803 6.22467 1.77665e-15)
(7.9175 7.18742 -3.89278e-15)
(8.19166 7.83497 8.23976e-15)
(8.42072 8.30066 4.38358e-15)
(8.68903 8.73397 -4.42489e-15)
(9.03202 9.12542 8.68255e-15)
(9.61637 8.98673 4.51772e-15)
(10.256 8.48184 5.95072e-15)
(11.0802 7.01814 8.8873e-16)
(11.687 5.76617 -8.19778e-15)
(12.4922 2.33505 -4.9219e-16)
(13.8405 -2.73672 -1.69431e-14)
(14.3257 -7.40411 -9.05986e-15)
(5.55651 -4.18999 0)
(0.496017 -3.92981 -5.89728e-16)
(2.36911 -3.42365 5.54727e-16)
(3.17925 -2.42485 -1.27522e-15)
(4.1222 -0.512764 3.16275e-15)
(5.00581 1.48706 -1.69046e-15)
(5.60767 3.19975 0)
(6.07025 4.69262 0)
(6.40769 5.86264 4.21982e-15)
(6.59132 6.64024 0)
(6.7311 7.09556 -1.93889e-17)
(7.02619 7.47432 -8.04346e-15)
(7.47549 7.88953 3.90649e-15)
(8.18602 8.00754 -4.68745e-15)
(9.00964 7.5975 0)
(9.90332 6.37704 6.20475e-15)
(10.6552 5.37018 0)
(11.2469 2.46269 -8.73411e-15)
(12.6403 -2.06065 -1.60904e-14)
(12.9701 -6.15992 1.43171e-14)
(5.48901 -3.83393 1.04199e-17)
(0.333115 -4.21483 -9.13435e-16)
(1.93596 -4.21456 0)
(2.28739 -3.63125 -2.15357e-15)
(2.83997 -2.11232 -1.30923e-15)
(3.44263 -0.307607 -1.80223e-15)
(3.90797 1.39723 0)
(4.15842 2.83063 0)
(4.40171 4.14626 4.06167e-15)
(4.48517 5.08838 0)
(4.52248 5.5533 4.31118e-15)
(4.82385 5.83175 -3.81477e-15)
(5.38063 6.22588 -3.81349e-15)
(6.19387 6.36992 6.2215e-16)
(7.18549 6.15369 -1.55775e-14)
(8.13354 5.23836 5.0516e-15)
(8.83974 4.48316 -7.38877e-15)
(9.3819 2.02606 0)
(10.6468 -1.81251 -7.29216e-15)
(10.3457 -5.16419 2.32988e-14)
(5.35034 -3.33135 -1.78889e-16)
(-0.0268254 -4.31543 1.78909e-15)
(1.11971 -4.78534 -5.73798e-16)
(1.05555 -4.74745 2.08017e-15)
(1.23632 -3.65814 3.04875e-15)
(1.5358 -2.15099 -4.54635e-15)
(1.78776 -0.387754 1.02401e-14)
(1.85905 0.881563 -1.0135e-14)
(1.9115 2.16867 -4.49197e-16)
(1.81193 3.21306 -4.86131e-15)
(1.68335 3.62577 1.31625e-14)
(1.95574 3.68212 -8.48161e-15)
(2.6411 3.91338 4.43813e-15)
(3.60259 4.11329 0)
(4.64417 4.00886 0)
(5.59295 3.34823 0)
(6.13105 2.82064 9.18254e-15)
(6.5136 0.885379 6.60104e-16)
(7.02394 -2.08831 -7.20843e-15)
(6.38314 -4.66125 -8.36775e-15)
(5.14528 -2.6177 -2.72358e-17)
(-0.584634 -4.16665 -2.25849e-15)
(0.055414 -5.01755 -9.10164e-16)
(-0.514875 -5.57571 8.74655e-16)
(-0.90768 -5.25818 1.51194e-15)
(-0.840422 -4.20922 -1.80431e-15)
(-0.345509 -2.54887 0)
(0.199648 -0.912664 0)
(-0.48114 0.364658 0)
(-1.10182 1.3885 0)
(-1.69506 1.62687 -1.14987e-14)
(-1.64493 1.23042 1.65265e-14)
(-0.902113 1.01634 -4.83464e-15)
(0.207033 1.06497 0)
(1.25577 1.03054 0)
(2.01123 0.636419 0)
(2.13733 0.192324 1.66598e-14)
(1.86066 -1.06146 7.7296e-16)
(1.60125 -3.02941 1.3235e-15)
(0.587311 -4.83314 0)
(4.85033 -1.79543 0)
(-1.25454 -3.76114 4.96851e-15)
(-1.0512 -4.8407 -1.02518e-15)
(-2.06947 -5.8226 5.59049e-15)
(-3.15436 -6.13997 -5.76228e-15)
(-4.07984 -5.9221 0)
(-4.38264 -5.18016 0)
(-3.47341 -4.1914 1.34255e-14)
(-3.23207 -2.63269 0)
(-3.65155 -1.10417 0)
(-3.72282 -0.336662 -1.70286e-14)
(-4.05724 -0.834483 2.57894e-14)
(-4.49657 -1.74568 -7.1905e-15)
(-3.9926 -2.03767 -3.07604e-14)
(-3.3133 -2.03004 -2.24538e-15)
(-3.18032 -2.17011 -2.55885e-15)
(-4.04779 -2.45059 4.00876e-14)
(-5.36851 -2.88428 2.27716e-14)
(-6.04736 -4.32891 0)
(-6.393 -6.92844 -3.6202e-14)
(4.44949 -0.88809 0)
(-1.90507 -3.16031 -2.80647e-15)
(-1.93307 -4.27873 4.20382e-15)
(-3.18813 -5.41068 -3.34743e-15)
(-4.71015 -6.10046 4.2861e-15)
(-6.30489 -6.2219 0)
(-7.81161 -6.01369 0)
(-8.77183 -5.6427 1.41329e-15)
(-9.01948 -5.21384 -6.04959e-15)
(-9.42613 -4.2967 6.15121e-15)
(-9.83289 -3.35676 1.37734e-14)
(-9.07642 -2.94536 -1.6291e-14)
(-6.38579 -3.93749 -4.5091e-14)
(-4.32555 -5.56086 4.93292e-14)
(-4.97147 -5.90365 2.6691e-14)
(-6.63513 -5.37974 -3.29929e-14)
(-8.06509 -5.31917 -1.90005e-15)
(-8.13853 -4.86713 -3.93293e-14)
(-5.60863 -4.95862 -3.79658e-14)
(-2.66021 -7.42704 6.33978e-14)
(3.91473 0.0165062 0)
(-2.37698 -2.44184 3.53314e-15)
(-2.35698 -3.41898 -4.63276e-15)
(-3.488 -4.46528 4.56359e-15)
(-4.90188 -5.20474 1.60876e-15)
(-6.52027 -5.46231 0)
(-8.27919 -5.14445 0)
(-9.92955 -4.26283 -3.78122e-15)
(-11.1591 -3.21656 -4.40587e-16)
(-12.0312 -2.06716 5.87603e-15)
(-11.7645 -1.18061 0)
(-10.085 -0.944624 0)
(-8.55422 -0.616432 1.80751e-14)
(-8.16231 0.0804501 4.44107e-17)
(-7.77925 0.484141 2.33606e-14)
(-7.48749 1.18704 -2.19691e-14)
(-7.50923 1.9331 0)
(-6.47779 1.24669 0)
(-3.48656 -2.24511 0)
(0.169631 -7.63493 0)
(3.22346 0.714851 3.47116e-16)
(-2.36203 -1.78118 -7.99416e-15)
(-2.10498 -2.49991 7.57607e-15)
(-2.85516 -3.33854 -9.09644e-15)
(-3.60604 -4.02587 -5.26158e-15)
(-4.1794 -4.44199 1.60326e-14)
(-4.48665 -4.55034 0)
(-4.43716 -4.35647 -1.3068e-14)
(-4.05769 -3.88959 -8.11525e-15)
(-3.31722 -3.2124 8.28056e-15)
(-2.4756 -2.28397 2.91134e-14)
(-1.67851 -1.44942 -2.96793e-14)
(-1.81998 -0.912747 4.30904e-14)
(-2.42917 -0.465932 -1.93358e-14)
(-2.48433 -0.181182 2.26552e-14)
(-1.92065 0.135185 -4.76244e-14)
(-0.883387 0.873108 2.77686e-14)
(0.94451 0.996281 -2.9674e-14)
(2.84041 -1.12715 0)
(3.1707 -4.84709 0)
(1.77343 1.07999 0)
(-1.7222 -0.547654 1.959e-15)
(-0.845332 -0.558221 -3.89637e-15)
(-0.900282 -0.769058 0)
(-0.996835 -1.09373 0)
(-1.08436 -1.32301 -9.85e-15)
(-1.21953 -1.25562 -6.5525e-15)
(-1.35911 -0.753817 6.47345e-15)
(-1.5137 0.28042 0)
(-1.67138 1.74263 0)
(-1.86968 3.46955 -2.14752e-14)
(-1.77186 5.10564 0)
(-1.33889 6.3892 -3.06295e-14)
(-0.348282 7.02346 -3.80507e-14)
(0.957897 7.00065 7.50724e-14)
(2.00428 6.65071 3.87039e-14)
(2.56079 6.52754 0)
(3.46347 5.89372 3.74387e-14)
(4.38749 4.19082 3.83885e-14)
(3.55316 1.25735 -4.26924e-14)
(1.34063 -24.5207 -1.23572e-15)
(1.38096 -27.882 -1.91547e-17)
(1.40641 -30.6939 1.04616e-15)
(1.1737 -33.5412 -9.97886e-16)
(0.92904 -36.6887 8.84682e-16)
(0.84823 -39.7184 -8.48374e-16)
(0.816486 -42.504 7.59977e-16)
(0.812187 -45.1692 7.36181e-16)
(0.834837 -47.7428 -6.6653e-16)
(0.87816 -50.1885 -1.28903e-15)
(0.936427 -52.4828 -2.485e-15)
(0.978554 -54.6254 1.15798e-15)
(1.03996 -56.6149 0)
(1.06553 -58.4483 0)
(1.09345 -60.0542 -2.18653e-15)
(1.27923 -61.7946 0)
(0.701878 -62.5508 0)
(2.92333 -66.3098 1.01318e-15)
(-4.31236 -61.7427 -9.95932e-16)
(16.3827 -79.5649 3.40257e-15)
(3.18235 -24.1624 -2.60862e-15)
(3.22209 -27.6009 -1.25914e-15)
(3.25736 -30.3452 -4.51953e-17)
(3.02265 -33.1422 -1.99502e-15)
(2.81484 -36.3546 -3.71902e-15)
(2.78302 -39.4625 3.312e-15)
(2.7927 -42.3098 5.09089e-17)
(2.82245 -45.0198 -2.85813e-15)
(2.88093 -47.6251 -2.7359e-15)
(2.96352 -50.0908 -1.34515e-15)
(3.06448 -52.3951 3.64901e-15)
(3.14994 -54.5458 2.32419e-15)
(3.2611 -56.5327 6.84566e-15)
(3.32369 -58.3746 0)
(3.40458 -59.9665 6.56679e-15)
(3.61505 -61.7208 -4.37621e-15)
(3.07657 -62.4937 8.30672e-15)
(5.3709 -66.1745 4.05087e-15)
(-1.91162 -62.0321 -3.96716e-15)
(18.9306 -78.671 -4.12144e-19)
(5.02344 -23.5775 -5.31365e-15)
(5.09187 -27.1038 4.68568e-15)
(5.12824 -29.8098 1.11386e-14)
(4.88122 -32.592 -1.95358e-15)
(4.6944 -35.8749 0)
(4.70524 -39.0562 -5.49548e-17)
(4.75059 -41.9604 3.09219e-15)
(4.81753 -44.7168 0)
(4.9157 -47.3594 2.74584e-15)
(5.03869 -49.8514 -5.29511e-15)
(5.18026 -52.1709 4.85056e-15)
(5.30744 -54.3353 -4.75098e-15)
(5.46628 -56.3233 1.04773e-16)
(5.56598 -58.1832 -4.38057e-15)
(5.69892 -59.764 -4.38086e-15)
(5.93353 -61.542 0)
(5.44018 -62.3245 -4.20585e-15)
(7.81202 -65.9388 0)
(0.462671 -62.171 -8.1118e-15)
(21.5605 -77.7447 0)
(6.90108 -22.7705 1.05804e-16)
(6.9742 -26.3617 -4.66276e-15)
(6.97476 -29.0349 -8.83312e-15)
(6.69337 -31.833 0)
(6.5238 -35.2129 -7.599e-15)
(6.57734 -38.483 3.32093e-15)
(6.6627 -41.4571 3.17445e-15)
(6.77088 -44.2748 5.90806e-15)
(6.913 -46.969 -5.52813e-15)
(7.08204 -49.4995 5.31375e-15)
(7.26994 -51.8422 1.98192e-16)
(7.4443 -54.0259 -4.66351e-15)
(7.65165 -56.0164 0)
(7.79149 -57.8986 8.96975e-15)
(7.97606 -59.4621 -8.98431e-15)
(8.23907 -61.2679 -2.1602e-16)
(7.79874 -62.0496 -8.65752e-15)
(10.2458 -65.5963 7.87773e-15)
(2.90074 -62.1996 8.64354e-15)
(24.167 -76.7454 2.95863e-16)
(8.79814 -21.7169 2.02303e-14)
(8.83941 -25.346 -1.38501e-14)
(8.76107 -27.9992 4.17005e-15)
(8.42678 -30.8574 0)
(8.27707 -34.3666 0)
(8.37493 -37.744 -6.95005e-15)
(8.50386 -40.8054 1.25432e-14)
(8.66049 -43.6991 -1.18719e-14)
(8.8566 -46.4551 5.20416e-15)
(9.08178 -49.0305 1.02107e-14)
(9.3239 -51.4017 1.01115e-14)
(9.55276 -53.61 -9.51777e-15)
(9.81054 -55.6051 9.01745e-15)
(9.99613 -57.5144 7.94382e-18)
(10.2314 -59.0539 8.98879e-15)
(10.5279 -60.8936 2.08339e-16)
(10.1362 -61.6654 -8.66496e-15)
(12.6608 -65.1566 1.56309e-14)
(5.24471 -62.0907 -1.61952e-14)
(26.8324 -75.6761 -1.35134e-14)
(10.6375 -20.3941 4.96868e-15)
(10.6156 -24.0257 -4.10203e-15)
(10.4186 -26.675 1.86747e-16)
(10.0221 -29.653 0)
(9.90635 -33.3392 0)
(10.0612 -36.8479 -1.38092e-14)
(10.2465 -40.0133 1.23696e-14)
(10.4655 -42.9948 2.36729e-14)
(10.729 -45.8206 -1.62936e-14)
(11.0214 -48.4471 -1.05933e-14)
(11.326 -50.8526 1.9808e-14)
(11.618 -53.091 -3.80441e-14)
(11.9299 -55.0935 8.815e-15)
(12.1711 -57.0346 8.76831e-15)
(12.4569 -58.5436 8.99504e-15)
(12.7971 -60.4253 -8.3299e-15)
(12.4508 -61.1761 0)
(15.0536 -64.6125 1.6251e-14)
(7.53009 -61.8646 1.73216e-14)
(29.5971 -74.5298 1.41461e-14)
(12.312 -18.8136 -9.03244e-15)
(12.192 -22.4 0)
(11.8448 -25.0719 1.70081e-14)
(11.4005 -28.2507 -1.53376e-14)
(11.3579 -32.1639 0)
(11.5969 -35.8208 0)
(11.8612 -39.1019 -6.27013e-15)
(12.1626 -42.1803 -2.33771e-14)
(12.5107 -45.0818 1.09664e-14)
(12.8836 -47.7633 0)
(13.2608 -50.2053 0)
(13.6265 -52.4751 9.50027e-15)
(13.9983 -54.4858 -9.20901e-15)
(14.3093 -56.4614 -8.95744e-15)
(14.6454 -57.9341 -1.80041e-14)
(15.0412 -59.8741 1.66598e-14)
(14.7371 -60.5861 4.7746e-16)
(17.415 -63.9798 4.63856e-16)
(9.82715 -61.562 -1.62554e-14)
(32.3616 -73.2671 -1.36085e-14)
(13.6752 -17.0246 -8.25915e-15)
(13.4263 -20.5053 -1.71115e-14)
(12.9169 -23.2355 -7.52826e-16)
(12.4787 -26.7081 2.28559e-14)
(12.5816 -30.8892 0)
(12.9486 -34.6993 1.33726e-14)
(13.3256 -38.1023 -1.27113e-14)
(13.7373 -41.2827 1.12365e-14)
(14.1926 -44.2624 1.07301e-14)
(14.6633 -46.999 -1.05645e-14)
(15.1262 -49.4764 9.68629e-15)
(15.5776 -51.7759 0)
(16.0142 -53.7933 -1.88381e-14)
(16.4089 -55.8031 3.58595e-14)
(16.7909 -57.2356 -3.47653e-14)
(17.2555 -59.2691 0)
(16.987 -59.8624 -1.19636e-17)
(19.7448 -63.2659 -1.59101e-14)
(12.1294 -61.1798 3.32598e-14)
(35.0587 -71.887 -4.04458e-14)
(14.5556 -15.0924 -4.63581e-16)
(14.1437 -18.4011 2.44705e-14)
(13.4988 -21.2486 -1.57286e-14)
(13.1834 -25.1153 -7.71728e-15)
(13.5377 -29.5799 1.42524e-14)
(14.0877 -33.5295 -2.69863e-14)
(14.62 -37.0514 1.22142e-14)
(15.1763 -40.333 0)
(15.7659 -43.3886 2.02082e-16)
(16.3551 -46.1776 -1.01512e-14)
(16.9185 -48.6876 -2.0171e-14)
(17.4686 -51.0134 1.86032e-14)
(17.9747 -53.0351 -1.88492e-14)
(18.4662 -55.075 1.79382e-14)
(18.8813 -56.4655 1.84542e-14)
(19.4416 -58.5358 -1.66578e-14)
(19.1943 -59.0451 5.13557e-14)
(22.047 -62.472 -1.54674e-14)
(14.4341 -60.712 -3.25853e-14)
(37.6829 -70.3959 -1.48311e-17)
(14.7725 -13.1091 -8.03787e-15)
(14.1631 -16.1855 3.24661e-14)
(13.4807 -19.2608 8.81758e-16)
(13.4811 -23.6122 -3.05841e-14)
(14.2103 -28.3253 -1.49512e-14)
(14.9969 -32.3725 2.63144e-14)
(15.7305 -35.9943 0)
(16.467 -39.3628 1.18548e-14)
(17.2191 -42.4818 -2.16315e-14)
(17.9483 -45.3129 0)
(18.6288 -47.848 -1.97521e-14)
(19.2919 -50.1937 1.8999e-14)
(19.874 -52.2163 0)
(20.476 -54.2798 3.58648e-14)
(20.9142 -55.6271 -1.76311e-14)
(21.5919 -57.7766 0)
(21.3516 -58.1362 -5.14663e-14)
(24.3175 -61.6041 4.80662e-14)
(16.7407 -60.1515 3.33665e-14)
(40.2253 -68.7979 5.52874e-14)
(14.0568 -11.1688 1.49411e-14)
(13.3434 -14.0312 8.43863e-15)
(12.8352 -17.5159 -1.5708e-14)
(13.4214 -22.3848 -1.57435e-14)
(14.634 -27.2396 2.85267e-14)
(15.6975 -31.3146 -2.64214e-14)
(16.6779 -34.9988 1.23955e-14)
(17.6267 -38.4228 -2.37423e-14)
(18.5655 -41.5781 3.23919e-14)
(19.4518 -44.4297 2.11469e-14)
(20.262 -46.9736 -1.93428e-14)
(21.0495 -49.3258 4.08611e-16)
(21.7124 -51.3426 -1.80585e-14)
(22.4398 -53.418 -5.42567e-14)
(22.8913 -54.7206 3.53204e-14)
(23.7202 -56.9299 8.63694e-16)
(23.4481 -57.1709 3.45043e-14)
(26.5544 -60.6729 0)
(19.0467 -59.4951 -3.26348e-14)
(42.6792 -67.1035 2.78e-14)
(12.4532 -9.39526 0)
(11.6071 -12.1921 0)
(11.7046 -16.3277 -1.71621e-14)
(13.15 -21.618 -8.77391e-16)
(14.8841 -26.4294 4.29684e-14)
(16.2399 -30.4412 -1.30663e-14)
(17.5055 -34.1297 1.29544e-14)
(18.691 -37.5609 -2.28073e-14)
(19.8339 -40.7135 0)
(20.8882 -43.556 2.07217e-14)
(21.8348 -46.0865 1.98207e-14)
(22.7525 -48.4265 0)
(23.4973 -50.4275 -1.89135e-14)
(24.3605 -52.498 3.55071e-14)
(24.8121 -53.7603 3.58043e-14)
(25.8249 -56.0148 -1.57874e-14)
(25.4822 -56.1303 -6.73952e-14)
(28.7573 -59.69 0)
(21.3569 -58.7398 0)
(44.9898 -65.335 5.27252e-18)
(9.60862 -7.94845 -1.57196e-14)
(9.05375 -11.0214 0)
(10.4249 -15.9874 7.2058e-16)
(12.8566 -21.3729 1.66368e-14)
(15.0509 -25.9084 -2.87165e-14)
(16.6906 -29.7646 0)
(18.2612 -33.3873 1.24913e-14)
(19.6896 -36.7717 0)
(21.0435 -39.8823 0)
(22.2703 -42.6887 -2.08102e-14)
(23.357 -45.1867 0)
(24.4081 -47.4981 1.94986e-14)
(25.2345 -49.4751 -5.5567e-14)
(26.2403 -51.5223 3.59724e-14)
(26.6778 -52.7537 -1.72873e-14)
(27.9052 -55.0268 6.83476e-14)
(27.4436 -55.0336 0)
(30.9272 -58.6639 -3.17951e-14)
(23.6736 -57.8317 0)
(47.1057 -63.5342 5.60512e-14)
(5.56514 -7.18434 0)
(6.25395 -11.0166 9.7415e-16)
(9.56785 -16.6203 1.65649e-15)
(12.7223 -21.5787 -4.86199e-14)
(15.2458 -25.6551 1.43074e-14)
(17.1373 -29.2913 -1.36044e-14)
(19.0066 -32.7779 -1.2731e-14)
(20.6641 -36.0622 2.4174e-14)
(22.2226 -39.0901 -2.16122e-14)
(23.6167 -41.8316 -4.21417e-14)
(24.8399 -44.2763 1.94476e-14)
(26.0227 -46.5416 1.91062e-14)
(26.9288 -48.4871 1.8558e-14)
(28.0797 -50.4911 1.80069e-14)
(28.4898 -51.7074 0)
(29.9591 -53.9607 8.8153e-16)
(29.3221 -53.8899 -6.77493e-14)
(33.0795 -57.5812 -7.49023e-16)
(25.915 -56.8175 3.19889e-14)
(49.1769 -61.6713 -5.62742e-14)
(0.919849 -7.65645 2.46515e-14)
(4.50075 -12.7 2.37947e-14)
(9.59781 -18.0299 1.93881e-14)
(12.8411 -22.0945 -1.76968e-14)
(15.5958 -25.6376 1.4173e-14)
(17.6893 -29.0102 2.85621e-14)
(19.8212 -32.2907 -1.21981e-14)
(21.6715 -35.4266 -4.82376e-14)
(23.4107 -38.3347 -1.0251e-15)
(24.9556 -40.9855 -9.07887e-16)
(26.3025 -43.3577 1.94907e-14)
(27.6086 -45.5593 -3.83089e-14)
(28.5892 -47.4657 0)
(29.8815 -49.4059 1.88961e-14)
(30.2548 -50.6276 -7.11268e-14)
(31.9858 -52.8091 3.33368e-14)
(31.1175 -52.7134 3.44097e-14)
(35.2333 -56.4206 0)
(28.1027 -55.7338 -3.26993e-14)
(51.0372 -59.8571 0)
(-1.01612 -10.8786 1.49298e-15)
(5.14785 -15.7076 1.08033e-15)
(10.4265 -19.5663 1.96824e-14)
(13.2816 -22.7022 -5.21334e-14)
(16.2329 -25.7291 4.5035e-14)
(18.4321 -28.818 1.41058e-14)
(20.7523 -31.8504 -1.29869e-14)
(22.7415 -34.8181 2.34798e-14)
(24.6267 -37.5868 2.18627e-14)
(26.2996 -40.1318 2.63137e-17)
(27.7546 -42.4199 0)
(29.1728 -44.5444 -4.30523e-16)
(30.2213 -46.407 1.81969e-14)
(31.6457 -48.265 3.69951e-14)
(31.9796 -49.5168 1.75857e-15)
(33.9816 -51.5631 -6.76038e-14)
(32.8323 -51.5274 3.54867e-14)
(37.3951 -55.1789 -6.23467e-14)
(30.2099 -54.5054 3.25104e-14)
(52.5476 -58.2841 0)
(2.56355 -12.4142 0)
(7.58123 -17.3189 -2.11022e-14)
(12.0361 -20.2998 -1.86206e-14)
(14.1872 -23.117 0)
(17.2121 -25.7369 4.73734e-14)
(19.3942 -28.5889 -4.17032e-14)
(21.8115 -31.3799 -5.28135e-14)
(23.8845 -34.1882 -6.47308e-16)
(25.8784 -36.8142 0)
(27.6545 -39.2484 1.52247e-17)
(29.2013 -41.4478 2.00447e-14)
(30.7192 -43.4865 0)
(31.8282 -45.3044 3.8201e-14)
(33.3695 -47.065 -7.23933e-14)
(33.6696 -48.3715 3.47827e-14)
(35.9335 -50.2134 -1.16689e-17)
(34.4679 -50.3613 -3.45919e-14)
(39.5778 -53.8371 3.15744e-14)
(32.1167 -53.1302 -3.40552e-14)
(54.1587 -56.7609 5.35688e-14)
(4.70612 -12.8912 0)
(9.39617 -17.8593 0)
(13.6957 -20.2483 -3.64917e-14)
(15.474 -23.1112 6.57491e-14)
(18.4451 -25.4405 -5.98294e-14)
(20.5365 -28.1834 1.41123e-14)
(22.9739 -30.7981 5.22266e-14)
(25.0905 -33.4907 2.48242e-14)
(27.1598 -35.9909 -2.2018e-14)
(29.0174 -38.319 2.11422e-14)
(30.6399 -40.4298 -4.06606e-14)
(32.2453 -42.3774 1.88378e-14)
(33.4091 -44.1516 3.82739e-14)
(35.0486 -45.8017 3.80045e-14)
(35.3266 -47.1829 -3.48207e-14)
(37.8183 -48.7543 3.34554e-14)
(36.0225 -49.2382 6.92626e-14)
(41.7731 -52.3343 -3.06635e-14)
(33.8301 -51.6395 0)
(55.9558 -55.2271 0)
(7.1705 -10.6896 0)
(11.4029 -17.7663 1.99967e-14)
(15.6452 -19.4742 -1.68691e-14)
(17.0077 -22.6946 -3.3575e-14)
(19.8246 -24.8041 1.3155e-14)
(21.8253 -27.5312 2.69955e-14)
(24.2412 -30.0262 1.24221e-17)
(26.3754 -32.6559 0)
(28.4828 -35.063 0)
(30.3969 -37.3066 4.26531e-14)
(32.0728 -39.3387 9.20091e-16)
(33.7477 -41.1936 -3.80963e-14)
(34.9602 -42.9292 0)
(36.678 -44.4538 -7.25135e-14)
(36.9497 -45.9293 3.65521e-14)
(39.6053 -47.1596 -1.0225e-13)
(37.5005 -48.1486 3.45201e-14)
(43.9155 -50.5043 3.24165e-14)
(35.2005 -50.1367 -6.63929e-14)
(57.7895 -53.9968 5.3184e-14)
(10.9602 -6.67902 -1.05363e-15)
(14.1403 -18.1302 -2.01368e-14)
(18.2579 -18.2431 -1.77128e-14)
(19.1885 -21.8331 1.63098e-14)
(21.7651 -23.7171 3.03448e-14)
(23.5253 -26.399 -2.6397e-14)
(25.8186 -28.8368 -2.50797e-14)
(27.8592 -31.4417 2.38443e-14)
(29.9456 -33.8403 -2.1216e-14)
(31.8696 -36.0581 -2.09651e-14)
(33.5663 -38.065 3.90781e-14)
(35.2853 -39.8579 4.30804e-16)
(36.5373 -41.5899 -3.73296e-14)
(38.2822 -42.9555 3.46483e-14)
(38.5913 -44.5829 0)
(41.2765 -45.3458 3.37789e-14)
(39.0359 -47.0596 1.0406e-15)
(45.9181 -48.1062 -3.01327e-14)
(36.1924 -49.0551 0)
(59.6335 -53.3371 -5.20528e-14)
(13.361 -3.07621 2.16754e-14)
(14.2675 -14.3089 -1.14784e-16)
(19.5772 -15.5561 1.48904e-14)
(20.6439 -19.3612 -2.7524e-14)
(23.33 -21.6583 -4.03731e-16)
(24.9918 -24.6458 1.19947e-14)
(27.1919 -27.346 3.44003e-16)
(29.128 -30.1529 1.53385e-17)
(31.1247 -32.712 -1.88154e-14)
(32.9753 -35.0337 -1.77601e-14)
(34.6429 -37.1372 5.21128e-16)
(36.3207 -38.9439 -1.63461e-14)
(37.5809 -40.7448 0)
(39.2781 -42.0269 6.17921e-14)
(39.6729 -43.8234 0)
(42.2418 -44.2683 -2.96673e-14)
(40.1463 -46.5382 2.92069e-14)
(46.9482 -46.5182 2.69844e-14)
(37.2577 -48.901 -4.2919e-16)
(60.3049 -51.861 3.09964e-16)
(13.6933 -3.36523 0)
(14.3324 -14.1884 1.3575e-14)
(19.7515 -15.4967 0)
(20.7758 -19.1751 1.14103e-14)
(23.4751 -21.4836 0)
(25.1241 -24.4229 -1.95184e-14)
(27.3368 -27.1231 2.89297e-16)
(29.2814 -29.9194 -2.55051e-16)
(31.2907 -32.4866 1.56336e-14)
(33.1478 -34.8123 1.47697e-14)
(34.8243 -36.9269 -1.43622e-14)
(36.4999 -38.7317 2.76694e-14)
(37.7707 -40.5469 0)
(39.4491 -41.806 -2.6757e-14)
(39.8493 -43.6679 4.23898e-16)
(42.3824 -44.0205 2.52145e-17)
(40.334 -46.4469 -3.85391e-16)
(47.0809 -46.1543 -2.35977e-14)
(37.5476 -48.9681 -2.13212e-14)
(60.4266 -51.5544 -1.70919e-14)
(13.8721 -3.86747 2.58796e-16)
(14.3583 -13.9851 -2.05255e-16)
(19.9376 -15.377 0)
(20.9397 -18.9213 1.18791e-14)
(23.6487 -21.2659 1.02e-14)
(25.2894 -24.1703 1.92512e-14)
(27.5123 -26.8813 5.64742e-16)
(29.4636 -29.6716 1.28007e-17)
(31.4819 -32.2518 -2.38388e-16)
(33.3417 -34.5848 -2.95377e-14)
(35.0244 -36.7134 5.67143e-18)
(36.695 -38.5204 -2.76752e-14)
(37.977 -40.3522 2.06067e-16)
(39.6332 -41.5894 -4.27851e-16)
(40.0743 -43.4973 -2.5995e-14)
(42.5316 -43.7802 2.58975e-14)
(40.6014 -46.327 4.07212e-16)
(47.2006 -45.8017 -3.52019e-16)
(37.8876 -49.0279 2.15923e-14)
(60.5219 -51.2026 3.42653e-14)
(13.9927 -4.35889 0)
(14.4194 -13.7535 0)
(20.1249 -15.234 1.2326e-14)
(21.1159 -18.6488 -1.15371e-14)
(23.8215 -21.0366 -1.01986e-14)
(25.458 -23.9107 -2.90084e-16)
(27.6906 -26.6332 -1.78059e-14)
(29.6512 -29.4173 -5.23457e-16)
(31.6776 -32.0098 2.3838e-16)
(33.5391 -34.3508 1.47662e-14)
(35.2269 -36.494 2.8258e-14)
(36.8907 -38.3046 4.69001e-18)
(38.184 -40.1525 1.34908e-14)
(39.8168 -41.371 0)
(40.303 -43.3179 2.59737e-14)
(42.6793 -43.5377 3.9386e-16)
(40.876 -46.1915 2.51963e-14)
(47.3138 -45.4554 2.33509e-14)
(38.2334 -49.0634 3.52719e-16)
(60.6367 -50.8445 -1.71664e-14)
(14.1194 -4.8318 1.54196e-14)
(14.5264 -13.5369 -1.41033e-17)
(20.3048 -15.0996 2.41309e-16)
(21.2862 -18.3873 -3.72027e-16)
(23.9786 -20.818 -1.02646e-14)
(25.6155 -23.6616 -9.82076e-15)
(27.8598 -26.392 1.78101e-14)
(29.8334 -29.1664 2.55314e-16)
(31.8692 -31.7684 1.56194e-14)
(33.7334 -34.1164 0)
(35.4269 -36.2732 -1.41258e-14)
(37.0839 -38.0882 2.74518e-14)
(38.3896 -39.9507 -1.34942e-14)
(39.9983 -41.1543 0)
(40.5341 -43.1276 -4.23481e-16)
(42.8218 -43.2997 -2.55423e-14)
(41.1562 -46.0489 -2.51783e-14)
(47.4203 -45.1141 -2.30274e-14)
(38.5813 -49.0853 -3.27945e-16)
(60.7739 -50.4782 2.69871e-16)
(14.2708 -5.27548 -3.11107e-14)
(14.6682 -13.3351 1.40233e-14)
(20.4714 -14.9761 4.29399e-17)
(21.4433 -18.141 1.76558e-16)
(24.1157 -20.6137 2.12168e-14)
(25.7586 -23.4262 9.53273e-15)
(28.0174 -26.1604 -1.75494e-14)
(30.0082 -28.9214 -2.55243e-16)
(32.0549 -31.5293 -1.56052e-14)
(33.9229 -33.8825 -2.35544e-16)
(35.6232 -36.0517 2.1562e-16)
(37.2734 -37.8715 -1.37275e-14)
(38.5927 -39.747 -1.32723e-14)
(40.174 -40.94 -2.04144e-16)
(40.7656 -42.9339 2.63697e-14)
(42.9604 -43.0654 2.59612e-14)
(41.4409 -45.8991 2.55433e-14)
(47.5195 -44.7777 -3.5421e-16)
(38.9318 -49.0956 -2.16745e-14)
(60.9323 -50.0978 2.57244e-16)
(14.4529 -5.69357 1.51803e-14)
(14.8363 -13.149 -1.40309e-14)
(20.6216 -14.8659 -2.48234e-14)
(21.5826 -17.9139 0)
(24.2303 -20.4271 2.01473e-17)
(25.8853 -23.2077 -3.03596e-16)
(28.1621 -25.9412 1.83855e-14)
(30.1741 -28.6845 2.67694e-16)
(32.2336 -31.2942 -2.37842e-16)
(34.1068 -33.6507 0)
(35.8148 -35.8307 0)
(37.4588 -37.6554 1.37218e-14)
(38.7928 -39.5419 1.34915e-14)
(40.347 -40.7279 2.6793e-14)
(40.9961 -42.7379 -5.31541e-14)
(43.095 -42.8349 3.94732e-16)
(41.73 -45.7423 -2.51183e-14)
(47.6118 -44.4458 0)
(39.2849 -49.0982 2.35802e-17)
(61.1113 -49.7006 -1.7461e-14)
(14.6659 -6.09182 1.5233e-14)
(15.0222 -12.978 1.46271e-14)
(20.7516 -14.7713 1.24197e-14)
(21.6995 -17.7093 1.17694e-14)
(24.3199 -20.2613 -2.16691e-14)
(25.9939 -23.009 -9.25103e-15)
(28.2926 -25.7367 1.38702e-17)
(30.33 -28.458 -1.69975e-14)
(32.4042 -31.065 0)
(34.284 -33.4225 1.47196e-14)
(36.0011 -35.6113 -2.2524e-16)
(37.6395 -37.4408 -1.32912e-14)
(38.9892 -39.3362 -2.0594e-16)
(40.5168 -40.5179 -6.71944e-18)
(41.2217 -42.5409 2.63617e-14)
(43.2259 -42.6084 0)
(42.0232 -45.5788 0)
(47.697 -44.1186 -2.36039e-14)
(39.6411 -49.0949 2.45419e-17)
(61.3105 -49.2838 -3.3851e-17)
(14.9077 -6.4768 -3.07245e-14)
(15.2177 -12.8211 -1.43866e-14)
(20.8569 -14.6949 -1.25077e-14)
(21.7894 -17.5309 -1.17729e-14)
(24.3825 -20.1196 2.13801e-14)
(26.0831 -22.8328 0)
(28.4081 -25.5495 0)
(30.4747 -28.244 -1.68357e-17)
(32.5655 -30.8437 0)
(34.4536 -33.1992 -1.47027e-14)
(36.1811 -35.3945 -1.38591e-14)
(37.8149 -37.2282 -1.39218e-14)
(39.1814 -39.1304 -1.36959e-14)
(40.683 -40.3102 -5.34132e-14)
(41.4425 -42.3426 0)
(43.3536 -42.3863 0)
(42.3202 -45.4085 0)
(47.7752 -43.796 2.36522e-14)
(40.0016 -49.0872 4.22152e-14)
(61.5297 -48.8452 1.76218e-14)
(15.1754 -6.85497 1.52335e-14)
(15.4148 -12.6798 0)
(20.9327 -14.6391 1.24872e-14)
(21.848 -17.3821 3.7812e-16)
(24.4166 -20.0047 -1.10276e-14)
(26.1521 -22.6813 0)
(28.5079 -25.382 0)
(30.6072 -28.0449 1.67137e-14)
(32.7168 -30.6321 2.48387e-16)
(34.6149 -32.9825 -4.58852e-16)
(36.354 -35.1816 1.42885e-14)
(37.9846 -37.0188 1.37104e-14)
(39.3691 -38.9253 1.34812e-14)
(40.8456 -40.1051 2.63873e-14)
(41.661 -42.1425 -2.11596e-17)
(43.4783 -42.1692 3.9554e-16)
(42.6211 -45.2314 0)
(47.8459 -43.4784 0)
(40.3682 -49.0763 -2.10442e-14)
(61.7686 -48.3825 0)
(15.465 -7.23263 1.52632e-14)
(15.6061 -12.5534 0)
(20.974 -14.6075 1.25815e-14)
(21.8722 -17.2658 -3.79199e-16)