/*--------------------------------*- C++ -*----------------------------------*\
  =========                 |
  \\      /  F ield         | OpenFOAM: The Open Source CFD Toolbox
   \\    /   O peration     | Website:  https://openfoam.org
    \\  /    A nd           | Version:  10
     \\/     M anipulation  |
\*---------------------------------------------------------------------------*/
FoamFile
{
    format      ascii;
    class       volScalarField;
    location    "36000";
    object      k;
}
// * * * * * * * * * * * * * * * * * * * * * * * * * * * * * * * * * * * * * //

dimensions      [0 2 -2 0 0 0 0];

internalField   nonuniform List<scalar> 
17808
(
0.100397
0.114288
0.105743
0.102669
0.101383
0.100743
0.100388
0.100176
0.100039
0.0999429
0.0998695
0.0998079
0.0997518
0.0996974
0.0996422
0.0995849
0.0995245
0.0994605
0.0993925
0.0993204
0.0992441
0.0991636
0.099079
0.0989902
0.0988975
0.098801
0.0987006
0.0985966
0.0984891
0.0983782
0.0982641
0.0981468
0.0980265
0.0979034
0.0977775
0.097649
0.097518
0.0973846
0.097249
0.0971113
0.0969715
0.0968299
0.0966865
0.0965414
0.0963948
0.0962468
0.0960974
0.0959468
0.0957951
0.0956424
0.0954889
0.0953345
0.0951795
0.0950239
0.0948678
0.0947114
0.0945547
0.0943978
0.0942409
0.0940839
0.0939272
0.0937706
0.0936144
0.0934586
0.0933033
0.0931486
0.0929947
0.0928416
0.0926894
0.0925382
0.0923881
0.0922392
0.0920915
0.0919453
0.0918005
0.0916573
0.0915158
0.091376
0.091238
0.091102
0.0909681
0.0908363
0.0907067
0.0905795
0.0904546
0.0903323
0.0902127
0.0900957
0.0899815
0.0898703
0.089762
0.0896569
0.10035
0.114277
0.105749
0.102714
0.101439
0.1008
0.100444
0.100229
0.100088
0.0999885
0.0999116
0.0998468
0.0997877
0.0997305
0.0996728
0.0996132
0.0995507
0.0994847
0.099415
0.0993413
0.0992635
0.0991817
0.0990958
0.099006
0.0989122
0.0988147
0.0987134
0.0986086
0.0985003
0.0983887
0.0982739
0.098156
0.0980352
0.0979115
0.0977851
0.0976562
0.0975247
0.097391
0.097255
0.0971169
0.0969768
0.0968349
0.0966912
0.0965459
0.0963991
0.0962508
0.0961012
0.0959505
0.0957986
0.0956458
0.0954921
0.0953376
0.0951824
0.0950267
0.0948705
0.094714
0.0945572
0.0944003
0.0942432
0.0940863
0.0939294
0.0937728
0.0936166
0.0934607
0.0933054
0.0931507
0.0929968
0.0928436
0.0926914
0.0925402
0.0923901
0.0922412
0.0920935
0.0919473
0.0918025
0.0916593
0.0915178
0.091378
0.0912401
0.0911041
0.0909702
0.0908384
0.0907088
0.0905816
0.0904568
0.0903345
0.0902148
0.0900979
0.0899837
0.0898725
0.0897642
0.0896591
0.100356
0.114239
0.10572
0.102715
0.101449
0.100817
0.100465
0.100252
0.100113
0.100014
0.0999372
0.0998722
0.0998127
0.0997549
0.0996965
0.099636
0.0995725
0.0995056
0.0994349
0.0993602
0.0992814
0.0991986
0.0991118
0.0990211
0.0989265
0.0988281
0.0987261
0.0986205
0.0985116
0.0983993
0.0982839
0.0981654
0.0980441
0.0979199
0.097793
0.0976636
0.0975318
0.0973976
0.0972613
0.0971228
0.0969824
0.0968402
0.0966962
0.0965507
0.0964036
0.0962551
0.0961053
0.0959543
0.0958023
0.0956493
0.0954954
0.0953408
0.0951855
0.0950297
0.0948734
0.0947167
0.0945598
0.0944028
0.0942457
0.0940887
0.0939318
0.0937751
0.0936188
0.0934629
0.0933076
0.0931529
0.0929989
0.0928457
0.0926935
0.0925422
0.0923921
0.0922431
0.0920955
0.0919493
0.0918045
0.0916613
0.0915197
0.09138
0.091242
0.0911061
0.0909721
0.0908404
0.0907108
0.0905836
0.0904588
0.0903365
0.0902169
0.0900999
0.0899858
0.0898746
0.0897664
0.0896612
0.100368
0.11421
0.105701
0.10271
0.101453
0.100827
0.100477
0.100266
0.100128
0.10003
0.0999538
0.0998893
0.0998302
0.0997725
0.0997141
0.0996535
0.0995899
0.0995226
0.0994515
0.0993763
0.099297
0.0992137
0.0991263
0.0990349
0.0989397
0.0988408
0.0987381
0.098632
0.0985225
0.0984097
0.0982938
0.0981748
0.0980529
0.0979283
0.097801
0.0976712
0.0975389
0.0974044
0.0972677
0.0971289
0.0969882
0.0968457
0.0967015
0.0965556
0.0964083
0.0962595
0.0961095
0.0959584
0.0958062
0.095653
0.0954989
0.0953442
0.0951887
0.0950328
0.0948764
0.0947196
0.0945626
0.0944055
0.0942483
0.0940912
0.0939342
0.0937775
0.0936211
0.0934652
0.0933098
0.093155
0.093001
0.0928478
0.0926955
0.0925443
0.0923941
0.0922452
0.0920975
0.0919512
0.0918065
0.0916632
0.0915217
0.0913819
0.091244
0.091108
0.0909741
0.0908423
0.0907128
0.0905856
0.0904608
0.0903386
0.0902189
0.090102
0.0899879
0.0898767
0.0897685
0.0896634
0.100383
0.114187
0.105684
0.102702
0.101454
0.100833
0.100487
0.100277
0.100139
0.100042
0.0999664
0.0999024
0.0998435
0.0997862
0.099728
0.0996675
0.0996038
0.0995365
0.0994653
0.0993899
0.0993104
0.0992267
0.099139
0.0990473
0.0989517
0.0988523
0.0987493
0.0986428
0.0985328
0.0984196
0.0983032
0.0981839
0.0980616
0.0979365
0.0978089
0.0976787
0.0975461
0.0974112
0.0972742
0.0971351
0.0969941
0.0968513
0.0967068
0.0965607
0.0964131
0.0962642
0.096114
0.0959626
0.0958102
0.0956568
0.0955026
0.0953477
0.0951921
0.095036
0.0948795
0.0947226
0.0945655
0.0944083
0.094251
0.0940938
0.0939367
0.0937799
0.0936235
0.0934675
0.0933121
0.0931573
0.0930032
0.09285
0.0926976
0.0925464
0.0923962
0.0922472
0.0920995
0.0919533
0.0918085
0.0916652
0.0915237
0.0913839
0.091246
0.09111
0.0909761
0.0908443
0.0907148
0.0905876
0.0904628
0.0903406
0.090221
0.090104
0.0899899
0.0898788
0.0897706
0.0896654
0.100403
0.114168
0.105667
0.102689
0.10145
0.100835
0.100492
0.100283
0.100147
0.10005
0.0999753
0.0999117
0.0998534
0.0997964
0.0997385
0.0996783
0.0996149
0.0995477
0.0994765
0.0994012
0.0993216
0.0992379
0.09915
0.0990581
0.0989623
0.0988627
0.0987594
0.0986526
0.0985423
0.0984288
0.0983121
0.0981924
0.0980699
0.0979445
0.0978165
0.097686
0.0975531
0.097418
0.0972806
0.0971413
0.097
0.096857
0.0967122
0.0965659
0.0964181
0.0962689
0.0961185
0.0959669
0.0958143
0.0956608
0.0955064
0.0953513
0.0951956
0.0950394
0.0948827
0.0947257
0.0945685
0.0944112
0.0942538
0.0940965
0.0939394
0.0937825
0.093626
0.0934699
0.0933144
0.0931596
0.0930054
0.0928522
0.0926998
0.0925485
0.0923983
0.0922493
0.0921016
0.0919553
0.0918105
0.0916673
0.0915257
0.0913859
0.091248
0.091112
0.0909781
0.0908463
0.0907168
0.0905896
0.0904648
0.0903426
0.090223
0.0901061
0.089992
0.0898808
0.0897726
0.0896675
0.100427
0.114152
0.105651
0.102676
0.101445
0.100834
0.100493
0.100286
0.100151
0.100055
0.0999809
0.0999179
0.0998601
0.0998037
0.0997463
0.0996864
0.0996234
0.0995565
0.0994855
0.0994103
0.0993309
0.0992472
0.0991594
0.0990674
0.0989716
0.0988718
0.0987684
0.0986614
0.098551
0.0984373
0.0983204
0.0982005
0.0980776
0.097952
0.0978238
0.0976931
0.0975599
0.0974245
0.097287
0.0971474
0.0970059
0.0968626
0.0967176
0.096571
0.096423
0.0962737
0.0961231
0.0959713
0.0958185
0.0956648
0.0955103
0.0953551
0.0951992
0.0950428
0.094886
0.0947289
0.0945716
0.0944141
0.0942567
0.0940993
0.0939421
0.0937851
0.0936285
0.0934724
0.0933168
0.0931619
0.0930078
0.0928544
0.092702
0.0925507
0.0924004
0.0922514
0.0921037
0.0919574
0.0918125
0.0916693
0.0915277
0.0913879
0.09125
0.091114
0.0909801
0.0908483
0.0907188
0.0905916
0.0904668
0.0903446
0.090225
0.0901081
0.089994
0.0898828
0.0897747
0.0896696
0.100451
0.114139
0.105636
0.102663
0.101438
0.100831
0.100493
0.100288
0.100154
0.100058
0.0999847
0.0999222
0.0998649
0.0998089
0.0997519
0.0996925
0.0996299
0.0995633
0.0994927
0.0994177
0.0993385
0.0992549
0.0991672
0.0990753
0.0989795
0.0988798
0.0987763
0.0986693
0.0985587
0.0984449
0.0983279
0.0982078
0.0980848
0.0979591
0.0978307
0.0976997
0.0975664
0.0974308
0.097293
0.0971533
0.0970116
0.0968681
0.0967229
0.0965762
0.096428
0.0962784
0.0961276
0.0959757
0.0958228
0.0956689
0.0955142
0.0953588
0.0952028
0.0950463
0.0948894
0.0947322
0.0945747
0.0944172
0.0942596
0.0941021
0.0939448
0.0937878
0.0936312
0.093475
0.0933193
0.0931644
0.0930101
0.0928568
0.0927043
0.0925529
0.0924026
0.0922536
0.0921058
0.0919595
0.0918146
0.0916714
0.0915298
0.09139
0.091252
0.091116
0.0909821
0.0908503
0.0907208
0.0905936
0.0904689
0.0903466
0.090227
0.0901101
0.0899961
0.0898849
0.0897767
0.0896716
0.100475
0.114129
0.105623
0.102652
0.101431
0.100827
0.100492
0.100288
0.100155
0.10006
0.0999872
0.0999252
0.0998683
0.0998127
0.0997562
0.0996972
0.0996349
0.0995687
0.0994983
0.0994237
0.0993446
0.0992613
0.0991737
0.099082
0.0989863
0.0988866
0.0987832
0.0986761
0.0985656
0.0984517
0.0983346
0.0982145
0.0980914
0.0979655
0.097837
0.0977059
0.0975725
0.0974367
0.0972988
0.0971589
0.097017
0.0968734
0.0967281
0.0965811
0.0964328
0.0962831
0.0961322
0.0959801
0.095827
0.095673
0.0955182
0.0953627
0.0952065
0.0950499
0.0948928
0.0947355
0.094578
0.0944203
0.0942626
0.0941051
0.0939477
0.0937906
0.0936338
0.0934776
0.0933219
0.0931668
0.0930126
0.0928591
0.0927066
0.0925552
0.0924049
0.0922558
0.092108
0.0919616
0.0918167
0.0916734
0.0915318
0.091392
0.0912541
0.0911181
0.0909841
0.0908524
0.0907228
0.0905956
0.0904709
0.0903486
0.090229
0.0901121
0.0899981
0.0898869
0.0897787
0.0896737
0.100497
0.114121
0.105611
0.102641
0.101423
0.100823
0.100489
0.100288
0.100155
0.100062
0.0999888
0.0999272
0.0998706
0.0998154
0.0997593
0.0997006
0.0996387
0.0995728
0.0995028
0.0994284
0.0993497
0.0992666
0.0991792
0.0990876
0.098992
0.0988925
0.0987891
0.0986821
0.0985716
0.0984578
0.0983407
0.0982205
0.0980974
0.0979714
0.0978428
0.0977117
0.0975781
0.0974423
0.0973043
0.0971642
0.0970222
0.0968785
0.096733
0.096586
0.0964375
0.0962877
0.0961366
0.0959844
0.0958312
0.095677
0.0955221
0.0953665
0.0952102
0.0950535
0.0948963
0.0947389
0.0945812
0.0944235
0.0942657
0.094108
0.0939506
0.0937934
0.0936366
0.0934802
0.0933245
0.0931694
0.093015
0.0928615
0.092709
0.0925575
0.0924072
0.092258
0.0921102
0.0919638
0.0918189
0.0916756
0.0915339
0.0913941
0.0912561
0.0911201
0.0909862
0.0908544
0.0907248
0.0905976
0.0904729
0.0903507
0.090231
0.0901142
0.0900001
0.0898889
0.0897808
0.0896757
0.100518
0.114115
0.105602
0.102632
0.101416
0.100818
0.100487
0.100286
0.100155
0.100062
0.0999896
0.0999284
0.0998722
0.0998173
0.0997615
0.0997032
0.0996416
0.099576
0.0995063
0.0994322
0.0993537
0.0992709
0.0991837
0.0990923
0.0989969
0.0988974
0.0987942
0.0986873
0.0985769
0.0984631
0.098346
0.0982259
0.0981027
0.0979768
0.0978482
0.097717
0.0975834
0.0974474
0.0973094
0.0971692
0.0970272
0.0968833
0.0967377
0.0965906
0.096442
0.0962921
0.0961409
0.0959886
0.0958353
0.095681
0.095526
0.0953702
0.0952139
0.095057
0.0948998
0.0947422
0.0945845
0.0944266
0.0942688
0.094111
0.0939535
0.0937962
0.0936393
0.0934829
0.0933271
0.0931719
0.0930175
0.092864
0.0927114
0.0925599
0.0924095
0.0922603
0.0921124
0.091966
0.091821
0.0916777
0.0915361
0.0913962
0.0912582
0.0911222
0.0909882
0.0908564
0.0907269
0.0905997
0.0904749
0.0903527
0.0902331
0.0901162
0.0900021
0.0898909
0.0897828
0.0896777
0.100537
0.11411
0.105593
0.102624
0.101409
0.100813
0.100483
0.100284
0.100154
0.100062
0.0999899
0.099929
0.0998731
0.0998186
0.0997631
0.0997051
0.0996437
0.0995785
0.099509
0.0994352
0.099357
0.0992744
0.0991874
0.0990962
0.0990009
0.0989017
0.0987986
0.0986918
0.0985815
0.0984677
0.0983507
0.0982306
0.0981075
0.0979816
0.097853
0.0977218
0.0975881
0.0974522
0.0973141
0.0971739
0.0970318
0.0968878
0.0967422
0.096595
0.0964463
0.0962963
0.096145
0.0959926
0.0958392
0.0956849
0.0955297
0.0953739
0.0952175
0.0950605
0.0949032
0.0947455
0.0945877
0.0944298
0.0942718
0.094114
0.0939564
0.093799
0.0936421
0.0934856
0.0933297
0.0931745
0.0930201
0.0928665
0.0927138
0.0925622
0.0924118
0.0922626
0.0921147
0.0919682
0.0918232
0.0916799
0.0915382
0.0913983
0.0912603
0.0911243
0.0909903
0.0908585
0.0907289
0.0906017
0.0904769
0.0903547
0.0902351
0.0901182
0.0900041
0.089893
0.0897848
0.0896797
0.100555
0.114107
0.105586
0.102617
0.101402
0.100807
0.10048
0.100282
0.100153
0.100061
0.0999897
0.0999292
0.0998736
0.0998194
0.0997641
0.0997064
0.0996453
0.0995804
0.0995112
0.0994376
0.0993596
0.0992772
0.0991905
0.0990995
0.0990044
0.0989053
0.0988023
0.0986957
0.0985855
0.0984718
0.0983549
0.0982349
0.0981118
0.0979859
0.0978573
0.0977262
0.0975925
0.0974566
0.0973184
0.0971782
0.0970361
0.0968921
0.0967464
0.0965992
0.0964504
0.0963003
0.096149
0.0959965
0.0958431
0.0956886
0.0955334
0.0953775
0.095221
0.095064
0.0949065
0.0947488
0.0945909
0.0944329
0.0942749
0.094117
0.0939593
0.0938019
0.0936449
0.0934883
0.0933324
0.0931771
0.0930226
0.092869
0.0927163
0.0925646
0.0924142
0.0922649
0.092117
0.0919705
0.0918255
0.0916821
0.0915404
0.0914004
0.0912624
0.0911264
0.0909924
0.0908606
0.090731
0.0906038
0.090479
0.0903567
0.0902371
0.0901202
0.0900062
0.089895
0.0897868
0.0896817
0.100571
0.114104
0.105581
0.102611
0.101396
0.100802
0.100476
0.10028
0.100151
0.10006
0.0999891
0.0999289
0.0998737
0.0998197
0.0997647
0.0997073
0.0996465
0.0995817
0.0995128
0.0994395
0.0993617
0.0992795
0.099193
0.0991022
0.0990073
0.0989084
0.0988056
0.098699
0.0985889
0.0984754
0.0983586
0.0982386
0.0981156
0.0979898
0.0978613
0.0977301
0.0975965
0.0974606
0.0973224
0.0971822
0.0970401
0.0968961
0.0967504
0.0966031
0.0964543
0.0963042
0.0961528
0.0960003
0.0958467
0.0956923
0.095537
0.095381
0.0952244
0.0950673
0.0949098
0.0947521
0.0945941
0.094436
0.0942779
0.09412
0.0939622
0.0938047
0.0936477
0.0934911
0.0933351
0.0931797
0.0930252
0.0928715
0.0927187
0.0925671
0.0924165
0.0922672
0.0921193
0.0919727
0.0918277
0.0916843
0.0915425
0.0914026
0.0912646
0.0911285
0.0909945
0.0908626
0.0907331
0.0906058
0.090481
0.0903588
0.0902392
0.0901223
0.0900082
0.089897
0.0897888
0.0896837
0.100586
0.114103
0.105576
0.102606
0.101391
0.100798
0.100472
0.100277
0.100149
0.100059
0.0999882
0.0999284
0.0998734
0.0998197
0.099765
0.0997078
0.0996472
0.0995827
0.099514
0.0994409
0.0993634
0.0992814
0.0991951
0.0991045
0.0990097
0.098911
0.0988083
0.0987019
0.0985919
0.0984785
0.0983618
0.0982419
0.098119
0.0979933
0.0978648
0.0977337
0.0976001
0.0974642
0.0973261
0.0971859
0.0970437
0.0968997
0.096754
0.0966067
0.0964579
0.0963078
0.0961564
0.0960038
0.0958502
0.0956957
0.0955404
0.0953844
0.0952277
0.0950706
0.094913
0.0947552
0.0945972
0.094439
0.0942809
0.0941229
0.0939651
0.0938076
0.0936504
0.0934938
0.0933377
0.0931823
0.0930277
0.092874
0.0927212
0.0925695
0.0924189
0.0922696
0.0921216
0.091975
0.0918299
0.0916865
0.0915447
0.0914048
0.0912667
0.0911306
0.0909966
0.0908647
0.0907352
0.0906079
0.0904831
0.0903609
0.0902413
0.0901244
0.0900103
0.0898991
0.0897909
0.0896858
0.100599
0.114102
0.105573
0.102601
0.101386
0.100793
0.100468
0.100274
0.100147
0.100057
0.099987
0.0999276
0.0998729
0.0998195
0.099765
0.099708
0.0996476
0.0995834
0.0995149
0.099442
0.0993647
0.0992829
0.0991968
0.0991063
0.0990118
0.0989132
0.0988106
0.0987044
0.0985945
0.0984812
0.0983646
0.0982448
0.098122
0.0979964
0.0978679
0.0977369
0.0976034
0.0974675
0.0973294
0.0971893
0.0970471
0.0969031
0.0967574
0.0966101
0.0964613
0.0963112
0.0961598
0.0960072
0.0958536
0.095699
0.0955437
0.0953876
0.0952309
0.0950737
0.0949162
0.0947583
0.0946002
0.094442
0.0942838
0.0941258
0.0939679
0.0938103
0.0936532
0.0934965
0.0933404
0.0931849
0.0930303
0.0928765
0.0927237
0.0925719
0.0924213
0.0922719
0.0921239
0.0919773
0.0918322
0.0916887
0.0915469
0.091407
0.0912689
0.0911328
0.0909987
0.0908669
0.0907373
0.09061
0.0904852
0.090363
0.0902434
0.0901265
0.0900125
0.0899013
0.089793
0.0896879
0.100611
0.114102
0.105571
0.102598
0.101382
0.100789
0.100465
0.100271
0.100144
0.100055
0.0999856
0.0999265
0.0998722
0.099819
0.0997647
0.0997079
0.0996478
0.0995838
0.0995155
0.0994428
0.0993657
0.0992841
0.0991981
0.0991079
0.0990135
0.098915
0.0988126
0.0987065
0.0985968
0.0984836
0.0983671
0.0982474
0.0981247
0.0979991
0.0978708
0.0977398
0.0976063
0.0974705
0.0973325
0.0971923
0.0970502
0.0969063
0.0967606
0.0966133
0.0964645
0.0963144
0.0961629
0.0960103
0.0958567
0.0957022
0.0955468
0.0953907
0.095234
0.0950768
0.0949192
0.0947612
0.0946031
0.0944449
0.0942867
0.0941286
0.0939707
0.0938131
0.0936558
0.0934991
0.093343
0.0931875
0.0930328
0.092879
0.0927261
0.0925743
0.0924237
0.0922743
0.0921262
0.0919796
0.0918345
0.0916909
0.0915491
0.0914091
0.091271
0.0911349
0.0910009
0.090869
0.0907394
0.0906121
0.0904873
0.0903651
0.0902455
0.0901288
0.100621
0.114102
0.105569
0.102596
0.101379
0.100786
0.100461
0.100268
0.100142
0.100053
0.099984
0.0999253
0.0998712
0.0998183
0.0997642
0.0997077
0.0996478
0.0995839
0.0995158
0.0994433
0.0993664
0.099285
0.0991992
0.0991091
0.0990149
0.0989166
0.0988143
0.0987084
0.0985988
0.0984857
0.0983693
0.0982497
0.0981271
0.0980016
0.0978733
0.0977424
0.097609
0.0974732
0.0973352
0.0971952
0.0970531
0.0969092
0.0967635
0.0966162
0.0964675
0.0963173
0.0961659
0.0960133
0.0958597
0.0957051
0.0955497
0.0953936
0.0952369
0.0950797
0.094922
0.0947641
0.094606
0.0944477
0.0942895
0.0941313
0.0939734
0.0938157
0.0936585
0.0935017
0.0933455
0.09319
0.0930353
0.0928815
0.0927286
0.0925768
0.0924261
0.0922766
0.0921285
0.0919819
0.0918367
0.0916932
0.0915514
0.0914113
0.0912732
0.0911371
0.091003
0.0908711
0.0907415
0.0906143
0.0904895
0.0903673
0.0902477
0.0901309
0.100631
0.114103
0.105568
0.102594
0.101376
0.100782
0.100458
0.100265
0.100139
0.100051
0.0999822
0.0999239
0.0998701
0.0998174
0.0997636
0.0997072
0.0996475
0.0995839
0.099516
0.0994437
0.0993669
0.0992857
0.0992
0.0991101
0.099016
0.0989179
0.0988158
0.0987099
0.0986004
0.0984875
0.0983712
0.0982517
0.0981292
0.0980038
0.0978756
0.0977447
0.0976114
0.0974757
0.0973378
0.0971977
0.0970557
0.0969118
0.0967662
0.096619
0.0964702
0.0963201
0.0961687
0.0960161
0.0958625
0.0957079
0.0955525
0.0953964
0.0952397
0.0950825
0.0949248
0.0947669
0.0946087
0.0944504
0.0942922
0.094134
0.093976
0.0938184
0.0936611
0.0935043
0.0933481
0.0931926
0.0930378
0.0928839
0.092731
0.0925791
0.0924284
0.092279
0.0921308
0.0919841
0.091839
0.0916954
0.0915536
0.0914135
0.0912754
0.0911392
0.0910052
0.0908733
0.0907437
0.0906165
0.0904917
0.0903696
0.09025
0.0901331
0.10064
0.114104
0.105568
0.102593
0.101374
0.10078
0.100455
0.100262
0.100137
0.100049
0.0999803
0.0999223
0.0998688
0.0998163
0.0997627
0.0997066
0.0996471
0.0995836
0.0995159
0.0994438
0.0993672
0.0992861
0.0992007
0.0991109
0.0990169
0.0989189
0.098817
0.0987113
0.0986019
0.0984891
0.0983729
0.0982535
0.098131
0.0980057
0.0978776
0.0977468
0.0976136
0.0974779
0.0973401
0.0972001
0.0970581
0.0969143
0.0967687
0.0966215
0.0964728
0.0963227
0.0961713
0.0960187
0.0958651
0.0957106
0.0955552
0.0953991
0.0952424
0.0950851
0.0949275
0.0947695
0.0946113
0.0944531
0.0942948
0.0941366
0.0939786
0.0938209
0.0936636
0.0935068
0.0933506
0.093195
0.0930402
0.0928863
0.0927334
0.0925815
0.0924308
0.0922813
0.0921331
0.0919864
0.0918412
0.0916977
0.0915558
0.0914157
0.0912776
0.0911414
0.0910073
0.0908755
0.0907459
0.0906187
0.0904941
0.100648
0.114105
0.105569
0.102592
0.101372
0.100777
0.100452
0.100259
0.100134
0.100046
0.0999784
0.0999206
0.0998674
0.0998152
0.0997618
0.0997059
0.0996465
0.0995832
0.0995157
0.0994437
0.0993673
0.0992864
0.0992011
0.0991115
0.0990177
0.0989198
0.098818
0.0987124
0.0986031
0.0984904
0.0983743
0.098255
0.0981327
0.0980074
0.0978794
0.0977487
0.0976155
0.09748
0.0973422
0.0972022
0.0970603
0.0969165
0.096771
0.0966238
0.0964751
0.0963251
0.0961737
0.0960212
0.0958676
0.0957131
0.0955577
0.0954016
0.0952449
0.0950876
0.09493
0.094772
0.0946138
0.0944556
0.0942973
0.0941391
0.0939811
0.0938234
0.0936661
0.0935092
0.093353
0.0931974
0.0930426
0.0928887
0.0927357
0.0925838
0.0924331
0.0922836
0.0921354
0.0919887
0.0918435
0.0916999
0.091558
0.0914179
0.0912798
0.0911436
0.0910095
0.0908777
0.0907481
0.090621
0.0904963
0.100655
0.114106
0.105569
0.102592
0.101371
0.100775
0.10045
0.100257
0.100132
0.100044
0.0999763
0.0999188
0.0998658
0.0998138
0.0997607
0.099705
0.0996458
0.0995827
0.0995153
0.0994436
0.0993673
0.0992865
0.0992014
0.0991119
0.0990183
0.0989205
0.0988188
0.0987133
0.0986042
0.0984916
0.0983756
0.0982564
0.0981342
0.098009
0.097881
0.0977504
0.0976173
0.0974818
0.0973441
0.0972042
0.0970623
0.0969186
0.0967731
0.096626
0.0964773
0.0963273
0.096176
0.0960235
0.0958699
0.0957154
0.0955601
0.095404
0.0952473
0.09509
0.0949324
0.0947744
0.0946163
0.094458
0.0942997
0.0941415
0.0939835
0.0938258
0.0936685
0.0935116
0.0933554
0.0931998
0.093045
0.092891
0.092738
0.0925861
0.0924354
0.0922858
0.0921377
0.0919909
0.0918457
0.0917021
0.0915602
0.0914201
0.091282
0.0911458
0.0910117
0.0908799
0.0907503
0.0906232
0.0904985
0.100662
0.114108
0.105571
0.102592
0.101371
0.100774
0.100448
0.100254
0.10013
0.100042
0.0999743
0.099917
0.0998642
0.0998124
0.0997595
0.0997039
0.099645
0.099582
0.0995149
0.0994432
0.0993671
0.0992865
0.0992015
0.0991122
0.0990187
0.098921
0.0988195
0.0987141
0.0986051
0.0984926
0.0983767
0.0982576
0.0981355
0.0980104
0.0978825
0.097752
0.0976189
0.0974835
0.0973458
0.097206
0.0970642
0.0969205
0.096775
0.096628
0.0964794
0.0963294
0.0961781
0.0960256
0.0958721
0.0957176
0.0955623
0.0954062
0.0952495
0.0950923
0.0949347
0.0947767
0.0946186
0.0944603
0.094302
0.0941438
0.0939858
0.0938281
0.0936708
0.0935139
0.0933576
0.0932021
0.0930472
0.0928933
0.0927403
0.0925884
0.0924376
0.0922881
0.0921399
0.0919931
0.0918479
0.0917043
0.0915624
0.0914223
0.0912841
0.091148
0.0910139
0.0908821
0.0907526
0.0906254
0.0905007
0.100668
0.11411
0.105572
0.102593
0.101371
0.100773
0.100447
0.100252
0.100127
0.10004
0.0999722
0.0999151
0.0998625
0.0998109
0.0997582
0.0997028
0.099644
0.0995813
0.0995142
0.0994428
0.0993668
0.0992864
0.0992015
0.0991123
0.0990189
0.0989214
0.09882
0.0987148
0.0986059
0.0984934
0.0983777
0.0982587
0.0981366
0.0980116
0.0978838
0.0977533
0.0976204
0.097485
0.0973474
0.0972076
0.0970659
0.0969222
0.0967768
0.0966298
0.0964813
0.0963313
0.09618
0.0960276
0.0958741
0.0957197
0.0955644
0.0954083
0.0952517
0.0950945
0.0949368
0.0947789
0.0946208
0.0944625
0.0943042
0.094146
0.093988
0.0938303
0.093673
0.0935161
0.0933599
0.0932043
0.0930495
0.0928955
0.0927425
0.0925906
0.0924398
0.0922903
0.0921421
0.0919953
0.0918501
0.0917064
0.0915646
0.0914245
0.0912863
0.0911502
0.0910161
0.0908843
0.0907548
0.0906276
0.0905029
0.100674
0.114111
0.105574
0.102594
0.101371
0.100772
0.100445
0.100251
0.100125
0.100038
0.0999702
0.0999132
0.0998608
0.0998094
0.0997568
0.0997016
0.099643
0.0995804
0.0995135
0.0994422
0.0993664
0.0992861
0.0992014
0.0991124
0.0990191
0.0989217
0.0988204
0.0987153
0.0986065
0.0984942
0.0983785
0.0982596
0.0981376
0.0980127
0.097885
0.0977546
0.0976217
0.0974864
0.0973488
0.0972091
0.0970674
0.0969239
0.0967785
0.0966315
0.096483
0.0963331
0.0961819
0.0960295
0.095876
0.0957216
0.0955663
0.0954103
0.0952537
0.0950965
0.0949389
0.094781
0.0946229
0.0944646
0.0943064
0.0941482
0.0939902
0.0938325
0.0936752
0.0935183
0.093362
0.0932065
0.0930516
0.0928977
0.0927447
0.0925927
0.092442
0.0922924
0.0921442
0.0919975
0.0918522
0.0917086
0.0915667
0.0914266
0.0912885
0.0911524
0.0910183
0.0908865
0.090757
0.0906298
0.090505
0.100679
0.114113
0.105576
0.102596
0.101372
0.100772
0.100444
0.100249
0.100124
0.100036
0.0999683
0.0999113
0.099859
0.0998077
0.0997553
0.0997003
0.0996418
0.0995794
0.0995127
0.0994416
0.0993659
0.0992858
0.0992012
0.0991123
0.0990191
0.0989219
0.0988207
0.0987157
0.098607
0.0984948
0.0983792
0.0982604
0.0981385
0.0980136
0.097886
0.0977557
0.0976229
0.0974876
0.0973501
0.0972105
0.0970689
0.0969253
0.09678
0.0966331
0.0964846
0.0963348
0.0961836
0.0960312
0.0958778
0.0957234
0.0955682
0.0954122
0.0952556
0.0950984
0.0949409
0.094783
0.0946249
0.0944666
0.0943084
0.0941502
0.0939922
0.0938345
0.0936772
0.0935204
0.0933641
0.0932086
0.0930537
0.0928998
0.0927468
0.0925949
0.0924441
0.0922945
0.0921463
0.0919996
0.0918543
0.0917107
0.0915689
0.0914288
0.0912907
0.0911545
0.0910205
0.0908887
0.0907591
0.0906319
0.0905072
0.100684
0.114115
0.105577
0.102597
0.101373
0.100772
0.100444
0.100248
0.100122
0.100034
0.0999665
0.0999095
0.0998572
0.0998061
0.0997538
0.0996989
0.0996406
0.0995784
0.0995118
0.0994408
0.0993653
0.0992853
0.0992008
0.0991121
0.099019
0.0989219
0.0988208
0.0987159
0.0986074
0.0984953
0.0983798
0.098261
0.0981392
0.0980145
0.0978869
0.0977567
0.0976239
0.0974888
0.0973513
0.0972118
0.0970702
0.0969267
0.0967815
0.0966346
0.0964861
0.0963363
0.0961852
0.0960329
0.0958795
0.0957251
0.0955699
0.095414
0.0952574
0.0951003
0.0949427
0.0947849
0.0946268
0.0944686
0.0943103
0.0941522
0.0939942
0.0938365
0.0936792
0.0935224
0.0933662
0.0932106
0.0930558
0.0929018
0.0927489
0.0925969
0.0924461
0.0922966
0.0921484
0.0920017
0.0918564
0.0917128
0.091571
0.0914309
0.0912928
0.0911567
0.0910227
0.0908909
0.0907613
0.0906341
0.0905093
0.100689
0.114117
0.105579
0.102599
0.101374
0.100773
0.100444
0.100247
0.100121
0.100032
0.0999647
0.0999077
0.0998555
0.0998044
0.0997522
0.0996975
0.0996393
0.0995772
0.0995108
0.0994399
0.0993646
0.0992847
0.0992004
0.0991118
0.0990189
0.0989219
0.0988209
0.0987161
0.0986076
0.0984956
0.0983802
0.0982616
0.0981399
0.0980152
0.0978877
0.0977576
0.0976249
0.0974898
0.0973524
0.0972129
0.0970714
0.096928
0.0967828
0.0966359
0.0964876
0.0963378
0.0961867
0.0960344
0.0958811
0.0957267
0.0955716
0.0954157
0.0952591
0.095102
0.0949445
0.0947866
0.0946286
0.0944704
0.0943122
0.0941541
0.0939961
0.0938385
0.0936812
0.0935244
0.0933681
0.0932126
0.0930578
0.0929038
0.0927509
0.0925989
0.0924482
0.0922986
0.0921505
0.0920037
0.0918585
0.0917149
0.0915731
0.091433
0.0912949
0.0911588
0.0910248
0.090893
0.0907634
0.0906362
0.0905113
0.100694
0.114118
0.105582
0.102601
0.101375
0.100774
0.100444
0.100247
0.10012
0.100031
0.0999631
0.099906
0.0998538
0.0998027
0.0997506
0.099696
0.099638
0.099576
0.0995097
0.099439
0.0993638
0.0992841
0.0991999
0.0991114
0.0990186
0.0989217
0.0988209
0.0987162
0.0986078
0.0984959
0.0983806
0.0982621
0.0981404
0.0980158
0.0978884
0.0977584
0.0976257
0.0974907
0.0973534
0.097214
0.0970725
0.0969291
0.096784
0.0966372
0.0964889
0.0963391
0.0961881
0.0960358
0.0958825
0.0957283
0.0955731
0.0954172
0.0952607
0.0951037
0.0949462
0.0947884
0.0946303
0.0944721
0.094314
0.0941559
0.0939979
0.0938403
0.093683
0.0935262
0.09337
0.0932145
0.0930597
0.0929058
0.0927528
0.0926009
0.0924501
0.0923006
0.0921525
0.0920057
0.0918605
0.091717
0.0915751
0.0914351
0.091297
0.0911609
0.0910269
0.0908951
0.0907655
0.0906383
0.0905134
0.100698
0.11412
0.105584
0.102603
0.101377
0.100775
0.100444
0.100246
0.100119
0.10003
0.0999616
0.0999044
0.0998521
0.0998011
0.099749
0.0996945
0.0996366
0.0995747
0.0995086
0.099438
0.0993629
0.0992833
0.0991993
0.0991109
0.0990182
0.0989215
0.0988207
0.0987162
0.0986079
0.0984961
0.0983809
0.0982625
0.0981409
0.0980164
0.0978891
0.0977591
0.0976265
0.0974915
0.0973543
0.0972149
0.0970735
0.0969302
0.0967851
0.0966384
0.0964901
0.0963404
0.0961894
0.0960372
0.0958839
0.0957297
0.0955746
0.0954187
0.0952622
0.0951052
0.0949478
0.09479
0.094632
0.0944738
0.0943157
0.0941576
0.0939997
0.0938421
0.0936848
0.093528
0.0933718
0.0932163
0.0930616
0.0929077
0.0927547
0.0926028
0.0924521
0.0923026
0.0921544
0.0920077
0.0918626
0.091719
0.0915772
0.0914372
0.0912991
0.091163
0.091029
0.0908972
0.0907676
0.0906404
0.0905155
0.100703
0.114122
0.105586
0.102605
0.101379
0.100776
0.100444
0.100246
0.100118
0.100029
0.0999603
0.0999029
0.0998505
0.0997995
0.0997475
0.099693
0.0996352
0.0995734
0.0995074
0.0994369
0.099362
0.0992825
0.0991986
0.0991103
0.0990178
0.0989212
0.0988205
0.0987161
0.0986079
0.0984962
0.0983811
0.0982627
0.0981413
0.0980168
0.0978896
0.0977597
0.0976272
0.0974923
0.0973551
0.0972158
0.0970744
0.0969312
0.0967861
0.0966394
0.0964912
0.0963416
0.0961906
0.0960384
0.0958852
0.095731
0.095576
0.0954201
0.0952637
0.0951067
0.0949493
0.0947915
0.0946335
0.0944754
0.0943173
0.0941592
0.0940014
0.0938438
0.0936865
0.0935298
0.0933736
0.0932181
0.0930634
0.0929095
0.0927566
0.0926047
0.092454
0.0923045
0.0921564
0.0920097
0.0918645
0.091721
0.0915792
0.0914392
0.0913012
0.0911651
0.0910311
0.0908993
0.0907697
0.0906424
0.0905175
0.100707
0.114123
0.105588
0.102608
0.101381
0.100777
0.100445
0.100246
0.100118
0.100028
0.0999592
0.0999016
0.099849
0.0997979
0.0997459
0.0996915
0.0996337
0.0995721
0.0995061
0.0994358
0.099361
0.0992816
0.0991978
0.0991097
0.0990173
0.0989208
0.0988202
0.0987159
0.0986078
0.0984962
0.0983812
0.0982629
0.0981416
0.0980172
0.09789
0.0977602
0.0976278
0.0974929
0.0973558
0.0972166
0.0970753
0.0969321
0.0967871
0.0966404
0.0964923
0.0963427
0.0961917
0.0960396
0.0958864
0.0957323
0.0955773
0.0954215
0.0952651
0.0951081
0.0949507
0.094793
0.094635
0.094477
0.0943189
0.0941608
0.094003
0.0938454
0.0936882
0.0935315
0.0933753
0.0932198
0.0930651
0.0929113
0.0927584
0.0926065
0.0924558
0.0923064
0.0921583
0.0920116
0.0918665
0.091723
0.0915812
0.0914412
0.0913032
0.0911671
0.0910332
0.0909013
0.0907717
0.0906444
0.0905195
0.100711
0.114124
0.10559
0.10261
0.101383
0.100779
0.100446
0.100247
0.100118
0.100027
0.0999582
0.0999003
0.0998476
0.0997964
0.0997444
0.09969
0.0996323
0.0995707
0.0995048
0.0994346
0.0993599
0.0992807
0.099197
0.099109
0.0990167
0.0989203
0.0988199
0.0987156
0.0986077
0.0984962
0.0983813
0.0982631
0.0981418
0.0980175
0.0978904
0.0977606
0.0976283
0.0974935
0.0973565
0.0972173
0.097076
0.0969329
0.096788
0.0966414
0.0964932
0.0963437
0.0961928
0.0960407
0.0958876
0.0957335
0.0955785
0.0954228
0.0952664
0.0951094
0.0949521
0.0947944
0.0946365
0.0944784
0.0943203
0.0941623
0.0940045
0.093847
0.0936898
0.0935331
0.093377
0.0932215
0.0930668
0.092913
0.0927601
0.0926083
0.0924576
0.0923082
0.0921601
0.0920135
0.0918684
0.0917249
0.0915831
0.0914432
0.0913052
0.0911691
0.0910352
0.0909033
0.0907737
0.0906464
0.0905215
0.100715
0.114126
0.105591
0.102612
0.101385
0.100781
0.100447
0.100247
0.100118
0.100027
0.0999575
0.0998993
0.0998464
0.099795
0.0997429
0.0996885
0.0996308
0.0995693
0.0995035
0.0994334
0.0993588
0.0992796
0.0991961
0.0991082
0.099016
0.0989197
0.0988194
0.0987153
0.0986074
0.098496
0.0983812
0.0982631
0.0981419
0.0980177
0.0978907
0.097761
0.0976287
0.097494
0.0973571
0.0972179
0.0970767
0.0969336
0.0967888
0.0966422
0.0964941
0.0963446
0.0961938
0.0960418
0.0958887
0.0957346
0.0955797
0.095424
0.0952676
0.0951107
0.0949534
0.0947957
0.0946378
0.0944798
0.0943218
0.0941638
0.094006
0.0938485
0.0936914
0.0935347
0.0933786
0.0932231
0.0930685
0.0929147
0.0927618
0.09261
0.0924594
0.09231
0.0921619
0.0920153