/*--------------------------------*- C++ -*----------------------------------*\
  =========                 |
  \\      /  F ield         | OpenFOAM: The Open Source CFD Toolbox
   \\    /   O peration     | Website:  https://openfoam.org
    \\  /    A nd           | Version:  10
     \\/     M anipulation  |
\*---------------------------------------------------------------------------*/
FoamFile
{
    format      ascii;
    class       volScalarField;
    location    "36000";
    object      p;
}
// * * * * * * * * * * * * * * * * * * * * * * * * * * * * * * * * * * * * * //

dimensions      [0 2 -2 0 0 0 0];

internalField   nonuniform List<scalar> 
17808
(
12.1237
12.1522
12.1685
12.1755
12.18
12.1812
12.1802
12.1775
12.1734
12.168
12.1617
12.1546
12.1466
12.1379
12.1286
12.1186
12.1081
12.0971
12.0854
12.0733
12.0606
12.0475
12.0338
12.0197
12.005
11.9899
11.9743
11.9582
11.9416
11.9245
11.9069
11.8888
11.8702
11.8511
11.8314
11.8113
11.7906
11.7694
11.7476
11.7253
11.7025
11.6791
11.6551
11.6305
11.6053
11.5796
11.5532
11.5263
11.4987
11.4704
11.4416
11.412
11.3819
11.351
11.3195
11.2872
11.2543
11.2206
11.1862
11.1511
11.1152
11.0786
11.0411
11.0029
10.9639
10.924
10.8834
10.8419
10.7995
10.7562
10.7121
10.6671
10.6212
10.5743
10.5265
10.4777
10.428
10.3772
10.3255
10.2727
10.2189
10.1641
10.1082
10.0512
9.99308
9.93386
9.87351
9.81199
9.74931
9.68544
9.62037
9.55407
12.2007
12.2044
12.1984
12.1944
12.1918
12.1884
12.1844
12.1797
12.1742
12.168
12.1611
12.1535
12.1453
12.1365
12.127
12.117
12.1065
12.0954
12.0838
12.0717
12.059
12.0459
12.0323
12.0182
12.0036
11.9885
11.9729
11.9569
11.9403
11.9232
11.9057
11.8876
11.8691
11.85
11.8304
11.8103
11.7897
11.7685
11.7468
11.7245
11.7017
11.6783
11.6543
11.6298
11.6047
11.5789
11.5526
11.5257
11.4981
11.4699
11.441
11.4115
11.3814
11.3505
11.319
11.2868
11.2539
11.2202
11.1859
11.1507
11.1149
11.0782
11.0408
11.0026
10.9636
10.9238
10.8831
10.8416
10.7992
10.756
10.7119
10.6669
10.6209
10.5741
10.5263
10.4775
10.4278
10.3771
10.3253
10.2726
10.2188
10.1639
10.108
10.051
9.99293
9.93371
9.87336
9.81185
9.74917
9.6853
9.62023
9.55393
12.2367
12.2338
12.2244
12.218
12.2112
12.204
12.1967
12.1892
12.1815
12.1735
12.1652
12.1565
12.1474
12.1379
12.1279
12.1175
12.1066
12.0953
12.0835
12.0712
12.0585
12.0452
12.0316
12.0174
12.0028
11.9877
11.9721
11.956
11.9395
11.9224
11.9049
11.8868
11.8683
11.8492
11.8297
11.8096
11.7889
11.7678
11.7461
11.7238
11.701
11.6777
11.6537
11.6292
11.6041
11.5784
11.5521
11.5252
11.4976
11.4694
11.4406
11.4111
11.381
11.3501
11.3186
11.2864
11.2535
11.2199
11.1855
11.1504
11.1146
11.0779
11.0405
11.0023
10.9633
10.9235
10.8828
10.8414
10.799
10.7558
10.7117
10.6667
10.6207
10.5739
10.5261
10.4773
10.4276
10.3769
10.3251
10.2724
10.2186
10.1638
10.1078
10.0508
9.99275
9.93353
9.87318
9.81167
9.74899
9.68512
9.62005
9.55375
12.238
12.2349
12.2282
12.2232
12.2168
12.2097
12.2024
12.1945
12.1864
12.1778
12.1689
12.1597
12.15
12.14
12.1296
12.1188
12.1076
12.096
12.084
12.0715
12.0586
12.0452
12.0314
12.0172
12.0025
11.9873
11.9717
11.9556
11.939
11.9219
11.9043
11.8863
11.8677
11.8487
11.8291
11.809
11.7884
11.7672
11.7455
11.7233
11.7005
11.6772
11.6532
11.6287
11.6036
11.5779
11.5516
11.5247
11.4972
11.469
11.4402
11.4107
11.3806
11.3498
11.3183
11.2861
11.2532
11.2196
11.1852
11.1501
11.1143
11.0776
11.0402
11.0021
10.9631
10.9232
10.8826
10.8411
10.7988
10.7555
10.7114
10.6664
10.6205
10.5737
10.5259
10.4771
10.4274
10.3767
10.3249
10.2722
10.2184
10.1636
10.1076
10.0507
9.99256
9.93334
9.87299
9.81148
9.7488
9.68493
9.61986
9.55356
12.2392
12.2355
12.2297
12.2246
12.2182
12.2115
12.2043
12.1966
12.1884
12.1799
12.1709
12.1615
12.1517
12.1416
12.131
12.12
12.1086
12.0968
12.0846
12.072
12.0589
12.0455
12.0315
12.0172
12.0024
11.9872
11.9715
11.9553
11.9387
11.9215
11.904
11.8859
11.8673
11.8482
11.8286
11.8085
11.7879
11.7668
11.7451
11.7228
11.7
11.6767
11.6528
11.6283
11.6032
11.5775
11.5512
11.5243
11.4968
11.4686
11.4398
11.4104
11.3802
11.3494
11.3179
11.2858
11.2529
11.2193
11.1849
11.1498
11.114
11.0774
11.04
11.0018
10.9628
10.923
10.8824
10.8409
10.7985
10.7553
10.7112
10.6662
10.6203
10.5735
10.5257
10.4769
10.4272
10.3765
10.3247
10.272
10.2182
10.1634
10.1075
10.0505
9.99238
9.93316
9.87281
9.8113
9.74862
9.68476
9.61968
9.55338
12.2439
12.2397
12.234
12.2284
12.2217
12.2147
12.2072
12.1992
12.1909
12.1821
12.1729
12.1634
12.1534
12.1431
12.1323
12.1212
12.1096
12.0977
12.0853
12.0726
12.0594
12.0458
12.0318
12.0174
12.0025
11.9872
11.9714
11.9552
11.9385
11.9214
11.9037
11.8856
11.867
11.8479
11.8283
11.8082
11.7875
11.7664
11.7447
11.7224
11.6997
11.6763
11.6524
11.6279
11.6028
11.5771
11.5508
11.5239
11.4964
11.4683
11.4395
11.41
11.3799
11.3491
11.3176
11.2854
11.2526
11.219
11.1846
11.1495
11.1137
11.0771
11.0397
11.0015
10.9626
10.9228
10.8821
10.8407
10.7983
10.7551
10.711
10.666
10.6201
10.5733
10.5255
10.4767
10.427
10.3763
10.3246
10.2718
10.218
10.1632
10.1073
10.0503
9.99221
9.933
9.87264
9.81114
9.74846
9.68459
9.61952
9.55322
12.2477
12.2432
12.2376
12.2318
12.225
12.2178
12.2101
12.202
12.1934
12.1844
12.1751
12.1653
12.1552
12.1447
12.1338
12.1225
12.1108
12.0987
12.0862
12.0734
12.0601
12.0464
12.0323
12.0178
12.0028
11.9874
11.9716
11.9553
11.9385
11.9213
11.9036
11.8855
11.8668
11.8477
11.8281
11.8079
11.7873
11.7661
11.7444
11.7221
11.6993
11.676
11.6521
11.6276
11.6025
11.5768
11.5505
11.5236
11.4961
11.4679
11.4392
11.4097
11.3796
11.3488
11.3173
11.2852
11.2523
11.2187
11.1844
11.1493
11.1134
11.0769
11.0395
11.0013
10.9623
10.9225
10.8819
10.8404
10.7981
10.7549
10.7108
10.6658
10.6199
10.5731
10.5253
10.4765
10.4268
10.3761
10.3244
10.2716
10.2179
10.163
10.1071
10.0501
9.99205
9.93283
9.87248
9.81098
9.7483
9.68443
9.61936
9.55306
12.2499
12.2451
12.2398
12.2339
12.2271
12.2199
12.2121
12.2039
12.1953
12.1863
12.1768
12.167
12.1567
12.1461
12.1351
12.1237
12.1119
12.0997
12.0871
12.0742
12.0608
12.047
12.0328
12.0182
12.0032
11.9877
11.9718
11.9554
11.9386
11.9214
11.9037
11.8855
11.8668
11.8476
11.828
11.8078
11.7871
11.7659
11.7442
11.7219
11.6991
11.6757
11.6518
11.6273
11.6022
11.5765
11.5502
11.5233
11.4958
11.4677
11.4389
11.4094
11.3793
11.3485
11.3171
11.2849
11.252
11.2184
11.1841
11.149
11.1132
11.0766
11.0392
11.0011
10.9621
10.9223
10.8817
10.8402
10.7979
10.7547
10.7106
10.6656
10.6197
10.5729
10.5251
10.4764
10.4266
10.3759
10.3242
10.2715
10.2177
10.1629
10.107
10.05
9.99189
9.93268
9.87233
9.81083
9.74815
9.68428
9.61921
9.55291
12.2515
12.2467
12.2414
12.2354
12.2287
12.2214
12.2137
12.2054
12.1968
12.1877
12.1782
12.1683
12.158
12.1473
12.1362
12.1247
12.1129
12.1006
12.088
12.0749
12.0615
12.0476
12.0334
12.0187
12.0036
11.9881
11.9721
11.9557
11.9388
11.9215
11.9038
11.8855
11.8668
11.8476
11.8279
11.8077
11.787
11.7658
11.744
11.7218
11.6989
11.6755
11.6516
11.6271
11.602
11.5763
11.55
11.5231
11.4956
11.4674
11.4386
11.4092
11.3791
11.3483
11.3168
11.2847
11.2518
11.2182
11.1839
11.1488
11.113
11.0764
11.039
11.0009
10.9619
10.9221
10.8815
10.84
10.7977
10.7545
10.7104
10.6654
10.6195
10.5727
10.5249
10.4762
10.4265
10.3758
10.3241
10.2713
10.2175
10.1627
10.1068
10.0498
9.99175
9.93253
9.87219
9.81068
9.74801
9.68414
9.61907
9.55277
12.2531
12.2481
12.243
12.2369
12.2301
12.2228
12.215
12.2068
12.1981
12.1889
12.1794
12.1694
12.1591
12.1483
12.1372
12.1257
12.1138
12.1015
12.0888
12.0757
12.0622
12.0483
12.0339
12.0192
12.004
11.9885
11.9725
11.956
11.9391
11.9218
11.9039
11.8857
11.8669
11.8477
11.8279
11.8077
11.787
11.7657
11.744
11.7217
11.6988
11.6754
11.6515
11.6269
11.6018
11.5761
11.5498
11.5229
11.4954
11.4672
11.4384
11.409
11.3789
11.3481
11.3166
11.2844
11.2516
11.218
11.1837
11.1486
11.1128
11.0762
11.0388
11.0007
10.9617
10.9219
10.8813
10.8399
10.7975
10.7543
10.7103
10.6653
10.6194
10.5725
10.5248
10.476
10.4263
10.3756
10.3239
10.2712
10.2174
10.1626
10.1067
10.0497
9.99161
9.9324
9.87205
9.81054
9.74787
9.684
9.61893
9.55263
12.2544
12.2493
12.2442
12.2381
12.2313
12.224
12.2162
12.2079
12.1992
12.19
12.1805
12.1705
12.1601
12.1493
12.1381
12.1266
12.1146
12.1022
12.0895
12.0764
12.0628
12.0488
12.0345
12.0197
12.0045
11.9889
11.9728
11.9563
11.9394
11.922
11.9042
11.8858
11.8671
11.8478
11.828
11.8078
11.787
11.7657
11.7439
11.7216
11.6988
11.6753
11.6514
11.6268
11.6017
11.576
11.5497
11.5227
11.4952
11.467
11.4382
11.4088
11.3787
11.3479
11.3164
11.2843
11.2514
11.2178
11.1835
11.1484
11.1126
11.076
11.0386
11.0005
10.9615
10.9218
10.8811
10.8397
10.7974
10.7542
10.7101
10.6651
10.6192
10.5724
10.5246
10.4759
10.4262
10.3755
10.3238
10.271
10.2173
10.1624
10.1065
10.0496
9.99147
9.93226
9.87192
9.81042
9.74774
9.68388
9.6188
9.55251
12.2555
12.2503
12.2453
12.2391
12.2324
12.225
12.2172
12.2089
12.2002
12.191
12.1814
12.1714
12.161
12.1501
12.1389
12.1273
12.1153
12.103
12.0902
12.077
12.0634
12.0494
12.035
12.0202
12.005
11.9893
11.9732
11.9567
11.9397
11.9223
11.9044
11.8861
11.8672
11.8479
11.8282
11.8079
11.7871
11.7658
11.744
11.7216
11.6987
11.6753
11.6513
11.6267
11.6016
11.5759
11.5496
11.5226
11.4951
11.4669
11.4381
11.4086
11.3785
11.3477
11.3163
11.2841
11.2512
11.2176
11.1833
11.1482
11.1124
11.0758
11.0385
11.0003
10.9614
10.9216
10.881
10.8395
10.7972
10.754
10.7099
10.665
10.6191
10.5722
10.5245
10.4757
10.426
10.3753
10.3236
10.2709
10.2171
10.1623
10.1064
10.0494
9.99135
9.93214
9.8718
9.81029
9.74762
9.68376
9.61868
9.55239
12.2564
12.2512
12.2462
12.24
12.2332
12.2259
12.2181
12.2098
12.201
12.1918
12.1822
12.1721
12.1617
12.1509
12.1397
12.128
12.116
12.1036
12.0908
12.0776
12.064
12.0499
12.0355
12.0207
12.0054
11.9897
11.9736
11.957
11.94
11.9226
11.9047
11.8863
11.8674
11.8481
11.8283
11.808
11.7872
11.7659
11.744
11.7217
11.6988
11.6753
11.6513
11.6267
11.6016
11.5758
11.5495
11.5226
11.495
11.4668
11.438
11.4085
11.3784
11.3476
11.3161
11.284
11.2511
11.2175
11.1832
11.1481
11.1123
11.0757
11.0383
11.0002
10.9612
10.9214
10.8808
10.8394
10.7971
10.7539
10.7098
10.6648
10.6189
10.5721
10.5243
10.4756
10.4259
10.3752
10.3235
10.2708
10.217
10.1622
10.1063
10.0493
9.99123
9.93203
9.87168
9.81018
9.74751
9.68365
9.61857
9.55228
12.2572
12.2519
12.247
12.2408
12.234
12.2267
12.2188
12.2105
12.2017
12.1925
12.1829
12.1728
12.1624
12.1515
12.1403
12.1287
12.1166
12.1042
12.0914
12.0781
12.0645
12.0504
12.036
12.0211
12.0058
11.9901
11.974
11.9574
11.9403
11.9229
11.9049
11.8865
11.8677
11.8483
11.8285
11.8082
11.7873
11.766
11.7441
11.7217
11.6988
11.6753
11.6513
11.6267
11.6016
11.5758
11.5495
11.5225
11.4949
11.4667
11.4379
11.4084
11.3783
11.3475
11.316
11.2838
11.251
11.2174
11.183
11.148
11.1122
11.0756
11.0382
11.0001
10.9611
10.9213
10.8807
10.8392
10.7969
10.7537
10.7097
10.6647
10.6188
10.572
10.5242
10.4755
10.4258
10.3751
10.3234
10.2707
10.2169
10.1621
10.1062
10.0492
9.99112
9.93192
9.87158
9.81008
9.74741
9.68354
9.61847
9.55217
12.2579
12.2526
12.2477
12.2414
12.2347
12.2273
12.2195
12.2112
12.2024
12.1932
12.1835
12.1735
12.163
12.1521
12.1409
12.1292
12.1172
12.1047
12.0919
12.0786
12.065
12.0509
12.0364
12.0215
12.0062
11.9905
11.9743
11.9577
11.9407
11.9232
11.9052
11.8868
11.8679
11.8485
11.8287
11.8083
11.7875
11.7661
11.7442
11.7218
11.6989
11.6754
11.6514
11.6267
11.6016
11.5758
11.5494
11.5225
11.4949
11.4667
11.4379
11.4084
11.3782
11.3474
11.3159
11.2838
11.2509
11.2173
11.1829
11.1479
11.1121
11.0755
11.0381
10.9999
10.961
10.9212
10.8806
10.8391
10.7968
10.7536
10.7096
10.6646
10.6187
10.5719
10.5241
10.4754
10.4257
10.375
10.3233
10.2706
10.2168
10.162
10.1061
10.0491
9.99102
9.93182
9.87148
9.80998
9.74731
9.68345
9.61838
9.55208
12.2585
12.2532
12.2483
12.242
12.2353
12.2279
12.2201
12.2117
12.2029
12.1937
12.1841
12.174
12.1635
12.1527
12.1414
12.1297
12.1177
12.1052
12.0923
12.0791
12.0654
12.0513
12.0368
12.0219
12.0066
11.9908
11.9747
11.958
11.941
11.9234
11.9055
11.887
11.8681
11.8487
11.8289
11.8085
11.7876
11.7663
11.7444
11.7219
11.699
11.6755
11.6514
11.6268
11.6016
11.5758
11.5495
11.5225
11.4949
11.4667
11.4378
11.4084
11.3782
11.3474
11.3159
11.2837
11.2508
11.2172
11.1829
11.1478
11.112
11.0754
11.038
10.9998
10.9609
10.9211
10.8805
10.839
10.7967
10.7535
10.7095
10.6645
10.6186
10.5718
10.524
10.4753
10.4256
10.3749
10.3232
10.2705
10.2167
10.1619
10.106
10.049
9.99093
9.93173
9.87139
9.80989
9.74722
9.68336
9.61829
9.55199
12.259
12.2537
12.2488
12.2426
12.2358
12.2285
12.2206
12.2123
12.2035
12.1942
12.1846
12.1745
12.164
12.1532
12.1419
12.1302
12.1181
12.1056
12.0928
12.0795
12.0658
12.0517
12.0372
12.0223
12.007
11.9912
11.975
11.9583
11.9413
11.9237
11.9057
11.8873
11.8684
11.849
11.8291
11.8087
11.7878
11.7664
11.7445
11.7221
11.6991
11.6756
11.6515
11.6269
11.6017
11.5759
11.5495
11.5225
11.4949
11.4667
11.4378
11.4083
11.3782
11.3474
11.3159
11.2837
11.2508
11.2171
11.1828
11.1477
11.1119
11.0753
11.0379
10.9998
10.9608
10.921
10.8804
10.839
10.7966
10.7534
10.7094
10.6644
10.6185
10.5717
10.5239
10.4752
10.4255
10.3748
10.3231
10.2704
10.2166
10.1618
10.1059
10.0489
9.99085
9.93165
9.87131
9.80981
12.2595
12.2542
12.2493
12.2431
12.2363
12.2289
12.2211
12.2127
12.2039
12.1947
12.185
12.175
12.1645
12.1536
12.1423
12.1306
12.1185
12.1061
12.0932
12.0799
12.0662
12.0521
12.0376
12.0226
12.0073
11.9915
11.9753
11.9586
11.9416
11.924
11.906
11.8875
11.8686
11.8492
11.8293
11.8089
11.788
11.7666
11.7447
11.7222
11.6992
11.6757
11.6516
11.627
11.6018
11.576
11.5496
11.5226
11.495
11.4667
11.4379
11.4084
11.3782
11.3474
11.3158
11.2836
11.2507
11.2171
11.1828
11.1477
11.1119
11.0753
11.0379
10.9997
10.9607
10.921
10.8803
10.8389
10.7966
10.7534
10.7093
10.6643
10.6184
10.5716
10.5238
10.4751
10.4254
10.3747
10.323
10.2703
10.2165
10.1617
10.1058
10.0489
9.99078
9.93157
9.87123
9.80973
12.26
12.2547
12.2497
12.2435
12.2367
12.2294
12.2215
12.2132
12.2043
12.1951
12.1854
12.1754
12.1649
12.154
12.1427
12.131
12.1189
12.1064
12.0935
12.0802
12.0665
12.0524
12.0379
12.023
12.0076
11.9918
11.9756
11.9589
11.9418
11.9243
11.9063
11.8878
11.8688
11.8494
11.8295
11.8091
11.7882
11.7668
11.7448
11.7224
11.6994
11.6758
11.6517
11.6271
11.6018
11.576
11.5496
11.5226
11.495
11.4668
11.4379
11.4084
11.3782
11.3474
11.3158
11.2836
11.2507
11.2171
11.1828
11.1477
11.1118
11.0752
11.0378
10.9997
10.9607
10.9209
10.8803
10.8388
10.7965
10.7533
10.7092
10.6643
10.6184
10.5715
10.5238
10.4751
10.4253
10.3747
10.323
10.2702
10.2165
10.1617
10.1058
10.0488
9.99071
9.93151
9.87116
9.80966
12.2604
12.2551
12.2501
12.2439
12.2371
12.2298
12.2219
12.2135
12.2047
12.1955
12.1858
12.1757
12.1653
12.1544
12.1431
12.1314
12.1193
12.1068
12.0939
12.0806
12.0669
12.0528
12.0382
12.0233
12.0079
11.9921
11.9759
11.9592
11.9421
11.9245
11.9065
11.888
11.8691
11.8496
11.8297
11.8093
11.7884
11.7669
11.745
11.7225
11.6995
11.676
11.6519
11.6272
11.602
11.5761
11.5497
11.5227
11.4951
11.4668
11.4379
11.4084
11.3782
11.3474
11.3159
11.2837
11.2507
11.2171
11.1827
11.1477
11.1118
11.0752
11.0378
10.9996
10.9607
10.9209
10.8803
10.8388
10.7965
10.7533
10.7092
10.6642
10.6183
10.5715
10.5237
10.475
10.4253
10.3746
10.3229
10.2702
10.2164
10.1616
10.1057
10.0487
9.99065
12.2607
12.2554
12.2505
12.2443
12.2375
12.2301
12.2222
12.2139
12.2051
12.1958
12.1862
12.1761
12.1656
12.1547
12.1434
12.1317
12.1196
12.1071
12.0942
12.0809
12.0672
12.0531
12.0385
12.0236
12.0082
11.9924
11.9761
11.9595
11.9423
11.9248
11.9067
11.8882
11.8693
11.8498
11.8299
11.8095
11.7885
11.7671
11.7452
11.7227
11.6997
11.6761
11.652
11.6273
11.6021
11.5762
11.5498
11.5228
11.4952
11.4669
11.438
11.4085
11.3783
11.3474
11.3159
11.2837
11.2508
11.2171
11.1828
11.1477
11.1118
11.0752
11.0378
10.9996
10.9606
10.9209
10.8802
10.8388
10.7964
10.7532
10.7092
10.6642
10.6183
10.5715
10.5237
10.475
10.4253
10.3746
10.3229
10.2701
10.2164
10.1615
10.1057
10.0487
9.9906
12.2611
12.2558
12.2508
12.2446
12.2378
12.2305
12.2226
12.2142
12.2054
12.1962
12.1865
12.1764
12.1659
12.155
12.1437
12.132
12.1199
12.1074
12.0945
12.0812
12.0675
12.0533
12.0388
12.0238
12.0085
11.9926
11.9764
11.9597
11.9426
11.925
11.907
11.8885
11.8695
11.85
11.8301
11.8097
11.7887
11.7673
11.7453
11.7228
11.6998
11.6762
11.6521
11.6274
11.6022
11.5764
11.5499
11.5229
11.4953
11.467
11.4381
11.4086
11.3784
11.3475
11.316
11.2837
11.2508
11.2172
11.1828
11.1477
11.1118
11.0752
11.0378
10.9996
10.9606
10.9208
10.8802
10.8387
10.7964
10.7532
10.7091
10.6642
10.6183
10.5714
10.5237
10.4749
10.4252
10.3745
10.3228
10.2701
10.2163
10.1615
10.1056
10.0486
9.99056
12.2614
12.2561
12.2511
12.2449
12.2381
12.2308
12.2229
12.2145
12.2057
12.1965
12.1868
12.1767
12.1662
12.1553
12.144
12.1323
12.1202
12.1077
12.0948
12.0815
12.0677
12.0536
12.0391
12.0241
12.0087
11.9929
11.9766
11.96
11.9428
11.9252
11.9072
11.8887
11.8697
11.8502
11.8303
11.8099
11.7889
11.7675
11.7455
11.723
11.7
11.6764
11.6523
11.6276
11.6023
11.5765
11.55
11.523
11.4954
11.4671
11.4382
11.4086
11.3784
11.3476
11.316
11.2838
11.2508
11.2172
11.1828
11.1477
11.1119
11.0752
11.0378
10.9996
10.9607
10.9209
10.8802
10.8388
10.7964
10.7532
10.7091
10.6641
10.6182
10.5714
10.5236
10.4749
10.4252
10.3745
10.3228
10.2701
10.2163
10.1615
10.1056
10.0486
9.99053
12.2617
12.2564
12.2514
12.2452
12.2384
12.2311
12.2232
12.2148
12.206
12.1968
12.1871
12.177
12.1665
12.1556
12.1443
12.1326
12.1205
12.108
12.095
12.0817
12.068
12.0539
12.0393
12.0244
12.009
11.9931
11.9769
11.9602
11.9431
11.9255
11.9074
11.8889
11.8699
11.8504
11.8305
11.8101
11.7891
11.7676
11.7457
11.7232
11.7001
11.6766
11.6524
11.6277
11.6025
11.5766
11.5502
11.5231
11.4955
11.4672
11.4383
11.4087
11.3785
11.3476
11.3161
11.2839
11.2509
11.2173
11.1829
11.1478
11.1119
11.0753
11.0379
10.9997
10.9607
10.9209
10.8802
10.8388
10.7964
10.7532
10.7091
10.6641
10.6182
10.5714
10.5236
10.4749
10.4252
10.3745
10.3228
10.2701
10.2163
10.1615
10.1056
10.0486
9.99052
12.2619
12.2567
12.2517
12.2455
12.2387
12.2313
12.2235
12.2151
12.2063
12.197
12.1874
12.1773
12.1668
12.1559
12.1445
12.1328
12.1207
12.1082
12.0953
12.082
12.0683
12.0541
12.0396
12.0246
12.0092
11.9934
11.9771
11.9604
11.9433
11.9257
11.9076
11.8891
11.8701
11.8506
11.8307
11.8102
11.7893
11.7678
11.7458
11.7233
11.7003
11.6767
11.6526
11.6279
11.6026
11.5767
11.5503
11.5232
11.4956
11.4673
11.4384
11.4088
11.3786
11.3477
11.3162
11.2839
11.251
11.2173
11.1829
11.1478
11.112
11.0753
11.0379
10.9997
10.9607
10.9209
10.8803
10.8388
10.7965
10.7532
10.7092
10.6642
10.6183
10.5714
10.5236
10.4749
10.4252
10.3745
10.3228
10.2701
10.2163
10.1615
10.1056
10.0486
9.99051
12.2622
12.2569
12.252
12.2457
12.239
12.2316
12.2237
12.2154
12.2065
12.1973
12.1876
12.1775
12.167
12.1561
12.1448
12.1331
12.121
12.1085
12.0955
12.0822
12.0685
12.0544
12.0398
12.0248
12.0094
11.9936
11.9773
11.9606
11.9435
11.9259
11.9078
11.8893
11.8703
11.8508
11.8309
11.8104
11.7895
11.768
11.746
11.7235
11.7005
11.6769
11.6527
11.628
11.6027
11.5769
11.5504
11.5234
11.4957
11.4674
11.4385
11.4089
11.3787
11.3478
11.3163
11.284
11.2511
11.2174
11.183
11.1479
11.112
11.0754
11.038
10.9998
10.9608
10.921
10.8803
10.8388
10.7965
10.7533
10.7092
10.6642
10.6183
10.5714
10.5237
10.4749
10.4252
10.3745
10.3228
10.2701
10.2163
10.1615
10.1056
10.0486
9.99052
12.2625
12.2572
12.2522
12.246
12.2392
12.2318
12.224
12.2156
12.2068
12.1975
12.1879
12.1778
12.1673
12.1563
12.145
12.1333
12.1212
12.1087
12.0958
12.0825
12.0687
12.0546
12.04
12.025
12.0096
11.9938
11.9775
11.9608
11.9437
11.9261
11.908
11.8895
11.8705
11.851
11.8311
11.8106
11.7897
11.7682
11.7462
11.7237
11.7006
11.677
11.6529
11.6282
11.6029
11.577
11.5506
11.5235
11.4958
11.4675
11.4386
11.4091
11.3788
11.3479
11.3164
11.2841
11.2512
11.2175
11.1831
11.148
11.1121
11.0755
11.038
10.9998
10.9608
10.921
10.8804
10.8389
10.7965
10.7533
10.7092
10.6642
10.6183
10.5715
10.5237
10.475
10.4252
10.3745
10.3228
10.2701
10.2163
10.1615
10.1056
10.0486
9.99053
12.2627
12.2574
12.2524
12.2462
12.2394
12.2321
12.2242
12.2158
12.207
12.1978
12.1881
12.178
12.1675
12.1566
12.1453
12.1335
12.1214
12.1089
12.096
12.0827
12.0689
12.0548
12.0402
12.0253
12.0099
11.994
11.9778
11.9611
11.9439
11.9263
11.9082
11.8897
11.8707
11.8512
11.8313
11.8108
11.7898
11.7684
11.7464
11.7238
11.7008
11.6772
11.653
11.6283
11.603
11.5772
11.5507
11.5236
11.496
11.4677
11.4387
11.4092
11.3789
11.3481
11.3165
11.2842
11.2513
11.2176
11.1832
11.1481
11.1122
11.0755
11.0381
10.9999
10.9609
10.9211
10.8804
10.8389
10.7966
10.7534
10.7093
10.6643
10.6184
10.5715
10.5237
10.475
10.4253
10.3746
10.3229
10.2701
10.2163
10.1615
10.1056
10.0486
9.99055
12.2629
12.2577
12.2527
12.2465
12.2397
12.2323
12.2244
12.2161
12.2073
12.198
12.1883
12.1782
12.1677
12.1568
12.1455
12.1338
12.1217
12.1091
12.0962
12.0829
12.0692
12.055
12.0405
12.0255
12.0101
11.9942
11.978
11.9613
11.9441
11.9265
11.9084
11.8899
11.8709
11.8514
11.8314
11.811
11.79
11.7685
11.7465
11.724
11.701
11.6774
11.6532
11.6285
11.6032
11.5773
11.5509
11.5238
11.4961
11.4678
11.4389
11.4093
11.3791
11.3482
11.3166
11.2843
11.2514
11.2177
11.1833
11.1482
11.1123
11.0756
11.0382
11
10.961
10.9212
10.8805
10.839
10.7967
10.7534
10.7093
10.6643
10.6184
10.5716
10.5238
10.475
10.4253
10.3746
10.3229
10.2702
10.2164
10.1616
10.1057
10.0487
9.99058
12.2632
12.2579
12.2529
12.2467
12.2399
12.2325
12.2247
12.2163
12.2075
12.1982
12.1885
12.1784
12.1679
12.157
12.1457
12.134
12.1219
12.1094
12.0964
12.0831
12.0694
12.0552
12.0407
12.0257
12.0103
11.9944
11.9782
11.9615
11.9443
11.9267
11.9086
11.8901
11.8711
11.8516
11.8316
11.8112
11.7902
11.7687
11.7467
11.7242
11.7011
11.6775
11.6534
11.6286
11.6033
11.5775
11.551
11.5239
11.4963
11.468
11.439
11.4094
11.3792
11.3483
11.3167
11.2845
11.2515
11.2178
11.1834
11.1483
11.1124
11.0757
11.0383
11.0001
10.9611
10.9212
10.8806
10.8391
10.7967
10.7535
10.7094
10.6644
10.6185
10.5716
10.5238
10.4751
10.4254
10.3747
10.3229
10.2702
10.2164
10.1616
10.1057
10.0487
9.99063
12.2634
12.2581
12.2531
12.2469
12.2401
12.2328
12.2249
12.2165
12.2077
12.1984
12.1888
12.1787
12.1681
12.1572
12.1459
12.1342
12.1221
12.1096
12.0966
12.0833
12.0696
12.0554
12.0409
12.0259
12.0105
11.9946
11.9784
11.9616
11.9445
11.9269
11.9088
11.8903
11.8713
11.8518
11.8318
11.8113
11.7904
11.7689
11.7469
11.7244
11.7013
11.6777
11.6535
11.6288
11.6035
11.5776
11.5512
11.5241
11.4964
11.4681
11.4392
11.4096
11.3793
11.3484
11.3168
11.2846
11.2516
11.2179
11.1835
11.1484
11.1125
11.0758
11.0384
11.0002
10.9612
10.9213
10.8807
10.8392
10.7968
10.7536
10.7095
10.6645
10.6186
10.5717
10.5239
10.4752
10.4254
10.3747
10.323
10.2703
10.2165
10.1617
10.1058
10.0488
9.99068
12.2636
12.2583
12.2533
12.2471
12.2403
12.233
12.2251
12.2167
12.2079
12.1986
12.189
12.1789
12.1684
12.1574
12.1461
12.1344
12.1223
12.1098
12.0968
12.0835
12.0698
12.0556
12.0411
12.0261
12.0107
11.9948
11.9786
11.9618
11.9447
11.9271
11.909
11.8905
11.8715
11.852
11.832
11.8115
11.7905
11.7691
11.7471
11.7245
11.7015
11.6779
11.6537
11.629
11.6037
11.5778
11.5513
11.5242
11.4966
11.4682
11.4393
11.4097
11.3795
11.3486
11.317
11.2847
11.2517
11.218
11.1836
11.1485
11.1126
11.0759
11.0385
11.0003
10.9613
10.9214
10.8808
10.8393
10.7969
10.7537
10.7096
10.6646
10.6186
10.5718
10.524
10.4752
10.4255
10.3748
10.3231
10.2703
10.2166
10.1617
10.1058
10.0488
9.99074
12.2638
12.2586
12.2535
12.2473
12.2405
12.2332
12.2253
12.2169
12.2081
12.1989
12.1892
12.1791
12.1686
12.1576
12.1463
12.1346
12.1225
12.11
12.097
12.0837
12.07
12.0558
12.0413
12.0263
12.0109
11.995
11.9788
11.962
11.9449
11.9273
11.9092
11.8907
11.8716
11.8522
11.8322
11.8117
11.7907
11.7692
11.7472
11.7247
11.7016
11.678
11.6539
11.6291
11.6038
11.5779
11.5515
11.5244
11.4967
11.4684
11.4394
11.4099
11.3796
11.3487
11.3171
11.2848
11.2519
11.2182
11.1838
11.1486
11.1127
11.0761
11.0386
11.0004
10.9614
10.9215
10.8809
10.8394
10.797
10.7538
10.7097
10.6647
10.6187
10.5719
10.5241
10.4753
10.4256
10.3749
10.3232
10.2704
10.2166
10.1618
10.1059
10.0489
9.99081
12.264
12.2588
12.2537
12.2475
12.2407
12.2334
12.2255
12.2171
12.2083
12.1991
12.1894
12.1793
12.1688
12.1579
12.1465
12.1348
12.1227
12.1102
12.0972
12.0839
12.0702
12.056
12.0415
12.0265
12.0111
11.9952
11.9789
11.9622
11.9451
11.9275
11.9094
11.8908
11.8718
11.8523
11.8324
11.8119
11.7909
11.7694
11.7474
11.7249
11.7018
11.6782
11.654
11.6293
11.604
11.5781
11.5516
11.5246
11.4969
11.4685
11.4396
11.41
11.3798
11.3489
11.3173
11.285
11.252
11.2183
11.1839
11.1488
11.1128
11.0762
11.0388
11.0005
10.9615
10.9217
10.881
10.8395
10.7971
10.7539
10.7098
10.6648
10.6188
10.572
10.5242
10.4754
10.4257
10.375
10.3232
10.2705
10.2167
10.1619
10.106
10.049
9.99088
12.2642
12.259
12.2539
12.2477
12.241
12.2336
12.2257
12.2173
12.2085
12.1993
12.1896
12.1795
12.169
12.1581
12.1467
12.135
12.1229
12.1104
12.0974
12.0841
12.0704
12.0562
12.0417
12.0267
12.0113
11.9954
11.9791
11.9624
11.9453
11.9276
11.9096
11.891
11.872
11.8525
11.8325
11.8121
11.7911
11.7696
11.7476
11.7251
11.702
11.6784
11.6542
11.6295
11.6042
11.5783
11.5518
11.5247
11.497
11.4687
11.4398
11.4102
11.3799
11.349
11.3174
11.2851
11.2522
11.2185
11.184
11.1489
11.113
11.0763
11.0389
11.0007
10.9616
10.9218
10.8811
10.8396
10.7972
10.754
10.7099
10.6649
10.6189
10.5721
10.5243
10.4755
10.4258
10.3751
10.3233
10.2706
10.2168
10.162
10.1061
10.0491
9.99097
12.2644
12.2592
12.2541
12.2479
12.2412
12.2338
12.2259
12.2175
12.2087
12.1995
12.1898
12.1797
12.1692
12.1583
12.1469
12.1352
12.1231
12.1106
12.0976
12.0843
12.0706
12.0564
12.0418
12.0269
12.0114
11.9956
11.9793
11.9626
11.9454
11.9278
11.9098
11.8912
11.8722
11.8527
11.8327
11.8122
11.7913
11.7698
11.7478
11.7252
11.7022
11.6785
11.6544
11.6296
11.6043
11.5784
11.552
11.5249
11.4972
11.4689
11.4399
11.4103
11.3801
11.3492
11.3176
11.2853
11.2523
11.2186
11.1842
11.149
11.1131
11.0765
11.039
11.0008
10.9618
10.9219
10.8812
10.8397
10.7974
10.7541
10.71
10.665
10.6191
10.5722
10.5244
10.4756
10.4259
10.3752
10.3234
10.2707
10.2169
10.1621
10.1062
10.0492
12.2646
12.2594
12.2543
12.2482
12.2414
12.234
12.2261
12.2177
12.2089
12.1997
12.19
12.1799
12.1694
12.1585
12.1471
12.1354
12.1233
12.1108
12.0978
12.0845
12.0708
12.0566
12.042
12.0271
12.0116
11.9958
11.9795
11.9628
11.9456
11.928
11.9099
11.8914
11.8724
11.8529
11.8329
11.8124
11.7914
11.77
11.7479
11.7254
11.7023
11.6787
11.6545
11.6298
11.6045
11.5786
11.5521
11.525
11.4974
11.469
11.4401
11.4105
11.3802
11.3493
11.3177
11.2854
11.2524
11.2188
11.1843
11.1492
11.1133
11.0766
11.0392
11.0009
10.9619
10.922
10.8814
10.8399
10.7975
10.7543
10.7101
10.6651
10.6192
10.5723
10.5245
10.4757
10.426
10.3753
10.3236
10.2708
10.217
10.1622
10.1063
10.0493
12.2648
12.2596
12.2545
12.2484
12.2416
12.2342
12.2263
12.2179
12.2091
12.1999
12.1902
12.1801
12.1696
12.1586
12.1473
12.1356
12.1235
12.111
12.098
12.0847
12.071
12.0568
12.0422
12.0272
12.0118
11.996
11.9797
11.963
11.9458
11.9282
11.9101
11.8916
11.8726
11.8531
11.8331
11.8126
11.7916
11.7701
11.7481
11.7256
11.7025
11.6789
11.6547
11.63
11.6047
11.5788
11.5523
11.5252
11.4975
11.4692
11.4402
11.4106
11.3804
11.3495
11.3179
11.2856
11.2526
11.2189
11.1845
11.1493
11.1134
11.0767
11.0393
11.0011
10.962
10.9222
10.8815
10.84
10.7976
10.7544
10.7103
10.6652
10.6193
10.5724
10.5246
10.4759
10.4261
10.3754
10.3237
10.2709
10.2171
10.1623
10.1064
10.0494
12.265
12.2598
12.2547
12.2486
12.2418
12.2344
12.2265
12.2181
12.2093
12.2001
12.1904
12.1803
12.1698
12.1588
12.1475
12.1358
12.1237
12.1112
12.0982
12.0849
12.0712
12.057
12.0424
12.0274
12.012
11.9962
11.9799
11.9632
11.946
11.9284
11.9103
11.8918
11.8728
11.8533
11.8333
11.8128
11.7918
11.7703
11.7483
11.7258
11.7027
11.6791
11.6549
11.6302
11.6049
11.579
11.5525
11.5254
11.4977
11.4694
11.4404
11.4108
11.3806
11.3496
11.318
11.2858
11.2528
11.2191
11.1846
11.1495
11.1136
11.0769
11.0395
11.0012
10.9622
10.9223
10.8817
10.8401
10.7978
10.7545
10.7104
10.6654
10.6194
10.5726
10.5248
10.476
10.4263
10.3755
10.3238
10.271
10.2172
10.1624
10.1065
10.0495
12.2652
12.26
12.2549
12.2488
12.242
12.2346
12.2267
12.2183
12.2095
12.2003
12.1906
12.1805
12.17
12.159
12.1477
12.136
12.1239
12.1114
12.0984
12.0851
12.0713
12.0572
12.0426
12.0276
12.0122
11.9964
11.9801
11.9634
11.9462
11.9286
11.9105
11.892
11.8729
11.8534
11.8335
11.813
11.792
11.7705
11.7485
11.726
11.7029
11.6793
11.6551
11.6303
11.605
11.5791
11.5526
11.5256
11.4979
11.4695
11.4406
11.411
11.3807
11.3498
11.3182
11.2859
11.2529
11.2192
11.1848
11.1496
11.1137
11.0771
11.0396
11.0014
10.9623
10.9225
10.8818
10.8403
10.7979
10.7547
10.7105
10.6655
10.6196
10.5727
10.5249
10.4761
10.4264
10.3757
10.3239
10.2712
10.2174
10.1625
10.1066
10.0496
12.2654
12.2602
12.2551
12.249
12.2422
12.2348
12.2269
12.2185
12.2097
12.2005
12.1908
12.1807
12.1702
12.1592
12.1479
12.1362
12.1241
12.1116
12.0986
12.0853
12.0715
12.0574
12.0428
12.0278
12.0124
11.9966
11.9803
11.9636
11.9464
11.9288
11.9107
11.8922
11.8731
11.8536
11.8336
11.8132
11.7922
11.7707
11.7487
11.7261
11.7031
11.6794
11.6553
11.6305
11.6052
11.5793
11.5528
11.5257
11.498
11.4697
11.4408
11.4112
11.3809
11.35
11.3184
11.2861
11.2531
11.2194
11.185
11.1498
11.1139
11.0772
11.0398
11.0015
10.9625
10.9226
10.882
10.8404
10.7981
10.7548
10.7107
10.6657
10.6197
10.5728
10.525
10.4763
10.4265
10.3758
10.3241
10.2713
10.2175
10.1627
10.1067
10.0497
12.2656
12.2604
12.2553
12.2492
12.2424
12.235
12.2271
12.2187
12.2099
12.2007
12.191
12.1809
12.1704
12.1594
12.1481
12.1364
12.1243
12.1117
12.0988
12.0855
12.0717
12.0576
12.043
12.028
12.0126
11.9968
11.9805
11.9638
11.9466
11.929
11.9109
11.8923
11.8733
11.8538
11.8338
11.8134
11.7924
11.7709
11.7489
11.7263
11.7032
11.6796
11.6554
11.6307
11.6054
11.5795
11.553
11.5259
11.4982
11.4699
11.4409
11.4113
11.3811
11.3501
11.3185
11.2863
11.2533
11.2196
11.1851
11.15
11.114
11.0774
11.0399
11.0017
10.9626
10.9228
10.8821
10.8406
10.7982
10.755
10.7108
10.6658
10.6199
10.573
10.5252
10.4764
10.4267
10.3759
10.3242
10.2714
10.2176
10.1628
10.1069
10.0499
12.2658
12.2606
12.2555
12.2494
12.2426
12.2352
12.2273
12.2189
12.2101
12.2009
12.1912
12.1811
12.1706
12.1596
12.1483
12.1366
12.1245
12.1119
12.099
12.0857
12.0719
12.0578
12.0432
12.0282
12.0128
11.997
11.9807
11.9639
11.9468
11.9292
11.9111