/*--------------------------------*- C++ -*----------------------------------*\
  =========                 |
  \\      /  F ield         | OpenFOAM: The Open Source CFD Toolbox
   \\    /   O peration     | Website:  https://openfoam.org
    \\  /    A nd           | Version:  10
     \\/     M anipulation  |
\*---------------------------------------------------------------------------*/
FoamFile
{
    format      ascii;
    class       volVectorField;
    location    "36000";
    object      U;
}
// * * * * * * * * * * * * * * * * * * * * * * * * * * * * * * * * * * * * * //

dimensions      [0 1 -1 0 0 0 0];

internalField   nonuniform List<vector> 
17808
(
(-1.50267 1.63416 -6.83299e-18)
(-1.85646 2.02632 -7.65567e-19)
(-2.01223 2.19771 4.95464e-18)
(-2.11891 2.31104 5.32781e-18)
(-2.19828 2.39774 -1.25003e-18)
(-2.26189 2.46691 -8.80954e-18)
(-2.31467 2.52454 4.42302e-18)
(-2.35975 2.57387 -4.69483e-18)
(-2.39909 2.61699 7.89856e-18)
(-2.43397 2.65529 -1.78753e-21)
(-2.4653 2.68973 -3.56502e-18)
(-2.49373 2.72102 2.54752e-18)
(-2.51975 2.74969 -3.65425e-18)
(-2.54374 2.77613 3.88661e-19)
(-2.56598 2.80066 0)
(-2.5867 2.82354 3.58357e-19)
(-2.6061 2.84497 -6.89976e-19)
(-2.62433 2.86512 -6.65181e-19)
(-2.64151 2.88411 -2.88846e-18)
(-2.65775 2.90208 2.54869e-21)
(-2.67315 2.91912 2.40411e-18)
(-2.68777 2.93531 0)
(-2.70169 2.95073 2.25618e-18)
(-2.71495 2.96543 -2.19257e-18)
(-2.72762 2.97947 2.12748e-18)
(-2.73974 2.9929 -2.58853e-18)
(-2.75133 3.00577 -5.03424e-19)
(-2.76245 3.0181 0)
(-2.77311 3.02993 -4.77563e-19)
(-2.78334 3.04129 -4.65483e-19)
(-2.79317 3.05221 1.81465e-18)
(-2.80262 3.0627 -1.33041e-18)
(-2.8117 3.0728 0)
(-2.82045 3.08251 0)
(-2.82886 3.09186 4.12646e-19)
(-2.83696 3.10087 2.01517e-18)
(-2.84475 3.10953 -1.18429e-18)
(-2.85226 3.11788 0)
(-2.85948 3.12592 -1.50727e-18)
(-2.86644 3.13366 2.84237e-21)
(-2.87313 3.1411 2.16823e-18)
(-2.87957 3.14827 2.11936e-18)
(-2.88576 3.15517 -1.38558e-18)
(-2.89172 3.16179 6.77552e-19)
(-2.89744 3.16817 0)
(-2.90293 3.17428 -6.49717e-19)
(-2.9082 3.18015 1.90753e-18)
(-2.91326 3.18578 -2.49443e-18)
(-2.9181 3.19118 6.10458e-19)
(-2.92272 3.19633 0)
(-2.92715 3.20127 0)
(-2.93137 3.20597 1.71953e-18)
(-2.93539 3.21045 -5.63422e-19)
(-2.93921 3.21471 0)
(-2.94283 3.21876 5.39016e-19)
(-2.94627 3.22259 5.279e-19)
(-2.94951 3.22621 -5.16957e-19)
(-2.95256 3.22962 -5.0618e-19)
(-2.95542 3.23282 -4.95594e-19)
(-2.9581 3.23581 9.68816e-19)
(-2.96059 3.23859 -1.53312e-21)
(-2.96289 3.24117 9.28078e-19)
(-2.96502 3.24355 -9.11277e-19)
(-2.96695 3.24572 -8.90107e-19)
(-2.9687 3.24769 -1.73994e-18)
(-2.97027 3.24945 8.51655e-19)
(-2.97166 3.25101 -1.66728e-18)
(-2.97286 3.25237 1.62862e-18)
(-2.97388 3.25353 0)
(-2.97472 3.25448 7.77963e-19)
(-2.97537 3.25523 1.51869e-18)
(-2.97584 3.25577 -7.4573e-19)
(-2.97612 3.25611 -7.26818e-19)
(-2.97622 3.25625 7.08144e-19)
(-2.97613 3.25618 -1.58154e-21)
(-2.97586 3.2559 -2.02388e-18)
(-2.9754 3.25542 1.31802e-18)
(-2.97475 3.25472 0)
(-2.9739 3.25382 -6.27662e-19)
(-2.97287 3.25271 -1.83263e-18)
(-2.97165 3.25138 0)
(-2.97023 3.24984 0)
(-2.96862 3.24808 1.12905e-18)
(-2.96681 3.24611 0)
(-2.9648 3.24392 1.07024e-18)
(-2.96259 3.24151 0)
(-2.96019 3.23888 -2.22896e-23)
(-2.95758 3.23602 0)
(-2.95476 3.23294 0)
(-2.95174 3.22963 9.31255e-19)
(-2.94851 3.22609 1.80975e-18)
(-2.94508 3.22232 1.75792e-18)
(-1.50144 1.64691 -7.64356e-19)
(-1.85078 2.03903 7.56438e-19)
(-2.00701 2.20748 0)
(-2.11207 2.32087 0)
(-2.19077 2.40708 1.24558e-18)
(-2.25409 2.47572 -5.83776e-19)
(-2.30671 2.53289 4.39023e-18)
(-2.35174 2.58184 -3.6225e-18)
(-2.39108 2.62465 -4.89249e-19)
(-2.42598 2.6627 3.70848e-18)
(-2.45734 2.69694 -3.96811e-18)
(-2.48582 2.72808 8.40177e-19)
(-2.51187 2.75662 4.01254e-19)
(-2.53589 2.78296 -3.84099e-19)
(-2.55816 2.80743 0)
(-2.57892 2.83025 -3.53987e-19)
(-2.59834 2.85164 3.40703e-19)
(-2.61659 2.87176 3.28421e-19)
(-2.63378 2.89074 0)
(-2.65004 2.90869 0)
(-2.66544 2.92572 0)
(-2.68007 2.94191 -5.7453e-19)
(-2.694 2.95733 0)
(-2.70727 2.97203 -5.4086e-19)
(-2.71994 2.98608 0)
(-2.73206 2.99952 5.1095e-19)
(-2.74365 3.0124 4.97239e-19)
(-2.75477 3.02474 0)
(-2.76543 3.03658 -1.88567e-18)
(-2.77566 3.04796 4.62626e-19)
(-2.78549 3.05888 1.34727e-18)
(-2.79493 3.06939 -4.37857e-19)
(-2.80402 3.0795 1.70882e-18)
(-2.81275 3.08923 -3.75876e-18)
(-2.82116 3.0986 1.22573e-18)
(-2.82926 3.10762 -3.98959e-19)
(-2.83705 3.1163 -7.80301e-19)
(-2.84455 3.12466 0)
(-2.85177 3.13271 0)
(-2.85872 3.14047 1.8258e-18)
(-2.86541 3.14793 -1.43232e-18)
(-2.87184 3.15511 -4.16769e-23)
(-2.87803 3.16202 -6.85977e-19)
(-2.88398 3.16866 -1.34364e-18)
(-2.8897 3.17505 -6.5663e-19)
(-2.89519 3.18118 1.93542e-18)
(-2.90045 3.18706 -1.26169e-18)
(-2.9055 3.1927 1.8579e-18)
(-2.91033 3.19811 -1.8175e-18)
(-2.91496 3.20328 1.18972e-18)
(-2.91938 3.20822 -1.16287e-18)
(-2.92359 3.21294 1.14243e-18)
(-2.92761 3.21743 -5.59008e-19)
(-2.93143 3.2217 0)
(-2.93505 3.22576 -5.36694e-19)
(-2.93848 3.2296 0)
(-2.94171 3.23323 0)
(-2.94476 3.23664 5.04661e-19)
(-2.94762 3.23985 1.53979e-21)
(-2.9503 3.24285 9.69844e-19)
(-2.95278 3.24564 -9.48263e-19)
(-2.95508 3.24823 9.28529e-19)
(-2.9572 3.25061 0)
(-2.95914 3.25279 0)
(-2.96089 3.25476 1.74043e-18)
(-2.96246 3.25653 -8.52353e-19)
(-2.96384 3.2581 1.66947e-18)
(-2.96504 3.25946 -1.5901e-21)
(-2.96606 3.26062 -7.99446e-19)
(-2.9669 3.26158 0)
(-2.96755 3.26233 -1.52386e-18)
(-2.96802 3.26288 2.98195e-18)
(-2.96831 3.26322 -3.18196e-21)
(-2.96841 3.26336 -3.1854e-21)
(-2.96832 3.26329 -1.58485e-21)
(-2.96805 3.26301 6.7715e-19)
(-2.96759 3.26253 -1.32679e-18)
(-2.96694 3.26183 6.46661e-19)
(-2.9661 3.26093 1.2603e-18)
(-2.96507 3.25981 -6.17031e-19)
(-2.96385 3.25849 5.98544e-19)
(-2.96244 3.25694 -1.75675e-18)
(-2.96083 3.25518 1.70896e-18)
(-2.95903 3.25321 -3.18046e-21)
(-2.95703 3.25101 -1.08218e-18)
(-2.95483 3.2486 5.2845e-19)
(-2.95243 3.24596 -2.05143e-18)
(-2.94982 3.2431 0)
(-2.94702 3.24001 0)
(-2.94401 3.2367 -1.88861e-18)
(-2.94079 3.23315 -1.37552e-18)
(-2.93736 3.22937 -8.89135e-19)
(-1.49892 1.65451 1.52825e-18)
(-1.84808 2.0465 1.20781e-17)
(-2.00421 2.21457 -2.26231e-17)
(-2.10781 2.32884 1.0594e-17)
(-2.18591 2.41492 -6.18808e-19)
(-2.24861 2.48351 0)
(-2.30072 2.54063 0)
(-2.34534 2.58949 0)
(-2.38435 2.63221 -7.26193e-18)
(-2.419 2.67015 7.34285e-18)
(-2.45017 2.7043 4.35753e-19)
(-2.47849 2.73535 1.04409e-22)
(-2.50443 2.76381 6.33872e-18)
(-2.52836 2.79009 -1.25146e-17)
(-2.55056 2.8145 5.8202e-18)
(-2.57126 2.83727 5.23683e-18)
(-2.59064 2.85862 -5.04402e-18)
(-2.60886 2.87871 0)
(-2.62603 2.89766 0)
(-2.64226 2.9156 0)
(-2.65765 2.93261 0)
(-2.67227 2.94879 1.13306e-18)
(-2.68618 2.9642 0)
(-2.69944 2.97891 5.33323e-19)
(-2.7121 2.99296 0)
(-2.72421 3.0064 -5.03859e-19)
(-2.7358 3.01928 0)
(-2.7469 3.03163 1.90855e-18)
(-2.75755 3.04348 -1.86238e-18)
(-2.76778 3.05486 4.53648e-19)
(-2.7776 3.0658 -4.42573e-19)
(-2.78704 3.07632 2.15869e-18)
(-2.79611 3.08644 -2.67298e-21)
(-2.80485 3.09618 -1.23781e-18)
(-2.81325 3.10556 1.20716e-18)
(-2.82133 3.11459 -1.18294e-18)
(-2.82912 3.12329 3.8524e-19)
(-2.83661 3.13166 0)
(-2.84383 3.13972 0)
(-2.85077 3.14749 -2.16494e-18)
(-2.85745 3.15496 2.78946e-21)
(-2.86388 3.16216 2.77109e-21)
(-2.87006 3.16908 2.03596e-18)
(-2.87601 3.17574 -1.32731e-18)
(-2.88172 3.18213 6.52345e-19)
(-2.8872 3.18828 0)
(-2.89246 3.19417 0)
(-2.8975 3.19983 0)
(-2.90233 3.20524 1.46117e-21)
(-2.90695 3.21042 5.89997e-19)
(-2.91136 3.21538 0)
(-2.91557 3.2201 5.6544e-19)
(-2.91958 3.22461 -1.10702e-18)
(-2.9234 3.22889 1.63128e-18)
(-2.92701 3.23295 1.06347e-18)
(-2.93044 3.2368 -1.04528e-18)
(-2.93367 3.24044 -1.02143e-18)
(-2.93672 3.24387 5.02751e-19)
(-2.93957 3.24708 -4.91155e-19)
(-2.94224 3.25009 4.81216e-19)
(-2.94473 3.25289 9.42903e-19)
(-2.94703 3.25548 -9.23632e-19)
(-2.94914 3.25787 0)
(-2.95107 3.26005 0)
(-2.95282 3.26203 -2.11323e-23)
(-2.95439 3.2638 -1.6968e-18)
(-2.95577 3.26538 8.32748e-19)
(-2.95697 3.26674 -8.11846e-19)
(-2.95799 3.26791 2.38765e-18)
(-2.95883 3.26886 -1.58582e-21)
(-2.95948 3.26962 7.61468e-19)
(-2.95995 3.27017 -7.446e-19)
(-2.96024 3.27051 0)
(-2.96034 3.27065 0)
(-2.96025 3.27059 0)
(-2.95998 3.27031 6.77528e-19)
(-2.95953 3.26983 -6.6485e-19)
(-2.95888 3.26913 -6.47616e-19)
(-2.95805 3.26823 0)
(-2.95702 3.26711 0)
(-2.95581 3.26578 -1.80389e-18)
(-2.9544 3.26423 2.93649e-18)
(-2.9528 3.26247 -2.14831e-23)
(-2.951 3.26049 0)
(-2.949 3.2583 -5.42017e-19)
(-2.94681 3.25588 3.18695e-21)
(-2.94442 3.25323 5.17333e-19)
(-2.94182 3.25037 -1.00417e-18)
(-2.93902 3.24727 -9.77312e-19)
(-2.93602 3.24395 1.42475e-18)
(-2.93281 3.2404 -3.15725e-21)
(-2.92939 3.23661 4.48062e-19)
(-1.49429 1.65948 1.0696e-17)
(-1.84371 2.05158 1.12923e-17)
(-1.99935 2.22049 -1.19675e-17)
(-2.1023 2.3354 6.58127e-19)
(-2.18029 2.42151 0)
(-2.24269 2.4903 0)
(-2.29453 2.54755 0)
(-2.33892 2.59651 8.1201e-18)
(-2.37771 2.63929 -1.53333e-17)
(-2.41216 2.67728 1.45166e-17)
(-2.44315 2.71146 -6.89405e-18)
(-2.47132 2.74252 6.1482e-18)
(-2.49713 2.77099 -6.26386e-18)
(-2.52094 2.79726 3.7429e-19)
(-2.54304 2.82166 6.09708e-18)
(-2.56366 2.84443 -5.17118e-18)
(-2.58297 2.86577 5.30156e-18)
(-2.60112 2.88584 -3.24448e-19)
(-2.61824 2.90479 -4.93484e-18)
(-2.63442 2.92272 -2.97908e-19)
(-2.64977 2.93973 0)
(-2.66435 2.9559 -1.1169e-18)
(-2.67823 2.97131 0)
(-2.69147 2.98602 0)
(-2.70411 3.00007 -4.59416e-18)
(-2.71619 3.01351 3.97579e-18)
(-2.72776 3.02639 0)
(-2.73885 3.03875 0)
(-2.74949 3.0506 0)
(-2.7597 3.06199 -8.94623e-19)
(-2.7695 3.07294 4.36446e-19)
(-2.77893 3.08347 0)
(-2.788 3.0936 0)
(-2.79672 3.10335 0)
(-2.80511 3.11274 -2.38207e-18)
(-2.81318 3.12178 3.50071e-18)
(-2.82096 3.13049 0)
(-2.82844 3.13887 0)
(-2.83565 3.14695 0)
(-2.84258 3.15472 3.20633e-18)
(-2.84926 3.16221 -5.50847e-21)
(-2.85568 3.16942 -6.84077e-18)
(-2.86185 3.17635 4.69136e-18)
(-2.86779 3.18302 -1.97291e-18)
(-2.87349 3.18942 0)
(-2.87896 3.19558 6.30797e-19)
(-2.88422 3.20149 2.47053e-18)
(-2.88925 3.20715 -2.42759e-18)
(-2.89407 3.21258 -5.94313e-19)
(-2.89869 3.21777 2.91052e-18)
(-2.90309 3.22273 -1.14699e-18)
(-2.9073 3.22747 -1.12327e-18)
(-2.9113 3.23198 -1.09997e-18)
(-2.91511 3.23627 -1.48249e-21)
(-2.91872 3.24035 -1.58555e-18)
(-2.92214 3.24421 0)
(-2.92537 3.24785 5.06039e-19)
(-2.92841 3.25129 -9.96577e-19)
(-2.93127 3.25451 -1.46161e-18)
(-2.93393 3.25752 4.79539e-19)
(-2.93641 3.26033 9.36966e-19)
(-2.93871 3.26293 1.52557e-21)
(-2.94082 3.26532 3.07945e-21)
(-2.94275 3.26751 8.82888e-19)
(-2.9445 3.2695 -8.63312e-19)
(-2.94606 3.27128 8.45483e-19)
(-2.94745 3.27285 0)
(-2.94865 3.27422 -8.08983e-19)
(-2.94967 3.27539 -7.90275e-19)
(-2.9505 3.27635 1.56466e-21)
(-2.95115 3.27711 -1.51792e-18)
(-2.95162 3.27766 1.48801e-18)
(-2.95191 3.27801 0)
(-2.95201 3.27815 -1.58629e-21)
(-2.95193 3.27808 -1.39122e-18)
(-2.95166 3.2778 6.79059e-19)
(-2.95121 3.27732 6.63511e-19)
(-2.95057 3.27663 6.48126e-19)
(-2.94973 3.27572 0)
(-2.94871 3.2746 0)
(-2.9475 3.27327 1.2063e-18)
(-2.9461 3.27172 -2.35409e-18)
(-2.9445 3.26996 -1.14819e-18)
(-2.94271 3.26797 1.11969e-18)
(-2.94072 3.26577 1.63578e-18)
(-2.93854 3.26335 5.30331e-19)
(-2.93615 3.2607 1.03656e-18)
(-2.93356 3.25783 5.03223e-19)
(-2.93077 3.25473 9.7988e-19)
(-2.92778 3.2514 -4.80046e-19)
(-2.92458 3.24784 4.6399e-19)
(-2.92117 3.24404 -3.18962e-21)
(-1.48963 1.66433 1.29731e-17)
(-1.83882 2.05651 -1.20151e-17)
(-1.99366 2.22642 -1.0504e-17)
(-2.09622 2.34163 1.96174e-17)
(-2.17405 2.42789 -9.15614e-18)
(-2.23618 2.49691 9.69182e-18)
(-2.28785 2.5543 -1.71001e-17)
(-2.33208 2.60338 5.21663e-21)
(-2.37073 2.64625 7.58403e-18)
(-2.40505 2.68432 0)
(-2.43592 2.71856 0)
(-2.46397 2.74966 -4.04899e-19)
(-2.48968 2.77817 -3.86271e-19)
(-2.51339 2.80447 3.69358e-19)
(-2.53541 2.82889 3.91459e-23)
(-2.55594 2.85168 -3.39828e-19)
(-2.57518 2.87303 -6.53703e-19)
(-2.59326 2.89312 -2.19095e-23)
(-2.61032 2.91207 0)
(-2.62646 2.93 2.93596e-19)
(-2.64176 2.94702 4.54244e-18)
(-2.65629 2.9632 -3.85464e-18)
(-2.67013 2.97861 0)
(-2.68333 2.99332 4.65943e-18)
(-2.69594 3.00738 -3.52547e-18)
(-2.708 3.02083 -3.91272e-18)
(-2.71954 3.03372 3.8129e-18)
(-2.7306 3.04608 4.63879e-19)
(-2.74122 3.05794 0)
(-2.75141 3.06934 4.40898e-19)
(-2.76119 3.08029 0)
(-2.7706 3.09083 0)
(-2.77965 3.10097 -3.27963e-18)
(-2.78836 3.11073 2.80925e-18)
(-2.79673 3.12013 -7.83989e-19)
(-2.8048 3.12918 -3.06447e-18)
(-2.81256 3.1379 2.6284e-18)
(-2.82003 3.14629 -3.67119e-19)
(-2.82722 3.15438 -2.87266e-18)
(-2.83415 3.16217 2.81848e-18)
(-2.84081 3.16967 -2.75539e-18)
(-2.84722 3.17688 3.38053e-18)
(-2.85338 3.18383 -2.64524e-18)
(-2.85931 3.19051 5.53299e-21)
(-2.865 3.19692 4.45213e-18)
(-2.87047 3.20309 -3.12053e-18)
(-2.87572 3.20901 0)
(-2.88074 3.21468 2.39524e-18)
(-2.88556 3.22012 -2.35456e-18)
(-2.89017 3.22532 0)
(-2.89457 3.23029 -5.65505e-19)
(-2.89876 3.23504 1.10931e-18)
(-2.90276 3.23956 -2.17312e-18)
(-2.90656 3.24386 4.8021e-18)
(-2.91017 3.24795 -1.57288e-18)
(-2.91359 3.25181 -5.13238e-19)
(-2.91681 3.25547 2.51375e-18)
(-2.91985 3.25891 9.81232e-19)
(-2.9227 3.26214 4.78018e-19)
(-2.92536 3.26516 -6.03756e-21)
(-2.92783 3.26797 -5.58333e-18)
(-2.93013 3.27058 -9.06139e-19)
(-2.93224 3.27298 6.12017e-21)
(-2.93417 3.27517 1.75566e-18)
(-2.93591 3.27716 -2.57297e-18)
(-2.93747 3.27895 -1.67642e-18)
(-2.93885 3.28053 4.66968e-21)
(-2.94005 3.2819 8.08749e-19)
(-2.94107 3.28307 -7.88875e-19)
(-2.94191 3.28404 1.54935e-18)
(-2.94256 3.2848 0)
(-2.94303 3.28535 -1.48118e-18)
(-2.94332 3.2857 7.26982e-19)
(-2.94342 3.28584 1.59728e-21)
(-2.94334 3.28577 1.38959e-18)
(-2.94308 3.2855 -6.78571e-19)
(-2.94262 3.28502 0)
(-2.94198 3.28432 -1.29647e-18)
(-2.94116 3.28341 0)
(-2.94014 3.28229 -1.2372e-18)
(-2.93893 3.28096 0)
(-2.93754 3.27941 5.91305e-19)
(-2.93594 3.27764 5.77095e-19)
(-2.93416 3.27565 -1.68282e-18)
(-2.93218 3.27345 -5.4604e-19)
(-2.93 3.27102 -1.60033e-18)
(-2.92762 3.26836 -5.18889e-19)
(-2.92504 3.26548 1.01443e-18)
(-2.92226 3.26238 -4.92497e-19)
(-2.91928 3.25904 9.6556e-19)
(-2.91609 3.25547 -4.66846e-19)
(-2.91269 3.25167 -1.36934e-18)
(-1.48515 1.6693 0)
(-1.83391 2.06169 0)
(-1.9879 2.2325 1.04526e-17)
(-2.09019 2.3479 -5.40068e-21)
(-2.16775 2.43438 -1.02961e-17)
(-2.22962 2.5036 8.47498e-18)
(-2.28109 2.56112 -7.93905e-18)
(-2.32513 2.61031 0)
(-2.36362 2.65328 -4.68484e-19)
(-2.3978 2.69142 -7.52764e-18)
(-2.42855 2.72572 6.72478e-18)
(-2.45648 2.75689 7.99247e-19)
(-2.48208 2.78544 3.81069e-19)
(-2.50571 2.81178 -6.55471e-18)
(-2.52763 2.83624 5.23737e-18)
(-2.54808 2.85905 3.34983e-19)
(-2.56724 2.88043 3.22146e-19)
(-2.58526 2.90053 5.58349e-18)
(-2.60225 2.9195 -4.97276e-21)
(-2.61833 2.93745 -9.25661e-18)
(-2.63358 2.95448 4.48e-18)
(-2.64806 2.97068 0)
(-2.66186 2.9861 -4.20287e-18)
(-2.67502 3.00082 4.99047e-21)
(-2.68758 3.01489 3.96856e-18)
(-2.69961 3.02835 4.82107e-19)
(-2.71112 3.04124 3.75111e-18)
(-2.72215 3.05361 -8.22589e-18)
(-2.73273 3.06549 7.12662e-18)
(-2.7429 3.07689 -5.06999e-21)
(-2.75266 3.08786 -3.81789e-18)
(-2.76205 3.09841 0)
(-2.77108 3.10856 0)
(-2.77976 3.11833 3.95232e-19)
(-2.78812 3.12774 3.86459e-19)
(-2.79617 3.1368 -7.56056e-19)
(-2.80391 3.14552 9.87583e-24)
(-2.81137 3.15393 3.62116e-19)
(-2.81855 3.16203 0)
(-2.82546 3.16983 -3.12296e-18)
(-2.83211 3.17734 2.04418e-18)
(-2.83851 3.18456 -2.66469e-18)
(-2.84466 3.19152 3.27074e-18)
(-2.85057 3.19821 2.56026e-18)
(-2.85626 3.20464 -2.5157e-18)
(-2.86172 3.21081 0)
(-2.86695 3.21674 0)
(-2.87197 3.22242 0)
(-2.87678 3.22787 0)
(-2.88137 3.23308 -5.70287e-19)
(-2.88577 3.23807 -1.6756e-18)
(-2.88996 3.24282 1.64956e-18)
(-2.89395 3.24735 0)
(-2.89775 3.25166 -5.28351e-19)
(-2.90135 3.25575 -2.07056e-18)
(-2.90476 3.25963 2.54572e-18)
(-2.90798 3.26329 4.98906e-19)
(-2.91101 3.26674 -1.24281e-23)
(-2.91385 3.26998 4.80079e-19)
(-2.91651 3.27301 0)
(-2.91898 3.27583 9.23657e-19)
(-2.92127 3.27844 0)
(-2.92338 3.28084 0)
(-2.9253 3.28304 -2.6092e-18)
(-2.92705 3.28504 4.26793e-18)
(-2.92861 3.28683 -8.39699e-19)
(-2.92999 3.28841 8.19899e-19)
(-2.93118 3.28979 0)
(-2.9322 3.29096 7.86991e-19)
(-2.93304 3.29193 7.67698e-19)
(-2.93369 3.29269 -3.01945e-18)
(-2.93416 3.29325 1.48128e-18)
(-2.93445 3.2936 0)
(-2.93456 3.29374 0)
(-2.93448 3.29368 6.92725e-19)
(-2.93421 3.2934 0)
(-2.93376 3.29292 6.6268e-19)
(-2.93313 3.29222 -6.44704e-19)
(-2.93231 3.29131 1.26981e-18)
(-2.93129 3.29019 -6.17232e-19)
(-2.93009 3.28885 1.81533e-18)
(-2.9287 3.2873 0)
(-2.92711 3.28553 -5.74905e-19)
(-2.92533 3.28354 5.64344e-19)
(-2.92336 3.28132 0)
(-2.92119 3.27889 -5.37281e-19)
(-2.91882 3.27623 1.56559e-18)
(-2.91625 3.27335 0)
(-2.91348 3.27023 0)
(-2.9105 3.26689 -1.44924e-18)
(-2.90732 3.26331 2.35681e-18)
(-2.90393 3.2595 9.17299e-19)
(-1.48051 1.67417 0)
(-1.82874 2.06695 -7.46406e-19)
(-1.98194 2.23856 6.93325e-19)
(-2.08402 2.35415 6.45239e-19)
(-2.16129 2.44089 9.00613e-18)
(-2.22291 2.51029 -8.96196e-18)
(-2.27419 2.56795 1.06293e-22)
(-2.31806 2.61727 -7.86152e-18)
(-2.35639 2.66034 7.87256e-18)
(-2.39043 2.69858 -6.99731e-18)
(-2.42104 2.73296 1.32718e-17)
(-2.44886 2.76418 -3.99443e-19)
(-2.47435 2.79279 -5.11104e-21)
(-2.49787 2.81919 -5.74981e-18)
(-2.5197 2.84369 0)
(-2.54007 2.86654 0)
(-2.55915 2.88795 5.07644e-18)
(-2.57709 2.90808 -1.00891e-17)
(-2.59402 2.92708 4.72124e-18)
(-2.61003 2.94506 -4.5561e-18)
(-2.62521 2.96211 4.41216e-18)
(-2.63965 2.97832 0)
(-2.65339 2.99376 -4.13877e-18)
(-2.6665 3.0085 3.01723e-18)
(-2.67903 3.02258 3.90304e-18)
(-2.69101 3.03606 -4.27519e-18)
(-2.70248 3.04897 0)
(-2.71348 3.06135 4.50057e-19)
(-2.72403 3.07324 0)
(-2.73416 3.08466 0)
(-2.7439 3.09563 4.17586e-19)
(-2.75326 3.10619 -3.25967e-18)
(-2.76226 3.11635 3.18978e-18)
(-2.77092 3.12613 -2.72352e-18)
(-2.77926 3.13555 3.04932e-18)
(-2.78729 3.14463 7.45192e-19)
(-2.79501 3.15337 -2.55002e-18)
(-2.80245 3.16178 5.35528e-18)
(-2.80961 3.16989 -2.79981e-18)
(-2.81651 3.1777 3.42538e-19)
(-2.82314 3.18522 1.3426e-18)
(-2.82953 3.19246 -2.62919e-18)
(-2.83567 3.19942 1.93778e-18)
(-2.84157 3.20612 0)
(-2.84724 3.21256 1.24057e-18)
(-2.85269 3.21875 0)
(-2.85791 3.22469 1.78778e-18)
(-2.86292 3.23038 -5.91083e-19)
(-2.86772 3.23584 -2.30095e-18)
(-2.87231 3.24106 5.63788e-19)
(-2.87669 3.24605 0)
(-2.88088 3.25082 0)
(-2.88486 3.25536 0)
(-2.88865 3.25967 5.22932e-19)
(-2.89224 3.26377 -2.0499e-18)
(-2.89565 3.26766 4.02912e-18)
(-2.89886 3.27133 -4.44823e-18)
(-2.90188 3.27478 -4.79142e-19)
(-2.90472 3.27803 9.54775e-19)
(-2.90738 3.28106 -1.86485e-18)
(-2.90985 3.28389 5.97065e-21)
(-2.91213 3.28651 1.8007e-18)
(-2.91424 3.28892 8.81673e-19)
(-2.91616 3.29112 8.64747e-19)
(-2.9179 3.29312 0)
(-2.91946 3.29492 2.49138e-18)
(-2.92083 3.2965 -6.14949e-21)
(-2.92203 3.29789 -1.60114e-18)
(-2.92305 3.29906 -7.83091e-19)
(-2.92388 3.30003 0)
(-2.92454 3.3008 0)
(-2.92501 3.30136 -7.36298e-19)
(-2.9253 3.30171 0)
(-2.9254 3.30185 -7.05951e-19)
(-2.92533 3.30179 -2.06991e-18)
(-2.92507 3.30151 6.826e-19)
(-2.92462 3.30103 -6.55266e-19)
(-2.92399 3.30033 1.29753e-18)
(-2.92317 3.29942 -6.32857e-19)
(-2.92216 3.29829 1.23743e-18)
(-2.92096 3.29695 -1.20942e-18)
(-2.91958 3.2954 0)
(-2.918 3.29362 0)
(-2.91622 3.29163 1.12725e-18)
(-2.91426 3.28941 0)
(-2.91209 3.28697 1.07406e-18)
(-2.90973 3.28431 -2.09586e-18)
(-2.90717 3.28142 0)
(-2.90441 3.2783 9.96637e-19)
(-2.90144 3.27495 0)
(-2.89827 3.27136 -9.46688e-19)
(-2.8949 3.26754 0)
(-1.47568 1.67894 1.2936e-17)
(-1.82325 2.07225 1.33868e-17)
(-1.97568 2.2446 -2.20686e-17)
(-2.07754 2.3604 5.31557e-21)
(-2.15452 2.44741 1.07222e-17)
(-2.21593 2.51699 -9.4252e-18)
(-2.26702 2.57481 -5.12712e-19)
(-2.31073 2.62426 7.77733e-18)
(-2.34891 2.66745 7.77222e-18)
(-2.38282 2.70579 -1.33904e-17)
(-2.41331 2.74025 4.14489e-19)
(-2.44102 2.77156 5.83676e-18)
(-2.4664 2.80024 0)
(-2.48983 2.82669 3.54046e-19)
(-2.51157 2.85124 3.39024e-19)
(-2.53185 2.87415 0)
(-2.55085 2.8956 5.00033e-18)
(-2.56872 2.91577 -4.92675e-21)
(-2.58557 2.93481 -4.35869e-18)
(-2.60152 2.95281 2.80537e-19)
(-2.61664 2.9699 0)
(-2.63102 2.98613 -3.67658e-18)
(-2.64471 3.0016 3.56959e-18)
(-2.65777 3.01636 -1.93821e-23)
(-2.67025 3.03046 -3.84216e-18)
(-2.68218 3.04396 4.20859e-18)
(-2.69362 3.05688 0)
(-2.70458 3.06928 0)
(-2.71509 3.08119 -3.0208e-18)
(-2.72519 3.09262 4.9443e-21)
(-2.73489 3.10361 3.29199e-18)
(-2.74423 3.11418 0)
(-2.7532 3.12436 -3.13654e-18)
(-2.76184 3.13415 2.68767e-18)
(-2.77015 3.14359 -2.62371e-18)
(-2.77815 3.15267 2.57223e-18)
(-2.78586 3.16142 -3.59334e-19)
(-2.79327 3.16985 -2.46045e-18)
(-2.80042 3.17797 2.75982e-18)
(-2.80729 3.18579 0)
(-2.81391 3.19332 2.64516e-18)
(-2.82028 3.20057 -2.59832e-18)
(-2.8264 3.20755 0)
(-2.83229 3.21426 0)
(-2.83795 3.22071 -3.05807e-18)
(-2.84338 3.2269 1.8044e-18)
(-2.8486 3.23285 2.94374e-18)
(-2.85359 3.23856 -4.04802e-18)
(-2.85838 3.24402 2.27297e-18)
(-2.86296 3.24925 0)
(-2.86733 3.25425 0)
(-2.87151 3.25903 2.68103e-18)
(-2.87548 3.26358 -2.11053e-18)
(-2.87926 3.2679 -5.17276e-19)
(-2.88285 3.27201 0)
(-2.88625 3.2759 -2.48966e-18)
(-2.88945 3.27958 5.78102e-21)
(-2.89247 3.28304 1.44403e-18)
(-2.89531 3.2863 2.82619e-18)
(-2.89795 3.28934 -2.31694e-18)
(-2.90042 3.29217 9.08411e-19)
(-2.9027 3.2948 0)
(-2.9048 3.29721 -1.76506e-23)
(-2.90672 3.29942 0)
(-2.90846 3.30143 8.41959e-19)
(-2.91001 3.30322 8.2282e-19)
(-2.91139 3.30482 -1.62299e-18)
(-2.91258 3.3062 7.94246e-19)
(-2.9136 3.30738 7.78703e-19)
(-2.91443 3.30835 7.63332e-19)
(-2.91509 3.30912 -1.49315e-18)
(-2.91556 3.30968 2.20239e-18)
(-2.91585 3.31003 0)
(-2.91596 3.31018 7.03471e-19)
(-2.91588 3.31011 -6.88875e-19)
(-2.91562 3.30984 -1.34889e-18)
(-2.91518 3.30935 -6.6015e-19)
(-2.91455 3.30865 0)
(-2.91374 3.30774 6.32015e-19)
(-2.91273 3.30661 0)
(-2.91154 3.30527 1.20887e-18)
(-2.91016 3.30371 0)
(-2.90859 3.30193 0)
(-2.90682 3.29993 -1.1251e-18)
(-2.90486 3.29771 3.23791e-21)
(-2.9027 3.29527 1.07605e-18)
(-2.90035 3.2926 1.58207e-23)
(-2.8978 3.2897 -1.02499e-18)
(-2.89505 3.28657 -9.99923e-19)
(-2.89209 3.28321 -1.94703e-18)
(-2.88893 3.27962 9.53927e-19)
(-2.88557 3.27579 0)
(-1.47071 1.68372 -1.2917e-17)
(-1.81747 2.07767 1.11212e-17)
(-1.96917 2.2507 0)
(-2.0708 2.36673 1.01742e-17)
(-2.14748 2.45402 -1.06288e-17)
(-2.20868 2.52379 -6.64079e-23)
(-2.25959 2.58176 7.68525e-18)
(-2.30313 2.63135 -5.31721e-21)
(-2.34117 2.67465 -8.13275e-18)
(-2.37495 2.71309 0)
(-2.40533 2.74765 -4.03729e-19)
(-2.43292 2.77904 -6.13395e-18)
(-2.45821 2.80779 5.84788e-18)
(-2.48154 2.83432 0)
(-2.50319 2.85893 -3.33947e-19)
(-2.52339 2.88188 -3.20363e-19)
(-2.54231 2.90339 0)
(-2.56011 2.92361 -4.44419e-18)
(-2.5769 2.94268 8.86252e-18)
(-2.59278 2.96073 -9.11204e-18)
(-2.60784 2.97784 8.54592e-18)
(-2.62216 2.99411 -5.22064e-19)
(-2.63579 3.00961 -3.51292e-18)
(-2.6488 3.02439 4.8675e-19)
(-2.66123 3.03852 0)
(-2.67312 3.05204 -4.59908e-19)
(-2.68451 3.06499 0)
(-2.69543 3.07741 3.92204e-18)
(-2.7059 3.08933 -3.82808e-18)
(-2.71597 3.10078 3.31479e-18)
(-2.72564 3.11179 -6.47598e-18)
(-2.73493 3.12238 3.56028e-18)
(-2.74388 3.13257 0)
(-2.75249 3.14238 3.01911e-18)
(-2.76077 3.15183 -6.6502e-18)
(-2.76875 3.16093 2.89488e-18)
(-2.77643 3.16969 1.8564e-24)
(-2.78382 3.17813 0)
(-2.79094 3.18627 -3.05381e-18)
(-2.7978 3.1941 5.12316e-21)
(-2.8044 3.20164 1.95994e-18)
(-2.81075 3.2089 0)
(-2.81686 3.21589 -2.50707e-18)
(-2.82273 3.22261 3.07996e-18)
(-2.82837 3.22907 0)
(-2.83379 3.23528 1.04057e-23)
(-2.83899 3.24124 -2.32359e-18)
(-2.84397 3.24695 3.99594e-18)
(-2.84875 3.25243 -2.80466e-18)
(-2.85331 3.25767 0)
(-2.85768 3.26268 5.40181e-19)
(-2.86184 3.26746 -5.30414e-19)
(-2.86581 3.27202 0)
(-2.86958 3.27636 -2.04293e-18)
(-2.87316 3.28047 2.01171e-18)
(-2.87655 3.28437 4.93178e-19)
(-2.87975 3.28806 0)
(-2.88276 3.29153 9.51054e-19)
(-2.88559 3.29479 -4.66919e-19)
(-2.88823 3.29783 8.92053e-24)
(-2.89069 3.30067 8.97197e-19)
(-2.89297 3.3033 -1.77026e-18)
(-2.89506 3.30573 -8.67401e-19)
(-2.89698 3.30794 -8.5133e-19)
(-2.89871 3.30995 -8.3549e-19)
(-2.90026 3.31175 0)
(-2.90164 3.31335 8.04328e-19)
(-2.90283 3.31474 -7.89036e-19)
(-2.90385 3.31592 -1.54778e-18)
(-2.90468 3.31689 -7.58922e-19)
(-2.90533 3.31766 -1.48509e-18)
(-2.90581 3.31822 2.19139e-18)
(-2.9061 3.31858 -1.4267e-18)
(-2.90621 3.31872 7.03674e-19)
(-2.90614 3.31866 2.05577e-18)
(-2.90588 3.31838 -6.75362e-19)
(-2.90544 3.31789 6.58262e-19)
(-2.90481 3.31719 -1.28569e-18)
(-2.904 3.31628 1.26468e-18)
(-2.903 3.31515 0)
(-2.90182 3.31381 -2.4151e-18)
(-2.90044 3.31224 -1.18097e-18)
(-2.89887 3.31046 1.15466e-18)
(-2.89712 3.30846 -2.25726e-18)
(-2.89516 3.30623 1.10287e-18)
(-2.89301 3.30378 -2.15148e-18)
(-2.89067 3.3011 2.10753e-18)
(-2.88813 3.2982 1.46722e-23)
(-2.88539 3.29506 9.99281e-19)
(-2.88244 3.2917 -3.24448e-21)
(-2.87929 3.2881 -9.54077e-19)
(-2.87594 3.28426 9.27036e-19)
(-1.4656 1.68853 -1.21432e-17)
(-1.81145 2.08324 -1.18145e-17)
(-1.96244 2.25689 4.9929e-21)
(-2.0638 2.37319 2.02001e-17)
(-2.14019 2.46075 -8.77856e-18)
(-2.20118 2.5307 9.2374e-18)
(-2.2519 2.58884 -7.60505e-18)
(-2.29528 2.63856 0)
(-2.33318 2.68199 4.45923e-19)
(-2.36683 2.72053 6.30744e-18)
(-2.39709 2.75518 -5.97523e-18)
(-2.42457 2.78666 7.56142e-19)
(-2.44976 2.81549 3.60017e-19)
(-2.473 2.84208 -5.15279e-18)
(-2.49456 2.86676 5.59358e-18)
(-2.51468 2.88977 5.35953e-18)
(-2.53353 2.91133 -4.85177e-18)
(-2.55125 2.9316 4.66589e-18)
(-2.56797 2.95072 -4.50386e-18)
(-2.58378 2.96881 -2.71711e-19)
(-2.59878 2.98596 -4.20181e-18)
(-2.61304 3.00227 4.07352e-18)
(-2.62662 3.0178 4.93388e-19)
(-2.63958 3.03261 -4.78871e-19)
(-2.65196 3.04677 0)
(-2.6638 3.06031 -3.6172e-18)
(-2.67514 3.07329 3.52549e-18)
(-2.68602 3.08573 -4.28993e-19)
(-2.69645 3.09768 0)
(-2.70648 3.10915 3.66951e-18)
(-2.71611 3.12018 -3.58687e-18)
(-2.72537 3.13079 -3.88777e-18)
(-2.73428 3.141 3.04398e-18)
(-2.74286 3.15082 -2.97164e-18)
(-2.75112 3.16029 3.27565e-18)
(-2.75906 3.1694 0)
(-2.76672 3.17818 3.48517e-19)
(-2.77409 3.18664 3.41368e-19)
(-2.78119 3.19478 -2.00437e-18)
(-2.78802 3.20263 5.24541e-18)
(-2.7946 3.21018 -6.47925e-19)
(-2.80093 3.21746 -4.413e-18)
(-2.80702 3.22446 2.47619e-18)
(-2.81287 3.23119 1.21089e-18)
(-2.8185 3.23766 -2.38428e-18)
(-2.8239 3.24388 5.84415e-19)
(-2.82908 3.24985 2.29212e-18)
(-2.83405 3.25557 -1.12915e-18)
(-2.83881 3.26106 2.76263e-18)
(-2.84337 3.26631 -1.63203e-18)
(-2.84772 3.27133 -8.88267e-24)
(-2.85187 3.27612 0)
(-2.85583 3.28069 -2.05544e-18)
(-2.85959 3.28503 2.52983e-18)
(-2.86316 3.28916 0)
(-2.86654 3.29307 0)
(-2.86973 3.29676 1.91313e-18)
(-2.87274 3.30024 -9.46658e-19)
(-2.87556 3.3035 -2.31338e-18)
(-2.87819 3.30656 -1.35867e-18)
(-2.88065 3.3094 1.78581e-18)
(-2.88292 3.31204 -8.75417e-19)
(-2.88501 3.31446 8.56666e-19)
(-2.88692 3.31668 -8.46935e-19)
(-2.88865 3.3187 -1.65416e-18)
(-2.8902 3.3205 1.62965e-18)
(-2.89158 3.3221 -1.59654e-18)
(-2.89277 3.32349 0)
(-2.89378 3.32468 3.07151e-18)
(-2.89461 3.32566 -1.51117e-18)
(-2.89527 3.32643 -1.47618e-18)
(-2.89574 3.32699 7.28423e-19)
(-2.89603 3.32735 0)
(-2.89614 3.32749 6.97193e-19)
(-2.89607 3.32743 0)
(-2.89582 3.32715 6.69559e-19)
(-2.89538 3.32666 6.52785e-19)
(-2.89476 3.32596 -1.28807e-18)
(-2.89395 3.32505 0)
(-2.89296 3.32391 6.15835e-19)
(-2.89178 3.32257 2.41087e-18)
(-2.89041 3.321 1.17945e-18)
(-2.88885 3.31921 -1.1537e-18)
(-2.8871 3.3172 1.54178e-23)
(-2.88515 3.31497 0)
(-2.88301 3.31252 -1.07794e-18)
(-2.88068 3.30983 -3.24698e-21)
(-2.87814 3.30692 -3.24373e-21)
(-2.87541 3.30378 0)
(-2.87248 3.3004 -9.80545e-19)
(-2.86934 3.29679 1.91047e-18)
(-2.866 3.29295 -3.27171e-21)
(-1.46033 1.6934 -1.2126e-17)
(-1.80518 2.08894 -1.17701e-17)
(-1.95549 2.26319 2.16829e-17)
(-2.05655 2.37978 -1.00242e-17)
(-2.13264 2.4676 0)
(-2.19341 2.53775 0)
(-2.24394 2.59605 0)
(-2.28716 2.64591 7.4961e-18)
(-2.32492 2.68946 -7.04519e-18)
(-2.35844 2.72811 4.14944e-19)
(-2.38858 2.76286 6.27866e-18)
(-2.41596 2.79442 -3.77554e-19)
(-2.44104 2.82333 -1.1703e-17)
(-2.46419 2.85 5.07932e-18)
(-2.48567 2.87474 -6.47593e-19)
(-2.5057 2.89782 5.27533e-18)
(-2.52447 2.91943 2.93485e-19)
(-2.54212 2.93976 -4.88272e-18)
(-2.55877 2.95892 0)
(-2.57452 2.97706 4.80849e-18)
(-2.58946 2.99425 -4.13761e-18)
(-2.60366 3.0106 5.00527e-19)
(-2.61718 3.02617 -4.8522e-19)
(-2.63008 3.04102 4.70932e-19)
(-2.64241 3.0552 0)
(-2.6542 3.06878 3.55734e-18)
(-2.6655 3.08178 -3.46722e-18)
(-2.67633 3.09426 4.21926e-19)
(-2.68672 3.10622 4.11339e-19)
(-2.69671 3.11772 -8.02598e-19)
(-2.7063 3.12877 3.52351e-18)
(-2.71553 3.1394 -5.74042e-18)
(-2.7244 3.14963 2.99476e-18)
(-2.73295 3.15948 2.55808e-18)
(-2.74117 3.16896 -5.7261e-18)
(-2.74909 3.17809 2.80489e-18)
(-2.75672 3.18688 3.43038e-19)
(-2.76406 3.19536 -3.36048e-19)
(-2.77113 3.20352 2.63206e-18)
(-2.77794 3.21138 -2.26228e-18)
(-2.7845 3.21895 -1.26373e-18)
(-2.79081 3.22624 1.86552e-18)
(-2.79687 3.23325 -6.0927e-19)
(-2.80271 3.23999 2.38902e-18)
(-2.80832 3.24648 -2.34998e-18)
(-2.8137 3.25271 2.878e-18)
(-2.81887 3.25869 -5.21329e-21)
(-2.82382 3.26442 -5.60758e-19)
(-2.82857 3.26992 -2.18497e-18)
(-2.83311 3.27518 -5.359e-19)
(-2.83745 3.28021 1.5766e-18)
(-2.84159 3.28501 -2.07137e-18)
(-2.84553 3.28959 -5.08097e-19)
(-2.84928 3.29394 0)
(-2.85284 3.29807 -4.9049e-19)
(-2.85621 3.30199 -1.92494e-18)
(-2.8594 3.30569 2.37039e-18)
(-2.86239 3.30917 2.78866e-18)
(-2.86521 3.31245 -9.1704e-19)
(-2.86784 3.31551 0)
(-2.87029 3.31836 8.82367e-19)
(-2.87255 3.321 2.59748e-18)
(-2.87464 3.32343 -1.70572e-18)
(-2.87655 3.32566 8.36231e-19)
(-2.87827 3.32768 -1.63954e-18)
(-2.87982 3.32949 5.93541e-21)
(-2.88119 3.33109 3.17012e-18)
(-2.88238 3.33248 0)
(-2.88339 3.33367 -1.14145e-23)
(-2.88422 3.33465 1.49453e-18)
(-2.88488 3.33543 -1.47253e-18)
(-2.88535 3.33599 0)
(-2.88564 3.33635 2.1181e-18)
(-2.88576 3.33649 -6.20406e-21)
(-2.88569 3.33643 -1.36291e-18)
(-2.88544 3.33615 6.63361e-19)
(-2.885 3.33566 -6.56359e-19)
(-2.88438 3.33496 0)
(-2.88358 3.33404 0)
(-2.88259 3.33291 -8.15532e-24)
(-2.88142 3.33155 -1.58325e-23)
(-2.88005 3.32998 1.17713e-18)
(-2.8785 3.32819 -1.15196e-18)
(-2.87675 3.32618 3.23787e-21)
(-2.87482 3.32394 6.46976e-21)
(-2.87269 3.32148 3.23673e-18)
(-2.87036 3.31879 1.05359e-18)