/*--------------------------------*- C++ -*----------------------------------*\
  =========                 |
  \\      /  F ield         | OpenFOAM: The Open Source CFD Toolbox
   \\    /   O peration     | Website:  https://openfoam.org
    \\  /    A nd           | Version:  10
     \\/     M anipulation  |
\*---------------------------------------------------------------------------*/
FoamFile
{
    format      ascii;
    class       volScalarField;
    location    "38000";
    object      Co;
}
// * * * * * * * * * * * * * * * * * * * * * * * * * * * * * * * * * * * * * //

dimensions      [0 0 0 0 0 0 0];

internalField   nonuniform List<scalar> 
17969
(
75.7941
48.7064
49.3729
46.194
40.3366
37.2788
38.8315
41.8876
46.5141
56.877
82.4685
119.699
176.406
244.496
321.332
402.521
482.907
557.603
622.922
676.787
718.482
748.654
768.696
780.229
784.953
784.357
779.707
772.058
762.231
750.855
738.4
725.207
711.516
697.49
683.243
668.848
654.358
639.81
625.23
610.636
596.045
581.466
566.91
552.384
537.893
523.443
509.038
494.683
480.379
466.131
451.939
437.808
423.737
409.729
395.786
381.907
368.094
354.348
340.669
327.057
313.513
300.037
286.63
273.29
260.02
246.819
233.687
220.626
207.636
194.718
181.875
169.109
156.421
143.816
134.799
129.392
124.257
124.504
130.237
135.709
140.939
145.941
150.726
155.306
159.69
163.885
167.9
171.744
175.425
178.957
182.344
185.588
188.685
191.636
194.451
197.138
199.706
202.164
204.52
206.785
76.8067
46.798
49.5007
49.38
47.0947
43.1189
38.5651
37.3111
39.5721
43.0881
48.1426
58.5136
82.0865
114.419
164.42
224.488
293.227
367.632
443.62
516.966
583.876
641.621
688.799
725.098
751.21
768.361
777.95
781.399
779.962
774.733
766.639
756.419
744.652
731.784
718.148
703.985
689.464
674.703
659.783
644.763
629.682
614.571
599.45
584.336
569.242
554.178
539.15
524.166
509.23
494.346
479.518
464.749
450.041
435.395
420.815
406.3
391.853
377.473
363.162
348.919
334.746
320.642
306.607
292.642
278.746
264.921
251.165
237.48
223.867
210.325
196.858
183.466
170.153
156.922
147.598
142.192
137.051
134.341
140.149
145.687
150.971
156.016
160.834
165.435
169.829
174.026
178.031
181.851
185.493
188.963
192.272
195.431
198.44
201.3
204.013
206.592
209.045
211.383
213.616
215.754
77.9414
45.0879
48.4423
49.9993
49.9135
48.7085
46.3121
42.4312
37.5643
36.063
38.5667
42.3402
47.5873
56.6273
78.0604
105.035
148.87
201.499
262.391
329.696
400.419
470.943
537.753
597.865
649.229
690.87
722.722
745.484
760.245
768.223
770.616
768.497
762.823
754.411
743.927
731.906
718.771
704.843
690.361
675.496
660.372
645.074
629.664
614.189
598.679
583.16
567.647
552.156
536.696
521.276
505.903
490.581
475.314
460.107
444.961
429.879
414.861
399.911
385.028
370.213
355.466
340.789
326.18
311.641
297.17
282.769
268.436
254.172
239.978
225.854
211.801
197.82
183.915
170.089
160.485
155.101
149.974
145.389
149.801
155.39
160.714
165.785
170.617
175.219
179.602
183.774
187.743
191.516
195.098
198.492
201.705
204.744
207.619
210.338
212.903
215.325
217.617
219.791
221.858
223.83
79.2425
43.8842
47.3628
49.7193
50.7749
51.0848
50.671
49.4028
47.0271
43.1694
37.3871
34.4632
36.5266
40.41
45.6688
52.6011
72.0753
95.8708
132.346
178.277
231.78
291.894
356.575
422.979
487.976
548.644
602.612
648.329
685.13
713.115
732.971
745.659
752.243
753.731
751.045
745.03
736.402
725.76
713.598
700.316
686.221
671.547
656.466
641.105
625.554
609.877
594.122
578.325
562.512
546.702
530.911
515.15
499.428
483.752
468.126
452.557
437.045
421.595
406.209
390.886
375.629
360.439
345.314
330.256
315.265
300.34
285.48
270.686
255.958
241.295
226.698
212.169
197.709
183.322
173.466
168.127
163.034
158.179
159.199
164.822
170.166
175.243
180.066
184.645
188.989
193.107
197.008
200.699
204.185
207.472
210.563
213.461
216.172
218.706
221.074
223.29
225.374
227.34
229.199
230.965
232.65
234.265
235.823
237.334
80.608
42.8502
46.2524
48.964
50.5382
51.5672
52.1329
52.1994
51.664
50.3423
47.9588
44.17
38.5895
33.9928
34.2941
38.1125
43.2017
49.6613
65.3312
86.5416
116.274
156.387
203.168
256.289
314.516
375.783
437.502
496.98
551.798
600.073
640.642
673.075
697.59
714.844
725.685
731.034
731.731
728.572
722.293
713.526
702.811
690.604
677.273
663.113
648.351
633.159
617.663
601.956
586.107
570.166
554.172
538.153
522.131
506.12
490.134
474.183
458.274
442.413
426.605
410.852
395.157
379.521
363.947
348.433
332.981
317.59
302.259
286.989
271.777
256.625
241.531
226.497
211.523
196.613
186.537
181.269
176.23
171.421
168.677
173.97
179.311
184.369
189.156
193.682
197.955
201.985
205.779
209.345
212.692
215.824
218.748
221.468
223.987
226.31
228.445
230.413
232.244
233.96
235.574
237.097
238.54
239.916
241.237
242.516
82.0341
41.905
45.1659
48.0165
49.7632
51.0471
51.9974
52.6309
52.92
52.7971
52.1414
50.7658
48.4173
44.7899
39.5371
33.6452
32.409
36.0154
40.7976
46.8408
58.7051
77.7561
101.569
136.793
177.628
224.22
275.956
331.462
388.754
445.537
499.515
548.7
591.608
627.387
655.795
677.133
692.017
701.19
705.417
705.405
701.842
695.357
686.51
675.79
663.608
650.31
636.174
621.417
606.204
590.662
574.888
558.952
542.905
526.79
510.637
494.469
478.305
462.158
446.039
429.956
413.914
397.919
381.973
366.079
350.236
334.446
318.708
303.022
287.387
271.801
256.263
240.774
225.334
209.945
199.685
194.519
189.557
184.808
180.257
182.805
188.116
193.126
197.846
202.285
206.451
210.351
213.994
217.388
220.542
223.464
226.165
228.653
230.936
233.019
234.908
236.612
238.165
239.603
240.94
242.186
243.35
244.447
245.49
246.493
83.5182
41.0039
44.0994
46.9534
48.6544
49.9031
50.8747
51.6199
52.1483
52.4443
52.4677
52.1459
51.3618
49.9448
47.6696
44.2641
39.4107
33.3552
31.5822
34.863
39.234
44.7766
52.9835
70.1933
90.128
120.009
155.778
196.494
241.998
291.509
343.623
396.506
448.152
496.634
540.346
578.128
609.391
634.064
652.482
665.199
672.854
676.059
675.414
671.509
664.88
656.013
645.346
633.256
620.061
606.018
591.332
576.166
560.646
544.87
528.909
512.82
496.644
480.418
464.167
447.908
431.653
415.418
399.209
383.031
366.888
350.783
334.717
318.689
302.7
286.747
270.83
254.946
239.095
223.278
212.879
207.848
202.989
198.318
193.838
191.763
196.533
201.461
206.077
210.388
214.402
218.126
221.566
224.733
227.635
230.288
232.708
234.912
236.916
238.73
240.357
241.797
243.07
244.211
245.241
246.167
247.005
247.769
248.479
249.152
249.805
85.086
40.2021
43.163
45.9459
47.4755
48.5183
49.2957
49.886
50.3208
50.6084
50.7419
50.7
50.4418
49.8984
48.9637
47.4912
45.2855
42.106
37.6673
33.0829
32.301
35.1639
39.0272
43.981
50.0708
64.3237
82.1856
106.287
137.803
173.394
213.183
256.802
303.376
351.544
399.669
446.024
489.02
527.387
560.261
587.267
608.464
624.193
634.931
641.197
643.476
642.276
638.08
631.346
622.5
611.931
599.983
586.939
573.042
558.488
543.434
528.001
512.283
496.367
480.304
464.133
447.887
431.602
415.3
398.989
382.677
366.374
350.087
333.819
317.568
301.335
285.118
268.914
252.724
236.545
226.062
221.209
216.485
211.907
207.503
203.247
204.474
209.28
213.747
217.884
221.695
225.187
228.369
231.25
233.849
236.184
238.282
240.169
241.87
243.398
244.752
245.919
246.896
247.704
248.369
248.909
249.348
249.709
250.017
250.296
250.567
250.85
251.161
86.7604
39.5788
42.4827
45.1724
46.4848
47.2539
47.7447
48.0581
48.2404
48.313
48.2838
48.1512
47.905
47.5242
46.9717
46.1862
45.0756
43.5137
41.338
38.3416
34.4695
33.009
34.6279
37.0199
40.3169
44.6217
49.994
60.2561
76.3218
95.4628
123.471
154.77
189.519
227.664
268.71
311.754
355.534
398.62
439.575
477.129
510.298
538.481
561.493
579.469
592.731
601.673
606.665
608.109
606.404
601.95
595.138
586.343
575.907
564.137
551.296
537.609
523.248
508.365
493.075
477.485
461.656
445.679
429.578
413.377
397.103
380.788
364.447
348.086
331.709
315.318
298.914
282.495
266.06
249.61
239.119
234.504
229.962
225.507
221.173
216.98
214.033
216.415
220.685
224.595
228.153
231.366
234.243
236.804
239.078
241.094
242.876
244.45
245.832
247.03
248.042
248.852
249.442
249.822
250.026
250.089
250.047
249.931
249.774
249.605
249.45
249.33
249.264
249.264
88.5523
39.2063
42.1608
44.7593
45.853
46.3445
46.5368
46.5479
46.434
46.2235
45.9311
45.5636
45.1222
44.6026
43.9946
43.2791
42.4238
41.3762
40.0592
38.3673
36.6911
36.0556
36.3843
37.1135
38.3713
40.2946
43.0173
46.6558
51.2928
57.9451
72.3833
88.6756
112.284
140.042
170.57
203.872
239.744
277.632
316.667
355.73
393.592
429.1
461.292
489.439
513.18
532.487
547.534
558.583
565.875
569.685
570.316
568.099
563.375
556.484
547.748
537.466
525.915
513.338
499.922
485.843
471.212
456.152
440.738
425.082
409.221
393.227
377.116
360.898
344.601
328.241
311.819
295.336
278.797
262.205
251.812
247.522
243.24
238.971
234.737
230.583
226.522
224.537
226.626
230.271
233.551
236.474
239.051
241.312
243.291
245.009
246.48
247.709
248.694
249.434
249.933
250.193
250.223
250.047
249.696
249.21
248.632
247.999
247.35
246.716
246.125
245.599
245.157
244.811
244.57
244.44
90.4651
39.134
42.2776
44.79
45.6897
45.9338
45.8584
45.5952
45.2061
44.7229
44.178
43.8812
43.8218
43.7186
43.5726
43.385
43.1584
42.897
42.6092
42.3091
42.0203
41.7754
41.6177
41.6042
41.8066
42.3191
43.2572
44.7505
46.9325
49.9264
53.829
58.7023
70.1273
84.7193
103.636
128.438
155.479
184.718
216.022
249.094
283.362
318.03
352.155
384.721
414.839
441.792
465.165
484.834
500.835
513.255
522.212
527.882
530.486
530.28
527.539
522.548
515.596
506.952
496.869
485.567
473.277
460.199
446.439
432.146
417.401
402.279
386.828
371.141
355.282
339.268
323.106
306.802
290.378
273.845
263.709
259.866
255.96
251.992
247.97
243.918
239.873
235.858
233.861
234.646
237.624
240.253
242.55
244.536
246.21
247.57
248.615
249.348
249.775
249.909
249.765
249.366
248.743
247.935
246.979
245.916
244.787
243.635
242.5
241.414
240.407
239.5
238.709
238.046
237.518
237.127
236.873
236.756
236.772
236.916
92.4961
39.3718
42.8614
45.3387
46.0685
46.3542
46.8042
47.3202
47.7373
48.0804
48.3627
48.5913
48.7702
48.901
48.9845
49.0207
49.0096
48.9512
48.8468
48.6992
48.5144
48.3038
48.0865
47.8894
47.7472
47.7056
47.8233
48.1761
48.8609
49.9926
51.6974
54.1007
57.3107
61.4051
69.1685
82.201
96.8712
119.114
143.222
169.099
196.597
225.465
255.33
285.655
315.749
344.814
372.102
396.983
419.063
438.152
454.168
467.093
476.962
483.865
487.94
489.361
488.334
485.082
479.837
472.83
464.293
454.43
443.42
431.436
418.666
405.28
391.338
376.914
362.103
346.958
331.514
315.788
299.833
283.677
274.039
270.822
267.461
263.957
260.315
256.546
252.675
248.727
244.722
241.681
241.06
242.293
244.212
245.797
247.024
247.89
248.393
248.537
248.339
247.823
247.018
245.961
244.69
243.251
241.691
240.055
238.389
236.738
235.143
233.638
232.25
231
229.902
228.965
228.191
227.581
227.132
226.84
226.7
226.703
94.6436
39.9224
43.8341
46.5982
48.1688
49.3702
50.2684
50.9955
51.6116
52.1471
52.6182
53.0345
53.4013
53.7214
53.9961
54.2257
54.4097
54.5471
54.6371
54.679
54.6727
54.6198
54.5246
54.3955
54.2475
54.1028
53.9897
53.9445
54.0138
54.2576
54.7544
55.6011
56.9096
58.7986
61.3804
64.7464
69.1265
80.6841
93.5809
111.366
132.868
155.853
180.127
205.462
231.541
257.935
284.126
309.531
333.586
355.833
375.949
393.71
408.967
421.636
431.688
439.149
444.09
446.622
446.884
445.043
441.28
435.777
428.716
420.276
410.618
399.897
388.257
375.824
362.723
349.063
334.962
320.464
305.589
290.337
281.572
279.251
276.678
273.855
270.791
267.5
263.999
260.309
256.449
252.443
248.308
246.161
244.808
244.481
245.131
245.413
245.317
244.845
244.018
242.867
241.427
239.74
237.854
235.819
233.69
231.52
229.361
227.259
225.256
223.387
221.678
220.146
218.801
217.649
216.688
215.916
215.327
214.913
214.666
214.577
96.9037
40.8239
45.5666
49.04
51.1618
52.5572
53.6164
54.488
55.2407
55.9092
56.5128
57.0629
57.5663
58.0271
58.4474
58.8283
59.1695
59.4703
59.7293
59.945
60.1155
60.2395
60.3159
60.3452
60.3296
60.2752
60.1931
60.1012
60.0234
59.989
60.0349
60.2079
60.5698
61.1991
62.1903
63.6489
65.6817
68.3843
71.8302
79.7899
91.1305
104.717
123.799
144.128
165.514
187.728
210.483
233.419
256.108
278.114
299.044
318.573
336.432
352.41
366.352
378.153
387.756
395.149
400.358
403.448
404.508
403.649
401.006
396.73
390.955
383.815
375.461
366.038
355.657
344.382
332.296
319.524
306.191
292.352
284.897
283.793
282.286
280.399
278.151
275.559
272.641
269.415
265.903
262.125
258.101
253.85
249.396
246.064
243.834
241.366
239.122
238.03
236.586
234.823
232.783
230.512
228.064
225.497
222.87
220.242
217.668
215.198
212.874
210.728
208.782
207.052
205.543
204.254
203.182
202.319
201.656
201.183
200.889
200.763
99.2523
41.9892
47.8268
51.8242
54.1041
55.6048
56.7489
57.6975
58.5249
59.2692
59.9516
60.5848
61.1767
61.7323
62.2545
62.7449
63.2037
63.6305
64.024
64.3825
64.7035
64.9847
65.2233
65.417
65.5638
65.6629
65.7149
65.7238
65.6979
65.651
65.6032
65.5793
65.6092
65.73
65.9896
66.4501
67.1877
68.2918
69.8584
71.9782
74.7286
79.2913
89.147
100.022
115.698
133.61
152.409
171.85
191.644
211.469
231.001
249.93
267.97
284.87
300.414
314.425
326.763
337.328
346.058
352.922
357.926
361.1
362.505
362.224
360.346
356.962
352.179
346.118
338.892
330.588
321.29
311.086
300.075
288.312
282.6
282.99
282.848
282.192
281.045
279.424
277.349
274.839
271.916
268.603
264.923
260.902
256.567
251.955
247.109
242.085
237.395
234.033
230.432
226.548
222.355
218.174
215.252
212.252
209.237
206.266
203.396
200.674
198.143
195.831
193.76
191.939
190.367
189.038
187.944
187.073
186.413
185.951
185.675
185.573
185.633
101.694
43.4399
50.2649
54.5936
56.9209
58.437
59.5902
60.5496
61.3925
62.1584
62.8696
63.5396
64.1768
64.7867
65.3725
65.936
66.4777
66.9973
67.4933
67.9639
68.4063
68.8173
69.1935
69.5312
69.8266
70.0765
70.2779
70.429
70.5297
70.5823
70.5931
70.5729
70.5386
70.512
70.5189
70.5897
70.7618
71.0839
71.617
72.4337
73.6151
75.2445
77.3962
80.1266
87.4617
96.8832
108.534
124.226
140.628
157.497
174.574
191.601
208.322
224.498
239.91
254.359
267.675
279.713
290.359
299.525
307.155
313.218
317.708
320.645
322.067
322.018
320.562
317.774
313.737
308.529
302.222
294.884
286.586
277.39
273.818
275.944
277.411
278.243
278.461
278.083
277.124
275.603
273.542
270.964
267.896
264.365
260.405
256.054
251.357
246.364
241.134
235.728
230.169
224.382
218.259
212.064
207.049
201.797
196.342
190.725
186.749
183.933
181.346
179.012
176.951
175.168
173.653
172.393
171.375
170.583
170.004
169.624
169.429
169.407
169.547
104.206
45.1645
52.8272
57.2457
59.5105
60.9611
62.0573
62.9701
63.7771
64.5181
65.2156
65.8831
66.5294
67.1599
67.7779
68.3852
68.9822
69.5681
70.1413
70.6992
71.2385
71.7554
72.2454
72.7038
73.1258
73.5065
73.8413
74.1263
74.3582
74.5351
74.6565
74.7242
74.7435
74.7238
74.6796
74.6307
74.6004
74.6152
74.7058
74.9105
75.2777
75.8652
76.7397
77.972
79.631
81.7768
85.9058
94.0242
102.843
115.609
129.785
144.299
158.931
173.465
187.692
201.422
214.476
226.7
237.957
248.132
257.135
264.895
271.366
276.522
280.358
282.879
284.109
284.085
282.855
280.47
276.983
272.444
266.904
260.409
259.047
262.923
266.065
268.494
270.222
271.269
271.63
271.324
270.367
268.776
266.576
263.796
260.468
256.633
252.336
247.631
242.575
237.231
231.662
225.872
219.764
213.249
206.301
198.913
191.091
182.855
176.056
170.196
164.338
160.724
158.827
157.219
155.886
154.807
153.963
153.339
152.92
152.691
152.642
152.76
153.034
106.775
47.103
55.382
59.6691
61.7784
63.0974
64.0825
64.9015
65.6302
66.3077
66.9562
67.589
68.2147
68.8387
69.4642
70.0924
70.7234
71.3558
71.9873
72.6143
73.2327
73.8373
74.4227
74.9829
75.5117
76.0032
76.4515
76.8511
77.1976
77.4871
77.7169
77.8858
77.9941
78.0442
78.0415
77.9952
77.9184
77.8292
77.7495
77.7036
77.7181
77.8237
78.0591
78.4707
79.1124
80.0436
81.3252
83.0123
85.1478
91.2144
98.7378
107.468
119.615
132.007
144.455
156.779
168.805
180.376
191.348
201.596
211.012
219.507
227.01
233.468
238.845
243.121
246.29
248.36
249.35
249.286
248.2
246.124
243.092
239.135
239.81
245.237
249.925
253.881
257.099
259.598
261.357
262.382
262.673
262.243
261.107
259.286
256.806
253.706
250.031
245.832
241.169
236.106
230.713
225.047
219.068
212.671
205.805
198.464
190.663
182.422
173.785
164.802
155.536
148.321
142.663
138.626
137.596
136.818
136.264
135.911
135.74
135.738
135.892
136.193
136.633
137.205
109.375
49.0891
57.7177
61.7494
63.6368
64.7767
65.6104
66.2992
66.9164
67.4999
68.0712
68.6437
69.2257
69.8222
70.436
71.0681
71.7176
72.3824
73.059
73.7426
74.4278
75.1078
75.7758
76.4242
77.0455
77.6321
78.1772
78.674
79.1171
79.5016
79.824
80.0817
80.2739
80.4007
80.4642
80.4683
80.419
80.3254
80.2007
80.0613
79.9278
79.8228
79.7706
79.7973
79.9338
80.2174
80.6911
81.4025
82.4001
83.7289
85.4244
88.2548
94.6176
101.361
109.945
120.447
130.964
141.344
151.443
161.133
170.295
178.83
186.653
193.694
199.901
205.234
209.667
213.189
215.798
217.501
218.313
218.252
217.337
215.589
217.985
224.655
230.633
235.912
240.475
244.316
247.412
249.753
251.321
252.113
252.142
251.409
249.917
247.709
244.822
241.304
237.209
232.602
227.551
222.131
216.375
210.212
203.566
196.409
188.758
180.643
172.094
163.161
153.894
144.361
134.657
126.399
121.054
118.62
118.414
118.392
118.529
118.806
119.21
119.733
120.368
121.113
111.979
51.1917
59.9442
63.4496
65.0626
65.9822
66.6278
67.1532
67.6286
68.0907
68.5605
69.0509
69.5697
70.1219
70.7094
71.3325
71.9895
72.6769
73.3898
74.122
74.8662
75.6139
76.3564
77.0842
77.7882
78.4593
79.0892
79.6702
80.1957
80.6604
81.0601
81.392
81.6546
81.8476
81.9723
82.0311
82.0279
81.9678
81.8583
81.7085
81.5311
81.3417
81.1589
81.004
80.8991
80.8672
80.9328
81.1249
81.4767
82.0235
82.8008
83.8417
85.1719
86.8069
90.35
95.9775
101.815
109.517
118.35
127.045
135.485
143.564
151.191
158.284
164.778
170.622
175.776
180.214
183.92
186.888
189.12
190.623
191.408
191.484
195.252
202.836
209.807
216.148
221.834
226.839
231.13
234.678
237.454
239.427
240.61
241.007
240.577
239.35
237.356
234.636
231.238
227.217
222.639
217.579
212.101
206.21
199.851
192.972
185.559
177.64
169.254
160.445
151.261
141.761
132.008
122.077
112.029
104.787
100.301
100.601
101.041
101.606
102.283
103.063
103.941
104.915
114.59
53.249
62.1592
65.2448
66.5836
67.3404
67.8201
68.126
68.3006
68.3617
68.4892
68.8191
69.2597
69.7546
70.3052
70.9105
71.5677
72.2717
73.016
73.7925
74.5916
75.403
76.2155
77.0179
77.7989
78.548
79.2551
79.9116
80.5101
81.0446
81.5105
81.905
82.2265
82.4748
82.651
82.7574
82.7974
82.7753
82.6965
82.5676
82.3964
82.1925
81.9672
81.7353
81.5134
81.3205
81.1762
81.1009
81.1139
81.2361
81.4911
81.9035
82.4973
83.2938
84.3096
85.5533
87.0235
90.4974
95.2922
100.159
106.577
113.849
120.898
127.643
134.013
139.945
145.393
150.318
154.695
158.508
161.748
164.415
166.512
168.044
172.857
181.063
188.752
195.898
202.468
208.424
213.725
218.329
222.197
225.271
227.531
228.998
229.627
229.411
228.356
226.506
223.891
220.557
216.561
211.967
206.836
201.213
195.1
188.477
181.325
173.651
165.487
156.869
147.837
138.444
128.743
118.794
108.655
98.376
88.6299
83.6696
83.7539
84.6564
85.655
86.7433
87.9177
89.1775
117.177
55.2501
64.5268
67.8574
69.5263
70.6349
71.4658
72.1153
72.6242
73.0095
73.2779
73.4299
73.4631
73.3728
73.153
72.797
72.2975
71.7886
71.9748
72.7948
73.6483
74.5225
75.4038
76.2789
77.1345
77.9582
78.7387
79.4661
80.1321
80.7302
81.2558
81.7057
82.0786
82.3746
82.595
82.7423
82.82
82.8323
82.7843
82.6816
82.5307
82.3384
82.1128
81.863
81.5994
81.3346
81.0835
80.8622
80.6871
80.5748
80.5408
80.5986
80.7634
81.0504
81.4738
82.0452
82.7719
83.6555
84.6896
85.8589
88.7375
92.6513
96.529
101.79
107.728
113.426
118.832
123.902
128.604
132.915
136.818
140.308
143.382
146.04
151.618
160.205
168.378
176.103
183.342
190.048
196.171
201.659
206.463
210.525
213.791
216.25
217.872
218.642
218.529
217.569
215.778
213.193
209.857
205.821
201.137
195.851
189.995
183.592
176.655
169.203
161.265
152.873
144.054
134.848
125.299
115.453
105.356
95.0574
84.6036
74.0267
68.5164
68.6631
70.0596
71.5287
73.0675
74.6759
119.689
57.0915
66.6402
70.2633
72.3113
73.8161
75.0385
76.0705
76.9512
77.6975
78.3155
78.8058
79.1655
79.3897
79.472
79.405
79.181
78.7923
78.231
77.4904
76.5645
75.4488
74.6433
74.9195
75.8502
76.7483
77.6012
78.3978
79.1294
79.7888
80.3711
80.8735
81.2945
81.6346
81.8955
82.08
82.1918
82.2354
82.2159
82.1389
82.0101
81.8358
81.6226
81.3775
81.1076
80.8214
80.5282
80.2378
79.9623
79.715
79.5086
79.3551
79.2661
79.2505
79.3151
79.467
79.7121
80.0534
80.4897
81.015
81.6169
82.276
82.9649
85.1729
88.1957
91.101
96.0927
101.049
105.804
110.333
114.615
118.642
122.406
125.908
132.014
140.793
149.261
157.381
165.107
172.388
179.166
185.381
190.974
195.881
200.041
203.411
205.952
207.64
208.444
208.362
207.404
205.59
202.954
199.536
195.381
190.533
185.035
178.923
172.233
164.999
157.261
149.062
140.437
131.423
122.06
112.385
102.433
92.236
81.8342
71.2651
60.5543
54.7902
55.8879
57.7889
59.7388
61.7395
122.122
58.6986
68.442
72.402
74.8706
76.8114
78.4638
79.9152
81.2031
82.344
83.3442
84.2045
84.9218
85.4909
85.905
86.1562
86.2358
86.1354
85.8467
85.3619
84.6747
83.7799
82.6744
81.3566
79.8272
78.0888
76.7566
76.7681
77.5663
78.2877
78.9274
79.4823
79.9515
80.3357
80.6367
80.8578
81.003
81.0771
81.0853
81.0332
80.9267
80.7716
80.5739
80.3399
80.0755
79.7871
79.4813
79.1645
78.8444
78.5285
78.2254
77.9448
77.6961
77.4868
77.3229
77.2094
77.1477
77.1368
77.1745
77.2559
77.3723
77.5095
77.6483
77.7636
77.8238
77.7906
79.9404
82.0898
86.19
90.7328
95.1764
99.511
103.731
107.836
114.281
123.106
131.722
140.088
148.153
155.862
163.152
169.957
176.209
181.838
186.776
190.964
194.349
196.886
198.544
199.303
199.154
198.105
196.175
193.396
189.809
185.458
180.389
174.65
168.285
161.34
153.861
145.892
137.476
128.653
119.462
109.944
100.134
90.0616
79.7588
69.2581
58.5894
47.7726
43.2105
45.6028
48.0161
50.4525
124.466
59.9731
69.8751
74.224
77.1551
79.5665
81.6801
83.5798
85.3034
86.8676
88.2789
89.5379
90.6416
91.5843
92.3585
92.9556
93.3662
93.5807
93.5899
93.3853
92.9596
92.3073
91.4245
90.31
88.9644
87.3909
85.5949
83.5835
81.3656
78.9518
77.513
77.6014
78.1218
78.5526
78.8962
79.1559
79.3362
79.4421
79.479
79.4526
79.3688
79.2334
79.0523
78.8313
78.5759
78.2915
77.9835
77.6568
77.3168
76.9681
76.6158
76.2656
75.9221
75.5905
75.2764
74.9837
74.7129
74.463
74.2312
74.0103
73.7895
73.5557
73.2919
72.9766
72.5831
72.0798
71.4296
70.5892
71.701
73.8619
78.329
82.813
87.3145
91.8365
98.4728
107.238
115.891
124.387
132.675
140.695
148.38
155.659
162.458
168.7
174.312
179.222
183.365
186.685
189.136
190.683
191.305
190.993
189.756
187.613
184.608
180.781
176.183
170.865
164.881
158.281
151.116
143.435
135.28
126.694
117.716
108.384
98.7312
88.7909
78.5934
68.1691
57.5485
46.7591
36.3731
34.9217
37.8396
40.7627
126.713
60.8235
70.8688
75.6549
79.0842
81.997
84.6018
86.9795
89.1677
91.1837
93.0342
94.7198
96.2375
97.581
98.7424
99.7121
100.48
101.035
101.367
101.467
101.326
100.938
100.298
99.4048
98.2595
96.8654
95.2283
93.3567
91.2605
88.9514
86.4424
83.7469
80.8791
77.9744
76.7448
77.0474
77.2664
77.4071
77.4751
77.4764
77.4167
77.3022
77.1385
76.9313
76.6859
76.4075
76.1007
75.7698
75.419
75.0517
74.6712
74.2806
73.8819
73.4773
73.0692
72.6579
72.2434
71.8254
71.4004
70.9608
70.4966
69.9946
69.4374
68.8032
68.0671
67.2001
66.1682
64.932
63.4469
62.3439
63.7352
68.2864
72.962
77.7741
84.5036
93.1408
101.755
110.301
118.724
126.964
134.951
142.61
149.863
156.627
162.822
168.368
173.191
177.222
180.402
182.681
184.026
184.416
183.851
182.335
179.911
176.621
172.517
167.655
162.091
155.88
149.076
141.727
133.879
125.576
116.855
107.753
98.3042
88.5388
78.4864
68.1754
57.6331
46.8861
35.9597
27.6144
29.2455
32.6619
128.856
61.163
71.352
76.6226
80.5862
84.0325
87.158
90.0418
92.7217
95.2159
97.5315
99.6695
101.627
103.397
104.97
106.338
107.488
108.409
109.089
109.517
109.684
109.582
109.206
108.553
107.626
106.426
104.962
103.241
101.276
99.0788
96.6644
94.0481
91.2454
88.2725
85.145
81.8784
78.488
75.9373
75.1435
75.1753
75.142
75.0499
74.9046
74.7119
74.4771
74.2051
73.9004
73.567
73.2084
72.8276
72.427
72.0083
71.5723
71.1195
70.6497
70.1609
69.6512
69.1179
68.5551
67.9552
67.3089
66.6036
65.8217
64.943
63.9442
62.7965
61.4661
59.9149
58.1003
55.9745
53.7729
55.5764
60.3826
65.4172
72.1891
80.6694
89.2031
97.7468
106.247
114.642
122.862
130.829
138.461
145.672
152.375
158.484
163.914
168.589
172.434
175.389
177.405
178.45
178.519
177.617
175.777
173.034
169.441
165.059
159.948
154.164
147.761
140.79
133.295
125.319
116.901
108.076
98.8751
89.3294
79.4667
69.3139
58.8964
48.239
37.3658
26.3006
22.3206
26.2058
130.897
60.9435
71.2471
77.0525
81.5901
85.603
89.2783
92.6951
95.8925
98.8896
101.695
104.309
106.729
108.949
110.959
112.749
114.306
115.616
116.668
117.449
117.947
118.154
118.064
117.673
116.982
115.994
114.716
113.159
111.335
109.258
106.945
104.412
101.677
98.7583
95.6727
92.4375
89.0693
85.5842
81.9972
78.3229
74.5754
72.6036
72.4143
72.2369
72.0128
71.7471
71.4443
71.1083
70.7425
70.3496
69.9314
69.4893
69.0233
68.5331
68.0169
67.472
66.8945
66.2794
65.6189
64.9041
64.1243
63.2654
62.3104
61.2404
60.0331
58.6601
57.0891
55.2838
53.2016
50.7946
48.0105
45.8224
49.2514
54.4879
61.2915
69.6176
78.0598
86.5782
95.1226
103.632
112.038
120.26
128.215
135.813
142.963
149.572
155.549
160.806
165.259
168.836
171.475
173.138
173.803
173.479
172.202
170.01
166.944
163.066
158.436
153.113
147.149
140.595
133.496
125.893
117.824
109.322
100.417
91.1388
81.513
71.5647
61.318
50.796
40.0217
29.0177
19.3861
21.392
132.833
60.1669
70.5497
76.9227
82.0605
86.663
90.9101
94.8811
98.617
102.138
105.453
108.565
111.469
114.16
116.628
118.861
120.847
122.571
124.018
125.176
126.031
126.572
126.791
126.684
126.25
125.492
124.419
123.039
121.368
119.421
117.216
114.772
112.108
109.246
106.203
102.998
99.6513
96.1785
92.5966
88.9213
85.1675
81.3491
77.4794
73.5709
70.416
69.0885
68.787
68.4476
68.0737
67.6681
67.2325
66.7679
66.2744
65.7508
65.195
64.6035
63.9714
63.2921
62.5569
61.7553
60.8752
59.9011
58.8154
57.5988
56.2277
54.6739
52.9068
50.891
48.5851
45.9423
42.9107
39.4321
39.2682
44.7135
51.5634
59.7599
68.1219
76.6147
85.192
93.7962
102.359
110.802
119.039
126.979
134.527
141.586
148.056
153.841
158.849
162.995
166.213
168.454
169.695
169.934
169.2
167.543
165.005
161.642
157.514
152.676
147.183
141.082
134.417
127.228
119.551
111.417
102.855
93.8914
84.5503
74.8548
64.8269
54.488
43.8593
32.9622
21.8182
18.1318
134.658
58.7771
69.2234
76.1937
81.9499
87.1579
91.9928
96.5352
100.827
104.891
108.736
112.364
115.772
118.953
121.897
124.593
127.028
129.187
131.054
132.614
133.851
134.752
135.307
135.509
135.356
134.851
133.999
132.814
131.31
129.504
127.416
125.067
122.48
119.676
116.678
113.505
110.178
106.716
103.137
99.4577
95.6945
91.8622
87.9745
84.0448
80.0851
76.107
72.1211
68.1372
65.6068
64.8281
64.3738
63.886
63.3646
62.8085
62.2151
61.5807
60.8996
60.1646
59.3663
58.4933
57.5322
56.4668
55.2788
53.9476
52.4483
50.7524
48.8289
46.6417
44.1497
41.3076
38.0642
34.3614
31.0387
35.8637
42.7835
50.884
59.1898
67.671
76.2857
84.9798
93.6869
102.33
110.823
119.073
126.981
134.446
141.363
147.628
153.139
157.807
161.555
164.331
166.11
166.893
166.7
165.573
163.562
160.722
157.109
152.778
147.779
142.16
135.963
129.225
121.98
114.257
106.081
97.4783
88.4694
79.075
69.3147
59.2078
48.7734
38.0308
27
17.75
21.5117
136.393
56.7463
67.2303
74.8165
81.1995
87.0215
92.4552
97.5826
102.448
107.073
111.466
115.63
119.559
123.248
126.686
129.862
132.765
135.38
137.69
139.677
141.324
142.614
143.534
144.073
144.228
143.999
143.393
142.421
141.1
139.449
137.489
135.245
132.74
130
127.048
123.907
120.6
117.148
113.57
109.884
106.109
102.26
98.351
94.3967
90.4095
86.4013
82.3829
78.3645
74.3551
70.3629
66.395
62.5014
60.3301
59.7403
59.1091
58.4323
57.7042
56.917
56.0611
55.1245
54.0931
52.9503
51.6768
50.251
48.6473
46.8367
44.7869
42.4611
39.8174
36.8102
33.388
29.4927
25.0606
27.765
34.7761
42.8126
51.0889
59.5786
68.2434
77.0322
85.8811
94.7143
103.446
111.982
120.221
128.058
135.382
142.083
148.053
153.196
157.433
160.708
162.995
164.293
164.621
164.018
162.533
160.219
157.13
153.319
148.835
143.723
138.021
131.766
124.988
117.713
109.966
101.767
93.1362
84.0903
74.6464
64.821
54.6305
44.0918
33.2226
22.0419
21.3696
138.048
54.0637
64.5454
72.7472
79.7484
86.1798
92.2139
97.9346
103.387
108.593
113.558
118.28
122.752
126.966
130.913
134.585
137.972
141.062
143.837
146.279
148.366
150.077
151.393
152.302
152.794
152.87
152.535
151.8
150.682
149.202
147.384
145.254
142.841
140.169
137.268
134.162
130.876
127.433
123.854
120.161
116.371
112.502
108.569
104.587
100.569
96.5273
92.4734
88.4173
84.3682
80.3343
76.3227
72.3395
68.3893
64.4756
60.6005
56.7643
54.4461
53.5724
52.6611
51.6648
50.5689
49.3563
48.0073
46.4994
44.8064
42.8986
40.743
38.3016
35.532
32.3877
28.8159
24.7576
20.1478
20.281
27.4039
35.4046
43.6757
52.1939
60.9239
69.8168
78.8106
87.8304
96.7905
105.596
114.143
122.322
130.018
137.116
143.503
149.08
153.766
157.504
160.268
162.054
162.884
162.792
161.825
160.036
157.475
154.193
150.237
145.649
140.466
134.719
128.438
121.647
114.365
106.611
98.401
89.7494
80.6698
71.1753
61.2792
50.9954
40.3387
29.3254
22.3233
139.641
50.7343
61.1489
69.9435
77.5325
84.5498
91.1708
97.4828
103.532
109.339
114.905
120.217
125.261
130.022
134.494
138.676
142.563
146.147
149.412
152.337
154.895
157.06
158.809
160.121
160.986
161.398
161.362
160.89
159.998
158.709
157.05
155.049
152.737
150.143
147.298
144.23
140.967
137.535
133.956
130.253
126.447
122.555
118.595
114.582
110.53
106.452
102.359
98.2627
94.171
90.0928
86.0348
82.003
78.0019
74.0346
70.1029
66.2066
62.3438
58.5104
54.7002
50.9042
47.6874
45.6974
44.2788
42.6965
40.9238
38.9305
36.6827
34.1417
31.2644
28.0029
24.3035
20.106
15.3435
13.2965
20.5525
28.5434
36.8317
45.3973
54.2074
63.2151
72.3593
81.5657
90.7482
99.8101
108.646
117.141
125.178
132.637
139.403
145.375
150.472
154.639
157.848
160.097
161.405
161.807
161.347
160.075
158.04
155.29
151.869
147.816
143.167
137.949
132.19
125.91
119.126
111.853
104.104
95.8902
87.221
78.1061
68.5551
58.5783
48.1869
37.3939
26.7732
141.203
46.7807
57.0456
66.3939
74.5157
82.0679
89.2353
96.1118
102.749
109.17
115.368
121.315
126.972
132.316
137.342
142.053