/*--------------------------------*- C++ -*----------------------------------*\
  =========                 |
  \\      /  F ield         | OpenFOAM: The Open Source CFD Toolbox
   \\    /   O peration     | Website:  https://openfoam.org
    \\  /    A nd           | Version:  10
     \\/     M anipulation  |
\*---------------------------------------------------------------------------*/
FoamFile
{
    format      ascii;
    class       volScalarField;
    location    "38000";
    object      k;
}
// * * * * * * * * * * * * * * * * * * * * * * * * * * * * * * * * * * * * * //

dimensions      [0 2 -2 0 0 0 0];

internalField   nonuniform List<scalar> 
17969
(
6.6236e-06
0.000172658
0.000516995
0.00104396
0.00159991
0.00219827
0.00289131
0.00373211
0.00476002
0.00602527
0.00754816
0.00922684
0.0109135
0.0124163
0.0135646
0.0143088
0.0146897
0.0148014
0.0147514
0.0146403
0.0145449
0.0144918
0.0145381
0.0147056
0.0149947
0.0153935
0.0158841
0.0164466
0.0170617
0.0177116
0.0183809
0.0190572
0.0197313
0.0203966
0.0210485
0.0216842
0.0223016
0.0228995
0.0234773
0.0240345
0.024571
0.0250867
0.0255814
0.0260551
0.0265078
0.0269395
0.0273501
0.0277396
0.028108
0.0284552
0.0287814
0.0290866
0.0293709
0.0296345
0.0298777
0.0301007
0.0303039
0.0304879
0.030653
0.0308001
0.0309296
0.0310424
0.0311394
0.0312213
0.0312891
0.0313437
0.031386
0.031417
0.0314373
0.0314478
0.0314489
0.0314411
0.0314245
0.031399
0.0313649
0.0313232
0.0312749
0.0312207
0.0311582
0.0310882
0.031013
0.0309356
0.0308597
0.0307893
0.0307291
0.0306844
0.030661
0.0306648
0.0307023
0.0307796
0.0309031
0.0310807
0.0313235
0.0316411
0.0320419
0.0325304
0.0331085
0.0337821
0.0345583
0.0354409
3.32598e-06
8.80669e-05
0.00027733
0.000607075
0.000961936
0.00133058
0.00175232
0.00226946
0.00290779
0.00370254
0.00469596
0.00592619
0.00740321
0.00901986
0.0106643
0.0122228
0.0135194
0.0144703
0.0150663
0.0153588
0.0154306
0.0153699
0.01526
0.0151608
0.0151011
0.0151287
0.0152633
0.0155075
0.0158531
0.0162859
0.0167897
0.0173477
0.0179445
0.0185657
0.0191995
0.0198359
0.0204675
0.0210888
0.021696
0.0222862
0.0228577
0.0234094
0.0239403
0.0244501
0.0249384
0.0254051
0.02585
0.0262731
0.0266744
0.027054
0.0274118
0.0277481
0.0280631
0.0283568
0.0286296
0.0288819
0.0291139
0.0293261
0.0295192
0.0296937
0.0298502
0.0299895
0.0301124
0.0302197
0.0303123
0.0303912
0.0304572
0.0305112
0.0305539
0.0305861
0.0306083
0.0306208
0.0306237
0.0306168
0.0306001
0.0305743
0.0305403
0.0304992
0.030448
0.0303882
0.0303223
0.0302533
0.0301847
0.0301207
0.0300661
0.0300264
0.0300079
0.0300176
0.0300627
0.0301504
0.0302875
0.0304796
0.0307342
0.0310624
0.0314767
0.0319823
0.0325823
0.0332833
0.0340929
0.0350156
2.04612e-06
5.42466e-05
0.000170717
0.000391542
0.000631708
0.000869327
0.00112626
0.00143156
0.00180995
0.00228625
0.00288942
0.00365208
0.00460388
0.00577751
0.00719268
0.00875154
0.0103401
0.0119084
0.0133166
0.0144499
0.0152587
0.0157523
0.0159834
0.0160252
0.0159541
0.0158403
0.0157322
0.0156606
0.0156669
0.0157692
0.0159712
0.0162674
0.0166465
0.0170947
0.0175975
0.0181411
0.0187124
0.0193002
0.0198947
0.0204881
0.0210741
0.0216482
0.0222068
0.0227477
0.0232692
0.0237701
0.0242498
0.0247076
0.0251434
0.025557
0.0259485
0.0263177
0.026665
0.0269905
0.0272945
0.0275772
0.0278392
0.0280808
0.0283025
0.0285051
0.0286891
0.0288552
0.0290043
0.0291372
0.0292547
0.0293578
0.0294473
0.0295242
0.0295891
0.0296428
0.0296858
0.0297184
0.0297408
0.0297528
0.0297539
0.0297445
0.0297253
0.0296975
0.0296605
0.0296139
0.0295605
0.0295031
0.0294454
0.0293915
0.0293462
0.0293152
0.029305
0.0293232
0.0293781
0.0294783
0.0296323
0.0298473
0.0301285
0.0304813
0.0309174
0.0314485
0.0320788
0.032816
0.0336682
0.0346403
1.51854e-06
4.01181e-05
0.0001237
0.000288802
0.000468758
0.00063784
0.00080871
0.000997379
0.0012232
0.00150121
0.00184895
0.00229791
0.00287107
0.00359404
0.00449276
0.00559451
0.00693464
0.00843395
0.0099848
0.0115396
0.0130176
0.0142932
0.0152931
0.0159907
0.016405
0.0165871
0.0166026
0.0165186
0.0163961
0.0162742
0.0161867
0.0161692
0.0162386
0.0163993
0.0166475
0.0169743
0.0173679
0.0178155
0.0183046
0.0188235
0.0193613
0.019909
0.0204586
0.0210036
0.0215391
0.022061
0.0225665
0.0230535
0.0235204
0.0239664
0.0243908
0.0247931
0.0251733
0.0255314
0.0258674
0.0261817
0.0264746
0.0267464
0.0269977
0.027229
0.027441
0.0276345
0.0278101
0.0279687
0.0281112
0.0282385
0.0283514
0.0284508
0.0285377
0.0286126
0.0286763
0.028729
0.028771
0.0288022
0.028822
0.0288302
0.0288276
0.0288154
0.0287947
0.0287641
0.0287262
0.0286841
0.0286411
0.0286014
0.0285697
0.0285519
0.0285546
0.0285856
0.028654
0.0287696
0.0289425
0.0291824
0.0294967
0.0298895
0.0303642
0.0309298
0.0315994
0.032382
0.0332864
0.0343178
0.0354787
0.0367683
0.0381831
0.039716
1.25301e-06
3.30535e-05
0.000100008
0.00023544
0.000383823
0.000517892
0.000645572
0.000776887
0.000921963
0.00109342
0.00130185
0.00155876
0.00188514
0.00230813
0.00285167
0.00353623
0.00438661
0.00542725
0.00668993
0.00812808
0.00964388
0.011166
0.0126644
0.0140397
0.0151977
0.016086
0.0166925
0.0170416
0.0171818
0.0171724
0.0170735
0.0169388
0.0167993
0.0166921
0.0166484
0.0166832
0.0168016
0.0170014
0.0172752
0.017613
0.0180038
0.0184361
0.0188992
0.0193829
0.0198786
0.0203786
0.0208766
0.0213673
0.0218466
0.0223112
0.0227588
0.0231875
0.0235961
0.0239839
0.0243502
0.0246951
0.0250184
0.0253203
0.0256012
0.0258616
0.0261019
0.0263228
0.0265251
0.0267096
0.0268771
0.0270285
0.0271647
0.0272867
0.0273953
0.0274914
0.0275757
0.0276487
0.0277109
0.0277623
0.0278021
0.0278299
0.0278463
0.0278526
0.0278501
0.0278386
0.0278199
0.0277967
0.0277726
0.0277516
0.0277383
0.0277387
0.0277595
0.0278088
0.0278961
0.028032
0.0282279
0.0284953
0.0288441
0.0292813
0.029809
0.0304265
0.0311446
0.0319824
0.0329489
0.0340501
0.0352888
0.036664
0.0381716
0.0398038
1.09974e-06
2.89989e-05
8.64228e-05
0.000204602
0.000335593
0.000451392
0.000557184
0.00066012
0.000766369
0.000882261
0.0010158
0.00117585
0.0013695
0.00160889
0.00191479
0.00231066
0.00282212
0.00346607
0.00426624
0.00524498
0.00642923
0.00780351
0.00928996
0.0107943
0.0122861
0.0137177
0.0149957
0.0160501
0.0168436
0.0173741
0.0176684
0.0177724
0.01774
0.0176255
0.0174764
0.0173164
0.0171864
0.0171132
0.0171108
0.0171848
0.0173339
0.0175525
0.0178322
0.0181632
0.0185353
0.0189387
0.0193639
0.0198027
0.0202477
0.0206928
0.0211328
0.0215635
0.0219816
0.0223845
0.0227703
0.0231375
0.0234852
0.0238128
0.0241202
0.0244073
0.0246743
0.0249216
0.0251498
0.0253595
0.0255516
0.0257268
0.0258861
0.0260305
0.0261609
0.0262783
0.0263837
0.0264777
0.0265612
0.0266343
0.0266961
0.0267459
0.0267839
0.026811
0.0268278
0.0268396
0.026844
0.026844
0.0268431
0.0268455
0.0268558
0.0268798
0.0269245
0.0269982
0.0271106
0.0272731
0.0274979
0.027798
0.028185
0.0286684
0.0292527
0.0299333
0.0307145
0.0316176
0.0326574
0.0338402
0.0351689
0.0366421
0.0382548
0.0399979
1.0051e-06
2.65134e-05
7.80463e-05
0.000185553
0.000306572
0.000412645
0.00050719
0.000595876
0.000683112
0.00077269
0.00086858
0.000975772
0.00110132
0.00125052
0.00142958
0.00165209
0.00193614
0.00230313
0.00277831
0.00337768
0.00412412
0.00503897
0.00614529
0.00745743
0.00890482
0.0103948
0.0118815
0.0133383
0.0147003
0.0158895
0.0168538
0.0175678
0.0180355
0.0182848
0.0183589
0.0183066
0.0181765
0.0180081
0.0178273
0.0176728
0.0175678
0.0175258
0.0175528
0.0176486
0.0178089
0.018027
0.0182945
0.0186023
0.0189416
0.0193037
0.0196807
0.0200657
0.0204528
0.0208369
0.0212139
0.0215805
0.021934
0.0222724
0.0225943
0.0228988
0.0231851
0.023453
0.0237026
0.0239342
0.0241482
0.0243453
0.0245263
0.0246921
0.0248437
0.0249823
0.0251089
0.0252245
0.0253301
0.0254262
0.0255119
0.025586
0.0256485
0.0256997
0.02574
0.0257759
0.0258063
0.025833
0.0258596
0.0258901
0.0259291
0.0259825
0.0260571
0.0261614
0.0263054
0.0265009
0.0267611
0.0270999
0.0275306
0.0280641
0.0287068
0.0294551
0.0303092
0.0312896
0.0324154
0.0336932
0.0351255
0.0367103
0.0384409
0.0403071
0.0422948
9.52145e-07
2.5125e-05
7.31995e-05
0.000174355
0.000289917
0.000391031
0.000479928
0.00056148
0.000639295
0.000716101
0.000794304
0.000876437
0.000965604
0.00106608
0.00118377
0.00132235
0.00148751
0.00169246
0.00195348
0.00229045
0.00272557
0.00327692
0.00396707
0.00481776
0.00584961
0.00708977
0.00848805
0.00996582
0.0114526
0.0129139
0.0143233
0.0156131
0.0167216
0.0176081
0.0182559
0.0186728
0.0188865
0.0189371
0.0188691
0.0187257
0.0185359
0.0183348
0.0181548
0.0180163
0.0179325
0.0179097
0.0179487
0.018047
0.0181994
0.0183989
0.0186381
0.0189087
0.0192029
0.0195136
0.0198341
0.0201589
0.0204828
0.020802
0.0211132
0.0214139
0.0217019
0.0219758
0.0222349
0.0224786
0.0227066
0.0229191
0.0231166
0.0232998
0.0234694
0.0236266
0.0237726
0.0239084
0.0240353
0.0241541
0.0242639
0.0243632
0.0244521
0.0245303
0.0245975
0.0246569
0.0247169
0.0247743
0.0248326
0.024896
0.0249689
0.0250572
0.0251676
0.0253084
0.0254898
0.0257239
0.0260248
0.0264076
0.0268872
0.0274759
0.0281812
0.0290002
0.0299345
0.0310052
0.032231
0.0336181
0.0351682
0.0368778
0.0387388
0.0407389
0.042862
0.0450898
0.047402
9.34904e-07
2.4663e-05
7.12515e-05
0.000169447
0.000282824
0.000382039
0.000468542
0.000546792
0.000620045
0.000690593
0.000760225
0.000830544
0.000903218
0.00098022
0.00106414
0.00115867
0.00126879
0.00139737
0.00154939
0.00173683
0.00197451
0.00228085
0.00267296
0.00317287
0.00380371
0.00458833
0.00554738
0.00670497
0.00804561
0.00949592
0.0109769
0.0124498
0.0138782
0.0152334
0.0164532
0.0174886
0.018308
0.0189012
0.0192784
0.0194662
0.019501
0.0194228
0.0192675
0.0190601
0.0188401
0.0186336
0.0184601
0.0183323
0.0182566
0.0182356
0.0182684
0.0183514
0.0184792
0.0186455
0.0188432
0.0190655
0.0193055
0.0195574
0.0198158
0.0200762
0.0203344
0.0205876
0.0208332
0.0210695
0.021295
0.0215089
0.0217111
0.0219015
0.0220808
0.0222496
0.0224088
0.0225598
0.0227037
0.0228419
0.0229731
0.0230961
0.0232111
0.0233182
0.0234163
0.0235055
0.023593
0.0236843
0.0237781
0.0238786
0.02399
0.0241179
0.0242689
0.0244511
0.0246743
0.0249508
0.0252951
0.025724
0.0262548
0.0269027
0.0276773
0.0285761
0.0296017
0.0307757
0.0321147
0.0336243
0.0353045
0.0371504
0.0391519
0.0412943
0.0435596
0.0459271
0.0483751
0.0508811
9.51141e-07
2.50657e-05
7.19305e-05
0.000170013
0.000283786
0.000383284
0.000469496
0.000546705
0.000618046
0.000685657
0.000751098
0.000815625
0.000880373
0.000946501
0.00101532
0.00108846
0.00116812
0.00125745
0.00136089
0.00148089
0.00162136
0.00179254
0.00200661
0.00227888
0.00262777
0.00307452
0.00364227
0.00435447
0.00523265
0.00629821
0.00756855
0.00897714
0.0104402
0.0119186
0.0133715
0.0147622
0.0160606
0.0172133
0.0181827
0.0189447
0.0194938
0.0198419
0.0200139
0.0200415
0.0199594
0.0197893
0.0195707
0.0193332
0.0191008
0.0188918
0.0187187
0.0185893
0.0185074
0.0184733
0.0184851
0.0185387
0.0186292
0.0187508
0.0188976
0.0190637
0.0192435
0.0194325
0.0196264
0.0198217
0.0200155
0.0202058
0.0203909
0.0205699
0.0207424
0.0209086
0.021069
0.0212243
0.0213759
0.0215252
0.021671
0.0218122
0.0219494
0.0220832
0.0222131
0.022338
0.0224597
0.0225849
0.0227171
0.0228577
0.0230109
0.0231819
0.0233765
0.0236026
0.02387
0.0241902
0.0245772
0.0250481
0.0256242
0.0263268
0.0271736
0.028171
0.029316
0.0306112
0.0320723
0.0337134
0.0355327
0.0375232
0.0396723
0.0419629
0.0443744
0.0468841
0.0494682
0.052103
0.0547659
0.0574356
1.00041e-06
2.63241e-05
7.51516e-05
0.000175563
0.000291766
0.000393138
0.000480481
0.000558061
0.000629029
0.000695508
0.000759005
0.000820671
0.000881401
0.000942081
0.00100358
0.00106683
0.00113291
0.00120322
0.00127958
0.00136464
0.00146225
0.00157483
0.0017048
0.00186007
0.0020517
0.0022932
0.00260128
0.00299598
0.00350007
0.00413778
0.00493276
0.00590584
0.0070842
0.00842836
0.00986448
0.0113282
0.0127929
0.0142161
0.0155612
0.0167993
0.0178875
0.0187963
0.0195087
0.0200226
0.0203507
0.020514
0.0205396
0.0204453
0.0202685
0.0200402
0.0197877
0.0195327
0.019292
0.0190778
0.0188983
0.0187581
0.018659
0.0186004
0.01858
0.0185937
0.0186376
0.018707
0.0187971
0.0189033
0.0190214
0.0191482
0.0192807
0.0194165
0.0195542
0.019693
0.0198326
0.0199732
0.0201156
0.0202609
0.0204081
0.0205559
0.0207052
0.0208572
0.0210122
0.0211697
0.0213297
0.0214944
0.021669
0.0218548
0.022053
0.0222688
0.0225078
0.0227765
0.0230835
0.023443
0.02387
0.0243834
0.0250063
0.0257639
0.0266809
0.0277725
0.0290427
0.0304855
0.0320918
0.0338724
0.0358385
0.0379803
0.0402823
0.0427247
0.0452842
0.047936
0.0506543
0.0534143
0.0561924
0.0589669
0.0617187
0.0644308
0.067089
0.0696813
1.08299e-06
2.8449e-05
8.0952e-05
0.000185792
0.00030595
0.000410324
0.000499737
0.000578541
0.000650022
0.000716351
0.000779044
0.000839229
0.0008978
0.00095552
0.00101308
0.00107115
0.00113044
0.00119171
0.00125589
0.00132414
0.001398
0.00147961
0.00157211
0.00167849
0.00180034
0.0019428
0.00211563
0.00233047
0.00260206
0.00294863
0.00339178
0.00395557
0.00466496
0.00554234
0.00661278
0.00787315
0.00926134
0.0106957
0.0121458
0.0135825
0.0149675
0.0162645
0.0174394
0.0184644
0.019317
0.0199844
0.0204668
0.0207729
0.0209164
0.0209235
0.0208251
0.0206496
0.0204224
0.0201657
0.0198983
0.0196353
0.0193886
0.0191665
0.0189746
0.0188157
0.0186908
0.0185996
0.0185394
0.0185073
0.0185007
0.018516
0.0185501
0.0185998
0.0186629
0.0187374
0.0188224
0.0189171
0.0190221
0.0191383
0.0192646
0.0193992
0.0195429
0.0196967
0.0198611
0.0200365
0.0202226
0.0204201
0.0206308
0.020858
0.0211054
0.0213713
0.0216581
0.0219708
0.0223209
0.0227221
0.0231908
0.0237476
0.024417
0.0252275
0.026209
0.0273844
0.0287667
0.0303568
0.032136
0.0340834
0.0362035
0.0385022
0.0409608
0.0435564
0.0462631
0.0490538
0.0519015
0.0547801
0.0576655
0.0605359
0.063372
0.0661574
0.0688783
0.0715232
1.20028e-06
3.14703e-05
8.93934e-05
0.000200519
0.000325621
0.000433319
0.000525167
0.000605696
0.000678228
0.000745007
0.0008076
0.000867166
0.000924603
0.000980648
0.00103593
0.00109104
0.00114652
0.00120292
0.00126084
0.00132095
0.00138402
0.00145105
0.0015233
0.00160255
0.0016913
0.00179297
0.00190893
0.00204177
0.0021997
0.00239268
0.00263331
0.00293752
0.00332479
0.0038177
0.00444067
0.00521699
0.00616868
0.00732516
0.00863307
0.0100231
0.0114472
0.0128737
0.0142695
0.0156024
0.0168416
0.017954
0.0189114
0.0196964
0.0203013
0.020732
0.0210027
0.0211327
0.0211437
0.0210581
0.0208978
0.0206835
0.0204338
0.020165
0.0198909
0.0196225
0.0193683
0.0191347
0.0189254
0.0187423
0.0185869
0.0184592
0.0183579
0.0182816
0.0182287
0.018198
0.018188
0.0181981
0.018229
0.018281
0.0183538
0.0184462
0.0185581
0.0186895
0.0188408
0.019012
0.0192032
0.0194144
0.0196464
0.0199006
0.0201796
0.0204873
0.0208246
0.0211912
0.0215917
0.0220379
0.0225497
0.0231494
0.0238638
0.0247245
0.0257656
0.0270166
0.028498
0.0302192
0.032168
0.0343096
0.0366105
0.0390689
0.0416844
0.0444308
0.0472801
0.0502032
0.0531718
0.0561592
0.0591412
0.0620959
0.0650046
0.0678513
0.0706228
0.0733084
1.35554e-06
3.54696e-05
0.000100759
0.000219105
0.000349578
0.00046128
0.000555975
0.000638454
0.000712236
0.0007797
0.000842501
0.000901848
0.000958669
0.00101371
0.00106758
0.00112084
0.00117398
0.00122748
0.00128178
0.00133737
0.00139477
0.00145455
0.00151737
0.00158409
0.00165577
0.00173388
0.00182044
0.00191848
0.00203015
0.00215665
0.0023035
0.00247944
0.00269503
0.00296383
0.00330279
0.00373229
0.00427563
0.00495745
0.00579914
0.00682844
0.00803078
0.00934932
0.0107181
0.0121083
0.0134868
0.0148214
0.0160786
0.0172293
0.0182471
0.0191134
0.0198211
0.0203706
0.020769
0.021028
0.0211625
0.0211891
0.0211252
0.0209883
0.0207951
0.0205613
0.0203009
0.0200259
0.0197467
0.0194715
0.0192069
0.0189583
0.0187291
0.0185217
0.0183381
0.0181793
0.0180467
0.017941
0.0178632
0.0178148
0.0177985
0.0178148
0.0178625
0.0179411
0.0180502
0.0181896
0.0183592
0.0185588
0.0187887
0.0190498
0.0193434
0.0196716
0.0200365
0.0204417
0.0208906
0.0213888
0.021948
0.0225906
0.0233488
0.0242575
0.0253548
0.0266761
0.0282475
0.0300838
0.0321812
0.0345094
0.0370169
0.039658
0.0424256
0.0453158
0.0482982
0.0513426
0.0544197
0.0575028
0.0605676
0.0635929
0.0665606
0.0694552
0.0722645
0.0749784
1.54572e-06
4.0372e-05
0.00011477
0.000241117
0.000377823
0.000493737
0.000591291
0.0006757
0.000750735
0.000818932
0.000882047
0.000941351
0.00099781
0.00105219
0.00110512
0.00115714
0.00120872
0.00126031
0.00131232
0.00136514
0.00141918
0.00147485
0.0015326
0.00159293
0.00165642
0.00172377
0.00179589
0.00187398
0.00195969
0.0020554
0.00216416
0.00228691
0.0024261
0.00258943
0.00278576
0.00302647
0.00332593
0.00370182
0.00417484
0.0047678
0.00550187
0.00639898
0.00747696
0.00869276
0.00998389
0.0113117
0.012644
0.0139467
0.0151894
0.0163436
0.0173881
0.018307
0.0190904
0.0197349
0.0202423
0.0206181
0.0208713
0.0210132
0.0210567
0.0210152
0.0209028
0.0207328
0.0205181
0.0202707
0.0200014
0.0197194
0.019433
0.0191491
0.0188738
0.0186119
0.0183679
0.0181461
0.0179504
0.0177852
0.017658
0.0175722
0.0175279
0.0175247
0.0175623
0.0176407
0.0177596
0.0179192
0.0181195
0.0183612
0.0186452
0.0189728
0.019346
0.0197674
0.0202409
0.0207729
0.0213745
0.0220625
0.0228634
0.0238195
0.0249725
0.0263631
0.02802
0.0299599
0.0321854
0.0346722
0.0373711
0.0402165
0.0431538
0.0461742
0.0492745
0.0524237
0.0555926
0.0587546
0.0618861
0.0649664
0.0679783
0.0709071
0.0737413
0.0764717
0.0790914
1.77487e-06
4.62171e-05
0.000131161
0.000266575
0.000409883
0.000529973
0.000630252
0.000716458
0.00079265
0.000861533
0.000924964
0.000984283
0.0010405
0.0010944
0.00114663
0.00119774
0.0012482
0.00129844
0.00134886
0.00139982
0.00145169
0.00150481
0.00155952
0.0016162
0.00167522
0.001737
0.00180205
0.00187095
0.00194447
0.00202359
0.00210969
0.00220469
0.00231147
0.00243185
0.00256676
0.00272139
0.00290365
0.00312294
0.00339124
0.00372334
0.00413688
0.00465193
0.00528919
0.00606655
0.00700955
0.00809992
0.00929064
0.0105286
0.0117848
0.0130267
0.0142251
0.0153563
0.0164001
0.0173415
0.0181704
0.0188802
0.0194687
0.0199377
0.0202911
0.0205359
0.0206807
0.0207353
0.0207104
0.0206169
0.0204659
0.0202679
0.0200327
0.0197699
0.0194884
0.0191964
0.0189014
0.0186107
0.0183317
0.018072
0.0178438
0.017657
0.0175143
0.0174172
0.0173669
0.0173644
0.0174106
0.0175064
0.0176523
0.0178494
0.0180986
0.0184015
0.0187601
0.0191772
0.0196572
0.0202071
0.0208376
0.0215646
0.0224102
0.0234106
0.0246176
0.026076
0.0278167
0.0298553
0.0321942
0.0348115
0.0376629
0.0406847
0.0438041
0.0469648
0.050161
0.0533936
0.0566335
0.0598546
0.0630342
0.0661526
0.0691932
0.0721424
0.0749892
0.0777252
0.080344
2.04625e-06
5.30786e-05
0.000149839
0.000295235
0.000445262
0.000569338
0.000672116
0.000759931
0.000837143
0.000906622
0.000970328
0.00102966
0.00108567
0.00113918
0.00119084
0.00124122
0.0012908
0.00134001
0.00138923
0.00143884
0.00148918
0.00154056
0.0015933
0.0016477
0.00170405
0.00176268
0.00182388
0.00188803
0.00195552
0.00202685
0.00210266
0.00218379
0.00227137
0.00236699
0.00247292
0.00259213
0.00272533
0.00287468
0.00304734
0.00325113
0.00349598
0.0037941
0.00416014
0.004611
0.0051652
0.00583853
0.00664798
0.00760271
0.00866895
0.00979615
0.0109522
0.0121101
0.0132425
0.0143266
0.015344
0.0162803
0.0171238
0.0178674
0.0185062
0.0190385
0.0194655
0.0197905
0.0200185
0.0201559
0.0202106
0.0201907
0.0201048
0.0199617
0.0197705
0.0195402
0.0192796
0.0189976
0.0187034
0.0184069
0.0181243
0.0178709
0.0176536
0.0174774
0.0173463
0.0172638
0.0172327
0.0172556
0.0173346
0.0174719
0.0176695
0.0179297
0.0182554
0.0186503
0.0191198
0.0196721
0.020319
0.0210771
0.0219681
0.0230233
0.0242902
0.0258213
0.0276474
0.029782
0.0322239
0.0349483
0.0379113
0.0410565
0.0443161
0.0476123
0.0509037
0.0541966
0.057485
0.0607438
0.0639516
0.0670898
0.0701431
0.0730987
0.0759466
0.0786787
0.0812893
2.36458e-06
6.10166e-05
0.000170783
0.000326813
0.00048344
0.00061121
0.000716229
0.000805457
0.000883548
0.000953531
0.00101746
0.00107679
0.0011326
0.00118575
0.00123691
0.00128665
0.00133548
0.00138381
0.00143206
0.0014806
0.00152975
0.00157985
0.00163118
0.00168404
0.00173869
0.00179539
0.00185437
0.00191589
0.0019802
0.00204758
0.00211836
0.00219297
0.00227193
0.00235596
0.00244603
0.00254352
0.0026503
0.00276924
0.00290211
0.00304961
0.00321657
0.0034101
0.00363829
0.00391115
0.00424053
0.00463991
0.00512399
0.00570677
0.00639876
0.00721655
0.00814472
0.00915018
0.0101916
0.0112476
0.0122948
0.0133117
0.01428
0.0151849
0.0160156
0.016763
0.0174209
0.017986
0.0184567
0.0188337
0.0191194
0.0193176
0.0194329
0.0194713
0.0194394
0.0193446
0.0191947
0.0189979
0.0187634
0.0185015
0.0182291
0.0179646
0.0177195
0.0175024
0.0173205
0.0171805
0.0170883
0.0170485
0.0170656
0.0171437
0.0172866
0.0174986
0.0177838
0.0181478
0.0185979
0.0191442
0.0198006
0.0205857
0.0215225
0.0226386
0.0239751
0.025586
0.0275012
0.0297291
0.0322634
0.0350758
0.0381138
0.0413234
0.0446556
0.0480467
0.0514387
0.0547946
0.0581092
0.0613814
0.0645945
0.0677317
0.0707792
0.0737257
0.076562
0.0792807
0.0818764
0.0843449
2.7346e-06
7.00886e-05
0.000193901
0.000360927
0.000523852
0.00065499
0.000762008
0.00085248
0.000931335
0.00100175
0.00106585
0.00112514
0.00118076
0.00123355
0.00128423
0.00133338
0.00138149
0.00142904
0.00147642
0.00152401
0.00157216
0.00162121
0.00167146
0.00172318
0.00177665
0.00183209
0.00188973
0.00194975
0.00201235
0.00207771
0.00214601
0.00221749
0.0022924
0.00237111
0.00245407
0.00254191
0.0026355
0.00273604
0.00284514
0.00296508
0.0030989
0.00324721
0.00341186
0.00359943
0.00381651
0.00407116
0.0043727
0.00473153
0.00515883
0.00566613
0.00626138
0.00695184
0.00774489
0.00861791
0.00954061
0.0104849
0.0114328
0.0123652
0.0132648
0.0141171
0.0149101
0.0156345
0.0162837
0.0168523
0.0173374
0.0177376
0.0180531
0.0182855
0.0184378
0.0185137
0.0185183
0.0184577
0.018339
0.0181709
0.0179682
0.0177492
0.0175283
0.0173174
0.0171268
0.0169658
0.0168428
0.0167654
0.0167406
0.0167746
0.0168737
0.0170445
0.0172934
0.0176284
0.0180594
0.0185995
0.0192658
0.0200795
0.0210657
0.0222523
0.0236727
0.0253701
0.0273741
0.0296876
0.0322938
0.0351585
0.0382427
0.0414944
0.0448606
0.0482886
0.0517274
0.0551336
0.0584793
0.0617514
0.0649426
0.0680472
0.0710584
0.0739694
0.0767736
0.0794646
0.082037
0.0844862
3.16152e-06
8.04959e-05
0.000218833
0.000397039
0.000565889
0.000700107
0.000808935
0.000900529
0.000980068
0.00105085
0.0011151
0.00117434
0.00122973
0.00128216
0.00133235
0.00138089
0.0014283
0.00147506
0.00152159
0.00156828
0.00161551
0.00166362
0.00171293
0.00176373
0.00181631
0.00187088
0.00192767
0.00198684
0.00204856
0.00211296
0.00218015
0.00225027
0.00232345
0.00239986
0.00247972
0.00256335
0.00265116
0.00274372
0.00284182
0.00294654
0.00305932
0.00318212
0.00331783
0.00346826
0.00363378
0.00381874
0.00402907
0.00427099
0.00455181
0.00487939
0.00526185
0.00570737
0.00622327
0.00681291
0.00748139
0.00822556
0.00902576
0.00985628
0.0106969
0.011533
0.0123489
0.0131305
0.0138662
0.0145462
0.0151625
0.0157094
0.0161827
0.0165796
0.0168989
0.0171405
0.017306
0.0173981
0.0174209
0.0173801
0.0172858
0.0171539
0.0169996
0.0168366
0.0166771
0.0165324
0.0164132
0.0163293
0.0162898
0.016303
0.0163773
0.0165223
0.0167476
0.0170634
0.0174831
0.0180236
0.0187057
0.0195544
0.0205974
0.0218639
0.0233819
0.0251776
0.0272649
0.0296454
0.0323084
0.0352186
0.0383306
0.0415949
0.0449615
0.0483828
0.0518139
0.0552158
0.0585577
0.0618188
0.0649878
0.0680585
0.0710281
0.0738939
0.076653
0.0793017
0.081836
0.0842519
3.65064e-06
9.21949e-05
0.000245879
0.000434763
0.000609071
0.000746112
0.000856605
0.000949231
0.0010294
0.00110052
0.00116488
0.00122405
0.00127919
0.00133122
0.00138087
0.00142876
0.00147543
0.00152136
0.00156701
0.00161278
0.00165906
0.00170625
0.00175467
0.00180466
0.00185649
0.00191041
0.00196665
0.00202536
0.0020867
0.00215076
0.00221765
0.00228742
0.00236015
0.00243589
0.00251476
0.00259689
0.00268248
0.00277181
0.00286528
0.00296342
0.00306699
0.00317696
0.00329465
0.00342172
0.00356044
0.00371385
0.0038824
0.00406728
0.004274
0.00450737
0.00477291
0.0050765
0.005424
0.00582099
0.00627266
0.0067821
0.00734945
0.00797718
0.00865824
0.0093762
0.0101104
0.0108449
0.0115681
0.0122672
0.0129308
0.0135492
0.0141144
0.0146196
0.0150599
0.0154317
0.0157331
0.0159631
0.0161227
0.0162142
0.0162421
0.0162171
0.0161538
0.0160661
0.0159668
0.0158683
0.015782
0.0157193
0.0156912
0.015708
0.0157798
0.0159177
0.0161348
0.016445
0.016865
0.0174157
0.0181221
0.019013
0.0201186
0.0214684
0.0230873
0.024987
0.0271653
0.0296168
0.0323268
0.0352623
0.0383786
0.0416293
0.0449688
0.0483535
0.0517432
0.0551031
0.0584041
0.0616244
0.0647498
0.0677726
0.0706889
0.0734978
0.0761994
0.0787928
0.0812764
0.0836474
4.20544e-06
0.000105197
0.000274877
0.000473961
0.000653094
0.000792696
0.000904746
0.000998355
0.00107912
0.00115054
0.00121496
0.001274
0.00132883
0.0013804
0.00142944
0.00147659
0.00152242
0.00156744
0.00161213
0.0016569
0.00170218
0.0017484
0.00179593
0.00184512
0.00189628
0.00194967
0.00200552
0.00206401
0.00212527
0.00218941
0.00225648
0.00232652
0.00239954
0.00247558
0.00255463
0.00263676
0.00272203
0.00281057
0.00290257
0.0029983
0.00309815
0.00320266
0.0033125
0.0034286
0.00355212
0.00368457
0.0038278
0.00398442
0.00415632
0.00434336
0.00454852
0.00477622
0.00503029
0.00531516
0.00563497
0.0059934
0.00639358
0.00683805
0.00732703
0.00785844
0.00843242
0.00904169
0.00967255
0.0103081
0.010936
0.0115466
0.0121293
0.012675
0.0131759
0.0136252
0.0140177
0.0143494
0.0146181
0.0148231
0.0149631
0.0150437
0.0150771
0.0150755
0.0150511
0.0150161
0.0149821
0.014961
0.0149643
0.015004
0.0150917
0.0152406
0.0154654
0.015784
0.0162166
0.0167881
0.0175276
0.018467
0.0196381
0.021069
0.0227805
0.0247733
0.0270381
0.0295634
0.0323222
0.0352764
0.038381
0.041594
0.0448792
0.0481993
0.0515181
0.0548049
0.0580347
0.0611866
0.0642452
0.0672009
0.0700499
0.0727901
0.0754228
0.0779499
0.0803722
0.0826888
4.81376e-06
0.000119282
0.00030481
0.000513802
0.000697418
0.000839407
0.000952932
0.00104749
0.00112884
0.00120057
0.00126505
0.00132394
0.00137844
0.00142948
0.00147784
0.00152417
0.00156903
0.00161297
0.00165651
0.00170011
0.00174425
0.0017894
0.00183599
0.00188439
0.00193488
0.00198779
0.00204336
0.00210178
0.00216317
0.00222763
0.0022952
0.00236589
0.00243969
0.00251657
0.00259652
0.0026795
0.00276552
0.00285462
0.00294685
0.00304234
0.0031413
0.003244
0.00335082
0.00346228
0.00357901
0.00370186
0.00383186
0.00397031
0.00411874
0.00427895
0.00445382
0.00464371
0.00484829
0.00507158
0.0053164
0.00558556
0.00588211
0.00620841
0.00656625
0.00695675
0.00738042
0.00783584
0.00831983
0.00883144
0.00936378
0.00990521
0.0104403
0.0109616
0.0114605
0.0119287
0.0123591
0.0127455
0.0130829
0.0133676
0.0135937
0.0137619
0.0138809
0.0139611
0.0140129
0.0140466
0.0140734
0.0141045
0.0141517
0.0142274
0.0143445
0.0145175
0.0147634
0.0151023
0.0155585
0.0161605
0.0169408
0.0179335
0.0191708
0.0206793
0.0224687
0.0245335
0.0268626
0.0294356
0.0322208
0.035179
0.0382685
0.0414479
0.0446787
0.0479254
0.0511563
0.0543443
0.0574724
0.0605282
0.0634972
0.0663681
0.0691352
0.0717972
0.0743534
0.0768065
0.0791594
0.0814137
5.47314e-06
0.000134338
0.000335253
0.000553812
0.000741611
0.000885844
0.00100078
0.00109625
0.00117817
0.00125018
0.00131469
0.00137338
0.00142747
0.00147791
0.00152548
0.00157085
0.00161464
0.00165741
0.00169971
0.00174206
0.00178498
0.00182896
0.00187445
0.00192188
0.00197163
0.00202403
0.00207938
0.00213785
0.00219949
0.00226442
0.00233269
0.00240429
0.00247915
0.00255723
0.00263848
0.00272283
0.00281022
0.00290062
0.00299403
0.00309049
0.00319008
0.00329293
0.00339924
0.00350929
0.00362345
0.00374219
0.00386612
0.00399596
0.0041326
0.00427713
0.00443087
0.00459519
0.00477161
0.0049623
0.00516685
0.00538524
0.00562085
0.00587516
0.00614998
0.00644704
0.00676726
0.00711096
0.00747777
0.00786699
0.00827641
0.00870301
0.00914733
0.00959992
0.0100481
0.0104847
0.0109026
0.0112952
0.0116565
0.0119811
0.0122599
0.0124887
0.0126724
0.0128191
0.0129371
0.013035
0.0131216
0.0132072
0.013303
0.0134212
0.0135754
0.0137811
0.0140571
0.0144259
0.0149145
0.0155546
0.0163813
0.0174296
0.0187311
0.020308
0.0221608
0.0242782
0.0266477
0.029243
0.0320292
0.0349673
0.0380167
0.0411385
0.0442968
0.0474597
0.0505998
0.0536947
0.0567268
0.0596823
0.0625504
0.065323
0.0679944
0.070563
0.0730318
0.0754018
0.0776774
0.079862
6.17438e-06
0.000150172
0.000365765
0.000593511
0.000785237
0.000931601
0.0010479
0.00114426
0.00122671
0.00129896
0.00136345
0.00142186
0.00147543
0.00152514
0.00157178
0.00161605
0.00165861
0.00170005
0.00174097
0.00178194
0.00182354
0.00186628
0.00191068
0.0019572
0.00200624
0.00205815
0.00211319
0.00217158
0.00223346
0.00229892
0.00236806
0.00244072
0.00251681
0.00259629
0.00267911
0.00276511
0.0028542
0.00294634
0.00304147
0.00313956
0.00324061
0.00334467
0.00345183
0.00356223
0.00367607
0.00379361
0.00391518
0.00404122
0.00417222
0.00430879
0.00445167
0.00460167
0.00475973
0.00492696
0.00510435
0.00529285
0.00549374
0.00570614
0.00593013
0.00616815
0.00642069
0.00668856
0.00697227
0.0072715
0.0075857
0.00791419
0.00825653
0.00861091
0.00897833
0.0093519
0.00972116
0.0100812
0.0104271
0.0107534
0.0110501
0.0113098
0.0115339
0.0117271
0.0118952
0.0120454
0.0121845
0.0123206
0.0124637
0.0126255
0.0128197
0.0130626
0.0133741
0.0137787
0.0143058
0.0149893
0.0158657
0.0169702
0.0183326
0.0199645
0.0218614
0.024013
0.0264004
0.0289937
0.0317569
0.0346515
0.0376391
0.0406835
0.043752
0.0468163
0.0498525
0.0528409
0.0557662
0.0586161
0.0613818
0.0640567
0.0666364
0.0691185
0.0715017
0.0737853
0.0759729
0.0780758
6.9061e-06
0.000166497
0.000395851
0.000632374
0.000827825
0.000976237
0.00109386
0.00119109
0.00127405
0.00134649
0.00141087
0.0014689
0.00152184
0.00157066
0.0016162
0.0016592
0.00170033
0.00174026
0.00177964
0.00181909
0.00185922
0.00190065
0.0019439
0.00198948
0.00203783
0.00208931
0.00214419
0.00220268
0.00226491
0.00233095
0.0024008
0.00247442
0.00255174
0.00263271
0.0027173
0.00280509
0.00289607
0.00299018
0.00308731
0.00318737
0.00329033
0.00339619
0.00350494
0.00361665
0.00373141
0.00384933
0.0039706
0.00409544
0.00422411
0.00435694
0.00449431
0.00463665
0.00478448
0.00493832
0.00509876
0.00526637
0.00544178
0.0056254