/*--------------------------------*- C++ -*----------------------------------*\
  =========                 |
  \\      /  F ield         | OpenFOAM: The Open Source CFD Toolbox
   \\    /   O peration     | Website:  https://openfoam.org
    \\  /    A nd           | Version:  10
     \\/     M anipulation  |
\*---------------------------------------------------------------------------*/
FoamFile
{
    format      ascii;
    class       volScalarField;
    location    "38000";
    object      nut;
}
// * * * * * * * * * * * * * * * * * * * * * * * * * * * * * * * * * * * * * //

dimensions      [0 2 -1 0 0 0 0];

internalField   nonuniform List<scalar> 
17969
(
1.19082e-09
1.23235e-07
1.30205e-06
5.17192e-06
1.05893e-05
1.55342e-05
1.89638e-05
2.09147e-05
2.25277e-05
2.43055e-05
2.61707e-05
2.60415e-05
2.4805e-05
2.41789e-05
2.43978e-05
2.54902e-05
2.75421e-05
3.07735e-05
3.54843e-05
4.23988e-05
5.23797e-05
5.77219e-05
6.42228e-05
7.21285e-05
8.16506e-05
9.29553e-05
0.000106169
0.000121376
0.000138606
0.000157815
0.000178887
0.000201654
0.000225924
0.000251503
0.000278203
0.000305851
0.000334289
0.000363382
0.000393011
0.000423075
0.000453489
0.000484179
0.000515084
0.000546149
0.000577327
0.000608573
0.000639846
0.000671104
0.000702308
0.000733415
0.000764382
0.000795164
0.000825714
0.000855979
0.000885907
0.000915441
0.000944522
0.000973085
0.00100106
0.00102839
0.00105498
0.00108077
0.00110566
0.00112956
0.00115239
0.00117404
0.00119439
0.00121333
0.00123072
0.00124644
0.00126031
0.00127218
0.00128186
0.00128916
0.00129381
0.00129574
0.00129516
0.00129229
0.00126464
0.00123499
0.00120845
0.00118385
0.00116099
0.00113968
0.00111953
0.00110073
0.001085
0.00107615
0.00107903
0.00109548
0.00111662
0.00111037
0.00109563
0.00108147
0.00106808
0.00105609
0.00104613
0.00103815
0.00103199
0.00102775
5.97952e-10
6.20864e-08
7.12271e-07
3.39508e-06
7.94084e-06
1.26757e-05
1.64374e-05
1.87832e-05
2.04061e-05
2.22725e-05
2.43891e-05
2.67483e-05
2.9255e-05
3.07747e-05
2.96829e-05
2.8903e-05
2.88716e-05
2.9679e-05
3.13685e-05
3.40786e-05
3.8095e-05
4.37643e-05
5.17776e-05
6.1961e-05
6.76659e-05
7.45162e-05
8.27392e-05
9.25305e-05
0.000104043
0.000117393
0.000132656
0.000149869
0.000169021
0.000190041
0.000212802
0.000237133
0.000262842
0.000289738
0.000317637
0.00034637
0.000375786
0.000405752
0.000436152
0.000466884
0.00049786
0.000529003
0.000560245
0.000591523
0.000622782
0.000653967
0.000685027
0.000715912
0.000746572
0.000776954
0.000807005
0.000836671
0.000865894
0.000894613
0.000922764
0.000950279
0.000977088
0.00100311
0.00102828
0.00105249
0.00107567
0.0010977
0.00111848
0.0011379
0.00115582
0.00117212
0.00118662
0.00119917
0.00120959
0.00121767
0.00122316
0.00122597
0.00122632
0.0012231
0.00119247
0.00116312
0.00113686
0.00111258
0.00109031
0.00107004
0.00105152
0.0010344
0.00101876
0.00100576
0.0009984
0.00100124
0.00101731
0.00104165
0.00105096
0.00103859
0.00102696
0.00101664
0.00100819
0.0010016
0.000996789
0.000993855
3.67852e-10
3.79781e-08
4.37841e-07
2.3223e-06
6.01135e-06
1.03501e-05
1.42378e-05
1.70198e-05
1.86446e-05
2.01955e-05
2.20312e-05
2.41901e-05
2.66666e-05
2.94314e-05
3.24149e-05
3.54184e-05
3.50877e-05
3.41958e-05
3.39256e-05
3.44163e-05
3.57486e-05
3.802e-05
4.14016e-05
4.61949e-05
5.2785e-05
6.18352e-05
7.19069e-05
7.79234e-05
8.50705e-05
9.35613e-05
0.000103576
0.000115257
0.000128706
0.000143993
0.000161149
0.000180168
0.000201005
0.000223569
0.000247725
0.000273305
0.000300123
0.00032799
0.000356726
0.000386165
0.000416157
0.00044657
0.000477287
0.000508206
0.000539234
0.000570291
0.0006013
0.000632194
0.000662908
0.000693379
0.000723547
0.000753352
0.000782734
0.000811629
0.000839975
0.000867705
0.00089475
0.000921036
0.000946484
0.000971013
0.000994533
0.00101695
0.00103815
0.00105804
0.00107647
0.00109332
0.00110844
0.00112166
0.0011328
0.00114168
0.00114801
0.00115173
0.00115304
0.00114872
0.00111912
0.00109059
0.00106485
0.001041
0.00101913
0.000999347
0.000981624
0.000965861
0.000951928
0.000939881
0.000930527
0.00092612
0.000930341
0.000946408
0.00097273
0.000993863
0.000984245
0.000975873
0.000969239
0.000964346
0.000961173
0.000959852
2.73002e-10
2.79733e-08
3.15585e-07
1.75233e-06
4.81571e-06
8.75125e-06
1.26733e-05
1.59332e-05
1.81352e-05
1.93733e-05
2.06451e-05
2.22303e-05
2.41859e-05
2.65197e-05
2.92174e-05
3.22521e-05
3.55915e-05
3.90487e-05
4.08972e-05
4.01312e-05
3.96561e-05
3.98529e-05
4.08348e-05
4.26942e-05
4.55577e-05
4.96315e-05
5.52154e-05
6.27177e-05
7.27651e-05
8.22866e-05
8.85676e-05
9.59618e-05
0.000104669
0.000114857
0.000126653
0.00014015
0.000155404
0.000172441
0.000191251
0.000211792
0.000233989
0.000257735
0.000282892
0.000309298
0.000336775
0.000365145
0.000394231
0.000423873
0.000453919
0.000484238
0.00051471
0.000545228
0.000575696
0.000606025
0.000636135
0.000665949
0.000695394
0.000724399
0.000752892
0.000780803
0.00080806
0.000834586
0.000860306
0.000885135
0.000908987
0.000931769
0.000953379
0.000973708
0.000992635
0.00101003
0.00102575
0.00103964
0.00105154
0.00106126
0.00106855
0.00107331
0.00107576
0.00107357
0.00104501
0.00101727
0.000992275
0.000969153
0.000947942
0.000928761
0.000911643
0.000896661
0.0008839
0.000873431
0.000865427
0.000860537
0.000860381
0.000867682
0.00088534
0.000913474
0.000940356
0.000934198
0.000929653
0.000926738
0.00092549
0.000926061
0.000928599
0.000933214
0.000939956
0.000948812
2.25264e-10
2.29762e-08
2.53532e-07
1.43433e-06
4.07294e-06
7.65103e-06
1.1496e-05
1.50716e-05
1.7971e-05
1.99106e-05
2.09541e-05
2.18915e-05
2.30913e-05
2.46593e-05
2.66573e-05
2.9089e-05
3.19446e-05
3.52037e-05
3.88428e-05
4.27042e-05
4.65421e-05
4.66661e-05
4.61105e-05
4.6086e-05
4.67456e-05
4.82184e-05
5.06226e-05
5.41113e-05
5.89152e-05
6.53054e-05
7.37128e-05
8.47176e-05
9.31623e-05
9.96571e-05
0.000107242
0.000116104
0.000126396
0.000138234
0.0001517
0.000166839
0.000183667
0.000202165
0.000222288
0.000243964
0.000267096
0.000291562
0.000317223
0.000343924
0.000371499
0.00039978
0.000428604
0.000457813
0.000487262
0.000516815
0.000546351
0.000575757
0.00060493
0.000633775
0.000662201
0.000690122
0.000717454
0.000744113
0.000770014
0.000795074
0.000819201
0.000842304
0.000864284
0.000885035
0.000904446
0.000922395
0.000938753
0.000953382
0.000966137
0.000976867
0.000985299
0.000991335
0.00099518
0.0009971
0.000970564
0.000943818
0.000919743
0.000897633
0.000877436
0.000859228
0.000843026
0.000828915
0.000817064
0.000807705
0.000801107
0.000797639
0.000797941
0.00080319
0.000815295
0.000836736
0.000867317
0.00089204
0.000889842
0.000889165
0.000890107
0.000892831
0.000897489
0.000904184
0.000912961
0.000923795
1.97708e-10
2.01079e-08
2.17519e-07
1.23864e-06
3.57998e-06
6.85258e-06
1.05389e-05
1.42365e-05
1.76177e-05
2.03979e-05
2.23398e-05
2.33752e-05
2.39871e-05
2.47965e-05
2.5889e-05
2.73737e-05
2.93362e-05
3.17897e-05
3.47317e-05
3.81464e-05
4.20131e-05
4.62176e-05
5.05353e-05
5.36279e-05
5.33047e-05
5.31284e-05
5.35538e-05
5.46953e-05
5.66857e-05
5.96737e-05
6.38381e-05
6.94196e-05
7.66316e-05
8.5939e-05
9.78634e-05
0.00010458
0.000111228
0.000118935
0.000127872
0.000138179
0.000149961
0.000163287
0.000178194
0.000194688
0.000212742
0.000232304
0.000253297
0.000275623
0.000299169
0.000323804
0.000349387
0.000375768
0.000402793
0.000430306
0.000458154
0.000486189
0.000514269
0.000542263
0.000570045
0.000597499
0.000624515
0.000650987
0.000676815
0.000701902
0.000726148
0.000749458
0.000771731
0.000792868
0.000812762
0.000831304
0.000848382
0.000863875
0.000877661
0.000889607
0.000899425
0.000906981
0.000912438
0.000916007
0.00089623
0.000871423
0.000848659
0.000827928
0.000809088
0.000792191
0.000777258
0.000764344
0.000753606
0.000745301
0.0007398
0.000737597
0.000739312
0.000745696
0.0007576
0.000776186
0.000803591
0.000837395
0.000850247
0.000852029
0.000855387
0.000860494
0.000867496
0.00087649
0.000887505
0.000900502
1.80693e-10
1.83507e-08
1.94755e-07
1.10857e-06
3.23248e-06
6.24696e-06
9.7326e-06
1.33913e-05
1.69917e-05
2.03193e-05
2.31586e-05
2.52967e-05
2.65538e-05
2.70599e-05
2.74986e-05
2.81301e-05
2.9052e-05
3.03766e-05
3.2213e-05
3.45963e-05
3.7537e-05
4.10277e-05
4.50517e-05
4.95581e-05
5.43143e-05
5.90516e-05
6.09315e-05
6.09438e-05
6.12621e-05
6.21671e-05
6.38293e-05
6.63914e-05
7.00302e-05
7.49409e-05
8.13456e-05
8.9424e-05
9.96134e-05
0.000110646
0.00011655
0.000123285
0.000131032
0.000139948
0.000150161
0.000161761
0.000174809
0.000189335
0.000205336
0.000222779
0.000241605
0.000261732
0.000283059
0.000305472
0.000328843
0.000353036
0.00037791
0.000403319
0.000429115
0.000455152
0.000481288
0.000507381
0.000533299
0.000558912
0.000584096
0.000608735
0.000632716
0.000655927
0.000678264
0.000699622
0.000719898
0.000738989
0.00075679
0.000773195
0.000788091
0.000801354
0.000812669
0.000821849
0.000829015
0.000834332
0.000824198
0.000801834
0.00078063
0.000761572
0.000744417
0.000729157
0.000715809
0.000704411
0.000695104
0.000688145
0.000683916
0.000682972
0.000686077
0.000694136
0.000707891
0.000727685
0.00075447
0.000788046
0.000811345
0.000815754
0.000821715
0.000829401
0.000838946
0.000850427
0.000863854
0.000879165
0.000896232
1.71174e-10
1.73749e-08
1.80908e-07
1.02361e-06
2.99168e-06
5.80087e-06
9.08893e-06
1.26235e-05
1.6245e-05
1.9814e-05
2.31839e-05
2.6189e-05
2.86437e-05
3.0352e-05
3.11765e-05
3.13648e-05
3.15998e-05
3.20033e-05
3.26806e-05
3.376e-05
3.53666e-05
3.75689e-05
4.04e-05
4.38692e-05
4.79685e-05
5.26895e-05
5.78227e-05
6.30985e-05
6.82691e-05
6.93386e-05
6.97788e-05
7.06376e-05
7.20976e-05
7.43501e-05
7.75536e-05
8.19326e-05
8.76764e-05
9.49207e-05
0.000103891
0.000114945
0.000123126
0.000129082
0.000135824
0.000143515
0.000152297
0.000162282
0.00017355
0.000186156
0.000200122
0.000215441
0.000232075
0.000249963
0.000269018
0.000289139
0.000310207
0.000332096
0.000354671
0.000377793
0.000401322
0.000425117
0.000449037
0.000472944
0.000496704
0.000520188
0.00054327
0.000565828
0.000587748
0.000608916
0.000629226
0.000648572
0.000666852
0.000683959
0.000699786
0.000714207
0.000726878
0.00073756
0.000746339
0.000753338
0.000755727
0.000736828
0.000717662
0.000700535
0.000685311
0.000671969
0.000660537
0.000651
0.000643476
0.000638304
0.000635959
0.000636891
0.000641708
0.000651369
0.000666785
0.000688358
0.00071665
0.000750758
0.000773599
0.000780754
0.00078947
0.0007999
0.000812152
0.000826277
0.000842252
0.000859987
0.00087933
0.000900079
0.000921999
1.68075e-10
1.70625e-08
1.74338e-07
9.75609e-07
2.84272e-06
5.50656e-06
8.63632e-06
1.20355e-05
1.55857e-05
1.91966e-05
2.278e-05
2.62348e-05
2.94384e-05
3.22411e-05
3.44667e-05
3.59212e-05
3.64827e-05
3.64344e-05
3.6432e-05
3.65645e-05
3.69331e-05
3.76817e-05
3.89486e-05
4.08384e-05
4.3424e-05
4.67436e-05
5.08065e-05
5.56103e-05
6.10218e-05
6.67497e-05
7.25204e-05
7.79193e-05
7.89905e-05
7.9985e-05
8.14565e-05
8.35688e-05
8.65183e-05
9.04768e-05
9.56959e-05
0.000102333
0.000110439
0.000120295
0.000130866
0.000136245
0.000142179
0.000148835
0.000156358
0.000164873
0.000174478
0.000185248
0.000197229
0.00021044
0.00022487
0.000240481
0.000257207
0.000274966
0.000293651
0.000313148
0.000333334
0.000354076
0.000375235
0.000396677
0.000418266
0.00043987
0.000461356
0.000482598
0.000503473
0.000523866
0.000543663
0.000562756
0.00058104
0.000598409
0.000614754
0.000629951
0.000643629
0.000655513
0.00066566
0.000674176
0.000681127
0.000677112
0.000662315
0.000647563
0.000634117
0.000622812
0.000613746
0.000606665
0.000601537
0.00059888
0.000599409
0.000603146
0.000609965
0.000620176
0.000634657
0.000654524
0.000681826
0.000716315
0.000737381
0.000747368
0.000758957
0.000772262
0.000787351
0.000804231
0.000822845
0.000843068
0.000864722
0.000887584
0.000911404
0.000935924
1.70994e-10
1.73737e-08
1.74285e-07
9.59796e-07
2.77499e-06
5.35365e-06
8.38187e-06
1.16809e-05
1.51517e-05
1.87284e-05
2.23553e-05
2.59744e-05
2.95164e-05
3.28953e-05
3.60019e-05
3.8698e-05
4.08144e-05
4.21569e-05
4.25873e-05
4.23456e-05
4.21012e-05
4.19528e-05
4.19842e-05
4.2328e-05
4.31479e-05
4.45944e-05
4.67842e-05
4.97912e-05
5.36492e-05
5.8366e-05
6.39152e-05
6.99965e-05
7.62788e-05
8.25569e-05
8.83036e-05
9.00555e-05
9.17637e-05
9.39726e-05
9.68747e-05
0.000100669
0.000105557
0.000111726
0.000119248
0.000128288
0.000138984
0.000144613
0.000149956
0.000155789
0.000162258
0.000169493
0.000177602
0.000186677
0.000196783
0.00020796
0.000220221
0.000233554
0.000247921
0.000263261
0.00027949
0.000296511
0.000314207
0.000332464
0.00035116
0.000370162
0.00038934
0.000408567
0.00042772
0.000446678
0.000465326
0.000483553
0.000501254
0.000518321
0.000534649
0.000550116
0.000564337
0.000577009
0.000588174
0.000597926
0.000606334
0.000613433
0.000614251
0.000604087
0.00059444
0.000586351
0.000580075
0.000575783
0.000573553
0.000573622
0.000575954
0.000580781
0.00058794
0.000593913
0.000601054
0.000612181
0.000629249
0.000654587
0.000688191
0.000715734
0.000730315
0.000746607
0.000764627
0.000784338
0.000805637
0.000828367
0.000852318
0.000877248
0.000902897
0.000929001
0.000955308
0.000981584
1.79853e-10
1.83071e-08
1.80461e-07
9.72948e-07
2.77871e-06
5.32655e-06
8.31138e-06
1.15627e-05
1.49888e-05
1.85332e-05
2.2154e-05
2.58141e-05
2.94696e-05
3.3076e-05
3.6577e-05
3.98987e-05
4.29445e-05
4.55893e-05
4.76748e-05
4.901e-05
4.9447e-05
4.91122e-05
4.86434e-05
4.82326e-05
4.79307e-05
4.78512e-05
4.8172e-05
4.90803e-05
5.07396e-05
5.32716e-05
5.67514e-05
6.12131e-05
6.66828e-05
7.29328e-05
7.96181e-05
8.64389e-05
9.32334e-05
9.98471e-05
0.000102812
0.000105411
0.00010852
0.000112384
0.000117218
0.000123251
0.00013047
0.000138959
0.000148821
0.000153919
0.000158878
0.000164111
0.000169758
0.000175948
0.00018279
0.000190382
0.000198798
0.000208095
0.000218307
0.000229444
0.000241493
0.000254415
0.000268159
0.00028265
0.000297797
0.000313496
0.000329638
0.000346113
0.000362808
0.000379605
0.00039639
0.000413056
0.0004295
0.000445617
0.000461303
0.000476444
0.000490653
0.000503607
0.000515334
0.000525915
0.00053542
0.000543913
0.000551463
0.000558221
0.000564505
0.000561707
0.000558951
0.000558081
0.00055907
0.000560823
0.000555275
0.000552819
0.000552508
0.00055445
0.000559199
0.000567565
0.000580872
0.000600973
0.000630145
0.000668407
0.00070362
0.000722985
0.000743999
0.000766575
0.000790565
0.000815773
0.000841962
0.000868873
0.000896237
0.000923792
0.000951291
0.000978513
0.00100527
0.00103139
0.00105675
0.00108124
1.94701e-10
1.98789e-08
1.92911e-07
1.01293e-06
2.84479e-06
5.40805e-06
8.40134e-06
1.16561e-05
1.50837e-05
1.86286e-05
2.2251e-05
2.59197e-05
2.9607e-05
3.32859e-05
3.69265e-05
4.0493e-05
4.39393e-05
4.72042e-05
5.02055e-05
5.28343e-05
5.49488e-05
5.63665e-05
5.69398e-05
5.66502e-05
5.59918e-05
5.53695e-05
5.47954e-05
5.43446e-05
5.41804e-05
5.45133e-05
5.55499e-05
5.74663e-05
6.03903e-05
6.43994e-05
6.954e-05
7.57222e-05
8.26153e-05
8.98503e-05
9.71923e-05
0.000104492
0.000111627
0.000117422
0.000121274
0.000125522
0.000130576
0.000136669
0.000143972
0.000152439
0.000158816
0.000163625
0.000168406
0.000173285
0.000178382
0.000183809
0.00018967
0.000196059
0.000203053
0.000210719
0.000219101
0.000228228
0.00023811
0.000248738
0.000260076
0.000272078
0.000284687
0.000297829
0.000311415
0.000325354
0.000339555
0.000353925
0.000368372
0.000382803
0.000397129
0.000411246
0.00042478
0.000437404
0.000449123
0.000459998
0.000470088
0.00047945
0.000488149
0.000496274
0.000503963
0.000511389
0.000518738
0.000525826
0.000532681
0.000530012
0.000526383
0.000523144
0.000521109
0.000521473
0.00052501
0.000532294
0.000544055
0.000561264
0.000585483
0.000618798
0.000661251
0.000701497
0.000725519
0.000750942
0.000777571
0.000805173
0.000833487
0.000862238
0.000891155
0.000919981
0.000948482
0.000976455
0.00100373
0.00103016
0.00105564
0.00108009
2.15789e-10
2.21266e-08
2.1168e-07
1.07823e-06
2.96419e-06
5.56993e-06
8.60717e-06
1.19112e-05
1.53873e-05
1.8975e-05
2.26327e-05
2.63293e-05
3.00405e-05
3.37465e-05
3.74293e-05
4.10709e-05
4.46512e-05
4.81447e-05
5.15171e-05
5.47206e-05
5.76887e-05
6.03295e-05
6.252e-05
6.4094e-05
6.48878e-05
6.47854e-05
6.40539e-05
6.32931e-05
6.25308e-05
6.18105e-05
6.12438e-05
6.10391e-05
6.14314e-05
6.26446e-05
6.48626e-05
6.82151e-05
7.27792e-05
7.86228e-05
8.54516e-05
9.28967e-05
0.000100649
0.000108496
0.000116274
0.000123887
0.000131252
0.000138324
0.000145041
0.000151362
0.000157276
0.00016281
0.000168027
0.000173007
0.000177842
0.000182627
0.000187458
0.000192429
0.000197632
0.000203149
0.000209057
0.00021542
0.000222293
0.000229715
0.000237707
0.000246277
0.000255424
0.000265132
0.000275364
0.000286077
0.000297222
0.000308741
0.000320569
0.00033264
0.000344896
0.000357259
0.000369393
0.000380993
0.000392043
0.00040258
0.000412641
0.000422268
0.000431505
0.000440406
0.000449041
0.000457504
0.000465931
0.000474518
0.000483261
0.000492013
0.000499046
0.000497991
0.0004969
0.000497124
0.000499942
0.000506317
0.000516883
0.00053221
0.000553207
0.000581378
0.000618642
0.000664939
0.000709265
0.000737443
0.000766588
0.000796429
0.000826684
0.000857071
0.000887322
0.000917191
0.000946463
0.000974954
0.00100252
0.00102903
0.00105442
0.00107861
2.43704e-10
2.5124e-08
2.37753e-07
1.16401e-06
3.1219e-06
5.80955e-06
8.93558e-06
1.23294e-05
1.58902e-05
1.9553e-05
2.32727e-05
2.70167e-05
3.07611e-05
3.44881e-05
3.81844e-05
4.18399e-05
4.54462e-05
4.89948e-05
5.24753e-05
5.58725e-05
5.91632e-05
6.2312e-05
6.5266e-05
6.79488e-05
7.02535e-05
7.20323e-05
7.30951e-05
7.33261e-05
7.27545e-05
7.19151e-05
7.10565e-05
7.01871e-05
6.93506e-05
6.87154e-05
6.85225e-05
6.90275e-05
7.04675e-05
7.30349e-05
7.68645e-05
8.20567e-05
8.84985e-05
9.5856e-05
0.000103757
0.000111937
0.000120195
0.000128367
0.000136325
0.000143966
0.000151231
0.000158073
0.000164485
0.000170492
0.000176137
0.000181474
0.000186569
0.000191492
0.00019632
0.000201126
0.000205986
0.000210972
0.000216151
0.000221584
0.000227322
0.00023341
0.000239884
0.000246768
0.000254078
0.000261817
0.000269983
0.000278566
0.000287552
0.000296924
0.000306663
0.00031673
0.000326866
0.000336815
0.000346553
0.000356104
0.000365489
0.000374734
0.000383866
0.000392919
0.000401936
0.00041097
0.000420096
0.000429402
0.000438982
0.000448968
0.000459429
0.000470354
0.000476864
0.000478543
0.000481238
0.000486921
0.000496587
0.00051076
0.000529941
0.000554941
0.000587122
0.000628184
0.000677892
0.000726044
0.000757494
0.000789339
0.00082128
0.000853036
0.000884347
0.000914985
0.000944758
0.000973508
0.00100111
0.00102748
0.00105254
0.00107628
2.77898e-10
2.88362e-08
2.7042e-07
1.26799e-06
3.32784e-06
6.13099e-06
9.37792e-06
1.28906e-05
1.65618e-05
2.03217e-05
2.41219e-05
2.79278e-05
3.17148e-05
3.54656e-05
3.91693e-05
4.28193e-05
4.64131e-05
4.99503e-05
5.34319e-05
5.68585e-05
6.02282e-05
6.35346e-05
6.67633e-05
6.98887e-05
7.28683e-05
7.56377e-05
7.81033e-05
8.01359e-05
8.15486e-05
8.22019e-05
8.19881e-05
8.11815e-05
8.03169e-05
7.93943e-05
7.84316e-05
7.75134e-05
7.68582e-05
7.67308e-05
7.74042e-05
7.91222e-05
8.20753e-05
8.63925e-05
9.21369e-05
9.90623e-05
0.000106813
0.000115053
0.000123523
0.000132011
0.00014035
0.000148417
0.000156128
0.000163448
0.000170363
0.000176872
0.000182999
0.000188777
0.000194249
0.000199464
0.000204476
0.000209341
0.000214119
0.000218865
0.000223637
0.000228489
0.000233469
0.000238623
0.000243991
0.000249608
0.000255505
0.000261709
0.000268243
0.000275134
0.000282406
0.000290074
0.000297977
0.000305928
0.000313926
0.000321992
0.000330152
0.000338432
0.000346855
0.00035545
0.00036425
0.000373293
0.000382627
0.00039231
0.000402413
0.000413019
0.00042422
0.000436127
0.000448893
0.000462423
0.00046685
0.000472408
0.000481597
0.000495247
0.000513658
0.000537126
0.000566277
0.000602211
0.000646409
0.000698588
0.000750112
0.000783637
0.000816931
0.000849721
0.000881765
0.000912858
0.000942834
0.000971563
0.000998949
0.00102493
0.00104946
0.00107253
0.00109415
3.191e-10
3.33183e-08
3.08948e-07
1.39366e-06
3.58098e-06
6.52683e-06
9.91933e-06
1.35718e-05
1.73705e-05
2.12409e-05
2.51315e-05
2.9006e-05
3.28391e-05
3.66144e-05
4.03222e-05
4.39588e-05
4.75252e-05
5.10259e-05
5.44681e-05
5.78606e-05
6.12122e-05
6.45303e-05
6.78194e-05
7.10787e-05
7.42996e-05
7.74621e-05
8.05305e-05
8.34486e-05
8.61326e-05
8.84663e-05
9.02824e-05
9.13729e-05
9.16465e-05
9.11164e-05
9.02904e-05
8.93869e-05
8.84167e-05
8.73768e-05
8.64228e-05
8.5807e-05
8.58113e-05
8.67127e-05
8.875e-05
9.21007e-05
9.69004e-05
0.000103064
0.000110306
0.000118267
0.000126636
0.000135162
0.000143656
0.000151975
0.000160023
0.000167732
0.000175072
0.000182038
0.000188627
0.000194851
0.000200736
0.000206311
0.000211611
0.000216675
0.000221546
0.000226267
0.000230884
0.000235441
0.00023998
0.000244546
0.000249183
0.000253935
0.000258845
0.000263963
0.000269342
0.000275033
0.000280953
0.000287002
0.000293214
0.000299633
0.000306304
0.000313267
0.000320563
0.000328229
0.000336304
0.000344829
0.000353848
0.000363415
0.000373592
0.000384461
0.00039612
0.000408698
0.000422351
0.000437258
0.000453309
0.000460547
0.000469996
0.000483882
0.000502469
0.000525801
0.000553936
0.000587042
0.000626022
0.000672443
0.000725907
0.000778988
0.000813222
0.000846651
0.000879057
0.000910261
0.000940125
0.000968547
0.000995458
0.00102082
0.00104461
0.00106685
0.00108755
3.67895e-10
3.86451e-08
3.53206e-07
1.54075e-06
3.87839e-06
6.98899e-06
1.05452e-05
1.43512e-05
1.82869e-05
2.22734e-05
2.62567e-05
3.01992e-05
3.40757e-05
3.78707e-05
4.15764e-05
4.51919e-05
4.87214e-05
5.21734e-05
5.55596e-05
5.88939e-05
6.21913e-05
6.54667e-05
6.87337e-05
7.20038e-05
7.52838e-05
7.85752e-05
8.1871e-05
8.51531e-05
8.83889e-05
9.15261e-05
9.44869e-05
9.7162e-05
9.94041e-05
0.000100991
0.000101797
0.000101727
0.00010102
0.000100201
9.92837e-05
9.82625e-05
9.71812e-05
9.62544e-05
9.57498e-05
9.59546e-05
9.71366e-05
9.95179e-05
0.000103248
0.000108394
0.000114782
0.000122116
0.000130062
0.000138346
0.000146749
0.000155112
0.000163314
0.00017127
0.000178921
0.000186232
0.0001932
0.000199814
0.000206078
0.000212004
0.000217614
0.000222932
0.000227983
0.0002328
0.000237415
0.000241863
0.000246184
0.00025042
0.000254619
0.000258833
0.000263121
0.000267549
0.000272085
0.000276693
0.000281444
0.000286414
0.000291673
0.000297291
0.000303331
0.000309853
0.000316916
0.000324578
0.000332899
0.000341943
0.000351785
0.000362518
0.000374259
0.000387155
0.000401385
0.000417147
0.00043463
0.000449922
0.000460541
0.000474905
0.000494322
0.000518638
0.000547606
0.000580793
0.000617612
0.000658435
0.000705736
0.000762452
0.000809638
0.00084329
0.000875673
0.000906636
0.000936071
0.000963904
0.000990091
0.00101462
0.00103749
0.00105873
0.00107838
4.25131e-10
4.48846e-08
4.03579e-07
1.70938e-06
4.21662e-06
7.50831e-06
1.124e-05
1.52067e-05
1.92824e-05
2.33844e-05
2.74566e-05
3.14609e-05
3.53725e-05
3.91778e-05
4.28716e-05
4.64559e-05
4.99388e-05
5.33325e-05
5.66531e-05
5.99186e-05
6.31484e-05
6.63624e-05
6.95794e-05
7.2817e-05
7.60897e-05
7.94086e-05
8.278e-05
8.62037e-05
8.96713e-05
9.31637e-05
9.6648e-05
0.000100073
0.000103366
0.000106421
0.000109104
0.00011122
0.000112529
0.000112992
0.000112616
0.000111894
0.000111062
0.000110149
0.000109099
0.000108044
0.000107226
0.000106916
0.000107388
0.000108881
0.000111573
0.000115577
0.000120871
0.000127263
0.00013448
0.000142232
0.000150283
0.000158447
0.000166583
0.000174586
0.000182374
0.000189893
0.000197103
0.000203983
0.000210531
0.000216738
0.000222608
0.00022815
0.00023338
0.000238317
0.000242983
0.000247409
0.000251629
0.000255686
0.000259631
0.000263526
0.000267357
0.000271124
0.000274926
0.000278864
0.000283034
0.000287533
0.000292453
0.000297879
0.000303899
0.000310595
0.000318053
0.000326364
0.000335628
0.000345964
0.00035752
0.000370479
0.000385053
0.000401472
0.000419947
0.000440634
0.000454387
0.000469905
0.000490477
0.000516273
0.00054642
0.000580473
0.000620731
0.000658313
0.000698289
0.000742754
0.000790772
0.000836966
0.000871177
0.00090155
0.000930241
0.000957203
0.000982422
0.0010059
0.00102768
0.00104778
0.00106627
0.0010832
4.91665e-10
5.2095e-08
4.60458e-07
1.89857e-06
4.58983e-06
8.0729e-06
1.1986e-05
1.61151e-05
2.03288e-05
2.4541e-05
2.8694e-05
3.27495e-05
3.66845e-05
4.04874e-05
4.41565e-05
4.76977e-05
5.1123e-05
5.44491e-05
5.76961e-05
6.08861e-05
6.40426e-05
6.7189e-05
7.0348e-05
7.35407e-05
7.67858e-05
8.00992e-05
8.34929e-05
8.69747e-05
9.0547e-05
9.4206e-05
9.79398e-05
0.000101726
0.000105531
0.000109303
0.00011297
0.000116432
0.000119557
0.00012218
0.000124038
0.000125031
0.000125125
0.00012455
0.000123843
0.000123053
0.000122156
0.000121145
0.000120216
0.000119608
0.000119573
0.000120349
0.000122136
0.000125056
0.000129173
0.000134429
0.000140651
0.000147599
0.000155026
0.000162733
0.000170557
0.000178371
0.000186077
0.000193598
0.000200878
0.000207872
0.000214553
0.000220903
0.000226918
0.000232588
0.000237916
0.000242912
0.000247593
0.000251983
0.000256117
0.00026004
0.00026373
0.000267199
0.000270556
0.000273921
0.00027741
0.000281141
0.000285226
0.000289778
0.000294909
0.000300732
0.000307361
0.000314921
0.000323547
0.000333396
0.00034466
0.000357567
0.000372377
0.000389358
0.00040874
0.000430672
0.00045218
0.000470429
0.0004925
0.000519509
0.000553157
0.000586184
0.000621139
0.00065762
0.000694921
0.000733513
0.00077423
0.000816072
0.00085607
0.000891606
0.000921965
0.000947729
0.000969733
0.000988715
0.0010053
0.00102
0.00103325
0.0010454
5.68431e-10
6.04379e-08
5.22452e-07
2.10362e-06
4.98748e-06
8.6669e-06
1.27628e-05
1.70524e-05
2.13987e-05
2.57125e-05
2.99352e-05
3.40292e-05
3.79733e-05
4.17593e-05
4.53895e-05
4.88743e-05
5.22306e-05
5.54794e-05
5.86454e-05
6.17546e-05
6.48341e-05
6.79106e-05
7.101e-05
7.4156e-05
7.73698e-05
8.06697e-05
8.40706e-05
8.75838e-05
9.12162e-05
9.49706e-05
9.88442e-05
0.000102828
0.000106907
0.000111055
0.000115234
0.000119394
0.000123462
0.000127344
0.000130913
0.000134017
0.000136443
0.000137922
0.000138519
0.000138273
0.000137686
0.000137017
0.000136331
0.000135513
0.000134654
0.00013396
0.00013365
0.000133944
0.000135031
0.000137061
0.000140106
0.000144197
0.000149271
0.000155191
0.000161753
0.000168749
0.000176007
0.000183384
0.000190763
0.000198052
0.000205175
0.000212071
0.000218694
0.000225008
0.000230986
0.000236618
0.000241895
0.000246819
0.000251403
0.00025567
0.000259577
0.000263121
0.000266415
0.000269586
0.00027276
0.000276065
0.000279631
0.00028359
0.000288077
0.000293225
0.000299176
0.000306097
0.000314161
0.000323569
0.000334563
0.000347428
0.000362479
0.000380023
0.000400313
0.000423482
0.000449518
0.000474942
0.000502099
0.000528938
0.000558738
0.000591229
0.000625205
0.000659929
0.000694899
0.000729999
0.000765441
0.000801167
0.000836356
0.000869499
0.00089925
0.000924898
0.000946383
0.00096411
0.000978703
0.000990833
0.00100113
0.00101018
6.56381e-10
6.99119e-08
5.9129e-07
2.3201e-06
5.39864e-06
9.27468e-06
1.35515e-05
1.79967e-05
2.24673e-05
2.68718e-05
3.11519e-05
3.52699e-05
3.92075e-05
4.29609e-05
4.65374e-05
4.99526e-05
5.32282e-05
5.63907e-05
5.94688e-05
6.2492e-05
6.54913e-05
6.84965e-05
7.15363e-05
7.46364e-05
7.78198e-05
8.11063e-05
8.45121e-05
8.80502e-05
9.17294e-05
9.55548e-05
9.95276e-05
0.000103645
0.000107898
0.000112275
0.000116754
0.000121308
0.000125896
0.000130466
0.000134948
0.00013925
0.000143252
0.000146806
0.000149742
0.000151767
0.000152847
0.000153057
0.00015263
0.000152113
0.000151592
0.000151055
0.000150413
0.000149821
0.000149455
0.000149503
0.000150138
0.000151507
0.000153712
0.000156783
0.000160736
0.000165518
0.000171029
0.0001771
0.000183555
0.000190246
0.000197044
0.000203842
0.00021055
0.000217094
0.000223411
0.000229451
0.000235176
0.000240558
0.000245586
0.000250259
0.000254499
0.000258288
0.000261727
0.000264939
0.00026805
0.000271192
0.000274502
0.000278122
0.000282204
0.000286904
0.000292385
0.000298836
0.000306481
0.00031557
0.000326399
0.000339309
0.000354668
0.000372817
0.000394006
0.00041833
0.000445688
0.000475736
0.000507973
0.000539159
0.000569963
0.000601928
0.000634413
0.000666825
0.000699013
0.000730944
0.000762597
0.000793983
0.000824896
0.000854638
0.000882192
0.000906587
0.000927227
0.000943983
0.000957128
0.000967207
0.000974905
0.000980953
7.56145e-10
8.05285e-08
6.6717e-07
2.54794e-06
5.81837e-06
9.88819e-06
1.43424e-05
1.8937e-05
2.35225e-05
2.80044e-05
3.23239e-05
3.64476e-05
4.03615e-05
4.40664e-05
4.75746e-05
5.0907e-05
5.40911e-05
5.71587e-05
6.01437e-05
6.30761e-05
6.59915e-05
6.89235e-05
7.19035e-05
7.49588e-05
7.81129e-05
8.1387e-05
8.47984e-05
8.83606e-05
9.2083e-05
9.59716e-05
0.000100029
0.000104254
0.000108643
0.000113186
0.000117872
0.000122682
0.000127594
0.000132576
0.000137587
0.000142573
0.000147464
0.000152172
0.000156586
0.000160564
0.000163958
0.000166556
0.000168081
0.000168757
0.000168678
0.000168294
0.000167897
0.000167622
0.000167303
0.000166936
0.000166683
0.000166685
0.000167089
0.000168024
0.000169596
0.000171871
0.000174852
0.000178548
0.000182921
0.000187903
0.000193356
0.000199129
0.000205094
0.000211137
0.000217159
0.000223076
0.000228816
0.000234322
0.000239545
0.000244447
0.000248924
0.000252927
0.000256534
0.000259859
0.000263022
0.000266148
0.000269373
0.000272841
0.000276709
0.000281149
0.000286347
0.000292516
0.000299912
0.000308837
0.000319643
0.000332721
0.000348482
0.000367283
0.000389344
0.000414686
0.000443099
0.00047408
0.000507059
0.00054153
0.000576936
0.000612717
0.000648327
0.000680769
0.000710613
0.000739498
0.000767467
0.000794485
0.000820802
0.000846544
0.000871168
0.000893675
0.000913126
0.000928922
0.000940885
0.00094924
0.000954562
0.000957665
8.65534e-10
9.20809e-08
7.47197e-07
2.78417e-06
6.24792e-06
1.05097e-05
1.51356e-05
1.98702e-05
2.45581e-05
2.91029e-05
3.34473e-05
3.75612e-05
4.14356e-05
4.50767e-05
4.85026e-05
5.17398e-05
5.48206e-05
5.7781e-05
6.0659e-05
6.34924e-05
6.6319e-05
6.91748e-05
7.20945e-05
7.51058e-05
7.82301e-05
8.14912e-05
8.49081e-05
8.8494e-05
9.22577e-05
9.62055e-05
0.000100341
0.000104663
0.000109168
0.000113851
0.000118702
0.000123707
0.000128852
0.000134114
0.000139469
0.000144881
0.000150309
0.000155699
0.000160981
0.000166072
0.000170867
0.000175236
0.000179029
0.000182107
0.00018419
0.000185295
0.000185662
0.000185459
0.000185228
0.000185042
0.000185025