/*--------------------------------*- C++ -*----------------------------------*\
  =========                 |
  \\      /  F ield         | OpenFOAM: The Open Source CFD Toolbox
   \\    /   O peration     | Website:  https://openfoam.org
    \\  /    A nd           | Version:  10
     \\/     M anipulation  |
\*---------------------------------------------------------------------------*/
FoamFile
{
    format      ascii;
    class       volScalarField;
    location    "38000";
    object      omega;
}
// * * * * * * * * * * * * * * * * * * * * * * * * * * * * * * * * * * * * * //

dimensions      [0 0 -1 0 0 0 0];

internalField   nonuniform List<scalar> 
17969
(
5562.21
1283.99
397.062
201.852
151.088
141.511
152.464
178.444
211.296
247.897
288.42
329.459
367.192
393.666
404.73
401.236
386.028
362.832
335.258
306.083
277.682
251.063
226.37
203.88
183.644
165.601
149.611
135.502
123.096
112.23
102.751
94.5043
87.3358
81.0986
75.6588
70.8979
66.7133
63.0177
59.737
56.8092
54.1823
51.8128
49.6645
47.7069
45.9147
44.2666
42.7448
41.3342
40.0223
38.7982
37.6531
36.5793
35.5703
34.6206
33.7255
32.881
32.0839
31.3311
30.6205
29.9498
29.3177
28.7226
28.1637
27.6402
27.1515
26.6974
26.2779
25.8932
25.5437
25.2301
24.9533
24.7143
24.5147
24.3562
24.2422
24.1739
24.1475
24.1592
24.209
24.2949
24.4145
24.566
24.7483
24.961
25.2049
25.4815
25.7937
26.1446
26.5373
26.9739
27.4562
27.9913
28.5896
29.2575
29.9996
30.8028
31.6485
32.5407
33.487
34.4841
5562.29
1296.63
389.36
178.81
121.138
104.971
106.606
120.824
142.496
166.238
192.543
221.554
253.058
284.175
313.306
337.021
350.641
353.593
346.875
332.519
313.013
290.7
267.409
244.683
223.172
203.025
184.475
167.593
152.37
138.73
126.566
115.753
106.167
97.6931
90.2221
83.6489
77.8699
72.7858
68.3042
64.3422
60.8264
57.6938
54.8899
52.3687
50.0912
48.0244
46.1405
44.416
42.8311
41.369
40.0157
38.7592
37.5893
36.4974
35.4764
34.5199
33.6229
32.7808
31.99
31.2473
30.5501
29.8963
29.2842
28.7125
28.1801
27.6863
27.2309
26.8136
26.4348
26.0948
25.7945
25.535
25.3175
25.1437
25.0173
24.9389
24.904
24.9075
24.9501
25.029
25.1414
25.2852
25.459
25.6625
25.8962
26.1622
26.4636
26.8046
27.1899
27.6238
28.1092
28.6477
29.2438
29.9083
30.6503
31.4589
32.3175
33.23
34.2028
35.2321
5562.35
1305.74
389.906
168.601
105.086
83.9918
79.1034
84.1115
97.0764
113.206
131.151
150.974
172.646
196.304
221.894
247.09
270.27
290.851
305.506
312.516
311.774
304.209
291.331
274.886
256.488
237.437
218.785
200.975
184.163
168.544
154.197
141.14
129.337
118.719
109.201
100.69
93.0943
86.3278
80.3097
74.9642
70.2183
66.0025
62.2518
58.9068
55.9145
53.2283
50.8075
48.6173
46.628
44.814
43.1539
41.6292
40.2243
38.9261
37.7231
36.606
35.5666
34.598
33.6945
32.8511
32.0638
31.3291
30.6443
30.007
29.4155
28.8686
28.3651
27.9047
27.4871
27.1126
26.7816
26.4951
26.2543
26.0606
25.9178
25.8259
25.78
25.7743
25.8051
25.8729
25.9745
26.1075
26.2705
26.4629
26.6856
26.9405
27.2309
27.5614
27.9374
28.3649
28.8495
29.3944
30.0006
30.6695
31.4123
32.2261
33.0969
34.0293
35.0283
36.0892
5562.39
1311.07
391.97
164.811
97.3393
72.8856
63.8119
62.5975
67.449
77.4887
89.5587
103.368
118.708
135.523
153.77
173.462
194.84
215.985
235.421
253.178
267.706
276.894
280.151
277.614
270.069
258.663
244.671
229.253
213.376
197.775
182.761
168.496
155.142
142.78
131.442
121.116
111.759
103.313
95.71
88.8772
82.7446
77.2459
72.3193
67.9074
63.9568
60.4171
57.2417
54.3877
51.8163
49.493
47.3874
45.4729
43.7268
42.1293
40.6634
39.3149
38.0713
36.9221
35.8586
34.873
33.9592
33.1116
32.3258
31.5982
30.9258
30.3063
29.7378
29.2191
28.7494
28.3285
27.9564
27.6336
27.3609
27.1395
26.973
26.8611
26.7975
26.7758
26.7893
26.8407
26.9266
27.0447
27.1937
27.373
27.5833
27.8266
28.1061
28.4262
28.7927
29.2124
29.6922
30.2381
30.8533
31.5375
32.2901
33.1084
33.9906
34.942
35.9662
37.0578
38.2066
39.3997
40.6222
41.8587
5562.42
1315.11
394.461
164.146
94.2374
67.6892
56.1563
51.5463
51.3028
54.9166
62.1286
71.2037
81.6383
93.6006
106.975
121.566
137.319
154.167
172.231
190.334
207.208
222.436
235.865
245.972
251.692
252.729
249.328
242.146
232.07
220.062
206.975
193.557
180.323
167.496
155.242
143.692
132.928
122.989
113.877
105.569
98.0242
91.1935
85.0209
79.4497
74.425
69.8946
65.8105
62.1281
58.8067
55.8088
53.0998
50.6484
48.426
46.407
44.5689
42.8915
41.3574
39.9515
38.6608
37.4739
36.3813
35.3748
34.4476
33.5939
32.8089
32.0888
31.4303
30.8312
30.2896
29.8043
29.3748
29.0007
28.6822
28.4198
28.217
28.0732
27.9812
27.9336
27.9225
27.9499
28.0137
28.1118
28.2428
28.4062
28.6025
28.8333
29.1015
29.4114
29.7688
30.1804
30.654
31.1967
31.8144
32.5091
33.2787
34.1089
35.0002
35.969
37.0168
38.1373
39.3195
40.5493
41.8107
43.0872
5562.44
1318.44
397.312
165.183
93.7415
65.8718
52.8692
46.3681
43.4999
43.2525
45.4702
50.3033
57.0933
64.8837
73.9614
84.4116
96.199
109.031
122.834
137.496
153.029
168.843
183.831
197.211
209.206
219.264
226.264
229.665
229.337
225.556
218.865
209.962
199.587
188.376
176.919
165.58
154.514
143.887
133.811
124.366
115.59
107.495
100.072
93.2938
87.1258
81.5254
76.4475
71.8469
67.6799
63.9055
60.4855
57.3853
54.5731
52.02
49.7001
47.5895
45.6671
43.9138
42.3128
40.8491
39.5095
38.2828
37.159
36.1298
35.1878
34.3272
33.5429
32.8308
32.1876
31.6109
31.0988
30.65
30.2636
29.9394
29.6813
29.4889
29.3543
29.2695
29.2275
29.2207
29.2545
29.3265
29.435
29.5791
29.7589
29.9758
30.232
30.5313
30.8791
31.2821
31.7481
32.2852
32.9002
33.5976
34.377
35.2202
36.1242
37.1086
38.1785
39.3265
40.5407
41.8055
43.1037
44.4174
5562.45
1321.38
400.741
167.38
94.8409
66.0553
52.1124
44.4971
40.2028
38.0273
37.5057
38.5731
41.4752
46.2131
51.9874
58.7305
66.644
75.8192
86.2482
97.6312
109.868
122.819
136.405
150.479
163.95
176.029
186.781
196.234
203.692
208.47
210.289
209.128
205.251
199.104
191.244
182.248
172.604
162.755
152.958
143.349
134.073
125.23
116.894
109.103
101.877
95.212
89.0952
83.5013
78.3991
73.7536
69.5285
65.6876
62.1963
59.0221
56.1349
53.5074
51.1146
48.934
46.9456
45.1313
43.4748
41.9619
40.58
39.3179
38.166
37.1159
36.1604
35.2934
34.5101
33.806
33.1781
32.6237
32.1411
31.7291
31.3928
31.1322
30.9385
30.8028
30.7175
30.6713
30.6687
30.7091
30.7905
30.9116
31.0721
31.2725
31.5146
31.8014
32.1377
32.5297
32.9852
33.5126
34.1196
34.812
35.5914
36.4414
37.3568
38.3567
39.4485
40.6236
41.8687
43.1668
44.4993
45.8471
47.1919
5562.45
1323.69
404.623
170.333
96.9077
67.409
52.8035
44.479
39.3533
36.1411
34.261
33.4659
33.7109
35.124
37.9698
42.1604
47.0736
52.8839
59.7747
67.845
77.0661
87.2244
98.1949
109.821
121.947
134.558
146.794
157.941
167.757
176.386
183.718
189.169
192.348
193.092
191.446
187.649
182.07
175.156
167.348
159.039
150.544
142.04
133.665
125.536
117.747
110.362
103.421
96.9456
90.9412
85.4014
80.3103
75.6458
71.3815
67.4888
63.9385
60.7019
57.7516
55.062
52.6092
50.3717
48.3298
46.4661
44.7649
43.2124
41.7962
40.5055
39.3309
38.2643
37.2989
36.4287
35.6489
34.9559
34.3466
33.8195
33.381
33.0321
32.7627
32.5622
32.4228
32.3346
32.2868
32.2883
32.3363
32.429
32.5652
32.7445
32.9679
33.2374
33.5569
33.932
34.3702
34.8805
35.4719
36.1516
36.9225
37.7713
38.6951
39.7118
40.8261
42.0279
43.3024
44.6313
45.9944
47.3715
48.744
50.0953
51.4122
5562.43
1325.06
408.698
173.683
99.4906
69.3789
54.2525
45.4315
39.783
35.9748
33.3725
31.6581
30.6817
30.4028
30.8744
32.256
34.7778
38.3531
42.5283
47.5004
53.4619
60.5294
68.6278
77.6934
87.5947
98.1596
109.186
120.571
131.848
142.262
151.363
159.317
166.178
171.78
175.693
177.696
177.706
175.802
172.193
167.188
161.14
154.384
147.231
139.896
132.51
125.196
118.063
111.19
104.635
98.4391
92.6253
87.2047
82.1773
77.5342
73.2607
69.3377
65.7432
62.4541
59.4473
56.7002
54.1912
51.9002
49.8085
47.8993
46.1573
44.569
43.1226
41.8075
40.6148
39.5367
38.5668
37.6997
36.9314
36.2598
35.6931
35.2336
34.8694
34.5877
34.3788
34.2346
34.1418
34.0953
34.1018
34.158
34.2617
34.4115
34.6073
34.8498
35.142
35.4888
35.8983
36.3803
36.9462
37.6062
38.3647
39.2109
40.1444
41.1788
42.3143
43.54
44.8396
46.1937
47.5811
48.981
50.3741
51.744
53.0775
54.3645
5562.41
1325.28
412.718
177.135
102.265
71.593
56.0134
46.8032
40.7904
36.6105
33.5982
31.4012
29.8266
28.7731
28.2019
28.1272
28.6204
29.8278
31.9552
34.9716
38.5111
42.7275
47.7943
53.8386
60.9015
68.9442
77.8525
87.4547
97.5346
107.909
118.416
128.251
136.869
144.369
150.81
156.217
160.428
163.158
164.298
163.817
161.809
158.462
154.027
148.775
142.976
136.843
130.509
124.098
117.719
111.461
105.397
99.5801
94.0497
88.8312
83.9387
79.3764
75.1416
71.2252
67.6144
64.2936
61.2448
58.4498
55.8902
53.5488
51.4088
49.4552
47.6735
46.0509
44.5762
43.2395
42.0325
40.9482
39.9812
39.1284
38.4009
37.8021
37.3178
36.933
36.6351
36.4147
36.2612
36.1609
36.1127
36.119
36.1765
36.2828
36.4365
36.6373
36.8869
37.1914
37.5592
38.0022
38.5346
39.1696
39.9165
40.7698
41.7209
42.7689
43.9157
45.1554
46.4706
47.8406
49.2434
50.6574
52.0632
53.4445
54.7883
56.085
57.328
58.5132
5562.38
1324.22
416.442
180.444
105
73.8072
57.81
48.2641
41.9666
37.5277
34.2604
31.7916
29.9089
28.4823
27.4374
26.7384
26.3809
26.3926
26.8398
27.8441
29.5721
32.066
35.047
38.5647
42.8055
47.9235
53.9998
61.0424
68.9811
77.6733
86.9188
96.48
106.237
115.563
123.898
131.054
137.213
142.378
146.569
149.658
151.479
151.985
151.186
149.183
146.143
142.269
137.771
132.832
127.573
122.114
116.564
111.014
105.542
100.208
95.0629
90.142
85.4714
81.0673
76.9379
73.0839
69.5021
66.1843
63.1206
60.2983
57.704
55.3236
53.1429
51.1493
49.3308
47.6763
46.1761
44.8215
43.6059
42.5252
41.5939
40.8173
40.1782
39.6589
39.2442
38.9211
38.6785
38.5051
38.3859
38.3185
38.3095
38.3535
38.4477
38.5905
38.7863
39.041
39.3631
39.7647
40.26
40.8638
41.5891
42.4345
43.393
44.4557
45.6095
46.8507
48.17
49.5454
50.9538
52.3733
53.7842
55.1702
56.5188
57.8207
59.0696
60.2618
61.3954
62.47
63.4863
64.4455
5562.34
1321.91
419.634
183.42
107.547
75.8728
59.483
49.6342
43.0942
38.4544
35.0117
32.3781
30.3239
28.7065
27.4351
26.4528
25.7273
25.2459
25.0151
25.0622
25.4418
26.2498
27.61
29.6291
32.1537
35.0879
38.6096
42.8831
48.0258
54.0902
61.0583
68.8329
77.2469
86.062
95.0931
103.974
112.102
119.039
124.967
129.985
134.085
137.265
139.45
140.574
140.627
139.644
137.728
135.028
131.701
127.875
123.66
119.166
114.487
109.71
104.91
100.15
95.485
90.9576
86.6018
82.4423
78.4966
74.7758
71.2843
68.022
64.9861
62.17
59.5669
57.1679
54.9628
52.9418
51.096
49.4173
47.8992
46.5374
45.3519
44.3508
43.5135
42.819
42.2499
41.7905
41.427
41.1467
40.9372
40.7869
40.686
40.6433
40.6586
40.731
40.8634
41.0582
41.3235
41.6701
42.1126
42.6674
43.3507
44.1663
45.112
46.1782
47.3434
48.5867
49.9002
51.2719
52.6779
54.0957
55.5055
56.8913
58.2407
59.5449
60.7977
61.9955
63.1367
64.2207
65.2481
66.2199
5562.3
1318.48
422.305
185.97
109.851
77.7961
61.015
50.8509
44.0772
39.2624
35.6829
32.9355
30.7785
29.0592
27.6771
26.5648
25.6772
24.9855
24.4743
24.1399
23.9912
24.052
24.3651
25.0031
26.0649
27.6756
29.802
32.259
35.178
38.7099
42.9972
48.1253
54.122
60.9422
68.4626
76.4786
84.7588
93.1685
101.029
107.895
113.734
118.656
122.723
125.941
128.315
129.797
130.387
130.128
129.081
127.338
124.996
122.149
118.89
115.306
111.48
107.486
103.393
99.2623
95.1458
91.0891
87.1295
83.2978
79.6166
76.1026
72.7687
69.6227
66.6678
63.9044
61.3304
58.9426
56.7365
54.7081
52.8536
51.1703
49.6863
48.4162
47.3367
46.4244
45.6591
45.0237
44.5028
44.0829
43.752
43.4982
43.3102
43.1749
43.0919
43.0703
43.1141
43.2252
43.4097
43.6779
44.045
44.5291
45.1491
45.9149
46.8285
47.8815
49.0511
50.3051
51.6175
52.9789
54.3765
55.7876
57.1925
58.5753
59.9239
61.2296
62.4865
63.6911
64.8414
65.937
66.9781
67.9656
5562.25
1313.7
423.798
188.233
111.976
79.4004
62.2203
51.783
44.8224
39.8763
36.2013
33.3811
31.1649
29.3929
27.9586
26.7889
25.8324
25.0532
24.4263
23.9362
23.575
23.343
23.2491
23.313
23.5685
24.0708
24.9051
26.1637
27.9041
29.9889
32.4178
35.3261
38.8609
43.132
48.2
54.0696
60.6752
67.8778
75.4463
83.2161
90.7449
97.5351
103.3
108.17
112.208
115.462
117.943
119.676
120.657
120.915
120.504
119.481
117.914
115.874
113.43
110.652
107.606
104.354
100.954
97.4597
93.9198
90.3765
86.8667
83.4217
80.0677
76.8264
73.7141
70.7432
67.923
65.2605
62.7597
60.4228
58.2503
56.2461
54.4519
52.8921
51.5433
50.3816
49.3865
48.5402
47.827
47.233
46.7456
46.3532
46.0452
45.8115
45.6432
45.5303
45.4709
45.4737
45.5508
45.7178
45.9886
46.3825
46.9212
47.6207
48.4867
49.5115
50.6736
51.9371
53.2625
54.622
56.0078
57.4098
58.8085
60.188
61.5366
62.8456
64.1091
65.3235
66.4867
67.5979
68.6569
69.6645
5562.19
1308.2
424.416
190.157
113.534
80.5312
63.0514
52.4181
45.3293
40.2984
36.5662
33.7066
31.462
29.6679
28.2139
27.0237
26.0427
25.2313
24.5606
24.0095
23.5634
23.2134
22.9558
22.7924
22.7316
22.7898
22.9937
23.385
24.031
25.0043
26.3961
28.1703
30.2067
32.6148
35.5183
39.0445
43.2736
48.2443
53.9355
60.2586
67.0345
74.0687
81.1505
87.7504
93.4712
98.3176
102.362
105.648
108.225
110.119
111.37
112.005
112.057
111.577
110.615
109.219
107.446
105.348
102.979
100.387
97.6223
94.7284
91.7472
88.7165
85.6702
82.6383
79.6466
76.717
73.8685
71.117
68.475
65.9536
63.5623
61.3126
59.2596
57.4389
55.8344
54.4259
53.1947
52.1248
51.2018
50.4126
49.7448
49.1872
48.7294
48.3617
48.0749
47.8607
47.7131
47.6304
47.616
47.6809
47.8474
48.1404
48.5865
49.2099
50.0193
51.0074
52.1541
53.4215
54.7647
56.1427
57.5299
58.9229
60.3166
61.6952
63.047
64.3634
65.6384
66.868
68.0498
69.1827
70.266
71.3001
72.2854
5562.13
1301.87
424.539
191.277
114.461
81.1991
63.5377
52.7902
45.632
40.56
36.805
33.9338
31.6847
29.8898
28.4366
27.2468
26.2639
25.4467
24.7642
24.193
23.7157
23.3194
22.9952
22.7381
22.5468
22.4239
22.3772
22.4204
22.5753
22.8741
23.3677
24.1285
25.2215
26.6895
28.4278
30.4451
32.8405
35.7411
39.2401
43.3921
48.209
53.6477
59.5965
65.8687
72.3378
78.591
84.2263
89.0246
93.0602
96.3781
99.0222
101.045
102.486
103.388
103.788
103.715
103.212
102.323
101.084
99.5384
97.7296
95.6977
93.4813
91.1177
88.6416
86.0848
83.4765
80.8433
78.2093
75.5959
73.0221
70.505
68.061
65.7083
63.5117
61.522
59.7319
58.1283
56.6982
55.43
54.3127
53.3358
52.4892
51.763
51.1481
50.6351
50.2154
49.8807
49.6243
49.4426
49.3372
49.3178
49.4051
49.6262
50.0101
50.5814
51.3478
52.3065
53.4391
54.7082
56.0687
57.4743
58.8877
60.2895
61.6818
63.0645
64.4253
65.7555
67.0488
68.3009
69.5089
70.6711
71.7866
72.8549
73.8762
5562.07
1294.92
424.225
191.617
114.806
81.4622
63.7365
52.9524
45.7783
40.7042
36.9554
34.0956
31.8606
30.0808
28.6423
27.4656
26.4935
25.6837
25.0044
24.4311
23.9451
23.5319
23.1807
22.8835
22.6351
22.433
22.2775
22.1722
22.124
22.1451
22.2535
22.4757
22.8498
23.4376
24.2927
25.4813
26.9781
28.6893
30.6932
33.0862
35.9739
39.4174
43.4481
48.054
53.1746
58.6682
64.3884
70.1395
75.5252
80.2203
84.208
87.5348
90.2386
92.363
93.9542
95.0562
95.7058
95.9413
95.7877
95.2809
94.457
93.3498
91.9905
90.413
88.6493
86.7297
84.6821
82.5332
80.3079
78.0295
75.7192
73.3971
71.0827
68.7983
66.6129
64.5873
62.725
61.0216
59.4718
58.0704
56.8117
55.6897
54.6978
53.8294
53.0776
52.4348
51.8935
51.4464
51.0871
50.8119
50.6222
50.5267
50.5444
50.7046
51.0403
51.5811
52.3365
53.3005
54.4503
55.7446
57.1341
58.5737
60.0256
61.4607
62.8722
64.268
65.6466
66.9991
68.3191
69.6022
70.845
72.0456
73.2023
74.3143
75.3809
5562
1287.59
423.172
191.188
114.651
81.4044
63.7213
52.9672
45.8215
40.7763
37.0569
34.2262
32.0193
30.2659
28.8515
27.6962
26.7423
25.9469
25.2778
24.7102
24.2247
23.8063
23.4434
23.1271
22.8506
22.6095
22.4012
22.2251
22.0828
21.9783
21.9183
21.9136
21.9795
22.1381
22.4193
22.8692
23.5521
24.5082
25.7701
27.2544
28.962
30.9589
33.3484
36.1995
39.5476
43.3976
47.7148
52.413
57.3506
62.4393
67.3835
71.8997
75.7853
79.0792
81.8111
84.0132
85.7226
86.9766
87.8173
88.2758
88.3847
88.1738
87.6675
86.896
85.8884
84.6705
83.267
81.7032
80.003
78.1887
76.2815
74.3018
72.2696
70.2075
68.1828
66.2597
64.4518
62.7631
61.1959
59.7515
58.4308
57.2328
56.1555
55.1963
54.3515
53.6168
52.9868
52.4558
52.0191
51.6741
51.423
51.2755
51.2505
51.3774
51.6924
52.228
52.9936
53.9795
55.1599
56.491
57.9203
59.4038
60.9074
62.4002
63.8645
65.2962
66.7019
68.0842
69.4385
70.76
72.0456
73.2929
74.5
75.6653
76.7878
77.8664
5561.92
1280.3
421.105
190.105
114.133
81.1344
63.5749
52.8993
45.8136
40.8193
37.1453
34.356
32.1868
30.4676
29.0836
27.9547
27.023
26.2454
25.5896
25.0305
24.5487
24.1291
23.7598
23.4317
23.1377
22.8728
22.6334
22.4175
22.2244
22.0549
21.9115
21.7985
21.7225
21.6929
21.7232
21.8318
22.0439
22.3936
22.9376
23.7147
24.7665
26.0715
27.55
29.2509
31.2428
33.6056
36.3736
39.5588
43.1436
47.0807
51.2657
55.5899
59.9573
64.1075
67.8316
71.0364
73.7475
75.9844
77.7733
79.1446
80.1289
80.7576
81.0627
81.0704
80.8071
80.2959
79.5581
78.6176
77.4969
76.2156
74.7935
73.2499
71.6039
69.8774
68.1308
66.427
64.7865
63.2205
61.7379
60.3461
59.0506
57.856
56.7651
55.7791
54.8987
54.123
53.4495
52.8752
52.3977
52.0169
51.7373
51.5708
51.5381
51.6689
51.9989
52.5609
53.3634
54.3923
55.616
56.9895
58.4667
60.0026
61.561
63.1144
64.6434
66.137
67.593
69.0153
70.4068
71.7683
73.099
74.3976
75.6619
76.89
78.0795
79.2285
5561.85
1272.8
418.857
188.741
113.462
80.7794
63.3821
52.8094
45.8004
40.8694
37.2503
34.5097
32.3841
30.7036
29.3536
28.2538
27.3461
26.5875
25.9456
25.3954
24.9176
24.4972
24.1223
23.7841
23.4756
23.1919
22.9291
22.6851
22.4583
22.2486
22.0565
21.8838
21.7334
21.6098
21.519
21.4697
21.4734
21.5457
21.7078
21.9862
22.4221
23.0718
23.9522
25.0827
26.3917
27.8706
29.5535
31.5171
33.8037
36.4242
39.3703
42.6101
46.0878
49.7073
53.3981
57.0438
60.4658
63.5105
66.1311
68.3441
70.1614
71.6012
72.6881
73.4464
73.9006
74.0761
73.9971
73.6846
73.1595
72.4398
71.5435
70.4895
69.2947
67.9784
66.5923
65.1939
63.8087
62.4535
61.142
59.8861
58.6961
57.5806
56.5467
55.599
54.7413
53.9775
53.3089
52.735
52.2566
51.8772
51.6051
51.4558
51.4533
51.6288
52.0154
52.639
53.5032
54.5924
55.8763
57.3076
58.8382
60.4253
62.035
63.642
65.2285
66.7833
68.3011
69.781
71.2259
72.6399
74.0245
75.3802
76.7062
78.0007
79.2613
80.4852
5561.77
1265.34
415.835
187.39
112.819
80.4461
63.211
52.7448
45.8175
40.9545
37.3937
34.7053
32.6263
30.9869
29.6723
28.6023
27.7189
26.9789
26.3501
25.8077
25.3326
24.91
24.5284
24.1793
23.8563
23.5545
23.2706
23.0023
22.7484
22.5082
22.2818
22.0698
21.8738
21.6958
21.539
21.4075
21.3071
21.2454
21.2324
21.2813
21.4097
21.6405
22.0021
22.5459
23.2941
24.2645
25.4367
26.7385
28.1941
29.8393
31.7321
33.8838
36.2918
38.9357
41.7794
44.7644
47.8132
50.8804
53.8661
56.6475
59.1149
61.236
63.0225
64.4811
65.6239
66.4691
67.0356
67.3426
67.4088
67.2548
66.8991
66.3589
65.6498
64.7897
63.8198
62.7868
61.7201
60.6409
59.5667
58.513
57.4934
56.5196
55.6022
54.7501
53.9692
53.2655
52.6452
52.112
51.6699
51.3269
51.0961
50.9983
51.0617
51.3192
51.8016
52.5228
53.4778
54.6478
56.0001
57.4899
59.0713
60.7051
62.3605
64.0147
65.6517
67.261
68.8369
70.3772
71.8825
73.3547
74.7982
76.2149
77.6054
78.9689
80.3035
81.6063
5561.69
1258.01
412.005
186.017
112.247
80.166
63.0821
52.7199
45.8759
41.0844
37.5872
34.9542
32.9233
31.3254
30.0463
29.0056
28.1454
27.4226
26.8047
26.2683
25.794
25.3672
24.9769
24.6152
24.2761
23.9555
23.6504
23.3589
23.08
22.8131
22.5582
22.3158
22.0866
21.8718
21.673
21.4926
21.3335
21.1997
21.0962
21.03
21.0095
21.0462
21.1545
21.3535
21.6648
22.1221
22.7735
23.6104
24.6405
25.8082
27.0911
28.494
30.0669
31.8396
33.8065
35.9565
38.2644
40.6968
43.2029
45.723
48.226
50.6402
52.8783
54.8588
56.5588
57.9856
59.1403
60.0323
60.6737
61.0787
61.2618
61.2379
61.0243
60.6393
60.1111
59.4785
58.7723
58.0141
57.2239
56.42
55.6187
54.8342
54.0797
53.3666
52.7044
52.1017
51.5666
51.1077
50.7337
50.4569
50.2969
50.28
50.4389
50.8071
51.4117
52.2556
53.3234
54.5923
56.0238
57.5737
59.2
60.8701
62.5602
64.251
65.9281
67.5826
69.2093
70.8053
72.3697
73.9033
75.4081
76.8879
78.3447
79.7789
81.1897
82.5745
5561.6
1251.2
407.938
184.544
111.624
79.8694
62.9597
52.7167
45.966
41.2524
37.8223
35.2475
33.267
31.7123
30.4694
29.4583
28.6212
27.9153
27.3085
26.7766
26.301
25.8678
25.4665
25.0898
24.7332
24.3927
24.0655
23.7505
23.4471
23.1549
22.874
22.6048
22.3479
22.1041
21.8743
21.66
21.4629
21.2849
21.1291
20.9989
20.8989
20.8351
20.815
20.8481
20.9462
21.125
21.4035
21.802
22.3613
23.0927
23.9889
25.039
26.1747
27.4078
28.7334
30.1984
31.8134
33.566
35.4424
37.419
39.4671
41.5469
43.6138
45.6482
47.5975
49.3967
50.9722
52.3261
53.4547
54.3592
55.0446
55.5189
55.7924
55.8776
55.791
55.5663
55.2336
54.8176
54.3394
53.815
53.2628
52.6992
52.1393
51.5965
51.083
50.61
50.1882
49.8295
49.5481
49.3621
49.2971
49.3853
49.6631
50.1639
50.9031
51.8757
53.0615
54.4301
55.9411
57.5532
59.2295
60.9408
62.6649
64.3858
66.0925
67.7785
69.4422
71.0837
72.701
74.2931
75.8606
77.4052
78.9299
80.4362
81.9242
83.3927
5561.52
1244.9
403.742
183.017
110.979
79.5751
62.857
52.7449
46.0953
41.4648
38.1051
35.5906
33.6617
32.1505
30.9436
29.9612
29.1458
28.4547
27.8562
27.3264
26.8476
26.4064
25.9933
25.6015
25.2263
24.8648
24.5146
24.1753
23.8474
23.5303
23.2242
22.9298
22.6477
22.3784
22.1227
21.8815
21.6558
21.4468
21.2563
21.086
20.9387
20.8174
20.7263
20.6705
20.6565
20.6922
20.7877
20.955
21.21
21.568
22.0494
22.6981
23.4821
24.397
25.4195
26.5018
27.658
28.8842
30.2188
31.6647
33.2064
34.8292
36.5117
38.231
39.9583
41.6639
43.3465
44.9421
46.3799
47.6434
48.7235
49.6163
50.3214
50.8417
51.1781
51.3471
51.3773
51.2982
51.133
50.8994
50.6104
50.2836
49.9354
49.5811
49.2346
48.9093
48.619
48.3791
48.2083
48.1313
48.1797
48.3911
48.8035
49.4476
50.3284
51.428
52.7259
54.1862
55.7688
57.4356
59.1544
60.8999
62.654
64.4041
66.1421
67.8636
69.5666
71.2499
72.9134
74.557
76.1808
77.7862
79.3757
80.9521
82.5164
84.0678
5561.43
1239.26
399.545
181.485
110.339
79.3009
62.7859
52.8125
46.269
41.7249
38.4375
35.9844
34.1074
32.6396
31.468
30.5132
29.7179
29.0398
28.4477
27.9181
27.4339
26.9825
26.5552
26.1458
25.7507
25.3673
24.9946
24.6322
24.2801
23.9384
23.6071
23.288
22.9818
22.6887
22.4091
22.1441
21.8943
21.6605
21.4435
21.2447
21.0653
20.9072
20.7727
20.6645
20.5862
20.5423
20.5383
20.5808
20.6782
20.8401
21.0787
21.4096
21.8419
22.3951
23.0945
23.8926
24.7851
25.7502
26.7616
27.8362
28.9658
30.1757
31.4646
32.8137
34.2137
35.6531
37.1198
38.5921
40.068
41.4914
42.7958
43.9667
44.9918
45.8616
46.5588
47.0809
47.4479
47.6842
47.8124
47.856
47.8277
47.7386
47.6059
47.4458
47.2736
47.1047
46.9553
46.8445
46.7961
46.8406
47.0156
47.3626
47.9209
48.709
49.723
50.9429
52.3412
53.8805
55.5227
57.2335
58.9854
60.7576
62.5357
64.31
66.0748
67.8272
69.5657
71.29
73.0003
74.6969
76.3801
78.0503
79.7072
81.35
82.9827
84.6102
5561.35
1234.38
395.49
180.003
109.732
79.0629
62.7558
52.9246
46.4896
42.0332
38.8189
36.4272
34.6019
33.1769
32.0397
31.1114
30.3349
29.6684
29.0811
28.5501
28.0589
27.5958
27.1527
26.7245
26.308
25.9017
25.505
25.1181
24.7413
24.3752
24.0206
23.6783
23.3487
23.0323
22.7293
22.442
22.1702
21.9141
21.6747
21.4526
21.2486
21.0637
20.8992
20.7566
20.6379
20.5456
20.4827
20.453
20.4611
20.5128
20.6148
20.7754
21.0031
21.3092
21.7055
22.1942
22.7897
23.4985
24.2748
25.1184
26.0246
26.9762
27.9821
29.0155
30.1036
31.2528
32.4519
33.6968
34.9859
36.309
37.6531
38.9354
40.1353
41.2328
42.1939
42.9959
43.6456
44.1587
44.5523
44.8452
45.0565
45.1914
45.2655
45.2946
45.2946
45.2821
45.2758
45.2982
45.3781
45.5514
45.8602
46.3484
47.0527
47.9819
49.1173
50.442
51.924
53.5262
55.2134
56.956
58.7308
60.5211
62.316
64.1083
65.8945
67.6727
69.4425
71.2043
72.9585
74.7057
76.4463
78.1803
79.9071
81.626
83.3362
85.0374
5561.26
1230.44
391.694
178.609
109.177
78.87
62.7706
53.0824
46.7564
42.3878
39.2463
36.9157
35.1413
33.7582
32.6546
31.7517
30.993
30.3371
29.7535
29.2201
28.7211
28.2453
27.7857
27.3378
26.8993
26.4693
26.048
25.6358
25.2337
24.8426
24.4634
24.097
23.7441
23.4053
23.0813
22.7726
22.4795
22.2022
21.9417
21.6989
21.4738
21.2668
21.079
20.911
20.7639
20.6389
20.5378
20.4627
20.4162
20.4015
20.4225
20.4839
20.5912
20.7509
20.97
21.255
21.6138
22.0505
22.5604
23.1494
23.8275
24.5618
25.3607
26.2278
27.1319
28.0789
29.0465
30.063
31.1415
32.2772
33.4744
34.7285
35.9659
37.1635
38.2781
39.2698
40.1301
40.8636
41.4788
41.988
42.4051
42.7397
43.0025
43.2076
43.3703
43.5078
43.6409
43.7957
44.0051
44.3096
44.7553
45.3875
46.2305
47.2825
48.5253
49.9367
51.4835
53.1311
54.8481
56.6094
58.3962
60.1955
61.9992
63.8027
65.6039
67.4023
69.1984
70.9931
72.7872
74.5816
76.3767
78.1723
79.9681
81.7629
83.5552
85.3436
5561.17
1227.51
388.236
177.326
108.683
78.7256
62.8306
53.284
47.066
42.7844
39.7149
37.4445
35.7202
34.3783
33.3073
32.4292
31.6877
31.0419
30.4618
29.9258
29.4187
28.9302
28.4539
27.9861
27.5253
27.0714
26.625
26.1872
25.7593
25.3425
24.938
24.5469
24.1699
23.8079
23.4615
23.1311
22.8173
22.5203
22.2404
21.9782
21.7335
21.5063
21.2983
21.1094
20.9398
20.7904
20.6619
20.5555
20.4725
20.4147
20.3843
20.3838
20.4166
20.4862
20.597
20.7533
20.9595
21.2189
21.5322
21.9036
22.3374
22.8311
23.3945
24.0596
24.7859
25.5711
26.4195
27.3088
28.2445
29.2121
30.2478
31.3677
32.5487
33.7452
34.915
36.0086
37.0038
37.8939
38.6776
39.3601
39.946
40.4508
40.8791
41.2417
41.5526
41.8292
42.0943
42.3764
42.7125
43.1466
43.7267
44.4964
45.469
46.6256
47.9554
49.4325
51.0247
52.7
54.4317
56.1988
57.9866
59.7854
61.5896
63.3968
65.2062
67.0185
68.8349
70.6571
72.4862
74.3234
76.1692
78.0237
79.8863
81.7558
83.6304
85.508
5561.08
1225.59
385.123
176.155
108.248
78.6278
62.9322
53.5248
47.4132
43.2173
40.2186
38.0073
36.3323
35.0306
33.9918
33.1382
32.4141
31.7787
31.2026
30.6647
30.1502
29.6495
29.157
28.6697
28.187
27.7092
27.2376
26.774
26.3198
25.8768
25.4464
25.0298
24.6279
24.2418
23.872
23.5192
23.1837
22.866
22.5663
22.2847
22.0214
21.7765
21.5502
21.3425
21.1534
20.9834
20.8332
20.703
20.5932
20.5049
20.4392
20.3973
20.381
20.3924
20.4336
20.5072
20.6156
20.7607
20.9445
21.1696
21.4391
21.7558
22.1263
22.5612
23.059
23.6284
24.3031
25.0486
25.8634
26.7534
27.7024
28.7182
29.8065
30.9488
32.1101
33.2383
34.3034
35.2904
36.1898
36.9959
37.7187
38.3644
38.9332
39.4326
39.8747
40.2772
40.6639
41.0658
41.5231
42.0828
42.7947
43.6895
44.7684
46.0126
47.4091
48.9314
50.5496
52.236
53.968
55.7286
57.5068
59.2957
61.0921
62.895
64.7053
66.5245
68.3547
70.1981
72.0564
73.9311
75.823
77.7324
79.6588
81.6008
83.5567
85.5238
5560.99
1224.86
382.418
175.112
107.878
78.5751
63.0714
53.7993
47.7918
43.6798
40.7505
38.5971
36.9703
35.7084
34.7015
33.8728
33.1667
32.5429
31.9723
31.434
30.9137
30.4024
29.895
29.3893
28.8853
28.3841
27.8876
27.398
26.9174
26.4476
25.9905
25.5475
25.1199
24.7085
24.3143
23.9379
23.5798
23.2404
22.9199
22.6185
22.3361
22.0729
21.8286
21.6033
21.3968
21.2091
21.0402
20.8901
20.7586
20.6468
20.5547
20.4829
20.432
20.4032
20.3974
20.4158
20.4596
20.5302
20.6286
20.7568
20.9168
21.1113
21.3448
21.6231
21.9505
22.3364
22.7958
23.3304
23.9532
24.7013
25.5431
26.4831
27.5227
28.6323
29.774
30.9048
31.9961
33.0311
34.0025
34.9038
35.7372
36.498
37.1839
37.7994
38.3551
38.8688
39.3651
39.8777
40.4487
41.1269
41.9613
42.9683
44.1316
45.4425
46.8845
48.4323
50.0591
51.7412
53.4603
55.2031
56.9617
58.7317
60.5118
62.3026
64.106
65.9247
67.7615
69.6191
71.4999
73.4059
75.3383
77.2976
79.2834
81.2949
83.3299
85.3858
87.4591
5560.9
1225.36
380.192
174.218
107.577
78.5657
63.2433
54.1011
48.1945
44.1645
41.303
39.2063
37.6268
36.404
35.4293
34.6262
33.9396
33.3296
32.767
32.2309
31.7075
31.188
30.6678
30.1454
29.6215
29.0978
28.5769
28.0615
27.5541
27.0572
26.5727
26.1024
25.6477
25.21
24.7901
24.3889
24.0069
23.6446
23.3022
22.9799
22.6776
22.3953
22.1328
21.8897
21.666
21.4612
21.2751
21.1074
20.9578
20.8265
20.7132
20.6179
20.5407
20.4822
20.4425
20.4221
20.4212
20.4406
20.4809
20.5431
20.6285
20.7392
20.8781
21.0491
21.2568
21.5085
21.8141
22.1827
22.629
23.1754
23.8305
24.6182
25.556
26.6146
27.7341
28.8683
29.9857
31.0663
32.0989
33.0799
34.0011
34.8546
35.6357
36.3474
36.9999
37.61
38.2039
38.8169
39.493
40.2819
41.2248
42.3241
43.5531
44.9102
46.3781
47.9334
49.5529
51.2172
52.9116
54.6264
56.3562
58.0988
59.8545
61.6253
63.4141
65.2246
67.0602
68.9245
70.8204
72.7504
74.7164
76.7193
78.7592
80.8353
82.9458
85.088
87.2582
5560.81
1227.21
378.523
173.495
107.348
78.5955
63.4405
54.422
48.6131
44.6631
41.8682
39.8269
38.2937
37.1098
36.1675
35.3915
34.7269
34.1336
33.5825
33.0525
32.5295
32.0052
31.4752
30.9387
30.3967
29.852
29.3076
28.7668
28.2327
27.7081
27.1954
26.6968
26.214
25.7485
25.3015
24.8739
24.4666
24.08
23.7144
23.3699
23.0466
22.7443
22.4627
22.2013
21.9599
21.738
21.535
21.3506
21.1841
21.0353
20.9037
20.7889
20.6906
20.6088
20.5431
20.4933
20.4596
20.442
20.4406
20.456
20.4888
20.5403
20.6127
20.7087
20.8323
20.9889
21.1865
21.4341
21.7452
22.138
22.6306
23.2488
24.0183
24.9535
26.0097
27.1276
28.2611
29.3831
30.4707
31.5133
32.5014
33.427
34.284
35.0739
35.8064
36.4989
37.1783
37.8814
38.6534
39.545
40.581
41.7475
43.0245
44.4091
45.885
47.4319
49.0306
50.6653
52.3249
54.0027
55.6953
57.4027
59.1264
60.8696
62.6363
64.4307
66.2572
68.12
70.0229
71.9689
73.9607
75.9997
78.0868
80.2215
82.4024
84.6271
86.892
5560.72
1230.53
377.475
172.955
107.189
78.6563
63.6528
54.751
49.0372
45.1663
42.4373
40.4507
38.9631
37.8177
36.9087
36.1615
35.5217
34.9492
34.414
33.8948
33.3771
32.8524
32.3166
31.7693
31.2121
30.6484
30.0819
29.5165
28.9559
28.4034
27.8618
27.3338
26.8215
26.3267
25.8509
25.3954
24.961
24.5484
24.158
23.79
23.4443
23.1207
22.8189
22.5384
22.2787
22.0391
21.8191
21.6179
21.4349
21.2695
21.1209
20.9886
20.872
20.7704
20.6834
20.6104
20.5511
20.5052
20.4724
20.4529
20.4469
20.4553
20.4794
20.5215
20.5845
20.6732
20.7939
20.9548
21.1676
21.448
21.8151
22.2944
22.9165
23.7134
24.6713
25.7357
26.8534
27.9862
29.1034
30.186
31.2217
32.2011
33.1163
33.9689
34.7667
35.5285
36.2817
37.0638
37.9205
38.9027
40.0161
41.2298
42.5365
43.9313
45.3997
46.9248
48.4911
50.0864
51.7027
53.3357
54.9843
56.6495
58.3344
60.043
61.7801
63.5508
65.3602
67.2133
69.1144
71.0677
73.0764
75.143
77.2688
79.4543
81.6988
84.0002
86.3552
5560.63
1235.27
377.041
172.589
107.087
78.7324
63.8639
55.0726
49.4529
45.6622
43.0001
41.0683
39.6257
38.519
37.6445
36.9285