/*--------------------------------*- C++ -*----------------------------------*\
  =========                 |
  \\      /  F ield         | OpenFOAM: The Open Source CFD Toolbox
   \\    /   O peration     | Website:  https://openfoam.org
    \\  /    A nd           | Version:  10
     \\/     M anipulation  |
\*---------------------------------------------------------------------------*/
FoamFile
{
    format      ascii;
    class       volScalarField;
    location    "38000";
    object      p;
}
// * * * * * * * * * * * * * * * * * * * * * * * * * * * * * * * * * * * * * //

dimensions      [0 2 -2 0 0 0 0];

internalField   nonuniform List<scalar> 
17969
(
-5.88154
-5.87197
-5.86414
-5.85599
-5.84741
-5.83845
-5.8291
-5.81934
-5.80911
-5.7983
-5.78683
-5.77468
-5.76177
-5.7479
-5.73287
-5.71656
-5.69891
-5.67993
-5.65964
-5.63804
-5.61533
-5.5918
-5.56738
-5.54194
-5.51552
-5.4882
-5.45996
-5.43081
-5.40071
-5.36965
-5.33759
-5.30451
-5.27038
-5.23516
-5.19883
-5.16136
-5.1227
-5.08283
-5.04171
-4.9993
-4.95557
-4.91047
-4.86396
-4.81601
-4.76656
-4.71557
-4.66299
-4.60878
-4.55288
-4.49524
-4.4358
-4.37451
-4.3113
-4.24612
-4.1789
-4.10958
-4.03809
-3.96435
-3.8883
-3.80986
-3.72895
-3.64549
-3.55941
-3.47061
-3.37901
-3.28452
-3.18705
-3.08651
-2.98279
-2.87581
-2.76547
-2.65165
-2.53427
-2.41321
-2.29015
-2.16857
-2.05019
-1.93489
-1.82255
-1.71316
-1.60671
-1.50316
-1.40242
-1.30445
-1.20917
-1.11652
-1.02644
-0.938877
-0.853771
-0.771075
-0.690704
-0.612549
-0.536551
-0.462663
-0.390822
-0.320975
-0.253074
-0.187069
-0.122913
-0.0605619
-5.88082
-5.87126
-5.86338
-5.8552
-5.84666
-5.83778
-5.82856
-5.81898
-5.809
-5.79856
-5.78762
-5.77608
-5.76386
-5.75093
-5.73725
-5.72267
-5.70698
-5.69004
-5.67178
-5.65214
-5.63114
-5.60881
-5.58516
-5.56039
-5.53472
-5.50808
-5.48034
-5.45155
-5.42176
-5.39098
-5.3592
-5.32638
-5.29252
-5.25757
-5.2215
-5.18429
-5.1459
-5.10629
-5.06542
-5.02327
-4.9798
-4.93495
-4.8887
-4.84099
-4.79179
-4.74104
-4.6887
-4.63472
-4.57905
-4.52162
-4.4624
-4.40131
-4.3383
-4.2733
-4.20626
-4.1371
-4.06575
-3.99215
-3.91621
-3.83786
-3.75703
-3.67363
-3.58757
-3.49878
-3.40715
-3.31261
-3.21505
-3.11437
-3.01049
-2.9033
-2.7927
-2.67859
-2.56085
-2.43938
-2.31587
-2.1938
-2.0749
-1.95906
-1.84614
-1.73617
-1.62915
-1.525
-1.42367
-1.3251
-1.22922
-1.13598
-1.0453
-0.957147
-0.871448
-0.788159
-0.70723
-0.628588
-0.552113
-0.477717
-0.405364
-0.335015
-0.266619
-0.200126
-0.13549
-0.0726643
-5.88031
-5.87074
-5.86281
-5.85459
-5.84605
-5.8372
-5.82803
-5.81852
-5.80865
-5.79839
-5.78771
-5.77655
-5.76485
-5.75256
-5.73956
-5.72581
-5.71131
-5.69595
-5.67952
-5.66188
-5.64292
-5.62258
-5.60083
-5.57768
-5.55315
-5.52728
-5.50027
-5.47228
-5.4432
-5.41296
-5.38159
-5.34913
-5.31558
-5.28093
-5.24516
-5.20824
-5.17014
-5.13081
-5.09023
-5.04837
-5.00517
-4.9606
-4.91462
-4.86719
-4.81825
-4.76777
-4.7157
-4.66197
-4.60655
-4.54938
-4.49039
-4.42953
-4.36675
-4.30197
-4.23512
-4.16615
-4.09498
-4.02154
-3.94574
-3.86752
-3.78679
-3.70347
-3.61747
-3.5287
-3.43707
-3.34248
-3.24485
-3.14406
-3.04003
-2.93263
-2.82178
-2.70736
-2.58926
-2.46737
-2.34339
-2.22081
-2.10137
-1.98495
-1.87144
-1.76086
-1.6532
-1.54842
-1.44645
-1.34723
-1.25071
-1.15681
-1.0655
-0.976695
-0.890356
-0.806426
-0.724858
-0.645606
-0.568607
-0.493725
-0.420842
-0.349934
-0.28099
-0.213962
-0.148799
-0.085457
-5.87991
-5.87032
-5.86234
-5.85408
-5.84551
-5.83664
-5.82748
-5.81799
-5.80817
-5.79798
-5.78741
-5.77643
-5.765
-5.75306
-5.74058
-5.72747
-5.71367
-5.69908
-5.68369
-5.66745
-5.65021
-5.63178
-5.61205
-5.59093
-5.56838
-5.54436
-5.51889
-5.49199
-5.46372
-5.43427
-5.40373
-5.37201
-5.33903
-5.30484
-5.26946
-5.2329
-5.19513
-5.15614
-5.11588
-5.07432
-5.03144
-4.98717
-4.9415
-4.89437
-4.84573
-4.79555
-4.74376
-4.69033
-4.63519
-4.57829
-4.51958
-4.45899
-4.39645
-4.33192
-4.26531
-4.19656
-4.1256
-4.05234
-3.97673
-3.89866
-3.81806
-3.73485
-3.64893
-3.56021
-3.46861
-3.37401
-3.27632
-3.17544
-3.07126
-2.96368
-2.85258
-2.73786
-2.6194
-2.49709
-2.37262
-2.24951
-2.1295
-2.01249
-1.89837
-1.78714
-1.67883
-1.57338
-1.47072
-1.37081
-1.27359
-1.179
-1.08699
-0.997495
-0.910468
-0.825855
-0.743604
-0.663671
-0.586014
-0.510568
-0.437186
-0.365727
-0.296181
-0.228562
-0.162826
-0.0989247
-0.0368141
0.0235456
0.0821947
0.139173
-5.87957
-5.86995
-5.86194
-5.85364
-5.84503
-5.83614
-5.82695
-5.81746
-5.80763
-5.79747
-5.78694
-5.77603
-5.76471
-5.75295
-5.74072
-5.72796
-5.71463
-5.70066
-5.68599
-5.6705
-5.65416
-5.63696
-5.6188
-5.59949
-5.57889
-5.5569
-5.53346
-5.5085
-5.48204
-5.45406
-5.42459
-5.3937
-5.3616
-5.32829
-5.29368
-5.25773
-5.22047
-5.18192
-5.14206
-5.10089
-5.05837
-5.01447
-4.96913
-4.92232
-4.87404
-4.82419
-4.77273
-4.71962
-4.6648
-4.60821
-4.5498
-4.48951
-4.42727
-4.36301
-4.29667
-4.22818
-4.15746
-4.08443
-4.00902
-3.93115
-3.85072
-3.76765
-3.68184
-3.59321
-3.50166
-3.40707
-3.30936
-3.20841
-3.10412
-2.99636
-2.88504
-2.77003
-2.65121
-2.52848
-2.40351
-2.27986
-2.15927
-2.04165
-1.92689
-1.815
-1.706
-1.59984
-1.49646
-1.39582
-1.29786
-1.20252
-1.10976
-1.01953
-0.931759
-0.846412
-0.763434
-0.682779
-0.604403
-0.528265
-0.45428
-0.382286
-0.31215
-0.243885
-0.17752
-0.113011
-0.0503102
0.0106239
0.0698312
0.127351
-5.8793
-5.86964
-5.86159
-5.85325
-5.84461
-5.83568
-5.82647
-5.81695
-5.80711
-5.79693
-5.7864
-5.7755
-5.76422
-5.75253
-5.74041
-5.72782
-5.71473
-5.70109
-5.68685
-5.67195
-5.65633
-5.6399
-5.62257
-5.60431
-5.5851
-5.56479
-5.54321
-5.52024
-5.4958
-5.46983
-5.44229
-5.41317
-5.38247
-5.35021
-5.31649
-5.28149
-5.24517
-5.20741
-5.16822
-5.1276
-5.08557
-5.04212
-4.99723
-4.95086
-4.90295
-4.85348
-4.8024
-4.74965
-4.69519
-4.63895
-4.58089
-4.52093
-4.45902
-4.39508
-4.32905
-4.26085
-4.19041
-4.11765
-4.04249
-3.96484
-3.88462
-3.80173
-3.71608
-3.62757
-3.5361
-3.44157
-3.34386
-3.24288
-3.13849
-3.03059
-2.91906
-2.80378
-2.68462
-2.56146
-2.436
-2.31179
-2.19061
-2.07237
-1.95697
-1.8444
-1.73467
-1.62777
-1.52363
-1.42222
-1.32348
-1.22735
-1.1338
-1.04277
-0.95421
-0.868073
-0.784314
-0.702888
-0.623751
-0.546863
-0.472177
-0.399552
-0.328801
-0.259877
-0.192836
-0.127674
-0.0643431
-0.00279775
0.0570026
0.115098
-5.87907
-5.86939
-5.8613
-5.85293
-5.84425
-5.8353
-5.82605
-5.8165
-5.80664
-5.79644
-5.78589
-5.77498
-5.7637
-5.75202
-5.73993
-5.7274
-5.71441
-5.70093
-5.68691
-5.67232
-5.65711
-5.64121
-5.62456
-5.60709
-5.5887
-5.56933
-5.54896
-5.5275
-5.50481
-5.48074
-5.4552
-5.4281
-5.39939
-5.36904
-5.33702
-5.30336
-5.26809
-5.23131
-5.19314
-5.15351
-5.11232
-5.06958
-5.0253
-4.97947
-4.93209
-4.8831
-4.83248
-4.78017
-4.72614
-4.6703
-4.61262
-4.55307
-4.49153
-4.42795
-4.36227
-4.29441
-4.22429
-4.15184
-4.07697
-3.99959
-3.91961
-3.83694
-3.75149
-3.66315
-3.57181
-3.47737
-3.37971
-3.27872
-3.17428
-3.06627
-2.95456
-2.83903
-2.71955
-2.59598
-2.47003
-2.34526
-2.22347
-2.1046
-1.98854
-1.87528
-1.76481
-1.65714
-1.55221
-1.44999
-1.35043
-1.25348
-1.15909
-1.06721
-0.977804
-0.890822
-0.806224
-0.72397
-0.64402
-0.566334
-0.490873
-0.417526
-0.346087
-0.276458
-0.208704
-0.142853
-0.0788569
-0.016666
0.0437609
0.102463
0.159481
-5.87891
-5.8692
-5.86108
-5.85268
-5.84398
-5.83499
-5.82572
-5.81615
-5.80626
-5.79604
-5.78547
-5.77455
-5.76325
-5.75156
-5.73947
-5.72695
-5.71399
-5.70056
-5.68664
-5.67219
-5.65718
-5.64156
-5.6253
-5.60832
-5.59056
-5.57196
-5.55243
-5.53187
-5.51023
-5.4875
-5.46356
-5.43826
-5.41147
-5.38311
-5.35311
-5.32141
-5.28799
-5.25284
-5.21595
-5.1774
-5.1373
-5.09565
-5.05238
-5.00744
-4.96081
-4.91251
-4.86251
-4.81078
-4.75728
-4.70196
-4.64478
-4.58567
-4.52457
-4.46141
-4.39614
-4.32867
-4.25892
-4.18682
-4.11229
-4.03523
-3.95555
-3.87315
-3.78794
-3.6998
-3.60864
-3.51434
-3.41677
-3.31583
-3.21138
-3.1033
-2.99145
-2.8757
-2.75592
-2.63196
-2.50554
-2.38021
-2.2578
-2.13827
-2.02155
-1.90758
-1.79636
-1.6879
-1.58216
-1.4791
-1.37869
-1.28086
-1.18559
-1.09282
-1.00252
-0.914637
-0.82914
-0.745992
-0.665158
-0.586607
-0.51031
-0.436157
-0.363937
-0.293553
-0.22507
-0.158509
-0.0938202
-0.0309552
0.030127
0.0894658
0.147101
0.203071
0.257415
-5.87879
-5.86906
-5.86092
-5.8525
-5.84378
-5.83478
-5.82549
-5.81589
-5.80598
-5.79575
-5.78516
-5.77423
-5.76292
-5.75122
-5.73912
-5.7266
-5.71365
-5.70023
-5.68634
-5.67194
-5.65701
-5.64153
-5.62544
-5.60872
-5.59132
-5.57317
-5.55421
-5.53438
-5.51359
-5.49177
-5.4688
-5.44465
-5.41929
-5.39261
-5.36443
-5.33466
-5.30322
-5.27005
-5.2351
-5.19833
-5.15975
-5.11936
-5.07724
-5.03349
-4.98803
-4.94077
-4.89169
-4.84079
-4.78805
-4.73342
-4.67687
-4.61834
-4.5578
-4.49516
-4.43038
-4.36339
-4.29405
-4.22234
-4.14825
-4.07156
-3.99221
-3.91014
-3.82525
-3.73739
-3.64645
-3.55233
-3.45491
-3.35406
-3.24965
-3.14155
-3.02961
-2.91369
-2.79364
-2.66933
-2.54245
-2.41658
-2.29355
-2.17334
-2.05593
-1.94124
-1.82926
-1.71999
-1.61342
-1.5095
-1.4082
-1.30947
-1.21328
-1.11958
-1.02833
-0.939498
-0.853051
-0.768949
-0.687158
-0.607662
-0.530444
-0.455397
-0.382325
-0.311156
-0.241929
-0.174635
-0.109226
-0.0456576
0.0161103
0.0761161
0.134398
0.190996
0.245947
0.299291
-5.87873
-5.86897
-5.86081
-5.85238
-5.84365
-5.83464
-5.82534
-5.81574
-5.80582
-5.79557
-5.78498
-5.77404
-5.76272
-5.75102
-5.73892
-5.7264
-5.71345
-5.70004
-5.68616
-5.67178
-5.65689
-5.64146
-5.62545
-5.60885
-5.59161
-5.5737
-5.55506
-5.53564
-5.51538
-5.49422
-5.47206
-5.44884
-5.42446
-5.39883
-5.3719
-5.34362
-5.31389
-5.28255
-5.24952
-5.21471
-5.17807
-5.13955
-5.09912
-5.05678
-5.01258
-4.96661
-4.91882
-4.86912
-4.81746
-4.76381
-4.70815
-4.65044
-4.59063
-4.52867
-4.46452
-4.39809
-4.32936
-4.25822
-4.18458
-4.10839
-4.02938
-3.94763
-3.86318
-3.77566
-3.68499
-3.59113
-3.49395
-3.39327
-3.28896
-3.1809
-3.06892
-2.95288
-2.83262
-2.708
-2.5807
-2.45431
-2.33068
-2.20979
-2.09164
-1.9762
-1.86344
-1.75333
-1.64588
-1.54107
-1.43886
-1.33921
-1.24209
-1.14744
-1.05524
-0.965441
-0.878015
-0.792903
-0.710075
-0.629521
-0.551232
-0.475187
-0.401305
-0.329421
-0.259429
-0.191339
-0.125154
-0.0608341
0.00166398
0.0623788
0.121348
0.17861
0.234204
0.288167
0.340539
0.391359
-5.8787
-5.86892
-5.86076
-5.85232
-5.84358
-5.83457
-5.82527
-5.81567
-5.80575
-5.7955
-5.78491
-5.77396
-5.76265
-5.75095
-5.73886
-5.72635
-5.7134
-5.70001
-5.68614
-5.67179
-5.65692
-5.64152
-5.62556
-5.60902
-5.59186
-5.57406
-5.55558
-5.53637
-5.51641
-5.49562
-5.47395
-5.45133
-5.42769
-5.40294
-5.377
-5.34979
-5.32121
-5.29118
-5.25967
-5.22657
-5.19176
-5.15513
-5.11663
-5.07618
-5.03374
-4.98928
-4.94287
-4.89457
-4.84431
-4.79198
-4.73753
-4.68092
-4.62214
-4.56112
-4.49783
-4.4322
-4.36418
-4.2937
-4.22067
-4.14501
-4.06669
-3.98556
-3.9015
-3.81444
-3.7241
-3.63048
-3.53363
-3.43319
-3.32907
-3.22113
-3.10919
-2.99309
-2.8727
-2.74783
-2.62017
-2.49331
-2.36911
-2.24757
-2.12869
-2.01246
-1.89886
-1.78792
-1.6796
-1.57386
-1.47069
-1.37009
-1.27204
-1.17645
-1.08323
-0.992394
-0.903917
-0.817762
-0.733899
-0.652305
-0.572962
-0.495857
-0.420978
-0.348257
-0.277518
-0.208628
-0.141607
-0.0764778
-0.0132019
0.0482647
0.107961
0.165924
0.222194
0.276808
0.329805
0.381226
0.431107
0.47949
0.526412
0.571912
-5.87871
-5.8689
-5.86075
-5.85231
-5.84357
-5.83456
-5.82527
-5.81567
-5.80575
-5.79551
-5.78493
-5.774
-5.76269
-5.75101
-5.73892
-5.72642
-5.7135
-5.70012
-5.68628
-5.67195
-5.65711
-5.64175
-5.62583
-5.60933
-5.59223
-5.5745
-5.5561
-5.53702
-5.5172
-5.49661
-5.47521
-5.45294
-5.42974
-5.40555
-5.38028
-5.35387
-5.32623
-5.29727
-5.26691
-5.23505
-5.20159
-5.16649
-5.12967
-5.09102
-5.05043
-5.00784
-4.96318
-4.91646
-4.86771
-4.81688
-4.76389
-4.70867
-4.65118
-4.59139
-4.52924
-4.46467
-4.39764
-4.32807
-4.25589
-4.18103
-4.1034
-4.0229
-3.93939
-3.85281
-3.76316
-3.6702
-3.57371
-3.47355
-3.36971
-3.26204
-3.15023
-3.03411
-2.91362
-2.7886
-2.66066
-2.53341
-2.4087
-2.28657
-2.16701
-2.05002
-1.93562
-1.82379
-1.71454
-1.60786
-1.50374
-1.40218
-1.30313
-1.20649
-1.11224
-1.02037
-0.930837
-0.843609
-0.758664
-0.675983
-0.595549
-0.517347
-0.441369
-0.367605
-0.295984
-0.226327
-0.158495
-0.0925167
-0.0284191
0.033836
0.0942926
0.15299
0.209966
0.265259
0.318909
0.370955
0.421437
0.470394
0.517864
0.563888
-5.87875
-5.86891
-5.86077
-5.85233
-5.84361
-5.8346
-5.82532
-5.81573
-5.80583
-5.7956
-5.78503
-5.77411
-5.76282
-5.75115
-5.73909
-5.72661
-5.71371
-5.70035
-5.68654
-5.67224
-5.65744
-5.64211
-5.62624
-5.60979
-5.59275
-5.57508
-5.55676
-5.53776
-5.51804
-5.49757
-5.47632
-5.45425
-5.4313
-5.40743
-5.38257
-5.35667
-5.32965
-5.30142
-5.27191
-5.24104
-5.20871
-5.17482
-5.1393
-5.10206
-5.063
-5.02204
-4.9791
-4.93412
-4.88704
-4.83782
-4.7864
-4.73272
-4.67674
-4.6184
-4.55763
-4.49439
-4.42861
-4.36022
-4.28916
-4.21533
-4.13866
-4.05907
-3.97641
-3.89058
-3.80155
-3.70915
-3.61318
-3.51351
-3.4101
-3.30284
-3.19146
-3.07557
-2.9551
-2.83001
-2.70187
-2.57429
-2.44916
-2.3265
-2.20632
-2.08862
-1.97344
-1.86077
-1.75062
-1.64298
-1.53785
-1.43523
-1.3351
-1.23743
-1.14216
-1.04921
-0.958582
-0.87025
-0.784191
-0.700391
-0.618836
-0.539514
-0.462413
-0.387525
-0.314841
-0.244285
-0.175676
-0.108882
-0.0439325
0.0191466
0.0803931
0.139851
0.19756
0.253557
0.307883
0.360577
0.411678
0.461227
0.509264
0.555827
-5.8788
-5.86894
-5.86081
-5.85239
-5.84367
-5.83468
-5.8254
-5.81583
-5.80594
-5.79573
-5.78518
-5.77428
-5.76301
-5.75136
-5.73932
-5.72687
-5.714
-5.70068
-5.68689
-5.67263
-5.65787
-5.64258
-5.62676
-5.61036
-5.59338
-5.57577
-5.55753
-5.5386
-5.51898
-5.49862
-5.47748
-5.45554
-5.43275
-5.40907
-5.38446
-5.35886
-5.33221
-5.30445
-5.27552
-5.24532
-5.21377
-5.18079
-5.14629
-5.11018
-5.07236
-5.03274
-4.99123
-4.94774
-4.90221
-4.85457
-4.80474
-4.75266
-4.69826
-4.64148
-4.58225
-4.5205
-4.45615
-4.38915
-4.31941
-4.24685
-4.17138
-4.09291
-4.01134
-3.92654
-3.83843
-3.74688
-3.65173
-3.55281
-3.44998
-3.34307
-3.23196
-3.11644
-2.99631
-2.87142
-2.74327
-2.61547
-2.49004
-2.36695
-2.24622
-2.12789
-2.01196
-1.89847
-1.78743
-1.67885
-1.57272
-1.46905
-1.36783
-1.26903
-1.17265
-1.07864
-0.986946
-0.897508
-0.810319
-0.725378
-0.642683
-0.562225
-0.483991
-0.40797
-0.334155
-0.262529
-0.193018
-0.125443
-0.0596773
0.00425062
0.0663171
0.12656
0.185023
0.241745
0.296766
0.350126
0.401864
0.452021
0.500638
0.547754
-5.87887
-5.86898
-5.86087
-5.85246
-5.84375
-5.83478
-5.82552
-5.81596
-5.80609
-5.79589
-5.78536
-5.77448
-5.76324
-5.75162
-5.7396
-5.72718
-5.71434
-5.70105
-5.68731
-5.67308
-5.65836
-5.64313
-5.62735
-5.61101
-5.59408
-5.57655
-5.55837
-5.53953
-5.51999
-5.49972
-5.4787
-5.45687
-5.43422
-5.41069
-5.38624
-5.36084
-5.33444
-5.30697
-5.27838
-5.24862
-5.2176
-5.18524
-5.15147
-5.11619
-5.07931
-5.04073
-5.00037
-4.95813
-4.91393
-4.86768
-4.81929
-4.7687
-4.71581
-4.66055
-4.60285
-4.54261
-4.47978
-4.41425
-4.34596
-4.2748
-4.20069
-4.12353
-4.04322
-3.95963
-3.87265
-3.78215
-3.68799
-3.59
-3.48804
-3.38191
-3.27146
-3.15648
-3.03675
-2.91206
-2.78405
-2.6563
-2.53071
-2.40732
-2.28617
-2.16729
-2.05071
-1.93647
-1.82458
-1.71508
-1.60797
-1.50327
-1.40097
-1.30107
-1.20355
-1.1084
-1.01561
-0.92511
-0.83682
-0.750732
-0.666883
-0.585281
-0.505916
-0.428772
-0.353837
-0.281096
-0.210526
-0.142054
-0.075513
-0.0107788
0.0521279
0.113181
0.172418
0.229882
0.285614
0.339654
0.392042
0.44282
0.492029
0.539709
0.585902
-5.87894
-5.86903
-5.86094
-5.85254
-5.84385
-5.83489
-5.82564
-5.8161
-5.80625
-5.79607
-5.78556
-5.7747
-5.76348
-5.75189
-5.7399
-5.72751
-5.7147
-5.70145
-5.68774
-5.67356
-5.65889
-5.6437
-5.62798
-5.61169
-5.59483
-5.57736
-5.55926
-5.54049
-5.52104
-5.50087
-5.47994
-5.45823
-5.43569
-5.4123
-5.388
-5.36277
-5.33654
-5.30928
-5.28094
-5.25146
-5.22077
-5.18883
-5.15554
-5.12084
-5.08464
-5.04684
-5.00735
-4.96609
-4.92294
-4.87784
-4.83067
-4.78136
-4.72981
-4.67593
-4.61964
-4.56085
-4.49947
-4.4354
-4.36856
-4.29884
-4.22616
-4.15039
-4.07143
-3.98916
-3.90345
-3.81417
-3.72117
-3.62428
-3.52335
-3.41818
-3.30859
-3.19436
-3.07528
-2.95111
-2.82346
-2.69591
-2.57035
-2.44684
-2.32542
-2.20613
-2.08903
-1.97414
-1.86151
-1.75117
-1.64314
-1.53745
-1.43411
-1.33313
-1.23451
-1.13824
-1.04431
-0.952694
-0.863338
-0.77616
-0.691174
-0.608435
-0.527951
-0.449705
-0.37368
-0.299856
-0.228211
-0.158712
-0.0912851
-0.0257893
0.0379028
0.0997773
0.159801
0.218013
0.274461
0.329185
0.382228
0.433632
0.483438
0.531688
0.578423
-5.879
-5.86907
-5.86101
-5.85263
-5.84394
-5.835
-5.82577
-5.81624
-5.8064
-5.79625
-5.78576
-5.77492
-5.76372
-5.75216
-5.7402
-5.72784
-5.71506
-5.70185
-5.68818
-5.67404
-5.65941
-5.64427
-5.6286
-5.61238
-5.59558
-5.57817
-5.56014
-5.54145
-5.52208
-5.502
-5.48117
-5.45957
-5.43715
-5.41388
-5.38972
-5.36463
-5.33857
-5.31149
-5.28334
-5.25407
-5.22364
-5.19197
-5.15902
-5.1247
-5.08895
-5.05169
-5.01284
-4.97229
-4.92996
-4.88575
-4.83956
-4.7913
-4.74087
-4.68818
-4.63313
-4.57562
-4.51556
-4.45284
-4.38737
-4.31903
-4.24773
-4.17334
-4.09575
-4.01483
-3.93045
-3.84246
-3.75071
-3.65503
-3.55525
-3.45117
-3.34259
-3.2293
-3.11105
-2.9876
-2.86053
-2.73339
-2.60807
-2.48463
-2.36313
-2.24363
-2.12615
-2.01077
-1.89753
-1.78647
-1.67763
-1.57104
-1.46674
-1.36474
-1.26506
-1.1677
-1.07267
-0.979951
-0.889509
-0.801277
-0.715219
-0.631375
-0.549797
-0.47048
-0.393406
-0.318548
-0.245878
-0.175366
-0.106987
-0.0406452
0.0238324
0.0864983
0.147305
0.20626
0.263417
0.318824
0.372522
0.424554
0.474962
0.523787
0.571072
-5.87906
-5.8691
-5.86108
-5.8527
-5.84403
-5.83509
-5.82588
-5.81637
-5.80655
-5.79641
-5.78593
-5.77512
-5.76394
-5.7524
-5.74047
-5.72814
-5.71539
-5.70221
-5.68858
-5.67449
-5.6599
-5.64481
-5.62919
-5.61303
-5.59629
-5.57895
-5.56099
-5.54238
-5.52309
-5.50309
-5.48236
-5.46086
-5.43854
-5.41539
-5.39136
-5.36641
-5.34049
-5.31357
-5.28559
-5.25652
-5.22629
-5.19485
-5.16215
-5.12812
-5.0927
-5.05581
-5.01739
-4.97735
-4.9356
-4.89205
-4.84661
-4.79918
-4.74966
-4.69793
-4.64392
-4.5875
-4.52858
-4.46704
-4.40279
-4.33571
-4.26568
-4.19258
-4.11629
-4.03668
-3.95359
-3.86688
-3.7764
-3.68196
-3.58338
-3.48047
-3.373
-3.26074
-3.14345
-3.02087
-2.89454
-2.76799
-2.6431
-2.51993
-2.39855
-2.279
-2.16134
-2.04563
-1.93194
-1.82031
-1.7108
-1.60345
-1.49829
-1.39537
-1.29471
-1.19634
-1.10026
-1.00647
-0.91498
-0.825724
-0.738643
-0.653765
-0.571152
-0.490815
-0.412742
-0.336927
-0.263323
-0.191856
-0.122493
-0.0552016
0.0100882
0.0734585
0.134982
0.19466
0.252491
0.308525
0.36282
0.41543
0.466401
0.515779
0.563607
0.609925
-5.87911
-5.86912
-5.86113
-5.85276
-5.8441
-5.83517
-5.82597
-5.81647
-5.80666
-5.79654
-5.78608
-5.77528
-5.76413
-5.75261
-5.7407
-5.7284
-5.71568
-5.70253
-5.68894
-5.67488
-5.66034
-5.64529
-5.62973
-5.61361
-5.59693
-5.57966
-5.56177
-5.54323
-5.52402
-5.50411
-5.48347
-5.46206
-5.43985
-5.41681
-5.39289
-5.36807
-5.34229
-5.31551
-5.28769
-5.25879
-5.22874
-5.1975
-5.16502
-5.13122
-5.09606
-5.05947
-5.02137
-4.9817
-4.94037
-4.8973
-4.8524
-4.80558
-4.75674
-4.70578
-4.65259
-4.59706
-4.53909
-4.47856
-4.41536
-4.34937
-4.28047
-4.20853
-4.13342
-4.055
-3.97313
-3.88763
-3.79836
-3.70512
-3.60773
-3.50597
-3.39963
-3.28845
-3.17219
-3.05055
-2.92508
-2.79925
-2.67493
-2.55218
-2.43107
-2.31164
-2.19397
-2.07812
-1.96414
-1.85211
-1.74208
-1.63411
-1.52824
-1.42452
-1.323
-1.2237
-1.12666
-1.03188
-0.939384
-0.849141
-0.76111
-0.675287
-0.591723
-0.510461
-0.431481
-0.35473
-0.280173
-0.207794
-0.137567
-0.0694439
-0.00336256
0.0607467
0.122931
0.183228
0.241683
0.298344
0.353253
0.406457
0.458001
0.507931
0.556291
0.603123
-5.87915
-5.86912
-5.86116
-5.8528
-5.84414
-5.83522
-5.82603
-5.81654
-5.80674
-5.79663
-5.78619
-5.77541
-5.76427
-5.75276
-5.74088
-5.7286
-5.71591
-5.70279
-5.68923
-5.6752
-5.6607
-5.6457
-5.63018
-5.61412
-5.59749
-5.58028
-5.56245
-5.54399
-5.52485
-5.50502
-5.48447
-5.46315
-5.44104
-5.4181
-5.39429
-5.36959
-5.34393
-5.31729
-5.28962
-5.26086
-5.23098
-5.19992
-5.16762
-5.13403
-5.0991
-5.06275
-5.02492
-4.98554
-4.94453
-4.90183
-4.85733
-4.81097
-4.76264
-4.71225
-4.65969
-4.60486
-4.54765
-4.48794
-4.42561
-4.36054
-4.2926
-4.22166
-4.14759
-4.07023
-3.98944
-3.90505
-3.81689
-3.72477
-3.6285
-3.52785
-3.42259
-3.31248
-3.19724
-3.07658
-2.952
-2.82695
-2.70329
-2.58107
-2.46035
-2.34119
-2.22365
-2.1078
-1.9937
-1.88142
-1.77103
-1.66258
-1.55613
-1.45176
-1.3495
-1.24941
-1.15151
-1.05585
-0.962432
-0.87127
-0.782348
-0.695667
-0.611247
-0.529097
-0.449213
-0.371589
-0.296201
-0.223011
-0.151981
-0.0830753
-0.0162463
0.0485653
0.11142
0.17237
0.231459
0.288728
0.344221
0.397981
0.450052
0.50048
0.549308
0.59658
-5.87916
-5.86911
-5.86116
-5.85281
-5.84416
-5.83524
-5.82605
-5.81657
-5.80678
-5.79668
-5.78625
-5.77547
-5.76435
-5.75286
-5.74099
-5.72873
-5.71606
-5.70297
-5.68943
-5.67544
-5.66098
-5.64601
-5.63054
-5.61452
-5.59795
-5.58079
-5.56302
-5.54462
-5.52556
-5.50581
-5.48533
-5.4641
-5.44208
-5.41924
-5.39554
-5.37094
-5.3454
-5.31888
-5.29134
-5.26273
-5.233
-5.20209
-5.16997
-5.13656
-5.10182
-5.06568
-5.02808
-4.98894
-4.94821
-4.9058
-4.86163
-4.81563
-4.76769
-4.71774
-4.66566
-4.61137
-4.55474
-4.49567
-4.43403
-4.36971
-4.30257
-4.23247
-4.15928
-4.08284
-4.00299
-3.91957
-3.8324
-3.74129
-3.64603
-3.5464
-3.44216
-3.33305
-3.21879
-3.09908
-2.97539
-2.85115
-2.72817
-2.60654
-2.48629
-2.36748
-2.25018
-2.13445
-2.02036
-1.90796
-1.79734
-1.68856
-1.5817
-1.47681
-1.37394
-1.27318
-1.17456
-1.07812
-0.983901
-0.891916
-0.802174
-0.714686
-0.62946
-0.546492
-0.465791
-0.387363
-0.311194
-0.237248
-0.165482
-0.0958587
-0.0283359
0.037138
0.10062
0.162164
0.22182
0.279633
0.335648
0.38991
0.442463
0.493353
0.542625
0.590322
-5.87916
-5.86907
-5.86114
-5.85279
-5.84414
-5.83523
-5.82604
-5.81656
-5.80677
-5.79667
-5.78625
-5.77548
-5.76437
-5.75289
-5.74103
-5.72879
-5.71614
-5.70306
-5.68955
-5.67559
-5.66115
-5.64622
-5.63078
-5.61481
-5.59828
-5.58118
-5.56347
-5.54513
-5.52613
-5.50645
-5.48604
-5.46489
-5.44296
-5.42021
-5.39661
-5.37211
-5.34668
-5.32028
-5.29286
-5.26437
-5.23477
-5.20401
-5.17204
-5.1388
-5.10423
-5.06827
-5.03087
-4.99195
-4.95145
-4.90929
-4.86539
-4.81968
-4.77207
-4.72246
-4.67077
-4.6169
-4.56073
-4.50216
-4.44107
-4.37733
-4.31083
-4.24141
-4.16894
-4.09327
-4.01422
-3.93164
-3.84532
-3.75509
-3.66073
-3.562
-3.45868
-3.35048
-3.23713
-3.11831
-2.99547
-2.87201
-2.74973
-2.62869
-2.50895
-2.39055
-2.27356
-2.15803
-2.04403
-1.93163
-1.82091
-1.71192
-1.60475
-1.49946
-1.39614
-1.29484
-1.19561
-1.09853
-1.00362
-0.910927
-0.820469
-0.732258
-0.646301
-0.562606
-0.481188
-0.402048
-0.325162
-0.250493
-0.178017
-0.107713
-0.0395484
0.0265269
0.0905739
0.152656
0.212824
0.271127
0.327612
0.382327
0.435315
0.486622
0.536292
0.58437
-5.87913
-5.869
-5.8611
-5.85274
-5.84408
-5.83517
-5.82598
-5.8165
-5.80671
-5.79662
-5.78619
-5.77543
-5.76432
-5.75285
-5.741
-5.72876
-5.71613
-5.70307
-5.68958
-5.67563
-5.66122
-5.64632
-5.63092
-5.61498
-5.5985
-5.58143
-5.56377
-5.54549
-5.52655
-5.50693
-5.4866
-5.46552
-5.44367
-5.421
-5.39748
-5.37308
-5.34775
-5.32145
-5.29414
-5.26577
-5.2363
-5.20567
-5.17384
-5.14074
-5.10633
-5.07054
-5.03331
-4.99458
-4.95428
-4.91233
-4.86867
-4.8232
-4.77586
-4.72655
-4.67517
-4.62163
-4.56584
-4.50767
-4.44701
-4.38375
-4.31775
-4.24888
-4.17699
-4.10194
-4.02355
-3.94165
-3.85607
-3.76658
-3.67299
-3.57506
-3.47254
-3.36516
-3.25262
-3.13461
-3.01256
-2.88982
-2.76821
-2.64775
-2.52852
-2.41055
-2.2939
-2.17862
-2.06479
-1.95246
-1.84172
-1.73262
-1.62526
-1.51969
-1.41602
-1.31429
-1.21458
-1.11696
-1.02148
-0.928195
-0.837127
-0.748302
-0.661735
-0.577432
-0.495398
-0.415626
-0.338101
-0.262804
-0.18972
-0.118825
-0.0500793
0.0165709
0.0811845
0.143803
0.204465
0.263226
0.320138
0.375251
0.428618
0.48029
0.530313
0.578733
-5.87908
-5.86892
-5.86102
-5.85266
-5.844
-5.83507
-5.82588
-5.81639
-5.8066
-5.7965
-5.78608
-5.77531
-5.7642
-5.75273
-5.74089
-5.72866
-5.71603
-5.70298
-5.6895
-5.67558
-5.66118
-5.64631
-5.63093
-5.61503
-5.59857
-5.58155
-5.56394
-5.5457
-5.52681
-5.50725
-5.48698
-5.46597
-5.44418
-5.42159
-5.39816
-5.37384
-5.3486
-5.3224
-5.29519
-5.26693
-5.23757
-5.20706
-5.17535
-5.14239
-5.10812
-5.07248
-5.03541
-4.99684
-4.95672
-4.91496
-4.87149
-4.82624
-4.77913
-4.73006
-4.67895
-4.62569
-4.5702
-4.51236
-4.45206
-4.38918
-4.32359
-4.25516
-4.18374
-4.10919
-4.03133
-3.95
-3.86501
-3.77615
-3.68321
-3.58595
-3.48412
-3.37745
-3.26562
-3.14833
-3.02698
-2.90491
-2.7839
-2.664
-2.54525
-2.4277
-2.31141
-2.19641
-2.08278
-1.97058
-1.85988
-1.75075
-1.64327
-1.53752
-1.43358
-1.33153
-1.23144
-1.1334
-1.03746
-0.943675
-0.852097
-0.762753
-0.675664
-0.590845
-0.508299
-0.428021
-0.349998
-0.274207
-0.200623
-0.129215
-0.0599442
0.00723118
0.0723472
0.135439
0.196557
0.255756
0.313089
0.368611
0.422364
0.474379
0.524705
0.573411
-5.87901
-5.86881
-5.86092
-5.85255
-5.84387
-5.83494
-5.82574
-5.81624
-5.80644
-5.79633
-5.7859
-5.77513
-5.76401
-5.75254
-5.74069
-5.72846
-5.71584
-5.7028
-5.68933
-5.67541
-5.66103
-5.64618
-5.63082
-5.61494
-5.59852
-5.58153
-5.56395
-5.54576
-5.52692
-5.5074
-5.48719
-5.46623
-5.44451
-5.42199
-5.39863
-5.37439
-5.34923
-5.32312
-5.296
-5.26783
-5.23858
-5.20818
-5.17658
-5.14374
-5.1096
-5.07409
-5.03716
-4.99874
-4.95877
-4.91718
-4.87389
-4.82883
-4.78191
-4.73305
-4.68216
-4.62915
-4.57391
-4.51635
-4.45634
-4.39377
-4.32852
-4.26044
-4.18941
-4.11526
-4.03784
-3.95697
-3.87246
-3.78412
-3.69171
-3.59501
-3.49377
-3.38769
-3.27648
-3.1598
-3.03907
-2.91759
-2.79712
-2.67773
-2.55943
-2.44229
-2.32633
-2.21162
-2.09821
-1.98616
-1.87555
-1.76643
-1.6589
-1.55304
-1.44892
-1.34663
-1.24625
-1.14788
-1.05157
-0.957397
-0.865405
-0.775636
-0.688117
-0.602867
-0.51989
-0.439183
-0.360736
-0.284527
-0.21053
-0.138714
-0.069042
-0.00147286
0.0640364
0.12753
0.189053
0.248655
0.306385
0.362288
0.416394
0.468749
0.519407
0.568399
-5.87893
-5.86869
-5.86079
-5.85241
-5.84372
-5.83477
-5.82555
-5.81604
-5.80623
-5.79611
-5.78566
-5.77488
-5.76376
-5.75228
-5.74042
-5.72819
-5.71556
-5.70252
-5.68905
-5.67514
-5.66077
-5.64593
-5.63059
-5.61473
-5.59833
-5.58137
-5.56382
-5.54566
-5.52686
-5.50739
-5.48722
-5.46632
-5.44466
-5.42219
-5.39889
-5.37472
-5.34964
-5.3236
-5.29656
-5.26849
-5.23932
-5.20902
-5.17753
-5.14479
-5.11076
-5.07538
-5.03857
-5.00029
-4.96046
-4.91901
-4.87588
-4.83098
-4.78423
-4.73555
-4.68486
-4.63205
-4.57703
-4.5197
-4.45994
-4.39763
-4.33266
-4.26488
-4.19416
-4.12035
-4.04328
-3.96279
-3.87868
-3.79075
-3.69878
-3.60254
-3.50177
-3.39619
-3.2855
-3.16935
-3.04915
-2.92817
-2.80819
-2.68924
-2.57135
-2.45457
-2.33894
-2.2245
-2.11131
-1.99943
-1.88892
-1.77986
-1.67232
-1.56639
-1.46216
-1.3597
-1.25912
-1.1605
-1.06391
-0.969426
-0.877117
-0.787015
-0.699156
-0.613561
-0.530239
-0.449187
-0.370394
-0.293841
-0.219502
-0.147345
-0.077334
-0.00943016
0.056409
0.120228
0.182071
0.241987
0.300022
0.356226
0.410645
0.463327
0.514301
0.563595
-5.87883
-5.86855
-5.86064
-5.85224
-5.84353
-5.83457
-5.82533
-5.8158
-5.80598
-5.79584
-5.78537
-5.77458
-5.76344
-5.75194
-5.74008
-5.72783
-5.71519
-5.70215
-5.68868
-5.67477
-5.66041
-5.64557
-5.63024
-5.61439
-5.59801
-5.58107
-5.56355
-5.54542
-5.52665
-5.50721
-5.48709
-5.46623
-5.44461
-5.4222
-5.39896
-5.37484
-5.34982
-5.32385
-5.29689
-5.26889
-5.23981
-5.20959
-5.17819
-5.14555
-5.11163
-5.07635
-5.03965
-5.00149
-4.96178
-4.92047
-4.87747
-4.83271
-4.78612
-4.7376
-4.68708
-4.63444
-4.57961
-4.52247
-4.46292
-4.40083
-4.33609
-4.26856
-4.19811
-4.12457
-4.0478
-3.96761
-3.88382
-3.79624
-3.70463
-3.60877
-3.50839
-3.40322
-3.29296
-3.17725
-3.05749
-2.93695
-2.81738
-2.69881
-2.58128
-2.46483
-2.34949
-2.2353
-2.12232
-2.01061
-1.90022
-1.79123
-1.68372
-1.57776
-1.47346
-1.37089
-1.27016
-1.17136
-1.07457
-0.97987
-0.887321
-0.796973
-0.708859
-0.623004
-0.539417
-0.458098
-0.379036
-0.302212
-0.227602
-0.155173
-0.0848907
-0.0167155
0.0493941
0.113482
0.175593
0.235773
0.294068
0.350526
0.405194
0.458119
0.509348
0.558924
-5.87873
-5.86841
-5.86047
-5.85205
-5.84332
-5.83433
-5.82507
-5.81553
-5.80568
-5.79551
-5.78503
-5.77421
-5.76305
-5.75154
-5.73966
-5.7274
-5.71475
-5.70169
-5.68821
-5.6743
-5.65993
-5.6451
-5.62977
-5.61393
-5.59757
-5.58064
-5.56314
-5.54503
-5.52628
-5.50688
-5.48678
-5.46596
-5.44439
-5.42202
-5.39882
-5.37476
-5.3498
-5.32389
-5.29699
-5.26906
-5.24004
-5.2099
-5.17858
-5.14603
-5.11219
-5.07701
-5.04042
-5.00236
-4.96276
-4.92156
-4.87868
-4.83405
-4.78759
-4.73922
-4.68883
-4.63636
-4.58168
-4.52472
-4.46534
-4.40344
-4.33889
-4.27157
-4.20133
-4.12803
-4.05149
-3.97156
-3.88804
-3.80073
-3.70942
-3.61387
-3.51382
-3.40899
-3.29907
-3.18373
-3.06433
-2.94415
-2.82493
-2.70669
-2.58947
-2.4733
-2.35822
-2.24426
-2.13147
-2.01991
-1.90964
-1.80074
-1.69327
-1.58732
-1.48299
-1.38036
-1.27955
-1.18063
-1.08371
-0.988862
-0.896154
-0.80563
-0.717332
-0.631289
-0.54751
-0.465995
-0.386733
-0.309706
-0.23489
-0.162252
-0.0917585
-0.0233702
0.042954
0.107257
0.169584
0.22998
0.288491
0.345163
0.400043
0.453177
0.50461
0.554391
-5.87861
-5.86825
-5.86029
-5.85185
-5.84309
-5.83408
-5.82479
-5.81522
-5.80534
-5.79515
-5.78464
-5.7738
-5.76262
-5.75108
-5.73918
-5.7269
-5.71423
-5.70115
-5.68766
-5.67374
-5.65937
-5.64452
-5.6292
-5.61336
-5.597
-5.58008
-5.56259
-5.5445
-5.52577
-5.50639
-5.48632
-5.46553
-5.44399
-5.42166
-5.3985
-5.37448
-5.34957
-5.32371
-5.29686
-5.26899
-5.24004
-5.20996
-5.17871
-5.14624
-5.11248
-5.07737
-5.04087
-5.0029
-4.9634
-4.9223
-4.87953
-4.83502
-4.78867
-4.74041
-4.69016
-4.63782
-4.58328
-4.52646
-4.46723
-4.40549
-4.34111
-4.27397
-4.20391
-4.13079
-4.05446
-3.97473
-3.89143
-3.80436
-3.71329
-3.61799
-3.5182
-3.41364
-3.30401
-3.18897
-3.06988
-2.95
-2.83106
-2.7131
-2.59614
-2.48021
-2.36534
-2.25158
-2.13897
-2.02755
-1.9174
-1.80858
-1.70117
-1.59525
-1.49092
-1.38828
-1.28742
-1.18845
-1.09145
-0.99652
-0.903709
-0.813077
-0.72467
-0.63851
-0.554607
-0.472961
-0.393564
-0.316396
-0.241432
-0.168643
-0.0979931
-0.0294443
0.0370442
0.101515
0.164013
0.224582
0.283268
0.340116
0.395174
0.448485
0.500095
0.55005
-5.8785
-5.8681
-5.8601
-5.85163
-5.84284
-5.8338
-5.82449
-5.81488
-5.80497
-5.79476
-5.78422
-5.77334
-5.76213
-5.75056