/*--------------------------------*- C++ -*----------------------------------*\
  =========                 |
  \\      /  F ield         | OpenFOAM: The Open Source CFD Toolbox
   \\    /   O peration     | Website:  https://openfoam.org
    \\  /    A nd           | Version:  10
     \\/     M anipulation  |
\*---------------------------------------------------------------------------*/
FoamFile
{
    format      ascii;
    class       volScalarField;
    location    "30000";
    object      nut;
}
// * * * * * * * * * * * * * * * * * * * * * * * * * * * * * * * * * * * * * //

dimensions      [0 2 -1 0 0 0 0];

internalField   nonuniform List<scalar> 
17922
(
0.00332703
0.00338277
0.00343858
0.00349439
0.00355016
0.00360582
0.00366132
0.00371659
0.00377156
0.00382616
0.00388029
0.00393389
0.00398685
0.00403908
0.00409047
0.00414091
0.00419028
0.00423846
0.00428532
0.00433071
0.00437448
0.00441648
0.00445653
0.00449446
0.00453009
0.00456321
0.00459362
0.00462111
0.00464522
0.0046655
0.00468188
0.00469451
0.00470354
0.00470912
0.00471141
0.00471055
0.0047067
0.0047
0.00469061
0.00467867
0.00466434
0.00464775
0.00462906
0.0046084
0.0045859
0.00456171
0.00453595
0.00450876
0.00448024
0.00445052
0.00441971
0.00438792
0.00435526
0.00432183
0.00428772
0.00425302
0.00421783
0.00418223
0.00414628
0.00411008
0.00407369
0.00403716
0.00400057
0.00396397
0.00392741
0.00389092
0.00385456
0.00381835
0.00378233
0.00374651
0.00371092
0.00367556
0.00364044
0.00360556
0.0035709
0.00353646
0.00350221
0.00346812
0.00343415
0.00340026
0.0033664
0.00333249
0.00329849
0.00326431
0.00322987
0.00319509
0.00315988
0.00312413
0.00308775
0.00305063
0.00301267
0.00297376
0.0029338
0.00332707
0.00338282
0.00343862
0.00349444
0.00355021
0.00360587
0.00366137
0.00371665
0.00377162
0.00382622
0.00388035
0.00393395
0.00398691
0.00403914
0.00409053
0.00414098
0.00419035
0.00423854
0.0042854
0.00433079
0.00437456
0.00441656
0.00445662
0.00449456
0.00453019
0.00456332
0.00459373
0.00462122
0.00464534
0.00466563
0.00468201
0.00469465
0.00470369
0.00470929
0.00471159
0.00471074
0.0047069
0.00470022
0.00469084
0.00467892
0.0046646
0.00464804
0.00462936
0.00460872
0.00458625
0.00456208
0.00453635
0.00450917
0.00448068
0.00445099
0.0044202
0.00438844
0.00435581
0.00432241
0.00428832
0.00425366
0.00421849
0.00418292
0.004147
0.00411083
0.00407446
0.00403796
0.0040014
0.00396482
0.00392827
0.0038918
0.00385546
0.00381926
0.00378324
0.00374742
0.00371182
0.00367645
0.00364131
0.00360639
0.00357169
0.0035372
0.00350287
0.0034687
0.00343463
0.00340061
0.00336661
0.00333254
0.00329835
0.00326396
0.00322929
0.00319425
0.00315875
0.00312269
0.00308596
0.00304847
0.00301012
0.00297078
0.00293037
0.00332712
0.00338287
0.00343868
0.00349449
0.00355026
0.00360593
0.00366143
0.00371671
0.00377168
0.00382628
0.00388042
0.00393402
0.00398698
0.00403921
0.00409061
0.00414105
0.00419043
0.00423862
0.00428548
0.00433087
0.00437465
0.00441666
0.00445672
0.00449466
0.00453029
0.00456342
0.00459384
0.00462134
0.00464546
0.00466575
0.00468215
0.00469479
0.00470384
0.00470945
0.00471176
0.00471092
0.00470709
0.00470042
0.00469106
0.00467916
0.00466486
0.00464832
0.00462966
0.00460904
0.00458659
0.00456245
0.00453674
0.00450959
0.00448112
0.00445145
0.00442069
0.00438896
0.00435636
0.00432298
0.00428892
0.00425429
0.00421915
0.0041836
0.00414772
0.00411157
0.00407523
0.00403876
0.00400222
0.00396566
0.00392913
0.00389268
0.00385635
0.00382016
0.00378414
0.00374832
0.00371271
0.00367732
0.00364216
0.0036072
0.00357246
0.0035379
0.0035035
0.00346924
0.00343506
0.00340092
0.00336676
0.00333253
0.00329814
0.00326353
0.00322862
0.0031933
0.0031575
0.00312111
0.00308403
0.00304616
0.00300739
0.00296762
0.00292675
0.00332717
0.00338292
0.00343873
0.00349454
0.00355031
0.00360598
0.00366149
0.00371676
0.00377174
0.00382634
0.00388048
0.00393408
0.00398705
0.00403928
0.00409068
0.00414112
0.00419051
0.00423869
0.00428556
0.00433096
0.00437474
0.00441674
0.00445681
0.00449475
0.00453039
0.00456353
0.00459395
0.00462145
0.00464558
0.00466588
0.00468228
0.00469493
0.00470399
0.0047096
0.00471192
0.0047111
0.00470729
0.00470063
0.00469129
0.0046794
0.00466512
0.00464859
0.00462996
0.00460936
0.00458693
0.00456281
0.00453713
0.00451
0.00448156
0.00445192
0.00442119
0.00438948
0.00435691
0.00432356
0.00428953
0.00425492
0.00421982
0.0041843
0.00414844
0.00411232
0.00407601
0.00403956
0.00400305
0.00396651
0.00393
0.00389357
0.00385725
0.00382107
0.00378506
0.00374923
0.00371361
0.0036782
0.00364301
0.00360802
0.00357322
0.0035386
0.00350412
0.00346975
0.00343546
0.00340118
0.00336687
0.00333245
0.00329787
0.00326303
0.00322786
0.00319226
0.00315614
0.00311941
0.00308197
0.0030437
0.00300451
0.00296429
0.00292295
0.00332722
0.00338297
0.00343878
0.00349459
0.00355037
0.00360604
0.00366154
0.00371682
0.0037718
0.0038264
0.00388054
0.00393415
0.00398711
0.00403935
0.00409075
0.0041412
0.00419058
0.00423877
0.00428564
0.00433104
0.00437482
0.00441683
0.0044569
0.00449484
0.00453049
0.00456362
0.00459405
0.00462156
0.00464569
0.004666
0.00468241
0.00469507
0.00470414
0.00470976
0.00471209
0.00471128
0.00470748
0.00470084
0.00469151
0.00467964
0.00466538
0.00464887
0.00463026
0.00460968
0.00458728
0.00456318
0.00453752
0.00451042
0.004482
0.00445239
0.00442169
0.00439001
0.00435746
0.00432414
0.00429015
0.00425557
0.00422049
0.004185
0.00414918
0.00411309
0.0040768
0.00404038
0.00400389
0.00396738
0.00393089
0.00389447
0.00385816
0.00382199
0.00378598
0.00375015
0.00371452
0.00367909
0.00364386
0.00360882
0.00357397
0.00353928
0.00350471
0.00347025
0.00343583
0.00340141
0.00336693
0.00333232
0.00329752
0.00326244
0.003227
0.00319111
0.00315467
0.00311759
0.00307976
0.00304109
0.00300146
0.00296079
0.00291896
0.00332726
0.00338301
0.00343882
0.00349464
0.00355042
0.00360609
0.0036616
0.00371687
0.00377185
0.00382646
0.0038806
0.00393421
0.00398718
0.00403941
0.00409081
0.00414126
0.00419065
0.00423884
0.00428571
0.00433111
0.0043749
0.00441691
0.00445698
0.00449493
0.00453058
0.00456372
0.00459416
0.00462166
0.00464581
0.00466612
0.00468253
0.0046952
0.00470428
0.00470991
0.00471225
0.00471145
0.00470766
0.00470104
0.00469173
0.00467988
0.00466563
0.00464915
0.00463056
0.00461
0.00458762
0.00456355
0.00453791
0.00451084
0.00448245
0.00445286
0.00442219
0.00439054
0.00435803
0.00432474
0.00429077
0.00425622
0.00422118
0.00418572
0.00414992
0.00411386
0.0040776
0.00404121
0.00400475
0.00396826
0.00393179
0.00389539
0.00385909
0.00382292
0.00378691
0.00375108
0.00371543
0.00367997
0.00364471
0.00360963
0.00357471
0.00353994
0.00350529
0.00347071
0.00343616
0.00340159
0.00336694
0.00333213
0.00329711
0.00326177
0.00322605
0.00318985
0.00315308
0.00311563
0.00307741
0.00303831
0.00299824
0.0029571
0.00291478
0.00332731
0.00338306
0.00343887
0.00349469
0.00355047
0.00360614
0.00366165
0.00371693
0.00377191
0.00382651
0.00388066
0.00393427
0.00398724
0.00403948
0.00409088
0.00414133
0.00419072
0.00423891
0.00428578
0.00433119
0.00437498
0.00441699
0.00445707
0.00449502
0.00453067
0.00456382
0.00459425
0.00462177
0.00464592
0.00466623
0.00468265
0.00469533
0.00470442
0.00471006
0.00471241
0.00471163
0.00470785
0.00470124
0.00469195
0.00468011
0.00466589
0.00464942
0.00463086
0.00461032
0.00458797
0.00456392
0.00453831
0.00451127
0.0044829
0.00445335
0.0044227
0.00439109
0.0043586
0.00432534
0.00429141
0.00425689
0.00422188
0.00418645
0.00415068
0.00411465
0.00407842
0.00404206
0.00400562
0.00396915
0.0039327
0.00389631
0.00386003
0.00382386
0.00378785
0.00375201
0.00371634
0.00368086
0.00364556
0.00361043
0.00357545
0.0035406
0.00350584
0.00347114
0.00343646
0.00340172
0.00336689
0.00333187
0.00329661
0.00326101
0.003225
0.00318848
0.00315136
0.00311353
0.0030749
0.00303538
0.00299485
0.00295322
0.0029104
0.00332735
0.0033831
0.00343892
0.00349474
0.00355051
0.00360619
0.0036617
0.00371698
0.00377196
0.00382657
0.00388072
0.00393432
0.0039873
0.00403954
0.00409094
0.00414139
0.00419078
0.00423898
0.00428585
0.00433126
0.00437505
0.00441707
0.00445715
0.0044951
0.00453076
0.00456391
0.00459435
0.00462187
0.00464602
0.00466635
0.00468277
0.00469546
0.00470455
0.00471021
0.00471257
0.0047118
0.00470804
0.00470144
0.00469216
0.00468035
0.00466615
0.0046497
0.00463116
0.00461065
0.00458832
0.0045643
0.00453871
0.0045117
0.00448336
0.00445383
0.00442322
0.00439164
0.00435918
0.00432595
0.00429205
0.00425757
0.00422259
0.00418719
0.00415145
0.00411545
0.00407925
0.00404292
0.0040065
0.00397005
0.00393363
0.00389725
0.00386098
0.00382482
0.0037888
0.00375295
0.00371726
0.00368175
0.0036464
0.00361122
0.00357616
0.00354123
0.00350637
0.00347154
0.00343671
0.00340181
0.00336677
0.00333154
0.00329603
0.00326016
0.00322384
0.00318699
0.0031495
0.00311128
0.00307224
0.00303227
0.00299127
0.00294914
0.00290581
0.00332739
0.00338315
0.00343896
0.00349478
0.00355056
0.00360624
0.00366175
0.00371703
0.00377201
0.00382662
0.00388077
0.00393438
0.00398735
0.0040396
0.004091
0.00414146
0.00419085
0.00423905
0.00428592
0.00433133
0.00437513
0.00441715
0.00445723
0.00449519
0.00453084
0.004564
0.00459445
0.00462197
0.00464613
0.00466646
0.00468289
0.00469559
0.00470469
0.00471035
0.00471273
0.00471197
0.00470822
0.00470164
0.00469238
0.00468059
0.00466641
0.00464998
0.00463146
0.00461098
0.00458867
0.00456468
0.00453912
0.00451213
0.00448383
0.00445433
0.00442375
0.00439219
0.00435977
0.00432657
0.00429271
0.00425826
0.00422331
0.00418794
0.00415224
0.00411627
0.0040801
0.00404379
0.0040074
0.00397098
0.00393456
0.00389821
0.00386194
0.00382578
0.00378976
0.00375389
0.00371819
0.00368264
0.00364725
0.003612
0.00357687
0.00354184
0.00350686
0.00347191
0.00343691
0.00340183
0.00336659
0.00333113
0.00329536
0.0032592
0.00322257
0.00318537
0.0031475
0.00310888
0.0030694
0.00302897
0.00298749
0.00294487
0.00290101
0.00332743
0.00338319
0.003439
0.00349483
0.00355061
0.00360628
0.0036618
0.00371708
0.00377206
0.00382667
0.00388083
0.00393444
0.00398741
0.00403965
0.00409106
0.00414152
0.00419091
0.00423911
0.00428599
0.0043314
0.0043752
0.00441722
0.0044573
0.00449527
0.00453093
0.00456409
0.00459454
0.00462207
0.00464623
0.00466657
0.00468301
0.00469571
0.00470482
0.0047105
0.00471288
0.00471214
0.00470841
0.00470184
0.0046926
0.00468082
0.00466666
0.00465026
0.00463176
0.0046113
0.00458903
0.00456506
0.00453953
0.00451257
0.0044843
0.00445483
0.00442428
0.00439276
0.00436037
0.00432721
0.00429337
0.00425896
0.00422404
0.00418871
0.00415304
0.0041171
0.00408096
0.00404468
0.00400831
0.00397191
0.00393552
0.00389917
0.00386291
0.00382676
0.00379073
0.00375484
0.00371911
0.00368352
0.00364808
0.00361276
0.00357755
0.00354242
0.00350732
0.00347223
0.00343707
0.0034018
0.00336634
0.00333063
0.00329459
0.00325813
0.00322117
0.00318361
0.00314536
0.00310632
0.0030664
0.0030255
0.00298352
0.00294039
0.002896
0.00332747
0.00338323
0.00343905
0.00349487
0.00355065
0.00360633
0.00366184
0.00371713
0.00377211
0.00382672
0.00388088
0.00393449
0.00398747
0.00403971
0.00409112
0.00414158
0.00419097
0.00423918
0.00428606
0.00433147
0.00437527
0.00441729
0.00445738
0.00449535
0.00453101
0.00456417
0.00459463
0.00462216
0.00464633
0.00466667
0.00468312
0.00469583
0.00470496
0.00471064
0.00471304
0.00471231
0.00470859
0.00470204
0.00469282
0.00468106
0.00466692
0.00465054
0.00463207
0.00461164
0.00458938
0.00456544
0.00453995
0.00451302
0.00448478
0.00445534
0.00442482
0.00439333
0.00436098
0.00432785
0.00429405
0.00425967
0.00422479
0.00418949
0.00415385
0.00411795
0.00408184
0.00404558
0.00400924
0.00397286
0.00393649
0.00390015
0.0038639
0.00382774
0.0037917
0.0037558
0.00372004
0.00368441
0.00364891
0.00361352
0.00357822
0.00354297
0.00350775
0.0034725
0.00343717
0.00340169
0.00336601
0.00333004
0.00329372
0.00325694
0.00321964
0.0031817
0.00314305
0.00310358
0.00306321
0.00302182
0.00297935
0.00293569
0.00289077
0.00332751
0.00338327
0.00343909
0.00349492
0.0035507
0.00360638
0.00366189
0.00371718
0.00377216
0.00382677
0.00388093
0.00393454
0.00398752
0.00403977
0.00409118
0.00414164
0.00419103
0.00423924
0.00428612
0.00433154
0.00437534
0.00441737
0.00445745
0.00449542
0.00453109
0.00456426
0.00459472
0.00462225
0.00464643
0.00466678
0.00468324
0.00469595
0.00470509
0.00471078
0.00471319
0.00471247
0.00470877
0.00470224
0.00469304
0.0046813
0.00466718
0.00465083
0.00463238
0.00461197
0.00458975
0.00456584
0.00454037
0.00451347
0.00448526
0.00445586
0.00442537
0.00439392
0.0043616
0.00432851
0.00429474
0.00426039
0.00422555
0.00419029
0.00415468
0.00411881
0.00408273
0.0040465
0.00401019
0.00397383
0.00393747
0.00390115
0.00386489
0.00382873
0.00379269
0.00375676
0.00372096
0.00368528
0.00364972
0.00361425
0.00357886
0.0035435
0.00350814
0.00347272
0.0034372
0.00340152
0.00336559
0.00332936
0.00329274
0.00325564
0.00321797
0.00317965
0.00314058
0.00310067
0.00305983
0.00301795
0.00297496
0.00293077
0.0028853
0.00332755
0.00338331
0.00343913
0.00349496
0.00355074
0.00360642
0.00366194
0.00371722
0.00377221
0.00382682
0.00388098
0.00393459
0.00398757
0.00403982
0.00409123
0.00414169
0.00419109
0.0042393
0.00428618
0.0043316
0.0043754
0.00441743
0.00445752
0.0044955
0.00453117
0.00456434
0.0045948
0.00462234
0.00464653
0.00466688
0.00468335
0.00469607
0.00470521
0.00471092
0.00471334
0.00471264
0.00470895
0.00470244
0.00469326
0.00468154
0.00466744
0.00465111
0.00463269
0.00461231
0.00459011
0.00456623
0.0045408
0.00451393
0.00448575
0.00445638
0.00442593
0.00439452
0.00436223
0.00432917
0.00429545
0.00426114
0.00422633
0.0041911
0.00415553
0.00411969
0.00408364
0.00404744
0.00401115
0.00397481
0.00393846
0.00390215
0.0038659
0.00382974
0.00379367
0.00375772
0.00372188
0.00368615
0.00365052
0.00361497
0.00357947
0.00354398
0.00350847
0.00347289
0.00343717
0.00340126
0.00336509
0.00332857
0.00329164
0.0032542
0.00321616
0.00317744
0.00313795
0.00309758
0.00305625
0.00301387
0.00297036
0.00292563
0.00287961
0.00332759
0.00338335
0.00343917
0.003495
0.00355078
0.00360646
0.00366198
0.00371727
0.00377226
0.00382687
0.00388103
0.00393464
0.00398762
0.00403987
0.00409129
0.00414175
0.00419115
0.00423936
0.00428624
0.00433166
0.00437547
0.0044175
0.00445759
0.00449557
0.00453124
0.00456442
0.00459488
0.00462243
0.00464662
0.00466698
0.00468345
0.00469619
0.00470534
0.00471106
0.0047135
0.0047128
0.00470914
0.00470264
0.00469347
0.00468178
0.00466771
0.0046514
0.004633
0.00461265
0.00459048
0.00456663
0.00454123
0.00451439
0.00448625
0.00445692
0.00442651
0.00439512
0.00436287
0.00432985
0.00429616
0.00426189
0.00422712
0.00419193
0.00415639
0.00412058
0.00408456
0.00404839
0.00401213
0.00397581
0.00393948
0.00390317
0.00386692
0.00383075
0.00379466
0.00375868
0.0037228
0.00368701
0.00365131
0.00361566
0.00358005
0.00354443
0.00350876
0.003473
0.00343707
0.00340092
0.00336448
0.00332768
0.00329041
0.00325262
0.0032142
0.00317507
0.00313513
0.00309429
0.00305247
0.00300958
0.00296554
0.00292026
0.00287368
0.00332763
0.00338339
0.00343921
0.00349504
0.00355082
0.00360651
0.00366202
0.00371731
0.0037723
0.00382692
0.00388108
0.00393469
0.00398767
0.00403992
0.00409134
0.0041418
0.00419121
0.00423942
0.0042863
0.00433172
0.00437553
0.00441757
0.00445766
0.00449564
0.00453132
0.00456449
0.00459497
0.00462252
0.00464671
0.00466708
0.00468356
0.00469631
0.00470547
0.0047112
0.00471365
0.00471297
0.00470932
0.00470284
0.00469369
0.00468202
0.00466797
0.00465169
0.00463332
0.004613
0.00459086
0.00456704
0.00454167
0.00451487
0.00448676
0.00445746
0.00442709
0.00439574
0.00436353
0.00433055
0.0042969
0.00426266
0.00422793
0.00419277
0.00415727
0.0041215
0.00408551
0.00404936
0.00401312
0.00397682
0.0039405
0.0039042
0.00386795
0.00383176
0.00379566
0.00375964
0.00372371
0.00368786
0.00365207
0.00361633
0.00358059
0.00354483
0.003509
0.00347304
0.00343689
0.00340049
0.00336378
0.00332666
0.00328906
0.00325089
0.00321208
0.00317252
0.00313212
0.00309081
0.00304848
0.00300507
0.00296048
0.00291465
0.00286751
0.00332767
0.00338343
0.00343925
0.00349508
0.00355087
0.00360655
0.00366207
0.00371736
0.00377235
0.00382696
0.00388112
0.00393474
0.00398772
0.00403997
0.00409139
0.00414186
0.00419126
0.00423947
0.00428636
0.00433178
0.00437559
0.00441763
0.00445773
0.00449571
0.00453139
0.00456457
0.00459505
0.0046226
0.0046468
0.00466718
0.00468367
0.00469642
0.00470559
0.00471133
0.0047138
0.00471313
0.0047095
0.00470304
0.00469392
0.00468227
0.00466824
0.00465199
0.00463364
0.00461335
0.00459124
0.00456746
0.00454212
0.00451535
0.00448728
0.00445802
0.00442768
0.00439637
0.0043642
0.00433126
0.00429765
0.00426345
0.00422875
0.00419363
0.00415817
0.00412243
0.00408647
0.00405035
0.00401413
0.00397785
0.00394154
0.00390525
0.00386899
0.00383279
0.00379666
0.0037606
0.00372461
0.00368869
0.00365282
0.00361696
0.0035811
0.00354518
0.00350917
0.003473
0.00343662
0.00339996
0.00336295
0.00332551
0.00328756
0.00324902
0.00320979
0.00316979
0.00312892
0.00308712
0.00304428
0.00300033
0.0029552
0.00290881
0.0028611
0.00310615
0.00316124
0.00321655
0.00327205
0.00332771
0.00338347
0.00343929
0.00349512
0.00355091
0.00360659
0.00366211
0.0037174
0.00377239
0.00382701
0.00388117
0.00393479
0.00398777
0.00404002
0.00409144
0.00414191
0.00419131
0.00423953
0.00428642
0.00433184
0.00437565
0.00441769
0.00445779
0.00449578
0.00453146
0.00456464
0.00459512
0.00462269
0.00464689
0.00466727
0.00468377
0.00469653
0.00470572
0.00471147
0.00471395
0.0047133
0.00470968
0.00470325
0.00469414
0.00468251
0.00466851
0.00465228
0.00463397
0.00461371
0.00459163
0.00456788
0.00454257
0.00451584
0.00448781
0.00445858
0.00442829
0.00439702
0.00436488
0.00433198
0.00429841
0.00426425
0.00422959
0.00419451
0.00415909
0.00412338
0.00408745
0.00405136
0.00401516
0.00397889
0.00394259
0.0039063
0.00387003
0.00383381
0.00379765
0.00376155
0.0037255
0.0036895
0.00365353
0.00361756
0.00358155
0.00354547
0.00350927
0.00347289
0.00343626
0.00339933
0.00336201
0.00332424
0.00328592
0.00324698
0.00320732
0.00316687
0.00312552
0.00308321
0.00303985
0.00299536
0.00294967
0.00290272
0.00285445
0.00310618
0.00316127
0.00321659
0.00327209
0.00332774
0.00338351
0.00343933
0.00349516
0.00355095
0.00360663
0.00366215
0.00371744
0.00377244
0.00382705
0.00388121
0.00393483
0.00398782
0.00404007
0.00409149
0.00414196
0.00419136
0.00423958
0.00428647
0.0043319
0.00437571
0.00441775
0.00445786
0.00449584
0.00453153
0.00456472
0.0045952
0.00462277
0.00464698
0.00466737
0.00468387
0.00469665
0.00470584
0.0047116
0.00471409
0.00471346
0.00470987
0.00470345
0.00469436
0.00468276
0.00466879
0.00465259
0.0046343
0.00461407
0.00459203
0.00456831
0.00454304
0.00451634
0.00448835
0.00445916
0.0044289
0.00439768
0.00436558
0.00433272
0.00429919
0.00426507
0.00423045
0.00419541
0.00416002
0.00412434
0.00408845
0.00405238
0.0040162
0.00397995
0.00394366
0.00390736
0.00387109
0.00383484
0.00379864
0.00376249
0.00372638
0.00369029
0.00365422
0.00361812
0.00358196
0.00354571
0.0035093
0.00347269
0.0034358
0.00339858
0.00336095
0.00332282
0.00328412
0.00324477
0.00320467
0.00316375
0.00312192
0.00307909
0.0030352
0.00299016
0.00294391
0.00289638
0.00284754
0.00310621
0.00316131
0.00321662
0.00327213
0.00332778
0.00338354
0.00343937
0.0034952
0.00355098
0.00360667
0.00366219
0.00371748
0.00377248
0.0038271
0.00388126
0.00393488
0.00398786
0.00404012
0.00409154
0.00414201
0.00419142
0.00423963
0.00428653
0.00433195
0.00437577
0.00441781
0.00445792
0.00449591
0.0045316
0.00456479
0.00459528
0.00462285
0.00464707
0.00466746
0.00468398
0.00469676
0.00470596
0.00471174
0.00471424
0.00471363
0.00471005
0.00470365
0.00469459
0.00468301
0.00466907
0.00465289
0.00463464
0.00461444
0.00459243
0.00456874
0.00454351
0.00451686
0.0044889
0.00445975
0.00442954
0.00439835
0.0043663
0.00433348
0.00429999
0.00426591
0.00423133
0.00419633
0.00416097
0.00412533
0.00408946
0.00405342
0.00401726
0.00398102
0.00394473
0.00390843
0.00387214
0.00383587
0.00379963
0.00376342
0.00372724
0.00369106
0.00365487
0.00361863
0.00358231
0.00354587
0.00350925
0.00347239
0.00343524
0.00339771
0.00335974
0.00332125
0.00328216
0.00324238
0.00320183
0.00316043
0.00311809
0.00307474
0.00303031
0.00298471
0.00293789
0.0028898
0.00284038
0.00294261
0.00299685
0.0030514
0.00310625
0.00316134
0.00321666
0.00327216
0.00332782
0.00338358
0.0034394
0.00349524
0.00355102
0.00360671
0.00366223
0.00371753
0.00377252
0.00382714
0.0038813
0.00393492
0.00398791
0.00404016
0.00409158
0.00414206
0.00419147
0.00423968
0.00428658
0.00433201
0.00437583
0.00441787
0.00445798
0.00449597
0.00453166
0.00456486
0.00459535
0.00462293
0.00464715
0.00466755
0.00468408
0.00469687
0.00470608
0.00471187
0.00471439
0.0047138
0.00471024
0.00470386
0.00469482
0.00468327
0.00466935
0.0046532
0.00463498
0.00461481
0.00459284
0.00456919
0.004544
0.00451738
0.00448946
0.00446036
0.00443018
0.00439904
0.00436703
0.00433426
0.00430081
0.00426677
0.00423223
0.00419727
0.00416195
0.00412634
0.0040905
0.00405448
0.00401834
0.00398211
0.00394582
0.00390951
0.0038732
0.0038369
0.00380061
0.00376434
0.00372807
0.00369179
0.00365547
0.00361909
0.0035826
0.00354596
0.00350911
0.003472
0.00343455
0.00339671
0.00335839
0.00331952
0.00328002
0.0032398
0.00319879
0.00315689
0.00311405
0.00307016
0.00302518
0.00297902
0.00293163
0.00288297
0.00283298
0.00294264
0.00299689
0.00305144
0.00310628
0.00316137
0.00321669
0.0032722
0.00332785
0.00338362
0.00343944
0.00349527
0.00355106
0.00360675
0.00366227
0.00371757
0.00377256
0.00382718
0.00388134
0.00393496
0.00398795
0.00404021
0.00409163
0.0041421
0.00419151
0.00423973
0.00428663
0.00433206
0.00437588
0.00441793
0.00445804
0.00449603
0.00453173
0.00456492
0.00459542
0.00462301
0.00464724
0.00466765
0.00468418
0.00469698
0.0047062
0.00471201
0.00471454
0.00471397
0.00471042
0.00470407
0.00469505
0.00468353
0.00466963
0.00465352
0.00463533
0.0046152
0.00459326
0.00456965
0.00454449
0.00451791
0.00449004
0.00446098
0.00443084
0.00439974
0.00436778
0.00433505
0.00430164
0.00426765
0.00423315
0.00419823
0.00416294
0.00412736
0.00409155
0.00405556
0.00401943
0.00398321
0.00394692
0.0039106
0.00387426
0.00383792
0.00380158
0.00376524
0.00372888
0.00369249
0.00365604
0.00361949
0.00358282
0.00354597
0.00350888
0.00347149
0.00343375
0.00339557
0.00335689
0.00331763
0.0032777
0.00323703
0.00319554
0.00315314
0.00310977
0.00306535
0.0030198
0.00297308
0.00292512
0.00287588
0.00282532
0.00294267
0.00299692
0.00305147
0.00310631
0.00316141
0.00321673
0.00327223
0.00332789
0.00338365
0.00343948
0.00349531
0.0035511
0.00360679
0.00366231
0.0037176
0.0037726
0.00382722
0.00388138
0.00393501
0.003988
0.00404025
0.00409168
0.00414215
0.00419156
0.00423978
0.00428668
0.00433211
0.00437593
0.00441798
0.00445809
0.00449609
0.00453179
0.00456499
0.00459549
0.00462308
0.00464732
0.00466774
0.00468427
0.00469709
0.00470633
0.00471214
0.0047147
0.00471413
0.00471061
0.00470428
0.00469529
0.00468379
0.00466993
0.00465384
0.00463568
0.00461559
0.00459369
0.00457011
0.004545
0.00451846
0.00449063
0.00446161
0.00443152
0.00440047
0.00436855
0.00433586
0.0043025
0.00426855
0.00423409
0.0041992
0.00416396
0.00412841
0.00409262
0.00405665
0.00402054
0.00398432
0.00394803
0.00391169
0.00387532
0.00383894
0.00380253
0.00376611
0.00372965
0.00369314
0.00365655
0.00361983
0.00358296
0.00354588
0.00350854
0.00347087
0.00343281
0.00339429
0.00335523
0.00331556
0.00327519
0.00323406
0.00319208
0.00314917
0.00310526
0.00306029
0.00301418
0.00296688
0.00291835
0.00286854
0.00281741
0.0029427
0.00299695
0.0030515
0.00310634
0.00316144
0.00321676
0.00327227
0.00332793
0.00338369
0.00343951
0.00349535
0.00355114
0.00360682
0.00366235
0.00371764
0.00377264
0.00382726
0.00388143
0.00393505
0.00398804
0.0040403
0.00409172
0.0041422
0.00419161
0.00423983
0.00428673
0.00433216
0.00437599
0.00441804
0.00445815
0.00449615
0.00453185
0.00456506
0.00459556
0.00462316
0.0046474
0.00466783
0.00468437
0.0046972
0.00470645
0.00471228
0.00471485
0.00471431
0.0047108
0.0047045
0.00469553
0.00468406
0.00467022
0.00465417
0.00463605
0.00461599
0.00459412
0.00457059
0.00454552
0.00451902
0.00449123
0.00446226
0.00443222
0.00440121
0.00436933
0.00433669
0.00430338
0.00426947
0.00423505
0.0042002
0.00416499
0.00412947
0.00409371
0.00405776
0.00402165
0.00398544
0.00394914
0.00391278
0.00387638
0.00383994
0.00380347
0.00376696
0.00373039
0.00369375
0.003657
0.0036201
0.00358302
0.0035457
0.00350809
0.00347012
0.00343173
0.00339285
0.0033534
0.0033133
0.00327249
0.00323088
0.00318839
0.00314496
0.00310051
0.00305498
0.00300831
0.00296044
0.00291133
0.00286094
0.00280926
0.00294273
0.00299698
0.00305153
0.00310638
0.00316147
0.00321679
0.0032723
0.00332796
0.00338373
0.00343955
0.00349538
0.00355117
0.00360686
0.00366239
0.00371768
0.00377268
0.0038273
0.00388147
0.00393509
0.00398808
0.00404034
0.00409176
0.00414224
0.00419165
0.00423988
0.00428678
0.00433221
0.00437604
0.00441809
0.00445821
0.00449621
0.00453191
0.00456512
0.00459563
0.00462323
0.00464748
0.00466791
0.00468447
0.00469731
0.00470657
0.00471242
0.004715
0.00471448
0.004711
0.00470471
0.00469578
0.00468433
0.00467053
0.00465451
0.00463642
0.0046164
0.00459457
0.00457108
0.00454605
0.0045196
0.00449185
0.00446293
0.00443293
0.00440197
0.00437014
0.00433754
0.00430427
0.00427041
0.00423604
0.00420122
0.00416604
0.00413056
0.00409482
0.00405888
0.00402279
0.00398657
0.00395025
0.00391387
0.00387742
0.00384093
0.00380438
0.00376777
0.00373109
0.0036943
0.00365738
0.0036203
0.00358299
0.00354542
0.00350752
0.00346924
0.0034305
0.00339124
0.00335138
0.00331085
0.00326958
0.00322747
0.00318448
0.00314051
0.00309551
0.00304942
0.00300218
0.00295373
0.00290405
0.0028531
0.00280085
0.00294276
0.00299701
0.00305156
0.00310641
0.00316151
0.00321683
0.00327234
0.003328
0.00338376
0.00343959
0.00349542
0.00355121
0.0036069
0.00366242
0.00371772
0.00377272
0.00382734
0.00388151
0.00393513
0.00398812
0.00404038
0.00409181
0.00414229
0.0041917
0.00423992
0.00428682
0.00433226
0.00437609
0.00441814
0.00445826
0.00449627
0.00453197
0.00456519
0.0045957
0.00462331
0.00464756
0.004668
0.00468457
0.00469742
0.00470669
0.00471256
0.00471516
0.00471466
0.0047112
0.00470494
0.00469603
0.00468461
0.00467084
0.00465486
0.0046368
0.00461682
0.00459503
0.00457158
0.00454659
0.00452019
0.00449249
0.00446361
0.00443366
0.00440274
0.00437096
0.00433842
0.00430519
0.00427137
0.00423704
0.00420227
0.00416712
0.00413166
0.00409595
0.00406002
0.00402393
0.0039877
0.00395137
0.00391495
0.00387846
0.0038419
0.00380527
0.00376855
0.00373174
0.0036948
0.0036577
0.0036204
0.00358286
0.00354502
0.00350683
0.00346822
0.00342912
0.00338947
0.00334919
0.00330821
0.00326645
0.00322385
0.00318033
0.00313582
0.00309027
0.00304361
0.00299579
0.00294677
0.00289652
0.002845
0.00279221
0.00294279
0.00299704
0.0030516
0.00310644
0.00316154
0.00321686
0.00327237
0.00332803
0.0033838
0.00343962
0.00349546
0.00355125
0.00360693
0.00366246
0.00371776
0.00377276
0.00382738
0.00388155
0.00393517
0.00398816
0.00404042
0.00409185
0.00414233
0.00419174
0.00423997
0.00428687
0.00433231
0.00437614
0.00441819
0.00445831
0.00449632
0.00453203
0.00456525
0.00459577
0.00462338
0.00464764
0.00466809
0.00468467
0.00469753
0.00470682
0.0047127
0.00471532
0.00471483
0.0047114
0.00470516
0.00469628
0.0046849
0.00467116
0.00465521
0.00463719
0.00461725
0.0045955
0.0045721
0.00454715
0.00452079
0.00449314
0.00446431
0.00443441
0.00440354
0.00437181
0.00433931
0.00430613
0.00427236
0.00423807
0.00420333
0.00416821
0.00413278
0.00409709
0.00406117
0.00402508
0.00398884
0.00395249
0.00391603
0.00387948
0.00384284
0.00380612
0.00376929
0.00373233
0.00369523
0.00365793
0.00362041
0.00358262
0.0035445
0.00350599
0.00346704
0.00342757
0.00338751
0.00334679
0.00330535
0.00326311
0.00321999
0.00317594
0.00313089
0.00308477
0.00303754
0.00298915
0.00293955
0.00288873
0.00283665
0.00278332
0.00294282
0.00299707
0.00305163
0.00310647
0.00316157
0.0032169
0.00327241
0.00332807
0.00338383
0.00343966
0.00349549
0.00355128
0.00360697
0.0036625
0.0037178
0.00377279
0.00382742
0.00388158
0.00393521
0.0039882
0.00404047
0.00409189
0.00414237
0.00419179
0.00424001
0.00428692
0.00433236
0.00437619
0.00441825
0.00445837
0.00449638
0.00453209
0.00456531
0.00459584
0.00462345
0.00464772
0.00466818
0.00468477
0.00469764
0.00470694
0.00471284
0.00471548
0.00471502
0.00471161
0.0047054
0.00469654
0.00468519
0.00467149
0.00465557
0.00463759
0.00461769
0.00459599
0.00457263
0.00454773
0.00452142
0.00449381
0.00446503
0.00443518
0.00440436
0.00437268
0.00434023
0.0043071
0.00427336
0.00423911
0.00420441
0.00416933
0.00413392
0.00409824
0.00406233
0.00402624
0.00398998
0.0039536
0.00391709
0.00388048
0.00384376
0.00380693
0.00376997
0.00373286
0.00369558
0.00365808
0.00362033
0.00358227
0.00354385
0.00350502
0.0034657
0.00342584
0.00338536
0.0033442
0.00330228
0.00325954
0.0032159
0.00317131
0.0031257
0.00307902
0.00303121
0.00298224
0.00293208
0.00288069
0.00282807
0.0027742
0.00294285
0.00299709
0.00305166
0.0031065
0.0031616
0.00321693
0.00327244
0.0033281
0.00338387
0.00343969
0.00349553
0.00355132
0.00360701
0.00366253
0.00371783
0.00377283
0.00382745
0.00388162
0.00393525
0.00398824
0.00404051
0.00409193
0.00414241
0.00419183
0.00424006
0.00428696
0.0043324
0.00437624
0.0044183
0.00445842
0.00449643
0.00453215
0.00456537
0.0045959
0.00462353
0.0046478
0.00466827
0.00468487
0.00469775
0.00470707
0.00471299
0.00471564
0.0047152
0.00471182
0.00470564
0.00469681
0.00468549
0.00467182
0.00465595
0.00463801
0.00461814
0.00459649
0.00457317
0.00454832
0.00452206
0.00449451
0.00446577
0.00443597
0.00440521
0.00437357
0.00434117
0.00430808
0.00427439
0.00424018
0.00420552
0.00417046
0.00413508
0.00409941
0.00406351
0.0040274
0.00399112
0.0039547
0.00391813
0.00388145
0.00384464
0.00380769
0.0037706
0.00373333
0.00369585
0.00365813
0.00362013
0.00358179
0.00354306
0.00350388
0.00346419
0.00342393
0.00338302
0.00334139
0.00329899
0.00325573
0.00321157
0.00316643
0.00312026
0.003073
0.00302463
0.00297508
0.00292435
0.00287241
0.00281924
0.00276485
0.00294287
0.00299712
0.00305169
0.00310653
0.00316164
0.00321696
0.00327247
0.00332813
0.0033839
0.00343973
0.00349556
0.00355135
0.00360704
0.00366257