/*--------------------------------*- C++ -*----------------------------------*\
  =========                 |
  \\      /  F ield         | OpenFOAM: The Open Source CFD Toolbox
   \\    /   O peration     | Website:  https://openfoam.org
    \\  /    A nd           | Version:  10
     \\/     M anipulation  |
\*---------------------------------------------------------------------------*/
FoamFile
{
    format      ascii;
    class       volScalarField;
    location    "23000";
    object      nut;
}
// * * * * * * * * * * * * * * * * * * * * * * * * * * * * * * * * * * * * * //

dimensions      [0 2 -1 0 0 0 0];

internalField   nonuniform List<scalar> 
17969
(
3.28841e-09
3.17791e-07
2.23317e-06
5.89807e-06
9.37917e-06
1.1806e-05
1.34151e-05
1.32782e-05
1.31532e-05
1.3594e-05
1.48806e-05
1.73391e-05
2.15508e-05
2.80144e-05
3.23559e-05
3.78705e-05
4.47864e-05
5.32561e-05
6.33492e-05
7.50696e-05
8.83706e-05
0.000103165
0.000119334
0.000136747
0.000155264
0.000174752
0.000195088
0.000216159
0.000237869
0.000260137
0.000282893
0.000306083
0.000329662
0.000353593
0.00037785
0.000402413
0.000427263
0.00045239
0.000477783
0.000503434
0.000529334
0.000555475
0.000581847
0.00060844
0.00063524
0.000662231
0.000689394
0.000716705
0.000744139
0.000771665
0.000799246
0.000826844
0.000854413
0.000881904
0.000909262
0.000936427
0.000963334
0.000989912
0.00101609
0.00104178
0.0010669
0.00109136
0.00111506
0.00113791
0.0011598
0.00118062
0.00120026
0.0012186
0.00123554
0.00125094
0.00126469
0.00127667
0.00128675
0.00129479
0.0013006
0.00130409
0.00130539
0.00130471
0.00130214
0.00129779
0.00129175
0.0012841
0.00127487
0.0012641
0.00125178
0.00123796
0.0012227
0.00120613
0.0011885
0.00117012
0.00115144
0.00113452
0.00112062
0.00110913
0.0010996
0.00109174
0.00108541
0.00108055
0.00107718
0.0010753
2.38979e-09
2.35805e-07
1.85652e-06
5.6218e-06
9.76269e-06
1.31056e-05
1.53368e-05
1.67273e-05
1.67344e-05
1.60698e-05
1.5858e-05
1.64012e-05
1.79028e-05
2.06469e-05
2.51521e-05
3.19842e-05
3.70396e-05
4.24663e-05
4.91853e-05
5.73685e-05
6.71171e-05
7.84626e-05
9.13838e-05
0.00010582
0.000121679
0.000138848
0.0001572
0.000176609
0.000196949
0.000218105
0.000239972
0.000262459
0.000285488
0.000308992
0.000332917
0.000357216
0.000381854
0.0004068
0.000432031
0.000457526
0.000483268
0.000509243
0.000535435
0.000561831
0.000588415
0.000615171
0.00064208
0.000669119
0.000696265
0.000723488
0.000750757
0.000778035
0.00080528
0.000832447
0.000859486
0.00088634
0.000912948
0.000939245
0.000965159
0.000990613
0.00101553
0.00103981
0.00106338
0.00108613
0.00110796
0.00112877
0.00114845
0.00116689
0.00118397
0.00119957
0.00121358
0.00122587
0.00123631
0.0012448
0.00125111
0.00125515
0.00125707
0.00125705
0.00125526
0.00125172
0.00124655
0.00123982
0.00123155
0.00122178
0.00121051
0.00119775
0.00118355
0.00116801
0.00115135
0.00113385
0.00111588
0.00109903
0.0010848
0.001073
0.00106309
0.00105476
0.00104789
0.00104245
0.00103848
0.00103601
1.66918e-09
1.68921e-07
1.49604e-06
5.0989e-06
9.69764e-06
1.3874e-05
1.71104e-05
1.92768e-05
2.05316e-05
2.11108e-05
1.99135e-05
1.8951e-05
1.87066e-05
1.93107e-05
2.09215e-05
2.37971e-05
2.83734e-05
3.5201e-05
4.15976e-05
4.68691e-05
5.33212e-05
6.11366e-05
7.04479e-05
8.13251e-05
9.37768e-05
0.000107765
0.000123218
0.00014004
0.000158121
0.00017734
0.000197574
0.000218705
0.000240625
0.000263231
0.000286437
0.000310164
0.000334349
0.000358933
0.000383872
0.000409125
0.00043466
0.000460447
0.000486462
0.000512682
0.000539087
0.000565654
0.000592363
0.00061919
0.00064611
0.000673096
0.000700117
0.000727139
0.000754122
0.000781026
0.000807803
0.0008344
0.000860761
0.000886824
0.000912521
0.000937782
0.000962527
0.000986675
0.00101014
0.00103282
0.00105463
0.00107546
0.00109521
0.00111377
0.00113101
0.00114683
0.00116111
0.00117373
0.00118457
0.0011935
0.00120032
0.00120492
0.00120746
0.00120812
0.00120708
0.00120435
0.00120004
0.00119422
0.00118695
0.00117823
0.00116807
0.00115647
0.00114346
0.00112913
0.00111366
0.00109729
0.00108036
0.00106379
0.00104934
0.00103738
0.00102722
0.00101856
0.00101126
0.00100535
0.00100086
0.000997875
1.10251e-09
1.14005e-07
1.13493e-06
4.41054e-06
9.15903e-06
1.39556e-05
1.80794e-05
2.1271e-05
2.34731e-05
2.47179e-05
2.53841e-05
2.4611e-05
2.30691e-05
2.19974e-05
2.17115e-05
2.2316e-05
2.39439e-05
2.68305e-05
3.13423e-05
3.80545e-05
4.61237e-05
5.12161e-05
5.73813e-05
6.48031e-05
7.36315e-05
8.39724e-05
9.58759e-05
0.000109335
0.000124299
0.000140686
0.000158397
0.000177321
0.000197339
0.000218333
0.00024019
0.000262804
0.000286076
0.00030992
0.000334261
0.00035903
0.000384172
0.000409636
0.000435379
0.000461364
0.000487558
0.000513929
0.000540449
0.000567088
0.000593819
0.000620612
0.000647435
0.000674253
0.00070103
0.000727726
0.000754295
0.000780688
0.000806853
0.000832732
0.00085826
0.00088337
0.000907989
0.000932037
0.000955432
0.000978084
0.0009999
0.00102078
0.00104062
0.00105932
0.00107675
0.00109282
0.0011074
0.00112037
0.00113161
0.00114101
0.00114834
0.00115351
0.00115665
0.00115798
0.00115767
0.00115573
0.00115228
0.0011474
0.00114113
0.00113352
0.00112455
0.0011113
0.00110033
0.00108947
0.00107532
0.00106026
0.00104458
0.00102862
0.00101419
0.00100222
0.000991969
0.00098311
0.000975524
0.00096924
0.000964339
0.000960905
0.000959002
0.00095866
0.00095988
0.000962628
6.73963e-10
7.0902e-08
7.84935e-07
3.54381e-06
8.10583e-06
1.31751e-05
1.78688e-05
2.18078e-05
2.48504e-05
2.69749e-05
2.82348e-05
2.89107e-05
2.9482e-05
2.80219e-05
2.63602e-05
2.52278e-05
2.48735e-05
2.54206e-05
2.69915e-05
2.98132e-05
3.42153e-05
4.074e-05
4.98335e-05
5.56038e-05
6.14963e-05
6.85398e-05
7.6892e-05
8.66768e-05
9.79792e-05
0.000110835
0.000125226
0.000141092
0.000158342
0.000176872
0.000196568
0.000217313
0.000238992
0.000261493
0.000284712
0.000308554
0.000332933
0.000357771
0.000383001
0.000408563
0.000434404
0.000460477
0.000486738
0.000513149
0.000539671
0.000566269
0.000592906
0.000619545
0.000646147
0.000672671
0.000699074
0.000725307
0.00075132
0.000777057
0.000802458
0.000827459
0.00085199
0.000875977
0.000899339
0.000921991
0.000943843
0.000964801
0.000984763
0.00100362
0.00102128
0.00103761
0.0010525
0.00106584
0.00107751
0.00108739
0.00109525
0.00110098
0.00110473
0.0011067
0.00110709
0.00110596
0.00110336
0.00109941
0.00109418
0.00108667
0.00106936
0.00105345
0.00104044
0.0010307
0.00102427
0.00101916
0.00100814
0.000993341
0.000979419
0.000967493
0.000957292
0.000948381
0.000940646
0.000934127
0.00092893
0.000925165
0.000922919
0.000922243
0.000923153
0.000925626
3.89826e-10
4.13883e-08
4.94368e-07
2.60949e-06
6.66943e-06
1.15737e-05
1.6451e-05
2.0759e-05
2.42717e-05
2.6916e-05
2.87003e-05
2.98215e-05
3.07611e-05
3.17039e-05
3.2651e-05
3.14418e-05
2.98043e-05
2.86188e-05
2.81689e-05
2.86167e-05
3.00899e-05
3.28076e-05
3.70873e-05
4.33368e-05
5.20253e-05
6.00785e-05
6.5735e-05
7.24404e-05
8.03559e-05
8.9612e-05
0.000100311
0.00011252
0.000126264
0.000141516
0.000158209
0.000176246
0.000195517
0.000215905
0.00023729
0.000259559
0.000282602
0.000306316
0.000330607
0.000355387
0.000380579
0.000406113
0.000431926
0.000457961
0.000484165
0.00051049
0.000536888
0.000563316
0.000589729
0.000616081
0.000642327
0.000668417
0.000694302
0.000719925
0.00074523
0.000770153
0.000794629
0.000818584
0.000841944
0.000864625
0.000886543
0.000907604
0.000927711
0.000946764
0.000964655
0.000981273
0.000996506
0.00101023
0.00102234
0.00103272
0.00104112
0.00104742
0.00105177
0.00105439
0.00105545
0.00105512
0.0010534
0.00105038
0.00104618
0.00103273
0.00101581
0.000999634
0.000984438
0.000971427
0.00096211
0.00095719
0.000955787
0.000954425
0.000944679
0.000932976
0.000923011
0.000914231
0.000906511
0.000899908
0.000894548
0.000890566
0.000888074
0.000887145
0.000887813
0.00089007
2.22034e-10
2.36207e-08
2.92151e-07
1.77129e-06
5.10475e-06
9.52576e-06
1.41782e-05
1.85087e-05
2.21903e-05
2.50611e-05
2.70973e-05
2.84749e-05
2.97097e-05
3.10131e-05
3.24152e-05
3.3885e-05
3.53488e-05
3.49025e-05
3.33704e-05
3.21378e-05
3.15841e-05
3.19161e-05
3.32826e-05
3.58776e-05
3.99804e-05
4.59191e-05
5.42295e-05
6.4676e-05
7.01384e-05
7.65539e-05
8.40819e-05
9.28584e-05
0.000102992
0.000114565
0.000127627
0.000142191
0.000158225
0.000175658
0.000194391
0.000214306
0.000235283
0.000257201
0.000279944
0.000303403
0.000327475
0.000352064
0.000377085
0.000402456
0.000428105
0.000453966
0.000479976
0.000506076
0.000532212
0.00055833
0.000584376
0.000610297
0.000636039
0.000661545
0.000686757
0.000711613
0.000736046
0.000759988
0.000783363
0.000806094
0.000828096
0.00084928
0.000869553
0.000888815
0.000906963
0.000923888
0.000939477
0.000953614
0.000966184
0.000977068
0.000986023
0.000992915
0.000997888
0.00100116
0.00100293
0.0010034
0.00100253
0.00100047
0.000995404
0.000978574
0.000962393
0.000947095
0.000932152
0.000918123
0.000906067
0.000897437
0.000893609
0.000894587
0.000898128
0.000898608
0.000889079
0.000880603
0.000873061
0.00086652
0.000861129
0.000857048
0.000854411
0.000853316
0.000853814
0.000855913
0.000859581
1.32243e-10
1.4007e-08
1.72555e-07
1.15102e-06
3.71208e-06
7.46414e-06
1.16692e-05
1.57654e-05
1.93911e-05
2.23343e-05
2.44826e-05
2.59618e-05
2.73191e-05
2.87829e-05
3.03965e-05
3.21642e-05
3.40664e-05
3.60334e-05
3.79774e-05
3.84158e-05
3.70371e-05
3.57825e-05
3.51409e-05
3.53644e-05
3.6618e-05
3.90627e-05
4.29704e-05
4.86791e-05
5.66087e-05
6.7123e-05
7.47164e-05
8.08914e-05
8.8085e-05
9.64373e-05
0.000106059
0.000117038
0.000129436
0.000143288
0.000158594
0.000175317
0.000193385
0.000212695
0.000233132
0.000254569
0.000276884
0.000299958
0.000323678
0.000347942
0.000372653
0.000397721
0.000423065
0.000448608
0.000474278
0.000500008
0.000525732
0.000551389
0.000576916
0.00060225
0.00062733
0.000652091
0.000676466
0.000700384
0.000723772
0.000746552
0.000768643
0.000789957
0.000810403
0.000829885
0.0008483
0.000865542
0.0008815
0.000896061
0.000909106
0.000920521
0.000930052
0.000937554
0.000943169
0.000947117
0.000949611
0.000950857
0.000950921
0.000949847
0.000940832
0.000924605
0.000909325
0.000894838
0.000880856
0.00086752
0.000855185
0.000844699
0.00083747
0.000835105
0.000838471
0.000845998
0.000852517
0.000847511
0.000840276
0.000833926
0.000828628
0.000824563
0.000821887
0.000820717
0.000821125
0.000823134
0.000826722
0.000831828
0.000838362
8.6983e-11
9.13503e-09
1.09287e-07
7.62448e-07
2.67665e-06
5.74565e-06
9.41469e-06
1.31815e-05
1.66759e-05
1.964e-05
2.19069e-05
2.34663e-05
2.47684e-05
2.61846e-05
2.7774e-05
2.95621e-05
3.15443e-05
3.37043e-05
3.60098e-05
3.83785e-05
4.07224e-05
4.20195e-05
4.08167e-05
3.95687e-05
3.8867e-05
3.89893e-05
4.01236e-05
4.243e-05
4.61715e-05
5.16565e-05
5.92035e-05
6.92407e-05
7.94773e-05
8.54565e-05
9.23642e-05
0.000100343
0.000109507
0.000119944
0.000131722
0.000144884
0.000159448
0.000175402
0.000192703
0.000211276
0.000231022
0.000251825
0.00027356
0.000296101
0.000319326
0.000343121
0.000367378
0.000391999
0.00041689
0.000441966
0.000467145
0.000492351
0.000517508
0.000542545
0.000567391
0.000591975
0.000616226
0.000640069
0.00066343
0.000686231
0.000708388
0.000729815
0.000750423
0.000770117
0.000788795
0.000806355
0.000822687
0.000837678
0.000851214
0.000863181
0.000873316
0.000881465
0.000887767
0.000892445
0.000895714
0.000897779
0.000898833
0.000898806
0.000887193
0.000871402
0.000856919
0.000843331
0.000830474
0.000818392
0.000807121
0.000796891
0.00078841
0.000783037
0.000782526
0.000787982
0.000798871
0.000810443
0.000808078
0.000802043
0.000796966
0.00079304
0.000790439
0.000789298
0.000789706
0.000791702
0.000795278
0.000800382
0.000806927
0.000814801
6.45842e-11
6.71916e-09
7.73479e-08
5.43642e-07
2.00417e-06
4.5035e-06
7.65896e-06
1.10735e-05
1.44224e-05
1.74432e-05
1.99285e-05
2.17298e-05
2.29491e-05
2.41567e-05
2.55145e-05
2.70797e-05
2.88747e-05
3.09013e-05
3.31495e-05
3.56028e-05
3.82227e-05
4.09182e-05
4.35997e-05
4.56965e-05
4.47008e-05
4.34983e-05
4.2772e-05
4.28184e-05
4.38573e-05
4.60513e-05
4.96306e-05
5.48987e-05
6.21286e-05
7.17784e-05
8.41093e-05
9.02497e-05
9.69139e-05
0.000104563
0.000113315
0.00012326
0.000134466
0.000146981
0.000160828
0.000176008
0.000192497
0.000210243
0.00022917
0.000249183
0.000270166
0.000291999
0.000314556
0.000337713
0.000361353
0.000385365
0.000409645
0.000434094
0.000458622
0.000483141
0.000507567
0.000531819
0.000555815
0.000579475
0.00060272
0.000625466
0.000647628
0.00066912
0.00068985
0.000709725
0.000728645
0.000746507
0.000763206
0.000778632
0.000792675
0.000805223
0.000816008
0.000824864
0.000831929
0.000837423
0.000841562
0.000844556
0.00084661
0.000847694
0.000835015
0.000819787
0.000806054
0.000793367
0.000781599
0.000770731
0.000760703
0.00075157
0.000743549
0.000736878
0.000732888
0.000733246
0.000739269
0.000751153
0.00076527
0.000770717
0.000766021
0.000762381
0.000759985
0.000758986
0.000759491
0.000761555
0.000765184
0.000770337
0.000776933
0.000784863
0.000793994
0.000804186
5.34787e-11
5.52011e-09
6.12306e-08
4.25753e-07
1.60167e-06
3.68786e-06
6.41679e-06
9.49356e-06
1.26688e-05
1.57214e-05
1.84473e-05
2.06622e-05
2.22202e-05
2.32516e-05
2.42929e-05
2.54841e-05
2.6888e-05
2.85378e-05
3.045e-05
3.26273e-05
3.50621e-05
3.77403e-05
4.06175e-05
4.3593e-05
4.65741e-05
4.94145e-05
4.8671e-05
4.75807e-05
4.68921e-05
4.69055e-05
4.78714e-05
4.99687e-05
5.34012e-05
5.84878e-05
6.55316e-05
7.48355e-05
8.66783e-05
9.52557e-05
0.000101714
0.000109074
0.000117456
0.000126952
0.000137631
0.000149541
0.00016271
0.000177142
0.000192823
0.000209713
0.000227753
0.000246865
0.000266953
0.000287906
0.000309607
0.000331933
0.000354762
0.000377974
0.000401454
0.000425094
0.000448791
0.000472445
0.000495962
0.000519249
0.000542216
0.000564771
0.000586826
0.000608289
0.000629065
0.000649061
0.000668177
0.000686313
0.000703366
0.000719232
0.000733804
0.000746978
0.000758478
0.000768125
0.000776048
0.00078246
0.000787565
0.000791556
0.000794612
0.000796888
0.000784579
0.000770217
0.000757301
0.000745396
0.000734487
0.000724542
0.000714894
0.000706147
0.000698301
0.000691588
0.000686615
0.000684384
0.000686062
0.000693188
0.000706575
0.000723726
0.000735724
0.000732522
0.000730465
0.000729726
0.000730427
0.000732644
0.000736396
0.000741653
0.000748344
0.000756362
0.000765578
0.000775849
0.000787027
0.000798964
0.000811518
0.000824559
4.82028e-11
4.94917e-09
5.32465e-08
3.64015e-07
1.37381e-06
3.18958e-06
5.60406e-06
8.39267e-06
1.13751e-05
1.43901e-05
1.72763e-05
1.98655e-05
2.19872e-05
2.3483e-05
2.44077e-05
2.52447e-05
2.62e-05
2.73423e-05
2.87243e-05
3.03826e-05
3.23391e-05
3.46016e-05
3.71665e-05
4.0023e-05
4.3119e-05
4.63432e-05
4.95963e-05
5.28118e-05
5.27254e-05
5.18533e-05
5.12595e-05
5.12825e-05
5.22011e-05
5.42206e-05
5.75487e-05
6.25136e-05
6.93925e-05
7.84165e-05
8.98898e-05
0.00010047
0.000106754
0.000113858
0.000121905
0.000130987
0.000141175
0.000152519
0.000165047
0.000178766
0.000193665
0.00020971
0.000226851
0.000245019
0.00026413
0.000284088
0.000304785
0.000326106
0.000347933
0.000370145
0.000392623
0.000415251
0.000437916
0.000460508
0.000482922
0.000505056
0.000526808
0.000548079
0.000568771
0.000588783
0.000608018
0.000626376
0.000643755
0.000660057
0.00067518
0.000689026
0.000701307
0.000711826
0.000720694
0.00072811
0.000734261
0.000739324
0.000743466
0.000746845
0.000736203
0.000722858
0.000710755
0.000699029
0.000688191
0.000678267
0.000669216
0.000661032
0.000653792
0.000647659
0.000642941
0.000640193
0.00063995
0.000643303
0.000652068
0.000667197
0.00068699
0.00070343
0.000701842
0.000701476
0.000702472
0.000704924
0.000708866
0.000714283
0.00072111
0.00072925
0.000738576
0.000748947
0.000760213
0.000772225
0.00078484
0.000797925
4.61846e-11
4.72856e-09
4.96806e-08
3.33693e-07
1.25324e-06
2.90744e-06
5.11484e-06
7.6892e-06
1.04951e-05
1.34208e-05
1.63554e-05
1.91757e-05
2.17413e-05
2.38959e-05
2.54771e-05
2.64264e-05
2.70545e-05
2.77505e-05
2.85813e-05
2.96171e-05
3.09149e-05
3.25204e-05
3.44641e-05
3.67608e-05
3.9412e-05
4.24104e-05
4.56962e-05
4.91477e-05
5.26598e-05
5.61643e-05
5.69071e-05
5.63372e-05
5.58901e-05
5.59676e-05
5.68727e-05
5.88621e-05
6.21505e-05
6.70303e-05
7.37952e-05
8.26377e-05
9.38521e-05
0.000105886
0.000112024
0.0001189
0.000126641
0.000135339
0.000145066
0.000155873
0.00016779
0.000180827
0.000194974
0.000210199
0.000226456
0.00024368
0.000261796
0.000280713
0.000300332
0.000320547
0.000341244
0.000362307
0.000383618
0.000405059
0.000426513
0.000447865
0.000469003
0.000489818
0.000510202
0.00053005
0.000549258
0.000567726
0.000585353
0.000602041
0.000617692
0.000632207
0.000645286
0.0006567
0.00066654
0.000674988
0.000682204
0.000688337
0.000693549
0.000697946
0.000689818
0.000676894
0.000664914
0.000653806
0.000643406
0.000633839
0.000625193
0.000617501
0.000610835
0.000605317
0.000601156
0.000598682
0.000598106
0.000599877
0.000605357
0.000616183
0.00063334
0.000655373
0.000674086
0.000674199
0.000675583
0.000678346
0.000682541
0.000688163
0.000695163
0.000703448
0.000712898
0.000723372
0.000734724
0.000746802
0.000759464
0.000772575
4.63112e-11
4.73641e-09
4.88297e-08
3.22357e-07
1.20013e-06
2.76957e-06
4.85758e-06
7.29563e-06
9.97143e-06
1.28021e-05
1.57139e-05
1.86268e-05
2.14458e-05
2.40519e-05
2.63092e-05
2.80672e-05
2.91837e-05
2.97348e-05
3.01772e-05
3.07035e-05
3.13746e-05
3.22599e-05
3.34262e-05
3.4931e-05
3.68157e-05
3.91042e-05
4.18042e-05
4.49136e-05
4.83648e-05
5.20255e-05
5.57847e-05
5.95696e-05
6.12414e-05
6.1046e-05
6.08035e-05
6.09995e-05
6.19508e-05
6.39552e-05
6.72434e-05
7.20902e-05
7.88188e-05
8.75866e-05
9.86405e-05
0.000111498
0.000117511
0.000124185
0.000131646
0.000139985
0.000149276
0.00015957
0.0001709
0.000183278
0.000196695
0.000211123
0.000226518
0.000242818
0.00025995
0.000277827
0.000296356
0.000315435
0.000334954
0.000354803
0.000374866
0.000395027
0.00041517
0.00043518
0.000454946
0.000474355
0.0004933
0.000511675
0.000529377
0.000546308
0.000562368
0.000577455
0.000591247
0.00060349
0.000614237
0.000623676
0.000631915
0.000639047
0.000645179
0.000650426
0.000644921
0.000632684
0.00062115
0.000610564
0.000600695
0.000591635
0.000583465
0.000576236
0.00057003
0.000564971
0.000561243
0.000559119
0.000558789
0.0005603
0.000564352
0.000572313
0.000585591
0.000605069
0.000628965
0.000647864
0.00064972
0.000652864
0.000657365
0.000663234
0.000670434
0.000678881
0.000688461
0.000699039
0.000710468
0.0007226
0.000735292
0.000748408
4.80671e-11
4.91788e-09
4.99299e-08
3.23983e-07
1.19263e-06
2.73061e-06
4.76469e-06
7.13352e-06
9.73644e-06
1.24991e-05
1.53701e-05
1.8297e-05
2.12188e-05
2.40606e-05
2.67297e-05
2.91127e-05
3.10764e-05
3.24706e-05
3.32021e-05
3.34649e-05
3.3723e-05
3.40664e-05
3.45536e-05
3.52588e-05
3.62607e-05
3.76298e-05
3.94202e-05
4.16665e-05
4.43841e-05
4.75774e-05
5.11704e-05
5.50214e-05
5.90137e-05
6.30669e-05
6.57407e-05
6.59975e-05
6.60374e-05
6.6422e-05
6.74765e-05
6.95436e-05
7.28846e-05
7.77687e-05
8.45467e-05
9.33422e-05
0.000104319
0.000117297
0.000123204
0.0001297
0.000136903
0.000144907
0.000153782
0.000163583
0.000174343
0.000186079
0.000198784
0.000212433
0.000226985
0.00024238
0.000258547
0.000275405
0.00029286
0.000310813
0.000329161
0.000347794
0.000366602
0.000385472
0.000404292
0.000422951
0.00044134
0.00045935
0.000476877
0.000493819
0.000510076
0.000525541
0.00053987
0.000552806
0.000564333
0.000574547
0.000583584
0.000591544
0.000598467
0.000604451
0.000602612
0.000591083
0.000579929
0.000569817
0.000560444
0.000551877
0.000544194
0.000537435
0.000531672
0.000527019
0.000523636
0.000521769
0.000521713
0.000523388
0.000527002
0.000533575
0.000544262
0.000560284
0.000582318
0.000607715
0.000624847
0.000628433
0.000633286
0.000639435
0.000646854
0.000655473
0.000665184
0.000675858
0.000687351
0.000699517
0.000712213
0.000725306
0.000738674
5.12448e-11
5.25115e-09
5.26497e-08
3.35625e-07
1.21888e-06
2.76333e-06
4.79044e-06
7.13476e-06
9.70329e-06
1.24353e-05
1.52852e-05
1.82125e-05
2.11756e-05
2.41267e-05
2.70075e-05
2.9745e-05
3.22479e-05
3.44043e-05
3.60817e-05
3.71341e-05
3.75316e-05
3.75684e-05
3.76408e-05
3.77972e-05
3.80922e-05
3.86059e-05
3.9428e-05
4.06426e-05
4.23172e-05
4.44981e-05
4.72097e-05
5.0464e-05
5.41766e-05
5.81983e-05
6.24076e-05
6.67154e-05
7.04321e-05
7.121e-05
7.16066e-05
7.22591e-05
7.3497e-05
7.56867e-05
7.91414e-05
8.41453e-05
9.10631e-05
9.99821e-05
0.000110949
0.000123275
0.000129094
0.000135431
0.000142399
0.000150087
0.000158566
0.00016789
0.000178097
0.000189205
0.000201211
0.000214095
0.000227818
0.000242325
0.000257547
0.000273405
0.00028981
0.000306664
0.000323869
0.000341318
0.000358905
0.000376523
0.000394065
0.000411424
0.000428497
0.000445181
0.000461377
0.000476988
0.000491629
0.000504949
0.000516978
0.00052776
0.000537403
0.000546007
0.000553624
0.000560317
0.000563245
0.000552604
0.000541673
0.000531915
0.000522977
0.000514861
0.000507633
0.000501324
0.000495993
0.000491739
0.000488706
0.000487109
0.000487229
0.00048905
0.000492595
0.000498531
0.000507743
0.000521243
0.000540154
0.000564924
0.000591497
0.000605012
0.000610253
0.000616705
0.000624357
0.000633151
0.000642988
0.000653746
0.000665286
0.000677464
0.000690141
0.000703184
0.000716474
5.57814e-11
5.73054e-09
5.68631e-08
3.55849e-07
1.27256e-06
2.84662e-06
4.88955e-06
7.24978e-06
9.83169e-06
1.25734e-05
1.54306e-05
1.83681e-05
2.13538e-05
2.43551e-05
2.73351e-05
3.02493e-05
3.30418e-05
3.56415e-05
3.79585e-05
3.98822e-05
4.128e-05
4.20164e-05
4.21232e-05
4.19692e-05
4.18687e-05
4.18489e-05
4.19612e-05
4.22905e-05
4.29365e-05
4.39958e-05
4.5549e-05
4.76544e-05
5.03463e-05
5.36443e-05
5.74561e-05
6.16288e-05
6.60362e-05
7.058e-05
7.51885e-05
7.67082e-05
7.75447e-05
7.85354e-05
8.00351e-05
8.24246e-05
8.60825e-05
9.1315e-05
9.84703e-05
0.000107599
0.0001186
0.000129431
0.000135175
0.000141371
0.000148122
0.000155511
0.00016361
0.000172475
0.000182143
0.000192638
0.00020396
0.000216094
0.000229003
0.000242638
0.000256933
0.000271814
0.000287196
0.000302985
0.000319085
0.000335398
0.000351821
0.000368253
0.000384593
0.000400743
0.000416607
0.000432041
0.000446675
0.000460119
0.000472377
0.000483522
0.000493645
0.000502788
0.00051101
0.000518353
0.000524859
0.000517136
0.000506818
0.000497311
0.000488737
0.000481003
0.000474157
0.000468232
0.000463275
0.000459377
0.000456666
0.000455334
0.000455639
0.000457661
0.000461316
0.000466969
0.000475339
0.000487233
0.000503522
0.000525108
0.000552384
0.000581145
0.000588219
0.000594986
0.000602875
0.000611838
0.00062179
0.000632613
0.000644175
0.000656338
0.000668964
0.000681923
0.000695099
6.16943e-11
6.35933e-09
6.25511e-08
3.8397e-07
1.34653e-06
2.9652e-06
5.05619e-06
7.46473e-06
1.00914e-05
1.28716e-05
1.57599e-05
1.87225e-05
2.17314e-05
2.47615e-05
2.77882e-05
3.07838e-05
3.37156e-05
3.6542e-05
3.92094e-05
4.16484e-05
4.37704e-05
4.54649e-05
4.6598e-05
4.70494e-05
4.691e-05
4.6599e-05
4.63514e-05
4.618e-05
4.61345e-05
4.63032e-05
4.67938e-05
4.77138e-05
4.91562e-05
5.1191e-05
5.38623e-05
5.71926e-05
6.10854e-05
6.53888e-05
6.99712e-05
7.47244e-05
7.95783e-05
8.24602e-05
8.38668e-05
8.52712e-05
8.71298e-05
8.98252e-05
9.37993e-05
9.93894e-05
0.000106876
0.000116275
0.000127322
0.000135767
0.000141446
0.000147511
0.000154056
0.000161161
0.000168896
0.000177319
0.00018647
0.000196371
0.000207029
0.000218431
0.000230546
0.00024333
0.000256724
0.000270656
0.000285049
0.000299816
0.000314866
0.000330104
0.000345446
0.000360775
0.000375978
0.000390935
0.000405261
0.000418592
0.000430902
0.000442241
0.00045267
0.000462226
0.000470944
0.00047885
0.000485969
0.000484746
0.000475685
0.000466429
0.000458079
0.000450638
0.000444085
0.000438457
0.0004338
0.000430192
0.000427754
0.000426657
0.000427141
0.000429423
0.00043336
0.000439025
0.000446883
0.000457619
0.000472854
0.000491228
0.000514853
0.000542961
0.000567134
0.000574219
0.000582341
0.000591463
0.000601509
0.000612372
0.000623925
0.000636036
0.000648572
0.000661407
0.000674426
0.000687528
6.90239e-11
7.14341e-09
6.97282e-08
4.1957e-07
1.4354e-06
3.12031e-06
5.28256e-06
7.76206e-06
1.04549e-05
1.32929e-05
1.62289e-05
1.92285e-05
2.22654e-05
2.53183e-05
2.8369e-05
3.13995e-05
3.43909e-05
3.73203e-05
4.01582e-05
4.28657e-05
4.53907e-05
4.76645e-05
4.9598e-05
5.108e-05
5.19724e-05
5.2177e-05
5.18421e-05
5.1413e-05
5.10531e-05
5.07649e-05
5.05971e-05
5.06407e-05
5.10098e-05
5.18207e-05
5.31769e-05
5.51586e-05
5.78201e-05
6.11783e-05
6.51401e-05
6.95563e-05
7.42936e-05
7.92429e-05
8.43256e-05
8.85388e-05
9.05748e-05
9.24772e-05
9.48165e-05
9.79775e-05
0.000102396
0.000108467
0.00011636
0.000126023
0.000136902
0.000142287
0.000147898
0.000153833
0.000160179
0.000167014
0.000174407
0.000182411
0.000191069
0.000200403
0.000210424
0.000221122
0.000232474
0.00024444
0.000256968
0.000269995
0.000283455
0.000297261
0.000311321
0.000325548
0.000339816
0.000354021
0.000367791
0.000380777
0.000392928
0.000404277
0.000414841
0.000424655
0.000433735
0.000442094
0.000449745
0.000455316
0.000447948
0.000439341
0.000431306
0.000424037
0.000417659
0.000412239
0.000407789
0.000404389
0.000402163
0.000401267
0.000401931
0.00040443
0.000408585
0.00041434
0.000422511
0.000432179
0.000444496
0.000460269
0.000480423
0.000505715
0.000533881
0.000554347
0.000562691
0.000571953
0.000582067
0.000592937
0.000604445
0.000616465
0.00062887
0.000641538
0.00065436
0.000667238
7.7842e-11
8.09033e-09
7.83843e-08
4.61059e-07
1.54217e-06
3.30959e-06
5.55981e-06
8.12576e-06
1.08984e-05
1.3806e-05
1.67992e-05
1.98426e-05
2.29105e-05
2.59837e-05
2.90475e-05
3.209e-05
3.51003e-05
3.80669e-05
4.09755e-05
4.38066e-05
4.6533e-05
4.91167e-05
5.15054e-05
5.3629e-05
5.5396e-05
5.66921e-05
5.73743e-05
5.73758e-05
5.69015e-05
5.63959e-05
5.59626e-05
5.55974e-05
5.53491e-05
5.53108e-05
5.56014e-05
5.63436e-05
5.76487e-05
5.96045e-05
6.22719e-05
6.56641e-05
6.96934e-05
7.42149e-05
7.9095e-05
8.42241e-05
8.9515e-05
9.48972e-05
9.77095e-05
0.00010021
0.00010314
0.000106908
0.000111929
0.000118624
0.000127111
0.000136966
0.000143607
0.000148962
0.0001545
0.000160309
0.00016647
0.000173055
0.000180128
0.000187742
0.000195936
0.000204738
0.000214159
0.000224195
0.000234829
0.000246029
0.000257746
0.000269926
0.000282491
0.000295368
0.00030847
0.000321691
0.000334676
0.000347083
0.000358848
0.000369984
0.000380493
0.000390389
0.000399677
0.000408351
0.000416417
0.000423833
0.000423144
0.000416015
0.000408418
0.000401417
0.000395167
0.000389788
0.000385413
0.000382116
0.000379999
0.000379243
0.000380022
0.000382588
0.000387154
0.000392712
0.000399917
0.000409055
0.000420333
0.000434209
0.000451435
0.000473017
0.000499269
0.000526706
0.00054386
0.000553234
0.000563382
0.00057422
0.00058564
0.000597524
0.000609752
0.000622208
0.000634786
0.000647394
8.82926e-11
9.21631e-09
8.86231e-08
5.08265e-07
1.66524e-06
3.52794e-06
5.87829e-06
8.54097e-06
1.14016e-05
1.43846e-05
1.74387e-05
2.05275e-05
2.36257e-05
2.67154e-05
2.97847e-05
3.28257e-05
3.58328e-05
3.88018e-05
4.17276e-05
4.46031e-05
4.74167e-05
5.01505e-05
5.27773e-05
5.52574e-05
5.7536e-05
5.95391e-05
6.11708e-05
6.23117e-05
6.28153e-05
6.26573e-05
6.20991e-05
6.15581e-05
6.10909e-05
6.06901e-05
6.04062e-05
6.03341e-05
6.05957e-05
6.13175e-05
6.26149e-05
6.45804e-05
6.72783e-05
7.07203e-05
7.48246e-05
7.94485e-05
8.44598e-05
8.97489e-05
9.52192e-05
0.000100806
0.000105206
0.000108481
0.00011214
0.000116724
0.000122562
0.000130058
0.000138995
0.00014521
0.000150455
0.00015577
0.000161235
0.000166926
0.000172916
0.00017927
0.00018605
0.000193305
0.000201074
0.000209387
0.000218255
0.000227679
0.000237645
0.000248125
0.000259079
0.000270459
0.000282203
0.000294227
0.000306209
0.000317816
0.000328977
0.000339683
0.00034993
0.000359712
0.000369025
0.000377855
0.000386192
0.000393998
0.000400804
0.000395823
0.00038912
0.00038255
0.000376551
0.000371299
0.000366934
0.000363598
0.000361451
0.000360682
0.000361685
0.000363928
0.000367851
0.000373307
0.000380332
0.000389163
0.000399884
0.000412626
0.000427768
0.000446079
0.000468501
0.000494865
0.000520899
0.000535242
0.000545383
0.000556143
0.000567427
0.000579125
0.000591126
0.00060332
0.000615607
0.000627898
1.00534e-10
1.05396e-08
1.00573e-07
5.61216e-07
1.80315e-06
3.7708e-06
6.22952e-06
8.9948e-06
1.19466e-05
1.50062e-05
1.81201e-05
2.12515e-05
2.43756e-05
2.74759e-05
3.0543e-05
3.35721e-05
3.65619e-05
3.95131e-05
4.24272e-05
4.53047e-05
4.8144e-05
5.09396e-05
5.36801e-05
5.6346e-05
5.89074e-05
6.13207e-05
6.3526e-05
6.54435e-05
6.69711e-05
6.79833e-05
6.8335e-05
6.8056e-05
6.74644e-05
6.69269e-05
6.64635e-05
6.60692e-05
6.57964e-05
6.57421e-05
6.60291e-05
6.67849e-05
6.81255e-05
7.01448e-05
7.2906e-05
7.64212e-05
8.06127e-05
8.53388e-05
9.04712e-05
9.59025e-05
0.000101538
0.000107306
0.000113131
0.000117384
0.000121908
0.00012748
0.000134537
0.000141664
0.000146982
0.000152219
0.00015744
0.000162712
0.000168104
0.000173683
0.000179515
0.000185661
0.000192174
0.0001991
0.000206482
0.000214344
0.000222704
0.000231567
0.000240927
0.000250768
0.000261059
0.000271743
0.000282545
0.000293161
0.000303517
0.000313594
0.000323377
0.000332849
0.000341995
0.000350799
0.000359238
0.00036727
0.000374838
0.000377702
0.000372982
0.000367162
0.000361579
0.000356577
0.000352316
0.00034902
0.000347103
0.000345941
0.000346131
0.000347962
0.000351627
0.000356951
0.000363809
0.000372431
0.000382807
0.000394865
0.000408661
0.000424571
0.000443387
0.00046592
0.00049155
0.000515669
0.000528006
0.000538637
0.000549732
0.000561192
0.000572913
0.000584793
0.000596738
0.000608665
1.14691e-10
1.20753e-08
1.14344e-07
6.20286e-07
1.95364e-06
4.03254e-06
6.60435e-06
9.47445e-06
1.25172e-05
1.56506e-05
1.88197e-05
2.19877e-05
2.51303e-05
2.82332e-05
3.12892e-05
3.42968e-05
3.72584e-05
4.01789e-05
4.30644e-05
4.59209e-05
4.87531e-05
5.15635e-05
5.43504e-05
5.71068e-05
5.98184e-05
6.24618e-05
6.50018e-05
6.73889e-05
6.95564e-05
7.14175e-05
7.28636e-05
7.37624e-05
7.39811e-05
7.36138e-05
7.30334e-05
7.25358e-05
7.21135e-05
7.17685e-05
7.15558e-05
7.1574e-05
7.19451e-05
7.27946e-05
7.42354e-05
7.63597e-05
7.92249e-05
8.28445e-05
8.71356e-05
9.19659e-05
9.72134e-05
0.000102771
0.000108544
0.000114445
0.000120401
0.000126346
0.000132218
0.000137947
0.000143506
0.00014891
0.000154194
0.000159402
0.000164589