/*--------------------------------*- C++ -*----------------------------------*\
  =========                 |
  \\      /  F ield         | OpenFOAM: The Open Source CFD Toolbox
   \\    /   O peration     | Website:  https://openfoam.org
    \\  /    A nd           | Version:  10
     \\/     M anipulation  |
\*---------------------------------------------------------------------------*/
FoamFile
{
    format      ascii;
    class       volScalarField;
    location    "23000";
    object      omega;
}
// * * * * * * * * * * * * * * * * * * * * * * * * * * * * * * * * * * * * * //

dimensions      [0 0 -1 0 0 0 0];

internalField   nonuniform List<scalar> 
17969
(
5562.21
1321.05
491.918
319.322
281.67
289.324
312.294
335.584
347.798
343.016
323.223
294.096
261.427
229.832
201.132
175.534
153.245
134.191
118.114
104.644
93.3822
83.9579
76.0481
69.3806
63.7303
58.9133
54.7802
51.2101
48.1055
45.3873
42.9916
40.8663
38.9689
37.2648
35.7252
34.3265
33.049
31.8765
30.7952
29.7937
28.8624
27.993
27.1786
26.4135
25.6925
25.0116
24.3671
23.7558
23.1752
22.6229
22.097
21.5959
21.1182
20.6625
20.2279
19.8134
19.4183
19.0418
18.6836
18.343
18.0197
17.7134
17.4238
17.1508
16.8942
16.654
16.4302
16.2229
16.0324
15.8589
15.703
15.5651
15.4463
15.3478
15.2722
15.2217
15.1963
15.1957
15.2204
15.2712
15.3495
15.4572
15.5969
15.7718
15.9858
16.2427
16.5469
16.9019
17.3101
17.7727
18.2885
18.8235
19.3506
19.8776
20.4109
20.9548
21.5104
22.0764
22.6498
23.2265
5562.29
1314.14
456.658
267.868
217.876
209.213
221.287
244.011
268.917
289.012
297.68
293.165
277.813
255.682
230.697
206.028
183.144
162.308
143.701
127.366
113.219
101.093
90.7581
81.9687
74.49
68.1129
62.657
57.9696
53.9226
50.4099
47.3439
44.6522
42.2753
40.1641
38.2781
36.5838
35.0534
33.6638
32.3957
31.2329
30.1619
29.1712
28.2513
27.394
26.5923
25.8404
25.1333
24.4667
23.8369
23.2409
22.676
22.1399
21.6305
21.1463
20.6858
20.2478
19.8311
19.4349
19.0585
18.7011
18.3622
18.0414
17.7382
17.4525
17.184
16.9326
16.6982
16.4809
16.2808
16.0981
15.9333
15.7868
15.6595
15.5524
15.4681
15.4088
15.3743
15.3641
15.3783
15.4181
15.4845
15.5796
15.7057
15.8661
16.0647
16.3057
16.5934
16.9319
17.3244
17.7727
18.277
18.813
19.3495
19.8867
20.4337
20.9958
21.5747
22.169
22.775
23.3883
5562.35
1314.14
433.348
235.095
177.407
159.872
159.566
170.42
189.706
212.35
234.594
251.348
258.405
255.32
243.952
227.149
207.72
187.965
169.236
151.899
136.084
121.886
109.309
98.288
88.7155
80.4459
73.3183
67.175
61.8721
57.2824
53.2963
49.8202
46.7752
44.0948
41.7234
39.6146
37.7296
36.036
34.5067
33.1189
31.8536
30.6947
29.6287
28.6442
27.7316
26.8825
26.0901
25.3483
24.6522
23.9974
23.3802
22.7974
22.2463
21.7246
21.2303
20.7617
20.3173
19.8959
19.4963
19.1178
18.7594
18.4207
18.1009
17.7998
17.517
17.2522
17.0053
16.7763
16.5651
16.3721
16.1973
16.0414
15.9049
15.7888
15.6957
15.6276
15.5842
15.5647
15.569
15.5982
15.6534
15.7362
15.8491
15.9953
16.1784
16.4028
16.673
16.9933
17.3673
17.7975
18.2851
18.8185
19.3634
19.9084
20.4669
21.045
21.6452
22.2659
22.9034
23.5525
5562.39
1316.64
417.375
210.912
149.399
127.448
121.084
123.299
131.948
146.871
165.964
186.545
206.049
220.364
226.866
225.424
217.355
204.656
189.403
173.346
157.779
143.152
129.548
117.108
105.879
95.8476
86.9699
79.1737
72.3633
66.4297
61.2624
56.7578
52.8225
49.3745
46.3429
43.6668
41.2946
39.1822
37.2926
35.5945
34.0614
32.6709
31.4043
30.2455
29.181
28.1995
27.2911
26.4477
25.662
24.9282
24.2411
23.5962
22.9899
22.4188
21.8803
21.372
20.8917
20.4378
20.0089
19.6035
19.2207
18.8595
18.5193
18.1992
17.8989
17.618
17.3562
17.1133
16.8892
16.684
16.498
16.3314
16.1849
16.0591
15.9567
15.8797
15.8274
15.7988
15.7935
15.8126
15.8568
15.9279
16.0278
16.1597
16.3272
16.5349
16.7874
17.0888
17.4429
17.8527
18.3202
18.8459
19.3956
19.9466
20.5141
21.1059
21.7251
22.3705
23.0382
23.7226
24.4174
25.1163
25.8126
26.5001
5562.42
1320.97
406.812
191.905
128.202
104.329
95.4178
93.9692
97.4538
105.119
116.996
132.403
148.934
166.024
182.426
194.775
201.029
201.009
195.557
186.045
174.038
160.923
147.862
135.39
123.607
112.655
102.61
93.4947
85.2955
77.9775
71.4908
65.7704
60.7406
56.3223
52.4387
49.0193
46.0012
43.3289
40.9547
38.8373
36.9414
35.2368
33.6977
32.3025
31.0324
29.8716
28.8067
27.8262
26.9203
26.0808
25.3004
24.5731
23.8936
23.2576
22.6611
22.1009
21.5741
21.0785
20.6118
20.1723
19.7585
19.3692
19.0032
18.6597
18.3379
18.0373
17.7573
17.4977
17.2582
17.0388
16.8396
16.6608
16.5028
16.3664
16.254
16.1676
16.1063
16.0686
16.054
16.063
16.0965
16.1558
16.2426
16.3597
16.5111
16.7017
16.9363
17.2194
17.5547
17.9448
18.3924
18.9002
19.4458
20.0032
20.5778
21.181
21.8169
22.4847
23.1803
23.8981
24.6311
25.3723
26.1141
26.8497
5562.44
1325.73
400.979
177.394
111.551
86.9451
76.9161
73.875
75.1009
79.6567
87.4017
97.9795
110.153
123.242
136.653
150.245
163.445
173.916
179.802
180.771
177.27
170.208
160.755
150.042
139.01
128.274
118.026
108.355
99.3588
91.0855
83.5445
76.7217
70.5894
65.1105
60.2388
55.9206
52.0983
48.7145
45.7149
43.0504
40.677
38.5564
36.6552
34.9446
33.3997
31.9994
30.7253
29.5619
28.4958
27.5155
26.6114
25.7749
24.999
24.2775
23.6051
22.9773
22.3902
21.8405
21.3253
20.8421
20.389
19.964
19.5657
19.1929
18.8444
18.5194
18.2171
17.9372
17.6791
17.4426
17.2278
17.0346
16.8634
16.7148
16.5912
16.4947
16.4238
16.377
16.3532
16.352
16.3747
16.4222
16.4957
16.598
16.7329
16.9052
17.1199
17.3821
17.6967
18.0673
18.4962
18.9843
19.5228
20.0843
20.663
21.2746
21.9243
22.6118
23.3332
24.0826
24.8525
25.6352
26.4225
27.2064
5562.45
1330.66
399.73
168.175
99.5478
74.1356
63.5048
59.5426
59.5071
62.3961
67.9695
75.8677
84.9037
94.629
105.062
115.894
126.714
137.53
148.087
156.869
162.269
163.836
161.73
156.532
149.09
140.304
130.949
121.672
112.726
104.161
96.0909
88.5813
81.6604
75.3299
69.5757
64.3741
59.6956
55.5053
51.7642
48.4296
45.4583
42.8085
40.4413
38.3215
36.4181
34.7038
33.1548
31.7505
30.4733
29.3077
28.2406
27.2607
26.3583
25.5249
24.7534
24.0377
23.3723
22.7527
22.1751
21.636
21.1326
20.6624
20.2234
19.8136
19.4317
19.0764
18.7466
18.4416
18.1607
17.9036
17.6698
17.4595
17.2727
17.1098
16.9734
16.8654
16.7842
16.7274
16.6938
16.6821
16.6937
16.7291
16.789
16.8761
16.994
17.1471
17.3403
17.5795
17.8703
18.2181
18.6264
19.097
19.6294
20.1922
20.7718
21.3888
22.0495
22.7542
23.4993
24.2784
25.084
25.9075
26.7399
27.5724
28.3967
5562.45
1335.22
401.734
164.142
92.2455
65.6047
54.2409
49.4892
48.429
50.0323
54.048
60.1285
67.1378
74.6666
82.6526
91.0631
99.976
109.023
117.924
126.7
135.273
142.678
147.575
149.48
148.365
144.579
138.718
131.497
123.581
115.528
107.656
100.055
92.8099
85.9923
79.6463
73.7872
68.4129
63.5095
59.0562
55.0283
51.3982
48.1359
45.2093
42.5857
40.2328
38.1198
36.2188
34.5043
32.9538
31.5478
30.2691
29.1027
28.0357
27.057
26.157
25.3273
24.5608
23.8513
23.1934
22.5827
22.0152
21.4875
20.9968
20.5405
20.1166
19.7234
19.3594
19.0234
18.7144
18.4318
18.175
17.9438
17.7382
17.5583
17.4068
17.2854
17.1921
17.1242
17.0797
17.0569
17.0563
17.0784
17.1239
17.195
17.2949
17.4276
17.5984
17.8132
18.0785
18.4009
18.7863
19.2386
19.7593
20.3204
20.9034
21.5245
22.1942
22.9141
23.6808
24.4879
25.3276
26.1908
27.0678
27.9488
28.8245
29.6861
30.5262
5562.43
1338.96
405.168
163.807
88.8802
60.7278
48.4253
42.7932
40.7134
41.0486
43.489
47.9202
53.4497
59.4171
65.7938
72.5255
79.5935
86.9945
94.7291
102.452
109.95
117.258
124.345
130.628
135.066
137.152
136.744
134.029
129.425
123.487
116.776
109.767
102.817
96.0583
89.5452
83.3521
77.533
72.1151
67.1066
62.5027
58.2899
54.4496
50.9601
47.7984
44.9406
42.3618
40.0367
37.9402
36.0484
34.3388
32.7908
31.386
30.1082
28.9429
27.8777
26.9017
26.0053
25.1805
24.42
23.7178
23.0686
22.4679
21.9117
21.3967
20.92
20.4793
20.0724
19.6978
19.354
19.04
18.7548
18.4981
18.2693
18.0686
17.8987
17.7611
17.6532
17.5719
17.5145
17.479
17.4641
17.4714
17.5009
17.5546
17.6352
17.7465
17.8937
18.0829
18.3211
18.6159
18.9747
19.404
19.9082
20.4654
21.055
21.684
22.3623
23.0955
23.8816
24.7146
25.5864
26.4876
27.4079
28.3365
29.2631
30.178
31.0725
31.9392
5562.41
1341.64
408.781
165.366
88.1863
58.5899
45.2919
38.7428
35.6448
34.7411
35.5912
38.1834
42.2927
46.9957
52.111
57.5941
63.4097
69.5282
75.9255
82.5912
89.4619
96.2131
102.681
108.908
114.876
120.261
124.29
126.451
126.539
124.636
121.031
116.145
110.445
104.344
98.2009
92.1787
86.3143
80.6863
75.3508
70.3435
65.6811
61.3671
57.3952
53.7522
50.4213
47.3835
44.6191
42.108
39.8302
37.7656
35.8947
34.1985
32.6593
31.2606
29.9873
28.8261
27.7651
26.7938
25.903
25.0846
24.3318
23.6386
22.9996
22.4105
21.8675
21.3671
20.9066
20.4838
20.0966
19.7434
19.423
19.1344
18.8769
18.6502
18.4571
18.2991
18.1728
18.0744
18.0009
17.9495
17.9183
17.9082
17.9198
17.9543
18.0141
18.1028
18.2253
18.3876
18.5971
18.862
19.1908
19.5922
20.0744
20.6249
21.2218
21.8645
22.5585
23.305
24.107
24.9626
25.8638
26.8007
27.7625
28.7376
29.7146
30.6826
31.632
32.5544
33.4428
34.292
5562.38
1343.29
412.2
167.654
88.9965
58.2539
44.0828
36.7197
32.738
30.7843
30.3087
31.1534
33.4071
36.8693
40.8129
45.1803
49.9221
55.0136
60.4175
66.0932
72.002
78.1208
84.3412
90.3592
96.0497
101.453
106.577
111.252
114.907
117.063
117.49
116.201
113.388
109.369
104.528
99.2363
93.7991
88.4078
83.1273
78.0146
73.125
68.5004
64.1642
60.1267
56.3885
52.9421
49.7754
46.873
44.2184
41.7942
39.5833
37.5691
35.7352
34.0659
32.5461
31.1617
29.8995
28.7475
27.6948
26.7316
25.8492
25.0399
24.2972
23.6152
22.9888
22.4137
21.8861
21.4028
20.9612
20.559
20.1943
19.8657
19.5719
19.3121
19.0893
18.9047
18.7545
18.6342
18.54
18.469
18.419
18.3885
18.3795
18.3928
18.4304
18.4952
18.592
18.7266
18.9066
19.1412
19.4396
19.812
20.2681
20.8081
21.4084
22.059
22.7705
23.539
24.3597
25.2342
26.1615
27.1315
28.1326
29.1525
30.1787
31.1992
32.2033
33.1815
34.126
35.0308
35.8914
36.7048
37.4695
38.1847
5562.34
1343.96
415.249
170.065
90.4853
58.925
44.0819
36.0848
31.4263
28.6891
27.2505
26.8503
27.4386
29.1339
31.8778
35.1425
38.8014
42.8551
47.2929
52.0816
57.1728
62.5124
68.047
73.7415
79.4548
84.9017
89.9898
94.764
99.2424
103.34
106.648
108.737
109.389
108.562
106.38
103.08
98.9747
94.3814
89.5733
84.7506
79.9958
75.3526
70.875
66.6079
62.5793
58.805
55.2912
52.036
49.032
46.2677
43.7294
41.4025
39.2719
37.323
35.5414
33.9136
32.4265
31.0681
29.8268
28.6923
27.6547
26.7053
25.8361
25.0402
24.3112
23.6437
23.0329
22.4746
21.9651
21.5016
21.0813
20.702
20.362
20.06
19.7989
19.5802
19.3993
19.2509
19.1308
19.0357
18.9628
18.9101
18.8782
18.8687
18.8833
18.9249
18.9975
19.1065
19.259
19.4636
19.7306
20.0713
20.4972
21.0186
21.6135
22.2656
22.9885
23.7804
24.6307
25.5302
26.4803
27.4804
28.5183
29.5809
30.6547
31.7267
32.7848
33.8184
34.8188
35.7791
36.6939
37.5599
38.375
39.1384
5562.3
1343.86
418.018
172.406
92.1975
60.0511
44.712
36.2543
31.1192
27.8474
25.7726
24.5771
24.1257
24.4035
25.506
27.515
30.176
33.1659
36.5485
40.3366
44.5183
49.0544
53.888
58.954
64.1862
69.5393
74.846
79.8382
84.4538
88.7352
92.7102
96.3173
99.2945
101.285
102.077
101.595
99.9115
97.2052
93.725
89.7425
85.5005
81.1948
76.9171
72.7049
68.6102
64.679
60.9421
57.4194
54.1216
51.0517
48.2065
45.5786
43.1575
40.9311
38.8866
37.011
35.2915
33.7159
32.2729
30.9514
29.7416
28.6339
27.62
26.6918
25.8424
25.0654
24.355
23.7061
23.1144
22.5759
22.0872
21.6454
21.2481
20.8934
20.5847
20.3236
20.1047
19.922
19.7708
19.6474
19.5483
19.4717
19.4166
19.385
19.3779
19.3975
19.4469
19.5307
19.6555
19.8298
20.0644
20.3717
20.765
21.2576
21.8371
22.4866
23.2138
24.0226
24.903
25.8397
26.8206
27.8475
28.9194
30.0224
31.142
32.2641
33.3754
34.4642
35.5207
36.5368
37.5068
38.4266
39.2935
40.1066
5562.25
1342.94
420.563
174.591
93.889
61.2901
45.573
36.7814
31.3206
27.7026
25.2316
23.5575
22.502
21.9879
22.0066
22.6165
23.9457
25.9787
28.4001
31.151
34.29
37.8389
41.787
46.0935
50.697
55.5249
60.5003
65.5694
70.5412
75.161
79.3955
83.2802
86.8418
90.0356
92.7059
94.5736
95.4366
95.2022
93.909
91.6891
88.7404
85.2929
81.5613
77.7276
73.8858
70.0714
66.3345
62.7205
59.262
55.9813
52.8927
50.0031
47.3132
44.8192
42.5139
40.388
38.4308
36.6312
34.978
33.4602
32.0676
30.7903
29.6193
28.546
27.5629
26.6627
25.8392
25.0866
24.3996
23.7736
23.2046
22.689
22.2238
21.8067
21.4415
21.1302
20.8668
20.6439
20.4566
20.3015
20.1754
20.0752
19.9993
19.9453
19.9163
19.9134
19.9391
19.9973
20.0942
20.2379
20.4391
20.7107
21.0675
21.5247
22.0841
22.7271
23.4512
24.2686
25.1722
26.1459
27.1702
28.2326
29.3352
30.4758
31.6391
32.8097
33.9732
35.1166
36.229
37.3015
38.3274
39.3019
40.222
41.0861
5562.19
1341.25
422.87
176.547
95.4131
62.4438
46.426
37.3839
31.6934
27.8548
25.1444
23.1925
21.7984
20.8531
20.3056
20.1482
20.4149
21.1907
22.5803
24.5105
26.7221
29.2567
32.1725
35.4962
39.2202
43.3063
47.692
52.3002
57.0455
61.8673
66.5507
70.852
74.7658
78.3185
81.5275
84.3759
86.7692
88.4956
89.3735
89.309
88.3161
86.4917
83.9929
81.0131
77.7411
74.3387
70.8968
67.451
64.0496
60.7364
57.5443
54.4974
51.6125
48.8993
46.3621
44.0001
41.8094
39.7832
37.9131
36.1901
34.6044
33.1465
31.8072
30.5775
29.4493
28.4148
27.467
26.5994
25.8064
25.0825
24.4232
23.8241
23.2819
22.7938
22.3646
21.9958
21.682
21.4165
21.1919
21.0034
20.8483
20.723
20.6244
20.5489
20.4964
20.4699
20.4712
20.5036
20.5725
20.6854
20.8527
21.0875
21.4052
21.8227
22.3562
22.9869
23.7019
24.5205
25.4396
26.4442
27.5125
28.6225
29.7637
30.939
32.1434
33.3606
34.575
35.7724
36.9406
38.0698
39.1524
40.1829
41.1577
42.0749
42.9338
5562.13
1338.82
424.898
178.197
96.6719
63.4024
47.1464
37.9305
32.0847
28.0895
25.2223
23.1026
21.5158
20.3365
19.4925
18.9472
18.6922
18.7459
19.1579
20.02
21.4007
23.1926
25.2259
27.5679
30.2787
33.3886
36.8952
40.7644
44.9359
49.3307
53.857
58.4503
62.8717
66.8875
70.5193
73.7839
76.691
79.2454
81.3852
82.9588
83.8093
83.855
83.0891
81.5834
79.4634
76.8912
74.0311
71.0224
67.9475
64.8436
61.757
58.7292
55.7923
52.9715
50.285
47.7451
45.3586
43.1277
41.0509
39.1242
37.3414
35.6953
34.1779
32.7809
31.4962
30.3159
29.2325
28.2393
27.3298
26.4981
25.739
25.0476
24.42
23.8526
23.3522
22.9231
22.5563
22.2445
21.9798
21.7559
21.5688
21.4145
21.29
21.1914
21.1157
21.0642
21.0401
21.0461
21.0868
21.1689
21.3024
21.5002
21.7787
22.1564
22.6532
23.2592
23.9623
24.7769
25.705
26.7339
27.8419
29.0026
30.1932
31.4082
32.6511
33.913
35.1769
36.4274
37.6512
38.8372
39.9769
41.0642
42.0948
43.0663
43.9778
5562.07
1335.72
426.606
179.472
97.5911
64.165
47.7628
38.3696
32.379
28.2666
25.2974
23.0792
21.3868
20.0842
19.0875
18.3458
17.8317
17.5365
17.4693
17.6593
18.1621
19.0661
20.4096
22.0705
23.9511
26.1235
28.6479
31.5573
34.8538
38.5086
42.465
46.6446
50.9511
55.319
59.4861
63.2414
66.62
69.63
72.2766
74.5757
76.4822
77.8969
78.6942
78.8008
78.1999
76.9461
75.1415
72.9217
70.4281
67.7768
65.0381
62.2507
59.459
56.7007
54.0074
51.4043
48.9109
46.5412
44.304
42.2038
40.2414
38.4148
36.7202
35.1519
33.7036
32.3686
31.14
30.0107
28.9743
28.0245
27.1557
26.3628
25.6412
24.9889
24.4126
23.9177
23.4942
23.1318
22.8216
22.5577
22.3344
22.1472
21.9927
21.8678
21.7684
21.6925
21.6416
21.6203
21.6321
21.6833
21.7829
21.9434
22.1813
22.5163
22.9703
23.5466
24.234
25.0379
25.9677
27.0135
28.1546
29.3637
30.6115
31.8744
33.1564
34.4619
35.7744
37.0773
38.3563
39.5993
40.7968
41.9419
43.0296
44.0572
45.023
5562
1332
427.93
180.294
98.253
64.7659
48.1727
38.6275
32.5293
28.339
25.3089
23.0373
21.2912
19.9279
18.8567
18.0189
17.3776
16.9117
16.6128
16.4849
16.5452
16.8274
17.3893
18.3118
19.6093
21.1563
22.9068
24.9318
27.2895
30.014
33.1108
36.5562
40.2976
44.2596
48.3445
52.4751
56.3803
59.8943
63.0402
65.82
68.2411
70.3099
72.0041
73.2606
73.9834
74.1111
73.6237
72.5651
71.0206
69.1031
66.9332
64.6041
62.1717
59.6754
57.1567
54.651
52.1887
49.7947
47.489
45.2864
43.1972
41.2274
39.3798
37.6545
36.0493
34.5604
33.183
31.9117
30.7407
29.6646
28.6771
27.7746
26.953
26.2087
25.5505
24.9828
24.495
24.0757
23.7152
23.406
23.142
22.9179
22.7292
22.5739
22.447
22.3461
22.2704
22.2206
22.2027
22.2223
22.2877
22.4107
22.6074
22.8977
23.3046
23.8477
24.5153
25.3012
26.2248
27.2797
28.4457
29.6956
30.9989
32.3255
33.6589
35.0053
36.3643
37.7183
39.0517
40.3514
41.6072
42.8111
43.9576
45.0433
46.0663
47.026
5561.92
1327.77
428.821
180.639
98.7479
65.0932
48.3487
38.7021
32.5392
28.3072
25.2485
22.9544
21.187
19.7995
18.6969
17.8167
17.1167
16.5696
16.1587
15.8767
15.7247
15.7129
15.8626
16.2097
16.8124
17.7415
18.9915
20.4422
22.0833
23.982
26.1933
28.7506
31.6616
34.9061
38.4361
42.18
46.0456
49.9234
53.5626
56.8376
59.7581
62.3232
64.5343
66.3928
67.8939
68.9973
69.6323
69.7516
69.3375
68.4284
67.0973
65.4381
63.551
61.5084
59.3501
57.1182
54.8505
52.5802
50.3362
48.1423
46.0181
43.9788
42.0354
40.1955
38.4632
36.8403
35.326
33.9182
32.6135
31.4086
30.2997
29.2823
28.3538
27.5104
26.7624
26.1146
25.5555
25.0724
24.6556
24.296
23.9865
23.721
23.4941
23.3034
23.1452
23.0155
22.9129
22.8376
22.7907
22.7781
22.8091
22.8948
23.0506
23.2966
23.6574
24.1591
24.7958
25.5598
26.4704
27.5257
28.7096
29.9958
31.3519
32.7436
34.1429
35.5403
36.9424
38.3451
39.7314
41.0873
42.4012
43.6646
44.871
46.0164
47.0984
48.1159
5561.85
1323.14
429.277
180.711
98.8735
65.128
48.3106
38.6203
32.4346
28.1926
25.1308
22.8365
21.0691
19.6794
18.5703
17.6768
16.9544
16.3723
15.9097
15.5538
15.298
15.1423
15.0929
15.1635
15.3779
15.7726
16.4059
17.3358
18.5403
19.9113
21.4614
23.2536
25.3383
27.7468
30.4867
33.5402
36.8621
40.3835
44.0218
47.6414
51.0133
54.0509
56.7505
59.1081
61.1194
62.7832
64.1065
65.0653
65.6044
65.6938
65.3233
64.527
63.3693
61.933
60.2913
58.4924
56.5767
54.5828
52.5447
50.4927
48.4531
46.4487
44.4982
42.617
40.8165
39.105
37.4878
35.9679
34.5468
33.2237
31.9981
30.8672
29.8286
28.8805
28.0361
27.3019
26.6657
26.1136
25.6348
25.2195
24.8597
24.5486
24.2795
24.0491
23.8551
23.6925
23.5593
23.455
23.3807
23.3398
23.3377
23.386
23.501
23.7031
24.0173
24.4721
25.0712
25.8099
26.7026
27.7534
28.9484
30.2627
31.6641
33.1168
34.5865
36.0489
37.5015
38.9504
40.3882
41.7995
43.1718
44.4954
45.7632
46.9703
48.1138
49.1921
5561.77
1318.22
429.274
180.519
98.6734
64.9233
48.1058
38.4227
32.2498
28.0237
24.9785
22.7004
20.9474
19.5692
18.468
17.5777
16.8522
16.2594
15.7761
15.3868
15.0812
14.854
14.7046
14.6369
14.6603
14.7909
15.0536
15.4859
16.145
17.0743
18.2373
19.5434
21.0194
22.7229
24.699
26.9754
29.5581
32.4294
35.547
38.8438
42.2494
45.6079
48.7121
51.5115
53.9908
56.1442
57.9633
59.4484
60.6069
61.4243
61.8645
61.911
61.5626
60.8529
59.8407
58.5916
57.1527
55.5637
53.8616
52.0798
50.2487
48.3954
46.5446
44.7173
42.9315
41.2017
39.5401
37.9555
36.4541
35.0403
33.7165
32.4836
31.3417
30.2912
29.3494
28.5261
27.8089
27.1838
26.6387
26.1637
25.7496
25.3889
25.0743
24.8007
24.5662
24.3673
24.2
24.0632
23.9577
23.8861
23.8535
23.8691
23.9464
24.1052
24.3717
24.7767
25.3373
26.0503
26.9208
27.9608
29.1594
30.4934
31.931
33.4366
34.9735
36.5098
38.0262
39.5258
41.0138
42.48
43.9108
45.2956
46.6264
47.8974
49.1052
50.2475
5561.69
1313.1
428.798
180.072
98.2027
64.5368
47.7835
38.15
32.0186
27.8283
24.8148
22.5644
20.8354
19.4776
18.3929
17.5148
16.7969
16.2059
15.7181
15.3161
14.988
14.7258
14.5253
14.3858
14.31
14.3046
14.3811
14.5572
14.8589
15.3241
16.0081
16.9384
18.0657
19.3202
20.7371
22.3674
24.2506
26.4095
28.8471
31.545
34.4626
37.5347
40.7027
43.7959
46.6335
49.193
51.4525
53.4035
55.0392
56.3548
57.3567
58.0406
58.3867
58.3849
58.0447
57.4064
56.5179
55.4187
54.146
52.7343
51.2152
49.6183
47.9706
46.2966
44.6188
42.9567
41.3264
39.7422
38.2154
36.7551
35.3681
34.0598
32.8339
31.6945
30.6635
29.7551
28.9583
28.2593
27.6464
27.1091
26.6384
26.2254
25.8629
25.5445
25.2665
25.0274
24.8231
24.6512
24.5118
24.4069
24.3412
24.3227
24.364
24.4841
24.7079
25.0657
25.5892
26.2753
27.1194
28.1432
29.3387
30.6842
32.1492
33.6982
35.2944
36.903
38.496
40.0592
41.5993
43.12
44.6098
46.0568
47.4523
48.7897
50.0646
51.2744
5561.6
1307.9
427.859
179.34
97.549
64.0407
47.3967
37.8426
31.7724
27.6319
24.66
22.445
20.7463
19.4142
18.351
17.4902
16.7852
16.2027
15.7183
15.3141
14.9773
14.6985
14.4718
14.294
14.1644
14.0852
14.0615
14.102
14.2197
14.4334
14.7701
15.2681
15.9791
16.9139
18.0121
19.2271
20.5978
22.1681
23.9712
26.0246
28.3275
30.8596
33.5817
36.4304
39.3522
42.1677
44.7492
47.0716
49.1141
50.8654
52.3205
53.4722
54.3294
54.8897
55.1452
55.1008
54.772
54.1919
53.3935
52.4095
51.2709
50.0067
48.6446
47.21
45.7264
44.2151
42.6953
41.1844
39.6976
38.2481
36.8471
35.5042
34.2273
33.0244
31.923
30.9423
30.0742
29.3065
28.6284
28.03
27.5023
27.0368
26.6255
26.2618
25.9403
25.6587
25.4151
25.2062
25.0313
24.8917
24.7916
24.7381
24.7437
24.8262
25.0104
25.3274
25.813
26.4681
27.2872
28.2922
29.48
30.8309
32.3154
33.8987
35.5446
37.2179
38.8871
40.529
42.1342
43.7103
45.2595
46.77
48.2321
49.6384
50.9837
52.2646
5561.52
1302.68
426.409
178.194
96.8272
63.5076
46.9913
37.5344
31.5374
27.4548
24.5304
22.3552
20.6902
19.3868
18.3478
17.5068
16.8175
16.2464
15.7693
15.3679
15.0291
14.7428
14.5024
14.3032
14.1431
14.0217
13.9409
13.905
13.9207
13.998
14.1512
14.4002
14.7722
15.3066
16.0484
16.9912
18.0671
19.253
20.588
22.1086
23.8417
25.7987
27.9749
30.348
32.8809
35.5169
38.1815
40.7188
43.0443
45.1292
46.954
48.506
49.7805
50.7747
51.4957
51.9456
52.1231
52.0415
51.7159
51.1752
50.4466
49.5573
48.5328
47.3964
46.1707
44.8774
43.5363
42.1663
40.7846
39.4072
38.0481
36.7203
35.4355
34.2054
33.0623
32.0313
31.1082
30.2835
29.5484
28.8945
28.3137
27.7978
27.3394
26.9315
26.5681
26.245
25.961
25.7145
25.5036
25.3291
25.1946
25.1072
25.0783
25.125
25.2716
25.5498
25.9966
26.62
27.4153
28.4003
29.5773
30.9288
32.4264
34.0361
35.7224
37.4506
39.1888
40.91
42.596
44.2404
45.8502
47.4258
48.9566
50.4346
51.8537
53.2097
5561.43
1297.55
424.518
176.753
95.939
62.9438
46.6056
37.2543
31.3342
27.3125
24.4382
22.3046
20.6745
19.4012
18.3875
17.5673
16.8945
16.3358
15.8672
15.4706
15.1327
14.8432
14.5951
14.3832
14.2044
14.0572
13.9418
13.86
13.8154
13.8135
13.8625
13.9734
14.1615
14.4472
14.8585
15.4357
16.2118
17.1637
18.2232
19.3888
20.6958
22.1741
23.8435
25.7098
27.7642
29.982
32.3242
34.7448
37.1546
39.4198
41.492
43.341
44.9489
46.305
47.4044
48.2446
48.8358
49.1841
49.2937
49.1812
48.8614
48.3569
47.6891
46.8793
45.9482
44.9162
43.8024
42.6255
41.4032
40.1523
38.8885
37.6264
36.3804
35.1649
34.016
32.9638
32.0087
31.1452
30.3672
29.6684
29.0423
28.4819
27.9806
27.5319
27.1297
26.7691
26.4469
26.1629
25.9168
25.7085
25.5411
25.4212
25.3596
25.3728
25.4846
25.7267
26.1369
26.7309
27.5035
28.4661
29.6274
30.9735
32.478
34.1075
35.8264
37.6004
39.3981
41.1919
42.9596
44.6872
46.3706
48.0139
49.6163
51.1694
52.6661
54.1016
5561.35
1292.47
422.183
175.139
94.9795
62.3454
46.2062
36.9813
31.1516
27.1995
24.3813
22.2942
20.7029
19.461
18.4727
17.6731
17.0164
16.4697
16.0095
15.6181
15.2819
14.9908
14.7376
14.517
14.3255
14.161
14.0228
13.9115
13.8287
13.7778
13.7634
13.7923
13.8734
14.0188
14.2443
14.5712
15.0279
15.6547
16.4669
17.4256
18.4737
19.6251
20.9085
22.3477
23.9556
25.7321
27.6642
29.7258
31.8766
34.0803
36.2359
38.2413
40.0672
41.6873
43.085
44.25
45.1789
45.8734
46.3501
46.6168
46.6808
46.5455
46.2288
45.749
45.124
44.372
43.5113
42.5594
41.5336
40.45
39.3244
38.172
37.0079
35.8485
34.7311
33.6899
32.7303
31.8505
31.0478
30.3189
29.6596
29.064
28.527
28.0431
27.6069
27.2134
26.8587
26.541
26.2613
26.0212
25.8231
25.6729
25.581
25.5635
25.6441
25.8538
26.2308
26.7996
27.5526
28.4916
29.6332
30.9672
32.47
34.1105
35.8541
37.6663
39.5154
41.3735
43.2174
45.0294
46.7988
48.5223
50.2013
51.8338
53.4131
54.9334
5561.26
1287.59
419.532
173.413
93.9808
61.74
45.8184
36.7314
30.999
27.1208
24.3612
22.3218
20.7696
19.5598
18.5977
17.8192
17.1791
16.6451
16.1936
15.8071
15.4725
15.18
14.9223
14.6945
14.4932
14.3157
14.161
14.0287
13.92
13.8364
13.781
13.7579
13.7727
13.8329
13.9482
14.1313
14.3987
14.7724
15.2812
15.9616
16.8086
17.7701
18.8103
19.9496
21.2102
22.6093
24.1534
25.8374
27.6449
29.55
31.5138
33.4974
35.4011
37.1622
38.7529
40.1524
41.3479
42.3357
43.1201
43.7009
44.0924
44.2944
44.3082
44.1436
43.815
43.3393
42.7342
42.0182
41.2065
40.314
39.3553
38.3446
37.2969
36.2285
35.1767
34.1776
33.241
32.3691
31.5626
30.8209
30.1427
29.5238
28.9607
28.4493
27.9854
27.5645
27.1829
26.8384
26.5305
26.2614
26.035
25.8572
25.738
25.6934
25.7465
25.9281
26.2762
26.8245
27.5618
28.4777
29.5968
30.913
32.4062
34.0481
35.8063
37.6477
39.5406
41.4563
43.3703
45.263
47.1204
48.934
50.7006
52.4196
54.0876
55.699
5561.17
1283.2
416.765
171.664
92.9869
61.1511
45.4556
36.5126
30.882
27.0807
24.3815
22.3907
20.878
19.7002
18.7639
18.0057
17.3812
16.8586
16.4146
16.0322
15.6987
15.4047
15.1432
14.9093
14.6993
14.511
14.3427
14.1943
14.0661
13.9592
13.8752
13.8168
13.7878
13.7931
13.8388
13.9331
14.0862
14.3115
14.6261
15.0521
15.6194
16.3524
17.2274
18.1873
19.2209
20.3466
21.5812
22.9357
24.411
25.9984
27.679
29.4267
31.2087
32.9722
34.633
36.1582
37.5243
38.7221
39.7498
40.5955
41.2531
41.7367
42.0476
42.1824
42.139
41.9306
41.5747
41.09
40.4921
39.797
39.018
38.1674
37.2584
36.3066
35.3469
34.416
33.5271
32.6858
31.8958
31.1595
30.4779
29.8487
29.2705
28.7409
28.2566
27.8146
27.4119
27.0466
26.7173
26.4253
26.1745
25.9722
25.8291
25.761
25.7906
25.9486
26.2726
26.804
27.5282
28.4228
29.5182
30.8126
32.2899
33.9252
35.6891
37.5504
39.4785
41.4448
43.4236
45.3932
47.3369
49.2432
51.1051
52.9194
54.6835
56.3926
5561.08
1279.36
413.916
169.897
92.0023
60.5843
45.1233
36.3296
30.8038
27.0811
24.4433
22.5015
21.0282
19.8821
18.9709
18.2321
17.6219
17.1093
16.6715
16.2919
15.9583
15.6618
15.3956
15.155
14.9368
14.7386
14.5589
14.3973
14.2537
14.1285
14.023
13.9391
13.8793
13.8468
13.8459
13.8819
13.9617
14.0937
14.289
14.5611
14.9276
15.4106
16.0399
16.819
17.7094
18.6643
19.6886
20.7959
21.9984
23.3015
24.7023
26.1888
27.7401
29.3269
30.9232
32.4639
33.8936
35.1942
36.3622
37.3907
38.2633
38.9725
39.525
39.9266
40.1656
40.2267
40.1214
39.865
39.4765
38.9745
38.3736
37.6882
36.9285
36.108
35.2583
34.4147
33.5929
32.8009
32.0452
31.3311
30.6609
30.0347
29.4528
28.9144
28.418
27.9618
27.5443
27.1631
26.8177
26.5087
26.2399
26.0182
25.8551
25.7672
25.7778
25.9171
26.2231
26.7383
27.4483
28.3252
29.3969
30.6674
32.1249
33.7485
35.5119
37.3864
39.3424
41.352
43.3891
45.4309
47.4583
49.4569
51.4166
53.3318
55.1983
57.0109
5560.99
1275.83
410.926
168.12
91.0422
60.0505
44.828
36.1858
30.7663
27.1229
24.5467
22.6538
21.2195
20.1043
19.2173
18.4968
17.8998
17.3958
16.9627
16.5845
16.2495
15.9491
15.6772
15.4294
15.2024
14.9944
14.8038
14.63
14.473
14.3328
14.2104
14.1069
14.024
13.964
13.9298
13.9254
13.9552
14.0252
14.1426
14.3163
14.5576
14.8804
15.3024
15.8454
16.5321
17.3454
18.2372
19.183
20.1917
21.2736
22.4375
23.6847
25.0071
26.3865
27.8017
29.2251
30.6244
31.9372
33.1459
34.2543
35.255
36.131
36.8704
37.4748
37.953
38.2768
38.4211
38.3991
38.2255
37.9164
37.4908
36.9663
36.3563
35.6725
34.9421
34.1978
33.4565
32.728
32.021
31.3426
30.697
30.0856
29.5107
28.9729
28.4726
28.0098
27.5831
27.1912
26.834
26.5125
26.2303
25.9943
25.8158
25.712
25.7066
25.8306
26.1218
26.6229
27.3211
28.1834
29.2331
30.4802
31.9174
33.5281
35.289
37.1734
39.153
41.2001
43.2886
45.3951
47.4998
49.5865
51.6434
53.6614
55.6335
57.5536
59.4168
5560.9
1272.87
407.917
166.371
90.1182
59.5542
44.5715
36.0819
30.7691
27.2053
24.6906
22.8462
21.4503
20.3654
19.5016
18.7982
18.2131
17.7164
17.2866
16.9084
16.5706
16.2652
15.9865
15.7304
15.4941
15.2758
15.0742
14.8887
14.7191
14.5655
14.4284
14.3086
14.2073
14.1262
14.0673
14.0332
14.0272
14.0535
14.1172
14.2244
14.3826
14.6011
14.8913
15.2669
15.7451
16.3473
17.0784
17.907
18.789
19.7189
20.7078
21.7639
22.8866
24.0704
25.3014
26.5616
27.8288
29.0814
30.2748
31.386
32.4173
33.3702
34.2264
34.9741
35.6144
36.151
36.5267
36.7302
36.7721
36.6633
36.4193
36.0554
35.5913
35.0437
34.4358
33.797
33.1442
32.4886
31.8408
31.2087
30.5979
30.0114
29.4528
28.9244
28.4282
27.9654
27.5352
27.1377
26.7731
26.4431
26.1512
25.9044
25.7142
25.5975
25.5782
25.6873
25.9632
26.4497
27.1383
27.9899
29.0218
30.2491
31.6688
33.2674
35.0248
36.9165
38.916
40.9961
43.1312
45.2975
47.4744
49.6443
51.7928
53.909
55.9844
58.0122
59.9866
5560.81
1270.45
404.911
164.655
89.2341
59.0974
44.3545
36.0174
30.8112
27.3266
24.8731
23.0768
21.7188
20.6634
19.8219
19.1346
18.5601
18.0694
17.6417
17.2621
16.9203
16.6086
16.322
16.0567
15.8103
15.5812
15.3682
15.1709
14.989
14.8226
14.6719
14.5376
14.4206
14.322
14.2433
14.1864
14.1536
14.1479
14.1728
14.2326
14.3326
14.4794
14.681
14.946
15.2855
15.7132
16.2439
16.8938
17.6488
18.4709
19.3368
20.2515
21.2209
22.2435
23.313
24.4189
25.5471
26.6803
27.7986
28.8817
29.898
30.8516
31.7421
32.5605
33.297
33.9558
34.5114
34.9092
35.1509
35.2389
35.1815
34.9878
34.6733
34.2598
33.7753
33.2445
32.6844
32.108
31.5261
30.9476
30.3795
29.8256
29.2909
28.7793
28.2946
27.8378
27.4097
27.0114
26.6437
26.3088
26.0108
25.7566
25.5576
25.4307
25.3994
25.4949
25.7561
26.2283
26.9092
27.7535
28.7696
29.9778
31.3793
32.9638
34.7141
36.6082
38.6214
40.7278
42.9024
45.1215
47.3639
49.6112
51.8475
54.0597
56.238
58.3745
60.4627
5560.72
1268.65
401.964
162.992
88.3969
58.6825
44.1769
35.9912
30.8908
27.4849
25.0921
23.3433
22.0226
20.9959
20.176
19.5039
18.9392
18.4534
18.0265
17.6445
17.2974
16.9785
16.6829
16.4075
16.1502
15.9096
15.6848
15.4753
15.2809
15.1018
14.938
14.7902
14.6588
14.5448
14.4492
14.3735
14.3193
14.2887
14.2844
14.3093
14.3673
14.4628
14.6013
14.7889
15.0334
15.3441
15.7298
16.2011
16.7688
17.4318
18.1737
18.9779
19.8372
20.7422
21.6868
22.6659
23.6713
24.6908
25.7104
26.7157
27.6983
28.6297
29.5078
30.3322
31.1016
31.8109
32.461
33.0031
33.4117
33.6786
33.8006
33.7796
33.6244
33.3498
32.9894
32.5678
32.1034
31.61
31.0983
30.5785
30.0585
29.5432
29.0385
28.5503
28.0825
27.6371
27.2163
26.8215
26.4548
26.1187
25.8178
25.5591
25.3539
25.219
25.1776
25.2609
25.5079
25.9654
26.6399
27.4797
28.4811
29.6697
31.0506
32.6171
34.3549
36.2446
38.2636
40.3879
42.5934
44.8568
47.1569
49.4749
51.7939
54.0999
56.3805
58.6268
60.8312
5560.63
1267.57
399.147
161.402
87.6135
58.3112
44.0385
36.0017
31.0057
27.6776
25.3447
23.643
22.3591
21.3608
20.5619