/*--------------------------------*- C++ -*----------------------------------*\
  =========                 |
  \\      /  F ield         | OpenFOAM: The Open Source CFD Toolbox
   \\    /   O peration     | Website:  https://openfoam.org
    \\  /    A nd           | Version:  10
     \\/     M anipulation  |
\*---------------------------------------------------------------------------*/
FoamFile
{
    format      ascii;
    class       volScalarField;
    location    "23000";
    object      p;
}
// * * * * * * * * * * * * * * * * * * * * * * * * * * * * * * * * * * * * * //

dimensions      [0 2 -2 0 0 0 0];

internalField   nonuniform List<scalar> 
17969
(
-5.75441
-5.74475
-5.73666
-5.72811
-5.7189
-5.70913
-5.69879
-5.68781
-5.67611
-5.66356
-5.65011
-5.63572
-5.6204
-5.60424
-5.58737
-5.56979
-5.55147
-5.53245
-5.51275
-5.49237
-5.47131
-5.44954
-5.42705
-5.40382
-5.37984
-5.35507
-5.3295
-5.30311
-5.27586
-5.24773
-5.2187
-5.18873
-5.15779
-5.12586
-5.0929
-5.05887
-5.02375
-4.9875
-4.95007
-4.91143
-4.87155
-4.83037
-4.78785
-4.74395
-4.69863
-4.65183
-4.6035
-4.55359
-4.50205
-4.44881
-4.39382
-4.33702
-4.27835
-4.21773
-4.15509
-4.09037
-4.0235
-3.95438
-3.88295
-3.80911
-3.73278
-3.65387
-3.57228
-3.48791
-3.40066
-3.31043
-3.21709
-3.12054
-3.02066
-2.91731
-2.81037
-2.6997
-2.58515
-2.46659
-2.3456
-2.2256
-2.10829
-1.99363
-1.88159
-1.77213
-1.66521
-1.56079
-1.45884
-1.3593
-1.26215
-1.16734
-1.07483
-0.984584
-0.896559
-0.810717
-0.727022
-0.645439
-0.565933
-0.488464
-0.412993
-0.33948
-0.267888
-0.198177
-0.130309
-0.0642518
-5.7533
-5.74363
-5.73557
-5.72709
-5.71803
-5.70848
-5.69845
-5.68789
-5.67674
-5.66492
-5.65235
-5.63892
-5.62458
-5.60929
-5.59307
-5.57599
-5.55816
-5.53959
-5.52025
-5.50016
-5.47934
-5.4578
-5.43551
-5.41248
-5.38868
-5.36409
-5.3387
-5.31247
-5.28538
-5.25742
-5.22854
-5.19872
-5.16794
-5.13616
-5.10334
-5.06946
-5.03448
-4.99837
-4.96108
-4.92258
-4.88282
-4.84177
-4.79938
-4.75561
-4.71041
-4.66372
-4.61551
-4.56571
-4.51427
-4.46113
-4.40624
-4.34953
-4.29094
-4.2304
-4.16784
-4.10319
-4.03637
-3.96731
-3.89592
-3.82212
-3.74582
-3.66693
-3.58536
-3.50099
-3.41374
-3.32348
-3.23012
-3.13353
-3.03358
-2.93017
-2.82314
-2.71237
-2.5977
-2.479
-2.35786
-2.2377
-2.12021
-2.00537
-1.89314
-1.78348
-1.67635
-1.57172
-1.46955
-1.3698
-1.27242
-1.17739
-1.08465
-0.994172
-0.905915
-0.81984
-0.73591
-0.654089
-0.574342
-0.496631
-0.420918
-0.347163
-0.275327
-0.205373
-0.137265
-0.0709652
-5.75243
-5.74275
-5.73469
-5.72624
-5.71728
-5.70787
-5.69803
-5.68773
-5.67692
-5.66556
-5.65361
-5.64097
-5.62754
-5.61324
-5.598
-5.58182
-5.56468
-5.54664
-5.52779
-5.50818
-5.48776
-5.46652
-5.44451
-5.42171
-5.39813
-5.37374
-5.34854
-5.32249
-5.29558
-5.26778
-5.23906
-5.20941
-5.17878
-5.14715
-5.11448
-5.08075
-5.04592
-5.00995
-4.9728
-4.93444
-4.89482
-4.8539
-4.81165
-4.768
-4.72292
-4.67636
-4.62826
-4.57858
-4.52725
-4.47422
-4.41943
-4.36282
-4.30432
-4.24386
-4.18138
-4.1168
-4.05005
-3.98105
-3.90972
-3.83596
-3.75969
-3.68083
-3.59927
-3.51491
-3.42764
-3.33737
-3.24398
-3.14734
-3.04734
-2.94384
-2.83673
-2.72585
-2.61106
-2.49221
-2.3709
-2.25056
-2.13288
-2.01784
-1.9054
-1.79553
-1.68818
-1.58333
-1.48092
-1.38093
-1.28332
-1.18803
-1.09505
-1.00432
-0.915821
-0.829503
-0.745327
-0.663258
-0.58326
-0.505297
-0.42933
-0.35532
-0.28323
-0.213022
-0.14466
-0.0781086
-5.75174
-5.74206
-5.73399
-5.72555
-5.71664
-5.70733
-5.69762
-5.68749
-5.67691
-5.66585
-5.65427
-5.64212
-5.62935
-5.61587
-5.60157
-5.58638
-5.57023
-5.55312
-5.53502
-5.51596
-5.49602
-5.47529
-5.45372
-5.43127
-5.40797
-5.38384
-5.35886
-5.33302
-5.3063
-5.27868
-5.25014
-5.22066
-5.19019
-5.15872
-5.12621
-5.09264
-5.05795
-5.02213
-4.98513
-4.94691
-4.90743
-4.86665
-4.82453
-4.78102
-4.73607
-4.68963
-4.64166
-4.59209
-4.54088
-4.48796
-4.43328
-4.37677
-4.31837
-4.25801
-4.19561
-4.13111
-4.06444
-3.9955
-3.92422
-3.85051
-3.77428
-3.69545
-3.6139
-3.52955
-3.44228
-3.35199
-3.25856
-3.16188
-3.06182
-2.95825
-2.85103
-2.74004
-2.62512
-2.50611
-2.38463
-2.2641
-2.14622
-2.03097
-1.91831
-1.80821
-1.70064
-1.59554
-1.4929
-1.39266
-1.29479
-1.19923
-1.10598
-1.01498
-0.926215
-0.839638
-0.75521
-0.672888
-0.592634
-0.514412
-0.438185
-0.363913
-0.29156
-0.221089
-0.152465
-0.0856523
-0.0206155
0.0426806
0.104271
0.164193
-5.75121
-5.74153
-5.73343
-5.725
-5.71613
-5.70688
-5.69727
-5.68726
-5.67684
-5.66599
-5.65467
-5.64284
-5.63045
-5.61748
-5.60385
-5.58948
-5.57427
-5.55815
-5.54105
-5.52295
-5.50383
-5.48369
-5.4626
-5.44066
-5.41785
-5.39411
-5.36944
-5.34387
-5.3174
-5.29
-5.26167
-5.23237
-5.20209
-5.17079
-5.13845
-5.10503
-5.07051
-5.03484
-4.99799
-4.95992
-4.92059
-4.87995
-4.83797
-4.7946
-4.74979
-4.70348
-4.65564
-4.6062
-4.55511
-4.50231
-4.44774
-4.39134
-4.33304
-4.27277
-4.21047
-4.14606
-4.07946
-4.01059
-3.93937
-3.86572
-3.78953
-3.71073
-3.62921
-3.54486
-3.45759
-3.36728
-3.27383
-3.1771
-3.07697
-2.97332
-2.86601
-2.75489
-2.63983
-2.52066
-2.399
-2.27827
-2.16018
-2.04471
-1.93182
-1.82149
-1.71367
-1.60834
-1.50544
-1.40494
-1.30678
-1.21094
-1.1174
-1.02613
-0.937092
-0.850243
-0.765538
-0.682942
-0.60242
-0.523932
-0.447434
-0.372891
-0.300265
-0.229521
-0.160624
-0.0935402
-0.028234
0.0353286
0.0971821
0.157361
-5.7508
-5.74111
-5.73299
-5.72455
-5.7157
-5.70651
-5.69696
-5.68704
-5.67674
-5.66603
-5.65489
-5.64329
-5.6312
-5.61855
-5.60531
-5.59145
-5.5769
-5.56159
-5.54541
-5.52829
-5.51018
-5.49103
-5.47081
-5.44954
-5.42724
-5.404
-5.37984
-5.35472
-5.3286
-5.30151
-5.27344
-5.24438
-5.21431
-5.18322
-5.15107
-5.11784
-5.08349
-5.04799
-5.0113
-4.97339
-4.93421
-4.89373
-4.8519
-4.80867
-4.764
-4.71784
-4.67013
-4.62082
-4.56986
-4.51719
-4.46274
-4.40645
-4.34826
-4.2881
-4.22589
-4.16157
-4.09505
-4.02626
-3.95511
-3.88151
-3.80537
-3.72661
-3.64511
-3.56078
-3.47351
-3.38319
-3.2897
-3.19292
-3.09273
-2.989
-2.88159
-2.77035
-2.65514
-2.53581
-2.41396
-2.29302
-2.17471
-2.05901
-1.94589
-1.83531
-1.72724
-1.62165
-1.51849
-1.41769
-1.31925
-1.22313
-1.12931
-1.03775
-0.948417
-0.86127
-0.77628
-0.693404
-0.612596
-0.533822
-0.457045
-0.382221
-0.309313
-0.238286
-0.169107
-0.101742
-0.0361567
0.0276819
0.0898076
0.150255
-5.75048
-5.74079
-5.73263
-5.72416
-5.71533
-5.70617
-5.69666
-5.68681
-5.67658
-5.66597
-5.65496
-5.64352
-5.63162
-5.61922
-5.60628
-5.59276
-5.5786
-5.56379
-5.54826
-5.53194
-5.51473
-5.49656
-5.47736
-5.45708
-5.4357
-5.41321
-5.38962
-5.36499
-5.3394
-5.31281
-5.28515
-5.25643
-5.22666
-5.19583
-5.16392
-5.1309
-5.09676
-5.06145
-5.02495
-4.98722
-4.94821
-4.9079
-4.86622
-4.82315
-4.77864
-4.73262
-4.68506
-4.63589
-4.58507
-4.53252
-4.4782
-4.42204
-4.36396
-4.30391
-4.24181
-4.17759
-4.11116
-4.04245
-3.97137
-3.89783
-3.82175
-3.74302
-3.66156
-3.57724
-3.48998
-3.39964
-3.30613
-3.20931
-3.10906
-3.00524
-2.89773
-2.78637
-2.67101
-2.5515
-2.42946
-2.3083
-2.18977
-2.07384
-1.96047
-1.84963
-1.7413
-1.63544
-1.53199
-1.4309
-1.33216
-1.23575
-1.14164
-1.04978
-0.960142
-0.872691
-0.787392
-0.704211
-0.623115
-0.544053
-0.46698
-0.391861
-0.31866
-0.247341
-0.17787
-0.110213
-0.0443392
0.0197857
0.0821943
0.14292
0.201995
-5.75024
-5.74053
-5.73234
-5.72384
-5.71501
-5.70585
-5.69637
-5.68655
-5.67638
-5.66583
-5.6549
-5.64357
-5.63179
-5.61956
-5.60682
-5.59356
-5.57972
-5.56526
-5.55013
-5.5343
-5.51772
-5.50033
-5.48201
-5.46271
-5.44234
-5.42086
-5.39823
-5.37444
-5.34948
-5.3234
-5.29627
-5.26808
-5.23877
-5.20832
-5.17674
-5.14402
-5.11014
-5.07508
-5.0388
-5.00128
-4.96247
-4.92234
-4.88085
-4.83795
-4.7936
-4.74775
-4.70034
-4.65133
-4.60065
-4.54825
-4.49406
-4.43803
-4.38008
-4.32015
-4.25816
-4.19404
-4.12771
-4.05909
-3.98809
-3.91462
-3.8386
-3.75992
-3.67849
-3.5942
-3.50694
-3.4166
-3.32306
-3.2262
-3.12588
-3.02199
-2.91437
-2.80289
-2.68738
-2.5677
-2.44545
-2.32408
-2.20532
-2.08914
-1.97551
-1.86441
-1.75581
-1.64967
-1.54592
-1.44452
-1.34548
-1.24877
-1.15435
-1.06218
-0.972232
-0.884464
-0.798847
-0.715346
-0.633931
-0.554564
-0.477197
-0.40178
-0.328276
-0.256654
-0.186882
-0.118925
-0.0527531
0.0116672
0.0743675
0.13538
0.194739
0.252475
0.308624
-5.75006
-5.74033
-5.73211
-5.72359
-5.71473
-5.70557
-5.69609
-5.68629
-5.67614
-5.66563
-5.65475
-5.64348
-5.63179
-5.61966
-5.60707
-5.59397
-5.58035
-5.56615
-5.55135
-5.53589
-5.51972
-5.5028
-5.48511
-5.46656
-5.44707
-5.42654
-5.40492
-5.38214
-5.35817
-5.33297
-5.30656
-5.27893
-5.25015
-5.22025
-5.18919
-5.15689
-5.12338
-5.08864
-5.05266
-5.0154
-4.97684
-4.93694
-4.89566
-4.85297
-4.80881
-4.76313
-4.7159
-4.66706
-4.61654
-4.56429
-4.51025
-4.45436
-4.39655
-4.33675
-4.27488
-4.21087
-4.14465
-4.07612
-4.00521
-3.93182
-3.85587
-3.77724
-3.69585
-3.61159
-3.52434
-3.434
-3.34044
-3.24354
-3.14317
-3.0392
-2.93148
-2.81987
-2.70421
-2.58436
-2.46191
-2.34031
-2.22131
-2.10488
-1.99099
-1.87962
-1.77074
-1.66431
-1.56025
-1.45855
-1.3592
-1.26217
-1.16743
-1.07494
-0.984661
-0.896565
-0.810617
-0.726783
-0.645032
-0.565334
-0.487652
-0.411933
-0.33812
-0.266185
-0.196104
-0.12784
-0.0613619
0.00336231
0.0663634
0.127673
0.187323
0.245345
0.301774
0.356641
-5.74993
-5.74017
-5.73192
-5.72338
-5.71451
-5.70533
-5.69585
-5.68604
-5.6759
-5.66541
-5.65455
-5.64331
-5.63167
-5.61961
-5.60711
-5.59413
-5.58065
-5.56664
-5.55205
-5.53686
-5.52103
-5.50449
-5.48721
-5.46914
-5.45025
-5.43047
-5.4097
-5.38786
-5.36489
-5.34071
-5.31529
-5.28859
-5.2606
-5.23131
-5.20078
-5.16905
-5.1361
-5.10183
-5.06625
-5.02935
-4.99111
-4.95151
-4.9105
-4.86805
-4.82411
-4.77866
-4.73163
-4.68297
-4.63264
-4.58056
-4.52669
-4.47096
-4.41329
-4.35363
-4.2919
-4.22802
-4.16191
-4.09349
-4.02268
-3.94938
-3.87349
-3.79493
-3.71359
-3.62936
-3.54214
-3.4518
-3.35822
-3.26129
-3.16087
-3.05682
-2.949
-2.83727
-2.72147
-2.60143
-2.47878
-2.35696
-2.23771
-2.12103
-2.00687
-1.89523
-1.78606
-1.67932
-1.57496
-1.47294
-1.37327
-1.27591
-1.18084
-1.08802
-0.997409
-0.908976
-0.822687
-0.738509
-0.656409
-0.576357
-0.498323
-0.42227
-0.348155
-0.275919
-0.205522
-0.136941
-0.0701466
-0.0051095
0.0582014
0.119817
0.179767
0.238085
0.294801
0.34995
0.403564
0.455677
-5.74984
-5.74005
-5.73178
-5.72322
-5.71433
-5.70514
-5.69565
-5.68584
-5.67569
-5.6652
-5.65435
-5.64313
-5.63151
-5.61949
-5.60703
-5.59412
-5.58074
-5.56684
-5.55242
-5.53742
-5.52181
-5.50555
-5.48861
-5.47093
-5.45245
-5.43314
-5.41297
-5.39186
-5.36971
-5.34646
-5.32202
-5.29634
-5.26935
-5.24102
-5.21133
-5.18028
-5.14788
-5.11418
-5.07918
-5.0428
-5.005
-4.96578
-4.92513
-4.883
-4.83936
-4.79417
-4.74738
-4.69896
-4.64884
-4.59696
-4.54328
-4.48773
-4.43023
-4.37073
-4.30914
-4.2454
-4.17943
-4.11113
-4.04042
-3.96722
-3.89142
-3.81293
-3.73165
-3.64746
-3.56027
-3.46994
-3.37636
-3.2794
-3.17893
-3.07481
-2.9669
-2.85505
-2.73909
-2.61888
-2.49602
-2.37398
-2.25449
-2.13754
-2.02312
-1.91119
-1.80173
-1.69469
-1.59001
-1.48767
-1.38767
-1.28998
-1.19457
-1.10141
-1.01045
-0.921668
-0.835027
-0.750493
-0.668036
-0.587624
-0.509226
-0.432814
-0.358355
-0.285808
-0.215109
-0.146208
-0.0790871
-0.0137262
0.0499043
0.111835
0.172096
0.230717
0.287732
0.34317
0.397067
0.449454
0.500365
0.549836
0.5979
0.644591
-5.74977
-5.73996
-5.73168
-5.7231
-5.71419
-5.705
-5.6955
-5.68568
-5.67553
-5.66504
-5.65419
-5.64297
-5.63136
-5.61935
-5.60692
-5.59405
-5.58072
-5.5669
-5.55257
-5.5377
-5.52225
-5.50619
-5.48948
-5.47208
-5.45395
-5.43504
-5.41528
-5.39464
-5.37308
-5.35053
-5.32691
-5.30212
-5.2761
-5.24878
-5.22009
-5.19001
-5.15849
-5.12552
-5.09111
-5.05531
-5.0181
-4.97944
-4.93926
-4.89756
-4.8543
-4.80945
-4.76299
-4.71485
-4.66499
-4.61336
-4.5599
-4.50456
-4.44726
-4.38794
-4.32653
-4.26295
-4.19712
-4.12896
-4.05837
-3.98528
-3.90958
-3.83118
-3.74997
-3.66584
-3.57868
-3.48837
-3.39479
-3.29781
-3.1973
-3.09312
-2.98512
-2.87315
-2.75706
-2.63667
-2.51361
-2.39133
-2.2716
-2.15439
-2.03969
-1.92748
-1.81772
-1.71037
-1.60537
-1.50271
-1.40238
-1.30435
-1.20859
-1.11507
-1.02376
-0.93462
-0.847617
-0.762719
-0.679896
-0.599115
-0.520346
-0.44356
-0.368729
-0.295826
-0.224807
-0.155604
-0.0881622
-0.022467
0.0414938
0.103749
0.164329
0.223265
0.280585
0.336323
0.39051
0.443179
0.494363
0.544097
0.592415
0.639351
-5.74973
-5.7399
-5.7316
-5.72301
-5.7141
-5.7049
-5.69539
-5.68557
-5.67542
-5.66492
-5.65407
-5.64286
-5.63125
-5.61925
-5.60684
-5.59399
-5.58068
-5.56691
-5.55263
-5.53784
-5.52249
-5.50656
-5.49002
-5.47282
-5.45493
-5.4363
-5.41689
-5.39665
-5.37552
-5.35344
-5.33038
-5.30629
-5.28106
-5.25461
-5.22688
-5.19778
-5.16726
-5.13527
-5.10176
-5.06673
-5.03016
-4.99208
-4.9525
-4.91138
-4.86864
-4.82425
-4.77819
-4.73042
-4.6809
-4.62958
-4.5764
-4.52132
-4.46426
-4.40516
-4.34395
-4.28055
-4.21489
-4.14689
-4.07645
-4.00349
-3.92791
-3.84961
-3.76848
-3.68442
-3.59731
-3.50703
-3.41346
-3.31648
-3.21594
-3.1117
-3.00362
-2.89154
-2.77531
-2.65475
-2.53149
-2.40898
-2.28901
-2.17154
-2.05656
-1.94406
-1.834
-1.72634
-1.62103
-1.51803
-1.41736
-1.31898
-1.22287
-1.129
-1.03732
-0.94781
-0.860436
-0.775165
-0.691965
-0.610807
-0.531659
-0.454491
-0.379276
-0.305991
-0.234606
-0.165077
-0.0973323
-0.0313139
0.0329871
0.0955778
0.156486
0.215744
0.273379
0.329424
0.38391
0.436869
0.488334
0.538339
0.586917
0.634104
-5.74971
-5.73986
-5.73155
-5.72296
-5.71404
-5.70484
-5.69533
-5.68551
-5.67536
-5.66486
-5.65402
-5.6428
-5.63121
-5.61921
-5.60681
-5.59397
-5.58069
-5.56693
-5.55269
-5.53794
-5.52266
-5.50681
-5.49037
-5.47331
-5.45559
-5.43716
-5.418
-5.39805
-5.37726
-5.35558
-5.33296
-5.30934
-5.28467
-5.25889
-5.23193
-5.20369
-5.17409
-5.14307
-5.11055
-5.07649
-5.04083
-5.00356
-4.96464
-4.92411
-4.88198
-4.8382
-4.79268
-4.74539
-4.69631
-4.64538
-4.59257
-4.53781
-4.48105
-4.42222
-4.36126
-4.29809
-4.23264
-4.16483
-4.09456
-4.02176
-3.94631
-3.86813
-3.7871
-3.70313
-3.61608
-3.52586
-3.43232
-3.33533
-3.23477
-3.13049
-3.02234
-2.91016
-2.79379
-2.67307
-2.54961
-2.42689
-2.30667
-2.18894
-2.07368
-1.96089
-1.85053
-1.74256
-1.63693
-1.5336
-1.43259
-1.33386
-1.23739
-1.14315
-1.0511
-0.961213
-0.87346
-0.787807
-0.704224
-0.622679
-0.543143
-0.465585
-0.389979
-0.3163
-0.244525
-0.174625
-0.10655
-0.0402255
0.0244022
0.0873379
0.148586
0.208174
0.266134
0.322495
0.377288
0.430545
0.482299
0.532583
0.581431
0.628876
-5.74971
-5.73983
-5.73153
-5.72293
-5.71401
-5.70481
-5.69531
-5.68549
-5.67534
-5.66485
-5.65401
-5.64281
-5.63122
-5.61923
-5.60684
-5.59401
-5.58075
-5.56701
-5.5528
-5.53808
-5.52283
-5.50704
-5.49067
-5.47369
-5.45608
-5.43779
-5.4188
-5.39905
-5.37851
-5.35713
-5.33485
-5.31163
-5.2874
-5.26211
-5.23569
-5.2081
-5.17925
-5.14906
-5.11744
-5.08433
-5.04964
-5.01332
-4.97533
-4.93562
-4.89417
-4.851
-4.8061
-4.75944
-4.71092
-4.6605
-4.60814
-4.5538
-4.49742
-4.43894
-4.37829
-4.31541
-4.25022
-4.18264
-4.11258
-4.03996
-3.96469
-3.88665
-3.80576
-3.72188
-3.63493
-3.54477
-3.45127
-3.35431
-3.25374
-3.14943
-3.04122
-2.92895
-2.81246
-2.69158
-2.56793
-2.44499
-2.32453
-2.20654
-2.09101
-1.97793
-1.86726
-1.75899
-1.65304
-1.54939
-1.44802
-1.34894
-1.25211
-1.15749
-1.06507
-0.974804
-0.886666
-0.800624
-0.716648
-0.634709
-0.554777
-0.476822
-0.400817
-0.326738
-0.254561
-0.184265
-0.115818
-0.0491624
0.0157759
0.0790425
0.140639
0.200569
0.25886
0.315544
0.370652
0.424214
0.476263
0.526832
0.575954
0.623664
0.669996
-5.74972
-5.73982
-5.73152
-5.72292
-5.71401
-5.70481
-5.69531
-5.6855
-5.67536
-5.66488
-5.65405
-5.64286
-5.63128
-5.61931
-5.60692
-5.59411
-5.58086
-5.56715
-5.55296
-5.53826
-5.52305
-5.50729
-5.49096
-5.47404
-5.4565
-5.43831
-5.41943
-5.39983
-5.37946
-5.35829
-5.33626
-5.31334
-5.28945
-5.26456
-5.23859
-5.21148
-5.18318
-5.15362
-5.12273
-5.09042
-5.05661
-5.02121
-4.98417
-4.9454
-4.90486
-4.8625
-4.8183
-4.77226
-4.72438
-4.6746
-4.62282
-4.569
-4.5131
-4.45506
-4.39481
-4.33229
-4.26743
-4.20014
-4.13035
-4.05797
-3.98291
-3.90506
-3.82434
-3.74059
-3.65374
-3.56368
-3.47025
-3.37333
-3.27278
-3.16845
-3.06019
-2.94785
-2.83125
-2.71023
-2.5864
-2.46325
-2.34255
-2.22431
-2.10851
-1.99513
-1.88416
-1.77557
-1.66932
-1.56534
-1.46363
-1.36419
-1.26699
-1.17201
-1.0792
-0.988552
-0.900023
-0.813587
-0.729213
-0.646873
-0.566538
-0.488179
-0.411769
-0.337282
-0.264697
-0.193993
-0.125146
-0.0581228
0.00714568
0.0707308
0.132664
0.192943
0.251575
0.30859
0.364018
0.417892
0.470243
0.521103
0.570506
0.618485
0.665076
-5.74974
-5.73982
-5.73152
-5.72293
-5.71402
-5.70483
-5.69534
-5.68554
-5.67541
-5.66494
-5.65413
-5.64294
-5.63138
-5.61942
-5.60705
-5.59426
-5.58102
-5.56733
-5.55316
-5.53849
-5.52331
-5.50758
-5.49129
-5.47442
-5.45693
-5.4388
-5.41999
-5.40049
-5.38024
-5.35922
-5.33737
-5.31466
-5.29103
-5.26643
-5.24081
-5.21411
-5.18625
-5.15718
-5.12683
-5.09514
-5.06203
-5.02742
-4.99122
-4.95335
-4.91373
-4.87229
-4.82899
-4.78375
-4.73656
-4.68742
-4.63629
-4.58312
-4.52781
-4.47031
-4.41056
-4.34849
-4.28404
-4.21713
-4.14768
-4.0756
-4.00081
-3.9232
-3.84267
-3.75912
-3.67244
-3.58249
-3.48916
-3.3923
-3.29179
-3.18746
-3.07918
-2.96678
-2.8501
-2.72895
-2.60495
-2.4816
-2.36068
-2.24218
-2.12611
-2.01245
-1.90117
-1.79228
-1.68571
-1.58141
-1.47936
-1.37957
-1.28201
-1.18665
-1.09346
-1.00242
-0.9135
-0.826665
-0.741888
-0.659142
-0.578399
-0.499631
-0.42281
-0.347911
-0.274913
-0.203794
-0.134533
-0.0671086
-0.00148536
0.0624219
0.124691
0.18532
0.244297
0.301647
0.357402
0.411592
0.464249
0.515405
0.565094
0.613349
0.660203
-5.74977
-5.73983
-5.73154
-5.72295
-5.71405
-5.70487
-5.69539
-5.6856
-5.67548
-5.66502
-5.65422
-5.64305
-5.6315
-5.61956
-5.60721
-5.59443
-5.58122
-5.56755
-5.5534
-5.53875
-5.5236
-5.5079
-5.49165
-5.47481
-5.45736
-5.43928
-5.42054
-5.4011
-5.38094
-5.36002
-5.3383
-5.31574
-5.2923
-5.26792
-5.24256
-5.21615
-5.18865
-5.15998
-5.13008
-5.09888
-5.06631
-5.0323
-4.99679
-4.95968
-4.92088
-4.88031
-4.83789
-4.79355
-4.74723
-4.69886
-4.64842
-4.5959
-4.54126
-4.4844
-4.42525
-4.36374
-4.2998
-4.23335
-4.16432
-4.09263
-4.01817
-3.94087
-3.86061
-3.7773
-3.69081
-3.60102
-3.50782
-3.41109
-3.31067
-3.20638
-3.0981
-2.98567
-2.86891
-2.74765
-2.6235
-2.49997
-2.37883
-2.2601
-2.14376
-2.02982
-1.91825
-1.80904
-1.70215
-1.59754
-1.49517
-1.39502
-1.2971
-1.20137
-1.1078
-1.01637
-0.927057
-0.839821
-0.75464
-0.671485
-0.59033
-0.511149
-0.433915
-0.358601
-0.285187
-0.213654
-0.14398
-0.0761399
-0.0101092
0.0541606
0.116749
0.177708
0.237034
0.294725
0.35081
0.405321
0.458289
0.509746
0.559724
0.608258
0.655381
0.701128
-5.7498
-5.73984
-5.73156
-5.72297
-5.71408
-5.70491
-5.69544
-5.68566
-5.67556
-5.66511
-5.65432
-5.64317
-5.63163
-5.61971
-5.60738
-5.59462
-5.58143
-5.56778
-5.55365
-5.53903
-5.5239
-5.50824
-5.49201
-5.47521
-5.45781
-5.43977
-5.42108
-5.4017
-5.38161
-5.36076
-5.33914
-5.31669
-5.29338
-5.26916
-5.24398
-5.2178
-5.19056
-5.16219
-5.13264
-5.10185
-5.06973
-5.03622
-5.00125
-4.96473
-4.9266
-4.88677
-4.84515
-4.80164
-4.75618
-4.70867
-4.65906
-4.60728
-4.55331
-4.49713
-4.43866
-4.37779
-4.31444
-4.24855
-4.18004
-4.10881
-4.03478
-3.95786
-3.87795
-3.79494
-3.70872
-3.61916
-3.52614
-3.42954
-3.32922
-3.22503
-3.11681
-3.00438
-2.88758
-2.76624
-2.64197
-2.51827
-2.39694
-2.27798
-2.1614
-2.04718
-1.93531
-1.82579
-1.7186
-1.61367
-1.51098
-1.41049
-1.31221
-1.21611
-1.12217
-1.03036
-0.940648
-0.853013
-0.767426
-0.683862
-0.602296
-0.522701
-0.445053
-0.369326
-0.295498
-0.223546
-0.153448
-0.0851861
-0.0187401
0.0459198
0.108853
0.170131
0.22979
0.287827
0.344249
0.399085
0.452368
0.504129
0.554402
0.603218
0.650613
0.69662
-5.74983
-5.73985
-5.73158
-5.723
-5.71412
-5.70495
-5.6955
-5.68573
-5.67563
-5.66521
-5.65443
-5.64329
-5.63177
-5.61986
-5.60755
-5.59481
-5.58164
-5.56801
-5.55391
-5.53932
-5.52421
-5.50857
-5.49238
-5.47561
-5.45824
-5.44025
-5.4216
-5.40227
-5.38224
-5.36146
-5.33991
-5.31754
-5.29433
-5.27023
-5.2452
-5.21918
-5.19213
-5.164
-5.13472
-5.10423
-5.07247
-5.03936
-5.00484
-4.96882
-4.93123
-4.89199
-4.85101
-4.80823
-4.76353
-4.71683
-4.66804
-4.61709
-4.56389
-4.50841
-4.45062
-4.39045
-4.32777
-4.26251
-4.19458
-4.1239
-4.05039
-3.97393
-3.89444
-3.81181
-3.72593
-3.63668
-3.54392
-3.44754
-3.34739
-3.24332
-3.13517
-3.02279
-2.906
-2.78461
-2.66025
-2.53642
-2.41491
-2.29574
-2.17892
-2.06444
-1.9523
-1.84248
-1.73496
-1.62972
-1.52672
-1.42591
-1.32728
-1.23082
-1.13651
-1.04432
-0.954218
-0.866188
-0.780201
-0.696231
-0.614255
-0.534249
-0.456188
-0.380046
-0.3058
-0.233431
-0.162917
-0.0942388
-0.0273762
0.0376924
0.101002
0.162616
0.222597
0.280968
0.337729
0.392895
0.446496
0.498565
0.549134
0.598236
0.645905
0.692175
-5.74986
-5.73985
-5.7316
-5.72303
-5.71415
-5.705
-5.69555
-5.68579
-5.67571
-5.66529
-5.65453
-5.6434
-5.6319
-5.62001
-5.60771
-5.59499
-5.58184
-5.56823
-5.55415
-5.53959
-5.52451
-5.5089
-5.49273
-5.476
-5.45866
-5.44071
-5.4221
-5.40282
-5.38283
-5.36211
-5.34062
-5.31832
-5.29519
-5.27119
-5.24626
-5.22037
-5.19347
-5.16551
-5.13644
-5.10619
-5.0747
-5.04191
-5.00774
-4.97213
-4.93499
-4.89624
-4.85581
-4.81361
-4.76954
-4.72354
-4.67549
-4.62532
-4.57291
-4.5182
-4.46112
-4.40163
-4.33965
-4.27506
-4.20778
-4.13772
-4.06478
-3.98887
-3.90988
-3.82771
-3.74224
-3.65336
-3.56093
-3.46483
-3.36492
-3.26104
-3.15304
-3.04076
-2.92401
-2.80263
-2.67821
-2.55428
-2.43262
-2.31328
-2.19624
-2.08152
-1.96911
-1.859
-1.75118
-1.64563
-1.54231
-1.44118
-1.34222
-1.24542
-1.15075
-1.05818
-0.967707
-0.879289
-0.792908
-0.708539
-0.62616
-0.545745
-0.467272
-0.390718
-0.31606
-0.243279
-0.172355
-0.103265
-0.0359915
0.0294875
0.0931957
0.155173
0.215481
0.274175
0.331267
0.386764
0.440684
0.493061
0.543928
0.593317
0.641261
0.687796
-5.74988
-5.73985
-5.73161
-5.72305
-5.71418
-5.70503
-5.69559
-5.68584
-5.67577
-5.66537
-5.65461
-5.6435
-5.63201
-5.62013
-5.60785
-5.59515
-5.58202
-5.56843
-5.55438
-5.53983
-5.52478
-5.50919
-5.49306
-5.47635
-5.45905
-5.44113
-5.42256
-5.40332
-5.38338
-5.36271
-5.34127
-5.31904
-5.29597
-5.27204
-5.24721
-5.22142
-5.19464
-5.16681
-5.13789
-5.10783
-5.07655
-5.044
-5.01012
-4.97482
-4.93805
-4.89971
-4.85972
-4.81802
-4.77449
-4.72906
-4.68164
-4.63213
-4.58045
-4.52647
-4.47013
-4.41135
-4.35005
-4.28615
-4.21954
-4.15013
-4.07782
-4.0025
-3.92408
-3.84243
-3.75745
-3.66901
-3.57698
-3.48123
-3.38162
-3.27801
-3.17022
-3.0581
-2.94146
-2.82013
-2.69571
-2.57172
-2.44996
-2.33047
-2.21325
-2.09831
-1.98565
-1.87527
-1.76715
-1.6613
-1.55767
-1.45624
-1.35696
-1.25982
-1.16481
-1.07189
-0.981042
-0.89225
-0.805487
-0.720728
-0.63795
-0.557135
-0.47826
-0.401301
-0.326239
-0.253053
-0.181724
-0.112231
-0.0445547
0.0213271
0.0854354
0.147798
0.208456
0.267469
0.324881
0.380703
0.434943
0.487629
0.538792
0.588468
0.636688
0.683487
-5.7499
-5.73985
-5.73162
-5.72306
-5.7142
-5.70506
-5.69563
-5.68588
-5.67582
-5.66542
-5.65468
-5.64358
-5.6321
-5.62024
-5.60797
-5.59529
-5.58217
-5.5686
-5.55456
-5.54004
-5.52501
-5.50945
-5.49334
-5.47667
-5.4594
-5.44151
-5.42297
-5.40377
-5.38387
-5.36324
-5.34185
-5.31968
-5.29667
-5.27281
-5.24804
-5.22234
-5.19565
-5.16794
-5.13914
-5.10922
-5.07811
-5.04575
-5.01209
-4.97705
-4.94056
-4.90254
-4.86293
-4.82162
-4.77855
-4.73362
-4.68673
-4.63779
-4.58671
-4.53339
-4.47772
-4.41962
-4.35901
-4.29578
-4.22985
-4.1611
-4.08944
-4.01475
-3.93692
-3.85585
-3.7714
-3.68346
-3.59189
-3.49657
-3.39733
-3.29404
-3.18653
-3.07463
-2.95817
-2.83696
-2.71259
-2.5886
-2.46678
-2.34718
-2.22981
-2.11468
-2.00181
-1.89118
-1.7828
-1.67665
-1.57272
-1.47098
-1.3714
-1.27395
-1.1786
-1.08534
-0.994149
-0.904998
-0.817864
-0.732728
-0.649568
-0.568365
-0.489098
-0.411747
-0.33629
-0.262708
-0.190984
-0.121098
-0.0530289
0.0132444
0.0777432
0.140491
0.201518
0.260867
0.318592
0.374727
0.429283
0.482276
0.533736
0.583697
0.632192
0.679256
-5.74991
-5.73983
-5.73162
-5.72306
-5.71421
-5.70507
-5.69564
-5.6859
-5.67585
-5.66546
-5.65472
-5.64363
-5.63216
-5.62031
-5.60806
-5.59539
-5.58228
-5.56873
-5.55471
-5.54021
-5.5252
-5.50966
-5.49358
-5.47693
-5.45969
-5.44183
-5.42333
-5.40416
-5.3843
-5.36371
-5.34237
-5.32024
-5.29729
-5.27348
-5.24878
-5.22314
-5.19654
-5.16891
-5.14022
-5.11041
-5.07943
-5.04722
-5.01373
-4.97889
-4.94263
-4.90488
-4.86556
-4.82459
-4.78188
-4.73736
-4.69091
-4.64246
-4.59191
-4.53915
-4.48408
-4.4266
-4.36662
-4.30404
-4.23876
-4.17066
-4.09964
-4.02559
-3.94838
-3.86789
-3.78402
-3.69661
-3.60555
-3.51069
-3.41189
-3.30898
-3.20181
-3.09021
-2.97398
-2.85295
-2.7287
-2.60476
-2.48294
-2.36328
-2.2458
-2.13053
-2.01747
-1.90663
-1.798
-1.69158
-1.58737
-1.48534
-1.38546
-1.28771
-1.19205
-1.09847
-1.00695
-0.917454
-0.829969
-0.744474
-0.660949
-0.579374
-0.499732
-0.422002
-0.346164
-0.2722
-0.200093
-0.129825
-0.061375
0.00527697
0.0701527
0.133275
0.194669
0.254368
0.312415
0.368855
0.423716
0.477014
0.52877
0.579014
0.627783
0.67511
-5.74991
-5.73981
-5.73161
-5.72305
-5.7142
-5.70506
-5.69564
-5.68591
-5.67585
-5.66547
-5.65474
-5.64365
-5.63219
-5.62035
-5.60811
-5.59545
-5.58236
-5.56882
-5.55482
-5.54033
-5.52534
-5.50982
-5.49376
-5.47713
-5.45992
-5.44209
-5.42362
-5.40448
-5.38465
-5.3641
-5.3428
-5.32071
-5.29781
-5.27405
-5.24941
-5.22383
-5.19729
-5.16974
-5.14113
-5.11142
-5.08055
-5.04847
-5.01512
-4.98043
-4.94436
-4.90681
-4.86773
-4.82703
-4.78462
-4.74043
-4.69436
-4.64632
-4.59621
-4.54393
-4.48938
-4.43245
-4.37304
-4.31106
-4.24638
-4.1789
-4.1085
-4.03506
-3.95845
-3.87856
-3.79526
-3.70841
-3.61788
-3.52353
-3.42519
-3.32272
-3.21594
-3.10469
-2.98876
-2.86796
-2.7439
-2.62007
-2.4983
-2.37863
-2.2611
-2.14572
-2.03252
-1.9215
-1.81266
-1.70601
-1.60153
-1.49922
-1.39906
-1.30102
-1.20507
-1.11119
-1.01936
-0.929543
-0.84173
-0.755897
-0.672026
-0.5901
-0.510101
-0.432011
-0.355809
-0.28148
-0.209006
-0.138371
-0.0695548
-0.00253821
0.0627001
0.126182
0.187932
0.247978
0.306355
0.363103
0.41826
0.471852
0.5239
0.574427
0.623468
0.671057
-5.74991
-5.73978
-5.73159
-5.72303
-5.71418
-5.70504
-5.69562
-5.68589
-5.67583
-5.66545
-5.65473
-5.64364
-5.63219
-5.62035
-5.60812
-5.59547
-5.58239
-5.56886
-5.55487
-5.5404
-5.52542
-5.50992
-5.49388
-5.47728
-5.46008
-5.44228
-5.42383
-5.40473
-5.38493
-5.36441
-5.34314
-5.32109
-5.29823
-5.27452
-5.24993
-5.22441
-5.19793
-5.17044
-5.1419
-5.11227
-5.08149
-5.04951
-5.01627
-4.98172
-4.94579
-4.90841
-4.86952
-4.82903
-4.78687
-4.74296
-4.6972
-4.6495
-4.59976
-4.54789
-4.49378
-4.43733
-4.37843
-4.31698
-4.25285
-4.18594
-4.11611
-4.04325
-3.96723
-3.88791
-3.80518
-3.71888
-3.62889
-3.53505
-3.4372
-3.3352
-3.22885
-3.11798
-3.00239
-2.8819
-2.75807
-2.63441
-2.51274
-2.39312
-2.27558
-2.16015
-2.04685
-1.93568
-1.82667
-1.71982
-1.61512
-1.51256
-1.41213
-1.31381
-1.21759
-1.12343
-1.0313
-0.941193
-0.853076
-0.766931
-0.682739
-0.600483
-0.520149
-0.441719
-0.365176
-0.290501
-0.21768
-0.146696
-0.0775304
-0.0101654
0.0554198
0.119246
0.181338
0.241719
0.30042
0.357478
0.41293
0.466807
0.519136
0.569943
0.619254
0.667103
-5.74989
-5.73973
-5.73156
-5.723
-5.71414
-5.705
-5.69557
-5.68584
-5.67579
-5.66541
-5.65468
-5.6436
-5.63215
-5.62032
-5.60809
-5.59545
-5.58237
-5.56886
-5.55488
-5.54041
-5.52545
-5.50997
-5.49394
-5.47735
-5.46018
-5.44239
-5.42397
-5.40489
-5.38512
-5.36464
-5.3434
-5.32139
-5.29856
-5.27489
-5.25034
-5.22487
-5.19844
-5.171
-5.14253
-5.11296
-5.08226
-5.05036
-5.01722
-4.98277
-4.94696
-4.90972
-4.87099
-4.83067
-4.78871
-4.74502
-4.69951
-4.65209
-4.60267
-4.55114
-4.49741
-4.44137
-4.38291
-4.32192
-4.25829
-4.19189
-4.12259
-4.05026
-3.97478
-3.89601
-3.81382
-3.72806
-3.63859
-3.54527
-3.44792
-3.34639
-3.24049
-3.13004
-3.01484
-2.89467
-2.77113
-2.64769
-2.52618
-2.40665
-2.28915
-2.17371
-2.06035
-1.9491
-1.83996
-1.73294
-1.62804
-1.52527
-1.42461
-1.32604
-1.22955
-1.13512
-1.04272
-0.952338
-0.86394
-0.777509
-0.693024
-0.610467
-0.529824
-0.45108
-0.374218
-0.29922
-0.226073
-0.154761
-0.085267
-0.0175726
0.0483413
0.112496
0.174912
0.235615
0.294631
0.351992
0.407733
0.461889
0.514492
0.565567
0.615144
0.663249
-5.74987
-5.73968
-5.73151
-5.72295
-5.71408
-5.70494
-5.69551
-5.68577
-5.67572
-5.66534
-5.65461
-5.64353
-5.63208
-5.62025
-5.60802
-5.59538
-5.58231
-5.5688
-5.55483
-5.54037
-5.52542
-5.50995
-5.49394
-5.47736
-5.46021
-5.44244
-5.42404
-5.40498
-5.38524
-5.36477
-5.34357
-5.32158
-5.29879
-5.27516
-5.25064
-5.22521
-5.19882
-5.17144
-5.14302
-5.11351
-5.08287
-5.05104
-5.01798
-4.98362
-4.94791
-4.91079
-4.87217
-4.83201
-4.79021
-4.7467
-4.70139
-4.65421
-4.60504
-4.5538
-4.50038
-4.44468
-4.38659
-4.326
-4.26279
-4.19684
-4.128
-4.05617
-3.98119
-3.90294
-3.82127
-3.73603
-3.64708
-3.55425
-3.45739
-3.35633
-3.25089
-3.14087
-3.02606
-2.90627
-2.78304
-2.65985
-2.53854
-2.41915
-2.30174
-2.18634
-2.07297
-1.96166
-1.85243
-1.74529
-1.64024
-1.53729
-1.43642
-1.33764
-1.24092
-1.14624
-1.05359
-0.962946
-0.874283
-0.787579
-0.702821
-0.619989
-0.539065
-0.460034
-0.382882
-0.30759
-0.234144
-0.16253
-0.092731
-0.0247302
0.0414911
0.105952
0.168675
0.229681
0.288997
0.346651
0.402675
0.457104
0.509971
0.561306
0.611137
0.65949
-5.74984
-5.73962
-5.73146
-5.72288
-5.71401
-5.70486
-5.69543
-5.68568
-5.67562
-5.66524
-5.65451
-5.64342
-5.63197
-5.62014
-5.60791
-5.59527
-5.5822
-5.5687
-5.55473
-5.54028
-5.52533
-5.50987
-5.49387
-5.47731
-5.46016
-5.44241
-5.42403
-5.40499
-5.38526
-5.36483
-5.34364
-5.32169
-5.29892
-5.27532
-5.25084
-5.22544
-5.1991
-5.17175
-5.14338
-5.11392
-5.08333
-5.05157
-5.01857
-4.98429
-4.94866
-4.91162
-4.87312
-4.83307
-4.7914
-4.74804
-4.7029
-4.6559
-4.60695
-4.55594
-4.50278
-4.44737
-4.38958
-4.32932
-4.26646
-4.2009
-4.13249
-4.0611
-3.98659
-3.90882
-3.82764
-3.7429
-3.65443
-3.56208
-3.46569
-3.36508
-3.26008
-3.15049
-3.0361
-2.91668
-2.79379
-2.67089
-2.5498
-2.43059
-2.3133
-2.19797
-2.08463
-1.97331
-1.86404
-1.75681
-1.65165
-1.54856
-1.44753
-1.34857
-1.25165
-1.15676
-1.06388
-0.973002
-0.884096
-0.797153
-0.712149
-0.629059
-0.547869
-0.468573
-0.391153
-0.315591
-0.241873
-0.169982
-0.0999033
-0.0316194
0.034887
0.0996345
0.162643
0.223935
0.283533
0.341465
0.397759
0.45245
0.505572
0.557157
0.60723
0.65582
-5.7498
-5.73956
-5.73139
-5.7228
-5.71392
-5.70476
-5.69532
-5.68557
-5.6755
-5.66511
-5.65437
-5.64328
-5.63183