/*--------------------------------*- C++ -*----------------------------------*\
  =========                 |
  \\      /  F ield         | OpenFOAM: The Open Source CFD Toolbox
   \\    /   O peration     | Website:  https://openfoam.org
    \\  /    A nd           | Version:  10
     \\/     M anipulation  |
\*---------------------------------------------------------------------------*/
FoamFile
{
    format      ascii;
    class       volVectorField;
    location    "74000";
    object      U;
}
// * * * * * * * * * * * * * * * * * * * * * * * * * * * * * * * * * * * * * //

dimensions      [0 1 -1 0 0 0 0];

internalField   nonuniform List<vector> 
17981
(
(0.129835 3.21431 8.64691e-22)
(0.125765 3.22041 -8.69211e-22)
(0.121763 3.22627 0)
(0.117826 3.23188 -5.52724e-21)
(0.113956 3.2372 1.22085e-20)
(0.110153 3.24223 -6.63388e-21)
(0.10642 3.24693 0)
(0.10276 3.25131 5.77344e-22)
(0.0991762 3.25535 0)
(0.0956705 3.25904 0)
(0.0922459 3.26238 -7.11156e-22)
(0.0889052 3.26538 1.31298e-20)
(0.0856506 3.26803 -1.18996e-20)
(0.0824842 3.27035 0)
(0.0794074 3.27235 0)
(0.0764215 3.27403 0)
(0.0735272 3.27541 0)
(0.0707248 3.27651 -1.34428e-20)
(0.0680142 3.27734 1.28779e-20)
(0.0653949 3.27791 2.67246e-20)
(0.0628662 3.27824 -2.52003e-20)
(0.060427 3.27836 -4.03839e-22)
(0.0580758 3.27826 0)
(0.0558112 3.27798 0)
(0.0536313 3.27752 2.53664e-20)
(0.0515342 3.2769 -2.396e-20)
(0.0495178 3.27613 2.46013e-20)
(0.0475799 3.27523 -2.36306e-20)
(0.0457182 3.27421 -3.67298e-22)
(0.0439305 3.27308 0)
(0.0422144 3.27185 1.77159e-22)
(0.0405674 3.27053 -1.7383e-22)
(0.0389873 3.26913 -1.70469e-22)
(0.0374717 3.26767 2.13972e-20)
(0.0360182 3.26614 -2.0609e-20)
(0.0346244 3.26457 -1.60307e-22)
(0.0332882 3.26294 0)
(0.0320073 3.26129 0)
(0.0307795 3.25959 1.50226e-22)
(0.0296026 3.25788 -1.90624e-20)
(0.0284747 3.25614 -8.60507e-23)
(0.0273936 3.25439 1.77094e-20)
(0.0263575 3.25263 6.85972e-23)
(0.0253645 3.25086 0)
(0.0244127 3.24908 0)
(0.0235004 3.24731 0)
(0.0226259 3.24554 0)
(0.0217875 3.24378 -1.58232e-20)
(0.068334 3.23204 -5.20325e-21)
(0.0636023 3.23847 0)
(0.0589539 3.24465 -1.5291e-20)
(0.0543897 3.25057 3.7742e-20)
(0.0499117 3.25621 -2.15091e-20)
(0.0455222 3.26152 3.25241e-20)
(0.0412244 3.2665 -3.15257e-20)
(0.0370213 3.27113 5.7772e-22)
(0.0329163 3.2754 1.29056e-21)
(0.0289128 3.27929 -4.68323e-20)
(0.0250139 3.28281 9.3481e-20)
(0.0212224 3.28595 -4.79896e-20)
(0.0175405 3.28872 0)
(0.01397 3.29112 1.61876e-21)
(0.0105124 3.29317 -5.44755e-20)
(0.00716814 3.29488 5.21693e-20)
(0.00393755 3.29626 5.53074e-20)
(0.000820246 3.29733 -5.2947e-20)
(-0.00218459 3.29811 8.44757e-22)
(-0.00507821 3.2986 0)
(-0.00786223 3.29884 -4.20109e-22)
(-0.0105386 3.29884 5.46092e-20)
(-0.0131096 3.29862 -5.11103e-20)
(-0.0155776 3.29819 5.37803e-20)
(-0.0179454 3.29758 -1.03052e-19)
(-0.0202157 3.29678 4.97406e-20)
(-0.0223913 3.29584 -5.06824e-20)
(-0.0244755 3.29474 4.86761e-20)
(-0.026471 3.29352 3.78464e-22)
(-0.0283811 3.29219 0)
(-0.0302089 3.29075 1.82623e-22)
(-0.0319573 3.28921 1.79092e-22)
(-0.0336294 3.2876 -4.52061e-20)
(-0.0352282 3.28591 4.38725e-20)
(-0.0367566 3.28417 -5.06291e-22)
(-0.0382176 3.28237 4.28035e-20)
(-0.0396139 3.28052 -4.11059e-20)
(-0.0409483 3.27864 0)
(-0.0422234 3.27672 3.97779e-20)
(-0.0434419 3.27478 -7.71287e-20)
(-0.0446061 3.27282 3.72486e-20)
(-0.0457184 3.27085 -3.71602e-20)
(-0.0467814 3.26887 -6.30699e-22)
(-0.047797 3.26688 3.50786e-20)
(-0.0487675 3.2649 0)
(-0.049695 3.26292 0)
(-0.0505813 3.26094 1.29035e-22)
(-0.0514285 3.25897 -6.37855e-23)
(0.00761242 3.25017 0)
(0.0021706 3.25692 8.46148e-21)
(-0.00316873 3.26341 -9.05218e-21)
(-0.00840374 3.26964 2.19385e-20)
(-0.0135317 3.27556 -2.28299e-20)
(-0.0185491 3.28116 -1.83775e-21)
(-0.0234519 3.2864 0)
(-0.028236 3.29126 -1.23294e-21)
(-0.032897 3.29573 -3.98497e-21)
(-0.0374309 3.2998 0)
(-0.0418341 3.30346 1.52035e-21)
(-0.0461033 3.30671 3.13437e-21)
(-0.0502363 3.30956 0)
(-0.0542314 3.312 -1.40635e-23)
(-0.0580876 3.31407 1.69388e-21)
(-0.0618047 3.31576 0)
(-0.0653833 3.31709 1.13728e-19)
(-0.0688245 3.31809 -1.07061e-19)
(-0.0721301 3.31876 -1.1458e-19)
(-0.0753021 3.31914 1.08816e-19)
(-0.0783434 3.31924 -1.72255e-21)
(-0.0812568 3.31908 0)
(-0.0840457 3.31869 8.45388e-22)
(-0.0867136 3.31807 -8.38999e-22)
(-0.0892641 3.31724 8.27446e-22)
(-0.091701 3.31624 -1.05111e-19)
(-0.0940283 3.31507 1.01677e-19)
(-0.0962498 3.31374 -7.91818e-22)
(-0.0983696 3.31228 0)
(-0.100392 3.3107 9.82602e-20)
(-0.10232 3.30901 2.33764e-21)
(-0.104158 3.30722 -9.42628e-20)
(-0.105909 3.30535 0)
(-0.107578 3.30341 0)
(-0.109168 3.3014 -9.01143e-20)
(-0.110683 3.29934 8.72001e-20)
(-0.112126 3.29724 -3.33834e-22)
(-0.113499 3.2951 0)
(-0.114808 3.29293 3.1986e-22)
(-0.116053 3.29073 -3.1246e-22)
(-0.117239 3.28852 -7.87912e-20)
(-0.118369 3.2863 7.60945e-20)
(-0.119444 3.28408 1.4605e-22)
(-0.120468 3.28185 -1.43276e-22)
(-0.121443 3.27962 -2.79491e-22)
(-0.122372 3.27741 0)
(-0.123256 3.2752 -1.33088e-22)
(-0.124098 3.27301 -6.7899e-20)
(-0.0765022 3.29539 -1.39663e-21)
(-0.0821907 3.30124 1.92305e-21)
(-0.0877399 3.30672 7.6535e-20)
(-0.0931441 3.3118 -1.58824e-19)
(-0.0983975 3.31645 8.45696e-20)
(-0.103495 3.32066 -2.89716e-21)
(-0.108432 3.32443 1.00402e-19)
(-0.113205 3.32775 -1.02376e-19)
(-0.117811 3.33063 0)
(-0.122249 3.33308 -1.71922e-21)
(-0.126519 3.33511 1.13153e-19)
(-0.130621 3.33673 -1.09839e-19)
(-0.134556 3.33797 -1.13125e-19)
(-0.138326 3.33884 -8.88941e-21)
(-0.141935 3.33937 1.11741e-19)
(-0.145386 3.33957 -1.16162e-19)
(-0.148682 3.33948 1.11161e-19)
(-0.151829 3.33911 0)
(-0.154829 3.33848 1.11461e-19)
(-0.157689 3.33762 -2.20343e-19)
(-0.160413 3.33655 1.04704e-19)
(-0.163007 3.33528 1.0798e-19)
(-0.165474 3.33384 -1.02797e-19)
(-0.16782 3.33223 -8.13565e-22)
(-0.170051 3.33049 -1.03658e-19)
(-0.17217 3.32862 -6.11875e-22)
(-0.174184 3.32664 -3.58339e-21)
(-0.176096 3.32456 9.77403e-20)
(-0.177912 3.32239 9.62375e-20)
(-0.179635 3.32015 -1.87042e-19)
(-0.18127 3.31785 9.16292e-20)
(-0.182822 3.31549 -9.0567e-20)
(-0.184294 3.3131 8.76844e-20)
(-0.185691 3.31066 -8.68171e-20)
(-0.187015 3.3082 -2.1658e-21)
(-0.188272 3.30573 8.20203e-20)
(-0.189463 3.30323 9.47036e-22)
(-0.190593 3.30074 -7.91899e-20)
(-0.191665 3.29823 7.65146e-20)
(-0.192681 3.29574 2.94809e-22)
(-0.193644 3.29325 2.88147e-22)
(-0.194558 3.29077 7.22442e-20)
(-0.195424 3.28831 -7.01498e-20)
(-0.196246 3.28587 0)
(-0.13917 3.31577 -3.78541e-20)
(-0.145579 3.32187 -3.68703e-21)
(-0.151823 3.32757 0)
(-0.157891 3.33283 8.64651e-20)
(-0.163777 3.33763 -8.30465e-20)
(-0.169473 3.34195 5.95713e-21)
(-0.174974 3.34578 6.30903e-21)
(-0.180277 3.34913 0)
(-0.185377 3.35199 0)
(-0.190275 3.35438 -3.483e-21)
(-0.19497 3.35632 0)
(-0.199464 3.35781 0)
(-0.20376 3.35889 -3.64972e-21)
(-0.207861 3.35958 1.83094e-21)
(-0.211771 3.3599 -1.1949e-19)
(-0.215495 3.35987 1.1425e-19)
(-0.219039 3.35953 -1.16419e-19)
(-0.222408 3.35889 1.13166e-19)
(-0.225609 3.35798 1.7821e-21)
(-0.228647 3.35682 0)
(-0.23153 3.35544 -1.13252e-19)
(-0.234263 3.35385 -4.74865e-21)
(-0.236853 3.35208 -4.51253e-21)
(-0.239307 3.35015 1.07338e-19)
(-0.241629 3.34807 -1.06498e-19)
(-0.243827 3.34587 -3.07837e-21)
(-0.245906 3.34355 1.03079e-19)
(-0.247872 3.34113 -1.01705e-19)
(-0.249731 3.33862 9.71867e-20)
(-0.251488 3.33605 0)
(-0.253148 3.33341 9.52069e-20)
(-0.254716 3.33072 -9.32475e-20)
(-0.256197 3.328 0)
(-0.257595 3.32524 6.94675e-22)
(-0.258915 3.32246 6.79205e-22)
(-0.260162 3.31966 6.66077e-22)
(-0.261338 3.31685 8.32517e-20)
(-0.262448 3.31405 -1.64098e-19)
(-0.263496 3.31124 8.02594e-20)
(-0.264484 3.30845 0)
(-0.265417 3.30567 0)
(-0.266297 3.3029 7.52631e-20)
(-0.267127 3.30016 -7.25336e-20)
(-0.26791 3.29744 0)
(-0.201716 3.33683 -3.94902e-20)
(-0.208906 3.34316 -6.34769e-20)
(-0.215897 3.34906 1.4299e-19)
(-0.222677 3.35447 -7.50979e-20)
(-0.229236 3.35937 -9.55654e-20)
(-0.235566 3.36375 8.84122e-20)
(-0.24166 3.36759 -3.23618e-21)
(-0.247513 3.3709 0)
(-0.253124 3.37368 -1.15554e-19)
(-0.258491 3.37595 2.32033e-19)
(-0.263617 3.37772 7.28977e-21)
(-0.268504 3.37902 -1.14571e-19)
(-0.273156 3.37988 -3.704e-21)
(-0.27758 3.38031 -1.2229e-19)
(-0.28178 3.38035 1.16832e-19)
(-0.285765 3.38002 -1.21705e-19)
(-0.28954 3.37935 -4.56936e-21)
(-0.293115 3.37838 1.15772e-19)
(-0.296497 3.37712 -5.47699e-21)
(-0.299694 3.3756 0)
(-0.302713 3.37386 2.28454e-24)
(-0.305564 3.3719 1.76554e-21)
(-0.308253 3.36975 1.12861e-19)
(-0.310789 3.36744 2.71785e-21)
(-0.313179 3.36497 -2.16181e-19)
(-0.31543 3.36238 1.0351e-19)
(-0.317549 3.35968 -3.26787e-21)
(-0.319544 3.35687 0)
(-0.321421 3.35399 -2.03746e-19)
(-0.323185 3.35103 1.96349e-19)
(-0.324844 3.34802 0)
(-0.326404 3.34496 7.44331e-22)
(-0.327868 3.34187 1.88384e-19)
(-0.329244 3.33875 -1.82558e-19)
(-0.330535 3.33561 0)
(-0.331747 3.33246 -6.86086e-22)
(-0.332885 3.32931 6.73012e-22)
(-0.333952 3.32617 6.57488e-22)
(-0.334953 3.32303 -1.66489e-19)
(-0.335891 3.31991 1.60385e-19)
(-0.336771 3.31681 -6.17001e-22)
(-0.337595 3.31373 -1.55688e-19)
(-0.338367 3.31069 1.50085e-19)
(-0.339091 3.30767 0)
(-0.272446 3.36524 -3.6051e-21)
(-0.280241 3.37129 -4.36646e-21)
(-0.287779 3.3768 0)
(-0.29505 3.38175 -5.58586e-21)
(-0.302041 3.38612 -6.05804e-21)
(-0.308747 3.3899 0)
(-0.315164 3.39309 -1.13964e-19)
(-0.321289 3.39571 1.08661e-19)
(-0.327125 3.39777 0)
(-0.332674 3.39929 -2.44578e-19)
(-0.337943 3.40031 2.36992e-19)
(-0.342937 3.40086 3.79988e-21)
(-0.347664 3.40095 0)
(-0.352134 3.40063 0)
(-0.356355 3.39993 -3.7964e-21)
(-0.360337 3.39887 0)
(-0.364089 3.39749 2.45408e-19)
(-0.367623 3.39581 -4.78194e-19)
(-0.370948 3.39387 4.73667e-19)
(-0.374074 3.39169 -2.28925e-19)
(-0.37701 3.3893 0)
(-0.379767 3.38672 2.29679e-19)
(-0.382354 3.38397 -2.22416e-19)
(-0.384779 3.38107 0)
(-0.387051 3.37804 2.22612e-19)
(-0.389179 3.3749 -4.28167e-19)
(-0.391171 3.37167 2.07538e-19)
(-0.393034 3.36836 -2.09637e-19)
(-0.394776 3.36498 2.00506e-19)
(-0.396403 3.36155 -2.01952e-19)
(-0.397923 3.35808 1.94862e-19)
(-0.399342 3.35458 0)
(-0.400665 3.35107 1.88909e-19)
(-0.401899 3.34754 -1.83909e-19)
(-0.403049 3.34401 0)
(-0.40412 3.34048 -1.79646e-19)
(-0.405116 3.33697 1.73708e-19)
(-0.406044 3.33347 -6.66567e-22)
(-0.406906 3.33 -1.67789e-19)
(-0.407707 3.32655 3.26503e-19)
(-0.408451 3.32314 -1.58247e-19)
(-0.409141 3.31977 1.57599e-19)
(-0.409781 3.31643 1.49419e-21)
(-0.353533 3.39987 -5.01767e-21)
(-0.361535 3.40478 1.65291e-22)
(-0.369199 3.40905 6.24882e-21)
(-0.376518 3.41267 0)
(-0.383491 3.41564 -2.37874e-19)
(-0.390118 3.418 4.5149e-19)
(-0.396402 3.41976 1.71122e-20)
(-0.402351 3.42094 1.57879e-20)
(-0.407973 3.42159 -2.4839e-19)
(-0.413277 3.42173 -3.83884e-21)
(-0.418274 3.4214 0)
(-0.422976 3.42063 -2.54252e-19)
(-0.427395 3.41947 -6.74567e-21)
(-0.431544 3.41794 2.46427e-19)
(-0.435435 3.41608 0)
(-0.43908 3.41392 9.57724e-24)
(-0.442492 3.41149 3.78127e-21)
(-0.445683 3.40882 -3.74391e-21)
(-0.448665 3.40593 0)
(-0.451449 3.40285 2.35484e-19)
(-0.454046 3.39961 -2.28123e-19)
(-0.456466 3.39622 0)
(-0.458721 3.39271 1.75328e-21)
(-0.460819 3.38909 2.23289e-19)
(-0.462769 3.38538 -2.11748e-19)
(-0.464581 3.3816 0)
(-0.466263 3.37776 2.11966e-19)
(-0.467823 3.37387 -2.04529e-19)
(-0.469269 3.36995 1.5838e-21)
(-0.470607 3.36602 0)
(-0.471845 3.36207 1.52279e-21)
(-0.472988 3.35812 0)
(-0.474044 3.35417 -1.88844e-19)
(-0.475017 3.35024 3.67637e-19)
(-0.475913 3.34633 -3.60198e-19)
(-0.476737 3.34245 1.76725e-19)
(-0.477494 3.3386 0)
(-0.478189 3.33478 6.59835e-22)
(-0.478825 3.33101 -1.66376e-19)
(-0.479407 3.32729 3.2325e-19)
(-0.479938 3.32361 -1.59939e-19)
(-0.429038 3.42838 -1.89874e-19)
(-0.437356 3.43243 1.80101e-19)
(-0.445263 3.43577 0)
(-0.452758 3.43842 7.02922e-21)
(-0.459847 3.4404 1.09028e-22)
(-0.466537 3.44174 0)
(-0.472839 3.44248 0)
(-0.478764 3.44265 1.54888e-20)
(-0.484327 3.44229 3.92953e-21)
(-0.489542 3.44145 3.92669e-21)
(-0.494424 3.44015 0)
(-0.498989 3.43845 -2.58521e-19)
(-0.503252 3.43637 2.43351e-19)
(-0.507229 3.43396 2.56019e-19)
(-0.510934 3.43124 -2.41408e-19)
(-0.514382 3.42825 -3.87512e-21)
(-0.517588 3.42502 3.83837e-21)
(-0.520566 3.42158 0)
(-0.523328 3.41795 3.75292e-21)
(-0.525888 3.41416 2.40124e-19)
(-0.528257 3.41024 -2.31084e-19)
(-0.530448 3.40619 -2.36867e-19)
(-0.532471 3.40205 2.26522e-19)
(-0.534336 3.39782 -3.49543e-21)
(-0.536055 3.39353 0)
(-0.537636 3.38919 3.38266e-21)
(-0.539088 3.38482 2.16345e-19)
(-0.540419 3.38042 -2.0897e-19)
(-0.541638 3.37601 2.06978e-19)
(-0.542752 3.3716 -4.03159e-19)
(-0.543768 3.3672 1.96378e-19)
(-0.544693 3.36281 -1.95385e-19)
(-0.545533 3.35845 1.89024e-19)
(-0.546294 3.35412 -7.27927e-22)
(-0.546982 3.34982 1.44592e-24)
(-0.547602 3.34557 7.00305e-22)
(-0.548159 3.34137 0)
(-0.548657 3.33722 -6.71663e-22)
(-0.549101 3.33312 0)
(-0.549494 3.32908 6.5286e-22)
(-0.515222 3.45897 0)
(-0.523176 3.46117 6.94228e-21)
(-0.530659 3.46266 7.36309e-21)
(-0.537685 3.46348 0)
(-0.544269 3.46366 -2.55416e-19)
(-0.550428 3.46326 2.35422e-19)
(-0.55618 3.46231 -7.90876e-21)
(-0.561543 3.46086 -4.01764e-21)
(-0.566536 3.45895 -2.63523e-19)
(-0.571179 3.45663 -1.14606e-20)
(-0.57549 3.45393 2.56065e-19)
(-0.579487 3.45089 0)
(-0.583189 3.44755 -2.59711e-19)
(-0.586612 3.44395 -8.46769e-21)
(-0.589773 3.44011 5.06545e-19)
(-0.592688 3.43606 -2.45268e-19)
(-0.595371 3.43183 -2.4969e-19)
(-0.597839 3.42745 4.83073e-19)
(-0.600103 3.42294 -2.41211e-19)
(-0.602177 3.41832 -1.85268e-21)
(-0.604074 3.41361 -1.8272e-21)
(-0.605805 3.40882 -2.29263e-19)
(-0.60738 3.40399 -4.46949e-21)
(-0.608812 3.39911 2.19543e-19)
(-0.61011 3.39421 -1.71591e-21)
(-0.611283 3.3893 0)
(-0.612339 3.38439 -1.65983e-21)
(-0.613288 3.37949 0)
(-0.614137 3.37461 0)
(-0.614894 3.36976 0)
(-0.615564 3.36494 1.54237e-21)
(-0.616155 3.36017 0)
(-0.616672 3.35544 -7.40357e-22)
(-0.617121 3.35077 1.45433e-24)
(-0.617508 3.34616 -7.1259e-22)
(-0.617837 3.34161 1.80872e-19)
(-0.618113 3.33713 -1.73952e-19)
(-0.618339 3.33271 1.74534e-19)
(-0.616669 3.48414 2.5831e-19)
(-0.622969 3.48307 -2.38158e-19)
(-0.628819 3.48144 8.0909e-21)
(-0.634242 3.47931 0)
(-0.639262 3.47671 -2.68095e-19)
(-0.643901 3.4737 2.56412e-19)
(-0.64818 3.47032 -2.06773e-23)
(-0.652121 3.4666 4.08217e-21)
(-0.655745 3.46259 0)
(-0.659071 3.45832 -4.04534e-21)
(-0.662117 3.45382 -4.02739e-21)
(-0.664903 3.44912 -2.59093e-19)
(-0.667444 3.44425 2.49305e-19)
(-0.669756 3.43923 3.91109e-21)
(-0.671856 3.4341 3.0482e-24)
(-0.673756 3.42887 2.50953e-19)
(-0.675472 3.42356 -2.38402e-19)
(-0.677018 3.41819 -1.85735e-21)
(-0.678402 3.41278 -1.83103e-21)
(-0.679638 3.40735 0)
(-0.680737 3.4019 2.29291e-19)
(-0.681708 3.39645 -2.217e-19)
(-0.682561 3.39102 2.21697e-19)
(-0.683304 3.38561 -2.16201e-19)
(-0.683947 3.38023 -2.13987e-19)
(-0.684496 3.3749 2.08808e-19)
(-0.68496 3.36961 -1.59907e-21)
(-0.685344 3.36437 -2.00769e-19)
(-0.685657 3.3592 1.94507e-19)
(-0.685902 3.3541 -1.93843e-19)
(-0.686086 3.34906 1.90109e-19)
(-0.686215 3.3441 1.86201e-19)
(-0.686292 3.33922 -1.81965e-19)
(-0.686323 3.33442 -7.06503e-22)
(-0.689991 3.50353 0)
(-0.696328 3.50172 -9.72304e-23)
(-0.702176 3.49934 2.69017e-19)
(-0.707565 3.49646 -2.65087e-19)
(-0.712519 3.49312 0)
(-0.717066 3.48937 -8.32206e-21)
(-0.72123 3.48525 4.14629e-21)
(-0.725036 3.48081 2.72771e-19)
(-0.728506 3.47608 9.88036e-21)
(-0.731661 3.4711 -2.56842e-19)
(-0.734524 3.4659 -2.64171e-19)
(-0.737113 3.46052 2.58147e-19)
(-0.739448 3.45498 2.6361e-19)
(-0.741545 3.44931 -2.4999e-19)
(-0.743422 3.44353 2.61964e-19)
(-0.745094 3.43767 -2.52832e-19)
(-0.746575 3.43174 -3.8872e-21)
(-0.74788 3.42577 2.48274e-19)
(-0.749022 3.41976 -4.79019e-19)
(-0.750012 3.41375 -6.43068e-21)
(-0.750863 3.40774 2.33284e-19)
(-0.751585 3.40174 -2.33828e-19)
(-0.752189 3.39576 2.28092e-19)
(-0.752683 3.38983 -2.24475e-19)
(-0.753077 3.38394 4.41464e-19)
(-0.753378 3.3781 -2.15416e-19)
(-0.753596 3.37233 0)
(-0.753737 3.36662 -1.63424e-21)
(-0.753807 3.36099 1.60429e-21)
(-0.753813 3.35544 -3.15121e-21)
(-0.753762 3.34997 -1.99745e-19)
(-0.753657 3.34459 1.94508e-19)
(-0.753505 3.33931 1.48618e-21)
(-0.753311 3.33411 0)
(-0.764055 3.52148 -2.44322e-19)
(-0.770313 3.51886 2.60625e-19)
(-0.776051 3.51568 -5.3752e-19)
(-0.781301 3.512 2.6905e-19)
(-0.786092 3.50788 -8.42186e-21)
(-0.790455 3.50335 -2.70248e-19)
(-0.794417 3.49846 2.58681e-19)
(-0.798003 3.49327 2.74745e-19)
(-0.80124 3.48779 -2.72264e-19)
(-0.80415 3.48208 2.72901e-19)
(-0.806758 3.47617 -2.7091e-19)
(-0.809082 3.47008 0)
(-0.811145 3.46385 -4.17595e-21)
(-0.812963 3.4575 2.64827e-19)
(-0.814556 3.45105 -5.25822e-19)
(-0.81594 3.44454 2.57098e-19)
(-0.817131 3.43798 3.26626e-24)
(-0.818143 3.43138 0)
(-0.81899 3.42477 -7.84729e-21)
(-0.819685 3.41816 2.52144e-19)
(-0.820241 3.41157 -4.8878e-19)
(-0.820669 3.40501 2.38775e-19)
(-0.82098 3.39849 0)
(-0.821183 3.39202 0)
(-0.821289 3.38561 -2.31603e-19)
(-0.821305 3.37927 4.50451e-19)
(-0.82124 3.373 -2.20785e-19)
(-0.821101 3.36682 2.19885e-19)
(-0.820896 3.36072 -2.13273e-19)
(-0.820631 3.35472 -2.22871e-24)
(-0.820312 3.34881 -2.08034e-19)
(-0.819945 3.34301 2.00293e-19)
(-0.819534 3.33731 -7.77112e-22)
(-0.819086 3.33172 -1.99061e-19)
(-0.83858 3.5376 7.93094e-21)
(-0.84464 3.53414 0)
(-0.850156 3.53013 8.4332e-21)
(-0.855163 3.52564 0)
(-0.859694 3.5207 2.91527e-19)
(-0.86378 3.51538 -2.79728e-19)
(-0.867452 3.50972 0)
(-0.870737 3.50375 8.72263e-21)
(-0.873663 3.49752 2.8991e-19)
(-0.876255 3.49107 -2.70345e-19)
(-0.878537 3.48443 -4.34885e-21)
(-0.880531 3.47763 4.33043e-21)
(-0.882258 3.4707 2.8437e-19)
(-0.883739 3.46366 -5.48134e-19)
(-0.884991 3.45655 2.68328e-19)
(-0.886034 3.44938 2.81103e-19)
(-0.886882 3.44218 -2.59467e-19)
(-0.887552 3.43495 -2.66715e-19)
(-0.888058 3.42773 5.29741e-19)
(-0.888414 3.42053 -2.55085e-19)
(-0.888633 3.41336 0)
(-0.888726 3.40623 0)
(-0.888704 3.39915 0)
(-0.888579 3.39214 0)
(-0.88836 3.38521 1.87514e-21)
(-0.888055 3.37836 0)
(-0.887674 3.3716 -1.81617e-21)
(-0.887224 3.36493 2.31823e-19)
(-0.886713 3.35837 -2.23242e-19)
(-0.886146 3.35192 -1.81003e-24)
(-0.885532 3.34558 -2.18039e-19)
(-0.884874 3.33935 2.11691e-19)
(-0.884179 3.33324 1.63302e-21)
(-0.883452 3.32724 0)
(-0.918946 3.54728 2.56266e-19)
(-0.924135 3.54244 -2.81029e-19)
(-0.9288 3.53712 5.54205e-19)
(-0.932978 3.53138 -2.64605e-19)
(-0.936702 3.52527 8.907e-21)
(-0.940004 3.51882 0)
(-0.942913 3.51209 -5.9085e-23)
(-0.945458 3.50512 -8.96699e-21)
(-0.947665 3.49793 2.93131e-19)
(-0.949559 3.49056 -2.73562e-19)
(-0.951163 3.48305 -1.66457e-23)
(-0.952499 3.47543 4.45024e-21)
(-0.953589 3.46772 0)
(-0.95445 3.45994 2.8545e-19)
(-0.955102 3.45212 -2.80433e-19)
(-0.955562 3.44427 2.80303e-19)
(-0.955846 3.43643 -5.48756e-19)
(-0.955969 3.4286 2.64416e-19)
(-0.955945 3.4208 4.19242e-21)
(-0.955787 3.41305 0)
(-0.955508 3.40536 0)
(-0.955119 3.39773 -2.6058e-19)
(-0.954632 3.39019 2.52774e-19)
(-0.954055 3.38273 -1.96181e-21)
(-0.953398 3.37537 0)
(-0.952671 3.36812 1.90241e-21)
(-0.951881 3.36098 -1.87202e-21)
(-0.951036 3.35395 0)
(-0.950142 3.34705 2.332e-19)
(-0.949206 3.34027 -4.53836e-19)
(-0.948234 3.33362 2.22557e-19)
(-0.947231 3.3271 2.19195e-19)
(-0.946203 3.32071 -2.1602e-19)
(-0.992802 3.55805 2.70968e-19)
(-0.997568 3.5524 -2.67111e-19)
(-1.00181 3.54628 8.76432e-21)
(-1.00555 3.53976 2.94758e-19)
(-1.00884 3.53287 -2.74047e-19)
(-1.0117 3.52567 -9.12354e-21)
(-1.01417 3.5182 2.92227e-19)
(-1.01627 3.51049 2.11691e-20)
(-1.01804 3.50259 -2.91364e-19)
(-1.01949 3.49452 -1.39065e-20)
(-1.02065 3.48632 -9.26457e-21)
(-1.02155 3.47801 -3.04721e-19)
(-1.0222 3.46963 5.88672e-19)
(-1.02263 3.4612 -5.85422e-19)
(-1.02285 3.45274 2.82575e-19)
(-1.02288 3.44427 -2.91967e-19)
(-1.02275 3.43582 2.82869e-19)
(-1.02245 3.42739 4.42415e-21)
(-1.02201 3.41901 -2.83267e-19)
(-1.02145 3.41069 2.74737e-19)
(-1.02076 3.40243 4.28117e-21)
(-1.01998 3.39427 0)
(-1.0191 3.38619 0)
(-1.01814 3.37822 -2.65576e-19)
(-1.0171 3.37037 2.57896e-19)
(-1.016 3.36263 2.55764e-19)
(-1.01485 3.35501 -2.5039e-19)
(-1.01365 3.34753 0)
(-1.0124 3.34018 3.81346e-21)
(-1.01113 3.33297 -2.414e-19)
(-1.00982 3.32591 2.36441e-19)
(-1.00849 3.31898 2.33001e-19)
(-1.00714 3.31221 -2.31548e-19)
(-1.06575 3.56633 2.71073e-19)
(-1.07001 3.55991 0)
(-1.07375 3.55304 -9.05772e-21)
(-1.077 3.54577 -1.0441e-22)
(-1.07979 3.53815 -9.35561e-21)
(-1.08216 3.53023 3.18056e-19)
(-1.08413 3.52205 -6.07915e-19)
(-1.08575 3.51364 3.09054e-19)
(-1.08702 3.50505 0)
(-1.08799 3.49631 3.13009e-19)
(-1.08868 3.48744 -2.88069e-19)
(-1.0891 3.47848 0)
(-1.08928 3.46946 3.15404e-19)
(-1.08924 3.4604 -6.09831e-19)
(-1.089 3.45132 6.11296e-19)
(-1.08857 3.44224 7.2441e-21)
(-1.08798 3.43319 -5.98135e-19)
(-1.08724 3.42418 2.93375e-19)
(-1.08636 3.41522 -7.04155e-24)
(-1.08536 3.40634 2.93647e-19)
(-1.08425 3.39755 -2.94087e-19)
(-1.08304 3.38885 0)
(-1.08175 3.38026 0)
(-1.08038 3.37178 -2.81633e-19)
(-1.07895 3.36344 -4.05174e-21)
(-1.07746 3.35522 2.69942e-19)
(-1.07592 3.34714 0)
(-1.07435 3.33921 0)
(-1.07274 3.33143 -2.01306e-21)
(-1.0711 3.3238 -1.98055e-21)
(-1.06944 3.31632 -3.89567e-21)
(-1.06777 3.309 2.4832e-19)
(-1.06609 3.30184 -4.90523e-19)
(-1.14103 3.56497 2.76448e-19)
(-1.14421 3.5574 3.04044e-19)
(-1.14691 3.54944 -3.01625e-19)
(-1.14917 3.54114 -3.04973e-19)
(-1.151 3.53255 2.93258e-19)
(-1.15245 3.5237 0)
(-1.15354 3.51464 -9.92279e-21)
(-1.1543 3.5054 3.24365e-19)
(-1.15475 3.49602 2.15175e-20)
(-1.15493 3.48652 -6.49785e-19)
(-1.15485 3.47694 3.09885e-19)
(-1.15453 3.4673 3.19112e-19)
(-1.154 3.45763 -3.14116e-19)
(-1.15328 3.44795 0)
(-1.15237 3.43829 -3.19371e-19)
(-1.15131 3.42866 6.27052e-19)
(-1.1501 3.41909 -3.12723e-19)
(-1.14876 3.40958 -4.82717e-21)
(-1.14731 3.40016 0)
(-1.14576 3.39084 4.73472e-21)
(-1.14411 3.38162 0)
(-1.14239 3.37252 0)
(-1.1406 3.36356 -2.92606e-19)
(-1.13875 3.35473 2.88965e-19)
(-1.13686 3.34605 0)
(-1.13493 3.33752 0)
(-1.13296 3.32915 -2.16313e-21)
(-1.13097 3.32094 -2.76584e-19)
(-1.12896 3.31289 2.66916e-19)
(-1.12695 3.30502 3.44704e-25)
(-1.12492 3.29731 -2.63186e-19)
(-1.1229 3.28978 2.59715e-19)
(-1.2102 3.56765 3.03839e-19)
(-1.2128 3.55945 -2.82537e-19)
(-1.21493 3.55087 3.09178e-19)
(-1.21662 3.54195 -3.26781e-19)
(-1.21789 3.53274 -3.18858e-19)
(-1.21879 3.52328 3.07388e-19)
(-1.21934 3.51362 0)
(-1.21956 3.50377 0)
(-1.21949 3.49379 -3.3864e-19)
(-1.21914 3.4837 3.27939e-19)
(-1.21855 3.47353 1.56504e-20)
(-1.21772 3.46331 5.20937e-21)
(-1.21668 3.45306 5.20265e-21)
(-1.21546 3.44282 -3.37061e-19)
(-1.21406 3.4326 -8.19171e-21)
(-1.21252 3.42242 3.25768e-19)
(-1.21083 3.4123 3.3114e-19)
(-1.20902 3.40226 -3.21796e-19)
(-1.20711 3.39231 0)
(-1.2051 3.38247 0)
(-1.20301 3.37276 -3.19168e-19)
(-1.20085 3.36317 3.15219e-19)
(-1.19863 3.35373 3.11788e-19)
(-1.19636 3.34443 -6.13501e-19)
(-1.19405 3.3353 2.99467e-19)
(-1.19171 3.32633 -2.99607e-19)
(-1.18935 3.31752 5.89091e-19)
(-1.18697 3.3089 -2.85065e-19)
(-1.18459 3.30045 0)
(-1.1822 3.29219 2.84068e-19)
(-1.17982 3.28411 -5.5154e-19)
(-1.17745 3.27621 2.71535e-19)
(-1.27717 3.5681 -2.88791e-19)
(-1.27918 3.55935 -9.77015e-21)
(-1.28072 3.55022 1.00335e-20)
(-1.28183 3.54075 3.35643e-19)
(-1.28255 3.53098 -3.1356e-19)
(-1.28289 3.52097 2.10932e-20)
(-1.28289 3.51075 -3.4903e-19)
(-1.28257 3.50035 -1.39015e-20)
(-1.28196 3.48981 3.29945e-19)
(-1.28109 3.47917 1.0874e-20)
(-1.27997 3.46845 -1.09672e-20)
(-1.27863 3.45769 -5.48973e-21)
(-1.27709 3.4469 -5.48749e-21)
(-1.27536 3.43612 -5.45669e-21)
(-1.27347 3.42536 0)
(-1.27143 3.41465 0)
(-1.26927 3.40402 -5.38866e-21)
(-1.26699 3.39346 0)
(-1.2646 3.38301 -3.49202e-19)
(-1.26214 3.37268 -1.16126e-20)
(-1.25959 3.36248 6.63819e-19)
(-1.25699 3.35241 -6.67512e-19)
(-1.25434 3.34251 3.24976e-19)
(-1.25164 3.33276 -5.05601e-21)
(-1.24892 3.32318 -2.49743e-21)
(-1.24617 3.31378 0)
(-1.24341 3.30456 3.13611e-19)
(-1.24065 3.29553 -6.14396e-19)
(-1.23788 3.28669 3.00908e-19)
(-1.23512 3.27805 0)
(-1.23238 3.2696 2.9734e-19)
(-1.22966 3.26135 -2.89053e-19)
(-1.34165 3.56653 -3.20594e-19)
(-1.34306 3.55731 6.30023e-19)
(-1.34403 3.54769 -3.19377e-19)
(-1.34457 3.53774 1.06323e-20)
(-1.34472 3.52749 -3.65383e-19)
(-1.34451 3.51699 -1.70688e-20)
(-1.34397 3.50626 7.23959e-19)
(-1.34312 3.49537 -3.64291e-19)
(-1.34199 3.48432 3.70655e-19)
(-1.34059 3.47317 -3.71042e-19)
(-1.33896 3.46194 0)
(-1.33711 3.45067 0)
(-1.33506 3.43937 -5.7498e-21)
(-1.33284 3.42808 3.79248e-19)
(-1.33046 3.41682 -3.63007e-19)
(-1.32794 3.40561 -5.71527e-21)
(-1.3253 3.39448 -3.68843e-19)
(-1.32255 3.38343 3.58857e-19)
(-1.3197 3.3725 -3.5268e-19)
(-1.31678 3.36169 3.59812e-19)
(-1.31379 3.35101 3.63346e-19)
(-1.31074 3.34049 5.98821e-21)
(-1.30766 3.33013 -3.45003e-19)
(-1.30454 3.31994 5.38047e-21)
(-1.3014 3.30994 -3.39931e-19)
(-1.29824 3.30012 3.31004e-19)
(-1.29509 3.29049 -2.58896e-21)
(-1.29193 3.28106 0)
(-1.28879 3.27184 -3.24482e-19)
(-1.28567 3.26283 -3.64204e-21)
(-1.28256 3.25402 -5.87028e-21)
(-1.27949 3.24543 3.10804e-19)
(-1.4034 3.56317 3.40567e-19)
(-1.40424 3.55356 -3.08431e-19)
(-1.40464 3.54355 1.06183e-20)
(-1.40463 3.53318 1.09262e-20)
(-1.40425 3.52251 1.11907e-20)
(-1.40351 3.51157 3.64532e-19)
(-1.40244 3.50041 -7.57619e-19)
(-1.40107 3.48906 3.81827e-19)
(-1.39943 3.47756 1.19701e-20)
(-1.39753 3.46595 0)
(-1.3954 3.45425 -4.05156e-19)
(-1.39305 3.4425 -1.21394e-20)
(-1.39052 3.43073 3.89116e-19)
(-1.38781 3.41897 0)
(-1.38496 3.40723 -3.93463e-19)
(-1.38196 3.39554 3.88942e-19)
(-1.37885 3.38394 1.20687e-20)
(-1.37564 3.37242 3.8856e-19)
(-1.37234 3.36102 1.77885e-21)
(-1.36897 3.34975 -3.70138e-19)
(-1.36554 3.33862 0)
(-1.36206 3.32765 -3.76845e-19)
(-1.35855 3.31685 -6.04136e-21)
(-1.35501 3.30623 3.69278e-19)
(-1.35146 3.29581 -3.59416e-19)
(-1.34791 3.28558 3.58483e-19)
(-1.34436 3.27555 2.766e-21)
(-1.34082 3.26574 0)
(-1.33731 3.25615 0)
(-1.33382 3.24677 2.65008e-21)
(-1.33036 3.23761 2.61069e-21)
(-1.32694 3.22868 0)
(-1.46226 3.55829 3.5213e-19)
(-1.46256 3.54837 -3.19592e-19)
(-1.46243 3.53803 3.56231e-19)
(-1.4619 3.52733 -3.67027e-19)
(-1.46101 3.5163 -1.22271e-22)
(-1.45977 3.50499 0)
(-1.4582 3.49345 0)
(-1.45635 3.4817 4.04998e-19)
(-1.45422 3.4698 -8.14604e-19)
(-1.45184 3.45776 3.97259e-19)
(-1.44923 3.44564 1.27696e-20)
(-1.44641 3.43346 0)
(-1.44341 3.42124 -4.1685e-19)
(-1.44024 3.40903 -1.14351e-20)
(-1.43693 3.39684 8.22931e-19)
(-1.43348 3.38471 -4.12332e-19)
(-1.42992 3.37265 4.14639e-19)
(-1.42626 3.36068 -3.97615e-19)
(-1.42252 3.34883 0)
(-1.41871 3.33711 -1.26277e-20)
(-1.41485 3.32554 6.26217e-21)
(-1.41095 3.31414 4.01675e-19)
(-1.40702 3.30291 -3.85353e-19)
(-1.40308 3.29188 -6.11614e-21)
(-1.39913 3.28104 -1.20922e-20)
(-1.39518 3.27041 -3.85361e-19)
(-1.39125 3.26 3.75582e-19)
(-1.38734 3.24981 3.75746e-19)
(-1.38345 3.23984 7.36125e-21)
(-1.37961 3.23011 -3.63997e-19)
(-1.3758 3.22061 -3.65543e-19)
(-1.37204 3.21135 -3.7813e-21)
(-1.51814 3.55215 -1.98894e-19)
(-1.51794 3.542 1.60255e-19)
(-1.51732 3.53141 1.9165e-19)
(-1.51631 3.52044 -1.85648e-19)
(-1.51495 3.50912 3.92413e-19)
(-1.51324 3.49751 -3.92445e-19)
(-1.51122 3.48564 0)
(-1.5089 3.47355 1.29813e-20)
(-1.50632 3.46128 4.31002e-19)
(-1.50349 3.44887 -4.18986e-19)
(-1.50044 3.43636 0)
(-1.49718 3.42378 1.35003e-20)
(-1.49374 3.41116 1.35634e-20)
(-1.49013 3.39853 0)
(-1.48638 3.38592 0)
(-1.4825 3.37335 6.83842e-21)
(-1.47851 3.36086 -1.36282e-20)
(-1.47442 3.34846 4.32861e-19)
(-1.47026 3.33618 -4.21914e-19)
(-1.46604 3.32403 2.0729e-23)
(-1.46176 3.31204 -1.3385e-20)
(-1.45746 3.30021 0)
(-1.45313 3.28857 4.18752e-19)
(-1.44879 3.27712 -4.1477e-19)
(-1.44445 3.26588 6.47535e-21)
(-1.44012 3.25485 -3.19595e-21)
(-1.43581 3.24406 0)
(-1.43154 3.23349 -3.12107e-21)
(-1.42729 3.22316 -5.91368e-24)
(-1.4231 3.21308 -3.88582e-19)
(-1.41895 3.20324 3.81637e-19)
(-1.41486 3.19365 0)
(-1.57101 3.545 -2.19252e-20)
(-1.57035 3.5347 1.92974e-19)
(-1.5693 3.52393 -1.98925e-19)
(-1.56786 3.51276 2.19223e-19)
(-1.56606 3.50122 -1.87637e-19)
(-1.56393 3.48936 -2.17027e-19)
(-1.56149 3.47722 2.10816e-19)
(-1.55877 3.46484 -2.52125e-19)
(-1.55577 3.45226 2.46398e-19)
(-1.55253 3.43952 1.40644e-20)
(-1.54907 3.42667 1.4205e-20)
(-1.5454 3.41372 -2.87124e-20)
(-1.54155 3.40072 -1.44747e-20)
(-1.53753 3.38771 -4.70412e-19)
(-1.53337 3.3747 9.36964e-19)
(-1.52909 3.36173 -4.66633e-19)
(-1.52469 3.34883 -4.63122e-19)
(-1.5202 3.33601 -1.03085e-20)
(-1.51564 3.32331 4.50438e-19)
(-1.51102 3.31075 7.20687e-21)
(-1.50635 3.29833 7.16678e-21)
(-1.50165 3.28609 0)
(-1.49694 3.27404 -7.04627e-21)
(-1.49222 3.26219 0)
(-1.4875 3.25055 -6.9219e-21)
(-1.48281 3.23914 4.52432e-19)
(-1.47814 3.22796 -8.68268e-19)
(-1.47351 3.21702 4.26199e-19)
(-1.46892 3.20633 4.22839e-19)
(-1.46439 3.1959 -4.18673e-19)
(-1.45991 3.18573 3.22146e-21)
(-1.4555 3.17581 -3.21304e-21)
(-1.6209 3.53708 1.99066e-19)
(-1.61985 3.52669 0)
(-1.6184 3.51583 -2.09653e-19)
(-1.61658 3.50452 1.90227e-19)
(-1.6144 3.49282 -2.50256e-19)
(-1.6119 3.48078 -1.1808e-20)
(-1.60909 3.46842 2.36495e-19)
(-1.606 3.4558 -2.37369e-19)
(-1.60263 3.44296 2.1641e-19)
(-1.59902 3.42994 -2.73788e-19)
(-1.59519 3.41678 2.22497e-19)
(-1.59115 3.40351 -2.1763e-19)
(-1.58692 3.39017 2.57313e-19)
(-1.58253 3.37679 -1.54015e-20)
(-1.578 3.36341 2.43403e-19)
(-1.57334 3.35006 -2.37311e-19)
(-1.56856 3.33676 7.74378e-21)
(-1.5637 3.32355 0)
(-1.55876 3.31045 0)
(-1.55376 3.29747 0)
(-1.54872 3.28465 0)
(-1.54365 3.27201 4.91924e-19)
(-1.53857 3.25955 -4.72479e-19)
(-1.53348 3.2473 0)
(-1.52841 3.23526 -4.72108e-19)
(-1.52336 3.22347 -1.41717e-20)
(-1.51834 3.21191 4.66579e-19)
(-1.51337 3.2006 3.60336e-21)
(-1.50844 3.18956 -3.55067e-21)
(-1.50358 3.17877 4.5162e-19)
(-1.49879 3.16826 -8.85383e-19)
(-1.49407 3.15802 4.46941e-19)
(-1.66788 3.52857 2.38366e-20)
(-1.66648 3.51819 -2.36347e-19)
(-1.6647 3.50729 2.18098e-19)
(-1.66255 3.49592 -2.2809e-19)
(-1.66006 3.48413 2.35999e-19)
(-1.65724 3.47196 0)
(-1.65411 3.45945 -3.01167e-20)
(-1.65069 3.44664 2.67027e-19)
(-1.647 3.43359 -5.11889e-21)
(-1.64307 3.42033 -4.92434e-19)
(-1.63891 3.4069 -9.25461e-21)
(-1.63454 3.39334 2.55504e-19)
(-1.62998 3.37969 -1.64188e-20)
(-1.62525 3.36598 2.67513e-19)
(-1.62038 3.35226 -2.61081e-19)