/*--------------------------------*- C++ -*----------------------------------*\
  =========                 |
  \\      /  F ield         | OpenFOAM: The Open Source CFD Toolbox
   \\    /   O peration     | Website:  https://openfoam.org
    \\  /    A nd           | Version:  10
     \\/     M anipulation  |
\*---------------------------------------------------------------------------*/
FoamFile
{
    format      ascii;
    class       volVectorField;
    location    "74000";
    object      Urel;
}
// * * * * * * * * * * * * * * * * * * * * * * * * * * * * * * * * * * * * * //

dimensions      [0 1 -1 0 0 0 0];

internalField   nonuniform List<vector> 
17981
(
(0.17336 -0.475286 8.64691e-22)
(0.169513 -0.488065 -8.69211e-22)
(0.165728 -0.500552 0)
(0.162002 -0.512784 -5.52724e-21)
(0.158335 -0.524796 1.22085e-20)
(0.154732 -0.536621 -6.63388e-21)
(0.151192 -0.54829 0)
(0.14772 -0.559829 5.77344e-22)
(0.144319 -0.57126 0)
(0.14099 -0.582603 0)
(0.137738 -0.593872 -7.11156e-22)
(0.134565 -0.605077 1.31298e-20)
(0.131473 -0.616225 -1.18996e-20)
(0.128465 -0.62732 0)
(0.125542 -0.638364 0)
(0.122706 -0.649355 0)
(0.119957 -0.660289 0)
(0.117296 -0.671163 -1.34428e-20)
(0.114723 -0.681971 1.28779e-20)
(0.112237 -0.692706 2.67246e-20)
(0.109838 -0.703361 -2.52003e-20)
(0.107525 -0.71393 -4.03839e-22)
(0.105296 -0.724405 0)
(0.10315 -0.734779 0)
(0.101086 -0.745045 2.53664e-20)
(0.0991017 -0.755196 -2.396e-20)
(0.0971946 -0.765228 2.46013e-20)
(0.095363 -0.775133 -2.36306e-20)
(0.0936046 -0.784906 -3.67298e-22)
(0.0919172 -0.794543 0)
(0.0902987 -0.804039 1.77159e-22)
(0.0887465 -0.813391 -1.7383e-22)
(0.0872586 -0.822596 -1.70469e-22)
(0.0858325 -0.831649 2.13972e-20)
(0.084466 -0.84055 -2.0609e-20)
(0.0831569 -0.849295 -1.60307e-22)
(0.0819029 -0.857884 0)
(0.0807019 -0.866315 0)
(0.0795517 -0.874587 1.50226e-22)
(0.0784504 -0.8827 -1.90624e-20)
(0.0773958 -0.890654 -8.60507e-23)
(0.0763861 -0.898448 1.77094e-20)
(0.0754193 -0.906084 6.85972e-23)
(0.0744936 -0.913562 0)
(0.0736073 -0.920882 0)
(0.0727586 -0.928046 0)
(0.071946 -0.935055 0)
(0.0711677 -0.941911 -1.58232e-20)
(0.197637 -0.455552 -5.20325e-21)
(0.193567 -0.467997 0)
(0.189562 -0.480152 -1.5291e-20)
(0.185623 -0.492058 3.7742e-20)
(0.181753 -0.503753 -2.15091e-20)
(0.177955 -0.515277 3.25241e-20)
(0.174231 -0.526661 -3.15257e-20)
(0.170586 -0.537938 5.7772e-22)
(0.167023 -0.549131 1.29056e-21)
(0.163547 -0.560264 -4.68323e-20)
(0.16016 -0.57135 9.3481e-20)
(0.156866 -0.582403 -4.79896e-20)
(0.153668 -0.59343 0)
(0.150568 -0.604435 1.61876e-21)
(0.147568 -0.615417 -5.44755e-20)
(0.144668 -0.626376 5.21693e-20)
(0.141869 -0.637305 5.53074e-20)
(0.139171 -0.6482 -5.2947e-20)
(0.136575 -0.659053 8.44757e-22)
(0.134077 -0.669855 0)
(0.131679 -0.680599 -4.20109e-22)
(0.129377 -0.691274 5.46092e-20)
(0.12717 -0.701873 -5.11103e-20)
(0.125055 -0.712387 5.37803e-20)
(0.123031 -0.722806 -1.03052e-19)
(0.121095 -0.733123 4.97406e-20)
(0.119244 -0.74333 -5.06824e-20)
(0.117476 -0.75342 4.86761e-20)
(0.115787 -0.763386 3.78464e-22)
(0.114175 -0.773223 0)
(0.112637 -0.782925 1.82623e-22)
(0.111171 -0.792487 1.79092e-22)
(0.109772 -0.801905 -4.52061e-20)
(0.10844 -0.811176 4.38725e-20)
(0.10717 -0.820295 -5.06291e-22)
(0.10596 -0.829261 4.28035e-20)
(0.104808 -0.838071 -4.11059e-20)
(0.103711 -0.846723 0)
(0.102667 -0.855216 3.97779e-20)
(0.101673 -0.863549 -7.71287e-20)
(0.100726 -0.871721 3.72486e-20)
(0.0998257 -0.879732 -3.71602e-20)
(0.0989687 -0.887583 -6.30699e-22)
(0.0981532 -0.895273 3.50786e-20)
(0.0973772 -0.902803 0)
(0.0966388 -0.910174 0)
(0.0959361 -0.917387 1.29035e-22)
(0.0952675 -0.924444 -6.37855e-23)
(0.220163 -0.433566 0)
(0.215809 -0.445677 8.46148e-21)
(0.211528 -0.457501 -9.05218e-21)
(0.207321 -0.469084 2.19385e-20)
(0.203192 -0.480468 -2.28299e-20)
(0.199145 -0.491696 -1.83775e-21)
(0.195186 -0.502807 0)
(0.19132 -0.513833 -1.23294e-21)
(0.18755 -0.524806 -3.98497e-21)
(0.183883 -0.535747 0)
(0.180321 -0.546675 1.52035e-21)
(0.176871 -0.557603 3.13437e-21)
(0.173533 -0.568538 0)
(0.170311 -0.579484 -1.40635e-23)
(0.167207 -0.59044 1.69388e-21)
(0.16422 -0.601402 0)
(0.161351 -0.612365 1.13728e-19)
(0.1586 -0.62332 -1.07061e-19)
(0.155965 -0.634258 -1.1458e-19)
(0.153444 -0.645169 1.08816e-19)
(0.151036 -0.656042 -1.72255e-21)
(0.148738 -0.666865 0)
(0.146548 -0.677629 8.45388e-22)
(0.144462 -0.688322 -8.38999e-22)
(0.142476 -0.698934 8.27446e-22)
(0.140589 -0.709456 -1.05111e-19)
(0.138795 -0.719878 1.01677e-19)
(0.137093 -0.730191 -7.91818e-22)
(0.135477 -0.740388 0)
(0.133945 -0.750461 9.82602e-20)
(0.132494 -0.760404 2.33764e-21)
(0.131119 -0.770212 -9.42628e-20)
(0.129817 -0.779877 0)
(0.128585 -0.789397 0)
(0.12742 -0.798768 -9.01143e-20)
(0.126319 -0.807984 8.72001e-20)
(0.125278 -0.817045 -3.33834e-22)
(0.124294 -0.825947 0)
(0.123365 -0.834689 3.1986e-22)
(0.122488 -0.843269 -3.1246e-22)
(0.12166 -0.851686 -7.87912e-20)
(0.120879 -0.85994 7.60945e-20)
(0.120142 -0.86803 1.4605e-22)
(0.119447 -0.875956 -1.43276e-22)
(0.118792 -0.883719 -2.79491e-22)
(0.118174 -0.891319 0)
(0.117592 -0.898758 -1.33088e-22)
(0.117043 -0.906036 -6.7899e-20)
(0.22256 -0.454996 -1.39663e-21)
(0.218211 -0.465935 1.92305e-21)
(0.213964 -0.476782 7.6535e-20)
(0.209826 -0.487573 -1.58824e-19)
(0.205803 -0.498343 8.45696e-20)
(0.201901 -0.509117 -2.89716e-21)
(0.198126 -0.519915 1.00402e-19)
(0.194483 -0.53075 -1.02376e-19)
(0.190974 -0.541629 0)
(0.187603 -0.552555 -1.71922e-21)
(0.18437 -0.563527 1.13153e-19)
(0.181276 -0.574537 -1.09839e-19)
(0.17832 -0.585578 -1.13125e-19)
(0.175502 -0.596639 -8.88941e-21)
(0.172818 -0.607709 1.11741e-19)
(0.170267 -0.618776 -1.16162e-19)
(0.167844 -0.629825 1.11161e-19)
(0.165547 -0.640843 0)
(0.163372 -0.651818 1.11461e-19)
(0.161315 -0.662737 -2.20343e-19)
(0.159371 -0.673587 1.04704e-19)
(0.157536 -0.684357 1.0798e-19)
(0.155805 -0.695037 -1.02797e-19)
(0.154175 -0.705615 -8.13565e-22)
(0.15264 -0.716083 -1.03658e-19)
(0.151197 -0.726433 -6.11875e-22)
(0.149841 -0.736655 -3.58339e-21)
(0.148567 -0.746745 9.77403e-20)
(0.147373 -0.756695 9.62375e-20)
(0.146253 -0.766499 -1.87042e-19)
(0.145204 -0.776154 9.16292e-20)
(0.144223 -0.785655 -9.0567e-20)
(0.143304 -0.794998 8.76844e-20)
(0.142446 -0.804181 -8.68171e-20)
(0.141645 -0.813202 -2.1658e-21)
(0.140898 -0.822057 8.20203e-20)
(0.140201 -0.830747 9.47036e-22)
(0.139551 -0.839269 -7.91899e-20)
(0.138947 -0.847624 7.65146e-20)
(0.138385 -0.855812 2.94809e-22)
(0.137862 -0.863831 2.88147e-22)
(0.137377 -0.871684 7.22442e-20)
(0.136928 -0.87937 -7.01498e-20)
(0.136511 -0.886891 0)
(0.239729 -0.427403 -3.78541e-20)
(0.235017 -0.438061 -3.68703e-21)
(0.230424 -0.448656 0)
(0.225959 -0.459232 8.64651e-20)
(0.221632 -0.469824 -8.30465e-20)
(0.21745 -0.480463 5.95713e-21)
(0.213421 -0.491168 6.30903e-21)
(0.20955 -0.501952 0)
(0.20584 -0.512822 0)
(0.202294 -0.523779 -3.483e-21)
(0.198912 -0.534817 0)
(0.195695 -0.545929 0)
(0.19264 -0.557104 -3.64972e-21)
(0.189746 -0.568328 1.83094e-21)
(0.187008 -0.579586 -1.1949e-19)
(0.184423 -0.590863 1.1425e-19)
(0.181987 -0.602144 -1.16419e-19)
(0.179694 -0.613411 1.13166e-19)
(0.177539 -0.624651 1.7821e-21)
(0.175517 -0.635847 0)
(0.173622 -0.646986 -1.13252e-19)
(0.17185 -0.658055 -4.74865e-21)
(0.170193 -0.669039 -4.51253e-21)
(0.168647 -0.679929 1.07338e-19)
(0.167206 -0.690714 -1.06498e-19)
(0.165865 -0.701383 -3.07837e-21)
(0.164619 -0.711927 1.03079e-19)
(0.163462 -0.722339 -1.01705e-19)
(0.16239 -0.732612 9.71867e-20)
(0.161398 -0.742739 0)
(0.160481 -0.752715 9.52069e-20)
(0.159635 -0.762535 -9.32475e-20)
(0.158856 -0.772194 0)
(0.15814 -0.781691 6.94675e-22)
(0.157483 -0.79102 6.79205e-22)
(0.156881 -0.800182 6.66077e-22)
(0.156332 -0.809172 8.32517e-20)
(0.15583 -0.817992 -1.64098e-19)
(0.155374 -0.826638 8.02594e-20)
(0.154961 -0.835112 0)
(0.154587 -0.843413 0)
(0.154251 -0.851541 7.52631e-20)
(0.153949 -0.859498 -7.25336e-20)
(0.153679 -0.867283 0)
(0.254562 -0.397711 -3.94902e-20)
(0.249417 -0.408097 -6.34769e-20)
(0.244413 -0.418459 1.4299e-19)
(0.239563 -0.428846 -7.50979e-20)
(0.234881 -0.439298 -9.55654e-20)
(0.230375 -0.449844 8.84122e-20)
(0.226054 -0.460506 -3.23618e-21)
(0.221924 -0.471295 0)
(0.217989 -0.482215 -1.15554e-19)
(0.214249 -0.493264 2.32033e-19)
(0.210705 -0.504434 7.28977e-21)
(0.207356 -0.515714 -1.14571e-19)
(0.204198 -0.527088 -3.704e-21)
(0.201227 -0.53854 -1.2229e-19)
(0.198438 -0.550052 1.16832e-19)
(0.195826 -0.561604 -1.21705e-19)
(0.193383 -0.573179 -4.56936e-21)
(0.191104 -0.584757 1.15772e-19)
(0.188982 -0.59632 -5.47699e-21)
(0.18701 -0.607852 0)
(0.18518 -0.619335 2.28454e-24)
(0.183486 -0.630755 1.76554e-21)
(0.181921 -0.642097 1.12861e-19)
(0.180477 -0.653349 2.71785e-21)
(0.179149 -0.664497 -2.16181e-19)
(0.17793 -0.675532 1.0351e-19)
(0.176814 -0.686442 -3.26787e-21)
(0.175794 -0.69722 0)
(0.174864 -0.707856 -2.03746e-19)
(0.17402 -0.718345 1.96349e-19)
(0.173256 -0.728679 0)
(0.172567 -0.738854 7.44331e-22)
(0.171948 -0.748865 1.88384e-19)
(0.171394 -0.758708 -1.82558e-19)
(0.170901 -0.768379 0)
(0.170465 -0.777876 -6.86086e-22)
(0.170082 -0.787198 6.73012e-22)
(0.169748 -0.796341 6.57488e-22)
(0.16946 -0.805307 -1.66489e-19)
(0.169214 -0.814093 1.60385e-19)
(0.169007 -0.822699 -6.17001e-22)
(0.168837 -0.831127 -1.55688e-19)
(0.168701 -0.839376 1.50085e-19)
(0.168595 -0.847448 0)
(0.261182 -0.376062 -3.6051e-21)
(0.255701 -0.386226 -4.36646e-21)
(0.250411 -0.39647 0)
(0.245326 -0.406835 -5.58586e-21)
(0.240458 -0.417352 -6.05804e-21)
(0.235817 -0.42804 0)
(0.231406 -0.438907 -1.13964e-19)
(0.227231 -0.449955 1.08661e-19)
(0.22329 -0.461175 0)
(0.219583 -0.472556 -2.44578e-19)
(0.216104 -0.484082 2.36992e-19)
(0.21285 -0.495734 3.79988e-21)
(0.209814 -0.507491 0)
(0.206988 -0.51933 0)
(0.204365 -0.53123 -3.7964e-21)
(0.201935 -0.543168 0)
(0.199692 -0.555124 2.45408e-19)
(0.197624 -0.567076 -4.78194e-19)
(0.195725 -0.579005 4.73667e-19)
(0.193984 -0.590893 -2.28925e-19)
(0.192394 -0.602721 0)
(0.190946 -0.614476 2.29679e-19)
(0.189631 -0.626141 -2.22416e-19)
(0.188442 -0.637703 0)
(0.187372 -0.649151 2.22612e-19)
(0.186411 -0.660473 -4.28167e-19)
(0.185554 -0.67166 2.07538e-19)
(0.184794 -0.682702 -2.09637e-19)
(0.184125 -0.693592 2.00506e-19)
(0.183539 -0.704323 -2.01952e-19)
(0.183032 -0.714889 1.94862e-19)
(0.182598 -0.725285 0)
(0.182231 -0.735508 1.88909e-19)
(0.181927 -0.745552 -1.83909e-19)
(0.181681 -0.755415 0)
(0.181488 -0.765096 -1.79646e-19)
(0.181345 -0.774592 1.73708e-19)
(0.181248 -0.783902 -6.66567e-22)
(0.181192 -0.793025 -1.67789e-19)
(0.181174 -0.801962 3.26503e-19)
(0.181192 -0.810712 -1.58247e-19)
(0.181242 -0.819276 1.57599e-19)
(0.181322 -0.827655 1.49419e-21)
(0.258218 -0.362183 -5.01767e-21)
(0.2527 -0.372542 1.65291e-22)
(0.24745 -0.383117 6.24882e-21)
(0.242477 -0.393922 0)
(0.237785 -0.404961 -2.37874e-19)
(0.233375 -0.41623 4.5149e-19)
(0.229245 -0.427715 1.71122e-20)
(0.225389 -0.4394 1.57879e-20)
(0.221803 -0.451263 -2.4839e-19)
(0.218476 -0.46328 -3.83884e-21)
(0.215402 -0.475426 0)
(0.212568 -0.487674 -2.54252e-19)
(0.209964 -0.499999 -6.74567e-21)
(0.20758 -0.512376 2.46427e-19)
(0.205405 -0.52478 0)
(0.203426 -0.537188 9.57724e-24)
(0.201634 -0.549579 3.78127e-21)
(0.200018 -0.561931 -3.74391e-21)
(0.198567 -0.574227 0)
(0.197271 -0.586448 2.35484e-19)
(0.196119 -0.598579 -2.28123e-19)
(0.195104 -0.610605 0)
(0.194215 -0.622514 1.75328e-21)
(0.193445 -0.634293 2.23289e-19)
(0.192784 -0.645932 -2.11748e-19)
(0.192226 -0.657421 0)
(0.191763 -0.668751 2.11966e-19)
(0.191387 -0.679916 -2.04529e-19)
(0.191093 -0.690909 1.5838e-21)
(0.190873 -0.701724 0)
(0.190723 -0.712357 1.52279e-21)
(0.190636 -0.722805 0)
(0.190608 -0.733064 -1.88844e-19)
(0.190633 -0.743131 3.67637e-19)
(0.190707 -0.753005 -3.60198e-19)
(0.190826 -0.762685 1.76725e-19)
(0.190985 -0.77217 0)
(0.191182 -0.781459 6.59835e-22)
(0.191411 -0.790553 -1.66376e-19)
(0.191671 -0.799452 3.2325e-19)
(0.191958 -0.808157 -1.59939e-19)
(0.256711 -0.33663 -1.89874e-19)
(0.251088 -0.347372 1.80101e-19)
(0.245802 -0.358406 0)
(0.240852 -0.369728 7.02922e-21)
(0.236238 -0.381327 1.09028e-22)
(0.231953 -0.393183 0)
(0.227989 -0.405274 0)
(0.224335 -0.417571 1.54888e-20)
(0.22098 -0.430047 3.92953e-21)
(0.217911 -0.44267 3.92669e-21)
(0.215114 -0.455412 0)
(0.212577 -0.468242 -2.58521e-19)
(0.210284 -0.481132 2.43351e-19)
(0.208222 -0.494056 2.56019e-19)
(0.206378 -0.506987 -2.41408e-19)
(0.204739 -0.519903 -3.87512e-21)
(0.203291 -0.53278 3.83837e-21)
(0.202022 -0.545599 0)
(0.20092 -0.55834 3.75292e-21)
(0.199975 -0.570987 2.40124e-19)
(0.199174 -0.583524 -2.31084e-19)
(0.198508 -0.595938 -2.36867e-19)
(0.197967 -0.608214 2.26522e-19)
(0.197542 -0.620343 -3.49543e-21)
(0.197223 -0.632314 0)
(0.197002 -0.644119 3.38266e-21)
(0.196873 -0.65575 2.16345e-19)
(0.196827 -0.667201 -2.0897e-19)
(0.196857 -0.678466 2.06978e-19)
(0.196957 -0.689539 -4.03159e-19)
(0.197121 -0.700418 1.96378e-19)
(0.197343 -0.711098 -1.95385e-19)
(0.197617 -0.721577 1.89024e-19)
(0.197939 -0.731853 -7.27927e-22)
(0.198304 -0.741925 1.44592e-24)
(0.198708 -0.751792 7.00305e-22)
(0.199145 -0.761454 0)
(0.199614 -0.77091 -6.71663e-22)
(0.20011 -0.780163 0)
(0.200629 -0.789212 6.5286e-22)
(0.245603 -0.321844 0)
(0.240453 -0.333567 6.94228e-21)
(0.235694 -0.34561 7.36309e-21)
(0.231315 -0.357946 0)
(0.227305 -0.370545 -2.55416e-19)
(0.223647 -0.383374 2.35422e-19)
(0.220326 -0.396398 -7.90876e-21)
(0.217326 -0.409584 -4.01764e-21)
(0.214629 -0.422897 -2.63523e-19)
(0.212218 -0.436306 -1.14606e-20)
(0.210076 -0.449779 2.56065e-19)
(0.208187 -0.463287 0)
(0.206534 -0.476803 -2.59711e-19)
(0.205103 -0.4903 -8.46769e-21)
(0.203877 -0.503756 5.06545e-19)
(0.202844 -0.517148 -2.45268e-19)
(0.201988 -0.530458 -2.4969e-19)
(0.201298 -0.543666 4.83073e-19)
(0.200761 -0.556757 -2.41211e-19)
(0.200365 -0.569716 -1.85268e-21)
(0.200099 -0.582531 -1.8272e-21)
(0.199955 -0.595189 -2.29263e-19)
(0.19992 -0.607681 -4.46949e-21)
(0.199986 -0.619996 2.19543e-19)
(0.200145 -0.632127 -1.71591e-21)
(0.200387 -0.644066 0)
(0.200705 -0.655808 -1.65983e-21)
(0.201093 -0.667347 0)
(0.201543 -0.678681 0)
(0.202049 -0.689804 0)
(0.202606 -0.700716 1.54237e-21)
(0.203207 -0.711414 0)
(0.203849 -0.721897 -7.40357e-22)
(0.204527 -0.732163 1.45433e-24)
(0.205235 -0.742214 -7.1259e-22)
(0.20597 -0.752049 1.80872e-19)
(0.206729 -0.761669 -1.73952e-19)
(0.207507 -0.771075 1.74534e-19)
(0.22337 -0.335664 2.5831e-19)
(0.219793 -0.349113 -2.38158e-19)
(0.216589 -0.362769 8.0909e-21)
(0.213738 -0.376594 0)
(0.211219 -0.390551 -2.68095e-19)
(0.20901 -0.404604 2.56412e-19)
(0.207092 -0.418721 -2.06773e-23)
(0.205446 -0.432869 4.08217e-21)
(0.204053 -0.447021 0)
(0.202895 -0.461149 -4.04534e-21)
(0.201956 -0.475229 -4.02739e-21)
(0.201219 -0.489237 -2.59093e-19)
(0.200669 -0.503155 2.49305e-19)
(0.200291 -0.516963 3.91109e-21)
(0.200072 -0.530644 3.0482e-24)
(0.199999 -0.544183 2.50953e-19)
(0.200059 -0.557566 -2.38402e-19)
(0.20024 -0.57078 -1.85735e-21)
(0.200533 -0.583814 -1.83103e-21)
(0.200928 -0.596661 0)
(0.201414 -0.609312 2.29291e-19)
(0.201984 -0.62176 -2.217e-19)
(0.202628 -0.633998 2.21697e-19)
(0.20334 -0.646023 -2.16201e-19)
(0.204111 -0.657829 -2.13987e-19)
(0.204936 -0.669414 2.08808e-19)
(0.205809 -0.680774 -1.59907e-21)
(0.206723 -0.691909 -2.00769e-19)
(0.207672 -0.702817 1.94507e-19)
(0.208654 -0.713497 -1.93843e-19)
(0.209661 -0.72395 1.90109e-19)
(0.210691 -0.734176 1.86201e-19)
(0.21174 -0.744175 -1.81965e-19)
(0.212803 -0.753949 -7.06503e-22)
(0.216288 -0.301106 0)
(0.21289 -0.315253 -9.72304e-23)
(0.209896 -0.329611 2.69017e-19)
(0.207283 -0.344139 -2.65087e-19)
(0.205026 -0.358796 0)
(0.2031 -0.373547 -8.32206e-21)
(0.201484 -0.388355 4.14629e-21)
(0.200155 -0.403188 2.72771e-19)
(0.199092 -0.418016 9.88036e-21)
(0.198275 -0.432812 -2.56842e-19)
(0.197686 -0.447548 -2.64171e-19)
(0.197306 -0.462203 2.58147e-19)
(0.197119 -0.476756 2.6361e-19)
(0.197109 -0.491186 -2.4999e-19)
(0.197261 -0.505478 2.61964e-19)
(0.197561 -0.519615 -2.52832e-19)
(0.197996 -0.533584 -3.8872e-21)
(0.198553 -0.547372 2.48274e-19)
(0.199222 -0.56097 -4.79019e-19)
(0.199991 -0.574368 -6.43068e-21)
(0.20085 -0.587556 2.33284e-19)
(0.20179 -0.600529 -2.33828e-19)
(0.202802 -0.61328 2.28092e-19)
(0.203877 -0.625804 -2.24475e-19)
(0.205009 -0.638096 4.41464e-19)
(0.20619 -0.650155 -2.15416e-19)
(0.207414 -0.661977 0)
(0.208674 -0.67356 -1.63424e-21)
(0.209965 -0.684904 1.60429e-21)
(0.211282 -0.696008 -3.15121e-21)
(0.21262 -0.706871 -1.99745e-19)
(0.213974 -0.717496 1.94508e-19)
(0.215341 -0.727882 1.48618e-21)
(0.216717 -0.738032 0)
(0.206302 -0.267335 -2.44322e-19)
(0.20319 -0.282236 2.60625e-19)
(0.200509 -0.297345 -5.3752e-19)
(0.19823 -0.312619 2.6905e-19)
(0.196326 -0.328016 -8.42186e-21)
(0.19477 -0.343498 -2.70248e-19)
(0.193537 -0.359029 2.58681e-19)
(0.192602 -0.374575 2.74745e-19)
(0.191942 -0.390104 -2.72264e-19)
(0.191536 -0.40559 2.72901e-19)
(0.191363 -0.421006 -2.7091e-19)
(0.191404 -0.436328 0)
(0.191641 -0.451535 -4.17595e-21)
(0.192057 -0.466607 2.64827e-19)
(0.192636 -0.481528 -5.25822e-19)
(0.193363 -0.496281 2.57098e-19)
(0.194225 -0.510853 3.26626e-24)
(0.195207 -0.525231 0)
(0.196298 -0.539405 -7.84729e-21)
(0.197486 -0.553364 2.52144e-19)
(0.198761 -0.567101 -4.8878e-19)
(0.200113 -0.580609 2.38775e-19)
(0.201531 -0.59388 0)
(0.203009 -0.606911 0)
(0.204537 -0.619698 -2.31603e-19)
(0.206109 -0.632237 4.50451e-19)
(0.207717 -0.644525 -2.20785e-19)
(0.209356 -0.656562 2.19885e-19)
(0.211019 -0.668347 -2.13273e-19)
(0.2127 -0.679878 -2.22871e-24)
(0.214396 -0.691157 -2.08034e-19)
(0.216102 -0.702184 2.00293e-19)
(0.217813 -0.71296 -7.77112e-22)
(0.219526 -0.723487 -1.99061e-19)
(0.193749 -0.23481 7.93094e-21)
(0.191035 -0.250496 0)
(0.188771 -0.266383 8.4332e-21)
(0.186926 -0.282426 0)
(0.185467 -0.298582 2.91527e-19)
(0.184367 -0.314811 -2.79728e-19)
(0.183598 -0.331077 0)
(0.183133 -0.347347 8.72263e-21)
(0.182949 -0.363588 2.8991e-19)
(0.183022 -0.379772 -2.70345e-19)
(0.183329 -0.395873 -4.34885e-21)
(0.183852 -0.411868 4.33043e-21)
(0.184571 -0.427734 2.8437e-19)
(0.185468 -0.443453 -5.48134e-19)
(0.186526 -0.459007 2.68328e-19)
(0.18773 -0.47438 2.81103e-19)
(0.189064 -0.489558 -2.59467e-19)
(0.190516 -0.504528 -2.66715e-19)
(0.192072 -0.51928 5.29741e-19)
(0.19372 -0.533805 -2.55085e-19)
(0.195449 -0.548092 0)
(0.197249 -0.562137 0)
(0.19911 -0.575932 0)
(0.201024 -0.589473 0)
(0.202981 -0.602755 1.87514e-21)
(0.204975 -0.615776 0)
(0.206998 -0.628533 -1.81617e-21)
(0.209043 -0.641025 2.31823e-19)
(0.211106 -0.653251 -2.23242e-19)
(0.213179 -0.665211 -1.81003e-24)
(0.215259 -0.676905 -2.18039e-19)
(0.21734 -0.688334 2.11691e-19)
(0.219419 -0.6995 1.63302e-21)
(0.221491 -0.710405 0)
(0.17685 -0.220404 2.56266e-19)
(0.175103 -0.23707 -2.81029e-19)
(0.173782 -0.253881 5.54205e-19)
(0.172855 -0.270793 -2.64605e-19)
(0.172291 -0.287766 8.907e-21)
(0.17206 -0.304763 0)
(0.172135 -0.32175 -5.9085e-23)
(0.172491 -0.338696 -8.96699e-21)
(0.173103 -0.355573 2.93131e-19)
(0.173949 -0.372354 -2.73562e-19)
(0.175008 -0.389015 -1.66457e-23)
(0.17626 -0.405536 4.45024e-21)
(0.177686 -0.421896 0)
(0.17927 -0.438077 2.8545e-19)
(0.180994 -0.454065 -2.80433e-19)
(0.182843 -0.469845 2.80303e-19)
(0.184804 -0.485403 -5.48756e-19)
(0.186863 -0.50073 2.64416e-19)
(0.189007 -0.515815 4.19242e-21)
(0.191226 -0.53065 0)
(0.193508 -0.545229 0)
(0.195843 -0.559544 -2.6058e-19)
(0.198223 -0.573591 2.52774e-19)
(0.200639 -0.587366 -1.96181e-21)
(0.203083 -0.600865 0)
(0.205547 -0.614088 1.90241e-21)
(0.208025 -0.627032 -1.87202e-21)
(0.210512 -0.639696 0)
(0.213 -0.652081 2.332e-19)
(0.215486 -0.664187 -4.53836e-19)
(0.217965 -0.676015 2.22557e-19)
(0.220431 -0.687567 2.19195e-19)
(0.222883 -0.698845 -2.1602e-19)
(0.161124 -0.192249 2.70968e-19)
(0.159982 -0.209673 -2.67111e-19)
(0.159267 -0.227229 8.76432e-21)
(0.158945 -0.244873 2.94758e-19)
(0.158985 -0.262566 -2.74047e-19)
(0.159356 -0.280271 -9.12354e-21)
(0.16003 -0.297955 2.92227e-19)
(0.160981 -0.315585 2.11691e-20)
(0.162185 -0.333135 -2.91364e-19)
(0.163618 -0.350577 -1.39065e-20)
(0.165259 -0.367887 -9.26457e-21)
(0.167087 -0.385045 -3.04721e-19)
(0.169083 -0.402031 5.88672e-19)
(0.17123 -0.418826 -5.85422e-19)
(0.173511 -0.435415 2.82575e-19)
(0.17591 -0.451784 -2.91967e-19)
(0.178413 -0.467919 2.82869e-19)
(0.181007 -0.48381 4.42415e-21)
(0.183677 -0.499446 -2.83267e-19)
(0.186414 -0.514819 2.74737e-19)
(0.189205 -0.529923 4.28117e-21)
(0.192041 -0.544749 0)
(0.194913 -0.559295 0)
(0.197811 -0.573555 -2.65576e-19)
(0.200727 -0.587527 2.57896e-19)
(0.203655 -0.601208 2.55764e-19)
(0.206587 -0.614597 -2.5039e-19)
(0.209517 -0.627693 0)
(0.21244 -0.640497 3.81346e-21)
(0.21535 -0.653008 -2.414e-19)
(0.218243 -0.665229 2.36441e-19)
(0.221115 -0.677161 2.33001e-19)
(0.223961 -0.688806 -2.31548e-19)
(0.144375 -0.166224 2.71073e-19)
(0.143909 -0.184362 0)
(0.143865 -0.20262 -9.05772e-21)
(0.144208 -0.220956 -1.0441e-22)
(0.144906 -0.23933 -9.35561e-21)
(0.145929 -0.257706 3.18056e-19)
(0.147249 -0.27605 -6.07915e-19)
(0.148838 -0.294332 3.09054e-19)
(0.150673 -0.312523 0)
(0.15273 -0.330597 3.13009e-19)
(0.154987 -0.34853 -2.88069e-19)
(0.157424 -0.366301 0)
(0.160022 -0.383889 3.15404e-19)
(0.162762 -0.401276 -6.09831e-19)
(0.165627 -0.418447 6.11296e-19)
(0.168603 -0.435386 7.2441e-21)
(0.171673 -0.452081 -5.98135e-19)
(0.174825 -0.46852 2.93375e-19)
(0.178044 -0.484692 -7.04155e-24)
(0.181321 -0.50059 2.93647e-19)
(0.184642 -0.516206 -2.94087e-19)
(0.187999 -0.531532 0)
(0.191381 -0.546565 0)
(0.194779 -0.5613 -2.81633e-19)
(0.198186 -0.575733 -4.05174e-21)
(0.201594 -0.589863 2.69942e-19)
(0.204995 -0.603688 0)
(0.208385 -0.617208 0)
(0.211756 -0.630421 -2.01306e-21)
(0.215105 -0.64333 -1.98055e-21)
(0.218425 -0.655935 -3.89567e-21)
(0.221714 -0.668238 2.4832e-19)
(0.224967 -0.680242 -4.90523e-19)
(0.127386 -0.161209 2.76448e-19)
(0.128059 -0.18011 3.04044e-19)
(0.129109 -0.199082 -3.01625e-19)
(0.130503 -0.218085 -3.04973e-19)
(0.132212 -0.237082 2.93258e-19)
(0.134208 -0.256042 0)
(0.136465 -0.274932 -9.92279e-21)
(0.138957 -0.293725 3.24365e-19)
(0.141663 -0.312394 2.15175e-20)
(0.14456 -0.330915 -6.49785e-19)
(0.147627 -0.349267 3.09885e-19)
(0.150846 -0.367429 3.19112e-19)
(0.154198 -0.385382 -3.14116e-19)
(0.157667 -0.403109 0)
(0.161236 -0.420596 -3.19371e-19)
(0.16489 -0.437829 6.27052e-19)
(0.168616 -0.454796 -3.12723e-19)
(0.1724 -0.471487 -4.82717e-21)
(0.176231 -0.487892 0)
(0.180096 -0.504005 4.73472e-21)
(0.183986 -0.519817 0)
(0.187892 -0.535323 0)
(0.191803 -0.55052 -2.92606e-19)
(0.195711 -0.565403 2.88965e-19)
(0.19961 -0.57997 0)
(0.203492 -0.59422 0)
(0.207351 -0.608152 -2.16313e-21)
(0.211181 -0.621765 -2.76584e-19)
(0.214976 -0.635061 2.66916e-19)
(0.218733 -0.648041 3.44704e-25)
(0.222446 -0.660706 -2.63186e-19)
(0.226113 -0.673059 2.59715e-19)
(0.110881 -0.140194 3.03839e-19)
(0.112297 -0.159669 -2.82537e-19)
(0.114076 -0.179211 3.09178e-19)
(0.116187 -0.198781 -3.26781e-19)
(0.1186 -0.218343 -3.18858e-19)
(0.121289 -0.237864 3.07388e-19)
(0.124227 -0.257313 0)
(0.127391 -0.276662 0)
(0.130758 -0.295884 -3.3864e-19)
(0.134305 -0.314955 3.27939e-19)
(0.138014 -0.333852 1.56504e-20)
(0.141864 -0.352553 5.20937e-21)
(0.145838 -0.37104 5.20265e-21)
(0.149918 -0.389296 -3.37061e-19)
(0.154089 -0.407305 -8.19171e-21)
(0.158335 -0.425053 3.25768e-19)
(0.162642 -0.442526 3.3114e-19)
(0.166999 -0.459715 -3.21796e-19)
(0.171391 -0.47661 0)
(0.175807 -0.493201 0)
(0.180238 -0.509483 -3.19168e-19)
(0.184673 -0.525448 3.15219e-19)
(0.189103 -0.541093 3.11788e-19)
(0.19352 -0.556413 -6.13501e-19)
(0.197915 -0.571405 2.99467e-19)
(0.202283 -0.586068 -2.99607e-19)
(0.206616 -0.600401 5.89091e-19)
(0.210909 -0.614404 -2.85065e-19)
(0.215156 -0.628076 0)
(0.219353 -0.64142 2.84068e-19)
(0.223495 -0.654436 -5.5154e-19)
(0.227579 -0.667129 2.71535e-19)
(0.0948092 -0.121222 -2.88791e-19)
(0.0969765 -0.141194 -9.77015e-21)
(0.0994909 -0.161234 1.00335e-20)
(0.102323 -0.181304 3.35643e-19)
(0.105443 -0.201367 -3.1356e-19)
(0.108826 -0.221392 2.10932e-20)
(0.112448 -0.241346 -3.4903e-19)
(0.116283 -0.261201 -1.39015e-20)
(0.120311 -0.28093 3.29945e-19)
(0.124509 -0.300507 1.0874e-20)
(0.128858 -0.319909 -1.09672e-20)
(0.133339 -0.339115 -5.48973e-21)
(0.137934 -0.358104 -5.48749e-21)
(0.142625 -0.376858 -5.45669e-21)
(0.147398 -0.395361 0)
(0.152236 -0.413598 0)
(0.157125 -0.431555 -5.38866e-21)
(0.162053 -0.449221 0)
(0.167007 -0.466585 -3.49202e-19)
(0.171975 -0.483638 -1.16126e-20)
(0.176947 -0.500373 6.63819e-19)
(0.181912 -0.516782 -6.67512e-19)
(0.186861 -0.53286 3.24976e-19)
(0.191786 -0.548603 -5.05601e-21)
(0.196679 -0.564008 -2.49743e-21)
(0.201533 -0.579073 0)
(0.206341 -0.593796 3.13611e-19)
(0.211097 -0.608176 -6.14396e-19)
(0.215796 -0.622215 3.00908e-19)
(0.220433 -0.635913 0)
(0.225004 -0.649271 2.9734e-19)
(0.229505 -0.662294 -2.89053e-19)
(0.0795244 -0.104138 -3.20594e-19)
(0.0824339 -0.124526 6.30023e-19)
(0.0856736 -0.144988 -3.19377e-19)
(0.0892151 -0.165487 1.06323e-20)
(0.0930318 -0.185987 -3.65383e-19)
(0.0970983 -0.206453 -1.70688e-20)
(0.101391 -0.226856 7.23959e-19)
(0.105887 -0.247165 -3.64291e-19)
(0.110564 -0.267353 3.70655e-19)
(0.115403 -0.287393 -3.71042e-19)
(0.120382 -0.307261 0)
(0.125484 -0.326933 0)
(0.130691 -0.34639 -5.7498e-21)
(0.135985 -0.365612 3.79248e-19)
(0.14135 -0.38458 -3.63007e-19)
(0.146772 -0.403281 -5.71527e-21)
(0.152237 -0.421698 -3.68843e-19)
(0.15773 -0.43982 3.58857e-19)
(0.163239 -0.457634 -3.5268e-19)
(0.168753 -0.475131 3.59812e-19)
(0.17426 -0.492302 3.63346e-19)
(0.17975 -0.509139 5.98821e-21)
(0.185215 -0.525637 -3.45003e-19)
(0.190644 -0.541791 5.38047e-21)
(0.19603 -0.557597 -3.39931e-19)
(0.201365 -0.573052 3.31004e-19)
(0.206644 -0.588154 -2.58896e-21)
(0.211859 -0.602902 0)
(0.217006 -0.617298 -3.24482e-19)
(0.22208 -0.63134 -3.64204e-21)
(0.227076 -0.645032 -5.87028e-21)
(0.231991 -0.658375 3.10804e-19)
(0.0653116 -0.0887467 3.40567e-19)
(0.0689392 -0.109468 -3.08431e-19)
(0.0728802 -0.130276 1.06183e-20)
(0.0771079 -0.151132 1.09262e-20)
(0.0815969 -0.172001 1.11907e-20)
(0.0863236 -0.192848 3.64532e-19)
(0.0912651 -0.213642 -7.57619e-19)
(0.0963997 -0.234353 3.81827e-19)
(0.101706 -0.25495 1.19701e-20)
(0.107165 -0.275408 0)
(0.112755 -0.2957 -4.05156e-19)
(0.11846 -0.315802 -1.21394e-20)
(0.12426 -0.335692 3.89116e-19)
(0.13014 -0.35535 0)
(0.136084 -0.374757 -3.93463e-19)
(0.142075 -0.393895 3.88942e-19)
(0.148101 -0.41275 1.20687e-20)
(0.154146 -0.431306 3.8856e-19)
(0.160199 -0.449551 1.77885e-21)
(0.166247 -0.467475 -3.70138e-19)
(0.172279 -0.485067 0)
(0.178285 -0.50232 -3.76845e-19)
(0.184255 -0.519225 -6.04136e-21)
(0.190179 -0.535778 3.69278e-19)
(0.19605 -0.551973 -3.59416e-19)
(0.201859 -0.567808 3.58483e-19)
(0.207601 -0.58328 2.766e-21)
(0.213269 -0.598388 0)
(0.218857 -0.613131 0)
(0.22436 -0.627511 2.65008e-21)
(0.229774 -0.641527 2.61069e-21)
(0.235096 -0.655183 0)
(0.0523844 -0.074829 3.5213e-19)
(0.0566941 -0.0958027 -3.19592e-19)
(0.0613007 -0.11688 3.56231e-19)
(0.0661794 -0.138022 -3.67027e-19)
(0.0713068 -0.159193 -1.22271e-22)
(0.0766605 -0.180358 0)
(0.082219 -0.201486 0)
(0.0879614 -0.222545 4.04998e-19)
(0.0938673 -0.243504 -8.14604e-19)
(0.0999169 -0.264335 3.97259e-19)
(0.106092 -0.28501 1.27696e-20)
(0.112373 -0.305504 0)
(0.118743 -0.325794 -4.1685e-19)
(0.125186 -0.345858 -1.14351e-20)
(0.131686 -0.365675 8.22931e-19)
(0.138226 -0.385227 -4.12332e-19)
(0.144794 -0.404496 4.14639e-19)
(0.151373 -0.423467 -3.97615e-19)
(0.157953 -0.442126 0)
(0.164519 -0.460461 -1.26277e-20)
(0.171062 -0.47846 6.26217e-21)
(0.177569 -0.496115 4.01675e-19)
(0.18403 -0.513416 -3.85353e-19)
(0.190437 -0.530357 -6.11614e-21)
(0.196781 -0.546933 -1.20922e-20)
(0.203054 -0.56314 -3.85361e-19)
(0.209249 -0.578974 3.75582e-19)
(0.215358 -0.594434 3.75746e-19)
(0.221378 -0.609519 7.36125e-21)
(0.227301 -0.624228 -3.63997e-19)
(0.233125 -0.638563 -3.65543e-19)
(0.238844 -0.652526 -3.7813e-21)
(0.0408872 -0.0621591 -1.98894e-19)
(0.0458329 -0.0833055 1.60255e-19)
(0.0510603 -0.104577 1.9165e-19)
(0.0565464 -0.125934 -1.85648e-19)
(0.0622696 -0.147341 3.92413e-19)
(0.0682091 -0.168764 -3.92445e-19)
(0.0743447 -0.190169 0)
(0.0806564 -0.211523 1.29813e-20)
(0.0871246 -0.232794 4.31002e-19)
(0.0937304 -0.253953 -4.18986e-19)
(0.100455 -0.274971 0)
(0.107281 -0.295822 1.35003e-20)
(0.114191 -0.316478 1.35634e-20)
(0.121169 -0.336918 0)
(0.128197 -0.357119 0)
(0.135261 -0.37706 6.83842e-21)
(0.142346 -0.396723 -1.36282e-20)
(0.149438 -0.41609 4.32861e-19)
(0.156523 -0.435147 -4.21914e-19)
(0.163588 -0.453878 2.0729e-23)
(0.170622 -0.472272 -1.3385e-20)
(0.177613 -0.490317 0)
(0.184551 -0.508004 4.18752e-19)
(0.191425 -0.525326 -4.1477e-19)
(0.198228 -0.542275 6.47535e-21)
(0.20495 -0.558847 -3.19595e-21)
(0.211585 -0.575038 0)
(0.218124 -0.590844 -3.12107e-21)
(0.224563 -0.606265 -5.91368e-24)
(0.230896 -0.6213 -3.88582e-19)
(0.237118 -0.63595 3.81637e-19)
(0.243225 -0.650215 0)
(0.0308999 -0.0505192 -2.19252e-20)
(0.0364288 -0.0717604 1.92974e-19)
(0.0422252 -0.0931519 -1.98925e-19)
(0.0482682 -0.114655 2.19223e-19)
(0.054538 -0.136234 -1.87637e-19)
(0.0610156 -0.157853 -2.17027e-19)
(0.0676821 -0.179478 2.10816e-19)
(0.0745186 -0.201075 -2.52125e-19)
(0.0815064 -0.222611 2.46398e-19)
(0.0886274 -0.244054 1.40644e-20)
(0.0958634 -0.265375 1.4205e-20)
(0.103197 -0.286544 -2.87124e-20)
(0.110611 -0.307534 -1.44747e-20)
(0.11809 -0.328321 -4.70412e-19)
(0.125616 -0.34888 9.36964e-19)
(0.133174 -0.369187 -4.66633e-19)
(0.140749 -0.389224 -4.63122e-19)
(0.148326 -0.40897 -1.03085e-20)
(0.155892 -0.428409 4.50438e-19)
(0.163434 -0.447524 7.20687e-21)
(0.170938 -0.466301 7.16678e-21)
(0.178393 -0.484728 0)
(0.185788 -0.502794 -7.04627e-21)
(0.193113 -0.520489 0)
(0.200358 -0.537807 -6.9219e-21)
(0.207515 -0.554739 4.52432e-19)
(0.214575 -0.571282 -8.68268e-19)
(0.221531 -0.587432 4.26199e-19)
(0.228377 -0.603187 4.22839e-19)
(0.235107 -0.618545 -4.18673e-19)
(0.241716 -0.633506 3.22146e-21)
(0.248199 -0.648072 -3.21304e-21)
(0.0224461 -0.0397094 1.99066e-19)
(0.0285003 -0.0609698 0)
(0.034809 -0.0824096 -2.09653e-19)
(0.0413535 -0.103991 1.90227e-19)