/*--------------------------------*- C++ -*----------------------------------*\
  =========                 |
  \\      /  F ield         | OpenFOAM: The Open Source CFD Toolbox
   \\    /   O peration     | Website:  https://openfoam.org
    \\  /    A nd           | Version:  10
     \\/     M anipulation  |
\*---------------------------------------------------------------------------*/
FoamFile
{
    format      ascii;
    class       volScalarField;
    location    "43000";
    object      Co;
}
// * * * * * * * * * * * * * * * * * * * * * * * * * * * * * * * * * * * * * //

dimensions      [0 0 0 0 0 0 0];

internalField   nonuniform List<scalar> 
17981
(
228.622
230.931
233.172
235.347
237.465
239.533
241.56
243.554
245.521
247.468
249.401
251.325
253.245
255.167
257.093
259.028
260.976
262.939
264.921
266.924
268.951
271.005
273.088
275.203
277.35
279.534
281.755
284.016
286.319
288.665
291.057
293.497
295.987
298.528
301.123
303.774
306.483
309.252
312.083
314.979
317.941
320.971
324.074
327.249
330.501
333.831
337.243
340.738
238.729
240.907
243.009
245.047
247.029
248.967
250.868
252.741
254.594
256.434
258.266
260.098
261.934
263.778
265.636
267.51
269.405
271.322
273.267
275.24
277.244
279.282
281.356
283.469
285.621
287.815
290.053
292.337
294.668
297.049
299.481
301.966
304.507
307.105
309.761
312.479
315.259
318.104
321.017
323.999
327.052
330.179
333.381
336.663
340.025
343.47
347.002
350.622
247.853
249.848
251.769
253.627
255.432
257.197
258.931
260.642
262.341
264.033
265.727
267.428
269.141
270.872
272.624
274.401
276.207
278.045
279.917
281.825
283.772
285.76
287.791
289.866
291.988
294.157
296.377
298.648
300.972
303.35
305.785
308.278
310.831
313.445
316.122
318.865
321.675
324.553
327.503
330.525
333.623
336.798
340.052
343.389
346.81
350.317
353.914
357.603
262.638
264.189
265.714
267.224
268.728
270.234
271.75
273.283
274.837
276.419
278.031
279.677
281.361
283.086
284.853
286.664
288.522
290.428
292.384
294.391
296.45
298.563
300.732
302.957
305.241
307.583
309.986
312.452
314.981
317.575
320.236
322.965
325.764
328.636
331.58
334.601
337.699
340.877
344.136
347.48
350.909
354.428
358.037
361.741
268.562
269.852
271.122
272.384
273.649
274.926
276.223
277.547
278.904
280.299
281.735
283.216
284.744
286.323
287.953
289.636
291.374
293.168
295.019
296.927
298.895
300.922
303.009
305.158
307.37
309.645
311.985
314.391
316.863
319.403
322.013
324.693
327.446
330.273
333.174
336.153
339.211
342.35
345.571
348.877
352.269
355.751
359.325
362.992
273.121
274.096
275.059
276.024
277.002
278.005
279.041
280.117
281.24
282.412
283.64
284.924
286.267
287.671
289.137
290.666
292.258
293.914
295.634
297.42
299.27
301.186
303.167
305.215
307.33
309.511
311.761
314.079
316.466
318.924
321.453
324.053
326.728
329.477
332.301
335.204
338.185
341.247
344.391
347.619
350.933
354.335
357.828
361.413
276.747
277.346
277.96
278.603
279.288
280.022
280.814
281.668
282.589
283.579
284.641
285.775
286.982
288.262
289.616
291.042
292.542
294.113
295.756
297.471
299.257
301.113
303.04
305.038
307.105
309.244
311.453
313.733
316.085
318.508
321.005
323.574
326.219
328.938
331.735
334.609
337.562
340.596
343.712
346.912
350.197
353.57
357.033
277.952
278.221
278.552
278.956
279.438
280.003
280.653
281.39
282.215
283.128
284.127
285.211
286.381
287.633
288.967
290.381
291.873
293.444
295.09
296.811
298.607
300.476
302.418
304.432
306.518
308.676
310.906
313.207
315.581
318.027
320.546
323.139
325.807
328.55
331.369
334.266
337.242
340.298
343.436
346.657
349.963
275.574
275.538
275.601
275.767
276.039
276.417
276.902
277.491
278.184
278.977
279.868
280.855
281.934
283.104
284.361
285.703
287.128
288.634
290.218
291.88
293.617
295.429
297.314
299.271
301.301
303.402
305.573
307.815
310.127
312.51
314.964
317.489
320.085
322.755
325.497
328.313
331.205
334.172
337.218
340.343
269.761
269.628
269.624
269.749
269.999
270.371
270.862
271.466
272.18
273
273.922
274.941
276.054
277.258
278.549
279.924
281.381
282.917
284.531
286.22
287.982
289.816
291.72
293.693
295.734
297.844
300.02
302.262
304.571
306.947
309.389
311.899
314.476
317.12
319.834
322.617
325.47
328.396
260.685
260.876
261.199
261.649
262.219
262.903
263.697
264.595
265.591
266.682
267.863
269.131
270.481
271.91
273.415
274.994
276.644
278.364
280.151
282.003
283.921
285.901
287.944
290.049
292.215
294.441
296.728
299.076
301.484
303.952
306.482
309.073
311.727
314.444
249.013
249.066
249.263
249.597
250.059
250.643
251.341
252.148
253.057
254.062
255.158
256.341
257.606
258.949
260.367
261.857
263.415
265.039
266.726
268.475
270.284
272.15
274.074
276.052
278.086
280.173
282.313
284.505
286.751
289.048
291.398
293.8
296.254
298.763
235.168
235.138
235.26
235.527
235.929
236.456
237.102
237.857
238.716
239.672
240.719
241.851
243.063
244.352
245.712
247.14
248.632
250.185
251.797
253.464
255.185
256.957
258.779
260.649
262.565
264.527
266.534
268.585
270.678
272.815
274.994
277.215
279.478
281.784
219.412
219.362
219.471
219.729
220.124
220.648
221.291
222.043
222.898
223.849
224.887
226.008
227.205
228.474
229.809
231.207
232.663
234.174
235.736
237.346
239.003
240.703
242.444
244.225
246.043
247.898
249.788
251.712
253.668
255.657
257.678
259.73
261.813
263.926
202.088
202.247
202.556
203.003
203.577
204.269
205.068
205.967
206.958
208.032
209.183
210.405
211.691
213.038
214.44
215.892
217.391
218.933
220.515
222.133
223.786
225.47
227.184
228.925
230.692
232.483
234.298
236.134
237.991
239.867
241.763
243.677
245.61
183.757
184.027
184.446
185.001
185.682
186.477
187.376
188.369
189.447
190.602
191.827
193.115
194.46
195.855
197.296
198.778
200.296
201.847
203.428
205.035
206.664
208.315
209.983
211.668
213.367
215.079
216.801
218.533
220.273
222.02
223.773
225.532
227.296
164.871
165.305
165.886
166.603
167.441
168.389
169.435
170.569
171.781
173.061
174.403
175.797
177.238
178.718
180.232
181.775
183.343
184.932
186.538
188.158
189.789
191.429
193.075
194.724
196.375
198.026
199.676
201.322
202.963
204.599
206.228
207.848
209.46
146.644
147.424
148.341
149.381
150.529
151.767
153.082
154.465
155.906
157.396
158.926
160.489
162.079
163.689
165.316
166.955
168.601
170.252
171.904
173.555
175.201
176.842
178.473
180.095
181.703
183.298
185.524
189.708
195.147
200.424
205.54
210.501
128.543
129.528
130.637
131.862
133.192
134.616
136.124
137.708
139.35
141.035
142.745
144.469
146.199
147.933
149.668
151.399
153.123
154.839
156.543
159.79
165.846
173.061
180.092
186.94
193.607
200.097
206.411
212.553
218.527
224.335
229.982
235.472
111.031
112.248
113.568
114.987
116.497
118.094
119.773
121.527
123.342
125.202
127.093
129.002
130.919
132.831
136.185
142.958
151.623
160.107
168.408
176.524
184.454
192.198
199.758
207.134
214.327
221.34
228.176
234.838
241.328
247.651
253.81
259.81
94.0789
95.5894
97.1943
98.8887
100.665
102.512
104.421
106.383
108.388
110.428
113.073
119.71
129.703
139.463
149.003
158.344
167.5
176.478
185.278
193.897
202.333
210.585
218.652
226.533
234.231
241.747
249.083
256.241
263.226
270.04
276.688
283.173
78.2785
80.1383
82.0805
84.1035
86.2009
88.363
90.5776
92.8326
98.822
109.328
120.435
131.302
141.922
152.292
162.417
172.31
181.989
191.474
200.779
209.904
218.845
227.601
236.17
244.551
252.746
260.754
268.579
276.222
283.686
290.975
298.094
305.046
64.1407
66.3996
68.7265
71.1221
73.5818
76.0962
82.485
93.7546
105.88
117.794
129.481
140.93
152.135
163.094
173.807
184.28
194.521
204.547
214.377
224.022
233.481
242.75
251.827
260.712
269.404
277.904
286.213
294.335
302.271
310.025
317.602
325.006
51.815
54.5171
57.2682
60.0739
64.1971
73.3612
86.2951
99.1118
111.766
124.226
136.466
148.474
160.239
171.759
183.035
194.07
204.871
215.449
225.819
235.996
245.982
255.772
265.363
274.755
283.946
292.937
301.729
310.324
318.726
326.937
334.963
342.806
41.3555
44.5406
47.7506
52.6241
62.5213
75.8609
89.2061
102.483
115.631
128.606
141.375
153.917
166.222
178.283
190.102
201.68
213.026
224.149
235.062
245.776
256.292
266.606
276.713
286.612
296.302
305.783
315.054
324.119
332.98
341.64
350.104
358.376
32.7832
36.4701
40.6167
49.5166
62.923
76.5162
90.2022
103.888
117.493
130.956
144.233
157.294
170.122
182.71
195.058
207.168
219.047
230.706
242.158
253.41
264.458
275.297
285.921
296.328
306.516
316.485
326.234
335.765
345.08
354.183
363.078
371.769
26.1024
30.2824
36.9829
48.238
61.6782
75.4174
89.358
103.39
117.41
131.334
145.1
158.667
172.009
185.116
197.985
210.62
223.029
235.223
247.214
259.005
270.587
281.953
293.098
304.016
314.705
325.163
335.39
345.387
355.155
364.697
374.018
383.122
21.2609
25.9177
33.5926
45.5514
58.9279
72.6996
86.7934
101.094
115.475
129.827
144.064
158.126
171.977
185.599
198.987
212.146
225.085
237.819
250.357
262.693
274.817
286.72
298.393
309.83
321.029
331.984
342.696
353.163
363.388
373.372
383.12
392.635
18.1456
23.2671
30.3947
41.5191
54.8113
68.5246
82.664
97.1375
111.811
126.547
141.23
155.777
170.132
184.269
198.179
211.865
225.341
238.624
251.719
264.614
277.294
289.748
301.965
313.938
325.661
337.129
348.339
359.29
369.983
380.419
390.601
400.534
22.1801
27.7165
36.5698
49.4101
63.0453
77.1428
91.6871
106.565
121.623
136.718
151.732
166.586
181.239
195.674
209.894
223.919
237.766
251.434
264.904
278.16
291.186
303.97
316.501
328.772
340.774
352.505
363.961
375.142
386.048
396.682
407.047
22.4871
28.4467
34.3556
43.3668
56.3614
70.3914
84.9204
99.9049
115.207
130.661
146.115
161.458
176.625
191.586
206.347
220.933
235.363
249.623
263.691
277.546
291.169
304.547
317.663
330.509
343.074
355.353
367.34
379.035
390.436
401.544
412.363
24.01
30.3743
36.6743
42.9114
50.722
62.5259
77.0029
92.0075
107.461
123.202
139.053
154.866
170.542
186.033
201.34
216.499
231.527
246.398
261.085
275.564
289.813
303.811
317.543
330.994
344.151
357.007
369.555
381.79
393.711
405.318
416.613
26.5668
33.3163
39.9865
46.5798
53.0997
59.5507
69.0731
83.0444
98.5621
114.504
130.689
146.936
163.109
179.134
194.996
210.738
226.377
241.877
257.206
272.335
287.237
301.887
316.265
330.353
344.135
357.6
370.738
383.543
396.011
408.142
419.936
51.0361
57.8751
64.6317
71.3121
77.9324
88.8882
104.747
121.187
137.815
154.459
171.01
187.436
203.774
220.038
236.186
252.181
267.987
283.572
298.907
313.965
328.725
343.166
357.274
371.036
384.444
397.491
410.175
422.494
56.1005
63.2356
70.2734
77.2211
84.0905
90.9
98.3269
110.727
127.666
144.738
161.798
178.786
195.728
212.631
229.446
246.131
262.642
278.942
294.995
310.77
326.239
341.378
356.168
370.592
384.64
398.3
411.57
424.446
61.5977
69.0082
76.3062
83.5007
90.6019
97.6268
104.588
111.467
120.118
134.097
151.635
169.176
186.724
204.274
221.772
239.168
256.413
273.46
290.267
306.798
323.018
338.897
354.412
369.541
384.269
398.583
412.477
425.945
67.3655
75.0327
82.5716
89.9928
97.3088
104.533
111.683
118.761
125.735
132.555
142.788
158.73
176.88
195.08
213.273
231.4
249.404
267.232
284.833
302.161
319.177
335.843
352.129
368.01
383.465
398.478
413.038
427.139
73.2519
81.1599
88.9233
96.5539
104.065
111.473
118.794
126.043
133.21
140.258
147.153
153.915
166.45
185.151
204.049
222.926
241.717
260.36
278.794
296.966
314.825
332.329
349.438
366.122
382.355
398.115
413.389
428.166
79.1103
87.2458
95.2209
103.048
110.741
118.318
125.795
133.189
140.511
147.749
154.881
161.926
168.932
178.411
194.196
213.841
233.446
252.939
272.248
291.31
310.064
328.458
346.445
363.987
381.051
397.611
413.648
429.149
84.7964
93.1433
101.315
109.324
117.186
124.918
132.541
140.071
147.528
154.922
162.26
169.558
176.844
184.137
191.449
204.757
224.693
245.067
265.291
285.287
304.986
324.323
343.243
361.699
379.65
397.064
413.917
430.192
90.1905
98.73
107.08
115.253
123.268
131.143
138.902
146.566
154.16
161.706
169.225
176.74
184.273
191.841
199.459
207.135
218.565
236.777
257.953
278.93
299.625
319.962
339.874
359.303
378.201
396.529
414.256
431.358
95.2175
103.934
112.448
120.774
128.93
136.938
144.825
152.618
160.347
168.041
175.73
183.441
191.199
199.025
206.937
214.943
223.051
233.162
250.21
272.218
293.966
315.364
336.333
356.804
376.718
396.025
414.689
432.681
99.827
108.708
117.376
125.844
134.134
142.269
150.277
158.192
166.048
173.881
181.726
189.617
197.584
205.653
213.845
222.174
230.646
239.264
248.66
265.133
287.994
310.521
332.618
354.204
375.206
395.567
415.239
434.187
103.988
113.022
121.833
130.437
138.852
147.106
155.229
163.257
171.23
179.188
187.174
195.227
203.386
211.682
220.141
228.782
237.616
246.645
255.865
265.265
281.781
305.418
328.719
351.497
373.668
395.16
415.918
435.896
109.06
116.861
125.806
134.536
143.071
151.436
159.665
167.796
175.872
183.941
192.05
200.248
208.579
217.084
225.795
234.736
243.924
253.363
263.052
272.978
283.123
300.3
324.618
348.672
372.097
394.807
416.733
437.821
115.97
120.228
129.297
138.144
146.79
155.26
163.585
171.809
179.976
188.139
196.353
204.675
213.157
221.849
230.791
240.018
249.548
259.394
269.555
280.018
290.764
301.866
320.287
345.707
370.477
394.496
417.681
439.964
123.075
123.14
132.32
141.277
150.026
158.591
167.006
175.312
183.558
191.8
200.101
208.523
217.131
225.984
235.135
244.624
254.483
264.726
275.357
286.367
297.732
309.422
322.345
342.564
368.779
394.207
418.748
442.322
129.199
125.626
134.906
143.961
152.805
161.46
169.957
178.337
186.65
194.956
203.323
211.822
220.529
229.514
238.843
248.569
258.732
269.357
280.453
292.012
304.011
316.416
329.181
344.476
366.962
393.908
419.913
444.879
134.35
128.939
137.096
146.239
155.169
163.906
172.477
180.923
189.293
197.649
206.063
214.616
223.392
232.476
241.947
251.875
262.313
273.297
284.844
296.949
309.592
322.735
336.326
350.304
368.435
393.557
421.143
447.614
138.562
133.396
138.939
148.158
157.164
165.975
174.614
183.119
191.537
199.93
208.374
216.955
225.77
234.916
244.489
254.578
265.252
276.562
288.536
301.177
314.467
328.365
342.815
357.747
373.079
394.403
422.401
450.502
141.892
137.498
140.492
149.774
158.846
167.721
176.421
184.978
193.435
201.855
210.312
218.899
227.721
236.889
246.52
256.719
267.58
279.173
291.54
304.697
318.628
333.294
348.632
364.563
380.992
398.88
423.647
453.514
144.433
140.745
141.815
151.148
160.273
169.203
177.955
186.556
195.046
203.482
211.938
220.509
229.307
238.458
248.095
258.349
269.338
281.158
293.872
307.51
322.067
337.504
353.755
370.728
388.317
406.399
428.317
456.62
146.306
143.238
142.969
152.341
161.508
170.48
179.274
187.91
196.425
204.869
213.312
221.848
230.594
239.686
249.277
259.522
270.571
282.548
295.548
309.62
324.774
340.975
358.154
376.211
395.022
414.445
434.326
460.304
145.102
144.015
153.413
162.61
171.613
180.436
189.099
197.63
206.073
214.492
222.977
231.645
240.641
250.133
260.302
271.332
283.385
296.591
311.032
326.737
343.683
361.8
380.976
401.072
421.923
443.346
467.41
146.472
145.011
154.423
163.637
172.66
181.501
190.178
198.715
207.148
215.534
223.955
232.524
241.389
250.73
260.755
271.681
283.715
297.032
311.757
327.949
345.604
364.653
384.979
406.422
428.791
451.872
475.437
155.423
164.643
173.673
182.52
191.199
199.73
208.143
216.487
224.832
233.285
241.99
251.136
260.949
271.682
283.59
296.907
311.81
328.403
346.709
366.672
388.168
411.018
435
459.864
485.337
156.464
165.676
174.701
183.542
192.21
200.722
209.104
217.395
225.655
233.979
242.503
251.414
260.953
271.404
283.075
296.261
311.212
328.093
346.969
367.807
390.482
414.794
440.49
467.273
494.818
166.777
175.784
184.607
193.252
201.732
210.069
218.295
226.461
234.645
242.972
251.619
260.832
270.918
282.234
295.149
309.995
327.021
346.356
368.005
391.849
417.673
445.185
474.037
503.839
167.979
176.955
185.747
194.357
202.793
211.071
219.219
227.279
235.315
243.432
251.795
260.641
270.29
281.14
293.632
308.198
325.195
344.843
367.205
392.187
419.562
448.996
480.079
512.347
169.308
178.239
186.986
195.548
203.928
212.135
220.191
228.131
236.009
243.909
251.975
260.425
269.58
279.861
291.779
305.874
322.634
342.406
365.346
391.403
420.349
451.81
485.305
520.272
179.654
188.341
196.84
205.151
213.275
221.227
229.034
236.74
244.415
252.176
260.215
268.834
278.464
289.666
303.088
319.373
339.034
362.364
389.393
419.909
453.498
489.598
527.534
181.209
189.822
198.243
206.469
214.497
222.333
229.994
237.515
244.954
252.405
260.026
268.088
277.007
287.37
299.92
315.466
334.734
358.208
386.053
418.101
453.911
492.828
534.037
191.43
199.757
207.882
215.798
223.505
231.01
238.335
245.525
252.658
259.861
267.359
275.532
284.963
296.46
310.995
329.539
352.845
381.279
414.775
452.881
494.842
539.675
193.16
201.378
209.383
217.17
224.732
232.069
239.188
246.121
252.927
259.709
266.647
274.065
282.508
292.806
306.064
323.521
346.27
374.984
409.773
450.218
495.464
544.323
195.003
203.093
210.962
218.601
225.999
233.15
240.053
246.72
253.192
259.551
265.936
272.609
280.046
289.048
300.799
316.791
338.526
367.106
402.943
445.721
494.499
547.848
204.887
212.601
220.071
227.285
234.231
240.901
247.292
253.425
259.356
265.195
271.142
277.589
285.255
295.329
309.498
329.706
357.626
394.146
439.176
491.732
550.109
206.742
214.278
221.557
228.564
235.284
241.7
247.801
253.588
259.089
264.382
269.623
275.115
281.459
289.764
301.81
319.955
346.572
383.257
430.348
486.913
550.939
208.637
215.971
223.034
229.809
236.275
242.413
248.203
253.632
258.703
263.455
268.002
272.576
277.647
284.171
293.89
309.46
334.027
370.169
418.966
479.719
550.116
217.658
224.478
230.99
237.173
243.003
248.454
253.502
258.134
262.355
266.225
269.91
273.767
278.559
285.853
298.42
320.122
354.8
404.714
469.733
547.327
219.316
225.862
232.081
237.948
243.436
248.514
253.151
257.319
260.999
264.206
267.034
269.732
272.875
277.758
287.03
305.067
337.142
387.268
456.448
542.17
220.922
227.162
233.052
238.566
243.674
248.341
252.53
256.201
259.316
261.852
263.838
265.426
267.021
269.611
275.493
289.195
317.372
366.412
439.333
534.196
222.444
228.344
233.868
238.987
243.669
247.879
251.573
254.704
257.221
259.075
260.241
260.774
260.927
261.403
264.013
272.98
295.953
342.177
417.931
522.948
223.836
229.362
234.48
239.158
243.365
247.062
250.204
252.742
254.616
255.762
256.122
255.68
254.54
253.13
252.753
256.948
273.621
314.916
391.886
507.923
225.018
230.133
234.801
238.99
242.666
245.791
248.321
250.206
251.386
251.791
251.344
249.977
247.683
244.66
241.718
241.502
251.253
285.299
360.888
488.357
225.832
230.488
234.653
238.294
241.376
243.86
245.706
246.868
247.292
246.912
245.647
243.407
240.108
235.76
230.777
226.877
229.819
254.46
324.776
462.99
225.926
230.045
233.625
236.631
239.027
240.777
241.845
242.194
241.78
240.549
238.437
235.362
231.227
225.954
219.643
213.138
210.277
224.257
284.057
430.13
224.392
227.818
230.645
232.844
234.385
235.243
235.393
234.814
233.478
231.35
228.395
224.566
219.792
213.97
207.009
201.951
193.478
195.381
239.381
387.964
218.391
220.649
222.243
223.174
223.44
223.047
222.004
220.333
218.05
215.16
211.674
207.591
203.48
201.383
199.03
198.891
192.327
179.294
192.49
336.366
196.747
196.314
195.196
193.487
191.283
188.689
185.815
182.774
179.669
176.579
174.743
173.698
173.866
177.577
182.808
189.343
195.878
189.478
168.423
280.363
96.0148
91.0997
86.4037
82.0515
78.158
74.8378
72.2081
70.3923
69.525
69.7671
72.49
77.4258
84.764
95.2646
109.993
130.098
157.522
188.2
196.529
201.96
2462.45
2449.17
2435.98
2422.89
2409.87
2396.93
2384.06
2371.23
2358.45
2345.69
2332.94
2320.19
2307.42
2294.61
2281.74
2268.8
2255.75
2242.57
2229.24
2215.73
2202
2188.02
2173.76
2159.17
2144.2
2128.82
2112.96
2096.57
2079.58
2061.91
2043.5
2024.26
2004.09
1982.9
1960.57
1937
1912.06
1885.62
1857.58
1827.81
1796.19
1762.65
1727.1
1689.52
1649.91
1608.31
1564.77
1519.37
1472.05
1422.53
1369.92
1311.83
1241.71
1135.3
876.727
2391.66
2378.72
2365.88
2353.13
2340.46
2327.85
2315.31
2302.81
2290.36
2277.93
2265.51
2253.09
2240.65
2228.17
2215.63
2203.02
2190.32
2177.49
2164.51
2151.36
2138
2124.4
2110.53
2096.34
2081.79
2066.84
2051.44
2035.52
2019.03
2001.89
1984.04
1965.39
1945.86
1925.36
1903.78
1881.02
1856.97
1831.53
1804.57
1776.01
1745.73
1713.68
1679.78
1644.02
1606.4
1566.94
1525.69
1482.64
1437.65
1390.26
1339.18
1281.1
1206.74
1085
803.485
2322.86
2310.27
2297.77
2285.35
2273.01
2260.73
2248.52
2236.35
2224.22
2212.11
2200.01
2187.91
2175.8
2163.65
2151.44
2139.17
2126.8
2114.31
2101.68
2088.89
2075.9
2062.67
2049.19
2035.4
2021.26
2006.74
1991.78
1976.33
1960.33
1943.71
1926.41
1908.35
1889.45
1869.62
1848.78
1826.82
1803.64
1779.15
1753.25
1725.85
1696.86
1666.22
1633.88
1599.81
1564.01
1526.48
1487.22
1446.12
1402.9
1356.81
1306.04
1246.12
1165.15
1029
748.292
2256.02
2243.76
2231.59
2219.5
2207.48
2195.53
2183.63
2171.78
2159.97
2148.18
2136.4
2124.62
2112.83
2101
2089.12
2077.18
2065.14
2053
2040.72
2028.27
2015.64
2002.79
1989.69
1976.29
1962.56
1948.47
1933.95
1918.96
1903.44
1887.34
1870.58
1853.09
1834.81
1815.65
1795.52
1774.34
1752.01
1728.45
1703.57
1677.29
1649.54
1620.25
1589.38
1556.9
1522.79
1487.03
1449.55
1410.14
1368.35
1323.09
1271.97
1209.31
1121.26
974.771
711.057
2191.07
2179.14
2167.29
2155.52
2143.82
2132.19
2120.6
2109.07
2097.57
2086.09
2074.63
2063.17
2051.69
2040.18
2028.63
2017.01
2005.3
1993.49
1981.55
1969.46
1957.18
1944.7
1931.97
1918.96
1905.64
1891.96
1877.87
1863.34
1848.3
1832.7
1816.47
1799.56
1781.88
1763.37
1743.95
1723.53
1702.04
1679.39
1655.5
1630.31
1603.74
1575.75
1546.29
1515.32
1482.8
1448.66
1412.78
1374.82
1334.12
1289.24
1237.14
1171.09
1076.52
925.469
687.51
2127.96
2116.35
2104.82
2093.36
2081.98
2070.65
2059.38
2048.15
2036.96
2025.79
2014.64
2003.49
1992.32
1981.13
1969.89
1958.6
1947.22
1935.74
1924.14
1912.39
1900.47
1888.34
1875.98
1863.36
1850.43
1837.16
1823.51
1809.42
1794.85
1779.75
1764.05
1747.69
1730.61
1712.74
1694.01
1674.34
1653.66
1631.9
1608.99
1584.85
1559.44
1532.7
1504.58
1475.03
1443.99
1411.33
1376.84
1340.06
1300.08
1255.08
1201.39
1131.63
1032.02
882.204
672.788
2066.64
2055.35
2044.13
2032.98
2021.9
2010.88
1999.91
1988.99
1978.1
1967.24
1956.39
1945.54
1934.69
1923.8
1912.88
1901.9
1890.85
1879.69
1868.43
1857.02
1845.44
1833.67
1821.68
1809.43
1796.9
1784.03
1770.8
1757.15
1743.05
1728.43
1713.24
1697.44
1680.95
1663.71
1645.66
1626.73
1606.85
1585.95
1563.98
1540.88
1516.58
1491.03
1464.18
1435.96
1406.26
1374.92
1341.61
1305.7
1266.04
1220.44
1164.74
1091.51
989.23
845.486
663.34
2007.07
1996.08
1985.16
1974.32
1963.54
1952.82
1942.15
1931.53
1920.94
1910.37
1899.83
1889.28
1878.73
1868.15
1857.54
1846.87
1836.13
1825.3
1814.36
1803.29
1792.06
1780.64
1769.01
1757.13
1744.98
1732.51
1719.69
1706.48
1692.83
1678.69
1664.02
1648.75
1632.84
1616.22
1598.84
1580.63
1561.53
1541.48
1520.43
1498.31
1475.08
1450.66
1425
1397.99
1369.5
1339.28
1306.88
1271.52
1231.81
1185.21
1127.38
1051.57
949.308
814.765
656.627
1949.19
1938.5
1927.88
1917.34
1906.85
1896.43
1886.05
1875.72
1865.43
1855.16
1844.9
1834.66
1824.4
1814.13
1803.82
1793.46
1783.04
1772.52
1761.91
1751.16
1740.26
1729.19
1717.91
1706.4
1694.63
1682.55
1670.14
1657.36
1644.15
1630.49
1616.31
1601.58
1586.23
1570.23
1553.5
1535.99
1517.65
1498.43
1478.26
1457.08
1434.85
1411.49
1386.92
1361
1333.54
1304.21
1272.46
1237.34
1197.22
1149.38
1089.68
1012.62
912.768
788.889
651.107
1892.97
1882.57
1872.24
1861.98
1851.79
1841.65
1831.57
1821.52
1811.52
1801.54
1791.58
1781.63
1771.67
1761.69
1751.68
1741.62
1731.5
1721.3
1711
1700.58
1690.01
1679.28
1668.35
1657.2
1645.79
1634.1
1622.09
1609.73
1596.96
1583.76
1570.08
1555.86
1541.08
1525.66
1509.57
1492.75
1475.15
1456.71
1437.38
1417.1
1395.8
1373.41
1349.8
1324.82
1298.21
1269.55
1238.18
1202.99
1162.2
1113.12
1052.15
975.265
879.584
766.606
645.857
1838.34
1828.23
1818.19
1808.22
1798.31
1788.46
1778.65
1768.9
1759.17
1749.48
1739.8
1730.14
1720.47
1710.78
1701.07
1691.31
1681.49
1671.6
1661.61
1651.5
1641.26
1630.86
1620.27
1609.47
1598.43
1587.11
1575.5
1563.54
1551.21
1538.46
1525.26
1511.55
1497.31
1482.47
1467
1450.84
1433.94
1416.25
1397.71
1378.26
1357.82
1336.29
1313.53
1289.32
1263.37
1235.15
1203.91
1168.41
1126.83
1076.74
1015.29
939.845
849.414
746.849
640.34
1785.28
1775.45
1765.69
1756
1746.37
1736.79
1727.27
1717.79
1708.34
1698.93
1689.54
1680.15
1670.77
1661.37
1651.94
1642.47
1632.95
1623.36
1613.67
1603.88
1593.95
1583.88
1573.62
1563.17
1552.48
1541.54
1530.31
1518.75
1506.84
1494.54
1481.8
1468.59
1454.87
1440.59
1425.71
1410.18
1393.95
1376.97
1359.16
1340.47
1320.8
1300.02
1277.97
1254.38
1228.89
1200.91
1169.57
1133.6
1091.29
1040.62
979.506
906.49
821.824
728.847
634.303
1733.73
1724.18
1714.69
1705.27
1695.92
1686.61
1677.36
1668.16
1658.99
1649.85
1640.73
1631.62
1622.52
1613.4
1604.25
1595.07
1585.84
1576.54
1567.15
1557.66
1548.05
1538.29
1528.36
1518.24
1507.91
1497.33
1486.47
1475.31
1463.81
1451.93
1439.65
1426.92
1413.71
1399.96
1385.65
1370.72
1355.11
1338.78
1321.65
1303.63
1284.63
1264.49
1243.01
1219.88
1194.68
1166.74
1135.16
1098.69
1055.87
1005.12
945.088
875.178
796.405
712.093
627.687
1683.66
1674.37
1665.16
1656.01
1646.92
1637.89
1628.9
1619.97
1611.07
1602.19
1593.35
1584.51
1575.67
1566.83
1557.97
1549.06
1540.12
1531.1
1522.01
1512.81
1503.5
1494.06
1484.45
1474.66
1464.66
1454.43
1443.94
1433.15
1422.05
1410.6
1398.75
1386.48
1373.75
1360.52
1346.74
1332.36
1317.34
1301.6
1285.07
1267.65
1249.22
1229.6
1208.56
1185.74
1160.66
1132.63
1100.73
1063.87
1020.85
970.544
912.183
845.8
772.801
696.253
620.514
1635.02
1626
1617.05
1608.16
1599.34
1590.56
1581.84
1573.17
1564.53
1555.92
1547.34
1538.77
1530.2
1521.62
1513.03
1504.4
1495.73
1487
1478.19
1469.28
1460.27
1451.12
1441.83
1432.36
1422.69
1412.8
1402.66
1392.24
1381.53
1370.47
1359.04
1347.22
1334.94
1322.19
1308.91
1295.05
1280.55
1265.34
1249.34
1232.44
1214.48
1195.27
1174.54
1151.9
1126.81
1098.59
1066.4
1029.33
986.463
937.071
880.828
818.187
750.702
681.084
612.816
1587.77
1579.01
1570.32
1561.69
1553.12
1544.61
1536.14
1527.73
1519.35
1511
1502.67
1494.36
1486.05
1477.74
1469.41
1461.05
1452.64
1444.18
1435.65
1427.03
1418.3
1409.45
1400.46
1391.29
1381.95
1372.38
1362.59
1352.53
1342.18
1331.5
1320.48
1309.06
1297.22
1284.91
1272.09
1258.7
1244.68
1229.94
1214.4
1197.92
1180.34
1161.43
1140.89
1118.3
1093.12
1064.7
1032.32
995.273
952.907
904.804
850.981
792.137
729.826
666.388
604.607
1541.88
1533.38
1524.94
1516.56
1508.24
1499.98
1491.77
1483.6
1475.47
1467.37
1459.3
1451.24
1443.19
1435.13
1427.05
1418.95
1410.81
1402.62
1394.36
1386.01
1377.56
1368.99
1360.29
1351.43
1342.38
1333.14
1323.67
1313.95
1303.95
1293.64
1282.99
1271.97
1260.53
1248.63
1236.22
1223.25
1209.65
1195.32
1180.16
1164.02
1146.73
1128.02
1107.56
1084.94
1059.62
1031.05
998.645
961.866
920.299
873.776
822.55
767.448
709.937
652.007
595.894
1497.31
1489.05
1480.86
1472.73
1464.66
1456.64
1448.67
1440.75
1432.86
1425.01
1417.18
1409.37
1401.56
1393.76
1385.93
1378.08
1370.2
1362.26
1354.26
1346.18
1338
1329.71
1321.28
1312.71
1303.96
1295.02
1285.86
1276.47
1266.8
1256.83
1246.53
1235.87
1224.8
1213.27
1201.24
1188.65
1175.4
1161.42
1146.57
1130.69
1113.59
1094.99
1074.54
1051.83
1026.39
997.77
965.508
929.232
888.712
843.975
795.425
743.935
690.843
637.828
586.694
1454.02
1446
1438.05
1430.16
1422.32
1414.55
1406.82
1399.13
1391.49
1383.88
1376.29
1368.71
1361.15
1353.58
1346
1338.4
1330.76
1323.07
1315.32
1307.49
1299.57
1291.55
1283.39
1275.09
1266.63
1257.98
1249.12
1240.02
1230.67
1221.02
1211.04
1200.71
1189.98
1178.79
1167.09
1154.82
1141.88
1128.17
1113.56
1097.88
1080.89
1062.31
1041.81
1019.01
993.522
964.97
933.029
897.459
858.18
815.36
769.493
721.442
672.4
623.778
577.041
1411.97
1404.18
1396.47
1388.81
1381.21
1373.67
1366.17
1358.72
1351.31
1343.93
1336.57
1329.23
1321.9
1314.56
1307.22
1299.85
1292.45
1285
1277.5
1269.92
1262.25
1254.47
1246.58
1238.54
1230.34
1221.97
1213.38
1204.57
1195.51
1186.15
1176.48
1166.45
1156.01
1145.12
1133.71
1121.71
1109.03
1095.54
1081.1
1065.53
1048.58
1029.99
1009.42
986.56
961.099
932.752
901.293
866.598
828.703
787.873
744.978
700.174
654.495
609.811
566.976
1371.12
1363.57
1356.08
1348.65
1341.28
1333.97
1326.7
1319.47
1312.28
1305.13
1298
1290.88
1283.78
1276.67
1269.55
1262.41
1255.24
1248.02
1240.75
1233.4
1225.97
1218.44
1210.79
1203
1195.06
1186.94
1178.62
1170.07
1161.27
1152.19
1142.79
1133.03
1122.86
1112.22
1101.06
1089.28
1076.8
1063.47
1049.14
1033.62
1016.67
998.015
977.394
954.54
929.208
901.195
870.361
836.675
801.127
764.439
725.236
682.416
638.122
595.896
556.542
1332
1324.38
1316.91
1309.65
1302.5
1295.41
1288.36
1281.35
1274.38
1267.44
1260.53
1253.63
1246.74
1239.86
1232.96
1226.04
1219.08
1212.09
1205.04
1197.92
1190.71
1183.41
1175.99
1168.44
1160.73
1152.85
1144.77
1136.47
1127.92
1119.08
1109.92
1100.4
1090.46
1080.04
1069.08
1057.48
1045.14
1031.92
1017.65
1002.13
985.131
966.431
945.798
923.022
897.921
870.358
840.268
809.436
778.026
743.922
706.659
666.234
622.968
582.017
545.778
1294.3
1286.91
1279.56
1272.23
1264.98
1257.95
1251.12
1244.32
1237.56
1230.84
1224.13
1217.45
1210.77
1204.09
1197.4
1190.69
1183.95
1177.16
1170.33
1163.42
1156.43
1149.34
1142.14
1134.81
1127.32
1119.66
1111.81
1103.73
1095.4
1086.78
1077.83
1068.51
1058.77
1048.54
1037.74
1026.27
1014.03
1000.86
986.591
971.039
953.998
935.274
914.684
892.067
867.293
840.725
814.068
786.795
756.95
724.38
689.013
650.88
610.121
570.029
534.724
1257.69
1250.53
1243.4
1236.3
1229.22
1222.17
1215.14
1208.35
1201.8
1195.28
1188.77
1182.29
1175.81
1169.33
1162.84
1156.33
1149.79
1143.21
1136.57
1129.87
1123.08
1116.2
1109.2
1102.07
1094.79
1087.34
1079.68
1071.8
1063.67
1055.24
1046.48
1037.34
1027.76
1017.67
1006.99
995.609
983.413
970.253
955.961
940.365
923.294
904.587
884.103
861.721
838.671
815.781
791.692
765.424
736.818
705.77
672.247
636.297
598.059
558.42
523.409
1222.13
1215.19
1208.28
1201.4
1194.54
1187.7
1180.88
1174.07
1167.27
1160.72
1154.42
1148.12
1141.84
1135.55
1129.25
1122.94
1116.59
1110.19
1103.75
1097.23
1090.63
1083.94
1077.13
1070.19
1063.09
1055.83
1048.36
1040.66
1032.69
1024.43
1015.83
1006.83
997.378
987.394
976.79
965.459
953.274
940.091
925.757
910.124
893.051
874.41
854.36
834.566
814.853
793.458
770.213
744.967
717.603
688.054
656.311
622.438
586.563
548.88
513.783
1187.6
1180.88
1174.18
1167.51
1160.87
1154.24
1147.63
1141.02
1134.43
1127.83
1121.25
1114.92
1108.82