/*--------------------------------*- C++ -*----------------------------------*\
  =========                 |
  \\      /  F ield         | OpenFOAM: The Open Source CFD Toolbox
   \\    /   O peration     | Website:  https://openfoam.org
    \\  /    A nd           | Version:  10
     \\/     M anipulation  |
\*---------------------------------------------------------------------------*/
FoamFile
{
    format      ascii;
    class       volScalarField;
    location    "43000";
    object      nut;
}
// * * * * * * * * * * * * * * * * * * * * * * * * * * * * * * * * * * * * * //

dimensions      [0 2 -1 0 0 0 0];

internalField   nonuniform List<scalar> 
17981
(
0.00104773
0.00104586
0.00104627
0.00104899
0.00105398
0.00106117
0.00107041
0.00108154
0.00109435
0.00110862
0.00112412
0.00114065
0.00115797
0.00117591
0.00119427
0.0012129
0.00123165
0.00125041
0.00126906
0.00128751
0.0013057
0.00132357
0.00134106
0.00135814
0.00137478
0.00139096
0.00140666
0.00142189
0.00143662
0.00145087
0.00146465
0.00147794
0.00149078
0.00150316
0.0015151
0.00152662
0.00153771
0.00154839
0.00155869
0.0015686
0.00157815
0.00158734
0.00159619
0.00160471
0.00161292
0.00162082
0.00162844
0.00163577
0.00101496
0.00101454
0.00101638
0.00102054
0.00102698
0.0010356
0.00104626
0.00105879
0.00107295
0.00108853
0.00110529
0.001123
0.00114145
0.00116043
0.00117976
0.00119928
0.00121884
0.00123832
0.00125763
0.00127666
0.00129536
0.00131367
0.00133154
0.00134894
0.00136585
0.00138224
0.00139811
0.00141345
0.00142827
0.00144257
0.00145636
0.00146964
0.00148243
0.00149475
0.0015066
0.00151801
0.00152897
0.00153952
0.00154966
0.00155941
0.00156878
0.00157779
0.00158646
0.00159478
0.00160279
0.0016105
0.00161791
0.00162504
0.000982144
0.000983459
0.00098704
0.000992917
0.00100105
0.00101134
0.00102363
0.00103773
0.00105341
0.00107043
0.00108855
0.00110753
0.00112716
0.00114722
0.00116753
0.00118794
0.0012083
0.00122848
0.0012484
0.00126797
0.00128713
0.00130582
0.001324
0.00134165
0.00135875
0.00137528
0.00139125
0.00140664
0.00142146
0.00143573
0.00144945
0.00146265
0.00147532
0.00148749
0.00149919
0.00151041
0.00152118
0.00153152
0.00154144
0.00155096
0.0015601
0.00156887
0.00157728
0.00158536
0.00159312
0.00160056
0.00160772
0.00161459
0.000976495
0.000988667
0.00100277
0.00101861
0.00103593
0.0010545
0.00107405
0.00109436
0.00111519
0.00113634
0.00115763
0.00117889
0.00120001
0.00122085
0.00124132
0.00126136
0.0012809
0.00129989
0.0013183
0.00133612
0.00135332
0.0013699
0.00138587
0.00140122
0.00141596
0.00143011
0.00144368
0.0014567
0.00146917
0.00148112
0.00149257
0.00150354
0.00151404
0.00152409
0.00153372
0.00154295
0.00155178
0.00156024
0.00156834
0.00157611
0.00158355
0.00159069
0.00159754
0.0016041
0.000953578
0.000967823
0.000983909
0.00100161
0.00102068
0.00104086
0.0010619
0.00108354
0.00110558
0.00112779
0.00115002
0.00117209
0.00119389
0.00121531
0.00123625
0.00125666
0.00127649
0.00129568
0.00131423
0.0013321
0.00134931
0.00136584
0.0013817
0.0013969
0.00141146
0.0014254
0.00143872
0.00145147
0.00146365
0.00147529
0.00148641
0.00149703
0.00150718
0.00151688
0.00152614
0.001535
0.00154345
0.00155154
0.00155927
0.00156667
0.00157374
0.00158051
0.00158699
0.00159319
0.000932576
0.000949051
0.000967242
0.000986907
0.00100779
0.00102962
0.00105214
0.00107511
0.00109831
0.00112153
0.00114461
0.00116741
0.0011898
0.00121169
0.001233
0.00125367
0.00127366
0.00129294
0.0013115
0.00132932
0.00134641
0.00136277
0.00137841
0.00139336
0.00140763
0.00142124
0.00143421
0.00144658
0.00145837
0.00146961
0.00148031
0.00149051
0.00150022
0.00150948
0.0015183
0.0015267
0.00153472
0.00154236
0.00154966
0.00155662
0.00156326
0.00156961
0.00157567
0.00158147
0.000932572
0.00095295
0.000974628
0.000997336
0.00102081
0.00104478
0.00106901
0.00109329
0.00111743
0.00114127
0.00116467
0.00118753
0.00120977
0.0012313
0.0012521
0.00127212
0.00129136
0.00130979
0.00132742
0.00134426
0.00136032
0.00137563
0.0013902
0.00140405
0.00141723
0.00142975
0.00144164
0.00145294
0.00146367
0.00147387
0.00148355
0.00149274
0.00150148
0.00150978
0.00151767
0.00152518
0.00153232
0.00153911
0.00154558
0.00155174
0.00155761
0.0015632
0.00156854
0.000964819
0.000989323
0.00101437
0.00103971
0.00106511
0.00109036
0.00111528
0.00113974
0.0011636
0.00118678
0.00120921
0.00123082
0.00125159
0.0012715
0.00129053
0.00130869
0.00132599
0.00134245
0.00135808
0.00137292
0.00138698
0.00140031
0.00141294
0.00142489
0.0014362
0.00144691
0.00145705
0.00146664
0.00147573
0.00148432
0.00149246
0.00150017
0.00150748
0.00151441
0.00152098
0.00152722
0.00153314
0.00153876
0.00154411
0.00154919
0.00155403
0.000983619
0.00101014
0.00103673
0.00106315
0.00108922
0.00111477
0.00113968
0.00116383
0.00118716
0.00120961
0.00123113
0.00125171
0.00127134
0.00129002
0.00130776
0.00132458
0.00134051
0.00135558
0.00136981
0.00138325
0.00139593
0.00140789
0.00141917
0.00142981
0.00143983
0.00144928
0.00145819
0.00146659
0.00147451
0.00148198
0.00148904
0.0014957
0.00150199
0.00150794
0.00151356
0.00151889
0.00152393
0.00152872
0.00153325
0.00153756
0.00103551
0.00106278
0.00108948
0.00111548
0.00114065
0.00116491
0.00118821
0.00121049
0.00123175
0.00125196
0.00127114
0.0012893
0.00130647
0.00132267
0.00133793
0.0013523
0.00136581
0.0013785
0.00139042
0.00140161
0.00141211
0.00142197
0.00143122
0.0014399
0.00144804
0.00145569
0.00146287
0.00146961
0.00147595
0.00148191
0.00148751
0.00149279
0.00149777
0.00150246
0.00150688
0.00151107
0.00151502
0.00151877
0.00114217
0.00116634
0.0011894
0.00121133
0.00123214
0.00125181
0.00127038
0.00128787
0.0013043
0.00131973
0.00133419
0.00134773
0.00136039
0.00137223
0.00138328
0.0013936
0.00140324
0.00141224
0.00142063
0.00142847
0.00143578
0.00144261
0.00144899
0.00145495
0.00146053
0.00146574
0.00147062
0.00147519
0.00147948
0.00148351
0.0014873
0.00149086
0.00149421
0.00149738
0.00114371
0.00116757
0.0011902
0.00121159
0.00123176
0.00125072
0.00126851
0.00128517
0.00130073
0.00131526
0.00132879
0.00134138
0.00135309
0.00136396
0.00137405
0.00138342
0.00139212
0.00140018
0.00140766
0.0014146
0.00142103
0.00142699
0.00143253
0.00143767
0.00144244
0.00144688
0.00145101
0.00145485
0.00145844
0.00146178
0.00146491
0.00146784
0.00147059
0.00147317
0.0011447
0.00116804
0.00119003
0.00121069
0.00123005
0.00124813
0.00126499
0.00128068
0.00129524
0.00130874
0.00132123
0.00133277
0.00134342
0.00135325
0.00136231
0.00137066
0.00137835
0.00138543
0.00139194
0.00139794
0.00140345
0.00140852
0.00141318
0.00141748
0.00142143
0.00142508
0.00142844
0.00143155
0.00143443
0.0014371
0.00143957
0.00144187
0.00144402
0.00144602
0.00114457
0.00116718
0.00118834
0.00120809
0.00122647
0.00124352
0.00125932
0.0012739
0.00128734
0.00129971
0.00131106
0.00132147
0.001331
0.00133972
0.00134769
0.00135498
0.00136162
0.00136768
0.0013732
0.00137823
0.0013828
0.00138696
0.00139075
0.0013942
0.00139733
0.00140019
0.0014028
0.00140519
0.00140737
0.00140937
0.00141121
0.0014129
0.00141446
0.00141591
0.00116442
0.00118457
0.00120325
0.00122051
0.0012364
0.00125101
0.00126439
0.00127662
0.00128777
0.00129791
0.00130713
0.00131549
0.00132307
0.00132993
0.00133612
0.0013417
0.00134673
0.00135125
0.00135531
0.00135894
0.00136221
0.00136513
0.00136774
0.00137008
0.00137218
0.00137406
0.00137574
0.00137725
0.00137862
0.00137985
0.00138096
0.00138198
0.00138291
0.00115922
0.00117822
0.00119569
0.00121171
0.00122635
0.00123968
0.00125178
0.00126274
0.00127261
0.00128151
0.00128951
0.00129668
0.00130311
0.00130884
0.00131394
0.00131846
0.00132247
0.001326
0.00132911
0.00133184
0.00133423
0.00133632
0.00133814
0.00133971
0.00134108
0.00134227
0.00134329
0.00134418
0.00134495
0.00134562
0.00134621
0.00134672
0.00134718
0.00115112
0.00116885
0.00118503
0.00119973
0.00121304
0.00122504
0.00123582
0.00124546
0.00125405
0.00126169
0.00126848
0.00127447
0.00127974
0.00128437
0.0012884
0.00129189
0.00129491
0.0012975
0.00129971
0.00130157
0.00130313
0.00130443
0.0013055
0.00130637
0.00130707
0.00130762
0.00130804
0.00130836
0.00130859
0.00130876
0.00130887
0.00130894
0.00130899
0.00115613
0.00117096
0.00118431
0.00119627
0.00120693
0.00121638
0.00122471
0.00123203
0.00123844
0.00124403
0.00124887
0.00125304
0.00125659
0.0012596
0.00126212
0.0012642
0.0012659
0.00126726
0.00126832
0.00126912
0.0012697
0.00127008
0.00127031
0.0012704
0.00127038
0.00127026
0.00127008
0.00126985
0.00126958
0.00126928
0.00126898
0.00126867
0.00113174
0.00114345
0.00115541
0.00116801
0.00118122
0.00119346
0.00120051
0.00120661
0.00121184
0.00121629
0.00122003
0.00122314
0.00122569
0.00122774
0.00122935
0.00123057
0.00123145
0.00123203
0.00123236
0.00123247
0.00123241
0.00123219
0.00123185
0.00123141
0.00123089
0.00123032
0.00122971
0.00122909
0.00122845
0.00122782
0.00122721
0.00122663
0.00109183
0.00110009
0.00110816
0.00111667
0.001126
0.00113607
0.00114633
0.00115642
0.00116652
0.00117666
0.00118569
0.00119024
0.00119187
0.00119304
0.00119382
0.00119427
0.00119442
0.00119432
0.00119401
0.00119353
0.0011929
0.00119216
0.00119134
0.00119046
0.00118954
0.00118859
0.00118764
0.0011867
0.00118578
0.00118489
0.00118405
0.00118326
0.0010562
0.00106145
0.00106674
0.00107259
0.0010793
0.00108687
0.00109493
0.00110314
0.00111145
0.00111995
0.00112862
0.00113722
0.00114535
0.0011522
0.00115589
0.00115566
0.00115518
0.0011545
0.00115365
0.00115266
0.00115158
0.00115042
0.00114921
0.00114797
0.00114672
0.00114549
0.00114427
0.0011431
0.00114198
0.00114091
0.00113991
0.00113899
0.00102659
0.00102812
0.00102984
0.00103244
0.00103638
0.00104179
0.00104833
0.00105551
0.00106306
0.00107074
0.0010784
0.00108594
0.0010933
0.00110037
0.00110681
0.00111188
0.00111429
0.00111311
0.00111181
0.00111042
0.00110896
0.00110746
0.00110595
0.00110444
0.00110295
0.0011015
0.00110011
0.00109878
0.00109752
0.00109635
0.00109526
0.00109427
0.00100193
0.000999744
0.000997653
0.000996606
0.000997279
0.000999957
0.00100438
0.00101001
0.00101647
0.00102347
0.00103079
0.00103818
0.00104544
0.00105236
0.00105871
0.00106422
0.00106842
0.0010705
0.0010691
0.00106737
0.00106562
0.00106385
0.00106211
0.0010604
0.00105874
0.00105715
0.00105564
0.00105421
0.00105289
0.00105167
0.00105056
0.00104957
0.000981187
0.000975176
0.000969091
0.000964135
0.000961243
0.000960889
0.000962924
0.000966839
0.000972127
0.000978374
0.000985232
0.000992402
0.000999616
0.00100662
0.00101313
0.00101884
0.00102334
0.00102605
0.00102603
0.00102404
0.00102205
0.00102009
0.00101817
0.00101632
0.00101455
0.00101288
0.0010113
0.00100984
0.0010085
0.00100729
0.00100621
0.00100526
0.000965317
0.000955384
0.000944877
0.000935503
0.000928488
0.000924537
0.000923746
0.000925645
0.0009296
0.000935056
0.000941522
0.000948568
0.000955815
0.000962928
0.000969589
0.000975459
0.000980113
0.000982953
0.000983027
0.000980822
0.000978656
0.000976549
0.000974519
0.000972582
0.000970752
0.00096904
0.000967455
0.000966005
0.000964696
0.000963534
0.00096252
0.000961657
0.00095058
0.000940032
0.000925654
0.000911491
0.000899699
0.000891484
0.000887273
0.000886693
0.000888997
0.000893479
0.000899482
0.00090642
0.000913773
0.000921093
0.000927971
0.000933996
0.000938663
0.000941225
0.000940395
0.000938034
0.000935741
0.000933538
0.00093144
0.000929461
0.000927614
0.000925909
0.000924354
0.000922954
0.000921716
0.000920641
0.000919733
0.000918992
0.000923446
0.000923764
0.00091004
0.000892233
0.000875524
0.000862431
0.000854008
0.000850244
0.000850423
0.000853636
0.000859028
0.000865814
0.000873293
0.000880858
0.000887972
0.000894124
0.000898713
0.000900762
0.000898387
0.000895913
0.00089354
0.000891283
0.000889158
0.000887179
0.000885354
0.000883694
0.000882204
0.000880889
0.000879754
0.000878799
0.000878027
0.000877437
0.000891854
0.000893493
0.00089242
0.000875991
0.000855831
0.000837824
0.000824564
0.000816844
0.000814219
0.000815669
0.000820145
0.000826638
0.000834231
0.000842107
0.000849525
0.000855728
0.000859727
0.000859843
0.00085719
0.000854646
0.000852231
0.00084996
0.000847847
0.000845902
0.000844135
0.000842552
0.000841159
0.00083996
0.000838956
0.000838149
0.000837538
0.000837122
0.000860139
0.000860846
0.000860705
0.000857376
0.000838836
0.000817493
0.000799416
0.000787032
0.000780756
0.000779803
0.000782922
0.000788857
0.00079642
0.000804533
0.000812205
0.000818413
0.000821741
0.000819677
0.000816959
0.00081438
0.000811959
0.000809708
0.00080764
0.000805762
0.000804083
0.000802607
0.000801339
0.000800281
0.000799433
0.000798796
0.000798367
0.000798146
0.000828386
0.00082744
0.00082582
0.000819647
0.000799694
0.00077829
0.000761237
0.000750611
0.000746425
0.000747563
0.000752539
0.000759871
0.000768136
0.000775952
0.000781787
0.000783461
0.000780557
0.000777805
0.000775225
0.000772829
0.000770629
0.000768635
0.000766853
0.000765289
0.000763946
0.000762827
0.000761932
0.000761261
0.000760813
0.000760586
0.000760575
0.000796386
0.000794666
0.000792348
0.000789527
0.000780283
0.000759681
0.000739248
0.000724158
0.000715997
0.000714357
0.000717788
0.000724522
0.000732764
0.000740638
0.000745933
0.000745517
0.000742573
0.000739816
0.00073726
0.000734917
0.000732794
0.0007309
0.000729239
0.000727813
0.000726625
0.000725676
0.000724964
0.000724488
0.000724246
0.000724234
0.000724448
0.000765058
0.000762592
0.000759602
0.00075618
0.000752415
0.000740247
0.000719805
0.000701274
0.00068892
0.000683727
0.000684831
0.000690401
0.000698265
0.000706059
0.000710906
0.000708759
0.000705797
0.000703055
0.000700545
0.000698276
0.000696253
0.00069448
0.000692959
0.000691691
0.000690677
0.000689915
0.000689402
0.000689135
0.000689112
0.000689327
0.000689777
0.00073462
0.000731424
0.000727774
0.000723763
0.000719477
0.000714997
0.000700353
0.000680906
0.000665096
0.000656066
0.000654065
0.000657718
0.000664695
0.000672131
0.000676448
0.000673236
0.00067027
0.000667559
0.000665113
0.000662935
0.000661029
0.000659394
0.000658031
0.000656938
0.000656112
0.000655551
0.000655249
0.000655204
0.00065541
0.000655862
0.000656554
0.000692438
0.000687628
0.000682689
0.000677695
0.000661318
0.000643744
0.000631311
0.000625879
0.000626884
0.000632301
0.000638898
0.000642227
0.000638978
0.000636016
0.000633349
0.000630978
0.000628906
0.000627129
0.000625647
0.000624455
0.000623548
0.000622922
0.000622572
0.000622492
0.000622676
0.000623119
0.000623814
0.000624755
0.00066234
0.000656994
0.000651585
0.000646183
0.000639944
0.000623779
0.000609048
0.000600306
0.00059823
0.000601363
0.000606661
0.000609287
0.000606002
0.000603049
0.00060043
0.000598142
0.000596182
0.000594545
0.000593224
0.000592211
0.0005915
0.000591082
0.000590951
0.000591099
0.000591519
0.000592203
0.000593145
0.000594337
0.00063361
0.000627706
0.0006218
0.000615963
0.000610256
0.000602413
0.000588319
0.000577106
0.00057191
0.000572346
0.000575793
0.000577644
0.000574327
0.000571374
0.000568799
0.000566594
0.000564749
0.000563254
0.000562098
0.000561271
0.00056076
0.000560556
0.000560648
0.000561028
0.000561686
0.000562614
0.000563804
0.000565248
0.000606373
0.000599883
0.000593448
0.00058714
0.000581023
0.000575153
0.000566776
0.000555357
0.000547693
0.000545353
0.000546619
0.000547181
0.0005439
0.000540975
0.000538435
0.000536308
0.000534575
0.000533223
0.000532235
0.000531594
0.000531287
0.000531299
0.000531617
0.00053223
0.000533128
0.0005343
0.000535738
0.000537433
0.000580726
0.000573624
0.000566627
0.000559809
0.000553238
0.000546973
0.000541062
0.000533392
0.000524925
0.000520234
0.000519135
0.000517887
0.000514608
0.000511754
0.000509305
0.000507258
0.00050563
0.000504415
0.000503591
0.000503136
0.000503032
0.000503261
0.000503805
0.000504652
0.000505789
0.000507204
0.000508888
0.000510831
0.00055676
0.000549019
0.000541423
0.000534052
0.000526979
0.000520268
0.00051397
0.000508128
0.000502173
0.000496515
0.000493385
0.00048979
0.00048648
0.000483654
0.000481293
0.000479373
0.000477866
0.000476783
0.00047612
0.00047585
0.000475947
0.000476391
0.00047716
0.000478239
0.000479612
0.000481267
0.000483193
0.000485381
0.000534556
0.000526145
0.000517913
0.000509944
0.000502316
0.000495099
0.000488352
0.000482123
0.000476447
0.000471343
0.000466824
0.000462884
0.000459511
0.000456686
0.000454383
0.000452571
0.000451218
0.000450286
0.000449778
0.000449687
0.000449982
0.000450637
0.000451627
0.000452934
0.00045454
0.000456431
0.000458595
0.000461022
0.000514161
0.000505054
0.000496153
0.000487542
0.000479307
0.000471526
0.000464266
0.000457583
0.000451517
0.000446094
0.000441326
0.00043721
0.000433732
0.00043087
0.00042859
0.000426858
0.000425631
0.000424867
0.000424527
0.000424605
0.00042509
0.00042595
0.000427156
0.000428685
0.000430518
0.000432639
0.000435035
0.000437696
0.000495611
0.000485786
0.000476185
0.000466895
0.000458006
0.000449605
0.00044177
0.000434566
0.000428044
0.000422236
0.000417158
0.000412809
0.000409173
0.000406225
0.000403926
0.000402234
0.0004011
0.000400476
0.000400311
0.000400565
0.000401229
0.000402284
0.000403697
0.000405441
0.000407495
0.000409839
0.000412461
0.000415349
0.00047897
0.000468388
0.000458053
0.000448046
0.000438457
0.000429382
0.000420911
0.000413119
0.00040607
0.000399806
0.000394348
0.0003897
0.000385846
0.000382756
0.000380389
0.000378694
0.000377616
0.000377099
0.000377083
0.000377513
0.000378355
0.000379594
0.000381205
0.000383156
0.000385421
0.000387981
0.000390821
0.000393929
0.000464265
0.000452882
0.000441779
0.000431019
0.00042069
0.000410891
0.000401722
0.000393276
0.000385626
0.000378828
0.000372914
0.000367893
0.000363752
0.000360459
0.000357968
0.000356223
0.00035516
0.000354713
0.000354816
0.000355405
0.000356418
0.000357833
0.000359632
0.00036178
0.00036425
0.000367018
0.000370068
0.000373388
0.000451537
0.000439285
0.000427371
0.000415825
0.000404719
0.000394152
0.00038423
0.000375061
0.000366736
0.000359325
0.000352873
0.000347398
0.000342894
0.000339328
0.000336653
0.000334804
0.00033371
0.000333294
0.000333482
0.000334199
0.000335378
0.000336964
0.000338937
0.000341273
0.000343936
0.000346904
0.000350156
0.00035368
0.00044087
0.000427636
0.000414842
0.000402468
0.000390551
0.000379175
0.000368452
0.000358498
0.000349424
0.000341317
0.000334241
0.000328227
0.000323276
0.000319361
0.000316432
0.000314419
0.000313243
0.000312817
0.000313055
0.000313871
0.000315189
0.000316937
0.000319078
0.000321589
0.000324438
0.000327595
0.000331042
0.000334763
0.000432393
0.000417999
0.00040421
0.000390942
0.000378176
0.000365959
0.000354392
0.0003436
0.000333709
0.000324827
0.00031704
0.000310395
0.000304908
0.000300559
0.0002973
0.000295057
0.000293742
0.000293259
0.000293507
0.000294391
0.000295821
0.000297716
0.000300014
0.00030269
0.000305714
0.000309053
0.000312686
0.000316596
0.000426291
0.00041049
0.00039552
0.000381248
0.000367577
0.000354488
0.000342047
0.000330373
0.000319605
0.000309876
0.00030129
0.000293923
0.000287806
0.000282931
0.000279257
0.000276709
0.000275192
0.000274599
0.000274815
0.000275732
0.000277246
0.000279266
0.000281711
0.000284541
0.00028773
0.000291242
0.000295052
0.000299144
0.00042282
0.00040531
0.000388883
0.000373419
0.000358741
0.000344734
0.000331393
0.000318809
0.00030712
0.000296478
0.000287016
0.000278834
0.000271989
0.000266493
0.000262312
0.000259377
0.000257586
0.000256823
0.00025696
0.000257872
0.00025944
0.00026156
0.000264139
0.000267113
0.000270453
0.000274128
0.000278108
0.000282375
0.000422259
0.000402755
0.000384519
0.000367559
0.000351684
0.000336671
0.000322399
0.000308885
0.000296247
0.000284644
0.000274236
0.000265154
0.000257485
0.000251265
0.00024648
0.000243066
0.000240923
0.000239923
0.000239926
0.000240791
0.000242381
0.000244575
0.000247267
0.000250371
0.000253853
0.000257683
0.000261824
0.000266257
0.000424239
0.000403149
0.000382748
0.000363891
0.000346497
0.000330297
0.000315023
0.000300561
0.000286961
0.000274369
0.000262963
0.000252905
0.00024432
0.000237276
0.000231782
0.000227792
0.000225207
0.000223896
0.000223705
0.000224475
0.00022605
0.00022829
0.000231073
0.0002343
0.000237913
0.000241882
0.000246175
0.000250766
0.000427072
0.000406032
0.000383958
0.000362768
0.000343405
0.000325685
0.000309246
0.000293788
0.00027922
0.000265631
0.000253195
0.000242105
0.000232522
0.000224554
0.000218247
0.000213574
0.000210452
0.000208746
0.000208292
0.000208913
0.000210432
0.000212687
0.000215539
0.000218871
0.000222603
0.000226701
0.000231134
0.000235876
0.000429613
0.000409546
0.00038761
0.000364653
0.000342792
0.000323054
0.000305117
0.000288526
0.000272966
0.000258385
0.000244914
0.000232756
0.00022211
0.000213131
0.000205905
0.000200442
0.000196677
0.000194483
0.000193689
0.000194099
0.000195515
0.000197751
0.000200645
0.000204063
0.000207901
0.000212117
0.00021668
0.000221564
0.000412554
0.000391686
0.000368937
0.000345201
0.000322812
0.000302839
0.000284794
0.00026814
0.000252567
0.000238076
0.000224844
0.000213095
0.000203031
0.000194789
0.000188425
0.000183908
0.000181124
0.000179901
0.00018003
0.00018129
0.000183468
0.000186377
0.000189858
0.000193791
0.000198116
0.000202796
0.000207808
0.000414801
0.000395045
0.000373454
0.000349983
0.000325591
0.000302835
0.000282773
0.000264731
0.000248102
0.000232614
0.000218329
0.000205467
0.000194269
0.000184929
0.000177559
0.000172174
0.00016869
0.000166942
0.000166711
0.000167753
0.000169829
0.000172719
0.000176242
0.000180255
0.000184673
0.00018946
0.000194589
0.000377048
0.000354827
0.000330734
0.000305827
0.000282884
0.000262882
0.00024495
0.00022844
0.000213143
0.000199192
0.000186843
0.000176345
0.000167877
0.000161512
0.000157212
0.000154831
0.000154149
0.000154904
0.000156824
0.000159659
0.000163197
0.00016727
0.000171769
0.000176651
0.000181887
0.000379458
0.000358543
0.000335799
0.000311196
0.000285935
0.000262998
0.000243204
0.000225484
0.000209191
0.000194204
0.000180726
0.000169044
0.000159404
0.000151956
0.00014672
0.000143591
0.000142357
0.000142743
0.000144448
0.000147187
0.00015071
0.000154822
0.000159387
0.000164351
0.000169684
0.000360862
0.000339531
0.000316381
0.000291389
0.000265954
0.000243232
0.000223785
0.000206376
0.000190404
0.000175858
0.000163006
0.000152156
0.000143537
0.000137252
0.000133252
0.000131355
0.000131281
0.000132702
0.000135294
0.000138769
0.000142897
0.000147513
0.000152545
0.000157961
0.000361533
0.000341656
0.000320034
0.000296604
0.000271352
0.000245946
0.000223653
0.000204681
0.000187678
0.000172142
0.000158182
0.000146123
0.000136277
0.000128841
0.000123849
0.000121168
0.000120529
0.000121586
0.000123976
0.000127365
0.000131482
0.000136132
0.000141216
0.0001467
0.00036032
0.000341916
0.000321872
0.000300093
0.000276519
0.000251145
0.000225991
0.000204337
0.000185953
0.000169451
0.000154479
0.000141267
0.00013018
0.000121517
0.000115418
0.000111826
0.000110508
0.000111109
0.000113229
0.000116487
0.000120564
0.000125227
0.000130346
0.000135884
0.000340076
0.000321633
0.000301565
0.000279773
0.000256197
0.000230847
0.000206184
0.000185368
0.000167668
0.000151767
0.000137506
0.000125218
0.000115293
0.000107991
0.000103363
0.000101241
0.000101282
0.000103056
0.00010613
0.000110131
0.000114782
0.000119918
0.000125496
0.000335931
0.000319087
0.000300755
0.000280813
0.000259158
0.000235731
0.00021056
0.000186639
0.00016683
0.000149897
0.000134712
0.000121326
0.000110158
0.000101592
9.58151e-05
9.27591e-05
9.21235e-05
9.34619e-05
9.62902e-05
0.000100175
0.000104787
0.00010992
0.00011552
0.000314045
0.000297441
0.000279374
0.000259712
0.000238348
0.000215222
0.000190412
0.000167479
0.000148811
0.000132721
0.000118388
0.000106064
9.62257e-05
8.9212e-05
8.50956e-05
8.36568e-05
8.44577e-05
8.69693e-05
9.06917e-05
9.52321e-05
0.00010034
0.000105941
0.00030637
0.000291453
0.000275244
0.000257597
0.00023837
0.000217447
0.000194768
0.000170548
0.000148841
0.000131399
0.000116236
0.000102915
9.18649e-05
8.35722e-05
7.82845e-05
7.59112e-05
7.60598e-05
7.81712e-05
8.16763e-05
8.61098e-05
9.11653e-05
9.67442e-05
0.000295998
0.000282694
0.000268286
0.000252624
0.000235546
0.000216898
0.00019655
0.00017444
0.000151118
0.000130874
0.000114692
0.000100557
8.84392e-05
7.88916e-05
7.23547e-05
6.89194e-05
6.829e-05
6.99049e-05
7.31289e-05
7.74148e-05
8.23915e-05
8.79177e-05
0.00027115
0.000258451
0.000244698
0.000229728
0.000213361
0.000195422
0.000175765
0.000154317
0.000132276
0.000113718
9.8795e-05
8.58217e-05
7.51289e-05
6.73212e-05
6.27153e-05
6.11761e-05
6.21843e-05
6.50515e-05
6.91407e-05
7.40034e-05
7.94485e-05
0.000256896
0.000245783
0.000233828
0.000220872
0.000206735
0.000191218
0.000174118
0.000155266
0.00013458
0.00011419
9.74821e-05
8.38251e-05
7.21898e-05
6.31715e-05
5.73269e-05
5.47508e-05
5.50305e-05
5.74529e-05
6.12883e-05
6.59964e-05
7.13287e-05
0.000240098
0.000230429
0.000220123
0.000209044
0.000197024
0.000183864
0.000169343
0.00015323
0.000135334
0.000115575
9.70516e-05
8.22357e-05
6.99088e-05
5.98453e-05
5.27644e-05
4.90473e-05
4.84716e-05
5.03492e-05
5.38652e-05
5.83729e-05
6.35552e-05
0.000212629
0.000203802
0.00019442
0.000184343
0.000173393
0.000161354
0.000147981
0.000133024
0.000116279
9.77033e-05
8.10422e-05
6.80377e-05
5.72093e-05
4.90018e-05
4.40908e-05
4.25395e-05
4.3763e-05
4.68851e-05
5.11406e-05
5.61288e-05
0.000192716
0.000185189
0.000177303
0.00016895
0.000159985
0.000150221
0.000139422
0.000127316
0.000113623
9.81215e-05
8.10793e-05
6.63275e-05
5.50423e-05
4.59571e-05
3.98867e-05
3.72658e-05
3.77222e-05
4.03673e-05
4.43125e-05
4.90536e-05
0.000171102
0.000164704
0.000158109
0.000151245
0.000144004
0.000136238
0.000127743
0.000118258
0.000107459
9.49937e-05
8.05615e-05
6.55732e-05
5.31195e-05
4.34887e-05
3.64057e-05
3.26735e-05
3.22567e-05
3.43359e-05
3.79071e-05
4.23385e-05
0.000148257
0.000142841
0.000137353
0.000131752
0.000125969
0.000119902
0.000113399
0.000106244
9.81415e-05
8.87197e-05
7.75625e-05
6.43413e-05
5.15247e-05
4.13683e-05
3.35549e-05
2.8762e-05
2.73934e-05
2.88183e-05
3.19493e-05
3.59999e-05
0.000124686
0.00012014
0.000115609
0.000111077
0.000106511
0.000101849
9.69962e-05
9.18017e-05
8.60427e-05
7.94046e-05
7.14806e-05
6.18289e-05
5.01729e-05
3.92474e-05
3.11262e-05
2.54839e-05
2.31475e-05
2.38421e-05
2.64709e-05
3.00681e-05
0.000100919
9.7167e-05
9.34865e-05
8.98773e-05
8.63288e-05
8.28146e-05
7.92849e-05
7.56524e-05
7.17732e-05
6.74191e-05
6.22461e-05
5.57805e-05
4.74808e-05
3.76502e-05
2.88375e-05
2.27356e-05
1.95139e-05
1.94288e-05
2.15065e-05
2.45954e-05
7.75153e-05
7.45154e-05
7.16192e-05
6.88342e-05
6.61624e-05
6.35977e-05
6.11214e-05
5.86943e-05
5.62421e-05
5.36312e-05
5.06293e-05
4.68543e-05
4.17348e-05
3.4593e-05
2.66736e-05
2.03627e-05
1.6454e-05
1.55832e-05
1.70801e-05
1.96333e-05
5.50988e-05
5.28351e-05
5.06888e-05
4.8669e-05
4.67814e-05
4.50282e-05
4.34063e-05
4.19047e-05
4.04966e-05
3.91255e-05
3.76782e-05
3.59397e-05
3.35283e-05
2.98488e-05
2.42419e-05
1.80013e-05
1.38383e-05
1.22773e-05
1.31928e-05
1.52401e-05
3.44716e-05
3.29378e-05
3.15191e-05
3.02208e-05
2.90468e-05
2.79998e-05
2.70815e-05
2.62921e-05
2.56281e-05
2.50755e-05
2.4596e-05
2.41058e-05
2.34265e-05
2.22003e-05
1.9808e-05
1.57489e-05
1.14167e-05
9.4216e-06
9.77985e-06
1.08812e-05
1.68885e-05
1.60584e-05
1.53182e-05
1.46677e-05
1.41069e-05
1.36368e-05
1.32594e-05
1.29776e-05
1.2796e-05
1.27162e-05
1.27206e-05
1.27846e-05
1.28408e-05
1.2732e-05
1.22808e-05
1.10387e-05
8.67833e-06
6.7772e-06
6.81131e-06
6.99249e-06
4.63015e-06
4.37431e-06
4.15505e-06
3.97019e-06
3.81872e-06
3.70079e-06
3.61781e-06
3.57281e-06
3.57081e-06
3.61448e-06
3.65107e-06
3.67175e-06
3.6989e-06
3.77516e-06
3.89244e-06
4.03904e-06
4.20997e-06
4.29631e-06
4.31163e-06
4.39011e-06
1.43126e-07
1.28811e-07
1.16568e-07
1.06199e-07
9.7513e-08
9.03454e-08
8.4569e-08
8.00973e-08
7.68918e-08
7.50528e-08
7.79801e-08
8.45326e-08
9.39073e-08
1.07208e-07
1.25823e-07
1.52113e-07
1.97729e-07
3.03139e-07
8.40574e-07
2.49998e-06
0.00262271
0.00259323
0.00256277
0.00253116
0.00249827
0.00246393
0.002428
0.00239035
0.00235084
0.00230936
0.0022658
0.00222008
0.00217214
0.00212195
0.0020695
0.00201479
0.00195788
0.00189884
0.00183778
0.00177482
0.00171015
0.00164394
0.00157641
0.00150781
0.0014384
0.00136845
0.00129825
0.00122809
0.00115829
0.00108914
0.00102093
0.000953952
0.000888482
0.000824775
0.000763063
0.000703556
0.000646431
0.000591836
0.000539881
0.000490638
0.000444132
0.000400347
0.000359212
0.000320602
0.000284335
0.000250167
0.00021779
0.000186838
0.000156899
0.000127553
9.84539e-05
6.95588e-05
4.17399e-05
1.83754e-05
5.33287e-06
0.0026208
0.00259094
0.00256006
0.00252801
0.00249464
0.00245981
0.00242336
0.00238517
0.00234511
0.00230307
0.00225895
0.00221269
0.00216422
0.00211352
0.00206059
0.00200545
0.00194816
0.00188879
0.00182746
0.00176432
0.00169953
0.00163328
0.0015658
0.00149732
0.00142811
0.00135844
0.0012886
0.00121887
0.00114956
0.00108094
0.00101332
0.000946973
0.000882152
0.000819106
0.000758058
0.000699204
0.000642711
0.000588713
0.00053731
0.00048856
0.000442481
0.000399045
0.000358171
0.000319729
0.000283531
0.000249329
0.000216817
0.000185639
0.000155404
0.000125736
9.63984e-05
6.75763e-05
4.05451e-05
1.8775e-05
7.00415e-06
0.00261876
0.00258851
0.0025572
0.0025247
0.00249085
0.00245551
0.00241853
0.0023798
0.00233918
0.00229657
0.0022519
0.00220509
0.0021561
0.0021049
0.0020515
0.00199594
0.00193828
0.0018786
0.00181703
0.00175372
0.00168883
0.00162256
0.00155514
0.00148681
0.00141782
0.00134845
0.00127898
0.00120969
0.00114087
0.00107281
0.00100578
0.00094005
0.000875875
0.000813486
0.000753094
0.000694883
0.000639008
0.000585593
0.000534725
0.000486452
0.000440781
0.000397675
0.000357046
0.000318756
0.000282615
0.000248375
0.000215739
0.000184366
0.000153905
0.000124057
9.47297e-05
6.6348e-05
4.04172e-05
2.05972e-05
9.66611e-06
0.00261661
0.00258595
0.00255421
0.00252124
0.00248689
0.00245103
0.00241352
0.00237423
0.00233305
0.00228988
0.00224465
0.0021973
0.00214778
0.00209609
0.00204224
0.00198628
0.00192826
0.00186829
0.0018065
0.00174303
0.00167806
0.00161179
0.00154445
0.00147628
0.00140753
0.00133848
0.00126939
0.00120055
0.00113223
0.00106472
0.00099829
0.000933186
0.000869654
0.000807916
0.000748171
0.000690592
0.000635323
0.000582475
0.000532126
0.000484312
0.000439032
0.000396239
0.00035584
0.000317692
0.000281603
0.000247331
0.000214592
0.000183076
0.000152483
0.000122611
9.35128e-05