/*--------------------------------*- C++ -*----------------------------------*\
  =========                 |
  \\      /  F ield         | OpenFOAM: The Open Source CFD Toolbox
   \\    /   O peration     | Website:  https://openfoam.org
    \\  /    A nd           | Version:  10
     \\/     M anipulation  |
\*---------------------------------------------------------------------------*/
FoamFile
{
    format      ascii;
    class       volScalarField;
    location    "58000";
    object      k;
}
// * * * * * * * * * * * * * * * * * * * * * * * * * * * * * * * * * * * * * //

dimensions      [0 2 -2 0 0 0 0];

internalField   nonuniform List<scalar> 
17922
(
0.0784675
0.0786421
0.0788238
0.0790127
0.079209
0.0794132
0.0796253
0.0798457
0.0800747
0.0803126
0.0805596
0.080816
0.0810824
0.0813589
0.0816459
0.081944
0.0822533
0.0825745
0.082908
0.0832541
0.0836135
0.0839867
0.0843742
0.0847766
0.0851945
0.0856286
0.0860796
0.0865482
0.0870309
0.0875196
0.0880099
0.0885015
0.0889945
0.0894889
0.0899845
0.0904816
0.0909803
0.0914806
0.0919828
0.0924872
0.0929941
0.0935037
0.0940165
0.0945329
0.0950532
0.0955778
0.0961071
0.0966414
0.097181
0.0977262
0.0982772
0.0988342
0.0993972
0.0999663
0.100541
0.101123
0.101709
0.102302
0.1029
0.103503
0.104111
0.104722
0.105337
0.105956
0.106576
0.107197
0.107819
0.108441
0.109061
0.109678
0.110291
0.110899
0.111501
0.112096
0.112683
0.113261
0.113828
0.114386
0.114932
0.115466
0.115989
0.116499
0.116998
0.117486
0.117961
0.118426
0.118881
0.119325
0.119761
0.120188
0.120608
0.121021
0.121428
0.0784685
0.0786431
0.0788247
0.0790136
0.07921
0.0794141
0.0796263
0.0798467
0.0800757
0.0803135
0.0805605
0.080817
0.0810833
0.0813598
0.0816469
0.0819449
0.0822543
0.0825755
0.0829089
0.083255
0.0836144
0.0839876
0.084375
0.0847774
0.0851953
0.0856294
0.0860804
0.0865489
0.0870316
0.0875203
0.0880105
0.0885022
0.0889952
0.0894895
0.0899851
0.0904822
0.0909808
0.0914812
0.0919834
0.0924879
0.0929948
0.0935046
0.0940175
0.094534
0.0950544
0.0955792
0.0961086
0.0966431
0.0971829
0.0977283
0.0982795
0.0988367
0.0993998
0.0999691
0.100544
0.101126
0.101713
0.102305
0.102903
0.103506
0.104114
0.104726
0.105341
0.105959
0.106578
0.1072
0.107821
0.108442
0.109061
0.109677
0.110289
0.110896
0.111497
0.11209
0.112675
0.113251
0.113817
0.114372
0.114916
0.115449
0.11597
0.116478
0.116975
0.117461
0.117935
0.118397
0.11885
0.119292
0.119726
0.120151
0.120569
0.120979
0.121384
0.0784694
0.078644
0.0788256
0.0790145
0.0792109
0.0794151
0.0796272
0.0798476
0.0800766
0.0803145
0.0805615
0.080818
0.0810843
0.0813608
0.0816478
0.0819458
0.0822552
0.0825764
0.0829098
0.0832559
0.0836153
0.0839885
0.0843759
0.0847783
0.0851961
0.0856302
0.0860811
0.0865497
0.0870324
0.087521
0.0880112
0.0885028
0.0889958
0.0894901
0.0899858
0.0904828
0.0909815
0.0914818
0.0919841
0.0924886
0.0929957
0.0935055
0.0940185
0.0945352
0.0950557
0.0955807
0.0961103
0.0966449
0.0971849
0.0977305
0.0982819
0.0988392
0.0994026
0.099972
0.100548
0.101129
0.101716
0.102309
0.102907
0.10351
0.104118
0.104729
0.105344
0.105962
0.106581
0.107202
0.107823
0.108443
0.109061
0.109676
0.110287
0.110892
0.111492
0.112083
0.112667
0.113241
0.113805
0.114359
0.114901
0.115431
0.11595
0.116457
0.116952
0.117435
0.117907
0.118368
0.118819
0.119259
0.119691
0.120114
0.120529
0.120937
0.12134
0.0784703
0.0786449
0.0788265
0.0790154
0.0792118
0.079416
0.0796282
0.0798486
0.0800776
0.0803154
0.0805624
0.0808189
0.0810852
0.0813617
0.0816488
0.0819468
0.0822562
0.0825773
0.0829107
0.0832569
0.0836162
0.0839894
0.0843768
0.0847791
0.085197
0.085631
0.0860819
0.0865505
0.0870331
0.0875218
0.0880119
0.0885035
0.0889965
0.0894908
0.0899864
0.0904835
0.0909821
0.0914825
0.0919849
0.0924894
0.0929965
0.0935064
0.0940196
0.0945364
0.0950571
0.0955822
0.096112
0.0966468
0.097187
0.0977328
0.0982844
0.0988419
0.0994055
0.0999751
0.100551
0.101132
0.10172
0.102313
0.102911
0.103514
0.104121
0.104733
0.105347
0.105965
0.106584
0.107204
0.107824
0.108443
0.10906
0.109674
0.110284
0.110888
0.111486
0.112076
0.112658
0.113231
0.113793
0.114345
0.114885
0.115413
0.11593
0.116435
0.116928
0.117409
0.117879
0.118338
0.118787
0.119225
0.119654
0.120075
0.120488
0.120894
0.121294
0.0784712
0.0786458
0.0788275
0.0790164
0.0792128
0.079417
0.0796291
0.0798496
0.0800785
0.0803164
0.0805634
0.0808199
0.0810862
0.0813627
0.0816498
0.0819478
0.0822571
0.0825783
0.0829117
0.0832578
0.0836172
0.0839903
0.0843777
0.08478
0.0851978
0.0856319
0.0860828
0.0865513
0.0870339
0.0875225
0.0880127
0.0885042
0.0889971
0.0894914
0.089987
0.0904841
0.0909828
0.0914832
0.0919856
0.0924902
0.0929974
0.0935074
0.0940207
0.0945376
0.0950585
0.0955837
0.0961137
0.0966488
0.0971891
0.0977351
0.0982869
0.0988446
0.0994084
0.0999782
0.100554
0.101136
0.101723
0.102316
0.102914
0.103517
0.104125
0.104736
0.105351
0.105968
0.106586
0.107206
0.107825
0.108444
0.10906
0.109673
0.110281
0.110884
0.111481
0.112069
0.112649
0.11322
0.11378
0.11433
0.114868
0.115395
0.11591
0.116413
0.116904
0.117383
0.117851
0.118308
0.118754
0.11919
0.119618
0.120036
0.120447
0.12085
0.121247
0.0784722
0.0786468
0.0788284
0.0790173
0.0792138
0.0794179
0.0796301
0.0798505
0.0800795
0.0803174
0.0805644
0.0808209
0.0810872
0.0813637
0.0816508
0.0819488
0.0822581
0.0825793
0.0829127
0.0832588
0.0836181
0.0839912
0.0843786
0.0847809
0.0851987
0.0856327
0.0860836
0.0865521
0.0870347
0.0875233
0.0880134
0.0885049
0.0889978
0.0894921
0.0899877
0.0904848
0.0909835
0.0914839
0.0919864
0.0924911
0.0929983
0.0935085
0.0940219
0.0945389
0.0950599
0.0955854
0.0961155
0.0966508
0.0971914
0.0977375
0.0982895
0.0988475
0.0994114
0.0999814
0.100557
0.101139
0.101727
0.10232
0.102918
0.103521
0.104129
0.10474
0.105354
0.105971
0.106589
0.107208
0.107827
0.108444
0.109059
0.109671
0.110278
0.11088
0.111475
0.112062
0.11264
0.113209
0.113767
0.114315
0.114851
0.115376
0.115889
0.11639
0.116879
0.117356
0.117822
0.118276
0.118721
0.119155
0.11958
0.119996
0.120404
0.120804
0.121198
0.0784731
0.0786477
0.0788294
0.0790183
0.0792147
0.0794189
0.0796311
0.0798515
0.0800805
0.0803184
0.0805654
0.0808219
0.0810882
0.0813647
0.0816518
0.0819498
0.0822591
0.0825803
0.0829136
0.0832597
0.0836191
0.0839921
0.0843795
0.0847818
0.0851996
0.0856336
0.0860844
0.0865529
0.0870355
0.087524
0.0880141
0.0885057
0.0889985
0.0894928
0.0899884
0.0904855
0.0909842
0.0914847
0.0919871
0.0924919
0.0929992
0.0935095
0.094023
0.0945402
0.0950614
0.095587
0.0961174
0.0966528
0.0971936
0.09774
0.0982922
0.0988503
0.0994145
0.0999847
0.100561
0.101143
0.101731
0.102324
0.102922
0.103525
0.104132
0.104743
0.105357
0.105974
0.106591
0.10721
0.107828
0.108445
0.109059
0.109669
0.110275
0.110875
0.111468
0.112054
0.11263
0.113197
0.113754
0.1143
0.114834
0.115357
0.115868
0.116366
0.116853
0.117328
0.117792
0.118245
0.118687
0.119119
0.119541
0.119955
0.12036
0.120758
0.121148
0.0784741
0.0786487
0.0788304
0.0790193
0.0792157
0.0794199
0.0796321
0.0798525
0.0800815
0.0803194
0.0805664
0.0808229
0.0810892
0.0813657
0.0816528
0.0819508
0.0822601
0.0825813
0.0829146
0.0832607
0.08362
0.0839931
0.0843805
0.0847827
0.0852005
0.0856345
0.0860853
0.0865537
0.0870363
0.0875248
0.0880149
0.0885064
0.0889993
0.0894935
0.0899891
0.0904862
0.0909849
0.0914854
0.091988
0.0924928
0.0930002
0.0935106
0.0940243
0.0945416
0.095063
0.0955888
0.0961193
0.096655
0.097196
0.0977426
0.098295
0.0988533
0.0994177
0.099988
0.100564
0.101147
0.101734
0.102328
0.102926
0.103529
0.104136
0.104747
0.105361
0.105977
0.106594
0.107212
0.107829
0.108445
0.109058
0.109667
0.110272
0.11087
0.111462
0.112046
0.11262
0.113186
0.11374
0.114284
0.114816
0.115337
0.115846
0.116342
0.116827
0.1173
0.117762
0.118212
0.118652
0.119081
0.119501
0.119912
0.120315
0.120709
0.121097
0.0784751
0.0786497
0.0788314
0.0790203
0.0792167
0.0794209
0.0796331
0.0798536
0.0800826
0.0803204
0.0805675
0.080824
0.0810903
0.0813668
0.0816538
0.0819518
0.0822612
0.0825823
0.0829157
0.0832617
0.083621
0.0839941
0.0843814
0.0847837
0.0852014
0.0856354
0.0860862
0.0865546
0.0870371
0.0875256
0.0880157
0.0885072
0.089
0.0894942
0.0899898
0.0904869
0.0909857
0.0914862
0.0919888
0.0924937
0.0930012
0.0935117
0.0940255
0.094543
0.0950646
0.0955905
0.0961213
0.0966571
0.0971984
0.0977452
0.0982978
0.0988564
0.0994209
0.0999915
0.100568
0.10115
0.101738
0.102332
0.10293
0.103533
0.10414
0.104751
0.105364
0.10598
0.106596
0.107214
0.10783
0.108445
0.109057
0.109665
0.110268
0.110865
0.111455
0.112037
0.11261
0.113173
0.113726
0.114268
0.114798
0.115317
0.115823
0.116318
0.1168
0.117271
0.117731
0.118179
0.118616
0.119043
0.119461
0.119869
0.120268
0.120659
0.121043
0.0784761
0.0786507
0.0788324
0.0790213
0.0792178
0.079422
0.0796341
0.0798546
0.0800836
0.0803215
0.0805685
0.080825
0.0810913
0.0813678
0.0816549
0.0819529
0.0822622
0.0825833
0.0829167
0.0832628
0.083622
0.0839951
0.0843824
0.0847846
0.0852024
0.0856363
0.086087
0.0865554
0.0870379
0.0875264
0.0880165
0.0885079
0.0890007
0.0894949
0.0899905
0.0904877
0.0909864
0.091487
0.0919896
0.0924946
0.0930023
0.0935129
0.0940268
0.0945445
0.0950662
0.0955924
0.0961233
0.0966594
0.0972008
0.0977479
0.0983008
0.0988595
0.0994243
0.099995
0.100572
0.101154
0.101742
0.102336
0.102934
0.103537
0.104144
0.104754
0.105367
0.105983
0.106599
0.107215
0.107831
0.108445
0.109056
0.109662
0.110264
0.11086
0.111448
0.112028
0.112599
0.113161
0.113711
0.114251
0.114779
0.115296
0.1158
0.116293
0.116773
0.117242
0.117699
0.118144
0.118579
0.119004
0.119419
0.119824
0.12022
0.120608
0.120988
0.0784771
0.0786518
0.0788334
0.0790224
0.0792188
0.079423
0.0796352
0.0798557
0.0800847
0.0803226
0.0805696
0.0808261
0.0810924
0.0813689
0.081656
0.0819539
0.0822633
0.0825844
0.0829177
0.0832638
0.0836231
0.0839961
0.0843834
0.0847856
0.0852033
0.0856372
0.0860879
0.0865563
0.0870388
0.0875273
0.0880173
0.0885087
0.0890015
0.0894957
0.0899913
0.0904884
0.0909872
0.0914878
0.0919905
0.0924956
0.0930033
0.093514
0.0940281
0.094546
0.0950679
0.0955943
0.0961254
0.0966617
0.0972034
0.0977507
0.0983038
0.0988628
0.0994277
0.0999987
0.100576
0.101158
0.101746
0.10234
0.102938
0.103541
0.104148
0.104758
0.105371
0.105986
0.106601
0.107217
0.107832
0.108444
0.109054
0.10966
0.11026
0.110854
0.111441
0.112019
0.112588
0.113148
0.113697
0.114234
0.11476
0.115275
0.115777
0.116267
0.116745
0.117211
0.117666
0.118109
0.118542
0.118964
0.119375
0.119777
0.12017
0.120554
0.12093
0.0784782
0.0786528
0.0788345
0.0790234
0.0792199
0.0794241
0.0796363
0.0798567
0.0800858
0.0803236
0.0805707
0.0808272
0.0810935
0.08137
0.081657
0.081955
0.0822643
0.0825855
0.0829188
0.0832648
0.0836241
0.0839971
0.0843844
0.0847866
0.0852043
0.0856381
0.0860889
0.0865572
0.0870397
0.0875281
0.0880181
0.0885095
0.0890023
0.0894964
0.089992
0.0904892
0.090988
0.0914886
0.0919914
0.0924966
0.0930044
0.0935153
0.0940295
0.0945475
0.0950696
0.0955962
0.0961276
0.0966641
0.097206
0.0977536
0.0983069
0.0988661
0.0994313
0.100002
0.100579
0.101162
0.101751
0.102344
0.102942
0.103545
0.104152
0.104762
0.105374
0.105988
0.106603
0.107218
0.107832
0.108444
0.109053
0.109657
0.110256
0.110848
0.111433
0.11201
0.112577
0.113134
0.113681
0.114217
0.114741
0.115253
0.115753
0.116241
0.116717
0.11718
0.117633
0.118073
0.118503
0.118922
0.119331
0.119729
0.120119
0.120499
0.12087
0.0784792
0.0786539
0.0788356
0.0790245
0.079221
0.0794252
0.0796374
0.0798578
0.0800869
0.0803247
0.0805718
0.0808283
0.0810946
0.0813711
0.0816581
0.0819561
0.0822654
0.0825865
0.0829199
0.0832659
0.0836252
0.0839981
0.0843854
0.0847876
0.0852053
0.0856391
0.0860898
0.0865581
0.0870405
0.0875289
0.0880189
0.0885103
0.089003
0.0894972
0.0899928
0.0904899
0.0909888
0.0914895
0.0919923
0.0924976
0.0930055
0.0935165
0.0940309
0.0945491
0.0950714
0.0955982
0.0961298
0.0966666
0.0972087
0.0977565
0.0983101
0.0988695
0.0994349
0.100006
0.100583
0.101166
0.101755
0.102348
0.102947
0.10355
0.104156
0.104766
0.105378
0.105991
0.106606
0.10722
0.107833
0.108443
0.109051
0.109654
0.110251
0.110842
0.111425
0.112
0.112565
0.113121
0.113665
0.114199
0.114721
0.11523
0.115728
0.116214
0.116687
0.117149
0.117598
0.118036
0.118463
0.118879
0.119284
0.119679
0.120065
0.120441
0.120808
0.0784803
0.078655
0.0788367
0.0790256
0.0792221
0.0794263
0.0796385
0.079859
0.080088
0.0803259
0.0805729
0.0808294
0.0810957
0.0813722
0.0816593
0.0819572
0.0822666
0.0825877
0.082921
0.083267
0.0836262
0.0839992
0.0843865
0.0847886
0.0852063
0.0856401
0.0860907
0.086559
0.0870414
0.0875298
0.0880197
0.0885111
0.0890038
0.089498
0.0899936
0.0904907
0.0909896
0.0914904
0.0919933
0.0924986
0.0930067
0.0935178
0.0940324
0.0945507
0.0950733
0.0956003
0.0961321
0.0966691
0.0972115
0.0977596
0.0983134
0.098873
0.0994387
0.10001
0.100588
0.101171
0.101759
0.102353
0.102951
0.103554
0.10416
0.104769
0.105381
0.105994
0.106608
0.107221
0.107833
0.108443
0.109049
0.10965
0.110246
0.110835
0.111417
0.11199
0.112553
0.113106
0.113649
0.11418
0.1147
0.115207
0.115703
0.116186
0.116657
0.117116
0.117563
0.117998
0.118422
0.118834
0.119236
0.119628
0.120009
0.12038
0.120742
0.0784814
0.0786561
0.0788378
0.0790268
0.0792232
0.0794274
0.0796396
0.0798601
0.0800891
0.080327
0.0805741
0.0808306
0.0810969
0.0813734
0.0816604
0.0819584
0.0822677
0.0825888
0.0829221
0.0832681
0.0836273
0.0840003
0.0843875
0.0847896
0.0852073
0.085641
0.0860917
0.0865599
0.0870423
0.0875306
0.0880205
0.0885119
0.0890046
0.0894988
0.0899944
0.0904915
0.0909904
0.0914913
0.0919942
0.0924997
0.0930079
0.0935192
0.0940339
0.0945525
0.0950752
0.0956024
0.0961345
0.0966718
0.0972144
0.0977627
0.0983168
0.0988767
0.0994426
0.100014
0.100592
0.101175
0.101764
0.102357
0.102956
0.103558
0.104164
0.104773
0.105385
0.105997
0.10661
0.107223
0.107834
0.108442
0.109047
0.109647
0.110241
0.110828
0.111408
0.111979
0.112541
0.113092
0.113632
0.114161
0.114679
0.115184
0.115677
0.116158
0.116626
0.117082
0.117526
0.117958
0.118379
0.118788
0.119186
0.119573
0.11995
0.120317
0.120673
0.0784826
0.0786573
0.078839
0.0790279
0.0792244
0.0794286
0.0796408
0.0798613
0.0800903
0.0803282
0.0805752
0.0808317
0.0810981
0.0813746
0.0816616
0.0819595
0.0822689
0.0825899
0.0829232
0.0832692
0.0836284
0.0840014
0.0843886
0.0847907
0.0852083
0.085642
0.0860926
0.0865609
0.0870432
0.0875315
0.0880214
0.0885127
0.0890054
0.0894995
0.0899952
0.0904923
0.0909913
0.0914922
0.0919952
0.0925008
0.0930091
0.0935205
0.0940355
0.0945542
0.0950772
0.0956046
0.096137
0.0966745
0.0972174
0.097766
0.0983203
0.0988805
0.0994466
0.100019
0.100596
0.10118
0.101768
0.102362
0.10296
0.103563
0.104169
0.104777
0.105388
0.106
0.106612
0.107224
0.107834
0.108441
0.109045
0.109643
0.110236
0.110821
0.111399
0.111968
0.112528
0.113077
0.113615
0.114142
0.114657
0.11516
0.11565
0.116128
0.116594
0.117047
0.117488
0.117917
0.118334
0.11874
0.119134
0.119517
0.119889
0.12025
0.120601
0.0778497
0.077999
0.0781543
0.0783158
0.0784837
0.0786584
0.0788401
0.0790291
0.0792256
0.0794298
0.079642
0.0798625
0.0800915
0.0803294
0.0805764
0.0808329
0.0810993
0.0813757
0.0816628
0.0819607
0.08227
0.0825911
0.0829244
0.0832704
0.0836296
0.0840025
0.0843897
0.0847917
0.0852093
0.085643
0.0860936
0.0865618
0.0870441
0.0875324
0.0880222
0.0885135
0.0890062
0.0895004
0.089996
0.0904932
0.0909922
0.0914931
0.0919963
0.0925019
0.0930104
0.093522
0.0940371
0.094556
0.0950792
0.0956069
0.0961395
0.0966773
0.0972205
0.0977693
0.0983239
0.0988844
0.0994507
0.100023
0.100601
0.101184
0.101773
0.102367
0.102965
0.103567
0.104173
0.104781
0.105392
0.106003
0.106614
0.107225
0.107834
0.10844
0.109042
0.109639
0.11023
0.110814
0.11139
0.111957
0.112515
0.113062
0.113597
0.114122
0.114634
0.115135
0.115623
0.116098
0.116561
0.117011
0.117449
0.117874
0.118288
0.118689
0.119079
0.119458
0.119825
0.120181
0.120525
0.0778509
0.0780002
0.0781555
0.078317
0.0784849
0.0786596
0.0788413
0.0790303
0.0792268
0.079431
0.0796432
0.0798637
0.0800927
0.0803306
0.0805776
0.0808341
0.0811005
0.081377
0.081664
0.0819619
0.0822712
0.0825923
0.0829256
0.0832715
0.0836307
0.0840036
0.0843908
0.0847928
0.0852104
0.0856441
0.0860946
0.0865628
0.087045
0.0875333
0.0880231
0.0885144
0.089007
0.0895012
0.0899968
0.090494
0.0909931
0.0914941
0.0919973
0.0925031
0.0930117
0.0935235
0.0940387
0.0945579
0.0950813
0.0956093
0.0961422
0.0966803
0.0972237
0.0977729
0.0983277
0.0988884
0.099455
0.100027
0.100606
0.101189
0.101778
0.102372
0.10297
0.103572
0.104177
0.104785
0.105395
0.106006
0.106617
0.107226
0.107834
0.108439
0.10904
0.109635
0.110224
0.110807
0.111381
0.111946
0.112501
0.113046
0.113579
0.114101
0.114611
0.115109
0.115594
0.116067
0.116526
0.116974
0.117408
0.11783
0.118239
0.118637
0.119022
0.119396
0.119757
0.120107
0.120445
0.0778521
0.0780014
0.0781566
0.0783181
0.0784861
0.0786608
0.0788426
0.0790315
0.079228
0.0794322
0.0796444
0.0798649
0.080094
0.0803318
0.0805789
0.0808354
0.0811017
0.0813782
0.0816652
0.0819632
0.0822724
0.0825935
0.0829268
0.0832727
0.0836319
0.0840047
0.0843919
0.0847939
0.0852114
0.0856451
0.0860956
0.0865637
0.087046
0.0875342
0.088024
0.0885152
0.0890079
0.089502
0.0899976
0.0904949
0.090994
0.0914951
0.0919984
0.0925043
0.093013
0.093525
0.0940405
0.0945599
0.0950836
0.0956118
0.096145
0.0966833
0.0972271
0.0977765
0.0983316
0.0988926
0.0994595
0.100032
0.10061
0.101194
0.101783
0.102377
0.102975
0.103577
0.104182
0.10479
0.105399
0.106009
0.106619
0.107228
0.107834
0.108438
0.109037
0.109631
0.110218
0.110799
0.111371
0.111934
0.112487
0.113029
0.113561
0.11408
0.114588
0.115082
0.115565
0.116034
0.116491
0.116935
0.117365
0.117783
0.118189
0.118582
0.118962
0.11933
0.119686
0.12003
0.120361
0.0774397
0.0775721
0.0777099
0.0778533
0.0780026
0.0781578
0.0783194
0.0784873
0.0786621
0.0788438
0.0790328
0.0792293
0.0794335
0.0796457
0.0798662
0.0800952
0.0803331
0.0805801
0.0808366
0.081103
0.0813795
0.0816665
0.0819644
0.0822737
0.0825947
0.082928
0.0832739
0.0836331
0.0840059
0.084393
0.084795
0.0852125
0.0856462
0.0860966
0.0865647
0.0870469
0.0875351
0.0880249
0.0885161
0.0890087
0.0895028
0.0899985
0.0904958
0.0909949
0.0914961
0.0919995
0.0925055
0.0930145
0.0935266
0.0940423
0.094562
0.0950859
0.0956144
0.0961479
0.0966865
0.0972306
0.0977803
0.0983357
0.098897
0.0994641
0.100037
0.100616
0.101199
0.101788
0.102382
0.10298
0.103582
0.104187
0.104794
0.105403
0.106012
0.106621
0.107229
0.107834
0.108436
0.109034
0.109626
0.110212
0.110791
0.111361
0.111922
0.112472
0.113012
0.113541
0.114058
0.114563
0.115055
0.115534
0.116001
0.116454
0.116894
0.117321
0.117735
0.118136
0.118524
0.118899
0.119261
0.119611
0.119948
0.120272
0.077441
0.0775733
0.0777111
0.0778545
0.0780038
0.0781591
0.0783206
0.0784886
0.0786633
0.0788451
0.0790341
0.0792305
0.0794348
0.079647
0.0798675
0.0800965
0.0803344
0.0805814
0.0808379
0.0811043
0.0813807
0.0816677
0.0819657
0.082275
0.082596
0.0829292
0.0832751
0.0836343
0.0840071
0.0843942
0.0847962
0.0852136
0.0856472
0.0860977
0.0865657
0.0870479
0.087536
0.0880258
0.088517
0.0890096
0.0895037
0.0899994
0.0904967
0.0909959
0.0914971
0.0920007
0.0925069
0.0930159
0.0935283
0.0940442
0.0945641
0.0950883
0.0956171
0.0961509
0.0966898
0.0972342
0.0977843
0.09834
0.0989016
0.099469
0.100042
0.100621
0.101205
0.101794
0.102388
0.102986
0.103587
0.104192
0.104798
0.105406
0.106015
0.106623
0.10723
0.107834
0.108435
0.109031
0.109622
0.110206
0.110782
0.11135
0.111909
0.112457
0.112995
0.113521
0.114035
0.114537
0.115026
0.115502
0.115965
0.116415
0.116851
0.117274
0.117684
0.11808
0.118463
0.118832
0.119188
0.119531
0.119861
0.120178
0.0774423
0.0775746
0.0777124
0.0778558
0.078005
0.0781603
0.0783218
0.0784899
0.0786646
0.0788464
0.0790354
0.0792318
0.0794361
0.0796483
0.0798688
0.0800978
0.0803357
0.0805827
0.0808393
0.0811056
0.081382
0.0816691
0.081967
0.0822762
0.0825973
0.0829305
0.0832764
0.0836355
0.0840083
0.0843954
0.0847973
0.0852147
0.0856483
0.0860987
0.0865667
0.0870489
0.087537
0.0880267
0.0885178
0.0890105
0.0895046
0.0900003
0.0904977
0.0909969
0.0914982
0.0920019
0.0925082
0.0930175
0.09353
0.0940462
0.0945664
0.0950908
0.09562
0.096154
0.0966933
0.0972381
0.0977884
0.0983445
0.0989063
0.099474
0.100047
0.100626
0.10121
0.1018
0.102393
0.102991
0.103592
0.104197
0.104803
0.10541
0.106018
0.106625
0.107231
0.107834
0.108433
0.109028
0.109617
0.110199
0.110774
0.111339
0.111896
0.112442
0.112977
0.1135
0.114012
0.114511
0.114997
0.115469
0.115929
0.116375
0.116807
0.117225
0.11763
0.118021
0.118398
0.118762
0.119112
0.119448
0.11977
0.120078
0.0774436
0.0775759
0.0777136
0.077857
0.0780063
0.0781616
0.0783231
0.0784912
0.0786659
0.0788477
0.0790367
0.0792332
0.0794374
0.0796496
0.0798701
0.0800992
0.080337
0.0805841
0.0808406
0.0811069
0.0813834
0.0816704
0.0819683
0.0822775
0.0825986
0.0829318
0.0832777
0.0836367
0.0840095
0.0843966
0.0847985
0.0852159
0.0856494
0.0860998
0.0865677
0.0870499
0.0875379
0.0880276
0.0885188
0.0890114
0.0895055
0.0900012
0.0904986
0.090998
0.0914994
0.0920032
0.0925097
0.0930191
0.0935319
0.0940483
0.0945687
0.0950935
0.0956229
0.0961573
0.096697
0.0972421
0.0977927
0.0983492
0.0989113
0.0994793
0.100053
0.100632
0.101216
0.101806
0.102399
0.102997
0.103598
0.104202
0.104807
0.105414
0.106021
0.106628
0.107232
0.107834
0.108432
0.109025
0.109612
0.110192
0.110765
0.111328
0.111882
0.112426
0.112958
0.113479
0.113987
0.114483
0.114966
0.115435
0.11589
0.116332
0.11676
0.117174
0.117573
0.117959
0.11833
0.118687
0.11903
0.119359
0.119673
0.119972
0.0774449
0.0775772
0.0777149
0.0778583
0.0780076
0.0781629
0.0783244
0.0784925
0.0786673
0.078849
0.079038
0.0792345
0.0794388
0.079651
0.0798715
0.0801005
0.0803384
0.0805854
0.080842
0.0811083
0.0813847
0.0816717
0.0819696
0.0822789
0.0825999
0.0829331
0.0832789
0.083638
0.0840108
0.0843978
0.0847997
0.085217
0.0856505
0.0861009
0.0865688
0.0870509
0.0875389
0.0880285
0.0885197
0.0890123
0.0895064
0.0900022
0.0904997
0.0909991
0.0915006
0.0920045
0.0925112
0.0930208
0.0935338
0.0940505
0.0945712
0.0950963
0.0956261
0.0961608
0.0967008
0.0972463
0.0977973
0.0983541
0.0989166
0.0994848
0.100059
0.100638
0.101222
0.101812
0.102405
0.103003
0.103604
0.104207
0.104812
0.105418
0.106025
0.10663
0.107233
0.107834
0.10843
0.109022
0.109607
0.110185
0.110755
0.111317
0.111868
0.112409
0.112939
0.113456
0.113962
0.114454
0.114933
0.115399
0.11585
0.116287
0.11671
0.117119
0.117513
0.117893
0.118258
0.118608
0.118944
0.119265
0.11957
0.11986
0.0774462
0.0775785
0.0777162
0.0778596
0.0780089
0.0781642
0.0783257
0.0784938
0.0786686
0.0788504
0.0790394
0.0792359
0.0794401
0.0796524
0.0798729
0.0801019
0.0803398
0.0805868
0.0808433
0.0811097
0.0813861
0.0816731
0.081971
0.0822802
0.0826012
0.0829344
0.0832803
0.0836393
0.084012
0.084399
0.0848009
0.0852182
0.0856517
0.086102
0.0865699
0.0870519
0.0875399
0.0880295
0.0885206
0.0890133
0.0895074
0.0900032
0.0905007
0.0910002
0.0915019
0.0920059
0.0925128
0.0930226
0.0935359
0.0940528
0.0945739
0.0950993
0.0956294
0.0961645
0.0967049
0.0972507
0.0978021
0.0983592
0.0989221
0.0994906
0.100065
0.100644
0.101229
0.101818
0.102412
0.103009
0.10361
0.104213
0.104817
0.105423
0.106028
0.106632
0.107235
0.107834
0.108429
0.109018
0.109602
0.110178
0.110746
0.111305
0.111854
0.112392
0.112919
0.113433
0.113935
0.114424
0.114899
0.11536
0.115808
0.11624
0.116658
0.117062
0.11745
0.117824
0.118182
0.118525
0.118853
0.119165
0.119461
0.119742
0.0774475
0.0775798
0.0777175
0.0778609
0.0780102
0.0781655
0.0783271
0.0784952
0.07867
0.0788518
0.0790408
0.0792373
0.0794415
0.0796538
0.0798743
0.0801033
0.0803412
0.0805883
0.0808448
0.0811111
0.0813875
0.0816745
0.0819724
0.0822816
0.0826026
0.0829358
0.0832816
0.0836406
0.0840133
0.0844003
0.0848021
0.0852194
0.0856528
0.0861031
0.0865709
0.0870529
0.0875409
0.0880305
0.0885216
0.0890142
0.0895084
0.0900042
0.0905018
0.0910014
0.0915032
0.0920074
0.0925145
0.0930246
0.0935381
0.0940553
0.0945767
0.0951024
0.0956329
0.0961684
0.0967092
0.0972554
0.0978072
0.0983647
0.0989279
0.0994967
0.100071
0.100651
0.101236
0.101825
0.102419
0.103016
0.103616
0.104219
0.104823
0.105427
0.106032
0.106635
0.107236
0.107834
0.108427
0.109015
0.109596
0.11017
0.110736
0.111292
0.111839
0.112374
0.112897
0.113409
0.113907
0.114392
0.114863
0.11532
0.115763
0.116191
0.116603
0.117001
0.117383
0.11775
0.118101
0.118436
0.118756
0.119059
0.119346
0.119616
0.0774489
0.0775811
0.0777188
0.0778622
0.0780115
0.0781668
0.0783284
0.0784965
0.0786714
0.0788532
0.0790422
0.0792387
0.079443
0.0796552
0.0798757
0.0801048
0.0803427
0.0805897
0.0808462
0.0811125
0.081389
0.0816759
0.0819738
0.082283
0.082604
0.0829371
0.083283
0.0836419
0.0840146
0.0844016
0.0848034
0.0852206
0.085654
0.0861042
0.086572
0.087054
0.087542
0.0880315
0.0885226
0.0890153
0.0895095
0.0900053
0.090503
0.0910027
0.0915046
0.092009
0.0925163
0.0930266
0.0935404
0.094058
0.0945796
0.0951058
0.0956367
0.0961726
0.0967137
0.0972603
0.0978126
0.0983704
0.098934
0.0995032
0.100078
0.100658
0.101243
0.101832
0.102426
0.103023
0.103623
0.104225
0.104828
0.105432
0.106036
0.106638
0.107237
0.107833
0.108425
0.109011
0.109591
0.110162
0.110726
0.111279
0.111823
0.112355
0.112875
0.113383
0.113878
0.114359
0.114826
0.115278
0.115716
0.116138
0.116545
0.116937
0.117312
0.117672
0.118015
0.118342
0.118653
0.118947
0.119224
0.119484
0.0774502
0.0775824
0.0777202
0.0778636
0.0780128
0.0781682
0.0783298
0.0784979
0.0786728
0.0788546
0.0790437
0.0792402
0.0794444
0.0796567
0.0798772
0.0801062
0.0803441
0.0805912
0.0808477
0.081114
0.0813904
0.0816774
0.0819753
0.0822845
0.0826054
0.0829385
0.0832843
0.0836433
0.084016
0.0844029
0.0848046
0.0852219
0.0856552
0.0861054
0.0865732
0.0870551
0.087543
0.0880326
0.0885237
0.0890163
0.0895106
0.0900065
0.0905042
0.0910041
0.0915061
0.0920107
0.0925182
0.0930288
0.0935429
0.0940608
0.0945828
0.0951093
0.0956406
0.096177
0.0967186
0.0972656
0.0978182
0.0983765
0.0989405
0.09951
0.100085
0.100665
0.10125
0.10184
0.102433
0.10303
0.10363
0.104231
0.104834
0.105437
0.10604
0.106641
0.107239
0.107833
0.108423
0.109007
0.109585
0.110154
0.110715
0.111266
0.111806
0.112335
0.112852
0.113356
0.113847
0.114324
0.114786
0.115233
0.115666
0.116083
0.116483
0.116868
0.117237
0.117589
0.117924
0.118243
0.118544
0.118828
0.119095
0.119343
0.0774515
0.0775838
0.0777215
0.0778649
0.0780142
0.0781696
0.0783312
0.0784993
0.0786742
0.0788561
0.0790451
0.0792416
0.0794459
0.0796582
0.0798787
0.0801077
0.0803456
0.0805927
0.0808492
0.0811155
0.0813919
0.0816789
0.0819768
0.0822859
0.0826069
0.08294
0.0832858
0.0836447
0.0840173
0.0844042
0.0848059
0.0852231
0.0856564
0.0861066
0.0865743
0.0870562
0.0875441
0.0880337
0.0885248
0.0890174
0.0895117
0.0900077
0.0905056
0.0910055
0.0915078
0.0920126
0.0925203
0.0930311
0.0935455
0.0940638
0.0945862
0.0951132
0.0956449
0.0961817
0.0967237
0.0972712
0.0978243
0.098383
0.0989473
0.0995172
0.100092
0.100673
0.101258
0.101847
0.102441
0.103038
0.103637
0.104238
0.10484
0.105443
0.106044
0.106644
0.107241
0.107834
0.108422
0.109004
0.109579
0.110146
0.110704
0.111252
0.111789
0.112315
0.112828
0.113328
0.113814
0.114287
0.114744
0.115186
0.115613
0.116024
0.116418
0.116796
0.117157
0.117501
0.117828
0.118137
0.118429
0.118702
0.118958
0.119195
0.0774529
0.0775851
0.0777228
0.0778663
0.0780156
0.0781709
0.0783326
0.0785008
0.0786757
0.0788575
0.0790466
0.0792431
0.0794474
0.0796597
0.0798802
0.0801093
0.0803472
0.0805942
0.0808507
0.081117
0.0813934
0.0816804
0.0819783
0.0822874
0.0826083
0.0829414
0.0832872
0.0836461
0.0840187
0.0844056
0.0848073
0.0852244
0.0856577
0.0861078
0.0865755
0.0870574
0.0875453
0.0880348
0.0885259
0.0890186
0.0895129
0.090009
0.090507
0.0910071
0.0915095
0.0920145
0.0925225
0.0930337
0.0935484
0.094067
0.0945899
0.0951172
0.0956494
0.0961867
0.0967292
0.0972772
0.0978307
0.0983899
0.0989546
0.0995248
0.1001
0.100681
0.101266
0.101856
0.102449
0.103046
0.103645
0.104245
0.104847
0.105448
0.106049
0.106647
0.107242
0.107834
0.10842
0.109
0.109572
0.110137
0.110692
0.111237
0.111771
0.112293
0.112802
0.113298
0.11378
0.114247
0.1147
0.115136
0.115557
0.115961
0.116349
0.116719
0.117072
0.117408
0.117726
0.118025
0.118307
0.118569
0.118813
0.119038
0.0774542
0.0775864
0.0777242
0.0778676
0.0780169
0.0781723
0.078334
0.0785022
0.0786771
0.078859
0.0790481
0.0792447
0.0794489
0.0796612
0.0798817
0.0801108
0.0803487
0.0805957
0.0808522
0.0811185
0.081395
0.0816819
0.0819798
0.082289
0.0826098
0.0829429
0.0832887
0.0836476
0.0840201
0.084407
0.0848086
0.0852257
0.085659
0.0861091
0.0865767
0.0870586
0.0875465
0.088036
0.0885271
0.0890198
0.0895142
0.0900104
0.0905085
0.0910088
0.0915114
0.0920167
0.0925249
0.0930364
0.0935515
0.0940705
0.0945938
0.0951216
0.0956543
0.096192
0.096735
0.0972835
0.0978375
0.0983972
0.0989623
0.0995329
0.100109
0.10069
0.101275
0.101865
0.102458
0.103054
0.103653
0.104253
0.104854
0.105454
0.106053
0.106651
0.107244
0.107834
0.108418
0.108996
0.109566
0.110128
0.11068
0.111221
0.111752
0.11227
0.112775
0.113266
0.113744
0.114206
0.114652
0.115083
0.115497
0.115895
0.116275
0.116637
0.116982
0.117309
0.117617
0.117907
0.118177
0.118429
0.118661
0.118873
0.0774555
0.0775878
0.0777255
0.077869
0.0780183
0.0781737
0.0783354
0.0785037
0.0786786
0.0788605
0.0790496
0.0792462
0.0794505
0.0796628
0.0798833
0.0801124
0.0803503
0.0805973
0.0808538
0.0811201
0.0813966
0.0816835
0.0819814
0.0822905
0.0826114
0.0829445
0.0832902
0.083649
0.0840216
0.0844084
0.08481
0.0852271
0.0856603
0.0861104
0.086578
0.0870598
0.0875477
0.0880372
0.0885284
0.0890212
0.0895156
0.0900119
0.0905101
0.0910106
0.0915134
0.092019
0.0925275
0.0930394
0.0935548
0.0940743
0.094598
0.0951263
0.0956595
0.0961978
0.0967413
0.0972903
0.0978449
0.0984049
0.0989705
0.0995415
0.100118
0.100699
0.101284
0.101874
0.102467
0.103063
0.103661
0.104261
0.104861
0.10546
0.106059
0.106654
0.107247
0.107834
0.108416
0.108992
0.109559
0.110118
0.110667
0.111205
0.111732
0.112246
0.112746
0.113233
0.113705
0.114162
0.114602
0.115027
0.115434
0.115824
0.116197
0.116551
0.116887
0.117204
0.117502
0.117781
0.118041
0.118281
0.1185
0.1187
0.0774569
0.0775891
0.0777269
0.0778704
0.0780197
0.0781752
0.0783369
0.0785051
0.0786801
0.078862
0.0790511
0.0792477
0.079452
0.0796643