/*--------------------------------*- C++ -*----------------------------------*\
  =========                 |
  \\      /  F ield         | OpenFOAM: The Open Source CFD Toolbox
   \\    /   O peration     | Website:  https://openfoam.org
    \\  /    A nd           | Version:  10
     \\/     M anipulation  |
\*---------------------------------------------------------------------------*/
FoamFile
{
    format      ascii;
    class       surfaceScalarField;
    location    "58000";
    object      phi;
}
// * * * * * * * * * * * * * * * * * * * * * * * * * * * * * * * * * * * * * //

dimensions      [0 3 -1 0 0 0 0];

internalField   nonuniform List<scalar> 
35539
(
7.63667e-09
4.29949e-05
-4.29948e-05
7.59095e-09
4.34818e-05
-4.34818e-05
7.54746e-09
4.39699e-05
-4.39698e-05
7.51368e-09
4.44588e-05
-4.44588e-05
7.48821e-09
4.49484e-05
-4.49484e-05
7.46453e-09
4.54384e-05
-4.54384e-05
7.45023e-09
4.59285e-05
-4.59284e-05
7.44374e-09
4.64183e-05
-4.64183e-05
7.43861e-09
4.69075e-05
-4.69075e-05
7.43756e-09
4.73959e-05
-4.73959e-05
7.4436e-09
4.7883e-05
-4.7883e-05
7.4544e-09
4.83685e-05
-4.83685e-05
7.47043e-09
4.88519e-05
-4.88519e-05
7.48506e-09
4.93328e-05
-4.93328e-05
7.50517e-09
4.98107e-05
-4.98107e-05
7.52619e-09
5.02852e-05
-5.02852e-05
7.55045e-09
5.07558e-05
-5.07558e-05
7.57305e-09
5.12218e-05
-5.12219e-05
7.59586e-09
5.16828e-05
-5.16828e-05
7.61631e-09
5.21381e-05
-5.21381e-05
7.6338e-09
5.2587e-05
-5.2587e-05
7.64912e-09
5.30289e-05
-5.30289e-05
7.65521e-09
5.34629e-05
-5.3463e-05
7.65455e-09
5.38885e-05
-5.38885e-05
7.64357e-09
5.43046e-05
-5.43045e-05
7.62411e-09
5.47104e-05
-5.47103e-05
7.58569e-09
5.51049e-05
-5.51049e-05
7.5294e-09
5.54872e-05
-5.54871e-05
7.45479e-09
5.48938e-05
-5.48937e-05
7.35649e-09
5.33654e-05
-5.33653e-05
7.23889e-09
5.18837e-05
-5.18836e-05
7.09307e-09
5.0447e-05
-5.04469e-05
6.92146e-09
4.90538e-05
-4.90536e-05
6.72131e-09
4.77023e-05
-4.77021e-05
6.49348e-09
4.63913e-05
-4.6391e-05
6.23567e-09
4.51192e-05
-4.51189e-05
5.94967e-09
4.38847e-05
-4.38844e-05
5.6316e-09
4.26866e-05
-4.26863e-05
5.28201e-09
4.15236e-05
-4.15232e-05
4.90345e-09
4.03945e-05
-4.03941e-05
4.49335e-09
3.92982e-05
-3.92978e-05
4.05496e-09
3.82336e-05
-3.82332e-05
3.58616e-09
3.71996e-05
-3.71992e-05
3.09181e-09
3.61953e-05
-3.61948e-05
2.57377e-09
3.52196e-05
-3.52191e-05
2.02876e-09
3.42716e-05
-3.4271e-05
1.45671e-09
3.33504e-05
-3.33498e-05
8.65458e-10
3.24551e-05
-3.24545e-05
2.49861e-10
3.15849e-05
-3.15843e-05
-3.84117e-10
3.0739e-05
-3.07383e-05
-1.042e-09
2.99165e-05
-2.99158e-05
-1.71996e-09
2.91168e-05
-2.91161e-05
-2.42076e-09
2.83391e-05
-2.83384e-05
-3.1467e-09
2.75827e-05
-2.7582e-05
-3.88961e-09
2.6847e-05
-2.68463e-05
-4.65812e-09
2.61314e-05
-2.61306e-05
-5.44726e-09
2.54351e-05
-2.54343e-05
-6.2566e-09
2.47577e-05
-2.47568e-05
-7.09119e-09
2.40985e-05
-2.40976e-05
-7.9476e-09
2.3457e-05
-2.34562e-05
-8.82644e-09
2.28328e-05
-2.28319e-05
-9.72915e-09
2.22252e-05
-2.22243e-05
-1.06527e-08
2.16339e-05
-2.1633e-05
-1.16042e-08
2.10584e-05
-2.10575e-05
-1.25786e-08
2.04982e-05
-2.04973e-05
-1.35839e-08
1.9953e-05
-1.9952e-05
-1.46162e-08
1.94223e-05
-1.94213e-05
-1.56793e-08
1.89057e-05
-1.89047e-05
-1.67806e-08
1.8403e-05
-1.84019e-05
-1.79164e-08
1.79136e-05
-1.79125e-05
-1.90933e-08
1.74375e-05
-1.74363e-05
-2.03068e-08
1.69741e-05
-1.69728e-05
-2.15647e-08
1.65232e-05
-1.65219e-05
-2.28621e-08
1.60845e-05
-1.60832e-05
-2.41986e-08
1.56577e-05
-1.56563e-05
-2.55764e-08
1.52425e-05
-1.52411e-05
-2.69867e-08
1.48387e-05
-1.48373e-05
-2.8428e-08
1.4446e-05
-1.44446e-05
-2.98979e-08
1.40641e-05
-1.40626e-05
-3.13911e-08
1.36928e-05
-1.36913e-05
-3.29015e-08
1.33318e-05
-1.33302e-05
-3.44239e-08
1.29808e-05
-1.29792e-05
-3.59536e-08
1.26396e-05
-1.2638e-05
-3.74798e-08
1.23079e-05
-1.23064e-05
-3.90005e-08
1.19855e-05
-1.1984e-05
-4.05062e-08
1.16722e-05
-1.16707e-05
-4.19875e-08
1.13677e-05
-1.13662e-05
-4.34391e-08
1.10718e-05
-1.10703e-05
-4.48523e-08
1.07841e-05
-1.07827e-05
-4.62172e-08
1.05046e-05
-1.05032e-05
-4.75293e-08
1.02329e-05
-1.02316e-05
-4.8778e-08
9.96889e-06
-9.96764e-06
9.71225e-06
-9.71107e-06
7.76126e-09
4.2995e-05
7.7093e-09
4.34819e-05
7.66414e-09
4.39699e-05
7.62497e-09
4.44589e-05
7.59428e-09
4.49485e-05
7.57045e-09
4.54384e-05
7.55391e-09
4.59285e-05
7.53813e-09
4.64183e-05
7.53292e-09
4.69075e-05
7.53189e-09
4.73959e-05
7.5371e-09
4.7883e-05
7.54438e-09
4.83685e-05
7.55398e-09
4.88518e-05
7.56585e-09
4.93327e-05
7.5846e-09
4.98107e-05
7.60319e-09
5.02852e-05
7.62365e-09
5.07558e-05
7.64555e-09
5.12218e-05
7.66401e-09
5.16828e-05
7.68052e-09
5.21381e-05
7.69616e-09
5.2587e-05
7.70397e-09
5.30289e-05
7.71054e-09
5.34629e-05
7.70821e-09
5.38885e-05
7.69273e-09
5.43046e-05
7.66627e-09
5.47104e-05
7.62419e-09
5.5105e-05
7.56518e-09
5.54873e-05
7.4833e-09
5.48939e-05
7.37808e-09
5.33655e-05
7.25178e-09
5.18838e-05
7.10104e-09
5.04472e-05
6.92452e-09
4.90539e-05
6.7208e-09
4.77025e-05
6.48541e-09
4.63915e-05
6.22149e-09
4.51194e-05
5.92325e-09
4.3885e-05
5.59628e-09
4.26869e-05
5.24067e-09
4.1524e-05
4.85359e-09
4.03949e-05
4.43617e-09
3.92986e-05
3.99149e-09
3.82341e-05
3.51563e-09
3.72001e-05
3.01539e-09
3.61958e-05
2.48716e-09
3.52201e-05
1.93798e-09
3.42721e-05
1.36439e-09
3.3351e-05
7.67743e-10
3.24557e-05
1.5251e-10
3.15855e-05
-4.86687e-10
3.07396e-05
-1.14694e-09
2.99172e-05
-1.82798e-09
2.91175e-05
-2.52896e-09
2.83398e-05
-3.24644e-09
2.75835e-05
-3.98734e-09
2.68478e-05
-4.74811e-09
2.61321e-05
-5.52997e-09
2.54359e-05
-6.33242e-09
2.47585e-05
-7.15608e-09
2.40993e-05
-8.00042e-09
2.34579e-05
-8.86673e-09
2.28336e-05
-9.75206e-09
2.22261e-05
-1.06634e-08
2.16349e-05
-1.15955e-08
2.10594e-05
-1.25535e-08
2.04992e-05
-1.35387e-08
1.9954e-05
-1.45512e-08
1.94233e-05
-1.55982e-08
1.89068e-05
-1.66771e-08
1.8404e-05
-1.77927e-08
1.79148e-05
-1.89461e-08
1.74386e-05
-2.0143e-08
1.69753e-05
-2.13756e-08
1.65244e-05
-2.26493e-08
1.60857e-05
-2.39633e-08
1.5659e-05
-2.53112e-08
1.52439e-05
-2.66942e-08
1.48401e-05
-2.81078e-08
1.44474e-05
-2.95473e-08
1.40656e-05
-3.10074e-08
1.36942e-05
-3.24843e-08
1.33332e-05
-3.39706e-08
1.29822e-05
-3.54602e-08
1.26411e-05
-3.69484e-08
1.23094e-05
-3.84262e-08
1.1987e-05
-3.9888e-08
1.16737e-05
-4.13242e-08
1.13691e-05
-4.27301e-08
1.10732e-05
-4.4095e-08
1.07855e-05
-4.54138e-08
1.05059e-05
-4.66771e-08
1.02342e-05
-4.78778e-08
9.97009e-06
9.71338e-06
7.87229e-09
4.2995e-05
7.8184e-09
4.34819e-05
7.77236e-09
4.397e-05
7.73158e-09
4.44589e-05
7.69466e-09
4.49485e-05
7.67154e-09
4.54385e-05
7.65072e-09
4.59285e-05
7.63483e-09
4.64183e-05
7.62661e-09
4.69076e-05
7.61676e-09
4.73959e-05
7.61961e-09
4.7883e-05
7.62579e-09
4.83685e-05
7.63067e-09
4.88518e-05
7.64343e-09
4.93327e-05
7.65926e-09
4.98107e-05
7.67321e-09
5.02852e-05
7.69183e-09
5.07557e-05
7.70767e-09
5.12218e-05
7.72468e-09
5.16828e-05
7.74146e-09
5.2138e-05
7.75108e-09
5.2587e-05
7.75833e-09
5.30288e-05
7.7577e-09
5.34629e-05
7.74938e-09
5.38885e-05
7.73114e-09
5.43046e-05
7.70064e-09
5.47104e-05
7.65481e-09
5.5105e-05
7.59069e-09
5.54873e-05
7.50147e-09
5.4894e-05
7.39547e-09
5.33656e-05
7.26336e-09
5.1884e-05
7.10539e-09
5.04473e-05
6.91825e-09
4.90541e-05
6.70444e-09
4.77027e-05
6.46276e-09
4.63917e-05
6.18909e-09
4.51197e-05
5.88828e-09
4.38853e-05
5.55692e-09
4.26873e-05
5.1898e-09
4.15243e-05
4.79643e-09
4.03953e-05
4.37249e-09
3.92991e-05
3.91926e-09
3.82345e-05
3.43989e-09
3.72006e-05
2.93231e-09
3.61963e-05
2.40034e-09
3.52207e-05
1.84699e-09
3.42727e-05
1.26883e-09
3.33515e-05
6.69194e-10
3.24563e-05
4.89278e-11
3.15861e-05
-5.91806e-10
3.07402e-05
-1.24777e-09
2.99178e-05
-1.92597e-09
2.91182e-05
-2.62289e-09
2.83405e-05
-3.3391e-09
2.75842e-05
-4.0728e-09
2.68485e-05
-4.8278e-09
2.61329e-05
-5.59941e-09
2.54366e-05
-6.39277e-09
2.47592e-05
-7.20331e-09
2.41001e-05
-8.03196e-09
2.34587e-05
-8.88002e-09
2.28345e-05
-9.75044e-09
2.2227e-05
-1.06407e-08
2.16357e-05
-1.15541e-08
2.10603e-05
-1.24933e-08
2.05001e-05
-1.34556e-08
1.99549e-05
-1.44495e-08
1.94243e-05
-1.54714e-08
1.89078e-05
-1.65272e-08
1.84051e-05
-1.76211e-08
1.79159e-05
-1.87519e-08
1.74397e-05
-1.99199e-08
1.69764e-05
-2.11288e-08
1.65256e-05
-2.23762e-08
1.6087e-05
-2.36603e-08
1.56603e-05
-2.49814e-08
1.52452e-05
-2.63325e-08
1.48415e-05
-2.77141e-08
1.44488e-05
-2.91177e-08
1.4067e-05
-3.05414e-08
1.36957e-05
-3.19792e-08
1.33347e-05
-3.34272e-08
1.29837e-05
-3.48771e-08
1.26425e-05
-3.63207e-08
1.23108e-05
-3.77551e-08
1.19884e-05
-3.91712e-08
1.16751e-05
-4.05625e-08
1.13705e-05
-4.19195e-08
1.10745e-05
-4.32378e-08
1.07868e-05
-4.45092e-08
1.05072e-05
-4.57258e-08
1.02354e-05
-4.68801e-08
9.97124e-06
9.71447e-06
7.98917e-09
4.29951e-05
7.9304e-09
4.3482e-05
7.87854e-09
4.397e-05
7.83426e-09
4.4459e-05
7.7979e-09
4.49485e-05
7.76521e-09
4.54385e-05
7.73849e-09
4.59285e-05
7.7229e-09
4.64183e-05
7.70918e-09
4.69076e-05
7.7041e-09
4.73959e-05
7.7009e-09
4.7883e-05
7.69948e-09
4.83685e-05
7.70873e-09
4.88518e-05
7.71924e-09
4.93327e-05
7.72628e-09
4.98107e-05
7.74092e-09
5.02852e-05
7.75511e-09
5.07557e-05
7.7687e-09
5.12218e-05
7.78233e-09
5.16828e-05
7.79358e-09
5.2138e-05
7.80079e-09
5.2587e-05
7.80457e-09
5.30288e-05
7.80147e-09
5.34629e-05
7.78894e-09
5.38885e-05
7.76722e-09
5.43046e-05
7.73127e-09
5.47105e-05
7.68021e-09
5.51051e-05
7.60653e-09
5.54874e-05
7.51325e-09
5.48941e-05
7.39899e-09
5.33657e-05
7.25989e-09
5.18841e-05
7.09428e-09
5.04475e-05
6.90429e-09
4.90543e-05
6.68483e-09
4.77029e-05
6.4382e-09
4.6392e-05
6.1564e-09
4.512e-05
5.84659e-09
4.38856e-05
5.50652e-09
4.26876e-05
5.1347e-09
4.15247e-05
4.73355e-09
4.03957e-05
4.30247e-09
3.92995e-05
3.84414e-09
3.8235e-05
3.35798e-09
3.72011e-05
2.84611e-09
3.61968e-05
2.31301e-09
3.52212e-05
1.75224e-09
3.42733e-05
1.17381e-09
3.33521e-05
5.72132e-10
3.24569e-05
-4.78162e-11
3.15868e-05
-6.86839e-10
3.07409e-05
-1.34513e-09
2.99185e-05
-2.01917e-09
2.91188e-05
-2.70971e-09
2.83412e-05
-3.421e-09
2.75849e-05
-4.14751e-09
2.68492e-05
-4.89051e-09
2.61336e-05
-5.65255e-09
2.54374e-05
-6.42896e-09
2.476e-05
-7.22357e-09
2.41009e-05
-8.03767e-09
2.34595e-05
-8.86706e-09
2.28353e-05
-9.71759e-09
2.22279e-05
-1.05883e-08
2.16366e-05
-1.14789e-08
2.10612e-05
-1.2392e-08
2.05011e-05
-1.3332e-08
1.99559e-05
-1.42995e-08
1.94253e-05
-1.5299e-08
1.89088e-05
-1.63298e-08
1.84061e-05
-1.73949e-08
1.79169e-05
-1.8498e-08
1.74408e-05
-1.96383e-08
1.69776e-05
-2.08182e-08
1.65268e-05
-2.20336e-08
1.60882e-05
-2.32865e-08
1.56615e-05
-2.45727e-08
1.52465e-05
-2.5891e-08
1.48428e-05
-2.72332e-08
1.44501e-05
-2.86006e-08
1.40683e-05
-2.99877e-08
1.36971e-05
-3.13851e-08
1.33361e-05
-3.27899e-08
1.29851e-05
-3.41942e-08
1.26439e-05
-3.55969e-08
1.23122e-05
-3.69846e-08
1.19898e-05
-3.83535e-08
1.16765e-05
-3.96969e-08
1.13719e-05
-4.10073e-08
1.10758e-05
-4.2278e-08
1.07881e-05
-4.35004e-08
1.05084e-05
-4.46705e-08
1.02366e-05
-4.5781e-08
9.97235e-06
9.71551e-06
8.0972e-09
4.29952e-05
8.03496e-09
4.3482e-05
7.97905e-09
4.39701e-05
7.93437e-09
4.4459e-05
7.89407e-09
4.49486e-05
7.85816e-09
4.54385e-05
7.83207e-09
4.59285e-05
7.80816e-09
4.64183e-05
7.79121e-09
4.69076e-05
7.78366e-09
4.73959e-05
7.77572e-09
4.7883e-05
7.77661e-09
4.83685e-05
7.77662e-09
4.88518e-05
7.78023e-09
4.93327e-05
7.79141e-09
4.98107e-05
7.7999e-09
5.02852e-05
7.80977e-09
5.07557e-05
7.82232e-09
5.12218e-05
7.83005e-09
5.16827e-05
7.8377e-09
5.2138e-05
7.84212e-09
5.2587e-05
7.84172e-09
5.30288e-05
7.83623e-09
5.3463e-05
7.81752e-09
5.38885e-05
7.79328e-09
5.43046e-05
7.7525e-09
5.47105e-05
7.69207e-09
5.51051e-05
7.61588e-09
5.54875e-05
7.5199e-09
5.48941e-05
7.39726e-09
5.33659e-05
7.25182e-09
5.18843e-05
7.08176e-09
5.04477e-05
6.88511e-09
4.90545e-05
6.65661e-09
4.77032e-05
6.39894e-09
4.63922e-05
6.11656e-09
4.51203e-05
5.79811e-09
4.38859e-05
5.45078e-09
4.26879e-05
5.07451e-09
4.15251e-05
4.66468e-09
4.03961e-05
4.22915e-09
3.92999e-05
3.76546e-09
3.82354e-05
3.27526e-09
3.72016e-05
2.75981e-09
3.61973e-05
2.21748e-09
3.52217e-05
1.65846e-09
3.42738e-05
1.07553e-09
3.33527e-05
4.75408e-10
3.24575e-05
-1.43888e-10
3.15874e-05
-7.81258e-10
3.07415e-05
-1.43273e-09
2.99191e-05
-2.10363e-09
2.91195e-05
-2.79013e-09
2.83419e-05
-3.4886e-09
2.75856e-05
-4.20624e-09
2.685e-05
-4.9366e-09
2.61343e-05
-5.68213e-09
2.54382e-05
-6.44417e-09
2.47608e-05
-7.22241e-09
2.41017e-05
-8.01545e-09
2.34603e-05
-8.82767e-09
2.28361e-05
-9.65252e-09
2.22287e-05
-1.04978e-08
2.16375e-05
-1.13633e-08
2.1062e-05
-1.2252e-08
2.05019e-05
-1.31658e-08
1.99568e-05
-1.41051e-08
1.94262e-05
-1.50748e-08
1.89098e-05
-1.60756e-08
1.84071e-05
-1.71129e-08
1.7918e-05
-1.81853e-08
1.74419e-05
-1.92934e-08
1.69787e-05
-2.0439e-08
1.65279e-05
-2.16214e-08
1.60894e-05
-2.28394e-08
1.56627e-05
-2.40888e-08
1.52477e-05
-2.53672e-08
1.48441e-05
-2.66742e-08
1.44515e-05
-2.79998e-08
1.40697e-05
-2.93413e-08
1.36984e-05
-3.06974e-08
1.33374e-05
-3.20571e-08
1.29865e-05
-3.34177e-08
1.26453e-05
-3.47708e-08
1.23136e-05
-3.61118e-08
1.19912e-05
-3.74322e-08
1.16778e-05
-3.87271e-08
1.13732e-05
-3.99892e-08
1.10771e-05
-4.12124e-08
1.07893e-05
-4.23897e-08
1.05096e-05
-4.3515e-08
1.02377e-05
-4.45811e-08
9.97342e-06
9.71651e-06
8.1974e-09
4.29952e-05
8.13453e-09
4.34821e-05
8.07352e-09
4.39701e-05
8.02237e-09
4.44591e-05
7.9787e-09
4.49486e-05
7.94235e-09
4.54386e-05
7.91117e-09
4.59286e-05
7.88958e-09
4.64184e-05
7.86785e-09
4.69076e-05
7.85527e-09
4.73959e-05
7.8444e-09
4.7883e-05
7.83708e-09
4.83685e-05
7.83771e-09
4.88518e-05
7.8407e-09
4.93327e-05
7.84522e-09
4.98107e-05
7.85318e-09
5.02852e-05
7.86118e-09
5.07557e-05
7.86535e-09
5.12218e-05
7.87368e-09
5.16827e-05
7.87846e-09
5.2138e-05
7.87949e-09
5.2587e-05
7.87532e-09
5.30288e-05
7.85964e-09
5.3463e-05
7.84036e-09
5.38885e-05
7.80847e-09
5.43047e-05
7.76106e-09
5.47105e-05
7.70046e-09
5.51052e-05
7.61879e-09
5.54876e-05
7.5129e-09
5.48943e-05
7.38541e-09
5.3366e-05
7.23388e-09
5.18844e-05
7.05641e-09
5.04479e-05
6.84923e-09
4.90547e-05
6.61799e-09
4.77034e-05
6.35588e-09
4.63925e-05
6.06026e-09
4.51206e-05
5.74119e-09
4.38863e-05
5.38415e-09
4.26883e-05
5.00178e-09
4.15254e-05
4.58913e-09
4.03965e-05
4.14708e-09
3.93004e-05
3.67854e-09
3.82359e-05
3.18479e-09
3.72021e-05
2.66728e-09
3.61979e-05
2.12612e-09
3.52223e-05
1.5626e-09
3.42744e-05
9.83625e-10
3.33533e-05
3.81985e-10
3.24581e-05
-2.35829e-10
3.1588e-05
-8.65574e-10
3.07421e-05
-1.51589e-09
2.99198e-05
-2.17632e-09
2.91202e-05
-2.85277e-09
2.83426e-05
-3.54456e-09
2.75863e-05
-4.24636e-09
2.68507e-05
-4.96263e-09
2.61351e-05
-5.69295e-09
2.54389e-05
-6.43701e-09
2.47615e-05
-7.19365e-09
2.41024e-05
-7.964e-09
2.34611e-05
-8.74891e-09
2.28369e-05
-9.55304e-09
2.22295e-05
-1.03704e-08
2.16383e-05
-1.12096e-08
2.10629e-05
-1.20695e-08
2.05028e-05
-1.29506e-08
1.99577e-05
-1.38594e-08
1.94271e-05
-1.47979e-08
1.89107e-05
-1.57681e-08
1.84081e-05
-1.67691e-08
1.7919e-05
-1.7806e-08
1.74429e-05
-1.88802e-08
1.69797e-05
-1.99902e-08
1.6529e-05
-2.1136e-08
1.60905e-05
-2.23131e-08
1.56639e-05
-2.35211e-08
1.52489e-05
-2.476e-08
1.48453e-05
-2.60219e-08
1.44527e-05
-2.73058e-08
1.40709e-05
-2.86026e-08
1.36997e-05
-2.99102e-08
1.33387e-05
-3.12227e-08
1.29878e-05
-3.25348e-08
1.26466e-05
-3.384e-08
1.23149e-05
-3.51312e-08
1.19925e-05
-3.64042e-08
1.16791e-05
-3.76516e-08
1.13744e-05
-3.88649e-08
1.10783e-05
-4.00403e-08
1.07905e-05
-4.11723e-08
1.05107e-05
-4.22527e-08
1.02388e-05
-4.32807e-08
9.97445e-06
9.71748e-06
8.29512e-09
4.29953e-05
8.22431e-09
4.34822e-05
8.16328e-09
4.39702e-05
8.10732e-09
4.44591e-05
8.0611e-09
4.49487e-05
8.0224e-09
4.54386e-05
7.98808e-09
4.59286e-05
7.95613e-09
4.64184e-05
7.9374e-09
4.69076e-05
7.91741e-09
4.7396e-05
7.90746e-09
4.7883e-05
7.90214e-09
4.83685e-05
7.89641e-09
4.88518e-05
7.89606e-09
4.93327e-05
7.89588e-09
4.98107e-05
7.89689e-09
5.02852e-05
7.90001e-09
5.07557e-05
7.90628e-09
5.12218e-05
7.90975e-09
5.16827e-05
7.90646e-09
5.2138e-05
7.90337e-09
5.2587e-05
7.89213e-09
5.30289e-05
7.87831e-09
5.3463e-05
7.85543e-09
5.38885e-05
7.81422e-09
5.43047e-05
7.76578e-09
5.47106e-05
7.69815e-09
5.51052e-05
7.60903e-09
5.54876e-05
7.49753e-09
5.48944e-05
7.36416e-09
5.33661e-05
7.20658e-09
5.18846e-05
7.02238e-09
5.0448e-05
6.81146e-09
4.90549e-05
6.5704e-09
4.77037e-05
6.30112e-09
4.63928e-05
6.00431e-09
4.51209e-05
5.67252e-09
4.38866e-05
5.31392e-09
4.26887e-05
4.9253e-09
4.15258e-05
4.50722e-09
4.03969e-05
4.06354e-09
3.93008e-05
3.59029e-09
3.82364e-05
3.09388e-09
3.72026e-05
2.57258e-09
3.61984e-05
2.03282e-09
3.52228e-05
1.46959e-09
3.42749e-05
8.87597e-10
3.33539e-05
2.91754e-10
3.24587e-05
-3.18567e-10
3.15886e-05
-9.46904e-10
3.07428e-05
-1.58748e-09
2.99204e-05
-2.23963e-09
2.91208e-05
-2.90428e-09
2.83432e-05
-3.58059e-09
2.75869e-05
-4.26861e-09
2.68513e-05
-4.97043e-09
2.61358e-05
-5.67888e-09
2.54396e-05
-6.39975e-09
2.47622e-05
-7.13438e-09
2.41032e-05
-7.87907e-09
2.34618e-05
-8.63993e-09
2.28377e-05
-9.41095e-09
2.22303e-05
-1.02017e-08
2.16391e-05
-1.10084e-08
2.10637e-05
-1.18343e-08
2.05036e-05
-1.26845e-08
1.99585e-05
-1.35611e-08
1.9428e-05
-1.44623e-08
1.89116e-05
-1.53957e-08
1.8409e-05
-1.63603e-08
1.79199e-05
-1.73596e-08
1.74439e-05
-1.83943e-08
1.69808e-05
-1.94638e-08
1.65301e-05
-2.05658e-08
1.60916e-05
-2.17019e-08
1.56651e-05
-2.28693e-08
1.52501e-05
-2.4062e-08
1.48465e-05
-2.5276e-08
1.44539e-05
-2.65113e-08
1.40722e-05
-2.7763e-08
1.37009e-05
-2.90206e-08
1.334e-05
-3.02855e-08
1.2989e-05
-3.15478e-08
1.26478e-05
-3.28026e-08
1.23161e-05
-3.40434e-08
1.19937e-05
-3.5267e-08
1.16803e-05
-3.64626e-08
1.13756e-05
-3.76315e-08
1.10795e-05
-3.87608e-08
1.07916e-05
-3.98489e-08
1.05118e-05
-4.08889e-08
1.02398e-05
-4.18766e-08
9.97543e-06
9.71841e-06
8.37962e-09
4.29954e-05
8.3069e-09
4.34823e-05
8.2461e-09
4.39703e-05
8.18698e-09
4.44592e-05
8.1348e-09
4.49487e-05
8.09144e-09
4.54386e-05
8.0542e-09
4.59286e-05
8.02477e-09
4.64184e-05
7.99818e-09
4.69077e-05
7.97795e-09
4.7396e-05
7.96136e-09
4.78831e-05
7.94758e-09
4.83685e-05
7.94026e-09
4.88518e-05
7.9341e-09
4.93327e-05
7.93454e-09
4.98107e-05
7.93529e-09
5.02852e-05
7.93565e-09
5.07557e-05
7.93373e-09
5.12218e-05
7.93018e-09
5.16827e-05
7.92939e-09
5.2138e-05
7.91876e-09
5.2587e-05
7.9085e-09
5.30289e-05
7.88551e-09
5.3463e-05
7.85529e-09
5.38886e-05
7.81511e-09
5.43048e-05
7.7585e-09
5.47106e-05
7.68607e-09
5.51053e-05
7.58712e-09
5.54877e-05
7.47162e-09
5.48945e-05
7.33281e-09
5.33663e-05
7.16626e-09
5.18847e-05
6.97737e-09
5.04482e-05
6.76185e-09
4.90551e-05
6.51575e-09
4.77039e-05
6.238e-09
4.6393e-05
5.93444e-09
4.51212e-05
5.60051e-09
4.38869e-05
5.23634e-09
4.2689e-05
4.84147e-09
4.15262e-05
4.42159e-09
4.03974e-05
3.97032e-09
3.93013e-05
3.49598e-09
3.82369e-05
2.99629e-09
3.72031e-05
2.47767e-09
3.61989e-05
1.93491e-09
3.52234e-05
1.37635e-09
3.42755e-05
7.99846e-10
3.33544e-05
2.08669e-10
3.24593e-05
-3.99217e-10
3.15892e-05
-1.01774e-09
3.07434e-05
-1.64604e-09
2.99211e-05
-2.28983e-09
2.91215e-05
-2.94046e-09
2.83439e-05
-3.60058e-09
2.75876e-05
-4.27132e-09
2.6852e-05
-4.94956e-09
2.61364e-05
-5.63802e-09
2.54403e-05
-6.3354e-09
2.47629e-05
-7.04205e-09
2.41039e-05
-7.7614e-09
2.34625e-05
-8.48709e-09
2.28384e-05
-9.23011e-09
2.2231e-05
-9.98529e-09
2.16398e-05
-1.07571e-08
2.10644e-05
-1.15491e-08
2.05044e-05
-1.23637e-08
1.99593e-05
-1.31991e-08
1.94288e-05
-1.40634e-08
1.89125e-05
-1.4957e-08
1.84099e-05
-1.58845e-08
1.79209e-05
-1.68418e-08
1.74449e-05
-1.78329e-08
1.69818e-05
-1.88567e-08
1.65311e-05
-1.99156e-08
1.60927e-05
-2.10051e-08
1.56661e-05
-2.21225e-08
1.52512e-05
-2.32669e-08
1.48476e-05
-2.44357e-08
1.44551e-05
-2.56206e-08
1.40734e-05
-2.68178e-08
1.37021e-05
-2.8028e-08
1.33412e-05
-2.92385e-08
1.29902e-05
-3.04496e-08
1.26491e-05
-3.16527e-08
1.23174e-05
-3.28441e-08
1.19949e-05
-3.40165e-08
1.16815e-05
-3.51664e-08
1.13768e-05
-3.62855e-08
1.10806e-05
-3.73702e-08
1.07927e-05
-3.84162e-08
1.05129e-05
-3.94184e-08
1.02408e-05
-4.0373e-08
9.97639e-06
9.71931e-06
8.45536e-09
4.29955e-05
8.38146e-09
4.34823e-05
8.31587e-09
4.39703e-05
8.25602e-09
4.44592e-05
8.2013e-09
4.49488e-05
8.15413e-09
4.54387e-05
8.11364e-09
4.59287e-05
8.07886e-09
4.64185e-05
8.04942e-09
4.69077e-05
8.0265e-09
4.7396e-05
8.00698e-09
4.78831e-05
7.99234e-09
4.83685e-05
7.9815e-09
4.88519e-05
7.97271e-09
4.93327e-05
7.965e-09
4.98107e-05
7.96145e-09
5.02852e-05
7.95798e-09
5.07557e-05
7.95485e-09
5.12218e-05
7.94819e-09
5.16827e-05
7.94001e-09
5.2138e-05
7.92836e-09
5.2587e-05
7.91001e-09
5.30289e-05
7.88492e-09
5.3463e-05
7.84756e-09
5.38886e-05
7.80257e-09
5.43048e-05
7.73834e-09
5.47107e-05
7.65861e-09
5.51054e-05
7.56222e-09
5.54878e-05
7.43725e-09
5.48946e-05
7.29245e-09
5.33664e-05
7.12119e-09
5.18849e-05
6.92317e-09
5.04484e-05
6.69764e-09
4.90554e-05
6.44804e-09
4.77041e-05
6.16891e-09
4.63933e-05
5.85732e-09
4.51215e-05
5.51606e-09
4.38873e-05
5.14809e-09
4.26894e-05
4.75003e-09
4.15266e-05
4.32709e-09
4.03978e-05
3.875e-09
3.93017e-05
3.39776e-09
3.82373e-05
2.90039e-09
3.72036e-05
2.38073e-09
3.61994e-05
1.8421e-09
3.52239e-05
1.28575e-09
3.42761e-05
7.13354e-10
3.3355e-05
1.27779e-10
3.24599e-05
-4.69797e-10
3.15898e-05
-1.07799e-09
3.0744e-05
-1.69607e-09
2.99217e-05
-2.32185e-09
2.91221e-05
-2.95783e-09
2.83445e-05
-3.59884e-09
2.75883e-05
-4.24771e-09
2.68527e-05
-4.9026e-09
2.61371e-05
-5.56688e-09
2.54409e-05
-6.23759e-09
2.47636e-05
-6.91386e-09
2.41046e-05
-7.59955e-09
2.34632e-05
-8.29688e-09
2.28391e-05
-9.00316e-09
2.22317e-05
-9.72162e-09
2.16405e-05
-1.04571e-08
2.10652e-05
-1.12104e-08
2.05052e-05
-1.19802e-08
1.99601e-05
-1.27774e-08
1.94296e-05
-1.36e-08
1.89133e-05
-1.44494e-08
1.84108e-05
-1.53296e-08
1.79217e-05
-1.62432e-08
1.74458e-05
-1.71869e-08
1.69827e-05
-1.81655e-08
1.65321e-05
-1.91754e-08
1.60937e-05
-2.02135e-08
1.56672e-05
-2.12836e-08
1.52523e-05
-2.23736e-08
1.48487e-05
-2.34885e-08
1.44562e-05
-2.46202e-08
1.40745e-05
-2.57677e-08
1.37033e-05
-2.69213e-08
1.33424e-05
-2.80803e-08
1.29914e-05
-2.92369e-08
1.26502e-05
-3.03877e-08
1.23185e-05
-3.15283e-08
1.1996e-05
-3.26499e-08
1.16826e-05
-3.37524e-08
1.13779e-05
-3.48259e-08
1.10817e-05
-3.58696e-08
1.07937e-05
-3.68754e-08
1.05139e-05
-3.7843e-08
1.02418e-05
-3.87648e-08
9.97731e-06
9.72019e-06
8.52609e-09
4.29956e-05
8.4498e-09
4.34824e-05
8.375e-09
4.39704e-05
8.31364e-09
4.44593e-05
8.25783e-09
4.49488e-05
8.20671e-09
4.54387e-05
8.16251e-09
4.59287e-05
8.12627e-09
4.64185e-05
8.09437e-09
4.69077e-05
8.06638e-09
4.7396e-05
8.04059e-09
4.78831e-05
8.02538e-09
4.83685e-05
8.00975e-09
4.88519e-05
7.99788e-09
4.93327e-05
7.98917e-09
4.98107e-05
7.98006e-09
5.02852e-05
7.97111e-09
5.07557e-05
7.96445e-09
5.12218e-05
7.95572e-09
5.16828e-05
7.94075e-09
5.2138e-05
7.92486e-09
5.2587e-05
7.89959e-09
5.30289e-05
7.86979e-09
5.34631e-05
7.83027e-09
5.38886e-05
7.777e-09
5.43049e-05
7.71234e-09
5.47108e-05
7.62526e-09
5.51055e-05
7.51729e-09
5.54879e-05
7.39036e-09
5.48947e-05
7.23436e-09
5.33666e-05
7.06014e-09
5.18851e-05
6.85697e-09
5.04486e-05
6.63008e-09
4.90556e-05
6.37162e-09
4.77044e-05
6.08513e-09
4.63936e-05
5.7693e-09
4.51218e-05
5.42515e-09
4.38876e-05
5.05203e-09
4.26898e-05
4.65483e-09
4.1527e-05
4.22539e-09
4.03982e-05
3.77415e-09
3.93022e-05
3.29929e-09
3.82378e-05
2.80152e-09
3.72041e-05
2.28212e-09
3.61999e-05
1.74956e-09
3.52244e-05
1.19665e-09
3.42766e-05
6.33238e-10
3.33556e-05
5.71732e-11
3.24605e-05
-5.28401e-10
3.15904e-05
-1.12422e-09
3.07446e-05
-1.72805e-09
2.99223e-05
-2.33724e-09
2.91227e-05
-2.95287e-09
2.83451e-05
-3.57493e-09
2.75889e-05
-4.19976e-09
2.68533e-05
-4.83044e-09
2.61377e-05
-5.46431e-09
2.54416e-05
-6.10196e-09
2.47643e-05
-6.74847e-09
2.41052e-05
-7.39857e-09
2.34639e-05
-8.05709e-09
2.28398e-05
-8.72535e-09
2.22324e-05
-9.40561e-09
2.16412e-05
-1.00987e-08
2.10659e-05
-1.08072e-08
2.05059e-05
-1.15379e-08
1.99608e-05
-1.22895e-08
1.94304e-05
-1.30648e-08
1.89141e-05
-1.38686e-08
1.84116e-05
-1.47014e-08
1.79226e-05
-1.55632e-08
1.74467e-05
-1.64585e-08
1.69836e-05
-1.73846e-08
1.6533e-05
-1.83392e-08
1.60946e-05
-1.93272e-08
1.56682e-05
-2.03395e-08
1.52533e-05
-2.13785e-08
1.48498e-05
-2.2438e-08
1.44573e-05
-2.35139e-08
1.40756e-05
-2.46031e-08
1.37044e-05
-2.5702e-08
1.33434e-05
-2.68058e-08
1.29925e-05
-2.79094e-08
1.26513e-05
-2.90086e-08
1.23196e-05
-3.00948e-08
1.19971e-05
-3.11687e-08
1.16836e-05
-3.22218e-08
1.13789e-05
-3.32516e-08
1.10827e-05
-3.42544e-08
1.07947e-05
-3.52248e-08
1.05148e-05
-3.61589e-08
1.02427e-05
-3.70537e-08
9.9782e-06
9.72104e-06
8.58015e-09
4.29956e-05
8.50255e-09
4.34825e-05
8.43087e-09
4.39705e-05
8.3625e-09
4.44594e-05
8.30398e-09
4.49489e-05
8.24984e-09
4.54388e-05
8.20334e-09
4.59288e-05
8.16393e-09
4.64185e-05
8.12748e-09
4.69077e-05
8.09531e-09
4.73961e-05
8.07082e-09
4.78831e-05
8.0478e-09
4.83685e-05
8.02949e-09
4.88519e-05
8.01374e-09
4.93328e-05
7.99901e-09
4.98107e-05
7.98779e-09
5.02852e-05
7.97509e-09
5.07557e-05
7.95985e-09
5.12218e-05
7.94731e-09
5.16828e-05
7.92878e-09
5.21381e-05
7.90997e-09
5.2587e-05
7.88108e-09
5.30289e-05
7.84547e-09
5.34631e-05
7.80111e-09
5.38887e-05
7.74271e-09
5.43049e-05
7.6676e-09
5.47109e-05
7.57909e-09
5.51056e-05
7.46534e-09
5.54881e-05
7.32866e-09
5.48949e-05
7.17451e-09
5.33667e-05
6.9898e-09
5.18853e-05
6.78297e-09
5.04488e-05
6.54575e-09
4.90558e-05
6.28327e-09
4.77047e-05
5.99322e-09
4.63939e-05
5.67286e-09
4.51221e-05
5.32794e-09
4.3888e-05
4.95251e-09
4.26901e-05
4.54797e-09
4.15274e-05
4.12141e-09
4.03986e-05
3.67021e-09
3.93026e-05
3.19487e-09
3.82383e-05
2.7e-09
3.72046e-05
2.18708e-09
3.62004e-05
1.65717e-09
3.5225e-05
1.11512e-09
3.42772e-05
5.58888e-10
3.33561e-05
-6.83879e-12
3.2461e-05
-5.79167e-10
3.1591e-05
-1.15909e-09
3.07452e-05
-1.74538e-09
2.99229e-05
-2.33603e-09
2.91233e-05
-2.92782e-09
2.83457e-05
-3.52445e-09
2.75895e-05
-4.12156e-09
2.68539e-05
-4.72254e-09
2.61383e-05
-5.32599e-09
2.54422e-05
-5.93124e-09
2.47649e-05
-6.53909e-09
2.41058e-05
-7.15093e-09
2.34645e-05
-7.76964e-09
2.28404e-05
-8.39604e-09
2.2233e-05
-9.03221e-09
2.16419e-05
-9.6807e-09
2.10665e-05
-1.03443e-08
2.05065e-05
-1.10261e-08
1.99615e-05
-1.17277e-08
1.94311e-05
-1.24544e-08
1.89148e-05
-1.32059e-08
1.84123e-05
-1.39855e-08
1.79233e-05
-1.47962e-08
1.74475e-05
-1.56368e-08
1.69844e-05
-1.65066e-08
1.65339e-05
-1.74096e-08
1.60956e-05
-1.83367e-08
1.56691e-05
-1.92924e-08
1.52543e-05
-2.02735e-08
1.48507e-05
-2.12733e-08
1.44583e-05
-2.22928e-08
1.40766e-05
-2.33255e-08
1.37054e-05
-2.43662e-08
1.33445e-05
-2.54134e-08
1.29936e-05
-2.64616e-08
1.26524e-05
-2.75048e-08
1.23206e-05
-2.85429e-08
1.19982e-05
-2.9567e-08
1.16847e-05
-3.05745e-08
1.13799e-05
-3.15623e-08
1.10837e-05
-3.25263e-08
1.07957e-05
-3.34618e-08
1.05158e-05
-3.43683e-08
1.02436e-05
-3.52403e-08
9.97908e-06
9.72188e-06
8.62686e-09
4.29957e-05
8.54081e-09
4.34826e-05
8.46713e-09
4.39705e-05
8.40047e-09
4.44594e-05
8.33505e-09
4.4949e-05
8.28188e-09
4.54388e-05
8.23228e-09
4.59288e-05
8.18495e-09
4.64186e-05
8.14824e-09
4.69078e-05
8.11324e-09
4.73961e-05
8.08537e-09
4.78831e-05
8.05828e-09
4.83686e-05
8.03715e-09
4.88519e-05
8.01756e-09
4.93328e-05
7.99751e-09
4.98107e-05
7.98143e-09
5.02852e-05
7.96481e-09
5.07557e-05
7.95115e-09
5.12218e-05
7.92975e-09
5.16828e-05
7.91041e-09
5.21381e-05
7.88125e-09
5.2587e-05
7.8496e-09
5.3029e-05
7.80958e-09
5.34631e-05
7.75581e-09
5.38887e-05
7.69369e-09
5.4305e-05
7.61488e-09
5.47109e-05
7.51796e-09
5.51057e-05
7.40167e-09
5.54882e-05
7.26029e-09
5.4895e-05
7.09424e-09
5.33669e-05
6.90758e-09
5.18855e-05
6.6935e-09
5.04491e-05
6.45476e-09
4.90561e-05
6.18634e-09
4.77049e-05
5.89278e-09
4.63942e-05
5.56962e-09
4.51224e-05
5.21812e-09
4.38883e-05
4.84064e-09
4.26905e-05
4.44064e-09
4.15278e-05
4.01085e-09
4.03991e-05
3.56063e-09
3.93031e-05
3.09063e-09
3.82387e-05
2.5986e-09
3.7205e-05
2.09233e-09
3.62009e-05
1.56977e-09
3.52255e-05
1.03558e-09
3.42777e-05
4.92777e-10
3.33567e-05
-5.87584e-11
3.24616e-05
-6.18539e-10
3.15915e-05
-1.18044e-09
3.07457e-05
-1.74377e-09
2.99234e-05
-2.31136e-09
2.91238e-05
-2.87929e-09
2.83463e-05
-3.44631e-09
2.759e-05
-4.01684e-09
2.68545e-05
-4.58232e-09
2.61389e-05
-5.14889e-09
2.54427e-05
-5.71646e-09
2.47654e-05
-6.28442e-09
2.41064e-05
-6.85747e-09
2.34651e-05
-7.43273e-09
2.2841e-05
-8.01155e-09
2.22336e-05
-8.60011e-09
2.16424e-05
-9.199e-09
2.10671e-05
-9.81251e-09
2.05072e-05
-1.04422e-08
1.99622e-05
-1.10926e-08
1.94317e-05
-1.17641e-08
1.89155e-05
-1.24629e-08
1.8413e-05
-1.31862e-08
1.79241e-05
-1.39389e-08
1.74482e-05
-1.47202e-08
1.69852e-05
-1.55319e-08
1.65347e-05
-1.63728e-08
1.60964e-05
-1.72436e-08
1.567e-05
-1.81379e-08
1.52551e-05
-1.90556e-08
1.48517e-05
-1.99961e-08
1.44592e-05
-2.09548e-08
1.40775e-05
-2.1927e-08
1.37064e-05
-2.29098e-08
1.33455e-05
-2.38991e-08
1.29945e-05
-2.48919e-08
1.26534e-05
-2.58816e-08
1.23216e-05
-2.68667e-08
1.19991e-05
-2.78437e-08
1.16856e-05
-2.88078e-08
1.13809e-05
-2.97554e-08
1.10846e-05
-3.06827e-08
1.07966e-05
-3.15899e-08
1.05167e-05
-3.24696e-08
1.02445e-05
-3.3323e-08
9.97993e-06
9.7227e-06
8.6556e-09
4.29958e-05
8.57334e-09
4.34826e-05
8.49461e-09
4.39706e-05
8.42302e-09
4.44595e-05
8.36039e-09
4.4949e-05
8.29763e-09
4.54389e-05
8.24795e-09
4.59289e-05
8.19996e-09
4.64186e-05
8.15436e-09
4.69078e-05
8.11861e-09
4.73961e-05
8.08651e-09
4.78832e-05
8.05581e-09
4.83686e-05
8.02942e-09
4.88519e-05
8.00657e-09
4.93328e-05
7.98782e-09
4.98107e-05
7.96342e-09
5.02852e-05
7.9444e-09
5.07558e-05
7.92127e-09
5.12218e-05
7.89952e-09
5.16828e-05
7.87182e-09
5.21381e-05
7.84127e-09
5.25871e-05
7.80357e-09
5.3029e-05
7.75569e-09
5.34632e-05
7.70162e-09
5.38888e-05
7.63223e-09
5.4305e-05
7.54884e-09
5.4711e-05
7.44791e-09
5.51058e-05
7.322e-09
5.54883e-05
7.17536e-09
5.48952e-05
7.0055e-09
5.3367e-05
6.81105e-09
5.18856e-05
6.5939e-09
5.04493e-05
6.34743e-09
4.90563e-05
6.0784e-09
4.77052e-05
5.77872e-09
4.63945e-05
5.45437e-09
4.51228e-05
5.10341e-09
4.38887e-05
4.72543e-09
4.26909e-05
4.32149e-09
4.15282e-05
3.8968e-09
4.03995e-05
3.4483e-09
3.93035e-05
2.98174e-09
3.82392e-05
2.49798e-09
3.72055e-05
1.99674e-09
3.62015e-05
1.4858e-09
3.5226e-05
9.64665e-10
3.42782e-05
4.34637e-10
3.33572e-05
-1.00159e-10
3.24621e-05
-6.38067e-10
3.15921e-05
-1.18034e-09
3.07463e-05
-1.72303e-09