/*--------------------------------*- C++ -*----------------------------------*\
  =========                 |
  \\      /  F ield         | OpenFOAM: The Open Source CFD Toolbox
   \\    /   O peration     | Website:  https://openfoam.org
    \\  /    A nd           | Version:  10
     \\/     M anipulation  |
\*---------------------------------------------------------------------------*/
FoamFile
{
    format      ascii;
    class       volScalarField;
    location    "54000";
    object      nut;
}
// * * * * * * * * * * * * * * * * * * * * * * * * * * * * * * * * * * * * * //

dimensions      [0 2 -1 0 0 0 0];

internalField   nonuniform List<scalar> 
17922
(
0.00312767
0.00318236
0.003237
0.00329155
0.00334594
0.00340009
0.00345392
0.00350737
0.00356034
0.00361274
0.00366447
0.00371543
0.00376552
0.00381461
0.00386258
0.00390931
0.00395466
0.00399849
0.00404064
0.00408096
0.00411928
0.00415543
0.00418923
0.00422049
0.00424901
0.00427458
0.00429701
0.00431606
0.00433138
0.00434269
0.00435002
0.00435359
0.00435356
0.00435013
0.00434348
0.00433381
0.0043213
0.00430612
0.00428846
0.00426849
0.00424638
0.0042223
0.00419641
0.00416886
0.00413979
0.00410935
0.00407768
0.00404491
0.00401116
0.00397655
0.00394119
0.00390521
0.0038687
0.00383178
0.00379453
0.00375706
0.00371944
0.00368178
0.00364414
0.0036066
0.00356924
0.00353211
0.00349529
0.00345881
0.00342275
0.00338714
0.00335202
0.00331744
0.00328343
0.00325002
0.00321724
0.00318511
0.00315364
0.00312285
0.00309274
0.00306331
0.00303457
0.00300649
0.00297906
0.00295225
0.00292603
0.00290037
0.00287523
0.00285054
0.00282625
0.00280229
0.00277858
0.00275504
0.00273156
0.00270806
0.00268439
0.00266045
0.00263609
0.00312767
0.00318236
0.003237
0.00329155
0.00334594
0.00340009
0.00345393
0.00350737
0.00356034
0.00361274
0.00366448
0.00371544
0.00376553
0.00381462
0.00386259
0.00390932
0.00395467
0.0039985
0.00404065
0.00408097
0.00411929
0.00415544
0.00418924
0.0042205
0.00424902
0.0042746
0.00429702
0.00431607
0.0043314
0.0043427
0.00435004
0.00435361
0.00435358
0.00435016
0.00434352
0.00433385
0.00432134
0.00430618
0.00428852
0.00426856
0.00424647
0.0042224
0.00419652
0.00416897
0.00413992
0.0041095
0.00407784
0.00404508
0.00401134
0.00397675
0.00394141
0.00390544
0.00386895
0.00383205
0.00379482
0.00375736
0.00371977
0.00368213
0.00364451
0.003607
0.00356965
0.00353255
0.00349574
0.00345929
0.00342324
0.00338765
0.00335255
0.00331799
0.00328399
0.0032506
0.00321783
0.00318571
0.00315425
0.00312346
0.00309335
0.00306393
0.00303517
0.00300708
0.00297963
0.0029528
0.00292656
0.00290086
0.00287566
0.0028509
0.00282654
0.00280248
0.00277866
0.00275499
0.00273136
0.00270767
0.0026838
0.00265962
0.00263499
0.00312768
0.00318236
0.00323701
0.00329156
0.00334595
0.0034001
0.00345394
0.00350738
0.00356035
0.00361275
0.00366449
0.00371545
0.00376554
0.00381463
0.0038626
0.00390933
0.00395468
0.00399851
0.00404066
0.00408098
0.0041193
0.00415546
0.00418925
0.00422051
0.00424903
0.00427461
0.00429703
0.00431609
0.00433141
0.00434272
0.00435006
0.00435363
0.00435361
0.00435018
0.00434355
0.00433389
0.00432139
0.00430623
0.00428859
0.00426864
0.00424655
0.00422249
0.00419662
0.00416909
0.00414005
0.00410964
0.004078
0.00404525
0.00401153
0.00397695
0.00394163
0.00390568
0.00386921
0.00383232
0.00379511
0.00375767
0.0037201
0.00368248
0.00364488
0.00360739
0.00357007
0.00353298
0.0034962
0.00345977
0.00342374
0.00338816
0.00335308
0.00331854
0.00328456
0.00325118
0.00321843
0.00318631
0.00315486
0.00312408
0.00309398
0.00306455
0.00303579
0.00300769
0.00298022
0.00295336
0.00292708
0.00290134
0.00287608
0.00285126
0.00282681
0.00280266
0.00277872
0.00275491
0.00273112
0.00270724
0.00268315
0.00265872
0.00263381
0.00312768
0.00318237
0.00323702
0.00329157
0.00334595
0.0034001
0.00345394
0.00350739
0.00356036
0.00361276
0.00366449
0.00371546
0.00376555
0.00381464
0.00386261
0.00390934
0.00395469
0.00399852
0.00404067
0.00408099
0.00411932
0.00415547
0.00418927
0.00422052
0.00424904
0.00427462
0.00429704
0.0043161
0.00433142
0.00434273
0.00435008
0.00435365
0.00435363
0.00435021
0.00434358
0.00433393
0.00432144
0.00430628
0.00428865
0.00426871
0.00424663
0.00422259
0.00419673
0.00416921
0.00414018
0.00410979
0.00407816
0.00404543
0.00401172
0.00397716
0.00394185
0.00390592
0.00386947
0.0038326
0.00379541
0.00375799
0.00372044
0.00368284
0.00364527
0.0036078
0.0035705
0.00353343
0.00349667
0.00346026
0.00342425
0.0033887
0.00335364
0.00331911
0.00328515
0.00325178
0.00321904
0.00318694
0.00315549
0.00312472
0.00309462
0.00306519
0.00303642
0.0030083
0.00298082
0.00295393
0.00292762
0.00290183
0.00287651
0.00285162
0.00282708
0.00280283
0.00277876
0.0027548
0.00273084
0.00270676
0.00268244
0.00265774
0.00263254
0.00312769
0.00318237
0.00323702
0.00329157
0.00334596
0.00340011
0.00345395
0.0035074
0.00356037
0.00361277
0.0036645
0.00371547
0.00376556
0.00381465
0.00386262
0.00390936
0.00395471
0.00399853
0.00404069
0.00408101
0.00411933
0.00415548
0.00418928
0.00422053
0.00424905
0.00427463
0.00429706
0.00431611
0.00433144
0.00434275
0.0043501
0.00435367
0.00435365
0.00435024
0.00434362
0.00433397
0.00432148
0.00430634
0.00428871
0.00426878
0.00424672
0.00422268
0.00419684
0.00416933
0.00414032
0.00410994
0.00407832
0.00404561
0.00401191
0.00397737
0.00394208
0.00390617
0.00386973
0.00383288
0.00379572
0.00375832
0.00372079
0.00368321
0.00364566
0.00360821
0.00357093
0.00353389
0.00349715
0.00346076
0.00342478
0.00338924
0.0033542
0.00331969
0.00328575
0.0032524
0.00321967
0.00318758
0.00315614
0.00312538
0.00309528
0.00306584
0.00303707
0.00300894
0.00298143
0.00295451
0.00292816
0.00290232
0.00287695
0.00285198
0.00282735
0.00280298
0.00277878
0.00275466
0.00273051
0.00270622
0.00268166
0.00265669
0.00263118
0.00312769
0.00318238
0.00323703
0.00329158
0.00334597
0.00340012
0.00345396
0.00350741
0.00356038
0.00361278
0.00366451
0.00371548
0.00376557
0.00381466
0.00386264
0.00390937
0.00395472
0.00399854
0.0040407
0.00408102
0.00411934
0.00415549
0.00418929
0.00422055
0.00424907
0.00427464
0.00429707
0.00431613
0.00433145
0.00434277
0.00435011
0.00435369
0.00435368
0.00435027
0.00434365
0.00433401
0.00432153
0.00430639
0.00428878
0.00426886
0.00424681
0.00422278
0.00419695
0.00416946
0.00414046
0.00411009
0.00407849
0.00404579
0.00401212
0.00397759
0.00394232
0.00390642
0.00387001
0.00383318
0.00379603
0.00375866
0.00372115
0.0036836
0.00364607
0.00360864
0.00357139
0.00353437
0.00349765
0.00346128
0.00342532
0.0033898
0.00335478
0.00332029
0.00328636
0.00325303
0.00322032
0.00318824
0.00315681
0.00312605
0.00309595
0.00306651
0.00303773
0.00300958
0.00298205
0.00295511
0.00292871
0.00290282
0.00287738
0.00285233
0.0028276
0.00280311
0.00277877
0.00275448
0.00273014
0.00270563
0.00268081
0.00265556
0.00262972
0.0031277
0.00318238
0.00323703
0.00329159
0.00334597
0.00340013
0.00345397
0.00350742
0.00356039
0.00361279
0.00366453
0.00371549
0.00376558
0.00381467
0.00386265
0.00390938
0.00395473
0.00399856
0.00404071
0.00408103
0.00411935
0.0041555
0.0041893
0.00422056
0.00424908
0.00427466
0.00429708
0.00431614
0.00433147
0.00434278
0.00435013
0.00435371
0.0043537
0.0043503
0.00434369
0.00433405
0.00432158
0.00430645
0.00428885
0.00426894
0.0042469
0.00422288
0.00419706
0.00416959
0.0041406
0.00411025
0.00407866
0.00404598
0.00401232
0.00397781
0.00394256
0.00390668
0.00387029
0.00383348
0.00379636
0.00375901
0.00372152
0.00368399
0.00364648
0.00360908
0.00357185
0.00353486
0.00349816
0.00346182
0.00342587
0.00339038
0.00335538
0.00332091
0.003287
0.00325368
0.00322098
0.00318892
0.0031575
0.00312674
0.00309664
0.0030672
0.00303841
0.00301025
0.00298269
0.00295571
0.00292927
0.00290332
0.00287781
0.00285267
0.00282783
0.00280321
0.00277873
0.00275426
0.00272972
0.00270497
0.00267989
0.00265433
0.00262816
0.0031277
0.00318239
0.00323704
0.00329159
0.00334598
0.00340013
0.00345398
0.00350743
0.0035604
0.0036128
0.00366454
0.0037155
0.00376559
0.00381468
0.00386266
0.00390939
0.00395474
0.00399857
0.00404072
0.00408104
0.00411936
0.00415552
0.00418931
0.00422057
0.00424909
0.00427467
0.0042971
0.00431615
0.00433148
0.0043428
0.00435015
0.00435373
0.00435373
0.00435033
0.00434372
0.00433409
0.00432163
0.00430651
0.00428892
0.00426902
0.00424699
0.00422299
0.00419718
0.00416972
0.00414075
0.00411041
0.00407884
0.00404617
0.00401253
0.00397804
0.00394281
0.00390695
0.00387058
0.00383379
0.00379669
0.00375937
0.00372191
0.0036844
0.00364691
0.00360954
0.00357233
0.00353536
0.00349869
0.00346236
0.00342645
0.00339097
0.00335599
0.00332154
0.00328765
0.00325435
0.00322167
0.00318961
0.0031582
0.00312745
0.00309735
0.00306791
0.0030391
0.00301092
0.00298334
0.00295632
0.00292983
0.00290382
0.00287823
0.002853
0.00282805
0.0028033
0.00277865
0.002754
0.00272924
0.00270425
0.00267889
0.00265302
0.00262649
0.00312771
0.0031824
0.00323705
0.0032916
0.00334599
0.00340014
0.00345399
0.00350744
0.00356041
0.00361281
0.00366455
0.00371551
0.0037656
0.0038147
0.00386267
0.0039094
0.00395476
0.00399858
0.00404074
0.00408106
0.00411938
0.00415553
0.00418933
0.00422058
0.0042491
0.00427468
0.00429711
0.00431617
0.0043315
0.00434281
0.00435017
0.00435375
0.00435375
0.00435036
0.00434376
0.00433414
0.00432168
0.00430657
0.00428899
0.0042691
0.00424708
0.0042231
0.0041973
0.00416985
0.0041409
0.00411058
0.00407902
0.00404637
0.00401275
0.00397828
0.00394306
0.00390723
0.00387088
0.00383411
0.00379703
0.00375973
0.0037223
0.00368481
0.00364736
0.00361
0.00357282
0.00353588
0.00349923
0.00346293
0.00342703
0.00339159
0.00335663
0.0033222
0.00328832
0.00325504
0.00322237
0.00319033
0.00315893
0.00312818
0.00309808
0.00306863
0.00303981
0.00301161
0.002984
0.00295695
0.00293041
0.00290433
0.00287866
0.00285332
0.00282825
0.00280336
0.00277854
0.00275369
0.00272871
0.00270345
0.00267779
0.0026516
0.0026247
0.00312771
0.0031824
0.00323705
0.00329161
0.003346
0.00340015
0.00345399
0.00350745
0.00356042
0.00361282
0.00366456
0.00371553
0.00376561
0.00381471
0.00386269
0.00390942
0.00395477
0.0039986
0.00404075
0.00408107
0.00411939
0.00415554
0.00418934
0.0042206
0.00424912
0.0042747
0.00429712
0.00431618
0.00433151
0.00434283
0.00435019
0.00435378
0.00435378
0.00435039
0.0043438
0.00433418
0.00432173
0.00430663
0.00428906
0.00426918
0.00424718
0.00422321
0.00419743
0.00416999
0.00414105
0.00411075
0.00407921
0.00404658
0.00401297
0.00397852
0.00394333
0.00390751
0.00387119
0.00383444
0.00379739
0.00376011
0.0037227
0.00368524
0.00364781
0.00361048
0.00357333
0.00353641
0.00349978
0.00346351
0.00342764
0.00339221
0.00335728
0.00332287
0.00328902
0.00325575
0.00322309
0.00319106
0.00315967
0.00312893
0.00309883
0.00306937
0.00304054
0.00301232
0.00298468
0.00295758
0.00293098
0.00290483
0.00287907
0.00285363
0.00282843
0.00280338
0.00277838
0.00275333
0.0027281
0.00270257
0.00267661
0.00265007
0.0026228
0.00312772
0.00318241
0.00323706
0.00329162
0.00334601
0.00340016
0.003454
0.00350746
0.00356043
0.00361283
0.00366457
0.00371554
0.00376563
0.00381472
0.0038627
0.00390943
0.00395478
0.00399861
0.00404076
0.00408108
0.0041194
0.00415556
0.00418935
0.00422061
0.00424913
0.00427471
0.00429714
0.0043162
0.00433153
0.00434285
0.00435021
0.0043538
0.00435381
0.00435042
0.00434383
0.00433423
0.00432179
0.0043067
0.00428913
0.00426927
0.00424728
0.00422332
0.00419755
0.00417013
0.00414121
0.00411092
0.0040794
0.00404679
0.0040132
0.00397877
0.0039436
0.00390781
0.0038715
0.00383478
0.00379775
0.0037605
0.00372312
0.00368568
0.00364828
0.00361098
0.00357385
0.00353695
0.00350036
0.00346411
0.00342826
0.00339286
0.00335795
0.00332356
0.00328973
0.00325648
0.00322384
0.00319182
0.00316044
0.0031297
0.0030996
0.00307013
0.00304129
0.00301304
0.00298536
0.00295821
0.00293156
0.00290533
0.00287948
0.00285392
0.00282858
0.00280337
0.00277818
0.00275291
0.00272743
0.00270161
0.00267533
0.00264843
0.00262076
0.00312773
0.00318242
0.00323707
0.00329162
0.00334602
0.00340017
0.00345401
0.00350747
0.00356044
0.00361284
0.00366458
0.00371555
0.00376564
0.00381473
0.00386271
0.00390944
0.0039548
0.00399862
0.00404078
0.0040811
0.00411942
0.00415557
0.00418937
0.00422062
0.00424914
0.00427472
0.00429715
0.00431621
0.00433154
0.00434287
0.00435023
0.00435382
0.00435383
0.00435045
0.00434387
0.00433427
0.00432184
0.00430676
0.00428921
0.00426936
0.00424738
0.00422343
0.00419768
0.00417028
0.00414137
0.0041111
0.0040796
0.00404701
0.00401344
0.00397903
0.00394388
0.00390811
0.00387183
0.00383513
0.00379813
0.0037609
0.00372354
0.00368614
0.00364876
0.00361149
0.00357438
0.00353752
0.00350095
0.00346472
0.0034289
0.00339353
0.00335864
0.00332427
0.00329046
0.00325723
0.0032246
0.0031926
0.00316122
0.00313049
0.00310039
0.00307091
0.00304205
0.00301377
0.00298605
0.00295886
0.00293213
0.00290582
0.00287987
0.00285419
0.0028287
0.00280332
0.00277793
0.00275242
0.00272667
0.00270056
0.00267394
0.00264666
0.00261859
0.00312774
0.00318242
0.00323708
0.00329163
0.00334603
0.00340018
0.00345403
0.00350748
0.00356045
0.00361286
0.0036646
0.00371556
0.00376565
0.00381475
0.00386273
0.00390946
0.00395481
0.00399864
0.00404079
0.00408111
0.00411943
0.00415558
0.00418938
0.00422064
0.00424916
0.00427474
0.00429716
0.00431622
0.00433156
0.00434288
0.00435025
0.00435384
0.00435386
0.00435049
0.00434391
0.00433432
0.0043219
0.00430683
0.00428929
0.00426945
0.00424748
0.00422355
0.00419782
0.00417043
0.00414154
0.00411129
0.00407981
0.00404723
0.00401369
0.00397929
0.00394417
0.00390842
0.00387216
0.0038355
0.00379852
0.00376132
0.00372399
0.00368661
0.00364926
0.00361201
0.00357494
0.0035381
0.00350155
0.00346536
0.00342956
0.00339421
0.00335935
0.003325
0.00329121
0.003258
0.00322539
0.0031934
0.00316203
0.0031313
0.00310119
0.0030717
0.00304282
0.00301452
0.00298676
0.0029595
0.00293271
0.00290631
0.00288024
0.00285443
0.00282879
0.00280322
0.00277761
0.00275186
0.00272584
0.00269941
0.00267243
0.00264477
0.00261628
0.00312774
0.00318243
0.00323709
0.00329164
0.00334604
0.00340019
0.00345404
0.00350749
0.00356046
0.00361287
0.00366461
0.00371558
0.00376567
0.00381476
0.00386274
0.00390947
0.00395483
0.00399865
0.00404081
0.00408113
0.00411945
0.0041556
0.00418939
0.00422065
0.00424917
0.00427475
0.00429718
0.00431624
0.00433158
0.0043429
0.00435027
0.00435387
0.00435389
0.00435052
0.00434395
0.00433437
0.00432196
0.0043069
0.00428937
0.00426954
0.00424759
0.00422367
0.00419795
0.00417058
0.00414171
0.00411148
0.00408001
0.00404746
0.00401394
0.00397956
0.00394446
0.00390874
0.00387251
0.00383587
0.00379891
0.00376174
0.00372444
0.00368709
0.00364977
0.00361255
0.00357551
0.0035387
0.00350218
0.00346601
0.00343024
0.00339492
0.00336008
0.00332576
0.00329199
0.00325879
0.0032262
0.00319422
0.00316286
0.00313213
0.00310202
0.00307252
0.00304361
0.00301527
0.00298747
0.00296015
0.00293328
0.00290679
0.0028806
0.00285465
0.00282884
0.00280307
0.00277724
0.00275123
0.00272491
0.00269815
0.00267081
0.00264275
0.00261381
0.00312775
0.00318244
0.0032371
0.00329165
0.00334605
0.0034002
0.00345405
0.0035075
0.00356048
0.00361288
0.00366462
0.00371559
0.00376568
0.00381478
0.00386276
0.00390949
0.00395484
0.00399867
0.00404082
0.00408114
0.00411946
0.00415561
0.00418941
0.00422067
0.00424918
0.00427476
0.00429719
0.00431625
0.00433159
0.00434292
0.00435029
0.00435389
0.00435392
0.00435055
0.00434399
0.00433442
0.00432201
0.00430697
0.00428945
0.00426964
0.0042477
0.0042238
0.0041981
0.00417074
0.00414189
0.00411167
0.00408023
0.0040477
0.00401419
0.00397985
0.00394477
0.00390907
0.00387287
0.00383625
0.00379933
0.00376218
0.00372491
0.00368759
0.0036503
0.00361311
0.00357609
0.00353931
0.00350283
0.00346669
0.00343095
0.00339565
0.00336083
0.00332653
0.00329279
0.00325961
0.00322703
0.00319506
0.00316371
0.00313298
0.00310286
0.00307335
0.00304441
0.00301604
0.00298818
0.0029608
0.00293385
0.00290725
0.00288094
0.00285483
0.00282884
0.00280287
0.0027768
0.00275051
0.00272388
0.00269678
0.00266906
0.00264058
0.00261119
0.00312776
0.00318245
0.00323711
0.00329166
0.00334606
0.00340021
0.00345406
0.00350751
0.00356049
0.0036129
0.00366464
0.00371561
0.0037657
0.00381479
0.00386277
0.0039095
0.00395486
0.00399868
0.00404084
0.00408116
0.00411948
0.00415563
0.00418942
0.00422068
0.0042492
0.00427478
0.00429721
0.00431627
0.00433161
0.00434294
0.00435031
0.00435392
0.00435395
0.00435059
0.00434403
0.00433447
0.00432208
0.00430704
0.00428953
0.00426973
0.00424781
0.00422393
0.00419824
0.00417091
0.00414207
0.00411187
0.00408045
0.00404794
0.00401446
0.00398014
0.00394508
0.00390941
0.00387323
0.00383665
0.00379975
0.00376264
0.00372539
0.0036881
0.00365084
0.00361368
0.0035767
0.00353995
0.00350349
0.00346738
0.00343167
0.0033964
0.00336161
0.00332733
0.00329361
0.00326045
0.00322789
0.00319593
0.00316459
0.00313385
0.00310373
0.00307419
0.00304523
0.00301681
0.0029889
0.00296145
0.0029344
0.00290769
0.00288125
0.00285498
0.0028288
0.0028026
0.00277628
0.00274971
0.00272275
0.00269529
0.00266717
0.00263826
0.0026084
0.00290977
0.00296406
0.00301852
0.0030731
0.00312777
0.00318246
0.00323712
0.00329168
0.00334607
0.00340023
0.00345407
0.00350753
0.0035605
0.00361291
0.00366465
0.00371562
0.00376571
0.00381481
0.00386279
0.00390952
0.00395487
0.0039987
0.00404085
0.00408117
0.00411949
0.00415564
0.00418944
0.00422069
0.00424921
0.00427479
0.00429722
0.00431628
0.00433163
0.00434296
0.00435033
0.00435394
0.00435397
0.00435062
0.00434408
0.00433452
0.00432214
0.00430711
0.00428962
0.00426983
0.00424793
0.00422406
0.00419839
0.00417107
0.00414226
0.00411208
0.00408068
0.00404819
0.00401474
0.00398044
0.00394541
0.00390977
0.00387362
0.00383706
0.00380019
0.00376311
0.00372589
0.00368863
0.0036514
0.00361428
0.00357732
0.0035406
0.00350418
0.0034681
0.00343241
0.00339717
0.00336241
0.00332816
0.00329446
0.00326132
0.00322877
0.00319682
0.00316548
0.00313474
0.00310461
0.00307505
0.00304606
0.0030176
0.00298963
0.00296209
0.00293495
0.00290811
0.00288152
0.00285508
0.0028287
0.00280227
0.00277568
0.0027488
0.00272151
0.00269367
0.00266514
0.00263578
0.00260544
0.00290978
0.00296407
0.00301853
0.00307311
0.00312778
0.00318247
0.00323713
0.00329169
0.00334608
0.00340024
0.00345409
0.00350754
0.00356052
0.00361293
0.00366467
0.00371564
0.00376573
0.00381482
0.0038628
0.00390954
0.00395489
0.00399872
0.00404087
0.00408119
0.00411951
0.00415566
0.00418945
0.00422071
0.00424923
0.00427481
0.00429724
0.0043163
0.00433164
0.00434297
0.00435035
0.00435397
0.004354
0.00435066
0.00434412
0.00433457
0.0043222
0.00430719
0.00428971
0.00426994
0.00424805
0.00422419
0.00419854
0.00417125
0.00414245
0.00411229
0.00408092
0.00404845
0.00401502
0.00398075
0.00394575
0.00391013
0.00387401
0.00383748
0.00380064
0.00376359
0.00372641
0.00368918
0.00365198
0.00361489
0.00357797
0.00354128
0.00350489
0.00346884
0.00343318
0.00339797
0.00336323
0.00332901
0.00329533
0.00326221
0.00322968
0.00319774
0.0031664
0.00313566
0.00310551
0.00307593
0.0030469
0.00301839
0.00299035
0.00296273
0.00293547
0.00290851
0.00288176
0.00285514
0.00282854
0.00280186
0.00277499
0.0027478
0.00272015
0.00269192
0.00266297
0.00263314
0.0026023
0.00290979
0.00296408
0.00301854
0.00307312
0.00312779
0.00318248
0.00323714
0.0032917
0.00334609
0.00340025
0.0034541
0.00350756
0.00356053
0.00361294
0.00366468
0.00371565
0.00376574
0.00381484
0.00386282
0.00390955
0.00395491
0.00399873
0.00404089
0.0040812
0.00411952
0.00415567
0.00418947
0.00422072
0.00424924
0.00427482
0.00429725
0.00431632
0.00433166
0.00434299
0.00435037
0.00435399
0.00435404
0.0043507
0.00434417
0.00433463
0.00432227
0.00430726
0.0042898
0.00427004
0.00424817
0.00422434
0.0041987
0.00417143
0.00414265
0.00411252
0.00408116
0.00404872
0.00401531
0.00398107
0.00394609
0.00391051
0.00387441
0.00383792
0.00380111
0.00376409
0.00372694
0.00368975
0.00365258
0.00361552
0.00357864
0.00354198
0.00350562
0.0034696
0.00343398
0.00339879
0.00336408
0.00332989
0.00329623
0.00326313
0.00323061
0.00319868
0.00316734
0.00313659
0.00310643
0.00307682
0.00304775
0.00301918
0.00299106
0.00296335
0.00293598
0.00290888
0.00288196
0.00285514
0.00282832
0.00280138
0.00277421
0.00274668
0.00271866
0.00269003
0.00266063
0.00263033
0.00259898
0.00274839
0.00280191
0.00285573
0.0029098
0.00296409
0.00301855
0.00307314
0.0031278
0.0031825
0.00323715
0.00329171
0.00334611
0.00340027
0.00345412
0.00350757
0.00356055
0.00361296
0.0036647
0.00371567
0.00376576
0.00381486
0.00386284
0.00390957
0.00395492
0.00399875
0.0040409
0.00408122
0.00411954
0.00415569
0.00418949
0.00422074
0.00424926
0.00427484
0.00429727
0.00431633
0.00433168
0.00434301
0.0043504
0.00435402
0.00435407
0.00435074
0.00434421
0.00433468
0.00432233
0.00430735
0.00428989
0.00427015
0.0042483
0.00422448
0.00419887
0.00417161
0.00414286
0.00411275
0.00408142
0.004049
0.00401562
0.0039814
0.00394645
0.0039109
0.00387484
0.00383837
0.0038016
0.00376461
0.00372749
0.00369033
0.0036532
0.00361618
0.00357932
0.0035427
0.00350637
0.00347039
0.0034348
0.00339964
0.00336496
0.00333079
0.00329715
0.00326407
0.00323156
0.00319964
0.0031683
0.00313755
0.00310736
0.00307772
0.0030486
0.00301997
0.00299178
0.00296396
0.00293646
0.00290921
0.00288211
0.00285508
0.00282802
0.0028008
0.00277332
0.00274544
0.00271704
0.00268798
0.00265813
0.00262733
0.00259546
0.0027484
0.00280192
0.00285574
0.00290981
0.0029641
0.00301856
0.00307315
0.00312782
0.00318251
0.00323717
0.00329173
0.00334612
0.00340028
0.00345413
0.00350759
0.00356057
0.00361298
0.00366472
0.00371569
0.00376578
0.00381488
0.00386286
0.00390959
0.00395494
0.00399877
0.00404092
0.00408124
0.00411956
0.00415571
0.0041895
0.00422076
0.00424927
0.00427485
0.00429728
0.00431635
0.00433169
0.00434303
0.00435042
0.00435405
0.0043541
0.00435078
0.00434426
0.00433474
0.0043224
0.00430743
0.00428999
0.00427027
0.00424843
0.00422463
0.00419904
0.0041718
0.00414307
0.00411298
0.00408168
0.00404929
0.00401593
0.00398174
0.00394683
0.0039113
0.00387527
0.00383884
0.0038021
0.00376515
0.00372806
0.00369094
0.00365384
0.00361685
0.00358003
0.00354345
0.00350715
0.0034712
0.00343564
0.00340052
0.00336587
0.00333172
0.0032981
0.00326504
0.00323255
0.00320063
0.00316929
0.00313852
0.00310831
0.00307863
0.00304946
0.00302076
0.00299248
0.00296455
0.00293692
0.0029095
0.00288221
0.00285496
0.00282764
0.00280013
0.00277232
0.00274408
0.00271528
0.00268578
0.00265545
0.00262415
0.00259175
0.0027484
0.00280193
0.00285575
0.00290982
0.00296411
0.00301857
0.00307316
0.00312783
0.00318252
0.00323718
0.00329174
0.00334614
0.0034003
0.00345415
0.00350761
0.00356058
0.00361299
0.00366474
0.00371571
0.0037658
0.0038149
0.00386288
0.00390961
0.00395496
0.00399879
0.00404094
0.00408126
0.00411958
0.00415572
0.00418952
0.00422077
0.00424929
0.00427487
0.0042973
0.00431637
0.00433171
0.00434305
0.00435044
0.00435407
0.00435413
0.00435082
0.00434431
0.0043348
0.00432248
0.00430751
0.00429009
0.00427039
0.00424856
0.00422479
0.00419921
0.004172
0.00414329
0.00411323
0.00408195
0.00404958
0.00401626
0.0039821
0.00394721
0.00391172
0.00387572
0.00383932
0.00380262
0.0037657
0.00372865
0.00369156
0.00365451
0.00361755
0.00358077
0.00354422
0.00350796
0.00347204
0.00343652
0.00340142
0.0033668
0.00333268
0.00329908
0.00326604
0.00323355
0.00320164
0.00317029
0.00313951
0.00310927
0.00307955
0.00305033
0.00302155
0.00299316
0.00296512
0.00293734
0.00290975
0.00288225
0.00285476
0.00282717
0.00279935
0.0027712
0.00274258
0.00271336
0.00268341
0.0026526
0.00262078
0.00258783
0.00274841
0.00280194
0.00285576
0.00290983
0.00296412
0.00301858
0.00307317
0.00312784
0.00318254
0.0032372
0.00329176
0.00334615
0.00340032
0.00345417
0.00350762
0.0035606
0.00361301
0.00366475
0.00371573
0.00376582
0.00381492
0.0038629
0.00390963
0.00395498
0.00399881
0.00404096
0.00408128
0.00411959
0.00415574
0.00418954
0.00422079
0.00424931
0.00427488
0.00429732
0.00431638
0.00433173
0.00434307
0.00435047
0.0043541
0.00435417
0.00435086
0.00434436
0.00433487
0.00432255
0.0043076
0.0042902
0.00427051
0.0042487
0.00422495
0.00419939
0.0041722
0.00414352
0.00411348
0.00408223
0.00404989
0.0040166
0.00398246
0.00394761
0.00391215
0.00387619
0.00383982
0.00380315
0.00376627
0.00372927
0.00369221
0.00365519
0.00361828
0.00358153
0.00354502
0.00350879
0.00347291
0.00343742
0.00340235
0.00336776
0.00333366
0.00330009
0.00326706
0.00323459
0.00320267
0.00317132
0.00314052
0.00311024
0.00308048
0.00305119
0.00302232
0.00299383
0.00296566
0.00293772
0.00290994
0.00288223
0.00285449
0.0028266
0.00279847
0.00276995
0.00274094
0.00271129
0.00268087
0.00264956
0.00261721
0.00258371
0.00274842
0.00280195
0.00285577
0.00290984
0.00296413
0.0030186
0.00307319
0.00312786
0.00318255
0.00323721
0.00329177
0.00334617
0.00340033
0.00345418
0.00350764
0.00356062
0.00361303
0.00366477
0.00371575
0.00376584
0.00381494
0.00386292
0.00390965
0.003955
0.00399883
0.00404098
0.0040813
0.00411961
0.00415576
0.00418955
0.00422081
0.00424932
0.0042749
0.00429733
0.0043164
0.00433175
0.0043431
0.00435049
0.00435413
0.00435421
0.0043509
0.00434442
0.00433493
0.00432263
0.0043077
0.00429031
0.00427063
0.00424885
0.00422511
0.00419958
0.00417242
0.00414375
0.00411374
0.00408252
0.00405021
0.00401695
0.00398285
0.00394803
0.0039126
0.00387667
0.00384034
0.00380371
0.00376687
0.0037299
0.00369288
0.0036559
0.00361902
0.00358232
0.00354584
0.00350965
0.00347381
0.00343835
0.00340332
0.00336875
0.00333468
0.00330113
0.00326811
0.00323564
0.00320373
0.00317236
0.00314154
0.00311123
0.00308141
0.00305204
0.00302309
0.00299448
0.00296616
0.00293805
0.00291007
0.00288213
0.00285412
0.00282594
0.00279746
0.00276857
0.00273915
0.00270905
0.00267816
0.00264633
0.00261344
0.00257937
0.00274843
0.00280196
0.00285578
0.00290985
0.00296415
0.00301861
0.0030732
0.00312787
0.00318257
0.00323723
0.00329179
0.00334619
0.00340035
0.0034542
0.00350766
0.00356064
0.00361305
0.0036648
0.00371577
0.00376586
0.00381496
0.00386294
0.00390967
0.00395502
0.00399885
0.004041
0.00408132
0.00411963
0.00415578
0.00418957
0.00422082
0.00424934
0.00427492
0.00429735
0.00431642
0.00433177
0.00434312
0.00435052
0.00435416
0.00435424
0.00435095
0.00434447
0.004335
0.00432271
0.00430779
0.00429042
0.00427077
0.004249
0.00422528
0.00419978
0.00417264
0.004144
0.00411402
0.00408282
0.00405054
0.00401731
0.00398324
0.00394846
0.00391307
0.00387717
0.00384088
0.00380429
0.00376748
0.00373055
0.00369358
0.00365664
0.0036198
0.00358313
0.00354669
0.00351054
0.00347473
0.00343931
0.00340431
0.00336977
0.00333572
0.00330219
0.00326919
0.00323673
0.00320481
0.00317343
0.00314257
0.00311222
0.00308234
0.00305289
0.00302383
0.0029951
0.00296663
0.00293834
0.00291014
0.00288195
0.00285366
0.00282516
0.00279633
0.00276705
0.0027372
0.00270664
0.00267525
0.0026429
0.00260946
0.00257481
0.00274844
0.00280197
0.00285579
0.00290987
0.00296416
0.00301863
0.00307322
0.00312789
0.00318259
0.00323725
0.00329181
0.00334621
0.00340037
0.00345422
0.00350768
0.00356066
0.00361307
0.00366482
0.00371579
0.00376588
0.00381498
0.00386296
0.00390969
0.00395505
0.00399887
0.00404102
0.00408134
0.00411965
0.0041558
0.00418959
0.00422084
0.00424936
0.00427494
0.00429737
0.00431644
0.00433179
0.00434314
0.00435055
0.0043542
0.00435428
0.004351
0.00434453
0.00433507
0.00432279
0.00430789
0.00429054
0.0042709
0.00424916
0.00422546
0.00419998
0.00417286
0.00414426
0.0041143
0.00408313
0.00405089
0.00401769
0.00398365
0.0039489
0.00391355
0.00387769
0.00384144
0.00380489
0.00376812
0.00373123
0.0036943
0.0036574
0.0036206
0.00358397
0.00354757
0.00351146
0.00347569
0.0034403
0.00340533
0.00337082
0.0033368
0.00330328
0.00327029
0.00323783
0.0032059
0.0031745
0.00314361
0.00311321
0.00308326
0.00305373
0.00302456
0.00299568
0.00296705
0.00293856
0.00291014
0.00288169
0.0028531
0.00282426
0.00279506
0.00276538
0.00273508
0.00270405
0.00267215
0.00263926
0.00260526
0.00257004
0.00274845
0.00280198
0.00285581
0.00290988
0.00296418
0.00301864
0.00307324
0.00312791
0.0031826
0.00323726
0.00329183
0.00334623
0.00340039
0.00345424
0.0035077
0.00356068
0.0036131
0.00366484
0.00371581
0.00376591
0.003815
0.00386298
0.00390972
0.00395507
0.00399889
0.00404104
0.00408136
0.00411967
0.00415582
0.00418961
0.00422086
0.00424938
0.00427495
0.00429739
0.00431646
0.00433181
0.00434316
0.00435057
0.00435423
0.00435432
0.00435105
0.00434459
0.00433514
0.00432288
0.004308
0.00429066
0.00427104
0.00424932
0.00422565
0.00420019
0.0041731
0.00414452
0.0041146
0.00408346
0.00405125
0.00401808
0.00398408
0.00394937
0.00391405
0.00387823
0.00384202
0.00380551
0.00376878
0.00373194
0.00369505
0.00365819
0.00362143
0.00358484
0.00354849
0.00351241
0.00347668
0.00344132
0.00340639
0.00337191
0.00333791
0.00330441
0.00327142
0.00323896
0.00320702
0.0031756
0.00314467
0.00311421
0.00308418
0.00305455
0.00302525
0.00299623
0.00296741
0.00293872
0.00291005
0.00288132
0.00285242
0.00282324
0.00279365
0.00276355
0.0027328
0.00270127
0.00266885
0.00263542
0.00260085
0.00256504
0.00274846
0.002802
0.00285582
0.0029099
0.00296419
0.00301866
0.00307325
0.00312793
0.00318262
0.00323728
0.00329185
0.00334625
0.00340041
0.00345426
0.00350773
0.00356071
0.00361312
0.00366486
0.00371584
0.00376593
0.00381503
0.00386301
0.00390974
0.00395509
0.00399892
0.00404107
0.00408138
0.0041197
0.00415584
0.00418963
0.00422088
0.0042494
0.00427497
0.0042974
0.00431648
0.00433183
0.00434319
0.0043506
0.00435426
0.00435437
0.0043511
0.00434466
0.00433522
0.00432297
0.0043081
0.00429079
0.00427119
0.00424949
0.00422585
0.00420042
0.00417335
0.0041448
0.0041149
0.0040838
0.00405162
0.00401849
0.00398453
0.00394985
0.00391457
0.0038788
0.00384263
0.00380615
0.00376947
0.00373267
0.00369582
0.003659
0.00362229
0.00358575
0.00354943
0.0035134
0.0034777
0.00344238
0.00340748
0.00337302
0.00333904
0.00330556
0.00327258
0.00324011
0.00320816
0.0031767
0.00314572
0.0031152
0.00308509
0.00305535
0.00302592
0.00299673
0.00296772
0.0029388
0.00290988
0.00288086
0.00285163
0.00282208
0.00279209
0.00276155
0.00273033
0.0026983
0.00266535
0.00263136
0.00259622
0.00255981
0.00274848
0.00280201
0.00285583
0.00290991
0.00296421
0.00301868
0.00307327
0.00312795
0.00318264
0.0032373
0.00329187
0.00334627
0.00340043
0.00345429
0.00350775