/*--------------------------------*- C++ -*----------------------------------*\
  =========                 |
  \\      /  F ield         | OpenFOAM: The Open Source CFD Toolbox
   \\    /   O peration     | Website:  https://openfoam.org
    \\  /    A nd           | Version:  10
     \\/     M anipulation  |
\*---------------------------------------------------------------------------*/
FoamFile
{
    format      ascii;
    class       volScalarField;
    location    "74000";
    object      p;
}
// * * * * * * * * * * * * * * * * * * * * * * * * * * * * * * * * * * * * * //

dimensions      [0 2 -2 0 0 0 0];

internalField   nonuniform List<scalar> 
17808
(
8.40099
8.43777
8.46053
8.47306
8.4829
8.4891
8.49299
8.49499
8.49553
8.49489
8.49326
8.4908
8.48761
8.48379
8.4794
8.47449
8.4691
8.46325
8.45698
8.4503
8.44323
8.43578
8.42796
8.41979
8.41125
8.40238
8.39315
8.38359
8.37368
8.36343
8.35285
8.34192
8.33066
8.31906
8.30711
8.29482
8.28218
8.26919
8.25585
8.24215
8.22809
8.21367
8.19889
8.18373
8.16819
8.15227
8.13597
8.11928
8.10219
8.0847
8.06681
8.0485
8.02977
8.01061
7.99103
7.97101
7.95054
7.92962
7.90825
7.88641
7.86409
7.8413
7.81802
7.79425
7.76997
7.74518
7.71987
7.69403
7.66766
7.64074
7.61326
7.58523
7.55662
7.52743
7.49765
7.46727
7.43628
7.40467
7.37243
7.33955
7.30601
7.27182
7.23695
7.2014
7.16515
7.1282
7.09053
7.05214
7.013
6.97311
6.93245
6.89102
8.49422
8.5017
8.49769
8.49674
8.4979
8.49832
8.49844
8.49797
8.49687
8.49513
8.49277
8.48981
8.48629
8.48225
8.47771
8.4727
8.46725
8.46137
8.45509
8.44842
8.44137
8.43395
8.42617
8.41803
8.40955
8.40071
8.39154
8.38203
8.37217
8.36198
8.35145
8.34057
8.32936
8.31781
8.30591
8.29367
8.28108
8.26814
8.25484
8.24119
8.22718
8.2128
8.19806
8.18294
8.16744
8.15156
8.1353
8.11864
8.10158
8.08413
8.06626
8.04798
8.02928
8.01016
7.9906
7.9706
7.95016
7.92926
7.90791
7.88609
7.8638
7.84103
7.81776
7.79401
7.76974
7.74497
7.71967
7.69385
7.66749
7.64059
7.61313
7.5851
7.55651
7.52733
7.49756
7.46719
7.4362
7.4046
7.37237
7.33949
7.30597
7.27178
7.23692
7.20137
7.16513
7.12819
7.09053
7.05213
7.013
6.97312
6.93247
6.89104
8.54002
8.5396
8.53122
8.52708
8.52298
8.51854
8.51447
8.51048
8.5065
8.50244
8.49823
8.49381
8.48915
8.4842
8.47896
8.47341
8.46753
8.46132
8.45479
8.44792
8.44072
8.43318
8.42532
8.41712
8.40859
8.39973
8.39054
8.38102
8.37116
8.36098
8.35046
8.3396
8.32841
8.31688
8.30501
8.29279
8.28023
8.26731
8.25405
8.24042
8.22644
8.21209
8.19737
8.18228
8.16681
8.15096
8.13472
8.11809
8.10106
8.08363
8.06579
8.04753
8.02886
8.00975
7.99022
7.97024
7.94982
7.92894
7.90761
7.8858
7.86353
7.84077
7.81752
7.79378
7.76953
7.74477
7.71949
7.69368
7.66733
7.64043
7.61298
7.58497
7.55638
7.52721
7.49745
7.46708
7.43611
7.40451
7.37228
7.33941
7.30589
7.27171
7.23685
7.20131
7.16508
7.12813
7.09047
7.05208
7.01295
6.97307
6.93242
6.891
8.54273
8.54207
8.53687
8.53464
8.53085
8.52666
8.5224
8.5179
8.51323
8.50839
8.50338
8.4982
8.49281
8.48722
8.48139
8.47533
8.46902
8.46243
8.45558
8.44844
8.44101
8.43329
8.42526
8.41693
8.4083
8.39935
8.39009
8.38051
8.37062
8.3604
8.34985
8.33898
8.32778
8.31624
8.30437
8.29216
8.2796
8.26669
8.25344
8.23983
8.22586
8.21152
8.19682
8.18175
8.1663
8.15046
8.13424
8.11763
8.10062
8.08321
8.06538
8.04714
8.02848
8.0094
7.98988
7.96992
7.94951
7.92865
7.90733
7.88554
7.86328
7.84053
7.8173
7.79357
7.76933
7.74458
7.71931
7.6935
7.66716
7.64028
7.61284
7.58483
7.55625
7.52708
7.49733
7.46697
7.436
7.40441
7.37218
7.33932
7.3058
7.27162
7.23677
7.20123
7.16499
7.12805
7.0904
7.05201
7.01288
6.973
6.93235
6.89093
8.54443
8.54316
8.53892
8.53669
8.53294
8.52915
8.52514
8.5208
8.51621
8.51136
8.50626
8.50091
8.49532
8.48949
8.48342
8.4771
8.47053
8.46371
8.45662
8.44927
8.44165
8.43375
8.42558
8.41711
8.40836
8.39931
8.38996
8.3803
8.37034
8.36007
8.34948
8.33857
8.32734
8.31578
8.30389
8.29167
8.2791
8.26619
8.25294
8.23933
8.22536
8.21104
8.19634
8.18128
8.16584
8.15002
8.13381
8.11721
8.10021
8.08281
8.065
8.04678
8.02814
8.00906
7.98956
7.96961
7.94922
7.92837
7.90707
7.88529
7.86304
7.84031
7.81708
7.79336
7.76914
7.7444
7.71913
7.69334
7.66701
7.64013
7.6127
7.5847
7.55612
7.52697
7.49722
7.46686
7.4359
7.40431
7.37209
7.33923
7.30572
7.27154
7.23669
7.20116
7.16493
7.12799
7.09033
7.05195
7.01282
6.97294
6.93229
6.89087
8.55046
8.54862
8.54451
8.54164
8.53748
8.53338
8.529
8.52435
8.51947
8.51437
8.50903
8.50346
8.49766
8.49162
8.48535
8.47883
8.47207
8.46505
8.45779
8.45027
8.44249
8.43445
8.42613
8.41754
8.40867
8.39951
8.39007
8.38034
8.3703
8.35996
8.34932
8.33836
8.32709
8.3155
8.30358
8.29133
8.27875
8.26582
8.25256
8.23894
8.22497
8.21064
8.19595
8.18089
8.16545
8.14964
8.13343
8.11684
8.09986
8.08247
8.06467
8.04645
8.02782
8.00876
7.98926
7.96933
7.94895
7.92811
7.90682
7.88505
7.86281
7.84009
7.81688
7.79317
7.76895
7.74422
7.71897
7.69319
7.66686
7.63999
7.61257
7.58457
7.55601
7.52686
7.49711
7.46676
7.43581
7.40422
7.37201
7.33915
7.30564
7.27147
7.23662
7.20109
7.16486
7.12793
7.09027
7.05189
7.01277
6.97289
6.93224
6.89082
8.55555
8.55339
8.54949
8.54631
8.54203
8.53773
8.53308
8.52817
8.52303
8.51766
8.51207
8.50625
8.5002
8.49394
8.48745
8.48072
8.47377
8.46657
8.45914
8.45146
8.44353
8.43534
8.42689
8.41818
8.4092
8.39994
8.3904
8.38058
8.37047
8.36006
8.34935
8.33834
8.32702
8.31538
8.30343
8.29114
8.27853
8.26559
8.2523
8.23867
8.22468
8.21035
8.19565
8.18058
8.16514
8.14933
8.13313
8.11654
8.09955
8.08217
8.06437
8.04617
8.02754
8.00849
7.989
7.96908
7.9487
7.92788
7.90659
7.88484
7.86261
7.83989
7.81669
7.79299
7.76878
7.74406
7.71881
7.69304
7.66672
7.63986
7.61244
7.58445
7.55589
7.52675
7.49701
7.46667
7.43571
7.40414
7.37193
7.33907
7.30557
7.2714
7.23656
7.20103
7.1648
7.12787
7.09022
7.05184
7.01271
6.97283
6.93219
6.89077
8.55869
8.55633
8.55263
8.54931
8.54506
8.54072
8.536
8.53103
8.52579
8.52031
8.51459
8.50864
8.50246
8.49605
8.48941
8.48254
8.47544
8.4681
8.46053
8.45272
8.44466
8.43635
8.42778
8.41896
8.40988
8.40052
8.39089
8.38099
8.3708
8.36032
8.34955
8.33847
8.3271
8.31541
8.30341
8.29109
8.27845
8.26547
8.25216
8.2385
8.2245
8.21015
8.19543
8.18036
8.16491
8.14909
8.13288
8.11629
8.09931
8.08192
8.06413
8.04593
8.0273
8.00825
7.98877
7.96885
7.94849
7.92767
7.90639
7.88464
7.86242
7.83971
7.81651
7.79282
7.76862
7.7439
7.71867
7.6929
7.66659
7.63973
7.61232
7.58434
7.55578
7.52664
7.49691
7.46658
7.43563
7.40405
7.37185
7.339
7.3055
7.27133
7.23649
7.20097
7.16474
7.12781
7.09016
7.05178
7.01266
6.97279
6.93214
6.89072
8.5611
8.55857
8.55503
8.55159
8.54736
8.54298
8.53823
8.53322
8.52794
8.5224
8.51662
8.5106
8.50434
8.49784
8.49112
8.48415
8.47696
8.46952
8.46185
8.45394
8.44578
8.43737
8.42871
8.4198
8.41062
8.40119
8.39148
8.38149
8.37123
8.36069
8.34985
8.33872
8.32729
8.31556
8.30351
8.29115
8.27847
8.26546
8.25211
8.23843
8.22441
8.21003
8.1953
8.18021
8.16475
8.14892
8.13271
8.11611
8.09912
8.08173
8.06393
8.04573
8.02711
8.00806
7.98858
7.96866
7.9483
7.92748
7.90621
7.88447
7.86225
7.83955
7.81636
7.79267
7.76847
7.74376
7.71853
7.69277
7.66647
7.63961
7.61221
7.58423
7.55568
7.52655
7.49682
7.46649
7.43554
7.40398
7.37177
7.33893
7.30543
7.27127
7.23643
7.20091
7.16469
7.12776
7.09011
7.05173
7.01261
6.97274
6.9321
6.89068
8.5633
8.56064
8.55721
8.55367
8.54945
8.54502
8.54024
8.53518
8.52985
8.52426
8.51842
8.51234
8.50602
8.49946
8.49266
8.48562
8.47835
8.47084
8.46309
8.4551
8.44686
8.43838
8.42965
8.42066
8.41141
8.4019
8.39212
8.38207
8.37174
8.36114
8.35024
8.33906
8.32758
8.31579
8.3037
8.2913
8.27858
8.26553
8.25216
8.23845
8.2244
8.21
8.19525
8.18014
8.16466
8.14881
8.13259
8.11598
8.09898
8.08159
8.06379
8.04558
8.02695
8.0079
7.98842
7.96851
7.94814
7.92733
7.90606
7.88432
7.8621
7.8394
7.81622
7.79253
7.76834
7.74364
7.71841
7.69265
7.66635
7.63951
7.6121
7.58413
7.55559
7.52646
7.49674
7.46641
7.43547
7.4039
7.3717
7.33886
7.30537
7.27121
7.23637
7.20085
7.16464
7.12771
7.09006
7.05169
7.01257
6.9727
6.93206
6.89064
8.56523
8.56247
8.55913
8.5555
8.55129
8.54683
8.54202
8.53693
8.53156
8.52593
8.52005
8.51392
8.50754
8.50093
8.49407
8.48698
8.47965
8.47208
8.46427
8.45621
8.44791
8.43936
8.43057
8.42151
8.4122
8.40263
8.39279
8.38269
8.3723
8.36164
8.3507
8.33946
8.32793
8.3161
8.30397
8.29153
8.27877
8.26569
8.25228
8.23854
8.22446
8.21003
8.19526
8.18013
8.16463
8.14877
8.13253
8.11591
8.0989
8.08149
8.06369
8.04547
8.02684
8.00778
7.9883
7.96838
7.94802
7.9272
7.90593
7.88419
7.86198
7.83928
7.8161
7.79242
7.76823
7.74353
7.7183
7.69255
7.66625
7.63941
7.61201
7.58404
7.5555
7.52638
7.49666
7.46633
7.4354
7.40383
7.37164
7.3388
7.30531
7.27115
7.23632
7.2008
7.16459
7.12766
7.09002
7.05165
7.01253
6.97266
6.93202
6.8906
8.56685
8.56402
8.56074
8.55706
8.55286
8.54838
8.54355
8.53844
8.53305
8.52739
8.52148
8.51531
8.5089
8.50225
8.49535
8.48821
8.48084
8.47322
8.46536
8.45725
8.4489
8.44031
8.43146
8.42235
8.41299
8.40337
8.39348
8.38332
8.37289
8.36218
8.35119
8.33991
8.32833
8.31646
8.30429
8.29181
8.27901
8.2659
8.25246
8.23869
8.22458
8.21013
8.19533
8.18018
8.16466
8.14878
8.13252
8.11589
8.09886
8.08145
8.06363
8.0454
8.02677
8.00771
7.98822
7.96829
7.94793
7.92711
7.90583
7.88409
7.86188
7.83918
7.816
7.79232
7.76813
7.74343
7.71821
7.69246
7.66617
7.63933
7.61193
7.58397
7.55543
7.5263
7.49659
7.46627
7.43533
7.40377
7.37158
7.33875
7.30526
7.2711
7.23627
7.20076
7.16454
7.12762
7.08998
7.05161
7.01249
6.97262
6.93198
6.89057
8.56825
8.56536
8.56214
8.55841
8.55422
8.54972
8.54488
8.53975
8.53435
8.52867
8.52273
8.51654
8.51011
8.50342
8.4965
8.48933
8.48192
8.47427
8.46637
8.45823
8.44984
8.4412
8.43231
8.42316
8.41376
8.40409
8.39416
8.38396
8.37349
8.36273
8.3517
8.34038
8.32877
8.31686
8.30465
8.29214
8.27931
8.26616
8.25269
8.23889
8.22475
8.21028
8.19546
8.18028
8.16474
8.14884
8.13257
8.11591
8.09888
8.08145
8.06362
8.04538
8.02673
8.00766
7.98817
7.96824
7.94786
7.92704
7.90576
7.88402
7.8618
7.83911
7.81592
7.79224
7.76805
7.74336
7.71813
7.69238
7.66609
7.63925
7.61186
7.5839
7.55536
7.52624
7.49653
7.46621
7.43528
7.40372
7.37153
7.3387
7.30521
7.27106
7.23623
7.20072
7.1645
7.12759
7.08995
7.05157
7.01246
6.97259
6.93195
6.89054
8.56949
8.56655
8.56338
8.55962
8.55543
8.55092
8.54607
8.54093
8.53551
8.52981
8.52386
8.51765
8.5112
8.50449
8.49754
8.49035
8.48291
8.47523
8.4673
8.45913
8.45071
8.44204
8.43311
8.42393
8.41449
8.40479
8.39482
8.38459
8.37408
8.36329
8.35223
8.34087
8.32923
8.31728
8.30504
8.29249
8.27963
8.26646
8.25296
8.23913
8.22497
8.21047
8.19562
8.18042
8.16487
8.14895
8.13265
8.11598
8.09893
8.08148
8.06364
8.04539
8.02673
8.00765
7.98815
7.96821
7.94783
7.927
7.90572
7.88397
7.86175
7.83905
7.81587
7.79218
7.768
7.7433
7.71808
7.69232
7.66603
7.6392
7.6118
7.58384
7.55531
7.52619
7.49648
7.46616
7.43523
7.40367
7.37149
7.33865
7.30517
7.27102
7.23619
7.20068
7.16447
7.12755
7.08991
7.05155
7.01243
6.97256
6.93193
6.89051
8.57061
8.56763
8.56449
8.5607
8.55652
8.55199
8.54714
8.54199
8.53655
8.53085
8.52488
8.51866
8.51219
8.50546
8.49849
8.49128
8.48382
8.47612
8.46817
8.45997
8.45152
8.44282
8.43387
8.42466
8.4152
8.40547
8.39547
8.38521
8.37467
8.36385
8.35275
8.34137
8.32969
8.31772
8.30545
8.29287
8.27999
8.26678
8.25326
8.2394
8.22522
8.21069
8.19583
8.18061
8.16503
8.14909
8.13278
8.11609
8.09902
8.08156
8.0637
8.04544
8.02677
8.00768
7.98817
7.96822
7.94783
7.927
7.90571
7.88395
7.86173
7.83902
7.81583
7.79215
7.76796
7.74326
7.71803
7.69228
7.66599
7.63915
7.61176
7.5838
7.55526
7.52615
7.49643
7.46612
7.43519
7.40364
7.37145
7.33862
7.30513
7.27099
7.23616
7.20065
7.16444
7.12753
7.08989
7.05152
7.01241
6.97254
6.93191
6.89049
8.5716
8.56859
8.56547
8.56167
8.55749
8.55296
8.5481
8.54294
8.53749
8.53178
8.5258
8.51957
8.51308
8.50635
8.49937
8.49214
8.48466
8.47694
8.46897
8.46075
8.45228
8.44356
8.43459
8.42536
8.41587
8.40611
8.39609
8.3858
8.37524
8.3644
8.35327
8.34186
8.33016
8.31817
8.30587
8.29327
8.28035
8.26713
8.25358
8.2397
8.22549
8.21095
8.19606
8.18082
8.16522
8.14926
8.13293
8.11623
8.09914
8.08166
8.06379
8.04552
8.02684
8.00773
7.98821
7.96825
7.94786
7.92701
7.90572
7.88396
7.86173
7.83902
7.81582
7.79213
7.76794
7.74323
7.71801
7.69225
7.66596
7.63912
7.61173
7.58377
7.55523
7.52612
7.4964
7.46609
7.43516
7.40361
7.37142
7.33859
7.30511
7.27096
7.23614
7.20063
7.16442
7.1275
7.08987
7.0515
7.01239
6.97252
6.93188
6.89047
8.5725
8.56947
8.56637
8.56254
8.55837
8.55383
8.54896
8.5438
8.53835
8.53263
8.52665
8.5204
8.51391
8.50716
8.50016
8.49292
8.48543
8.4777
8.46971
8.46148
8.453
8.44426
8.43527
8.42602
8.41651
8.40673
8.39669
8.38638
8.37579
8.36493
8.35378
8.34235
8.33063
8.31861
8.30629
8.29367
8.28073
8.26748
8.25391
8.24002
8.22579
8.21122
8.19631
8.18105
8.16543
8.14946
8.13311
8.11639
8.09929
8.0818
8.06391
8.04563
8.02693
8.00782
7.98828
7.96831
7.94791
7.92706
7.90575
7.88398
7.86175
7.83903
7.81583
7.79214
7.76794
7.74323
7.718
7.69224
7.66595
7.63911
7.61171
7.58375
7.55521
7.5261
7.49638
7.46607
7.43514
7.40359
7.3714
7.33857
7.30509
7.27094
7.23612
7.20061
7.1644
7.12749
7.08985
7.05148
8.57331
8.57026
8.56718
8.56334
8.55917
8.55463
8.54976
8.54459
8.53913
8.53341
8.52742
8.52117
8.51466
8.50791
8.5009
8.49365
8.48615
8.4784
8.4704
8.46216
8.45366
8.44491
8.4359
8.42664
8.41711
8.40732
8.39726
8.38693
8.37633
8.36545
8.35428
8.34283
8.33109
8.31905
8.30671
8.29407
8.28112
8.26785
8.25426
8.24034
8.22609
8.21151
8.19658
8.1813
8.16567
8.14968
8.13332
8.11658
8.09946
8.08196
8.06406
8.04576
8.02705
8.00792
7.98838
7.9684
7.94798
7.92712
7.90581
7.88403
7.86179
7.83907
7.81586
7.79216
7.76796
7.74324
7.71801
7.69225
7.66595
7.63911
7.61171
7.58375
7.55521
7.52609
7.49637
7.46606
7.43513
7.40357
7.37139
7.33856
7.30508
7.27093
7.2361
7.2006
7.16439
7.12747
7.08984
7.05147
8.57406
8.571
8.56792
8.56408
8.5599
8.55536
8.55049
8.54531
8.53985
8.53412
8.52812
8.52187
8.51536
8.5086
8.50158
8.49432
8.48681
8.47906
8.47105
8.46279
8.45428
8.44552
8.4365
8.42722
8.41768
8.40788
8.39781
8.38746
8.37684
8.36595
8.35477
8.3433
8.33154
8.31949
8.30713
8.29447
8.2815
8.26821
8.25461
8.24068
8.22641
8.21181
8.19687
8.18157
8.16592
8.14991
8.13354
8.11679
8.09965
8.08214
8.06422
8.04591
8.02719
8.00805
7.98849
7.9685
7.94808
7.92721
7.90589
7.8841
7.86185
7.83912
7.81591
7.7922
7.76799
7.74327
7.71804
7.69227
7.66597
7.63912
7.61172
7.58375
7.55521
7.52609
7.49638
7.46606
7.43513
7.40357
7.37139
7.33856
7.30507
7.27092
7.2361
7.20059
7.16439
7.12747
7.08983
7.05146
8.57474
8.57168
8.5686
8.56476
8.56058
8.55603
8.55116
8.54598
8.54052
8.53478
8.52878
8.52252
8.516
8.50924
8.50222
8.49495
8.48743
8.47967
8.47165
8.46339
8.45487
8.4461
8.43707
8.42778
8.41823
8.40841
8.39833
8.38797
8.37734
8.36643
8.35524
8.34375
8.33198
8.31991
8.30754
8.29487
8.28188
8.26858
8.25496
8.24101
8.22673
8.21212
8.19716
8.18185
8.16619
8.15016
8.13377
8.11701
8.09986
8.08233
8.06441
8.04608
8.02735
8.0082
7.98863
7.96863
7.94819
7.92731
7.90598
7.88419
7.86193
7.83919
7.81597
7.79226
7.76805
7.74332
7.71808
7.69231
7.666
7.63915
7.61175
7.58378
7.55523
7.52611
7.49639
7.46607
7.43514
7.40358
7.37139
7.33856
7.30508
7.27093
7.2361
7.20059
7.16438
8.57538
8.5723
8.56923
8.56539
8.56121
8.55666
8.55178
8.5466
8.54114
8.5354
8.52939
8.52313
8.51661
8.50983
8.50281
8.49554
8.48801
8.48024
8.47222
8.46395
8.45542
8.44664
8.4376
8.4283
8.41874
8.40892
8.39882
8.38846
8.37782
8.36689
8.35569
8.3442
8.33241
8.32033
8.30795
8.29526
8.28226
8.26895
8.25531
8.24135
8.22706
8.21243
8.19746
8.18214
8.16646
8.15042
8.13402
8.11724
8.10008
8.08254
8.0646
8.04627
8.02752
8.00836
7.98878
7.96877
7.94833
7.92744
7.9061
7.8843
7.86203
7.83928
7.81606
7.79234
7.76811
7.74338
7.71814
7.69236
7.66605
7.63919
7.61178
7.58381
7.55526
7.52614
7.49641
7.46609
7.43516
7.4036
7.37141
7.33857
7.30509
7.27094
7.23611
7.2006
7.16439
8.57596
8.57289
8.56982
8.56597
8.56179
8.55724
8.55236
8.54718
8.54171
8.53597
8.52996
8.52369
8.51717
8.51039
8.50336
8.49608
8.48856
8.48078
8.47275
8.46447
8.45594
8.44715
8.43811
8.4288
8.41924
8.4094
8.3993
8.38892
8.37827
8.36734
8.35613
8.34462
8.33283
8.32074
8.30834
8.29564
8.28263
8.26931
8.25566
8.24169
8.22739
8.21274
8.19776
8.18243
8.16674
8.15069
8.13427
8.11748
8.10032
8.08276
8.06481
8.04646
8.02771
8.00854
7.98895
7.96893
7.94848
7.92758
7.90623
7.88442
7.86214
7.83939
7.81615
7.79243
7.7682
7.74346
7.71821
7.69243
7.66611
7.63925
7.61184
7.58386
7.55531
7.52618
7.49645
7.46612
7.43519
7.40363
7.37143
7.3386
7.30511
7.27096
7.23613
7.20061
7.1644
8.57652
8.57343
8.57036
8.56651
8.56234
8.55778
8.5529
8.54772
8.54225
8.5365
8.53049
8.52422
8.51769
8.51091
8.50388
8.4966
8.48907
8.48129
8.47326
8.46497
8.45643
8.44764
8.43859
8.42928
8.4197
8.40986
8.39975
8.38937
8.37871
8.36777
8.35655
8.34503
8.33323
8.32113
8.30873
8.29602
8.283
8.26966
8.25601
8.24202
8.22771
8.21306
8.19806
8.18272
8.16702
8.15096
8.13453
8.11773
8.10055
8.08299
8.06503
8.04667
8.02791
8.00873
7.98913
7.9691
7.94864
7.92773
7.90637
7.88455
7.86227
7.83951
7.81626
7.79253
7.7683
7.74355
7.71829
7.69251
7.66618
7.63932
7.6119
7.58392
7.55536
7.52623
7.4965
7.46617
7.43523
7.40366
7.37147
7.33863
7.30514
7.27098
7.23615
7.20064
7.16442
8.57703
8.57395
8.57087
8.56703
8.56285
8.55829
8.55341
8.54822
8.54275
8.53701
8.53099
8.52472
8.51819
8.51141
8.50437
8.49709
8.48955
8.48177
8.47373
8.46544
8.4569
8.4481
8.43904
8.42973
8.42015
8.4103
8.40018
8.38979
8.37913
8.36818
8.35695
8.34543
8.33362
8.32151
8.3091
8.29638
8.28336
8.27001
8.25635
8.24235
8.22803
8.21337
8.19836
8.18301
8.1673
8.15123
8.1348
8.11799
8.1008
8.08322
8.06526
8.04689
8.02811
8.00893
7.98932
7.96928
7.94881
7.92789
7.90652
7.8847
7.86241
7.83964
7.81639
7.79265
7.76841
7.74366
7.71839
7.6926
7.66627
7.6394
7.61198
7.58399
7.55543
7.52629
7.49656
7.46622
7.43528
7.40371
7.37151
7.33867
7.30518
7.27102
7.23619
7.20067
7.16445
8.57751
8.57443
8.57136
8.56751
8.56333
8.55877
8.55389
8.5487
8.54323
8.53748
8.53146
8.52519
8.51866
8.51187
8.50483
8.49755
8.49001
8.48222
8.47418
8.46589
8.45734
8.44854
8.43948
8.43016
8.42057
8.41072
8.4006
8.3902
8.37953
8.36858
8.35734
8.34582
8.334
8.32188
8.30946
8.29674
8.28371
8.27035
8.25668
8.24268
8.22835
8.21368
8.19867
8.1833
8.16759
8.15151
8.13506
8.11825
8.10105
8.08346
8.06549
8.04711
8.02833
8.00913
7.98951
7.96947
7.94899
7.92806
7.90669
7.88486
7.86256
7.83978
7.81652
7.79278
7.76853
7.74377
7.7185
7.6927
7.66637
7.63949
7.61206
7.58407
7.55551
7.52636
7.49662
7.46629
7.43534
7.40377
7.37157
7.33872
7.30522
7.27106
7.23623
7.20071
7.16449
8.57797
8.57489
8.57181
8.56796
8.56378
8.55922
8.55434
8.54915
8.54368
8.53793
8.53191
8.52563
8.5191
8.51231
8.50527
8.49798
8.49044
8.48265
8.47461
8.46631
8.45776
8.44896
8.43989
8.43057
8.42098
8.41112
8.40099
8.39059
8.37992
8.36896
8.35772
8.34619
8.33436
8.32224
8.30982
8.29709
8.28405
8.27069
8.25701
8.243
8.22866
8.21398
8.19896
8.18359
8.16787
8.15178
8.13533
8.11851
8.1013
8.08371
8.06572
8.04734
8.02855
8.00934
7.98972
7.96966
7.94918
7.92824
7.90686
7.88502
7.86271
7.83993
7.81667
7.79291
7.76866
7.7439
7.71862
7.69281
7.66647
7.63959
7.61216
7.58416
7.55559
7.52644
7.4967
7.46636
7.43541
7.40383
7.37163
7.33878
7.30528
7.27112
7.23628
7.20076
7.16454
8.5784
8.57532
8.57224
8.56839
8.56421
8.55965
8.55476
8.54958
8.5441
8.53835
8.53233
8.52605
8.51952
8.51273
8.50569
8.4984
8.49085
8.48306
8.47501
8.46672
8.45816
8.44935
8.44029
8.43096
8.42136
8.4115
8.40137
8.39097
8.38029
8.36933
8.35808
8.34654
8.33472
8.32259
8.31016
8.29742
8.28438
8.27101
8.25733
8.24331
8.22897
8.21428
8.19926
8.18388
8.16815
8.15206
8.1356
8.11876
8.10155
8.08395
8.06596
8.04757
8.02877
8.00956
7.98993
7.96987
7.94937
7.92843
7.90704
7.88519
7.86288
7.84009
7.81682
7.79306
7.7688
7.74403
7.71875
7.69294
7.66659
7.6397
7.61226
7.58426
7.55569
7.52653
7.49679
7.46644
7.43548
7.40391
7.3717
7.33885
7.30534
7.27118
7.23634
7.20081
7.16459
8.57881
8.57573
8.57265
8.5688
8.56462
8.56006
8.55517
8.54998
8.54451
8.53875
8.53273
8.52645
8.51992
8.51313
8.50608
8.49879
8.49124
8.48345
8.4754
8.4671
8.45855
8.44973
8.44066
8.43133
8.42174
8.41187
8.40174
8.39133
8.38065
8.36968
8.35843
8.34689
8.33506
8.32293
8.31049
8.29775
8.2847
8.27133
8.25764
8.24362
8.22927
8.21458
8.19955
8.18416
8.16843
8.15233
8.13586
8.11902
8.1018
8.0842
8.0662
8.0478
8.029
8.00978
7.99014
7.97007
7.94957
7.92862
7.90723
7.88537
7.86305
7.84026
7.81698
7.79321
7.76895
7.74417
7.71888
7.69307
7.66672
7.63982
7.61238
7.58437
7.55579
7.52663
7.49688
7.46653
7.43557
7.40399
7.37178
7.33892
7.30541
7.27125
7.2364
7.20087
7.16465
8.5792
8.57612
8.57303
8.56919
8.565
8.56044
8.55556
8.55037
8.54489
8.53914
8.53312
8.52684
8.5203
8.5135
8.50646
8.49916
8.49162
8.48382
8.47577
8.46747
8.45891
8.4501
8.44102
8.43169
8.42209
8.41223
8.40209
8.39168
8.38099
8.37002
8.35877
8.34722
8.33539
8.32325
8.31081
8.29807
8.28501
8.27164
8.25794
8.24392
8.22956
8.21487
8.19983
8.18444
8.1687
8.15259
8.13612
8.11928
8.10205
8.08444
8.06644
8.04803
8.02922
8.01
7.99035
7.97028
7.94977
7.92882
7.90742
7.88556
7.86323
7.84043
7.81715
7.79337
7.7691
7.74432
7.71902
7.6932
7.66685
7.63995
7.6125
7.58449
7.5559
7.52674
7.49698
7.46663
7.43566
7.40408
7.37186
7.339
7.30549
7.27132
7.23647
7.20094
7.16471
8.57957
8.57649
8.5734
8.56956
8.56537
8.56081
8.55592
8.55073
8.54526
8.5395
8.53348
8.5272
8.52066
8.51387
8.50682
8.49952
8.49198
8.48418
8.47613
8.46782
8.45926
8.45045
8.44137
8.43203
8.42243
8.41257
8.40243
8.39201
8.38132
8.37035
8.35909
8.34755
8.3357
8.32357
8.31112
8.29838
8.28531
8.27194
8.25824
8.24421
8.22985
8.21515
8.20011
8.18471
8.16897
8.15286
8.13638
8.11953
8.1023
8.08468
8.06667
8.04827
8.02945
8.01022
7.99057
7.97049
7.94997
7.92902
7.90761
7.88574
7.86341
7.8406
7.81732
7.79354
7.76926
7.74447
7.71917
7.69334
7.66698
7.64008
7.61263
7.58461
7.55602
7.52685
7.49709
7.46673
7.43576
7.40417
7.37195
7.33909
7.30558
7.2714
7.23655
7.20102
7.16479
8.57992
8.57685
8.57375
8.56991
8.56572
8.56116
8.55628
8.55108
8.54561
8.53985
8.53383
8.52755
8.52101
8.51421
8.50716
8.49987
8.49232
8.48452
8.47646
8.46816
8.4596
8.45078
8.4417
8.43236
8.42276
8.41289
8.40275
8.39233
8.38164
8.37067
8.35941
8.34786
8.33601
8.32387
8.31143
8.29867
8.28561
8.27223
8.25852
8.24449
8.23013
8.21543
8.20038
8.18498
8.16923
8.15312
8.13664
8.11978
8.10255
8.08493
8.06691
8.0485
8.02967
8.01044
7.99078
7.9707
7.95018
7.92922
7.9078
7.88593
7.86359
7.84078
7.81749
7.79371
7.76942
7.74463
7.71932
7.69349
7.66713
7.64022
7.61276
7.58474
7.55614
7.52697
7.49721
7.46684
7.43587
7.40428
7.37205
7.33919
7.30567
7.27149
7.23663
7.2011
7.16486
8.58026
8.57719
8.57409
8.57025
8.56606
8.5615
8.55661
8.55142
8.54594
8.54019
8.53416
8.52788
8.52134
8.51454
8.50749
8.50019
8.49264
8.48484
8.47679
8.46848
8.45992
8.4511
8.44202
8.43268
8.42308
8.4132
8.40306
8.39264
8.38195
8.37097
8.35971
8.34816
8.33631
8.32417
8.31172
8.29896
8.2859
8.27251
8.2588
8.24477
8.2304
8.21569
8.20064
8.18524
8.16949
8.15337
8.13689
8.12003
8.10279
8.08516
8.06714
8.04872
8.0299
8.01066
7.991
7.97091
7.95038
7.92942
7.908
7.88612
7.86378
7.84096
7.81767
7.79388
7.76959
7.74479
7.71948
7.69364
7.66727
7.64036
7.6129
7.58487
7.55627
7.5271
7.49733
7.46696
7.43598
7.40438
7.37216
7.33929
7.30576
7.27158
7.23672
7.20118
7.16494
8.58059
8.57751
8.57441
8.57058
8.56638
8.56182
8.55693
8.55174
8.54626
8.54051
8.53448
8.5282
8.52166
8.51486
8.50781
8.50051
8.49296
8.48516
8.4771
8.46879
8.46023
8.45141
8.44233
8.43299
8.42338
8.41351
8.40336
8.39294
8.38224
8.37126
8.36
8.34845
8.3366
8.32445
8.312
8.29924
8.28617
8.27279
8.25908
8.24504
8.23067
8.21596
8.2009
8.1855
8.16974
8.15362
8.13713
8.12027
8.10303
8.0854
8.06737
8.04895
8.03012
8.01088
7.99121
7.97112
7.95059
7.92962
7.90819
7.88631
7.86397
7.84115
7.81784
7.79405
7.76976
7.74496
7.71964
7.6938
7.66742
7.64051
7.61304
7.58501
7.55641
7.52722
7.49745
7.46708
7.4361
7.4045
7.37226
7.33939
7.30587
7.27168
7.23682
7.20127
7.16503
8.5809
8.57783
8.57472
8.57089
8.56669
8.56213
8.55724
8.55205
8.54657
8.54081
8.53479
8.5285
8.52196
8.51516
8.50811
8.50081
8.49326
8.48546
8.4774
8.46909
8.46053
8.4517
8.44262
8.43328
8.42367
8.4138
8.40365
8.39323
8.38253
8.37155
8.36028
8.34872
8.33687
8.32473
8.31227
8.29951
8.28644
8.27305
8.25934
8.2453
8.23092
8.21621
8.20116
8.18575
8.16999
8.15386
8.13737
8.12051
8.10326
8.08563
8.0676
8.04917
8.03034
8.01109
7.99142
7.97132
7.95079
7.92982
7.90839
7.8865
7.86415
7.84133
7.81802
7.79422
7.76993
7.74512
7.7198
7.69396
7.66758
7.64066
7.61318
7.58515
7.55654
7.52736
7.49758
7.4672
7.43622
7.40461
7.37238
7.3395
7.30597
7.27178
7.23692
7.20137
7.16512
8.58119
8.57812
8.57501
8.57118
8.56699
8.56242
8.55754
8.55234
8.54686
8.5411
8.53508
8.52879
8.52225
8.51545
8.5084
8.5011
8.49355
8.48574
8.47769
8.46938
8.46081
8.45199
8.4429
8.43356
8.42395
8.41407
8.40393
8.3935
8.3828
8.37182
8.36055
8.34899
8.33714
8.32499
8.31254
8.29977
8.2867
8.27331
8.25959
8.24555
8.23117
8.21646
8.2014
8.18599
8.17023
8.1541
8.1376
8.12074
8.10349
8.08585
8.06782
8.04939
8.03055
8.0113
7.99163
7.97153
7.95099
7.93001
7.90858
7.88669
7.86434
7.84151
7.8182
7.7944
7.7701
7.74529
7.71996
7.69411
7.66773
7.64081
7.61333
7.58529
7.55668
7.52749
7.49771
7.46733
7.43634
7.40473
7.37249
7.33961
7.30608
7.27188
7.23702
7.20147
7.16522
8.58148
8.57841
8.57529
8.57146
8.56727
8.56271
8.55782
8.55262
8.54714
8.54139
8.53536
8.52907
8.52253
8.51573
8.50868
8.50138
8.49382
8.48602
8.47796
8.46965
8.46108
8.45226
8.44317
8.43383
8.42422
8.41434
8.40419
8.39377
8.38307
8.37208
8.36081
8.34925
8.3374
8.32525
8.31279
8.30003
8.28695
8.27356
8.25984
8.24579
8.23142
8.2167
8.20164
8.18623
8.17046
8.15433
8.13783
8.12096
8.10371
8.08607
8.06804
8.0496
8.03076
8.01151
7.99183
7.97173
7.95119
7.93021
7.90877
7.88688
7.86452
7.84169
7.81837
7.79457
7.77026
7.74545
7.72012
7.69427
7.66789
7.64096
7.61347
7.58543
7.55682
7.52763
7.49784
7.46746
7.43647
7.40485
7.37261
7.33972
7.30619
7.27199
7.23712
7.20157
8.58175
8.57868
8.57556
8.57174
8.56754
8.56298
8.55809
8.55289
8.54741
8.54165
8.53563
8.52934
8.5228
8.516
8.50894
8.50164
8.49409
8.48628
8.47822
8.46991
8.46134
8.45252
8.44343
8.43409
8.42448
8.4146
8.40445
8.39402
8.38332
8.37233
8.36106
8.3495
8.33765
8.32549
8.31303
8.30027
8.28719
8.2738
8.26008
8.24603
8.23165
8.21693
8.20187
8.18645
8.17068
8.15455
8.13805
8.12118
8.10392
8.08628
8.06825
8.04981
8.03097
8.01171
7.99203
7.97193
7.95138
7.9304
7.90896
7.88706
7.8647
7.84187
7.81855
7.79474
7.77043
7.74562
7.72029
7.69443
7.66804
7.64111
7.61362
7.58558
7.55696
7.52776
7.49797
7.46759
7.43659
7.40497
7.37273
7.33984
7.3063
7.2721
7.23723
7.20167
8.58201
8.57895
8.57582
8.57199
8.5678
8.56323
8.55834
8.55315
8.54767
8.54191
8.53588
8.5296
8.52305
8.51625
8.5092
8.5019
8.49434
8.48653
8.47847
8.47016
8.46159
8.45277
8.44368
8.43434
8.42472
8.41484
8.40469
8.39427
8.38356
8.37257
8.3613
8.34974
8.33788
8.32573
8.31327
8.3005
8.28742
8.27403
8.26031
8.24626
8.23187
8.21715
8.20209
8.18667
8.1709
8.15477
8.13827
8.12139
8.10413
8.08649
8.06845
8.05001
8.03117
8.01191
7.99223
7.97212
7.95157
7.93058
7.90914
7.88724
7.86488
7.84204
7.81872
7.79491
7.7706
7.74578
7.72044
7.69458
7.66819
7.64126
7.61377
7.58572
7.5571
7.5279
7.49811
7.46772
7.43672
7.4051
7.37285
7.33996
7.30641
7.27221
7.23733
7.20177
8.58225
8.5792
8.57606
8.57224
8.56804
8.56348
8.55859
8.5534
8.54791
8.54215
8.53613
8.52984
8.52329
8.51649
8.50944
8.50214
8.49458
8.48677
8.47871
8.4704
8.46183
8.45301
8.44392
8.43457
8.42496
8.41508
8.40492
8.3945
8.38379
8.37281
8.36153
8.34997
8.33811
8.32595
8.31349
8.30073
8.28764
8.27425
8.26052
8.24647
8.23209
8.21737
8.2023
8.18688
8.17111
8.15498
8.13847
8.12159
8.10433
8.08669
8.06865
8.05021
8.03136
8.0121
7.99241
7.9723
7.95175
7.93076
7.90932
7.88742
7.86505
7.84221
7.81889
7.79507
7.77076
7.74594
7.7206
7.69474
7.66834
7.6414
7.61391
7.58586
7.55724
7.52803
7.49824
7.46785
7.43684
7.40522
7.37297
7.34007
7.30653
7.27232
7.23744
7.20188
8.58249
8.57943
8.5763
8.57248
8.56828
8.56371
8.55882
8.55363
8.54815
8.54239
8.53636
8.53007
8.52352
8.51672
8.50967
8.50237
8.49481
8.487
8.47894
8.47063
8.46206
8.45323
8.44414
8.4348
8.42518
8.4153
8.40515
8.39472
8.38401
8.37303
8.36175
8.35019
8.33833
8.32617
8.31371
8.30094
8.28786
8.27446
8.26073
8.24668
8.2323
8.21757
8.20251
8.18709
8.17131
8.15517
8.13867
8.12179
8.10453
8.08688
8.06884
8.0504
8.03155
8.01228
7.9926
7.97248
7.95193
7.93094
7.90949
7.88759
7.86522
7.84238
7.81905
7.79523
7.77092
7.74609
7.72075
7.69489
7.66849
7.64155
7.61405
7.586
7.55737
7.52817
7.49837
7.46797
7.43697
7.40534
7.37309
7.34019
7.30664
7.27243
7.23755
7.20198
8.58271
8.57966
8.57652
8.5727
8.5685
8.56393
8.55904
8.55385
8.54837
8.54261
8.53658
8.53029
8.52374
8.51694
8.50989
8.50258
8.49503
8.48722
8.47916
8.47084
8.46227
8.45345
8.44436
8.43501
8.42539
8.41551
8.40536
8.39493
8.38422
8.37323
8.36196
8.35039
8.33853
8.32637
8.31391
8.30114
8.28806
8.27466
8.26093
8.24688
8.23249
8.21777
8.2027
8.18728
8.1715
8.15536
8.13886
8.12198
8.10471
8.08706
8.06902
8.05058
8.03172
8.01246
7.99277
7.97265
7.9521
7.93111
7.90966
7.88775
7.86538
7.84254
7.81921
7.79539
7.77107
7.74624
7.7209
7.69503
7.66863
7.64169
7.61419
7.58613
7.5575
7.5283
7.4985
7.4681
7.43709
7.40546
7.3732
7.3403
7.30675
7.27254
7.23765
7.20209
8.58292
8.57987
8.57672
8.57291
8.56871
8.56414
8.55925
8.55406
8.54857
8.54281
8.53679
8.5305
8.52395
8.51715
8.51009
8.50279
8.49523
8.48742
8.47936
8.47105
8.46248
8.45365
8.44456
8.43521
8.4256
8.41571
8.40556
8.39513
8.38442
8.37343
8.36215
8.35059
8.33873
8.32657
8.31411
8.30133
8.28825
8.27485
8.26112
8.24707
8.23268
8.21796
8.20288
8.18746
8.17168
8.15554
8.13904
8.12215
8.10489
8.08724
8.06919
8.05075
8.03189
8.01263
7.99294
7.97282
7.95226
7.93127
7.90982
7.88791
7.86554
7.84269
7.81936
7.79554
7.77122
7.74639
7.72104
7.69517
7.66877
7.64182
7.61432
7.58626
7.55763
7.52842
7.49862
7.46822
7.43721
7.40558
7.37332
7.34042
7.30686
7.27265
7.23776
7.20219
8.58311
8.58007
8.57692
8.5731
8.5689
8.56434
8.55945
8.55425
8.54877
8.54301
8.53698
8.53069
8.52414
8.51734
8.51029
8.50298
8.49542
8.48761
8.47955
8.47124
8.46267
8.45384
8.44475
8.4354
8.42578
8.4159
8.40574
8.39531
8.38461
8.37362
8.36234
8.35077
8.33891
8.32675