/*--------------------------------*- C++ -*----------------------------------*\
  =========                 |
  \\      /  F ield         | OpenFOAM: The Open Source CFD Toolbox
   \\    /   O peration     | Website:  https://openfoam.org
    \\  /    A nd           | Version:  10
     \\/     M anipulation  |
\*---------------------------------------------------------------------------*/
FoamFile
{
    format      ascii;
    class       volScalarField;
    location    "10000";
    object      k;
}
// * * * * * * * * * * * * * * * * * * * * * * * * * * * * * * * * * * * * * //

dimensions      [0 2 -2 0 0 0 0];

internalField   nonuniform List<scalar> 
17981
(
0.00241686
0.00248788
0.00255992
0.00263286
0.00270663
0.0027812
0.00285653
0.00293261
0.00300942
0.00308695
0.00316518
0.00324408
0.00332366
0.00340391
0.00348483
0.00356641
0.00364865
0.00373155
0.00381511
0.00389933
0.0039842
0.00406971
0.00415587
0.00424266
0.00433008
0.00441813
0.0045068
0.00459607
0.00468596
0.00477643
0.0048675
0.00495915
0.00505136
0.00514414
0.00523748
0.00533136
0.00542577
0.00552072
0.00561618
0.00571215
0.00580863
0.0059056
0.00600306
0.006101
0.00619941
0.00629829
0.00639762
0.00650182
0.00237963
0.00245229
0.00252582
0.00260016
0.00267526
0.00275107
0.00282755
0.0029047
0.00298248
0.00306085
0.00313982
0.00321936
0.00329948
0.00338018
0.00346144
0.00354328
0.00362569
0.00370867
0.00379223
0.00387636
0.00396107
0.00404635
0.00413221
0.00421864
0.00430565
0.00439323
0.00448137
0.00457009
0.00465937
0.00474921
0.00483961
0.00493055
0.00502204
0.00511408
0.00520665
0.00529975
0.00539337
0.00548751
0.00558216
0.00567732
0.00577298
0.00586913
0.00596577
0.0060629
0.0061605
0.00625857
0.00635711
0.00646072
0.00233947
0.0024138
0.00248893
0.00256483
0.00264146
0.00271876
0.00279666
0.00287512
0.0029541
0.00303359
0.00311357
0.00319402
0.00327495
0.00335634
0.0034382
0.00352053
0.00360333
0.00368661
0.00377037
0.00385462
0.00393936
0.00402459
0.00411032
0.00419656
0.00428331
0.00437056
0.00445833
0.00454662
0.00463542
0.00472474
0.00481457
0.00490492
0.00499578
0.00508716
0.00517904
0.00527144
0.00536434
0.00545774
0.00555164
0.00564604
0.00574093
0.00583631
0.00593217
0.00602852
0.00612534
0.00622263
0.0063204
0.00642366
0.00260497
0.00268421
0.00276393
0.00284408
0.00292463
0.00300557
0.00308689
0.00316856
0.00325058
0.00333296
0.00341569
0.00349878
0.00358223
0.00366605
0.00375025
0.00383483
0.00391981
0.0040052
0.004091
0.00417722
0.00426388
0.00435098
0.00443853
0.00452653
0.004615
0.00470393
0.00479334
0.00488322
0.00497358
0.00506442
0.00515575
0.00524756
0.00533986
0.00543264
0.00552591
0.00561966
0.0057139
0.00580863
0.00590383
0.00599952
0.00609568
0.00619233
0.00628944
0.0063924
0.00256721
0.00264851
0.00273022
0.0028123
0.00289469
0.00297737
0.00306032
0.00314351
0.00322694
0.0033106
0.0033945
0.00347863
0.003563
0.00364762
0.00373251
0.00381767
0.00390312
0.00398887
0.00407494
0.00416135
0.0042481
0.00433521
0.00442269
0.00451056
0.00459883
0.0046875
0.0047766
0.00486612
0.00495609
0.00504649
0.00513735
0.00522867
0.00532045
0.0054127
0.00550542
0.00559861
0.00569229
0.00578645
0.00588109
0.00597621
0.00607182
0.00616791
0.00626453
0.00636733
0.00252738
0.00261105
0.00269509
0.00277942
0.002864
0.00294877
0.00303369
0.00311875
0.00320393
0.00328921
0.0033746
0.00346009
0.0035457
0.00363142
0.00371729
0.0038033
0.00388948
0.00397585
0.00406242
0.00414921
0.00423625
0.00432356
0.00441114
0.00449903
0.00458723
0.00467577
0.00476465
0.00485391
0.00494353
0.00503355
0.00512398
0.00521481
0.00530607
0.00539776
0.00548988
0.00558246
0.00567549
0.00576897
0.00586292
0.00595734
0.00605224
0.00614761
0.00624452
0.00634901
0.00257131
0.00265804
0.00274502
0.00283216
0.0029194
0.00300669
0.003094
0.0031813
0.00326859
0.00335584
0.00344307
0.00353027
0.00361746
0.00370465
0.00379185
0.00387908
0.00396638
0.00405375
0.00414123
0.00422883
0.00431659
0.00440453
0.00449267
0.00458104
0.00466966
0.00475855
0.00484773
0.00493722
0.00502705
0.00511722
0.00520777
0.00529869
0.00539
0.00548173
0.00557388
0.00566646
0.00575948
0.00585295
0.00594689
0.00604129
0.00613617
0.00623364
0.00634006
0.00270855
0.00279869
0.00288881
0.00297888
0.00306884
0.00315867
0.00324835
0.00333788
0.00342723
0.00351642
0.00360546
0.00369435
0.00378311
0.00387177
0.00396035
0.00404887
0.00413736
0.00422585
0.00431437
0.00440296
0.00449164
0.00458044
0.00466939
0.00475853
0.00484788
0.00493747
0.00502732
0.00511746
0.0052079
0.00529868
0.00538982
0.00548132
0.00557321
0.00566551
0.00575823
0.00585138
0.00594498
0.00603903
0.00613356
0.00623147
0.0063394
0.00276348
0.00285673
0.00294986
0.00304279
0.00313549
0.00322794
0.0033201
0.00341198
0.00350356
0.00359485
0.00368586
0.0037766
0.00386709
0.00395735
0.00404741
0.00413729
0.00422703
0.00431667
0.00440623
0.00449576
0.0045853
0.00467487
0.00476452
0.00485429
0.0049442
0.00503429
0.0051246
0.00521515
0.00530597
0.00539709
0.00548853
0.00558032
0.00567248
0.00576503
0.00585798
0.00595136
0.00604519
0.00613947
0.0062377
0.00634664
0.0029188
0.00301504
0.00311093
0.00320645
0.00330163
0.00339642
0.0034908
0.00358478
0.00367835
0.00377151
0.00386428
0.00395667
0.00404872
0.00414043
0.00423184
0.004323
0.00441393
0.00450468
0.00459529
0.0046858
0.00477626
0.00486672
0.00495721
0.00504779
0.00513848
0.00522933
0.00532038
0.00541166
0.0055032
0.00559504
0.00568721
0.00577972
0.0058726
0.00596589
0.00605959
0.00615373
0.0062521
0.00636149
0.00328131
0.00337951
0.00347715
0.00357426
0.00367083
0.00376687
0.0038624
0.00395741
0.00405193
0.00414597
0.00423956
0.00433272
0.00442548
0.0045179
0.00461
0.00470184
0.00479347
0.00488495
0.00497632
0.00506764
0.00515896
0.00525034
0.00534182
0.00543344
0.00552525
0.0056173
0.0057096
0.00580221
0.00589516
0.00598847
0.00608216
0.00617628
0.00627463
0.00638383
0.00326004
0.00336159
0.00346252
0.00356287
0.00366263
0.00376182
0.00386044
0.00395847
0.00405593
0.0041528
0.00424909
0.0043448
0.00443996
0.00453459
0.00462872
0.00472239
0.00481566
0.00490858
0.00500121
0.00509361
0.00518585
0.005278
0.00537012
0.00546228
0.00555453
0.00564692
0.00573949
0.00583231
0.0059254
0.00601881
0.00611257
0.00620671
0.00630481
0.0064132
0.00323656
0.0033416
0.00344595
0.00354966
0.00365275
0.00375525
0.00385715
0.00395846
0.00405915
0.00415919
0.00425856
0.00435731
0.00445543
0.00455291
0.00464974
0.00474595
0.00484154
0.00493656
0.00503106
0.0051251
0.00521875
0.0053121
0.00540523
0.00549822
0.00559115
0.00568408
0.0057771
0.00587026
0.00596362
0.00605723
0.00615115
0.0062454
0.00634316
0.00645038
0.00321118
0.00331999
0.003428
0.00353531
0.00364198
0.00374808
0.00385361
0.00395834
0.00406211
0.004165
0.00426707
0.00436838
0.00446902
0.00456904
0.00466853
0.00476756
0.0048662
0.00496454
0.0050623
0.00515923
0.00525538
0.00535086
0.00544575
0.00554018
0.00563426
0.00572812
0.00582187
0.0059156
0.0060094
0.00610336
0.00619754
0.00629199
0.00638922
0.00649465
0.00329655
0.00340872
0.00352013
0.00363094
0.0037411
0.00385029
0.00395831
0.00406522
0.00417109
0.00427599
0.00438
0.00448318
0.00458561
0.00468736
0.0047885
0.0048891
0.00498922
0.00508895
0.00518833
0.00528745
0.00538639
0.005485
0.00558281
0.00567965
0.00577572
0.00587117
0.00596621
0.00606101
0.00615572
0.00625046
0.00634533
0.00644196
0.00654519
0.00327123
0.00338772
0.0035034
0.00361854
0.00373278
0.00384566
0.00395721
0.00406749
0.00417657
0.00428454
0.00439145
0.00449739
0.00460244
0.00470667
0.00481016
0.00491299
0.00501523
0.00511696
0.00521824
0.00531914
0.00541974
0.00552008
0.00562025
0.0057203
0.00582031
0.0059197
0.00601795
0.00611523
0.00621181
0.00630793
0.00640382
0.00650011
0.00660109
0.00324292
0.00336395
0.00348411
0.00360363
0.00372206
0.00383893
0.00395429
0.00406822
0.00418077
0.00429204
0.0044021
0.00451103
0.00461892
0.00472585
0.0048319
0.00493716
0.00504171
0.00514562
0.00524898
0.00535185
0.00545432
0.00555645
0.0056583
0.00575995
0.00586145
0.00596286
0.00606425
0.00616568
0.00626642
0.00636583
0.00646422
0.0065618
0.0066619
0.0033365
0.00346138
0.00358549
0.00370841
0.00382957
0.00394903
0.00406687
0.00418316
0.00429798
0.00441142
0.00452357
0.00463451
0.00474435
0.00485315
0.00496103
0.00506806
0.00517432
0.00527992
0.00538491
0.00548939
0.00559343
0.0056971
0.00580047
0.00590361
0.00600659
0.00610946
0.00621229
0.00631513
0.00641805
0.00652086
0.00662254
0.00672416
0.00330535
0.00343503
0.00356389
0.0036915
0.00381718
0.00394099
0.004063
0.00418327
0.00430189
0.00441896
0.00453456
0.00464879
0.00476174
0.00487351
0.0049842
0.00509389
0.00520268
0.00531065
0.0054179
0.00552451
0.00563057
0.00573614
0.00584131
0.00594616
0.00605074
0.00615514
0.00625942
0.00636363
0.00646784
0.0065721
0.00667648
0.00678135
0.00326956
0.00340425
0.00353801
0.0036705
0.00380101
0.00392946
0.00405592
0.00418047
0.00430319
0.00442417
0.00454351
0.0046613
0.00477764
0.00489264
0.00500639
0.00511898
0.00523052
0.0053411
0.0054508
0.00555972
0.00566795
0.00577556
0.00588263
0.00598925
0.00609549
0.00620142
0.0063071
0.0064126
0.00651798
0.00662331
0.00672863
0.00683402
0.0032284
0.00336833
0.00350711
0.00364466
0.00378026
0.00391364
0.00404485
0.00417397
0.00430109
0.00442629
0.00454968
0.00467136
0.00479143
0.00490998
0.00502714
0.00514299
0.00525763
0.00537117
0.0054837
0.00559531
0.00570609
0.00581612
0.00592549
0.00603428
0.00614257
0.00625042
0.00635791
0.00646511
0.00657207
0.00667886
0.00678554
0.00689216
0.00318113
0.00332648
0.00347043
0.0036132
0.00375412
0.00389265
0.00402885
0.00416279
0.00429456
0.00442425
0.00455197
0.00467781
0.0048019
0.00492433
0.00504521
0.00516466
0.00528277
0.00539966
0.00551541
0.00563014
0.00574393
0.00585687
0.00596906
0.00608059
0.00619152
0.00630195
0.00641195
0.00652158
0.00663093
0.00674006
0.00684904
0.00695792
0.00312712
0.00327801
0.00342725
0.00357535
0.00372172
0.00386555
0.0040069
0.00414583
0.00428242
0.00441678
0.004549
0.0046792
0.00480748
0.00493397
0.00505877
0.005182
0.00530377
0.00542419
0.00554335
0.00566138
0.00577836
0.00589439
0.00600957
0.00612398
0.00623771
0.00635085
0.00646346
0.00657563
0.00668743
0.00679893
0.0069102
0.0070213
0.00306591
0.00322247
0.00337713
0.00353048
0.00368223
0.00383151
0.00397813
0.00412217
0.0042637
0.00440283
0.00453966
0.00467431
0.00480689
0.00493752
0.00506633
0.00519342
0.00531892
0.00544295
0.00556561
0.005687
0.00580724
0.00592643
0.00604465
0.00616201
0.0062786
0.00639449
0.00650977
0.00662451
0.0067388
0.00685269
0.00696627
0.00707959
0.0029971
0.00315943
0.00331964
0.00347817
0.00363523
0.00379004
0.00394202
0.00409124
0.00423778
0.00438174
0.00452323
0.00466237
0.00479927
0.00493408
0.00506691
0.00519789
0.00532714
0.00545478
0.00558094
0.00570571
0.00582922
0.00595157
0.00607286
0.00619318
0.00631263
0.0064313
0.00654927
0.00666662
0.00678343
0.00689977
0.00701571
0.00713131
0.00292037
0.00308852
0.00325434
0.00341813
0.00358051
0.00374086
0.00389824
0.00405268
0.00420427
0.00435309
0.00449926
0.00464291
0.00478415
0.00492312
0.00505996
0.00519479
0.00532776
0.00545898
0.00558858
0.00571668
0.00584341
0.00596886
0.00609315
0.00621638
0.00633865
0.00646005
0.00658066
0.00670057
0.00681987
0.00693862
0.00705689
0.00717477
0.00283555
0.00300956
0.00318112
0.00335036
0.00351787
0.00368354
0.00384643
0.00400619
0.0041629
0.00431665
0.00446754
0.00461571
0.00476129
0.00490442
0.00504524
0.00518389
0.0053205
0.00545523
0.00558819
0.00571953
0.00584936
0.0059778
0.00610497
0.00623097
0.00635592
0.0064799
0.00660302
0.00672535
0.00684698
0.006968
0.00708848
0.00720849
0.00274239
0.00292228
0.00309966
0.00327448
0.00344712
0.00361805
0.00378652
0.00395168
0.00411358
0.00427231
0.00442799
0.00458073
0.00473067
0.00487797
0.00502275
0.00516519
0.00530541
0.00544358
0.00557983
0.0057143
0.00584711
0.00597841
0.00610831
0.00623692
0.00636436
0.00649073
0.00661612
0.00674064
0.00686437
0.0069874
0.00710981
0.00723167
0.00264071
0.00282641
0.00300965
0.0031902
0.00336817
0.00354433
0.00371828
0.00388894
0.00405614
0.00421997
0.00438052
0.00453792
0.0046923
0.00484381
0.00499262
0.00513886
0.00528271
0.00542431
0.00556382
0.00570138
0.00583714
0.00597121
0.00610375
0.00623486
0.00636466
0.00649326
0.00662076
0.00674727
0.00687288
0.00699767
0.00712172
0.00724512
0.00272172
0.00291091
0.00309735
0.00328097
0.00346218
0.00364138
0.00381772
0.0039904
0.00415947
0.00432504
0.00448722
0.00464616
0.00480201
0.00495493
0.00510508
0.00525263
0.00539774
0.00554057
0.00568128
0.00582002
0.00595693
0.00609214
0.00622578
0.00635799
0.00648886
0.00661852
0.00674706
0.00687459
0.00700119
0.00712696
0.00725197
0.00260851
0.00280345
0.00299574
0.00318508
0.00337157
0.00355607
0.00373805
0.00391629
0.00409075
0.00426148
0.00442861
0.00459226
0.00475259
0.00490977
0.00506396
0.00521535
0.00536409
0.00551037
0.00565435
0.00579619
0.00593603
0.00607403
0.00621032
0.00634503
0.00647829
0.00661022
0.00674091
0.00687047
0.00699901
0.00712661
0.00725336
0.0024866
0.00268712
0.00288525
0.00308048
0.00327265
0.00346218
0.00364945
0.00383352
0.00401359
0.00418972
0.00436199
0.00453056
0.00469556
0.00485718
0.00501559
0.00517098
0.00532352
0.00547339
0.00562079
0.00576586
0.00590878
0.0060497
0.00618877
0.00632613
0.0064619
0.00659621
0.00672918
0.00686091
0.00699151
0.00712107
0.00724968
0.00235611
0.00256185
0.00276563
0.00296676
0.00316477
0.00335967
0.00355232
0.00374219
0.00392802
0.00410971
0.00428734
0.00446102
0.0046309
0.00479716
0.00495997
0.00511954
0.00527605
0.00542969
0.00558065
0.00572912
0.00587526
0.00601924
0.00616123
0.00630136
0.00643977
0.0065766
0.00671197
0.00684599
0.00697877
0.00711041
0.00724101
0.00284384
0.00304799
0.0032488
0.0034466
0.0036419
0.00383377
0.00402128
0.0042045
0.00438353
0.00455852
0.00472963
0.00489706
0.005061
0.00522166
0.00537924
0.00553394
0.00568595
0.00583546
0.00598264
0.00612767
0.00627071
0.00641189
0.00655136
0.00668925
0.00682567
0.00696075
0.00709459
0.00722728
0.00271238
0.00292244
0.00312918
0.00333252
0.00353323
0.00373096
0.00392445
0.00411344
0.00429803
0.00447833
0.00465451
0.00482676
0.00499528
0.00516029
0.00532199
0.00548061
0.00563634
0.00578937
0.00593988
0.00608808
0.00623413
0.00637819
0.00652041
0.00666093
0.00679987
0.00693736
0.00707351
0.0072084
0.00257214
0.00278798
0.00300075
0.00321003
0.003416
0.00361926
0.00381894
0.00401395
0.00420433
0.00439018
0.00457166
0.00474896
0.00492228
0.00509184
0.00525786
0.00542055
0.00558011
0.00573678
0.00589076
0.00604226
0.00619147
0.00633855
0.00648366
0.00662694
0.00676854
0.00690858
0.00704716
0.0071844
0.00242329
0.00264458
0.00286328
0.00307861
0.00329033
0.00349905
0.00370464
0.00390587
0.00410227
0.00429391
0.00448093
0.0046635
0.00484184
0.00501616
0.00518666
0.00535357
0.00551713
0.00567759
0.0058352
0.00599015
0.00614265
0.00629288
0.00644102
0.00658721
0.0067316
0.00687432
0.00701548
0.0071552
0.00226624
0.00249248
0.00271684
0.00293823
0.00315603
0.0033702
0.0035815
0.00378909
0.00399171
0.00418937
0.00438216
0.00457025
0.00475383
0.00493312
0.00510827
0.00527957
0.0054473
0.00561173
0.00577311
0.00593166
0.0060876
0.00624113
0.00639244
0.00654167
0.00668899
0.00683453
0.00697841
0.00712075
0.00210164
0.00233205
0.00256161
0.00278886
0.00301282
0.00323301
0.00344979
0.00366333
0.00387244
0.00407638
0.0042752
0.00446906
0.00465813
0.00484256
0.00502258
0.00519848
0.00537056
0.00553912
0.00570443
0.00586673
0.00602626
0.00618323
0.00633784
0.00649026
0.00664065
0.00678915
0.0069359
0.007081
0.00193034
0.00216386
0.00239788
0.00263057
0.00286055
0.00308692
0.0033094
0.00352884
0.00374449
0.00395486
0.00415993
0.00435979
0.00455459
0.00474442
0.00492952
0.00511022
0.00528684
0.00545971
0.00562911
0.00579531
0.00595858
0.00611913
0.00627719
0.00643294
0.00658654
0.00673816
0.00688792
0.00703595
0.00175355
0.00198874
0.00222623
0.00246371
0.0026994
0.002932
0.00316077
0.00338573
0.00360731
0.00382446
0.00403608
0.00424224
0.00444305
0.00463854
0.00482897
0.00501469
0.00519606
0.00537342
0.00554708
0.00571735
0.0058845
0.00604879
0.00621044
0.00636966
0.00652663
0.00668151
0.00683445
0.00698557
0.00157284
0.0018078
0.00204734
0.00228863
0.0025294
0.00276793
0.00300301
0.00323405
0.00346154
0.00368519
0.00390358
0.00411628
0.00432338
0.00452481
0.00472083
0.00491181
0.00509814
0.00528018
0.00545828
0.00563278
0.00580397
0.00597215
0.00613755
0.0063004
0.00646089
0.0066192
0.00677547
0.00692984
0.00139026
0.00162255
0.00186229
0.00210603
0.00235097
0.00259489
0.00283614
0.00307362
0.00330696
0.00353678
0.00376214
0.00398166
0.00419534
0.00440302
0.00460492
0.00480143
0.00499295
0.00517988
0.00536262
0.00554152
0.00571693
0.00588915
0.00605846
0.00622509
0.00638926
0.00655116
0.00671095
0.00686876
0.00120842
0.00143499
0.00167252
0.00191688
0.00216467
0.00241311
0.00266007
0.00290393
0.00314374
0.00337952
0.00361138
0.00383805
0.00405863
0.00427292
0.00448103
0.00468335
0.00488033
0.0050724
0.00525998
0.00544348
0.00562327
0.00579971
0.00597308
0.00614366
0.00631168
0.00647735
0.00664082
0.00680226
0.00103057
0.00124771
0.00147996
0.00172255
0.00197138
0.00222308
0.00247491
0.00272475
0.00297108
0.0032131
0.00345145
0.00368529
0.00391301
0.00413425
0.0043489
0.00455737
0.00476009
0.00495754
0.0051502
0.0053385
0.00552287
0.00570369
0.0058813
0.00605601
0.00622805
0.00639767
0.00656503
0.0067303
0.000860644
0.00106397
0.00128718
0.00152494
0.00177245
0.00202564
0.00228115
0.00253627
0.00278895
0.00303777
0.0032822
0.00352261
0.00375786
0.00398652
0.00420815
0.00442313
0.00463195
0.00483509
0.00503308
0.00522641
0.00541556
0.00560096
0.005783
0.005962
0.00613826
0.00631201
0.00648347
0.00665278
0.00070307
0.000887782
0.00109749
0.0013266
0.00156971
0.00182202
0.00207946
0.00233867
0.00259699
0.0028524
0.00310361
0.00335054
0.00359295
0.00382938
0.00405841
0.00428033
0.0044956
0.00470477
0.00490839
0.00510701
0.00530116
0.00549134
0.00567799
0.00586148
0.00604214
0.00622024
0.006396
0.00656959
0.000562445
0.00072375
0.000914957
0.00113085
0.00136568
0.00161401
0.00187101
0.00213261
0.00239547
0.00265691
0.00291499
0.00316857
0.00341802
0.00366232
0.00389921
0.00412852
0.00435069
0.00456627
0.00477584
0.00498004
0.00517945
0.00537463
0.0055661
0.00575428
0.00593955
0.0061222
0.0063025
0.00648061
0.000442787
0.000576748
0.000744369
0.00094186
0.00116375
0.00140417
0.00165761
0.00191924
0.00218496
0.00245142
0.00271598
0.00297676
0.00323293
0.00348454
0.0037299
0.00396717
0.00419676
0.00441919
0.00463512
0.00484522
0.00505017
0.0052506
0.00544711
0.00564019
0.00583027
0.00601771
0.00620278
0.00638568
0.000346505
0.000451163
0.000590874
0.000764601
0.000968172
0.00119589
0.00144177
0.00170026
0.00196647
0.00223629
0.00250633
0.00277396
0.00303739
0.00329629
0.00355001
0.00379577
0.00403331
0.00426312
0.00448586
0.00470225
0.00491305
0.00511901
0.00532079
0.00551899
0.00571412
0.00590657
0.00609666
0.00628463
0.00027351
0.000349844
0.000459271
0.000604527
0.000784129
0.000993572
0.00122696
0.00147823
0.00174173
0.00201253
0.00228647
0.00256013
0.00283089
0.00309709
0.0033587
0.00361358
0.00385971
0.0040975
0.00432758
0.00455072
0.00476776
0.00497955
0.00518688
0.00539044
0.00559084
0.00578855
0.00598394
0.00617727
0.000221072
0.000273043
0.00035285
0.000466836
0.00061738
0.000802605
0.00101772
0.00125666
0.00151326
0.00178179
0.00205725
0.00233539
0.00261275
0.00288671
0.00315592
0.00341972
0.00367519
0.00392168
0.00415975
0.00439019
0.00461392
0.00483191
0.00504508
0.00525426
0.00546018
0.00566341
0.00586437
0.00606339
0.000184699
0.00021807
0.000272176
0.000355253
0.000473535
0.000629079
0.00081967
0.00104028
0.00128469
0.00154662
0.00182025
0.00210047
0.00238292
0.00266405
0.00294127
0.00321377
0.00347897
0.00373492
0.00398171
0.0042201
0.00445107
0.00467569
0.00489505
0.00511014
0.00532184
0.00553084
0.00573768
0.00594271
0.000180165
0.000214563
0.000270663
0.00035677
0.000479047
0.00063928
0.00083498
0.00106092
0.00131076
0.00157809
0.00185696
0.00214212
0.00242906
0.00271417
0.00299492
0.00327
0.00353625
0.00379263
0.00403978
0.00427865
0.00451044
0.00473639
0.00495771
0.00517547
0.00539052
0.00560353
0.00581493
0.000154691
0.000175549
0.000210662
0.000268354
0.000357201
0.000483109
0.000647674
0.000848213
0.00107935
0.00133463
0.00160748
0.00189181
0.00218215
0.00247384
0.00276313
0.00304773
0.00332449
0.00359153
0.0038484
0.00409601
0.00433562
0.00456866
0.00479659
0.0050207
0.00524209
0.00546157
0.00567971
0.000170854
0.000206538
0.000265355
0.000356464
0.000485499
0.000653971
0.000859072
0.00109531
0.00135609
0.00163468
0.00192475
0.0022206
0.00251731
0.002811
0.003099
0.00337741
0.00364504
0.00390236
0.0041506
0.00439135
0.00462631
0.0048571
0.00508511
0.00531139
0.00553664
0.000144759
0.00016599
0.000201996
0.000261444
0.000354152
0.000485869
0.000657859
0.00086728
0.00110858
0.00137502
0.00165967
0.00195591
0.0022577
0.00255984
0.00285836
0.00314869
0.00342839
0.00369667
0.00395459
0.00420383
0.00444637
0.00468422
0.00491914
0.00515251
0.00538526
0.000139673
0.000160893
0.000196986
0.000256746
0.000350322
0.000484123
0.000659159
0.000872649
0.00111901
0.00139136
0.0016825
0.00198543
0.00229369
0.00260172
0.00290464
0.00319703
0.00347772
0.00374661
0.00400535
0.00425617
0.00450151
0.00474364
0.00498438
0.005225
0.000122131
0.000134487
0.00015554
0.000191447
0.000251087
0.000344853
0.000480076
0.000657657
0.000874985
0.00112649
0.00140511
0.00170328
0.00201351
0.00232881
0.00264316
0.00294958
0.00324401
0.00352541
0.00379494
0.00405495
0.00430833
0.00455798
0.00480636
0.0050552
0.0001098
0.000117036
0.000129165
0.000149872
0.000185272
0.000244271
0.000337542
0.00047351
0.000653142
0.000874119
0.00113092
0.00141629
0.00172219
0.00204048
0.00236347
0.00268428
0.00299341
0.00328921
0.00357124
0.0038417
0.00410388
0.00436144
0.00461769
0.00487505
0.00010488
0.000111912
0.000123709
0.000143868
0.000178406
0.000236214
0.000328279
0.000464269
0.000645436
0.000869906
0.00113228
0.00142503
0.00173956
0.00206694
0.00239862
0.00272404
0.00303578
0.00333254
0.00361519
0.00388724
0.00415321
0.00441752
0.00468364
9.58775e-05
0.000100009
0.000106773
0.00011812
0.000137522
0.000170837
0.000226896
0.000317009
0.000452247
0.000634404
0.000862235
0.00113052
0.00143141
0.00175551
0.00209278
0.00243347
0.00276307
0.00307677
0.00337384
0.0036573
0.00393238
0.00420494
0.00447994
9.12357e-05
9.51815e-05
0.000101622
0.00011241
0.000130854
0.000162596
0.000216352
0.00030376
0.000437394
0.000620034
0.000851186
0.00112591
0.00143598
0.00177103
0.00211962
0.00246807
0.00280093
0.00311546
0.00341264
0.00369798
0.00397901
0.00426283
8.42433e-05
8.66936e-05
9.04186e-05
9.64756e-05
0.000106599
0.000123899
0.000153758
0.000204731
0.000288794
0.000419958
0.000602568
0.000837072
0.00111893
0.00143943
0.0017869
0.00214804
0.00250243
0.00283737
0.00315147
0.00344891
0.00373879
0.00403116
7.83885e-05
7.99156e-05
8.22272e-05
8.57113e-05
9.13333e-05
0.000100704
0.000116711
0.000144442
0.000192257
0.000272462
0.000400463
0.000582557
0.000820546
0.00111043
0.00144282
0.00180413
0.00217833
0.00253665
0.00287142
0.00318376
0.0034833
0.00378369
7.42499e-05
7.56769e-05
7.78257e-05
8.10498e-05
8.61971e-05
9.47487e-05
0.000109358
0.000134794
0.000179176
0.000255089
0.000379465
0.000560784
0.000802737
0.00110207
0.00144856
0.00182619
0.0022093
0.00256885
0.00290042
0.00321139
0.00351914
6.93449e-05
7.01652e-05
7.14775e-05
7.34505e-05
7.64018e-05
8.10443e-05
8.87353e-05
0.000101891
0.000124948
0.000165741
0.000237104
0.000357613
0.000538106
0.000784713
0.00109507
0.00145759
0.00185262
0.00224037
0.0025961
0.00292173
0.00323629
6.47864e-05
6.52763e-05
6.60398e-05
6.72272e-05
6.90158e-05
7.16867e-05
7.58132e-05
8.26349e-05
9.43378e-05
0.000115019
0.000152212
0.000218968
0.0003356
0.00051551
0.000767778
0.00109098
0.00147126
0.00188311
0.0022673
0.00261256
0.00293422
6.05817e-05
6.10571e-05
6.17558e-05
6.2811e-05
6.44138e-05
6.67974e-05
7.04272e-05
7.64108e-05
8.67192e-05
0.000105138
0.000138909
0.000201299
0.000314306
0.000494493
0.000754305
0.0010935
0.00149514
0.00190976
0.00228133
0.0026125
5.57535e-05
5.6086e-05
5.65358e-05
5.7173e-05
5.81076e-05
5.95298e-05
6.16269e-05
6.48044e-05
7.00104e-05
7.90423e-05
9.54158e-05
0.000126143
0.000184798
0.000294755
0.000476264
0.000745473
0.00110257
0.00152392
0.00192629
0.00227165
5.04908e-05
5.07769e-05
5.11219e-05
5.15638e-05
5.21587e-05
5.29993e-05
5.42528e-05
5.60932e-05
5.88854e-05
6.34035e-05
7.132e-05
8.5934e-05
0.000114099
0.000169821
0.000277946
0.00046283
0.000744695
0.00112274
0.00154817
0.00191315
4.45757e-05
4.48733e-05
4.52044e-05
4.55866e-05
4.60464e-05
4.66276e-05
4.74056e-05
4.85142e-05
5.01452e-05
5.26132e-05
5.65651e-05
6.35625e-05
7.67596e-05
0.00010297
0.000156886
0.000265113
0.000456478
0.000754831
0.00115324
0.00154093
3.79282e-05
3.8246e-05
3.85974e-05
3.89891e-05
3.9429e-05
3.99325e-05
4.05315e-05
4.12841e-05
4.22971e-05
4.37794e-05
4.5987e-05
4.95298e-05
5.58187e-05
6.79753e-05
9.29357e-05
0.000146483
0.000257444
0.000459246
0.000776106
0.00116615
3.05642e-05
3.08551e-05
3.12055e-05
3.16155e-05
3.20831e-05
3.26076e-05
3.31906e-05
3.38486e-05
3.46256e-05
3.56124e-05
3.69933e-05
3.90345e-05
4.23256e-05
4.81543e-05
5.97087e-05
8.42767e-05
0.000139426
0.000256979
0.000474504
0.000804311
2.25864e-05
2.28307e-05
2.31451e-05
2.3539e-05
2.40082e-05
2.45439e-05
2.5146e-05
2.58141e-05
2.65583e-05
2.74103e-05
2.84427e-05
2.98049e-05
3.18108e-05
3.49977e-05
4.06764e-05
5.20949e-05
7.72208e-05
0.00013659
0.000264766
0.000496489
1.43646e-05
1.45789e-05
1.48296e-05
1.51289e-05
1.55017e-05
1.59562e-05
1.64976e-05
1.71307e-05
1.78597e-05
1.86915e-05
1.96481e-05
2.07859e-05
2.22383e-05
2.43069e-05
2.75696e-05
3.33994e-05
4.50957e-05
7.1612e-05
0.000138305
0.000278474
6.97163e-06
7.17328e-06
7.34456e-06
7.52254e-06
7.73407e-06
8.01101e-06
8.37294e-06
8.832e-06
9.39932e-06
1.00868e-05
1.09085e-05
1.18876e-05
1.30823e-05
1.4622e-05
1.67888e-05
2.02394e-05
2.63365e-05
3.87005e-05
6.85307e-05
0.000151456
2.15996e-06
2.27539e-06
2.37401e-06
2.46265e-06
2.54845e-06
2.65293e-06
2.7961e-06
2.99041e-06
3.25306e-06
3.60642e-06
4.07458e-06
4.68261e-06
5.46678e-06
6.49169e-06
7.89402e-06
9.9827e-06
1.34944e-05
2.03122e-05
3.72487e-05
9.27293e-05
3.93079e-07
3.98864e-07
3.92973e-07
3.82479e-07
3.75459e-07
3.75103e-07
3.87421e-07
4.22372e-07
4.86885e-07
5.88631e-07
7.36661e-07
9.43558e-07
1.23055e-06
1.63434e-06
2.22351e-06
3.13923e-06
4.71769e-06
7.85291e-06
1.53033e-05
3.96236e-05
1.42034e-08
1.48755e-08
1.5278e-08
1.56433e-08
1.60985e-08
1.64968e-08
1.73382e-08
1.91261e-08
2.20644e-08
2.66121e-08
3.35445e-08
4.44223e-08
6.20619e-08
9.17667e-08
1.4411e-07
2.42888e-07
4.48687e-07
9.83195e-07
2.81313e-06
1.36855e-05
0.0229618
0.0225324
0.0221092
0.0216925
0.0212832
0.0208825
0.020492
0.020113
0.0197467
0.019394
0.0190553
0.0187306
0.0184197
0.0181218
0.0178333
0.017551
0.0172738
0.0170013
0.0167331
0.016469
0.0162085
0.0159514
0.0156973
0.0154458
0.0151964
0.0149487
0.0147022
0.0144563
0.0142105
0.0139641
0.0137164
0.0134667
0.0132141
0.0129576
0.0126963
0.0124289
0.0121541
0.0118704
0.0115758
0.0112683
0.0109454
0.010604
0.0102403
0.00984933
0.00942501
0.00895964
0.00844197
0.00785553
0.00717458
0.00635755
0.00533145
0.00396972
0.00228245
0.000885677
8.42085e-05
0.022919
0.0224884
0.022064
0.0216463
0.0212363
0.0208353
0.0204448
0.0200664
0.0197012
0.01935
0.0190133
0.0186909
0.0183824
0.0180862
0.0177979
0.0175148
0.0172368
0.0169634
0.0166943
0.0164291
0.0161677
0.0159095
0.0156543
0.0154015
0.0151509
0.0149019
0.014654
0.0144067
0.0141595
0.0139116
0.0136625
0.0134112
0.0131571
0.0128991
0.0126363
0.0123673
0.012091
0.0118056
0.0115095
0.0112003
0.0108757
0.0105323
0.0101663
0.00977249
0.00934396
0.00887227
0.00834468
0.00774162
0.0070313
0.00615919
0.00503253
0.00353743
0.00183316
0.000641087
8.84577e-05
0.0228777
0.0224458
0.0220202
0.0216015
0.0211907
0.0207894
0.0203991
0.0200214
0.0196574
0.019308
0.0189733
0.0186533
0.0183474
0.0180522
0.0177633
0.0174796
0.0172006
0.0169263
0.0166562
0.01639
0.0161275
0.0158681
0.0156117
0.0153577
0.0151057
0.0148554
0.0146061
0.0143574
0.0141086
0.0138593
0.0136085
0.0133557
0.0131
0.0128404
0.0125759
0.0123053
0.0120273
0.0117402
0.0114423
0.0111313
0.0108047
0.0104592
0.0100906
0.00969376
0.00926141
0.00878361
0.00824702
0.0076303
0.00689913
0.00599588
0.00482683
0.00331803
0.0016718
0.000586917
0.000136304
0.0228374
0.0224041
0.0219773
0.0215576
0.0211462
0.0207447
0.0203547
0.0199778
0.0196152
0.0192677
0.0189354
0.018618
0.0183142
0.0180192
0.0177296
0.017445
0.0171652
0.0168898
0.0166187
0.0163514
0.0160877
0.0158272
0.0155695
0.0153142
0.0150609
0.0148091
0.0145584
0.0143082
0.0140579
0.0138069
0.0135546
0.0133002
0.0130428
0.0127815
0.0125153
0.012243
0.0119632
0.0116744
0.0113746
0.0110618
0.0107331
0.0103853
0.0100142
0.0096144
0.0091785
0.00869643
0.00815369
0.00752839
0.00678744
0.00587634
0.004711
0.00325643
0.00169676
0.000647232
0.000248929
0.022798
0.0223634
0.0219353
0.0215147
0.0211027
0.0207011
0.0203115
0.0199357
0.0195747
0.0192293
0.0188996
0.018585
0.0182825
0.0179869
0.0176965
0.0174111
0.0171303
0.016854
0.0165818
0.0163134
0.0160485
0.0157867
0.0155277
0.015271
0.0150163
0.0147631
0.0145109
0.0142591
0.0140073
0.0137547
0.0135008
0.0132447
0.0129856
0.0127226
0.0124547
0.0121806
0.011899
0.0116083
0.0113067
0.0109919
0.0106612
0.0103112
0.00993778
0.0095353
0.00909648
0.00861126
0.00806539
0.00743802
0.00669779
0.0057961
0.00466434
0.00329731
0.00184587
0.000813513
0.000465532
0.0227595
0.0223235
0.0218942
0.0214727
0.0210602
0.0206586
0.0202697
0.0198951
0.019536
0.019193
0.0188659
0.0185539
0.0182519
0.0179554
0.0176642
0.0173778
0.017096
0.0168186
0.0165453
0.0162758
0.0160096
0.0157466
0.0154862
0.0152282
0.0149721
0.0147174
0.0144636
0.0142103
0.0139569
0.0137027
0.0134471
0.0131893
0.0129285
0.0126638
0.0123941
0.0121183
0.0118349
0.0115424
0.0112389
0.0109222
0.0105895
0.0102375
0.00986197
0.00945737
0.0090165
0.00852958
0.00798302
0.00735739
0.00662431
0.00574164
0.00466112
0.00340279
0.00209267
0.00110243
0.000761562
0.0227219
0.0222844
0.021854
0.0214316
0.0210187
0.0206172
0.0202291
0.019856
0.0194991
0.0191587
0.0188347
0.0185243
0.0182218
0.0179246
0.0176324
0.0173451
0.0170623
0.0167839
0.0165094