/*--------------------------------*- C++ -*----------------------------------*\
  =========                 |
  \\      /  F ield         | OpenFOAM: The Open Source CFD Toolbox
   \\    /   O peration     | Website:  https://openfoam.org
    \\  /    A nd           | Version:  10
     \\/     M anipulation  |
\*---------------------------------------------------------------------------*/
FoamFile
{
    format      ascii;
    class       volScalarField;
    location    "10000";
    object      omega;
}
// * * * * * * * * * * * * * * * * * * * * * * * * * * * * * * * * * * * * * //

dimensions      [0 0 -1 0 0 0 0];

internalField   nonuniform List<scalar> 
17981
(
6.99444
7.09715
7.19802
7.29703
7.39426
7.48984
7.58386
7.67644
7.76768
7.85766
7.94646
8.03413
8.12076
8.20638
8.29105
8.37482
8.45771
8.53975
8.62095
8.70134
8.78091
8.85967
8.93762
9.01476
9.09109
9.16659
9.24127
9.31511
9.3881
9.46025
9.53154
9.60196
9.67152
9.7402
9.80799
9.87491
9.94094
10.0061
10.0704
10.1337
10.1962
10.2579
10.3186
10.3785
10.4376
10.4958
10.5531
10.6121
7.03751
7.14137
7.24267
7.3416
7.43832
7.53297
7.62572
7.7167
7.80606
7.89389
7.98032
8.06546
8.1494
8.23223
8.31402
8.39485
8.47476
8.55379
8.63199
8.70938
8.78599
8.86182
8.9369
9.01122
9.0848
9.15763
9.22972
9.30105
9.37163
9.44144
9.5105
9.57878
9.64628
9.71301
9.77895
9.8441
9.90845
9.97202
10.0348
10.0968
10.158
10.2183
10.278
10.3368
10.3948
10.4521
10.5086
10.5669
7.09384
7.19907
7.30115
7.40036
7.497
7.59114
7.68296
7.77261
7.86027
7.94611
8.03028
8.11294
8.19421
8.27421
8.35306
8.43084
8.50764
8.58351
8.65853
8.73274
8.80617
8.87887
8.95084
9.02213
9.09272
9.16265
9.23191
9.3005
9.36843
9.43569
9.50229
9.56821
9.63346
9.69803
9.76192
9.82512
9.88764
9.94946
10.0106
10.071
10.1307
10.1898
10.2481
10.3058
10.3627
10.419
10.4746
10.5323
7.57043
7.66524
7.75696
7.8459
7.93233
8.0165
8.09864
8.17896
8.25764
8.33483
8.41069
8.48535
8.55892
8.6315
8.70317
8.774
8.84406
8.91339
8.98203
9.05003
9.1174
9.18417
9.25035
9.31596
9.38099
9.44546
9.50936
9.5727
9.63547
9.69767
9.7593
9.82036
9.88083
9.94073
10
10.0588
10.1169
10.1744
10.2314
10.2877
10.3435
10.3987
10.4533
10.5102
7.66414
7.75954
7.85128
7.93968
8.02509
8.10779
8.18805
8.26614
8.34229
8.4167
8.48956
8.56104
8.63129
8.70043
8.76859
8.83586
8.90233
8.96808
9.03315
9.09761
9.16149
9.22483
9.28766
9.35
9.41186
9.47325
9.53419
9.59468
9.65472
9.71431
9.77344
9.83213
9.89035
9.94812
10.0054
10.0623
10.1186
10.1745
10.2299
10.2849
10.3393
10.3933
10.4468
10.5029
7.7769
7.87375
7.9662
8.0547
8.13959
8.22125
8.3
8.37614
8.44996
8.52173
8.59166
8.65999
8.72689
8.79254
8.85709
8.92066
8.98336
9.04531
9.10658
9.16724
9.22737
9.28701
9.3462
9.40497
9.46336
9.52138
9.57904
9.63637
9.69337
9.75004
9.80639
9.86242
9.91811
9.97348
10.0285
10.0832
10.1376
10.1916
10.2453
10.2986
10.3516
10.4042
10.457
10.5131
8.00762
8.10192
8.1915
8.27671
8.35801
8.43581
8.51047
8.58235
8.65175
8.71899
8.78431
8.84795
8.91013
8.97104
9.03084
9.08969
9.1477
9.205
9.26169
9.31784
9.37352
9.42881
9.48374
9.53836
9.59271
9.64681
9.70068
9.75433
9.80779
9.86105
9.91413
9.96702
10.0197
10.0722
10.1246
10.1767
10.2286
10.2803
10.3318
10.3831
10.4342
10.4862
10.542
8.35041
8.43723
8.51918
8.59684
8.67068
8.74114
8.80862
8.87348
8.93606
8.99664
9.05548
9.11283
9.16888
9.22383
9.27785
9.33106
9.38361
9.43561
9.48714
9.53829
9.58913
9.63972
9.69011
9.74034
9.79045
9.84046
9.89038
9.94025
9.99006
10.0398
10.0895
10.1392
10.1889
10.2385
10.288
10.3375
10.3869
10.4363
10.4856
10.5363
10.5913
8.62312
8.70642
8.78463
8.85827
8.92788
8.99393
9.05686
9.11706
9.17488
9.23063
9.2846
9.33704
9.38818
9.43822
9.48734
9.53569
9.58343
9.63066
9.67751
9.72406
9.77039
9.81657
9.86267
9.90872
9.95478
10.0009
10.047
10.0932
10.1396
10.186
10.2325
10.2792
10.3259
10.3728
10.4197
10.4668
10.5139
10.5612
10.6101
10.6638
8.99913
9.07362
9.14316
9.20847
9.27016
9.3286
9.38419
9.43729
9.48825
9.53736
9.58491
9.63113
9.67625
9.72046
9.76394
9.80684
9.84929
9.89142
9.93333
9.97511
10.0168
10.0586
10.1004
10.1424
10.1845
10.2269
10.2694
10.3122
10.3552
10.3986
10.4421
10.486
10.5301
10.5745
10.6191
10.664
10.7108
10.7624
9.5134
9.57149
9.62587
9.6771
9.72565
9.7719
9.81622
9.85891
9.90024
9.94046
9.97978
10.0184
10.0564
10.0941
10.1315
10.1688
10.206
10.2432
10.2806
10.3182
10.356
10.3941
10.4326
10.4714
10.5107
10.5503
10.5904
10.6309
10.6718
10.7132
10.755
10.7972
10.8415
10.8903
9.79296
9.85055
9.90381
9.95338
9.99977
10.0434
10.0848
10.1242
10.162
10.1984
10.2337
10.2681
10.3018
10.335
10.3678
10.4004
10.433
10.4656
10.4984
10.5313
10.5646
10.5983
10.6324
10.6669
10.702
10.7377
10.7739
10.8107
10.8481
10.8861
10.9247
10.9639
11.0052
11.0507
10.1059
10.1642
10.2175
10.2664
10.3116
10.3535
10.3926
10.4294
10.4642
10.4972
10.5287
10.559
10.5884
10.6171
10.6453
10.6732
10.701
10.7287
10.7566
10.7848
10.8133
10.8423
10.8717
10.9017
10.9323
10.9636
10.9956
11.0284
11.0619
11.0962
11.1312
11.167
11.2048
11.2464
10.4504
10.5111
10.5659
10.6155
10.6609
10.7024
10.7407
10.7759
10.8082
10.838
10.8659
10.8922
10.9172
10.9414
10.9649
10.9881
11.0111
11.0344
11.0577
11.081
11.1046
11.1286
11.1531
11.1782
11.204
11.2306
11.2581
11.2863
11.3155
11.3457
11.3767
11.4088
11.4426
11.4797
10.8864
10.9445
10.9967
11.0437
11.0862
11.1243
11.1582
11.1886
11.2161
11.2411
11.264
11.2854
11.3056
11.3248
11.3434
11.3616
11.3796
11.3977
11.4161
11.435
11.4546
11.4748
11.4956
11.5168
11.5388
11.5616
11.5852
11.6099
11.6356
11.6624
11.6903
11.7198
11.752
11.2888
11.351
11.4064
11.4559
11.4998
11.5381
11.5716
11.6009
11.6267
11.6495
11.6699
11.6883
11.705
11.7206
11.7353
11.7494
11.7631
11.7768
11.7906
11.8047
11.8193
11.8345
11.8504
11.8674
11.8854
11.9043
11.9238
11.9442
11.9655
11.988
12.0116
12.0366
12.0638
11.7133
11.781
11.8407
11.8936
11.9398
11.9795
12.0135
12.0427
12.0677
12.0891
12.1076
12.1236
12.1377
12.1502
12.1615
12.1719
12.1818
12.1914
12.201
12.2108
12.221
12.2317
12.2431
12.2554
12.2686
12.2828
12.2982
12.315
12.3329
12.3515
12.3711
12.3918
12.4143
12.2305
12.2963
12.3539
12.4037
12.446
12.4816
12.5116
12.5366
12.5575
12.5747
12.5891
12.601
12.6109
12.6193
12.6266
12.6331
12.639
12.6448
12.6506
12.6566
12.6631
12.6703
12.6782
12.687
12.6968
12.7078
12.72
12.7335
12.7484
12.7648
12.7822
12.8006
12.7001
12.7726
12.8359
12.8904
12.9361
12.9742
13.0057
13.0315
13.0523
13.069
13.0822
13.0925
13.1003
13.1063
13.1107
13.1141
13.1167
13.1189
13.121
13.1232
13.1257
13.1287
13.1324
13.137
13.1426
13.1493
13.1572
13.1665
13.1771
13.1891
13.2027
13.218
13.1865
13.2672
13.3373
13.3974
13.4477
13.4892
13.5231
13.5504
13.5719
13.5886
13.6011
13.6101
13.6162
13.6199
13.6218
13.6223
13.6218
13.6206
13.6191
13.6175
13.6161
13.6152
13.6149
13.6154
13.6168
13.6193
13.6231
13.6282
13.6346
13.6426
13.6521
13.6632
13.6879
13.7784
13.8566
13.9236
13.9796
14.0256
14.0627
14.0922
14.115
14.1321
14.1443
14.1524
14.157
14.1587
14.1582
14.1558
14.1522
14.1475
14.1424
14.1369
14.1315
14.1265
14.1219
14.1181
14.1153
14.1135
14.113
14.1138
14.1161
14.1199
14.1253
14.1325
14.2033
14.3053
14.3932
14.4684
14.5315
14.583
14.6243
14.6567
14.6815
14.6995
14.7118
14.7191
14.7224
14.7222
14.7191
14.7139
14.7069
14.6986
14.6894
14.6798
14.67
14.6603
14.651
14.6424
14.6346
14.6279
14.6223
14.6181
14.6153
14.6142
14.6146
14.6169
14.7317
14.8474
14.9467
15.0319
15.1034
15.1616
15.2082
15.2445
15.2718
15.2914
15.3042
15.3112
15.3133
15.3113
15.3058
15.2975
15.287
15.2748
15.2614
15.2472
15.2325
15.2177
15.2032
15.1891
15.1758
15.1633
15.152
15.142
15.1334
15.1263
15.1209
15.1172
15.272
15.404
15.5169
15.6136
15.6951
15.7617
15.8148
15.8562
15.8871
15.909
15.9229
15.9301
15.9314
15.9278
15.92
15.9088
15.8948
15.8786
15.8607
15.8417
15.8219
15.8017
15.7815
15.7616
15.7422
15.7237
15.7061
15.6897
15.6747
15.6613
15.6494
15.6393
15.8226
15.9739
16.1031
16.2133
16.3066
16.3835
16.4449
16.4927
16.5284
16.5536
16.5695
16.5775
16.5786
16.5737
16.5639
16.5499
16.5325
16.5123
16.4899
16.4659
16.4408
16.415
16.3889
16.3628
16.337
16.312
16.2878
16.2647
16.2429
16.2225
16.2038
16.1868
16.3815
16.5557
16.7042
16.8306
16.9381
17.0274
17.0989
17.1547
17.1966
17.2263
17.2453
17.2549
17.2564
17.2509
17.2394
17.2229
17.2022
17.1781
17.1512
17.1222
17.0916
17.06
17.0277
16.9952
16.9628
16.9308
16.8996
16.8694
16.8403
16.8127
16.7866
16.7623
16.946
17.1472
17.3188
17.4646
17.5888
17.6925
17.7765
17.8424
17.8923
17.928
17.9512
17.9635
17.9663
17.9608
17.9482
17.9296
17.9059
17.878
17.8467
17.8127
17.7765
17.7389
17.7002
17.661
17.6216
17.5825
17.5439
17.5061
17.4694
17.4341
17.4003
17.3681
17.5123
17.7455
17.9444
18.1135
18.2571
18.378
18.4773
18.5558
18.6157
18.6591
18.6881
18.7044
18.7094
18.7048
18.6918
18.6715
18.6452
18.6138
18.5782
18.5391
18.4973
18.4535
18.4083
18.3621
18.3155
18.2689
18.2225
18.1769
18.1322
18.0887
18.0467
18.0063
18.0755
18.3466
18.5781
18.775
18.9419
19.0834
19.2007
19.2943
19.3667
19.42
19.4565
19.4782
19.4868
19.484
19.4713
19.4501
19.4216
19.3869
19.3471
19.3031
19.2556
19.2056
19.1535
19.1002
19.046
18.9914
18.937
18.8831
18.8299
18.7779
18.7273
18.6783
18.945
19.2158
19.4462
19.6415
19.8067
19.9449
20.0574
20.1451
20.2108
20.257
20.2859
20.2996
20.2998
20.2884
20.2669
20.2367
20.1991
20.1553
20.1063
20.0531
19.9966
19.9376
19.8766
19.8144
19.7516
19.6886
19.6258
19.5636
19.5025
19.4427
19.3845
19.5387
19.855
20.1246
20.3533
20.5467
20.7102
20.8447
20.951
21.032
21.0904
21.1286
21.1491
21.1539
21.1449
21.124
21.0928
21.0528
21.0052
20.9514
20.8924
20.8293
20.7628
20.6939
20.6233
20.5516
20.4793
20.407
20.3352
20.2642
20.1944
20.1262
20.1191
20.4891
20.8053
21.0742
21.3019
21.4941
21.6542
21.7836
21.8835
21.9572
22.0076
22.0371
22.0482
22.0432
22.0241
21.9928
21.9509
21.8999
21.8415
21.7767
21.7067
21.6326
21.5553
21.4757
21.3945
21.3123
21.2297
21.1474
21.0657
20.9851
20.9059
20.6776
21.1107
21.4819
21.799
22.0679
22.2948
22.486
22.6427
22.7658
22.8585
22.924
22.9653
22.9851
22.9858
22.97
22.9396
22.8966
22.8429
22.78
22.7094
22.6325
22.5505
22.4644
22.3752
22.2838
22.1909
22.0973
22.0036
21.9102
21.8177
21.7266
22.521
22.841
23.111
23.3379
23.5265
23.6781
23.7943
23.8789
23.9352
23.9664
23.9752
23.9643
23.9363
23.8933
23.8375
23.7706
23.6944
23.6105
23.5203
23.4249
23.3256
23.2233
23.119
23.0134
22.9072
22.8011
22.6957
22.5914
23.24
23.6187
23.9391
24.2087
24.4351
24.6201
24.7649
24.8731
24.9483
24.994
25.0136
25.0101
24.9862
24.9445
24.8874
24.8172
24.7357
24.6448
24.5461
24.441
24.331
24.217
24.1003
23.9817
23.862
23.7421
23.6224
23.5037
23.9439
24.3926
24.7737
25.0952
25.365
25.5891
25.7689
25.9062
26.005
26.0695
26.1033
26.1098
26.0922
26.0536
25.9966
25.9237
25.8374
25.7396
25.6323
25.5172
25.3957
25.2694
25.1393
25.0066
24.8722
24.737
24.6018
24.4672
24.621
25.153
25.6064
25.9903
26.3132
26.5835
26.8044
26.9774
27.1057
27.1939
27.246
27.2661
27.2577
27.2242
27.1689
27.0946
27.0041
26.8997
26.7838
26.6582
26.5247
26.3851
26.2406
26.0926
25.9422
25.7904
25.638
25.486
25.2571
25.8883
26.4281
26.887
27.2744
27.599
27.8688
28.0852
28.2499
28.3677
28.4434
28.4813
28.4855
28.46
28.4085
28.3343
28.2406
28.1301
28.0056
27.8692
27.7232
27.5693
27.4094
27.2448
27.0769
26.9068
26.7356
26.5643
25.8349
26.5838
27.2266
27.7754
28.2406
28.6318
28.9587
29.2261
29.4358
29.5908
29.6963
29.7574
29.7787
29.7647
29.7197
29.6476
29.552
29.4362
29.3033
29.156
28.9967
28.8278
28.6512
28.4686
28.2815
28.0915
27.8996
27.707
26.3323
27.2214
27.9868
28.6428
29.2016
29.6736
30.0688
30.3978
30.6618
30.8624
31.0053
31.0961
31.1399
31.1418
31.1068
31.0393
30.9437
30.8237
30.6829
30.5246
30.3516
30.1667
29.9721
29.77
29.5621
29.3501
29.1354
28.9193
26.7225
27.7781
28.6895
29.4736
30.1446
30.7144
31.194
31.594
31.9218
32.1793
32.3693
32.4979
32.5712
32.5947
32.5741
32.5147
32.4214
32.2988
32.1509
31.9818
31.7947
31.5929
31.3791
31.1557
30.9251
30.6889
30.4491
30.2069
26.9715
28.2254
29.3106
30.2473
31.0523
31.7395
32.3211
32.8082
33.2128
33.5384
33.7868
33.9633
34.0743
34.1265
34.126
34.0791
33.9914
33.8682
33.7146
33.535
33.3336
33.1139
32.8795
32.6332
32.3776
32.1149
31.8473
31.5763
27.0381
28.5279
29.82
30.9386
31.9038
32.7321
33.4372
34.0315
34.5267
34.9337
35.2543
35.4906
35.6501
35.7396
35.7665
35.7377
35.6599
35.5393
35.3817
35.1924
34.9765
34.7383
34.4819
34.2106
33.9277
33.6359
33.3375
33.0346
26.872
28.6417
30.1804
31.5159
32.6722
33.6692
34.523
35.2474
35.8548
36.3583
36.7649
37.0768
37.2978
37.4359
37.4993
37.496
37.4336
37.3196
37.1606
36.9631
36.733
36.4756
36.1956
35.8974
35.5846
35.2605
34.9281
34.5896
26.414
28.5135
30.3453
31.9393
33.3237
34.5224
35.5547
36.4364
37.1812
37.8019
38.3137
38.7177
39.0159
39.2163
39.3277
39.3592
39.3196
39.2175
39.0608
38.8572
38.6136
38.3365
38.0316
37.7041
37.3585
36.9989
36.6285
36.2504
25.5981
28.0797
30.2579
32.1597
33.8164
35.2561
36.5023
37.5738
38.486
39.2528
39.8879
40.4025
40.7984
41.079
41.2534
41.3319
41.3248
41.2419
41.0926
40.8859
40.6302
40.3332
40.0021
39.643
39.2614
38.8623
38.4498
38.0274
24.3595
27.268
29.8499
32.1163
34.0973
35.8248
37.3269
38.6261
39.7405
40.6854
41.4745
42.1233
42.6382
43.021
43.2771
43.4184
43.4563
43.4022
43.2672
43.0619
42.7964
42.48
42.1213
41.7281
41.3071
40.8642
40.4046
39.9325
22.6531
26.0053
29.0426
31.7357
34.1015
36.1722
37.9801
39.5524
40.9107
42.0725
43.0523
43.8645
44.5256
45.036
45.3973
45.621
45.7203
45.7079
45.5967
45.3992
45.1274
44.7928
44.4058
43.9759
43.5115
43.02
42.5075
41.9795
20.485
24.235
27.7536
30.932
33.7497
36.2282
38.401
40.3001
41.9516
43.376
44.5897
45.6069
46.4432
47.1097
47.607
47.9394
48.1216
48.168
48.0936
47.9129
47.6404
47.2899
46.8742
46.4051
45.8931
45.3474
44.7756
44.1845
17.9514
21.951
25.9145
29.6132
32.9483
35.9066
38.5134
40.8026
42.8054
44.5463
46.044
47.3138
48.3695
49.229
49.8962
50.3701
50.6628
50.7907
50.7705
50.6193
50.3542
49.9919
49.5482
49.0377
48.4735
47.8672
47.2285
46.5658
15.2563
19.2432
23.5064
27.6985
31.5947
35.1053
38.2236
40.9771
43.3996
45.5205
47.3622
48.9416
50.2722
51.3683
52.2466
52.9033
53.3425
53.5817
53.6395
53.5355
53.2897
52.9222
52.4525
51.8988
51.2776
50.6036
49.8892
49.1449
12.6698
16.3251
20.6117
25.1551
29.5948
33.71
37.4191
40.7204
43.6425
46.218
48.4738
50.4293
52.0989
53.4947
54.6317
55.5189
56.1521
56.5424
56.7105
56.6782
56.4689
56.1067
55.6154
55.0176
54.3346
53.5848
52.7845
51.9469
10.4255
13.4942
17.4506
22.0558
26.9005
31.6118
35.9728
39.9083
43.4202
46.5369
49.2885
51.6984
53.7822
55.5511
57.0151
58.1922
59.0759
59.6689
59.9901
60.0634
59.9153
59.5742
59.069
58.4283
57.6786
56.8442
55.9459
55.001
11.0153
14.3429
18.6244
23.5725
28.7456
33.7589
38.3987
42.5947
46.3504
49.6928
52.6481
55.2348
57.4637
59.3419
60.8781
62.0831
62.9464
63.4782
63.7038
63.6522
63.356
62.8502
62.1703
61.3503
60.4214
59.4111
58.3421
9.06985
11.6314
15.2178
19.8359
25.1585
30.694
36.0471
41.0061
45.5039
49.5438
53.1492
56.3408
59.1304
61.5227
63.5195
65.1284
66.3436
67.1643
67.6065
67.7012
67.4854
67.0004
66.2899
65.3974
64.3638
63.2251
62.0119
12.2771
16.132
21.0933
26.8171
32.7517
38.4896
43.8171
48.667
53.0399
56.9534
60.4203
63.4435
66.0192
68.1426
69.818
71.0242
71.7687
72.0795
71.9959
71.5652
70.8405
69.877
68.7281
67.4422
66.0604
9.99883
12.942
17.0703
22.3839
28.5352
34.9216
41.1019
46.8588
52.1225
56.888
61.1644
64.9535
68.2464
71.0279
73.2859
75.0032
76.1677
76.7928
76.9172
76.593
75.883
74.8565
73.5833
72.1284
70.5483
10.4847
13.6215
18.0294
23.7148
30.3201
37.2144
43.9045
50.1643
55.9169
61.1479
65.8536
70.0205
73.6235
76.6325
79.0201
80.7524
81.8285
82.2706
82.1324
81.4855
80.4151
79.012
77.3643
75.5498
8.73822
10.9791
14.3091
19.0017
25.0768
32.1731
39.6405
46.9212
53.7735
60.1071
65.8928
71.1087
75.7201
79.6797
82.9368
85.4383
87.1443
88.0585
88.2255
87.7208
86.645
85.1147
83.2489
81.1564
7.56716
9.11575
11.4759
14.9947
19.9731
26.4553
34.089
42.2089
50.1795
57.7342
64.7625
71.2135
77.0395
82.1763
86.5453
90.0655
92.639
94.2453
94.8963
94.6609
93.6513
92.0128
89.9054
87.4826
7.87971
9.49586
11.9678
15.6674
20.9296
27.8371
36.0619
44.9293
53.71
62.103
69.9681
77.2229
83.7835
89.5436
94.3806
98.1428
100.737
102.134
102.368
101.55
99.853
97.4885
94.6739
7.10475
8.19792
9.87406
12.4471
16.3156
21.8566
29.2075
38.0835
47.8103
57.5482
66.9489
75.8296
84.0635
91.5139
98.0136
103.375
107.359
109.867
110.873
110.459
108.809
106.194
102.918
7.39323
8.51736
10.2448
12.906
16.9281
22.7389
30.5496
40.143
50.8599
61.7402
72.3644
82.4917
91.9325
100.475
107.861
113.772
117.899
120.136
120.475
119.079
116.266
112.46
6.87231
7.68589
8.83546
10.6035
13.3373
17.4946
23.5639
31.8523
42.2405
54.0998
66.3513
78.4742
90.1475
101.091
110.98
119.422
125.868
129.988
131.636
130.866
128.008
123.62
6.62688
7.14799
7.97655
9.14785
10.9455
13.7354
18.0087
24.3257
33.1144
44.39
57.5796
71.4839
85.4593
99.0715
111.907
123.466
133.14
140.05
143.837
144.336
141.774
136.819
6.91995
7.43013
8.26103
9.45271
11.2691
14.0991
18.4703
25.0265
34.3438
46.6181
61.3786
77.2979
93.5936
109.674
124.925
138.581
149.536
156.681
159.514
157.938
152.599
6.98612
7.2227
7.71199
8.53654
9.74997
11.575
14.4303
18.8846
25.6773
35.564
48.9787
65.6155
84.015
103.246
122.498
140.858
157.12
169.328
176.122
176.803
171.635
7.23513
7.30992
7.52939
7.98752
8.79881
10.0377
11.8643
14.7342
19.2636
26.301
36.8185
51.5588
70.4665
91.9638
114.966
138.365
160.776
180.23
193.303
198.392
194.696
7.58549
7.64822
7.84648
8.26658
9.05619
10.3147
12.1432
15.0252
19.6346
26.9492
38.2019
54.5267
76.2229
101.686
129.66
158.647
186.497
209.168
222.051
222.468
8.01011
7.97729
8.02414
8.19861
8.58432
9.33999
10.5862
12.4276
15.3287
20.0425
27.7037
39.8636
58.159
83.3486
113.974
148.654
185.331
220.452
245.931
255.11
8.59159
8.49968
8.45326
8.48011
8.62648
8.97305
9.66776
10.8745
12.7515
15.6894
20.5554
28.6809
42.019
62.8708
92.6572
130.327
174.509
222.282
266.229
291.43
9.41793
9.28648
9.17746
9.1073
9.10258
9.20689
9.49367
10.0915
11.2323
13.166
16.1767
21.2758
30.0614
45.0252
69.396
105.589
153.424
211.858
276.323
327.882
10.722
10.5499
10.3834
10.2333
10.116
10.0564
10.0953
10.3013
10.8009
11.8529
13.7692
16.9185
22.3767
32.1411
49.4758
79.0013
124.756
188.4
269.84
357.87
13.0036
12.7499
12.4935
12.2441
12.0122
11.8118
11.664
11.6043
11.6974
12.0633
12.9289
14.7319
18.1525
24.1747
35.4648
56.5168
94.3042
155.957
247.507
370.731
17.2797
16.8294
16.3972
15.9894
15.6059
15.2467
14.9184
14.6345
14.4241
14.3454
14.5124
15.1575
16.8134
20.4015
27.3094
41.0814
68.4352
121.023
213.015
362.05
25.544
24.6946
23.9695
23.3454
22.7926
22.2781
21.7765
21.2786
20.7881
20.3262
19.9464
19.7662
20.0327
21.2604
24.7116
33.1973
51.3395
91.0096
175.904
342.643
42.7584
41.4167
40.5858
40.0031
39.5134
39.001
38.3722
37.6109
36.7234
35.7147
34.6142
33.4989
32.5088
31.9273
32.4229
35.7223
46.1488
73.8564
146.71
333.332
88.3158
86.7616
85.8499
85.3564
85.1712
84.7881
83.9373
82.8042
81.4207
79.67
77.5016
74.9887
72.2464
69.4268
66.856
65.4523
67.9383
83.433
146.011
362.032
257.611
255.31
254.871
255.224
255.638
255.829
255.501
254.382
252.308
249.125
244.979
240.22
234.955
229.123
222.675
215.869
209.935
210.359
248.783
491.787
1530.04
1523.65
1517.47
1511.5
1505.74
1500.16
1494.78
1489.57
1484.54
1479.67
1474.96
1470.4
1466
1461.73
1457.61
1453.61
1449.74
1446
1442.38
1438.87
13.4594
13.5122
13.5748
13.6483
13.7333
13.8306
13.9408
14.0643
14.2017
14.3533
14.5197
14.7013
14.8987
15.1127
15.3466
15.6044
15.8885
16.2015
16.5457
16.924
17.3394
17.7953
18.2958
18.8452
19.4486
20.1117
20.8412
21.6447
22.531
23.5103
24.5949
25.7989
27.1392
28.6363
30.3146
32.2044
34.3429
36.7767
39.5655
42.7864
46.5412
50.9682
56.2605
62.6986
70.6978
80.8943
94.3705
113.084
140.936
186.585
272.428
461.021
890.869
1747.28
2670.77
13.4776
13.5322
13.5967
13.6721
13.759
13.8582
13.9701
14.0953
14.2341
14.3869
14.5541
14.7362
14.9338
15.1484
15.384
15.6441
15.9308
16.2463
16.5932
16.9742
17.3925
17.8514
18.355
18.9077
19.5145
20.1813
20.9147
21.7223
22.6131
23.5974
24.6873
25.8974
27.2447
28.7499
30.4379
32.3395
34.4929
36.9459
39.76
43.0153
46.8183
51.3148
56.7104
63.3063
71.5643
82.188
96.3898
116.388
146.597
196.702
289.825
475.741
807.533
1328.32
1534.29
13.4972
13.5536
13.62
13.6972
13.7861
13.887
14.0007
14.1274
14.2675
14.4213
14.5892
14.7716
14.9693
15.1848
15.4225
15.6849
15.974
16.2921
16.6416
17.0253
17.4463
17.9082
18.4148
18.9706
19.5807
20.2509
20.9879
21.7994
22.6943
23.6831
24.7781
25.9937
27.3473
28.8598
30.5566
32.4688
34.6354
37.1055
39.9419
43.2272
47.0715
51.6259
57.1039
63.8179
72.2438
83.1414
97.7441
118.294
149.087
198.965
286.738
437.075
680.966
1034.36
997.231
13.5176
13.5759
13.6441
13.7233
13.8139
13.9167
14.032
14.1601
14.3013
14.456
14.6243
14.8069
15.0049
15.2219
15.4618
15.7265
16.0179
16.3384
16.6904
17.0767
17.5004
17.965
18.4744
19.0332
19.6463
20.3197
21.0601
21.8751
22.7738
23.7666
24.8659
26.0864
27.4454
28.9641
30.6682
32.5892
34.7665
37.2499
40.1035
43.4111
47.2845
51.8773
57.4051
64.1809
72.6755
83.6252
98.235
118.595
148.44
194.944
271.458
383.548
560.818
835.839
752.729
13.539
13.5991
13.6692
13.7502
13.8426
13.9471
14.0639
14.1933
14.3355
14.4908
14.6595
14.842
15.0406
15.2596
15.5017
15.7686
16.0623
16.3851
16.7396
17.1283
17.5545
18.0217
18.5338
19.0953
19.7113
20.3876
21.1309
21.949
22.8509
23.8472
24.9501
26.1744
27.5377
29.0611
30.7705
32.6976
34.8819
37.3737
40.237
43.556
47.4423
52.0482
57.5857
64.359
72.8178
83.6492
97.9442
117.506
145.413
187.076
250.67
332.847
460.92
683.019
634.12
13.5613
13.6231
13.6951
13.7779
13.8721
13.9781
14.0963
14.2269
14.3699
14.5257
14.6945
14.877
15.0768
15.2979
15.5421
15.8111
16.1071
16.4322
16.7889
17.18
17.6086
18.0782
18.5927
19.1567
19.7752
20.454
21.2
22.0207
22.9253
23.9241
25.0298
26.2568
27.6229
29.1491
30.8612
32.7909
34.9776
37.4712
40.3353
43.6525
47.5324
52.1227
57.6269
64.3324
72.6557
83.2171
96.9688
115.415
140.983
177.563
228.904
290.201
383.07
553.754
552.354
13.5844
13.648
13.7218
13.8063
13.9022
14.0098
14.1292
14.2607
14.4044
14.5604
14.7291
14.9122
15.1137
15.3368
15.583
15.8541
16.1522
16.4794
16.8383
17.2316
17.6624
18.1342
18.651
19.2172
19.8378
20.5189
21.2669
22.0896
22.9961
23.9968
25.104
26.3323
27.6993
29.226
30.9378
32.8661
35.0497
37.5376
40.3919
43.6928
47.5456
52.0908
57.5192
64.0958
72.196
82.3637
95.4048
112.534
135.589
167.224
208.161
255.039
323.522
447.469
476.442
13.6083
13.6737
13.7493
13.8355
13.933
14.0419
14.1625
14.2948
14.439
14.5951
14.7636
14.9476
15.1511
15.3761
15.6243
15.8974
16.1975
16.5268
16.8877
17.283
17.7159
18.1897
18.7084
19.2764
19.8989
20.5816
21.3311
22.1552
23.0628
24.0642
25.1717
26.3998
27.7656
29.29
30.998
32.9202
35.0946
37.5686
40.402
43.6714
47.4762
51.9477
57.261
63.6551
71.4604
81.1419
93.3633
109.077
129.631
156.702
189.436
226.164
277.693
363.907
405.092
13.633
13.7002
13.7774
13.8653
13.9642
14.0745
14.1961
14.329
14.4734
14.6294
14.7982
14.9835
15.1889
15.4159
15.6659
15.941
16.243
16.5741
16.9369
17.3341
17.7687
18.2442
18.7646
19.3342
19.958
20.6418
21.3923
22.2169
23.1246
24.1256
25.2319
26.4578
27.8201
29.3392
31.0395
32.9507
35.1093
37.5607
40.3618
43.5846
47.3216
51.693
56.857
63.0245
70.4803
79.6133
90.9575
105.242
123.43
146.454
172.913
202.258
241.548
300.601
341.286
13.6584
13.7273
13.8063
13.8957
13.996
14.1074
14.2298
14.3632
14.5077
14.6634
14.8328
15.0199
15.2271
15.4559
15.7077
15.9846
16.2884
16.6213
16.9858
17.3846
17.8208
18.2977
18.8194
19.3901
20.0148
20.6992
21.4498
22.2741
23.1808
24.18
25.2835
26.5051
27.8614
29.372
31.0604
32.9553
35.0913
37.5115
40.2692
43.4311
47.0821
51.3305
56.3166
62.2234
69.2921
77.8415
88.2932
101.195
117.219
136.755
158.408
182.16
212.356
253.274
287.623
13.6845
13.7551
13.8357
13.9266
14.0282
14.1405
14.2636
14.3973
14.5417
14.6974
14.8677
15.0566
15.2656
15.4961
15.7497
16.0282
16.3336
16.6681
17.0341
17.4343
17.8718
18.3499
18.8724
19.4438
20.0688
20.7531
21.5031
22.3261
23.2307
24.2266
25.3254
26.5406
27.8881
29.3867
31.059
32.9321
35.0389
37.4195
40.1232
43.2113
46.7602
50.8665
55.6524
61.2746
67.9336
75.8869
85.4618
97.0632
111.146
127.727
145.629
165.004
188.391
217.496
244.435
13.7113
13.7835
13.8656
13.9579
14.0606
14.1738
14.2973
14.4311
14.5752
14.7313
14.9031
15.0937
15.3043
15.5364
15.7916
16.0716
16.3786
16.7145
17.0818
17.4831
17.9215
18.4004
18.9234
19.4948
20.1196
20.803
21.5515
22.3721
23.2733
24.2644
25.3567
26.5631
27.8988
29.382
31.0338
32.8799
34.9509
37.284
39.9242
42.927
46.3605
50.3094
54.8791
60.2013
66.441
73.8027
82.537
92.9388
105.293
119.39
134.305
150.191
168.482
189.798
210.366
13.7387
13.8125
13.896
13.9895
14.0932
14.2071
14.331
14.4647
14.6086
14.7652
14.9387
15.1308
15.343
15.5766
15.8333
16.1148
16.423
16.7601
17.1285
17.5307
17.9697
18.4489
18.9719
19.5429
20.1667
20.8485
21.5945
22.4116
23.3079
24.2926
25.3763
26.5715
27.8926
29.3567
30.9838
32.7978
34.827
37.1052
39.6735
42.5813
45.8886
49.6688
54.0116
59.0265
64.847
71.6337
79.5753
88.8819
99.7038
111.716
124.211
137.297
151.764
167.803
183.49
13.7666
13.8419
13.9267
14.0214
14.126
14.2404
14.3644
14.4979
14.6417
14.7994
14.9744
15.1681
15.3817
15.6167
15.8748
16.1575
16.4668
16.8049
17.174
17.5767
18.016
18.4951
19.0176
19.5876
20.2096
20.8889
21.6314
22.4437
23.3338
24.3102
25.3833
26.5648
27.8684
29.3101
30.9084
32.6855
34.6672
36.8843
39.3734
42.1782
45.3511
48.955
53.065
57.7711
63.1801
69.4158
76.6182
84.9303
94.3978
104.656
115.171
126.004
137.583
149.94
162.033
13.795
13.8717
13.9578
14.0535
14.1588
14.2735
14.3974
14.5305
14.6747
14.8337
15.0102
15.2053
15.4203
15.6566
15.9158
16.1995
16.5097
16.8485
17.2181
17.621
18.0602
18.5387
19.06
19.6283
20.2478
20.9237
21.6616
22.4679
23.3502
24.3167
25.3771
26.5425
27.8257
29.2416
30.8073
32.5431
34.4723
36.6227
39.0266
41.7224
44.7551
48.1779
52.0532
56.4539
61.464
67.1775
73.6952
81.1069
89.3808
98.1602
107.045
116.061
125.437
135.154
144.62
13.8238
13.9018
13.9891
14.0856
14.1914
14.3063
14.43
14.5628
14.7076
14.8681
15.0459
15.2423
15.4585
15.6959
15.9561
16.2407
16.5516
16.8908
17.2605
17.6632
18.1018
18.5792
19.0988
19.6646
20.2808
20.9523
21.6845
22.4835
23.3564
24.3112
25.3568
26.5038
27.7639
29.1509
30.6805
32.371
34.2435
36.3225
38.6365
41.2187
44.1074
47.3471
50.989
55.0911
59.7185
64.9407
70.8275
77.4255
84.6514
92.1821
99.7197
107.266
114.944
122.72
130.249
13.853
13.9322
14.0204
14.1177
14.2239
14.3387
14.4621
14.5948
14.7405
14.9023
15.0814
15.279
15.4963
15.7347
15.9957
16.2809
16.5921
16.9314
17.3009
17.703
18.1405
18.6162
19.1335
19.6961
20.3082
20.9742
21.6995
22.4899
23.352
24.2933
25.3222
26.4483
27.6827
29.0379
30.5282
32.17
33.982
35.986
38.2065
40.672
43.4148
46.4716
49.8837
53.6967
57.9595
62.7222
68.0298
73.8945
80.2033
86.6786
93.0986
99.4527
105.805
112.125
118.204
13.8824
13.9627
14.0518
14.1496
14.256
14.3706
14.4935
14.6265
14.7734
14.9364
15.1167
15.3153
15.5335
15.7726
16.0342
16.3197
16.6311
16.9701
17.339
17.7401
18.1759
18.6494
19.1637
19.7224
20.3293
20.9889
21.7062
22.4866
23.3364
24.2624
25.2726
26.3759
27.5822
28.903
30.3511
31.9412
33.6898
35.6157
37.7402
40.0873
42.6838
45.5597
48.7475
52.2823
56.2001
60.5351
65.3126
70.5183
76.0275
81.6096
87.0996
92.4811
97.7865
102.992
107.969
13.9119
13.9933
14.0831
14.1813
14.2876
14.4019
14.5244
14.6579
14.806
14.9701
15.1514
15.3509
15.5698
15.8095
16.0714
16.3571
16.6682
17.0067
17.3745
17.7741
18.2078
18.6784
19.189
19.7428
20.3438
20.996
21.7041
22.4732
23.3091
24.2183
25.208
26.2863
27.4624
28.7465
30.15
31.6859
33.3686
35.2144
37.2412
39.4692
41.9204
44.6185
47.5891
50.8581
54.451
58.3895
62.6831
67.2988
72.1123
76.9373
81.6507
86.2342
90.7036
95.0414
99.1668
13.9416
14.0238
14.1141
14.2125
14.3187
14.4325
14.5548
14.689
14.8382
15.0034
15.1855
15.3857
15.6052
15.8452
16.1072
16.3926
16.7032
17.0407
17.4071
17.8046
18.2356
18.7027
19.2089
19.7572
20.3512
20.995
21.6927
22.4492
23.2699
24.1606
25.1281
26.1797
27.3235
28.5688
29.9256
31.4053
33.0204
34.7845
36.713
38.8223
41.13
43.6549
46.4162
49.4326
52.721
56.2931
60.1463
64.2354
68.4449
72.6268
76.6889
80.6134
84.4073
88.0582
91.515
13.9712
14.0541
14.1448
14.2433
14.3491
14.4622
14.5847
14.7199
14.87
15.036
15.2188
15.4196
15.6394
15.8795
16.1413
16.4262
16.7358
17.072
17.4365
17.8315
18.2592
18.7221
19.223
19.765
20.3512
20.9854
21.6717
22.4144
23.2184
24.0893
25.033
26.0561
27.166
28.3707
29.6792
31.1011
32.6471
34.3289
36.159
38.1506
40.3178
42.6748
45.2356
48.013
51.0171
54.2519
57.7052
61.326
65.0115
68.6457
72.1592
75.5359
78.7783
81.8777
84.8017
14.0007
14.0841
14.1751
14.2733
14.3786
14.4913
14.614
14.7502
14.9011
15.0678
15.2512
15.4522
15.6721
15.9121
16.1734
16.4574
16.7658
17.1001
17.4623
17.8542
18.278
18.7361
19.2311
19.7658
20.3434
20.9671
21.6408
22.3684
23.1546
24.0042
24.9227
25.9159
26.9903
28.153
29.4117
30.7747
32.251
33.8502
35.5824
37.4583
39.4886
41.6837
44.0534
46.6056
49.3452
52.2702
55.3616
58.5671
61.798
64.9644
68.0138
70.9322
73.7198
76.3708
78.8647
14.0299
14.1137
14.2047
14.3026
14.4073
14.5196
14.6428
14.7798
14.9315
15.0987
15.2824
15.4835
15.7033
15.9428
16.2033
16.4861
16.7928
17.1249
17.4842
17.8724
18.2918
18.7444
19.2328
19.7594
20.3274
20.9396
21.5997
22.3112
23.0783
23.9054
24.7973
25.7593
26.7969
27.9164
29.1243
30.4276
31.8338
33.3507
34.9864
36.7491
38.6466
40.6863
42.8746
45.2156
47.7101
50.3513
53.1161
55.9539
58.7905
61.5561
64.2112
66.7438
69.1532
71.4354
73.5776
14.0587
14.1428
14.2336
14.3309
14.4349
14.5471
14.671
14.8087
14.9608
15.1284
15.3122
15.5132
15.7326
15.9713
16.2307
16.512
16.8166
17.146
17.5018
17.8859
18.3002
18.7467
19.2276
19.7455
20.3029
20.9028
21.5482
22.2426
22.9895
23.7929
24.6572
25.5867
26.5866
27.6619
28.8183
30.0615
31.3977
32.8331
34.3739
36.0262
37.7957
39.6871
41.7039
43.8475
46.1153
48.4973
50.9681
53.4811
55.975
58.3964
60.715
62.921
65.0132
66.9891
68.8409
14.087
14.1711
14.2616
14.3583
14.4615
14.5738
14.6984
14.8365
14.9891
15.1567
15.3404
15.5411
15.7598
15.9975
16.2554
16.5347
16.8368
17.163
17.515
17.8944
18.3029
18.7426
19.2154
19.7237
20.2698
20.8564
21.4863
22.1624
22.8882
23.667
24.5025
25.3987
26.3599
27.3904
28.4949
29.678
30.9446
32.2996
33.7477
35.2931
36.9395
38.6898
40.5452
42.5047
44.5636
46.7093
48.9162
51.1423
53.3383
55.463
57.4933
59.4212
61.2455
62.9648
64.5743
14.1147
14.1986
14.2886
14.3845
14.4871
14.5996
14.7248
14.8633
15.016
15.1836