/*--------------------------------*- C++ -*----------------------------------*\
  =========                 |
  \\      /  F ield         | OpenFOAM: The Open Source CFD Toolbox
   \\    /   O peration     | Website:  https://openfoam.org
    \\  /    A nd           | Version:  10
     \\/     M anipulation  |
\*---------------------------------------------------------------------------*/
FoamFile
{
    format      ascii;
    class       volScalarField;
    location    "10000";
    object      p;
}
// * * * * * * * * * * * * * * * * * * * * * * * * * * * * * * * * * * * * * //

dimensions      [0 2 -2 0 0 0 0];

internalField   nonuniform List<scalar> 
17981
(
0.000144901
0.0686633
0.135453
0.200606
0.264184
0.326216
0.38673
0.445756
0.503323
0.559463
0.614204
0.667576
0.719608
0.770329
0.819767
0.867949
0.914905
0.960662
1.00524
1.04868
1.091
1.13222
1.17238
1.21148
1.24957
1.28667
1.32279
1.35796
1.39221
1.42555
1.45801
1.48961
1.52037
1.55032
1.57946
1.60782
1.63543
1.66229
1.68844
1.71388
1.73863
1.76271
1.78615
1.80895
1.83113
1.85271
1.87369
1.89407
0.000451825
0.0688384
0.135582
0.200715
0.264268
0.326272
0.386757
0.445753
0.50329
0.559399
0.614108
0.667448
0.719448
0.770136
0.819541
0.867691
0.914614
0.960337
1.00489
1.04829
1.09058
1.13177
1.17189
1.21097
1.24903
1.28609
1.32218
1.35733
1.39154
1.42486
1.45729
1.48886
1.5196
1.54951
1.57863
1.60697
1.63455
1.66139
1.68751
1.71293
1.73766
1.76172
1.78513
1.80791
1.83007
1.85163
1.87259
1.89296
0.000509319
0.0688833
0.135614
0.200733
0.264269
0.326254
0.386718
0.445693
0.503207
0.559291
0.613975
0.667289
0.719262
0.769923
0.819301
0.867423
0.914317
0.960012
1.00453
1.04791
1.09017
1.13133
1.17142
1.21047
1.2485
1.28554
1.3216
1.35672
1.39091
1.4242
1.45661
1.48815
1.51886
1.54876
1.57785
1.60617
1.63372
1.66054
1.68664
1.71203
1.73674
1.76079
1.78418
1.80694
1.82908
1.85062
1.87156
1.89191
0.264212
0.32618
0.386625
0.445579
0.503072
0.559133
0.613794
0.667083
0.719031
0.769665
0.819016
0.867111
0.913978
0.959645
1.00414
1.04749
1.08972
1.13085
1.17092
1.20994
1.24794
1.28495
1.32099
1.35608
1.39024
1.42351
1.45589
1.48741
1.5181
1.54796
1.57703
1.60533
1.63286
1.65966
1.68573
1.71111
1.7358
1.75982
1.78319
1.80593
1.82805
1.84958
1.8705
1.89083
0.264074
0.326031
0.386463
0.445402
0.502878
0.558922
0.613563
0.666832
0.718758
0.769371
0.818698
0.86677
0.913614
0.959256
1.00373
1.04705
1.08925
1.13036
1.1704
1.2094
1.24738
1.28436
1.32038
1.35544
1.38958
1.42282
1.45518
1.48668
1.51734
1.54719
1.57624
1.60451
1.63202
1.6588
1.68485
1.71021
1.73488
1.75888
1.78223
1.80495
1.82706
1.84856
1.86947
1.88978
0.263863
0.325812
0.386235
0.445163
0.502626
0.558655
0.61328
0.666532
0.71844
0.769033
0.818341
0.866391
0.913213
0.958834
1.00328
1.04658
1.08876
1.12985
1.16987
1.20884
1.2468
1.28376
1.31975
1.35479
1.38891
1.42212
1.45446
1.48594
1.51658
1.5464
1.57543
1.60368
1.63117
1.65793
1.68397
1.7093
1.73395
1.75794
1.78127
1.80398
1.82607
1.84755
1.86844
1.88874
0.325523
0.385941
0.444862
0.502317
0.558336
0.612949
0.666188
0.718081
0.768659
0.81795
0.865983
0.912787
0.958389
1.00282
1.0461
1.08826
1.12932
1.16932
1.20827
1.24621
1.28315
1.31912
1.35414
1.38824
1.42143
1.45375
1.48521
1.51583
1.54563
1.57464
1.60287
1.63035
1.65709
1.6831
1.70842
1.73306
1.75702
1.78034
1.80303
1.8251
1.84657
1.86744
1.88772
0.444503
0.501953
0.557966
0.612571
0.6658
0.717682
0.768248
0.817525
0.865544
0.912332
0.957918
1.00233
1.04559
1.08773
1.12878
1.16876
1.20769
1.24561
1.28253
1.31848
1.35348
1.38756
1.42074
1.45304
1.48448
1.51508
1.54486
1.57385
1.60207
1.62953
1.65625
1.68225
1.70755
1.73217
1.75612
1.77942
1.80209
1.82415
1.84561
1.86646
1.88672
0.501538
0.557549
0.61215
0.665373
0.717248
0.767805
0.817072
0.86508
0.911856
0.957428
1.00183
1.04507
1.0872
1.12823
1.16819
1.20711
1.24501
1.28191
1.31785
1.35283
1.38689
1.42005
1.45233
1.48375
1.51434
1.54411
1.57308
1.60128
1.62872
1.65542
1.68141
1.70669
1.7313
1.75523
1.77852
1.80118
1.82322
1.84466
1.8655
1.88575
0.611688
0.664909
0.71678
0.767331
0.816592
0.864591
0.911357
0.956919
1.0013
1.04454
1.08665
1.12767
1.16762
1.20652
1.24441
1.28129
1.31721
1.35218
1.38622
1.41937
1.45163
1.48304
1.51361
1.54336
1.57232
1.6005
1.62792
1.65461
1.68058
1.70585
1.73044
1.75436
1.77764
1.80028
1.82231
1.84374
1.86456
1.88479
0.81609
0.864084
0.910844
0.956399
1.00077
1.044
1.0861
1.12711
1.16704
1.20593
1.2438
1.28068
1.31658
1.35154
1.38557
1.4187
1.45094
1.48234
1.51289
1.54263
1.57157
1.59974
1.62715
1.65382
1.67978
1.70504
1.72961
1.75352
1.77678
1.79941
1.82143
1.84284
1.86365
1.88387
0.815569
0.863561
0.910317
0.955867
1.00024
1.04346
1.08555
1.12655
1.16647
1.20535
1.24321
1.28007
1.31596
1.3509
1.38492
1.41804
1.45027
1.48165
1.51219
1.54191
1.57084
1.599
1.62639
1.65306
1.679
1.70424
1.7288
1.7527
1.77595
1.79857
1.82057
1.84197
1.86277
1.88298
0.815034
0.863028
0.909784
0.955331
0.999697
1.04291
1.085
1.12599
1.16591
1.20478
1.24263
1.27948
1.31536
1.35029
1.38429
1.4174
1.44962
1.48099
1.51151
1.54123
1.57014
1.59828
1.62567
1.65232
1.67825
1.70348
1.72803
1.75191
1.77515
1.79776
1.81975
1.84114
1.86193
1.88213
0.814489
0.862486
0.909245
0.954793
0.999158
1.04237
1.08445
1.12544
1.16535
1.20421
1.24205
1.2789
1.31477
1.34969
1.38369
1.41678
1.44899
1.48035
1.51086
1.54056
1.56947
1.5976
1.62497
1.65161
1.67753
1.70275
1.72728
1.75116
1.77438
1.79698
1.81896
1.84034
1.86112
1.88132
0.861941
0.908705
0.954257
0.998624
1.04184
1.08392
1.1249
1.16481
1.20367
1.2415
1.27834
1.3142
1.34912
1.3831
1.41619
1.44839
1.47973
1.51024
1.53993
1.56883
1.59694
1.62431
1.65093
1.67684
1.70205
1.72658
1.75044
1.77366
1.79624
1.81821
1.83959
1.86036
1.88054
0.861392
0.908166
0.953725
0.998097
1.04131
1.0834
1.12438
1.16428
1.20314
1.24097
1.2778
1.31366
1.34857
1.38255
1.41562
1.44782
1.47915
1.50965
1.53933
1.56822
1.59632
1.62368
1.65029
1.67619
1.70139
1.72591
1.74976
1.77296
1.79554
1.8175
1.83887
1.85964
1.87982
0.860847
0.907632
0.9532
0.99758
1.0408
1.08289
1.12387
1.16378
1.20263
1.24046
1.27729
1.31315
1.34805
1.38202
1.41509
1.44728
1.47861
1.5091
1.53877
1.56764
1.59574
1.62309
1.64969
1.67558
1.70077
1.72528
1.74912
1.77232
1.79488
1.81683
1.83819
1.85896
1.87913
0.907099
0.952681
0.997072
1.0403
1.0824
1.12339
1.16329
1.20215
1.23998
1.27681
1.31266
1.34756
1.38153
1.41459
1.44677
1.47809
1.50858
1.53824
1.56711
1.5952
1.62254
1.64913
1.67501
1.70019
1.72469
1.74852
1.77171
1.79427
1.81621
1.83756
1.85832
1.87849
0.906572
0.95217
0.996575
1.03982
1.08192
1.12292
1.16283
1.20169
1.23952
1.27635
1.3122
1.3471
1.38107
1.41413
1.4463
1.47762
1.5081
1.53775
1.56661
1.5947
1.62203
1.64862
1.67449
1.69966
1.72415
1.74797
1.77115
1.7937
1.81563
1.83697
1.85772
1.8779
0.906046
0.951664
0.996087
1.03934
1.08146
1.12247
1.16239
1.20125
1.23909
1.27592
1.31177
1.34667
1.38064
1.41369
1.44587
1.47718
1.50765
1.5373
1.56616
1.59424
1.62156
1.64814
1.674
1.69916
1.72364
1.74746
1.77063
1.79317
1.81509
1.83642
1.85717
1.87734
0.905522
0.951163
0.995606
1.03888
1.08101
1.12203
1.16196
1.20084
1.23868
1.27552
1.31137
1.34627
1.38024
1.41329
1.44547
1.47677
1.50724
1.53689
1.56574
1.59381
1.62113
1.6477
1.67356
1.69871
1.72319
1.74699
1.77016
1.79269
1.8146
1.83592
1.85666
1.87683
0.904996
0.950663
0.995129
1.03842
1.08057
1.12161
1.16155
1.20044
1.23829
1.27513
1.31099
1.3459
1.37986
1.41292
1.44509
1.4764
1.50687
1.53651
1.56536
1.59343
1.62073
1.6473
1.67315
1.6983
1.72277
1.74657
1.76972
1.79225
1.81415
1.83546
1.85619
1.87635
0.904465
0.950163
0.994656
1.03797
1.08014
1.12119
1.16116
1.20006
1.23792
1.27477
1.31064
1.34554
1.37952
1.41258
1.44475
1.47606
1.50652
1.53617
1.56501
1.59307
1.62038
1.64694
1.67279
1.69793
1.72239
1.74618
1.76933
1.79185
1.81375
1.83505
1.85577
1.87592
0.90393
0.94966
0.994182
1.03753
1.07972
1.12079
1.16077
1.19969
1.23756
1.27442
1.3103
1.34521
1.37919
1.41226
1.44443
1.47574
1.50621
1.53585
1.56469
1.59275
1.62005
1.64661
1.67246
1.69759
1.72205
1.74584
1.76898
1.79149
1.81338
1.83468
1.85539
1.87554
0.903386
0.949153
0.993708
1.03708
1.0793
1.1204
1.1604
1.19933
1.23722
1.27409
1.30998
1.34491
1.37889
1.41196
1.44414
1.47545
1.50592
1.53556
1.5644
1.59246
1.61976
1.64632
1.67216
1.69729
1.72174
1.74552
1.76866
1.79116
1.81305
1.83434
1.85505
1.87519
0.902834
0.94864
0.993231
1.03664
1.07888
1.12001
1.16003
1.19898
1.23689
1.27378
1.30968
1.34461
1.37861
1.41169
1.44387
1.47519
1.50566
1.5353
1.56414
1.5922
1.6195
1.64605
1.67189
1.69702
1.72146
1.74524
1.76837
1.79087
1.81275
1.83404
1.85474
1.87487
0.902271
0.94812
0.99275
1.03619
1.07847
1.11962
1.15967
1.19865
1.23657
1.27348
1.3094
1.34434
1.37835
1.41143
1.44363
1.47495
1.50542
1.53507
1.56391
1.59197
1.61927
1.64582
1.67165
1.69678
1.72122
1.745
1.76812
1.79062
1.81249
1.83377
1.85447
1.87459
0.901698
0.947593
0.992266
1.03575
1.07806
1.11925
1.15932
1.19832
1.23627
1.2732
1.30913
1.34409
1.37811
1.41121
1.44341
1.47474
1.50521
1.53486
1.56371
1.59177
1.61907
1.64562
1.67145
1.69658
1.72102
1.74479
1.76791
1.7904
1.81227
1.83354
1.85423
1.87435
0.901114
0.94706
0.991779
1.0353
1.07766
1.11887
1.15898
1.19801
1.23599
1.27294
1.30889
1.34387
1.3779
1.41101
1.44322
1.47455
1.50504
1.5347
1.56354
1.59161
1.61891
1.64546
1.67129
1.69641
1.72085
1.74462
1.76774
1.79023
1.81209
1.83336
1.85405
1.87416
0.946515
0.991284
1.03485
1.07725
1.11851
1.15865
1.19771
1.23571
1.27269
1.30866
1.34366
1.37771
1.41083
1.44306
1.4744
1.5049
1.53456
1.56342
1.59148
1.61879
1.64534
1.67117
1.6963
1.72074
1.7445
1.76762
1.7901
1.81197
1.83324
1.85392
1.87403
0.945958
0.990781
1.0344
1.07684
1.11814
1.15832
1.19742
1.23545
1.27246
1.30845
1.34348
1.37754
1.41068
1.44292
1.47428
1.50479
1.53446
1.56332
1.5914
1.6187
1.64526
1.6711
1.69622
1.72066
1.74443
1.76755
1.79003
1.81189
1.83316
1.85384
1.87395
0.945385
0.990265
1.03394
1.07643
1.11777
1.158
1.19713
1.2352
1.27223
1.30826
1.34331
1.3774
1.41056
1.44281
1.47419
1.5047
1.53439
1.56326
1.59134
1.61865
1.64522
1.67106
1.69619
1.72063
1.7444
1.76751
1.78999
1.81186
1.83312
1.8538
1.87391
0.944792
0.989733
1.03346
1.07601
1.1174
1.15767
1.19684
1.23495
1.27202
1.30808
1.34315
1.37727
1.41045
1.44272
1.47412
1.50465
1.53434
1.56323
1.59132
1.61864
1.64521
1.67105
1.69618
1.72063
1.7444
1.76752
1.79
1.81186
1.83312
1.8538
1.87391
1.07557
1.11702
1.15734
1.19656
1.23471
1.27181
1.3079
1.34301
1.37715
1.41036
1.44265
1.47406
1.50461
1.53432
1.56322
1.59132
1.61865
1.64523
1.67108
1.69621
1.72066
1.74443
1.76755
1.79004
1.8119
1.83316
1.85384
1.87395
1.07512
1.11663
1.157
1.19627
1.23446
1.27161
1.30774
1.34287
1.37705
1.41028
1.4426
1.47403
1.5046
1.53432
1.56323
1.59135
1.61869
1.64527
1.67113
1.69627
1.72072
1.7445
1.76762
1.79011
1.81197
1.83323
1.85391
1.87402
1.07466
1.11622
1.15665
1.19597
1.23421
1.2714
1.30757
1.34274
1.37695
1.41021
1.44256
1.47401
1.5046
1.53434
1.56327
1.59139
1.61874
1.64534
1.67121
1.69636
1.72081
1.74459
1.76772
1.79021
1.81207
1.83334
1.85401
1.87412
1.07417
1.11579
1.15628
1.19565
1.23395
1.27118
1.3074
1.34261
1.37685
1.41014
1.44252
1.474
1.50461
1.53437
1.56332
1.59146
1.61882
1.64543
1.6713
1.69646
1.72092
1.74471
1.76784
1.79033
1.8122
1.83346
1.85414
1.87424
1.07365
1.11534
1.15589
1.19532
1.23367
1.27096
1.30722
1.34247
1.37675
1.41008
1.44249
1.474
1.50463
1.53442
1.56338
1.59154
1.61892
1.64554
1.67142
1.69659
1.72106
1.74485
1.76798
1.79048
1.81235
1.83361
1.85429
1.8744
1.07311
1.11487
1.15548
1.19498
1.23338
1.27072
1.30703
1.34233
1.37665
1.41002
1.44246
1.474
1.50466
1.53447
1.56345
1.59163
1.61903
1.64566
1.67155
1.69673
1.72121
1.74501
1.76815
1.79065
1.81252
1.83379
1.85447
1.87457
1.07253
1.11437
1.15505
1.19461
1.23307
1.27047
1.30683
1.34218
1.37655
1.40996
1.44243
1.474
1.5047
1.53453
1.56354
1.59174
1.61915
1.6458
1.6717
1.69689
1.72138
1.74519
1.76833
1.79083
1.81271
1.83398
1.85466
1.87477
1.07193
1.11383
1.15458
1.19421
1.23274
1.2702
1.30662
1.34202
1.37643
1.40988
1.4424
1.47401
1.50473
1.5346
1.56363
1.59185
1.61928
1.64594
1.67187
1.69707
1.72156
1.74538
1.76853
1.79104
1.81292
1.83419
1.85488
1.87499
1.07128
1.11326
1.15409
1.19379
1.23238
1.26991
1.30638
1.34184
1.3763
1.4098
1.44236
1.47401
1.50477
1.53466
1.56372
1.59197
1.61942
1.6461
1.67204
1.69725
1.72176
1.74559
1.76875
1.79126
1.81315
1.83442
1.85511
1.87522
1.0706
1.11266
1.15356
1.19333
1.232
1.26959
1.30613
1.34164
1.37616
1.40971
1.44232
1.474
1.5048
1.53473
1.56382
1.59209
1.61956
1.64627
1.67222
1.69745
1.72197
1.74581
1.76898
1.7915
1.81339
1.83467
1.85536
1.87547
1.06988
1.11201
1.15299
1.19284
1.23158
1.26924
1.30584
1.34142
1.376
1.4096
1.44226
1.47399
1.50483
1.53479
1.56391
1.59221
1.61971
1.64644
1.67241
1.69766
1.72219
1.74604
1.76922
1.79175
1.81364
1.83493
1.85562
1.87574
1.06912
1.11133
1.15239
1.19231
1.23112
1.26886
1.30553
1.34117
1.37581
1.40947
1.44218
1.47396
1.50484
1.53485
1.56401
1.59234
1.61987
1.64662
1.67261
1.69787
1.72242
1.74628
1.76947
1.79201
1.81391
1.8352
1.8559
1.87601
1.06833
1.11061
1.15174
1.19174
1.23063
1.26844
1.30519
1.3409
1.3756
1.40932
1.44209
1.47392
1.50485
1.5349
1.56409
1.59246
1.62002
1.64679
1.67281
1.69809
1.72266
1.74653
1.76973
1.79228
1.81419
1.83549
1.85619
1.8763
1.0675
1.10986
1.15106
1.19114
1.2301
1.26799
1.30481
1.34059
1.37536
1.40915
1.44197
1.47386
1.50484
1.53494
1.56417
1.59258
1.62017
1.64697
1.67301
1.69832
1.7229
1.74679
1.77
1.79256
1.81448
1.83578
1.85649
1.87661
1.06665
1.10906
1.15034
1.19049
1.22953
1.26749
1.30439
1.34025
1.37509
1.40895
1.44183
1.47378
1.50482
1.53496
1.56424
1.59269
1.62031
1.64715
1.67322
1.69854
1.72315
1.74705
1.77028
1.79285
1.81478
1.83609
1.8568
1.87692
1.06577
1.10824
1.14958
1.1898
1.22892
1.26696
1.30393
1.33987
1.37478
1.40871
1.44166
1.47368
1.50477
1.53497
1.5643
1.59278
1.62045
1.64732
1.67342
1.69877
1.7234
1.74732
1.77056
1.79314
1.81508
1.8364
1.85711
1.87724
1.06487
1.10739
1.14879
1.18907
1.22826
1.26638
1.30343
1.33944
1.37443
1.40843
1.44146
1.47354
1.50469
1.53495
1.56433
1.59287
1.62058
1.64749
1.67362
1.699
1.72365
1.74759
1.77085
1.79344
1.81539
1.83672
1.85744
1.87758
1.06397
1.10652
1.14797
1.18831
1.22757
1.26575
1.30288
1.33897
1.37404
1.40812
1.44122
1.47337
1.50459
1.53491
1.56435
1.59294
1.62069
1.64764
1.67381
1.69922
1.7239
1.74786
1.77114
1.79375
1.81571
1.83704
1.85777
1.87791
1.06306
1.10565
1.14713
1.18753
1.22684
1.26509
1.30229
1.33846
1.37361
1.40776
1.44094
1.47316
1.50445
1.53484
1.56434
1.59298
1.62079
1.64778
1.67399
1.69944
1.72414
1.74813
1.77143
1.79405
1.81603
1.83737
1.85811
1.87826
1.06216
1.10477
1.14629
1.18672
1.22608
1.26439
1.30166
1.3379
1.37313
1.40736
1.44061
1.47291
1.50428
1.53473
1.5643
1.593
1.62086
1.64791
1.67416
1.69964
1.72438
1.7484
1.77172
1.79436
1.81635
1.83771
1.85845
1.8786
1.10391
1.14544
1.1859
1.2253
1.26366
1.30099
1.3373
1.3726
1.40691
1.44024
1.47262
1.50406
1.53459
1.56423
1.59299
1.62091
1.64801
1.67431
1.69984
1.72461
1.74866
1.772
1.79467
1.81667
1.83804
1.8588
1.87895
1.10305
1.1446
1.18508
1.22451
1.26291
1.30029
1.33666
1.37202
1.40641
1.43982
1.47228
1.5038
1.53441
1.56412
1.59295
1.62094
1.64809
1.67445
1.70002
1.72483
1.74892
1.77229
1.79498
1.817
1.83838
1.85915
1.87931
1.18427
1.22372
1.26215
1.29957
1.33598
1.37141
1.40586
1.43935
1.47189
1.50349
1.53417
1.56396
1.59287
1.62093
1.64815
1.67456
1.70018
1.72504
1.74916
1.77257
1.79528
1.81732
1.83872
1.8595
1.87967
1.18347
1.22294
1.26139
1.29883
1.33529
1.37076
1.40528
1.43883
1.47145
1.50313
1.53389
1.56376
1.59275
1.62088
1.64817
1.67464
1.70032
1.72523
1.74939
1.77283
1.79558
1.81764
1.83906
1.85985
1.88003
1.22217
1.26063
1.29809
1.33458
1.37009
1.40466
1.43827
1.47096
1.50271
1.53356
1.56351
1.59258
1.62079
1.64815
1.67469
1.70044
1.7254
1.74961
1.77309
1.79587
1.81796
1.8394
1.8602
1.88039
1.22142
1.25989
1.29736
1.33387
1.36941
1.40401
1.43768
1.47042
1.50225
1.53317
1.5632
1.59236
1.62064
1.64809
1.67471
1.70052
1.72554
1.74981
1.77333
1.79614
1.81827
1.83973
1.86055
1.88075
1.22071
1.25918
1.29666
1.33317
1.36873
1.40335
1.43706
1.46985
1.50174
1.53274
1.56284
1.59208
1.62045
1.64798
1.67467
1.70056
1.72565
1.74998
1.77355
1.79641
1.81857
1.84005
1.86089
1.88111
1.25849
1.29597
1.33249
1.36806
1.4027
1.43643
1.46926
1.50119
1.53225
1.56243
1.59174
1.6202
1.64781
1.67459
1.70056
1.72572
1.75012
1.77375
1.79666
1.81885
1.84037
1.86123
1.88146
1.25783
1.29532
1.33183
1.36741
1.40206
1.4358
1.46865
1.50062
1.53173
1.56197
1.59135
1.61989
1.64759
1.67445
1.7005
1.72575
1.75022
1.77392
1.79688
1.81912
1.84068
1.86156
1.88181
1.29469
1.33121
1.36678
1.40143
1.43518
1.46805
1.50004
1.53118
1.56147
1.59091
1.61952
1.6473
1.67425
1.70039
1.72573
1.75027
1.77405
1.79708
1.81937
1.84097
1.86188
1.88215
1.2941
1.33062
1.36619
1.40084
1.43459
1.46746
1.49946
1.53062
1.56094
1.59043
1.6191
1.64695
1.67399
1.70022
1.72564
1.75028
1.77414
1.79724
1.8196
1.84124
1.86219
1.88249
1.29355
1.33006
1.36564
1.40028
1.43403
1.4669
1.49891
1.53007
1.56041
1.58993
1.61865
1.64656
1.67367
1.69998
1.7255
1.75023
1.77417
1.79736
1.81979
1.84149
1.86249
1.88281
1.32954
1.36511
1.39976
1.43351
1.46637
1.49838
1.52954
1.55989
1.58942
1.61817
1.64612
1.67329
1.69968
1.72529
1.75011
1.77415
1.79742
1.81994
1.84171
1.86276
1.88312
1.32906
1.36463
1.39927
1.43302
1.46588
1.49788
1.52904
1.55939
1.58893
1.61769
1.64567
1.67288
1.69933
1.72501
1.74993
1.77407
1.79744
1.82004
1.84189
1.86301
1.88342
1.32862
1.36418
1.39882
1.43256
1.46542
1.49742
1.52858
1.55892
1.58846
1.61722
1.64522
1.67246
1.69895
1.72469
1.74968
1.77391
1.79738
1.82009
1.84203
1.86323
1.88369
1.36378
1.39841
1.43214
1.465
1.49699
1.52815
1.55848
1.58802
1.61678
1.64478
1.67203
1.69854
1.72433
1.74938
1.7737
1.79726
1.82007
1.84212
1.8634
1.88394
1.36341
1.39804
1.43176
1.46461
1.4966
1.52775
1.55808
1.58762
1.61637
1.64437
1.67162
1.69815
1.72395
1.74905
1.77343
1.79708
1.81999
1.84215
1.86353
1.88415
1.36307
1.3977
1.43142
1.46426
1.49624
1.52739
1.55771
1.58725
1.616
1.64399
1.67124
1.69777
1.72358
1.7487
1.77312
1.79684
1.81985
1.84211
1.86361
1.88433
1.36277
1.39739
1.4311
1.46394
1.49591
1.52705
1.55738
1.5869
1.61565
1.64364
1.67089
1.69742
1.72323
1.74836
1.77281
1.79657
1.81965
1.84201
1.86362
1.88445
1.3625
1.39711
1.43082
1.46364
1.49561
1.52675
1.55707
1.58659
1.61533
1.64332
1.67056
1.69709
1.72291
1.74804
1.7725
1.79629
1.81941
1.84185
1.86358
1.88453
1.36225
1.39685
1.43055
1.46338
1.49534
1.52647
1.55678
1.58629
1.61503
1.64302
1.67026
1.69678
1.7226
1.74774
1.7722
1.79601
1.81916
1.84166
1.86347
1.88454
1.36202
1.39662
1.43031
1.46313
1.49509
1.52621
1.55651
1.58602
1.61476
1.64273
1.66997
1.69649
1.72231
1.74745
1.77192
1.79573
1.81891
1.84145
1.86333
1.8845
1.36181
1.3964
1.43008
1.46289
1.49485
1.52596
1.55626
1.58577
1.61449
1.64247
1.6697
1.69622
1.72204
1.74717
1.77164
1.79546
1.81865
1.84122
1.86315
1.88442
1.36158
1.39617
1.42986
1.46267
1.49463
1.52574
1.55604
1.58553
1.61425
1.64222
1.66944
1.69595
1.72176
1.74689
1.77136
1.79519
1.81839
1.84098
1.86295
1.88428
1.3614
1.39599
1.42967
1.46247
1.49441
1.52552
1.5558
1.58529
1.614
1.64196
1.66918
1.69569
1.72149
1.74662
1.77108
1.7949
1.8181
1.84069
1.86269
1.88405
1.36123
1.39582
1.42951
1.46231
1.49426
1.52536
1.55564
1.58513
1.61384
1.64178
1.66899
1.69548
1.72126
1.74637
1.77081
1.79461
1.81779
1.84037
1.86237
1.88375
1.36114
1.39572
1.42941
1.46221
1.49415
1.52525
1.55553
1.58501
1.61372
1.64166
1.66886
1.69533
1.7211
1.74619
1.77059
1.79434
1.81745
1.83992
1.86176
1.88274
3.79351
3.73837
3.68426
3.63114
3.57901
3.52783
3.47759
3.42826
3.37984
3.33231
3.28565
3.23985
3.1949
3.1508
3.10762
3.06532
3.02382
2.98309
2.94313
2.90392
2.86545
2.8277
2.79067
2.75433
2.71868
2.6837
2.64937
2.61569
2.58264
2.55021
2.51839
2.48716
2.45652
2.42645
2.39694
2.36798
2.33956
2.31168
2.28432
2.25748
2.23114
2.20529
2.17994
2.15506
2.13066
2.10674
2.08328
2.06028
2.03776
2.01574
1.99418
1.97283
1.95254
1.93403
1.90754
3.79294
3.7378
3.68369
3.63057
3.57843
3.52725
3.47701
3.42768
3.37925
3.33172
3.28506
3.23926
3.19432
3.15028
3.10714
3.06483
3.02332
2.98259
2.94263
2.90342
2.86496
2.82721
2.79018
2.75384
2.71819
2.68321
2.64888
2.6152
2.58215
2.54972
2.51789
2.48666
2.45601
2.42593
2.39641
2.36745
2.33903
2.31113
2.28376
2.2569
2.23055
2.20468
2.1793
2.1544
2.12996
2.10598
2.08245
2.05936
2.0367
2.01447
1.99264
1.97087
1.94914
1.92821
1.90601
3.79238
3.73724
3.68313
3.63002
3.57789
3.5267
3.47646
3.42713
3.37871
3.33117
3.28452
3.23872
3.1938
3.14981
3.1067
3.0644
3.0229
2.98218
2.94223
2.90303
2.86457
2.82684
2.78981
2.75349
2.71784
2.68287
2.64855
2.61487
2.58182
2.54939
2.51757
2.48634
2.45569
2.42562
2.3961
2.36714
2.33871
2.31082
2.28344
2.25657
2.2302
2.20432
2.17892
2.15398
2.1295
2.10546
2.08185
2.05866
2.03587
2.01345
1.9914
1.96958
1.94785
1.92656
1.90536
3.79185
3.73672
3.68262
3.62951
3.57737
3.52619
3.47595
3.42662
3.3782
3.33066
3.28401
3.23821
3.19333
3.14938
3.10629
3.064
3.0225
2.98179
2.94185
2.90266
2.86421
2.82648
2.78946
2.75314
2.7175
2.68253
2.64822
2.61455
2.5815
2.54908
2.51725
2.48603
2.45538
2.4253
2.39579
2.36682
2.33839
2.31049
2.28311
2.25623
2.22985
2.20396
2.17854
2.15358
2.12908
2.10502
2.08139
2.05818
2.03537
2.01295
1.9909
1.96922
1.9478
1.92661
1.90541
3.79133
3.7362
3.6821
3.62899
3.57686
3.52568
3.47543
3.42611
3.37768
3.33015
3.28349
3.23771
3.19288
3.14896
3.10587
3.06359
3.0221
2.9814
2.94146
2.90228
2.86384
2.82612
2.78911
2.75279
2.71716
2.68219
2.64788
2.61421
2.58117
2.54875
2.51693
2.4857
2.45505
2.42498
2.39546
2.36649
2.33806
2.31016
2.28277
2.25589
2.2295
2.2036
2.17817
2.1532
2.12869
2.10462
2.08099
2.05778
2.03498
2.01259
1.99058
1.96896
1.94768
1.92663
1.90544
3.7908
3.73568
3.68157
3.62847
3.57634
3.52516
3.47491
3.42558
3.37716
3.32963
3.28297
3.23723
3.19244
3.14854
3.10545
3.06318
3.0217
2.98101
2.94108
2.90191
2.86347
2.82576
2.78875
2.75244
2.71682
2.68185
2.64755
2.61388
2.58084
2.54842
2.5166
2.48538
2.45473
2.42466
2.39514
2.36617
2.33774
2.30983
2.28244
2.25556
2.22917
2.20326
2.17783
2.15286
2.12835
2.10428
2.08064
2.05744
2.03465
2.01227
1.99029
1.96869
1.94744
1.92648
1.90541
3.79027
3.73515
3.68105
3.62795
3.57581
3.52464
3.47439
3.42506
3.37664
3.3291
3.28245
3.23676
3.19201
3.14811
3.10503
3.06277
3.0213
2.98062
2.9407
2.90153
2.8631
2.8254
2.7884
2.75209
2.71647
2.68152
2.64721
2.61355
2.58052
2.5481
2.51628
2.48506
2.45441
2.42434
2.39482
2.36585
2.33742
2.30952
2.28213
2.25524
2.22885
2.20294
2.17751
2.15255
2.12804
2.10398
2.08035
2.05716
2.03438
2.01202
1.99006
1.96848
1.94723
1.9263
1.90535
3.78975
3.73463
3.68053
3.62742
3.57529
3.52411
3.47387
3.42454
3.37611
3.32858
3.28196
3.23631
3.19158
3.14769
3.10462
3.06236
3.02091
2.98023
2.94032
2.90116
2.86274
2.82504
2.78804
2.75175
2.71613
2.68118
2.64688
2.61322
2.58019
2.54777
2.51596
2.48474
2.4541
2.42402
2.39451
2.36554
2.33711
2.30921
2.28182
2.25494
2.22855
2.20265
2.17722
2.15226
2.12776
2.1037
2.08009
2.05691
2.03414
2.01179
1.98984
1.96827
1.94705
1.92611
1.90522
3.78922
3.7341
3.68001
3.6269
3.57477
3.52359
3.47334
3.42402
3.37559
3.32806
3.28149
3.23588
3.19116
3.14727
3.10421
3.06196
3.02051
2.97984
2.93994
2.90079
2.86237
2.82468
2.78769
2.7514
2.71579
2.68084
2.64655
2.61289
2.57986
2.54745
2.51564
2.48442
2.45379
2.42372
2.39421
2.36524
2.33681
2.30891
2.28153
2.25465
2.22827
2.20237
2.17695
2.15199
2.1275
2.10345
2.07985
2.05667
2.03392
2.01157
1.98962
1.96806
1.94684
1.92589
1.90505
3.78869
3.73358
3.67949
3.62638
3.57425
3.52307
3.47282
3.42349
3.37507
3.32755
3.28103
3.23545
3.19073
3.14685
3.1038
3.06156
3.02012
2.97946
2.93956
2.90042
2.86201
2.82432
2.78734
2.75105
2.71545
2.6805
2.64622
2.61257
2.57954
2.54713
2.51533
2.48411
2.45348
2.42341
2.39391
2.36495
2.33652
2.30863
2.28125
2.25437
2.22799
2.2021
2.17669
2.15174
2.12725
2.10321
2.07961
2.05644
2.03369
2.01134
1.9894
1.96782
1.94659
1.92563
1.90484
3.78817
3.73306
3.67896
3.62586
3.57373
3.52255
3.4723
3.42296
3.37454
3.32707
3.28059
3.23502
3.19031
3.14644
3.10339
3.06116
3.01973
2.97907
2.93918
2.90005
2.86165
2.82397
2.78699
2.75071
2.71511
2.68017
2.64589
2.61224
2.57922
2.54682
2.51502
2.48381
2.45318
2.42312
2.39361
2.36466
2.33624
2.30835
2.28097
2.2541
2.22773
2.20184
2.17643
2.15149
2.127
2.10297
2.07937
2.0562
2.03345
2.0111
1.98915
1.96756
1.94631
1.92535
1.9046
3.78765
3.73254
3.67845
3.62534
3.57321
3.52203
3.47177
3.42244
3.37402
3.3266
3.28016
3.23459
3.18989
3.14602
3.10299
3.06077
3.01934
2.97869
2.93881
2.89968
2.86129
2.82361
2.78665
2.75037
2.71477
2.67984
2.64556
2.61192
2.57891
2.54651
2.51471
2.48351
2.45288
2.42283
2.39333
2.36438
2.33596
2.30807
2.2807
2.25384
2.22747
2.20158
2.17618
2.15124
2.12676
2.10272
2.07912
2.05595
2.0332
2.01084
1.98888
1.96728
1.94601
1.92505
1.90433
3.78713
3.73202
3.67793
3.62483
3.57269
3.52151
3.47125
3.42192
3.37353
3.32615
3.27972
3.23417
3.18947
3.14562
3.10259
3.06038
3.01896
2.97832
2.93844
2.89932
2.86093
2.82327
2.7863
2.75003
2.71444
2.67952
2.64524
2.61161
2.5786
2.5462
2.51441
2.48321
2.45259
2.42254
2.39304
2.3641
2.33569
2.3078
2.28044
2.25357
2.22721
2.20133
2.17592
2.15099
2.1265
2.10247
2.07887
2.05569
2.03293
2.01057
1.98859
1.96697
1.9457
1.92473
1.90403
3.78662
3.73151
3.67742
3.62431
3.57218
3.52099
3.47073
3.4214
3.37306
3.32572
3.2793
3.23375
3.18906
3.14522
3.1022
3.05999
3.01858
2.97795
2.93808
2.89896
2.86058
2.82292
2.78596
2.7497
2.71411
2.67919
2.64492
2.61129
2.57829
2.5459
2.51411
2.48292
2.4523
2.42225
2.39276
2.36382
2.33542
2.30753
2.28017
2.25331
2.22695
2.20107
2.17566
2.15073
2.12624
2.1022
2.0786
2.05542
2.03265
2.01027
1.98828
1.96666
1.94538
1.92441
1.90372
3.7861
3.731
3.6769
3.6238
3.57166
3.52047
3.47022
3.4209
3.3726
3.32529
3.27888
3.23334
3.18866
3.14482
3.10181
3.05961
3.0182
2.97758
2.93772
2.89861
2.86023
2.82258
2.78563
2.74937
2.71379
2.67887
2.64461
2.61099
2.57799
2.5456
2.51382
2.48263
2.45202
2.42197
2.39249
2.36355
2.33514
2.30727
2.2799
2.25305
2.22668
2.2008
2.1754
2.15046
2.12597
2.10193
2.07832
2.05513
2.03235
2.00997
1.98797
1.96633
1.94504
1.92407
1.9034
3.7856
3.73049
3.6764
3.62329
3.57115
3.51996
3.46971
3.42042
3.37216
3.32487
3.27846
3.23293
3.18826
3.14443
3.10142
3.05923
3.01784
2.97722
2.93737
2.89826
2.85989
2.82224
2.7853
2.74904
2.71347
2.67856
2.6443
2.61068
2.57769
2.54531
2.51353
2.48234
2.45173
2.42169
2.39221
2.36327
2.33487
2.307
2.27963
2.25278
2.22642
2.20054
2.17513
2.15019
2.1257
2.10165
2.07803
2.05484
2.03205
2.00965
1.98764
1.96599
1.9447
1.92373
1.90307
3.7851
3.72999
3.6759
3.62279
3.57064
3.51945
3.4692
3.41996
3.37174
3.32445
3.27805
3.23253
3.18786
3.14404
3.10105
3.05886
3.01747
2.97686
2.93702
2.89792
2.85955
2.82191
2.78497
2.74872
2.71315
2.67825
2.64399
2.61038
2.57739
2.54501
2.51324
2.48205
2.45145
2.42141
2.39193
2.363
2.3346
2.30672
2.27936
2.25251
2.22614
2.20026
2.17485
2.14991
2.12541
2.10136
2.07773
2.05453
2.03173
2.00933
1.9873
1.96565
1.94434
1.92338
1.90272
3.7846
3.7295
3.6754
3.62229
3.57014
3.51895
3.46871
3.41951
3.37132
3.32404
3.27765
3.23213
3.18748
3.14366
3.10067
3.0585
3.01712
2.97651
2.93667
2.89758
2.85922
2.82158
2.78465
2.7484
2.71284
2.67794
2.64369
2.61008
2.57709
2.54472
2.51295
2.48177
2.45117
2.42113
2.39165
2.36272
2.33432
2.30645
2.27909
2.25223
2.22586
2.19998
2.17457
2.14962
2.12512
2.10106
2.07743
2.05421
2.0314
2.00899
1.98696
1.9653
1.94399
1.92302
1.90237
3.78411
3.72901
3.67491
3.62179
3.56964
3.51845
3.46825
3.41909
3.37091
3.32364
3.27725
3.23174
3.1871
3.14329
3.10031
3.05814
3.01676
2.97617
2.93633
2.89725
2.85889
2.82126
2.78433
2.74809
2.71253
2.67763
2.64339
2.60978
2.5768
2.54443
2.51266
2.48148
2.45088
2.42085
2.39138
2.36244
2.33405
2.30617
2.27881
2.25195
2.22558
2.19969
2.17428
2.14932
2.12482
2.10075
2.07711
2.05389
2.03107
2.00865
1.98661
1.96494
1.94363
1.92266
1.90202
3.78363
3.72852
3.67442
3.6213
3.56915
3.51797
3.46781
3.41868
3.37051
3.32324
3.27687
3.23137
3.18673
3.14293
3.09995
3.05779
3.01642
2.97583
2.936
2.89692
2.85857
2.82094
2.78402
2.74779
2.71223
2.67734
2.64309
2.60949
2.57651
2.54414
2.51238
2.4812
2.4506
2.42057
2.3911
2.36216
2.33377
2.30589
2.27853
2.25166
2.22529
2.1994
2.17398
2.14902
2.12451
2.10043
2.07678
2.05355
2.03073
2.0083
1.98625
1.96458
1.94326
1.92229
1.90166
3.78316
3.72805
3.67394
3.62082
3.56867
3.5175
3.46738
3.41828
3.37012
3.32286
3.27649
3.231
3.18636
3.14257
3.09961
3.05745
3.01609
2.9755
2.93568
2.8966
2.85826
2.82063
2.78371
2.74748
2.71193
2.67704
2.6428
2.6092
2.57622
2.54386
2.51209
2.48092
2.45032
2.42029
2.39082
2.36188
2.33348
2.30561
2.27824
2.25137
2.225
2.1991
2.17368
2.14871
2.12419
2.10011
2.07645
2.05322
2.03038
2.00795
1.98589
1.96421
1.94289
1.92192
1.90129
3.78269
3.72758
3.67347
3.62035
3.5682
3.51706
3.46698
3.41789
3.36973
3.32248
3.27612
3.23063
3.18601
3.14222
3.09927
3.05712
3.01576
2.97518
2.93536
2.89629
2.85795
2.82033
2.78342
2.74719
2.71164
2.67675
2.64252
2.60892
2.57594
2.54358
2.51182
2.48064
2.45004
2.42001
2.39054
2.3616
2.3332
2.30532
2.27795
2.25108
2.2247
2.1988
2.17337
2.1484
2.12387
2.09978
2.07612
2.05287
2.03003
2.00759
1.98553
1.96384
1.94252
1.92155
1.90093
3.78223
3.72712
3.67301
3.61988
3.56774
3.51664
3.4666
3.41752
3.36936
3.32211
3.27576
3.23028
3.18567
3.14189
3.09894
3.05679
3.01544
2.97487
2.93505
2.89599
2.85765
2.82004
2.78312
2.7469
2.71135
2.67647
2.64223
2.60864
2.57566
2.5433
2.51154
2.48036
2.44977
2.41974
2.39026
2.36132
2.33292
2.30503
2.27766
2.25079
2.2244
2.1985
2.17306
2.14808
2.12355
2.09945
2.07578
2.05253
2.02968
2.00723
1.98516
1.96347
1.94215
1.92118
1.90056
3.78179
3.72667
3.67256
3.61943
3.56731
3.51624
3.46622
3.41715
3.369
3.32176
3.27541
3.22994
3.18533
3.14156
3.09861
3.05648
3.01513
2.97456
2.93475
2.89569
2.85736
2.81975
2.78284
2.74662
2.71107
2.67619
2.64196
2.60836
2.57539
2.54303
2.51127
2.48009
2.44949
2.41946
2.38998
2.36104
2.33263
2.30475
2.27737
2.25049
2.2241
2.19819
2.17275
2.14776
2.12322
2.09912
2.07544
2.05218
2.02933
2.00687
1.9848
1.96311
1.94178
1.92081
1.90019
3.78136
3.72624
3.67212
3.619
3.5669
3.51587
3.46586
3.41679
3.36865
3.32142
3.27508
3.22962
3.18501
3.14125
3.0983
3.05617
3.01483
2.97427
2.93446
2.89541
2.85708
2.81947
2.78256
2.74634
2.7108
2.67592
2.64169
2.60809
2.57512
2.54276
2.511
2.47982
2.44922
2.41919
2.3897
2.36076
2.33235