/*--------------------------------*- C++ -*----------------------------------*\
  =========                 |
  \\      /  F ield         | OpenFOAM: The Open Source CFD Toolbox
   \\    /   O peration     | Website:  https://openfoam.org
    \\  /    A nd           | Version:  10
     \\/     M anipulation  |
\*---------------------------------------------------------------------------*/
FoamFile
{
    format      ascii;
    class       volVectorField;
    location    "10000";
    object      U;
}
// * * * * * * * * * * * * * * * * * * * * * * * * * * * * * * * * * * * * * //

dimensions      [0 1 -1 0 0 0 0];

internalField   nonuniform List<vector> 
17981
(
(-0.0443452 3.65125 4.14418e-21)
(-0.044563 3.66849 -3.95975e-21)
(-0.0446231 3.68523 0)
(-0.0446642 3.70149 -2.41922e-20)
(-0.0447016 3.71729 5.25224e-20)
(-0.0447295 3.73264 -2.8106e-20)
(-0.0447471 3.74755 0)
(-0.0447554 3.76205 2.42425e-21)
(-0.0447553 3.77613 0)
(-0.0447478 3.78982 0)
(-0.0447334 3.80312 -2.92623e-21)
(-0.0447131 3.81604 5.36666e-20)
(-0.0446874 3.8286 -4.84498e-20)
(-0.044657 3.8408 0)
(-0.0446226 3.85265 0)
(-0.0445845 3.86417 0)
(-0.0445434 3.87535 0)
(-0.0444997 3.88622 -5.52574e-20)
(-0.0444538 3.89677 5.29358e-20)
(-0.0444061 3.90701 1.10402e-19)
(-0.044357 3.91696 -1.04111e-19)
(-0.0443067 3.92662 -1.67591e-21)
(-0.0442555 3.93599 0)
(-0.0442036 3.94509 0)
(-0.0441514 3.95392 1.05896e-19)
(-0.044099 3.96248 -9.99403e-20)
(-0.0440465 3.97079 1.02942e-19)
(-0.0439941 3.97885 -9.87426e-20)
(-0.043942 3.98667 -1.53669e-21)
(-0.0438903 3.99425 0)
(-0.043839 4.00159 7.40797e-22)
(-0.0437884 4.00872 -7.26326e-22)
(-0.0437383 4.01562 -7.11505e-22)
(-0.043689 4.0223 8.93174e-20)
(-0.0436404 4.02878 -8.57311e-20)
(-0.0435926 4.03505 -6.65671e-22)
(-0.0435457 4.04112 0)
(-0.0434996 4.047 0)
(-0.0434544 4.05269 6.19024e-22)
(-0.04341 4.05819 -7.84413e-20)
(-0.0433666 4.06351 -4.69387e-22)
(-0.0433241 4.06866 7.22707e-20)
(-0.0432826 4.07364 2.78811e-22)
(-0.0432419 4.07845 0)
(-0.0432021 4.0831 0)
(-0.0431625 4.08758 0)
(-0.0431249 4.09192 0)
(-0.0430884 4.09606 -6.96883e-20)
(-0.128869 3.64879 -1.69939e-20)
(-0.129385 3.66594 0)
(-0.129866 3.68261 -7.28766e-20)
(-0.130318 3.69879 1.74646e-19)
(-0.130744 3.71452 -9.68255e-20)
(-0.131146 3.72981 1.41808e-19)
(-0.131525 3.74466 -1.35547e-19)
(-0.131883 3.7591 2.5282e-21)
(-0.132222 3.77312 5.45782e-21)
(-0.132542 3.78676 -1.94786e-19)
(-0.132845 3.8 3.86573e-19)
(-0.133133 3.81288 -1.97653e-19)
(-0.133406 3.82539 0)
(-0.133665 3.83754 6.67939e-21)
(-0.133911 3.84935 -2.2415e-19)
(-0.134145 3.86082 2.1452e-19)
(-0.134368 3.87197 2.28177e-19)
(-0.13458 3.88279 -2.18457e-19)
(-0.134782 3.89331 3.50185e-21)
(-0.134975 3.90352 0)
(-0.135159 3.91344 -1.74404e-21)
(-0.135335 3.92306 2.27641e-19)
(-0.135503 3.93241 -2.13038e-19)
(-0.135663 3.94148 2.24958e-19)
(-0.135817 3.95029 -4.31229e-19)
(-0.135964 3.95883 2.0816e-19)
(-0.136105 3.96712 -2.12648e-19)
(-0.136241 3.97516 2.03932e-19)
(-0.13637 3.98296 1.58729e-21)
(-0.136495 3.99052 0)
(-0.136614 3.99785 7.64209e-22)
(-0.136728 4.00496 7.49899e-22)
(-0.136838 4.01184 -1.89128e-19)
(-0.136944 4.01852 1.82944e-19)
(-0.137045 4.02498 -2.10822e-21)
(-0.137143 4.03124 1.78038e-19)
(-0.137237 4.03731 -1.70277e-19)
(-0.137326 4.04318 0)
(-0.137413 4.04886 1.64074e-19)
(-0.137496 4.05436 -3.16853e-19)
(-0.137576 4.05967 1.5237e-19)
(-0.137652 4.06482 -1.51659e-19)
(-0.137726 4.06979 -2.76711e-21)
(-0.137796 4.07459 1.41808e-19)
(-0.137864 4.07924 0)
(-0.137928 4.08373 0)
(-0.137991 4.08806 5.26443e-22)
(-0.138051 4.0922 -2.81326e-22)
(-0.210696 3.64475 0)
(-0.211619 3.6618 5.14318e-20)
(-0.2125 3.67836 -5.31555e-20)
(-0.213341 3.69446 1.06321e-19)
(-0.214143 3.71009 -1.08712e-19)
(-0.214909 3.72529 -8.48358e-21)
(-0.215641 3.74006 0)
(-0.216341 3.75442 -5.28378e-21)
(-0.217011 3.76837 -1.70901e-20)
(-0.217652 3.78193 0)
(-0.218267 3.79511 6.34445e-21)
(-0.218856 3.80792 1.31752e-20)
(-0.219421 3.82037 0)
(-0.219963 3.83246 -2.10263e-24)
(-0.220483 3.84421 7.06763e-21)
(-0.220983 3.85563 0)
(-0.221464 3.86673 4.73684e-19)
(-0.221926 3.87751 -4.46017e-19)
(-0.22237 3.88798 -4.78664e-19)
(-0.222798 3.89815 4.54755e-19)
(-0.22321 3.90802 -7.224e-21)
(-0.223606 3.91761 0)
(-0.223988 3.92692 3.5591e-21)
(-0.224356 3.93596 -3.52654e-21)
(-0.224711 3.94473 3.48405e-21)
(-0.225053 3.95324 -4.43026e-19)
(-0.225383 3.96151 4.27984e-19)
(-0.225701 3.96952 -3.33504e-21)
(-0.226008 3.97729 0)
(-0.226304 3.98483 4.13763e-19)
(-0.226589 3.99214 1.04557e-20)
(-0.226865 3.99923 -3.95341e-19)
(-0.227131 4.0061 0)
(-0.227388 4.01275 0)
(-0.227636 4.0192 -3.76245e-19)
(-0.227875 4.02545 3.62597e-19)
(-0.228105 4.0315 -1.38394e-21)
(-0.228328 4.03736 0)
(-0.228542 4.04303 1.31726e-21)
(-0.22875 4.04851 -1.28477e-21)
(-0.228949 4.05382 -3.22624e-19)
(-0.229142 4.05896 3.09903e-19)
(-0.229328 4.06392 5.93353e-22)
(-0.229507 4.06872 -5.76719e-22)
(-0.229679 4.07336 -1.1225e-21)
(-0.229844 4.07784 0)
(-0.230005 4.08217 -5.44449e-22)
(-0.230157 4.08631 -3.0067e-19)
(-0.294938 3.70409 -7.55552e-21)
(-0.296055 3.71919 8.90253e-21)
(-0.297128 3.73388 3.46939e-19)
(-0.298159 3.74815 -7.08223e-19)
(-0.29915 3.76202 3.7188e-19)
(-0.300102 3.7755 -1.26422e-20)
(-0.301018 3.7886 4.29425e-19)
(-0.3019 3.80134 -4.36432e-19)
(-0.302748 3.81372 0)
(-0.303566 3.82575 -7.23876e-21)
(-0.304353 3.83744 4.77662e-19)
(-0.305111 3.8488 -4.63594e-19)
(-0.305843 3.85983 -4.77479e-19)
(-0.306548 3.87056 -3.77235e-20)
(-0.307228 3.88098 4.72181e-19)
(-0.307884 3.8911 -4.91658e-19)
(-0.308518 3.90093 4.70534e-19)
(-0.309129 3.91047 0)
(-0.30972 3.91974 4.73028e-19)
(-0.31029 3.92874 -9.3505e-19)
(-0.310841 3.93747 4.44143e-19)
(-0.311372 3.94595 4.58591e-19)
(-0.311886 3.95418 -4.35863e-19)
(-0.312383 3.96216 -3.44837e-21)
(-0.312863 3.9699 -4.39377e-19)
(-0.313326 3.97741 -3.16618e-21)
(-0.313774 3.9847 -1.57045e-20)
(-0.314207 3.99176 4.1175e-19)
(-0.314626 3.99861 4.05071e-19)
(-0.31503 4.00524 -7.8477e-19)
(-0.31542 4.01167 3.83116e-19)
(-0.315798 4.0179 -3.7803e-19)
(-0.316162 4.02393 3.64292e-19)
(-0.316515 4.02977 -3.59881e-19)
(-0.316855 4.03543 -9.39298e-21)
(-0.317183 4.0409 3.36905e-19)
(-0.3175 4.0462 3.87437e-21)
(-0.317807 4.05132 -3.22886e-19)
(-0.318102 4.05627 3.1015e-19)
(-0.318387 4.06106 1.19145e-21)
(-0.318662 4.06569 1.15879e-21)
(-0.318926 4.07017 2.88864e-19)
(-0.319183 4.07449 -2.86449e-19)
(-0.319427 4.07862 0)
(-0.373219 3.69669 -2.08592e-19)
(-0.37468 3.7117 -1.87208e-20)
(-0.376085 3.72629 0)
(-0.377438 3.74046 3.96034e-19)
(-0.37874 3.75424 -3.77512e-19)
(-0.379996 3.76764 2.64961e-20)
(-0.381205 3.78066 2.77397e-20)
(-0.382371 3.79331 0)
(-0.383495 3.80561 0)
(-0.384579 3.81757 -1.51086e-20)
(-0.385626 3.82919 0)
(-0.386635 3.84048 0)
(-0.38761 3.85145 -1.5637e-20)
(-0.388551 3.86211 7.84507e-21)
(-0.38946 3.87247 -5.13093e-19)
(-0.390338 3.88253 4.90621e-19)
(-0.391187 3.89231 -5.00093e-19)
(-0.392007 3.9018 4.85907e-19)
(-0.392799 3.91102 7.65869e-21)
(-0.393565 3.91997 0)
(-0.394306 3.92867 -4.8609e-19)
(-0.395022 3.9371 -2.07946e-20)
(-0.395714 3.94529 -1.97834e-20)
(-0.396384 3.95323 4.58727e-19)
(-0.397031 3.96094 -4.54848e-19)
(-0.397657 3.96842 -1.36125e-20)
(-0.398263 3.97567 4.37875e-19)
(-0.398848 3.98271 -4.31428e-19)
(-0.399415 3.98953 4.106e-19)
(-0.399962 3.99613 0)
(-0.400491 4.00254 4.00107e-19)
(-0.401003 4.00874 -3.89982e-19)
(-0.401498 4.01476 0)
(-0.401976 4.02058 2.88087e-21)
(-0.402438 4.02621 2.81056e-21)
(-0.402885 4.03167 2.73769e-21)
(-0.403316 4.03695 3.41175e-19)
(-0.403733 4.04206 -6.68821e-19)
(-0.404135 4.047 3.25276e-19)
(-0.404524 4.05177 0)
(-0.404899 4.05639 0)
(-0.40526 4.06085 3.00552e-19)
(-0.40561 4.06517 -2.96318e-19)
(-0.405943 4.06928 0)
(-0.449049 3.68806 -2.37036e-19)
(-0.450841 3.70296 -3.26001e-19)
(-0.452568 3.71744 7.13281e-19)
(-0.454233 3.73152 -3.65734e-19)
(-0.455838 3.7452 -4.44427e-19)
(-0.457386 3.7585 4.09368e-19)
(-0.45888 3.77142 -1.45575e-20)
(-0.46032 3.78399 0)
(-0.461711 3.7962 -5.13358e-19)
(-0.463054 3.80808 1.02776e-18)
(-0.464351 3.81962 3.05458e-20)
(-0.465603 3.83083 -5.04694e-19)
(-0.466813 3.84173 -1.63113e-20)
(-0.467983 3.85233 -5.35748e-19)
(-0.469113 3.86262 5.11758e-19)
(-0.470206 3.87262 -5.32153e-19)
(-0.471262 3.88234 -1.98256e-20)
(-0.472284 3.89177 5.05299e-19)
(-0.473272 3.90094 -2.38825e-20)
(-0.474228 3.90984 0)
(-0.475152 3.91848 3.65789e-24)
(-0.476047 3.92687 7.65853e-21)
(-0.476912 3.93501 4.88849e-19)
(-0.477749 3.94292 1.21028e-20)
(-0.478559 3.95059 -9.31501e-19)
(-0.479342 3.95803 4.44551e-19)
(-0.480101 3.96524 -1.39971e-20)
(-0.480834 3.97224 0)
(-0.481544 3.97903 -8.67109e-19)
(-0.48223 3.98561 8.31568e-19)
(-0.482894 3.99199 0)
(-0.483536 3.99817 3.13046e-21)
(-0.484157 4.00416 7.88462e-19)
(-0.484758 4.00995 -7.59671e-19)
(-0.485338 4.01557 0)
(-0.485899 4.02101 -2.83139e-21)
(-0.486442 4.02627 2.75634e-21)
(-0.486966 4.03136 2.68494e-21)
(-0.487472 4.03629 -6.7567e-19)
(-0.487962 4.04105 6.46513e-19)
(-0.488434 4.04566 -2.47055e-21)
(-0.488889 4.05011 -6.24485e-19)
(-0.489329 4.0544 6.23202e-19)
(-0.489745 4.05849 0)
(-0.524611 3.69311 -2.08844e-20)
(-0.526651 3.70748 -2.3541e-20)
(-0.528618 3.72144 0)
(-0.530516 3.73502 -2.77105e-20)
(-0.532348 3.74822 -2.93027e-20)
(-0.534116 3.76104 0)
(-0.535824 3.77351 -5.26955e-19)
(-0.537473 3.78564 5.01812e-19)
(-0.539065 3.79742 0)
(-0.540604 3.80887 -1.10825e-18)
(-0.542092 3.82001 1.07352e-18)
(-0.543529 3.83083 1.70661e-20)
(-0.544919 3.84135 0)
(-0.546263 3.85157 0)
(-0.547563 3.8615 -1.69966e-20)
(-0.548821 3.87115 0)
(-0.550037 3.88052 1.09119e-18)
(-0.551214 3.88962 -2.12171e-18)
(-0.552353 3.89847 2.09617e-18)
(-0.553455 3.90705 -1.01027e-18)
(-0.554521 3.91539 0)
(-0.555553 3.92349 1.00763e-18)
(-0.556552 3.93134 -9.72073e-19)
(-0.557518 3.93897 0)
(-0.558454 3.94637 9.66247e-19)
(-0.559359 3.95355 -1.85033e-18)
(-0.560235 3.96051 8.92701e-19)
(-0.561083 3.96726 -8.98404e-19)
(-0.561903 3.97381 8.54526e-19)
(-0.562697 3.98015 -8.57242e-19)
(-0.563465 3.9863 8.22202e-19)
(-0.564207 3.99226 0)
(-0.564925 3.99804 7.89378e-19)
(-0.56562 4.00363 -7.63461e-19)
(-0.566291 4.00904 0)
(-0.56694 4.01428 -7.37906e-19)
(-0.567568 4.01935 7.08543e-19)
(-0.568174 4.02426 -2.70007e-21)
(-0.568759 4.029 -6.76696e-19)
(-0.569324 4.03359 1.30785e-18)
(-0.56987 4.03803 -6.36653e-19)
(-0.570395 4.0423 6.65286e-19)
(-0.570891 4.04635 7.66546e-21)
(-0.600654 3.71038 -2.73134e-20)
(-0.602836 3.72384 2.29948e-23)
(-0.604942 3.73693 3.09694e-20)
(-0.606976 3.74965 0)
(-0.60894 3.76201 -1.14394e-18)
(-0.610838 3.77403 2.15667e-18)
(-0.612671 3.78572 7.24931e-20)
(-0.614444 3.79708 6.7251e-20)
(-0.616158 3.80813 -1.16198e-18)
(-0.617814 3.81886 -1.78797e-20)
(-0.619417 3.8293 0)
(-0.620967 3.83944 -1.16797e-18)
(-0.622466 3.8493 -2.86677e-20)
(-0.623917 3.85887 1.12528e-18)
(-0.62532 3.86818 0)
(-0.626679 3.87722 8.39576e-24)
(-0.627994 3.886 1.70625e-20)
(-0.629266 3.89453 -1.68201e-20)
(-0.630498 3.90281 0)
(-0.63169 3.91085 1.04815e-18)
(-0.632844 3.91865 -1.01061e-18)
(-0.633962 3.92623 0)
(-0.635043 3.93358 7.68953e-21)
(-0.63609 3.94072 9.74782e-19)
(-0.637103 3.94764 -9.18978e-19)
(-0.638084 3.95435 0)
(-0.639032 3.96086 9.10264e-19)
(-0.639951 3.96717 -8.72581e-19)
(-0.640839 3.97329 6.71284e-21)
(-0.641699 3.97922 0)
(-0.64253 3.98496 6.38759e-21)
(-0.643334 3.99052 0)
(-0.644112 3.99591 -7.81578e-19)
(-0.644864 4.00112 1.51092e-18)
(-0.64559 4.00617 -1.47052e-18)
(-0.646293 4.01106 7.16293e-19)
(-0.646971 4.01578 0)
(-0.647626 4.02035 2.64269e-21)
(-0.648259 4.02477 -6.71496e-19)
(-0.648866 4.02902 1.37882e-18)
(-0.649439 4.03304 -7.57851e-19)
(-0.672865 3.71178 -1.02002e-18)
(-0.675236 3.72475 9.64673e-19)
(-0.677526 3.73735 0)
(-0.679739 3.74961 3.52929e-20)
(-0.681877 3.76152 2.29578e-23)
(-0.683943 3.77311 0)
(-0.685941 3.78437 0)
(-0.687872 3.79532 7.49342e-20)
(-0.68974 3.80596 1.87987e-20)
(-0.691547 3.8163 1.87845e-20)
(-0.693295 3.82636 0)
(-0.694986 3.83614 -1.21607e-18)
(-0.696622 3.84563 1.14102e-18)
(-0.698206 3.85487 1.19114e-18)
(-0.699739 3.86383 -1.11864e-18)
(-0.701222 3.87255 -1.78262e-20)
(-0.702659 3.88101 1.756e-20)
(-0.704049 3.88923 0)
(-0.705395 3.89721 1.69746e-20)
(-0.706698 3.90496 1.07967e-18)
(-0.70796 3.91249 -1.0327e-18)
(-0.709182 3.91979 -1.05194e-18)
(-0.710364 3.92687 9.99347e-19)
(-0.711509 3.93375 -1.53216e-20)
(-0.712617 3.94042 0)
(-0.713689 3.94689 1.46286e-20)
(-0.714727 3.95316 9.29412e-19)
(-0.715731 3.95924 -8.90952e-19)
(-0.716703 3.96513 8.76797e-19)
(-0.717643 3.97084 -1.69509e-18)
(-0.718553 3.97637 8.19408e-19)
(-0.719432 3.98173 -8.09948e-19)
(-0.720282 3.98692 7.77207e-19)
(-0.721104 3.99194 -2.9757e-21)
(-0.721899 3.9968 -1.46116e-24)
(-0.722667 4.0015 2.81302e-21)
(-0.723408 4.00605 0)
(-0.724124 4.01045 -2.707e-21)
(-0.724812 4.01467 0)
(-0.725458 4.01866 3.1159e-21)
(-0.745835 3.72427 0)
(-0.748286 3.73641 3.73814e-20)
(-0.750656 3.74821 3.82632e-20)
(-0.752946 3.75968 0)
(-0.75516 3.77084 -1.29466e-18)
(-0.757302 3.78168 1.19065e-18)
(-0.759372 3.79223 -3.95966e-20)
(-0.761375 3.80248 -1.97833e-20)
(-0.763313 3.81244 -1.288e-18)
(-0.765188 3.82213 -5.11346e-20)
(-0.767003 3.83154 1.23616e-18)
(-0.768759 3.8407 0)
(-0.770459 3.84959 -1.23158e-18)
(-0.772105 3.85823 -3.79805e-20)
(-0.773698 3.86662 2.36833e-18)
(-0.775241 3.87477 -1.13863e-18)
(-0.776734 3.88269 -1.14937e-18)
(-0.77818 3.89038 2.20747e-18)
(-0.779581 3.89785 -1.09393e-18)
(-0.780936 3.9051 -8.33236e-21)
(-0.782249 3.91213 -8.15959e-21)
(-0.783519 3.91896 -1.01552e-18)
(-0.78475 3.92558 -1.98694e-20)
(-0.78594 3.932 9.56821e-19)
(-0.787093 3.93823 -7.42452e-21)
(-0.788208 3.94427 0)
(-0.789288 3.95013 -7.05484e-21)
(-0.790332 3.9558 0)
(-0.791343 3.9613 0)
(-0.79232 3.96662 0)
(-0.793265 3.97178 6.34192e-21)
(-0.794179 3.97677 0)
(-0.795062 3.98161 -3.00119e-21)
(-0.795915 3.98628 -1.44427e-24)
(-0.796739 3.99081 -2.83409e-21)
(-0.797536 3.99518 7.29189e-19)
(-0.7983 3.99938 -7.46911e-19)
(-0.799018 4.00334 8.35033e-19)
(-0.822174 3.7566 1.37148e-18)
(-0.824516 3.76734 -1.25982e-18)
(-0.826781 3.77777 4.18728e-20)
(-0.828973 3.78792 0)
(-0.831093 3.79779 -1.35825e-18)
(-0.833144 3.80738 1.29175e-18)
(-0.83513 3.81671 -1.05067e-23)
(-0.837051 3.82577 2.01459e-20)
(-0.838912 3.83458 0)
(-0.840713 3.84314 -1.95661e-20)
(-0.842456 3.85146 -1.92506e-20)
(-0.844144 3.85954 -1.22699e-18)
(-0.845779 3.86739 1.17098e-18)
(-0.847362 3.87502 1.81816e-20)
(-0.848895 3.88242 8.46431e-24)
(-0.850379 3.88961 1.1449e-18)
(-0.851816 3.89659 -1.07783e-18)
(-0.853207 3.90336 -8.32027e-21)
(-0.854554 3.90993 -8.12015e-21)
(-0.855858 3.91631 0)
(-0.857121 3.92249 9.98452e-19)
(-0.858343 3.92849 -9.56174e-19)
(-0.859525 3.9343 9.47637e-19)
(-0.860669 3.93994 -9.15202e-19)
(-0.861776 3.9454 -8.9791e-19)
(-0.862847 3.95069 8.67651e-19)
(-0.863883 3.95581 -6.59255e-21)
(-0.864884 3.96077 -8.19555e-19)
(-0.865853 3.96558 7.86251e-19)
(-0.866788 3.97022 -7.77003e-19)
(-0.867692 3.97472 7.54621e-19)
(-0.868566 3.97907 7.48043e-19)
(-0.869403 3.98324 -7.77722e-19)
(-0.870191 3.98719 -3.35666e-21)
(-0.887044 3.74175 0)
(-0.889581 3.75237 -2.76006e-23)
(-0.892033 3.76269 1.45624e-18)
(-0.894405 3.77273 -1.42611e-18)
(-0.8967 3.78249 0)
(-0.898921 3.79199 -4.35315e-20)
(-0.90107 3.80122 2.15118e-20)
(-0.90315 3.81019 1.38422e-18)
(-0.905164 3.81891 4.5247e-20)
(-0.907113 3.82739 -1.27638e-18)
(-0.909001 3.83563 -1.29403e-18)
(-0.910829 3.84363 1.2525e-18)
(-0.912598 3.85141 1.26218e-18)
(-0.914312 3.85896 -1.18502e-18)
(-0.915971 3.8663 1.22646e-18)
(-0.917578 3.87343 -1.17152e-18)
(-0.919134 3.88035 -1.7807e-20)
(-0.920641 3.88706 1.12462e-18)
(-0.9221 3.89358 -2.14667e-18)
(-0.923512 3.8999 -2.84164e-20)
(-0.924879 3.90604 1.02312e-18)
(-0.926203 3.91199 -1.01474e-18)
(-0.927484 3.91776 9.79272e-19)
(-0.928723 3.92335 -9.53944e-19)
(-0.929923 3.92877 1.8564e-18)
(-0.931083 3.93403 -8.96368e-19)
(-0.932206 3.93911 0)
(-0.933291 3.94404 -6.67099e-21)
(-0.93434 3.94881 6.48353e-21)
(-0.935355 3.95343 -1.25963e-20)
(-0.936334 3.9579 -7.90816e-19)
(-0.937282 3.96222 7.76689e-19)
(-0.93819 3.96637 6.29287e-21)
(-0.939046 3.97029 0)
(-0.94984 3.72637 -1.46355e-18)
(-0.952562 3.73687 1.50667e-18)
(-0.955194 3.74707 -3.06812e-18)
(-0.95774 3.757 1.51507e-18)
(-0.960203 3.76665 -4.66152e-20)
(-0.962586 3.77604 -1.46117e-18)
(-0.964892 3.78517 1.38556e-18)
(-0.967124 3.79404 1.44184e-18)
(-0.969284 3.80267 -1.41396e-18)
(-0.971376 3.81106 1.39172e-18)
(-0.973401 3.81921 -1.36629e-18)
(-0.975362 3.82713 0)
(-0.97726 3.83483 -2.0476e-20)
(-0.979099 3.84231 1.27872e-18)
(-0.980879 3.84958 -2.50722e-18)
(-0.982603 3.85664 1.21047e-18)
(-0.984273 3.86349 8.34884e-24)
(-0.985889 3.87015 0)
(-0.987455 3.87661 -3.55383e-20)
(-0.98897 3.88288 1.12757e-18)
(-0.990437 3.88896 -2.15951e-18)
(-0.991858 3.89486 1.04231e-18)
(-0.993232 3.90058 0)
(-0.994563 3.90613 0)
(-0.99585 3.91151 -9.76097e-19)
(-0.997096 3.91672 1.8766e-18)
(-0.9983 3.92177 -9.09295e-19)
(-0.999466 3.92666 8.95904e-19)
(-1.00059 3.9314 -8.59044e-19)
(-1.00168 3.93599 2.9307e-24)
(-1.00273 3.94042 -8.20429e-19)
(-1.00375 3.94472 7.94368e-19)
(-1.00473 3.94884 -3.25008e-21)
(-1.00565 3.95275 -9.12674e-19)
(-1.01062 3.71056 5.03548e-20)
(-1.01353 3.72093 0)
(-1.01633 3.73101 5.03448e-20)
(-1.01904 3.74081 0)
(-1.02167 3.75035 1.67219e-18)
(-1.0242 3.75963 -1.58719e-18)
(-1.02666 3.76864 0)
(-1.02904 3.77742 4.7679e-20)
(-1.03134 3.78595 1.54939e-18)
(-1.03356 3.79424 -1.42684e-18)
(-1.03572 3.8023 -2.25676e-20)
(-1.03781 3.81014 2.2103e-20)
(-1.03983 3.81775 1.42462e-18)
(-1.04179 3.82515 -2.70636e-18)
(-1.04368 3.83235 1.30559e-18)
(-1.04552 3.83933 1.34496e-18)
(-1.0473 3.84612 -1.22444e-18)
(-1.04902 3.85271 -1.23886e-18)
(-1.05068 3.8591 2.42612e-18)
(-1.0523 3.86531 -1.15201e-18)
(-1.05386 3.87134 0)
(-1.05537 3.87719 0)
(-1.05684 3.88286 0)
(-1.05825 3.88836 0)
(-1.05962 3.89369 7.91357e-21)
(-1.06095 3.89886 0)
(-1.06223 3.90387 -7.4737e-21)
(-1.06347 3.90872 9.43025e-19)
(-1.06467 3.91342 -8.96934e-19)
(-1.06583 3.91797 2.9221e-24)
(-1.06695 3.92238 -8.56053e-19)
(-1.06804 3.92664 8.32205e-19)
(-1.06908 3.93074 6.69026e-21)
(-1.07007 3.93463 0)
(-1.07253 3.70462 1.67906e-18)
(-1.0755 3.71457 -1.76434e-18)
(-1.07837 3.72425 3.41825e-18)
(-1.08115 3.73367 -1.6028e-18)
(-1.08384 3.74282 5.2276e-20)
(-1.08644 3.75173 0)
(-1.08895 3.76039 -2.41259e-23)
(-1.09139 3.76882 -4.97963e-20)
(-1.09374 3.77701 1.58847e-18)
(-1.09602 3.78497 -1.46098e-18)
(-1.09823 3.79272 -1.01377e-23)
(-1.10037 3.80025 2.28947e-20)
(-1.10244 3.80756 0)
(-1.10445 3.81468 1.41396e-18)
(-1.10639 3.82158 -1.36799e-18)
(-1.10827 3.8283 1.34231e-18)
(-1.11009 3.83482 -2.58642e-18)
(-1.11185 3.84115 1.22667e-18)
(-1.11356 3.84729 1.91349e-20)
(-1.11521 3.85326 0)
(-1.11681 3.85905 0)
(-1.11836 3.86467 -1.13492e-18)
(-1.11986 3.87012 1.08494e-18)
(-1.12131 3.8754 -8.30181e-21)
(-1.12271 3.88052 0)
(-1.12407 3.88549 7.83052e-21)
(-1.12538 3.8903 -7.60304e-21)
(-1.12665 3.89496 0)
(-1.12788 3.89947 9.22488e-19)
(-1.12906 3.90384 -1.77245e-18)
(-1.13021 3.90807 8.65586e-19)
(-1.13131 3.91214 8.77983e-19)
(-1.13236 3.91602 -9.29274e-19)
(-1.12964 3.68803 1.84255e-18)
(-1.13277 3.69784 -1.79441e-18)
(-1.13579 3.70739 5.70758e-20)
(-1.13872 3.71668 1.84727e-18)
(-1.14154 3.72571 -1.69187e-18)
(-1.14428 3.7345 -5.49009e-20)
(-1.14693 3.74304 1.70471e-18)
(-1.14949 3.75136 1.10355e-19)
(-1.15197 3.75945 -1.63571e-18)
(-1.15437 3.76731 -7.62699e-20)
(-1.15669 3.77496 -4.97245e-20)
(-1.15894 3.78239 -1.59964e-18)
(-1.16112 3.78962 3.03428e-18)
(-1.16323 3.79665 -2.95915e-18)
(-1.16527 3.80347 1.40276e-18)
(-1.16725 3.81011 -1.4197e-18)
(-1.16916 3.81655 1.35258e-18)
(-1.17102 3.82281 2.07732e-20)
(-1.17281 3.82889 -1.30532e-18)
(-1.17455 3.83479 1.24535e-18)
(-1.17623 3.84052 1.90754e-20)
(-1.17786 3.84608 0)
(-1.17944 3.85147 0)
(-1.18096 3.85671 -1.12623e-18)
(-1.18244 3.86178 1.07675e-18)
(-1.18387 3.8667 1.0516e-18)
(-1.18525 3.87146 -1.01423e-18)
(-1.18658 3.87608 0)
(-1.18787 3.88055 1.50151e-20)
(-1.18912 3.88488 -9.37674e-19)
(-1.19032 3.88907 9.08365e-19)
(-1.19149 3.89312 9.08287e-19)
(-1.1926 3.89699 -9.5704e-19)
(-1.18491 3.67121 1.99131e-18)
(-1.18819 3.68089 0)
(-1.19136 3.6903 -6.11287e-20)
(-1.19442 3.69945 -3.12226e-23)
(-1.19739 3.70835 -5.95772e-20)
(-1.20025 3.71702 1.97018e-18)
(-1.20302 3.72544 -3.68472e-18)
(-1.20571 3.73364 1.83278e-18)
(-1.2083 3.74162 0)
(-1.21082 3.74938 1.75714e-18)
(-1.21325 3.75692 -1.58815e-18)
(-1.2156 3.76426 0)
(-1.21788 3.77139 1.65621e-18)
(-1.22009 3.77833 -3.13909e-18)
(-1.22223 3.78507 3.08105e-18)
(-1.2243 3.79162 3.26409e-20)
(-1.2263 3.79799 -2.89441e-18)
(-1.22824 3.80417 1.39301e-18)
(-1.23012 3.81018 -7.64311e-24)
(-1.23194 3.81601 1.34034e-18)
(-1.2337 3.82168 -1.31891e-18)
(-1.23541 3.82718 0)
(-1.23705 3.83251 0)
(-1.23865 3.83768 -1.19692e-18)
(-1.2402 3.8427 -1.6701e-20)
(-1.24169 3.84757 1.10951e-18)
(-1.24313 3.85229 0)
(-1.24453 3.85686 0)
(-1.24588 3.86128 -7.89099e-21)
(-1.24719 3.86557 -7.64866e-21)
(-1.24845 3.86972 -1.4825e-20)
(-1.24967 3.87374 9.47434e-19)
(-1.25084 3.8776 -1.95219e-18)
(-1.24182 3.66377 2.06273e-18)
(-1.24513 3.67304 2.14532e-18)
(-1.24833 3.68205 -2.08875e-18)
(-1.25142 3.69082 -2.01679e-18)
(-1.25441 3.69935 1.90322e-18)
(-1.2573 3.70765 0)
(-1.2601 3.71573 -6.02491e-20)
(-1.2628 3.72359 1.91645e-18)
(-1.26542 3.73124 1.13129e-19)
(-1.26796 3.73868 -3.65698e-18)
(-1.27041 3.74591 1.70515e-18)
(-1.27279 3.75295 1.70689e-18)
(-1.27509 3.75979 -1.64695e-18)
(-1.27732 3.76644 0)
(-1.27948 3.77291 -1.59565e-18)
(-1.28156 3.77919 3.0688e-18)
(-1.28359 3.7853 -1.4994e-18)
(-1.28554 3.79123 -2.26305e-20)
(-1.28744 3.79699 0)
(-1.28927 3.80258 2.13238e-20)
(-1.29105 3.80802 0)
(-1.29277 3.81329 0)
(-1.29443 3.8184 -1.24485e-18)
(-1.29604 3.82336 1.20766e-18)
(-1.2976 3.82818 0)
(-1.2991 3.83284 0)
(-1.30056 3.83736 -8.57995e-21)
(-1.30197 3.84174 -1.07897e-18)
(-1.30333 3.84599 1.02452e-18)
(-1.30464 3.85009 2.63099e-24)
(-1.30591 3.85407 -9.88413e-19)
(-1.30713 3.8579 9.97714e-19)
(-1.29372 3.64655 2.33142e-18)
(-1.29716 3.65567 -2.12534e-18)
(-1.30049 3.66454 2.19764e-18)
(-1.3037 3.67317 -2.2746e-18)
(-1.30681 3.68156 -2.11825e-18)
(-1.30981 3.68974 1.99884e-18)
(-1.31272 3.69769 0)
(-1.31553 3.70543 0)
(-1.31825 3.71296 -1.99553e-18)
(-1.32088 3.72028 1.89086e-18)
(-1.32343 3.72741 8.76445e-20)
(-1.3259 3.73434 2.84529e-20)
(-1.32829 3.74109 2.76938e-20)
(-1.3306 3.74764 -1.74415e-18)
(-1.33284 3.75402 -3.67868e-20)
(-1.335 3.76022 1.61157e-18)
(-1.3371 3.76624 1.59737e-18)
(-1.33913 3.77209 -1.52072e-18)
(-1.3411 3.77778 0)
(-1.34301 3.7833 0)
(-1.34485 3.78867 -1.4131e-18)
(-1.34663 3.79387 1.36908e-18)
(-1.34836 3.79892 1.32688e-18)
(-1.35003 3.80383 -2.56202e-18)
(-1.35164 3.80858 1.22757e-18)
(-1.35321 3.81319 -1.2055e-18)
(-1.35472 3.81766 2.32846e-18)
(-1.35618 3.82199 -1.10724e-18)
(-1.35759 3.82618 0)
(-1.35896 3.83025 1.06683e-18)
(-1.36027 3.83418 -2.0409e-18)
(-1.36155 3.83798 1.0091e-18)
(-1.34394 3.62927 -2.38245e-18)
(-1.34751 3.63824 -7.55018e-20)
(-1.35095 3.64696 7.43947e-20)
(-1.35428 3.65545 2.38795e-18)
(-1.3575 3.66371 -2.18012e-18)
(-1.36061 3.67175 1.40574e-19)
(-1.36362 3.67957 -2.23754e-18)
(-1.36653 3.68718 -6.86203e-20)
(-1.36935 3.69459 2.00079e-18)
(-1.37207 3.7018 6.39087e-20)
(-1.37471 3.70881 -6.22745e-20)
(-1.37726 3.71564 -3.03075e-20)
(-1.37973 3.72228 -2.94792e-20)
(-1.38212 3.72874 -2.86473e-20)
(-1.38444 3.73502 0)
(-1.38668 3.74113 0)
(-1.38885 3.74707 -2.62314e-20)
(-1.39095 3.75284 0)
(-1.39299 3.75844 -1.61898e-18)
(-1.39496 3.76389 -5.05424e-20)
(-1.39686 3.76918 2.94632e-18)
(-1.39871 3.77432 -2.9e-18)
(-1.40049 3.77931 1.38324e-18)
(-1.40222 3.78415 -2.10922e-20)
(-1.40389 3.78884 -1.0213e-20)
(-1.40551 3.79339 0)
(-1.40707 3.79781 1.23347e-18)
(-1.40858 3.80209 -2.37265e-18)
(-1.41004 3.80623 1.14138e-18)
(-1.41145 3.81025 0)
(-1.41282 3.81413 1.08963e-18)
(-1.41413 3.8179 -1.05299e-18)
(-1.39254 3.612 -2.69958e-18)
(-1.39623 3.62081 5.11406e-18)
(-1.39979 3.62938 -2.50039e-18)
(-1.40323 3.63772 7.84796e-20)
(-1.40655 3.64584 -2.5854e-18)
(-1.40976 3.65373 -8.69066e-20)
(-1.41287 3.66142 4.78168e-18)
(-1.41587 3.6689 -2.33303e-18)
(-1.41877 3.67619 2.27452e-18)
(-1.42158 3.68327 -2.22003e-18)
(-1.4243 3.69017 0)
(-1.42694 3.69689 0)
(-1.42948 3.70342 -3.13824e-20)
(-1.43195 3.70978 2.00434e-18)
(-1.43434 3.71596 -1.87374e-18)
(-1.43665 3.72198 -2.87231e-20)
(-1.43889 3.72782 -1.80117e-18)
(-1.44105 3.73351 1.71282e-18)
(-1.44315 3.73903 -1.63907e-18)
(-1.44518 3.7444 1.63557e-18)
(-1.44715 3.74962 1.61122e-18)
(-1.44905 3.75469 2.42447e-20)
(-1.45089 3.7596 -1.46451e-18)
(-1.45267 3.76438 2.23269e-20)
(-1.45439 3.76901 -1.38186e-18)
(-1.45606 3.7735 1.31905e-18)
(-1.45767 3.77786 -1.01181e-20)
(-1.45923 3.78208 0)
(-1.46074 3.78618 -1.21981e-18)
(-1.46219 3.79014 -1.34345e-20)
(-1.4636 3.79398 -2.13667e-20)
(-1.46496 3.7977 1.11177e-18)
(-1.43957 3.59477 2.99954e-18)
(-1.44337 3.60342 -2.64354e-18)
(-1.44704 3.61184 8.59147e-20)
(-1.45058 3.62002 8.42797e-20)
(-1.454 3.62799 8.25246e-20)
(-1.45731 3.63574 2.54824e-18)
(-1.46051 3.64329 -5.1215e-18)
(-1.4636 3.65064 2.4965e-18)
(-1.46658 3.65779 7.48745e-20)
(-1.46948 3.66476 0)
(-1.47227 3.67154 -2.36935e-18)
(-1.47498 3.67814 -5.63853e-20)
(-1.4776 3.68456 2.14825e-18)
(-1.48014 3.69081 0)
(-1.48259 3.69689 -2.03832e-18)
(-1.48497 3.70281 1.96533e-18)
(-1.48727 3.70856 5.92296e-20)
(-1.48949 3.71416 1.8541e-18)
(-1.49165 3.7196 4.53576e-21)
(-1.49374 3.72489 -1.68109e-18)
(-1.49576 3.73002 0)
(-1.49771 3.73502 -1.62753e-18)
(-1.49961 3.73986 -2.38116e-20)
(-1.50144 3.74457 1.52456e-18)
(-1.50321 3.74914 -1.45014e-18)
(-1.50493 3.75357 1.41647e-18)
(-1.50658 3.75787 1.06927e-20)
(-1.50819 3.76204 0)
(-1.50974 3.76608 0)
(-1.51123 3.76999 9.66674e-21)
(-1.51268 3.77378 9.34651e-21)
(-1.51408 3.77745 0)
(-1.48508 3.57762 3.23948e-18)
(-1.48899 3.58611 -2.85107e-18)
(-1.49276 3.59437 2.93497e-18)
(-1.49641 3.6024 -2.93331e-18)
(-1.49992 3.61021 -3.50567e-23)
(-1.50332 3.61782 0)
(-1.5066 3.62522 0)
(-1.50977 3.63243 2.67667e-18)
(-1.51284 3.63945 -5.20884e-18)
(-1.5158 3.64629 2.45832e-18)
(-1.51867 3.65294 7.57431e-20)
(-1.52145 3.65942 0)
(-1.52413 3.66573 -2.31174e-18)
(-1.52673 3.67187 -5.11471e-20)
(-1.52925 3.67785 4.29568e-18)
(-1.53169 3.68367 -2.09216e-18)
(-1.53405 3.68933 2.03635e-18)
(-1.53633 3.69483 -1.90337e-18)
(-1.53854 3.70018 0)
(-1.54068 3.70539 -5.71627e-20)
(-1.54275 3.71045 2.7651e-20)
(-1.54476 3.71536 1.72567e-18)
(-1.5467 3.72014 -1.61734e-18)
(-1.54858 3.72477 -2.50212e-20)
(-1.5504 3.72927 -4.83787e-20)
(-1.55216 3.73364 -1.50668e-18)
(-1.55386 3.73788 1.43735e-18)
(-1.5555 3.74199 1.40694e-18)
(-1.55709 3.74597 2.66496e-20)
(-1.55863 3.74984 -1.30872e-18)
(-1.56012 3.75358 -1.28871e-18)
(-1.56155 3.7572 -1.31089e-20)
(-1.52914 3.56059 -1.908e-18)
(-1.53315 3.56892 1.48905e-18)
(-1.53702 3.57701 1.63331e-18)
(-1.54075 3.58488 -1.53159e-18)
(-1.54436 3.59254 3.01885e-18)
(-1.54784 3.6 -2.92679e-18)
(-1.5512 3.60725 0)
(-1.55444 3.61432 8.83248e-20)
(-1.55758 3.6212 2.79046e-18)
(-1.56062 3.6279 -2.63287e-18)
(-1.56355 3.63443 0)
(-1.56639 3.64079 7.8625e-20)
(-1.56914 3.64698 7.62454e-20)
(-1.5718 3.65301 0)
(-1.57438 3.65888 0)
(-1.57687 3.66459 3.46705e-20)
(-1.57928 3.67015 -6.71154e-20)
(-1.58162 3.67556 2.06558e-18)
(-1.58388 3.68082 -1.96083e-18)
(-1.58607 3.68594 5.84043e-24)
(-1.58819 3.69092 -5.87537e-20)
(-1.59024 3.69576 0)
(-1.59223 3.70046 1.74266e-18)
(-1.59415 3.70502 -1.68529e-18)
(-1.59601 3.70946 2.5634e-20)
(-1.59781 3.71376 -1.23808e-20)
(-1.59955 3.71794 0)
(-1.60124 3.72199 -1.15536e-20)
(-1.60287 3.72592 -2.1498e-24)
(-1.60444 3.72973 -1.37692e-18)
(-1.60596 3.73342 1.32531e-18)
(-1.60743 3.73699 0)
(-1.57179 3.54371 -2.2461e-19)
(-1.5759 3.55187 1.80579e-18)
(-1.57986 3.5598 -1.79691e-18)
(-1.58368 3.56751 1.82844e-18)
(-1.58737 3.57501 -1.51249e-18)
(-1.59093 3.58231 -1.6341e-18)
(-1.59436 3.58941 1.53566e-18)
(-1.59768 3.59633 -1.73323e-18)
(-1.60089 3.60307 1.63793e-18)
(-1.60398 3.60964 8.95258e-20)
(-1.60698 3.61603 8.68486e-20)
(-1.60988 3.62226 -1.68417e-19)
(-1.61268 3.62833 -8.16028e-20)
(-1.6154 3.63425 -2.5579e-18)
(-1.61803 3.64 4.93398e-18)
(-1.62057 3.64561 -2.38091e-18)
(-1.62303 3.65107 -2.27831e-18)
(-1.62541 3.65638 -4.21866e-20)
(-1.62772 3.66155 2.08899e-18)
(-1.62996 3.66659 3.23489e-20)
(-1.63212 3.67148 3.12578e-20)
(-1.63422 3.67624 0)
(-1.63624 3.68086 -2.91637e-20)
(-1.63821 3.68536 0)
(-1.64011 3.68972 -2.71984e-20)
(-1.64195 3.69396 1.73157e-18)
(-1.64373 3.69807 -3.24568e-18)
(-1.64545 3.70206 1.55698e-18)
(-1.64711 3.70594 1.50957e-18)
(-1.64872 3.70969 -1.46296e-18)
(-1.65028 3.71333 1.10104e-20)
(-1.65178 3.71685 -1.07803e-20)
(-1.61308 3.52701 2.14649e-18)
(-1.61729 3.535 0)
(-1.62134 3.54276 -1.91177e-18)
(-1.62525 3.55031 1.67385e-18)
(-1.62901 3.55764 -2.036e-18)
(-1.63264 3.56478 -6.27211e-20)
(-1.63615 3.57173 1.76013e-18)
(-1.63953 3.5785 -1.66151e-18)
(-1.6428 3.58509 1.46399e-18)
(-1.64596 3.59152 -1.75377e-18)
(-1.64901 3.59777 1.37857e-18)
(-1.65196 3.60388 -1.28313e-18)
(-1.65482 3.60982 1.4697e-18)
(-1.65758 3.61561 -8.46233e-20)
(-1.66026 3.62126 1.2833e-18)
(-1.66285 3.62675 -1.2137e-18)
(-1.66535 3.63211 3.82553e-20)
(-1.66778 3.63732 0)
(-1.67013 3.6424 0)
(-1.6724 3.64734 0)
(-1.67461 3.65215 0)
(-1.67674 3.65683 2.07461e-18)
(-1.67881 3.66137 -1.94064e-18)
(-1.68081 3.6658 0)
(-1.68274 3.67009 -1.83466e-18)
(-1.68462 3.67426 -5.19009e-20)
(-1.68643 3.67832 1.72541e-18)
(-1.68819 3.68225 1.29888e-20)
(-1.68989 3.68606 -1.25293e-20)
(-1.69153 3.68976 1.55616e-18)
(-1.69312 3.69335 -2.98539e-18)
(-1.69465 3.69682 1.47601e-18)
(-1.65308 3.51052 2.65638e-19)
(-1.65738 3.51834 -2.38834e-18)
(-1.66152 3.52594 2.11142e-18)
(-1.6655 3.53331 -2.01914e-18)
(-1.66934 3.54048 2.00859e-18)
(-1.67304 3.54745 0)
(-1.67661 3.55424 -2.27207e-19)
(-1.68006 3.56085 1.90221e-18)
(-1.68338 3.56729 -5.51263e-20)
(-1.6866 3.57357 -3.21033e-18)
(-1.6897 3.57969 -4.34112e-20)
(-1.6927 3.58565 1.53305e-18)
(-1.6956 3.59147 -9.39053e-20)
(-1.69841 3.59713 1.46954e-18)
(-1.70113 3.60266 -1.38875e-18)
(-1.70376 3.60804 0)
(-1.70631 3.61329 -1.36464e-18)
(-1.70877 3.6184 -6.36551e-20)