/*--------------------------------*- C++ -*----------------------------------*\
  =========                 |
  \\      /  F ield         | OpenFOAM: The Open Source CFD Toolbox
   \\    /   O peration     | Website:  https://openfoam.org
    \\  /    A nd           | Version:  10
     \\/     M anipulation  |
\*---------------------------------------------------------------------------*/
FoamFile
{
    format      ascii;
    class       volScalarField;
    location    "65000";
    object      nut;
}
// * * * * * * * * * * * * * * * * * * * * * * * * * * * * * * * * * * * * * //

dimensions      [0 2 -1 0 0 0 0];

internalField   nonuniform List<scalar> 
17981
(
0.00115419
0.00114674
0.00114168
0.00113913
0.00113919
0.00114185
0.00114706
0.0011547
0.0011646
0.00117654
0.00119031
0.00120563
0.00122227
0.00123997
0.0012585
0.00127765
0.00129722
0.00131704
0.00133695
0.00135683
0.00137655
0.00139603
0.00141519
0.00143397
0.00145231
0.00147017
0.00148753
0.00150437
0.00152067
0.00153643
0.00155163
0.0015663
0.00158042
0.00159401
0.00160708
0.00161964
0.00163171
0.0016433
0.00165443
0.00166511
0.00167535
0.00168518
0.00169461
0.00170365
0.00171232
0.00172064
0.00172862
0.00173627
0.00111872
0.00111298
0.00110965
0.00110885
0.00111067
0.0011151
0.00112208
0.00113148
0.00114311
0.00115675
0.00117215
0.00118905
0.00120719
0.0012263
0.00124615
0.00126653
0.00128723
0.00130808
0.00132892
0.00134964
0.00137012
0.00139026
0.00141001
0.00142929
0.00144806
0.00146629
0.00148396
0.00150104
0.00151753
0.00153343
0.00154874
0.00156346
0.0015776
0.00159118
0.00160421
0.0016167
0.00162867
0.00164015
0.00165114
0.00166166
0.00167174
0.00168139
0.00169062
0.00169946
0.00170792
0.00171602
0.00172378
0.0017312
0.00108261
0.00107894
0.00107769
0.00107898
0.00108289
0.00108941
0.00109845
0.00110988
0.00112348
0.00113901
0.00115623
0.00117484
0.00119457
0.00121518
0.00123641
0.00125804
0.00127988
0.00130175
0.00132351
0.00134503
0.00136621
0.00138696
0.00140722
0.00142693
0.00144606
0.00146457
0.00148246
0.0014997
0.00151629
0.00153224
0.00154756
0.00156224
0.00157632
0.00158979
0.00160269
0.00161502
0.00162681
0.00163808
0.00164885
0.00165915
0.00166898
0.00167836
0.00168733
0.0016959
0.00170408
0.00171189
0.00171936
0.00172649
0.00105628
0.00106518
0.00107655
0.00109023
0.00110601
0.00112361
0.00114277
0.00116319
0.00118461
0.00120675
0.00122937
0.00125225
0.0012752
0.00129805
0.00132067
0.00134292
0.00136473
0.001386
0.00140668
0.00142673
0.00144611
0.00146481
0.0014828
0.00150009
0.00151668
0.00153258
0.0015478
0.00156234
0.00157624
0.00158951
0.00160218
0.00161426
0.00162577
0.00163675
0.00164721
0.00165718
0.00166668
0.00167573
0.00168435
0.00169257
0.00170039
0.00170785
0.00171496
0.00172173
0.00103123
0.00104278
0.00105673
0.00107287
0.00109098
0.00111078
0.00113198
0.00115427
0.00117739
0.00120107
0.00122506
0.00124915
0.00127315
0.00129691
0.00132029
0.00134318
0.0013655
0.00138718
0.00140817
0.00142843
0.00144795
0.0014667
0.00148468
0.0015019
0.00151837
0.00153409
0.00154909
0.00156338
0.001577
0.00158995
0.00160228
0.001614
0.00162514
0.00163572
0.00164578
0.00165534
0.00166442
0.00167304
0.00168124
0.00168902
0.00169642
0.00170344
0.00171012
0.00171647
0.00100817
0.0010226
0.00103931
0.00105808
0.00107864
0.00110072
0.00112399
0.00114817
0.00117298
0.00119814
0.00122343
0.00124864
0.00127359
0.00129814
0.00132216
0.00134556
0.00136826
0.00139021
0.00141137
0.00143171
0.00145121
0.00146988
0.00148771
0.00150472
0.00152093
0.00153635
0.001551
0.00156492
0.00157812
0.00159065
0.00160252
0.00161377
0.00162443
0.00163452
0.00164408
0.00165313
0.0016617
0.00166981
0.0016775
0.00168477
0.00169166
0.00169819
0.00170437
0.00171023
0.00100499
0.0010246
0.00104609
0.00106917
0.00109354
0.00111888
0.0011449
0.00117131
0.00119787
0.00122434
0.00125054
0.00127631
0.00130149
0.00132601
0.00134975
0.00137268
0.00139473
0.0014159
0.00143615
0.00145548
0.00147391
0.00149144
0.0015081
0.0015239
0.00153887
0.00155304
0.00156645
0.00157913
0.0015911
0.0016024
0.00161307
0.00162314
0.00163264
0.0016416
0.00165005
0.00165803
0.00166554
0.00167263
0.00167932
0.00168563
0.00169159
0.00169721
0.00170252
0.00103703
0.00106262
0.00108924
0.00111658
0.00114433
0.00117223
0.00120004
0.00122754
0.00125457
0.00128096
0.00130661
0.00133143
0.00135534
0.0013783
0.00140028
0.00142127
0.00144126
0.00146026
0.00147828
0.00149535
0.00151149
0.00152674
0.00154112
0.00155468
0.00156745
0.00157946
0.00159076
0.00160138
0.00161136
0.00162074
0.00162954
0.00163781
0.00164558
0.00165287
0.00165971
0.00166613
0.00167216
0.00167783
0.00168315
0.00168815
0.00169284
0.00105893
0.0010877
0.0011169
0.00114623
0.00117545
0.00120432
0.00123266
0.0012603
0.00128713
0.00131303
0.00133794
0.00136181
0.00138461
0.00140632
0.00142694
0.00144649
0.00146497
0.00148241
0.00149886
0.00151433
0.00152887
0.00154252
0.00155532
0.00156731
0.00157854
0.00158905
0.00159887
0.00160806
0.00161665
0.00162467
0.00163216
0.00163915
0.00164568
0.00165177
0.00165746
0.00166277
0.00166773
0.00167236
0.00167668
0.00168072
0.00111953
0.00115024
0.00118056
0.00121027
0.00123921
0.00126724
0.00129426
0.00132019
0.00134497
0.00136858
0.001391
0.00141224
0.00143229
0.0014512
0.00146898
0.00148568
0.00150133
0.00151597
0.00152966
0.00154244
0.00155435
0.00156544
0.00157577
0.00158537
0.00159431
0.0016026
0.00161031
0.00161746
0.00162409
0.00163024
0.00163594
0.00164122
0.00164611
0.00165065
0.00165485
0.00165875
0.00166235
0.0016657
0.00124664
0.00127479
0.00130175
0.00132746
0.00135187
0.00137499
0.00139682
0.00141737
0.00143667
0.00145475
0.00147166
0.00148743
0.00150213
0.0015158
0.00152849
0.00154026
0.00155116
0.00156124
0.00157056
0.00157917
0.00158712
0.00159444
0.00160118
0.00160739
0.0016131
0.00161834
0.00162316
0.00162758
0.00163164
0.00163536
0.00163877
0.00164189
0.00164476
0.00164738
0.00125431
0.00128232
0.00130895
0.00133418
0.00135799
0.00138039
0.0014014
0.00142106
0.0014394
0.00145647
0.00147233
0.00148703
0.00150063
0.00151318
0.00152475
0.00153539
0.00154517
0.00155415
0.00156238
0.00156991
0.00157679
0.00158307
0.0015888
0.00159401
0.00159874
0.00160304
0.00160693
0.00161046
0.00161364
0.00161652
0.00161912
0.00162145
0.00162356
0.00162545
0.00126155
0.00128912
0.00131516
0.00133965
0.00136261
0.00138407
0.00140405
0.00142262
0.00143983
0.00145573
0.00147039
0.00148387
0.00149623
0.00150755
0.00151788
0.0015273
0.00153588
0.00154367
0.00155073
0.00155712
0.00156288
0.00156807
0.00157273
0.00157691
0.00158063
0.00158396
0.00158691
0.00158952
0.00159183
0.00159386
0.00159563
0.00159718
0.00159852
0.00159969
0.00126766
0.00129451
0.00131968
0.00134318
0.00136507
0.00138536
0.00140413
0.00142144
0.00143735
0.00145192
0.00146524
0.00147738
0.0014884
0.00149838
0.0015074
0.00151553
0.00152284
0.00152939
0.00153524
0.00154044
0.00154505
0.00154912
0.0015527
0.00155582
0.00155854
0.00156088
0.00156289
0.00156459
0.00156602
0.00156721
0.00156818
0.00156896
0.00156956
0.00157002
0.00129778
0.00132183
0.00134413
0.00136472
0.00138367
0.00140106
0.00141695
0.00143142
0.00144455
0.00145643
0.00146712
0.00147671
0.00148529
0.00149294
0.00149974
0.00150574
0.00151102
0.00151563
0.00151964
0.00152309
0.00152604
0.00152853
0.00153062
0.00153233
0.00153371
0.00153479
0.0015356
0.00153619
0.00153656
0.00153676
0.0015368
0.0015367
0.00153648
0.00129831
0.00132102
0.0013419
0.00136103
0.00137848
0.00139434
0.00140869
0.00142162
0.00143322
0.00144357
0.00145275
0.00146088
0.00146803
0.00147429
0.00147973
0.00148441
0.00148842
0.0014918
0.00149462
0.00149692
0.00149877
0.00150021
0.00150127
0.00150201
0.00150246
0.00150266
0.00150263
0.00150241
0.00150202
0.00150149
0.00150084
0.00150009
0.00149926
0.00129554
0.00131672
0.00133603
0.00135356
0.00136939
0.00138362
0.00139635
0.00140767
0.00141768
0.00142645
0.0014341
0.00144075
0.00144647
0.00145133
0.00145543
0.00145882
0.00146157
0.00146375
0.00146541
0.00146661
0.0014674
0.00146782
0.00146792
0.00146774
0.00146732
0.00146669
0.00146587
0.00146491
0.00146382
0.00146262
0.00146135
0.00146001
0.00145862
0.00130858
0.00132619
0.00134202
0.00135615
0.0013687
0.00137975
0.00138943
0.0013978
0.00140501
0.00141115
0.00141633
0.00142064
0.00142414
0.00142693
0.00142906
0.00143061
0.00143164
0.0014322
0.00143235
0.00143214
0.00143162
0.00143082
0.0014298
0.00142857
0.00142718
0.00142565
0.00142402
0.0014223
0.00142052
0.00141869
0.00141684
0.00141499
0.00129635
0.0013122
0.00132627
0.00133867
0.0013495
0.00135888
0.0013669
0.00137367
0.00137934
0.00138401
0.00138777
0.00139071
0.00139291
0.00139444
0.00139539
0.0013958
0.00139575
0.00139529
0.00139447
0.00139335
0.00139196
0.00139035
0.00138856
0.00138662
0.00138456
0.00138241
0.00138019
0.00137793
0.00137565
0.00137336
0.00137108
0.00136883
0.00128
0.00129406
0.00130636
0.00131702
0.00132615
0.00133386
0.00134026
0.00134548
0.00134967
0.00135293
0.00135534
0.00135699
0.00135796
0.00135833
0.00135816
0.00135753
0.00135649
0.0013551
0.00135341
0.00135146
0.00134931
0.00134698
0.00134452
0.00134196
0.00133933
0.00133665
0.00133394
0.00133123
0.00132854
0.00132588
0.00132327
0.00132072
0.00125962
0.0012719
0.00128246
0.00129141
0.00129888
0.00130497
0.00130982
0.00131358
0.00131637
0.00131829
0.00131943
0.00131988
0.00131972
0.00131902
0.00131785
0.00131627
0.00131435
0.00131213
0.00130967
0.00130702
0.0013042
0.00130126
0.00129824
0.00129516
0.00129205
0.00128893
0.00128584
0.00128278
0.00127977
0.00127683
0.00127397
0.00127121
0.00123549
0.00124602
0.00125489
0.0012622
0.00126808
0.00127263
0.00127601
0.00127839
0.00127988
0.00128056
0.00128054
0.0012799
0.00127871
0.00127706
0.00127499
0.00127258
0.00126989
0.00126696
0.00126384
0.00126057
0.0012572
0.00125376
0.00125027
0.00124678
0.00124329
0.00123985
0.00123646
0.00123314
0.00122991
0.00122679
0.00122377
0.00122088
0.00120796
0.00121681
0.00122236
0.00122625
0.00123141
0.00123718
0.00123933
0.00124043
0.00124072
0.00124028
0.00123921
0.00123759
0.00123549
0.00123299
0.00123015
0.00122703
0.00122368
0.00122014
0.00121648
0.00121271
0.0012089
0.00120505
0.00120121
0.0011974
0.00119365
0.00118997
0.00118638
0.0011829
0.00117954
0.00117631
0.00117323
0.00117029
0.00117752
0.00118446
0.00118468
0.00118384
0.00118465
0.00118795
0.00119304
0.00119801
0.00119942
0.00119798
0.00119598
0.00119351
0.00119062
0.0011874
0.0011839
0.00118017
0.00117628
0.00117226
0.00116815
0.001164
0.00115984
0.0011557
0.0011516
0.00114758
0.00114365
0.00113982
0.00113613
0.00113257
0.00112916
0.00112592
0.00112284
0.00111993
0.00114483
0.00115048
0.00115126
0.00114746
0.00114387
0.00114277
0.00114455
0.0011484
0.00115261
0.00115426
0.00115145
0.00114823
0.00114468
0.00114084
0.00113679
0.00113257
0.00112824
0.00112383
0.00111939
0.00111496
0.00111055
0.00110621
0.00110195
0.0010978
0.00109378
0.0010899
0.00108618
0.00108262
0.00107925
0.00107605
0.00107306
0.00107025
0.00111046
0.00111467
0.00111748
0.00111392
0.00110734
0.00110236
0.00110056
0.00110177
0.00110482
0.00110751
0.00110621
0.00110235
0.00109822
0.00109387
0.00108937
0.00108475
0.00108008
0.00107538
0.0010707
0.00106607
0.00106151
0.00105705
0.00105272
0.00104853
0.00104449
0.00104063
0.00103696
0.00103348
0.0010302
0.00102713
0.00102427
0.00102162
0.0010749
0.00107777
0.00107933
0.00107971
0.0010738
0.0010659
0.00106039
0.00105842
0.00105934
0.00106123
0.00106079
0.00105637
0.00105175
0.00104698
0.00104211
0.00103718
0.00103225
0.00102735
0.00102251
0.00101776
0.00101312
0.00100863
0.00100429
0.00100013
0.000996153
0.000992379
0.000988815
0.000985468
0.000982345
0.000979449
0.000976784
0.000974351
0.00103862
0.00104024
0.00104065
0.00103997
0.00103833
0.00103185
0.00102384
0.00101852
0.00101665
0.00101678
0.00101562
0.00101072
0.00100569
0.00100056
0.000995396
0.000990238
0.000985124
0.000980087
0.000975157
0.000970361
0.000965719
0.000961252
0.000956976
0.000952904
0.000949048
0.000945418
0.000942019
0.000938859
0.000935941
0.000933268
0.00093084
0.000928658
0.00100205
0.00100251
0.00100185
0.00100019
0.000997669
0.00099438
0.000988932
0.000981752
0.000976982
0.000974537
0.000971039
0.000965724
0.000960334
0.000954921
0.000949532
0.000944204
0.000938972
0.000933866
0.000928912
0.000924131
0.000919543
0.000915162
0.000911003
0.000907075
0.000903388
0.000899949
0.000896762
0.00089383
0.000891157
0.000888743
0.000886588
0.00088469
0.000964979
0.000963303
0.000960734
0.00095739
0.000953378
0.000948797
0.000943762
0.000938429
0.00093292
0.000927297
0.000921618
0.000915935
0.000910295
0.000904738
0.000899299
0.000894007
0.000888889
0.000883964
0.000879252
0.000874767
0.000870522
0.000866526
0.000862786
0.00085931
0.0008561
0.00085316
0.000850492
0.000848095
0.000845969
0.000844113
0.000842523
0.000927974
0.000925341
0.000921906
0.000917791
0.000913103
0.000907944
0.000902402
0.000896576
0.000890608
0.000884602
0.000878613
0.000872688
0.000866871
0.000861196
0.000855693
0.000850388
0.000845302
0.000840452
0.000835851
0.00083151
0.000827439
0.000823642
0.000820125
0.000816891
0.000813942
0.000811277
0.000808897
0.000806799
0.000804983
0.000803444
0.000802178
0.000891838
0.000888283
0.000884017
0.000879156
0.000873819
0.000868103
0.000862102
0.000855894
0.000849548
0.000843187
0.00083692
0.000830785
0.000824821
0.000819059
0.000813525
0.000808238
0.000803216
0.000798471
0.000794012
0.000789845
0.000785975
0.000782406
0.000779137
0.000776169
0.000773501
0.000771131
0.000769057
0.000767275
0.000765781
0.000764571
0.000763641
0.000856832
0.000852379
0.000847306
0.00084173
0.00083576
0.000829496
0.000823037
0.000816463
0.000809845
0.00080324
0.000796721
0.000790382
0.000784283
0.000778448
0.000772897
0.000767646
0.000762705
0.000758084
0.000753785
0.000749811
0.000746162
0.000742837
0.000739833
0.000737147
0.000734774
0.000732712
0.000730954
0.000729496
0.000728333
0.000727459
0.000726869
0.000805706
0.000799117
0.000792317
0.000785398
0.000778443
0.00077153
0.000764718
0.000758057
0.00075158
0.000745349
0.000739439
0.000733872
0.00072866
0.000723808
0.000719317
0.000715187
0.000711416
0.000707997
0.000704926
0.000702196
0.0006998
0.000697731
0.000695982
0.000694547
0.000693418
0.000692588
0.000692052
0.000691801
0.000771269
0.000764054
0.000756707
0.00074932
0.000741973
0.000734739
0.000727678
0.00072085
0.000714291
0.00070803
0.000702075
0.000696481
0.0006913
0.00068653
0.000682167
0.000678206
0.000674638
0.000671452
0.000668638
0.000666185
0.000664082
0.000662319
0.000660886
0.000659774
0.000658974
0.000658477
0.000658276
0.000658363
0.00073856
0.000730705
0.000722791
0.00071491
0.000707144
0.000699563
0.00069223
0.000685194
0.000678495
0.000672173
0.000666239
0.000660703
0.000655561
0.000650854
0.000646608
0.000642807
0.000639436
0.000636478
0.000633919
0.000631741
0.00062993
0.000628472
0.000627353
0.000626562
0.000626087
0.000625919
0.00062605
0.000626469
0.000707683
0.000699174
0.000690671
0.000682266
0.000674043
0.000666074
0.000658424
0.000651144
0.000644273
0.00063784
0.000631864
0.00062636
0.000621322
0.000616735
0.0006126
0.000608941
0.000605753
0.000603014
0.000600701
0.000598793
0.000597269
0.000596111
0.000595302
0.000594828
0.000594674
0.000594831
0.000595286
0.000596032
0.000678742
0.000669556
0.000660433
0.000651466
0.000642742
0.000634337
0.000626319
0.000618741
0.000611644
0.000605058
0.000598999
0.000593474
0.000588482
0.000584013
0.000580043
0.000576541
0.000573521
0.000570988
0.000568912
0.000567265
0.000566022
0.000565157
0.000564652
0.000564489
0.00056465
0.000565124
0.000565899
0.000566964
0.0006518
0.000641913
0.000632137
0.000622568
0.000613295
0.0006044
0.000595956
0.000588019
0.000580636
0.000573837
0.00056764
0.00056205
0.00055706
0.000552652
0.000548809
0.000545497
0.000542674
0.000540336
0.000538482
0.000537084
0.000536111
0.000535532
0.000535323
0.000535463
0.000535932
0.000536716
0.000537802
0.000539178
0.000626899
0.000616289
0.000605829
0.000595616
0.000585745
0.000576303
0.000567369
0.000559008
0.000551272
0.000544195
0.000537797
0.000532082
0.00052704
0.000522653
0.000518891
0.000515718
0.000513097
0.000510978
0.000509339
0.000508177
0.000507461
0.000507158
0.000507236
0.000507671
0.00050844
0.000509526
0.000510915
0.000512595
0.000604095
0.000592731
0.000581552
0.000570651
0.000560129
0.000550079
0.000540589
0.000531733
0.000523571
0.000516144
0.000509474
0.000503568
0.000498416
0.000493993
0.000490267
0.000487194
0.000484727
0.000482817
0.000481408
0.000480474
0.000480003
0.000479963
0.000480319
0.00048104
0.0004821
0.000483481
0.000485164
0.000487139
0.000583441
0.00057128
0.000559339
0.000547706
0.000536478
0.000525758
0.000515642
0.000506216
0.00049755
0.000489694
0.000482676
0.000476507
0.000471176
0.000466657
0.000462912
0.000459891
0.000457539
0.000455798
0.000454608
0.000453907
0.00045367
0.000453883
0.000454505
0.000455502
0.000456845
0.000458511
0.000460481
0.000462743
0.000564974
0.000551959
0.000539212
0.0005268
0.000514817
0.000503366
0.000492554
0.000482481
0.000473228
0.000464857
0.000457408
0.000450896
0.000445311
0.000440629
0.000436805
0.000433783
0.0004315
0.00042989
0.000428882
0.000428408
0.000428407
0.000428857
0.000429734
0.000430997
0.000432613
0.000434555
0.000436803
0.000439344
0.000548736
0.000534792
0.000521184
0.000507948
0.000495159
0.000482921
0.000471346
0.000460547
0.000450623
0.00044165
0.00043368
0.000426737
0.000420819
0.000415897
0.000411928
0.000408847
0.000406584
0.00040506
0.000404198
0.000403919
0.000404149
0.000404835
0.000405952
0.000407469
0.000409347
0.000411556
0.000414074
0.000416885
0.000534843
0.000519838
0.000505282
0.000491162
0.000477518
0.000464438
0.000452037
0.000440438
0.000429759
0.000420092
0.000411507
0.00040404
0.000397697
0.000392455
0.000388266
0.000385062
0.000382763
0.000381281
0.000380525
0.000380408
0.000380845
0.000381756
0.000383105
0.000384865
0.000386996
0.000389463
0.000392241
0.000395314
0.000523412
0.000507158
0.000491528
0.000476444
0.00046189
0.00044792
0.000434636
0.00042217
0.000410654
0.000400204
0.000390906
0.000382817
0.000375954
0.000370301
0.00036581
0.000362412
0.000360016
0.000358524
0.000357832
0.00035784
0.000358452
0.000359579
0.000361153
0.000363142
0.000365514
0.00036823
0.00037126
0.000374587
0.000514634
0.000496871
0.000479971
0.000463802
0.000448268
0.000433358
0.000419145
0.000405753
0.000393328
0.000382006
0.0003719
0.000363087
0.000355601
0.000349439
0.000344559
0.000340886
0.000338326
0.000336767
0.000336094
0.00033619
0.000336946
0.000338262
0.000340047
0.000342259
0.000344861
0.000347815
0.000351089
0.000354663
0.00050878
0.000489176
0.000470721
0.000453271
0.000436645
0.000420736
0.00040555
0.000391186
0.00037779
0.000365519
0.000354512
0.000344872
0.000336659
0.000329884
0.000324515
0.000320482
0.000317681
0.000315993
0.000315286
0.000315429
0.000316296
0.000317773
0.000319759
0.00032218
0.000325
0.000328183
0.000331691
0.000335503
0.000506162
0.000484384
0.000463992
0.000444951
0.00042704
0.000410035
0.00039383
0.000378455
0.000364041
0.000350756
0.000338764
0.0003282
0.000319151
0.000311654
0.000305693
0.000301202
0.000298077
0.000296189
0.000295391
0.000295536
0.000296479
0.000298089
0.000300252
0.000302867
0.000305895
0.000309298
0.000313032
0.000317074
0.000506784
0.000482845
0.000460103
0.000439049
0.000419534
0.000401255
0.000383952
0.000367533
0.00035207
0.000337721
0.000324674
0.000313094
0.000303106
0.000294776
0.00028811
0.000283057
0.000279516
0.000277349
0.000276397
0.000276492
0.000277471
0.000279184
0.000281498
0.000284301
0.000287526
0.000291133
0.000295084
0.000299346
0.000509208
0.000484573
0.000459473
0.000435908
0.000414324
0.000394452
0.000375897
0.000358379
0.000341843
0.000326403
0.000312249
0.000299577
0.000288552
0.000279278
0.000271793
0.000266067
0.000262008
0.000259474
0.000258295
0.000258284
0.000259256
0.000261038
0.000263479
0.000266451
0.000269858
0.000273658
0.000277815
0.00028229
0.000511784
0.000487973
0.000462148
0.000436015
0.000411777
0.000389812
0.000369697
0.000350956
0.000333316
0.000316771
0.000301481
0.000287662
0.000275515
0.000265193
0.000256773
0.000250257
0.000245568
0.000242571
0.000241084
0.000240902
0.000241817
0.000243633
0.000246173
0.00024929
0.000252866
0.00025685
0.0002612
0.00026588
0.000514044
0.000491286
0.000466394
0.00043947
0.000412442
0.000387707
0.000365511
0.000345266
0.000326433
0.000308773
0.000292342
0.000277344
0.000264014
0.000252551
0.000243084
0.000235656
0.000230221
0.000226653
0.000224767
0.000224341
0.000225144
0.000226951
0.00022956
0.0002328
0.000236535
0.00024069
0.000245221
0.000250093
0.000494056
0.000470316
0.00044442
0.000416504
0.000388746
0.000363707
0.000341434
0.000321171
0.000302345
0.000284781
0.000268602
0.000254051
0.000241375
0.000230759
0.000222301
0.000215995
0.00021174
0.000209353
0.000208602
0.000209229
0.00021098
0.000213624
0.000216963
0.00022084
0.000225152
0.000229852
0.000234904
0.000496019
0.000473467
0.000448824
0.000422027
0.00039324
0.000364944
0.000339808
0.000317608
0.000297434
0.000278724
0.000261384
0.00024561
0.000231675
0.000219827
0.000210227
0.000202926
0.000197859
0.00019486
0.000193689
0.000194068
0.00019571
0.00019835
0.000201761
0.000205758
0.000210214
0.000215072
0.000220294
0.000452233
0.000426794
0.000399208
0.000369689
0.000341074
0.000316057
0.000294072
0.000274094
0.000255614
0.000238645
0.000223443
0.000210307
0.000199468
0.000191049
0.000185041
0.000181308
0.000179614
0.000179661
0.000181133
0.000183726
0.000187177
0.000191273
0.000195856
0.000200861
0.000206242
0.00045436
0.000430335
0.000404221
0.000375973
0.000345886
0.000317197
0.000292513
0.000270875
0.000251199
0.00023308
0.000216642
0.000202197
0.000190049
0.000180403
0.000173324
0.000168726
0.000166391
0.000166014
0.000167245
0.000169741
0.000173199
0.000177369
0.000182066
0.000187202
0.000192729
0.000432353
0.000407778
0.000381122
0.00035235
0.000321888
0.000293396
0.000269246
0.000248074
0.00022881
0.000211198
0.00019547
0.000181978
0.000171018
0.000162745
0.000157147
0.000154045
0.000153136
0.000154045
0.000156387
0.000159812
0.000164029
0.000168823
0.000174074
0.000179733
0.000432554
0.000409567
0.000384585
0.000357532
0.000328383
0.000297777
0.000269773
0.000246336
0.000225735
0.000207004
0.000190063
0.000175241
0.000162912
0.00015334
0.000146609
0.000142603
0.000141043
0.000141536
0.000143657
0.000147003
0.000151237
0.000156105
0.000161455
0.000167233
0.000430664
0.000409291
0.00038604
0.000360803
0.000333507
0.000304137
0.000273656
0.000246442
0.000223865
0.000203934
0.000185872
0.000169787
0.000156085
0.000145138
0.000137149
0.0001321
0.000129757
0.000129728
0.00013155
0.000134765
0.00013898
0.000143896
0.000149328
0.00015521
0.000406677
0.00038519
0.000361837
0.000336508
0.000309129
0.000279696
0.000249657
0.000223528
0.000201921
0.000182757
0.000165521
0.0001505
0.000138148
0.000128803
0.000122572
0.000119306
0.000118635
0.000120067
0.000123089
0.000127245
0.000132183
0.000137675
0.000143644
0.000401483
0.000381766
0.000360335
0.000337054
0.000311804
0.000284511
0.00025518
0.000225933
0.000201153
0.000180593
0.000162305
0.00014608
0.000132354
0.000121592
0.000114058
0.000109723
0.000108276
0.000109216
0.000111973
0.000116023
0.00012095
0.000126481
0.000132519
0.000375542
0.000356039
0.000334849
0.000311822
0.000286832
0.000259803
0.00023075
0.000202651
0.000179427
0.000159974
0.000142694
0.000127698
0.000115519
0.00010659
0.000101046
9.86794e-05
9.9008e-05
0.000101417
0.000105307
0.000110188
0.000115732
0.000121816
0.000366349
0.000348742
0.000329641
0.00030888
0.000286299
0.000261761
0.000235189
0.000206621
0.000179986
0.000158451
0.000140164
0.000124068
0.000110549
0.000100185
9.33121e-05
8.98776e-05
8.94629e-05
9.14273e-05
9.50931e-05
9.98884e-05
0.000105419
0.00011152
0.000354087
0.000338306
0.000321245
0.000302735
0.000282596
0.000260654
0.000236762
0.000210845
0.000183035
0.000158117
0.00013832
0.000121291
0.000106598
9.48368e-05
8.65532e-05
8.19085e-05
8.06061e-05
8.20131e-05
8.53803e-05
9.00409e-05
9.55238e-05
0.000101615
0.000324688
0.000309573
0.000293238
0.000275501
0.000256164
0.000235032
0.000211946
0.000186827
0.000160197
0.000137247
0.000119157
0.00010352
9.04951e-05
8.07851e-05
7.48105e-05
7.24703e-05
7.31922e-05
7.61726e-05
8.06417e-05
8.60365e-05
9.20858e-05
0.000307946
0.000294646
0.000280364
0.000264926
0.000248129
0.000229751
0.000209569
0.000187391
0.000163121
0.000138259
0.000117571
0.000101113
8.70545e-05
7.59937e-05
6.86163e-05
6.50937e-05
6.49898e-05
6.74809e-05
7.16924e-05
7.69528e-05
8.29238e-05
0.00028825
0.000276608
0.000264218
0.000250926
0.000236544
0.000220848
0.000203584
0.000184491
0.00016334
0.00014002
0.000117425
9.91837e-05
8.43387e-05
7.21146e-05
6.33391e-05
5.85152e-05
5.74379e-05
5.93232e-05
6.32001e-05
6.82727e-05
7.41215e-05
0.000255719
0.000245034
0.000233694
0.000221541
0.000208372
0.000193942
0.00017797
0.000160159
0.000140259
0.000118175
9.79657e-05
8.20921e-05
6.90017e-05
5.8952e-05
5.27654e-05
5.05742e-05
5.17245e-05
5.51784e-05
6.00015e-05
6.56756e-05
0.000232343
0.000223164
0.000213554
0.00020339
0.000192511
0.000180705
0.000167705
0.000153203
0.000136878
0.000118473
9.80227e-05
8.00758e-05
6.63949e-05
5.53607e-05
4.78539e-05
4.44377e-05
4.47176e-05
4.76482e-05
5.21512e-05
5.75877e-05
0.00020694
0.000199075
0.000190964
0.000182526
0.000173644
0.000164151
0.000153823
0.000142366
0.000129422
0.0001146
9.75721e-05
7.93601e-05
6.40121e-05
5.23997e-05
4.37551e-05
3.90626e-05
3.8341e-05
4.06382e-05
4.4743e-05
4.9867e-05
0.000180038
0.000173319
0.000166496
0.000159526
0.000152336
0.000144813
0.000136791
0.000128028
0.000118192
0.000106857
9.35329e-05
7.77985e-05
6.22733e-05
4.98589e-05
4.03851e-05
3.44626e-05
3.26339e-05
3.41845e-05
3.78081e-05
4.25336e-05
0.000152212
0.000146507
0.000140799
0.000135072
0.000129295
0.000123405
0.000117298
0.00011081
0.000103691
9.5584e-05
8.6018e-05
7.44615e-05
6.05372e-05
4.73834e-05
3.75074e-05
3.05924e-05
2.76237e-05
2.8326e-05
3.13887e-05
3.56247e-05
0.000124063
0.000119283
0.000114563
0.00010991
0.000105317
0.000100764
9.62e-05
9.15333e-05
8.66084e-05
8.11751e-05
7.48543e-05
6.71214e-05
5.73742e-05
4.55649e-05
3.47323e-05
2.73245e-05
2.33141e-05
2.30972e-05
2.55314e-05
2.92016e-05
9.62222e-05
9.23171e-05
8.85085e-05
8.48147e-05
8.12474e-05
7.7808e-05
7.44827e-05
7.12336e-05
6.79832e-05
6.45884e-05
6.07967e-05
5.61839e-05
5.00953e-05
4.16997e-05
3.22316e-05
2.45009e-05
1.96781e-05
1.85162e-05
2.02697e-05
2.33247e-05
6.93872e-05
6.63386e-05
6.34047e-05
6.06094e-05
5.79711e-05
5.55012e-05
5.32027e-05
5.10668e-05
4.90669e-05
4.71439e-05
4.51782e-05
4.29375e-05
3.99979e-05
3.56677e-05
2.91107e-05
2.16968e-05
1.65796e-05
1.45667e-05
1.56056e-05
1.80257e-05
4.44381e-05
4.22494e-05
4.01798e-05
3.82545e-05
3.6491e-05
3.48999e-05
3.34859e-05
3.22493e-05
3.1185e-05
3.02783e-05
2.94923e-05
2.87415e-05
2.78411e-05
2.64106e-05
2.3755e-05
1.90964e-05
1.37328e-05
1.11681e-05
1.14664e-05
1.23174e-05
2.27475e-05
2.14288e-05
2.02153e-05
1.9129e-05
1.81792e-05
1.73684e-05
1.6696e-05
1.61616e-05
1.57659e-05
1.55099e-05
1.539e-05
1.53773e-05
1.54181e-05
1.53761e-05
1.4909e-05
1.34682e-05
1.06241e-05
8.0893e-06
7.93137e-06
7.75863e-06
6.89049e-06
6.39321e-06
5.95584e-06
5.58792e-06
5.28618e-06
5.04583e-06
4.86399e-06
4.74039e-06
4.67771e-06
4.68178e-06
4.75599e-06
4.83396e-06
4.8854e-06
4.9378e-06
5.04886e-06
5.19136e-06
5.32181e-06
5.23205e-06
4.97178e-06
4.68306e-06
3.41974e-07
3.006e-07
2.63894e-07
2.32285e-07
2.05808e-07
1.84121e-07
1.66732e-07
1.53148e-07
1.42946e-07
1.35823e-07
1.31759e-07
1.36426e-07
1.492e-07
1.67846e-07
1.94311e-07
2.31707e-07
2.92311e-07
4.20578e-07
1.01838e-06
2.50862e-06
0.00262792
0.00260416
0.00257958
0.002554
0.00252723
0.00249909
0.0024694
0.00243795
0.00240458
0.00236911
0.00233137
0.00229122
0.00224854
0.00220321
0.00215518
0.0021044
0.00205085
0.00199458
0.00193564
0.00187414
0.00181024
0.00174411
0.00167598
0.0016061
0.00153477
0.00146229
0.001389
0.00131526
0.00124144
0.0011679
0.00109503
0.00102318
0.000952716
0.000883969
0.000817256
0.000752863
0.00069104
0.000632004
0.000575925
0.000522924
0.000473073
0.00042638
0.00038279
0.000342175
0.000304328
0.000268952
0.000235662
0.000203976
0.000173324
0.00014308
0.000112643
8.16602e-05
5.06657e-05
2.29022e-05
5.74759e-06
0.00262676
0.00260269
0.00257776
0.00255178
0.00252458
0.00249598
0.00246578
0.00243381
0.00239988
0.00236382
0.00232549
0.00228474
0.00224145
0.00219554
0.00214694
0.00209561
0.00204157
0.00198485
0.00192553
0.00186372
0.00179958
0.00173331
0.00166511
0.00159527
0.00152406
0.0014518
0.00137882
0.00130548
0.00123214
0.00115915
0.00108688
0.0010157
0.000945928
0.000877906
0.000811929
0.00074827
0.000687167
0.000628818
0.000573382
0.000520965
0.000471624
0.000425356
0.000382093
0.000341695
0.000303947
0.000268549
0.000235111
0.000203159
0.00017214
0.000141474
0.000110663
7.96033e-05
4.93498e-05
2.35375e-05
8.08003e-06
0.00262553
0.00260112
0.00257582
0.00254944
0.0025218
0.00249271
0.002462
0.00242949
0.00239499
0.00235834
0.00231941
0.00227805
0.00223416
0.00218766
0.0021385
0.00208665
0.00203212
0.00197497
0.00191528
0.00185318
0.00178883
0.00172242
0.00165419
0.0015844
0.00151333
0.00144131
0.00136866
0.00129573
0.00122287
0.00115044
0.00107879
0.00100827
0.000939197
0.000871896
0.000806649
0.000743715
0.000683318
0.000625643
0.000570833
0.000518982
0.000470132
0.000424268
0.000381311
0.000341111
0.000303447
0.000268015
0.00023443
0.00020223
0.0001709
0.000139933
0.000108983
7.82152e-05
4.90139e-05
2.53941e-05
1.14048e-05
0.0026242
0.00259945
0.00257377
0.00254696
0.00251887
0.00248929
0.00245805
0.00242498
0.00238991
0.00235267
0.00231313
0.00227116
0.00222667
0.00217959
0.00212987
0.0020775
0.0020225
0.00196493
0.00190489
0.00184252
0.00177797
0.00171146
0.00164321
0.00157349
0.00150259
0.00143083
0.00135852
0.00128601
0.00121365
0.00114179
0.00107076
0.0010009
0.000932524
0.000865939
0.000801415
0.000739197
0.000679494
0.000622477
0.000568276
0.000516972
0.000468594
0.000423114
0.000380444
0.000340427
0.000302835
0.000267365
0.000233644
0.000201234
0.000169674
0.000138555
0.000107701
7.75204e-05
4.96814e-05
2.85649e-05
1.58872e-05
0.00262278
0.00259767
0.00257159
0.00254435
0.00251579
0.0024857
0.00245393
0.00242029
0.00238463
0.00234679
0.00230664