/*--------------------------------*- C++ -*----------------------------------*\
  =========                 |
  \\      /  F ield         | OpenFOAM: The Open Source CFD Toolbox
   \\    /   O peration     | Website:  https://openfoam.org
    \\  /    A nd           | Version:  10
     \\/     M anipulation  |
\*---------------------------------------------------------------------------*/
FoamFile
{
    format      ascii;
    class       volScalarField;
    location    "65000";
    object      omega;
}
// * * * * * * * * * * * * * * * * * * * * * * * * * * * * * * * * * * * * * //

dimensions      [0 0 -1 0 0 0 0];

internalField   nonuniform List<scalar> 
17981
(
43.4418
44.7864
46.196
47.6573
49.155
50.6729
52.195
53.7058
55.1917
56.641
58.0442
59.3942
60.6858
61.9159
63.0829
64.1865
65.2274
66.2072
67.128
67.9919
68.8018
69.5603
70.2703
70.9343
71.5551
72.1353
72.6773
73.1835
73.656
74.097
74.5085
74.8923
75.2501
75.5837
75.8945
76.1841
76.4538
76.705
76.9386
77.1555
77.3564
77.5423
77.7141
77.8728
78.0191
78.1538
78.2778
78.3916
44.4857
45.8772
47.3388
48.8562
50.4129
51.9913
53.5741
55.1448
56.6886
58.1933
59.6488
61.0477
62.3849
63.6572
64.8632
66.0029
67.0771
68.0877
69.0368
69.9271
70.7614
71.5426
72.2735
72.957
73.5959
74.1929
74.7505
75.2711
75.757
76.2103
76.6331
77.0273
77.3947
77.7369
78.0555
78.3522
78.6282
78.885
79.1235
79.3445
79.5488
79.7375
79.9116
80.072
80.2195
80.355
80.4793
80.5929
45.6898
47.1294
48.6438
50.2174
51.8324
53.4699
55.1112
56.7386
58.3367
59.8925
61.3958
62.8389
64.2169
65.5268
66.7675
67.9389
69.0426
70.0803
71.0545
71.9682
72.8242
73.6256
74.3754
75.0765
75.7318
76.3441
76.9159
77.4497
77.9479
78.4125
78.8457
79.2494
79.6255
79.9756
80.3015
80.6045
80.8863
81.1481
81.3908
81.6151
81.8221
82.013
82.1886
82.3501
82.4981
82.6336
82.7574
82.8702
53.4153
55.1095
56.8058
58.4859
60.1333
61.735
63.2805
64.7623
66.1757
67.5179
68.7882
69.987
71.1158
72.1769
73.1729
74.1069
74.982
75.8013
76.5679
77.2848
77.955
78.5812
79.166
79.712
80.2214
80.6965
81.1393
81.5519
81.9361
82.2935
82.626
82.9349
83.2219
83.488
83.7341
83.9612
84.1704
84.3627
84.5393
84.7011
84.849
84.9838
85.1064
85.2176
55.164
56.911
58.6576
60.3846
62.0754
63.7164
65.2976
66.8118
68.2544
69.6233
70.9181
72.1394
73.2892
74.37
75.3845
76.336
77.2277
78.0627
78.8443
79.5755
80.2591
80.8981
81.4949
82.0522
82.5721
83.0571
83.509
83.93
84.3217
84.6861
85.0248
85.3392
85.631
85.901
86.15
86.3793
86.5901
86.7834
86.9604
87.1219
87.2689
87.4024
87.5231
87.632
57.0786
58.873
60.6635
62.4304
64.1569
65.8297
67.4391
68.9785
70.4439
71.8335
73.1473
74.3865
75.5532
76.65
77.68
78.6465
79.5526
80.4015
81.1966
81.9407
82.6368
83.2877
83.8959
84.4639
84.9939
85.4883
85.9491
86.3782
86.7775
87.1487
87.4935
87.8137
88.11
88.3833
88.635
88.8662
89.0782
89.272
89.4488
89.6096
89.7552
89.8868
90.005
90.1108
60.991
62.8168
64.6145
66.3677
68.0635
69.6929
71.2499
72.7312
74.1354
75.4631
76.7156
77.8954
79.0051
80.048
81.0272
81.946
82.8076
83.6151
84.3714
85.0794
85.7418
86.3611
86.9397
87.4799
87.9839
88.4536
88.8911
89.2981
89.6765
90.0281
90.3536
90.6539
90.9305
91.1846
91.4174
91.6302
91.8242
92.0003
92.1598
92.3035
92.4324
92.5474
92.6494
66.9217
68.6912
70.4004
72.0411
73.608
75.0984
76.5116
77.8484
79.1104
80.3
81.4203
82.4741
83.4647
84.3952
85.2687
86.0883
86.8566
87.5766
88.2507
88.8815
89.4711
90.0219
90.536
91.0153
91.4617
91.8773
92.2637
92.6217
92.9523
93.2567
93.5364
93.7928
94.0271
94.2406
94.4343
94.6095
94.7672
94.9084
95.0341
95.1453
95.2428
71.1028
72.8157
74.4592
76.0289
77.5226
78.94
80.282
81.5506
82.748
83.8772
84.9411
85.9425
86.8847
87.7703
88.6024
89.3835
90.1161
90.8029
91.446
92.0478
92.6103
93.1356
93.6256
94.0824
94.5076
94.9022
95.2667
95.6026
95.9115
96.1947
96.4536
96.6895
96.9036
97.097
97.271
97.4266
97.565
97.687
97.7937
97.8861
76.9163
78.483
79.9755
81.3938
82.7389
84.0125
85.2171
86.355
87.4292
88.4423
89.397
90.296
91.142
91.9374
92.6845
93.3856
94.043
94.6587
95.2348
95.7733
96.2761
96.745
97.1806
97.5836
97.9554
98.2976
98.6117
98.899
99.1609
99.3986
99.6135
99.8068
99.9796
100.133
100.268
100.386
100.488
100.575
85.1917
86.4709
87.6834
88.8316
89.9178
90.9445
91.9141
92.829
93.6914
94.5037
95.2679
95.9862
96.6605
97.293
97.8854
98.4399
98.958
99.4403
99.8871
100.3
100.681
101.03
101.351
101.643
101.909
102.149
102.365
102.559
102.731
102.882
103.014
103.128
103.225
103.305
87.6134
88.9003
90.1235
91.2849
92.3864
93.4301
94.4181
95.3524
96.2349
97.0678
97.8528
98.5919
99.2869
99.9398
100.552
101.126
101.662
102.159
102.619
103.044
103.435
103.795
104.123
104.422
104.692
104.936
105.155
105.349
105.52
105.67
105.799
105.908
106
106.074
89.9757
91.2746
92.513
93.6922
94.8138
95.8794
96.8907
97.8493
98.7569
99.6152
100.426
101.19
101.911
102.589
103.226
103.822
104.377
104.892
105.369
105.809
106.214
106.585
106.923
107.23
107.507
107.756
107.978
108.174
108.346
108.494
108.62
108.726
108.811
108.879
92.2525
93.5697
94.8296
96.0329
97.1809
98.2746
99.3153
100.304
101.243
102.133
102.975
103.772
104.524
105.233
105.899
106.52
107.098
107.635
108.132
108.591
109.012
109.397
109.748
110.065
110.351
110.607
110.833
111.032
111.205
111.353
111.477
111.578
111.658
111.719
95.7649
97.0541
98.2894
99.4713
100.601
101.678
102.705
103.682
104.611
105.492
106.328
107.119
107.863
108.561
109.212
109.819
110.383
110.904
111.384
111.825
112.228
112.594
112.925
113.222
113.486
113.719
113.923
114.098
114.246
114.368
114.466
114.541
114.595
97.8439
99.1714
100.447
101.672
102.845
103.968
105.041
106.065
107.04
107.969
108.852
109.686
110.471
111.207
111.894
112.535
113.13
113.681
114.188
114.653
115.077
115.462
115.809
116.12
116.395
116.637
116.847
117.025
117.175
117.297
117.392
117.462
117.509
99.7938
101.169
102.495
103.771
104.998
106.175
107.303
108.383
109.415
110.4
111.336
112.22
113.052
113.832
114.562
115.243
115.876
116.461
117
117.494
117.944
118.352
118.719
119.047
119.336
119.589
119.807
119.992
120.144
120.266
120.359
120.425
120.465
103.039
104.424
105.762
107.052
108.293
109.486
110.631
111.73
112.779
113.774
114.715
115.602
116.434
117.214
117.942
118.619
119.244
119.821
120.349
120.831
121.266
121.658
122.006
122.313
122.58
122.809
123.001
123.159
123.283
123.375
123.437
123.47
104.774
106.229
107.638
109
110.315
111.583
112.805
113.979
115.099
116.162
117.168
118.118
119.012
119.849
120.632
121.359
122.033
122.654
123.223
123.741
124.209
124.629
125.003
125.331
125.616
125.859
126.061
126.226
126.353
126.446
126.505
126.533
106.369
107.903
109.393
110.837
112.236
113.59
114.899
116.156
117.356
118.496
119.578
120.6
121.563
122.467
123.313
124.1
124.829
125.5
126.116
126.677
127.184
127.639
128.042
128.397
128.703
128.964
129.18
129.354
129.487
129.582
129.64
129.664
107.819
109.441
111.021
112.558
114.052
115.503
116.907
118.255
119.544
120.773
121.94
123.045
124.087
125.066
125.983
126.838
127.63
128.361
129.032
129.643
130.196
130.692
131.132
131.518
131.851
132.134
132.368
132.555
132.697
132.796
132.854
132.874
109.116
110.834
112.514
114.154
115.754
117.312
118.822
120.273
121.662
122.988
124.25
125.447
126.578
127.643
128.642
129.574
130.441
131.241
131.976
132.646
133.253
133.797
134.28
134.704
135.07
135.38
135.635
135.839
135.993
136.099
136.16
136.178
110.25
112.073
113.863
115.618
117.337
119.013
120.638
122.201
123.7
125.134
126.502
127.803
129.035
130.197
131.29
132.312
133.263
134.142
134.952
135.691
136.36
136.962
137.496
137.964
138.369
138.712
138.994
139.219
139.388
139.505
139.57
139.588
111.21
113.143
115.05
116.931
118.782
120.593
122.348
124.034
125.653
127.206
128.691
130.108
131.453
132.726
133.925
135.049
136.097
137.068
137.963
138.781
139.524
140.192
140.786
141.307
141.758
142.14
142.455
142.706
142.895
143.025
143.098
143.117
111.997
114.046
116.073
118.081
120.065
122.016
123.916
125.746
127.505
129.19
130.807
132.352
133.825
135.223
136.542
137.782
138.94
140.017
141.01
141.92
142.748
143.493
144.156
144.74
145.245
145.674
146.028
146.311
146.525
146.672
146.756
146.78
112.603
114.772
116.925
119.059
121.177
123.274
125.327
127.314
129.229
131.068
132.833
134.524
136.141
137.679
139.136
140.507
141.792
142.989
144.095
145.111
146.036
146.871
147.616
148.272
148.841
149.325
149.727
150.048
150.291
150.461
150.559
150.59
113.015
115.31
117.593
119.862
122.117
124.36
126.572
128.727
130.813
132.823
134.755
136.612
138.391
140.089
141.7
143.222
144.651
145.985
147.221
148.358
149.395
150.334
151.172
151.913
152.557
153.105
153.562
153.928
154.208
154.405
154.522
154.564
113.222
115.645
118.064
120.476
122.879
125.271
127.645
129.977
132.246
134.443
136.562
138.604
140.566
142.444
144.231
145.923
147.515
149.004
150.388
151.664
152.83
153.887
154.834
155.672
156.402
157.026
157.547
157.967
158.29
158.52
158.66
158.715
113.215
115.766
118.325
120.886
123.445
125.999
128.542
131.057
133.52
135.917
138.242
140.49
142.658
144.737
146.721
148.604
150.381
152.046
153.598
155.031
156.345
157.537
158.608
159.558
160.387
161.098
161.694
162.176
162.549
162.818
162.986
163.057
115.665
118.365
121.079
123.801
126.525
129.247
131.953
134.623
137.236
139.785
142.261
144.654
146.957
149.16
151.258
153.242
155.106
156.847
158.459
159.94
161.286
162.499
163.576
164.519
165.33
166.012
166.566
166.998
167.312
167.513
167.606
115.335
118.176
121.045
123.934
126.836
129.743
132.648
135.537
138.387
141.179
143.9
146.54
149.089
151.536
153.872
156.088
158.176
160.13
161.944
163.613
165.136
166.509
167.732
168.805
169.731
170.51
171.148
171.648
172.015
172.254
172.371
114.778
117.756
120.778
123.839
126.925
130.029
133.139
136.246
139.339
142.393
145.381
148.292
151.113
153.829
156.431
158.905
161.244
163.437
165.479
167.362
169.083
170.638
172.027
173.249
174.305
175.197
175.93
176.508
176.936
177.22
177.367
113.991
117.103
120.277
123.506
126.781
130.09
133.42
136.757
140.089
143.402
146.676
149.884
153.003
156.017
158.913
161.677
164.295
166.758
169.056
171.18
173.125
174.888
176.464
177.855
179.059
180.081
180.923
181.59
182.088
182.424
182.605
122.933
126.396
129.912
133.469
137.053
140.643
144.224
147.778
151.29
154.734
158.077
161.3
164.384
167.316
170.08
172.665
175.061
177.26
179.256
181.045
182.627
184
185.168
186.133
186.902
187.48
187.876
188.097
122.116
125.764
129.488
133.276
137.111
140.976
144.849
148.706
152.528
156.292
159.982
163.565
167.006
170.286
173.387
176.295
178.996
181.48
183.74
185.77
187.568
189.132
190.466
191.572
192.456
193.125
193.589
193.855
121.047
124.874
128.805
132.826
136.919
141.065
145.242
149.426
153.591
157.706
161.748
165.692
169.517
173.185
176.663
179.932
182.975
185.781
188.337
190.639
192.68
194.461
195.981
197.246
198.261
199.033
199.573
199.891
119.722
123.719
127.85
132.101
136.455
140.892
145.386
149.91
154.436
158.933
163.369
167.709
171.925
175.994
179.884
183.557
186.985
190.151
193.042
195.649
197.965
199.989
201.721
203.165
204.327
205.216
205.842
206.218
118.142
122.292
126.611
131.085
135.698
140.428
145.249
150.131
155.04
159.942
164.799
169.575
174.232
178.732
183.048
187.155
191.012
194.581
197.847
200.797
203.423
205.721
207.691
209.337
210.665
211.684
212.407
212.848
116.31
120.594
125.082
129.766
134.63
139.652
144.804
150.055
155.366
160.699
166.009
171.254
176.389
181.374
186.164
190.727
195.037
199.056
202.743
206.079
209.053
211.66
213.898
215.77
217.284
218.451
219.282
219.794
114.23
118.624
123.262
128.137
133.237
138.542
144.024
149.65
155.378
161.164
166.957
172.708
178.363
183.873
189.189
194.269
199.07
203.565
207.717
211.487
214.853
217.807
220.346
222.474
224.198
225.528
226.481
227.074
111.911
116.391
121.151
126.193
131.509
137.082
142.886
148.886
155.04
161.296
167.6
173.892
180.111
186.195
192.088
197.735
203.09
208.109
212.762
217.012
220.819
224.163
227.042
229.458
231.416
232.932
234.02
234.701
109.365
113.904
118.758
123.938
129.443
135.261
141.371
147.738
154.318
161.057
167.894
174.76
181.584
188.294
194.82
201.096
207.062
212.669
217.874
222.647
226.945
230.73
233.991
236.73
238.954
240.676
241.916
242.696
106.603
111.177
116.096
121.38
127.041
133.075
139.465
146.181
153.181
160.407
167.793
175.262
182.731
190.117
197.335
204.305
210.953
217.215
223.039
228.386
233.223
237.504
241.197
244.301
246.823
248.778
250.188
251.078
103.633
108.225
113.18
118.535
124.313
130.524
137.161
144.201
151.603
159.311
167.254
175.348
183.5
191.611
199.581
207.313
214.717
221.712
228.232
234.224
239.653
244.48
248.662
252.179
255.038
257.256
258.857
259.869
100.467
105.064
110.032
115.422
121.277
127.622
134.463
141.788
149.564
157.737
166.235
174.969
183.834
192.716
201.498
210.064
218.304
226.116
233.417
240.138
246.229
251.665
256.394
260.378
263.619
266.133
267.948
269.096
97.1001
101.704
106.671
112.068
117.958
124.387
131.381
138.942
147.05
155.659
164.698
174.074
183.674
193.369
203.023
212.497
221.657
230.379
238.556
246.101
252.947
259.053
264.39
268.907
272.581
275.431
277.487
278.788
93.5195
98.1418
103.108
108.495
114.384
120.847
127.937
135.676
144.061
153.06
162.609
172.616
182.962
193.505
204.086
214.542
224.711
234.443
243.601
252.076
259.778
266.65
272.665
277.778
281.944
285.175
287.505
288.977
89.7048
94.3613
99.3455
104.721
110.586
117.039
124.164
132.013
140.608
149.935
159.947
170.556
181.643
193.054
204.61
216.122
227.394
238.243
248.499
258.022
266.698
274.446
281.222
286.999
291.729
295.395
298.035
299.7
85.6446
90.342
95.3672
100.752
106.589
113
120.104
127.991
136.717
146.296
156.701
167.863
179.666
191.949
204.518
217.153
229.623
241.703
253.185
263.888
273.667
282.416
290.066
296.6
301.963
306.124
309.116
310.998
81.3923
86.0595
91.1402
96.5685
102.402
108.763
115.802
123.658
132.429
142.167
152.88
164.521
176.989
190.128
203.729
217.544
231.304
244.736
257.582
269.616
280.65
290.542
299.201
306.586
312.662
317.391
320.788
322.917
77.2336
81.5738
86.6305
92.1297
98.0047
104.342
111.301
119.069
127.799
137.596
148.509
160.53
173.587
187.535
202.163
217.2
232.335
247.242
261.603
275.132
287.589
298.79
308.607
316.974
323.869
329.245
333.105
335.513
73.4199
77.2141
81.9013
87.3874
93.3487
99.7189
106.625
114.277
122.892
132.643
143.637
155.918
169.454
184.133
199.751
216.025
232.605
249.106
265.141
280.349
294.423
307.121
318.272
327.776
335.616
341.734
346.118
348.846
69.971
73.2542
77.3274
82.404
88.369
94.8394
101.762
109.32
117.776
127.385
138.334
150.733
164.611
179.902
196.436
213.928
231.999
250.204
268.075
285.163
301.073
315.489
328.181
339.007
347.926
354.893
359.888
362.982
69.7049
73.2149
77.6048
83.1199
89.6182
96.6504
104.195
112.504
121.906
132.689
145.053
159.107
174.856
192.182
210.828
230.4
250.399
270.267
289.448
307.439
323.825
338.299
350.663
360.836
368.789
374.493
378.005
66.5433
69.5635
73.3309
78.0762
84.0886
91.182
98.8364
107.088
116.278
126.801
138.979
153.026
169.041
186.988
206.667
227.7
249.546
271.559
293.057
313.399
332.045
348.584
362.741
374.384
383.491
390.016
394.009
69.5726
73.6278
78.7763
85.3555
93.1143
101.463
110.53
120.764
132.629
146.481
162.542
180.89
201.42
223.807
247.503
271.779
295.816
318.806
340.044
358.979
375.234
388.604
399.064
406.546
411.096
66.2939
69.7581
74.1376
79.7461
86.974
95.4787
104.61
114.634
126.12
139.608
155.483
173.971
195.104
218.663
244.137
270.746
297.528
323.48
347.685
369.406
388.124
403.538
415.576
424.179
429.383
66.4224
70.1489
74.8961
81.0339
89.0077
98.3508
108.376
119.542
132.553
148.022
166.364
187.794
212.254
239.341
268.275
297.971
327.204
354.793
379.755
401.372
419.209
433.113
443.041
449.018
63.5844
66.7563
70.7783
75.9459
82.6995
91.5334
101.821
112.89
125.443
140.334
158.246
179.621
204.629
233.053
264.197
296.904
329.721
361.149
389.875
414.913
435.638
451.776
463.287
470.175
61.2153
63.9161
67.3266
71.6842
77.3375
84.817
94.6447
106.003
118.315
132.586
149.823
170.78
195.912
225.278
258.381
294.085
330.741
366.481
399.573
428.656
452.834
471.666
485.081
493.052
61.5951
64.4893
68.1687
72.9109
79.132
87.4795
98.4565
111.039
124.875
141.311
161.512
186.303
216.107
250.759
289.29
329.941
370.461
408.591
442.462
470.791
492.89
508.614
517.886
59.7711
62.2284
65.3383
69.3228
74.51
81.4022
90.8022
103.112
117.118
132.872
152.083
176.077
205.736
241.36
282.345
326.987
372.699
416.597
456.133
489.471
515.558
534.106
544.959
60.5194
63.1501
66.502
70.835
76.5408
84.2339
94.9253
108.794
124.503
142.733
165.555
194.458
230.338
273.167
321.562
372.749
423.167
469.39
508.794
539.782
561.812
574.609
59.3522
61.5793
64.4018
68.0261
72.7591
79.0733
87.7294
100.017
115.742
133.567
155.067
182.655
217.982
261.811
313.413
370.126
427.773
481.839
528.61
565.677
592.009
607.235
58.7303
60.6185
62.9983
66.0342
69.9675
75.1639
82.1996
92.0282
106.282
124.277
144.851
170.753
204.72
248.509
302.41
364.345
429.77
492.937
548.647
593.292
625.072
643.386
60.2785
62.2894
64.8372
68.1132
72.4028
78.1487
86.0673
97.3827
114.022
134.809
159.134
191.071
233.687
288.627
354.998
428.425
501.961
568.486
622.634
661.406
683.707
60.5907
62.296
64.4402
67.175
70.7254
75.436
81.8557
90.9041
104.221
123.699
147.912
177.566
217.942
272.394
341.848
422.964
507.987
587.489
653.599
701.445
728.992
61.6119
63.0673
64.8794
67.1684
70.1115
73.9778
79.1904
86.4461
96.9589
113.008
135.949
164.567
201.98
254.338
324.966
412.684
509.882
604.718
685.892
745.647
780.242
64.6891
66.2324
68.1569
70.6009
73.7726
77.9968
83.798
92.0682
104.424
124.054
151.612
186.524
235.375
304.854
397.125
506.364
618.851
718.915
794.447
838.722
67.2991
68.6316
70.2647
72.3037
74.9082
78.3249
82.948
89.4331
98.9292
113.597
137.812
171.997
216.638
282.511
376.297
496.149
628.119
751.589
848.162
906.04
71.1104
72.2878
73.6978
75.4182
77.5679
80.3328
84.0102
89.0924
96.4318
107.601
125.759
155.89
198.983
259.241
350.825
478.204
630.311
782.141
906.81
984.229
76.4564
77.5341
78.7875
80.2698
82.0655
84.3093
87.2211
91.1677
96.7849
105.233
118.799
142.491
180.805
236.278
322.029
452.157
622.97
807.869
969.785
1075.81
83.8764
84.9122
86.0756
87.398
88.9324
90.7687
93.059
96.0638
100.239
106.408
116.146
132.703
163.652
215.001
292.313
418.937
603.885
824.988
1035.35
1183.71
94.2897
95.3476
96.4912
97.731
99.0911
100.62
102.41
104.631
107.593
111.869
118.551
129.842
150.604
191.807
264.491
380.86
571.684
828.634
1099.9
1310.82
109.385
110.543
111.745
112.979
114.239
115.537
116.91
118.449
120.344
122.972
127.097
134.295
148.082
177.378
236.07
340.298
526.201
812.991
1156.54
1459.67
132.601
133.972
135.328
136.625
137.826
138.902
139.842
140.669
141.469
142.453
144.089
147.396
154.631
171.176
211.837
302.193
470.754
772.886
1194.2
1629.71
172.075
173.845
175.476
176.868
177.928
178.586
178.791
178.516
177.773
176.646
175.38
174.577
175.613
181.753
201.504
259.882
411.692
705.356
1195.64
1814.12
251.873
254.37
256.376
257.628
257.956
257.26
255.479
252.579
248.547
243.408
237.306
230.784
224.738
221.198
225.701
253.462
352.061
618.393
1149.66
1980.23
472.094
475.363
476.897
475.973
472.544
466.716
458.556
448.062
435.166
419.741
401.93
385.946
373.269
362.844
354.327
353.013
377.588
505.976
1040.57
2030.2
1530.04
1523.65
1517.47
1511.5
1505.74
1500.16
1494.78
1489.57
1484.54
1479.67
1474.96
1470.4
1466
1461.73
1457.61
1453.61
1449.74
1446
1442.38
1438.87
48.7455
49.3672
50.0146
50.693
51.408
52.1661
52.9741
53.8397
54.7712
55.7777
56.8692
58.0568
59.3523
60.769
62.3214
64.0254
65.8987
67.9609
70.2338
72.7415
75.5111
78.573
81.9611
85.7138
89.8743
94.491
99.6192
105.321
111.666
118.734
126.614
135.407
145.224
156.191
168.445
182.138
197.433
214.502
233.524
254.683
278.156
304.119
332.742
364.209
398.766
436.817
479.132
527.234
584.187
656.25
756.871
918.07
1230.48
2018.42
4501.8
48.7487
49.3755
50.029
50.7144
51.4375
52.2047
53.0229
53.8998
54.8439
55.8642
56.9708
58.1747
59.4879
60.9235
62.496
64.2214
66.1173
68.2031
70.5005
73.0336
75.8292
78.9175
82.332
86.1108
90.2963
94.9365
100.086
105.804
112.162
119.235
127.11
135.886
145.671
156.584
168.758
182.338
197.477
214.34
233.095
253.914
276.967
302.424
330.455
361.261
395.116
432.487
474.237
522.044
579.207
652.354
755.461
920.645
1231.3
1928.31
3399.17
48.753
49.3852
50.0451
50.7377
51.4691
52.2456
53.0743
53.9629
54.9198
55.9542
57.0762
58.2966
59.6276
61.0823
62.6751
64.422
66.3404
68.4497
70.7715
73.3297
76.1509
79.265
82.7054
86.5093
90.7188
95.3813
100.55
106.284
112.651
119.727
127.595
136.351
146.098
156.953
169.042
182.503
197.483
214.135
232.62
253.1
275.738
300.699
328.159
358.332
391.529
428.272
469.52
517.084
574.44
648.411
752.959
918.664
1218.18
1797.3
2692.13
48.7584
49.3963
50.0627
50.7629
51.5029
52.289
53.1285
54.029
54.999
56.0477
57.1852
58.4225
59.7715
61.2454
62.8585
64.6268
66.5677
68.7004
71.0464
73.6294
76.4758
79.6152
83.0806
86.9088
91.1413
95.8246
101.011
106.758
113.133
120.208
128.066
136.798
146.505
157.297
169.297
182.635
197.449
213.888
232.101
252.243
274.471
298.949
325.858
355.43
388.011
424.181
464.981
512.331
569.822
644.297
749.26
912.68
1192.71
1642.14
2193.14
48.765
49.4088
50.0821
50.7901
51.5388
52.3349
53.1854
54.0981
55.0815
56.1448
57.298
58.5522
59.9194
61.4125
63.0461
64.8358
66.7991
68.955
71.325
73.9324
76.8036
79.9676
83.4572
87.3087
91.563
96.2657
101.468
107.227
113.607
120.679
128.524
137.228
146.89
157.616
169.521
182.731
197.377
213.599
231.539
251.346
273.172
297.18
323.561
352.565
384.573
420.219
460.616
507.767
565.315
639.996
744.604
904
1150.95
1493.19
1833.55
48.7729
49.4228
50.1031
50.8192
51.5771
52.3833
53.2451
54.1702
55.1672
56.2453
57.4145
58.6858
60.0712
61.5837
63.2377
65.0488
67.0343
69.2133
71.6069
74.2384
77.1337
80.3217
83.8347
87.7085
91.9832
96.7038
101.92
107.689
114.071
121.138
128.965
137.639
147.252
157.906
169.713
182.791
197.266
213.268
230.936
250.411
271.843
295.398
321.274
349.744
381.221
416.389
456.422
503.381
560.912
635.561
739.244
890.288
1098.35
1356.98
1570.91
48.782
49.4384
50.126
50.8504
51.6176
52.4343
53.3077
54.2455
55.2563
56.3493
57.5346
58.8232
60.2269
61.7589
63.4332
65.2656
67.2733
69.4751
71.8919
74.5469
77.4658
80.6771
84.2125
88.1075
92.4014
97.1382
102.367
108.143
114.525
121.583
129.39
138.029
147.589
158.169
169.873
182.815
197.115
212.897
230.294
249.442
270.49
293.608
319.005
346.974
377.961
412.695
452.402
499.18
556.652
631.116
732.61
869.172
1040.98
1235.92
1374.07
48.7926
49.4555
50.1507
50.8837
51.6606
52.488
53.3731
54.3238
55.3486
56.4568
57.6584
58.9643
60.3865
61.9378
63.6325
65.4861
67.5156
69.7399
72.1796
74.8577
77.7995
81.0332
84.5901
88.5049
92.8166
97.568
102.807
108.588
114.968
122.014
129.798
138.398
147.901
158.402
170
182.803
196.925
212.487
229.614
248.441
269.117
291.816
316.759
344.262
374.802
409.149
448.573
495.203
552.618
626.497
722.546
841.952
982.928
1129.8
1221.99
48.8045
49.4744
50.1774
50.9192
51.7059
52.5442
53.4413
54.4052
55.4442
56.5677
57.7857
59.1091
60.5497
62.1204
63.8353
65.7099
67.7611
70.0075
72.4697
75.1702
78.1342
81.3894
84.9667
88.9002
93.2281
97.9923
103.24
109.023
115.398
122.429
130.186
138.744
148.187
158.605
170.092
182.753
196.697
212.038
228.899
247.413
267.729
290.029
314.547
341.62
371.758
405.771
444.973
491.518
548.769
620.504
708.108
811.042
926.472
1037.36
1100.83
48.8179
49.4949
50.206
50.9569
51.7537
52.6031
53.5125
54.4896
55.5431
56.682
57.9165
59.2574
60.7164
62.3064
64.0415
65.9369
68.0095
70.2776
72.7617
75.484
78.4694
81.7452
85.3417
89.2926
93.635
98.4102
103.664
109.447
115.814
122.827
130.554
139.067
148.446
158.776
170.151
182.667
196.431
211.552
228.152
246.361
266.332
288.255
312.379
339.064
368.853
402.6
441.663
488.131
544.462
611.868
690.053
778.451
872.744
956.911
1001.8
48.8329
49.5172
50.2366
50.9968
51.8039
52.6648
53.5865
54.5771
55.6451
56.7996
58.0507
59.409
60.8865
62.4958
64.2508
66.1667
68.2603
70.5497
73.0551
75.7986
78.8045
82.0998
85.7144
89.6811
94.0365
98.8207
104.078
109.859
116.215
123.208
130.901
139.364
148.676
158.916
170.175
182.545
196.128
211.033
227.376
245.291
264.935
286.506
310.272
336.617
366.123
399.691
438.672
484.688
538.671
600.421
669.666
745.429
822.317
886.717
919.163
48.8494
49.5413
50.2693
51.039
51.8566
52.729
53.6634
54.6677
55.7503
56.9204
58.1881
59.564
61.0597
62.6881
64.4629
66.3991
68.5133
70.8235
73.3496
76.1134
79.1389
82.4527
86.084
90.065
94.4316
99.2229
104.482
110.257
116.601
123.569
131.225
139.636
148.876
159.024
170.164
182.388
195.792
210.483
226.578
244.212
263.549
284.799
308.249
334.315
363.622
397.083
435.799
480.452
530.88
586.785
647.97
712.741
775.418
825.16
849.019
48.8676
49.5673
50.304
51.0834
51.9118
52.796
53.7431
54.7612
55.8585
57.0444
58.3286
59.722
61.236
62.8833
64.6775
66.6337
68.768
71.0985
73.6446
76.4278
79.472
82.803
86.4497
90.4435
94.8194
99.6156
104.874
110.642
116.969
123.91
131.526
139.882
149.048
159.1
170.121
182.197
195.424
209.907
225.764
243.134
262.189
283.154
306.342
332.205
361.389
394.666
432.534
474.849
521.263
571.686
625.646
680.879
732.047
770.847
788.635
48.8873
49.5951
50.3407
51.1301
51.9695
52.8656
53.8256
54.8575
55.9697
57.1713
58.4722
59.8829
61.415
63.081
64.8944
66.8701
69.0241
71.3741
73.9395
76.7414
79.8031
83.1501
86.8107
90.8156
95.199
99.998
105.254
111.011
117.318
124.23
131.803
140.1
149.19
159.145
170.045
181.975
195.029
209.312
224.944
242.071
260.876
281.603
304.596
330.331
359.369
392.086
428.353
467.798
510.276
555.68
603.148
650.165
692.058
722.619
736.03
48.9088
49.6248
50.3796
51.1791
52.0296
52.9377
53.9108
54.9567
56.0838
57.3011
58.6185
60.0465
61.5965
63.2809
65.1131
67.1079
69.281
71.65
74.2338
77.0533
80.1314
83.4932
87.1661
91.1804
95.5693
100.369
105.619
111.363
117.649
124.528
132.055
140.291
149.303
159.16
169.939
181.726
194.613
208.706
224.131
241.042
259.636
280.185
303.052
328.666
357.317
388.902
423.05
459.544
498.345
539.151
580.801
620.793
655.228
679.524
689.728
48.932
49.6564
50.4206
51.2304
52.0921
53.0124
53.9987
55.0586
56.2005
57.4335
58.7674
60.2125
61.7801
63.4827
65.3334
67.3467
69.5383
71.9254
74.5268
77.363
80.4563
83.8314
87.5152
91.5371
95.9295
100.728
105.97
111.699
117.96
124.803
132.282
140.456
149.388
159.146
169.808
181.456
194.184
208.103
223.343
240.072
258.507
278.939
301.705
327.044
354.878
384.861
416.721
450.395
485.788
522.375
558.84
592.865
621.301
640.785
648.612
48.9569
49.6898
50.4636
51.2839
52.157
53.0896
54.089
55.163
56.3198
57.5685
58.9186
60.3806
61.9657
63.686
65.5547
67.586
69.7955
72.2
74.818
77.6697
80.777
84.164
87.857
91.8847
96.2787
101.073
106.305
112.017
118.251
125.056
132.485
140.595
149.446
159.108
169.656
181.172
193.754
207.517
222.603
239.193
257.525
277.873
300.441
325.183
351.789
379.955
409.575
440.612
472.837
505.56
537.433
566.416
590.014
605.769
611.813
48.9835
49.7252
50.5086
51.3395
52.2241
53.1692
54.1819
55.2699
56.4415
57.7057
59.072
60.5507
62.1529
63.8905
65.7767
67.8254
70.052
72.4731
75.1067
77.9728
81.0927
84.4902
88.1907
92.2225
96.616
101.405
106.625
112.316
118.521
125.287
132.664
140.709
149.482
159.05
169.489
180.884
193.337
206.97
221.938
238.439
256.703
276.91
299.042
322.833
347.975
374.316
401.819
430.389
459.665
488.865
516.7
541.433
561.115
573.952
578.647
49.0118
49.7625
50.5557
51.3973
52.2936
53.251
54.277
55.379
56.5654
57.845
59.2272
60.7223
62.3412
64.0958
65.9989
68.0644
70.3073
72.744
75.3923
78.2715
81.4028
84.8091
88.5156
92.5496
96.9407
101.722
106.927
112.596
118.771
125.496
132.822
140.803
149.499
158.978
169.317
180.605
192.95
206.486
221.38
237.828
255.993
275.882
297.278
319.882
343.508
368.102
393.619
419.871
446.405
472.411
496.714
517.868
534.366
544.897
548.555
49.0418
49.8016
50.6048
51.4572
52.3651
53.3351
54.3742
55.4903
56.6913
57.9861
59.384
60.8952
62.5304
64.3014
66.2209
68.3024
70.5608
73.0122
75.674
78.5652
81.7064
85.1202
88.831
92.8653
97.2523
102.023
107.213
112.859
119.001
125.685
132.959
140.878
149.502
158.9
169.152
180.352
192.618
206.093
220.948
237.33
255.267
274.587
295.017
316.349
338.505
361.454
385.098
409.172
433.166
456.294
477.518
495.657
509.553
518.245
521.102
49.0734
49.8425
50.6557
51.5191
52.4387
53.4211
54.4735
55.6034
56.8189
58.1287
59.5421
61.069
62.7201
64.507
66.4421
68.5389
70.8119
73.277
75.9512
78.8531
82.003
85.4227
89.1361
93.1693
97.5505
102.31
107.483
113.104
119.214
125.857
133.081
140.942
149.501
158.828
169.009
180.146
192.365
205.813
220.627
236.848
254.349
272.885
292.243
312.319
333.083
354.48
376.353
398.381
420.036
440.585
459.129
474.721
486.48
493.698
495.936
49.1068
49.8851
50.7085
51.5828
52.5141
53.5091
54.5746
55.7183
56.9481
58.2726
59.7011
61.2433
62.9097
64.7119
66.6621
68.7734
71.0602
73.5379
76.2234
79.1348
82.2918
85.716
89.4307
93.4611
97.835
102.582
107.736
113.332
119.41
126.014
133.192
141.001
149.503
158.774
168.906
180.008
192.211
205.638
220.342
236.234
253.1
270.731
289.008
307.889
327.339
347.266
367.463
387.578
407.088
425.326
441.542
454.982
464.975
471.005
472.762
49.1417
49.9294
50.7631
51.6484
52.5914
53.5987
54.6773
55.8346
57.0785
58.4175
59.8606
61.4177
63.099
64.9159
66.8803
69.0053
71.3049
73.7943
76.4899
79.4095
82.5725
85.9999
89.7143
93.7408
98.1062
102.84
107.975
113.546
119.594
126.161
133.298
141.063
149.522
158.757
168.864
179.96
192.157
205.514
219.971
235.352
251.457
268.154
285.392
303.143
321.349
339.879
358.495
376.82
394.365
410.548
424.747
436.364
444.891
449.956
451.34
49.1781
49.9754
50.8193
51.7156
52.6703
53.6899
54.7814
55.9521
57.2098
58.5629
60.0204
61.5918
63.2875
65.1183
67.0963
69.2341
71.5456
74.0456
76.7502
79.6769
82.8446
86.2739
89.987
94.0084
98.3646
103.085
108.201
113.749
119.768
126.304
133.408
141.14
149.573
158.793
168.903
180.005
192.161
205.337
219.387
234.128
249.425
265.214
281.468
298.15
315.175
332.377
349.488
366.147
381.909
396.27
408.721
418.792
426.098
430.371
431.466
49.216
50.0228
50.877
51.7843
52.7506
53.7824
54.8867
56.0705
57.3417
58.7087
60.18
61.7653
63.4747
65.3189
67.3096
69.4594
71.7818
74.2913
77.0039
79.9366
83.1079
86.5381
90.249
94.2647
98.6115
103.318
108.417
113.944
119.94
126.451
133.532
141.247
149.674
158.903
169.028
180.112
192.139
204.992
218.508
232.552
247.051
261.976
277.301
292.969
308.86
324.787
340.482
355.604
369.753
382.503
393.438
402.192
408.476
412.098
412.965
49.2553
50.0717
50.9362
51.8543
52.8322
53.8761
54.9928
56.1896
57.4741
58.8543
60.3391
61.9378
63.6602
65.517
67.5197