/*--------------------------------*- C++ -*----------------------------------*\
  =========                 |
  \\      /  F ield         | OpenFOAM: The Open Source CFD Toolbox
   \\    /   O peration     | Website:  https://openfoam.org
    \\  /    A nd           | Version:  10
     \\/     M anipulation  |
\*---------------------------------------------------------------------------*/
FoamFile
{
    format      ascii;
    class       surfaceScalarField;
    location    "55000";
    object      phi;
}
// * * * * * * * * * * * * * * * * * * * * * * * * * * * * * * * * * * * * * //

dimensions      [0 3 -1 0 0 0 0];

internalField   nonuniform List<scalar> 
35539
(
7.25726e-09
4.2183e-05
-4.21829e-05
7.21493e-09
4.26572e-05
-4.26571e-05
7.17505e-09
4.31324e-05
-4.31324e-05
7.14512e-09
4.36085e-05
-4.36084e-05
7.12386e-09
4.40851e-05
-4.4085e-05
7.10489e-09
4.4562e-05
-4.45619e-05
7.09567e-09
4.50388e-05
-4.50388e-05
7.09464e-09
4.55154e-05
-4.55154e-05
7.09546e-09
4.59913e-05
-4.59913e-05
7.10081e-09
4.64663e-05
-4.64663e-05
7.11367e-09
4.694e-05
-4.694e-05
7.13183e-09
4.74119e-05
-4.7412e-05
7.15579e-09
4.78818e-05
-4.78818e-05
7.17906e-09
4.83491e-05
-4.83492e-05
7.2084e-09
4.88135e-05
-4.88135e-05
7.23932e-09
4.92744e-05
-4.92744e-05
7.2741e-09
4.97313e-05
-4.97314e-05
7.30797e-09
5.01838e-05
-5.01838e-05
7.34277e-09
5.06312e-05
-5.06312e-05
7.376e-09
5.10729e-05
-5.10729e-05
7.40702e-09
5.15083e-05
-5.15083e-05
7.4366e-09
5.19367e-05
-5.19368e-05
7.45785e-09
5.23574e-05
-5.23575e-05
7.47327e-09
5.27697e-05
-5.27697e-05
7.47939e-09
5.31726e-05
-5.31726e-05
7.47795e-09
5.35654e-05
-5.35654e-05
7.45864e-09
5.39471e-05
-5.3947e-05
7.42246e-09
5.43166e-05
-5.43166e-05
7.36871e-09
5.37311e-05
-5.37311e-05
7.2918e-09
5.22308e-05
-5.22307e-05
7.19597e-09
5.07765e-05
-5.07764e-05
7.07234e-09
4.93666e-05
-4.93664e-05
6.9233e-09
4.79995e-05
-4.79993e-05
6.74618e-09
4.66736e-05
-4.66734e-05
6.54186e-09
4.53876e-05
-4.53874e-05
6.30803e-09
4.414e-05
-4.41397e-05
6.04638e-09
4.29294e-05
-4.29292e-05
5.75318e-09
4.17547e-05
-4.17544e-05
5.42903e-09
4.06146e-05
-4.06142e-05
5.07638e-09
3.95078e-05
-3.95075e-05
4.6926e-09
3.84333e-05
-3.84329e-05
4.28083e-09
3.739e-05
-3.73896e-05
3.83916e-09
3.63769e-05
-3.63765e-05
3.37242e-09
3.53929e-05
-3.53925e-05
2.88237e-09
3.44371e-05
-3.44366e-05
2.36565e-09
3.35085e-05
-3.3508e-05
1.82218e-09
3.26063e-05
-3.26058e-05
1.25973e-09
3.17296e-05
-3.1729e-05
6.73337e-10
3.08775e-05
-3.08769e-05
6.87452e-11
3.00492e-05
-3.00486e-05
-5.59507e-10
2.92441e-05
-2.92435e-05
-1.20765e-09
2.84613e-05
-2.84606e-05
-1.87831e-09
2.77001e-05
-2.76994e-05
-2.57382e-09
2.69598e-05
-2.69591e-05
-3.28628e-09
2.62399e-05
-2.62392e-05
-4.02414e-09
2.55396e-05
-2.55388e-05
-4.78245e-09
2.48583e-05
-2.48576e-05
-5.56082e-09
2.41956e-05
-2.41948e-05
-6.3644e-09
2.35507e-05
-2.35499e-05
-7.18996e-09
2.29233e-05
-2.29225e-05
-8.03801e-09
2.23127e-05
-2.23119e-05
-8.90988e-09
2.17186e-05
-2.17177e-05
-9.8027e-09
2.11403e-05
-2.11394e-05
-1.07235e-08
2.05776e-05
-2.05766e-05
-1.16674e-08
2.00298e-05
-2.00289e-05
-1.26419e-08
1.94968e-05
-1.94958e-05
-1.36432e-08
1.89779e-05
-1.89769e-05
-1.46751e-08
1.8473e-05
-1.84719e-05
-1.57447e-08
1.79815e-05
-1.79805e-05
-1.68483e-08
1.75033e-05
-1.75022e-05
-1.7992e-08
1.70379e-05
-1.70367e-05
-1.91716e-08
1.6585e-05
-1.65838e-05
-2.03942e-08
1.61444e-05
-1.61431e-05
-2.1655e-08
1.57157e-05
-1.57144e-05
-2.29532e-08
1.52987e-05
-1.52974e-05
-2.42908e-08
1.4893e-05
-1.48917e-05
-2.56593e-08
1.44985e-05
-1.44971e-05
-2.7057e-08
1.41148e-05
-1.41134e-05
-2.84816e-08
1.37417e-05
-1.37403e-05
-2.99276e-08
1.3379e-05
-1.33775e-05
-3.13892e-08
1.30263e-05
-1.30248e-05
-3.28615e-08
1.26834e-05
-1.26819e-05
-3.43399e-08
1.235e-05
-1.23486e-05
-3.58139e-08
1.2026e-05
-1.20245e-05
-3.72818e-08
1.17111e-05
-1.17096e-05
-3.87343e-08
1.1405e-05
-1.14035e-05
-4.01626e-08
1.11075e-05
-1.11061e-05
-4.15615e-08
1.08184e-05
-1.0817e-05
-4.29226e-08
1.05374e-05
-1.0536e-05
-4.42366e-08
1.02643e-05
-1.02629e-05
-4.54994e-08
9.99883e-06
-9.99757e-06
-4.67007e-08
9.74084e-06
-9.73964e-06
9.49008e-06
-9.48895e-06
7.37645e-09
4.2183e-05
7.32795e-09
4.26572e-05
7.28652e-09
4.31325e-05
7.25139e-09
4.36085e-05
7.22509e-09
4.40851e-05
7.20606e-09
4.4562e-05
7.19471e-09
4.50388e-05
7.18464e-09
4.55154e-05
7.18547e-09
4.59913e-05
7.19095e-09
4.64663e-05
7.20312e-09
4.694e-05
7.21798e-09
4.74119e-05
7.23579e-09
4.78818e-05
7.25654e-09
4.83491e-05
7.28471e-09
4.88135e-05
7.31343e-09
4.92744e-05
7.34469e-09
4.97313e-05
7.3781e-09
5.01838e-05
7.40889e-09
5.06311e-05
7.43853e-09
5.10729e-05
7.46802e-09
5.15083e-05
7.49052e-09
5.19367e-05
7.51254e-09
5.23574e-05
7.52663e-09
5.27697e-05
7.52869e-09
5.31726e-05
7.52078e-09
5.35654e-05
7.49824e-09
5.39471e-05
7.45978e-09
5.43167e-05
7.39933e-09
5.37312e-05
7.31609e-09
5.22308e-05
7.21218e-09
5.07766e-05
7.08417e-09
4.93667e-05
6.93075e-09
4.79996e-05
6.75057e-09
4.66738e-05
6.53929e-09
4.53878e-05
6.29992e-09
4.41402e-05
6.02673e-09
4.29297e-05
5.72525e-09
4.1755e-05
5.39565e-09
4.06149e-05
5.03511e-09
3.95082e-05
4.64461e-09
3.84337e-05
4.22713e-09
3.73905e-05
3.779e-09
3.63774e-05
3.30698e-09
3.53934e-05
2.80743e-09
3.44376e-05
2.28709e-09
3.35091e-05
1.74256e-09
3.26069e-05
1.17532e-09
3.17301e-05
5.89792e-10
3.08781e-05
-1.93931e-11
3.00499e-05
-6.49452e-10
2.92447e-05
-1.30006e-09
2.84619e-05
-1.97033e-09
2.77007e-05
-2.657e-09
2.69605e-05
-3.36693e-09
2.62406e-05
-4.09662e-09
2.55403e-05
-4.84717e-09
2.48591e-05
-5.61817e-09
2.41963e-05
-6.41043e-09
2.35515e-05
-7.22357e-09
2.29241e-05
-8.05873e-09
2.23136e-05
-8.91294e-09
2.17194e-05
-9.79313e-09
2.11412e-05
-1.06944e-08
2.05785e-05
-1.16217e-08
2.00308e-05
-1.2576e-08
1.94977e-05
-1.35574e-08
1.89789e-05
-1.45729e-08
1.8474e-05
-1.56201e-08
1.79826e-05
-1.67034e-08
1.75043e-05
-1.78236e-08
1.7039e-05
-1.89863e-08
1.65862e-05
-2.01835e-08
1.61456e-05
-2.14204e-08
1.57169e-05
-2.26959e-08
1.52999e-05
-2.40037e-08
1.48943e-05
-2.53447e-08
1.44998e-05
-2.67147e-08
1.41162e-05
-2.81089e-08
1.37431e-05
-2.95219e-08
1.33804e-05
-3.09502e-08
1.30277e-05
-3.23866e-08
1.26848e-05
-3.38252e-08
1.23515e-05
-3.52616e-08
1.20275e-05
-3.66871e-08
1.17125e-05
-3.80964e-08
1.14064e-05
-3.94804e-08
1.11089e-05
-4.08345e-08
1.08197e-05
-4.21483e-08
1.05387e-05
-4.34173e-08
1.02655e-05
-4.46324e-08
1e-05
-4.57869e-08
9.742e-06
9.49117e-06
7.48458e-09
4.21831e-05
7.43424e-09
4.26573e-05
7.39209e-09
4.31325e-05
7.35552e-09
4.36085e-05
7.32324e-09
4.40851e-05
7.305e-09
4.4562e-05
7.28956e-09
4.50389e-05
7.27947e-09
4.55154e-05
7.27747e-09
4.59913e-05
7.27444e-09
4.64663e-05
7.28449e-09
4.694e-05
7.29847e-09
4.74119e-05
7.31187e-09
4.78818e-05
7.33366e-09
4.83491e-05
7.35917e-09
4.88134e-05
7.38354e-09
4.92743e-05
7.41322e-09
4.97313e-05
7.44093e-09
5.01837e-05
7.47057e-09
5.06311e-05
7.50073e-09
5.10728e-05
7.52459e-09
5.15083e-05
7.54684e-09
5.19367e-05
7.56213e-09
5.23574e-05
7.5707e-09
5.27697e-05
7.57038e-09
5.31726e-05
7.55883e-09
5.35654e-05
7.53298e-09
5.39471e-05
7.48991e-09
5.43167e-05
7.42266e-09
5.37313e-05
7.33903e-09
5.22309e-05
7.22978e-09
5.07767e-05
7.09507e-09
4.93668e-05
6.93162e-09
4.79998e-05
6.74194e-09
4.6674e-05
6.52488e-09
4.5388e-05
6.27634e-09
4.41405e-05
6.00103e-09
4.293e-05
5.69566e-09
4.17553e-05
5.35518e-09
4.06152e-05
4.98884e-09
3.95085e-05
4.59234e-09
3.84341e-05
4.16694e-09
3.73909e-05
3.71582e-09
3.63778e-05
3.23704e-09
3.53939e-05
2.73421e-09
3.44381e-05
2.21019e-09
3.35096e-05
1.66166e-09
3.26074e-05
1.09197e-09
3.17307e-05
5.01971e-10
3.08787e-05
-1.08251e-10
3.00505e-05
-7.33611e-10
2.92453e-05
-1.38091e-09
2.84626e-05
-2.04668e-09
2.77014e-05
-2.73158e-09
2.69612e-05
-3.4339e-09
2.62413e-05
-4.15734e-09
2.5541e-05
-4.89727e-09
2.48598e-05
-5.65883e-09
2.41971e-05
-6.4377e-09
2.35523e-05
-7.23486e-09
2.29249e-05
-8.05151e-09
2.23144e-05
-8.89055e-09
2.17203e-05
-9.74963e-09
2.11421e-05
-1.0632e-08
2.05793e-05
-1.15403e-08
2.00317e-05
-1.24716e-08
1.94986e-05
-1.34343e-08
1.89799e-05
-1.44248e-08
1.8475e-05
-1.54488e-08
1.79836e-05
-1.65103e-08
1.75054e-05
-1.76078e-08
1.70401e-05
-1.87416e-08
1.65873e-05
-1.9915e-08
1.61467e-05
-2.11256e-08
1.57181e-05
-2.23711e-08
1.53012e-05
-2.3652e-08
1.48956e-05
-2.49612e-08
1.45012e-05
-2.62992e-08
1.41175e-05
-2.76575e-08
1.37445e-05
-2.90344e-08
1.33817e-05
-3.0424e-08
1.30291e-05
-3.18224e-08
1.26862e-05
-3.32217e-08
1.23529e-05
-3.46141e-08
1.20289e-05
-3.59968e-08
1.17139e-05
-3.73612e-08
1.14078e-05
-3.8701e-08
1.11102e-05
-4.00072e-08
1.0821e-05
-4.12755e-08
1.05399e-05
-4.24982e-08
1.02668e-05
-4.36679e-08
1.00012e-05
-4.47774e-08
9.74311e-06
9.49221e-06
7.59709e-09
4.21832e-05
7.54195e-09
4.26573e-05
7.49418e-09
4.31326e-05
7.45433e-09
4.36086e-05
7.42272e-09
4.40852e-05
7.39521e-09
4.4562e-05
7.37406e-09
4.50389e-05
7.36437e-09
4.55154e-05
7.35708e-09
4.59913e-05
7.35888e-09
4.64663e-05
7.3632e-09
4.694e-05
7.36992e-09
4.74119e-05
7.38779e-09
4.78818e-05
7.40758e-09
4.83491e-05
7.42466e-09
4.88134e-05
7.44991e-09
4.92743e-05
7.47547e-09
4.97313e-05
7.50123e-09
5.01837e-05
7.52781e-09
5.06311e-05
7.55282e-09
5.10728e-05
7.57461e-09
5.15082e-05
7.59376e-09
5.19367e-05
7.60696e-09
5.23574e-05
7.61175e-09
5.27697e-05
7.60835e-09
5.31726e-05
7.59181e-09
5.35654e-05
7.56118e-09
5.39471e-05
7.50916e-09
5.43168e-05
7.43836e-09
5.37313e-05
7.34706e-09
5.2231e-05
7.23137e-09
5.07768e-05
7.08958e-09
4.9367e-05
6.92374e-09
4.79999e-05
6.72894e-09
4.66742e-05
6.50742e-09
4.53882e-05
6.25134e-09
4.41407e-05
5.96765e-09
4.29303e-05
5.65418e-09
4.17556e-05
5.30951e-09
4.06156e-05
4.93595e-09
3.95089e-05
4.53288e-09
3.84345e-05
4.10296e-09
3.73913e-05
3.64568e-09
3.63783e-05
3.16314e-09
3.53944e-05
2.65963e-09
3.44386e-05
2.12882e-09
3.35101e-05
1.58051e-09
3.2608e-05
1.00932e-09
3.17313e-05
4.2012e-10
3.08792e-05
-1.8792e-10
3.00511e-05
-8.15007e-10
2.9246e-05
-1.45768e-09
2.84632e-05
-2.11666e-09
2.77021e-05
-2.79616e-09
2.69619e-05
-3.49084e-09
2.6242e-05
-4.20191e-09
2.55417e-05
-4.93187e-09
2.48606e-05
-5.67626e-09
2.41979e-05
-6.43894e-09
2.35531e-05
-7.2212e-09
2.29257e-05
-8.01893e-09
2.23152e-05
-8.8379e-09
2.17211e-05
-9.67726e-09
2.11429e-05
-1.05367e-08
2.05802e-05
-1.14188e-08
2.00326e-05
-1.23278e-08
1.94996e-05
-1.32641e-08
1.89808e-05
-1.42321e-08
1.84759e-05
-1.52311e-08
1.79846e-05
-1.62638e-08
1.75064e-05
-1.73336e-08
1.70411e-05
-1.84396e-08
1.65884e-05
-1.95839e-08
1.61479e-05
-2.07624e-08
1.57193e-05
-2.19768e-08
1.53024e-05
-2.32229e-08
1.48969e-05
-2.44993e-08
1.45024e-05
-2.5798e-08
1.41188e-05
-2.71203e-08
1.37458e-05
-2.84608e-08
1.33831e-05
-2.98103e-08
1.30304e-05
-3.11659e-08
1.26875e-05
-3.25203e-08
1.23542e-05
-3.38722e-08
1.20302e-05
-3.5209e-08
1.17152e-05
-3.6527e-08
1.14091e-05
-3.78199e-08
1.11115e-05
-3.90804e-08
1.08223e-05
-4.03022e-08
1.05412e-05
-4.14772e-08
1.02679e-05
-4.26017e-08
1.00023e-05
-4.36688e-08
9.74417e-06
9.49322e-06
7.7021e-09
4.21832e-05
7.64358e-09
4.26574e-05
7.59192e-09
4.31326e-05
7.55178e-09
4.36086e-05
7.51642e-09
4.40852e-05
7.48584e-09
4.4562e-05
7.4654e-09
4.50389e-05
7.44763e-09
4.55154e-05
7.4373e-09
4.59914e-05
7.43683e-09
4.64663e-05
7.43668e-09
4.694e-05
7.44586e-09
4.74119e-05
7.45486e-09
4.78817e-05
7.46806e-09
4.83491e-05
7.48937e-09
4.88134e-05
7.50878e-09
4.92743e-05
7.53033e-09
4.97312e-05
7.5553e-09
5.01837e-05
7.57635e-09
5.06311e-05
7.59809e-09
5.10728e-05
7.6174e-09
5.15082e-05
7.63275e-09
5.19367e-05
7.64392e-09
5.23574e-05
7.64298e-09
5.27697e-05
7.63744e-09
5.31726e-05
7.61648e-09
5.35654e-05
7.57703e-09
5.39472e-05
7.52293e-09
5.43168e-05
7.44989e-09
5.37314e-05
7.35077e-09
5.22311e-05
7.22927e-09
5.07769e-05
7.08349e-09
4.93671e-05
6.91152e-09
4.80001e-05
6.70824e-09
4.66744e-05
6.47631e-09
4.53885e-05
6.22005e-09
4.4141e-05
5.92833e-09
4.29306e-05
5.60816e-09
4.17559e-05
5.25952e-09
4.06159e-05
4.87785e-09
3.95093e-05
4.47084e-09
3.84349e-05
4.03614e-09
3.73918e-05
3.57537e-09
3.63787e-05
3.08977e-09
3.53948e-05
2.57766e-09
3.44391e-05
2.04901e-09
3.35106e-05
1.49678e-09
3.26085e-05
9.27611e-10
3.17318e-05
3.39554e-10
3.08798e-05
-2.66353e-10
3.00517e-05
-8.8623e-10
2.92466e-05
-1.52526e-09
2.84638e-05
-2.17973e-09
2.77027e-05
-2.8461e-09
2.69625e-05
-3.53148e-09
2.62427e-05
-4.22957e-09
2.55424e-05
-4.94278e-09
2.48613e-05
-5.67251e-09
2.41986e-05
-6.41855e-09
2.35538e-05
-7.17956e-09
2.29265e-05
-7.95985e-09
2.2316e-05
-8.75308e-09
2.17219e-05
-9.56698e-09
2.11437e-05
-1.04013e-08
2.0581e-05
-1.12589e-08
2.00334e-05
-1.21416e-08
1.95004e-05
-1.30498e-08
1.89817e-05
-1.3988e-08
1.84769e-05
-1.4957e-08
1.79856e-05
-1.59618e-08
1.75074e-05
-1.7001e-08
1.70422e-05
-1.80748e-08
1.65895e-05
-1.91849e-08
1.6149e-05
-2.03304e-08
1.57205e-05
-2.15099e-08
1.53036e-05
-2.27192e-08
1.48981e-05
-2.3956e-08
1.45037e-05
-2.52196e-08
1.41201e-05
-2.65004e-08
1.37471e-05
-2.77957e-08
1.33844e-05
-2.91042e-08
1.30317e-05
-3.04154e-08
1.26889e-05
-3.17265e-08
1.23555e-05
-3.30296e-08
1.20315e-05
-3.43204e-08
1.17165e-05
-3.55909e-08
1.14104e-05
-3.68363e-08
1.11128e-05
-3.80495e-08
1.08235e-05
-3.92251e-08
1.05423e-05
-4.03562e-08
1.02691e-05
-4.14374e-08
1.00034e-05
-4.24614e-08
9.7452e-06
9.49418e-06
7.79991e-09
4.21833e-05
7.74081e-09
4.26575e-05
7.68423e-09
4.31327e-05
7.63785e-09
4.36087e-05
7.59928e-09
4.40852e-05
7.56837e-09
4.45621e-05
7.54301e-09
4.50389e-05
7.52761e-09
4.55155e-05
7.51271e-09
4.59914e-05
7.50749e-09
4.64663e-05
7.50464e-09
4.694e-05
7.50597e-09
4.74119e-05
7.51575e-09
4.78817e-05
7.52851e-09
4.83491e-05
7.54346e-09
4.88134e-05
7.56254e-09
4.92743e-05
7.58247e-09
4.97312e-05
7.59946e-09
5.01837e-05
7.62134e-09
5.06311e-05
7.6405e-09
5.10728e-05
7.65676e-09
5.15082e-05
7.66871e-09
5.19366e-05
7.67021e-09
5.23574e-05
7.66901e-09
5.27697e-05
7.65628e-09
5.31726e-05
7.62914e-09
5.35655e-05
7.58986e-09
5.39472e-05
7.53077e-09
5.43169e-05
7.44842e-09
5.37315e-05
7.34495e-09
5.22312e-05
7.21784e-09
5.0777e-05
7.06518e-09
4.93673e-05
6.88326e-09
4.80003e-05
6.67768e-09
4.66746e-05
6.44178e-09
4.53887e-05
6.17297e-09
4.41412e-05
5.88104e-09
4.29309e-05
5.55176e-09
4.17563e-05
5.19752e-09
4.06163e-05
4.81349e-09
3.95097e-05
4.40053e-09
3.84353e-05
3.96153e-09
3.73922e-05
3.49775e-09
3.63792e-05
3.01056e-09
3.53953e-05
2.50005e-09
3.44396e-05
1.96745e-09
3.35112e-05
1.41959e-09
3.26091e-05
8.49441e-10
3.17324e-05
2.63345e-10
3.08804e-05
-3.34577e-10
3.00523e-05
-9.5277e-10
2.92472e-05
-1.581e-09
2.84645e-05
-2.22503e-09
2.77034e-05
-2.88427e-09
2.69632e-05
-3.55353e-09
2.62433e-05
-4.23722e-09
2.55431e-05
-4.93494e-09
2.4862e-05
-5.64648e-09
2.41993e-05
-6.37075e-09
2.35545e-05
-7.10891e-09
2.29272e-05
-7.86185e-09
2.23167e-05
-8.63419e-09
2.17226e-05
-9.42018e-09
2.11445e-05
-1.02282e-08
2.05818e-05
-1.10569e-08
2.00342e-05
-1.1907e-08
1.95013e-05
-1.27847e-08
1.89826e-05
-1.36918e-08
1.84778e-05
-1.46302e-08
1.79865e-05
-1.55989e-08
1.75084e-05
-1.66026e-08
1.70432e-05
-1.76425e-08
1.65905e-05
-1.87171e-08
1.61501e-05
-1.98261e-08
1.57216e-05
-2.09648e-08
1.53047e-05
-2.2133e-08
1.48992e-05
-2.33305e-08
1.45049e-05
-2.45493e-08
1.41213e-05
-2.57886e-08
1.37483e-05
-2.70396e-08
1.33856e-05
-2.83003e-08
1.3033e-05
-2.95647e-08
1.26901e-05
-3.08281e-08
1.23568e-05
-3.2084e-08
1.20328e-05
-3.3326e-08
1.17178e-05
-3.455e-08
1.14116e-05
-3.5749e-08
1.1114e-05
-3.69146e-08
1.08247e-05
-3.80436e-08
1.05435e-05
-3.91308e-08
1.02701e-05
-4.01685e-08
1.00045e-05
-4.11558e-08
9.74618e-06
9.49511e-06
7.89573e-09
4.21834e-05
7.82892e-09
4.26575e-05
7.7724e-09
4.31327e-05
7.7214e-09
4.36087e-05
7.68044e-09
4.40853e-05
7.6473e-09
4.45621e-05
7.61895e-09
4.50389e-05
7.5935e-09
4.55155e-05
7.58169e-09
4.59914e-05
7.56936e-09
4.64663e-05
7.56759e-09
4.694e-05
7.57105e-09
4.74119e-05
7.57475e-09
4.78817e-05
7.5844e-09
4.8349e-05
7.59492e-09
4.88134e-05
7.60739e-09
4.92743e-05
7.62274e-09
4.97312e-05
7.64202e-09
5.01836e-05
7.65935e-09
5.0631e-05
7.67085e-09
5.10728e-05
7.68333e-09
5.15082e-05
7.68864e-09
5.19366e-05
7.69226e-09
5.23574e-05
7.68783e-09
5.27697e-05
7.66627e-09
5.31727e-05
7.63841e-09
5.35655e-05
7.59258e-09
5.39473e-05
7.52656e-09
5.4317e-05
7.43911e-09
5.37316e-05
7.33024e-09
5.22313e-05
7.19758e-09
5.07772e-05
7.03868e-09
4.93674e-05
6.85346e-09
4.80005e-05
6.63863e-09
4.66748e-05
6.3961e-09
4.5389e-05
6.1265e-09
4.41415e-05
5.82251e-09
4.29312e-05
5.49209e-09
4.17566e-05
5.13212e-09
4.06166e-05
4.74316e-09
3.95101e-05
4.32904e-09
3.84358e-05
3.88588e-09
3.73926e-05
3.41994e-09
3.63797e-05
2.92949e-09
3.53958e-05
2.42078e-09
3.44401e-05
1.88895e-09
3.35117e-05
1.33864e-09
3.26096e-05
7.74673e-10
3.1733e-05
1.96426e-10
3.0881e-05
-3.99579e-10
3.00529e-05
-1.00768e-09
2.92478e-05
-1.62723e-09
2.84651e-05
-2.25913e-09
2.7704e-05
-2.90261e-09
2.69638e-05
-3.55776e-09
2.6244e-05
-4.22669e-09
2.55438e-05
-4.9024e-09
2.48626e-05
-5.59062e-09
2.42e-05
-6.29272e-09
2.35552e-05
-7.00513e-09
2.29279e-05
-7.7339e-09
2.23175e-05
-8.47323e-09
2.17234e-05
-9.23252e-09
2.11453e-05
-1.0008e-08
2.05826e-05
-1.0803e-08
2.0035e-05
-1.16222e-08
1.95021e-05
-1.24677e-08
1.89834e-05
-1.33377e-08
1.84787e-05
-1.42394e-08
1.79874e-05
-1.51717e-08
1.75093e-05
-1.6138e-08
1.70442e-05
-1.71386e-08
1.65915e-05
-1.81728e-08
1.61511e-05
-1.92381e-08
1.57226e-05
-2.03362e-08
1.53058e-05
-2.14638e-08
1.49004e-05
-2.26154e-08
1.4506e-05
-2.37867e-08
1.41225e-05
-2.4978e-08
1.37495e-05
-2.61843e-08
1.33868e-05
-2.73955e-08
1.30342e-05
-2.86131e-08
1.26913e-05
-2.98274e-08
1.2358e-05
-3.10339e-08
1.2034e-05
-3.22264e-08
1.1719e-05
-3.34021e-08
1.14128e-05
-3.45503e-08
1.11151e-05
-3.56728e-08
1.08258e-05
-3.6757e-08
1.05446e-05
-3.78017e-08
1.02712e-05
-3.88003e-08
1.00055e-05
-3.97489e-08
9.74713e-06
9.496e-06
7.97902e-09
4.21835e-05
7.91044e-09
4.26576e-05
7.85424e-09
4.31328e-05
7.80025e-09
4.36088e-05
7.75353e-09
4.40853e-05
7.71591e-09
4.45621e-05
7.68481e-09
4.5039e-05
7.66195e-09
4.55155e-05
7.64256e-09
4.59914e-05
7.63016e-09
4.64663e-05
7.62205e-09
4.694e-05
7.61738e-09
4.74119e-05
7.61969e-09
4.78817e-05
7.62379e-09
4.8349e-05
7.63509e-09
4.88134e-05
7.64749e-09
4.92743e-05
7.66034e-09
4.97312e-05
7.67181e-09
5.01836e-05
7.68249e-09
5.0631e-05
7.69667e-09
5.10727e-05
7.70201e-09
5.15082e-05
7.70856e-09
5.19366e-05
7.70349e-09
5.23574e-05
7.69216e-09
5.27697e-05
7.67188e-09
5.31727e-05
7.63631e-09
5.35655e-05
7.58609e-09
5.39473e-05
7.5108e-09
5.4317e-05
7.41981e-09
5.37317e-05
7.30598e-09
5.22314e-05
7.16489e-09
5.07773e-05
7.00173e-09
4.93676e-05
6.81234e-09
4.80007e-05
6.59295e-09
4.6675e-05
6.3425e-09
4.53892e-05
6.06669e-09
4.41418e-05
5.76098e-09
4.29315e-05
5.42547e-09
4.17569e-05
5.05976e-09
4.0617e-05
4.66944e-09
3.95105e-05
4.24832e-09
3.84362e-05
3.80454e-09
3.73931e-05
3.33583e-09
3.63801e-05
2.84844e-09
3.53963e-05
2.33726e-09
3.44407e-05
1.81048e-09
3.35122e-05
1.26605e-09
3.26101e-05
7.07167e-10
3.17335e-05
1.31831e-10
3.08816e-05
-4.54027e-10
3.00535e-05
-1.04955e-09
2.92484e-05
-1.66032e-09
2.84657e-05
-2.27789e-09
2.77046e-05
-2.90492e-09
2.69645e-05
-3.54255e-09
2.62446e-05
-4.18778e-09
2.55444e-05
-4.84331e-09
2.48633e-05
-5.50791e-09
2.42007e-05
-6.18198e-09
2.35559e-05
-6.86896e-09
2.29286e-05
-7.56269e-09
2.23181e-05
-8.274e-09
2.17241e-05
-8.99783e-09
2.1146e-05
-9.73857e-09
2.05834e-05
-1.04997e-08
2.00358e-05
-1.12834e-08
1.95029e-05
-1.2088e-08
1.89842e-05
-1.29212e-08
1.84795e-05
-1.37833e-08
1.79883e-05
-1.46786e-08
1.75102e-05
-1.5603e-08
1.70451e-05
-1.65602e-08
1.65925e-05
-1.75489e-08
1.61521e-05
-1.85714e-08
1.57237e-05
-1.96231e-08
1.53069e-05
-2.07012e-08
1.49014e-05
-2.18048e-08
1.45071e-05
-2.29313e-08
1.41236e-05
-2.40726e-08
1.37507e-05
-2.52251e-08
1.3388e-05
-2.63896e-08
1.30354e-05
-2.75536e-08
1.26925e-05
-2.87175e-08
1.23592e-05
-2.98732e-08
1.20351e-05
-3.10174e-08
1.17201e-05
-3.21431e-08
1.14139e-05
-3.32468e-08
1.11162e-05
-3.43207e-08
1.08269e-05
-3.53617e-08
1.05456e-05
-3.63658e-08
1.02722e-05
-3.73279e-08
1.00064e-05
-3.82447e-08
9.74805e-06
9.49687e-06
8.05416e-09
4.21835e-05
7.98455e-09
4.26577e-05
7.92377e-09
4.31328e-05
7.86917e-09
4.36088e-05
7.82006e-09
4.40854e-05
7.77882e-09
4.45622e-05
7.74463e-09
4.5039e-05
7.71665e-09
4.55155e-05
7.69462e-09
4.59914e-05
7.67974e-09
4.64664e-05
7.66892e-09
4.694e-05
7.66356e-09
4.74119e-05
7.66256e-09
4.78817e-05
7.66424e-09
4.8349e-05
7.66772e-09
4.88134e-05
7.67609e-09
4.92743e-05
7.68539e-09
4.97312e-05
7.69588e-09
5.01836e-05
7.70372e-09
5.0631e-05
7.71088e-09
5.10727e-05
7.71548e-09
5.15082e-05
7.71438e-09
5.19366e-05
7.70752e-09
5.23574e-05
7.68947e-09
5.27697e-05
7.66473e-09
5.31727e-05
7.62197e-09
5.35656e-05
7.56492e-09
5.39474e-05
7.49249e-09
5.43171e-05
7.39257e-09
5.37318e-05
7.27324e-09
5.22316e-05
7.12785e-09
5.07775e-05
6.95608e-09
4.93678e-05
6.75725e-09
4.80009e-05
6.53477e-09
4.66753e-05
6.28335e-09
4.53895e-05
6.00005e-09
4.41421e-05
5.68752e-09
4.29318e-05
5.34866e-09
4.17573e-05
4.9802e-09
4.06174e-05
4.58728e-09
3.95108e-05
4.16579e-09
3.84366e-05
3.71961e-09
3.73935e-05
3.2536e-09
3.63806e-05
2.76565e-09
3.53968e-05
2.25898e-09
3.44412e-05
1.73486e-09
3.35128e-05
1.19496e-09
3.26107e-05
6.42078e-10
3.17341e-05
7.73609e-11
3.08821e-05
-4.97832e-10
3.0054e-05
-1.08278e-09
2.9249e-05
-1.67533e-09
2.84663e-05
-2.27795e-09
2.77052e-05
-2.88567e-09
2.69651e-05
-3.50128e-09
2.62452e-05
-4.12303e-09
2.55451e-05
-4.75426e-09
2.48639e-05
-5.39211e-09
2.42013e-05
-6.03581e-09
2.35566e-05
-6.68922e-09
2.29292e-05
-7.35457e-09
2.23188e-05
-8.02928e-09
2.17248e-05
-8.71652e-09
2.11467e-05
-9.421e-09
2.05841e-05
-1.01436e-08
2.00365e-05
-1.08829e-08
1.95036e-05
-1.16494e-08
1.8985e-05
-1.24411e-08
1.84803e-05
-1.32592e-08
1.79891e-05
-1.41075e-08
1.75111e-05
-1.49884e-08
1.7046e-05
-1.58985e-08
1.65934e-05
-1.68423e-08
1.6153e-05
-1.7816e-08
1.57246e-05
-1.88167e-08
1.53079e-05
-1.98478e-08
1.49025e-05
-2.08976e-08
1.45082e-05
-2.19707e-08
1.41247e-05
-2.30595e-08
1.37517e-05
-2.41629e-08
1.33891e-05
-2.52716e-08
1.30365e-05
-2.63848e-08
1.26936e-05
-2.74952e-08
1.23603e-05
-2.85998e-08
1.20362e-05
-2.96944e-08
1.17212e-05
-3.07703e-08
1.1415e-05
-3.18279e-08
1.11173e-05
-3.28576e-08
1.08279e-05
-3.3859e-08
1.05466e-05
-3.48242e-08
1.02732e-05
-3.57532e-08
1.00073e-05
-3.66386e-08
9.74893e-06
9.49771e-06
8.12483e-09
4.21836e-05
8.05303e-09
4.26577e-05
7.98336e-09
4.31329e-05
7.9274e-09
4.36089e-05
7.87734e-09
4.40854e-05
7.83233e-09
4.45622e-05
7.79462e-09
4.5039e-05
7.76536e-09
4.55156e-05
7.74109e-09
4.59914e-05
7.72139e-09
4.64664e-05
7.70457e-09
4.694e-05
7.69878e-09
4.74119e-05
7.69322e-09
4.78817e-05
7.69203e-09
4.8349e-05
7.6947e-09
4.88134e-05
7.69781e-09
4.92742e-05
7.70194e-09
4.97312e-05
7.70916e-09
5.01836e-05
7.71517e-09
5.0631e-05
7.7159e-09
5.10727e-05
7.71658e-09
5.15082e-05
7.70896e-09
5.19366e-05
7.69775e-09
5.23574e-05
7.67783e-09
5.27697e-05
7.64524e-09
5.31727e-05
7.60233e-09
5.35656e-05
7.53838e-09
5.39474e-05
7.45494e-09
5.43172e-05
7.35345e-09
5.37319e-05
7.22346e-09
5.22317e-05
7.07549e-09
5.07776e-05
6.899e-09
4.93679e-05
6.69916e-09
4.80011e-05
6.46838e-09
4.66755e-05
6.21011e-09
4.53897e-05
5.92301e-09
4.41424e-05
5.608e-09
4.29321e-05
5.26446e-09
4.17576e-05
4.89721e-09
4.06177e-05
4.49834e-09
3.95112e-05
4.07809e-09
3.8437e-05
3.63466e-09
3.7394e-05
3.16869e-09
3.63811e-05
2.68145e-09
3.53973e-05
2.1812e-09
3.44417e-05
1.66096e-09
3.35133e-05
1.13036e-09
3.26112e-05
5.87313e-10
3.17346e-05
3.48781e-11
3.08827e-05
-5.27641e-10
3.00546e-05
-1.09805e-09
2.92496e-05
-1.67376e-09
2.84669e-05
-2.25587e-09
2.77058e-05
-2.84441e-09
2.69657e-05
-3.43588e-09
2.62458e-05
-4.03331e-09
2.55457e-05
-4.63413e-09
2.48645e-05
-5.23898e-09
2.42019e-05
-5.85292e-09
2.35572e-05
-6.47087e-09
2.29299e-05
-7.09761e-09
2.23194e-05
-7.73445e-09
2.17254e-05
-8.38364e-09
2.11473e-05
-9.04607e-09
2.05847e-05
-9.72413e-09
2.00372e-05
-1.04245e-08
1.95043e-05
-1.11457e-08
1.89857e-05
-1.18904e-08
1.8481e-05
-1.26631e-08
1.79899e-05
-1.34643e-08
1.75119e-05
-1.42937e-08
1.70468e-05
-1.51557e-08
1.65942e-05
-1.60473e-08
1.61539e-05
-1.69663e-08
1.57255e-05
-1.79172e-08
1.53088e-05
-1.88911e-08
1.49035e-05
-1.98903e-08
1.45092e-05
-2.09086e-08
1.41257e-05
-2.19423e-08
1.37528e-05
-2.29884e-08
1.33901e-05
-2.40431e-08
1.30375e-05
-2.51021e-08
1.26947e-05
-2.61606e-08
1.23613e-05
-2.72146e-08
1.20373e-05
-2.8256e-08
1.17222e-05
-2.92855e-08
1.1416e-05
-3.02951e-08
1.11183e-05
-3.12824e-08
1.08289e-05
-3.22444e-08
1.05476e-05
-3.31756e-08
1.02741e-05
-3.40724e-08
1.00082e-05
-3.49322e-08
9.74979e-06
9.49853e-06
8.17959e-09
4.21837e-05
8.1067e-09
4.26578e-05
8.04027e-09
4.3133e-05
7.97758e-09
4.3609e-05
7.92499e-09
4.40855e-05
7.87714e-09
4.45623e-05
7.83733e-09
4.50391e-05
7.8051e-09
4.55156e-05
7.77652e-09
4.59915e-05
7.75289e-09
4.64664e-05
7.73748e-09
4.694e-05
7.72417e-09
4.74119e-05
7.71611e-09
4.78817e-05
7.71127e-09
4.8349e-05
7.70819e-09
4.88134e-05
7.70942e-09
4.92742e-05
7.71005e-09
4.97312e-05
7.70904e-09
5.01836e-05
7.71151e-09
5.0631e-05
7.70896e-09
5.10727e-05
7.70702e-09
5.15082e-05
7.6961e-09
5.19366e-05
7.67945e-09
5.23574e-05
7.65501e-09
5.27697e-05
7.61764e-09
5.31728e-05
7.56475e-09
5.35657e-05
7.4997e-09
5.39475e-05
7.41091e-09
5.43173e-05
7.30019e-09
5.3732e-05
7.17232e-09
5.22318e-05
7.01438e-09
5.07778e-05
6.83461e-09
4.93681e-05
6.62499e-09
4.80013e-05
6.39062e-09
4.66757e-05
6.12921e-09
4.539e-05
5.83801e-09
4.41427e-05
5.52259e-09
4.29324e-05
5.17713e-09
4.1758e-05
4.80307e-09
4.06181e-05
4.40741e-09
3.95116e-05
3.98761e-09
3.84374e-05
3.54413e-09
3.73944e-05
3.08144e-09
3.63815e-05
2.60099e-09
3.53978e-05
2.10383e-09
3.44422e-05
1.59472e-09
3.35138e-05
1.07167e-09
3.26117e-05
5.39261e-10
3.17352e-05
3.36647e-13
3.08832e-05
-5.46052e-10
3.00551e-05
-1.0987e-09
2.92501e-05
-1.65566e-09
2.84674e-05
-2.21384e-09
2.77064e-05
-2.77689e-09
2.69662e-05
-3.34059e-09
2.62464e-05
-3.90831e-09
2.55462e-05
-4.47871e-09
2.48651e-05
-5.05121e-09
2.42025e-05
-5.62669e-09
2.35578e-05
-6.20656e-09
2.29304e-05
-6.7937e-09
2.232e-05
-7.38891e-09
2.1726e-05
-7.99429e-09
2.11479e-05
-8.61236e-09
2.05853e-05
-9.24586e-09
2.00378e-05
-9.89767e-09
1.9505e-05
-1.05692e-08
1.89864e-05
-1.12656e-08
1.84817e-05
-1.19864e-08
1.79906e-05
-1.27348e-08
1.75126e-05
-1.35135e-08
1.70476e-05
-1.43211e-08
1.6595e-05
-1.51569e-08
1.61548e-05
-1.60247e-08
1.57264e-05
-1.69153e-08
1.53097e-05
-1.78332e-08
1.49044e-05
-1.8775e-08
1.45101e-05
-1.97345e-08
1.41267e-05
-2.07126e-08
1.37538e-05
-2.17029e-08
1.33911e-05
-2.27004e-08
1.30385e-05
-2.37039e-08
1.26957e-05
-2.47081e-08
1.23624e-05
-2.57075e-08
1.20383e-05
-2.67019e-08
1.17232e-05
-2.76829e-08
1.1417e-05
-2.86482e-08
1.11192e-05
-2.95951e-08
1.08298e-05
-3.05197e-08
1.05485e-05
-3.14174e-08
1.0275e-05
-3.2288e-08
1.00091e-05
-3.31264e-08
9.75063e-06
9.49934e-06
8.22758e-09
4.21838e-05
8.14666e-09
4.26579e-05
8.07848e-09
4.3133e-05
8.01765e-09
4.3609e-05
7.95845e-09
4.40855e-05
7.9117e-09
4.45623e-05
7.869e-09
4.50391e-05
7.82916e-09
4.55156e-05
7.80048e-09
4.59915e-05
7.77421e-09
4.64664e-05
7.75562e-09
4.694e-05
7.73843e-09
4.74119e-05
7.72775e-09
4.78818e-05
7.71928e-09
4.8349e-05
7.71117e-09
4.88134e-05
7.7078e-09
4.92742e-05
7.70476e-09
4.97312e-05
7.70546e-09
5.01836e-05
7.69943e-09
5.0631e-05
7.69629e-09
5.10727e-05
7.68444e-09
5.15082e-05
7.67104e-09
5.19367e-05
7.65029e-09
5.23574e-05
7.61686e-09
5.27698e-05
7.57606e-09
5.31728e-05
7.51981e-09
5.35657e-05
7.4468e-09
5.39476e-05
7.35583e-09
5.43174e-05
7.24079e-09
5.37321e-05
7.10155e-09
5.2232e-05
6.94197e-09
5.07779e-05
6.7554e-09
4.93683e-05
6.54462e-09
4.80015e-05
6.30477e-09
4.6676e-05
6.04025e-09
4.53902e-05
5.74663e-09
4.41429e-05
5.42509e-09
4.29327e-05
5.07798e-09
4.17583e-05
4.70873e-09
4.06185e-05
4.31031e-09
3.9512e-05
3.89186e-09
3.84379e-05
3.454e-09
3.73949e-05
2.99453e-09
3.6382e-05
2.52107e-09
3.53982e-05
2.03159e-09
3.44426e-05
1.53068e-09
3.35143e-05
1.02129e-09
3.26123e-05
5.03295e-10
3.17357e-05
-2.27894e-11
3.08838e-05
-5.50957e-10
3.00557e-05
-1.08054e-09
2.92506e-05
-1.61433e-09
2.8468e-05
-2.14855e-09
2.77069e-05
-2.68202e-09
2.69668e-05
-3.21907e-09
2.62469e-05
-3.7514e-09
2.55468e-05
-4.28505e-09
2.48656e-05
-4.82003e-09
2.4203e-05
-5.35585e-09
2.35583e-05
-5.89712e-09
2.2931e-05
-6.44108e-09
2.23206e-05
-6.98907e-09
2.17266e-05
-7.54719e-09
2.11485e-05
-8.11606e-09
2.05859e-05
-8.69984e-09
2.00384e-05
-9.2999e-09
1.95056e-05
-9.92066e-09
1.8987e-05
-1.05623e-08
1.84824e-05
-1.12308e-08
1.79912e-05
-1.19234e-08
1.75133e-05
-1.26446e-08
1.70483e-05
-1.33934e-08
1.65958e-05
-1.41715e-08
1.61555e-05
-1.49777e-08
1.57272e-05
-1.58127e-08
1.53105e-05
-1.66697e-08
1.49052e-05
-1.75491e-08
1.4511e-05
-1.845e-08
1.41276e-05
-1.93682e-08
1.37547e-05
-2.0299e-08
1.33921e-05
-2.12397e-08
1.30395e-05
-2.21864e-08
1.26966e-05
-2.31364e-08
1.23633e-05
-2.40835e-08
1.20392e-05
-2.50264e-08
1.17242e-05
-2.59617e-08
1.14179e-05
-2.6885e-08
1.11202e-05
-2.77931e-08
1.08307e-05
-2.86824e-08
1.05494e-05
-2.95532e-08
1.02759e-05
-3.03984e-08
1.001e-05
-3.12195e-08
9.75145e-06
9.50013e-06
8.25834e-09
4.21839e-05
8.18151e-09
4.2658e-05
8.10866e-09
4.31331e-05
8.04321e-09
4.36091e-05
7.98692e-09
4.40856e-05
7.93093e-09
4.45624e-05
7.88831e-09
4.50392e-05
7.848e-09
4.55157e-05
7.81075e-09
4.59915e-05
7.78387e-09
4.64665e-05
7.76125e-09
4.69401e-05
7.74064e-09
4.7412e-05
7.72493e-09
4.78818e-05
7.71342e-09
4.83491e-05
7.70674e-09
4.88134e-05
7.69537e-09
4.92743e-05
7.69014e-09
4.97312e-05
7.68171e-09
5.01836e-05
7.6755e-09
5.0631e-05
7.66436e-09
5.10728e-05
7.65135e-09
5.15082e-05
7.63224e-09
5.19367e-05
7.604e-09
5.23575e-05
7.57048e-09
5.27698e-05
7.52278e-09
5.31729e-05
7.46228e-09
5.35658e-05
7.38562e-09
5.39476e-05
7.2855e-09
5.43175e-05
7.16557e-09
5.37322e-05
7.02286e-09
5.22321e-05
6.85591e-09
5.07781e-05
6.66662e-09
4.93685e-05
6.4486e-09
4.80017e-05
6.20846e-09
4.66762e-05
5.93826e-09
4.53905e-05
5.64378e-09
4.41432e-05
5.32309e-09
4.29331e-05
4.97583e-09
4.17587e-05
4.6031e-09
4.06188e-05
4.21005e-09
3.95124e-05
3.79366e-09
3.84383e-05
3.35958e-09
3.73953e-05
2.90863e-09
3.63824e-05
2.44056e-09
3.53987e-05
1.96296e-09
3.44431e-05
1.47534e-09
3.35148e-05
9.78951e-10
3.26127e-05
4.77873e-10
3.17362e-05
-2.62414e-11
3.08843e-05
-5.34603e-10
3.00562e-05
-1.04338e-09
2.92512e-05
-1.55071e-09