/*--------------------------------*- C++ -*----------------------------------*\
  =========                 |
  \\      /  F ield         | OpenFOAM: The Open Source CFD Toolbox
   \\    /   O peration     | Website:  https://openfoam.org
    \\  /    A nd           | Version:  10
     \\/     M anipulation  |
\*---------------------------------------------------------------------------*/
FoamFile
{
    format      ascii;
    class       volScalarField;
    location    "37000";
    object      Co;
}
// * * * * * * * * * * * * * * * * * * * * * * * * * * * * * * * * * * * * * //

dimensions      [0 0 0 0 0 0 0];

internalField   nonuniform List<scalar> 
17922
(
3545.22
3532.88
3520.51
3508.09
3495.62
3483.09
3470.51
3457.86
3445.13
3432.32
3419.42
3406.43
3393.33
3380.12
3366.79
3353.32
3339.72
3325.96
3312.03
3297.93
3283.64
3269.14
3254.42
3239.47
3224.26
3208.77
3192.99
3176.88
3160.59
3144.37
3128.34
3112.49
3096.82
3081.3
3065.93
3050.7
3035.59
3020.6
3005.73
2990.95
2976.27
2961.68
2947.17
2932.73
2918.35
2904.04
2889.78
2875.57
2861.39
2847.26
2833.14
2819.05
2804.98
2790.92
2776.86
2762.8
2748.73
2734.66
2720.57
2706.47
2692.34
2678.2
2664.03
2649.92
2635.89
2621.88
2607.86
2593.84
2579.83
2565.84
2551.86
2537.91
2523.99
2510.11
2496.27
2482.48
2468.75
2455.08
2441.49
2427.97
2414.53
2401.18
2387.92
2374.76
2361.69
2348.72
2335.85
2323.08
2310.41
2297.84
2285.37
2272.99
2260.71
3443.38
3431.4
3419.37
3407.31
3395.2
3383.03
3370.81
3358.52
3346.16
3333.71
3321.19
3308.57
3295.84
3283.01
3270.06
3256.98
3243.77
3230.4
3216.88
3203.18
3189.3
3175.22
3160.92
3146.4
3131.62
3116.58
3101.25
3085.61
3069.78
3054.03
3038.46
3023.07
3007.85
2992.78
2977.85
2963.06
2948.39
2933.83
2919.39
2905.04
2890.78
2876.61
2862.52
2848.5
2834.54
2820.64
2806.79
2792.99
2779.23
2765.5
2751.8
2738.12
2724.45
2710.79
2697.14
2683.49
2669.84
2656.17
2642.5
2628.8
2615.09
2601.36
2587.61
2573.88
2560.22
2546.61
2533
2519.39
2505.79
2492.2
2478.63
2465.08
2451.56
2438.08
2424.64
2411.25
2397.92
2384.64
2371.44
2358.3
2345.25
2332.28
2319.39
2306.6
2293.89
2281.28
2268.77
2256.35
2244.03
2231.8
2219.67
2207.62
2195.67
3344.47
3332.83
3321.15
3309.43
3297.66
3285.85
3273.97
3262.04
3250.03
3237.94
3225.77
3213.51
3201.16
3188.69
3176.11
3163.41
3150.57
3137.59
3124.45
3111.15
3097.67
3083.99
3070.1
3056
3041.65
3027.04
3012.15
2996.96
2981.58
2966.28
2951.17
2936.22
2921.44
2906.8
2892.3
2877.94
2863.69
2849.56
2835.53
2821.59
2807.75
2793.99
2780.3
2766.69
2753.13
2739.64
2726.19
2712.79
2699.42
2686.09
2672.79
2659.5
2646.23
2632.97
2619.72
2606.47
2593.21
2579.94
2566.66
2553.37
2540.06
2526.74
2513.39
2500.02
2486.72
2473.5
2460.28
2447.07
2433.86
2420.66
2407.48
2394.33
2381.2
2368.11
2355.05
2342.05
2329.1
2316.2
2303.38
2290.62
2277.93
2265.33
2252.8
2240.37
2228.02
2215.76
2203.59
2191.51
2179.53
2167.63
2155.83
2144.11
2132.47
3248.4
3237.09
3225.74
3214.36
3202.93
3191.45
3179.92
3168.32
3156.66
3144.92
3133.1
3121.19
3109.19
3097.08
3084.86
3072.52
3060.06
3047.45
3034.69
3021.76
3008.67
2995.38
2981.9
2968.19
2954.26
2940.07
2925.6
2910.85
2895.92
2881.06
2866.38
2851.86
2837.51
2823.29
2809.21
2795.26
2781.43
2767.7
2754.08
2740.54
2727.1
2713.74
2700.45
2687.23
2674.06
2660.96
2647.9
2634.89
2621.91
2608.96
2596.04
2583.15
2570.26
2557.39
2544.52
2531.65
2518.78
2505.9
2493.01
2480.1
2467.18
2454.25
2441.29
2428.32
2415.36
2402.48
2389.64
2376.81
2363.98
2351.17
2338.37
2325.59
2312.84
2300.12
2287.45
2274.81
2262.23
2249.71
2237.25
2224.85
2212.52
2200.27
2188.1
2176.01
2164.01
2152.09
2140.25
2128.51
2116.85
2105.28
2093.79
2082.39
2071.07
3155.08
3144.1
3133.08
3122.02
3110.92
3099.77
3088.57
3077.3
3065.97
3054.57
3043.09
3031.52
3019.86
3008.1
2996.24
2984.25
2972.14
2959.89
2947.5
2934.95
2922.23
2909.32
2896.22
2882.91
2869.38
2855.59
2841.55
2827.22
2812.72
2798.28
2784.03
2769.93
2755.98
2742.18
2728.51
2714.96
2701.52
2688.19
2674.96
2661.82
2648.77
2635.79
2622.89
2610.05
2597.27
2584.54
2571.86
2559.22
2546.62
2534.05
2521.5
2508.98
2496.47
2483.97
2471.47
2458.98
2446.48
2433.98
2421.46
2408.94
2396.4
2383.84
2371.27
2358.67
2346.06
2333.51
2321.02
2308.56
2296.1
2283.65
2271.22
2258.81
2246.43
2234.08
2221.76
2209.49
2197.27
2185.1
2172.99
2160.95
2148.97
2137.07
2125.24
2113.48
2101.81
2090.22
2078.71
2067.29
2055.95
2044.69
2033.52
2022.42
2011.41
3064.45
3053.78
3043.08
3032.34
3021.56
3010.72
2999.84
2988.9
2977.89
2966.82
2955.67
2944.43
2933.1
2921.68
2910.15
2898.51
2886.75
2874.85
2862.81
2850.62
2838.27
2825.73
2813.01
2800.08
2786.93
2773.55
2759.91
2745.99
2731.9
2717.89
2704.04
2690.35
2676.81
2663.4
2650.12
2636.96
2623.92
2610.97
2598.12
2585.36
2572.68
2560.08
2547.55
2535.08
2522.67
2510.31
2498
2485.73
2473.49
2461.29
2449.11
2436.94
2424.8
2412.66
2400.53
2388.4
2376.26
2364.12
2351.97
2339.81
2327.64
2315.45
2303.25
2291.03
2278.79
2266.54
2254.36
2242.26
2230.16
2218.07
2205.99
2193.94
2181.91
2169.91
2157.95
2146.03
2134.15
2122.33
2110.57
2098.86
2087.22
2075.65
2064.15
2052.72
2041.37
2030.1
2018.91
2007.8
1996.77
1985.82
1974.95
1964.16
1953.44
2976.43
2966.06
2955.66
2945.23
2934.76
2924.23
2913.66
2903.03
2892.34
2881.58
2870.75
2859.84
2848.84
2837.74
2826.55
2815.24
2803.81
2792.25
2780.56
2768.72
2756.72
2744.55
2732.19
2719.63
2706.86
2693.86
2680.61
2667.09
2653.41
2639.8
2626.35
2613.05
2599.9
2586.88
2573.99
2561.21
2548.54
2535.97
2523.49
2511.1
2498.79
2486.55
2474.38
2462.27
2450.22
2438.22
2426.26
2414.35
2402.47
2390.61
2378.78
2366.97
2355.18
2343.39
2331.62
2319.84
2308.06
2296.27
2284.48
2272.67
2260.86
2249.03
2237.18
2225.32
2213.44
2201.55
2189.67
2177.85
2166.09
2154.35
2142.62
2130.91
2119.23
2107.57
2095.95
2084.37
2072.83
2061.34
2049.91
2038.54
2027.22
2015.97
2004.79
1993.69
1982.65
1971.69
1960.81
1950.01
1939.28
1928.63
1918.05
1907.55
1897.12
2890.93
2880.86
2870.76
2860.62
2850.45
2840.23
2829.96
2819.64
2809.25
2798.8
2788.28
2777.68
2766.99
2756.21
2745.34
2734.35
2723.25
2712.03
2700.67
2689.17
2677.51
2665.69
2653.69
2641.49
2629.09
2616.46
2603.59
2590.46
2577.18
2563.95
2550.89
2537.98
2525.21
2512.56
2500.04
2487.63
2475.32
2463.11
2451
2438.96
2427.01
2415.13
2403.31
2391.55
2379.85
2368.19
2356.58
2345.01
2333.48
2321.97
2310.48
2299.01
2287.56
2276.12
2264.68
2253.25
2241.81
2230.37
2218.92
2207.46
2195.99
2184.51
2173.01
2161.5
2149.97
2138.44
2126.89
2115.34
2103.86
2092.45
2081.05
2069.68
2058.33
2047
2035.71
2024.46
2013.25
2002.09
1990.98
1979.92
1968.92
1957.99
1947.12
1936.32
1925.59
1914.94
1904.35
1893.85
1883.41
1873.05
1862.77
1852.55
1842.41
2807.88
2798.1
2788.29
2778.45
2768.56
2758.64
2748.66
2738.63
2728.55
2718.39
2708.17
2697.88
2687.5
2677.03
2666.46
2655.79
2645.01
2634.11
2623.08
2611.91
2600.59
2589.1
2577.44
2565.6
2553.55
2541.28
2528.78
2516.03
2503.13
2490.29
2477.6
2465.06
2452.66
2440.38
2428.21
2416.16
2404.21
2392.36
2380.59
2368.9
2357.29
2345.75
2334.28
2322.86
2311.5
2300.18
2288.91
2277.67
2266.47
2255.29
2244.14
2233
2221.88
2210.77
2199.67
2188.57
2177.46
2166.36
2155.24
2144.12
2132.98
2121.84
2110.68
2099.51
2088.32
2077.13
2065.92
2054.71
2043.49
2032.32
2021.24
2010.19
1999.16
1988.16
1977.19
1966.26
1955.36
1944.51
1933.71
1922.97
1912.28
1901.65
1891.09
1880.59
1870.15
1859.79
1849.5
1839.28
1829.13
1819.06
1809.05
1799.12
1789.26
2727.23
2717.72
2708.19
2698.63
2689.03
2679.39
2669.7
2659.96
2650.16
2640.3
2630.37
2620.37
2610.29
2600.12
2589.85
2579.49
2569.02
2558.43
2547.71
2536.86
2525.87
2514.71
2503.39
2491.88
2480.18
2468.27
2456.13
2443.74
2431.21
2418.74
2406.42
2394.24
2382.19
2370.26
2358.45
2346.75
2335.14
2323.63
2312.2
2300.86
2289.58
2278.37
2267.23
2256.14
2245.11
2234.12
2223.17
2212.26
2201.38
2190.53
2179.7
2168.89
2158.09
2147.31
2136.52
2125.74
2114.96
2104.18
2093.39
2082.59
2071.79
2060.97
2050.14
2039.3
2028.44
2017.58
2006.71
1995.83
1984.94
1974.05
1963.18
1952.4
1941.68
1930.99
1920.33
1909.71
1899.12
1888.58
1878.08
1867.63
1857.24
1846.91
1836.64
1826.43
1816.29
1806.21
1796.2
1786.26
1776.4
1766.6
1756.87
1747.21
1737.62
2648.88
2639.65
2630.4
2621.11
2611.78
2602.42
2593
2583.54
2574.02
2564.44
2554.8
2545.09
2535.29
2525.41
2515.45
2505.38
2495.21
2484.92
2474.52
2463.98
2453.29
2442.46
2431.46
2420.28
2408.92
2397.35
2385.56
2373.53
2361.36
2349.24
2337.28
2325.45
2313.75
2302.17
2290.7
2279.33
2268.06
2256.88
2245.78
2234.76
2223.81
2212.93
2202.11
2191.34
2180.63
2169.95
2159.32
2148.73
2138.17
2127.63
2117.11
2106.62
2096.13
2085.66
2075.19
2064.72
2054.26
2043.79
2033.32
2022.84
2012.35
2001.84
1991.33
1980.81
1970.28
1959.74
1949.19
1938.63
1928.07
1917.51
1906.95
1896.39
1885.87
1875.45
1865.09
1854.76
1844.47
1834.22
1824.02
1813.87
1803.77
1793.72
1783.74
1773.81
1763.95
1754.15
1744.42
1734.76
1725.16
1715.63
1706.17
1696.78
1687.46
2572.79
2563.83
2554.84
2545.81
2536.75
2527.65
2518.51
2509.32
2500.07
2490.77
2481.4
2471.97
2462.45
2452.86
2443.18
2433.4
2423.52
2413.53
2403.42
2393.18
2382.81
2372.28
2361.6
2350.74
2339.7
2328.47
2317.01
2305.33
2293.51
2281.75
2270.12
2258.64
2247.27
2236.02
2224.88
2213.84
2202.9
2192.04
2181.27
2170.56
2159.93
2149.36
2138.86
2128.4
2117.99
2107.63
2097.31
2087.02
2076.76
2066.53
2056.32
2046.13
2035.95
2025.78
2015.62
2005.45
1995.29
1985.13
1974.96
1964.79
1954.61
1944.42
1934.22
1924.01
1913.79
1903.56
1893.32
1883.08
1872.83
1862.59
1852.34
1842.1
1831.87
1821.65
1811.47
1801.38
1791.38
1781.42
1771.5
1761.63
1751.81
1742.04
1732.33
1722.68
1713.1
1703.57
1694.11
1684.71
1675.38
1666.12
1656.93
1647.79
1638.73
2498.89
2490.18
2481.44
2472.68
2463.88
2455.04
2446.16
2437.23
2428.25
2419.21
2410.11
2400.95
2391.71
2382.39
2372.98
2363.49
2353.89
2344.18
2334.36
2324.42
2314.34
2304.12
2293.74
2283.2
2272.48
2261.56
2250.44
2239.09
2227.61
2216.19
2204.9
2193.74
2182.7
2171.78
2160.96
2150.24
2139.61
2129.07
2118.6
2108.21
2097.89
2087.62
2077.42
2067.27
2057.16
2047.1
2037.07
2027.08
2017.12
2007.19
1997.27
1987.38
1977.49
1967.62
1957.75
1947.89
1938.02
1928.16
1918.29
1908.41
1898.53
1888.64
1878.74
1868.83
1858.91
1848.99
1839.06
1829.12
1819.18
1809.24
1799.31
1789.37
1779.45
1769.54
1759.65
1749.77
1739.92
1730.14
1720.47
1710.87
1701.33
1691.83
1682.39
1673.01
1663.69
1654.43
1645.23
1636.09
1627.03
1618.02
1609.08
1600.21
1591.4
2427.1
2418.64
2410.16
2401.65
2393.1
2384.51
2375.89
2367.21
2358.49
2349.71
2340.87
2331.97
2322.99
2313.94
2304.8
2295.58
2286.26
2276.83
2267.29
2257.63
2247.85
2237.92
2227.84
2217.6
2207.18
2196.58
2185.78
2174.76
2163.61
2152.51
2141.55
2130.71
2119.99
2109.38
2098.88
2088.47
2078.14
2067.9
2057.74
2047.65
2037.62
2027.66
2017.75
2007.89
1998.07
1988.3
1978.57
1968.87
1959.2
1949.55
1939.92
1930.31
1920.71
1911.13
1901.55
1891.97
1882.39
1872.82
1863.23
1853.65
1844.06
1834.46
1824.85
1815.23
1805.61
1795.98
1786.35
1776.71
1767.07
1757.43
1747.79
1738.16
1728.53
1718.92
1709.33
1699.75
1690.2
1680.67
1671.17
1661.71
1652.32
1643.05
1633.87
1624.75
1615.69
1606.68
1597.74
1588.86
1580.05
1571.3
1562.61
1553.98
1545.42
2357.38
2349.16
2340.92
2332.65
2324.35
2316.01
2307.63
2299.21
2290.73
2282.2
2273.62
2264.97
2256.25
2247.46
2238.59
2229.62
2220.57
2211.41
2202.15
2192.77
2183.26
2173.62
2163.83
2153.88
2143.76
2133.47
2122.97
2112.27
2101.44
2090.66
2080.02
2069.49
2059.08
2048.78
2038.57
2028.46
2018.44
2008.49
1998.62
1988.82
1979.09
1969.41
1959.79
1950.21
1940.68
1931.19
1921.74
1912.32
1902.93
1893.56
1884.21
1874.88
1865.56
1856.26
1846.95
1837.66
1828.36
1819.06
1809.76
1800.46
1791.15
1781.83
1772.51
1763.18
1753.84
1744.5
1735.15
1725.8
1716.45
1707.1
1697.75
1688.41
1679.08
1669.76
1660.45
1651.17
1641.9
1632.67
1623.46
1614.28
1605.14
1596.04
1586.98
1577.96
1569.06
1560.3
1551.61
1542.98
1534.41
1525.91
1517.46
1509.08
1500.77
2289.66
2281.68
2273.67
2265.64
2257.57
2249.47
2241.33
2233.15
2224.92
2216.64
2208.3
2199.9
2191.43
2182.89
2174.27
2165.56
2156.77
2147.88
2138.88
2129.76
2120.53
2111.16
2101.65
2091.99
2082.17
2072.17
2061.97
2051.58
2041.06
2030.59
2020.25
2010.03
1999.92
1989.91
1980
1970.18
1960.45
1950.79
1941.21
1931.69
1922.23
1912.84
1903.49
1894.19
1884.94
1875.73
1866.55
1857.4
1848.28
1839.18
1830.11
1821.05
1812
1802.96
1793.93
1784.9
1775.88
1766.85
1757.82
1748.79
1739.76
1730.71
1721.67
1712.61
1703.55
1694.49
1685.42
1676.35
1667.28
1658.21
1649.14
1640.08
1631.04
1622
1612.98
1603.98
1594.99
1586.04
1577.11
1568.22
1559.35
1550.53
1541.74
1533
1524.29
1515.64
1507.03
1498.48
1490.08
1481.81
1473.61
1465.47
1457.4
2254.74
2247.04
2239.34
2231.62
2223.89
2216.13
2208.36
2200.55
2192.72
2184.85
2176.94
2168.99
2161
2152.95
2144.85
2136.69
2128.47
2120.17
2111.8
2103.34
2094.8
2086.16
2077.42
2068.57
2059.6
2050.5
2041.27
2031.88
2022.34
2012.63
2002.73
1992.63
1982.41
1972.25
1962.2
1952.28
1942.46
1932.74
1923.12
1913.58
1904.12
1894.75
1885.44
1876.2
1867.01
1857.89
1848.81
1839.78
1830.8
1821.85
1812.94
1804.05
1795.2
1786.36
1777.55
1768.75
1759.97
1751.19
1742.42
1733.66
1724.9
1716.14
1707.37
1698.61
1689.84
1681.06
1672.28
1663.5
1654.71
1645.91
1637.12
1628.32
1619.52
1610.72
1601.93
1593.15
1584.37
1575.61
1566.86
1558.13
1549.43
1540.75
1532.09
1523.47
1514.88
1506.32
1497.8
1489.32
1480.89
1472.5
1464.15
1455.84
1447.59
1439.37
1431.21
1423.16
1415.27
2189.96
2182.49
2175.01
2167.51
2160
2152.47
2144.91
2137.33
2129.72
2122.08
2114.4
2106.68
2098.91
2091.1
2083.23
2075.3
2067.31
2059.26
2051.12
2042.91
2034.61
2026.22
2017.73
2009.13
2000.42
1991.58
1982.61
1973.5
1964.23
1954.8
1945.18
1935.37
1925.45
1915.58
1905.82
1896.18
1886.65
1877.21
1867.86
1858.6
1849.42
1840.31
1831.27
1822.29
1813.38
1804.51
1795.7
1786.93
1778.21
1769.52
1760.86
1752.24
1743.64
1735.06
1726.5
1717.96
1709.43
1700.91
1692.4
1683.89
1675.38
1666.88
1658.37
1649.86
1641.35
1632.84
1624.32
1615.79
1607.26
1598.73
1590.2
1581.66
1573.13
1564.6
1556.07
1547.55
1539.05
1530.55
1522.07
1513.61
1505.17
1496.75
1488.36
1480
1471.67
1463.38
1455.12
1446.91
1438.73
1430.59
1422.5
1414.45
1406.44
1398.48
1390.56
1382.68
1374.84
2127.05
2119.79
2112.53
2105.24
2097.95
2090.63
2083.29
2075.93
2068.54
2061.12
2053.66
2046.16
2038.61
2031.02
2023.38
2015.68
2007.92
2000.09
1992.19
1984.21
1976.15
1968
1959.76
1951.41
1942.94
1934.36
1925.65
1916.79
1907.79
1898.63
1889.29
1879.76
1870.13
1860.54
1851.06
1841.7
1832.44
1823.27
1814.19
1805.2
1796.28
1787.44
1778.66
1769.94
1761.28
1752.67
1744.12
1735.6
1727.13
1718.69
1710.29
1701.91
1693.56
1685.23
1676.92
1668.63
1660.34
1652.07
1643.81
1635.55
1627.29
1619.03
1610.78
1602.52
1594.26
1585.99
1577.72
1569.45
1561.18
1552.9
1544.62
1536.35
1528.07
1519.8
1511.53
1503.27
1495.02
1486.78
1478.56
1470.36
1462.18
1454.02
1445.89
1437.78
1429.71
1421.67
1413.67
1405.7
1397.77
1389.89
1382.04
1374.24
1366.47
1358.75
1351.07
1343.43
1335.83
2087.06
2080.02
2072.99
2065.95
2058.9
2051.84
2044.76
2037.68
2030.57
2023.44
2016.29
2009.11
2001.9
1994.65
1987.37
1980.04
1972.67
1965.24
1957.77
1950.23
1942.62
1934.95
1927.2
1919.37
1911.46
1903.45
1895.34
1887.12
1878.78
1870.31
1861.72
1852.97
1844.07
1835
1825.75
1816.39
1807.08
1797.87
1788.78
1779.79
1770.88
1762.07
1753.33
1744.67
1736.08
1727.56
1719.09
1710.68
1702.32
1694.01
1685.74
1677.51
1669.32
1661.16
1653.02
1644.92
1636.83
1628.76
1620.71
1612.66
1604.63
1596.61
1588.59
1580.57
1572.56
1564.54
1556.53
1548.51
1540.49
1532.47
1524.44
1516.42
1508.39
1500.36
1492.33
1484.3
1476.28
1468.26
1460.25
1452.25
1444.27
1436.3
1428.35
1420.41
1412.51
1404.63
1396.77
1388.95
1381.16
1373.4
1365.68
1358
1350.35
1342.75
1335.18
1327.65
1320.17
1312.72
1305.31
1297.94
2027.1
2020.27
2013.43
2006.59
1999.75
1992.89
1986.02
1979.14
1972.23
1965.31
1958.36
1951.39
1944.39
1937.35
1930.27
1923.15
1915.99
1908.78
1901.52
1894.19
1886.81
1879.36
1871.83
1864.22
1856.54
1848.75
1840.88
1832.89
1824.79
1816.57
1808.22
1799.73
1791.08
1782.27
1773.29
1764.2
1755.15
1746.21
1737.38
1728.65
1720
1711.44
1702.95
1694.54
1686.2
1677.92
1669.7
1661.53
1653.42
1645.34
1637.32
1629.32
1621.37
1613.44
1605.54
1597.67
1589.82
1581.98
1574.16
1566.35
1558.55
1550.76
1542.98
1535.2
1527.42
1519.64
1511.86
1504.08
1496.3
1488.51
1480.72
1472.94
1465.15
1457.36
1449.57
1441.78
1434
1426.23
1418.47
1410.71
1402.97
1395.25
1387.54
1379.85
1372.19
1364.55
1356.94
1349.35
1341.8
1334.29
1326.8
1319.36
1311.95
1304.58
1297.24
1289.95
1282.69
1275.47
1268.29
1261.14
1968.86
1962.22
1955.59
1948.94
1942.3
1935.64
1928.96
1922.28
1915.57
1908.85
1902.1
1895.33
1888.52
1881.69
1874.81
1867.9
1860.94
1853.94
1846.88
1839.77
1832.6
1825.36
1818.05
1810.66
1803.19
1795.63
1787.98
1780.23
1772.36
1764.38
1756.26
1748.01
1739.62
1731.06
1722.33
1713.5
1704.72
1696.04
1687.46
1678.97
1670.58
1662.26
1654.02
1645.85
1637.75
1629.71
1621.73
1613.8
1605.91
1598.07
1590.28
1582.52
1574.79
1567.09
1559.42
1551.78
1544.15
1536.54
1528.95
1521.37
1513.8
1506.23
1498.68
1491.12
1483.57
1476.02
1468.47
1460.92
1453.37
1445.81
1438.26
1430.7
1423.15
1415.59
1408.04
1400.49
1392.94
1385.41
1377.88
1370.36
1362.86
1355.37
1347.9
1340.45
1333.02
1325.62
1318.24
1310.89
1303.58
1296.29
1289.04
1281.82
1274.64
1267.5
1260.39
1253.32
1246.29
1239.29
1232.33
1225.4
1912.29
1905.85
1899.4
1892.95
1886.49
1880.02
1873.54
1867.05
1860.54
1854.01
1847.45
1840.87
1834.26
1827.62
1820.95
1814.23
1807.47
1800.67
1793.82
1786.91
1779.94
1772.91
1765.81
1758.63
1751.38
1744.04
1736.6
1729.07
1721.43
1713.68
1705.8
1697.78
1689.63
1681.32
1672.84
1664.27
1655.73
1647.3
1638.97
1630.73
1622.57
1614.5
1606.5
1598.56
1590.69
1582.89
1575.13
1567.43
1559.77
1552.16
1544.59
1537.05
1529.55
1522.07
1514.63
1507.2
1499.8
1492.41
1485.04
1477.67
1470.32
1462.98
1455.64
1448.31
1440.98
1433.65
1426.32
1419
1411.67
1404.34
1397.01
1389.68
1382.35
1375.02
1367.69
1360.37
1353.06
1345.75
1338.45
1331.16
1323.89
1316.63
1309.39
1302.17
1294.97
1287.8
1280.65
1273.53
1266.44
1259.38
1252.36
1245.37
1238.41
1231.49
1224.6
1217.75
1210.93
1204.15
1197.4
1190.69
1857.35
1851.09
1844.83
1838.57
1832.29
1826.01
1819.72
1813.41
1807.08
1800.74
1794.37
1787.98
1781.56
1775.11
1768.63
1762.11
1755.54
1748.93
1742.28
1735.57
1728.8
1721.97
1715.07
1708.1
1701.05
1693.92
1686.7
1679.39
1671.97
1664.43
1656.78
1649
1641.08
1633.01
1624.77
1616.44
1608.15
1599.97
1591.87
1583.87
1575.95
1568.11
1560.33
1552.63
1544.99
1537.4
1529.87
1522.39
1514.96
1507.57
1500.21
1492.89
1485.61
1478.35
1471.11
1463.9
1456.71
1449.54
1442.38
1435.23
1428.1
1420.97
1413.84
1406.73
1399.61
1392.5
1385.39
1378.27
1371.16
1364.05
1356.94
1349.83
1342.72
1335.61
1328.51
1321.41
1314.32
1307.23
1300.15
1293.09
1286.04
1279.01
1271.99
1264.99
1258.02
1251.07
1244.14
1237.24
1230.37
1223.54
1216.73
1209.95
1203.21
1196.51
1189.83
1183.19
1176.59
1170.02
1163.48
1156.97
1803.98
1797.91
1791.83
1785.74
1779.65
1773.55
1767.43
1761.31
1755.16
1749
1742.82
1736.61
1730.37
1724.11
1717.81
1711.48
1705.1
1698.68
1692.21
1685.7
1679.12
1672.49
1665.79
1659.02
1652.18
1645.25
1638.24
1631.13
1623.92
1616.61
1609.17
1601.61
1593.92
1586.08
1578.08
1569.99
1561.94
1553.99
1546.13
1538.36
1530.66
1523.05
1515.5
1508.02
1500.59
1493.23
1485.91
1478.65
1471.43
1464.25
1457.11
1450
1442.92
1435.87
1428.85
1421.85
1414.87
1407.9
1400.95
1394.01
1387.08
1380.16
1373.24
1366.33
1359.43
1352.52
1345.62
1338.72
1331.82
1324.92
1318.02
1311.12
1304.22
1297.33
1290.44
1283.56
1276.68
1269.81
1262.95
1256.11
1249.27
1242.46
1235.66
1228.88
1222.12
1215.38
1208.67
1201.99
1195.34
1188.71
1182.12
1175.56
1169.02
1162.53
1156.06
1149.63
1143.23
1136.86
1130.53
1124.22
1752.15
1746.25
1740.34
1734.43
1728.52
1722.59
1716.65
1710.7
1704.73
1698.75
1692.74
1686.71
1680.66
1674.57
1668.45
1662.3
1656.11
1649.87
1643.59
1637.26
1630.87
1624.43
1617.92
1611.35
1604.7
1597.97
1591.16
1584.26
1577.26
1570.15
1562.93
1555.59
1548.12
1540.5
1532.73
1524.88
1517.06
1509.33
1501.7
1494.15
1486.68
1479.28
1471.95
1464.68
1457.47
1450.32
1443.22
1436.16
1429.15
1422.18
1415.24
1408.34
1401.47
1394.62
1387.8
1381
1374.22
1367.45
1360.7
1353.97
1347.24
1340.52
1333.81
1327.1
1320.39
1313.69
1306.99
1300.3
1293.6
1286.9
1280.21
1273.52
1266.83
1260.15
1253.47
1246.79
1240.12
1233.46
1226.82
1220.18
1213.56
1206.95
1200.36
1193.79
1187.25
1180.72
1174.22
1167.75
1161.3
1154.88
1148.5
1142.14
1135.82
1129.52
1123.26
1117.03
1110.83
1104.66
1098.52
1092.41
1701.8
1696.07
1690.34
1684.6
1678.85
1673.09
1667.33
1661.55
1655.75
1649.94
1644.11
1638.25
1632.37
1626.46
1620.51
1614.54
1608.52
1602.47
1596.36
1590.21
1584.01
1577.75
1571.43
1565.05
1558.59
1552.05
1545.44
1538.73
1531.93
1525.03
1518.02
1510.89
1503.63
1496.23
1488.69
1481.06
1473.46
1465.96
1458.54
1451.21
1443.96
1436.77
1429.65
1422.59
1415.59
1408.64
1401.74
1394.89
1388.08
1381.31
1374.57
1367.87
1361.2
1354.55
1347.92
1341.32
1334.74
1328.17
1321.61
1315.07
1308.54
1302.02
1295.5
1288.99
1282.48
1275.97
1269.47
1262.97
1256.48
1249.98
1243.49
1237
1230.51
1224.03
1217.55
1211.08
1204.61
1198.16
1191.71
1185.28
1178.86
1172.46
1166.08
1159.71
1153.37
1147.05
1140.75
1134.48
1128.24
1122.02
1115.84
1109.68
1103.56
1097.46
1091.4
1085.36
1079.36
1073.38
1067.43
1061.51
1652.9
1647.34
1641.77
1636.19
1630.61
1625.02
1619.42
1613.81
1608.18
1602.53
1596.86
1591.18
1585.46
1579.72
1573.95
1568.14
1562.3
1556.42
1550.49
1544.52
1538.5
1532.42
1526.28
1520.07
1513.8
1507.46
1501.03
1494.52
1487.91
1481.21
1474.39
1467.47
1460.42
1453.23
1445.91
1438.49
1431.12
1423.83
1416.63
1409.51
1402.46
1395.48
1388.56
1381.71
1374.91
1368.16
1361.46
1354.81
1348.19
1341.62
1335.07
1328.56
1322.08
1315.63
1309.19
1302.78
1296.39
1290.01
1283.64
1277.29
1270.95
1264.61
1258.29
1251.97
1245.65
1239.34
1233.03
1226.72
1220.41
1214.11
1207.81
1201.52
1195.22
1188.94
1182.66
1176.38
1170.11
1163.86
1157.61
1151.38
1145.16
1138.96
1132.77
1126.61
1120.46
1114.34
1108.24
1102.17
1096.12
1090.1
1084.11
1078.15
1072.22
1066.32
1060.44
1054.6
1048.79
1043
1037.24
1031.51
1605.41
1600
1594.59
1589.18
1583.76
1578.33
1572.89
1567.44
1561.97
1556.48
1550.98
1545.46
1539.91
1534.33
1528.72
1523.08
1517.41
1511.7
1505.94
1500.14
1494.29
1488.38
1482.42
1476.39
1470.3
1464.14
1457.89
1451.57
1445.15
1438.64
1432.02
1425.3
1418.45
1411.47
1404.35
1397.15
1389.99
1382.91
1375.92
1369
1362.15
1355.37
1348.66
1342
1335.4
1328.84
1322.34
1315.87
1309.45
1303.06
1296.71
1290.38
1284.09
1277.82
1271.57
1265.34
1259.13
1252.94
1246.76
1240.59
1234.43
1228.28
1222.14
1216.01
1209.87
1203.75
1197.62
1191.5
1185.38
1179.27
1173.16
1167.05
1160.95
1154.85
1148.76
1142.68
1136.6
1130.54
1124.49
1118.45
1112.42
1106.41
1100.42
1094.45
1088.49
1082.56
1076.66
1070.78
1064.92
1059.09
1053.29
1047.52
1041.78
1036.06
1030.38
1024.72
1019.09
1013.49
1007.91
1002.36
1559.27
1554.02
1548.77
1543.51
1538.25
1532.97
1527.69
1522.4
1517.09
1511.76
1506.41
1501.05
1495.66
1490.24
1484.8
1479.32
1473.81
1468.26
1462.67
1457.03
1451.35
1445.61
1439.82
1433.97
1428.05
1422.06
1416
1409.85
1403.62
1397.3
1390.87
1384.34
1377.68
1370.91
1364
1357
1350.04
1343.17
1336.37
1329.66
1323.01
1316.42
1309.9
1303.43
1297.02
1290.65
1284.33
1278.05
1271.81
1265.61
1259.44
1253.3
1247.18
1241.09
1235.03
1228.98
1222.95
1216.94
1210.93
1204.94
1198.97
1192.99
1187.03
1181.07
1175.12
1169.17
1163.23
1157.29
1151.36
1145.42
1139.5
1133.57
1127.65
1121.74
1115.83
1109.94
1104.05
1098.17
1092.3
1086.45
1080.61
1074.79
1068.99
1063.2
1057.44
1051.69
1045.98
1040.28
1034.61
1028.97
1023.35
1017.77
1012.21
1006.67
1001.17
995.692
990.242
984.818
979.42
974.045
1514.46
1509.36
1504.26
1499.16
1494.04
1488.92
1483.79
1478.65
1473.49
1468.32
1463.13
1457.91
1452.68
1447.42
1442.13
1436.81
1431.45
1426.06
1420.63
1415.16
1409.64
1404.07
1398.44
1392.76
1387.01
1381.19
1375.3
1369.34
1363.28
1357.14
1350.9
1344.55
1338.09
1331.51
1324.79
1318
1311.24
1304.57
1297.97
1291.44
1284.98
1278.59
1272.25
1265.97
1259.74
1253.56
1247.42
1241.32
1235.26
1229.23
1223.24
1217.28
1211.34
1205.42
1199.53
1193.66
1187.8
1181.96
1176.13
1170.32
1164.51
1158.71
1152.92
1147.14
1141.36
1135.59
1129.82
1124.06
1118.3
1112.54
1106.79
1101.05
1095.31
1089.57
1083.85
1078.13
1072.42
1066.73
1061.04
1055.37
1049.71
1044.07
1038.45
1032.85
1027.27
1021.7
1016.17
1010.65
1005.17
999.703
994.267
988.858
983.476
978.122
972.794
967.493
962.219
956.969
951.744
946.543
1470.94
1465.99
1461.04
1456.08
1451.11
1446.14
1441.15
1436.16
1431.15
1426.12
1421.08
1416.02
1410.93
1405.82
1400.69
1395.52
1390.32
1385.08
1379.81
1374.49
1369.13
1363.72
1358.25
1352.73
1347.15
1341.5
1335.78
1329.98
1324.1
1318.14
1312.07
1305.91
1299.63
1293.24
1286.72
1280.12
1273.56
1267.07
1260.66
1254.32
1248.05
1241.84
1235.68
1229.58
1223.53
1217.52
1211.56
1205.64
1199.75
1193.9
1188.08
1182.29
1176.52
1170.77
1165.05
1159.35
1153.66
1147.99
1142.33
1136.68
1131.04
1125.41
1119.79
1114.18
1108.57
1102.97
1097.37
1091.78
1086.19
1080.6
1075.02
1069.45
1063.88
1058.32
1052.77
1047.23
1041.7
1036.18
1030.67
1025.17
1019.69
1014.23
1008.78
1003.36
997.952
992.568
987.207
981.87
976.557
971.27
966.008
960.774
955.565
950.383
945.228
940.098
934.995
929.915
924.86
919.827
1428.67
1423.86
1419.05
1414.23
1409.41
1404.58
1399.74
1394.89
1390.02
1385.14
1380.24
1375.33
1370.39
1365.42
1360.43
1355.42
1350.37
1345.28
1340.16
1334.99
1329.78
1324.53
1319.22
1313.86
1308.43
1302.95
1297.39
1291.76
1286.05
1280.25
1274.36
1268.38
1262.28
1256.07
1249.74
1243.33
1236.95
1230.65
1224.43
1218.27
1212.17
1206.14
1200.16
1194.24
1188.36
1182.52
1176.73
1170.98
1165.26
1159.58
1153.92
1148.3
1142.7
1137.12
1131.56
1126.02
1120.5
1114.99
1109.49
1104.01
1098.53
1093.07
1087.61
1082.16
1076.71
1071.28
1065.84
1060.41
1054.99
1049.57
1044.16
1038.75
1033.36
1027.96
1022.58
1017.21
1011.85
1006.5
1001.16
995.834
990.526
985.234
979.961
974.706
969.472
964.26
959.07
953.904
948.762
943.644
938.553
933.487
928.447
923.433
918.445
913.483
908.545
903.631
898.741
893.873
1387.61
1382.94
1378.27
1373.59
1368.91
1364.21
1359.51
1354.8
1350.08
1345.34
1340.58
1335.8
1331.01
1326.18
1321.34
1316.46
1311.56
1306.62
1301.64
1296.63
1291.57
1286.46
1281.31
1276.1
1270.83
1265.5
1260.1
1254.63
1249.09
1243.46
1237.74
1231.92
1226
1219.97
1213.82
1207.59
1201.4
1195.28
1189.23
1183.25
1177.33
1171.47
1165.66
1159.91
1154.2
1148.53
1142.9
1137.32
1131.76
1126.24
1120.75
1115.28
1109.84
1104.42
1099.02
1093.64
1088.28
1082.93
1077.59
1072.27
1066.95
1061.64
1056.35
1051.05
1045.77
1040.49
1035.21
1029.95
1024.68
1019.43
1014.18
1008.93
1003.7
998.469
993.25
988.042
982.844
977.659
972.487
967.33
962.188
957.063
951.956
946.868
941.801
936.755
931.731
926.731
921.754
916.802
911.876
906.974
902.098
897.248
892.423
887.622
882.846
878.094
873.364
868.656
1347.73
1343.2
1338.66
1334.11
1329.56
1325.01
1320.44
1315.87
1311.28
1306.67
1302.05
1297.41
1292.75
1288.07
1283.36
1278.63
1273.86
1269.07
1264.23
1259.36
1254.45
1249.49
1244.48
1239.42
1234.31
1229.13
1223.89
1218.57
1213.19
1207.72
1202.16
1196.51
1190.76
1184.9
1178.93
1172.88
1166.86
1160.92
1155.04
1149.23
1143.49
1137.79
1132.15
1126.56
1121.01
1115.51
1110.04
1104.62
1099.22
1093.86
1088.52
1083.21
1077.93
1072.67
1067.42
1062.2
1056.99
1051.79
1046.61
1041.43
1036.27
1031.12
1025.97
1020.84
1015.7
1010.58
1005.46
1000.35
995.239
990.138
985.044
979.958
974.879
969.81
964.751
959.702
954.665
949.641
944.63
939.634
934.653
929.69
924.745
919.819
914.913
910.028
905.166
900.327
895.511
890.72
885.953
881.211
876.494
871.803
867.136
862.493
857.875
853.279
848.706
844.155
1313.4
1309
1304.59
1300.18
1295.77
1291.35
1286.93
1282.49
1278.05
1273.59
1269.12
1264.63
1260.13
1255.6
1251.05
1246.48
1241.88
1237.25
1232.59
1227.9
1223.17
1218.39
1213.58
1208.71
1203.8
1198.83
1193.8
1188.71
1183.55
1178.32
1173
1167.61
1162.12
1156.54
1150.85
1145.04
1139.17
1133.32
1127.55
1121.84
1116.2
1110.61
1105.08
1099.6
1094.17
1088.78
1083.43
1078.13
1072.85
1067.61
1062.4
1057.22
1052.06
1046.93
1041.82
1036.72
1031.65
1026.59
1021.54
1016.5
1011.48
1006.47
1001.46
996.468
991.479
986.498
981.522
976.553
971.589
966.633
961.683
956.74
951.805
946.88
941.964
937.059
932.166
927.284
922.416
917.561
912.722
907.898
903.091
898.303
893.534
888.785
884.057
879.351
874.668
870.009
865.373
860.761
856.175
851.612
847.075
842.562
838.073
833.608
829.165
824.744
820.345
1275.66
1271.38
1267.1
1262.82
1258.53
1254.24
1249.94
1245.63
1241.32
1236.99
1232.64
1228.29
1223.91
1219.51
1215.1
1210.66
1206.19
1201.69
1197.17
1192.61
1188.01
1183.38
1178.7
1173.97
1169.2
1164.37
1159.49
1154.54
1149.53
1144.45
1139.29
1134.05
1128.72
1123.29
1117.76
1112.13
1106.42
1100.74
1095.13
1089.59
1084.11
1078.68
1073.31
1067.98
1062.71
1057.47
1052.28
1047.12
1042
1036.91
1031.85
1026.81
1021.8
1016.82
1011.85
1006.9
1001.97
997.055
992.153
987.263
982.384
977.516
972.656
967.805
962.96
958.123
953.292
948.468
943.65
938.839
934.034
929.238
924.45
919.673
914.906
910.151
905.408
900.678
895.961
891.258
886.57
881.898
877.244
872.608
867.991
863.394
858.818
854.264
849.732
845.224
840.739
836.278
831.842
827.429
823.042
818.678
814.338
810.021
805.727
801.455
797.204
1238.99
1234.83
1230.68
1226.52
1222.36
1218.19
1214.02
1209.83
1205.64
1201.44
1197.22
1192.98
1188.73
1184.46
1180.17
1175.86
1171.52
1167.15
1162.76
1158.33
1153.86
1149.36
1144.82
1140.23
1135.59
1130.9
1126.16
1121.36
1116.49
1111.55
1106.54
1101.45
1096.27
1091
1085.63
1080.15
1074.61
1069.1
1063.65
1058.26
1052.94
1047.66
1042.44
1037.27
1032.15
1027.06
1022.02
1017.01
1012.03
1007.08
1002.17
997.276
992.409
987.564
982.739
977.932
973.142
968.367
963.605
958.856
954.117
949.389
944.669
939.958
935.254
930.557
925.866
921.182
916.505
911.834
907.17
902.515
897.869
893.234
888.612
884.003
879.406
874.823
870.252
865.697
861.156
856.632
852.125
847.636
843.166
838.716
834.287
829.88
825.495
821.133
816.795
812.48
808.189
803.923
799.68
795.461
791.266
787.093
782.943
778.815
1203.38
1199.34
1195.31
1191.27
1187.23
1183.18
1179.12
1175.06
1170.99
1166.9
1162.81
1158.69
1154.57
1150.42
1146.25
1142.06
1137.85
1133.61
1129.34
1125.03
1120.7
1116.32
1111.91
1107.45
1102.95
1098.4
1093.79
1089.12
1084.39
1079.6
1074.73
1069.78
1064.75
1059.64
1054.42
1049.1
1043.72