/*--------------------------------*- C++ -*----------------------------------*\
  =========                 |
  \\      /  F ield         | OpenFOAM: The Open Source CFD Toolbox
   \\    /   O peration     | Website:  https://openfoam.org
    \\  /    A nd           | Version:  10
     \\/     M anipulation  |
\*---------------------------------------------------------------------------*/
FoamFile
{
    format      ascii;
    class       volScalarField;
    location    "37000";
    object      p;
}
// * * * * * * * * * * * * * * * * * * * * * * * * * * * * * * * * * * * * * //

dimensions      [0 2 -2 0 0 0 0];

internalField   nonuniform List<scalar> 
17922
(
9.36082
9.29327
9.22445
9.15436
9.08299
9.0103
8.93628
8.86091
8.78418
8.70606
8.62654
8.54559
8.4632
8.37934
8.294
8.20716
8.1188
8.0289
7.93743
7.84438
7.74972
7.65344
7.55551
7.45591
7.35462
7.25163
7.14689
7.0404
6.93307
6.82677
6.7224
6.61994
6.51935
6.4206
6.32364
6.22846
6.13501
6.04326
5.95318
5.86473
5.77789
5.69262
5.6089
5.52668
5.44594
5.36665
5.28879
5.21231
5.1372
5.06343
4.99096
4.91977
4.84984
4.78113
4.71362
4.64729
4.58211
4.51806
4.45511
4.39324
4.33242
4.27264
4.21387
4.15609
4.09928
4.04343
3.9885
3.93449
3.88137
3.82913
3.77775
3.72721
3.6775
3.6286
3.5805
3.53318
3.48663
3.44083
3.39577
3.35143
3.30781
3.26489
3.22267
3.18112
3.14023
3.1
3.06042
3.02147
2.98315
2.94544
2.90834
2.87183
2.83591
9.3607
9.29314
9.22433
9.15424
9.08287
9.01018
8.93616
8.8608
8.78407
8.70595
8.62643
8.54548
8.46309
8.37924
8.2939
8.20706
8.1187
8.0288
7.93733
7.84428
7.74963
7.65335
7.55542
7.45582
7.35454
7.25154
7.14681
7.04032
6.93299
6.82669
6.72233
6.61987
6.51929
6.42054
6.32359
6.2284
6.13496
6.04321
5.95313
5.86469
5.77785
5.69258
5.60886
5.52664
5.44591
5.36662
5.28876
5.21229
5.13718
5.0634
4.99094
4.91975
4.84982
4.78111
4.7136
4.64727
4.5821
4.51804
4.45509
4.39322
4.33241
4.27263
4.21386
4.15609
4.09929
4.04343
3.98851
3.9345
3.88139
3.82916
3.77778
3.72725
3.67755
3.62865
3.58056
3.53325
3.4867
3.44091
3.39586
3.35154
3.30793
3.26502
3.2228
3.18126
3.14039
3.10018
3.06061
3.02168
2.98337
2.94568
2.9086
2.87211
2.83621
9.36052
9.29297
9.22415
9.15407
9.08269
9.01
8.93598
8.86062
8.78389
8.70577
8.62624
8.5453
8.4629
8.37905
8.29371
8.20687
8.11851
8.02861
7.93714
7.84408
7.74943
7.65315
7.55522
7.45562
7.35433
7.25133
7.1466
7.04011
6.93278
6.82648
6.72211
6.61965
6.51906
6.42031
6.32336
6.22817
6.13472
6.04297
5.95289
5.86445
5.77761
5.69234
5.60861
5.52639
5.44566
5.36637
5.2885
5.21203
5.13691
5.06314
4.99067
4.91947
4.84954
4.78083
4.71332
4.64699
4.5818
4.51775
4.4548
4.39292
4.33211
4.27233
4.21356
4.15578
4.09897
4.04312
3.9882
3.93419
3.88108
3.82884
3.77747
3.72694
3.67724
3.62835
3.58025
3.53294
3.4864
3.44062
3.39557
3.35125
3.30765
3.26475
3.22254
3.18101
3.14014
3.09994
3.06038
3.02146
2.98316
2.94548
2.90841
2.87194
2.83606
9.36033
9.29278
9.22396
9.15388
9.0825
9.00981
8.93579
8.86042
8.78369
8.70557
8.62604
8.54509
8.4627
8.37884
8.2935
8.20666
8.11829
8.02838
7.93691
7.84386
7.7492
7.65291
7.55498
7.45538
7.35409
7.25109
7.14635
7.03986
6.93253
6.82622
6.72185
6.61939
6.5188
6.42004
6.32308
6.2279
6.13444
6.04269
5.95261
5.86416
5.77732
5.69204
5.60831
5.52609
5.44535
5.36606
5.28819
5.21171
5.13659
5.06281
4.99034
4.91914
4.8492
4.78049
4.71298
4.64664
4.58146
4.5174
4.45444
4.39256
4.33175
4.27196
4.21319
4.15541
4.0986
4.04275
3.98783
3.93382
3.88071
3.82847
3.7771
3.72657
3.67687
3.62798
3.5799
3.53259
3.48605
3.44027
3.39523
3.35092
3.30732
3.26442
3.22222
3.1807
3.13985
3.09965
3.06011
3.0212
2.98292
2.94525
2.9082
2.87174
2.83588
9.36016
9.2926
9.22379
9.1537
9.08232
9.00963
8.93561
8.86024
8.78351
8.70538
8.62586
8.54491
8.46251
8.37865
8.29331
8.20647
8.1181
8.02819
7.93671
7.84366
7.74899
7.65271
7.55477
7.45517
7.35388
7.25087
7.14613
7.03963
6.9323
6.82599
6.72162
6.61915
6.51856
6.4198
6.32284
6.22765
6.13419
6.04244
5.95235
5.8639
5.77705
5.69178
5.60804
5.52582
5.44507
5.36578
5.28791
5.21142
5.1363
5.06252
4.99004
4.91884
4.8489
4.78018
4.71267
4.64633
4.58114
4.51708
4.45412
4.39224
4.33142
4.27163
4.21286
4.15508
4.09827
4.04241
3.98749
3.93348
3.88037
3.82814
3.77677
3.72624
3.67654
3.62766
3.57957
3.53227
3.48574
3.43996
3.39493
3.35062
3.30703
3.26415
3.22195
3.18044
3.1396
3.09942
3.05988
3.02099
2.98272
2.94507
2.90803
2.87159
2.83575
9.36
9.29244
9.22363
9.15354
9.08216
9.00947
8.93545
8.86008
8.78334
8.70522
8.62569
8.54473
8.46234
8.37848
8.29313
8.20629
8.11792
8.028
7.93653
7.84347
7.7488
7.65251
7.55458
7.45497
7.35368
7.25067
7.14593
7.03942
6.93209
6.82577
6.7214
6.61893
6.51833
6.41957
6.32261
6.22741
6.13396
6.0422
5.95211
5.86365
5.7768
5.69153
5.60779
5.52556
5.44481
5.36552
5.28764
5.21115
5.13603
5.06224
4.98976
4.91856
4.84861
4.77989
4.71237
4.64603
4.58084
4.51677
4.45381
4.39193
4.3311
4.27131
4.21254
4.15476
4.09795
4.04209
3.98717
3.93316
3.88005
3.82782
3.77645
3.72593
3.67623
3.62735
3.57927
3.53197
3.48544
3.43967
3.39464
3.35034
3.30676
3.26388
3.2217
3.1802
3.13937
3.09919
3.05967
3.02079
2.98254
2.9449
2.90788
2.87146
2.83563
9.35985
9.29229
9.22347
9.15339
9.082
9.00931
8.93529
8.85992
8.78318
8.70505
8.62552
8.54457
8.46217
8.37831
8.29296
8.20612
8.11774
8.02783
7.93635
7.84329
7.74862
7.65233
7.55439
7.45478
7.35348
7.25047
7.14573
7.03922
6.93188
6.82557
6.72119
6.61872
6.51812
6.41935
6.32239
6.22719
6.13373
6.04197
5.95187
5.86342
5.77656
5.69128
5.60754
5.52531
5.44456
5.36526
5.28738
5.21089
5.13576
5.06197
4.98949
4.91828
4.84833
4.77961
4.71208
4.64574
4.58054
4.51647
4.45351
4.39162
4.3308
4.27101
4.21223
4.15445
4.09764
4.04178
3.98686
3.93285
3.87974
3.82751
3.77614
3.72562
3.67593
3.62705
3.57897
3.53168
3.48516
3.43939
3.39437
3.35007
3.3065
3.26363
3.22146
3.17996
3.13914
3.09898
3.05947
3.0206
2.98237
2.94475
2.90774
2.87134
2.83553
9.3597
9.29214
9.22333
9.15324
9.08186
9.00916
8.93514
8.85977
8.78303
8.7049
8.62537
8.54441
8.46201
8.37815
8.2928
8.20595
8.11758
8.02766
7.93618
7.84312
7.74845
7.65216
7.55421
7.4546
7.3533
7.25029
7.14554
7.03903
6.93169
6.82537
6.72099
6.61852
6.51791
6.41914
6.32218
6.22698
6.13351
6.04175
5.95165
5.86319
5.77633
5.69105
5.60731
5.52507
5.44432
5.36501
5.28713
5.21064
5.13551
5.06171
4.98922
4.91801
4.84806
4.77933
4.7118
4.64545
4.58025
4.51618
4.45322
4.39133
4.3305
4.27071
4.21193
4.15414
4.09733
4.04148
3.98655
3.93255
3.87944
3.82721
3.77584
3.72532
3.67563
3.62676
3.57868
3.5314
3.48488
3.43912
3.3941
3.34982
3.30625
3.26339
3.22122
3.17974
3.13893
3.09878
3.05929
3.02043
2.98221
2.94461
2.90762
2.87123
2.83544
9.35956
9.292
9.22319
9.1531
9.08172
9.00902
8.935
8.85962
8.78288
8.70476
8.62523
8.54427
8.46187
8.378
8.29265
8.2058
8.11743
8.02751
7.93603
7.84296
7.74829
7.65199
7.55405
7.45443
7.35313
7.25011
7.14536
7.03885
6.93151
6.82519
6.7208
6.61832
6.51772
6.41894
6.32197
6.22677
6.1333
6.04154
5.95144
5.86297
5.77611
5.69083
5.60708
5.52484
5.44408
5.36478
5.28689
5.21039
5.13526
5.06146
4.98897
4.91775
4.8478
4.77906
4.71153
4.64518
4.57998
4.5159
4.45293
4.39104
4.33021
4.27042
4.21164
4.15385
4.09704
4.04118
3.98626
3.93225
3.87914
3.82692
3.77555
3.72503
3.67535
3.62648
3.57841
3.53112
3.48461
3.43886
3.39385
3.34957
3.30601
3.26316
3.22101
3.17953
3.13874
3.0986
3.05912
3.02028
2.98207
2.94448
2.90751
2.87114
2.83537
9.35943
9.29187
9.22306
9.15297
9.08158
9.00889
8.93486
8.85949
8.78275
8.70462
8.62509
8.54413
8.46173
8.37786
8.29251
8.20566
8.11728
8.02736
7.93588
7.84281
7.74814
7.65184
7.55389
7.45427
7.35297
7.24995
7.1452
7.03868
6.93133
6.82501
6.72062
6.61814
6.51753
6.41876
6.32178
6.22658
6.1331
6.04133
5.95123
5.86276
5.7759
5.69061
5.60686
5.52462
5.44386
5.36455
5.28666
5.21016
5.13502
5.06122
4.98872
4.9175
4.84754
4.77881
4.71127
4.64492
4.57971
4.51563
4.45266
4.39077
4.32993
4.27014
4.21135
4.15357
4.09675
4.0409
3.98597
3.93197
3.87886
3.82663
3.77527
3.72476
3.67508
3.62621
3.57814
3.53086
3.48436
3.43861
3.39361
3.34934
3.30579
3.26295
3.2208
3.17934
3.13855
3.09843
3.05896
3.02013
2.98194
2.94437
2.90741
2.87106
2.83531
9.35931
9.29175
9.22293
9.15284
9.08146
9.00876
8.93474
8.85937
8.78262
8.7045
8.62496
8.544
8.4616
8.37773
8.29238
8.20552
8.11715
8.02722
7.93574
7.84267
7.74799
7.65169
7.55374
7.45412
7.35282
7.24979
7.14504
7.03852
6.93117
6.82484
6.72045
6.61797
6.51735
6.41858
6.3216
6.22639
6.13292
6.04114
5.95104
5.86257
5.7757
5.6904
5.60665
5.52441
5.44364
5.36433
5.28643
5.20993
5.13479
5.06098
4.98848
4.91726
4.8473
4.77856
4.71102
4.64466
4.57945
4.51537
4.4524
4.3905
4.32966
4.26987
4.21108
4.15329
4.09648
4.04062
3.9857
3.93169
3.87859
3.82636
3.775
3.72449
3.67481
3.62595
3.57789
3.53062
3.48412
3.43837
3.39338
3.34912
3.30558
3.26274
3.22061
3.17916
3.13838
3.09827
3.05882
3.02
2.98183
2.94427
2.90733
2.871
2.83526
9.35919
9.29163
9.22282
9.15273
9.08134
9.00865
8.93462
8.85925
8.78251
8.70438
8.62484
8.54388
8.46148
8.37761
8.29225
8.2054
8.11702
8.02709
7.93561
7.84254
7.74786
7.65155
7.5536
7.45398
7.35267
7.24965
7.14489
7.03837
6.93101
6.82468
6.72029
6.61781
6.51719
6.41841
6.32143
6.22621
6.13274
6.04096
5.95085
5.86238
5.77551
5.69021
5.60645
5.5242
5.44344
5.36412
5.28622
5.20971
5.13457
5.06076
4.98825
4.91703
4.84706
4.77832
4.71078
4.64441
4.5792
4.51512
4.45214
4.39024
4.32941
4.26961
4.21082
4.15303
4.09622
4.04036
3.98544
3.93143
3.87833
3.8261
3.77475
3.72424
3.67456
3.6257
3.57765
3.53038
3.48388
3.43815
3.39316
3.34891
3.30538
3.26255
3.22043
3.17899
3.13823
3.09813
3.05869
3.01989
2.98173
2.94419
2.90727
2.87095
2.83523
9.35908
9.29152
9.22271
9.15262
9.08124
9.00854
8.93451
8.85914
8.7824
8.70427
8.62473
8.54377
8.46136
8.37749
8.29214
8.20528
8.1169
8.02698
7.93549
7.84241
7.74773
7.65143
7.55347
7.45385
7.35254
7.24951
7.14475
7.03823
6.93087
6.82454
6.72014
6.61765
6.51703
6.41825
6.32126
6.22605
6.13257
6.04079
5.95067
5.8622
5.77532
5.69002
5.60626
5.52401
5.44324
5.36392
5.28601
5.2095
5.13436
5.06054
4.98804
4.91681
4.84684
4.77809
4.71055
4.64418
4.57896
4.51488
4.4519
4.39
4.32916
4.26936
4.21057
4.15278
4.09597
4.04011
3.98518
3.93118
3.87808
3.82586
3.7745
3.724
3.67432
3.62547
3.57742
3.53016
3.48367
3.43794
3.39296
3.34871
3.30519
3.26238
3.22026
3.17884
3.13809
3.098
3.05857
3.01979
2.98164
2.94412
2.90721
2.87092
2.83522
9.35898
9.29142
9.22261
9.15252
9.08113
9.00844
8.93441
8.85904
8.78229
8.70416
8.62463
8.54367
8.46126
8.37739
8.29203
8.20517
8.11679
8.02686
7.93537
7.8423
7.74762
7.65131
7.55335
7.45373
7.35241
7.24938
7.14462
7.0381
6.93073
6.8244
6.72
6.61751
6.51688
6.41809
6.32111
6.22589
6.13241
6.04062
5.95051
5.86203
5.77515
5.68984
5.60608
5.52383
5.44305
5.36373
5.28582
5.20931
5.13415
5.06034
4.98783
4.9166
4.84662
4.77787
4.71032
4.64395
4.57874
4.51465
4.45166
4.38976
4.32892
4.26912
4.21033
4.15254
4.09572
4.03986
3.98494
3.93094
3.87784
3.82562
3.77427
3.72377
3.6741
3.62525
3.5772
3.52994
3.48346
3.43774
3.39277
3.34853
3.30502
3.26221
3.22011
3.1787
3.13796
3.09789
3.05847
3.0197
2.98157
2.94406
2.90717
2.87089
2.83521
9.35889
9.29133
9.22252
9.15243
9.08104
9.00835
8.93432
8.85894
8.7822
8.70407
8.62453
8.54357
8.46116
8.37729
8.29193
8.20507
8.11669
8.02676
7.93527
7.84219
7.74751
7.6512
7.55324
7.45361
7.3523
7.24927
7.1445
7.03797
6.93061
6.82427
6.71987
6.61737
6.51674
6.41795
6.32096
6.22574
6.13225
6.04047
5.95035
5.86186
5.77498
5.68968
5.60591
5.52365
5.44287
5.36354
5.28563
5.20912
5.13396
5.06014
4.98763
4.91639
4.84641
4.77766
4.71011
4.64374
4.57852
4.51443
4.45144
4.38954
4.32869
4.26889
4.2101
4.15231
4.09549
4.03963
3.98471
3.93071
3.87761
3.8254
3.77405
3.72355
3.67388
3.62504
3.577
3.52974
3.48327
3.43756
3.39259
3.34836
3.30486
3.26207
3.21997
3.17857
3.13784
3.09779
3.05838
3.01963
2.98151
2.94402
2.90715
2.87088
2.83522
9.3588
9.29124
9.22243
9.15234
9.08096
9.00826
8.93424
8.85886
8.78212
8.70398
8.62445
8.54348
8.46107
8.3772
8.29184
8.20498
8.1166
8.02667
7.93517
7.8421
7.74741
7.6511
7.55314
7.45351
7.35219
7.24916
7.14439
7.03786
6.93049
6.82415
6.71974
6.61724
6.51661
6.41782
6.32083
6.2256
6.13211
6.04032
5.9502
5.86171
5.77483
5.68952
5.60575
5.52349
5.4427
5.36337
5.28546
5.20894
5.13378
5.05995
4.98744
4.9162
4.84622
4.77746
4.70991
4.64353
4.57831
4.51422
4.45123
4.38932
4.32848
4.26867
4.20988
4.15209
4.09527
4.03942
3.9845
3.9305
3.8774
3.82518
3.77384
3.72334
3.67368
3.62484
3.5768
3.52956
3.48309
3.43738
3.39243
3.34821
3.30471
3.26193
3.21985
3.17846
3.13774
3.0977
3.05831
3.01957
2.98147
2.94399
2.90714
2.87089
2.83524
9.61674
9.55403
9.49013
9.42504
9.35872
9.29116
9.22235
9.15226
9.08088
9.00818
8.93416
8.85878
8.78204
8.70391
8.62437
8.5434
8.46099
8.37712
8.29176
8.2049
8.11651
8.02658
7.93509
7.84201
7.74732
7.65101
7.55305
7.45341
7.35209
7.24906
7.14428
7.03775
6.93038
6.82404
6.71963
6.61713
6.51649
6.4177
6.3207
6.22547
6.13198
6.04019
5.95006
5.86157
5.77468
5.68937
5.60559
5.52333
5.44254
5.36321
5.28529
5.20877
5.13361
5.05978
4.98726
4.91602
4.84603
4.77727
4.70972
4.64334
4.57811
4.51402
4.45103
4.38912
4.32827
4.26846
4.20968
4.15188
4.09507
4.03921
3.98429
3.93029
3.8772
3.82498
3.77364
3.72315
3.67349
3.62466
3.57663
3.52939
3.48292
3.43723
3.39228
3.34807
3.30458
3.26181
3.21974
3.17836
3.13766
3.09763
3.05825
3.01953
2.98144
2.94398
2.90714
2.87091
2.83528
9.61666
9.55395
9.49006
9.42496
9.35865
9.29109
9.22228
9.15219
9.08081
9.00812
8.93409
8.85871
8.78197
8.70384
8.6243
8.54333
8.46092
8.37705
8.29169
8.20483
8.11644
8.02651
7.93501
7.84193
7.74724
7.65092
7.55296
7.45333
7.352
7.24896
7.14419
7.03766
6.93028
6.82393
6.71952
6.61702
6.51638
6.41758
6.32058
6.22535
6.13186
6.04006
5.94993
5.86144
5.77455
5.68923
5.60545
5.52318
5.44239
5.36306
5.28514
5.20861
5.13344
5.05961
4.98709
4.91585
4.84586
4.7771
4.70954
4.64316
4.57793
4.51383
4.45084
4.38893
4.32808
4.26827
4.20948
4.15169
4.09487
4.03902
3.9841
3.9301
3.87701
3.8248
3.77346
3.72297
3.67332
3.62449
3.57646
3.52923
3.48277
3.43708
3.39214
3.34794
3.30446
3.2617
3.21964
3.17827
3.13759
3.09757
3.05821
3.01949
2.98142
2.94398
2.90715
2.87094
2.83532
9.61659
9.55388
9.48999
9.4249
9.35859
9.29103
9.22222
9.15213
9.08075
9.00806
8.93403
8.85865
8.78191
8.70378
8.62424
8.54327
8.46086
8.37698
8.29162
8.20476
8.11637
8.02644
7.93494
7.84186
7.74717
7.65085
7.55288
7.45325
7.35192
7.24888
7.1441
7.03757
6.93019
6.82384
6.71943
6.61692
6.51628
6.41748
6.32048
6.22524
6.13174
6.03994
5.94981
5.86131
5.77442
5.6891
5.60532
5.52305
5.44226
5.36291
5.28499
5.20846
5.13329
5.05946
4.98693
4.91568
4.84569
4.77693
4.70937
4.64298
4.57775
4.51365
4.45066
4.38875
4.3279
4.26809
4.2093
4.15151
4.09469
4.03883
3.98392
3.92992
3.87683
3.82462
3.77329
3.7228
3.67315
3.62433
3.57631
3.52908
3.48264
3.43695
3.39202
3.34783
3.30436
3.26161
3.21956
3.1782
3.13753
3.09752
3.05817
3.01948
2.98142
2.94399
2.90718
2.87098
2.83538
9.79771
9.73846
9.67807
9.61653
9.55383
9.48994
9.42485
9.35854
9.29098
9.22217
9.15208
9.0807
9.008
8.93398
8.8586
8.78185
8.70372
8.62418
8.54322
8.4608
8.37693
8.29157
8.2047
8.11631
8.02638
7.93488
7.84179
7.7471
7.65078
7.55282
7.45318
7.35185
7.24881
7.14403
7.03749
6.93011
6.82376
6.71934
6.61683
6.51619
6.41738
6.32038
6.22514
6.13164
6.03983
5.9497
5.8612
5.7743
5.68898
5.6052
5.52292
5.44213
5.36278
5.28485
5.20832
5.13315
5.05931
4.98678
4.91553
4.84554
4.77677
4.70921
4.64282
4.57759
4.51349
4.45049
4.38858
4.32773
4.26792
4.20913
4.15134
4.09452
4.03867
3.98375
3.92976
3.87667
3.82446
3.77313
3.72265
3.67301
3.62419
3.57617
3.52895
3.48251
3.43684
3.39191
3.34773
3.30427
3.26153
3.21949
3.17815
3.13748
3.09749
3.05816
3.01947
2.98143
2.94401
2.90722
2.87103
2.83545
9.79765
9.7384
9.67802
9.61649
9.55379
9.4899
9.42481
9.35849
9.29094
9.22213
9.15204
9.08065
9.00796
8.93393
8.85856
8.78181
8.70368
8.62414
8.54317
8.46076
8.37688
8.29152
8.20465
8.11626
8.02633
7.93483
7.84174
7.74705
7.65073
7.55276
7.45312
7.35179
7.24874
7.14396
7.03742
6.93004
6.82368
6.71926
6.61675
6.51611
6.4173
6.32029
6.22505
6.13154
6.03974
5.9496
5.8611
5.7742
5.68887
5.60508
5.5228
5.44201
5.36266
5.28473
5.20819
5.13302
5.05918
4.98665
4.91539
4.8454
4.77663
4.70906
4.64267
4.57744
4.51334
4.45034
4.38842
4.32757
4.26776
4.20897
4.15118
4.09437
4.03851
3.9836
3.92961
3.87652
3.82432
3.77299
3.72251
3.67287
3.62406
3.57605
3.52884
3.4824
3.43674
3.39182
3.34765
3.3042
3.26147
3.21944
3.17811
3.13746
3.09747
3.05815
3.01948
2.98145
2.94405
2.90727
2.8711
2.83553
9.79762
9.73837
9.67799
9.61646
9.55375
9.48987
9.42477
9.35846
9.2909
9.22209
9.152
9.08062
9.00792
8.9339
8.85852
8.78177
8.70364
8.6241
8.54313
8.46072
8.37684
8.29148
8.20461
8.11622
8.02628
7.93478
7.84169
7.747
7.65068
7.55271
7.45307
7.35173
7.24869
7.1439
7.03736
6.92998
6.82362
6.7192
6.61668
6.51603
6.41722
6.32021
6.22497
6.13146
6.03965
5.94951
5.861
5.7741
5.68877
5.60498
5.5227
5.4419
5.36255
5.28461
5.20807
5.1329
5.05905
4.98652
4.91527
4.84527
4.77649
4.70893
4.64254
4.5773
4.5132
4.4502
4.38828
4.32743
4.26762
4.20883
4.15104
4.09422
4.03837
3.98346
3.92947
3.87638
3.82419
3.77286
3.72239
3.67275
3.62394
3.57594
3.52874
3.48231
3.43665
3.39174
3.34758
3.30414
3.26142
3.2194
3.17808
3.13744
3.09747
3.05816
3.01951
2.98149
2.9441
2.90734
2.87118
2.83562
9.79759
9.73835
9.67797
9.61643
9.55373
9.48984
9.42475
9.35843
9.29088
9.22206
9.15198
9.08059
9.0079
8.93387
8.85849
8.78174
8.70361
8.62407
8.5431
8.46069
8.37681
8.29145
8.20458
8.11619
8.02625
7.93474
7.84166
7.74696
7.65064
7.55267
7.45302
7.35169
7.24864
7.14385
7.03731
6.92992
6.82356
6.71914
6.61662
6.51597
6.41715
6.32014
6.22489
6.13138
6.03957
5.94943
5.86092
5.77401
5.68868
5.60489
5.5226
5.4418
5.36245
5.28451
5.20797
5.13279
5.05894
4.98641
4.91515
4.84515
4.77637
4.7088
4.64241
4.57717
4.51307
4.45007
4.38815
4.3273
4.26749
4.2087
4.15091
4.09409
4.03824
3.98333
3.92935
3.87626
3.82407
3.77275
3.72228
3.67265
3.62385
3.57585
3.52865
3.48223
3.43658
3.39168
3.34752
3.3041
3.26139
3.21938
3.17807
3.13744
3.09748
3.05819
3.01954
2.98154
2.94417
2.90741
2.87127
2.83573
9.79758
9.73833
9.67795
9.61642
9.55372
9.48983
9.42473
9.35842
9.29086
9.22205
9.15196
9.08057
9.00788
8.93385
8.85847
8.78172
8.70359
8.62405
8.54308
8.46067
8.37679
8.29142
8.20455
8.11616
8.02622
7.93472
7.84163
7.74693
7.65061
7.55263
7.45299
7.35165
7.2486
7.14381
7.03726
6.92988
6.82351
6.71909
6.61656
6.51591
6.41709
6.32008
6.22483
6.13132
6.0395
5.94936
5.86084
5.77394
5.6886
5.6048
5.52252
5.44171
5.36236
5.28442
5.20787
5.13269
5.05884
4.9863
4.91505
4.84504
4.77627
4.70869
4.6423
4.57706
4.51295
4.44995
4.38804
4.32718
4.26737
4.20858
4.15079
4.09398
4.03813
3.98322
3.92924
3.87616
3.82397
3.77265
3.72219
3.67256
3.62376
3.57577
3.52858
3.48217
3.43652
3.39163
3.34749
3.30407
3.26137
3.21937
3.17807
3.13746
3.09751
3.05823
3.0196
2.98161
2.94424
2.90751
2.87138
2.83585
9.79758
9.73833
9.67795
9.61641
9.55371
9.48982
9.42472
9.35841
9.29085
9.22204
9.15195
9.08056
9.00787
8.93384
8.85846
8.78171
8.70358
8.62403
8.54307
8.46065
8.37677
8.29141
8.20454
8.11614
8.0262
7.9347
7.84161
7.74691
7.65058
7.55261
7.45296
7.35162
7.24857
7.14378
7.03723
6.92984
6.82347
6.71904
6.61652
6.51587
6.41705
6.32003
6.22478
6.13126
6.03944
5.94929
5.86078
5.77387
5.68853
5.60473
5.52245
5.44164
5.36228
5.28434
5.20779
5.13261
5.05876
4.98621
4.91495
4.84495
4.77617
4.7086
4.6422
4.57696
4.51285
4.44985
4.38794
4.32708
4.26727
4.20848
4.15069
4.09388
4.03803
3.98313
3.92914
3.87607
3.82388
3.77257
3.72211
3.67249
3.6237
3.57571
3.52853
3.48212
3.43649
3.3916
3.34747
3.30406
3.26137
3.21938
3.17809
3.13749
3.09755
3.05828
3.01966
2.98168
2.94434
2.90761
2.87149
2.83598
9.79758
9.73833
9.67795
9.61641
9.55371
9.48982
9.42472
9.35841
9.29085
9.22204
9.15195
9.08056
9.00786
8.93383
8.85846
8.78171
8.70357
8.62403
8.54306
8.46064
8.37676
8.2914
8.20453
8.11613
8.02619
7.93469
7.84159
7.74689
7.65057
7.55259
7.45294
7.3516
7.24855
7.14376
7.0372
6.92981
6.82344
6.71901
6.61649
6.51583
6.41701
6.31999
6.22473
6.13121
6.03939
5.94924
5.86073
5.77382
5.68847
5.60467
5.52238
5.44157
5.36221
5.28427
5.20772
5.13253
5.05868
4.98614
4.91487
4.84487
4.77609
4.70851
4.64212
4.57688
4.51277
4.44976
4.38785
4.327
4.26718
4.2084
4.15061
4.0938
4.03795
3.98305
3.92907
3.87599
3.82381
3.7725
3.72205
3.67243
3.62365
3.57567
3.52849
3.48209
3.43646
3.39159
3.34746
3.30406
3.26138
3.21941
3.17813
3.13753
3.09761
3.05835
3.01975
2.98178
2.94444
2.90773
2.87162
2.83612
9.79759
9.73835
9.67796
9.61643
9.55372
9.48983
9.42473
9.35842
9.29086
9.22204
9.15195
9.08057
9.00787
8.93384
8.85846
8.78171
8.70358
8.62403
8.54306
8.46065
8.37676
8.2914
8.20453
8.11613
8.02619
7.93468
7.84159
7.74689
7.65056
7.55258
7.45293
7.35159
7.24854
7.14374
7.03719
6.92979
6.82342
6.71899
6.61646
6.5158
6.41698
6.31996
6.2247
6.13118
6.03936
5.9492
5.86069
5.77377
5.68843
5.60462
5.52233
5.44152
5.36215
5.28421
5.20766
5.13247
5.05862
4.98607
4.91481
4.8448
4.77602
4.70844
4.64205
4.5768
4.51269
4.44969
4.38778
4.32692
4.26711
4.20832
4.15054
4.09373
4.03789
3.98298
3.92901
3.87594
3.82376
3.77245
3.722
3.67239
3.62361
3.57564
3.52847
3.48208
3.43646
3.39159
3.34747
3.30408
3.26141
3.21945
3.17818
3.1376
3.09769
3.05844
3.01984
2.98189
2.94456
2.90786
2.87177
2.83628
9.79762
9.73837
9.67798
9.61645
9.55374
9.48985
9.42475
9.35843
9.29088
9.22206
9.15197
9.08058
9.00788
8.93385
8.85847
8.78172
8.70359
8.62404
8.54307
8.46066
8.37677
8.29141
8.20453
8.11614
8.02619
7.93469
7.84159
7.74689
7.65056
7.55258
7.45293
7.35159
7.24853
7.14374
7.03718
6.92978
6.82341
6.71898
6.61645
6.51579
6.41696
6.31993
6.22468
6.13115
6.03933
5.94917
5.86065
5.77374
5.68839
5.60459
5.52229
5.44148
5.36211
5.28417
5.20761
5.13242
5.05857
4.98602
4.91475
4.84474
4.77596
4.70839
4.64199
4.57675
4.51264
4.44963
4.38772
4.32687
4.26706
4.20827
4.15048
4.09368
4.03784
3.98294
3.92896
3.8759
3.82372
3.77242
3.72198
3.67237
3.6236
3.57563
3.52847
3.48208
3.43647
3.39161
3.3475
3.30412
3.26146
3.21951
3.17825
3.13768
3.09778
3.05854
3.01996
2.98201
2.9447
2.90801
2.87193
2.83645
9.79765
9.7384
9.67801
9.61648
9.55377
9.48988
9.42478
9.35846
9.2909
9.22208
9.15199
9.08061
9.00791
8.93388
8.85849
8.78174
8.70361
8.62406
8.54309
8.46067
8.37679
8.29142
8.20455
8.11615
8.02621
7.9347
7.8416
7.7469
7.65057
7.55259
7.45294
7.3516
7.24854
7.14374
7.03718
6.92978
6.82341
6.71897
6.61644
6.51578
6.41695
6.31992
6.22466
6.13114
6.03931
5.94916
5.86063
5.77371
5.68837
5.60456
5.52226
5.44145
5.36208
5.28413
5.20758
5.13239
5.05853
4.98598
4.91471
4.8447
4.77592
4.70834
4.64195
4.5767
4.51259
4.44959
4.38768
4.32682
4.26702
4.20823
4.15045
4.09364
4.0378
3.98291
3.92894
3.87587
3.8237
3.77241
3.72197
3.67237
3.6236
3.57564
3.52848
3.48211
3.4365
3.39165
3.34755
3.30418
3.26153
3.21958
3.17834
3.13777
3.09789
3.05866
3.02009
2.98216
2.94485
2.90817
2.87211
2.83664
9.79769
9.73844
9.67805
9.61651
9.55381
9.48991
9.42481
9.35849
9.29093
9.22212
9.15202
9.08064
9.00794
8.93391
8.85852
8.78177
8.70364
8.62409
8.54312
8.4607
8.37682
8.29145
8.20457
8.11618
8.02623
7.93472
7.84162
7.74692
7.65059
7.55261
7.45296
7.35161
7.24855
7.14375
7.03719
6.92979
6.82342
6.71898
6.61644
6.51578
6.41695
6.31992
6.22466
6.13113
6.03931
5.94915
5.86062
5.7737
5.68835
5.60455
5.52225
5.44143
5.36206
5.28411
5.20756
5.13236
5.05851
4.98596
4.91469
4.84468
4.77589
4.70832
4.64192
4.57668
4.51257
4.44956
4.38765
4.3268
4.26699
4.20821
4.15043
4.09363
4.03779
3.9829
3.92893
3.87587
3.8237
3.77241
3.72197
3.67238
3.62362
3.57567
3.52852
3.48215
3.43655
3.39171
3.34762
3.30425
3.26161
3.21968
3.17844
3.13789
3.09801
3.0588
3.02024
2.98231
2.94502
2.90836
2.8723
2.83684
9.79774
9.73849
9.6781
9.61656
9.55385
9.48996
9.42486
9.35854
9.29098
9.22216
9.15206
9.08068
9.00798
8.93394
8.85856
8.78181
8.70367
8.62413
8.54315
8.46073
8.37685
8.29148
8.20461
8.11621
8.02626
7.93475
7.84165
7.74695
7.65062
7.55263
7.45298
7.35163
7.24857
7.14377
7.03721
6.92981
6.82343
6.71899
6.61646
6.51579
6.41696
6.31993
6.22467
6.13114
6.03931
5.94915
5.86063
5.7737
5.68835
5.60455
5.52225
5.44143
5.36206
5.28411
5.20755
5.13235
5.0585
4.98595
4.91468
4.84467
4.77588
4.7083
4.64191
4.57666
4.51255
4.44955
4.38764
4.32679
4.26699
4.2082
4.15042
4.09363
4.03779
3.9829
3.92894
3.87588
3.82372
3.77243
3.722
3.67242
3.62366
3.57572
3.52857
3.48221
3.43662
3.39179
3.3477
3.30435
3.26172
3.21979
3.17857
3.13803
3.09816
3.05895
3.0204
2.98249
2.94521
2.90855
2.87251
2.83706
9.7978
9.73855
9.67816
9.61662
9.55391
9.49001
9.42491
9.35859
9.29103
9.22221
9.15211
9.08072
9.00802
8.93399
8.85861
8.78186
8.70372
8.62417
8.5432
8.46078
8.37689
8.29152
8.20465
8.11625
8.0263
7.93479
7.84169
7.74699
7.65065
7.55267
7.45301
7.35167
7.2486
7.1438
7.03724
6.92984
6.82346
6.71902
6.61648
6.51582
6.41698
6.31995
6.22469
6.13116
6.03933
5.94917
5.86064
5.77372
5.68837
5.60456
5.52225
5.44143
5.36206
5.28411
5.20755
5.13236
5.0585
4.98595
4.91468
4.84467
4.77589
4.70831
4.64191
4.57667
4.51256
4.44956
4.38765
4.3268
4.267
4.20822
4.15044
4.09364
4.03781
3.98293
3.92897
3.87592
3.82376
3.77248
3.72205
3.67247
3.62372
3.57578
3.52864
3.48229
3.43671
3.39189
3.34781
3.30447
3.26184
3.21993
3.17871
3.13818
3.09832
3.05913
3.02059
2.98269
2.94542
2.90877
2.87273
2.8373
9.79787
9.73862
9.67822
9.61668
9.55397
9.49007
9.42497
9.35865
9.29109
9.22227
9.15217
9.08078
9.00808
8.93404
8.85866
8.78191
8.70377
8.62422
8.54325
8.46083
8.37694
8.29157
8.2047
8.11629
8.02635
7.93484
7.84174
7.74703
7.6507
7.55271
7.45306
7.35171
7.24864
7.14384
7.03728
6.92988
6.8235
6.71905
6.61652
6.51585
6.41702
6.31998
6.22472
6.13119
6.03936
5.94919
5.86067
5.77374
5.68839
5.60458
5.52228
5.44146
5.36208
5.28413
5.20757
5.13238
5.05852
4.98597
4.9147
4.84469
4.7759
4.70833
4.64193
4.57669
4.51258
4.44958
4.38767
4.32683
4.26702
4.20825
4.15047
4.09368
4.03785
3.98297
3.92902
3.87597
3.82382
3.77254
3.72212
3.67255
3.6238
3.57587
3.52874
3.48239
3.43682
3.39201
3.34794
3.3046
3.26199
3.22009
3.17888
3.13836
3.09851
3.05933
3.0208
2.98291
2.94565
2.90901
2.87298
2.83755
9.79795
9.73869
9.6783
9.61675
9.55404
9.49014
9.42504
9.35872
9.29115
9.22233
9.15223
9.08084
9.00814
8.93411
8.85872
8.78197
8.70383
8.62428
8.54331
8.46089
8.377
8.29163
8.20475
8.11635
8.0264
7.93489
7.84179
7.74708
7.65075
7.55276
7.45311
7.35176
7.24869
7.14389
7.03733
6.92992
6.82354
6.7191
6.61656
6.51589
6.41706
6.32002
6.22476
6.13123
6.0394
5.94923
5.8607
5.77378
5.68843
5.60461
5.52231
5.44149
5.36212
5.28417
5.20761
5.13241
5.05855
4.986
4.91473
4.84472
4.77594
4.70836
4.64196
4.57672
4.51262
4.44962
4.38771
4.32687
4.26707
4.2083
4.15053
4.09374
4.03792
3.98304
3.92909
3.87605
3.8239
3.77263
3.72221
3.67264
3.62391
3.57598
3.52886
3.48252
3.43695
3.39215
3.34809
3.30476
3.26216
3.22027
3.17907
3.13856
3.09872
3.05955
3.02103
2.98315
2.9459
2.90927
2.87326
2.83784
9.79804
9.73877
9.67838
9.61683
9.55412
9.49022
9.42512
9.35879
9.29123
9.22241
9.15231
9.08092
9.00821
8.93418
8.85879
8.78204
8.7039
8.62435
8.54337
8.46095
8.37706
8.29169
8.20482
8.11641
8.02647
7.93495
7.84185
7.74715
7.65081
7.55282
7.45317
7.35182
7.24875
7.14395
7.03738
6.92998
6.8236
6.71916
6.61662
6.51595
6.41711
6.32008
6.22481
6.13128
6.03945
5.94928
5.86075
5.77383
5.68848
5.60466
5.52236
5.44154
5.36217
5.28421
5.20766
5.13246
5.0586
4.98605
4.91478
4.84477
4.77599
4.70841
4.64202
4.57678
4.51267
4.44968
4.38777
4.32693
4.26714
4.20837
4.1506
4.09382
4.038
3.98313
3.92918
3.87614
3.824
3.77273
3.72233
3.67277
3.62403
3.57612
3.529
3.48267
3.43711
3.39232
3.34827
3.30495
3.26235
3.22047
3.17928
3.13878
3.09896
3.0598
3.02129
2.98342
2.94618
2.90956
2.87355
2.83814
9.85627
9.79813
9.73886
9.67847
9.61692
9.55421
9.49031
9.4252
9.35888
9.29131
9.22249
9.15239
9.081
9.00829
8.93426
8.85887
8.78212
8.70397
8.62442
8.54345
8.46103
8.37714
8.29177
8.20489
8.11649
8.02654
7.93502
7.84192
7.74722
7.65088
7.55289
7.45324
7.35189
7.24882
7.14402
7.03745
6.93005
6.82366
6.71922
6.61668
6.51601
6.41718
6.32014
6.22487
6.13134
6.03951
5.94935
5.86082
5.77389
5.68854
5.60473
5.52242
5.4416
5.36223
5.28428
5.20772
5.13252
5.05866
4.98611
4.91485
4.84483
4.77605
4.70848
4.64208
4.57685
4.51274
4.44975
4.38785
4.32701
4.26722
4.20845
4.15069
4.09392
4.0381
3.98324
3.9293
3.87627
3.82413
3.77287
3.72247
3.67291
3.62419
3.57627
3.52917
3.48284
3.4373
3.39251
3.34847
3.30516
3.26257
3.2207
3.17952
3.13903
3.09922
3.06007
3.02157
2.98371
2.94648
2.90987
2.87387
2.83847
9.85637
9.79822
9.73896
9.67857
9.61702
9.5543
9.4904
9.42529
9.35897
9.2914
9.22258
9.15248
9.08108
9.00838
8.93434
8.85895
8.7822
8.70406
8.62451
8.54353
8.46111
8.37722
8.29185
8.20497
8.11657
8.02662
7.9351
7.842
7.74729
7.65096
7.55297
7.45331
7.35196
7.2489
7.14409
7.03753
6.93012
6.82374
6.7193
6.61676
6.51609
6.41725
6.32022
6.22495
6.13142
6.03959
5.94942
5.86089
5.77397
5.68861
5.6048
5.5225
5.44168
5.36231
5.28435
5.2078
5.1326
5.05874
4.98619
4.91492
4.84491
4.77613
4.70856
4.64217
4.57693
4.51283
4.44984
4.38794
4.32711
4.26732
4.20856
4.15081
4.09404
4.03823
3.98337
3.92944
3.87641
3.82428
3.77302
3.72263
3.67308
3.62436
3.57646
3.52936
3.48304
3.4375
3.39272
3.34869
3.3054
3.26282
3.22096
3.17979
3.13931
3.09951
3.06036
3.02188
2.98403
2.94681
2.91021
2.87422
2.83883
9.85648
9.79833
9.73907
9.67867
9.61712
9.5544
9.4905
9.42539
9.35907
9.2915
9.22267
9.15257
9.08118
9.00847
8.93443
8.85905
8.78229
8.70415
8.6246
8.54362
8.4612
8.37731
8.29194
8.20506
8.11665
8.02671
7.93519
7.84209
7.74738
7.65104
7.55306
7.4534
7.35205
7.24898
7.14418
7.03761
6.93021
6.82383
6.71938
6.61684
6.51617
6.41734
6.3203
6.22504
6.1315
6.03967
5.94951
5.86098
5.77406
5.6887
5.60489
5.52259
5.44177
5.3624
5.28445
5.20789
5.13269
5.05884
4.98629
4.91502
4.84501
4.77623
4.70866
4.64227
4.57704
4.51294
4.44995
4.38805
4.32722
4.26744
4.20869
4.15094
4.09418
4.03839
3.98354
3.92961
3.87659
3.82446
3.77321
3.72282
3.67328
3.62457
3.57667
3.52958
3.48327
3.43774
3.39297
3.34895
3.30566
3.2631
3.22124
3.18009
3.13962
3.09982
3.06069
3.02221
2.98438
2.94717
2.91058
2.8746
9.8566
9.79845
9.73918
9.67878
9.61723
9.55451
9.49061
9.4255
9.35917
9.2916
9.22278
9.15268
9.08128
9.00857
8.93454
8.85915
8.78239
8.70425
8.6247
8.54372
8.46129
8.37741
8.29203
8.20515
8.11675
8.0268
7.93529
7.84218
7.74748
7.65114
7.55315
7.45349
7.35214
7.24908
7.14427