/*--------------------------------*- C++ -*----------------------------------*\
  =========                 |
  \\      /  F ield         | OpenFOAM: The Open Source CFD Toolbox
   \\    /   O peration     | Website:  https://openfoam.org
    \\  /    A nd           | Version:  10
     \\/     M anipulation  |
\*---------------------------------------------------------------------------*/
FoamFile
{
    format      ascii;
    class       volVectorField;
    location    "37000";
    object      U;
}
// * * * * * * * * * * * * * * * * * * * * * * * * * * * * * * * * * * * * * //

dimensions      [0 1 -1 0 0 0 0];

internalField   nonuniform List<vector> 
17922
(
(-2.91479 3.18912 0)
(-2.91097 3.18493 4.07533e-19)
(-2.90694 3.18051 -1.58784e-18)
(-2.9027 3.17585 1.92162e-24)
(-2.89824 3.17094 3.72045e-19)
(-2.89356 3.1658 7.24352e-19)
(-2.88866 3.16042 1.81159e-23)
(-2.88353 3.15478 3.38702e-19)
(-2.87818 3.1489 -2.9043e-21)
(-2.87261 3.14277 -3.20555e-19)
(-2.86681 3.13639 -2.47156e-18)
(-2.86077 3.12975 0)
(-2.8545 3.12285 0)
(-2.848 3.1157 -2.78446e-19)
(-2.84126 3.10828 2.7204e-19)
(-2.83428 3.1006 -2.60218e-19)
(-2.82706 3.09266 2.54279e-19)
(-2.8196 3.08444 -9.77461e-19)
(-2.8119 3.07596 -2.34699e-19)
(-2.80395 3.06721 -9.09283e-19)
(-2.79575 3.05818 -6.59127e-19)
(-2.7873 3.04888 2.11195e-19)
(-2.77861 3.03931 -1.02707e-18)
(-2.76966 3.02946 7.91877e-19)
(-2.76047 3.01934 -7.64034e-19)
(-2.75102 3.00894 0)
(-2.74132 2.99826 0)
(-2.73137 2.98731 0)
(-2.72126 2.97618 1.34074e-18)
(-2.71117 2.96508 1.65151e-19)
(-2.70119 2.95411 4.94773e-19)
(-2.69134 2.94327 1.31495e-18)
(-2.6816 2.93258 -5.72908e-19)
(-2.672 2.92202 5.69093e-19)
(-2.66253 2.91162 -6.48543e-19)
(-2.65319 2.90137 0)
(-2.64399 2.89128 7.99654e-20)
(-2.63493 2.88135 -8.03975e-19)
(-2.62601 2.87157 -4.81587e-19)
(-2.61723 2.86196 -8.01762e-19)
(-2.6086 2.85251 8.07155e-20)
(-2.60011 2.84322 -7.94672e-20)
(-2.59177 2.83411 -5.60295e-19)
(-2.58357 2.82516 -7.95813e-20)
(-2.57552 2.81638 6.43265e-19)
(-2.56762 2.80777 -1.12519e-18)
(-2.55987 2.79932 -1.17465e-21)
(-2.55227 2.79105 -6.46576e-19)
(-2.54482 2.78295 5.65485e-19)
(-2.53753 2.77502 0)
(-2.53038 2.76727 3.25304e-19)
(-2.52339 2.75968 3.26307e-19)
(-2.51655 2.75227 -4.08679e-19)
(-2.50986 2.74503 4.11344e-19)
(-2.50333 2.73796 0)
(-2.49694 2.73107 2.48953e-19)
(-2.49071 2.72434 8.37014e-20)
(-2.48463 2.71779 3.33854e-19)
(-2.4787 2.71141 0)
(-2.47292 2.70519 -3.36784e-19)
(-2.46729 2.69915 0)
(-2.4618 2.69327 8.435e-20)
(-2.45646 2.68756 -4.27201e-19)
(-2.45125 2.68201 -3.4283e-19)
(-2.44619 2.67662 3.4441e-19)
(-2.44126 2.67138 -3.45953e-19)
(-2.43647 2.6663 2.6122e-19)
(-2.4318 2.66137 -1.74487e-19)
(-2.42726 2.65659 -4.38687e-19)
(-2.42284 2.65196 0)
(-2.41854 2.64746 1.76725e-19)
(-2.41436 2.6431 1.77415e-19)
(-2.41028 2.63887 -2.1557e-23)
(-2.40632 2.63476 2.6759e-19)
(-2.40245 2.63078 -2.69738e-19)
(-2.39869 2.62692 1.80055e-19)
(-2.39501 2.62317 1.80681e-19)
(-2.39143 2.61952 -3.62496e-19)
(-2.38794 2.61598 9.02951e-20)
(-2.38454 2.61254 -9.1756e-20)
(-2.38121 2.60919 2.73663e-19)
(-2.37797 2.60594 -1.83307e-19)
(-2.3748 2.60277 1.21715e-21)
(-2.3717 2.59968 9.26834e-20)
(-2.36868 2.59668 4.61071e-19)
(-2.36573 2.59374 6.61726e-24)
(-2.36285 2.59089 2.78849e-19)
(-2.36004 2.5881 0)
(-2.3573 2.58538 -9.25806e-20)
(-2.35462 2.58273 9.39996e-20)
(-2.35201 2.58014 -1.86672e-19)
(-2.34947 2.57761 9.50686e-20)
(-2.347 2.57514 1.88302e-19)
(-2.90715 3.1961 -4.29458e-19)
(-2.90334 3.19191 4.14129e-19)
(-2.89932 3.18747 -4.0511e-19)
(-2.89509 3.1828 1.56713e-18)
(-2.89064 3.17789 -1.23217e-23)
(-2.88598 3.17274 -3.67316e-19)
(-2.88109 3.16734 1.07454e-18)
(-2.87598 3.1617 0)
(-2.87065 3.1558 -1.67896e-18)
(-2.86509 3.14966 3.27114e-19)
(-2.8593 3.14326 1.2617e-18)
(-2.85328 3.13661 -1.22172e-18)
(-2.84703 3.1297 0)
(-2.84054 3.12253 0)
(-2.83382 3.1151 0)
(-2.82686 3.1074 1.33748e-18)
(-2.81966 3.09944 1.0329e-18)
(-2.81222 3.09121 7.4956e-19)
(-2.80453 3.08271 2.40525e-19)
(-2.7966 3.07394 6.99908e-19)
(-2.78843 3.06489 1.69137e-23)
(-2.78 3.05558 0)
(-2.77133 3.04598 2.09237e-19)
(-2.76241 3.03611 -1.01793e-18)
(-2.75324 3.02597 7.84967e-19)
(-2.74381 3.01555 0)
(-2.73414 3.00485 0)
(-2.72421 2.99387 0)
(-2.71413 2.98272 -2.87988e-23)
(-2.70406 2.9716 0)
(-2.69411 2.9606 1.68759e-19)
(-2.68428 2.94974 -1.70365e-19)
(-2.67458 2.93902 1.34529e-18)
(-2.665 2.92845 5.03413e-19)
(-2.65555 2.91802 1.67977e-19)
(-2.64624 2.90775 0)
(-2.63706 2.89763 -6.6266e-19)
(-2.62802 2.88768 6.6115e-19)
(-2.61912 2.87788 7.41851e-19)
(-2.61037 2.86824 5.76107e-19)
(-2.60175 2.85877 -5.76871e-19)
(-2.59328 2.84947 5.7546e-19)
(-2.58496 2.84033 0)
(-2.57679 2.83136 -8.17341e-20)
(-2.56876 2.82256 -6.58076e-19)
(-2.56088 2.81393 1.40333e-18)
(-2.55315 2.80546 8.20401e-20)
(-2.54557 2.79717 4.96799e-19)
(-2.53814 2.78905 -5.80263e-19)
(-2.53086 2.7811 4.15312e-19)
(-2.52374 2.77333 1.66812e-19)
(-2.51676 2.76572 -2.5037e-19)
(-2.50994 2.75829 3.35685e-19)
(-2.50327 2.75103 0)
(-2.49675 2.74395 -8.39e-20)
(-2.49039 2.73703 8.54112e-20)
(-2.48418 2.73029 3.40532e-19)
(-2.47811 2.72372 -3.41883e-19)
(-2.4722 2.71732 0)
(-2.46644 2.71109 -8.5565e-20)
(-2.46082 2.70502 8.71273e-20)
(-2.45535 2.69913 -8.62861e-20)
(-2.45002 2.69339 6.99244e-19)
(-2.44483 2.68782 4.38728e-19)
(-2.43979 2.68241 0)
(-2.43487 2.67716 0)
(-2.43009 2.67206 -8.81195e-20)
(-2.42544 2.66712 4.46039e-19)
(-2.42092 2.66232 7.15524e-19)
(-2.41651 2.65766 0)
(-2.41223 2.65314 0)
(-2.40806 2.64876 -2.71995e-19)
(-2.40399 2.64451 -1.8279e-19)
(-2.40004 2.64039 -9.17062e-20)
(-2.39619 2.63639 1.82794e-19)
(-2.39244 2.63251 -1.83368e-19)
(-2.38878 2.62874 -1.83911e-19)
(-2.38521 2.62507 9.28283e-20)
(-2.38174 2.62151 1.86149e-19)
(-2.37834 2.61805 1.8662e-19)
(-2.37503 2.61469 1.21518e-21)
(-2.3718 2.61142 -9.25285e-20)
(-2.36865 2.60823 3.55455e-24)
(-2.36557 2.60513 -2.80005e-19)
(-2.36257 2.6021 -9.31165e-20)
(-2.35963 2.59916 -2.81114e-19)
(-2.35677 2.59628 -9.34798e-20)
(-2.35398 2.59348 0)
(-2.35125 2.59075 0)
(-2.34859 2.58808 2.83337e-19)
(-2.346 2.58548 -9.48573e-20)
(-2.34348 2.58295 6.03061e-22)
(-2.34102 2.58047 0)
(-2.89926 3.20327 4.29941e-19)
(-2.89547 3.19906 -4.20833e-19)
(-2.89146 3.19462 1.62929e-18)
(-2.88724 3.18994 -1.58226e-18)
(-2.88281 3.18502 -7.68061e-19)
(-2.87815 3.17986 -3.71188e-19)
(-2.87328 3.17445 1.08632e-18)
(-2.86818 3.16879 1.4029e-18)
(-2.86286 3.16289 1.02173e-18)
(-2.85732 3.15673 -9.87403e-19)
(-2.85155 3.15032 0)
(-2.84554 3.14365 1.54572e-18)
(-2.83931 3.13673 -3.01143e-19)
(-2.83284 3.12954 -2.88666e-19)
(-2.82614 3.12209 2.82271e-19)
(-2.8192 3.11438 1.08687e-18)
(-2.81202 3.1064 -2.10279e-18)
(-2.80459 3.09815 0)
(-2.79693 3.08964 -7.38728e-19)
(-2.78902 3.08085 -2.84232e-21)
(-2.78087 3.07178 1.83375e-18)
(-2.77247 3.06244 -4.43598e-19)
(-2.76382 3.05283 8.59785e-19)
(-2.75492 3.04294 2.78726e-21)
(-2.74577 3.03277 -7.96296e-19)
(-2.73637 3.02232 1.94231e-19)
(-2.72672 3.0116 0)
(-2.71682 3.0006 1.78179e-19)
(-2.70676 2.98943 -1.58256e-18)
(-2.69672 2.97828 -1.73117e-19)
(-2.6868 2.96726 8.67779e-19)
(-2.677 2.95637 -6.89005e-19)
(-2.66731 2.94563 -8.55329e-19)
(-2.65776 2.93503 -3.41048e-19)
(-2.64834 2.92458 -3.39633e-19)
(-2.63905 2.91429 8.47368e-19)
(-2.62989 2.90415 8.42344e-19)
(-2.62088 2.89417 -1.6958e-19)
(-2.612 2.88435 0)
(-2.60327 2.87469 -8.3756e-19)
(-2.59468 2.8652 6.72925e-19)
(-2.58623 2.85587 1.68765e-19)
(-2.57793 2.84671 -5.86893e-19)
(-2.56978 2.83771 -7.54657e-19)
(-2.56177 2.82889 7.53997e-19)
(-2.55391 2.82024 -8.39357e-19)
(-2.5462 2.81175 -5.87733e-19)
(-2.53864 2.80344 0)
(-2.53123 2.7953 5.91154e-19)
(-2.52397 2.78733 -5.91299e-19)
(-2.51687 2.77953 -4.23263e-19)
(-2.50991 2.77191 8.56161e-20)
(-2.50311 2.76446 0)
(-2.49646 2.75718 0)
(-2.48996 2.75007 -3.4324e-19)
(-2.48362 2.74314 0)
(-2.47742 2.73638 -3.45697e-19)
(-2.47138 2.72979 0)
(-2.46548 2.72337 3.48275e-19)
(-2.45973 2.71712 0)
(-2.45413 2.71103 0)
(-2.44868 2.70512 0)
(-2.44337 2.69937 -3.53813e-19)
(-2.4382 2.69378 0)
(-2.43316 2.68835 -8.85391e-20)
(-2.42827 2.68308 1.79001e-19)
(-2.4235 2.67796 -1.79692e-19)
(-2.41886 2.67299 -2.69933e-19)
(-2.41435 2.66817 -3.62106e-19)
(-2.40996 2.6635 0)
(-2.40569 2.65896 -1.82331e-19)
(-2.40153 2.65456 1.82966e-19)
(-2.39749 2.65029 1.83548e-19)
(-2.39355 2.64615 0)
(-2.38971 2.64213 0)
(-2.38597 2.63823 9.19875e-20)
(-2.38233 2.63444 -9.3449e-20)
(-2.37878 2.63075 0)
(-2.37531 2.62718 -9.2713e-20)
(-2.37194 2.6237 -9.29152e-20)
(-2.36864 2.62032 0)
(-2.36542 2.61702 3.75609e-19)
(-2.36229 2.61382 1.88164e-19)
(-2.35923 2.6107 -1.88481e-19)
(-2.35624 2.60766 0)
(-2.35332 2.6047 9.51611e-20)
(-2.35047 2.60181 9.53212e-20)
(-2.3477 2.59899 1.89732e-19)
(-2.34499 2.59625 1.89451e-19)
(-2.34235 2.59357 -2.85601e-19)
(-2.33977 2.59096 9.5384e-20)
(-2.33726 2.58841 -1.20393e-21)
(-2.33482 2.58592 -9.6406e-20)
(-2.89113 3.21062 4.36358e-19)
(-2.88734 3.20641 -4.21162e-19)
(-2.88335 3.20196 -8.18572e-19)
(-2.87914 3.19727 1.199e-18)
(-2.87472 3.19234 3.86139e-19)
(-2.87008 3.18716 -7.52831e-19)
(-2.86522 3.18174 -1.10898e-23)
(-2.86014 3.17607 -3.5608e-19)
(-2.85483 3.17016 3.42389e-19)
(-2.8493 3.16399 9.98996e-19)
(-2.84355 3.15756 0)
(-2.83756 3.15088 0)
(-2.83134 3.14394 -1.21424e-18)
(-2.82489 3.13674 1.17606e-18)
(-2.81821 3.12927 0)
(-2.81129 3.12155 -1.37645e-18)
(-2.80413 3.11355 1.33492e-18)
(-2.79673 3.10528 -1.03204e-18)
(-2.78908 3.09674 1.99642e-18)
(-2.7812 3.08793 -2.39863e-19)
(-2.77306 3.07885 -6.98411e-19)
(-2.76468 3.06949 0)
(-2.75606 3.05986 -8.71415e-19)
(-2.74718 3.04994 -8.41843e-19)
(-2.73806 3.03975 1.015e-18)
(-2.72869 3.02928 -3.92607e-19)
(-2.71907 3.01854 1.90934e-19)
(-2.70919 3.00751 0)
(-2.69916 2.99631 0)
(-2.68915 2.98514 0)
(-2.67925 2.97409 -7.06048e-19)
(-2.66947 2.96318 0)
(-2.65982 2.95241 -6.97899e-19)
(-2.65029 2.94179 -8.66859e-19)
(-2.64089 2.93132 3.45818e-19)
(-2.63163 2.921 -8.62741e-19)
(-2.6225 2.91083 0)
(-2.61351 2.90083 0)
(-2.60466 2.89098 0)
(-2.59594 2.8813 1.6944e-19)
(-2.58738 2.87179 5.1032e-19)
(-2.57895 2.86244 -1.69163e-19)
(-2.57067 2.85325 8.53242e-19)
(-2.56254 2.84424 6.81717e-19)
(-2.55456 2.83539 6.82063e-19)
(-2.54672 2.82672 6.82683e-19)
(-2.53903 2.81821 3.84405e-23)
(-2.53149 2.80988 0)
(-2.5241 2.80171 -8.51512e-20)
(-2.51687 2.79372 7.73829e-19)
(-2.50978 2.78591 -2.5895e-19)
(-2.50285 2.77826 -4.32278e-19)
(-2.49606 2.77079 0)
(-2.48943 2.76349 -8.62094e-20)
(-2.48295 2.75637 4.36125e-19)
(-2.47663 2.74941 8.67636e-20)
(-2.47045 2.74263 1.75344e-19)
(-2.46442 2.73602 5.27885e-19)
(-2.45855 2.72958 -5.29795e-19)
(-2.45282 2.72331 4.43694e-19)
(-2.44724 2.71721 -8.83241e-20)
(-2.4418 2.71127 8.98923e-20)
(-2.4365 2.7055 3.58408e-19)
(-2.43135 2.69989 -8.93177e-20)
(-2.42633 2.69445 4.51955e-19)
(-2.42145 2.68915 -3.62381e-19)
(-2.4167 2.68402 0)
(-2.41208 2.67903 3.64992e-19)
(-2.40758 2.67419 9.09345e-20)
(-2.40321 2.6695 -2.76198e-19)
(-2.39895 2.66494 2.77096e-19)
(-2.39481 2.66052 9.30639e-20)
(-2.39078 2.65623 -4.62966e-19)
(-2.38685 2.65207 9.36002e-20)
(-2.38303 2.64803 0)
(-2.3793 2.6441 1.86922e-19)
(-2.37567 2.64029 3.74751e-19)
(-2.37214 2.63659 0)
(-2.36869 2.633 -2.81663e-19)
(-2.36533 2.6295 1.88544e-19)
(-2.36205 2.6261 -2.83934e-19)
(-2.35885 2.62279 -2.83191e-19)
(-2.35573 2.61957 1.23083e-21)
(-2.35268 2.61643 4.75046e-19)
(-2.34971 2.61337 0)
(-2.34681 2.6104 -9.57685e-20)
(-2.34398 2.60749 9.46575e-20)
(-2.34122 2.60466 -2.86822e-19)
(-2.33852 2.60191 -2.86617e-19)
(-2.3359 2.59921 9.56842e-20)
(-2.33334 2.59659 -9.58361e-20)
(-2.33085 2.59403 9.6622e-20)
(-2.32843 2.59154 0)
(-2.88273 3.21818 1.31519e-18)
(-2.87896 3.21395 -4.24334e-19)
(-2.87498 3.20949 4.15669e-19)
(-2.87078 3.20479 -8.05038e-19)
(-2.86637 3.19985 0)
(-2.86174 3.19466 0)
(-2.8569 3.18923 7.37897e-19)
(-2.85183 3.18355 -1.43268e-18)
(-2.84654 3.17762 -3.46054e-19)
(-2.84103 3.17144 3.38738e-19)
(-2.83529 3.165 1.30817e-18)
(-2.82932 3.1583 1.58391e-18)
(-2.82312 3.15135 9.20526e-19)
(-2.81669 3.14413 -2.38241e-18)
(-2.81003 3.13665 -1.15388e-18)
(-2.80313 3.1289 -2.77864e-19)
(-2.79599 3.12088 2.71933e-19)
(-2.78861 3.1126 7.86757e-19)
(-2.78098 3.10404 -1.51963e-18)
(-2.77312 3.09521 -2.46462e-19)
(-2.76501 3.08611 -2.35473e-19)
(-2.75666 3.07673 2.30532e-19)
(-2.74806 3.06707 1.10574e-18)
(-2.73921 3.05713 1.70909e-18)
(-2.73011 3.04692 -4.13527e-19)
(-2.72076 3.03643 3.99473e-19)
(-2.71117 3.02566 -2.85115e-21)
(-2.70132 3.01461 -1.87615e-19)
(-2.69132 3.00338 -1.80827e-19)
(-2.68134 2.99218 9.06155e-19)
(-2.67147 2.98111 0)
(-2.66171 2.97017 -5.37169e-19)
(-2.65209 2.95938 3.55248e-19)
(-2.64258 2.94873 8.85089e-19)
(-2.63321 2.93823 0)
(-2.62397 2.92789 -8.75308e-19)
(-2.61487 2.9177 1.76092e-19)
(-2.6059 2.90767 0)
(-2.59707 2.8978 6.95736e-19)
(-2.58839 2.88809 0)
(-2.57984 2.87855 -5.21626e-19)
(-2.57144 2.86918 5.18616e-19)
(-2.56319 2.85997 -1.71961e-19)
(-2.55508 2.85094 6.95532e-19)
(-2.54712 2.84207 -5.18696e-19)
(-2.5393 2.83337 -8.65975e-19)
(-2.53164 2.82484 6.97073e-19)
(-2.52412 2.81649 1.75131e-19)
(-2.51675 2.8083 -1.39323e-18)
(-2.50954 2.80029 -3.48981e-19)
(-2.50247 2.79245 2.02253e-23)
(-2.49556 2.78479 4.37562e-19)
(-2.48879 2.77729 -8.84881e-20)
(-2.48218 2.76997 0)
(-2.47572 2.76283 0)
(-2.46942 2.75585 -8.79959e-20)
(-2.46326 2.74905 -2.66094e-19)
(-2.45725 2.74242 -3.56778e-19)
(-2.4514 2.73596 0)
(-2.44569 2.72967 -2.60562e-23)
(-2.44012 2.72355 0)
(-2.4347 2.71759 0)
(-2.42942 2.7118 -7.25777e-19)
(-2.42429 2.70617 -3.64124e-19)
(-2.41929 2.70071 -3.65397e-19)
(-2.41442 2.6954 9.10544e-20)
(-2.40969 2.69024 -9.25835e-20)
(-2.40508 2.68523 2.77373e-19)
(-2.4006 2.68037 -2.76985e-19)
(-2.39624 2.67566 1.85655e-19)
(-2.392 2.67108 -3.7238e-19)
(-2.38788 2.66664 9.39757e-20)
(-2.38386 2.66233 2.81446e-19)
(-2.37995 2.65815 0)
(-2.37614 2.65409 0)
(-2.37243 2.65015 -1.88549e-19)
(-2.36882 2.64632 -3.7786e-19)
(-2.36529 2.6426 0)
(-2.36186 2.63898 1.89615e-19)
(-2.35851 2.63547 9.43411e-20)
(-2.35525 2.63205 1.88975e-19)
(-2.35206 2.62872 -2.86314e-19)
(-2.34896 2.62548 -1.90698e-19)
(-2.34593 2.62233 -1.90934e-19)
(-2.34297 2.61925 -1.91128e-19)
(-2.34009 2.61626 0)
(-2.33727 2.61334 -3.83072e-19)
(-2.33453 2.6105 1.91748e-19)
(-2.33186 2.60773 0)
(-2.32925 2.60503 9.61015e-20)
(-2.32671 2.60239 0)
(-2.32423 2.59982 -9.63848e-20)
(-2.32182 2.59732 -9.65647e-20)
(-2.87407 3.22593 -1.32053e-18)
(-2.8703 3.2217 1.71535e-18)
(-2.86633 3.21723 -3.14094e-21)
(-2.86215 3.21251 4.04118e-19)
(-2.85775 3.20756 0)
(-2.85314 3.20236 -7.6653e-19)
(-2.84831 3.19692 -7.44711e-19)
(-2.84326 3.19123 -1.80659e-18)
(-2.83799 3.18528 3.52651e-19)
(-2.83249 3.17908 -1.3631e-18)
(-2.82677 3.17263 -1.65172e-18)
(-2.82082 3.16592 -9.60642e-19)
(-2.81464 3.15895 0)
(-2.80823 3.15171 -2.99922e-19)
(-2.80158 3.14421 1.75291e-18)
(-2.7947 3.13645 -2.84544e-19)
(-2.78758 3.12842 1.09648e-18)
(-2.78023 3.12011 0)
(-2.77263 3.11154 2.34651e-23)
(-2.76479 3.10269 -9.94482e-19)
(-2.7567 3.09356 9.62124e-19)
(-2.74837 3.08416 -9.30585e-19)
(-2.73979 3.07448 8.99863e-19)
(-2.73097 3.06452 -8.69978e-19)
(-2.7219 3.05428 0)
(-2.71258 3.04376 0)
(-2.70302 3.03296 5.90261e-19)
(-2.6932 3.02189 1.90942e-19)
(-2.68323 3.01064 0)
(-2.67327 2.99941 -7.36728e-19)
(-2.66343 2.98831 0)
(-2.65371 2.97735 7.27039e-19)
(-2.6441 2.96653 -1.79353e-19)
(-2.63463 2.95585 -7.16572e-19)
(-2.62529 2.94533 3.58076e-19)
(-2.61607 2.93496 5.33718e-19)
(-2.60699 2.92474 0)
(-2.59805 2.91469 8.85008e-19)
(-2.58925 2.9048 -7.10138e-19)
(-2.58059 2.89507 -2.63892e-21)
(-2.57207 2.8855 7.02602e-19)
(-2.56369 2.8761 -7.07224e-19)
(-2.55546 2.86687 -3.52113e-19)
(-2.54738 2.85781 -5.2682e-19)
(-2.53944 2.84892 1.74779e-19)
(-2.53165 2.8402 -3.52344e-19)
(-2.524 2.83165 -5.27682e-19)
(-2.51651 2.82327 -1.75252e-19)
(-2.50916 2.81506 1.59242e-18)
(-2.50197 2.80703 0)
(-2.49493 2.79917 3.54886e-19)
(-2.48804 2.79148 0)
(-2.48129 2.78397 3.56463e-19)
(-2.47471 2.77663 0)
(-2.46827 2.76946 0)
(-2.46198 2.76246 -5.37705e-19)
(-2.45584 2.75564 5.41816e-19)
(-2.44986 2.74899 8.97276e-20)
(-2.44402 2.74251 -1.27029e-21)
(-2.43833 2.7362 -4.55274e-19)
(-2.43278 2.73006 -3.6484e-19)
(-2.42738 2.72408 0)
(-2.42212 2.71827 2.7349e-23)
(-2.417 2.71262 3.6836e-19)
(-2.41202 2.70714 9.17397e-20)
(-2.40717 2.7018 2.77362e-19)
(-2.40246 2.69663 0)
(-2.39787 2.6916 -2.80289e-19)
(-2.3934 2.68672 2.79815e-19)
(-2.38906 2.68199 -9.30982e-20)
(-2.38484 2.67739 9.46271e-20)
(-2.38072 2.67293 -9.48542e-20)
(-2.37672 2.6686 -9.50655e-20)
(-2.37283 2.6644 0)
(-2.36903 2.66032 0)
(-2.36534 2.65635 9.43837e-20)
(-2.36174 2.65251 1.8911e-19)
(-2.35823 2.64877 -1.25821e-21)
(-2.35482 2.64513 -1.92202e-19)
(-2.35148 2.6416 -1.25364e-21)
(-2.34824 2.63816 -1.91404e-19)
(-2.34507 2.63481 4.79635e-19)
(-2.34198 2.63156 1.91791e-19)
(-2.33896 2.62839 0)
(-2.33602 2.6253 1.92104e-19)
(-2.33316 2.62229 0)
(-2.33036 2.61936 1.27999e-23)
(-2.32763 2.6165 0)
(-2.32497 2.61372 9.57376e-20)
(-2.32238 2.611 -1.22238e-21)
(-2.31985 2.60836 -9.65561e-20)
(-2.3174 2.60578 9.72979e-20)
(-2.315 2.60327 1.93082e-19)
(-2.86512 3.23389 8.8651e-19)
(-2.86137 3.22964 -1.29302e-18)
(-2.85742 3.22516 4.21558e-19)
(-2.85325 3.22044 0)
(-2.84886 3.21548 0)
(-2.84427 3.21027 7.72787e-19)
(-2.83945 3.20481 0)
(-2.83442 3.1991 1.45965e-18)
(-2.82916 3.19315 1.41779e-18)
(-2.82368 3.18693 3.09605e-18)
(-2.81798 3.18046 -3.3565e-19)
(-2.81205 3.17374 0)
(-2.80588 3.16675 0)
(-2.79949 3.1595 1.22008e-18)
(-2.79287 3.15198 1.18285e-18)
(-2.78601 3.1442 2.85078e-19)
(-2.77891 3.13615 -1.39005e-18)
(-2.77158 3.12782 0)
(-2.764 3.11923 2.26209e-23)
(-2.75618 3.11035 2.24371e-23)
(-2.74812 3.10121 -9.76291e-19)
(-2.73982 3.09178 2.34684e-19)
(-2.73127 3.08208 -1.14377e-18)
(-2.72247 3.07209 2.19454e-19)
(-2.71343 3.06183 -2.96768e-21)
(-2.70414 3.05129 -2.07999e-19)
(-2.6946 3.04047 -7.98435e-19)
(-2.68482 3.02936 -1.5422e-18)
(-2.67487 3.01808 -1.50982e-18)
(-2.66495 3.00683 0)
(-2.65513 2.9957 1.84636e-19)
(-2.64544 2.98471 -1.86303e-19)
(-2.63587 2.97386 0)
(-2.62642 2.96316 7.31574e-19)
(-2.6171 2.95261 -5.47563e-19)
(-2.60792 2.94221 -3.62685e-19)
(-2.59887 2.93197 3.61445e-19)
(-2.58995 2.92189 -9.02359e-19)
(-2.58118 2.91198 -7.19039e-19)
(-2.57254 2.90222 0)
(-2.56405 2.89263 -1.61096e-18)
(-2.5557 2.88321 1.80278e-19)
(-2.54749 2.87395 -1.77504e-19)
(-2.53943 2.86487 1.80091e-19)
(-2.53151 2.85595 -5.37647e-19)
(-2.52375 2.84721 -1.8016e-19)
(-2.51613 2.83863 1.25414e-18)
(-2.50866 2.83023 1.80454e-19)
(-2.50134 2.822 -7.17524e-19)
(-2.49417 2.81395 0)
(-2.48714 2.80606 3.59903e-19)
(-2.48027 2.79835 -3.60599e-19)
(-2.47356 2.79082 -3.61384e-19)
(-2.46699 2.78346 -1.79808e-19)
(-2.46057 2.77627 1.82829e-19)
(-2.45431 2.76925 3.64021e-19)
(-2.44819 2.76241 -1.8379e-19)
(-2.44223 2.75574 -5.50251e-19)
(-2.43641 2.74924 5.49226e-19)
(-2.43074 2.74291 1.82739e-19)
(-2.42521 2.73674 3.69151e-19)
(-2.41983 2.73075 1.83821e-19)
(-2.41459 2.72492 1.84376e-19)
(-2.40949 2.71925 -1.84896e-19)
(-2.40453 2.71374 -1.85416e-19)
(-2.3997 2.70839 0)
(-2.395 2.70319 -9.323e-20)
(-2.39043 2.69814 -2.81704e-19)
(-2.38598 2.69324 3.77418e-19)
(-2.38165 2.68849 -9.39463e-20)
(-2.37744 2.68387 1.90896e-19)
(-2.37335 2.67939 9.56488e-20)
(-2.36936 2.67504 -9.45645e-20)
(-2.36548 2.67082 1.27478e-21)
(-2.3617 2.66672 3.82181e-19)
(-2.35803 2.66273 -9.63324e-20)
(-2.35444 2.65886 0)
(-2.35095 2.65511 -9.532e-20)
(-2.34755 2.65145 -9.5422e-20)
(-2.34423 2.6479 0)
(-2.341 2.64444 1.9246e-19)
(-2.33785 2.64108 -1.92613e-19)
(-2.33478 2.63781 -9.57356e-20)
(-2.33178 2.63462 9.70367e-20)
(-2.32886 2.63152 1.92913e-19)
(-2.326 2.62849 0)
(-2.32322 2.62555 1.93102e-19)
(-2.32051 2.62268 9.72078e-20)
(-2.31787 2.61988 6.16369e-22)
(-2.31529 2.61715 -6.11085e-22)
(-2.31278 2.6145 -2.90422e-19)
(-2.31034 2.61191 9.81355e-20)
(-2.30796 2.60939 9.76578e-20)
(-2.85589 3.24205 -1.78219e-18)
(-2.85215 3.2378 0)
(-2.84821 3.23331 0)
(-2.84405 3.22858 8.19404e-19)
(-2.83969 3.2236 -8.0359e-19)
(-2.8351 3.21838 -3.90878e-19)
(-2.8303 3.21291 -7.57115e-19)
(-2.82529 3.20719 7.3599e-19)
(-2.82005 3.20122 -2.14568e-18)
(-2.81459 3.19499 -1.3865e-18)
(-2.8089 3.1885 6.7477e-19)
(-2.80299 3.18176 -3.29113e-19)
(-2.79685 3.17476 -1.27158e-18)
(-2.79048 3.16749 1.54059e-18)
(-2.78387 3.15995 -1.49735e-18)
(-2.77703 3.15215 1.4488e-18)
(-2.76996 3.14408 -2.8272e-19)
(-2.76265 3.13573 1.08989e-18)
(-2.7551 3.12712 1.05588e-18)
(-2.74731 3.11822 2.15163e-23)
(-2.73927 3.10905 0)
(-2.73099 3.09961 7.20362e-19)
(-2.72247 3.08988 -6.94115e-19)
(-2.7137 3.07987 0)
(-2.70469 3.06958 0)
(-2.69543 3.05901 2.08354e-19)
(-2.68592 3.04816 -2.04405e-19)
(-2.67616 3.03703 1.94575e-19)
(-2.66625 3.02572 1.15167e-18)
(-2.65635 3.01444 1.9203e-19)
(-2.64657 3.00329 0)
(-2.63691 2.99227 0)
(-2.62737 2.98139 -5.62096e-19)
(-2.61795 2.97066 -1.87334e-19)
(-2.60866 2.96009 9.23881e-19)
(-2.5995 2.94966 -3.68597e-19)
(-2.59048 2.9394 -7.31795e-19)
(-2.58159 2.92929 1.0985e-18)
(-2.57284 2.91934 1.27695e-18)
(-2.56424 2.90956 0)
(-2.55577 2.89995 7.27742e-19)
(-2.54744 2.8905 -7.26807e-19)
(-2.53926 2.88122 -1.80206e-19)
(-2.53123 2.87211 1.82801e-19)
(-2.52334 2.86317 7.25773e-19)
(-2.5156 2.8544 0)
(-2.508 2.8458 -9.06517e-19)
(-2.50055 2.83738 1.09023e-18)
(-2.49326 2.82912 -1.83215e-19)
(-2.48611 2.82104 1.8344e-19)
(-2.47911 2.81314 -7.27003e-19)
(-2.47227 2.80541 5.49478e-19)
(-2.46557 2.79785 1.81755e-19)
(-2.45903 2.79047 -1.84747e-19)
(-2.45263 2.78326 1.82535e-19)
(-2.44639 2.77622 -1.85571e-19)
(-2.4403 2.76935 0)
(-2.43435 2.76266 3.70357e-19)
(-2.42856 2.75614 -3.71305e-19)
(-2.42291 2.74979 -2.45991e-23)
(-2.4174 2.74361 -3.73224e-19)
(-2.41204 2.73759 0)
(-2.40682 2.73174 -1.86302e-19)
(-2.40174 2.72605 3.76175e-19)
(-2.39679 2.72052 3.77142e-19)
(-2.39198 2.71514 3.78077e-19)
(-2.3873 2.70993 -1.90791e-19)
(-2.38275 2.70486 3.79894e-19)
(-2.37832 2.69994 -5.72383e-19)
(-2.37401 2.69516 -1.29661e-21)
(-2.36982 2.69052 0)
(-2.36574 2.68602 1.91489e-19)
(-2.36177 2.68165 -1.91816e-19)
(-2.3579 2.67741 1.92114e-19)
(-2.35414 2.67329 -3.84781e-19)
(-2.35048 2.66929 -2.88297e-19)
(-2.34692 2.6654 9.70568e-20)
(-2.34344 2.66162 1.93011e-19)
(-2.34006 2.65795 1.93176e-19)
(-2.33676 2.65437 0)
(-2.33354 2.6509 -9.73353e-20)
(-2.3304 2.64752 -1.93465e-19)
(-2.32735 2.64423 9.73896e-20)
(-2.32436 2.64103 0)
(-2.32146 2.63791 -3.87202e-19)
(-2.31862 2.63487 1.93625e-19)
(-2.31586 2.63191 9.62108e-20)
(-2.31316 2.62902 -1.94946e-19)
(-2.31053 2.62621 -6.12579e-22)
(-2.30797 2.62348 1.93852e-19)
(-2.30548 2.62081 0)
(-2.30305 2.61821 -9.70712e-20)
(-2.30068 2.61568 9.65779e-20)
(-2.84636 3.25044 8.95123e-19)
(-2.84264 3.24617 8.69056e-19)
(-2.83871 3.24167 -8.52907e-19)
(-2.83457 3.23692 8.24275e-19)
(-2.83021 3.23194 -8.0875e-19)
(-2.82565 3.2267 1.56474e-18)
(-2.82086 3.22122 -3.19048e-21)
(-2.81586 3.21548 1.48352e-18)
(-2.81064 3.2095 7.17987e-19)
(-2.8052 3.20325 -5.02025e-24)
(-2.79953 3.19675 5.03524e-24)
(-2.79364 3.19 9.87431e-19)
(-2.78752 3.18297 9.61818e-19)
(-2.78117 3.17569 -2.18353e-18)
(-2.77459 3.16813 -1.5139e-18)
(-2.76777 3.16031 -1.17366e-18)
(-2.76072 3.15222 0)
(-2.75343 3.14385 -1.37772e-18)
(-2.74591 3.13522 3.10847e-21)
(-2.73814 3.1263 2.33294e-18)
(-2.73013 3.11711 0)
(-2.72188 3.10763 -2.41444e-19)
(-2.71339 3.09788 2.368e-19)
(-2.70465 3.08785 -2.26154e-19)
(-2.69566 3.07754 3.06096e-21)
(-2.68643 3.06694 2.14678e-19)
(-2.67695 3.05606 -8.24664e-19)
(-2.66723 3.0449 1.59402e-18)
(-2.65735 3.03357 -1.9361e-19)
(-2.64749 3.02225 1.95201e-19)
(-2.63774 3.01107 9.6007e-19)
(-2.6281 3.00002 -9.56715e-19)
(-2.61859 2.98912 1.51935e-18)
(-2.6092 2.97836 -7.55614e-19)
(-2.59994 2.96776 -9.38592e-19)
(-2.59082 2.95731 7.51682e-19)
(-2.58182 2.94701 1.11915e-18)
(-2.57296 2.93688 -9.31057e-19)
(-2.56424 2.92691 -7.41714e-19)
(-2.55566 2.9171 0)
(-2.54722 2.90746 0)
(-2.53893 2.89798 7.37646e-19)
(-2.53077 2.88868 -5.54004e-19)
(-2.52276 2.87954 -1.85453e-19)
(-2.5149 2.87057 -7.36131e-19)
(-2.50718 2.86178 -5.53442e-19)
(-2.49961 2.85316 -3.6818e-19)
(-2.49219 2.84471 -5.5127e-19)
(-2.48492 2.83643 0)
(-2.4778 2.82833 -1.85891e-19)
(-2.47083 2.8204 7.36479e-19)
(-2.464 2.81265 -3.70115e-19)
(-2.45733 2.80507 1.86689e-19)
(-2.45081 2.79766 0)
(-2.44444 2.79043 -1.87373e-19)
(-2.43822 2.78337 -5.60639e-19)
(-2.43215 2.77648 0)
(-2.42623 2.76977 -5.60456e-19)
(-2.42045 2.76323 5.64373e-19)
(-2.41483 2.75685 -3.76266e-19)
(-2.40934 2.75065 3.77149e-19)
(-2.404 2.74461 -1.87698e-19)
(-2.3988 2.73874 1.90762e-19)
(-2.39374 2.73303 -3.79764e-19)
(-2.38882 2.72748 -7.61267e-19)
(-2.38402 2.72208 1.92029e-19)
(-2.37936 2.71684 1.92441e-19)
(-2.37483 2.71175 1.90217e-19)
(-2.37041 2.70681 1.90602e-19)
(-2.36612 2.70202 -1.43595e-23)
(-2.36195 2.69736 -1.92545e-19)
(-2.35789 2.69284 -1.92853e-19)
(-2.35393 2.68844 1.91829e-19)
(-2.35009 2.68418 -5.80045e-19)
(-2.34634 2.68004 7.7421e-19)
(-2.3427 2.67602 -3.87441e-19)
(-2.33915 2.67211 2.56658e-21)
(-2.33569 2.66831 -3.43144e-24)
(-2.33232 2.66462 -1.95352e-19)
(-2.32904 2.66103 9.64316e-20)
(-2.32584 2.65754 9.64461e-20)
(-2.32272 2.65414 9.64601e-20)
(-2.31968 2.65083 1.92916e-19)
(-2.31671 2.64761 -9.77094e-20)
(-2.31382 2.64448 1.94144e-19)
(-2.311 2.64142 -3.88221e-19)
(-2.30825 2.63845 0)
(-2.30557 2.63555 1.94069e-19)
(-2.30296 2.63273 9.70388e-20)
(-2.30041 2.62998 -1.93506e-19)
(-2.29793 2.6273 9.70974e-20)
(-2.29551 2.62469 -9.71567e-20)
(-2.29316 2.62215 6.0881e-22)
(-2.83652 3.25903 -1.80035e-18)
(-2.83282 3.25476 0)
(-2.8289 3.25025 0)
(-2.82477 3.24549 -8.31857e-19)
(-2.82043 3.24049 -8.10209e-19)
(-2.81588 3.23524 0)
(-2.81112 3.22975 -7.67842e-19)
(-2.80613 3.224 -1.49424e-18)
(-2.80093 3.218 -7.23508e-19)
(-2.79551 3.21174 -2.82015e-18)
(-2.78986 3.20522 2.06387e-18)
(-2.78399 3.19844 -2.6699e-18)
(-2.77789 3.1914 1.942e-18)
(-2.77156 3.1841 1.88583e-18)
(-2.765 3.17653 2.02579e-23)
(-2.75821 3.16868 0)
(-2.75118 3.16057 0)
(-2.74392 3.15219 0)
(-2.73642 3.14352 0)
(-2.72868 3.13459 -7.88595e-19)
(-2.7207 3.12537 -2.55785e-19)
(-2.71248 3.11587 0)
(-2.70401 3.1061 9.5415e-19)
(-2.6953 3.09604 2.29412e-19)
(-2.68634 3.0857 -2.25142e-19)
(-2.67714 3.07507 8.65571e-19)
(-2.6677 3.06417 8.37554e-19)
(-2.65801 3.05298 -1.61942e-18)
(-2.64816 3.04161 1.96729e-19)
(-2.63833 3.03027 5.88916e-19)
(-2.62861 3.01905 -2.03224e-23)
(-2.61901 3.00798 5.83731e-19)
(-2.60953 2.99705 3.85784e-19)
(-2.60018 2.98626 5.74103e-19)
(-2.59095 2.97563 7.63662e-19)
(-2.58185 2.96515 -9.48982e-19)
(-2.57289 2.95482 1.90782e-19)
(-2.56406 2.94466 0)
(-2.55537 2.93466 0)
(-2.54681 2.92483 0)
(-2.5384 2.91516 0)
(-2.53013 2.90566 9.33853e-19)
(-2.52201 2.89633 5.59106e-19)
(-2.51403 2.88716 9.31932e-19)
(-2.50619 2.87817 -1.87908e-19)
(-2.4985 2.86935 7.46136e-19)
(-2.49096 2.86071 0)
(-2.48356 2.85223 -1.85256e-19)
(-2.47632 2.84393 1.88082e-19)
(-2.46922 2.83581 1.85535e-19)
(-2.46227 2.82785 -5.62604e-19)
(-2.45548 2.82008 -3.74621e-19)
(-2.44883 2.81247 0)
(-2.44233 2.80504 -1.86532e-19)
(-2.43599 2.79779 5.65914e-19)
(-2.42979 2.79071 1.89874e-19)
(-2.42374 2.7838 5.67971e-19)
(-2.41785 2.77706 2.22631e-23)
(-2.41209 2.7705 -9.46838e-19)
(-2.40649 2.7641 5.71378e-19)
(-2.40103 2.75788 1.89085e-19)
(-2.39571 2.75182 -5.73723e-19)
(-2.39053 2.74592 1.89868e-19)
(-2.38549 2.74019 3.8052e-19)
(-2.38058 2.73462 1.60582e-23)
(-2.37581 2.72921 -1.63348e-23)
(-2.37117 2.72394 -1.03494e-23)
(-2.36665 2.71883 2.62843e-21)
(-2.36226 2.71387 3.87881e-19)
(-2.35799 2.70905 -1.9358e-19)
(-2.35383 2.70437 1.93838e-19)
(-2.34979 2.69983 0)
(-2.34585 2.69542 5.8149e-19)
(-2.34202 2.69113 -2.5986e-21)
(-2.3383 2.68697 -5.85032e-19)
(-2.33467 2.68293 -1.93382e-19)
(-2.33114 2.679 1.96058e-19)
(-2.32769 2.67519 1.94828e-19)
(-2.32434 2.67147 1.93561e-19)
(-2.32108 2.66787 -1.97387e-19)
(-2.31789 2.66435 -3.90898e-19)
(-2.31479 2.66094 -1.94755e-19)
(-2.31176 2.65762 -1.19956e-23)
(-2.30882 2.65438 0)
(-2.30594 2.65123 -1.93275e-19)
(-2.30314 2.64816 3.90141e-19)
(-2.3004 2.64517 0)
(-2.29773 2.64226 -1.94303e-19)
(-2.29514 2.63942 -1.94254e-19)
(-2.2926 2.63666 -9.71192e-20)
(-2.29014 2.63397 1.93659e-19)
(-2.28773 2.63136 -1.94959e-19)
(-2.28539 2.62881 1.755e-24)
(-2.82637 3.26786 3.23307e-21)
(-2.82267 3.26357 -8.7282e-19)
(-2.81877 3.25905 1.71473e-18)
(-2.81466 3.25428 8.32507e-19)
(-2.81034 3.24927 8.14381e-19)
(-2.8058 3.244 -7.90069e-19)
(-2.80105 3.23849 -7.66056e-19)
(-2.79609 3.23273 7.55257e-19)
(-2.7909 3.22671 -1.46368e-18)
(-2.7855 3.22044 2.84786e-18)
(-2.77987 3.21391 2.07396e-18)
(-2.77402 3.20711 6.69939e-19)
(-2.76795 3.20005 6.50976e-19)
(-2.76164 3.19273 -1.91004e-18)
(-2.7551 3.18514 2.46933e-18)
(-2.74834 3.17727 -5.9619e-19)
(-2.74134 3.16914 5.84985e-19)
(-2.7341 3.16073 1.12906e-18)
(-2.72663 3.15205 -5.44437e-19)
(-2.71891 3.14309 5.34236e-19)
(-2.71096 3.13385 -1.02969e-18)
(-2.70277 3.12432 0)
(-2.69433 3.11452 7.26818e-19)
(-2.68565 3.10444 2.35756e-19)
(-2.67673 3.09407 -9.07148e-19)
(-2.66756 3.08342 -8.78331e-19)
(-2.65815 3.07248 8.50202e-19)
(-2.64849 3.06126 1.84854e-18)
(-2.63868 3.04986 -2.02923e-19)
(-2.62888 3.03849 1.98316e-19)
(-2.6192 3.02725 -9.9353e-19)
(-2.60963 3.01614 0)
(-2.60018 3.00518 -7.8337e-19)
(-2.59086 2.99436 9.72234e-19)
(-2.58166 2.9837 5.79818e-19)
(-2.5726 2.97319 0)
(-2.56366 2.96284 -1.90676e-19)
(-2.55486 2.95265 3.8291e-19)
(-2.5462 2.94262 -1.92306e-19)
(-2.53768 2.93276 5.72554e-19)
(-2.5293 2.92306 2.83103e-21)
(-2.52106 2.91353 -7.55715e-19)
(-2.51296 2.90417 3.78725e-19)
(-2.50501 2.89499 -9.47231e-19)
(-2.4972 2.88597 9.43764e-19)
(-2.48954 2.87712 -1.90333e-19)
(-2.48202 2.86845 1.87546e-19)
(-2.47466 2.85995 -1.90327e-19)
(-2.46744 2.85163 7.56086e-19)
(-2.46037 2.84348 -3.78274e-19)
(-2.45345 2.8355 -1.87931e-19)
(-2.44668 2.8277 5.69819e-19)
(-2.44006 2.82007 0)
(-2.43358 2.81262 -1.88595e-19)
(-2.42726 2.80534 1.91572e-19)
(-2.42109 2.79824 0)
(-2.41507 2.79131 -3.81651e-19)
(-2.40919 2.78455 7.64564e-19)
(-2.40347 2.77796 1.92826e-19)
(-2.39788 2.77154 -5.74082e-19)
(-2.39245 2.7653 1.90806e-19)
(-2.38715 2.75922 1.9116e-19)
(-2.38199 2.7533 -3.85621e-19)
(-2.37697 2.74755 0)
(-2.37209 2.74195 -1.92127e-19)
(-2.36734 2.73652 1.95087e-19)
(-2.36272 2.73123 -3.88106e-19)