/*--------------------------------*- C++ -*----------------------------------*\
  =========                 |
  \\      /  F ield         | OpenFOAM: The Open Source CFD Toolbox
   \\    /   O peration     | Website:  https://openfoam.org
    \\  /    A nd           | Version:  10
     \\/     M anipulation  |
\*---------------------------------------------------------------------------*/
FoamFile
{
    format      ascii;
    class       volScalarField;
    location    "36000";
    object      omega;
}
// * * * * * * * * * * * * * * * * * * * * * * * * * * * * * * * * * * * * * //

dimensions      [0 0 -1 0 0 0 0];

internalField   nonuniform List<scalar> 
17922
(
27.7798
27.2882
26.8136
26.3555
25.9137
25.4877
25.0773
24.6822
24.3022
23.9371
23.5866
23.2506
22.929
22.6216
22.3283
22.049
21.7838
21.5327
21.2956
21.0726
20.8639
20.6695
20.4897
20.3246
20.1747
20.0401
19.9213
19.8189
19.7339
19.6677
19.6198
19.5891
19.5747
19.5759
19.5918
19.6218
19.6654
19.722
19.7912
19.8724
19.9653
20.0696
20.1848
20.3107
20.447
20.5934
20.7496
20.9154
21.0906
21.2749
21.4681
21.6699
21.8801
22.0985
22.3248
22.5587
22.8
23.0483
23.3035
23.5652
23.8331
24.1068
24.3862
24.6707
24.9602
25.2543
25.5525
25.8547
26.1604
26.4693
26.7812
27.0958
27.4127
27.7318
28.053
28.3761
28.7011
29.0281
29.3572
29.6886
30.0228
30.3602
30.7014
31.0472
31.3985
31.7564
32.1221
32.4971
32.883
33.2817
33.6951
34.1257
34.5758
27.7802
27.2887
26.814
26.356
25.9141
25.4881
25.0777
24.6826
24.3026
23.9375
23.587
23.251
22.9293
22.6219
22.3286
22.0494
21.7842
21.533
21.2959
21.0729
20.8641
20.6698
20.4899
20.3249
20.1749
20.0403
19.9216
19.8191
19.7341
19.6679
19.6199
19.5892
19.5748
19.5759
19.5918
19.6219
19.6654
19.722
19.7911
19.8723
19.9651
20.0693
20.1845
20.3103
20.4465
20.5928
20.749
20.9147
21.0898
21.274
21.467
21.6687
21.8788
22.097
22.3231
22.5568
22.7979
23.0461
23.301
23.5625
23.8301
24.1036
24.3826
24.6669
24.956
25.2497
25.5477
25.8495
26.1548
26.4634
26.7749
27.089
27.4056
27.7244
28.0453
28.3681
28.6929
29.0198
29.3489
29.6805
30.0149
30.3527
30.6946
31.0412
31.3936
31.7529
32.1203
32.4973
32.8856
33.2871
33.7038
34.1381
34.5925
27.7806
27.2891
26.8144
26.3563
25.9144
25.4884
25.078
24.6829
24.3029
23.9378
23.5873
23.2513
22.9296
22.6222
22.3289
22.0496
21.7844
21.5333
21.2961
21.0732
20.8644
20.67
20.4902
20.3251
20.1751
20.0405
19.9218
19.8193
19.7343
19.6681
19.6201
19.5894
19.5749
19.576
19.5919
19.6219
19.6654
19.722
19.791
19.8721
19.965
20.0691
20.1842
20.31
20.4461
20.5923
20.7484
20.914
21.089
21.2731
21.466
21.6675
21.8775
22.0955
22.3215
22.555
22.7959
23.0438
23.2986
23.5598
23.8271
24.1004
24.3791
24.6631
24.9519
25.2453
25.5428
25.8442
26.1492
26.4574
26.7685
27.0823
27.3985
27.717
28.0376
28.3602
28.6849
29.0117
29.3408
29.6725
30.0073
30.3456
30.6881
31.0357
31.3892
31.75
32.1192
32.4983
32.8891
33.2935
33.7136
34.1518
34.6105
27.781
27.2894
26.8148
26.3567
25.9148
25.4888
25.0784
24.6833
24.3033
23.9381
23.5876
23.2516
22.9299
22.6225
22.3292
22.0499
21.7847
21.5335
21.2964
21.0734
20.8646
20.6702
20.4904
20.3253
20.1753
20.0407
19.922
19.8195
19.7345
19.6682
19.6202
19.5895
19.5751
19.5761
19.592
19.622
19.6654
19.7219
19.7909
19.872
19.9648
20.0689
20.1839
20.3096
20.4457
20.5918
20.7478
20.9133
21.0882
21.2721
21.465
21.6664
21.8762
22.0941
22.3198
22.5532
22.7939
23.0416
23.2961
23.557
23.8242
24.0971
24.3755
24.6592
24.9477
25.2407
25.5379
25.8389
26.1435
26.4513
26.762
27.0755
27.3913
27.7095
28.0298
28.3522
28.6767
29.0035
29.3326
29.6646
29.9997
30.3385
30.6818
31.0304
31.3852
31.7475
32.1186
32.5
32.8934
33.3009
33.7245
34.1667
34.63
27.7814
27.2898
26.8152
26.357
25.9151
25.4891
25.0787
24.6836
24.3036
23.9384
23.5879
23.2519
22.9302
22.6228
22.3295
22.0502
21.785
21.5338
21.2967
21.0737
20.8649
20.6705
20.4906
20.3256
20.1756
20.041
19.9222
19.8196
19.7347
19.6684
19.6204
19.5896
19.5752
19.5763
19.5921
19.622
19.6655
19.7219
19.7909
19.8719
19.9646
20.0687
20.1836
20.3093
20.4452
20.5913
20.7472
20.9126
21.0874
21.2712
21.4639
21.6652
21.8748
22.0926
22.3181
22.5513
22.7918
23.0393
23.2936
23.5543
23.8211
24.0938
24.3719
24.6552
24.9434
25.236
25.5329
25.8335
26.1377
26.4451
26.7555
27.0685
27.384
27.7019
28.0219
28.3441
28.6685
28.9952
29.3245
29.6567
29.9922
30.3317
30.6758
31.0254
31.3815
31.7455
32.1185
32.5023
32.8985
33.3092
33.7365
34.1828
34.6508
27.7818
27.2902
26.8155
26.3574
25.9155
25.4895
25.0791
24.6839
24.3039
23.9387
23.5882
23.2522
22.9305
22.6231
22.3297
22.0505
21.7853
21.5341
21.2969
21.0739
20.8651
20.6707
20.4909
20.3258
20.1758
20.0412
19.9224
19.8198
19.7349
19.6686
19.6206
19.5898
19.5753
19.5764
19.5922
19.6221
19.6655
19.7219
19.7908
19.8718
19.9645
20.0684
20.1834
20.3089
20.4448
20.5908
20.7466
20.9119
21.0866
21.2703
21.4629
21.664
21.8735
22.091
22.3165
22.5494
22.7897
23.037
23.291
23.5515
23.818
24.0904
24.3682
24.6512
24.939
25.2313
25.5277
25.828
26.1318
26.4388
26.7488
27.0614
27.3766
27.6941
28.0139
28.3359
28.6602
28.987
29.3164
29.6489
29.9848
30.325
30.6699
31.0207
31.3783
31.744
32.1191
32.5054
32.9045
33.3185
33.7496
34.2002
34.6731
27.7821
27.2906
26.8159
26.3578
25.9159
25.4898
25.0794
24.6843
24.3042
23.9391
23.5885
23.2525
22.9308
22.6234
22.33
22.0508
21.7855
21.5343
21.2972
21.0742
20.8654
20.671
20.4911
20.326
20.176
20.0414
19.9226
19.8201
19.7351
19.6688
19.6207
19.59
19.5755
19.5765
19.5923
19.6221
19.6655
19.7219
19.7908
19.8717
19.9643
20.0682
20.1831
20.3086
20.4444
20.5903
20.746
20.9112
21.0858
21.2694
21.4618
21.6628
21.8721
22.0895
22.3147
22.5475
22.7876
23.0346
23.2884
23.5486
23.8149
24.0869
24.3644
24.6471
24.9345
25.2264
25.5225
25.8224
26.1258
26.4324
26.742
27.0543
27.3691
27.6863
28.0059
28.3277
28.652
28.9787
29.3083
29.6411
29.9776
30.3184
30.6644
31.0164
31.3755
31.743
32.1204
32.5092
32.9114
33.3288
33.7639
34.219
34.6969
27.7825
27.2909
26.8163
26.3581
25.9162
25.4902
25.0797
24.6846
24.3046
23.9394
23.5889
23.2528
22.9311
22.6237
22.3303
22.051
21.7858
21.5346
21.2974
21.0744
20.8656
20.6712
20.4913
20.3262
20.1762
20.0416
19.9228
19.8203
19.7353
19.669
19.6209
19.5901
19.5756
19.5766
19.5924
19.6222
19.6656
19.7219
19.7908
19.8716
19.9642
20.068
20.1828
20.3082
20.444
20.5898
20.7454
20.9105
21.0849
21.2684
21.4607
21.6616
21.8707
22.088
22.313
22.5456
22.7854
23.0322
23.2857
23.5457
23.8116
24.0834
24.3606
24.6429
24.9299
25.2215
25.5172
25.8166
26.1196
26.4259
26.735
27.047
27.3615
27.6784
27.9977
28.3195
28.6436
28.9705
29.3003
29.6335
29.9705
30.3121
30.6591
31.0124
31.3732
31.7426
32.1223
32.5139
32.9192
33.3403
33.7794
34.2392
34.7222
27.7829
27.2913
26.8166
26.3585
25.9166
25.4905
25.0801
24.6849
24.3049
23.9397
23.5892
23.2531
22.9314
22.6239
22.3306
22.0513
21.7861
21.5349
21.2977
21.0747
20.8659
20.6714
20.4916
20.3265
20.1765
20.0418
19.923
19.8205
19.7355
19.6691
19.6211
19.5903
19.5758
19.5767
19.5925
19.6223
19.6656
19.7219
19.7907
19.8716
19.9641
20.0678
20.1825
20.3079
20.4435
20.5893
20.7448
20.9098
21.0841
21.2675
21.4596
21.6603
21.8693
22.0864
22.3112
22.5436
22.7832
23.0298
23.283
23.5427
23.8084
24.0798
24.3566
24.6386
24.9253
25.2164
25.5117
25.8108
26.1134
26.4192
26.728
27.0396
27.3538
27.6704
27.9895
28.3111
28.6353
28.9623
29.2923
29.6259
29.9636
30.3061
30.6542
31.0089
31.3713
31.7429
32.125
32.5194
32.928
33.3528
33.7962
34.2607
34.7491
27.7833
27.2917
26.817
26.3588
25.9169
25.4909
25.0804
24.6853
24.3052
23.94
23.5895
23.2534
22.9317
22.6242
22.3309
22.0516
21.7863
21.5351
21.298
21.0749
20.8661
20.6717
20.4918
20.3267
20.1767
20.0421
19.9232
19.8207
19.7357
19.6693
19.6213
19.5904
19.5759
19.5769
19.5926
19.6224
19.6657
19.7219
19.7907
19.8715
19.9639
20.0676
20.1823
20.3075
20.4431
20.5888
20.7442
20.9091
21.0833
21.2665
21.4585
21.6591
21.8679
22.0848
22.3094
22.5416
22.781
23.0273
23.2803
23.5396
23.805
24.0761
24.3526
24.6342
24.9205
25.2113
25.5062
25.8048
26.107
26.4124
26.7209
27.0321
27.3459
27.6623
27.9813
28.3028
28.627
28.9541
29.2844
29.6185
29.9569
30.3003
30.6496
31.0058
31.37
31.7437
32.1284
32.5258
32.9378
33.3665
33.8143
34.2837
34.7775
27.7837
27.2921
26.8174
26.3592
25.9173
25.4912
25.0807
24.6856
24.3055
23.9403
23.5898
23.2537
22.932
22.6245
22.3312
22.0519
21.7866
21.5354
21.2982
21.0752
20.8664
20.6719
20.492
20.3269
20.1769
20.0423
19.9235
19.8209
19.7359
19.6695
19.6215
19.5906
19.5761
19.577
19.5927
19.6224
19.6657
19.7219
19.7906
19.8714
19.9638
20.0674
20.182
20.3072
20.4427
20.5882
20.7435
20.9084
21.0824
21.2655
21.4574
21.6578
21.8665
22.0831
22.3076
22.5395
22.7787
23.0248
23.2775
23.5365
23.8016
24.0724
24.3485
24.6297
24.9157
25.2061
25.5005
25.7988
26.1005
26.4056
26.7136
27.0245
27.338
27.6542
27.9729
28.2944
28.6186
28.9459
29.2766
29.6113
29.9504
30.2948
30.6454
31.0031
31.3693
31.7453
32.1327
32.5331
32.9487
33.3814
33.8337
34.3082
34.8076
27.784
27.2924
26.8177
26.3596
25.9176
25.4915
25.0811
24.6859
24.3059
23.9406
23.5901
23.254
22.9323
22.6248
22.3314
22.0521
21.7869
21.5357
21.2985
21.0754
20.8666
20.6722
20.4923
20.3272
20.1771
20.0425
19.9237
19.8211
19.7361
19.6697
19.6217
19.5908
19.5762
19.5771
19.5928
19.6225
19.6658
19.7219
19.7906
19.8713
19.9636
20.0672
20.1817
20.3068
20.4423
20.5877
20.7429
20.9076
21.0816
21.2645
21.4563
21.6565
21.865
22.0815
22.3057
22.5374
22.7764
23.0222
23.2746
23.5334
23.7981
24.0685
24.3443
24.6252
24.9107
25.2007
25.4947
25.7926
26.0939
26.3986
26.7062
27.0167
27.33
27.646
27.9646
28.286
28.6103
28.9378
29.2689
29.6042
29.9441
30.2896
30.6415
31.001
31.3692
31.7476
32.1377
32.5414
32.9606
33.3975
33.8545
34.3342
34.8393
27.7844
27.2928
26.8181
26.3599
25.918
25.4919
25.0814
24.6863
24.3062
23.941
23.5904
23.2543
22.9326
22.6251
22.3317
22.0524
21.7872
21.5359
21.2987
21.0757
20.8669
20.6724
20.4925
20.3274
20.1774
20.0427
19.9239
19.8213
19.7363
19.6699
19.6218
19.591
19.5764
19.5773
19.5929
19.6226
19.6658
19.722
19.7906
19.8712
19.9635
20.067
20.1815
20.3065
20.4418
20.5872
20.7423
20.9069
21.0807
21.2635
21.4551
21.6552
21.8635
22.0798
22.3038
22.5353
22.774
23.0195
23.2717
23.5301
23.7945
24.0646
24.3401
24.6205
24.9057
25.1952
25.4889
25.7863
26.0872
26.3914
26.6987
27.0089
27.3219
27.6377
27.9562
28.2775
28.602
28.9298
29.2614
29.5973
29.9381
30.2848
30.6382
30.9994
31.3697
31.7506
32.1437
32.5507
32.9737
33.4149
33.8767
34.3617
34.8727
27.7848
27.2932
26.8185
26.3603
25.9183
25.4922
25.0817
24.6866
24.3065
23.9413
23.5907
23.2546
22.9329
22.6254
22.332
22.0527
21.7874
21.5362
21.299
21.076
20.8671
20.6727
20.4928
20.3277
20.1776
20.043
19.9241
19.8215
19.7365
19.6701
19.622
19.5911
19.5765
19.5774
19.593
19.6227
19.6659
19.722
19.7905
19.8711
19.9634
20.0668
20.1812
20.3062
20.4414
20.5867
20.7417
20.9061
21.0798
21.2625
21.454
21.6539
21.862
22.0781
22.3019
22.5332
22.7716
23.0168
23.2687
23.5268
23.7909
24.0606
24.3357
24.6158
24.9005
25.1897
25.4829
25.7799
26.0804
26.3842
26.6912
27.001
27.3138
27.6293
27.9477
28.2691
28.5937
28.9219
29.254
29.5906
29.9324
30.2803
30.6352
30.9983
31.3709
31.7544
32.1505
32.561
32.988
33.4336
33.9003
34.3907
34.9077
27.7852
27.2936
26.8188
26.3606
25.9187
25.4926
25.0821
24.6869
24.3068
23.9416
23.591
23.2549
22.9332
22.6257
22.3323
22.053
21.7877
21.5365
21.2993
21.0762
20.8674
20.6729
20.493
20.3279
20.1778
20.0432
19.9244
19.8218
19.7367
19.6703
19.6222
19.5913
19.5767
19.5776
19.5931
19.6228
19.6659
19.722
19.7905
19.8711
19.9632
20.0666
20.1809
20.3058
20.441
20.5861
20.741
20.9054
21.079
21.2615
21.4528
21.6525
21.8604
22.0763
22.2999
22.5309
22.7691
23.0141
23.2657
23.5235
23.7872
24.0566
24.3312
24.6109
24.8953
25.184
25.4768
25.7733
26.0735
26.3769
26.6835
26.993
27.3055
27.6209
27.9393
28.2607
28.5855
28.914
29.2467
29.5841
29.927
30.2763
30.6328
30.9979
31.3728
31.759
32.1583
32.5724
33.0034
33.4536
33.9253
34.4213
34.9443
27.7856
27.2939
26.8192
26.361
25.919
25.4929
25.0824
24.6872
24.3071
23.9419
23.5913
23.2552
22.9335
22.626
22.3326
22.0533
21.788
21.5367
21.2995
21.0765
20.8676
20.6732
20.4933
20.3281
20.1781
20.0434
19.9246
19.822
19.7369
19.6706
19.6224
19.5915
19.5769
19.5777
19.5933
19.6229
19.666
19.722
19.7905
19.871
19.9631
20.0664
20.1806
20.3054
20.4405
20.5856
20.7404
20.9046
21.0781
21.2605
21.4516
21.6511
21.8589
22.0746
22.2979
22.5287
22.7666
23.0113
23.2625
23.52
23.7834
24.0524
24.3267
24.606
24.8899
25.1782
25.4705
25.7667
26.0664
26.3695
26.6757
26.985
27.2972
27.6125
27.9308
28.2524
28.5774
28.9064
29.2397
29.578
29.922
30.2726
30.6309
30.9981
31.3754
31.7645
32.167
32.5848
33.02
33.4748
33.9518
34.4534
34.9826
29.929
29.3659
28.8214
28.2949
27.786
27.2943
26.8196
26.3614
25.9194
25.4933
25.0828
24.6876
24.3075
23.9422
23.5916
23.2555
22.9338
22.6263
22.3329
22.0535
21.7882
21.537
21.2998
21.0767
20.8679
20.6734
20.4935
20.3284
20.1783
20.0437
19.9248
19.8222
19.7371
19.6708
19.6226
19.5917
19.5771
19.5779
19.5934
19.623
19.666
19.722
19.7905
19.8709
19.963
20.0662
20.1804
20.3051
20.4401
20.585
20.7397
20.9038
21.0771
21.2594
21.4503
21.6497
21.8573
22.0728
22.2959
22.5264
22.764
23.0084
23.2594
23.5165
23.7795
24.0482
24.322
24.6009
24.8844
25.1723
25.4642
25.7599
26.0592
26.3619
26.6678
26.9768
27.2889
27.604
27.9223
28.2441
28.5694
28.8988
29.2329
29.5721
29.9173
30.2695
30.6296
30.9989
31.3788
31.7709
32.1767
32.5984
33.0379
33.4975
33.9797
34.4871
35.0226
29.9295
29.3663
28.8218
28.2953
27.7864
27.2947
26.82
26.3617
25.9197
25.4936
25.0831
24.6879
24.3078
23.9425
23.5919
23.2558
22.9341
22.6265
22.3331
22.0538
21.7885
21.5373
21.3001
21.077
20.8681
20.6737
20.4938
20.3286
20.1786
20.0439
19.925
19.8224
19.7374
19.671
19.6228
19.5919
19.5772
19.578
19.5935
19.6231
19.6661
19.7221
19.7905
19.8708
19.9628
20.066
20.1801
20.3047
20.4396
20.5845
20.739
20.903
21.0762
21.2583
21.4491
21.6483
21.8557
22.0709
22.2938
22.5241
22.7614
23.0055
23.2561
23.5129
23.7756
24.0438
24.3173
24.5957
24.8788
25.1662
25.4577
25.7531
26.052
26.3543
26.6599
26.9686
27.2805
27.5955
27.9139
28.2358
28.5615
28.8915
29.2263
29.5665
29.913
30.2668
30.6288
31.0004
31.383
31.7781
32.1875
32.6131
33.057
33.5215
34.009
34.5223
35.0642
29.9299
29.3668
28.8222
28.2957
27.7867
27.2951
26.8203
26.3621
25.9201
25.494
25.0835
24.6882
24.3081
23.9429
23.5923
23.2561
22.9344
22.6268
22.3334
22.0541
21.7888
21.5375
21.3003
21.0773
20.8684
20.6739
20.494
20.3289
20.1788
20.0442
19.9253
19.8227
19.7376
19.6712
19.623
19.5921
19.5774
19.5782
19.5937
19.6232
19.6662
19.7221
19.7904
19.8708
19.9627
20.0658
20.1798
20.3044
20.4392
20.5839
20.7384
20.9022
21.0753
21.2572
21.4478
21.6468
21.854
22.069
22.2917
22.5217
22.7587
23.0025
23.2528
23.5092
23.7715
24.0394
24.3125
24.5905
24.8731
25.1601
25.4512
25.7461
26.0446
26.3466
26.6518
26.9603
27.2721
27.5871
27.9055
28.2276
28.5538
28.8844
29.22
29.5613
29.9092
30.2646
30.6287
31.0027
31.388
31.7863
32.1993
32.6289
33.0774
33.5468
34.0399
34.5591
35.1074
31.7364
31.1145
30.5127
29.9304
29.3672
28.8226
28.296
27.7871
27.2955
26.8207
26.3625
25.9205
25.4943
25.0838
24.6886
24.3085
23.9432
23.5926
23.2565
22.9347
22.6271
22.3337
22.0544
21.7891
21.5378
21.3006
21.0775
20.8687
20.6742
20.4943
20.3291
20.1791
20.0444
19.9255
19.8229
19.7378
19.6714
19.6233
19.5923
19.5776
19.5783
19.5938
19.6233
19.6663
19.7221
19.7904
19.8707
19.9626
20.0656
20.1795
20.304
20.4387
20.5834
20.7377
20.9014
21.0743
21.2561
21.4465
21.6454
21.8523
22.0671
22.2895
22.5192
22.756
22.9995
23.2494
23.5055
23.7674
24.0349
24.3075
24.5851
24.8673
25.1539
25.4445
25.739
26.0371
26.3387
26.6437
26.952
27.2636
27.5786
27.8972
28.2196
28.5462
28.8774
29.2139
29.5565
29.9058
30.263
30.6292
31.0056
31.3939
31.7954
32.2121
32.646
33.099
33.5736
34.0721
34.5974
35.1523
31.7369
31.1149
30.5131
29.9308
29.3676
28.8229
28.2964
27.7875
27.2958
26.8211
26.3629
25.9208
25.4947
25.0841
24.6889
24.3088
23.9435
23.5929
23.2568
22.935
22.6274
22.334
22.0547
21.7894
21.5381
21.3009
21.0778
20.8689
20.6744
20.4945
20.3294
20.1793
20.0446
19.9258
19.8232
19.7381
19.6717
19.6235
19.5925
19.5778
19.5785
19.5939
19.6234
19.6663
19.7222
19.7904
19.8706
19.9624
20.0654
20.1793
20.3036
20.4382
20.5828
20.737
20.9006
21.0733
21.255
21.4452
21.6439
21.8506
22.0652
22.2873
22.5168
22.7532
22.9964
23.246
23.5017
23.7632
24.0303
24.3025
24.5797
24.8614
25.1475
25.4377
25.7318
26.0296
26.3309
26.6356
26.9437
27.2552
27.5702
27.8889
28.2116
28.5387
28.8707
29.2082
29.552
29.9029
30.2619
30.6303
31.0094
31.4006
31.8055
32.2261
32.6641
33.1219
33.6016
34.1058
34.6372
35.1986
31.7375
31.1154
30.5135
29.9312
29.368
28.8233
28.2968
27.7879
27.2962
26.8215
26.3632
25.9212
25.495
25.0845
24.6893
24.3091
23.9438
23.5932
23.2571
22.9353
22.6277
22.3343
22.0549
21.7896
21.5384
21.3011
21.078
20.8692
20.6747
20.4948
20.3296
20.1796
20.0449
19.926
19.8234
19.7383
19.6719
19.6237
19.5927
19.578
19.5787
19.5941
19.6235
19.6664
19.7222
19.7904
19.8706
19.9623
20.0652
20.179
20.3033
20.4378
20.5822
20.7363
20.8998
21.0724
21.2538
21.4439
21.6423
21.8488
22.0632
22.2851
22.5142
22.7504
22.9932
23.2425
23.4978
23.7589
24.0256
24.2974
24.5741
24.8554
25.1411
25.4309
25.7245
26.0219
26.3229
26.6273
26.9353
27.2467
27.5618
27.8807
28.2038
28.5315
28.8643
29.2029
29.5479
29.9005
30.2615
30.6322
31.0139
31.4082
31.8166
32.2411
32.6835
33.1461
33.631
34.1409
34.6785
35.2464
31.738
31.1159
30.5139
29.9316
29.3684
28.8237
28.2972
27.7883
27.2966
26.8218
26.3636
25.9216
25.4954
25.0848
24.6896
24.3094
23.9442
23.5935
23.2574
22.9356
22.628
22.3346
22.0552
21.7899
21.5386
21.3014
21.0783
20.8695
20.675
20.495
20.3299
20.1798
20.0451
19.9263
19.8236
19.7385
19.6721
19.6239
19.5929
19.5782
19.5789
19.5942
19.6236
19.6665
19.7222
19.7904
19.8705
19.9622
20.065
20.1787
20.3029
20.4373
20.5816
20.7356
20.8989
21.0714
21.2527
21.4426
21.6408
21.8471
22.0612
22.2828
22.5117
22.7475
22.99
23.2389
23.4938
23.7546
24.0208
24.2921
24.5684
24.8493
25.1345
25.4239
25.7172
26.0142
26.3149
26.6191
26.9269
27.2383
27.5535
27.8726
28.1962
28.5245
28.8582
29.1978
29.5443
29.8986
30.2616
30.6347
31.0193
31.4167
31.8287
32.2572
32.704
33.1715
33.6618
34.1774
34.7211
35.2957
31.7385
31.1163
30.5144
29.9321
29.3688
28.8241
28.2975
27.7886
27.297
26.8222
26.364
25.9219
25.4958
25.0852
24.6899
24.3098
23.9445
23.5938
23.2577
22.9359
22.6283
22.3349
22.0555
21.7902
21.5389
21.3017
21.0786
20.8697
20.6752
20.4953
20.3302
20.1801
20.0454
19.9265
19.8239
19.7388
19.6723
19.6241
19.5931
19.5784
19.579
19.5944
19.6238
19.6666
19.7223
19.7904
19.8704
19.962
20.0648
20.1784
20.3025
20.4368
20.581
20.7349
20.8981
21.0704
21.2515
21.4412
21.6392
21.8453
22.0591
22.2805
22.509
22.7445
22.9867
23.2352
23.4898
23.7501
24.0159
24.2868
24.5627
24.8431
25.1279
25.4168
25.7097
26.0064
26.3068
26.6108
26.9185
27.2299
27.5452
27.8647
28.1887
28.5177
28.8523
29.1932
29.5412
29.8972
30.2624
30.638
31.0254
31.4261
31.8418
32.2744
32.7257
33.1981
33.6938
34.2153
34.7652
35.3464
31.739
31.1168
30.5148
29.9325
29.3692
28.8245
28.2979
27.789
27.2974
26.8226
26.3643
25.9223
25.4961
25.0855
24.6903
24.3101
23.9448
23.5942
23.258
22.9362
22.6286
22.3352
22.0558
21.7905
21.5392
21.302
21.0789
20.87
20.6755
20.4956
20.3304
20.1803
20.0457
19.9268
19.8241
19.739
19.6726
19.6244
19.5933
19.5786
19.5792
19.5945
19.6239
19.6667
19.7223
19.7904
19.8704
19.9619
20.0646
20.1781
20.3021
20.4363
20.5804
20.7342
20.8972
21.0693
21.2503
21.4398
21.6376
21.8434
22.057
22.2781
22.5063
22.7415
22.9833
23.2315
23.4857
23.7456
24.0109
24.2814
24.5568
24.8368
25.1212
25.4097
25.7022
25.9986
26.2987
26.6025
26.9101
27.2215
27.537
27.8569
28.1814
28.5112
28.8468
29.189
29.5385
29.8965
30.2639
30.6421
31.0324
31.4365
31.8559
32.2926
32.7486
33.226
33.7271
34.2544
34.8105
35.3983
31.7395
31.1173
30.5153
29.9329
29.3696
28.8249
28.2983
27.7894
27.2977
26.823
26.3647
25.9227
25.4965
25.0859
24.6906
24.3105
23.9451
23.5945
23.2583
22.9365
22.6289
22.3355
22.0561
21.7908
21.5395
21.3022
21.0791
20.8703
20.6758
20.4958
20.3307
20.1806
20.0459
19.927
19.8244
19.7393
19.6728
19.6246
19.5936
19.5788
19.5794
19.5947
19.624
19.6667
19.7224
19.7904
19.8703
19.9618
20.0644
20.1779
20.3018
20.4359
20.5799
20.7334
20.8963
21.0683
21.2491
21.4384
21.636
21.8416
22.0549
22.2757
22.5036
22.7385
22.9799
23.2277
23.4815
23.7409
24.0059
24.2759
24.5509
24.8304
25.1144
25.4025
25.6946
25.9907
26.2905
26.5942
26.9017
27.2132
27.529
27.8492
28.1744
28.505
28.8417
29.1852
29.5364
29.8963
30.266
30.6469
31.0402
31.4477
31.871
32.312
32.7726
33.255
33.7616
34.2947
34.8571
35.4515
31.7399
31.1177
30.5157
29.9333
29.37
28.8253
28.2987
27.7898
27.2981
26.8233
26.3651
25.923
25.4968
25.0862
24.691
24.3108
23.9455
23.5948
23.2586
22.9368
22.6292
22.3358
22.0564
21.7911
21.5398
21.3025
21.0794
20.8705
20.676
20.4961
20.331
20.1809
20.0462
19.9273
19.8247
19.7395
19.6731
19.6249
19.5938
19.579
19.5796
19.5949
19.6242
19.6668
19.7224
19.7904
19.8702
19.9617
20.0642
20.1776
20.3014
20.4354
20.5793
20.7327
20.8955
21.0673
21.2479
21.437
21.6343
21.8397
22.0527
22.2732
22.5009
22.7354
22.9765
23.2238
23.4772
23.7363
24.0007
24.2703
24.5448
24.8239
25.1075
25.3952
25.687
25.9827
26.2823
26.5859
26.8934
27.205
27.521
27.8417
28.1676
28.4991
28.8369
29.1818
29.5348
29.8967
30.2688
30.6524
31.0489
31.4599
31.8871
32.3324
32.7977
33.2852
33.7973
34.3363
34.9049
35.5058
31.7404
31.1182
30.5161
29.9337
29.3704
28.8257
28.2991
27.7902
27.2985
26.8237
26.3655
25.9234
25.4972
25.0866
24.6913
24.3111
23.9458
23.5951
23.259
22.9371
22.6295
22.3361
22.0567
21.7913
21.54
21.3028
21.0797
20.8708
20.6763
20.4964
20.3312
20.1811
20.0465
19.9276
19.8249
19.7398
19.6733
19.6251
19.594
19.5792
19.5798
19.595
19.6243
19.667
19.7225
19.7904
19.8702
19.9615
20.064
20.1773
20.301
20.4349
20.5787
20.732
20.8946
21.0662
21.2466
21.4355
21.6327
21.8377
22.0505
22.2707
22.498
22.7322
22.9729
23.2199
23.4728
23.7315
23.9955
24.2647
24.5387
24.8174
25.1005
25.3878
25.6793
25.9747
26.2742
26.5776
26.8851
27.1969
27.5133
27.8345
28.161
28.4935
28.8325
29.179
29.5337
29.8977
30.2723
30.6588
31.0585
31.4731
31.9042
32.3538
32.8239
33.3165
33.8341
34.3789
34.9537
35.5612
31.7409
31.1186
30.5166
29.9341
29.3708
28.8261
28.2995
27.7905
27.2989
26.8241
26.3658
25.9237
25.4976
25.0869
24.6917
24.3115
23.9461
23.5955
23.2593
22.9374
22.6298
22.3364
22.057
21.7916
21.5403
21.3031
21.08
20.8711
20.6766
20.4967
20.3315
20.1814
20.0467
19.9278
19.8252
19.7401
19.6736
19.6254
19.5943
19.5794
19.58
19.5952
19.6244
19.6671
19.7225
19.7904
19.8702
19.9614
20.0638
20.177
20.3007
20.4344
20.5781
20.7312
20.8937
21.0652
21.2454
21.4341
21.631
21.8358
22.0483
22.2682
22.4952
22.729
22.9693
23.2159
23.4684
23.7266
23.9902
24.2589
24.5325
24.8108
25.0935
25.3804
25.6715
25.9667
26.266
26.5694
26.8769
27.1889
27.5056
27.8274
28.1548
28.4882
28.8286
29.1766
29.5332
29.8994
30.2766
30.6659
31.0689
31.4871
31.9223
32.3763
32.8511
33.3489
33.8719
34.4226
35.0036
35.6175
31.7414
31.1191
30.517
29.9346
29.3712
28.8265
28.2999
27.7909
27.2993
26.8245
26.3662
25.9241
25.4979
25.0873
24.692
24.3118
23.9465
23.5958
23.2596
22.9378
22.6301
22.3367
22.0573
21.7919
21.5406
21.3034
21.0803
20.8714
20.6769
20.4969
20.3318
20.1817
20.047
19.9281
19.8255
19.7403
19.6739
19.6256
19.5945
19.5797
19.5802
19.5954
19.6246
19.6672
19.7226
19.7904
19.8701
19.9613
20.0637
20.1768
20.3003
20.434
20.5775
20.7305
20.8928
21.0641
21.2441
21.4326
21.6293
21.8338
22.046
22.2656
22.4923
22.7257
22.9657
23.2119
23.464
23.7217
23.9849
24.2531
24.5263
24.8041
25.0864
25.373
25.6638
25.9587
26.2579
26.5612
26.8689
27.1811
27.4982
27.8206
28.1488
28.4834
28.8251
29.1747
29.5332
29.9018
30.2816
30.6739
31.0802
31.5021
31.9413
32.3998
32.8794
33.3823
33.9108
34.4673
35.0544
35.6746
31.7418
31.1195
30.5174
29.935
29.3716
28.8269
28.3002
27.7913
27.2996
26.8248
26.3666
25.9245
25.4983
25.0877
24.6924
24.3121
23.9468
23.5961
23.2599
22.9381
22.6305
22.337
22.0576
21.7922
21.5409
21.3037
21.0805
20.8717
20.6772
20.4972
20.3321
20.182
20.0473
19.9284
19.8258
19.7406
19.6741
19.6259
19.5948
19.5799
19.5804
19.5956
19.6248
19.6673
19.7227
19.7904
19.8701
19.9612
20.0635
20.1765
20.3
20.4335
20.5769
20.7298
20.8919
21.063
21.2429
21.4311
21.6275
21.8318
22.0438
22.263
22.4893
22.7224
22.962
23.2078
23.4594
23.7168
23.9795
24.2473
24.52
24.7974
25.0792
25.3655
25.656
25.9508
26.2497
26.5531
26.8609
27.1734
27.491
27.8141
28.1432
28.4789
28.822
29.1733
29.5339
29.9048
30.2873
30.6826
31.0923
31.518
31.9613
32.4242
32.9086
33.4167
33.9507
34.5129
35.106
35.7325
31.7423
31.1199
30.5178
29.9354
29.372
28.8273
28.3006
27.7917
27.3
26.8252
26.3669
25.9248
25.4986
25.088
24.6927
24.3125
23.9471
23.5964
23.2602
22.9384
22.6308
22.3373
22.0579
21.7925
21.5412
21.304
21.0808
20.872
20.6775
20.4975
20.3324
20.1823
20.0476
19.9287
19.826
19.7409
19.6744
19.6261
19.595
19.5801
19.5806
19.5958
19.6249
19.6674
19.7228
19.7905
19.8701
19.9612
20.0633
20.1763
20.2996
20.433
20.5763
20.729
20.891
21.062
21.2416
21.4296
21.6258
21.8298
22.0415
22.2604
22.4864
22.7191
22.9583
23.2036
23.4549
23.7117
23.974
24.2413
24.5136
24.7906
25.0721
25.358
25.6482
25.9428
26.2417
26.545
26.853
27.1659
27.484
27.8078
28.1379
28.4748
28.8194
29.1725
29.5352
29.9085
30.2937
30.6921
31.1053
31.5347
31.9822
32.4496
32.9388
33.452
33.9914
34.5594
35.1584
35.791
31.7427
31.1204
30.5182
29.9358
29.3724
28.8276
28.301
27.792
27.3004
26.8256
26.3673
25.9252
25.499
25.0884
24.6931
24.3128
23.9475
23.5968
23.2606
22.9387
22.6311
22.3376
22.0582
21.7928
21.5415
21.3042
21.0811
20.8722
20.6777
20.4978
20.3327
20.1826
20.0479
19.929
19.8263
19.7412
19.6747
19.6264
19.5953
19.5804
19.5809
19.596
19.6251
19.6676
19.7229
19.7905
19.8701
19.9611
20.0632
20.176
20.2993
20.4326
20.5757
20.7283
20.8901
21.0609
21.2403
21.4281
21.624
21.8278
22.0391
22.2577
22.4834
22.7157
22.9545
23.1994
23.4502
23.7067
23.9685
24.2354
24.5072
24.7838
25.0649
25.3505
25.6405
25.9349
26.2337
26.5371
26.8453
27.1586
27.4773
27.8019
28.133
28.4712
28.8173
29.1723
29.5371
29.9129
30.3009
30.7025
31.1191
31.5524
32.004
32.4759
32.9699
33.4882
34.033
34.6066
35.2114
35.8501
31.7432
31.1208
30.5186
29.9362
29.3728
28.828
28.3014
27.7924
27.3007
26.8259
26.3677
25.9256
25.4993
25.0887
24.6934
24.3132
23.9478
23.5971
23.2609
22.939
22.6314
22.3379
22.0585
21.7931
21.5418
21.3045
21.0814
20.8725
20.678
20.4981
20.333
20.1829
20.0482
19.9293
19.8266
19.7415
19.675
19.6267
19.5956
19.5807
19.5811
19.5962
19.6253
19.6678
19.723
19.7906
19.8701
19.961
20.0631
20.1758
20.299
20.4322
20.5751
20.7276
20.8893
21.0598
21.239
21.4266
21.6223
21.8258
22.0368
22.2551
22.4803
22.7123
22.9507
23.1952
23.4456
23.7016
23.9629
24.2294
24.5008
24.777
25.0577
25.343
25.6328
25.927
26.2259
26.5294
26.8378
27.1515
27.4708
27.7963
28.1284
28.468
28.8158
29.1727
29.5397
29.918
30.3089
30.7136
31.1338
31.5709
32.0267
32.503
33.0019
33.5252
34.0753
34.6544
35.265
35.9097
31.7436
31.1212
30.519
29.9365
29.3732
28.8284
28.3017
27.7928
27.3011
26.8263
26.368
25.9259
25.4997
25.0891
24.6937
24.3135
23.9481
23.5974
23.2612
22.9393
22.6317
22.3382
22.0588
21.7934
21.5421
21.3048
21.0817
20.8728
20.6783
20.4984
20.3333
20.1832
20.0485
19.9296
19.827
19.7418
19.6753
19.627
19.5959
19.5809
19.5814
19.5965
19.6255
19.6679
19.7232
19.7907
19.8701
19.961
20.063
20.1756
20.2986
20.4317
20.5746
20.7269
20.8884
21.0588
21.2378
21.4251
21.6205
21.8237
22.0344
22.2524
22.4773
22.7089
22.9468
23.1909
23.4409
23.6964
23.9573
24.2234
24.4944
24.7701
25.0506
25.3356
25.6251
25.9193
26.2181
26.5218
26.8305
27.1447
27.4647
27.791
28.1243
28.4653
28.8147
29.1736
29.5429
29.9238
30.3176
30.7256
31.1492
31.5902
32.0502
32.531
33.0346
33.563
34.1183
34.7029
35.3192
35.9696
32.3871
31.744
31.1216
30.5194
29.9369
29.3735
28.8287
28.3021
27.7931
27.3015
26.8266
26.3684
25.9263
25.5
25.0894
24.6941
24.3138
23.9485
23.5977
23.2615
22.9397
22.632
22.3385
22.0591
21.7937
21.5424
21.3051
21.082
20.8731
20.6786
20.4987
20.3336
20.1835
20.0488
19.9299
19.8273
19.7421
19.6756
19.6273
19.5962
19.5812
19.5817
19.5967
19.6257
19.6681
19.7233
19.7908
19.8702
19.961
20.0629
20.1754
20.2984
20.4313
20.5741
20.7262
20.8875
21.0577
21.2365
21.4236
21.6187
21.8217
22.0321
22.2497
22.4742
22.7054
22.943
23.1866
23.4361
23.6912
23.9517
24.2173
24.4879
24.7633
25.0434
25.3282
25.6175
25.9116
26.2105
26.5143
26.8234
27.1381
27.4588
27.7861
28.1206
28.4631
28.8143
29.1752
29.5468
29.9303
30.327
30.7383
31.1655
31.6104
32.0746
32.5598
33.0681
33.6014
34.162
34.7519
35.3737
36.0299
32.3875
31.7443
31.122
30.5198
29.9373
29.3739
28.8291
28.3025
27.7935
27.3018
26.827
26.3687
25.9266
25.5004
25.0897
24.6944
24.3142
23.9488
23.5981
23.2618
22.94
22.6323
22.3388
22.0594
21.794
21.5427
21.3055
21.0823
20.8735
20.679
20.499
20.3339
20.1838
20.0491
19.9302
19.8276
19.7425
19.6759
19.6276
19.5965
19.5815
19.582
19.597
19.626
19.6683
19.7235
19.7909
19.8703
19.961
20.0628
20.1753
20.2981
20.431
20.5735
20.7255
20.8867
21.0567
21.2352
21.4221
21.617
21.8196
22.0297
22.2469
22.4711
22.7019
22.9391
23.1823
23.4314
23.6861
23.9461
24.2113
24.4815
24.7565
25.0363
25.3208
25.6101
25.9041
26.203
26.5071
26.8166
27.1318
27.4534
27.7817
28.1174
28.4614
28.8144
29.1773
29.5513
29.9376
30.3373
30.7518
31.1826
31.6314
32.0997
32.5894
33.1023
33.6406
34.2062
34.8014
35.4287
36.0904
32.3879
31.7447
31.1223
30.5202
29.9376
29.3742
28.8295
28.3028
27.7938
27.3021
26.8273
26.3691
25.927
25.5007
25.0901
24.6948
24.3145
23.9491
23.5984
23.2622
22.9403
22.6326
22.3391
22.0597
21.7944
21.543
21.3058
21.0826
20.8738
20.6793
20.4993
20.3342
20.1841
20.0495
19.9306
19.8279
19.7428
19.6763
19.628
19.5968
19.5819
19.5823
19.5973
19.6263
19.6686
19.7237
19.7911
19.8704
19.961
20.0627
20.1751
20.2979
20.4306
20.573
20.7249
20.8859
21.0557
21.234
21.4206
21.6152
21.8175
22.0273
22.2442
22.468
22.6984
22.9352
23.178
23.4266
23.6809
23.9405
24.2053
24.4751
24.7498
25.0293
25.3136
25.6027
25.8967
26.1957
26.5001
26.81
27.1259
27.4482
27.7776
28.1147
28.4602
28.8151
29.1802
29.5566
29.9455
30.3482
30.7661
31.2005
31.6531
32.1256
32.6197
33.1372
33.6803
34.2509
34.8513
35.4837
32.3883
31.7451
31.1227
30.5205
29.938
29.3746
28.8298
28.3031
27.7942
27.3025
26.8277
26.3694
25.9273
25.5011
25.0904
24.6951
24.3148
23.9494
23.5987
23.2625
22.9406
22.633
22.3395
22.06
21.7947
21.5433
21.3061
21.083
20.8741
20.6796
20.4997
20.3345
20.1845
20.0498
19.9309