/*--------------------------------*- C++ -*----------------------------------*\
  =========                 |
  \\      /  F ield         | OpenFOAM: The Open Source CFD Toolbox
   \\    /   O peration     | Website:  https://openfoam.org
    \\  /    A nd           | Version:  10
     \\/     M anipulation  |
\*---------------------------------------------------------------------------*/
FoamFile
{
    format      ascii;
    class       volVectorField;
    location    "36000";
    object      Urel;
}
// * * * * * * * * * * * * * * * * * * * * * * * * * * * * * * * * * * * * * //

dimensions      [0 1 -1 0 0 0 0];

internalField   nonuniform List<vector> 
17922
(
(1.91197 -2.09161 0)
(1.89828 -2.07665 4.12741e-19)
(1.88449 -2.0616 -1.60809e-18)
(1.87061 -2.04643 2.13096e-24)
(1.85663 -2.03116 3.7674e-19)
(1.84254 -2.01578 7.33465e-19)
(1.82834 -2.00028 1.84674e-23)
(1.81403 -1.98466 3.42912e-19)
(1.79961 -1.96892 -2.95525e-21)
(1.78506 -1.95305 -3.24506e-19)
(1.77039 -1.93704 -2.50177e-18)
(1.7556 -1.9209 0)
(1.74067 -1.90461 0)
(1.7256 -1.88818 -2.81766e-19)
(1.71039 -1.8716 2.75271e-19)
(1.69504 -1.85486 -2.63266e-19)
(1.67954 -1.83795 2.57244e-19)
(1.66387 -1.82088 -9.88713e-19)
(1.64805 -1.80363 -2.37364e-19)
(1.63206 -1.7862 -9.19502e-19)
(1.6159 -1.76859 -6.66447e-19)
(1.59956 -1.75078 2.13505e-19)
(1.58303 -1.73277 -1.03819e-18)
(1.56631 -1.71455 8.00318e-19)
(1.54939 -1.69612 -7.72049e-19)
(1.53227 -1.67746 0)
(1.51492 -1.65857 0)
(1.49736 -1.63944 0)
(1.47972 -1.62022 1.35377e-18)
(1.4623 -1.60124 1.66712e-19)
(1.44525 -1.58265 4.9935e-19)
(1.42854 -1.56445 1.32683e-18)
(1.41218 -1.54661 -5.77958e-19)
(1.39614 -1.52912 5.7397e-19)
(1.38041 -1.51197 -6.53957e-19)
(1.36499 -1.49515 0)
(1.34987 -1.47865 8.05921e-20)
(1.33503 -1.46245 -8.10126e-19)
(1.32046 -1.44654 -4.85159e-19)
(1.30617 -1.43093 -8.07524e-19)
(1.29213 -1.41559 8.12807e-20)
(1.27834 -1.40051 -7.99977e-20)
(1.26479 -1.38569 -5.63928e-19)
(1.25148 -1.37113 -8.00759e-20)
(1.23839 -1.35681 6.47152e-19)
(1.22553 -1.34272 -1.13172e-18)
(1.21288 -1.32885 -1.18873e-21)
(1.20043 -1.31521 -6.50041e-19)
(1.18818 -1.30177 5.68377e-19)
(1.17613 -1.28855 0)
(1.16426 -1.27552 3.26824e-19)
(1.15257 -1.26268 3.27759e-19)
(1.14105 -1.25002 -4.10404e-19)
(1.12971 -1.23755 4.12998e-19)
(1.11852 -1.22525 0)
(1.10749 -1.21311 2.49848e-19)
(1.09662 -1.20114 8.3987e-20)
(1.08589 -1.18932 3.34908e-19)
(1.07531 -1.17765 0)
(1.06487 -1.16613 -3.37708e-19)
(1.05457 -1.15476 0)
(1.04439 -1.14352 8.45442e-20)
(1.03435 -1.13242 -4.28124e-19)
(1.02444 -1.12145 -3.43503e-19)
(1.01465 -1.11061 3.45025e-19)
(1.00499 -1.0999 -3.46509e-19)
(0.995454 -1.08931 2.61597e-19)
(0.986037 -1.07885 -1.74707e-19)
(0.976741 -1.06851 -4.39174e-19)
(0.967564 -1.05829 0)
(0.958508 -1.04819 1.76865e-19)
(0.94957 -1.03822 1.7753e-19)
(0.940752 -1.02836 -2.14004e-23)
(0.932052 -1.01862 2.6769e-19)
(0.923471 -1.00901 -2.69814e-19)
(0.915009 -0.99951 1.80083e-19)
(0.906664 -0.990135 1.80691e-19)
(0.898438 -0.980882 -3.62484e-19)
(0.89033 -0.97175 9.02819e-20)
(0.882338 -0.96274 -9.17435e-20)
(0.874463 -0.953853 2.73597e-19)
(0.866703 -0.945089 -1.83258e-19)
(0.859058 -0.936448 1.22331e-21)
(0.851526 -0.927929 9.26585e-20)
(0.844105 -0.919532 4.60928e-19)
(0.836794 -0.911258 6.06401e-24)
(0.829591 -0.903105 2.78783e-19)
(0.822494 -0.895073 0)
(0.815501 -0.88716 -9.25663e-20)
(0.808609 -0.879365 9.39996e-20)
(0.801816 -0.871687 -1.86683e-19)
(0.795119 -0.864124 9.50929e-20)
(0.788515 -0.856674 1.88365e-19)
(1.90695 -2.09618 -4.35005e-19)
(1.89329 -2.08118 4.19445e-19)
(1.87954 -2.06609 -4.10306e-19)
(1.8657 -2.0509 1.58712e-18)
(1.85175 -2.03559 -1.27983e-23)
(1.8377 -2.02017 -3.71952e-19)
(1.82354 -2.00464 1.08806e-18)
(1.80926 -1.98899 0)
(1.79488 -1.97321 -1.69984e-18)
(1.78037 -1.9573 3.31168e-19)
(1.76574 -1.94126 1.2772e-18)
(1.75098 -1.92508 -1.23663e-18)
(1.73609 -1.90876 0)
(1.72106 -1.89229 0)
(1.7059 -1.87567 0)
(1.69058 -1.85889 1.35327e-18)
(1.67512 -1.84194 1.04497e-18)
(1.6595 -1.82483 7.58237e-19)
(1.64372 -1.80755 2.43274e-19)
(1.62777 -1.79008 7.07831e-19)
(1.61165 -1.77243 1.77719e-23)
(1.59535 -1.75458 0)
(1.57887 -1.73653 2.1151e-19)
(1.56219 -1.71827 -1.02887e-18)
(1.54532 -1.6998 7.93263e-19)
(1.52824 -1.6811 0)
(1.51094 -1.66216 0)
(1.49342 -1.64299 0)
(1.47583 -1.62372 -3.04465e-23)
(1.45846 -1.6047 0)
(1.44145 -1.58608 1.70327e-19)
(1.42479 -1.56783 -1.71926e-19)
(1.40847 -1.54995 1.35724e-18)
(1.39247 -1.53243 5.07775e-19)
(1.37679 -1.51524 1.69398e-19)
(1.36141 -1.49838 0)
(1.34633 -1.48184 -6.67929e-19)
(1.33153 -1.46561 6.66254e-19)
(1.317 -1.44967 7.47402e-19)
(1.30274 -1.43402 5.80281e-19)
(1.28874 -1.41865 -5.80924e-19)
(1.27499 -1.40354 5.79363e-19)
(1.26148 -1.38869 0)
(1.2482 -1.3741 -8.22472e-20)
(1.23515 -1.35974 -6.62078e-19)
(1.22232 -1.34562 1.41156e-18)
(1.2097 -1.33173 8.24986e-20)
(1.19729 -1.31806 4.99486e-19)
(1.18507 -1.3046 -5.83265e-19)
(1.17305 -1.29134 4.17366e-19)
(1.16121 -1.27829 1.67601e-19)
(1.14955 -1.26542 -2.51495e-19)
(1.13806 -1.25275 3.37124e-19)
(1.12675 -1.24025 0)
(1.11559 -1.22792 -8.42189e-20)
(1.10459 -1.21576 8.57252e-20)
(1.09374 -1.20377 3.41695e-19)
(1.08304 -1.19193 -3.42979e-19)
(1.07249 -1.18024 0)
(1.06207 -1.1687 -8.58001e-20)
(1.05179 -1.1573 8.73569e-20)
(1.04165 -1.14605 -8.64886e-20)
(1.03163 -1.13493 7.00788e-19)
(1.02174 -1.12394 4.39613e-19)
(1.01198 -1.11308 0)
(1.00234 -1.10235 0)
(0.992824 -1.09175 -8.82456e-20)
(0.983429 -1.08127 4.46625e-19)
(0.974155 -1.07092 7.1634e-19)
(0.965 -1.06069 0)
(0.955965 -1.05058 0)
(0.947048 -1.04059 -2.72185e-19)
(0.938249 -1.03072 -1.82898e-19)
(0.929569 -1.02097 -9.17484e-20)
(0.921007 -1.01134 1.82849e-19)
(0.912563 -1.00184 -1.83404e-19)
(0.904237 -0.992452 -1.83928e-19)
(0.896027 -0.983189 9.28323e-20)
(0.887935 -0.974048 1.86142e-19)
(0.879959 -0.965029 1.86601e-19)
(0.872098 -0.956133 1.22182e-21)
(0.864352 -0.94736 -9.25032e-20)
(0.85672 -0.938709 4.15471e-24)
(0.8492 -0.930181 -2.79927e-19)
(0.84179 -0.921776 -9.3089e-20)
(0.83449 -0.913492 -2.81043e-19)
(0.827297 -0.90533 -9.34578e-20)
(0.820209 -0.897287 0)
(0.813224 -0.889364 0)
(0.80634 -0.881559 2.83337e-19)
(0.799554 -0.87387 -9.48682e-20)
(0.792864 -0.866295 6.05903e-22)
(0.786266 -0.858833 0)
(1.90177 -2.10087 4.35492e-19)
(1.88815 -2.08584 -4.26264e-19)
(1.87444 -2.07071 1.65021e-18)
(1.86063 -2.05548 -1.6025e-18)
(1.84672 -2.04014 -7.77844e-19)
(1.8327 -2.02469 -3.75887e-19)
(1.81858 -2.00912 1.10004e-18)
(1.80435 -1.99343 1.42051e-18)
(1.79 -1.97761 1.03449e-18)
(1.77553 -1.96167 -9.99648e-19)
(1.76094 -1.94559 0)
(1.74622 -1.92938 1.56464e-18)
(1.73137 -1.91302 -3.04812e-19)
(1.71639 -1.89651 -2.92141e-19)
(1.70126 -1.87985 2.85656e-19)
(1.68599 -1.86303 1.09976e-18)
(1.67057 -1.84605 -2.1275e-18)
(1.65499 -1.8289 0)
(1.63925 -1.81158 -7.47238e-19)
(1.62335 -1.79407 -2.89032e-21)
(1.60727 -1.77637 1.85435e-18)
(1.59102 -1.75849 -4.48521e-19)
(1.57458 -1.7404 8.69213e-19)
(1.55795 -1.7221 2.8331e-21)
(1.54112 -1.70358 -8.04736e-19)
(1.52409 -1.68484 1.96268e-19)
(1.50684 -1.66586 0)
(1.48937 -1.64664 1.79964e-19)
(1.47183 -1.62733 -1.59816e-18)
(1.4545 -1.60827 -1.74774e-19)
(1.43754 -1.5896 8.75938e-19)
(1.42093 -1.57131 -6.95318e-19)
(1.40465 -1.5534 -8.62961e-19)
(1.3887 -1.53583 -3.44015e-19)
(1.37306 -1.51861 -3.42509e-19)
(1.35772 -1.50171 8.54352e-19)
(1.34268 -1.48514 8.49075e-19)
(1.32792 -1.46887 -1.70904e-19)
(1.31344 -1.45289 0)
(1.29922 -1.43721 -8.43665e-19)
(1.28526 -1.4218 6.77695e-19)
(1.27154 -1.40666 1.69925e-19)
(1.25807 -1.39178 -5.90769e-19)
(1.24483 -1.37716 -7.59464e-19)
(1.23182 -1.36277 7.58619e-19)
(1.21902 -1.34862 -8.44312e-19)
(1.20644 -1.3347 -5.91064e-19)
(1.19406 -1.321 0)
(1.18188 -1.30751 5.94242e-19)
(1.16988 -1.29423 -5.94246e-19)
(1.15808 -1.28115 -4.25276e-19)
(1.14645 -1.26826 8.60089e-20)
(1.13499 -1.25556 0)
(1.12371 -1.24303 0)
(1.11258 -1.23068 -3.44572e-19)
(1.10161 -1.2185 0)
(1.09079 -1.20648 -3.46889e-19)
(1.08012 -1.19462 0)
(1.06959 -1.18291 3.49329e-19)
(1.0592 -1.17135 0)
(1.04895 -1.15993 0)
(1.03883 -1.14866 0)
(1.02883 -1.13752 -3.54599e-19)
(1.01897 -1.12651 0)
(1.00923 -1.11564 -8.86987e-20)
(0.999618 -1.10489 1.793e-19)
(0.990125 -1.09428 -1.79961e-19)
(0.980754 -1.08378 -2.70287e-19)
(0.971502 -1.07341 -3.62526e-19)
(0.96237 -1.06317 0)
(0.953356 -1.05304 -1.82486e-19)
(0.944461 -1.04304 1.83095e-19)
(0.935684 -1.03316 1.83652e-19)
(0.927024 -1.0234 0)
(0.918482 -1.01376 0)
(0.910057 -1.00425 9.20032e-20)
(0.901749 -0.99485 -9.34628e-20)
(0.893558 -0.985577 0)
(0.885482 -0.976426 -9.27045e-20)
(0.877522 -0.967398 -9.29005e-20)
(0.869677 -0.958492 0)
(0.861946 -0.949709 3.75529e-19)
(0.854327 -0.941049 1.8812e-19)
(0.84682 -0.932512 -1.88434e-19)
(0.839423 -0.924097 0)
(0.832134 -0.915804 9.51437e-20)
(0.824952 -0.907631 9.53077e-20)
(0.817875 -0.899578 1.8971e-19)
(0.810899 -0.891645 1.8944e-19)
(0.804025 -0.883828 -2.85614e-19)
(0.797248 -0.876127 9.53992e-20)
(0.790565 -0.86854 -1.21037e-21)
(0.783976 -0.861065 -9.64506e-20)
(1.89643 -2.10568 4.42019e-19)
(1.88285 -2.09062 -4.26593e-19)
(1.86917 -2.07546 -8.29092e-19)
(1.8554 -2.06019 1.21438e-18)
(1.84153 -2.04482 3.91062e-19)
(1.82755 -2.02933 -7.62403e-19)
(1.81347 -2.01372 -1.13055e-23)
(1.79928 -1.99799 -3.60571e-19)
(1.78497 -1.98214 3.46668e-19)
(1.77054 -1.96616 1.01142e-18)
(1.75599 -1.95004 0)
(1.74132 -1.93379 0)
(1.72651 -1.91739 -1.22905e-18)
(1.71156 -1.90085 1.1903e-18)
(1.69648 -1.88415 0)
(1.68125 -1.86729 -1.39283e-18)
(1.66587 -1.85027 1.35068e-18)
(1.65034 -1.83308 -1.04409e-18)
(1.63464 -1.81571 2.01949e-18)
(1.61878 -1.79817 -2.42596e-19)
(1.60275 -1.78043 -7.06289e-19)
(1.58655 -1.7625 0)
(1.57015 -1.74437 -8.80998e-19)
(1.55357 -1.72602 -8.50967e-19)
(1.53679 -1.70746 1.02582e-18)
(1.51981 -1.68868 -3.96727e-19)
(1.50261 -1.66966 1.92911e-19)
(1.48519 -1.65039 0)
(1.46769 -1.63104 0)
(1.45042 -1.61193 0)
(1.43351 -1.59322 -7.12716e-19)
(1.41694 -1.57489 0)
(1.40071 -1.55693 -7.04167e-19)
(1.38481 -1.53933 -8.74434e-19)
(1.36921 -1.52206 3.48763e-19)
(1.35392 -1.50513 -8.69893e-19)
(1.33892 -1.48852 0)
(1.32421 -1.47221 0)
(1.30976 -1.45621 0)
(1.29558 -1.44049 1.70676e-19)
(1.28166 -1.42504 5.13939e-19)
(1.26799 -1.40987 -1.70317e-19)
(1.25455 -1.39496 8.58916e-19)
(1.24135 -1.3803 6.86085e-19)
(1.22838 -1.36589 6.86274e-19)
(1.21562 -1.35171 6.8674e-19)
(1.20307 -1.33776 3.90635e-23)
(1.19072 -1.32403 0)
(1.17858 -1.31051 -8.5595e-20)
(1.16662 -1.2972 7.77723e-19)
(1.15484 -1.28409 -2.60197e-19)
(1.14325 -1.27117 -4.34261e-19)
(1.13182 -1.25844 0)
(1.12057 -1.24589 -8.65616e-20)
(1.10947 -1.23352 4.37835e-19)
(1.09853 -1.22131 8.70802e-20)
(1.08774 -1.20927 1.75954e-19)
(1.0771 -1.19738 5.29609e-19)
(1.0666 -1.18565 -5.31414e-19)
(1.05623 -1.17407 4.44962e-19)
(1.04601 -1.16263 -8.85539e-20)
(1.03591 -1.15134 9.01162e-20)
(1.02595 -1.14018 3.59214e-19)
(1.01611 -1.12916 -8.94974e-20)
(1.0064 -1.11826 4.52804e-19)
(0.996805 -1.1075 -3.62993e-19)
(0.987337 -1.09687 0)
(0.97799 -1.08636 3.65484e-19)
(0.968762 -1.07597 9.10382e-20)
(0.959652 -1.06571 -2.76484e-19)
(0.950661 -1.05557 2.77341e-19)
(0.941788 -1.04556 9.31352e-20)
(0.933032 -1.03566 -4.63234e-19)
(0.924394 -1.02589 9.36469e-20)
(0.915872 -1.01624 0)
(0.907467 -1.00671 1.86965e-19)
(0.899178 -0.997306 3.74799e-19)
(0.891005 -0.988022 0)
(0.882947 -0.978861 -2.81649e-19)
(0.875004 -0.969822 1.88525e-19)
(0.867175 -0.960906 -2.83895e-19)
(0.859459 -0.952113 -2.83134e-19)
(0.851855 -0.943443 1.23743e-21)
(0.844361 -0.934896 4.74945e-19)
(0.836977 -0.92647 0)
(0.829701 -0.918166 -9.5754e-20)
(0.82253 -0.909982 9.46403e-20)
(0.815464 -0.901918 -2.86801e-19)
(0.8085 -0.893973 -2.86615e-19)
(0.801635 -0.886144 9.56926e-20)
(0.794868 -0.87843 -9.58551e-20)
(0.788195 -0.87083 9.6657e-20)
(0.781615 -0.863341 0)
(1.89092 -2.11063 1.33228e-18)
(1.87737 -2.09553 -4.29819e-19)
(1.86374 -2.08033 4.21039e-19)
(1.85001 -2.06503 -8.15384e-19)
(1.83617 -2.04961 0)
(1.82224 -2.03409 0)
(1.8082 -2.01844 7.4726e-19)
(1.79405 -2.00268 -1.45077e-18)
(1.77978 -1.98679 -3.50392e-19)
(1.76539 -1.97077 3.42976e-19)
(1.75088 -1.95461 1.32441e-18)
(1.73625 -1.93832 1.60343e-18)
(1.72148 -1.92188 9.31787e-19)
(1.70658 -1.9053 -2.41136e-18)
(1.69154 -1.88856 -1.16779e-18)
(1.67636 -1.87166 -2.81176e-19)
(1.66103 -1.8546 2.75162e-19)
(1.64554 -1.83737 7.95991e-19)
(1.62989 -1.81996 -1.53726e-18)
(1.61408 -1.80237 -2.49298e-19)
(1.59809 -1.78459 -2.38136e-19)
(1.58193 -1.76662 2.33122e-19)
(1.56559 -1.74844 1.11794e-18)
(1.54905 -1.73006 1.72768e-18)
(1.53232 -1.71145 -4.17961e-19)
(1.51539 -1.69262 4.03687e-19)
(1.49824 -1.67356 -2.89718e-21)
(1.48087 -1.65424 -1.89531e-19)
(1.46343 -1.63485 -1.82618e-19)
(1.44621 -1.61569 9.14977e-19)
(1.42934 -1.59694 0)
(1.41283 -1.57857 -5.42153e-19)
(1.39665 -1.56056 3.58456e-19)
(1.38079 -1.54292 8.92883e-19)
(1.36524 -1.52562 0)
(1.34999 -1.50864 -8.82589e-19)
(1.33504 -1.49199 1.77525e-19)
(1.32037 -1.47565 0)
(1.30597 -1.4596 7.01038e-19)
(1.29183 -1.44385 0)
(1.27795 -1.42837 -5.25364e-19)
(1.26432 -1.41316 5.22194e-19)
(1.25092 -1.39822 -1.73102e-19)
(1.23776 -1.38353 7.00033e-19)
(1.22482 -1.36908 -5.21912e-19)
(1.2121 -1.35487 -8.71148e-19)
(1.19959 -1.34089 7.01098e-19)
(1.18728 -1.32713 1.76106e-19)
(1.17517 -1.31358 -1.4006e-18)
(1.16324 -1.30024 -3.50748e-19)
(1.1515 -1.28711 2.05213e-23)
(1.13994 -1.27416 4.39576e-19)
(1.12855 -1.2614 -8.88803e-20)
(1.11732 -1.24883 0)
(1.10626 -1.23643 0)
(1.09535 -1.2242 -8.83197e-20)
(1.08459 -1.21213 -2.67024e-19)
(1.07397 -1.20022 -3.57954e-19)
(1.0635 -1.18847 0)
(1.05317 -1.17686 -2.62632e-23)
(1.04297 -1.1654 0)
(1.0329 -1.15409 0)
(1.02296 -1.14291 -7.27427e-19)
(1.01315 -1.13186 -3.64881e-19)
(1.00346 -1.12095 -3.66088e-19)
(0.993898 -1.11017 9.12063e-20)
(0.984455 -1.09952 -9.27297e-20)
(0.975132 -1.089 2.77756e-19)
(0.965928 -1.07859 -2.77315e-19)
(0.956842 -1.06832 1.85849e-19)
(0.947875 -1.05817 -3.72711e-19)
(0.939024 -1.04814 9.40493e-20)
(0.93029 -1.03823 2.8162e-19)
(0.921673 -1.02844 0)
(0.913172 -1.01878 0)
(0.904787 -1.00924 -1.88596e-19)
(0.896518 -0.99982 -3.77915e-19)
(0.888364 -0.990524 0)
(0.880325 -0.981352 1.89612e-19)
(0.872399 -0.972302 9.43299e-20)
(0.864587 -0.963375 1.88943e-19)
(0.856887 -0.954571 -2.86269e-19)
(0.849298 -0.94589 -1.90662e-19)
(0.841819 -0.937331 -1.90897e-19)
(0.834449 -0.928894 -1.91092e-19)
(0.827186 -0.920579 0)
(0.820029 -0.912383 -3.83029e-19)
(0.812975 -0.904307 1.91738e-19)
(0.806022 -0.896349 0)
(0.799169 -0.888507 9.61136e-20)
(0.792413 -0.88078 0)
(0.785751 -0.873166 -9.64205e-20)
(0.779182 -0.865662 -9.6615e-20)
(1.88523 -2.11571 -1.3377e-18)
(1.87172 -2.10057 1.7376e-18)
(1.85813 -2.08533 -3.19729e-21)
(1.84444 -2.06999 4.09316e-19)
(1.83065 -2.05454 0)
(1.81675 -2.03898 -7.76325e-19)
(1.80275 -2.02329 -7.54185e-19)
(1.78864 -2.00749 -1.82945e-18)
(1.77442 -1.99156 3.571e-19)
(1.76008 -1.9755 -1.38017e-18)
(1.74561 -1.95931 -1.67227e-18)
(1.73102 -1.94297 -9.72515e-19)
(1.7163 -1.9265 0)
(1.70145 -1.90987 -3.03571e-19)
(1.68645 -1.89309 1.77411e-18)
(1.67131 -1.87615 -2.87965e-19)
(1.65602 -1.85905 1.10952e-18)
(1.64058 -1.84177 0)
(1.62498 -1.82432 2.40621e-23)
(1.60922 -1.80669 -1.00594e-18)
(1.59328 -1.78887 9.73081e-19)
(1.57717 -1.77085 -9.4105e-19)
(1.56087 -1.75263 9.09849e-19)
(1.54439 -1.7342 -8.79495e-19)
(1.52771 -1.71555 0)
(1.51083 -1.69667 0)
(1.49373 -1.67756 5.96417e-19)
(1.47642 -1.6582 1.92902e-19)
(1.45903 -1.63875 0)
(1.44186 -1.61955 -7.43932e-19)
(1.42505 -1.60075 0)
(1.40858 -1.58234 7.3381e-19)
(1.39245 -1.56429 -1.80973e-19)
(1.37664 -1.5466 -7.22893e-19)
(1.36114 -1.52926 3.61159e-19)
(1.34594 -1.51225 5.38179e-19)
(1.33103 -1.49556 0)
(1.31641 -1.47917 8.91992e-19)
(1.30205 -1.46309 -7.15598e-19)
(1.28796 -1.4473 -2.67506e-21)
(1.27412 -1.43179 7.07639e-19)
(1.26053 -1.41655 -7.12161e-19)
(1.24718 -1.40157 -3.5448e-19)
(1.23406 -1.38684 -5.3023e-19)
(1.22116 -1.37236 1.75864e-19)
(1.20847 -1.35812 -3.54466e-19)
(1.196 -1.3441 -5.30728e-19)
(1.18373 -1.33031 -1.76217e-19)
(1.17165 -1.31674 1.60091e-18)
(1.15976 -1.30337 0)
(1.14806 -1.2902 3.56615e-19)
(1.13653 -1.27723 0)
(1.12517 -1.26444 3.58038e-19)
(1.11397 -1.25184 0)
(1.10294 -1.23941 0)
(1.09206 -1.22716 -5.39716e-19)
(1.08133 -1.21506 5.43741e-19)
(1.07075 -1.20313 9.00217e-20)
(1.0603 -1.19135 -1.28247e-21)
(1.05 -1.17973 -4.566e-19)
(1.03983 -1.16825 -3.65825e-19)
(1.02979 -1.15691 0)
(1.01988 -1.14571 2.75411e-23)
(1.01009 -1.13464 3.69135e-19)
(1.00043 -1.12371 9.19112e-20)
(0.990894 -1.11291 2.77837e-19)
(0.981477 -1.10224 0)
(0.972179 -1.0917 -2.80681e-19)
(0.963 -1.08128 2.80152e-19)
(0.953939 -1.07099 -9.31931e-20)
(0.944995 -1.06082 9.47169e-20)
(0.936167 -1.05078 -9.49302e-20)
(0.927456 -1.04085 -9.51285e-20)
(0.918861 -1.03106 0)
(0.910382 -1.02138 0)
(0.902018 -1.01183 9.44048e-20)
(0.893769 -1.00239 1.89133e-19)
(0.885635 -0.993086 -1.26566e-21)
(0.877614 -0.983901 -1.92209e-19)
(0.869707 -0.97484 -1.26076e-21)
(0.861912 -0.965901 -1.91383e-19)
(0.854229 -0.957085 4.79569e-19)
(0.846656 -0.948392 1.91759e-19)
(0.839193 -0.939821 0)
(0.831838 -0.931372 1.92074e-19)
(0.82459 -0.923044 0)
(0.817446 -0.914836 1.31403e-23)
(0.810405 -0.906747 0)
(0.803466 -0.898776 9.57405e-20)
(0.796626 -0.89092 -1.22899e-21)
(0.789882 -0.883179 -9.65834e-20)
(0.783233 -0.87555 9.73419e-20)
(0.776676 -0.868031 1.93189e-19)
(1.87936 -2.12092 8.98059e-19)
(1.86589 -2.10574 -1.30981e-18)
(1.85234 -2.09047 4.27026e-19)
(1.83869 -2.07509 0)
(1.82494 -2.0596 0)
(1.81109 -2.04399 7.82685e-19)
(1.79714 -2.02827 0)
(1.78307 -2.01243 1.47818e-18)
(1.76889 -1.99646 1.43569e-18)
(1.75459 -1.98036 3.13492e-18)
(1.74017 -1.96412 -3.39849e-19)
(1.72563 -1.94775 0)
(1.71095 -1.93123 0)
(1.69614 -1.91456 1.235e-18)
(1.68119 -1.89774 1.1972e-18)
(1.6661 -1.88076 2.88501e-19)
(1.65086 -1.86361 -1.40664e-18)
(1.63547 -1.84629 0)
(1.61992 -1.8288 2.31904e-23)
(1.6042 -1.81112 2.30058e-23)
(1.58831 -1.79325 -9.87455e-19)
(1.57225 -1.77519 2.37327e-19)
(1.55601 -1.75692 -1.15652e-18)
(1.53958 -1.73845 2.21857e-19)
(1.52295 -1.71975 -3.01672e-21)
(1.50612 -1.70083 -2.10223e-19)
(1.48908 -1.68166 -8.06793e-19)
(1.47182 -1.66226 -1.55804e-18)
(1.45449 -1.64277 -1.52501e-18)
(1.43737 -1.62352 0)
(1.42061 -1.60467 1.864e-19)
(1.4042 -1.58621 -1.88056e-19)
(1.38812 -1.56812 0)
(1.37236 -1.55039 7.3808e-19)
(1.35691 -1.533 -5.52312e-19)
(1.34176 -1.51595 -3.65739e-19)
(1.3269 -1.49922 3.64403e-19)
(1.31232 -1.48279 -9.09538e-19)
(1.29801 -1.46667 -7.24582e-19)
(1.28396 -1.45084 0)
(1.27017 -1.43529 -1.62261e-18)
(1.25662 -1.42002 1.81548e-19)
(1.24331 -1.405 -1.78696e-19)
(1.23023 -1.39024 1.81275e-19)
(1.21737 -1.37573 -5.41039e-19)
(1.20473 -1.36145 -1.8126e-19)
(1.19229 -1.3474 1.26145e-18)
(1.18006 -1.33358 1.81472e-19)
(1.16802 -1.31997 -7.21372e-19)
(1.15617 -1.30658 0)
(1.1445 -1.29338 3.61668e-19)
(1.133 -1.28038 -3.62285e-19)
(1.12168 -1.26756 -3.62992e-19)
(1.11052 -1.25493 -1.8056e-19)
(1.09951 -1.24248 1.83569e-19)
(1.08867 -1.2302 3.65399e-19)
(1.07797 -1.21808 -1.84454e-19)
(1.06742 -1.20612 -5.52103e-19)
(1.057 -1.19432 5.50942e-19)
(1.04673 -1.18267 1.83265e-19)
(1.03659 -1.17116 3.70156e-19)
(1.02657 -1.1598 1.84276e-19)
(1.01669 -1.14858 1.84796e-19)
(1.00694 -1.13749 -1.85281e-19)
(0.997302 -1.12654 -1.85766e-19)
(0.98779 -1.11572 0)
(0.978399 -1.10503 -9.33722e-20)
(0.969127 -1.09447 -2.82093e-19)
(0.959974 -1.08404 3.77884e-19)
(0.950937 -1.07373 -9.40435e-20)
(0.942018 -1.06354 1.91081e-19)
(0.933215 -1.05348 9.5727e-20)
(0.924527 -1.04355 -9.46211e-20)
(0.915955 -1.03373 1.2831e-21)
(0.907498 -1.02404 3.82329e-19)
(0.899156 -1.01447 -9.63631e-20)
(0.890928 -1.00503 0)
(0.882814 -0.995709 -9.53252e-20)
(0.874813 -0.986511 -9.54199e-20)
(0.866925 -0.977436 0)
(0.859149 -0.968485 1.92443e-19)
(0.851483 -0.959657 -1.92589e-19)
(0.843928 -0.950951 -9.57184e-20)
(0.836481 -0.942367 9.70261e-20)
(0.829142 -0.933906 1.92888e-19)
(0.821909 -0.925564 0)
(0.814781 -0.917343 1.93092e-19)
(0.807755 -0.90924 9.72124e-20)
(0.80083 -0.901255 6.19832e-22)
(0.794003 -0.893385 -6.14292e-22)
(0.787274 -0.885628 -2.90516e-19)
(0.780638 -0.877984 9.81872e-20)
(0.774095 -0.870449 9.7721e-20)
(1.8733 -2.12626 -1.80544e-18)
(1.85988 -2.11105 0)
(1.84637 -2.09574 0)
(1.83276 -2.08032 8.29984e-19)
(1.81906 -2.06479 -8.1396e-19)
(1.80525 -2.04914 -3.95903e-19)
(1.79134 -2.03338 -7.66791e-19)
(1.77732 -2.01749 7.45354e-19)
(1.76318 -2.00148 -2.17285e-18)
(1.74893 -1.98534 -1.40394e-18)
(1.73456 -1.96906 6.83217e-19)
(1.72006 -1.95265 -3.33215e-19)
(1.70543 -1.93609 -1.28729e-18)
(1.69067 -1.91937 1.55949e-18)
(1.67577 -1.90251 -1.51559e-18)
(1.66073 -1.88548 1.46628e-18)
(1.64553 -1.86829 -2.86113e-19)
(1.63019 -1.85093 1.10282e-18)
(1.61469 -1.83339 1.06828e-18)
(1.59902 -1.81567 2.20592e-23)
(1.58319 -1.79776 0)
(1.56718 -1.77965 7.28541e-19)
(1.55099 -1.76133 -7.01876e-19)
(1.53461 -1.74281 0)
(1.51804 -1.72406 0)
(1.50126 -1.70509 2.10575e-19)
(1.48428 -1.68588 -2.06564e-19)
(1.46707 -1.66642 1.96576e-19)
(1.4498 -1.64688 1.16332e-18)
(1.43274 -1.62759 1.93937e-19)
(1.41603 -1.60869 0)
(1.39968 -1.59018 0)
(1.38365 -1.57205 -5.67262e-19)
(1.36794 -1.55427 -1.89017e-19)
(1.35254 -1.53684 9.31913e-19)
(1.33744 -1.51975 -3.71718e-19)
(1.32263 -1.50297 -7.37799e-19)
(1.3081 -1.48651 1.10728e-18)
(1.29384 -1.47035 1.28684e-18)
(1.27984 -1.45448 0)
(1.26609 -1.43889 7.33037e-19)
(1.25258 -1.42358 -7.31923e-19)
(1.23932 -1.40853 -1.81424e-19)
(1.22628 -1.39373 1.84009e-19)
(1.21346 -1.37918 7.30368e-19)
(1.20086 -1.36487 0)
(1.18846 -1.35079 -9.11823e-19)
(1.17627 -1.33694 1.09636e-18)
(1.16427 -1.3233 -1.84213e-19)
(1.15245 -1.30987 1.84396e-19)
(1.14082 -1.29664 -7.30574e-19)
(1.12936 -1.28361 5.52073e-19)
(1.11807 -1.27077 1.82561e-19)
(1.10694 -1.25811 -1.85541e-19)
(1.09598 -1.24562 1.83263e-19)
(1.08516 -1.23331 -1.86287e-19)
(1.0745 -1.22117 0)
(1.06397 -1.20918 3.71608e-19)
(1.05359 -1.19736 -3.7248e-19)
(1.04335 -1.18568 -2.47913e-23)
(1.03324 -1.17415 -3.74249e-19)
(1.02325 -1.16277 0)
(1.0134 -1.15152 -1.8673e-19)
(1.00367 -1.14042 3.76981e-19)
(0.994067 -1.12944 3.77878e-19)
(0.984583 -1.11861 3.78745e-19)
(0.975219 -1.1079 -1.91101e-19)
(0.965974 -1.09732 3.8043e-19)
(0.956846 -1.08686 -5.73103e-19)
(0.947836 -1.07654 -1.3061e-21)
(0.938942 -1.06633 0)
(0.930163 -1.05626 1.91641e-19)
(0.9215 -1.0463 -1.91941e-19)
(0.912952 -1.03647 1.92215e-19)
(0.904518 -1.02677 -3.84937e-19)
(0.896198 -1.01719 -2.88378e-19)
(0.887992 -1.00773 9.70796e-20)
(0.879899 -0.998393 1.93032e-19)
(0.871919 -0.989181 1.93183e-19)
(0.86405 -0.980093 0)
(0.856293 -0.971128 -9.7332e-20)
(0.848647 -0.962286 -1.93445e-19)
(0.841109 -0.953567 9.73815e-20)
(0.83368 -0.94497 0)
(0.826358 -0.936494 -3.87162e-19)
(0.819142 -0.928139 1.93611e-19)
(0.81203 -0.919904 9.62057e-20)
(0.80502 -0.911787 -1.94963e-19)
(0.798111 -0.903786 -6.15871e-22)
(0.7913 -0.895901 1.93899e-19)
(0.784586 -0.888129 0)
(0.777966 -0.880468 -9.71201e-20)
(0.771438 -0.872917 9.66387e-20)
(1.86704 -2.13175 9.06817e-19)
(1.85367 -2.1165 8.80365e-19)
(1.8402 -2.10114 -8.64005e-19)
(1.82664 -2.08568 8.34936e-19)
(1.81298 -2.07011 -8.19206e-19)
(1.79922 -2.05442 1.58485e-18)
(1.78536 -2.03862 -3.24773e-21)
(1.77138 -2.02269 1.50243e-18)
(1.75729 -2.00664 7.27081e-19)
(1.74309 -1.99046 -5.23509e-24)
(1.72876 -1.97414 5.25333e-24)
(1.71431 -1.95768 9.99724e-19)
(1.69973 -1.94107 9.7373e-19)
(1.68502 -1.92432 -2.21041e-18)
(1.67017 -1.90741 -1.5324e-18)
(1.65518 -1.89034 -1.18788e-18)
(1.64004 -1.8731 0)
(1.62474 -1.85569 -1.39411e-18)
(1.60929 -1.83811 3.16213e-21)
(1.59368 -1.82034 2.36015e-18)
(1.5779 -1.80238 0)
(1.56195 -1.78422 -2.44185e-19)
(1.54581 -1.76586 2.39471e-19)
(1.52949 -1.74728 -2.28653e-19)
(1.51297 -1.72849 3.11185e-21)
(1.49625 -1.70947 2.16995e-19)
(1.47932 -1.69021 -8.33381e-19)
(1.46218 -1.6707 1.61056e-18)
(1.44496 -1.65111 -1.95569e-19)
(1.42796 -1.63176 1.97148e-19)
(1.41131 -1.61282 9.69371e-19)
(1.39501 -1.59426 -9.65776e-19)
(1.37903 -1.57608 1.53337e-18)
(1.36338 -1.55826 -7.62404e-19)
(1.34803 -1.54078 -9.46796e-19)
(1.33299 -1.52364 7.58097e-19)
(1.31823 -1.50683 1.12841e-18)
(1.30374 -1.49032 -9.38545e-19)
(1.28953 -1.47412 -7.47495e-19)
(1.27558 -1.45821 0)
(1.26187 -1.44259 0)
(1.24842 -1.42723 7.42868e-19)
(1.23519 -1.41215 -5.57803e-19)
(1.2222 -1.39731 -1.86686e-19)
(1.20942 -1.38273 -7.40818e-19)
(1.19686 -1.36838 -5.56844e-19)
(1.18451 -1.35427 -3.70352e-19)
(1.17235 -1.34038 -5.54383e-19)
(1.16039 -1.32671 0)
(1.14862 -1.31325 -1.86866e-19)
(1.13702 -1.29999 7.4012e-19)
(1.1256 -1.28692 -3.71869e-19)
(1.11434 -1.27405 1.8754e-19)
(1.10325 -1.26136 0)
(1.09232 -1.24885 -1.88142e-19)
(1.08154 -1.23651 -5.628e-19)
(1.07091 -1.22434 0)
(1.06042 -1.21233 -5.62354e-19)
(1.05007 -1.20047 5.66181e-19)
(1.03985 -1.18877 -3.77385e-19)
(1.02977 -1.17722 3.78192e-19)
(1.01982 -1.16581 -1.8817e-19)
(1.01 -1.15454 1.9122e-19)
(1.0003 -1.14341 -3.80586e-19)
(0.990723 -1.13242 -7.62767e-19)
(0.981268 -1.12156 1.92379e-19)
(0.971932 -1.11083 1.92757e-19)
(0.962715 -1.10023 1.9048e-19)
(0.953614 -1.08976 1.90833e-19)
(0.944631 -1.07941 -1.44514e-23)
(0.935762 -1.06919 -1.92727e-19)
(0.927009 -1.0591 -1.93008e-19)
(0.918371 -1.04913 1.91949e-19)
(0.909847 -1.03928 -5.80357e-19)
(0.901437 -1.02956 7.74533e-19)
(0.893141 -1.01996 -3.8756e-19)
(0.884957 -1.01049 2.58226e-21)
(0.876886 -1.00114 -3.28976e-24)
(0.868927 -0.991913 -1.9537e-19)
(0.86108 -0.982811 9.64271e-20)
(0.853343 -0.973832 9.64372e-20)
(0.845716 -0.964975 9.64485e-20)
(0.838198 -0.956242 1.9289e-19)
(0.830788 -0.94763 -9.77036e-20)
(0.823485 -0.93914 1.9413e-19)
(0.816286 -0.93077 -3.88205e-19)
(0.809192 -0.92252 0)
(0.802199 -0.914387 1.94086e-19)
(0.795307 -0.906371 9.70557e-20)
(0.788514 -0.89847 -1.93557e-19)
(0.781816 -0.890682 9.71372e-20)
(0.775213 -0.883005 -9.721e-20)
(0.768702 -0.875436 6.12586e-22)
(1.86058 -2.13738 -1.82391e-18)
(1.84726 -2.12209 0)
(1.83384 -2.10669 0)
(1.82032 -2.09119 -8.42648e-19)
(1.80671 -2.07557 -8.20685e-19)
(1.793 -2.05985 0)
(1.77918 -2.044 -7.77695e-19)
(1.76525 -2.02803 -1.51333e-18)
(1.75121 -2.01193 -7.32692e-19)
(1.73706 -1.99571 -2.8558e-18)
(1.72278 -1.97934 2.08986e-18)
(1.70838 -1.96284 -2.7033e-18)
(1.69385 -1.94619 1.96612e-18)
(1.67919 -1.92939 1.90908e-18)
(1.66439 -1.91243 2.07523e-23)
(1.64945 -1.89531 0)
(1.63436 -1.87803 0)
(1.61912 -1.86058 0)
(1.60373 -1.84294 0)
(1.58817 -1.82513 -7.97831e-19)
(1.57244 -1.80712 -2.58754e-19)
(1.55654 -1.78891 0)
(1.54046 -1.7705 9.6492e-19)
(1.52419 -1.75188 2.31958e-19)
(1.50773 -1.73303 -2.27621e-19)
(1.49107 -1.71396 8.74919e-19)
(1.47421 -1.69465 8.4645e-19)
(1.45712 -1.67509 -1.63631e-18)
(1.43996 -1.65544 1.98729e-19)
(1.42302 -1.63605 5.94786e-19)
(1.40643 -1.61705 -2.07987e-23)
(1.39019 -1.59845 5.89292e-19)
(1.37427 -1.58022 3.89361e-19)
(1.35867 -1.56235 5.79281e-19)
(1.34338 -1.54483 7.70379e-19)
(1.32839 -1.52764 -9.57092e-19)
(1.31368 -1.51078 1.92378e-19)
(1.29925 -1.49424 0)
(1.28508 -1.47799 0)
(1.27118 -1.46205 0)
(1.25752 -1.44638 0)
(1.24411 -1.43099 9.40491e-19)
(1.23094 -1.41586 5.62944e-19)
(1.21799 -1.40099 9.38112e-19)
(1.20526 -1.38637 -1.8912e-19)
(1.19274 -1.37199 7.50738e-19)
(1.18043 -1.35784 0)
(1.16831 -1.34391 -1.86302e-19)
(1.15639 -1.33021 1.89118e-19)
(1.14466 -1.31671 1.86496e-19)
(1.1331 -1.30342 -5.65425e-19)
(1.12171 -1.29032 -3.76407e-19)
(1.1105 -1.27742 0)
(1.09944 -1.2647 -1.87327e-19)
(1.08854 -1.25216 5.68236e-19)
(1.0778 -1.23979 1.90617e-19)
(1.0672 -1.22759 5.70049e-19)
(1.05674 -1.21555 2.24633e-23)
(1.04643 -1.20367 -9.49868e-19)
(1.03625 -1.19194 5.73099e-19)
(1.0262 -1.18036 1.89604e-19)
(1.01628 -1.16893 -5.75213e-19)
(1.00648 -1.15764 1.90312e-19)
(0.996815 -1.14649 3.81334e-19)
(0.987269 -1.13547 1.60168e-23)
(0.977843 -1.12459 -1.62909e-23)
(0.968536 -1.11384 -1.05705e-23)
(0.959347 -1.10321 2.64866e-21)
(0.950274 -1.09272 3.88381e-19)
(0.941318 -1.08236 -1.93793e-19)
(0.932476 -1.07212 1.94022e-19)
(0.92375 -1.06201 0)
(0.915137 -1.05202 5.81873e-19)
(0.906639 -1.04216 -2.6157e-21)
(0.898253 -1.03242 -5.85291e-19)
(0.889981 -1.0228 -1.93436e-19)
(0.881821 -1.01331 1.9611e-19)
(0.873773 -1.00395 1.94855e-19)
(0.865837 -0.994708 1.93566e-19)
(0.858011 -0.98559 -1.97403e-19)
(0.850296 -0.976596 -3.90892e-19)
(0.84269 -0.967725 -1.94742e-19)
(0.835192 -0.958976 -1.22491e-23)
(0.827802 -0.950349 0)
(0.820518 -0.941844 -1.93259e-19)
(0.813339 -0.933458 3.90144e-19)
(0.806264 -0.925192 0)
(0.79929 -0.917044 -1.94326e-19)
(0.792417 -0.909012 -1.94296e-19)
(0.785642 -0.901094 -9.71504e-20)
(0.778963 -0.893289 1.93743e-19)
(0.772379 -0.885594 -1.95078e-19)
(0.765886 -0.878008 2.07109e-24)
(1.85392 -2.14316 3.29149e-21)
(1.84064 -2.12782 -8.84187e-19)
(1.82727 -2.11238 1.73707e-18)
(1.8138 -2.09684 8.43304e-19)
(1.80024 -2.08118 8.24926e-19)
(1.78657 -2.06541 -8.00248e-19)
(1.7728 -2.04952 -7.7587e-19)
(1.75892 -2.0335 7.64941e-19)
(1.74494 -2.01736 -1.48233e-18)
(1.73083 -2.00109 2.88397e-18)
(1.7166 -1.98468 2.10009e-18)
(1.70226 -1.96813 6.78322e-19)
(1.68778 -1.95144 6.59069e-19)
(1.67317 -1.93459 -1.93369e-18)
(1.65842 -1.91759 2.49967e-18)
(1.64354 -1.90042 -6.0344e-19)
(1.6285 -1.88309 5.92073e-19)
(1.61332 -1.86559 1.14259e-18)
(1.59798 -1.84791 -5.50879e-19)
(1.58247 -1.83004 5.40527e-19)
(1.5668 -1.81198 -1.04165e-18)
(1.55096 -1.79373 0)
(1.53494 -1.77527 7.35064e-19)
(1.51873 -1.75659 2.384e-19)
(1.50233 -1.7377 -9.17144e-19)
(1.48573 -1.71857 -8.87861e-19)
(1.46893 -1.69921 8.59274e-19)
(1.4519 -1.67959 1.86791e-18)
(1.43481 -1.65989 -2.05015e-19)
(1.41793 -1.64044 2.00296e-19)
(1.4014 -1.6214 -1.00327e-18)
(1.38521 -1.60274 0)
(1.36935 -1.58446 -7.9067e-19)
(1.35381 -1.56655 9.81052e-19)
(1.33858 -1.54898 5.84935e-19)
(1.32364 -1.53175 0)
(1.30898 -1.51484 -1.92261e-19)
(1.2946 -1.49825 3.86019e-19)
(1.28049 -1.48197 -1.9383e-19)
(1.26664 -1.46598 5.76935e-19)
(1.25303 -1.45027 2.86979e-21)
(1.23967 -1.43484 -7.61105e-19)
(1.22654 -1.41967 3.81345e-19)
(1.21364 -1.40476 -9.53565e-19)
(1.20095 -1.3901 9.49832e-19)
(1.18848 -1.37568 -1.91523e-19)
(1.17621 -1.3615 1.88656e-19)
(1.16414 -1.34754 -1.91426e-19)
(1.15226 -1.3338 7.6024e-19)
(1.14056 -1.32027 -3.80263e-19)