/*--------------------------------*- C++ -*----------------------------------*\
  =========                 |
  \\      /  F ield         | OpenFOAM: The Open Source CFD Toolbox
   \\    /   O peration     | Website:  https://openfoam.org
    \\  /    A nd           | Version:  10
     \\/     M anipulation  |
\*---------------------------------------------------------------------------*/
FoamFile
{
    format      ascii;
    class       volVectorField;
    location    "44000";
    object      Urel;
}
// * * * * * * * * * * * * * * * * * * * * * * * * * * * * * * * * * * * * * //

dimensions      [0 1 -1 0 0 0 0];

internalField   nonuniform List<vector> 
17922
(
(2.10644 -2.30467 0)
(2.09235 -2.28927 3.73443e-19)
(2.07814 -2.27375 -1.45522e-18)
(2.06381 -2.2581 3.54429e-25)
(2.04936 -2.24232 3.41216e-19)
(2.03479 -2.2264 6.64455e-19)
(2.02008 -2.21034 1.54597e-23)
(2.00524 -2.19414 3.10968e-19)
(1.99026 -2.17779 -2.57546e-21)
(1.97514 -2.16128 -2.94464e-19)
(1.95987 -2.14461 -2.27181e-18)
(1.94444 -2.12778 0)
(1.92886 -2.11078 0)
(1.91312 -2.0936 -2.56389e-19)
(1.89721 -2.07624 2.50547e-19)
(1.88113 -2.05869 -2.39899e-19)
(1.86486 -2.04095 2.34486e-19)
(1.84841 -2.02301 -9.02183e-19)
(1.83178 -2.00486 -2.16828e-19)
(1.81494 -1.9865 -8.40613e-19)
(1.7979 -1.96791 -6.09826e-19)
(1.78065 -1.9491 1.95596e-19)
(1.76319 -1.93004 -9.51807e-19)
(1.74549 -1.91075 7.34578e-19)
(1.72756 -1.89119 -7.09457e-19)
(1.70939 -1.87137 0)
(1.69097 -1.85128 0)
(1.67229 -1.8309 0)
(1.6535 -1.81039 1.25065e-18)
(1.63493 -1.79012 1.54303e-19)
(1.61671 -1.77024 4.62797e-19)
(1.59885 -1.75075 1.23148e-18)
(1.58133 -1.73161 -5.37238e-19)
(1.56414 -1.71283 5.3442e-19)
(1.54726 -1.69439 -6.09819e-19)
(1.53069 -1.67628 0)
(1.51442 -1.65848 7.54143e-20)
(1.49843 -1.64099 -7.58997e-19)
(1.48272 -1.62379 -4.55248e-19)
(1.46727 -1.60689 -7.58906e-19)
(1.45209 -1.59025 7.64773e-20)
(1.43716 -1.57389 -7.54374e-20)
(1.42247 -1.55779 -5.32436e-19)
(1.40802 -1.54193 -7.57399e-20)
(1.3938 -1.52632 6.12758e-19)
(1.37979 -1.51094 -1.07325e-18)
(1.366 -1.49579 -1.0753e-21)
(1.35242 -1.48085 -6.18199e-19)
(1.33903 -1.46613 5.41385e-19)
(1.32584 -1.45161 0)
(1.31283 -1.43729 3.12166e-19)
(1.3 -1.42315 3.13492e-19)
(1.28734 -1.4092 -3.93101e-19)
(1.27485 -1.39543 3.96066e-19)
(1.26252 -1.38182 0)
(1.25035 -1.36838 2.40227e-19)
(1.23833 -1.3551 8.08364e-20)
(1.22645 -1.34197 3.2286e-19)
(1.21472 -1.32899 0)
(1.20313 -1.31616 -3.26353e-19)
(1.19167 -1.30346 0)
(1.18034 -1.2909 8.19162e-20)
(1.16914 -1.27848 -4.15118e-19)
(1.15807 -1.26618 -3.3345e-19)
(1.14712 -1.25401 3.35282e-19)
(1.1363 -1.24197 -3.37066e-19)
(1.1256 -1.23005 2.54695e-19)
(1.11501 -1.21826 -1.70274e-19)
(1.10456 -1.20658 -4.28387e-19)
(1.09422 -1.19503 0)
(1.084 -1.1836 1.72826e-19)
(1.07391 -1.17229 1.73608e-19)
(1.06394 -1.16111 -2.35715e-23)
(1.05409 -1.15005 2.62173e-19)
(1.04437 -1.13911 -2.64366e-19)
(1.03478 -1.12831 1.76566e-19)
(1.02532 -1.11763 1.77255e-19)
(1.01598 -1.10708 -3.55751e-19)
(1.00677 -1.09667 8.86615e-20)
(0.997691 -1.08638 -9.00773e-20)
(0.988741 -1.07624 2.68795e-19)
(0.979919 -1.06623 -1.80053e-19)
(0.971227 -1.05635 1.15904e-21)
(0.962662 -1.04662 9.10217e-20)
(0.954225 -1.03702 4.52912e-19)
(0.945914 -1.02756 9.01592e-24)
(0.937727 -1.01824 2.73779e-19)
(0.929664 -1.00906 0)
(0.921721 -1.00002 -9.08569e-20)
(0.913896 -0.991119 9.21703e-20)
(0.906188 -0.982355 -1.82987e-19)
(0.898593 -0.973726 9.30877e-20)
(0.891108 -0.965232 1.84306e-19)
(2.10091 -2.30969 -3.93219e-19)
(2.08686 -2.29426 3.79361e-19)
(2.07268 -2.2787 -3.71103e-19)
(2.05839 -2.26302 1.43613e-18)
(2.04398 -2.2472 -8.86007e-24)
(2.02944 -2.23125 -3.36867e-19)
(2.01478 -2.21516 9.8562e-19)
(1.99997 -2.19892 0)
(1.98503 -2.18253 -1.54134e-18)
(1.96995 -2.16598 3.00374e-19)
(1.95472 -2.14928 1.15927e-18)
(1.93934 -2.13241 -1.12309e-18)
(1.9238 -2.11537 0)
(1.9081 -2.09815 0)
(1.89223 -2.08075 0)
(1.87618 -2.06317 1.23233e-18)
(1.85996 -2.04539 9.5238e-19)
(1.84356 -2.0274 6.91583e-19)
(1.82697 -2.00921 2.22116e-19)
(1.81017 -1.99081 6.46744e-19)
(1.79318 -1.97218 1.10352e-23)
(1.77598 -1.95333 0)
(1.75855 -1.93423 1.9387e-19)
(1.74091 -1.91489 -9.43805e-19)
(1.72303 -1.89529 7.28564e-19)
(1.70491 -1.87543 0)
(1.68653 -1.85529 0)
(1.6679 -1.83486 0)
(1.64916 -1.81432 -1.82492e-23)
(1.63064 -1.794 0)
(1.61247 -1.77408 1.57814e-19)
(1.59466 -1.75454 -1.59429e-19)
(1.57719 -1.73536 1.26104e-18)
(1.56004 -1.71654 4.72476e-19)
(1.54321 -1.69806 1.57833e-19)
(1.52668 -1.67991 0)
(1.51045 -1.66207 -6.24505e-19)
(1.4945 -1.64454 6.23908e-19)
(1.47884 -1.62731 7.01018e-19)
(1.46344 -1.61037 5.45125e-19)
(1.44829 -1.5937 -5.46516e-19)
(1.4334 -1.57731 5.45931e-19)
(1.41875 -1.56117 0)
(1.40434 -1.54528 -7.77602e-20)
(1.39015 -1.52963 -6.26732e-19)
(1.37619 -1.51422 1.33803e-18)
(1.36243 -1.49904 7.83453e-20)
(1.34888 -1.48408 4.7486e-19)
(1.33553 -1.46932 -5.55335e-19)
(1.32237 -1.45478 3.97957e-19)
(1.3094 -1.44042 1.60022e-19)
(1.2966 -1.42626 -2.4048e-19)
(1.28398 -1.41228 3.22763e-19)
(1.27152 -1.39848 0)
(1.25922 -1.38485 -8.08761e-20)
(1.24708 -1.37139 8.23745e-20)
(1.23509 -1.35808 3.28873e-19)
(1.22324 -1.34493 -3.30522e-19)
(1.21154 -1.33193 0)
(1.19997 -1.31907 -8.29138e-20)
(1.18854 -1.30635 8.4462e-20)
(1.17724 -1.29377 -8.37736e-20)
(1.16607 -1.28132 6.7927e-19)
(1.15503 -1.26901 4.26584e-19)
(1.1441 -1.25682 0)
(1.13331 -1.24476 0)
(1.12263 -1.23282 -8.5926e-20)
(1.11207 -1.22101 4.35134e-19)
(1.10164 -1.20932 6.98593e-19)
(1.09133 -1.19775 0)
(1.08113 -1.18631 0)
(1.07106 -1.17499 -2.66077e-19)
(1.06112 -1.16379 -1.7889e-19)
(1.0513 -1.15272 -8.98003e-20)
(1.0416 -1.14177 1.7913e-19)
(1.03203 -1.13095 -1.79777e-19)
(1.02258 -1.12026 -1.80387e-19)
(1.01327 -1.1097 9.10597e-20)
(1.00408 -1.09928 1.82663e-19)
(0.995016 -1.08899 1.83173e-19)
(0.986083 -1.07883 1.15189e-21)
(0.977278 -1.06881 -9.08904e-20)
(0.968601 -1.05892 1.44385e-24)
(0.960051 -1.04918 -2.7502e-19)
(0.951627 -1.03957 -9.14634e-20)
(0.943328 -1.0301 -2.76044e-19)
(0.935152 -1.02077 -9.17837e-20)
(0.927099 -1.01158 0)
(0.919165 -1.00253 0)
(0.911349 -0.993619 2.77826e-19)
(0.903648 -0.984843 -9.29536e-20)
(0.89606 -0.976201 5.74114e-22)
(0.888581 -0.967693 0)
(2.09521 -2.31486 3.93687e-19)
(2.08119 -2.29939 -3.85339e-19)
(2.06706 -2.2838 1.49242e-18)
(2.05281 -2.26808 -1.44972e-18)
(2.03843 -2.25222 -7.03927e-19)
(2.02393 -2.23624 -3.40348e-19)
(2.00931 -2.22011 9.96218e-19)
(1.99455 -2.20383 1.28707e-18)
(1.97965 -2.1874 9.37687e-19)
(1.9646 -2.17082 -9.06665e-19)
(1.94941 -2.15408 0)
(1.93407 -2.13717 1.42062e-18)
(1.91858 -2.12009 -2.76857e-19)
(1.90292 -2.10283 -2.65624e-19)
(1.88709 -2.0854 2.59795e-19)
(1.87109 -2.06777 1.00113e-18)
(1.85492 -2.04995 -1.93816e-18)
(1.83856 -2.03192 0)
(1.82201 -2.01369 -6.81807e-19)
(1.80526 -1.99525 -2.52967e-21)
(1.78831 -1.97658 1.69533e-18)
(1.77116 -1.95768 -4.10439e-19)
(1.75378 -1.93854 7.96131e-19)
(1.73619 -1.91916 2.48718e-21)
(1.71836 -1.89952 -7.38958e-19)
(1.70028 -1.87961 1.80361e-19)
(1.68196 -1.85942 0)
(1.66338 -1.83895 1.65921e-19)
(1.64469 -1.81836 -1.47505e-18)
(1.62622 -1.79799 -1.61624e-19)
(1.60811 -1.77803 8.10966e-19)
(1.59034 -1.75844 -6.44799e-19)
(1.57292 -1.73923 -8.0158e-19)
(1.55582 -1.72036 -3.20028e-19)
(1.53903 -1.70184 -3.19131e-19)
(1.52255 -1.68365 7.97241e-19)
(1.50637 -1.66577 7.93673e-19)
(1.49047 -1.64821 -1.59937e-19)
(1.47484 -1.63094 0)
(1.45949 -1.61396 -7.92322e-19)
(1.44439 -1.59726 6.37281e-19)
(1.42954 -1.58083 1.6001e-19)
(1.41493 -1.56465 -5.57314e-19)
(1.40056 -1.54873 -7.17549e-19)
(1.38641 -1.53305 7.17879e-19)
(1.37248 -1.51761 -8.00128e-19)
(1.35876 -1.5024 -5.60988e-19)
(1.34525 -1.4874 0)
(1.33194 -1.47262 5.65587e-19)
(1.31881 -1.45804 -5.66454e-19)
(1.30587 -1.44366 -4.05966e-19)
(1.29311 -1.42947 8.21843e-20)
(1.28052 -1.41547 0)
(1.26809 -1.40164 0)
(1.25583 -1.38798 -3.30705e-19)
(1.24372 -1.37449 0)
(1.23176 -1.36116 -3.33797e-19)
(1.21994 -1.34798 0)
(1.20827 -1.33496 3.36987e-19)
(1.19674 -1.32207 0)
(1.18533 -1.30934 0)
(1.17406 -1.29673 0)
(1.16292 -1.28427 -3.43674e-19)
(1.1519 -1.27193 0)
(1.14101 -1.25972 -8.61787e-20)
(1.13024 -1.24765 1.74329e-19)
(1.11959 -1.23569 -1.75146e-19)
(1.10906 -1.22386 -2.63334e-19)
(1.09865 -1.21216 -3.53489e-19)
(1.08836 -1.20057 0)
(1.07819 -1.18911 -1.78241e-19)
(1.06815 -1.17778 1.78978e-19)
(1.05823 -1.16656 1.79655e-19)
(1.04843 -1.15548 0)
(1.03876 -1.14452 0)
(1.02921 -1.13369 9.01981e-20)
(1.01978 -1.12299 -9.1625e-20)
(1.01049 -1.11242 0)
(1.00132 -1.10198 -9.1009e-20)
(0.992277 -1.09168 -9.12303e-20)
(0.983362 -1.08151 0)
(0.974575 -1.07148 3.68829e-19)
(0.965914 -1.06159 1.84779e-19)
(0.957379 -1.05183 -1.85088e-19)
(0.948969 -1.04221 0)
(0.940684 -1.03274 9.34055e-20)
(0.93252 -1.0234 9.354e-20)
(0.924478 -1.01419 1.86164e-19)
(0.916555 -1.00513 1.8583e-19)
(0.908749 -0.996206 -2.79973e-19)
(0.901057 -0.987417 9.3449e-20)
(0.893477 -0.978761 -1.14307e-21)
(0.886005 -0.970239 -9.42957e-20)
(2.08933 -2.32016 3.99404e-19)
(2.07535 -2.30466 -3.85669e-19)
(2.06126 -2.28903 -7.49765e-19)
(2.04704 -2.27327 1.09831e-18)
(2.03271 -2.25738 3.53876e-19)
(2.01825 -2.24136 -6.90048e-19)
(2.00366 -2.22519 -9.49769e-24)
(1.98894 -2.20887 -3.26559e-19)
(1.97409 -2.19241 3.14221e-19)
(1.95909 -2.17579 9.17099e-19)
(1.94394 -2.15901 0)
(1.92864 -2.14206 0)
(1.91319 -2.12494 -1.11623e-18)
(1.89757 -2.10764 1.08172e-18)
(1.88179 -2.09016 0)
(1.86584 -2.0725 -1.26758e-18)
(1.84971 -2.05463 1.23003e-18)
(1.83339 -2.03657 -9.51633e-19)
(1.81689 -2.01829 1.84221e-18)
(1.80019 -1.99981 -2.21552e-19)
(1.7833 -1.98109 -6.45519e-19)
(1.76619 -1.96215 0)
(1.74886 -1.94297 -8.06766e-19)
(1.73131 -1.92354 -7.80119e-19)
(1.71353 -1.90385 9.41557e-19)
(1.69551 -1.8839 -3.64557e-19)
(1.67725 -1.86367 1.77437e-19)
(1.65872 -1.84314 0)
(1.64008 -1.82251 0)
(1.62166 -1.8021 0)
(1.6036 -1.78209 -6.59664e-19)
(1.58589 -1.76246 0)
(1.56852 -1.74319 -6.53816e-19)
(1.55146 -1.72429 -8.13252e-19)
(1.53473 -1.70572 3.24851e-19)
(1.5183 -1.68749 -8.11479e-19)
(1.50216 -1.66958 0)
(1.4863 -1.65197 0)
(1.47072 -1.63467 0)
(1.45541 -1.61765 1.60286e-19)
(1.44035 -1.60091 4.83289e-19)
(1.42555 -1.58444 -1.60444e-19)
(1.41098 -1.56823 8.10022e-19)
(1.39665 -1.55228 6.48058e-19)
(1.38254 -1.53657 6.49214e-19)
(1.36866 -1.52109 6.50625e-19)
(1.35498 -1.50585 3.58979e-23)
(1.3415 -1.49082 0)
(1.32823 -1.47601 -8.14776e-20)
(1.31514 -1.4614 7.41095e-19)
(1.30224 -1.44699 -2.48275e-19)
(1.28951 -1.43277 -4.14962e-19)
(1.27695 -1.41873 0)
(1.26456 -1.40488 -8.29759e-20)
(1.25233 -1.39119 4.20089e-19)
(1.24025 -1.37768 8.36951e-20)
(1.22832 -1.36432 1.69276e-19)
(1.21654 -1.35112 5.10155e-19)
(1.2049 -1.33807 -5.12531e-19)
(1.19339 -1.32516 4.29644e-19)
(1.18202 -1.3124 -8.56411e-20)
(1.17078 -1.29978 8.7196e-20)
(1.15966 -1.28729 3.48081e-19)
(1.14867 -1.27493 -8.68468e-20)
(1.13781 -1.26271 4.39692e-19)
(1.12707 -1.25061 -3.52868e-19)
(1.11644 -1.23863 0)
(1.10594 -1.22679 3.55987e-19)
(1.09556 -1.21506 8.87816e-20)
(1.0853 -1.20346 -2.69758e-19)
(1.07516 -1.19199 2.70823e-19)
(1.06514 -1.18064 9.10005e-20)
(1.05524 -1.16941 -4.53115e-19)
(1.04547 -1.15831 9.16328e-20)
(1.03582 -1.14734 0)
(1.02629 -1.1365 1.8322e-19)
(1.01689 -1.12578 3.67484e-19)
(1.00762 -1.1152 0)
(0.998468 -1.10475 -2.7641e-19)
(0.989446 -1.09444 1.85059e-19)
(0.98055 -1.08426 -2.78719e-19)
(0.97178 -1.07422 -2.78066e-19)
(0.963136 -1.06431 1.1676e-21)
(0.954617 -1.05455 4.66411e-19)
(0.946222 -1.04492 0)
(0.937951 -1.03543 -9.39878e-20)
(0.929801 -1.02608 9.2912e-20)
(0.921771 -1.01686 -2.8136e-19)
(0.913859 -1.00779 -2.81058e-19)
(0.906064 -0.998848 9.37795e-20)
(0.898382 -0.990044 -9.38716e-20)
(0.890811 -0.981375 9.4558e-20)
(0.883349 -0.972837 0)
(2.08326 -2.32561 1.20373e-18)
(2.06932 -2.31007 -3.88513e-19)
(2.05527 -2.2944 3.80571e-19)
(2.04109 -2.2786 -7.37339e-19)
(2.0268 -2.26268 0)
(2.01239 -2.24661 0)
(1.99784 -2.23041 6.76452e-19)
(1.98316 -2.21405 -1.31384e-18)
(1.96835 -2.19755 -3.17517e-19)
(1.95339 -2.18089 3.10837e-19)
(1.93829 -2.16407 1.20113e-18)
(1.92304 -2.14708 1.45504e-18)
(1.90763 -2.12992 8.46071e-19)
(1.89206 -2.11258 -2.19076e-18)
(1.87632 -2.09506 -1.06166e-18)
(1.86042 -2.07735 -2.5586e-19)
(1.84433 -2.05944 2.50462e-19)
(1.82807 -2.04133 7.25218e-19)
(1.81161 -2.02302 -1.40187e-18)
(1.79496 -2.00448 -2.27485e-19)
(1.77811 -1.98573 -2.17613e-19)
(1.76106 -1.96674 2.13128e-19)
(1.74378 -1.94751 1.02345e-18)
(1.72629 -1.92804 1.58341e-18)
(1.70856 -1.9083 -3.83471e-19)
(1.69059 -1.8883 3.70821e-19)
(1.67238 -1.86802 -2.54875e-21)
(1.6539 -1.84745 -1.74497e-19)
(1.63533 -1.82676 -1.68494e-19)
(1.61696 -1.80631 8.45181e-19)
(1.59895 -1.78625 0)
(1.58129 -1.76657 -5.02362e-19)
(1.56397 -1.74727 3.32711e-19)
(1.54697 -1.72832 8.30016e-19)
(1.53028 -1.70971 0)
(1.5139 -1.69144 -8.23175e-19)
(1.49781 -1.67348 1.65767e-19)
(1.482 -1.65584 0)
(1.46647 -1.63849 6.56904e-19)
(1.4512 -1.62144 0)
(1.43619 -1.60466 -4.93769e-19)
(1.42143 -1.58815 4.91666e-19)
(1.40691 -1.57191 -1.6327e-19)
(1.39262 -1.55592 6.60932e-19)
(1.37855 -1.54017 -4.93647e-19)
(1.36471 -1.52467 -8.25165e-19)
(1.35107 -1.50939 6.64915e-19)
(1.33763 -1.49433 1.67233e-19)
(1.32439 -1.47948 -1.33243e-18)
(1.31134 -1.46484 -3.34157e-19)
(1.29848 -1.4504 1.92008e-23)
(1.28579 -1.43615 4.19997e-19)
(1.27327 -1.42209 -8.50042e-20)
(1.26091 -1.4082 0)
(1.24871 -1.39449 0)
(1.23667 -1.38095 -8.48676e-20)
(1.22477 -1.36756 -2.56863e-19)
(1.21302 -1.35434 -3.44733e-19)
(1.20141 -1.34126 0)
(1.18994 -1.32833 -2.59302e-23)
(1.1786 -1.31555 0)
(1.16738 -1.3029 0)
(1.1563 -1.29039 -7.04753e-19)
(1.14534 -1.27801 -3.53899e-19)
(1.1345 -1.26576 -3.55451e-19)
(1.12379 -1.25364 8.86768e-20)
(1.11319 -1.24165 -9.01905e-20)
(1.10272 -1.22978 2.70468e-19)
(1.09236 -1.21804 -2.70344e-19)
(1.08213 -1.20643 1.81321e-19)
(1.07202 -1.19493 -3.63936e-19)
(1.06202 -1.18357 9.18812e-20)
(1.05215 -1.17233 2.75388e-19)
(1.0424 -1.16121 0)
(1.03278 -1.15023 0)
(1.02328 -1.13937 -1.84795e-19)
(1.0139 -1.12864 -3.70491e-19)
(1.00465 -1.11805 0)
(0.995518 -1.10759 1.86043e-19)
(0.986516 -1.09726 9.26084e-20)
(0.97764 -1.08707 1.85539e-19)
(0.968889 -1.07702 -2.81056e-19)
(0.960262 -1.0671 -1.87219e-19)
(0.95176 -1.05732 -1.87447e-19)
(0.943381 -1.04768 -1.87617e-19)
(0.935125 -1.03818 0)
(0.926989 -1.02881 -3.75869e-19)
(0.918973 -1.01959 1.88076e-19)
(0.911074 -1.0105 0)
(0.90329 -1.00154 9.41701e-20)
(0.89562 -0.992725 0)
(0.88806 -0.98404 -9.43226e-20)
(0.880608 -0.975486 -9.44234e-20)
(2.077 -2.3312 -1.20854e-18)
(2.0631 -2.31562 1.57012e-18)
(2.04909 -2.29991 -2.77936e-21)
(2.03496 -2.28408 3.70122e-19)
(2.02071 -2.26811 0)
(2.00633 -2.25201 -7.02346e-19)
(1.99183 -2.23576 -6.82569e-19)
(1.9772 -2.21937 -1.65646e-18)
(1.96243 -2.20282 3.23407e-19)
(1.94752 -2.18612 -1.25075e-18)
(1.93246 -2.16926 -1.51628e-18)
(1.91725 -2.15223 -8.82303e-19)
(1.90189 -2.13503 0)
(1.88637 -2.11765 -2.75782e-19)
(1.87068 -2.10008 1.61242e-18)
(1.85482 -2.08233 -2.61846e-19)
(1.83879 -2.06438 1.00985e-18)
(1.82257 -2.04623 0)
(1.80617 -2.02786 1.91744e-23)
(1.78957 -2.00929 -9.17862e-19)
(1.77277 -1.99048 8.88702e-19)
(1.75576 -1.97145 -8.6029e-19)
(1.73854 -1.95218 8.32624e-19)
(1.7211 -1.93265 -8.05718e-19)
(1.70342 -1.91287 0)
(1.68551 -1.89282 0)
(1.66735 -1.87249 5.48303e-19)
(1.64894 -1.85187 1.77537e-19)
(1.63042 -1.83114 0)
(1.6121 -1.81063 -6.86987e-19)
(1.59415 -1.79052 0)
(1.57655 -1.7708 6.79795e-19)
(1.55928 -1.75145 -1.67978e-19)
(1.54233 -1.73246 -6.7194e-19)
(1.5257 -1.71381 3.36178e-19)
(1.50936 -1.69549 5.01812e-19)
(1.49332 -1.67749 0)
(1.47757 -1.65981 8.34323e-19)
(1.46208 -1.64242 -6.70225e-19)
(1.44686 -1.62532 -2.39295e-21)
(1.4319 -1.60851 6.65083e-19)
(1.41718 -1.59197 -6.70135e-19)
(1.4027 -1.57568 -3.34133e-19)
(1.38845 -1.55966 -5.00619e-19)
(1.37443 -1.54388 1.66333e-19)
(1.36063 -1.52833 -3.35642e-19)
(1.34703 -1.51302 -5.03353e-19)
(1.33364 -1.49793 -1.67413e-19)
(1.32044 -1.48305 1.52255e-18)
(1.30743 -1.46838 0)
(1.2946 -1.4539 3.40147e-19)
(1.28194 -1.43962 0)
(1.26946 -1.42553 3.42462e-19)
(1.25714 -1.41162 0)
(1.24498 -1.39788 0)
(1.23297 -1.3843 -5.18391e-19)
(1.2211 -1.37089 5.22822e-19)
(1.20939 -1.35764 8.67081e-20)
(1.19781 -1.34454 -1.17802e-21)
(1.18637 -1.33158 -4.40709e-19)
(1.17506 -1.31877 -3.53541e-19)
(1.16388 -1.3061 0)
(1.15282 -1.29357 2.76194e-23)
(1.14189 -1.28117 3.57964e-19)
(1.13108 -1.2689 8.92542e-20)
(1.1204 -1.25676 2.7003e-19)
(1.10983 -1.24474 0)
(1.09939 -1.23286 -2.73277e-19)
(1.08906 -1.2211 2.73072e-19)
(1.07886 -1.20946 -9.0937e-20)
(1.06877 -1.19795 9.24472e-20)
(1.0588 -1.18657 -9.27303e-20)
(1.04896 -1.17531 -9.29934e-20)
(1.03924 -1.16418 0)
(1.02963 -1.15318 0)
(1.02016 -1.14231 9.2517e-20)
(1.0108 -1.13157 1.85448e-19)
(1.00157 -1.12097 -1.18977e-21)
(0.992468 -1.11049 -1.88518e-19)
(0.983488 -1.10015 -1.18704e-21)
(0.974632 -1.08995 -1.8786e-19)
(0.9659 -1.07988 4.70786e-19)
(0.957292 -1.06995 1.88269e-19)
(0.948808 -1.06016 0)
(0.940446 -1.0505 1.88549e-19)
(0.932205 -1.04099 0)
(0.924085 -1.03161 1.26035e-23)
(0.916083 -1.02237 0)
(0.908198 -1.01327 9.38643e-20)
(0.900428 -1.0043 -1.16016e-21)
(0.892771 -0.995463 -9.45363e-20)
(0.885223 -0.986761 9.51756e-20)
(0.877784 -0.97819 1.88772e-19)
(2.07053 -2.33694 8.11198e-19)
(2.05668 -2.32132 -1.18344e-18)
(2.04271 -2.30557 3.85849e-19)
(2.02862 -2.2897 0)
(2.01442 -2.27369 0)
(2.00009 -2.25755 7.07959e-19)
(1.98563 -2.24126 0)
(1.97104 -2.22482 1.33807e-18)
(1.95632 -2.20824 1.30016e-18)
(1.94145 -2.19149 2.84036e-18)
(1.92644 -2.17459 -3.08006e-19)
(1.91128 -2.15752 0)
(1.89597 -2.14027 0)
(1.88049 -2.12285 1.12141e-18)
(1.86485 -2.10524 1.08779e-18)
(1.84905 -2.08744 2.62374e-19)
(1.83306 -2.06945 -1.27985e-18)
(1.8169 -2.05125 0)
(1.80054 -2.03284 1.85268e-23)
(1.784 -2.01422 1.84309e-23)
(1.76725 -1.99537 -9.01541e-19)
(1.7503 -1.97629 2.16945e-19)
(1.73313 -1.95696 -1.05795e-18)
(1.71574 -1.93739 2.03237e-19)
(1.69813 -1.91756 -2.64703e-21)
(1.68027 -1.89746 -1.92914e-19)
(1.66217 -1.87708 -7.41523e-19)
(1.64381 -1.85641 -1.43391e-18)
(1.62535 -1.83562 -1.40557e-18)
(1.60709 -1.81507 0)
(1.5892 -1.79491 1.72405e-19)
(1.57165 -1.77514 -1.74095e-19)
(1.55444 -1.75574 0)
(1.53754 -1.7367 6.8571e-19)
(1.52096 -1.71801 -5.13887e-19)
(1.50468 -1.69965 -3.40876e-19)
(1.48869 -1.68161 3.40173e-19)
(1.47298 -1.66388 -8.50353e-19)
(1.45755 -1.64645 -6.78554e-19)
(1.44238 -1.62931 0)
(1.42746 -1.61246 -1.52437e-18)
(1.41279 -1.59588 1.70756e-19)
(1.39836 -1.57956 -1.68452e-19)
(1.38416 -1.5635 1.71025e-19)
(1.37018 -1.54768 -5.11343e-19)
(1.35642 -1.5321 -1.7153e-19)
(1.34286 -1.51675 1.19587e-18)
(1.32951 -1.50162 1.72241e-19)
(1.31635 -1.48671 -6.85919e-19)
(1.30338 -1.472 0)
(1.29059 -1.4575 3.44885e-19)
(1.27797 -1.44319 -3.45963e-19)
(1.26553 -1.42906 -3.47122e-19)
(1.25324 -1.41512 -1.72963e-19)
(1.24112 -1.40135 1.75964e-19)
(1.22914 -1.38775 3.50849e-19)
(1.21732 -1.37431 -1.77283e-19)
(1.20563 -1.36103 -5.31438e-19)
(1.19409 -1.3479 5.31107e-19)
(1.18268 -1.33492 1.76925e-19)
(1.1714 -1.32208 3.57664e-19)
(1.16025 -1.30939 1.78324e-19)
(1.14923 -1.29683 1.79034e-19)
(1.13833 -1.2844 -1.79703e-19)
(1.12755 -1.27211 -1.80369e-19)
(1.1169 -1.25995 0)
(1.10636 -1.24792 -9.08457e-20)
(1.09595 -1.23601 -2.7467e-19)
(1.08565 -1.22423 3.68246e-19)
(1.07547 -1.21258 -9.17549e-20)
(1.06541 -1.20105 1.86478e-19)
(1.05548 -1.18965 9.34963e-20)
(1.04566 -1.17838 -9.25405e-20)
(1.03596 -1.16723 1.20135e-21)
(1.02639 -1.15621 3.74316e-19)
(1.01693 -1.14533 -9.43721e-20)
(1.0076 -1.13457 0)
(0.998398 -1.12395 -9.34987e-20)
(0.989316 -1.11346 -9.36273e-20)
(0.980357 -1.10311 0)
(0.971522 -1.09289 1.88876e-19)
(0.962811 -1.08281 -1.89046e-19)
(0.954223 -1.07287 -9.39868e-20)
(0.945757 -1.06306 9.52186e-20)
(0.937413 -1.05339 1.89317e-19)
(0.92919 -1.04386 0)
(0.921086 -1.03447 1.89409e-19)
(0.9131 -1.02521 9.52941e-20)
(0.905231 -1.01609 5.84694e-22)
(0.897475 -1.00711 -5.80097e-22)
(0.889832 -0.998258 -2.84287e-19)
(0.882299 -0.989539 9.59552e-20)
(0.874873 -0.98095 9.54277e-20)
(2.06386 -2.34283 -1.6306e-18)
(2.05005 -2.32717 0)
(2.03612 -2.31138 0)
(2.02208 -2.29547 7.50255e-19)
(2.00792 -2.27942 -7.35764e-19)
(1.99364 -2.26323 -3.57984e-19)
(1.97923 -2.2469 -6.93702e-19)
(1.96469 -2.23042 6.74568e-19)
(1.95001 -2.2138 -1.96731e-18)
(1.93519 -2.19701 -1.27183e-18)
(1.92023 -2.18006 6.19172e-19)
(1.90512 -2.16294 -3.0208e-19)
(1.88986 -2.14565 -1.16789e-18)
(1.87443 -2.12819 1.41574e-18)
(1.85884 -2.11053 -1.37665e-18)
(1.84308 -2.09269 1.33289e-18)
(1.82715 -2.07465 -2.60203e-19)
(1.81104 -2.0564 1.00395e-18)
(1.79474 -2.03795 9.73299e-19)
(1.77825 -2.01928 1.77018e-23)
(1.76156 -2.00038 0)
(1.74466 -1.98125 6.65528e-19)
(1.72755 -1.96188 -6.41942e-19)
(1.71022 -1.94226 0)
(1.69266 -1.92237 0)
(1.67486 -1.90222 1.93291e-19)
(1.65682 -1.88179 -1.89725e-19)
(1.63852 -1.86107 1.80907e-19)
(1.62012 -1.84023 1.07182e-18)
(1.60192 -1.81962 1.78905e-19)
(1.58409 -1.79942 0)
(1.5666 -1.7796 0)
(1.54944 -1.76015 -5.25937e-19)
(1.5326 -1.74106 -1.75488e-19)
(1.51608 -1.72232 8.6696e-19)
(1.49985 -1.70391 -3.4634e-19)
(1.48391 -1.68583 -6.88652e-19)
(1.46826 -1.66806 1.03499e-18)
(1.45287 -1.65059 1.2048e-18)
(1.43775 -1.63341 0)
(1.42288 -1.61652 6.88434e-19)
(1.40826 -1.59989 -6.88463e-19)
(1.39387 -1.58354 -1.70976e-19)
(1.37972 -1.56743 1.73558e-19)
(1.36579 -1.55158 6.90176e-19)
(1.35207 -1.53596 0)
(1.33856 -1.52058 -8.64304e-19)
(1.32525 -1.50541 1.0407e-18)
(1.31213 -1.49047 -1.75056e-19)
(1.2992 -1.47573 1.75486e-19)
(1.28645 -1.46119 -6.96632e-19)
(1.27387 -1.44685 5.27021e-19)
(1.26147 -1.43269 1.74601e-19)
(1.24922 -1.41871 -1.77576e-19)
(1.23713 -1.40491 1.75754e-19)
(1.22519 -1.39128 -1.78772e-19)
(1.2134 -1.37781 0)
(1.20175 -1.3645 3.57672e-19)
(1.19024 -1.35135 -3.58965e-19)
(1.17887 -1.33834 -2.47179e-23)
(1.16762 -1.32548 -3.61556e-19)
(1.15651 -1.31275 0)
(1.14552 -1.30017 -1.80878e-19)
(1.13465 -1.28772 3.65459e-19)
(1.1239 -1.27541 3.6673e-19)
(1.11328 -1.26322 3.67957e-19)
(1.10278 -1.25117 -1.8579e-19)
(1.09239 -1.23924 3.70336e-19)
(1.08212 -1.22744 -5.58364e-19)
(1.07197 -1.21577 -1.21719e-21)
(1.06195 -1.20422 0)
(1.05204 -1.1928 1.87209e-19)
(1.04225 -1.18151 -1.87645e-19)
(1.03258 -1.17035 1.88044e-19)
(1.02303 -1.15932 -3.76829e-19)
(1.0136 -1.14841 -2.82495e-19)
(1.0043 -1.13764 9.51134e-20)
(0.995116 -1.12701 1.8926e-19)
(0.986057 -1.1165 1.89481e-19)
(0.977121 -1.10614 0)
(0.968308 -1.0959 -9.54915e-20)
(0.959618 -1.08581 -1.89862e-19)
(0.95105 -1.07585 9.55571e-20)
(0.942605 -1.06603 0)
(0.93428 -1.05634 -3.79933e-19)
(0.926075 -1.0468 1.89949e-19)
(0.917989 -1.03739 9.43754e-20)
(0.91002 -1.02812 -1.91074e-19)
(0.902168 -1.01898 -5.80968e-22)
(0.894429 -1.00998 1.89842e-19)
(0.886802 -1.00111 0)
(0.879284 -0.992375 -9.49293e-20)
(0.871874 -0.983767 9.43855e-20)
(2.05697 -2.34887 8.1891e-19)
(2.04321 -2.33317 7.95292e-19)
(2.02933 -2.31734 -7.80467e-19)
(2.01533 -2.30138 7.54621e-19)
(2.00122 -2.28529 -7.40389e-19)
(1.98699 -2.26906 1.43315e-18)
(1.97262 -2.25269 -2.8225e-21)
(1.95813 -2.23617 1.35949e-18)
(1.9435 -2.2195 6.58289e-19)
(1.92873 -2.20267 -3.21117e-24)
(1.91382 -2.18568 3.23366e-24)
(1.89876 -2.16851 9.06453e-19)
(1.88355 -2.15118 8.83257e-19)
(1.86817 -2.13366 -2.00603e-18)
(1.85264 -2.11596 -1.39157e-18)
(1.83693 -2.09807 -1.07948e-18)
(1.82105 -2.07999 0)
(1.80499 -2.06169 -1.26882e-18)
(1.78875 -2.04319 2.76067e-21)
(1.77231 -2.02447 2.15147e-18)
(1.75568 -2.00552 0)
(1.73884 -1.98634 -2.23076e-19)
(1.72178 -1.96692 2.18869e-19)
(1.70451 -1.94725 -2.09325e-19)
(1.68701 -1.92732 2.72867e-21)
(1.66927 -1.90711 1.98992e-19)
(1.65129 -1.88663 -7.65429e-19)
(1.63306 -1.86585 1.48119e-18)
(1.61472 -1.84496 -1.80186e-19)
(1.59659 -1.8243 1.81805e-19)
(1.57881 -1.80404 8.95733e-19)
(1.56138 -1.78417 -8.93724e-19)
(1.54428 -1.76467 1.42136e-18)
(1.5275 -1.74554 -7.07853e-19)
(1.51103 -1.72675 -8.80529e-19)
(1.49486 -1.70829 7.06002e-19)
(1.47898 -1.69016 1.05274e-18)
(1.46337 -1.67235 -8.76946e-19)
(1.44804 -1.65484 -6.99598e-19)
(1.43297 -1.63761 0)
(1.41815 -1.62068 0)
(1.40358 -1.60402 6.98564e-19)
(1.38924 -1.58762 -5.25293e-19)
(1.37514 -1.57148 -1.76036e-19)
(1.36125 -1.55558 -6.99871e-19)
(1.34758 -1.53993 -5.26804e-19)
(1.33411 -1.5245 -3.5094e-19)
(1.32085 -1.50931 -5.2617e-19)
(1.30777 -1.49432 0)
(1.29488 -1.47955 -1.77796e-19)
(1.28218 -1.46498 7.05577e-19)
(1.26964 -1.4506 -3.54956e-19)
(1.25727 -1.43641 1.79202e-19)
(1.24506 -1.4224 0)
(1.23301 -1.40857 -1.80275e-19)
(1.22111 -1.39491 -5.40114e-19)
(1.20936 -1.38141 0)
(1.19775 -1.36807 -5.41226e-19)
(1.18627 -1.35488 5.45482e-19)
(1.17493 -1.34185 -3.64083e-19)
(1.16372 -1.32896 3.65308e-19)
(1.15264 -1.31621 -1.82035e-19)
(1.14168 -1.3036 1.85081e-19)
(1.13085 -1.29113 -3.68901e-19)
(1.12013 -1.27879 -7.40162e-19)
(1.10954 -1.26658 1.86818e-19)
(1.09907 -1.2545 1.87377e-19)
(1.08871 -1.24255 1.85461e-19)
(1.07848 -1.23073 1.85982e-19)
(1.06836 -1.21904 -1.47729e-23)
(1.05836 -1.20747 -1.88099e-19)
(1.04848 -1.19604 -1.88526e-19)
(1.03872 -1.18473 1.87689e-19)
(1.02908 -1.17355 -5.67709e-19)
(1.01956 -1.1625 7.58144e-19)
(1.01016 -1.15158 -3.7958e-19)
(1.00088 -1.14079 2.42435e-21)
(0.991722 -1.13014 -4.32348e-24)
(0.982688 -1.11962 -1.91552e-19)
(0.973776 -1.10923 9.46221e-20)
(0.964986 -1.09898 9.46522e-20)
(0.956319 -1.08887 9.46744e-20)
(0.947773 -1.0789 1.89348e-19)
(0.939348 -1.06906 -9.58544e-20)
(0.931043 -1.05936 1.90474e-19)
(0.922858 -1.0498 -3.80794e-19)
(0.914792 -1.04037 0)
(0.906842 -1.03109 1.90221e-19)
(0.899007 -1.02193 9.50676e-20)
(0.891286 -1.01291 -1.89483e-19)
(0.883677 -1.00403 9.50047e-20)
(0.876177 -0.99527 -9.49907e-20)
(0.868784 -0.986643 5.76001e-22)
(2.04986 -2.35507 -1.64683e-18)
(2.03614 -2.33933 0)
(2.02231 -2.32346 0)
(2.00837 -2.30746 -7.61378e-19)
(1.9943 -2.29132 -7.41734e-19)
(1.98012 -2.27505 0)
(1.9658 -2.25863 -7.03324e-19)
(1.95136 -2.24207 -1.36911e-18)
(1.93678 -2.22535 -6.63246e-19)
(1.92207 -2.20848 -2.58602e-18)
(1.90721 -2.19144 1.89303e-18)
(1.8922 -2.17423 -2.45008e-18)
(1.87703 -2.15685 1.78304e-18)
(1.86172 -2.13929 1.73232e-18)
(1.84623 -2.12154 1.64831e-23)
(1.83058 -2.1036 0)
(1.81476 -2.08546 0)
(1.79875 -2.06712 0)
(1.78257 -2.04857 0)
(1.76619 -2.0298 -7.27036e-19)
(1.74961 -2.0108 -2.35964e-19)
(1.73283 -1.99157 0)
(1.71583 -1.9721 8.81882e-19)
(1.69862 -1.95237 2.12283e-19)
(1.68118 -1.93238 -2.08423e-19)
(1.66351 -1.91213 8.02312e-19)
(1.64559 -1.89159 7.77164e-19)
(1.62742 -1.87076 -1.50435e-18)
(1.60914 -1.84981 1.83035e-19)
(1.59108 -1.8291 5.48559e-19)
(1.57336 -1.80878 -1.75711e-23)
(1.55599 -1.78886 5.45122e-19)
(1.53895 -1.76931 3.60803e-19)
(1.52223 -1.75013 5.37723e-19)
(1.50582 -1.73129 7.16186e-19)
(1.48971 -1.71279 -8.91265e-19)
(1.47388 -1.69461 1.79361e-19)
(1.45833 -1.67675 0)
(1.44306 -1.65919 0)
(1.42804 -1.64193 0)
(1.41327 -1.62495 0)
(1.39875 -1.60824 8.84225e-19)
(1.38446 -1.59181 5.30117e-19)
(1.37041 -1.57562 8.84737e-19)
(1.35657 -1.55969 -1.7856e-19)
(1.34294 -1.544 7.10144e-19)
(1.32952 -1.52854 0)
(1.3163 -1.5133 -1.76821e-19)
(1.30327 -1.49828 1.79634e-19)
(1.29043 -1.48347 1.77527e-19)
(1.27776 -1.46886 -5.38763e-19)
(1.26527 -1.45445 -3.59213e-19)
(1.25294 -1.44023 0)
(1.24077 -1.42619 -1.79335e-19)
(1.22876 -1.41232 5.44491e-19)
(1.2169 -1.39863 1.82859e-19)
(1.20518 -1.3851 5.47698e-19)
(1.1936 -1.37173 2.23263e-23)
(1.18217 -1.35851 -9.15155e-19)
(1.17086 -1.34545 5.5275e-19)
(1.15969 -1.33253 1.83176e-19)
(1.14864 -1.31975 -5.56136e-19)
(1.13772 -1.30712 1.84295e-19)
(1.12692 -1.29462 3.69698e-19)
(1.11624 -1.28225 1.7189e-23)
(1.10568 -1.27002 -1.75082e-23)
(1.09524 -1.25792 -9.91874e-24)
(1.08491 -1.24595 2.46152e-21)
(1.07471 -1.2341 3.78294e-19)
(1.06462 -1.22239 -1.88961e-19)
(1.05465 -1.2108 1.89347e-19)
(1.0448 -1.19935 0)
(1.03507 -1.18802 5.68797e-19)
(1.02546 -1.17682 -2.44822e-21)
(1.01597 -1.16575 -5.728e-19)
(1.0066 -1.15481 -1.8949e-19)
(0.997345 -1.14401 1.92101e-19)
(0.988215 -1.13334 1.91011e-19)
(0.979206 -1.1228 1.89868e-19)
(0.970319 -1.1124 -1.93533e-19)
(0.961553 -1.10213 -3.83459e-19)
(0.952909 -1.09201 -1.91087e-19)
(0.944386 -1.08201 -1.19346e-23)
(0.935984 -1.07216 0)
(0.927701 -1.06244 -1.89636e-19)
(0.919537 -1.05287 3.8258e-19)
(0.911491 -1.04342 0)
(0.903561 -1.03412 -1.90416e-19)
(0.895747 -1.02495 -1.90272e-19)
(0.888046 -1.01591 -9.50715e-20)
(0.880456 -1.007 1.89463e-19)
(0.872975 -0.998226 -1.9055e-19)
(0.865601 -0.989578 9.22209e-25)
(2.04253 -2.36143 2.85883e-21)
(2.02885 -2.34564 -7.98699e-19)
(2.01507 -2.32973 1.56899e-18)
(2.00118 -2.31369 7.61996e-19)
(1.98716 -2.29751 7.45471e-19)
(1.97303 -2.28119 -7.23495e-19)
(1.95876 -2.26473 -7.01801e-19)
(1.94437 -2.24812 6.91815e-19)
(1.92985 -2.23136 -1.34137e-18)
(1.91518 -2.21443 2.61081e-18)
(1.90037 -2.19735 1.90217e-18)
(1.88542 -2.18009 6.14776e-19)
(1.87031 -2.16266 5.97652e-19)
(1.85505 -2.14505 -1.75402e-18)
(1.83962 -2.12726 2.26895e-18)
(1.82403 -2.10927 -5.48222e-19)
(1.80826 -2.09108 5.38031e-19)
(1.79231 -2.07269 1.0393e-18)
(1.77618 -2.05409 -5.016e-19)
(1.75986 -2.03527 4.92344e-19)
(1.74335 -2.01622 -9.4988e-19)
(1.72662 -1.99693 0)
(1.70969 -1.97741 6.71541e-19)
(1.69254 -1.95763 2.17984e-19)
(1.67517 -1.93759 -8.39774e-19)
(1.65756 -1.91727 -8.13909e-19)
(1.6397 -1.89668 7.88675e-19)
(1.6216 -1.87579 1.71674e-18)
(1.60339 -1.85479 -1.88629e-19)
(1.58539 -1.83402 1.84711e-19)
(1.56774 -1.81365 -9.2631e-19)
(1.55043 -1.79368 0)
(1.53346 -1.77408 -7.32442e-19)
(1.5168 -1.75484 9.10346e-19)
(1.50045 -1.73595 5.43685e-19)
(1.48439 -1.7174 0)
(1.46862 -1.69918 -1.79324e-19)
(1.45313 -1.68127 3.60499e-19)
(1.43791 -1.66366 -1.81244e-19)
(1.42294 -1.64636 5.40461e-19)
(1.40823 -1.62933 2.56728e-21)
(1.39376 -1.61258 -7.15457e-19)
(1.37953 -1.5961 3.58972e-19)
(1.36552 -1.57988 -8.98957e-19)
(1.35173 -1.5639 8.96947e-19)
(1.33815 -1.54817 -1.8106e-19)
(1.32478 -1.53267 1.78745e-19)
(1.31161 -1.5174 -1.81516e-19)
(1.29862 -1.50234 7.22207e-19)
(1.28582 -1.48749 -3.61771e-19)
(1.2732 -1.47285 -1.80006e-19)
(1.26075 -1.4584 5.46234e-19)
(1.24846 -1.44414 0)
(1.23633 -1.43007 -1.81289e-19)
(1.22436 -1.41617 1.84255e-19)
(1.21254 -1.40244 0)
(1.20086 -1.38888 -3.68011e-19)
(1.18933 -1.37548 7.38046e-19)
(1.17793 -1.36223 1.86286e-19)