/*--------------------------------*- C++ -*----------------------------------*\
  =========                 |
  \\      /  F ield         | OpenFOAM: The Open Source CFD Toolbox
   \\    /   O peration     | Website:  https://openfoam.org
    \\  /    A nd           | Version:  10
     \\/     M anipulation  |
\*---------------------------------------------------------------------------*/
FoamFile
{
    format      ascii;
    class       volScalarField;
    location    "22000";
    object      Co;
}
// * * * * * * * * * * * * * * * * * * * * * * * * * * * * * * * * * * * * * //

dimensions      [0 0 0 0 0 0 0];

internalField   nonuniform List<scalar> 
17969
(
73.4981
38.6749
27.3007
21.0268
22.8435
41.9759
75.0942
115.331
160.956
208.207
252.57
290.681
320.968
343.586
359.552
370.15
376.526
379.632
380.273
379.098
376.607
373.17
369.052
364.44
359.463
354.213
348.758
343.142
337.402
331.562
325.641
319.653
313.61
307.52
301.389
295.223
289.028
282.805
276.559
270.293
264.009
257.709
251.397
245.073
238.741
232.403
226.06
219.715
213.37
207.027
200.688
194.354
188.029
181.713
175.41
169.119
162.844
156.586
150.346
144.126
137.927
131.751
125.599
119.472
113.372
107.299
101.254
95.2384
89.2527
83.2976
77.3737
71.4814
65.621
59.7926
55.3352
52.287
49.3962
46.65
49.0164
51.9903
54.8206
57.5165
60.0863
62.538
64.8792
67.117
69.2585
71.3102
73.2787
75.1702
76.9902
78.7428
80.4308
82.057
83.6248
85.1378
86.5998
88.0148
89.3865
90.7189
75.3975
40.373
30.1504
23.0178
20.0719
22.8584
37.8785
66.0099
100.799
141.785
186.604
231.619
273.135
308.575
336.798
358.034
373.186
383.345
389.498
392.474
392.992
391.646
388.916
385.172
380.687
375.661
370.236
364.517
358.575
352.464
346.225
339.885
333.466
326.985
320.454
313.883
307.279
300.648
293.995
287.324
280.638
273.941
267.234
260.521
253.803
247.082
240.361
233.642
226.926
220.215
213.512
206.817
200.133
193.462
186.805
180.164
173.54
166.936
160.353
153.792
147.255
140.743
134.258
127.8
121.372
114.974
108.607
102.273
95.972
89.7054
83.4741
77.2786
71.1197
64.9978
60.3768
57.2908
54.3654
51.5882
52.919
55.9443
58.8234
61.5656
64.1798
66.6743
69.0571
71.3356
73.5171
75.6082
77.6154
79.5446
81.4017
83.1907
84.9147
86.5763
88.179
89.7265
91.2228
92.6719
94.0778
95.4444
77.0393
40.8904
32.8913
25.5867
21.5802
20.3351
21.7455
33.6341
55.3051
84.3861
119.71
160.279
203.659
246.616
286.02
319.716
346.755
367.312
382.159
392.237
398.431
401.489
402.062
400.704
397.877
393.952
389.213
383.876
378.097
371.991
365.641
359.108
352.438
345.662
338.807
331.891
324.928
317.929
310.903
303.856
296.793
289.72
282.639
275.553
268.466
261.379
254.295
247.215
240.142
233.077
226.022
218.98
211.95
204.936
197.939
190.96
184.001
177.064
170.15
163.26
156.397
149.561
142.754
135.978
129.233
122.521
115.843
109.201
102.595
96.0272
89.4978
83.0082
76.5594
70.1519
65.3713
62.2475
59.2868
56.4768
56.6149
59.6869
62.6096
65.3928
68.0456
70.577
72.9955
75.3089
77.5249
79.6502
81.691
83.653
85.5417
87.3615
89.1156
90.8066
92.438
94.0137
95.5379
97.0148
98.4488
99.8439
78.648
40.8458
35.1208
28.2744
23.4068
21.6726
21.3605
22.1606
30.4314
45.1486
68.8394
98.0823
133.001
172.449
214.128
255.196
292.94
325.442
351.808
372.087
386.919
397.132
403.543
406.838
407.612
406.381
403.588
399.605
394.728
389.185
383.148
376.745
370.07
363.192
356.162
349.02
341.793
334.502
327.166
319.795
312.4
304.988
297.564
290.135
282.704
275.273
267.847
260.426
253.014
245.613
238.224
230.848
223.489
216.147
208.824
201.521
194.241
186.984
179.752
172.547
165.371
158.223
151.107
144.024
136.974
129.96
122.982
116.042
109.142
102.282
95.464
88.6893
81.9589
75.2738
70.3382
67.1777
64.182
61.3392
60.1218
63.2363
66.1978
69.0166
71.7022
74.2642
76.7119
79.0542
81.2994
83.4542
85.524
87.5139
89.4291
91.2741
93.0522
94.7661
96.4193
98.016
99.5606
101.058
102.512
103.928
105.31
106.661
107.985
109.286
80.2195
40.4098
36.5171
31.2979
26.1898
23.4575
22.9174
23.1578
24.1723
28.0506
38.4431
55.8457
79.4018
108.127
141.958
179.788
219.58
258.841
295.167
326.766
352.718
372.922
387.89
398.365
405.112
408.758
409.843
408.852
406.212
402.289
397.385
391.742
385.546
378.937
372.021
364.877
357.562
350.121
342.586
334.983
327.33
319.641
311.929
304.201
296.464
288.724
280.986
273.252
265.525
257.81
250.107
242.419
234.748
227.095
219.463
211.853
204.267
196.705
189.171
181.664
174.188
166.742
159.33
151.952
144.609
137.304
130.037
122.811
115.627
108.485
101.388
94.3375
87.3343
80.3798
75.2944
72.0994
69.0705
66.196
63.8549
66.6097
69.606
72.4557
75.1687
77.7551
80.2253
82.5896
84.8576
87.0362
89.1297
91.142
93.0772
94.9396
96.7329
98.4605
100.126
101.734
103.289
104.796
106.26
107.686
109.079
110.442
111.78
113.097
81.8055
39.8315
37.5636
33.8645
29.2698
25.634
24.2909
24.352
24.9708
26.1445
27.909
34.788
45.4363
64.3702
87.3867
115.077
147.37
183.312
221.138
258.651
293.681
324.508
350.148
370.352
385.525
396.339
403.483
407.54
409.012
408.354
405.968
402.212
397.387
391.746
385.487
378.761
371.687
364.352
356.822
349.148
341.367
333.508
325.593
317.639
309.658
301.66
293.653
285.645
277.638
269.639
261.65
253.675
245.715
237.774
229.853
221.954
214.079
206.23
198.409
190.616
182.855
175.125
167.43
159.771
152.148
144.564
137.021
129.519
122.061
114.648
107.282
99.9648
92.6976
85.4821
80.2525
77.0263
73.967
71.0633
68.304
69.8224
72.8513
75.7295
78.4671
81.0743
83.5622
85.9421
88.2235
90.4138
92.5184
94.5421
96.4884
98.3599
100.16
101.891
103.559
105.167
106.722
108.229
109.693
111.119
112.513
113.878
115.22
116.542
83.3893
39.0985
38.1805
36.068
32.7877
28.9667
25.7478
24.6631
25.0561
25.8832
27.1341
28.8139
31.0879
39.8831
52.002
70.5908
92.8252
119.247
149.846
183.843
219.723
255.546
289.332
319.41
344.734
364.969
380.382
391.549
399.096
403.587
405.487
405.22
403.162
399.654
394.996
389.442
383.202
376.438
369.279
361.821
354.141
346.293
338.322
330.26
322.131
313.957
305.751
297.525
289.288
281.048
272.811
264.581
256.363
248.16
239.974
231.809
223.668
215.551
207.461
199.4
191.37
183.373
175.41
167.483
159.594
151.745
143.937
136.172
128.452
120.778
113.153
105.579
98.057
90.5891
85.2216
81.968
78.8817
75.9517
73.1674
72.8834
75.9432
78.8481
81.6082
84.2337
86.736
89.1253
91.4099
93.5972
95.6942
97.7083
99.6466
101.513
103.309
105.037
106.699
108.301
109.847
111.343
112.797
114.214
115.598
116.955
118.29
119.607
120.91
84.9812
38.2075
38.2059
37.5622
35.585
33.0417
29.9423
26.2126
24.3085
24.7473
25.6136
26.8277
28.3877
30.3206
34.3559
43.2689
56.5476
74.7079
96.0875
121.215
150.141
182.247
216.249
250.426
282.95
312.234
337.209
357.441
373.052
384.526
392.442
397.352
399.683
399.824
398.128
394.917
390.484
385.083
378.927
372.19
365.009
357.488
349.712
341.743
333.629
325.409
317.111
308.757
300.364
291.947
283.515
275.078
266.642
258.213
249.795
241.394
233.011
224.65
216.314
208.005
199.726
191.479
183.265
175.087
166.946
158.845
150.786
142.771
134.801
126.878
119.005
111.184
103.417
95.7058
90.2069
86.9301
83.8203
80.8671
78.06
76.1076
78.8807
81.8081
84.5857
87.2234
89.7331
92.1248
94.4061
96.5841
98.6658
100.659
102.572
104.412
106.186
107.897
109.544
111.131
112.66
114.139
115.573
116.97
118.335
119.674
120.992
122.294
123.584
124.866
126.142
86.6058
37.2024
37.6392
38.0889
37.1834
35.7483
33.8296
31.3803
28.3375
25.1048
23.881
24.6458
25.7162
27.1044
28.8418
30.9653
36.4557
45.4384
59.5781
77.2778
97.8186
121.701
149.034
179.339
211.521
244.058
275.283
303.705
328.246
348.373
364.079
375.771
383.993
389.262
391.984
392.513
391.181
388.289
384.116
378.911
372.89
366.23
359.076
351.541
343.715
335.669
327.455
319.117
310.686
302.188
293.643
285.067
276.471
267.866
259.26
250.66
242.07
233.496
224.941
216.409
207.904
199.427
190.982
182.571
174.196
165.86
157.564
149.312
141.106
132.946
124.837
116.781
108.778
100.833
95.2102
91.915
88.7857
85.8123
82.9851
80.2939
81.661
84.6056
87.3941
90.0373
92.5472
94.9344
97.2063
99.3702
101.433
103.403
105.286
107.091
108.826
110.498
112.112
113.669
115.172
116.622
118.026
119.392
120.726
122.036
123.325
124.601
125.868
127.129
128.388
129.647
88.2992
36.2054
36.737
37.8376
37.6133
36.9429
35.8978
34.4461
32.5412
30.1208
27.1001
24.3731
23.6857
24.5479
25.7192
27.228
29.1026
31.3703
37.9896
46.9578
61.6973
78.9075
98.6283
121.325
147.148
175.727
206.133
237.029
266.908
294.373
318.348
338.221
353.905
365.719
374.156
379.701
382.746
383.62
382.628
380.049
376.146
371.159
365.302
358.754
351.664
344.153
336.315
328.228
319.949
311.526
302.995
294.384
285.717
277.01
268.278
259.532
250.782
242.035
233.298
224.575
215.872
207.192
198.539
189.916
181.327
172.774
164.259
155.787
147.358
138.976
130.644
122.363
114.138
105.969
100.23
96.9214
93.7771
90.7874
87.9431
85.2346
84.2794
87.2362
90.0299
92.6724
95.1767
97.554
99.8118
101.957
103.998
105.94
107.791
109.558
111.248
112.869
114.429
115.935
117.391
118.798
120.16
121.483
122.774
124.041
125.291
126.529
127.761
128.992
130.224
131.46
132.704
133.955
90.0858
35.3288
35.806
37.2158
37.3099
37.0229
36.466
35.6282
34.4804
32.9782
31.0589
28.6356
25.5901
23.7342
23.9345
24.8489
26.0836
27.6652
29.6161
31.955
39.4093
48.5317
63.4138
80.0991
99.008
120.567
144.947
171.865
200.534
229.786
258.266
284.653
307.903
327.374
342.902
354.719
363.259
368.981
372.271
373.427
372.733
370.442
366.798
362.033
356.352
349.937
342.937
335.478
327.658
319.559
311.244
302.766
294.162
285.466
276.702
267.89
259.047
250.184
241.313
232.442
223.579
214.729
205.899
197.091
188.312
179.564
170.851
162.176
153.543
144.955
136.414
127.923
119.487
111.107
105.26
101.944
98.7902
95.7886
92.9309
90.2083
87.8175
89.6923
92.4869
95.1244
97.6191
99.9826
102.222
104.344
106.357
108.265
110.077
111.799
113.438
115.002
116.498
117.937
119.325
120.67
121.974
123.24
124.475
125.688
126.886
128.075
129.262
130.452
131.647
132.852
134.069
135.298
136.542
137.8
139.072
140.36
91.9738
34.6288
35.0814
36.6212
36.8038
36.6095
36.2037
35.6102
34.8234
33.8195
32.5589
30.9834
29.0099
26.5271
24.5712
24.247
24.884
25.8109
27.0578
28.6499
30.6059
33.2029
41.0092
50.5853
65.1021
81.2306
99.3318
119.79
142.783
168.096
195.064
222.661
249.667
274.857
297.233
316.146
331.363
343.039
351.558
357.354
360.802
362.17
361.717
359.674
356.266
351.711
346.209
339.935
333.041
325.652
317.872
309.786
301.46
292.951
284.299
275.541
266.704
257.81
248.877
239.919
230.948
221.974
213.005
204.048
195.109
186.194
177.308
168.454
159.637
150.861
142.129
133.445
124.812
116.234
110.29
106.974
103.816
100.808
97.9417
95.2089
92.602
91.9654
94.7576
97.3865
99.8682
102.213
104.429
106.521
108.497
110.363
112.127
113.796
115.376
116.876
118.304
119.668
120.979
122.246
123.474
124.668
125.834
126.98
128.113
129.243
130.373
131.512
132.661
133.826
135.007
136.207
137.426
138.664
139.922
141.198
93.9625
34.1003
34.626
36.2488
36.4227
36.167
35.7038
35.0981
34.3711
33.5204
32.5278
31.3617
29.9735
28.292
26.3872
25.455
25.6142
25.9811
26.5936
27.4875
28.6937
30.2364
32.1324
35.3078
42.9381
52.8902
66.9952
82.5449
99.8445
119.234
140.889
164.645
189.935
215.859
241.323
265.209
286.571
304.764
319.506
330.889
339.26
345.025
348.538
350.042
349.767
347.923
344.717
340.352
335.018
328.886
322.105
314.8
307.076
299.021
290.704
282.184
273.505
264.706
255.817
246.86
237.857
228.822
219.77
210.712
201.656
192.611
183.583
174.579
165.605
156.664
147.762
138.903
130.092
121.332
115.303
111.996
108.842
105.834
102.964
100.226
97.6132
95.3329
96.8307
99.4472
101.91
104.231
106.415
108.47
110.403
112.219
113.927
115.534
117.048
118.476
119.828
121.112
122.34
123.52
124.661
125.77
126.854
127.919
128.976
130.033
131.096
132.173
133.267
134.382
135.52
136.683
137.871
139.084
140.322
141.584
96.0558
33.7513
34.448
36.1573
36.2974
35.9294
35.3238
34.5823
33.7503
32.8435
31.8609
30.7904
29.6088
28.7138
28.3119
28.0946
27.959
27.9398
28.0732
28.3973
28.9511
29.7718
30.8917
32.3356
34.1196
37.8045
45.2082
55.5183
69.184
84.1465
100.658
119.013
139.375
161.616
185.251
209.492
233.364
255.854
276.068
293.384
307.486
318.432
326.531
332.16
335.647
337.206
337.043
335.344
332.298
328.095
322.913
316.916
310.247
303.032
295.375
287.364
279.072
270.558
261.869
253.047
244.122
235.121
226.065
216.972
207.856
198.732
189.607
180.492
171.393
162.318
153.274
144.265
135.297
126.376
120.277
116.989
113.847
110.847
107.98
105.243
102.63
100.134
99.0447
101.288
103.726
106.016
108.163
110.174
112.056
113.816
115.461
116.999
118.438
119.786
121.054
122.25
123.387
124.473
125.52
126.536
127.527
128.501
129.469
130.442
131.429
132.435
133.465
134.523
135.612
136.732
137.883
139.067
140.28
141.523
98.2524
33.5838
34.5579
36.3796
36.4951
36.0151
35.256
34.3481
33.4633
32.9808
32.8017
32.5937
32.3604
32.1067
31.8401
31.5716
31.3177
31.102
30.9535
30.9047
30.9907
31.2493
31.7198
32.4404
33.4445
34.7575
36.3958
40.5818
47.7301
58.4255
71.6422
86.0232
101.77
119.129
138.247
159.021
181.033
203.596
225.843
246.859
265.808
282.099
295.411
305.783
313.495
318.891
322.265
323.802
323.682
322.071
319.142
315.067
310.015
304.139
297.578
290.453
282.868
274.91
266.652
258.156
249.472
240.641
231.696
222.665
213.573
204.439
195.279
186.104
176.928
167.759
158.608
149.481
140.386
131.329
125.179
121.923
118.805
115.822
112.967
110.237
107.628
105.136
102.757
102.883
105.291
107.544
109.647
111.609
113.434
115.131
116.706
118.168
119.525
120.786
121.961
123.061
124.097
125.082
126.027
126.942
127.835
128.712
129.584
130.464
131.365
132.292
133.252
134.247
135.281
136.353
137.465
138.615
139.801
141.023
142.278
100.551
33.6001
34.9596
36.9211
37.033
36.4629
36.0766
36.1175
36.1738
36.178
36.1368
36.0531
35.9286
35.7654
35.5662
35.3358
35.0814
34.8145
34.5524
34.3183
34.1397
34.0467
34.0725
34.2537
34.6294
35.2378
36.1128
37.2807
38.7579
43.481
50.3632
61.5004
74.2731
88.0894
103.102
119.511
137.44
156.803
177.24
198.149
218.756
238.237
255.821
270.959
283.349
293.028
300.252
305.327
308.506
309.948
309.805
308.226
305.367
301.386
296.436
290.664
284.199
277.159
269.644
261.742
253.526
245.057
236.387
227.556
218.608
209.565
200.453
191.294
182.104
172.896
163.686
154.483
145.299
136.14
129.965
126.757
123.677
120.723
117.89
115.175
112.577
110.093
107.723
105.766
106.574
108.785
110.84
112.745
114.509
116.136
117.636
119.015
120.283
121.449
122.524
123.519
124.447
125.322
126.157
126.964
127.753
128.532
129.307
130.091
130.9
131.744
132.628
133.557
134.532
135.554
136.624
137.739
138.898
140.097
141.335
102.949
33.8062
35.6586
37.7874
38.0879
38.3171
38.7283
38.9992
39.184
39.3056
39.3738
39.393
39.365
39.2908
39.1712
39.0077
38.803
38.5615
38.2907
38.0024
37.7141
37.4479
37.2292
37.0855
37.0476
37.1506
37.4323
37.9301
38.6776
39.7011
41.0173
46.3416
53.1824
64.6114
76.9536
90.2285
104.543
120.051
136.852
154.872
173.792
193.081
212.048
229.953
246.093
259.975
271.335
280.222
286.874
291.555
294.467
295.749
295.524
293.923
291.087
287.16
282.282
276.589
270.203
263.237
255.788
247.942
239.773
231.337
222.691
213.872
204.929
195.889
186.772
177.602
168.399
159.178
149.954
140.738
134.57
131.433
128.411
125.501
122.702
120.012
117.432
114.962
112.606
110.358
108.88
109.702
111.703
113.547
115.242
116.794
118.212
119.503
120.677
121.743
122.712
123.597
124.41
125.169
125.888
126.582
127.263
127.94
128.62
129.309
130.025
130.782
131.587
132.446
133.359
134.329
135.354
136.432
137.562
138.74
139.963
105.441
34.2004
36.6479
39.0509
40.0478
40.9004
41.4366
41.8051
42.073
42.2702
42.4099
42.4983
42.5381
42.5302
42.475
42.3726
42.2236
42.0293
41.7924
41.5177
41.2128
40.8898
40.5659
40.262
40.001
39.8078
39.711
39.7435
39.941
40.3393
40.9707
41.8608
43.2546
49.0288
56.5443
67.635
79.5636
92.3208
105.972
120.63
136.367
153.114
170.581
188.293
205.633
221.938
236.582
249.132
259.384
267.407
273.421
277.653
280.242
281.303
280.938
279.263
276.403
272.487
267.645
262.002
255.673
248.764
241.368
233.57
225.447
217.05
208.44
199.658
190.733
181.703
172.596
163.435
154.241
145.028
138.911
135.875
132.934
130.089
127.342
124.692
122.141
119.693
117.353
115.128
112.99
111.673
112.189
113.967
115.589
117.062
118.394
119.592
120.667
121.63
122.491
123.263
123.961
124.603
125.204
125.783
126.353
126.925
127.508
128.105
128.728
129.395
130.119
130.905
131.756
132.673
133.654
134.698
135.802
136.961
138.172
139.43
108.022
34.774
37.9241
40.9406
42.4695
43.4381
44.0432
44.46
44.7674
45.0003
45.1746
45.2981
45.3742
45.4043
45.3887
45.3273
45.2199
45.0666
44.8679
44.6255
44.3424
44.0235
43.6768
43.3147
42.9538
42.6133
42.3138
42.078
41.9319
41.906
42.0334
42.3476
42.879
43.6519
45.8636
51.4405
59.7013
70.467
81.9962
94.2556
107.277
121.134
135.871
151.41
167.485
183.669
199.406
214.106
227.227
238.399
247.495
254.618
259.962
263.695
265.918
266.704
266.144
264.34
261.404
257.454
252.61
246.986
240.69
233.823
226.473
218.712
210.622
202.266
193.698
184.96
176.078
167.085
158.013
148.884
142.876
139.98
137.154
134.403
131.73
129.14
126.635
124.221
121.906
119.702
117.6
115.552
114.07
113.976
115.499
116.89
118.133
119.238
120.213
121.071
121.824
122.485
123.07
123.597
124.084
124.548
125.004
125.466
125.946
126.45
126.986
127.566
128.208
128.923
129.714
130.58
131.522
132.536
133.617
134.763
135.967
137.224
110.686
35.5053
39.4629
42.9528
44.8447
45.8622
46.4829
46.9042
47.2127
47.4465
47.6233
47.7515
47.8352
47.8762
47.8752
47.832
47.7462
47.6175
47.4457
47.231
46.9742
46.6774
46.3438
45.9787
45.5905
45.1915
44.7974
44.426
44.0955
43.8262
43.642
43.5708
43.6428
43.8888
44.3369
45.0096
48.1142
53.5089
62.5802
73.0303
84.168
95.9454
108.366
121.465
135.254
149.643
164.386
179.088
193.253
206.353
217.94
227.725
235.665
241.891
246.567
249.777
251.578
252.032
251.218
249.229
246.168
242.142
237.261
231.631
225.353
218.519
211.216
203.507
195.462
187.154
178.631
169.935
161.099
152.153
146.328
143.623
140.956
138.336
135.77
133.265
130.827
128.463
126.185
124.01
121.944
119.949
117.984
116.027
115.816
116.227
117.382
118.392
119.269
120.024
120.671
121.224
121.7
122.116
122.489
122.839
123.183
123.537
123.914
124.327
124.781
125.285
125.853
126.501
127.236
128.059
128.966
129.955
131.021
132.158
133.362
134.625
113.425
36.3701
41.3352
45.1456
47.1094
48.1139
48.7049
49.094
49.3717
49.5774
49.7295
49.837
49.9042
49.9333
49.925
49.8794
49.796
49.6744
49.514
49.3145
49.076
48.7989
48.4843
48.1347
47.7534
47.3461
46.9213
46.4913
46.0708
45.6757
45.3222
45.0288
44.8172
44.7126
44.7427
44.9352
45.3156
45.9044
49.9717
55.6596
65.1354
75.2758
86.0263
97.3318
109.168
121.537
134.417
147.705
161.164
174.426
187.052
198.577
208.639
217.071
223.918
229.305
233.306
235.949
237.274
237.34
236.22
234
230.771
226.634
221.685
216.023
209.743
202.927
195.65
187.987
180.001
171.753
163.291
154.653
149.104
146.655
144.202
141.761
139.343
136.959
134.618
132.33
130.107
127.971
125.943
124.006
122.108
120.22
118.324
117.117
116.737
117.006
117.788
118.444
118.99
119.441
119.811
120.118
120.383
120.625
120.864
121.118
121.403
121.732
122.113
122.552
123.059
123.649
124.336
125.121
126.001
126.973
128.03
129.168
130.379
131.656
116.233
37.3449
43.2819
47.2734
49.2137
50.1527
50.6776
51.0042
51.2241
51.3772
51.482
51.5476
51.5786
51.5771
51.5438
51.4788
51.3818
51.2521
51.0889
50.8916
50.6599
50.3936
50.0929
49.7584
49.3916
48.9949
48.5721
48.1291
47.6746
47.2203
46.7802
46.3684
45.9994
45.6899
45.4599
45.3322
45.3318
45.4835
45.81
46.8053
51.4207
58.0973
67.336
77.1679
87.5323
98.3667
109.624
121.276
133.273
145.496
157.713
169.574
180.682
190.661
199.263
206.463
212.337
216.912
220.2
222.228
223.033
222.67
221.205
218.717
215.289
211.01
205.973
200.264
193.964
187.153
179.906
172.291
164.367
156.186
151.024
148.909
146.739
144.536
142.318
140.101
137.896
135.717
133.58
131.504
129.518
127.635
125.813
124.008
122.195
120.36
118.489
117.337
116.75
116.292
116.743
117.096
117.366
117.573
117.738
117.883
118.03
118.198
118.404
118.663
118.983
119.372
119.833
120.379
121.027
121.783
122.646
123.61
124.669
125.817
127.045
128.346
119.1
38.4082
45.2391
49.2804
51.1283
51.9659
52.3902
52.6253
52.7626
52.8412
52.8791
52.8853
52.8638
52.8167
52.7444
52.6471
52.5241
52.3744
52.1969
51.991
51.7562
51.4917
51.197
50.8717
50.5164
50.1317
49.7196
49.2826
48.8249
48.3527
47.8748
47.4026
46.9489
46.5263
46.1479
45.8291
45.5881
45.4457
45.4242
45.5457
45.8299
47.949
52.4572
60.1667
69.1663
78.6854
88.6565
99.0116
109.685
120.625
131.755
142.935
153.928
164.414
174.039
182.547
189.865
195.995
200.932
204.674
207.228
208.618
208.879
208.063
206.23
203.452
199.806
195.373
190.232
184.461
178.138
171.337
164.124
156.56
151.907
150.214
148.405
146.51
144.555
142.559
140.541
138.515
136.499
134.515
132.592
130.763
129.018
127.307
125.593
123.857
122.082
120.253
118.355
116.61
115.808
114.892
114.34
114.459
114.538
114.601
114.671
114.768
114.912
115.117
115.393
115.748
116.184
116.708
117.333
118.072
118.929
119.898
120.971
122.14
123.397
124.732
122.02
39.5357
47.2163
51.1597
52.803
53.5034
53.8038
53.9299
53.9689
53.9584
53.9159
53.8502
53.7649
53.6616
53.5408
53.4022
53.2444
53.0659
52.8662
52.6448
52.4002
52.1308
51.8352
51.5128
51.1632
50.7866
50.3836
49.9555
49.5044
49.0333
48.5468
48.0514
47.5558
47.0712
46.6092
46.1809
45.7985
45.476
45.2303
45.08
45.0448
45.144
45.3947
48.6865
53.6269
61.8694
70.6206
79.8149
89.3786
99.2387
109.316
119.536
129.799
139.944
149.728
158.855
167.091
174.327
180.517
185.631
189.648
192.562
194.382
195.13
194.843
193.569
191.365
188.295
184.426
179.832
174.583
168.753
162.41
155.62
151.599
150.418
149.052
147.541
145.917
144.207
142.431
140.61
138.764
136.915
135.091
133.329
131.655
130.041
128.441
126.821
125.162
123.447
121.659
119.78
117.791
115.67
113.891
112.748
111.486
110.776
110.788
110.835
110.935
111.106
111.358
111.698
112.13
112.657
113.284
114.025
114.89
115.877
116.977
118.182
119.48
120.862
124.983
40.6776
49.292
53.003
54.2242
54.7609
54.9235
54.9227
54.8471
54.7333
54.5982
54.4493
54.29
54.1219
53.9451
53.7585
53.5606
53.3509
53.1282
52.8894
52.6314
52.3519
52.0499
51.7244
51.375
51.0013
50.6033
50.1816
49.7371
49.2715
48.7873
48.2879
47.7782
47.265
46.7573
46.2654
45.7997
45.3705
44.9887
44.6674
44.4219
44.2686
44.225
44.3073
45.0834
49.038
55.1563
63.2119
71.698
80.5476
89.6819
99.0235
108.484
117.971
127.361
136.469
145.052
152.914
159.933
166.037
171.176
175.317
178.444
180.555
181.663
181.794
180.98
179.265
176.702
173.347
169.263
164.515
159.166
153.283
150.001
149.41
148.565
147.512
146.29
144.931
143.461
141.903
140.281
138.617
136.94
135.283
133.685
132.161
130.676
129.187
127.663
126.083
124.429
122.681
120.819
118.82
116.663
114.323
111.777
109.689
108.209
106.605
106.495
106.654
106.905
107.254
107.705
108.258
108.916
109.685
110.577
111.598
112.741
113.995
115.348
116.79
127.985
41.8058
51.3184
55.1923
56.3094
56.5079
56.3141
55.9051
55.4628
55.1515
54.9203
54.6864
54.4538
54.2228
53.9924
53.7609
53.5259
53.2848
53.0337
52.7692
52.4895
52.1935
51.8798
51.547
51.1937
50.8189
50.4223
50.0036
49.5633
49.1022
48.622
48.1245
47.6129
47.0908
46.5635
46.0382
45.5236
45.0292
44.5643
44.1381
43.7606
43.4439
43.2016
43.0483
42.9988
43.0671
45.1422
49.0256
56.3544
64.1999
72.3953
80.8713
89.5469
98.3422
107.168
115.919
124.428
132.493
139.946
146.673
152.593
157.65
161.803
165.029
167.321
168.684
169.128
168.679
167.37
165.243
162.343
158.725
154.445
149.559
147.092
147.149
146.886
146.354
145.597
144.652
143.548
142.313
140.972
139.55
138.073
136.573
135.087
133.652
132.272
130.916
129.541
128.116
126.618
125.025
123.315
121.466
119.454
117.253
114.838
112.181
109.255
106.033
104.161
102.362
102.078
102.461
102.957
103.564
104.28
105.106
106.05
107.123
108.325
109.644
111.066
112.58
131.01
42.9109
53.258
57.3236
58.6636
59.1014
59.1506
58.9727
58.6341
58.1674
57.5859
56.8958
56.1005
55.2013
54.1989
53.4685
53.1221
52.8444
52.5634
52.2762
51.9803
51.6727
51.3508
51.0123
50.6554
50.2789
49.8821
49.4645
49.0263
48.5682
48.091
47.5962
47.0858
46.5624
46.0291
45.4902
44.9512
44.4192
43.9025
43.4098
42.949
42.5284
42.1572
41.8464
41.6079
41.4547
41.3992
41.4532
44.8689
49.9583
57.2298
64.8325
72.7031
80.7736
88.9701
97.2216
105.423
113.408
121.002
128.065
134.491
140.196
145.117
149.21
152.449
154.83
156.348
157.014
156.845
155.863
154.103
151.601
148.403
144.554
142.939
143.669
144.024
144.058
143.815
143.335
142.652
141.794
140.789
139.664
138.444
137.159
135.842
134.528
133.25
132.01
130.782
129.524
128.201
126.787
125.255
123.582
121.742
119.708
117.456
114.956
112.181
109.102
105.699
101.952
99.5376
97.5738
97.96
98.6462
99.4473
100.359
101.383
102.529
103.805
105.201
106.703
108.299
134.024
43.9291
55.0641
59.3527
60.9414
61.6331
61.9296
61.9938
61.8905
61.6475
61.2775
60.7867
60.1783
59.4544
58.6146
57.6599
56.5916
55.4111
54.1204
52.7221
51.4967
50.8368
50.5069
50.1625
49.8017
49.4227
49.0247
48.607
48.1697
47.713
47.2377
46.745
46.2364
45.7137
45.1793
44.6359
44.087
43.537
42.9915
42.4573
41.9421
41.4534
40.998
40.5832
40.2176
39.9108
39.6734
39.5163
39.4498
40.8134
44.2744
50.7122
57.7776
65.0934
72.599
80.2417
87.9636
95.6527
103.165
110.357
117.094
123.263
128.774
133.556
137.563
140.765
143.159
144.756
145.566
145.602
144.881
143.429
141.275
138.454
137.683
139.079
140.06
140.678
140.977
140.997
140.774
140.337
139.717
138.938
138.029
137.016
135.929
134.799
133.658
132.532
131.427
130.323
129.181
127.963
126.634
125.166
123.527
121.689
119.628
117.318
114.73
111.836
108.611
105.033
101.085
96.759
94.5967
93.6022
94.5067
95.5234
96.6481
97.8874
99.2501
100.731
102.318
104
137.031
44.7812
56.6411
61.1848
63.0383
64.0155
64.5931
64.9297
65.0853
65.0873
64.9482
64.6742
64.268
63.7326
63.0689
62.2771
61.3586
60.315
59.1487
57.8628
56.461
54.9476
53.3275
51.6058
49.7882
48.4763
47.8866
47.4694
47.0329
46.5775
46.1039
45.6131
45.1063
44.585
44.0512
43.5068
42.9544
42.3969
41.8376
41.281
40.7325
40.1986
39.6859
39.2006
38.7486
38.3365
37.9717
37.6627
37.4182
37.2468
37.1564
39.9846
44.5912
51.1692
57.9697
64.951
72.0764
79.2877
86.4949
93.5795
100.408
106.852
112.794
118.139
122.815
126.753
129.916
132.304
133.936
134.838
135.026
134.518
133.331
131.486
131.517
133.541
135.127
136.322
137.168
137.704
137.963
137.977
137.775
137.383
136.829
136.138
135.339
134.458
133.523
132.56
131.587
130.613
129.624
128.589
127.469
126.225
124.82
123.219
121.392
119.314
116.958
114.293
111.292
107.93
104.185
100.043
95.494
91.683
89.5604
90.6734
91.8995
93.2351
94.6872
96.2533
97.925
99.6925
140.043
45.4591
57.9582
62.7977
64.9643
66.2633
67.145
67.768
68.1961
68.457
68.5636
68.5219
68.3346
68.002
67.527
66.9102
66.1526
65.2563
64.2237
63.0585
61.765
60.3481
58.8134
57.167
55.4151
53.5643
51.6208
49.5911
47.4812
45.6864
44.7282
44.24
43.7356
43.2165
42.6843
42.1407
41.5876
41.0271
40.4617
39.8941
39.3276
38.7664
38.2157
37.6812
37.1683
36.6821
36.2275
35.8102
35.4362
35.1117
34.843
34.6356
35.7784
38.8535
45.0066
51.3609
57.8637
64.4833
71.1977
77.946
84.6224
91.1041
97.2676
102.998
108.2
112.78
116.669
119.817
122.212
123.875
124.845
125.16
124.836
123.888
124.654
127.247
129.395
131.138
132.514
133.559
134.305
134.782
135.019
135.041
134.874
134.544
134.077
133.498
132.833
132.105
131.333
130.529
129.695
128.823
127.889
126.861
125.702
124.37
122.82
121.019
118.935
116.538
113.797
110.682
107.17
103.241
98.8814
94.0856
88.857
86.6847
87.0995
88.5247
90.0643
91.7167
93.4762
95.3352
97.2844
143.045
45.9541
59.0208
64.185
66.6898
68.3199
69.5226
70.4516
71.1706
71.7079
72.0765
72.2826
72.3295
72.2168
71.9454
71.5168
70.9322
70.1937
69.3045
68.2686
67.0908
65.777
64.3335
62.7672
61.0853
59.2952
57.4042
55.4196
53.3484
51.1972
48.972
46.6784
44.3212
42.253
41.116
40.5746
40.0226
39.4618
38.8939
38.3209
37.745
37.1687
36.5952
36.0282
35.4724
34.9325
34.4126
33.9167
33.4485
33.0119
32.6109
32.2495
31.931
31.674
34.4838
39.3353
45.2899
51.3365
57.4768
63.7215
70.0282
76.3083
82.4535
88.3463
93.8738
98.9287
103.421
107.269
110.418
112.836
114.543
115.589
116.025
115.879
117.3
120.389
123.041
125.287
127.16
128.691
129.912
130.849
131.529
131.976
132.216
132.271
132.168
131.929
131.579
131.141
130.633
130.069
129.455
128.791
128.064
127.248
126.316
125.228
123.941
122.413
120.604
118.481
116.008
113.152
109.886
106.184
102.032
97.4187
92.3441
86.8171
83.6691
83.641
85.285
87.0432
88.9107
90.8806
92.9446
146.026
46.2141
59.7796
65.2948
68.1647
70.1543
71.7
72.9548
73.9834
74.8144
75.4615
75.9306
76.2245
76.344
76.2893
76.0611
75.661
75.091
74.3546
73.4562
72.4016
71.1971
69.8502
68.3686
66.7605
65.0344
63.1984
61.2608
59.2295
57.1121
54.9155
52.6463
50.3104
47.9128
45.4578
42.9488
40.388
38.2729
37.1662
36.591
36.0102
35.4255
34.8387
34.252
33.668
33.0903
32.5225
31.9682
31.4303
30.9113
30.4134
29.939
29.4911
29.0733
28.6917
30.3243
34.123
39.7133
45.3561
51.0693
56.8799
62.7674
68.6697
74.4893
80.1146
85.4335
90.3423
94.7433
98.5537
101.705
104.161
105.931
107.068
107.64
109.633
113.145
116.237
118.931
121.256
123.239
124.909
126.289
127.403
128.275
128.925
129.378
129.655
129.779
129.773
129.658
129.453
129.171
128.821
128.404
127.913
127.329
126.628
125.778
124.738
123.467
121.923
120.068
117.867
115.281
112.28
108.835
104.925
100.534
95.6561
90.2951
84.4622
80.5946
80.4239
82.3043
84.2963
86.3935
88.5882
148.981
46.1918
60.2051
66.1207
69.3821
71.7508
73.6563
75.2526
76.6059
77.7458
78.6861
79.4329
79.9886
80.3536
80.528
80.5121
80.3072
79.9158
79.3413
78.5888
77.6644
76.5756
75.3305
73.938
72.4072
70.7477
68.9689
67.0798
65.0894
63.0063
60.8383
58.5929
56.2767
53.896
51.456
48.9611
46.4149
43.8197
41.1769
38.486
35.7452
33.8187
32.9665
32.3677
31.7664
31.1642
30.5634
29.9667
29.3768
28.796
28.226
27.6687
27.1268
26.6045
26.109
25.653
26.3592
29.314
34.5934
39.8997
45.2483
50.6727
56.1818
61.7317
67.2363
72.5964
77.7085
82.4679
86.7759
90.5423
93.6974
96.1985
98.0444
99.2965
101.793
105.661
109.13
112.216
114.943
117.338
119.422
121.219
122.748
124.031
125.086
125.935
126.597
127.094
127.447
127.673
127.792
127.817
127.756
127.614
127.383
127.053
126.602
126.002
125.219
124.211
122.939
121.363
119.446
117.15
114.439
111.281
107.648
103.52
98.8835
93.7348
88.0788
81.9289
77.6297
77.6254
79.7494
81.9817
84.3154
151.904
45.8549
60.2675
66.634
70.3136
73.0811
75.3632
77.3165
79.0093
80.4724
81.7202
82.7586
83.5897