/*--------------------------------*- C++ -*----------------------------------*\
  =========                 |
  \\      /  F ield         | OpenFOAM: The Open Source CFD Toolbox
   \\    /   O peration     | Website:  https://openfoam.org
    \\  /    A nd           | Version:  10
     \\/     M anipulation  |
\*---------------------------------------------------------------------------*/
FoamFile
{
    format      ascii;
    class       volVectorField;
    location    "22000";
    object      Urel;
}
// * * * * * * * * * * * * * * * * * * * * * * * * * * * * * * * * * * * * * //

dimensions      [0 1 -1 0 0 0 0];

internalField   nonuniform List<vector> 
17969
(
(0.139906 -0.137172 0)
(-0.0235533 -0.0738031 0)
(7.10977e-06 -0.0491491 -8.54245e-18)
(0.00283937 -0.0270266 1.07782e-17)
(0.0046188 -0.00501818 -3.88856e-18)
(0.00784898 0.0190317 -3.21046e-18)
(0.0128357 0.0470732 2.69111e-18)
(0.0197355 0.0804265 0)
(0.0283681 0.118205 1.3173e-19)
(0.0380334 0.157094 0)
(0.0477525 0.193112 0)
(0.0568062 0.223378 0)
(0.0645541 0.246732 0)
(0.0710512 0.264217 -9.35104e-19)
(0.0765009 0.277201 8.83495e-19)
(0.0809221 0.286627 0)
(0.0845195 0.293267 -6.49988e-19)
(0.0874527 0.2978 5.77666e-19)
(0.0898569 0.300791 -5.10987e-19)
(0.0918538 0.302672 4.56991e-19)
(0.0935442 0.303749 0)
(0.0950048 0.304229 0)
(0.0962917 0.304255 -4.167e-20)
(0.0974452 0.303921 0)
(0.0984941 0.303293 0)
(0.0994586 0.302414 2.56034e-19)
(0.100353 0.301317 -4.7577e-19)
(0.101188 0.300021 2.22152e-19)
(0.101971 0.298543 2.06815e-19)
(0.102707 0.296893 -2.54263e-20)
(0.1034 0.295077 -2.30225e-19)
(0.104052 0.293101 0)
(0.104665 0.290968 1.64502e-19)
(0.105239 0.288679 -3.53325e-19)
(0.105775 0.286235 9.76897e-22)
(0.106273 0.283637 2.86356e-19)
(0.106734 0.280883 -1.37612e-19)
(0.107155 0.277973 -1.63997e-19)
(0.107537 0.274905 9.52505e-20)
(0.107879 0.271679 0)
(0.10818 0.268291 2.93145e-20)
(0.108439 0.264741 2.8266e-20)
(0.108654 0.261026 2.17023e-19)
(0.108826 0.257145 -2.11539e-19)
(0.108953 0.253093 -2.02522e-19)
(0.109034 0.24887 -4.72661e-20)
(0.109067 0.244472 1.91461e-19)
(0.109053 0.239897 1.83356e-19)
(0.108989 0.235142 -2.06206e-21)
(0.108876 0.230203 -1.7403e-19)
(0.108712 0.225078 -2.08534e-19)
(0.108495 0.219762 2.04225e-19)
(0.108226 0.214253 0)
(0.107904 0.208547 0)
(0.107527 0.202638 3.7071e-20)
(0.107094 0.196524 2.14334e-19)
(0.106605 0.1902 -1.40398e-19)
(0.106059 0.18366 0)
(0.105454 0.1769 0)
(0.10479 0.169915 6.20986e-20)
(0.104066 0.162699 -1.24244e-19)
(0.10328 0.155246 0)
(0.102431 0.147551 0)
(0.101518 0.139607 -5.59804e-20)
(0.100539 0.131408 -1.06777e-19)
(0.0994937 0.122946 5.53054e-20)
(0.0983789 0.114216 1.02658e-19)
(0.0971931 0.10521 0)
(0.0959341 0.0959196 0)
(0.0945996 0.0863382 0)
(0.0931866 0.0764577 8.59094e-20)
(0.0916921 0.0662697 -5.42922e-21)
(0.0901126 0.0557657 -1.65372e-19)
(0.0884455 0.0449365 0)
(0.0867114 0.0339321 7.29652e-20)
(0.0849565 0.023062 6.82686e-20)
(0.0832076 0.0124769 -6.34724e-20)
(0.0814673 0.00216798 0)
(0.0797363 -0.00787475 0)
(0.0780145 -0.0176627 0)
(0.0763022 -0.0272087 0)
(0.074599 -0.0365267 0)
(0.0729046 -0.0456319 7.46728e-20)
(0.0712184 -0.0545409 -1.23731e-19)
(0.0695398 -0.0632716 8.31932e-20)
(0.0678682 -0.071843 -1.47399e-20)
(0.0662032 -0.0802755 0)
(0.0645442 -0.0885904 0)
(0.0628913 -0.0968095 0)
(0.0612444 -0.104955 -2.68624e-20)
(0.059604 -0.113045 3.60637e-20)
(0.0579717 -0.12109 2.79799e-20)
(0.05635 -0.129096 -2.7497e-20)
(0.0547414 -0.137064 2.00685e-20)
(0.0531484 -0.145 -3.83267e-20)
(0.0515741 -0.152908 1.42077e-20)
(0.0500216 -0.16079 0)
(0.0484943 -0.168648 -6.65794e-21)
(0.0469956 -0.176483 6.48382e-21)
(0.0455287 -0.184293 3.23935e-22)
(0.144217 -0.132962 0)
(-0.0229672 -0.0739745 -2.79101e-17)
(0.00100124 -0.0545673 1.81827e-17)
(0.00265596 -0.0379969 3.45356e-19)
(0.00320653 -0.0223056 1.53352e-17)
(0.00481909 -0.00577698 -2.4422e-17)
(0.00762935 0.0129062 1.05834e-17)
(0.0116942 0.0349402 9.5469e-18)
(0.0173332 0.0616143 -9.05549e-18)
(0.0247134 0.0932835 -8.44417e-18)
(0.0334702 0.128111 1.72903e-20)
(0.0429299 0.163025 6.35628e-18)
(0.0523001 0.194972 0)
(0.0610417 0.221895 0)
(0.068602 0.242959 -3.96237e-18)
(0.0750393 0.259051 3.57079e-18)
(0.0805388 0.271296 0)
(0.0850834 0.280428 -2.78257e-18)
(0.0888433 0.28705 2.58137e-18)
(0.091957 0.291693 0)
(0.094538 0.294827 -2.00524e-18)
(0.0966935 0.296835 1.69722e-18)
(0.0985182 0.298005 5.09031e-20)
(0.100089 0.298544 0)
(0.101465 0.298595 1.34129e-18)
(0.10269 0.29826 -8.26099e-20)
(0.103796 0.297607 -2.26112e-18)
(0.104806 0.296684 1.0471e-18)
(0.105737 0.295527 -6.065e-20)
(0.106602 0.294159 9.29772e-19)
(0.107409 0.292595 -7.95818e-19)
(0.108164 0.29085 0)
(0.108873 0.28893 6.5395e-19)
(0.109539 0.286841 -5.7869e-19)
(0.110163 0.284586 0)
(0.110747 0.282169 8.01214e-20)
(0.111291 0.279589 -7.63874e-20)
(0.111797 0.276848 -5.44669e-19)
(0.112263 0.273945 1.15125e-18)
(0.112689 0.270879 -7.11877e-20)
(0.113075 0.267648 -5.47983e-19)
(0.11342 0.264252 -5.84478e-19)
(0.113723 0.260688 9.50794e-19)
(0.113983 0.256954 -1.03068e-18)
(0.114199 0.253049 8.83341e-19)
(0.11437 0.248969 -3.75174e-19)
(0.114494 0.244712 4.09467e-19)
(0.114571 0.240275 -8.95109e-19)
(0.114599 0.235656 7.69137e-19)
(0.114578 0.230851 -7.43941e-19)
(0.114505 0.225857 3.17015e-19)
(0.114381 0.220671 -4.34911e-20)
(0.114203 0.215289 0)
(0.113971 0.209707 0)
(0.113683 0.203922 -3.94857e-20)
(0.113339 0.197929 -7.64886e-20)
(0.112937 0.191723 2.94284e-19)
(0.112476 0.185301 -4.33944e-19)
(0.111955 0.178657 -5.51703e-19)
(0.111372 0.171786 7.78397e-20)
(0.110727 0.164682 5.2762e-19)
(0.110017 0.157341 6.26726e-19)
(0.109243 0.149757 -6.17554e-19)
(0.108401 0.141923 5.90885e-20)
(0.107491 0.133833 0)
(0.106511 0.125481 5.56399e-20)
(0.105459 0.116861 4.2139e-19)
(0.104333 0.107964 -4.19287e-19)
(0.103131 0.0987851 -1.99523e-19)
(0.10185 0.0893161 -1.84591e-19)
(0.100488 0.0795496 3.76411e-19)
(0.0990427 0.069478 2.66439e-19)
(0.0975096 0.0590934 3.32959e-19)
(0.0958869 0.0483873 -3.32407e-19)
(0.094195 0.0375088 -7.64429e-20)
(0.0924797 0.0267647 -7.15573e-20)
(0.0907678 0.0163048 6.65659e-20)
(0.0890626 0.00612124 1.24328e-19)
(0.0873656 -0.0037953 3.37331e-19)
(0.0856776 -0.0134554 -1.28042e-20)
(0.0839991 -0.0228712 -2.00395e-19)
(0.0823305 -0.032056 -4.47716e-20)
(0.080672 -0.0410244 0)
(0.0790235 -0.0497924 1.8925e-20)
(0.0773849 -0.0583772 -1.70284e-20)
(0.075756 -0.0667977 1.54978e-20)
(0.0741365 -0.0750736 0)
(0.072526 -0.0832262 0)
(0.0709241 -0.0912776 -1.74693e-19)
(0.0693306 -0.0992503 6.8024e-21)
(0.0677452 -0.107165 1.53536e-19)
(0.0661689 -0.115037 0)
(0.0646036 -0.122873 0)
(0.0630516 -0.130676 8.61743e-20)
(0.0615151 -0.138454 -1.52754e-19)
(0.0599969 -0.146213 7.50824e-20)
(0.0585001 -0.153957 0)
(0.057028 -0.161692 0)
(0.0555839 -0.169417 -1.58474e-20)
(0.0541713 -0.177135 9.6089e-21)
(0.148339 -0.128468 4.0686e-17)
(-0.0223783 -0.0725341 -5.84663e-17)
(0.00219449 -0.0568732 7.92071e-17)
(0.0031839 -0.0441196 -2.42997e-17)
(0.00302289 -0.0325266 4.80712e-19)
(0.00367592 -0.0208544 0)
(0.00511838 -0.00811678 3.16801e-19)
(0.00738549 0.00648805 0)
(0.0106198 0.0236588 0)
(0.0151017 0.0444891 5.115e-19)
(0.0211719 0.0700256 2.45706e-19)
(0.0287615 0.0997929 0)
(0.0375044 0.131902 0)
(0.0468178 0.16377 3.6021e-19)
(0.056018 0.192939 -4.96898e-18)
(0.0646534 0.217759 3.85646e-18)
(0.0722361 0.237544 -3.42734e-18)
(0.0787679 0.252932 3.2639e-18)
(0.084414 0.264852 -9.21816e-20)
(0.0891651 0.273936 -2.84004e-18)
(0.0931439 0.280693 2.27872e-18)
(0.0964795 0.285552 2.7448e-19)
(0.0992717 0.288906 1.24323e-19)
(0.101615 0.2911 0)
(0.103598 0.292407 0)
(0.105299 0.293035 1.57968e-18)
(0.106779 0.293133 -1.19492e-18)
(0.108087 0.292809 -1.56396e-19)
(0.109258 0.292138 -9.32952e-19)
(0.11032 0.291174 1.06891e-18)
(0.111292 0.289955 0)
(0.112188 0.288508 0)
(0.11302 0.286853 1.08086e-19)
(0.113796 0.285004 1.52007e-18)
(0.11452 0.282969 -3.06729e-18)
(0.115197 0.280756 1.36455e-18)
(0.11583 0.27837 8.58592e-20)
(0.11642 0.275812 -1.63571e-19)
(0.116969 0.273085 1.55832e-19)
(0.117476 0.270188 7.42145e-20)
(0.117943 0.267123 0)
(0.118368 0.263888 6.79779e-20)
(0.118751 0.260481 1.30718e-19)
(0.119092 0.256902 -8.73282e-19)
(0.119388 0.253149 9.29325e-21)
(0.11964 0.249218 1.04933e-18)
(0.119847 0.245108 0)
(0.120006 0.240817 -2.79395e-22)
(0.120117 0.236341 -2.08286e-19)
(0.120178 0.231677 0)
(0.120188 0.226823 9.68388e-20)
(0.120146 0.221774 -7.44642e-19)
(0.12005 0.216527 7.29496e-19)
(0.119899 0.21108 0)
(0.119691 0.205426 1.69637e-19)
(0.119426 0.199564 0)
(0.119102 0.193487 -1.58748e-19)
(0.118717 0.187192 -6.08447e-19)
(0.118271 0.180674 5.98853e-19)
(0.11776 0.173927 1.43761e-19)
(0.117186 0.166948 0)
(0.116544 0.159729 -6.65266e-19)
(0.115835 0.152266 1.42831e-18)
(0.115056 0.144554 -1.21931e-20)
(0.114207 0.136584 -2.55492e-19)
(0.113284 0.128353 -1.29729e-19)
(0.112286 0.119852 -9.04373e-19)
(0.111211 0.111077 1.3566e-20)
(0.110057 0.102019 8.47844e-19)
(0.108821 0.0926717 8.67259e-22)
(0.107502 0.0830287 0)
(0.106095 0.0730824 5.45898e-19)
(0.104598 0.0628253 1.47756e-19)
(0.103009 0.0522498 -6.99538e-19)
(0.101348 0.0415037 0)
(0.0996608 0.0308908 0)
(0.0979737 0.02056 -1.41098e-19)
(0.0962911 0.0105043 3.78026e-19)
(0.0946152 0.000715207 -1.08935e-18)
(0.0929471 -0.00881697 8.9299e-19)
(0.091288 -0.0181037 -5.27072e-19)
(0.089639 -0.0271577 -3.18401e-19)
(0.0880007 -0.0359931 3.5846e-19)
(0.0863739 -0.0446253 -3.45525e-19)
(0.0847592 -0.0530708 5.79653e-19)
(0.0831571 -0.0613476 -2.74414e-19)
(0.0815678 -0.0694746 2.29572e-19)
(0.0799912 -0.077472 -4.33345e-19)
(0.0784267 -0.0853611 1.86176e-20)
(0.0768736 -0.0931643 1.7938e-20)
(0.0753311 -0.100904 1.82927e-19)
(0.0737991 -0.1086 0)
(0.0722791 -0.116259 1.09711e-19)
(0.0707729 -0.123891 -2.00371e-19)
(0.0692826 -0.131501 4.08551e-21)
(0.0678108 -0.1391 9.77372e-21)
(0.0663605 -0.146694 6.62478e-21)
(0.0649352 -0.15429 7.74216e-21)
(0.0635382 -0.161891 2.67548e-20)
(0.0621732 -0.1695 7.99813e-22)
(0.152109 -0.123864 -1.2967e-18)
(-0.0219232 -0.0704858 -1.21066e-16)
(0.00340628 -0.0576872 1.22511e-19)
(0.0040446 -0.0476857 1.63485e-18)
(0.00351682 -0.0387994 3.13903e-17)
(0.00366025 -0.0302044 2.30823e-17)
(0.00435594 -0.0211711 -3.36807e-19)
(0.00555335 -0.0111493 -1.73012e-17)
(0.00734425 0.00036599 0)
(0.00990637 0.0138824 1.50637e-17)
(0.0134224 0.0301102 -1.47183e-17)
(0.0182079 0.0500477 0)
(0.0244746 0.07429 0)
(0.0321211 0.102143 -4.17443e-19)
(0.040802 0.13191 3.78093e-19)
(0.0500082 0.161423 3.34633e-19)
(0.0591385 0.18863 9.04133e-18)
(0.0677711 0.212094 -8.08601e-18)
(0.0754928 0.231194 0)
(0.0822057 0.246275 1.94684e-19)
(0.0880473 0.258103 6.1949e-18)
(0.0930551 0.267275 -1.05438e-17)
(0.0972917 0.274252 4.60642e-18)
(0.100881 0.279387 2.70956e-19)
(0.103914 0.28301 3.94304e-18)
(0.106474 0.285428 -3.61388e-18)
(0.108642 0.286904 -3.49162e-18)
(0.110496 0.287644 3.39881e-18)
(0.112101 0.287805 3.20757e-22)
(0.113509 0.287502 -2.53948e-18)
(0.11476 0.286818 2.35803e-18)
(0.115885 0.285813 0)
(0.116907 0.28453 0)
(0.117843 0.283001 -1.88645e-18)
(0.118706 0.281248 1.99975e-18)
(0.119505 0.279288 -1.65974e-18)
(0.120248 0.27713 1.5749e-18)
(0.120939 0.274785 -1.29277e-18)
(0.121581 0.272256 -1.64967e-19)
(0.122177 0.269548 1.04145e-20)
(0.122729 0.266663 2.54146e-18)
(0.123236 0.263601 -2.42383e-18)
(0.123699 0.260363 1.0184e-18)
(0.124119 0.256948 0)
(0.124494 0.253354 0)
(0.124824 0.249581 -1.27177e-19)
(0.125107 0.245626 -9.73397e-19)
(0.125343 0.241487 8.27878e-19)
(0.125531 0.237162 -6.74201e-19)
(0.125668 0.232646 1.0955e-18)
(0.125755 0.227939 1.04553e-18)
(0.125788 0.223035 -1.01853e-18)
(0.125767 0.217932 0)
(0.12569 0.212627 -5.60208e-19)
(0.125556 0.207114 7.34558e-19)
(0.125362 0.201391 0)
(0.125108 0.195452 1.69637e-19)
(0.124793 0.189293 1.63879e-19)
(0.124413 0.182911 -3.17736e-19)
(0.123968 0.176299 -1.5297e-19)
(0.123456 0.169452 2.96621e-19)
(0.122875 0.162366 1.13171e-18)
(0.122224 0.155035 -1.39338e-18)
(0.121501 0.147453 1.05409e-18)
(0.120703 0.139615 -1.54491e-18)
(0.119829 0.131513 1.00735e-18)
(0.118878 0.123143 -1.18457e-18)
(0.117846 0.114497 1.16937e-18)
(0.116732 0.10557 -2.21905e-19)
(0.115533 0.0963541 -1.05406e-18)
(0.114246 0.0868434 8.38103e-19)
(0.11287 0.0770308 0)
(0.1114 0.0669092 -1.88647e-19)
(0.109834 0.0564717 0)
(0.108194 0.0458646 0)
(0.106523 0.0353887 0)
(0.104849 0.0251917 7.26316e-19)
(0.103177 0.0152677 -5.68391e-19)
(0.10151 0.00560915 -2.57245e-19)
(0.0998492 -0.00379296 -2.37317e-19)
(0.098196 -0.0129495 1.08575e-19)
(0.096552 -0.0218728 -1.00539e-19)
(0.0949186 -0.0305766 -3.55277e-19)
(0.0932972 -0.0390761 3.48811e-19)
(0.0916894 -0.0473877 2.96274e-19)
(0.0900972 -0.0555283 -2.20729e-20)
(0.0885222 -0.0635157 -7.53425e-19)
(0.0869648 -0.0713673 4.08312e-20)
(0.0854239 -0.0791021 4.3461e-19)
(0.0838979 -0.0867415 -4.6709e-20)
(0.0823854 -0.0943089 2.1015e-20)
(0.0808853 -0.101826 -2.72775e-19)
(0.0793983 -0.109306 2.68883e-19)
(0.0779258 -0.116758 -1.35592e-20)
(0.0764699 -0.124193 1.11392e-20)
(0.0750329 -0.131622 1.22316e-19)
(0.073618 -0.139054 -2.22409e-19)
(0.0722286 -0.146498 1.03639e-19)
(0.0708686 -0.153961 4.39927e-20)
(0.0695415 -0.161446 -6.18045e-20)
(0.0682509 -0.168953 1.30551e-20)
(0.0670004 -0.176482 5.62639e-21)
(0.0657927 -0.184028 -4.645e-20)
(0.064631 -0.191585 4.50284e-20)
(0.155574 -0.119231 8.72785e-17)
(-0.0215764 -0.0681568 0)
(0.00458802 -0.0577153 9.38342e-17)
(0.00507528 -0.0499088 7.75857e-19)
(0.00437542 -0.0428957 -6.82044e-17)
(0.00426652 -0.036289 4.87561e-17)
(0.00457454 -0.0295584 -1.86444e-17)
(0.00521184 -0.0223084 0)
(0.00621499 -0.0142077 1.5612e-17)
(0.00766438 -0.00492554 -2.87355e-17)
(0.00969868 0.00589872 1.34432e-17)
(0.0124483 0.0186528 -4.24908e-19)
(0.0161358 0.0340848 1.36162e-17)
(0.0210783 0.0531237 -2.72883e-17)
(0.0273765 0.075992 1.28594e-17)
(0.0349611 0.102012 -7.77593e-19)
(0.043535 0.129745 1.13232e-17)
(0.0526438 0.15736 -9.51026e-18)
(0.0617512 0.183099 0)
(0.0704346 0.205648 7.76544e-18)
(0.0783507 0.224368 -7.63582e-18)
(0.0852889 0.239337 -3.76545e-19)
(0.0913588 0.251195 0)
(0.0966574 0.260521 -6.32652e-19)
(0.101183 0.267753 0)
(0.105054 0.273192 4.00805e-18)
(0.108354 0.277111 2.27896e-19)
(0.111157 0.27978 -4.07473e-18)
(0.113539 0.281447 -2.07246e-19)
(0.115575 0.282319 0)
(0.11733 0.282557 0)
(0.118861 0.282285 0)
(0.120212 0.281593 -2.09286e-18)
(0.121417 0.28055 2.23472e-18)
(0.122504 0.279203 -2.59002e-19)
(0.123491 0.27759 1.93067e-18)
(0.124395 0.275736 -1.59366e-18)
(0.125226 0.273659 1.69858e-18)
(0.125993 0.271374 -1.61196e-18)
(0.126701 0.268889 0)
(0.127355 0.266211 1.79017e-18)
(0.127959 0.263345 -1.36893e-18)
(0.128513 0.260294 9.66185e-19)
(0.129018 0.257058 -9.31626e-19)
(0.129476 0.253638 2.95129e-19)
(0.129886 0.250034 -2.8212e-19)
(0.130248 0.246243 0)
(0.130561 0.242266 -7.27283e-22)
(0.130823 0.2381 0)
(0.131035 0.233741 1.65618e-18)
(0.131194 0.229189 -2.0714e-18)
(0.131299 0.224438 2.19897e-19)
(0.131349 0.219487 -1.68431e-18)
(0.131341 0.214332 1.44112e-18)
(0.131275 0.208968 -1.96423e-19)
(0.131148 0.203392 0)
(0.130959 0.1976 0)
(0.130707 0.191586 -1.39872e-18)
(0.130388 0.185348 3.64612e-19)
(0.130002 0.178879 1.32582e-18)
(0.129547 0.172175 9.37859e-19)
(0.12902 0.16523 -1.23541e-18)
(0.12842 0.15804 0)
(0.127746 0.150598 0)
(0.126994 0.142899 -2.73564e-19)
(0.126163 0.134937 0)
(0.12525 0.126705 -2.56154e-19)
(0.124254 0.118199 7.20477e-19)
(0.123172 0.109411 -9.58518e-19)
(0.122002 0.100335 4.54303e-19)
(0.12074 0.0909643 4.36262e-19)
(0.119385 0.0812932 4.18404e-19)
(0.117933 0.0713146 0)
(0.116381 0.061022 3.60848e-19)
(0.114751 0.0505605 -3.76336e-19)
(0.113086 0.0402273 6.56325e-19)
(0.111416 0.0301692 -3.30291e-19)
(0.109744 0.0203812 1.13806e-18)
(0.108075 0.0108569 -6.45253e-20)
(0.10641 0.00158798 1.90176e-19)
(0.10475 -0.00743566 -9.54247e-19)
(0.103098 -0.0162261 7.16297e-19)
(0.101455 -0.0247973 -6.12029e-19)
(0.0998239 -0.0331648 0)
(0.0982063 -0.0413461 8.22168e-20)
(0.0966065 -0.0493593 5.73541e-19)
(0.0950285 -0.0572198 -1.13013e-19)
(0.093473 -0.0649384 -4.31795e-20)
(0.0919395 -0.0725297 -4.62956e-19)
(0.0904257 -0.0800142 -5.74426e-22)
(0.0889286 -0.0874151 2.44892e-19)
(0.0874456 -0.0947554 -3.28958e-19)
(0.0859762 -0.102054 2.52082e-19)
(0.084522 -0.109324 -2.63044e-19)
(0.0830853 -0.116577 1.77385e-19)
(0.0816684 -0.123827 -1.6437e-19)
(0.0802746 -0.131088 0)
(0.0789075 -0.13837 0)
(0.0775713 -0.145682 5.36885e-20)
(0.0762697 -0.15303 -4.63177e-20)
(0.0750068 -0.160417 5.28593e-22)
(0.0737862 -0.167843 -1.5888e-22)
(0.0726112 -0.175305 -4.71928e-20)
(0.0714852 -0.182798 4.57769e-20)
(0.158605 -0.114592 -3.97136e-18)
(-0.0212945 -0.0657039 2.83152e-16)
(0.00563539 -0.0571529 -2.12521e-16)
(0.00606399 -0.0513491 6.08284e-17)
(0.00527743 -0.0458334 0)
(0.00503569 -0.0406711 0)
(0.00513904 -0.0355074 -1.2566e-18)
(0.00548611 -0.0300503 -1.68282e-17)
(0.00608317 -0.0240633 2.95172e-17)
(0.00696734 -0.0173272 -1.39592e-17)
(0.00819206 -0.00960922 0)
(0.00983194 -0.000654881 -3.1828e-23)
(0.0120206 0.0097922 -4.01697e-19)
(0.0148783 0.0220807 0)
(0.0186442 0.0368703 7.99761e-19)
(0.0236005 0.0548948 7.99589e-19)
(0.0298359 0.076316 -7.78139e-19)
(0.0373057 0.100579 -7.33127e-19)
(0.0457542 0.126487 0)
(0.054775 0.152485 0)
(0.0638863 0.177026 5.37476e-19)
(0.0726497 0.198875 -5.82911e-22)
(0.0807884 0.217337 4.1331e-19)
(0.0879776 0.232265 -5.44071e-22)
(0.0943007 0.244208 0)
(0.0999086 0.25373 -3.10443e-19)
(0.104749 0.261213 -8.60584e-19)
(0.108922 0.266944 -2.66062e-19)
(0.112513 0.271158 0)
(0.115589 0.274086 0)
(0.118217 0.27596 -4.18205e-19)
(0.120466 0.276979 3.86082e-19)
(0.122402 0.27731 2.12995e-18)
(0.124083 0.277081 -3.46232e-19)
(0.125558 0.276392 -3.21691e-19)
(0.126864 0.275317 -2.5668e-18)
(0.128032 0.273911 -2.11193e-18)
(0.129085 0.272216 2.48357e-18)
(0.130041 0.27026 -1.84887e-18)
(0.130912 0.268067 1.74996e-18)
(0.13171 0.26565 -4.0993e-19)
(0.132441 0.263023 0)
(0.13311 0.260192 3.28653e-18)
(0.133721 0.257163 -2.79307e-18)
(0.134277 0.253939 -3.29893e-19)
(0.134779 0.250523 3.14e-19)
(0.135228 0.246914 3.00219e-19)
(0.135623 0.243113 -1.70507e-18)
(0.135966 0.239118 2.20185e-18)
(0.136254 0.234928 0)
(0.136487 0.23054 -5.02961e-19)
(0.136664 0.225953 0)
(0.136783 0.221163 0)
(0.136844 0.216166 -4.45055e-19)
(0.136843 0.21096 0)
(0.13678 0.20554 -4.1158e-19)
(0.136653 0.199903 3.96084e-19)
(0.136459 0.194044 -1.50926e-18)
(0.136198 0.187958 1.84655e-18)
(0.135866 0.181641 1.39838e-18)
(0.135463 0.175088 -1.71452e-18)
(0.134985 0.168293 6.56382e-19)
(0.134432 0.161252 6.15379e-19)
(0.1338 0.153959 -1.23003e-18)
(0.133088 0.146408 1.15547e-18)
(0.132293 0.138594 -1.14188e-18)
(0.131413 0.13051 5.40888e-19)
(0.130447 0.12215 1.02654e-18)
(0.12939 0.11351 -1.01844e-18)
(0.128241 0.104581 -4.79977e-19)
(0.126997 0.0953588 -9.23106e-19)
(0.125655 0.0858364 4.25239e-19)
(0.124212 0.0760078 1.21436e-18)
(0.122666 0.0658668 -4.39399e-19)
(0.121036 0.0555569 1.10252e-18)
(0.119369 0.0453718 -1.46433e-18)
(0.117692 0.0354573 2.04151e-21)
(0.116012 0.0258095 -8.95718e-19)
(0.11433 0.0164231 1.47604e-18)
(0.112651 0.00729076 0)
(0.110976 -0.00159666 0)
(0.109307 -0.0102509 2.2581e-19)
(0.107645 -0.0186861 -1.01222e-18)
(0.105992 -0.0269193 7.90177e-19)
(0.104352 -0.0349707 5.85449e-19)
(0.102731 -0.0428594 -5.02023e-19)
(0.101131 -0.0506009 4.82955e-19)
(0.0995516 -0.0582046 -4.82567e-19)
(0.0979996 -0.065671 -5.94597e-20)
(0.0964746 -0.0730111 5.26005e-20)
(0.0949723 -0.0802489 4.67703e-20)
(0.0934888 -0.087413 0)
(0.0920222 -0.0945293 0)
(0.0905711 -0.101614 3.0787e-20)
(0.089138 -0.108682 2.63921e-20)
(0.0877259 -0.115749 1.54806e-19)
(0.0863384 -0.122831 -3.19741e-20)
(0.0849796 -0.129942 -1.30617e-19)
(0.0836537 -0.137094 5.61134e-20)
(0.082365 -0.144295 -5.73086e-20)
(0.0811177 -0.151549 -1.60687e-22)
(0.0799159 -0.15886 -6.98611e-22)
(0.0787632 -0.166226 -4.556e-20)
(0.0776629 -0.173642 -2.2298e-20)
(0.161198 -0.109969 -8.78635e-17)
(-0.0210489 -0.0631082 1.5113e-16)
(0.00650592 -0.0557753 -2.41949e-16)
(0.00692035 -0.0518759 7.37058e-17)
(0.0060625 -0.0477175 1.37971e-18)
(0.00571626 -0.0437655 -2.95274e-17)
(0.00566881 -0.0398312 4.5084e-17)
(0.00582056 -0.0357063 -1.81698e-17)
(0.0061653 -0.0312147 1.62937e-17)
(0.00671905 -0.0261944 -1.446e-17)
(0.00750626 -0.0204779 0)
(0.00856348 -0.0138779 4.14585e-19)
(0.00994259 -0.0062035 -1.34375e-17)
(0.0117166 0.00269169 1.27569e-17)
(0.0140123 0.0129504 -7.76111e-19)
(0.0169447 0.0248373 -1.21636e-17)
(0.0207435 0.0389266 1.29529e-17)
(0.0256783 0.0558742 1.28807e-17)
(0.0318293 0.0758704 -3.47948e-20)
(0.0391774 0.0984918 -1.12068e-17)
(0.0475074 0.122749 -6.45891e-19)
(0.0564558 0.147311 5.84627e-19)
(0.0655918 0.170797 -1.56849e-18)
(0.0744651 0.192023 -4.63443e-19)
(0.0828023 0.210205 -7.30891e-18)
(0.0902901 0.225146 6.49976e-18)
(0.0969123 0.237218 -1.09631e-21)
(0.102813 0.24692 6.07293e-19)
(0.10799 0.254619 -5.65862e-19)
(0.112486 0.260611 5.26157e-19)
(0.116389 0.265103 4.38263e-18)
(0.119763 0.26829 -4.08567e-18)
(0.122663 0.270378 4.19426e-19)
(0.125152 0.271559 -8.65157e-22)
(0.127296 0.271997 3.60425e-19)
(0.129152 0.271827 3.34471e-19)
(0.130773 0.271154 -5.27282e-18)
(0.132199 0.270058 3.41539e-20)
(0.133465 0.268602 4.88124e-18)
(0.134597 0.26683 0)
(0.135615 0.264777 0)
(0.136535 0.262468 0)
(0.137369 0.259921 -3.75581e-18)
(0.138125 0.25715 3.1773e-18)
(0.138811 0.254164 0)
(0.13943 0.250969 0)
(0.139985 0.247569 -3.01118e-18)
(0.140479 0.243967 2.25182e-18)
(0.140913 0.240163 2.42194e-18)
(0.141288 0.236158 -2.33668e-18)
(0.141602 0.231951 5.53794e-19)
(0.141856 0.22754 0)
(0.142049 0.222923 0)
(0.142179 0.218097 9.72638e-19)
(0.142246 0.213059 1.85122e-18)
(0.142246 0.207805 -1.35681e-18)
(0.14218 0.202332 -4.28762e-19)
(0.142044 0.196636 0)
(0.141838 0.190712 -1.96715e-18)
(0.141558 0.184556 2.91509e-20)
(0.141203 0.178162 1.84614e-18)
(0.140771 0.171527 -1.40948e-18)
(0.14026 0.164643 6.76337e-19)
(0.139667 0.157507 0)
(0.13899 0.150113 0)
(0.138227 0.142454 5.8472e-19)
(0.137374 0.134526 -3.32287e-20)
(0.136431 0.126322 -3.40473e-20)
(0.135394 0.117836 -5.4982e-19)
(0.13426 0.109063 0)
(0.133027 0.0999958 9.81193e-19)
(0.131691 0.0906293 9.41645e-19)
(0.130249 0.0809574 -1.34776e-18)
(0.1287 0.0709743 -8.50421e-19)
(0.127062 0.0608218 0)
(0.125383 0.0507898 -2.23405e-18)
(0.123691 0.0410231 1.80926e-18)
(0.121992 0.0315191 2.15838e-21)
(0.12029 0.0222734 -3.08152e-19)
(0.118589 0.01328 2.85702e-19)
(0.116889 0.00453095 2.63579e-19)
(0.115193 -0.0039847 0)
(0.113503 -0.0122806 0)
(0.111819 -0.0203743 0)
(0.11015 -0.028286 -7.2007e-19)
(0.108495 -0.0360384 -1.1769e-19)
(0.106852 -0.0436494 1.4096e-18)
(0.105229 -0.0511292 -6.64876e-19)
(0.103629 -0.0584846 -4.25704e-19)
(0.102057 -0.0657178 4.81395e-19)
(0.100514 -0.0728326 0)
(0.0990046 -0.07984 3.3569e-19)
(0.0975214 -0.0867731 -3.30757e-19)
(0.0960583 -0.093668 0)
(0.0946172 -0.100547 -5.63956e-20)
(0.0931978 -0.107426 -1.68028e-19)
(0.0918042 -0.114325 1.65051e-19)
(0.090441 -0.121258 -9.65605e-20)
(0.089113 -0.128241 9.413e-20)
(0.0878249 -0.135285 0)
(0.0865813 -0.142398 -5.73129e-21)
(0.0853869 -0.149583 3.26178e-21)
(0.0842456 -0.156841 4.35941e-20)
(0.0831609 -0.164169 -1.13545e-19)
(0.082136 -0.171562 7.32269e-20)
(0.16339 -0.105412 2.7957e-18)
(-0.0208425 -0.0604376 0)
(0.00719128 -0.0535846 -1.29659e-16)
(0.00765093 -0.0513386 8.79428e-17)
(0.00673018 -0.0484177 -9.15993e-23)
(0.00629211 -0.0455382 -1.088e-18)
(0.00610865 -0.0426528 0)
(0.00609084 -0.0396213 -1.98881e-17)
(0.00623082 -0.0363173 1.81844e-17)
(0.00653582 -0.0326194 0)
(0.00701901 -0.0283972 9.24987e-19)
(0.00770099 -0.0235024 0)
(0.00861399 -0.0177797 -3.29809e-23)
(0.00979805 -0.0111023 -1.35386e-17)
(0.0113013 -0.0033783 2.64002e-17)
(0.0131928 0.00546501 -1.27523e-17)
(0.0156044 0.0155287 1.21954e-17)
(0.0186201 0.0270014 -2.508e-17)
(0.0224497 0.0403811 1.17113e-17)
(0.0273692 0.0563031 7.26522e-19)
(0.0334496 0.0749785 -7.08231e-19)
(0.0406909 0.0961032 -9.39221e-18)
(0.0489225 0.118868 1.12435e-17)
(0.0578223 0.142119 1.13566e-18)
(0.0669901 0.164597 1.0206e-18)
(0.0759903 0.185188 -9.0965e-19)
(0.0845205 0.203099 8.03892e-19)
(0.0923196 0.218053 0)
(0.0992543 0.230236 -1.12166e-21)
(0.105444 0.240084 1.10189e-21)
(0.110963 0.247962 -5.58037e-19)
(0.115795 0.254183 0)
(0.12002 0.258931 0)
(0.1237 0.262368 7.66428e-18)
(0.126887 0.264672 -5.91214e-18)
(0.129637 0.266022 0)
(0.132008 0.266581 -5.80837e-18)
(0.13406 0.266484 9.49078e-18)
(0.135845 0.265839 -5.69993e-18)
(0.137407 0.264735 0)
(0.138785 0.263237 -4.93202e-18)
(0.140006 0.261397 4.1328e-18)
(0.141095 0.259252 9.64666e-19)
(0.142069 0.256832 -4.06089e-18)
(0.142943 0.254157 3.00088e-18)
(0.143726 0.251243 0)
(0.144426 0.2481 3.02593e-18)
(0.14505 0.244736 -3.61611e-18)
(0.1456 0.241157 2.71602e-18)
(0.14608 0.237364 -1.96011e-18)
(0.146492 0.233361 -3.07176e-18)
(0.146835 0.229146 2.36699e-18)
(0.147111 0.224719 -5.61859e-19)
(0.147319 0.220079 1.59273e-18)
(0.147458 0.215222 -3.0225e-20)
(0.147526 0.210148 -1.97478e-18)
(0.147523 0.204851 0)
(0.147447 0.199329 -2.68305e-18)
(0.147296 0.193577 2.58361e-18)
(0.147068 0.187591 -1.66883e-18)
(0.146761 0.181367 0)
(0.146373 0.174899 7.59601e-19)
(0.145902 0.168183 2.17691e-18)
(0.145345 0.161213 6.69491e-19)
(0.1447 0.153983 -3.40062e-20)
(0.143964 0.146489 -6.64879e-19)
(0.143135 0.138724 2.44445e-18)
(0.142211 0.130683 -2.41486e-18)
(0.141187 0.122361 -1.14022e-18)
(0.140063 0.11375 2.1463e-18)
(0.138834 0.104845 -1.60324e-18)
(0.137498 0.0956416 -1.99931e-18)
(0.13605 0.0861329 2.81896e-18)
(0.13449 0.076314 -9.46161e-19)
(0.132836 0.0663245 0)
(0.131136 0.0564507 -7.655e-19)
(0.129419 0.0468359 7.94738e-19)
(0.127692 0.0374789 -2.42071e-18)
(0.125959 0.0283767 1.67199e-18)
(0.124225 0.0195244 -6.08067e-19)
(0.122489 0.0109154 -1.36769e-18)
(0.120756 0.00254022 6.58328e-20)
(0.119023 -0.00561436 6.31216e-20)
(0.117298 -0.0135634 9.03556e-19)
(0.115585 -0.0213323 9.76312e-19)
(0.113878 -0.0289394 -5.66929e-20)
(0.112184 -0.0364005 -5.34278e-19)
(0.110507 -0.0437321 1.55005e-19)
(0.108847 -0.0509494 -5.32137e-19)
(0.107211 -0.0580628 6.50524e-19)
(0.105603 -0.0650766 0)
(0.10403 -0.0719892 3.66423e-19)
(0.102494 -0.0788015 -6.31227e-19)
(0.100997 -0.0855308 3.08839e-19)
(0.0995312 -0.0922181 2.53961e-19)
(0.0980915 -0.0989048 -2.20207e-19)
(0.096681 -0.105613 2.0444e-20)
(0.0953021 -0.112362 -9.08343e-20)
(0.0939602 -0.119168 9.2743e-20)
(0.0926609 -0.126046 6.94853e-21)
(0.0914094 -0.133005 2.53569e-21)
(0.0902108 -0.140054 0)
(0.0890699 -0.147194 2.25569e-21)
(0.0879906 -0.154424 -3.80605e-21)
(0.0869764 -0.161739 -5.21468e-21)
(0.0860298 -0.16913 2.1481e-19)
(0.0851528 -0.176589 -2.27593e-19)
(0.165259 -0.100983 -9.10416e-17)
(-0.0206788 -0.0578509 0)
(0.00773336 -0.0509251 1.53118e-16)
(0.00831821 -0.0499124 -1.04653e-16)
(0.0073679 -0.0480192 -2.03595e-18)
(0.00687299 -0.0460374 2.64427e-18)
(0.00658627 -0.044026 3.03649e-17)
(0.0064272 -0.0418977 -2.46831e-17)
(0.00639187 -0.0395629 -1.26233e-18)
(0.00648643 -0.0369332 -1.91036e-17)
(0.00672173 -0.033909 1.66748e-17)
(0.00710676 -0.0303694 9.90889e-19)
(0.00767069 -0.026182 -7.3276e-24)
(0.00844047 -0.0212333 9.3174e-19)
(0.00945185 -0.0154378 9.03395e-19)
(0.0107486 -0.00872104 1.3957e-17)
(0.012378 -0.00102038 -3.39044e-20)
(0.0143963 0.0077103 -1.19944e-17)
(0.0169277 0.0175334 0)
(0.0200399 0.0286094 -7.2218e-19)
(0.0239179 0.0413616 -9.90025e-18)
(0.0288274 0.0563589 9.82242e-18)
(0.0348573 0.0738501 1.0894e-17)
(0.0420167 0.0936304 -1.04096e-17)
(0.0501709 0.115032 0)
(0.0590337 0.137053 1.10675e-18)
(0.0682326 0.158559 0)
(0.0773592 0.178517 8.95773e-19)
(0.086076 0.196142 1.59257e-18)
(0.0941753 0.211057 -7.05966e-19)
(0.101414 0.223295 6.34993e-19)
(0.107885 0.233255 -1.17677e-18)
(0.113731 0.241293 1.1009e-18)
(0.118893 0.247701 -9.2427e-18)
(0.123438 0.252665 7.73239e-18)
(0.127428 0.256326 0)
(0.130908 0.258835 6.70775e-18)
(0.133927 0.260356 -4.73379e-18)
(0.136539 0.261042 0)
(0.1388 0.261027 0)
(0.140763 0.260424 6.37487e-19)
(0.142474 0.259322 0)
(0.143973 0.257793 -5.56865e-19)
(0.145291 0.255893 0)
(0.146456 0.253663 -3.41094e-18)
(0.147487 0.251135 3.69933e-18)
(0.1484 0.248335 -8.67607e-19)
(0.149208 0.245278 8.15581e-19)
(0.14992 0.241978 0)
(0.150542 0.238444 -7.28847e-19)
(0.15108 0.234681 6.90694e-19)
(0.151537 0.230694 6.57728e-19)
(0.151916 0.226484 -2.13734e-21)
(0.152216 0.222052 0)
(0.15244 0.217398 1.67991e-18)
(0.152586 0.21252 -3.32941e-20)
(0.152655 0.207415 -2.07771e-18)
(0.152644 0.202081 9.82798e-19)
(0.152553 0.196514 -9.26318e-19)
(0.15238 0.190711 9.15944e-19)
(0.152122 0.184666 -1.70716e-18)
(0.151779 0.178377 2.47515e-18)
(0.151348 0.171837 -2.38864e-18)
(0.150826 0.165043 -2.25351e-18)
(0.150211 0.157988 1.47018e-18)
(0.149501 0.150666 -6.97187e-19)
(0.148692 0.143074 -2.62715e-18)
(0.147783 0.135204 1.31163e-18)
(0.14677 0.127052 -5.69422e-19)
(0.14565 0.118612 3.54941e-18)
(0.14442 0.109877 5.92747e-21)
(0.143077 0.100843 -5.84177e-21)
(0.141617 0.0915047 -1.99038e-18)
(0.140038 0.0818563 1.92926e-18)
(0.138359 0.0720359 -2.78191e-18)
(0.136629 0.0623254 -1.67036e-18)
(0.134878 0.0528671 2.45144e-18)
(0.133113 0.0436612 -1.46262e-18)
(0.13134 0.0347057 3.4957e-18)
(0.12956 0.0259975 -1.01435e-18)
(0.127778 0.0175315 1.16567e-18)
(0.125993 0.00929977 -1.14291e-18)
(0.124206 0.00129035 -1.24135e-18)
(0.122426 -0.00651212 7.34969e-19)
(0.120651 -0.0141318 6.19305e-19)
(0.118881 -0.0215909 -1.02907e-18)
(0.117125 -0.028901 -1.82026e-19)
(0.115384 -0.0360782 3.05142e-19)
(0.113659 -0.0431405 -1.36181e-18)
(0.111954 -0.0501051 5.7223e-19)
(0.110273 -0.0569858 1.21979e-19)
(0.108622 -0.0637894 0)
(0.10701 -0.0705142 -4.58594e-20)
(0.10544 -0.0771543 2.93352e-19)
(0.103917 -0.0837121 -3.19464e-19)
(0.102437 -0.0902215 -1.70852e-19)
(0.100992 -0.0967344 3.5201e-19)
(0.0995832 -0.103291 -1.53718e-19)
(0.0982141 -0.109913 9.13368e-20)
(0.09689 -0.116615 -8.52393e-20)
(0.0956173 -0.123413 -2.25332e-20)
(0.0944019 -0.130315 6.11464e-20)
(0.0932492 -0.137326 -1.37379e-19)
(0.0921639 -0.144448 9.2927e-20)
(0.0911499 -0.151675 0)
(0.0902103 -0.159001 6.73796e-21)
(0.089347 -0.166416 0)