/*--------------------------------*- C++ -*----------------------------------*\
  =========                 |
  \\      /  F ield         | OpenFOAM: The Open Source CFD Toolbox
   \\    /   O peration     | Website:  https://openfoam.org
    \\  /    A nd           | Version:  10
     \\/     M anipulation  |
\*---------------------------------------------------------------------------*/
FoamFile
{
    format      ascii;
    class       volScalarField;
    location    "24000";
    object      p;
}
// * * * * * * * * * * * * * * * * * * * * * * * * * * * * * * * * * * * * * //

dimensions      [0 2 -2 0 0 0 0];

internalField   nonuniform List<scalar> 
17969
(
-5.76633
-5.75667
-5.74862
-5.74013
-5.73102
-5.72137
-5.71119
-5.70041
-5.68896
-5.67674
-5.66364
-5.64958
-5.63456
-5.61857
-5.6017
-5.58411
-5.56578
-5.54668
-5.52685
-5.50632
-5.48507
-5.46311
-5.44042
-5.41697
-5.39276
-5.36776
-5.34194
-5.31528
-5.28777
-5.25936
-5.23004
-5.19977
-5.16853
-5.13628
-5.10299
-5.06864
-5.03317
-4.99657
-4.95878
-4.91978
-4.87951
-4.83795
-4.79505
-4.75075
-4.70502
-4.65781
-4.60907
-4.55873
-4.50676
-4.45309
-4.39767
-4.34043
-4.28131
-4.22024
-4.15716
-4.09199
-4.02466
-3.95509
-3.88321
-3.80893
-3.73216
-3.65281
-3.57079
-3.486
-3.39834
-3.30771
-3.21399
-3.11707
-3.01684
-2.91317
-2.80592
-2.69498
-2.58019
-2.46142
-2.34027
-2.22016
-2.10278
-1.98809
-1.87606
-1.76665
-1.65982
-1.55551
-1.4537
-1.35433
-1.25737
-1.16278
-1.07051
-0.980519
-0.892769
-0.807216
-0.72382
-0.642542
-0.563346
-0.486193
-0.411042
-0.337853
-0.266586
-0.197201
-0.12966
-0.0639292
-5.76522
-5.75555
-5.74752
-5.73908
-5.7301
-5.72064
-5.71072
-5.7003
-5.68932
-5.67775
-5.66549
-5.65243
-5.63847
-5.62354
-5.60764
-5.59077
-5.57298
-5.55439
-5.53506
-5.51492
-5.49399
-5.47229
-5.44983
-5.42661
-5.4026
-5.37779
-5.35216
-5.32569
-5.29835
-5.27011
-5.24096
-5.21086
-5.17978
-5.14769
-5.11456
-5.08036
-5.04505
-5.0086
-4.97096
-4.9321
-4.89198
-4.85056
-4.80779
-4.76363
-4.71803
-4.67095
-4.62233
-4.57211
-4.52025
-4.46669
-4.41137
-4.35423
-4.2952
-4.23422
-4.17122
-4.10613
-4.03886
-3.96936
-3.89753
-3.82328
-3.74654
-3.66722
-3.58521
-3.50042
-3.41275
-3.3221
-3.22834
-3.13137
-3.03107
-2.92732
-2.81997
-2.70891
-2.59399
-2.47506
-2.35373
-2.23342
-2.11584
-2.00094
-1.88869
-1.77905
-1.67198
-1.56744
-1.46538
-1.36577
-1.26855
-1.17368
-1.08115
-0.990901
-0.902902
-0.8171
-0.733452
-0.65192
-0.572467
-0.495055
-0.419645
-0.346195
-0.274667
-0.205022
-0.137223
-0.0712317
-5.76436
-5.75469
-5.74665
-5.73823
-5.72932
-5.71999
-5.71024
-5.70005
-5.68939
-5.6782
-5.66645
-5.65408
-5.641
-5.62709
-5.61227
-5.59647
-5.57968
-5.56189
-5.54313
-5.5235
-5.50309
-5.48184
-5.45974
-5.4368
-5.41305
-5.38847
-5.36305
-5.33678
-5.30963
-5.28158
-5.25261
-5.22268
-5.19177
-5.15985
-5.12688
-5.09284
-5.05768
-5.02138
-4.9839
-4.94519
-4.90522
-4.86394
-4.82132
-4.7773
-4.73183
-4.68488
-4.63639
-4.5863
-4.53456
-4.48112
-4.42591
-4.36887
-4.30995
-4.24906
-4.18615
-4.12113
-4.05394
-3.9845
-3.91273
-3.83853
-3.76183
-3.68253
-3.60054
-3.51575
-3.42807
-3.33739
-3.2436
-3.14658
-3.04621
-2.94236
-2.83492
-2.72373
-2.60866
-2.48955
-2.36804
-2.24752
-2.12972
-2.0146
-1.90212
-1.79223
-1.68492
-1.58012
-1.47781
-1.37791
-1.2804
-1.18525
-1.09243
-1.00191
-0.913626
-0.82755
-0.743638
-0.661842
-0.582122
-0.50444
-0.428757
-0.355035
-0.283233
-0.213314
-0.145242
-0.0789799
-5.7637
-5.75403
-5.74598
-5.73757
-5.72871
-5.71946
-5.70983
-5.6998
-5.68933
-5.67841
-5.667
-5.65504
-5.64249
-5.6293
-5.61536
-5.60058
-5.58487
-5.56817
-5.55045
-5.53169
-5.5119
-5.49116
-5.46959
-5.44716
-5.4238
-5.39954
-5.3744
-5.34837
-5.32145
-5.29361
-5.26483
-5.23508
-5.20435
-5.17261
-5.13981
-5.10594
-5.07095
-5.03481
-4.99748
-4.95893
-4.91911
-4.87798
-4.83551
-4.79163
-4.74631
-4.6995
-4.65114
-4.60118
-4.54957
-4.49625
-4.44116
-4.38424
-4.32542
-4.26464
-4.20182
-4.13689
-4.06978
-4.00041
-3.9287
-3.85456
-3.7779
-3.69863
-3.61666
-3.53188
-3.4442
-3.3535
-3.25967
-3.16259
-3.06215
-2.95821
-2.85065
-2.73933
-2.62411
-2.50483
-2.38311
-2.26238
-2.14435
-2.02899
-1.91626
-1.80612
-1.69854
-1.59348
-1.49088
-1.39068
-1.29288
-1.19744
-1.10432
-1.0135
-0.924922
-0.838559
-0.754355
-0.672272
-0.592272
-0.514309
-0.438344
-0.364337
-0.292251
-0.222047
-0.153691
-0.087146
-0.0223775
0.0406503
0.101973
0.161625
-5.76321
-5.75354
-5.74545
-5.73704
-5.72822
-5.71903
-5.70948
-5.69956
-5.68924
-5.67851
-5.66733
-5.65567
-5.64347
-5.63068
-5.61728
-5.60321
-5.58837
-5.57267
-5.55602
-5.53836
-5.51964
-5.49985
-5.47899
-5.45709
-5.43426
-5.41053
-5.38585
-5.36019
-5.33357
-5.30599
-5.27746
-5.24794
-5.21742
-5.18586
-5.15326
-5.11956
-5.08475
-5.04878
-5.01162
-4.97324
-4.93358
-4.89261
-4.85029
-4.80656
-4.76139
-4.71473
-4.66651
-4.6167
-4.56522
-4.51203
-4.45707
-4.40027
-4.34156
-4.28088
-4.21817
-4.15334
-4.08632
-4.01702
-3.94538
-3.8713
-3.79469
-3.71546
-3.63351
-3.54875
-3.46106
-3.37034
-3.27647
-3.17934
-3.07883
-2.97481
-2.86713
-2.75568
-2.64029
-2.52083
-2.3989
-2.27794
-2.15967
-2.04405
-1.93106
-1.82066
-1.71281
-1.60746
-1.50454
-1.40404
-1.30594
-1.2102
-1.11677
-1.02564
-0.936745
-0.850065
-0.765561
-0.683182
-0.602877
-0.524613
-0.448353
-0.37405
-0.301666
-0.231165
-0.162512
-0.0956723
-0.0306112
0.0327059
0.0943134
0.154246
-5.76283
-5.75316
-5.74504
-5.7366
-5.7278
-5.71865
-5.70916
-5.69932
-5.6891
-5.67849
-5.66747
-5.65601
-5.64406
-5.63159
-5.61855
-5.60489
-5.59057
-5.57555
-5.55975
-5.54307
-5.52542
-5.50673
-5.48695
-5.46606
-5.44405
-5.42092
-5.39675
-5.37165
-5.34556
-5.31841
-5.29022
-5.261
-5.23075
-5.19944
-5.16706
-5.13358
-5.09897
-5.06319
-5.02622
-4.98801
-4.94852
-4.90773
-4.86557
-4.82201
-4.777
-4.73049
-4.68242
-4.63275
-4.58142
-4.52837
-4.47354
-4.41687
-4.35829
-4.29773
-4.23512
-4.1704
-4.10347
-4.03427
-3.9627
-3.88868
-3.81213
-3.73294
-3.65102
-3.56628
-3.47859
-3.38785
-3.29396
-3.19678
-3.0962
-2.99208
-2.88429
-2.7727
-2.65715
-2.53749
-2.41535
-2.29415
-2.17563
-2.05976
-1.94649
-1.83581
-1.72767
-1.62201
-1.51877
-1.41795
-1.31953
-1.22347
-1.12973
-1.03827
-0.94905
-0.862039
-0.777202
-0.694501
-0.613892
-0.535324
-0.458752
-0.384139
-0.311445
-0.240635
-0.171673
-0.104527
-0.0391614
0.0244562
0.0863598
0.146583
-5.76256
-5.75287
-5.74471
-5.73625
-5.72744
-5.71831
-5.70885
-5.69906
-5.6889
-5.67837
-5.66745
-5.65612
-5.64434
-5.63207
-5.61929
-5.60596
-5.59202
-5.57742
-5.56212
-5.54611
-5.52928
-5.51155
-5.49282
-5.47303
-5.45212
-5.43004
-5.4068
-5.38239
-5.35684
-5.33024
-5.30262
-5.27389
-5.24404
-5.21308
-5.181
-5.14779
-5.11342
-5.07788
-5.04112
-5.00312
-4.96383
-4.92323
-4.88125
-4.83787
-4.79303
-4.74669
-4.69879
-4.64928
-4.5981
-4.5452
-4.49051
-4.43398
-4.37553
-4.3151
-4.25261
-4.188
-4.12118
-4.05207
-3.98058
-3.90664
-3.83015
-3.75102
-3.66914
-3.58441
-3.49673
-3.40598
-3.31206
-3.21483
-3.11418
-3.00997
-2.90207
-2.79034
-2.67462
-2.55477
-2.43241
-2.31097
-2.19219
-2.07605
-1.9625
-1.85153
-1.74308
-1.6371
-1.53354
-1.43239
-1.33364
-1.23724
-1.14316
-1.05136
-0.961797
-0.874441
-0.789255
-0.706207
-0.625262
-0.546379
-0.469498
-0.394564
-0.321546
-0.250412
-0.181129
-0.113664
-0.0479822
0.0159481
0.0781602
0.138687
0.197562
-5.76235
-5.75264
-5.74445
-5.73596
-5.72713
-5.718
-5.70855
-5.69878
-5.68866
-5.67817
-5.66732
-5.65606
-5.64438
-5.63226
-5.61965
-5.60653
-5.59286
-5.5786
-5.5637
-5.5481
-5.53177
-5.51468
-5.49676
-5.4779
-5.45802
-5.43704
-5.4149
-5.39157
-5.367
-5.34121
-5.31419
-5.28601
-5.25675
-5.22634
-5.19472
-5.1619
-5.12788
-5.09264
-5.05616
-5.01841
-4.97936
-4.93898
-4.89722
-4.85404
-4.80939
-4.76323
-4.71551
-4.66618
-4.61517
-4.56243
-4.5079
-4.45152
-4.39322
-4.33292
-4.27056
-4.20607
-4.13936
-4.07036
-3.99897
-3.92511
-3.84869
-3.76962
-3.68778
-3.60308
-3.51542
-3.42467
-3.33072
-3.23346
-3.13274
-3.02844
-2.92043
-2.80856
-2.69268
-2.57263
-2.45004
-2.32835
-2.20931
-2.09288
-1.97905
-1.86777
-1.75901
-1.6527
-1.5488
-1.44732
-1.34822
-1.25147
-1.15704
-1.06488
-0.974961
-0.887244
-0.801695
-0.718281
-0.636972
-0.557734
-0.480524
-0.405277
-0.331932
-0.260463
-0.190847
-0.123052
-0.057044
0.00720961
0.0697406
0.130582
0.189765
0.247325
0.303293
-5.7622
-5.75246
-5.74424
-5.73572
-5.72688
-5.71773
-5.70828
-5.69851
-5.6884
-5.67793
-5.66711
-5.65589
-5.64428
-5.63224
-5.61974
-5.60677
-5.59328
-5.57924
-5.56461
-5.54936
-5.53343
-5.51677
-5.49933
-5.4811
-5.46199
-5.44192
-5.4208
-5.39854
-5.37509
-5.35038
-5.3244
-5.29712
-5.26854
-5.2387
-5.20768
-5.17545
-5.14194
-5.10714
-5.07105
-5.03364
-4.9949
-4.9548
-4.9133
-4.87036
-4.82595
-4.78001
-4.73249
-4.68335
-4.63253
-4.57998
-4.52562
-4.4694
-4.41126
-4.35112
-4.2889
-4.22454
-4.15796
-4.08907
-4.01779
-3.94403
-3.86769
-3.78868
-3.7069
-3.62224
-3.5346
-3.44386
-3.34989
-3.25259
-3.15181
-3.04744
-2.93931
-2.8273
-2.71126
-2.59101
-2.46819
-2.34625
-2.22694
-2.11023
-1.9961
-1.88451
-1.77543
-1.66878
-1.56454
-1.4627
-1.36325
-1.26614
-1.17134
-1.07881
-0.988518
-0.900426
-0.814499
-0.730705
-0.649012
-0.569391
-0.491812
-0.416223
-0.342552
-0.270746
-0.200788
-0.132653
-0.0663091
-0.00172238
0.0611379
0.122303
0.181805
0.239677
0.29595
0.35066
-5.76208
-5.75232
-5.74408
-5.73554
-5.72667
-5.71751
-5.70805
-5.69827
-5.68815
-5.67769
-5.66688
-5.65568
-5.64409
-5.6321
-5.61967
-5.60678
-5.5934
-5.57952
-5.56508
-5.55006
-5.53441
-5.51809
-5.50107
-5.48327
-5.46465
-5.44518
-5.42481
-5.40343
-5.38096
-5.35732
-5.33244
-5.30626
-5.27874
-5.24987
-5.21962
-5.18801
-5.1551
-5.12091
-5.08539
-5.04848
-5.01017
-4.97044
-4.92928
-4.88666
-4.84253
-4.79685
-4.74959
-4.70068
-4.65008
-4.59773
-4.54357
-4.48754
-4.42957
-4.3696
-4.30755
-4.24334
-4.1769
-4.10814
-4.03697
-3.96332
-3.88707
-3.80815
-3.72643
-3.64182
-3.55421
-3.46348
-3.36951
-3.27218
-3.17135
-3.0669
-2.95867
-2.84653
-2.73032
-2.60988
-2.48683
-2.36464
-2.24505
-2.12805
-2.01362
-1.90172
-1.7923
-1.68531
-1.58071
-1.47851
-1.37869
-1.28121
-1.18603
-1.09312
-1.00245
-0.913969
-0.827654
-0.743466
-0.661374
-0.581349
-0.50336
-0.427377
-0.353361
-0.28124
-0.210945
-0.142457
-0.0757635
-0.0108324
0.0523682
0.113869
0.173701
0.231895
0.288484
0.3435
0.396978
0.44895
-5.762
-5.75221
-5.74395
-5.73539
-5.72651
-5.71734
-5.70787
-5.69807
-5.68795
-5.67749
-5.66667
-5.65548
-5.6439
-5.63193
-5.61952
-5.60668
-5.59338
-5.57958
-5.56526
-5.5504
-5.53494
-5.51886
-5.50212
-5.48467
-5.46646
-5.44744
-5.42755
-5.40676
-5.38501
-5.36222
-5.3383
-5.31316
-5.28674
-5.25896
-5.22979
-5.19918
-5.16713
-5.13362
-5.0987
-5.06242
-5.02472
-4.98554
-4.94485
-4.90264
-4.85889
-4.81356
-4.76661
-4.71799
-4.66765
-4.61555
-4.56163
-4.50582
-4.44806
-4.38827
-4.3264
-4.26237
-4.19608
-4.12747
-4.05645
-3.98291
-3.90678
-3.82794
-3.74631
-3.66176
-3.5742
-3.48349
-3.38952
-3.29217
-3.1913
-3.08678
-2.97846
-2.86619
-2.74981
-2.62918
-2.5059
-2.38346
-2.2636
-2.14631
-2.03156
-1.91934
-1.80959
-1.70225
-1.5973
-1.49473
-1.39453
-1.29667
-1.2011
-1.1078
-1.01672
-0.927843
-0.841123
-0.756529
-0.674029
-0.593592
-0.515189
-0.43879
-0.364369
-0.291887
-0.22127
-0.152447
-0.0853935
-0.0201022
0.0434522
0.105301
0.165474
0.224002
0.280918
0.336252
0.390038
0.44231
0.493102
0.542448
0.590383
0.636941
-5.76194
-5.75213
-5.74386
-5.73529
-5.7264
-5.71721
-5.70773
-5.69793
-5.6878
-5.67734
-5.66651
-5.65533
-5.64375
-5.63178
-5.6194
-5.60658
-5.5933
-5.57955
-5.56531
-5.55053
-5.5352
-5.51928
-5.50274
-5.48553
-5.4676
-5.44893
-5.42945
-5.40911
-5.38786
-5.36564
-5.34241
-5.3181
-5.2926
-5.26584
-5.23774
-5.20822
-5.17725
-5.14477
-5.11077
-5.07522
-5.03816
-4.99962
-4.95957
-4.91795
-4.87471
-4.82983
-4.78329
-4.73504
-4.68505
-4.63326
-4.57963
-4.52408
-4.46657
-4.40702
-4.34536
-4.28152
-4.21543
-4.14699
-4.07612
-4.00272
-3.92672
-3.848
-3.76646
-3.68199
-3.59448
-3.50381
-3.40987
-3.31251
-3.21161
-3.10702
-2.99861
-2.88622
-2.7697
-2.64887
-2.52537
-2.40267
-2.28254
-2.16495
-2.04989
-1.93734
-1.82726
-1.71958
-1.61426
-1.51132
-1.41074
-1.31248
-1.21651
-1.1228
-1.03132
-0.942026
-0.85489
-0.769878
-0.686959
-0.606101
-0.527272
-0.450446
-0.375596
-0.302698
-0.231711
-0.16256
-0.095167
-0.0295104
0.0344122
0.0966211
0.157147
0.216021
0.273274
0.328936
0.383041
0.435622
0.486712
0.536346
0.584557
0.631382
-5.76191
-5.75208
-5.74379
-5.73521
-5.72632
-5.71713
-5.70764
-5.69784
-5.68771
-5.67724
-5.66642
-5.65523
-5.64366
-5.63169
-5.61932
-5.60651
-5.59325
-5.57953
-5.56532
-5.5506
-5.53534
-5.51952
-5.5031
-5.48605
-5.46833
-5.4499
-5.43071
-5.41071
-5.38987
-5.36811
-5.34538
-5.32162
-5.29679
-5.27083
-5.24362
-5.21509
-5.18517
-5.15377
-5.12084
-5.08633
-5.05022
-5.01247
-4.97309
-4.93212
-4.88954
-4.84528
-4.79929
-4.75154
-4.70199
-4.65061
-4.59735
-4.54214
-4.48493
-4.42567
-4.36427
-4.30068
-4.2348
-4.16656
-4.09588
-4.02266
-3.9468
-3.86822
-3.78679
-3.70242
-3.61499
-3.52438
-3.43046
-3.33311
-3.2322
-3.12757
-3.01908
-2.90658
-2.78991
-2.6689
-2.54518
-2.42223
-2.30182
-2.18394
-2.06857
-1.95569
-1.84527
-1.73725
-1.63157
-1.52825
-1.42728
-1.32862
-1.23224
-1.13812
-1.04621
-0.956497
-0.868933
-0.783491
-0.70014
-0.618847
-0.539584
-0.46232
-0.38703
-0.313691
-0.242278
-0.172751
-0.105026
-0.0390249
0.0252686
0.0878515
0.148742
0.207973
0.265573
0.321573
0.376007
0.428905
0.480303
0.530233
0.578731
0.62583
-5.7619
-5.75204
-5.74375
-5.73517
-5.72627
-5.71708
-5.7076
-5.69779
-5.68767
-5.6772
-5.66638
-5.65519
-5.64363
-5.63167
-5.6193
-5.6065
-5.59326
-5.57956
-5.56537
-5.55068
-5.53547
-5.5197
-5.50336
-5.48641
-5.46882
-5.45055
-5.43156
-5.41181
-5.39125
-5.36984
-5.34751
-5.32422
-5.29989
-5.27447
-5.24792
-5.22016
-5.1911
-5.16065
-5.12874
-5.09529
-5.06024
-5.02353
-4.98511
-4.94497
-4.9031
-4.85951
-4.81419
-4.76709
-4.71813
-4.66728
-4.61449
-4.55972
-4.50291
-4.44401
-4.38294
-4.31965
-4.25405
-4.18606
-4.1156
-4.04259
-3.96692
-3.8885
-3.80722
-3.72297
-3.63563
-3.5451
-3.45124
-3.35392
-3.253
-3.14834
-3.03979
-2.9272
-2.81039
-2.68921
-2.56528
-2.44209
-2.32141
-2.20324
-2.08755
-1.97434
-1.86358
-1.75522
-1.64918
-1.54548
-1.44411
-1.34504
-1.24825
-1.15371
-1.06138
-0.971226
-0.883225
-0.797343
-0.713547
-0.63181
-0.5521
-0.474389
-0.39865
-0.32486
-0.252997
-0.183036
-0.114933
-0.0485981
0.0160482
0.0790103
0.140279
0.199875
0.257832
0.314181
0.368952
0.422177
0.47389
0.524125
0.572916
0.620297
-5.7619
-5.75202
-5.74373
-5.73515
-5.72625
-5.71706
-5.70758
-5.69778
-5.68766
-5.6772
-5.66639
-5.65521
-5.64365
-5.6317
-5.61934
-5.60656
-5.59333
-5.57965
-5.56548
-5.55082
-5.53563
-5.5199
-5.50361
-5.48672
-5.46921
-5.45104
-5.43218
-5.4126
-5.39225
-5.37108
-5.34904
-5.32609
-5.30217
-5.27721
-5.25116
-5.22395
-5.19552
-5.16581
-5.13474
-5.10221
-5.06814
-5.03246
-4.99509
-4.95598
-4.91507
-4.87233
-4.82774
-4.78133
-4.73306
-4.68288
-4.6307
-4.57649
-4.52019
-4.46175
-4.40111
-4.3382
-4.27295
-4.20528
-4.13512
-4.06236
-3.98692
-3.9087
-3.82761
-3.74351
-3.65631
-3.56588
-3.47209
-3.37483
-3.27393
-3.16926
-3.06067
-2.948
-2.83108
-2.70974
-2.58561
-2.46218
-2.34124
-2.22278
-2.10678
-1.99325
-1.88214
-1.77343
-1.66705
-1.56297
-1.4612
-1.36172
-1.26452
-1.16954
-1.07678
-0.986184
-0.897737
-0.811404
-0.727155
-0.644962
-0.564796
-0.486628
-0.410431
-0.336182
-0.263859
-0.193441
-0.124901
-0.0581886
0.00679175
0.0701139
0.13177
0.191745
0.250069
0.306774
0.361891
0.415451
0.467488
0.518035
0.567126
0.614796
0.661079
-5.76191
-5.75201
-5.74373
-5.73514
-5.72625
-5.71707
-5.70759
-5.6978
-5.68769
-5.67724
-5.66643
-5.65526
-5.64372
-5.63178
-5.61943
-5.60666
-5.59345
-5.57978
-5.56564
-5.551
-5.53584
-5.52014
-5.50389
-5.48704
-5.46958
-5.45149
-5.43271
-5.41324
-5.39302
-5.37202
-5.35019
-5.32749
-5.30386
-5.27924
-5.25359
-5.22684
-5.19892
-5.16976
-5.1393
-5.10748
-5.07423
-5.03943
-5.00301
-4.96489
-4.925
-4.88327
-4.83965
-4.79408
-4.74656
-4.69708
-4.64562
-4.59209
-4.53643
-4.47858
-4.41847
-4.35606
-4.29125
-4.22399
-4.15418
-4.08176
-4.00661
-3.92866
-3.84779
-3.76391
-3.67689
-3.5866
-3.49292
-3.39574
-3.2949
-3.19025
-3.08163
-2.9689
-2.85189
-2.73041
-2.6061
-2.48245
-2.36125
-2.2425
-2.12621
-2.01234
-1.90089
-1.79183
-1.6851
-1.58065
-1.47849
-1.37861
-1.28098
-1.18558
-1.09237
-1.00133
-0.912431
-0.825641
-0.740932
-0.658275
-0.577643
-0.499009
-0.422346
-0.34763
-0.27484
-0.203955
-0.134955
-0.0678099
-0.00245073
0.0612119
0.12323
0.183595
0.242297
0.299367
0.354838
0.408741
0.461109
0.511975
0.561373
0.609338
0.655904
-5.76193
-5.75201
-5.74373
-5.73515
-5.72626
-5.71709
-5.70762
-5.69784
-5.68774
-5.67729
-5.6665
-5.65535
-5.64381
-5.63189
-5.61956
-5.60681
-5.59361
-5.57996
-5.56584
-5.55122
-5.53609
-5.52042
-5.5042
-5.48739
-5.46998
-5.45193
-5.43322
-5.41382
-5.39369
-5.37281
-5.35112
-5.32859
-5.30516
-5.2808
-5.25544
-5.22904
-5.20151
-5.17281
-5.14287
-5.1116
-5.07894
-5.04483
-5.00919
-4.97193
-4.93296
-4.89219
-4.84955
-4.80497
-4.75838
-4.70974
-4.65902
-4.60622
-4.55129
-4.49414
-4.43469
-4.37288
-4.30863
-4.24187
-4.17253
-4.10052
-4.02576
-3.94814
-3.86758
-3.78395
-3.69715
-3.60706
-3.51356
-3.41652
-3.31577
-3.21117
-3.10257
-2.98981
-2.87272
-2.75113
-2.62665
-2.5028
-2.38136
-2.26235
-2.14575
-2.03156
-1.91977
-1.81036
-1.70328
-1.59847
-1.49592
-1.39564
-1.29759
-1.20176
-1.10811
-1.01662
-0.927266
-0.840014
-0.754839
-0.671712
-0.590608
-0.511501
-0.434364
-0.359174
-0.28591
-0.214552
-0.145079
-0.0774722
-0.0116991
0.0523302
0.11471
0.175452
0.234538
0.29198
0.34781
0.402061
0.454765
0.505955
0.555665
0.60393
0.650784
-5.76196
-5.75202
-5.74374
-5.73517
-5.72629
-5.71712
-5.70766
-5.69789
-5.6878
-5.67737
-5.66659
-5.65545
-5.64393
-5.63202
-5.61971
-5.60697
-5.5938
-5.58017
-5.56606
-5.55147
-5.53636
-5.52073
-5.50453
-5.48776
-5.47039
-5.45238
-5.43373
-5.41438
-5.39433
-5.37352
-5.35193
-5.32952
-5.30624
-5.28206
-5.25691
-5.23076
-5.20353
-5.17517
-5.14562
-5.11481
-5.08267
-5.04911
-5.01407
-4.97748
-4.93925
-4.89931
-4.85755
-4.81389
-4.76825
-4.72056
-4.67075
-4.61875
-4.56457
-4.50817
-4.44947
-4.38836
-4.32477
-4.25862
-4.18985
-4.11836
-4.04407
-3.96689
-3.88671
-3.80343
-3.71694
-3.62711
-3.53382
-3.43694
-3.33633
-3.23185
-3.12333
-3.01058
-2.89346
-2.77178
-2.64717
-2.52314
-2.40148
-2.28221
-2.16533
-2.05083
-1.9387
-1.82894
-1.7215
-1.61634
-1.51343
-1.41274
-1.31428
-1.21802
-1.12394
-1.032
-0.942188
-0.854474
-0.768829
-0.685229
-0.603649
-0.524066
-0.446452
-0.370785
-0.297045
-0.225213
-0.15527
-0.0871876
-0.0209443
0.0435008
0.106239
0.167342
0.226807
0.284625
0.340819
0.395422
0.448466
0.499985
0.550011
0.59858
0.645726
0.691484
-5.76199
-5.75202
-5.74376
-5.73519
-5.72631
-5.71716
-5.70771
-5.69795
-5.68786
-5.67745
-5.66668
-5.65555
-5.64405
-5.63215
-5.61986
-5.60714
-5.59399
-5.58038
-5.5663
-5.55173
-5.53665
-5.52104
-5.50487
-5.48814
-5.4708
-5.45284
-5.43422
-5.41493
-5.39493
-5.37419
-5.35268
-5.33036
-5.30719
-5.28313
-5.25814
-5.23216
-5.20515
-5.17705
-5.1478
-5.11734
-5.08559
-5.05248
-5.01795
-4.98192
-4.94429
-4.905
-4.86396
-4.82109
-4.77631
-4.7295
-4.6806
-4.62951
-4.57617
-4.52054
-4.4626
-4.40226
-4.33941
-4.27396
-4.20584
-4.13497
-4.06125
-3.98459
-3.9049
-3.82205
-3.73596
-3.64648
-3.55349
-3.45687
-3.35647
-3.25213
-3.14371
-3.03104
-2.91394
-2.79223
-2.66752
-2.54334
-2.42149
-2.30199
-2.18484
-2.07005
-1.9576
-1.84749
-1.7397
-1.63419
-1.53091
-1.42984
-1.33097
-1.23429
-1.13978
-1.0474
-0.957134
-0.868959
-0.782848
-0.698776
-0.616721
-0.536661
-0.458571
-0.38243
-0.308217
-0.235908
-0.165481
-0.096919
-0.030202
0.0346959
0.0978268
0.159277
0.219106
0.277305
0.333869
0.388828
0.442216
0.494067
0.544413
0.593289
0.64073
0.686771
-5.76201
-5.75203
-5.74378
-5.73521
-5.72634
-5.71719
-5.70775
-5.698
-5.68793
-5.67752
-5.66677
-5.65565
-5.64416
-5.63228
-5.62
-5.6073
-5.59417
-5.58058
-5.56652
-5.55198
-5.53692
-5.52134
-5.50521
-5.4885
-5.4712
-5.45327
-5.4347
-5.41546
-5.39551
-5.37483
-5.35338
-5.33113
-5.30804
-5.28408
-5.2592
-5.23336
-5.20652
-5.17861
-5.14958
-5.11937
-5.08793
-5.05517
-5.02104
-4.98544
-4.94832
-4.90958
-4.86915
-4.82692
-4.78283
-4.73679
-4.6887
-4.63846
-4.58599
-4.53121
-4.47406
-4.41449
-4.3524
-4.28769
-4.22029
-4.15011
-4.07704
-4.001
-3.92187
-3.83955
-3.75393
-3.66489
-3.57229
-3.47601
-3.3759
-3.2718
-3.16356
-3.05102
-2.93399
-2.8123
-2.68755
-2.56327
-2.44126
-2.32156
-2.20417
-2.0891
-1.97634
-1.8659
-1.75776
-1.65189
-1.54826
-1.44683
-1.34757
-1.25049
-1.15555
-1.06274
-0.97203
-0.883401
-0.796829
-0.712291
-0.629766
-0.549234
-0.470671
-0.394054
-0.319363
-0.246579
-0.175682
-0.106651
-0.0394659
0.0258954
0.0894641
0.151299
0.211476
0.270033
0.326969
0.382289
0.436024
0.488209
0.538877
0.588063
0.635801
0.682128
-5.76203
-5.75202
-5.74379
-5.73523
-5.72637
-5.71722
-5.70779
-5.69805
-5.68798
-5.67759
-5.66684
-5.65574
-5.64426
-5.6324
-5.62013
-5.60745
-5.59433
-5.58077
-5.56673
-5.55221
-5.53718
-5.52162
-5.50552
-5.48884
-5.47157
-5.45368
-5.43515
-5.41595
-5.39605
-5.37542
-5.35402
-5.33184
-5.30882
-5.28494
-5.26015
-5.23442
-5.20769
-5.17993
-5.15107
-5.12106
-5.08984
-5.05735
-5.02352
-4.98828
-4.95156
-4.91326
-4.87332
-4.83165
-4.78815
-4.74274
-4.69533
-4.64583
-4.59413
-4.54015
-4.4838
-4.425
-4.36368
-4.29974
-4.23309
-4.16363
-4.09127
-4.0159
-3.93741
-3.85569
-3.77063
-3.68211
-3.58998
-3.49411
-3.39437
-3.29059
-3.18262
-3.07029
-2.95341
-2.8318
-2.70706
-2.58273
-2.46062
-2.34076
-2.22317
-2.10785
-1.99482
-1.88406
-1.77558
-1.66937
-1.56538
-1.4636
-1.36397
-1.2665
-1.17116
-1.07793
-0.986788
-0.897719
-0.810698
-0.725705
-0.642719
-0.56172
-0.482686
-0.405599
-0.330439
-0.257189
-0.185828
-0.116336
-0.0486916
0.0171276
0.0811453
0.143398
0.203946
0.26285
0.320141
0.37582
0.429903
0.482422
0.533411
0.582907
0.630942
0.677552
-5.76205
-5.75202
-5.74379
-5.73524
-5.72638
-5.71724
-5.70782
-5.69808
-5.68802
-5.67763
-5.6669
-5.65581
-5.64434
-5.63249
-5.62024
-5.60757
-5.59447
-5.58093
-5.56691
-5.55241
-5.5374
-5.52187
-5.50579
-5.48914
-5.4719
-5.45405
-5.43555
-5.41639
-5.39653
-5.37595
-5.35461
-5.33248
-5.30952
-5.28571
-5.261
-5.23535
-5.20873
-5.18107
-5.15234
-5.12248
-5.09144
-5.05916
-5.02557
-4.9906
-4.95418
-4.91624
-4.8767
-4.83547
-4.79246
-4.74759
-4.70076
-4.65188
-4.60084
-4.54756
-4.49194
-4.43389
-4.37331
-4.31012
-4.24422
-4.1755
-4.10386
-4.02919
-3.95139
-3.87032
-3.78588
-3.69793
-3.60634
-3.51097
-3.41167
-3.30829
-3.20066
-3.08861
-2.97196
-2.85051
-2.72587
-2.60155
-2.4794
-2.35943
-2.24168
-2.12615
-2.01287
-1.90184
-1.79305
-1.6865
-1.58217
-1.48003
-1.38006
-1.28222
-1.18649
-1.09286
-1.00131
-0.911822
-0.82437
-0.738936
-0.6555
-0.574045
-0.494556
-0.417011
-0.341393
-0.267686
-0.195871
-0.125929
-0.0578361
0.00842871
0.0728888
0.135572
0.196518
0.255782
0.313415
0.369441
0.423868
0.476718
0.528027
0.577829
0.626158
0.67305
-5.76206
-5.752
-5.74379
-5.73524
-5.72638
-5.71725
-5.70783
-5.6981
-5.68805
-5.67766
-5.66694
-5.65585
-5.6444
-5.63256
-5.62032
-5.60767
-5.59458
-5.58105
-5.56705
-5.55257
-5.53758
-5.52207
-5.50602
-5.4894
-5.47219
-5.45437
-5.4359
-5.41678
-5.39696
-5.37641
-5.35512
-5.33304
-5.31014
-5.28639
-5.26175
-5.23617
-5.20963
-5.18207
-5.15344
-5.1237
-5.0928
-5.06068
-5.02727
-4.99251
-4.95634
-4.91868
-4.87945
-4.83858
-4.79597
-4.75153
-4.70519
-4.65683
-4.60636
-4.55369
-4.49871
-4.44133
-4.38145
-4.31896
-4.25377
-4.18577
-4.11484
-4.04088
-3.96376
-3.88336
-3.79957
-3.71223
-3.62123
-3.52641
-3.42762
-3.3247
-3.21749
-3.1058
-2.98945
-2.86823
-2.74376
-2.61954
-2.4974
-2.37738
-2.25953
-2.14385
-2.03037
-1.91909
-1.81002
-1.70316
-1.59851
-1.49604
-1.39572
-1.29754
-1.20145
-1.10745
-1.01551
-0.925618
-0.837752
-0.751894
-0.668028
-0.586139
-0.506211
-0.428224
-0.352164
-0.278014
-0.205757
-0.135377
-0.0668497
-0.000154444
0.0647327
0.127837
0.18919
0.248833
0.306813
0.363172
0.417936
0.471118
0.522742
0.572846
0.621466
0.668636
-5.76206
-5.75198
-5.74378
-5.73523
-5.72637
-5.71724
-5.70782
-5.69809
-5.68805
-5.67767
-5.66695
-5.65587
-5.64442
-5.63259
-5.62036
-5.60772
-5.59465
-5.58113
-5.56714
-5.55268
-5.53771
-5.52222
-5.50619
-5.4896
-5.47241
-5.45462
-5.43619
-5.4171
-5.39731
-5.37681
-5.35555
-5.33352
-5.31067
-5.28697
-5.26239
-5.23688
-5.2104
-5.18292
-5.15438
-5.12475
-5.09396
-5.06196
-5.0287
-4.99411
-4.95813
-4.92068
-4.88171
-4.84111
-4.79883
-4.75475
-4.70881
-4.66089
-4.6109
-4.55875
-4.50433
-4.44753
-4.38827
-4.32642
-4.26188
-4.19454
-4.12429
-4.05101
-3.97456
-3.89483
-3.81169
-3.72499
-3.63459
-3.54035
-3.44211
-3.3397
-3.23296
-3.12169
-3.00571
-2.8848
-2.76057
-2.6365
-2.51445
-2.39445
-2.27655
-2.16077
-2.04714
-1.93567
-1.82637
-1.71924
-1.61429
-1.5115
-1.41086
-1.31234
-1.21592
-1.12157
-1.02927
-0.939004
-0.850751
-0.764496
-0.680225
-0.597924
-0.517578
-0.439171
-0.362688
-0.288113
-0.215433
-0.14463
-0.0756836
-0.00857336
0.0567241
0.120233
0.181983
0.242006
0.300345
0.357039
0.412123
0.465626
0.517569
0.567976
0.616888
0.66435
-5.76205
-5.75194
-5.74376
-5.7352
-5.72635
-5.71722
-5.7078
-5.69807
-5.68802
-5.67765
-5.66693
-5.65586
-5.64441
-5.63259
-5.62037
-5.60773
-5.59467
-5.58116
-5.56719
-5.55274
-5.53779
-5.52232
-5.50631
-5.48973
-5.47258
-5.45481
-5.4364
-5.41734
-5.39759
-5.37712
-5.35591
-5.33391
-5.31111
-5.28746
-5.26292
-5.23747
-5.21106
-5.18364
-5.15518
-5.12563
-5.09493
-5.06304
-5.02989
-4.99544
-4.95961
-4.92234
-4.88356
-4.8432
-4.80116
-4.75738
-4.71176
-4.6642
-4.61462
-4.5629
-4.50895
-4.45267
-4.39394
-4.33265
-4.26871
-4.20198
-4.13236
-4.0597
-3.9839
-3.90481
-3.82229
-3.73621
-3.64642
-3.55277
-3.45509
-3.35322
-3.24699
-3.13618
-3.02062
-2.90008
-2.77615
-2.65231
-2.53041
-2.41049
-2.29261
-2.17679
-2.06306
-1.95144
-1.84195
-1.7346
-1.62939
-1.52632
-1.42538
-1.32654
-1.2298
-1.13513
-1.0425
-0.951888
-0.863279
-0.776657
-0.692009
-0.609322
-0.528585
-0.449783
-0.372901
-0.297925
-0.224843
-0.153637
-0.0842906
-0.0167829
0.0489082
0.112806
0.174937
0.23533
0.294022
0.351053
0.406461
0.460274
0.512522
0.563236
0.612451
0.660204
-5.76204
-5.7519
-5.74372
-5.73516
-5.72631
-5.71717
-5.70775
-5.69802
-5.68797
-5.6776
-5.66688
-5.65581
-5.64437
-5.63255
-5.62033
-5.6077
-5.59465
-5.58115
-5.56719
-5.55275
-5.53781
-5.52235
-5.50636
-5.48981
-5.47267
-5.45492
-5.43654
-5.41751
-5.39779
-5.37735
-5.35617
-5.33421
-5.31145
-5.28784
-5.26335
-5.23795
-5.21159
-5.18423
-5.15584
-5.12635
-5.09573
-5.06393
-5.03088
-4.99654
-4.96084
-4.92371
-4.88509
-4.8449
-4.80308
-4.75953
-4.71417
-4.66691
-4.61765
-4.56629
-4.51274
-4.45689
-4.39862
-4.33783
-4.27441
-4.20824
-4.13918
-4.06711
-3.99189
-3.91339
-3.83147
-3.74598
-3.65678
-3.5637
-3.46659
-3.36527
-3.25955
-3.14924
-3.03413
-2.914
-2.79041
-2.66686
-2.54516
-2.42539
-2.30758
-2.19177
-2.078
-1.96629
-1.85667
-1.74914
-1.64372
-1.5404
-1.43919
-1.34008
-1.24304
-1.14806
-1.05512
-0.964187
-0.875254
-0.788299
-0.703306
-0.620265
-0.539167
-0.459997
-0.382743
-0.307391
-0.233931
-0.162346
-0.0926215
-0.0247372
0.0413276
0.105596
0.168091
0.228843
0.287881
0.345241
0.400962
0.455079
0.507626
0.558633
0.608131
0.656156
-5.76201
-5.75185
-5.74367
-5.73511
-5.72625
-5.71711
-5.70768
-5.69795
-5.6879
-5.67752
-5.6668
-5.65573
-5.64429
-5.63247
-5.62025
-5.60763
-5.59457
-5.58108
-5.56713
-5.5527
-5.53777
-5.52233
-5.50635
-5.48981
-5.47269
-5.45496
-5.43661
-5.41759
-5.3979
-5.37749
-5.35634
-5.33441
-5.31168
-5.28811
-5.26367
-5.23831
-5.212
-5.18469
-5.15635
-5.12693
-5.09638
-5.06465
-5.03169
-4.99743
-4.96183
-4.92482
-4.88633
-4.8463
-4.80464
-4.76127
-4.71612
-4.6691
-4.62011
-4.56906
-4.51584
-4.46034
-4.40247
-4.34211
-4.27914
-4.21344
-4.14489
-4.07333
-3.99865
-3.9207
-3.83933
-3.7544
-3.66575
-3.57323
-3.47667
-3.37588
-3.27068
-3.16087
-3.04623
-2.92654
-2.80333
-2.6801
-2.55865
-2.43906
-2.32138
-2.20564
-2.09188
-1.98013
-1.87042
-1.76277
-1.65718
-1.55367
-1.45224
-1.35287
-1.25557
-1.1603
-1.06707
-0.975849
-0.886612
-0.799347
-0.714042
-0.630682
-0.549256
-0.469753
-0.392161
-0.316466
-0.242657
-0.170722
-0.100644
-0.0324076
0.0340084
0.098625
0.161466
0.222558
0.281928
0.339611
0.39564
0.450052
0.502883
0.554167
0.603935
0.65222
-5.76198
-5.75179
-5.74362
-5.73504
-5.72617
-5.71703
-5.70759
-5.69785
-5.6878
-5.67742
-5.66669
-5.65561
-5.64417
-5.63235
-5.62013
-5.60751
-5.59446
-5.58097
-5.56702
-5.55259
-5.53767
-5.52224
-5.50627
-5.48974
-5.47264
-5.45493
-5.43659
-5.4176
-5.39793
-5.37754
-5.35642
-5.33452
-5.31182
-5.28829
-5.26388
-5.23856
-5.21229
-5.18503
-5.15674
-5.12737
-5.09687
-5.06521
-5.03231
-4.99814
-4.96262
-4.92571
-4.88733
-4.84741
-4.80589
-4.76268
-4.7177
-4.67087
-4.6221
-4.57129
-4.51834
-4.46315
-4.4056
-4.34559
-4.283
-4.21771
-4.14959
-4.07849
-4.00429
-3.92684
-3.84599
-3.76158
-3.67346
-3.58147
-3.48542
-3.38514
-3.28045
-3.17113
-3.05696
-2.93771
-2.81491
-2.69201
-2.57085
-2.45149
-2.33397
-2.21834
-2.10464
-1.9929
-1.88315
-1.77542
-1.66972
-1.56605
-1.46444
-1.36487
-1.26734
-1.17183
-1.07834
-0.986846
-0.897337
-0.809794
-0.724193
-0.640528
-0.558797
-0.478988
-0.401087
-0.32508
-0.250957
-0.178704
-0.108306
-0.0397478
0.0269897
0.0919269
0.155086
0.216493
0.276174
0.33416
0.390484
0.445182
0.498288
0.549837
0.599862
0.648399
-5.76194
-5.75172
-5.74354
-5.73496
-5.72608
-5.71693
-5.70748
-5.69773
-5.68767
-5.67728
-5.66655
-5.65547
-5.64402
-5.63219
-5.61997
-5.60734
-5.59429
-5.5808
-5.56685
-5.55243
-5.53752
-5.52209
-5.50613
-5.48961
-5.47252
-5.45482
-5.4365
-5.41752
-5.39787
-5.3775
-5.3564
-5.33453
-5.31186
-5.28835
-5.26398
-5.23869
-5.21246
-5.18524
-5.15699
-5.12767
-5.09722
-5.06561
-5.03277
-4.99866
-4.96322
-4.92639
-4.8881
-4.84828
-4.80687
-4.76378
-4.71895
-4.67228
-4.62369
-4.57307
-4.52035
-4.4654
-4.40812
-4.3484
-4.28612
-4.22117
-4.15342
-4.08273
-4.00895
-3.93195
-3.85158
-3.76766
-3.68003
-3.58853
-3.49296
-3.39317
-3.28894
-3.18009
-3.06639
-2.94758
-2.82518
-2.70264
-2.58178
-2.46266
-2.34534
-2.22985
-2.11625
-2.00456
-1.89482
-1.78706
-1.68128
-1.57751
-1.47576
-1.37603
-1.27831
-1.18261
-1.0889
-0.997185
-0.907435
-0.819638
-0.733783
-0.649864
-0.56787
-0.487787
-0.409604
-0.33331
-0.258891
-0.186339
-0.115641
-0.046781
0.0202584
0.0854969
0.148956
0.210659
0.270632
0.328904
0.385507
0.440475
0.493841
0.545643
0.595914
0.644687
-5.76189
-5.75164
-5.74346
-5.73487
-5.72597
-5.71681
-5.70735
-5.69759
-5.68752
-5.67712
-5.66638
-5.65529