/*--------------------------------*- C++ -*----------------------------------*\
  =========                 |
  \\      /  F ield         | OpenFOAM: The Open Source CFD Toolbox
   \\    /   O peration     | Website:  https://openfoam.org
    \\  /    A nd           | Version:  10
     \\/     M anipulation  |
\*---------------------------------------------------------------------------*/
FoamFile
{
    format      ascii;
    class       volScalarField;
    location    "24000";
    object      yPlus;
}
// * * * * * * * * * * * * * * * * * * * * * * * * * * * * * * * * * * * * * //

dimensions      [0 0 0 0 0 0 0];

internalField   uniform 0;

boundaryField
{
    right
    {
        type            cyclic;
    }
    left
    {
        type            cyclic;
    }
    outerWall
    {
        type            calculated;
        value           nonuniform List<scalar> 0();
    }
    stirrerWall
    {
        type            calculated;
        value           nonuniform List<scalar> 
398
(
0.279682
0.234618
0.189577
0.147017
0.109954
0.0812422
0.0614428
0.0491242
0.0419609
0.0379362
0.0357974
0.0348601
0.034739
0.0352397
0.0362476
0.0376972
0.0395415
0.0417525
0.0443013
0.0471636
0.0503209
0.0537543
0.0574274
0.0612936
0.0653383
0.0695576
0.0738649
0.0781905
0.0824809
0.0867826
0.0910197
0.0951744
0.099191
0.10301
0.106532
0.109642
0.112408
0.114793
0.116651
0.11786
0.118253
0.117803
0.116682
0.1151
0.113142
0.11108
0.109121
0.106827
0.104095
0.101061
0.0976859
0.0940375
0.0902762
0.0864202
0.0824836
0.0785062
0.0746119
0.0707262
0.0667578
0.0628116
0.0589277
0.0551591
0.0515434
0.0481086
0.0448788
0.0418705
0.0390959
0.0365654
0.0342877
0.0322726
0.0305357
0.0290977
0.0279706
0.0271042
0.026322
0.0252797
0.0234751
0.0202957
0.0149232
0.00435849
0.00435849
0.0116408
0.00482478
0.00676429
0.00775432
0.0092371
0.0104606
0.0112834
0.01169
0.0117933
0.0116551
0.0113285
0.0108607
0.0102924
0.00965954
0.00898871
0.00830347
0.00765841
0.00709208
0.00657828
0.00611493
0.00570382
0.00535311
0.00507878
0.00489948
0.00483712
0.00492099
0.00519604
0.00565285
0.00625578
0.00694701
0.00766584
0.0083702
0.00903057
0.00965033
0.0102515
0.0108741
0.0115361
0.0122928
0.0132055
0.0143158
0.0156426
0.0172822
0.0192219
0.0215927
0.02428
0.0274577
0.0310382
0.035068
0.0395754
0.0445626
0.0500394
0.0560049
0.0624575
0.0693976
0.0768318
0.0847762
0.0932573
0.102314
0.111996
0.122367
0.133502
0.145486
0.158421
0.172416
0.18759
0.20407
0.221998
0.241536
0.262825
0.286024
0.311369
0.338994
0.369159
0.402573
0.438536
0.47598
0.514871
0.555059
0.596682
0.639893
0.684144
0.728142
0.774517
0.821744
0.869097
0.916333
0.96283
1.0075
1.04943
1.08822
1.12395
1.15778
1.18944
1.21995
1.24926
1.27804
1.30653
1.33447
1.3619
1.38702
1.40929
1.42922
1.44763
1.46303
1.47279
1.47876
1.48028
1.47791
1.47223
1.46305
1.45042
1.43449
1.41435
1.39215
1.36729
1.33961
1.30988
1.27726
1.24214
1.20479
1.16946
1.135
1.09869
1.06217
1.02587
0.989892
0.954392
0.0142343
0.0278981
0.0177583
0.0135791
0.0123083
0.0126755
0.0141949
0.0170676
0.0211438
0.0265528
0.0329066
0.0381775
0.0421339
0.0445871
0.0458669
0.0462119
0.046144
0.0456289
0.0446695
0.043306
0.0416305
0.0397206
0.0376743
0.0356124
0.0336568
0.0319586
0.0307319
0.0302933
0.0314604
0.0367612
0.0467417
0.0614949
0.0789454
0.0974306
0.115186
0.131434
0.146885
0.162344
0.17767
0.193311
0.208984
0.223958
0.239526
0.25641
0.274829
0.29675
0.322145
0.348753
0.381138
0.419445
0.462743
0.515343
0.580364
0.656547
0.739186
0.826146
0.918353
1.0213
1.15265
1.35643
1.71813
2.3472
3.30764
4.57027
6.03069
7.55017
8.97687
10.1451
10.8282
10.799
9.51752
9.45742
11.3715
9.73652
11.877
11.271
10.3488
10.7117
11.4404
11.7498
11.9968
11.9074
10.2059
10.161
10.5431
11.3742
11.5341
11.7457
11.9501
12.1401
12.3106
12.4361
12.3962
11.5735
12.4284
12.0699
11.0548
11.2024
11.3735
11.6053
11.9122
11.7937
11.5254
11.6838
11.8501
12.0175
12.1856
12.3558
12.5281
12.7026
0.0142343
0.0412938
0.0593138
0.0783651
0.0870696
0.0840877
0.0851261
0.0933703
0.106703
0.122941
0.141566
0.162693
0.186284
0.212296
0.240639
0.271184
0.303762
0.338166
0.374183
0.411663
0.450709
0.492136
0.538634
0.589125
0.641195
0.694575
0.748827
0.803577
0.858484
0.91285
0.964803
1.01274
1.0608
1.10748
1.1533
1.1991
1.2476
1.29423
1.34246
1.39735
1.47076
1.53733
1.55363
1.56473
1.57233
1.57065
1.56553
1.56193
1.56341
1.5689
1.57519
1.57925
1.57942
1.57378
1.56299
1.54661
1.52088
1.48617
1.45167
1.42127
1.38467
1.3403
1.28742
1.2261
1.15666
1.07998
0.996138
0.908365
0.832225
0.773226
0.730659
0.70156
0.683191
0.669168
0.64222
0.591718
0.519046
0.444197
0.381024
0.326583
)
;
    }
    top
    {
        type            empty;
    }
    bottom
    {
        type            empty;
    }
    procBoundary1to0
    {
        type            processor;
        value           uniform 0;
    }
}


// ************************************************************************* //
