/*--------------------------------*- C++ -*----------------------------------*\
  =========                 |
  \\      /  F ield         | OpenFOAM: The Open Source CFD Toolbox
   \\    /   O peration     | Website:  https://openfoam.org
    \\  /    A nd           | Version:  10
     \\/     M anipulation  |
\*---------------------------------------------------------------------------*/
FoamFile
{
    format      ascii;
    class       volScalarField;
    location    "63000";
    object      Co;
}
// * * * * * * * * * * * * * * * * * * * * * * * * * * * * * * * * * * * * * //

dimensions      [0 0 0 0 0 0 0];

internalField   nonuniform List<scalar> 
17808
(
6963.18
6506.35
6303.33
6164.7
6058.61
5972.66
5900.26
5837.59
5782.24
5732.6
5687.54
5646.23
5608.04
5572.5
5539.23
5507.92
5478.33
5450.25
5423.52
5397.98
5373.52
5350.04
5327.45
5305.66
5284.62
5264.25
5244.51
5225.35
5206.72
5188.59
5170.93
5153.7
5136.87
5120.43
5104.34
5088.59
5073.15
5058.01
5043.15
5028.55
5014.21
5000.1
4986.21
4972.54
4959.07
4945.79
4932.69
4919.76
4906.99
4894.38
4881.92
4869.6
4857.41
4845.34
4833.4
4821.57
4809.84
4798.22
4786.69
4775.26
4763.91
4752.64
4741.44
4730.32
4719.26
4708.27
4697.33
4686.45
4675.62
4664.83
4654.08
4643.37
4632.69
4622.04
4611.42
4600.82
4590.23
4579.66
4569.09
4558.53
4547.97
4537.41
4526.84
4516.26
4505.66
4495.04
4484.39
4473.72
4463.01
4452.26
4441.46
4430.61
6749.64
6300.2
6101.37
5967.53
5866.49
5785.3
5717.23
5658.4
5606.43
5559.74
5517.26
5478.22
5442.03
5408.27
5376.58
5346.7
5318.4
5291.51
5265.86
5241.33
5217.82
5195.21
5173.44
5152.43
5132.12
5112.45
5093.38
5074.85
5056.84
5039.29
5022.2
5005.51
4989.21
4973.28
4957.69
4942.41
4927.44
4912.76
4898.34
4884.18
4870.26
4856.56
4843.09
4829.81
4816.73
4803.84
4791.12
4778.56
4766.16
4753.92
4741.81
4729.84
4718
4706.28
4694.67
4683.18
4671.79
4660.5
4649.3
4638.18
4627.16
4616.21
4605.33
4594.52
4583.78
4573.1
4562.47
4551.9
4541.37
4530.89
4520.45
4510.04
4499.67
4489.32
4479
4468.7
4458.41
4448.14
4437.88
4427.62
4417.36
4407.1
4396.83
4386.55
4376.25
4365.93
4355.59
4345.22
4334.82
4324.37
4313.88
4303.35
6553.96
6117.16
5923.14
5791.99
5692.97
5613.52
5547.15
5490.02
5439.75
5394.72
5353.85
5316.35
5281.63
5249.25
5218.87
5190.21
5163.06
5137.24
5112.6
5089.02
5066.39
5044.63
5023.66
5003.41
4983.82
4964.84
4946.42
4928.52
4911.11
4894.14
4877.6
4861.46
4845.68
4830.25
4815.14
4800.34
4785.84
4771.6
4757.62
4743.89
4730.38
4717.1
4704.02
4691.14
4678.44
4665.92
4653.57
4641.38
4629.35
4617.45
4605.7
4594.07
4582.57
4571.19
4559.91
4548.75
4537.68
4526.71
4515.83
4505.04
4494.32
4483.68
4473.12
4462.62
4452.18
4441.8
4431.48
4421.21
4410.98
4400.79
4390.65
4380.54
4370.46
4360.41
4350.38
4340.37
4330.38
4320.4
4310.43
4300.46
4290.49
4280.52
4270.55
4260.56
4250.56
4240.54
4230.49
4220.42
4210.31
4200.16
4189.97
4179.74
6363.85
5939.29
5750.69
5623.25
5526.96
5449.63
5384.99
5329.37
5280.45
5236.69
5197.02
5160.67
5127.06
5095.76
5066.41
5038.75
5012.56
4987.66
4963.91
4941.17
4919.36
4898.38
4878.15
4858.61
4839.7
4821.38
4803.59
4786.3
4769.47
4753.07
4737.07
4721.45
4706.18
4691.24
4676.61
4662.28
4648.22
4634.43
4620.88
4607.56
4594.47
4581.58
4568.89
4556.4
4544.08
4531.93
4519.94
4508.11
4496.43
4484.88
4473.47
4462.18
4451.01
4439.95
4429
4418.16
4407.41
4396.76
4386.19
4375.7
4365.29
4354.96
4344.69
4334.49
4324.35
4314.27
4304.24
4294.26
4284.32
4274.43
4264.57
4254.75
4244.96
4235.19
4225.45
4215.73
4206.02
4196.32
4186.64
4176.95
4167.27
4157.59
4147.9
4138.19
4128.48
4118.74
4108.98
4099.19
4089.38
4079.52
4069.62
4059.68
6179.66
5766.82
5583.11
5459.13
5365.51
5290.38
5227.61
5173.62
5126.15
5083.71
5045.25
5010.03
4977.48
4947.17
4918.77
4892.02
4866.7
4842.64
4819.69
4797.73
4776.67
4756.4
4736.86
4717.99
4699.72
4682.02
4664.83
4648.11
4631.84
4615.98
4600.51
4585.4
4570.62
4556.16
4542
4528.12
4514.5
4501.13
4488
4475.1
4462.4
4449.91
4437.61
4425.48
4413.54
4401.75
4390.12
4378.64
4367.29
4356.09
4345.01
4334.05
4323.2
4312.47
4301.84
4291.3
4280.87
4270.52
4260.25
4250.07
4239.96
4229.92
4219.95
4210.04
4200.19
4190.39
4180.65
4170.95
4161.3
4151.69
4142.11
4132.57
4123.06
4113.57
4104.11
4094.66
4085.23
4075.81
4066.4
4056.99
4047.59
4038.18
4028.76
4019.34
4009.9
4000.44
3990.96
3981.45
3971.92
3962.34
3952.73
3943.07
6001.3
5600.16
5421.34
5300.7
5209.57
5136.47
5075.42
5022.94
4976.82
4935.61
4898.29
4864.13
4832.57
4803.2
4775.7
4749.8
4725.29
4702.01
4679.81
4658.57
4638.19
4618.6
4599.71
4581.46
4563.8
4546.68
4530.06
4513.89
4498.15
4482.81
4467.84
4453.22
4438.92
4424.92
4411.21
4397.77
4384.58
4371.63
4358.9
4346.4
4334.09
4321.98
4310.05
4298.3
4286.71
4275.27
4263.99
4252.85
4241.84
4230.97
4220.21
4209.57
4199.05
4188.62
4178.3
4168.08
4157.94
4147.89
4137.92
4128.03
4118.21
4108.46
4098.78
4089.15
4079.58
4070.07
4060.6
4051.19
4041.81
4032.47
4023.17
4013.9
4004.66
3995.44
3986.25
3977.07
3967.91
3958.76
3949.61
3940.48
3931.34
3922.2
3913.05
3903.9
3894.73
3885.54
3876.33
3867.09
3857.83
3848.53
3839.19
3829.81
5828.33
5438.66
5264.8
5147.51
5058.87
4987.76
4928.37
4877.32
4832.46
4792.39
4756.12
4722.93
4692.29
4663.78
4637.1
4611.98
4588.22
4565.66
4544.15
4523.58
4503.85
4484.88
4466.59
4448.93
4431.84
4415.27
4399.19
4383.55
4368.32
4353.47
4338.98
4324.82
4310.98
4297.42
4284.15
4271.13
4258.35
4245.81
4233.48
4221.36
4209.43
4197.69
4186.13
4174.73
4163.49
4152.4
4141.46
4130.65
4119.97
4109.41
4098.98
4088.65
4078.43
4068.32
4058.3
4048.37
4038.53
4028.77
4019.09
4009.49
3999.95
3990.48
3981.07
3971.73
3962.43
3953.19
3944
3934.85
3925.74
3916.67
3907.63
3898.63
3889.65
3880.7
3871.77
3862.85
3853.95
3845.06
3836.18
3827.3
3818.43
3809.55
3800.67
3791.77
3782.86
3773.94
3764.99
3756.02
3747.02
3737.98
3728.91
3719.8
5660.46
5281.95
5112.96
4998.96
4912.78
4843.65
4785.91
4736.26
4692.65
4653.69
4618.43
4586.17
4556.39
4528.7
4502.79
4478.4
4455.34
4433.45
4412.59
4392.65
4373.52
4355.14
4337.42
4320.31
4303.76
4287.71
4272.13
4256.98
4242.24
4227.86
4213.83
4200.12
4186.71
4173.58
4160.72
4148.11
4135.73
4123.58
4111.63
4099.89
4088.33
4076.95
4065.74
4054.68
4043.79
4033.03
4022.42
4011.93
4001.57
3991.33
3981.2
3971.19
3961.27
3951.45
3941.72
3932.09
3922.53
3913.06
3903.66
3894.33
3885.07
3875.88
3866.74
3857.66
3848.64
3839.66
3830.73
3821.85
3813
3804.19
3795.41
3786.67
3777.95
3769.25
3760.57
3751.91
3743.27
3734.63
3726
3717.38
3708.76
3700.13
3691.5
3682.86
3674.21
3665.54
3656.85
3648.13
3639.39
3630.61
3621.8
3612.95
5497.5
5129.84
4965.61
4854.8
4771.04
4703.84
4647.71
4599.45
4557.05
4519.18
4484.91
4453.56
4424.62
4397.72
4372.55
4348.87
4326.48
4305.23
4284.98
4265.63
4247.08
4229.25
4212.07
4195.48
4179.43
4163.88
4148.78
4134.11
4119.82
4105.89
4092.29
4079.01
4066.02
4053.3
4040.84
4028.62
4016.63
4004.85
3993.27
3981.89
3970.69
3959.65
3948.78
3938.07
3927.5
3917.07
3906.77
3896.61
3886.56
3876.62
3866.8
3857.07
3847.45
3837.92
3828.48
3819.13
3809.85
3800.66
3791.53
3782.48
3773.49
3764.56
3755.69
3746.87
3738.1
3729.39
3720.72
3712.09
3703.49
3694.94
3686.41
3677.91
3669.44
3661
3652.57
3644.16
3635.76
3627.37
3618.99
3610.61
3602.24
3593.86
3585.47
3577.08
3568.68
3560.25
3551.81
3543.35
3534.85
3526.33
3517.77
3509.17
5339.29
4982.17
4822.59
4714.91
4633.5
4568.19
4513.63
4466.72
4425.51
4388.71
4355.4
4324.93
4296.81
4270.67
4246.22
4223.21
4201.47
4180.83
4161.18
4142.39
4124.39
4107.09
4090.42
4074.33
4058.77
4043.68
4029.05
4014.81
4000.96
3987.46
3974.28
3961.41
3948.82
3936.49
3924.41
3912.57
3900.95
3889.53
3878.31
3867.27
3856.41
3845.72
3835.18
3824.79
3814.54
3804.43
3794.44
3784.58
3774.83
3765.19
3755.66
3746.22
3736.89
3727.64
3718.48
3709.4
3700.4
3691.47
3682.61
3673.82
3665.09
3656.42
3647.81
3639.25
3630.74
3622.27
3613.85
3605.47
3597.12
3588.81
3580.53
3572.28
3564.05
3555.85
3547.66
3539.49
3531.33
3523.19
3515.04
3506.91
3498.77
3490.63
3482.49
3474.34
3466.17
3457.99
3449.79
3441.57
3433.32
3425.04
3416.72
3408.37
5185.67
4838.81
4683.77
4579.14
4500.02
4436.56
4383.53
4337.94
4297.89
4262.12
4229.74
4200.13
4172.81
4147.41
4123.65
4101.3
4080.18
4060.13
4041.05
4022.81
4005.33
3988.53
3972.35
3956.74
3941.64
3927.01
3912.81
3899
3885.57
3872.47
3859.7
3847.21
3835
3823.05
3811.35
3799.86
3788.6
3777.53
3766.65
3755.95
3745.42
3735.05
3724.83
3714.75
3704.81
3695
3685.32
3675.75
3666.3
3656.95
3647.7
3638.55
3629.48
3620.51
3611.62
3602.81
3594.07
3585.41
3576.81
3568.27
3559.8
3551.38
3543.02
3534.71
3526.45
3518.23
3510.05
3501.91
3493.8
3485.73
3477.69
3469.68
3461.68
3453.72
3445.76
3437.83
3429.9
3421.99
3414.08
3406.18
3398.28
3390.37
3382.46
3374.54
3366.61
3358.66
3350.7
3342.71
3334.69
3326.65
3318.57
3310.46
5036.51
4699.61
4549
4447.32
4370.45
4308.78
4257.26
4212.95
4174.03
4139.27
4107.8
4079.03
4052.47
4027.79
4004.7
3982.99
3962.47
3943
3924.46
3906.75
3889.77
3873.46
3857.76
3842.6
3827.94
3813.74
3799.96
3786.57
3773.54
3760.83
3748.44
3736.33
3724.49
3712.9
3701.54
3690.41
3679.48
3668.75
3658.2
3647.82
3637.61
3627.55
3617.64
3607.87
3598.23
3588.72
3579.32
3570.04
3560.87
3551.8
3542.83
3533.95
3525.16
3516.45
3507.82
3499.27
3490.79
3482.38
3474.03
3465.75
3457.52
3449.35
3441.23
3433.16
3425.14
3417.16
3409.22
3401.31
3393.44
3385.61
3377.8
3370.01
3362.25
3354.51
3346.79
3339.08
3331.39
3323.7
3316.02
3308.34
3300.66
3292.99
3285.3
3277.61
3269.91
3262.19
3254.45
3246.69
3238.9
3231.09
3223.25
3215.36
4891.66
4564.44
4418.13
4319.35
4244.65
4184.73
4134.67
4091.62
4053.8
4020.02
3989.44
3961.48
3935.68
3911.7
3889.26
3868.16
3848.23
3829.31
3811.3
3794.1
3777.61
3761.77
3746.52
3731.81
3717.58
3703.79
3690.41
3677.42
3664.77
3652.44
3640.41
3628.67
3617.18
3605.93
3594.92
3584.12
3573.52
3563.11
3552.87
3542.81
3532.9
3523.15
3513.54
3504.06
3494.71
3485.48
3476.37
3467.37
3458.47
3449.67
3440.96
3432.35
3423.82
3415.37
3407
3398.7
3390.47
3382.3
3374.2
3366.16
3358.18
3350.25
3342.36
3334.53
3326.74
3318.99
3311.28
3303.6
3295.96
3288.35
3280.77
3273.21
3265.67
3258.15
3250.65
3243.17
3235.69
3228.23
3220.77
3213.31
3205.85
3198.4
3190.93
3183.46
3175.98
3168.48
3160.96
3153.43
3145.86
3138.28
3130.65
3123
4751
4433.18
4291.06
4195.08
4122.51
4064.3
4015.66
3973.83
3937.08
3904.25
3874.54
3847.37
3822.3
3799
3777.2
3756.7
3737.33
3718.96
3701.46
3684.75
3668.73
3653.35
3638.54
3624.25
3610.43
3597.05
3584.06
3571.44
3559.16
3547.2
3535.52
3524.12
3512.98
3502.07
3491.38
3480.9
3470.61
3460.51
3450.59
3440.82
3431.21
3421.75
3412.43
3403.23
3394.16
3385.21
3376.37
3367.64
3359
3350.46
3342.02
3333.66
3325.38
3317.18
3309.06
3301
3293.02
3285.09
3277.23
3269.43
3261.68
3253.98
3246.33
3238.72
3231.16
3223.63
3216.15
3208.69
3201.27
3193.88
3186.52
3179.18
3171.86
3164.56
3157.27
3150
3142.74
3135.49
3128.25
3121.01
3113.76
3106.52
3099.27
3092.01
3084.74
3077.46
3070.16
3062.84
3055.5
3048.12
3040.72
3033.29
4614.4
4305.72
4167.67
4074.42
4003.92
3947.36
3900.1
3859.46
3823.75
3791.86
3762.99
3736.59
3712.23
3689.59
3668.41
3648.49
3629.68
3611.83
3594.83
3578.59
3563.04
3548.1
3533.71
3519.83
3506.41
3493.41
3480.8
3468.55
3456.63
3445.01
3433.68
3422.62
3411.8
3401.21
3390.83
3380.66
3370.68
3360.88
3351.25
3341.78
3332.45
3323.27
3314.22
3305.3
3296.5
3287.82
3279.24
3270.77
3262.39
3254.11
3245.91
3237.8
3229.77
3221.81
3213.93
3206.11
3198.36
3190.67
3183.04
3175.46
3167.94
3160.47
3153.04
3145.66
3138.31
3131.01
3123.74
3116.51
3109.3
3102.12
3094.97
3087.85
3080.74
3073.65
3066.57
3059.51
3052.46
3045.42
3038.38
3031.35
3024.32
3017.28
3010.24
3003.19
2996.13
2989.06
2981.97
2974.85
2967.72
2960.56
2953.37
2946.15
4481.74
4181.93
4047.84
3957.25
3888.76
3833.8
3787.89
3748.41
3713.72
3682.73
3654.69
3629.03
3605.37
3583.37
3562.79
3543.44
3525.16
3507.81
3491.3
3475.53
3460.42
3445.9
3431.93
3418.45
3405.42
3392.79
3380.55
3368.65
3357.07
3345.8
3334.79
3324.05
3313.55
3303.27
3293.2
3283.33
3273.64
3264.13
3254.78
3245.59
3236.54
3227.63
3218.85
3210.2
3201.66
3193.23
3184.91
3176.68
3168.55
3160.52
3152.56
3144.69
3136.9
3129.18
3121.53
3113.94
3106.42
3098.96
3091.55
3084.2
3076.89
3069.64
3062.43
3055.26
3048.13
3041.04
3033.98
3026.96
3019.96
3013
3006.05
2999.13
2992.23
2985.34
2978.48
2971.62
2964.77
2957.93
2951.1
2944.27
2937.44
2930.6
2923.76
2916.92
2910.06
2903.19
2896.3
2889.39
2882.46
2875.51
2868.53
2861.51
4352.9
4061.71
3931.47
3843.46
3776.92
3723.54
3678.93
3640.57
3606.87
3576.77
3549.52
3524.6
3501.6
3480.23
3460.24
3441.44
3423.68
3406.83
3390.79
3375.46
3360.78
3346.68
3333.11
3320.02
3307.36
3295.1
3283.2
3271.65
3260.41
3249.46
3238.77
3228.34
3218.14
3208.17
3198.39
3188.81
3179.41
3170.17
3161.1
3152.18
3143.39
3134.75
3126.23
3117.83
3109.54
3101.36
3093.28
3085.3
3077.42
3069.61
3061.9
3054.26
3046.69
3039.2
3031.77
3024.41
3017.11
3009.87
3002.68
2995.54
2988.46
2981.41
2974.41
2967.46
2960.54
2953.65
2946.8
2939.98
2933.19
2926.42
2919.68
2912.96
2906.26
2899.57
2892.9
2886.24
2879.6
2872.95
2866.32
2859.68
2853.05
2846.41
2839.77
2833.12
2826.46
2819.79
2813.1
2806.39
4227.78
3944.95
3818.45
3732.96
3668.32
3616.46
3573.12
3535.86
3503.12
3473.87
3447.4
3423.19
3400.85
3380.08
3360.66
3342.4
3325.14
3308.77
3293.19
3278.3
3264.04
3250.34
3237.16
3224.44
3212.14
3200.23
3188.68
3177.46
3166.54
3155.91
3145.54
3135.41
3125.5
3115.81
3106.32
3097.02
3087.89
3078.93
3070.12
3061.46
3052.94
3044.54
3036.27
3028.12
3020.08
3012.14
3004.3
2996.55
2988.9
2981.33
2973.84
2966.42
2959.08
2951.81
2944.6
2937.46
2930.37
2923.34
2916.36
2909.43
2902.55
2895.72
2888.92
2882.17
2875.45
2868.77
2862.12
2855.5
2848.9
2842.33
2835.79
2829.26
2822.75
2816.26
2809.79
2803.32
2796.86
2790.41
2783.97
2777.52
2771.08
2764.64
2758.18
2751.73
2745.26
2738.78
2732.28
2725.76
4106.26
3831.56
3708.69
3625.65
3562.85
3512.47
3470.37
3434.17
3402.36
3373.95
3348.23
3324.71
3303.01
3282.84
3263.97
3246.22
3229.46
3213.56
3198.42
3183.96
3170.1
3156.8
3143.99
3131.63
3119.69
3108.12
3096.9
3086
3075.4
3065.07
3055
3045.16
3035.54
3026.14
3016.92
3007.89
2999.02
2990.32
2981.77
2973.36
2965.09
2956.94
2948.91
2940.99
2933.19
2925.48
2917.87
2910.36
2902.92
2895.58
2888.31
2881.11
2873.98
2866.93
2859.93
2853
2846.12
2839.29
2832.52
2825.8
2819.12
2812.48
2805.89
2799.33
2792.81
2786.32
2779.86
2773.43
2767.03
2760.65
2754.3
2747.96
2741.64
2735.34
2729.05
2722.77
2716.5
2710.24
2703.98
2697.72
2691.47
2685.21
2678.94
2672.67
2666.39
2660.09
2653.78
2647.45
3988.24
3721.44
3602.1
3521.43
3460.42
3411.48
3370.59
3335.42
3304.52
3276.92
3251.94
3229.09
3208
3188.4
3170.07
3152.83
3136.55
3121.1
3106.39
3092.34
3078.88
3065.96
3053.52
3041.51
3029.91
3018.68
3007.78
2997.19
2986.89
2976.86
2967.08
2957.52
2948.19
2939.05
2930.1
2921.33
2912.72
2904.27
2895.97
2887.81
2879.77
2871.86
2864.07
2856.38
2848.8
2841.32
2833.94
2826.64
2819.43
2812.29
2805.24
2798.25
2791.33
2784.48
2777.69
2770.96
2764.29
2757.66
2751.09
2744.56
2738.08
2731.63
2725.23
2718.87
2712.54
2706.24
2699.97
2693.73
2687.51
2681.32
2675.15
2669
2662.86
2656.74
2650.63
2644.54
2638.45
2632.37
2626.29
2620.21
2614.14
2608.06
2601.97
2595.88
2589.78
3873.61
3614.48
3498.57
3420.21
3360.95
3313.41
3273.68
3239.52
3209.5
3182.69
3158.42
3136.22
3115.74
3096.7
3078.89
3062.14
3046.32
3031.31
3017.03
3003.38
2990.3
2977.75
2965.66
2954
2942.73
2931.82
2921.23
2910.95
2900.95
2891.2
2881.7
2872.42
2863.35
2854.48
2845.79
2837.27
2828.91
2820.71
2812.65
2804.72
2796.92
2789.24
2781.67
2774.21
2766.85
2759.59
2752.42
2745.33
2738.33
2731.41
2724.56
2717.78
2711.06
2704.41
2697.82
2691.28
2684.8
2678.37
2671.99
2665.65
2659.36
2653.11
2646.89
2640.71
2634.57
2628.45
2622.37
2616.31
2610.27
2604.26
2598.27
2592.3
2586.34
2580.4
2574.47
2568.55
2562.63
2556.73
2550.83
2544.92
2539.02
2533.12
2527.21
2521.29
2515.37
3762.29
3510.61
3398.02
3321.91
3264.35
3218.16
3179.57
3146.38
3117.22
3091.17
3067.6
3046.03
3026.14
3007.64
2990.34
2974.07
2958.7
2944.12
2930.24
2916.99
2904.29
2892.09
2880.35
2869.02
2858.07
2847.47
2837.19
2827.2
2817.49
2808.02
2798.79
2789.78
2780.97
2772.35
2763.91
2755.64
2747.52
2739.56
2731.73
2724.03
2716.45
2709
2701.65
2694.4
2687.26
2680.21
2673.25
2666.37
2659.57
2652.85
2646.2
2639.61
2633.1
2626.64
2620.24
2613.9
2607.61
2601.36
2595.17
2589.02
2582.91
2576.84
2570.8
2564.8
2558.84
2552.9
2546.99
2541.11
2535.25
2529.41
2523.6
2517.8
2512.01
2506.24
2500.48
2494.74
2488.99
2483.26
2477.53
2471.8
2466.07
2460.33
2454.6
2448.85
2443.09
3654.16
3409.72
3300.37
3226.44
3170.52
3125.65
3088.17
3055.93
3027.6
3002.3
2979.4
2958.45
2939.12
2921.15
2904.35
2888.54
2873.61
2859.45
2845.97
2833.09
2820.75
2808.9
2797.5
2786.5
2775.86
2765.56
2755.58
2745.87
2736.43
2727.24
2718.28
2709.52
2700.97
2692.6
2684.4
2676.37
2668.48
2660.75
2653.14
2645.67
2638.31
2631.07
2623.93
2616.9
2609.96
2603.12
2596.36
2589.68
2583.08
2576.55
2570.09
2563.7
2557.37
2551.11
2544.89
2538.73
2532.63
2526.57
2520.55
2514.58
2508.65
2502.75
2496.9
2491.07
2485.28
2479.52
2473.78
2468.07
2462.38
2456.71
2451.06
2445.43
2439.82
2434.22
2428.62
2423.04
2417.47
2411.9
2406.33
2400.77
2395.2
2389.64
2384.06
2378.48
2372.89
3549.15
3311.74
3205.53
3133.72
3079.4
3035.81
2999.4
2968.08
2940.57
2915.99
2893.74
2873.39
2854.61
2837.16
2820.84
2805.48
2790.98
2777.22
2764.12
2751.61
2739.63
2728.12
2717.04
2706.35
2696.02
2686.02
2676.32
2666.89
2657.72
2648.79
2640.09
2631.58
2623.27
2615.15
2607.18
2599.38
2591.72
2584.21
2576.82
2569.56
2562.42
2555.39
2548.46
2541.63
2534.89
2528.24
2521.68
2515.2
2508.79
2502.45
2496.18
2489.97
2483.83
2477.74
2471.71
2465.73
2459.8
2453.92
2448.08
2442.28
2436.52
2430.8
2425.11
2419.46
2413.84
2408.24
2402.67
2397.13
2391.6
2386.1
2380.62
2375.15
2369.7
2364.26
2358.83
2353.41
2347.99
2342.59
2337.18
2331.78
2326.38
2320.97
2315.56
2310.14
2304.71
3447.16
3216.57
3113.42
3043.66
2990.9
2948.56
2913.19
2882.77
2856.04
2832.16
2810.55
2790.78
2772.54
2755.59
2739.73
2724.82
2710.73
2697.36
2684.64
2672.49
2660.84
2649.66
2638.9
2628.52
2618.48
2608.77
2599.34
2590.19
2581.28
2572.61
2564.15
2555.89
2547.82
2539.93
2532.19
2524.61
2517.18
2509.88
2502.71
2495.66
2488.72
2481.89
2475.16
2468.53
2461.99
2455.53
2449.16
2442.86
2436.64
2430.48
2424.39
2418.37
2412.4
2406.49
2400.64
2394.83
2389.07
2383.36
2377.69
2372.06
2366.47
2360.92
2355.39
2349.9
2344.44
2339.01
2333.6
2328.22
2322.86
2317.51
2312.19
2306.88
2301.59
2296.3
2291.03
2285.77
2280.51
2275.26
2270.02
2264.77
2259.52
2254.27
2249.01
2243.75
2238.48
3348.1
3124.14
3023.95
2956.2
2904.95
2863.82
2829.46
2799.91
2773.94
2750.75
2729.76
2710.56
2692.84
2676.37
2660.96
2646.48
2632.79
2619.81
2607.45
2595.64
2584.33
2573.47
2563.02
2552.93
2543.19
2533.75
2524.59
2515.7
2507.05
2498.62
2490.41
2482.39
2474.55
2466.88
2459.37
2452
2444.78
2437.69
2430.73
2423.88
2417.14
2410.51
2403.97
2397.53
2391.18
2384.91
2378.72
2372.61
2366.56
2360.59
2354.67
2348.82
2343.03
2337.29
2331.61
2325.97
2320.38
2314.83
2309.33
2303.86
2298.43
2293.04
2287.68
2282.35
2277.04
2271.77
2266.52
2261.29
2256.09
2250.9
2245.73
2240.57
2235.43
2230.3
2225.19
2220.07
2214.97
2209.87
2204.78
2199.68
2194.59
2189.49
2184.38
2179.27
2174.15
3251.89
3034.37
2937.06
2871.25
2821.47
2781.52
2748.14
2719.43
2694.21
2671.68
2651.29
2632.64
2615.43
2599.43
2584.47
2570.39
2557.1
2544.49
2532.48
2521.01
2510.03
2499.48
2489.32
2479.53
2470.06
2460.89
2452
2443.36
2434.96
2426.77
2418.79
2411
2403.38
2395.93
2388.64
2381.49
2374.47
2367.59
2360.82
2354.17
2347.63
2341.19
2334.84
2328.58
2322.41
2316.32
2310.31
2304.37
2298.51
2292.7
2286.96
2281.28
2275.66
2270.08
2264.56
2259.09
2253.66
2248.27
2242.93
2237.62
2232.35
2227.11
2221.91
2216.73
2211.58
2206.46
2201.36
2196.29
2191.23
2186.19
2181.17
2176.17
2171.18
2166.2
2161.23
2156.27
2151.31
2146.36
2141.41
2136.46
2131.51
2126.56
2121.6
2116.64
2111.67
3158.45
2947.18
2852.67
2788.75
2740.39
2701.59
2669.16
2641.28
2616.78
2594.89
2575.08
2556.96
2540.25
2524.71
2510.17
2496.5
2483.59
2471.34
2459.67
2448.53
2437.86
2427.62
2417.75
2408.23
2399.04
2390.13
2381.49
2373.1
2364.94
2356.99
2349.24
2341.67
2334.27
2327.04
2319.95
2313
2306.19
2299.5
2292.93
2286.47
2280.12
2273.86
2267.69
2261.62
2255.63
2249.71
2243.88
2238.11
2232.41
2226.77
2221.2
2215.68
2210.22
2204.81
2199.45
2194.13
2188.86
2183.63
2178.44
2173.28
2168.17
2163.08
2158.03
2153
2148
2143.03
2138.08
2133.15
2128.24
2123.35
2118.47
2113.61
2108.77
2103.93
2099.11
2094.29
2089.48
2084.67
2079.86
2075.06
2070.25
2065.44
2060.63
2055.81
2050.98
3067.69
2862.5
2770.7
2708.62
2661.65
2623.95
2592.46
2565.37
2541.57
2520.31
2501.07
2483.47
2467.23
2452.14
2438.02
2424.74
2412.19
2400.29
2388.96
2378.14
2367.78
2357.82
2348.24
2339
2330.06
2321.41
2313.02
2304.87
2296.94
2289.22
2281.69
2274.34
2267.15
2260.12
2253.24
2246.49
2239.88
2233.38
2227
2220.72
2214.55
2208.47
2202.48
2196.58
2190.76
2185.02
2179.35
2173.75
2168.22
2162.74
2157.33
2151.97
2146.66
2141.41
2136.2
2131.04
2125.92
2120.84
2115.8
2110.8
2105.83
2100.89
2095.98
2091.1
2086.25
2081.42
2076.61
2071.83
2067.06
2062.31
2057.58
2052.86
2048.15
2043.45
2038.77
2034.09
2029.42
2024.75
2020.08
2015.42
2010.75
2006.08
2001.4
1996.72
1992.03
2979.54
2780.25
2691.09
2630.79
2585.17
2548.55
2517.96
2491.64
2468.53
2447.88
2429.19
2412.09
2396.32
2381.65
2367.94
2355.04
2342.85
2331.29
2320.29
2309.78
2299.71
2290.04
2280.73
2271.75
2263.07
2254.67
2246.52
2238.6
2230.9
2223.4
2216.08
2208.94
2201.96
2195.14
2188.45
2181.9
2175.47
2169.16
2162.96
2156.87
2150.87
2144.97
2139.15
2133.42
2127.77
2122.19
2116.68
2111.24
2105.87
2100.55
2095.3
2090.09
2084.94
2079.84
2074.78
2069.77
2064.8
2059.86
2054.97
2050.11
2045.28
2040.49
2035.72
2030.98
2026.27
2021.58
2016.91
2012.26
2007.63
2003.02
1998.43
1993.84
1989.27
1984.71
1980.16
1975.62
1971.08
1966.55
1962.02
1957.49
1952.95
1948.42
1943.88
1939.33
1934.78
2893.92
2700.37
2613.77
2555.2
2510.88
2475.32
2445.6
2420.04
2397.59
2377.53
2359.37
2342.76
2327.44
2313.2
2299.88
2287.35
2275.51
2264.28
2253.59
2243.38
2233.6
2224.21
2215.17
2206.44
2198.01
2189.85
2181.93
2174.24
2166.76
2159.48
2152.37
2145.43
2138.66
2132.02
2125.53
2119.16
2112.92
2106.79
2100.77
2094.85
2089.03
2083.29
2077.64
2072.08
2066.59
2061.17
2055.82
2050.54
2045.32
2040.16
2035.05
2029.99
2024.99
2020.03
2015.12
2010.26
2005.43
2000.64
1995.88
1991.16
1986.48
1981.82
1977.19
1972.59
1968.01
1963.46
1958.93
1954.41
1949.92
1945.44
1940.98
1936.53
1932.09
1927.66
1923.24
1918.83
1914.42
1910.02
1905.62
1901.22
1896.82
1892.42
1888.01
1883.59
1879.17
2810.77
2622.78
2538.67
2481.78
2438.74
2404.19
2375.32
2350.5
2328.69
2309.2
2291.56
2275.43
2260.55
2246.71
2233.77
2221.6
2210.11
2199.2
2188.82
2178.9
2169.4
2160.27
2151.49
2143.02
2134.83
2126.9
2119.21
2111.74
2104.47
2097.39
2090.49
2083.75
2077.17
2070.73
2064.42
2058.24
2052.17
2046.22
2040.37
2034.62
2028.96
2023.39
2017.91
2012.5
2007.17
2001.91
1996.71
1991.58
1986.51
1981.5
1976.54
1971.63
1966.77
1961.95
1957.18
1952.46
1947.77
1943.12
1938.5
1933.92
1929.36
1924.84
1920.35
1915.88
1911.43
1907.01
1902.61
1898.23
1893.86
1889.51
1885.18
1880.86
1876.55
1872.25
1867.96
1863.67
1859.39
1855.12
1850.84
1846.57
1842.3
1838.02
1833.74
1829.45
1825.16
2730
2547.42
2465.73
2410.48
2368.67
2335.11
2307.07
2282.96
2261.77
2242.84
2225.71
2210.04
2195.58
2182.14
2169.57
2157.75
2146.58
2135.99
2125.9
2116.27
2107.04
2098.18
2089.65
2081.42
2073.46
2065.76
2058.29
2051.03
2043.97
2037.1
2030.39
2023.85
2017.45
2011.2
2005.07
1999.06
1993.17
1987.39
1981.71
1976.12
1970.63
1965.22
1959.89
1954.64
1949.46
1944.35
1939.3
1934.32
1929.39
1924.52
1919.71
1914.94
1910.22
1905.54
1900.91
1896.32
1891.77
1887.25
1882.76
1878.31
1873.89
1869.5
1865.14
1860.8
1856.48
1852.18
1847.91
1843.65
1839.41
1835.19
1830.98
1826.79
1822.6
1818.42
1814.26
1810.1
1805.94
1801.79
1797.64
1793.49
1789.34
1785.19
1781.03
1776.86
1772.69
2651.56
2474.23
2394.89
2341.22
2300.61
2268.02
2240.78
2217.36
2196.77
2178.39
2161.75
2146.53
2132.48
2119.43
2107.22
2095.74
2084.89
2074.6
2064.8
2055.44
2046.48
2037.87
2029.58
2021.59
2013.86
2006.38
1999.12
1992.07
1985.22
1978.54
1972.03
1965.67
1959.46
1953.38
1947.43
1941.59
1935.87
1930.25
1924.73
1919.31
1913.97
1908.72
1903.54
1898.44
1893.41
1888.45
1883.55
1878.7
1873.92
1869.19
1864.51
1859.88
1855.3
1850.76
1846.26
1841.8
1837.37
1832.99
1828.63
1824.31
1820.02
1815.75
1811.51
1807.3
1803.1
1798.93
1794.78
1790.65
1786.53
1782.43
1778.34
1774.27
1770.2
1766.15
1762.1
1758.06
1754.02
1749.99
1745.96
1741.93
1737.9
1733.87
1729.83
1725.79
1721.74
2575.37
2403.15
2326.08
2273.96
2234.51
2202.85
2176.4
2153.64
2133.65
2115.79
2099.63
2084.84
2071.2
2058.52
2046.66
2035.5
2024.97
2014.97
2005.45
1996.36
1987.66
1979.29
1971.24
1963.48
1955.97
1948.7
1941.66
1934.81
1928.15
1921.66
1915.34
1909.16
1903.13
1897.22
1891.44
1885.78
1880.22
1874.76
1869.4
1864.13
1858.95
1853.84
1848.82
1843.86
1838.97
1834.15
1829.39
1824.69
1820.04
1815.45
1810.91
1806.41
1801.96
1797.55
1793.18
1788.84
1784.55
1780.29
1776.06
1771.86
1767.69
1763.55
1759.43
1755.34
1751.26
1747.21
1743.18
1739.17
1735.17
1731.19
1727.22
1723.26
1719.31
1715.37
1711.44
1707.52
1703.6
1699.68
1695.77
1691.86
1687.94
1684.02
1680.1
1676.18
1672.24
2501.37
2334.1
2259.26
2208.63
2170.32
2139.57
2113.87
2091.77
2072.35
2055
2039.29
2024.93
2011.68
1999.36
1987.84
1977.01
1966.77
1957.06
1947.82
1938.99
1930.53
1922.41
1914.59
1907.04
1899.75
1892.69
1885.85
1879.2
1872.73
1866.43
1860.28
1854.28
1848.42
1842.69
1837.07
1831.57
1826.17
1820.87
1815.66
1810.54
1805.51
1800.55
1795.67
1790.85
1786.11
1781.42
1776.8
1772.23
1767.72
1763.26
1758.84
1754.47
1750.15
1745.87
1741.62
1737.41
1733.24
1729.1
1725
1720.92
1716.87
1712.84
1708.84
1704.87
1700.91
1696.98
1693.06
1689.17
1685.28
1681.42
1677.56
1673.72
1669.88
1666.06
1662.24
1658.43
1654.62
1650.82
1647.02
1643.22
1639.42
1635.61
1631.8
1627.99
2429.5
2267.04
2194.35
2145.17
2107.97
2078.1
2053.15
2031.68
2012.82
1995.96
1980.71
1966.76
1953.88
1941.91
1930.72
1920.19
1910.25
1900.82
1891.84
1883.26
1875.04
1867.15
1859.56
1852.23
1845.15
1838.29
1831.64
1825.18
1818.9
1812.78
1806.81
1800.98
1795.29
1789.72
1784.26
1778.91
1773.67
1768.52
1763.46
1758.49
1753.6
1748.79
1744.04
1739.37
1734.76
1730.21
1725.72
1721.28
1716.9
1712.56
1708.28
1704.03
1699.83
1695.67
1691.55
1687.46
1683.41
1679.39
1675.4
1671.44
1667.51
1663.6
1659.71
1655.85
1652.01
1648.19
1644.39
1640.6
1636.83
1633.07
1629.33
1625.6
1621.87
1618.16
1614.45
1610.75
1607.05
1603.36
1599.67
1595.98
1592.29
1588.59
1584.89
1581.19
2359.69
2201.91
2131.3
2083.55
2047.41
2018.41
1994.16
1973.31
1954.99
1938.63
1923.81
1910.26
1897.75
1886.13
1875.25
1865.03
1855.37
1846.2
1837.48
1829.14
1821.16
1813.49
1806.11
1799
1792.12
1785.46
1778.99
1772.72
1766.62
1760.67
1754.87
1749.21
1743.68
1738.27
1732.97
1727.78
1722.69
1717.68
1712.77
1707.94
1703.19
1698.51
1693.91
1689.36
1684.89
1680.47
1676.11
1671.8
1667.54
1663.33
1659.16
1655.04
1650.96
1646.92
1642.92
1638.95
1635.01
1631.11
1627.23
1623.39
1619.57
1615.77
1612
1608.25
1604.52
1600.81
1597.11
1593.43
1589.77
1586.12
1582.49
1578.86
1575.25
1571.64
1568.04
1564.44
1560.85
1557.26
1553.68
1550.09
1546.51
1542.92
1539.33
1535.73
2291.89
2138.65
2070.08
2023.69
1988.6
1960.42
1936.88
1916.63
1898.83
1882.93
1868.55
1855.38
1843.24
1831.95
1821.39
1811.46
1802.07
1793.17
1784.69
1776.6
1768.85
1761.4
1754.23
1747.31
1740.63
1734.15
1727.88
1721.78
1715.85
1710.07
1704.43
1698.94
1693.56
1688.31
1683.16
1678.11
1673.17
1668.31
1663.54
1658.85
1654.23
1649.69
1645.21
1640.8
1636.45
1632.16
1627.92
1623.74
1619.6
1615.51
1611.46
1607.46
1603.5
1599.57
1595.68
1591.83
1588.01
1584.21
1580.45
1576.71
1573
1569.32
1565.65
1562.01
1558.39
1554.78
1551.19
1547.62
1544.07
1540.52
1536.99
1533.47
1529.96
1526.45
1522.96
1519.46
1515.98
1512.49
1509.01
1505.53
1502.05
1498.56
1495.07
1491.58
2226.04
2077.21
2010.6
1965.56
1931.47
1904.11
1881.24
1861.57
1844.29
1828.84
1814.87
1802.09
1790.29
1779.32
1769.07
1759.42
1750.31
1741.66
1733.43
1725.57
1718.04
1710.81
1703.84
1697.13
1690.63
1684.35
1678.25
1672.33
1666.57
1660.96
1655.48
1650.14
1644.92
1639.81
1634.81
1629.91
1625.1
1620.38
1615.75
1611.19
1606.7
1602.29
1597.94
1593.65
1589.43
1585.26
1581.14
1577.07
1573.05
1569.08
1565.15
1561.26
1557.41
1553.6
1549.82
1546.08
1542.36
1538.68
1535.02
1531.39
1527.79
1524.21
1520.65
1517.11
1513.6
1510.1
1506.61
1503.15
1499.69
1496.25
1492.82
1489.41
1486
1482.6
1479.2
1475.81
1472.43
1469.05
1465.67
1462.29
1458.91
1455.53
1452.15
1448.76
2162.08
2017.53
1952.85
1909.09
1875.98
1849.41
1827.2
1808.09
1791.31
1776.31
1762.74
1750.32
1738.86
1728.21
1718.25
1708.88
1700.03
1691.64
1683.64
1676.01
1668.69
1661.67
1654.9
1648.38
1642.08
1635.97
1630.05
1624.3
1618.7
1613.25
1607.94
1602.75
1597.68
1592.72
1587.86
1583.1
1578.43
1573.85
1569.35
1564.92
1560.57
1556.28
1552.05
1547.89
1543.79
1539.74
1535.74
1531.79
1527.89
1524.03
1520.21
1516.43
1512.7
1508.99
1505.32
1501.69
1498.08
1494.5
1490.95
1487.43
1483.93
1480.45
1476.99
1473.56
1470.14
1466.74
1463.36
1459.99
1456.64
1453.3
1449.97
1446.65
1443.34
1440.03
1436.74
1433.45
1430.16
1426.88
1423.6
1420.31
1417.03
1413.75
1410.46
1407.17
2099.96
1959.57
1896.74
1854.25
1822.09
1796.28
1774.71
1756.15
1739.85
1725.28
1712.1
1700.04
1688.91
1678.57
1668.9
1659.8
1651.2
1643.05
1635.28
1627.87
1620.76
1613.94
1607.37
1601.04
1594.91
1588.98
1583.23
1577.65
1572.21
1566.92
1561.76
1556.72
1551.8
1546.98
1542.26
1537.64
1533.11
1528.66
1524.28
1519.98
1515.75
1511.59
1507.49
1503.45
1499.46
1495.53
1491.64
1487.81
1484.02
1480.27
1476.56
1472.9
1469.26
1465.67
1462.1
1458.57
1455.07
1451.59
1448.15
1444.72
1441.32
1437.95
1434.59
1431.25
1427.94
1424.64
1421.35
1418.08
1414.82
1411.58
1408.34
1405.12
1401.9
1398.7
1395.49
1392.3
1389.11
1385.92
1382.73
1379.54
1376.36
1373.17
1369.98
1366.78
2039.62
1903.27
1842.25
1800.98
1769.75
1744.68
1723.73
1705.71
1689.87
1675.72
1662.92
1651.21
1640.4
1630.35
1620.96
1612.12
1603.77
1595.85
1588.31
1581.11
1574.21
1567.59
1561.21
1555.05
1549.11
1543.35
1537.76
1532.34
1527.06
1521.92
1516.91
1512.02
1507.24
1502.56
1497.98
1493.49
1489.08
1484.76
1480.51
1476.34