/*--------------------------------*- C++ -*----------------------------------*\
  =========                 |
  \\      /  F ield         | OpenFOAM: The Open Source CFD Toolbox
   \\    /   O peration     | Website:  https://openfoam.org
    \\  /    A nd           | Version:  10
     \\/     M anipulation  |
\*---------------------------------------------------------------------------*/
FoamFile
{
    format      ascii;
    class       surfaceScalarField;
    location    "63000";
    object      phi;
}
// * * * * * * * * * * * * * * * * * * * * * * * * * * * * * * * * * * * * * //

dimensions      [0 3 -1 0 0 0 0];

internalField   nonuniform List<scalar> 
35320
(
3.23692e-08
1.61834e-05
-1.62158e-05
5.12927e-08
1.53581e-05
-1.53771e-05
6.15484e-08
1.51206e-05
-1.51308e-05
6.72261e-08
1.5033e-05
-1.50387e-05
7.01339e-08
1.50219e-05
-1.50248e-05
7.13002e-08
1.50587e-05
-1.50599e-05
7.1382e-08
1.51284e-05
-1.51284e-05
7.0791e-08
1.5222e-05
-1.52214e-05
6.97981e-08
1.53341e-05
-1.53331e-05
6.85456e-08
1.54611e-05
-1.54599e-05
6.71522e-08
1.56005e-05
-1.55991e-05
6.56626e-08
1.57506e-05
-1.57491e-05
6.41318e-08
1.59099e-05
-1.59084e-05
6.25806e-08
1.60775e-05
-1.6076e-05
6.10215e-08
1.62526e-05
-1.62511e-05
5.94678e-08
1.64347e-05
-1.64331e-05
5.79258e-08
1.66231e-05
-1.66216e-05
5.64062e-08
1.68176e-05
-1.68161e-05
5.49086e-08
1.70179e-05
-1.70164e-05
5.34233e-08
1.72235e-05
-1.72221e-05
5.19623e-08
1.74345e-05
-1.7433e-05
5.05361e-08
1.76505e-05
-1.76491e-05
4.91245e-08
1.78715e-05
-1.78701e-05
4.77484e-08
1.80973e-05
-1.8096e-05
4.63898e-08
1.83279e-05
-1.83265e-05
4.5063e-08
1.85631e-05
-1.85617e-05
4.37637e-08
1.88028e-05
-1.88015e-05
4.24886e-08
1.90471e-05
-1.90458e-05
4.12469e-08
1.92959e-05
-1.92946e-05
4.00249e-08
1.95491e-05
-1.95478e-05
3.88321e-08
1.98067e-05
-1.98055e-05
3.76679e-08
2.00687e-05
-2.00675e-05
3.65349e-08
2.0335e-05
-2.03339e-05
3.54292e-08
2.06058e-05
-2.06047e-05
3.43464e-08
2.08808e-05
-2.08798e-05
3.32928e-08
2.11602e-05
-2.11592e-05
3.22677e-08
2.1444e-05
-2.1443e-05
3.12697e-08
2.17321e-05
-2.17311e-05
3.0295e-08
2.20245e-05
-2.20235e-05
2.93494e-08
2.23212e-05
-2.23203e-05
2.84284e-08
2.26223e-05
-2.26214e-05
2.75381e-08
2.29278e-05
-2.29269e-05
2.66705e-08
2.32376e-05
-2.32367e-05
2.58279e-08
2.35518e-05
-2.35509e-05
2.50159e-08
2.38703e-05
-2.38695e-05
2.42237e-08
2.41932e-05
-2.41924e-05
2.3457e-08
2.45205e-05
-2.45197e-05
2.27172e-08
2.48522e-05
-2.48515e-05
2.20006e-08
2.51883e-05
-2.51876e-05
2.13088e-08
2.55288e-05
-2.55281e-05
2.06408e-08
2.58737e-05
-2.5873e-05
1.99924e-08
2.6223e-05
-2.62224e-05
1.93715e-08
2.65768e-05
-2.65762e-05
1.87707e-08
2.6935e-05
-2.69344e-05
1.81919e-08
2.72976e-05
-2.7297e-05
1.76367e-08
2.76646e-05
-2.76641e-05
1.71008e-08
2.80361e-05
-2.80356e-05
1.65862e-08
2.8412e-05
-2.84115e-05
1.6094e-08
2.87924e-05
-2.87919e-05
1.56175e-08
2.91771e-05
-2.91767e-05
1.51608e-08
2.95663e-05
-2.95658e-05
1.47227e-08
2.99599e-05
-2.99594e-05
1.43047e-08
3.03578e-05
-3.03574e-05
1.38995e-08
3.07602e-05
-3.07598e-05
1.35231e-08
3.11668e-05
-3.11665e-05
1.31537e-08
3.15779e-05
-3.15775e-05
1.28045e-08
3.19932e-05
-3.19928e-05
1.24709e-08
3.24128e-05
-3.24125e-05
1.21489e-08
3.28367e-05
-3.28364e-05
1.18478e-08
3.32648e-05
-3.32645e-05
1.15583e-08
3.3697e-05
-3.36967e-05
1.12842e-08
3.41334e-05
-3.41331e-05
1.10212e-08
3.45739e-05
-3.45736e-05
1.07735e-08
3.50184e-05
-3.50182e-05
1.05421e-08
3.54669e-05
-3.54667e-05
1.03173e-08
3.59193e-05
-3.59191e-05
1.0106e-08
3.63756e-05
-3.63754e-05
9.90933e-09
3.68356e-05
-3.68354e-05
9.72008e-09
3.72994e-05
-3.72992e-05
9.54266e-09
3.77667e-05
-3.77666e-05
9.38067e-09
3.82376e-05
-3.82374e-05
9.22695e-09
3.87119e-05
-3.87117e-05
9.07772e-09
3.91895e-05
-3.91893e-05
8.94177e-09
3.96703e-05
-3.96701e-05
8.81531e-09
4.01541e-05
-4.0154e-05
8.69919e-09
4.06409e-05
-4.06408e-05
8.59174e-09
4.11305e-05
-4.11304e-05
8.48909e-09
4.16228e-05
-4.16227e-05
8.39981e-09
4.21175e-05
-4.21174e-05
8.31241e-09
4.26146e-05
-4.26145e-05
8.24038e-09
4.31137e-05
-4.31137e-05
4.36149e-05
-4.36148e-05
4.38057e-09
1.61791e-05
9.77859e-09
1.53527e-05
1.66256e-08
1.51137e-05
2.37979e-08
1.50258e-05
3.01554e-08
1.50155e-05
3.54926e-08
1.50534e-05
3.98176e-08
1.5124e-05
4.32009e-08
1.52186e-05
4.57583e-08
1.53315e-05
4.76348e-08
1.54592e-05
4.89236e-08
1.55992e-05
4.9755e-08
1.57498e-05
5.02059e-08
1.59095e-05
5.03496e-08
1.60774e-05
5.02495e-08
1.62527e-05
4.99537e-08
1.6435e-05
4.9501e-08
1.66236e-05
4.89196e-08
1.68182e-05
4.82374e-08
1.70185e-05
4.74856e-08
1.72243e-05
4.66662e-08
1.74353e-05
4.57996e-08
1.76514e-05
4.48955e-08
1.78724e-05
4.39596e-08
1.80983e-05
4.30094e-08
1.83288e-05
4.20395e-08
1.8564e-05
4.10655e-08
1.88038e-05
4.00873e-08
1.90481e-05
3.91017e-08
1.92968e-05
3.81208e-08
1.955e-05
3.71472e-08
1.98077e-05
3.61854e-08
2.00696e-05
3.52236e-08
2.0336e-05
3.42792e-08
2.06067e-05
3.33468e-08
2.08818e-05
3.24265e-08
2.11612e-05
3.15187e-08
2.14449e-05
3.06338e-08
2.1733e-05
2.97586e-08
2.20254e-05
2.89024e-08
2.23221e-05
2.80691e-08
2.26232e-05
2.7248e-08
2.29286e-05
2.64485e-08
2.32384e-05
2.56705e-08
2.35525e-05
2.49069e-08
2.3871e-05
2.41666e-08
2.41939e-05
2.34456e-08
2.45212e-05
2.27434e-08
2.48529e-05
2.20621e-08
2.5189e-05
2.13948e-08
2.55295e-05
2.07561e-08
2.58743e-05
2.01357e-08
2.62237e-05
1.95323e-08
2.65774e-05
1.89517e-08
2.69356e-05
1.83862e-08
2.72982e-05
1.78408e-08
2.76652e-05
1.73173e-08
2.80367e-05
1.68087e-08
2.84125e-05
1.63195e-08
2.87929e-05
1.58487e-08
2.91776e-05
1.53979e-08
2.95668e-05
1.49655e-08
2.99603e-05
1.45474e-08
3.03582e-05
1.4151e-08
3.07606e-05
1.37632e-08
3.11672e-05
1.33973e-08
3.15782e-05
1.30455e-08
3.19935e-05
1.2707e-08
3.24132e-05
1.23884e-08
3.2837e-05
1.20772e-08
3.32651e-05
1.17856e-08
3.36973e-05
1.15071e-08
3.41337e-05
1.12421e-08
3.45742e-05
1.09897e-08
3.50187e-05
1.07483e-08
3.54672e-05
1.05245e-08
3.59196e-05
1.03084e-08
3.63758e-05
1.01012e-08
3.68359e-05
9.91223e-09
3.72996e-05
9.72906e-09
3.77669e-05
9.55539e-09
3.82378e-05
9.39786e-09
3.8712e-05
9.24674e-09
3.91896e-05
9.10841e-09
3.96704e-05
8.9758e-09
4.01543e-05
8.85275e-09
4.0641e-05
8.74027e-09
4.11306e-05
8.63666e-09
4.16229e-05
8.53752e-09
4.21176e-05
8.45153e-09
4.26146e-05
8.37178e-09
4.31138e-05
4.36149e-05
4.63642e-09
1.61744e-05
9.09782e-09
1.53483e-05
1.31456e-08
1.51097e-05
1.69749e-08
1.5022e-05
2.05252e-08
1.5012e-05
2.38974e-08
1.505e-05
2.70376e-08
1.51209e-05
2.98894e-08
1.52157e-05
3.24157e-08
1.5329e-05
3.45937e-08
1.54571e-05
3.64395e-08
1.55974e-05
3.79523e-08
1.57482e-05
3.91614e-08
1.59082e-05
4.00969e-08
1.60764e-05
4.07823e-08
1.62521e-05
4.12493e-08
1.64345e-05
4.1524e-08
1.66233e-05
4.16272e-08
1.68181e-05
4.15917e-08
1.70186e-05
4.14191e-08
1.72245e-05
4.11478e-08
1.74356e-05
4.07756e-08
1.76518e-05
4.03364e-08
1.78729e-05
3.98244e-08
1.80988e-05
3.9256e-08
1.83294e-05
3.86433e-08
1.85646e-05
3.79935e-08
1.88044e-05
3.73095e-08
1.90488e-05
3.65998e-08
1.92976e-05
3.58727e-08
1.95508e-05
3.5128e-08
1.98084e-05
3.43699e-08
2.00704e-05
3.36041e-08
2.03368e-05
3.28365e-08
2.06075e-05
3.20624e-08
2.08825e-05
3.12899e-08
2.11619e-05
3.05238e-08
2.14457e-05
2.97526e-08
2.17337e-05
2.8996e-08
2.20261e-05
2.82489e-08
2.23228e-05
2.75014e-08
2.26239e-05
2.67705e-08
2.29293e-05
2.60499e-08
2.32391e-05
2.53393e-08
2.35532e-05
2.46424e-08
2.38717e-05
2.39616e-08
2.41946e-05
2.32936e-08
2.45219e-05
2.26414e-08
2.48535e-05
2.19983e-08
2.51896e-05
2.13791e-08
2.55301e-05
2.07708e-08
2.5875e-05
2.01787e-08
2.62243e-05
1.96026e-08
2.6578e-05
1.90438e-08
2.69361e-05
1.85053e-08
2.72987e-05
1.79767e-08
2.76657e-05
1.74689e-08
2.80372e-05
1.69749e-08
2.8413e-05
1.64967e-08
2.87933e-05
1.60391e-08
2.91781e-05
1.55946e-08
2.95672e-05
1.51682e-08
2.99607e-05
1.47528e-08
3.03587e-05
1.43555e-08
3.0761e-05
1.39782e-08
3.11676e-05
1.36105e-08
3.15786e-05
1.32568e-08
3.19939e-05
1.29242e-08
3.24135e-05
1.26002e-08
3.28373e-05
1.22942e-08
3.32654e-05
1.19964e-08
3.36976e-05
1.17164e-08
3.4134e-05
1.14446e-08
3.45744e-05
1.11899e-08
3.50189e-05
1.09456e-08
3.54674e-05
1.07131e-08
3.59198e-05
1.04957e-08
3.6376e-05
1.02865e-08
3.68361e-05
1.00895e-08
3.72998e-05
9.90522e-09
3.77671e-05
9.72993e-09
3.82379e-05
9.56156e-09
3.87122e-05
9.40928e-09
3.91898e-05
9.26056e-09
3.96705e-05
9.12452e-09
4.01544e-05
8.99907e-09
4.06412e-05
8.88019e-09
4.11308e-05
8.77383e-09
4.1623e-05
8.67544e-09
4.21177e-05
8.5833e-09
4.26147e-05
8.49838e-09
4.31139e-05
4.3615e-05
3.58211e-09
1.61708e-05
7.12699e-09
1.53447e-05
1.06881e-08
1.51061e-05
1.38383e-08
1.50188e-05
1.66281e-08
1.50092e-05
1.91784e-08
1.50475e-05
2.14948e-08
1.51186e-05
2.36204e-08
1.52136e-05
2.55655e-08
1.53271e-05
2.73327e-08
1.54553e-05
2.89297e-08
1.55958e-05
3.03446e-08
1.57468e-05
3.15854e-08
1.5907e-05
3.26581e-08
1.60754e-05
3.35606e-08
1.62512e-05
3.43066e-08
1.64338e-05
3.49e-08
1.66227e-05
3.53503e-08
1.68177e-05
3.56738e-08
1.70182e-05
3.58771e-08
1.72243e-05
3.59736e-08
1.74355e-05
3.59692e-08
1.76518e-05
3.58696e-08
1.7873e-05
3.57008e-08
1.80989e-05
3.54536e-08
1.83296e-05
3.51455e-08
1.85649e-05
3.47766e-08
1.88048e-05
3.4363e-08
1.90492e-05
3.39104e-08
1.9298e-05
3.3417e-08
1.95513e-05
3.2891e-08
1.98089e-05
3.23423e-08
2.00709e-05
3.17679e-08
2.03373e-05
3.11746e-08
2.06081e-05
3.05684e-08
2.08831e-05
2.99513e-08
2.11626e-05
2.93222e-08
2.14463e-05
2.86893e-08
2.17344e-05
2.80478e-08
2.20268e-05
2.74086e-08
2.23235e-05
2.67698e-08
2.26246e-05
2.61316e-08
2.293e-05
2.54951e-08
2.32397e-05
2.48641e-08
2.35539e-05
2.42419e-08
2.38724e-05
2.36253e-08
2.41952e-05
2.3015e-08
2.45225e-05
2.24167e-08
2.48541e-05
2.18335e-08
2.51902e-05
2.12526e-08
2.55307e-05
2.0683e-08
2.58755e-05
2.01305e-08
2.62248e-05
1.95912e-08
2.65785e-05
1.90586e-08
2.69367e-05
1.85439e-08
2.72992e-05
1.8043e-08
2.76662e-05
1.75527e-08
2.80377e-05
1.70808e-08
2.84135e-05
1.66201e-08
2.87938e-05
1.61727e-08
2.91785e-05
1.57433e-08
2.95676e-05
1.53248e-08
2.99611e-05
1.49188e-08
3.03591e-05
1.45305e-08
3.07613e-05
1.4149e-08
3.1168e-05
1.37908e-08
3.1579e-05
1.3443e-08
3.19942e-05
1.31067e-08
3.24138e-05
1.27866e-08
3.28376e-05
1.24749e-08
3.32657e-05
1.21847e-08
3.36979e-05
1.18999e-08
3.41343e-05
1.16335e-08
3.45747e-05
1.13752e-08
3.50192e-05
1.11289e-08
3.54677e-05
1.08927e-08
3.592e-05
1.0671e-08
3.63763e-05
1.04589e-08
3.68363e-05
1.02603e-08
3.73e-05
1.00681e-08
3.77673e-05
9.89115e-09
3.82381e-05
9.72251e-09
3.87124e-05
9.56001e-09
3.91899e-05
9.413e-09
3.96707e-05
9.274e-09
4.01545e-05
9.14145e-09
4.06413e-05
9.02126e-09
4.11309e-05
8.90853e-09
4.16231e-05
8.802e-09
4.21178e-05
8.70717e-09
4.26148e-05
8.61943e-09
4.3114e-05
4.36151e-05
2.22645e-09
1.61686e-05
4.27139e-09
1.53427e-05
6.76073e-09
1.51036e-05
9.169e-09
1.50164e-05
1.15124e-08
1.50068e-05
1.37404e-08
1.50453e-05
1.58392e-08
1.51165e-05
1.7802e-08
1.52116e-05
1.96216e-08
1.53252e-05
2.13048e-08
1.54536e-05
2.28483e-08
1.55943e-05
2.42571e-08
1.57454e-05
2.55291e-08
1.59057e-05
2.66669e-08
1.60742e-05
2.76802e-08
1.62501e-05
2.85675e-08
1.64329e-05
2.93302e-08
1.6622e-05
2.99853e-08
1.6817e-05
3.0527e-08
1.70177e-05
3.09602e-08
1.72238e-05
3.12938e-08
1.74352e-05
3.15394e-08
1.76515e-05
3.16965e-08
1.78728e-05
3.17695e-08
1.80989e-05
3.17748e-08
1.83296e-05
3.17039e-08
1.8565e-05
3.15789e-08
1.88049e-05
3.13908e-08
1.90494e-05
3.11513e-08
1.92982e-05
3.08713e-08
1.95515e-05
3.05478e-08
1.98092e-05
3.01782e-08
2.00713e-05
2.97894e-08
2.03377e-05
2.93638e-08
2.06085e-05
2.89147e-08
2.08836e-05
2.84413e-08
2.1163e-05
2.79557e-08
2.14468e-05
2.74534e-08
2.17349e-05
2.69393e-08
2.20273e-05
2.64085e-08
2.2324e-05
2.58787e-08
2.26251e-05
2.53379e-08
2.29305e-05
2.4794e-08
2.32403e-05
2.42503e-08
2.35544e-05
2.37045e-08
2.38729e-05
2.31574e-08
2.41958e-05
2.26183e-08
2.4523e-05
2.20782e-08
2.48547e-05
2.15464e-08
2.51907e-05
2.102e-08
2.55312e-05
2.05049e-08
2.5876e-05
1.99913e-08
2.62253e-05
1.94853e-08
2.6579e-05
1.89955e-08
2.69371e-05
1.8509e-08
2.72997e-05
1.80347e-08
2.76667e-05
1.75741e-08
2.80381e-05
1.71208e-08
2.8414e-05
1.668e-08
2.87942e-05
1.62532e-08
2.91789e-05
1.58341e-08
2.9568e-05
1.54303e-08
2.99616e-05
1.50403e-08
3.03595e-05
1.46598e-08
3.07617e-05
1.42938e-08
3.11684e-05
1.39378e-08
3.15793e-05
1.35964e-08
3.19946e-05
1.32682e-08
3.24141e-05
1.29454e-08
3.2838e-05
1.26445e-08
3.3266e-05
1.23492e-08
3.36982e-05
1.20664e-08
3.41345e-05
1.17971e-08
3.4575e-05
1.15374e-08
3.50195e-05
1.12909e-08
3.54679e-05
1.10587e-08
3.59203e-05
1.08333e-08
3.63765e-05
1.06187e-08
3.68365e-05
1.04157e-08
3.73002e-05
1.02252e-08
3.77675e-05
1.00373e-08
3.82383e-05
9.86627e-09
3.87125e-05
9.71038e-09
3.91901e-05
9.55421e-09
3.96709e-05
9.41154e-09
4.01547e-05
9.27823e-09
4.06414e-05
9.15208e-09
4.1131e-05
9.03642e-09
4.16232e-05
8.92657e-09
4.21179e-05
8.82553e-09
4.26149e-05
8.73646e-09
4.31141e-05
4.36152e-05
1.55799e-09
1.6167e-05
2.93345e-09
1.53413e-05
4.65107e-09
1.51019e-05
6.34669e-09
1.50147e-05
8.10978e-09
1.50051e-05
9.86079e-09
1.50435e-05
1.15822e-08
1.51148e-05
1.32574e-08
1.521e-05
1.48719e-08
1.53236e-05
1.64121e-08
1.54521e-05
1.78591e-08
1.55928e-05
1.92247e-08
1.5744e-05
2.04885e-08
1.59045e-05
2.16584e-08
1.60731e-05
2.2729e-08
1.62491e-05
2.36924e-08
1.64319e-05
2.4567e-08
1.66211e-05
2.5343e-08
1.68162e-05
2.60156e-08
1.7017e-05
2.66073e-08
1.72232e-05
2.71069e-08
1.74347e-05
2.75216e-08
1.76511e-05
2.78601e-08
1.78725e-05
2.81197e-08
1.80986e-05
2.83033e-08
1.83294e-05
2.84316e-08
1.85649e-05
2.84842e-08
1.88049e-05
2.84816e-08
1.90494e-05
2.84236e-08
1.92983e-05
2.8317e-08
1.95517e-05
2.81613e-08
1.98094e-05
2.79731e-08
2.00715e-05
2.7732e-08
2.0338e-05
2.74604e-08
2.06088e-05
2.7161e-08
2.08839e-05
2.68326e-08
2.11634e-05
2.64743e-08
2.14471e-05
2.60978e-08
2.17352e-05
2.57016e-08
2.20277e-05
2.52902e-08
2.23244e-05
2.4859e-08
2.26255e-05
2.44187e-08
2.2931e-05
2.39673e-08
2.32407e-05
2.35121e-08
2.35549e-05
2.30472e-08
2.38734e-05
2.25799e-08
2.41963e-05
2.21075e-08
2.45235e-05
2.16364e-08
2.48552e-05
2.11641e-08
2.51912e-05
2.06933e-08
2.55317e-05
2.0224e-08
2.58765e-05
1.97566e-08
2.62258e-05
1.92998e-08
2.65795e-05
1.88435e-08
2.69376e-05
1.83971e-08
2.73002e-05
1.79569e-08
2.76671e-05
1.75218e-08
2.80386e-05
1.70948e-08
2.84144e-05
1.66832e-08
2.87947e-05
1.62751e-08
2.91793e-05
1.58779e-08
2.95684e-05
1.54901e-08
2.99619e-05
1.51115e-08
3.03598e-05
1.47492e-08
3.07621e-05
1.43933e-08
3.11687e-05
1.40455e-08
3.15797e-05
1.37157e-08
3.19949e-05
1.33883e-08
3.24145e-05
1.3082e-08
3.28383e-05
1.27777e-08
3.32663e-05
1.24883e-08
3.36985e-05
1.22096e-08
3.41348e-05
1.19399e-08
3.45752e-05
1.16855e-08
3.50197e-05
1.14393e-08
3.54682e-05
1.12023e-08
3.59205e-05
1.09782e-08
3.63767e-05
1.07625e-08
3.68367e-05
1.05561e-08
3.73004e-05
1.03652e-08
3.77677e-05
1.01851e-08
3.82385e-05
1.00057e-08
3.87127e-05
9.83886e-09
3.91903e-05
9.68464e-09
3.9671e-05
9.53639e-09
4.01548e-05
9.4021e-09
4.06416e-05
9.27422e-09
4.11311e-05
9.1514e-09
4.16233e-05
9.04634e-09
4.2118e-05
8.94147e-09
4.2615e-05
8.84487e-09
4.31142e-05
4.36153e-05
1.21853e-09
1.61658e-05
2.35758e-09
1.53402e-05
3.68682e-09
1.51006e-05
5.01847e-09
1.50134e-05
6.4021e-09
1.50037e-05
7.76942e-09
1.50421e-05
9.14168e-09
1.51134e-05
1.04906e-08
1.52086e-05
1.18217e-08
1.53223e-05
1.31163e-08
1.54508e-05
1.4373e-08
1.55916e-05
1.55751e-08
1.57428e-05
1.67236e-08
1.59033e-05
1.78043e-08
1.6072e-05
1.88265e-08
1.62481e-05
1.97797e-08
1.6431e-05
2.06605e-08
1.66202e-05
2.14635e-08
1.68154e-05
2.21979e-08
1.70163e-05
2.28633e-08
1.72226e-05
2.34486e-08
1.74341e-05
2.39718e-08
1.76506e-05
2.44162e-08
1.7872e-05
2.48006e-08
1.80982e-05
2.51227e-08
1.83291e-05
2.53705e-08
1.85646e-05
2.55729e-08
1.88047e-05
2.57116e-08
1.90492e-05
2.57986e-08
1.92982e-05
2.58327e-08
1.95516e-05
2.58228e-08
1.98094e-05
2.57641e-08
2.00716e-05
2.56686e-08
2.03381e-05
2.55352e-08
2.06089e-05
2.53589e-08
2.08841e-05
2.51555e-08
2.11636e-05
2.49254e-08
2.14474e-05
2.46582e-08
2.17355e-05
2.43747e-08
2.20279e-05
2.40695e-08
2.23247e-05
2.3741e-08
2.26258e-05
2.33967e-08
2.29313e-05
2.30437e-08
2.32411e-05
2.26672e-08
2.35552e-05
2.22844e-08
2.38738e-05
2.18949e-08
2.41966e-05
2.14964e-08
2.45239e-05
2.10869e-08
2.48556e-05
2.0678e-08
2.51916e-05
2.02673e-08
2.55321e-05
1.98492e-08
2.58769e-05
1.94411e-08
2.62262e-05
1.9025e-08
2.65799e-05
1.86157e-08
2.6938e-05
1.8207e-08
2.73006e-05
1.78009e-08
2.76675e-05
1.74006e-08
2.8039e-05
1.70108e-08
2.84148e-05
1.66222e-08
2.8795e-05
1.62366e-08
2.91797e-05
1.58649e-08
2.95688e-05
1.54975e-08
2.99623e-05
1.51421e-08
3.03602e-05
1.47884e-08
3.07624e-05
1.44473e-08
3.1169e-05
1.41175e-08
3.158e-05
1.37916e-08
3.19952e-05
1.34796e-08
3.24148e-05
1.31746e-08
3.28386e-05
1.28835e-08
3.32666e-05
1.25989e-08
3.36988e-05
1.23248e-08
3.41351e-05
1.20597e-08
3.45755e-05
1.18046e-08
3.502e-05
1.15633e-08
3.54684e-05
1.13256e-08
3.59207e-05
1.11036e-08
3.63769e-05
1.08923e-08
3.68369e-05
1.06844e-08
3.73006e-05
1.0489e-08
3.77679e-05
1.03014e-08
3.82387e-05
1.01301e-08
3.87129e-05
9.96221e-09
3.91904e-05
9.80433e-09
3.96712e-05
9.65627e-09
4.0155e-05
9.51599e-09
4.06417e-05
9.38428e-09
4.11313e-05
9.2661e-09
4.16235e-05
9.149e-09
4.21181e-05
9.04641e-09
4.26151e-05
8.94776e-09
4.31143e-05
4.36153e-05
1.01165e-09
1.61648e-05
1.95037e-09
1.53392e-05
3.00887e-09
1.50995e-05
4.09841e-09
1.50123e-05
5.22689e-09
1.50026e-05
6.35869e-09
1.5041e-05
7.47813e-09
1.51123e-05
8.60191e-09
1.52075e-05
9.70798e-09
1.53212e-05
1.07985e-08
1.54497e-05
1.18669e-08
1.55905e-05
1.29103e-08
1.57418e-05
1.39152e-08
1.59023e-05
1.48871e-08
1.6071e-05
1.58071e-08
1.62471e-05
1.66956e-08
1.64301e-05
1.75237e-08
1.66194e-05
1.83061e-08
1.68146e-05
1.90428e-08
1.70156e-05
1.97108e-08
1.72219e-05
2.03364e-08
1.74334e-05
2.08969e-08
1.765e-05
2.14088e-08
1.78715e-05
2.18612e-08
1.80978e-05
2.2257e-08
1.83287e-05
2.26065e-08
1.85643e-05
2.28963e-08
1.88044e-05
2.31373e-08
1.9049e-05
2.33302e-08
1.9298e-05
2.3472e-08
1.95515e-05
2.35711e-08
1.98093e-05
2.36275e-08
2.00715e-05
2.3643e-08
2.03381e-05
2.36155e-08
2.06089e-05
2.35558e-08
2.08841e-05
2.3465e-08
2.11636e-05
2.33348e-08
2.14475e-05
2.31822e-08
2.17357e-05
2.29956e-08
2.20281e-05
2.27858e-08
2.23249e-05
2.25532e-08
2.26261e-05
2.23027e-08
2.29315e-05
2.20281e-08
2.32414e-05
2.17428e-08
2.35555e-05
2.1435e-08
2.38741e-05
2.11213e-08
2.4197e-05
2.07921e-08
2.45242e-05
2.04573e-08
2.48559e-05
2.01109e-08
2.5192e-05
1.97595e-08
2.55324e-05
1.94027e-08
2.58773e-05
1.90377e-08
2.62266e-05
1.86762e-08
2.65803e-05
1.83096e-08
2.69384e-05
1.79425e-08
2.73009e-05
1.75815e-08
2.76679e-05
1.72161e-08
2.80393e-05
1.68552e-08
2.84151e-05
1.64948e-08
2.87954e-05
1.61434e-08
2.91801e-05
1.57937e-08
2.95692e-05
1.54514e-08
2.99626e-05
1.51141e-08
3.03605e-05
1.47848e-08
3.07628e-05
1.4459e-08
3.11694e-05
1.41434e-08
3.15803e-05
1.38289e-08
3.19956e-05
1.35313e-08
3.24151e-05
1.32368e-08
3.28389e-05
1.29529e-08
3.32669e-05
1.26759e-08
3.36991e-05
1.24113e-08
3.41354e-05
1.21522e-08
3.45758e-05
1.19056e-08
3.50202e-05
1.16635e-08
3.54686e-05
1.14354e-08
3.5921e-05
1.1211e-08
3.63772e-05
1.09969e-08
3.68371e-05
1.07961e-08
3.73008e-05
1.05988e-08
3.77681e-05
1.04157e-08
3.82389e-05
1.02375e-08
3.87131e-05
1.00697e-08
3.91906e-05
9.91239e-09
3.96713e-05
9.76135e-09
4.01551e-05
9.62162e-09
4.06419e-05
9.48862e-09
4.11314e-05
9.36207e-09
4.16236e-05
9.24811e-09
4.21183e-05
9.13805e-09
4.26152e-05
9.03763e-09
4.31144e-05
4.36154e-05
8.4312e-10
1.6164e-05
1.5991e-09
1.53385e-05
2.43493e-09
1.50987e-05
3.32744e-09
1.50114e-05
4.2592e-09
1.50016e-05
5.194e-09
1.50401e-05
6.13539e-09
1.51113e-05
7.07756e-09
1.52066e-05
8.02392e-09
1.53202e-05
8.95689e-09
1.54487e-05
9.879e-09
1.55896e-05
1.07849e-08
1.57409e-05
1.16767e-08
1.59014e-05
1.2539e-08
1.60701e-05
1.33812e-08
1.62463e-05
1.41819e-08
1.64293e-05
1.49617e-08
1.66186e-05
1.56995e-08
1.68139e-05
1.63958e-08
1.70149e-05
1.70611e-08
1.72212e-05
1.76796e-08
1.74328e-05
1.82554e-08
1.76495e-05
1.8787e-08
1.7871e-05
1.92724e-08
1.80973e-05
1.97138e-08
1.83283e-05
2.01101e-08
1.85639e-05
2.04638e-08
1.8804e-05
2.07778e-08
1.90487e-05
2.10409e-08
1.92978e-05
2.12672e-08
1.95513e-05
2.14493e-08
1.98091e-05
2.15912e-08
2.00714e-05
2.16924e-08
2.03379e-05
2.17608e-08
2.06089e-05
2.17926e-08
2.08841e-05
2.17851e-08
2.11637e-05
2.17525e-08
2.14475e-05
2.16847e-08
2.17357e-05
2.15928e-08
2.20282e-05
2.14702e-08
2.23251e-05
2.13246e-08
2.26262e-05
2.11552e-08
2.29317e-05
2.09638e-08
2.32416e-05
2.07536e-08
2.35557e-05
2.05275e-08
2.38743e-05
2.02772e-08
2.41972e-05
2.00183e-08
2.45245e-05
1.97478e-08
2.48562e-05
1.94626e-08
2.51922e-05
1.91689e-08
2.55327e-05
1.88731e-08
2.58776e-05
1.85655e-08
2.62269e-05
1.8249e-08
2.65806e-05
1.79323e-08
2.69387e-05
1.76124e-08
2.73013e-05
1.72883e-08
2.76682e-05
1.69628e-08
2.80396e-05
1.66379e-08
2.84155e-05
1.63133e-08
2.87957e-05
1.59903e-08
2.91804e-05
1.5672e-08
2.95695e-05
1.53502e-08
2.9963e-05
1.50371e-08
3.03608e-05
1.47245e-08
3.07631e-05
1.44234e-08
3.11697e-05
1.41237e-08
3.15806e-05
1.38352e-08
3.19958e-05
1.35449e-08
3.24154e-05
1.32663e-08
3.28392e-05
1.29917e-08
3.32671e-05
1.27271e-08
3.36993e-05
1.24695e-08
3.41356e-05
1.2216e-08
3.4576e-05
1.19734e-08
3.50205e-05
1.17373e-08
3.54689e-05
1.15109e-08
3.59212e-05
1.12924e-08
3.63774e-05
1.10824e-08
3.68373e-05
1.08818e-08
3.7301e-05
1.0688e-08
3.77683e-05
1.05047e-08
3.8239e-05
1.03292e-08
3.87133e-05
1.01623e-08
3.91908e-05
1.00039e-08
3.96715e-05
9.85443e-09
4.01553e-05
9.70937e-09
4.0642e-05
9.57325e-09
4.11315e-05
9.45222e-09
4.16237e-05
9.32984e-09
4.21184e-05
9.22212e-09
4.26154e-05
9.12056e-09
4.31145e-05
4.36155e-05
6.97658e-10
1.61633e-05
1.3188e-09
1.53379e-05
1.99416e-09
1.5098e-05
2.73264e-09
1.50107e-05
3.50523e-09
1.50009e-05
4.28787e-09
1.50393e-05
5.08062e-09
1.51105e-05
5.87898e-09
1.52058e-05
6.68238e-09
1.53194e-05
7.48746e-09
1.54479e-05
8.2925e-09
1.55888e-05
9.0825e-09
1.57401e-05
9.86729e-09
1.59006e-05
1.06391e-08
1.60694e-05
1.13904e-08
1.62455e-05
1.21271e-08
1.64285e-05
1.28324e-08
1.66179e-05
1.35236e-08
1.68132e-05
1.41793e-08
1.70142e-05
1.48116e-08
1.72206e-05
1.54094e-08
1.74322e-05
1.59744e-08
1.76489e-05
1.65107e-08
1.78704e-05
1.70057e-08
1.80968e-05
1.74713e-08
1.83278e-05
1.78987e-08
1.85635e-05
1.82859e-08
1.88037e-05
1.86357e-08
1.90483e-05
1.89537e-08
1.92974e-05
1.9228e-08
1.9551e-05
1.94715e-08
1.98089e-05
1.96771e-08
2.00712e-05
1.98509e-08
2.03378e-05
1.99883e-08
2.06087e-05
2.009e-08
2.0884e-05
2.01586e-08
2.11636e-05
2.01971e-08
2.14475e-05
2.0209e-08
2.17357e-05
2.01907e-08
2.20282e-05
2.01424e-08
2.23251e-05
2.00706e-08
2.26263e-05
1.99755e-08
2.29318e-05
1.98598e-08
2.32417e-05
1.97207e-08
2.35559e-05
1.95615e-08
2.38745e-05
1.93881e-08
2.41974e-05
1.91946e-08
2.45247e-05
1.89835e-08
2.48564e-05
1.87648e-08
2.51925e-05
1.85284e-08
2.55329e-05
1.82803e-08
2.58778e-05
1.80235e-08
2.62271e-05
1.77636e-08
2.65808e-05
1.74909e-08
2.6939e-05
1.72139e-08
2.73015e-05
1.69295e-08
2.76685e-05
1.66457e-08
2.80399e-05
1.63559e-08
2.84158e-05
1.60681e-08
2.8796e-05
1.57784e-08
2.91807e-05
1.54857e-08
2.95698e-05
1.5201e-08
2.99633e-05
1.49112e-08
3.03611e-05
1.46273e-08
3.07634e-05
1.4344e-08
3.117e-05
1.40637e-08
3.15809e-05
1.37878e-08
3.19961e-05
1.35178e-08
3.24156e-05
1.32542e-08
3.28394e-05
1.29932e-08
3.32674e-05
1.27384e-08
3.36996e-05
1.2488e-08
3.41359e-05
1.22515e-08
3.45763e-05
1.20128e-08
3.50207e-05
1.17898e-08
3.54691e-05
1.15664e-08
3.59214e-05
1.13513e-08
3.63776e-05
1.11483e-08
3.68375e-05
1.09492e-08
3.73012e-05
1.07602e-08
3.77685e-05
1.05764e-08
3.82392e-05
1.04008e-08
3.87134e-05
1.02334e-08
3.91909e-05
1.0075e-08
3.96716e-05
9.92504e-09
4.01554e-05
9.7815e-09
4.06421e-05
9.6523e-09
4.11317e-05
9.52123e-09
4.16238e-05
9.40681e-09
4.21185e-05
9.29236e-09
4.26155e-05
9.1885e-09
4.31146e-05
4.36156e-05
5.95786e-10
1.61627e-05
1.12052e-09
1.53373e-05
1.67239e-09
1.50975e-05
2.2919e-09
1.501e-05
2.93897e-09
1.50002e-05
3.6025e-09
1.50386e-05
4.27681e-09
1.51099e-05
4.9691e-09
1.52051e-05
5.65399e-09
1.53187e-05
6.34633e-09
1.54472e-05
7.03997e-09
1.55881e-05
7.73693e-09
1.57394e-05
8.42363e-09
1.59e-05
9.10325e-09
1.60687e-05
9.77505e-09
1.62449e-05
1.04371e-08
1.64279e-05
1.10845e-08
1.66172e-05
1.17107e-08
1.68126e-05
1.23236e-08
1.70136e-05
1.29094e-08
1.722e-05
1.34788e-08
1.74317e-05
1.40222e-08
1.76483e-05
1.45366e-08
1.78699e-05
1.50342e-08
1.80963e-05
1.54978e-08
1.83274e-05
1.59326e-08
1.8563e-05
1.63365e-08
1.88032e-05
1.67109e-08
1.90479e-05
1.70537e-08
1.92971e-05
1.73709e-08
1.95507e-05
1.76532e-08
1.98086e-05
1.79002e-08
2.00709e-05
1.812e-08
2.03376e-05
1.83089e-08
2.06085e-05
1.8469e-08
2.08838e-05
1.85994e-08
2.11635e-05
1.86989e-08
2.14474e-05
1.87711e-08
2.17356e-05
1.88113e-08
2.20282e-05
1.88322e-08
2.23251e-05
1.883e-08
2.26263e-05
1.87949e-08
2.29318e-05
1.87393e-08
2.32417e-05
1.86657e-08
2.3556e-05
1.85708e-08
2.38746e-05
1.84539e-08
2.41975e-05
1.83213e-08
2.45248e-05
1.81724e-08
2.48565e-05
1.80068e-08
2.51926e-05
1.78269e-08
2.55331e-05
1.76359e-08
2.5878e-05
1.74299e-08
2.62273e-05
1.72142e-08
2.6581e-05
1.69914e-08
2.69392e-05
1.67581e-08
2.73018e-05
1.65218e-08
2.76688e-05
1.62766e-08
2.80402e-05
1.60269e-08
2.8416e-05
1.57721e-08
2.87963e-05
1.55174e-08
2.91809e-05
1.52583e-08
2.957e-05
1.49968e-08
2.99635e-05
1.47343e-08
3.03614e-05
1.44755e-08
3.07636e-05
1.42165e-08
3.11702e-05
1.39556e-08
3.15811e-05
1.37026e-08
3.19964e-05
1.34502e-08
3.24159e-05
1.32025e-08
3.28397e-05
1.2955e-08
3.32677e-05
1.27146e-08
3.36998e-05
1.24816e-08
3.41361e-05
1.2249e-08
3.45765e-05
1.20262e-08
3.50209e-05
1.18045e-08
3.54693e-05
1.1591e-08
3.59216e-05
1.13887e-08
3.63778e-05
1.11842e-08
3.68377e-05
1.09921e-08
3.73014e-05
1.08044e-08
3.77686e-05
1.06262e-08
3.82394e-05
1.04531e-08
3.87136e-05
1.02901e-08
3.91911e-05
1.01326e-08
3.96718e-05
9.98293e-09
4.01556e-05
9.84101e-09
4.06423e-05
9.7067e-09
4.11318e-05
9.58018e-09
4.1624e-05
9.46307e-09
4.21186e-05
9.35228e-09
4.26156e-05
9.24443e-09
4.31147e-05
4.36157e-05
5.06657e-10
1.61622e-05
9.54026e-10
1.53369e-05
1.42063e-09
1.5097e-05
1.94646e-09
1.50095e-05
2.49784e-09
1.49997e-05
3.06251e-09
1.50381e-05
3.64921e-09
1.51093e-05
4.23462e-09
1.52045e-05
4.8316e-09
1.53181e-05
5.43372e-09
1.54466e-05
6.03746e-09
1.55875e-05
6.64421e-09
1.57388e-05
7.24627e-09
1.58994e-05
7.85178e-09
1.60681e-05
8.45415e-09
1.62443e-05
9.04202e-09
1.64273e-05
9.62408e-09
1.66167e-05
1.01968e-08
1.6812e-05
1.07569e-08
1.7013e-05
1.13052e-08
1.72195e-05
1.18322e-08
1.74311e-05
1.23482e-08
1.76478e-05
1.28409e-08
1.78694e-05
1.33171e-08
1.80958e-05
1.37682e-08
1.83269e-05
1.41979e-08
1.85626e-05
1.46046e-08
1.88028e-05
1.49923e-08
1.90476e-05
1.53487e-08
1.92967e-05
1.56816e-08
1.95503e-05
1.59834e-08
1.98083e-05
1.62646e-08
2.00706e-05
1.65173e-08
2.03373e-05
1.67436e-08
2.06083e-05
1.69415e-08
2.08836e-05
1.71164e-08
2.11633e-05
1.7264e-08
2.14472e-05
1.73828e-08
2.17355e-05
1.74818e-08
2.20281e-05
1.75527e-08
2.2325e-05
1.75958e-08
2.26263e-05
1.76252e-08
2.29318e-05
1.76246e-08
2.32417e-05
1.75993e-08
2.3556e-05
1.75646e-08
2.38746e-05
1.75005e-08
2.41976e-05
1.7425e-08
2.45249e-05
1.73287e-08
2.48566e-05
1.72132e-08
2.51927e-05
1.70844e-08
2.55333e-05
1.69412e-08
2.58782e-05
1.67922e-08
2.62275e-05
1.66211e-08
2.65812e-05
1.64399e-08
2.69394e-05
1.62558e-08
2.73019e-05
1.60565e-08
2.7669e-05
1.58527e-08
2.80404e-05
1.56405e-08
2.84162e-05
1.54218e-08
2.87965e-05
1.5198e-08
2.91812e-05
1.49712e-08
2.95703e-05
1.47403e-08
2.99637e-05
1.45095e-08
3.03616e-05
1.42774e-08
3.07639e-05
1.40425e-08
3.11705e-05
1.38119e-08
3.15814e-05
1.35726e-08
3.19966e-05
1.33426e-08
3.24161e-05
1.31093e-08
3.28399e-05
1.28847e-08
3.32679e-05
1.26581e-08
3.37e-05
1.2434e-08
3.41363e-05
1.2218e-08
3.45767e-05
1.20025e-08
3.50211e-05
1.17939e-08
3.54695e-05
1.15897e-08
3.59218e-05
1.13902e-08
3.6378e-05
1.11993e-08
3.68379e-05
1.1011e-08
3.73016e-05
1.08286e-08
3.77688e-05
1.06523e-08
3.82396e-05
1.04846e-08
3.87138e-05
1.03232e-08
3.91913e-05
1.01682e-08
3.9672e-05
1.00217e-08
4.01557e-05
9.88126e-09
4.06424e-05
9.74914e-09
4.11319e-05
9.62273e-09
4.16241e-05
9.5035e-09
4.21187e-05
9.39316e-09
4.26157e-05
9.28982e-09
4.31148e-05
4.36158e-05
4.3517e-10
1.61617e-05
8.24324e-10
1.53365e-05
1.21013e-09
1.50966e-05
1.65444e-09
1.50091e-05
2.13021e-09
1.49992e-05
2.62749e-09
1.50376e-05
3.12616e-09
1.51088e-05
3.63471e-09
1.5204e-05
4.15473e-09
1.53176e-05
4.68305e-09
1.54461e-05
5.21363e-09
1.55869e-05
5.74384e-09
1.57383e-05
6.2811e-09
1.58988e-05
6.81249e-09
1.60676e-05
7.34535e-09
1.62437e-05
7.8742e-09
1.64268e-05
8.40182e-09
1.66161e-05
8.91952e-09
1.68115e-05
9.43126e-09
1.70125e-05
9.93011e-09
1.7219e-05
1.04244e-08
1.74306e-05
1.09046e-08
1.76474e-05
1.13709e-08
1.7869e-05
1.18205e-08
1.80954e-05
1.22548e-08
1.83265e-05
1.26711e-08
1.85622e-05
1.3073e-08
1.88024e-05
1.34523e-08
1.90472e-05
1.38126e-08
1.92964e-05
1.41486e-08
1.955e-05
1.44715e-08
1.9808e-05
1.47657e-08
2.00703e-05
1.50396e-08
2.0337e-05
1.52901e-08
2.06081e-05
1.55231e-08
2.08834e-05
1.57233e-08
2.11631e-05
1.59053e-08
2.14471e-05
1.60642e-08
2.17354e-05
1.61985e-08
2.2028e-05
1.63135e-08
2.23249e-05
1.64042e-08
2.26262e-05
1.64729e-08
2.29318e-05
1.65206e-08
2.32417e-05
1.65503e-08
2.3556e-05
1.65506e-08
2.38746e-05
1.65458e-08
2.41976e-05
1.65131e-08
2.45249e-05
1.64634e-08
2.48567e-05
1.63989e-08
2.51928e-05
1.63186e-08
2.55333e-05
1.62216e-08
2.58783e-05
1.61091e-08
2.62276e-05
1.59874e-08
2.65813e-05
1.5854e-08
2.69395e-05
1.57052e-08
2.73021e-05
1.55494e-08
2.76691e-05
1.53815e-08
2.80405e-05
1.52038e-08
2.84164e-05
1.50237e-08
2.87967e-05
1.48374e-08
2.91814e-05
1.46398e-08
2.95705e-05
1.44413e-08
2.99639e-05
1.42406e-08
3.03618e-05
1.40306e-08
3.07641e-05
1.38206e-08
3.11707e-05
1.36093e-08
3.15816e-05
1.34033e-08
3.19968e-05
1.31901e-08
3.24163e-05
1.29809e-08
3.28401e-05
1.27683e-08
3.32681e-05
1.25625e-08
3.37002e-05
1.23543e-08
3.41365e-05
1.21483e-08
3.45769e-05
1.19469e-08
3.50213e-05
1.17489e-08
3.54697e-05
1.15592e-08
3.5922e-05
1.13676e-08
3.63782e-05
1.11821e-08
3.68381e-05
1.10009e-08
3.73018e-05
1.08258e-08
3.7769e-05
1.06552e-08
3.82398e-05
1.04937e-08
3.87139e-05
1.03334e-08
3.91914e-05
1.01819e-08
3.96721e-05
1.00342e-08
4.01559e-05
9.89743e-09