/*--------------------------------*- C++ -*----------------------------------*\
  =========                 |
  \\      /  F ield         | OpenFOAM: The Open Source CFD Toolbox
   \\    /   O peration     | Website:  https://openfoam.org
    \\  /    A nd           | Version:  10
     \\/     M anipulation  |
\*---------------------------------------------------------------------------*/
FoamFile
{
    format      ascii;
    class       volVectorField;
    location    "63000";
    object      U;
}
// * * * * * * * * * * * * * * * * * * * * * * * * * * * * * * * * * * * * * //

dimensions      [0 1 -1 0 0 0 0];

internalField   nonuniform List<vector> 
17808
(
(-1.22473 1.32857 -4.80177e-18)
(-1.51893 1.65655 -5.43331e-19)
(-1.6507 1.80173 3.51159e-18)
(-1.74172 1.8975 3.81661e-18)
(-1.809 1.97106 -9.01713e-19)
(-1.86299 2.02958 -6.41999e-18)
(-1.90766 2.07835 3.24712e-18)
(-1.9458 2.12005 -3.47101e-18)
(-1.97903 2.15649 5.87313e-18)
(-2.00846 2.18883 -5.84814e-22)
(-2.03487 2.21789 -2.67627e-18)
(-2.05881 2.24428 1.92048e-18)
(-2.08069 2.26843 -2.76366e-18)
(-2.10084 2.29069 2.94843e-19)
(-2.11951 2.31133 0)
(-2.13689 2.33056 2.73172e-19)
(-2.15314 2.34856 -5.27002e-19)
(-2.1684 2.36547 -5.08902e-19)
(-2.18277 2.38141 -2.21309e-18)
(-2.19634 2.39647 1.63464e-21)
(-2.20919 2.41074 1.84565e-18)
(-2.22139 2.42429 0)
(-2.23299 2.43718 1.73482e-18)
(-2.24404 2.44947 -1.68643e-18)
(-2.25458 2.4612 1.63719e-18)
(-2.26466 2.47242 -1.99214e-18)
(-2.2743 2.48315 -3.87487e-19)
(-2.28353 2.49343 0)
(-2.29237 2.5033 -3.67568e-19)
(-2.30086 2.51276 -3.58186e-19)
(-2.30902 2.52185 1.39614e-18)
(-2.31685 2.53059 -1.02304e-18)
(-2.32437 2.53899 0)
(-2.33161 2.54707 0)
(-2.33857 2.55484 3.16916e-19)
(-2.34527 2.56232 1.54696e-18)
(-2.35172 2.56952 -9.08412e-19)
(-2.35793 2.57646 0)
(-2.3639 2.58313 -1.15488e-18)
(-2.36964 2.58956 1.95811e-21)
(-2.37518 2.59574 1.65865e-18)
(-2.3805 2.60169 1.62022e-18)
(-2.38561 2.60741 -1.05827e-18)
(-2.39053 2.61291 5.1712e-19)
(-2.39526 2.6182 0)
(-2.3998 2.62328 -4.95055e-19)
(-2.40416 2.62815 1.45235e-18)
(-2.40833 2.63283 -1.89732e-18)
(-2.41234 2.63731 4.63957e-19)
(-2.41617 2.6416 0)
(-2.41983 2.6457 0)
(-2.42333 2.64961 1.30356e-18)
(-2.42666 2.65335 -4.2661e-19)
(-2.42983 2.6569 0)
(-2.43285 2.66028 4.07523e-19)
(-2.4357 2.66348 3.98781e-19)
(-2.43841 2.66651 -3.90184e-19)
(-2.44096 2.66937 -3.81727e-19)
(-2.44336 2.67206 -3.73435e-19)
(-2.4456 2.67458 7.29536e-19)
(-2.4477 2.67693 -1.0399e-21)
(-2.44965 2.67912 6.97763e-19)
(-2.45145 2.68115 -6.84385e-19)
(-2.45311 2.68301 -6.68102e-19)
(-2.45462 2.6847 -1.30515e-18)
(-2.45598 2.68624 6.38336e-19)
(-2.45719 2.68761 -1.24871e-18)
(-2.45827 2.68882 1.21908e-18)
(-2.45919 2.68987 0)
(-2.45997 2.69076 5.81633e-19)
(-2.46061 2.69149 1.13491e-18)
(-2.4611 2.69205 -5.56696e-19)
(-2.46145 2.69246 -5.42421e-19)
(-2.46165 2.6927 5.28357e-19)
(-2.4617 2.69278 -1.06237e-21)
(-2.46161 2.6927 -1.50883e-18)
(-2.46137 2.69246 9.82147e-19)
(-2.46099 2.69205 0)
(-2.46046 2.69148 -4.6739e-19)
(-2.45977 2.69075 -1.3646e-18)
(-2.45894 2.68985 0)
(-2.45797 2.68878 0)
(-2.45684 2.68755 8.40476e-19)
(-2.45555 2.68616 0)
(-2.45412 2.68459 7.96697e-19)
(-2.45254 2.68286 0)
(-2.4508 2.68095 -1.20358e-23)
(-2.44891 2.67888 0)
(-2.44686 2.67663 0)
(-2.44465 2.67421 6.93932e-19)
(-2.44229 2.67162 1.34906e-18)
(-2.43977 2.66885 1.311e-18)
(-1.22471 1.34147 -5.39279e-19)
(-1.51405 1.66927 5.32902e-19)
(-1.64641 1.81114 0)
(-1.73575 1.90689 0)
(-1.80234 1.97988 9.02135e-19)
(-1.85604 2.03778 -4.262e-19)
(-1.90059 2.08603 3.23025e-18)
(-1.9387 2.12729 -2.68236e-18)
(-1.97195 2.16337 -3.6452e-19)
(-2.00144 2.19541 2.77697e-18)
(-2.0279 2.22424 -2.98412e-18)
(-2.0519 2.25043 6.34399e-19)
(-2.07385 2.27443 3.04004e-19)
(-2.09406 2.29657 -2.91871e-19)
(-2.11277 2.31712 0)
(-2.13019 2.33628 -2.70281e-19)
(-2.14648 2.35422 2.60634e-19)
(-2.16177 2.37109 2.51646e-19)
(-2.17617 2.38699 0)
(-2.18977 2.40202 0)
(-2.20264 2.41627 0)
(-2.21486 2.42981 -4.42064e-19)
(-2.22647 2.4427 0)
(-2.23754 2.45498 -4.16588e-19)
(-2.24809 2.46671 0)
(-2.25818 2.47793 3.93744e-19)
(-2.26783 2.48866 3.83225e-19)
(-2.27706 2.49895 0)
(-2.28592 2.50882 -1.45315e-18)
(-2.29441 2.51829 3.56179e-19)
(-2.30257 2.52739 1.03752e-18)
(-2.3104 2.53613 -3.37102e-19)
(-2.31793 2.54454 1.31519e-18)
(-2.32518 2.55263 -2.89125e-18)
(-2.33214 2.56042 9.42212e-19)
(-2.33884 2.56791 -3.06533e-19)
(-2.34529 2.57512 -5.99163e-19)
(-2.35149 2.58207 0)
(-2.35747 2.58875 0)
(-2.36321 2.59519 1.3991e-18)
(-2.36874 2.60138 -1.09655e-18)
(-2.37406 2.60734 -4.73651e-23)
(-2.37918 2.61308 -5.24378e-19)
(-2.3841 2.61859 -1.02624e-18)
(-2.38882 2.62389 -5.01202e-19)
(-2.39336 2.62898 1.47558e-18)
(-2.39772 2.63386 -9.61247e-19)
(-2.40189 2.63855 1.41396e-18)
(-2.40589 2.64304 -1.38218e-18)
(-2.40972 2.64734 9.03768e-19)
(-2.41338 2.65145 -8.82781e-19)
(-2.41688 2.65537 8.66266e-19)
(-2.42021 2.65911 -4.23549e-19)
(-2.42338 2.66268 0)
(-2.42639 2.66606 -4.05909e-19)
(-2.42925 2.66927 0)
(-2.43195 2.67231 0)
(-2.4345 2.67518 3.80672e-19)
(-2.43689 2.67787 1.04872e-21)
(-2.43914 2.6804 7.30201e-19)
(-2.44123 2.68276 -7.13466e-19)
(-2.44318 2.68496 6.98048e-19)
(-2.44498 2.68699 0)
(-2.44664 2.68885 0)
(-2.44814 2.69056 1.30549e-18)
(-2.44951 2.6921 -6.38824e-19)
(-2.45072 2.69347 1.25024e-18)
(-2.45179 2.69469 -1.0741e-21)
(-2.45272 2.69574 -5.97833e-19)
(-2.4535 2.69663 0)
(-2.45414 2.69736 -1.13851e-18)
(-2.45463 2.69793 2.2264e-18)
(-2.45498 2.69834 -2.13836e-21)
(-2.45518 2.69858 -2.13892e-21)
(-2.45523 2.69867 -1.06395e-21)
(-2.45514 2.69859 5.04744e-19)
(-2.45491 2.69834 -9.88257e-19)
(-2.45452 2.69794 4.81563e-19)
(-2.45399 2.69737 9.38378e-19)
(-2.45332 2.69663 -4.59129e-19)
(-2.45249 2.69573 4.45522e-19)
(-2.45151 2.69467 -1.30695e-18)
(-2.45039 2.69344 1.27151e-18)
(-2.44911 2.69204 -2.122e-21)
(-2.44768 2.69047 -8.05048e-19)
(-2.4461 2.68873 3.93021e-19)
(-2.44437 2.68682 -1.52635e-18)
(-2.44248 2.68474 0)
(-2.44044 2.68249 0)
(-2.43824 2.68007 -1.40618e-18)
(-2.43589 2.67747 -1.02464e-18)
(-2.43337 2.6747 -6.62773e-19)
(-1.22335 1.34882 1.07907e-18)
(-1.5125 1.67643 8.52089e-18)
(-1.64495 1.81761 -1.61258e-17)
(-1.73268 1.91431 7.62308e-18)
(-1.79867 1.98709 -4.49022e-19)
(-1.85173 2.0449 0)
(-1.89574 2.09304 0)
(-1.93342 2.13418 0)
(-1.96634 2.17011 -5.42188e-18)
(-1.99557 2.20202 5.50912e-18)
(-2.02184 2.23071 3.28361e-19)
(-2.04569 2.25679 1.37432e-22)
(-2.06753 2.28068 4.81198e-18)
(-2.08766 2.30273 -9.52725e-18)
(-2.10631 2.3232 4.44169e-18)
(-2.12369 2.34229 4.00582e-18)
(-2.13995 2.36018 -3.86486e-18)
(-2.15522 2.37699 0)
(-2.1696 2.39285 0)
(-2.18318 2.40785 0)
(-2.19605 2.42208 0)
(-2.20826 2.4356 8.73197e-19)
(-2.21987 2.44847 0)
(-2.23093 2.46074 4.11414e-19)
(-2.24149 2.47246 0)
(-2.25157 2.48367 -3.88855e-19)
(-2.26122 2.4944 0)
(-2.27046 2.50469 1.473e-18)
(-2.27931 2.51456 -1.43691e-18)
(-2.2878 2.52403 3.49952e-19)
(-2.29596 2.53314 -3.41301e-19)
(-2.30379 2.54189 1.66422e-18)
(-2.31132 2.5503 -1.8322e-21)
(-2.31856 2.5584 -9.53175e-19)
(-2.32552 2.56619 9.29282e-19)
(-2.33222 2.57369 -9.09849e-19)
(-2.33867 2.58091 2.96152e-19)
(-2.34487 2.58786 0)
(-2.35084 2.59456 0)
(-2.35659 2.601 -1.66071e-18)
(-2.36212 2.6072 1.92145e-21)
(-2.36743 2.61317 1.8938e-21)
(-2.37255 2.61892 1.55771e-18)
(-2.37746 2.62444 -1.01481e-18)
(-2.38219 2.62975 4.9816e-19)
(-2.38672 2.63485 0)
(-2.39107 2.63974 0)
(-2.39525 2.64444 0)
(-2.39925 2.64894 1.0048e-21)
(-2.40307 2.65324 4.48482e-19)
(-2.40673 2.65736 0)
(-2.41022 2.6613 4.29108e-19)
(-2.41355 2.66505 -8.39436e-19)
(-2.41672 2.66862 1.23555e-18)
(-2.41973 2.67201 8.04914e-19)
(-2.42258 2.67523 -7.90202e-19)
(-2.42528 2.67827 -7.71687e-19)
(-2.42783 2.68115 3.79319e-19)
(-2.43022 2.68385 -3.70348e-19)
(-2.43247 2.68639 3.62532e-19)
(-2.43456 2.68875 7.09742e-19)
(-2.43651 2.69095 -6.94647e-19)
(-2.43831 2.69299 0)
(-2.43996 2.69486 0)
(-2.44147 2.69657 -1.72547e-23)
(-2.44283 2.69811 -1.27218e-18)
(-2.44404 2.69949 6.23725e-19)
(-2.44511 2.70071 -6.07865e-19)
(-2.44604 2.70177 1.78617e-18)
(-2.44682 2.70267 -1.0688e-21)
(-2.44746 2.7034 5.6892e-19)
(-2.44795 2.70397 -5.55988e-19)
(-2.4483 2.70438 0)
(-2.4485 2.70463 0)
(-2.44856 2.70471 0)
(-2.44847 2.70463 5.05011e-19)
(-2.44823 2.70439 -4.95125e-19)
(-2.44785 2.70398 -4.8223e-19)
(-2.44733 2.70341 0)
(-2.44665 2.70268 0)
(-2.44583 2.70178 -1.34225e-18)
(-2.44485 2.70071 2.18427e-18)
(-2.44373 2.69948 -1.08823e-23)
(-2.44246 2.69807 0)
(-2.44104 2.6965 -4.03226e-19)
(-2.43946 2.69476 2.12387e-21)
(-2.43773 2.69285 3.84662e-19)
(-2.43585 2.69077 -7.4701e-19)
(-2.43381 2.68851 -7.27184e-19)
(-2.43162 2.68609 1.06051e-18)
(-2.42927 2.68348 -2.10151e-21)
(-2.42677 2.68071 3.33849e-19)
(-1.21963 1.35319 7.55881e-18)
(-1.50915 1.6809 7.97316e-18)
(-1.64131 1.82272 -8.54142e-18)
(-1.7283 1.92013 4.74365e-19)
(-1.79425 1.99286 0)
(-1.84702 2.05085 0)
(-1.89078 2.0991 0)
(-1.92822 2.14031 6.04009e-18)
(-1.96092 2.1763 -1.1471e-17)
(-1.98995 2.20822 1.09147e-17)
(-2.01604 2.23693 -5.20597e-18)
(-2.03974 2.26299 4.66109e-18)
(-2.06144 2.28687 -4.76387e-18)
(-2.08145 2.3089 2.85476e-19)
(-2.10001 2.32934 4.66249e-18)
(-2.11731 2.34841 -3.96232e-18)
(-2.1335 2.36627 4.07022e-18)
(-2.14871 2.38306 -2.48893e-19)
(-2.16305 2.3989 -3.79887e-18)
(-2.17659 2.41388 -2.296e-19)
(-2.18942 2.42809 0)
(-2.20161 2.44159 -8.62134e-19)
(-2.2132 2.45444 0)
(-2.22424 2.46671 0)
(-2.23478 2.47842 -3.55058e-18)
(-2.24485 2.48962 3.07259e-18)
(-2.25448 2.50035 0)
(-2.26371 2.51064 0)
(-2.27255 2.5205 0)
(-2.28104 2.52998 -6.91083e-19)
(-2.28919 2.53908 3.37035e-19)
(-2.29701 2.54783 0)
(-2.30454 2.55625 0)
(-2.31177 2.56435 0)
(-2.31873 2.57215 -1.83597e-18)
(-2.32542 2.57966 2.69589e-18)
(-2.33186 2.58688 0)
(-2.33806 2.59384 0)
(-2.34403 2.60054 0)
(-2.34977 2.607 2.46229e-18)
(-2.35529 2.61321 -3.79678e-21)
(-2.36061 2.61919 -5.2441e-18)
(-2.36572 2.62494 3.59323e-18)
(-2.37063 2.63047 -1.50954e-18)
(-2.37535 2.63578 0)
(-2.37988 2.64089 4.81822e-19)
(-2.38423 2.6458 1.88552e-18)
(-2.3884 2.6505 -1.85057e-18)
(-2.39239 2.65501 -4.52671e-19)
(-2.39621 2.65932 2.21493e-18)
(-2.39987 2.66345 -8.71613e-19)
(-2.40336 2.66739 -8.5287e-19)
(-2.40668 2.67115 -8.34476e-19)
(-2.40985 2.67473 -1.01503e-21)
(-2.41286 2.67813 -1.20058e-18)
(-2.41571 2.68135 0)
(-2.4184 2.68441 3.82595e-19)
(-2.42095 2.68729 -7.52435e-19)
(-2.42334 2.69 -1.1028e-18)
(-2.42558 2.69254 3.6134e-19)
(-2.42767 2.69491 7.05605e-19)
(-2.42962 2.69712 1.03418e-21)
(-2.43142 2.69916 2.08914e-21)
(-2.43307 2.70103 6.63056e-19)
(-2.43457 2.70275 -6.47935e-19)
(-2.43593 2.70429 6.3405e-19)
(-2.43715 2.70568 0)
(-2.43822 2.7069 -6.05877e-19)
(-2.43914 2.70796 -5.91562e-19)
(-2.43992 2.70886 1.05375e-21)
(-2.44056 2.7096 -1.13439e-18)
(-2.44105 2.71017 1.11112e-18)
(-2.4414 2.71058 0)
(-2.44161 2.71083 -1.0653e-21)
(-2.44167 2.71091 -1.03712e-18)
(-2.44158 2.71084 5.0604e-19)
(-2.44135 2.7106 4.94237e-19)
(-2.44097 2.71019 4.8259e-19)
(-2.44044 2.70962 0)
(-2.43977 2.70888 0)
(-2.43895 2.70798 8.97381e-19)
(-2.43798 2.70691 -1.75088e-18)
(-2.43686 2.70568 -8.53846e-19)
(-2.43559 2.70427 8.32567e-19)
(-2.43417 2.7027 1.21638e-18)
(-2.4326 2.70095 3.94446e-19)
(-2.43088 2.69904 7.70764e-19)
(-2.429 2.69695 3.74353e-19)
(-2.42697 2.69469 7.29092e-19)
(-2.42479 2.69226 -3.57026e-19)
(-2.42245 2.68965 3.45438e-19)
(-2.41995 2.68687 -2.11843e-21)
(-1.21584 1.35736 9.17166e-18)
(-1.50525 1.68507 -8.48941e-18)
(-1.63674 1.82778 -7.50586e-18)
(-1.7233 1.92553 1.41589e-17)
(-1.78917 1.99832 -6.66979e-18)
(-1.84169 2.05654 7.12097e-18)
(-1.88529 2.10491 -1.26589e-17)
(-1.9226 2.14622 3.29385e-21)
(-1.95517 2.18228 5.68439e-18)
(-1.98407 2.21427 0)
(-2.01006 2.24301 0)
(-2.03365 2.26911 -3.07559e-19)
(-2.05525 2.29302 -2.94376e-19)
(-2.07518 2.31506 2.82287e-19)
(-2.09365 2.33551 5.55291e-23)
(-2.11088 2.35458 -2.609e-19)
(-2.127 2.37244 -5.02752e-19)
(-2.14215 2.38923 -3.27537e-23)
(-2.15643 2.40506 0)
(-2.16993 2.42004 2.26656e-19)
(-2.18272 2.43424 3.51004e-18)
(-2.19486 2.44774 -2.98007e-18)
(-2.20642 2.46059 0)
(-2.21743 2.47284 3.60584e-18)
(-2.22794 2.48455 -2.72845e-18)
(-2.23799 2.49575 -3.02894e-18)
(-2.2476 2.50648 2.95114e-18)
(-2.25681 2.51676 3.59025e-19)
(-2.26564 2.52663 0)
(-2.27411 2.53611 3.41065e-19)
(-2.28225 2.54521 0)
(-2.29006 2.55397 0)
(-2.29757 2.56239 -2.53388e-18)
(-2.3048 2.57049 2.16882e-18)
(-2.31174 2.57829 -6.04949e-19)
(-2.31843 2.58581 -2.36327e-18)
(-2.32486 2.59304 2.02514e-18)
(-2.33105 2.6 -2.82674e-19)
(-2.33701 2.60671 -2.21037e-18)
(-2.34275 2.61317 2.16647e-18)
(-2.34827 2.61939 -2.11659e-18)
(-2.35357 2.62538 2.59405e-18)
(-2.35868 2.63113 -2.02838e-18)
(-2.36358 2.63667 3.81418e-21)
(-2.3683 2.642 3.4072e-18)
(-2.37282 2.64711 -2.38564e-18)
(-2.37717 2.65202 0)
(-2.38133 2.65673 1.82798e-18)
(-2.38532 2.66125 -1.79474e-18)
(-2.38914 2.66557 0)
(-2.39279 2.66971 -4.30244e-19)
(-2.39628 2.67366 8.43142e-19)
(-2.3996 2.67742 -1.65027e-18)
(-2.40276 2.68101 3.64264e-18)
(-2.40577 2.68442 -1.19171e-18)
(-2.40861 2.68765 -3.88549e-19)
(-2.41131 2.69071 1.90142e-18)
(-2.41385 2.69359 7.4185e-19)
(-2.41624 2.69631 3.61284e-19)
(-2.41848 2.69886 -4.10949e-21)
(-2.42057 2.70124 -4.20684e-18)
(-2.42251 2.70345 -6.82572e-19)
(-2.42431 2.70549 4.15303e-21)
(-2.42596 2.70737 1.31907e-18)
(-2.42746 2.70909 -1.93206e-18)
(-2.42882 2.71064 -1.2581e-18)
(-2.43003 2.71203 3.15662e-21)
(-2.4311 2.71326 6.05654e-19)
(-2.43203 2.71432 -5.90559e-19)
(-2.43281 2.71522 1.15868e-18)
(-2.43345 2.71596 0)
(-2.43394 2.71654 -1.10645e-18)
(-2.43429 2.71695 5.4255e-19)
(-2.43449 2.7172 1.07228e-21)
(-2.43455 2.71729 1.03599e-18)
(-2.43447 2.71721 -5.05704e-19)
(-2.43424 2.71697 0)
(-2.43386 2.71656 -9.65336e-19)
(-2.43334 2.71599 0)
(-2.43267 2.71525 -9.20558e-19)
(-2.43185 2.71435 0)
(-2.43089 2.71328 4.39614e-19)
(-2.42977 2.71204 4.2897e-19)
(-2.42851 2.71063 -1.2512e-18)
(-2.42709 2.70906 -4.06038e-19)
(-2.42553 2.70731 -1.18976e-18)
(-2.42381 2.70539 -3.85867e-19)
(-2.42194 2.7033 7.54191e-19)
(-2.41992 2.70104 -3.66338e-19)
(-2.41774 2.6986 7.17885e-19)
(-2.4154 2.69599 -3.47445e-19)
(-2.41291 2.6932 -1.01897e-18)
(-1.21227 1.36166 0)
(-1.5014 1.68946 0)
(-1.63214 1.83299 7.4788e-18)
(-1.71842 1.93091 -3.46331e-21)
(-1.78409 2.00385 -7.51308e-18)
(-1.83633 2.06227 6.23826e-18)
(-1.87976 2.11074 -5.88803e-18)
(-1.9169 2.15215 0)
(-1.94932 2.18828 -3.51876e-19)
(-1.9781 2.22033 -5.68248e-18)
(-2.00397 2.24913 5.0982e-18)
(-2.02746 2.27527 6.08261e-19)
(-2.04896 2.2992 2.90945e-19)
(-2.0688 2.32127 -5.01918e-18)
(-2.0872 2.34174 4.01973e-18)
(-2.10435 2.36083 2.5764e-19)
(-2.1204 2.3787 2.48203e-19)
(-2.13549 2.3955 4.30867e-18)
(-2.14971 2.41134 -3.35929e-21)
(-2.16316 2.42632 -7.15872e-18)
(-2.1759 2.44053 3.46723e-18)
(-2.188 2.45403 0)
(-2.19952 2.46688 -3.25674e-18)
(-2.2105 2.47914 3.42118e-21)
(-2.22097 2.49085 3.07627e-18)
(-2.23099 2.50205 3.73765e-19)
(-2.24058 2.51278 2.90819e-18)
(-2.24976 2.52307 -6.37598e-18)
(-2.25857 2.53294 5.52259e-18)
(-2.26702 2.54242 -3.49059e-21)
(-2.27513 2.55152 -2.95621e-18)
(-2.28293 2.56028 0)
(-2.29043 2.56871 0)
(-2.29764 2.57682 3.05564e-19)
(-2.30457 2.58462 2.98588e-19)
(-2.31124 2.59214 -5.83741e-19)
(-2.31767 2.59938 9.39964e-24)
(-2.32385 2.60635 2.79161e-19)
(-2.3298 2.61306 0)
(-2.33552 2.61953 -2.40373e-18)
(-2.34103 2.62575 1.57167e-18)
(-2.34633 2.63175 -2.04737e-18)
(-2.35142 2.63751 2.51022e-18)
(-2.35632 2.64306 1.96345e-18)
(-2.36103 2.64839 -1.927e-18)
(-2.36555 2.65351 0)
(-2.36989 2.65843 0)
(-2.37405 2.66315 0)
(-2.37803 2.66767 0)
(-2.38185 2.672 -4.34696e-19)
(-2.38549 2.67614 -1.27612e-18)
(-2.38897 2.6801 1.25458e-18)
(-2.39229 2.68387 0)
(-2.39545 2.68746 -4.01085e-19)
(-2.39845 2.69088 -1.57044e-18)
(-2.40129 2.69412 1.9284e-18)
(-2.40398 2.69718 3.77587e-19)
(-2.40652 2.70007 -1.11443e-23)
(-2.40891 2.7028 3.6262e-19)
(-2.41115 2.70535 0)
(-2.41323 2.70773 6.96331e-19)
(-2.41517 2.70995 0)
(-2.41697 2.712 0)
(-2.41862 2.71389 -1.96183e-18)
(-2.42012 2.71561 3.20584e-18)
(-2.42148 2.71717 -6.29969e-19)
(-2.42269 2.71856 6.14826e-19)
(-2.42376 2.71979 0)
(-2.42468 2.72085 5.89217e-19)
(-2.42546 2.72176 5.74576e-19)
(-2.4261 2.7225 -2.25735e-18)
(-2.4266 2.72308 1.10642e-18)
(-2.42695 2.72349 0)
(-2.42715 2.72374 0)
(-2.42721 2.72383 5.16583e-19)
(-2.42713 2.72375 0)
(-2.4269 2.72351 4.93669e-19)
(-2.42653 2.7231 -4.80302e-19)
(-2.42601 2.72253 9.44897e-19)
(-2.42534 2.72179 -4.59377e-19)
(-2.42453 2.72089 1.35016e-18)
(-2.42357 2.71982 0)
(-2.42246 2.71858 -4.27544e-19)
(-2.4212 2.71717 4.19378e-19)
(-2.41979 2.71559 0)
(-2.41823 2.71384 -3.99201e-19)
(-2.41652 2.71191 1.16373e-18)
(-2.41465 2.70982 0)
(-2.41263 2.70755 0)
(-2.41046 2.70511 -1.07768e-18)
(-2.40813 2.70249 1.7527e-18)
(-2.40565 2.69969 6.82442e-19)
(-1.20857 1.36584 0)
(-1.49733 1.69388 -5.28428e-19)
(-1.62735 1.83817 4.96652e-19)
(-1.71344 1.93622 4.67111e-19)
(-1.77887 2.00938 6.58363e-18)
(-1.83089 2.06797 -6.60841e-18)
(-1.87415 2.11656 1.41539e-22)
(-1.91113 2.15807 -5.88179e-18)
(-1.94341 2.19429 5.92413e-18)
(-1.97205 2.22641 -5.29275e-18)
(-1.9978 2.25527 1.00823e-17)
(-2.02118 2.28146 -3.04116e-19)
(-2.04258 2.30544 -3.44907e-21)
(-2.06233 2.32755 -4.41096e-18)
(-2.08064 2.34805 0)
(-2.09771 2.36716 0)
(-2.11369 2.38506 3.91886e-18)
(-2.12871 2.40187 -7.79929e-18)
(-2.14287 2.41773 3.65387e-18)
(-2.15626 2.43273 -3.52995e-18)
(-2.16895 2.44695 3.42063e-18)
(-2.181 2.46046 0)
(-2.19248 2.47332 -3.21241e-18)
(-2.20341 2.48559 2.34218e-18)
(-2.21385 2.4973 3.03077e-18)
(-2.22383 2.50851 -3.3194e-18)
(-2.23339 2.51925 0)
(-2.24254 2.52954 3.49369e-19)
(-2.25132 2.53941 0)
(-2.25975 2.5489 0)
(-2.26784 2.55801 3.23823e-19)
(-2.27562 2.56677 -2.52671e-18)
(-2.28309 2.5752 2.47073e-18)
(-2.29028 2.58332 -2.10865e-18)
(-2.2972 2.59113 2.35886e-18)
(-2.30386 2.59865 5.76093e-19)
(-2.31026 2.6059 -1.97007e-18)
(-2.31643 2.61288 4.13354e-18)
(-2.32237 2.6196 -2.15904e-18)
(-2.32808 2.62607 2.63939e-19)
(-2.33358 2.6323 1.03359e-18)
(-2.33887 2.6383 -2.02238e-18)
(-2.34396 2.64407 1.48875e-18)
(-2.34885 2.64962 0)
(-2.35354 2.65496 9.51365e-19)
(-2.35806 2.66009 0)
(-2.36239 2.66502 1.36843e-18)
(-2.36654 2.66974 -4.51482e-19)
(-2.37052 2.67427 -1.75711e-18)
(-2.37433 2.67861 4.30136e-19)
(-2.37797 2.68276 0)
(-2.38144 2.68672 0)
(-2.38475 2.6905 0)
(-2.38791 2.6941 3.97291e-19)
(-2.3909 2.69752 -1.55597e-18)
(-2.39374 2.70076 3.05469e-18)
(-2.39643 2.70384 -3.36896e-18)
(-2.39896 2.70673 -3.62953e-19)
(-2.40135 2.70946 7.2143e-19)
(-2.40358 2.71202 -1.40833e-18)
(-2.40567 2.71441 4.06299e-21)
(-2.4076 2.71663 1.35679e-18)
(-2.40939 2.71869 6.638e-19)
(-2.41104 2.72058 6.50451e-19)
(-2.41254 2.7223 0)
(-2.4139 2.72386 1.87085e-18)
(-2.41511 2.72526 -4.15814e-21)
(-2.41618 2.72649 -1.19993e-18)
(-2.4171 2.72756 -5.86506e-19)
(-2.41788 2.72847 0)
(-2.41852 2.72921 0)
(-2.41902 2.72979 -5.50229e-19)
(-2.41937 2.73021 0)
(-2.41957 2.73046 -5.26855e-19)
(-2.41964 2.73055 -1.54408e-18)
(-2.41955 2.73047 5.08356e-19)
(-2.41933 2.73023 -4.8868e-19)
(-2.41896 2.72982 9.66009e-19)
(-2.41844 2.72925 -4.71074e-19)
(-2.41778 2.72851 9.20728e-19)
(-2.41697 2.7276 -8.99584e-19)
(-2.41601 2.72653 0)
(-2.4149 2.72529 0)
(-2.41365 2.72387 8.37863e-19)
(-2.41224 2.72229 0)
(-2.41069 2.72054 7.98157e-19)
(-2.40898 2.71861 -1.55745e-18)
(-2.40713 2.71651 0)
(-2.40512 2.71424 7.4072e-19)
(-2.40295 2.71179 0)
(-2.40063 2.70916 -7.03877e-19)
(-2.39816 2.70636 0)
(-1.20467 1.3699 9.15816e-18)
(-1.49297 1.6983 9.48492e-18)
(-1.62229 1.84328 -1.58307e-17)
(-1.70821 1.94148 3.40379e-21)
(-1.77339 2.01489 7.85102e-18)
(-1.82521 2.07363 -6.96312e-18)
(-1.86831 2.12235 -3.82125e-19)
(-1.90514 2.16398 5.82973e-18)
(-1.9373 2.2003 5.86069e-18)
(-1.96582 2.2325 -1.01481e-17)
(-1.99146 2.26144 3.15093e-19)
(-2.01473 2.28769 4.45943e-18)
(-2.03605 2.31173 0)
(-2.0557 2.33388 2.72133e-19)
(-2.07393 2.35443 2.61229e-19)
(-2.09092 2.37358 0)
(-2.10683 2.3915 3.86729e-18)
(-2.12178 2.40835 -3.39212e-21)
(-2.13588 2.42423 -3.37936e-18)
(-2.14921 2.43925 2.17731e-19)
(-2.16185 2.45349 0)
(-2.17385 2.46702 -2.85732e-18)
(-2.18527 2.47989 2.77488e-18)
(-2.19616 2.49218 -3.18204e-23)
(-2.20656 2.50391 -2.98833e-18)
(-2.21651 2.51513 3.27291e-18)
(-2.22602 2.52587 0)
(-2.23515 2.53617 0)
(-2.24389 2.54606 -2.34809e-18)
(-2.25229 2.55555 3.43241e-21)
(-2.26036 2.56467 2.55632e-18)
(-2.26811 2.57344 0)
(-2.27556 2.58188 -2.43329e-18)
(-2.28273 2.59 2.08333e-18)
(-2.28963 2.59782 -2.03272e-18)
(-2.29626 2.60535 1.99094e-18)
(-2.30266 2.6126 -2.77938e-19)
(-2.30881 2.61958 -1.90172e-18)
(-2.31473 2.62631 2.13082e-18)
(-2.32043 2.63279 0)
(-2.32591 2.63903 2.03895e-18)
(-2.33119 2.64503 -2.00053e-18)
(-2.33626 2.65081 0)
(-2.34114 2.65637 0)
(-2.34583 2.66172 -2.34789e-18)
(-2.35033 2.66685 1.3836e-18)
(-2.35466 2.67179 2.25541e-18)
(-2.3588 2.67652 -3.09792e-18)
(-2.36277 2.68106 1.73742e-18)
(-2.36657 2.6854 0)
(-2.3702 2.68955 0)
(-2.37367 2.69352 2.04318e-18)
(-2.37698 2.69731 -1.6063e-18)
(-2.38013 2.70092 -3.9332e-19)
(-2.38312 2.70434 0)
(-2.38595 2.70759 -1.88923e-18)
(-2.38863 2.71067 3.95293e-21)
(-2.39116 2.71357 1.09312e-18)
(-2.39354 2.71631 2.13782e-18)
(-2.39577 2.71887 -1.75041e-18)
(-2.39786 2.72126 6.85679e-19)
(-2.39979 2.72349 0)
(-2.40158 2.72555 -1.40303e-23)
(-2.40322 2.72745 0)
(-2.40472 2.72918 6.33062e-19)
(-2.40608 2.73074 6.18331e-19)
(-2.40729 2.73214 -1.21789e-18)
(-2.40835 2.73338 5.95595e-19)
(-2.40928 2.73445 5.83452e-19)
(-2.41006 2.73536 5.71474e-19)
(-2.4107 2.7361 -1.11722e-18)
(-2.41119 2.73668 1.6461e-18)
(-2.41154 2.7371 0)
(-2.41175 2.73735 5.25133e-19)
(-2.41182 2.73744 -5.13913e-19)
(-2.41174 2.73736 -1.00569e-18)
(-2.41151 2.73712 -4.91918e-19)
(-2.41114 2.73672 0)
(-2.41063 2.73614 4.70491e-19)
(-2.40997 2.7354 0)
(-2.40916 2.73449 8.99209e-19)
(-2.40821 2.73342 0)
(-2.40711 2.73217 0)
(-2.40586 2.73076 -8.36462e-19)
(-2.40446 2.72917 2.15483e-21)
(-2.40291 2.72741 7.99555e-19)
(-2.40121 2.72548 7.33834e-24)
(-2.39936 2.72338 -7.61587e-19)
(-2.39736 2.7211 -7.43017e-19)
(-2.3952 2.71864 -1.44726e-18)
(-2.39289 2.71601 7.08834e-19)
(-2.39042 2.7132 0)
(-1.20065 1.37392 -9.14862e-18)
(-1.48835 1.7028 7.88608e-18)
(-1.61699 1.84842 0)
(-1.70274 1.94678 7.38882e-18)
(-1.76765 2.02044 -7.7958e-18)
(-1.81929 2.07933 -9.0137e-23)
(-1.86224 2.12819 5.73294e-18)
(-1.89893 2.16993 -3.58245e-21)
(-1.93096 2.20635 -6.14417e-18)
(-1.95937 2.23865 0)
(-1.9849 2.26766 -3.07907e-19)
(-2.00808 2.29399 -4.6962e-18)
(-2.02931 2.31808 4.49123e-18)
(-2.04888 2.34029 0)
(-2.06703 2.36089 -2.57788e-19)
(-2.08395 2.38008 -2.47814e-19)
(-2.09979 2.39805 0)
(-2.11467 2.41493 -3.44836e-18)
(-2.12871 2.43084 6.88412e-18)
(-2.14198 2.44589 -7.0844e-18)
(-2.15456 2.46016 6.64902e-18)
(-2.16651 2.47371 -4.05991e-19)
(-2.17788 2.48661 -2.73546e-18)
(-2.18873 2.49891 3.79129e-19)
(-2.19909 2.51065 0)
(-2.20899 2.52189 -3.58246e-19)
(-2.21847 2.53265 0)
(-2.22755 2.54296 3.05421e-18)
(-2.23627 2.55286 -2.97966e-18)
(-2.24463 2.56236 2.57945e-18)
(-2.25267 2.5715 -5.03654e-18)
(-2.26039 2.58028 2.76719e-18)
(-2.26782 2.58872 0)
(-2.27496 2.59686 2.34391e-18)
(-2.28184 2.60468 -5.15873e-18)
(-2.28846 2.61222 2.2437e-18)
(-2.29483 2.61948 -1.29254e-24)
(-2.30096 2.62647 0)
(-2.30686 2.63321 -2.3612e-18)
(-2.31255 2.6397 3.5592e-21)
(-2.31802 2.64594 1.51224e-18)
(-2.32328 2.65195 0)
(-2.32834 2.65774 -1.931e-18)
(-2.33321 2.66331 2.36936e-18)
(-2.33788 2.66866 0)
(-2.34238 2.6738 7.85893e-24)
(-2.34669 2.67874 -1.78218e-18)
(-2.35082 2.68348 3.06119e-18)
(-2.35478 2.68803 -2.14603e-18)
(-2.35857 2.69238 0)
(-2.3622 2.69654 4.12458e-19)
(-2.36566 2.70051 -4.04553e-19)
(-2.36896 2.70431 0)
(-2.3721 2.70792 -1.55494e-18)
(-2.37508 2.71135 1.52907e-18)
(-2.37791 2.71461 3.74499e-19)
(-2.38059 2.71769 0)
(-2.38312 2.7206 7.20627e-19)
(-2.38549 2.72334 -3.53414e-19)
(-2.38772 2.72591 7.12292e-24)
(-2.3898 2.72831 6.77886e-19)
(-2.39173 2.73054 -1.33552e-18)
(-2.39351 2.7326 -6.53833e-19)
(-2.39515 2.7345 -6.41084e-19)
(-2.39665 2.73623 -6.28548e-19)
(-2.398 2.7378 0)
(-2.39921 2.7392 6.03978e-19)
(-2.40028 2.74044 -5.91965e-19)
(-2.4012 2.74152 -1.1602e-18)
(-2.40198 2.74243 -5.68404e-19)
(-2.40262 2.74317 -1.11162e-18)
(-2.40312 2.74376 1.63845e-18)
(-2.40347 2.74417 -1.06631e-18)
(-2.40368 2.74443 5.25201e-19)
(-2.40374 2.74452 1.53427e-18)
(-2.40367 2.74444 -5.03409e-19)
(-2.40344 2.7442 4.90607e-19)
(-2.40308 2.74379 -9.57955e-19)
(-2.40257 2.74322 9.4136e-19)
(-2.40191 2.74248 0)
(-2.40111 2.74157 -1.7966e-18)
(-2.40016 2.74049 -8.78216e-19)
(-2.39906 2.73924 8.58395e-19)
(-2.39782 2.73782 -1.67767e-18)
(-2.39642 2.73623 8.1953e-19)
(-2.39488 2.73447 -1.59879e-18)
(-2.39319 2.73253 1.56551e-18)
(-2.39134 2.73042 6.61346e-24)
(-2.38935 2.72814 7.42686e-19)
(-2.3872 2.72568 -2.15737e-21)
(-2.38489 2.72304 -7.09059e-19)
(-2.38244 2.72023 6.8939e-19)
(-1.1965 1.37797 -8.60365e-18)
(-1.48351 1.7074 -8.38535e-18)
(-1.61151 1.85361 3.27246e-21)
(-1.69706 1.95217 1.4692e-17)
(-1.76171 2.02607 -6.44968e-18)
(-1.81317 2.08512 6.84912e-18)
(-1.85595 2.13412 -5.68352e-18)
(-1.8925 2.17598 0)
(-1.9244 2.2125 3.37548e-19)
(-1.95271 2.24489 4.79933e-18)
(-1.97814 2.27398 -4.56611e-18)
(-2.00122 2.30038 5.8002e-19)
(-2.02236 2.32454 2.7706e-19)
(-2.04184 2.34681 -3.97638e-18)
(-2.05992 2.36745 4.32619e-18)
(-2.07677 2.38669 4.15368e-18)
(-2.09254 2.40471 -3.766e-18)
(-2.10736 2.42163 3.62704e-18)
(-2.12133 2.43758 -3.50459e-18)
(-2.13455 2.45266 -2.11631e-19)
(-2.14707 2.46695 -3.27507e-18)
(-2.15897 2.48053 3.17631e-18)
(-2.1703 2.49346 3.84882e-19)
(-2.18109 2.50578 -3.73631e-19)
(-2.19141 2.51755 0)
(-2.20127 2.52881 -2.82242e-18)
(-2.21071 2.53958 2.75003e-18)
(-2.21976 2.54991 -3.34562e-19)
(-2.22843 2.55983 0)
(-2.23677 2.56934 2.85975e-18)
(-2.24477 2.57849 -2.79354e-18)
(-2.25246 2.58728 -3.02653e-18)
(-2.25986 2.59574 2.3678e-18)
(-2.26698 2.60389 -2.31028e-18)
(-2.27383 2.61173 2.54431e-18)
(-2.28043 2.61927 0)
(-2.28677 2.62654 2.70279e-19)
(-2.29289 2.63355 2.64504e-19)
(-2.29877 2.64029 -1.55181e-18)
(-2.30443 2.64678 4.0567e-18)
(-2.30989 2.65304 -5.00212e-19)
(-2.31513 2.65906 -3.40614e-18)
(-2.32018 2.66486 1.90906e-18)
(-2.32503 2.67043 9.32866e-19)
(-2.32969 2.67579 -1.83429e-18)
(-2.33417 2.68094 4.49167e-19)
(-2.33847 2.68589 1.75993e-18)
(-2.3426 2.69063 -8.65723e-19)
(-2.34655 2.69518 2.11644e-18)
(-2.35033 2.69954 -1.24857e-18)
(-2.35394 2.70371 -6.51309e-24)
(-2.3574 2.70769 0)
(-2.36069 2.71149 -1.56762e-18)
(-2.36382 2.71511 1.92679e-18)
(-2.3668 2.71855 0)
(-2.36962 2.72181 0)
(-2.37229 2.7249 1.45256e-18)
(-2.37481 2.72781 -7.17439e-19)
(-2.37718 2.73056 -1.75213e-18)
(-2.3794 2.73313 -1.02827e-18)
(-2.38148 2.73553 1.34959e-18)
(-2.38341 2.73777 -6.60989e-19)
(-2.38519 2.73984 6.46379e-19)
(-2.38683 2.74174 -6.37952e-19)
(-2.38832 2.74348 -1.2454e-18)
(-2.38967 2.74505 1.22531e-18)
(-2.39088 2.74645 -1.1995e-18)
(-2.39195 2.7477 0)
(-2.39287 2.74877 2.3037e-18)
(-2.39365 2.74969 -1.13209e-18)
(-2.39429 2.75043 -1.10541e-18)
(-2.39478 2.75102 5.44683e-19)
(-2.39513 2.75144 0)
(-2.39534 2.75169 5.20769e-19)
(-2.39541 2.75178 0)
(-2.39533 2.7517 4.99455e-19)
(-2.39511 2.75146 4.86881e-19)
(-2.39475 2.75105 -9.59451e-19)
(-2.39424 2.75048 0)
(-2.39359 2.74973 4.58375e-19)
(-2.39279 2.74882 1.79367e-18)
(-2.39185 2.74774 8.77166e-19)
(-2.39075 2.74649 -8.57735e-19)
(-2.38952 2.74507 7.50961e-24)
(-2.38813 2.74347 0)
(-2.38659 2.74171 -8.00888e-19)
(-2.3849 2.73977 -2.16166e-21)
(-2.38307 2.73765 -2.15811e-21)
(-2.38108 2.73536 0)
(-2.37894 2.7329 -7.28496e-19)
(-2.37664 2.73026 1.41985e-18)
(-2.37419 2.72743 -2.17074e-21)
(-1.19224 1.38205 -8.59486e-18)
(-1.47846 1.71211 -8.3611e-18)
(-1.60584 1.85888 1.56137e-17)
(-1.69117 1.95766 -7.30196e-18)
(-1.75554 2.0318 0)
(-1.80682 2.09101 0)
(-1.84944 2.14015 0)
(-1.88585 2.18213 5.65219e-18)
(-1.91763 2.21875 -5.34356e-18)
(-1.94582 2.25123 3.16332e-19)
(-1.97115 2.28041 4.80793e-18)
(-1.99414 2.30688 -2.89799e-19)
(-2.01519 2.3311 -9.02367e-18)
(-2.03459 2.35343 3.92691e-18)
(-2.05259 2.37414 -5.01842e-19)
(-2.06937 2.39343 4.09617e-18)
(-2.08507 2.41149 2.28619e-19)
(-2.09983 2.42845 -3.80216e-18)
(-2.11374 2.44444 0)
(-2.1269 2.45956 3.75202e-18)
(-2.13937 2.47389 -3.23032e-18)
(-2.15121 2.4875 3.90991e-19)
(-2.16249 2.50045 -3.79135e-19)
(-2.17324 2.5128 3.68034e-19)
(-2.18351 2.5246 0)
(-2.19333 2.53588 2.7802e-18)
(-2.20273 2.54667 -2.70889e-18)
(-2.21173 2.55703 3.29577e-19)
(-2.22038 2.56696 3.21186e-19)
(-2.22867 2.57649 -6.26392e-19)
(-2.23665 2.58565 2.74865e-18)
(-2.24431 2.59446 -4.47503e-18)
(-2.25168 2.60294 2.33286e-18)
(-2.25877 2.61109 1.9916e-18)
(-2.26559 2.61894 -4.45418e-18)
(-2.27216 2.62651 2.17986e-18)
(-2.27848 2.63379 2.66391e-19)
(-2.28457 2.6408 -2.60721e-19)
(-2.29044 2.64755 2.04035e-18)
(-2.29608 2.65406 -1.75163e-18)
(-2.30151 2.66032 -9.77792e-19)
(-2.30674 2.66635 1.44146e-18)
(-2.31177 2.67216 -4.70339e-19)
(-2.31661 2.67774 1.84246e-18)
(-2.32126 2.68311 -1.80998e-18)
(-2.32572 2.68827 2.21465e-18)
(-2.33001 2.69322 -3.61343e-21)
(-2.33412 2.69798 -4.301e-19)
(-2.33806 2.70253 -1.67529e-18)
(-2.34183 2.7069 -4.1047e-19)
(-2.34543 2.71107 1.2064e-18)
(-2.34888 2.71506 -1.58269e-18)
(-2.35216 2.71887 -3.87828e-19)
(-2.35528 2.72249 0)
(-2.35825 2.72594 -3.73525e-19)
(-2.36107 2.72921 -1.46444e-18)
(-2.36373 2.7323 1.8008e-18)
(-2.36625 2.73522 2.11662e-18)
(-2.36861 2.73797 -6.94982e-19)
(-2.37083 2.74055 0)
(-2.3729 2.74295 6.67433e-19)
(-2.37482 2.74519 1.96286e-18)
(-2.3766 2.74727 -1.28725e-18)
(-2.37823 2.74917 6.30521e-19)
(-2.37973 2.75091 -1.23517e-18)
(-2.38107 2.75249 4.02494e-21)
(-2.38228 2.7539 2.38289e-18)
(-2.38334 2.75514 0)
(-2.38426 2.75622 -7.49319e-24)
(-2.38504 2.75713 1.12062e-18)
(-2.38568 2.75788 -1.10273e-18)
(-2.38618 2.75847 0)
(-2.38653 2.75889 1.58414e-18)
(-2.38674 2.75915 -4.17008e-21)
(-2.38681 2.75923 -1.01744e-18)
(-2.38673 2.75916 4.95222e-19)
(-2.38652 2.75892 -4.89209e-19)
(-2.38616 2.75851 0)
(-2.38565 2.75793 0)
(-2.385 2.75718 -4.29792e-24)
(-2.38421 2.75627 -8.15077e-24)
(-2.38327 2.75519 8.75565e-19)
(-2.38218 2.75393 -8.56534e-19)
(-2.38095 2.75251 2.1565e-21)
(-2.37956 2.75091 4.30858e-21)
(-2.37803 2.74914 2.4046e-18)
(-2.37635 2.74719 7.82701e-19)