/*--------------------------------*- C++ -*----------------------------------*\
  =========                 |
  \\      /  F ield         | OpenFOAM: The Open Source CFD Toolbox
   \\    /   O peration     | Website:  https://openfoam.org
    \\  /    A nd           | Version:  10
     \\/     M anipulation  |
\*---------------------------------------------------------------------------*/
FoamFile
{
    format      ascii;
    class       volScalarField;
    location    "70000";
    object      k;
}
// * * * * * * * * * * * * * * * * * * * * * * * * * * * * * * * * * * * * * //

dimensions      [0 2 -2 0 0 0 0];

internalField   nonuniform List<scalar> 
17981
(
0.0516621
0.0528422
0.0541889
0.0557044
0.0573871
0.0592321
0.0612312
0.0633732
0.0656443
0.0680286
0.0705089
0.0730674
0.0756861
0.0783472
0.0810339
0.0837306
0.0864227
0.0890973
0.0917429
0.0943496
0.0969087
0.0994132
0.101857
0.104235
0.106545
0.108782
0.110946
0.113034
0.115047
0.116984
0.118846
0.120634
0.122348
0.12399
0.125562
0.127066
0.128504
0.129877
0.131189
0.132441
0.133635
0.134772
0.135855
0.136885
0.137866
0.138798
0.139685
0.140528
0.0512533
0.0525051
0.0539347
0.0555444
0.0573326
0.0592941
0.0614199
0.0636974
0.0661114
0.0686446
0.0712781
0.0739922
0.0767674
0.0795846
0.0824255
0.0852733
0.0881127
0.0909297
0.0937124
0.0964502
0.0991342
0.101757
0.104313
0.106796
0.109204
0.111533
0.113782
0.11595
0.118036
0.12004
0.121963
0.123806
0.125571
0.127259
0.128872
0.130412
0.131882
0.133283
0.13462
0.135892
0.137103
0.138254
0.139348
0.140387
0.141374
0.14231
0.143199
0.144041
0.0509131
0.0522539
0.0537847
0.0555078
0.0574212
0.0595189
0.0617907
0.0642226
0.0667976
0.0694964
0.0722984
0.0751819
0.0781259
0.0811095
0.0841133
0.0871194
0.0901114
0.0930749
0.0959973
0.0988677
0.101677
0.104418
0.107083
0.109669
0.112172
0.11459
0.11692
0.119161
0.121314
0.12338
0.125358
0.12725
0.129059
0.130785
0.132432
0.134001
0.135496
0.136918
0.138272
0.139557
0.140778
0.141936
0.143033
0.144073
0.145058
0.145991
0.146874
0.147709
0.0576663
0.0599213
0.0623596
0.0649655
0.0677197
0.0706009
0.0735861
0.076652
0.0797755
0.0829345
0.0861083
0.0892779
0.0924261
0.0955381
0.0986008
0.101603
0.104536
0.107391
0.110163
0.112847
0.11544
0.117939
0.120344
0.122652
0.124866
0.126984
0.12901
0.130943
0.132787
0.134544
0.136216
0.137806
0.139316
0.140751
0.142113
0.143403
0.144624
0.145779
0.146872
0.147905
0.14888
0.149801
0.15067
0.15149
0.0580854
0.0605198
0.0631459
0.0659454
0.0688967
0.0719759
0.075158
0.0784175
0.0817297
0.085071
0.0884195
0.0917554
0.0950611
0.098321
0.101522
0.104653
0.107704
0.110669
0.113541
0.116317
0.118992
0.121565
0.124035
0.126402
0.128666
0.130829
0.132892
0.134857
0.136726
0.138503
0.140191
0.141791
0.143308
0.144746
0.146105
0.147389
0.148602
0.149746
0.150824
0.15184
0.152796
0.153696
0.154542
0.155338
0.0586995
0.0613358
0.0641703
0.0671822
0.0703469
0.0736381
0.0770282
0.0804901
0.0839971
0.0875246
0.0910496
0.0945517
0.0980128
0.101417
0.104752
0.108005
0.111169
0.114235
0.117198
0.120055
0.122803
0.12544
0.127965
0.130379
0.132683
0.134879
0.136968
0.138953
0.140837
0.142623
0.144314
0.145915
0.147428
0.148856
0.150202
0.15147
0.152663
0.153785
0.154839
0.155828
0.156755
0.157625
0.158439
0.159201
0.0623907
0.0654527
0.0686933
0.072085
0.0755988
0.079205
0.0828742
0.0865787
0.0902925
0.0939922
0.0976567
0.101268
0.10481
0.10827
0.111637
0.114902
0.118059
0.121103
0.12403
0.126838
0.129526
0.132094
0.134542
0.136873
0.139089
0.141191
0.143184
0.14507
0.146852
0.148536
0.150125
0.151621
0.153028
0.154349
0.155589
0.156752
0.15784
0.158858
0.15981
0.160698
0.161527
0.162299
0.163017
0.0704874
0.0741158
0.0778587
0.0816844
0.0855619
0.0894621
0.0933584
0.0972267
0.101046
0.104798
0.108468
0.112042
0.11551
0.118864
0.122099
0.125209
0.128192
0.131046
0.133771
0.136367
0.138836
0.14118
0.143401
0.145503
0.14749
0.149364
0.151131
0.152794
0.154357
0.155822
0.157195
0.15848
0.15968
0.1608
0.161843
0.162815
0.163717
0.164556
0.165333
0.166053
0.166718
0.0764293
0.0804033
0.0844474
0.0885293
0.0926191
0.0966895
0.100717
0.104679
0.10856
0.112343
0.116017
0.119571
0.123
0.126296
0.129457
0.13248
0.135364
0.13811
0.140719
0.143192
0.145533
0.147746
0.149832
0.151798
0.153647
0.155384
0.157012
0.158534
0.159957
0.161283
0.162517
0.163665
0.16473
0.165718
0.166631
0.167475
0.168252
0.168968
0.169626
0.170228
0.0874575
0.0917353
0.0960039
0.100236
0.104408
0.108498
0.112491
0.116371
0.120128
0.123751
0.127236
0.130576
0.13377
0.136815
0.139712
0.142462
0.145067
0.147529
0.149852
0.15204
0.154096
0.156027
0.157837
0.159528
0.161106
0.162575
0.16394
0.165207
0.166379
0.167463
0.168462
0.169382
0.170227
0.171001
0.171708
0.172353
0.172939
0.17347
0.10823
0.112431
0.116517
0.120474
0.124294
0.127967
0.131488
0.134853
0.138061
0.14111
0.144003
0.146739
0.149323
0.151757
0.154046
0.156194
0.158206
0.160088
0.161842
0.163474
0.164988
0.166391
0.167687
0.168882
0.169981
0.170989
0.171912
0.172754
0.17352
0.174215
0.174843
0.175408
0.175914
0.176366
0.112103
0.116391
0.120548
0.124562
0.128423
0.132124
0.135661
0.139031
0.142234
0.145268
0.148137
0.150843
0.153389
0.155779
0.158019
0.160113
0.162067
0.163884
0.165569
0.167128
0.168567
0.169891
0.171107
0.17222
0.173235
0.174159
0.174996
0.175751
0.176431
0.177038
0.177579
0.178057
0.178477
0.178843
0.115928
0.120279
0.124484
0.12853
0.132409
0.136117
0.139649
0.143005
0.146182
0.149184
0.152013
0.154671
0.157164
0.159496
0.161673
0.163699
0.16558
0.167319
0.168924
0.170399
0.171752
0.172988
0.174115
0.175136
0.17606
0.176891
0.177635
0.178297
0.178883
0.179397
0.179845
0.180231
0.180559
0.180835
0.119598
0.123988
0.128215
0.13227
0.136146
0.139838
0.143345
0.146666
0.149801
0.152754
0.155526
0.158123
0.160549
0.162811
0.164913
0.166859
0.168655
0.170306
0.171821
0.173204
0.174462
0.175603
0.176633
0.177557
0.178383
0.179115
0.179761
0.180325
0.180813
0.181231
0.181582
0.181873
0.182106
0.182288
0.127406
0.131632
0.135672
0.139523
0.143181
0.146644
0.149913
0.152991
0.155879
0.158582
0.161106
0.163455
0.165636
0.167651
0.169507
0.17121
0.172766
0.174183
0.175468
0.176627
0.177668
0.178596
0.17942
0.180144
0.180775
0.18132
0.181784
0.182173
0.182491
0.182745
0.182939
0.183078
0.183166
0.13043
0.13463
0.138636
0.142442
0.146046
0.149449
0.152653
0.155658
0.158471
0.161095
0.163537
0.165801
0.167891
0.169812
0.171572
0.173176
0.174633
0.17595
0.177134
0.178191
0.179129
0.179956
0.180677
0.181299
0.181829
0.182274
0.182638
0.182928
0.183149
0.183307
0.183406
0.183452
0.183449
0.132962
0.137117
0.141067
0.144811
0.148348
0.151678
0.154803
0.157728
0.160457
0.162996
0.165349
0.16752
0.169514
0.171338
0.172999
0.174504
0.175861
0.177077
0.178159
0.179116
0.179954
0.180679
0.181301
0.181824
0.182256
0.182603
0.182871
0.183066
0.183194
0.183259
0.183268
0.183225
0.183135
0.139012
0.142893
0.146561
0.150018
0.153264
0.156304
0.159142
0.161783
0.164232
0.166492
0.168567
0.170465
0.172192
0.173755
0.175162
0.176422
0.17754
0.178525
0.179385
0.180127
0.180757
0.181284
0.181713
0.182053
0.182308
0.182486
0.182593
0.182633
0.182613
0.182538
0.182413
0.182242
0.14026
0.144057
0.147639
0.151007
0.154165
0.157115
0.159862
0.162414
0.164771
0.166937
0.168919
0.170722
0.172356
0.173826
0.175141
0.176309
0.177336
0.178231
0.179001
0.179654
0.180198
0.180638
0.180982
0.181237
0.18141
0.181507
0.181533
0.181495
0.181399
0.181249
0.18105
0.180808
0.140823
0.144527
0.148016
0.151291
0.154356
0.157215
0.159874
0.162335
0.164602
0.166678
0.168571
0.170287
0.171834
0.17322
0.174451
0.175536
0.176481
0.177296
0.177986
0.178561
0.179027
0.179391
0.179661
0.179844
0.179945
0.179972
0.17993
0.179825
0.179663
0.179449
0.179188
0.178885
0.140686
0.144292
0.147683
0.150864
0.153836
0.156606
0.159178
0.161554
0.163735
0.165729
0.167541
0.169179
0.17065
0.17196
0.173117
0.17413
0.175006
0.175752
0.176376
0.176886
0.177288
0.177591
0.1778
0.177923
0.177966
0.177936
0.177839
0.17768
0.177465
0.177199
0.176888
0.176536
0.139859
0.143363
0.146656
0.149742
0.152625
0.155309
0.157799
0.160095
0.1622
0.16412
0.165861
0.167431
0.168835
0.170083
0.171181
0.172137
0.172957
0.17365
0.174224
0.174684
0.175038
0.175294
0.175458
0.175537
0.175537
0.175465
0.175326
0.175127
0.174873
0.17457
0.174222
0.173834
0.13837
0.141769
0.144964
0.147958
0.150755
0.15336
0.155775
0.157999
0.160035
0.161891
0.163573
0.165088
0.166442
0.167643
0.168698
0.169612
0.170395
0.171052
0.171591
0.172019
0.172342
0.172568
0.172703
0.172754
0.172727
0.172628
0.172464
0.17224
0.171962
0.171634
0.171263
0.170853
0.13626
0.139555
0.142654
0.145559
0.148276
0.150808
0.153153
0.155312
0.157292
0.159098
0.160736
0.162212
0.163532
0.164703
0.165731
0.166623
0.167385
0.168024
0.168546
0.168959
0.169269
0.169483
0.169606
0.169646
0.169608
0.169499
0.169325
0.169091
0.168803
0.168466
0.168086
0.167667
0.133587
0.136778
0.139783
0.142604
0.145243
0.147705
0.14999
0.152098
0.154035
0.155805
0.157413
0.158866
0.160169
0.161328
0.162347
0.163234
0.163994
0.164633
0.165158
0.165575
0.165889
0.166108
0.166237
0.166283
0.166251
0.166148
0.16598
0.165752
0.165469
0.165137
0.164762
0.164347
0.130413
0.133501
0.136413
0.13915
0.141717
0.144119
0.146355
0.148424
0.15033
0.152078
0.153673
0.155119
0.156421
0.157585
0.158614
0.159514
0.16029
0.160948
0.161493
0.161932
0.162269
0.162511
0.162663
0.162732
0.162723
0.162643
0.162496
0.162288
0.162025
0.161712
0.161355
0.160957
0.126806
0.129791
0.132611
0.135269
0.13777
0.140119
0.142314
0.144354
0.146243
0.147984
0.14958
0.151035
0.152353
0.153538
0.154593
0.155524
0.156335
0.15703
0.157614
0.158093
0.158471
0.158753
0.158946
0.159055
0.159085
0.159042
0.158931
0.158758
0.158529
0.158248
0.157921
0.157552
0.122836
0.125717
0.128447
0.13103
0.133471
0.135773
0.137935
0.139958
0.14184
0.143585
0.145196
0.146675
0.148024
0.149247
0.150346
0.151325
0.152187
0.152937
0.153577
0.154113
0.154548
0.154889
0.155138
0.155303
0.155387
0.155396
0.155336
0.155212
0.155029
0.154792
0.154507
0.154179
0.118572
0.121349
0.123991
0.126503
0.128887
0.131146
0.133283
0.135296
0.137182
0.138943
0.14058
0.142095
0.143489
0.144765
0.145923
0.146966
0.147896
0.148716
0.149429
0.150039
0.150548
0.150962
0.151284
0.151519
0.151672
0.151748
0.151752
0.151689
0.151564
0.151383
0.151151
0.150872
0.116757
0.119312
0.121753
0.124083
0.126304
0.128418
0.130425
0.132323
0.134108
0.135782
0.137345
0.138797
0.140138
0.141368
0.14249
0.143502
0.144409
0.14521
0.145908
0.146507
0.147009
0.147418
0.147739
0.147974
0.148129
0.14821
0.148219
0.148164
0.148049
0.147879
0.147659
0.112004
0.114471
0.116842
0.119119
0.121304
0.123397
0.125401
0.127313
0.12913
0.130849
0.132469
0.133988
0.135405
0.13672
0.137932
0.139041
0.140047
0.14095
0.141752
0.142453
0.143058
0.143568
0.143986
0.144316
0.144563
0.144731
0.144824
0.144848
0.144808
0.144708
0.144555
0.10716
0.109532
0.11183
0.114053
0.116201
0.118275
0.120276
0.122201
0.124051
0.12582
0.127502
0.129096
0.130599
0.132009
0.133322
0.134538
0.135656
0.136673
0.13759
0.138408
0.139127
0.139749
0.140277
0.140714
0.141064
0.141329
0.141516
0.141628
0.141671
0.141651
0.141571
0.102279
0.104553
0.10677
0.108933
0.111043
0.113097
0.115094
0.117033
0.118912
0.120729
0.122477
0.124152
0.125746
0.127257
0.128681
0.130014
0.131252
0.132394
0.133438
0.134383
0.135228
0.135974
0.136624
0.137178
0.137639
0.138013
0.138301
0.13851
0.138644
0.138709
0.138709
0.103813
0.105876
0.107903
0.109894
0.111846
0.113754
0.115614
0.117424
0.119177
0.120867
0.122484
0.124024
0.12548
0.126849
0.128125
0.129304
0.130386
0.131367
0.132248
0.133028
0.133709
0.134292
0.134782
0.135181
0.135494
0.135726
0.135881
0.135967
0.098736
0.100744
0.102736
0.104712
0.106668
0.108601
0.110505
0.112373
0.1142
0.115979
0.117703
0.119363
0.120948
0.122452
0.123868
0.125192
0.126419
0.127546
0.128569
0.129489
0.130305
0.131019
0.131633
0.13215
0.132574
0.13291
0.133163
0.133338
0.0937372
0.0956813
0.0976293
0.0995802
0.101532
0.103479
0.105418
0.107342
0.109241
0.111107
0.112932
0.114706
0.116421
0.118065
0.119627
0.121102
0.122481
0.12376
0.124935
0.126003
0.126963
0.127815
0.128561
0.129202
0.129744
0.130189
0.130544
0.130815
0.0888496
0.0907191
0.0926116
0.0945266
0.0964622
0.0984145
0.100378
0.102345
0.104309
0.106258
0.108182
0.110069
0.111908
0.113689
0.1154
0.117029
0.118567
0.120005
0.121338
0.122561
0.123673
0.12467
0.125555
0.126328
0.126993
0.127554
0.128017
0.128386
0.0841038
0.0858863
0.0877102
0.0895759
0.0914822
0.0934258
0.0954014
0.0974018
0.0994182
0.10144
0.103455
0.105452
0.107414
0.10933
0.111185
0.11297
0.11467
0.116273
0.117771
0.119156
0.120426
0.121576
0.122606
0.123517
0.124312
0.124994
0.125568
0.126041
0.0795224
0.0812063
0.0829483
0.0847504
0.0866124
0.0885322
0.0905052
0.0925245
0.0945812
0.0966642
0.0987608
0.100857
0.102937
0.104986
0.106986
0.108923
0.110785
0.112556
0.114223
0.115777
0.117211
0.11852
0.119703
0.120759
0.121689
0.122497
0.123188
0.123767
0.0751239
0.0766992
0.0783469
0.080071
0.0818731
0.0837526
0.0857061
0.0877278
0.0898093
0.0919394
0.0941049
0.0962903
0.0984789
0.100653
0.102795
0.104885
0.106907
0.108846
0.110686
0.112414
0.114018
0.115493
0.116834
0.11804
0.119112
0.120051
0.120864
0.121555
0.07093
0.0723862
0.0739271
0.0755586
0.0772844
0.0791058
0.0810215
0.0830271
0.0851152
0.0872754
0.0894944
0.0917561
0.0940424
0.0963336
0.0986091
0.100848
0.103031
0.105137
0.107151
0.109056
0.110837
0.112483
0.11399
0.115352
0.116571
0.117647
0.118586
0.119392
0.0669524
0.0682818
0.0697051
0.0712306
0.0728643
0.0746101
0.0764687
0.0784382
0.0805129
0.0826838
0.0849381
0.0872598
0.08963
0.0920273
0.0944287
0.0968106
0.0991496
0.101423
0.103611
0.105695
0.107656
0.109481
0.111158
0.112684
0.114056
0.115275
0.116344
0.11727
0.0631985
0.0643967
0.0656946
0.0671027
0.06863
0.0702829
0.0720654
0.073978
0.0760178
0.0781777
0.0804466
0.0828091
0.0852463
0.0877355
0.090252
0.0927691
0.0952599
0.0976982
0.10006
0.102323
0.104467
0.106475
0.10833
0.110025
0.111556
0.112924
0.11413
0.11518
0.0596767
0.0607412
0.0619076
0.0631889
0.0645969
0.0661412
0.0678288
0.0696637
0.0716461
0.0737719
0.0760324
0.078414
0.0808982
0.0834622
0.0860797
0.0887215
0.0913573
0.0939568
0.096491
0.0989337
0.101263
0.103457
0.105496
0.107367
0.109065
0.110586
0.111934
0.113114
0.0563911
0.0573213
0.0583524
0.0595
0.0607782
0.0621997
0.0637752
0.0655122
0.0674147
0.0694824
0.0717099
0.0740864
0.0765949
0.0792135
0.0819148
0.0846678
0.0874391
0.0901941
0.092899
0.0955223
0.0980364
0.10042
0.102648
0.104702
0.106573
0.108255
0.109751
0.111065
0.0533373
0.0541357
0.0550317
0.056042
0.0571831
0.0584709
0.0599192
0.0615397
0.0633406
0.0653261
0.0674951
0.0698403
0.072348
0.0749977
0.0777625
0.0806102
0.0835045
0.0864068
0.0892784
0.0920821
0.0947844
0.0973574
0.099779
0.102023
0.104073
0.105924
0.107573
0.109027
0.0505085
0.0511791
0.0519437
0.052817
0.0538176
0.0549637
0.056273
0.057761
0.0594404
0.0613204
0.0634048
0.0656916
0.0681711
0.0708259
0.0736307
0.0765531
0.0795547
0.0825933
0.0856251
0.0886071
0.091499
0.0942664
0.0968826
0.0993225
0.10156
0.103586
0.105396
0.106995
0.0478975
0.048447
0.0490848
0.0498241
0.0506838
0.0516844
0.0528462
0.0541888
0.0557294
0.0574822
0.0594571
0.0616577
0.0640801
0.0667115
0.0695296
0.0725032
0.0755931
0.0787539
0.0819371
0.0850932
0.0881752
0.091141
0.0939563
0.0965942
0.0990279
0.101237
0.103215
0.104966
0.0454941
0.0459291
0.046446
0.0470569
0.0477792
0.0486341
0.0496443
0.0508326
0.0522205
0.0538277
0.0556698
0.0577573
0.060093
0.0626704
0.0654722
0.0684702
0.0716256
0.074891
0.0782134
0.081537
0.0848074
0.0879741
0.0909943
0.093837
0.0964715
0.0988715
0.101026
0.102936
0.0432879
0.0436126
0.0440152
0.0445048
0.0450964
0.0458098
0.0466685
0.0476981
0.0489241
0.0503707
0.0520598
0.0540089
0.0562288
0.0587207
0.0614743
0.0644665
0.0676607
0.0710093
0.0744555
0.0779375
0.0813928
0.0847621
0.0879933
0.0910458
0.0938863
0.0964856
0.0988248
0.100901
0.0412722
0.0414869
0.0417796
0.0421553
0.0426244
0.0432037
0.0439157
0.0447872
0.0458465
0.0471225
0.0486424
0.0504311
0.0525076
0.0548824
0.0575542
0.0605072
0.0637098
0.0671158
0.0706663
0.074294
0.0779282
0.0814997
0.0849461
0.0882159
0.0912711
0.0940767
0.096609
0.0988586
0.0394324
0.0395448
0.039728
0.0399948
0.0403499
0.0408047
0.0413785
0.0420969
0.0429902
0.0440905
0.0454302
0.0470406
0.0489492
0.0511767
0.0537324
0.0566105
0.0597873
0.0632207
0.0668516
0.0706084
0.0744123
0.0781837
0.0818483
0.0853428
0.0886215
0.0916428
0.094375
0.0968071
0.0377464
0.0377717
0.0378547
0.0380134
0.0382595
0.0385991
0.0390452
0.03962
0.0403528
0.0412781
0.0424321
0.0438516
0.0455724
0.0476252
0.0500313
0.0527974
0.0559108
0.0593369
0.0630195
0.0668844
0.0708454
0.0748121
0.0786973
0.082424
0.0859334
0.0891785
0.092121
0.0947437
0.0361448
0.0361435
0.0362033
0.0363418
0.0365724
0.0369017
0.0373448
0.0379275
0.0386837
0.0396523
0.0408747
0.0423932
0.0442483
0.046474
0.0490911
0.0521011
0.055481
0.0591811
0.0631277
0.0672287
0.0713826
0.0754882
0.0794531
0.0832029
0.0866824
0.0898458
0.0926671
0.034643
0.0345715
0.0345489
0.0345898
0.034713
0.0349327
0.0352567
0.0357027
0.0363008
0.0370903
0.0381156
0.0394241
0.0410647
0.0430833
0.0455162
0.0483818
0.0516729
0.0553511
0.059347
0.0635654
0.0678945
0.0722179
0.0764256
0.0804256
0.0841514
0.087547
0.0905768
0.0330276
0.0329879
0.0330141
0.0331263
0.0333398
0.0336632
0.0341183
0.0347404
0.0355749
0.0366728
0.0380891
0.0398802
0.0420976
0.0447787
0.0479358
0.0515476
0.0555544
0.0598615
0.0643487
0.0688839
0.0733378
0.0775974
0.0815813
0.085221
0.0884701
0.0316196
0.0315139
0.0314607
0.031476
0.0315812
0.0317927
0.0321207
0.0325917
0.0332478
0.0341413
0.0353313
0.0368823
0.0388592
0.0413187
0.0442962
0.0477927
0.0517652
0.0561253
0.0607476
0.0654849
0.0701863
0.0747153
0.0789681
0.0828636
0.0863445
0.030148
0.0300304
0.029967
0.0299749
0.030077
0.0302909
0.0306288
0.0311239
0.0318257
0.0327953
0.034102
0.0358215
0.0380283
0.0407823
0.0441121
0.0479989
0.0523683
0.0570952
0.062019
0.0669661
0.0717727
0.076307
0.080472
0.0841976
0.0288738
0.0287038
0.0285771
0.0285065
0.02851
0.0286129
0.0288336
0.0291877
0.0297163
0.0304784
0.0315457
0.0330004
0.0349316
0.0374232
0.0405346
0.044279
0.0486057
0.0533978
0.0584855
0.063672
0.0687624
0.0735923
0.0780426
0.0820267
0.0276771
0.0274646
0.0272868
0.0271535
0.0270782
0.0270806
0.027188
0.0274203
0.0277977
0.0283717
0.0292125
0.0304053
0.0320487
0.0342469
0.0370914
0.0406336
0.0448576
0.0496656
0.0548859
0.0602996
0.0656776
0.070817
0.0755698
0.0798276
0.0262988
0.0260799
0.0258964
0.0257586
0.0256811
0.0256855
0.0258015
0.0260506
0.0264604
0.0270948
0.0280379
0.0293928
0.031278
0.0338142
0.0370947
0.0411491
0.0459132
0.0512241
0.0568454
0.0625112
0.0679734
0.073047
0.077595
0.0251947
0.0249425
0.0247188
0.0245314
0.0243911
0.0243137
0.0243233
0.0244524
0.0247245
0.0251782
0.0258924
0.0269694
0.0285352
0.0307327
0.0336968
0.0375109
0.0421603
0.0475073
0.0533069
0.0592554
0.0650526
0.0704661
0.0753226
0.0238628
0.0236069
0.02338
0.0231903
0.0230491
0.0229741
0.0229927
0.0231399
0.0234427
0.0239554
0.0247754
0.026029
0.0278722
0.0304749
0.0339784
0.0384332
0.0437477
0.0496834
0.0559024
0.0620451
0.0678179
0.0730023
0.0228307
0.0225489
0.0222905
0.0220616
0.0218708
0.0217305
0.0216603
0.0216918
0.0218632
0.022207
0.022799
0.0237604
0.0252501
0.0274618
0.0305908
0.0347649
0.0399634
0.0459773
0.0524443
0.0589403
0.0650915
0.0706243
0.0218367
0.0215342
0.0212507
0.0209909
0.020761
0.0205702
0.0204324
0.0203696
0.0204188
0.0206216
0.0210209
0.0217205
0.0228737
0.0246837
0.0273879
0.0311953
0.0361799
0.0421945
0.0488716
0.0557212
0.0622736
0.0681808
0.0205531
0.0202497
0.0199655
0.019705
0.019475
0.0192854
0.0191517
0.0190992
0.0191718
0.0194153
0.0198913
0.020739
0.0221573
0.0244072
0.02777
0.0324331
0.0383493
0.0451787
0.052372
0.0593483
0.0656592
0.0195964
0.0192775
0.0189741
0.0186896
0.0184291
0.0181998
0.0180126
0.017885
0.0178468
0.0179498
0.0182471
0.0188308
0.0198866
0.0216779
0.0245373
0.028769
0.034466
0.0413644
0.0488769
0.0562969
0.0630444
0.0186548
0.018324
0.0180058
0.0177028
0.0174187
0.0171589
0.016931
0.0167475
0.0166286
0.0166108
0.0167541
0.0171245
0.0178622
0.0192168
0.021542
0.025243
0.0305825
0.0374356
0.0452198
0.0530975
0.0603178
0.017379
0.0170498
0.0167328
0.0164308
0.0161476
0.015889
0.0156636
0.0154855
0.0153789
0.0153897
0.0155871
0.0160621
0.0170248
0.0188195
0.0219156
0.026752
0.0334111
0.0413874
0.0497248
0.057457
0.0164315
0.0160945
0.0157674
0.0154522
0.0151518
0.0148703
0.014614
0.0143925
0.0142222
0.0141323
0.0141812
0.0144528
0.0150849
0.0163875
0.0188447
0.0230433
0.0293278
0.0373729
0.0461506
0.0544344
0.0154686
0.0151268
0.0147931
0.014469
0.0141565
0.0138586
0.01358
0.0133274
0.013112
0.0129527
0.0128859
0.0129871
0.0133646
0.0142418
0.0160751
0.0195357
0.0252458
0.0331827
0.0423456
0.0512174
0.0144755
0.0141315
0.0137942
0.0134648
0.0131448
0.0128364
0.0125429
0.012269
0.0120226
0.0118162
0.0116732
0.0116418
0.0118188
0.012358
0.0136288
0.0163084
0.0212512
0.0288464
0.0382844
0.047768
0.0134334
0.0130894
0.0127514
0.0124202
0.0120969
0.0117831
0.0114813
0.0111948
0.010929
0.0106924
0.0105002
0.0103819
0.0104043
0.0106926
0.0114977
0.0134242
0.0174513
0.0244267
0.0339544
0.0440454
0.0123178
0.0119761
0.0116399
0.01131
0.0109873
0.0106733
0.0103696
0.0100787
0.00980424
0.00955192
0.00933154
0.00916125
0.00907919
0.00917783
0.00963993
0.0109094
0.013956
0.020024
0.029366
0.0400109
0.0110952
0.0107578
0.0104258
0.0101003
0.00978237
0.00947317
0.00917419
0.00888725
0.00861482
0.00836059
0.00813064
0.00793594
0.0077987
0.00777147
0.00798907
0.00874701
0.0108528
0.0157671
0.0245431
0.0356237
0.00971519
0.00938467
0.00906009
0.00874279
0.00843423
0.00813587
0.0078492
0.00757576
0.00731726
0.00707594
0.00685519
0.00666107
0.0065059
0.00641848
0.00647855
0.00688337
0.00818834
0.0118071
0.0195388
0.0308169
0.0080966
0.00777742
0.00746539
0.00716254
0.00687099
0.00659266
0.00632922
0.00608217
0.00585277
0.00564228
0.0054522
0.00528501
0.00514611
0.00504909
0.00503182
0.00521408
0.00593807
0.00827616
0.0144074
0.0253576
0.00609959
0.00580332
0.00551674
0.00524293
0.00498493
0.00474492
0.00452446
0.00432461
0.00414608
0.00398932
0.0038545
0.00374144
0.00365006
0.00358188
0.00354286
0.00359348
0.00393788
0.00527109
0.00961566
0.0196525
0.00350829
0.00327668
0.00305925
0.00285942
0.00267965
0.00252041
0.00238153
0.00226269
0.0021637
0.00208447
0.00202406
0.00197465
0.00192904
0.00189171
0.00188618
0.00193067
0.00211721
0.0027947
0.00548175
0.0142378
0.000605721
0.000530091
0.000462472
0.000403597
0.000353829
0.000312876
0.000279961
0.000254167
0.000234638
0.000220696
0.000212068
0.000215435
0.000233856
0.000261944
0.00030219
0.000359511
0.000452569
0.000651872
0.00158669
0.00892305
0.132029
0.132529
0.133024
0.133515
0.134002
0.134488
0.134971
0.135452
0.135932
0.13641
0.136886
0.13736
0.137831
0.138299
0.138762
0.139219
0.139669
0.14011
0.14054
0.140956
0.141357
0.141739
0.142099
0.142433
0.142737
0.143007
0.143238
0.143423
0.143555
0.143627
0.143631
0.143557
0.143393
0.143126
0.14274
0.142219
0.141541
0.140682
0.139613
0.138297
0.136694
0.134754
0.132418
0.129618
0.126274
0.122299
0.117592
0.112044
0.105532
0.0979008
0.088928
0.0782392
0.06512
0.0483845
0.0273203
0.13198
0.132477
0.132969
0.133456
0.13394
0.134421
0.134898
0.135374
0.135847
0.136318
0.136786
0.137251
0.137713
0.13817
0.138621
0.139065
0.1395
0.139926
0.140339
0.140738
0.141119
0.141481
0.141819
0.142131
0.142411
0.142655
0.142858
0.143014
0.143116
0.143156
0.143126
0.143016
0.142814
0.142507
0.142079
0.141513
0.140786
0.139874
0.138748
0.13737
0.1357
0.133688
0.131275
0.128393
0.124966
0.120906
0.116118
0.110496
0.103916
0.0962254
0.0872021
0.0764868
0.0634813
0.047518
0.0289662
0.13193
0.132424
0.132912
0.133396
0.133875
0.134351
0.134824
0.135293
0.13576
0.136223
0.136683
0.137138
0.13759
0.138035
0.138474
0.138904
0.139325
0.139735
0.140131
0.140512
0.140874
0.141214
0.14153
0.141818
0.142073
0.142291
0.142466
0.142593
0.142664
0.142671
0.142607
0.14246
0.142219
0.141871
0.141399
0.140786
0.140009
0.139042
0.137857
0.136416
0.134677
0.132592
0.130101
0.127139
0.12363
0.119491
0.114629
0.108944
0.102316
0.0946004
0.0855939
0.0749932
0.0623809
0.0477727
0.0322966
0.131879
0.132369
0.132854
0.133334
0.133809
0.134279
0.134746
0.135209
0.135669
0.136124
0.136575
0.137021
0.137461
0.137895
0.138321
0.138737
0.139143
0.139537
0.139915
0.140277
0.140619
0.140938
0.141232
0.141495
0.141725
0.141916
0.142062
0.142159
0.142198
0.142172
0.142072
0.141888
0.141608
0.141217
0.1407
0.140038
0.139208
0.138186
0.13694
0.135434
0.133626
0.131467
0.1289
0.12586
0.122274
0.118063
0.11314
0.107409
0.100763
0.0930719
0.0841696
0.0738415
0.0619032
0.0490748
0.0365583
0.131826
0.132313
0.132794
0.133269
0.133739
0.134205
0.134665
0.135122
0.135574
0.136021
0.136462
0.136898
0.137327
0.137749
0.138161
0.138563
0.138954
0.13933
0.139691
0.140033
0.140355
0.140652
0.140923
0.141162
0.141365
0.141528
0.141646
0.141712
0.141718
0.141658
0.141522
0.141299
0.140978
0.140543
0.13998
0.139268
0.138385
0.137306
0.135998
0.134427
0.132549
0.130318
0.127676
0.124561
0.120906
0.116634
0.111665
0.105913
0.0992857
0.091679
0.0829756
0.0730631
0.0621287
0.0512577
0.0410326
0.131772
0.132255
0.132732
0.133202
0.133667
0.134127
0.134581
0.135031
0.135475
0.135913
0.136345
0.13677
0.137187
0.137596
0.137995
0.138382
0.138756
0.139116
0.139458
0.139781
0.140081
0.140356
0.140603
0.140816
0.140993
0.141129
0.141216
0.141251
0.141224
0.141129
0.140955
0.140693
0.140329
0.13985
0.139239
0.138476
0.137539
0.136401
0.135031
0.133394
0.131448
0.129145
0.126433
0.12325
0.119534
0.115214
0.11022
0.104477
0.0979135
0.0904561
0.0820442
0.0727231
0.0630358
0.0539577
0.0452995
0.131716
0.132195
0.132667
0.133133
0.133593
0.134046
0.134494
0.134936
0.135371
0.1358
0.136222
0.136636
0.137041
0.137437
0.137821
0.138193
0.138551
0.138892
0.139216
0.139518
0.139797
0.140049
0.140271
0.140459
0.140609
0.140715
0.140773
0.140775
0.140714
0.140583
0.140371
0.140068
0.139661
0.139136
0.138476
0.137661
0.136669
0.135472
0.13404
0.132338
0.130324
0.127954
0.125176
0.121933
0.118168
0.113818
0.108823
0.103125
0.0966731
0.0894299
0.0814096
0.072878
0.0645017
0.0568368
0.0491819
0.131657
0.132133
0.1326
0.133061
0.133515
0.133962
0.134402
0.134836
0.135263
0.135682
0.136093
0.136496
0.136888
0.13727
0.13764
0.137996
0.138337
0.13866
0.138963
0.139245
0.139502
0.13973
0.139928
0.140089
0.140211
0.140288
0.140314
0.140283
0.140188
0.14002
0.139769
0.139425
0.138974
0.138402
0.137692
0.136824
0.135775
0.134519
0.133026
0.13126
0.129182
0.126748
0.123911
0.12062
0.116821
0.112462
0.107495
0.101878
0.095586
0.0886231
0.0811283
0.0735157
0.0663238
0.0596881
0.0526878
0.131597
0.132068
0.132531
0.132986
0.133433
0.133874
0.134306
0.134732
0.135149
0.135559
0.135959
0.136349
0.136729
0.137096
0.137451
0.13779
0.138113
0.138418
0.138701
0.138961
0.139195
0.1394
0.139572
0.139706
0.1398
0.139846
0.139841
0.139776
0.139645
0.139439
0.139148
0.138761
0.138266
0.137646
0.136886
0.135965
0.13486
0.133545
0.131991
0.130163
0.128025
0.125534
0.122648
0.11932
0.115505
0.11116
0.106251
0.100754
0.0946699
0.0880766
0.0812319
0.0745429
0.0683227
0.0624135
0.0558782
0.131535
0.132001
0.132458
0.132907
0.133348
0.133781
0.134206
0.134623
0.13503
0.135429
0.135818
0.136195
0.136561
0.136914
0.137253
0.137575
0.13788
0.138165
0.138428
0.138666
0.138877
0.139057
0.139202
0.139309
0.139374
0.139389
0.139351
0.139252
0.139085
0.13884
0.138508
0.138079
0.137537
0.136869
0.136058
0.135083
0.133922
0.13255
0.130938
0.129052
0.126859
0.12432
0.121395
0.118045
0.114234
0.109928
0.105108
0.0997676
0.0939544
0.0878322
0.0816938
0.0758378
0.0703773
0.0649845
0.0588186
0.131469
0.13193
0.132382
0.132825
0.133259
0.133684
0.134101
0.134508
0.134906
0.135293
0.13567
0.136034
0.136386
0.136724
0.137046
0.137351
0.137637
0.137902
0.138143
0.138359
0.138546
0.138701
0.138819
0.138898
0.138932
0.138917
0.138845
0.138711
0.138506
0.138222
0.137849
0.137375
0.136788
0.136071
0.135209
0.134181
0.132966
0.131538
0.12987
0.127932
0.125691
0.123112
0.120162
0.116808
0.113021
0.10878
0.104078
0.0989415
0.0934784
0.0878971
0.0824441
0.0772957
0.0724172
0.0674061
0.0615604
0.131401
0.131857
0.132303
0.132739
0.133166
0.133583
0.13399
0.134388
0.134775
0.13515
0.135514
0.135865
0.136202
0.136524
0.136829
0.137116
0.137383
0.137627
0.137847
0.13804
0.138202
0.138331
0.138422
0.138472
0.138476
0.138428
0.138322
0.138152
0.137909
0.137586
0.13717
0.136652
0.136018
0.135253
0.13434
0.13326
0.131992
0.130512
0.128793
0.126808
0.124528
0.121921
0.118961
0.11562
0.111878
0.107727
0.10318
0.098309
0.0932635
0.0882383
0.083406
0.07884
0.0744076
0.0696955
0.0641427
0.13133
0.13178
0.132219
0.132648
0.133067
0.133476
0.133874
0.134261
0.134637
0.135
0.135351
0.135688
0.136009
0.136315
0.136603
0.136871
0.137118
0.137341
0.137538
0.137707
0.137844
0.137947
0.13801
0.13803
0.138003
0.137922
0.137782
0.137575
0.137294
0.13693
0.136472
0.13591
0.135229
0.134416
0.133453
0.132323
0.131005
0.129476
0.127712
0.125688
0.123378
0.120756
0.1178
0.114491
0.110816
0.106784
0.102441
0.0978962
0.0933003
0.0888049
0.0845135
0.0804202
0.0763352
0.0718727
0.0665956
0.131256
0.131699
0.132132
0.132553
0.132964
0.133363
0.133751
0.134128
0.134492
0.134843
0.135179
0.135501
0.135807
0.136096
0.136365
0.136614
0.136841
0.137042
0.137217
0.137361
0.137473
0.137548
0.137583
0.137573
0.137513
0.137399
0.137224
0.13698
0.13666
0.136255
0.135755
0.135148
0.134421
0.133561
0.132551
0.131373
0.130008
0.128436
0.126633
0.124579
0.12225
0.119627
0.116691
0.113431
0.109849
0.105975
0.101889
0.0977072
0.0935582
0.0895458
0.085716
0.0820052
0.0781989
0.0739565
0.0689429
0.131178
0.131614
0.132039
0.132453
0.132855
0.133245
0.133622
0.133987
0.134339
0.134677
0.134999
0.135306
0.135595
0.135866
0.136117
0.136346
0.136552
0.136731
0.136882
0.137001
0.137086
0.137134
0.137139
0.137099
0.137007
0.136859
0.136648
0.136367
0.136008
0.135562
0.135019
0.134368
0.133597
0.132691
0.131635
0.130413
0.129006
0.127396
0.125563
0.123489
0.121153
0.118542
0.115642
0.112453
0.108995
0.105324
0.101533
0.0977266
0.0940003