/*--------------------------------*- C++ -*----------------------------------*\
  =========                 |
  \\      /  F ield         | OpenFOAM: The Open Source CFD Toolbox
   \\    /   O peration     | Website:  https://openfoam.org
    \\  /    A nd           | Version:  10
     \\/     M anipulation  |
\*---------------------------------------------------------------------------*/
FoamFile
{
    format      ascii;
    class       volVectorField;
    location    "70000";
    object      U;
}
// * * * * * * * * * * * * * * * * * * * * * * * * * * * * * * * * * * * * * //

dimensions      [0 1 -1 0 0 0 0];

internalField   nonuniform List<vector> 
17981
(
(0.126145 3.22362 8.77411e-22)
(0.122139 3.22992 -8.81968e-22)
(0.118205 3.23596 0)
(0.114336 3.24173 -5.60491e-21)
(0.110532 3.24721 1.23777e-20)
(0.106794 3.25238 -6.72449e-21)
(0.103127 3.25722 0)
(0.099531 3.26173 5.84938e-22)
(0.0960104 3.2659 0)
(0.0925676 3.26971 0)
(0.0892054 3.27318 -7.20352e-22)
(0.0859263 3.27629 1.33019e-20)
(0.0827326 3.27907 -1.20548e-20)
(0.0796262 3.28151 0)
(0.0766085 3.28363 0)
(0.0736807 3.28543 0)
(0.0708433 3.28694 0)
(0.0680966 3.28816 -1.362e-20)
(0.0654405 3.28912 1.30476e-20)
(0.0628745 3.28982 2.70794e-20)
(0.0603976 3.29029 -2.55349e-20)
(0.0580089 3.29054 -4.09167e-22)
(0.0557069 3.29059 0)
(0.0534899 3.29045 0)
(0.0513562 3.29013 2.57091e-20)
(0.0493039 3.28965 -2.42838e-20)
(0.0473308 3.28903 2.49357e-20)
(0.0454349 3.28828 -2.39517e-20)
(0.0436137 3.2874 -3.72256e-22)
(0.0418651 3.28642 0)
(0.0401868 3.28533 1.79561e-22)
(0.0385763 3.28416 -1.76192e-22)
(0.0370313 3.28291 -1.72788e-22)
(0.0355495 3.28159 2.16922e-20)
(0.0341285 3.28022 -2.08927e-20)
(0.0327662 3.27878 -1.62497e-22)
(0.0314602 3.2773 0)
(0.0302083 3.27579 0)
(0.0290085 3.27424 1.52283e-22)
(0.0278585 3.27266 -1.93263e-20)
(0.0267564 3.27106 -8.78119e-23)
(0.0257002 3.26944 1.79543e-20)
(0.024688 3.26781 6.95376e-23)
(0.0237179 3.26617 0)
(0.0227882 3.26452 0)
(0.0218971 3.26287 0)
(0.021043 3.26122 0)
(0.0202242 3.25958 -1.60425e-20)
(0.0641309 3.24099 -5.28848e-21)
(0.0594765 3.2476 0)
(0.0549043 3.25396 -1.54952e-20)
(0.0504153 3.26005 3.82427e-20)
(0.0460115 3.26583 -2.17926e-20)
(0.0416955 3.27128 3.29567e-20)
(0.0374703 3.27639 -3.19393e-20)
(0.0333391 3.28115 5.8483e-22)
(0.0293053 3.28553 1.30711e-21)
(0.0253721 3.28954 -4.74447e-20)
(0.0215426 3.29317 9.46986e-20)
(0.0178195 3.29643 -4.86127e-20)
(0.0142048 3.29931 0)
(0.0107005 3.30182 1.63957e-21)
(0.00730751 3.30399 -5.51905e-20)
(0.00402657 3.30581 5.28534e-20)
(0.000857746 3.30731 5.6039e-20)
(-0.00219939 3.30851 -5.36475e-20)
(-0.00514573 3.30941 8.5586e-22)
(-0.00798255 3.31004 0)
(-0.0107115 3.31041 -4.25822e-22)
(-0.0133346 3.31054 5.53482e-20)
(-0.0158541 3.31046 -5.18025e-20)
(-0.0182725 3.31017 5.45141e-20)
(-0.0205923 3.3097 -1.04461e-19)
(-0.0228163 3.30905 5.0422e-20)
(-0.0249476 3.30825 -5.13813e-20)
(-0.0269889 3.3073 4.93472e-20)
(-0.0289434 3.30623 3.83757e-22)
(-0.0308141 3.30504 0)
(-0.032604 3.30375 1.85082e-22)
(-0.034316 3.30237 1.81612e-22)
(-0.0359533 3.30091 -4.58379e-20)
(-0.0375188 3.29937 4.44849e-20)
(-0.0390152 3.29777 -5.13348e-22)
(-0.0404456 3.29612 4.34038e-20)
(-0.0418126 3.29442 -4.16814e-20)
(-0.0431189 3.29268 0)
(-0.0443672 3.2909 4.03367e-20)
(-0.0455599 3.28911 -7.82112e-20)
(-0.0466995 3.28729 3.77709e-20)
(-0.0477884 3.28545 -3.76825e-20)
(-0.0488288 3.28361 -6.40624e-22)
(-0.0498229 3.28175 3.55706e-20)
(-0.0507728 3.2799 0)
(-0.0516805 3.27805 0)
(-0.0525481 3.2762 1.30828e-22)
(-0.0533772 3.27435 -6.46883e-23)
(0.00292703 3.25871 0)
(-0.00242756 3.26563 8.55311e-21)
(-0.00768079 3.2723 -9.15002e-21)
(-0.0128306 3.27868 2.22149e-20)
(-0.0178743 3.28474 -2.31132e-20)
(-0.0228082 3.29047 -1.8605e-21)
(-0.0276285 3.29583 0)
(-0.0323309 3.30081 -1.24905e-21)
(-0.0369112 3.30539 -4.03572e-21)
(-0.0413656 3.30957 0)
(-0.0456905 3.31333 1.54027e-21)
(-0.049883 3.31669 3.1742e-21)
(-0.0539408 3.31964 0)
(-0.0578624 3.3222 -1.49095e-23)
(-0.0616469 3.32437 1.71576e-21)
(-0.0652945 3.32617 0)
(-0.0688055 3.32762 1.15241e-19)
(-0.0721813 3.32874 -1.08487e-19)
(-0.0754237 3.32954 -1.16123e-19)
(-0.0785348 3.33005 1.10283e-19)
(-0.0815173 3.33028 -1.74565e-21)
(-0.0843743 3.33025 0)
(-0.0871089 3.32999 8.56572e-22)
(-0.0897247 3.32951 -8.50702e-22)
(-0.0922253 3.32884 8.3877e-22)
(-0.0946145 3.32798 -1.06575e-19)
(-0.0968962 3.32695 1.03093e-19)
(-0.0990741 3.32578 -8.02776e-22)
(-0.101152 3.32447 0)
(-0.103134 3.32304 9.96452e-20)
(-0.105025 3.3215 2.37455e-21)
(-0.106826 3.31987 -9.55926e-20)
(-0.108544 3.31815 0)
(-0.11018 3.31636 0)
(-0.111739 3.31451 -9.13941e-20)
(-0.113224 3.3126 8.84363e-20)
(-0.114638 3.31065 -3.38527e-22)
(-0.115985 3.30865 0)
(-0.117268 3.30663 3.2436e-22)
(-0.118489 3.30458 -3.16946e-22)
(-0.119652 3.30252 -7.99128e-20)
(-0.12076 3.30044 7.71752e-20)
(-0.121815 3.29835 1.48146e-22)
(-0.122819 3.29626 -1.45253e-22)
(-0.123775 3.29417 -2.83423e-22)
(-0.124686 3.29209 0)
(-0.125553 3.29001 -1.34995e-22)
(-0.126379 3.28795 -6.88636e-20)
(-0.0812475 3.30406 -1.41137e-21)
(-0.0868404 3.31004 1.9472e-21)
(-0.092295 3.31564 7.74915e-20)
(-0.0976056 3.32082 -1.60809e-19)
(-0.102767 3.32557 8.56286e-20)
(-0.107774 3.32989 -2.93318e-21)
(-0.112622 3.33376 1.0169e-19)
(-0.117308 3.33718 -1.03688e-19)
(-0.12183 3.34016 0)
(-0.126186 3.34271 -1.74199e-21)
(-0.130376 3.34484 1.14645e-19)
(-0.134401 3.34658 -1.1129e-19)
(-0.138262 3.34793 -1.14641e-19)
(-0.141961 3.34892 -9.01709e-21)
(-0.145501 3.34957 1.13251e-19)
(-0.148887 3.3499 -1.17751e-19)
(-0.15212 3.34994 1.12684e-19)
(-0.155207 3.34971 0)
(-0.15815 3.34922 1.13011e-19)
(-0.160956 3.34851 -2.23419e-19)
(-0.163628 3.34758 1.06169e-19)
(-0.166172 3.34646 1.09503e-19)
(-0.168592 3.34517 -1.04247e-19)
(-0.170894 3.34372 -8.24712e-22)
(-0.173083 3.34213 -1.05134e-19)
(-0.175163 3.34042 -6.25316e-22)
(-0.177139 3.33859 -3.63908e-21)
(-0.179015 3.33667 9.91369e-20)
(-0.180797 3.33466 9.7619e-20)
(-0.182488 3.33258 -1.89727e-19)
(-0.184094 3.33043 9.29436e-20)
(-0.185617 3.32824 -9.18708e-20)
(-0.187063 3.32599 8.89438e-20)
(-0.188434 3.32372 -8.80677e-20)
(-0.189735 3.32141 -2.20002e-21)
(-0.190969 3.31908 8.31989e-20)
(-0.192139 3.31674 9.6061e-22)
(-0.193249 3.31439 -8.033e-20)
(-0.194301 3.31203 7.76133e-20)
(-0.1953 3.30968 2.99086e-22)
(-0.196247 3.30733 2.92324e-22)
(-0.197145 3.30499 7.32822e-20)
(-0.197996 3.30266 -7.11549e-20)
(-0.198804 3.30035 0)
(-0.144273 3.32387 -3.82603e-20)
(-0.150573 3.33009 -3.72882e-21)
(-0.156707 3.3359 0)
(-0.162667 3.34126 8.75301e-20)
(-0.168447 3.34616 -8.40658e-20)
(-0.17404 3.35057 6.03176e-21)
(-0.17944 3.3545 6.38896e-21)
(-0.184644 3.35794 0)
(-0.189649 3.3609 0)
(-0.194455 3.36339 -3.52781e-21)
(-0.199062 3.36543 0)
(-0.203471 3.36704 0)
(-0.207685 3.36824 -3.69946e-21)
(-0.211708 3.36904 1.8561e-21)
(-0.215544 3.36949 -1.21128e-19)
(-0.219198 3.36959 1.1582e-19)
(-0.222675 3.36938 -1.18038e-19)
(-0.225981 3.36888 1.14742e-19)
(-0.229122 3.36811 1.80682e-21)
(-0.232104 3.3671 0)
(-0.234933 3.36587 -1.14861e-19)
(-0.237616 3.36444 -4.82222e-21)
(-0.240158 3.36283 -4.58324e-21)
(-0.242567 3.36106 1.08875e-19)
(-0.244847 3.35914 -1.08033e-19)
(-0.247006 3.3571 -3.12804e-21)
(-0.249048 3.35494 1.04566e-19)
(-0.25098 3.35269 -1.0318e-19)
(-0.252806 3.35035 9.85934e-20)
(-0.254532 3.34794 0)
(-0.256164 3.34546 9.65918e-20)
(-0.257705 3.34294 -9.46006e-20)
(-0.259161 3.34037 0)
(-0.260536 3.33777 7.04671e-22)
(-0.261835 3.33515 6.89175e-22)
(-0.263061 3.33251 6.7566e-22)
(-0.264219 3.32986 8.44625e-20)
(-0.265312 3.32721 -1.66481e-19)
(-0.266343 3.32456 8.14226e-20)
(-0.267316 3.32191 0)
(-0.268235 3.31928 0)
(-0.269101 3.31666 7.63538e-20)
(-0.269919 3.31406 -7.35816e-20)
(-0.270691 3.31148 0)
(-0.207123 3.3443 -3.98818e-20)
(-0.214186 3.35074 -6.42037e-20)
(-0.221051 3.35674 1.44654e-19)
(-0.227707 3.36224 -7.59834e-20)
(-0.234145 3.36724 -9.67416e-20)
(-0.240356 3.37171 8.94998e-20)
(-0.246335 3.37564 -3.2777e-21)
(-0.252077 3.37905 0)
(-0.25758 3.38192 -1.17059e-19)
(-0.262845 3.38429 2.35078e-19)
(-0.267873 3.38617 7.3989e-21)
(-0.272667 3.38759 -1.16103e-19)
(-0.27723 3.38856 -3.75353e-21)
(-0.28157 3.38911 -1.23968e-19)
(-0.285691 3.38928 1.1844e-19)
(-0.2896 3.38909 -1.23403e-19)
(-0.293306 3.38856 -4.64212e-21)
(-0.296814 3.38774 1.17401e-19)
(-0.300133 3.38663 -5.55444e-21)
(-0.303272 3.38527 0)
(-0.306237 3.38368 2.89632e-24)
(-0.309036 3.38188 1.79125e-21)
(-0.311678 3.3799 1.14496e-19)
(-0.314169 3.37775 2.76341e-21)
(-0.316518 3.37546 -2.19324e-19)
(-0.318731 3.37303 1.05016e-19)
(-0.320815 3.3705 -3.31559e-21)
(-0.322776 3.36787 0)
(-0.324622 3.36516 -2.06735e-19)
(-0.326359 3.36237 1.99222e-19)
(-0.327992 3.35953 0)
(-0.329527 3.35664 7.55357e-22)
(-0.330969 3.35372 1.91152e-19)
(-0.332324 3.35076 -1.85232e-19)
(-0.333597 3.34779 0)
(-0.334792 3.34481 -6.96238e-22)
(-0.335914 3.34182 6.82773e-22)
(-0.336967 3.33884 6.67202e-22)
(-0.337954 3.33586 -1.68927e-19)
(-0.338881 3.3329 1.62725e-19)
(-0.339749 3.32995 -6.25918e-22)
(-0.340564 3.32702 -1.5796e-19)
(-0.341327 3.32413 1.52267e-19)
(-0.342043 3.32125 0)
(-0.277943 3.37211 -3.64259e-21)
(-0.285593 3.37825 -4.41467e-21)
(-0.292989 3.38385 0)
(-0.300121 3.38889 -5.65201e-21)
(-0.306978 3.39335 -6.13154e-21)
(-0.313554 3.39722 0)
(-0.319846 3.4005 -1.15432e-19)
(-0.325853 3.40322 1.10067e-19)
(-0.331576 3.40539 0)
(-0.337018 3.40703 -2.47861e-19)
(-0.342185 3.40817 2.40185e-19)
(-0.347084 3.40883 3.85254e-21)
(-0.351721 3.40906 0)
(-0.356107 3.40888 0)
(-0.360249 3.40832 -3.84915e-21)
(-0.364157 3.40741 0)
(-0.367842 3.40618 2.48916e-19)
(-0.371312 3.40467 -4.85053e-19)
(-0.374577 3.40289 4.80498e-19)
(-0.377649 3.40088 -2.32234e-19)
(-0.380535 3.39866 0)
(-0.383245 3.39625 2.33039e-19)
(-0.385788 3.39368 -2.25666e-19)
(-0.388174 3.39096 0)
(-0.39041 3.38811 2.25893e-19)
(-0.392504 3.38515 -4.34476e-19)
(-0.394466 3.3821 2.10595e-19)
(-0.396301 3.37897 -2.12738e-19)
(-0.398017 3.37577 2.03464e-19)
(-0.399622 3.37252 -2.04942e-19)
(-0.401121 3.36923 1.97738e-19)
(-0.402521 3.36591 0)
(-0.403827 3.36257 1.91703e-19)
(-0.405046 3.35921 -1.8662e-19)
(-0.406183 3.35586 0)
(-0.407242 3.3525 -1.82297e-19)
(-0.408228 3.34916 1.76261e-19)
(-0.409146 3.34583 -6.76277e-22)
(-0.41 3.34252 -1.70256e-19)
(-0.410794 3.33923 3.31291e-19)
(-0.411532 3.33598 -1.60562e-19)
(-0.412218 3.33276 1.59907e-19)
(-0.412854 3.32957 1.52113e-21)
(-0.358837 3.40614 -5.07482e-21)
(-0.366682 3.41113 1.69592e-22)
(-0.374196 3.41549 6.32717e-21)
(-0.381371 3.4192 0)
(-0.388207 3.42228 -2.40955e-19)
(-0.394703 3.42475 4.57407e-19)
(-0.400865 3.42662 1.73721e-20)
(-0.406699 3.42792 1.60307e-20)
(-0.412212 3.4287 -2.5177e-19)
(-0.417415 3.42897 -3.89131e-21)
(-0.422318 3.42879 0)
(-0.426933 3.42817 -2.57847e-19)
(-0.431271 3.42717 -6.8624e-21)
(-0.435344 3.4258 2.49943e-19)
(-0.439166 3.42411 0)
(-0.442747 3.42212 1.08728e-23)
(-0.446101 3.41986 3.83577e-21)
(-0.449239 3.41737 -3.79811e-21)
(-0.452171 3.41466 0)
(-0.454911 3.41177 2.3896e-19)
(-0.457467 3.40871 -2.31484e-19)
(-0.459851 3.40551 0)
(-0.462072 3.40219 1.77902e-21)
(-0.46414 3.39876 2.26609e-19)
(-0.466064 3.39524 -2.14887e-19)
(-0.467852 3.39165 0)
(-0.469513 3.388 2.15123e-19)
(-0.471055 3.38431 -2.07564e-19)
(-0.472484 3.38058 1.60712e-21)
(-0.473808 3.37683 0)
(-0.475033 3.37307 1.54561e-21)
(-0.476167 3.3693 0)
(-0.477213 3.36554 -1.91646e-19)
(-0.478179 3.36179 3.73076e-19)
(-0.47907 3.35805 -3.6552e-19)
(-0.47989 3.35434 1.79329e-19)
(-0.480643 3.35067 0)
(-0.481336 3.34702 6.69625e-22)
(-0.481971 3.34342 -1.68821e-19)
(-0.482552 3.33985 3.27987e-19)
(-0.483084 3.33633 -1.62275e-19)
(-0.434164 3.43389 -1.92184e-19)
(-0.442316 3.43804 1.82309e-19)
(-0.450065 3.44148 0)
(-0.457412 3.44424 7.12172e-21)
(-0.464362 3.44634 1.1257e-22)
(-0.470921 3.44781 0)
(-0.477102 3.44868 0)
(-0.482914 3.449 1.57032e-20)
(-0.488373 3.44879 3.98507e-21)
(-0.493491 3.4481 3.98164e-21)
(-0.498284 3.44697 0)
(-0.502768 3.44544 -2.62245e-19)
(-0.506956 3.44354 2.46858e-19)
(-0.510864 3.4413 2.59754e-19)
(-0.514508 3.43877 -2.44928e-19)
(-0.5179 3.43597 -3.9326e-21)
(-0.521055 3.43294 3.89552e-21)
(-0.523987 3.42969 0)
(-0.526709 3.42626 3.80913e-21)
(-0.529232 3.42267 2.43703e-19)
(-0.53157 3.41895 -2.3452e-19)
(-0.533732 3.4151 -2.40408e-19)
(-0.53573 3.41116 2.29899e-19)
(-0.537574 3.40714 -3.54765e-21)
(-0.539274 3.40306 0)
(-0.540839 3.39892 3.43319e-21)
(-0.542278 3.39474 2.1958e-19)
(-0.543598 3.39055 -2.12082e-19)
(-0.544809 3.38633 2.10068e-19)
(-0.545916 3.38212 -4.09162e-19)
(-0.546927 3.37791 1.99293e-19)
(-0.547849 3.37371 -1.98291e-19)
(-0.548688 3.36954 1.91822e-19)
(-0.549449 3.3654 -7.38793e-22)
(-0.550139 3.36129 1.2893e-24)
(-0.550761 3.35721 7.10544e-22)
(-0.551321 3.35319 0)
(-0.551824 3.34921 -6.81444e-22)
(-0.552273 3.34528 0)
(-0.552672 3.34141 6.62327e-22)
(-0.519873 3.46383 0)
(-0.52767 3.46615 7.03326e-21)
(-0.535008 3.46777 7.46295e-21)
(-0.541899 3.46873 0)
(-0.548358 3.46907 -2.58969e-19)
(-0.554403 3.46883 2.38707e-19)
(-0.560049 3.46805 -8.02e-21)
(-0.565316 3.46677 -4.0756e-21)
(-0.570222 3.46505 -2.67335e-19)
(-0.574786 3.46291 -1.16499e-20)
(-0.579025 3.46041 2.59795e-19)
(-0.582958 3.45757 0)
(-0.586602 3.45444 -2.63553e-19)
(-0.589974 3.45104 -8.61184e-21)
(-0.593089 3.4474 5.14073e-19)
(-0.595964 3.44357 -2.48915e-19)
(-0.598612 3.43955 -2.53427e-19)
(-0.601049 3.43539 4.90298e-19)
(-0.603287 3.43109 -2.44814e-19)
(-0.605339 3.42669 -1.87979e-21)
(-0.607218 3.42219 -1.85482e-21)
(-0.608932 3.41762 -2.32705e-19)
(-0.610496 3.413 -4.55026e-21)
(-0.611919 3.40834 2.22824e-19)
(-0.613211 3.40365 -1.7418e-21)
(-0.614379 3.39895 0)
(-0.615435 3.39425 -1.68442e-21)
(-0.616384 3.38956 0)
(-0.617235 3.38488 0)
(-0.617995 3.38023 0)
(-0.618671 3.37561 1.56507e-21)
(-0.619269 3.37104 0)
(-0.619794 3.3665 -7.51372e-22)
(-0.620252 3.36202 1.30978e-24)
(-0.620649 3.3576 -7.22979e-22)
(-0.620989 3.35323 1.83526e-19)
(-0.621276 3.34893 -1.76491e-19)
(-0.621515 3.34469 1.77081e-19)
(-0.620497 3.48876 2.61962e-19)
(-0.626684 3.48787 -2.41535e-19)
(-0.632433 3.48643 8.20801e-21)
(-0.637764 3.48449 0)
(-0.642701 3.4821 -2.7202e-19)
(-0.647266 3.4793 2.60167e-19)
(-0.651479 3.47613 -2.17566e-23)
(-0.655362 3.47264 4.14235e-21)
(-0.658935 3.46884 0)
(-0.662216 3.46479 -4.10536e-21)
(-0.665224 3.46052 -4.08809e-21)
(-0.667977 3.45605 -2.62985e-19)
(-0.67049 3.45141 2.53039e-19)
(-0.67278 3.44662 3.97029e-21)
(-0.674861 3.44172 3.88452e-24)
(-0.676748 3.43672 2.54737e-19)
(-0.678454 3.43164 -2.41982e-19)
(-0.679993 3.4265 -1.88546e-21)
(-0.681374 3.42132 -1.85834e-21)
(-0.682609 3.41611 0)
(-0.68371 3.41089 2.32731e-19)
(-0.684685 3.40567 -2.25009e-19)
(-0.685544 3.40046 2.25012e-19)
(-0.686296 3.39526 -2.19416e-19)
(-0.686949 3.3901 -2.17173e-19)
(-0.68751 3.38498 2.11899e-19)
(-0.687987 3.3799 -1.6229e-21)
(-0.688386 3.37487 -2.03737e-19)
(-0.688714 3.3699 1.97365e-19)
(-0.688976 3.365 -1.96692e-19)
(-0.689178 3.36016 1.92887e-19)
(-0.689324 3.35539 1.88922e-19)
(-0.689421 3.3507 -1.84609e-19)
(-0.689471 3.34608 -7.16827e-22)
(-0.693482 3.50739 0)
(-0.699712 3.50578 -9.91895e-23)
(-0.705466 3.50361 2.72961e-19)
(-0.71077 3.50095 -2.68976e-19)
(-0.71565 3.49783 0)
(-0.720132 3.49431 -8.44541e-21)
(-0.724239 3.49043 4.20743e-21)
(-0.727995 3.48622 2.76864e-19)
(-0.731423 3.48174 1.00475e-20)
(-0.734544 3.477 -2.60695e-19)
(-0.737378 3.47205 -2.68159e-19)
(-0.739944 3.46691 2.62031e-19)
(-0.742261 3.46162 2.67594e-19)
(-0.744346 3.45619 -2.53753e-19)
(-0.746214 3.45066 2.65923e-19)
(-0.747882 3.44504 -2.56636e-19)
(-0.749363 3.43936 -3.94544e-21)
(-0.750671 3.43363 2.52016e-19)
(-0.751818 3.42787 -4.86214e-19)
(-0.752817 3.42209 -6.53984e-21)
(-0.753679 3.41632 2.36769e-19)
(-0.754415 3.41056 -2.37326e-19)
(-0.755034 3.40482 2.31485e-19)
(-0.755546 3.39911 -2.27817e-19)
(-0.755958 3.39345 4.48008e-19)
(-0.756281 3.38783 -2.18595e-19)
(-0.75652 3.38228 0)
(-0.756684 3.37679 -1.65841e-21)
(-0.756778 3.37137 1.62795e-21)
(-0.756809 3.36603 -3.19725e-21)
(-0.756783 3.36077 -2.02657e-19)
(-0.756705 3.35559 1.97326e-19)
(-0.75658 3.3505 1.50768e-21)
(-0.756412 3.3455 0)
(-0.767145 3.52461 -2.47907e-19)
(-0.773308 3.52222 2.64496e-19)
(-0.778962 3.51928 -5.45527e-19)
(-0.784139 3.51584 2.73067e-19)
(-0.788867 3.51196 -8.54834e-21)
(-0.793176 3.50768 -2.74328e-19)
(-0.797092 3.50305 2.62577e-19)
(-0.800641 3.49811 2.78909e-19)
(-0.803848 3.4929 -2.76379e-19)
(-0.806735 3.48745 2.77045e-19)
(-0.809325 3.4818 -2.75009e-19)
(-0.811638 3.47597 0)
(-0.813694 3.47 -4.23903e-21)
(-0.815511 3.46392 2.68844e-19)
(-0.817107 3.45774 -5.33774e-19)
(-0.818497 3.45148 2.60973e-19)
(-0.819698 3.44518 3.82245e-24)
(-0.820724 3.43884 0)
(-0.821588 3.43249 -7.96517e-21)
(-0.822302 3.42613 2.55927e-19)
(-0.82288 3.41979 -4.96083e-19)
(-0.823332 3.41348 2.42326e-19)
(-0.823668 3.4072 0)
(-0.823899 3.40097 0)
(-0.824033 3.3948 -2.35028e-19)
(-0.82408 3.38869 4.5708e-19)
(-0.824046 3.38266 -2.24018e-19)
(-0.82394 3.3767 2.23104e-19)
(-0.823768 3.37083 -2.16375e-19)
(-0.823536 3.36505 -2.02981e-24)
(-0.823251 3.35936 -2.11046e-19)
(-0.822919 3.35376 2.03174e-19)
(-0.822544 3.34827 -7.88322e-22)
(-0.82213 3.34288 -2.0191e-19)
(-0.841226 3.54006 8.05171e-21)
(-0.847204 3.53685 0)
(-0.852651 3.5331 8.5613e-21)
(-0.857598 3.52887 0)
(-0.86208 3.52421 2.95984e-19)
(-0.866126 3.51916 -2.83996e-19)
(-0.869765 3.51377 0)
(-0.873027 3.50808 8.85604e-21)
(-0.875936 3.50213 2.94348e-19)
(-0.878518 3.49596 -2.74466e-19)
(-0.880796 3.4896 -4.41515e-21)
(-0.882791 3.48307 4.39634e-21)
(-0.884525 3.47642 2.88704e-19)
(-0.886017 3.46967 -5.56458e-19)
(-0.887285 3.46283 2.72387e-19)
(-0.888346 3.45594 2.8536e-19)
(-0.889217 3.44901 -2.63373e-19)
(-0.889913 3.44206 -2.70734e-19)
(-0.890447 3.43511 5.37685e-19)
(-0.890834 3.42817 -2.58892e-19)
(-0.891086 3.42126 0)
(-0.891213 3.41439 0)
(-0.891229 3.40757 0)
(-0.891142 3.40082 0)
(-0.890962 3.39413 1.9026e-21)
(-0.890698 3.38753 0)
(-0.890358 3.38101 -1.84256e-21)
(-0.88995 3.37458 2.35194e-19)
(-0.889482 3.36825 -2.26465e-19)
(-0.888958 3.36203 -1.64909e-24)
(-0.888387 3.35591 -2.2117e-19)
(-0.887774 3.3499 2.14708e-19)
(-0.887123 3.344 1.65616e-21)
(-0.886439 3.33822 0)
(-0.921055 3.5494 2.60258e-19)
(-0.92619 3.54484 -2.85405e-19)
(-0.930813 3.53981 5.62824e-19)
(-0.934958 3.53436 -2.68711e-19)
(-0.938657 3.52854 9.04492e-21)
(-0.941943 3.52239 0)
(-0.944844 3.51595 -5.95732e-23)
(-0.947387 3.50927 -9.10559e-21)
(-0.949598 3.50238 2.97649e-19)
(-0.951503 3.49532 -2.77756e-19)
(-0.953122 3.4881 -1.69213e-23)
(-0.954479 3.48077 4.51822e-21)
(-0.955593 3.47335 0)
(-0.956484 3.46587 2.8979e-19)
(-0.957168 3.45834 -2.8467e-19)
(-0.957663 3.45078 2.84536e-19)
(-0.957986 3.44323 -5.57e-19)
(-0.958149 3.43568 2.68367e-19)
(-0.958168 3.42816 4.25484e-21)
(-0.958055 3.42068 0)
(-0.957823 3.41326 0)
(-0.957482 3.40591 -2.64424e-19)
(-0.957044 3.39863 2.56475e-19)
(-0.956518 3.39143 -1.99054e-21)
(-0.955912 3.38433 0)
(-0.955237 3.37733 1.93003e-21)
(-0.954499 3.37043 -1.89907e-21)
(-0.953707 3.36365 0)
(-0.952866 3.35698 2.36533e-19)
(-0.951983 3.35044 -4.60282e-19)
(-0.951064 3.34402 2.25698e-19)
(-0.950115 3.33772 2.22282e-19)
(-0.949139 3.33155 -2.19039e-19)
(-0.994447 3.55965 2.75303e-19)
(-0.999179 3.5543 -2.71376e-19)
(-1.00339 3.54849 8.90464e-21)
(-1.00712 3.54227 2.99423e-19)
(-1.0104 3.5357 -2.78365e-19)
(-1.01326 3.52881 -9.26746e-21)
(-1.01574 3.52165 2.968e-19)
(-1.01786 3.51425 2.15057e-20)
(-1.01964 3.50666 -2.9588e-19)
(-1.02112 3.49891 -1.41217e-20)
(-1.02232 3.49102 -9.40726e-21)
(-1.02325 3.48303 -3.09397e-19)
(-1.02394 3.47496 5.97658e-19)
(-1.02441 3.46683 -5.9432e-19)
(-1.02468 3.45868 2.86846e-19)
(-1.02476 3.45051 -2.96372e-19)
(-1.02467 3.44235 2.87106e-19)
(-1.02443 3.43422 4.49021e-21)
(-1.02405 3.42613 -2.87482e-19)
(-1.02354 3.41809 2.78794e-19)
(-1.02292 3.41013 4.34416e-21)
(-1.02219 3.40224 0)
(-1.02137 3.39444 0)
(-1.02047 3.38674 -2.69432e-19)
(-1.0195 3.37915 2.61611e-19)
(-1.01846 3.37167 2.5944e-19)
(-1.01737 3.36432 -2.5396e-19)
(-1.01623 3.35709 0)
(-1.01505 3.34998 3.86737e-21)
(-1.01384 3.34302 -2.44797e-19)
(-1.01259 3.33619 2.39741e-19)
(-1.01133 3.32949 2.36245e-19)
(-1.01004 3.32294 -2.34746e-19)
(-1.06694 3.56748 2.75561e-19)
(-1.07119 3.56138 0)
(-1.07492 3.55483 -9.20366e-21)
(-1.07817 3.54788 -1.03865e-22)
(-1.08097 3.54059 -9.50459e-21)
(-1.08336 3.533 3.23116e-19)
(-1.08536 3.52514 -6.17533e-19)
(-1.08701 3.51707 3.13915e-19)
(-1.08832 3.5088 0)
(-1.08933 3.50038 3.17878e-19)
(-1.09006 3.49184 -2.9252e-19)
(-1.09053 3.48321 0)
(-1.09077 3.47451 3.20233e-19)
(-1.09078 3.46577 -6.19111e-19)
(-1.0906 3.457 6.20548e-19)
(-1.09024 3.44824 7.36339e-21)
(-1.08971 3.4395 -6.07089e-19)
(-1.08904 3.4308 2.97737e-19)
(-1.08823 3.42215 -7.06188e-24)
(-1.0873 3.41357 2.97975e-19)
(-1.08626 3.40506 -2.98386e-19)
(-1.08512 3.39666 0)
(-1.0839 3.38835 0)
(-1.08261 3.38016 -2.85692e-19)
(-1.08125 3.37209 -4.12071e-21)
(-1.07983 3.36414 2.73777e-19)
(-1.07837 3.35633 0)
(-1.07687 3.34866 0)
(-1.07533 3.34113 -2.04123e-21)
(-1.07377 3.33375 -2.0081e-21)
(-1.07218 3.32652 -3.94951e-21)
(-1.07058 3.31944 2.51735e-19)
(-1.06897 3.31251 -4.9722e-19)
(-1.14179 3.56606 2.8111e-19)
(-1.14499 3.55883 3.09079e-19)
(-1.14772 3.55121 -3.06592e-19)
(-1.15 3.54325 -3.09929e-19)
(-1.15187 3.53499 2.97997e-19)
(-1.15336 3.52649 0)
(-1.1545 3.51777 -1.00796e-20)
(-1.15531 3.50887 3.29477e-19)
(-1.15582 3.49982 2.1854e-20)
(-1.15606 3.49066 -6.59884e-19)
(-1.15605 3.48142 3.14667e-19)
(-1.1558 3.47212 3.24008e-19)
(-1.15534 3.46278 -3.18897e-19)
(-1.15469 3.45343 0)
(-1.15386 3.4441 -3.24177e-19)
(-1.15287 3.43479 6.36419e-19)
(-1.15174 3.42553 -3.1736e-19)
(-1.15049 3.41634 -4.89827e-21)
(-1.14912 3.40723 0)
(-1.14764 3.39821 4.80359e-21)
(-1.14608 3.38929 0)
(-1.14445 3.38049 0)
(-1.14274 3.37182 -2.96791e-19)
(-1.14098 3.36328 2.9306e-19)
(-1.13917 3.35487 0)
(-1.13732 3.34662 0)
(-1.13544 3.33852 -2.19327e-21)
(-1.13353 3.33057 -2.80431e-19)
(-1.13161 3.32279 2.70611e-19)
(-1.12967 3.31516 3.22207e-25)
(-1.12773 3.30771 -2.66791e-19)
(-1.12578 3.30041 2.63239e-19)
(-1.21059 3.56842 3.09049e-19)
(-1.21323 3.56057 -2.87357e-19)
(-1.2154 3.55234 3.1434e-19)
(-1.21713 3.54377 -3.32205e-19)
(-1.21846 3.53491 -3.24068e-19)
(-1.21942 3.52581 3.12376e-19)
(-1.22003 3.51649 0)
(-1.22032 3.507 0)
(-1.22032 3.49736 -3.43972e-19)
(-1.22005 3.48762 3.33064e-19)
(-1.21953 3.4778 1.58934e-20)
(-1.21879 3.46793 5.28986e-21)
(-1.21784 3.45802 5.28238e-21)
(-1.2167 3.44812 -3.42166e-19)
(-1.2154 3.43823 -8.32067e-21)
(-1.21394 3.42839 3.30622e-19)
(-1.21235 3.4186 3.36046e-19)
(-1.21063 3.40888 -3.2652e-19)
(-1.20881 3.39926 0)
(-1.2069 3.38973 0)
(-1.2049 3.38033 -3.23809e-19)
(-1.20283 3.37104 3.19767e-19)
(-1.20071 3.3619 3.16263e-19)
(-1.19854 3.3529 -6.22232e-19)
(-1.19632 3.34405 3.03693e-19)
(-1.19408 3.33537 -3.03815e-19)
(-1.19181 3.32684 5.97293e-19)
(-1.18953 3.31849 -2.89e-19)
(-1.18724 3.31031 0)
(-1.18494 3.3023 2.87943e-19)
(-1.18265 3.29448 -5.59e-19)
(-1.18036 3.28683 2.75177e-19)
(-1.27723 3.56861 -2.9394e-19)
(-1.27929 3.56021 -9.93782e-21)
(-1.28089 3.55144 1.02031e-20)
(-1.28207 3.54232 3.4127e-19)
(-1.28285 3.53292 -3.18782e-19)
(-1.28327 3.52327 2.14393e-20)
(-1.28335 3.51341 -3.54677e-19)
(-1.28312 3.50337 -1.41085e-20)
(-1.2826 3.49319 3.35185e-19)
(-1.28181 3.48291 1.1046e-20)
(-1.28079 3.47255 -1.1137e-20)
(-1.27954 3.46213 -5.57394e-21)
(-1.2781 3.4517 -5.57095e-21)
(-1.27647 3.44127 -5.53979e-21)
(-1.27468 3.43086 0)
(-1.27275 3.42049 0)
(-1.27069 3.41019 -5.46973e-21)
(-1.26851 3.39997 0)
(-1.26624 3.38985 -3.54349e-19)
(-1.26388 3.37984 -1.17907e-20)
(-1.26144 3.36996 6.73437e-19)
(-1.25894 3.36021 -6.77105e-19)
(-1.25639 3.35061 3.29604e-19)
(-1.25381 3.34117 -5.12774e-21)
(-1.25119 3.33188 -2.53258e-21)
(-1.24854 3.32278 0)
(-1.24589 3.31384 3.17946e-19)
(-1.24322 3.30509 -6.22813e-19)
(-1.24056 3.29653 3.04994e-19)
(-1.2379 3.28815 0)
(-1.23526 3.27996 3.01325e-19)
(-1.23263 3.27197 -2.92888e-19)
(-1.34142 3.56682 -3.26367e-19)
(-1.34291 3.55795 6.41215e-19)
(-1.34395 3.5487 -3.24976e-19)
(-1.34457 3.53911 1.08124e-20)
(-1.34481 3.52923 -3.71516e-19)
(-1.34469 3.51909 -1.73116e-20)
(-1.34425 3.50874 7.35821e-19)
(-1.34349 3.49821 -3.70198e-19)
(-1.34246 3.48753 3.76568e-19)
(-1.34117 3.47675 -3.76913e-19)
(-1.33964 3.46588 0)
(-1.3379 3.45497 0)
(-1.33597 3.44403 -5.83983e-21)
(-1.33386 3.4331 3.85089e-19)
(-1.33159 3.42219 -3.68546e-19)
(-1.32919 3.41134 -5.80209e-21)
(-1.32666 3.40055 -3.74367e-19)
(-1.32402 3.38984 3.64177e-19)
(-1.3213 3.37925 -3.57866e-19)
(-1.31849 3.36877 3.6505e-19)
(-1.31562 3.35842 3.68595e-19)
(-1.31269 3.34822 6.08186e-21)
(-1.30972 3.33818 -3.49893e-19)
(-1.30671 3.3283 5.45588e-21)
(-1.30369 3.3186 -3.44675e-19)
(-1.30065 3.30908 3.35574e-19)
(-1.2976 3.29974 -2.62457e-21)
(-1.29456 3.29061 0)
(-1.29153 3.28166 -3.28861e-19)
(-1.28851 3.27292 -3.70073e-21)
(-1.28551 3.26439 -5.95801e-21)
(-1.28254 3.25605 3.14886e-19)
(-1.40294 3.56328 3.46856e-19)
(-1.40387 3.55402 -3.1409e-19)
(-1.40436 3.54437 1.08094e-20)
(-1.40445 3.53438 1.11187e-20)
(-1.40417 3.52408 1.13842e-20)
(-1.40353 3.51351 3.70642e-19)
(-1.40258 3.50272 -7.7017e-19)
(-1.40132 3.49175 3.88079e-19)
(-1.39979 3.48062 1.21632e-20)
(-1.398 3.46938 0)
(-1.39599 3.45805 -4.11626e-19)
(-1.39377 3.44667 -1.23181e-20)
(-1.39136 3.43527 3.95199e-19)
(-1.38877 3.42386 0)
(-1.38604 3.41249 -3.99475e-19)
(-1.38317 3.40116 3.94826e-19)
(-1.38019 3.38991 1.22495e-20)
(-1.3771 3.37874 3.94321e-19)
(-1.37393 3.36768 1.80871e-21)
(-1.37069 3.35675 -3.75515e-19)
(-1.36738 3.34596 0)
(-1.36403 3.33532 -3.82222e-19)
(-1.36064 3.32484 -6.13405e-21)
(-1.35723 3.31454 3.74444e-19)
(-1.3538 3.30443 -3.64405e-19)
(-1.35037 3.29451 3.63406e-19)
(-1.34694 3.28478 2.80354e-21)
(-1.34353 3.27527 0)
(-1.34013 3.26596 0)
(-1.33675 3.25686 2.68537e-21)
(-1.33341 3.24798 2.64515e-21)
(-1.3301 3.23932 0)
(-1.46163 3.55824 3.58797e-19)
(-1.46203 3.54868 -3.25594e-19)
(-1.46201 3.53871 3.62638e-19)
(-1.46159 3.52837 -3.73575e-19)
(-1.46081 3.51772 -1.19956e-22)
(-1.45968 3.50678 0)
(-1.45824 3.49561 0)
(-1.4565 3.48424 4.11775e-19)
(-1.4545 3.47271 -8.2808e-19)
(-1.45225 3.46106 4.03753e-19)
(-1.44977 3.44931 1.29736e-20)
(-1.44708 3.4375 0)
(-1.44421 3.42566 -4.23384e-19)
(-1.44118 3.41381 -1.16009e-20)
(-1.438 3.40199 8.35545e-19)
(-1.43468 3.39022 -4.18585e-19)
(-1.43126 3.37852 4.20855e-19)
(-1.42774 3.36691 -4.03512e-19)
(-1.42413 3.35541 0)
(-1.42046 3.34404 -1.28111e-20)
(-1.41674 3.33281 6.35269e-21)
(-1.41297 3.32175 4.07395e-19)
(-1.40918 3.31085 -3.90781e-19)
(-1.40537 3.30014 -6.20111e-21)
(-1.40155 3.28962 -1.22594e-20)
(-1.39773 3.27931 -3.9064e-19)
(-1.39393 3.2692 3.80671e-19)
(-1.39014 3.25931 3.80798e-19)
(-1.38638 3.24964 7.46873e-21)
(-1.38266 3.24019 -3.68792e-19)
(-1.37897 3.23097 -3.70325e-19)
(-1.37533 3.22199 -3.84025e-21)
(-1.51738 3.55196 -2.02746e-19)
(-1.5173 3.54217 1.63343e-19)
(-1.5168 3.53195 1.95163e-19)
(-1.51591 3.52134 -1.89025e-19)
(-1.51467 3.5104 3.99356e-19)
(-1.51309 3.49916 -3.99387e-19)
(-1.5112 3.48766 0)
(-1.50902 3.47595 1.32037e-20)
(-1.50657 3.46406 4.38172e-19)
(-1.50388 3.45204 -4.25897e-19)
(-1.50096 3.4399 0)
(-1.49784 3.4277 1.37178e-20)
(-1.49454 3.41545 1.3779e-20)
(-1.49108 3.4032 0)
(-1.48747 3.39096 0)
(-1.48373 3.37877 6.94175e-21)
(-1.47988 3.36664 -1.38331e-20)
(-1.47594 3.3546 4.39291e-19)
(-1.47193 3.34268 -4.28115e-19)
(-1.46785 3.33088 1.99014e-23)
(-1.46372 3.31923 -1.35775e-20)
(-1.45955 3.30775 0)
(-1.45536 3.29644 4.24652e-19)
(-1.45116 3.28533 -4.20548e-19)
(-1.44696 3.27441 6.56425e-21)
(-1.44277 3.26371 -3.23983e-21)
(-1.4386 3.25322 0)
(-1.43446 3.24297 -3.16308e-21)
(-1.43035 3.23294 -5.5983e-24)
(-1.42628 3.22315 -3.93692e-19)
(-1.42227 3.2136 3.86599e-19)
(-1.4183 3.20429 0)
(-1.57018 3.54469 -2.23728e-20)
(-1.56965 3.53475 1.96682e-19)
(-1.56872 3.52435 -2.02752e-19)
(-1.56741 3.51354 2.23287e-19)
(-1.56575 3.50237 -1.91082e-19)
(-1.56376 3.49088 -2.20877e-19)
(-1.56146 3.47911 2.14524e-19)
(-1.55887 3.46711 -2.56438e-19)
(-1.55602 3.45491 2.50571e-19)
(-1.55292 3.44256 1.42998e-20)
(-1.5496 3.43008 1.44391e-20)
(-1.54608 3.41752 -2.9175e-20)
(-1.54238 3.4049 -1.4703e-20)
(-1.53852 3.39226 -4.77775e-19)
(-1.53451 3.37963 9.51462e-19)
(-1.53037 3.36703 -4.73771e-19)
(-1.52613 3.3545 -4.70107e-19)
(-1.52179 3.34205 -1.04541e-20)
(-1.51738 3.32971 4.57081e-19)
(-1.51291 3.31751 7.31128e-21)
(-1.50839 3.30545 7.26946e-21)
(-1.50384 3.29356 0)
(-1.49928 3.28185 -7.14618e-21)
(-1.4947 3.27033 0)
(-1.49013 3.25903 -7.01797e-21)
(-1.48558 3.24794 4.58616e-19)
(-1.48106 3.23708 -8.8001e-19)
(-1.47656 3.22646 4.319e-19)
(-1.47212 3.21607 4.28448e-19)
(-1.46772 3.20594 -4.24163e-19)
(-1.46338 3.19606 3.26313e-21)
(-1.4591 3.18643 -3.25462e-21)
(-1.62004 3.53666 2.03232e-19)
(-1.61912 3.52663 0)
(-1.61781 3.51612 -2.13717e-19)
(-1.61613 3.50518 1.93884e-19)
(-1.6141 3.49386 -2.54906e-19)
(-1.61174 3.48218 -1.19742e-20)
(-1.60907 3.47019 2.40844e-19)
(-1.60612 3.45794 -2.4152e-19)
(-1.60291 3.44548 2.20121e-19)
(-1.59945 3.43284 -2.78365e-19)
(-1.59577 3.42006 2.26182e-19)
(-1.59188 3.40717 -2.21155e-19)
(-1.58781 3.39421 2.61443e-19)
(-1.58358 3.38122 -1.56463e-20)
(-1.5792 3.36822 2.47189e-19)
(-1.5747 3.35524 -2.40964e-19)
(-1.57008 3.34232 7.86207e-21)
(-1.56537 3.32948 0)
(-1.56059 3.31674 0)
(-1.55575 3.30413 0)
(-1.55087 3.29167 0)
(-1.54595 3.27938 4.98959e-19)
(-1.54102 3.26727 -4.79162e-19)
(-1.53609 3.25536 0)
(-1.53117 3.24367 -4.78644e-19)
(-1.52627 3.2322 -1.43698e-20)
(-1.5214 3.22097 4.72898e-19)
(-1.51657 3.20998 3.65143e-21)
(-1.51179 3.19924 -3.59805e-21)
(-1.50707 3.18877 4.57559e-19)
(-1.50241 3.17855 -8.96903e-19)
(-1.49783 3.1686 4.52696e-19)
(-1.66703 3.52806 2.43495e-20)
(-1.66577 3.51802 -2.41155e-19)
(-1.66413 3.50748 2.22498e-19)
(-1.66213 3.49647 -2.32463e-19)
(-1.65978 3.48504 2.4048e-19)
(-1.65711 3.47323 0)
(-1.65413 3.46109 -3.06584e-20)
(-1.65086 3.44866 2.717e-19)
(-1.64733 3.43598 -5.24971e-21)
(-1.64356 3.4231 -5.00785e-19)
(-1.63955 3.41005 -9.37911e-21)
(-1.63534 3.39687 2.59713e-19)
(-1.63094 3.3836 -1.66821e-20)
(-1.62638 3.37027 2.7176e-19)
(-1.62166 3.35693 -2.65188e-19)