/*--------------------------------*- C++ -*----------------------------------*\
  =========                 |
  \\      /  F ield         | OpenFOAM: The Open Source CFD Toolbox
   \\    /   O peration     | Website:  https://openfoam.org
    \\  /    A nd           | Version:  10
     \\/     M anipulation  |
\*---------------------------------------------------------------------------*/
FoamFile
{
    format      ascii;
    class       volScalarField;
    location    "2400";
    object      k;
}
// * * * * * * * * * * * * * * * * * * * * * * * * * * * * * * * * * * * * * //

dimensions      [0 2 -2 0 0 0 0];

internalField   nonuniform List<scalar> 
420
(
2.22045e-16
2.22045e-16
2.22045e-16
2.22045e-16
2.22045e-16
2.22045e-16
2.22045e-16
2.22045e-16
2.22045e-16
2.22045e-16
2.22045e-16
2.22045e-16
2.22045e-16
2.22045e-16
2.22045e-16
2.22045e-16
2.22045e-16
2.22045e-16
2.22045e-16
2.22045e-16
2.22045e-16
2.22045e-16
2.22045e-16
2.22045e-16
2.22045e-16
2.22045e-16
2.22045e-16
2.22045e-16
2.22045e-16
2.22045e-16
2.22045e-16
2.22045e-16
2.22045e-16
2.22045e-16
2.22045e-16
2.22045e-16
2.22045e-16
2.22045e-16
2.22045e-16
2.22045e-16
2.22045e-16
2.22045e-16
2.22045e-16
2.22045e-16
2.22045e-16
2.22045e-16
2.22045e-16
2.22045e-16
2.22045e-16
2.22045e-16
2.22045e-16
2.22045e-16
2.22045e-16
2.22045e-16
2.22045e-16
2.22045e-16
2.22045e-16
2.22045e-16
2.22045e-16
2.22045e-16
2.22045e-16
2.22045e-16
2.22045e-16
2.22045e-16
2.22045e-16
2.22045e-16
2.22045e-16
2.22045e-16
2.22045e-16
2.22045e-16
2.22045e-16
2.22045e-16
2.22045e-16
2.22045e-16
2.22045e-16
2.22045e-16
2.22045e-16
2.22045e-16
2.22045e-16
2.22045e-16
2.22045e-16
2.22045e-16
2.22045e-16
2.22045e-16
2.22045e-16
2.22045e-16
2.22045e-16
2.22045e-16
2.22045e-16
2.22045e-16
2.22045e-16
2.22045e-16
2.22045e-16
2.22045e-16
2.22045e-16
2.22045e-16
2.22045e-16
2.22045e-16
2.22045e-16
2.22045e-16
2.22045e-16
2.22045e-16
2.27683e-16
2.73309e-16
3.17231e-16
2.97533e-16
2.62441e-16
2.22045e-16
2.60099e-16
2.22045e-16
2.22045e-16
2.22045e-16
2.26593e-16
2.76947e-16
3.17386e-16
2.95921e-16
2.61664e-16
2.22045e-16
2.58772e-16
2.22045e-16
2.22045e-16
2.22045e-16
2.24707e-16
2.79164e-16
3.14393e-16
2.923e-16
2.61337e-16
2.22045e-16
2.54801e-16
2.22045e-16
2.22045e-16
2.22045e-16
2.22283e-16
2.79947e-16
3.08934e-16
2.88278e-16
2.60795e-16
2.22045e-16
2.50168e-16
2.22045e-16
2.22045e-16
2.22045e-16
2.22045e-16
2.79624e-16
3.02675e-16
2.84345e-16
2.60187e-16
2.22045e-16
2.46071e-16
2.22045e-16
2.22045e-16
2.22045e-16
2.22045e-16
2.78827e-16
2.98801e-16
2.81024e-16
2.60402e-16
2.22045e-16
2.43108e-16
2.22045e-16
2.22045e-16
2.22045e-16
2.22045e-16
2.78851e-16
2.96244e-16
2.78181e-16
2.6128e-16
2.22045e-16
2.40817e-16
2.22045e-16
2.22045e-16
2.22045e-16
2.22045e-16
2.79197e-16
2.9427e-16
2.75867e-16
2.62556e-16
2.22045e-16
2.39204e-16
2.22045e-16
2.22045e-16
2.22045e-16
2.23836e-16
2.79909e-16
2.9276e-16
2.74026e-16
2.64106e-16
2.22045e-16
2.383e-16
2.22045e-16
2.22045e-16
2.22045e-16
2.34025e-16
2.80548e-16
2.91604e-16
2.72577e-16
2.65802e-16
2.22045e-16
2.3856e-16
2.22045e-16
2.22045e-16
2.22045e-16
2.48234e-16
2.79624e-16
2.90392e-16
2.71054e-16
2.67178e-16
2.22045e-16
2.37473e-16
2.22045e-16
2.22045e-16
2.22045e-16
2.54716e-16
2.76789e-16
2.89244e-16
2.69801e-16
2.67816e-16
2.22045e-16
2.34195e-16
2.22045e-16
2.22045e-16
2.22045e-16
2.56148e-16
2.72366e-16
2.87447e-16
2.68312e-16
2.67809e-16
2.22045e-16
2.33582e-16
2.22045e-16
2.22045e-16
2.38499e-16
2.50471e-16
2.65344e-16
2.86006e-16
2.6702e-16
2.67534e-16
2.22045e-16
2.35039e-16
2.22045e-16
2.26963e-16
2.35715e-16
2.41782e-16
2.59095e-16
2.85574e-16
2.66644e-16
2.67148e-16
2.23996e-16
2.33948e-16
2.22045e-16
2.25354e-16
2.28044e-16
2.33605e-16
2.53576e-16
2.85498e-16
2.66994e-16
2.66573e-16
2.25309e-16
2.33372e-16
2.22045e-16
2.22045e-16
2.22473e-16
2.27687e-16
2.49654e-16
2.8618e-16
2.68699e-16
2.65998e-16
2.25752e-16
2.33021e-16
2.22045e-16
2.22045e-16
2.22045e-16
2.244e-16
2.48126e-16
2.87612e-16
2.71823e-16
2.65528e-16
2.2547e-16
2.32764e-16
2.22045e-16
2.22045e-16
2.22045e-16
2.23432e-16
2.49084e-16
2.91145e-16
2.76227e-16
2.65556e-16
2.25084e-16
2.31867e-16
2.22045e-16
2.22045e-16
2.22045e-16
2.23838e-16
2.5195e-16
2.96465e-16
2.81113e-16
2.6682e-16
2.24562e-16
2.2779e-16
2.22045e-16
2.22045e-16
2.22045e-16
2.24279e-16
2.55457e-16
3.02066e-16
2.84381e-16
2.68467e-16
2.23098e-16
2.24722e-16
2.22045e-16
2.22045e-16
2.22045e-16
2.2353e-16
2.57873e-16
3.05826e-16
2.8375e-16
2.69139e-16
2.22045e-16
2.30721e-16
2.22045e-16
2.22045e-16
2.22045e-16
2.22045e-16
2.22045e-16
2.22045e-16
2.22045e-16
2.22045e-16
2.22045e-16
2.22045e-16
2.22242e-16
2.22045e-16
2.22045e-16
2.22045e-16
2.22045e-16
2.22045e-16
2.22045e-16
2.22045e-16
2.22045e-16
2.22045e-16
2.22045e-16
2.22045e-16
2.22045e-16
2.22045e-16
2.22045e-16
2.22045e-16
2.22045e-16
2.22045e-16
2.22045e-16
2.22045e-16
2.22045e-16
2.22045e-16
2.22045e-16
2.22045e-16
2.22045e-16
2.22045e-16
2.22045e-16
2.22045e-16
2.22045e-16
2.22045e-16
2.22045e-16
2.22045e-16
2.22045e-16
2.22045e-16
2.22045e-16
2.22045e-16
2.22045e-16
2.22045e-16
2.22045e-16
2.22045e-16
2.22045e-16
2.22045e-16
2.22045e-16
2.22045e-16
2.22045e-16
2.22045e-16
2.22045e-16
2.22045e-16
2.22045e-16
2.22045e-16
2.22045e-16
2.22045e-16
2.22045e-16
2.22045e-16
2.22045e-16
2.22045e-16
2.22045e-16
2.22045e-16
2.22045e-16
2.22045e-16
2.22045e-16
2.22045e-16
2.22045e-16
2.22045e-16
2.22045e-16
2.22045e-16
2.22045e-16
2.22045e-16
2.22045e-16
2.22045e-16
2.22045e-16
2.22045e-16
2.22045e-16
2.22045e-16
2.22045e-16
2.22045e-16
2.22045e-16
2.22045e-16
2.22045e-16
2.22045e-16
2.22045e-16
2.22045e-16
2.22045e-16
2.22045e-16
2.22045e-16
2.22045e-16
2.22045e-16
2.22045e-16
2.22045e-16
2.22045e-16
2.22045e-16
)
;

boundaryField
{
    right
    {
        type            cyclic;
    }
    left
    {
        type            cyclic;
    }
    outerWall
    {
        type            kqRWallFunction;
        value           uniform 2.22045e-16;
    }
    stirrerWall
    {
        type            kqRWallFunction;
        value           uniform 2.22045e-16;
    }
    top
    {
        type            empty;
    }
    bottom
    {
        type            empty;
    }
}


// ************************************************************************* //
