/*--------------------------------*- C++ -*----------------------------------*\
  =========                 |
  \\      /  F ield         | OpenFOAM: The Open Source CFD Toolbox
   \\    /   O peration     | Website:  https://openfoam.org
    \\  /    A nd           | Version:  10
     \\/     M anipulation  |
\*---------------------------------------------------------------------------*/
FoamFile
{
    format      ascii;
    class       volScalarField;
    location    "2400";
    object      nut;
}
// * * * * * * * * * * * * * * * * * * * * * * * * * * * * * * * * * * * * * //

dimensions      [0 2 -1 0 0 0 0];

internalField   nonuniform List<scalar> 
420
(
1.04478e-20
5.30788e-20
1.4351e-19
2.75406e-19
4.28841e-19
5.80766e-19
7.0471e-19
7.7048e-19
7.43968e-19
6.42731e-19
1.04473e-20
5.54372e-20
1.46386e-19
2.74132e-19
4.22131e-19
5.68972e-19
6.86279e-19
7.37241e-19
6.89275e-19
5.74793e-19
1.04471e-20
5.85904e-20
1.5409e-19
2.81067e-19
4.23675e-19
5.63595e-19
6.70899e-19
7.00325e-19
6.26306e-19
5.0222e-19
1.04472e-20
6.11558e-20
1.63239e-19
2.92193e-19
4.29476e-19
5.58929e-19
6.49047e-19
6.50504e-19
5.52379e-19
4.26947e-19
1.04476e-20
6.32551e-20
1.71053e-19
2.98628e-19
4.23736e-19
5.33529e-19
6.00511e-19
5.78233e-19
4.67666e-19
3.51089e-19
1.04483e-20
6.32429e-20
1.68028e-19
2.76535e-19
3.71417e-19
4.49873e-19
4.96383e-19
4.75519e-19
3.74282e-19
2.77985e-19
1.04493e-20
6.03801e-20
1.36803e-19
2.01273e-19
2.54395e-19
3.01537e-19
3.37575e-19
3.4209e-19
2.78579e-19
2.04818e-19
1.04506e-20
4.77328e-20
7.93996e-20
1.02873e-19
1.25721e-19
1.49205e-19
1.72443e-19
1.88148e-19
1.75908e-19
1.32107e-19
1.04522e-20
2.14708e-20
2.791e-20
3.44494e-20
4.16735e-20
4.95608e-20
5.81282e-20
6.67858e-20
7.32742e-20
6.39861e-20
2.82342e-21
3.6643e-21
4.61494e-21
5.67535e-21
6.84552e-21
8.12545e-21
9.51514e-21
1.10146e-20
1.26238e-20
1.43428e-20
5.3636e-19
4.81406e-19
5.3002e-19
7.97096e-19
1.12996e-18
9.83332e-19
8.33018e-19
5.05974e-19
1.93533e-19
6.20016e-20
4.74263e-19
4.37063e-19
5.07011e-19
8.1338e-19
1.14724e-18
8.97431e-19
7.87604e-19
4.93703e-19
1.809e-19
6.20034e-20
4.12012e-19
3.93789e-19
4.84461e-19
8.29457e-19
1.119e-18
8.82639e-19
7.42604e-19
4.83698e-19
1.76821e-19
6.2004e-20
3.51173e-19
3.51758e-19
4.62441e-19
8.43711e-19
1.03803e-18
8.88034e-19
7.17717e-19
4.74248e-19
1.74482e-19
6.20033e-20
2.92105e-19
3.10041e-19
4.44606e-19
7.85168e-19
9.03292e-19
9.07745e-19
7.10294e-19
4.65291e-19
1.74963e-19
6.20012e-20
2.32275e-19
2.66446e-19
4.26748e-19
7.68024e-19
8.83142e-19
9.37047e-19
7.12533e-19
4.61414e-19
1.76849e-19
6.19978e-20
1.72093e-19
2.2169e-19
4.0864e-19
7.97385e-19
9.0507e-19
9.58856e-19
7.15422e-19
4.62331e-19
1.80133e-19
6.19932e-20
1.14928e-19
1.78066e-19
3.92709e-19
8.37214e-19
9.35049e-19
9.96308e-19
7.22302e-19
4.66771e-19
1.84713e-19
6.19873e-20
6.61028e-20
1.38461e-19
3.86805e-19
8.73708e-19
9.63276e-19
1.04796e-18
7.35498e-19
4.73415e-19
1.91928e-19
6.19801e-20
3.05307e-20
1.06184e-19
4.12599e-19
8.7134e-19
9.74311e-19
1.06768e-18
7.57552e-19
4.81632e-19
1.92718e-19
6.19718e-20
1.03958e-20
8.78652e-20
4.92652e-19
8.18575e-19
9.4822e-19
1.0625e-18
7.44377e-19
4.90351e-19
1.94542e-19
6.20994e-20
1.03958e-20
1.09145e-19
5.96632e-19
7.53358e-19
8.80141e-19
1.02327e-18
6.91322e-19
4.86136e-19
2.09087e-19
6.20994e-20
6.55282e-20
2.9406e-19
6.13228e-19
7.55467e-19
8.96772e-19
1.07954e-18
6.82098e-19
4.81965e-19
2.07345e-19
6.19718e-20
2.93672e-19
5.44254e-19
6.48486e-19
7.91086e-19
9.4388e-19
1.08291e-18
7.15586e-19
4.95406e-19
2.04301e-19
6.19801e-20
5.64229e-19
6.12906e-19
6.65954e-19
8.01015e-19
9.47614e-19
1.08265e-18
7.36436e-19
5.14115e-19
2.13146e-19
6.19873e-20
6.7305e-19
6.70317e-19
6.92334e-19
8.30332e-19
9.79245e-19
1.08184e-18
7.7462e-19
5.33565e-19
2.21467e-19
6.19932e-20
7.47795e-19
7.01311e-19
6.85635e-19
8.00519e-19
1.02544e-18
1.08144e-18
8.23769e-19
5.50463e-19
2.29822e-19
6.19978e-20
7.56427e-19
6.77522e-19
6.52045e-19
7.75167e-19
1.02634e-18
1.08143e-18
8.977e-19
5.61633e-19
2.3461e-19
6.20012e-20
7.31593e-19
6.475e-19
6.22679e-19
7.57894e-19
1.02498e-18
1.0846e-18
9.2468e-19
5.62094e-19
2.26222e-19
6.20033e-20
6.95603e-19
6.11184e-19
5.95494e-19
7.48385e-19
1.03407e-18
1.09074e-18
9.17135e-19
5.53692e-19
2.30291e-19
6.2004e-20
6.50511e-19
5.70342e-19
5.68499e-19
7.45256e-19
1.05137e-18
1.0448e-18
9.07047e-19
5.39145e-19
2.28024e-19
6.20034e-20
5.98873e-19
5.27091e-19
5.40793e-19
7.45928e-19
1.07154e-18
8.92765e-19
8.94271e-19
5.24204e-19
1.7892e-19
6.20016e-20
1.43428e-20
1.15916e-19
4.20649e-19
6.94089e-19
8.01157e-19
8.30321e-19
8.20683e-19
7.94605e-19
7.56216e-19
7.08594e-19
1.26238e-20
8.48194e-20
2.93531e-19
5.79711e-19
7.68033e-19
8.4569e-19
8.58922e-19
8.4849e-19
8.25633e-19
7.94136e-19
1.10146e-20
6.35755e-20
1.93677e-19
4.05599e-19
6.13071e-19
7.40391e-19
7.95203e-19
8.10138e-19
8.07454e-19
7.97671e-19
9.51514e-21
5.14211e-20
1.37009e-19
2.66328e-19
4.14306e-19
5.44395e-19
6.40346e-19
6.90414e-19
7.08452e-19
7.13635e-19
8.12545e-21
4.37982e-20
1.09238e-19
1.98081e-19
2.99711e-19
3.99519e-19
4.86797e-19
5.45852e-19
5.73181e-19
5.83106e-19
6.84552e-21
3.77962e-20
9.36202e-20
1.64079e-19
2.4076e-19
3.15172e-19
3.78844e-19
4.19614e-19
4.34054e-19
4.34341e-19
5.67535e-21
3.21617e-20
8.18172e-20
1.41987e-19
2.01569e-19
2.52225e-19
2.86567e-19
2.98547e-19
2.93889e-19
2.83834e-19
4.61494e-21
2.65573e-20
6.84078e-20
1.13203e-19
1.46628e-19
1.65293e-19
1.70297e-19
1.66194e-19
1.58195e-19
1.49709e-19
3.6643e-21
2.0624e-20
4.36748e-20
5.62885e-20
6.10164e-20
6.20488e-20
6.15854e-20
6.05672e-20
5.88289e-20
5.61154e-20
2.82342e-21
1.04522e-20
1.04506e-20
1.04493e-20
1.04483e-20
1.04476e-20
1.04472e-20
1.04471e-20
1.04473e-20
1.04478e-20
)
;

boundaryField
{
    right
    {
        type            cyclic;
    }
    left
    {
        type            cyclic;
    }
    outerWall
    {
        type            nutkWallFunction;
        Cmu             0.09;
        kappa           0.41;
        E               9.8;
        value           uniform 0;
    }
    stirrerWall
    {
        type            nutkWallFunction;
        Cmu             0.09;
        kappa           0.41;
        E               9.8;
        value           uniform 0;
    }
    top
    {
        type            empty;
    }
    bottom
    {
        type            empty;
    }
}


// ************************************************************************* //
