/*--------------------------------*- C++ -*----------------------------------*\
  =========                 |
  \\      /  F ield         | OpenFOAM: The Open Source CFD Toolbox
   \\    /   O peration     | Website:  https://openfoam.org
    \\  /    A nd           | Version:  10
     \\/     M anipulation  |
\*---------------------------------------------------------------------------*/
FoamFile
{
    format      ascii;
    class       volScalarField;
    location    "2400";
    object      omega;
}
// * * * * * * * * * * * * * * * * * * * * * * * * * * * * * * * * * * * * * //

dimensions      [0 0 -1 0 0 0 0];

internalField   nonuniform List<scalar> 
420
(
21252.7
4183.3
1547.24
806.245
517.779
382.33
315.086
288.19
298.46
345.471
21253.7
4005.34
1516.84
809.991
526.008
390.256
323.549
301.183
322.142
386.304
21254.2
3789.78
1441.01
790.006
524.092
393.979
330.966
317.059
354.53
442.126
21254
3630.8
1360.24
759.924
517.012
397.268
342.109
341.342
401.978
520.076
21253.2
3510.31
1298.1
743.55
524.016
416.181
369.759
384.006
474.793
632.445
21251.7
3510.98
1321.47
802.954
597.83
493.571
447.325
466.952
593.255
798.765
21249.7
3677.45
1623.09
1103.2
872.835
736.376
657.763
649.083
797.063
1084.11
21247.1
4651.82
2796.54
2158.43
1766.17
1488.18
1287.64
1180.16
1262.28
1680.79
21243.8
10341.7
7955.75
6445.53
5328.19
4480.25
3819.91
3324.73
3030.32
3470.2
78643.9
60596.7
48114.3
39124.4
32436.5
27327.1
23335.9
20159.1
17589.3
15481.3
413.984
461.242
429.575
342.881
280.744
259.722
307.059
438.846
1098.26
3581.27
468.189
508.037
446.919
340.489
276.652
259.373
311.308
449.754
1143.33
3581.17
538.927
563.867
463.829
336.562
272.199
258.483
315.327
459.056
1177.74
3581.13
632.294
631.242
480.674
331.804
268.102
257.699
318.69
468.203
1206.68
3581.18
760.154
716.177
499.419
327.586
264.934
257.188
321.35
477.216
1216.82
3581.3
955.954
833.356
520.318
323.902
262.61
256.419
321.952
481.226
1211.98
3581.49
1290.26
1001.6
543.375
320.177
260.869
255.214
320.991
480.272
1198.18
3581.76
1932.04
1246.98
565.418
315.99
259.775
253.719
318.815
475.704
1176.55
3582.1
3359.08
1603.66
578.677
310.947
259.444
252.154
315.88
469.027
1148.47
3582.51
7272.84
2091.13
567.197
304.737
259.948
250.794
312.717
461.025
1115.47
3582.99
21359.1
2527.1
503.873
297.482
261.191
249.771
310.49
452.828
1063.43
3575.63
21359.1
2034.41
426.924
293.853
262.268
248.815
308.566
456.754
1076.02
3575.63
3388.54
755.1
349.606
291.391
263.013
248.041
306.105
460.707
1098.41
3582.99
756.098
385.728
317.89
292.929
265.132
246.575
300.216
448.208
1066.8
3582.51
363.451
320.041
316.091
297.887
268.365
246.289
294.755
435.692
1034.41
3582.1
299.433
312.136
322.313
304.296
271.978
246.797
289.822
422.27
1002.7
3581.76
289.832
317.224
332.082
311.865
276.02
248.465
286.471
410.114
972.499
3581.49
293.544
327.73
344.148
320.094
280.229
251.356
285.359
401.455
947.996
3581.3
303.508
342.926
358.824
328.654
284.049
254.68
287.187
400.438
935.953
3581.18
319.212
363.303
375.886
336.658
286.698
257.726
290.928
405.573
951.077
3581.13
341.339
389.318
394.51
342.778
287.307
259.716
295.979
413.799
985.515
3581.17
370.771
421.264
413.337
345.707
285.407
260.13
300.959
423.585
1046.98
3581.27
15481.3
1915.56
527.862
316.639
275.084
267.42
270.561
279.44
293.626
313.637
17589.3
2617.85
756.46
383.027
289.108
262.56
258.515
261.694
268.939
279.605
20159.1
3492.61
1146.47
547.449
362.184
299.902
279.23
274.082
274.993
278.366
23335.9
4318.16
1620.65
833.725
535.943
407.874
346.757
321.611
313.422
311.146
27327.1
5069.71
2032.68
1120.98
740.862
555.779
456.134
406.785
387.39
380.796
32436.5
5874.79
2371.76
1353.28
922.265
704.519
586.111
529.164
511.56
511.222
39124.4
6904
2713.91
1563.84
1101.58
880.345
774.843
743.752
755.538
782.305
48114.3
8360.95
3245.89
1961.47
1514.33
1343.34
1303.86
1336.05
1403.61
1483.18
60596.7
10766.3
5084.04
3944.76
3639.1
3578.55
3605.47
3666.09
3774.42
3956.93
78643.9
21243.8
21247.1
21249.7
21251.7
21253.2
21254
21254.2
21253.7
21252.7
)
;

boundaryField
{
    right
    {
        type            cyclic;
    }
    left
    {
        type            cyclic;
    }
    outerWall
    {
        beta1           0.075;
        blended         0;
        type            omegaWallFunction;
        value           nonuniform List<scalar> 
22
(
3581.27
3581.17
3581.13
3581.18
3581.3
3581.49
3581.76
3582.1
3582.51
3582.99
3575.63
3575.63
3582.99
3582.51
3582.1
3581.76
3581.49
3581.3
3581.18
3581.13
3581.17
3581.27
)
;
    }
    stirrerWall
    {
        beta1           0.075;
        blended         0;
        type            omegaWallFunction;
        value           nonuniform List<scalar> 
42
(
21252.7
21253.7
21254.2
21254
21253.2
21251.7
21249.7
21247.1
21243.8
78643.9
78643.9
60596.7
48114.3
39124.4
32436.5
27327.1
23335.9
20159.1
17589.3
15481.3
21359.1
21359.1
15481.3
17589.3
20159.1
23335.9
27327.1
32436.5
39124.4
48114.3
60596.7
78643.9
78643.9
21243.8
21247.1
21249.7
21251.7
21253.2
21254
21254.2
21253.7
21252.7
)
;
    }
    top
    {
        type            empty;
    }
    bottom
    {
        type            empty;
    }
}


// ************************************************************************* //
