/*--------------------------------*- C++ -*----------------------------------*\
  =========                 |
  \\      /  F ield         | OpenFOAM: The Open Source CFD Toolbox
   \\    /   O peration     | Website:  https://openfoam.org
    \\  /    A nd           | Version:  10
     \\/     M anipulation  |
\*---------------------------------------------------------------------------*/
FoamFile
{
    format      ascii;
    class       volScalarField;
    location    "2400";
    object      p;
}
// * * * * * * * * * * * * * * * * * * * * * * * * * * * * * * * * * * * * * //

dimensions      [0 2 -2 0 0 0 0];

internalField   nonuniform List<scalar> 
420
(
-0.571599
14.4656
30.6543
49.1735
69.2805
90.4168
112.108
133.718
154.738
174.642
-1.10277
14.099
30.0883
48.3641
68.2674
89.2897
110.986
132.724
153.898
174.002
-1.43689
13.7491
29.509
47.5
67.1595
88.0353
109.701
131.537
152.915
173.315
-1.62002
13.4501
28.9519
46.6178
65.9795
86.6487
108.248
130.196
151.851
172.64
-1.69008
13.2452
28.4704
45.7698
64.7736
85.1754
106.673
128.753
150.751
172.01
-1.68909
13.1623
28.116
45.0201
63.6132
83.6887
105.032
127.235
149.624
171.428
-1.65055
13.2117
27.9255
44.4206
62.563
82.2486
103.359
125.634
148.456
170.945
-1.60326
13.3941
27.9184
44.0036
61.6759
80.9121
101.685
123.883
147.1
170.41
-1.61284
13.7149
28.0873
43.782
61.014
79.7822
100.093
121.926
145.077
168.801
-1.74611
14.1357
28.2581
43.6387
60.5617
78.9829
98.8726
120.144
142.5
165.546
193.049
210.463
226.948
242.02
255.475
267.438
275.905
282.416
281.345
306.121
192.636
210.211
226.727
241.765
255.208
267.175
275.789
283.202
285.481
312.023
192.26
210.054
226.661
241.793
255.424
267.69
276.791
285.468
290.971
318.621
191.967
210.007
226.73
242.044
255.991
268.736
278.499
288.55
297.52
324.726
191.767
210.051
226.902
242.461
256.784
270.097
280.595
291.972
303.777
330.223
191.663
210.152
227.137
243.001
257.714
271.599
282.789
295.359
309.256
335.005
191.772
210.309
227.382
243.624
258.739
273.177
284.963
298.545
314.016
339.048
192.128
210.541
227.576
244.282
259.872
274.871
287.243
301.813
318.863
342.623
192.114
211.063
227.991
245.059
261.132
276.694
289.74
305.653
324.822
346.053
191.075
212.369
229.129
246.108
262.483
278.571
292.304
309.954
330.263
348.681
190.844
213.37
230.374
247.292
263.737
280.329
294.042
312.686
330.538
349.082
192.076
213.755
231.223
248.053
264.497
281.262
295.255
313.707
329.613
348.663
196.965
214.644
232.115
249.039
265.55
282.277
297.031
314.436
331.309
350.968
196.784
214.633
232.256
249.39
266.046
282.933
298.106
315.501
333.418
351.934
195.96
214.18
231.973
249.226
265.959
282.963
298.519
316.129
333.741
351.427
195.343
213.583
231.412
248.659
265.329
282.256
297.926
315.275
332.074
349.295
194.927
213.008
230.716
247.818
264.275
280.956
296.555
313.263
328.552
345.176
194.605
212.476
229.966
246.803
262.903
279.196
294.506
310.11
323.868
341.632
194.326
211.996
229.224
245.699
261.281
276.89
291.21
304.838
318.643
342.85
194.043
211.547
228.514
244.579
259.486
273.941
286.014
296.087
310.189
343.678
193.732
211.113
227.842
243.493
257.695
270.863
280.52
286.613
295.598
318.248
193.422
210.77
227.318
242.58
256.29
268.68
277.416
282.739
283.084
296.069
179.497
177.449
176.496
176.18
176.083
176.027
175.941
175.776
175.512
175.15
153.323
154.143
154.853
155.431
155.867
156.141
156.238
156.144
155.849
155.377
126.403
129.434
131.888
133.533
134.609
135.251
135.528
135.482
135.118
134.504
102.114
105.458
108.717
111.103
112.718
113.702
114.153
114.156
113.757
113.038
80.5608
83.2869
86.3588
88.9026
90.7251
91.8838
92.4483
92.4962
92.1088
91.3784
61.3114
63.2335
65.6009
67.7597
69.4199
70.523
71.0848
71.1526
70.8107
70.1555
44.1204
45.3078
46.7922
48.2573
49.4571
50.274
50.6852
50.7137
50.4174
49.8825
28.854
29.411
30.0474
30.706
31.2779
31.674
31.846
31.7893
31.5374
31.1526
15.4814
15.3917
15.3164
15.3105
15.3457
15.362
15.3131
15.1856
14.992
14.757
3.17364
2.0312
1.06751
0.47858
0.112135
-0.159239
-0.39781
-0.608785
-0.749196
-0.774558
)
;

boundaryField
{
    right
    {
        type            cyclic;
    }
    left
    {
        type            cyclic;
    }
    outerWall
    {
        type            zeroGradient;
    }
    stirrerWall
    {
        type            zeroGradient;
    }
    top
    {
        type            empty;
    }
    bottom
    {
        type            empty;
    }
}


// ************************************************************************* //
