/*--------------------------------*- C++ -*----------------------------------*\
  =========                 |
  \\      /  F ield         | OpenFOAM: The Open Source CFD Toolbox
   \\    /   O peration     | Website:  https://openfoam.org
    \\  /    A nd           | Version:  10
     \\/     M anipulation  |
\*---------------------------------------------------------------------------*/
FoamFile
{
    format      ascii;
    class       surfaceScalarField;
    location    "2400";
    object      phi;
}
// * * * * * * * * * * * * * * * * * * * * * * * * * * * * * * * * * * * * * //

dimensions      [0 3 -1 0 0 0 0];

internalField   nonuniform List<scalar> 
788
(
3.36361e-06
-3.83332e-06
3.76144e-06
5.357e-06
5.21498e-06
1.10762e-05
7.21651e-06
1.27673e-05
9.22964e-06
1.11269e-05
1.08143e-05
6.36876e-06
1.16062e-05
-1.11505e-06
1.1879e-05
-1.02135e-05
1.15019e-05
-2.09867e-05
-3.3429e-05
1.06304e-05
2.12421e-06
-5.94264e-06
3.26404e-06
4.27472e-06
4.88844e-06
9.52001e-06
6.83181e-06
1.08888e-05
8.69287e-06
9.29237e-06
1.00965e-05
4.93168e-06
1.05984e-05
-1.72128e-06
1.03159e-05
-1.00711e-05
9.11776e-06
-1.99014e-05
-3.19903e-05
7.63454e-06
1.18443e-06
-7.1061e-06
2.52474e-06
3.0212e-06
4.42815e-06
7.72185e-06
6.4771e-06
8.91749e-06
8.22937e-06
7.55424e-06
9.30743e-06
3.79637e-06
9.29761e-06
-1.83724e-06
8.17908e-06
-9.10159e-06
6.1439e-06
-1.79798e-05
-3.00689e-05
4.16782e-06
6.3396e-07
-7.70775e-06
1.77656e-06
1.99367e-06
3.7111e-06
5.91437e-06
5.74621e-06
6.96557e-06
7.32539e-06
5.9858e-06
7.97317e-06
3.08579e-06
7.33191e-06
-1.31849e-06
5.39137e-06
-7.29123e-06
2.74139e-06
-1.54099e-05
-2.78774e-05
5.44531e-07
1.24684e-07
-7.79023e-06
9.13337e-07
1.34151e-06
2.67678e-06
4.29443e-06
4.54394e-06
5.19003e-06
5.87926e-06
4.67158e-06
6.14374e-06
2.77291e-06
5.03881e-06
-3.13438e-07
2.59704e-06
-4.95286e-06
-4.11752e-07
-1.24568e-05
-2.55726e-05
-2.70363e-06
-4.40553e-07
-7.30044e-06
-3.08509e-08
1.08515e-06
1.46502e-06
2.96098e-06
3.09965e-06
3.66595e-06
4.23659e-06
3.58072e-06
4.31329e-06
2.67476e-06
3.00183e-06
9.24113e-07
3.56045e-07
-2.39055e-06
-2.8669e-06
-9.2769e-06
-2.315e-05
-5.27139e-06
-1.03088e-06
-6.21409e-06
-9.27091e-07
1.15041e-06
2.83548e-07
1.9358e-06
1.69993e-06
2.3881e-06
2.76115e-06
2.59653e-06
2.93713e-06
2.50223e-06
1.79664e-06
2.00681e-06
-7.38677e-07
7.16515e-08
-4.11437e-06
-5.93648e-06
-2.02312e-05
-7.0118e-06
-1.63552e-06
-4.5175e-06
-1.63524e-06
1.33388e-06
-6.16535e-07
1.12747e-06
6.09563e-07
1.33165e-06
1.68006e-06
1.63137e-06
2.2296e-06
1.97245e-06
1.86706e-06
2.32109e-06
9.07193e-08
1.79515e-06
-3.55667e-06
-2.28162e-06
-1.57099e-05
-8.01707e-06
-2.21916e-06
-2.23258e-06
-1.79818e-06
1.09288e-06
-8.8029e-07
4.0738e-07
1.358e-07
4.69442e-07
1.18414e-06
6.67717e-07
2.16169e-06
9.99794e-07
2.97164e-06
1.4669e-06
3.02479e-06
1.72135e-06
2.16357e-07
5.96403e-07
-7.63418e-06
-7.73482e-06
-2.17881e-06
-9.99936e-07
-5.24049e-07
-1.60401e-08
6.55094e-07
1.63895e-06
3.09676e-06
4.83776e-06
5.48413e-06
-2.11343e-06
9.68419e-06
-4.95624e-05
9.28327e-06
-7.81682e-05
9.84563e-06
-0.00012032
1.09843e-05
-0.00017461
1.28144e-05
-0.000240245
1.49679e-05
-0.000329125
2.35831e-05
-0.0004304
3.51197e-05
-0.000563245
3.24447e-05
-0.000729791
-0.000169965
6.62555e-06
-4.85229e-05
6.57864e-06
-7.80366e-05
7.44144e-06
-0.000121097
8.47133e-06
-0.000175582
9.86636e-06
-0.000241594
1.10593e-05
-0.000330334
1.49827e-05
-0.000434434
2.22836e-05
-0.000570635
1.86081e-05
-0.000725846
-0.000151596
3.17097e-06
-4.75316e-05
3.45885e-06
-7.83477e-05
4.4511e-06
-0.000122223
5.1531e-06
-0.000176519
6.02562e-06
-0.000242499
6.19651e-06
-0.000330316
7.14267e-06
-0.000435398
1.14013e-05
-0.00057506
3.83308e-06
-0.000718455
-0.000147739
-2.91134e-07
-4.66536e-05
2.9184e-07
-7.89256e-05
1.26755e-06
-0.000123326
1.62437e-06
-0.000177118
1.98474e-06
-0.000242866
1.26868e-06
-0.000329437
-6.8303e-08
-0.000434307
1.95248e-06
-0.000576941
-4.67407e-06
-0.000711978
-0.000152315
-3.34032e-06
-4.59729e-05
-2.53357e-06
-7.97409e-05
-1.70708e-06
-0.000124271
-1.66158e-06
-0.000177315
-1.73305e-06
-0.000242706
-3.17994e-06
-0.000327817
-5.94033e-06
-0.000431721
-5.40668e-06
-0.000577253
-9.95386e-06
-0.000707555
-0.000162188
-5.73669e-06
-4.54722e-05
-4.81929e-06
-8.06846e-05
-4.23093e-06
-0.000124971
-4.45152e-06
-0.000177169
-4.86205e-06
-0.000242167
-6.76068e-06
-0.000325863
-1.02573e-05
-0.000428343
-1.03095e-05
-0.000577018
-1.314e-05
-0.000704873
-0.000175268
-7.28291e-06
-4.51654e-05
-6.37105e-06
-8.16125e-05
-6.10699e-06
-0.000125304
-6.53868e-06
-0.00017672
-7.20683e-06
-0.000241342
-9.34473e-06
-0.000323798
-1.3226e-05
-0.000424578
-1.36434e-05
-0.000576464
-1.55783e-05
-0.000703119
-0.000190795
-7.7364e-06
-4.53978e-05
-7.05743e-06
-8.23091e-05
-7.15349e-06
-0.000125247
-7.76633e-06
-0.000176024
-8.66505e-06
-0.000240267
-1.09045e-05
-0.000321723
-1.49512e-05
-0.00042066
-1.55234e-05
-0.000575758
-1.7151e-05
-0.000701665
-0.000207963
-6.71065e-06
-4.63616e-05
-6.37627e-06
-8.26671e-05
-7.05881e-06
-0.000124581
-8.00439e-06
-0.000174969
-9.10001e-06
-0.000239001
-1.12537e-05
-0.000319788
-1.55358e-05
-0.000416522
-1.6878e-05
-0.000574236
-1.82016e-05
-0.000700338
-0.000226408
-1.25813e-06
-4.72352e-05
-3.37746e-06
-8.05627e-05
-5.83644e-06
-0.000122195
-7.41874e-06
-0.000173379
-8.71573e-06
-0.000237594
-1.0052e-05
-0.000318522
-1.3068e-05
-0.000413516
-1.76465e-05
-0.000569801
-2.14493e-05
-0.000696387
-0.000247891
-1.29301e-07
-4.71359e-05
-2.47997e-06
-7.83061e-05
-4.28643e-06
-0.000120472
-5.29228e-06
-0.000172302
-5.83895e-06
-0.000236914
-7.0116e-06
-0.000317501
-9.42535e-06
-0.000411135
-3.33141e-06
-0.000576048
6.83914e-06
-0.000706475
-0.000241066
1.05224e-06
-4.82219e-05
-5.75999e-07
-7.67674e-05
-2.08586e-06
-0.000119042
-2.81318e-06
-0.000171472
-3.27448e-06
-0.000236331
-4.56631e-06
-0.000316475
-7.87059e-06
-0.00040786
-3.01298e-06
-0.000580879
8.04169e-06
-0.000717485
-0.000233144
-4.99136e-06
-4.17033e-05
-1.562e-06
-6.05291e-06
-7.53244e-05
-7.7891e-06
-0.000117417
-9.41243e-06
-0.000169885
-1.11658e-05
-0.000234573
-1.22094e-05
-0.000315643
-1.49595e-05
-0.000405018
-2.01569e-05
-0.000575853
-1.84064e-05
-0.000719227
-0.000251507
-7.90006e-06
-4.51773e-05
1.16643e-05
-6.66243e-06
-7.63321e-05
-6.88738e-06
-0.000117434
-7.58479e-06
-0.000169259
-8.74448e-06
-0.000233401
-9.65057e-06
-0.000315035
-1.43326e-05
-0.000400255
-1.92305e-05
-0.000571058
-1.55357e-05
-0.00072301
-0.000267006
-7.59523e-06
-4.82557e-05
1.09176e-05
-5.9831e-06
-7.78384e-05
-5.7887e-06
-0.000117941
-6.09721e-06
-0.000169038
-7.04168e-06
-0.000232414
-7.85142e-06
-0.000314524
-1.29841e-05
-0.000395164
-1.87612e-05
-0.000565217
-1.48419e-05
-0.00072701
-0.000281813
-4.71101e-06
-5.04366e-05
7.06205e-06
-3.55641e-06
-7.90427e-05
-3.41035e-06
-0.000118433
-3.56508e-06
-0.000168963
-4.34048e-06
-0.000231533
-4.9625e-06
-0.00031406
-9.66505e-06
-0.000390476
-1.60199e-05
-0.000558799
-1.37653e-05
-0.000729391
-0.000295543
-5.93073e-07
-5.17303e-05
1.95406e-06
-7.74599e-08
-7.97309e-05
-9.47026e-08
-0.000118737
-1.31278e-07
-0.000168972
-6.3101e-07
-0.000230912
-1.07205e-06
-0.00031377
-4.89473e-06
-0.000386677
-1.12233e-05
-0.000552413
-1.14216e-05
-0.000729341
-0.000306921
3.78299e-06
-5.22473e-05
-3.29552e-06
3.81634e-06
-7.99932e-05
3.76905e-06
-0.000118959
4.08537e-06
-0.000169268
4.26821e-06
-0.000230923
4.3682e-06
-0.000314009
2.2022e-06
-0.000384551
-3.41022e-06
-0.000546745
-7.01365e-06
-0.000725865
-0.000313886
7.79159e-06
-5.21993e-05
-7.91455e-06
7.61633e-06
-8.00522e-05
7.74239e-06
-0.000119284
8.66454e-06
-0.000170085
9.98349e-06
-0.000232017
1.14161e-05
-0.000315577
1.24425e-05
-0.000385641
9.97484e-06
-0.000544209
3.1412e-06
-0.000719093
-0.000310731
1.08771e-05
-5.18448e-05
-1.1321e-05
1.05508e-05
-7.99393e-05
1.0818e-05
-0.000119675
1.22223e-05
-0.000171324
1.46313e-05
-0.000234204
1.80744e-05
-0.000319241
2.44129e-05
-0.000392147
2.75743e-05
-0.000547285
2.62265e-05
-0.000717799
-0.000284473
1.25774e-05
-5.12282e-05
-1.32914e-05
1.18622e-05
-7.93901e-05
1.19645e-05
-0.000119833
1.33334e-05
-0.000172525
1.59706e-05
-0.000236771
2.00109e-05
-0.000323862
3.36722e-05
-0.000406468
3.22992e-05
-0.000545749
2.29192e-05
-0.000708055
-0.000261755
1.17357e-05
-1.2593e-05
1.07864e-05
1.05662e-05
1.12582e-05
1.22974e-05
1.42758e-05
2.93505e-05
3.65229e-05
5.98156e-05
-1.40861e-05
1.27257e-05
-2.29551e-05
2.08651e-05
-2.77896e-05
1.60406e-05
-3.09458e-05
1.03105e-05
-3.29867e-05
3.96095e-06
-3.41255e-05
-2.26749e-06
-3.45816e-05
-7.61328e-06
-3.4628e-05
-1.14419e-05
-3.44908e-05
-1.35677e-05
-1.30505e-05
-2.16339e-06
1.50564e-05
-6.78588e-06
2.58477e-05
-1.09585e-05
2.05445e-05
-1.41265e-05
1.37179e-05
-1.65446e-05
6.54822e-06
-1.83705e-05
-3.45914e-07
-1.9693e-05
-6.25063e-06
-2.04716e-05
-1.06496e-05
-2.09644e-05
-1.3086e-05
-1.30745e-05
2.26094e-06
1.29368e-05
2.94651e-06
2.54139e-05
1.47139e-06
2.22235e-05
-4.7399e-07
1.58118e-05
-2.41351e-06
8.58117e-06
-4.29992e-06
1.58367e-06
-6.14452e-06
-4.39931e-06
-7.71216e-06
-9.10047e-06
-8.9266e-06
-1.19284e-05
-1.25744e-05
3.63312e-06
9.38354e-06
8.14369e-06
2.10022e-05
9.90149e-06
2.04829e-05
1.0036e-05
1.56822e-05
9.08635e-06
9.51324e-06
7.41614e-06
3.2221e-06
5.35844e-06
-2.37976e-06
3.20299e-06
-6.99207e-06
1.30619e-06
-1.01032e-05
-1.1284e-05
3.41881e-06
5.97902e-06
9.67829e-06
1.46945e-05
1.39257e-05
1.60908e-05
1.61112e-05
1.33835e-05
1.6599e-05
8.92752e-06
1.58792e-05
3.86317e-06
1.43367e-05
-8.93745e-07
1.22669e-05
-4.96719e-06
1.00347e-05
-7.91797e-06
-9.26151e-06
2.64045e-06
3.30784e-06
8.62166e-06
8.56497e-06
1.38889e-05
1.05925e-05
1.75215e-05
9.58288e-06
1.94442e-05
6.87608e-06
1.98508e-05
3.3657e-06
1.90817e-05
-1.79482e-07
1.74223e-05
-3.338e-06
1.52509e-05
-5.76173e-06
-7.00809e-06
1.8861e-06
1.37474e-06
6.59448e-06
3.66323e-06
1.16044e-05
5.32984e-06
1.56675e-05
5.34475e-06
1.83149e-05
4.10352e-06
1.94969e-05
2.10227e-06
1.94316e-05
-1.57956e-07
1.83577e-05
-2.2793e-06
1.6567e-05
-3.96161e-06
-4.94886e-06
1.38678e-06
-5.57611e-08
4.59878e-06
2.61815e-07
8.41516e-06
1.28491e-06
1.18714e-05
1.73212e-06
1.43969e-05
1.46815e-06
1.57593e-05
6.69569e-07
1.59752e-05
-4.1136e-07
1.52193e-05
-1.53323e-06
1.38299e-05
-2.55164e-06
-3.30458e-06
8.63102e-07
-9.51451e-07
2.51523e-06
-1.54282e-06
4.69454e-06
-1.05066e-06
6.80772e-06
-4.89191e-07
8.42332e-06
-2.22078e-07
9.26373e-06
-2.18225e-07
9.20818e-06
-3.81987e-07
8.31423e-06
-6.46947e-07
6.85076e-06
-1.07408e-06
-1.86872e-06
-9.71756e-07
-2.58854e-06
-3.68816e-06
-4.2114e-06
-4.45543e-06
-4.68531e-06
-5.06995e-06
-5.70909e-06
-6.76177e-06
)
;

boundaryField
{
    right
    {
        type            cyclic;
        value           nonuniform List<scalar> 
20
(
0.000202067
0.00073188
0.000553137
0.000421146
0.000325491
0.000237413
0.000172877
0.000119453
7.84306e-05
5.04219e-05
3.42006e-05
2.11505e-05
9.67823e-06
1.4435e-07
-7.98149e-06
-1.30477e-05
-1.46099e-05
-1.2354e-05
-5.55317e-06
8.51144e-06
)
;
    }
    left
    {
        type            cyclic;
        value           nonuniform List<scalar> 
20
(
-0.000202067
-0.00073188
-0.000553137
-0.000421146
-0.000325491
-0.000237413
-0.000172877
-0.000119453
-7.84306e-05
-5.04219e-05
-3.42006e-05
-2.11505e-05
-9.67823e-06
-1.4435e-07
7.98149e-06
1.30477e-05
1.46099e-05
1.2354e-05
5.55317e-06
-8.51144e-06
)
;
    }
    outerWall
    {
        type            calculated;
        value           uniform 0;
    }
    stirrerWall
    {
        type            calculated;
        value           uniform 0;
    }
    top
    {
        type            empty;
        value           nonuniform List<scalar> 0();
    }
    bottom
    {
        type            empty;
        value           nonuniform List<scalar> 0();
    }
}


// ************************************************************************* //
