/*--------------------------------*- C++ -*----------------------------------*\
  =========                 |
  \\      /  F ield         | OpenFOAM: The Open Source CFD Toolbox
   \\    /   O peration     | Website:  https://openfoam.org
    \\  /    A nd           | Version:  10
     \\/     M anipulation  |
\*---------------------------------------------------------------------------*/
FoamFile
{
    format      ascii;
    class       volVectorField;
    location    "2400";
    object      U;
}
// * * * * * * * * * * * * * * * * * * * * * * * * * * * * * * * * * * * * * //

dimensions      [0 1 -1 0 0 0 0];

internalField   nonuniform List<vector> 
420
(
(0.72554 8.53343 5.58252e-18)
(0.0755867 10.6952 -4.00816e-17)
(0.0831482 12.5031 -2.08009e-16)
(0.19822 13.9345 5.79344e-17)
(0.303923 15.0623 -4.11428e-16)
(0.385275 15.9166 0)
(0.398904 16.5279 0)
(0.323218 17 3.94722e-16)
(0.209294 17.2957 -4.19757e-16)
(0.120435 17.473 0)
(0.0414973 8.65645 1.95087e-17)
(-0.889673 10.6417 -8.5254e-17)
(-0.875101 12.3747 6.17577e-16)
(-0.85925 13.7738 -9.42925e-16)
(-0.843564 14.9052 2.97584e-16)
(-0.841946 15.7812 9.15805e-18)
(-0.89262 16.4256 2.54568e-15)
(-1.04079 16.9108 -5.90025e-16)
(-1.22624 17.2765 8.7608e-16)
(-1.36758 17.5064 0)
(-0.680304 8.49788 -1.63177e-17)
(-1.80308 10.4212 -3.65196e-16)
(-1.82472 12.1097 6.10139e-16)
(-1.88039 13.4805 1.07863e-15)
(-1.94722 14.6129 -7.18314e-16)
(-2.04105 15.5146 3.40879e-15)
(-2.18917 16.2285 1.49276e-15)
(-2.43603 16.7924 3.45503e-15)
(-2.7067 17.2364 -1.41731e-15)
(-2.89897 17.47 -3.23082e-15)
(-1.35874 8.32889 4.34993e-17)
(-2.65042 10.1343 3.50576e-16)
(-2.76003 11.7677 -7.72393e-16)
(-2.90223 13.1172 7.29799e-16)
(-3.06267 14.263 -1.43436e-15)
(-3.26655 15.211 1.48068e-15)
(-3.53028 16.0028 -9.03746e-15)
(-3.88908 16.6404 0)
(-4.23703 17.1266 -3.32038e-15)
(-4.45759 17.3229 3.22196e-15)
(-2.01579 8.15184 0)
(-3.47431 9.80408 2.99792e-16)
(-3.68698 11.3557 -2.8477e-16)
(-3.93244 12.6772 0)
(-4.19968 13.8405 -2.31817e-16)
(-4.52083 14.8428 -3.04802e-16)
(-4.90221 15.7111 3.18008e-15)
(-5.35559 16.4186 -3.38799e-15)
(-5.76379 16.924 0)
(-5.9887 17.0558 -1.42905e-14)
(-2.66336 7.97323 -1.11715e-17)
(-4.28672 9.43894 0)
(-4.59492 10.8862 0)
(-4.94897 12.1682 1.30492e-15)
(-5.32549 13.3433 -2.08793e-15)
(-5.75905 14.3981 2.42954e-15)
(-6.25194 15.3379 6.23341e-16)
(-6.7864 16.1132 8.18304e-15)
(-7.24395 16.6281 -1.09605e-14)
(-7.45943 16.6793 7.50183e-15)
(-3.31747 7.79034 0)
(-5.07281 9.03881 -3.24417e-16)
(-5.46565 10.371 -2.04618e-15)
(-5.92233 11.6013 -8.32565e-16)
(-6.4014 12.775 -3.8234e-15)
(-6.93485 13.8721 2.52225e-15)
(-7.5276 14.8819 -6.48467e-15)
(-8.13562 15.7318 6.80336e-16)
(-8.64092 16.2753 -3.61043e-15)
(-8.85659 16.2525 -1.19079e-14)
(-3.9916 7.59676 1.58721e-17)
(-5.81593 8.60576 3.31033e-16)
(-6.27796 9.82625 2.71506e-15)
(-6.82453 10.9964 5.55721e-16)
(-7.39925 12.1487 2.3386e-15)
(-8.01964 13.2677 0)
(-8.69179 14.3415 6.6626e-15)
(-9.35668 15.2933 8.27903e-15)
(-9.9153 15.9203 9.92638e-15)
(-10.2094 15.8391 8.87471e-15)
(-4.6999 7.36158 1.45864e-17)
(-6.45864 8.13494 3.40779e-16)
(-6.97656 9.25686 -3.67361e-16)
(-7.60106 10.3511 -1.86758e-15)
(-8.25445 11.4353 6.27732e-15)
(-8.93076 12.5112 8.77076e-15)
(-9.62896 13.5821 -3.10681e-15)
(-10.3105 14.6133 0)
(-10.924 15.4146 0)
(-11.4388 15.3945 -9.11169e-15)
(-5.52195 7.02933 -6.75771e-17)
(-6.9625 7.72711 6.82407e-16)
(-7.58185 8.7413 0)
(-8.34309 9.76332 0)
(-9.13214 10.7842 -3.45516e-15)
(-9.91763 11.8201 -1.69325e-17)
(-10.6801 12.8773 6.3649e-15)
(-11.3918 13.9409 -1.39367e-14)
(-12.0573 14.8825 1.6552e-14)
(-12.7006 15.1267 1.30612e-15)
(0.0443984 17.4376 0)
(-0.0340738 17.0784 0)
(-0.078407 16.3285 0)
(-0.0110008 15.4732 -7.81659e-16)
(0.0459713 14.7319 0)
(0.0187049 13.6244 0)
(0.957071 13.0485 8.10793e-16)
(-0.39612 11.8946 0)
(-0.396054 10.5619 0)
(7.6306 34.4322 0)
(-1.44312 17.4595 1.38935e-15)
(-1.48138 17.029 2.4663e-15)
(-1.43103 16.205 1.28616e-16)
(-1.28048 15.3282 8.61295e-16)
(-1.16023 14.5652 3.38508e-17)
(-1.10671 13.4445 9.77614e-16)
(-0.331724 12.7303 -8.91823e-17)
(-1.72683 11.484 -1.28077e-16)
(-1.53073 10.553 -1.74534e-15)
(4.69142 36.0415 -3.03448e-15)
(-2.96971 17.3569 1.28368e-15)
(-2.95022 16.8322 0)
(-2.79109 15.9614 -1.99862e-15)
(-2.57149 15.1081 -1.6692e-15)
(-2.39773 14.3544 4.97479e-15)
(-2.26352 13.2798 -9.79295e-16)
(-1.63408 12.503 1.61678e-15)
(-2.89107 11.0164 0)
(-2.54218 10.6208 1.63523e-15)
(1.04888 36.2383 -1.26116e-16)
(-4.49459 17.1098 3.00493e-15)
(-4.3967 16.4802 7.59879e-15)
(-4.12248 15.5901 -7.82375e-15)
(-3.84896 14.7834 3.05906e-15)
(-3.6286 14.0551 1.20332e-17)
(-3.41105 13.0532 0)
(-2.91967 12.2569 -1.62955e-15)
(-3.96644 10.5669 -2.28056e-15)
(-3.45335 10.6456 -1.65041e-15)
(-2.55063 35.988 1.06516e-14)
(-5.97557 16.7208 2.82677e-15)
(-5.7792 15.9938 -2.53509e-15)
(-5.39646 15.1223 8.11927e-15)
(-5.08878 14.3782 -3.17155e-15)
(-4.82689 13.6839 2.60993e-15)
(-4.52874 12.7753 -4.01073e-15)
(-4.16327 11.9774 3.26992e-15)
(-4.93168 10.1333 2.2679e-15)
(-4.30907 10.5175 0)
(-5.87288 35.1634 -2.08207e-14)
(-7.38693 16.2009 3.54106e-15)
(-7.06974 15.396 -1.50929e-14)
(-6.5967 14.5785 -4.27881e-15)
(-6.27547 13.9018 9.8137e-15)
(-5.97703 13.244 8.16254e-15)
(-5.60274 12.4401 1.31939e-16)
(-5.33242 11.6529 9.0788e-17)
(-5.8097 9.67603 -2.42862e-15)
(-5.06457 10.3029 -3.31897e-15)
(-8.96621 33.9822 1.95043e-14)
(-8.7223 15.5818 3.46618e-15)
(-8.25015 14.7119 5.20596e-15)
(-7.71294 13.9762 0)
(-7.39536 13.3613 -3.2383e-15)
(-7.06428 12.741 -5.20273e-15)
(-6.6225 12.0417 1.664e-16)
(-6.42057 11.2782 -1.05304e-14)
(-6.62098 9.16679 -2.49664e-15)
(-5.73303 10.0088 5.62163e-15)
(-11.844 32.4702 -8.75005e-15)
(-9.94881 14.8761 1.30607e-14)
(-9.32474 13.9635 -4.63084e-15)
(-8.73949 13.3334 0)
(-8.43664 12.7694 -1.45807e-16)
(-8.08297 12.1859 2.16305e-14)
(-7.58367 11.5853 -8.7123e-15)
(-7.42996 10.8554 -7.34012e-15)
(-7.37863 8.63353 5.36285e-15)
(-6.33901 9.7076 -4.94695e-15)
(-14.4967 30.7183 0)
(-10.8885 14.078 2.71597e-16)
(-10.3107 13.194 -4.62863e-15)
(-9.68817 12.6821 0)
(-9.38993 12.1433 7.02612e-15)
(-9.02396 11.5808 -1.63929e-14)
(-8.46585 11.0722 9.0527e-15)
(-8.34789 10.3867 3.69422e-15)
(-8.07834 8.03506 0)
(-6.91601 9.37569 -2.79745e-16)
(-16.8761 28.7346 1.03669e-14)
(-11.143 13.5137 3.99473e-16)
(-11.2049 12.4717 1.14475e-16)
(-10.5902 12.0352 0)
(-10.2549 11.4805 -1.37419e-14)
(-9.87077 10.9136 5.17485e-15)
(-9.24191 10.4749 -4.85229e-15)
(-9.09659 9.8712 3.58846e-15)
(-8.69593 7.53708 4.57967e-16)
(-7.61891 8.98999 2.74712e-16)
(-18.8798 26.3799 -1.03205e-14)
(-11.0949 13.9136 3.16718e-15)
(-11.9703 12.0712 -5.44667e-15)
(-11.4086 11.5683 0)
(-10.9886 11.0038 0)
(-10.5554 10.4504 0)
(-9.9214 10.06 -2.49641e-15)
(-9.80662 9.53478 1.00002e-14)
(-9.02756 7.17226 0)
(-7.29956 9.17862 0)
(-20.2762 25.14 0)
(-11.8267 13.1893 -3.17131e-15)
(-12.583 11.7207 -5.68394e-15)
(-12.0503 11.116 0)
(-11.5527 10.5401 3.78254e-15)
(-11.0724 9.98692 -2.8911e-15)
(-10.4174 9.63532 2.59016e-15)
(-10.3001 9.18767 4.3998e-15)
(-9.26302 6.49849 -1.12094e-16)
(-7.45114 8.58731 1.36421e-15)
(-21.5247 24.6134 0)
(-13.9072 11.3648 3.95817e-16)
(-13.3981 10.8648 -5.54907e-17)
(-12.7899 10.2917 0)
(-12.2209 9.74047 2.16493e-16)
(-11.711 9.18742 6.4481e-15)
(-11.0008 8.8858 -4.68275e-15)
(-10.8589 8.53742 -1.24991e-14)
(-9.67996 5.66419 -6.92073e-15)
(-8.25796 7.16283 1.21022e-14)
(-23.0444 22.9058 1.06356e-14)
(-14.8944 10.1163 -1.33438e-14)
(-14.2428 9.79064 5.08714e-15)
(-13.5701 9.39157 0)
(-12.9483 8.94069 -7.67949e-15)
(-12.4122 8.4425 -6.34021e-15)
(-11.6242 8.19654 1.03767e-14)
(-11.5721 7.97471 4.51127e-15)
(-10.3496 5.05509 0)
(-8.63399 6.73936 -7.32666e-15)
(-24.358 20.5356 -1.23751e-15)
(-15.3419 8.86477 -2.92317e-16)
(-14.8086 8.68143 5.0461e-15)
(-14.169 8.39329 0)
(-13.5461 8.02945 1.50671e-14)
(-13.0146 7.57621 -4.70661e-17)
(-12.1837 7.37554 -2.11522e-16)
(-12.2179 7.36471 9.51077e-15)
(-10.9019 4.34215 -6.81975e-15)
(-8.90548 6.07986 -6.69357e-15)
(-25.4925 18.215 0)
(-15.6628 7.78699 -3.11259e-15)
(-15.2396 7.65965 1.06514e-14)
(-14.6547 7.42793 9.29702e-15)
(-14.0466 7.13076 -1.08642e-14)
(-13.5344 6.71511 -1.90393e-14)
(-12.6718 6.54935 -5.23622e-16)
(-12.8073 6.77025 -4.93043e-15)
(-11.3917 3.69449 -3.57548e-15)
(-9.16763 5.43671 -7.95903e-15)
(-26.4046 15.9177 -1.16353e-14)
(-15.9441 6.8109 -9.81365e-15)
(-15.6024 6.69478 5.35215e-15)
(-15.0596 6.4879 -4.10146e-15)
(-14.4614 6.24248 -1.13431e-14)
(-13.9677 5.86097 8.8803e-15)
(-13.0848 5.7238 -5.33187e-16)
(-13.3288 6.17099 9.30949e-15)
(-11.8246 3.07412 3.89203e-15)
(-9.44036 4.86 4.68465e-15)
(-27.1204 13.629 1.18926e-15)
(-16.231 5.87261 2.95379e-15)
(-15.9386 5.75075 -2.72062e-15)
(-15.4108 5.55594 -1.56072e-16)
(-14.8034 5.35895 1.11928e-14)
(-14.3081 5.02445 -1.55596e-14)
(-13.4138 4.92958 4.99536e-15)
(-13.7688 5.5759 -4.86215e-15)
(-12.1855 2.53563 1.04411e-14)
(-9.76358 4.39222 0)
(-27.7667 11.43 2.74589e-16)
(-16.5346 4.91501 3.24372e-15)
(-16.2473 4.78803 2.67775e-15)
(-15.7049 4.60717 4.51839e-15)
(-15.0651 4.46238 -7.13098e-15)
(-14.5405 4.19101 2.92539e-15)
(-13.6239 4.16477 0)
(-14.0379 4.95509 -2.17264e-15)
(-12.3945 2.12615 -6.84681e-15)
(-10.1671 4.1811 2.44906e-17)
(-28.6595 9.5649 9.6113e-15)
(-16.8303 3.89024 1.38916e-15)
(-16.5175 3.75993 0)
(-15.942 3.59354 2.15437e-15)
(-15.252 3.50074 1.86459e-15)
(-14.6728 3.29196 1.28039e-16)
(-13.7207 3.3504 -1.12238e-15)
(-14.0722 4.29795 2.12034e-15)
(-12.2897 1.67293 0)
(-10.5306 4.35041 2.81919e-15)
(-29.1703 7.94792 8.08583e-15)
(-17.1209 2.76778 1.45751e-15)
(-16.7751 2.62686 -2.52321e-15)
(-16.1458 2.4702 -1.41339e-16)
(-15.3991 2.41626 7.14958e-16)
(-14.7446 2.27484 -6.27241e-17)
(-13.7194 2.28581 1.04226e-15)
(-14.0852 3.63577 -1.8221e-15)
(-12.1519 1.05746 6.29981e-17)
(-10.2758 3.16411 2.1144e-15)
(-29.1353 5.70303 -5.6911e-15)
(-17.3125 1.45526 1.97277e-29)
(-16.9778 1.33413 0)
(-16.2985 1.19501 0)
(-15.4857 1.16033 -8.12979e-16)
(-14.7816 1.1248 0)
(-13.695 0.931775 0)
(-13.2094 2.30312 9.14028e-16)
(-12.5562 0.458544 0)
(-11.2653 0.629475 0)
(-33.5092 11.2598 -2.8103e-29)
(-14.8013 12.4552 1.11296e-15)
(-15.7275 10.2054 -7.23202e-15)
(-15.9094 8.85533 7.2538e-15)
(-16.0787 7.76428 -1.01951e-14)
(-16.2565 6.81527 7.00435e-15)
(-16.4579 5.91208 -1.5021e-14)
(-16.7005 4.98785 3.7322e-15)
(-16.9563 3.98288 -3.60884e-15)
(-17.2247 2.86523 0)
(-17.3812 1.53299 -3.62921e-16)
(-15.2123 11.8266 1.45689e-14)
(-16.0906 9.66688 0)
(-16.2451 8.54517 7.42255e-15)
(-16.3372 7.57906 -3.00507e-15)
(-16.4459 6.71813 -1.08248e-14)
(-16.5638 5.88078 0)
(-16.7179 5.00149 -4.32154e-15)
(-16.8966 4.02397 -1.65924e-15)
(-17.1048 2.9176 1.01593e-15)
(-17.2455 1.60004 -4.01655e-16)
(-14.7014 10.9951 -1.19482e-14)
(-15.8366 8.98534 0)
(-16.2016 8.05456 6.31686e-15)
(-16.3415 7.21945 7.58516e-16)
(-16.4531 6.45906 9.06205e-15)
(-16.5476 5.7024 -4.42174e-15)
(-16.647 4.88397 0)
(-16.7501 3.96798 4.73629e-15)
(-16.8591 2.91013 -6.71516e-16)
(-16.9704 1.68171 5.00336e-16)
(-13.5755 10.2435 5.45256e-15)
(-15.0465 8.43834 -1.93157e-15)
(-15.7256 7.58254 4.67209e-15)
(-16.0367 6.86739 -4.87562e-15)
(-16.2199 6.18769 5.91346e-16)
(-16.3327 5.48041 3.13496e-15)
(-16.4041 4.70361 -1.01684e-14)
(-16.4552 3.8365 1.71469e-15)
(-16.4816 2.83935 2.63695e-15)
(-16.5237 1.68891 7.39767e-17)
(-12.3288 9.542 -8.0202e-15)
(-13.823 8.00471 5.46222e-15)
(-14.802 7.1613 0)
(-15.3289 6.46911 1.89338e-15)
(-15.6464 5.81925 2.05196e-15)
(-15.8359 5.14826 -2.97287e-16)
(-15.9467 4.41197 1.62321e-15)
(-16.0002 3.59484 3.58907e-15)
(-15.9958 2.66428 -4.73243e-18)
(-15.9724 1.58709 3.14474e-16)
(-11.1194 8.8433 -3.16337e-15)
(-12.4089 7.59736 3.91876e-15)
(-13.496 6.77978 1.6858e-15)
(-14.1785 6.08341 -2.69171e-15)
(-14.6509 5.44046 -1.71563e-15)
(-14.9444 4.78609 -2.41283e-16)
(-15.1259 4.07513 -3.07838e-15)
(-15.209 3.29254 9.74137e-16)
(-15.2062 2.41601 2.82471e-16)
(-15.1565 1.41204 -3.23612e-16)
(-9.97048 8.13779 0)
(-10.9766 7.18168 -1.304e-15)
(-11.9957 6.41894 4.53144e-16)
(-12.7531 5.72654 -6.43509e-16)
(-13.307 5.07322 1.00983e-15)
(-13.6873 4.41367 0)
(-13.9272 3.71522 7.00634e-16)
(-14.0562 2.95933 1.0582e-15)
(-14.0789 2.1317 -9.15006e-16)
(-14.0354 1.20608 -2.92196e-17)
(-8.86769 7.42717 0)
(-9.61619 6.72899 -2.29423e-16)
(-10.4661 6.04675 1.98622e-15)
(-11.1774 5.37632 -1.45337e-15)
(-11.7379 4.7161 0)
(-12.1491 4.04777 -2.36459e-16)
(-12.42 3.3508 -7.17388e-16)
(-12.5679 2.61157 5.86212e-16)
(-12.6108 1.82208 5.97748e-16)
(-12.5846 0.982104 -2.38634e-16)
(-7.79042 6.66387 -7.24863e-16)
(-8.35671 6.1573 2.33862e-16)
(-9.01851 5.51737 2.34748e-16)
(-9.61271 4.84647 -2.40244e-16)
(-10.098 4.17103 0)
(-10.4621 3.48466 2.58483e-16)
(-10.7014 2.7812 3.26608e-16)
(-10.8155 2.06337 -3.52508e-16)
(-10.8332 1.35231 -8.63598e-17)
(-10.7638 0.658661 4.60871e-18)
(-6.36052 6.25046 -1.19546e-16)
(-6.53525 6.02979 -3.49202e-19)
(-6.87568 5.50385 -1.25052e-17)
(-7.23886 4.89952 0)
(-7.57648 4.2898 1.01647e-17)
(-7.86593 3.68083 0)
(-8.09701 3.06275 5.16385e-17)
(-8.25818 2.43459 9.77833e-19)
(-8.35652 1.81229 2.08043e-17)
(-8.32174 1.23507 -4.19409e-18)
)
;

boundaryField
{
    right
    {
        type            cyclic;
    }
    left
    {
        type            cyclic;
    }
    outerWall
    {
        type            calculated;
        value           nonuniform List<vector> 
22
(
(-1.55201 41.8305 0)
(-4.64749 41.6006 0)
(-7.71741 41.1419 0)
(-10.7449 40.4569 0)
(-13.7132 39.5492 0)
(-16.6061 38.424 0)
(-19.4075 37.0874 0)
(-22.1022 35.5467 0)
(-24.6752 33.8104 0)
(-27.1124 31.8882 0)
(-28.9573 30.2506 0)
(-30.2506 28.9573 0)
(-31.8882 27.1124 0)
(-33.8104 24.6752 0)
(-35.5467 22.1022 0)
(-37.0874 19.4075 0)
(-38.424 16.6061 0)
(-39.5492 13.7132 0)
(-40.4569 10.7449 0)
(-41.1419 7.71741 0)
(-41.6006 4.64749 0)
(-41.8305 1.55201 0)
)
;
    }
    stirrerWall
    {
        type            calculated;
        value           nonuniform List<vector> 
42
(
(-0.310178 8.3662 0)
(-0.928834 8.32046 0)
(-1.54239 8.22894 0)
(-2.14746 8.09214 0)
(-2.74072 7.91082 0)
(-3.31888 7.68598 0)
(-3.87877 7.41885 0)
(-4.41729 7.11092 0)
(-4.93148 6.76387 0)
(-5.4185 6.37963 0)
(-6.07951 6.64185 0)
(-6.92878 7.56862 0)
(-7.77806 8.49539 0)
(-8.62734 9.42216 0)
(-9.47661 10.3489 0)
(-10.3259 11.2757 0)
(-11.1752 12.2025 0)
(-12.0244 13.1292 0)
(-12.8737 14.056 0)
(-13.723 14.9828 0)
(-14.4723 15.1215 0)
(-15.1215 14.4723 0)
(-14.9828 13.723 0)
(-14.056 12.8737 0)
(-13.1292 12.0244 0)
(-12.2025 11.1752 0)
(-11.2757 10.3259 0)
(-10.3489 9.47661 0)
(-9.42216 8.62734 0)
(-8.49539 7.77806 0)
(-7.56862 6.92878 0)
(-6.64185 6.07951 0)
(-6.37963 5.4185 0)
(-6.76387 4.93148 0)
(-7.11092 4.41729 0)
(-7.41885 3.87877 0)
(-7.68598 3.31888 0)
(-7.91082 2.74072 0)
(-8.09214 2.14746 0)
(-8.22894 1.54239 0)
(-8.32046 0.928834 0)
(-8.3662 0.310178 0)
)
;
    }
    top
    {
        type            empty;
    }
    bottom
    {
        type            empty;
    }
}


// ************************************************************************* //
