/*--------------------------------*- C++ -*----------------------------------*\
  =========                 |
  \\      /  F ield         | OpenFOAM: The Open Source CFD Toolbox
   \\    /   O peration     | Website:  https://openfoam.org
    \\  /    A nd           | Version:  10
     \\/     M anipulation  |
\*---------------------------------------------------------------------------*/
FoamFile
{
    format      ascii;
    class       volVectorField;
    location    "2400";
    object      Urel;
}
// * * * * * * * * * * * * * * * * * * * * * * * * * * * * * * * * * * * * * //

dimensions      [0 1 -1 0 0 0 0];

internalField   nonuniform List<vector> 
420
(
(1.05954 -0.474823 5.58252e-18)
(0.456087 0.433839 -4.00816e-17)
(0.510164 0.988286 -2.08009e-16)
(0.671761 1.16591 5.79344e-17)
(0.823996 1.03969 -4.11428e-16)
(0.951887 0.639954 0)
(1.01206 -0.00304984 0)
(0.982919 -0.785249 3.94722e-16)
(0.915544 -1.74394 -4.19757e-16)
(0.873236 -2.82107 0)
(1.04167 -0.302514 1.95087e-17)
(0.249749 0.436578 -8.5254e-17)
(0.40361 0.923041 6.17577e-16)
(0.55878 1.07527 -9.42925e-16)
(0.713808 0.959618 2.97584e-16)
(0.854786 0.588428 9.15805e-18)
(0.943484 -0.0144888 2.54568e-15)
(0.934696 -0.776688 -5.90025e-16)
(0.888633 -1.65843 8.7608e-16)
(0.886693 -2.67606 0)
(0.980557 -0.362505 -1.63177e-17)
(0.0890042 0.328387 -3.65196e-16)
(0.298665 0.784084 6.10139e-16)
(0.474338 0.921874 1.07863e-15)
(0.638895 0.820936 -7.18314e-16)
(0.776479 0.489209 3.40879e-15)
(0.859795 -0.0303501 1.49276e-15)
(0.844383 -0.700107 3.45503e-15)
(0.805177 -1.48985 -1.41731e-15)
(0.84439 -2.48999 -3.23082e-15)
(0.953678 -0.384179 4.34993e-17)
(-0.0160714 0.209325 3.50576e-16)
(0.196354 0.630486 -7.72393e-16)
(0.376259 0.767474 7.29799e-16)
(0.537978 0.700476 -1.43436e-15)
(0.656299 0.435603 1.48068e-15)
(0.714799 0.0144534 -9.03746e-15)
(0.678241 -0.561105 0)
(0.652569 -1.28798 -3.32038e-15)
(0.754293 -2.30489 3.22196e-15)
(0.935451 -0.365988 0)
(-0.112185 0.101525 2.99792e-16)
(0.086155 0.468023 -2.8477e-16)
(0.251792 0.60422 0)
(0.39572 0.581987 -2.31817e-16)
(0.485783 0.398616 -3.04802e-16)
(0.515658 0.0810625 3.18008e-15)
(0.473552 -0.397306 -3.38799e-15)
(0.476664 -1.0779 0)
(0.663084 -2.1321 -1.42905e-14)
(0.910462 -0.302501 -1.11715e-17)
(-0.215323 0.0121588 0)
(-0.0257906 0.308054 0)
(0.118 0.438309 1.30492e-15)
(0.239393 0.46159 -2.08793e-15)
(0.303811 0.364433 2.42954e-15)
(0.308947 0.152153 6.23341e-16)
(0.272554 -0.224794 8.18304e-15)
(0.313092 -0.862058 -1.09605e-14)
(0.595725 -1.9632 7.50183e-15)
(0.859264 -0.197782 0)
(-0.314537 -0.0603746 -3.24417e-16)
(-0.12565 0.160373 -2.04618e-15)
(-0.000477894 0.27903 -8.32565e-16)
(0.102393 0.340918 -3.8234e-15)
(0.150957 0.326109 2.52225e-15)
(0.140276 0.223799 -6.48467e-15)
(0.114367 -0.0384018 6.80336e-16)
(0.191209 -0.607154 -3.61043e-15)
(0.557712 -1.74218 -1.19079e-14)
(0.765047 -0.0598115 1.58721e-17)
(-0.39696 -0.115786 3.31033e-16)
(-0.19646 0.0394 2.71506e-15)
(-0.0803561 0.143959 5.55721e-16)
(0.0077045 0.230616 2.3386e-15)
(0.0501731 0.283718 0)
(0.0409436 0.291665 6.6626e-15)
(0.0390281 0.17744 8.27903e-15)
(0.14342 -0.261727 9.92638e-15)
(0.51237 -1.40905 8.87471e-15)
(0.610467 0.0786559 1.45864e-17)
(-0.4088 -0.161024 3.40779e-16)
(-0.187013 -0.0524608 -3.67361e-16)
(-0.071649 0.0281781 -1.86758e-15)
(0.0149544 0.098706 6.27732e-15)
(0.078722 0.160693 8.77076e-15)
(0.120669 0.217665 -3.10681e-15)
(0.179372 0.234756 0)
(0.306076 0.0220527 0)
(0.531595 -1.01228 -9.11169e-15)
(0.312895 0.160107 -6.75771e-17)
(-0.315083 -0.0976545 6.82407e-16)
(-0.121599 -0.0393117 0)
(-0.0698305 0.0266505 0)
(-0.0457362 0.0912933 -3.45516e-15)
(-0.0179919 0.170852 -1.69325e-17)
(0.0328464 0.271669 6.3649e-15)
(0.134572 0.37875 -1.39367e-14)
(0.282442 0.363844 1.6552e-14)
(0.452576 -0.348528 1.30612e-15)
(0.844006 -4.11771 0)
(0.815142 -5.81365 0)
(0.825735 -8.04363 0)
(0.953954 -10.5377 -7.81659e-16)
(1.07826 -13.0934 0)
(1.12554 -16.2098 0)
(2.14645 -19.0099 8.10793e-16)
(0.884641 -22.6264 0)
(0.985888 -26.6856 0)
(9.12457 -5.83423 0)
(0.951294 -3.97713 1.38935e-15)
(1.06159 -5.73709 2.4663e-15)
(1.27642 -8.03316 1.28616e-16)
(1.60907 -10.5397 8.61295e-16)
(1.93095 -13.1071 3.38508e-17)
(2.2077 -16.2257 9.77614e-16)
(3.22985 -19.1519 -8.91823e-17)
(2.1084 -22.8474 -1.28077e-16)
(2.60749 -26.4899 -1.74534e-15)
(9.16511 -4.00367 -3.03448e-15)
(1.00636 -3.84338 1.28368e-15)
(1.27253 -5.68293 0)
(1.70478 -8.00948 -1.99862e-15)
(2.22678 -10.4746 -1.6692e-15)
(2.73534 -13.0128 4.97479e-15)
(3.24025 -16.0633 -9.79295e-16)
(4.28011 -19.0276 1.61678e-15)
(3.47755 -22.9364 0)
(4.32957 -26.0136 1.63523e-15)
(8.47768 -3.36535 -1.26116e-16)
(1.04129 -3.73776 3.00493e-15)
(1.48263 -5.66026 7.59879e-15)
(2.13711 -7.98177 -7.82375e-15)
(2.83164 -10.3734 3.05906e-15)
(3.51815 -12.8565 1.20332e-17)
(4.25181 -15.8014 0)
(5.31462 -18.7488 -1.62955e-15)
(4.90053 -22.8206 -2.28056e-15)
(6.11412 -25.3789 -1.65041e-15)
(7.79241 -2.95618 1.06516e-14)
(1.08972 -3.65938 2.82677e-15)
(1.7244 -5.65023 -2.53509e-15)
(2.59245 -7.92108 8.11927e-15)
(3.43744 -10.2146 -3.17155e-15)
(4.29425 -12.6243 2.60993e-15)
(5.25109 -15.4322 -4.01073e-15)
(6.34584 -18.333 3.26992e-15)
(6.38487 -22.5053 2.2679e-15)
(7.90148 -24.6989 0)
(7.32749 -2.90714 -2.08207e-14)
(1.16896 -3.60001 3.54106e-15)
(2.01693 -5.63277 -1.50929e-14)
(3.07764 -7.80974 -4.27881e-15)
(4.04952 -9.99166 9.8137e-15)
(5.06837 -12.316 8.16254e-15)
(6.24028 -14.9652 1.31939e-16)
(7.39371 -17.7954 9.0788e-17)
(7.89419 -22.0341 -2.42862e-15)
(9.72189 -23.9117 -3.31897e-15)
(7.01885 -3.00522 1.95043e-14)
(1.27722 -3.53108 3.46618e-15)
(2.36967 -5.58602 5.20596e-15)
(3.59367 -7.63391 0)
(4.67166 -9.70158 -3.2383e-15)
(5.84465 -11.9304 -5.20273e-15)
(7.21859 -14.4106 1.664e-16)
(8.45258 -17.146 -1.05304e-14)
(9.39486 -21.4406 -2.49664e-15)
(11.548 -23.0157 5.62163e-15)
(6.83775 -3.23053 -8.75005e-15)
(1.43943 -3.44369 1.30607e-14)
(2.76991 -5.49212 -4.63084e-15)
(4.13728 -7.37982 0)
(5.30609 -9.33613 -1.45807e-16)
(6.61854 -11.4612 2.16305e-14)
(8.17938 -13.7687 -8.7123e-15)
(9.50842 -16.3884 -7.34012e-15)
(10.8611 -20.7027 5.36285e-15)
(13.3415 -21.9452 -4.94695e-15)
(6.77902 -3.49946 0)
(1.82593 -3.34807 2.71597e-16)
(3.19233 -5.31231 -4.62863e-15)
(4.68801 -7.02027 0)
(5.95298 -8.88337 7.02612e-15)
(7.3893 -10.9121 -1.63929e-14)
(9.13249 -13.0441 9.0527e-15)
(10.5626 -15.527 3.69422e-15)
(12.2849 -19.8687 0)
(15.0556 -20.7314 -2.79745e-16)
(6.87639 -3.81195 1.03669e-14)
(2.82779 -2.92293 3.99473e-16)
(3.63234 -4.98375 1.14475e-16)
(5.20644 -6.54821 0)
(6.60387 -8.35177 -1.37419e-14)
(8.16403 -10.3014 5.17485e-15)
(10.095 -12.2711 -4.85229e-15)
(11.6819 -14.5698 3.58846e-15)
(13.6787 -18.7807 4.57967e-16)
(16.523 -19.4057 2.74712e-16)
(7.21877 -4.31636 -1.03205e-14)
(3.8208 -1.67088 3.16718e-15)
(3.87121 -4.48017 -5.44667e-15)
(5.45799 -6.05375 0)
(7.01288 -7.8036 0)
(8.70265 -9.6695 0)
(10.7279 -11.5129 -2.49641e-15)
(12.3831 -13.6471 1.00002e-14)
(14.8676 -17.7909 0)
(18.4839 -17.7568 0)
(7.59796 -3.97905 0)
(3.75772 -1.72638 -3.17131e-15)
(3.96841 -4.12084 -5.68394e-15)
(5.57174 -5.7506 0)
(7.25475 -7.46139 3.78254e-15)
(9.04746 -9.27112 -2.8911e-15)
(11.1556 -11.014 2.59016e-15)
(12.8817 -13.002 4.3998e-15)
(15.7001 -17.3967 -1.12094e-16)
(19.4842 -17.1961 1.36421e-15)
(7.59433 -3.26076 0)
(2.52946 -2.60603 3.95817e-16)
(4.05732 -3.97245 -5.54907e-17)
(5.79346 -5.50495 0)
(7.61132 -7.11831 2.16493e-16)
(9.50398 -8.84738 6.4481e-15)
(11.7452 -10.4511 -4.68275e-15)
(13.5821 -12.2411 -1.24991e-14)
(16.6378 -16.7105 -6.92073e-15)
(20.1377 -16.9791 1.21022e-14)
(7.65186 -3.19278 1.06356e-14)
(2.5317 -2.5981 -1.33438e-14)
(4.26352 -3.7124 5.08714e-15)
(6.13236 -4.98461 0)
(8.07842 -6.40222 -7.67949e-15)
(10.0807 -7.97076 -6.34021e-15)
(12.4921 -9.4018 1.03767e-14)
(14.3415 -10.9357 4.51127e-15)
(17.5541 -15.3081 0)
(21.4731 -15.2323 -7.32666e-15)
(8.18856 -3.21691 -1.23751e-15)
(2.97789 -2.52347 -2.92317e-16)
(4.64703 -3.41321 5.0461e-15)
(6.54415 -4.48347 0)
(8.55947 -5.71327 1.50671e-14)
(10.6326 -7.12529 -4.70661e-17)
(13.1703 -8.38751 -2.11522e-16)
(15.0259 -9.57367 9.51077e-15)
(18.4343 -13.8975 -6.81975e-15)
(22.7474 -13.6006 -6.69357e-15)
(8.72525 -3.06068 0)
(3.45003 -2.21253 -3.11259e-15)
(5.05839 -2.96017 1.06514e-14)
(6.95538 -3.87868 9.29702e-15)
(9.01634 -4.93626 -1.08642e-14)
(11.137 -6.19382 -1.90393e-14)
(13.7805 -7.29173 -5.23622e-16)
(15.6169 -8.1029 -4.93043e-15)
(19.2157 -12.3214 -3.57548e-15)
(23.8569 -11.8443 -7.95903e-15)
(9.29618 -2.76406 -1.16353e-14)
(3.85682 -1.745 -9.81365e-15)
(5.42633 -2.39189 5.35215e-15)
(7.32867 -3.18644 -4.10146e-15)
(9.43208 -4.08251 -1.13431e-14)
(11.5923 -5.18442 8.8803e-15)
(14.3205 -6.11921 -5.33187e-16)
(16.1194 -6.55513 9.30949e-15)
(19.8856 -10.6298 3.89203e-15)
(24.7742 -9.92646 4.68465e-15)
(9.86696 -2.3561 1.18926e-15)
(4.14923 -1.19268 2.95379e-15)
(5.7055 -1.75286 -2.72062e-15)
(7.63262 -2.43297 -1.56072e-16)
(9.78932 -3.16728 1.11928e-14)
(12.0001 -4.09669 -1.55596e-14)
(14.7937 -4.85024 4.99536e-15)
(16.5415 -4.9332 -4.86215e-15)
(20.4531 -8.78092 1.04411e-14)
(25.4528 -7.81834 0)
(10.3038 -1.77038 2.74589e-16)
(4.3129 -0.620868 3.24372e-15)
(5.89313 -1.09129 2.67775e-15)
(7.86702 -1.65241 4.51839e-15)
(10.0917 -2.21822 -7.13098e-15)
(12.3711 -2.95574 2.92539e-15)
(15.2307 -3.4981 0)
(16.9678 -3.2792 -2.17264e-15)
(20.993 -6.74082 -6.84681e-15)
(25.8574 -5.38637 2.44906e-17)
(10.2847 -0.778137 9.6113e-15)
(4.37002 -0.085829 1.38916e-15)
(5.99762 -0.462821 0)
(8.02884 -0.902329 2.15437e-15)
(10.3307 -1.29752 1.86459e-15)
(12.6945 -1.84111 1.28039e-16)
(15.6223 -2.15337 -1.12238e-15)
(17.4585 -1.61624 2.12034e-15)
(21.6631 -4.69569 0)
(26.1039 -2.52133 2.81919e-15)
(10.4333 0.51912 8.08583e-15)
(4.31578 0.373359 1.45751e-15)
(5.99102 0.0838901 -2.52321e-15)
(8.09228 -0.237242 -1.41339e-16)
(10.4687 -0.473289 7.14958e-16)
(12.9277 -0.816339 -6.27241e-17)
(15.9508 -1.0286 1.04226e-15)
(17.797 0.0741919 -1.8221e-15)
(22.1794 -2.77777 6.29981e-17)
(26.7671 -0.97411 2.1144e-15)
(10.9099 1.22934 -5.6911e-15)
(4.24278 0.655651 1.97277e-29)
(5.91423 0.484909 0)
(8.07366 0.29087 0)
(10.5252 0.195371 -8.12979e-16)
(13.0437 0.0925093 0)
(16.1392 -0.175061 0)
(18.849 1.11374 9.14028e-16)
(21.9648 -0.822217 0)
(25.9823 -0.752468 0)
(6.75722 9.76586 -2.8103e-29)
(0.673961 -0.697971 1.11296e-15)
(0.679221 -1.76493 -7.23202e-15)
(1.33874 -1.86643 7.2538e-15)
(1.91603 -1.65002 -1.01951e-14)
(2.38603 -1.23988 7.00435e-15)
(2.72998 -0.7397 -1.5021e-14)
(2.92727 -0.224033 3.7322e-15)
(3.00367 0.239522 -3.60884e-15)
(2.95776 0.610959 0)
(2.91294 0.78019 -3.62921e-16)
(-0.693631 -0.513202 1.45689e-14)
(-0.698044 -1.56319 0)
(-0.0631578 -1.51355 7.42255e-15)
(0.545291 -1.25307 -3.00507e-15)
(1.04425 -0.838907 -1.08248e-14)
(1.43808 -0.359678 0)
(1.69674 0.111892 -4.32154e-15)
(1.82957 0.51209 -1.65924e-15)
(1.83018 0.80272 1.01593e-15)
(1.79416 0.893789 -4.01655e-16)
(-1.13934 -0.531193 -1.19482e-14)
(-1.45812 -1.50448 0)
(-1.08568 -1.34115 6.31686e-15)
(-0.571225 -1.03053 7.58516e-16)
(-0.115136 -0.599891 9.06205e-15)
(0.268278 -0.126741 -4.42174e-15)
(0.554434 0.316642 0)
(0.742382 0.687562 4.73629e-15)
(0.828411 0.93464 -6.71516e-16)
(0.814896 1.02201 5.00336e-16)
(-0.969845 -0.469435 5.45256e-15)
(-1.68207 -1.31129 -1.93157e-15)
(-1.67575 -1.15019 4.67209e-15)
(-1.37864 -0.800484 -4.87562e-15)
(-1.03417 -0.373201 5.91346e-16)
(-0.702734 0.0625507 3.13496e-15)
(-0.415739 0.458533 -1.01684e-14)
(-0.19631 0.787532 1.71469e-15)
(-0.0414922 1.00325 2.63695e-15)
(0.00722834 1.07575 7.39767e-17)
(-0.679556 -0.357636 -8.0202e-15)
(-1.47248 -1.00477 5.46222e-15)
(-1.81808 -0.908517 0)
(-1.7829 -0.616692 1.89338e-15)
(-1.61274 -0.243617 2.05196e-15)
(-1.39172 0.141646 -2.97287e-16)
(-1.17134 0.489125 1.62321e-15)
(-0.974798 0.77731 3.58907e-15)
(-0.803037 0.967545 -4.73243e-18)
(-0.695674 1.02048 3.14474e-16)
(-0.426543 -0.243104 -3.16337e-15)
(-1.07227 -0.672041 3.91876e-15)
(-1.57789 -0.627171 1.6858e-15)
(-1.74443 -0.420383 -2.69171e-15)
(-1.76924 -0.12443 -1.71563e-15)
(-1.68584 0.190693 -2.41283e-16)
(-1.56341 0.47448 -3.07838e-15)
(-1.41705 0.706428 9.74137e-16)
(-1.26067 0.858639 2.82471e-16)
(-1.13395 0.891967 -3.23612e-16)
(-0.233805 -0.135469 0)
(-0.653711 -0.347734 -1.304e-15)
(-1.14335 -0.325233 4.53144e-16)
(-1.43087 -0.195311 -6.43509e-16)
(-1.57712 0.00625475 1.00983e-15)
(-1.61433 0.229437 0)
(-1.57739 0.436731 7.00634e-16)
(-1.49754 0.604596 1.0582e-15)
(-1.38032 0.713667 -9.15006e-16)
(-1.26678 0.732534 -2.92196e-17)
(-0.0870722 -0.0330795 0)
(-0.306874 -0.0605617 -2.29423e-16)
(-0.679272 -0.0347473 1.98622e-15)
(-0.966844 0.0363175 -1.45337e-15)
(-1.15976 0.146973 0)
(-1.26142 0.27464 -2.36459e-16)
(-1.28271 0.394411 -7.17388e-16)
(-1.24228 0.48819 5.86212e-16)
(-1.15914 0.543369 5.97748e-16)
(-1.06971 0.555088 -2.38634e-16)
(0.0343491 0.0164482 -7.24863e-16)
(-0.0607496 0.107461 2.33862e-16)
(-0.296965 0.0984057 2.34748e-16)
(-0.51353 0.0881934 -2.40244e-16)
(-0.671179 0.0996314 0)
(-0.75957 0.122539 2.58483e-16)
(-0.776442 0.146852 3.26608e-16)
(-0.722674 0.171283 -3.52508e-16)
(-0.628108 0.212886 -8.63598e-17)
(-0.502469 0.27816 4.60871e-18)
(0.508698 0.415622 -1.19546e-16)
(0.747671 0.719427 -3.49202e-19)
(0.7809 0.747201 -1.25052e-17)
(0.749262 0.722782 0)
(0.69925 0.715977 1.01647e-17)
(0.6519 0.729583 0)
(0.616061 0.750341 5.16385e-17)
(0.602211 0.773727 9.77833e-19)
(0.602439 0.812113 2.08043e-17)
(0.686513 0.901069 -4.19409e-18)
)
;

boundaryField
{
    right
    {
        type            cyclic;
    }
    left
    {
        type            cyclic;
    }
    outerWall
    {
        type            noSlip;
    }
    stirrerWall
    {
        type            noSlip;
    }
    top
    {
        type            empty;
    }
    bottom
    {
        type            empty;
    }
}


// ************************************************************************* //
