/*--------------------------------*- C++ -*----------------------------------*\
  =========                 |
  \\      /  F ield         | OpenFOAM: The Open Source CFD Toolbox
   \\    /   O peration     | Website:  https://openfoam.org
    \\  /    A nd           | Version:  10
     \\/     M anipulation  |
\*---------------------------------------------------------------------------*/
FoamFile
{
    format      ascii;
    class       volScalarField;
    location    "63000";
    object      k;
}
// * * * * * * * * * * * * * * * * * * * * * * * * * * * * * * * * * * * * * //

dimensions      [0 2 -2 0 0 0 0];

internalField   nonuniform List<scalar> 
17981
(
0.0493456
0.0505557
0.051927
0.0534595
0.0551502
0.0569924
0.0589767
0.0610907
0.0633198
0.0656481
0.0680583
0.070533
0.0730552
0.075608
0.078176
0.0807448
0.0833012
0.0858338
0.0883325
0.0907885
0.0931944
0.0955443
0.0978332
0.100057
0.102213
0.1043
0.106315
0.108257
0.110128
0.111927
0.113654
0.115312
0.1169
0.118421
0.119877
0.121269
0.1226
0.123871
0.125085
0.126243
0.127347
0.128398
0.129399
0.130352
0.131259
0.132122
0.132942
0.133723
0.0489718
0.050256
0.0517124
0.0533412
0.0551392
0.0570991
0.0592103
0.0614593
0.0638299
0.0663044
0.0688641
0.07149
0.0741631
0.0768657
0.0795808
0.0822931
0.0849886
0.0876552
0.0902822
0.0928605
0.0953824
0.0978419
0.100234
0.102554
0.1048
0.10697
0.109063
0.111077
0.113013
0.114872
0.116654
0.118361
0.119994
0.121555
0.123046
0.12447
0.125828
0.127123
0.128357
0.129532
0.130649
0.131711
0.13272
0.133679
0.134589
0.135454
0.136274
0.137053
0.0486666
0.0500414
0.0516002
0.0533433
0.0552668
0.0573626
0.0596188
0.0620199
0.0645483
0.0671843
0.0699071
0.0726961
0.0755309
0.0783921
0.0812617
0.0841234
0.0869625
0.0897662
0.0925234
0.0952248
0.0978625
0.10043
0.102923
0.105338
0.10767
0.10992
0.112085
0.114166
0.116162
0.118075
0.119906
0.121656
0.123327
0.124921
0.126441
0.127889
0.129268
0.13058
0.131827
0.133011
0.134135
0.135201
0.136211
0.137168
0.138075
0.138934
0.139747
0.140517
0.0555463
0.0577974
0.0602171
0.0627881
0.0654905
0.0683025
0.0712014
0.0741646
0.0771702
0.0801974
0.0832272
0.0862423
0.0892274
0.0921692
0.0950565
0.0978795
0.100631
0.103304
0.105893
0.108397
0.110811
0.113134
0.115366
0.117506
0.119555
0.121515
0.123387
0.125172
0.126873
0.128493
0.130034
0.131498
0.132889
0.13421
0.135461
0.136647
0.137769
0.13883
0.139833
0.140782
0.141677
0.142523
0.143321
0.144074
0.0559941
0.0584207
0.061023
0.0637814
0.0666735
0.0696752
0.0727616
0.0759084
0.0790919
0.0822904
0.0854836
0.0886537
0.0917848
0.0948633
0.0978779
0.100819
0.103679
0.106451
0.109131
0.111716
0.114204
0.116593
0.118883
0.121074
0.123168
0.125166
0.127069
0.12888
0.130602
0.132238
0.13379
0.135262
0.136656
0.137975
0.139222
0.140399
0.14151
0.142558
0.143546
0.144476
0.145352
0.146175
0.14695
0.147678
0.0566299
0.0592521
0.0620555
0.0650176
0.0681134
0.0713162
0.0745992
0.0779362
0.0813022
0.0846741
0.0880311
0.0913547
0.0946288
0.0978398
0.100976
0.104029
0.106989
0.109853
0.112615
0.115273
0.117825
0.120269
0.122607
0.124839
0.126966
0.128991
0.130915
0.132742
0.134474
0.136115
0.137668
0.139137
0.140523
0.141831
0.143063
0.144222
0.145312
0.146337
0.147299
0.148202
0.149048
0.149841
0.150584
0.151279
0.0603112
0.0633322
0.0665118
0.0698223
0.0732346
0.0767199
0.0802501
0.0837992
0.0873432
0.0908608
0.0943331
0.0977439
0.10108
0.104329
0.107484
0.110536
0.11348
0.116313
0.119032
0.121636
0.124124
0.126498
0.128758
0.130906
0.132946
0.134879
0.136709
0.13844
0.140075
0.141618
0.143072
0.144439
0.145724
0.146929
0.14806
0.149119
0.15011
0.151037
0.151902
0.15271
0.153462
0.154163
0.154816
0.0682702
0.0718025
0.0754284
0.0791173
0.0828397
0.0865686
0.0902793
0.0939504
0.0975628
0.101101
0.104551
0.107902
0.111146
0.114276
0.117288
0.120178
0.122945
0.125587
0.128105
0.130501
0.132776
0.134933
0.136974
0.138903
0.140724
0.142441
0.144058
0.145578
0.147003
0.148339
0.149589
0.150758
0.151848
0.152865
0.153812
0.154692
0.15551
0.156269
0.156972
0.157622
0.158223
0.0740413
0.0778806
0.0817699
0.085679
0.08958
0.0934482
0.0972618
0.101002
0.104654
0.108204
0.111643
0.114962
0.118156
0.12122
0.124152
0.126951
0.129616
0.132149
0.134552
0.136827
0.138977
0.141006
0.142918
0.144717
0.146407
0.147992
0.149474
0.15086
0.152152
0.153355
0.154475
0.155514
0.156478
0.15737
0.158194
0.158954
0.159655
0.160299
0.160889
0.16143
0.0846394
0.0887252
0.0927865
0.0967987
0.10074
0.104594
0.108343
0.111977
0.115486
0.118863
0.122103
0.125202
0.128159
0.130974
0.133646
0.136179
0.138573
0.140833
0.142963
0.144965
0.146846
0.148609
0.150258
0.151796
0.153229
0.154562
0.155798
0.156944
0.158003
0.15898
0.15988
0.160707
0.161465
0.162159
0.162792
0.163368
0.163891
0.164364
0.104318
0.108265
0.112094
0.115792
0.119353
0.122769
0.126037
0.129153
0.132118
0.134931
0.137594
0.140109
0.14248
0.14471
0.146804
0.148766
0.150602
0.152315
0.153909
0.155388
0.15676
0.158028
0.159197
0.160274
0.161263
0.162168
0.162995
0.163748
0.164432
0.16505
0.165608
0.166109
0.166556
0.166954
0.107913
0.111934
0.11582
0.119563
0.123155
0.126591
0.129867
0.132982
0.135936
0.13873
0.141366
0.143848
0.14618
0.148366
0.150411
0.15232
0.154097
0.155746
0.157273
0.158683
0.159982
0.161175
0.162268
0.163266
0.164175
0.165
0.165746
0.166417
0.167019
0.167556
0.168032
0.168451
0.168817
0.169135
0.111435
0.115505
0.119427
0.123193
0.126794
0.130229
0.133494
0.136589
0.139515
0.142274
0.144868
0.147303
0.149582
0.15171
0.153694
0.155536
0.157242
0.158816
0.160266
0.161596
0.162813
0.163922
0.164931
0.165843
0.166666
0.167404
0.168062
0.168646
0.169161
0.16961
0.17
0.170333
0.170614
0.170848
0.114782
0.118879
0.122813
0.126579
0.13017
0.133584
0.136819
0.139877
0.142759
0.145467
0.148006
0.15038
0.152595
0.154656
0.156566
0.15833
0.159955
0.161446
0.16281
0.164053
0.165182
0.166202
0.167119
0.167941
0.168672
0.169318
0.169885
0.170378
0.170802
0.171162
0.171462
0.171707
0.171901
0.172048
0.121953
0.125877
0.129622
0.133183
0.136558
0.139748
0.142753
0.145576
0.148222
0.150694
0.152998
0.155139
0.157121
0.158948
0.160627
0.162164
0.163566
0.164839
0.16599
0.167026
0.167953
0.168777
0.169505
0.170142
0.170695
0.171169
0.171569
0.171901
0.17217
0.172381
0.172537
0.172644
0.172705
0.124631
0.128525
0.132229
0.135743
0.139063
0.142193
0.145133
0.147887
0.15046
0.152857
0.155083
0.157142
0.159038
0.160777
0.162365
0.163811
0.165121
0.166301
0.167358
0.1683
0.169132
0.169862
0.170496
0.17104
0.1715
0.171882
0.172191
0.172434
0.172614
0.172737
0.172807
0.172829
0.172807
0.126827
0.130671
0.13432
0.13777
0.141024
0.144082
0.146947
0.149624
0.152118
0.154435
0.156577
0.158548
0.160354
0.162002
0.1635
0.164854
0.166071
0.167159
0.168124
0.168973
0.169714
0.170352
0.170895
0.171349
0.17172
0.172013
0.172236
0.172392
0.172488
0.172527
0.172516
0.172458
0.172358
0.132249
0.135828
0.139205
0.142381
0.14536
0.148145
0.15074
0.153152
0.155384
0.157438
0.15932
0.161037
0.162597
0.164005
0.16527
0.166398
0.167397
0.168274
0.169036
0.16969
0.170242
0.1707
0.17107
0.171357
0.171569
0.171711
0.171788
0.171805
0.171769
0.171682
0.171551
0.17138
0.13321
0.136708
0.140003
0.143097
0.145992
0.148693
0.151205
0.153533
0.155679
0.157646
0.159443
0.161075
0.16255
0.163874
0.165055
0.166101
0.167019
0.167815
0.168497
0.169072
0.169546
0.169927
0.170221
0.170434
0.170573
0.170643
0.170649
0.170598
0.170494
0.170341
0.170146
0.169912
0.133525
0.136936
0.140144
0.143151
0.145961
0.148578
0.151009
0.153254
0.155317
0.157203
0.158919
0.160472
0.16187
0.163118
0.164225
0.165198
0.166043
0.166768
0.16738
0.167886
0.168293
0.168608
0.168838
0.168988
0.169064
0.169073
0.16902
0.168911
0.16875
0.168542
0.168293
0.168006
0.133184
0.136505
0.139625
0.142546
0.145273
0.14781
0.15016
0.152327
0.154313
0.156125
0.157769
0.159253
0.160583
0.161765
0.162808
0.163718
0.164502
0.165169
0.165724
0.166175
0.166528
0.16679
0.166968
0.167068
0.167095
0.167056
0.166956
0.166801
0.166595
0.166345
0.166053
0.165725
0.132196
0.135426
0.138459
0.141298
0.143946
0.146409
0.148686
0.150781
0.1527
0.154446
0.156028
0.157452
0.158725
0.159854
0.160846
0.161708
0.162447
0.163069
0.163582
0.163993
0.164307
0.164531
0.164672
0.164735
0.164727
0.164654
0.16452
0.164333
0.164095
0.163813
0.163492
0.163135
0.130573
0.133707
0.136659
0.139429
0.142016
0.144418
0.146632
0.148661
0.150517
0.152207
0.153738
0.155115
0.156346
0.157437
0.158394
0.159223
0.159932
0.160527
0.161013
0.161399
0.161689
0.161891
0.16201
0.162052
0.162024
0.161931
0.161778
0.161571
0.161316
0.161016
0.160677
0.160303
0.128383
0.131416
0.134279
0.136975
0.139503
0.141854
0.144022
0.146007
0.147816
0.149461
0.150952
0.152297
0.153501
0.154568
0.155506
0.15632
0.157015
0.157599
0.158076
0.158453
0.158737
0.158932
0.159045
0.159082
0.159049
0.158951
0.158793
0.158582
0.158321
0.158017
0.157673
0.157294
0.125703
0.128635
0.131404
0.134019
0.136478
0.138777
0.140906
0.142859
0.144642
0.146262
0.14773
0.149057
0.150249
0.15131
0.152245
0.15306
0.153759
0.154348
0.154833
0.155219
0.155512
0.155717
0.155841
0.155888
0.155865
0.155777
0.155629
0.155427
0.155175
0.154879
0.154543
0.154172
0.122594
0.125431
0.128109
0.130636
0.133024
0.135269
0.137362
0.139292
0.14106
0.142671
0.144133
0.145459
0.146655
0.147726
0.148675
0.149507
0.150227
0.150839
0.151348
0.15176
0.152079
0.15231
0.15246
0.152534
0.152536
0.152472
0.152348
0.152169
0.151939
0.151663
0.151347
0.150995
0.119109
0.121855
0.124451
0.126901
0.129217
0.131407
0.133464
0.135377
0.137139
0.138754
0.140226
0.141566
0.142782
0.143879
0.144858
0.145724
0.146481
0.147132
0.147682
0.148135
0.148495
0.148769
0.14896
0.149075
0.149117
0.149091
0.149004
0.148861
0.148665
0.148422
0.148137
0.147815
0.115311
0.117965
0.120483
0.122868
0.125124
0.127261
0.129283
0.13118
0.132944
0.134572
0.136066
0.137435
0.138687
0.139823
0.140848
0.141764
0.142573
0.143278
0.143884
0.144394
0.144812
0.145143
0.14539
0.145559
0.145655
0.145681
0.145644
0.145548
0.145398
0.145199
0.144955
0.144672
0.111254
0.113817
0.116259
0.118584
0.120793
0.122889
0.124878
0.126762
0.12853
0.130178
0.131705
0.133115
0.134414
0.135605
0.13669
0.137669
0.138545
0.13932
0.139997
0.140578
0.141069
0.14147
0.141788
0.142026
0.142187
0.142278
0.142303
0.142266
0.142172
0.142026
0.141833
0.141598
0.109471
0.111837
0.114101
0.116266
0.118331
0.1203
0.122173
0.123948
0.12562
0.127185
0.128646
0.130005
0.131263
0.132419
0.133475
0.134431
0.135289
0.136051
0.136719
0.137294
0.137781
0.138182
0.138501
0.138741
0.138908
0.139005
0.139038
0.13901
0.138927
0.138793
0.138614
0.104983
0.107269
0.109472
0.11159
0.113625
0.115578
0.117449
0.119237
0.120938
0.122548
0.124066
0.125493
0.126826
0.128064
0.129209
0.130258
0.131212
0.132072
0.132838
0.133512
0.134096
0.134592
0.135004
0.135335
0.135589
0.135769
0.13588
0.135928
0.135915
0.135849
0.135732
0.100414
0.102614
0.104749
0.106818
0.108821
0.110758
0.112628
0.11443
0.116164
0.117823
0.119404
0.120904
0.12232
0.123651
0.124893
0.126045
0.127106
0.128074
0.128951
0.129735
0.130428
0.131031
0.131548
0.131979
0.132329
0.132602
0.132802
0.132932
0.132999
0.133006
0.132959
0.0958163
0.0979262
0.0999876
0.102002
0.103969
0.105888
0.107757
0.109574
0.111336
0.113043
0.114688
0.116265
0.11777
0.119198
0.120545
0.121809
0.122986
0.124073
0.12507
0.125975
0.126787
0.127508
0.128138
0.12868
0.129137
0.129511
0.129807
0.130028
0.13018
0.130267
0.130295
0.0971867
0.0991115
0.101007
0.102871
0.104701
0.106493
0.108242
0.109946
0.111599
0.113194
0.114724
0.116182
0.117564
0.118864
0.120078
0.121204
0.122238
0.123179
0.124026
0.12478
0.125441
0.126012
0.126496
0.126895
0.127215
0.127458
0.127632
0.127739
0.0924155
0.0942905
0.0961541
0.0980048
0.0998401
0.101656
0.103448
0.105209
0.106933
0.108613
0.110243
0.111815
0.113318
0.114747
0.116095
0.117356
0.118527
0.119605
0.120587
0.121472
0.122261
0.122955
0.123555
0.124065
0.124489
0.12483
0.125094
0.125286
0.0877211
0.0895374
0.0913605
0.0931894
0.0950215
0.0968527
0.098678
0.100491
0.102284
0.104047
0.105773
0.107453
0.109079
0.110639
0.112125
0.113528
0.114842
0.116064
0.117188
0.118212
0.119136
0.119959
0.120683
0.12131
0.121844
0.122288
0.122648
0.122929
0.0831327
0.0848801
0.0866522
0.0884485
0.0902668
0.0921034
0.0939528
0.0958082
0.0976615
0.0995035
0.101324
0.10311
0.104853
0.106542
0.108167
0.109716
0.111179
0.11255
0.113823
0.114993
0.116059
0.117018
0.117872
0.118623
0.119272
0.119824
0.120284
0.120657
0.0786785
0.0803455
0.0820543
0.0838053
0.085597
0.0874264
0.0892882
0.0911754
0.0930794
0.0949902
0.0968964
0.098786
0.100646
0.102461
0.104222
0.105917
0.107533
0.109058
0.110485
0.111807
0.113021
0.114123
0.115114
0.115993
0.116763
0.117428
0.117993
0.118462
0.0743807
0.0759559
0.0775887
0.0792806
0.0810315
0.0828392
0.0846992
0.0866048
0.0885475
0.0905165
0.0924996
0.0944832
0.0964531
0.0983945
0.100291
0.102129
0.103896
0.105579
0.107165
0.108645
0.110013
0.111264
0.112397
0.113411
0.114307
0.11509
0.115764
0.116334
0.0702565
0.0717301
0.0732747
0.0748938
0.0765889
0.0783592
0.0802013
0.0821098
0.0840762
0.08609
0.0881383
0.0902066
0.0922787
0.0943379
0.096367
0.0983493
0.100267
0.102107
0.103855
0.105497
0.107025
0.108431
0.109712
0.110866
0.111895
0.1128
0.113587
0.114261
0.0663226
0.0676856
0.0691307
0.0706635
0.0722874
0.0740036
0.0758106
0.0777043
0.0796773
0.0817199
0.0838189
0.0859593
0.0881237
0.0902932
0.0924484
0.0945697
0.0966383
0.0986354
0.100546
0.102354
0.104046
0.105613
0.107048
0.108349
0.109515
0.110548
0.111453
0.112234
0.0625937
0.0638382
0.0651733
0.0666069
0.0681445
0.0697898
0.0715434
0.0734033
0.075364
0.0774168
0.0795494
0.0817466
0.0839901
0.0862596
0.0885334
0.090789
0.0930042
0.0951583
0.0972317
0.0992073
0.101069
0.102802
0.104397
0.10585
0.107159
0.108325
0.109352
0.110245
0.0590773
0.0601982
0.0614153
0.0627385
0.064176
0.065734
0.067416
0.0692225
0.0711504
0.0731931
0.0753396
0.0775755
0.0798822
0.0822386
0.0846207
0.0870036
0.0893616
0.0916701
0.0939062
0.0960502
0.0980828
0.0999869
0.101748
0.10336
0.104818
0.106122
0.107276
0.108285
0.0557765
0.0567726
0.0578665
0.0590707
0.0603961
0.0618518
0.0634445
0.0651778
0.0670518
0.0690624
0.0712012
0.0734552
0.0758065
0.0782335
0.0807109
0.0832113
0.0857059
0.0881659
0.0905643
0.0928764
0.095082
0.0971604
0.0990938
0.10087
0.102483
0.103932
0.105219
0.106348
0.0526987
0.0535688
0.0545358
0.0556142
0.0568174
0.0581575
0.0596445
0.0612854
0.063084
0.0650399
0.0671477
0.0693968
0.0717713
0.0742499
0.0768066
0.0794119
0.0820341
0.0846405
0.0871992
0.0896808
0.0920595
0.0943156
0.0964262
0.0983732
0.100148
0.101747
0.103172
0.104426
0.0498396
0.0505861
0.0514259
0.052375
0.0534489
0.0546627
0.0560296
0.0575605
0.0592632
0.0611413
0.0631938
0.0654136
0.0677874
0.0702956
0.0729125
0.0756072
0.0783454
0.0810906
0.0838062
0.0864573
0.0890127
0.0914463
0.0937375
0.0958623
0.0978054
0.0995615
0.10113
0.102515
0.0471924
0.0478196
0.0485351
0.0493548
0.0502959
0.051376
0.0526115
0.0540171
0.0556048
0.0573832
0.0593559
0.0615205
0.0638678
0.066381
0.0690358
0.0718012
0.0746408
0.0775146
0.0803812
0.0832
0.0859335
0.0885494
0.0910231
0.0933313
0.09545
0.0973699
0.0990888
0.10061
0.0447482
0.045261
0.045858
0.0465517
0.0473602
0.0483028
0.049399
0.0506671
0.0521235
0.0537817
0.0556508
0.057734
0.0600274
0.0625186
0.0651863
0.0680004
0.0709236
0.0739128
0.0769222
0.079905
0.0828173
0.0856195
0.08828
0.0907737
0.0930759
0.0951671
0.0970433
0.0987066
0.042499
0.0429044
0.0433879
0.0439608
0.0446397
0.0454448
0.0463977
0.0475199
0.0488319
0.0503522
0.0520956
0.0540718
0.0562833
0.0587237
0.0613763
0.0642138
0.0671992
0.0702874
0.0734283
0.0765692
0.0796588
0.0826499
0.0855028
0.0881886
0.0906788
0.0929493
0.09499
0.0968018
0.0404345
0.0407369
0.0411132
0.041572
0.0421277
0.0427992
0.0436089
0.0445811
0.0457398
0.047108
0.0487066
0.0505518
0.0526538
0.0550135
0.0576208
0.0604531
0.0634757
0.0666429
0.0699009
0.0731913
0.0764553
0.0796371
0.0826882
0.085571
0.0882546
0.0907117
0.0929253
0.0948926
0.0385482
0.038748
0.0390216
0.0393734
0.0398138
0.0403587
0.0410298
0.0418523
0.0428534
0.0440601
0.0454984
0.0471917
0.0491581
0.0514071
0.0539372
0.0567329
0.0597639
0.0629859
0.0663428
0.0697711
0.0732039
0.0765763
0.0798298
0.0829167
0.0858017
0.0884524
0.0908469
0.092977
0.0368267
0.0369307
0.0371024
0.0373522
0.0376852
0.0381128
0.0386533
0.0393311
0.0401751
0.0412155
0.0424832
0.0440077
0.0458151
0.0479248
0.0503452
0.0530704
0.0560775
0.059326
0.0627595
0.0663102
0.0699034
0.0734644
0.0769234
0.0802215
0.0833165
0.0861696
0.0887515
0.0910526
0.035249
0.0352714
0.0353488
0.0354977
0.035729
0.0360483
0.0364685
0.0370106
0.0377028
0.0385776
0.0396694
0.0410132
0.0426427
0.044587
0.0468661
0.0494858
0.0524335
0.0556757
0.0591588
0.0628121
0.0665541
0.0702996
0.0739665
0.077483
0.080795
0.0838582
0.0866374
0.0891171
0.0337491
0.0337472
0.0338035
0.0339343
0.0341517
0.0344619
0.0348799
0.0354302
0.036145
0.0370614
0.0382185
0.0396565
0.0414137
0.043522
0.0460009
0.0488513
0.0520506
0.0555511
0.0592823
0.0631571
0.0670797
0.0709546
0.0746955
0.0782333
0.0815168
0.0845033
0.0871692
0.0323441
0.0322766
0.0322555
0.0322947
0.0324116
0.0326194
0.0329251
0.0333463
0.0339118
0.0346587
0.0356292
0.0368683
0.0384223
0.0403346
0.0426393
0.0453535
0.0484695
0.0519501
0.055729
0.0597155
0.0638039
0.0678845
0.0718543
0.0756275
0.0791423
0.0823468
0.0852084
0.0308326
0.030796
0.0308219
0.030929
0.0311313
0.031437
0.0318672
0.0324559
0.0332458
0.0342855
0.035627
0.0373239
0.0394248
0.0419646
0.0449545
0.0483731
0.0521632
0.0562345
0.0604729
0.0647538
0.0689558
0.0729734
0.0767309
0.0801647
0.083232
0.0295158
0.0294174
0.0293687
0.0293847
0.0294857
0.0296865
0.0299969
0.0304427
0.0310638
0.03191
0.0330372
0.0345067
0.0363798
0.0387101
0.0415304
0.0448409
0.0485996
0.0527221
0.057089
0.0615611
0.0659968
0.0702679
0.0742786
0.0779529
0.0812376
0.0281403
0.0280311
0.0279732
0.0279826
0.028081
0.0282844
0.0286045
0.0290733
0.0297381
0.0306567
0.0318948
0.0335241
0.0356152
0.0382243
0.0413778
0.0450565
0.0491889
0.0536556
0.0583047
0.0629725
0.0675054
0.0717808
0.0757082
0.0792226
0.0269491
0.0267909
0.0266735
0.0266091
0.0266148
0.0267142
0.0269241
0.0272598
0.0277607
0.0284829
0.0294943
0.0308728
0.0327029
0.0350638
0.0380111
0.041556
0.0456493
0.0501789
0.0549837
0.0598779
0.0646785
0.0692321
0.0734276
0.0771846
0.0258305
0.0256325
0.0254673
0.025344
0.0252755
0.0252804
0.0253843
0.0256052
0.0259633
0.0265075
0.0273044
0.0284348
0.0299923
0.0320754
0.0347704
0.0381249
0.0421221
0.0466681
0.0515993
0.0567087
0.0617808
0.0666257
0.0711055
0.0751195
0.0245429
0.0243391
0.0241688
0.0240415
0.0239711
0.0239781
0.0240903
0.0243273
0.0247162
0.0253178
0.0262118
0.0274959
0.0292826
0.0316858
0.0347933
0.0386312
0.0431369
0.048155
0.0534613
0.0588053
0.0639543
0.0687358
0.0730224
0.023511
0.023276
0.023068
0.0228942
0.0227648
0.0226947
0.0227069
0.0228315
0.0230902
0.0235209
0.0241982
0.0252192
0.0267032
0.0287858
0.031594
0.0352054
0.039604
0.0446576
0.0501332
0.0557444
0.0612093
0.0663106
0.0708869
0.022267
0.0220288
0.0218179
0.021642
0.021512
0.0214443
0.021465
0.0216068
0.0218946
0.0223813
0.0231589
0.0243473
0.0260942
0.0285604
0.0318785
0.0360941
0.0411184
0.0467237
0.0525906
0.0583809
0.0638209
0.0687057
0.0213022
0.0210397
0.0207994
0.0205868
0.02041
0.0202809
0.0202178
0.0202509
0.0204154
0.0207422
0.021304
0.0222157
0.0236277
0.0257235
0.0286874
0.0326385
0.0375543
0.0432348
0.0493367
0.0554604
0.0612563
0.0664683
0.0203728
0.020091
0.0198272
0.0195856
0.0193722
0.0191956
0.0190689
0.0190129
0.0190628
0.0192569
0.0196363
0.0203001
0.0213934
0.0231086
0.0256704
0.0292749
0.0339896
0.0396719
0.045973
0.0524304
0.058604
0.0641677
0.0191735
0.0188911
0.0186266
0.0183845
0.0181711
0.0179957
0.017873
0.0178268
0.0178987
0.0181313
0.0185834
0.0193874
0.0207315
0.0228629
0.0260469
0.030458
0.0360482
0.0424937
0.0492758
0.0558484
0.0617917
0.0182784
0.0179815
0.0176991
0.0174346
0.0171926
0.0169799
0.0168069
0.01669
0.0166576
0.0167582
0.0170413
0.0175954
0.0185963
0.0202931
0.0230002
0.0270034
0.0323869
0.0388979
0.0459811
0.0529716
0.0593256
0.0173971
0.017089
0.0167929
0.016511
0.0162469
0.0160056
0.0157945
0.015625
0.0155165
0.0155036
0.0156421
0.0159943
0.0166939
0.0179771
0.020178
0.0236786
0.0287239
0.0351918
0.0425311
0.0499526
0.0567514
0.016204
0.0158976
0.0156027
0.0153219
0.0150588
0.0148189
0.0146102
0.014446
0.0143493
0.0143633
0.0145528
0.0150038
0.0159158
0.017614
0.0205415
0.0251102
0.0313938
0.0389131
0.0467672
0.0540477
0.0153161
0.0150025
0.0146982
0.0144051
0.014126
0.0138647
0.0136271
0.0134223
0.0132656
0.0131847
0.0132347
0.0134939
0.0140932
0.0153255
0.0176476
0.0216116
0.0275391
0.0351208
0.0433882
0.051188
0.0144132
0.0140951
0.0137847
0.0134834
0.0131931
0.0129166
0.0126583
0.0124245
0.0122255
0.0120795
0.0120206
0.0121198
0.0124785
0.0133085
0.0150399
0.0183043
0.0236859
0.0311611
0.0397882
0.0481408
0.0134811
0.013161
0.0128475
0.0125414
0.0122442
0.0119581
0.011686
0.0114325
0.0112047
0.0110147
0.0108843
0.0108591
0.0110294
0.0115399
0.0127393
0.015264
0.0199169
0.027063
0.0359433
0.0448696
0.0125022
0.0121823
0.0118682
0.0115606
0.0112606
0.0109698
0.0106903
0.0104253
0.0101798
0.00996174
0.00978537
0.00967848
0.00970375
0.00997821
0.0107378
0.0125506
0.016335
0.0228877
0.0318422
0.0413352
0.0114534
0.0111357
0.0108235
0.0105174
0.0102184
0.00992776
0.009647
0.00937839
0.00912528
0.00889303
0.00869071
0.00853531
0.00846257
0.00855918
0.00899573
0.0101885
0.0130452
0.0187328
0.0274971
0.037501
0.0103027
0.00998926
0.00968139
0.00937995
0.00908592
0.00880044
0.00852479
0.00826062
0.00801017
0.0077768
0.00756613
0.00738835
0.00726419
0.00724291
0.00744998
0.00816114
0.0101303
0.0147225
0.0229343
0.0333304
0.00900262
0.00869603
0.00839561
0.00810263
0.00781837
0.00754408
0.00728105
0.00703059
0.00679419
0.00657382
0.00637255
0.0061959
0.00605528
0.0059775
0.00603691
0.00641665
0.00763293
0.0110015
0.0182118
0.0287693
0.00747635
0.00718113
0.0068936
0.00661565
0.00634902
0.00609525
0.00585567
0.00563146
0.00542365
0.00523323
0.00506148
0.00491055
0.0047853
0.00469826
0.00468467
0.00485548
0.00552682
0.00768929
0.0133734
0.0235837
0.00559274
0.00532067
0.00505934
0.00481154
0.00457936
0.00436427
0.00416728
0.00398911
0.00383024
0.00369097
0.00357137
0.00347095
0.00338931
0.00332672
0.003291
0.00333748
0.00365349
0.00487604
0.00887223
0.0181705
0.00316168
0.00295413
0.00276192
0.0025875
0.00243137
0.00229336
0.00217311
0.00207034
0.00198498
0.00191699
0.00186529
0.00182047
0.00177943
0.00174871
0.00174633
0.00178866
0.00195931
0.0025745
0.00501412
0.0130442
0.000495624
0.000433994
0.000379855
0.00033361
0.000295073
0.000263595
0.000238373
0.00021864
0.00020376
0.000193274
0.000187152
0.000193841
0.000211559
0.000237374
0.000274106
0.000325913
0.000409845
0.000586626
0.00140844
0.00803764
0.126401
0.126845
0.127285
0.127722
0.128156
0.128588
0.129019
0.129448
0.129875
0.130301
0.130726
0.131148
0.131567
0.131983
0.132394
0.1328
0.133198
0.133587
0.133966
0.134331
0.134681
0.135013
0.135323
0.135608
0.135864
0.136086
0.13627
0.13641
0.136498
0.136529
0.136493
0.13638
0.136181
0.135881
0.135467
0.134921
0.134224
0.133351
0.132275
0.130963
0.129375
0.127466
0.125181
0.122457
0.119222
0.115395
0.110885
0.105593
0.0994013
0.092164
0.0836675
0.0735496
0.0611179
0.0452159
0.0250362
0.126354
0.126795
0.127232
0.127665
0.128095
0.128523
0.128948
0.129372
0.129793
0.130212
0.130628
0.131042
0.131452
0.131857
0.132257
0.13265
0.133035
0.133409
0.133772
0.13412
0.134452
0.134764
0.135053
0.135316
0.135549
0.135746
0.135904
0.136016
0.136076
0.136075
0.136007
0.13586
0.135624
0.135287
0.134832
0.134242
0.133498
0.132575
0.131445
0.130075
0.128425
0.126448
0.124092
0.121293
0.117982
0.114079
0.109496
0.104135
0.0978807
0.0905868
0.0820397
0.0718911
0.0595623
0.0444061
0.0266806
0.126305
0.126743
0.127177
0.127606
0.128032
0.128455
0.128875
0.129293
0.129707
0.130119
0.130527
0.130932
0.131332
0.131726
0.132114
0.132494
0.132865
0.133224
0.13357
0.133901
0.134214
0.134506
0.134774
0.135015
0.135223
0.135396
0.135527
0.135611
0.13564
0.135609
0.135507
0.135325
0.135052
0.134675
0.134178
0.133544
0.132752
0.131777
0.130592
0.129161
0.127447
0.125403
0.122975
0.120103
0.116717
0.112742
0.108092
0.102674
0.0963754
0.0890575
0.080524
0.0704805
0.058521
0.0446629
0.0299167
0.126256
0.12669
0.12712
0.127546
0.127967
0.128385
0.1288
0.129211
0.129619
0.130023
0.130422
0.130817
0.131207
0.13159
0.131965
0.132332
0.132688
0.133032
0.133361
0.133674
0.133968
0.13424
0.134486
0.134703
0.134888
0.135034
0.135138
0.135193
0.135192
0.135128
0.134992
0.134775
0.134464
0.134046
0.133505
0.132825
0.131983
0.130956
0.129714
0.128223
0.126444
0.124331
0.121833
0.118889
0.115434
0.111394
0.106689
0.10123
0.0949151
0.0876204
0.0791843
0.0693971
0.058079
0.0459213
0.0340306
0.126204
0.126636
0.127062
0.127483
0.1279
0.128313
0.128721
0.129126
0.129526
0.129922
0.130313
0.130698
0.131077
0.131448
0.131811
0.132163
0.132504
0.132832
0.133144
0.133439
0.133713
0.133963
0.134188
0.134381
0.134541
0.134661
0.134737
0.134762
0.13473
0.134634
0.134463
0.134208
0.133858
0.133398
0.132814
0.132086
0.131194
0.130112
0.128812
0.12726
0.125416
0.123237
0.12067
0.117659
0.114141
0.110046
0.1053
0.0998232
0.0935275
0.0863125
0.0780638
0.0686699
0.0583083
0.0480169
0.0383328
0.126152
0.126579
0.127001
0.127418
0.12783
0.128237
0.128639
0.129037
0.12943
0.129817
0.130198
0.130573
0.130941
0.1313
0.131649
0.131987
0.132313
0.132624
0.132919
0.133194
0.133448
0.133677
0.133879
0.134048
0.134182
0.134276
0.134323
0.134318
0.134254
0.134124
0.133918
0.133625
0.133235
0.132732
0.132102
0.131326
0.130382
0.129245
0.127887
0.126274
0.124367
0.122122
0.119491
0.116418
0.112845
0.108708
0.10394
0.0984746
0.0922399
0.0851665
0.0771935
0.0683604
0.0591849
0.0505998
0.0424214
0.126097
0.126521
0.126939
0.127351
0.127757
0.128158
0.128554
0.128944
0.129329
0.129707
0.130079
0.130443
0.130799
0.131145
0.131481
0.131804
0.132114
0.132408
0.132684
0.13294
0.133173
0.133381
0.133559
0.133704
0.133812
0.133877
0.133896
0.13386
0.133764
0.133599
0.133356
0.133025
0.132593
0.132047
0.13137
0.130545
0.129548
0.128356
0.12694
0.125266
0.123297
0.12099
0.118299
0.115172
0.111556
0.107393
0.102628
0.0972057
0.0910778
0.0842074
0.0766049
0.0685201
0.0605898
0.0533482
0.0461296
0.126041
0.126461
0.126874
0.127281
0.127681
0.128076
0.128465
0.128847
0.129223
0.129592
0.129954
0.130307
0.13065
0.130983
0.131305
0.131613
0.131906
0.132183
0.13244
0.132676
0.132888
0.133073
0.133227
0.133347
0.133428
0.133466
0.133454
0.133387
0.133257
0.133057
0.132777
0.132406
0.131932
0.131342
0.130618
0.129742
0.128693
0.127446
0.125972
0.124239
0.12221
0.119846
0.117102
0.113931
0.110285
0.106117
0.10138
0.0960371
0.0900615
0.0834565
0.0763501
0.0691358
0.0623299
0.0560656
0.0494703
0.125982
0.126398
0.126806
0.127207
0.127602
0.12799
0.128372
0.128746
0.129113
0.129472
0.129823
0.130164
0.130495
0.130814
0.131121
0.131414
0.13169
0.131948
0.132187
0.132402
0.132592
0.132754
0.132884
0.132978
0.133032
0.13304
0.132998
0.132899
0.132735
0.132499
0.13218
0.131769
0.131253
0.130617
0.129845
0.128919
0.127817
0.126515
0.124985
0.123195
0.121111
0.118695
0.115907
0.112704
0.109046
0.104893
0.100214
0.0949853
0.0892073
0.0829507
0.076458
0.0701189
0.0642347
0.0586592
0.0525045
0.125921
0.126332
0.126735
0.127131
0.127519
0.1279
0.128274
0.12864
0.128997
0.129346
0.129686
0.130015
0.130333
0.130638
0.130929
0.131205
0.131464
0.131704
0.131923
0.132117
0.132285
0.132423
0.132528
0.132595
0.132621
0.1326
0.132527
0.132395
0.132196
0.131923
0.131565
0.131113
0.130553
0.129872
0.129052
0.128076
0.126922
0.125566
0.123981
0.122138
0.120004
0.117544
0.114722
0.111502
0.10785
0.103737
0.0991431
0.0940642
0.0885417
0.0827285
0.0769035
0.0713537
0.0661894
0.0611026
0.0552964
0.125858
0.126264
0.126661
0.127051
0.127433
0.127806
0.128172
0.128528
0.128876
0.129214
0.129542
0.129858
0.130162
0.130453
0.130729
0.130988
0.131229
0.13145
0.131648
0.131821
0.131966
0.13208
0.132159
0.132199
0.132196
0.132145
0.13204
0.131874
0.13164
0.131329
0.130932
0.130438
0.129835
0.129107
0.128239
0.127213
0.126008
0.124601
0.122965
0.121074
0.118896
0.116402
0.113558
0.110336
0.10671
0.10266
0.0981803
0.0932939
0.0881002
0.0827969
0.0776206
0.0727408
0.0681274
0.0634009
0.0578962
0.125792
0.126193
0.126584
0.126967
0.127342
0.127707
0.128064
0.128411
0.128749
0.129075
0.129391
0.129694
0.129984
0.13026
0.130519
0.130761
0.130983
0.131184
0.131361
0.131512
0.131634
0.131723
0.131776
0.131789
0.131757
0.131675
0.131537
0.131337
0.131066
0.130718
0.130281
0.129745
0.129097
0.128324
0.127408
0.126334
0.125079
0.123623
0.121941
0.120007
0.117795
0.115276
0.112425
0.109218
0.105637
0.101674
0.0973415
0.0927042
0.0879034
0.0831255
0.0785366
0.0742078
0.0700158
0.065571
0.0603416
0.125723
0.126118
0.126503
0.126879
0.127246
0.127603
0.127951
0.128288
0.128615
0.12893
0.129233
0.129522
0.129797
0.130057
0.1303
0.130524
0.130727
0.130908
0.131063
0.131191
0.131289
0.131353
0.131379
0.131363
0.131301
0.131188
0.131017
0.130782
0.130475
0.130088
0.129611
0.129033
0.128341
0.127522
0.126561
0.125439
0.124138
0.122637
0.120914
0.118945
0.116707
0.114176
0.111332
0.108157
0.104642
0.100792
0.0966513
0.0923198
0.087943
0.0836662
0.0795888
0.0757067
0.0718425
0.0676323
0.0626617
0.125651
0.126039
0.126418
0.126787
0.127146
0.127494
0.127832
0.128159
0.128474
0.128777
0.129066
0.129342
0.129602
0.129845
0.13007
0.130276
0.130459
0.130619
0.130753
0.130858
0.130931
0.130968
0.130967
0.130923
0.130831
0.130685
0.130481
0.13021
0.129867
0.129441
0.128923
0.128303
0.127568
0.126705
0.125699
0.124533
0.123189
0.121648
0.11989
0.117895
0.115641
0.11311
0.110288
0.107162
0.103735
0.100035
0.0961341
0.0921454
0.0881908
0.0843705
0.0807292
0.0772082
0.0736066
0.0696029
0.0648793
0.125575
0.125957
0.126329
0.126689
0.12704
0.127379
0.127706
0.128022
0.128326
0.128616
0.128891
0.129152
0.129396
0.129623
0.12983
0.130017
0.13018
0.130319
0.13043
0.130511
0.130558
0.130569
0.13054
0.130467
0.130344
0.130166
0.129927
0.129621
0.12924
0.128776
0.128218
0.127557
0.12678
0.125874
0.124826
0.123619
0.122236
0.120661
0.118876