/*--------------------------------*- C++ -*----------------------------------*\
  =========                 |
  \\      /  F ield         | OpenFOAM: The Open Source CFD Toolbox
   \\    /   O peration     | Website:  https://openfoam.org
    \\  /    A nd           | Version:  10
     \\/     M anipulation  |
\*---------------------------------------------------------------------------*/
FoamFile
{
    format      ascii;
    class       volScalarField;
    location    "73000";
    object      yPlus;
}
// * * * * * * * * * * * * * * * * * * * * * * * * * * * * * * * * * * * * * //

dimensions      [0 0 0 0 0 0 0];

internalField   uniform 0;

boundaryField
{
    right
    {
        type            cyclic;
    }
    left
    {
        type            cyclic;
    }
    outerWall
    {
        type            calculated;
        value           nonuniform List<scalar> 0();
    }
    stirrerWall
    {
        type            calculated;
        value           nonuniform List<scalar> 
98
(
3.18547
2.98621
2.79402
2.61321
2.44848
2.30324
2.1791
2.07654
1.99547
1.93574
1.89805
1.90903
1.98955
2.10797
2.26663
2.47526
2.77996
3.34048
5.21935
12.3568
19.5957
12.3441
11.7156
12.3185
12.8618
13.1079
13.222
13.2093
13.106
12.9266
12.724
12.4823
12.2162
11.9646
11.7333
11.5912
11.6269
11.3726
11.8732
11.9408
11.9251
11.8972
11.8735
11.8585
11.8527
11.8552
11.8656
11.8825
11.906
11.937
11.97
11.3123
11.1682
11.1485
11.163
11.1903
11.2164
11.2402
11.2555
11.2478
21.5198
21.7889
22.0614
22.3356
22.6161
22.9019
23.1938
23.4924
23.798
24.1111
24.4326
24.7631
25.1027
25.4522
25.8136
26.1883
26.5754
26.9746
27.39
27.8312
28.3016
28.7811
29.2709
29.7622
30.3181
30.9338
31.6037
32.329
33.085
33.8302
34.6299
35.547
36.6263
37.8928
39.2954
40.7462
42.3995
44.5432
)
;
    }
    top
    {
        type            empty;
    }
    bottom
    {
        type            empty;
    }
    procBoundary0to1
    {
        type            processor;
        value           uniform 0;
    }
    procBoundary0to3
    {
        type            processor;
        value           uniform 0;
    }
}


// ************************************************************************* //
