/*--------------------------------*- C++ -*----------------------------------*\
  =========                 |
  \\      /  F ield         | OpenFOAM: The Open Source CFD Toolbox
   \\    /   O peration     | Website:  https://openfoam.org
    \\  /    A nd           | Version:  10
     \\/     M anipulation  |
\*---------------------------------------------------------------------------*/
FoamFile
{
    format      ascii;
    class       surfaceScalarField;
    location    "28000";
    object      phi;
}
// * * * * * * * * * * * * * * * * * * * * * * * * * * * * * * * * * * * * * //

dimensions      [0 3 -1 0 0 0 0];

internalField   nonuniform List<scalar> 
35320
(
2.7681e-08
1.4679e-05
-1.47067e-05
4.38545e-08
1.35026e-05
-1.35188e-05
5.24112e-08
1.30982e-05
-1.31067e-05
5.69857e-08
1.28846e-05
-1.28892e-05
5.91968e-08
1.2766e-05
-1.27682e-05
5.99536e-08
1.27062e-05
-1.2707e-05
5.98152e-08
1.2686e-05
-1.26859e-05
5.91266e-08
1.26944e-05
-1.26937e-05
5.81128e-08
1.27243e-05
-1.27233e-05
5.6891e-08
1.27712e-05
-1.27699e-05
5.5559e-08
1.28318e-05
-1.28305e-05
5.41535e-08
1.2904e-05
-1.29026e-05
5.27198e-08
1.29859e-05
-1.29845e-05
5.12748e-08
1.30764e-05
-1.3075e-05
4.98287e-08
1.31744e-05
-1.31729e-05
4.83922e-08
1.3279e-05
-1.32776e-05
4.69703e-08
1.33897e-05
-1.33883e-05
4.55714e-08
1.3506e-05
-1.35046e-05
4.4195e-08
1.36275e-05
-1.36261e-05
4.2833e-08
1.37537e-05
-1.37523e-05
4.14948e-08
1.38844e-05
-1.3883e-05
4.01884e-08
1.40193e-05
-1.4018e-05
3.88976e-08
1.41583e-05
-1.4157e-05
3.76387e-08
1.43012e-05
-1.42999e-05
3.63974e-08
1.44478e-05
-1.44465e-05
3.51845e-08
1.45979e-05
-1.45967e-05
3.39966e-08
1.47516e-05
-1.47504e-05
3.28308e-08
1.49086e-05
-1.49074e-05
3.16943e-08
1.50689e-05
-1.50677e-05
3.05762e-08
1.52323e-05
-1.52312e-05
2.94838e-08
1.5399e-05
-1.53979e-05
2.84163e-08
1.55687e-05
-1.55676e-05
2.73758e-08
1.57414e-05
-1.57404e-05
2.63591e-08
1.59172e-05
-1.59161e-05
2.53627e-08
1.60958e-05
-1.60948e-05
2.43913e-08
1.62774e-05
-1.62764e-05
2.34444e-08
1.64618e-05
-1.64609e-05
2.25208e-08
1.66491e-05
-1.66482e-05
2.16175e-08
1.68392e-05
-1.68383e-05
2.07388e-08
1.70321e-05
-1.70313e-05
1.98814e-08
1.72278e-05
-1.72269e-05
1.90496e-08
1.74262e-05
-1.74254e-05
1.82375e-08
1.76274e-05
-1.76265e-05
1.74468e-08
1.78312e-05
-1.78304e-05
1.66815e-08
1.80377e-05
-1.8037e-05
1.59336e-08
1.82469e-05
-1.82462e-05
1.52074e-08
1.84588e-05
-1.84581e-05
1.45038e-08
1.86733e-05
-1.86726e-05
1.382e-08
1.88904e-05
-1.88897e-05
1.31572e-08
1.91102e-05
-1.91095e-05
1.25147e-08
1.93325e-05
-1.93318e-05
1.18893e-08
1.95574e-05
-1.95567e-05
1.1287e-08
1.97848e-05
-1.97842e-05
1.0702e-08
2.00148e-05
-2.00142e-05
1.0136e-08
2.02473e-05
-2.02467e-05
9.59015e-09
2.04823e-05
-2.04817e-05
9.06122e-09
2.07198e-05
-2.07192e-05
8.55063e-09
2.09597e-05
-2.09592e-05
8.05943e-09
2.1202e-05
-2.12016e-05
7.58253e-09
2.14468e-05
-2.14463e-05
7.12307e-09
2.1694e-05
-2.16935e-05
6.68018e-09
2.19434e-05
-2.1943e-05
6.25506e-09
2.21953e-05
-2.21948e-05
5.84236e-09
2.24494e-05
-2.2449e-05
5.45384e-09
2.27057e-05
-2.27053e-05
5.07366e-09
2.29643e-05
-2.29639e-05
4.71152e-09
2.32251e-05
-2.32247e-05
4.36416e-09
2.3488e-05
-2.34877e-05
4.02866e-09
2.3753e-05
-2.37527e-05
3.71194e-09
2.40201e-05
-2.40198e-05
3.40731e-09
2.42892e-05
-2.42889e-05
3.11758e-09
2.45602e-05
-2.45599e-05
2.83991e-09
2.48332e-05
-2.48329e-05
2.57725e-09
2.51079e-05
-2.51077e-05
2.33063e-09
2.53845e-05
-2.53842e-05
2.09315e-09
2.56628e-05
-2.56625e-05
1.86984e-09
2.59427e-05
-2.59425e-05
1.66177e-09
2.62242e-05
-2.6224e-05
1.4639e-09
2.65072e-05
-2.6507e-05
1.27954e-09
2.67916e-05
-2.67914e-05
1.11145e-09
2.70773e-05
-2.70772e-05
9.54702e-10
2.73643e-05
-2.73642e-05
8.06864e-10
2.76524e-05
-2.76523e-05
6.74332e-10
2.79416e-05
-2.79415e-05
5.5466e-10
2.82317e-05
-2.82316e-05
4.48678e-10
2.85226e-05
-2.85225e-05
3.55471e-10
2.88142e-05
-2.88141e-05
2.72612e-10
2.91064e-05
-2.91063e-05
2.06387e-10
2.93991e-05
-2.9399e-05
1.49107e-10
2.9692e-05
-2.96919e-05
1.1048e-10
2.99851e-05
-2.9985e-05
3.02782e-05
-3.02781e-05
3.15789e-09
1.46758e-05
7.50177e-09
1.34983e-05
1.33039e-08
1.30924e-05
1.93626e-08
1.28786e-05
2.4677e-08
1.27607e-05
2.90947e-08
1.27018e-05
3.26419e-08
1.26825e-05
3.53897e-08
1.26916e-05
3.74403e-08
1.27222e-05
3.89175e-08
1.27697e-05
3.99005e-08
1.28308e-05
4.04985e-08
1.29034e-05
4.07763e-08
1.29857e-05
4.07953e-08
1.30764e-05
4.06089e-08
1.31745e-05
4.02578e-08
1.32794e-05
3.97747e-08
1.33902e-05
3.91836e-08
1.35066e-05
3.85083e-08
1.36281e-05
3.77748e-08
1.37544e-05
3.69854e-08
1.38852e-05
3.61573e-08
1.40202e-05
3.52988e-08
1.41592e-05
3.44148e-08
1.43021e-05
3.35196e-08
1.44487e-05
3.26093e-08
1.45989e-05
3.16964e-08
1.47525e-05
3.0781e-08
1.49095e-05
2.98608e-08
1.50698e-05
2.89453e-08
1.52333e-05
2.80367e-08
1.53999e-05
2.71386e-08
1.55696e-05
2.62418e-08
1.57423e-05
2.53599e-08
1.5918e-05
2.44887e-08
1.60967e-05
2.36283e-08
1.62783e-05
2.27791e-08
1.64627e-05
2.1949e-08
1.665e-05
2.1128e-08
1.68401e-05
2.03233e-08
1.70329e-05
1.95377e-08
1.72286e-05
1.87631e-08
1.7427e-05
1.80067e-08
1.76281e-05
1.72685e-08
1.78319e-05
1.6543e-08
1.80385e-05
1.58371e-08
1.82476e-05
1.51476e-08
1.84595e-05
1.44743e-08
1.8674e-05
1.38187e-08
1.88911e-05
1.31757e-08
1.91108e-05
1.25563e-08
1.93331e-05
1.19527e-08
1.9558e-05
1.1364e-08
1.97854e-05
1.07945e-08
2.00154e-05
1.02386e-08
2.02479e-05
9.70002e-09
2.04828e-05
9.18014e-09
2.07203e-05
8.67375e-09
2.09602e-05
8.18432e-09
2.12025e-05
7.71108e-09
2.14473e-05
7.25532e-09
2.16944e-05
6.81584e-09
2.19439e-05
6.38981e-09
2.21957e-05
5.98258e-09
2.24498e-05
5.58482e-09
2.27061e-05
5.20609e-09
2.29647e-05
4.84098e-09
2.32255e-05
4.48892e-09
2.34884e-05
4.1547e-09
2.37534e-05
3.82951e-09
2.40204e-05
3.52222e-09
2.42895e-05
3.22817e-09
2.45605e-05
2.94785e-09
2.48334e-05
2.68075e-09
2.51082e-05
2.42583e-09
2.53847e-05
2.18791e-09
2.5663e-05
1.96013e-09
2.59429e-05
1.7436e-09
2.62244e-05
1.54495e-09
2.65074e-05
1.35565e-09
2.67918e-05
1.17848e-09
2.70775e-05
1.01833e-09
2.73645e-05
8.68533e-10
2.76526e-05
7.33798e-10
2.79417e-05
6.09383e-10
2.82318e-05
4.98235e-10
2.85227e-05
4.01328e-10
2.88143e-05
3.17744e-10
2.91065e-05
2.44724e-10
2.93991e-05
1.8867e-10
2.9692e-05
1.45075e-10
2.99851e-05
3.02782e-05
3.73869e-09
1.46721e-05
7.26644e-09
1.34947e-05
1.05919e-08
1.30891e-05
1.37541e-08
1.28754e-05
1.66851e-08
1.27578e-05
1.94411e-08
1.2699e-05
2.19831e-08
1.26799e-05
2.42703e-08
1.26893e-05
2.62764e-08
1.27202e-05
2.79866e-08
1.2768e-05
2.94172e-08
1.28294e-05
3.05697e-08
1.29022e-05
3.14696e-08
1.29848e-05
3.21425e-08
1.30757e-05
3.26084e-08
1.31741e-05
3.28936e-08
1.32791e-05
3.30195e-08
1.33901e-05
3.30036e-08
1.35066e-05
3.28726e-08
1.36283e-05
3.26285e-08
1.37546e-05
3.23023e-08
1.38855e-05
3.18929e-08
1.40206e-05
3.14277e-08
1.41597e-05
3.09026e-08
1.43026e-05
3.0331e-08
1.44493e-05
2.97228e-08
1.45995e-05
2.9084e-08
1.47531e-05
2.84174e-08
1.49102e-05
2.77298e-08
1.50705e-05
2.70281e-08
1.5234e-05
2.63123e-08
1.54006e-05
2.55858e-08
1.55703e-05
2.48532e-08
1.57431e-05
2.41195e-08
1.59188e-05
2.3381e-08
1.60974e-05
2.26441e-08
1.6279e-05
2.19127e-08
1.64634e-05
2.1178e-08
1.66507e-05
2.04552e-08
1.68408e-05
1.97406e-08
1.70337e-05
1.90266e-08
1.72293e-05
1.83262e-08
1.74277e-05
1.76349e-08
1.76288e-05
1.69523e-08
1.78326e-05
1.62813e-08
1.80391e-05
1.5624e-08
1.82483e-05
1.49778e-08
1.84601e-05
1.43449e-08
1.86746e-05
1.37205e-08
1.88917e-05
1.31158e-08
1.91114e-05
1.2521e-08
1.93337e-05
1.19401e-08
1.95586e-05
1.1373e-08
1.9786e-05
1.08209e-08
2.00159e-05
1.02859e-08
2.02484e-05
9.76033e-09
2.04834e-05
9.25244e-09
2.07208e-05
8.75713e-09
2.09607e-05
8.27587e-09
2.1203e-05
7.8122e-09
2.14477e-05
7.36084e-09
2.16949e-05
6.92547e-09
2.19443e-05
6.5009e-09
2.21961e-05
6.09253e-09
2.24502e-05
5.70167e-09
2.27065e-05
5.32092e-09
2.29651e-05
4.95362e-09
2.32258e-05
4.60501e-09
2.34887e-05
4.26602e-09
2.37537e-05
3.94363e-09
2.40208e-05
3.63086e-09
2.42898e-05
3.33482e-09
2.45608e-05
3.04863e-09
2.48337e-05
2.7789e-09
2.51085e-05
2.52094e-09
2.5385e-05
2.27584e-09
2.56633e-05
2.04631e-09
2.59431e-05
1.82741e-09
2.62246e-05
1.62228e-09
2.65076e-05
1.4314e-09
2.6792e-05
1.25238e-09
2.70777e-05
1.08394e-09
2.73646e-05
9.3278e-10
2.76527e-05
7.9028e-10
2.79419e-05
6.63112e-10
2.82319e-05
5.50046e-10
2.85228e-05
4.48534e-10
2.88144e-05
3.6303e-10
2.91066e-05
2.90673e-10
2.93992e-05
2.30589e-10
2.96921e-05
1.83692e-10
2.99852e-05
3.02782e-05
2.92231e-09
1.46692e-05
5.66796e-09
1.3492e-05
8.51405e-09
1.30862e-05
1.10432e-08
1.28729e-05
1.32911e-08
1.27555e-05
1.53316e-08
1.2697e-05
1.7177e-08
1.26781e-05
1.88635e-08
1.26876e-05
2.03985e-08
1.27187e-05
2.17836e-08
1.27666e-05
2.30245e-08
1.28282e-05
2.41118e-08
1.29012e-05
2.50522e-08
1.29838e-05
2.58511e-08
1.30749e-05
2.65074e-08
1.31734e-05
2.70328e-08
1.32786e-05
2.74307e-08
1.33897e-05
2.77094e-08
1.35064e-05
2.78824e-08
1.36281e-05
2.79554e-08
1.37546e-05
2.79395e-08
1.38855e-05
2.78397e-08
1.40207e-05
2.76611e-08
1.41598e-05
2.74245e-08
1.43029e-05
2.7123e-08
1.44496e-05
2.6771e-08
1.45998e-05
2.63687e-08
1.47535e-05
2.59292e-08
1.49106e-05
2.54572e-08
1.50709e-05
2.49516e-08
1.52345e-05
2.44191e-08
1.54011e-05
2.38677e-08
1.55709e-05
2.32952e-08
1.57436e-05
2.27072e-08
1.59194e-05
2.21085e-08
1.6098e-05
2.15009e-08
1.62796e-05
2.08837e-08
1.6464e-05
2.02634e-08
1.66513e-05
1.96364e-08
1.68414e-05
1.90113e-08
1.70343e-05
1.83867e-08
1.72299e-05
1.7763e-08
1.74283e-05
1.7141e-08
1.76294e-05
1.65239e-08
1.78332e-05
1.59141e-08
1.80397e-05
1.53094e-08
1.82489e-05
1.47105e-08
1.84607e-05
1.41216e-08
1.86752e-05
1.35452e-08
1.88923e-05
1.29719e-08
1.9112e-05
1.24085e-08
1.93343e-05
1.18592e-08
1.95591e-05
1.13214e-08
1.97865e-05
1.07903e-08
2.00165e-05
1.02743e-08
2.02489e-05
9.77047e-09
2.04839e-05
9.27642e-09
2.07213e-05
8.79803e-09
2.09612e-05
8.33015e-09
2.12035e-05
7.87436e-09
2.14482e-05
7.43426e-09
2.16953e-05
7.00468e-09
2.19448e-05
6.58689e-09
2.21965e-05
6.1848e-09
2.24506e-05
5.7906e-09
2.27069e-05
5.41641e-09
2.29655e-05
5.05287e-09
2.32262e-05
4.70094e-09
2.34891e-05
4.36411e-09
2.3754e-05
4.03695e-09
2.40211e-05
3.72896e-09
2.42901e-05
3.42873e-09
2.45611e-05
3.14567e-09
2.4834e-05
2.87256e-09
2.51087e-05
2.61238e-09
2.53853e-05
2.36391e-09
2.56635e-05
2.13049e-09
2.59434e-05
1.90884e-09
2.62248e-05
1.70186e-09
2.65078e-05
1.50472e-09
2.67922e-05
1.32396e-09
2.70779e-05
1.15481e-09
2.73648e-05
9.9599e-10
2.76529e-05
8.54341e-10
2.7942e-05
7.24822e-10
2.82321e-05
6.06607e-10
2.8523e-05
5.04126e-10
2.88145e-05
4.14247e-10
2.91067e-05
3.36407e-10
2.93993e-05
2.74788e-10
2.96922e-05
2.2644e-10
2.99852e-05
3.02783e-05
1.75949e-09
1.46674e-05
3.26439e-09
1.34905e-05
5.18194e-09
1.30843e-05
7.07742e-09
1.2871e-05
8.92904e-09
1.27537e-05
1.06795e-08
1.26953e-05
1.23251e-08
1.26765e-05
1.38623e-08
1.26861e-05
1.52858e-08
1.27173e-05
1.66006e-08
1.27653e-05
1.78028e-08
1.2827e-05
1.88947e-08
1.29001e-05
1.98735e-08
1.29828e-05
2.07402e-08
1.3074e-05
2.15022e-08
1.31727e-05
2.21581e-08
1.32779e-05
2.27088e-08
1.33891e-05
2.31683e-08
1.35059e-05
2.3532e-08
1.36277e-05
2.38043e-08
1.37543e-05
2.39926e-08
1.38853e-05
2.41064e-08
1.40206e-05
2.41459e-08
1.41598e-05
2.41149e-08
1.43029e-05
2.40267e-08
1.44496e-05
2.3875e-08
1.46e-05
2.36776e-08
1.47537e-05
2.34277e-08
1.49108e-05
2.31348e-08
1.50712e-05
2.28078e-08
1.52348e-05
2.24445e-08
1.54015e-05
2.20434e-08
1.55713e-05
2.16255e-08
1.5744e-05
2.11775e-08
1.59198e-05
2.07099e-08
1.60985e-05
2.02222e-08
1.62801e-05
1.97241e-08
1.64645e-05
1.92122e-08
1.66518e-05
1.86906e-08
1.68419e-05
1.81556e-08
1.70348e-05
1.7621e-08
1.72305e-05
1.70778e-08
1.74289e-05
1.65321e-08
1.763e-05
1.59866e-08
1.78338e-05
1.54398e-08
1.80403e-05
1.48923e-08
1.82495e-05
1.43513e-08
1.84613e-05
1.38102e-08
1.86757e-05
1.32761e-08
1.88928e-05
1.27469e-08
1.91125e-05
1.22271e-08
1.93348e-05
1.17097e-08
1.95596e-05
1.11991e-08
1.9787e-05
1.07019e-08
2.00169e-05
1.02087e-08
2.02494e-05
9.72609e-09
2.04843e-05
9.25541e-09
2.07218e-05
8.7919e-09
2.09616e-05
8.33964e-09
2.12039e-05
7.89981e-09
2.14486e-05
7.46785e-09
2.16957e-05
7.04949e-09
2.19452e-05
6.64373e-09
2.21969e-05
6.24755e-09
2.2451e-05
5.8647e-09
2.27073e-05
5.49193e-09
2.29658e-05
5.1329e-09
2.32266e-05
4.78656e-09
2.34894e-05
4.4475e-09
2.37544e-05
4.12774e-09
2.40214e-05
3.81559e-09
2.42904e-05
3.51627e-09
2.45614e-05
3.23065e-09
2.48343e-05
2.95599e-09
2.5109e-05
2.69506e-09
2.53855e-05
2.4489e-09
2.56637e-05
2.21232e-09
2.59436e-05
1.98828e-09
2.62251e-05
1.77764e-09
2.6508e-05
1.58123e-09
2.67924e-05
1.39224e-09
2.70781e-05
1.22102e-09
2.7365e-05
1.06654e-09
2.76531e-05
9.1818e-10
2.79422e-05
7.85923e-10
2.82322e-05
6.6711e-10
2.85231e-05
5.60492e-10
2.88146e-05
4.68698e-10
2.91068e-05
3.88793e-10
2.93994e-05
3.23183e-10
2.96922e-05
2.74316e-10
2.99853e-05
3.02783e-05
1.18928e-09
1.46662e-05
2.1686e-09
1.34895e-05
3.44161e-09
1.3083e-05
4.7577e-09
1.28697e-05
6.13264e-09
1.27523e-05
7.49399e-09
1.26939e-05
8.82665e-09
1.26751e-05
1.01188e-08
1.26848e-05
1.13616e-08
1.2716e-05
1.25453e-08
1.27641e-05
1.36545e-08
1.28259e-05
1.4699e-08
1.2899e-05
1.56613e-08
1.29819e-05
1.65472e-08
1.30732e-05
1.73517e-08
1.31718e-05
1.80679e-08
1.32772e-05
1.871e-08
1.33885e-05
1.92699e-08
1.35053e-05
1.97436e-08
1.36272e-05
2.0149e-08
1.37539e-05
2.04772e-08
1.3885e-05
2.07339e-08
1.40203e-05
2.09263e-08
1.41596e-05
2.10524e-08
1.43028e-05
2.11149e-08
1.44496e-05
2.11301e-08
1.46e-05
2.10823e-08
1.47538e-05
2.0988e-08
1.49109e-05
2.08473e-08
1.50714e-05
2.06656e-08
1.5235e-05
2.04429e-08
1.54017e-05
2.01924e-08
1.55715e-05
1.98985e-08
1.57443e-05
1.95788e-08
1.59201e-05
1.92356e-08
1.60988e-05
1.88682e-08
1.62805e-05
1.84762e-08
1.64649e-05
1.80687e-08
1.66522e-05
1.76449e-08
1.68424e-05
1.72084e-08
1.70353e-05
1.67558e-08
1.72309e-05
1.62955e-08
1.74293e-05
1.58262e-08
1.76304e-05
1.53535e-08
1.78343e-05
1.48732e-08
1.80408e-05
1.43911e-08
1.82499e-05
1.3905e-08
1.84618e-05
1.34201e-08
1.86762e-05
1.29348e-08
1.88933e-05
1.24509e-08
1.9113e-05
1.19688e-08
1.93353e-05
1.14889e-08
1.95601e-05
1.10178e-08
1.97875e-05
1.05481e-08
2.00174e-05
1.00869e-08
2.02499e-05
9.63168e-09
2.04848e-05
9.18172e-09
2.07222e-05
8.73923e-09
2.09621e-05
8.30994e-09
2.12044e-05
7.88503e-09
2.14491e-05
7.47014e-09
2.16961e-05
7.06439e-09
2.19456e-05
6.66765e-09
2.21973e-05
6.28531e-09
2.24514e-05
5.91012e-09
2.27077e-05
5.54367e-09
2.29662e-05
5.19316e-09
2.32269e-05
4.84749e-09
2.34898e-05
4.52034e-09
2.37547e-05
4.19802e-09
2.40217e-05
3.88996e-09
2.42907e-05
3.5934e-09
2.45617e-05
3.30711e-09
2.48346e-05
3.03598e-09
2.51093e-05
2.77496e-09
2.53858e-05
2.52495e-09
2.5664e-05
2.2889e-09
2.59439e-05
2.06372e-09
2.62253e-05
1.85029e-09
2.65082e-05
1.6533e-09
2.67926e-05
1.4695e-09
2.70782e-05
1.29213e-09
2.73652e-05
1.1297e-09
2.76532e-05
9.82596e-10
2.79423e-05
8.46365e-10
2.82323e-05
7.2691e-10
2.85232e-05
6.19213e-10
2.88147e-05
5.22651e-10
2.91069e-05
4.46393e-10
2.93994e-05
3.78489e-10
2.96923e-05
3.24811e-10
2.99853e-05
3.02783e-05
9.20085e-10
1.46653e-05
1.72917e-09
1.34887e-05
2.6823e-09
1.30821e-05
3.69747e-09
1.28687e-05
4.75646e-09
1.27513e-05
5.80406e-09
1.26928e-05
6.85096e-09
1.26741e-05
7.87471e-09
1.26838e-05
8.88242e-09
1.2715e-05
9.85987e-09
1.27631e-05
1.08068e-08
1.28249e-05
1.17099e-08
1.28981e-05
1.25698e-08
1.2981e-05
1.3375e-08
1.30724e-05
1.41326e-08
1.31711e-05
1.48338e-08
1.32765e-05
1.54756e-08
1.33879e-05
1.60533e-08
1.35048e-05
1.65741e-08
1.36267e-05
1.70376e-08
1.37534e-05
1.74346e-08
1.38846e-05
1.77795e-08
1.402e-05
1.80589e-08
1.41593e-05
1.82878e-08
1.43025e-05
1.84644e-08
1.44494e-05
1.85794e-08
1.45998e-05
1.86556e-08
1.47537e-05
1.86787e-08
1.49109e-05
1.86583e-08
1.50714e-05
1.85937e-08
1.5235e-05
1.84921e-08
1.54018e-05
1.83498e-08
1.55717e-05
1.81764e-08
1.57445e-05
1.79712e-08
1.59203e-05
1.77306e-08
1.60991e-05
1.7467e-08
1.62807e-05
1.71808e-08
1.64652e-05
1.68644e-08
1.66526e-05
1.65337e-08
1.68427e-05
1.6185e-08
1.70356e-05
1.58172e-08
1.72313e-05
1.54362e-08
1.74297e-05
1.50476e-08
1.76308e-05
1.46402e-08
1.78347e-05
1.42275e-08
1.80412e-05
1.38091e-08
1.82504e-05
1.33836e-08
1.84622e-05
1.29496e-08
1.86767e-05
1.25161e-08
1.88937e-05
1.20812e-08
1.91134e-05
1.16411e-08
1.93357e-05
1.12089e-08
1.95605e-05
1.07713e-08
1.97879e-05
1.03395e-08
2.00178e-05
9.90906e-09
2.02503e-05
9.48148e-09
2.04852e-05
9.05944e-09
2.07226e-05
8.64644e-09
2.09625e-05
8.23585e-09
2.12048e-05
7.82907e-09
2.14495e-05
7.43435e-09
2.16965e-05
7.04474e-09
2.1946e-05
6.66603e-09
2.21977e-05
6.2908e-09
2.24517e-05
5.92726e-09
2.2708e-05
5.57447e-09
2.29666e-05
5.2273e-09
2.32273e-05
4.89321e-09
2.34901e-05
4.56729e-09
2.3755e-05
4.25465e-09
2.4022e-05
3.95017e-09
2.4291e-05
3.65695e-09
2.4562e-05
3.374e-09
2.48349e-05
3.10221e-09
2.51096e-05
2.84456e-09
2.5386e-05
2.59398e-09
2.56642e-05
2.35923e-09
2.59441e-05
2.13698e-09
2.62255e-05
1.92236e-09
2.65084e-05
1.72195e-09
2.67928e-05
1.53273e-09
2.70784e-05
1.36092e-09
2.73653e-05
1.19773e-09
2.76534e-05
1.04805e-09
2.79425e-05
9.12033e-10
2.82325e-05
7.88539e-10
2.85233e-05
6.78409e-10
2.88149e-05
5.85424e-10
2.9107e-05
5.01166e-10
2.93995e-05
4.35311e-10
2.96924e-05
3.80713e-10
2.99854e-05
3.02784e-05
7.61169e-10
1.46646e-05
1.42035e-09
1.3488e-05
2.15418e-09
1.30813e-05
2.96127e-09
1.28679e-05
3.80267e-09
1.27504e-05
4.6524e-09
1.2692e-05
5.48795e-09
1.26732e-05
6.32451e-09
1.2683e-05
7.14533e-09
1.27142e-05
7.95349e-09
1.27623e-05
8.74424e-09
1.28241e-05
9.51541e-09
1.28973e-05
1.0256e-08
1.29803e-05
1.09701e-08
1.30716e-05
1.16423e-08
1.31704e-05
1.22888e-08
1.32758e-05
1.28858e-08
1.33873e-05
1.3445e-08
1.35042e-05
1.39662e-08
1.36262e-05
1.44308e-08
1.3753e-05
1.48597e-08
1.38842e-05
1.52346e-08
1.40196e-05
1.55687e-08
1.4159e-05
1.58532e-08
1.43022e-05
1.60904e-08
1.44492e-05
1.62885e-08
1.45996e-05
1.6437e-08
1.47536e-05
1.65445e-08
1.49108e-05
1.66116e-08
1.50713e-05
1.66361e-08
1.5235e-05
1.66247e-08
1.54018e-05
1.65775e-08
1.55717e-05
1.6496e-08
1.57446e-05
1.63788e-08
1.59204e-05
1.62343e-08
1.60992e-05
1.60636e-08
1.62809e-05
1.58605e-08
1.64654e-05
1.56381e-08
1.66528e-05
1.53877e-08
1.68429e-05
1.5118e-08
1.70359e-05
1.48292e-08
1.72316e-05
1.45253e-08
1.743e-05
1.42018e-08
1.76311e-05
1.38691e-08
1.7835e-05
1.35183e-08
1.80415e-05
1.31622e-08
1.82507e-05
1.27937e-08
1.84626e-05
1.24205e-08
1.8677e-05
1.20382e-08
1.88941e-05
1.1652e-08
1.91138e-05
1.12617e-08
1.93361e-05
1.08653e-08
1.95609e-05
1.04718e-08
1.97883e-05
1.0075e-08
2.00182e-05
9.6783e-09
2.02507e-05
9.28694e-09
2.04856e-05
8.89321e-09
2.0723e-05
8.50396e-09
2.09629e-05
8.11622e-09
2.12052e-05
7.73661e-09
2.14499e-05
7.35977e-09
2.16969e-05
6.99013e-09
2.19463e-05
6.62609e-09
2.21981e-05
6.26995e-09
2.24521e-05
5.9186e-09
2.27084e-05
5.57717e-09
2.29669e-05
5.23912e-09
2.32276e-05
4.91611e-09
2.34904e-05
4.59834e-09
2.37554e-05
4.29146e-09
2.40223e-05
3.99285e-09
2.42913e-05
3.70673e-09
2.45623e-05
3.42833e-09
2.48351e-05
3.16284e-09
2.51098e-05
2.90475e-09
2.53863e-05
2.66105e-09
2.56645e-05
2.4247e-09
2.59443e-05
2.2005e-09
2.62257e-05
1.99085e-09
2.65086e-05
1.78912e-09
2.6793e-05
1.60311e-09
2.70786e-05
1.4265e-09
2.73655e-05
1.26347e-09
2.76535e-05
1.11434e-09
2.79426e-05
9.76457e-10
2.82326e-05
8.53639e-10
2.85234e-05
7.42998e-10
2.8815e-05
6.44623e-10
2.91071e-05
5.63087e-10
2.93996e-05
4.92604e-10
2.96924e-05
4.37388e-10
2.99854e-05
3.02784e-05
6.22616e-10
1.46639e-05
1.14138e-09
1.34875e-05
1.69998e-09
1.30808e-05
2.3398e-09
1.28672e-05
3.01794e-09
1.27497e-05
3.70455e-09
1.26913e-05
4.39356e-09
1.26725e-05
5.08059e-09
1.26823e-05
5.76945e-09
1.27135e-05
6.44684e-09
1.27616e-05
7.1158e-09
1.28235e-05
7.77234e-09
1.28967e-05
8.41836e-09
1.29796e-05
9.04099e-09
1.3071e-05
9.64784e-09
1.31698e-05
1.02211e-08
1.32753e-05
1.07774e-08
1.33867e-05
1.12991e-08
1.35037e-05
1.17866e-08
1.36257e-05
1.22481e-08
1.37525e-05
1.26708e-08
1.38837e-05
1.30578e-08
1.40192e-05
1.34078e-08
1.41586e-05
1.37193e-08
1.43019e-05
1.39938e-08
1.44489e-05
1.42305e-08
1.45994e-05
1.44314e-08
1.47534e-05
1.45988e-08
1.49106e-05
1.47239e-08
1.50712e-05
1.48179e-08
1.52349e-05
1.48749e-08
1.54018e-05
1.48982e-08
1.55717e-05
1.48876e-08
1.57446e-05
1.48492e-08
1.59205e-05
1.47802e-08
1.60993e-05
1.46787e-08
1.6281e-05
1.45557e-08
1.64655e-05
1.44036e-08
1.66529e-05
1.4231e-08
1.68431e-05
1.40332e-08
1.70361e-05
1.3816e-08
1.72318e-05
1.3579e-08
1.74302e-05
1.33239e-08
1.76314e-05
1.30531e-08
1.78353e-05
1.27691e-08
1.80418e-05
1.24657e-08
1.8251e-05
1.21549e-08
1.84629e-05
1.18345e-08
1.86774e-05
1.15025e-08
1.88945e-05
1.11637e-08
1.91142e-05
1.0823e-08
1.93364e-05
1.04732e-08
1.95613e-05
1.01168e-08
1.97887e-05
9.76051e-09
2.00186e-05
9.40219e-09
2.0251e-05
9.04112e-09
2.0486e-05
8.67978e-09
2.07234e-05
8.31968e-09
2.09632e-05
7.96081e-09
2.12055e-05
7.60429e-09
2.14502e-05
7.25264e-09
2.16973e-05
6.89995e-09
2.19467e-05
6.55528e-09
2.21984e-05
6.21297e-09
2.24524e-05
5.88105e-09
2.27087e-05
5.55243e-09
2.29672e-05
5.2344e-09
2.32279e-05
4.91773e-09
2.34907e-05
4.61236e-09
2.37557e-05
4.31292e-09
2.40226e-05
4.02398e-09
2.42916e-05
3.74347e-09
2.45626e-05
3.46963e-09
2.48354e-05
3.20743e-09
2.51101e-05
2.954e-09
2.53866e-05
2.71183e-09
2.56647e-05
2.47993e-09
2.59446e-05
2.25891e-09
2.6226e-05
2.0496e-09
2.65089e-05
1.85056e-09
2.67932e-05
1.66465e-09
2.70788e-05
1.49018e-09
2.73657e-05
1.328e-09
2.76537e-05
1.17841e-09
2.79428e-05
1.04202e-09
2.82328e-05
9.15921e-10
2.85236e-05
8.03645e-10
2.88151e-05
7.09763e-10
2.91072e-05
6.23058e-10
2.93997e-05
5.5493e-10
2.96925e-05
4.9964e-10
2.99855e-05
3.02785e-05
5.0227e-10
1.46634e-05
9.19295e-10
1.34871e-05
1.35628e-09
1.30803e-05
1.86728e-09
1.28667e-05
2.41567e-09
1.27492e-05
2.97821e-09
1.26907e-05
3.54727e-09
1.2672e-05
4.11831e-09
1.26817e-05
4.69116e-09
1.27129e-05
5.26409e-09
1.27611e-05
5.83663e-09
1.28229e-05
6.39704e-09
1.28961e-05
6.95372e-09
1.29791e-05
7.50034e-09
1.30705e-05
8.03076e-09
1.31693e-05
8.54947e-09
1.32747e-05
9.04289e-09
1.33862e-05
9.52458e-09
1.35032e-05
9.97721e-09
1.36253e-05
1.04104e-08
1.37521e-05
1.08149e-08
1.38833e-05
1.1192e-08
1.40188e-05
1.15449e-08
1.41583e-05
1.18635e-08
1.43016e-05
1.21572e-08
1.44486e-05
1.24189e-08
1.45991e-05
1.2647e-08
1.47531e-05
1.28437e-08
1.49104e-05
1.30135e-08
1.5071e-05
1.3147e-08
1.52348e-05
1.32544e-08
1.54017e-05
1.33301e-08
1.55716e-05
1.33789e-08
1.57446e-05
1.33973e-08
1.59205e-05
1.33859e-08
1.60993e-05
1.33469e-08
1.6281e-05
1.32827e-08
1.64656e-05
1.3196e-08
1.6653e-05
1.30842e-08
1.68432e-05
1.29476e-08
1.70362e-05
1.27912e-08
1.72319e-05
1.26154e-08
1.74304e-05
1.24224e-08
1.76316e-05
1.22101e-08
1.78355e-05
1.19812e-08
1.8042e-05
1.17404e-08
1.82513e-05
1.14833e-08
1.84631e-05
1.1212e-08
1.86776e-05
1.09341e-08
1.88947e-05
1.06423e-08
1.91144e-05
1.03412e-08
1.93367e-05
1.00332e-08
1.95616e-05
9.7227e-09
1.9789e-05
9.4026e-09
2.00189e-05
9.07936e-09
2.02514e-05
8.75099e-09
2.04863e-05
8.42349e-09
2.07237e-05
8.09212e-09
2.09636e-05
7.76306e-09
2.12059e-05
7.4336e-09
2.14505e-05
7.10307e-09
2.16976e-05
6.77975e-09
2.1947e-05
6.45425e-09
2.21987e-05
6.13471e-09
2.24528e-05
5.81746e-09
2.2709e-05
5.50455e-09
2.29675e-05
5.19711e-09
2.32282e-05
4.89651e-09
2.3491e-05
4.6032e-09
2.3756e-05
4.31464e-09
2.40229e-05
4.03375e-09
2.42919e-05
3.75931e-09
2.45628e-05
3.49845e-09
2.48357e-05
3.23971e-09
2.51103e-05
2.9963e-09
2.53868e-05
2.75687e-09
2.5665e-05
2.52787e-09
2.59448e-05
2.31221e-09
2.62262e-05
2.10449e-09
2.65091e-05
1.90918e-09
2.67934e-05
1.72327e-09
2.7079e-05
1.54913e-09
2.73659e-05
1.38708e-09
2.76539e-05
1.23795e-09
2.79429e-05
1.10177e-09
2.82329e-05
9.7739e-10
2.85237e-05
8.70699e-10
2.88152e-05
7.70651e-10
2.91073e-05
6.9041e-10
2.93998e-05
6.18512e-10
2.96926e-05
5.62495e-10
2.99855e-05
3.02785e-05
4.22438e-10
1.4663e-05
7.6865e-10
1.34868e-05
1.11381e-09
1.308e-05
1.526e-09
1.28663e-05
1.97147e-09
1.27487e-05
2.43621e-09
1.26903e-05
2.90947e-09
1.26715e-05
3.39542e-09
1.26812e-05
3.87268e-09
1.27124e-05
4.35434e-09
1.27606e-05
4.83615e-09
1.28224e-05
5.32037e-09
1.28956e-05
5.79628e-09
1.29786e-05
6.26666e-09
1.307e-05
6.73092e-09
1.31688e-05
7.18741e-09
1.32743e-05
7.63202e-09
1.33858e-05
8.05935e-09
1.35028e-05
8.47558e-09
1.36248e-05
8.86949e-09
1.37517e-05
9.24956e-09
1.3883e-05
9.60796e-09
1.40185e-05
9.94224e-09
1.4158e-05
1.02619e-08
1.43013e-05
1.05533e-08
1.44483e-05
1.08204e-08
1.45989e-05
1.10617e-08
1.47529e-05
1.12781e-08
1.49102e-05
1.14681e-08
1.50708e-05
1.16362e-08
1.52346e-05
1.17752e-08
1.54015e-05
1.18848e-08
1.55715e-05
1.19714e-08
1.57445e-05
1.20321e-08
1.59204e-05
1.20685e-08
1.60993e-05
1.20801e-08
1.6281e-05
1.2066e-08
1.64656e-05
1.20289e-08
1.66531e-05
1.19655e-08
1.68433e-05
1.18855e-08
1.70363e-05
1.1786e-08
1.7232e-05
1.16599e-08
1.74305e-05
1.15165e-08
1.76317e-05
1.13579e-08
1.78356e-05
1.11818e-08
1.80422e-05
1.09877e-08
1.82515e-05
1.07806e-08
1.84633e-05
1.05602e-08
1.86778e-05
1.03262e-08
1.8895e-05
1.00807e-08
1.91147e-05
9.82612e-09
1.9337e-05
9.55986e-09
1.95619e-05
9.28592e-09
1.97893e-05
9.0065e-09
2.00192e-05
8.71922e-09
2.02517e-05
8.42972e-09
2.04866e-05
8.13389e-09
2.0724e-05
7.83521e-09
2.09639e-05
7.53334e-09
2.12062e-05
7.2323e-09
2.14508e-05
6.92904e-09
2.16979e-05
6.62515e-09
2.19473e-05
6.32191e-09
2.2199e-05
6.0228e-09
2.24531e-05
5.72534e-09
2.27093e-05
5.42844e-09
2.29678e-05
5.13937e-09
2.32285e-05
4.85304e-09
2.34913e-05
4.57275e-09
2.37562e-05
4.29538e-09
2.40232e-05
4.02602e-09
2.42922e-05
3.76531e-09
2.45631e-05
3.50824e-09
2.48359e-05
3.26194e-09
2.51106e-05
3.02026e-09
2.5387e-05
2.78867e-09
2.56652e-05
2.56954e-09
2.5945e-05
2.35351e-09
2.62264e-05
2.15133e-09
2.65093e-05
1.95762e-09
2.67936e-05
1.77622e-09
2.70792e-05
1.60444e-09
2.7366e-05
1.44609e-09
2.7654e-05
1.29825e-09
2.79431e-05
1.16296e-09
2.8233e-05
1.04055e-09
2.85238e-05
9.3126e-10
2.88153e-05
8.35512e-10
2.91073e-05
7.54604e-10
2.93998e-05
6.86435e-10
2.96926e-05
6.28678e-10
2.99856e-05
3.02786e-05
3.52287e-10
1.46627e-05
6.41541e-10
1.34865e-05
9.25662e-10
1.30797e-05
1.26124e-09
1.2866e-05
1.62816e-09
1.27484e-05
2.01146e-09
1.26899e-05
2.41397e-09
1.26711e-05
2.8137e-09
1.26808e-05
3.2207e-09
1.2712e-05
3.63001e-09
1.27602e-05
4.03936e-09
1.2822e-05
4.4505e-09
1.28952e-05
4.85756e-09
1.29782e-05
5.2674e-09
1.30696e-05
5.67473e-09
1.31684e-05
6.07032e-09
1.32739e-05
6.46115e-09
1.33854e-05
6.84427e-09
1.35024e-05
7.2168e-09
1.36245e-05
7.57948e-09
1.37513e-05
7.92441e-09
1.38826e-05
8.25973e-09
1.40181e-05
8.57568e-09
1.41576e-05
8.87751e-09
1.4301e-05
9.15829e-09
1.4448e-05
9.42091e-09
1.45986e-05
9.66412e-09
1.47526e-05
9.89092e-09
1.491e-05
1.00917e-08
1.50706e-05
1.02726e-08
1.52344e-05
1.04277e-08
1.54014e-05
1.0565e-08
1.55714e-05
1.06785e-08
1.57444e-05
1.07698e-08
1.59203e-05
1.08374e-08
1.60992e-05
1.08854e-08
1.6281e-05
1.09107e-08
1.64656e-05
1.09121e-08
1.66531e-05
1.08965e-08
1.68433e-05
1.08578e-08
1.70363e-05
1.07961e-08
1.72321e-05
1.07224e-08
1.74306e-05
1.06243e-08
1.76318e-05
1.0506e-08
1.78358e-05
1.0379e-08
1.80423e-05
1.02285e-08
1.82516e-05
1.00683e-08
1.84635e-05
9.89113e-09
1.8678e-05
9.69855e-09
1.88952e-05
9.49509e-09
1.91149e-05
9.27999e-09
1.93372e-05
9.05992e-09
1.95621e-05
8.82284e-09
1.97895e-05
8.57789e-09
2.00194e-05
8.33057e-09
2.02519e-05
8.07183e-09
2.04869e-05
7.80991e-09
2.07243e-05
7.54199e-09
2.09641e-05
7.26973e-09
2.12064e-05
6.9944e-09
2.14511e-05
6.71756e-09
2.16982e-05
6.43877e-09
2.19476e-05
6.16119e-09
2.21993e-05
5.88399e-09
2.24533e-05
5.60635e-09
2.27096e-05
5.33361e-09
2.29681e-05
5.05649e-09
2.32288e-05
4.78832e-09
2.34916e-05
4.52014e-09
2.37565e-05
4.26093e-09
2.40235e-05
4.00308e-09
2.42924e-05
3.75009e-09
2.45634e-05
3.50629e-09
2.48362e-05
3.26638e-09
2.51108e-05
3.03525e-09
2.53873e-05
2.81133e-09
2.56654e-05
2.59517e-09
2.59452e-05
2.38973e-09
2.62266e-05
2.19106e-09
2.65095e-05
2.00182e-09
2.67937e-05
1.82256e-09
2.70794e-05
1.65532e-09
2.73662e-05
1.49888e-09
2.76542e-05
1.35358e-09
2.79432e-05
1.22145e-09
2.82332e-05
1.10112e-09
2.85239e-05
9.94608e-10
2.88154e-05
9.00415e-10
2.91074e-05
8.19641e-10
2.93999e-05
7.53298e-10
2.96927e-05
6.99921e-10
2.99856e-05
3.02786e-05
2.96028e-10
1.46624e-05
5.4304e-10
1.34862e-05
7.68174e-10
1.30795e-05
1.03838e-09
1.28657e-05
1.34366e-09
1.27481e-05
1.67207e-09
1.26896e-05
2.00328e-09
1.26708e-05
2.34177e-09
1.26805e-05
2.68777e-09
1.27117e-05
3.03862e-09
1.27598e-05
3.38978e-09
1.28216e-05
3.73962e-09
1.28949e-05
4.09464e-09
1.29778e-05
4.44457e-09
1.30692e-05
4.79553e-09
1.31681e-05
5.14311e-09
1.32735e-05
5.48952e-09
1.3385e-05
5.82768e-09
1.3502e-05
6.16068e-09
1.36241e-05
6.48289e-09
1.3751e-05
6.80084e-09
1.38823e-05
7.10682e-09
1.40178e-05
7.40098e-09
1.41574e-05
7.68096e-09
1.43007e-05
7.94785e-09
1.44478e-05
8.19943e-09
1.45984e-05
8.43852e-09
1.47524e-05
8.65856e-09
1.49098e-05
8.86251e-09
1.50704e-05
9.04609e-09
1.52343e-05
9.218e-09
1.54012e-05
9.36615e-09
1.55712e-05
9.49696e-09
1.57442e-05
9.60816e-09
1.59202e-05
9.70428e-09
1.60991e-05
9.77352e-09
1.62809e-05
9.82714e-09
1.64655e-05
9.86134e-09
1.6653e-05
9.87518e-09
1.68433e-05
9.87265e-09
1.70363e-05
9.84996e-09
1.72321e-05
9.80898e-09
1.74307e-05
9.75054e-09
1.76319e-05
9.67703e-09
1.78358e-05
9.57981e-09
1.80424e-05
9.47748e-09
1.82517e-05
9.35281e-09
1.84636e-05
9.21417e-09
1.86782e-05
9.06339e-09
1.88953e-05
8.89979e-09
1.91151e-05
8.72276e-09
1.93374e-05
8.53349e-09
1.95623e-05
8.3367e-09
1.97897e-05
8.13075e-09
2.00197e-05
7.91301e-09
2.02521e-05
7.6899e-09
2.04871e-05
7.45781e-09
2.07245e-05
7.21861e-09
2.09644e-05
6.97789e-09
2.12067e-05
6.7331e-09
2.14514e-05
6.48067e-09
2.16984e-05
6.22845e-09
2.19478e-05
5.97552e-09
2.21996e-05
5.71708e-09
2.24536e-05
5.4601e-09
2.27099e-05
5.20368e-09
2.29684e-05
4.95302e-09
2.3229e-05
4.69915e-09
2.34918e-05
4.45041e-09
2.37568e-05
4.20172e-09
2.40237e-05
3.96064e-09
2.42927e-05
3.72083e-09
2.45636e-05
3.48572e-09
2.48364e-05
3.25739e-09
2.51111e-05
3.03516e-09
2.53875e-05
2.82289e-09
2.56656e-05
2.61351e-09
2.59454e-05
2.413e-09
2.62268e-05
2.22039e-09
2.65097e-05
2.03738e-09
2.67939e-05
1.86302e-09
2.70795e-05
1.70107e-09
2.73664e-05
1.54627e-09
2.76543e-05
1.40446e-09
2.79433e-05
1.27255e-09
2.82333e-05
1.15609e-09
2.85241e-05