/*--------------------------------*- C++ -*----------------------------------*\
  =========                 |
  \\      /  F ield         | OpenFOAM: The Open Source CFD Toolbox
   \\    /   O peration     | Website:  https://openfoam.org
    \\  /    A nd           | Version:  10
     \\/     M anipulation  |
\*---------------------------------------------------------------------------*/
FoamFile
{
    format      ascii;
    class       volScalarField;
    location    "2900";
    object      k;
}
// * * * * * * * * * * * * * * * * * * * * * * * * * * * * * * * * * * * * * //

dimensions      [0 2 -2 0 0 0 0];

internalField   nonuniform List<scalar> 
420
(
2.22045e-16
2.22045e-16
2.22045e-16
2.22045e-16
2.22045e-16
2.22045e-16
2.22045e-16
2.22045e-16
2.22045e-16
2.22045e-16
2.22045e-16
2.22045e-16
2.22045e-16
2.22045e-16
2.22045e-16
2.22045e-16
2.22045e-16
2.22045e-16
2.22045e-16
2.22045e-16
2.22045e-16
2.22045e-16
2.22045e-16
2.22045e-16
2.22045e-16
2.22045e-16
2.22045e-16
2.22045e-16
2.22045e-16
2.22045e-16
2.22045e-16
2.22045e-16
2.22045e-16
2.22045e-16
2.22045e-16
2.22045e-16
2.22045e-16
2.22045e-16
2.22045e-16
2.22045e-16
2.22045e-16
2.22045e-16
2.22045e-16
2.22045e-16
2.22045e-16
2.22045e-16
2.22045e-16
2.22045e-16
2.22045e-16
2.22045e-16
2.22045e-16
2.22045e-16
2.22045e-16
2.22045e-16
2.22045e-16
2.22045e-16
2.22045e-16
2.22045e-16
2.22045e-16
2.22045e-16
2.22045e-16
2.22045e-16
2.22045e-16
2.22045e-16
2.22045e-16
2.22045e-16
2.22045e-16
2.22045e-16
2.22045e-16
2.22045e-16
2.22045e-16
2.22045e-16
2.22045e-16
2.22045e-16
2.22045e-16
2.22045e-16
2.22045e-16
2.22045e-16
2.22045e-16
2.22045e-16
2.22045e-16
2.22045e-16
2.22045e-16
2.22045e-16
2.22045e-16
2.22045e-16
2.22045e-16
2.22045e-16
2.22045e-16
2.22045e-16
2.22045e-16
2.22045e-16
2.22045e-16
2.22045e-16
2.22045e-16
2.22045e-16
2.22045e-16
2.22045e-16
2.22045e-16
2.22045e-16
2.22045e-16
2.22045e-16
2.4869e-16
3.14466e-16
3.49266e-16
3.12095e-16
2.2838e-16
2.22045e-16
2.36037e-16
3.34518e-16
2.22045e-16
2.22045e-16
2.48085e-16
3.17501e-16
3.47468e-16
3.06234e-16
2.23533e-16
2.22045e-16
2.31576e-16
3.34143e-16
2.22045e-16
2.22045e-16
2.47792e-16
3.19567e-16
3.4491e-16
3.00371e-16
2.22045e-16
2.22045e-16
2.32165e-16
3.36583e-16
2.22045e-16
2.22045e-16
2.47055e-16
3.20739e-16
3.41413e-16
2.94971e-16
2.22045e-16
2.22045e-16
2.34269e-16
3.39156e-16
2.22045e-16
2.22045e-16
2.46253e-16
3.21415e-16
3.37524e-16
2.90376e-16
2.22045e-16
2.22045e-16
2.37346e-16
3.42269e-16
2.22045e-16
2.22045e-16
2.46018e-16
3.21697e-16
3.34044e-16
2.86614e-16
2.22045e-16
2.22045e-16
2.41222e-16
3.45825e-16
2.22045e-16
2.22045e-16
2.47093e-16
3.22507e-16
3.31798e-16
2.83668e-16
2.22045e-16
2.22045e-16
2.45863e-16
3.4965e-16
2.22045e-16
2.22045e-16
2.5016e-16
3.2371e-16
3.30089e-16
2.81833e-16
2.22045e-16
2.22045e-16
2.51395e-16
3.53473e-16
2.22045e-16
2.22045e-16
2.56393e-16
3.25105e-16
3.29253e-16
2.81583e-16
2.22045e-16
2.22045e-16
2.57891e-16
3.56958e-16
2.22045e-16
2.22045e-16
2.67646e-16
3.26855e-16
3.29844e-16
2.83324e-16
2.22045e-16
2.22045e-16
2.65206e-16
3.60005e-16
2.22045e-16
2.22045e-16
2.84224e-16
3.27097e-16
3.30519e-16
2.86901e-16
2.22045e-16
2.22045e-16
2.70279e-16
3.62847e-16
2.22045e-16
2.22045e-16
2.91614e-16
3.22242e-16
3.2717e-16
2.87366e-16
2.23521e-16
2.22045e-16
2.73951e-16
3.67154e-16
2.22045e-16
2.36836e-16
2.90405e-16
3.12828e-16
3.20291e-16
2.85108e-16
2.26071e-16
2.22045e-16
2.81522e-16
3.71006e-16
2.22045e-16
2.58903e-16
2.7909e-16
3.01026e-16
3.1577e-16
2.87098e-16
2.30785e-16
2.22045e-16
2.89017e-16
3.70101e-16
2.36246e-16
2.52258e-16
2.66742e-16
2.92664e-16
3.15112e-16
2.91924e-16
2.36742e-16
2.22045e-16
2.89231e-16
3.6613e-16
2.31726e-16
2.40573e-16
2.55142e-16
2.85304e-16
3.14868e-16
2.97255e-16
2.43426e-16
2.22045e-16
2.89253e-16
3.60478e-16
2.24081e-16
2.31314e-16
2.46005e-16
2.79722e-16
3.15666e-16
3.03205e-16
2.50306e-16
2.22045e-16
2.87729e-16
3.52653e-16
2.22045e-16
2.25803e-16
2.39516e-16
2.76355e-16
3.18124e-16
3.10154e-16
2.56799e-16
2.22045e-16
2.83763e-16
3.41717e-16
2.22045e-16
2.23824e-16
2.36016e-16
2.76431e-16
3.23581e-16
3.18317e-16
2.615e-16
2.22045e-16
2.77772e-16
3.30084e-16
2.22858e-16
2.24872e-16
2.36014e-16
2.81209e-16
3.33274e-16
3.27925e-16
2.63861e-16
2.22045e-16
2.73296e-16
3.22555e-16
2.26049e-16
2.27416e-16
2.3827e-16
2.9003e-16
3.46634e-16
3.38402e-16
2.64131e-16
2.22045e-16
2.74163e-16
3.20175e-16
2.25816e-16
2.2658e-16
2.37152e-16
2.95389e-16
3.54051e-16
3.41578e-16
2.55942e-16
2.22045e-16
2.73147e-16
3.22081e-16
2.22045e-16
2.22045e-16
2.22045e-16
2.2226e-16
2.22045e-16
2.22045e-16
2.22045e-16
2.22045e-16
2.23789e-16
2.25296e-16
2.22045e-16
2.22045e-16
2.22045e-16
2.22045e-16
2.22045e-16
2.22045e-16
2.22045e-16
2.22045e-16
2.22045e-16
2.23288e-16
2.22045e-16
2.22045e-16
2.22045e-16
2.22045e-16
2.22045e-16
2.22045e-16
2.22045e-16
2.22045e-16
2.22045e-16
2.22045e-16
2.22045e-16
2.22045e-16
2.22045e-16
2.22045e-16
2.22045e-16
2.22045e-16
2.22045e-16
2.22045e-16
2.22045e-16
2.22045e-16
2.22045e-16
2.22045e-16
2.22045e-16
2.22045e-16
2.22045e-16
2.22045e-16
2.22045e-16
2.22045e-16
2.22045e-16
2.22045e-16
2.22045e-16
2.22045e-16
2.22045e-16
2.22045e-16
2.22045e-16
2.22045e-16
2.22045e-16
2.22045e-16
2.22045e-16
2.22045e-16
2.22045e-16
2.22045e-16
2.22045e-16
2.22045e-16
2.22045e-16
2.22045e-16
2.22045e-16
2.22045e-16
2.22045e-16
2.22045e-16
2.22045e-16
2.22045e-16
2.22045e-16
2.22045e-16
2.22045e-16
2.22045e-16
2.22045e-16
2.22045e-16
2.22045e-16
2.22045e-16
2.22045e-16
2.22045e-16
2.22045e-16
2.22045e-16
2.22045e-16
2.22045e-16
2.22045e-16
2.22045e-16
2.22045e-16
2.22045e-16
2.22045e-16
2.22045e-16
2.22045e-16
2.22045e-16
2.22045e-16
2.22045e-16
2.22045e-16
2.22045e-16
2.22045e-16
2.22045e-16
)
;

boundaryField
{
    right
    {
        type            cyclic;
    }
    left
    {
        type            cyclic;
    }
    outerWall
    {
        type            kqRWallFunction;
        value           nonuniform List<scalar> 
22
(
3.34518e-16
3.34143e-16
3.36583e-16
3.39156e-16
3.42269e-16
3.45825e-16
3.4965e-16
3.53473e-16
3.56958e-16
3.60005e-16
3.62847e-16
3.67154e-16
3.71006e-16
3.70101e-16
3.6613e-16
3.60478e-16
3.52653e-16
3.41717e-16
3.30084e-16
3.22555e-16
3.20175e-16
3.22081e-16
)
;
    }
    stirrerWall
    {
        type            kqRWallFunction;
        value           uniform 2.22045e-16;
    }
    top
    {
        type            empty;
    }
    bottom
    {
        type            empty;
    }
}


// ************************************************************************* //
