/*--------------------------------*- C++ -*----------------------------------*\
  =========                 |
  \\      /  F ield         | OpenFOAM: The Open Source CFD Toolbox
   \\    /   O peration     | Website:  https://openfoam.org
    \\  /    A nd           | Version:  10
     \\/     M anipulation  |
\*---------------------------------------------------------------------------*/
FoamFile
{
    format      ascii;
    class       volScalarField;
    location    "2900";
    object      nut;
}
// * * * * * * * * * * * * * * * * * * * * * * * * * * * * * * * * * * * * * //

dimensions      [0 2 -1 0 0 0 0];

internalField   nonuniform List<scalar> 
420
(
1.04478e-20
5.64136e-20
1.47148e-19
2.72156e-19
4.13502e-19
5.50342e-19
6.61123e-19
7.13622e-19
6.75951e-19
5.76378e-19
1.04473e-20
5.78889e-20
1.5058e-19
2.73126e-19
4.10132e-19
5.43582e-19
6.48031e-19
6.81793e-19
6.19082e-19
5.11834e-19
1.04471e-20
6.00841e-20
1.5815e-19
2.82495e-19
4.17574e-19
5.47787e-19
6.41041e-19
6.47633e-19
5.57576e-19
4.48304e-19
1.04472e-20
6.22863e-20
1.68119e-19
2.97545e-19
4.31444e-19
5.54731e-19
6.28981e-19
6.01296e-19
4.88353e-19
3.89005e-19
1.04476e-20
6.42969e-20
1.76687e-19
3.07525e-19
4.32641e-19
5.39098e-19
5.91017e-19
5.35179e-19
4.22053e-19
3.29959e-19
1.04483e-20
6.38616e-20
1.7047e-19
2.84102e-19
3.81532e-19
4.6047e-19
4.96822e-19
4.52617e-19
3.53992e-19
2.69118e-19
1.04493e-20
6.07792e-20
1.38037e-19
2.03739e-19
2.60232e-19
3.11149e-19
3.47034e-19
3.39206e-19
2.7854e-19
2.05046e-19
1.04506e-20
4.78398e-20
7.97064e-20
1.03613e-19
1.27351e-19
1.52803e-19
1.78331e-19
1.94704e-19
1.85275e-19
1.37103e-19
1.04522e-20
2.14659e-20
2.79381e-20
3.45516e-20
4.18328e-20
4.99438e-20
5.8819e-20
6.76127e-20
7.34683e-20
6.7961e-20
2.82342e-21
3.6643e-21
4.61494e-21
5.67535e-21
6.84552e-21
8.12545e-21
9.51514e-21
1.10146e-20
1.26238e-20
1.43428e-20
4.86904e-19
4.48618e-19
5.50173e-19
8.76895e-19
1.20563e-18
9.70414e-19
6.06466e-19
4.45411e-19
2.41804e-19
8.62043e-20
4.3467e-19
4.15448e-19
5.38037e-19
9.02146e-19
1.22033e-18
1.01202e-18
6.41875e-19
4.28221e-19
2.30627e-19
8.79773e-20
3.85596e-19
3.82938e-19
5.24855e-19
9.20238e-19
1.22411e-18
1.00207e-18
6.52639e-19
4.12343e-19
2.23545e-19
8.79535e-20
3.36575e-19
3.47537e-19
5.09091e-19
9.35543e-19
1.2229e-18
1.0131e-18
6.46308e-19
4.02134e-19
2.17159e-19
8.76862e-20
2.84635e-19
3.08207e-19
4.90713e-19
8.97932e-19
1.13424e-18
1.02835e-18
6.4317e-19
3.95402e-19
2.14626e-19
8.74781e-20
2.29137e-19
2.65173e-19
4.70997e-19
8.49026e-19
1.06793e-18
1.0397e-18
6.43563e-19
3.92094e-19
2.15486e-19
8.73192e-20
1.71344e-19
2.20066e-19
4.52377e-19
8.77789e-19
1.06846e-18
1.03318e-18
6.47547e-19
3.91513e-19
2.18177e-19
8.71603e-20
1.15291e-19
1.75801e-19
4.38481e-19
9.25881e-19
1.09083e-18
1.03587e-18
6.55487e-19
3.93603e-19
2.22377e-19
8.69874e-20
6.671e-20
1.35606e-19
4.3589e-19
9.95205e-19
1.16333e-18
1.04457e-18
6.68224e-19
3.9855e-19
2.27341e-19
8.67679e-20
3.06222e-20
1.03021e-19
4.5906e-19
1.0113e-18
1.19904e-18
1.05936e-18
6.84491e-19
4.06582e-19
2.31481e-19
8.64446e-20
1.03958e-20
8.50321e-20
5.43367e-19
9.28166e-19
1.17357e-18
1.07376e-18
7.00625e-19
4.18293e-19
2.34241e-19
8.65565e-20
1.03958e-20
1.08592e-19
6.07464e-19
7.61952e-19
9.07457e-19
9.68035e-19
7.13835e-19
4.43591e-19
2.48327e-19
8.72799e-20
6.76791e-20
3.18877e-19
6.23407e-19
7.76911e-19
9.46311e-19
1.04879e-18
7.28251e-19
4.67844e-19
2.58776e-19
8.7308e-20
2.95015e-19
5.59691e-19
6.84243e-19
8.63069e-19
1.11296e-18
1.08222e-18
7.55558e-19
4.74029e-19
2.36664e-19
8.59927e-20
5.70359e-19
6.16856e-19
6.96526e-19
8.70711e-19
1.09672e-18
1.09665e-18
7.83098e-19
4.91007e-19
2.41345e-19
8.49071e-20
6.59951e-19
6.57883e-19
7.04318e-19
8.62155e-19
1.07565e-18
1.10783e-18
8.07242e-19
5.09182e-19
2.4154e-19
8.35222e-20
7.26087e-19
6.91783e-19
6.92265e-19
8.21633e-19
1.05751e-18
1.11696e-18
8.25516e-19
5.17818e-19
2.37528e-19
8.14002e-20
7.31354e-19
6.58299e-19
6.48416e-19
7.87425e-19
1.04619e-18
1.1282e-18
7.62725e-19
5.21757e-19
2.37017e-19
7.9335e-20
7.01684e-19
6.19551e-19
6.09453e-19
7.64133e-19
1.04803e-18
1.14361e-18
7.03895e-19
5.19031e-19
2.49474e-19
7.87085e-20
6.58947e-19
5.80121e-19
5.77656e-19
7.56991e-19
1.07007e-18
1.16606e-18
7.08544e-19
5.08386e-19
2.87534e-19
7.99091e-20
6.12202e-19
5.39024e-19
5.52454e-19
7.6843e-19
1.11692e-18
1.07527e-18
5.81579e-19
4.90267e-19
2.79967e-19
8.48683e-20
5.54037e-19
4.92088e-19
5.27891e-19
7.89486e-19
1.17241e-18
9.09021e-19
5.1307e-19
4.65481e-19
2.84273e-19
8.66068e-20
1.43428e-20
1.15242e-19
4.15642e-19
6.91174e-19
7.92259e-19
8.09696e-19
7.94143e-19
7.57407e-19
7.11401e-19
6.56682e-19
1.26238e-20
8.45024e-20
2.9119e-19
5.74796e-19
7.57461e-19
8.23441e-19
8.30039e-19
8.10824e-19
7.76694e-19
7.24535e-19
1.10146e-20
6.29741e-20
1.91453e-19
4.05788e-19
6.04377e-19
7.24286e-19
7.66719e-19
7.74347e-19
7.62912e-19
7.45076e-19
9.51514e-21
5.02385e-20
1.33569e-19
2.6096e-19
4.07193e-19
5.37049e-19
6.25566e-19
6.67671e-19
6.76407e-19
6.73571e-19
8.12545e-21
4.28955e-20
1.06891e-19
1.94314e-19
2.95021e-19
3.94116e-19
4.80773e-19
5.35662e-19
5.55712e-19
5.56706e-19
6.84552e-21
3.72507e-20
9.23757e-20
1.62052e-19
2.38082e-19
3.12086e-19
3.75531e-19
4.14137e-19
4.24782e-19
4.20416e-19
5.67535e-21
3.19608e-20
8.15732e-20
1.41522e-19
2.0077e-19
2.51099e-19
2.84894e-19
2.95529e-19
2.89654e-19
2.791e-19
4.61494e-21
2.65397e-20
6.87779e-20
1.14028e-19
1.47733e-19
1.66198e-19
1.70496e-19
1.65461e-19
1.57567e-19
1.50728e-19
3.6643e-21
2.06646e-20
4.42802e-20
5.75391e-20
6.23822e-20
6.29521e-20
6.17983e-20
6.0548e-20
5.92791e-20
5.79482e-20
2.82342e-21
1.04522e-20
1.04506e-20
1.04493e-20
1.04483e-20
1.04476e-20
1.04472e-20
1.04471e-20
1.04473e-20
1.04478e-20
)
;

boundaryField
{
    right
    {
        type            cyclic;
    }
    left
    {
        type            cyclic;
    }
    outerWall
    {
        type            nutkWallFunction;
        Cmu             0.09;
        kappa           0.41;
        E               9.8;
        value           uniform 0;
    }
    stirrerWall
    {
        type            nutkWallFunction;
        Cmu             0.09;
        kappa           0.41;
        E               9.8;
        value           uniform 0;
    }
    top
    {
        type            empty;
    }
    bottom
    {
        type            empty;
    }
}


// ************************************************************************* //
