/*--------------------------------*- C++ -*----------------------------------*\
  =========                 |
  \\      /  F ield         | OpenFOAM: The Open Source CFD Toolbox
   \\    /   O peration     | Website:  https://openfoam.org
    \\  /    A nd           | Version:  10
     \\/     M anipulation  |
\*---------------------------------------------------------------------------*/
FoamFile
{
    format      ascii;
    class       volScalarField;
    location    "2900";
    object      omega;
}
// * * * * * * * * * * * * * * * * * * * * * * * * * * * * * * * * * * * * * //

dimensions      [0 0 -1 0 0 0 0];

internalField   nonuniform List<scalar> 
420
(
21252.7
3936.01
1508.99
815.873
536.986
403.466
335.86
311.151
328.492
385.242
21253.7
3835.7
1474.59
812.976
541.398
408.484
342.645
325.677
358.667
433.822
21254.2
3695.56
1404.01
786.013
531.749
405.348
346.382
342.855
398.232
495.3
21254
3564.9
1320.76
746.255
514.654
400.275
353.023
369.277
454.681
570.801
21253.2
3453.43
1256.71
722.037
513.231
411.882
375.699
414.898
526.106
672.946
21251.7
3476.97
1302.55
781.566
581.981
482.213
446.93
490.58
627.26
825.084
21249.7
3653.3
1608.59
1089.85
853.255
713.627
639.836
654.601
797.173
1082.9
21247.1
4641.42
2785.78
2143.01
1743.56
1453.14
1245.13
1140.42
1198.46
1619.54
21243.8
10344
7947.74
6426.47
5307.91
4445.89
3775.05
3284.07
3022.32
3267.23
78643.9
60596.7
48114.3
39124.4
32436.5
27327.1
23335.9
20159.1
17589.3
15481.3
456.034
494.952
452.022
358.613
289.695
276.807
330.655
498.517
976.154
3581.27
510.835
534.47
461.093
351.94
284.732
276.457
335.378
518.529
1004.11
3581.17
575.848
579.844
472.115
347.266
281.764
276.894
340.226
538.495
1038.56
3581.13
659.719
638.909
485.286
342.837
279.183
276.967
343.559
552.166
1078.79
3581.18
780.103
720.44
501.828
338.942
277.072
276.579
345.235
561.567
1105.86
3581.3
969.048
837.357
522.336
335.634
275.444
275.668
345.024
566.305
1119.43
3581.49
1295.9
1008.99
546.211
332.725
274.296
274.151
342.901
567.145
1126.9
3581.76
1925.95
1263.04
570.514
329.802
273.639
272.074
338.747
564.134
1130.49
3582.1
3328.51
1637.43
588.207
326.672
273.702
269.568
332.291
557.131
1134.38
3582.51
7251.09
2155.33
583.03
323.204
275.089
267.447
324.394
546.126
1145.69
3582.99
21359.1
2611.3
523.08
318.978
278.251
267.192
316.923
530.835
1153.85
3575.63
21359.1
2044.76
445.899
316.279
280.099
267.336
313.127
500.561
1103.19
3575.63
3280.85
742.719
367.591
313.422
280.458
266.582
310.429
474.612
1052.36
3582.99
752.656
396.524
338.501
315.517
282.625
265.286
305.45
468.419
1050.96
3582.51
372.129
335.406
338.037
322.443
287.322
266.195
302.315
452.222
1017.63
3582.1
308.782
327.326
345
330.92
292.724
268.322
301.552
436.081
970.436
3581.76
299.366
331.824
355.363
340.446
298.5
271.455
303.211
428.809
925.64
3581.49
303.608
343.009
369.386
350.96
304.079
274.91
306.244
425.571
894.621
3581.3
316.445
361.269
387.258
361.758
308.751
278.343
310.47
427.806
873.71
3581.18
338.203
387.63
408.572
371.483
311.451
281.224
315.985
436.764
867.956
3581.13
369.239
421.903
431.293
377.431
310.349
282.818
323.226
452.906
889.304
3581.17
407.582
460.446
449.245
374.153
301.984
280.649
328.965
477.022
935.187
3581.27
15481.3
1926.76
534.221
321.568
280.268
274.232
279.603
293.164
314.574
343.083
17589.3
2627.67
762.541
386.302
293.143
269.655
267.511
273.85
285.884
302.248
20159.1
3525.96
1159.78
547.194
367.394
306.57
289.603
286.751
291.049
298.016
23335.9
4419.81
1662.4
850.876
545.306
413.453
354.95
332.566
328.271
329.653
27327.1
5176.41
2077.3
1142.71
752.64
563.398
461.849
414.523
399.568
398.854
32436.5
5960.82
2403.71
1370.2
932.639
711.485
591.282
536.162
522.726
528.155
39124.4
6947.4
2722.03
1568.97
1105.97
884.293
779.393
751.346
766.586
795.573
48114.3
8366.52
3228.43
1947.28
1503.01
1336.02
1302.35
1341.98
1409.21
1473.15
60596.7
10745.2
5014.53
3859.02
3559.42
3527.2
3593.06
3667.25
3745.75
3831.77
78643.9
21243.8
21247.1
21249.7
21251.7
21253.2
21254
21254.2
21253.7
21252.7
)
;

boundaryField
{
    right
    {
        type            cyclic;
    }
    left
    {
        type            cyclic;
    }
    outerWall
    {
        beta1           0.075;
        blended         0;
        type            omegaWallFunction;
        value           nonuniform List<scalar> 
22
(
3581.27
3581.17
3581.13
3581.18
3581.3
3581.49
3581.76
3582.1
3582.51
3582.99
3575.63
3575.63
3582.99
3582.51
3582.1
3581.76
3581.49
3581.3
3581.18
3581.13
3581.17
3581.27
)
;
    }
    stirrerWall
    {
        beta1           0.075;
        blended         0;
        type            omegaWallFunction;
        value           nonuniform List<scalar> 
42
(
21252.7
21253.7
21254.2
21254
21253.2
21251.7
21249.7
21247.1
21243.8
78643.9
78643.9
60596.7
48114.3
39124.4
32436.5
27327.1
23335.9
20159.1
17589.3
15481.3
21359.1
21359.1
15481.3
17589.3
20159.1
23335.9
27327.1
32436.5
39124.4
48114.3
60596.7
78643.9
78643.9
21243.8
21247.1
21249.7
21251.7
21253.2
21254
21254.2
21253.7
21252.7
)
;
    }
    top
    {
        type            empty;
    }
    bottom
    {
        type            empty;
    }
}


// ************************************************************************* //
