/*--------------------------------*- C++ -*----------------------------------*\
  =========                 |
  \\      /  F ield         | OpenFOAM: The Open Source CFD Toolbox
   \\    /   O peration     | Website:  https://openfoam.org
    \\  /    A nd           | Version:  10
     \\/     M anipulation  |
\*---------------------------------------------------------------------------*/
FoamFile
{
    format      ascii;
    class       volScalarField;
    location    "2900";
    object      p;
}
// * * * * * * * * * * * * * * * * * * * * * * * * * * * * * * * * * * * * * //

dimensions      [0 2 -2 0 0 0 0];

internalField   nonuniform List<scalar> 
420
(
-0.23801
15.3738
32.1226
51.1416
71.5283
92.677
114.211
135.624
156.491
176.389
-0.687466
14.939
31.4278
50.171
70.3462
91.3979
112.969
134.553
155.669
175.876
-0.995301
14.5258
30.7141
49.1136
69.0123
89.9366
111.549
133.319
154.719
175.275
-1.1442
14.1876
30.0406
48.0456
67.6126
88.3511
109.963
131.929
153.663
174.611
-1.14194
13.9725
29.466
47.0322
66.2091
86.6986
108.262
130.418
152.524
173.901
-1.06561
13.8965
29.0431
46.1469
64.8852
85.0639
106.511
128.824
151.319
173.187
-0.965818
13.9643
28.815
45.4579
63.7248
83.5232
104.758
127.153
150.065
172.559
-0.866144
14.1769
28.8055
45.0109
62.8
82.1549
103.05
125.346
148.597
171.84
-0.832139
14.5344
29.008
44.8197
62.1683
81.0472
101.45
123.316
146.405
169.915
-0.925297
14.9776
29.2119
44.7273
61.7862
80.3235
100.278
121.504
143.635
166.147
194.892
212.303
228.511
243.163
256.347
268.487
279.787
296.026
289.802
360.064
194.684
212.322
228.625
243.295
256.5
268.743
280.273
296.38
289.749
353.609
194.411
212.256
228.617
243.318
256.589
268.989
280.66
296.316
290.355
350.404
194.07
212.071
228.434
243.168
256.533
269.101
280.884
296.25
291.238
348.304
193.684
211.79
228.113
242.896
256.358
269.087
281.034
296.211
291.321
346.172
193.34
211.478
227.735
242.587
256.113
268.986
281.158
295.997
290.536
344.085
193.201
211.195
227.292
242.244
255.831
268.827
281.198
295.443
288.998
341.695
193.255
210.889
226.679
241.809
255.523
268.623
281.098
294.703
287.534
339.225
192.774
210.748
226.224
241.449
255.275
268.407
280.935
294.353
287.362
336.724
191.231
211.48
226.636
241.47
255.132
268.134
280.677
294.209
286.139
335.674
191.163
212.146
227.302
241.673
254.783
267.343
279.673
294.338
275.346
338.465
192.338
212.235
227.605
241.547
254.175
266.226
277.964
291.407
269.005
336.865
196.957
212.843
227.94
241.682
253.988
265.452
276.283
285.806
270.893
330.98
196.43
212.536
227.713
241.521
253.7
264.756
274.917
283.013
270.251
325.562
195.265
211.888
227.325
241.3
253.51
264.374
274.369
282.285
269.25
323.366
194.547
211.372
227.045
241.243
253.612
264.489
274.57
282.52
269.611
324.535
194.315
211.203
227.037
241.462
254.09
265.239
275.835
284.472
272.44
328.315
194.397
211.32
227.26
241.872
254.801
266.472
277.984
287.99
278.076
337.208
194.619
211.573
227.574
242.302
255.488
267.701
280.023
291.723
286.565
355.317
194.827
211.804
227.832
242.595
255.916
268.332
280.582
293.256
294.086
379.643
194.917
211.938
227.981
242.71
255.995
268.163
279.664
293.009
294.501
390.423
194.945
212.108
228.192
242.817
255.942
267.9
278.994
294.465
292.353
372.628
180.764
178.279
176.919
176.383
176.303
176.456
176.683
176.856
176.872
176.731
154.77
155.446
155.987
156.388
156.771
157.131
157.397
157.504
157.392
157.069
127.437
130.733
133.35
134.984
136.036
136.714
137.078
137.14
136.905
136.406
102.809
106.591
110.264
112.816
114.494
115.517
116.022
116.085
115.771
115.147
81.129
84.2424
87.82
90.6925
92.6987
93.9567
94.5894
94.688
94.3486
93.6677
61.8676
64.0569
66.8644
69.4033
71.3367
72.6123
73.2856
73.4216
73.1142
72.4669
44.7303
46.0636
47.849
49.6379
51.1037
52.1128
52.6559
52.7627
52.4948
51.9414
29.5274
30.148
30.9496
31.8104
32.5718
33.1184
33.393
33.3888
33.141
32.7142
16.187
16.1201
16.1155
16.1987
16.3178
16.3946
16.3781
16.2552
16.0442
15.7622
3.86846
2.7525
1.81249
1.24744
0.901429
0.639917
0.389828
0.146466
-0.0254502
-0.161928
)
;

boundaryField
{
    right
    {
        type            cyclic;
    }
    left
    {
        type            cyclic;
    }
    outerWall
    {
        type            zeroGradient;
    }
    stirrerWall
    {
        type            zeroGradient;
    }
    top
    {
        type            empty;
    }
    bottom
    {
        type            empty;
    }
}


// ************************************************************************* //
