/*--------------------------------*- C++ -*----------------------------------*\
  =========                 |
  \\      /  F ield         | OpenFOAM: The Open Source CFD Toolbox
   \\    /   O peration     | Website:  https://openfoam.org
    \\  /    A nd           | Version:  10
     \\/     M anipulation  |
\*---------------------------------------------------------------------------*/
FoamFile
{
    format      ascii;
    class       surfaceScalarField;
    location    "2900";
    object      phi;
}
// * * * * * * * * * * * * * * * * * * * * * * * * * * * * * * * * * * * * * //

dimensions      [0 3 -1 0 0 0 0];

internalField   nonuniform List<scalar> 
788
(
2.19941e-06
-5.22437e-06
3.74757e-06
3.97051e-06
5.69245e-06
1.0676e-05
7.74959e-06
1.15438e-05
9.58142e-06
8.42211e-06
1.08204e-05
2.18585e-06
1.1053e-05
-6.57643e-06
1.04122e-05
-1.61457e-05
9.17594e-06
-2.64453e-05
-3.86363e-05
7.59568e-06
1.626e-06
-6.83512e-06
3.23134e-06
2.4032e-06
5.26627e-06
8.6878e-06
7.2071e-06
9.63134e-06
8.67656e-06
6.97019e-06
9.319e-06
1.55502e-06
8.70867e-06
-5.93257e-06
7.03725e-06
-1.43998e-05
4.58824e-06
-2.38575e-05
-3.5959e-05
2.09719e-06
1.01441e-06
-7.82786e-06
2.43091e-06
1.0238e-06
4.53464e-06
6.61949e-06
6.43509e-06
7.74843e-06
7.62177e-06
5.78649e-06
7.67596e-06
1.48712e-06
6.20302e-06
-4.46518e-06
3.41494e-06
-1.15841e-05
-6.60941e-08
-2.02843e-05
-3.28546e-05
-3.01692e-06
5.23645e-07
-8.33608e-06
1.47925e-06
9.04186e-08
3.36266e-06
4.75514e-06
5.07204e-06
6.0397e-06
5.92886e-06
4.90791e-06
5.43011e-06
1.93396e-06
3.26841e-06
-2.36744e-06
-3.06065e-07
-8.05257e-06
-4.40785e-06
-1.61677e-05
-2.97321e-05
-7.45943e-06
-5.57664e-09
-8.32085e-06
4.04337e-07
-3.13401e-07
1.89258e-06
3.26439e-06
3.30613e-06
4.59434e-06
3.86205e-06
4.27779e-06
3.00348e-06
2.66929e-06
4.8279e-07
2.04361e-09
-3.45556e-06
-4.24738e-06
-7.79466e-06
-1.19012e-05
-2.67628e-05
-1.07765e-05
-6.09034e-07
-7.70792e-06
-7.1089e-07
-2.24279e-07
3.46465e-07
2.17463e-06
1.46393e-06
3.39741e-06
1.8647e-06
3.73194e-06
9.74318e-07
3.35095e-06
-1.46923e-06
2.20394e-06
-5.30202e-06
-6.29275e-07
-9.55419e-06
-7.79142e-06
-2.37806e-05
-1.2607e-05
-1.23266e-06
-6.47801e-06
-1.72509e-06
2.34733e-07
-1.05963e-06
1.44144e-06
-1.60654e-07
2.36247e-06
3.22554e-07
3.02754e-06
-1.38845e-07
3.52311e-06
-1.95359e-06
3.70594e-06
-5.16989e-06
2.318e-06
-9.38942e-06
-3.7509e-06
-2.01892e-05
-1.30713e-05
-1.85054e-06
-4.63634e-06
-2.49618e-06
8.2805e-07
-2.04712e-06
8.88535e-07
-1.25295e-06
1.37459e-06
-4.61559e-07
1.94287e-06
5.61396e-09
2.69685e-06
-3.00594e-07
3.64564e-06
-2.03877e-06
3.74649e-06
-6.24817e-06
2.53231e-07
-1.49162e-05
-1.16311e-05
-2.35061e-06
-2.29931e-06
-2.56737e-06
9.80724e-07
-2.2019e-06
3.92694e-07
-1.51216e-06
4.64283e-07
-4.65331e-07
5.96179e-07
1.06136e-06
8.32196e-07
3.09041e-06
1.29324e-06
4.739e-06
1.83999e-06
2.673e-06
2.16369e-06
-5.57901e-06
-6.72638e-06
-2.31281e-06
-1.38115e-06
-1.07314e-06
-7.30411e-07
-2.78746e-07
4.13375e-07
1.59765e-06
3.36898e-06
5.49765e-06
-1.05821e-07
6.07443e-06
-5.53549e-05
4.95486e-06
-8.62004e-05
4.47879e-06
-0.000132071
3.99405e-06
-0.00019237
3.35793e-06
-0.000263621
2.96929e-06
-0.000345855
4.2186e-06
-0.000455668
1.05211e-05
-0.000597269
1.10226e-05
-0.00055837
-0.00126273
4.14445e-07
-5.34779e-05
-7.76112e-08
-8.56045e-05
2.70258e-07
-0.000132536
3.83396e-07
-0.000192847
3.17873e-07
-0.000263969
6.56662e-07
-0.000346379
6.28184e-07
-0.000455666
-5.17992e-07
-0.000596051
5.80721e-06
-0.000564801
-0.00125698
-4.51567e-06
-5.18161e-05
-4.43949e-06
-8.5604e-05
-3.71909e-06
-0.000133364
-3.57739e-06
-0.000193233
-3.66296e-06
-0.000263984
-3.56397e-06
-0.000346394
-4.5398e-06
-0.000454798
-1.00879e-05
-0.000590671
-1.83716e-07
-0.000575005
-0.00125703
-8.56512e-06
-5.06304e-05
-7.93127e-06
-8.62357e-05
-7.06663e-06
-0.000134391
-7.05622e-06
-0.000193502
-7.24917e-06
-0.000263801
-7.41298e-06
-0.000346093
-8.79717e-06
-0.000453642
-1.53396e-05
-0.000583938
-5.08808e-06
-0.000585443
-0.00126199
-1.14825e-05
-4.99169e-05
-1.04466e-05
-8.73212e-05
-9.67743e-06
-0.000135338
-9.91475e-06
-0.000193497
-1.03344e-05
-0.000263357
-1.07948e-05
-0.000345472
-1.25685e-05
-0.000452079
-1.99453e-05
-0.000576324
-9.40867e-06
-0.00059616
-0.0012713
-1.31187e-05
-4.94436e-05
-1.19694e-05
-8.85498e-05
-1.15406e-05
-0.000135941
-1.21334e-05
-0.000193096
-1.28842e-05
-0.000262593
-1.36696e-05
-0.000344624
-1.56111e-05
-0.000450335
-2.29181e-05
-0.000568842
-1.11426e-05
-0.000608168
-0.00128237
-1.3349e-05
-4.92243e-05
-1.24221e-05
-8.95695e-05
-1.25631e-05
-0.000135963
-1.35944e-05
-0.000192203
-1.47054e-05
-0.000261456
-1.57695e-05
-0.000343598
-1.81045e-05
-0.000448207
-2.49728e-05
-0.000561842
-1.18022e-05
-0.000621601
-0.0012941
-1.19891e-05
-4.89467e-05
-1.17639e-05
-8.98922e-05
-1.26962e-05
-0.000135159
-1.42525e-05
-0.000190711
-1.58655e-05
-0.000259766
-1.75385e-05
-0.000342006
-2.06309e-05
-0.000445326
-2.63659e-05
-0.000555968
-1.10727e-05
-0.000637124
-0.00130517
-8.17895e-06
-4.75466e-05
-9.12426e-06
-8.90532e-05
-1.09963e-05
-0.000133405
-1.31631e-05
-0.000188569
-1.53594e-05
-0.000257458
-1.76378e-05
-0.000339814
-2.09543e-05
-0.000442213
-2.66135e-05
-0.000550136
-8.15729e-06
-0.000655632
-0.0013134
2.33645e-07
-4.795e-05
-3.17989e-06
-8.57521e-05
-6.35972e-06
-0.000130391
-8.70487e-06
-0.000186296
-1.09625e-05
-0.000255096
-1.39475e-05
-0.00033678
-1.86859e-05
-0.000437484
-2.43895e-05
-0.000544485
-6.86542e-06
-0.000673289
-0.00132006
6.80882e-07
-4.87017e-05
-1.44156e-06
-8.37704e-05
-2.90146e-06
-0.000129081
-3.39851e-06
-0.000185779
-3.28227e-06
-0.000255022
-3.12312e-06
-0.000336959
-6.01822e-06
-0.000434679
-2.29542e-05
-0.000527565
-1.96376e-05
-0.000676718
-0.00133964
1.44876e-06
-5.01983e-05
2.62117e-07
-8.27035e-05
-8.28481e-07
-0.000128093
-1.08477e-06
-0.000185453
-8.21628e-07
-0.000255072
-4.18813e-07
-0.000337482
-2.73849e-06
-0.000432481
-1.64945e-05
-0.000513599
-1.84046e-05
-0.000674779
-0.00135811
-5.4266e-06
-4.43525e-05
-4.8073e-07
-6.94834e-06
-8.1011e-05
-8.82258e-06
-0.000126377
-1.058e-05
-0.000183718
-1.21903e-05
-0.000253285
-1.36696e-05
-0.000336008
-1.44615e-05
-0.000431658
-5.42226e-06
-0.000522581
-3.61303e-06
-0.000676622
-0.00136155
-6.90644e-06
-4.71026e-05
9.79913e-06
-6.26294e-06
-8.15805e-05
-6.6113e-06
-0.000126256
-7.20797e-06
-0.0001831
-7.90762e-06
-0.000252311
-8.53803e-06
-0.000335388
-9.31701e-06
-0.000430917
-1.155e-05
-0.000520329
-8.50447e-06
-0.000679682
-0.00136992
-4.87803e-06
-5.04715e-05
8.37161e-06
-3.39038e-06
-8.30943e-05
-3.00377e-06
-0.000126866
-2.93054e-06
-0.000183147
-3.08707e-06
-0.000251887
-3.5444e-06
-0.000334965
-4.33535e-06
-0.000430157
-8.43267e-06
-0.000515943
-1.02886e-05
-0.000677846
-0.00138012
-7.8855e-07
-5.32096e-05
3.56606e-06
5.90925e-07
-8.45379e-05
1.12345e-06
-0.000127623
1.52439e-06
-0.000183502
1.82754e-06
-0.000251877
1.75247e-06
-0.000334886
2.23716e-06
-0.00043076
-1.62954e-07
-0.000513298
-6.37854e-06
-0.000671669
-0.00138641
4.72142e-06
-5.52529e-05
-2.65705e-06
5.72015e-06
-8.55944e-05
6.22014e-06
-0.000128343
6.90614e-06
-0.000184139
7.67679e-06
-0.000252358
8.03021e-06
-0.000335273
9.95117e-06
-0.000432825
9.80107e-06
-0.000512914
-1.44501e-06
-0.000660473
-0.00138777
1.07242e-05
-5.65707e-05
-9.38249e-06
1.13274e-05
-8.62524e-05
1.17641e-05
-0.000128984
1.27457e-05
-0.000185038
1.40055e-05
-0.000253307
1.47689e-05
-0.000336086
1.80431e-05
-0.000436263
2.29778e-05
-0.000517611
4.87456e-06
-0.000642442
-0.00138282
1.60976e-05
-5.7347e-05
-1.53021e-05
1.6682e-05
-8.68812e-05
1.73754e-05
-0.000129863
1.89634e-05
-0.000186508
2.10853e-05
-0.000255089
2.2597e-05
-0.000337658
2.65315e-05
-0.000440393
3.58962e-05
-0.000526767
1.20356e-05
-0.000618741
-0.00137069
1.96173e-05
-5.79945e-05
-1.89505e-05
2.06724e-05
-8.79726e-05
2.21185e-05
-0.000131452
2.48577e-05
-0.000189081
2.84254e-05
-0.000258303
3.12659e-05
-0.000340622
3.52701e-05
-0.00044466
4.81918e-05
-0.000539482
2.374e-05
-0.000594516
-0.00134683
2.03501e-05
-5.86204e-05
-1.96928e-05
2.1455e-05
-8.90741e-05
2.32836e-05
-0.000133322
2.67167e-05
-0.000192252
3.14416e-05
-0.0002627
3.61503e-05
-0.000345727
4.28986e-05
-0.000451957
7.07282e-05
-0.00056658
5.31216e-05
-0.000576134
-0.00129419
1.36357e-05
-1.45147e-05
1.25217e-05
1.16997e-05
1.15764e-05
1.19651e-05
1.13696e-05
1.39233e-05
3.92345e-05
2.05408e-05
-1.55641e-05
1.51508e-05
-2.41321e-05
1.84759e-05
-2.92498e-05
1.36155e-05
-3.28013e-05
7.15842e-06
-3.55178e-05
7.86911e-08
-3.75663e-05
-7.31415e-06
-3.91133e-05
-1.37188e-05
-4.0341e-05
-1.7638e-05
-4.13419e-05
-1.85322e-05
-1.47872e-05
-2.95229e-06
1.82069e-05
-7.72616e-06
2.35025e-05
-1.23189e-05
1.84295e-05
-1.59162e-05
1.09255e-05
-1.88945e-05
3.23938e-06
-2.15546e-05
-4.44201e-06
-2.39833e-05
-1.1061e-05
-2.60758e-05
-1.53456e-05
-2.77764e-05
-1.66859e-05
-1.44787e-05
2.53114e-06
1.57798e-05
2.63171e-06
2.35607e-05
4.64264e-07
2.06979e-05
-2.28129e-06
1.37728e-05
-5.06877e-06
6.15555e-06
-8.06342e-06
-1.2951e-06
-1.11929e-05
-7.78295e-06
-1.40156e-05
-1.2421e-05
-1.61978e-05
-1.44532e-05
-1.36966e-05
4.51057e-06
1.13076e-05
8.45521e-06
1.96394e-05
9.45992e-06
1.9677e-05
8.73101e-06
1.45172e-05
7.02199e-06
7.90483e-06
4.50212e-06
1.28126e-06
1.34607e-06
-4.57546e-06
-1.97936e-06
-9.06636e-06
-4.79285e-06
-1.16331e-05
-1.20545e-05
4.18324e-06
7.11283e-06
1.00449e-05
1.37284e-05
1.38042e-05
1.58523e-05
1.52549e-05
1.30366e-05
1.50162e-05
8.1286e-06
1.35295e-05
2.76269e-06
1.11527e-05
-2.20067e-06
8.30155e-06
-6.20969e-06
5.5276e-06
-8.851e-06
-9.8684e-06
3.22828e-06
3.85613e-06
8.95535e-06
7.94161e-06
1.40822e-05
1.06769e-05
1.73436e-05
9.75038e-06
1.86884e-05
6.76621e-06
1.84436e-05
2.99529e-06
1.70102e-05
-7.73518e-07
1.48152e-05
-4.00433e-06
1.23686e-05
-6.37941e-06
-7.59231e-06
2.23667e-06
1.59728e-06
6.78531e-06
3.35783e-06
1.18874e-05
5.57327e-06
1.59153e-05
5.72296e-06
1.8335e-05
4.34847e-06
1.91946e-05
2.14124e-06
1.87764e-05
-3.43208e-07
1.74139e-05
-2.61534e-06
1.54726e-05
-4.39625e-06
-5.43951e-06
1.56758e-06
2.23982e-08
4.6791e-06
2.48185e-07
8.73037e-06
1.566e-06
1.2403e-05
2.07943e-06
1.50396e-05
1.73913e-06
1.64051e-05
8.05351e-07
1.65336e-05
-4.37045e-07
1.56743e-05
-1.7138e-06
1.41578e-05
-2.82914e-06
-3.51985e-06
9.22675e-07
-8.95822e-07
2.49328e-06
-1.28725e-06
4.8831e-06
-7.6193e-07
7.22311e-06
-2.14098e-07
9.00534e-06
-3.88199e-10
9.93862e-06
-8.46235e-08
9.88807e-06
-3.39557e-07
8.89594e-06
-6.69341e-07
7.16673e-06
-1.03703e-06
-1.44105e-06
-8.8769e-07
-2.14459e-06
-2.88455e-06
-3.07924e-06
-3.06095e-06
-3.12678e-06
-3.4475e-06
-4.10088e-06
-5.13042e-06
)
;

boundaryField
{
    right
    {
        type            cyclic;
        value           nonuniform List<scalar> 
20
(
0.00127397
0.000556847
0.000591844
0.000455239
0.000346376
0.000263924
0.000192543
0.000132587
8.76792e-05
5.72922e-05
4.0527e-05
2.78045e-05
1.68182e-05
6.37698e-06
-3.34335e-06
-1.0128e-05
-1.34576e-05
-1.24454e-05
-5.44229e-06
6.6317e-06
)
;
    }
    left
    {
        type            cyclic;
        value           nonuniform List<scalar> 
20
(
-0.00127397
-0.000556847
-0.000591844
-0.000455239
-0.000346376
-0.000263924
-0.000192543
-0.000132587
-8.76792e-05
-5.72922e-05
-4.0527e-05
-2.78045e-05
-1.68182e-05
-6.37698e-06
3.34335e-06
1.0128e-05
1.34576e-05
1.24454e-05
5.44229e-06
-6.6317e-06
)
;
    }
    outerWall
    {
        type            calculated;
        value           uniform 0;
    }
    stirrerWall
    {
        type            calculated;
        value           uniform 0;
    }
    top
    {
        type            empty;
        value           nonuniform List<scalar> 0();
    }
    bottom
    {
        type            empty;
        value           nonuniform List<scalar> 0();
    }
}


// ************************************************************************* //
