/*--------------------------------*- C++ -*----------------------------------*\
  =========                 |
  \\      /  F ield         | OpenFOAM: The Open Source CFD Toolbox
   \\    /   O peration     | Website:  https://openfoam.org
    \\  /    A nd           | Version:  10
     \\/     M anipulation  |
\*---------------------------------------------------------------------------*/
FoamFile
{
    format      ascii;
    class       volVectorField;
    location    "2900";
    object      U;
}
// * * * * * * * * * * * * * * * * * * * * * * * * * * * * * * * * * * * * * //

dimensions      [0 1 -1 0 0 0 0];

internalField   nonuniform List<vector> 
420
(
(0.68877 8.54554 7.77879e-18)
(-0.0425367 10.6331 -4.96265e-17)
(0.128262 12.4977 -2.31085e-16)
(0.256731 13.8422 6.3332e-17)
(0.351414 14.8318 -4.35092e-16)
(0.408823 15.5427 0)
(0.386591 16.0194 0)
(0.245331 16.4258 3.7197e-16)
(0.107128 16.7649 -4.04158e-16)
(-0.0391264 16.9706 0)
(0.0153371 8.56007 2.70925e-17)
(-0.929979 10.4927 -1.21278e-16)
(-0.832217 12.3172 7.16382e-16)
(-0.795942 13.6594 -1.01437e-15)
(-0.796396 14.6756 3.23253e-16)
(-0.840779 15.4361 5.36328e-18)
(-0.964084 15.9872 2.61736e-15)
(-1.21698 16.4474 -5.66347e-16)
(-1.45155 16.8516 8.58574e-16)
(-1.67015 17.0874 0)
(-0.692484 8.42547 6.96196e-17)
(-1.80476 10.2527 -6.09693e-16)
(-1.79488 12.0269 7.24228e-16)
(-1.84484 13.3764 1.16592e-15)
(-1.93918 14.4314 -7.87484e-16)
(-2.08983 15.2565 3.65917e-15)
(-2.3348 15.9101 1.55164e-15)
(-2.71055 16.4551 3.3973e-15)
(-3.05249 16.9079 -1.41672e-15)
(-3.31351 17.1097 -3.23297e-15)
(-1.37303 8.26522 -1.22006e-17)
(-2.64719 9.9637 5.61502e-16)
(-2.76302 11.6657 -9.41792e-16)
(-2.92175 13.0198 8.08659e-16)
(-3.12468 14.1237 -1.61163e-15)
(-3.39394 15.0298 1.603e-15)
(-3.76274 15.7863 -9.33944e-15)
(-4.245 16.4092 0)
(-4.66781 16.8817 -3.37038e-15)
(-4.93608 16.9994 3.24327e-15)
(-2.03276 8.09375 0)
(-3.47652 9.64172 4.24328e-16)
(-3.72426 11.2419 -3.95099e-16)
(-4.00614 12.5824 0)
(-4.32636 13.7312 -2.39447e-16)
(-4.71654 14.7203 -3.06048e-16)
(-5.19593 15.5773 3.34053e-15)
(-5.76609 16.276 -3.48752e-15)
(-6.23977 16.7531 0)
(-6.48442 16.754 -1.44094e-14)
(-2.6819 7.92011 1.30149e-17)
(-4.29764 9.29394 0)
(-4.66066 10.7702 0)
(-5.06548 12.0745 1.5464e-15)
(-5.49936 13.2539 -2.33643e-15)
(-6.00039 14.3179 2.69983e-15)
(-6.57049 15.2712 6.3212e-16)
(-7.20674 16.0463 8.51122e-15)
(-7.70575 16.527 -1.14484e-14)
(-7.91402 16.3999 7.41189e-15)
(-3.33869 7.746 0)
(-5.09374 8.91981 -4.69546e-16)
(-5.55508 10.26 -2.61706e-15)
(-6.06831 11.5075 -9.66688e-16)
(-6.60051 12.696 -4.4286e-15)
(-7.18786 13.8194 2.82885e-15)
(-7.82722 14.8672 -7.21628e-15)
(-8.50264 15.7327 6.61599e-16)
(-9.02952 16.2463 -3.69467e-15)
(-9.24477 16.0175 -1.12865e-14)
(-4.01465 7.56341 -3.58158e-17)
(-5.84872 8.51952 4.7771e-16)
(-6.38799 9.73166 3.41489e-15)
(-6.98602 10.9099 5.57877e-16)
(-7.59537 12.0798 2.68703e-15)
(-8.23609 13.2384 0)
(-8.9141 14.3704 7.41559e-15)
(-9.58524 15.3716 9.05938e-15)
(-10.166 16.0121 9.97799e-15)
(-10.4737 15.729 8.21581e-15)
(-4.71778 7.33964 -3.8358e-17)
(-6.48367 8.07906 4.87568e-16)
(-7.06943 9.16413 -5.16971e-16)
(-7.73018 10.2435 -2.15065e-15)
(-8.38929 11.3282 7.42297e-15)
(-9.03439 12.4329 1.02055e-14)
(-9.66876 13.5712 -3.55639e-15)
(-10.2609 14.7048 0)
(-10.8525 15.6685 0)
(-11.4778 15.5812 -8.58794e-15)
(-5.52838 7.02111 -1.22585e-17)
(-6.99766 7.71072 7.59301e-16)
(-7.64579 8.72799 0)
(-8.42541 9.75314 0)
(-9.22962 10.7736 -3.59519e-15)
(-10.0322 11.8061 -1.06908e-17)
(-10.8137 12.8609 6.5706e-15)
(-11.542 13.9353 -1.44415e-14)
(-12.1806 14.9186 1.71127e-14)
(-12.6956 15.096 1.21549e-15)
(-0.152418 16.8945 0)
(-0.25843 16.4185 0)
(-0.338506 15.4758 0)
(-0.342377 14.3206 -7.40156e-16)
(-0.263916 13.3522 0)
(-0.263808 12.6708 0)
(-1.24248 11.6265 7.54162e-16)
(2.26014 10.6051 0)
(-2.03379 17.0554 0)
(0.277578 -1.68239 0)
(-1.78799 16.9784 1.36497e-15)
(-1.81623 16.4134 2.39828e-15)
(-1.75003 15.3922 1.25378e-16)
(-1.60856 14.2292 8.23544e-16)
(-1.42627 13.2818 4.84141e-17)
(-1.35016 12.6168 9.9073e-16)
(-2.04334 11.5129 7.56393e-17)
(0.896519 10.5312 6.64386e-17)
(-3.3815 16.5003 -2.72796e-15)
(0.14802 -1.26435 -4.2108e-16)
(-3.39269 16.8961 1.27261e-15)
(-3.32209 16.206 0)
(-3.11192 15.1293 -1.92595e-15)
(-2.86246 14.0012 -1.60493e-15)
(-2.60828 13.0876 4.77076e-15)
(-2.4853 12.4254 -9.80876e-16)
(-2.95096 11.3374 1.56576e-15)
(-0.347835 10.6517 0)
(-4.92539 15.849 3.06882e-15)
(0.268732 -1.12632 -1.34741e-17)
(-4.9379 16.6441 2.97547e-15)
(-4.74348 15.8295 7.40644e-15)
(-4.39378 14.7441 -7.50368e-15)
(-4.06468 13.6838 2.89676e-15)
(-3.75257 12.8174 1.06135e-17)
(-3.58389 12.1693 0)
(-3.85549 11.1149 -1.57925e-15)
(-1.43681 10.7941 -3.0862e-15)
(-6.36256 14.9423 -3.07028e-15)
(0.527672 -1.15274 2.07227e-15)
(-6.3859 16.2347 2.80075e-15)
(-6.05168 15.3116 -2.45962e-15)
(-5.58359 14.2663 7.72445e-15)
(-5.20459 13.2884 -3.00479e-15)
(-4.84673 12.4683 2.53423e-15)
(-4.64031 11.8364 -3.98459e-15)
(-4.72753 10.8457 3.53252e-15)
(-2.49072 10.8594 3.36142e-15)
(-7.77127 13.9323 0)
(0.947377 -1.26501 -4.22164e-15)
(-7.71554 15.7032 3.40923e-15)
(-7.23261 14.6961 -1.44749e-14)
(-6.68161 13.7298 -4.09437e-15)
(-6.28173 12.8324 9.29847e-15)
(-5.88758 12.052 7.9288e-15)
(-5.64754 11.4352 2.77316e-16)
(-5.555 10.5156 1.80565e-16)
(-3.55029 10.8583 -3.11225e-15)
(-8.92115 12.7985 -2.29068e-15)
(1.45232 -1.39246 4.64433e-15)
(-8.93376 15.1018 3.29621e-15)
(-8.28776 14.0236 4.89886e-15)
(-7.68979 13.162 0)
(-7.29235 12.3324 -3.04435e-15)
(-6.86879 11.5835 -4.91202e-15)
(-6.59405 10.9718 3.32938e-16)
(-6.33408 10.1607 -1.07132e-14)
(-4.61848 10.7564 -3.38727e-15)
(-9.85521 11.5471 5.52886e-15)
(2.00602 -1.47849 -2.51567e-15)
(-10.0143 14.4456 1.20991e-14)
(-9.22944 13.3329 -4.33412e-15)
(-8.61947 12.582 0)
(-8.2377 11.8045 -2.10793e-16)
(-7.79544 11.0775 2.04024e-14)
(-7.4919 10.4622 -8.5602e-15)
(-7.10362 9.77089 -8.0369e-15)
(-5.6658 10.5304 6.68971e-15)
(-10.5792 10.2337 -6.37087e-15)
(2.5714 -1.49896 0)
(-10.8353 13.8594 2.72654e-16)
(-10.0822 12.7058 -4.24552e-15)
(-9.47951 12.0647 0)
(-9.09951 11.3084 6.34119e-15)
(-8.64592 10.59 -1.5096e-14)
(-8.32278 9.96724 8.76529e-15)
(-7.83101 9.40855 3.74847e-15)
(-6.56572 10.2501 0)
(-11.1458 8.90615 -1.16539e-16)
(3.11088 -1.40677 2.17921e-15)
(-11.0867 13.6738 3.6108e-16)
(-10.9082 12.2412 8.00727e-18)
(-10.2636 11.6323 0)
(-9.81482 10.8666 -1.23929e-14)
(-9.32194 10.1571 4.62834e-15)
(-8.98135 9.53381 -4.886e-15)
(-8.42799 9.04746 4.16342e-15)
(-7.21489 9.97238 5.82435e-17)
(-11.5168 7.22885 -5.46599e-16)
(3.53309 -1.03149 -2.11225e-15)
(-11.0604 13.6769 2.89327e-15)
(-11.5499 11.8477 -4.85021e-15)
(-10.8886 11.2118 0)
(-10.2875 10.4933 0)
(-9.6762 9.86384 0)
(-9.22712 9.34322 -2.43964e-15)
(-8.72167 9.01955 1.00223e-14)
(-8.23088 10.102 0)
(-12.5436 5.29556 0)
(4.06173 -1.06558 0)
(-11.7909 12.9916 -2.85017e-15)
(-12.2196 11.4517 -4.86294e-15)
(-11.5471 10.762 0)
(-10.8626 10.0382 3.3469e-15)
(-10.2018 9.41627 -2.56142e-15)
(-9.70232 8.91459 2.4641e-15)
(-9.18848 8.77094 4.08203e-15)
(-8.88089 10.1952 1.20046e-17)
(-12.5759 5.00183 1.60416e-15)
(4.4614 -1.42337 0)
(-13.7864 11.2339 3.39234e-16)
(-13.1195 10.5897 -2.00365e-18)
(-12.3919 9.87791 0)
(-11.6465 9.16605 2.52972e-16)
(-10.9857 8.51909 5.63684e-15)
(-10.4983 7.9629 -3.95159e-15)
(-9.89607 8.02715 -1.18388e-14)
(-9.50683 9.83704 -7.28445e-15)
(-12.083 5.51047 1.16176e-14)
(4.82638 -1.51688 1.88658e-15)
(-14.6858 10.0881 -1.16448e-14)
(-13.8828 9.59545 4.33966e-15)
(-13.075 9.04269 0)
(-12.2499 8.4486 -6.3865e-15)
(-11.5234 7.87799 -5.36101e-15)
(-10.9592 7.34826 8.89465e-15)
(-10.2954 7.49438 3.97825e-15)
(-10.0187 9.05883 0)
(-12.4828 3.89929 -4.42487e-15)
(5.22196 -1.03041 4.87295e-16)
(-15.0838 8.95439 -2.53255e-16)
(-14.3877 8.61818 4.3203e-15)
(-13.5853 8.20013 0)
(-12.7385 7.71412 1.25652e-14)
(-11.9852 7.22723 -1.18786e-17)
(-11.3965 6.70393 -2.20212e-16)
(-10.7584 6.91495 8.3714e-15)
(-10.5771 8.67031 -7.16093e-15)
(-12.8885 2.71221 -5.03561e-15)
(5.66562 -0.608899 0)
(-15.3517 7.9497 -2.73523e-15)
(-14.7702 7.69618 9.23941e-15)
(-14.0021 7.35683 7.85667e-15)
(-13.1522 6.95242 -9.06191e-15)
(-12.3825 6.54279 -1.56864e-14)
(-11.7764 6.02932 -4.11165e-16)
(-11.1604 6.25721 -4.11169e-15)
(-11.0829 8.38645 -3.74733e-15)
(-13.193 1.98497 -3.71562e-15)
(6.00681 -0.260839 -1.06634e-15)
(-15.5676 7.05245 -8.82988e-15)
(-15.0828 6.84155 4.7178e-15)
(-14.3459 6.54863 -3.56674e-15)
(-13.4918 6.20962 -9.52935e-15)
(-12.7058 5.87826 7.45884e-15)
(-12.0853 5.37728 -3.56501e-16)
(-11.4862 5.53237 7.5497e-15)
(-11.4928 8.18696 3.50374e-15)
(-13.4534 1.22302 1.00821e-15)
(6.21358 0.312736 -4.893e-16)
(-15.7829 6.21013 2.70212e-15)
(-15.3732 6.02327 -2.47198e-15)
(-14.6491 5.754 -1.40304e-16)
(-13.7767 5.46754 9.62905e-15)
(-12.9694 5.22021 -1.32207e-14)
(-12.3344 4.7465 4.21598e-15)
(-11.7254 4.72338 -4.09071e-15)
(-11.769 8.01813 1.10376e-14)
(-13.944 0.591966 0)
(6.22038 1.23522 -8.79484e-17)
(-16.0167 5.3403 3.2199e-15)
(-15.6478 5.17888 2.59429e-15)
(-14.9078 4.94028 4.26329e-15)
(-13.9943 4.71452 -6.59516e-15)
(-13.1567 4.57234 2.61807e-15)
(-12.5 4.16909 0)
(-11.8315 3.87352 -1.84682e-15)
(-11.8503 7.74903 -7.38955e-15)
(-14.7064 0.107577 2.00685e-16)
(5.88137 2.16791 1.69458e-15)
(-16.276 4.34457 1.36351e-15)
(-15.8767 4.23464 0)
(-15.1039 4.05081 2.0621e-15)
(-14.1341 3.9185 1.75154e-15)
(-13.2598 3.90753 8.14002e-17)
(-12.5885 3.63208 -1.06383e-15)
(-11.9019 3.13123 1.81776e-15)
(-11.8328 7.09729 0)
(-15.3233 0.260544 2.32186e-15)
(5.01096 2.39247 1.88596e-15)
(-16.5346 3.17429 1.40108e-15)
(-16.0888 3.09369 -2.41726e-15)
(-15.272 2.96285 -1.27901e-16)
(-14.2407 2.92084 6.7826e-16)
(-13.3378 3.02657 -5.3149e-17)
(-12.6193 2.90184 9.89005e-16)
(-11.8484 2.23659 -1.80294e-15)
(-11.9505 6.6427 -6.90158e-17)
(-15.8539 1.36058 2.2254e-15)
(4.34118 1.91645 -1.46645e-15)
(-16.7061 1.56376 1.8903e-29)
(-16.2419 1.41795 0)
(-15.3681 1.23095 0)
(-14.2419 1.10975 -7.43769e-16)
(-13.2713 1.13686 0)
(-12.6056 1.04875 0)
(-11.687 -0.0880518 7.78189e-16)
(-10.3603 4.06858 0)
(-16.4884 0.510175 0)
(1.13317 -1.34921 -6.01983e-30)
(-14.872 12.2994 1.0102e-15)
(-15.5009 10.1926 -6.51233e-15)
(-15.7281 8.92286 6.44829e-15)
(-15.8622 7.89979 -9.06299e-15)
(-15.9861 7.01686 6.3314e-15)
(-16.1121 6.20711 -1.39366e-14)
(-16.2576 5.3644 3.69192e-15)
(-16.4486 4.38939 -3.58956e-15)
(-16.6656 3.21232 0)
(-16.8172 1.65521 -3.45892e-16)
(-15.4099 11.7182 1.34047e-14)
(-15.85 9.70456 0)
(-16.065 8.61963 6.64824e-15)
(-16.1305 7.70331 -2.67342e-15)
(-16.1992 6.88478 -9.80352e-15)
(-16.2607 6.12436 0)
(-16.3134 5.31505 -4.26822e-15)
(-16.4241 4.35436 -1.68383e-15)
(-16.5577 3.18709 9.79173e-16)
(-16.6669 1.71939 -3.7388e-16)
(-14.9976 10.9222 -1.09626e-14)
(-15.6678 9.08736 0)
(-16.047 8.14665 5.84311e-15)
(-16.1338 7.36103 7.13168e-16)
(-16.1889 6.6283 8.34934e-15)
(-16.2141 5.91468 -4.12679e-15)
(-16.1911 5.13731 0)
(-16.2295 4.22019 4.69623e-15)
(-16.2814 3.0938 -6.55213e-16)
(-16.3626 1.74011 4.60915e-16)
(-13.84 10.199 5.05253e-15)
(-14.9917 8.56282 -1.72791e-15)
(-15.6525 7.64863 4.26135e-15)
(-15.9033 6.94187 -4.51585e-15)
(-16.0255 6.28368 5.57389e-16)
(-16.0809 5.60464 3.01216e-15)
(-16.065 4.85296 -9.83385e-15)
(-16.042 3.98786 1.62957e-15)
(-16.0099 2.95513 2.59355e-15)
(-16.0125 1.74479 7.22407e-17)
(-12.516 9.5167 -7.56604e-15)
(-13.797 8.10738 4.80689e-15)
(-14.7908 7.19767 0)
(-15.2555 6.49526 1.74897e-15)
(-15.5113 5.86727 1.93872e-15)
(-15.6424 5.2111 -2.93453e-16)
(-15.6862 4.48447 1.54341e-15)
(-15.6842 3.66526 3.55109e-15)
(-15.6488 2.7172 8.70062e-18)
(-15.5998 1.6195 3.22732e-16)
(-11.2313 8.83425 -3.0459e-15)
(-12.3986 7.67912 3.39907e-15)
(-13.5151 6.7888 1.52207e-15)
(-14.1823 6.07791 -2.43424e-15)
(-14.5998 5.44967 -1.58993e-15)
(-14.8428 4.80615 -2.08395e-16)
(-14.9642 4.10515 -3.02415e-15)
(-15.002 3.32527 9.49459e-16)
(-14.9832 2.44642 3.02668e-16)
(-14.9233 1.4479 -3.30761e-16)
(-10.0299 8.1398 0)
(-10.9627 7.23245 -1.13803e-15)
(-12.0296 6.40909 4.12623e-16)
(-12.7929 5.69927 -5.93829e-16)
(-13.3242 5.05527 9.26347e-16)
(-13.6769 4.412 0)
(-13.8789 3.72947 6.74811e-16)
(-13.9844 2.98602 1.05835e-15)
(-13.9983 2.16701 -9.30397e-16)
(-13.9486 1.25387 -2.79274e-17)
(-8.8975 7.4336 0)
(-9.60406 6.74735 -1.79985e-16)
(-10.5003 6.0304 1.75745e-15)
(-11.2297 5.35029 -1.28441e-15)
(-11.798 4.7007 0)
(-12.208 4.04859 -2.23407e-16)
(-12.4677 3.3699 -7.17117e-16)
(-12.6063 2.64631 5.76077e-16)
(-12.6472 1.87072 6.31367e-16)
(-12.6083 1.0339 -2.54667e-16)
(-7.80549 6.66842 -7.41907e-16)
(-8.35842 6.13646 1.86487e-16)
(-9.04171 5.49584 1.95077e-16)
(-9.64653 4.83538 -2.07833e-16)
(-10.1415 4.17798 0)
(-10.5114 3.50946 2.43229e-16)
(-10.7527 2.82082 3.42099e-16)
(-10.8652 2.11293 -3.75793e-16)
(-10.8696 1.39311 -9.83552e-17)
(-10.7829 0.649387 6.7666e-18)
(-6.36925 6.25506 -1.39504e-16)
(-6.55067 6.03106 -6.82064e-18)
(-6.92322 5.52623 -1.69763e-17)
(-7.31267 4.93327 0)
(-7.67368 4.33546 9.72179e-18)
(-7.97928 3.74056 0)
(-8.21715 3.13594 2.83305e-17)
(-8.38401 2.5108 2.91771e-17)
(-8.48617 1.87601 2.61406e-17)
(-8.47712 1.24552 -6.57812e-18)
)
;

boundaryField
{
    right
    {
        type            cyclic;
    }
    left
    {
        type            cyclic;
    }
    outerWall
    {
        type            calculated;
        value           nonuniform List<vector> 
22
(
(-1.55201 41.8305 0)
(-4.64749 41.6006 0)
(-7.71741 41.1419 0)
(-10.7449 40.4569 0)
(-13.7132 39.5492 0)
(-16.6061 38.424 0)
(-19.4075 37.0874 0)
(-22.1022 35.5467 0)
(-24.6752 33.8104 0)
(-27.1124 31.8882 0)
(-28.9573 30.2506 0)
(-30.2506 28.9573 0)
(-31.8882 27.1124 0)
(-33.8104 24.6752 0)
(-35.5467 22.1022 0)
(-37.0874 19.4075 0)
(-38.424 16.6061 0)
(-39.5492 13.7132 0)
(-40.4569 10.7449 0)
(-41.1419 7.71741 0)
(-41.6006 4.64749 0)
(-41.8305 1.55201 0)
)
;
    }
    stirrerWall
    {
        type            calculated;
        value           nonuniform List<vector> 
42
(
(-0.310178 8.3662 0)
(-0.928834 8.32046 0)
(-1.54239 8.22894 0)
(-2.14746 8.09214 0)
(-2.74072 7.91082 0)
(-3.31888 7.68598 0)
(-3.87877 7.41885 0)
(-4.41729 7.11092 0)
(-4.93148 6.76387 0)
(-5.4185 6.37963 0)
(-6.07951 6.64185 0)
(-6.92878 7.56862 0)
(-7.77806 8.49539 0)
(-8.62734 9.42216 0)
(-9.47661 10.3489 0)
(-10.3259 11.2757 0)
(-11.1752 12.2025 0)
(-12.0244 13.1292 0)
(-12.8737 14.056 0)
(-13.723 14.9828 0)
(-14.4723 15.1215 0)
(-15.1215 14.4723 0)
(-14.9828 13.723 0)
(-14.056 12.8737 0)
(-13.1292 12.0244 0)
(-12.2025 11.1752 0)
(-11.2757 10.3259 0)
(-10.3489 9.47661 0)
(-9.42216 8.62734 0)
(-8.49539 7.77806 0)
(-7.56862 6.92878 0)
(-6.64185 6.07951 0)
(-6.37963 5.4185 0)
(-6.76387 4.93148 0)
(-7.11092 4.41729 0)
(-7.41885 3.87877 0)
(-7.68598 3.31888 0)
(-7.91082 2.74072 0)
(-8.09214 2.14746 0)
(-8.22894 1.54239 0)
(-8.32046 0.928834 0)
(-8.3662 0.310178 0)
)
;
    }
    top
    {
        type            empty;
    }
    bottom
    {
        type            empty;
    }
}


// ************************************************************************* //
