/*--------------------------------*- C++ -*----------------------------------*\
  =========                 |
  \\      /  F ield         | OpenFOAM: The Open Source CFD Toolbox
   \\    /   O peration     | Website:  https://openfoam.org
    \\  /    A nd           | Version:  10
     \\/     M anipulation  |
\*---------------------------------------------------------------------------*/
FoamFile
{
    format      ascii;
    class       volVectorField;
    location    "2900";
    object      Urel;
}
// * * * * * * * * * * * * * * * * * * * * * * * * * * * * * * * * * * * * * //

dimensions      [0 1 -1 0 0 0 0];

internalField   nonuniform List<vector> 
420
(
(1.02277 -0.462708 7.77879e-18)
(0.337964 0.371776 -4.96265e-17)
(0.555278 0.982899 -2.31085e-16)
(0.730272 1.0736 6.3332e-17)
(0.871488 0.809248 -4.35092e-16)
(0.975435 0.266023 0)
(0.999746 -0.511532 0)
(0.905032 -1.35946 3.7197e-16)
(0.813378 -2.27475 -4.04158e-16)
(0.713675 -3.32353 0)
(1.01551 -0.398894 2.70925e-17)
(0.209443 0.287529 -1.21278e-16)
(0.446494 0.865481 7.16382e-16)
(0.622089 0.960878 -1.01437e-15)
(0.760977 0.729982 3.23253e-16)
(0.855953 0.243355 5.36328e-18)
(0.872019 -0.452902 2.61736e-15)
(0.758503 -1.24004 -5.66347e-16)
(0.663325 -2.08338 8.58574e-16)
(0.584128 -3.0951 0)
(0.968377 -0.434918 6.96196e-17)
(0.0873278 0.159905 -6.09693e-16)
(0.328508 0.701302 7.24228e-16)
(0.509889 0.817752 1.16592e-15)
(0.646932 0.639465 -7.87484e-16)
(0.7277 0.231144 3.65917e-15)
(0.714168 -0.348829 1.55164e-15)
(0.569869 -1.03739 3.3973e-15)
(0.459387 -1.81829 -1.41672e-15)
(0.429851 -2.85029 -3.23297e-15)
(0.939381 -0.447849 -1.22006e-17)
(-0.0128454 0.038739 5.61502e-16)
(0.193365 0.528437 -9.41792e-16)
(0.356739 0.670045 8.08659e-16)
(0.475968 0.561201 -1.61163e-15)
(0.528909 0.2544 1.603e-15)
(0.482335 -0.202092 -9.33944e-15)
(0.322324 -0.792216 0)
(0.221786 -1.53289 -3.37038e-15)
(0.275804 -2.62846 3.24327e-15)
(0.918477 -0.424083 0)
(-0.114399 -0.0608279 4.24328e-16)
(0.0488759 0.354284 -3.95099e-16)
(0.178086 0.509451 0)
(0.269038 0.472689 -2.39447e-16)
(0.290065 0.276088 -3.06048e-16)
(0.221932 -0.0527387 3.34053e-15)
(0.0630597 -0.539866 -3.48752e-15)
(0.000679076 -1.24874 0)
(0.167358 -2.43383 -1.44094e-14)
(0.891925 -0.355625 1.30149e-17)
(-0.226236 -0.13284 0)
(-0.0915358 0.191978 0)
(0.00148324 0.344648 1.5464e-15)
(0.0655293 0.372236 -2.33643e-15)
(0.0624719 0.284263 2.69983e-15)
(-0.00960402 0.0854647 6.3212e-16)
(-0.147792 -0.291683 8.51122e-15)
(-0.148712 -0.963238 -1.14484e-14)
(0.141133 -2.24262 7.41189e-15)
(0.838042 -0.242125 0)
(-0.335464 -0.179375 -4.69546e-16)
(-0.215086 0.0494478 -2.61706e-15)
(-0.146463 0.185306 -9.66688e-16)
(-0.0967198 0.261917 -4.4286e-15)
(-0.102052 0.273372 2.82885e-15)
(-0.159342 0.20908 -7.21628e-15)
(-0.252655 -0.0375698 6.61599e-16)
(-0.197388 -0.636178 -3.69467e-15)
(0.169528 -1.97727 -1.12865e-14)
(0.741995 -0.0931616 -3.58158e-17)
(-0.429753 -0.20203 4.7771e-16)
(-0.306495 -0.0551974 3.41489e-15)
(-0.241852 0.0575547 5.57877e-16)
(-0.188419 0.161728 2.68703e-15)
(-0.16628 0.25444 0)
(-0.181362 0.320484 7.41559e-15)
(-0.189538 0.255676 9.05938e-15)
(-0.107283 -0.169893 9.97799e-15)
(0.248083 -1.51907 8.21581e-15)
(0.592587 0.05672 -3.8358e-17)
(-0.433824 -0.2169 4.87568e-16)
(-0.279884 -0.145191 -5.16971e-16)
(-0.200761 -0.0794188 -2.15065e-15)
(-0.119885 -0.00843285 7.42297e-15)
(-0.0249064 0.0823771 1.02055e-14)
(0.0808684 0.206749 -3.55639e-15)
(0.228957 0.326318 0)
(0.377566 0.275895 0)
(0.492561 -0.825586 -8.58794e-15)
(0.306456 0.151893 -1.22585e-17)
(-0.350246 -0.114053 7.59301e-16)
(-0.185544 -0.0526231 0)
(-0.15215 0.0164731 0)
(-0.143217 0.0807226 -3.59519e-15)
(-0.132572 0.156895 -1.06908e-17)
(-0.100744 0.255319 6.5706e-15)
(-0.0157157 0.373177 -1.44415e-14)
(0.159153 0.399952 1.71127e-14)
(0.45758 -0.379271 1.21549e-15)
(0.64719 -4.6608 0)
(0.590786 -6.47352 0)
(0.565635 -8.8964 0)
(0.622578 -11.6903 -7.40156e-16)
(0.76837 -14.4731 0)
(0.843028 -17.1634 0)
(-0.0531065 -20.4319 7.54162e-16)
(3.5409 -23.9159 0)
(-0.651848 -20.1922 0)
(1.77155 -41.9488 0)
(0.606425 -4.45827 1.36497e-15)
(0.726741 -6.3527 2.39828e-15)
(0.957417 -8.84593 1.25378e-16)
(1.28099 -11.6387 8.23544e-16)
(1.6649 -14.3906 4.84141e-17)
(1.96425 -17.0534 9.9073e-16)
(1.51824 -20.3693 7.56393e-17)
(4.73175 -23.8001 6.64386e-17)
(0.756724 -20.5426 -2.72796e-15)
(4.6217 -41.3095 -4.2108e-16)
(0.583381 -4.30419 1.27261e-15)
(0.900656 -6.30917 0)
(1.38394 -8.84159 -1.92595e-15)
(1.9358 -11.5814 -1.60493e-15)
(2.52479 -14.2796 4.77076e-15)
(3.01847 -16.9177 -9.80876e-16)
(2.96324 -20.1932 1.56576e-15)
(6.02078 -23.3011 0)
(1.94635 -20.7854 3.06882e-15)
(7.69753 -40.7299 -1.34741e-17)
(0.59798 -4.20341 2.97547e-15)
(1.13584 -6.31092 7.40644e-15)
(1.8658 -8.82786 -7.50368e-15)
(2.61593 -11.473 2.89676e-15)
(3.39418 -14.0943 1.06135e-17)
(4.07897 -16.6853 0)
(4.3788 -19.8908 -1.57925e-15)
(7.43017 -22.5934 -3.0862e-15)
(3.20491 -21.0822 -3.07028e-15)
(10.8707 -40.0969 2.07227e-15)
(0.679389 -4.14553 2.80075e-15)
(1.45193 -6.33248 -2.45962e-15)
(2.40532 -8.77709 7.72445e-15)
(3.32164 -11.3043 -3.00479e-15)
(4.27441 -13.8399 2.53423e-15)
(5.13951 -16.371 -3.98459e-15)
(5.78158 -19.4646 3.53252e-15)
(8.82583 -21.7792 3.36142e-15)
(4.43929 -21.2841 0)
(14.1477 -39.3355 -4.22164e-15)
(0.840361 -4.09768 3.40923e-15)
(1.85406 -6.33273 -1.44749e-14)
(2.99273 -8.6585 -4.09437e-15)
(4.04326 -11.0611 9.29847e-15)
(5.15781 -13.508 7.9288e-15)
(6.19547 -15.97 2.77316e-16)
(7.17112 -18.9326 1.80565e-16)
(10.1536 -20.8519 -3.11225e-15)
(5.8653 -21.4161 -2.29068e-15)
(17.4374 -38.3798 4.64433e-15)
(1.06576 -4.01101 3.29621e-15)
(2.33206 -6.2744 4.89886e-15)
(3.61682 -8.44814 0)
(4.77467 -10.7305 -3.04435e-15)
(6.04014 -13.0879 -4.91202e-15)
(7.24703 -15.4805 3.32938e-16)
(8.53908 -18.2635 -1.07132e-14)
(11.3974 -19.851 -3.38727e-15)
(7.4258 -21.4774 5.52886e-15)
(20.6878 -37.1793 -2.51567e-15)
(1.37393 -3.87424 1.20991e-14)
(2.86521 -6.12273 -4.33412e-15)
(4.25729 -8.1312 0)
(5.50502 -10.301 -2.10793e-16)
(6.90606 -12.5697 2.04024e-14)
(8.27115 -14.8918 -8.5602e-15)
(9.83476 -17.4729 -8.0369e-15)
(12.5739 -18.8058 6.68971e-15)
(9.10127 -21.4191 -6.37087e-15)
(23.8471 -35.7167 0)
(1.87915 -3.56673 2.72654e-16)
(3.42088 -5.80055 -4.24552e-15)
(4.89666 -7.63768 0)
(6.2434 -9.71833 6.34119e-15)
(7.76735 -11.9029 -1.5096e-14)
(9.27557 -14.149 8.76529e-15)
(11.0794 -16.5051 3.74847e-15)
(13.7975 -17.6536 0)
(10.8258 -21.2009 -1.16539e-16)
(26.8634 -33.9533 2.17921e-15)
(2.88413 -2.76281 3.6108e-16)
(3.92906 -5.21422 8.00727e-18)
(5.533 -6.95108 0)
(7.04396 -8.96569 -1.23929e-14)
(8.71286 -11.0579 4.62834e-15)
(10.3555 -13.2122 -4.886e-15)
(12.3505 -15.3936 4.16342e-15)
(15.1598 -16.3454 5.82435e-17)
(12.6252 -21.1668 -5.46599e-16)
(29.6317 -31.7277 -2.11225e-15)
(3.8553 -1.90755 2.89327e-15)
(4.29163 -4.70371 -4.85021e-15)
(5.97795 -6.41029 0)
(7.71397 -8.3141 0)
(9.58184 -10.256 0)
(11.4222 -12.2298 -2.43964e-15)
(13.468 -14.1623 1.00223e-14)
(15.6643 -14.8612 0)
(13.2398 -21.6398 0)
(31.9358 -30.1846 0)
(3.79359 -1.92407 -2.85017e-15)
(4.33185 -4.38979 -4.86294e-15)
(6.07499 -6.10452 0)
(7.94478 -7.96328 3.3469e-15)
(9.91808 -9.84177 -2.56142e-15)
(11.8706 -11.7347 2.4641e-15)
(13.9934 -13.4187 4.08203e-15)
(16.0823 -13.6999 1.20046e-17)
(14.3595 -20.7816 1.60416e-15)
(33.5804 -29.2975 0)
(2.65027 -2.73687 3.39234e-16)
(4.33588 -4.24758 -2.00365e-18)
(6.19151 -5.9187 0)
(8.18578 -7.69272 2.52972e-16)
(10.2293 -9.51571 5.63684e-15)
(12.2476 -11.374 -3.95159e-15)
(14.545 -12.7514 -1.18388e-14)
(16.8109 -12.5376 -7.28445e-15)
(16.3127 -18.6315 1.16176e-14)
(35.5226 -27.6155 1.88658e-15)
(2.74025 -2.62635 -1.16448e-14)
(4.62357 -3.90759 4.33966e-15)
(6.62738 -5.33348 0)
(8.77677 -6.89431 -6.3865e-15)
(10.9695 -8.53528 -5.36101e-15)
(13.1571 -10.2501 8.89465e-15)
(15.6183 -11.4161 3.97825e-15)
(17.885 -11.3044 0)
(17.6242 -18.0724 -4.42487e-15)
(37.7685 -24.7829 4.87295e-16)
(3.23595 -2.43385 -2.53255e-16)
(5.06788 -3.47646 4.3203e-15)
(7.12791 -4.67664 0)
(9.36707 -6.0286 1.25652e-14)
(11.662 -7.47428 -1.18786e-17)
(13.9575 -9.05912 -2.20212e-16)
(16.4854 -10.0234 8.3714e-15)
(18.7591 -9.56938 -7.16093e-15)
(18.7643 -16.9683 -5.03561e-15)
(39.8834 -21.8846 0)
(3.76118 -2.04982 -2.73523e-15)
(5.52779 -2.92364 9.23941e-15)
(7.60805 -3.94978 7.85667e-15)
(9.91073 -5.11459 -9.06191e-15)
(12.2889 -6.36614 -1.56864e-14)
(14.676 -7.81176 -4.11165e-16)
(17.2638 -8.61594 -4.11169e-15)
(19.5244 -7.62939 -3.74733e-15)
(19.8315 -15.296 -3.71562e-15)
(41.7076 -18.9426 -1.06634e-15)
(4.23327 -1.50345 -8.82988e-15)
(5.94594 -2.24512 4.7178e-15)
(8.04233 -3.12571 -3.56674e-15)
(10.4017 -4.11537 -9.52935e-15)
(12.8543 -5.16713 7.45884e-15)
(15.3199 -6.46573 -3.56501e-16)
(17.9621 -7.19375 7.5497e-15)
(20.2174 -5.51693 3.50374e-15)
(20.7612 -13.5634 1.00821e-15)
(43.201 -15.6723 -4.893e-16)
(4.59733 -0.855156 2.70212e-15)
(6.27089 -1.48033 -2.47198e-15)
(8.39428 -2.23491 -1.40304e-16)
(10.816 -3.05868 9.62905e-15)
(13.3388 -3.90093 -1.32207e-14)
(15.8731 -5.03332 4.21598e-15)
(18.5849 -5.78573 -4.09071e-15)
(20.8696 -3.29843 1.10376e-14)
(21.2724 -11.6186 0)
(44.2909 -11.9652 -8.79484e-17)
(4.83085 -0.195576 3.2199e-15)
(6.4926 -0.700446 2.59429e-15)
(8.66409 -1.3193 4.26329e-15)
(11.1626 -1.96608 -6.59516e-15)
(13.755 -2.57441 2.61807e-15)
(16.3546 -3.49377 0)
(19.1743 -4.36078 -1.84682e-15)
(21.5372 -1.11794 -7.38955e-15)
(21.3182 -9.45989 2.00685e-16)
(44.8256 -8.17513 1.69458e-15)
(4.9243 0.368505 1.36351e-15)
(6.63845 0.0118926 0)
(8.86699 -0.445053 2.0621e-15)
(11.4486 -0.87976 1.75154e-15)
(14.1074 -1.22554 8.14002e-17)
(16.7546 -1.87168 -1.06383e-15)
(19.6288 -2.78296 1.81776e-15)
(22.12 0.728668 0)
(21.3112 -6.6112 2.32186e-15)
(44.6146 -5.03632 1.88596e-15)
(4.90206 0.779875 1.40108e-15)
(6.67736 0.550716 -2.41726e-15)
(8.96611 0.25541 -1.27901e-16)
(11.6272 0.0312913 6.7826e-16)
(14.3345 -0.064607 -5.3149e-17)
(17.0509 -0.412568 9.89005e-16)
(20.0338 -1.32498 -1.80294e-15)
(22.3808 2.80747 -6.90158e-17)
(21.189 -2.77765 2.2254e-15)
(44.3863 -2.55723 -1.46645e-15)
(4.84919 0.76415 1.8903e-29)
(6.65012 0.56873 0)
(9.0041 0.326807 0)
(11.769 0.144798 -7.43769e-16)
(14.554 0.104571 0)
(17.2286 -0.0580826 0)
(20.3714 -1.27743 7.78189e-16)
(24.1607 2.78782 0)
(20.7591 -0.871767 0)
(41.3996 -2.84318 -6.01983e-30)
(0.603206 -0.85381 1.0102e-15)
(0.905842 -1.77773 -6.51233e-15)
(1.52005 -1.7989 6.44829e-15)
(2.13254 -1.51452 -9.06299e-15)
(2.65641 -1.0383 6.3314e-15)
(3.07575 -0.444673 -1.39366e-14)
(3.3702 0.152518 3.69192e-15)
(3.51132 0.646037 -3.58956e-15)
(3.51682 0.958043 0)
(3.47693 0.90241 -3.45892e-16)
(-0.891288 -0.62159 1.34047e-14)
(-0.457396 -1.52551 0)
(0.116927 -1.43908 6.64824e-15)
(0.752003 -1.12882 -2.67342e-15)
(1.29096 -0.67226 -9.80352e-15)
(1.7412 -0.116098 0)
(2.10124 0.425455 -4.26822e-15)
(2.30215 0.842484 -1.68383e-15)
(2.37725 1.07222 9.79173e-16)
(2.37279 1.01314 -3.7388e-16)
(-1.43546 -0.604103 -1.09626e-14)
(-1.28929 -1.40246 0)
(-0.931055 -1.24905 5.84311e-15)
(-0.363576 -0.888957 7.13168e-16)
(0.149094 -0.43065 8.34934e-15)
(0.601764 0.085532 -4.12679e-15)
(1.01035 0.569987 0)
(1.26306 0.939775 4.69623e-15)
(1.40605 1.11831 -6.55213e-16)
(1.42267 1.08041 4.60915e-16)
(-1.23439 -0.513933 5.05253e-15)
(-1.62719 -1.1868 -1.72791e-15)
(-1.60265 -1.0841 4.26135e-15)
(-1.24517 -0.726004 -4.51585e-15)
(-0.839689 -0.277208 5.57389e-16)
(-0.450904 0.186774 3.01216e-15)
(-0.0766414 0.607882 -9.83385e-15)
(0.21692 0.938895 1.62957e-15)
(0.43021 1.11903 2.59355e-15)
(0.518468 1.13163 7.22407e-17)
(-0.866782 -0.382946 -7.56604e-15)
(-1.44647 -0.902095 4.80689e-15)
(-1.80684 -0.872146 0)
(-1.70942 -0.590544 1.74897e-15)
(-1.47764 -0.195591 1.93872e-15)
(-1.1982 0.204488 -2.93453e-16)
(-0.91079 0.561626 1.54341e-15)
(-0.658804 0.847733 3.55109e-15)
(-0.456078 1.02047 8.70062e-18)
(-0.323121 1.05289 3.22732e-16)
(-0.538458 -0.252149 -3.0459e-15)
(-1.06198 -0.590286 3.39907e-15)
(-1.59699 -0.618155 1.52207e-15)
(-1.74822 -0.425884 -2.43424e-15)
(-1.71807 -0.115219 -1.58993e-15)
(-1.58426 0.210756 -2.08395e-16)
(-1.40172 0.504497 -3.02415e-15)
(-1.21009 0.739153 9.49459e-16)
(-1.03765 0.889045 3.02668e-16)
(-0.90069 0.927825 -3.30761e-16)
(-0.293239 -0.133459 0)
(-0.639845 -0.296961 -1.13803e-15)
(-1.17721 -0.335082 4.12623e-16)
(-1.47068 -0.222576 -5.93829e-16)
(-1.59439 -0.0117005 9.26347e-16)
(-1.60392 0.227771 0)
(-1.52916 0.450982 6.74811e-16)
(-1.42577 0.631293 1.05835e-15)
(-1.29979 0.748976 -9.30397e-16)
(-1.17996 0.780332 -2.79274e-17)
(-0.116882 -0.0266465 0)
(-0.294741 -0.0421963 -1.79985e-16)
(-0.713421 -0.0510933 1.75745e-15)
(-1.01911 0.0102921 -1.28441e-15)
(-1.21984 0.131573 0)
(-1.32037 0.275456 -2.23407e-16)
(-1.33046 0.413516 -7.17117e-16)
(-1.28074 0.522928 5.76077e-16)
(-1.19553 0.592009 6.31367e-16)
(-1.09345 0.606883 -2.54667e-16)
(0.0192784 0.0210015 -7.41907e-16)
(-0.0624533 0.0866151 1.86487e-16)
(-0.320162 0.0768678 1.95077e-16)
(-0.547346 0.0771087 -2.07833e-16)
(-0.714705 0.106578 0)
(-0.808897 0.147339 2.43229e-16)
(-0.827775 0.18647 3.42099e-16)
(-0.772414 0.220847 -3.75793e-16)
(-0.664417 0.253686 -9.83552e-17)
(-0.52154 0.268886 6.7666e-18)
(0.499976 0.420215 -1.39504e-16)
(0.732256 0.720697 -6.82064e-18)
(0.733356 0.769585 -1.69763e-17)
(0.675448 0.756534 0)
(0.602058 0.761633 9.72179e-18)
(0.538554 0.789321 0)
(0.495923 0.823526 2.83305e-17)
(0.476379 0.849943 2.91771e-17)
(0.472786 0.875836 2.61406e-17)
(0.531129 0.911521 -6.57812e-18)
)
;

boundaryField
{
    right
    {
        type            cyclic;
    }
    left
    {
        type            cyclic;
    }
    outerWall
    {
        type            noSlip;
    }
    stirrerWall
    {
        type            noSlip;
    }
    top
    {
        type            empty;
    }
    bottom
    {
        type            empty;
    }
}


// ************************************************************************* //
