/*--------------------------------*- C++ -*----------------------------------*\
  =========                 |
  \\      /  F ield         | OpenFOAM: The Open Source CFD Toolbox
   \\    /   O peration     | Website:  https://openfoam.org
    \\  /    A nd           | Version:  10
     \\/     M anipulation  |
\*---------------------------------------------------------------------------*/
FoamFile
{
    format      ascii;
    class       surfaceScalarField;
    location    "74000";
    object      phi;
}
// * * * * * * * * * * * * * * * * * * * * * * * * * * * * * * * * * * * * * //

dimensions      [0 3 -1 0 0 0 0];

internalField   nonuniform List<scalar> 
35539
(
9.07148e-09
4.61104e-05
-4.61103e-05
9.01194e-09
4.66461e-05
-4.6646e-05
8.95308e-09
4.71833e-05
-4.71833e-05
8.90285e-09
4.77218e-05
-4.77218e-05
8.8597e-09
4.82613e-05
-4.82613e-05
8.81656e-09
4.88015e-05
-4.88015e-05
8.78152e-09
4.93421e-05
-4.93421e-05
8.75282e-09
4.98828e-05
-4.98828e-05
8.72345e-09
5.04232e-05
-5.04231e-05
8.69628e-09
5.09629e-05
-5.09629e-05
8.67451e-09
5.15016e-05
-5.15015e-05
8.65563e-09
5.20388e-05
-5.20388e-05
8.64012e-09
5.25741e-05
-5.25741e-05
8.62079e-09
5.3107e-05
-5.3107e-05
8.60497e-09
5.36371e-05
-5.36371e-05
8.58769e-09
5.41638e-05
-5.41638e-05
8.57141e-09
5.46866e-05
-5.46865e-05
8.55084e-09
5.52048e-05
-5.52048e-05
8.52798e-09
5.57178e-05
-5.57178e-05
8.50003e-09
5.62251e-05
-5.6225e-05
8.46625e-09
5.67257e-05
-5.67257e-05
8.42747e-09
5.72191e-05
-5.72191e-05
8.37606e-09
5.77044e-05
-5.77044e-05
8.31479e-09
5.81808e-05
-5.81807e-05
8.23989e-09
5.86473e-05
-5.86472e-05
8.15334e-09
5.9103e-05
-5.91029e-05
8.04387e-09
5.95468e-05
-5.95467e-05
7.91269e-09
5.99777e-05
-5.99776e-05
7.76077e-09
5.93538e-05
-5.93536e-05
7.58378e-09
5.77178e-05
-5.77177e-05
7.38661e-09
5.61309e-05
-5.61308e-05
7.15964e-09
5.45914e-05
-5.45912e-05
6.90568e-09
5.30975e-05
-5.30972e-05
6.6219e-09
5.16477e-05
-5.16474e-05
6.30935e-09
5.02405e-05
-5.02401e-05
5.96544e-09
4.88744e-05
-4.8874e-05
5.592e-09
4.7548e-05
-4.75476e-05
5.18486e-09
4.62601e-05
-4.62597e-05
4.74462e-09
4.50093e-05
-4.50088e-05
4.27401e-09
4.37944e-05
-4.3794e-05
3.77009e-09
4.26143e-05
-4.26138e-05
3.2363e-09
4.14678e-05
-4.14673e-05
2.67043e-09
4.03538e-05
-4.03532e-05
2.07778e-09
3.92713e-05
-3.92707e-05
1.46027e-09
3.82192e-05
-3.82186e-05
8.14142e-10
3.71966e-05
-3.7196e-05
1.3926e-10
3.62026e-05
-3.62019e-05
-5.5583e-10
3.52361e-05
-3.52354e-05
-1.27679e-09
3.42964e-05
-3.42956e-05
-2.01732e-09
3.33825e-05
-3.33818e-05
-2.78355e-09
3.24938e-05
-3.2493e-05
-3.57126e-09
3.16293e-05
-3.16285e-05
-4.38331e-09
3.07883e-05
-3.07875e-05
-5.22222e-09
2.99702e-05
-2.99693e-05
-6.07915e-09
2.91741e-05
-2.91733e-05
-6.96331e-09
2.83996e-05
-2.83987e-05
-7.86895e-09
2.76458e-05
-2.76448e-05
-8.79531e-09
2.69121e-05
-2.69112e-05
-9.74779e-09
2.61981e-05
-2.61971e-05
-1.07225e-08
2.55031e-05
-2.55021e-05
-1.17199e-08
2.48265e-05
-2.48255e-05
-1.27414e-08
2.41679e-05
-2.41669e-05
-1.37835e-08
2.35267e-05
-2.35257e-05
-1.4854e-08
2.29025e-05
-2.29014e-05
-1.59475e-08
2.22948e-05
-2.22937e-05
-1.70723e-08
2.17031e-05
-2.1702e-05
-1.82241e-08
2.11271e-05
-2.1126e-05
-1.94073e-08
2.05663e-05
-2.05651e-05
-2.06297e-08
2.00204e-05
-2.00192e-05
-2.18873e-08
1.94889e-05
-1.94877e-05
-2.31872e-08
1.89716e-05
-1.89703e-05
-2.45248e-08
1.84681e-05
-1.84668e-05
-2.59087e-08
1.79781e-05
-1.79767e-05
-2.73339e-08
1.75012e-05
-1.74998e-05
-2.88005e-08
1.70372e-05
-1.70358e-05
-3.03112e-08
1.65858e-05
-1.65843e-05
-3.18571e-08
1.61467e-05
-1.61451e-05
-3.34372e-08
1.57195e-05
-1.57179e-05
-3.50491e-08
1.53041e-05
-1.53025e-05
-3.66872e-08
1.49001e-05
-1.48984e-05
-3.83454e-08
1.45072e-05
-1.45056e-05
-4.00181e-08
1.41253e-05
-1.41236e-05
-4.17006e-08
1.3754e-05
-1.37523e-05
-4.33808e-08
1.3393e-05
-1.33914e-05
-4.50568e-08
1.30422e-05
-1.30405e-05
-4.6718e-08
1.27012e-05
-1.26995e-05
-4.83542e-08
1.23697e-05
-1.23681e-05
-4.99591e-08
1.20476e-05
-1.2046e-05
-5.15231e-08
1.17346e-05
-1.1733e-05
-5.3035e-08
1.14303e-05
-1.14288e-05
-5.44894e-08
1.11347e-05
-1.11332e-05
-5.58743e-08
1.08473e-05
-1.08459e-05
1.05681e-05
-1.05667e-05
9.20829e-09
4.61104e-05
9.14168e-09
4.66461e-05
9.0807e-09
4.71834e-05
9.02432e-09
4.77219e-05
8.97518e-09
4.82614e-05
8.93146e-09
4.88016e-05
8.89355e-09
4.93422e-05
8.85435e-09
4.98828e-05
8.82435e-09
5.04232e-05
8.79662e-09
5.09629e-05
8.77335e-09
5.15016e-05
8.75004e-09
5.20388e-05
8.72692e-09
5.25741e-05
8.7039e-09
5.31071e-05
8.68583e-09
5.36371e-05
8.6651e-09
5.41638e-05
8.64386e-09
5.46866e-05
8.62163e-09
5.52048e-05
8.59316e-09
5.57179e-05
8.55998e-09
5.62251e-05
8.5232e-09
5.67258e-05
8.47523e-09
5.72192e-05
8.42323e-09
5.77045e-05
8.359e-09
5.81809e-05
8.27807e-09
5.86474e-05
8.18277e-09
5.91031e-05
8.06808e-09
5.9547e-05
7.93269e-09
5.99779e-05
7.77165e-09
5.93539e-05
7.58595e-09
5.7718e-05
7.37816e-09
5.61312e-05
7.14466e-09
5.45916e-05
6.88417e-09
5.30978e-05
6.59534e-09
5.1648e-05
6.27342e-09
5.02408e-05
5.92173e-09
4.88747e-05
5.53384e-09
4.75484e-05
5.11584e-09
4.62605e-05
4.66788e-09
4.50097e-05
4.18683e-09
4.37949e-05
3.67373e-09
4.26148e-05
3.13186e-09
4.14683e-05
2.55704e-09
4.03544e-05
1.9567e-09
3.92719e-05
1.32677e-09
3.82199e-05
6.74693e-10
3.71973e-05
-3.33584e-12
3.62032e-05
-7.05794e-10
3.52368e-05
-1.42792e-09
3.42971e-05
-2.17577e-09
3.33833e-05
-2.9463e-09
3.24945e-05
-3.73913e-09
3.16301e-05
-4.55319e-09
3.07891e-05
-5.38483e-09
2.9971e-05
-6.24159e-09
2.9175e-05
-7.11943e-09
2.84004e-05
-8.01929e-09
2.76467e-05
-8.94036e-09
2.69131e-05
-9.88323e-09
2.6199e-05
-1.08472e-08
2.5504e-05
-1.18333e-08
2.48275e-05
-1.28381e-08
2.41689e-05
-1.38692e-08
2.35278e-05
-1.49209e-08
2.29036e-05
-1.59986e-08
2.22959e-05
-1.71035e-08
2.17042e-05
-1.82356e-08
2.11282e-05
-1.94028e-08
2.05675e-05
-2.06024e-08
2.00216e-05
-2.18394e-08
1.94902e-05
-2.31148e-08
1.89729e-05
-2.44355e-08
1.84694e-05
-2.57929e-08
1.79795e-05
-2.71934e-08
1.75026e-05
-2.86365e-08
1.70387e-05
-3.01157e-08
1.65873e-05
-3.16329e-08
1.61482e-05
-3.31838e-08
1.57211e-05
-3.47635e-08
1.53057e-05
-3.63665e-08
1.49017e-05
-3.79891e-08
1.45089e-05
-3.96232e-08
1.41269e-05
-4.12626e-08
1.37556e-05
-4.2902e-08
1.33947e-05
-4.45315e-08
1.30438e-05
-4.61451e-08
1.27028e-05
-4.77319e-08
1.23713e-05
-4.92867e-08
1.20492e-05
-5.07973e-08
1.17361e-05
-5.22578e-08
1.14318e-05
-5.36576e-08
1.11361e-05
-5.49883e-08
1.08487e-05
1.05693e-05
9.33094e-09
4.61105e-05
9.26212e-09
4.66462e-05
9.1999e-09
4.71834e-05
9.14148e-09
4.77219e-05
9.0853e-09
4.82614e-05
9.04195e-09
4.88016e-05
8.999e-09
4.93422e-05
8.9592e-09
4.98829e-05
8.92545e-09
5.04232e-05
8.88771e-09
5.09629e-05
8.86137e-09
5.15016e-05
8.8363e-09
5.20388e-05
8.80749e-09
5.25741e-05
8.78472e-09
5.31071e-05
8.76278e-09
5.36372e-05
8.73626e-09
5.41639e-05
8.71223e-09
5.46866e-05
8.68262e-09
5.52048e-05
8.65169e-09
5.57179e-05
8.61786e-09
5.62251e-05
8.57357e-09
5.67258e-05
8.52398e-09
5.72192e-05
8.46315e-09
5.77046e-05
8.39139e-09
5.81809e-05
8.30632e-09
5.86475e-05
8.20546e-09
5.91032e-05
8.08551e-09
5.95471e-05
7.94335e-09
5.9978e-05
7.77313e-09
5.93541e-05
7.58534e-09
5.77182e-05
7.36999e-09
5.61314e-05
7.12744e-09
5.45919e-05
6.85424e-09
5.3098e-05
6.55327e-09
5.16483e-05
6.22331e-09
5.02411e-05
5.85981e-09
4.88751e-05
5.46794e-09
4.75488e-05
5.04397e-09
4.62609e-05
4.58228e-09
4.50102e-05
4.09311e-09
4.37954e-05
3.57165e-09
4.26153e-05
3.01922e-09
4.14689e-05
2.43928e-09
4.0355e-05
1.82959e-09
3.92725e-05
1.19413e-09
3.82205e-05
5.36024e-10
3.71979e-05
-1.48485e-10
3.62039e-05
-8.55782e-10
3.52375e-05
-1.58507e-09
3.42978e-05
-2.33634e-09
3.3384e-05
-3.104e-09
3.24953e-05
-3.89559e-09
3.16309e-05
-4.7072e-09
3.079e-05
-5.53952e-09
2.99718e-05
-6.39056e-09
2.91759e-05
-7.26426e-09
2.84013e-05
-8.15519e-09
2.76475e-05
-9.06872e-09
2.6914e-05
-9.99971e-09
2.62e-05
-1.0949e-08
2.5505e-05
-1.19176e-08
2.48285e-05
-1.29086e-08
2.41699e-05
-1.39192e-08
2.35288e-05
-1.49528e-08
2.29046e-05
-1.60121e-08
2.22969e-05
-1.7094e-08
2.17053e-05
-1.82077e-08
2.11294e-05
-1.93494e-08
2.05686e-05
-2.05252e-08
2.00228e-05
-2.174e-08
1.94914e-05
-2.29922e-08
1.89742e-05
-2.42826e-08
1.84707e-05
-2.56154e-08
1.79808e-05
-2.69885e-08
1.7504e-05
-2.84e-08
1.70401e-05
-2.98512e-08
1.65887e-05
-3.13348e-08
1.61497e-05
-3.28518e-08
1.57226e-05
-3.43933e-08
1.53072e-05
-3.59576e-08
1.49032e-05
-3.75385e-08
1.45104e-05
-3.91317e-08
1.41285e-05
-4.07284e-08
1.37572e-05
-4.23196e-08
1.33963e-05
-4.39021e-08
1.30454e-05
-4.54658e-08
1.27043e-05
-4.70033e-08
1.23729e-05
-4.85041e-08
1.20507e-05
-4.9963e-08
1.17375e-05
-5.13705e-08
1.14332e-05
-5.27178e-08
1.11374e-05
-5.39959e-08
1.08499e-05
1.05705e-05
9.45648e-09
4.61106e-05
9.38206e-09
4.66463e-05
9.31327e-09
4.71835e-05
9.25079e-09
4.7722e-05
9.19485e-09
4.82615e-05
9.14082e-09
4.88017e-05
9.09108e-09
4.93423e-05
9.05113e-09
4.98829e-05
9.01096e-09
5.04233e-05
8.97784e-09
5.0963e-05
8.94447e-09
5.15016e-05
8.91067e-09
5.20389e-05
8.88594e-09
5.25742e-05
8.8601e-09
5.31071e-05
8.82796e-09
5.36372e-05
8.80144e-09
5.41639e-05
8.77184e-09
5.46866e-05
8.73899e-09
5.52049e-05
8.70356e-09
5.57179e-05
8.66284e-09
5.62252e-05
8.61501e-09
5.67259e-05
8.56069e-09
5.72193e-05
8.4962e-09
5.77046e-05
8.41885e-09
5.8181e-05
8.32893e-09
5.86476e-05
8.22105e-09
5.91033e-05
8.09427e-09
5.95472e-05
7.94062e-09
5.99782e-05
7.76484e-09
5.93543e-05
7.56695e-09
5.77184e-05
7.34288e-09
5.61316e-05
7.09091e-09
5.45921e-05
6.81348e-09
5.30983e-05
6.50526e-09
5.16486e-05
6.16877e-09
5.02414e-05
5.7953e-09
4.88754e-05
5.39251e-09
4.75492e-05
4.95794e-09
4.62613e-05
4.48996e-09
4.50107e-05
3.99111e-09
4.37959e-05
3.46064e-09
4.26159e-05
2.90144e-09
4.14695e-05
2.31285e-09
4.03556e-05
1.69713e-09
3.92731e-05
1.05899e-09
3.82211e-05
3.91346e-10
3.71986e-05
-2.94991e-10
3.62046e-05
-1.00612e-09
3.52382e-05
-1.73675e-09
3.42985e-05
-2.48793e-09
3.33848e-05
-3.25993e-09
3.24961e-05
-4.04889e-09
3.16316e-05
-4.85557e-09
3.07908e-05
-5.6846e-09
2.99727e-05
-6.52994e-09
2.91767e-05
-7.39276e-09
2.84022e-05
-8.27554e-09
2.76484e-05
-9.17298e-09
2.69149e-05
-1.0089e-08
2.62009e-05
-1.10248e-08
2.55059e-05
-1.19755e-08
2.48294e-05
-1.29472e-08
2.41709e-05
-1.39388e-08
2.35298e-05
-1.49498e-08
2.29056e-05
-1.59827e-08
2.2298e-05
-1.70425e-08
2.17064e-05
-1.81292e-08
2.11304e-05
-1.92482e-08
2.05697e-05
-2.03984e-08
2.00239e-05
-2.15831e-08
1.94926e-05
-2.28066e-08
1.89754e-05
-2.40681e-08
1.8472e-05
-2.53705e-08
1.79821e-05
-2.67099e-08
1.75053e-05
-2.80888e-08
1.70415e-05
-2.95031e-08
1.65902e-05
-3.09519e-08
1.61511e-05
-3.2427e-08
1.57241e-05
-3.39301e-08
1.53087e-05
-3.54554e-08
1.49048e-05
-3.6993e-08
1.4512e-05
-3.85398e-08
1.41301e-05
-4.00874e-08
1.37588e-05
-4.16342e-08
1.33978e-05
-4.31658e-08
1.30469e-05
-4.46778e-08
1.27059e-05
-4.61626e-08
1.23743e-05
-4.76117e-08
1.20521e-05
-4.90175e-08
1.17389e-05
-5.03701e-08
1.14346e-05
-5.16647e-08
1.11387e-05
-5.28929e-08
1.08512e-05
1.05717e-05
9.57153e-09
4.61107e-05
9.49313e-09
4.66464e-05
9.41971e-09
4.71836e-05
9.35647e-09
4.77221e-05
9.29595e-09
4.82615e-05
9.23804e-09
4.88017e-05
9.18853e-09
4.93423e-05
9.13915e-09
4.9883e-05
9.09503e-09
5.04233e-05
9.05875e-09
5.0963e-05
9.01977e-09
5.15017e-05
8.9879e-09
5.20389e-05
8.95263e-09
5.25742e-05
8.91868e-09
5.31071e-05
8.89029e-09
5.36372e-05
8.8564e-09
5.41639e-05
8.82138e-09
5.46867e-05
8.78661e-09
5.52049e-05
8.74397e-09
5.5718e-05
8.69848e-09
5.62252e-05
8.6467e-09
5.67259e-05
8.58692e-09
5.72193e-05
8.51887e-09
5.77047e-05
8.43383e-09
5.81811e-05
8.34014e-09
5.86477e-05
8.22593e-09
5.91034e-05
8.08789e-09
5.95473e-05
7.93039e-09
5.99783e-05
7.75055e-09
5.93545e-05
7.54246e-09
5.77186e-05
7.31041e-09
5.61318e-05
7.0525e-09
5.45924e-05
6.76674e-09
5.30986e-05
6.44758e-09
5.16489e-05
6.09801e-09
5.02418e-05
5.72277e-09
4.88758e-05
5.30949e-09
4.75496e-05
4.86589e-09
4.62618e-05
4.39188e-09
4.50111e-05
3.88238e-09
4.37964e-05
3.34583e-09
4.26164e-05
2.77955e-09
4.147e-05
2.18527e-09
4.03562e-05
1.56426e-09
3.92737e-05
9.14631e-10
3.82218e-05
2.47363e-10
3.71993e-05
-4.45436e-10
3.62053e-05
-1.15652e-09
3.52389e-05
-1.88819e-09
3.42993e-05
-2.63939e-09
3.33855e-05
-3.40586e-09
3.24968e-05
-4.19336e-09
3.16324e-05
-4.9977e-09
3.07916e-05
-5.81492e-09
2.99735e-05
-6.65278e-09
2.91775e-05
-7.5041e-09
2.8403e-05
-8.37124e-09
2.76493e-05
-9.25542e-09
2.69157e-05
-1.0156e-08
2.62018e-05
-1.10713e-08
2.55068e-05
-1.20057e-08
2.48304e-05
-1.29518e-08
2.41718e-05
-1.39181e-08
2.35307e-05
-1.49039e-08
2.29066e-05
-1.59124e-08
2.2299e-05
-1.69454e-08
2.17074e-05
-1.80035e-08
2.11315e-05
-1.90917e-08
2.05708e-05
-2.02107e-08
2.0025e-05
-2.13667e-08
1.94937e-05
-2.25582e-08
1.89766e-05
-2.37859e-08
1.84732e-05
-2.50524e-08
1.79834e-05
-2.6357e-08
1.75067e-05
-2.7699e-08
1.70428e-05
-2.90744e-08
1.65915e-05
-3.0481e-08
1.61525e-05
-3.19188e-08
1.57255e-05
-3.33773e-08
1.53102e-05
-3.48538e-08
1.49062e-05
-3.6347e-08
1.45135e-05
-3.78453e-08
1.41316e-05
-3.93454e-08
1.37603e-05
-4.08383e-08
1.33993e-05
-4.23189e-08
1.30484e-05
-4.37776e-08
1.27073e-05
-4.52088e-08
1.23758e-05
-4.66041e-08
1.20535e-05
-4.79566e-08
1.17403e-05
-4.92582e-08
1.14359e-05
-5.05019e-08
1.114e-05
-5.1679e-08
1.08523e-05
1.05728e-05
9.67636e-09
4.61108e-05
9.59705e-09
4.66464e-05
9.51789e-09
4.71837e-05
9.44738e-09
4.77221e-05
9.38288e-09
4.82616e-05
9.32411e-09
4.88018e-05
9.26868e-09
4.93424e-05
9.22132e-09
4.9883e-05
9.17158e-09
5.04234e-05
9.12942e-09
5.09631e-05
9.08678e-09
5.15017e-05
9.04554e-09
5.20389e-05
9.01034e-09
5.25742e-05
8.97507e-09
5.31072e-05
8.93883e-09
5.36373e-05
8.90365e-09
5.4164e-05
8.86588e-09
5.46867e-05
8.8213e-09
5.52049e-05
8.77849e-09
5.5718e-05
8.72904e-09
5.62253e-05
8.67272e-09
5.6726e-05
8.60795e-09
5.72194e-05
8.52797e-09
5.77048e-05
8.44134e-09
5.81812e-05
8.33836e-09
5.86478e-05
8.21592e-09
5.91035e-05
8.07662e-09
5.95475e-05
7.9121e-09
5.99785e-05
7.72046e-09
5.93547e-05
7.50605e-09
5.77188e-05
7.2663e-09
5.61321e-05
6.99928e-09
5.45926e-05
6.70104e-09
5.30989e-05
6.37784e-09
5.16492e-05
6.02235e-09
5.02421e-05
5.63166e-09
4.88762e-05
5.21659e-09
4.755e-05
4.76132e-09
4.62622e-05
4.27949e-09
4.50116e-05
3.76572e-09
4.37969e-05
3.22087e-09
4.2617e-05
2.64806e-09
4.14706e-05
2.0486e-09
4.03568e-05
1.42394e-09
3.92744e-05
7.7409e-10
3.82224e-05
1.00387e-10
3.71999e-05
-5.8972e-10
3.6206e-05
-1.30414e-09
3.52396e-05
-2.03599e-09
3.43e-05
-2.78077e-09
3.33863e-05
-3.54791e-09
3.24976e-05
-4.32604e-09
3.16332e-05
-5.12154e-09
3.07924e-05
-5.93366e-09
2.99743e-05
-6.75653e-09
2.91784e-05
-7.59481e-09
2.84039e-05
-8.44776e-09
2.76501e-05
-9.31478e-09
2.69166e-05
-1.01943e-08
2.62027e-05
-1.10873e-08
2.55077e-05
-1.19943e-08
2.48313e-05
-1.29203e-08
2.41727e-05
-1.38584e-08
2.35317e-05
-1.48178e-08
2.29076e-05
-1.5797e-08
2.23e-05
-1.67965e-08
2.17084e-05
-1.78231e-08
2.11325e-05
-1.8879e-08
2.05719e-05
-1.99664e-08
2.00261e-05
-2.10843e-08
1.94948e-05
-2.22385e-08
1.89777e-05
-2.34307e-08
1.84744e-05
-2.46598e-08
1.79846e-05
-2.59259e-08
1.75079e-05
-2.72246e-08
1.70441e-05
-2.85561e-08
1.65929e-05
-2.99208e-08
1.61539e-05
-3.13105e-08
1.57269e-05
-3.27244e-08
1.53116e-05
-3.41529e-08
1.49077e-05
-3.5594e-08
1.45149e-05
-3.70412e-08
1.4133e-05
-3.84887e-08
1.37617e-05
-3.99293e-08
1.34007e-05
-4.13552e-08
1.30498e-05
-4.27615e-08
1.27087e-05
-4.414e-08
1.23771e-05
-4.54807e-08
1.20549e-05
-4.67793e-08
1.17416e-05
-4.80296e-08
1.14371e-05
-4.92218e-08
1.11412e-05
-5.03546e-08
1.08535e-05
1.05738e-05
9.77662e-09
4.61109e-05
9.68853e-09
4.66465e-05
9.60908e-09
4.71837e-05
9.53311e-09
4.77222e-05
9.46553e-09
4.82617e-05
9.40382e-09
4.88019e-05
9.34457e-09
4.93424e-05
9.28563e-09
4.98831e-05
9.23867e-09
5.04234e-05
9.18807e-09
5.09631e-05
9.14593e-09
5.15018e-05
9.10631e-09
5.2039e-05
9.06367e-09
5.25743e-05
9.02418e-09
5.31072e-05
8.9822e-09
5.36373e-05
8.93886e-09
5.4164e-05
8.89513e-09
5.46868e-05
8.85207e-09
5.5205e-05
8.80322e-09
5.57181e-05
8.74425e-09
5.62253e-05
8.68263e-09
5.6726e-05
8.60936e-09
5.72195e-05
8.5305e-09
5.77048e-05
8.43905e-09
5.81813e-05
8.32503e-09
5.86479e-05
8.20045e-09
5.91037e-05
8.05252e-09
5.95476e-05
7.87891e-09
5.99787e-05
7.68018e-09
5.93549e-05
7.45836e-09
5.77191e-05
7.21104e-09
5.61323e-05
6.93569e-09
5.45929e-05
6.63236e-09
5.30992e-05
6.29747e-09
5.16496e-05
5.93317e-09
5.02425e-05
5.54012e-09
4.88766e-05
5.11016e-09
4.75504e-05
4.65206e-09
4.62627e-05
4.1623e-09
4.50121e-05
3.64143e-09
4.37974e-05
3.09359e-09
4.26175e-05
2.51441e-09
4.14712e-05
1.91071e-09
4.03574e-05
1.28052e-09
3.9275e-05
6.30682e-10
3.82231e-05
-4.42709e-11
3.72006e-05
-7.39282e-10
3.62067e-05
-1.44914e-09
3.52403e-05
-2.17466e-09
3.43007e-05
-2.91981e-09
3.3387e-05
-3.67835e-09
3.24984e-05
-4.44954e-09
3.1634e-05
-5.23436e-09
3.07931e-05
-6.03186e-09
2.99751e-05
-6.842e-09
2.91792e-05
-7.66688e-09
2.84047e-05
-8.49842e-09
2.7651e-05
-9.34262e-09
2.69175e-05
-1.02006e-08
2.62035e-05
-1.1068e-08
2.55086e-05
-1.19513e-08
2.48321e-05
-1.28436e-08
2.41736e-05
-1.3755e-08
2.35326e-05
-1.46811e-08
2.29085e-05
-1.56254e-08
2.23009e-05
-1.65932e-08
2.17094e-05
-1.75865e-08
2.11335e-05
-1.86036e-08
2.05729e-05
-1.96525e-08
2.00272e-05
-2.07323e-08
1.94959e-05
-2.18471e-08
1.89788e-05
-2.29977e-08
1.84756e-05
-2.41841e-08
1.79858e-05
-2.54037e-08
1.75091e-05
-2.66592e-08
1.70454e-05
-2.79476e-08
1.65942e-05
-2.92631e-08
1.61552e-05
-3.06015e-08
1.57282e-05
-3.19634e-08
1.53129e-05
-3.33434e-08
1.49091e-05
-3.47304e-08
1.45163e-05
-3.6126e-08
1.41344e-05
-3.75193e-08
1.37631e-05
-3.89047e-08
1.34021e-05
-4.02751e-08
1.30512e-05
-4.16267e-08
1.27101e-05
-4.29472e-08
1.23785e-05
-4.42379e-08
1.20561e-05
-4.54844e-08
1.17428e-05
-4.66844e-08
1.14383e-05
-4.78298e-08
1.11423e-05
-4.89156e-08
1.08546e-05
1.05749e-05
9.86066e-09
4.6111e-05
9.77025e-09
4.66466e-05
9.69079e-09
4.71838e-05
9.61113e-09
4.77223e-05
9.53677e-09
4.82618e-05
9.46966e-09
4.88019e-05
9.40687e-09
4.93425e-05
9.3502e-09
4.98831e-05
9.29434e-09
5.04235e-05
9.24303e-09
5.09632e-05
9.19327e-09
5.15018e-05
9.14402e-09
5.2039e-05
9.09909e-09
5.25743e-05
9.05273e-09
5.31073e-05
9.0108e-09
5.36373e-05
8.96652e-09
5.4164e-05
8.91913e-09
5.46868e-05
8.86654e-09
5.5205e-05
8.80936e-09
5.57181e-05
8.75229e-09
5.62254e-05
8.68172e-09
5.67261e-05
8.6087e-09
5.72196e-05
8.5191e-09
5.77049e-05
8.41883e-09
5.81814e-05
8.30499e-09
5.8648e-05
8.17061e-09
5.91038e-05
8.01653e-09
5.95478e-05
7.83131e-09
5.99788e-05
7.62727e-09
5.93551e-05
7.3986e-09
5.77193e-05
7.14058e-09
5.61326e-05
6.85916e-09
5.45932e-05
6.54985e-09
5.30995e-05
6.20852e-09
5.16499e-05
5.83402e-09
5.02429e-05
5.43264e-09
4.8877e-05
4.99929e-09
4.75509e-05
4.53404e-09
4.62632e-05
4.03635e-09
4.50126e-05
3.51235e-09
4.3798e-05
2.95508e-09
4.26181e-05
2.37344e-09
4.14718e-05
1.76482e-09
4.0358e-05
1.13609e-09
3.92756e-05
4.81495e-10
3.82237e-05
-1.89964e-10
3.72013e-05
-8.80674e-10
3.62074e-05
-1.58722e-09
3.52411e-05
-2.31196e-09
3.43015e-05
-3.0484e-09
3.33878e-05
-3.79562e-09
3.24991e-05
-4.55982e-09
3.16347e-05
-5.33156e-09
3.07939e-05
-6.1137e-09
2.99759e-05
-6.90736e-09
2.918e-05
-7.70896e-09
2.84055e-05
-8.52114e-09
2.76518e-05
-9.34219e-09
2.69183e-05
-1.01721e-08
2.62044e-05
-1.10144e-08
2.55094e-05
-1.18618e-08
2.4833e-05
-1.27259e-08
2.41745e-05
-1.36008e-08
2.35335e-05
-1.44911e-08
2.29094e-05
-1.54005e-08
2.23018e-05
-1.63314e-08
2.17103e-05
-1.72818e-08
2.11345e-05
-1.82603e-08
2.05739e-05
-1.92676e-08
2.00282e-05
-2.03086e-08
1.9497e-05
-2.13791e-08
1.89799e-05
-2.24838e-08
1.84767e-05
-2.36217e-08
1.79869e-05
-2.47958e-08
1.75103e-05
-2.60017e-08
1.70466e-05
-2.72369e-08
1.65954e-05
-2.85008e-08
1.61565e-05
-2.97909e-08
1.57295e-05
-3.10985e-08
1.53142e-05
-3.24198e-08
1.49104e-05
-3.37555e-08
1.45176e-05
-3.5092e-08
1.41357e-05
-3.64291e-08
1.37644e-05
-3.77577e-08
1.34035e-05
-3.90734e-08
1.30525e-05
-4.0368e-08
1.27114e-05
-4.16372e-08
1.23797e-05
-4.28717e-08
1.20574e-05
-4.40672e-08
1.1744e-05
-4.52187e-08
1.14395e-05
-4.63198e-08
1.11434e-05
-4.73661e-08
1.08556e-05
1.05758e-05
9.93314e-09
4.61111e-05
9.84119e-09
4.66467e-05
9.75631e-09
4.71839e-05
9.67555e-09
4.77224e-05
9.59812e-09
4.82618e-05
9.52654e-09
4.8802e-05
9.45984e-09
4.93426e-05
9.39701e-09
4.98832e-05
9.33766e-09
5.04235e-05
9.28303e-09
5.09632e-05
9.22963e-09
5.15019e-05
9.17893e-09
5.20391e-05
9.12966e-09
5.25744e-05
9.07989e-09
5.31073e-05
9.02857e-09
5.36374e-05
8.97905e-09
5.41641e-05
8.92689e-09
5.46869e-05
8.87231e-09
5.52051e-05
8.81106e-09
5.57182e-05
8.74527e-09
5.62254e-05
8.67285e-09
5.67262e-05
8.59032e-09
5.72196e-05
8.49765e-09
5.7705e-05
8.38884e-09
5.81815e-05
8.2689e-09
5.86481e-05
8.12539e-09
5.9104e-05
7.9625e-09
5.9548e-05
7.77915e-09
5.9979e-05
7.56395e-09
5.93553e-05
7.32788e-09
5.77195e-05
7.06383e-09
5.61328e-05
6.77159e-09
5.45935e-05
6.45051e-09
5.30998e-05
6.10443e-09
5.16502e-05
5.72749e-09
5.02433e-05
5.3164e-09
4.88774e-05
4.87406e-09
4.75513e-05
4.40362e-09
4.62636e-05
3.90135e-09
4.50131e-05
3.37288e-09
4.37985e-05
2.81351e-09
4.26186e-05
2.22745e-09
4.14723e-05
1.61999e-09
4.03586e-05
9.88689e-10
3.92763e-05
3.37057e-10
3.82244e-05
-3.33587e-10
3.7202e-05
-1.02153e-09
3.62081e-05
-1.72378e-09
3.52418e-05
-2.43922e-09
3.43022e-05
-3.16641e-09
3.33885e-05
-3.90459e-09
3.24998e-05
-4.65134e-09
3.16355e-05
-5.40937e-09
3.07947e-05
-6.17302e-09
2.99766e-05
-6.94524e-09
2.91807e-05
-7.72381e-09
2.84063e-05
-8.51208e-09
2.76526e-05
-9.30651e-09
2.69191e-05
-1.01058e-08
2.62052e-05
-1.09138e-08
2.55102e-05
-1.17327e-08
2.48338e-05
-1.25591e-08
2.41753e-05
-1.33962e-08
2.35343e-05
-1.4249e-08
2.29102e-05
-1.51184e-08
2.23027e-05
-1.60025e-08
2.17112e-05
-1.69131e-08
2.11354e-05
-1.78479e-08
2.05748e-05
-1.88087e-08
2.00291e-05
-1.97997e-08
1.9498e-05
-2.08242e-08
1.89809e-05
-2.18787e-08
1.84777e-05
-2.29687e-08
1.7988e-05
-2.40908e-08
1.75114e-05
-2.5242e-08
1.70477e-05
-2.64267e-08
1.65966e-05
-2.76324e-08
1.61577e-05
-2.88646e-08
1.57307e-05
-3.0115e-08
1.53155e-05
-3.13825e-08
1.49116e-05
-3.26567e-08
1.45189e-05
-3.39368e-08
1.4137e-05
-3.52142e-08
1.37657e-05
-3.64851e-08
1.34047e-05
-3.77444e-08
1.30538e-05
-3.8982e-08
1.27126e-05
-4.01976e-08
1.2381e-05
-4.13802e-08
1.20586e-05
-4.25286e-08
1.17452e-05
-4.36332e-08
1.14406e-05
-4.46933e-08
1.11445e-05
-4.57004e-08
1.08566e-05
1.05768e-05
9.99795e-09
4.61112e-05
9.90317e-09
4.66468e-05
9.80812e-09
4.7184e-05
9.72543e-09
4.77225e-05
9.64648e-09
4.82619e-05
9.57029e-09
4.88021e-05
9.4992e-09
4.93426e-05
9.43442e-09
4.98832e-05
9.37202e-09
5.04236e-05
9.31149e-09
5.09633e-05
9.25089e-09
5.15019e-05
9.19906e-09
5.20391e-05
9.14409e-09
5.25744e-05
9.09045e-09
5.31074e-05
9.0375e-09
5.36374e-05
8.9814e-09
5.41641e-05
8.92272e-09
5.46869e-05
8.86368e-09
5.52052e-05
8.79951e-09
5.57182e-05
8.7257e-09
5.62255e-05
8.648e-09
5.67263e-05
8.55728e-09
5.72197e-05
8.45877e-09
5.77051e-05
8.34684e-09
5.81816e-05
8.21714e-09
5.86482e-05
8.07232e-09
5.91041e-05
7.90064e-09
5.95481e-05
7.70392e-09
5.99792e-05
7.48575e-09
5.93555e-05
7.23669e-09
5.77198e-05
6.96856e-09
5.61331e-05
6.66987e-09
5.45938e-05
6.34643e-09
5.31001e-05
5.98989e-09
5.16506e-05
5.60406e-09
5.02436e-05
5.18742e-09
4.88778e-05
4.74094e-09
4.75518e-05
4.26386e-09
4.62641e-05
3.76144e-09
4.50136e-05
3.22479e-09
4.3799e-05
2.66515e-09
4.26192e-05
2.08039e-09
4.14729e-05
1.47113e-09
4.03592e-05
8.3867e-10
3.92769e-05
1.92105e-10
3.8225e-05
-4.76408e-10
3.72026e-05
-1.1563e-09
3.62087e-05
-1.85005e-09
3.52425e-05
-2.55438e-09
3.43029e-05
-3.27013e-09
3.33892e-05
-3.9949e-09
3.25006e-05
-4.72579e-09
3.16362e-05
-5.46394e-09
3.07954e-05
-6.20929e-09
2.99774e-05
-6.95772e-09
2.91815e-05
-7.71234e-09
2.8407e-05
-8.46993e-09
2.76533e-05
-9.23078e-09
2.69198e-05
-1.00001e-08
2.62059e-05
-1.07718e-08
2.5511e-05
-1.15507e-08
2.48346e-05
-1.23379e-08
2.41761e-05
-1.31356e-08
2.35351e-05
-1.39445e-08
2.2911e-05
-1.4767e-08
2.23035e-05
-1.56104e-08
2.1712e-05
-1.64731e-08
2.11362e-05
-1.73583e-08
2.05757e-05
-1.82709e-08
2.003e-05
-1.9212e-08
1.94989e-05
-2.01815e-08
1.89819e-05
-2.11848e-08
1.84787e-05
-2.2219e-08
1.7989e-05
-2.32822e-08
1.75125e-05
-2.438e-08
1.70488e-05
-2.55029e-08
1.65977e-05
-2.66539e-08
1.61588e-05
-2.78264e-08
1.57319e-05
-2.90165e-08
1.53167e-05
-3.02208e-08
1.49128e-05
-3.14354e-08
1.45201e-05
-3.2655e-08
1.41382e-05
-3.38739e-08
1.37669e-05
-3.50876e-08
1.34059e-05
-3.62861e-08
1.3055e-05
-3.747e-08
1.27138e-05
-3.86296e-08
1.23821e-05
-3.9762e-08
1.20597e-05
-4.08629e-08
1.17463e-05
-4.19256e-08
1.14416e-05
-4.29457e-08
1.11455e-05
-4.39195e-08
1.08576e-05
1.05777e-05
1.00425e-08
4.61113e-05
9.94601e-09
4.66469e-05
9.85402e-09
4.71841e-05
9.76349e-09
4.77225e-05
9.6813e-09
4.8262e-05
9.60149e-09
4.88022e-05
9.52758e-09
4.93427e-05
9.459e-09
4.98833e-05
9.39132e-09
5.04237e-05
9.32589e-09
5.09633e-05
9.26621e-09
5.1502e-05
9.20549e-09
5.20392e-05
9.14712e-09
5.25745e-05
9.08877e-09
5.31074e-05
9.02879e-09
5.36375e-05
8.96987e-09
5.41642e-05
8.90657e-09
5.4687e-05
8.83767e-09
5.52052e-05
8.76875e-09
5.57183e-05
8.69044e-09
5.62256e-05
8.60894e-09
5.67263e-05
8.51364e-09
5.72198e-05
8.40817e-09
5.77052e-05
8.29026e-09
5.81817e-05
8.15426e-09
5.86484e-05
7.99738e-09
5.91043e-05
7.82339e-09
5.95483e-05
7.61964e-09
5.99794e-05
7.39013e-09
5.93557e-05
7.14227e-09
5.772e-05
6.86198e-09
5.61334e-05
6.55851e-09
5.45941e-05
6.22309e-09
5.31005e-05
5.86136e-09
5.1651e-05
5.47081e-09
5.0244e-05
5.04834e-09
4.88783e-05
4.60006e-09
4.75522e-05
4.11946e-09
4.62646e-05
3.60803e-09
4.50141e-05
3.0734e-09
4.37996e-05
2.51261e-09
4.26197e-05
1.92606e-09
4.14735e-05
1.31858e-09
4.03598e-05
6.91709e-10
3.92775e-05
4.65098e-11
3.82257e-05
-6.11838e-10
3.72033e-05
-1.28567e-09
3.62094e-05
-1.97004e-09
3.52431e-05
-2.66192e-09
3.43036e-05
-3.36244e-09
3.33899e-05
-4.07026e-09
3.25013e-05
-4.78319e-09
3.16369e-05
-5.4977e-09
3.07961e-05
-6.21773e-09
2.99781e-05
-6.93838e-09
2.91822e-05
-7.66307e-09
2.84077e-05
-8.38994e-09
2.76541e-05
-9.11792e-09
2.69206e-05
-9.84755e-09
2.62066e-05
-1.05799e-08
2.55118e-05
-1.13178e-08
2.48353e-05
-1.20617e-08
2.41769e-05
-1.28135e-08
2.35358e-05
-1.35758e-08
2.29118e-05
-1.43514e-08
2.23043e-05
-1.51435e-08
2.17128e-05
-1.59536e-08
2.11371e-05
-1.67874e-08
2.05765e-05
-1.76448e-08
2.00309e-05
-1.85295e-08
1.94998e-05
-1.94449e-08
1.89828e-05
-2.039e-08
1.84797e-05
-2.13642e-08
1.799e-05
-2.23725e-08
1.75135e-05
-2.34051e-08
1.70499e-05
-2.44673e-08
1.65988e-05
-2.55559e-08
1.61599e-05
-2.66641e-08
1.5733e-05
-2.77931e-08
1.53178e-05
-2.89359e-08
1.4914e-05
-3.00867e-08
1.45213e-05
-3.12441e-08
1.41394e-05
-3.24018e-08
1.37681e-05
-3.35531e-08
1.34071e-05
-3.46974e-08
1.30561e-05
-3.58248e-08
1.27149e-05
-3.69323e-08
1.23832e-05
-3.80161e-08
1.20608e-05
-3.90714e-08
1.17473e-05
-4.00926e-08
1.14427e-05
-4.10788e-08
1.11465e-05
-4.20238e-08
1.08585e-05
1.05786e-05
1.00766e-08
4.61114e-05
9.97077e-09
4.6647e-05
9.87636e-09
4.71842e-05
9.78736e-09
4.77226e-05
9.69742e-09
4.82621e-05
9.6183e-09
4.88022e-05
9.5407e-09
4.93428e-05
9.46325e-09
4.98834e-05
9.3949e-09
5.04237e-05
9.326e-09
5.09634e-05
9.26224e-09
5.15021e-05
9.19666e-09
5.20392e-05
9.13477e-09
5.25745e-05
9.07179e-09
5.31075e-05
9.00559e-09
5.36376e-05
8.94092e-09
5.41643e-05
8.87284e-09
5.4687e-05
8.80506e-09
5.52053e-05
8.72599e-09
5.57184e-05
8.64621e-09
5.62257e-05
8.55293e-09
5.67264e-05
8.45405e-09
5.72199e-05
8.34316e-09
5.77053e-05
8.21442e-09
5.81818e-05
8.0737e-09
5.86485e-05
7.91213e-09
5.91044e-05
7.72836e-09
5.95485e-05
7.52115e-09
5.99796e-05
7.28583e-09
5.9356e-05
7.02436e-09
5.77203e-05
6.74121e-09
5.61337e-05
6.42915e-09
5.45944e-05
6.09135e-09
5.31008e-05
5.72243e-09
5.16513e-05
5.32726e-09
5.02444e-05
4.90087e-09
4.88787e-05
4.44453e-09
4.75527e-05
3.96076e-09
4.62651e-05
3.45323e-09
4.50146e-05
2.91401e-09
4.38001e-05
2.3531e-09
4.26203e-05
1.77106e-09
4.14741e-05
1.16532e-09
4.03604e-05
5.44237e-10
3.92781e-05
-9.45016e-11
3.82263e-05
-7.45946e-10
3.72039e-05
-1.40695e-09
3.62101e-05
-2.07779e-09
3.52438e-05
-2.758e-09
3.43043e-05
-3.44098e-09
3.33906e-05
-4.12598e-09
3.2502e-05
-4.81606e-09
3.16376e-05
-5.50692e-09
3.07968e-05
-6.1971e-09
2.99788e-05
-6.8912e-09
2.91829e-05
-7.57964e-09
2.84084e-05
-8.26875e-09
2.76548e-05
-8.9581e-09
2.69213e-05
-9.64667e-09
2.62073e-05
-1.03391e-08
2.55124e-05
-1.1032e-08
2.4836e-05
-1.17262e-08
2.41776e-05
-1.24283e-08
2.35365e-05
-1.31386e-08
2.29125e-05
-1.38616e-08
2.2305e-05
-1.45987e-08
2.17136e-05
-1.53548e-08
2.11378e-05
-1.61302e-08
2.05773e-05
-1.69319e-08
2.00317e-05
-1.77568e-08
1.95006e-05
-1.86106e-08
1.89837e-05
-1.94923e-08
1.84806e-05
-2.04046e-08
1.79909e-05
-2.13463e-08
1.75144e-05
-2.23187e-08
1.70508e-05
-2.33148e-08
1.65998e-05
-2.43351e-08
1.61609e-05
-2.53791e-08
1.57341e-05
-2.64419e-08
1.53189e-05
-2.75186e-08
1.49151e-05
-2.86059e-08
1.45224e-05
-2.96993e-08
1.41405e-05
-3.07954e-08
1.37692e-05
-3.18867e-08
1.34082e-05
-3.29712e-08
1.30572e-05
-3.40449e-08
1.2716e-05
-3.51023e-08
1.23843e-05
-3.61391e-08
1.20618e-05
-3.71508e-08
1.17484e-05
-3.81373e-08
1.14436e-05
-3.90902e-08
1.11474e-05
-4.00106e-08
1.08595e-05
1.05795e-05
1.00887e-08
4.61115e-05
9.98675e-09
4.66471e-05
9.88665e-09
4.71843e-05
9.79204e-09
4.77227e-05
9.70476e-09
4.82622e-05
9.61501e-09
4.88023e-05
9.53699e-09
4.93429e-05
9.45847e-09
4.98835e-05
9.38019e-09
5.04238e-05
9.31006e-09
5.09635e-05
9.24131e-09
5.15021e-05
9.17138e-09
5.20393e-05
9.10338e-09
5.25746e-05
9.03644e-09
5.31076e-05
8.97118e-09
5.36376e-05
8.89705e-09
5.41643e-05
8.82587e-09
5.46871e-05
8.74732e-09
5.52054e-05
8.66732e-09
5.57185e-05
8.57798e-09
5.62258e-05
8.48265e-09
5.67265e-05
8.37668e-09
5.722e-05
8.25672e-09
5.77055e-05
8.12704e-09
5.8182e-05
7.97785e-09
5.86487e-05
7.81071e-09
5.91046e-05
7.62199e-09
5.95487e-05
7.40375e-09
5.99799e-05
7.16208e-09
5.93562e-05
6.89582e-09
5.77205e-05
6.60356e-09
5.6134e-05
6.28753e-09
5.45947e-05
5.94069e-09
5.31012e-05
5.5704e-09
5.16517e-05
5.16783e-09
5.02448e-05
4.73933e-09
4.88791e-05
4.28271e-09
4.75531e-05
3.79746e-09
4.62656e-05
3.28469e-09
4.50151e-05
2.74994e-09
4.38006e-05
2.18973e-09
4.26209e-05
1.61016e-09
4.14747e-05
1.01205e-09
4.0361e-05
3.94999e-10
3.92788e-05
-2.32647e-10
3.82269e-05
-8.71557e-10
3.72046e-05
-1.52047e-09
3.62107e-05
-2.17501e-09
3.52445e-05
-2.83344e-09