/*--------------------------------*- C++ -*----------------------------------*\
  =========                 |
  \\      /  F ield         | OpenFOAM: The Open Source CFD Toolbox
   \\    /   O peration     | Website:  https://openfoam.org
    \\  /    A nd           | Version:  10
     \\/     M anipulation  |
\*---------------------------------------------------------------------------*/
FoamFile
{
    format      ascii;
    class       volScalarField;
    location    "9000";
    object      nut;
}
// * * * * * * * * * * * * * * * * * * * * * * * * * * * * * * * * * * * * * //

dimensions      [0 2 -1 0 0 0 0];

internalField   nonuniform List<scalar> 
17969
(
3.29626e-12
2.94184e-10
1.74887e-09
7.64899e-09
2.27301e-08
4.90173e-08
8.63886e-08
1.35568e-07
2.04122e-07
2.98802e-07
4.30197e-07
6.12007e-07
8.59656e-07
1.18737e-06
1.55429e-06
1.95443e-06
2.43247e-06
3.0897e-06
4.10276e-06
5.21853e-06
6.31433e-06
7.56658e-06
8.96148e-06
1.04842e-05
1.21195e-05
1.3852e-05
1.56672e-05
1.75522e-05
1.94959e-05
2.14898e-05
2.35275e-05
2.56048e-05
2.77199e-05
2.98729e-05
3.20659e-05
3.43027e-05
3.65886e-05
3.89301e-05
4.13347e-05
4.38111e-05
4.63684e-05
4.90162e-05
5.1765e-05
5.46251e-05
5.76076e-05
6.07234e-05
6.39837e-05
6.73998e-05
7.09827e-05
7.47432e-05
7.86916e-05
8.28372e-05
8.71884e-05
9.17513e-05
9.65302e-05
0.000101526
0.000106736
0.000112154
0.000117767
0.000123557
0.0001295
0.000135565
0.000141715
0.000147903
0.000154078
0.000160183
0.000166157
0.000171933
0.000177446
0.000182628
0.00018741
0.000191742
0.000195585
0.00019891
0.000201667
0.000203832
0.00020549
0.000206805
0.000207943
0.00020902
0.000210105
0.000211238
0.000212446
0.00021374
0.000215124
0.000216607
0.000218195
0.000219889
0.00022169
0.000223597
0.000225607
0.000227718
0.000229927
0.00023223
0.000234626
0.00023711
0.000239682
0.00024234
0.000245084
0.000247918
4.43274e-12
3.82669e-10
3.49709e-09
1.93671e-08
5.75002e-08
1.13397e-07
1.82627e-07
2.63465e-07
3.47283e-07
4.45379e-07
5.7829e-07
7.52445e-07
9.75786e-07
1.26184e-06
1.62282e-06
2.0708e-06
2.61421e-06
3.25973e-06
4.01303e-06
4.89289e-06
5.92413e-06
7.10124e-06
8.40996e-06
9.8403e-06
1.1383e-05
1.3027e-05
1.47612e-05
1.65754e-05
1.84607e-05
2.04095e-05
2.24156e-05
2.44743e-05
2.65824e-05
2.87385e-05
3.09428e-05
3.31971e-05
3.5505e-05
3.78715e-05
4.0303e-05
4.2807e-05
4.5392e-05
4.80672e-05
5.08427e-05
5.3729e-05
5.67369e-05
5.98777e-05
6.31627e-05
6.66033e-05
7.02108e-05
7.3996e-05
7.7969e-05
8.21391e-05
8.65138e-05
9.10988e-05
9.58974e-05
0.000100909
0.000106131
0.000111553
0.000117162
0.000122939
0.000128857
0.000134883
0.000140978
0.000147096
0.000153184
0.000159184
0.000165033
0.000170668
0.000176021
0.000181027
0.000185622
0.000189748
0.000193363
0.00019644
0.000198926
0.000200804
0.000202175
0.000203218
0.000204105
0.000204952
0.000205826
0.000206768
0.000207805
0.00020895
0.000210204
0.000211573
0.000213061
0.000214672
0.000216406
0.000218261
0.000220237
0.00022233
0.000224537
0.000226855
0.000229279
0.000231805
0.000234427
0.000237139
0.000239933
0.000242801
5.49317e-12
4.88803e-10
4.38672e-09
2.68806e-08
9.53444e-08
2.07137e-07
3.32156e-07
4.51033e-07
5.89804e-07
7.76627e-07
9.62564e-07
1.1214e-06
1.18433e-06
1.24556e-06
1.3247e-06
1.43465e-06
1.59757e-06
1.82777e-06
2.14755e-06
2.64521e-06
3.48674e-06
4.85356e-06
6.84341e-06
9.32411e-06
1.0721e-05
1.22384e-05
1.38636e-05
1.5587e-05
1.73999e-05
1.92938e-05
2.12614e-05
2.32961e-05
2.53929e-05
2.75483e-05
2.97604e-05
3.20293e-05
3.43568e-05
3.67464e-05
3.9203e-05
4.17332e-05
4.43445e-05
4.70456e-05
4.98461e-05
5.27563e-05
5.5787e-05
5.89493e-05
6.22546e-05
6.57142e-05
6.93395e-05
7.3141e-05
7.71288e-05
8.13115e-05
8.56964e-05
9.02882e-05
9.50893e-05
0.000100099
0.000105311
0.000110716
0.000116299
0.000122039
0.000127908
0.000133873
0.000139892
0.000145919
0.000151901
0.00015778
0.000163494
0.000168978
0.000174166
0.000178993
0.000183397
0.00018732
0.000190711
0.000193535
0.000195739
0.000197309
0.000198365
0.000199107
0.000199714
0.0002003
0.000200931
0.00020165
0.00020248
0.000203437
0.000204527
0.000205746
0.000207098
0.000208587
0.000210216
0.000211983
0.000213888
0.000215929
0.000218103
0.000220408
0.000222837
0.000225388
0.000228053
0.000230826
0.000233703
0.000236676
5.98242e-12
5.49711e-10
3.48378e-09
1.40685e-08
3.74286e-08
7.86821e-08
1.45362e-07
2.40422e-07
3.65221e-07
5.19997e-07
7.04508e-07
9.16364e-07
1.15312e-06
1.41862e-06
1.7237e-06
1.84018e-06
1.97565e-06
2.19915e-06
2.54953e-06
3.15457e-06
4.20927e-06
6.0088e-06
7.34686e-06
8.59905e-06
9.94259e-06
1.1383e-05
1.29265e-05
1.45729e-05
1.63183e-05
1.81566e-05
2.00813e-05
2.2086e-05
2.41648e-05
2.63129e-05
2.8527e-05
3.08054e-05
3.31482e-05
3.55571e-05
3.80358e-05
4.05894e-05
4.32246e-05
4.59492e-05
4.87723e-05
5.17035e-05
5.47535e-05
5.7933e-05
6.12535e-05
6.4726e-05
6.83617e-05
7.21709e-05
7.61632e-05
8.03469e-05
8.47286e-05
8.93125e-05
9.41e-05
9.90891e-05
0.000104274
0.000109642
0.00011518
0.000120863
0.000126664
0.000132549
0.000138475
0.000144397
0.000150262
0.000156011
0.000161584
0.000166915
0.00017194
0.000176594
0.000180813
0.000184538
0.000187715
0.000190294
0.000192215
0.000193469
0.000194199
0.000194629
0.000194942
0.000195249
0.000195618
0.000196089
0.000196688
0.000197428
0.000198317
0.000199349
0.00020053
0.000201863
0.000203353
0.000205002
0.000206809
0.000208776
0.000210899
0.000213177
0.000215604
0.000218175
0.000220885
0.000223724
0.000226687
0.000229765
0.000232948
0.000236229
0.000239599
0.000243051
7.83011e-12
6.94353e-10
9.59401e-09
4.75517e-08
1.14072e-07
2.00968e-07
3.07497e-07
4.32096e-07
5.73997e-07
7.35441e-07
9.15635e-07
1.11725e-06
1.20473e-06
1.12877e-06
1.14913e-06
1.22857e-06
1.38779e-06
1.62059e-06
1.93623e-06
2.38752e-06
3.10813e-06
4.28067e-06
6.09854e-06
7.84009e-06
9.05314e-06
1.03791e-05
1.18365e-05
1.34144e-05
1.51048e-05
1.69004e-05
1.87941e-05
2.07785e-05
2.28471e-05
2.4994e-05
2.72145e-05
2.95053e-05
3.18651e-05
3.42943e-05
3.67951e-05
3.93717e-05
4.20298e-05
4.47763e-05
4.76197e-05
5.05692e-05
5.36349e-05
5.68276e-05
6.0158e-05
6.36372e-05
6.72758e-05
7.10841e-05
7.50711e-05
7.92448e-05
8.3611e-05
8.81734e-05
9.29327e-05
9.78862e-05
0.000103027
0.000108343
0.000113818
0.000119428
0.000125146
0.000130937
0.00013676
0.000142567
0.000148307
0.000153923
0.000159354
0.000164537
0.000169406
0.000173896
0.000177943
0.000181484
0.000184458
0.00018681
0.000188464
0.00018941
0.00018982
0.000189942
0.00018996
0.000189983
0.000190077
0.000190283
0.000190625
0.000191116
0.000191767
0.000192578
0.00019355
0.00019469
0.000196004
0.000197497
0.000199174
0.000201034
0.000203078
0.000205303
0.000207706
0.00021028
0.000213017
0.000215911
0.00021895
0.000222126
0.000225426
0.000228842
0.000232361
0.000235976
5.23238e-12
5.14018e-10
2.92853e-09
1.0995e-08
3.27067e-08
8.0786e-08
1.70487e-07
3.09882e-07
4.95831e-07
7.21383e-07
9.75168e-07
1.23478e-06
1.47035e-06
1.66975e-06
1.85472e-06
2.05363e-06
2.27732e-06
2.3031e-06
2.44107e-06
2.73908e-06
3.29733e-06
4.31011e-06
5.72278e-06
6.77837e-06
7.96452e-06
9.26988e-06
1.06919e-05
1.2228e-05
1.38757e-05
1.56318e-05
1.74918e-05
1.94505e-05
2.15018e-05
2.36397e-05
2.58591e-05
2.81555e-05
3.05265e-05
3.29709e-05
3.54898e-05
3.80858e-05
4.07635e-05
4.3529e-05
4.63896e-05
4.93541e-05
5.24319e-05
5.56332e-05
5.89684e-05
6.24483e-05
6.6083e-05
6.98824e-05
7.38551e-05
7.80085e-05
8.23482e-05
8.68772e-05
9.15956e-05
9.65002e-05
0.000101583
0.000106833
0.000112232
0.000117758
0.000123381
0.000129068
0.000134778
0.000140466
0.000146079
0.000151561
0.000156854
0.000161895
0.000166618
0.000170958
0.000174848
0.000178223
0.000181017
0.000183162
0.000184574
0.000185244
0.00018536
0.000185191
0.000184922
0.000184663
0.000184479
0.000184407
0.000184471
0.000184686
0.000185065
0.000185616
0.00018634
0.000187245
0.000188344
0.000189643
0.00019115
0.000192868
0.000194799
0.000196941
0.000199291
0.000201843
0.000204588
0.000207516
0.000210618
0.000213879
0.000217289
0.000220834
0.0002245
0.000228278
2.53065e-12
2.3801e-10
3.33963e-09
2.05057e-08
6.42167e-08
1.4227e-07
2.55596e-07
2.996e-07
4.41045e-07
8.37954e-07
1.26779e-06
1.59997e-06
1.9329e-06
1.58928e-06
1.3047e-06
1.2765e-06
1.45405e-06
1.74585e-06
2.09363e-06
2.59947e-06
3.372e-06
4.47128e-06
5.58242e-06
6.46495e-06
7.44314e-06
8.55649e-06
9.82466e-06
1.12337e-05
1.27746e-05
1.44417e-05
1.62297e-05
1.81326e-05
2.01434e-05
2.2255e-05
2.44602e-05
2.6753e-05
2.91285e-05
3.15836e-05
3.41172e-05
3.67302e-05
3.94255e-05
4.22078e-05
4.50834e-05
4.80601e-05
5.11466e-05
5.43526e-05
5.7688e-05
6.1163e-05
6.47874e-05
6.85706e-05
7.25209e-05
7.66452e-05
8.09487e-05
8.54339e-05
9.01007e-05
9.49453e-05
9.996e-05
0.000105132
0.000110445
0.000115876
0.000121397
0.000126974
0.000132567
0.000138131
0.000143617
0.000148969
0.00015413
0.000159037
0.000163626
0.000167831
0.000171584
0.000174817
0.000177456
0.000179427
0.000180634
0.000181066
0.000180923
0.000180489
0.000179954
0.000179425
0.000178964
0.000178608
0.00017838
0.000178297
0.000178375
0.00017863
0.000179065
0.000179696
0.000180535
0.000181597
0.000182891
0.000184425
0.000186203
0.000188224
0.000190487
0.000192985
0.000195709
0.00019865
0.000201793
0.000205124
0.00020863
0.000212295
0.000216104
0.000220041
0.000224094
1.73932e-12
1.53699e-10
8.30564e-10
3.49394e-09
1.19408e-08
3.12582e-08
6.66217e-08
1.22107e-07
2.04912e-07
3.33246e-07
5.3092e-07
8.06719e-07
1.15105e-06
1.54378e-06
1.95225e-06
2.35157e-06
2.09965e-06
1.82486e-06
1.75835e-06
1.84477e-06
2.0944e-06
2.58253e-06
3.45732e-06
4.83122e-06
6.69053e-06
7.70356e-06
8.87038e-06
1.01819e-05
1.16316e-05
1.3216e-05
1.49322e-05
1.67761e-05
1.87418e-05
2.08219e-05
2.30083e-05
2.52935e-05
2.76703e-05
3.01337e-05
3.26801e-05
3.53084e-05
3.80196e-05
4.08169e-05
4.37054e-05
4.66917e-05
4.97838e-05
5.29907e-05
5.63219e-05
5.97868e-05
6.33952e-05
6.71558e-05
7.10766e-05
7.51642e-05
7.94233e-05
8.38563e-05
8.84625e-05
9.32382e-05
9.81755e-05
0.000103262
0.000108481
0.000113811
0.000119223
0.000124685
0.000130158
0.0001356
0.00014096
0.000146186
0.000151221
0.000156005
0.000160473
0.00016456
0.000168197
0.000171311
0.000173827
0.000175662
0.000176712
0.000176956
0.000176597
0.00017593
0.000175151
0.000174367
0.000173638
0.000173001
0.000172476
0.000172083
0.00017184
0.000171767
0.000171883
0.000172201
0.000172741
0.000173521
0.000174557
0.000175861
0.00017744
0.000179296
0.00018143
0.000183836
0.000186505
0.000189426
0.000192583
0.000195962
0.000199544
0.000203313
0.00020725
0.000211338
0.00021556
0.000219899
0.000224341
2.27854e-12
2.08364e-10
1.38391e-09
6.3102e-09
1.83476e-08
3.7687e-08
7.31042e-08
1.46104e-07
2.79375e-07
3.95057e-07
4.6474e-07
6.47221e-07
9.97391e-07
1.78309e-06
2.21565e-06
2.51578e-06
2.8132e-06
3.10045e-06
3.37385e-06
3.63714e-06
3.93151e-06
4.31007e-06
4.81845e-06
5.452e-06
6.22262e-06
7.12805e-06
8.15349e-06
9.3076e-06
1.06101e-05
1.20673e-05
1.36767e-05
1.54337e-05
1.7332e-05
1.93636e-05
2.1519e-05
2.37879e-05
2.61607e-05
2.86288e-05
3.11857e-05
3.38276e-05
3.65532e-05
3.93637e-05
4.22629e-05
4.52562e-05
4.83507e-05
5.15549e-05
5.48775e-05
5.83277e-05
6.19147e-05
6.5647e-05
6.95322e-05
7.35765e-05
7.77844e-05
8.21581e-05
8.66967e-05
9.13965e-05
9.62496e-05
0.000101244
0.000106364
0.000111587
0.000116887
0.000122232
0.000127585
0.000132903
0.000138141
0.000143246
0.000148164
0.000152834
0.000157195
0.00016118
0.000164721
0.000167744
0.00017017
0.00017191
0.000172854
0.000172968
0.000172442
0.00017158
0.000170586
0.000169569
0.00016859
0.000167681
0.000166864
0.000166158
0.000165584
0.000165169
0.000164941
0.000164916
0.00016512
0.000165577
0.000166308
0.000167332
0.000168661
0.000170301
0.000172257
0.000174524
0.000177095
0.000179957
0.000183093
0.000186486
0.000190117
0.000193965
0.000198009
0.000202229
0.000206604
0.000211116
0.000215747
0.000220481
3.07548e-12
2.7487e-10
2.71091e-09
1.46281e-08
4.15978e-08
7.79276e-08
1.22902e-07
1.85482e-07
2.7215e-07
3.77001e-07
4.89339e-07
6.07904e-07
7.33285e-07
8.93454e-07
1.13362e-06
1.47529e-06
1.90288e-06
1.95657e-06
1.64464e-06
1.48155e-06
1.52236e-06
1.71485e-06
2.04247e-06
2.57475e-06
3.39062e-06
4.58587e-06
6.22268e-06
8.1778e-06
9.593e-06
1.09058e-05
1.23983e-05
1.40627e-05
1.589e-05
1.78707e-05
1.9993e-05
2.22444e-05
2.46117e-05
2.70831e-05
2.9649e-05
3.23026e-05
3.50401e-05
3.78611e-05
4.07677e-05
4.37643e-05
4.68574e-05
5.00545e-05
5.3364e-05
5.67948e-05
6.03555e-05
6.40543e-05
6.78985e-05
7.18941e-05
7.60452e-05
8.03538e-05
8.48193e-05
8.94377e-05
9.42015e-05
9.90994e-05
0.000104115
0.000109229
0.000114414
0.000119641
0.000124874
0.000130072
0.000135191
0.000140181
0.000144988
0.000149554
0.00015382
0.00015772
0.000161186
0.000164143
0.00016651
0.000168197
0.000169088
0.000169133
0.000168495
0.00016748
0.000166306
0.000165086
0.000163881
0.000162721
0.000161627
0.000160618
0.000159719
0.000158957
0.000158369
0.000157979
0.000157816
0.000157913
0.000158298
0.000158994
0.000160022
0.000161394
0.000163117
0.000165191
0.00016761
0.000170361
0.00017343
0.000176795
0.000180437
0.00018433
0.000188452
0.000192778
0.000197285
0.000201949
0.000206751
0.000211671
0.000216693
0.0002218
2.94584e-12
2.90429e-10
2.01058e-09
8.86661e-09
2.63133e-08
5.78477e-08
1.0372e-07
1.61685e-07
2.31411e-07
3.12701e-07
4.0151e-07
4.97798e-07
6.06167e-07
7.37446e-07
9.07215e-07
9.54224e-07
9.50636e-07
1.03506e-06
1.1968e-06
1.47321e-06
1.93598e-06
2.55947e-06
3.19789e-06
3.85441e-06
4.6886e-06
5.77407e-06
6.7478e-06
7.6163e-06
8.62661e-06
9.80901e-06
1.11804e-05
1.27433e-05
1.44904e-05
1.64105e-05
1.84901e-05
2.07143e-05
2.30673e-05
2.55339e-05
2.81013e-05
3.07595e-05
3.35025e-05
3.63276e-05
3.92356e-05
4.22299e-05
4.53159e-05
4.85006e-05
5.1792e-05
5.51983e-05
5.87279e-05
6.23884e-05
6.61869e-05
7.0129e-05
7.42187e-05
7.84579e-05
8.28458e-05
8.73789e-05
9.20498e-05
9.68477e-05
0.000101757
0.000106759
0.000111829
0.000116938
0.000122052
0.000127132
0.000132136
0.000137015
0.000141719
0.000146191
0.000150373
0.000154202
0.000157611
0.000160524
0.000162863
0.000164535
0.000165423
0.000165461
0.000164773
0.000163653
0.000162339
0.000160951
0.000159551
0.00015817
0.000156825
0.000155535
0.000154325
0.000153225
0.000152275
0.000151508
0.000150959
0.000150666
0.000150666
0.000150989
0.000151665
0.000152713
0.000154146
0.00015597
0.00015818
0.000160768
0.000163717
0.000167007
0.000170613
0.00017451
0.00017867
0.000183065
0.000187668
0.000192454
0.000197398
0.00020248
0.000207678
0.000212974
0.000218353
0.000223798
0.000229299
0.000234842
2.93994e-12
2.9631e-10
4.62599e-09
2.80527e-08
8.47009e-08
1.71987e-07
2.85096e-07
4.18893e-07
5.6474e-07
7.11034e-07
8.53427e-07
8.96631e-07
9.63625e-07
1.12775e-06
1.33875e-06
1.58161e-06
1.78303e-06
2.02491e-06
2.31614e-06
2.66189e-06
3.06013e-06
3.49501e-06
3.95642e-06
4.45336e-06
4.99619e-06
5.59745e-06
6.26766e-06
7.02224e-06
7.89651e-06
8.93197e-06
1.01566e-05
1.15876e-05
1.32262e-05
1.50616e-05
1.70775e-05
1.92556e-05
2.1577e-05
2.40231e-05
2.65776e-05
2.92277e-05
3.19646e-05
3.47836e-05
3.76838e-05
4.06675e-05
4.37391e-05
4.6905e-05
5.01723e-05
5.35488e-05
5.70423e-05
6.066e-05
6.44086e-05
6.82933e-05
7.23179e-05
7.64841e-05
8.07914e-05
8.52362e-05
8.98117e-05
9.45076e-05
9.93097e-05
0.000104199
0.000109154
0.000114145
0.000119141
0.000124106
0.000128998
0.000133771
0.000138378
0.000142764
0.000146873
0.000150643
0.000154009
0.0001569
0.000159236
0.000160926
0.000161855
0.000161945
0.000161273
0.000160103
0.000158693
0.000157179
0.000155623
0.000154055
0.000152494
0.000150955
0.000149462
0.000148046
0.000146744
0.000145603
0.00014466
0.000143958
0.000143542
0.000143453
0.000143728
0.000144396
0.00014548
0.000146991
0.000148931
0.000151294
0.000154065
0.000157224
0.000160744
0.000164596
0.000168749
0.000173171
0.000177833
0.000182703
0.000187754
0.000192962
0.000198302
0.000203754
0.000209301
0.000214925
0.000220613
0.000226354
1.72934e-12
1.7495e-10
1.24802e-09
5.98563e-09
2.1305e-08
5.80146e-08
1.33029e-07
2.66335e-07
4.67633e-07
7.24982e-07
1.00603e-06
1.2691e-06
1.48475e-06
1.6525e-06
1.78841e-06
1.91549e-06
2.05136e-06
2.20827e-06
2.39729e-06
2.62747e-06
2.87034e-06
3.13339e-06
3.39475e-06
3.71994e-06
4.19224e-06
4.83893e-06
5.69699e-06
6.47533e-06
7.27406e-06
8.20845e-06
9.31297e-06
1.0617e-05
1.21367e-05
1.38707e-05
1.58038e-05
1.79155e-05
2.01843e-05
2.25893e-05
2.51115e-05
2.77355e-05
3.04502e-05
3.3249e-05
3.61291e-05
3.90916e-05
4.21398e-05
4.5279e-05
4.85156e-05
5.18565e-05
5.5309e-05
5.88796e-05
6.25744e-05
6.63984e-05
7.03549e-05
7.44456e-05
7.86698e-05
8.30244e-05
8.75029e-05
9.20958e-05
9.67895e-05
0.000101567
0.000106406
0.000111281
0.000116161
0.000121013
0.000125796
0.000130469
0.000134983
0.000139289
0.000143332
0.000147054
0.000150391
0.000153274
0.000155628
0.000157365
0.00015837
0.000158563
0.000157975
0.000156818
0.000155365
0.000153769
0.000152099
0.000150389
0.000148652
0.0001469
0.000145158
0.000143458
0.000141836
0.000140339
0.000139009
0.000137893
0.000137043
0.00013651
0.000136342
0.000136578
0.000137252
0.000138386
0.000139989
0.000142061
0.00014459
0.000147556
0.000150932
0.000154686
0.000158784
0.000163189
0.000167866
0.00017278
0.000177901
0.000183198
0.000188645
0.000194218
0.000199897
0.000205664
0.000211504
0.000217404
1.41475e-12
1.31748e-10
1.4772e-09
1.11961e-08
5.03524e-08
1.51421e-07
3.42196e-07
6.09847e-07
9.06456e-07
1.16025e-06
1.48242e-06
1.74651e-06
1.97157e-06
1.79178e-06
1.73996e-06
1.79056e-06
1.90917e-06
2.18707e-06
2.65952e-06
3.02306e-06
3.21058e-06
3.4372e-06
3.71775e-06
4.06248e-06
4.47616e-06
4.95902e-06
5.51207e-06
6.1426e-06
6.86712e-06
7.71122e-06
8.70636e-06
9.88518e-06
1.12741e-05
1.28844e-05
1.47089e-05
1.67283e-05
1.89193e-05
2.12587e-05
2.37258e-05
2.63029e-05
2.89768e-05
3.1739e-05
3.45851e-05
3.75144e-05
4.05291e-05
4.36331e-05
4.68319e-05
5.01315e-05
5.3538e-05
5.70574e-05
6.0695e-05
6.44552e-05
6.83411e-05
7.23542e-05
7.64939e-05
8.0757e-05
8.51378e-05
8.96271e-05
9.42126e-05
9.88778e-05
0.000103603
0.000108363
0.000113129
0.00011787
0.000122548
0.000127122
0.000131549
0.00013578
0.000139764
0.000143444
0.000146761
0.00014965
0.000152037
0.000153841
0.000154951
0.000155286
0.000154846
0.000153772
0.000152331
0.000150714
0.000148989
0.000147168
0.00014528
0.000143353
0.00014141
0.000139473
0.000137575
0.000135758
0.000134065
0.000132548
0.000131263
0.000130269
0.000129625
0.000129385
0.000129594
0.000130286
0.000131484
0.000133194
0.000135411
0.000138118
0.000141288
0.000144887
0.000148876
0.000153215
0.000157863
0.000162782
0.000167933
0.000173284
0.000178803
0.000184463
0.000190241
0.000196116
0.000202071
0.000208093
1.73741e-12
1.54188e-10
1.25585e-09
7.93824e-09
3.16171e-08
8.1638e-08
1.64655e-07
2.83888e-07
4.39038e-07
6.32468e-07
8.6444e-07
1.13971e-06
1.446e-06
1.75941e-06
1.96166e-06
1.89881e-06
1.86276e-06
1.82652e-06
1.87427e-06
1.96485e-06
2.11894e-06
2.36548e-06
2.73456e-06
3.2224e-06
3.82741e-06
4.56035e-06
5.37582e-06
5.96441e-06
6.6093e-06
7.36723e-06
8.26425e-06
9.33052e-06
1.05951e-05
1.20776e-05
1.37807e-05
1.56905e-05
1.77843e-05
2.0038e-05
2.24295e-05
2.49401e-05
2.75551e-05
3.02644e-05
3.30622e-05
3.59461e-05
3.89169e-05
4.19773e-05
4.51311e-05
4.83833e-05
5.1739e-05
5.5203e-05
5.87802e-05
6.2474e-05
6.62874e-05
7.02214e-05
7.42753e-05
7.84464e-05
8.27291e-05
8.71151e-05
9.15928e-05
9.61469e-05
0.000100759
0.000105405
0.00011006
0.000114692
0.000119267
0.000123746
0.000128088
0.000132248
0.000136176
0.00013982
0.000143124
0.000146025
0.000148457
0.000150343
0.000151578
0.000152087
0.000151862
0.000150972
0.000149623
0.000148014
0.00014625
0.000144355
0.000142359
0.000140302
0.000138202
0.000136079
0.000133955
0.000131867
0.000129853
0.000127965
0.000126262
0.000124809
0.000123675
0.000122926
0.000122623
0.000122816
0.00012354
0.000124817
0.00012665
0.000129026
0.000131922
0.000135302
0.000139126
0.000143348
0.000147922
0.000152803
0.000157948
0.000163318
0.000168877
0.000174594
0.000180441
0.000186396
0.000192438
0.000198552
0.000204726
2.14179e-12
2.02205e-10
1.28275e-09
5.71098e-09
1.7364e-08
3.85367e-08
7.18178e-08
1.27352e-07
2.17754e-07
3.51298e-07
5.44835e-07
6.19701e-07
8.23067e-07
1.2675e-06
1.84899e-06
2.17101e-06
2.48556e-06
2.77968e-06
3.04857e-06
3.28032e-06
3.49272e-06
3.70495e-06
3.93409e-06
4.20246e-06
4.525e-06
4.90482e-06
5.34609e-06
5.85436e-06
6.44409e-06
7.13503e-06
7.95128e-06
8.92078e-06
1.00725e-05
1.14305e-05
1.30061e-05
1.47938e-05
1.67749e-05
1.8926e-05
2.12247e-05
2.36516e-05
2.61914e-05
2.88329e-05
3.1569e-05
3.43959e-05
3.73128e-05
4.03209e-05
4.34226e-05
4.66215e-05
4.99214e-05
5.33263e-05
5.68397e-05
6.04649e-05
6.42038e-05
6.80574e-05
7.2025e-05
7.61037e-05
8.02885e-05
8.45717e-05
8.89423e-05
9.33864e-05
9.78863e-05
0.000102421
0.000106965
0.00011149
0.000115964
0.000120351
0.000124611
0.000128702
0.000132577
0.000136188
0.000139481
0.000142399
0.000144881
0.000146856
0.000148227
0.000148928
0.000148955
0.000148335
0.000147167
0.000145634
0.000143876
0.000141944
0.000139877
0.000137722
0.000135505
0.000133241
0.000130945
0.000128641
0.000126362
0.000124152
0.000122067
0.000120178
0.000118558
0.000117287
0.00011644
0.000116086
0.000116277
0.00011705
0.000118423
0.000120394
0.000122943
0.000126038
0.000129634
0.000133684
0.000138134
0.000142934
0.000148034
0.000153388
0.000158955
0.000164699
0.000170588
0.000176595
0.000182698
0.000188878
0.000195122
2.71474e-12
2.56485e-10
2.71186e-09
1.62283e-08
5.29517e-08
1.10623e-07
1.79381e-07
2.53814e-07
3.38475e-07
4.42783e-07
5.66565e-07
6.68675e-07
7.00793e-07
1.00604e-06
1.29148e-06
1.61334e-06
1.97941e-06
2.36511e-06
1.88683e-06
1.59393e-06
1.46423e-06
1.54182e-06
1.77659e-06
2.25089e-06
2.97891e-06
3.93866e-06
5.02186e-06
5.86361e-06
6.38386e-06
7.0025e-06
7.73972e-06
8.61948e-06
9.6678e-06
1.09089e-05
1.23587e-05
1.40194e-05
1.58784e-05
1.79153e-05
2.01083e-05
2.24382e-05
2.48896e-05
2.74506e-05
3.01132e-05
3.28725e-05
3.57261e-05
3.86736e-05
4.17162e-05
4.48558e-05
4.8095e-05
5.14366e-05
5.48833e-05
5.84373e-05
6.21001e-05
6.58722e-05
6.97528e-05
7.37391e-05
7.78263e-05
8.20073e-05
8.62719e-05
9.06072e-05
9.49968e-05
9.9421e-05
0.000103857
0.000108277
0.000112651
0.000116947
0.000121126
0.000125149
0.000128973
0.000132551
0.000135835
0.000138771
0.000141303
0.000143367
0.000144876
0.000145766
0.000146042
0.000145728
0.000144852
0.000143499
0.000141815
0.000139898
0.000137799
0.000135582
0.000133281
0.000130914
0.000128493
0.000126029
0.000123546
0.000121074
0.000118664
0.000116382
0.000114305
0.000112521
0.00011112
0.000110186
0.000109794
0.000110001
0.000110842
0.00011233
0.000114457
0.000117193
0.000120496
0.000124313
0.000128586
0.000133258
0.000138271
0.000143573
0.000149116
0.000154858
0.000160762
0.000166796
0.000172936
0.000179158
0.000185449
2.59928e-12
2.45742e-10
1.64981e-09
8.42728e-09
2.97892e-08
7.41493e-08
1.45098e-07
2.40193e-07
3.10477e-07
3.67961e-07
4.50202e-07
5.71201e-07
7.47096e-07
9.1227e-07
1.03102e-06
1.06768e-06
1.10744e-06
1.17409e-06
1.2799e-06
1.42416e-06
1.68942e-06
2.11048e-06
2.69716e-06
3.40709e-06
4.13205e-06
4.8351e-06
5.38789e-06
5.82889e-06
6.32637e-06
6.9037e-06
7.58411e-06
8.39191e-06
9.35217e-06
1.04887e-05
1.18202e-05
1.33546e-05
1.50869e-05
1.70017e-05
1.90795e-05
2.13023e-05
2.36546e-05
2.61246e-05
2.87035e-05
3.13854e-05
3.41668e-05
3.70458e-05
4.00221e-05
4.30964e-05
4.62698e-05
4.95439e-05
5.29204e-05
5.64006e-05
5.99855e-05
6.3675e-05
6.74681e-05
7.13619e-05
7.53519e-05
7.94315e-05
8.35912e-05
8.7819e-05
9.20997e-05
9.64151e-05
0.000100744
0.00010506
0.000109337
0.000113542
0.000117641
0.000121597
0.000125369
0.000128914
0.000132187
0.000135139
0.000137718
0.000139867
0.000141506
0.000142574
0.00014308
0.00014305
0.000142504
0.000141462
0.000139976
0.000138151
0.000136078
0.000133839
0.000131484
0.000129044
0.000126534
0.000123961
0.000121333
0.000118667
0.000115999
0.000113387
0.000110904
0.000108642
0.0001067
0.000105178
0.000104172
0.000103761
0.000104006
0.000104938
0.000106564
0.000108865
0.000111802
0.00011532
0.000119358
0.000123851
0.000128734
0.000133947
0.000139433
0.000145143
0.000151036
0.000157074
0.000163227
0.000169472
0.000175787
0.00018216
3.11775e-12
2.93977e-10
2.81627e-09
1.84457e-08
7.37835e-08
1.91442e-07
3.71557e-07
5.93262e-07
8.27867e-07
1.05088e-06
1.24622e-06
1.4003e-06
1.41447e-06
1.31453e-06
1.32777e-06
1.44582e-06
1.68231e-06
2.12722e-06
2.48715e-06
2.72993e-06
3.02543e-06
3.37487e-06
3.76769e-06
4.17549e-06
4.58228e-06
4.98438e-06
5.39077e-06
5.82329e-06
6.30186e-06
6.84762e-06
7.48285e-06
8.23075e-06
9.11495e-06
1.01583e-05
1.138e-05
1.27924e-05
1.43969e-05
1.61847e-05
1.81407e-05
2.02483e-05
2.24931e-05
2.4863e-05
2.73492e-05
2.99449e-05
3.26455e-05
3.54481e-05
3.83511e-05
4.13536e-05
4.44558e-05
4.76579e-05
5.09606e-05
5.43643e-05
5.78692e-05
6.14748e-05
6.51795e-05
6.89807e-05
7.28739e-05
7.68528e-05
8.09086e-05
8.50302e-05
8.92035e-05
9.34116e-05
9.76344e-05
0.000101849
0.000106028
0.000110144
0.000114163
0.000118051
0.00012177
0.000125281
0.00012854
0.000131503
0.000134123
0.000136349
0.000138105
0.000139335
0.000140047
0.000140271
0.000140026
0.000139327
0.000138175
0.000136589
0.000134636
0.000132434
0.000130064
0.000127577
0.000125005
0.000122358
0.000119635
0.000116839
0.000113986
0.000111118
0.0001083
0.000105619
0.000103176
0.000101085
9.94586e-05
9.84011e-05
9.7998e-05
9.83076e-05
9.93575e-05
0.000101145
0.000103638
0.000106788
0.000110528
0.000114786
0.000119491
0.000124573
0.000129967
0.000135615
0.00014147
0.000147488
0.000153634
0.00015988
0.000166202
0.000172584
3.52649e-12
3.22828e-10
2.32037e-09
1.33236e-08
5.34835e-08
1.4867e-07
3.20396e-07
5.76522e-07
8.99756e-07
1.06025e-06
1.22093e-06
1.40958e-06
1.62954e-06
1.90781e-06
2.28761e-06
2.78616e-06
2.86583e-06
2.94678e-06
3.04916e-06
3.18763e-06
3.37368e-06
3.61166e-06
3.90113e-06
4.23674e-06
4.60531e-06
4.99495e-06
5.40224e-06
5.83412e-06
6.30417e-06
6.82996e-06
7.43164e-06
8.13086e-06
8.94983e-06
9.91028e-06
1.10316e-05
1.23285e-05
1.38077e-05
1.54669e-05
1.72964e-05
1.92829e-05
2.1413e-05
2.36752e-05
2.60605e-05
2.85617e-05
3.11734e-05
3.38917e-05
3.6714e-05
3.96382e-05
4.26634e-05
4.57886e-05
4.90134e-05
5.23374e-05
5.57599e-05
5.92799e-05
6.28954e-05
6.66037e-05
7.04002e-05
7.4279e-05
7.8232e-05
8.22486e-05
8.63158e-05
9.04179e-05
9.45363e-05
9.86493e-05
0.000102733
0.000106759
0.000110698
0.000114517
0.000118182
0.000121655
0.000124896
0.000127865
0.000130518
0.00013281
0.000134668
0.000136039
0.000136933
0.000137378
0.000137398
0.000137006
0.000136204
0.000134982
0.000133323
0.000131274
0.000128953
0.000126459
0.000123846
0.000121144
0.00011836
0.000115485
0.000112516
0.000109473
0.000106402
0.000103379
0.000100503
9.78896e-05
9.56658e-05
9.39572e-05
9.28763e-05
9.25112e-05
9.29176e-05
9.41149e-05
9.60879e-05
9.87929e-05
0.000102166
0.00010613
0.000110604
0.00011551
0.000120774
0.000126329
0.000132118
0.000138092
0.00014421
0.000150438
0.00015675
0.000163126
4.58922e-12
4.22837e-10
3.39847e-09
2.13938e-08
9.1491e-08
2.61195e-07
5.56683e-07
9.6249e-07
1.43272e-06
1.91862e-06
2.3818e-06
2.78852e-06
3.1263e-06
3.39031e-06
3.5789e-06
3.69159e-06
3.74799e-06
3.7744e-06
3.79306e-06
3.82671e-06
3.89625e-06
4.02036e-06
4.20755e-06
4.4561e-06
4.75819e-06
5.10347e-06
5.48442e-06
5.89973e-06
6.35485e-06
6.86095e-06
7.43353e-06
8.0909e-06
8.85286e-06
9.7395e-06
1.07697e-05
1.19593e-05
1.33187e-05
1.4851e-05
1.65522e-05
1.84131e-05
2.04228e-05
2.25706e-05
2.48476e-05
2.72464e-05
2.97613e-05
3.23876e-05
3.51217e-05
3.79608e-05
4.09028e-05
4.39457e-05
4.70882e-05
5.03288e-05
5.36662e-05
5.70986e-05
6.06237e-05
6.42384e-05
6.79383e-05
7.17175e-05
7.55683e-05
7.9481e-05
8.34434e-05
8.74407e-05
9.14558e-05
9.54685e-05
9.9456e-05
0.000103393
0.000107251
0.000111001
0.000114609
0.00011804
0.000121259
0.000124227
0.000126905
0.00012925
0.000131195
0.000132686
0.000133736
0.000134372
0.000134619
0.000134493
0.000134
0.000133133
0.000131867
0.000130167
0.000128046
0.000125615
0.000122998
0.000120258
0.000117428
0.000114504
0.000111473
0.000108327
0.00010509
0.000101817
9.85925e-05
9.55306e-05
9.27627e-05
9.04297e-05
8.86688e-05
8.75992e-05
8.73092e-05
8.78482e-05
8.92243e-05
9.1408e-05
9.43406e-05
9.79441e-05
0.000102131
0.000106813
0.000111906
0.000117333
0.000123028
0.000128933
0.000135001
0.000141192
0.000147477
0.000153831
5.70228e-12
5.30844e-10
4.17905e-09
2.59235e-08
1.11472e-07
3.22166e-07
6.93694e-07
1.20179e-06
1.77785e-06
2.35245e-06
2.87946e-06
3.33604e-06
3.71459e-06
4.01506e-06
4.24037e-06
4.39309e-06
4.47721e-06
4.51155e-06
4.51584e-06
4.51135e-06
4.52031e-06
4.56543e-06
4.66529e-06
4.82806e-06
5.05368e-06
5.3366e-06
5.67012e-06
6.04998e-06
6.47648e-06
6.95506e-06
7.4959e-06
8.11288e-06
8.8224e-06
9.64214e-06
1.05896e-05
1.16808e-05
1.29279e-05
1.4338e-05
1.5912e-05
1.76453e-05
1.95303e-05
2.15579e-05
2.37199e-05
2.60091e-05
2.84194e-05
3.09459e-05
3.35844e-05
3.63313e-05
3.91836e-05
4.21387e-05
4.51939e-05
4.83472e-05
5.15963e-05
5.49388e-05
5.83719e-05
6.18922e-05
6.54951e-05
6.9175e-05
7.29244e-05
7.6734e-05
8.05925e-05
8.44862e-05
8.83989e-05
9.2312e-05
9.62042e-05
0.000100052
0.000103829
0.000107507
0.000111055
0.000114442
0.000117633
0.000120593
0.000123286
0.000125673
0.000127688
0.00012928
0.00013046
0.000131257
0.000131697
0.000131797
0.000131569
0.000131009
0.000130101
0.000128814
0.000127095
0.000124922
0.000122386
0.000119643
0.000116776
0.000113813
0.000110747
0.000107556
0.000104231
0.000100799
9.73254e-05
9.39087e-05
9.06771e-05
8.77782e-05
8.53672e-05
8.35916e-05
8.25747e-05
8.24016e-05
8.31118e-05
8.46986e-05
8.71159e-05
9.02891e-05
9.41267e-05
9.85315e-05
0.000103408
0.00010867
0.000114238
0.000120047
0.000126042
0.000132178
0.000138418
0.000144734
6.96071e-12
6.55037e-10
5.42467e-09
3.40614e-08
1.44725e-07
4.08698e-07
8.53257e-07
1.4292e-06
2.05017e-06
2.64681e-06
3.18316e-06
3.64775e-06
4.04119e-06
4.36777e-06
4.6315e-06
4.835e-06
4.97995e-06
5.06861e-06
5.1149e-06
5.13325e-06
5.14139e-06
5.16001e-06
5.2109e-06
5.31093e-06
5.46951e-06
5.68864e-06
5.96586e-06
6.29789e-06
6.68339e-06
7.12444e-06
7.62711e-06
8.20115e-06
8.85935e-06
9.61651e-06
1.04882e-05
1.14892e-05
1.26325e-05
1.39272e-05
1.53777e-05
1.69838e-05
1.87414e-05
2.06442e-05
2.26852e-05
2.48578e-05
2.71562e-05
2.95753e-05