/*--------------------------------*- C++ -*----------------------------------*\
  =========                 |
  \\      /  F ield         | OpenFOAM: The Open Source CFD Toolbox
   \\    /   O peration     | Website:  https://openfoam.org
    \\  /    A nd           | Version:  10
     \\/     M anipulation  |
\*---------------------------------------------------------------------------*/
FoamFile
{
    format      ascii;
    class       volVectorField;
    location    "9000";
    object      Urel;
}
// * * * * * * * * * * * * * * * * * * * * * * * * * * * * * * * * * * * * * //

dimensions      [0 1 -1 0 0 0 0];

internalField   nonuniform List<vector> 
17969
(
(0.152189 -0.126141 0)
(-0.0239335 -0.045148 0)
(0.000126788 -0.0271862 -2.05729e-17)
(0.00721923 -0.0188231 3.98617e-17)
(0.00901837 -0.01101 -1.93613e-17)
(0.0108325 -0.00395859 -1.94631e-17)
(0.0125838 0.00176714 1.87631e-17)
(0.0134633 0.00591966 0)
(0.013257 0.00870076 1.12755e-18)
(0.0124315 0.0104119 0)
(0.0112682 0.0117753 0)
(0.00979305 0.0130022 0)
(0.00819887 0.0142271 0)
(0.0066491 0.0155727 -1.47717e-17)
(0.00527137 0.0171491 1.40511e-17)
(0.00421968 0.0190431 0)
(0.00344537 0.0211532 -1.00093e-17)
(0.00296071 0.0233105 8.69167e-18)
(0.00269045 0.0252707 -7.48384e-18)
(0.00258903 0.0269159 6.52435e-18)
(0.00258533 0.0282539 0)
(0.00263689 0.0293297 0)
(0.00272579 0.0301921 -5.55608e-19)
(0.00283822 0.030887 0)
(0.00295334 0.0314507 0)
(0.00306483 0.0319077 3.23251e-18)
(0.00316643 0.0322778 -5.91693e-18)
(0.00325558 0.0325761 2.72642e-18)
(0.0033317 0.0328142 2.51225e-18)
(0.00339539 0.0330006 -3.03362e-19)
(0.00344795 0.0331411 -2.74368e-18)
(0.00349101 0.0332407 0)
(0.00352629 0.0333046 1.93534e-18)
(0.00355537 0.0333364 -4.12986e-18)
(0.00357938 0.0333377 9.52344e-21)
(0.00359944 0.0333114 3.31194e-18)
(0.00361632 0.0332565 -1.58262e-18)
(0.00362988 0.0331704 -1.8779e-18)
(0.0036401 0.0330551 1.08408e-18)
(0.00364676 0.0329112 0)
(0.00364954 0.0327388 3.29547e-19)
(0.00364799 0.0325381 3.15651e-19)
(0.00364158 0.0323092 2.41008e-18)
(0.00362971 0.0320526 -2.32755e-18)
(0.00361177 0.0317687 -2.21208e-18)
(0.00358713 0.0314582 -5.13453e-19)
(0.00355522 0.0311219 2.04745e-18)
(0.00351549 0.0307606 1.94182e-18)
(0.00346744 0.0303753 -1.87317e-20)
(0.0034106 0.0299668 -1.79479e-18)
(0.00334452 0.0295362 -2.12349e-18)
(0.00326869 0.0290847 2.04648e-18)
(0.00318258 0.028613 0)
(0.00308556 0.0281225 0)
(0.00297695 0.0276139 3.53427e-19)
(0.00285602 0.0270882 2.00998e-18)
(0.00272205 0.0265459 -1.29098e-18)
(0.00257436 0.0259875 0)
(0.00241231 0.0254128 0)
(0.00223536 0.0248215 5.40962e-19)
(0.00204302 0.0242128 -1.05617e-18)
(0.00183485 0.0235855 0)
(0.00161052 0.0229383 0)
(0.00136972 0.0222689 -4.48393e-19)
(0.00111228 0.0215748 -8.41727e-19)
(0.000838111 0.0208523 4.25214e-19)
(0.000547191 0.0200969 7.79659e-19)
(0.000239694 0.0193031 0)
(-8.3608e-05 0.0184641 0)
(-0.000422267 0.0175722 0)
(-0.000776718 0.016619 6.15949e-19)
(-0.00114685 0.0155935 -3.48553e-20)
(-0.00152878 0.0144817 -1.15378e-18)
(-0.00190507 0.0132682 0)
(-0.00226912 0.011967 4.98635e-19)
(-0.00263684 0.0106269 4.62974e-19)
(-0.00300073 0.00927117 -4.27505e-19)
(-0.00334379 0.00789458 0)
(-0.00366275 0.00649335 0)
(-0.00395714 0.00506631 0)
(-0.00422603 0.00361398 0)
(-0.00446836 0.00213797 0)
(-0.0046828 0.000640814 4.88142e-19)
(-0.00486881 -0.00087417 -7.9822e-19)
(-0.00502668 -0.00240242 5.26992e-19)
(-0.0051559 -0.00394002 -9.14762e-20)
(-0.00525588 -0.00548269 0)
(-0.00532676 -0.00702581 0)
(-0.00536858 -0.00856467 0)
(-0.00538191 -0.0100946 -1.54083e-19)
(-0.00536712 -0.0116109 2.01294e-19)
(-0.0053246 -0.0131094 1.53048e-19)
(-0.00525533 -0.0145854 -1.47166e-19)
(-0.00515993 -0.0160344 1.05597e-19)
(-0.00503914 -0.0174521 -1.9793e-19)
(-0.00489442 -0.0188337 7.22891e-20)
(-0.00472782 -0.0201744 0)
(-0.00453248 -0.0214689 -3.28668e-20)
(-0.00428413 -0.02271 3.15523e-20)
(-0.00403912 -0.023886 1.47211e-21)
(0.153289 -0.123267 0)
(-0.0262532 -0.047674 -3.9924e-17)
(-0.00395966 -0.0325612 4.24733e-17)
(-0.00292675 -0.0283886 1.36444e-18)
(-0.00506204 -0.0238997 9.30502e-17)
(-0.00600289 -0.019855 -2.04973e-16)
(-0.00567659 -0.016069 1.16007e-16)
(-0.00434947 -0.0113041 1.1049e-16)
(-0.00269915 -0.00638279 -9.41089e-17)
(-0.000867249 -0.00198377 -8.21686e-17)
(0.000663414 0.00215982 1.47772e-19)
(0.00205256 0.0059455 5.94799e-17)
(0.00319386 0.00955853 0)
(0.0040546 0.0131745 0)
(0.00457132 0.0166361 -4.39403e-17)
(0.00467927 0.0197467 4.05358e-17)
(0.00455432 0.022406 0)
(0.00426474 0.0245925 -3.22812e-17)
(0.0038849 0.0263403 3.01387e-17)
(0.00348379 0.0277158 0)
(0.00313818 0.0287947 -2.34713e-17)
(0.00288761 0.0296366 1.97545e-17)
(0.00272578 0.030296 5.88918e-19)
(0.00261575 0.0308289 0)
(0.0025482 0.0312724 1.53151e-17)
(0.00251669 0.031644 -9.25335e-19)
(0.00251407 0.031959 -2.5493e-17)
(0.00253797 0.0322276 1.17359e-17)
(0.00258144 0.0324557 -6.76093e-19)
(0.00263755 0.0326465 1.03315e-17)
(0.00270116 0.032803 -8.79877e-18)
(0.00276506 0.0329269 0)
(0.00282707 0.0330183 7.18921e-18)
(0.00288507 0.0330767 -6.33466e-18)
(0.00293774 0.0331027 0)
(0.00298457 0.0330968 8.71486e-19)
(0.00302556 0.0330608 -8.28286e-19)
(0.0030608 0.0329972 -5.89521e-18)
(0.00309007 0.0329048 1.24084e-17)
(0.00311347 0.0327833 -7.56627e-19)
(0.0031311 0.0326328 -5.85095e-18)
(0.00314294 0.0324535 -6.21325e-18)
(0.0031488 0.0322459 1.00416e-17)
(0.00314839 0.0320105 -1.08096e-17)
(0.00314131 0.0317479 9.19455e-18)
(0.00312716 0.0314589 -3.86821e-18)
(0.0031055 0.0311442 4.18874e-18)
(0.00307597 0.0308048 -9.05413e-18)
(0.00303819 0.0304417 7.69284e-18)
(0.0029918 0.030056 -7.34947e-18)
(0.00293635 0.0296488 3.08937e-18)
(0.00287134 0.0292212 -4.18489e-19)
(0.00279617 0.0287742 0)
(0.00271018 0.0283088 0)
(0.00261265 0.027826 -3.62174e-19)
(0.00250289 0.0273264 -6.89406e-19)
(0.00238023 0.0268106 2.60355e-18)
(0.00224407 0.0262787 -3.76067e-18)
(0.00209385 0.0257308 -4.7007e-18)
(0.00192906 0.0251662 6.42236e-19)
(0.00174927 0.0245843 4.31717e-18)
(0.00155412 0.0239837 5.0376e-18)
(0.00134333 0.023363 -4.8628e-18)
(0.00111672 0.0227199 4.5802e-19)
(0.000874218 0.0220517 0)
(0.000615813 0.0213547 4.13524e-19)
(0.000341579 0.0206242 3.10183e-18)
(5.16747e-05 0.0198544 -3.03361e-18)
(-0.000253406 0.0190385 -1.42255e-18)
(-0.000572635 0.0181678 -1.30795e-18)
(-0.00090559 0.017233 2.61893e-18)
(-0.00125274 0.0162236 1.83245e-18)
(-0.00161029 0.0151255 2.27047e-18)
(-0.00196008 0.0139227 -2.24019e-18)
(-0.00229592 0.0126276 -5.13052e-19)
(-0.00263507 0.011288 -4.77358e-19)
(-0.00297097 0.00992756 4.41728e-19)
(-0.00328693 0.00854118 8.16275e-19)
(-0.00357988 0.00712504 2.21556e-18)
(-0.00384955 0.00567784 -8.13002e-20)
(-0.00409527 0.00419998 -1.3075e-18)
(-0.00431626 0.00269306 -2.89617e-19)
(-0.00451172 0.00115963 0)
(-0.00468067 -0.000396977 1.19173e-19)
(-0.00482381 -0.00197212 -1.07177e-19)
(-0.00494157 -0.00356129 9.58393e-20)
(-0.00503326 -0.00515998 0)
(-0.00509911 -0.00676333 0)
(-0.00513964 -0.00836636 -1.00941e-18)
(-0.00515553 -0.00996407 3.7248e-20)
(-0.00514755 -0.0115516 8.43719e-19)
(-0.00511662 -0.0131242 0)
(-0.00506374 -0.0146774 0)
(-0.00498987 -0.0162074 4.42082e-19)
(-0.00489597 -0.0177107 -7.67381e-19)
(-0.00478309 -0.0191843 3.69682e-19)
(-0.00465161 -0.020626 0)
(-0.00450176 -0.0220338 0)
(-0.0043325 -0.0234087 -7.0877e-20)
(-0.00414319 -0.0247569 4.60629e-20)
(0.155276 -0.11462 4.10798e-17)
(-0.0247821 -0.0362783 -8.43644e-17)
(-0.00154154 -0.0161741 1.82164e-16)
(-0.000150541 -0.00718752 -8.67051e-17)
(-0.00266375 -0.00128929 2.28903e-18)
(-0.00504084 0.00147342 0)
(-0.00728307 0.00262896 1.75241e-18)
(-0.00951701 0.00300956 0)
(-0.0114803 0.00333088 0)
(-0.0130162 0.0038487 2.87627e-18)
(-0.014076 0.00450641 1.39543e-18)
(-0.014404 0.00562266 0)
(-0.0142557 0.00720938 0)
(-0.0135913 0.00930072 2.87935e-18)
(-0.0124381 0.0116038 -4.77766e-17)
(-0.0108983 0.0140263 4.48515e-17)
(-0.00912896 0.0164991 -4.68601e-17)
(-0.00723914 0.0188878 4.96216e-17)
(-0.00533015 0.0211142 -1.48499e-18)
(-0.00352299 0.0231467 -4.44751e-17)
(-0.00203991 0.0249892 3.18478e-17)
(-0.000946888 0.0265684 3.32173e-18)
(-0.000169326 0.0278524 1.3387e-18)
(0.000419553 0.0288842 0)
(0.000902955 0.0297261 0)
(0.0012919 0.0304194 1.5926e-17)
(0.00159617 0.030989 -1.20107e-17)
(0.00183006 0.031457 -1.57016e-18)
(0.00200926 0.0318408 -9.38426e-18)
(0.00214739 0.0321534 1.07517e-17)
(0.00225295 0.0324067 0)
(0.00233622 0.0326069 0)
(0.00240389 0.0327579 1.09278e-18)
(0.0024608 0.0328641 1.53773e-17)
(0.00251006 0.0329295 -3.10386e-17)
(0.00255343 0.0329575 1.38051e-17)
(0.00259177 0.0329508 8.69926e-19)
(0.00262572 0.0329116 -1.65291e-18)
(0.0026556 0.0328411 1.57275e-18)
(0.00268142 0.0327401 7.49164e-19)
(0.00270303 0.0326093 0)
(0.00272018 0.0324495 6.8203e-19)
(0.00273252 0.0322614 1.30288e-18)
(0.00273966 0.0320457 -8.67324e-18)
(0.00274115 0.0318033 7.9491e-20)
(0.00273649 0.0315348 1.02689e-17)
(0.00272517 0.0312411 0)
(0.00270667 0.0309229 -1.00337e-22)
(0.00268052 0.0305812 -1.98097e-18)
(0.00264621 0.030217 0)
(0.00260324 0.0298316 9.0167e-19)
(0.00255106 0.0294261 -6.83741e-18)
(0.00248906 0.0290017 6.59256e-18)
(0.00241659 0.0285595 0)
(0.00233298 0.0281002 1.48467e-18)
(0.00223758 0.0276246 0)
(0.00212977 0.0271329 -1.34253e-18)
(0.00200902 0.0266253 -5.06258e-18)
(0.00187484 0.0261017 4.88764e-18)
(0.0017268 0.0255616 1.15095e-18)
(0.00156455 0.0250042 0)
(0.0013878 0.0244283 -5.14709e-18)
(0.0011964 0.0238321 1.08385e-17)
(0.000990261 0.0232133 -8.35254e-20)
(0.000769441 0.0225691 -1.8626e-18)
(0.000534075 0.0218956 -9.30466e-19)
(0.000284386 0.0211882 -6.42548e-18)
(2.06658e-05 0.0204409 8.85851e-20)
(-0.000256685 0.0196467 5.86107e-18)
(-0.000546944 0.0187969 4.1159e-23)
(-0.000848611 0.0178811 0)
(-0.00116111 0.0168874 3.66384e-18)
(-0.00148216 0.015802 9.89605e-19)
(-0.0017944 0.0146097 -4.60601e-18)
(-0.00209148 0.013322 0)
(-0.00239205 0.0119849 0)
(-0.00269067 0.0106219 -9.13889e-19)
(-0.00297103 0.00922859 2.4471e-18)
(-0.00323024 0.00780098 -7.04011e-18)
(-0.00346821 0.00633771 5.76579e-18)
(-0.00368431 0.00483904 -3.39004e-18)
(-0.00387783 0.00330644 -2.0413e-18)
(-0.00404807 0.00174241 2.27996e-18)
(-0.00419378 0.000150226 -2.18064e-18)
(-0.00431521 -0.00146592 3.60224e-18)
(-0.00441286 -0.00310086 -1.67486e-18)
(-0.00448584 -0.00475003 1.37497e-18)
(-0.00453376 -0.00640839 -2.53915e-18)
(-0.00455667 -0.00807067 1.06336e-19)
(-0.00455478 -0.00973151 1.00218e-19)
(-0.0045284 -0.0113856 9.93971e-19)
(-0.004478 -0.0130277 0)
(-0.00440418 -0.014653 5.65936e-19)
(-0.0043077 -0.0162567 -1.0093e-18)
(-0.00418948 -0.0178348 2.23905e-20)
(-0.00405058 -0.0193834 4.88184e-20)
(-0.00389219 -0.0208992 3.41488e-20)
(-0.00371568 -0.0223797 3.90082e-20)
(-0.00352271 -0.0238229 1.17305e-19)
(-0.00331537 -0.0252287 3.20296e-21)
(0.158256 -0.114114 -1.29969e-18)
(-0.0211012 -0.0506731 -1.547e-16)
(0.00116717 -0.0310193 2.51219e-19)
(0.00783553 -0.0230782 4.75773e-18)
(0.00921805 -0.016709 1.26966e-16)
(0.0110316 -0.0109148 1.12809e-16)
(0.0134669 -0.00578171 -1.83817e-18)
(0.0155368 -0.000946031 -9.95959e-17)
(0.0171124 0.00325308 0)
(0.0181766 0.00653635 8.97191e-17)
(0.0189266 0.00903062 -8.7894e-17)
(0.0191268 0.0110687 0)
(0.0188747 0.0130033 0)
(0.018122 0.0150244 -2.65842e-18)
(0.0168209 0.0171252 2.56291e-18)
(0.0150406 0.0192147 2.42772e-18)
(0.0129982 0.0211783 7.06051e-17)
(0.0108601 0.022988 -6.82982e-17)
(0.00872833 0.0246308 0)
(0.00675983 0.0260599 1.81616e-18)
(0.00511224 0.0272632 5.78388e-17)
(0.00386407 0.0282428 -9.74047e-17)
(0.00298868 0.0290318 4.20175e-17)
(0.00241979 0.0296726 2.44884e-18)
(0.00205912 0.0302065 3.55263e-17)
(0.00184645 0.0306639 -3.25071e-17)
(0.0017314 0.0310615 -3.14534e-17)
(0.00167998 0.0314084 3.06555e-17)
(0.00167368 0.0317108 8.81355e-23)
(0.00169716 0.0319744 -2.30761e-17)
(0.00174066 0.0321981 2.14995e-17)
(0.00179856 0.0323828 0)
(0.00186399 0.0325301 0)
(0.00193064 0.0326423 -1.74426e-17)
(0.00199602 0.0327209 1.85456e-17)
(0.00205867 0.0327664 -1.5463e-17)
(0.00211719 0.0327797 1.47025e-17)
(0.00217086 0.0327615 -1.21085e-17)
(0.0022193 0.0327124 -1.56259e-18)
(0.00226228 0.0326331 8.41967e-20)
(0.00229965 0.0325242 2.38488e-17)
(0.00233124 0.0323862 -2.27204e-17)
(0.00235695 0.0322199 9.51825e-18)
(0.00237665 0.032026 0)
(0.00239021 0.0318053 0)
(0.00239748 0.0315586 -1.17579e-18)
(0.00239826 0.0312868 -8.93522e-18)
(0.00239227 0.0309908 7.53439e-18)
(0.00237913 0.0306715 -6.08551e-18)
(0.00235838 0.0303301 9.77652e-18)
(0.00232949 0.0299677 9.23738e-18)
(0.00229188 0.0295855 -8.87915e-18)
(0.00224495 0.0291847 0)
(0.00218811 0.0287662 -4.76303e-18)
(0.00212077 0.0283308 6.13329e-18)
(0.00204234 0.0278791 0)
(0.0019523 0.0274114 1.37568e-18)
(0.00185015 0.0269278 1.3067e-18)
(0.00173546 0.0264282 -2.48193e-18)
(0.0016079 0.0259121 -1.17806e-18)
(0.00146722 0.0253785 2.23695e-18)
(0.00131329 0.0248264 8.40976e-18)
(0.00114608 0.0242538 -1.01652e-17)
(0.000965642 0.0236586 7.57303e-18)
(0.000772153 0.0230376 -1.09128e-17)
(0.000565869 0.022387 7.00161e-18)
(0.000347143 0.021702 -8.12814e-18)
(0.000116426 0.0209768 7.9071e-18)
(-0.00012572 0.0202041 -1.48781e-18)
(-0.000378592 0.0193753 -6.988e-18)
(-0.000641436 0.01848 5.49453e-18)
(-0.000913654 0.0175053 0)
(-0.00119098 0.0164361 -1.22487e-18)
(-0.00145619 0.0152567 0)
(-0.0017061 0.0139785 0)
(-0.00196107 0.0126473 0)
(-0.0022159 0.0112873 4.63872e-18)
(-0.00245444 0.00989375 -3.6154e-18)
(-0.00267409 0.00846255 -1.63016e-18)
(-0.002875 0.00699198 -1.50529e-18)
(-0.00305674 0.00548204 6.92646e-19)
(-0.00321871 0.00393399 -6.34691e-19)
(-0.00336036 0.00235007 -2.23922e-18)
(-0.00348075 0.000733312 2.17884e-18)
(-0.00357918 -0.000912605 1.82949e-18)
(-0.00365616 -0.00258259 -1.33473e-19)
(-0.00371136 -0.00427217 -4.48471e-18)
(-0.00374365 -0.0059765 2.38586e-19)
(-0.00375273 -0.00769045 2.47374e-18)
(-0.00373843 -0.00940869 -2.57492e-19)
(-0.00370072 -0.0111258 1.11229e-19)
(-0.00363965 -0.0128366 -1.42972e-18)
(-0.00355545 -0.0145357 1.37468e-18)
(-0.00344851 -0.0162183 -6.67094e-20)
(-0.00331938 -0.0178797 5.42824e-20)
(-0.00316875 -0.0195158 5.68867e-19)
(-0.00299746 -0.0211226 -1.00399e-18)
(-0.00280651 -0.0226969 4.54158e-19)
(-0.00259701 -0.0242359 1.69958e-19)
(-0.00237033 -0.0257371 -2.13048e-19)
(-0.00212786 -0.0271985 -8.80966e-21)
(-0.00187096 -0.0286188 6.12323e-20)
(-0.00160151 -0.0299974 -2.38618e-19)
(-0.00132003 -0.0313349 2.28451e-19)
(0.156564 -0.105893 8.68288e-17)
(-0.0257347 -0.0334707 0)
(-0.00677796 -0.0165718 1.43347e-16)
(-0.0106483 -0.0163194 1.65418e-18)
(-0.0153627 -0.0149283 -2.04431e-16)
(-0.0184201 -0.0141271 1.86634e-16)
(-0.0205502 -0.0134894 -8.57221e-17)
(-0.0220398 -0.012518 0)
(-0.0226007 -0.0115303 9.21308e-17)
(-0.0225463 -0.0101748 -1.84038e-16)
(-0.0220382 -0.00855645 9.29537e-17)
(-0.0212934 -0.00663978 -3.12177e-18)
(-0.0202452 -0.00379817 1.03352e-16)
(-0.0185225 0.000120428 -2.1196e-16)
(-0.0167129 0.00454704 1.07178e-16)
(-0.01467 0.00910786 -7.18962e-18)
(-0.0123935 0.0133097 1.1815e-16)
(-0.0100247 0.0168981 -1.12296e-16)
(-0.00767502 0.0198094 0)
(-0.00542701 0.0220309 1.09793e-16)
(-0.00347712 0.023739 -1.05629e-16)
(-0.00199655 0.0251584 -4.72865e-18)
(-0.000953948 0.0263439 0)
(-0.000266687 0.0273381 -5.89838e-18)
(0.000196254 0.0282012 0)
(0.000538814 0.0289784 3.33884e-17)
(0.000808484 0.029671 1.89729e-18)
(0.00101606 0.0302704 -3.33469e-17)
(0.00117321 0.0307816 -1.69475e-18)
(0.00129606 0.031211 0)
(0.00139647 0.0315675 0)
(0.00148135 0.031858 0)
(0.00155369 0.0320918 -1.73823e-17)
(0.00161876 0.0322756 1.86637e-17)
(0.00167938 0.0324128 -2.18101e-18)
(0.00173624 0.0325069 1.63568e-17)
(0.00178992 0.0325608 -1.35746e-17)
(0.00184049 0.032577 1.45626e-17)
(0.00188779 0.0325577 -1.38736e-17)
(0.00193164 0.0325047 0)
(0.00197183 0.0324197 1.55248e-17)
(0.00200814 0.0323043 -1.1885e-17)
(0.00204032 0.0321599 8.40848e-18)
(0.00206812 0.0319875 -8.09099e-18)
(0.00209124 0.0317881 2.55601e-18)
(0.00210937 0.0315627 -2.43572e-18)
(0.00212214 0.0313123 0)
(0.00212913 0.0310378 -2.37632e-22)
(0.00212985 0.0307403 0)
(0.00212375 0.0304211 1.39676e-17)
(0.00211024 0.0300813 -1.7287e-17)
(0.00208873 0.029722 1.81918e-18)
(0.00205863 0.0293443 -1.37618e-17)
(0.00201938 0.0289489 1.1605e-17)
(0.00197045 0.0285366 -1.56429e-18)
(0.00191133 0.0281079 0)
(0.00184154 0.0276632 0)
(0.00176068 0.0272026 -1.06378e-17)
(0.00166838 0.0267258 2.71411e-18)
(0.00156442 0.0262325 9.7457e-18)
(0.00144868 0.0257216 6.79116e-18)
(0.00132115 0.0251919 -8.7888e-18)
(0.00118195 0.0246417 0)
(0.00103128 0.0240685 0)
(0.000869439 0.0234694 -1.86298e-18)
(0.000696828 0.0228404 0)
(0.000513927 0.0221768 -1.68354e-18)
(0.000321323 0.0214726 4.71047e-18)
(0.000119722 0.0207206 -6.1902e-18)
(-9.00255e-05 0.0199121 2.90233e-18)
(-0.000307109 0.0190369 2.7648e-18)
(-0.000531209 0.0180824 2.63468e-18)
(-0.000759197 0.0170333 0)
(-0.000974054 0.0158727 2.27133e-18)
(-0.00117112 0.0146101 -2.35811e-18)
(-0.00137218 0.0132904 4.11375e-18)
(-0.00157551 0.0119379 -2.07165e-18)
(-0.00176625 0.0105492 7.13051e-18)
(-0.00194152 0.00912067 -3.84856e-19)
(-0.0021011 0.00765067 1.20457e-18)
(-0.00224439 0.00613877 -5.98787e-18)
(-0.00237086 0.00458551 4.49804e-18)
(-0.00248008 0.00299258 -3.82306e-18)
(-0.00257134 0.00136248 0)
(-0.00264329 -0.000301566 5.02458e-19)
(-0.00269635 -0.00199519 3.46455e-18)
(-0.00273058 -0.00371376 -6.6995e-19)
(-0.00274439 -0.00545274 -2.53458e-19)
(-0.00273703 -0.0072072 -2.62786e-18)
(-0.00270807 -0.00897189 1.48471e-22)
(-0.00265716 -0.0107414 1.31412e-18)
(-0.00258411 -0.0125101 -1.72053e-18)
(-0.00248892 -0.0142727 1.27351e-18)
(-0.00237179 -0.0160237 -1.29451e-18)
(-0.00223315 -0.017758 8.39027e-19)
(-0.00207361 -0.0194708 -7.59552e-19)
(-0.001894 -0.0211577 0)
(-0.00169531 -0.0228147 0)
(-0.0014787 -0.0244384 1.94592e-19)
(-0.00124544 -0.0260257 -1.6475e-19)
(-0.000996872 -0.0275742 -3.2248e-22)
(-0.000734364 -0.0290819 4.97118e-23)
(-0.000459548 -0.0305474 -2.53265e-19)
(-0.000173878 -0.0319703 2.42231e-19)
(0.161528 -0.103023 -3.9431e-18)
(-0.0183281 -0.0388562 3.34035e-16)
(0.0045327 -0.0122071 -3.49949e-16)
(0.0121375 -0.0027845 1.59516e-16)
(0.0125995 -0.000263347 0)
(0.0129029 -0.000627867 0)
(0.0137616 -0.00182248 -9.85681e-18)
(0.0144712 -0.0025533 -1.51251e-16)
(0.0150082 -0.00278042 2.77216e-16)
(0.0156842 -0.00225837 -1.28552e-16)
(0.0164781 -0.000791271 0)
(0.0172111 0.00153088 3.60814e-22)
(0.0176884 0.00429797 -3.03911e-18)
(0.0174567 0.00705522 0)
(0.0171387 0.00954757 5.16112e-18)
(0.0160345 0.012152 4.73214e-18)
(0.0141473 0.0149026 -4.42991e-18)
(0.0120418 0.0174343 -4.24317e-18)
(0.00986207 0.0197828 0)
(0.00775988 0.0219343 0)
(0.00588357 0.0238853 3.73971e-18)
(0.0043537 0.0255676 -2.54017e-23)
(0.00320721 0.0269282 3.22669e-18)
(0.00241977 0.0279697 -7.06312e-23)
(0.00191754 0.0287853 0)
(0.00159441 0.0294543 -2.4304e-18)
(0.0013929 0.0300111 -6.63549e-18)
(0.00126921 0.0304795 -2.01739e-18)
(0.00119753 0.030876 0)
(0.00116995 0.0312117 0)
(0.00117147 0.0314955 -3.11799e-18)
(0.00119255 0.0317354 2.88163e-18)
(0.00122821 0.0319366 1.5982e-17)
(0.00127506 0.0321002 -2.59204e-18)
(0.00132841 0.0322272 -2.42464e-18)
(0.00138565 0.0323196 -1.96354e-17)
(0.00144468 0.0323786 -1.63067e-17)
(0.00150373 0.0324052 1.93032e-17)
(0.00156134 0.0323999 -1.44947e-17)
(0.00161641 0.0323635 1.38003e-17)
(0.00166818 0.0322967 -3.25759e-18)
(0.00171617 0.0322006 0)
(0.00176013 0.032076 2.63289e-17)
(0.00179993 0.0319238 -2.24113e-17)
(0.00183546 0.0317451 -2.6539e-18)
(0.00186654 0.0315407 2.52529e-18)
(0.00189288 0.0313115 2.40371e-18)
(0.00191408 0.0310586 -1.36387e-17)
(0.00192967 0.0307831 1.75059e-17)
(0.00193913 0.030486 0)
(0.00194192 0.0301684 -3.94236e-18)
(0.00193752 0.0298315 0)
(0.00192543 0.029476 0)
(0.00190517 0.0291028 -3.38718e-18)
(0.00187625 0.0287127 0)
(0.00183821 0.028306 -3.05558e-18)
(0.00179063 0.0278832 2.90078e-18)
(0.00173316 0.0274444 -1.09247e-17)
(0.00166555 0.0269893 1.31491e-17)
(0.00158769 0.0265174 9.82771e-18)
(0.00149957 0.0260279 -1.18482e-17)
(0.00140129 0.0255194 4.46448e-18)
(0.00129308 0.0249902 4.14764e-18)
(0.00117527 0.0244378 -8.13538e-18)
(0.00104828 0.0238593 7.5507e-18)
(0.000912632 0.0232508 -7.35299e-18)
(0.000768964 0.0226074 3.45134e-18)
(0.00061799 0.0219233 6.47033e-18)
(0.000460536 0.0211912 -6.34546e-18)
(0.000297564 0.0204026 -2.9747e-18)
(0.000130007 0.0195472 -5.66779e-18)
(-4.17294e-05 0.0186125 2.59485e-18)
(-0.0002147 0.0175837 7.39572e-18)
(-0.000372497 0.0164443 -2.66744e-18)
(-0.000512266 0.0152033 6.70034e-18)
(-0.000657898 0.0139027 -8.91693e-18)
(-0.000807738 0.0125661 1.02495e-22)
(-0.000946485 0.0111906 -5.5074e-18)
(-0.00107165 0.00977272 9.08506e-18)
(-0.00118411 0.00831069 0)
(-0.00128465 0.00680426 0)
(-0.00137283 0.00525399 1.40419e-18)
(-0.00144781 0.00366121 -6.2608e-18)
(-0.00150881 0.00202804 4.85933e-18)
(-0.00155429 0.000357208 3.56816e-18)
(-0.00158392 -0.00134807 -3.0238e-18)
(-0.00159785 -0.00308341 2.85068e-18)
(-0.00159476 -0.00484495 -2.79082e-18)
(-0.00157341 -0.00662819 -3.34215e-19)
(-0.00153305 -0.00842818 2.92113e-19)
(-0.00147305 -0.0102396 2.5282e-19)
(-0.00139289 -0.012057 0)
(-0.00129221 -0.0138746 0)
(-0.00117088 -0.0156866 1.51601e-19)
(-0.001029 -0.0174874 1.2299e-19)
(-0.000866884 -0.0192717 6.92627e-19)
(-0.000685092 -0.0210342 -1.55691e-19)
(-0.00048439 -0.0227703 -5.38401e-19)
(-0.000265743 -0.0244757 1.90299e-19)
(-3.02771e-05 -0.0261464 -1.89491e-19)
(0.000220755 -0.0277794 6.62506e-20)
(0.00048602 -0.0293719 -7.07189e-20)
(0.00076397 -0.0309218 -2.56044e-19)
(0.00105367 -0.032428 -9.63164e-20)
(0.162763 -0.103016 -8.68022e-17)
(-0.0262172 -0.0407844 1.73578e-16)
(-0.00539827 -0.00925718 -3.92422e-16)
(-0.00635824 0.00252806 1.83473e-16)
(-0.01017 0.00999542 5.17098e-18)
(-0.0130113 0.0119801 -1.44653e-16)
(-0.0157583 0.00940646 2.58859e-16)
(-0.0182821 0.00333 -1.10235e-16)
(-0.0199301 -0.00357326 9.87611e-17)
(-0.021195 -0.00869022 -8.38443e-17)
(-0.0219074 -0.0106946 0)
(-0.0219795 -0.0108565 2.08715e-18)
(-0.0216292 -0.00923402 -6.5509e-17)
(-0.0208589 -0.00534356 6.46528e-17)
(-0.0197054 0.00129102 -4.31795e-18)
(-0.0176191 0.00956509 -7.34892e-17)
(-0.0146672 0.0168736 8.35871e-17)
(-0.0116589 0.0217802 8.71251e-17)
(-0.00895481 0.0250174 -2.50881e-19)
(-0.00665509 0.0270626 -8.75752e-17)
(-0.00481686 0.0282209 -5.4368e-18)
(-0.00340905 0.0287412 5.16428e-18)
(-0.00234956 0.0288758 -1.37411e-17)
(-0.00161439 0.0289093 -3.77146e-18)
(-0.00111626 0.0290576 -5.63589e-17)
(-0.00072802 0.0293145 4.976e-17)
(-0.000418104 0.0296221 -3.76805e-22)
(-0.000159842 0.029953 4.48433e-18)
(6.80775e-05 0.0302909 -4.0696e-18)
(0.000264624 0.0306211 3.70944e-18)
(0.000435877 0.0309328 3.04974e-17)
(0.000586325 0.0312168 -2.81535e-17)
(0.000719894 0.0314656 2.88089e-18)
(0.000839543 0.031677 -2.35681e-22)
(0.000946992 0.0318517 2.4821e-18)
(0.00104397 0.0319889 2.316e-18)
(0.00113193 0.0320888 -3.67519e-17)
(0.00121203 0.0321521 2.01361e-19)
(0.00128525 0.0321799 3.4572e-17)
(0.00135249 0.0321733 0)
(0.00141453 0.0321338 0)
(0.0014721 0.0320628 0)
(0.00152578 0.0319618 -2.74732e-17)
(0.00157597 0.0318322 2.33419e-17)
(0.00162284 0.0316752 0)
(0.00166632 0.0314922 0)
(0.00170611 0.0312843 -2.23353e-17)
(0.00174176 0.0310528 1.66726e-17)
(0.00177271 0.0307988 1.79258e-17)
(0.00179844 0.0305232 -1.72166e-17)
(0.0018184 0.0302272 4.06941e-18)
(0.00183212 0.0299116 0)
(0.00183917 0.0295774 0)
(0.00183909 0.0292254 6.97809e-18)
(0.00183147 0.0288562 1.31608e-17)
(0.00181591 0.0284705 -9.52145e-18)
(0.00179206 0.0280686 -2.98334e-18)
(0.00175964 0.0276504 0)
(0.00171852 0.0272159 -1.33361e-17)
(0.00166867 0.0267643 1.79535e-19)
(0.00161016 0.0262949 1.21713e-17)
(0.00154321 0.0258064 -9.17005e-18)
(0.00146811 0.0252969 4.35071e-18)
(0.0013853 0.0247642 0)
(0.00129532 0.0242052 0)
(0.00119884 0.023616 3.63098e-18)
(0.00109659 0.0229918 -1.91906e-19)
(0.000989436 0.0223268 -1.9541e-19)
(0.000878299 0.021614 -3.30392e-18)
(0.000764234 0.0208447 0)
(0.000648263 0.020009 5.8122e-18)
(0.000530879 0.0190945 5.53894e-18)
(0.000414952 0.0180864 -7.91995e-18)
(0.000316608 0.0169688 -5.0112e-18)
(0.000237718 0.0157503 0)
(0.000152519 0.0144719 -1.31967e-17)
(6.10091e-05 0.0131572 1.07252e-17)
(-2.26215e-05 0.0118031 2.05937e-22)
(-9.67968e-05 0.0104057 -1.84203e-18)
(-0.000162161 0.00896256 1.71671e-18)
(-0.000218533 0.00747304 1.59381e-18)
(-0.000265514 0.00593746 0)
(-0.00030261 0.00435664 0)
(-0.000329264 0.00273209 0)
(-0.000344889 0.00106599 -4.34958e-18)
(-0.000348876 -0.000638997 -6.9935e-19)
(-0.000341416 -0.00237882 8.20733e-18)
(-0.000321451 -0.00415004 -3.7906e-18)
(-0.000286922 -0.00594868 -2.36475e-18)
(-0.00023664 -0.00777023 2.62953e-18)
(-0.000169518 -0.00960976 0)
(-8.45981e-05 -0.011462 1.7396e-18)
(1.88259e-05 -0.0133212 -1.67389e-18)
(0.000141229 -0.0151817 0)
(0.000282863 -0.0170375 -2.63822e-19)
(0.000443739 -0.0188826 -7.42078e-19)
(0.000623618 -0.0207113 7.10917e-19)
(0.000822019 -0.0225182 -3.64549e-19)
(0.00103823 -0.0242983 3.48741e-19)
(0.00127136 -0.0260469 0)
(0.00152033 -0.0277601 7.24792e-20)
(0.00178397 -0.0294343 -6.82262e-20)
(0.00206101 -0.0310667 2.58947e-19)
(0.00234985 -0.032655 -6.31836e-19)
(0.00264962 -0.0341982 3.85486e-19)
(0.165854 -0.0972132 2.75324e-18)
(-0.022465 -0.0367662 0)
(2.53207e-05 -0.0150483 -2.19063e-16)
(0.00651083 -0.00808622 2.09484e-16)
(0.00599695 -0.00393575 6.84508e-22)
(0.00618072 -0.0014918 -5.05595e-18)
(0.00707679 -0.00081594 0)
(0.00806445 -0.00197325 -1.25253e-16)
(0.0086814 -0.00463096 1.25791e-16)
(0.00883517 -0.00820399 0)
(0.00861544 -0.0119163 7.11132e-18)
(0.00793661 -0.014525 0)
(0.00712683 -0.0159544 3.947e-22)
(0.00626032 -0.0163119 -9.30521e-17)
(0.00534789 -0.0158918 1.78661e-16)
(0.00444265 -0.014618 -8.76814e-17)
(0.00343553 -0.0118822 8.68893e-17)
(0.00223972 -0.00706579 -1.84435e-16)
(0.00113315 -0.000782195 8.80027e-17)
(0.000244541 0.0059424 5.43292e-18)
(-0.000368624 0.0120439 -5.17528e-18)
(-0.000722848 0.0169674 -6.62449e-17)
(-0.000860822 0.0206274 7.52286e-17)
(-0.000839121 0.0232229 7.28362e-18)
(-0.00070716 0.025086 6.53243e-18)
(-0.000505677 0.0264565 -5.9303e-18)
(-0.000291596 0.0275001 5.37297e-18)
(-9.40764e-05 0.028338 0)
(7.93982e-05 0.0290364 -3.72394e-22)
(0.000228972 0.0296288 3.43396e-22)
(0.000359365 0.0301322 -3.68428e-18)
(0.000474106 0.0305581 0)
(0.000577314 0.0309149 0)
(0.000671883 0.0312101 4.86515e-17)
(0.000760018 0.0314501 -3.73266e-17)
(0.000843233 0.0316401 0)
(0.000922342 0.0317837 -3.67612e-17)
(0.000997739 0.0318841 6.03596e-17)
(0.00106967 0.0319441 -3.65037e-17)
(0.00113842 0.031966 0)
(0.00120438 0.0319522 -3.21612e-17)
(0.00126797 0.0319049 2.71764e-17)
(0.00132957 0.0318261 6.40189e-18)
(0.00138939 0.0317179 -2.71818e-17)
(0.00144741 0.0315818 2.02063e-17)
(0.00150336 0.0314195 0)
(0.0015568 0.0312322 2.05974e-17)
(0.00160716 0.0310213 -2.46512e-17)
(0.00165386 0.0307878 1.85621e-17)
(0.00169636 0.0305327 -1.33801e-17)
(0.00173414 0.0302569 -2.09374e-17)
(0.00176675 0.0299615 1.60665e-17)
(0.00179377 0.0296474 -3.79142e-18)
(0.00181481 0.0293154 1.07025e-17)
(0.00182949 0.0289662 -1.83804e-19)
(0.00183749 0.0286004 -1.30479e-17)
(0.00183854 0.0282182 0)
(0.00183248 0.0278196 -1.73904e-17)
(0.00181921 0.0274045 1.65774e-17)
(0.00179877 0.0269722 -1.05729e-17)
(0.00177128 0.0265218 0)
(0.00173701 0.0260521 4.7136e-18)
(0.00169635 0.0255614 1.33229e-17)
(0.00164983 0.0250473 4.05515e-18)
(0.00159812 0.0245067 -1.91557e-19)
(0.00154198 0.0239358 -3.92412e-18)
(0.0014823 0.0233299 1.43494e-17)
(0.00142 0.0226832 -1.40307e-17)
(0.00135613 0.0219889 -6.57843e-18)
(0.00129183 0.0212385 1.23117e-17)
(0.00122822 0.0204221 -9.15689e-18)
(0.00116587 0.0195279 -1.13606e-17)
(0.00110759 0.0185412 1.60115e-17)
(0.00106922 0.0174466 -5.37524e-18)
(0.00105172 0.0162523 0)
(0.00102755 0.0149982 -4.36777e-18)
(0.000995299 0.0137077 4.55748e-18)
(0.000968566 0.0123781 -1.402e-17)
(0.000948561 0.0110058 9.74985e-18)
(0.000934242 0.00958853 -3.56311e-18)
(0.000925267 0.00812523 -8.08611e-18)
(0.000921538 0.00661543 3.94142e-19)
(0.000923079 0.00505926 3.80881e-19)
(0.000930149 0.00345731 5.3914e-18)
(0.000943598 0.0018107 5.76909e-18)
(0.000965299 0.000121319 -3.39294e-19)
(0.000995029 -0.00160792 -3.06985e-18)
(0.00103306 -0.00337381 8.64545e-19)
(0.00108189 -0.00517311 -2.91325e-18)
(0.00114295 -0.00700193 3.4919e-18)
(0.00121717 -0.00885578 0)
(0.00130564 -0.0107296 1.87067e-18)
(0.00140966 -0.012618 -3.15926e-18)
(0.00153036 -0.0145149 1.50821e-18)
(0.00166854 -0.0164144 1.17514e-18)
(0.00182472 -0.0183102 -9.90586e-19)
(0.00199917 -0.0201959 8.43596e-20)
(0.00219184 -0.0220656 -3.32188e-19)
(0.00240236 -0.0239135 3.37331e-19)
(0.00263007 -0.0257343 1.68455e-20)
(0.00287414 -0.0275231 -1.09729e-21)
(0.00313351 -0.0292757 0)
(0.00340703 -0.0309883 1.55905e-20)
(0.00369344 -0.0326581 -2.17864e-20)
(0.00399128 -0.0342824 -2.71957e-20)
(0.00429918 -0.0358596 1.05165e-18)
(0.00461601 -0.0373889 -1.0982e-18)
(0.16683 -0.0958305 -8.90866e-17)
(-0.0222537 -0.0422942 0)
(0.0033724 -0.0226677 2.39662e-16)
(0.00714929 -0.0123846 -2.47674e-16)
(0.00895266 -0.00118963 -8.41853e-18)
(0.00899373 0.00881263 1.58552e-17)
(0.00791996 0.0149342 2.49943e-16)
(0.00670623 0.0188258 -2.48937e-16)
(0.0046088 0.0222121 -1.27505e-17)
(0.0016988 0.023148 -1.78532e-16)
(-0.00135051 0.0212652 1.42534e-16)
(-0.00394299 0.017646 7.42708e-18)
(-0.00593105 0.0141578 8.8394e-22)
(-0.00720953 0.0121026 5.22649e-18)
(-0.00758957 0.0117135 4.77476e-18)
(-0.00753085 0.0121429 7.3637e-17)
(-0.00673049 0.0139323 -2.01148e-19)
(-0.00517808 0.0169592 -7.85698e-17)
(-0.00335799 0.0196002 0)
(-0.00197737 0.0216664 -6.20448e-18)
(-0.0010395 0.0234481 -8.88684e-17)
(-0.000610768 0.0247963 8.51263e-17)
(-0.000596967 0.0255848 8.14026e-17)
(-0.000672757 0.0260166 -6.63187e-17)
(-0.000728097 0.0264282 0)
(-0.000676519 0.0268922 6.4959e-18)
(-0.000554162 0.0274171 0)
(-0.000395173 0.0279788 5.33987e-18)
(-0.000225811 0.0285384 9.71062e-18)
(-6.50024e-05 0.0290721 -4.41742e-18)
(8.15993e-05 0.0295678 4.02583e-18)
(0.000215527 0.0300159 -7.35652e-18)
(0.000337123 0.0304112 6.74059e-18)
(0.000447725 0.0307521 -5.56347e-17)