/*--------------------------------*- C++ -*----------------------------------*\
  =========                 |
  \\      /  F ield         | OpenFOAM: The Open Source CFD Toolbox
   \\    /   O peration     | Website:  https://openfoam.org
    \\  /    A nd           | Version:  10
     \\/     M anipulation  |
\*---------------------------------------------------------------------------*/
FoamFile
{
    format      ascii;
    class       volScalarField;
    location    "1900";
    object      k;
}
// * * * * * * * * * * * * * * * * * * * * * * * * * * * * * * * * * * * * * //

dimensions      [0 2 -2 0 0 0 0];

internalField   nonuniform List<scalar> 
420
(
2.22045e-16
2.22045e-16
2.22045e-16
2.22045e-16
2.22045e-16
2.22045e-16
2.22045e-16
2.22045e-16
2.22045e-16
2.22045e-16
2.22045e-16
2.22045e-16
2.22045e-16
2.22045e-16
2.22045e-16
2.22045e-16
2.22045e-16
2.22045e-16
2.22045e-16
2.22045e-16
2.22045e-16
2.22045e-16
2.22045e-16
2.22045e-16
2.22045e-16
2.22045e-16
2.22045e-16
2.22045e-16
2.22045e-16
2.22045e-16
2.22045e-16
2.22045e-16
2.22045e-16
2.22045e-16
2.22045e-16
2.22045e-16
2.22045e-16
2.22045e-16
2.22045e-16
2.22045e-16
2.22045e-16
2.22045e-16
2.22045e-16
2.22045e-16
2.22045e-16
2.22045e-16
2.22045e-16
2.22045e-16
2.22045e-16
2.22045e-16
2.22045e-16
2.22045e-16
2.22045e-16
2.22045e-16
2.22045e-16
2.22045e-16
2.22045e-16
2.22045e-16
2.22045e-16
2.22045e-16
2.22045e-16
2.22045e-16
2.22045e-16
2.22045e-16
2.22045e-16
2.22045e-16
2.22045e-16
2.22045e-16
2.22045e-16
2.22045e-16
2.22045e-16
2.22045e-16
2.22045e-16
2.22045e-16
2.22045e-16
2.22045e-16
2.22045e-16
2.22045e-16
2.22045e-16
2.22045e-16
2.22045e-16
2.22045e-16
2.22045e-16
2.22045e-16
2.22045e-16
2.22045e-16
2.22045e-16
2.22045e-16
2.22045e-16
2.22045e-16
2.22045e-16
2.22045e-16
2.22045e-16
2.22045e-16
2.22045e-16
2.22045e-16
2.22045e-16
2.22045e-16
2.22045e-16
2.22045e-16
2.22045e-16
2.22045e-16
2.24346e-16
2.7609e-16
3.10729e-16
2.81504e-16
2.25423e-16
2.22045e-16
2.22045e-16
2.54839e-16
2.22045e-16
2.22045e-16
2.22045e-16
2.77397e-16
3.12639e-16
2.82838e-16
2.24654e-16
2.22045e-16
2.22045e-16
2.56626e-16
2.22045e-16
2.22045e-16
2.22045e-16
2.77732e-16
3.13252e-16
2.84727e-16
2.24967e-16
2.22045e-16
2.22045e-16
2.60676e-16
2.22045e-16
2.22045e-16
2.22045e-16
2.77915e-16
3.13355e-16
2.87244e-16
2.26616e-16
2.22045e-16
2.22045e-16
2.64426e-16
2.22045e-16
2.22045e-16
2.22045e-16
2.77877e-16
3.12764e-16
2.90101e-16
2.2941e-16
2.22045e-16
2.22045e-16
2.68317e-16
2.22045e-16
2.22045e-16
2.22045e-16
2.77572e-16
3.12439e-16
2.93114e-16
2.33256e-16
2.22045e-16
2.22045e-16
2.71541e-16
2.22045e-16
2.22045e-16
2.22045e-16
2.77286e-16
3.12296e-16
2.96075e-16
2.38016e-16
2.22045e-16
2.22045e-16
2.73538e-16
2.22045e-16
2.22045e-16
2.22045e-16
2.77504e-16
3.11943e-16
2.99213e-16
2.43464e-16
2.22045e-16
2.22045e-16
2.74375e-16
2.22045e-16
2.22045e-16
2.22045e-16
2.78855e-16
3.11583e-16
3.02513e-16
2.49521e-16
2.22045e-16
2.22045e-16
2.74171e-16
2.22045e-16
2.22045e-16
2.22045e-16
2.82024e-16
3.11082e-16
3.0553e-16
2.55826e-16
2.22045e-16
2.22045e-16
2.72948e-16
2.22045e-16
2.22045e-16
2.24251e-16
2.85465e-16
3.09471e-16
3.07362e-16
2.62741e-16
2.22045e-16
2.22045e-16
2.70365e-16
2.22045e-16
2.22045e-16
2.38278e-16
2.84344e-16
3.06859e-16
3.07681e-16
2.67024e-16
2.22045e-16
2.22045e-16
2.68185e-16
2.22045e-16
2.22045e-16
2.49153e-16
2.81773e-16
3.04113e-16
3.07632e-16
2.69426e-16
2.22045e-16
2.22045e-16
2.6578e-16
2.22045e-16
2.25491e-16
2.5296e-16
2.78081e-16
3.01963e-16
3.06814e-16
2.72041e-16
2.22045e-16
2.22045e-16
2.61987e-16
2.22045e-16
2.33754e-16
2.50596e-16
2.7515e-16
3.01342e-16
3.0629e-16
2.74394e-16
2.22045e-16
2.22045e-16
2.57139e-16
2.26546e-16
2.32189e-16
2.46517e-16
2.72675e-16
3.01571e-16
3.0527e-16
2.74424e-16
2.22045e-16
2.22045e-16
2.5243e-16
2.26305e-16
2.30019e-16
2.43421e-16
2.71728e-16
3.0346e-16
3.04273e-16
2.72388e-16
2.22045e-16
2.22045e-16
2.47655e-16
2.25703e-16
2.28957e-16
2.41559e-16
2.72219e-16
3.06828e-16
3.03382e-16
2.69086e-16
2.22045e-16
2.22045e-16
2.43261e-16
2.25355e-16
2.28975e-16
2.40888e-16
2.74215e-16
3.11247e-16
3.0294e-16
2.65137e-16
2.22045e-16
2.22045e-16
2.40298e-16
2.25057e-16
2.28947e-16
2.40272e-16
2.76882e-16
3.16449e-16
3.02561e-16
2.5994e-16
2.22045e-16
2.22045e-16
2.38915e-16
2.24526e-16
2.2774e-16
2.37736e-16
2.77244e-16
3.17819e-16
2.99923e-16
2.51796e-16
2.22045e-16
2.22045e-16
2.38821e-16
2.22045e-16
2.23412e-16
2.30432e-16
2.71957e-16
3.11472e-16
2.94577e-16
2.42336e-16
2.22045e-16
2.22045e-16
2.46453e-16
2.22045e-16
2.22045e-16
2.22045e-16
2.22045e-16
2.22045e-16
2.22992e-16
2.23408e-16
2.23289e-16
2.23313e-16
2.22045e-16
2.22045e-16
2.22045e-16
2.22045e-16
2.22045e-16
2.22045e-16
2.22045e-16
2.22045e-16
2.22045e-16
2.22045e-16
2.22045e-16
2.22045e-16
2.22045e-16
2.22045e-16
2.22045e-16
2.22045e-16
2.22045e-16
2.22045e-16
2.22045e-16
2.22045e-16
2.22045e-16
2.22045e-16
2.22045e-16
2.22045e-16
2.22045e-16
2.22045e-16
2.22045e-16
2.22045e-16
2.22045e-16
2.22045e-16
2.22045e-16
2.22045e-16
2.22045e-16
2.22045e-16
2.22045e-16
2.22045e-16
2.22045e-16
2.22045e-16
2.22045e-16
2.22045e-16
2.22045e-16
2.22045e-16
2.22045e-16
2.22045e-16
2.22045e-16
2.22045e-16
2.22045e-16
2.22045e-16
2.22045e-16
2.22045e-16
2.22045e-16
2.22045e-16
2.22045e-16
2.22045e-16
2.22045e-16
2.22045e-16
2.22045e-16
2.22045e-16
2.22045e-16
2.22045e-16
2.22045e-16
2.22045e-16
2.22045e-16
2.22045e-16
2.22045e-16
2.22045e-16
2.22045e-16
2.22045e-16
2.22045e-16
2.22045e-16
2.22045e-16
2.22045e-16
2.22045e-16
2.22045e-16
2.22045e-16
2.22045e-16
2.22045e-16
2.22045e-16
2.22045e-16
2.22045e-16
2.22045e-16
2.22045e-16
2.22045e-16
2.22045e-16
2.22045e-16
2.22045e-16
2.22045e-16
2.22045e-16
2.22045e-16
2.22045e-16
2.22045e-16
)
;

boundaryField
{
    right
    {
        type            cyclic;
    }
    left
    {
        type            cyclic;
    }
    outerWall
    {
        type            kqRWallFunction;
        value           nonuniform List<scalar> 
22
(
2.54839e-16
2.56626e-16
2.60676e-16
2.64426e-16
2.68317e-16
2.71541e-16
2.73538e-16
2.74375e-16
2.74171e-16
2.72948e-16
2.70365e-16
2.68185e-16
2.6578e-16
2.61987e-16
2.57139e-16
2.5243e-16
2.47655e-16
2.43261e-16
2.40298e-16
2.38915e-16
2.38821e-16
2.46453e-16
)
;
    }
    stirrerWall
    {
        type            kqRWallFunction;
        value           uniform 2.22045e-16;
    }
    top
    {
        type            empty;
    }
    bottom
    {
        type            empty;
    }
}


// ************************************************************************* //
