/*--------------------------------*- C++ -*----------------------------------*\
  =========                 |
  \\      /  F ield         | OpenFOAM: The Open Source CFD Toolbox
   \\    /   O peration     | Website:  https://openfoam.org
    \\  /    A nd           | Version:  10
     \\/     M anipulation  |
\*---------------------------------------------------------------------------*/
FoamFile
{
    format      ascii;
    class       volScalarField;
    location    "1900";
    object      omega;
}
// * * * * * * * * * * * * * * * * * * * * * * * * * * * * * * * * * * * * * //

dimensions      [0 0 -1 0 0 0 0];

internalField   nonuniform List<scalar> 
420
(
21252.7
3456.33
1164.44
609.162
399.861
302.449
263.882
276.059
324.323
390.198
21253.7
3464.4
1175.62
612.443
398.51
299.978
262.812
278.039
334.669
415.293
21254.2
3466.93
1189.95
617.284
399.819
300.903
264.872
280.749
347.403
449.256
21254
3469.12
1201.28
627.463
409.718
311.408
276.407
293.056
367.738
497.57
21253.2
3476.43
1219.04
656.267
441.929
344.138
308.867
325.862
410.493
570.9
21251.7
3512.14
1291.59
750.889
537.435
434.008
391.999
404.134
493.694
695.603
21249.7
3688.71
1596.84
1062.91
821.501
684.332
609.929
592.305
664.43
925.51
21247.1
4647.83
2760.16
2109.57
1717.54
1446.02
1254.61
1132.18
1111.61
1432.49
21243.8
10315.6
7918.57
6401.29
5294.42
4457.98
3810.58
3311.62
2991.68
3120.04
78643.9
60596.7
48114.3
39124.4
32436.5
27327.1
23335.9
20159.1
17589.3
15481.3
448.598
465.972
411.832
322.754
272.769
264.925
304.883
455.134
973.478
3581.27
489.571
510.177
438.028
329.174
273.781
265.242
303.501
451.286
968.179
3581.17
546.415
569.983
470.831
336.293
274.551
265.636
302.194
446.564
966.448
3581.13
626.691
650.601
511.129
343.961
275.244
265.893
300.79
439.031
961.015
3581.18
745.534
761.331
559.949
351.766
275.874
266.097
299.319
430.54
953.397
3581.3
933.794
917.562
618.229
359.116
276.357
266.261
298.058
421.364
941.784
3581.49
1258.9
1144.57
686.11
365.199
276.645
266.395
297.11
412.226
926.416
3581.76
1886.63
1483.29
761.288
368.963
276.797
266.531
296.46
403.597
907.088
3582.1
3298.88
1997.39
834.721
368.928
277.031
266.852
296.223
395.911
887.408
3582.51
7255.22
2773.44
871.129
360.835
277.555
267.768
296.769
389.91
876.89
3582.99
21359.1
3549.43
774.333
337.376
277.284
269.5
298.952
387.757
878.766
3575.63
21359.1
2906.22
620.652
322.802
277.093
269.941
299.926
385.241
835.21
3575.63
4238.14
1085.72
418.85
307.535
276.052
269.303
299.924
385.221
806.333
3582.99
900.461
451.429
335.374
302.573
276.477
268.619
300.558
387.686
803.945
3582.51
392.542
335.098
323.46
304.943
277.811
268.695
302.382
390.624
799.111
3582.1
315.303
324.478
329.084
308.908
278.949
268.556
303.911
395.178
800.233
3581.76
313.35
335.724
339.276
313.099
279.899
268.381
305.381
401.37
805.988
3581.49
328.289
353.239
350.902
316.819
280.509
268.304
306.97
409.148
816.327
3581.3
348.76
373.133
362.62
319.541
280.648
268.472
308.785
419.007
833.629
3581.18
371.432
393.65
373.604
320.878
280.109
268.903
310.8
430.936
862.025
3581.13
395.323
413.833
383.169
320.232
277.767
268.902
311.939
445
907.069
3581.17
419.654
434.095
391.078
318.057
274.448
267.384
309.86
458.657
957.728
3581.27
15481.3
2008.43
554.333
325.042
290.201
294.825
310.505
330.053
351.287
371.559
17589.3
2616.5
751.178
372.161
284.518
268.689
273.399
285.421
300.234
314.304
20159.1
3205.41
1003.35
477.994
320.644
270.936
257.876
258.575
264.92
272.293
23335.9
4076.13
1406.16
672.401
414.983
319.095
280.31
265.902
262.663
263.966
27327.1
4863.21
1790.69
921.24
580.181
426.292
352.504
318.002
305.124
303.138
32436.5
5712.92
2142.07
1153.21
757.453
568.983
472.477
423.01
402.712
398.978
39124.4
6792.29
2541.99
1406.22
968.931
768.215
670.366
623.713
605.699
604.826
48114.3
8302.38
3161.67
1878.45
1436.76
1263.48
1195.76
1171.98
1163.16
1161.55
60596.7
10743.9
5076.75
3910.13
3559.79
3463.89
3446.37
3450.08
3456.09
3456.32
78643.9
21243.8
21247.1
21249.7
21251.7
21253.2
21254
21254.2
21253.7
21252.7
)
;

boundaryField
{
    right
    {
        type            cyclic;
    }
    left
    {
        type            cyclic;
    }
    outerWall
    {
        beta1           0.075;
        blended         0;
        type            omegaWallFunction;
        value           nonuniform List<scalar> 
22
(
3581.27
3581.17
3581.13
3581.18
3581.3
3581.49
3581.76
3582.1
3582.51
3582.99
3575.63
3575.63
3582.99
3582.51
3582.1
3581.76
3581.49
3581.3
3581.18
3581.13
3581.17
3581.27
)
;
    }
    stirrerWall
    {
        beta1           0.075;
        blended         0;
        type            omegaWallFunction;
        value           nonuniform List<scalar> 
42
(
21252.7
21253.7
21254.2
21254
21253.2
21251.7
21249.7
21247.1
21243.8
78643.9
78643.9
60596.7
48114.3
39124.4
32436.5
27327.1
23335.9
20159.1
17589.3
15481.3
21359.1
21359.1
15481.3
17589.3
20159.1
23335.9
27327.1
32436.5
39124.4
48114.3
60596.7
78643.9
78643.9
21243.8
21247.1
21249.7
21251.7
21253.2
21254
21254.2
21253.7
21252.7
)
;
    }
    top
    {
        type            empty;
    }
    bottom
    {
        type            empty;
    }
}


// ************************************************************************* //
