/*--------------------------------*- C++ -*----------------------------------*\
  =========                 |
  \\      /  F ield         | OpenFOAM: The Open Source CFD Toolbox
   \\    /   O peration     | Website:  https://openfoam.org
    \\  /    A nd           | Version:  10
     \\/     M anipulation  |
\*---------------------------------------------------------------------------*/
FoamFile
{
    format      ascii;
    class       volScalarField;
    location    "1900";
    object      p;
}
// * * * * * * * * * * * * * * * * * * * * * * * * * * * * * * * * * * * * * //

dimensions      [0 2 -2 0 0 0 0];

internalField   nonuniform List<scalar> 
420
(
0.668299
16.6288
32.3136
50.249
69.8368
90.5005
111.766
133.069
153.981
174.021
1.68821
16.5586
31.8305
49.4087
68.758
89.3815
110.826
132.447
153.646
173.918
2.07795
16.5037
31.4481
48.6989
67.8061
88.3678
109.952
131.831
153.314
173.836
2.1658
16.4302
31.1438
48.1067
66.9694
87.4195
109.063
131.154
152.93
173.739
2.14119
16.3794
30.9274
47.6211
66.2115
86.4767
108.088
130.337
152.411
173.561
2.08256
16.3916
30.8135
47.2367
65.506
85.492
106.948
129.283
151.661
173.244
2.01624
16.4908
30.8136
46.9454
64.8333
84.43
105.588
127.908
150.617
172.811
1.94681
16.6861
30.9358
46.7474
64.1986
83.3028
104.017
126.141
149.152
172.13
1.83887
16.9982
31.1732
46.6468
63.6601
82.2315
102.365
123.998
146.881
170.266
1.63412
17.4064
31.3787
46.5642
63.2468
81.3879
100.974
121.951
144.023
166.687
192.791
210.816
228.306
244.917
260.522
275.322
288.088
305.929
304.612
357.101
192.824
210.878
228.319
244.873
260.476
275.352
288.455
306.442
305.646
353.099
192.898
210.998
228.4
244.933
260.608
275.611
288.951
306.996
306.862
350.86
193.012
211.186
228.544
245.069
260.823
275.945
289.513
307.751
307.911
349.715
193.109
211.384
228.709
245.252
261.072
276.284
290.057
308.345
308.335
348.697
193.167
211.55
228.858
245.456
261.313
276.541
290.391
308.556
308.218
347.592
193.286
211.666
228.921
245.649
261.543
276.726
290.499
308.459
307.713
346.005
193.494
211.719
228.821
245.788
261.79
276.889
290.471
308.431
307.717
344.455
193.201
211.914
228.823
245.971
262.103
277.106
290.526
309.086
309.509
343.748
191.759
212.763
229.453
246.371
262.484
277.372
290.712
310.45
310.619
344.108
191.174
213.235
230.111
246.873
262.804
277.328
289.858
312.202
303.265
344.533
191.994
213.171
230.403
246.964
262.649
276.81
288.927
310.515
298.253
342.048
196.415
213.646
230.72
247.178
262.644
276.607
288.775
306.047
299.905
338.388
196.096
213.346
230.522
247.12
262.616
276.493
288.354
304.555
300.575
334.552
195.037
212.716
230.123
246.896
262.521
276.458
288.355
304.737
300.678
332.561
194.239
212.077
229.68
246.628
262.429
276.549
288.66
305.135
300.951
332.258
193.714
211.587
229.291
246.362
262.351
276.818
289.488
306.304
302.045
333.215
193.352
211.223
228.957
246.09
262.256
277.234
290.761
308.204
304.66
338.711
193.084
210.955
228.674
245.805
262.078
277.498
291.626
309.536
309.61
352.898
192.892
210.79
228.488
245.561
261.778
277.171
290.864
308.228
313.084
372.886
192.8
210.767
228.451
245.413
261.342
276.252
288.713
304.84
309.599
378.077
192.827
210.838
228.428
245.189
260.868
275.556
287.579
304.35
306.193
361.704
179.746
177.588
176.369
175.771
175.408
175.119
174.838
174.561
174.311
174.168
154.557
155.113
155.612
155.899
155.988
155.894
155.628
155.24
154.762
154.338
128.172
131.034
133.391
134.825
135.566
135.796
135.625
135.162
134.47
133.73
104.242
107.517
110.77
113.043
114.387
114.979
114.976
114.52
113.722
112.75
83.0488
85.6974
88.7864
91.2752
92.9041
93.7374
93.9001
93.516
92.7186
91.6565
64.1005
65.8898
68.2283
70.3355
71.8437
72.691
72.9329
72.6423
71.9354
70.9502
47.0895
48.1143
49.5068
50.8796
51.9448
52.5664
52.7369
52.497
51.9259
51.1405
31.8781
32.2982
32.8255
33.37
33.8148
34.0626
34.069
33.8387
33.4169
32.8929
18.4892
18.3193
18.1629
18.0669
18.0092
17.9293
17.7811
17.5514
17.2459
16.926
6.15843
4.98274
3.97899
3.34854
2.94156
2.62913
2.34683
2.06721
1.76565
1.39666
)
;

boundaryField
{
    right
    {
        type            cyclic;
    }
    left
    {
        type            cyclic;
    }
    outerWall
    {
        type            zeroGradient;
    }
    stirrerWall
    {
        type            zeroGradient;
    }
    top
    {
        type            empty;
    }
    bottom
    {
        type            empty;
    }
}


// ************************************************************************* //
