/*--------------------------------*- C++ -*----------------------------------*\
  =========                 |
  \\      /  F ield         | OpenFOAM: The Open Source CFD Toolbox
   \\    /   O peration     | Website:  https://openfoam.org
    \\  /    A nd           | Version:  10
     \\/     M anipulation  |
\*---------------------------------------------------------------------------*/
FoamFile
{
    format      ascii;
    class       surfaceScalarField;
    location    "1900";
    object      phi;
}
// * * * * * * * * * * * * * * * * * * * * * * * * * * * * * * * * * * * * * //

dimensions      [0 3 -1 0 0 0 0];

internalField   nonuniform List<scalar> 
788
(
-2.41279e-06
-9.33863e-06
-1.25756e-07
7.30567e-06
1.41946e-06
1.12762e-05
2.32807e-06
1.25394e-05
2.23832e-06
1.13792e-05
9.45066e-07
7.91646e-06
-1.21707e-06
1.75763e-06
-3.85855e-06
-6.68473e-06
-6.45765e-06
-1.83947e-05
-3.33634e-05
-8.55143e-06
-1.08382e-06
-8.23922e-06
2.29927e-07
6.07569e-06
1.70337e-06
9.93111e-06
2.65368e-06
1.17336e-05
2.58527e-06
1.16091e-05
1.39242e-06
9.28679e-06
-5.46045e-07
3.85816e-06
-2.8139e-06
-4.32434e-06
-5.11968e-06
-1.60753e-05
-3.1383e-05
-7.13409e-06
-4.13902e-07
-7.80138e-06
4.76692e-07
5.27777e-06
1.73745e-06
8.80275e-06
2.67815e-06
1.09361e-05
2.87838e-06
1.15588e-05
2.33765e-06
9.97468e-06
1.16905e-06
5.14814e-06
-5.35776e-07
-2.56383e-06
-2.76218e-06
-1.38686e-05
-2.91753e-05
-5.03007e-06
-2.61444e-07
-7.51126e-06
5.27131e-07
4.58375e-06
1.75691e-06
7.69657e-06
2.89154e-06
9.92994e-06
3.62135e-06
1.09599e-05
3.88015e-06
9.83203e-06
3.39544e-06
5.70378e-06
2.04261e-06
-1.21646e-06
-2.60465e-07
-1.16393e-05
-2.65192e-05
-3.0067e-06
-3.43809e-07
-7.13615e-06
3.78766e-07
3.95399e-06
1.67617e-06
6.51498e-06
3.13858e-06
8.58264e-06
4.47187e-06
9.73098e-06
5.41979e-06
8.95469e-06
5.48404e-06
5.64743e-06
4.25603e-06
-6.0449e-08
1.66181e-06
-9.16375e-06
-2.32953e-05
-1.66255e-06
-5.81289e-07
-6.52401e-06
6.047e-08
3.40128e-06
1.4583e-06
5.2279e-06
3.24734e-06
6.8986e-06
5.11763e-06
7.94087e-06
6.54872e-06
7.55126e-06
6.84823e-06
5.29917e-06
5.48275e-06
1.18176e-06
2.36651e-06
-6.18741e-06
-1.95316e-05
-1.48255e-06
-9.48303e-07
-5.546e-06
-3.77834e-07
2.91828e-06
1.12656e-06
3.83294e-06
3.1472e-06
4.97556e-06
5.31714e-06
5.82979e-06
7.0064e-06
5.85314e-06
7.36086e-06
4.85425e-06
5.76641e-06
2.62601e-06
2.24737e-06
-2.80413e-06
-1.55111e-05
-1.8189e-06
-1.43307e-06
-4.08346e-06
-8.07403e-07
2.38096e-06
8.21012e-07
2.31309e-06
2.95917e-06
2.9263e-06
5.2795e-06
3.5494e-06
7.21385e-06
3.88388e-06
8.05264e-06
3.89969e-06
7.14755e-06
3.36636e-06
3.95216e-06
2.58529e-07
-1.07128e-05
-8.60142e-07
-2.03975e-06
-2.01384e-06
-9.51312e-07
1.37303e-06
6.89265e-07
7.60239e-07
2.7346e-06
9.4611e-07
5.06546e-06
1.23837e-06
7.26387e-06
1.63483e-06
8.87835e-06
2.15544e-06
9.52683e-06
2.5433e-06
7.67744e-06
1.97959e-06
-4.11375e-06
1.1021e-06
-1.99101e-06
-5.80702e-07
2.11155e-07
1.17186e-06
2.39047e-06
3.9648e-06
6.03555e-06
8.50956e-06
1.04899e-05
6.4766e-06
-9.83024e-06
-5.2547e-05
-1.03598e-05
-8.33501e-05
-1.03517e-05
-0.000125023
-1.03465e-05
-0.00017663
-1.01935e-05
-0.000241952
-8.9849e-06
-0.000325519
-6.98183e-06
-0.000414509
-1.61075e-05
-0.000562943
-1.11578e-05
-0.000538372
-0.00107541
-8.59726e-06
-5.11285e-05
-9.44206e-06
-8.25102e-05
-9.78148e-06
-0.00012464
-1.00831e-05
-0.000176329
-1.02398e-05
-0.000242007
-9.75992e-06
-0.000326324
-7.24919e-06
-0.000417091
-1.48479e-05
-0.00055543
-1.00532e-05
-0.00054312
-0.00108574
-6.8991e-06
-4.93141e-05
-8.17429e-06
-8.12403e-05
-9.02274e-06
-0.000123758
-9.93544e-06
-0.000175435
-1.0714e-05
-0.000241315
-1.08275e-05
-0.000326171
-8.39911e-06
-0.000419459
-1.56155e-05
-0.000548769
-9.92211e-06
-0.000548929
-0.00109563
-5.32559e-06
-4.70551e-05
-6.87102e-06
-7.97047e-05
-8.02449e-06
-0.000122608
-9.32838e-06
-0.000174234
-1.04861e-05
-0.000240272
-1.09847e-05
-0.000325516
-9.37901e-06
-0.000421099
-1.463e-05
-0.000543597
-9.64326e-06
-0.000553955
-0.00110519
-4.23293e-06
-4.45266e-05
-5.67942e-06
-7.82502e-05
-6.90056e-06
-0.000121396
-8.42313e-06
-0.000172833
-9.82434e-06
-0.000238982
-1.06372e-05
-0.000324529
-9.48591e-06
-0.000422327
-1.33972e-05
-0.000539603
-9.48307e-06
-0.000557882
-0.00111462
-3.75284e-06
-4.22578e-05
-4.63585e-06
-7.73237e-05
-5.68053e-06
-0.000120354
-7.2284e-06
-0.000171411
-8.74288e-06
-0.00023758
-9.8708e-06
-0.000323312
-9.01582e-06
-0.000423303
-1.16171e-05
-0.000536924
-9.01876e-06
-0.000560533
-0.00112361
-3.22254e-06
-4.07906e-05
-3.41663e-06
-7.70249e-05
-4.24705e-06
-0.000119487
-5.70398e-06
-0.000170049
-7.28047e-06
-0.000236081
-8.81179e-06
-0.000321758
-8.49139e-06
-0.000423801
-9.73764e-06
-0.000535634
-8.481e-06
-0.000561886
-0.00113208
-1.58704e-06
-3.99435e-05
-1.46414e-06
-7.69832e-05
-2.22052e-06
-0.000118636
-3.53602e-06
-0.000168769
-5.15545e-06
-0.000234465
-7.15946e-06
-0.000319743
-7.80406e-06
-0.000423377
-7.79339e-06
-0.000535619
-7.08397e-06
-0.000562681
-0.00113923
1.55585e-06
-4.0212e-05
1.67242e-06
-7.68357e-05
8.32522e-07
-0.000117621
-3.14543e-07
-0.000167572
-1.81749e-06
-0.000232879
-4.16433e-06
-0.000317366
-5.82387e-06
-0.000421977
-5.40922e-06
-0.000536048
-3.90764e-06
-0.00056416
-0.00114321
7.40993e-06
-4.09766e-05
6.00878e-06
-7.50984e-05
4.24594e-06
-0.00011563
3.35846e-06
-0.000166597
2.80346e-06
-0.000232248
1.02025e-06
-0.000315576
-3.03948e-06
-0.000418048
-1.01528e-06
-0.00053815
-1.20576e-07
-0.000565211
-0.0011431
4.47803e-06
-4.52675e-05
3.94478e-06
-7.43474e-05
2.87126e-06
-0.00011443
2.13873e-06
-0.00016582
1.73297e-06
-0.000231731
1.84903e-06
-0.00031571
6.73342e-06
-0.00042316
7.08195e-06
-0.000538552
-9.29725e-06
-0.000548871
-0.0011524
6.06019e-06
-5.12422e-05
6.28085e-06
-7.44491e-05
5.44564e-06
-0.000113592
4.9146e-06
-0.000165297
4.41525e-06
-0.00023107
4.26306e-06
-0.000315573
9.23115e-06
-0.000428379
1.24656e-05
-0.00054163
-5.68525e-06
-0.000530682
-0.00115819
6.60138e-06
-4.37281e-05
-1.4009e-05
5.87107e-06
-7.36357e-05
5.02017e-06
-0.000112792
4.37837e-06
-0.000164695
3.9398e-06
-0.00023052
2.28814e-06
-0.000313953
-1.51661e-06
-0.00042471
1.0874e-05
-0.00055399
8.45845e-06
-0.000528399
-0.00114959
6.39945e-06
-4.64619e-05
-3.54703e-06
7.15357e-06
-7.44055e-05
7.52662e-06
-0.000113229
7.62485e-06
-0.000164849
7.454e-06
-0.000230244
5.55153e-06
-0.000312089
2.42261e-06
-0.000421767
8.28024e-06
-0.000560007
2.37862e-06
-0.000522487
-0.0011471
5.97114e-06
-4.94264e-05
-3.00436e-06
7.48033e-06
-7.58945e-05
8.3655e-06
-0.000114163
8.87239e-06
-0.000165414
9.03595e-06
-0.000230317
7.69072e-06
-0.000310842
4.98757e-06
-0.000419293
1.14455e-05
-0.000566235
3.70617e-06
-0.000514719
-0.00114333
6.03184e-06
-5.15576e-05
-3.87429e-06
7.74423e-06
-7.74947e-05
8.95195e-06
-0.000115412
9.79043e-06
-0.000166336
1.02764e-05
-0.000230704
9.50476e-06
-0.00031008
6.55365e-06
-0.000416586
1.23381e-05
-0.000571824
6.80368e-06
-0.000509206
-0.00113649
5.96049e-06
-5.3037e-05
-4.38523e-06
7.74538e-06
-7.91183e-05
9.33362e-06
-0.000117029
1.06405e-05
-0.000167742
1.15784e-05
-0.000231586
1.14216e-05
-0.000309951
8.50518e-06
-0.000413911
1.26019e-05
-0.000575771
9.87014e-06
-0.000506545
-0.0011266
5.0087e-06
-5.41418e-05
-3.77354e-06
6.9476e-06
-8.08834e-05
9.05281e-06
-0.000119154
1.10044e-05
-0.000169788
1.26298e-05
-0.000233159
1.32858e-05
-0.000310628
1.07128e-05
-0.000411577
1.1977e-05
-0.000576923
1.12258e-05
-0.000505914
-0.00111539
2.9976e-06
-5.50191e-05
-1.98415e-06
5.12342e-06
-8.28521e-05
7.83791e-06
-0.000121887
1.06e-05
-0.000172639
1.31347e-05
-0.000235633
1.50073e-05
-0.000312501
1.37862e-05
-0.000410596
1.32496e-05
-0.000576292
1.26332e-05
-0.000505485
-0.00110277
1.3921e-07
-5.56808e-05
6.43412e-07
2.12367e-06
-8.47264e-05
5.06298e-06
-0.000124853
8.34353e-06
-0.000176005
1.15978e-05
-0.000238812
1.46921e-05
-0.000315568
1.60182e-05
-0.000412153
1.79662e-05
-0.000578117
1.72788e-05
-0.000504845
-0.00108558
-3.52172e-06
-5.55191e-05
3.44655e-06
-2.91118e-06
-8.5303e-05
-1.7762e-06
-0.000126041
-5.3803e-07
-0.000177321
2.32577e-06
-0.000241531
7.41369e-06
-0.000320532
7.1743e-06
-0.000412192
8.20042e-06
-0.000578994
2.76498e-05
-0.000523415
-0.001058
-1.00088e-05
8.14606e-06
-1.15096e-05
-1.2372e-05
-1.2781e-05
-1.23153e-05
-8.90451e-06
-9.05589e-06
-1.48205e-05
-5.97009e-06
-1.71097e-05
3.20199e-06
-2.59049e-05
5.27126e-06
-3.09155e-05
1.98774e-06
-3.40852e-05
-6.006e-07
-3.61491e-05
-2.14127e-06
-3.74765e-05
-2.25698e-06
-3.81994e-05
-1.09817e-06
-3.83363e-05
8.93444e-07
-3.76252e-05
2.77079e-06
5.82517e-06
-5.83708e-06
9.02963e-06
-1.15282e-05
1.08346e-05
-1.66604e-05
6.9183e-06
-2.03443e-05
2.97511e-06
-2.28307e-05
2.74752e-07
-2.43172e-05
-8.29277e-07
-2.49054e-05
-5.53703e-07
-2.4643e-05
6.00165e-07
-2.36035e-05
1.70972e-06
3.3966e-06
-1.84292e-07
9.15266e-06
-2.35576e-06
1.27558e-05
-6.12159e-06
1.04065e-05
-9.553e-06
6.22502e-06
-1.2093e-05
2.66954e-06
-1.36544e-05
6.25392e-07
-1.41828e-05
-7.65645e-08
-1.36702e-05
9.79708e-08
-1.23518e-05
4.50682e-07
1.04188e-06
2.11472e-06
6.94552e-06
3.10408e-06
1.15283e-05
1.67497e-06
1.16384e-05
-7.23832e-07
8.48919e-06
-3.03756e-06
4.87472e-06
-4.59641e-06
2.12552e-06
-5.11232e-06
4.5632e-07
-4.61138e-06
-3.02897e-07
-3.3649e-06
-6.37242e-07
-8.13609e-07
2.40399e-06
4.46955e-06
5.23163e-06
8.57294e-06
6.60002e-06
1.02058e-05
6.28916e-06
8.75267e-06
5.17273e-06
5.96518e-06
4.12706e-06
3.19684e-06
3.61779e-06
1.06158e-06
3.76032e-06
-2.78195e-07
4.48803e-06
-1.14737e-06
-1.82963e-06
2.00941e-06
2.43032e-06
5.22264e-06
5.33532e-06
8.22933e-06
7.22865e-06
9.98184e-06
7.01869e-06
1.05957e-05
5.39034e-06
1.05569e-05
3.31711e-06
1.03389e-05
1.4118e-06
1.02288e-05
4.37103e-09
1.02975e-05
-1.01678e-06
-1.82387e-06
1.49453e-06
9.40359e-07
4.48247e-06
2.38478e-06
7.92437e-06
3.83558e-06
1.07288e-05
4.25428e-06
1.25281e-05
3.65328e-06
1.34561e-05
2.48531e-06
1.37779e-05
1.21892e-06
1.37042e-05
2.23152e-07
1.33472e-05
-5.06726e-07
-1.05736e-06
1.18196e-06
-2.27161e-07
3.64706e-06
-3.56307e-08
6.6451e-06
8.50085e-07
9.4505e-06
1.47712e-06
1.15916e-05
1.56762e-06
1.29278e-05
1.23347e-06
1.35333e-05
7.19852e-07
1.35767e-05
2.93863e-07
1.31128e-05
7.25813e-08
3.37196e-08
7.82917e-07
-1.00428e-06
2.37078e-06
-1.61675e-06
4.31435e-06
-1.11735e-06
6.26668e-06
-4.6382e-07
7.91928e-06
-4.51861e-08
9.08513e-06
1.29725e-07
9.7169e-06
1.64028e-07
9.91726e-06
1.73804e-07
9.76842e-06
2.98523e-07
8.83793e-07
-1.00876e-06
-2.63929e-06
-3.75576e-06
-4.20637e-06
-4.22866e-06
-4.06966e-06
-3.87272e-06
-3.66348e-06
-3.3277e-06
)
;

boundaryField
{
    right
    {
        type            cyclic;
        value           nonuniform List<scalar> 
20
(
0.00106377
0.000532931
0.000573513
0.00041311
0.000324498
0.000241914
0.000176788
0.000125124
8.38495e-05
5.37113e-05
3.53607e-05
2.10661e-05
9.66885e-06
9.98042e-07
-6.03424e-06
-1.08043e-05
-1.30526e-05
-1.24536e-05
-9.23686e-06
2.33567e-06
)
;
    }
    left
    {
        type            cyclic;
        value           nonuniform List<scalar> 
20
(
-0.00106377
-0.000532931
-0.000573513
-0.00041311
-0.000324498
-0.000241914
-0.000176788
-0.000125124
-8.38495e-05
-5.37113e-05
-3.53607e-05
-2.10661e-05
-9.66885e-06
-9.98042e-07
6.03424e-06
1.08043e-05
1.30526e-05
1.24536e-05
9.23686e-06
-2.33567e-06
)
;
    }
    outerWall
    {
        type            calculated;
        value           uniform 0;
    }
    stirrerWall
    {
        type            calculated;
        value           uniform 0;
    }
    top
    {
        type            empty;
        value           nonuniform List<scalar> 0();
    }
    bottom
    {
        type            empty;
        value           nonuniform List<scalar> 0();
    }
}


// ************************************************************************* //
