/*--------------------------------*- C++ -*----------------------------------*\
  =========                 |
  \\      /  F ield         | OpenFOAM: The Open Source CFD Toolbox
   \\    /   O peration     | Website:  https://openfoam.org
    \\  /    A nd           | Version:  10
     \\/     M anipulation  |
\*---------------------------------------------------------------------------*/
FoamFile
{
    format      ascii;
    class       volVectorField;
    location    "1900";
    object      U;
}
// * * * * * * * * * * * * * * * * * * * * * * * * * * * * * * * * * * * * * //

dimensions      [0 1 -1 0 0 0 0];

internalField   nonuniform List<vector> 
420
(
(0.238083 8.5576 7.32922e-18)
(-0.799104 10.9714 -5.70777e-17)
(-0.34919 12.5152 -2.69636e-16)
(-0.268764 13.8411 7.37897e-17)
(-0.285795 14.9486 -4.94992e-16)
(-0.400321 15.8593 0)
(-0.587493 16.5665 0)
(-0.808335 17.1108 4.69238e-16)
(-1.01517 17.4036 -4.8788e-16)
(-1.17407 17.4312 0)
(-0.31604 8.28994 3.03632e-17)
(-1.44018 10.7282 -1.42888e-16)
(-1.22975 12.3436 8.31911e-16)
(-1.25504 13.7292 -1.13504e-15)
(-1.36182 14.9289 3.61442e-16)
(-1.54659 15.9424 1.76442e-18)
(-1.77462 16.7127 3.17449e-15)
(-2.03184 17.2508 -7.18048e-16)
(-2.24836 17.4921 1.05062e-15)
(-2.38388 17.4559 0)
(-0.852642 8.30952 1.27051e-16)
(-2.14437 10.5112 -6.75437e-16)
(-2.11644 12.1188 7.99145e-16)
(-2.2649 13.5438 1.28314e-15)
(-2.45916 14.8179 -8.55991e-16)
(-2.68404 15.9014 4.00919e-15)
(-2.91302 16.7025 1.87212e-15)
(-3.16653 17.2385 4.70728e-15)
(-3.40564 17.4768 -1.67553e-15)
(-3.54833 17.417 -3.5307e-15)
(-1.43801 8.27422 -5.53614e-17)
(-2.89184 10.27 5.92979e-16)
(-2.99045 11.8377 -1.00998e-15)
(-3.23989 13.2698 8.62675e-16)
(-3.50175 14.5816 -1.68337e-15)
(-3.75235 15.7039 1.73487e-15)
(-4.00469 16.544 -1.03339e-14)
(-4.27316 17.1229 0)
(-4.54776 17.3954 -4.08216e-15)
(-4.72354 17.336 3.5098e-15)
(-2.04988 8.17756 0)
(-3.64776 9.97289 4.03307e-16)
(-3.8504 11.4863 -3.92667e-16)
(-4.17843 12.8988 0)
(-4.49322 14.2215 -2.74092e-16)
(-4.78393 15.3604 -3.03177e-16)
(-5.08005 16.2529 3.38476e-15)
(-5.39323 16.9034 -4.29472e-15)
(-5.72675 17.24 0)
(-5.95425 17.2019 -1.50629e-14)
(-2.67628 8.03616 1.62254e-17)
(-4.39821 9.61567 0)
(-4.68724 11.0589 0)
(-5.07933 12.4287 1.48269e-15)
(-5.44661 13.736 -2.25028e-15)
(-5.7918 14.8953 2.52352e-15)
(-6.16666 15.8307 6.15644e-16)
(-6.55905 16.5622 9.29983e-15)
(-6.98559 16.987 -1.17516e-14)
(-7.27923 16.9899 7.60173e-15)
(-3.31638 7.86147 0)
(-5.13156 9.20063 -3.9607e-16)
(-5.48996 10.5585 -2.32576e-15)
(-5.93795 11.8699 -9.05511e-16)
(-6.36814 13.1445 -3.98378e-15)
(-6.79489 14.3108 2.53973e-15)
(-7.27956 15.3117 -6.28497e-15)
(-7.79848 16.1503 7.45308e-16)
(-8.32965 16.6903 -3.65256e-15)
(-8.67016 16.7272 -1.20657e-14)
(-3.98172 7.65842 -3.10139e-17)
(-5.82926 8.73166 3.93929e-16)
(-6.23748 9.99658 3.0441e-15)
(-6.73872 11.2412 5.44297e-16)
(-7.24342 12.4715 2.39375e-15)
(-7.7687 13.6418 0)
(-8.36416 14.7197 6.46236e-15)
(-9.00385 15.7006 8.19233e-15)
(-9.59403 16.4097 1.01354e-14)
(-9.97928 16.4757 9.29464e-15)
(-4.68914 7.40662 -3.07912e-17)
(-6.45014 8.21972 3.9826e-16)
(-6.9089 9.39932 -4.29801e-16)
(-7.47725 10.5661 -1.93527e-15)
(-8.06338 11.7286 6.18494e-15)
(-8.67311 12.8681 8.29007e-15)
(-9.33178 13.9654 -2.91535e-15)
(-10.0185 15.0099 0)
(-10.6527 15.895 0)
(-11.1923 16.0796 -9.66755e-15)
(-5.51192 7.04448 7.11041e-17)
(-6.92725 7.74855 8.3942e-16)
(-7.51686 8.76958 0)
(-8.23542 9.79908 0)
(-8.97372 10.8249 -3.57172e-15)
(-9.71108 11.8653 -2.47686e-17)
(-10.436 12.9311 6.3313e-15)
(-11.1147 14.0166 -1.37579e-14)
(-11.7691 15.0271 1.60019e-14)
(-12.4455 15.5122 1.32834e-15)
(-1.2416 17.1664 0)
(-1.26264 16.651 0)
(-1.21547 15.9428 0)
(-1.12693 15.2605 -7.88231e-16)
(-1.11176 14.536 0)
(-0.826578 13.7205 0)
(-1.48668 13.4808 8.34449e-16)
(0.0044658 11.5779 0)
(-0.409864 17.8477 0)
(-3.40924 4.74534 0)
(-2.43428 17.1222 1.43575e-15)
(-2.43357 16.5502 2.42367e-15)
(-2.3485 15.8124 1.22744e-16)
(-2.23113 15.1337 8.63433e-16)
(-2.17384 14.3929 5.69718e-17)
(-1.9184 13.5513 1.08574e-15)
(-2.40864 13.2634 8.24047e-17)
(-0.909572 11.8596 1.54579e-16)
(-1.62141 17.4499 -3.48935e-15)
(-3.71187 4.2437 -7.46413e-16)
(-3.59525 17.0418 1.32302e-15)
(-3.58258 16.417 0)
(-3.46179 15.6509 -1.95892e-15)
(-3.32882 14.972 -1.68383e-15)
(-3.24491 14.2137 5.04488e-15)
(-3.0003 13.343 -1.03723e-15)
(-3.37385 12.9331 1.71053e-15)
(-1.79608 12.1261 0)
(-3.12858 17.0438 3.78714e-15)
(-3.64102 3.66067 -1.39129e-17)
(-4.77643 16.921 2.99223e-15)
(-4.74021 16.2323 7.32455e-15)
(-4.56321 15.4383 -7.64095e-15)
(-4.40298 14.7589 3.03984e-15)
(-4.27863 13.9888 4.02907e-17)
(-4.02836 13.0957 0)
(-4.28803 12.5684 -1.69863e-15)
(-2.65657 12.1784 -2.99409e-15)
(-4.44807 16.5302 -3.72289e-15)
(-3.75884 3.09748 3.11684e-15)
(-6.01053 16.7331 2.79271e-15)
(-5.91173 15.9684 -2.41685e-15)
(-5.6529 15.1605 7.91863e-15)
(-5.45858 14.4866 -3.14265e-15)
(-5.28188 13.7093 2.64544e-15)
(-5.01607 12.7945 -4.15662e-15)
(-5.15506 12.1685 3.73725e-15)
(-3.49139 12.1675 3.26627e-15)
(-5.71413 15.9636 0)
(-3.87552 2.52172 -6.21078e-15)
(-7.30716 16.4359 3.48189e-15)
(-7.08031 15.5899 -1.47762e-14)
(-6.72177 14.8031 -4.23024e-15)
(-6.492 14.1491 9.87507e-15)
(-6.25209 13.3744 8.30331e-15)
(-5.96051 12.4417 2.30523e-16)
(-5.99433 11.7204 1.53789e-16)
(-4.26324 12.075 -3.26075e-15)
(-6.95736 15.3221 -3.55454e-15)
(-3.87972 1.96408 6.45562e-15)
(-8.60511 15.9973 3.54689e-15)
(-8.19402 15.0824 5.22708e-15)
(-7.74501 14.3601 0)
(-7.49005 13.7401 -3.29641e-15)
(-7.18615 12.9824 -5.29245e-15)
(-6.85978 12.0421 2.53933e-16)
(-6.82417 11.2085 -1.10043e-14)
(-4.96971 11.9016 -3.31726e-15)
(-8.1867 14.6108 7.2441e-15)
(-3.80666 1.44496 -3.34942e-15)
(-9.80096 15.4394 1.34505e-14)
(-9.20854 14.4805 -4.74077e-15)
(-8.69848 13.8581 0)
(-8.43147 13.2763 -1.88808e-16)
(-8.0737 12.5516 2.22408e-14)
(-7.71077 11.6191 -8.99665e-15)
(-7.64659 10.6592 -8.27465e-15)
(-5.61436 11.6669 6.52221e-15)
(-9.36594 13.8543 -8.06078e-15)
(-3.68638 0.97781 0)
(-10.749 14.8264 3.53581e-16)
(-10.1518 13.8439 -4.83358e-15)
(-9.58819 13.3365 0)
(-9.29655 12.7773 7.34169e-15)
(-8.89312 12.0977 -1.69686e-14)
(-8.49775 11.2015 9.3116e-15)
(-8.44983 10.1066 3.83494e-15)
(-6.14455 11.4109 0)
(-10.4842 13.0825 -2.77605e-16)
(-3.57013 0.59894 3.13825e-15)
(-11.1919 14.4422 4.60895e-16)
(-11.0536 13.2154 3.81048e-17)
(-10.4667 12.7692 0)
(-10.0976 12.207 -1.46333e-14)
(-9.62084 11.5725 5.44103e-15)
(-9.17215 10.7707 -5.03979e-15)
(-9.2485 9.59076 4.63497e-15)
(-6.59689 11.2311 1.05712e-15)
(-11.3318 12.0145 2.56753e-16)
(-3.53834 0.400961 -3.14556e-15)
(-10.8638 14.4046 3.19926e-15)
(-11.747 12.7047 -5.53363e-15)
(-11.1945 12.3188 0)
(-10.7539 11.7553 0)
(-10.2244 11.1381 0)
(-9.69112 10.3918 -2.52135e-15)
(-9.5227 9.20319 1.0021e-14)
(-6.65628 11.3998 0)
(-12.5244 11.3759 0)
(-3.34382 0.124233 0)
(-11.4362 13.6296 -3.08155e-15)
(-12.3181 12.3329 -5.53144e-15)
(-11.8269 11.9 0)
(-11.3218 11.3225 3.9397e-15)
(-10.7421 10.7196 -2.97379e-15)
(-10.1885 9.93861 2.53253e-15)
(-9.82512 8.60905 3.86774e-15)
(-6.98783 11.0628 -3.28296e-16)
(-13.1522 11.6917 1.97494e-15)
(-3.31776 -0.282562 0)
(-13.0804 11.8092 3.54362e-16)
(-13.0118 11.5702 -2.48213e-17)
(-12.6022 11.0754 0)
(-12.0259 10.5458 2.84223e-16)
(-11.3758 10.0265 6.49382e-15)
(-10.8079 9.24456 -4.63426e-15)
(-10.4719 7.62456 -1.18192e-14)
(-7.72677 9.97329 -8.58165e-15)
(-13.8286 11.636 1.61538e-14)
(-3.43004 -0.679087 3.15302e-15)
(-14.1864 10.86 -1.45374e-14)
(-13.8202 10.5982 5.47725e-15)
(-13.3258 10.2193 0)
(-12.6992 9.75845 -7.91832e-15)
(-12.0023 9.31965 -6.44222e-15)
(-11.4088 8.66341 9.96957e-15)
(-11.1198 6.98162 4.00626e-15)
(-8.07757 9.26783 0)
(-14.814 10.2234 -7.54909e-15)
(-3.44957 -0.702434 3.30138e-16)
(-14.7493 9.59965 -3.76341e-16)
(-14.4762 9.4906 5.49532e-15)
(-13.9835 9.20474 0)
(-13.3414 8.82233 1.57353e-14)
(-12.6248 8.47476 3.41382e-17)
(-12.0052 7.97015 -1.81146e-16)
(-11.7236 6.20215 8.64376e-15)
(-8.47919 8.60919 -7.27141e-15)
(-15.7183 9.43599 -8.10783e-15)
(-3.45778 -0.910993 0)
(-15.233 8.3892 -3.3871e-15)
(-15.0286 8.35154 1.11721e-14)
(-14.5525 8.12917 9.579e-15)
(-13.9026 7.82143 -1.09542e-14)
(-13.1823 7.55816 -1.86855e-14)
(-12.5405 7.20609 -2.41161e-16)
(-12.2463 5.38096 -4.02153e-15)
(-8.88267 7.80059 -3.81148e-15)
(-16.4845 8.56157 -7.22153e-15)
(-3.51014 -1.06787 -2.70624e-15)
(-15.6807 7.17285 -9.83089e-15)
(-15.4964 7.1659 5.30192e-15)
(-15.0238 6.99807 -4.03678e-15)
(-14.3687 6.76919 -1.09811e-14)
(-13.6573 6.5917 8.59151e-15)
(-13.0067 6.39713 -2.25405e-16)
(-12.7041 4.57055 7.69949e-15)
(-9.30575 6.99266 4.05574e-15)
(-17.1521 7.49392 3.41466e-15)
(-3.5783 -1.05464 -2.48293e-16)
(-16.0931 5.89235 2.71418e-15)
(-15.8846 5.90201 -2.55448e-15)
(-15.3923 5.79263 -1.22239e-16)
(-14.7309 5.65018 1.05144e-14)
(-14.0386 5.5601 -1.45071e-14)
(-13.3948 5.54199 4.58791e-15)
(-13.0939 3.75505 -3.97535e-15)
(-9.71704 6.16243 1.02581e-14)
(-17.6928 6.15211 0)
(-3.72058 -0.761958 -9.09129e-18)
(-16.4423 4.53174 2.92625e-15)
(-16.1726 4.54895 2.48938e-15)
(-15.6374 4.50682 4.21845e-15)
(-14.9701 4.4596 -6.6621e-15)
(-14.3035 4.45975 2.72966e-15)
(-13.6805 4.62118 0)
(-13.3881 2.9514 -1.75733e-15)
(-10.1908 5.26043 -6.8195e-15)
(-18.1367 5.07811 -1.58883e-16)
(-4.01895 -0.714169 2.9374e-15)
(-16.7062 3.113 1.28613e-15)
(-16.3564 3.12184 0)
(-15.7676 3.13744 2.01482e-15)
(-15.1006 3.1709 1.74245e-15)
(-14.4733 3.24553 1.19327e-16)
(-13.8568 3.56595 -1.06878e-15)
(-13.515 1.99178 1.7273e-15)
(-10.6722 4.40152 0)
(-18.3312 4.1511 3.55776e-15)
(-4.52701 -0.605663 2.98733e-15)
(-16.8778 1.65737 1.42545e-15)
(-16.4598 1.61941 -2.42977e-15)
(-15.8218 1.61065 -1.31435e-16)
(-15.1568 1.61149 6.74424e-16)
(-14.5308 1.57527 -6.96584e-17)
(-13.936 2.21675 1.01976e-15)
(-13.4663 0.705435 -1.64519e-15)
(-10.5374 2.66785 -1.6125e-16)
(-18.3767 3.4042 3.08144e-15)
(-4.55806 -1.06058 -2.25282e-15)
(-17.0792 0.0412257 2.09097e-29)
(-16.6281 -0.064239 0)
(-15.9596 -0.144523 0)
(-15.285 -0.124122 -8.04876e-16)
(-14.5803 -0.172046 0)
(-13.7975 0.290218 0)
(-13.7758 -0.709414 8.22104e-16)
(-11.3786 0.70882 0)
(-17.6065 2.02469 0)
(-6.11814 -4.66887 -1.00969e-29)
(-14.2363 12.8892 1.00368e-15)
(-14.8598 10.8786 -8.02203e-15)
(-15.1675 9.55605 7.95181e-15)
(-15.466 8.33347 -1.10868e-14)
(-15.8175 7.14388 7.00882e-15)
(-16.1807 5.88903 -1.35769e-14)
(-16.5219 4.54673 3.19e-15)
(-16.8141 3.13155 -3.30791e-15)
(-17.0315 1.70726 0)
(-17.2755 0.169614 -3.89552e-16)
(-14.724 12.097 1.4925e-14)
(-15.097 10.308 0)
(-15.3394 9.17674 8.06231e-15)
(-15.5011 8.04801 -3.29219e-15)
(-15.7585 6.92651 -1.0967e-14)
(-16.0612 5.73311 0)
(-16.3822 4.45521 -3.38564e-15)
(-16.6849 3.10957 -1.45057e-15)
(-16.9264 1.7582 9.76954e-16)
(-17.1877 0.324202 -4.24723e-16)
(-14.3413 11.1841 -1.23791e-14)
(-14.9076 9.66075 0)
(-15.1973 8.62438 7.16603e-15)
(-15.3275 7.60619 6.48617e-16)
(-15.5155 6.57485 8.90488e-15)
(-15.7555 5.47434 -3.7802e-15)
(-16.0411 4.2974 0)
(-16.3364 3.05177 3.74894e-15)
(-16.5937 1.78656 -6.27716e-16)
(-16.8651 0.477455 5.11359e-16)
(-13.3046 10.3496 5.59838e-15)
(-14.2891 9.05838 -2.43282e-15)
(-14.7799 8.01818 5.58895e-15)
(-14.9892 7.10671 -6.25298e-15)
(-15.1376 6.17929 6.75781e-16)
(-15.3285 5.16936 3.94419e-15)
(-15.5749 4.09209 -1.06252e-14)
(-15.8445 2.96015 1.75411e-15)
(-16.0938 1.79683 2.88462e-15)
(-16.3331 0.609975 8.29765e-17)
(-12.121 9.59327 -8.39845e-15)
(-13.248 8.48255 6.89279e-15)
(-14.0172 7.46306 0)
(-14.4328 6.60034 2.26798e-15)
(-14.6746 5.7658 2.50593e-15)
(-14.865 4.88898 -3.00426e-16)
(-15.073 3.94044 1.87894e-15)
(-15.3019 2.91684 4.24984e-15)
(-15.5118 1.84162 -1.17167e-18)
(-15.6978 0.738463 3.89192e-16)
(-10.9562 8.8619 -3.36891e-15)
(-12.0411 7.91576 5.30035e-15)
(-12.9074 6.96291 1.98649e-15)
(-13.5212 6.13765 -3.39673e-15)
(-13.9206 5.35964 -2.04278e-15)
(-14.2019 4.56091 -2.48103e-16)
(-14.4223 3.70502 -3.79142e-15)
(-14.6201 2.77089 1.13215e-15)
(-14.7755 1.7842 3.67358e-16)
(-14.8869 0.768154 -3.91291e-16)
(-9.86225 8.14109 0)
(-10.7865 7.34451 -1.7372e-15)
(-11.6408 6.50333 4.53219e-16)
(-12.3367 5.72567 -7.8161e-16)
(-12.8485 4.98107 1.31798e-15)
(-13.214 4.22496 0)
(-13.4878 3.42889 8.3226e-16)
(-13.6848 2.56757 1.23892e-15)
(-13.8084 1.65242 -1.11581e-15)
(-13.8601 0.707307 -3.02953e-17)
(-8.81188 7.42579 0)
(-9.55169 6.78575 -4.31825e-16)
(-10.3072 6.07229 2.86021e-15)
(-10.9815 5.35539 -2.11389e-15)
(-11.526 4.64036 0)
(-11.9372 3.91083 -3.65792e-16)
(-12.2366 3.14862 -9.48103e-16)
(-12.4419 2.32911 7.69287e-16)
(-12.5541 1.46232 7.97944e-16)
(-12.5836 0.561027 -3.13002e-16)
(-7.76816 6.66271 -9.09284e-16)
(-8.35363 6.17306 4.30977e-16)
(-8.98288 5.52774 4.1394e-16)
(-9.56644 4.83866 -4.01247e-16)
(-10.059 4.13421 0)
(-10.4474 3.41401 3.87822e-16)
(-10.7353 2.66889 5.5448e-16)
(-10.9311 1.89153 -6.37091e-16)
(-11.0379 1.07075 -1.35709e-16)
(-11.0676 0.198909 9.77147e-18)
(-6.35709 6.24927 -2.64225e-16)
(-6.53445 6.02926 8.00898e-17)
(-6.87353 5.49589 6.52431e-17)
(-7.24116 4.88382 0)
(-7.591 4.26975 -2.55351e-17)
(-7.90593 3.66056 0)
(-8.17473 3.04834 -1.01976e-16)
(-8.39869 2.42187 1.51262e-16)
(-8.58977 1.76821 3.41888e-17)
(-8.76175 1.04928 -9.94271e-18)
)
;

boundaryField
{
    right
    {
        type            cyclic;
    }
    left
    {
        type            cyclic;
    }
    outerWall
    {
        type            calculated;
        value           nonuniform List<vector> 
22
(
(-1.55201 41.8305 0)
(-4.64749 41.6006 0)
(-7.71741 41.1419 0)
(-10.7449 40.4569 0)
(-13.7132 39.5492 0)
(-16.6061 38.424 0)
(-19.4075 37.0874 0)
(-22.1022 35.5467 0)
(-24.6752 33.8104 0)
(-27.1124 31.8882 0)
(-28.9573 30.2506 0)
(-30.2506 28.9573 0)
(-31.8882 27.1124 0)
(-33.8104 24.6752 0)
(-35.5467 22.1022 0)
(-37.0874 19.4075 0)
(-38.424 16.6061 0)
(-39.5492 13.7132 0)
(-40.4569 10.7449 0)
(-41.1419 7.71741 0)
(-41.6006 4.64749 0)
(-41.8305 1.55201 0)
)
;
    }
    stirrerWall
    {
        type            calculated;
        value           nonuniform List<vector> 
42
(
(-0.310178 8.3662 0)
(-0.928834 8.32046 0)
(-1.54239 8.22894 0)
(-2.14746 8.09214 0)
(-2.74072 7.91082 0)
(-3.31888 7.68598 0)
(-3.87877 7.41885 0)
(-4.41729 7.11092 0)
(-4.93148 6.76387 0)
(-5.4185 6.37963 0)
(-6.07951 6.64185 0)
(-6.92878 7.56862 0)
(-7.77806 8.49539 0)
(-8.62734 9.42216 0)
(-9.47661 10.3489 0)
(-10.3259 11.2757 0)
(-11.1752 12.2025 0)
(-12.0244 13.1292 0)
(-12.8737 14.056 0)
(-13.723 14.9828 0)
(-14.4723 15.1215 0)
(-15.1215 14.4723 0)
(-14.9828 13.723 0)
(-14.056 12.8737 0)
(-13.1292 12.0244 0)
(-12.2025 11.1752 0)
(-11.2757 10.3259 0)
(-10.3489 9.47661 0)
(-9.42216 8.62734 0)
(-8.49539 7.77806 0)
(-7.56862 6.92878 0)
(-6.64185 6.07951 0)
(-6.37963 5.4185 0)
(-6.76387 4.93148 0)
(-7.11092 4.41729 0)
(-7.41885 3.87877 0)
(-7.68598 3.31888 0)
(-7.91082 2.74072 0)
(-8.09214 2.14746 0)
(-8.22894 1.54239 0)
(-8.32046 0.928834 0)
(-8.3662 0.310178 0)
)
;
    }
    top
    {
        type            empty;
    }
    bottom
    {
        type            empty;
    }
}


// ************************************************************************* //
