/*--------------------------------*- C++ -*----------------------------------*\
  =========                 |
  \\      /  F ield         | OpenFOAM: The Open Source CFD Toolbox
   \\    /   O peration     | Website:  https://openfoam.org
    \\  /    A nd           | Version:  10
     \\/     M anipulation  |
\*---------------------------------------------------------------------------*/
FoamFile
{
    format      ascii;
    class       volVectorField;
    location    "1900";
    object      Urel;
}
// * * * * * * * * * * * * * * * * * * * * * * * * * * * * * * * * * * * * * //

dimensions      [0 1 -1 0 0 0 0];

internalField   nonuniform List<vector> 
420
(
(0.572084 -0.450652 7.32922e-18)
(-0.418604 0.710027 -5.70777e-17)
(0.0778254 1.00033 -2.69636e-16)
(0.204777 1.07251 7.37897e-17)
(0.234279 0.926066 -4.94992e-16)
(0.166291 0.582605 0)
(0.0256623 0.0355597 0)
(-0.148634 -0.674457 4.69238e-16)
(-0.308924 -1.6361 -4.8788e-16)
(-0.42127 -2.86287 0)
(0.684137 -0.669016 3.03632e-17)
(-0.300758 0.523098 -1.42888e-16)
(0.0489593 0.891885 8.31911e-16)
(0.162994 1.03071 -1.13504e-15)
(0.195554 0.983336 3.61442e-16)
(0.150141 0.749679 1.76442e-18)
(0.0614786 0.272589 3.17449e-15)
(-0.0563573 -0.436645 -7.18048e-16)
(-0.13348 -1.44289 1.05062e-15)
(-0.12961 -2.72655 0)
(0.80822 -0.550861 1.27051e-16)
(-0.25228 0.418411 -6.75437e-16)
(0.0069395 0.793221 7.99145e-16)
(0.0898349 0.98513 1.28314e-15)
(0.126959 1.02593 -8.55991e-16)
(0.13349 0.876018 4.00919e-15)
(0.135946 0.443626 1.87212e-15)
(0.113883 -0.254018 4.70728e-15)
(0.106244 -1.24943 -1.67553e-15)
(0.195023 -2.54293 -3.5307e-15)
(0.874406 -0.438857 -5.53614e-17)
(-0.257489 0.345046 5.92979e-16)
(-0.0340678 0.700422 -1.00998e-15)
(0.0386009 0.920029 8.62675e-16)
(0.0988978 1.0191 -1.68337e-15)
(0.170496 0.928535 1.73487e-15)
(0.24038 0.555603 -1.03339e-14)
(0.294161 -0.07854 0)
(0.341833 -1.01919 -4.08216e-15)
(0.488337 -2.29186 3.5098e-15)
(0.901363 -0.34027 0)
(-0.285636 0.270338 4.03307e-16)
(-0.0772678 0.598679 -3.92667e-16)
(0.00580334 0.825835 0)
(0.102176 0.962981 -2.74092e-16)
(0.222684 0.916154 -3.03177e-16)
(0.337811 0.622855 3.38476e-15)
(0.435911 0.0875307 -4.29472e-15)
(0.513701 -0.761804 0)
(0.697528 -1.98593 -1.50629e-14)
(0.897545 -0.239579 1.62254e-17)
(-0.326811 0.188885 0)
(-0.118109 0.480723 0)
(-0.0123641 0.698883 1.48269e-15)
(0.118277 0.854319 -2.25028e-15)
(0.271063 0.861666 2.52352e-15)
(0.394227 0.644886 6.15644e-16)
(0.499903 0.224251 9.29983e-15)
(0.57145 -0.503242 -1.17516e-14)
(0.775923 -1.65264 7.60173e-15)
(0.860358 -0.12665 0)
(-0.373284 0.101449 -3.9607e-16)
(-0.149959 0.34792 -2.32576e-15)
(-0.0160972 0.5477 -9.05511e-16)
(0.135651 0.710452 -3.98378e-15)
(0.290915 0.764802 2.53973e-15)
(0.388316 0.653616 -6.28497e-15)
(0.451501 0.380041 7.45308e-16)
(0.502482 -0.192111 -3.65256e-15)
(0.744141 -1.26749 -1.20657e-14)
(0.774924 0.00184633 -3.10139e-17)
(-0.410288 0.0101112 3.93929e-16)
(-0.155986 0.209725 3.0441e-15)
(0.00545205 0.388824 5.44297e-16)
(0.16353 0.553372 2.39375e-15)
(0.301113 0.657876 0)
(0.368578 0.669843 6.46236e-15)
(0.391852 0.584686 8.19233e-15)
(0.464684 0.227675 1.01354e-14)
(0.742479 -0.772382 9.29464e-15)
(0.621222 0.123701 -3.07912e-17)
(-0.400299 -0.0762419 3.9826e-16)
(-0.119349 0.0900022 -4.29801e-16)
(0.0521628 0.243247 -1.93527e-15)
(0.206026 0.391963 6.18494e-15)
(0.336373 0.517619 8.29007e-15)
(0.417844 0.600925 -2.91535e-15)
(0.471313 0.631402 0)
(0.577376 0.502449 0)
(0.778082 -0.327131 -9.66755e-15)
(0.322921 0.175257 7.11041e-17)
(-0.279827 -0.0762188 8.3942e-16)
(-0.0566098 -0.011033 0)
(0.0378413 0.0624058 0)
(0.112686 0.132062 -3.57172e-15)
(0.18856 0.21612 -2.47686e-17)
(0.277001 0.32546 6.3313e-15)
(0.411629 0.45453 -1.37579e-14)
(0.570702 0.508492 1.60019e-14)
(0.707675 0.0369639 1.32834e-15)
(-0.441993 -4.38891 0)
(-0.413422 -6.24108 0)
(-0.311332 -8.42934 0)
(-0.161975 -10.7504 -7.88231e-16)
(-0.0794719 -13.2893 0)
(0.280258 -16.1137 0)
(-0.297304 -18.5777 8.34449e-16)
(1.28523 -22.9431 0)
(0.972078 -19.3999 0)
(-1.91528 -35.521 0)
(-0.0398606 -4.31448 1.43575e-15)
(0.109404 -6.21597 2.42367e-15)
(0.35895 -8.42576 1.22744e-16)
(0.658418 -10.7342 8.63433e-16)
(0.917339 -13.2794 5.69718e-17)
(1.39601 -16.1189 1.08574e-15)
(1.15293 -18.6188 8.24047e-17)
(2.92566 -22.4717 1.54579e-16)
(2.51682 -19.593 -3.48935e-15)
(0.761813 -35.8015 -7.46413e-16)
(0.380817 -4.15849 1.32302e-15)
(0.640169 -6.09809 0)
(1.03408 -8.31999 -1.95892e-15)
(1.46944 -10.6107 -1.68383e-15)
(1.88816 -13.1535 5.04488e-15)
(2.50347 -16.0001 -1.03723e-15)
(2.54035 -18.5976 1.71053e-15)
(4.57254 -21.8266 0)
(3.74316 -19.5907 3.78714e-15)
(3.78778 -35.9429 -1.39129e-17)
(0.759454 -3.92652 2.99223e-15)
(1.13912 -5.9081 7.32455e-15)
(1.69638 -8.13363 -7.64095e-15)
(2.27762 -10.398 3.03984e-15)
(2.86812 -12.9229 4.02907e-17)
(3.63451 -15.7589 0)
(3.94626 -18.4374 -1.69863e-15)
(6.21041 -21.2091 -2.99409e-15)
(5.1194 -19.4943 -3.72289e-15)
(6.5842 -35.8467 3.11684e-15)
(1.05475 -3.64707 2.79271e-15)
(1.59188 -5.67564 -2.41685e-15)
(2.33601 -7.88291 7.91863e-15)
(3.06765 -10.1061 -3.14265e-15)
(3.83926 -12.5989 2.64544e-15)
(4.76375 -15.413 -4.15662e-15)
(5.35405 -18.1418 3.73725e-15)
(7.82516 -20.4711 3.26627e-15)
(6.49643 -19.2528 0)
(9.32485 -35.5488 -6.21078e-15)
(1.24874 -3.365 3.48189e-15)
(2.00636 -5.43883 -1.47762e-14)
(2.95257 -7.58519 -4.23024e-15)
(3.83299 -9.74443 9.87507e-15)
(4.79331 -12.1857 8.30331e-15)
(5.8825 -14.9636 2.30523e-16)
(6.73179 -17.7279 1.53789e-16)
(9.44065 -19.6352 -3.26075e-15)
(7.8291 -18.8925 -3.55454e-15)
(12.1053 -35.0233 6.45562e-15)
(1.39441 -3.11555 3.54689e-15)
(2.4258 -5.21556 5.22708e-15)
(3.5616 -7.25001 0)
(4.57696 -9.3228 -3.29641e-15)
(5.72278 -11.689 -5.29245e-15)
(6.9813 -14.4103 2.53933e-16)
(8.04898 -17.2157 -1.10043e-14)
(11.0461 -18.7058 -3.31726e-15)
(9.09431 -18.4137 7.2441e-15)
(14.8751 -34.2558 -3.34942e-15)
(1.58728 -2.88034 1.34505e-14)
(2.88611 -4.97511 -4.74077e-15)
(4.17829 -6.8551 0)
(5.31125 -8.82921 -1.88808e-16)
(6.6278 -11.0956 2.22408e-14)
(8.05228 -13.7349 -8.99665e-15)
(9.2918 -16.5846 -8.27465e-15)
(12.6253 -17.6693 6.52221e-15)
(10.3145 -17.7986 -8.06078e-15)
(17.5893 -33.24 0)
(1.96545 -2.59971 3.53581e-16)
(3.35121 -4.66245 -4.83358e-15)
(4.78799 -6.36596 0)
(6.04636 -8.24939 7.34169e-15)
(7.52014 -10.3952 -1.69686e-14)
(9.1006 -12.9148 9.3116e-15)
(10.4606 -15.8071 3.83494e-15)
(14.2186 -16.4928 0)
(11.4874 -17.0245 -2.77605e-16)
(20.1824 -31.9476 3.13825e-15)
(2.77891 -1.99439 4.60895e-16)
(3.78364 -4.23997 3.81048e-17)
(5.3299 -5.81415 0)
(6.76118 -7.62524 -1.46333e-14)
(8.41396 -9.64246 5.44103e-15)
(10.1647 -11.9753 -5.03979e-15)
(11.53 -14.8503 4.63497e-15)
(15.7778 -15.0867 1.05712e-15)
(12.8102 -16.3812 2.56753e-16)
(22.5602 -30.2953 -3.14556e-15)
(4.05193 -1.17989 3.19926e-15)
(4.09454 -3.84668 -5.53363e-15)
(5.67207 -5.30323 0)
(7.2476 -7.05209 0)
(9.03362 -8.98179 0)
(10.9582 -11.1811 -2.52135e-15)
(12.667 -13.9787 1.0021e-14)
(17.2389 -13.5634 0)
(13.2591 -15.5595 0)
(24.5303 -28.9948 0)
(4.14827 -1.28614 -3.08155e-15)
(4.23337 -3.50863 -5.53144e-15)
(5.79517 -4.96657 0)
(7.48559 -6.679 3.9397e-15)
(9.37771 -8.53845 -2.97379e-15)
(11.3845 -10.7107 2.53253e-15)
(13.3567 -13.5806 3.86774e-15)
(17.9753 -12.8324 -3.28296e-16)
(13.7831 -14.0918 1.97494e-15)
(25.8013 -28.1567 0)
(3.35623 -2.16158 3.54362e-16)
(4.44356 -3.2671 -2.48213e-17)
(5.98119 -4.72121 0)
(7.80637 -6.31294 2.84223e-16)
(9.83919 -8.00828 6.49382e-15)
(11.938 -10.0923 -4.63426e-15)
(13.9691 -13.154 -1.18192e-14)
(18.591 -12.4014 -8.58165e-15)
(14.5671 -12.5059 1.61538e-14)
(27.2662 -26.7777 3.15302e-15)
(3.23965 -1.85444 -1.45374e-14)
(4.68615 -2.90487 5.47725e-15)
(6.37665 -4.15686 0)
(8.32752 -5.58446 -7.91832e-15)
(10.4906 -7.09361 -6.44222e-15)
(12.7075 -8.93494 9.96957e-15)
(14.7939 -11.9288 4.00626e-15)
(19.8261 -11.0954 0)
(15.293 -11.7482 -7.54909e-15)
(29.097 -24.4549 3.30138e-16)
(3.57052 -1.78859 -3.76341e-16)
(4.9794 -2.60404 5.49532e-15)
(6.72971 -3.67203 0)
(8.76417 -4.9204 1.57353e-14)
(11.0223 -6.22674 3.41382e-17)
(13.3488 -7.7929 -1.81146e-16)
(15.5202 -10.7362 8.64376e-15)
(20.857 -9.6305 -7.27141e-15)
(15.9345 -10.2445 -8.10783e-15)
(30.76 -22.1867 0)
(3.87984 -1.61032 -3.3871e-15)
(5.2694 -2.26828 1.11721e-14)
(7.05764 -3.17744 9.579e-15)
(9.16027 -4.24558 -1.09542e-14)
(11.4891 -5.35077 -1.86855e-14)
(13.9118 -6.63499 -2.41161e-16)
(16.1779 -9.49219 -4.02153e-15)
(21.7247 -8.21526 -3.81148e-15)
(16.54 -8.71943 -7.22153e-15)
(32.1906 -19.7497 -2.70624e-15)
(4.12024 -1.38305 -9.83089e-15)
(5.53243 -1.92077 5.30192e-15)
(7.36452 -2.67627 -4.03678e-15)
(9.52484 -3.5558 -1.09811e-14)
(11.9028 -4.4537 8.59151e-15)
(14.3985 -5.44588 -2.25405e-16)
(16.7442 -8.15557 7.69949e-15)
(22.4044 -6.71123 4.05574e-15)
(17.0625 -7.29254 3.41466e-15)
(33.4091 -17.0397 -2.48293e-16)
(4.28704 -1.17294 2.71418e-15)
(5.75951 -1.60159 -2.55448e-15)
(7.65115 -2.19627 -1.22239e-16)
(9.8619 -2.87605 1.05144e-14)
(12.2696 -3.56104 -1.45071e-14)
(14.8126 -4.23783 4.58791e-15)
(17.2164 -6.75405 -3.97535e-15)
(22.9216 -5.15413 1.02581e-14)
(17.5236 -6.05844 0)
(34.3499 -13.9623 -9.09129e-18)
(4.4052 -1.00414 2.92625e-15)
(5.96783 -1.33038 2.48938e-15)
(7.93452 -1.75276 4.21845e-15)
(10.1867 -2.22101 -6.6621e-15)
(12.6081 -2.687 2.72966e-15)
(15.1741 -3.04168 0)
(17.6176 -5.28289 -1.75733e-15)
(23.1967 -3.60655 -6.8195e-15)
(17.8879 -4.48936 -1.58883e-16)
(34.9252 -11.0572 2.9374e-15)
(4.49411 -0.863068 1.28613e-15)
(6.15875 -1.10091 0)
(8.20331 -1.35843 2.01482e-15)
(10.4821 -1.62736 1.74245e-15)
(12.8939 -1.88754 1.19327e-16)
(15.4862 -1.93782 -1.06878e-15)
(18.0156 -3.92242 1.7273e-15)
(23.2805 -1.9671 0)
(18.3033 -2.72065 3.55776e-15)
(35.0766 -8.03446 2.98733e-15)
(4.55892 -0.737053 1.42545e-15)
(6.30635 -0.92356 -2.42977e-15)
(8.41632 -1.0968 -1.31435e-16)
(10.7111 -1.27806 6.74424e-16)
(13.1416 -1.51591 -6.96584e-17)
(15.7342 -1.09766 1.01976e-15)
(18.416 -2.85614 -1.64519e-15)
(23.7939 -1.16738 -1.6125e-16)
(18.6662 -0.734024 3.08144e-15)
(35.4871 -5.53427 -2.25282e-15)
(4.47602 -0.758382 2.09097e-29)
(6.26394 -0.913455 0)
(8.41253 -1.04866 0)
(10.726 -1.08908 -8.04876e-16)
(13.245 -1.20433 0)
(16.0367 -0.816618 0)
(18.2826 -1.89879 8.22104e-16)
(23.1425 -0.571941 0)
(19.641 0.64275 0)
(34.1482 -6.16284 -1.00969e-29)
(1.23897 -0.264002 1.00368e-15)
(1.54689 -1.09178 -8.02203e-15)
(2.08061 -1.16571 7.95181e-15)
(2.52877 -1.08083 -1.10868e-14)
(2.82498 -0.911274 7.00882e-15)
(3.00715 -0.762751 -1.35769e-14)
(3.10595 -0.665154 3.19e-15)
(3.14589 -0.611803 -3.30791e-15)
(3.15098 -0.547016 0)
(3.01867 -0.583187 -3.89552e-16)
(-0.205371 -0.24279 1.4925e-14)
(0.295568 -0.922028 0)
(0.842617 -0.881975 8.06231e-15)
(1.38132 -0.78412 -3.29219e-15)
(1.73168 -0.630531 -1.0967e-14)
(1.94069 -0.507346 0)
(2.03239 -0.434386 -3.38564e-15)
(2.04128 -0.402307 -1.45057e-15)
(2.00851 -0.356675 9.76954e-16)
(1.85196 -0.382048 -4.24723e-16)
(-0.779159 -0.34219 -1.23791e-14)
(-0.52911 -0.829073 0)
(-0.0814393 -0.771325 7.16603e-15)
(0.442793 -0.643789 6.48617e-16)
(0.822447 -0.4841 8.90488e-15)
(1.06043 -0.354802 -3.7802e-15)
(1.16033 -0.269922 0)
(1.15608 -0.228645 3.74894e-15)
(1.09374 -0.188921 -6.27716e-16)
(0.920175 -0.182247 5.11359e-16)
(-0.699021 -0.363336 5.59838e-15)
(-0.924675 -0.691243 -2.43282e-15)
(-0.730007 -0.714553 5.58895e-15)
(-0.331077 -0.561159 -6.25298e-15)
(0.0482025 -0.381597 6.75781e-16)
(0.301562 -0.2485 3.94419e-15)
(0.413482 -0.152984 -1.06252e-14)
(0.414379 -0.0888154 1.75411e-15)
(0.346297 -0.0392702 2.88462e-15)
(0.197797 -0.00318041 8.29765e-17)
(-0.471841 -0.306372 -8.39845e-15)
(-0.897534 -0.526926 6.89279e-15)
(-1.03327 -0.606754 0)
(-0.886737 -0.485463 2.26798e-15)
(-0.640933 -0.297062 2.50593e-15)
(-0.420804 -0.117626 -3.00426e-16)
(-0.297576 0.0175914 1.87894e-15)
(-0.276512 0.0993064 4.24984e-15)
(-0.319037 0.144893 -1.17167e-18)
(-0.421108 0.171851 3.89192e-16)
(-0.263363 -0.224506 -3.36891e-15)
(-0.704442 -0.353638 5.30035e-15)
(-0.989291 -0.44404 1.98649e-15)
(-1.08711 -0.366141 -3.39673e-15)
(-1.03892 -0.205243 -2.04278e-15)
(-0.94333 -0.0344873 -2.48103e-16)
(-0.859772 0.104367 -3.79142e-15)
(-0.828139 0.184776 1.13215e-15)
(-0.82989 0.226823 3.67358e-16)
(-0.864297 0.24808 -3.91291e-16)
(-0.125575 -0.132174 0)
(-0.463573 -0.184907 -1.7372e-15)
(-0.788453 -0.240841 4.53219e-16)
(-1.01447 -0.196178 -7.8161e-16)
(-1.11866 -0.0858964 1.31798e-15)
(-1.14097 0.0407324 0)
(-1.13799 0.150394 8.3226e-16)
(-1.12615 0.212843 1.23892e-15)
(-1.1099 0.234389 -1.11581e-15)
(-1.09154 0.233766 -3.02953e-17)
(-0.0312607 -0.034459 0)
(-0.242368 -0.00379353 -4.31825e-16)
(-0.520325 -0.00920475 2.86021e-15)
(-0.770869 0.0153964 -2.11389e-15)
(-0.947845 0.0712299 0)
(-1.04954 0.137704 -3.65792e-16)
(-1.09933 0.192235 -9.48103e-16)
(-1.11628 0.205728 7.69287e-16)
(-1.10235 0.183605 7.97944e-16)
(-1.06876 0.134012 -3.13002e-16)
(0.0566068 0.0152879 -9.09284e-16)
(-0.0576669 0.123218 4.30977e-16)
(-0.261332 0.108775 4.1394e-16)
(-0.467255 0.0803828 -4.01247e-16)
(-0.632181 0.0628127 0)
(-0.74483 0.0518918 3.87822e-16)
(-0.810378 0.0345432 5.5448e-16)
(-0.838269 -0.000557446 -6.37091e-16)
(-0.832744 -0.0686703 -1.35709e-16)
(-0.806242 -0.181592 9.77147e-18)
(0.512131 0.414432 -2.64225e-16)
(0.748467 0.718896 8.00898e-17)
(0.783049 0.739243 6.52431e-17)
(0.746966 0.707085 0)
(0.684736 0.695924 -2.55351e-17)
(0.611896 0.70932 0)
(0.538341 0.735926 -1.01976e-16)
(0.4617 0.761013 1.51262e-16)
(0.369188 0.768029 3.41888e-17)
(0.246498 0.71528 -9.94271e-18)
)
;

boundaryField
{
    right
    {
        type            cyclic;
    }
    left
    {
        type            cyclic;
    }
    outerWall
    {
        type            noSlip;
    }
    stirrerWall
    {
        type            noSlip;
    }
    top
    {
        type            empty;
    }
    bottom
    {
        type            empty;
    }
}


// ************************************************************************* //
