/*--------------------------------*- C++ -*----------------------------------*\
  =========                 |
  \\      /  F ield         | OpenFOAM: The Open Source CFD Toolbox
   \\    /   O peration     | Website:  https://openfoam.org
    \\  /    A nd           | Version:  10
     \\/     M anipulation  |
\*---------------------------------------------------------------------------*/
FoamFile
{
    format      ascii;
    class       volVectorField;
    location    "53000";
    object      U;
}
// * * * * * * * * * * * * * * * * * * * * * * * * * * * * * * * * * * * * * //

dimensions      [0 1 -1 0 0 0 0];

internalField   nonuniform List<vector> 
17808
(
(-1.29986 1.41114 -5.3072e-18)
(-1.61029 1.75665 -5.9853e-19)
(-1.74864 1.90898 3.87238e-18)
(-1.84393 2.00956 4.19653e-18)
(-1.91452 2.08672 -9.8975e-19)
(-1.97114 2.14815 -7.02688e-18)
(-2.01804 2.19935 3.54711e-18)
(-2.05808 2.24314 -3.78446e-18)
(-2.09298 2.28142 6.39376e-18)
(-2.12391 2.31539 -8.9626e-22)
(-2.15167 2.34593 -2.90611e-18)
(-2.17684 2.37366 2.08307e-18)
(-2.19987 2.39906 -2.99513e-18)
(-2.22108 2.42247 3.19279e-19)
(-2.24073 2.44418 0)
(-2.25904 2.46443 2.95445e-19)
(-2.27616 2.48337 -5.69688e-19)
(-2.29224 2.50118 -5.499e-19)
(-2.30739 2.51796 -2.39054e-18)
(-2.3217 2.53383 1.87234e-21)
(-2.33526 2.54887 1.99278e-18)
(-2.34813 2.56316 0)
(-2.36038 2.57675 1.87252e-18)
(-2.37205 2.58972 -1.82027e-18)
(-2.38319 2.6021 1.76698e-18)
(-2.39383 2.61393 -2.15018e-18)
(-2.40402 2.62526 -4.18242e-19)
(-2.41378 2.63612 0)
(-2.42314 2.64654 -3.96803e-19)
(-2.43212 2.65654 -3.86731e-19)
(-2.44074 2.66614 1.50757e-18)
(-2.44903 2.67538 -1.10495e-18)
(-2.457 2.68426 0)
(-2.46467 2.6928 0)
(-2.47204 2.70102 3.42489e-19)
(-2.47914 2.70894 1.67213e-18)
(-2.48597 2.71656 -9.82219e-19)
(-2.49255 2.7239 0)
(-2.49888 2.73096 -1.24929e-18)
(-2.50498 2.73777 2.18988e-21)
(-2.51084 2.74431 1.79535e-18)
(-2.51649 2.75061 1.75422e-18)
(-2.52192 2.75668 -1.14619e-18)
(-2.52714 2.76251 5.6024e-19)
(-2.53215 2.76811 0)
(-2.53697 2.77349 -5.36673e-19)
(-2.5416 2.77866 1.57491e-18)
(-2.54603 2.78362 -2.05817e-18)
(-2.55028 2.78836 5.03444e-19)
(-2.55435 2.79291 0)
(-2.55824 2.79726 0)
(-2.56195 2.80141 1.41586e-18)
(-2.56549 2.80537 -4.63557e-19)
(-2.56886 2.80913 0)
(-2.57206 2.81271 4.43071e-19)
(-2.5751 2.81611 4.33704e-19)
(-2.57796 2.81932 -4.24487e-19)
(-2.58067 2.82235 -4.15418e-19)
(-2.58321 2.8252 -4.0652e-19)
(-2.5856 2.82787 7.94373e-19)
(-2.58782 2.83036 -1.16988e-21)
(-2.58989 2.83267 7.60226e-19)
(-2.59179 2.83481 -7.45938e-19)
(-2.59354 2.83678 -7.28358e-19)
(-2.59514 2.83857 -1.42321e-18)
(-2.59657 2.84018 6.96284e-19)
(-2.59785 2.84163 -1.36246e-18)
(-2.59898 2.8429 1.33042e-18)
(-2.59995 2.844 0)
(-2.60076 2.84492 6.35055e-19)
(-2.60142 2.84567 1.23939e-18)
(-2.60192 2.84625 -6.08169e-19)
(-2.60227 2.84665 -5.92657e-19)
(-2.60245 2.84688 5.77362e-19)
(-2.60249 2.84694 -1.19968e-21)
(-2.60236 2.84682 -1.64934e-18)
(-2.60208 2.84653 1.07381e-18)
(-2.60163 2.84606 0)
(-2.60103 2.84542 -5.1117e-19)
(-2.60027 2.84459 -1.49252e-18)
(-2.59934 2.84359 0)
(-2.59826 2.84241 0)
(-2.59701 2.84105 9.19467e-19)
(-2.5956 2.83951 0)
(-2.59402 2.83779 8.71651e-19)
(-2.59228 2.83588 0)
(-2.59037 2.83379 -1.48812e-23)
(-2.58829 2.83151 0)
(-2.58604 2.82905 0)
(-2.58362 2.8264 7.59153e-19)
(-2.58103 2.82356 1.47575e-18)
(-2.57827 2.82052 1.43399e-18)
(-1.29951 1.424 -5.95281e-19)
(-1.60519 1.76937 5.88463e-19)
(-1.74409 1.91849 0)
(-1.83773 2.01908 0)
(-1.90763 2.09568 9.89005e-19)
(-1.96396 2.15652 -4.66258e-19)
(-2.01073 2.20721 3.52646e-18)
(-2.05073 2.25058 -2.9234e-18)
(-2.08565 2.28851 -3.96613e-19)
(-2.11662 2.3222 3.01742e-18)
(-2.14444 2.35251 -3.23885e-18)
(-2.16967 2.38006 6.87807e-19)
(-2.19275 2.40531 3.29304e-19)
(-2.214 2.42861 -3.15917e-19)
(-2.2337 2.45024 0)
(-2.25204 2.47041 -2.92188e-19)
(-2.2692 2.48931 2.81625e-19)
(-2.28531 2.50707 2.71806e-19)
(-2.30048 2.52383 0)
(-2.31482 2.53967 0)
(-2.32839 2.5547 0)
(-2.34128 2.56897 -4.7704e-19)
(-2.35354 2.58257 0)
(-2.36522 2.59553 -4.49478e-19)
(-2.37637 2.60791 0)
(-2.38703 2.61974 4.24831e-19)
(-2.39722 2.63108 4.13496e-19)
(-2.40699 2.64194 0)
(-2.41635 2.65237 -1.5682e-18)
(-2.42533 2.66238 3.84516e-19)
(-2.43396 2.67199 1.12006e-18)
(-2.44225 2.68124 -3.63974e-19)
(-2.45022 2.69013 1.42026e-18)
(-2.45789 2.69868 -3.123e-18)
(-2.46527 2.70692 1.01801e-18)
(-2.47236 2.71484 -3.31261e-19)
(-2.4792 2.72248 -6.47661e-19)
(-2.48577 2.72983 0)
(-2.4921 2.7369 0)
(-2.4982 2.74372 1.51358e-18)
(-2.50406 2.75028 -1.18669e-18)
(-2.5097 2.75659 -4.57505e-23)
(-2.51513 2.76267 -5.67813e-19)
(-2.52035 2.76851 -1.1116e-18)
(-2.52536 2.77412 -5.4303e-19)
(-2.53018 2.77952 1.59939e-18)
(-2.5348 2.78469 -1.04219e-18)
(-2.53923 2.78966 1.53361e-18)
(-2.54348 2.79442 -1.49957e-18)
(-2.54754 2.79898 9.80916e-19)
(-2.55143 2.80334 -9.58389e-19)
(-2.55514 2.8075 9.40845e-19)
(-2.55868 2.81146 -4.60148e-19)
(-2.56204 2.81524 0)
(-2.56524 2.81883 -4.41277e-19)
(-2.56827 2.82223 0)
(-2.57114 2.82545 0)
(-2.57384 2.82849 4.14246e-19)
(-2.57638 2.83135 1.17823e-21)
(-2.57877 2.83402 7.95141e-19)
(-2.58099 2.83652 -7.77121e-19)
(-2.58305 2.83884 7.60558e-19)
(-2.58496 2.84099 0)
(-2.5867 2.84296 0)
(-2.5883 2.84476 1.42359e-18)
(-2.58973 2.84638 -6.96826e-19)
(-2.59101 2.84782 1.36416e-18)
(-2.59214 2.8491 -1.21045e-21)
(-2.59311 2.8502 -6.52657e-19)
(-2.59392 2.85113 0)
(-2.59458 2.85188 -1.24339e-18)
(-2.59508 2.85246 2.43211e-18)
(-2.59543 2.85287 -2.41424e-21)
(-2.59562 2.8531 -2.41561e-21)
(-2.59565 2.85316 -1.20165e-21)
(-2.59552 2.85304 5.51762e-19)
(-2.59524 2.85275 -1.08061e-18)
(-2.5948 2.85228 5.26622e-19)
(-2.5942 2.85164 1.02628e-18)
(-2.59344 2.85081 -5.02256e-19)
(-2.59252 2.84981 4.87344e-19)
(-2.59144 2.84863 -1.42993e-18)
(-2.59019 2.84727 1.39117e-18)
(-2.58879 2.84573 -2.40248e-21)
(-2.58721 2.844 -8.80927e-19)
(-2.58548 2.84209 4.30116e-19)
(-2.58357 2.83999 -1.67027e-18)
(-2.5815 2.83771 0)
(-2.57926 2.83525 0)
(-2.57685 2.83259 -1.53864e-18)
(-2.57427 2.82974 -1.12104e-18)
(-2.57151 2.8267 -7.25012e-19)
(-1.29783 1.43141 1.19085e-18)
(-1.60333 1.77662 9.40534e-18)
(-1.74227 1.92513 -1.77518e-17)
(-1.83433 2.02664 8.371e-18)
(-1.90364 2.10306 -4.92003e-19)
(-1.95934 2.16382 0)
(-2.00557 2.21442 0)
(-2.04515 2.25767 0)
(-2.07974 2.29547 -5.8958e-18)
(-2.11045 2.32903 5.98293e-18)
(-2.13807 2.35923 3.5619e-19)
(-2.16315 2.38667 1.28185e-22)
(-2.18612 2.41182 5.20958e-18)
(-2.2073 2.43504 -1.03069e-17)
(-2.22693 2.45659 4.80217e-18)
(-2.24523 2.4767 4.32833e-18)
(-2.26235 2.49554 -4.17431e-18)
(-2.27843 2.51326 0)
(-2.29359 2.52998 0)
(-2.30791 2.5458 0)
(-2.32148 2.5608 0)
(-2.33436 2.57506 9.41877e-19)
(-2.34661 2.58864 0)
(-2.35829 2.60159 4.4371e-19)
(-2.36943 2.61396 0)
(-2.38008 2.6258 -4.19387e-19)
(-2.39027 2.63713 0)
(-2.40004 2.648 1.58887e-18)
(-2.4094 2.65842 -1.55019e-18)
(-2.41838 2.66844 3.77587e-19)
(-2.427 2.67806 -3.68314e-19)
(-2.43529 2.68731 1.79622e-18)
(-2.44326 2.69621 -2.05239e-21)
(-2.45092 2.70477 -1.02928e-18)
(-2.4583 2.71301 1.00364e-18)
(-2.46539 2.72095 -9.82977e-19)
(-2.47222 2.72859 3.20025e-19)
(-2.47879 2.73595 0)
(-2.48512 2.74304 0)
(-2.49121 2.74986 -1.79611e-18)
(-2.49707 2.75643 2.14939e-21)
(-2.50271 2.76276 2.12437e-21)
(-2.50813 2.76884 1.68636e-18)
(-2.51335 2.77469 -1.09893e-18)
(-2.51836 2.78032 5.3968e-19)
(-2.52317 2.78572 0)
(-2.52779 2.79091 0)
(-2.53222 2.79589 0)
(-2.53646 2.80066 1.12487e-21)
(-2.54052 2.80522 4.86686e-19)
(-2.54441 2.80959 0)
(-2.54811 2.81376 4.65951e-19)
(-2.55165 2.81774 -9.11782e-19)
(-2.55501 2.82152 1.34258e-18)
(-2.55821 2.82512 8.74879e-19)
(-2.56123 2.82853 -8.59248e-19)
(-2.5641 2.83176 -8.39323e-19)
(-2.5668 2.8348 4.12756e-19)
(-2.56934 2.83767 -4.03089e-19)
(-2.57172 2.84035 3.9471e-19)
(-2.57394 2.84286 7.72981e-19)
(-2.576 2.84518 -7.56777e-19)
(-2.5779 2.84733 0)
(-2.57965 2.84931 0)
(-2.58124 2.85111 -1.83248e-23)
(-2.58267 2.85274 -1.38756e-18)
(-2.58395 2.85419 6.80535e-19)
(-2.58508 2.85547 -6.63332e-19)
(-2.58605 2.85657 1.94977e-18)
(-2.58686 2.8575 -1.20544e-21)
(-2.58752 2.85826 6.2133e-19)
(-2.58802 2.85884 -6.07345e-19)
(-2.58837 2.85925 0)
(-2.58856 2.85949 0)
(-2.58859 2.85955 0)
(-2.58847 2.85943 5.52059e-19)
(-2.58819 2.85914 -5.4142e-19)
(-2.58775 2.85867 -5.27363e-19)
(-2.58715 2.85803 0)
(-2.5864 2.8572 0)
(-2.58548 2.8562 -1.46838e-18)
(-2.5844 2.85501 2.38988e-18)
(-2.58316 2.85365 -1.38013e-23)
(-2.58176 2.8521 0)
(-2.58019 2.85038 -4.4122e-19)
(-2.57846 2.84846 2.40565e-21)
(-2.57656 2.84636 4.21008e-19)
(-2.57449 2.84408 -8.17505e-19)
(-2.57226 2.84161 -7.95789e-19)
(-2.56985 2.83894 1.16048e-18)
(-2.56728 2.83609 -2.38174e-21)
(-2.56453 2.83305 3.65236e-19)
(-1.29386 1.43594 8.33956e-18)
(-1.59971 1.78124 8.79875e-18)
(-1.73829 1.93047 -9.39936e-18)
(-1.82965 2.03266 5.20659e-19)
(-1.8989 2.10905 0)
(-1.9543 2.17 0)
(-2.00027 2.22072 0)
(-2.03962 2.26405 6.57439e-18)
(-2.07399 2.3019 -1.24667e-17)
(-2.1045 2.33549 1.18463e-17)
(-2.13194 2.36569 -5.64385e-18)
(-2.15687 2.39314 5.04785e-18)
(-2.1797 2.41828 -5.15489e-18)
(-2.20076 2.44148 3.08679e-19)
(-2.2203 2.46301 5.03802e-18)
(-2.23851 2.4831 -4.27933e-18)
(-2.25557 2.50192 4.39369e-18)
(-2.27159 2.51962 -2.68766e-19)
(-2.2867 2.53632 -4.0982e-18)
(-2.30098 2.55212 -2.47625e-19)
(-2.31451 2.56711 0)
(-2.32736 2.58135 -9.29533e-19)
(-2.33959 2.59492 0)
(-2.35125 2.60787 0)
(-2.36237 2.62023 -3.82762e-18)
(-2.37301 2.63206 3.31261e-18)
(-2.38318 2.6434 0)
(-2.39293 2.65426 0)
(-2.40228 2.66469 0)
(-2.41126 2.6747 -7.45379e-19)
(-2.41987 2.68433 3.63576e-19)
(-2.42815 2.69358 0)
(-2.43611 2.70249 0)
(-2.44377 2.71105 0)
(-2.45113 2.7193 -1.98224e-18)
(-2.45822 2.72725 2.9116e-18)
(-2.46504 2.7349 0)
(-2.47161 2.74227 0)
(-2.47793 2.74936 0)
(-2.48402 2.7562 2.66225e-18)
(-2.48987 2.76277 -4.24664e-21)
(-2.49551 2.76911 -5.67372e-18)
(-2.50093 2.7752 3.88888e-18)
(-2.50614 2.78106 -1.63435e-18)
(-2.51114 2.7867 0)
(-2.51595 2.79211 5.21995e-19)
(-2.52056 2.79731 2.04336e-18)
(-2.52499 2.80229 -2.00632e-18)
(-2.52923 2.80707 -4.90923e-19)
(-2.53328 2.81165 2.40288e-18)
(-2.53716 2.81602 -9.46039e-19)
(-2.54087 2.8202 -9.25987e-19)
(-2.5444 2.82419 -9.06301e-19)
(-2.54776 2.82798 -1.13823e-21)
(-2.55095 2.83159 -1.30481e-18)
(-2.55397 2.83501 0)
(-2.55683 2.83824 4.16047e-19)
(-2.55953 2.84129 -8.1861e-19)
(-2.56207 2.84416 -1.2001e-18)
(-2.56444 2.84685 3.93399e-19)
(-2.56666 2.84936 7.68385e-19)
(-2.56872 2.8517 1.16378e-21)
(-2.57062 2.85385 2.35062e-21)
(-2.57237 2.85584 7.22764e-19)
(-2.57396 2.85764 -7.06456e-19)
(-2.57539 2.85927 6.91518e-19)
(-2.57667 2.86073 0)
(-2.57779 2.86201 -6.61121e-19)
(-2.57876 2.86312 -6.45633e-19)
(-2.57957 2.86405 1.18873e-21)
(-2.58023 2.86481 -1.23881e-18)
(-2.58073 2.8654 1.21376e-18)
(-2.58108 2.86581 0)
(-2.58127 2.86605 -1.20296e-21)
(-2.58131 2.86611 -1.13364e-18)
(-2.58119 2.86599 5.53221e-19)
(-2.58091 2.8657 5.40413e-19)
(-2.58047 2.86523 5.27762e-19)
(-2.57988 2.86458 0)
(-2.57913 2.86376 0)
(-2.57821 2.86275 9.81773e-19)
(-2.57714 2.86157 -1.91573e-18)
(-2.5759 2.8602 -9.34322e-19)
(-2.5745 2.85865 9.111e-19)
(-2.57294 2.85692 1.33115e-18)
(-2.57121 2.855 4.31651e-19)
(-2.56932 2.8529 8.43563e-19)
(-2.56726 2.85061 4.09672e-19)
(-2.56503 2.84813 7.9786e-19)
(-2.56264 2.84547 -3.90768e-19)
(-2.56007 2.84261 3.77982e-19)
(-2.55733 2.83956 -2.40294e-21)
(-1.28984 1.4403 1.01179e-17)
(-1.59554 1.78562 -9.36672e-18)
(-1.73342 1.93576 -8.25713e-18)
(-1.82435 2.03829 1.55351e-17)
(-1.8935 2.11476 -7.30022e-18)
(-1.94865 2.17594 7.77624e-18)
(-1.99446 2.22678 -1.37962e-17)
(-2.03366 2.27022 3.78091e-21)
(-2.0679 2.30815 6.17463e-18)
(-2.09829 2.3418 0)
(-2.12562 2.37206 0)
(-2.15044 2.39953 -3.329e-19)
(-2.17317 2.4247 -3.18356e-19)
(-2.19414 2.44792 3.05057e-19)
(-2.21359 2.46947 5.07966e-23)
(-2.23173 2.48956 -2.81619e-19)
(-2.24872 2.50839 -5.42445e-19)
(-2.26468 2.52609 -2.96075e-23)
(-2.27973 2.54279 0)
(-2.29396 2.55859 2.44337e-19)
(-2.30745 2.57357 3.7831e-18)
(-2.32026 2.58781 -3.21167e-18)
(-2.33246 2.60138 0)
(-2.34408 2.61432 3.88551e-18)
(-2.35518 2.62669 -2.94024e-18)
(-2.36579 2.63852 -3.26403e-18)
(-2.37594 2.64985 3.1806e-18)
(-2.38567 2.66072 3.86971e-19)
(-2.395 2.67115 0)
(-2.40396 2.68116 3.67722e-19)
(-2.41256 2.69079 0)
(-2.42083 2.70005 0)
(-2.42877 2.70896 -2.7335e-18)
(-2.43642 2.71753 2.34037e-18)
(-2.44377 2.72579 -6.52947e-19)
(-2.45085 2.73374 -2.55139e-18)
(-2.45766 2.7414 2.18709e-18)
(-2.46422 2.74877 -3.0536e-19)
(-2.47053 2.75588 -2.38841e-18)
(-2.47661 2.76272 2.34184e-18)
(-2.48246 2.7693 -2.28853e-18)
(-2.48809 2.77565 2.80585e-18)
(-2.4935 2.78175 -2.1946e-18)
(-2.4987 2.78762 4.26666e-21)
(-2.5037 2.79326 3.68906e-18)
(-2.5085 2.79868 -2.58397e-18)
(-2.51311 2.80389 0)
(-2.51753 2.80888 1.98123e-18)
(-2.52176 2.81367 -1.94604e-18)
(-2.52582 2.81825 0)
(-2.52969 2.82264 -4.66833e-19)
(-2.53339 2.82683 9.15172e-19)
(-2.53691 2.83082 -1.79183e-18)
(-2.54027 2.83462 3.95666e-18)
(-2.54346 2.83823 -1.29497e-18)
(-2.54648 2.84166 -4.22344e-19)
(-2.54934 2.8449 2.06745e-18)
(-2.55203 2.84796 8.0679e-19)
(-2.55456 2.85084 3.9297e-19)
(-2.55694 2.85353 -4.61859e-21)
(-2.55915 2.85605 -4.58055e-18)
(-2.56121 2.85839 -7.43302e-19)
(-2.56311 2.86055 4.67263e-21)
(-2.56485 2.86254 1.4377e-18)
(-2.56644 2.86435 -2.10628e-18)
(-2.56787 2.86598 -1.37186e-18)
(-2.56915 2.86744 3.55656e-21)
(-2.57027 2.86873 6.60904e-19)
(-2.57124 2.86984 -6.44533e-19)
(-2.57205 2.87078 1.26503e-18)
(-2.57271 2.87154 0)
(-2.57321 2.87213 -1.20852e-18)
(-2.57356 2.87254 5.92796e-19)
(-2.57375 2.87278 1.21125e-21)
(-2.57379 2.87284 1.13239e-18)
(-2.57367 2.87273 -5.52846e-19)
(-2.5734 2.87243 0)
(-2.57296 2.87197 -1.05569e-18)
(-2.57237 2.87132 0)
(-2.57162 2.87049 -1.00702e-18)
(-2.57071 2.86949 0)
(-2.56964 2.8683 4.8106e-19)
(-2.56841 2.86693 4.69457e-19)
(-2.56702 2.86538 -1.36924e-18)
(-2.56546 2.86364 -4.44344e-19)
(-2.56374 2.86172 -1.30213e-18)
(-2.56185 2.85961 -4.22295e-19)
(-2.5598 2.85732 8.2548e-19)
(-2.55758 2.85484 -4.0092e-19)
(-2.55519 2.85216 7.85791e-19)
(-2.55263 2.8493 -3.80208e-19)
(-2.5499 2.84624 -1.11514e-18)
(-1.28602 1.44479 0)
(-1.5914 1.79022 0)
(-1.7285 1.94121 8.22445e-18)
(-1.81916 2.0439 -3.94209e-21)
(-1.88808 2.12055 -8.21935e-18)
(-1.94296 2.18193 6.8089e-18)
(-1.98859 2.23288 -6.41375e-18)
(-2.02763 2.27642 0)
(-2.06172 2.31443 -3.81999e-19)
(-2.09198 2.34815 -6.16069e-18)
(-2.11918 2.37846 5.52098e-18)
(-2.14389 2.40598 6.58033e-19)
(-2.16653 2.43119 3.14487e-19)
(-2.18741 2.45443 -5.42115e-18)
(-2.20678 2.476 4.33911e-18)
(-2.22484 2.49612 2.77964e-19)
(-2.24176 2.51496 2.67666e-19)
(-2.25766 2.53267 4.64476e-18)
(-2.27265 2.54938 -3.77876e-21)
(-2.28682 2.56519 -7.7134e-18)
(-2.30026 2.58018 3.73535e-18)
(-2.31303 2.59443 0)
(-2.32518 2.608 -3.50784e-18)
(-2.33677 2.62094 3.83083e-21)
(-2.34783 2.63331 3.3136e-18)
(-2.35841 2.64515 4.02613e-19)
(-2.36853 2.65649 3.13285e-18)
(-2.37824 2.66736 -6.86951e-18)
(-2.38754 2.67779 5.95091e-18)
(-2.39648 2.68781 -3.90467e-21)
(-2.40506 2.69744 -3.18671e-18)
(-2.41331 2.70671 0)
(-2.42124 2.71562 0)
(-2.42887 2.7242 3.29607e-19)
(-2.43621 2.73247 3.22167e-19)
(-2.44327 2.74042 -6.30012e-19)
(-2.45007 2.74809 9.57826e-24)
(-2.45662 2.75547 3.01467e-19)
(-2.46292 2.76258 0)
(-2.46899 2.76943 -2.59737e-18)
(-2.47482 2.77602 1.69895e-18)
(-2.48044 2.78237 -2.21377e-18)
(-2.48584 2.78848 2.71532e-18)
(-2.49104 2.79436 2.1245e-18)
(-2.49603 2.80001 -2.08593e-18)
(-2.50083 2.80544 0)
(-2.50543 2.81066 0)
(-2.50984 2.81566 0)
(-2.51407 2.82045 0)
(-2.51811 2.82505 -4.71387e-19)
(-2.52198 2.82944 -1.38427e-18)
(-2.52568 2.83363 1.36154e-18)
(-2.5292 2.83763 0)
(-2.53255 2.84144 -4.35577e-19)
(-2.53573 2.84506 -1.70604e-18)
(-2.53875 2.8485 2.09582e-18)
(-2.5416 2.85174 4.10501e-19)
(-2.54429 2.85481 -1.15956e-23)
(-2.54682 2.85769 3.94508e-19)
(-2.54919 2.86039 0)
(-2.5514 2.86292 7.58083e-19)
(-2.55346 2.86526 0)
(-2.55535 2.86743 0)
(-2.5571 2.86942 -2.13784e-18)
(-2.55868 2.87124 3.49467e-18)
(-2.56011 2.87288 -6.87011e-19)
(-2.56139 2.87434 6.70624e-19)
(-2.56251 2.87563 0)
(-2.56348 2.87675 6.43058e-19)
(-2.56429 2.87769 6.27172e-19)
(-2.56495 2.87845 -2.46492e-18)
(-2.56545 2.87904 1.20854e-18)
(-2.5658 2.87945 0)
(-2.566 2.87969 0)
(-2.56603 2.87976 5.6461e-19)
(-2.56592 2.87964 0)
(-2.56564 2.87935 5.39778e-19)
(-2.56521 2.87888 -5.25175e-19)
(-2.56462 2.87823 1.03358e-18)
(-2.56388 2.8774 -5.02485e-19)
(-2.56297 2.8764 1.47721e-18)
(-2.5619 2.87521 0)
(-2.56068 2.87384 -4.67827e-19)
(-2.55929 2.87228 4.59011e-19)
(-2.55774 2.87054 0)
(-2.55602 2.86862 -4.36979e-19)
(-2.55414 2.86651 1.27374e-18)
(-2.55209 2.86421 0)
(-2.54988 2.86172 0)
(-2.5475 2.85904 -1.17954e-18)
(-2.54495 2.85617 1.91837e-18)
(-2.54223 2.85311 7.46887e-19)
(-1.28207 1.44915 0)
(-1.58704 1.79487 -5.82713e-19)
(-1.7234 1.94663 5.45998e-19)
(-1.81386 2.04947 5.12092e-19)
(-1.88253 2.12635 7.19896e-18)
(-1.93718 2.18789 -7.20941e-18)
(-1.98263 2.23897 1.31578e-22)
(-2.0215 2.28262 -6.39187e-18)
(-2.05544 2.32072 6.42798e-18)
(-2.08557 2.35452 -5.73498e-18)
(-2.11265 2.3849 1.09121e-17)
(-2.13725 2.41247 -3.28977e-19)
(-2.15978 2.43773 -3.87668e-21)
(-2.18057 2.46102 -4.7618e-18)
(-2.19985 2.48262 0)
(-2.21783 2.50277 0)
(-2.23467 2.52163 4.22387e-18)
(-2.2505 2.53937 -8.40357e-18)
(-2.26543 2.5561 3.93597e-18)
(-2.27954 2.57192 -3.80153e-18)
(-2.29293 2.58693 3.68339e-18)
(-2.30565 2.60119 0)
(-2.31775 2.61477 -3.4585e-18)
(-2.32929 2.62773 2.52172e-18)
(-2.34032 2.64011 3.26301e-18)
(-2.35086 2.65195 -3.57414e-18)
(-2.36095 2.66329 0)
(-2.37062 2.67417 3.76257e-19)
(-2.3799 2.68461 0)
(-2.38881 2.69464 0)
(-2.39737 2.70428 3.48929e-19)
(-2.40559 2.71355 -2.72313e-18)
(-2.4135 2.72247 2.66356e-18)
(-2.42111 2.73106 -2.27369e-18)
(-2.42843 2.73933 2.54431e-18)
(-2.43548 2.7473 6.21544e-19)
(-2.44226 2.75497 -2.12606e-18)
(-2.44879 2.76236 4.46237e-18)
(-2.45508 2.76948 -2.33161e-18)
(-2.46114 2.77633 2.85119e-19)
(-2.46696 2.78293 1.11691e-18)
(-2.47257 2.78929 -2.18609e-18)
(-2.47796 2.79541 1.60996e-18)
(-2.48315 2.8013 0)
(-2.48813 2.80695 1.02951e-18)
(-2.49291 2.81239 0)
(-2.49751 2.81761 1.48186e-18)
(-2.50191 2.82263 -4.89245e-19)
(-2.50613 2.82743 -1.90433e-18)
(-2.51017 2.83203 4.66332e-19)
(-2.51403 2.83643 0)
(-2.51772 2.84063 0)
(-2.52123 2.84464 0)
(-2.52458 2.84845 4.31368e-19)
(-2.52776 2.85208 -1.68999e-18)
(-2.53077 2.85552 3.31916e-18)
(-2.53362 2.85878 -3.66198e-18)
(-2.5363 2.86185 -3.9452e-19)
(-2.53883 2.86474 7.84812e-19)
(-2.5412 2.86744 -1.53238e-18)
(-2.54341 2.86997 4.56727e-21)
(-2.54546 2.87232 1.47747e-18)
(-2.54735 2.8745 7.23049e-19)
(-2.54909 2.87649 7.08742e-19)
(-2.55067 2.87831 0)
(-2.5521 2.87996 2.03973e-18)
(-2.55338 2.88142 -4.68476e-21)
(-2.5545 2.88272 -1.30916e-18)
(-2.55547 2.88383 -6.40043e-19)
(-2.55628 2.88478 0)
(-2.55694 2.88554 0)
(-2.55744 2.88613 -6.00937e-19)
(-2.55779 2.88655 0)
(-2.55799 2.88679 -5.75685e-19)
(-2.55803 2.88685 -1.68749e-18)
(-2.55791 2.88674 5.55869e-19)
(-2.55764 2.88645 -5.3415e-19)
(-2.55721 2.88598 1.05648e-18)
(-2.55663 2.88533 -5.15239e-19)
(-2.55588 2.8845 1.00721e-18)
(-2.55498 2.88349 -9.84215e-19)
(-2.55392 2.8823 0)
(-2.5527 2.88092 0)
(-2.55131 2.87937 9.16982e-19)
(-2.54977 2.87762 0)
(-2.54806 2.87569 8.73642e-19)
(-2.54618 2.87358 -1.70481e-18)
(-2.54414 2.87128 0)
(-2.54194 2.86878 8.10819e-19)
(-2.53956 2.8661 0)
(-2.53702 2.86322 -7.70447e-19)
(-2.53431 2.86015 0)
(-1.27792 1.4534 1.00989e-17)
(-1.58237 1.79953 1.04571e-17)
(-1.71801 1.95199 -1.73968e-17)
(-1.8083 2.055 3.87744e-21)
(-1.8767 2.13213 8.58096e-18)
(-1.93115 2.19384 -7.59245e-18)
(-1.97644 2.24505 -4.15673e-19)
(-2.01515 2.28882 6.33202e-18)
(-2.04896 2.32703 6.35551e-18)
(-2.07897 2.36092 -1.09901e-17)
(-2.10594 2.39137 3.40974e-19)
(-2.13043 2.41901 4.8191e-18)
(-2.15286 2.44433 0)
(-2.17355 2.46767 2.9362e-19)
(-2.19275 2.48932 2.81675e-19)
(-2.21065 2.5095 0)
(-2.22742 2.52841 4.16613e-18)
(-2.24318 2.54617 -3.79065e-21)
(-2.25804 2.56293 -3.63845e-18)
(-2.2721 2.57878 2.34369e-19)
(-2.28543 2.59381 0)
(-2.29809 2.60809 -3.07492e-18)
(-2.31015 2.62169 2.9862e-18)
(-2.32164 2.63466 -2.82097e-23)
(-2.33262 2.64705 -3.21589e-18)
(-2.34313 2.65891 3.52253e-18)
(-2.35318 2.67027 0)
(-2.36282 2.68116 0)
(-2.37206 2.69161 -2.52808e-18)
(-2.38094 2.70165 3.82932e-21)
(-2.38947 2.7113 2.75349e-18)
(-2.39767 2.72058 0)
(-2.40555 2.72951 -2.62208e-18)
(-2.41314 2.73811 2.24569e-18)
(-2.42044 2.74638 -2.19161e-18)
(-2.42747 2.75436 2.14733e-18)
(-2.43423 2.76204 -2.99852e-19)
(-2.44075 2.76944 -2.05225e-18)
(-2.44702 2.77656 2.30038e-18)
(-2.45306 2.78343 0)
(-2.45887 2.79004 2.20256e-18)
(-2.46446 2.7964 -2.16195e-18)
(-2.46984 2.80253 0)
(-2.47501 2.80842 0)
(-2.47998 2.81409 -2.53997e-18)
(-2.48476 2.81954 1.49746e-18)
(-2.48934 2.82477 2.44175e-18)
(-2.49374 2.82978 -3.35523e-18)
(-2.49795 2.8346 1.88252e-18)
(-2.50198 2.8392 0)
(-2.50583 2.84361 0)
(-2.50951 2.84782 2.2162e-18)
(-2.51302 2.85183 -1.74312e-18)
(-2.51636 2.85566 -4.26966e-19)
(-2.51953 2.85929 0)
(-2.52254 2.86274 -2.05232e-18)
(-2.52538 2.866 4.43632e-21)
(-2.52806 2.86908 1.18847e-18)
(-2.53059 2.87197 2.32495e-18)
(-2.53295 2.87468 -1.90445e-18)
(-2.53515 2.87722 7.46256e-19)
(-2.5372 2.87957 0)
(-2.53909 2.88175 -1.51953e-23)
(-2.54083 2.88375 0)
(-2.54241 2.88558 6.89929e-19)
(-2.54384 2.88722 6.74017e-19)
(-2.54511 2.8887 -1.3282e-18)
(-2.54623 2.88999 6.49706e-19)
(-2.5472 2.89111 6.36648e-19)
(-2.54801 2.89206 6.23756e-19)
(-2.54867 2.89283 -1.21969e-18)
(-2.54917 2.89342 1.79774e-18)
(-2.54952 2.89384 0)
(-2.54972 2.89408 5.7377e-19)
(-2.54976 2.89414 -5.61639e-19)
(-2.54965 2.89403 -1.09933e-18)
(-2.54938 2.89373 -5.37828e-19)
(-2.54895 2.89326 0)
(-2.54837 2.89261 5.1459e-19)
(-2.54763 2.89178 0)
(-2.54673 2.89077 9.83793e-19)
(-2.54568 2.88958 0)
(-2.54446 2.8882 0)
(-2.54308 2.88664 -9.1538e-19)
(-2.54154 2.88489 2.44175e-21)
(-2.53984 2.88296 8.75192e-19)
(-2.53797 2.88084 9.89395e-24)
(-2.53594 2.87853 -8.33692e-19)
(-2.53374 2.87603 -8.13372e-19)
(-2.53137 2.87334 -1.58419e-18)
(-2.52884 2.87046 7.76e-19)
(-2.52614 2.86738 0)
(-1.27364 1.45763 -1.00872e-17)
(-1.57744 1.80427 8.69245e-18)
(-1.71239 1.95739 0)
(-1.80248 2.06058 8.09334e-18)
(-1.87061 2.13797 -8.51671e-18)
(-1.92487 2.19984 -8.34145e-23)
(-1.96999 2.25119 6.23485e-18)
(-2.00856 2.29509 -4.02177e-21)
(-2.04224 2.3334 -6.65945e-18)
(-2.07213 2.36738 0)
(-2.09899 2.39791 -3.32891e-19)
(-2.12339 2.42563 -5.07204e-18)
(-2.14573 2.45101 4.8467e-18)
(-2.16633 2.47441 0)
(-2.18545 2.49611 -2.77825e-19)
(-2.20328 2.51634 -2.66936e-19)
(-2.21997 2.53529 0)
(-2.23566 2.55309 -3.71169e-18)
(-2.25046 2.56989 7.40804e-18)
(-2.26446 2.58577 -7.62211e-18)
(-2.27773 2.60082 7.15271e-18)
(-2.29034 2.61513 -4.36844e-19)
(-2.30234 2.62875 -2.9424e-18)
(-2.31379 2.64175 4.07808e-19)
(-2.32473 2.65416 0)
(-2.33519 2.66604 -3.85395e-19)
(-2.3452 2.67741 0)
(-2.3548 2.68831 3.28642e-18)
(-2.36401 2.69878 -3.20688e-18)
(-2.37286 2.70883 2.77657e-18)
(-2.38136 2.7185 -5.42272e-18)
(-2.38952 2.72779 2.98013e-18)
(-2.39738 2.73673 0)
(-2.40494 2.74534 2.52549e-18)
(-2.41222 2.75363 -5.56011e-18)
(-2.41922 2.76161 2.41906e-18)
(-2.42597 2.7693 -3.57194e-25)
(-2.43246 2.77671 0)
(-2.43872 2.78384 -2.54809e-18)
(-2.44474 2.79072 3.9718e-21)
(-2.45053 2.79733 1.63318e-18)
(-2.45611 2.80371 0)
(-2.46147 2.80984 -2.08679e-18)
(-2.46663 2.81575 2.56163e-18)
(-2.47159 2.82142 0)
(-2.47636 2.82688 8.65989e-24)
(-2.48093 2.83211 -1.92888e-18)
(-2.48531 2.83714 3.31457e-18)
(-2.48951 2.84196 -2.32463e-18)
(-2.49353 2.84657 0)
(-2.49738 2.85099 4.47119e-19)
(-2.50105 2.8552 -4.38722e-19)
(-2.50455 2.85922 0)
(-2.50788 2.86305 -1.68751e-18)
(-2.51105 2.8667 1.66022e-18)
(-2.51405 2.87015 4.06758e-19)
(-2.51689 2.87342 0)
(-2.51956 2.8765 7.83294e-19)
(-2.52208 2.8794 -3.8429e-19)
(-2.52444 2.88212 7.70329e-24)
(-2.52664 2.88466 7.3758e-19)
(-2.52868 2.88702 -1.45386e-18)
(-2.53057 2.8892 -7.11982e-19)
(-2.5323 2.89121 -6.98339e-19)
(-2.53388 2.89303 -6.84914e-19)
(-2.53531 2.89469 0)
(-2.53658 2.89616 6.58569e-19)
(-2.5377 2.89746 -6.45672e-19)
(-2.53866 2.89858 -1.26585e-18)
(-2.53948 2.89953 -6.20343e-19)
(-2.54013 2.9003 -1.21346e-18)
(-2.54064 2.9009 1.78924e-18)
(-2.54099 2.90131 -1.16461e-18)
(-2.54119 2.90156 5.73881e-19)
(-2.54123 2.90162 1.67658e-18)
(-2.54112 2.90151 -5.50327e-19)
(-2.54085 2.90121 5.3637e-19)
(-2.54043 2.90074 -1.04744e-18)
(-2.53985 2.90009 1.02964e-18)
(-2.53912 2.89926 0)
(-2.53822 2.89824 -1.96556e-18)
(-2.53717 2.89705 -9.6094e-19)
(-2.53596 2.89567 9.39366e-19)
(-2.53458 2.8941 -1.83612e-18)
(-2.53305 2.89235 8.97009e-19)
(-2.53135 2.89042 -1.74998e-18)
(-2.52949 2.88829 1.71381e-18)
(-2.52747 2.88598 9.05329e-24)
(-2.52528 2.88347 8.12953e-19)
(-2.52292 2.88077 -2.4452e-21)
(-2.5204 2.87788 -7.76198e-19)
(-2.5177 2.8748 7.54547e-19)
(-1.26923 1.46189 -9.48534e-18)
(-1.57229 1.80913 -9.24051e-18)
(-1.70657 1.96285 3.69536e-21)
(-1.79645 2.06626 1.60864e-17)
(-1.8643 2.1439 -7.04284e-18)
(-1.91837 2.20593 7.46077e-18)
(-1.96332 2.25743 -6.17801e-18)
(-2.00175 2.30145 0)
(-2.0353 2.33987 3.6566e-19)
(-2.06507 2.37394 5.1918e-18)
(-2.09183 2.40456 -4.93388e-18)
(-2.11612 2.43236 6.26107e-19)
(-2.13837 2.4578 2.98818e-19)
(-2.15889 2.48126 -4.2856e-18)
(-2.17793 2.50302 4.65997e-18)
(-2.19568 2.5233 4.47184e-18)
(-2.2123 2.5423 -4.05294e-18)
(-2.22793 2.56014 3.90202e-18)
(-2.24266 2.57697 -3.76947e-18)
(-2.2566 2.59289 -2.27579e-19)
(-2.26981 2.60798 -3.5214e-18)
(-2.28237 2.62232 3.41508e-18)
(-2.29432 2.63597 4.13793e-19)
(-2.30573 2.64899 -4.01704e-19)
(-2.31662 2.66142 0)
(-2.32703 2.67332 -3.03488e-18)
(-2.33701 2.68471 2.95753e-18)
(-2.34657 2.69564 -3.59854e-19)
(-2.35574 2.70612 0)
(-2.36455 2.71619 3.07703e-18)
(-2.37301 2.72587 -3.00658e-18)
(-2.38115 2.73518 -3.25801e-18)
(-2.38898 2.74413 2.54967e-18)
(-2.39651 2.75275 -2.48831e-18)
(-2.40376 2.76105 2.74131e-18)
(-2.41074 2.76905 0)
(-2.41746 2.77675 2.91383e-19)
(-2.42394 2.78417 2.85251e-19)
(-2.43017 2.79131 -1.67405e-18)
(-2.43617 2.7982 4.37795e-18)
(-2.44195 2.80483 -5.40145e-19)
(-2.44751 2.81121 -3.67855e-18)
(-2.45286 2.81735 2.06257e-18)
(-2.458 2.82326 1.00817e-18)
(-2.46294 2.82895 -1.98331e-18)
(-2.46769 2.83441 4.8583e-19)
(-2.47225 2.83966 1.90427e-18)
(-2.47662 2.84469 -9.37189e-19)
(-2.48081 2.84952 2.29183e-18)
(-2.48483 2.85414 -1.35268e-18)
(-2.48866 2.85856 -7.2576e-24)
(-2.49232 2.86279 0)
(-2.49581 2.86682 -1.70022e-18)
(-2.49914 2.87065 2.09074e-18)
(-2.5023 2.8743 0)
(-2.50529 2.87776 0)
(-2.50812 2.88103 1.57789e-18)
(-2.51079 2.88412 -7.79811e-19)
(-2.5133 2.88703 -1.90491e-18)
(-2.51565 2.88975 -1.11824e-18)
(-2.51785 2.8923 1.46839e-18)
(-2.51989 2.89466 -7.19398e-19)
(-2.52178 2.89685 7.03679e-19)
(-2.52351 2.89886 -6.94892e-19)
(-2.52508 2.90069 -1.35681e-18)
(-2.52651 2.90235 1.33552e-18)
(-2.52777 2.90382 -1.30774e-18)
(-2.52889 2.90513 0)
(-2.52986 2.90625 2.51309e-18)
(-2.53067 2.9072 -1.23548e-18)
(-2.53132 2.90797 -1.20656e-18)
(-2.53183 2.90857 5.94804e-19)
(-2.53218 2.90899 0)
(-2.53238 2.90923 5.68916e-19)
(-2.53243 2.9093 0)
(-2.53232 2.90918 5.4589e-19)
(-2.53205 2.90889 5.32186e-19)
(-2.53163 2.90842 -1.04918e-18)
(-2.53106 2.90776 0)
(-2.53032 2.90693 5.01387e-19)
(-2.52943 2.90591 1.9623e-18)
(-2.52839 2.90471 9.59771e-19)
(-2.52718 2.90333 -9.38631e-19)
(-2.52581 2.90176 9.92141e-24)
(-2.52428 2.90001 0)
(-2.52259 2.89807 -8.7667e-19)
(-2.52074 2.89594 -2.44893e-21)
(-2.51872 2.89362 -2.44544e-21)
(-2.51654 2.8911 0)
(-2.51419 2.8884 -7.97523e-19)
(-2.51168 2.8855 1.55428e-18)
(-2.50899 2.88241 -2.46255e-21)
(-1.26469 1.46618 -9.47462e-18)
(-1.56691 1.81411 -9.21162e-18)
(-1.70054 1.9684 1.71407e-17)
(-1.79019 2.07204 -7.99167e-18)
(-1.85776 2.14993 0)
(-1.91164 2.21214 0)
(-1.95642 2.26378 0)
(-1.9947 2.30792 6.12921e-18)
(-2.02812 2.34645 -5.7854e-18)
(-2.05777 2.38062 3.42022e-19)
(-2.08442 2.41133 5.19219e-18)
(-2.10862 2.4392 -3.12778e-19)
(-2.13078 2.46472 -9.72716e-18)
(-2.15122 2.48824 4.23012e-18)
(-2.17018 2.51006 -5.40266e-19)
(-2.18785 2.5304 4.40759e-18)
(-2.20441 2.54944 2.45786e-19)
(-2.21996 2.56733 -4.08846e-18)
(-2.23464 2.5842 0)
(-2.24851 2.60016 4.03274e-18)
(-2.26167 2.61528 -3.47171e-18)
(-2.27417 2.62965 4.2017e-19)
(-2.28607 2.64334 -4.07429e-19)
(-2.29742 2.65638 3.9551e-19)
(-2.30827 2.66885 0)
(-2.31864 2.68077 2.98815e-18)
(-2.32857 2.69219 -2.912e-18)
(-2.33809 2.70313 3.54336e-19)
(-2.34723 2.71364 3.45378e-19)
(-2.356 2.72373 -6.73719e-19)
(-2.36443 2.73342 2.95695e-18)
(-2.37254 2.74275 -4.81546e-18)
(-2.38033 2.75172 2.51108e-18)
(-2.38784 2.76035 2.14424e-18)
(-2.39506 2.76867 -4.79715e-18)
(-2.40201 2.77668 2.34851e-18)
(-2.40871 2.78439 2.87087e-19)
(-2.41516 2.79182 -2.81073e-19)
(-2.42137 2.79898 2.20033e-18)
(-2.42735 2.80587 -1.88976e-18)
(-2.4331 2.81252 -1.05519e-18)
(-2.43864 2.81891 1.5563e-18)
(-2.44397 2.82506 -5.07983e-19)
(-2.4491 2.83098 1.99063e-18)
(-2.45403 2.83668 -1.95643e-18)
(-2.45876 2.84215 2.39465e-18)
(-2.46331 2.8474 -4.03691e-21)
(-2.46767 2.85245 -4.65571e-19)
(-2.47185 2.85728 -1.81375e-18)
(-2.47584 2.86191 -4.44558e-19)
(-2.47967 2.86634 1.30705e-18)
(-2.48332 2.87057 -1.71558e-18)
(-2.4868 2.87461 -4.20545e-19)
(-2.49012 2.87845 0)
(-2.49327 2.88211 -4.05361e-19)
(-2.49625 2.88557 -1.58982e-18)
(-2.49907 2.88885 1.9559e-18)
(-2.50174 2.89195 2.29968e-18)
(-2.50424 2.89486 -7.55473e-19)
(-2.50659 2.89759 0)
(-2.50878 2.90014 7.26012e-19)
(-2.51082 2.90251 2.13586e-18)
(-2.5127 2.9047 -1.40133e-18)
(-2.51442 2.90671 6.86614e-19)
(-2.516 2.90855 -1.34545e-18)
(-2.51742 2.91021 4.53113e-21)
(-2.51869 2.91169 2.59763e-18)
(-2.5198 2.91299 0)
(-2.52076 2.91412 -8.71514e-24)
(-2.52157 2.91507 1.22266e-18)
(-2.52223 2.91585 -1.20365e-18)
(-2.52274 2.91645 0)
(-2.52309 2.91687 1.72991e-18)
(-2.52329 2.91711 -4.70881e-21)
(-2.52333 2.91717 -1.11176e-18)
(-2.52323 2.91706 5.41145e-19)
(-2.52297 2.91677 -5.34851e-19)
(-2.52255 2.91629 0)
(-2.52198 2.91564 0)
(-2.52125 2.9148 -5.48076e-24)
(-2.52036 2.91378 -1.05045e-23)
(-2.51932 2.91258 9.57987e-19)
(-2.51812 2.91119 -9.37291e-19)
(-2.51676 2.90962 2.44302e-21)
(-2.51523 2.90786 4.88086e-21)
(-2.51355 2.90592 2.6322e-18)
(-2.51171 2.90378 8.56815e-19)