/*--------------------------------*- C++ -*----------------------------------*\
  =========                 |
  \\      /  F ield         | OpenFOAM: The Open Source CFD Toolbox
   \\    /   O peration     | Website:  https://openfoam.org
    \\  /    A nd           | Version:  10
     \\/     M anipulation  |
\*---------------------------------------------------------------------------*/
FoamFile
{
    format      ascii;
    class       volScalarField;
    location    "52000";
    object      omega;
}
// * * * * * * * * * * * * * * * * * * * * * * * * * * * * * * * * * * * * * //

dimensions      [0 0 -1 0 0 0 0];

internalField   nonuniform List<scalar> 
17969
(
5562.21
1239.7
436.228
274.412
246.579
268.196
322.625
394.971
471.86
539.348
577.51
585.675
569.514
536.604
494.335
448.429
403.16
360.931
322.348
287.59
256.689
229.452
205.58
184.735
166.602
150.894
137.337
125.659
115.596
106.91
99.3863
92.8432
87.1244
82.0985
77.6563
73.7065
70.1735
66.9948
64.1185
61.5013
59.1077
56.9079
54.877
52.9942
51.2423
49.6066
48.0748
46.6363
45.2824
44.0054
42.799
41.6575
40.5763
39.5513
38.5791
37.6566
36.7813
35.9511
35.1643
34.4192
33.7149
33.0502
32.4246
31.8377
31.2892
30.7792
30.308
29.876
29.484
29.133
28.8241
28.5589
28.3392
28.1669
28.0463
27.9781
27.9579
27.9842
28.0535
28.1628
28.3095
28.491
28.7054
28.9514
29.229
29.5389
29.8831
30.2637
30.6831
31.1429
31.6453
32.1995
32.8176
33.5066
34.2738
35.1253
36.0633
37.0655
38.1231
39.2511
5562.29
1252.8
396.253
215.265
173.151
174.935
202.831
245.187
291.758
345.071
399.394
449.146
484.692
500.422
497.84
480.629
453.351
420.369
385.066
350.125
317.128
286.515
258.495
233.176
210.507
190.348
172.501
156.751
142.892
130.736
120.106
110.828
102.733
95.6599
89.4651
84.02
79.2133
74.9499
71.1492
67.7434
64.6753
61.8972
59.3693
57.058
54.9353
52.9776
51.1651
49.4812
47.9118
46.445
45.0705
43.78
42.5659
41.4221
40.3433
39.3249
38.3631
37.4546
36.5966
35.7868
35.0235
34.3049
33.63
32.998
32.4081
31.8603
31.3544
30.8909
30.4701
30.0932
29.7611
29.4754
29.2379
29.0508
28.9182
28.8407
28.8136
28.8318
28.8943
28.9975
29.1384
29.314
29.5223
29.7622
30.0336
30.3378
30.6768
31.0541
31.4732
31.9378
32.4501
33.0121
33.6322
34.3233
35.0949
35.9542
36.9021
37.9201
39.0034
40.1642
5562.35
1272.07
385.496
185.647
133.013
122.132
132.341
158.117
187.367
220.291
256.813
297.778
338.948
377.394
409.605
429.51
436.073
430.475
415.12
392.892
366.597
338.499
310.509
283.76
258.606
235.291
213.96
194.638
177.264
161.724
147.878
135.574
124.662
115.004
106.475
98.9517
92.3179
86.4628
81.284
76.6897
72.5986
68.9405
65.655
62.6907
60.0041
57.5584
55.3225
53.2702
51.3793
49.631
48.0095
46.5012
45.0948
43.7804
42.5499
41.3961
40.3131
39.2958
38.3399
37.4418
36.5984
35.8074
35.0667
34.3748
33.7306
33.1332
32.5824
32.078
31.6204
31.2103
30.8488
30.5373
30.2775
30.0715
29.9235
29.8336
29.7959
29.8038
29.8574
29.9522
30.0848
30.2526
30.4533
30.6863
30.9514
31.25
31.5846
31.9585
32.3765
32.8432
33.3634
33.9397
34.5741
35.2735
36.0518
36.9209
37.88
38.9148
40.025
41.2198
5562.39
1286.19
388.222
174.236
113.264
94.066
92.2514
102.594
121.573
142.879
166.993
193.782
223.267
255.893
289.386
320.773
348.647
370.053
382.152
384.661
378.414
365.048
346.565
324.964
301.897
278.84
256.61
235.473
215.702
197.445
180.762
165.634
151.994
139.748
128.782
118.982
110.235
102.436
95.4882
89.3018
83.7931
78.8836
74.5008
70.5786
67.0581
63.8874
61.0212
58.4204
56.0517
53.8864
51.9
50.0718
48.3842
46.822
45.3724
44.0245
42.769
41.598
40.5047
39.4836
38.5298
37.6394
36.8092
36.0365
35.3192
34.6559
34.0455
33.4875
32.9818
32.5287
32.1289
31.7837
31.4946
31.2633
31.0939
30.986
30.9323
30.9248
30.9643
31.0459
31.1662
31.3226
31.5135
31.7379
31.9961
32.2894
32.6202
32.9919
33.4092
33.8775
34.4027
34.9898
35.6419
36.3601
37.1514
38.0311
39.0024
40.0551
41.193
42.4223
43.7382
45.1301
46.5832
48.0804
5562.42
1293.7
392.225
170.605
104.538
80.4725
72.1194
72.5711
80.5034
94.1907
109.876
127.977
148.283
170.716
195.192
221.876
249.865
276.528
300.269
320.817
335.557
343.11
343.332
336.899
325.041
309.276
291.119
271.819
252.5
233.743
215.769
198.836
183.082
168.576
155.323
143.286
132.402
122.59
113.762
105.829
98.7049
92.3093
86.5679
81.4131
76.7827
72.6197
68.8718
65.4914
62.4355
59.666
57.1489
54.8546
52.7573
50.8346
49.0674
47.4391
45.9356
44.5447
43.2561
42.0611
40.9522
39.9231
38.9687
38.0847
37.2675
36.5144
35.8234
35.193
34.6224
34.1111
33.6595
33.268
32.9376
32.6695
32.4679
32.3319
32.2536
32.2244
32.2407
32.3014
32.4033
32.5438
32.7214
32.9352
33.1856
33.4734
33.8009
34.1713
34.589
35.0595
35.589
36.1837
36.8486
37.5862
38.3966
39.2903
40.274
41.3453
42.511
43.7747
45.1303
46.566
48.0657
49.6107
5562.44
1296.9
394.521
169.588
100.988
74.4075
62.8027
58.4756
59.0989
64.485
74.1817
85.6785
99.2193
114.863
132.329
151.515
172.258
194.511
218.325
241.507
262.403
280.913
296.109
306.241
310.629
309.263
302.755
292.096
278.471
263.031
246.733
230.38
214.397
198.996
184.39
170.703
158.005
146.317
135.624
125.888
117.054
109.056
101.828
95.2988
89.4036
84.0802
79.2714
74.925
70.9937
67.4343
64.2078
61.2789
58.6157
56.1897
53.9754
51.9505
50.0951
48.3919
46.8261
45.3846
44.0563
42.8317
41.7027
40.6626
39.7058
38.8274
38.024
37.2925
36.6308
36.0374
35.5115
35.0527
34.6611
34.3372
34.0856
33.9058
33.7891
33.7264
33.7098
33.7418
33.8189
33.9388
34.0996
34.3006
34.5416
34.8233
35.1474
35.5169
35.9356
36.4086
36.9419
37.5419
38.2147
38.9644
39.7919
40.7012
41.6975
42.7883
43.9821
45.2801
46.6748
48.1531
49.6972
51.2869
5562.45
1298.86
396.505
170.05
100.132
72.1854
58.8731
52.2148
49.4595
49.6962
52.953
59.3651
67.8871
77.8251
89.5697
103.268
118.645
135.483
153.609
172.847
193.264
213.539
232.223
248.645
262.94
273.971
280.713
282.825
280.426
274.059
264.524
252.736
239.551
225.705
211.771
198.057
184.767
172.071
160.088
148.888
138.502
128.933
120.162
112.153
104.862
98.2375
92.2256
86.773
81.8282
77.3426
73.2715
69.5741
66.213
63.1549
60.3694
57.8295
55.5108
53.3914
51.4522
49.6761
48.0479
46.5545
45.1846
43.9283
42.7771
41.7239
40.7627
39.8887
39.0978
38.3871
37.7542
37.1976
36.7164
36.3107
35.986
35.7425
35.5706
35.4599
35.4004
35.3962
35.4425
35.5367
35.6768
35.8619
36.0912
36.3651
36.6847
37.0521
37.4705
37.9443
38.479
39.0808
39.7561
40.5101
41.3455
42.2649
43.2751
44.3869
45.6094
46.9416
48.3745
49.8931
51.4781
53.1076
54.7588
5562.45
1300.53
399.064
171.711
100.935
72.1209
57.7915
49.8438
45.368
43.1972
42.9092
44.5232
48.4105
54.496
61.7391
70.3548
80.6085
92.6353
106.327
121.317
137.426
154.423
172.228
190.277
207.204
221.931
234.821
245.676
253.543
257.866
258.477
255.559
249.575
241.153
230.989
219.715
207.908
195.978
184.142
172.595
161.485
150.922
140.979
131.693
123.079
115.133
107.834
101.154
95.0556
89.4971
84.4365
79.8313
75.6409
71.8269
68.3538
65.1889
62.3029
59.669
57.2635
55.065
53.0545
51.2152
49.5322
47.9925
46.5846
45.2986
44.1262
43.0601
42.0942
41.2239
40.4451
39.755
39.1519
38.6351
38.2119
37.8833
37.6392
37.468
37.3601
37.3073
37.3137
37.3752
37.489
37.6532
37.8668
38.1291
38.4403
38.8016
39.215
39.6841
40.2139
40.8104
41.4804
42.2301
43.0634
43.9882
45.0135
46.1475
47.3986
48.7634
50.2312
51.7853
53.405
55.0668
56.7471
58.4237
60.077
5562.43
1302.03
402.45
174.331
102.815
73.3321
58.3148
49.5838
44.1535
40.7573
38.8223
38.1204
38.6475
40.6102
44.3309
49.613
55.7882
63.2113
72.1342
82.6874
94.8206
108.19
122.595
137.782
153.545
169.835
185.231
198.858
210.646
220.784
228.961
234.522
237.188
236.895
233.84
228.39
221.037
212.31
202.689
192.606
182.348
172.098
162.022
152.261
142.915
134.053
125.721
117.942
110.721
104.052
97.9161
92.2877
87.1365
82.4294
78.1323
74.2116
70.6347
67.3711
64.3924
61.6728
59.1887
56.919
54.8447
52.9492
51.2175
49.6368
48.1956
46.8842
45.6944
44.6193
43.6533
42.792
42.0325
41.3735
40.8244
40.3876
40.0512
39.8021
39.6281
39.5173
39.4749
39.496
39.5761
39.7128
39.9037
40.147
40.4414
40.787
41.1848
41.638
42.1515
42.7322
43.3885
44.1279
44.9554
45.8841
46.9236
48.0788
49.3547
50.7465
52.2418
53.8227
55.4669
57.1502
58.8485
60.5395
62.2038
63.8261
5562.41
1302.94
406.372
177.531
105.297
75.2197
59.67
50.4093
44.4015
40.3278
37.5513
35.753
34.7898
34.6395
35.3915
37.2682
40.5369
45.0151
50.2501
56.5804
64.2676
73.4667
84.0915
95.9783
108.928
122.683
136.953
151.634
165.81
178.559
189.55
198.966
206.881
212.989
216.881
218.435
217.636
214.66
209.806
203.453
195.994
187.815
179.217
170.386
161.497
152.7
144.116
135.838
127.936
120.457
113.43
106.869
100.776
95.1406
89.9469
85.173
80.7942
76.7835
73.1138
69.7583
66.6912
63.8883
61.3274
58.9878
56.8512
54.9009
53.1224
51.503
50.0317
48.6991
47.4975
46.4207
45.4642
44.6258
43.9174
43.3431
42.8886
42.5392
42.2814
42.1018
41.9873
41.9499
41.982
42.0778
42.2323
42.4416
42.7038
43.0181
43.3847
43.8079
44.2929
44.8485
45.4854
46.214
47.0424
47.9769
49.0225
50.1877
51.4761
52.8817
54.3912
55.9851
57.6403
59.3317
61.0352
62.7286
64.3933
66.0147
67.5817
69.0868
5562.38
1302.84
410.415
180.935
108.011
77.3729
61.3639
51.7002
45.3063
40.8281
37.5933
35.242
33.5769
32.498
31.9744
32.0369
32.787
34.4189
37.1759
40.9539
45.368
50.7089
57.2294
65.0618
74.2519
84.7307
96.3221
108.774
121.771
135.101
148.324
160.465
170.835
179.753
187.256
193.393
197.933
200.63
201.428
200.354
197.562
193.301
187.865
181.556
174.642
167.306
159.714
152.02
144.355
136.824
129.514
122.489
115.799
109.474
103.533
97.9841
92.8245
88.0453
83.6323
79.5678
75.8318
72.403
69.2598
66.3811
63.7474
61.3398
59.1417
57.1374
55.3129
53.6562
52.1572
50.8075
49.6008
48.5336
47.6212
46.8692
46.2605
45.7778
45.4058
45.1295
44.9323
44.8037
44.7567
44.7823
44.8735
45.0258
45.236
45.5023
45.8266
46.2128
46.6657
47.194
47.8077
48.5174
49.3333
50.2602
51.2978
52.4541
53.7367
55.1386
56.6453
58.2363
59.8872
61.5727
63.2685
64.9531
66.6086
68.221
69.7802
71.2794
72.7143
74.083
75.385
76.6209
5562.34
1301.54
414.142
184.222
110.692
79.5274
63.0982
53.0953
46.4124
41.6667
38.1617
35.514
33.5006
31.989
30.9044
30.2139
29.9211
30.0672
30.7429
32.1071
34.3723
37.53
41.235
45.6681
51.0743
57.6488
65.4877
74.586
84.8279
95.9994
107.803
119.935
132.284
143.85
153.971
162.559
169.852
175.853
180.581
183.907
185.715
185.988
184.773
182.22
178.53
173.932
168.626
162.774
156.529
150.035
143.416
136.779
130.217
123.806
117.606
111.662
106.008
100.664
95.6427
90.9473
86.5742
82.516
78.7608
75.2953
72.104
69.1708
66.4795
64.0139
61.76
59.7048
57.8363
56.1447
54.622
53.2633
52.0884
51.1056
50.2939
49.6323
49.1033
48.6907
48.3781
48.1459
47.9806
47.9006
47.8979
47.9678
48.105
48.307
48.574
48.9067
49.3097
49.7899
50.3559
51.0198
51.7939
52.6866
53.6984
54.83
56.0873
57.4673
58.9543
60.5264
62.1588
63.8256
65.5028
67.1694
68.8082
70.4061
71.9535
73.4439
74.8735
76.2403
77.5438
78.7844
5562.3
1299.12
417.348
187.231
113.181
81.5303
64.7079
54.4014
47.4836
42.5422
38.8616
36.0427
33.8469
32.1253
30.7837
29.7635
29.033
28.583
28.4264
28.6022
29.1842
30.2991
32.1071
34.692
37.8183
41.4948
45.9514
51.3993
57.9782
65.7447
74.6594
84.579
95.2709
106.403
117.763
128.778
138.726
147.123
154.225
160.158
164.929
168.538
170.907
172.024
171.915
170.656
168.39
165.256
161.388
156.923
151.989
146.707
141.189
135.535
129.836
124.168
118.597
113.176
107.946
102.939
98.1768
93.6735
89.437
85.4686
81.7652
78.3211
75.1269
72.1741
69.4522
66.9498
64.6559
62.5616
60.6582
58.9415
57.4394
56.1644
55.0916
54.1959
53.4569
52.8568
52.3794
52.0088
51.7275
51.5137
51.3805
51.3329
51.3635
51.468
51.6434
51.8892
52.2073
52.6026
53.0855
53.6696
54.3688
55.1966
56.1556
57.2446
58.4619
59.8028
61.2547
62.7945
64.3967
66.0353
67.6864
69.3294
70.9479
72.5291
74.064
75.5462
76.9719
78.3391
79.6468
80.8953
5562.25
1295.45
419.883
189.835
115.365
83.3016
66.1306
55.5565
48.4309
43.3298
39.5215
36.5929
34.2941
32.4657
31.0027
29.8344
28.9141
28.2128
27.7164
27.4244
27.3515
27.5308
28.0199
28.9167
30.3425
32.4331
35.0878
38.1517
41.823
46.3002
51.7527
58.2793
65.9039
74.5505
84.0442
94.1011
104.435
114.854
124.522
132.9
139.951
145.843
150.657
154.411
157.139
158.815
159.463
159.153
157.956
155.968
153.289
150.022
146.265
142.117
137.671
133.013
128.224
123.374
118.528
113.737
109.048
104.496
100.111
95.9131
91.9156
88.1298
84.5606
81.21
78.0761
75.1549
72.4427
69.9336
67.6235
65.5125
63.6385
62.0217
60.6351
59.4511
58.4472
57.6046
56.9066
56.3383
55.8854
55.5324
55.261
55.061
54.9382
54.9032
54.9485
55.0701
55.2676
55.5455
55.9136
56.3846
56.9765
57.7073
58.5845
59.6093
60.7741
62.0661
63.4715
64.9704
66.5359
68.1419
69.7644
71.3833
72.9823
74.549
76.0744
77.5523
78.9786
80.351
81.6682
82.9299
5562.19
1290.57
421.362
191.977
117.381
84.824
67.2842
56.4617
49.168
43.95
40.057
37.0634
34.7103
32.8313
31.3148
30.084
29.085
28.28
27.6437
27.1606
26.8245
26.6385
26.6165
26.7856
27.1909
27.906
29.0355
30.7015
32.9225
35.5074
38.5519
42.2243
46.7052
52.1187
58.5309
65.9324
74.2245
83.2152
92.6011
102.181
111.441
119.781
126.789
132.659
137.492
141.359
144.293
146.338
147.514
147.865
147.454
146.347
144.613
142.33
139.575
136.423
132.951
129.228
125.322
121.295
117.203
113.095
109.014
104.996
101.071
97.2643
93.594
90.0755
86.7191
83.5315
80.5186
77.6832
75.0283
72.5569
70.3217
68.3562
66.6362
65.1356
63.8319
62.7063
61.7428
60.927
60.2458
59.6868
59.2382
58.889
58.6283
58.4391
58.3237
58.2845
58.3256
58.4571
58.685
59.0221
59.4865
60.0988
60.8745
61.8182
62.921
64.164
65.524
66.9805
68.5102
70.086
71.6839
73.2837
74.8691
76.4278
77.9508
79.4315
80.8658
82.2508
83.5849
84.8673
86.098
5562.13
1284.72
421.715
193.792
118.845
85.8939
68.0863
57.0928
49.69
44.4018
40.4631
37.4392
35.0647
33.1685
31.6353
30.3847
29.3593
28.517
27.8275
27.2689
26.8265
26.4919
26.2629
26.144
26.1478
26.2968
26.6271
27.1946
28.0893
29.3967
31.2065
33.4209
35.9701
39.0001
42.6747
47.1364
52.474
58.7235
65.8418
73.7032
82.0705
90.6849
99.3661
107.445
114.46
120.338
125.209
129.147
132.23
134.511
136.044
136.871
137.032
136.582
135.578
134.074
132.13
129.808
127.167
124.264
121.154
117.888
114.512
111.07
107.599
104.133
100.7
97.3255
94.0283
90.8252
87.7303
84.7545
81.9072
79.2002
76.6998
74.4547
72.4482
70.6591
69.0692
67.6626
66.4257
65.3464
64.4135
63.6166
62.946
62.3925
61.9468
61.5999
61.3451
61.1774
61.0936
61.0917
61.1836
61.3866
61.7227
62.2162
62.8892
63.7501
64.7936
65.9976
67.3291
68.7573
70.2602
71.8157
73.3992
74.9902
76.5725
78.1337
79.6645
81.1581
82.61
84.017
85.3771
86.689
87.9522
5562.07
1278.14
421.411
194.738
119.678
86.5217
68.5695
57.4869
50.0326
44.7167
40.7657
37.7387
35.3666
33.4753
31.9473
30.7
29.6741
28.8257
28.1218
27.5378
27.0552
26.6609
26.346
26.1064
25.9422
25.8586
25.867
25.9864
26.2464
26.6898
27.3855
28.4156
29.869
31.7505
33.9164
36.4511
39.4793
43.1513
47.5656
52.7796
58.7941
65.5415
72.8792
80.5572
88.3987
96.0104
102.917
108.732
113.594
117.588
120.78
123.238
125.02
126.175
126.753
126.788
126.326
125.418
124.111
122.449
120.483
118.257
115.816
113.201
110.451
107.603
104.687
101.732
98.7632
95.8026
92.8695
89.9807
87.1515
84.3995
81.7994
79.413
77.234
75.2498
73.4489
71.8214
70.3582
69.0514
67.8932
66.8763
65.9936
65.2381
64.6025
64.0797
63.663
63.3474
63.1301
63.0128
63.0039
63.1194
63.3814
63.8141
64.4398
65.2672
66.2895
67.4836
68.8133
70.2407
71.7388
73.2907
74.8759
76.4734
78.0669
79.6439
81.195
82.7135
84.1944
85.6342
87.0306
88.382
89.6873
5562
1270.8
420.548
194.852
119.955
86.7834
68.8014
57.7025
50.2456
44.9375
41.0007
37.9919
35.6397
33.7686
32.2595
31.029
30.0165
29.177
28.4765
27.889
27.3943
26.9773
26.6265
26.3339
26.0949
25.9078
25.7745
25.7007
25.697
25.7799
25.974
26.3143
26.8531
27.6716
28.8281
30.3858
32.2635
34.4152
36.9401
39.9703
43.6147
47.9364
52.9616
58.6569
64.9299
71.5984
78.4455
85.3713
91.8822
97.6344
102.474
106.502
109.786
112.383
114.35
115.746
116.615
117.002
116.946
116.482
115.653
114.498
113.057
111.363
109.455
107.366
105.128
102.769
100.315
97.791
95.2179
92.6156
90.0026
87.3994
84.8821
82.5198
80.3176
78.2719
76.3795
74.6371
73.0413
71.5896
70.2786
69.1048
68.0646
67.1542
66.3689
65.7036
65.1534
64.7146
64.3861
64.1715
64.0812
64.1329
64.3505
64.759
65.3792
66.2192
67.2724
68.511
69.8896
71.3648
72.9034
74.4845
76.0946
77.7169
79.3379
80.9453
82.5303
84.0861
85.6077
87.0917
88.5353
89.9367
91.2945
92.6077
5561.92
1263.37
418.527
194.231
119.812
86.7889
68.8664
57.8055
50.3825
45.1081
41.2051
38.2297
35.9099
34.0692
32.5881
31.3823
30.3907
29.5677
28.8786
28.2968
27.8016
27.3768
27.01
26.6918
26.4156
26.1771
25.9744
25.808
25.6809
25.5995
25.5736
25.6179
25.7535
26.0099
26.4268
27.0683
27.9995
29.2787
30.9044
32.7605
34.9051
37.4251
40.4364
44.0015
48.1518
52.8778
58.1234
63.7922
69.6983
75.6947
81.5919
87.0494
91.8063
95.812
99.1372
101.832
103.942
105.516
106.601
107.241
107.475
107.34
106.869
106.093
105.045
103.758
102.261
100.579
98.7394
96.7655
94.6802
92.5032
90.2538
87.9541
85.6758
83.4895
81.4096
79.4411
77.5879
75.8533
74.2389
72.7472
71.3802
70.1379
69.0209
68.0287
67.1594
66.4106
65.7802
65.2669
64.8726
64.6039
64.4748
64.5067
64.7259
65.1576
65.82
66.7134
67.8242
69.1256
70.5765
72.1293
73.742
75.3857
77.048
78.7188
80.3838
82.0346
83.6653
85.2695
86.8426
88.3811
89.8824
91.3442
92.765
94.1432
5561.85
1255.58
416.238
193.274
119.471
86.6728
68.8543
57.8608
50.4926
45.2678
41.4111
38.4792
36.1996
34.396
32.9483
31.772
30.8052
30.0021
29.3276
28.755
28.2631
27.8357
27.4601
27.1265
26.8275
26.5582
26.3152
26.0969
25.9037
25.7374
25.6022
25.5043
25.4533
25.4622
25.5489
25.7384
26.0632
26.5704
27.3338
28.3854
29.7647
31.3997
33.2506
35.3739
37.8666
40.8004
44.2036
48.0817
52.3995
57.0898
62.0424
67.1052
72.1874
77.0966
81.602
85.5171
88.8115
91.5383
93.7356
95.4381
96.6849
97.5143
97.9639
98.0694
97.8615
97.3706
96.625
95.6472
94.4639
93.099
91.5747
89.9084
88.1205
86.2333
84.3109
82.4204
80.5834
78.8116
77.1147
75.5011
73.9779
72.5514
71.227
70.0085
68.8991
67.9035
67.023
66.2574
65.6076
65.0761
64.6684
64.3961
64.2782
64.3407
64.6125
65.1181
65.8679
66.8538
68.0551
69.4431
70.9762
72.6088
74.3
76.0188
77.7485
79.4808
81.2063
82.9157
84.6023
86.2634
87.8961
89.4974
91.0649
92.5963
94.0899
95.5438
5561.77
1247.96
413.15
192.356
119.145
86.5537
68.8397
57.9203
50.6153
45.4478
41.6444
38.7615
36.5265
34.7635
33.3525
32.2079
31.2676
30.4854
29.8262
29.263
28.775
28.3458
27.9629
27.6164
27.2994
27.0065
26.7342
26.4805
26.2445
26.0266
25.8284
25.6528
25.5043
25.3892
25.3162
25.297
25.3471
25.4874
25.7457
26.1565
26.7778
27.6565
28.8202
30.2611
31.8797
33.7058
35.7847
38.1994
40.9791
44.1291
47.6325
51.4424
55.4947
59.6872
63.9003
68.0712
72.0619
75.7142
78.9104
81.5894
83.7978
85.567
86.9219
87.8923
88.5093
88.8029
88.8011
88.5335
88.024
87.296
86.3716
85.2682
84.0067
82.6095
81.1291
79.6241
78.1225
76.6416
75.1956
73.7969
72.4562
71.1832
69.9868
68.8748
67.852
66.9244
66.0983
65.3775
64.7655
64.2689
63.8983
63.6711
63.6125
63.7535
64.1246
64.7478
65.6234
66.7348
68.0553
69.5475
71.1689
72.8786
74.6421
76.4335
78.2354
80.0357
81.8257
83.5986
85.3492
87.0736
88.7701
90.4379
92.075
93.6796
95.2503
96.7883
5561.69
1240.59
409.542
191.3
118.78
86.4169
68.821
57.9873
50.7552
45.6534
41.9103
39.0829
36.8988
35.1809
33.8086
32.6967
31.7831
31.0213
30.3761
29.821
29.3357
28.9036
28.5124
28.1528
27.8181
27.5036
27.2057
26.9225
26.6532
26.3975
26.1562
25.9307
25.7234
25.5376
25.3778
25.25
25.1621
25.1243
25.1502
25.2569
25.4674
25.8094
26.3222
27.0693
28.054
29.2961
30.7377
32.331
34.0948
36.0861
38.3544
40.9013
43.7183
46.7768
50.0276
53.4153
56.8592
60.2672
63.5816
66.7461
69.6441
72.2067
74.3622
76.1261
77.5293
78.5936
79.337
79.7844
79.9597
79.8848
79.5812
79.0727
78.3788
77.5203
76.5383
75.483
74.3861
73.2677
72.1443
71.0323
69.9455
68.896
67.8952
66.9533
66.0789
65.2798
64.5638
63.9386
63.4122
62.9958
62.7058
62.5665
62.6097
62.8705
63.3794
64.1513
65.1772
66.431
67.8806
69.4844
71.2007
72.9925
74.8297
76.6899
78.5572
80.4205
82.2722
84.107
85.9208
87.7107
89.4744
91.2106
92.9195
94.5999
96.2536
97.8826
5561.6
1233.53
405.654
190.095
118.33
86.2392
68.7904
58.062
50.9162
45.8896
42.2133
39.4457
37.3148
35.6437
34.3116
33.2334
32.3469
31.6058
30.9751
30.428
29.9439
29.5072
29.1058
28.7311
28.3779
28.0414
27.7185
27.4078
27.1086
26.8208
26.5448
26.2817
26.0329
25.8003
25.5864
25.3947
25.2294
25.0959
25.0014
24.9548
24.9675
25.0539
25.2328
25.5278
25.9644
26.59
27.4364
28.4983
29.7734
31.1759
32.7105
34.3749
36.226
38.2867
40.5426
42.9791
45.5656
48.2569
51.0075
53.7656
56.4625
59.0426
61.4934
63.7503
65.7595
67.4848
68.886
69.9954
70.8307
71.4039
71.7326
71.8349
71.7287
71.4327
70.9778
70.4076
69.7539
69.0406
68.2882
67.5138
66.731
65.9547
65.1981
64.4738
63.7926
63.1648
62.6005
62.1104
61.7068
61.4063
61.2324
61.2164
61.3963
61.8095
62.4842
63.4236
64.6085
66.0094
67.5873
69.2996
71.1068
72.9758
74.8808
76.8029
78.7287
80.6492
82.5583
84.4519
86.327
88.1815
90.0137
91.8223
93.6064
95.3666
97.1041
98.822
5561.52
1226.96
401.658
188.811
117.834
86.0463
68.7661
58.1577
51.1085
46.1641
42.5596
39.8551
37.7797
36.1565
34.8652
33.8204
32.9602
32.2382
31.6197
31.0781
30.5933
30.1503
29.7379
29.3482
28.9757
28.6165
28.2679
27.9299
27.6021
27.2845
26.9774
26.6821
26.3996
26.131
25.8782
25.6432
25.4285
25.2372
25.0733
24.9416
24.8484
24.8014
24.8103
24.8871
25.0464
25.3071
25.6898
26.2198
26.9509
27.8637
28.9563
30.2065
31.5422
32.9805
34.5082
36.1742
37.9876
39.9264
41.9763
44.1131
46.2981
48.4927
50.6664
52.7781
54.7875
56.6713
58.4327
60.019
61.3937
62.5183
63.4135
64.0863
64.5474
64.81
64.8883
64.8107
64.6095
64.3141
63.9496
63.5345
63.0844
62.6102
62.1272
61.6495
61.1901
60.7614
60.3759
60.0474
59.7929
59.6349
59.6039
59.7383
60.0805
60.6687
61.5222
62.634
63.9765
65.5164
67.2115
69.0203
70.9068
72.8423
74.8051
76.7798
78.7562
80.7271
82.6881
84.6363
86.5698
88.4873
90.3875
92.2695
94.1324
95.9755
97.7991
99.6046
5561.43
1220.99
397.681
187.498
117.324
85.8589
68.7627
58.2848
51.3391
46.4817
42.9522
40.313
38.2941
36.7195
35.4688
34.4569
33.6219
32.9176
32.3095
31.7714
31.2838
30.8323
30.4065
29.9993
29.6059
29.2234
28.8503
28.486
28.1305
27.7839
27.447
27.122
26.8093
26.5098
26.2251
25.9565
25.7057
25.4744
25.2652
25.0808
24.9248
24.8014
24.7161
24.6755
24.6875
24.7621
24.9108
25.1483
25.4931
25.9588
26.5708
27.3696
28.3059
29.3773
30.5586
31.797
33.1105
34.4747
35.9359
37.5021
39.1455
40.8447
42.5842
44.3411
46.0872
47.8018
49.4709
51.0702
52.5881
54.028
55.3299
56.4428
57.3707
58.1173
58.6787
59.0646
59.3011
59.4148
59.4295
59.3674
59.2493
59.0853
58.8859
58.6666
58.4417
58.2257
58.0332
57.8815
57.7922
57.794
57.9242
58.2269
58.7472
59.5209
60.5553
61.8301
63.3178
64.9799
66.7743
68.6625
70.6127
72.6007
74.6092
76.6261
78.6438
80.6574
82.6639
84.6617
86.6498
88.6274
90.594
92.5487
94.4908
96.4191
98.333
100.232
5561.35
1215.79
393.856
186.212
116.829
85.6954
68.7914
58.4498
51.6118
46.844
43.3912
40.8182
38.8564
37.3302
36.1197
35.14
34.3292
33.6413
33.0422
32.506
32.014
31.5523
31.1116
30.6853
30.2697
29.8627
29.4634
29.0719
28.6886
28.3145
27.9505
27.5975
27.2565
26.9279
26.6145
26.317
26.0362
25.7736
25.5307
25.3093
25.1113
24.9394
24.7966
24.6867
24.6142
24.5846
24.6046
24.6822
24.8269
25.049
25.3621
25.7816
26.3135
26.9772
27.7961
28.7086
29.714
30.8008
31.9274
33.1101
34.3321
35.5967
36.9198
38.2938
39.6931
41.1105
42.539
43.9649
45.3783
46.7754
48.1499
49.4962
50.7181
51.8078
52.7431
53.5116
54.1272
54.6089
54.9752
55.2446
55.4364
55.5678
55.6432
55.6778
55.6862
55.6838
55.6876
55.7179
55.8012
55.9721
56.2737
56.7546
57.4608
58.4168
59.6188
61.0411
62.6534
64.4155
66.2876
68.2353
70.2318
72.2574
74.2984
76.3462
78.3954
80.4432
82.4881
84.5296
86.5674
88.6015
90.6315
92.6572
94.6776
96.6916
98.6978
100.695
5561.26
1211.47
390.262
184.983
116.368
85.5655
68.8572
58.6549
51.9264
47.2494
43.8739
41.3673
39.4624
37.9844
36.8136
35.8654
35.0779
34.4056
33.8145
33.2794
32.782
32.3093
31.8526
31.4065
30.9679
30.5356
30.1095
29.6902
29.2787
28.8763
28.4841
28.1035
27.7354
27.381
27.0412
26.717
26.4089
26.1186
25.8477
25.5968
25.3671
25.1604
24.9785
24.8234
24.6977
24.6047
24.5481
24.5325
24.5632
24.6465
24.7899
25.0018
25.2903
25.6662
26.1393
26.7062
27.3754
28.1674
29.0175
29.9238
30.8994
31.9202
32.9766
34.0694
35.1604
36.2816
37.4407
38.6283
39.84
41.079
42.3449
43.6378
44.9645
46.2284
47.3945
48.4307
49.3347
50.1138
50.7775
51.3373
51.8071
52.2011
52.5283
52.7995
53.0286
53.2312
53.4256
53.6355
53.8916
54.2336
54.7095
55.3698
56.2579
57.3864
58.7343
60.2813
61.993
63.8303
65.7572
67.7443
69.7694
71.8171
73.8774
75.9444
78.0151
80.0882
82.1637
84.242
86.3237
88.4093
90.499
92.5926
94.6893
96.7881
98.8871
100.984
5561.17
1208.14
386.982
183.844
115.954
85.4758
68.9621
58.8992
52.2802
47.6939
44.3954
41.9549
40.1066
38.6762
37.5447
36.6275
35.8632
35.2061
34.6228
34.0886
33.5856
33.1017
32.6291
32.163
31.7013
31.2435
30.7903
30.3429
29.9028
29.4716
29.0509
28.6421
28.2465
27.8652
27.4992
27.1494
26.8167
26.5019
26.2058
25.9289
25.6722
25.4376
25.2257
25.0375
24.8748
24.7393
24.633
24.5586
24.5192
24.5182
24.5601
24.6495
24.792
24.9935
25.2599
25.5949
26.0029
26.4874
27.0344
27.6482
28.3556
29.1362
29.9598
30.8349
31.7682
32.7228
33.703
34.6909
35.6996
36.7539
37.8601
39.0238
40.2609
41.5536
42.8132
43.997
45.0875
46.0794
46.9706
47.7643
48.4664
49.0827
49.6297
50.1125
50.5424
50.9341
51.3076
51.6887
52.1121
52.6219
53.2695
54.1066
55.1627
56.4377
57.9091
59.5542
61.3386
63.2263
65.1857
67.1926
69.2293
71.2844
73.3509
75.4256
77.5073
79.5964
81.6939
83.8014
85.9202
88.0514
90.1956
92.3529
94.5228
96.7042
98.8951
101.093
5561.08
1205.95
384.098
182.825
115.6
85.4303
69.1058
59.1796
52.6686
48.1718
44.9494
42.5743
40.7818
39.3987
38.3063
37.4202
36.6791
36.0378
35.463
34.9303
34.4226
33.9284
33.4404
32.9549
32.4705
31.9876
31.5075
31.0319
30.563
30.1028
29.6531
29.2155
28.7917
28.3828
27.9899
27.6141
27.2561
26.9167
26.5966
26.2963
26.0163
25.7575
25.5203
25.3049
25.1134
24.9463
24.8046
24.6897
24.6033
24.5475
24.5243
24.5367
24.5876
24.6805
24.8184
25.0043
25.2399
25.5268
25.8634
26.2526
26.7016
27.2079
27.7669
28.3874
29.1107
29.8849
30.7016
31.5698
32.478
33.4239
34.406
35.4372
36.5544
37.7777
39.0315
40.2658
41.4528
42.5763
43.6239
44.5886
45.4661
46.267
47
47.6658
48.2724
48.8341
49.3708
49.9107
50.4918
51.1615
51.9723
52.9735
54.1808
55.5747
57.1425
58.8581
60.6889
62.6031
64.5743
66.5828
68.6153
70.6637
72.724
74.795
76.8773
78.9726
81.0832
83.2115
85.3596
87.5292
89.7216
91.9372
94.1757
96.4362
98.7167
101.015
5560.99
1205.02
381.687
181.947
115.313
85.429
69.2847
59.4907
53.0849
48.6759
45.5283
43.2174
41.4801
40.1439
39.0906
38.2361
37.5193
36.8952
36.3305
35.8013
35.2908
34.7879
34.2862
33.7827
33.2767
32.7694
32.2628
31.7594
31.2616
30.772
30.2928
29.8259
29.373
28.9357
28.5151
28.1123
27.7283
27.3637
27.0191
26.6952
26.3922
26.1106
25.8506
25.6126
25.397
25.2042
25.0344
24.8887
24.7681
24.6734
24.6054
24.5658
24.556
24.5777
24.6325
24.7216
24.8461
25.0069
25.2042
25.4395
25.7155
26.0332
26.3935
26.8027
27.2728
27.7984
28.3845
29.0627
29.8221
30.6447
31.5417
32.5165
33.5731
34.7277
35.9432
37.1759
38.399
39.5912
40.7339
41.8097
42.8213
43.7743
44.662
45.4826
46.2414
46.9515
47.6335
48.3177
49.0445
49.8636
50.8287
51.9746
53.3023
54.7904
56.4273
58.1871
60.0401
61.9595
63.9237
65.9175
67.9314
69.9603
72.0025
74.0588
76.1312
78.2229
80.337
82.477
84.6457
86.8457
89.0786
91.3457
93.647
95.9817
98.3482
100.744
103.165
5560.9
1205.35
379.741
181.205
115.086
85.4645
69.4907
59.8239
53.5206
49.1973
46.123
43.8753
42.1926
40.9032
39.8894
39.0677
38.377
37.7724
37.2207
36.698
36.1876
35.6789
35.1661
34.6467
34.1209
33.5906
33.0585
32.5276
32.0011
31.482
30.9727
30.4757
29.9929
29.526
29.0765
28.6456
28.2344
27.8435
27.4737
27.1255
26.799
26.4947
26.2124
25.9525
25.7148
25.4994
25.3064
25.1359
24.9882
24.8634
24.7619
24.6845
24.6318
24.6041
24.602
24.6261
24.6766
24.7537
24.8577
24.9892
25.1495
25.3394
25.5606
25.8171
26.1145
26.4556
26.8481
27.3071
27.8403
28.4556
29.1848
30.0407
31.009
32.1031
33.31
34.5459
35.7885
37.0214
38.2319
39.4027
40.528
41.6039
42.6182
43.5666
44.4538
45.2909
46.0999
46.9125
47.7711
48.7264
49.831
51.1013
52.5191
54.075
55.7548
57.5343
59.388
61.2938
63.2347
65.1996
67.182
69.1797
71.193
73.2241
75.2766
77.3547
79.4626
81.6046
83.7845
86.0056
88.2705
90.5808
92.9373
95.3398
97.7869
100.276
102.804
5560.81
1207.16
378.295
180.602
114.915
85.5291
69.7145
60.1695
53.9655
49.7262
46.7241
44.5388
42.9099
41.6672
40.6938
39.9066
39.2447
38.6631
38.1283
37.6162
37.1102
36.5997
36.0793
35.5472
35.0042
34.4528
33.8966
33.3392
32.7844
32.2355
31.6958
31.1678
30.654
30.1563
29.6765
29.2161
28.7762
28.3578
27.9615
27.5878
27.237
26.9092
26.6044
26.3225
26.0632
25.8265
25.6119
25.4192
25.2483
25.0989
24.9709
24.8642
24.7787
24.7143
24.6709
24.6485
24.6468
24.6656
24.7046
24.7641
24.8443
24.9459
25.0702
25.2196
25.3977
25.6086
25.8588
26.1587
26.5193
26.9551
27.4902
28.1471
28.9432
29.9091
31.0561
32.284
33.5471
34.8246
36.0963
37.3502
38.569
39.7424
40.8577
41.9095
42.9016
43.8455
44.7634
45.6885
46.6644
47.7419
48.9655
50.3343
51.8173
53.4158
55.1146
56.8925
58.7284
60.6045
62.5083
64.432
66.372
68.3282
70.3026
72.299
74.322
76.3768
78.4688
80.6029
82.7841
85.0164
87.3033
89.6473
92.0501
94.512
97.0324
99.6092
102.239
5560.72
1210.25
377.344
180.138
114.794
85.613
69.9448
60.5157
54.4085
50.252
47.3214
45.1978
43.6225
42.4266
41.4945
40.744
40.1144
39.5602
39.0474
38.5515
38.0552
37.5482
37.0249
36.4842
35.9274
35.3578
34.7795
34.1969
33.6144
33.036
32.4653
31.9055
31.3595
30.8296
30.318
29.8264
29.3562
28.9085
28.4842
28.0836
27.7072
27.3549
27.0266
26.7221
26.4411
26.183
25.9473
25.7336
25.5414
25.37
25.2189
25.0876
24.9755
24.8822
24.8069
24.7492
24.7085
24.6841
24.6756
24.6827
24.7053
24.7436
24.7984
24.8714
24.9653
25.0837
25.2322
25.4191
25.6552
25.955
26.3396
26.8339
27.4671
28.2777
29.2928
30.4558
31.7078
33.0087
34.3255
35.6356
36.9207
38.1671
39.3597
40.4934
41.5695
42.6011
43.6107
44.6324
45.7107
46.8973
48.2176
49.6532
51.1799
52.7987
54.496
56.2543
58.0569
59.8903
61.7455
63.6179
65.5063
67.4122
69.3393
71.2923
73.2771
75.2996
77.3661
79.4826
81.6548
83.8878
86.1861
88.5533
90.9919
93.5034
96.088
98.7443
101.47
5560.63
1214.56
376.905
179.808
114.712
85.7028
70.1669
60.8478
54.8356
50.7622