/*--------------------------------*- C++ -*----------------------------------*\
  =========                 |
  \\      /  F ield         | OpenFOAM: The Open Source CFD Toolbox
   \\    /   O peration     | Website:  https://openfoam.org
    \\  /    A nd           | Version:  10
     \\/     M anipulation  |
\*---------------------------------------------------------------------------*/
FoamFile
{
    format      ascii;
    class       volScalarField;
    location    "32000";
    object      Co;
}
// * * * * * * * * * * * * * * * * * * * * * * * * * * * * * * * * * * * * * //

dimensions      [0 0 0 0 0 0 0];

internalField   nonuniform List<scalar> 
17922
(
3289.07
3276.3
3263.5
3250.66
3237.78
3224.84
3211.86
3198.81
3185.7
3172.51
3159.24
3145.88
3132.43
3118.87
3105.2
3091.41
3077.49
3063.43
3049.21
3034.83
3020.27
3005.53
2990.57
2975.4
2959.99
2944.32
2928.38
2912.14
2895.74
2879.43
2863.35
2847.49
2831.82
2816.34
2801.04
2785.9
2770.92
2756.09
2741.41
2726.85
2712.42
2698.1
2683.9
2669.8
2655.79
2641.88
2628.05
2614.3
2600.63
2587.02
2573.47
2559.98
2546.53
2533.13
2519.77
2506.45
2493.16
2479.89
2466.65
2453.42
2440.22
2427.03
2413.86
2400.7
2387.56
2374.43
2361.32
2348.23
2335.16
2322.11
2309.08
2296.09
2283.12
2270.19
2257.44
2244.86
2232.35
2219.91
2207.55
2195.26
2183.06
2170.93
2158.9
2146.95
2135.08
2123.31
2111.62
2100.01
2088.5
2077.06
2065.71
2054.44
2043.24
3194.58
3182.18
3169.75
3157.27
3144.76
3132.2
3119.59
3106.91
3094.17
3081.36
3068.47
3055.5
3042.43
3029.27
3015.99
3002.59
2989.07
2975.41
2961.6
2947.63
2933.49
2919.17
2904.64
2889.91
2874.94
2859.72
2844.24
2828.46
2812.53
2796.7
2781.08
2765.67
2750.45
2735.42
2720.56
2705.86
2691.31
2676.91
2662.65
2648.51
2634.5
2620.59
2606.8
2593.11
2579.51
2566
2552.57
2539.22
2525.94
2512.72
2499.57
2486.47
2473.41
2460.4
2447.43
2434.49
2421.59
2408.71
2395.85
2383.01
2370.2
2357.39
2344.61
2331.84
2319.08
2306.34
2293.62
2280.92
2268.23
2255.57
2242.93
2230.32
2217.74
2205.2
2192.7
2180.37
2168.22
2156.13
2144.12
2132.18
2120.32
2108.54
2096.84
2085.22
2073.68
2062.23
2050.86
2039.58
2028.38
2017.26
2006.21
1995.24
1984.35
3102.82
3090.77
3078.69
3066.57
3054.42
3042.22
3029.96
3017.65
3005.28
2992.84
2980.32
2967.71
2955.02
2942.23
2929.33
2916.32
2903.19
2889.92
2876.51
2862.94
2849.2
2835.29
2821.18
2806.87
2792.33
2777.55
2762.51
2747.19
2731.72
2716.34
2701.17
2686.2
2671.43
2656.83
2642.39
2628.12
2613.99
2600.01
2586.15
2572.42
2558.81
2545.31
2531.92
2518.62
2505.42
2492.3
2479.26
2466.29
2453.4
2440.56
2427.79
2415.07
2402.39
2389.76
2377.17
2364.61
2352.07
2339.57
2327.09
2314.63
2302.18
2289.76
2277.35
2264.95
2252.57
2240.21
2227.86
2215.53
2203.23
2190.94
2178.68
2166.44
2154.24
2142.07
2129.94
2117.86
2105.92
2094.17
2082.49
2070.89
2059.36
2047.91
2036.54
2025.24
2014.03
2002.89
1991.84
1980.86
1969.96
1959.15
1948.4
1937.73
1927.13
3013.68
3001.98
2990.25
2978.48
2966.67
2954.82
2942.92
2930.96
2918.94
2906.85
2894.69
2882.45
2870.12
2857.7
2845.17
2832.53
2819.77
2806.88
2793.86
2780.68
2767.34
2753.82
2740.12
2726.22
2712.1
2697.74
2683.13
2668.25
2653.22
2638.29
2623.56
2609.02
2594.67
2580.49
2566.47
2552.61
2538.89
2525.31
2511.85
2498.52
2485.3
2472.19
2459.19
2446.27
2433.45
2420.71
2408.05
2395.46
2382.94
2370.48
2358.07
2345.72
2333.41
2321.14
2308.92
2296.72
2284.55
2272.41
2260.3
2248.2
2236.12
2224.06
2212.01
2199.98
2187.97
2175.97
2163.99
2152.03
2140.08
2128.16
2116.27
2104.4
2092.56
2080.76
2068.99
2057.26
2045.58
2034.01
2022.62
2011.34
2000.14
1989.01
1977.95
1966.97
1956.06
1945.23
1934.48
1923.81
1913.21
1902.68
1892.23
1881.85
1871.53
2927.11
2915.74
2904.35
2892.92
2881.45
2869.93
2858.37
2846.76
2835.08
2823.34
2811.53
2799.64
2787.66
2775.59
2763.42
2751.15
2738.76
2726.24
2713.58
2700.78
2687.82
2674.7
2661.39
2647.88
2634.17
2620.22
2606.04
2591.58
2576.98
2562.48
2548.17
2534.06
2520.12
2506.35
2492.73
2479.27
2465.95
2452.75
2439.69
2426.74
2413.91
2401.18
2388.54
2376
2363.55
2351.18
2338.89
2326.66
2314.5
2302.4
2290.35
2278.36
2266.41
2254.5
2242.63
2230.78
2218.97
2207.19
2195.42
2183.68
2171.96
2160.25
2148.56
2136.88
2125.22
2113.58
2101.95
2090.34
2078.75
2067.19
2055.65
2044.13
2032.65
2021.2
2009.78
1998.41
1987.08
1975.79
1964.56
1953.49
1942.6
1931.77
1921.02
1910.35
1899.74
1889.21
1878.76
1868.38
1858.07
1847.83
1837.66
1827.56
1817.53
2843.03
2831.99
2820.91
2809.81
2798.67
2787.49
2776.26
2764.97
2753.63
2742.23
2730.75
2719.2
2707.57
2695.85
2684.03
2672.1
2660.06
2647.9
2635.61
2623.18
2610.59
2597.84
2584.92
2571.8
2558.48
2544.93
2531.15
2517.12
2502.94
2488.85
2474.95
2461.24
2447.71
2434.33
2421.11
2408.03
2395.1
2382.29
2369.6
2357.02
2344.56
2332.2
2319.93
2307.75
2295.66
2283.65
2271.71
2259.84
2248.03
2236.28
2224.58
2212.93
2201.33
2189.77
2178.24
2166.74
2155.27
2143.83
2132.41
2121.01
2109.63
2098.27
2086.92
2075.59
2064.27
2052.97
2041.69
2030.43
2019.18
2007.96
1996.76
1985.59
1974.45
1963.35
1952.27
1941.24
1930.25
1919.3
1908.41
1897.56
1886.78
1876.17
1865.72
1855.34
1845.03
1834.79
1824.62
1814.52
1804.49
1794.54
1784.64
1774.82
1765.06
2761.36
2750.63
2739.88
2729.09
2718.27
2707.41
2696.5
2685.54
2674.52
2663.44
2652.3
2641.08
2629.78
2618.39
2606.91
2595.33
2583.63
2571.82
2559.88
2547.81
2535.58
2523.2
2510.64
2497.9
2484.96
2471.81
2458.42
2444.79
2431.02
2417.33
2403.84
2390.52
2377.37
2364.39
2351.55
2338.85
2326.28
2313.84
2301.52
2289.31
2277.2
2265.2
2253.29
2241.46
2229.72
2218.05
2206.46
2194.93
2183.46
2172.05
2160.7
2149.39
2138.12
2126.89
2115.7
2104.53
2093.4
2082.29
2071.21
2060.14
2049.09
2038.06
2027.05
2016.05
2005.07
1994.1
1983.16
1972.23
1961.32
1950.43
1939.57
1928.73
1917.93
1907.15
1896.41
1885.71
1875.05
1864.43
1853.86
1843.35
1832.88
1822.47
1812.11
1801.9
1791.86
1781.9
1772.02
1762.2
1752.44
1742.76
1733.14
1723.58
1714.09
2682.04
2671.62
2661.17
2650.69
2640.18
2629.63
2619.03
2608.38
2597.68
2586.92
2576.1
2565.2
2554.22
2543.16
2532.01
2520.76
2509.4
2497.93
2486.33
2474.6
2462.73
2450.7
2438.5
2426.13
2413.56
2400.78
2387.78
2374.54
2361.16
2347.87
2334.76
2321.83
2309.06
2296.45
2283.98
2271.65
2259.44
2247.36
2235.39
2223.54
2211.78
2200.12
2188.55
2177.07
2165.67
2154.34
2143.08
2131.89
2120.75
2109.67
2098.64
2087.66
2076.72
2065.82
2054.95
2044.11
2033.3
2022.52
2011.76
2001.01
1990.29
1979.59
1968.9
1958.22
1947.56
1936.92
1926.3
1915.7
1905.11
1894.55
1884.01
1873.5
1863.02
1852.57
1842.15
1831.77
1821.43
1811.14
1800.89
1790.68
1780.53
1770.43
1760.39
1750.41
1740.48
1730.62
1720.91
1711.36
1701.88
1692.46
1683.1
1673.81
1664.58
2605
2594.87
2584.72
2574.55
2564.33
2554.08
2543.79
2533.45
2523.05
2512.6
2502.08
2491.5
2480.84
2470.09
2459.26
2448.33
2437.3
2426.16
2414.89
2403.5
2391.96
2380.28
2368.43
2356.41
2344.2
2331.79
2319.17
2306.31
2293.31
2280.41
2267.68
2255.12
2242.71
2230.46
2218.35
2206.38
2194.52
2182.79
2171.17
2159.65
2148.24
2136.92
2125.68
2114.53
2103.46
2092.46
2081.52
2070.65
2059.84
2049.08
2038.37
2027.71
2017.09
2006.5
1995.95
1985.43
1974.93
1964.46
1954.01
1943.59
1933.18
1922.79
1912.41
1902.05
1891.71
1881.38
1871.08
1860.79
1850.52
1840.27
1830.05
1819.85
1809.69
1799.55
1789.45
1779.38
1769.35
1759.37
1749.43
1739.53
1729.69
1719.89
1710.15
1700.47
1690.84
1681.27
1671.76
1662.3
1652.91
1643.63
1634.5
1625.46
1616.49
2530.16
2520.33
2510.47
2500.59
2490.67
2480.71
2470.71
2460.67
2450.57
2440.41
2430.2
2419.92
2409.56
2399.12
2388.6
2377.99
2367.27
2356.45
2345.5
2334.44
2323.23
2311.88
2300.38
2288.7
2276.84
2264.79
2252.53
2240.04
2227.42
2214.88
2202.52
2190.32
2178.27
2166.37
2154.61
2142.98
2131.47
2120.08
2108.79
2097.61
2086.52
2075.53
2064.62
2053.79
2043.03
2032.35
2021.73
2011.18
2000.68
1990.23
1979.83
1969.48
1959.16
1948.88
1938.64
1928.42
1918.23
1908.07
1897.93
1887.8
1877.7
1867.61
1857.55
1847.49
1837.46
1827.44
1817.44
1807.45
1797.49
1787.55
1777.64
1767.74
1757.88
1748.05
1738.25
1728.49
1718.76
1709.08
1699.44
1689.85
1680.3
1670.8
1661.36
1651.96
1642.63
1633.34
1624.12
1614.95
1605.83
1596.78
1587.77
1578.83
1569.93
2457.48
2447.93
2438.36
2428.75
2419.12
2409.44
2399.73
2389.97
2380.17
2370.3
2360.38
2350.39
2340.33
2330.19
2319.97
2309.66
2299.25
2288.74
2278.11
2267.36
2256.48
2245.45
2234.28
2222.94
2211.42
2199.71
2187.8
2175.67
2163.41
2151.23
2139.23
2127.38
2115.68
2104.12
2092.7
2081.41
2070.23
2059.16
2048.2
2037.34
2026.58
2015.9
2005.3
1994.79
1984.34
1973.97
1963.66
1953.41
1943.21
1933.07
1922.97
1912.92
1902.9
1892.92
1882.97
1873.05
1863.16
1853.29
1843.45
1833.62
1823.82
1814.03
1804.25
1794.5
1784.76
1775.04
1765.33
1755.65
1745.98
1736.34
1726.72
1717.13
1707.56
1698.03
1688.52
1679.06
1669.63
1660.23
1650.89
1641.58
1632.32
1623.11
1613.95
1604.85
1595.79
1586.79
1577.84
1568.95
1560.11
1551.32
1542.59
1533.9
1525.27
2386.89
2377.61
2368.31
2358.98
2349.62
2340.23
2330.79
2321.31
2311.78
2302.2
2292.57
2282.86
2273.09
2263.24
2253.32
2243.3
2233.19
2222.98
2212.65
2202.21
2191.64
2180.93
2170.08
2159.06
2147.87
2136.5
2124.93
2113.15
2101.24
2089.42
2077.76
2066.25
2054.89
2043.66
2032.57
2021.6
2010.74
2000
1989.35
1978.81
1968.35
1957.98
1947.69
1937.48
1927.34
1917.27
1907.25
1897.3
1887.4
1877.55
1867.74
1857.98
1848.25
1838.56
1828.9
1819.28
1809.67
1800.09
1790.53
1781
1771.48
1761.98
1752.49
1743.02
1733.57
1724.14
1714.72
1705.33
1695.95
1686.6
1677.27
1667.96
1658.68
1649.44
1640.22
1631.04
1621.89
1612.79
1603.72
1594.7
1585.72
1576.79
1567.91
1559.08
1550.3
1541.57
1532.89
1524.26
1515.69
1507.17
1498.69
1490.27
1481.9
2318.32
2309.31
2300.28
2291.21
2282.12
2273
2263.83
2254.62
2245.37
2236.06
2226.7
2217.27
2207.78
2198.22
2188.57
2178.84
2169.02
2159.1
2149.08
2138.93
2128.67
2118.26
2107.72
2097.02
2086.16
2075.11
2063.87
2052.43
2040.86
2029.38
2018.05
2006.87
1995.84
1984.94
1974.17
1963.51
1952.97
1942.53
1932.19
1921.95
1911.8
1901.73
1891.74
1881.82
1871.97
1862.19
1852.47
1842.8
1833.19
1823.62
1814.1
1804.62
1795.17
1785.77
1776.39
1767.04
1757.71
1748.41
1739.14
1729.88
1720.64
1711.42
1702.21
1693.02
1683.85
1674.7
1665.57
1656.45
1647.35
1638.28
1629.23
1620.2
1611.21
1602.24
1593.3
1584.4
1575.53
1566.7
1557.91
1549.16
1540.46
1531.8
1523.19
1514.62
1506.11
1497.64
1489.22
1480.86
1472.54
1464.28
1456.06
1447.89
1439.76
2251.73
2242.97
2234.2
2225.39
2216.56
2207.7
2198.79
2189.85
2180.86
2171.82
2162.73
2153.57
2144.35
2135.06
2125.69
2116.24
2106.7
2097.07
2087.32
2077.47
2067.5
2057.4
2047.16
2036.76
2026.21
2015.48
2004.57
1993.45
1982.22
1971.06
1960.06
1949.21
1938.49
1927.9
1917.44
1907.09
1896.85
1886.72
1876.68
1866.73
1856.87
1847.09
1837.39
1827.76
1818.19
1808.69
1799.25
1789.86
1780.53
1771.24
1761.99
1752.79
1743.62
1734.48
1725.38
1716.3
1707.25
1698.22
1689.21
1680.23
1671.26
1662.31
1653.37
1644.46
1635.56
1626.68
1617.82
1608.97
1600.15
1591.35
1582.57
1573.82
1565.09
1556.39
1547.73
1539.09
1530.49
1521.93
1513.41
1504.93
1496.49
1488.09
1479.74
1471.44
1463.18
1454.97
1446.81
1438.7
1430.63
1422.61
1414.64
1406.72
1398.83
2187.05
2178.54
2170.01
2161.46
2152.88
2144.27
2135.63
2126.94
2118.2
2109.42
2100.59
2091.7
2082.74
2073.72
2064.62
2055.44
2046.17
2036.81
2027.35
2017.78
2008.09
1998.28
1988.33
1978.24
1967.99
1957.57
1946.96
1936.16
1925.26
1914.42
1903.74
1893.19
1882.79
1872.5
1862.34
1852.29
1842.35
1832.5
1822.75
1813.09
1803.52
1794.02
1784.6
1775.25
1765.96
1756.73
1747.56
1738.45
1729.38
1720.36
1711.38
1702.44
1693.54
1684.67
1675.83
1667.02
1658.23
1649.46
1640.72
1632
1623.29
1614.61
1605.94
1597.29
1588.65
1580.03
1571.44
1562.86
1554.3
1545.76
1537.25
1528.76
1520.29
1511.86
1503.45
1495.08
1486.75
1478.44
1470.18
1461.96
1453.77
1445.63
1437.54
1429.49
1421.48
1413.52
1405.61
1397.74
1389.92
1382.14
1374.41
1366.72
1359.08
2124.22
2115.96
2107.68
2099.37
2091.04
2082.67
2074.27
2065.83
2057.35
2048.82
2040.24
2031.6
2022.9
2014.13
2005.3
1996.38
1987.38
1978.29
1969.1
1959.8
1950.39
1940.86
1931.2
1921.39
1911.43
1901.31
1891.02
1880.53
1869.93
1859.41
1849.03
1838.79
1828.68
1818.7
1808.83
1799.07
1789.41
1779.85
1770.38
1761
1751.7
1742.48
1733.32
1724.24
1715.22
1706.26
1697.36
1688.51
1679.7
1670.94
1662.23
1653.55
1644.9
1636.29
1627.7
1619.15
1610.62
1602.11
1593.62
1585.15
1576.7
1568.27
1559.86
1551.46
1543.09
1534.73
1526.38
1518.06
1509.76
1501.48
1493.22
1484.99
1476.78
1468.6
1460.45
1452.33
1444.25
1436.2
1428.19
1420.22
1412.28
1404.39
1396.54
1388.74
1380.98
1373.26
1365.59
1357.96
1350.37
1342.83
1335.33
1327.88
1320.46
2095.17
2087.19
2079.2
2071.21
2063.2
2055.17
2047.13
2039.06
2030.96
2022.84
2014.68
2006.48
1998.24
1989.96
1981.62
1973.23
1964.78
1956.26
1947.68
1939.02
1930.27
1921.44
1912.52
1903.49
1894.35
1885.09
1875.7
1866.18
1856.51
1846.68
1836.67
1826.49
1816.2
1805.98
1795.9
1785.95
1776.13
1766.43
1756.85
1747.37
1737.99
1728.71
1719.51
1710.4
1701.37
1692.41
1683.52
1674.7
1665.94
1657.24
1648.6
1640
1631.45
1622.94
1614.48
1606.05
1597.66
1589.29
1580.96
1572.65
1564.37
1556.11
1547.87
1539.65
1531.45
1523.27
1515.1
1506.96
1498.83
1490.71
1482.62
1474.55
1466.49
1458.46
1450.45
1442.47
1434.51
1426.58
1418.68
1410.81
1402.97
1395.17
1387.4
1379.67
1371.98
1364.33
1356.72
1349.15
1341.63
1334.15
1326.71
1319.31
1311.96
1304.65
1297.37
1290.14
1282.95
2034.98
2027.23
2019.48
2011.71
2003.93
1996.13
1988.32
1980.48
1972.62
1964.73
1956.8
1948.84
1940.83
1932.78
1924.69
1916.54
1908.33
1900.06
1891.72
1883.3
1874.81
1866.23
1857.56
1848.79
1839.91
1830.92
1821.8
1812.55
1803.16
1793.61
1783.9
1774
1764.01
1754.08
1744.29
1734.63
1725.09
1715.67
1706.36
1697.16
1688.05
1679.03
1670.1
1661.25
1652.48
1643.78
1635.15
1626.58
1618.08
1609.63
1601.23
1592.88
1584.58
1576.32
1568.1
1559.92
1551.77
1543.65
1535.55
1527.49
1519.45
1511.43
1503.43
1495.45
1487.49
1479.55
1471.63
1463.72
1455.84
1447.97
1440.11
1432.28
1424.47
1416.68
1408.91
1401.17
1393.45
1385.76
1378.1
1370.47
1362.87
1355.31
1347.78
1340.29
1332.83
1325.42
1318.04
1310.7
1303.41
1296.16
1288.94
1281.77
1274.64
1267.55
1260.5
1253.49
1246.51
1976.53
1969
1961.46
1953.92
1946.36
1938.79
1931.2
1923.59
1915.95
1908.28
1900.58
1892.85
1885.07
1877.25
1869.39
1861.47
1853.5
1845.46
1837.36
1829.19
1820.94
1812.61
1804.19
1795.67
1787.04
1778.31
1769.45
1760.47
1751.34
1742.07
1732.63
1723.02
1713.31
1703.67
1694.16
1684.78
1675.52
1666.37
1657.33
1648.39
1639.54
1630.78
1622.11
1613.52
1605
1596.55
1588.17
1579.85
1571.59
1563.38
1555.23
1547.12
1539.06
1531.04
1523.05
1515.11
1507.19
1499.31
1491.45
1483.62
1475.81
1468.03
1460.27
1452.52
1444.8
1437.09
1429.4
1421.73
1414.08
1406.44
1398.82
1391.23
1383.65
1376.1
1368.56
1361.05
1353.57
1346.12
1338.69
1331.29
1323.92
1316.59
1309.29
1302.03
1294.8
1287.61
1280.46
1273.35
1266.28
1259.25
1252.26
1245.31
1238.39
1231.52
1224.68
1217.88
1211.11
1941.66
1934.36
1927.05
1919.75
1912.43
1905.12
1897.79
1890.45
1883.09
1875.72
1868.32
1860.9
1853.46
1845.98
1838.46
1830.91
1823.32
1815.68
1807.99
1800.24
1792.44
1784.57
1776.63
1768.62
1760.52
1752.34
1744.07
1735.69
1727.21
1718.61
1709.88
1701.02
1692.01
1682.84
1673.51
1664.08
1654.71
1645.48
1636.36
1627.37
1618.48
1609.7
1601.02
1592.43
1583.92
1575.5
1567.15
1558.88
1550.67
1542.53
1534.45
1526.43
1518.46
1510.54
1502.67
1494.84
1487.05
1479.3
1471.58
1463.9
1456.24
1448.61
1441.01
1433.43
1425.87
1418.34
1410.82
1403.32
1395.84
1388.38
1380.94
1373.51
1366.11
1358.72
1351.35
1344
1336.67
1329.37
1322.09
1314.83
1307.6
1300.4
1293.23
1286.09
1278.98
1271.9
1264.86
1257.86
1250.89
1243.96
1237.07
1230.21
1223.4
1216.62
1209.88
1203.18
1196.52
1189.89
1183.29
1176.73
1885.88
1878.79
1871.69
1864.6
1857.49
1850.39
1843.27
1836.14
1828.99
1821.83
1814.65
1807.44
1800.21
1792.94
1785.64
1778.31
1770.93
1763.51
1756.04
1748.52
1740.94
1733.29
1725.58
1717.8
1709.94
1701.99
1693.95
1685.82
1677.58
1669.22
1660.74
1652.13
1643.38
1634.48
1625.42
1616.26
1607.16
1598.19
1589.34
1580.6
1571.97
1563.44
1555.01
1546.66
1538.4
1530.22
1522.12
1514.08
1506.11
1498.21
1490.36
1482.57
1474.83
1467.14
1459.49
1451.89
1444.33
1436.8
1429.3
1421.84
1414.41
1407
1399.62
1392.26
1384.93
1377.61
1370.32
1363.04
1355.78
1348.54
1341.32
1334.11
1326.93
1319.76
1312.61
1305.48
1298.38
1291.29
1284.23
1277.2
1270.19
1263.21
1256.25
1249.33
1242.44
1235.59
1228.76
1221.97
1215.22
1208.5
1201.82
1195.18
1188.57
1182
1175.47
1168.98
1162.51
1156.09
1149.69
1143.33
1831.7
1824.81
1817.92
1811.03
1804.13
1797.23
1790.31
1783.39
1776.45
1769.49
1762.51
1755.51
1748.49
1741.43
1734.34
1727.22
1720.05
1712.84
1705.59
1698.28
1690.92
1683.49
1676
1668.44
1660.8
1653.08
1645.28
1637.37
1629.37
1621.25
1613.02
1604.66
1596.16
1587.51
1578.7
1569.81
1560.97
1552.26
1543.66
1535.18
1526.8
1518.51
1510.32
1502.22
1494.19
1486.25
1478.37
1470.57
1462.83
1455.15
1447.53
1439.97
1432.45
1424.98
1417.56
1410.17
1402.83
1395.52
1388.24
1380.99
1373.78
1366.58
1359.42
1352.27
1345.15
1338.05
1330.97
1323.91
1316.86
1309.84
1302.83
1295.84
1288.87
1281.91
1274.98
1268.07
1261.18
1254.31
1247.46
1240.64
1233.85
1227.08
1220.34
1213.63
1206.95
1200.3
1193.69
1187.11
1180.57
1174.06
1167.58
1161.14
1154.74
1148.38
1142.04
1135.75
1129.48
1123.25
1117.05
1110.88
1779.08
1772.39
1765.69
1759
1752.3
1745.6
1738.88
1732.15
1725.41
1718.65
1711.88
1705.08
1698.25
1691.4
1684.51
1677.59
1670.63
1663.63
1656.58
1649.48
1642.33
1635.12
1627.84
1620.5
1613.08
1605.58
1598
1590.32
1582.55
1574.66
1566.67
1558.54
1550.29
1541.89
1533.34
1524.7
1516.11
1507.65
1499.3
1491.06
1482.92
1474.87
1466.92
1459.04
1451.25
1443.53
1435.89
1428.31
1420.79
1413.34
1405.94
1398.59
1391.29
1384.03
1376.82
1369.65
1362.52
1355.42
1348.35
1341.32
1334.31
1327.33
1320.37
1313.43
1306.52
1299.63
1292.75
1285.9
1279.06
1272.24
1265.44
1258.66
1251.9
1245.15
1238.43
1231.72
1225.04
1218.38
1211.74
1205.13
1198.54
1191.98
1185.45
1178.95
1172.47
1166.03
1159.62
1153.25
1146.9
1140.59
1134.32
1128.08
1121.88
1115.71
1109.57
1103.47
1097.4
1091.36
1085.35
1079.37
1727.96
1721.46
1714.97
1708.47
1701.96
1695.45
1688.92
1682.39
1675.84
1669.28
1662.7
1656.09
1649.46
1642.8
1636.11
1629.39
1622.63
1615.83
1608.98
1602.09
1595.14
1588.14
1581.07
1573.93
1566.73
1559.45
1552.08
1544.62
1537.07
1529.41
1521.64
1513.75
1505.74
1497.58
1489.27
1480.88
1472.54
1464.32
1456.21
1448.21
1440.3
1432.49
1424.76
1417.11
1409.54
1402.05
1394.62
1387.26
1379.96
1372.72
1365.53
1358.39
1351.3
1344.26
1337.26
1330.29
1323.37
1316.47
1309.61
1302.78
1295.97
1289.19
1282.44
1275.7
1268.99
1262.3
1255.63
1248.98
1242.34
1235.72
1229.13
1222.55
1215.98
1209.44
1202.92
1196.42
1189.94
1183.48
1177.04
1170.63
1164.25
1157.89
1151.56
1145.25
1138.98
1132.74
1126.53
1120.35
1114.2
1108.09
1102.01
1095.96
1089.95
1083.97
1078.02
1072.11
1066.23
1060.37
1054.55
1048.75
1678.32
1672.01
1665.7
1659.38
1653.06
1646.74
1640.4
1634.05
1627.69
1621.32
1614.92
1608.51
1602.07
1595.6
1589.11
1582.58
1576.01
1569.4
1562.75
1556.06
1549.31
1542.5
1535.64
1528.71
1521.71
1514.63
1507.48
1500.24
1492.9
1485.46
1477.92
1470.25
1462.46
1454.54
1446.47
1438.32
1430.22
1422.24
1414.36
1406.59
1398.91
1391.32
1383.81
1376.38
1369.03
1361.75
1354.54
1347.39
1340.3
1333.27
1326.29
1319.35
1312.47
1305.63
1298.83
1292.06
1285.33
1278.64
1271.98
1265.34
1258.73
1252.15
1245.59
1239.05
1232.54
1226.04
1219.57
1213.11
1206.67
1200.25
1193.85
1187.47
1181.1
1174.75
1168.43
1162.12
1155.84
1149.57
1143.34
1137.12
1130.93
1124.77
1118.63
1112.52
1106.44
1100.39
1094.37
1088.39
1082.43
1076.51
1070.62
1064.76
1058.93
1053.14
1047.38
1041.65
1035.95
1030.27
1024.63
1019.01
1630.1
1623.97
1617.84
1611.71
1605.57
1599.42
1593.27
1587.11
1580.93
1574.74
1568.53
1562.29
1556.04
1549.76
1543.45
1537.1
1530.73
1524.31
1517.85
1511.34
1504.79
1498.18
1491.51
1484.78
1477.98
1471.11
1464.16
1457.12
1450
1442.77
1435.44
1428
1420.44
1412.74
1404.9
1396.98
1389.12
1381.36
1373.71
1366.16
1358.7
1351.33
1344.04
1336.82
1329.68
1322.61
1315.61
1308.66
1301.78
1294.95
1288.17
1281.43
1274.75
1268.1
1261.5
1254.93
1248.39
1241.89
1235.42
1228.98
1222.56
1216.17
1209.8
1203.46
1197.13
1190.82
1184.54
1178.27
1172.02
1165.79
1159.58
1153.39
1147.21
1141.06
1134.92
1128.81
1122.71
1116.64
1110.59
1104.57
1098.57
1092.59
1086.64
1080.72
1074.83
1068.97
1063.14
1057.34
1051.57
1045.83
1040.12
1034.45
1028.8
1023.19
1017.61
1012.05
1006.53
1001.03
995.561
990.117
1583.26
1577.31
1571.36
1565.4
1559.44
1553.47
1547.5
1541.51
1535.51
1529.49
1523.46
1517.41
1511.33
1505.23
1499.1
1492.94
1486.74
1480.51
1474.24
1467.92
1461.55
1455.13
1448.65
1442.11
1435.51
1428.84
1422.08
1415.25
1408.33
1401.31
1394.19
1386.96
1379.61
1372.14
1364.52
1356.83
1349.19
1341.66
1334.23
1326.9
1319.65
1312.49
1305.41
1298.4
1291.47
1284.6
1277.79
1271.05
1264.36
1257.73
1251.14
1244.6
1238.11
1231.65
1225.24
1218.86
1212.51
1206.2
1199.91
1193.66
1187.43
1181.22
1175.04
1168.88
1162.73
1156.61
1150.51
1144.43
1138.37
1132.32
1126.29
1120.28
1114.29
1108.32
1102.37
1096.44
1090.53
1084.64
1078.78
1072.94
1067.12
1061.33
1055.57
1049.83
1044.12
1038.44
1032.79
1027.17
1021.58
1016.02
1010.49
1005
999.528
994.09
988.682
983.302
977.95
972.624
967.324
962.048
1537.77
1531.99
1526.21
1520.42
1514.63
1508.84
1503.03
1497.22
1491.39
1485.55
1479.69
1473.81
1467.91
1461.98
1456.03
1450.04
1444.02
1437.97
1431.88
1425.74
1419.55
1413.32
1407.02
1400.67
1394.26
1387.78
1381.22
1374.58
1367.86
1361.04
1354.12
1347.1
1339.96
1332.7
1325.31
1317.84
1310.42
1303.1
1295.88
1288.76
1281.72
1274.76
1267.89
1261.08
1254.34
1247.67
1241.07
1234.51
1228.02
1221.57
1215.18
1208.83
1202.52
1196.25
1190.02
1183.82
1177.66
1171.53
1165.42
1159.35
1153.3
1147.27
1141.27
1135.29
1129.32
1123.38
1117.46
1111.56
1105.67
1099.8
1093.95
1088.12
1082.31
1076.52
1070.75
1065
1059.27
1053.56
1047.88
1042.22
1036.58
1030.97
1025.38
1019.82
1014.29
1008.79
1003.31
997.868
992.453
987.067
981.711
976.384
971.088
965.82
960.581
955.369
950.185
945.026
939.891
934.78
1493.58
1487.97
1482.35
1476.74
1471.11
1465.48
1459.85
1454.2
1448.54
1442.86
1437.17
1431.46
1425.73
1419.97
1414.19
1408.38
1402.53
1396.65
1390.73
1384.77
1378.76
1372.7
1366.59
1360.42
1354.19
1347.89
1341.52
1335.08
1328.55
1321.93
1315.21
1308.39
1301.45
1294.4
1287.22
1279.96
1272.75
1265.65
1258.64
1251.71
1244.88
1238.12
1231.44
1224.83
1218.29
1211.81
1205.39
1199.03
1192.72
1186.46
1180.24
1174.07
1167.95
1161.86
1155.81
1149.79
1143.8
1137.85
1131.92
1126.02
1120.15
1114.29
1108.46
1102.66
1096.87
1091.1
1085.35
1079.62
1073.91
1068.22
1062.54
1056.88
1051.25
1045.63
1040.03
1034.46
1028.9
1023.37
1017.86
1012.37
1006.9
1001.47
996.053
990.666
985.307
979.975
974.672
969.397
964.151
958.933
953.745
948.586
943.456
938.354
933.279
928.231
923.209
918.212
913.239
908.288
1450.67
1445.21
1439.76
1434.31
1428.84
1423.38
1417.9
1412.42
1406.92
1401.41
1395.88
1390.33
1384.76
1379.17
1373.55
1367.91
1362.23
1356.52
1350.77
1344.98
1339.14
1333.26
1327.32
1321.33
1315.28
1309.16
1302.97
1296.71
1290.37
1283.93
1277.41
1270.78
1264.05
1257.2
1250.22
1243.17
1236.17
1229.27
1222.46
1215.74
1209.09
1202.53
1196.04
1189.62
1183.27
1176.97
1170.74
1164.56
1158.43
1152.35
1146.31
1140.32
1134.37
1128.45
1122.58
1116.73
1110.92
1105.13
1099.38
1093.65
1087.94
1082.26
1076.6
1070.96
1065.34
1059.74
1054.16
1048.6
1043.05
1037.53
1032.02
1026.53
1021.07
1015.62
1010.19
1004.78
999.395
994.031
988.688
983.369
978.074
972.804
967.559
962.34
957.147
951.982
946.844
941.734
936.652
931.599
926.574
921.578
916.609
911.667
906.752
901.864
897
892.161
887.344
882.549
1408.98
1403.69
1398.39
1393.09
1387.79
1382.48
1377.16
1371.83
1366.49
1361.14
1355.77
1350.38
1344.97
1339.54
1334.09
1328.6
1323.09
1317.54
1311.95
1306.33
1300.66
1294.94
1289.18
1283.36
1277.48
1271.54
1265.53
1259.44
1253.28
1247.03
1240.7
1234.26
1227.72
1221.06
1214.29
1207.44
1200.64
1193.93
1187.32
1180.79
1174.34
1167.96
1161.66
1155.42
1149.25
1143.14
1137.08
1131.08
1125.12
1119.22
1113.35
1107.53
1101.75
1096.01
1090.3
1084.62
1078.98
1073.36
1067.77
1062.2
1056.66
1051.14
1045.65
1040.17
1034.71
1029.28
1023.86
1018.46
1013.08
1007.72
1002.37
997.051
991.746
986.461
981.197
975.953
970.73
965.529
960.351
955.196
950.064
944.956
939.874
934.817
929.787
924.783
919.806
914.856
909.935
905.04
900.174
895.334
890.522
885.737
880.978
876.244
871.534
866.848
862.183
857.541
1368.5
1363.35
1358.21
1353.06
1347.91
1342.75
1337.59
1332.41
1327.23
1322.03
1316.81
1311.58
1306.33
1301.05
1295.75
1290.42
1285.07
1279.68
1274.25
1268.79
1263.28
1257.73
1252.13
1246.48
1240.77
1234.99
1229.16
1223.25
1217.26
1211.19
1205.04
1198.79
1192.43
1185.97
1179.38
1172.74
1166.13
1159.61
1153.19
1146.85
1140.58
1134.39
1128.26
1122.21
1116.21
1110.27
1104.39
1098.55
1092.77
1087.03
1081.34
1075.69
1070.07
1064.49
1058.94
1053.43
1047.95
1042.49
1037.06
1031.66
1026.27
1020.92
1015.58
1010.26
1004.96
999.684
994.424
989.183
983.96
978.756
973.571
968.405
963.26
958.134
953.028
947.944
942.88
937.839
932.819
927.822
922.849
917.9
912.976
908.076
903.203
898.355
893.535
888.741
883.974
879.234
874.521
869.834
865.175
860.541
855.932
851.349
846.789
842.251
837.735
833.241
1329.17
1324.18
1319.18
1314.18
1309.18
1304.17
1299.15
1294.13
1289.09
1284.04
1278.97
1273.89
1268.79
1263.66
1258.52
1253.34
1248.14
1242.9
1237.63
1232.33
1226.98
1221.59
1216.15
1210.65
1205.11
1199.5
1193.83
1188.09
1182.28
1176.38
1170.4
1164.33
1158.16
1151.88
1145.48
1139.03
1132.61
1126.28
1120.04
1113.88
1107.79
1101.77
1095.83
1089.94
1084.12
1078.35
1072.63
1066.97
1061.35
1055.77
1050.24
1044.75
1039.3
1033.88
1028.49
1023.13
1017.81
1012.51
1007.23
1001.98
996.756
991.552
986.368
981.205
976.061
970.936
965.829
960.741
955.671
950.62
945.587
940.575
935.583
930.611
925.661
920.73
915.822
910.934
906.069
901.226
896.407
891.611
886.839
882.093
877.372
872.676
868.007
863.363
858.747
854.156
849.592
845.055
840.543
836.056
831.594
827.156
822.742
818.349
813.978
809.627
1290.98
1286.12
1281.27
1276.42
1271.56
1266.69
1261.82
1256.94
1252.05
1247.14
1242.22
1237.28
1232.33
1227.35
1222.35
1217.33
1212.27
1207.19
1202.07
1196.91
1191.72
1186.48
1181.2
1175.86
1170.47
1165.03
1159.52
1153.94
1148.3
1142.57
1136.76
1130.86
1124.87
1118.77
1112.56
1106.28
1100.05
1093.9
1087.84
1081.85
1075.94
1070.1
1064.32
1058.6
1052.94
1047.34
1041.79
1036.28
1030.82
1025.41
1020.04
1014.7
1009.4
1004.14
998.904
993.701
988.526
983.379
978.256
973.157
968.081
963.027
957.993
952.979
947.984
943.007
938.049
933.109
928.187
923.283
918.399
913.535
908.693
903.871
899.07
894.29
889.531
884.793
880.077
875.384
870.713
866.066
861.443
856.845
852.271
847.723
843.2
838.703
834.232
829.786
825.367
820.973
816.605
812.261
807.941
803.645
799.372
795.12
790.889
786.678
1253.88
1249.16
1244.45
1239.74
1235.02
1230.29
1225.56
1220.82
1216.07
1211.3
1206.52
1201.73
1196.91
1192.08
1187.22
1182.34
1177.43
1172.49
1167.52
1162.51
1157.47
1152.38
1147.25
1142.07
1136.83
1131.54
1126.19
1120.78
1115.29
1109.73
1104.09
1098.36
1092.53
1086.61
1080.58
1074.48
1068.43
1062.46
1056.56
1050.75
1045
1039.33
1033.71
1028.16
1022.66
1017.22
1011.82
1006.48
1001.18
995.916
990.695
985.512
980.364
975.25
970.166
965.112
960.085
955.085
950.109
945.157
940.226
935.317
930.429
925.559
920.708
915.876
911.061
906.264
901.485
896.724
891.983
887.263
882.565
877.889
873.234
868.6
863.986
859.393
854.822
850.274
845.748
841.245
836.765
832.31
827.879
823.473
819.093
814.737
810.407
806.102
801.823
797.569
793.339
789.134
784.952
780.794
776.658
772.543
768.448
764.374
1222.42
1217.84
1213.27
1208.69
1204.11
1199.53
1194.94
1190.34
1185.74
1181.12
1176.49
1171.85
1167.19
1162.52
1157.82
1153.11
1148.36
1143.6
1138.8
1133.97
1129.1
1124.2
1119.26
1114.28
1109.24
1104.16
1099.02
1093.82
1088.56
1083.23
1077.83
1072.35
1066.79
1061.13
1055.37
1049.51
1043.59
1037.71
1031.91
1026.19
1020.54
1014.96
1009.44
1003.99
998.593
993.252
987.963
982.722
977.528
972.377
967.267
962.195
957.159
952.158
947.189
942.25
937.34
932.457
927.599
922.766
917.956
913.167
908.399
903.651
898.921
894.211
889.518
884.843
880.185
875.544
870.922
866.319
861.738
857.18
852.645
848.131
843.638
839.165
834.713
830.282
825.874
821.487
817.123
812.783
808.467
804.174
799.906
795.663
791.445
787.251
783.083
778.939
774.82
770.725
766.654
762.606
758.581
754.578
750.596
746.634
742.692
1187.29
1182.84
1178.4
1173.95
1169.51
1165.05
1160.6
1156.13
1151.66
1147.18
1142.68
1138.17
1133.65
1129.11
1124.55
1119.97
1115.36
1110.73
1106.07
1101.38
1096.65
1091.89
1087.09
1082.25
1077.36
1072.42
1067.43
1062.38
1057.27
1052.1
1046.85
1041.53
1036.12
1030.62
1025.03
1019.34
1013.59
1007.88
1002.24
996.681
991.192
985.771
980.413
975.115
969.873
964.684
959.545
954.454
949.407
944.402
939.437
934.51
929.617
924.758
919.93
915.132
910.362
905.618
900.899
896.204
891.531
886.88
882.248
877.637
873.044
868.469
863.911
859.371
854.848
850.341
845.852
841.383
836.937
832.514
828.117
823.74
819.383
815.047
810.731
806.436
802.162
797.911
793.682
789.476
785.294
781.135
777.001
772.89
768.805
764.743
760.707
756.694
752.706
748.741
744.8
740.882
736.987
733.113
729.259
725.426
721.612
1153.17
1148.85
1144.53
1140.22
1135.9
1131.57
1127.24
1122.91
1118.56
1114.21
1109.84
1105.46
1101.07
1096.66
1092.23
1087.78
1083.3
1078.81
1074.28
1069.72
1065.13
1060.51
1055.85
1051.14
1046.39
1041.6
1036.75
1031.85
1026.88
1021.85
1016.76
1011.59
1006.33
1001
995.566
990.036
984.449
978.897
973.422
968.021
962.689
957.422
952.216
947.069
941.976
936.934
931.941
926.995
922.091
917.228
912.404
907.616
902.863
898.142
893.451
888.79
884.155
879.546
874.962
870.4
865.861
861.342
856.843
852.364
847.903
843.459
839.033
834.623
830.23
825.853
821.493
817.154
812.837
808.546
804.281
800.037
795.813
791.609
787.425
783.261
779.119
774.998
770.9
766.824
762.771
758.742
754.736
750.754
746.796
742.863
738.953
735.068
731.206
727.368
723.553
719.76
715.99
712.241
708.512
704.804
1120.03
1115.83
1111.64
1107.45
1103.25
1099.05
1094.85
1090.64
1086.42
1082.19
1077.95
1073.69
1069.43
1065.14
1060.84
1056.51
1052.17
1047.8
1043.4
1038.98
1034.52
1030.03
1025.5
1020.93
1016.32
1011.66
1006.95
1002.18
997.362
992.478
987.527
982.504
977.403
972.218
966.943