/*--------------------------------*- C++ -*----------------------------------*\
  =========                 |
  \\      /  F ield         | OpenFOAM: The Open Source CFD Toolbox
   \\    /   O peration     | Website:  https://openfoam.org
    \\  /    A nd           | Version:  10
     \\/     M anipulation  |
\*---------------------------------------------------------------------------*/
FoamFile
{
    format      ascii;
    class       volScalarField;
    location    "32000";
    object      k;
}
// * * * * * * * * * * * * * * * * * * * * * * * * * * * * * * * * * * * * * //

dimensions      [0 2 -2 0 0 0 0];

internalField   nonuniform List<scalar> 
17922
(
0.0939151
0.0937625
0.0936126
0.0934656
0.0933215
0.0931803
0.0930421
0.0929069
0.0927747
0.0926456
0.0925196
0.0923967
0.0922768
0.09216
0.0920463
0.0919357
0.0918281
0.0917235
0.091622
0.0915234
0.0914278
0.0913349
0.0912449
0.0911575
0.0910727
0.0909904
0.0909103
0.0908322
0.0907566
0.0906844
0.0906156
0.0905498
0.0904867
0.090426
0.0903675
0.0903111
0.0902568
0.0902043
0.0901539
0.0901054
0.090059
0.0900147
0.0899727
0.0899331
0.0898958
0.0898612
0.0898292
0.0898001
0.0897737
0.0897503
0.0897299
0.0897124
0.089698
0.0896865
0.0896779
0.0896722
0.0896692
0.0896689
0.0896711
0.0896758
0.0896828
0.0896919
0.0897031
0.0897161
0.0897309
0.0897473
0.0897651
0.0897842
0.0898045
0.0898258
0.089848
0.089871
0.0898947
0.0899191
0.0899441
0.0899696
0.0899956
0.0900223
0.0900496
0.0900777
0.0901065
0.0901363
0.0901671
0.0901992
0.0902325
0.0902673
0.0903036
0.0903416
0.0903814
0.0904229
0.0904663
0.0905114
0.0905583
0.0939179
0.0937653
0.0936154
0.0934684
0.0933243
0.0931832
0.093045
0.0929098
0.0927777
0.0926486
0.0925226
0.0923997
0.0922798
0.092163
0.0920493
0.0919387
0.0918312
0.0917267
0.0916251
0.0915266
0.091431
0.0913382
0.0912482
0.0911608
0.0910761
0.0909938
0.0909137
0.0908357
0.0907601
0.0906879
0.0906192
0.0905534
0.0904904
0.0904297
0.0903713
0.0903149
0.0902606
0.0902082
0.0901577
0.0901093
0.0900629
0.0900187
0.0899767
0.0899371
0.0898999
0.0898653
0.0898334
0.0898042
0.0897779
0.0897545
0.0897341
0.0897166
0.0897021
0.0896906
0.089682
0.0896762
0.0896731
0.0896727
0.0896749
0.0896795
0.0896863
0.0896953
0.0897063
0.0897191
0.0897337
0.0897498
0.0897673
0.0897861
0.089806
0.0898268
0.0898486
0.0898711
0.0898943
0.089918
0.0899423
0.0899672
0.0899926
0.0900185
0.090045
0.0900722
0.0901001
0.0901289
0.0901587
0.0901896
0.0902216
0.0902551
0.0902899
0.0903262
0.0903642
0.0904037
0.0904448
0.0904875
0.0905317
0.0939206
0.093768
0.0936181
0.0934712
0.0933271
0.093186
0.0930478
0.0929126
0.0927805
0.0926515
0.0925255
0.0924025
0.0922827
0.0921659
0.0920523
0.0919417
0.0918342
0.0917297
0.0916282
0.0915296
0.091434
0.0913413
0.0912513
0.091164
0.0910793
0.090997
0.090917
0.090839
0.0907635
0.0906914
0.0906227
0.090557
0.0904939
0.0904333
0.0903749
0.0903186
0.0902643
0.090212
0.0901616
0.0901132
0.0900669
0.0900227
0.0899807
0.0899411
0.089904
0.0898694
0.0898375
0.0898084
0.0897821
0.0897587
0.0897383
0.0897208
0.0897063
0.0896947
0.0896861
0.0896802
0.0896772
0.0896767
0.0896788
0.0896832
0.0896899
0.0896988
0.0897096
0.0897222
0.0897366
0.0897524
0.0897696
0.089788
0.0898075
0.089828
0.0898492
0.0898712
0.0898939
0.089917
0.0899407
0.0899649
0.0899895
0.0900147
0.0900404
0.0900667
0.0900937
0.0901214
0.0901501
0.0901798
0.0902106
0.0902426
0.0902758
0.0903104
0.0903464
0.0903838
0.0904226
0.0904627
0.090504
0.0939232
0.0937706
0.0936208
0.0934738
0.0933298
0.0931887
0.0930505
0.0929154
0.0927833
0.0926542
0.0925283
0.0924053
0.0922855
0.0921688
0.0920552
0.0919446
0.0918371
0.0917326
0.0916311
0.0915326
0.0914371
0.0913443
0.0912544
0.0911672
0.0910825
0.0910002
0.0909203
0.0908423
0.0907669
0.0906948
0.0906261
0.0905605
0.0904975
0.0904369
0.0903786
0.0903223
0.090268
0.0902157
0.0901654
0.090117
0.0900708
0.0900266
0.0899847
0.0899452
0.0899081
0.0898735
0.0898417
0.0898126
0.0897863
0.0897629
0.0897425
0.089725
0.0897105
0.089699
0.0896903
0.0896844
0.0896813
0.0896807
0.0896827
0.0896871
0.0896937
0.0897024
0.089713
0.0897254
0.0897395
0.0897551
0.089772
0.08979
0.0898091
0.0898292
0.08985
0.0898714
0.0898935
0.0899161
0.0899391
0.0899626
0.0899865
0.0900108
0.0900357
0.0900611
0.0900871
0.0901139
0.0901414
0.0901698
0.0901992
0.0902297
0.0902613
0.0902941
0.0903281
0.0903632
0.0903995
0.0904369
0.0904752
0.0939258
0.0937732
0.0936234
0.0934765
0.0933324
0.0931913
0.0930532
0.0929181
0.092786
0.092657
0.092531
0.0924081
0.0922883
0.0921716
0.092058
0.0919474
0.0918399
0.0917355
0.091634
0.0915356
0.09144
0.0913473
0.0912574
0.0911702
0.0910856
0.0910034
0.0909235
0.0908456
0.0907702
0.0906981
0.0906295
0.0905639
0.090501
0.0904405
0.0903822
0.090326
0.0902717
0.0902195
0.0901692
0.0901209
0.0900747
0.0900306
0.0899887
0.0899492
0.0899122
0.0898777
0.0898459
0.0898168
0.0897906
0.0897672
0.0897468
0.0897294
0.0897149
0.0897033
0.0896946
0.0896886
0.0896854
0.0896849
0.0896868
0.089691
0.0896975
0.089706
0.0897165
0.0897287
0.0897426
0.0897578
0.0897744
0.0897921
0.0898108
0.0898304
0.0898507
0.0898717
0.0898932
0.0899151
0.0899375
0.0899603
0.0899834
0.090007
0.090031
0.0900554
0.0900805
0.0901061
0.0901324
0.0901596
0.0901875
0.0902164
0.0902463
0.0902771
0.090309
0.0903418
0.0903755
0.0904099
0.0904451
0.0939283
0.0937758
0.093626
0.0934791
0.093335
0.093194
0.0930559
0.0929208
0.0927887
0.0926597
0.0925337
0.0924108
0.092291
0.0921743
0.0920607
0.0919502
0.0918427
0.0917383
0.0916369
0.0915385
0.0914429
0.0913503
0.0912604
0.0911733
0.0910887
0.0910065
0.0909266
0.0908488
0.0907735
0.0907014
0.0906329
0.0905673
0.0905045
0.090444
0.0903858
0.0903296
0.0902754
0.0902232
0.090173
0.0901247
0.0900786
0.0900345
0.0899928
0.0899533
0.0899163
0.0898819
0.0898501
0.0898211
0.0897949
0.0897716
0.0897512
0.0897338
0.0897193
0.0897077
0.0896989
0.089693
0.0896897
0.0896891
0.0896909
0.089695
0.0897014
0.0897098
0.0897201
0.0897321
0.0897457
0.0897607
0.0897769
0.0897943
0.0898126
0.0898318
0.0898516
0.089872
0.0898929
0.0899143
0.089936
0.089958
0.0899804
0.0900031
0.0900262
0.0900497
0.0900737
0.0900982
0.0901233
0.090149
0.0901755
0.0902027
0.0902307
0.0902595
0.0902891
0.0903194
0.0903503
0.0903817
0.0904135
0.0939309
0.0937783
0.0936285
0.0934816
0.0933376
0.0931965
0.0930585
0.0929234
0.0927913
0.0926623
0.0925364
0.0924135
0.0922937
0.092177
0.0920634
0.0919529
0.0918455
0.0917411
0.0916397
0.0915413
0.0914458
0.0913532
0.0912634
0.0911762
0.0910917
0.0910096
0.0909297
0.090852
0.0907767
0.0907047
0.0906362
0.0905707
0.0905079
0.0904475
0.0903893
0.0903332
0.0902791
0.0902269
0.0901768
0.0901286
0.0900825
0.0900385
0.0899968
0.0899574
0.0899205
0.0898861
0.0898544
0.0898254
0.0897993
0.089776
0.0897556
0.0897382
0.0897237
0.0897121
0.0897034
0.0896974
0.0896941
0.0896934
0.0896951
0.0896992
0.0897054
0.0897137
0.0897238
0.0897356
0.0897489
0.0897636
0.0897796
0.0897966
0.0898145
0.0898332
0.0898525
0.0898724
0.0898927
0.0899134
0.0899344
0.0899557
0.0899773
0.0899992
0.0900214
0.0900438
0.0900667
0.09009
0.0901138
0.0901381
0.0901629
0.0901884
0.0902145
0.0902411
0.0902683
0.0902959
0.0903239
0.0903522
0.0903804
0.0939334
0.0937808
0.0936311
0.0934842
0.0933402
0.0931991
0.093061
0.0929259
0.0927939
0.0926649
0.092539
0.0924161
0.0922964
0.0921797
0.0920661
0.0919556
0.0918482
0.0917438
0.0916425
0.0915441
0.0914486
0.091356
0.0912663
0.0911792
0.0910947
0.0910126
0.0909328
0.0908551
0.0907799
0.090708
0.0906395
0.0905741
0.0905113
0.090451
0.0903928
0.0903368
0.0902827
0.0902306
0.0901805
0.0901324
0.0900864
0.0900425
0.0900008
0.0899615
0.0899247
0.0898904
0.0898587
0.0898298
0.0898037
0.0897805
0.0897602
0.0897428
0.0897283
0.0897167
0.0897079
0.0897019
0.0896986
0.0896978
0.0896995
0.0897034
0.0897095
0.0897176
0.0897276
0.0897392
0.0897523
0.0897667
0.0897823
0.0897989
0.0898164
0.0898346
0.0898535
0.0898728
0.0898925
0.0899126
0.0899329
0.0899535
0.0899742
0.0899952
0.0900164
0.0900378
0.0900595
0.0900816
0.090104
0.0901267
0.0901499
0.0901735
0.0901975
0.0902218
0.0902465
0.0902713
0.0902962
0.0903211
0.0903456
0.0939358
0.0937833
0.0936335
0.0934866
0.0933427
0.0932016
0.0930635
0.0929285
0.0927964
0.0926674
0.0925415
0.0924187
0.092299
0.0921823
0.0920687
0.0919583
0.0918509
0.0917465
0.0916452
0.0915468
0.0914514
0.0913589
0.0912691
0.0911821
0.0910976
0.0910156
0.0909359
0.0908582
0.090783
0.0907112
0.0906428
0.0905774
0.0905147
0.0904544
0.0903963
0.0903403
0.0902864
0.0902343
0.0901843
0.0901363
0.0900903
0.0900465
0.0900049
0.0899657
0.0899289
0.0898946
0.0898631
0.0898342
0.0898082
0.089785
0.0897647
0.0897474
0.0897329
0.0897213
0.0897126
0.0897066
0.0897032
0.0897024
0.089704
0.0897078
0.0897138
0.0897217
0.0897315
0.0897429
0.0897557
0.0897698
0.0897851
0.0898014
0.0898184
0.0898362
0.0898545
0.0898733
0.0898924
0.0899118
0.0899314
0.0899512
0.0899711
0.0899911
0.0900113
0.0900316
0.0900521
0.0900728
0.0900937
0.0901149
0.0901363
0.0901579
0.0901796
0.0902016
0.0902235
0.0902454
0.0902671
0.0902883
0.0903089
0.0939383
0.0937857
0.093636
0.0934891
0.0933451
0.0932041
0.093066
0.092931
0.0927989
0.09267
0.0925441
0.0924212
0.0923015
0.0921849
0.0920713
0.0919609
0.0918535
0.0917492
0.0916478
0.0915495
0.0914541
0.0913616
0.0912719
0.0911849
0.0911005
0.0910185
0.0909389
0.0908613
0.0907861
0.0907143
0.090646
0.0905807
0.0905181
0.0904578
0.0903998
0.0903439
0.09029
0.090238
0.0901881
0.0901401
0.0900942
0.0900505
0.090009
0.0899698
0.0899331
0.089899
0.0898675
0.0898387
0.0898127
0.0897896
0.0897694
0.0897521
0.0897377
0.0897261
0.0897173
0.0897113
0.0897079
0.089707
0.0897085
0.0897123
0.0897182
0.089726
0.0897355
0.0897467
0.0897593
0.0897731
0.089788
0.0898039
0.0898206
0.0898379
0.0898557
0.0898738
0.0898923
0.089911
0.0899299
0.0899488
0.0899679
0.0899869
0.0900061
0.0900252
0.0900444
0.0900637
0.0900831
0.0901025
0.090122
0.0901414
0.0901609
0.0901802
0.0901993
0.0902181
0.0902363
0.0902537
0.0902701
0.0939407
0.0937882
0.0936384
0.0934916
0.0933476
0.0932065
0.0930685
0.0929334
0.0928014
0.0926724
0.0925466
0.0924237
0.092304
0.0921874
0.0920739
0.0919634
0.0918561
0.0917518
0.0916505
0.0915522
0.0914568
0.0913643
0.0912747
0.0911877
0.0911033
0.0910214
0.0909418
0.0908643
0.0907892
0.0907175
0.0906492
0.090584
0.0905214
0.0904612
0.0904033
0.0903474
0.0902936
0.0902417
0.0901918
0.0901439
0.0900981
0.0900545
0.0900131
0.089974
0.0899374
0.0899034
0.0898719
0.0898433
0.0898174
0.0897943
0.0897742
0.0897569
0.0897425
0.089731
0.0897222
0.0897162
0.0897128
0.0897118
0.0897133
0.0897169
0.0897227
0.0897303
0.0897397
0.0897506
0.0897629
0.0897765
0.0897911
0.0898066
0.0898228
0.0898396
0.0898568
0.0898745
0.0898923
0.0899103
0.0899284
0.0899465
0.0899646
0.0899826
0.0900006
0.0900185
0.0900364
0.0900542
0.0900719
0.0900895
0.0901069
0.0901241
0.0901411
0.0901577
0.0901738
0.0901892
0.0902037
0.0902171
0.0902291
0.0939431
0.0937906
0.0936408
0.093494
0.09335
0.093209
0.0930709
0.0929359
0.0928039
0.0926749
0.092549
0.0924262
0.0923065
0.0921899
0.0920764
0.091966
0.0918586
0.0917543
0.0916531
0.0915548
0.0914595
0.091367
0.0912774
0.0911905
0.0911062
0.0910243
0.0909447
0.0908673
0.0907922
0.0907206
0.0906524
0.0905872
0.0905247
0.0904646
0.0904067
0.0903509
0.0902972
0.0902454
0.0901956
0.0901478
0.0901021
0.0900585
0.0900172
0.0899783
0.0899417
0.0899078
0.0898765
0.0898479
0.0898221
0.0897991
0.089779
0.0897618
0.0897475
0.089736
0.0897272
0.0897212
0.0897177
0.0897168
0.0897181
0.0897217
0.0897273
0.0897348
0.089744
0.0897547
0.0897668
0.08978
0.0897942
0.0898093
0.0898251
0.0898414
0.0898581
0.0898751
0.0898923
0.0899095
0.0899268
0.089944
0.0899611
0.0899781
0.0899949
0.0900116
0.090028
0.0900442
0.0900601
0.0900757
0.090091
0.0901058
0.0901201
0.0901338
0.0901466
0.0901585
0.0901691
0.0901783
0.0901857
0.0939455
0.0937929
0.0936432
0.0934964
0.0933524
0.0932114
0.0930733
0.0929383
0.0928063
0.0926773
0.0925514
0.0924287
0.092309
0.0921924
0.0920789
0.0919685
0.0918611
0.0917569
0.0916556
0.0915574
0.0914621
0.0913697
0.0912801
0.0911932
0.0911089
0.0910271
0.0909476
0.0908702
0.0907953
0.0907237
0.0906555
0.0905904
0.090528
0.090468
0.0904102
0.0903545
0.0903008
0.0902491
0.0901993
0.0901517
0.090106
0.0900626
0.0900214
0.0899825
0.0899461
0.0899123
0.0898811
0.0898526
0.0898269
0.089804
0.089784
0.0897668
0.0897525
0.0897411
0.0897324
0.0897263
0.0897229
0.0897219
0.0897232
0.0897266
0.0897321
0.0897394
0.0897484
0.0897589
0.0897707
0.0897836
0.0897975
0.0898122
0.0898275
0.0898433
0.0898595
0.0898758
0.0898923
0.0899088
0.0899252
0.0899415
0.0899575
0.0899734
0.0899889
0.0900042
0.0900191
0.0900335
0.0900476
0.0900611
0.0900741
0.0900863
0.0900978
0.0901084
0.0901178
0.0901259
0.0901324
0.0901371
0.0901396
0.0939478
0.0937953
0.0936456
0.0934987
0.0933548
0.0932138
0.0930757
0.0929407
0.0928087
0.0926797
0.0925538
0.0924311
0.0923114
0.0921948
0.0920813
0.0919709
0.0918636
0.0917594
0.0916581
0.0915599
0.0914647
0.0913723
0.0912827
0.0911959
0.0911117
0.0910299
0.0909505
0.0908731
0.0907982
0.0907267
0.0906587
0.0905936
0.0905312
0.0904713
0.0904136
0.090358
0.0903044
0.0902527
0.0902031
0.0901555
0.09011
0.0900667
0.0900256
0.0899869
0.0899506
0.0899168
0.0898857
0.0898573
0.0898317
0.089809
0.089789
0.089772
0.0897578
0.0897463
0.0897376
0.0897316
0.0897281
0.0897271
0.0897283
0.0897317
0.0897371
0.0897443
0.0897531
0.0897633
0.0897748
0.0897874
0.089801
0.0898152
0.08983
0.0898453
0.0898609
0.0898766
0.0898923
0.089908
0.0899235
0.0899388
0.0899538
0.0899684
0.0899826
0.0899964
0.0900096
0.0900223
0.0900343
0.0900456
0.0900561
0.0900656
0.0900741
0.0900813
0.0900871
0.0900912
0.0900934
0.0900934
0.0900907
0.0939502
0.0937977
0.093648
0.0935011
0.0933572
0.0932161
0.0930781
0.0929431
0.092811
0.0926821
0.0925562
0.0924334
0.0923138
0.0921972
0.0920837
0.0919733
0.091866
0.0917618
0.0916606
0.0915624
0.0914672
0.0913749
0.0912854
0.0911986
0.0911144
0.0910327
0.0909533
0.090876
0.0908012
0.0907297
0.0906617
0.0905968
0.0905345
0.0904746
0.090417
0.0903615
0.0903079
0.0902564
0.0902069
0.0901594
0.090114
0.0900708
0.0900298
0.0899912
0.0899551
0.0899214
0.0898905
0.0898622
0.0898367
0.0898141
0.0897942
0.0897773
0.0897631
0.0897517
0.0897431
0.0897371
0.0897336
0.0897325
0.0897337
0.089737
0.0897422
0.0897492
0.0897579
0.0897679
0.0897791
0.0897914
0.0898045
0.0898183
0.0898327
0.0898474
0.0898623
0.0898773
0.0898923
0.0899071
0.0899217
0.0899359
0.0899498
0.0899631
0.0899759
0.0899881
0.0899995
0.0900102
0.0900201
0.090029
0.0900368
0.0900435
0.0900487
0.0900524
0.0900544
0.0900543
0.0900519
0.0900468
0.0900388
0.0939526
0.0938001
0.0936503
0.0935035
0.0933595
0.0932185
0.0930804
0.0929454
0.0928134
0.0926845
0.0925586
0.0924358
0.0923161
0.0921996
0.0920861
0.0919757
0.0918685
0.0917643
0.0916631
0.0915649
0.0914697
0.0913774
0.091288
0.0912012
0.0911171
0.0910355
0.0909561
0.0908789
0.0908041
0.0907327
0.0906648
0.0905999
0.0905377
0.0904779
0.0904204
0.0903649
0.0903115
0.0902601
0.0902107
0.0901633
0.0901181
0.090075
0.0900341
0.0899957
0.0899596
0.0899262
0.0898953
0.0898672
0.0898418
0.0898193
0.0897996
0.0897827
0.0897686
0.0897573
0.0897487
0.0897427
0.0897392
0.0897381
0.0897392
0.0897425
0.0897476
0.0897544
0.0897628
0.0897726
0.0897835
0.0897955
0.0898082
0.0898216
0.0898354
0.0898495
0.0898638
0.0898781
0.0898923
0.0899062
0.0899197
0.0899329
0.0899454
0.0899574
0.0899687
0.0899791
0.0899887
0.0899973
0.0900049
0.0900112
0.0900162
0.0900197
0.0900216
0.0900215
0.0900194
0.0900148
0.0900075
0.0899972
0.0899835
0.0945893
0.0944272
0.0942675
0.0941101
0.0939549
0.0938024
0.0936527
0.0935058
0.0933618
0.0932208
0.0930828
0.0929477
0.0928157
0.0926868
0.0925609
0.0924381
0.0923185
0.0922019
0.0920885
0.0919781
0.0918708
0.0917667
0.0916655
0.0915674
0.0914722
0.09138
0.0912905
0.0912038
0.0911198
0.0910382
0.0909589
0.0908817
0.090807
0.0907357
0.0906679
0.0906031
0.0905409
0.0904812
0.0904238
0.0903684
0.0903151
0.0902638
0.0902145
0.0901673
0.0901221
0.0900792
0.0900385
0.0900002
0.0899643
0.0899309
0.0899003
0.0898723
0.089847
0.0898246
0.089805
0.0897883
0.0897743
0.089763
0.0897545
0.0897485
0.0897451
0.0897439
0.089745
0.0897481
0.0897531
0.0897598
0.089768
0.0897775
0.0897882
0.0897997
0.0898121
0.089825
0.0898383
0.0898518
0.0898654
0.0898789
0.0898922
0.0899051
0.0899176
0.0899295
0.0899408
0.0899513
0.0899609
0.0899695
0.0899771
0.0899834
0.0899885
0.0899921
0.0899941
0.0899943
0.0899925
0.0899884
0.0899819
0.0899726
0.0899603
0.0899444
0.0899247
0.0945917
0.0944296
0.0942698
0.0941123
0.0939572
0.0938047
0.093655
0.0935081
0.0933642
0.0932231
0.0930851
0.0929501
0.092818
0.0926891
0.0925632
0.0924405
0.0923208
0.0922042
0.0920908
0.0919804
0.0918732
0.091769
0.0916679
0.0915698
0.0914747
0.0913825
0.0912931
0.0912064
0.0911224
0.0910409
0.0909616
0.0908845
0.0908099
0.0907387
0.0906709
0.0906062
0.0905441
0.0904845
0.0904272
0.0903719
0.0903187
0.0902675
0.0902184
0.0901713
0.0901263
0.0900834
0.0900429
0.0900047
0.089969
0.0899358
0.0899053
0.0898775
0.0898524
0.0898301
0.0898107
0.089794
0.0897801
0.089769
0.0897605
0.0897546
0.0897511
0.08975
0.089751
0.089754
0.0897589
0.0897654
0.0897734
0.0897826
0.089793
0.0898042
0.0898161
0.0898285
0.0898412
0.0898541
0.0898669
0.0898796
0.089892
0.0899039
0.0899152
0.0899259
0.0899357
0.0899446
0.0899524
0.0899591
0.0899645
0.0899684
0.0899708
0.0899715
0.0899702
0.0899669
0.0899612
0.0899529
0.0899418
0.0899275
0.0899098
0.0898881
0.0898621
0.0945941
0.0944319
0.094272
0.0941145
0.0939594
0.093807
0.0936573
0.0935105
0.0933665
0.0932255
0.0930874
0.0929524
0.0928203
0.0926914
0.0925655
0.0924428
0.0923231
0.0922065
0.0920931
0.0919828
0.0918755
0.0917714
0.0916703
0.0915722
0.0914771
0.0913849
0.0912956
0.091209
0.091125
0.0910435
0.0909644
0.0908873
0.0908128
0.0907416
0.0906739
0.0906093
0.0905473
0.0904878
0.0904306
0.0903754
0.0903224
0.0902713
0.0902223
0.0901753
0.0901304
0.0900878
0.0900474
0.0900094
0.0899738
0.0899408
0.0899105
0.0898828
0.0898579
0.0898358
0.0898165
0.0897999
0.0897862
0.0897751
0.0897667
0.0897608
0.0897574
0.0897562
0.0897572
0.0897601
0.0897649
0.0897712
0.089779
0.089788
0.089798
0.0898088
0.0898202
0.0898321
0.0898442
0.0898564
0.0898685
0.0898803
0.0898917
0.0899025
0.0899126
0.0899218
0.0899301
0.0899373
0.0899432
0.0899478
0.0899508
0.0899521
0.0899517
0.0899492
0.0899445
0.0899374
0.0899276
0.0899148
0.0898989
0.0898793
0.0898558
0.089828
0.0897955
0.095096
0.0949275
0.094761
0.0945964
0.0944342
0.0942742
0.0941167
0.0939617
0.0938093
0.0936596
0.0935128
0.0933688
0.0932278
0.0930897
0.0929547
0.0928226
0.0926937
0.0925678
0.092445
0.0923254
0.0922088
0.0920954
0.0919851
0.0918779
0.0917737
0.0916727
0.0915746
0.0914795
0.0913874
0.0912981
0.0912115
0.0911276
0.0910462
0.0909671
0.0908901
0.0908156
0.0907445
0.0906769
0.0906124
0.0905505
0.0904911
0.090434
0.090379
0.090326
0.0902751
0.0902262
0.0901794
0.0901347
0.0900922
0.090052
0.0900141
0.0899788
0.089946
0.0899158
0.0898883
0.0898636
0.0898416
0.0898225
0.0898061
0.0897924
0.0897815
0.0897731
0.0897673
0.0897639
0.0897627
0.0897636
0.0897665
0.0897711
0.0897773
0.0897848
0.0897935
0.0898031
0.0898136
0.0898245
0.0898358
0.0898473
0.0898587
0.08987
0.0898809
0.0898912
0.0899008
0.0899096
0.0899173
0.089924
0.0899293
0.0899331
0.0899354
0.0899359
0.0899345
0.0899309
0.0899251
0.0899167
0.0899056
0.0898914
0.0898739
0.0898528
0.0898277
0.0897982
0.089764
0.0897245
0.0950985
0.0949298
0.0947632
0.0945987
0.0944364
0.0942765
0.094119
0.093964
0.0938116
0.0936619
0.0935151
0.0933711
0.0932301
0.093092
0.0929569
0.0928249
0.092696
0.0925701
0.0924473
0.0923276
0.0922111
0.0920977
0.0919874
0.0918802
0.0917761
0.091675
0.091577
0.0914819
0.0913898
0.0913005
0.091214
0.0911302
0.0910488
0.0909698
0.0908929
0.0908185
0.0907475
0.0906799
0.0906155
0.0905537
0.0904944
0.0904374
0.0903825
0.0903297
0.0902789
0.0902302
0.0901835
0.090139
0.0900967
0.0900566
0.090019
0.0899839
0.0899512
0.0899213
0.089894
0.0898694
0.0898477
0.0898287
0.0898124
0.0897989
0.0897881
0.0897798
0.0897741
0.0897707
0.0897695
0.0897704
0.0897731
0.0897776
0.0897836
0.0897909
0.0897993
0.0898085
0.0898185
0.089829
0.0898397
0.0898504
0.0898611
0.0898715
0.0898813
0.0898905
0.0898988
0.0899061
0.0899123
0.0899171
0.0899204
0.0899221
0.0899219
0.0899197
0.0899153
0.0899084
0.089899
0.0898867
0.0898713
0.0898524
0.0898299
0.0898034
0.0897724
0.0897367
0.0896957
0.0896491
0.095101
0.0949322
0.0947655
0.094601
0.0944387
0.0942787
0.0941212
0.0939662
0.0938138
0.0936642
0.0935174
0.0933734
0.0932323
0.0930943
0.0929592
0.0928272
0.0926982
0.0925723
0.0924496
0.0923299
0.0922134
0.0920999
0.0919896
0.0918825
0.0917784
0.0916773
0.0915793
0.0914843
0.0913922
0.091303
0.0912165
0.0911327
0.0910514
0.0909724
0.0908956
0.0908213
0.0907504
0.0906829
0.0906186
0.0905569
0.0904977
0.0904408
0.0903861
0.0903334
0.0902828
0.0902342
0.0901877
0.0901434
0.0901012
0.0900614
0.090024
0.0899891
0.0899567
0.0899269
0.0898998
0.0898755
0.0898539
0.0898351
0.089819
0.0898057
0.089795
0.0897868
0.0897811
0.0897778
0.0897766
0.0897774
0.0897801
0.0897844
0.0897902
0.0897972
0.0898053
0.0898142
0.0898237
0.0898335
0.0898436
0.0898536
0.0898634
0.0898728
0.0898816
0.0898895
0.0898964
0.0899022
0.0899066
0.0899095
0.0899106
0.0899099
0.089907
0.0899019
0.0898943
0.089884
0.0898707
0.0898542
0.0898342
0.0898105
0.0897827
0.0897504
0.0897133
0.089671
0.089623
0.0895689
0.0951034
0.0949345
0.0947678
0.0946032
0.0944409
0.094281
0.0941235
0.0939685
0.0938161
0.0936665
0.0935196
0.0933757
0.0932346
0.0930965
0.0929615
0.0928294
0.0927005
0.0925746
0.0924518
0.0923321
0.0922156
0.0921022
0.0919919
0.0918847
0.0917806
0.0916796
0.0915817
0.0914867
0.0913946
0.0913054
0.091219
0.0911353
0.091054
0.0909751
0.0908983
0.0908241
0.0907533
0.0906859
0.0906217
0.0905601
0.0905011
0.0904443
0.0903897
0.0903371
0.0902867
0.0902383
0.090192
0.0901478
0.0901059
0.0900663
0.0900291
0.0899944
0.0899623
0.0899327
0.0899059
0.0898818
0.0898604
0.0898418
0.0898259
0.0898127
0.0898021
0.0897941
0.0897885
0.0897851
0.0897839
0.0897847
0.0897873
0.0897915
0.089797
0.0898038
0.0898115
0.08982
0.089829
0.0898382
0.0898476
0.0898568
0.0898657
0.089874
0.0898816
0.0898882
0.0898936
0.0898977
0.0899002
0.0899009
0.0898998
0.0898964
0.0898907
0.0898825
0.0898714
0.0898574
0.08984
0.0898191
0.0897943
0.0897654
0.0897319
0.0896936
0.0896501
0.0896009
0.0895455
0.0894836
0.0951058
0.0949369
0.0947701
0.0946055
0.0944432
0.0942832
0.0941257
0.0939707
0.0938184
0.0936687
0.0935219
0.0933779
0.0932369
0.0930988
0.0929637
0.0928317
0.0927027
0.0925768
0.092454
0.0923344
0.0922178
0.0921044
0.0919942
0.091887
0.0917829
0.0916819
0.091584
0.091489
0.091397
0.0913079
0.0912215
0.0911378
0.0910566
0.0909778
0.0909011
0.0908269
0.0907562
0.090689
0.0906248
0.0905634
0.0905044
0.0904478
0.0903933
0.0903409
0.0902907
0.0902424
0.0901963
0.0901524
0.0901107
0.0900714
0.0900344
0.0899999
0.089968
0.0899387
0.0899121
0.0898883
0.0898671
0.0898487
0.089833
0.08982
0.0898096
0.0898017
0.0897961
0.0897928
0.0897917
0.0897924
0.0897949
0.0897989
0.0898042
0.0898107
0.089818
0.089826
0.0898344
0.0898431
0.0898517
0.08986
0.0898679
0.0898751
0.0898813
0.0898864
0.0898902
0.0898924
0.0898929
0.0898914
0.0898877
0.0898816
0.0898728
0.0898612
0.0898465
0.0898284
0.0898067
0.0897811
0.0897512
0.0897168
0.0896774
0.0896328
0.0895825
0.0895261
0.0894632
0.0893931
0.0951082
0.0949392
0.0947723
0.0946077
0.0944454
0.0942854
0.0941279
0.093973
0.0938206
0.093671
0.0935242
0.0933802
0.0932391
0.0931011
0.092966
0.0928339
0.0927049
0.0925791
0.0924563
0.0923366
0.0922201
0.0921067
0.0919964
0.0918892
0.0917852
0.0916842
0.0915863
0.0914914
0.0913994
0.0913103
0.091224
0.0911403
0.0910592
0.0909804
0.0909038
0.0908297
0.0907591
0.090692
0.0906279
0.0905666
0.0905078
0.0904513
0.090397
0.0903448
0.0902947
0.0902467
0.0902008
0.0901571
0.0901157
0.0900766
0.0900399
0.0900057
0.089974
0.089945
0.0899187
0.089895
0.0898741
0.089856
0.0898405
0.0898277
0.0898174
0.0898096
0.0898041
0.0898009
0.0897997
0.0898004
0.0898028
0.0898066
0.0898117
0.0898178
0.0898247
0.0898322
0.0898401
0.089848
0.0898557
0.0898631
0.0898699
0.0898758
0.0898807
0.0898842
0.0898862
0.0898864
0.0898847
0.0898807
0.0898743
0.0898652
0.0898531
0.0898379
0.0898193
0.089797
0.0897706
0.08974
0.0897047
0.0896645
0.089619
0.0895678
0.0895104
0.0894465
0.0893756
0.0892972
0.0951106
0.0949415
0.0947746
0.09461
0.0944476
0.0942877
0.0941302
0.0939752
0.0938229
0.0936733
0.0935264
0.0933825
0.0932414
0.0931033
0.0929682
0.0928362
0.0927072
0.0925813
0.0924585
0.0923388
0.0922223
0.0921089
0.0919986
0.0918915
0.0917874
0.0916865
0.0915886
0.0914937
0.0914018
0.0913127
0.0912264
0.0911428
0.0910617
0.0909831
0.0909065
0.0908326
0.090762
0.090695
0.0906311
0.0905699
0.0905112
0.0904549
0.0904008
0.0903488
0.0902989
0.0902511
0.0902054
0.090162
0.0901208
0.0900819
0.0900455
0.0900116
0.0899802
0.0899515
0.0899254
0.0899021
0.0898815
0.0898635
0.0898483
0.0898357
0.0898256
0.0898179
0.0898125
0.0898093
0.0898081
0.0898088
0.089811
0.0898146
0.0898195
0.0898252
0.0898317
0.0898386
0.0898458
0.0898529
0.0898598
0.0898662
0.0898717
0.0898763
0.0898796
0.0898814
0.0898814
0.0898795
0.0898753
0.0898687
0.0898594
0.089847
0.0898315
0.0898124
0.0897896
0.0897627
0.0897315
0.0896956
0.0896547
0.0896084
0.0895564
0.0894982
0.0894335
0.0893618
0.0892827
0.0891956
0.095113
0.0949438
0.0947769
0.0946122
0.0944499
0.0942899
0.0941324
0.0939774
0.0938251
0.0936755
0.0935287
0.0933847
0.0932437
0.0931056
0.0929705
0.0928384
0.0927094
0.0925835
0.0924607
0.092341
0.0922245
0.0921111
0.0920008
0.0918937
0.0917897
0.0916888
0.0915909
0.091496
0.0914041
0.0913151
0.0912289
0.0911453
0.0910643
0.0909857
0.0909093
0.0908354
0.090765
0.0906981
0.0906343
0.0905732
0.0905147
0.0904586
0.0904046
0.0903528
0.0903031
0.0902555
0.0902101
0.090167
0.090126
0.0900875
0.0900514
0.0900177
0.0899867
0.0899583
0.0899325
0.0899095
0.0898891
0.0898714
0.0898564
0.089844
0.0898341
0.0898266
0.0898213
0.0898182
0.089817
0.0898175
0.0898196
0.089823
0.0898275
0.0898329
0.0898389
0.0898452
0.0898517
0.089858
0.0898638
0.089869
0.0898733
0.0898764
0.089878
0.0898779
0.0898758
0.0898715
0.0898648
0.0898553
0.0898428
0.089827
0.0898077
0.0897846
0.0897573
0.0897256
0.0896892
0.0896477
0.0896008
0.0895482
0.0894894
0.089424
0.0893517
0.0892719
0.0891842
0.0890882
0.0951153
0.0949461
0.0947791
0.0946144
0.0944521
0.0942921
0.0941346
0.0939797
0.0938274
0.0936778
0.0935309
0.093387
0.0932459
0.0931078
0.0929727
0.0928406
0.0927116
0.0925857
0.0924629
0.0923432
0.0922267
0.0921133
0.0920031
0.0918959
0.0917919
0.091691
0.0915932
0.0914983
0.0914065
0.0913175
0.0912313
0.0911478
0.0910669
0.0909884
0.090912
0.0908382
0.0907679
0.0907011
0.0906375
0.0905766
0.0905183
0.0904623
0.0904085
0.0903569
0.0903075
0.0902602
0.090215
0.0901721
0.0901315
0.0900932
0.0900574
0.0900241
0.0899934
0.0899653
0.0899399
0.0899171
0.0898971
0.0898797
0.089865
0.0898528
0.089843
0.0898357
0.0898305
0.0898274
0.0898262
0.0898267
0.0898286
0.0898318
0.089836
0.0898409
0.0898463
0.089852
0.0898577
0.089863
0.0898678
0.0898717
0.0898745
0.089876
0.0898757
0.0898736
0.0898692
0.0898624
0.0898529
0.0898403
0.0898244
0.0898049
0.0897816
0.0897541
0.0897221
0.0896853
0.0896434
0.0895961
0.0895429
0.0894836
0.0894177
0.0893449
0.0892646
0.0891765
0.08908
0.0889748
0.0951176
0.0949484
0.0947814
0.0946167
0.0944543
0.0942943
0.0941368
0.0939819
0.0938296
0.09368
0.0935332
0.0933892
0.0932482
0.09311
0.0929749
0.0928429
0.0927138
0.0925879
0.0924651
0.0923455
0.0922289
0.0921155
0.0920053
0.0918982
0.0917942
0.0916933
0.0915955
0.0915007
0.0914088
0.0913199
0.0912338
0.0911504
0.0910695
0.090991
0.0909148
0.0908411
0.0907709
0.0907043
0.0906408
0.09058
0.0905219
0.0904661
0.0904125
0.0903612
0.090312
0.0902649
0.0902201
0.0901775
0.0901372
0.0900992
0.0900638
0.0900308
0.0900004
0.0899727
0.0899476
0.0899252
0.0899055
0.0898884
0.0898739
0.0898619
0.0898524
0.0898452
0.0898401
0.0898371
0.0898359
0.0898362
0.089838
0.0898409
0.0898447
0.0898492
0.089854
0.0898589
0.0898637
0.089868
0.0898715
0.0898741
0.0898753
0.089875
0.0898728
0.0898684
0.0898616
0.089852
0.0898394
0.0898235
0.089804
0.0897806
0.089753
0.0897208
0.0896838
0.0896417
0.089594
0.0895406
0.0894809
0.0894146
0.0893413
0.0892607
0.0891722
0.0890755
0.08897
0.0888552
0.0951199
0.0949506
0.0947836
0.0946189
0.0944565
0.0942965
0.0941391
0.0939841
0.0938318
0.0936822
0.0935354
0.0933915
0.0932504
0.0931123
0.0929772
0.0928451
0.0927161
0.0925901
0.0924673
0.0923477
0.0922311
0.0921177
0.0920075
0.0919004
0.0917964
0.0916956
0.0915978
0.091503
0.0914112
0.0913223
0.0912363
0.0911529
0.0910721
0.0909937
0.0909176
0.090844
0.0907739
0.0907074
0.0906441
0.0905835
0.0905256
0.09047
0.0904167
0.0903655
0.0903166
0.0902698
0.0902253
0.090183
0.0901431
0.0901055
0.0900704
0.0900378
0.0900078
0.0899804
0.0899557
0.0899336
0.0899142
0.0898975
0.0898833
0.0898716
0.0898623
0.0898552
0.0898503
0.0898472
0.089846
0.0898462
0.0898478
0.0898504
0.0898538
0.0898577
0.0898619
0.089866
0.0898697
0.0898729
0.0898751
0.0898761
0.0898757
0.0898734
0.089869
0.0898622
0.0898527
0.0898402
0.0898243
0.0898049
0.0897815
0.0897538
0.0897217
0.0896846
0.0896423
0.0895945
0.0895408
0.0894809
0.0894144
0.0893409
0.08926
0.0891713
0.0890743
0.0889687
0.088854
0.0887296
0.0951222
0.0949529
0.0947858
0.0946211
0.0944587
0.0942987
0.0941413
0.0939863
0.0938341
0.0936845
0.0935377
0.0933937
0.0932526
0.0931145
0.0929794
0.0928473
0.0927183
0.0925924
0.0924695
0.0923499
0.0922333
0.09212
0.0920097
0.0919026
0.0917987
0.0916978
0.0916001
0.0915053
0.0914136
0.0913247
0.0912387
0.0911554
0.0910747
0.0909965
0.0909204
0.090847
0.090777
0.0907107
0.0906475
0.0905871
0.0905293
0.090474
0.0904209
0.0903701
0.0903214
0.090275
0.0902307
0.0901888
0.0901492
0.090112
0.0900773
0.0900451
0.0900155
0.0899885
0.0899642
0.0899425
0.0899235
0.089907
0.0898931
0.0898817
0.0898726
0.0898657
0.0898608
0.0898579
0.0898565
0.0898567
0.089858
0.0898603
0.0898632
0.0898665
0.0898699
0.0898731
0.0898758
0.0898776
0.0898784
0.0898778
0.0898754
0.089871
0.0898642
0.0898548
0.0898424
0.0898267
0.0898074
0.0897841
0.0897566