/*--------------------------------*- C++ -*----------------------------------*\
  =========                 |
  \\      /  F ield         | OpenFOAM: The Open Source CFD Toolbox
   \\    /   O peration     | Website:  https://openfoam.org
    \\  /    A nd           | Version:  10
     \\/     M anipulation  |
\*---------------------------------------------------------------------------*/
FoamFile
{
    format      ascii;
    class       volVectorField;
    location    "55000";
    object      U;
}
// * * * * * * * * * * * * * * * * * * * * * * * * * * * * * * * * * * * * * //

dimensions      [0 1 -1 0 0 0 0];

internalField   nonuniform List<vector> 
17808
(
(-1.28225 1.39178 -5.1854e-18)
(-1.58888 1.73319 -5.85221e-19)
(-1.72569 1.88386 3.78553e-18)
(-1.81999 1.98331 4.1052e-18)
(-1.8898 2.05963 -9.68613e-19)
(-1.94581 2.12038 -6.88133e-18)
(-1.99219 2.17101 3.47524e-18)
(-2.03178 2.21432 -3.70943e-18)
(-2.0663 2.25216 6.26924e-18)
(-2.09688 2.28575 -8.22247e-22)
(-2.12432 2.31595 -2.85122e-18)
(-2.1492 2.34336 2.04425e-18)
(-2.17196 2.36847 -2.9399e-18)
(-2.19292 2.39161 3.13451e-19)
(-2.21235 2.41307 0)
(-2.23043 2.43308 2.90137e-19)
(-2.24735 2.45181 -5.59518e-19)
(-2.26324 2.4694 -5.40135e-19)
(-2.27821 2.48599 -2.34829e-18)
(-2.29235 2.50167 1.81576e-21)
(-2.30574 2.51653 1.95776e-18)
(-2.31846 2.53064 0)
(-2.33055 2.54408 1.83976e-18)
(-2.34208 2.55688 -1.78844e-18)
(-2.35308 2.56911 1.73611e-18)
(-2.36359 2.5808 -2.11261e-18)
(-2.37365 2.59199 -4.10931e-19)
(-2.38329 2.60272 0)
(-2.39253 2.613 -3.89856e-19)
(-2.40139 2.62288 -3.79948e-19)
(-2.40991 2.63236 1.4811e-18)
(-2.41809 2.64148 -1.08549e-18)
(-2.42596 2.65025 0)
(-2.43352 2.65869 0)
(-2.4408 2.66681 3.36416e-19)
(-2.44781 2.67462 1.64241e-18)
(-2.45455 2.68214 -9.64696e-19)
(-2.46104 2.68939 0)
(-2.46729 2.69636 -1.22688e-18)
(-2.4733 2.70308 2.1346e-21)
(-2.47909 2.70954 1.76291e-18)
(-2.48466 2.71576 1.72242e-18)
(-2.49002 2.72174 -1.12532e-18)
(-2.49517 2.7275 5.50009e-19)
(-2.50012 2.73303 0)
(-2.50487 2.73834 -5.26799e-19)
(-2.50943 2.74344 1.54583e-18)
(-2.51381 2.74833 -2.02001e-18)
(-2.518 2.75302 4.94077e-19)
(-2.52202 2.7575 0)
(-2.52585 2.76179 0)
(-2.52952 2.76589 1.38922e-18)
(-2.53301 2.7698 -4.54794e-19)
(-2.53633 2.77352 0)
(-2.53949 2.77705 4.34641e-19)
(-2.54248 2.7804 4.25422e-19)
(-2.54531 2.78357 -4.16352e-19)
(-2.54798 2.78656 -4.07428e-19)
(-2.55049 2.78937 -3.98674e-19)
(-2.55285 2.79201 7.78998e-19)
(-2.55504 2.79447 -1.13887e-21)
(-2.55708 2.79675 7.45413e-19)
(-2.55896 2.79887 -7.31341e-19)
(-2.56069 2.80081 -7.14069e-19)
(-2.56227 2.80258 -1.39521e-18)
(-2.56369 2.80417 6.82542e-19)
(-2.56495 2.8056 -1.33549e-18)
(-2.56607 2.80686 1.30402e-18)
(-2.56703 2.80795 0)
(-2.56783 2.80886 6.22386e-19)
(-2.56849 2.80961 1.21461e-18)
(-2.56899 2.81018 -5.95962e-19)
(-2.56933 2.81059 -5.80743e-19)
(-2.56952 2.81082 5.6574e-19)
(-2.56956 2.81089 -1.16689e-21)
(-2.56944 2.81078 -1.61602e-18)
(-2.56917 2.8105 1.05207e-18)
(-2.56874 2.81004 0)
(-2.56816 2.80942 -5.00786e-19)
(-2.56741 2.80862 -1.46218e-18)
(-2.56651 2.80764 0)
(-2.56545 2.80649 0)
(-2.56423 2.80516 9.00732e-19)
(-2.56285 2.80365 0)
(-2.56131 2.80196 8.53873e-19)
(-2.5596 2.8001 0)
(-2.55773 2.79805 -1.41387e-23)
(-2.5557 2.79582 0)
(-2.5535 2.79341 0)
(-2.55113 2.79081 7.43685e-19)
(-2.54859 2.78803 1.4457e-18)
(-2.54589 2.78506 1.40482e-18)
(-1.28197 1.40465 -5.81786e-19)
(-1.58384 1.74592 5.7507e-19)
(-1.72121 1.89334 0)
(-1.81384 1.9928 0)
(-1.88297 2.06856 9.68152e-19)
(-1.93868 2.12871 -4.56653e-19)
(-1.98493 2.17883 3.45551e-18)
(-2.02449 2.22171 -2.86572e-18)
(-2.05903 2.2592 -3.88939e-19)
(-2.08965 2.2925 2.95997e-18)
(-2.11715 2.32247 -3.17802e-18)
(-2.14209 2.3497 6.7506e-19)
(-2.1649 2.37466 3.23269e-19)
(-2.18591 2.39769 -3.10183e-19)
(-2.20538 2.41907 0)
(-2.22351 2.439 -2.86968e-19)
(-2.24047 2.45768 2.76625e-19)
(-2.25638 2.47523 2.67005e-19)
(-2.27138 2.49179 0)
(-2.28554 2.50744 0)
(-2.29895 2.52229 0)
(-2.31168 2.53639 -4.6872e-19)
(-2.32379 2.54982 0)
(-2.33533 2.56262 -4.41657e-19)
(-2.34634 2.57485 0)
(-2.35686 2.58654 4.17441e-19)
(-2.36693 2.59774 4.06301e-19)
(-2.37657 2.60847 0)
(-2.38582 2.61876 -1.54087e-18)
(-2.39469 2.62865 3.77784e-19)
(-2.4032 2.63814 1.10045e-18)
(-2.41139 2.64727 -3.57592e-19)
(-2.41926 2.65605 1.39531e-18)
(-2.42682 2.66449 -3.06797e-18)
(-2.4341 2.67262 1.00001e-18)
(-2.44111 2.68045 -3.25391e-19)
(-2.44785 2.68799 -6.36149e-19)
(-2.45434 2.69524 0)
(-2.46059 2.70223 0)
(-2.4666 2.70895 1.48641e-18)
(-2.47239 2.71543 -1.1653e-18)
(-2.47796 2.72166 -4.60331e-23)
(-2.48331 2.72766 -5.57507e-19)
(-2.48846 2.73342 -1.09135e-18)
(-2.49341 2.73896 -5.33107e-19)
(-2.49816 2.74429 1.57001e-18)
(-2.50272 2.7494 -1.02299e-18)
(-2.50709 2.7543 1.50523e-18)
(-2.51128 2.759 -1.47173e-18)
(-2.51529 2.76349 9.62618e-19)
(-2.51913 2.76779 -9.40457e-19)
(-2.52279 2.7719 9.23157e-19)
(-2.52628 2.77582 -4.51468e-19)
(-2.5296 2.77955 0)
(-2.53276 2.78309 -4.3289e-19)
(-2.53575 2.78645 0)
(-2.53858 2.78962 0)
(-2.54124 2.79262 4.06284e-19)
(-2.54375 2.79544 1.14732e-21)
(-2.5461 2.79808 7.79741e-19)
(-2.54829 2.80055 -7.62026e-19)
(-2.55033 2.80284 7.45735e-19)
(-2.55221 2.80496 0)
(-2.55394 2.80691 0)
(-2.55551 2.80868 1.39558e-18)
(-2.55693 2.81029 -6.83071e-19)
(-2.5582 2.81172 1.33714e-18)
(-2.55931 2.81298 -1.17785e-21)
(-2.56027 2.81407 -6.39655e-19)
(-2.56108 2.81499 0)
(-2.56173 2.81574 -1.21852e-18)
(-2.56223 2.81632 2.38332e-18)
(-2.56258 2.81673 -2.34832e-21)
(-2.56277 2.81696 -2.3495e-21)
(-2.56281 2.81703 -1.16876e-21)
(-2.56269 2.81692 5.40611e-19)
(-2.56242 2.81664 -1.0587e-18)
(-2.562 2.81619 5.15934e-19)
(-2.56141 2.81556 1.00543e-18)
(-2.56067 2.81476 -4.92026e-19)
(-2.55978 2.81378 4.77424e-19)
(-2.55872 2.81263 -1.40076e-18)
(-2.5575 2.8113 1.36278e-18)
(-2.55613 2.80979 -2.33543e-21)
(-2.55459 2.8081 -8.62927e-19)
(-2.55289 2.80623 4.21316e-19)
(-2.55102 2.80418 -1.63613e-18)
(-2.54899 2.80194 0)
(-2.5468 2.79953 0)
(-2.54444 2.79693 -1.50722e-18)
(-2.54191 2.79414 -1.09818e-18)
(-2.53921 2.79116 -7.10249e-19)
(-1.28037 1.41205 1.16391e-18)
(-1.58205 1.75314 9.19216e-18)
(-1.71947 1.89994 -1.73605e-17)
(-1.81052 2.00033 8.19126e-18)
(-1.87905 2.0759 -4.81687e-19)
(-1.93414 2.13597 0)
(-1.97985 2.18599 0)
(-2.01898 2.22875 0)
(-2.05318 2.26611 -5.7825e-18)
(-2.08355 2.29929 5.86975e-18)
(-2.11085 2.32913 3.49547e-19)
(-2.13565 2.35625 1.3041e-22)
(-2.15835 2.38111 5.11476e-18)
(-2.17928 2.40405 -1.0121e-17)
(-2.19869 2.42535 4.71627e-18)
(-2.21677 2.44523 4.25151e-18)
(-2.23369 2.46384 -4.10062e-18)
(-2.24958 2.48135 0)
(-2.26456 2.49787 0)
(-2.27871 2.5135 0)
(-2.29211 2.52832 0)
(-2.30483 2.54241 9.25543e-19)
(-2.31694 2.55582 0)
(-2.32847 2.56861 4.36032e-19)
(-2.33948 2.58083 0)
(-2.35 2.59252 -4.12131e-19)
(-2.36006 2.60372 0)
(-2.3697 2.61445 1.56134e-18)
(-2.37894 2.62474 -1.52328e-18)
(-2.38781 2.63463 3.71024e-19)
(-2.39633 2.64413 -3.61899e-19)
(-2.40451 2.65326 1.76488e-18)
(-2.41238 2.66205 -1.99993e-21)
(-2.41994 2.67051 -1.01121e-18)
(-2.42722 2.67864 9.85991e-19)
(-2.43422 2.68648 -9.6562e-19)
(-2.44096 2.69402 3.14359e-19)
(-2.44745 2.70129 0)
(-2.45369 2.70828 0)
(-2.4597 2.71502 -1.76398e-18)
(-2.46549 2.72151 2.09505e-21)
(-2.47105 2.72775 2.06951e-21)
(-2.4764 2.73375 1.65584e-18)
(-2.48155 2.73953 -1.07897e-18)
(-2.48649 2.74508 5.29831e-19)
(-2.49124 2.75041 0)
(-2.4958 2.75553 0)
(-2.50017 2.76045 0)
(-2.50435 2.76515 1.09622e-21)
(-2.50836 2.76966 4.77626e-19)
(-2.51219 2.77397 0)
(-2.51585 2.77809 4.57214e-19)
(-2.51934 2.78201 -8.94627e-19)
(-2.52266 2.78575 1.31721e-18)
(-2.52581 2.7893 8.58289e-19)
(-2.5288 2.79266 -8.42876e-19)
(-2.53162 2.79585 -8.23286e-19)
(-2.53429 2.79885 4.04827e-19)
(-2.53679 2.80168 -3.95326e-19)
(-2.53914 2.80433 3.8708e-19)
(-2.54133 2.8068 7.57986e-19)
(-2.54337 2.8091 -7.42045e-19)
(-2.54525 2.81123 0)
(-2.54697 2.81318 0)
(-2.54854 2.81496 -1.79711e-23)
(-2.54996 2.81657 -1.3602e-18)
(-2.55123 2.81801 6.67063e-19)
(-2.55234 2.81927 -6.50179e-19)
(-2.5533 2.82037 1.91098e-18)
(-2.55411 2.82129 -1.17276e-21)
(-2.55476 2.82204 6.08901e-19)
(-2.55526 2.82262 -5.95165e-19)
(-2.55561 2.82303 0)
(-2.5558 2.82327 0)
(-2.55584 2.82334 0)
(-2.55573 2.82323 5.409e-19)
(-2.55546 2.82295 -5.30439e-19)
(-2.55503 2.8225 -5.16657e-19)
(-2.55445 2.82187 0)
(-2.55372 2.82107 0)
(-2.55282 2.82009 -1.43846e-18)
(-2.55177 2.81893 2.3411e-18)
(-2.55056 2.8176 -1.30171e-23)
(-2.54918 2.81609 0)
(-2.54765 2.81439 -4.32207e-19)
(-2.54596 2.81252 2.33827e-21)
(-2.5441 2.81047 4.12385e-19)
(-2.54207 2.80823 -8.00781e-19)
(-2.53989 2.80581 -7.79513e-19)
(-2.53753 2.8032 1.13676e-18)
(-2.53501 2.80041 -2.31471e-21)
(-2.53232 2.79743 3.5779e-19)
(-1.27646 1.41654 8.15143e-18)
(-1.57849 1.75773 8.59978e-18)
(-1.71557 1.90522 -9.19292e-18)
(-1.80591 2.0063 5.09536e-19)
(-1.87439 2.08183 0)
(-1.92917 2.14209 0)
(-1.97463 2.19223 0)
(-2.01353 2.23507 6.44659e-18)
(-2.04751 2.27248 -1.22287e-17)
(-2.07768 2.30569 1.16238e-17)
(-2.1048 2.33554 -5.53934e-18)
(-2.12944 2.36266 4.95559e-18)
(-2.15201 2.38751 -5.06166e-18)
(-2.17282 2.41043 3.03149e-19)
(-2.19213 2.43171 4.94856e-18)
(-2.21013 2.45156 -4.20384e-18)
(-2.22699 2.47016 4.31668e-18)
(-2.24282 2.48764 -2.64037e-19)
(-2.25775 2.50414 -4.02698e-18)
(-2.27186 2.51975 -2.43337e-19)
(-2.28522 2.53456 0)
(-2.29792 2.54863 -9.13507e-19)
(-2.31 2.56203 0)
(-2.32151 2.57482 0)
(-2.3325 2.58703 -3.76178e-18)
(-2.343 2.59872 3.25558e-18)
(-2.35305 2.60991 0)
(-2.36268 2.62064 0)
(-2.37191 2.63093 0)
(-2.38077 2.64082 -7.32486e-19)
(-2.38928 2.65033 3.57274e-19)
(-2.39745 2.65946 0)
(-2.40531 2.66825 0)
(-2.41287 2.67671 0)
(-2.42014 2.68486 -1.94753e-18)
(-2.42714 2.6927 2.86041e-18)
(-2.43387 2.70025 0)
(-2.44035 2.70753 0)
(-2.44659 2.71453 0)
(-2.4526 2.72127 2.61482e-18)
(-2.45838 2.72777 -4.13943e-21)
(-2.46394 2.73402 -5.57182e-18)
(-2.46928 2.74003 3.81876e-18)
(-2.47442 2.74582 -1.60475e-18)
(-2.47936 2.75138 0)
(-2.48411 2.75672 5.12468e-19)
(-2.48866 2.76185 2.00593e-18)
(-2.49303 2.76677 -1.96939e-18)
(-2.49721 2.77149 -4.81853e-19)
(-2.50121 2.776 2.35832e-18)
(-2.50504 2.78032 -9.28392e-19)
(-2.50869 2.78445 -9.08651e-19)
(-2.51218 2.78838 -8.89272e-19)
(-2.51549 2.79212 -1.10882e-21)
(-2.51864 2.79568 -1.2801e-18)
(-2.52162 2.79906 0)
(-2.52445 2.80225 4.08116e-19)
(-2.52711 2.80526 -8.02921e-19)
(-2.52961 2.80809 -1.17703e-18)
(-2.53196 2.81075 3.85798e-19)
(-2.53415 2.81323 7.53501e-19)
(-2.53618 2.81554 1.13285e-21)
(-2.53806 2.81767 2.28819e-21)
(-2.53978 2.81962 7.08607e-19)
(-2.54135 2.82141 -6.9258e-19)
(-2.54277 2.82302 6.77892e-19)
(-2.54403 2.82446 0)
(-2.54514 2.82573 -6.48022e-19)
(-2.5461 2.82683 -6.32812e-19)
(-2.54691 2.82775 1.15653e-21)
(-2.54756 2.82851 -1.21405e-18)
(-2.54806 2.82909 1.18942e-18)
(-2.54841 2.8295 0)
(-2.54861 2.82974 -1.17007e-21)
(-2.54865 2.82981 -1.11075e-18)
(-2.54854 2.82971 5.4203e-19)
(-2.54827 2.82943 5.2946e-19)
(-2.54785 2.82897 5.17047e-19)
(-2.54727 2.82834 0)
(-2.54654 2.82754 0)
(-2.54565 2.82656 9.61753e-19)
(-2.5446 2.8254 -1.87663e-18)
(-2.54339 2.82407 -9.1523e-19)
(-2.54202 2.82255 8.92469e-19)
(-2.54049 2.82086 1.30392e-18)
(-2.5388 2.81898 4.22825e-19)
(-2.53695 2.81692 8.26291e-19)
(-2.53493 2.81468 4.01293e-19)
(-2.53275 2.81225 7.81545e-19)
(-2.5304 2.80964 -3.82762e-19)
(-2.52789 2.80684 3.70261e-19)
(-2.52521 2.80386 -2.33483e-21)
(-1.2725 1.42085 9.88989e-18)
(-1.57439 1.76206 -9.15531e-18)
(-1.71077 1.91047 -8.07639e-18)
(-1.80068 2.01188 1.52045e-17)
(-1.86906 2.08748 -7.14898e-18)
(-1.92359 2.14797 7.61923e-18)
(-1.96889 2.19824 -1.3524e-17)
(-2.00765 2.24118 3.66446e-21)
(-2.0415 2.27867 6.05749e-18)
(-2.07154 2.31194 0)
(-2.09856 2.34184 0)
(-2.12309 2.36899 -3.26856e-19)
(-2.14556 2.39386 -3.1264e-19)
(-2.16628 2.41681 2.99632e-19)
(-2.18551 2.4381 5.19248e-23)
(-2.20343 2.45795 -2.76686e-19)
(-2.22022 2.47655 -5.32998e-19)
(-2.23599 2.49404 -3.0366e-23)
(-2.25086 2.51054 0)
(-2.26492 2.52615 2.40132e-19)
(-2.27825 2.54095 3.71817e-18)
(-2.2909 2.55502 -3.15661e-18)
(-2.30295 2.56842 0)
(-2.31443 2.5812 3.81905e-18)
(-2.32539 2.59341 -2.88992e-18)
(-2.33587 2.60509 -3.20818e-18)
(-2.3459 2.61629 3.1261e-18)
(-2.3555 2.62702 3.80334e-19)
(-2.36472 2.63732 0)
(-2.37356 2.64721 3.61393e-19)
(-2.38205 2.65671 0)
(-2.39022 2.66585 0)
(-2.39806 2.67465 -2.68613e-18)
(-2.40561 2.68311 2.29966e-18)
(-2.41287 2.69126 -6.41558e-19)
(-2.41985 2.69911 -2.50676e-18)
(-2.42658 2.70667 2.14867e-18)
(-2.43305 2.71395 -2.99978e-19)
(-2.43928 2.72096 -2.34618e-18)
(-2.44528 2.72772 2.30025e-18)
(-2.45105 2.73422 -2.24775e-18)
(-2.4566 2.74048 2.75562e-18)
(-2.46195 2.7465 -2.15519e-18)
(-2.46708 2.75229 4.15882e-21)
(-2.47201 2.75786 3.62223e-18)
(-2.47675 2.76321 -2.53695e-18)
(-2.4813 2.76835 0)
(-2.48566 2.77328 1.94489e-18)
(-2.48984 2.778 -1.91017e-18)
(-2.49384 2.78253 0)
(-2.49766 2.78685 -4.58159e-19)
(-2.50131 2.79099 8.98097e-19)
(-2.50479 2.79493 -1.75827e-18)
(-2.5081 2.79868 3.88222e-18)
(-2.51124 2.80224 -1.27049e-18)
(-2.51422 2.80563 -4.14333e-19)
(-2.51704 2.80883 2.02809e-18)
(-2.5197 2.81184 7.91397e-19)
(-2.5222 2.81468 3.8546e-19)
(-2.52455 2.81735 -4.49708e-21)
(-2.52673 2.81983 -4.49196e-18)
(-2.52876 2.82214 -7.28906e-19)
(-2.53064 2.82428 4.54858e-21)
(-2.53236 2.82624 1.40958e-18)
(-2.53393 2.82803 -2.06497e-18)
(-2.53535 2.82965 -1.34489e-18)
(-2.53661 2.83109 3.46103e-21)
(-2.53772 2.83237 6.47804e-19)
(-2.53868 2.83347 -6.31735e-19)
(-2.53948 2.8344 1.23981e-18)
(-2.54014 2.83515 0)
(-2.54064 2.83574 -1.18432e-18)
(-2.54099 2.83615 5.8088e-19)
(-2.54119 2.83639 1.17804e-21)
(-2.54123 2.83646 1.10953e-18)
(-2.54112 2.83636 -5.41665e-19)
(-2.54085 2.83608 0)
(-2.54043 2.83562 -1.03426e-18)
(-2.53986 2.83499 0)
(-2.53913 2.83419 -9.86511e-19)
(-2.53824 2.83321 0)
(-2.53719 2.83205 4.71228e-19)
(-2.53599 2.83071 4.59851e-19)
(-2.53463 2.82919 -1.34123e-18)
(-2.5331 2.82749 -4.35256e-19)
(-2.53142 2.82561 -1.27547e-18)
(-2.52957 2.82355 -4.13652e-19)
(-2.52756 2.82131 8.08565e-19)
(-2.52539 2.81887 -3.92715e-19)
(-2.52305 2.81626 7.69678e-19)
(-2.52054 2.81345 -3.72435e-19)
(-2.51787 2.81046 -1.09232e-18)
(-1.26874 1.4253 0)
(-1.57031 1.76661 0)
(-1.70593 1.91586 8.04509e-18)
(-1.79556 2.01743 -3.82696e-21)
(-1.86373 2.09322 -8.04995e-18)
(-1.91798 2.1539 6.6722e-18)
(-1.9631 2.20427 -6.28795e-18)
(-2.00169 2.24731 0)
(-2.03539 2.28488 -3.74803e-19)
(-2.06531 2.31822 -6.04654e-18)
(-2.0922 2.34817 5.42012e-18)
(-2.11663 2.37537 6.46166e-19)
(-2.139 2.40028 3.08877e-19)
(-2.15963 2.42325 -5.3254e-18)
(-2.17878 2.44456 4.26306e-18)
(-2.19663 2.46444 2.73126e-19)
(-2.21334 2.48305 2.63035e-19)
(-2.22905 2.50055 4.56481e-18)
(-2.24386 2.51706 -3.67892e-21)
(-2.25787 2.53267 -7.58151e-18)
(-2.27114 2.54748 3.67161e-18)
(-2.28376 2.56155 0)
(-2.29576 2.57496 -3.44818e-18)
(-2.3072 2.58774 3.7334e-21)
(-2.31813 2.59996 3.25723e-18)
(-2.32858 2.61165 3.95762e-19)
(-2.33858 2.62284 3.07951e-18)
(-2.34816 2.63358 -6.75234e-18)
(-2.35735 2.64388 5.84924e-18)
(-2.36617 2.65377 -3.80611e-21)
(-2.37464 2.66329 -3.132e-18)
(-2.38279 2.67243 0)
(-2.39062 2.68123 0)
(-2.39815 2.6897 3.23903e-19)
(-2.40539 2.69786 3.16574e-19)
(-2.41237 2.70571 -6.19036e-19)
(-2.41908 2.71328 9.49526e-24)
(-2.42554 2.72057 2.96177e-19)
(-2.43176 2.72758 0)
(-2.43775 2.73434 -2.55145e-18)
(-2.44351 2.74085 1.66877e-18)
(-2.44905 2.74712 -2.17432e-18)
(-2.45439 2.75315 2.6667e-18)
(-2.45951 2.75895 2.08632e-18)
(-2.46444 2.76453 -2.04826e-18)
(-2.46917 2.76989 0)
(-2.47371 2.77503 0)
(-2.47806 2.77997 0)
(-2.48224 2.7847 0)
(-2.48623 2.78923 -4.6269e-19)
(-2.49005 2.79357 -1.35864e-18)
(-2.49369 2.79771 1.33619e-18)
(-2.49716 2.80166 0)
(-2.50047 2.80542 -4.27402e-19)
(-2.50361 2.80899 -1.6739e-18)
(-2.50659 2.81238 2.05614e-18)
(-2.5094 2.81558 4.027e-19)
(-2.51206 2.81861 -1.14504e-23)
(-2.51456 2.82145 3.8695e-19)
(-2.5169 2.82412 0)
(-2.51908 2.82661 7.43446e-19)
(-2.52111 2.82893 0)
(-2.52298 2.83107 0)
(-2.5247 2.83304 -2.09612e-18)
(-2.52627 2.83483 3.4262e-18)
(-2.52768 2.83645 -6.73488e-19)
(-2.52895 2.8379 6.57395e-19)
(-2.53006 2.83918 0)
(-2.53101 2.84028 6.30292e-19)
(-2.53182 2.84121 6.14701e-19)
(-2.53247 2.84197 -2.4157e-18)
(-2.53298 2.84256 1.18433e-18)
(-2.53333 2.84298 0)
(-2.53352 2.84322 0)
(-2.53357 2.84329 5.5322e-19)
(-2.53346 2.84318 0)
(-2.5332 2.8429 5.28841e-19)
(-2.53278 2.84245 -5.14532e-19)
(-2.53221 2.84182 1.01254e-18)
(-2.53148 2.84101 -4.92259e-19)
(-2.5306 2.84003 1.44707e-18)
(-2.52955 2.83887 0)
(-2.52836 2.83753 -4.5827e-19)
(-2.527 2.83601 4.49607e-19)
(-2.52548 2.83431 0)
(-2.5238 2.83242 -4.28015e-19)
(-2.52196 2.83036 1.24764e-18)
(-2.51996 2.82811 0)
(-2.51779 2.82567 0)
(-2.51546 2.82305 -1.15537e-18)
(-2.51296 2.82023 1.87906e-18)
(-2.51029 2.81723 7.31594e-19)
(-1.26484 1.42962 0)
(-1.56602 1.77121 -5.69634e-19)
(-1.7009 1.92122 5.3413e-19)
(-1.79034 2.02294 5.0129e-19)
(-1.85825 2.09895 7.0514e-18)
(-1.91228 2.1598 -7.06547e-18)
(-1.95723 2.2103 1.33965e-22)
(-1.99565 2.25345 -6.26995e-18)
(-2.02921 2.29111 6.30765e-18)
(-2.05899 2.32452 -5.62944e-18)
(-2.08576 2.35454 1.07142e-17)
(-2.11007 2.38179 -3.23051e-19)
(-2.13234 2.40675 -3.77474e-21)
(-2.15288 2.42976 -4.67825e-18)
(-2.17193 2.45111 0)
(-2.1897 2.47101 0)
(-2.20634 2.48965 4.15131e-18)
(-2.22198 2.50717 -8.25985e-18)
(-2.23673 2.5237 3.86889e-18)
(-2.25068 2.53933 -3.73697e-18)
(-2.2639 2.55415 3.62094e-18)
(-2.27646 2.56824 0)
(-2.28842 2.58165 -3.40004e-18)
(-2.29982 2.59445 2.47907e-18)
(-2.31071 2.60667 3.20786e-18)
(-2.32112 2.61837 -3.51365e-18)
(-2.33109 2.62957 0)
(-2.34064 2.64031 3.69875e-19)
(-2.3498 2.65062 0)
(-2.3586 2.66052 0)
(-2.36704 2.67004 3.42972e-19)
(-2.37517 2.67919 -2.67653e-18)
(-2.38297 2.688 2.61782e-18)
(-2.39048 2.69648 -2.23454e-18)
(-2.39771 2.70464 2.50033e-18)
(-2.40467 2.7125 6.10765e-19)
(-2.41137 2.72007 -2.08907e-18)
(-2.41781 2.72737 4.3844e-18)
(-2.42402 2.73439 -2.29069e-18)
(-2.43 2.74116 2.80098e-19)
(-2.43575 2.74768 1.09716e-18)
(-2.44128 2.75395 -2.14729e-18)
(-2.4466 2.75999 1.58123e-18)
(-2.45172 2.7658 0)
(-2.45663 2.77138 1.01099e-18)
(-2.46136 2.77675 0)
(-2.46589 2.7819 1.45498e-18)
(-2.47023 2.78685 -4.80295e-19)
(-2.4744 2.79159 -1.86944e-18)
(-2.47838 2.79613 4.57754e-19)
(-2.48219 2.80047 0)
(-2.48583 2.80462 0)
(-2.4893 2.80857 0)
(-2.4926 2.81234 4.23293e-19)
(-2.49574 2.81592 -1.65823e-18)
(-2.49871 2.81931 3.25649e-18)
(-2.50152 2.82253 -3.59254e-18)
(-2.50417 2.82556 -3.8704e-19)
(-2.50667 2.82841 7.69791e-19)
(-2.509 2.83108 -1.50298e-18)
(-2.51118 2.83358 4.44694e-21)
(-2.51321 2.8359 1.44887e-18)
(-2.51508 2.83805 7.09006e-19)
(-2.5168 2.84002 6.94926e-19)
(-2.51836 2.84182 0)
(-2.51978 2.84344 1.9997e-18)
(-2.52104 2.8449 -4.55903e-21)
(-2.52215 2.84617 -1.28327e-18)
(-2.5231 2.84728 -6.27351e-19)
(-2.52391 2.84822 0)
(-2.52456 2.84898 0)
(-2.52507 2.84957 -5.88913e-19)
(-2.52542 2.84998 0)
(-2.52562 2.85023 -5.64105e-19)
(-2.52566 2.8503 -1.65348e-18)
(-2.52556 2.85019 5.446e-19)
(-2.52529 2.84991 -5.23367e-19)
(-2.52488 2.84946 1.03502e-18)
(-2.52431 2.84883 -5.04763e-19)
(-2.52359 2.84802 9.86693e-19)
(-2.52271 2.84704 -9.64138e-19)
(-2.52167 2.84587 0)
(-2.52048 2.84453 0)
(-2.51912 2.84301 8.9821e-19)
(-2.51761 2.8413 0)
(-2.51594 2.83941 8.55731e-19)
(-2.5141 2.83734 -1.66984e-18)
(-2.51211 2.83509 0)
(-2.50995 2.83264 7.94185e-19)
(-2.50762 2.83001 0)
(-2.50513 2.8272 -7.54649e-19)
(-2.50247 2.82419 0)
(-1.26075 1.43383 9.87226e-18)
(-1.56142 1.77581 1.02229e-17)
(-1.69558 1.92653 -1.70202e-17)
(-1.78485 2.0284 3.76355e-21)
(-1.8525 2.10467 8.40596e-18)
(-1.90633 2.16568 -7.44175e-18)
(-1.95111 2.21631 -4.07649e-19)
(-1.98939 2.25958 6.212e-18)
(-2.02281 2.29735 6.23736e-18)
(-2.05247 2.33084 -1.07892e-17)
(-2.07913 2.36094 3.34802e-19)
(-2.10334 2.38826 4.73339e-18)
(-2.12551 2.41327 0)
(-2.14596 2.43634 2.88504e-19)
(-2.16493 2.45773 2.76809e-19)
(-2.18262 2.47767 0)
(-2.19918 2.49635 4.09506e-18)
(-2.21476 2.5139 -3.69578e-21)
(-2.22944 2.53045 -3.57686e-18)
(-2.24333 2.54611 2.30415e-19)
(-2.25649 2.56095 0)
(-2.269 2.57506 -3.02323e-18)
(-2.28091 2.58849 2.93601e-18)
(-2.29226 2.6013 -2.9119e-23)
(-2.30311 2.61354 -3.16186e-18)
(-2.31348 2.62525 3.46327e-18)
(-2.32341 2.63646 0)
(-2.33293 2.64722 0)
(-2.34206 2.65754 -2.48537e-18)
(-2.35082 2.66745 3.73489e-21)
(-2.35924 2.67697 2.70671e-18)
(-2.36734 2.68614 0)
(-2.37512 2.69495 -2.5773e-18)
(-2.38261 2.70344 2.20718e-18)
(-2.38982 2.71161 -2.15394e-18)
(-2.39676 2.71948 2.11025e-18)
(-2.40343 2.72706 -2.94657e-19)
(-2.40986 2.73436 -2.01656e-18)
(-2.41606 2.7414 2.26019e-18)
(-2.42201 2.74817 0)
(-2.42775 2.75469 2.16379e-18)
(-2.43327 2.76098 -2.1237e-18)
(-2.43858 2.76702 0)
(-2.44368 2.77284 0)
(-2.44859 2.77843 -2.49445e-18)
(-2.4533 2.78381 1.47048e-18)
(-2.45782 2.78897 2.3976e-18)
(-2.46216 2.79392 -3.29426e-18)
(-2.46632 2.79867 1.84814e-18)
(-2.4703 2.80321 0)
(-2.4741 2.80756 0)
(-2.47773 2.81172 2.17521e-18)
(-2.48119 2.81568 -1.7107e-18)
(-2.48449 2.81945 -4.18994e-19)
(-2.48762 2.82304 0)
(-2.49058 2.82644 -2.01367e-18)
(-2.49339 2.82966 4.32104e-21)
(-2.49604 2.8327 1.16588e-18)
(-2.49853 2.83555 2.28061e-18)
(-2.50086 2.83823 -1.86795e-18)
(-2.50304 2.84074 7.31901e-19)
(-2.50506 2.84306 0)
(-2.50693 2.84521 -1.48403e-23)
(-2.50864 2.84719 0)
(-2.5102 2.84899 6.76451e-19)
(-2.51162 2.85062 6.60819e-19)
(-2.51287 2.85208 -1.30206e-18)
(-2.51398 2.85336 6.36879e-19)
(-2.51494 2.85447 6.24038e-19)
(-2.51574 2.8554 6.11362e-19)
(-2.5164 2.85617 -1.1954e-18)
(-2.5169 2.85676 1.76179e-18)
(-2.51725 2.85718 0)
(-2.51745 2.85742 5.62237e-19)
(-2.5175 2.85749 -5.50321e-19)
(-2.5174 2.85739 -1.07712e-18)
(-2.51714 2.85711 -5.26939e-19)
(-2.51673 2.85665 0)
(-2.51616 2.85602 5.0413e-19)
(-2.51544 2.85521 0)
(-2.51456 2.85423 9.63727e-19)
(-2.51353 2.85306 0)
(-2.51234 2.85171 0)
(-2.51099 2.85019 -8.96656e-19)
(-2.50949 2.84848 2.37311e-21)
(-2.50782 2.84659 8.57245e-19)
(-2.50599 2.84451 9.23307e-24)
(-2.504 2.84225 -8.16581e-19)
(-2.50185 2.8398 -7.96676e-19)
(-2.49953 2.83717 -1.55169e-18)
(-2.49705 2.83434 7.60059e-19)
(-2.4944 2.83133 0)
(-1.25653 1.43801 -9.86107e-18)
(-1.55656 1.7805 8.49821e-18)
(-1.69004 1.93186 0)
(-1.77912 2.03392 7.92422e-18)
(-1.84649 2.11044 -8.34391e-18)
(-1.90014 2.17161 -8.50677e-23)
(-1.94476 2.22238 6.11483e-18)
(-1.98289 2.26578 -3.91668e-21)
(-2.01618 2.30364 -6.53645e-18)
(-2.04572 2.33723 0)
(-2.07228 2.36741 -3.26935e-19)
(-2.09639 2.3948 -4.9825e-18)
(-2.11847 2.41988 4.76205e-18)
(-2.13883 2.443 0)
(-2.15772 2.46445 -2.73057e-19)
(-2.17533 2.48444 -2.62387e-19)
(-2.19183 2.50315 0)
(-2.20733 2.52074 -3.64909e-18)
(-2.22195 2.53733 7.28353e-18)
(-2.23578 2.55302 -7.49435e-18)
(-2.24889 2.56789 7.03306e-18)
(-2.26135 2.58202 -4.29516e-19)
(-2.2732 2.59547 -2.89326e-18)
(-2.28451 2.6083 4.00999e-19)
(-2.29531 2.62056 0)
(-2.30564 2.63229 -3.78952e-19)
(-2.31553 2.64352 0)
(-2.32501 2.65429 3.23133e-18)
(-2.33411 2.66462 -3.15298e-18)
(-2.34284 2.67454 2.72981e-18)
(-2.35123 2.68408 -5.33113e-18)
(-2.3593 2.69326 2.92964e-18)
(-2.36705 2.70208 0)
(-2.37452 2.71058 2.48244e-18)
(-2.3817 2.71876 -5.46496e-18)
(-2.38862 2.72664 2.37749e-18)
(-2.39527 2.73423 -6.25355e-25)
(-2.40168 2.74154 0)
(-2.40786 2.74858 -2.5038e-18)
(-2.4138 2.75537 3.87359e-21)
(-2.41952 2.7619 1.60452e-18)
(-2.42502 2.76819 0)
(-2.43032 2.77425 -2.04988e-18)
(-2.43541 2.78007 2.51608e-18)
(-2.4403 2.78567 0)
(-2.445 2.79105 8.39648e-24)
(-2.44951 2.79622 -1.89413e-18)
(-2.45384 2.80118 3.25455e-18)
(-2.45799 2.80594 -2.28232e-18)
(-2.46195 2.81049 0)
(-2.46575 2.81485 4.38908e-19)
(-2.46937 2.81901 -4.30628e-19)
(-2.47283 2.82298 0)
(-2.47611 2.82676 -1.65611e-18)
(-2.47924 2.83035 1.62915e-18)
(-2.4822 2.83376 3.99116e-19)
(-2.485 2.83698 0)
(-2.48764 2.84003 7.68448e-19)
(-2.49013 2.84289 -3.76975e-19)
(-2.49245 2.84557 7.51687e-24)
(-2.49463 2.84808 7.23437e-19)
(-2.49665 2.85041 -1.42582e-18)
(-2.49851 2.85257 -6.98203e-19)
(-2.50022 2.85455 -6.84772e-19)
(-2.50178 2.85636 -6.71556e-19)
(-2.50319 2.85799 0)
(-2.50445 2.85945 6.45631e-19)
(-2.50556 2.86073 -6.32942e-19)
(-2.50651 2.86184 -1.2408e-18)
(-2.50732 2.86278 -6.08031e-19)
(-2.50797 2.86355 -1.18932e-18)
(-2.50848 2.86414 1.75349e-18)
(-2.50883 2.86456 -1.14131e-18)
(-2.50903 2.86481 5.62338e-19)
(-2.50908 2.86488 1.64283e-18)
(-2.50897 2.86477 -5.39201e-19)
(-2.50872 2.86449 5.25517e-19)
(-2.50831 2.86404 -1.02621e-18)
(-2.50775 2.8634 1.0087e-18)
(-2.50703 2.86259 0)
(-2.50616 2.8616 -1.92548e-18)
(-2.50513 2.86044 -9.41315e-19)
(-2.50394 2.85909 9.20156e-19)
(-2.5026 2.85756 -1.79852e-18)
(-2.5011 2.85584 8.78625e-19)
(-2.49944 2.85395 -1.7141e-18)
(-2.49762 2.85187 1.67862e-18)
(-2.49564 2.8496 8.41784e-24)
(-2.49349 2.84715 7.96277e-19)
(-2.49118 2.84451 -2.37635e-21)
(-2.48871 2.84168 -7.60263e-19)
(-2.48607 2.83866 7.39083e-19)
(-1.25218 1.44222 -9.27294e-18)
(-1.55148 1.7853 -9.03454e-18)
(-1.6843 1.93726 3.59349e-21)
(-1.77317 2.03953 1.57517e-17)
(-1.84027 2.1163 -6.90069e-18)
(-1.89373 2.17764 7.31439e-18)
(-1.93818 2.22855 -6.05979e-18)
(-1.97616 2.27206 0)
(-2.00933 2.31004 3.58951e-19)
(-2.03876 2.34372 5.09821e-18)
(-2.0652 2.37398 -4.84623e-18)
(-2.08922 2.40145 6.15129e-19)
(-2.11121 2.42659 2.93638e-19)
(-2.13148 2.44978 -4.21201e-18)
(-2.1503 2.47128 4.58057e-18)
(-2.16784 2.49132 4.39618e-18)
(-2.18426 2.51008 -3.98472e-18)
(-2.1997 2.52771 3.83667e-18)
(-2.21426 2.54433 -3.70654e-18)
(-2.22802 2.56006 -2.23791e-19)
(-2.24108 2.57496 -3.4629e-18)
(-2.25348 2.58912 3.35838e-18)
(-2.26529 2.6026 4.06929e-19)
(-2.27655 2.61546 -3.95041e-19)
(-2.2873 2.62774 0)
(-2.29759 2.63949 -2.98447e-18)
(-2.30744 2.65074 2.9083e-18)
(-2.31688 2.66152 -3.53855e-19)
(-2.32594 2.67187 0)
(-2.33464 2.68181 3.0255e-18)
(-2.34299 2.69137 -2.95607e-18)
(-2.35103 2.70056 -3.20313e-18)
(-2.35876 2.7094 2.50656e-18)
(-2.36619 2.71791 -2.44611e-18)
(-2.37335 2.7261 2.69462e-18)
(-2.38024 2.73399 0)
(-2.38687 2.74159 2.86382e-19)
(-2.39326 2.74891 2.80335e-19)
(-2.39942 2.75597 -1.64509e-18)
(-2.40534 2.76276 4.30184e-18)
(-2.41104 2.7693 -5.30684e-19)
(-2.41653 2.7756 -3.61402e-18)
(-2.42181 2.78166 2.02621e-18)
(-2.42688 2.7875 9.90332e-19)
(-2.43176 2.79311 -1.94801e-18)
(-2.43645 2.7985 4.77146e-19)
(-2.44095 2.80367 1.87009e-18)
(-2.44526 2.80864 -9.20263e-19)
(-2.4494 2.8134 2.25029e-18)
(-2.45335 2.81797 -1.32802e-18)
(-2.45714 2.82233 -7.01099e-24)
(-2.46075 2.8265 0)
(-2.4642 2.83047 -1.66881e-18)
(-2.46748 2.83426 2.05191e-18)
(-2.47059 2.83786 0)
(-2.47355 2.84127 0)
(-2.47634 2.8445 1.5482e-18)
(-2.47898 2.84755 -7.65037e-19)
(-2.48146 2.85042 -1.86872e-18)
(-2.48378 2.85311 -1.09693e-18)
(-2.48595 2.85562 1.44024e-18)
(-2.48796 2.85796 -7.05561e-19)
(-2.48983 2.86012 6.90104e-19)
(-2.49153 2.86211 -6.81401e-19)
(-2.49309 2.86392 -1.33041e-18)
(-2.4945 2.86555 1.30941e-18)
(-2.49575 2.86701 -1.28209e-18)
(-2.49686 2.8683 0)
(-2.49781 2.86942 2.46347e-18)
(-2.49862 2.87036 -1.21097e-18)
(-2.49927 2.87113 -1.18258e-18)
(-2.49978 2.87172 5.82922e-19)
(-2.50013 2.87214 0)
(-2.50033 2.87239 5.57501e-19)
(-2.50038 2.87246 0)
(-2.50028 2.87235 5.34879e-19)
(-2.50003 2.87207 5.21443e-19)
(-2.49962 2.87162 -1.0279e-18)
(-2.49906 2.87098 0)
(-2.49835 2.87017 4.91185e-19)
(-2.49748 2.86918 1.9223e-18)
(-2.49646 2.86801 9.40175e-19)
(-2.49528 2.86665 -9.19439e-19)
(-2.49394 2.86512 9.27055e-24)
(-2.49245 2.8634 0)
(-2.49079 2.8615 -8.58687e-19)
(-2.48898 2.85942 -2.38025e-21)
(-2.487 2.85715 -2.37674e-21)
(-2.48487 2.85469 0)
(-2.48257 2.85204 -7.8114e-19)
(-2.4801 2.8492 1.52237e-18)
(-2.47747 2.84617 -2.3927e-21)
(-1.24771 1.44646 -9.2627e-18)
(-1.54618 1.79021 -9.0068e-18)
(-1.67836 1.94274 1.67737e-17)
(-1.76699 2.04525 -7.82618e-18)
(-1.83382 2.12226 0)
(-1.88709 2.18377 0)
(-1.93137 2.23483 0)
(-1.96921 2.27846 6.01531e-18)
(-2.00224 2.31654 -5.67999e-18)
(-2.03156 2.35032 3.35897e-19)
(-2.0579 2.38067 5.10064e-18)
(-2.08181 2.40821 -3.07306e-19)
(-2.10371 2.43343 -9.55971e-18)
(-2.12391 2.45667 4.15798e-18)
(-2.14264 2.47823 -5.31128e-19)
(-2.16011 2.49832 4.33355e-18)
(-2.17646 2.51713 2.41706e-19)
(-2.19183 2.53481 -4.02043e-18)
(-2.20633 2.55148 0)
(-2.22004 2.56724 3.96607e-18)
(-2.23303 2.58218 -3.41439e-18)
(-2.24538 2.59637 4.13243e-19)
(-2.25714 2.60988 -4.00714e-19)
(-2.26835 2.62277 3.8899e-19)
(-2.27906 2.63508 0)
(-2.2893 2.64685 2.93882e-18)
(-2.29911 2.65812 -2.86382e-18)
(-2.30851 2.66893 3.48465e-19)
(-2.31753 2.6793 3.39642e-19)
(-2.32619 2.68926 -6.62498e-19)
(-2.33452 2.69883 2.90757e-18)
(-2.34252 2.70804 -4.73477e-18)
(-2.35022 2.71689 2.46884e-18)
(-2.35762 2.72541 2.10807e-18)
(-2.36475 2.73362 -4.71588e-18)
(-2.37162 2.74153 2.30855e-18)
(-2.37823 2.74914 2.82184e-19)
(-2.38459 2.75647 -2.76252e-19)
(-2.39072 2.76354 2.16243e-18)
(-2.39662 2.77034 -1.85704e-18)
(-2.40231 2.7769 -1.03686e-18)
(-2.40777 2.7832 1.5291e-18)
(-2.41304 2.78928 -4.99068e-19)
(-2.41809 2.79512 1.95554e-18)
(-2.42296 2.80074 -1.92175e-18)
(-2.42763 2.80614 2.35202e-18)
(-2.43211 2.81132 -3.93609e-21)
(-2.43642 2.8163 -4.57171e-19)
(-2.44054 2.82107 -1.78096e-18)
(-2.44449 2.82564 -4.36486e-19)
(-2.44826 2.83001 1.28321e-18)
(-2.45186 2.83419 -1.68412e-18)
(-2.4553 2.83817 -4.12798e-19)
(-2.45857 2.84196 0)
(-2.46168 2.84557 -3.97822e-19)
(-2.46462 2.84899 -1.56013e-18)
(-2.46741 2.85222 1.91917e-18)
(-2.47004 2.85528 2.25633e-18)
(-2.47251 2.85815 -7.41146e-19)
(-2.47483 2.86085 0)
(-2.47699 2.86337 7.12138e-19)
(-2.479 2.86571 2.09488e-18)
(-2.48086 2.86787 -1.37431e-18)
(-2.48257 2.86986 6.73326e-19)
(-2.48412 2.87168 -1.31933e-18)
(-2.48553 2.87331 4.41037e-21)
(-2.48678 2.87478 2.54675e-18)
(-2.48788 2.87607 0)
(-2.48884 2.87719 -8.34966e-24)
(-2.48964 2.87813 1.19848e-18)
(-2.49029 2.8789 -1.17973e-18)
(-2.4908 2.8795 0)
(-2.49115 2.87992 1.69536e-18)
(-2.49135 2.88016 -4.58016e-21)
(-2.49141 2.88024 -1.0894e-18)
(-2.49131 2.88013 5.30257e-19)
(-2.49106 2.87985 -5.24027e-19)
(-2.49065 2.87939 0)
(-2.4901 2.87876 0)
(-2.48939 2.87794 -5.14702e-24)
(-2.48852 2.87695 -9.84384e-24)
(-2.4875 2.87577 9.38435e-19)
(-2.48633 2.87442 -9.18132e-19)
(-2.485 2.87288 2.37447e-21)
(-2.48351 2.87116 4.744e-21)
(-2.48186 2.86925 2.57819e-18)
(-2.48006 2.86716 8.39228e-19)