/*--------------------------------*- C++ -*----------------------------------*\
  =========                 |
  \\      /  F ield         | OpenFOAM: The Open Source CFD Toolbox
   \\    /   O peration     | Website:  https://openfoam.org
    \\  /    A nd           | Version:  10
     \\/     M anipulation  |
\*---------------------------------------------------------------------------*/
FoamFile
{
    format      ascii;
    class       volVectorField;
    location    "55000";
    object      Urel;
}
// * * * * * * * * * * * * * * * * * * * * * * * * * * * * * * * * * * * * * //

dimensions      [0 1 -1 0 0 0 0];

internalField   nonuniform List<vector> 
17808
(
(4.36777 -4.78935 -5.1854e-18)
(4.05761 -4.44409 -5.85221e-19)
(3.91722 -4.28952 3.78553e-18)
(3.81929 -4.18607 4.1052e-18)
(3.74577 -4.1057 -9.68613e-19)
(3.68598 -4.04083 -6.88133e-18)
(3.63577 -3.986 3.47524e-18)
(3.59226 -3.93842 -3.70943e-18)
(3.55377 -3.89622 6.26924e-18)
(3.51915 -3.85821 -8.22247e-22)
(3.48759 -3.82351 -2.85122e-18)
(3.45851 -3.79151 2.04425e-18)
(3.43149 -3.76174 -2.9399e-18)
(3.40619 -3.73385 3.13451e-19)
(3.38235 -3.70756 0)
(3.35977 -3.68264 2.90137e-19)
(3.33827 -3.65891 -5.59518e-19)
(3.31773 -3.63623 -5.40135e-19)
(3.29803 -3.61446 -2.34829e-18)
(3.27907 -3.59351 1.81576e-21)
(3.26077 -3.57329 1.95776e-18)
(3.24307 -3.55371 0)
(3.22589 -3.53473 1.83976e-18)
(3.2092 -3.51627 -1.78844e-18)
(3.19294 -3.49829 1.73611e-18)
(3.17708 -3.48075 -2.11261e-18)
(3.16157 -3.4636 -4.10931e-19)
(3.14639 -3.44681 0)
(3.13151 -3.43036 -3.89856e-19)
(3.11691 -3.4142 -3.79948e-19)
(3.10255 -3.39833 1.4811e-18)
(3.08843 -3.38271 -1.08549e-18)
(3.07451 -3.36733 0)
(3.06079 -3.35216 0)
(3.04725 -3.33719 3.36416e-19)
(3.03387 -3.32241 1.64241e-18)
(3.02064 -3.30779 -9.64696e-19)
(3.00755 -3.29333 0)
(2.99458 -3.27901 -1.22688e-18)
(2.98173 -3.26482 2.1346e-21)
(2.96899 -3.25075 1.76291e-18)
(2.95634 -3.23679 1.72242e-18)
(2.94378 -3.22293 -1.12532e-18)
(2.9313 -3.20916 5.50009e-19)
(2.91889 -3.19547 0)
(2.90655 -3.18186 -5.26799e-19)
(2.89426 -3.16831 1.54583e-18)
(2.88202 -3.15482 -2.02001e-18)
(2.86983 -3.14138 4.94077e-19)
(2.85768 -3.128 0)
(2.84556 -3.11465 0)
(2.83346 -3.10133 1.38922e-18)
(2.82139 -3.08804 -4.54794e-19)
(2.80934 -3.07478 0)
(2.7973 -3.06153 4.34641e-19)
(2.78526 -3.04829 4.25422e-19)
(2.77323 -3.03506 -4.16352e-19)
(2.7612 -3.02183 -4.07428e-19)
(2.74916 -3.0086 -3.98674e-19)
(2.73712 -2.99536 7.78998e-19)
(2.72506 -2.98211 -1.13887e-21)
(2.71298 -2.96885 7.45413e-19)
(2.70088 -2.95556 -7.31341e-19)
(2.68875 -2.94225 -7.14069e-19)
(2.6766 -2.92891 -1.39521e-18)
(2.66441 -2.91554 6.82542e-19)
(2.65219 -2.90213 -1.33549e-18)
(2.63993 -2.88868 1.30402e-18)
(2.62762 -2.87518 0)
(2.61527 -2.86164 6.22386e-19)
(2.60287 -2.84804 1.21461e-18)
(2.59041 -2.83439 -5.95962e-19)
(2.5779 -2.82068 -5.80743e-19)
(2.56533 -2.80691 5.6574e-19)
(2.55269 -2.79306 -1.16689e-21)
(2.53998 -2.77915 -1.61602e-18)
(2.52721 -2.76516 1.05207e-18)
(2.51436 -2.75109 0)
(2.50143 -2.73694 -5.00786e-19)
(2.48843 -2.72271 -1.46218e-18)
(2.47533 -2.70838 0)
(2.46216 -2.69396 0)
(2.44889 -2.67944 9.00732e-19)
(2.43552 -2.66482 0)
(2.42206 -2.6501 8.53873e-19)
(2.40849 -2.63526 0)
(2.39482 -2.62032 -1.41387e-23)
(2.38105 -2.60525 0)
(2.36715 -2.59007 0)
(2.35315 -2.57475 7.43685e-19)
(2.33902 -2.55931 1.4457e-18)
(2.32476 -2.54374 1.40482e-18)
(4.35323 -4.79 -5.81786e-19)
(4.04786 -4.44488 5.7507e-19)
(3.90691 -4.29353 0)
(3.81065 -4.19008 0)
(3.73782 -4.11026 9.68152e-19)
(3.67834 -4.04597 -4.56653e-19)
(3.62826 -3.99164 3.45551e-18)
(3.5848 -3.94448 -2.86572e-18)
(3.54631 -3.90263 -3.88939e-19)
(3.51165 -3.86489 2.95997e-18)
(3.48004 -3.83041 -3.17802e-18)
(3.45092 -3.79858 6.7506e-19)
(3.42385 -3.76895 3.23269e-19)
(3.39851 -3.74116 -3.10183e-19)
(3.37464 -3.71495 0)
(3.35203 -3.69009 -2.86968e-19)
(3.33052 -3.6664 2.76625e-19)
(3.30996 -3.64375 2.67005e-19)
(3.29024 -3.622 0)
(3.27127 -3.60106 0)
(3.25297 -3.58084 0)
(3.23526 -3.56127 -4.6872e-19)
(3.21808 -3.54228 0)
(3.20139 -3.52381 -4.41657e-19)
(3.18514 -3.50582 0)
(3.16928 -3.48826 4.17441e-19)
(3.15378 -3.47109 4.06301e-19)
(3.13861 -3.45429 0)
(3.12374 -3.43781 -1.54087e-18)
(3.10914 -3.42164 3.77784e-19)
(3.0948 -3.40574 1.10045e-18)
(3.08069 -3.3901 -3.57592e-19)
(3.06679 -3.37469 1.39531e-18)
(3.05308 -3.3595 -3.06797e-18)
(3.03955 -3.34451 1.00001e-18)
(3.02619 -3.32969 -3.25391e-19)
(3.01298 -3.31505 -6.36149e-19)
(2.9999 -3.30056 0)
(2.98696 -3.28621 0)
(2.97413 -3.27199 1.48641e-18)
(2.9614 -3.25789 -1.1653e-18)
(2.94878 -3.2439 -4.60331e-23)
(2.93624 -3.23001 -5.57507e-19)
(2.92378 -3.21621 -1.09135e-18)
(2.91139 -3.2025 -5.33107e-19)
(2.89907 -3.18885 1.57001e-18)
(2.8868 -3.17528 -1.02299e-18)
(2.87459 -3.16176 1.50523e-18)
(2.86242 -3.14829 -1.47173e-18)
(2.85029 -3.13488 9.62618e-19)
(2.83819 -3.1215 -9.40457e-19)
(2.82613 -3.10815 9.23157e-19)
(2.81408 -3.09483 -4.51468e-19)
(2.80205 -3.08154 0)
(2.79004 -3.06826 -4.3289e-19)
(2.77803 -3.05499 0)
(2.76603 -3.04173 0)
(2.75402 -3.02847 4.06284e-19)
(2.74201 -3.01521 1.14732e-21)
(2.72999 -3.00194 7.79741e-19)
(2.71796 -2.98866 -7.62026e-19)
(2.70591 -2.97536 7.45735e-19)
(2.69384 -2.96205 0)
(2.68174 -2.94871 0)
(2.66962 -2.93534 1.39558e-18)
(2.65746 -2.92193 -6.83071e-19)
(2.64527 -2.90849 1.33714e-18)
(2.63303 -2.89501 -1.17785e-21)
(2.62076 -2.88148 -6.39655e-19)
(2.60843 -2.86791 0)
(2.59606 -2.85428 -1.21852e-18)
(2.58364 -2.8406 2.38332e-18)
(2.57115 -2.82686 -2.34832e-21)
(2.55861 -2.81305 -2.3495e-21)
(2.54601 -2.79917 -1.16876e-21)
(2.53333 -2.78523 5.40611e-19)
(2.52059 -2.77121 -1.0587e-18)
(2.50777 -2.75711 5.15934e-19)
(2.49488 -2.74293 1.00543e-18)
(2.48191 -2.72866 -4.92026e-19)
(2.46885 -2.7143 4.77424e-19)
(2.4557 -2.69985 -1.40076e-18)
(2.44247 -2.6853 1.36278e-18)
(2.42914 -2.67064 -2.33543e-21)
(2.41571 -2.65589 -8.62927e-19)
(2.40218 -2.64102 4.21316e-19)
(2.38855 -2.62604 -1.63613e-18)
(2.3748 -2.61094 0)
(2.36095 -2.59572 0)
(2.34697 -2.58037 -1.50722e-18)
(2.33288 -2.56489 -1.09818e-18)
(2.31867 -2.54928 -7.10249e-19)
(4.33954 -4.79648 1.16391e-18)
(4.03436 -4.45153 9.19216e-18)
(3.89338 -4.30079 -1.73605e-17)
(3.79871 -4.1964 8.19126e-18)
(3.72649 -4.11676 -4.81687e-19)
(3.66765 -4.05255 0)
(3.61812 -3.99831 0)
(3.5751 -3.95125 0)
(3.53694 -3.90953 -5.7825e-18)
(3.50255 -3.8719 5.86975e-18)
(3.47115 -3.83754 3.49547e-19)
(3.44219 -3.80581 1.3041e-22)
(3.41525 -3.77627 5.11476e-18)
(3.39 -3.74856 -1.0121e-17)
(3.3662 -3.72241 4.71627e-18)
(3.34365 -3.6976 4.25151e-18)
(3.32218 -3.67396 -4.10062e-18)
(3.30166 -3.65134 0)
(3.28197 -3.62962 0)
(3.26303 -3.6087 0)
(3.24475 -3.58849 0)
(3.22706 -3.56892 9.25543e-19)
(3.2099 -3.54993 0)
(3.19323 -3.53146 4.36032e-19)
(3.17699 -3.51346 0)
(3.16115 -3.49589 -4.12131e-19)
(3.14567 -3.47871 0)
(3.13052 -3.4619 1.56134e-18)
(3.11566 -3.4454 -1.52328e-18)
(3.10109 -3.42921 3.71024e-19)
(3.08676 -3.4133 -3.61899e-19)
(3.07267 -3.39763 1.76488e-18)
(3.05878 -3.3822 -1.99993e-21)
(3.0451 -3.36699 -1.01121e-18)
(3.03159 -3.35197 9.85991e-19)
(3.01825 -3.33713 -9.6562e-19)
(3.00506 -3.32246 3.14359e-19)
(2.992 -3.30795 0)
(2.97908 -3.29357 0)
(2.96627 -3.27933 -1.76398e-18)
(2.95357 -3.2652 2.09505e-21)
(2.94096 -3.25118 2.06951e-21)
(2.92844 -3.23727 1.65584e-18)
(2.91601 -3.22344 -1.07897e-18)
(2.90364 -3.20969 5.29831e-19)
(2.89135 -3.19602 0)
(2.8791 -3.18242 0)
(2.86692 -3.16887 0)
(2.85477 -3.15537 1.09622e-21)
(2.84267 -3.14193 4.77626e-19)
(2.8306 -3.12852 0)
(2.81855 -3.11514 4.57214e-19)
(2.80654 -3.10179 -8.94627e-19)
(2.79453 -3.08847 1.31721e-18)
(2.78254 -3.07516 8.58289e-19)
(2.77056 -3.06186 -8.42876e-19)
(2.75859 -3.04857 -8.23286e-19)
(2.74661 -3.03528 4.04827e-19)
(2.73463 -3.02199 -3.95326e-19)
(2.72264 -3.00869 3.8708e-19)
(2.71063 -2.99538 7.57986e-19)
(2.69861 -2.98205 -7.42045e-19)
(2.68657 -2.9687 0)
(2.6745 -2.95533 0)
(2.66241 -2.94193 -1.79711e-23)
(2.65028 -2.92849 -1.3602e-18)
(2.63812 -2.91502 6.67063e-19)
(2.62592 -2.90151 -6.50179e-19)
(2.61367 -2.88795 1.91098e-18)
(2.60138 -2.87435 -1.17276e-21)
(2.58904 -2.86069 6.08901e-19)
(2.57665 -2.84697 -5.95165e-19)
(2.5642 -2.8332 0)
(2.55169 -2.81936 0)
(2.53911 -2.80545 0)
(2.52647 -2.79147 5.409e-19)
(2.51376 -2.77742 -5.30439e-19)
(2.50098 -2.76329 -5.16657e-19)
(2.48812 -2.74907 0)
(2.47518 -2.73477 0)
(2.46216 -2.72038 -1.43846e-18)
(2.44905 -2.70589 2.3411e-18)
(2.43585 -2.69131 -1.30171e-23)
(2.42255 -2.67662 0)
(2.40916 -2.66183 -4.32207e-19)
(2.39567 -2.64693 2.33827e-21)
(2.38207 -2.63191 4.12385e-19)
(2.36836 -2.61678 -8.00781e-19)
(2.35454 -2.60152 -7.79513e-19)
(2.34061 -2.58614 1.13676e-18)
(2.32656 -2.57063 -2.31471e-21)
(2.31238 -2.55498 3.5779e-19)
(4.32768 -4.80624 8.15143e-18)
(4.02216 -4.46118 8.59978e-18)
(3.88153 -4.30975 -9.19292e-18)
(3.78758 -4.20465 5.09536e-19)
(3.71542 -4.12504 0)
(3.65689 -4.06063 0)
(3.60763 -4.00626 0)
(3.56485 -3.95912 6.44659e-18)
(3.52693 -3.91733 -1.22287e-17)
(3.49274 -3.87967 1.16238e-17)
(3.46154 -3.84528 -5.53934e-18)
(3.43274 -3.81355 4.95559e-18)
(3.40594 -3.78401 -5.06166e-18)
(3.38082 -3.75631 3.03149e-19)
(3.35713 -3.73016 4.94856e-18)
(3.33467 -3.70537 -4.20384e-18)
(3.31329 -3.68174 4.31668e-18)
(3.29284 -3.65912 -2.64037e-19)
(3.27321 -3.63741 -4.02698e-18)
(3.25432 -3.6165 -2.43337e-19)
(3.23609 -3.59629 0)
(3.21844 -3.57672 -9.13507e-19)
(3.20133 -3.55773 0)
(3.18469 -3.53926 0)
(3.16848 -3.52125 -3.76178e-18)
(3.15267 -3.50367 3.25558e-18)
(3.13722 -3.48649 0)
(3.12209 -3.46965 0)
(3.10727 -3.45315 0)
(3.09272 -3.43694 -7.32486e-19)
(3.07842 -3.42101 3.57274e-19)
(3.06435 -3.40532 0)
(3.05049 -3.38987 0)
(3.03683 -3.37464 0)
(3.02334 -3.3596 -1.94753e-18)
(3.01002 -3.34474 2.86041e-18)
(2.99686 -3.33004 0)
(2.98383 -3.3155 0)
(2.97093 -3.3011 0)
(2.95814 -3.28683 2.61482e-18)
(2.94546 -3.27268 -4.13943e-21)
(2.93288 -3.25864 -5.57182e-18)
(2.92039 -3.24469 3.81876e-18)
(2.90798 -3.23084 -1.60475e-18)
(2.89564 -3.21706 0)
(2.88337 -3.20336 5.12468e-19)
(2.87115 -3.18973 2.00593e-18)
(2.85899 -3.17615 -1.96939e-18)
(2.84687 -3.16263 -4.81853e-19)
(2.8348 -3.14915 2.35832e-18)
(2.82275 -3.13571 -9.28392e-19)
(2.81074 -3.12231 -9.08651e-19)
(2.79875 -3.10893 -8.89272e-19)
(2.78677 -3.09557 -1.10882e-21)
(2.77481 -3.08223 -1.2801e-18)
(2.76286 -3.06891 0)
(2.75091 -3.05558 4.08116e-19)
(2.73896 -3.04226 -8.02921e-19)
(2.72701 -3.02894 -1.17703e-18)
(2.71505 -3.01561 3.85798e-19)
(2.70308 -3.00227 7.53501e-19)
(2.69108 -2.98891 1.13285e-21)
(2.67907 -2.97553 2.28819e-21)
(2.66704 -2.96213 7.08607e-19)
(2.65497 -2.94869 -6.9258e-19)
(2.64288 -2.93523 6.77892e-19)
(2.63075 -2.92172 0)
(2.61858 -2.90818 -6.48022e-19)
(2.60636 -2.89459 -6.32812e-19)
(2.5941 -2.88095 1.15653e-21)
(2.5818 -2.86726 -1.21405e-18)
(2.56944 -2.85351 1.18942e-18)
(2.55702 -2.83971 0)
(2.54454 -2.82583 -1.17007e-21)
(2.532 -2.81189 -1.11075e-18)
(2.5194 -2.79788 5.4203e-19)
(2.50672 -2.7838 5.2946e-19)
(2.49397 -2.76963 5.17047e-19)
(2.48115 -2.75538 0)
(2.46824 -2.74105 0)
(2.45526 -2.72662 9.61753e-19)
(2.44218 -2.7121 -1.87663e-18)
(2.42902 -2.69748 -9.1523e-19)
(2.41576 -2.68276 8.92469e-19)
(2.4024 -2.66793 1.30392e-18)
(2.38895 -2.653 4.22825e-19)
(2.37539 -2.63795 8.26291e-19)
(2.36172 -2.62278 4.01293e-19)
(2.34794 -2.60749 7.81545e-19)
(2.33404 -2.59207 -3.82762e-19)
(2.32003 -2.57652 3.70261e-19)
(2.30589 -2.56084 -2.33483e-21)
(4.31536 -4.81656 9.88989e-18)
(4.00999 -4.47147 -9.15531e-18)
(3.87007 -4.31911 -8.07639e-18)
(3.77655 -4.21369 1.52045e-17)
(3.7045 -4.13399 -7.14898e-18)
(3.64624 -4.06933 7.61923e-18)
(3.59715 -4.01483 -1.3524e-17)
(3.55452 -3.96758 3.66446e-21)
(3.51674 -3.9257 6.05749e-18)
(3.48269 -3.88797 0)
(3.45161 -3.85352 0)
(3.42293 -3.82174 -3.26856e-19)
(3.39625 -3.79216 -3.1264e-19)
(3.37123 -3.76443 2.99632e-19)
(3.34764 -3.73826 5.19248e-23)
(3.32527 -3.71345 -2.76686e-19)
(3.30396 -3.6898 -5.32998e-19)
(3.28358 -3.66718 -3.0366e-23)
(3.26403 -3.64545 0)
(3.2452 -3.62453 2.40132e-19)
(3.22703 -3.60432 3.71817e-18)
(3.20944 -3.58474 -3.15661e-18)
(3.19237 -3.56574 0)
(3.17578 -3.54725 3.81905e-18)
(3.15961 -3.52923 -2.88992e-18)
(3.14384 -3.51164 -3.20818e-18)
(3.12843 -3.49444 3.1261e-18)
(3.11334 -3.47759 3.80334e-19)
(3.09855 -3.46107 0)
(3.08403 -3.44485 3.61393e-19)
(3.06976 -3.42889 0)
(3.05572 -3.41319 0)
(3.04189 -3.39772 -2.68613e-18)
(3.02826 -3.38246 2.29966e-18)
(3.0148 -3.3674 -6.41558e-19)
(3.00151 -3.35252 -2.50676e-18)
(2.98837 -3.3378 2.14867e-18)
(2.97537 -3.32324 -2.99978e-19)
(2.9625 -3.30881 -2.34618e-18)
(2.94974 -3.29452 2.30025e-18)
(2.93709 -3.28034 -2.24775e-18)
(2.92454 -3.26627 2.75562e-18)
(2.91207 -3.2523 -2.15519e-18)
(2.89969 -3.23842 4.15882e-21)
(2.88738 -3.22461 3.62223e-18)
(2.87513 -3.21089 -2.53695e-18)
(2.86294 -3.19722 0)
(2.85081 -3.18362 1.94489e-18)
(2.83872 -3.17007 -1.91017e-18)
(2.82667 -3.15656 0)
(2.81466 -3.14309 -4.58159e-19)
(2.80267 -3.12965 8.98097e-19)
(2.79071 -3.11625 -1.75827e-18)
(2.77876 -3.10286 3.88222e-18)
(2.76683 -3.08949 -1.27049e-18)
(2.75491 -3.07613 -4.14333e-19)
(2.74299 -3.06278 2.02809e-18)
(2.73107 -3.04943 7.91397e-19)
(2.71915 -3.03608 3.8546e-19)
(2.70722 -3.02271 -4.49708e-21)
(2.69528 -3.00934 -4.49196e-18)
(2.68332 -2.99595 -7.28906e-19)
(2.67134 -2.98254 4.54858e-21)
(2.65933 -2.9691 1.40958e-18)
(2.6473 -2.95564 -2.06497e-18)
(2.63524 -2.94214 -1.34489e-18)
(2.62314 -2.9286 3.46103e-21)
(2.611 -2.91503 6.47804e-19)
(2.59882 -2.9014 -6.31735e-19)
(2.5866 -2.88773 1.23981e-18)
(2.57432 -2.87401 0)
(2.56199 -2.86023 -1.18432e-18)
(2.54961 -2.84639 5.8088e-19)
(2.53717 -2.83248 1.17804e-21)
(2.52467 -2.81851 1.10953e-18)
(2.51209 -2.80446 -5.41665e-19)
(2.49946 -2.79034 0)
(2.48674 -2.77614 -1.03426e-18)
(2.47395 -2.76186 0)
(2.46109 -2.74749 -9.86511e-19)
(2.44813 -2.73303 0)
(2.4351 -2.71847 4.71228e-19)
(2.42197 -2.70382 4.59851e-19)
(2.40875 -2.68906 -1.34123e-18)
(2.39543 -2.6742 -4.35256e-19)
(2.38201 -2.65923 -1.27547e-18)
(2.36849 -2.64414 -4.13652e-19)
(2.35486 -2.62894 8.08565e-19)
(2.34112 -2.61361 -3.92715e-19)
(2.32727 -2.59815 7.69678e-19)
(2.31329 -2.58257 -3.72435e-19)
(2.29919 -2.56685 -1.09232e-18)
(4.30232 -4.82714 0)
(3.99728 -4.48193 0)
(3.85813 -4.32872 8.04509e-18)
(3.7649 -4.22312 -3.82696e-21)
(3.69308 -4.14323 -8.04995e-18)
(3.6351 -4.07838 6.6722e-18)
(3.5862 -4.02375 -6.28795e-18)
(3.54376 -3.97639 0)
(3.50614 -3.93442 -3.74803e-19)
(3.47223 -3.89661 -6.04654e-18)
(3.44128 -3.8621 5.42012e-18)
(3.41272 -3.83027 6.46166e-19)
(3.38614 -3.80064 3.08877e-19)
(3.36123 -3.77287 -5.3254e-18)
(3.33773 -3.74667 4.26306e-18)
(3.31545 -3.72183 2.73126e-19)
(3.29423 -3.69815 2.63035e-19)
(3.27393 -3.6755 4.56481e-18)
(3.25445 -3.65376 -3.67892e-21)
(3.23569 -3.63281 -7.58151e-18)
(3.21758 -3.61258 3.67161e-18)
(3.20005 -3.59298 0)
(3.18303 -3.57396 -3.44818e-18)
(3.16649 -3.55546 3.7334e-21)
(3.15038 -3.53743 3.25723e-18)
(3.13466 -3.51982 3.95762e-19)
(3.11929 -3.5026 3.07951e-18)
(3.10424 -3.48573 -6.75234e-18)
(3.08949 -3.46919 5.84924e-18)
(3.07501 -3.45295 -3.80611e-21)
(3.06078 -3.43697 -3.132e-18)
(3.04677 -3.42125 0)
(3.03298 -3.40576 0)
(3.01938 -3.39048 3.23903e-19)
(3.00596 -3.3754 3.16574e-19)
(2.9927 -3.36049 -6.19036e-19)
(2.97959 -3.34575 9.49526e-24)
(2.96662 -3.33116 2.96177e-19)
(2.95378 -3.31671 0)
(2.94105 -3.30239 -2.55145e-18)
(2.92843 -3.28819 1.66877e-18)
(2.91591 -3.27409 -2.17432e-18)
(2.90347 -3.26009 2.6667e-18)
(2.89112 -3.24618 2.08632e-18)
(2.87884 -3.23235 -2.04826e-18)
(2.86662 -3.21859 0)
(2.85446 -3.2049 0)
(2.84236 -3.19127 0)
(2.8303 -3.17769 0)
(2.81828 -3.16415 -4.6269e-19)
(2.8063 -3.15065 -1.35864e-18)
(2.79434 -3.13719 1.33619e-18)
(2.78241 -3.12375 0)
(2.77049 -3.11033 -4.27402e-19)
(2.75859 -3.09693 -1.6739e-18)
(2.7467 -3.08354 2.05614e-18)
(2.73481 -3.07016 4.027e-19)
(2.72293 -3.05678 -1.14504e-23)
(2.71104 -3.04339 3.8695e-19)
(2.69914 -3.03 0)
(2.68723 -3.01659 7.43446e-19)
(2.6753 -3.00317 0)
(2.66335 -2.98973 0)
(2.65138 -2.97626 -2.09612e-18)
(2.63938 -2.96276 3.4262e-18)
(2.62735 -2.94923 -6.73488e-19)
(2.61529 -2.93566 6.57395e-19)
(2.60318 -2.92205 0)
(2.59104 -2.90839 6.30292e-19)
(2.57885 -2.89469 6.14701e-19)
(2.56661 -2.88093 -2.4157e-18)
(2.55431 -2.86712 1.18433e-18)
(2.54197 -2.85324 0)
(2.52956 -2.8393 0)
(2.51709 -2.8253 5.5322e-19)
(2.50456 -2.81122 0)
(2.49196 -2.79706 5.28841e-19)
(2.47928 -2.78283 -5.14532e-19)
(2.46653 -2.76851 1.01254e-18)
(2.4537 -2.7541 -4.92259e-19)
(2.44078 -2.73961 1.44707e-18)
(2.42779 -2.72501 0)
(2.4147 -2.71032 -4.5827e-19)
(2.40152 -2.69553 4.49607e-19)
(2.38824 -2.68063 0)
(2.37486 -2.66562 -4.28015e-19)
(2.36138 -2.6505 1.24764e-18)
(2.34779 -2.63526 0)
(2.33409 -2.61989 0)
(2.32027 -2.6044 -1.15537e-18)
(2.30634 -2.58877 1.87906e-18)
(2.29229 -2.57302 7.31594e-19)
(4.28888 -4.83823 0)
(3.98424 -4.49274 -5.69634e-19)
(3.84584 -4.33876 5.3413e-19)
(3.75282 -4.233 5.0129e-19)
(3.68126 -4.15288 7.0514e-18)
(3.62352 -4.08784 -7.06547e-18)
(3.5748 -4.03309 1.33965e-22)
(3.53254 -3.9856 -6.26995e-18)
(3.49508 -3.94353 6.30765e-18)
(3.46132 -3.90563 -5.62944e-18)
(3.4305 -3.87105 1.07142e-17)
(3.40207 -3.83914 -3.23051e-19)
(3.37561 -3.80946 -3.77474e-21)
(3.3508 -3.78164 -4.67825e-18)
(3.3274 -3.75539 0)
(3.30522 -3.7305 0)
(3.28408 -3.70679 4.15131e-18)
(3.26387 -3.68411 -8.25985e-18)
(3.24446 -3.66233 3.86889e-18)
(3.22578 -3.64136 -3.73697e-18)
(3.20774 -3.6211 3.62094e-18)
(3.19027 -3.60148 0)
(3.17332 -3.58243 -3.40004e-18)
(3.15684 -3.5639 2.47907e-18)
(3.14078 -3.54585 3.20786e-18)
(3.12511 -3.52821 -3.51365e-18)
(3.10979 -3.51097 0)
(3.09479 -3.49408 3.69875e-19)
(3.08008 -3.47752 0)
(3.06565 -3.46125 0)
(3.05146 -3.44526 3.42972e-19)
(3.03749 -3.42951 -2.67653e-18)
(3.02374 -3.414 2.61782e-18)
(3.01018 -3.3987 -2.23454e-18)
(2.99679 -3.38359 2.50033e-18)
(2.98357 -3.36866 6.10765e-19)
(2.9705 -3.35389 -2.08907e-18)
(2.95756 -3.33928 4.3844e-18)
(2.94476 -3.3248 -2.29069e-18)
(2.93206 -3.31046 2.80098e-19)
(2.91948 -3.29623 1.09716e-18)
(2.90698 -3.2821 -2.14729e-18)
(2.89458 -3.26808 1.58123e-18)
(2.88226 -3.25414 0)
(2.87001 -3.24028 1.01099e-18)
(2.85783 -3.2265 0)
(2.8457 -3.21278 1.45498e-18)
(2.83363 -3.19911 -4.80295e-19)
(2.8216 -3.1855 -1.86944e-18)
(2.80961 -3.17194 4.57754e-19)
(2.79766 -3.15841 0)
(2.78574 -3.14491 0)
(2.77384 -3.13144 0)
(2.76195 -3.11799 4.23293e-19)
(2.75009 -3.10456 -1.65823e-18)
(2.73823 -3.09114 3.25649e-18)
(2.72637 -3.07773 -3.59254e-18)
(2.71452 -3.06431 -3.8704e-19)
(2.70266 -3.0509 7.69791e-19)
(2.6908 -3.03747 -1.50298e-18)
(2.67892 -3.02403 4.44694e-21)
(2.66702 -3.01058 1.44887e-18)
(2.65511 -2.9971 7.09006e-19)
(2.64317 -2.9836 6.94926e-19)
(2.63121 -2.97007 0)
(2.61921 -2.9565 1.9997e-18)
(2.60718 -2.9429 -4.55903e-21)
(2.59511 -2.92926 -1.28327e-18)
(2.583 -2.91557 -6.27351e-19)
(2.57085 -2.90183 0)
(2.55864 -2.88804 0)
(2.54639 -2.87419 -5.88913e-19)
(2.53408 -2.86028 0)
(2.52171 -2.8463 -5.64105e-19)
(2.50928 -2.83226 -1.65348e-18)
(2.49678 -2.81815 5.446e-19)
(2.48422 -2.80395 -5.23367e-19)
(2.47158 -2.78968 1.03502e-18)
(2.45887 -2.77533 -5.04763e-19)
(2.44607 -2.76089 9.86693e-19)
(2.4332 -2.74636 -9.64138e-19)
(2.42024 -2.73173 0)
(2.40719 -2.717 0)
(2.39405 -2.70217 8.9821e-19)
(2.38081 -2.68724 0)
(2.36747 -2.67219 8.55731e-19)
(2.35403 -2.65703 -1.66984e-18)
(2.34049 -2.64175 0)
(2.32683 -2.62634 7.94185e-19)
(2.31306 -2.61081 0)
(2.29917 -2.59515 -7.54649e-19)
(2.28515 -2.57935 0)
(4.27507 -4.84985 9.87226e-18)
(3.97095 -4.50395 1.02229e-17)
(3.83328 -4.34926 -1.70202e-17)
(3.74044 -4.24333 3.76355e-21)
(3.66916 -4.16294 8.40596e-18)
(3.61163 -4.09773 -7.44175e-18)
(3.56309 -4.04283 -4.07649e-19)
(3.52098 -3.99522 6.212e-18)
(3.48367 -3.95303 6.23736e-18)
(3.45004 -3.91504 -1.07892e-17)
(3.41935 -3.88036 3.34802e-19)
(3.39104 -3.84838 4.73339e-18)
(3.36469 -3.81863 0)
(3.33999 -3.79074 2.88504e-19)
(3.31669 -3.76444 2.76809e-19)
(3.29459 -3.7395 0)
(3.27355 -3.71574 4.09506e-18)
(3.25342 -3.69301 -3.69578e-21)
(3.23409 -3.67119 -3.57686e-18)
(3.21548 -3.65018 2.30415e-19)
(3.19751 -3.62988 0)
(3.18011 -3.61023 -3.02323e-18)
(3.16323 -3.59115 2.93601e-18)
(3.14681 -3.57259 -2.9119e-23)
(3.13081 -3.55451 -3.16186e-18)
(3.1152 -3.53685 3.46327e-18)
(3.09993 -3.51958 0)
(3.08498 -3.50267 0)
(3.07033 -3.48608 -2.48537e-18)
(3.05594 -3.46978 3.73489e-21)
(3.0418 -3.45376 2.70671e-18)
(3.02788 -3.43799 0)
(3.01417 -3.42245 -2.5773e-18)
(3.00065 -3.40712 2.20718e-18)
(2.9873 -3.39199 -2.15394e-18)
(2.97412 -3.37703 2.11025e-18)
(2.96109 -3.36224 -2.94657e-19)
(2.94819 -3.3476 -2.01656e-18)
(2.93542 -3.3331 2.26019e-18)
(2.92276 -3.31872 0)
(2.91021 -3.30447 2.16379e-18)
(2.89776 -3.29031 -2.1237e-18)
(2.88539 -3.27626 0)
(2.8731 -3.26229 0)
(2.86089 -3.24841 -2.49445e-18)
(2.84874 -3.23459 1.47048e-18)
(2.83665 -3.22084 2.3976e-18)
(2.82461 -3.20715 -3.29426e-18)
(2.81261 -3.19351 1.84814e-18)
(2.80066 -3.17991 0)
(2.78874 -3.16636 0)
(2.77685 -3.15283 2.17521e-18)
(2.76498 -3.13933 -1.7107e-18)
(2.75314 -3.12585 -4.18994e-19)
(2.7413 -3.11239 0)
(2.72948 -3.09894 -2.01367e-18)
(2.71766 -3.08549 4.32104e-21)
(2.70584 -3.07204 1.16588e-18)
(2.69401 -3.05859 2.28061e-18)
(2.68218 -3.04513 -1.86795e-18)
(2.67034 -3.03166 7.31901e-19)
(2.65848 -3.01818 0)
(2.6466 -3.00467 -1.48403e-23)
(2.6347 -2.99113 0)
(2.62277 -2.97757 6.76451e-19)
(2.61081 -2.96397 6.60819e-19)
(2.59882 -2.95033 -1.30206e-18)
(2.58678 -2.93665 6.36879e-19)
(2.57471 -2.92293 6.24038e-19)
(2.56259 -2.90915 6.11362e-19)
(2.55043 -2.89533 -1.1954e-18)
(2.53821 -2.88144 1.76179e-18)
(2.52594 -2.8675 0)
(2.5136 -2.85349 5.62237e-19)
(2.50121 -2.83941 -5.50321e-19)
(2.48875 -2.82526 -1.07712e-18)
(2.47623 -2.81103 -5.26939e-19)
(2.46363 -2.79672 0)
(2.45096 -2.78233 5.0413e-19)
(2.4382 -2.76785 0)
(2.42537 -2.75328 9.63727e-19)
(2.41245 -2.73862 0)
(2.39944 -2.72385 0)
(2.38634 -2.70899 -8.96656e-19)
(2.37315 -2.69401 2.37311e-21)
(2.35985 -2.67892 8.57245e-19)
(2.34645 -2.66372 9.23307e-24)
(2.33295 -2.6484 -8.16581e-19)
(2.31934 -2.63296 -7.96676e-19)
(2.30561 -2.61739 -1.55169e-18)
(2.29176 -2.60168 7.60059e-19)
(2.27779 -2.58584 0)
(4.26082 -4.8619 -9.86107e-18)
(3.95735 -4.51549 8.49821e-18)
(3.82038 -4.36014 0)
(3.72774 -4.25402 7.92422e-18)
(3.65674 -4.17336 -8.34391e-18)
(3.59941 -4.10798 -8.50677e-23)
(3.55104 -4.05293 6.11483e-18)
(3.5091 -4.00519 -3.91668e-21)
(3.47192 -3.96289 -6.53645e-18)
(3.43843 -3.92479 0)
(3.40785 -3.89002 -3.26935e-19)
(3.37965 -3.85795 -4.9825e-18)
(3.35341 -3.82812 4.76205e-18)
(3.32881 -3.80016 0)
(3.3056 -3.7738 -2.73057e-19)
(3.2836 -3.7488 -2.62387e-19)
(3.26264 -3.72498 0)
(3.24259 -3.70221 -3.64909e-18)
(3.22335 -3.68034 7.28353e-18)
(3.20481 -3.65928 -7.49435e-18)
(3.18691 -3.63895 7.03306e-18)
(3.16958 -3.61925 -4.29516e-19)
(3.15277 -3.60014 -2.89326e-18)
(3.13641 -3.58154 4.00999e-19)
(3.12048 -3.56342 0)
(3.10492 -3.54573 -3.78952e-19)
(3.08971 -3.52843 0)
(3.07482 -3.51149 3.23133e-18)
(3.06021 -3.49486 -3.15298e-18)
(3.04588 -3.47854 2.72981e-18)
(3.03178 -3.46249 -5.33113e-18)
(3.01791 -3.44669 2.92964e-18)
(3.00425 -3.43113 0)
(2.99078 -3.41577 2.48244e-18)
(2.97748 -3.40061 -5.46496e-18)
(2.96434 -3.38562 2.37749e-18)
(2.95135 -3.3708 -6.25355e-25)
(2.93849 -3.35613 0)
(2.92576 -3.3416 -2.5038e-18)
(2.91314 -3.3272 3.87359e-21)
(2.90063 -3.31291 1.60452e-18)
(2.88821 -3.29873 0)
(2.87588 -3.28465 -2.04988e-18)
(2.86364 -3.27066 2.51608e-18)
(2.85146 -3.25674 0)
(2.83934 -3.2429 8.39648e-24)
(2.82729 -3.22912 -1.89413e-18)
(2.81529 -3.21539 3.25455e-18)
(2.80333 -3.20172 -2.28232e-18)
(2.79141 -3.1881 0)
(2.77953 -3.17451 4.38908e-19)
(2.76767 -3.16095 -4.30628e-19)
(2.75584 -3.14742 0)
(2.74403 -3.13391 -1.65611e-18)
(2.73223 -3.12041 1.62915e-18)
(2.72044 -3.10693 3.99116e-19)
(2.70866 -3.09345 0)
(2.69687 -3.07997 7.68448e-19)
(2.68509 -3.06648 -3.76975e-19)
(2.67329 -3.05299 7.51687e-24)
(2.66148 -3.03949 7.23437e-19)
(2.64966 -3.02597 -1.42582e-18)
(2.63782 -3.01242 -6.98203e-19)
(2.62595 -2.99885 -6.84772e-19)
(2.61406 -2.98525 -6.71556e-19)
(2.60214 -2.97162 0)
(2.59018 -2.95795 6.45631e-19)
(2.57819 -2.94424 -6.32942e-19)
(2.56615 -2.93048 -1.2408e-18)
(2.55407 -2.91667 -6.08031e-19)
(2.54194 -2.9028 -1.18932e-18)
(2.52977 -2.88888 1.75349e-18)
(2.51753 -2.8749 -1.14131e-18)
(2.50524 -2.86086 5.62338e-19)
(2.49289 -2.84674 1.64283e-18)
(2.48047 -2.83255 -5.39201e-19)
(2.46798 -2.81829 5.25517e-19)
(2.45542 -2.80394 -1.02621e-18)
(2.44279 -2.78951 1.0087e-18)
(2.43008 -2.775 0)
(2.41729 -2.76039 -1.92548e-18)
(2.40441 -2.74569 -9.41315e-19)
(2.39145 -2.73088 9.20156e-19)
(2.37839 -2.71598 -1.79852e-18)
(2.36524 -2.70096 8.78625e-19)
(2.35199 -2.68584 -1.7141e-18)
(2.33863 -2.6706 1.67862e-18)
(2.32517 -2.65524 8.41784e-24)
(2.3116 -2.63975 7.96277e-19)
(2.29792 -2.62414 -2.37635e-21)
(2.28412 -2.60839 -7.60263e-19)
(2.2702 -2.59251 7.39083e-19)
(4.24609 -4.87435 -9.27294e-18)
(3.94337 -4.52734 -9.03454e-18)
(3.80707 -4.37138 3.59349e-21)
(3.71465 -4.26503 1.57517e-17)
(3.64395 -4.18412 -6.90069e-18)
(3.58681 -4.11857 7.31439e-18)
(3.53863 -4.06336 -6.05979e-18)
(3.49684 -4.01548 0)
(3.4598 -3.97306 3.58951e-19)
(3.42644 -3.93486 5.09821e-18)
(3.39599 -3.89999 -4.84623e-18)
(3.36789 -3.86784 6.15129e-19)
(3.34175 -3.83793 2.93638e-19)
(3.31725 -3.8099 -4.21201e-18)
(3.29414 -3.78347 4.58057e-18)
(3.27223 -3.7584 4.39618e-18)
(3.25136 -3.73453 -3.98472e-18)
(3.23139 -3.7117 3.83667e-18)
(3.21222 -3.68978 -3.70654e-18)
(3.19376 -3.66867 -2.23791e-19)
(3.17594 -3.64829 -3.4629e-18)
(3.15868 -3.62855 3.35838e-18)
(3.14193 -3.60939 4.06929e-19)
(3.12564 -3.59076 -3.95041e-19)
(3.10977 -3.5726 0)
(3.09427 -3.55487 -2.98447e-18)
(3.07912 -3.53753 2.9083e-18)
(3.06429 -3.52055 -3.53855e-19)
(3.04974 -3.5039 0)
(3.03546 -3.48754 3.0255e-18)
(3.02142 -3.47146 -2.95607e-18)
(3.0076 -3.45563 -3.20313e-18)
(2.99398 -3.44003 2.50656e-18)
(2.98056 -3.42464 -2.44611e-18)
(2.96731 -3.40945 2.69462e-18)
(2.95421 -3.39444 0)
(2.94126 -3.37959 2.86382e-19)
(2.92845 -3.36489 2.80335e-19)
(2.91576 -3.35033 -1.64509e-18)
(2.90319 -3.33589 4.30184e-18)
(2.89072 -3.32158 -5.30684e-19)
(2.87834 -3.30737 -3.61402e-18)
(2.86606 -3.29325 2.02621e-18)
(2.85385 -3.27923 9.90332e-19)
(2.84171 -3.26528 -1.94801e-18)
(2.82963 -3.25141 4.77146e-19)
(2.81762 -3.2376 1.87009e-18)
(2.80565 -3.22384 -9.20263e-19)
(2.79373 -3.21014 2.25029e-18)
(2.78185 -3.19648 -1.32802e-18)
(2.77001 -3.18286 -7.01099e-24)
(2.75819 -3.16927 0)
(2.7464 -3.15571 -1.66881e-18)
(2.73462 -3.14217 2.05191e-18)
(2.72286 -3.12864 0)
(2.71111 -3.11512 0)
(2.69936 -3.10161 1.5482e-18)
(2.68761 -3.08809 -7.65037e-19)
(2.67586 -3.07458 -1.86872e-18)
(2.66411 -3.06105 -1.09693e-18)
(2.65234 -3.04751 1.44024e-18)
(2.64055 -3.03396 -7.05561e-19)
(2.62875 -3.02038 6.90104e-19)
(2.61692 -3.00678 -6.81401e-19)
(2.60507 -2.99314 -1.33041e-18)
(2.59319 -2.97947 1.30941e-18)
(2.58127 -2.96576 -1.28209e-18)
(2.56931 -2.95202 0)
(2.55732 -2.93822 2.46347e-18)
(2.54528 -2.92437 -1.21097e-18)
(2.53319 -2.91048 -1.18258e-18)
(2.52105 -2.89652 5.82922e-19)
(2.50886 -2.8825 0)
(2.4966 -2.86842 5.57501e-19)
(2.48429 -2.85426 0)
(2.47192 -2.84004 5.34879e-19)
(2.45947 -2.82573 5.21443e-19)
(2.44696 -2.81135 -1.0279e-18)
(2.43437 -2.79688 0)
(2.4217 -2.78233 4.91185e-19)
(2.40895 -2.76768 1.9223e-18)
(2.39611 -2.75294 9.40175e-19)
(2.38319 -2.7381 -9.19439e-19)
(2.37018 -2.72315 9.27055e-24)
(2.35707 -2.7081 0)
(2.34387 -2.69293 -8.58687e-19)
(2.33056 -2.67765 -2.38025e-21)
(2.31714 -2.66225 -2.37674e-21)
(2.30362 -2.64672 0)
(2.28998 -2.63107 -7.8114e-19)
(2.27623 -2.61528 1.52237e-18)
(2.26236 -2.59935 -2.3927e-21)
(4.23088 -4.8872 -9.2627e-18)
(3.92899 -4.53951 -9.0068e-18)
(3.79335 -4.38296 1.67737e-17)
(3.70118 -4.27638 -7.82618e-18)
(3.63076 -4.19521 0)
(3.57383 -4.12947 0)
(3.52583 -4.07411 0)
(3.4842 -4.0261 6.01531e-18)
(3.4473 -3.98356 -5.67999e-18)
(3.41407 -3.94525 3.35897e-19)
(3.38374 -3.91028 5.10064e-18)
(3.35575 -3.87804 -3.07306e-19)
(3.32972 -3.84805 -9.55971e-18)
(3.30532 -3.81994 4.15798e-18)
(3.2823 -3.79344 -5.31128e-19)
(3.26048 -3.76831 4.33355e-18)
(3.23969 -3.74437 2.41706e-19)
(3.21981 -3.72148 -4.02043e-18)
(3.20072 -3.6995 0)
(3.18234 -3.67834 3.96607e-18)
(3.16459 -3.65791 -3.41439e-18)
(3.1474 -3.63812 4.13243e-19)
(3.13072 -3.61892 -4.00714e-19)
(3.11449 -3.60024 3.8899e-19)
(3.09869 -3.58204 0)
(3.08325 -3.56427 2.93882e-18)
(3.06816 -3.54689 -2.86382e-18)
(3.05339 -3.52988 3.48465e-19)
(3.0389 -3.51318 3.39642e-19)
(3.02467 -3.49679 -6.62498e-19)
(3.01068 -3.48068 2.90757e-18)
(2.99692 -3.46481 -4.73477e-18)
(2.98336 -3.44918 2.46884e-18)
(2.96998 -3.43376 2.10807e-18)
(2.95678 -3.41853 -4.71588e-18)
(2.94373 -3.40348 2.30855e-18)
(2.93083 -3.3886 2.82184e-19)
(2.91807 -3.37387 -2.76252e-19)
(2.90543 -3.35928 2.16243e-18)
(2.8929 -3.34481 -1.85704e-18)
(2.88047 -3.33046 -1.03686e-18)
(2.86814 -3.31622 1.5291e-18)
(2.85589 -3.30208 -4.99068e-19)
(2.84372 -3.28802 1.95554e-18)
(2.83163 -3.27404 -1.92175e-18)
(2.8196 -3.26014 2.35202e-18)
(2.80762 -3.24629 -3.93609e-21)
(2.7957 -3.23251 -4.57171e-19)
(2.78382 -3.21877 -1.78096e-18)
(2.77198 -3.20508 -4.36486e-19)
(2.76017 -3.19143 1.28321e-18)
(2.74839 -3.17781 -1.68412e-18)
(2.73664 -3.16421 -4.12798e-19)
(2.7249 -3.15063 0)
(2.71318 -3.13707 -3.97822e-19)
(2.70147 -3.12352 -1.56013e-18)
(2.68976 -3.10997 1.91917e-18)
(2.67805 -3.09643 2.25633e-18)
(2.66634 -3.08288 -7.41146e-19)
(2.65462 -3.06932 0)
(2.64289 -3.05574 7.12138e-19)
(2.63115 -3.04215 2.09488e-18)
(2.61939 -3.02854 -1.37431e-18)
(2.6076 -3.0149 6.73326e-19)
(2.59578 -3.00123 -1.31933e-18)
(2.58394 -2.98752 4.41037e-21)
(2.57206 -2.97378 2.54675e-18)
(2.56015 -2.95999 0)
(2.54819 -2.94616 -8.34966e-24)
(2.53619 -2.93228 1.19848e-18)
(2.52415 -2.91834 -1.17973e-18)
(2.51205 -2.90435 0)
(2.4999 -2.89029 1.69536e-18)
(2.48769 -2.87617 -4.58016e-21)
(2.47542 -2.86198 -1.0894e-18)
(2.46309 -2.84771 5.30257e-19)
(2.45068 -2.83337 -5.24027e-19)
(2.43821 -2.81895 0)
(2.42567 -2.80444 0)
(2.41304 -2.78985 -5.14702e-24)
(2.40034 -2.77516 -9.84384e-24)
(2.38755 -2.76038 9.38435e-19)
(2.37467 -2.7455 -9.18132e-19)
(2.3617 -2.73051 2.37447e-21)
(2.34864 -2.71541 4.744e-21)
(2.33548 -2.7002 2.57819e-18)
(2.32222 -2.68488 8.39228e-19)