/*--------------------------------*- C++ -*----------------------------------*\
  =========                 |
  \\      /  F ield         | OpenFOAM: The Open Source CFD Toolbox
   \\    /   O peration     | Website:  https://openfoam.org
    \\  /    A nd           | Version:  10
     \\/     M anipulation  |
\*---------------------------------------------------------------------------*/
FoamFile
{
    format      ascii;
    class       volScalarField;
    location    "31000";
    object      k;
}
// * * * * * * * * * * * * * * * * * * * * * * * * * * * * * * * * * * * * * //

dimensions      [0 2 -2 0 0 0 0];

internalField   nonuniform List<scalar> 
17969
(
9.61305e-06
0.000249064
0.000706291
0.00134326
0.00197579
0.00261402
0.00330382
0.00409131
0.00501072
0.00608726
0.0072881
0.00855362
0.00979556
0.0108346
0.0115672
0.0119757
0.0121161
0.0120805
0.0119633
0.0118446
0.0117641
0.0117634
0.011868
0.0120809
0.0123923
0.0127867
0.013246
0.0137524
0.0142897
0.0148445
0.0154066
0.0159682
0.016524
0.0170704
0.017605
0.0181263
0.0186333
0.0191254
0.0196025
0.0200643
0.0205107
0.0209419
0.0213576
0.0217579
0.0221427
0.022512
0.0228656
0.0232036
0.0235259
0.0238323
0.0241229
0.0243975
0.0246563
0.0248991
0.0251262
0.0253375
0.0255332
0.0257136
0.0258788
0.026029
0.0261648
0.0262863
0.0263939
0.0264882
0.0265695
0.0266383
0.026695
0.02674
0.0267738
0.0267967
0.0268089
0.0268107
0.0268023
0.0267838
0.0267557
0.0267198
0.0266781
0.0266322
0.026582
0.0265285
0.0264732
0.0264191
0.0263698
0.0263292
0.0263016
0.0262918
0.0263045
0.0263447
0.0264171
0.0265264
0.0266786
0.0268815
0.0271423
0.0274669
0.0278583
0.0283153
0.0288399
0.0294381
0.0301133
0.0308666
4.50004e-06
0.000120447
0.00037696
0.000797374
0.00123193
0.00166923
0.0021425
0.00268365
0.00332387
0.00408072
0.00497442
0.00603664
0.00721497
0.00844574
0.00967465
0.0107603
0.0115953
0.0121398
0.0124163
0.0124893
0.0124374
0.0123359
0.0122444
0.0121863
0.0122036
0.0123141
0.0125194
0.0128119
0.0131788
0.0136057
0.0140778
0.0145813
0.0151041
0.0156362
0.0161702
0.0167003
0.0172225
0.0177341
0.0182332
0.0187184
0.019189
0.0196443
0.020084
0.020508
0.020916
0.021308
0.0216839
0.0220436
0.0223872
0.0227145
0.0230256
0.0233206
0.0235993
0.0238619
0.0241085
0.0243391
0.024554
0.0247533
0.0249374
0.0251063
0.0252606
0.0254005
0.0255264
0.0256387
0.0257379
0.0258244
0.0258987
0.0259611
0.026012
0.0260518
0.0260807
0.0260988
0.0261062
0.026103
0.0260893
0.0260665
0.0260364
0.0260004
0.0259594
0.0259127
0.0258629
0.0258128
0.0257659
0.0257265
0.0256988
0.0256879
0.0256991
0.0257379
0.0258098
0.0259196
0.0260719
0.0262716
0.0265264
0.0268457
0.0272344
0.0276919
0.0282197
0.0288247
0.0295107
0.0302795
2.22444e-06
6.02655e-05
0.000197713
0.000461944
0.000750927
0.00103756
0.00134389
0.00169699
0.0021196
0.00262659
0.00323581
0.00397071
0.00485042
0.00589307
0.00704547
0.00824148
0.00944863
0.010572
0.0115014
0.0121785
0.0125973
0.012795
0.0128326
0.012776
0.0126872
0.0126091
0.0125674
0.0125955
0.0127066
0.0129021
0.0131757
0.0135169
0.0139136
0.0143532
0.014824
0.0153149
0.0158169
0.0163223
0.0168254
0.0173219
0.0178086
0.0182833
0.0187445
0.019191
0.0196223
0.0200376
0.0204369
0.0208197
0.021186
0.0215357
0.0218689
0.0221854
0.0224854
0.0227688
0.023036
0.0232869
0.0235217
0.0237407
0.0239441
0.0241322
0.0243054
0.024464
0.0246083
0.0247389
0.0248562
0.0249605
0.0250524
0.0251322
0.0252003
0.025257
0.0253026
0.0253372
0.0253607
0.0253732
0.0253745
0.0253655
0.0253477
0.0253227
0.0252921
0.0252543
0.0252121
0.0251685
0.0251269
0.0250913
0.0250662
0.0250567
0.0250684
0.0251074
0.0251799
0.0252923
0.0254498
0.0256566
0.0259163
0.0262364
0.0266271
0.0270896
0.0276252
0.0282416
0.0289433
0.0297324
1.32944e-06
3.59021e-05
0.000116916
0.000289395
0.000487486
0.000679576
0.000877968
0.00109978
0.00136533
0.00168921
0.00208273
0.00256648
0.00315825
0.00387419
0.00473099
0.00574483
0.00686558
0.00802244
0.00919894
0.01034
0.0113397
0.0121309
0.0126837
0.0130096
0.0131504
0.0131623
0.0131024
0.0130218
0.0129507
0.0129185
0.012951
0.0130585
0.0132418
0.0134957
0.0138114
0.0141783
0.0145858
0.0150234
0.0154815
0.0159516
0.0164264
0.0169002
0.0173684
0.0178276
0.0182754
0.01871
0.01913
0.0195347
0.0199233
0.0202956
0.0206512
0.0209901
0.0213122
0.0216174
0.021906
0.0221779
0.0224335
0.0226728
0.0228962
0.023104
0.0232965
0.0234741
0.0236372
0.0237862
0.0239215
0.0240437
0.0241532
0.0242504
0.0243357
0.0244094
0.0244717
0.0245228
0.0245627
0.0245912
0.0246079
0.0246133
0.0246089
0.0245964
0.0245774
0.0245506
0.0245185
0.0244841
0.0244506
0.0244221
0.0244028
0.0243978
0.0244129
0.0244545
0.0245295
0.0246452
0.0248086
0.0250256
0.0253
0.0256345
0.026035
0.0265071
0.0270556
0.0276887
0.0284112
0.0292259
0.0301335
0.0311325
0.0322198
0.0333901
9.561e-07
2.56733e-05
8.13663e-05
0.000205633
0.000352699
0.000491282
0.000627933
0.000773447
0.000939738
0.00114034
0.00138452
0.00168541
0.00206251
0.00252923
0.00310111
0.00379248
0.00461802
0.00559707
0.00668303
0.00780993
0.00895295
0.0100892
0.0111377
0.0120209
0.0126933
0.0131453
0.0133984
0.0134952
0.0134865
0.0134223
0.0133454
0.0132765
0.0132477
0.0132791
0.0133786
0.0135469
0.0137793
0.0140683
0.0144047
0.0147791
0.0151822
0.0156055
0.0160411
0.0164823
0.0169236
0.0173603
0.0177889
0.0182067
0.0186118
0.0190026
0.0193782
0.0197379
0.0200812
0.020408
0.0207179
0.0210112
0.0212878
0.0215478
0.0217917
0.0220195
0.0222316
0.0224285
0.0226105
0.022778
0.0229316
0.0230716
0.0231987
0.0233131
0.0234155
0.023506
0.023585
0.0236527
0.023709
0.0237539
0.0237867
0.0238075
0.0238176
0.0238185
0.0238121
0.0237991
0.0237801
0.023758
0.0237359
0.0237178
0.0237077
0.0237108
0.0237328
0.0237802
0.0238605
0.0239817
0.0241521
0.0243794
0.0246698
0.0250265
0.0254508
0.0259424
0.026509
0.027164
0.0279128
0.0287585
0.0297024
0.0307431
0.0318774
0.0330999
7.79153e-07
2.08344e-05
6.43118e-05
0.000163166
0.000282305
0.00039175
0.000494812
0.000598728
0.000710608
0.000838548
0.000992063
0.00117759
0.0014046
0.00169029
0.00205214
0.00250061
0.0030504
0.00371513
0.00450807
0.00544699
0.00649559
0.00759739
0.00871694
0.00983958
0.0109155
0.0118676
0.0126421
0.0132119
0.0135801
0.0137739
0.0138346
0.0138079
0.0137377
0.0136579
0.013588
0.0135581
0.0135837
0.0136714
0.0138216
0.0140301
0.0142903
0.0145944
0.0149338
0.0153004
0.0156864
0.0160845
0.0164888
0.0168938
0.0172953
0.0176896
0.018074
0.0184463
0.0188051
0.0191491
0.0194777
0.0197903
0.0200867
0.0203667
0.0206304
0.0208779
0.0211096
0.0213256
0.0215264
0.0217125
0.0218841
0.0220419
0.0221864
0.022318
0.0224372
0.0225445
0.0226402
0.0227245
0.0227977
0.0228596
0.0229095
0.0229469
0.0229731
0.0229895
0.0229977
0.0230006
0.0229972
0.0229903
0.0229828
0.0229784
0.0229812
0.0229959
0.0230284
0.0230853
0.0231744
0.0233042
0.0234841
0.0237233
0.0240299
0.0244096
0.0248636
0.0253868
0.0259818
0.0266646
0.0274457
0.0283289
0.0293155
0.0304045
0.0315925
0.0328736
6.83278e-07
1.82294e-05
5.51157e-05
0.000139756
0.000243274
0.000336818
0.000421782
0.000503496
0.000586696
0.000675968
0.000776704
0.000896079
0.00103877
0.00121083
0.00142504
0.00169594
0.00204033
0.00246889
0.00299516
0.00363249
0.00439353
0.00529424
0.00631157
0.00739408
0.00849438
0.00959503
0.0106789
0.0116801
0.0125382
0.0132146
0.0136963
0.0139945
0.0141389
0.014169
0.014126
0.0140481
0.0139601
0.0138867
0.0138519
0.0138676
0.0139395
0.0140681
0.0142496
0.0144783
0.0147474
0.0150493
0.0153767
0.0157225
0.0160801
0.016444
0.0168093
0.0171717
0.0175279
0.0178753
0.0182116
0.0185353
0.0188452
0.0191405
0.0194206
0.0196854
0.0199346
0.0201684
0.020387
0.0205906
0.0207798
0.0209548
0.0211163
0.0212647
0.0214006
0.0215246
0.0216371
0.0217385
0.0218291
0.0219091
0.0219774
0.0220333
0.0220777
0.0221119
0.022137
0.0221565
0.0221716
0.0221828
0.022193
0.0222057
0.0222247
0.0222547
0.0223014
0.0223714
0.0224727
0.0226145
0.0228069
0.0230606
0.0233853
0.0237887
0.0242735
0.0248349
0.0254686
0.0261871
0.027008
0.0279362
0.0289734
0.0301183
0.0313674
0.0327142
0.0341502
6.30083e-07
1.67839e-05
4.99391e-05
0.000126365
0.000221039
0.00030587
0.000381056
0.000450901
0.000518995
0.000588347
0.000661945
0.000743347
0.000837406
0.000948748
0.00108111
0.00124191
0.00144325
0.00169857
0.00202388
0.00243012
0.00293065
0.00353876
0.00426669
0.00512843
0.00611363
0.00717336
0.00825873
0.00934996
0.010432
0.0114639
0.0123863
0.013155
0.0137436
0.0141494
0.0143888
0.0144922
0.0144967
0.0144395
0.0143536
0.0142558
0.0141753
0.0141305
0.0141318
0.014184
0.014287
0.0144379
0.0146318
0.0148628
0.0151242
0.0154093
0.0157119
0.016026
0.0163465
0.0166687
0.0169889
0.0173039
0.0176111
0.0179085
0.0181945
0.018468
0.0187282
0.0189745
0.0192067
0.0194248
0.0196289
0.0198192
0.0199963
0.0201605
0.0203124
0.0204526
0.0205818
0.0207005
0.0208092
0.0209082
0.0209963
0.0210724
0.0211371
0.0211912
0.0212358
0.0212729
0.0213081
0.0213396
0.0213702
0.0214029
0.0214413
0.02149
0.0215542
0.0216406
0.0217573
0.021914
0.0221217
0.0223921
0.0227369
0.0231656
0.0236827
0.0242844
0.0249651
0.0257313
0.0266004
0.0275822
0.0286782
0.0298873
0.0312052
0.0326249
0.0341371
0.0357301
0.0373913
6.04888e-07
1.60922e-05
4.72837e-05
0.000119218
0.000209191
0.000289471
0.000359496
0.000423021
0.000483095
0.000542022
0.000601765
0.000664302
0.000731953
0.000807797
0.000896203
0.00100007
0.0011228
0.00127266
0.00146059
0.00169934
0.00200369
0.0023845
0.00285593
0.00343155
0.00412372
0.00494517
0.00589964
0.00694203
0.00801637
0.00909975
0.0101717
0.0112179
0.0121874
0.0130319
0.0137178
0.0142295
0.0145709
0.0147618
0.0148323
0.0148158
0.0147457
0.0146462
0.0145395
0.0144502
0.0143924
0.0143756
0.0144038
0.0144773
0.0145939
0.0147494
0.0149389
0.0151566
0.0153966
0.0156532
0.015921
0.0161955
0.0164723
0.0167479
0.0170195
0.0172845
0.0175412
0.0177881
0.0180241
0.0182485
0.0184609
0.0186611
0.0188494
0.0190258
0.019191
0.0193455
0.0194898
0.0196247
0.0197508
0.0198687
0.0199768
0.0200737
0.0201599
0.0202359
0.020302
0.0203588
0.0204125
0.0204666
0.0205198
0.0205751
0.0206358
0.0207059
0.0207907
0.0208965
0.0210315
0.0212056
0.0214301
0.0217184
0.0220837
0.0225385
0.0230899
0.0237365
0.0244736
0.0252994
0.0262258
0.0272699
0.0284332
0.0297141
0.0311079
0.0326068
0.0342005
0.0358764
0.0376208
0.0394189
6.01805e-07
1.59877e-05
4.65153e-05
0.000116614
0.000204737
0.000283107
0.000350709
0.000411035
0.000466901
0.000520315
0.000572818
0.000625753
0.000680469
0.000738506
0.000801832
0.000873185
0.000956305
0.00105332
0.0011674
0.0013066
0.00148098
0.00170276
0.00198314
0.00233571
0.00277491
0.00331481
0.00396819
0.00474651
0.0056658
0.00668272
0.00774315
0.00882144
0.0098954
0.0109457
0.0119448
0.0128474
0.0136162
0.0142267
0.0146717
0.0149593
0.0151107
0.0151548
0.0151221
0.0150416
0.0149283
0.0148116
0.0147098
0.0146355
0.0145967
0.0145971
0.0146373
0.0147158
0.0148296
0.0149746
0.0151457
0.0153378
0.0155461
0.0157656
0.015992
0.0162218
0.0164516
0.0166787
0.016901
0.0171168
0.0173249
0.0175242
0.0177145
0.0178956
0.0180676
0.0182309
0.0183858
0.0185332
0.0186736
0.0188078
0.0189341
0.0190509
0.0191583
0.0192569
0.0193461
0.0194255
0.0194993
0.0195741
0.0196511
0.0197304
0.0198153
0.0199093
0.0200172
0.0201451
0.0203011
0.0204944
0.0207365
0.0210408
0.0214229
0.021899
0.0224818
0.0231758
0.02398
0.024888
0.0258917
0.0270035
0.0282397
0.0295981
0.0310732
0.0326563
0.0343358
0.0360982
0.0379284
0.0398107
0.0417295
0.0436694
6.18374e-07
1.64e-05
4.73471e-05
0.000117693
0.000206082
0.000284347
0.000351268
0.000410259
0.000464071
0.000514609
0.000563251
0.000611091
0.000659099
0.000708238
0.000759572
0.000814397
0.000874428
0.000942092
0.00102066
0.00111188
0.00121853
0.00134808
0.00150904
0.00171158
0.00196786
0.00229164
0.00269765
0.00320076
0.00381495
0.00455177
0.00542602
0.00641092
0.00745638
0.0085253
0.00959775
0.0106498
0.0116642
0.0126072
0.0134409
0.0141373
0.01468
0.0150673
0.0153106
0.0154314
0.0154554
0.0154097
0.0153128
0.0151903
0.0150634
0.0149477
0.0148542
0.01479
0.014759
0.0147628
0.0148007
0.0148704
0.0149685
0.015091
0.0152336
0.0153919
0.0155617
0.0157394
0.0159215
0.0161053
0.0162883
0.016469
0.016646
0.0168182
0.0169853
0.0171471
0.0173039
0.017456
0.0176041
0.0177489
0.0178887
0.0180215
0.0181477
0.0182676
0.0183806
0.0184855
0.0185825
0.018677
0.0187761
0.0188804
0.0189907
0.0191106
0.019244
0.0193956
0.0195725
0.0197848
0.0200444
0.0203654
0.0207649
0.0212614
0.0218729
0.0226092
0.0234744
0.0244671
0.0255727
0.0267769
0.0280915
0.0295327
0.0310939
0.0327651
0.0345337
0.0363848
0.0383022
0.0402692
0.0422692
0.0442863
0.0463058
0.0483143
0.0502998
0.0522522
6.538e-07
1.73065e-05
4.96692e-05
0.000121983
0.000212248
0.000291664
0.000359041
0.000417857
0.000470895
0.000520052
0.000566655
0.000611709
0.000656042
0.000700393
0.00074549
0.000792109
0.000841157
0.000893773
0.000951421
0.00101622
0.00109112
0.00117765
0.00127782
0.00139781
0.00154549
0.00173037
0.00196389
0.00225939
0.00263164
0.00309598
0.0036673
0.00435826
0.00518307
0.00613087
0.00715549
0.00820947
0.00927638
0.010332
0.011352
0.0123183
0.0131986
0.0139632
0.0145915
0.0150736
0.0154119
0.0156194
0.0157158
0.0157245
0.0156633
0.0155559
0.015424
0.0152848
0.0151524
0.015037
0.0149455
0.0148821
0.0148485
0.0148448
0.0148696
0.0149201
0.0149933
0.0150856
0.0151936
0.0153137
0.0154429
0.0155785
0.0157183
0.0158604
0.0160038
0.0161475
0.0162914
0.0164352
0.0165795
0.0167249
0.0168694
0.0170109
0.0171497
0.0172863
0.0174201
0.0175501
0.0176747
0.0177952
0.0179154
0.0180419
0.0181773
0.0183212
0.0184784
0.0186536
0.018853
0.019086
0.0193645
0.0197033
0.0201207
0.0206372
0.0212743
0.0220468
0.0229642
0.0240315
0.0252381
0.0265606
0.0279805
0.0295095
0.031161
0.0329237
0.0347834
0.0367242
0.0387287
0.0407792
0.0428584
0.0449497
0.047038
0.0491096
0.0511527
0.0531569
7.08001e-07
1.87048e-05
5.34601e-05
0.00012921
0.000222566
0.000303984
0.00037254
0.000431886
0.000484909
0.000533564
0.000579177
0.000622708
0.000664949
0.000706556
0.000748122
0.000790215
0.00083343
0.000878424
0.000925975
0.000977061
0.00103299
0.00109557
0.00116742
0.00125015
0.00134515
0.00145736
0.00159386
0.00176321
0.00197591
0.00224451
0.00258343
0.00300817
0.00353429
0.00417555
0.00494548
0.00584892
0.00684446
0.00787826
0.00893091
0.0099834
0.0110111
0.0119897
0.0128997
0.0137143
0.0144109
0.0149751
0.0154024
0.0156984
0.0158758
0.0159519
0.0159395
0.0158635
0.0157453
0.0156034
0.0154526
0.0153048
0.015169
0.0150517
0.0149571
0.0148872
0.0148429
0.0148234
0.0148271
0.0148517
0.014895
0.0149543
0.0150272
0.0151114
0.015205
0.0153068
0.0154156
0.0155313
0.0156539
0.0157836
0.0159185
0.0160562
0.0161969
0.0163406
0.0164872
0.0166355
0.0167842
0.0169323
0.0170796
0.0172286
0.0173833
0.0175503
0.0177309
0.0179291
0.0181513
0.0184058
0.0187042
0.0190617
0.0194971
0.020033
0.0206934
0.021498
0.0224609
0.0235923
0.0248883
0.0263278
0.0278786
0.0295205
0.0312652
0.0331211
0.0350727
0.0371026
0.0391925
0.0413238
0.0434786
0.0456398
0.0477921
0.0499218
0.0520168
0.054067
7.81563e-07
2.0605e-05
5.87197e-05
0.000139164
0.000236515
0.000320482
0.000390668
0.000450934
0.000504333
0.000552907
0.000598041
0.000640732
0.000681743
0.000721696
0.000761123
0.000800512
0.000840328
0.000881048
0.000923181
0.000967303
0.0010141
0.00106444
0.00111944
0.00118068
0.00125038
0.0013305
0.00142199
0.00152832
0.00165585
0.00181217
0.00200669
0.00225094
0.00255851
0.00294452
0.0034247
0.00401368
0.00472391
0.00557346
0.00652584
0.00753348
0.00856818
0.00960866
0.0106352
0.0116249
0.0125544
0.0134016
0.0141478
0.0147769
0.0152792
0.0156536
0.015905
0.0160424
0.0160869
0.016058
0.0159741
0.0158515
0.0157049
0.0155465
0.0153867
0.0152336
0.0150933
0.0149701
0.0148666
0.0147841
0.0147231
0.0146833
0.0146634
0.0146622
0.0146784
0.0147108
0.0147583
0.0148206
0.0148976
0.0149891
0.0150941
0.0152101
0.0153364
0.0154729
0.015619
0.0157736
0.0159355
0.0161032
0.0162751
0.0164504
0.0166287
0.0168132
0.017013
0.0172328
0.0174768
0.0177523
0.0180705
0.0184466
0.0188999
0.0194544
0.0201366
0.0209702
0.0219734
0.0231604
0.0245333
0.0260766
0.027758
0.0295372
0.0313953
0.0333439
0.0353855
0.0375017
0.0396731
0.0418806
0.0441056
0.046331
0.0485412
0.0507225
0.052863
0.0549528
8.76173e-07
2.30409e-05
6.54886e-05
0.000151676
0.000253674
0.000340462
0.00041231
0.000473652
0.00052768
0.000576496
0.000621529
0.000663803
0.000704094
0.000743016
0.000781087
0.000818757
0.000856442
0.00089454
0.000933449
0.000973584
0.0010154
0.0010594
0.00110621
0.00115657
0.00121148
0.00127228
0.00134084
0.00141947
0.00150895
0.00161127
0.00173208
0.00187805
0.00205754
0.00228088
0.00256055
0.00291094
0.00334763
0.00388633
0.0045397
0.00532433
0.00622268
0.00719255
0.00819711
0.00921753
0.0102311
0.0112169
0.0121543
0.0130231
0.013802
0.0144727
0.015024
0.0154515
0.0157612
0.0159638
0.0160725
0.016102
0.0160669
0.0159813
0.0158584
0.0157102
0.0155472
0.0153784
0.0152111
0.0150513
0.0149035
0.0147709
0.0146558
0.0145596
0.014483
0.0144266
0.014391
0.0143762
0.0143828
0.0144115
0.0144627
0.0145346
0.0146259
0.0147359
0.0148636
0.0150079
0.0151675
0.0153407
0.0155257
0.0157204
0.0159225
0.0161305
0.0163471
0.0165805
0.0168394
0.0171321
0.0174684
0.0178623
0.0183327
0.0189049
0.0196074
0.020468
0.021508
0.0227439
0.0241827
0.0258141
0.0276101
0.0295276
0.0315213
0.0335756
0.0357025
0.0378993
0.0401459
0.0424227
0.0447108
0.0469931
0.049254
0.0514799
0.053659
0.0557817
0.0578401
9.94092e-07
2.60641e-05
7.38524e-05
0.000166621
0.000273599
0.000363158
0.000436866
0.000499422
0.00055419
0.000603379
0.000648481
0.000690562
0.000730415
0.000768667
0.000805831
0.000842349
0.000878613
0.000914988
0.000951825
0.000989467
0.00102827
0.0010686
0.00111086
0.00115552
0.0012031
0.0012543
0.00130995
0.00137122
0.00143972
0.00151773
0.00160633
0.0017065
0.00182273
0.00196102
0.00212873
0.00233501
0.00259109
0.00291019
0.00330696
0.00379668
0.00439237
0.00510845
0.00594433
0.00686567
0.00782877
0.00881511
0.00980301
0.010771
0.0116986
0.0125643
0.0133494
0.0140373
0.0146182
0.0150896
0.0154537
0.0157172
0.0158889
0.0159793
0.0159994
0.015961
0.0158751
0.0157528
0.0156039
0.0154375
0.0152616
0.0150832
0.0149079
0.0147407
0.0145855
0.0144456
0.0143239
0.0142231
0.0141457
0.0140944
0.0140718
0.0140787
0.0141141
0.0141769
0.0142662
0.0143807
0.0145193
0.0146803
0.0148618
0.0150615
0.0152762
0.015503
0.01574
0.0159894
0.0162596
0.0165615
0.0169066
0.0173109
0.0177948
0.0183833
0.0191059
0.0199932
0.0210681
0.0223483
0.0238444
0.0255495
0.0274397
0.0294754
0.0316053
0.0337831
0.036
0.0382688
0.040582
0.0429193
0.0452619
0.0475925
0.0498958
0.0521583
0.0543685
0.0565171
0.0585964
1.13771e-06
2.97281e-05
8.38879e-05
0.000183881
0.000295809
0.000388339
0.000463921
0.00052768
0.000583194
0.000632791
0.000678036
0.000720035
0.000759609
0.000797396
0.000833916
0.000869611
0.000904867
0.000940036
0.000975447
0.00101141
0.00104825
0.00108625
0.00112575
0.00116707
0.00121057
0.00125665
0.0013058
0.0013586
0.00141581
0.00147842
0.00154782
0.001626
0.00171467
0.00181436
0.00192798
0.00206106
0.00222005
0.00241303
0.00264985
0.00294227
0.00330358
0.0037479
0.00428814
0.00493581
0.00570334
0.00656271
0.00747408
0.00841454
0.00936342
0.0102984
0.0111982
0.0120436
0.0128172
0.0135071
0.0141048
0.0146065
0.0150125
0.0153255
0.0155511
0.0156964
0.0157697
0.0157797
0.0157358
0.0156472
0.0155229
0.0153714
0.0152007
0.015018
0.0148301
0.0146431
0.0144626
0.0142939
0.0141421
0.0140125
0.0139118
0.0138446
0.0138115
0.0138125
0.013847
0.0139146
0.0140143
0.0141449
0.0143048
0.0144919
0.0147031
0.0149351
0.0151844
0.0154493
0.0157323
0.0160435
0.0163972
0.0168095
0.0173016
0.0179003
0.0186374
0.019547
0.0206544
0.0219766
0.0235244
0.025291
0.0272545
0.0293811
0.0316246
0.0339255
0.0362418
0.0385799
0.0409507
0.0433389
0.0457261
0.0480954
0.0504317
0.0527222
0.0549556
0.057123
0.0592168
1.30943e-06
3.40849e-05
9.56237e-05
0.000203212
0.000320216
0.000415656
0.000493025
0.000557917
0.000614138
0.000664137
0.000709548
0.00075152
0.000790897
0.000828336
0.000864364
0.000899428
0.000933915
0.000968176
0.00100253
0.00103729
0.00107274
0.00110916
0.00114683
0.00118604
0.00122705
0.00127016
0.00131568
0.00136397
0.00141544
0.00147059
0.0015301
0.00159483
0.001666
0.00174529
0.00183491
0.00193542
0.00204823
0.00217835
0.00233148
0.0025147
0.00273659
0.0030074
0.00333885
0.00374362
0.00423427
0.00482026
0.00551554
0.00630459
0.00715544
0.00803854
0.00893444
0.00982118
0.0106787
0.0114895
0.0122401
0.0129194
0.01352
0.0140372
0.0144692
0.014817
0.015083
0.0152718
0.0153892
0.0154419
0.0154371
0.0153824
0.0152854
0.015154
0.0149957
0.0148181
0.0146284
0.014434
0.0142421
0.0140602
0.0138992
0.013768
0.0136702
0.0136078
0.0135821
0.0135939
0.0136435
0.0137307
0.0138545
0.0140137
0.0142057
0.0144277
0.014676
0.0149476
0.0152417
0.0155625
0.0159237
0.0163443
0.0168468
0.0174589
0.0182137
0.0191463
0.0202829
0.0216409
0.023231
0.0250467
0.0270618
0.0292432
0.0315564
0.0339532
0.0363835
0.0388114
0.0412336
0.0436585
0.0460768
0.0484721
0.05083
0.053138
0.0553854
0.0575636
0.0596656
0.0616857
1.51127e-06
3.91802e-05
0.000109095
0.000224656
0.000346497
0.000444715
0.00052376
0.000589697
0.00064657
0.000696946
0.000742525
0.000784494
0.000823719
0.000860871
0.000896489
0.000931025
0.000964876
0.000998392
0.0010319
0.0010657
0.00110009
0.00113534
0.00117172
0.00120948
0.00124887
0.00129012
0.00133349
0.0013792
0.00142753
0.00147878
0.00153329
0.00159152
0.00165406
0.00172168
0.00179547
0.00187692
0.00196825
0.00207053
0.00218437
0.00231365
0.00246361
0.00264047
0.00285166
0.00310604
0.00341376
0.00378574
0.00423326
0.00476478
0.00538988
0.00610601
0.00688809
0.00770304
0.00853371
0.00936046
0.0101652
0.0109325
0.0116495
0.0123068
0.0128966
0.0134142
0.0138565
0.0142226
0.0145135
0.0147314
0.0148803
0.0149647
0.0149903
0.014963
0.0148897
0.0147772
0.0146329
0.0144644
0.0142798
0.014088
0.013902
0.0137346
0.0135927
0.0134812
0.0134041
0.0133641
0.0133634
0.0134034
0.0134847
0.0136072
0.0137697
0.0139702
0.0142059
0.0144739
0.0147724
0.0151025
0.0154724
0.0159018
0.0164159
0.017044
0.01782
0.0187793
0.0199473
0.0213402
0.0229643
0.0248102
0.0268595
0.0290809
0.031438
0.0338904
0.0363938
0.0389066
0.0413991
0.0438592
0.0462929
0.0486996
0.0510652
0.0533779
0.0556277
0.0578063
0.0599067
0.0619235
1.74391e-06
4.50187e-05
0.000124195
0.00024802
0.000374591
0.00047525
0.000555763
0.000622645
0.000680114
0.000730837
0.000776575
0.000818553
0.000857649
0.000894538
0.000929777
0.00096383
0.000997102
0.00102995
0.00106271
0.00109568
0.00112918
0.00116347
0.00119884
0.00123553
0.00127377
0.0013138
0.00135582
0.00140001
0.00144658
0.00149571
0.00154762
0.00160256
0.00166083
0.00172284
0.00178912
0.00186039
0.00193766
0.00202227
0.00211619
0.00222123
0.00233777
0.00246821
0.00261752
0.00279112
0.00299549
0.00323816
0.00352766
0.00387305
0.00428346
0.00476608
0.00532603
0.00596924
0.00667587
0.00741856
0.00817815
0.00893865
0.00968375
0.0103997
0.0110746
0.0116989
0.0122659
0.0127697
0.013207
0.0135756
0.0138751
0.0141066
0.014272
0.0143745
0.0144185
0.0144088
0.0143514
0.0142526
0.01412
0.0139622
0.0137922
0.0136245
0.0134694
0.0133344
0.0132261
0.0131498
0.0131098
0.0131095
0.0131515
0.0132373
0.0133675
0.0135415
0.0137582
0.0140156
0.0143124
0.0146494
0.0150314
0.0154728
0.0160014
0.0166489
0.0174497
0.018439
0.0196382
0.02106
0.0227145
0.0245915
0.0266682
0.0289134
0.0312915
0.0337653
0.036297
0.0388494
0.0413896
0.0438943
0.0463524
0.0487602
0.0511152
0.0534134
0.0556494
0.0578169
0.0599098
0.0619225
2.00744e-06
5.15793e-05
0.000140693
0.000272843
0.000403921
0.000506898
0.000588792
0.000656553
0.000714576
0.000765618
0.000811485
0.000853428
0.000892355
0.000928963
0.000963812
0.000997377
0.00103008
0.00106229
0.00109431
0.0011265
0.00115916
0.0011926
0.0012271
0.00126291
0.00130028
0.00133943
0.00138056
0.00142383
0.00146941
0.00151744
0.00156805
0.00162138
0.00167761
0.00173695
0.00179967
0.00186614
0.00193688
0.00201256
0.00209414
0.00218286
0.0022805
0.00238933
0.00250991
0.00264339
0.00279425
0.00296726
0.00316803
0.00340282
0.00367857
0.00400244
0.00438142
0.00482161
0.00532553
0.00589787
0.00652869
0.00719836
0.00788473
0.00857541
0.00925634
0.00991481
0.0105401
0.0111229
0.0116558
0.0121337
0.0125522
0.0129086
0.0132016
0.013431
0.013598
0.0137045
0.0137538
0.0137505
0.0137
0.0136094
0.0134899
0.0133556
0.0132185
0.0130885
0.0129743
0.0128834
0.0128223
0.012796
0.0128092
0.0128658
0.0129681
0.0131175
0.0133145
0.0135592
0.0138516
0.0141935
0.0145899
0.0150513
0.0156002
0.0162723
0.0171016
0.018121
0.0193527
0.0208075
0.0224916
0.0243932
0.0264881
0.0287448
0.0311283
0.033603
0.0361344
0.0386896
0.0412387
0.0437568
0.0462263
0.0486376
0.0509865
0.0532707
0.0554884
0.0576365
0.0597115
0.0617091
2.30307e-06
5.88541e-05
0.000158388
0.00029878
0.000434082
0.000539212
0.000622399
0.000690991
0.000749549
0.000800906
0.000846912
0.000888838
0.00092761
0.000963934
0.000998376
0.00103142
0.00106348
0.00109494
0.00112618
0.00115753
0.00118935
0.00122198
0.00125565
0.00129067
0.0013273
0.00136577
0.00140628
0.00144899
0.00149405
0.00154156
0.00159162
0.00164432
0.00169975
0.001758
0.00181923
0.00188361
0.00195142
0.00202301
0.0020989
0.00217975
0.00226647
0.00236028
0.00246279
0.00257634
0.00270198
0.00284016
0.00299437
0.00316892
0.00336852
0.00359831
0.00386374
0.00417032
0.00452307
0.00492638
0.00538184
0.00589
0.00645019
0.00704747
0.00766311
0.00828385
0.00889868
0.00949588
0.0100656
0.0105993
0.0110897
0.0115309
0.0119186
0.0122498
0.0125225
0.0127361
0.0128908
0.0129885
0.0130318
0.0130258
0.0129778
0.0129003
0.0128056
0.0127048
0.012608
0.0125241
0.0124611
0.0124263
0.0124259
0.0124649
0.0125481
0.0126791
0.0128604
0.0130943
0.013383
0.0137301
0.0141419
0.0146298
0.0152108
0.0159136
0.0167766
0.0178325
0.0190994
0.0205866
0.0222966
0.0242153
0.0263177
0.0285727
0.0309464
0.0334051
0.0359166
0.0384509
0.0409809
0.0434832
0.0459399
0.0483377
0.0506696
0.0529327
0.0551257
0.0572477
0.0592971
0.0612717
2.63307e-06
6.68872e-05
0.000177137
0.00032556
0.000464766
0.000571876
0.000656267
0.000725648
0.000784717
0.000836375
0.000882504
0.000924397
0.000962989
0.000998994
0.00103299
0.00106547
0.00109686
0.00112757
0.00115797
0.00118845
0.00121935
0.00125103
0.00128382
0.00131804
0.00135399
0.00139191
0.00143194
0.0014743
0.00151912
0.00156648
0.00161645
0.00166909
0.00172444
0.00178254
0.00184343
0.00190722
0.00197402
0.00204402
0.00211751
0.00219484
0.00227653
0.00236327
0.00245594
0.00255573
0.00266413
0.00278322
0.00291473
0.00305886
0.00321775
0.00339532
0.00359539
0.00382211
0.00407962
0.00437193
0.00470247
0.00507392
0.00548769
0.00594241
0.00643831
0.00696731
0.00751613
0.00806884
0.00861716
0.00915119
0.00966168
0.0101406
0.010581
0.0109771
0.0113242
0.0116195
0.0118608
0.0120473
0.0121794
0.012259
0.0122893
0.0122793
0.0122408
0.0121851
0.0121225
0.0120628
0.0120149
0.0119871
0.0119869
0.0120214
0.0120966
0.0122177
0.0123894
0.0126169
0.0129046
0.0132584
0.0136871
0.0142032
0.0148243
0.0155731
0.0164805
0.0175769
0.018878
0.020393
0.0221213
0.0240472
0.026145
0.0283844
0.0307329
0.0331588
0.0356323
0.0381259
0.040615
0.0430785
0.0454992
0.0478644
0.050165
0.052396
0.0545562
0.0566453
0.0586634
0.0606094
2.99482e-06
7.56378e-05
0.000196662
0.000352828
0.000495633
0.00060457
0.000690092
0.000760221
0.000819774
0.000871707
0.00091793
0.000959749
0.00099811
0.00103374
0.00106722
0.00109905
0.00112969
0.00115956
0.00118906
0.0012186
0.00124857
0.00127933
0.00131124
0.00134466
0.00137987
0.00141716
0.00145675
0.00149885
0.00154364
0.00159106
0.00164122
0.00169416
0.00174988
0.00180835
0.00186961
0.00193366
0.00200054
0.00207034
0.0021432
0.00221932
0.002299
0.00238262
0.00247073
0.002564
0.00266332
0.00276983
0.0028849
0.00301032
0.00314824
0.00329895
0.00346329
0.00364462
0.00384597
0.00407059
0.00432151
0.00460149
0.00491282
0.00525691
0.00563451
0.00604418
0.00648334
0.00695069
0.00743513
0.00792406
0.00840768
0.00887819
0.00932724
0.00974756
0.0101327
0.0104772
0.0107767
0.0110284
0.0112308
0.0113835
0.0114859
0.0115427
0.0115637
0.0115595
0.0115401
0.011515
0.0114937
0.0114847
0.0114966
0.0115372
0.011614
0.011734
0.0119034
0.0121295
0.0124196
0.0127822
0.0132283
0.0137725
0.0144333
0.0152332
0.0161978
0.017343
0.0186779
0.0202137
0.0219504
0.0238715
0.0259519
0.0281616
0.03047
0.0328475
0.0352674
0.037705
0.0401378
0.0425462
0.0449145
0.0472307
0.0494863
0.0516754
0.0537948
0.0558447
0.0578259
0.0597387
3.38158e-06
8.49272e-05
0.000216517
0.000380133
0.000526272
0.000636917
0.000723514
0.000794361
0.000854376
0.000906556
0.000952834
0.000994526
0.00103259
0.00106775
0.00110062
0.0011317
0.00116148
0.0011904
0.0012189
0.00124742
0.00127636
0.00130616
0.00133719
0.00136982
0.00140438
0.00144116
0.00148039
0.00152227
0.00156693
0.00161445
0.00166493
0.00171843
0.00177477
0.00183395
0.00189597
0.00196079
0.00202838
0.00209877
0.00217202
0.00224822
0.00232753
0.00241019
0.00249651
0.00258692
0.00268196
0.00278231
0.00288883
0.00300259
0.00312488
0.00325717
0.00340156
0.00355875
0.00372863
0.00391366
0.00411625
0.00433874
0.00458333
0.00485183
0.00514564
0.00546527
0.00581042
0.00618017
0.00657147
0.00698242
0.00740697
0.00783474
0.00825555
0.00866298
0.00904979
0.00940951
0.00973644
0.0100258
0.0102741
0.0104789
0.0106374
0.0107507
0.0108261
0.0108719
0.0108971
0.0109106
0.0109214
0.0109383
0.0109699
0.0110245
0.0111106
0.0112364
0.0114099
0.0116396
0.0119355
0.0123086
0.0127721
0.013342
0.0140375
0.0148799
0.0158907
0.0170787
0.0184488
0.020009
0.0217536
0.0236661
0.0257227
0.0278954
0.0301549
0.0324723
0.0348246
0.0371929
0.0395569
0.0418983
0.0442024
0.0464581
0.0486575
0.0507953
0.0528671
0.0548714
0.0568098
0.0586836
3.78254e-06
9.4459e-05
0.000236251
0.00040697
0.000556272
0.000668557
0.000756199
0.000827745
0.000888195
0.000940585
0.000986863
0.00102836
0.00106603
0.00110063
0.00113276
0.00116298
0.00119177
0.00121961
0.00124699
0.00127437
0.00130221
0.00133096
0.00136106
0.0013929
0.00142682
0.00146314
0.0015021
0.00154388
0.00158862
0.0016364
0.00168726
0.0017412
0.00179818
0.00185819
0.00192126
0.00198714
0.00205579
0.00212723
0.00220145
0.00227846
0.00235835
0.00244125
0.00252735
0.0026169
0.00271025
0.00280783
0.00291019
0.00301799