/*--------------------------------*- C++ -*----------------------------------*\
  =========                 |
  \\      /  F ield         | OpenFOAM: The Open Source CFD Toolbox
   \\    /   O peration     | Website:  https://openfoam.org
    \\  /    A nd           | Version:  10
     \\/     M anipulation  |
\*---------------------------------------------------------------------------*/
FoamFile
{
    format      ascii;
    class       volScalarField;
    location    "31000";
    object      omega;
}
// * * * * * * * * * * * * * * * * * * * * * * * * * * * * * * * * * * * * * //

dimensions      [0 0 -1 0 0 0 0];

internalField   nonuniform List<scalar> 
17969
(
5562.21
1287.4
410.12
217.393
163.472
148.882
151.723
166.596
192.087
224.911
260.015
296.033
328.028
347.006
351.651
343.529
325.812
302.223
276.016
249.805
225.083
202.224
181.398
162.696
146.072
131.403
118.535
107.313
97.583
89.1767
81.9235
75.6596
70.2371
65.5262
61.4155
57.8107
54.6326
51.8151
49.303
47.0505
45.0196
43.1784
41.5007
39.9644
38.551
37.2454
36.0345
34.9075
33.8552
32.87
31.9453
31.0756
30.2561
29.4829
28.7526
28.0623
27.4094
26.792
26.2083
25.6568
25.1364
24.6459
24.1848
23.7522
23.348
22.9717
22.6234
22.3032
22.0111
21.7478
21.5138
21.3098
21.1368
20.9962
20.8909
20.8223
20.788
20.7852
20.8139
20.8725
20.9608
21.0784
21.2256
21.4033
21.6133
21.8578
22.1396
22.4613
22.8248
23.2318
23.6869
24.1973
24.7679
25.402
26.0894
26.8047
27.5448
28.3227
29.1395
29.9908
5562.29
1299.67
394.478
188.143
130.354
112.271
110.311
118.353
134.682
156.121
179.579
205.569
232.392
259.005
283.621
300.492
307.421
304.667
293.85
277.316
257.495
236.366
215.649
196.089
177.804
161.008
145.775
132.089
119.878
109.038
99.4581
91.0322
83.6514
77.2032
71.5736
66.6537
62.344
58.5563
55.214
52.2516
49.6132
47.252
45.1284
43.2089
41.4658
39.8753
38.4179
37.0768
35.8381
34.6899
33.6223
32.6268
31.6962
30.8246
30.0067
29.2382
28.5155
27.8353
27.195
26.5924
26.0256
25.4931
24.9937
24.5264
24.0904
23.6852
23.3105
22.9662
22.6524
22.3693
22.1175
21.8977
21.7107
21.5579
21.4422
21.365
21.3233
21.3139
21.3354
21.3874
21.4689
21.5791
21.7177
21.8855
22.0837
22.315
22.5827
22.8905
23.2425
23.6413
24.0888
24.5872
25.1441
25.7673
26.4537
27.1773
27.9298
28.7261
29.5673
30.4487
5562.35
1311.27
391.453
171.867
109.366
88.4785
83.1604
86.7228
97.3983
112.517
128.936
146.781
166.03
186.892
208.034
228.42
247.721
262.765
271.008
271.938
266.193
255.123
240.439
223.794
206.524
189.697
173.721
158.705
144.817
132.121
120.618
110.263
100.987
92.7091
85.3472
78.8223
73.056
67.9692
63.4833
59.5232
56.0196
52.9104
50.1411
47.6647
45.4408
43.4351
41.6184
39.9659
38.4566
37.0727
35.7994
34.6237
33.5349
32.5239
31.5828
30.7052
29.8853
29.1185
28.4008
27.7287
27.0995
26.5107
25.9604
25.447
24.9693
24.5263
24.1174
23.742
23.4002
23.0919
22.8175
22.5777
22.3731
22.205
22.0765
21.9887
21.9382
21.9212
21.9343
21.9785
22.0521
22.1536
22.2826
22.4392
22.6248
22.8419
23.0942
23.3861
23.7231
24.1101
24.5507
25.0465
25.598
26.2115
26.8951
27.6249
28.3882
29.2016
30.0661
30.9766
5562.39
1318.79
393.638
164.915
97.7499
74.067
65.8374
65.4642
71.0684
81.531
93.3846
106.382
120.42
135.481
151.621
168.949
186.29
202.624
218.285
231.723
240.51
243.866
241.776
234.934
224.444
211.576
197.48
183.121
169.158
155.822
143.242
131.538
120.772
110.95
102.048
94.015
86.7927
80.3169
74.5247
69.3556
64.7512
60.6542
57.0089
53.762
50.8644
48.2714
45.9437
43.8468
41.9509
40.2303
38.6632
37.2308
35.9173
34.7089
33.5942
32.5633
31.608
30.7209
29.8963
29.1289
28.4144
27.7493
27.1304
26.5554
26.0222
25.5292
25.0752
24.6592
24.2809
23.9399
23.6363
23.3706
23.1435
22.9557
22.8107
22.7091
22.6469
22.6194
22.6219
22.6558
22.7188
22.8091
22.9261
23.0698
23.2415
23.4435
23.6796
23.9549
24.2752
24.6471
25.0764
25.5674
26.1211
26.7368
27.418
28.1494
28.9226
29.7521
30.639
31.578
32.5602
33.5749
34.6101
35.6536
5562.42
1323.57
396.631
162.856
92.1934
66.1717
55.5986
52.1946
53.4622
58.887
67.3393
76.763
87.2433
98.6035
110.819
123.855
137.715
152.537
167.264
181.073
194.055
205.803
214.653
219.502
219.994
216.37
209.285
199.636
188.376
176.322
164.206
152.43
141.117
130.411
120.404
111.15
102.662
94.9238
87.9017
81.5505
75.8201
70.6596
66.0194
61.8525
58.1142
54.762
51.7552
49.0556
46.6278
44.4396
42.462
40.6698
39.0405
37.5551
36.1969
34.9516
33.8071
32.7529
31.7801
30.8812
30.0498
29.2803
28.5683
27.9099
27.302
26.742
26.2279
25.7581
25.3315
24.9474
24.6054
24.3057
24.0485
23.8345
23.6669
23.5461
23.4672
23.4247
23.4135
23.4313
23.4787
23.5538
23.6554
23.7836
23.9394
24.1252
24.3447
24.6029
24.906
25.2614
25.6764
26.1576
26.709
27.3304
28.0191
28.7546
29.5352
30.3791
31.2867
32.2525
33.267
34.3185
35.3942
36.4808
5562.44
1326.76
399.329
162.984
90.0954
62.4003
50.1554
44.6743
43.0728
44.4602
48.777
55.3404
62.7443
71.1293
80.4771
90.5898
101.433
112.95
125.099
137.963
150.745
162.749
173.856
184.123
192.633
198.247
200.478
199.244
194.872
187.941
179.179
169.309
158.934
148.585
138.509
128.796
119.574
110.922
102.885
95.479
88.6942
82.5073
76.8845
71.7861
67.1708
62.9975
59.2267
55.8215
52.7473
49.9717
47.4645
45.1977
43.1455
41.2844
39.5933
38.0535
36.6484
35.3636
34.1867
33.1068
32.1146
31.2022
30.3629
29.591
28.8817
28.2311
27.6359
27.0936
26.602
26.1598
25.766
25.4198
25.1212
24.8701
24.6699
24.5205
24.4162
24.3508
24.3187
24.3142
24.3403
24.395
24.4773
24.587
24.725
24.8933
25.0953
25.3359
25.6215
25.9598
26.359
26.8275
27.3714
27.9937
28.6892
29.4345
30.2257
31.0824
32.0098
33.0015
34.0474
35.135
36.2503
37.3789
5562.45
1329.33
402.1
164.297
89.9864
61.1429
47.7692
40.956
37.6209
36.6034
37.5543
40.5949
45.5147
51.2656
57.8604
65.3533
73.7598
82.8854
92.6503
102.98
113.805
125.149
136.477
147.138
156.878
165.822
173.703
179.609
182.938
183.433
181.176
176.508
169.931
162.033
153.363
144.39
135.465
126.742
118.327
110.311
102.765
95.7284
89.2159
83.2243
77.7374
72.7298
68.1706
64.0261
60.2624
56.8464
53.7467
50.934
48.3814
46.0639
43.9586
42.0446
40.3028
38.716
37.2688
35.9473
34.7394
33.6345
32.6233
31.6978
30.8512
30.0777
29.3724
28.7313
28.1511
27.6291
27.1633
26.7522
26.3947
26.0902
25.8421
25.6503
25.5084
25.4092
25.347
25.3148
25.3126
25.3414
25.4001
25.4881
25.6058
25.7549
25.9383
26.1606
26.4278
26.7477
27.1294
27.5822
28.1145
28.7314
29.4281
30.184
30.9892
31.8598
32.8071
33.8249
34.9023
36.0258
37.1803
38.3501
39.5201
5562.45
1331.34
405.069
166.313
91.0268
61.3722
47.2293
39.5623
35.1862
32.8183
31.9267
32.356
34.2174
37.603
42.0387
47.1133
52.9916
59.7298
67.3373
75.6318
84.5146
93.8919
103.671
113.823
124.024
133.648
142.367
150.303
157.447
163.278
167.185
168.856
168.195
165.355
160.659
154.538
147.46
139.832
132.033
124.288
116.687
109.339
102.324
95.699
89.4984
83.7369
78.4149
73.5218
69.0389
64.9422
61.2051
57.7995
54.6978
51.8735
49.3018
46.9595
44.8255
42.8805
41.1069
39.489
38.0124
36.6644
35.4335
34.3098
33.2843
32.3493
31.4983
30.7254
30.026
29.396
28.832
28.3316
27.8925
27.5135
27.1985
26.948
26.7543
26.6095
26.5075
26.4416
26.405
26.4028
26.4336
26.4964
26.5911
26.7188
26.8817
27.0836
27.3301
27.6289
27.9895
28.4225
28.938
29.5435
30.2364
30.9992
31.8212
32.7113
33.6796
34.7243
35.8334
36.9924
38.185
39.3945
40.6048
41.8013
42.9715
5562.43
1332.73
408.173
168.72
92.7024
62.4349
47.7411
39.5078
34.4885
31.3385
29.4448
28.5303
28.5084
29.4387
31.519
34.737
38.5906
43.068
48.3057
54.3711
61.2609
68.812
76.9363
85.5254
94.4644
103.678
113.02
121.879
129.808
136.954
143.358
148.88
153.022
155.429
155.925
154.521
151.397
146.844
141.226
134.915
128.228
121.428
114.657
108.008
101.562
95.3926
89.5477
84.057
78.9354
74.1861
69.8027
65.7718
62.0752
58.6919
55.5993
52.7748
50.1961
47.8423
45.6935
43.7318
41.9406
40.3049
38.8113
37.4477
36.2035
35.0691
34.0362
33.0975
32.2468
31.4785
30.7882
30.1721
29.6273
29.1517
28.7505
28.4247
28.1654
27.9635
27.8119
27.7047
27.633
27.5934
27.591
27.6241
27.6918
27.7943
27.9328
28.1101
28.3313
28.6039
28.9376
29.3444
29.8367
30.4254
31.1112
31.8807
32.7239
33.6386
34.6306
35.7029
36.8433
38.0362
39.2647
40.5109
41.758
42.9906
44.1959
45.3634
5562.41
1333.33
411.269
171.272
94.6665
63.9017
48.7848
40.1547
34.7239
31.1105
28.6608
27.0453
26.1019
25.7726
26.0813
27.141
29.1332
32.0024
35.3518
39.2814
43.9258
49.365
55.5448
62.406
69.8545
77.7686
86.0143
94.4683
103.11
111.326
118.692
125.265
131.108
136.201
140.317
143.11
144.385
144.059
142.203
138.997
134.7
129.612
124.011
118.159
112.226
106.293
100.454
94.7843
89.3419
84.1678
79.289
74.7204
70.4674
66.5269
62.8899
59.5432
56.4705
53.6538
51.0746
48.7147
46.5566
44.5837
42.7806
41.1333
39.6289
38.2561
37.0047
35.8657
34.8313
33.8947
33.0499
32.2921
31.6175
31.0235
30.5167
30.099
29.7601
29.4892
29.2776
29.1194
29.0057
28.9276
28.8861
28.8835
28.9182
28.9889
29.096
29.2419
29.4308
29.6704
29.9709
30.3451
30.8082
31.3742
32.0505
32.829
33.6992
34.6523
35.6746
36.7687
37.935
39.157
40.4165
41.6947
42.9741
44.2387
45.4751
46.6727
47.8236
48.9223
5562.38
1333.02
414.214
173.773
96.6786
65.4897
50.0237
41.0937
35.3826
31.482
28.7138
26.7217
25.3102
24.3749
23.8711
23.8027
24.2232
25.2498
27.0402
29.5448
32.4558
35.8867
39.9573
44.7419
50.2608
56.4786
63.3099
70.6336
78.3086
86.1775
94.1713
101.854
108.801
114.918
120.313
124.997
128.927
131.861
133.595
134.03
133.151
131.053
127.904
123.933
119.379
114.462
109.355
104.159
98.9573
93.8279
88.8338
84.0237
79.4339
75.0895
71.0056
67.1891
63.6394
60.3513
57.315
54.5187
51.9484
49.5893
47.4268
45.4464
43.6345
41.9784
40.4664
39.0876
37.8327
36.6934
35.6625
34.7337
33.9023
33.165
32.5304
32.0015
31.5661
31.2114
30.9268
30.7045
30.5377
30.4167
30.3314
30.284
30.276
30.3051
30.3721
30.479
30.6308
30.8348
31.1007
31.4419
31.874
32.4133
33.0743
33.8521
34.7375
35.7243
36.79
37.915
39.1005
40.3453
41.63
42.9348
44.2413
45.533
46.7962
48.0201
49.1968
50.3208
51.3887
52.3991
53.3514
54.2465
5562.34
1331.74
416.848
176.06
98.5715
67.0191
51.254
42.0822
36.1649
32.0739
29.1143
26.9138
25.2592
24.0246
23.1373
22.5614
22.2902
22.3464
22.787
23.7169
25.2721
27.4341
29.9514
32.9031
36.4206
40.6024
45.492
51.0802
57.3042
64.0534
71.1857
78.534
85.9874
93.2462
99.8726
105.641
110.687
115.046
118.709
121.616
123.582
124.5
124.328
123.097
120.911
117.927
114.332
110.312
106.023
101.566
97.0192
92.4593
87.9521
83.551
79.2983
75.2261
71.357
67.7057
64.28
61.0816
58.1078
55.3524
52.8068
50.4608
48.3033
46.3226
44.507
42.846
41.3294
39.948
38.6935
37.5586
36.5375
35.6262
34.836
34.1711
33.6173
33.1593
32.7842
32.4814
32.2428
32.0603
31.9248
31.8269
31.7651
31.7457
31.7679
31.8333
31.9461
32.1119
32.34
32.6431
33.0378
33.5427
34.1759
34.938
35.8252
36.8322
37.9365
39.1075
40.3234
41.5852
42.8895
44.2156
45.5442
46.8585
48.1443
49.3908
50.59
51.7365
52.8269
53.8596
54.8344
55.7518
5562.3
1329.55
419.022
178.013
100.237
68.3825
52.362
42.9908
36.914
32.687
29.604
27.2835
25.4999
24.1159
23.0455
22.2356
21.6562
21.2957
21.1606
21.2765
21.6943
22.5023
23.8129
25.6527
27.8318
30.3681
33.3893
37.0071
41.2864
46.2457
51.8509
58.0149
64.6066
71.4591
78.4249
85.3227
91.6935
97.2066
101.985
106.095
109.541
112.315
114.354
115.548
115.85
115.256
113.826
111.667
108.918
105.727
102.219
98.4769
94.582
90.6081
86.6184
82.6661
78.7958
75.0433
71.4366
67.9964
64.7365
61.6656
58.7871
56.1005
53.6028
51.2881
49.1499
47.1803
45.3706
43.7125
42.198
40.8204
39.5735
38.4533
37.4746
36.6438
35.944
35.3576
34.8695
34.4666
34.1374
33.8729
33.6667
33.5109
33.3983
33.3236
33.2933
33.31
33.3757
33.4951
33.6766
33.9328
34.2805
34.7405
35.3341
36.0686
36.9451
37.9594
39.0909
40.3057
41.5678
42.8575
44.1762
45.5187
46.8651
48.1979
49.5031
50.7695
51.9892
53.1567
54.2688
55.3237
56.3211
57.2616
5562.25
1326.55
420.726
179.6
101.618
69.5243
53.2892
43.7593
37.562
33.2396
30.0759
27.6806
25.8238
24.3622
23.2027
22.2838
21.5647
21.02
20.6368
20.4133
20.3594
20.4995
20.8767
21.5639
22.6509
24.2008
26.0951
28.2753
30.8581
33.9595
37.6613
42.0047
46.9851
52.5441
58.5725
64.9156
71.3977
77.9319
84.0374
89.3884
93.9956
97.9266
101.222
103.881
105.895
107.219
107.809
107.659
106.793
105.284
103.243
100.778
97.972
94.9011
91.6379
88.2467
84.7853
81.3042
77.8473
74.4518
71.1482
67.9608
64.908
62.0031
59.2551
56.6691
54.247
51.9879
49.889
47.9466
46.1563
44.5138
43.0142
41.6546
40.4565
39.4296
38.5551
37.8127
37.1856
36.6593
36.2211
35.8596
35.5653
35.3312
35.1531
35.0249
34.9379
34.8934
34.8984
34.9596
35.0837
35.2825
35.5735
35.9787
36.5225
37.2191
38.0741
39.0845
40.2319
41.4814
42.7916
44.1253
45.4677
46.8223
48.1825
49.5308
50.8528
52.1375
53.3767
54.565
55.699
56.7769
57.7981
58.7631
5562.19
1322.79
421.957
180.793
102.678
70.4228
54.058
44.3992
38.0971
33.696
30.473
28.0308
26.134
24.6345
23.4346
22.4681
21.689
21.0655
20.5761
20.2079
19.9554
19.8208
19.8149
19.959
20.2888
20.8628
21.7566
23.0499
24.6945
26.5743
28.7823
31.4268
34.602
38.3649
42.7356
47.6868
53.1391
58.9678
64.9927
71.0965
76.9269
82.1314
86.593
90.3963
93.5731
96.1522
98.1338
99.5158
100.268
100.399
99.9419
98.9462
97.4799
95.6116
93.4079
90.9324
88.2445
85.3991
82.4465
79.4325
76.3974
73.3769
70.4015
67.4965
64.6831
61.9779
59.3935
56.939
54.6207
52.4427
50.4071
48.5135
46.762
45.1549
43.7222
42.4794
41.4079
40.4871
39.6986
39.0267
38.4581
37.9804
37.5821
37.2535
36.9873
36.7807
36.6288
36.5269
36.472
36.4672
36.5225
36.6532
36.8783
37.2205
37.7063
38.357
39.1822
40.1795
41.3333
42.6085
43.9605
45.3447
46.7276
48.1017
49.4727
50.8343
52.1718
53.4743
54.7333
55.9434
57.101
58.204
59.2518
60.2444
61.1827
5562.13
1318.35
422.622
181.55
103.429
71.1386
54.639
44.8712
38.4931
34.0409
30.7837
28.3182
26.4046
24.8914
23.678
22.6956
21.8953
21.2421
20.7107
20.2832
19.9474
19.6968
19.5295
19.4497
19.4675
19.6018
19.8821
20.3555
21.0899
22.1565
23.5657
25.1994
27.0966
29.351
32.0634
35.3009
39.1008
43.4607
48.3286
53.6052
59.1335
64.776
70.3023
75.3512
79.6797
83.3683
86.4542
88.9625
90.9188
92.3288
93.2061
93.5503
93.3923
92.7746
91.7408
90.3434
88.6336
86.6609
84.4727
82.1141
79.6275
77.0517
74.4227
71.7726
69.13
66.5197
63.9633
61.4785
59.0803
56.7809
54.5899
52.5153
50.5636
48.7435
47.0945
45.6436
44.3745
43.2681
42.3072
41.4764
40.7619
40.1515
39.6329
39.1957
38.83
38.5283
38.2881
38.1072
37.9832
37.9172
37.9144
37.9841
38.1435
38.4191
38.8419
39.4423
40.2328
41.2111
42.3647
43.6581
45.045
46.4765
47.9104
49.321
50.7093
52.0832
53.4366
54.7578
56.0385
57.2727
58.4567
59.5881
60.666
61.69
62.6606
5562.07
1313.35
422.637
181.858
103.966
71.6061
55.0164
45.1841
38.7658
34.2908
31.0224
28.5532
26.6402
25.1295
23.919
22.9381
22.1363
21.4771
20.9332
20.4843
20.1157
19.8165
19.5801
19.4033
19.2866
19.2348
19.2579
19.3724
19.6036
19.9895
20.5903
21.4625
22.6512
24.0855
25.7289
27.6605
29.9776
32.7538
36.0342
39.8335
44.1233
48.831
53.8309
58.9749
64.1409
68.9632
73.1632
76.7473
79.7571
82.2167
84.1499
85.5841
86.538
87.0376
87.1011
86.7643
86.0653
85.0388
83.7258
82.1658
80.3967
78.455
76.3755
74.1911
71.9321
69.6266
67.3
64.9754
62.6733
60.4118
58.207
56.0734
54.0241
52.0739
50.2732
48.6605
47.2259
45.9548
44.8331
43.8481
42.9879
42.2411
41.5964
41.0434
40.5717
40.1719
39.8369
39.565
39.357
39.2139
39.1405
39.147
39.2507
39.4768
39.856
40.4193
41.1805
42.1419
43.2933
44.6
46.0151
47.4886
48.9752
50.4368
51.8581
53.2517
54.6243
55.9676
57.2733
58.5353
59.7497
60.914
62.0266
63.0871
64.0955
5562
1307.97
421.995
181.839
104.19
71.8404
55.2235
45.3719
38.9464
34.4734
31.2132
28.7557
26.8564
25.3599
24.1629
23.1937
22.4011
21.7475
21.2048
20.7517
20.3719
20.0532
19.7865
19.5657
19.3874
19.2507
19.1577
19.1138
19.1285
19.2166
19.4002
19.7103
20.1961
20.9125
21.9113
23.1721
24.6109
26.2835
28.2711
30.6527
33.4757
36.7641
40.5077
44.6575
49.1236
53.7647
58.4896
63.0101
67.0551
70.5216
73.4457
75.8494
77.7578
79.2
80.2105
80.8163
81.0467
80.9225
80.476
79.7394
78.7402
77.511
76.0833
74.4865
72.7492
70.8985
68.9599
66.9573
64.9131
62.8482
60.7816
58.7316
56.7159
54.7533
52.9016
51.2088
49.6741
48.2896
47.047
45.9379
44.9539
44.0863
43.3262
42.6643
42.0913
41.5978
41.1752
40.8177
40.5256
40.3034
40.157
40.097
40.1416
40.3169
40.6559
41.1927
41.9429
42.9076
44.0739
45.4035
46.8448
48.3511
49.8836
51.405
52.8891
54.326
55.7236
57.0906
58.4237
59.7168
60.9656
62.1673
63.3201
64.423
65.4755
66.4776
5561.92
1302.32
420.68
181.409
104.204
71.9147
55.3143
45.4783
39.071
34.619
31.3815
28.9475
27.0714
25.5972
24.4207
23.4696
22.6921
22.05
21.5149
21.0648
20.683
20.3566
20.0756
19.8327
19.623
19.4432
19.2923
19.1711
19.0828
19.0332
19.0315
19.0912
19.2314
19.4788
19.8729
20.4704
21.3119
22.4119
23.6912
25.1603
26.8811
28.9333
31.3653
34.2049
37.4534
41.0785
45.0165
49.1527
53.3875
57.545
61.3702
64.6721
67.4785
69.8063
71.6795
73.1253
74.1737
74.8586
75.2059
75.2429
74.9886
74.471
73.7168
72.7487
71.5924
70.2728
68.8135
67.237
65.5649
63.8178
62.0156
60.1767
58.3201
56.4668
54.6763
53.0026
51.4539
50.0297
48.7284
47.5472
46.4823
45.5289
44.6815
43.9335
43.2778
42.7062
42.2106
41.7842
41.4236
41.1328
40.9216
40.8028
40.7961
40.9294
41.2378
41.7574
42.5047
43.4797
44.6657
46.0237
47.506
49.0614
50.645
52.2224
53.7687
55.2688
56.717
58.1172
59.4794
60.8063
62.0929
63.336
64.5334
65.6836
66.7857
67.839
5561.85
1296.59
418.739
180.618
103.966
71.8702
55.342
45.5465
39.1738
34.7556
31.5509
29.1479
27.3014
25.8552
24.7039
23.7746
23.0152
22.3874
21.8624
21.4181
21.0376
20.7077
20.4182
20.1616
19.9323
19.7264
19.5415
19.3769
19.2329
19.1119
19.0176
18.956
18.936
18.9698
19.0745
19.2737
19.5993
20.1029
20.8209
21.7807
22.9356
24.2458
25.7558
27.5382
29.6427
32.0959
34.9046
38.0467
41.4738
45.0992
48.8194
52.5534
56.068
59.173
61.835
64.0697
65.8926
67.3283
68.4021
69.1402
69.5731
69.7233
69.6143
69.264
68.6946
67.9285
66.9854
65.8851
64.6481
63.2932
61.8386
60.3021
58.7019
57.0592
55.4301
53.8704
52.3955
51.0119
49.7238
48.5341
47.444
46.4531
45.5598
44.7612
44.0526
43.4287
42.883
42.4092
42.0032
41.6659
41.4076
41.2456
41.2028
41.3098
41.6042
42.1234
42.882
43.8776
45.0952
46.4932
48.0194
49.6224
51.2576
52.8905
54.4957
56.0565
57.5662
59.0238
60.4329
61.7983
63.1233
64.409
65.6547
66.8588
68.0195
69.1352
5561.77
1290.95
416.314
179.593
103.579
71.7192
55.3006
45.5753
39.2586
34.8894
31.7294
29.3679
27.5586
26.1447
25.0216
24.1162
23.3762
22.763
22.2487
21.8109
21.4321
21.0994
20.8028
20.5349
20.2901
20.0643
19.8549
19.6607
19.4811
19.3167
19.1693
19.0415
18.9378
18.8641
18.8286
18.8427
18.9215
19.0859
19.3623
19.7927
20.4202
21.2677
22.3182
23.5046
24.8516
26.4148
28.2461
30.3686
32.7898
35.4937
38.4424
41.5769
44.8036
48.0631
51.2042
54.0687
56.5498
58.6616
60.4117
61.815
62.8927
63.6656
64.1553
64.3871
64.3808
64.1556
63.729
63.1184
62.3426
61.4157
60.3545
59.1761
57.8971
56.5372
55.1461
53.7776
52.4521
51.1815
49.9751
48.8406
47.7838
46.8078
45.9151
45.107
44.3821
43.7377
43.1697
42.6739
42.2471
41.8898
41.6101
41.427
41.3688
41.4703
41.7711
42.3094
43.0992
44.1338
45.3946
46.8375
48.4091
50.0578
51.74
53.4224
55.0813
56.7004
58.27
59.787
61.2541
62.6744
64.052
65.3899
66.6896
67.9512
69.1734
70.3542
5561.69
1285.5
413.515
178.397
103.09
71.5068
55.2261
45.5912
39.3446
35.0346
31.9265
29.611
27.8425
26.4645
25.3723
24.4931
23.7745
23.1782
22.675
22.243
21.8653
21.5286
21.2244
20.9452
20.6855
20.4415
20.2111
19.9926
19.7855
19.5899
19.4066
19.2369
19.0831
18.9484
18.8371
18.7549
18.7098
18.7118
18.7747
18.9167
19.1609
19.5402
20.1023
20.8626
21.8201
22.9102
24.1305
25.5158
27.118
28.9576
31.0407
33.3561
35.8728
38.5471
41.3084
44.0901
46.8322
49.3982
51.6736
53.6334
55.2843
56.6307
57.6865
58.4686
58.9943
59.2811
59.3487
59.2151
58.8966
58.4062
57.7593
56.97
56.0506
55.0199
53.9195
52.798
51.6795
50.5799
49.5123
48.4881
47.5165
46.6049
45.7591
44.9822
44.2772
43.6448
43.0837
42.5923
42.1693
41.8166
41.543
41.3671
41.3192
41.4389
41.7699
42.3492
43.187
44.2729
45.5838
47.0735
48.6884
50.3784
52.1019
53.8274
55.5327
57.2027
58.8283
60.4045
61.9303
63.4093
64.8454
66.2419
67.6015
68.9252
70.2128
71.4628
5561.6
1280.2
410.301
177.042
102.522
71.256
55.1382
45.6102
39.445
35.2021
32.1516
29.8862
28.1614
26.8211
25.761
24.9083
24.2107
23.6299
23.1369
22.71
22.3326
21.9924
21.6801
21.3889
21.1136
20.8514
20.6007
20.3599
20.1285
19.9068
19.6951
19.4943
19.3058
19.1314
18.9734
18.8352
18.7209
18.6362
18.5881
18.5862
18.6427
18.7736
18.9997
19.3468
19.8593
20.5525
21.4281
22.4409
23.5593
24.7996
26.2084
27.8064
29.5972
31.5724
33.7073
35.9666
38.3049
40.6602
42.9984
45.2358
47.2834
49.0644
50.5866
51.8502
52.8604
53.6274
54.164
54.484
54.6014
54.5344
54.2969
53.9012
53.3589
52.685
51.9079
51.0706
50.1991
49.3124
48.4267
47.5559
46.7121
45.9052
45.1439
44.4351
43.7839
43.1934
42.6655
42.2025
41.8055
41.4793
41.2352
41.0936
41.0857
41.2521
41.6375
42.2751
43.1713
44.3142
45.6763
47.2101
48.8634
50.5881
52.3453
54.1059
55.8494
57.5623
59.236
60.8658
62.45
63.9891
65.4865
66.946
68.3703
69.7613
71.1196
72.4443
5561.52
1275.26
406.833
175.584
101.904
70.9854
55.051
45.6433
39.5686
35.399
32.4101
30.1976
28.5183
27.2168
26.1892
25.3628
24.6857
24.1193
23.6352
23.2118
22.833
22.487
22.1649
21.8607
21.5701
21.2903
21.0197
20.7573
20.5026
20.2569
20.0203
19.7932
19.577
19.3727
19.1818
19.0063
18.8486
18.712
18.6004
18.5192
18.475
18.4766
18.5348
18.6639
18.8822
19.2105
19.6834
20.3252
21.1315
22.0757
23.1077
24.2303
25.4747
26.8665
28.4067
30.0893
31.8966
33.8005
35.7697
37.7582
39.7224
41.64
43.4304
45.0262
46.4042
47.5654
48.5088
49.24
49.7668
50.0996
50.2492
50.2288
50.0541
49.7363
49.2965
48.7645
48.1645
47.5177
46.8426
46.1551
45.4695
44.798
44.1512
43.5384
42.9673
42.444
41.9723
41.5575
41.2052
40.9233
40.7269
40.6396
40.6948
40.9342
41.4008
42.1162
43.0785
44.2786
45.6877
47.2593
48.9432
50.6946
52.4773
54.265
56.0396
57.789
59.5052
61.1835
62.822
64.4209
65.9814
67.5061
68.9987
70.4611
71.8947
73.2989
5561.43
1270.81
403.205
174.09
101.28
70.7241
54.9832
45.7028
39.7232
35.6301
32.7051
30.547
28.914
27.6516
26.6564
25.8559
25.1983
24.6454
24.1688
23.7475
23.3659
23.0124
22.6791
22.3605
22.0529
21.7542
21.4634
21.18
20.904
20.636
20.3761
20.1247
19.884
19.6545
19.4371
19.2332
19.0445
18.8728
18.7205
18.5908
18.4875
18.4155
18.3811
18.3921
18.4585
18.5924
18.8097
19.1282
19.5718
20.1726
20.9186
21.7946
22.7489
23.7761
24.8821
26.0979
27.4274
28.8661
30.4022
32.0123
33.6691
35.346
37.0057
38.6288
40.1726
41.578
42.8049
43.8523
44.7157
45.3964
45.898
46.2273
46.3932
46.4074
46.2891
46.06
45.7406
45.3462
44.8966
44.4094
43.9008
43.3842
42.872
42.3753
41.9036
41.4653
41.0674
40.717
40.4236
40.1999
40.0645
40.0449
40.1771
40.5031
41.063
41.8688
42.9099
44.1765
45.6359
47.2436
48.9539
50.7259
52.527
54.3327
56.1288
57.9067
59.659
61.3805
63.069
64.7243
66.347
67.9384
69.5005
71.0361
72.5467
74.0329
5561.35
1267.25
399.788
172.678
100.694
70.4927
54.9459
45.7949
39.9123
35.8969
33.0368
30.9334
29.3469
28.1236
27.1603
26.3851
25.7462
25.2058
24.7358
24.3155
23.9297
23.5678
23.2223
22.8882
22.5628
22.2445
21.9327
21.6276
21.3296
21.0392
20.7573
20.4844
20.2215
19.9692
19.728
19.5
19.2861
19.0874
18.9056
18.7425
18.6006
18.4826
18.3924
18.3344
18.3144
18.3395
18.4185
18.562
18.7833
19.0983
19.5221
20.0859
20.7771
21.5805
22.4663
23.4068
24.4015
25.4732
26.6368
27.8805
29.1924
30.5596
31.9623
33.3807
34.7906
36.1722
37.5044
38.7296
39.8127
40.7462
41.525
42.1473
42.6143
42.9303
43.1012
43.1472
43.0918
42.9474
42.7245
42.4421
42.1175
41.7649
41.3978
41.0286
40.6682
40.3268
40.014
39.7396
39.5163
39.3608
39.2963
39.3543
39.5734
39.9961
40.6527
41.5471
42.667
43.9979
45.5057
47.1484
48.8846
50.6777
52.499
54.3274
56.1487
57.9538
59.7367
61.4941
63.2244
64.9271
66.6043
68.258
69.8881
71.496
73.0837
74.6519
5561.26
1264.47
396.5
171.316
100.139
70.2899
54.939
45.9189
40.1345
36.1977
33.4026
31.3541
29.8138
28.6291
27.6973
26.9467
26.326
25.7974
25.3333
24.9134
24.5231
24.1521
23.7938
23.4439
23.1002
22.7619
22.4289
22.1017
21.7812
21.4683
21.1639
20.8689
20.5841
20.3103
20.0483
19.799
19.5631
19.3411
19.1351
18.9463
18.776
18.626
18.4986
18.3965
18.3231
18.2828
18.2806
18.3229
18.4175
18.5737
18.8022
19.1168
19.527
20.0487
20.6907
21.4256
22.2401
23.104
24.023
24.9889
26.0085
27.0892
28.2214
29.3934
30.5939
31.8092
33.0235
34.2237
35.387
36.4522
37.4046
38.2337
38.9322
39.4962
39.9186
40.2056
40.3796
40.4619
40.4522
40.3664
40.2218
40.0326
39.8125
39.5745
39.3305
39.092
38.8706
38.679
38.533
38.4529
38.4664
38.6086
38.9208
39.4453
40.1999
41.1784
42.3724
43.762
45.3128
46.9858
48.7433
50.553
52.3896
54.2349
56.0761
57.9055
59.7183
61.5121
63.2857
65.0393
66.7732
68.4876
70.1824
71.8569
73.5148
75.1602
5561.17
1262.58
393.375
170.015
99.6197
70.1179
54.9624
46.0736
40.3873
36.5289
33.7986
31.8046
30.3101
29.1635
28.2627
27.5365
26.9336
26.4167
25.9584
25.539
25.1441
24.7643
24.3933
24.0276
23.6657
23.3073
22.9529
22.6035
22.2604
21.9246
21.5975
21.28
20.973
20.6775
20.3943
20.1241
19.8676
19.6255
19.3988
19.1883
18.9946
18.8195
18.6646
18.5314
18.4219
18.3388
18.2851
18.2647
18.2823
18.3435
18.455
18.6246
18.8605
19.1723
19.5682
20.0509
20.6354
21.2964
22.0255
22.8263
23.6754
24.5683
25.492
26.4458
27.4405
28.4675
29.5171
30.5828
31.6546
32.7276
33.7468
34.6852
35.5301
36.2699
36.8864
37.3718
37.7395
38.0092
38.1858
38.2782
38.3006
38.2661
38.1878
38.0783
37.9499
37.815
37.6872
37.5814
37.5161
37.5156
37.6114
37.8417
38.2494
38.8749
39.7257
40.7821
42.042
43.4816
45.0673
46.763
48.5349
50.3547
52.2005
54.0566
55.9124
57.7615
59.6002
61.4266
63.2402
65.0411
66.8293
68.6049
70.3677
72.1171
73.8522
75.5723
5561.08
1261.63
390.506
168.804
99.1474
69.9805
55.0159
46.2564
40.6672
36.8862
34.2199
32.2795
30.8302
29.7212
28.8511
28.1491
27.5642
27.0595
26.6078
26.1895
25.791
25.4031
25.0202
24.6394
24.2598
23.8817
23.5062
23.1346
22.7687
22.4099
22.0596
21.7191
21.3895
21.0718
20.7668
20.4754
20.1982
19.936
19.6893
19.459
19.2455
19.0498
18.8727
18.7151
18.5785
18.4648
18.3757
18.3134
18.2809
18.2815
18.3193
18.399
18.526
18.7062
18.945
19.2469
19.6165
20.0516
20.5564
21.1523
21.8212
22.5506
23.3397
24.1693
25.0304
25.9152
26.8149
27.7413
28.6931
29.6649
30.6541
31.6164
32.5256
33.3662
34.1117
34.7425
35.2612
35.6798
36.0072
36.2519
36.4222
36.5282
36.5811
36.5924
36.5742
36.5401
36.5043
36.4838
36.4999
36.5805
36.7606
37.0815
37.5881
38.3093
39.2423
40.3699
41.6856
43.1648
44.7755
46.4848
48.2628
50.0851
51.933
53.7935
55.6578
57.5208
59.38
61.2341
63.0831
64.927
66.7662
68.6006
70.4299
72.253
74.0686
75.8752
5560.99
1261.74
387.973
167.707
98.7299
69.8787
55.0976
46.4635
40.9691
37.2641
34.6606
32.7729
31.3679
30.296
29.4565
28.779
28.2129
27.7214
27.2777
26.8623
26.4618
26.0675
25.6742
25.2797
24.8834
24.4864
24.0902
23.6967
23.308
22.9259
22.5522
22.1882
21.8352
21.4945
21.167
20.8536
20.5551
20.2722
20.0055
19.7556
19.5229
19.308
19.1114
18.9337
18.7757
18.6383
18.5225
18.4297
18.3621
18.3213
18.3099
18.3306
18.3868
18.4819
18.6192
18.8019
19.0328
19.3141
19.6496
20.0465
20.5044
21.0254
21.6271
22.2998
23.0232
23.799
24.6153
25.4586
26.3217
27.1996
28.1038
29.0361
29.95
30.8297
31.6453
32.3687
32.9921
33.5175
33.9666
34.3378
34.635
34.8646
35.0349
35.1564
35.2405
35.3009
35.3526
35.4144
35.5104
35.6714
35.9353
36.3461
36.9501
37.7621
38.7655
39.952
41.3109
42.8176
44.4422
46.1551
47.9304
49.747
51.5894
53.4469
55.3128
57.1832
59.0566
60.9325
62.8113
64.6934
66.5792
68.469
70.3621
72.2575
74.1537
76.0483
77.9392
5560.9
1262.97
385.848
166.746
98.3732
69.8122
55.2038
46.6899
41.2873
37.6563
35.1143
33.2782
31.9167
30.8814
30.0724
29.42
28.874
28.3977
27.9642
27.5543
27.1545
26.7563
26.3549
25.9485
25.5372
25.1225
24.7065
24.2916
23.8803
23.4749
23.0772
22.689
22.312
21.9474
21.5964
21.2601
20.9394
20.6349
20.3474
20.0774
19.8253
19.5915
19.3763
19.1799
19.0029
18.8455
18.7084
18.5923
18.4982
18.4271
18.3804
18.3601
18.3678
18.4057
18.4756
18.5796
18.7197
18.898
19.1171
19.3805
19.6907
20.0509
20.4682
20.9432
21.4756
22.0796
22.7587
23.4911
24.275
25.102
25.9607
26.8473
27.7449
28.6287
29.4739
30.2487
30.9339
31.5412
32.0892
32.5656
32.9699
33.3056
33.5787
33.7978
33.9745
34.1213
34.2542
34.3939
34.5664
34.8052
35.1505
35.648
36.3436
37.2388
38.3014
39.5341
40.9231
42.4448
44.0719
45.7782
47.5414
49.3438
51.1727
53.0196
54.8796
56.7502
58.6307
60.5215
62.4236
64.3378
66.2649
68.2052
70.1583
72.1232
74.098
76.0803
78.0668
5560.81
1265.35
384.201
165.941
98.0813
69.7783
55.3288
46.9285
41.6144
38.0557
35.5739
33.7885
32.4696
31.4703
30.6921
30.0658
29.5417
29.0832
28.6632
28.2621
27.8665
27.4679
27.0615
26.646
26.2219
25.7913
25.3568
24.9214
24.4879
24.059
23.6371
23.2242
22.8221
22.4326
22.057
21.6966
21.3524
21.0252
20.7159
20.425
20.1528
19.8996
19.6656
19.451
19.2558
19.0801
18.9242
18.7883
18.6727
18.578
18.5048
18.4541
18.4268
18.424
18.447
18.4969
18.5749
18.6827
18.8217
18.9942
19.2022
19.4485
19.7368
20.0698
20.4507
20.8873
21.3845
21.9421
22.574
23.2875
24.063
24.8952
25.7781
26.6617
27.5206
28.3264
29.07
29.7571
30.3871
30.9502
31.4438
31.8692
32.2305
32.5347
32.7928
33.0169
33.224
33.4358
33.6803
33.9932
34.4169
34.999
35.7777
36.7411
37.8528
39.119
40.5253
42.0499
43.6684
45.3582
47.1002
48.8799
50.6871
52.5155
54.3618
56.2247
58.1047
60.0029
61.9208
63.8601
65.8218
67.8068
69.8148
71.8449
73.8955
75.9638
78.0463
5560.72
1268.89
383.088
165.309
97.8552
69.7717
55.4647
47.1705
41.9417
38.454
36.0319
34.2966
33.0196
32.0559
31.3086
30.7098
30.21
29.7724
29.3697
28.9819
28.595
28.2002
27.7929
27.3718
26.938
26.4939
26.0428
25.5881
25.1332
24.6811
24.2347
23.7964
23.3684
22.9528
22.5512
22.1652
21.7961
21.4449
21.1124
20.7993
20.5059
20.2325
19.9792
19.7459
19.5326
19.3391
19.1654
19.0114
18.877
18.7623
18.6675
18.5929
18.5388
18.5057
18.4941
18.5046
18.5381
18.5955
18.6775
18.7857
18.9214
19.0869
19.2842
19.5161
19.786
20.0992
20.4608
20.8759
21.3541
21.905
22.5308
23.2411
24.045
24.9067
25.7724
26.608
27.4103
28.1647
28.8627
29.4965
30.0633
30.5634
30.9985
31.3762
31.7047
31.9971
32.2707
32.5483
32.8595
33.2417
33.7393
34.4022
35.2554
36.2716
37.4212
38.7083
40.1198
41.6359
43.2355
44.8993
46.6114
48.3602
50.1378
51.9398
53.7644
55.6116
57.4827
59.38
61.3056
63.2618
65.2505
67.2728
69.3292
71.419
73.5409
75.6922
77.8693
5560.63
1273.55
382.547
164.857
97.6907
69.7835
55.6004
47.4042
42.2577
38.8408
36.4793
34.7946
33.5589
32.6302
31.9146