/*--------------------------------*- C++ -*----------------------------------*\
  =========                 |
  \\      /  F ield         | OpenFOAM: The Open Source CFD Toolbox
   \\    /   O peration     | Website:  https://openfoam.org
    \\  /    A nd           | Version:  10
     \\/     M anipulation  |
\*---------------------------------------------------------------------------*/
FoamFile
{
    format      ascii;
    class       volScalarField;
    location    "31000";
    object      p;
}
// * * * * * * * * * * * * * * * * * * * * * * * * * * * * * * * * * * * * * //

dimensions      [0 2 -2 0 0 0 0];

internalField   nonuniform List<scalar> 
17969
(
-5.83425
-5.82464
-5.81676
-5.80852
-5.79979
-5.79066
-5.78111
-5.77113
-5.76067
-5.74966
-5.73803
-5.72574
-5.71269
-5.69869
-5.6836
-5.66734
-5.64985
-5.63114
-5.61123
-5.59021
-5.56831
-5.54556
-5.52188
-5.49726
-5.47176
-5.44538
-5.41813
-5.38998
-5.36092
-5.33091
-5.29992
-5.26794
-5.23494
-5.20087
-5.16572
-5.12944
-5.09201
-5.05339
-5.01354
-4.97243
-4.93001
-4.88625
-4.84111
-4.79454
-4.74649
-4.69692
-4.64578
-4.59303
-4.5386
-4.48244
-4.4245
-4.36472
-4.30304
-4.23939
-4.17371
-4.10593
-4.03599
-3.9638
-3.88929
-3.81239
-3.73302
-3.65109
-3.56651
-3.4792
-3.38906
-3.296
-3.19992
-3.10073
-2.9983
-2.89255
-2.78336
-2.67061
-2.55418
-2.43397
-2.31161
-2.19056
-2.07253
-1.95746
-1.84526
-1.73584
-1.62918
-1.52527
-1.42405
-1.32548
-1.22948
-1.13601
-1.04501
-0.956438
-0.870242
-0.786362
-0.704722
-0.625264
-0.547937
-0.472678
-0.399439
-0.328177
-0.258846
-0.191402
-0.125799
-0.0620005
-5.83341
-5.82381
-5.81589
-5.80764
-5.79898
-5.78996
-5.78057
-5.77079
-5.7606
-5.74995
-5.73879
-5.72702
-5.7146
-5.70151
-5.68765
-5.67287
-5.65701
-5.63998
-5.62171
-5.6022
-5.58145
-5.55947
-5.53639
-5.51245
-5.48758
-5.46168
-5.43478
-5.40693
-5.37814
-5.34838
-5.31764
-5.28589
-5.25312
-5.21928
-5.18435
-5.1483
-5.11109
-5.07268
-5.03305
-4.99215
-4.94995
-4.9064
-4.86146
-4.81509
-4.76724
-4.71787
-4.66692
-4.61435
-4.56009
-4.50411
-4.44634
-4.38672
-4.32519
-4.26168
-4.19613
-4.12848
-4.05864
-3.98655
-3.91213
-3.83531
-3.75599
-3.67409
-3.58953
-3.50222
-3.41206
-3.31895
-3.2228
-3.1235
-3.02095
-2.91504
-2.80565
-2.69267
-2.57598
-2.45546
-2.33276
-2.21135
-2.09293
-1.97746
-1.86483
-1.75496
-1.64786
-1.54351
-1.44184
-1.34281
-1.24637
-1.15245
-1.061
-0.971976
-0.885326
-0.801004
-0.718963
-0.639116
-0.561382
-0.48572
-0.412089
-0.340438
-0.270719
-0.20289
-0.136906
-0.0727265
-5.83285
-5.82326
-5.81528
-5.807
-5.79837
-5.7894
-5.78009
-5.77044
-5.7604
-5.74996
-5.73907
-5.72769
-5.71575
-5.7032
-5.68996
-5.67601
-5.66129
-5.64566
-5.62898
-5.61113
-5.59204
-5.57166
-5.55
-5.52707
-5.5029
-5.47765
-5.45145
-5.42423
-5.39591
-5.36652
-5.3361
-5.30464
-5.27214
-5.23856
-5.20388
-5.16807
-5.1311
-5.09293
-5.05353
-5.01286
-4.97089
-4.92756
-4.88284
-4.83669
-4.78905
-4.73989
-4.68915
-4.63678
-4.58273
-4.52694
-4.46935
-4.40991
-4.34855
-4.2852
-4.21981
-4.15229
-4.08259
-4.01062
-3.9363
-3.85956
-3.78032
-3.69847
-3.61395
-3.52665
-3.43647
-3.34333
-3.24711
-3.14772
-3.04504
-2.93897
-2.82939
-2.71617
-2.59921
-2.47837
-2.35531
-2.23351
-2.11469
-1.99878
-1.8857
-1.77537
-1.66779
-1.56296
-1.46082
-1.3613
-1.26436
-1.16995
-1.07802
-0.988504
-0.901364
-0.816553
-0.734028
-0.653741
-0.575609
-0.499535
-0.425473
-0.353396
-0.283258
-0.215012
-0.148615
-0.0840283
-5.83245
-5.82285
-5.81482
-5.80651
-5.79786
-5.78891
-5.77964
-5.77004
-5.76008
-5.74975
-5.73902
-5.72785
-5.7162
-5.70403
-5.69128
-5.67789
-5.66379
-5.64893
-5.63331
-5.61679
-5.59922
-5.58048
-5.5605
-5.53921
-5.51658
-5.49263
-5.46735
-5.44081
-5.41319
-5.38452
-5.35472
-5.32374
-5.29163
-5.25839
-5.22402
-5.1885
-5.15181
-5.11391
-5.07477
-5.03435
-4.99263
-4.94954
-4.90507
-4.85915
-4.81175
-4.76282
-4.71231
-4.66016
-4.60633
-4.55075
-4.49337
-4.43412
-4.37295
-4.30979
-4.24457
-4.17722
-4.10767
-4.03584
-3.96165
-3.88502
-3.80586
-3.72409
-3.63962
-3.55234
-3.46217
-3.36901
-3.27274
-3.17326
-3.07047
-2.96424
-2.85446
-2.74101
-2.62377
-2.5026
-2.37917
-2.25697
-2.13772
-2.02136
-1.90781
-1.79699
-1.68892
-1.58358
-1.48092
-1.38088
-1.28342
-1.18848
-1.09602
-1.00598
-0.918316
-0.832981
-0.749932
-0.669128
-0.590521
-0.514033
-0.439559
-0.367034
-0.296439
-0.227742
-0.160903
-0.0958785
-0.0326323
0.0288732
0.0886748
0.146809
-5.83214
-5.82252
-5.81445
-5.8061
-5.79743
-5.78847
-5.7792
-5.76961
-5.75968
-5.7494
-5.73874
-5.72769
-5.7162
-5.70425
-5.69179
-5.67878
-5.66517
-5.6509
-5.63588
-5.62008
-5.60348
-5.58598
-5.56745
-5.54775
-5.5268
-5.50451
-5.48085
-5.4558
-5.42937
-5.40155
-5.37245
-5.34223
-5.31086
-5.27824
-5.24436
-5.20926
-5.17293
-5.13537
-5.09654
-5.05643
-5.01499
-4.97219
-4.92798
-4.88233
-4.83519
-4.78652
-4.73626
-4.68436
-4.63076
-4.57542
-4.51827
-4.45925
-4.39829
-4.33534
-4.27032
-4.20316
-4.13378
-4.06211
-3.98806
-3.91156
-3.83252
-3.75084
-3.66644
-3.57922
-3.48907
-3.39589
-3.29959
-3.20004
-3.09714
-2.99077
-2.8808
-2.76712
-2.64959
-2.52809
-2.40429
-2.28167
-2.16198
-2.04516
-1.93111
-1.81979
-1.7112
-1.60533
-1.50212
-1.40153
-1.30351
-1.20801
-1.11498
-1.02438
-0.936152
-0.850256
-0.766648
-0.685286
-0.606134
-0.529142
-0.454231
-0.381284
-0.310222
-0.241035
-0.173714
-0.10822
-0.044513
0.0174439
0.0776868
0.136252
-5.83189
-5.82224
-5.81414
-5.80575
-5.79705
-5.78806
-5.77878
-5.76918
-5.75925
-5.74898
-5.73835
-5.72734
-5.71593
-5.70409
-5.6918
-5.67901
-5.66569
-5.65178
-5.63725
-5.62203
-5.60606
-5.58925
-5.57159
-5.55303
-5.53344
-5.51269
-5.49067
-5.4673
-5.44252
-5.4163
-5.38861
-5.35949
-5.32893
-5.29705
-5.26398
-5.22964
-5.19393
-5.15688
-5.1185
-5.07878
-5.03771
-4.99525
-4.95137
-4.90603
-4.85919
-4.81081
-4.76083
-4.70921
-4.65589
-4.60081
-4.54392
-4.48515
-4.42444
-4.36172
-4.29692
-4.22997
-4.16079
-4.08931
-4.01544
-3.93909
-3.86019
-3.77863
-3.69432
-3.60717
-3.51706
-3.4239
-3.32758
-3.22798
-3.12498
-3.01848
-2.90833
-2.79442
-2.67662
-2.55479
-2.4306
-2.30755
-2.18741
-2.07011
-1.95557
-1.84373
-1.73459
-1.62816
-1.52438
-1.42321
-1.3246
-1.2285
-1.13487
-1.04367
-0.954845
-0.86835
-0.784145
-0.702191
-0.622451
-0.544888
-0.469453
-0.396045
-0.324534
-0.254853
-0.187013
-0.121015
-0.0568179
0.00561731
0.066327
0.125347
-5.83168
-5.822
-5.81387
-5.80546
-5.79673
-5.78771
-5.7784
-5.76878
-5.75884
-5.74856
-5.73792
-5.72692
-5.71553
-5.70374
-5.69152
-5.67885
-5.66569
-5.652
-5.63776
-5.6229
-5.60738
-5.59115
-5.57413
-5.55625
-5.53746
-5.51775
-5.49701
-5.4751
-5.4519
-5.42734
-5.40134
-5.37384
-5.34483
-5.31428
-5.28222
-5.24869
-5.2138
-5.17758
-5.13996
-5.10088
-5.06034
-5.01836
-4.97491
-4.92997
-4.88351
-4.83548
-4.78584
-4.73454
-4.68153
-4.62675
-4.57016
-4.51167
-4.45123
-4.38878
-4.32424
-4.25753
-4.18858
-4.11732
-4.04365
-3.96749
-3.88875
-3.80734
-3.72315
-3.63609
-3.54606
-3.45294
-3.35662
-3.25698
-3.15392
-3.04729
-2.93698
-2.82286
-2.70479
-2.58263
-2.45805
-2.33457
-2.21396
-2.09618
-1.98114
-1.86876
-1.75906
-1.65205
-1.54767
-1.44589
-1.34665
-1.24993
-1.15567
-1.06383
-0.974368
-0.887236
-0.802395
-0.71981
-0.639444
-0.561263
-0.485233
-0.411297
-0.339309
-0.269118
-0.200734
-0.134201
-0.0694867
-0.00654754
0.0546537
0.114152
0.171984
-5.83152
-5.82181
-5.81365
-5.80521
-5.79645
-5.78741
-5.77808
-5.76843
-5.75847
-5.74817
-5.73753
-5.72652
-5.71513
-5.70334
-5.69115
-5.67852
-5.66543
-5.65185
-5.63776
-5.62312
-5.60788
-5.59199
-5.57542
-5.55809
-5.53995
-5.52092
-5.50093
-5.47996
-5.45794
-5.43476
-5.41027
-5.3844
-5.35706
-5.32818
-5.29773
-5.26567
-5.23202
-5.19675
-5.15997
-5.12177
-5.08211
-5.04088
-4.99808
-4.95371
-4.90776
-4.86019
-4.81099
-4.76009
-4.70746
-4.65305
-4.5968
-4.53864
-4.47853
-4.41638
-4.35213
-4.2857
-4.21702
-4.146
-4.07257
-3.99663
-3.91809
-3.83685
-3.75282
-3.66589
-3.57595
-3.48289
-3.38661
-3.28697
-3.18385
-3.07713
-2.96668
-2.85236
-2.73402
-2.61154
-2.48658
-2.36267
-2.24158
-2.1233
-2.00775
-1.89484
-1.78456
-1.67695
-1.57195
-1.46954
-1.36966
-1.27227
-1.17735
-1.08484
-0.994697
-0.906889
-0.821374
-0.738113
-0.657076
-0.57823
-0.50155
-0.426998
-0.354446
-0.283732
-0.214816
-0.147732
-0.0824793
-0.0190158
0.0426973
0.102695
0.161013
0.217686
0.27275
-5.83139
-5.82166
-5.81348
-5.80501
-5.79624
-5.78717
-5.77782
-5.76815
-5.75817
-5.74786
-5.73719
-5.72617
-5.71477
-5.70298
-5.69079
-5.67817
-5.6651
-5.65157
-5.63755
-5.62301
-5.60791
-5.59223
-5.57592
-5.55893
-5.54122
-5.52271
-5.50336
-5.48309
-5.46181
-5.43948
-5.41607
-5.39149
-5.36559
-5.33827
-5.30946
-5.27906
-5.24704
-5.21335
-5.17797
-5.1409
-5.10217
-5.06186
-5.01999
-4.9765
-4.93131
-4.88442
-4.83581
-4.78546
-4.73334
-4.67939
-4.62357
-4.56583
-4.5061
-4.44431
-4.38041
-4.31431
-4.24594
-4.17521
-4.10205
-4.02637
-3.94806
-3.86704
-3.78319
-3.69642
-3.60662
-3.51366
-3.41744
-3.31783
-3.21469
-3.10791
-2.99733
-2.88283
-2.76426
-2.64147
-2.51613
-2.39179
-2.27022
-2.15143
-2.03534
-1.92189
-1.81105
-1.70283
-1.5972
-1.49412
-1.39357
-1.2955
-1.19987
-1.10665
-1.0158
-0.927286
-0.841059
-0.757086
-0.675334
-0.595774
-0.518386
-0.443136
-0.369949
-0.298677
-0.229211
-0.161565
-0.0957567
-0.0317498
0.0304953
0.0910131
0.149838
0.207004
0.262546
0.3165
-5.83131
-5.82155
-5.81335
-5.80487
-5.79607
-5.787
-5.77762
-5.76795
-5.75795
-5.74762
-5.73694
-5.72591
-5.7145
-5.70271
-5.69051
-5.67789
-5.66483
-5.65131
-5.63731
-5.62281
-5.60779
-5.59221
-5.57604
-5.55924
-5.54178
-5.5236
-5.50465
-5.48487
-5.46421
-5.44258
-5.41992
-5.39615
-5.37122
-5.34509
-5.31763
-5.28873
-5.25829
-5.22624
-5.1925
-5.15704
-5.11981
-5.08079
-5.03998
-4.99744
-4.95325
-4.90733
-4.8596
-4.81003
-4.75861
-4.7053
-4.65006
-4.59285
-4.53362
-4.47229
-4.40882
-4.34313
-4.27514
-4.20474
-4.13188
-4.05654
-3.97851
-3.89774
-3.81413
-3.72757
-3.63794
-3.54512
-3.449
-3.34945
-3.24633
-3.13951
-3.02885
-2.91419
-2.7954
-2.67232
-2.54662
-2.42185
-2.29981
-2.18049
-2.06387
-1.94987
-1.83845
-1.72961
-1.62334
-1.51959
-1.41835
-1.31956
-1.22322
-1.12927
-1.03769
-0.948434
-0.861468
-0.776746
-0.694231
-0.613902
-0.535735
-0.459705
-0.385793
-0.313936
-0.243977
-0.175787
-0.109383
-0.0447927
0.0180166
0.0790838
0.138443
0.196128
0.252172
0.306613
0.359484
0.410822
-5.83125
-5.82147
-5.81326
-5.80476
-5.79596
-5.78687
-5.77749
-5.76781
-5.7578
-5.74746
-5.73678
-5.72574
-5.71433
-5.70253
-5.69033
-5.67771
-5.66465
-5.65114
-5.63715
-5.62267
-5.60768
-5.59214
-5.57604
-5.55934
-5.54201
-5.52402
-5.50531
-5.48584
-5.46556
-5.44441
-5.42233
-5.39924
-5.37508
-5.34975
-5.3232
-5.29537
-5.26619
-5.23554
-5.20332
-5.16944
-5.13383
-5.09642
-5.05717
-5.01603
-4.97301
-4.92813
-4.88144
-4.83292
-4.78247
-4.73005
-4.67562
-4.61914
-4.56058
-4.49986
-4.43695
-4.37176
-4.30424
-4.23432
-4.16191
-4.08691
-4.00923
-3.92876
-3.84544
-3.75914
-3.66972
-3.57709
-3.48114
-3.3817
-3.27864
-3.17183
-3.06112
-2.94635
-2.82737
-2.70403
-2.57798
-2.4528
-2.33029
-2.21044
-2.09325
-1.97868
-1.86667
-1.75722
-1.65029
-1.54588
-1.44394
-1.34444
-1.24737
-1.15268
-1.06032
-0.970275
-0.88252
-0.797014
-0.713725
-0.632622
-0.553678
-0.476869
-0.402174
-0.329576
-0.259009
-0.190308
-0.123336
-0.0581235
0.00529137
0.0669406
0.126864
0.185095
0.241668
0.296618
0.349981
0.401793
0.45209
0.50091
0.548289
0.594264
-5.83122
-5.82142
-5.8132
-5.8047
-5.79589
-5.7868
-5.77742
-5.76773
-5.75772
-5.74738
-5.73669
-5.72565
-5.71424
-5.70244
-5.69024
-5.67763
-5.66458
-5.65107
-5.6371
-5.62264
-5.60767
-5.59216
-5.57609
-5.55945
-5.54219
-5.52429
-5.50571
-5.48642
-5.46637
-5.44552
-5.4238
-5.40117
-5.37755
-5.35287
-5.32707
-5.30006
-5.27176
-5.2421
-5.21103
-5.17847
-5.14428
-5.10839
-5.07071
-5.03116
-4.9897
-4.94627
-4.90084
-4.85344
-4.8041
-4.75279
-4.69943
-4.64394
-4.58627
-4.52638
-4.46421
-4.39972
-4.33283
-4.26348
-4.19159
-4.11708
-4.03985
-3.95982
-3.87689
-3.79095
-3.70179
-3.60936
-3.51365
-3.41438
-3.31144
-3.2047
-3.09398
-2.97914
-2.86003
-2.73647
-2.61011
-2.48454
-2.36158
-2.24122
-2.12345
-2.00827
-1.89566
-1.78559
-1.67802
-1.57294
-1.47031
-1.37008
-1.27223
-1.17676
-1.08362
-0.992794
-0.904237
-0.817924
-0.733825
-0.651912
-0.572159
-0.494542
-0.419039
-0.345633
-0.274304
-0.204975
-0.137477
-0.0716845
-0.00763689
0.0546262
0.115138
0.173937
0.231059
0.286539
0.340411
0.392713
0.44348
0.492751
0.540562
0.58695
-5.83122
-5.82139
-5.81317
-5.80467
-5.79586
-5.78676
-5.77738
-5.76769
-5.75769
-5.74735
-5.73667
-5.72563
-5.71423
-5.70243
-5.69024
-5.67764
-5.6646
-5.65111
-5.63715
-5.62271
-5.60776
-5.59228
-5.57624
-5.55963
-5.54242
-5.52458
-5.50608
-5.48689
-5.46697
-5.44629
-5.4248
-5.40244
-5.37917
-5.35493
-5.32965
-5.30325
-5.27567
-5.24683
-5.21665
-5.18503
-5.1519
-5.11721
-5.08087
-5.04277
-5.00281
-4.96092
-4.91703
-4.87108
-4.82303
-4.77291
-4.72073
-4.66643
-4.60988
-4.55103
-4.48984
-4.42625
-4.36019
-4.2916
-4.22042
-4.14655
-4.06991
-3.99042
-3.90795
-3.82241
-3.73373
-3.64175
-3.54631
-3.44727
-3.34453
-3.23795
-3.12727
-3.0124
-2.8932
-2.76947
-2.64286
-2.51694
-2.39356
-2.27271
-2.1544
-2.03863
-1.92538
-1.81466
-1.70644
-1.6007
-1.49735
-1.39638
-1.29778
-1.20152
-1.10758
-1.01593
-0.926538
-0.839387
-0.754448
-0.671695
-0.591104
-0.512651
-0.436316
-0.362078
-0.289924
-0.219827
-0.151696
-0.0853599
-0.0207198
0.0421808
0.103309
0.162699
0.220391
0.276419
0.33082
0.383628
0.434883
0.484619
0.532876
0.579691
-5.83123
-5.82137
-5.81316
-5.80466
-5.79585
-5.78676
-5.77738
-5.7677
-5.7577
-5.74737
-5.7367
-5.72567
-5.71427
-5.70249
-5.69031
-5.67772
-5.66469
-5.65122
-5.63728
-5.62286
-5.60794
-5.59248
-5.57648
-5.55991
-5.54275
-5.52496
-5.50652
-5.4874
-5.46756
-5.44699
-5.42562
-5.40344
-5.38039
-5.35642
-5.33147
-5.30549
-5.2784
-5.25014
-5.22063
-5.1898
-5.15755
-5.12381
-5.08848
-5.05149
-5.01276
-4.97221
-4.92975
-4.88527
-4.83871
-4.79
-4.73911
-4.68605
-4.63075
-4.57311
-4.51306
-4.45056
-4.38553
-4.31792
-4.24763
-4.17461
-4.09875
-4.01998
-3.93817
-3.85323
-3.76507
-3.67354
-3.57848
-3.47979
-3.37737
-3.2711
-3.16066
-3.04586
-2.92666
-2.80282
-2.676
-2.5498
-2.42604
-2.30474
-2.18592
-2.06958
-1.95571
-1.84433
-1.73541
-1.62896
-1.52492
-1.42322
-1.32385
-1.22679
-1.13203
-1.03955
-0.949312
-0.861305
-0.775504
-0.691888
-0.610436
-0.531126
-0.453938
-0.378853
-0.305853
-0.234921
-0.166026
-0.0990607
-0.0338616
0.0296429
0.091408
0.151412
0.209691
0.266285
0.321229
0.374559
0.426313
0.476529
0.525244
0.572496
-5.83125
-5.82137
-5.81317
-5.80467
-5.79586
-5.78678
-5.77741
-5.76773
-5.75774
-5.74742
-5.73675
-5.72574
-5.71435
-5.70258
-5.69042
-5.67784
-5.66484
-5.65139
-5.63747
-5.62308
-5.60818
-5.59276
-5.57679
-5.56026
-5.54314
-5.5254
-5.50702
-5.48796
-5.4682
-5.4477
-5.42644
-5.40437
-5.38146
-5.35766
-5.33292
-5.3072
-5.28044
-5.25258
-5.22354
-5.19326
-5.16165
-5.12864
-5.09414
-5.05808
-5.02034
-4.98087
-4.93956
-4.89632
-4.85107
-4.80373
-4.75422
-4.70249
-4.64848
-4.59211
-4.53332
-4.47204
-4.40819
-4.34171
-4.27251
-4.20051
-4.12562
-4.04774
-3.96679
-3.88264
-3.79519
-3.70432
-3.60989
-3.51173
-3.4097
-3.30367
-3.19348
-3.07894
-2.95992
-2.83613
-2.70919
-2.58279
-2.45873
-2.33705
-2.21776
-2.10088
-1.98642
-1.87438
-1.76477
-1.65758
-1.55279
-1.45037
-1.35025
-1.25241
-1.15684
-1.06352
-0.972427
-0.883554
-0.79688
-0.712387
-0.630058
-0.549876
-0.471823
-0.39588
-0.322027
-0.250246
-0.180518
-0.112802
-0.0469826
0.0170908
0.0794671
0.140104
0.198991
0.256166
0.311667
0.365532
0.417798
0.468503
0.517687
0.565386
0.61164
-5.83128
-5.82137
-5.81318
-5.80469
-5.79589
-5.78681
-5.77744
-5.76778
-5.75779
-5.74748
-5.73683
-5.72583
-5.71445
-5.7027
-5.69056
-5.678
-5.66502
-5.65159
-5.6377
-5.62333
-5.60846
-5.59308
-5.57715
-5.56066
-5.54358
-5.52589
-5.50756
-5.48856
-5.46887
-5.44845
-5.42728
-5.4053
-5.3825
-5.35882
-5.33424
-5.3087
-5.28215
-5.25454
-5.22582
-5.19591
-5.16476
-5.13227
-5.09838
-5.06301
-5.02605
-4.98744
-4.94708
-4.90487
-4.86072
-4.81454
-4.76624
-4.71576
-4.66302
-4.60793
-4.55041
-4.4904
-4.4278
-4.36253
-4.29452
-4.22367
-4.14988
-4.07307
-3.99312
-3.90992
-3.82336
-3.7333
-3.63962
-3.54216
-3.44077
-3.33529
-3.22556
-3.11137
-2.99254
-2.86888
-2.74201
-2.61551
-2.49125
-2.36927
-2.24958
-2.13222
-2.01721
-1.90455
-1.79427
-1.68636
-1.58082
-1.47763
-1.37677
-1.27817
-1.1818
-1.08765
-0.995713
-0.905975
-0.818425
-0.73305
-0.649839
-0.568779
-0.489856
-0.413052
-0.338347
-0.265721
-0.195153
-0.126617
-0.0600652
0.00461999
0.0675722
0.128822
0.18833
0.246098
0.302166
0.356575
0.409361
0.460565
0.510224
0.558377
0.605064
-5.8313
-5.82138
-5.8132
-5.80471
-5.79591
-5.78684
-5.77749
-5.76783
-5.75785
-5.74755
-5.73691
-5.72592
-5.71456
-5.70283
-5.6907
-5.67816
-5.6652
-5.6518
-5.63794
-5.6236
-5.60876
-5.59341
-5.57752
-5.56107
-5.54404
-5.5264
-5.50812
-5.48919
-5.46956
-5.44921
-5.42811
-5.40623
-5.38352
-5.35996
-5.33549
-5.31009
-5.2837
-5.25628
-5.22777
-5.19812
-5.16727
-5.13515
-5.10169
-5.06682
-5.03045
-4.99249
-4.95286
-4.91147
-4.86821
-4.823
-4.77575
-4.72636
-4.67475
-4.62083
-4.56451
-4.5057
-4.44432
-4.38028
-4.31347
-4.24381
-4.1712
-4.09552
-4.01667
-3.93454
-3.84899
-3.7599
-3.66712
-3.5705
-3.46989
-3.36511
-3.25599
-3.14233
-3.02393
-2.90057
-2.77389
-2.64745
-2.52311
-2.40093
-2.28095
-2.1632
-2.0477
-1.9345
-1.82359
-1.715
-1.60874
-1.50479
-1.40315
-1.3038
-1.20667
-1.11173
-1.01896
-0.928366
-0.83995
-0.753703
-0.669615
-0.587682
-0.507892
-0.430233
-0.354687
-0.281231
-0.209838
-0.140483
-0.0731519
-0.00778413
0.0557813
0.117645
0.177768
0.236126
0.292759
0.347711
0.401018
0.452721
0.502859
0.55147
0.598596
-5.83133
-5.82138
-5.81321
-5.80473
-5.79594
-5.78687
-5.77752
-5.76787
-5.75791
-5.74762
-5.73699
-5.72601
-5.71467
-5.70295
-5.69083
-5.67832
-5.66538
-5.652
-5.63816
-5.62385
-5.60905
-5.59373
-5.57788
-5.56147
-5.54448
-5.52689
-5.50867
-5.4898
-5.47023
-5.44996
-5.42893
-5.40713
-5.38452
-5.36105
-5.3367
-5.31141
-5.28515
-5.25788
-5.22954
-5.20008
-5.16945
-5.13759
-5.10443
-5.06991
-5.03396
-4.99648
-4.95741
-4.91664
-4.87409
-4.82966
-4.78325
-4.73477
-4.68413
-4.63122
-4.57596
-4.51826
-4.458
-4.3951
-4.32945
-4.26095
-4.18949
-4.11496
-4.03724
-3.95622
-3.87175
-3.7837
-3.69193
-3.59626
-3.49655
-3.39261
-3.28424
-3.17126
-3.05344
-2.93056
-2.80423
-2.678
-2.55374
-2.43151
-2.31136
-2.19333
-2.07746
-1.96379
-1.85234
-1.74314
-1.6362
-1.53154
-1.42915
-1.32903
-1.23115
-1.13546
-1.0419
-0.950494
-0.861237
-0.774138
-0.689196
-0.606408
-0.52577
-0.447274
-0.370905
-0.296654
-0.224486
-0.154342
-0.0861973
-0.0200292
0.0442249
0.106654
0.16734
0.226286
0.283486
0.338978
0.392804
0.445004
0.495619
0.544687
0.592247
0.638338
-5.83135
-5.82137
-5.81322
-5.80474
-5.79595
-5.7869
-5.77755
-5.76791
-5.75795
-5.74766
-5.73705
-5.72608
-5.71475
-5.70304
-5.69095
-5.67845
-5.66552
-5.65217
-5.63836
-5.62408
-5.6093
-5.59402
-5.57821
-5.56184
-5.5449
-5.52736
-5.50919
-5.49037
-5.47087
-5.45066
-5.42971
-5.40799
-5.38546
-5.36208
-5.33783
-5.31265
-5.28651
-5.25937
-5.23117
-5.20187
-5.17141
-5.13975
-5.10682
-5.07256
-5.0369
-4.99978
-4.9611
-4.9208
-4.87878
-4.83494
-4.7892
-4.74146
-4.69161
-4.63956
-4.58521
-4.52845
-4.46919
-4.40731
-4.34272
-4.27529
-4.20492
-4.13149
-4.05487
-3.97494
-3.89155
-3.80457
-3.71383
-3.61917
-3.52043
-3.4174
-3.3099
-3.1977
-3.08059
-2.95834
-2.83251
-2.70665
-2.58262
-2.46049
-2.34031
-2.22213
-2.10601
-1.99198
-1.88009
-1.77037
-1.66284
-1.55753
-1.45445
-1.3536
-1.25498
-1.15855
-1.06427
-0.972096
-0.882043
-0.794132
-0.708371
-0.624764
-0.543314
-0.464022
-0.386873
-0.311831
-0.238865
-0.167954
-0.0990705
-0.0321791
0.0327681
0.0958309
0.157065
0.216537
0.274293
0.330324
0.384646
0.437313
0.488378
0.537885
0.585875
0.632391
-5.83136
-5.82135
-5.81322
-5.80474
-5.79596
-5.7869
-5.77756
-5.76792
-5.75797
-5.74769
-5.73708
-5.72612
-5.7148
-5.7031
-5.69102
-5.67854
-5.66564
-5.6523
-5.63851
-5.62425
-5.60951
-5.59426
-5.57848
-5.56216
-5.54526
-5.52776
-5.50965
-5.49088
-5.47144
-5.4513
-5.43041
-5.40877
-5.38632
-5.36303
-5.33887
-5.31379
-5.28776
-5.26073
-5.23266
-5.2035
-5.1732
-5.1417
-5.10896
-5.0749
-5.03947
-5.00261
-4.96423
-4.92427
-4.88264
-4.83925
-4.79402
-4.74684
-4.69763
-4.64627
-4.59267
-4.53671
-4.47829
-4.41731
-4.35364
-4.28717
-4.21779
-4.14536
-4.06977
-3.99086
-3.90851
-3.82256
-3.73284
-3.63919
-3.54142
-3.43934
-3.33275
-3.22141
-3.1051
-2.98356
-2.85835
-2.73298
-2.60931
-2.48741
-2.36734
-2.24916
-2.13291
-2.01865
-1.90645
-1.79631
-1.68829
-1.58242
-1.47872
-1.37721
-1.27789
-1.18076
-1.08577
-0.992899
-0.902117
-0.81345
-0.726924
-0.642557
-0.560348
-0.480284
-0.402355
-0.326555
-0.252861
-0.181241
-0.111661
-0.0440897
0.0215134
0.0851979
0.147022
0.207042
0.265291
0.321803
0.37662
0.429782
0.481329
0.531302
0.579742
0.62669
-5.83136
-5.82132
-5.81321
-5.80473
-5.79594
-5.78689
-5.77755
-5.76791
-5.75796
-5.74768
-5.73708
-5.72612
-5.71481
-5.70313
-5.69106
-5.67858
-5.6657
-5.65238
-5.63861
-5.62438
-5.60966
-5.59444
-5.57869
-5.5624
-5.54554
-5.52809
-5.51002
-5.49131
-5.47193
-5.45185
-5.43103
-5.40945
-5.38708
-5.36387
-5.3398
-5.31481
-5.28888
-5.26196
-5.23401
-5.20497
-5.1748
-5.14345
-5.11086
-5.07698
-5.04175
-5.00509
-4.96695
-4.92725
-4.88592
-4.84287
-4.79802
-4.75128
-4.70255
-4.65173
-4.59873
-4.54342
-4.48571
-4.42547
-4.36259
-4.29696
-4.22844
-4.15691
-4.08223
-4.00427
-3.92287
-3.83787
-3.74912
-3.65643
-3.55961
-3.45847
-3.35278
-3.24232
-3.12684
-3.00607
-2.88155
-2.75676
-2.63355
-2.51199
-2.39215
-2.27407
-2.15783
-2.04347
-1.93105
-1.82061
-1.71222
-1.60589
-1.50166
-1.39957
-1.29963
-1.20184
-1.1062
-1.01267
-0.921225
-0.831879
-0.74466
-0.659575
-0.576633
-0.495843
-0.417205
-0.340703
-0.266316
-0.194016
-0.123771
-0.0555486
0.0106868
0.0749764
0.13737
0.197924
0.256687
0.313704
0.369011
0.422645
0.474645
0.525048
0.573897
0.62123
-5.83135
-5.82128
-5.81318
-5.80469
-5.79591
-5.78685
-5.77751
-5.76787
-5.75792
-5.74764
-5.73704
-5.72609
-5.71478
-5.7031
-5.69104
-5.67858
-5.6657
-5.65239
-5.63864
-5.62443
-5.60974
-5.59454
-5.57882
-5.56257
-5.54575
-5.52834
-5.51031
-5.49165
-5.47232
-5.45229
-5.43154
-5.41003
-5.38773
-5.3646
-5.3406
-5.3157
-5.28987
-5.26304
-5.23519
-5.20627
-5.17622
-5.145
-5.11255
-5.07882
-5.04375
-5.00727
-4.96933
-4.92985
-4.88876
-4.84598
-4.80143
-4.75502
-4.70667
-4.65627
-4.60373
-4.54894
-4.49178
-4.43216
-4.36994
-4.30501
-4.23723
-4.16647
-4.0926
-4.01546
-3.93492
-3.85079
-3.76292
-3.67113
-3.5752
-3.47495
-3.37013
-3.26052
-3.14587
-3.02588
-2.90208
-2.77792
-2.65523
-2.53409
-2.41456
-2.29669
-2.18055
-2.06619
-1.95367
-1.84305
-1.73438
-1.62769
-1.52305
-1.42048
-1.31999
-1.22162
-1.12537
-1.03123
-0.93919
-0.84923
-0.761361
-0.675618
-0.592023
-0.510577
-0.431281
-0.354125
-0.279091
-0.206153
-0.135282
-0.0664465
0.000387324
0.0652565
0.128204
0.189277
0.248528
0.306006
0.361757
0.41582
0.468236
0.519043
0.568281
0.615988
-5.83132
-5.82122
-5.81313
-5.80464
-5.79585
-5.78678
-5.77744
-5.76779
-5.75784
-5.74757
-5.73696
-5.72601
-5.7147
-5.70302
-5.69097
-5.67851
-5.66564
-5.65235
-5.63861
-5.62441
-5.60973
-5.59456
-5.57887
-5.56264
-5.54585
-5.52848
-5.5105
-5.49188
-5.4726
-5.45263
-5.43193
-5.41048
-5.38824
-5.36518
-5.34126
-5.31645
-5.29069
-5.26396
-5.23621
-5.20739
-5.17745
-5.14634
-5.11402
-5.08042
-5.0455
-5.00918
-4.9714
-4.93211
-4.89122
-4.84866
-4.80435
-4.75821
-4.71016
-4.66009
-4.60792
-4.55353
-4.49683
-4.43769
-4.37601
-4.31165
-4.24448
-4.17438
-4.10119
-4.02478
-3.94498
-3.86163
-3.77455
-3.68355
-3.58844
-3.489
-3.385
-3.2762
-3.16233
-3.04311
-2.92003
-2.79651
-2.67437
-2.55369
-2.43453
-2.31693
-2.20097
-2.0867
-1.97418
-1.86347
-1.75461
-1.64768
-1.54271
-1.43975
-1.33881
-1.23995
-1.14317
-1.04848
-0.955871
-0.865346
-0.776901
-0.690564
-0.606371
-0.52433
-0.444438
-0.366689
-0.291069
-0.217553
-0.146115
-0.0767235
-0.00934455
0.0560575
0.119521
0.181089
0.24081
0.298732
0.354902
0.409365
0.462165
0.513342
0.562936
0.610988
-5.83128
-5.82116
-5.81306
-5.80457
-5.79576
-5.78669
-5.77734
-5.76769
-5.75773
-5.74745
-5.73684
-5.72588
-5.71457
-5.70289
-5.69083
-5.67838
-5.66552
-5.65223
-5.6385
-5.62431
-5.60965
-5.5945
-5.57883
-5.56262
-5.54586
-5.52852
-5.51058
-5.492
-5.47276
-5.45283
-5.43219
-5.4108
-5.38862
-5.36563
-5.34178
-5.31703
-5.29136
-5.26471
-5.23704
-5.20832
-5.17848
-5.14748
-5.11527
-5.08179
-5.04699
-5.01081
-4.97318
-4.93405
-4.89333
-4.85096
-4.80686
-4.76094
-4.71314
-4.66334
-4.61146
-4.5574
-4.50106
-4.44231
-4.38106
-4.31716
-4.2505
-4.18093
-4.10833
-4.03252
-3.95336
-3.87067
-3.78428
-3.69399
-3.59961
-3.50091
-3.39765
-3.28959
-3.17646
-3.05796
-2.93556
-2.81266
-2.69108
-2.57088
-2.45211
-2.33483
-2.2191
-2.10498
-1.99253
-1.88181
-1.77286
-1.66577
-1.56056
-1.45729
-1.356
-1.25674
-1.15952
-1.06435
-0.971247
-0.880212
-0.791261
-0.70442
-0.619695
-0.537096
-0.456641
-0.378338
-0.302174
-0.228129
-0.156178
-0.0862908
-0.0184317
0.0474395
0.111361
0.173373
0.233522
0.291855
0.34842
0.40326
0.456421
0.507943
0.557868
0.606238
-5.83124
-5.82108
-5.81298
-5.80447
-5.79566
-5.78657
-5.77721
-5.76755
-5.75758
-5.74729
-5.73667
-5.72571
-5.71439
-5.70271
-5.69064
-5.67819
-5.66532
-5.65204
-5.63831
-5.62413
-5.60948
-5.59434
-5.57869
-5.56251
-5.54577
-5.52846
-5.51054
-5.492
-5.4728
-5.45292
-5.43232
-5.41098
-5.38885
-5.36592
-5.34213
-5.31746
-5.29185
-5.26528
-5.23769
-5.20905
-5.1793
-5.1484
-5.11629
-5.08292
-5.04824
-5.01218
-4.97469
-4.93569
-4.89512
-4.85291
-4.80899
-4.76326
-4.71566
-4.66609
-4.61446
-4.56067
-4.50461
-4.44619
-4.38528
-4.32176
-4.25551
-4.18639
-4.11425
-4.03895
-3.96033
-3.8782
-3.7924
-3.70273
-3.60898
-3.51093
-3.40833
-3.30094
-3.18848
-3.07064
-2.94888
-2.82658
-2.70554
-2.5858
-2.46744
-2.3505
-2.23504
-2.12111
-2.00878
-1.89811
-1.78914
-1.68195
-1.57659
-1.47311
-1.37156
-1.27197
-1.17439
-1.07882
-0.985314
-0.893863
-0.804485
-0.717193
-0.632004
-0.548939
-0.468013
-0.38923
-0.312581
-0.238052
-0.165623
-0.0952611
-0.0269292
0.0394015
0.10376
0.166186
0.226727
0.285429
0.342344
0.397521
0.451006
0.50284
0.553066
0.601727
-5.83118
-5.82099
-5.81288
-5.80436
-5.79553
-5.78643
-5.77705
-5.76738
-5.75739
-5.74709
-5.73646
-5.72548
-5.71416
-5.70246
-5.69039
-5.67793
-5.66506
-5.65177
-5.63805
-5.62387
-5.60923
-5.5941
-5.57846
-5.56229
-5.54557
-5.52828
-5.51039
-5.49188
-5.47271
-5.45287
-5.43231
-5.41101
-5.38894
-5.36605
-5.34232
-5.31771
-5.29217
-5.26567
-5.23816
-5.20959
-5.17992
-5.14911
-5.11709
-5.08382
-5.04924
-5.01329
-4.97591
-4.93704
-4.89661
-4.85454
-4.81076
-4.7652
-4.71778
-4.6684
-4.61697
-4.56341
-4.5076
-4.44944
-4.38881
-4.3256
-4.25969
-4.19093
-4.11918
-4.0443
-3.96612
-3.88447
-3.79916
-3.71001
-3.61681
-3.51932
-3.4173
-3.3105
-3.19863
-3.0814
-2.96022
-2.83847
-2.71793
-2.59865
-2.48068
-2.36408
-2.2489
-2.13519
-2.02302
-1.91244
-1.80351
-1.69629
-1.59084
-1.48721
-1.38546
-1.28562
-1.18775
-1.09188
-0.998029
-0.906228
-0.816494
-0.728843
-0.643291
-0.559853
-0.478541
-0.399357
-0.322299
-0.247353
-0.1745
-0.103712
-0.0349642
0.0317682
0.0965201
0.159333
0.220252
0.279324
0.336601
0.39212
0.44592
0.498041
0.548532
0.597447
-5.83111
-5.82089
-5.81276
-5.80423
-5.79538
-5.78626
-5.77687
-5.76717
-5.75717
-5.74686
-5.73621
-5.72522
-5.71387
-5.70217
-5.69008
-5.67761
-5.66473
-5.65144
-5.63771
-5.62354
-5.60889
-5.59376
-5.57813
-5.56197
-5.54527
-5.528
-5.51013
-5.49164
-5.4725
-5.45269
-5.43217
-5.41091
-5.38888
-5.36604
-5.34236
-5.3178
-5.29232
-5.26587
-5.23843
-5.20993
-5.18034
-5.14961
-5.11767
-5.08449
-5.05
-5.01415
-4.97688
-4.93812
-4.8978
-4.85585
-4.81221
-4.76679
-4.71952
-4.6703
-4.61905
-4.56568
-4.51007
-4.45213
-4.39174
-4.32879
-4.26316
-4.19469
-4.12327
-4.04873
-3.97092
-3.88966
-3.80477
-3.71606
-3.62331
-3.52631
-3.42479
-3.3185
-3.20716
-3.09045
-2.96981
-2.84855
-2.72847
-2.60961
-2.49202
-2.37575
-2.26085
-2.14737
-2.03538
-1.92492
-1.81606
-1.70885
-1.60336
-1.49964
-1.39775
-1.29774
-1.19965
-1.10353
-1.00942
-0.917322
-0.827287
-0.739328
-0.653465
-0.569712
-0.488081
-0.408574
-0.331188
-0.255913
-0.182729
-0.111613
-0.0425358
0.0245335
0.0896303
0.152793
0.214064
0.273484
0.331094
0.386928
0.441027
0.493443
0.544221
0.593392
-5.83104
-5.82078
-5.81264
-5.80408
-5.79521
-5.78607
-5.77666
-5.76695
-5.75692
-5.74658
-5.73592
-5.72491
-5.71355
-5.70182
-5.68972
-5.67723
-5.66434
-5.65104
-5.6373
-5.62312
-5.60847
-5.59334
-5.57772
-5.56156
-5.54487
-5.52761
-5.50975
-5.49128
-5.47217
-5.45238
-5.43189
-5.41066
-5.38867
-5.36587
-5.34223
-5.31772
-5.29229
-5.2659
-5.23851
-5.21008
-5.18056
-5.14989
-5.11803
-5.08493
-5.05053
-5.01476
-4.97758
-4.93892
-4.8987
-4.85687
-4.81335
-4.76805
-4.72091
-4.67183
-4.62073
-4.56752
-4.51209
-4.45433
-4.39415
-4.33141
-4.266
-4.19779
-4.12663
-4.05238
-3.97487
-3.89394
-3.8094
-3.72105
-3.62869
-3.53209
-3.431
-3.32516
-3.21427
-3.09802
-2.97784
-2.85703
-2.73736
-2.61888
-2.50164
-2.38569
-2.27106
-2.15781
-2.046
-1.93569
-1.82692
-1.71976
-1.61427
-1.51051
-1.40854
-1.3084
-1.21016
-1.11385
-1.01952
-0.927195
-0.836921
-0.748716
-0.662597
-0.578585
-0.49669
-0.416916
-0.339258
-0.263707
-0.190245
-0.11885
-0.0494932
0.0178558
0.0832321
0.146673
0.208219
0.267912
0.325792
0.381903
0.436287
0.488989
0.540038
0.589467
-5.83097
-5.82068
-5.8125
-5.80393
-5.79503
-5.78587
-5.77643
-5.76669
-5.75665
-5.74628
-5.73559
-5.72456
-5.71317
-5.70143
-5.68931
-5.6768
-5.66389
-5.65057
-5.63682
-5.62263
-5.60798
-5.59284
-5.57721
-5.56106
-5.54437
-5.52712
-5.50927
-5.49082
-5.47172
-5.45195
-5.43149
-5.41029
-5.38832
-5.36556
-5.34196
-5.31748
-5.2921
-5.26576
-5.23842
-5.21004
-5.18058
-5.14997
-5.11818
-5.08515
-5.05082
-5.01513
-4.97804
-4.93946
-4.89934
-4.8576
-4.81418
-4.769
-4.72197
-4.67302
-4.62205
-4.56897
-4.51368
-4.45609
-4.39607
-4.33352
-4.2683
-4.2003
-4.12936
-4.05534
-3.97809
-3.89743
-3.81317
-3.72514
-3.6331
-3.53684
-3.43611
-3.33063
-3.22013
-3.10429
-2.98451
-2.86409
-2.74479
-2.62666
-2.50974
-2.39407
-2.2797
-2.16668
-2.05505
-1.94488
-1.83623
-1.72914
-1.62368
-1.51991
-1.4179
-1.31769
-1.21933
-1.12289
-1.02841
-0.935921
-0.845464
-0.757069
-0.670751
-0.586536
-0.504434
-0.424448
-0.346574
-0.270803
-0.197116
-0.125493
-0.0559057
0.0116768
0.0772888
0.140967
0.20275
0.262678
0.320792
0.377133
0.431744
0.484668
0.535948
0.585625
-5.8309
-5.82057
-5.81237
-5.80377
-5.79484
-5.78565
-5.77618
-5.76642