/*--------------------------------*- C++ -*----------------------------------*\
  =========                 |
  \\      /  F ield         | OpenFOAM: The Open Source CFD Toolbox
   \\    /   O peration     | Website:  https://openfoam.org
    \\  /    A nd           | Version:  10
     \\/     M anipulation  |
\*---------------------------------------------------------------------------*/
FoamFile
{
    format      ascii;
    class       volVectorField;
    location    "31000";
    object      U;
}
// * * * * * * * * * * * * * * * * * * * * * * * * * * * * * * * * * * * * * //

dimensions      [0 1 -1 0 0 0 0];

internalField   nonuniform List<vector> 
17969
(
(0.122501 1.53799 0)
(-0.045029 1.59807 0)
(-0.0206087 1.61007 -7.87722e-18)
(-0.0194972 1.62342 8.8372e-18)
(-0.0191907 1.6371 -2.81395e-18)
(-0.0181875 1.65135 -2.15456e-18)
(-0.0165029 1.66679 1.75071e-18)
(-0.0141034 1.68406 0)
(-0.0108037 1.70385 9.43425e-20)
(-0.00623705 1.72682 0)
(-6.99647e-05 1.75379 0)
(0.00836634 1.78647 0)
(0.0198477 1.82673 0)
(0.0344277 1.87455 -1.26177e-18)
(0.0516476 1.92788 1.21352e-18)
(0.0705506 1.98335 0)
(0.0899322 2.03736 -8.80219e-19)
(0.108597 2.08694 7.69374e-19)
(0.125723 2.13028 -6.66047e-19)
(0.140598 2.16666 5.85234e-19)
(0.153073 2.1967 0)
(0.163432 2.22159 0)
(0.17186 2.2424 -5.56906e-20)
(0.178582 2.26011 0)
(0.183936 2.27546 0)
(0.188194 2.28905 3.47806e-19)
(0.191584 2.30136 -6.41289e-19)
(0.194298 2.3128 2.95585e-19)
(0.196494 2.32366 2.70487e-19)
(0.198299 2.33416 -3.27254e-20)
(0.199807 2.34446 -2.89381e-19)
(0.201088 2.35463 0)
(0.202189 2.36477 1.98114e-19)
(0.203143 2.37491 -4.1705e-19)
(0.203972 2.38509 1.19843e-21)
(0.204691 2.39534 3.25483e-19)
(0.205309 2.40569 -1.53813e-19)
(0.205834 2.41614 -1.80414e-19)
(0.206268 2.42672 1.0328e-19)
(0.206613 2.43744 0)
(0.206871 2.44832 3.10226e-20)
(0.207042 2.45936 2.95858e-20)
(0.207124 2.47059 2.24603e-19)
(0.207117 2.48201 -2.17053e-19)
(0.207018 2.49363 -2.05972e-19)
(0.206826 2.50548 -4.76642e-20)
(0.206539 2.51755 1.92051e-19)
(0.206154 2.52987 1.82669e-19)
(0.205668 2.54244 -2.15511e-21)
(0.20508 2.55528 -1.71626e-19)
(0.204385 2.5684 -2.04625e-19)
(0.203581 2.58181 1.99658e-19)
(0.202664 2.59552 0)
(0.201632 2.60955 0)
(0.20048 2.6239 3.58919e-20)
(0.199205 2.6386 2.06686e-19)
(0.197803 2.65365 -1.35065e-19)
(0.19627 2.66906 0)
(0.194601 2.68485 0)
(0.192792 2.70102 5.91859e-20)
(0.190839 2.7176 -1.18552e-19)
(0.188737 2.73459 0)
(0.186481 2.75201 0)
(0.184066 2.76986 -5.32485e-20)
(0.181487 2.78817 -1.01229e-19)
(0.17874 2.80694 5.26037e-20)
(0.175818 2.82619 9.72516e-20)
(0.172717 2.84594 0)
(0.169432 2.86619 0)
(0.165958 2.88696 0)
(0.16229 2.90826 8.11394e-20)
(0.158425 2.93013 -5.45581e-21)
(0.154357 2.95256 -1.56466e-19)
(0.150082 2.97558 0)
(0.145661 2.99887 6.93253e-20)
(0.141221 3.02179 6.5021e-20)
(0.136833 3.04403 -6.06159e-20)
(0.132495 3.06561 0)
(0.128222 3.08656 0)
(0.124014 3.10687 0)
(0.11986 3.12652 0)
(0.11578 3.14555 0)
(0.111776 3.16397 7.4678e-20)
(0.107844 3.18181 -1.2478e-19)
(0.103982 3.19907 8.45368e-20)
(0.100191 3.21577 -1.5051e-20)
(0.0964792 3.23195 0)
(0.0928644 3.24767 0)
(0.0893684 3.26301 0)
(0.0860059 3.27806 -2.58012e-20)
(0.0827568 3.2928 3.432e-20)
(0.0795763 3.30715 2.65489e-20)
(0.0764473 3.32105 -2.61647e-20)
(0.0733606 3.33451 1.91559e-20)
(0.0703144 3.3475 -3.67757e-20)
(0.0673088 3.36002 1.36763e-20)
(0.0643447 3.37208 0)
(0.0614234 3.38366 -6.4634e-21)
(0.0585467 3.39476 6.32041e-21)
(0.0557161 3.40538 3.28875e-22)
(0.0891143 1.54263 0)
(-0.083804 1.60203 -2.98422e-17)
(-0.0581544 1.6102 1.96426e-17)
(-0.0576677 1.61988 3.50458e-19)
(-0.0579757 1.63058 1.37983e-17)
(-0.0577248 1.6418 -1.96867e-17)
(-0.0569999 1.65386 7.99208e-18)
(-0.0558141 1.66718 7.03027e-18)
(-0.0540773 1.68223 -6.67045e-18)
(-0.051654 1.69951 -6.46316e-18)
(-0.0483802 1.71936 1.20102e-20)
(-0.0439507 1.74198 5.6672e-18)
(-0.03809 1.7679 0)
(-0.0302554 1.79841 0)
(-0.0197716 1.83511 -5.13768e-18)
(-0.00648843 1.87834 4.93005e-18)
(0.00932768 1.9269 0)
(0.0270188 1.97838 -3.90192e-18)
(0.0456432 2.02992 3.57167e-18)
(0.0641335 2.07882 0)
(0.0815827 2.12309 -2.66913e-18)
(0.0974206 2.16172 2.20072e-18)
(0.111029 2.1944 6.48546e-20)
(0.122498 2.22193 0)
(0.13213 2.2453 1.75934e-18)
(0.139973 2.26531 -1.10501e-19)
(0.146279 2.28272 -3.04549e-18)
(0.151329 2.29812 1.41687e-18)
(0.155347 2.31196 -8.20034e-20)
(0.158529 2.32467 1.24734e-18)
(0.161044 2.3366 -1.05594e-18)
(0.163035 2.34799 0)
(0.164619 2.35906 8.39664e-19)
(0.165888 2.36993 -7.2946e-19)
(0.166906 2.38071 0)
(0.167723 2.39146 9.71928e-20)
(0.168372 2.40224 -9.09036e-20)
(0.168876 2.41308 -6.35628e-19)
(0.16925 2.42401 1.32039e-18)
(0.169505 2.43506 -8.06573e-20)
(0.169648 2.44624 -6.08998e-19)
(0.169681 2.45758 -6.40252e-19)
(0.169608 2.46908 1.02819e-18)
(0.169429 2.48078 -1.10147e-18)
(0.169144 2.49267 9.33633e-19)
(0.16875 2.50477 -3.9277e-19)
(0.168247 2.5171 4.24473e-19)
(0.167631 2.52967 -9.20611e-19)
(0.1669 2.54249 7.84988e-19)
(0.166051 2.55557 -7.54067e-19)
(0.165079 2.56893 3.1927e-19)
(0.163982 2.58258 -4.35067e-20)
(0.162755 2.59653 0)
(0.161394 2.6108 0)
(0.159894 2.62539 -3.89409e-20)
(0.158251 2.64032 -7.51378e-20)
(0.15646 2.6556 2.88336e-19)
(0.154516 2.67125 -4.24283e-19)
(0.152413 2.68727 -5.3722e-19)
(0.150145 2.70369 7.59672e-20)
(0.147708 2.7205 5.11588e-19)
(0.145094 2.73773 6.0607e-19)
(0.142299 2.75539 -5.96445e-19)
(0.139316 2.77348 5.68353e-20)
(0.136138 2.79203 0)
(0.13276 2.81105 5.37229e-20)
(0.129176 2.83054 4.04012e-19)
(0.125378 2.85053 -4.01997e-19)
(0.121361 2.87102 -1.91399e-19)
(0.117119 2.89203 -1.76028e-19)
(0.112645 2.91358 3.60204e-19)
(0.107935 2.93568 2.54972e-19)
(0.102983 2.95835 3.18232e-19)
(0.0977843 2.98161 -3.18383e-19)
(0.0924107 3.00514 -7.31382e-20)
(0.0870182 3.02829 -6.86298e-20)
(0.0816893 3.05075 6.40194e-20)
(0.0764264 3.07255 1.20543e-19)
(0.0712464 3.09371 3.27975e-19)
(0.0661399 3.11423 -1.28602e-20)
(0.0611072 3.13408 -2.00625e-19)
(0.0561664 3.15329 -4.55136e-20)
(0.0513168 3.17189 0)
(0.0465577 3.1899 1.97449e-20)
(0.0418886 3.20734 -1.76718e-20)
(0.0373075 3.22423 1.61617e-20)
(0.0328132 3.24057 0)
(0.0284101 3.25639 0)
(0.0241124 3.27174 -1.80263e-19)
(0.0199428 3.28673 6.94361e-21)
(0.0159166 3.30143 1.51279e-19)
(0.0120369 3.31589 0)
(0.00825634 3.33 0)
(0.00453987 3.34368 8.3436e-20)
(0.000884218 3.3569 -1.4859e-19)
(-0.00271515 3.36966 7.33963e-20)
(-0.00625652 3.38194 0)
(-0.00973779 3.39375 0)
(-0.013157 3.40506 -1.61372e-20)
(-0.0165115 3.41589 9.28765e-21)
(0.0555683 1.54629 4.15375e-17)
(-0.121094 1.60483 -6.5036e-17)
(-0.0945536 1.61141 9.73176e-17)
(-0.0944333 1.6184 -3.03907e-17)
(-0.0952288 1.62682 5.50882e-19)
(-0.0955677 1.6358 0)
(-0.0955799 1.64541 2.99675e-19)
(-0.0952895 1.65591 0)
(-0.0946404 1.66764 0)
(-0.0935356 1.68098 4.49464e-19)
(-0.0918725 1.69624 2.13284e-19)
(-0.089544 1.71364 0)
(-0.0864144 1.73332 0)
(-0.0822346 1.7554 3.51263e-19)
(-0.0767462 1.78028 -5.2459e-18)
(-0.0695637 1.80884 4.52578e-18)
(-0.0601239 1.84236 -4.50044e-18)
(-0.048103 1.88153 4.57181e-18)
(-0.033638 1.92583 -1.31903e-19)
(-0.0171465 1.97363 -4.05779e-18)
(0.000631754 2.02264 3.21119e-18)
(0.018822 2.07057 3.79453e-19)
(0.0364961 2.11539 1.68155e-19)
(0.0529611 2.15566 0)
(0.067721 2.19084 0)
(0.0803908 2.22101 2.00932e-18)
(0.0911296 2.24692 -1.53567e-18)
(0.100159 2.26932 -2.04587e-19)
(0.107539 2.28889 -1.23582e-18)
(0.113501 2.30624 1.42908e-18)
(0.118278 2.32181 0)
(0.122065 2.33602 0)
(0.125034 2.34921 1.43941e-19)
(0.127335 2.36169 2.0063e-18)
(0.129102 2.37368 -3.99696e-18)
(0.13044 2.38538 1.75154e-18)
(0.131442 2.39691 1.08236e-19)
(0.132169 2.40836 -2.02954e-19)
(0.132669 2.41981 1.89901e-19)
(0.132976 2.4313 8.86659e-20)
(0.133115 2.44288 0)
(0.1331 2.45458 7.85101e-20)
(0.132943 2.46642 1.48941e-19)
(0.13265 2.47842 -9.79389e-19)
(0.132226 2.49061 1.07832e-20)
(0.131671 2.503 1.14685e-18)
(0.130987 2.5156 0)
(0.130172 2.52844 -5.6922e-22)
(0.129224 2.54152 -2.20642e-19)
(0.12814 2.55486 0)
(0.126917 2.56848 1.0059e-19)
(0.12555 2.58238 -7.68439e-19)
(0.124035 2.59659 7.48137e-19)
(0.122368 2.6111 0)
(0.120542 2.62594 1.7211e-19)
(0.118553 2.64112 0)
(0.116394 2.65666 -1.59493e-19)
(0.11406 2.67255 -6.08023e-19)
(0.111545 2.68883 5.96091e-19)
(0.10884 2.70549 1.42768e-19)
(0.10594 2.72256 0)
(0.102838 2.74004 -6.55132e-19)
(0.0995264 2.75795 1.40395e-18)
(0.0959975 2.7763 -1.23797e-20)
(0.0922439 2.7951 -2.50802e-19)
(0.0882582 2.81437 -1.26886e-19)
(0.0840326 2.83412 -8.81491e-19)
(0.0795595 2.85436 1.36222e-20)
(0.0748316 2.87511 8.24364e-19)
(0.0698414 2.89638 1.64594e-21)
(0.0645817 2.91818 0)
(0.0590456 2.94054 5.29488e-19)
(0.0532264 2.96346 1.42921e-19)
(0.0471181 2.98697 -6.794e-19)
(0.0408055 3.01074 0)
(0.0344711 3.03412 0)
(0.028211 3.0568 -1.3834e-19)
(0.0220325 3.07883 3.71404e-19)
(0.0159485 3.10021 -1.07863e-18)
(0.00994892 3.12093 8.98715e-19)
(0.00404072 3.14098 -5.39804e-19)
(-0.0017616 3.16039 -3.30463e-19)
(-0.00745867 3.17917 3.76758e-19)
(-0.0130498 3.19736 -3.66444e-19)
(-0.0185337 3.21498 6.20051e-19)
(-0.0239112 3.23204 -2.95338e-19)
(-0.0291844 3.24857 2.47908e-19)
(-0.0343554 3.26456 -4.68333e-19)
(-0.0394223 3.28004 2.00105e-20)
(-0.044375 3.29506 1.9002e-20)
(-0.0491951 3.30971 1.90515e-19)
(-0.0538644 3.32407 0)
(-0.0583705 3.33823 1.08902e-19)
(-0.0627481 3.35209 -1.97343e-19)
(-0.0670433 3.36554 3.68164e-21)
(-0.0712611 3.37853 9.41484e-21)
(-0.0754027 3.39104 6.156e-21)
(-0.0794657 3.40306 7.25226e-21)
(-0.0834473 3.41458 2.73907e-20)
(-0.087344 3.4256 8.5631e-22)
(0.0220824 1.54889 -1.32452e-18)
(-0.157111 1.60593 -1.35369e-16)
(-0.130017 1.61245 1.5534e-19)
(-0.130049 1.61792 2.35466e-18)
(-0.131186 1.62483 4.36608e-17)
(-0.131938 1.6323 2.94521e-17)
(-0.13248 1.64024 -3.93844e-19)
(-0.132844 1.6488 -1.92503e-17)
(-0.132987 1.65818 0)
(-0.132849 1.66867 1.62871e-17)
(-0.132339 1.68056 -1.5517e-17)
(-0.131375 1.69405 0)
(-0.129858 1.70936 0)
(-0.127688 1.72663 -4.07724e-19)
(-0.124754 1.746 3.7954e-19)
(-0.120874 1.76753 3.48275e-19)
(-0.115782 1.79147 9.95152e-18)
(-0.109245 1.81839 -9.61299e-18)
(-0.10079 1.84928 0)
(-0.089962 1.88504 2.74548e-19)
(-0.0768028 1.9256 8.97204e-18)
(-0.0615418 1.96997 -1.52769e-17)
(-0.0447037 2.01644 6.58707e-18)
(-0.027034 2.06298 3.79908e-19)
(-0.00935419 2.10775 5.40358e-18)
(0.00755714 2.14922 -4.83184e-18)
(0.0231648 2.18641 -4.54756e-18)
(0.0370045 2.21905 4.32755e-18)
(0.0488985 2.24745 6.76242e-22)
(0.0590377 2.27225 -3.2514e-18)
(0.0675507 2.29404 3.06353e-18)
(0.0745274 2.31342 0)
(0.0801728 2.33086 0)
(0.0846834 2.34674 -2.50751e-18)
(0.0882302 2.3614 2.65731e-18)
(0.0909668 2.37515 -2.19459e-18)
(0.0930294 2.38826 2.06637e-18)
(0.0945407 2.40093 -1.6774e-18)
(0.0956044 2.41333 -2.10419e-19)
(0.0963027 2.4256 1.37384e-20)
(0.0966988 2.43781 3.15623e-18)
(0.0968392 2.45004 -2.96149e-18)
(0.0967577 2.46234 1.22462e-18)
(0.0964783 2.47476 0)
(0.0960173 2.48732 0)
(0.0953856 2.50005 -1.45821e-19)
(0.0945899 2.51298 -1.10172e-18)
(0.0936339 2.52613 9.24921e-19)
(0.0925188 2.5395 -7.44439e-19)
(0.0912439 2.55313 1.19663e-18)
(0.0898074 2.56703 1.12988e-18)
(0.088206 2.58121 -1.09076e-18)
(0.0864358 2.59568 0)
(0.0844919 2.61046 -5.89218e-19)
(0.0823689 2.62557 7.68389e-19)
(0.080061 2.64102 0)
(0.0775617 2.65681 1.74771e-19)
(0.0748642 2.67298 1.67896e-19)
(0.0719612 2.68951 -3.2488e-19)
(0.0688452 2.70644 -1.55193e-19)
(0.0655081 2.72377 3.00646e-19)
(0.0619419 2.74152 1.14032e-18)
(0.058138 2.7597 -1.39955e-18)
(0.0540877 2.77832 1.05505e-18)
(0.0497821 2.79739 -1.54247e-18)
(0.0452122 2.81693 1.00361e-18)
(0.040369 2.83695 -1.17709e-18)
(0.0352433 2.85747 1.16048e-18)
(0.0298261 2.87849 -2.19237e-19)
(0.0241085 2.90002 -1.0412e-18)
(0.0180818 2.9221 8.28044e-19)
(0.0117374 2.94472 0)
(0.00506715 2.9679 -1.85692e-19)
(-0.00193635 2.99167 0)
(-0.00917618 3.0157 0)
(-0.0164428 3.03932 0)
(-0.0236263 3.06224 7.2178e-19)
(-0.0307145 3.0845 -5.68452e-19)
(-0.0376976 3.10611 -2.60875e-19)
(-0.0445856 3.12705 -2.44958e-19)
(-0.0513704 3.14731 1.13426e-19)
(-0.0580372 3.16692 -1.0737e-19)
(-0.0645865 3.18589 -3.83313e-19)
(-0.0710175 3.20427 3.8089e-19)
(-0.077328 3.22207 3.26428e-19)
(-0.0835173 3.23931 -2.45292e-20)
(-0.0895857 3.25601 -8.3999e-19)
(-0.0955351 3.27219 4.54695e-20)
(-0.101367 3.28785 4.85002e-19)
(-0.107081 3.30301 -5.20816e-20)
(-0.11267 3.31773 2.33614e-20)
(-0.118121 3.33206 -2.9321e-19)
(-0.123414 3.34612 2.80722e-19)
(-0.128537 3.35998 -1.39259e-20)
(-0.133509 3.37358 1.11773e-20)
(-0.138375 3.38678 1.24488e-19)
(-0.143145 3.3995 -2.27835e-19)
(-0.147814 3.41172 1.06878e-19)
(-0.152378 3.42343 4.82153e-20)
(-0.156836 3.43463 -7.09346e-20)
(-0.161183 3.4453 2.29468e-20)
(-0.165416 3.45544 -5.74473e-24)
(-0.169532 3.46505 -4.01004e-20)
(-0.17353 3.47412 3.88094e-20)
(-0.0109138 1.55055 8.90733e-17)
(-0.192021 1.60573 0)
(-0.164594 1.6128 1.22007e-16)
(-0.164677 1.61754 1.19274e-18)
(-0.166029 1.6236 -1.06454e-16)
(-0.167043 1.63015 7.18872e-17)
(-0.167929 1.63707 -2.5726e-17)
(-0.168727 1.64443 0)
(-0.169415 1.65232 1.97439e-17)
(-0.169945 1.66091 -3.58435e-17)
(-0.170261 1.67041 1.6767e-17)
(-0.170298 1.68107 -5.22643e-19)
(-0.169964 1.69306 1.59295e-17)
(-0.169181 1.70658 -3.00126e-17)
(-0.167854 1.72181 1.36039e-17)
(-0.165892 1.73888 -8.15621e-19)
(-0.163196 1.75791 1.20907e-17)
(-0.159642 1.77892 -1.0386e-17)
(-0.154974 1.80205 0)
(-0.149045 1.82766 9.33076e-18)
(-0.141483 1.85651 -9.99699e-18)
(-0.131793 1.88948 -5.3114e-19)
(-0.119885 1.92682 0)
(-0.105871 1.968 -9.25036e-19)
(-0.090088 2.01185 0)
(-0.0731242 2.05672 5.68552e-18)
(-0.0557013 2.10093 3.1694e-19)
(-0.0385773 2.14296 -5.50393e-18)
(-0.0224011 2.18166 -2.72718e-19)
(-0.00758056 2.21643 0)
(0.00543333 2.24715 0)
(0.0166328 2.27428 0)
(0.0262378 2.29833 -2.66398e-18)
(0.0342791 2.31977 2.88134e-18)
(0.0408747 2.33915 -3.3714e-19)
(0.0462056 2.35684 2.53275e-18)
(0.0504373 2.37313 -2.09813e-18)
(0.0537205 2.38834 2.23555e-18)
(0.0561925 2.40273 -2.11472e-18)
(0.0579799 2.41655 0)
(0.0591965 2.42999 2.31203e-18)
(0.0599393 2.44319 -1.74855e-18)
(0.0602867 2.45629 1.21758e-18)
(0.0602993 2.46936 -1.15849e-18)
(0.0600225 2.48248 3.62208e-19)
(0.0594895 2.4957 -3.41226e-19)
(0.058724 2.50906 0)
(0.0577424 2.5226 -1.58888e-21)
(0.0565555 2.53634 0)
(0.0551694 2.55031 1.89332e-18)
(0.0535874 2.56453 -2.33965e-18)
(0.0518099 2.57902 2.45226e-19)
(0.0498354 2.59379 -1.86051e-18)
(0.0476609 2.60887 1.57743e-18)
(0.045282 2.62427 -2.1266e-19)
(0.0426932 2.64 0)
(0.0398885 2.65608 0)
(0.0368607 2.67253 -1.48148e-18)
(0.0336024 2.68935 3.84066e-19)
(0.0301052 2.70656 1.38784e-18)
(0.0263603 2.72418 9.76316e-19)
(0.0223587 2.74221 -1.27997e-18)
(0.0180906 2.76067 0)
(0.0135461 2.77958 0)
(0.00871505 2.79894 -2.79394e-19)
(0.00358692 2.81877 0)
(-0.00184893 2.83907 -2.62052e-19)
(-0.00760328 2.85988 7.30839e-19)
(-0.0136869 2.88118 -9.70333e-19)
(-0.0201105 2.90301 4.59911e-19)
(-0.0268846 2.92537 4.41023e-19)
(-0.0340195 2.94827 4.22551e-19)
(-0.0415253 2.97174 0)
(-0.0494109 2.99578 3.62127e-19)
(-0.0575675 3.02008 -3.78977e-19)
(-0.0657587 3.04396 6.63572e-19)
(-0.0738593 3.06712 -3.34465e-19)
(-0.0818544 3.08962 1.16039e-18)
(-0.0897341 3.11147 -6.90632e-20)
(-0.0975094 3.13264 1.99014e-19)
(-0.105174 3.15313 -1.02568e-18)
(-0.112711 3.17295 7.81845e-19)
(-0.120121 3.19214 -6.78857e-19)
(-0.127402 3.21071 0)
(-0.134552 3.2287 9.38568e-20)
(-0.141571 3.24613 6.57933e-19)
(-0.148456 3.26302 -1.30453e-19)
(-0.155209 3.27937 -4.95977e-20)
(-0.161829 3.29522 -5.36049e-19)
(-0.168316 3.31056 -1.18975e-21)
(-0.17467 3.32542 2.81018e-19)
(-0.180885 3.33984 -3.71245e-19)
(-0.18695 3.35389 2.79486e-19)
(-0.192851 3.36766 -2.82991e-19)
(-0.198572 3.38123 1.87072e-19)
(-0.204124 3.39455 -1.7009e-19)
(-0.209546 3.40745 0)
(-0.214849 3.41985 0)
(-0.220018 3.43174 6.07136e-20)
(-0.225054 3.44309 -5.22728e-20)
(-0.229954 3.4539 9.21288e-22)
(-0.234716 3.46417 -2.69185e-22)
(-0.239337 3.47388 -3.85249e-20)
(-0.243816 3.48305 3.72502e-20)
(-0.0432047 1.55141 -4.05012e-18)
(-0.225919 1.60454 3.03888e-16)
(-0.198279 1.61235 -2.64219e-16)
(-0.198382 1.6167 9.13981e-17)
(-0.199862 1.62229 0)
(-0.201031 1.62832 0)
(-0.202121 1.63467 -1.88168e-18)
(-0.203185 1.64134 -2.40091e-17)
(-0.204205 1.64838 4.05313e-17)
(-0.205157 1.65587 -1.87233e-17)
(-0.206019 1.66392 0)
(-0.206725 1.6727 3.6342e-23)
(-0.207223 1.68239 -5.31339e-19)
(-0.207456 1.69317 0)
(-0.207324 1.70523 9.92647e-19)
(-0.206753 1.71873 9.3506e-19)
(-0.205653 1.73385 -8.74087e-19)
(-0.203938 1.75071 -8.12544e-19)
(-0.201518 1.76942 0)
(-0.1983 1.78999 0)
(-0.194092 1.81246 6.28734e-19)
(-0.188718 1.83711 -2.65296e-22)
(-0.181942 1.86444 5.39344e-19)
(-0.173343 1.89516 -3.91812e-22)
(-0.162634 1.92973 0)
(-0.149868 1.96804 -4.55301e-19)
(-0.135233 2.00932 -1.253e-18)
(-0.11916 2.05229 -3.80445e-19)
(-0.102262 2.0955 0)
(-0.0852132 2.13754 0)
(-0.0687034 2.17722 -5.54984e-19)
(-0.0532607 2.21362 4.99316e-19)
(-0.0392329 2.24641 2.68427e-18)
(-0.0269819 2.2757 -4.3041e-19)
(-0.0164105 2.30192 -4.02178e-19)
(-0.00732773 2.32549 -3.24667e-18)
(0.000254701 2.34683 -2.70087e-18)
(0.00646592 2.36638 3.2079e-18)
(0.0114634 2.38443 -2.40288e-18)
(0.0153897 2.40125 2.28268e-18)
(0.0183732 2.4171 -5.3433e-19)
(0.0205373 2.43224 0)
(0.0219998 2.44687 4.25468e-18)
(0.0228671 2.46117 -3.58986e-18)
(0.02323 2.47528 -4.19703e-19)
(0.0231625 2.48932 3.95233e-19)
(0.0227221 2.50337 3.74353e-19)
(0.0219524 2.51749 -2.09686e-18)
(0.0208859 2.53175 2.67454e-18)
(0.0195457 2.54618 0)
(0.0179474 2.56081 -5.96258e-19)
(0.0161015 2.57569 0)
(0.0140134 2.59083 0)
(0.0116856 2.60625 -5.09383e-19)
(0.00911766 2.62199 0)
(0.00630689 2.63804 -4.6158e-19)
(0.00324902 2.65444 4.40152e-19)
(-6.16275e-05 2.6712 -1.65991e-18)
(-0.00363197 2.68833 2.01644e-18)
(-0.00747012 2.70584 1.51483e-18)
(-0.0115851 2.72377 -1.84642e-18)
(-0.0159867 2.7421 7.0347e-19)
(-0.0206852 2.76087 6.5302e-19)
(-0.0256916 2.78008 -1.30225e-18)
(-0.0310174 2.79975 1.21699e-18)
(-0.0366744 2.81989 -1.19839e-18)
(-0.0426748 2.8405 5.6423e-19)
(-0.0490314 2.86162 1.06912e-18)
(-0.0557566 2.88323 -1.0583e-18)
(-0.0628634 2.90537 -4.9627e-19)
(-0.0703644 2.92803 -9.54694e-19)
(-0.0782719 2.95124 4.39836e-19)
(-0.0865981 2.97501 1.25275e-18)
(-0.0953538 2.99935 -4.52565e-19)
(-0.104419 3.02394 1.13903e-18)
(-0.113529 3.04809 -1.51621e-18)
(-0.122543 3.0715 4.11075e-21)
(-0.131445 3.09424 -9.33155e-19)
(-0.140221 3.11635 1.55884e-18)
(-0.148883 3.13777 0)
(-0.157431 3.1585 0)
(-0.165845 3.17855 2.53025e-19)
(-0.174125 3.19796 -1.15644e-18)
(-0.182269 3.21676 9.16817e-19)
(-0.190276 3.23496 6.88269e-19)
(-0.198142 3.2526 -5.94055e-19)
(-0.205868 3.26968 5.74824e-19)
(-0.213451 3.28623 -5.77126e-19)
(-0.22089 3.30226 -7.17782e-20)
(-0.228183 3.31779 6.29142e-20)
(-0.235328 3.33282 5.56294e-20)
(-0.242319 3.34737 0)
(-0.24915 3.3615 0)
(-0.255811 3.37527 3.47679e-20)
(-0.262292 3.38876 2.93496e-20)
(-0.268575 3.40204 1.68109e-19)
(-0.274675 3.41504 -3.17269e-20)
(-0.28062 3.42758 -1.40891e-19)
(-0.286414 3.43959 6.555e-20)
(-0.292042 3.45106 -6.6811e-20)
(-0.297508 3.46199 -1.01695e-20)
(-0.302812 3.47236 9.58278e-21)
(-0.30795 3.48216 -3.50634e-20)
(-0.312922 3.4914 -2.13083e-20)
(-0.074669 1.55155 -8.9477e-17)
(-0.25884 1.60258 1.58342e-16)
(-0.231024 1.61106 -2.82152e-16)
(-0.231114 1.61515 1.02832e-16)
(-0.232664 1.62044 2.13327e-18)
(-0.233917 1.62618 -4.60901e-17)
(-0.235123 1.6322 6.82329e-17)
(-0.236337 1.63851 -2.64014e-17)
(-0.23755 1.6451 2.27371e-17)
(-0.238749 1.65201 -1.94786e-17)
(-0.239919 1.6593 0)
(-0.241036 1.66704 5.38832e-19)
(-0.242076 1.67535 -1.74682e-17)
(-0.242966 1.68437 1.68013e-17)
(-0.243668 1.69424 -1.03499e-18)
(-0.24411 1.70515 -1.62251e-17)
(-0.244209 1.71726 1.66723e-17)
(-0.243882 1.73075 1.57467e-17)
(-0.243045 1.74578 -3.58776e-20)
(-0.241614 1.76246 -1.29599e-17)
(-0.239509 1.7809 -7.49537e-19)
(-0.23665 1.80112 6.86181e-19)
(-0.232908 1.82315 -1.87841e-18)
(-0.228063 1.8471 -5.70559e-19)
(-0.222021 1.87328 -9.44334e-18)
(-0.214433 1.90225 8.97832e-18)
(-0.204877 1.9346 -8.81743e-22)
(-0.193353 1.97038 8.90015e-19)
(-0.179944 2.00919 -8.25487e-19)
(-0.164924 2.05014 7.56086e-19)
(-0.148773 2.09203 6.16421e-18)
(-0.132103 2.13357 -5.60151e-18)
(-0.115555 2.1736 5.59901e-19)
(-0.0997322 2.21118 -1.48011e-21)
(-0.0850446 2.24565 4.56663e-19)
(-0.0718514 2.27689 4.14795e-19)
(-0.0603302 2.30513 -6.49857e-18)
(-0.0503395 2.33074 4.38098e-20)
(-0.0417924 2.35405 6.13252e-18)
(-0.0346709 2.37549 0)
(-0.0288617 2.39537 0)
(-0.0242325 2.41392 0)
(-0.0206606 2.43138 -4.85742e-18)
(-0.0180323 2.448 4.11461e-18)
(-0.0162358 2.46399 0)
(-0.0151632 2.47955 0)
(-0.0147159 2.49484 -3.85431e-18)
(-0.0148098 2.50998 2.86276e-18)
(-0.0153757 2.52508 3.05088e-18)
(-0.0163596 2.54023 -2.91586e-18)
(-0.0177198 2.55549 6.8291e-19)
(-0.0194255 2.57091 0)
(-0.0214546 2.58655 0)
(-0.0237921 2.60242 1.16218e-18)
(-0.0264287 2.61857 2.18782e-18)
(-0.0293594 2.63502 -1.58827e-18)
(-0.0325828 2.65179 -4.9578e-19)
(-0.0361002 2.66891 0)
(-0.0399153 2.68639 -2.23532e-18)
(-0.0440344 2.70425 3.35376e-20)
(-0.0484658 2.72251 2.06466e-18)
(-0.0532185 2.74118 -1.56527e-18)
(-0.0583026 2.76028 7.44682e-19)
(-0.0637294 2.77983 0)
(-0.0695112 2.79983 0)
(-0.0756609 2.8203 6.32492e-19)
(-0.0821923 2.84125 -3.64689e-20)
(-0.0891198 2.86269 -3.71885e-20)
(-0.0964582 2.88464 -5.87889e-19)
(-0.104222 2.90711 0)
(-0.112427 2.93011 1.04483e-18)
(-0.121088 2.95365 1.00295e-18)
(-0.130218 2.97775 -1.43065e-18)
(-0.139832 3.00242 -8.98885e-19)
(-0.149797 3.02731 0)
(-0.159822 3.05175 -2.37571e-18)
(-0.169748 3.07543 1.93101e-18)
(-0.17956 3.09842 4.47614e-21)
(-0.189232 3.12079 -3.34053e-19)
(-0.198778 3.14248 3.1732e-19)
(-0.208214 3.16347 2.99705e-19)
(-0.217513 3.18378 0)
(-0.226675 3.20344 0)
(-0.235699 3.22248 0)
(-0.244581 3.24092 -8.72161e-19)
(-0.253319 3.25878 -1.43245e-19)
(-0.261911 3.27608 1.72256e-18)
(-0.270354 3.29285 -8.14723e-19)
(-0.278646 3.30909 -5.24936e-19)
(-0.286779 3.32481 5.93627e-19)
(-0.294748 3.34001 0)
(-0.302544 3.35471 4.13965e-19)
(-0.310155 3.36893 -4.00604e-19)
(-0.317571 3.38274 0)
(-0.324788 3.39619 -6.52914e-20)
(-0.331805 3.40938 -1.90247e-19)
(-0.338591 3.42236 1.80591e-19)
(-0.345181 3.43497 -1.10018e-19)
(-0.351609 3.44707 1.06319e-19)
(-0.357845 3.45864 0)
(-0.363894 3.46966 -2.01566e-20)
(-0.369757 3.48011 1.55808e-20)
(-0.375431 3.48999 3.12482e-20)
(-0.380913 3.49928 -8.55858e-20)
(-0.386201 3.50798 5.72239e-20)
(-0.105285 1.55102 2.84402e-18)
(-0.290803 1.59986 0)
(-0.262791 1.60891 -1.41376e-16)
(-0.262844 1.61275 1.10207e-16)
(-0.264422 1.61781 -9.85515e-23)
(-0.265715 1.62337 -1.58764e-18)
(-0.266979 1.62922 0)
(-0.268274 1.63532 -2.7866e-17)
(-0.26959 1.64168 2.44792e-17)
(-0.270924 1.64831 0)
(-0.272267 1.65523 1.14814e-18)
(-0.27361 1.66247 0)
(-0.274938 1.67008 6.84197e-23)
(-0.276227 1.67814 -1.61979e-17)
(-0.277446 1.68676 3.23718e-17)
(-0.278543 1.69604 -1.6177e-17)
(-0.279465 1.70614 1.60372e-17)
(-0.280139 1.71721 -3.36933e-17)
(-0.280506 1.72942 1.5421e-17)
(-0.280461 1.74293 9.16608e-19)
(-0.279928 1.75791 -8.62779e-19)
(-0.278824 1.77448 -1.12558e-17)
(-0.277068 1.79273 1.34683e-17)
(-0.274585 1.81271 1.3726e-18)
(-0.271288 1.83441 1.25057e-18)
(-0.266996 1.85782 -1.14051e-18)
(-0.261589 1.8832 1.04107e-18)
(-0.25486 1.91093 0)
(-0.246443 1.94148 -8.33252e-22)
(-0.236132 1.97507 9.67443e-22)
(-0.223978 2.01162 -8.11518e-19)
(-0.210137 2.05054 0)
(-0.194963 2.09088 0)
(-0.178957 2.13155 1.05543e-17)
(-0.162702 2.17145 -7.92937e-18)
(-0.146798 2.20964 0)
(-0.13175 2.24536 -7.39722e-18)
(-0.117867 2.27823 1.17904e-17)
(-0.105535 2.30828 -6.96107e-18)
(-0.094757 2.3358 0)
(-0.0853564 2.36106 -6.09381e-18)
(-0.0773722 2.38437 5.16079e-18)
(-0.0707482 2.40609 1.21658e-18)
(-0.065381 2.42644 -5.16265e-18)
(-0.0611659 2.44564 3.83854e-18)
(-0.0580062 2.46388 0)
(-0.0558019 2.4814 3.89108e-18)
(-0.0544499 2.49838 -4.64915e-18)
(-0.0538509 2.515 3.4817e-18)
(-0.0539147 2.5314 -2.50162e-18)
(-0.0545644 2.5477 -3.8998e-18)
(-0.0557363 2.56401 2.98422e-18)
(-0.0573799 2.5804 -7.03747e-19)
(-0.0594561 2.59694 1.97592e-18)
(-0.0619357 2.61368 -3.77843e-20)
(-0.064798 2.63066 -2.40542e-18)
(-0.0680291 2.64792 0)
(-0.0716191 2.66549 -3.20956e-18)
(-0.0755632 2.68339 3.05987e-18)
(-0.0798633 2.70166 -1.9608e-18)
(-0.0845243 2.72032 0)
(-0.0895519 2.73937 8.76472e-19)
(-0.0949539 2.75885 2.49914e-18)
(-0.100741 2.77876 7.63955e-19)
(-0.106924 2.79913 -3.89898e-20)
(-0.113517 2.81997 -7.49952e-19)
(-0.120534 2.84128 2.73533e-18)
(-0.127992 2.8631 -2.68959e-18)
(-0.135906 2.88541 -1.26404e-18)
(-0.144295 2.90825 2.36909e-18)
(-0.153175 2.93161 -1.75966e-18)
(-0.162564 2.95552 -2.19251e-18)
(-0.172479 2.97997 3.07987e-18)
(-0.182935 3.00499 -1.03062e-18)
(-0.19379 3.03023 0)
(-0.204725 3.05499 -8.39047e-19)
(-0.215562 3.07895 8.72939e-19)
(-0.226288 3.1022 -2.65826e-18)
(-0.236859 3.12482 1.84746e-18)
(-0.247293 3.14679 -6.87798e-19)
(-0.257622 3.16808 -1.58954e-18)
(-0.267817 3.18868 7.7887e-20)
(-0.277876 3.20862 7.60095e-20)
(-0.287798 3.22793 1.11297e-18)
(-0.297579 3.24663 1.21607e-18)
(-0.307216 3.26475 -6.98426e-20)
(-0.316704 3.2823 -6.68633e-19)
(-0.326037 3.29931 1.95693e-19)
(-0.335207 3.31578 -6.70065e-19)
(-0.344203 3.3317 8.18227e-19)
(-0.353013 3.34709 0)
(-0.361625 3.36193 4.61391e-19)
(-0.370024 3.37624 -7.88274e-19)
(-0.378199 3.39007 3.79241e-19)
(-0.386144 3.40349 3.06988e-19)
(-0.393867 3.41659 -2.553e-19)
(-0.401341 3.42947 2.35119e-20)
(-0.408593 3.44209 -1.06521e-19)
(-0.415657 3.45427 1.06546e-19)
(-0.422527 3.46591 9.05183e-21)
(-0.429187 3.47701 4.31162e-21)
(-0.435637 3.48753 0)
(-0.441874 3.49746 1.28491e-21)
(-0.447891 3.50678 -2.75843e-21)
(-0.453683 3.5155 -4.07184e-21)
(-0.459249 3.5236 1.74251e-19)
(-0.464585 3.53111 -1.8294e-19)
(-0.135056 1.54985 -9.25188e-17)
(-0.321809 1.59636 0)
(-0.293554 1.60586 1.57238e-16)
(-0.293558 1.60945 -1.16578e-16)
(-0.295132 1.61431 -2.49896e-18)
(-0.296435 1.61973 3.43579e-18)
(-0.297724 1.62547 4.00765e-17)
(-0.299057 1.63146 -3.2151e-17)
(-0.300426 1.6377 -1.59156e-18)
(-0.301828 1.64419 -2.30218e-17)
(-0.30326 1.65094 1.91261e-17)
(-0.304718 1.65795 1.0842e-18)
(-0.306199 1.66525 5.51442e-23)
(-0.307692 1.67288 9.70783e-19)
(-0.309183 1.68088 9.55061e-19)
(-0.310648 1.68933 1.52863e-17)
(-0.312055 1.6983 -3.61786e-20)
(-0.313373 1.70792 -1.45533e-17)
(-0.314521 1.71829 0)
(-0.315459 1.72957 -9.64011e-19)
(-0.316097 1.74192 -1.31582e-17)
(-0.316361 1.75551 1.26483e-17)
(-0.316156 1.77049 1.36464e-17)
(-0.315399 1.787 -1.28347e-17)
(-0.314009 1.80512 0)
(-0.311917 1.82491 1.37483e-18)
(-0.309059 1.84637 0)
(-0.305316 1.86947 1.14246e-18)
(-0.300504 1.89433 2.06818e-18)
(-0.294567 1.92118 -9.49695e-19)
(-0.287217 1.95037 8.93766e-19)
(-0.278094 1.98224 -1.69282e-18)
(-0.26721 2.01678 1.58713e-18)
(-0.254644 2.05373 -1.32274e-17)
(-0.24062 2.0924 1.08826e-17)
(-0.225533 2.1319 0)
(-0.209892 2.17126 9.01732e-18)
(-0.194248 2.20957 -6.1981e-18)
(-0.17914 2.24609 0)
(-0.164961 2.28022 0)
(-0.152025 2.31181 7.77723e-19)
(-0.140564 2.34102 0)
(-0.130494 2.36808 -6.77365e-19)
(-0.121745 2.39322 0)
(-0.114354 2.41677 -4.23832e-18)
(-0.10827 2.43896 4.63947e-18)
(-0.103408 2.45996 -1.09765e-18)
(-0.0996887 2.47996 1.03591e-18)
(-0.09703 2.49914 0)
(-0.0953435 2.5177 -9.31492e-19)
(-0.094537 2.53581 8.82998e-19)
(-0.0945214 2.55364 8.41855e-19)
(-0.0952161 2.57131 -4.86263e-21)
(-0.0965511 2.58893 0)
(-0.0984679 2.6066 2.12006e-18)
(-0.10092 2.62438 -4.22147e-20)
(-0.103871 2.64236 -2.59048e-18)
(-0.107285 2.66055 1.21456e-18)
(-0.111147 2.67902 -1.13977e-18)
(-0.115454 2.69782 1.11508e-18)
(-0.120198 2.71697 -2.06563e-18)
(-0.125373 2.7365 2.97096e-18)
(-0.13098 2.75643 -2.84647e-18)
(-0.137029 2.77678 -2.6662e-18)
(-0.143528 2.79757 1.72912e-18)
(-0.150486 2.81882 -8.16451e-19)
(-0.15792 2.84055 -3.05115e-18)
(-0.165846 2.86277 1.51171e-18)
(-0.174283 2.8855 -6.52162e-19)
(-0.183249 2.90874 4.06173e-18)
(-0.192764 2.93252 1.31889e-20)
(-0.202846 2.95682 -1.29727e-20)
(-0.213516 2.98168 -2.24803e-18)
(-0.224792 3.00709 2.17349e-18)
(-0.23652 3.03271 -3.1342e-18)
(-0.248358 3.05781 -1.88058e-18)
(-0.260105 3.08209 2.76623e-18)
(-0.271745 3.10562 -1.65686e-18)
(-0.283235 3.12848 3.96897e-18)
(-0.294579 3.15075 -1.17211e-18)
(-0.305802 3.17235 1.38532e-18)
(-0.316902 3.19327 -1.39208e-18)
(-0.327872 3.21352 -1.54574e-18)
(-0.338712 3.23314 9.26951e-19)
(-0.349416 3.25214 7.90441e-19)
(-0.359976 3.27055 -1.31645e-18)
(-0.370381 3.28838 -2.3238e-19)
(-0.380616 3.30565 3.92244e-19)
(-0.390665 3.32235 -1.7444e-18)
(-0.40051 3.33849 7.30639e-19)
(-0.41014 3.35405 1.55828e-19)
(-0.419544 3.36904 0)
(-0.428718 3.38344 -5.75308e-20)
(-0.437655 3.3973 3.69711e-19)
(-0.446353 3.41067 -3.94073e-19)
(-0.454811 3.42367 -2.08998e-19)
(-0.463028 3.43642 4.16713e-19)
(-0.470985 3.449 -1.77684e-19)
(-0.478722 3.46126 1.14158e-19)
(-0.486259 3.473 -1.06435e-19)
(-0.493566 3.48417 -6.08302e-20)
(-0.500635 3.49474 5.62946e-20)
(-0.50746 3.5047 -5.57862e-20)
(-0.514032 3.51403 5.24927e-20)
(-0.520345 3.52271 0)
(-0.526395 3.53076 5.2304e-21)
(-0.53218 3.53819 0)
(-0.537701 3.545 -7.2341e-21)
(-0.164005 1.5481 9.39266e-17)
(-0.351856 1.59212 -3.54744e-16)
(-0.323305 1.60194 -4.72291e-18)
(-0.323253 1.60524 1.21872e-16)
(-0.324801 1.60991 0)
(-0.326099 1.61521 -1.82613e-18)
(-0.327396 1.62087 -4.2768e-17)
(-0.328748 1.62679 5.67284e-20)
(-0.330144 1.63297 2.54591e-17)
(-0.33158 1.63938 1.43575e-18)
(-0.333057 1.64604 1.87728e-17)
(-0.334573 1.65295 -3.51886e-20)
(-0.336128 1.66012 -3.1821e-17)
(-0.33772 1.66757 1.34563e-17)
(-0.339343 1.67531 -1.46591e-17)
(-0.340989 1.68338 1.43466e-17)
(-0.342644 1.69183 0)
(-0.344288 1.70071 -1.8044e-18)
(-0.345891 1.71011 1.83014e-18)
(-0.347417 1.72011 -1.85291e-18)
(-0.348816 1.73082 2.98586e-17)
(-0.350018 1.74239 -2.98338e-17)
(-0.350956 1.75496 0)
(-0.351545 1.76869 0)
(-0.351694 1.78374 1.68354e-18)
(-0.351317 1.80024 0)
(-0.350331 1.8183 1.48441e-18)
(-0.348664 1.83798 2.06156e-17)
(-0.346256 1.85931 -2.26269e-17)
(-0.343031 1.88225 2.28589e-18)
(-0.338838 1.90676 2.07223e-18)
(-0.333571 1.93301 1.69443e-17)
(-0.327109 1.96127 -1.57524e-17)
(-0.319164 1.99178 1.64119e-18)