/*--------------------------------*- C++ -*----------------------------------*\
  =========                 |
  \\      /  F ield         | OpenFOAM: The Open Source CFD Toolbox
   \\    /   O peration     | Website:  https://openfoam.org
    \\  /    A nd           | Version:  10
     \\/     M anipulation  |
\*---------------------------------------------------------------------------*/
FoamFile
{
    format      ascii;
    class       volScalarField;
    location    "2600";
    object      k;
}
// * * * * * * * * * * * * * * * * * * * * * * * * * * * * * * * * * * * * * //

dimensions      [0 2 -2 0 0 0 0];

internalField   nonuniform List<scalar> 
420
(
2.22045e-16
2.22045e-16
2.22045e-16
2.22045e-16
2.22045e-16
2.22045e-16
2.22045e-16
2.22045e-16
2.22045e-16
2.22045e-16
2.22045e-16
2.22045e-16
2.22045e-16
2.22045e-16
2.22045e-16
2.22045e-16
2.22045e-16
2.22045e-16
2.22045e-16
2.22045e-16
2.22045e-16
2.22045e-16
2.22045e-16
2.22045e-16
2.22045e-16
2.22045e-16
2.22045e-16
2.22045e-16
2.22045e-16
2.22045e-16
2.22045e-16
2.22045e-16
2.22045e-16
2.22045e-16
2.22045e-16
2.22045e-16
2.22045e-16
2.22045e-16
2.22045e-16
2.22045e-16
2.22045e-16
2.22045e-16
2.22045e-16
2.22045e-16
2.22045e-16
2.22045e-16
2.22045e-16
2.22045e-16
2.22045e-16
2.22045e-16
2.22045e-16
2.22045e-16
2.22045e-16
2.22045e-16
2.22045e-16
2.22045e-16
2.22045e-16
2.22045e-16
2.22045e-16
2.22045e-16
2.22045e-16
2.22045e-16
2.22045e-16
2.22045e-16
2.22045e-16
2.22045e-16
2.22045e-16
2.22045e-16
2.22045e-16
2.22045e-16
2.22045e-16
2.22045e-16
2.22045e-16
2.22045e-16
2.22045e-16
2.22045e-16
2.22045e-16
2.22045e-16
2.22045e-16
2.22045e-16
2.22045e-16
2.22045e-16
2.22045e-16
2.22045e-16
2.22045e-16
2.22045e-16
2.22045e-16
2.22045e-16
2.22045e-16
2.22045e-16
2.22045e-16
2.22045e-16
2.22045e-16
2.22045e-16
2.22045e-16
2.22045e-16
2.22045e-16
2.22045e-16
2.22045e-16
2.22045e-16
2.22045e-16
2.22045e-16
2.22045e-16
2.65825e-16
3.04421e-16
2.88651e-16
2.38784e-16
2.53931e-16
2.82796e-16
2.38821e-16
2.22045e-16
2.22045e-16
2.22045e-16
2.59156e-16
2.98196e-16
2.86708e-16
2.37285e-16
2.44264e-16
2.83653e-16
2.39705e-16
2.22045e-16
2.22045e-16
2.22045e-16
2.52183e-16
2.92269e-16
2.87217e-16
2.38436e-16
2.38956e-16
2.78461e-16
2.40696e-16
2.22045e-16
2.22045e-16
2.22045e-16
2.46468e-16
2.86835e-16
2.8785e-16
2.39996e-16
2.36004e-16
2.71885e-16
2.392e-16
2.22045e-16
2.22045e-16
2.22045e-16
2.43095e-16
2.82438e-16
2.88348e-16
2.41438e-16
2.33414e-16
2.64903e-16
2.36453e-16
2.22045e-16
2.22045e-16
2.22045e-16
2.42134e-16
2.81185e-16
2.89233e-16
2.424e-16
2.30501e-16
2.57875e-16
2.32932e-16
2.22045e-16
2.22045e-16
2.22045e-16
2.43531e-16
2.81793e-16
2.90524e-16
2.4316e-16
2.27138e-16
2.50695e-16
2.28671e-16
2.22045e-16
2.22045e-16
2.22045e-16
2.47357e-16
2.83787e-16
2.92558e-16
2.43983e-16
2.2343e-16
2.43357e-16
2.2392e-16
2.22045e-16
2.22045e-16
2.22045e-16
2.5364e-16
2.8687e-16
2.95103e-16
2.45009e-16
2.22045e-16
2.36289e-16
2.22045e-16
2.22045e-16
2.22045e-16
2.22045e-16
2.60855e-16
2.89826e-16
2.97139e-16
2.46117e-16
2.22045e-16
2.3102e-16
2.22045e-16
2.22045e-16
2.22045e-16
2.22045e-16
2.63479e-16
2.89455e-16
2.95369e-16
2.44876e-16
2.22045e-16
2.27329e-16
2.22045e-16
2.22045e-16
2.22045e-16
2.27465e-16
2.63114e-16
2.8935e-16
2.9474e-16
2.44263e-16
2.22045e-16
2.22045e-16
2.22045e-16
2.22045e-16
2.22045e-16
2.3627e-16
2.67471e-16
2.94421e-16
2.98923e-16
2.46e-16
2.22045e-16
2.22045e-16
2.22045e-16
2.22045e-16
2.28802e-16
2.48206e-16
2.75783e-16
3.03999e-16
3.05512e-16
2.49305e-16
2.22045e-16
2.22045e-16
2.22045e-16
2.26802e-16
2.35455e-16
2.49379e-16
2.79765e-16
3.10089e-16
3.08251e-16
2.51109e-16
2.22045e-16
2.22045e-16
2.22045e-16
2.27709e-16
2.33357e-16
2.49075e-16
2.83764e-16
3.16267e-16
3.10688e-16
2.53409e-16
2.22045e-16
2.22045e-16
2.22045e-16
2.25832e-16
2.31649e-16
2.49132e-16
2.87633e-16
3.21803e-16
3.12224e-16
2.55683e-16
2.22045e-16
2.22045e-16
2.22045e-16
2.24422e-16
2.30325e-16
2.48804e-16
2.90313e-16
3.25209e-16
3.11595e-16
2.57544e-16
2.22045e-16
2.22045e-16
2.22045e-16
2.23507e-16
2.28921e-16
2.47029e-16
2.90377e-16
3.25585e-16
3.08825e-16
2.5865e-16
2.22045e-16
2.22045e-16
2.22045e-16
2.22531e-16
2.26513e-16
2.42765e-16
2.8711e-16
3.21988e-16
3.04268e-16
2.5851e-16
2.29143e-16
2.27962e-16
2.22045e-16
2.22045e-16
2.22521e-16
2.34796e-16
2.80011e-16
3.14909e-16
2.97817e-16
2.56404e-16
2.39544e-16
2.51533e-16
2.2377e-16
2.22045e-16
2.22045e-16
2.26488e-16
2.74865e-16
3.12583e-16
2.95642e-16
2.56637e-16
2.44008e-16
2.88134e-16
2.31393e-16
2.22045e-16
2.22045e-16
2.22045e-16
2.22045e-16
2.22045e-16
2.22045e-16
2.22045e-16
2.22045e-16
2.22212e-16
2.22045e-16
2.22045e-16
2.22045e-16
2.22045e-16
2.22045e-16
2.22045e-16
2.22045e-16
2.22045e-16
2.22045e-16
2.22045e-16
2.22045e-16
2.22045e-16
2.22045e-16
2.22045e-16
2.22045e-16
2.22045e-16
2.22045e-16
2.22045e-16
2.22045e-16
2.22045e-16
2.22045e-16
2.22045e-16
2.22045e-16
2.22045e-16
2.22045e-16
2.22045e-16
2.22045e-16
2.22045e-16
2.22045e-16
2.22045e-16
2.22045e-16
2.22045e-16
2.22045e-16
2.22045e-16
2.22045e-16
2.22045e-16
2.22045e-16
2.22045e-16
2.22045e-16
2.22045e-16
2.22045e-16
2.22045e-16
2.22045e-16
2.22045e-16
2.22045e-16
2.22045e-16
2.22045e-16
2.22045e-16
2.22045e-16
2.22045e-16
2.22045e-16
2.22045e-16
2.22045e-16
2.22045e-16
2.22045e-16
2.22045e-16
2.22045e-16
2.22045e-16
2.22045e-16
2.22045e-16
2.22045e-16
2.22045e-16
2.22045e-16
2.22045e-16
2.22045e-16
2.22045e-16
2.22045e-16
2.22045e-16
2.22045e-16
2.22045e-16
2.22045e-16
2.22045e-16
2.22045e-16
2.22045e-16
2.22045e-16
2.22045e-16
2.22045e-16
2.22045e-16
2.22045e-16
2.22045e-16
2.22045e-16
2.22045e-16
2.22045e-16
2.22045e-16
2.22045e-16
2.22045e-16
2.22045e-16
2.22045e-16
2.22045e-16
2.22045e-16
2.22045e-16
)
;

boundaryField
{
    right
    {
        type            cyclic;
    }
    left
    {
        type            cyclic;
    }
    outerWall
    {
        type            kqRWallFunction;
        value           nonuniform List<scalar> 
22
(
2.38821e-16
2.39705e-16
2.40696e-16
2.392e-16
2.36453e-16
2.32932e-16
2.28671e-16
2.2392e-16
2.22045e-16
2.22045e-16
2.22045e-16
2.22045e-16
2.22045e-16
2.22045e-16
2.22045e-16
2.22045e-16
2.22045e-16
2.22045e-16
2.22045e-16
2.22045e-16
2.2377e-16
2.31393e-16
)
;
    }
    stirrerWall
    {
        type            kqRWallFunction;
        value           uniform 2.22045e-16;
    }
    top
    {
        type            empty;
    }
    bottom
    {
        type            empty;
    }
}


// ************************************************************************* //
