/*--------------------------------*- C++ -*----------------------------------*\
  =========                 |
  \\      /  F ield         | OpenFOAM: The Open Source CFD Toolbox
   \\    /   O peration     | Website:  https://openfoam.org
    \\  /    A nd           | Version:  10
     \\/     M anipulation  |
\*---------------------------------------------------------------------------*/
FoamFile
{
    format      ascii;
    class       volScalarField;
    location    "2600";
    object      nut;
}
// * * * * * * * * * * * * * * * * * * * * * * * * * * * * * * * * * * * * * //

dimensions      [0 2 -1 0 0 0 0];

internalField   nonuniform List<scalar> 
420
(
1.04478e-20
6.44393e-20
1.71338e-19
3.01105e-19
4.32476e-19
5.56878e-19
6.60502e-19
7.1142e-19
6.78051e-19
5.84845e-19
1.04473e-20
6.46336e-20
1.78151e-19
3.16633e-19
4.55209e-19
5.84112e-19
6.8252e-19
7.05668e-19
6.31139e-19
5.28402e-19
1.04471e-20
6.4442e-20
1.86823e-19
3.40092e-19
4.89696e-19
6.2238e-19
7.06415e-19
6.85172e-19
5.82013e-19
4.73735e-19
1.04472e-20
6.45605e-20
1.89698e-19
3.57651e-19
5.17279e-19
6.49015e-19
7.08548e-19
6.52318e-19
5.34746e-19
4.19778e-19
1.04476e-20
6.46183e-20
1.87749e-19
3.50258e-19
5.04984e-19
6.27666e-19
6.76312e-19
6.16471e-19
4.90615e-19
3.656e-19
1.04483e-20
6.38529e-20
1.74455e-19
3.02717e-19
4.19692e-19
5.19324e-19
5.78647e-19
5.50701e-19
4.38975e-19
3.07141e-19
1.04493e-20
6.04456e-20
1.38972e-19
2.08958e-19
2.71422e-19
3.34086e-19
3.88322e-19
4.01979e-19
3.47945e-19
2.37572e-19
1.04506e-20
4.77932e-20
8.01895e-20
1.04347e-19
1.28862e-19
1.56433e-19
1.85233e-19
2.05196e-19
2.00382e-19
1.51183e-19
1.04522e-20
2.1533e-20
2.80238e-20
3.4556e-20
4.18191e-20
4.99653e-20
5.886e-20
6.74398e-20
7.35108e-20
6.69858e-20
2.82342e-21
3.6643e-21
4.61494e-21
5.67535e-21
6.84552e-21
8.12545e-21
9.51514e-21
1.10146e-20
1.26238e-20
1.43428e-20
5.09154e-19
4.80134e-19
5.22464e-19
7.84055e-19
1.09183e-18
1.01751e-18
7.80925e-19
3.30192e-19
1.74702e-19
6.57745e-20
4.54886e-19
4.30634e-19
4.83347e-19
7.42003e-19
1.06682e-18
1.08605e-18
8.09037e-19
3.5955e-19
1.75494e-19
6.5599e-20
4.00058e-19
3.79517e-19
4.42548e-19
6.98293e-19
1.03951e-18
1.08247e-18
8.25112e-19
3.73975e-19
1.70721e-19
6.4674e-20
3.43985e-19
3.27676e-19
4.01854e-19
6.59456e-19
1.01312e-18
1.05507e-18
8.29092e-19
3.7373e-19
1.65363e-19
6.40773e-20
2.8652e-19
2.76712e-19
3.63206e-19
6.29743e-19
9.90309e-19
1.02987e-18
8.27655e-19
3.71709e-19
1.6185e-19
6.35577e-20
2.27678e-19
2.28317e-19
3.28448e-19
6.08483e-19
9.8041e-19
1.01115e-18
8.23628e-19
3.68889e-19
1.5858e-19
6.29657e-20
1.68663e-19
1.84051e-19
2.96398e-19
6.00887e-19
9.81641e-19
9.77669e-19
8.17691e-19
3.67789e-19
1.55639e-19
6.24445e-20
1.12597e-19
1.43655e-19
2.71553e-19
6.13234e-19
9.93704e-19
9.56629e-19
8.10353e-19
3.67941e-19
1.53782e-19
6.22521e-20
6.38648e-20
1.09335e-19
2.59598e-19
6.55096e-19
9.57865e-19
9.12983e-19
8.01795e-19
3.74698e-19
1.55542e-19
6.19801e-20
2.91207e-20
8.41166e-20
2.73294e-19
7.06459e-19
7.95238e-19
7.51694e-19
7.91696e-19
4.06032e-19
1.632e-19
6.19718e-20
1.03958e-20
7.53382e-20
3.49218e-19
7.15247e-19
8.02268e-19
7.4526e-19
7.76866e-19
4.40071e-19
1.53253e-19
6.20994e-20
1.03958e-20
9.36495e-20
4.2604e-19
8.58312e-19
1.06054e-18
1.07102e-18
7.69837e-19
4.33656e-19
1.43326e-19
6.20994e-20
5.42515e-20
2.06127e-19
5.6839e-19
8.87981e-19
1.06971e-18
1.06331e-18
7.64635e-19
3.61915e-19
1.5112e-19
6.19718e-20
2.58696e-19
5.3061e-19
6.68873e-19
7.77664e-19
9.13218e-19
8.55648e-19
7.54557e-19
4.08407e-19
1.56799e-19
6.19801e-20
5.62725e-19
6.26741e-19
6.7839e-19
7.7421e-19
9.10013e-19
8.51625e-19
7.41182e-19
3.97167e-19
1.64429e-19
6.19873e-20
6.85772e-19
6.80955e-19
6.92859e-19
7.726e-19
8.99959e-19
8.55624e-19
7.28553e-19
3.79385e-19
1.74699e-19
6.19932e-20
7.49134e-19
7.0061e-19
6.8892e-19
7.58321e-19
8.79102e-19
8.5235e-19
7.15869e-19
3.60377e-19
1.72526e-19
6.19978e-20
7.349e-19
6.88741e-19
6.72122e-19
7.48816e-19
8.89534e-19
8.17342e-19
7.0327e-19
3.41391e-19
1.60459e-19
6.20012e-20
6.97748e-19
6.65912e-19
6.93199e-19
8.0582e-19
9.85305e-19
7.79828e-19
6.93028e-19
3.23079e-19
1.48038e-19
6.20033e-20
6.55626e-19
6.25352e-19
6.88143e-19
9.17098e-19
1.00427e-18
7.55317e-19
6.95088e-19
3.20752e-19
1.40048e-19
6.2004e-20
6.11744e-19
5.78384e-19
6.39458e-19
8.86572e-19
1.13823e-18
8.95699e-19
7.17844e-19
3.38602e-19
1.49637e-19
6.24853e-20
5.66009e-19
5.33996e-19
5.81462e-19
8.50586e-19
1.13509e-18
1.08097e-18
7.83505e-19
2.67674e-19
1.68063e-19
5.93716e-20
1.43428e-20
1.17418e-19
4.3499e-19
6.65227e-19
7.80628e-19
7.88145e-19
7.64215e-19
7.31694e-19
6.92231e-19
6.43923e-19
1.26238e-20
8.65041e-20
3.09981e-19
6.0173e-19
7.54133e-19
7.91635e-19
7.89146e-19
7.73795e-19
7.49421e-19
7.16222e-19
1.10146e-20
6.44467e-20
2.1479e-19
4.38949e-19
6.17862e-19
7.05664e-19
7.33501e-19
7.40056e-19
7.34649e-19
7.19631e-19
9.51514e-21
5.06393e-20
1.41524e-19
2.81046e-19
4.3171e-19
5.52217e-19
6.17188e-19
6.48191e-19
6.58415e-19
6.54468e-19
8.12545e-21
4.31406e-20
1.09996e-19
2.01271e-19
3.02985e-19
3.98151e-19
4.77053e-19
5.26583e-19
5.48411e-19
5.50018e-19
6.84552e-21
3.74791e-20
9.42413e-20
1.6543e-19
2.41498e-19
3.13675e-19
3.74945e-19
4.14568e-19
4.3064e-19
4.29397e-19
5.67535e-21
3.21521e-20
8.28122e-20
1.43762e-19
2.03198e-19
2.53387e-19
2.89006e-19
3.05288e-19
3.06749e-19
3.00692e-19
4.61494e-21
2.66588e-20
6.90006e-20
1.14307e-19
1.48233e-19
1.68029e-19
1.76276e-19
1.76341e-19
1.73073e-19
1.70268e-19
3.6643e-21
2.0733e-20
4.35551e-20
5.63099e-20
6.17682e-20
6.36357e-20
6.37355e-20
6.34299e-20
6.32035e-20
6.41434e-20
2.82342e-21
1.04522e-20
1.04506e-20
1.04493e-20
1.04483e-20
1.04476e-20
1.04472e-20
1.04471e-20
1.04473e-20
1.04478e-20
)
;

boundaryField
{
    right
    {
        type            cyclic;
    }
    left
    {
        type            cyclic;
    }
    outerWall
    {
        type            nutkWallFunction;
        Cmu             0.09;
        kappa           0.41;
        E               9.8;
        value           uniform 0;
    }
    stirrerWall
    {
        type            nutkWallFunction;
        Cmu             0.09;
        kappa           0.41;
        E               9.8;
        value           uniform 0;
    }
    top
    {
        type            empty;
    }
    bottom
    {
        type            empty;
    }
}


// ************************************************************************* //
