/*--------------------------------*- C++ -*----------------------------------*\
  =========                 |
  \\      /  F ield         | OpenFOAM: The Open Source CFD Toolbox
   \\    /   O peration     | Website:  https://openfoam.org
    \\  /    A nd           | Version:  10
     \\/     M anipulation  |
\*---------------------------------------------------------------------------*/
FoamFile
{
    format      ascii;
    class       volScalarField;
    location    "2600";
    object      omega;
}
// * * * * * * * * * * * * * * * * * * * * * * * * * * * * * * * * * * * * * //

dimensions      [0 0 -1 0 0 0 0];

internalField   nonuniform List<scalar> 
420
(
21252.7
3445.79
1295.95
737.433
513.427
398.731
336.176
312.115
327.475
379.664
21253.7
3435.43
1246.38
701.267
487.786
380.14
325.33
314.659
351.816
420.219
21254.2
3445.65
1188.53
652.896
453.433
356.767
314.326
324.072
381.511
468.71
21254
3439.33
1170.51
620.841
429.255
342.125
313.38
340.393
415.234
528.958
21253.2
3436.25
1182.67
633.945
439.706
353.762
328.317
360.186
452.584
607.342
21251.7
3477.44
1272.79
733.505
529.066
427.565
383.731
403.203
505.826
722.941
21249.7
3673.46
1597.77
1062.63
818.078
664.634
571.805
552.379
638.16
934.639
21247.1
4645.94
2769
2127.94
1723.12
1419.43
1198.73
1082.11
1108.11
1468.72
21243.8
10311.8
7923.44
6425.65
5309.64
4443.98
3772.42
3292.48
3020.57
3314.8
78643.9
60596.7
48114.3
39124.4
32436.5
27327.1
23335.9
20159.1
17589.3
15481.3
436.105
462.464
424.995
339.039
278.817
264.46
305.771
541.912
1262.1
3581.27
488.132
515.623
459.389
349.266
279.517
262.536
293.293
486.607
1146.66
3581.17
555.031
585.072
501.741
361.143
281.161
262.926
288.974
463.195
1111.96
3581.13
645.507
677.634
552.55
373.745
283.12
264.307
289.469
457.928
1096.68
3581.18
774.97
802.439
611.347
386.022
285.202
266.198
291.713
458.148
1081.92
3581.3
975.258
972.529
676.042
397.93
286.804
268.036
294.308
460.389
1070.95
3581.49
1316.5
1206.43
749.144
405.286
287.063
269.825
297.373
464.364
1063.43
3581.76
1972.03
1545.68
817.684
403.365
285.585
271.66
301.082
470.259
1059.77
3582.1
3476.79
2030.87
855.339
387.18
282.375
273.625
305.575
478.303
1061.91
3582.51
7624.99
2639.73
812.475
354.608
278.058
275.504
310.874
489.166
1076.04
3582.99
21359.1
2947.31
635.834
314.917
273.109
275.096
315.21
504.566
1110.79
3575.63
21359.1
2371.02
533.906
306.548
272.832
275.197
317.292
512.03
1109.02
3575.63
4092.87
1077.22
415.683
301.212
275.234
278.19
321.723
520.385
1100.87
3582.99
858.322
431.206
323.307
295.841
278.454
282.6
330.399
537.189
1115.11
3582.51
365.679
317.904
309.644
297.29
280.012
284.782
338.795
559.07
1156.71
3582.1
298.839
307.696
313.734
300.708
281.489
286.678
347.826
585.275
1211.53
3581.76
295.609
315.381
321.681
304.383
282.675
288.257
357.164
616.145
1287.02
3581.49
305.378
328.139
330.876
307.669
283.277
289.19
366.209
650.411
1383.81
3581.3
320.325
343.771
341.077
310.574
282.669
288.505
373.217
687.275
1499.92
3581.18
339.418
362.216
352.782
313.063
280.423
284.401
371.91
714.395
1627.74
3581.13
362.97
384.729
367.18
315.836
276.665
276.111
357.186
707.451
1680.96
3581.17
392.299
415.817
389.514
323.148
275.381
266.982
327.55
643.22
1550.97
3581.27
15481.3
1891.06
510.46
310.738
280.896
281.731
290.553
303.467
321.009
344.831
17589.3
2566.87
716.317
369.01
294.437
280.489
281.373
286.955
296.288
310.022
20159.1
3445.4
1033.78
505.855
359.376
314.66
302.719
300.038
302.246
308.553
23335.9
4384.83
1568.95
790.066
514.338
402.096
359.768
342.56
337.241
339.275
27327.1
5146.99
2018.65
1103.21
732.858
557.689
465.451
421.67
404.887
403.704
32436.5
5924.49
2356.13
1342.23
919.446
707.882
592.206
535.605
515.615
517.108
39124.4
6906.06
2681.3
1544.53
1092.75
876.306
768.305
727.327
723.864
738.446
48114.3
8329.14
3218.01
1942.52
1497.95
1321.47
1259.64
1259.17
1282.95
1304.09
60596.7
10709.7
5098.01
3943.26
3594.8
3489.31
3483.84
3500.63
3513.17
3461.69
78643.9
21243.8
21247.1
21249.7
21251.7
21253.2
21254
21254.2
21253.7
21252.7
)
;

boundaryField
{
    right
    {
        type            cyclic;
    }
    left
    {
        type            cyclic;
    }
    outerWall
    {
        beta1           0.075;
        blended         0;
        type            omegaWallFunction;
        value           nonuniform List<scalar> 
22
(
3581.27
3581.17
3581.13
3581.18
3581.3
3581.49
3581.76
3582.1
3582.51
3582.99
3575.63
3575.63
3582.99
3582.51
3582.1
3581.76
3581.49
3581.3
3581.18
3581.13
3581.17
3581.27
)
;
    }
    stirrerWall
    {
        beta1           0.075;
        blended         0;
        type            omegaWallFunction;
        value           nonuniform List<scalar> 
42
(
21252.7
21253.7
21254.2
21254
21253.2
21251.7
21249.7
21247.1
21243.8
78643.9
78643.9
60596.7
48114.3
39124.4
32436.5
27327.1
23335.9
20159.1
17589.3
15481.3
21359.1
21359.1
15481.3
17589.3
20159.1
23335.9
27327.1
32436.5
39124.4
48114.3
60596.7
78643.9
78643.9
21243.8
21247.1
21249.7
21251.7
21253.2
21254
21254.2
21253.7
21252.7
)
;
    }
    top
    {
        type            empty;
    }
    bottom
    {
        type            empty;
    }
}


// ************************************************************************* //
