/*--------------------------------*- C++ -*----------------------------------*\
  =========                 |
  \\      /  F ield         | OpenFOAM: The Open Source CFD Toolbox
   \\    /   O peration     | Website:  https://openfoam.org
    \\  /    A nd           | Version:  10
     \\/     M anipulation  |
\*---------------------------------------------------------------------------*/
FoamFile
{
    format      ascii;
    class       volScalarField;
    location    "2600";
    object      p;
}
// * * * * * * * * * * * * * * * * * * * * * * * * * * * * * * * * * * * * * //

dimensions      [0 2 -2 0 0 0 0];

internalField   nonuniform List<scalar> 
420
(
0.267738
15.4051
31.4209
49.9423
70.2719
91.6961
113.58
135.193
156.084
175.934
-0.0735431
14.9441
30.7357
48.9698
69.0253
90.2502
112.045
133.683
154.645
174.672
-0.22895
14.564
30.0669
47.96
67.6748
88.6297
110.28
131.917
153.041
173.37
-0.252302
14.2569
29.42
46.9004
66.2005
86.8239
108.311
130.02
151.445
172.185
-0.238165
14.049
28.8653
45.8849
64.7116
84.9705
106.31
128.182
150.017
171.213
-0.21217
13.98
28.4885
45.0477
63.3865
83.2708
104.467
126.536
148.805
170.465
-0.185564
14.0713
28.3507
44.4882
62.3602
81.8601
102.866
125.063
147.743
169.947
-0.17742
14.3105
28.4591
44.2279
61.6659
80.7556
101.457
123.581
146.577
169.444
-0.234383
14.6812
28.7537
44.1939
61.2435
79.9025
100.141
121.833
144.668
167.865
-0.377135
15.1428
29.0389
44.2142
60.9836
79.2986
99.0763
120.123
142.101
164.594
194.718
213.287
231.882
249.823
266.847
283.405
298.001
308.921
306.891
390.062
193.672
212.35
230.814
248.337
264.678
280.189
293.092
301.032
297.069
377.985
192.635
211.377
229.602
246.633
262.293
276.815
288.217
294.14
289.949
368.556
191.747
210.492
228.385
244.902
259.937
273.626
283.881
288.659
285.204
361.715
191.045
209.723
227.244
243.297
257.799
270.839
280.324
284.478
281.918
356.818
190.557
209.105
226.261
241.945
256.009
268.55
277.496
281.303
279.86
353.59
190.396
208.681
225.464
240.933
254.694
266.893
275.48
279.217
279.1
351.433
190.587
208.488
224.848
240.296
253.959
265.968
274.388
278.501
280.21
350.549
190.521
208.762
224.706
240.158
253.868
265.827
274.346
279.503
283.827
351.479
189.504
210.021
225.608
240.779
254.549
266.634
275.485
281.894
287.219
354.272
189.769
211.263
227.05
242.143
256.004
268.446
277.772
284.511
281.661
359.263
191.498
211.904
228.104
243.163
257.121
269.8
279.664
286.608
281.299
360.639
196.136
212.991
229.217
244.502
258.72
271.715
282.279
289.794
291.019
360.628
196.457
213.438
229.982
245.792
260.599
274.255
285.817
295.103
299.065
362.545
196.235
213.687
230.694
247.092
262.619
277.161
290.184
301.742
306.951
366.355
196.309
213.984
231.405
248.367
264.621
280.101
294.573
308.172
314.509
371.164
196.566
214.366
232.11
249.555
266.475
282.915
298.919
314.438
321.77
376.515
196.802
214.708
232.708
250.54
268.023
285.405
302.95
320.164
329.081
384.535
196.881
214.911
233.123
251.237
269.109
287.168
305.648
323.815
336.602
398.816
196.735
214.915
233.318
251.623
269.669
287.838
305.945
323.255
340.315
415.425
196.35
214.678
233.235
251.634
269.634
287.494
304.397
319.497
334.317
417.916
195.68
214.129
232.78
251.077
268.719
286.143
302.091
315.42
319.379
403.004
179.315
177.76
177.448
177.748
178.169
178.474
178.535
178.3
177.788
177.016
153.531
154.796
156.228
157.447
158.349
158.893
159.034
158.762
158.119
157.233
126.547
130.183
133.405
135.732
137.273
138.16
138.459
138.2
137.446
136.41
102.321
106.284
110.231
113.283
115.356
116.571
117.04
116.834
116.045
114.896
81.0187
84.2604
87.8656
90.9487
93.1644
94.5144
95.079
94.9321
94.1782
93.0226
62.1618
64.3909
67.0852
69.6081
71.532
72.7489
73.2756
73.1585
72.4951
71.4649
45.3911
46.6608
48.2599
49.8875
51.2164
52.075
52.4229
52.2809
51.7254
50.9009
30.4633
30.9543
31.5625
32.2328
32.8227
33.2041
33.3104
33.1302
32.7053
32.1217
17.3024
17.1056
16.9571
16.9049
16.9127
16.8999
16.8034
16.5974
16.2875
15.9021
5.15702
3.90087
2.87539
2.24929
1.86276
1.57354
1.30044
1.00188
0.674048
0.400936
)
;

boundaryField
{
    right
    {
        type            cyclic;
    }
    left
    {
        type            cyclic;
    }
    outerWall
    {
        type            zeroGradient;
    }
    stirrerWall
    {
        type            zeroGradient;
    }
    top
    {
        type            empty;
    }
    bottom
    {
        type            empty;
    }
}


// ************************************************************************* //
