/*--------------------------------*- C++ -*----------------------------------*\
  =========                 |
  \\      /  F ield         | OpenFOAM: The Open Source CFD Toolbox
   \\    /   O peration     | Website:  https://openfoam.org
    \\  /    A nd           | Version:  10
     \\/     M anipulation  |
\*---------------------------------------------------------------------------*/
FoamFile
{
    format      ascii;
    class       surfaceScalarField;
    location    "2600";
    object      phi;
}
// * * * * * * * * * * * * * * * * * * * * * * * * * * * * * * * * * * * * * //

dimensions      [0 3 -1 0 0 0 0];

internalField   nonuniform List<scalar> 
788
(
-9.24114e-07
-8.4179e-06
1.62666e-06
2.79271e-06
3.94266e-06
7.89607e-06
6.27393e-06
9.72975e-06
8.16612e-06
8.57304e-06
8.95074e-06
4.63253e-06
8.00842e-06
-1.04797e-06
4.90496e-06
-8.03668e-06
5.27217e-07
-1.57997e-05
-2.66665e-05
-3.87773e-06
-3.40612e-07
-8.06373e-06
1.03178e-06
1.46164e-06
2.98546e-06
5.93938e-06
4.95657e-06
7.72753e-06
6.2416e-06
7.26604e-06
6.16183e-06
4.65779e-06
4.2832e-06
7.05029e-07
4.69364e-07
-4.40339e-06
-4.03678e-06
-1.14883e-05
-2.31233e-05
-7.68983e-06
-3.7941e-07
-7.6738e-06
-9.77009e-09
1.12245e-06
1.24704e-06
4.72981e-06
2.62903e-06
6.38675e-06
3.31469e-06
6.61083e-06
2.57564e-06
5.38072e-06
5.40816e-08
3.155e-06
-4.1141e-06
-3.32222e-07
-8.19105e-06
-7.49844e-06
-2.1056e-05
-1.02755e-05
-5.07224e-07
-7.14429e-06
-6.92772e-07
1.37317e-06
1.93016e-08
4.11792e-06
8.60944e-07
5.64138e-06
1.00451e-06
6.54563e-06
-3.28365e-07
6.76218e-06
-3.41414e-06
6.2645e-06
-7.26508e-06
3.53342e-06
-9.75332e-06
-4.97274e-06
-2.07154e-05
-9.99632e-06
-6.15149e-07
-6.49361e-06
-9.85361e-07
1.85062e-06
-5.48063e-07
3.83554e-06
3.91023e-08
5.21108e-06
7.62559e-08
6.65529e-06
-1.12045e-06
8.08951e-06
-3.64717e-06
8.90167e-06
-6.10104e-06
6.07573e-06
-7.49428e-06
-3.49636e-06
-2.05556e-05
-7.5388e-06
-7.1146e-07
-5.73479e-06
-1.00369e-06
2.29179e-06
-4.63358e-07
3.50946e-06
3.40891e-07
4.63235e-06
9.10967e-07
6.31095e-06
7.36221e-07
8.47451e-06
-3.28649e-07
1.01405e-05
-1.74153e-06
7.611e-06
-3.05383e-06
-2.09579e-06
-1.96554e-05
-3.8524e-06
-8.39728e-07
-4.83672e-06
-8.38791e-07
2.48062e-06
7.71171e-08
2.87025e-06
1.4227e-06
3.58574e-06
2.93454e-06
5.10475e-06
4.28948e-06
7.39588e-06
5.17777e-06
9.46371e-06
5.1304e-06
7.78696e-06
3.60334e-06
-5.08472e-07
-1.69775e-05
9.64088e-07
-1.12083e-06
-3.64683e-06
-6.50212e-07
2.23789e-06
7.09473e-07
1.8445e-06
2.52475e-06
2.13661e-06
4.86662e-06
3.13645e-06
7.74582e-06
4.84513e-06
1.08161e-05
6.62445e-06
1.27613e-05
5.94361e-06
1.14928e-05
7.34284e-07
-1.20004e-05
6.39584e-06
-1.60067e-06
-1.96705e-06
-3.37109e-07
1.21022e-06
1.10403e-06
7.21385e-07
2.6227e-06
9.64623e-07
4.71482e-06
1.39837e-06
7.87405e-06
1.98896e-06
1.213e-05
2.53998e-06
1.58046e-05
2.24944e-06
1.58979e-05
4.33976e-07
-6.2438e-06
9.84206e-06
-1.90252e-06
-5.61951e-07
3.07262e-07
1.43459e-06
2.97932e-06
5.04983e-06
7.5672e-06
9.68237e-06
9.89651e-06
3.44666e-06
-7.1028e-06
-4.2488e-05
-8.55914e-06
-7.00452e-05
-8.70124e-06
-0.000108681
-9.26338e-06
-0.000159669
-1.19371e-05
-0.000225436
-1.67343e-05
-0.000310832
-2.71312e-05
-0.000409946
-4.2558e-05
-0.000504835
-3.65414e-05
-0.000558234
-0.00112211
-9.35976e-06
-4.07499e-05
-9.05201e-06
-7.00395e-05
-7.86661e-06
-0.000109358
-7.4219e-06
-0.000159617
-8.8063e-06
-0.000223839
-1.14325e-05
-0.000308209
-1.49105e-05
-0.000406054
-1.85405e-05
-0.000501414
-7.25025e-06
-0.000570072
-0.00112954
-1.00125e-05
-4.09175e-05
-8.19591e-06
-7.16466e-05
-6.01789e-06
-0.000111299
-4.66856e-06
-0.000160918
-4.7488e-06
-0.000224046
-5.1007e-06
-0.000307974
-4.28827e-06
-0.000406049
-3.531e-06
-0.000503176
1.07792e-05
-0.000583825
-0.00111886
-8.5503e-06
-4.2183e-05
-5.99506e-06
-7.39429e-05
-3.27207e-06
-0.000113778
-1.31055e-06
-0.000162879
-4.21547e-07
-0.000225274
5.14825e-07
-0.000308995
3.25698e-06
-0.000408075
5.2523e-06
-0.000505649
1.81332e-05
-0.000596316
-0.00110095
-6.01252e-06
-4.353e-05
-3.21326e-06
-7.64952e-05
-2.04449e-07
-0.000116583
2.16192e-06
-0.000165313
3.7364e-06
-0.000227213
5.42642e-06
-0.000310765
8.694e-06
-0.000411226
1.10169e-05
-0.000508333
2.16644e-05
-0.000606765
-0.00107962
-2.71506e-06
-4.44949e-05
7.97457e-08
-7.90368e-05
3.10316e-06
-0.000119408
5.60285e-06
-0.000167911
7.51691e-06
-0.000229505
9.51746e-06
-0.000312842
1.28861e-05
-0.000414839
1.51286e-05
-0.00051095
2.4084e-05
-0.000615585
-0.00105588
1.44e-06
-4.48414e-05
3.86884e-06
-8.12157e-05
6.54444e-06
-0.000121859
8.90829e-06
-0.000170324
1.09019e-05
-0.00023178
1.2927e-05
-0.000314856
1.63197e-05
-0.00041855
1.84538e-05
-0.000513408
2.62704e-05
-0.000623217
-0.0010299
6.21305e-06
-4.47261e-05
7.77537e-06
-8.26851e-05
9.7594e-06
-0.000123712
1.17842e-05
-0.0001724
1.37428e-05
-0.000233913
1.57212e-05
-0.000316696
1.92411e-05
-0.000422317
2.0915e-05
-0.000515334
2.73826e-05
-0.000629456
-0.00100264
9.8758e-06
-4.49901e-05
1.07071e-05
-8.35985e-05
1.20121e-05
-0.00012502
1.36645e-05
-0.000174144
1.56719e-05
-0.000236022
1.78388e-05
-0.000318623
2.20209e-05
-0.000426636
2.3116e-05
-0.000516625
2.51937e-05
-0.000631516
-0.000977148
1.09293e-05
-5.25954e-05
1.11187e-05
-8.40463e-05
1.11913e-05
-0.000125242
1.22592e-05
-0.000175336
1.42814e-05
-0.000238091
1.63922e-05
-0.000320553
2.29537e-05
-0.000433338
3.17027e-05
-0.000525143
1.38208e-05
-0.000614324
-0.000962864
1.71017e-06
-5.45044e-05
1.64264e-06
-8.41615e-05
5.38909e-07
-0.000124274
-4.06293e-07
-0.000174533
-7.93101e-07
-0.000237734
-4.32282e-07
-0.000320626
-2.63392e-07
-0.000433733
1.92133e-06
-0.000527076
2.59433e-05
-0.00063872
-0.000936961
2.63284e-06
-5.72165e-05
4.21708e-06
-8.59344e-05
3.75989e-06
-0.000123937
3.16852e-06
-0.000174125
2.641e-06
-0.00023728
2.77477e-06
-0.000320418
2.26196e-06
-0.000433554
1.37218e-06
-0.00052592
2.46172e-05
-0.000661994
-0.000912334
1.23347e-05
-5.52926e-05
-1.43901e-05
1.22517e-05
-8.63561e-05
1.30751e-05
-0.000124899
1.41031e-05
-0.000175328
1.59127e-05
-0.000239179
1.75431e-05
-0.000321747
2.1678e-05
-0.000438123
2.31675e-05
-0.000527177
-4.03517e-06
-0.000635035
-0.000916504
9.10299e-06
-5.70463e-05
-7.74964e-06
9.59883e-06
-8.72226e-05
1.03976e-05
-0.000125779
1.13966e-05
-0.000176507
1.33287e-05
-0.000241197
1.57239e-05
-0.000323757
1.84781e-05
-0.000441348
2.27498e-05
-0.000531909
1.86449e-05
-0.000630565
-0.000898141
4.81181e-06
-6.00628e-05
-2.05405e-06
6.21472e-06
-8.87396e-05
7.06042e-06
-0.000126646
7.95529e-06
-0.000177533
9.84591e-06
-0.000243127
1.25195e-05
-0.00032607
1.49386e-05
-0.000443947
2.10569e-05
-0.000538298
2.52683e-05
-0.000634636
-0.000873111
3.07186e-06
-6.17577e-05
-1.47674e-06
3.8399e-06
-8.94966e-05
4.09602e-06
-0.000126908
4.46867e-06
-0.000178014
6.03318e-06
-0.000244695
8.81867e-06
-0.000328554
1.15154e-05
-0.000447011
1.96816e-05
-0.000546695
2.56583e-05
-0.00064041
-0.000847641
2.12566e-06
-6.18716e-05
-2.02251e-06
1.69126e-06
-8.90495e-05
9.3137e-07
-0.00012617
3.71147e-07
-0.000177579
1.12304e-06
-0.000245454
3.51936e-06
-0.000330601
5.72343e-06
-0.000449513
1.48335e-05
-0.000556
2.16931e-05
-0.00064702
-0.000826176
1.02869e-06
-6.05859e-05
-2.30851e-06
-6.83432e-07
-8.73444e-05
-2.61443e-06
-0.000124258
-4.35795e-06
-0.000175958
-4.91512e-06
-0.000244901
-3.60319e-06
-0.000331533
-2.7376e-06
-0.000450569
5.31284e-06
-0.000564237
1.27121e-05
-0.000654255
-0.000813815
-3.46891e-07
-5.8071e-05
-2.16435e-06
-3.43355e-06
-8.42782e-05
-6.72162e-06
-0.000120978
-9.84233e-06
-0.00017295
-1.22011e-05
-0.000242537
-1.28149e-05
-0.000330533
-1.42275e-05
-0.000449312
-1.08075e-05
-0.00056795
-4.79826e-06
-0.00066032
-0.000819115
-2.10515e-06
-5.4342e-05
-1.62301e-06
-6.5732e-06
-7.98549e-05
-1.11616e-05
-0.000116392
-1.56706e-05
-0.000168535
-2.01404e-05
-0.00023805
-2.37383e-05
-0.000326594
-2.87104e-05
-0.000444634
-3.29791e-05
-0.000564284
-4.41013e-05
-0.000649549
-0.000863606
-4.59433e-06
-4.92609e-05
-5.02159e-07
-1.01721e-05
-7.43892e-05
-1.53513e-05
-0.000111234
-2.07724e-05
-0.000163201
-2.73436e-05
-0.000231465
-3.48035e-05
-0.000318966
-4.57961e-05
-0.000434544
-5.94963e-05
-0.000552133
-0.000109336
-0.000599897
-0.000970139
-5.10999e-06
9.0087e-07
-7.99908e-06
-9.37302e-06
-1.1157e-05
-1.42246e-05
-1.88611e-05
-3.53335e-05
-6.69684e-05
-0.000113026
-2.39632e-05
9.16847e-06
-3.51208e-05
3.10995e-06
-4.11495e-05
3.85381e-06
-4.42576e-05
1.63243e-06
-4.52109e-05
-1.02173e-06
-4.43816e-05
-3.10031e-06
-4.22867e-05
-4.25272e-06
-3.90862e-05
-4.8729e-06
-3.47076e-05
-5.03881e-06
-3.81344e-06
-5.79848e-06
1.49143e-05
-1.62711e-05
1.35636e-05
-2.32204e-05
1.09065e-05
-2.74176e-05
5.94619e-06
-2.93713e-05
1.02029e-06
-2.93141e-05
-3.13888e-06
-2.80414e-05
-5.58348e-06
-2.58495e-05
-7.20234e-06
-2.28942e-05
-8.20906e-06
-7.61134e-06
1.87245e-06
1.3032e-05
-2.07584e-06
1.7626e-05
-6.65514e-06
1.57612e-05
-1.05522e-05
1.00776e-05
-1.31119e-05
3.7495e-06
-1.4195e-05
-1.97132e-06
-1.41287e-05
-5.65384e-06
-1.33741e-05
-8.05755e-06
-1.22651e-05
-9.48794e-06
-9.65841e-06
4.14803e-06
8.92685e-06
6.35582e-06
1.5692e-05
6.16612e-06
1.63791e-05
4.57725e-06
1.19987e-05
2.63356e-06
5.95117e-06
8.28402e-07
1.23922e-08
-3.0234e-07
-4.4359e-06
-9.72945e-07
-7.40287e-06
-1.44897e-06
-9.09726e-06
-9.79907e-06
3.95841e-06
5.06564e-06
9.23476e-06
1.07971e-05
1.29528e-05
1.31805e-05
1.43097e-05
1.10191e-05
1.39502e-05
6.61456e-06
1.24277e-05
1.76577e-06
1.06077e-05
-2.47672e-06
8.79535e-06
-5.54111e-06
7.10813e-06
-7.4251e-06
-8.4527e-06
2.95379e-06
2.2431e-06
8.3337e-06
5.8567e-06
1.37601e-05
8.31222e-06
1.71654e-05
7.99571e-06
1.85894e-05
5.49537e-06
1.83889e-05
2.20695e-06
1.70386e-05
-9.62553e-07
1.50564e-05
-3.47338e-06
1.28359e-05
-5.18866e-06
-6.24745e-06
1.90766e-06
4.68284e-07
6.10753e-06
2.09558e-06
1.12919e-05
3.65581e-06
1.54749e-05
4.17199e-06
1.79273e-05
3.3293e-06
1.87152e-05
1.64347e-06
1.81488e-05
-2.43607e-07
1.65986e-05
-1.84609e-06
1.44978e-05
-3.07936e-06
-3.90127e-06
1.24497e-06
-6.68425e-07
4.17575e-06
-4.52776e-07
7.8791e-06
3.90769e-07
1.12827e-05
1.07964e-06
1.37086e-05
1.15188e-06
1.48882e-05
6.56677e-07
1.48727e-05
-9.76426e-08
1.39089e-05
-8.14371e-07
1.23376e-05
-1.48343e-06
-1.80215e-06
6.46703e-07
-1.24255e-06
2.37991e-06
-1.90148e-06
4.40533e-06
-1.34154e-06
6.34084e-06
-6.27762e-07
7.8566e-06
-1.8359e-07
8.68494e-06
-3.98868e-08
8.75605e-06
-8.73634e-08
8.18085e-06
-1.97626e-07
7.0536e-06
-3.18127e-07
-1.67586e-08
-1.20616e-06
-2.97743e-06
-4.22165e-06
-4.77132e-06
-4.89469e-06
-4.8927e-06
-4.95499e-06
-5.13939e-06
-5.44962e-06
)
;

boundaryField
{
    right
    {
        type            cyclic;
        value           nonuniform List<scalar> 
20
(
0.0010844
0.000554754
0.000518652
0.000417829
0.000313609
0.000227325
0.000160344
0.000109065
7.13878e-05
4.53177e-05
3.05704e-05
1.96555e-05
1.06945e-05
1.67478e-06
-5.56957e-06
-1.05346e-05
-1.20924e-05
-1.02155e-05
-5.3299e-06
5.45959e-06
)
;
    }
    left
    {
        type            cyclic;
        value           nonuniform List<scalar> 
20
(
-0.0010844
-0.000554754
-0.000518652
-0.000417829
-0.000313609
-0.000227325
-0.000160344
-0.000109065
-7.13878e-05
-4.53177e-05
-3.05704e-05
-1.96555e-05
-1.06945e-05
-1.67478e-06
5.56957e-06
1.05346e-05
1.20924e-05
1.02155e-05
5.3299e-06
-5.45959e-06
)
;
    }
    outerWall
    {
        type            calculated;
        value           uniform 0;
    }
    stirrerWall
    {
        type            calculated;
        value           uniform 0;
    }
    top
    {
        type            empty;
        value           nonuniform List<scalar> 0();
    }
    bottom
    {
        type            empty;
        value           nonuniform List<scalar> 0();
    }
}


// ************************************************************************* //
