/*--------------------------------*- C++ -*----------------------------------*\
  =========                 |
  \\      /  F ield         | OpenFOAM: The Open Source CFD Toolbox
   \\    /   O peration     | Website:  https://openfoam.org
    \\  /    A nd           | Version:  10
     \\/     M anipulation  |
\*---------------------------------------------------------------------------*/
FoamFile
{
    format      ascii;
    class       volVectorField;
    location    "2600";
    object      U;
}
// * * * * * * * * * * * * * * * * * * * * * * * * * * * * * * * * * * * * * //

dimensions      [0 1 -1 0 0 0 0];

internalField   nonuniform List<vector> 
420
(
(0.286882 8.44502 7.73724e-18)
(-0.541929 10.581 -5.61327e-17)
(-0.111108 12.2709 -2.25313e-16)
(0.111794 13.6882 6.05374e-17)
(0.235559 14.8349 -3.93484e-16)
(0.258213 15.7222 0)
(0.155224 16.4292 0)
(-0.119104 16.9904 3.37258e-16)
(-0.458246 17.531 -4.0574e-16)
(-0.782201 17.8865 0)
(-0.351464 8.33647 2.57911e-17)
(-1.27598 10.3553 -1.31725e-16)
(-1.09618 12.038 6.85942e-16)
(-1.00399 13.4637 -9.21497e-16)
(-1.00772 14.6503 2.93127e-16)
(-1.12108 15.6052 2.34155e-17)
(-1.35436 16.4159 2.41295e-15)
(-1.73372 17.1316 -5.15397e-16)
(-2.11601 17.7544 9.33033e-16)
(-2.41542 18.0823 0)
(-0.991081 8.32202 8.66411e-17)
(-2.09655 10.1603 -5.93548e-16)
(-2.13024 11.7607 6.51847e-16)
(-2.19806 13.1596 1.08225e-15)
(-2.34088 14.3868 -7.01144e-16)
(-2.5849 15.4433 3.3424e-15)
(-2.93501 16.384 1.44414e-15)
(-3.39111 17.22 3.59477e-15)
(-3.78557 17.8625 -1.51007e-15)
(-4.02152 18.0727 -3.99352e-15)
(-1.61107 8.25692 -3.11349e-17)
(-2.89834 9.96297 5.08404e-16)
(-3.09397 11.4775 -8.64148e-16)
(-3.32201 12.8432 7.3881e-16)
(-3.60991 14.1054 -1.41845e-15)
(-3.99328 15.2551 1.54001e-15)
(-4.47555 16.315 -9.13461e-15)
(-4.99544 17.2353 0)
(-5.32729 17.8094 -4.03161e-15)
(-5.40221 17.8273 3.78484e-15)
(-2.2191 8.16407 0)
(-3.66392 9.74304 3.38591e-16)
(-3.9843 11.1734 -3.43227e-16)
(-4.34682 12.5041 0)
(-4.76011 13.7983 -2.6853e-16)
(-5.25536 15.0438 -3.17668e-16)
(-5.81339 16.2244 3.29808e-15)
(-6.29208 17.1659 -4.14516e-15)
(-6.5274 17.6027 0)
(-6.56382 17.426 -1.5264e-14)
(-2.8156 8.04293 7.35443e-18)
(-4.40059 9.4777 0)
(-4.80299 10.8278 0)
(-5.25213 12.1293 1.35616e-15)
(-5.74717 13.4481 -2.14966e-15)
(-6.30026 14.7716 2.47271e-15)
(-6.85771 16.0465 7.45002e-16)
(-7.28051 16.9757 9.21899e-15)
(-7.54254 17.2868 -1.21752e-14)
(-7.59407 16.9943 7.44449e-15)
(-3.409 7.88493 0)
(-5.10499 9.14605 -3.33729e-16)
(-5.54515 10.4194 -2.03309e-15)
(-6.03927 11.68 -8.1555e-16)
(-6.57051 12.9924 -3.76094e-15)
(-7.13694 14.3511 2.39291e-15)
(-7.67141 15.6814 -6.07344e-15)
(-8.0733 16.6859 8.04963e-16)
(-8.3819 17.0317 -4.00429e-15)
(-8.54018 16.6921 -1.16647e-14)
(-4.02181 7.68341 -3.65964e-18)
(-5.7713 8.72939 3.2827e-16)
(-6.22197 9.93478 2.62654e-15)
(-6.74737 11.143 5.33951e-16)
(-7.30668 12.4081 2.16003e-15)
(-7.87134 13.7492 0)
(-8.38976 15.1175 5.61313e-15)
(-8.8074 16.2231 7.02431e-15)
(-9.15797 16.8331 1.04073e-14)
(-9.48533 16.6078 8.85294e-15)
(-4.69608 7.43402 2.40007e-18)
(-6.38434 8.27288 3.23517e-16)
(-6.8609 9.41818 -3.45009e-16)
(-7.46344 10.5406 -1.69188e-15)
(-8.1036 11.6902 5.35782e-15)
(-8.72083 12.9102 7.2404e-15)
(-9.26328 14.1931 -2.41489e-15)
(-9.72334 15.3668 0)
(-10.1445 16.2293 0)
(-10.6216 16.4375 -8.46874e-15)
(-5.50061 7.03306 -1.74582e-17)
(-6.89232 7.71572 7.20753e-16)
(-7.49211 8.74291 0)
(-8.19333 9.77202 0)
(-8.88936 10.7896 -3.34724e-15)
(-9.54502 11.8013 -2.12976e-17)
(-10.1522 12.7987 5.66108e-15)
(-10.7405 13.7667 -1.19725e-14)
(-11.3968 14.6668 1.40999e-14)
(-12.2077 15.1097 1.17723e-15)
(-1.02456 17.9354 0)
(-1.14478 17.6393 0)
(-1.13279 17.0579 0)
(-1.10704 16.2879 -1.07473e-15)
(-1.2122 15.3944 0)
(-1.22568 14.3439 0)
(-0.920463 13.5375 1.39026e-15)
(-1.56664 13.7851 0)
(-9.3179 16.4099 0)
(18.0422 4.6206 0)
(-2.57425 17.9983 1.68443e-15)
(-2.54525 17.5463 3.21859e-15)
(-2.38078 16.9081 3.05249e-16)
(-2.23147 16.1803 1.31202e-15)
(-2.22727 15.3531 2.06573e-16)
(-2.0942 14.3499 1.6951e-15)
(-1.52526 13.6988 2.11267e-16)
(-1.94951 14.0376 6.50694e-17)
(-9.2484 15.6912 -4.45929e-15)
(17.633 4.85788 -3.31491e-15)
(-4.0223 17.8063 1.53469e-15)
(-3.82217 17.2462 0)
(-3.53429 16.6036 -2.6507e-15)
(-3.2849 15.9495 -2.37931e-15)
(-3.18653 15.212 6.56685e-15)
(-2.92394 14.2619 -1.47425e-15)
(-2.13849 13.714 2.39753e-15)
(-2.62166 13.9392 0)
(-9.52591 14.6429 2.85397e-15)
(17.5015 6.57868 3.58964e-16)
(-5.27079 17.4031 3.39086e-15)
(-4.94887 16.7836 8.96374e-15)
(-4.57408 16.1772 -9.60454e-15)
(-4.26535 15.6046 3.73862e-15)
(-4.09462 14.9466 -1.75216e-16)
(-3.75132 14.0468 0)
(-2.82798 13.556 -2.37425e-15)
(-3.43316 13.6906 -3.32553e-15)
(-10.0808 13.5434 -2.8006e-15)
(17.2479 8.31519 1.02088e-14)
(-6.38444 16.8717 2.87987e-15)
(-5.9636 16.2353 -2.78972e-15)
(-5.53335 15.675 9.23374e-15)
(-5.19468 15.1737 -3.76433e-15)
(-4.96721 14.5839 3.07784e-15)
(-4.57124 13.7284 -4.68916e-15)
(-3.55334 13.2817 4.01678e-15)
(-4.29603 13.3408 3.03764e-15)
(-10.631 12.4536 0)
(16.5863 10.2585 -2.10297e-14)
(-7.40188 16.3174 3.50158e-15)
(-6.88368 15.6499 -1.57444e-14)
(-6.42218 15.1246 -4.70109e-15)
(-6.07758 14.6769 1.0293e-14)
(-5.80842 14.1439 8.46645e-15)
(-5.38657 13.3276 1.87544e-16)
(-4.28957 12.9175 -1.36054e-16)
(-5.15411 12.9187 -2.60385e-15)
(-11.1631 11.4063 -2.81178e-15)
(15.6705 12.2118 1.6526e-14)
(-8.35931 15.7917 3.46532e-15)
(-7.72745 15.0491 5.29532e-15)
(-7.25217 14.546 0)
(-6.91992 14.1326 -3.3389e-15)
(-6.62203 13.6472 -5.10363e-15)
(-6.19419 12.8653 5.13233e-17)
(-5.02658 12.4894 -9.40632e-15)
(-5.98504 12.4398 -2.35329e-15)
(-11.6211 10.3885 3.75226e-15)
(14.4572 14.1253 -7.22764e-15)
(-9.30035 15.302 1.29761e-14)
(-8.5486 14.4364 -4.86005e-15)
(-8.04894 13.9497 0)
(-7.73812 13.5478 -1.69719e-16)
(-7.41969 13.1002 1.89651e-14)
(-6.99677 12.3449 -7.04863e-15)
(-5.75964 12.006 -4.72694e-15)
(-6.77857 11.9266 3.90336e-15)
(-12.0328 9.40965 -1.08258e-15)
(12.8631 15.8893 0)
(-10.1503 14.7144 2.71864e-16)
(-9.45242 13.7542 -4.62815e-15)
(-8.86298 13.3083 0)
(-8.55193 12.8958 5.53546e-15)
(-8.20382 12.4729 -1.33927e-14)
(-7.78026 11.7373 6.59099e-15)
(-6.46591 11.4148 2.59475e-15)
(-7.50778 11.4453 0)
(-12.5056 8.57372 4.32299e-16)
(10.8216 17.2463 8.55672e-15)
(-10.6983 13.8374 4.18894e-16)
(-10.4962 12.9687 -4.54815e-17)
(-9.86647 12.5876 0)
(-9.51101 12.1634 -1.10525e-14)
(-9.11841 11.7557 4.48024e-15)
(-8.69096 11.0641 -2.89604e-15)
(-7.27098 10.7114 1.90881e-15)
(-8.13718 10.8974 -1.37288e-15)
(-13.0499 8.1893 -6.60257e-16)
(8.35589 17.7113 -8.05526e-15)
(-10.9132 13.322 2.94856e-15)
(-11.36 12.1765 -4.82474e-15)
(-10.907 11.7086 0)
(-10.5498 11.214 0)
(-10.1571 10.7349 0)
(-9.73141 9.991 -1.39749e-15)
(-8.31369 9.57154 5.30562e-15)
(-9.18092 9.50228 0)
(-13.0774 7.10459 0)
(6.2503 19.1652 0)
(-11.6609 12.3949 -2.92361e-15)
(-11.7591 11.6852 -4.74926e-15)
(-11.4237 11.2565 0)
(-11.0171 10.7915 2.73322e-15)
(-10.5842 10.3287 -2.10879e-15)
(-10.1718 9.54044 1.35747e-15)
(-8.67384 9.20891 2.00013e-15)
(-9.59868 9.05587 4.43757e-16)
(-13.1677 5.93352 1.59908e-16)
(5.7816 20.0657 0)
(-12.3046 11.7227 1.19426e-16)
(-12.0632 11.242 -4.83449e-18)
(-11.729 10.9277 0)
(-11.2694 10.5381 -1.20039e-16)
(-10.723 10.1935 3.84419e-15)
(-10.2569 9.44911 -3.21031e-15)
(-8.67013 9.1554 -5.98338e-15)
(-9.59019 9.24517 -1.05489e-15)
(-13.7808 4.50009 9.63719e-16)
(4.90924 20.4931 8.99413e-15)
(-13.383 10.3439 -1.1963e-14)
(-12.9332 10.1871 4.5538e-15)
(-12.5469 9.8796 0)
(-12.0527 9.51091 -5.5913e-15)
(-11.438 9.20635 -4.17121e-15)
(-10.9217 8.54876 5.90128e-15)
(-9.34632 8.21717 2.07177e-15)
(-10.1184 8.44933 0)
(-14.3889 4.41759 -1.65448e-15)
(2.5251 20.9216 -2.77546e-15)
(-14.086 8.99335 -1.04296e-16)
(-13.666 8.95452 4.42381e-15)
(-13.2779 8.72263 0)
(-12.7506 8.38917 1.1227e-14)
(-12.0729 8.11963 1.49788e-16)
(-11.4953 7.52632 2.13558e-16)
(-9.91663 7.24137 4.15149e-15)
(-10.4965 7.50763 -3.06408e-15)
(-14.4375 3.54245 -5.25221e-16)
(-0.140892 20.7911 0)
(-14.573 7.77957 -2.74807e-15)
(-14.2775 7.76861 9.29053e-15)
(-13.929 7.56434 7.59233e-15)
(-13.3858 7.24359 -8.87556e-15)
(-12.6523 6.99235 -1.39082e-14)
(-11.9937 6.46823 1.83131e-16)
(-10.4246 6.22584 -2.4332e-15)
(-10.7958 6.55169 -1.92957e-15)
(-14.3988 2.63556 -2.97967e-15)
(-2.86218 20.2559 -1.19792e-14)
(-15.049 6.64163 -8.73689e-15)
(-14.8458 6.59402 4.8223e-15)
(-14.5302 6.37645 -3.78391e-15)
(-13.9685 6.04588 -9.62503e-15)
(-13.1772 5.78733 7.38635e-15)
(-12.4241 5.32901 4.60348e-17)
(-10.8693 5.12096 5.6612e-15)
(-11.0067 5.40728 1.36396e-15)
(-14.264 1.60644 2.47524e-15)
(-5.41358 19.3661 1.71043e-15)
(-15.5602 5.50504 2.61444e-15)
(-15.4092 5.39518 -2.49989e-15)
(-15.1047 5.14763 -2.21523e-16)
(-14.5148 4.79653 9.97693e-15)
(-13.6628 4.51591 -1.38152e-14)
(-12.8116 4.10912 4.29691e-15)
(-11.2748 3.93937 -3.45959e-15)
(-11.1848 4.07499 8.38763e-15)
(-14.1316 0.47233 0)
(-7.74862 18.2145 -1.10681e-15)
(-16.0876 4.33599 2.85137e-15)
(-15.9731 4.1528 2.4952e-15)
(-15.6662 3.8606 4.52849e-15)
(-15.0354 3.48328 -7.2222e-15)
(-14.122 3.18022 2.66359e-15)
(-13.1715 2.79397 0)
(-11.6638 2.6573 -2.18753e-15)
(-11.3741 2.52944 -6.52991e-15)
(-14.0306 -0.841563 -3.8222e-16)
(-9.482 16.6909 1.19864e-14)
(-16.6347 3.11321 1.29549e-15)
(-16.5474 2.85117 0)
(-16.2204 2.51389 2.404e-15)
(-15.5372 2.11975 2.21755e-15)
(-14.5876 1.80501 4.9864e-17)
(-13.5458 1.42676 -1.42517e-15)
(-12.0712 1.22091 2.19484e-15)
(-11.7303 0.906014 0)
(-14.0823 -2.76885 3.01471e-15)
(-10.3328 14.9041 1.60564e-14)
(-17.154 1.79164 1.45961e-15)
(-17.0797 1.45571 -2.84313e-15)
(-16.7105 1.11017 -2.70217e-16)
(-15.96 0.743112 8.04704e-16)
(-14.9966 0.408041 -2.01299e-16)
(-13.9404 0.107359 1.25205e-15)
(-12.4491 -0.347472 -2.88283e-15)
(-12.0324 -0.772543 -3.01013e-16)
(-15.2511 -6.34436 4.82183e-15)
(-13.2361 15.3404 -1.06116e-14)
(-17.6706 0.452368 2.14027e-29)
(-17.5049 0.234373 0)
(-17.0097 0.12928 0)
(-16.2333 0.0207153 -1.05859e-15)
(-15.2772 -0.19515 0)
(-14.1609 -0.217427 0)
(-13.0402 -0.307589 1.32945e-15)
(-13.0228 -1.25304 0)
(-16.8923 -9.94866 0)
(-0.683153 17.3689 -5.37796e-29)
(-14.1854 12.207 8.56042e-16)
(-14.1609 10.6666 -7.02091e-15)
(-14.5231 8.97965 6.61362e-15)
(-14.8084 7.73717 -9.3523e-15)
(-15.152 6.65007 6.39881e-15)
(-15.5836 5.58559 -1.30286e-14)
(-16.0638 4.48718 3.0846e-15)
(-16.5692 3.33453 -3.20042e-15)
(-17.0578 2.10212 0)
(-17.5583 0.746588 -3.5425e-16)
(-14.9009 11.7328 1.41471e-14)
(-14.991 10.3135 0)
(-14.9928 8.73264 7.1507e-15)
(-15.0891 7.58858 -3.06741e-15)
(-15.2831 6.58734 -1.03917e-14)
(-15.6006 5.61799 0)
(-15.9968 4.59935 -3.35994e-15)
(-16.4142 3.5207 -1.37775e-15)
(-16.8285 2.37708 8.77782e-16)
(-17.2268 1.06412 -3.60381e-16)
(-14.6219 10.9339 -1.17567e-14)
(-15.2445 9.58951 0)
(-15.3256 8.32805 6.90206e-15)
(-15.3631 7.38437 4.95156e-16)
(-15.4463 6.52366 8.93298e-15)
(-15.6366 5.67567 -4.39219e-15)
(-15.9205 4.70601 0)
(-16.2257 3.66573 3.71e-15)
(-16.5211 2.56037 -5.56144e-16)
(-16.7743 1.31608 4.24126e-16)
(-13.4985 10.1962 5.45497e-15)
(-14.785 8.91356 -2.34494e-15)
(-15.2859 7.81534 5.23729e-15)
(-15.498 7.02409 -5.70917e-15)
(-15.5942 6.31125 5.39381e-16)
(-15.7076 5.58696 3.90664e-15)
(-15.8647 4.70442 -1.08041e-14)
(-16.051 3.71971 1.77346e-15)
(-16.2181 2.63865 2.64893e-15)
(-16.3457 1.47062 7.09015e-17)
(-12.184 9.50613 -8.31682e-15)
(-13.6613 8.41946 6.98241e-15)
(-14.5879 7.40005 0)
(-15.0906 6.65536 2.18439e-15)
(-15.3613 5.99342 2.34601e-15)
(-15.5095 5.30518 -2.56203e-16)
(-15.6037 4.50997 1.74579e-15)
(-15.6807 3.59311 3.63683e-15)
(-15.7333 2.57178 -2.3759e-17)
(-15.7497 1.47891 3.09352e-16)
(-10.9248 8.81876 -3.37933e-15)
(-12.2742 7.94505 5.91733e-15)
(-13.33 7.01422 2.07076e-15)
(-14.0687 6.27531 -3.4928e-15)
(-14.5095 5.61147 -2.03358e-15)
(-14.7976 4.93702 -2.62717e-16)
(-14.946 4.18364 -3.54179e-15)
(-15.0065 3.32267 1.04012e-15)
(-15.0042 2.36709 2.9653e-16)
(-14.9501 1.34931 -3.33384e-16)
(-9.77181 8.12265 0)
(-10.8698 7.43311 -2.06842e-15)
(-11.8198 6.61027 4.64333e-16)
(-12.6563 5.88717 -8.35132e-16)
(-13.2266 5.20355 1.41642e-15)
(-13.6044 4.51568 0)
(-13.8275 3.77254 8.28411e-16)
(-13.9256 2.95087 1.14875e-15)
(-13.9208 2.06004 -1.01592e-15)
(-13.8428 1.12478 -2.74695e-17)
(-8.71123 7.4192 0)
(-9.56638 6.86999 -5.98473e-16)
(-10.3264 6.15972 3.55785e-15)
(-11.0741 5.46735 -2.57334e-15)
(-11.66 4.76835 0)
(-12.0797 4.05978 -4.27334e-16)
(-12.3487 3.31442 -9.95319e-16)
(-12.4828 2.51285 8.10692e-16)
(-12.5087 1.67702 7.74283e-16)
(-12.4345 0.813123 -2.91008e-16)
(-7.68962 6.66956 -8.95734e-16)
(-8.33332 6.23582 5.89394e-16)
(-8.94868 5.57297 5.64553e-16)
(-9.55138 4.88134 -5.28236e-16)
(-10.0481 4.17373 0)
(-10.4217 3.45945 4.75651e-16)
(-10.6715 2.73043 6.71956e-16)
(-10.8059 1.97916 -7.86842e-16)
(-10.8368 1.21647 -1.54286e-16)
(-10.7715 0.383435 1.1678e-17)
(-6.34212 6.25026 -2.44857e-16)
(-6.52298 6.00661 1.10939e-16)
(-6.87562 5.42704 9.31873e-17)
(-7.24822 4.77582 0)
(-7.59741 4.13055 -3.67308e-17)
(-7.90207 3.49631 0)
(-8.14936 2.86358 -1.41708e-16)
(-8.33147 2.22896 1.83238e-16)
(-8.44213 1.59971 3.30514e-17)
(-8.53098 0.939796 -9.36887e-18)
)
;

boundaryField
{
    right
    {
        type            cyclic;
    }
    left
    {
        type            cyclic;
    }
    outerWall
    {
        type            calculated;
        value           nonuniform List<vector> 
22
(
(-1.55201 41.8305 0)
(-4.64749 41.6006 0)
(-7.71741 41.1419 0)
(-10.7449 40.4569 0)
(-13.7132 39.5492 0)
(-16.6061 38.424 0)
(-19.4075 37.0874 0)
(-22.1022 35.5467 0)
(-24.6752 33.8104 0)
(-27.1124 31.8882 0)
(-28.9573 30.2506 0)
(-30.2506 28.9573 0)
(-31.8882 27.1124 0)
(-33.8104 24.6752 0)
(-35.5467 22.1022 0)
(-37.0874 19.4075 0)
(-38.424 16.6061 0)
(-39.5492 13.7132 0)
(-40.4569 10.7449 0)
(-41.1419 7.71741 0)
(-41.6006 4.64749 0)
(-41.8305 1.55201 0)
)
;
    }
    stirrerWall
    {
        type            calculated;
        value           nonuniform List<vector> 
42
(
(-0.310178 8.3662 0)
(-0.928834 8.32046 0)
(-1.54239 8.22894 0)
(-2.14746 8.09214 0)
(-2.74072 7.91082 0)
(-3.31888 7.68598 0)
(-3.87877 7.41885 0)
(-4.41729 7.11092 0)
(-4.93148 6.76387 0)
(-5.4185 6.37963 0)
(-6.07951 6.64185 0)
(-6.92878 7.56862 0)
(-7.77806 8.49539 0)
(-8.62734 9.42216 0)
(-9.47661 10.3489 0)
(-10.3259 11.2757 0)
(-11.1752 12.2025 0)
(-12.0244 13.1292 0)
(-12.8737 14.056 0)
(-13.723 14.9828 0)
(-14.4723 15.1215 0)
(-15.1215 14.4723 0)
(-14.9828 13.723 0)
(-14.056 12.8737 0)
(-13.1292 12.0244 0)
(-12.2025 11.1752 0)
(-11.2757 10.3259 0)
(-10.3489 9.47661 0)
(-9.42216 8.62734 0)
(-8.49539 7.77806 0)
(-7.56862 6.92878 0)
(-6.64185 6.07951 0)
(-6.37963 5.4185 0)
(-6.76387 4.93148 0)
(-7.11092 4.41729 0)
(-7.41885 3.87877 0)
(-7.68598 3.31888 0)
(-7.91082 2.74072 0)
(-8.09214 2.14746 0)
(-8.22894 1.54239 0)
(-8.32046 0.928834 0)
(-8.3662 0.310178 0)
)
;
    }
    top
    {
        type            empty;
    }
    bottom
    {
        type            empty;
    }
}


// ************************************************************************* //
