/*--------------------------------*- C++ -*----------------------------------*\
  =========                 |
  \\      /  F ield         | OpenFOAM: The Open Source CFD Toolbox
   \\    /   O peration     | Website:  https://openfoam.org
    \\  /    A nd           | Version:  10
     \\/     M anipulation  |
\*---------------------------------------------------------------------------*/
FoamFile
{
    format      ascii;
    class       volVectorField;
    location    "2600";
    object      Urel;
}
// * * * * * * * * * * * * * * * * * * * * * * * * * * * * * * * * * * * * * //

dimensions      [0 1 -1 0 0 0 0];

internalField   nonuniform List<vector> 
420
(
(0.620882 -0.563226 7.73724e-18)
(-0.161429 0.319661 -5.61327e-17)
(0.315908 0.756078 -2.25313e-16)
(0.585335 0.919618 6.05374e-17)
(0.755632 0.812364 -3.93484e-16)
(0.824825 0.445464 0)
(0.768379 -0.101729 0)
(0.540597 -0.794895 3.37258e-16)
(0.248004 -1.50862 -4.0574e-16)
(-0.0293995 -2.40767 0)
(0.648713 -0.622488 2.57911e-17)
(-0.136559 0.15019 -1.31725e-16)
(0.182531 0.586279 6.85942e-16)
(0.414044 0.76519 -9.21497e-16)
(0.549651 0.704708 2.93127e-16)
(0.575651 0.412415 2.34155e-17)
(0.481743 -0.0241244 2.41295e-15)
(0.241768 -0.555878 -5.15397e-16)
(-0.00113131 -1.18052 9.33033e-16)
(-0.161148 -2.10014 0)
(0.66978 -0.538362 8.66411e-17)
(-0.204466 0.0674823 -5.93548e-16)
(-0.00685487 0.435138 6.51847e-16)
(0.156674 0.600949 1.08225e-15)
(0.245238 0.594877 -7.01144e-16)
(0.232634 0.417972 3.3424e-15)
(0.113956 0.125091 1.44414e-15)
(-0.110695 -0.272506 3.59477e-15)
(-0.273694 -0.863752 -1.51007e-15)
(-0.278162 -1.88727 -3.99352e-15)
(0.701343 -0.456157 -3.11349e-17)
(-0.263988 0.0380068 5.08404e-16)
(-0.137581 0.340281 -8.64148e-16)
(-0.0435231 0.493457 7.3881e-16)
(-0.00926087 0.542863 -1.41845e-15)
(-0.0704313 0.479734 1.54001e-15)
(-0.230481 0.326584 -9.13461e-15)
(-0.428116 0.0338466 0)
(-0.437692 -0.60519 -4.03161e-15)
(-0.190329 -1.80049 3.78484e-15)
(0.732139 -0.353764 0)
(-0.301797 0.0404878 3.38591e-16)
(-0.211171 0.285751 -3.43227e-16)
(-0.162588 0.43108 0)
(-0.164717 0.539735 -2.6853e-16)
(-0.248755 0.599615 -3.17668e-16)
(-0.395531 0.59436 3.29808e-15)
(-0.462929 0.350045 -4.14516e-15)
(-0.286949 -0.399172 0)
(0.0879609 -1.7619 -1.5264e-14)
(0.758223 -0.232804 7.35443e-18)
(-0.329189 0.0509122 0)
(-0.233861 0.249655 0)
(-0.185164 0.399469 1.35616e-15)
(-0.182287 0.566369 -2.14966e-15)
(-0.237401 0.737885 2.47271e-15)
(-0.296819 0.86075 7.45002e-16)
(-0.221561 0.637799 9.21899e-15)
(0.0145064 -0.203358 -1.21752e-14)
(0.461084 -1.64824 7.44449e-15)
(0.76774 -0.103188 0)
(-0.346714 0.0468717 -3.33729e-16)
(-0.205149 0.208784 -2.03309e-15)
(-0.117419 0.357769 -8.1555e-16)
(-0.0667187 0.558336 -3.76094e-15)
(-0.0511371 0.805115 2.39291e-15)
(-0.00353611 1.0233 -6.07344e-15)
(0.176681 0.915702 8.04963e-16)
(0.450228 0.149197 -4.00429e-15)
(0.874122 -1.30267 -1.16647e-14)
(0.73484 0.0268308 -3.65964e-18)
(-0.352334 0.00784467 3.2827e-16)
(-0.140473 0.147931 2.62654e-15)
(-0.00319906 0.290568 5.33951e-16)
(0.100275 0.489952 2.16003e-15)
(0.198471 0.765273 0)
(0.342978 1.06764 5.61313e-15)
(0.588306 1.10723 7.02431e-15)
(0.900744 0.651146 1.04073e-14)
(1.23643 -0.640338 8.85294e-15)
(0.614285 0.151095 2.40007e-18)
(-0.334501 -0.0230846 3.23517e-16)
(-0.0713555 0.108857 -3.45009e-16)
(0.0659742 0.217709 -1.69188e-15)
(0.165804 0.353604 5.35782e-15)
(0.288651 0.559721 7.2404e-15)
(0.486347 0.828649 -2.41489e-15)
(0.766483 0.988263 0)
(1.08553 0.836701 0)
(1.34877 0.0307735 -8.46874e-15)
(0.334233 0.163837 -1.74582e-17)
(-0.244902 -0.109048 7.20753e-16)
(-0.0318556 -0.0377022 0)
(0.0799316 0.0353466 0)
(0.197039 0.0966831 -3.34724e-15)
(0.354621 0.152046 -2.12976e-17)
(0.560763 0.193078 5.66108e-15)
(0.78579 0.204615 -1.19725e-14)
(0.942905 0.148177 1.40999e-14)
(0.945546 -0.365547 1.17723e-15)
(-0.224952 -3.61991 0)
(-0.295563 -5.25274 0)
(-0.228653 -7.31425 0)
(-0.142086 -9.72303 -1.07473e-15)
(-0.179918 -12.431 0)
(-0.11884 -15.4903 0)
(0.268912 -18.5209 1.39026e-15)
(-0.285882 -20.736 0)
(-7.93596 -20.8377 0)
(19.5362 -35.6458 0)
(-0.179831 -3.43838 1.68443e-15)
(-0.00227837 -5.21982 3.21859e-15)
(0.326663 -7.33003 3.05249e-16)
(0.658083 -9.68763 1.31202e-15)
(0.863902 -12.3192 2.06573e-16)
(1.22022 -15.3203 1.6951e-15)
(2.03632 -18.1834 2.11267e-16)
(1.88572 -20.2938 6.50694e-17)
(-5.11018 -21.3517 -4.45929e-15)
(22.1067 -35.1873 -3.31491e-15)
(-0.0462328 -3.39404 1.53469e-15)
(0.400581 -5.26892 0)
(0.961575 -7.36726 -2.6507e-15)
(1.51337 -9.6332 -2.37931e-15)
(1.94654 -12.1553 6.56685e-15)
(2.57983 -15.0811 -1.47425e-15)
(3.77571 -17.8167 2.39753e-15)
(3.74696 -20.0135 0)
(-2.65416 -21.9915 2.85397e-15)
(24.9303 -33.0249 3.58964e-16)
(0.265094 -3.44442 3.39086e-15)
(0.930459 -5.35684 8.96374e-15)
(1.6855 -7.39477 -9.60454e-15)
(2.41526 -9.55227 3.73862e-15)
(3.05213 -11.965 -1.75216e-16)
(3.91154 -14.8078 0)
(5.40632 -17.4497 -2.37425e-15)
(5.43382 -19.6969 -3.32553e-15)
(-0.513321 -22.4811 -2.8006e-15)
(27.591 -30.629 1.02088e-14)
(0.68085 -3.50851 2.87987e-15)
(1.54 -5.40881 -2.78972e-15)
(2.45556 -7.36839 9.23374e-15)
(3.33154 -9.41908 -3.76433e-15)
(4.15394 -11.7243 3.07784e-15)
(5.20859 -14.479 -4.68916e-15)
(6.95577 -17.0287 4.01678e-15)
(7.02053 -19.2978 3.03764e-15)
(1.57953 -22.7628 0)
(29.7866 -27.812 -2.10297e-14)
(1.15402 -3.48352 3.50158e-15)
(2.20299 -5.37886 -1.57444e-14)
(3.25215 -7.26364 -4.70109e-15)
(4.24742 -9.21655 1.0293e-14)
(5.23697 -11.4162 8.46645e-15)
(6.45644 -14.0776 1.87544e-16)
(8.43656 -16.5307 -1.36054e-16)
(8.54978 -18.7914 -2.60385e-15)
(3.62338 -22.8083 -2.81178e-15)
(31.6555 -24.7755 1.6526e-14)
(1.64021 -3.32113 3.46532e-15)
(2.89237 -5.24886 5.29532e-15)
(4.05444 -7.06407 0)
(5.1471 -8.93032 -3.3389e-15)
(6.2869 -11.0243 -5.10363e-15)
(7.6469 -13.5871 5.13233e-17)
(9.84658 -15.9348 -9.40632e-15)
(10.0308 -18.1676 -2.35329e-15)
(5.65994 -22.636 3.75226e-15)
(33.139 -21.5755 -7.22764e-15)
(2.08789 -3.0178 1.29761e-14)
(3.54604 -5.01917 -4.86005e-15)
(4.82783 -6.76351 0)
(6.00461 -8.55775 -1.69719e-16)
(7.28181 -10.5469 1.89651e-14)
(8.76628 -13.0091 -7.04863e-15)
(11.1787 -15.2378 -4.72694e-15)
(11.4611 -17.4096 3.90336e-15)
(7.6477 -22.2432 -1.08258e-15)
(34.1388 -18.3285 0)
(2.5641 -2.71173 2.71864e-16)
(4.05062 -4.7521 -4.62815e-15)
(5.51319 -6.39408 0)
(6.79098 -8.13087 5.53546e-15)
(8.20944 -10.02 -1.33927e-14)
(9.81809 -12.379 6.59099e-15)
(12.4445 -14.4989 2.59475e-15)
(12.8554 -16.4584 0)
(9.46603 -21.5333 4.32299e-16)
(34.5741 -15.3002 8.55672e-15)
(3.27247 -2.59928 4.18894e-16)
(4.34105 -4.48673 -4.54815e-17)
(5.93014 -5.99576 0)
(7.34777 -7.66881 -1.10525e-14)
(8.91639 -9.45927 4.48024e-15)
(10.6459 -11.6818 -2.89604e-15)
(13.5075 -13.7296 1.90881e-15)
(14.2375 -15.4203 -1.37288e-15)
(11.092 -20.2063 -6.60257e-16)
(34.4545 -12.985 -8.05526e-15)
(4.00248 -2.26243 2.94856e-15)
(4.48148 -4.37494 -4.82474e-15)
(5.95957 -5.91342 0)
(7.45164 -7.59342 0)
(9.10097 -9.38495 0)
(10.9179 -11.582 -1.39749e-15)
(13.876 -13.6103 5.30562e-15)
(14.7142 -15.4609 0)
(12.7061 -19.8308 0)
(34.1244 -9.95384 0)
(3.92353 -2.5208 -2.92361e-15)
(4.79237 -4.15633 -4.74926e-15)
(6.19838 -5.61007 0)
(7.79029 -7.21002 2.73322e-15)
(9.5357 -8.92933 -2.10879e-15)
(11.4012 -11.1089 1.35747e-15)
(14.508 -12.9808 2.00013e-15)
(15.3645 -14.8393 4.43757e-16)
(13.7677 -19.8499 1.59908e-16)
(34.9006 -7.8084 0)
(4.13207 -2.24806 1.19426e-16)
(5.39221 -3.59529 -4.83449e-18)
(6.8544 -4.86889 0)
(8.56286 -6.32065 -1.20039e-16)
(10.492 -7.84127 3.84419e-15)
(12.4891 -9.88777 -3.21031e-15)
(15.7709 -11.6231 -5.98338e-15)
(16.7276 -13.1295 -1.05489e-15)
(14.6149 -19.6418 9.63719e-16)
(35.6055 -5.60554 8.99413e-15)
(4.04307 -2.37057 -1.1963e-14)
(5.57315 -3.31593 4.5538e-15)
(7.15548 -4.49658 0)
(8.97401 -5.832 -5.5913e-15)
(11.0549 -7.20691 -4.17121e-15)
(13.1946 -9.04959 5.90128e-15)
(16.5674 -10.6933 2.07177e-15)
(17.7853 -11.9139 0)
(15.7181 -17.5541 -1.65448e-15)
(35.0716 -2.8309 -2.77546e-15)
(4.23377 -2.39489 -1.04296e-16)
(5.7896 -3.14012 4.42381e-15)
(7.43532 -4.15413 0)
(9.35499 -5.35355 1.1227e-14)
(11.5743 -6.58188 1.49788e-16)
(13.8587 -8.23673 2.13558e-16)
(17.3272 -9.69701 4.15149e-15)
(18.8397 -10.7321 -3.06408e-15)
(17.2154 -16.138 -5.25221e-16)
(34.0769 -0.484563 0)
(4.53986 -2.21995 -2.74807e-15)
(6.02049 -2.85121 9.29053e-15)
(7.68107 -3.74227 7.59233e-15)
(9.67715 -4.82343 -8.87556e-15)
(12.0191 -5.91658 -1.39082e-14)
(14.4587 -7.37285 1.83131e-16)
(17.9996 -8.64731 -2.4332e-15)
(19.8115 -9.46416 -1.92957e-15)
(18.6257 -14.6455 -2.97967e-15)
(32.8386 1.57414 -1.19792e-14)
(4.75188 -1.91427 -8.73689e-15)
(6.18302 -2.49265 4.8223e-15)
(7.85807 -3.29789 -3.78391e-15)
(9.925 -4.27912 -9.62503e-15)
(12.3828 -5.25806 7.38635e-15)
(14.9811 -6.514 4.60348e-17)
(18.579 -7.60516 5.6612e-15)
(20.7035 -8.29661 1.36396e-15)
(19.9505 -13.18 2.47524e-15)
(31.5738 3.38105 1.71043e-15)
(4.82002 -1.56025 2.61444e-15)
(6.23484 -2.10842 -2.49989e-15)
(7.93874 -2.84128 -2.21523e-16)
(10.0779 -3.72969 9.97693e-15)
(12.6454 -4.60523 -1.38152e-14)
(15.3959 -5.6707 4.29691e-15)
(19.0355 -6.56973 -3.45959e-15)
(21.4538 -7.24157 8.38763e-15)
(21.0848 -11.7382 0)
(30.3219 5.01409 -1.10681e-15)
(4.75991 -1.19989 2.85137e-15)
(6.16734 -1.72653 2.4952e-15)
(7.90567 -2.39898 4.52849e-15)
(10.1215 -3.19732 -7.2222e-15)
(12.7897 -3.96653 2.66359e-15)
(15.6831 -4.86889 0)
(19.342 -5.57699 -2.18753e-15)
(22.0134 -6.33753 -6.52991e-15)
(21.994 -10.409 -3.8222e-16)
(29.4622 6.34787 1.19864e-14)
(4.56567 -0.86286 1.29549e-15)
(5.96774 -1.37158 0)
(7.75048 -1.98198 2.404e-15)
(10.0454 -2.67851 2.21755e-15)
(12.7797 -3.32806 4.9864e-17)
(15.7972 -4.077 -1.42517e-15)
(19.4595 -4.69329 2.19484e-15)
(22.2225 -5.4626 0)
(22.5522 -9.6406 3.01471e-15)
(29.2708 7.47531 1.60564e-14)
(4.28267 -0.602773 1.45961e-15)
(5.6864 -1.08726 -2.84313e-15)
(7.52762 -1.59727 -2.70217e-16)
(9.90787 -2.14644 8.04704e-16)
(12.6758 -2.68313 -2.01299e-16)
(15.7298 -3.20705 1.25205e-15)
(19.4331 -3.90905 -2.88283e-15)
(22.2989 -4.60778 -3.01013e-16)
(21.7918 -10.4826 4.82183e-15)
(26.8091 10.8667 -1.06116e-14)
(3.88465 -0.34724 2.14027e-29)
(5.38717 -0.614843 0)
(7.3625 -0.774862 0)
(9.77764 -0.94424 -1.05859e-15)
(12.5481 -1.22744 0)
(15.6733 -1.32426 0)
(19.0182 -1.49696 1.32945e-15)
(21.4982 -2.5338 0)
(20.3553 -11.3306 0)
(39.5832 15.875 -5.37796e-29)
(1.28985 -0.946188 8.56042e-16)
(2.24579 -1.30373 -7.02091e-15)
(2.72505 -1.7421 6.61362e-15)
(3.1863 -1.67713 -9.3523e-15)
(3.49051 -1.40509 6.39881e-15)
(3.60421 -1.06619 -1.30286e-14)
(3.56398 -0.724705 3.0846e-15)
(3.39073 -0.408824 -3.20042e-15)
(3.12469 -0.152151 0)
(2.7358 -0.00621298 -3.5425e-16)
(-0.382296 -0.606994 1.41471e-14)
(0.401604 -0.916587 0)
(1.18918 -1.32607 7.1507e-15)
(1.79332 -1.24355 -3.06741e-15)
(2.20711 -0.969698 -1.03917e-14)
(2.40124 -0.622461 0)
(2.41777 -0.290243 -3.35994e-15)
(2.31203 0.00881645 -1.37775e-15)
(2.10641 0.262204 8.77782e-16)
(1.81289 0.357871 -3.60381e-16)
(-1.05975 -0.592465 -1.17567e-14)
(-0.866033 -0.90031 0)
(-0.209696 -1.06766 6.90206e-15)
(0.407111 -0.865612 4.95156e-16)
(0.891609 -0.535291 8.93298e-15)
(1.17925 -0.153473 -4.39219e-15)
(1.28094 0.138681 0)
(1.26683 0.385317 3.71e-15)
(1.16637 0.584887 -5.56144e-16)
(1.011 0.656375 4.24126e-16)
(-0.892868 -0.516752 5.45497e-15)
(-1.42053 -0.836066 -2.34494e-15)
(-1.23602 -0.91739 5.23729e-15)
(-0.839894 -0.643788 -5.70917e-15)
(-0.408472 -0.249637 5.39381e-16)
(-0.0775945 0.169096 3.90664e-15)
(0.123629 0.459351 -1.08041e-14)
(0.207902 0.670745 1.77346e-15)
(0.221974 0.802544 2.64893e-15)
(0.18524 0.857467 7.09015e-17)
(-0.534822 -0.393508 -8.31682e-15)
(-1.31075 -0.590018 6.98241e-15)
(-1.604 -0.669758 0)
(-1.54454 -0.430445 2.18439e-15)
(-1.32759 -0.0694437 2.34601e-15)
(-1.06528 0.298573 -2.56203e-16)
(-0.828354 0.587126 1.74579e-15)
(-0.655355 0.775583 3.63683e-15)
(-0.540484 0.875052 -2.3759e-17)
(-0.473033 0.912302 3.09352e-16)
(-0.231967 -0.267638 -3.37933e-15)
(-0.937587 -0.324351 5.91733e-15)
(-1.41189 -0.392727 2.07076e-15)
(-1.63463 -0.228486 -3.4928e-15)
(-1.62776 0.0465851 -2.03358e-15)
(-1.53903 0.341627 -2.62717e-16)
(-1.3835 0.582988 -3.54179e-15)
(-1.21455 0.736549 1.04012e-15)
(-1.05862 0.809718 2.9653e-16)
(-0.927555 0.829232 -3.33384e-16)
(-0.0351429 -0.150614 0)
(-0.546937 -0.0963043 -2.06842e-15)
(-0.967419 -0.133898 4.64333e-16)
(-1.33404 -0.0346813 -8.35132e-16)
(-1.49673 0.136585 1.41642e-15)
(-1.53144 0.331453 0)
(-1.47768 0.494047 8.28411e-16)
(-1.36693 0.596142 1.14875e-15)
(-1.22222 0.642011 -1.01592e-15)
(-1.07418 0.651238 -2.74695e-17)
(0.0693818 -0.0410469 0)
(-0.257061 0.0804468 -5.98473e-16)
(-0.539543 0.0782195 3.55785e-15)
(-0.863483 0.12735 -2.57334e-15)
(-1.08182 0.199225 0)
(-1.1921 0.286652 -4.27334e-16)
(-1.21146 0.358035 -9.95319e-16)
(-1.15723 0.389468 8.10692e-16)
(-1.05697 0.398314 7.74283e-16)
(-0.919629 0.386107 -2.91008e-16)
(0.135149 0.0221369 -8.95734e-16)
(-0.0373548 0.185982 5.89394e-16)
(-0.227128 0.154006 5.64553e-16)
(-0.452203 0.123067 -5.28236e-16)
(-0.621312 0.102333 0)
(-0.7191 0.0973265 4.75651e-16)
(-0.74652 0.0960812 6.71956e-16)
(-0.713052 0.087073 -7.86842e-16)
(-0.631639 0.0770469 -1.54286e-16)
(-0.510111 0.00293454 1.1678e-17)
(0.527104 0.41542 -2.44857e-16)
(0.759946 0.696242 1.10939e-16)
(0.780957 0.670393 9.31873e-17)
(0.739899 0.599086 0)
(0.67833 0.556726 -3.67308e-17)
(0.615757 0.545065 0)
(0.56371 0.551163 -1.41708e-16)
(0.528911 0.568103 1.83238e-16)
(0.516832 0.599528 3.30514e-17)
(0.477267 0.605796 -9.36887e-18)
)
;

boundaryField
{
    right
    {
        type            cyclic;
    }
    left
    {
        type            cyclic;
    }
    outerWall
    {
        type            noSlip;
    }
    stirrerWall
    {
        type            noSlip;
    }
    top
    {
        type            empty;
    }
    bottom
    {
        type            empty;
    }
}


// ************************************************************************* //
