/*--------------------------------*- C++ -*----------------------------------*\
  =========                 |
  \\      /  F ield         | OpenFOAM: The Open Source CFD Toolbox
   \\    /   O peration     | Website:  https://openfoam.org
    \\  /    A nd           | Version:  10
     \\/     M anipulation  |
\*---------------------------------------------------------------------------*/
FoamFile
{
    format      ascii;
    class       volScalarField;
    location    "18000";
    object      nut;
}
// * * * * * * * * * * * * * * * * * * * * * * * * * * * * * * * * * * * * * //

dimensions      [0 2 -1 0 0 0 0];

internalField   nonuniform List<scalar> 
17981
(
0.00104661
0.00105178
0.00105792
0.00106495
0.0010728
0.00108139
0.00109065
0.0011005
0.00111088
0.00112171
0.00113294
0.00114451
0.00115637
0.00116846
0.00118074
0.00119316
0.00120571
0.00121833
0.001231
0.00124369
0.00125638
0.00126905
0.00128167
0.00129423
0.0013067
0.00131907
0.00133132
0.00134342
0.00135538
0.00136717
0.00137878
0.00139022
0.00140146
0.0014125
0.00142335
0.00143399
0.00144441
0.00145463
0.00146462
0.00147441
0.00148397
0.00149332
0.00150245
0.00151136
0.00152005
0.00148991
0.00136828
0.00122496
0.00100102
0.00100655
0.00101217
0.00101876
0.00102625
0.00103455
0.00104358
0.00105327
0.00106354
0.00107432
0.00108553
0.00109712
0.00110903
0.0011212
0.00113358
0.00114613
0.00115881
0.00117158
0.00118442
0.00119728
0.00121015
0.00122301
0.00123583
0.0012486
0.00126129
0.00127389
0.00128636
0.0012987
0.00131089
0.00132292
0.00133478
0.00134646
0.00135794
0.00136923
0.00138032
0.0013912
0.00140187
0.00141232
0.00142256
0.00143257
0.00144237
0.00145195
0.00146131
0.00147045
0.00147937
0.00148807
0.00139583
0.00126231
0.000946279
0.000952772
0.000962944
0.000973604
0.000980675
0.000988635
0.0009974
0.00100688
0.00101701
0.00102769
0.00103885
0.00105043
0.00106236
0.00107459
0.00108704
0.00109969
0.00111248
0.00112538
0.00113835
0.00115136
0.00116439
0.00117741
0.0011904
0.00120334
0.00121622
0.00122902
0.0012417
0.00125424
0.00126664
0.00127888
0.00129095
0.00130284
0.00131454
0.00132605
0.00133735
0.00134845
0.00135933
0.00137
0.00138046
0.00139069
0.0014007
0.00141049
0.00142005
0.0014294
0.00143852
0.00144742
0.0014022
0.00129181
0.000935337
0.000943872
0.000952314
0.000961545
0.000971476
0.000982021
0.000993098
0.00100463
0.00101655
0.0010288
0.0010413
0.00105402
0.0010669
0.0010799
0.00109298
0.00110611
0.00111927
0.00113242
0.00114555
0.00115864
0.00117167
0.00118462
0.00119747
0.00121019
0.00122277
0.00123519
0.00124744
0.00125951
0.0012714
0.00128309
0.00129459
0.00130587
0.00131695
0.00132781
0.00133846
0.00134888
0.00135908
0.00136906
0.00137882
0.00138835
0.00139766
0.00140675
0.00140206
0.00131407
0.000888055
0.00090037
0.000908456
0.000917397
0.000927098
0.000937469
0.000948422
0.000959876
0.000971754
0.000983987
0.00099651
0.00100927
0.0010222
0.00103528
0.00104844
0.00106167
0.00107492
0.00108817
0.00110141
0.00111461
0.00112776
0.00114084
0.00115381
0.00116667
0.00117938
0.00119194
0.00120434
0.00121656
0.0012286
0.00124044
0.00125209
0.00126353
0.00127477
0.00128579
0.00129659
0.00130718
0.00131754
0.00132768
0.0013376
0.0013473
0.00135677
0.00136603
0.00137506
0.00132245
0.000845779
0.000858309
0.000865987
0.000874589
0.000884014
0.000894168
0.000904956
0.000916291
0.000928091
0.000940279
0.000952787
0.000965552
0.000978518
0.000991635
0.00100486
0.00101815
0.00103147
0.0010448
0.00105811
0.00107139
0.00108461
0.00109778
0.00111085
0.00112379
0.00113661
0.00114927
0.00116176
0.00117409
0.00118622
0.00119817
0.00120992
0.00122147
0.00123281
0.00124394
0.00125485
0.00126554
0.00127601
0.00128625
0.00129628
0.00130608
0.00131565
0.00132501
0.00133414
0.00129599
0.000817819
0.000825025
0.00083323
0.00084233
0.000852221
0.000862803
0.000873981
0.000885666
0.000897776
0.000910236
0.000922979
0.000935942
0.000949072
0.000962321
0.000975648
0.000989015
0.00100239
0.00101576
0.00102909
0.00104237
0.0010556
0.00106874
0.00108176
0.00109465
0.00110739
0.00111997
0.00113238
0.00114461
0.00115664
0.00116849
0.00118013
0.00119156
0.00120278
0.00121379
0.00122458
0.00123515
0.0012455
0.00125563
0.00126553
0.00127522
0.00128467
0.00129391
0.00126595
0.000793386
0.000802109
0.000811694
0.000822032
0.000833018
0.000844557
0.00085656
0.000868945
0.000881639
0.000894575
0.000907696
0.000920949
0.00093429
0.00094768
0.000961087
0.000974485
0.000987853
0.00100118
0.00101445
0.00102764
0.00104072
0.00105367
0.00106647
0.00107912
0.00109159
0.00110389
0.00111601
0.00112793
0.00113965
0.00115116
0.00116247
0.00117356
0.00118444
0.0011951
0.00120554
0.00121576
0.00122576
0.00123554
0.00124509
0.00125442
0.00123203
0.000763367
0.000772616
0.00078268
0.000793447
0.000804815
0.000816686
0.000828973
0.000841597
0.000854486
0.000867578
0.000880818
0.000894157
0.000907553
0.000920973
0.000934387
0.000947774
0.000961118
0.000974411
0.000987634
0.00100075
0.00101374
0.00102659
0.00103929
0.00105181
0.00106417
0.00107634
0.00108832
0.0011001
0.00111168
0.00112305
0.00113421
0.00114516
0.0011559
0.00116642
0.00117671
0.00118679
0.00119665
0.00120628
0.0012157
0.00119599
0.000744778
0.000755297
0.000766468
0.000778184
0.00079035
0.000802882
0.000815704
0.000828748
0.000841956
0.000855275
0.000868661
0.000882077
0.000895491
0.00090888
0.000922228
0.000935525
0.000948758
0.000961895
0.000974908
0.000987781
0.0010005
0.00101306
0.00102545
0.00103765
0.00104967
0.0010615
0.00107312
0.00108455
0.00109576
0.00110676
0.00111755
0.00112813
0.00113849
0.00114863
0.00115855
0.00116825
0.00117774
0.00115837
0.000753102
0.00076551
0.000778238
0.000791213
0.000804369
0.000817651
0.000831009
0.000844404
0.000857802
0.000871177
0.00088451
0.000897792
0.000911016
0.000924151
0.000937165
0.000950042
0.00096277
0.000975339
0.000987739
0.000999961
0.001012
0.00102385
0.0010355
0.00104695
0.0010582
0.00106924
0.00108007
0.00109069
0.0011011
0.00111129
0.00112127
0.00113103
0.00114058
0.00111944
0.000717148
0.000729429
0.000742056
0.000754951
0.000768043
0.000781273
0.00079459
0.000807949
0.000821315
0.00083466
0.000847962
0.000861211
0.000874404
0.000887518
0.000900512
0.000913373
0.000926087
0.000938644
0.000951034
0.000963248
0.000975278
0.000987121
0.000998772
0.00101022
0.00102148
0.00103253
0.00104337
0.001054
0.00106443
0.00107464
0.00108464
0.00109443
0.00110401
0.00107695
0.000682536
0.000694667
0.000707174
0.00071997
0.000732982
0.000746145
0.000759404
0.000772713
0.000786033
0.000799333
0.000812591
0.000825791
0.00083893
0.000851995
0.00086495
0.000877773
0.000890451
0.000902973
0.000915332
0.000927519
0.000939527
0.00095135
0.000962983
0.000974423
0.000985666
0.000996708
0.00100755
0.00101818
0.00102861
0.00103883
0.00104884
0.00105865
0.00105762
0.00102575
0.000649258
0.000661216
0.000673579
0.000686256
0.000699167
0.000712245
0.000725429
0.000738671
0.000751929
0.000765169
0.000778367
0.000791507
0.000804582
0.000817586
0.000830487
0.000843257
0.000855886
0.000868361
0.000880676
0.000892821
0.00090479
0.000916579
0.000928182
0.000939594
0.000950814
0.000961838
0.000972662
0.000983287
0.000993709
0.00100393
0.00101394
0.00102375
0.00100752
0.000973613
0.000629062
0.000641253
0.000653786
0.000666577
0.00067955
0.000692642
0.000705801
0.000718982
0.000732149
0.000745274
0.000758341
0.000771339
0.00078427
0.000797105
0.000809812
0.000822379
0.000834796
0.000847054
0.000859146
0.000871066
0.000882808
0.000894368
0.000905741
0.000916926
0.000927918
0.000938716
0.000949318
0.000959722
0.000969926
0.00097993
0.000977113
0.000955038
0.000923782
0.000598151
0.000610151
0.000622521
0.000635172
0.000648023
0.000661007
0.000674068
0.000687158
0.000700238
0.000713279
0.00072626
0.000739172
0.000752017
0.000764776
0.000777409
0.000789904
0.000802252
0.000814445
0.000826474
0.000838334
0.000850019
0.000861527
0.000872852
0.000883992
0.000894944
0.000905706
0.000916276
0.000926652
0.000936834
0.000939819
0.000926865
0.000904457
0.00087802
0.000568477
0.000580256
0.000592438
0.000604925
0.000617632
0.000630488
0.000643433
0.000656414
0.000669393
0.000682336
0.000695221
0.000708035
0.000720779
0.000733443
0.000745992
0.000758407
0.000770678
0.000782797
0.000794756
0.00080655
0.000818174
0.000829623
0.000840893
0.000851983
0.000862888
0.000873607
0.000884139
0.000894481
0.000897809
0.000891352
0.000877676
0.000859088
0.000838383
0.000551553
0.000563513
0.000575807
0.000588344
0.000601047
0.000613852
0.000626704
0.00063956
0.000652387
0.000665157
0.000677857
0.000690485
0.000703037
0.000715488
0.000727809
0.000739993
0.000752031
0.000763916
0.000775643
0.000787207
0.000798601
0.000809819
0.000820858
0.000831714
0.000842133
0.000849037
0.000852317
0.000851374
0.000845601
0.000835032
0.000820725
0.000804738
0.000523999
0.000535713
0.000547789
0.00056013
0.000572655
0.000585295
0.000597992
0.0006107
0.000623384
0.000636014
0.000648573
0.000661057
0.00067347
0.000685789
0.000697985
0.000710047
0.000721969
0.000733377
0.000742155
0.000750818
0.0007603
0.00077062
0.00078134
0.000791779
0.000801068
0.000808184
0.000812093
0.000811986
0.000807533
0.000799064
0.000787637
0.000775012
0.000497591
0.00050903
0.000520862
0.000532983
0.000545306
0.000557757
0.000570275
0.000582813
0.000595329
0.000607794
0.000620188
0.000632503
0.000644746
0.000656903
0.000668941
0.000680848
0.000690733
0.000697983
0.000705005
0.000712804
0.000721666
0.000731484
0.000741851
0.000752104
0.000761387
0.000768758
0.000773334
0.000774467
0.000771903
0.000765921
0.000757403
0.000747844
0.000472308
0.000483447
0.000495011
0.00050689
0.000518991
0.000531235
0.000543558
0.000555908
0.000568242
0.000580528
0.000592744
0.000604879
0.000616935
0.00062891
0.000640776
0.000652515
0.000659862
0.000665336
0.000670785
0.000677129
0.000684737
0.000693576
0.000703283
0.000713236
0.000722628
0.00073057
0.000736223
0.000738954
0.000738482
0.000734997
0.000729228
0.000722464
0.000448122
0.000458936
0.000470211
0.000481828
0.00049369
0.000505712
0.000517826
0.000529975
0.000542116
0.000554213
0.000566241
0.000578187
0.00059005
0.000601833
0.000613518
0.000624729
0.000630925
0.000635119
0.000639151
0.000644047
0.000650291
0.00065795
0.000666761
0.000676192
0.000685519
0.000693918
0.000700585
0.000704882
0.000706466
0.00070541
0.000702273
0.000698145
0.000424999
0.000435464
0.000446428
0.000457767
0.000469374
0.00048116
0.000493053
0.000504991
0.000516929
0.000528827
0.00054066
0.000552411
0.000564075
0.000575661
0.000587157
0.00059819
0.000603809
0.000607058
0.000609879
0.000613422
0.000618292
0.000624685
0.000632459
0.000641196
0.000650275
0.000658949
0.000666458
0.000672152
0.000675625
0.000676829
0.000676156
0.000674504
0.0004029
0.000412991
0.000423624
0.000434667
0.000446004
0.000457543
0.000469203
0.000480922
0.000492648
0.000504342
0.000515974
0.000527526
0.000538988
0.000550369
0.000561667
0.000572854
0.000578246
0.00058087
0.000582729
0.000585086
0.000588673
0.000593813
0.000600491
0.000608415
0.000617075
0.000625817
0.000633935
0.000640784
0.000645904
0.000649139
0.000650727
0.000651379
0.000381786
0.000391477
0.000401757
0.000412485
0.000423539
0.000434816
0.000446234
0.000457724
0.000469231
0.000480714
0.00049214
0.000503488
0.000514747
0.000525919
0.000537011
0.000548002
0.000553913
0.00055634
0.000557497
0.000558842
0.000561262
0.00056521
0.000570793
0.000577841
0.000585958
0.000594586
0.000603086
0.000610834
0.000617338
0.000622348
0.000625966
0.000628735
0.000361615
0.00037088
0.000380784
0.000391178
0.000401932
0.000412936
0.0004241
0.000435353
0.000446634
0.000457899
0.000469114
0.000480254
0.000491306
0.000502268
0.000513151
0.000523943
0.000530641
0.00053314
0.00053385
0.000534401
0.000535822
0.000538688
0.000543227
0.000549384
0.000556877
0.000565249
0.000573933
0.000582342
0.000589969
0.000596496
0.00060191
0.000606599
0.000342351
0.000351159
0.000360663
0.000370703
0.00038114
0.000391857
0.000402757
0.000413763
0.000424812
0.000435854
0.000446853
0.000457782
0.000468624
0.000479375
0.000490047
0.000500637
0.000508293
0.000511063
0.000511539
0.000511503
0.0005121
0.000514019
0.000517597
0.000522889
0.000529721
0.000537734
0.000546443
0.000555307
0.000563821
0.000571623
0.000578603
0.000585015
0.000323958
0.000332279
0.000341356
0.000351019
0.000361121
0.000371537
0.000382163
0.000392914
0.000403723
0.000414538
0.000425317
0.000436033
0.000446666
0.000457208
0.000467666
0.000478047
0.000486724
0.00048992
0.000490362
0.000489934
0.00048988
0.000490988
0.0004937
0.000498174
0.000504338
0.000511928
0.000520541
0.000529691
0.000538891
0.00054775
0.000556084
0.00056403
0.000306409
0.000314208
0.000322827
0.000332089
0.000341837
0.000351936
0.000362275
0.000372762
0.000383325
0.000393907
0.000404464
0.000414965
0.000425387
0.000435721
0.000445968
0.00045614
0.000465818
0.000469584
0.000470183
0.000469536
0.000468978
0.000469399
0.000471339
0.000475052
0.000480561
0.000487693
0.000496124
0.000505428
0.000515146
0.000524875
0.000534374
0.000543683
0.000296919
0.000305048
0.000313881
0.000323252
0.000333018
0.000343056
0.00035327
0.000363579
0.000373923
0.000384253
0.000394536
0.000404746
0.00041487
0.000424907
0.00043487
0.000444757
0.000449819
0.000450926
0.000450233
0.000449282
0.000449106
0.000450349
0.000453354
0.00045823
0.000464886
0.000473075
0.000482431
0.000492532
0.000502974
0.000513474
0.000523992
0.000280389
0.000287992
0.000296368
0.000305339
0.000314751
0.000324475
0.000334404
0.000344452
0.000354552
0.000364653
0.000374715
0.000384712
0.000394628
0.000404458
0.000414211
0.000423895
0.000430532
0.000432359
0.000431803
0.000430612
0.000429957
0.000430588
0.000432941
0.000437209
0.000443381
0.000451283
0.000460612
0.000470985
0.000482008
0.00049337
0.000504962
0.000264606
0.000271645
0.000279529
0.000288072
0.00029711
0.000306502
0.000316135
0.000325913
0.000335765
0.000345632
0.000355473
0.000365258
0.000374968
0.000384593
0.000394141
0.000403622
0.0004117
0.000414323
0.000414078
0.000412816
0.000411814
0.000411926
0.000413688
0.000417377
0.000423064
0.000430646
0.000439884
0.000450437
0.00046193
0.000474033
0.000486578
0.000249566
0.000255997
0.000263352
0.000271436
0.000280074
0.000289116
0.000298438
0.000307936
0.000317532
0.000327163
0.000336781
0.000346353
0.000355858
0.000365283
0.000374629
0.000383912
0.000393128
0.000396753
0.000397015
0.000395821
0.000394572
0.000394244
0.000395468
0.000398609
0.000403815
0.000411056
0.000420152
0.000430812
0.00044268
0.000455419
0.000468811
0.00025542
0.000263629
0.000272298
0.000281292
0.0002905
0.000299832
0.000309221
0.000318613
0.000327972
0.000337271
0.000346496
0.000355644
0.000364728
0.000373754
0.000379396
0.000380581
0.000379615
0.000378197
0.000377476
0.000378198
0.000380812
0.00038554
0.00039242
0.000401334
0.000412038
0.000424203
0.000437487
0.000451631
0.000240017
0.000247765
0.000256037
0.000264686
0.000273588
0.000282648
0.000291789
0.000300954
0.000310098
0.000319195
0.000328224
0.000337179
0.000346068
0.000354905
0.000362291
0.000364451
0.000363913
0.000362507
0.000361515
0.0003618
0.000363916
0.000368167
0.000374666
0.000383359
0.00039405
0.000406443
0.00042019
0.00043499
0.000225233
0.000232484
0.000240329
0.000248608
0.00025719
0.000265966
0.000274853
0.000283785
0.000292714
0.000301608
0.000310444
0.000319212
0.000327913
0.000336565
0.000345166
0.000348592
0.000348708
0.000347457
0.000346281
0.000346186
0.000347831
0.000351612
0.000357713
0.000366145
0.000376769
0.000389318
0.000403452
0.000418831
0.000211082
0.000217792
0.000225175
0.000233058
0.000241298
0.000249776
0.000258399
0.000267093
0.000275804
0.000284495
0.000293138
0.000301719
0.000310236
0.000318704
0.000327131
0.000332785
0.000333951
0.00033302
0.000331743
0.00033131
0.000332505
0.000335815
0.0003415
0.000349638
0.000360142
0.000372783
0.000387224
0.000403082
0.000197586
0.000203705
0.000210584
0.000218039
0.000225913
0.000234075
0.000242421
0.00025087
0.000259361
0.000267848
0.0002763
0.0002847
0.00029304
0.000301329
0.000309583
0.000317078
0.00031935
0.000318956
0.000317756
0.000317092
0.000317885
0.000320733
0.000325986
0.000333792
0.000344122
0.000356785
0.000371451
0.000387691
0.000184778
0.000190248
0.000196575
0.000203562
0.00021104
0.000218864
0.000226919
0.000235112
0.000243376
0.000251656
0.000259918
0.000268139
0.000276306
0.000284423
0.000292507
0.000300559
0.000304781
0.000305298
0.000304327
0.000303499
0.000303919
0.000306311
0.000311114
0.000318551
0.000328655
0.000341273
0.00035608
0.000372594
0.000172696
0.000177455
0.000183173
0.000189646
0.00019669
0.000204149
0.000211892
0.000219817
0.000227845
0.000235915
0.000243985
0.000252027
0.000260024
0.000267973
0.00027589
0.000283785
0.00029019
0.000291828
0.000291288
0.000290433
0.000290554
0.000292512
0.000296854
0.000303885
0.000313703
0.000326201
0.000341066
0.00035777
0.000161393
0.000165367
0.000170413
0.000176317
0.000182884
0.000189943
0.000197349
0.000204989
0.000212769
0.000220623
0.000228499
0.000236363
0.000244193
0.000251982
0.000259737
0.000267475
0.000275196
0.000278366
0.000278554
0.000277838
0.00027774
0.000279294
0.00028317
0.000289765
0.000299244
0.000311541
0.000326344
0.000343067
0.000150927
0.000154041
0.000158341
0.000163612
0.000169649
0.000176265
0.000183304
0.000190634
0.000198153
0.000205779
0.000213456
0.00022114
0.000228804
0.000236435
0.000244033
0.000251615
0.000259189
0.000264771
0.000266061
0.000265665
0.000265438
0.00026662
0.000270024
0.000276148
0.000285239
0.000297285
0.00031198
0.000328663
0.000141367
0.000143539
0.000147013
0.000151578
0.000157021
0.000163145
0.000169775
0.000176767
0.000184002
0.000191389
0.000198858
0.000206358
0.000213856
0.000221331
0.000228778
0.00023621
0.000243642
0.000251072
0.000253555
0.000253723
0.000253544
0.000254444
0.000257396
0.000263022
0.000271659
0.000283358
0.000297843
0.000314397
0.000132784
0.000133934
0.000136495
0.000140271
0.000145048
0.000150617
0.000156791
0.000163407
0.000170332
0.000177459
0.000184708
0.000192018
0.000199346
0.000206667
0.000213966
0.000221249
0.000228534
0.000235827
0.000240843
0.000242066
0.000242098
0.000242769
0.000245277
0.000250381
0.000258506
0.00026977
0.000283923
0.000300218
0.000125251
0.000125305
0.000126866
0.000129762
0.000133787
0.000138729
0.000144386
0.000150579
0.000157159
0.000164003
0.000171016
0.000178124
0.000185278
0.000192442
0.000199596
0.000206736
0.000213879
0.00022104
0.000228024
0.000230346
0.000230832
0.000231455
0.000233605
0.000238202
0.000245784
0.000256542
0.000270253
0.000286155
0.000118833
0.000117732
0.000118209
0.00012013
0.00012331
0.000127538
0.000132606
0.000138319
0.000144509
0.000151037
0.00015779
0.000164683
0.000171653
0.000178656
0.000185664
0.000192665
0.000199666
0.000206689
0.000213736
0.000218415
0.000219817
0.000220537
0.000222367
0.000226452
0.000233474
0.000243708
0.00025696
0.000272392
0.00011358
0.000111291
0.000110611
0.000111463
0.000113696
0.000117115
0.000121508
0.00012667
0.000132415
0.000138584
0.000145048
0.000151705
0.000158479
0.000165313
0.000172172
0.000179036
0.000185901
0.000192788
0.000199708
0.000206354
0.000208758
0.000209806
0.00021147
0.000215101
0.000221546
0.0002312
0.000243926
0.000258842
0.000109515
0.000106039
0.000104154
0.000103854
0.000105038
0.000107542
0.000111162
0.000115688
0.000120918
0.000126676
0.000132811
0.000139204
0.000145762
0.000152416
0.000159119
0.000165842
0.000172573
0.000179324
0.000186115
0.000192947
0.000197513
0.000199319
0.000200953
0.000204158
0.000210007
0.000219028
0.000231161
0.000245516
0.000106622
0.000102008
9.89079e-05
9.7394e-05
9.7435e-05
9.89131e-05
0.000101651
0.00010544
0.000110072
0.000115351
0.000121107
0.000127199
0.000133516
0.000139974
0.000146512
0.000153092
0.000159691
0.000166308
0.000172966
0.000179675
0.00018613
0.000188807
0.00019063
0.000193544
0.000198833
0.000207196
0.000218682
0.000232442
0.00010483
9.91865e-05
9.49099e-05
9.21587e-05
9.09828e-05
9.13308e-05
9.3069e-05
9.60102e-05
9.99437e-05
0.000104661
0.000109972
0.000115715
0.000121757
0.000127995
0.000134354
0.000140781
0.000147244
0.000153729
0.000160253
0.000166835
0.000173481
0.000178132
0.000180548
0.000183295
0.000188045
0.000195717
0.000206505
0.000219633
0.000104
9.75046e-05
9.21548e-05
8.81948e-05
8.57656e-05
8.48979e-05
8.55231e-05
8.74935e-05
9.06134e-05
9.46699e-05
9.94563e-05
0.000104788
0.00011051
0.000116497
0.000122656
0.000128917
0.000135238
0.000141593
0.000147983
0.000154434
0.000160956
0.000167341
0.000170465
0.000173253
0.000177587
0.000184598
0.000194652
0.000207104
0.000103962
9.68211e-05
9.05752e-05
8.55029e-05
8.1838e-05
7.9706e-05
7.91211e-05
7.99984e-05
8.21781e-05
8.5457e-05
8.96198e-05
9.44622e-05
9.98046e-05
0.000105499
0.000111428
0.000117506
0.000123672
0.000129891
0.00013615
0.000142464
0.000148857
0.000155339
0.00016025
0.000163463
0.0001675
0.000173873
0.000183162
0.000194863
0.000104525
9.69547e-05
9.00251e-05
8.40185e-05
7.92082e-05
7.58185e-05
7.39622e-05
7.36383e-05
7.47475e-05
7.71181e-05
8.05401e-05
8.47961e-05
8.96839e-05
9.50289e-05
0.00010069
0.000106557
0.000112554
0.000118628
0.000124753
0.000130932
0.000137192
0.000143547
0.000149958
0.000153687
0.000157627
0.000163495
0.000172062
0.00018294
9.77043e-05
9.03153e-05
8.3591e-05
7.78119e-05
7.32485e-05
7.01169e-05
6.85185e-05
6.84386e-05
6.97639e-05
7.23114e-05
7.5864e-05
8.02025e-05
8.51265e-05
9.04669e-05
9.6089e-05
0.000101892
0.000107808
0.000113793
0.000119835
0.000125953
0.000132171
0.00013851
0.000143826
0.000148023
0.000153477
0.000161334
0.000171394
9.88708e-05
9.123e-05
8.40223e-05
7.74967e-05
7.19337e-05
6.76037e-05
6.47164e-05
6.33622e-05
6.35139e-05
6.5044e-05
6.77578e-05
7.14312e-05
7.58428e-05
8.07948e-05
8.61233e-05
9.1701e-05
9.74364e-05
0.00010327
0.00010917
0.000115145
0.000121225
0.000127426
0.00013378
0.000138437
0.000143675
0.000150934
0.000160227
8.50864e-05
7.80557e-05
7.17207e-05
6.63633e-05
6.22559e-05
5.96026e-05
5.84838e-05
5.8859e-05
6.05862e-05
6.34585e-05
6.72445e-05
7.17209e-05
7.66924e-05
8.20013e-05
8.75289e-05
9.31933e-05
9.89463e-05
0.000104773
0.000110699
0.000116754
0.000122967
0.00012884
0.000134125
0.000140872
0.000149437
8.65564e-05
7.92477e-05
7.2393e-05
6.62423e-05
6.1082e-05
5.71895e-05
5.4764e-05
5.38758e-05
5.44707e-05
5.63907e-05
5.94158e-05
6.3307e-05
6.78395e-05
7.28214e-05
7.8102e-05
8.35723e-05
8.91619e-05
9.48364e-05
0.000100605
0.000106505
0.000112564
0.000118812
0.000124615
0.000131064
0.000139002
8.08383e-05
7.3698e-05
6.70151e-05
6.10428e-05
5.60735e-05
5.2391e-05
5.01909e-05
4.95335e-05
5.0348e-05
5.24588e-05
5.5632e-05
5.96208e-05
6.41997e-05
6.91815e-05
7.4424e-05
7.98298e-05
8.53425e-05
9.09478e-05
9.66781e-05
0.000102572
0.000108661
0.000114995
0.000121443
0.000128672
8.26746e-05
7.53855e-05
6.84139e-05
6.18998e-05
5.61019e-05
5.13222e-05
4.78505e-05
4.58785e-05
4.54556e-05
4.64921e-05
4.87929e-05
5.21088e-05
5.61864e-05
6.08003e-05
6.57697e-05
7.09633e-05
7.62975e-05
8.17336e-05
8.72857e-05
9.3001e-05
9.89163e-05
0.000105077
0.000111561
0.00011844
8.48496e-05
7.73032e-05
7.01785e-05
6.33745e-05
5.70274e-05
5.14026e-05
4.6814e-05
4.35583e-05
4.1822e-05
4.16408e-05
4.29037e-05
4.53933e-05
4.88455e-05
5.30009e-05
5.76362e-05
6.25797e-05
6.77135e-05
7.29714e-05
7.8342e-05
8.38685e-05
8.96015e-05
9.55776e-05
0.000101886
0.000108613
7.95667e-05
7.21569e-05
6.51961e-05
5.85605e-05
5.23805e-05
4.69303e-05
4.2538e-05
3.95074e-05
3.80181e-05
3.80888e-05
3.95828e-05
4.22592e-05
4.5839e-05
5.00585e-05
5.47e-05
5.96038e-05
6.46699e-05
6.9856e-05
7.51855e-05
8.07209e-05
8.6504e-05
9.26251e-05
9.91871e-05
8.26413e-05
7.44958e-05
6.7215e-05
6.04193e-05
5.39548e-05
4.79449e-05
4.2674e-05
3.84865e-05
3.56932e-05
3.44656e-05
3.47999e-05
3.65294e-05
3.93879e-05
4.3083e-05
4.73497e-05
5.19792e-05
5.68285e-05
6.18205e-05
6.69495e-05
7.22779e-05
7.78577e-05
8.3777e-05
9.0158e-05
7.7659e-05
6.96236e-05
6.24588e-05
5.583e-05
4.95401e-05
4.37049e-05
3.86215e-05
3.4653e-05
3.21142e-05
3.1166e-05
3.17757e-05
3.37425e-05
3.67744e-05
4.05681e-05
4.48613e-05
4.94594e-05
5.42424e-05
5.91665e-05
6.42718e-05
6.96379e-05
7.53398e-05
8.15222e-05
8.05822e-05
7.28155e-05
6.49365e-05
5.78706e-05
5.14102e-05
4.53002e-05
3.96469e-05
3.47636e-05
3.10326e-05
2.87703e-05
2.81211e-05
2.90167e-05
3.12183e-05
3.44095e-05
3.82794e-05
4.25743e-05
4.71203e-05
5.18289e-05
5.67057e-05
6.18434e-05
6.73119e-05
7.32763e-05
8.17202e-05
7.53933e-05
6.80749e-05
6.04122e-05
5.34317e-05
4.71431e-05
4.12213e-05
3.57611e-05
3.10939e-05
2.76228e-05
2.56624e-05
2.53326e-05
2.65214e-05
2.89498e-05
3.22792e-05
3.61972e-05
4.0466e-05
4.4942e-05
4.95858e-05
5.44713e-05
5.96923e-05
6.54181e-05
7.60664e-05
7.02173e-05
6.34101e-05
5.60172e-05
4.91239e-05
4.30132e-05
3.72923e-05
3.20406e-05
2.761e-05
2.44241e-05
2.27938e-05
2.28026e-05
2.42864e-05
2.69255e-05
3.03641e-05
3.42964e-05
3.8511e-05
4.29106e-05
4.75283e-05
5.24848e-05
5.79476e-05
7.49062e-05
7.03761e-05
6.50344e-05
5.87757e-05
5.17107e-05
4.4935e-05
3.90067e-05
3.35008e-05
2.84754e-05
2.43089e-05
2.14407e-05
2.01705e-05
2.05328e-05
2.23046e-05
2.51278e-05
2.86371e-05
3.2544e-05
3.66791e-05
4.10193e-05
4.56936e-05
5.08661e-05
7.20715e-05
6.86696e-05
6.4616e-05
5.97963e-05
5.4093e-05
4.7443e-05
4.08618e-05
3.51155e-05
2.98416e-05
2.50647e-05
2.11927e-05
1.86787e-05
1.7798e-05
1.85213e-05
2.05628e-05
2.35319e-05
2.70649e-05
3.09072e-05
3.49603e-05
3.93204e-05
4.41753e-05
6.52879e-05
6.23186e-05
5.87482e-05
5.44551e-05
4.93065e-05
4.31786e-05
3.68943e-05
3.1331e-05
2.63106e-05
2.18094e-05
1.82673e-05
1.61473e-05
1.56816e-05
1.67618e-05
1.904e-05
2.21028e-05
2.56045e-05
2.93527e-05
3.3374e-05
3.7882e-05
6.04597e-05
5.83672e-05
5.58331e-05
5.2753e-05
4.9001e-05
4.44354e-05
3.89192e-05
3.30055e-05
2.76409e-05
2.29026e-05
1.87122e-05
1.5543e-05
1.38586e-05
1.3824e-05
1.52403e-05
1.77033e-05
2.07919e-05
2.42048e-05
2.78703e-05
3.19981e-05
5.4437e-05
5.3023e-05
5.13062e-05
4.92078e-05
4.6627e-05
4.34388e-05
3.9497e-05
3.46533e-05
2.91722e-05
2.40407e-05
1.96197e-05
1.57817e-05
1.30353e-05
1.18249e-05
1.22216e-05
1.3931e-05
1.6505e-05
1.95384e-05
2.28302e-05
2.65369e-05
4.74855e-05
4.65723e-05
4.54663e-05
4.41145e-05
4.24464e-05
4.03683e-05
3.77587e-05
3.44688e-05
3.0336e-05
2.53672e-05
2.05348e-05
1.64715e-05
1.3034e-05
1.0764e-05
1.00559e-05
1.08599e-05
1.27905e-05
1.53751e-05
1.82697e-05
2.15155e-05
3.98795e-05
3.93182e-05
3.86436e-05
3.78244e-05
3.68175e-05
3.55626e-05
3.39755e-05
3.1941e-05
2.93071e-05
2.58922e-05
2.15417e-05
1.71324e-05
1.3473e-05
1.04922e-05
8.75257e-06
8.55397e-06
9.70731e-06
1.17507e-05
1.42196e-05
1.69639e-05
3.19015e-05
3.15751e-05
3.11881e-05
3.07245e-05
3.01619e-05
2.94676e-05
2.85934e-05
2.74678e-05
2.5985e-05
2.39936e-05
2.12934e-05
1.76748e-05
1.38414e-05
1.06451e-05
8.18779e-06
7.02347e-06
7.30544e-06
8.70368e-06
1.07013e-05
1.29316e-05
2.38494e-05
2.36725e-05
2.34664e-05
2.32246e-05
2.2938e-05
2.25922e-05
2.21655e-05
2.16238e-05
2.09121e-05
1.99426e-05
1.85773e-05
1.66152e-05
1.38223e-05
1.06755e-05
8.02094e-06
6.16181e-06
5.59029e-06
6.26956e-06
7.74222e-06
9.47135e-06
1.60645e-05
1.59779e-05
1.58792e-05
1.57668e-05
1.56379e-05
1.54883e-05
1.53112e-05
1.50951e-05
1.48205e-05
1.44534e-05
1.39329e-05
1.31525e-05
1.19338e-05
1.00324e-05
7.67627e-06
5.65617e-06
4.46282e-06
4.44526e-06
5.36135e-06
6.63045e-06
9.0022e-06
8.96683e-06
8.92773e-06
8.88487e-06
8.83811e-06
8.78709e-06
8.73097e-06
8.66801e-06
8.59471e-06
8.50413e-06
8.38236e-06
8.20087e-06
7.90041e-06
7.36071e-06
6.37165e-06
4.91968e-06
3.63361e-06
3.13507e-06
3.54731e-06
4.44053e-06
3.39734e-06
3.38827e-06
3.3786e-06
3.36864e-06
3.35876e-06
3.34942e-06
3.34109e-06
3.33427e-06
3.32943e-06
3.32684e-06
3.32625e-06
3.32622e-06
3.32221e-06
3.30176e-06
3.23195e-06
3.03413e-06
2.57674e-06
2.07402e-06
2.19676e-06
2.80989e-06
4.06134e-07
4.06262e-07
4.06533e-07
4.07083e-07
4.08081e-07
4.09733e-07
4.12291e-07
4.16057e-07
4.21398e-07
4.28749e-07
4.38628e-07
4.51666e-07
4.68697e-07
4.90883e-07
5.2051e-07
5.63405e-07
6.37622e-07
7.78864e-07
1.0009e-06
1.34537e-06
2.83663e-09
2.85069e-09
2.86923e-09
2.89478e-09
2.93067e-09
2.98131e-09
3.05269e-09
3.15303e-09
3.29369e-09
3.49042e-09
3.76529e-09
4.14978e-09
4.69145e-09
5.46354e-09
6.5953e-09
8.40457e-09
1.17842e-08
2.08687e-08
6.50422e-08
4.37402e-07
0.00300682
0.00295345
0.00289862
0.00284235
0.00278466
0.00272557
0.00266512
0.00260335
0.00254031
0.00247605
0.00241065
0.00234418
0.00227672
0.00220836
0.0021392
0.00206934
0.00199891
0.00192801
0.00185678
0.00178533
0.00171381
0.00164234
0.00157105
0.0015001
0.00142961
0.00135971
0.00129055
0.00122224
0.00115491
0.00108867
0.00102365
0.00095994
0.000897639
0.000836836
0.000777609
0.000720026
0.000664146
0.000610018
0.00055768
0.000507161
0.000458477
0.000411635
0.000366645
0.00032352
0.000282247
0.000242817
0.000205224
0.000169472
0.000135591
0.000103658
7.38643e-05
4.66952e-05
2.34647e-05
7.45118e-06
8.40113e-07
0.00299908
0.0029453
0.00289007
0.00283341
0.00277534
0.00271589
0.0026551
0.002593
0.00252967
0.00246514
0.00239951
0.00233283
0.00226521
0.00219672
0.00212748
0.00205758
0.00198715
0.00191629
0.00184515
0.00177383
0.00170247
0.00163121
0.00156018
0.00148951
0.00141934
0.00134979
0.001281
0.00121309
0.00114617
0.00108037
0.00101579
0.000952521
0.000890665
0.000830302
0.000771507
0.000714343
0.000658865
0.000605119
0.000553139
0.000502949
0.000454564
0.000407988
0.000363229
0.000320303
0.0002792
0.000239909
0.000202427
0.000166766
0.00013297
0.000101158
7.16123e-05
4.50063e-05
2.28672e-05
8.14612e-06
1.4598e-06
0.00299113
0.00293694
0.00288131
0.00282426
0.00276582
0.00270601
0.00264488
0.00258247
0.00251884
0.00245407
0.0023882
0.00232134
0.00225356
0.00218496
0.00211565
0.00204572
0.0019753
0.00190451
0.00183346
0.00176228
0.00169111
0.00162007
0.0015493
0.00147893
0.00140908
0.00133989
0.00127148
0.00120397
0.00113747
0.0010721
0.00100795
0.000945131
0.000883718
0.000823794
0.000765428
0.00070868
0.000653603
0.000600237
0.000548613
0.000498755
0.000450676
0.000404379
0.000359867
0.000317163
0.00027626
0.000237154
0.000199853
0.000164387
0.000130836
9.93746e-05
7.03762e-05
4.45984e-05
2.34801e-05
9.79711e-06
2.72074e-06
0.002983
0.00292839
0.00287236
0.00281492
0.0027561
0.00269594
0.00263448
0.00257176
0.00250786
0.00244283