/*--------------------------------*- C++ -*----------------------------------*\
  =========                 |
  \\      /  F ield         | OpenFOAM: The Open Source CFD Toolbox
   \\    /   O peration     | Website:  https://openfoam.org
    \\  /    A nd           | Version:  10
     \\/     M anipulation  |
\*---------------------------------------------------------------------------*/
FoamFile
{
    format      ascii;
    class       volScalarField;
    location    "3200";
    object      k;
}
// * * * * * * * * * * * * * * * * * * * * * * * * * * * * * * * * * * * * * //

dimensions      [0 2 -2 0 0 0 0];

internalField   nonuniform List<scalar> 
420
(
2.22045e-16
2.22045e-16
2.22045e-16
2.22045e-16
2.22045e-16
2.22045e-16
2.22045e-16
2.22045e-16
2.22045e-16
2.22045e-16
2.22045e-16
2.22045e-16
2.22045e-16
2.22045e-16
2.22045e-16
2.22045e-16
2.22045e-16
2.22045e-16
2.22045e-16
2.22045e-16
2.22045e-16
2.22045e-16
2.22045e-16
2.22045e-16
2.22045e-16
2.22045e-16
2.22045e-16
2.22045e-16
2.22045e-16
2.22045e-16
2.22045e-16
2.22045e-16
2.22045e-16
2.22045e-16
2.22045e-16
2.22045e-16
2.22045e-16
2.22045e-16
2.22045e-16
2.22045e-16
2.22045e-16
2.22045e-16
2.22045e-16
2.22045e-16
2.22045e-16
2.22045e-16
2.22045e-16
2.22045e-16
2.22045e-16
2.22045e-16
2.22045e-16
2.22045e-16
2.22045e-16
2.22045e-16
2.22045e-16
2.22045e-16
2.22045e-16
2.22045e-16
2.22045e-16
2.22045e-16
2.22045e-16
2.22045e-16
2.22045e-16
2.22045e-16
2.22045e-16
2.22045e-16
2.22045e-16
2.22045e-16
2.22045e-16
2.22045e-16
2.22045e-16
2.22045e-16
2.22045e-16
2.22045e-16
2.22045e-16
2.22045e-16
2.22045e-16
2.22045e-16
2.22045e-16
2.22045e-16
2.22045e-16
2.22045e-16
2.22045e-16
2.22045e-16
2.22045e-16
2.22045e-16
2.22045e-16
2.22045e-16
2.22045e-16
2.22045e-16
2.22045e-16
2.22045e-16
2.22045e-16
2.22045e-16
2.22045e-16
2.22045e-16
2.22045e-16
2.22045e-16
2.22045e-16
2.22045e-16
2.22045e-16
2.22045e-16
2.22045e-16
2.6041e-16
2.9738e-16
2.76976e-16
2.78122e-16
2.22045e-16
2.22045e-16
2.44146e-16
2.22045e-16
2.22045e-16
2.22045e-16
2.56344e-16
2.95322e-16
2.7586e-16
2.81092e-16
2.22045e-16
2.22045e-16
2.4181e-16
2.22045e-16
2.22045e-16
2.22045e-16
2.53269e-16
2.93804e-16
2.74202e-16
2.81819e-16
2.22045e-16
2.22045e-16
2.41811e-16
2.22045e-16
2.22045e-16
2.22045e-16
2.51443e-16
2.9317e-16
2.72521e-16
2.81311e-16
2.22045e-16
2.22045e-16
2.40745e-16
2.22045e-16
2.22045e-16
2.22045e-16
2.50994e-16
2.93187e-16
2.7096e-16
2.79646e-16
2.22045e-16
2.22045e-16
2.39978e-16
2.22045e-16
2.22045e-16
2.22045e-16
2.52239e-16
2.94253e-16
2.69681e-16
2.77024e-16
2.22045e-16
2.22045e-16
2.39365e-16
2.22045e-16
2.22045e-16
2.22045e-16
2.55418e-16
2.96318e-16
2.68837e-16
2.73712e-16
2.22045e-16
2.22045e-16
2.38267e-16
2.22045e-16
2.22045e-16
2.22045e-16
2.60608e-16
2.98644e-16
2.68481e-16
2.69441e-16
2.22045e-16
2.22045e-16
2.36898e-16
2.22045e-16
2.22045e-16
2.22045e-16
2.67773e-16
3.00908e-16
2.68473e-16
2.64634e-16
2.22045e-16
2.22045e-16
2.35618e-16
2.22045e-16
2.22045e-16
2.22045e-16
2.76537e-16
3.02947e-16
2.68766e-16
2.60437e-16
2.22045e-16
2.22045e-16
2.34533e-16
2.22045e-16
2.22045e-16
2.24709e-16
2.85365e-16
3.04667e-16
2.68759e-16
2.56298e-16
2.22045e-16
2.22045e-16
2.33067e-16
2.22045e-16
2.22045e-16
2.40404e-16
2.88696e-16
3.06125e-16
2.68151e-16
2.53422e-16
2.22045e-16
2.22045e-16
2.30593e-16
2.22045e-16
2.22045e-16
2.56197e-16
2.92156e-16
3.07987e-16
2.673e-16
2.50228e-16
2.22045e-16
2.22045e-16
2.28814e-16
2.22045e-16
2.4168e-16
2.68094e-16
2.93398e-16
3.08335e-16
2.67692e-16
2.45674e-16
2.22045e-16
2.22045e-16
2.30212e-16
2.37058e-16
2.54481e-16
2.68046e-16
2.92118e-16
3.07526e-16
2.67972e-16
2.42284e-16
2.22045e-16
2.22045e-16
2.31545e-16
2.42201e-16
2.51792e-16
2.64473e-16
2.90287e-16
3.06597e-16
2.68354e-16
2.39639e-16
2.22045e-16
2.22045e-16
2.3335e-16
2.38124e-16
2.46245e-16
2.5997e-16
2.88353e-16
3.05793e-16
2.68992e-16
2.38325e-16
2.22045e-16
2.22045e-16
2.35699e-16
2.32427e-16
2.39985e-16
2.54817e-16
2.86268e-16
3.05119e-16
2.69808e-16
2.38211e-16
2.22045e-16
2.22045e-16
2.38539e-16
2.26599e-16
2.33506e-16
2.48828e-16
2.83617e-16
3.041e-16
2.70873e-16
2.39282e-16
2.22045e-16
2.22045e-16
2.41893e-16
2.22045e-16
2.26126e-16
2.40067e-16
2.78647e-16
3.01524e-16
2.71995e-16
2.41343e-16
2.22045e-16
2.22045e-16
2.45178e-16
2.22045e-16
2.22045e-16
2.31143e-16
2.73289e-16
2.99344e-16
2.734e-16
2.44536e-16
2.22912e-16
2.22045e-16
2.50806e-16
2.22045e-16
2.22045e-16
2.25018e-16
2.70276e-16
2.98807e-16
2.75656e-16
2.47119e-16
2.24842e-16
2.22045e-16
2.67157e-16
2.22045e-16
2.22045e-16
2.22045e-16
2.26359e-16
2.29242e-16
2.26744e-16
2.2287e-16
2.22045e-16
2.22045e-16
2.22045e-16
2.22045e-16
2.22045e-16
2.22045e-16
2.22045e-16
2.22045e-16
2.22045e-16
2.22045e-16
2.22045e-16
2.22045e-16
2.22045e-16
2.22045e-16
2.22045e-16
2.22045e-16
2.22045e-16
2.22045e-16
2.22045e-16
2.22045e-16
2.22045e-16
2.22045e-16
2.22045e-16
2.22045e-16
2.22045e-16
2.22045e-16
2.22045e-16
2.22045e-16
2.22045e-16
2.22045e-16
2.22045e-16
2.22045e-16
2.22045e-16
2.22045e-16
2.22045e-16
2.22045e-16
2.22045e-16
2.22045e-16
2.22045e-16
2.22045e-16
2.22045e-16
2.22045e-16
2.22045e-16
2.22045e-16
2.22045e-16
2.22045e-16
2.22045e-16
2.22045e-16
2.22045e-16
2.22045e-16
2.22045e-16
2.22045e-16
2.22045e-16
2.22045e-16
2.22045e-16
2.22045e-16
2.22045e-16
2.22045e-16
2.22045e-16
2.22045e-16
2.22045e-16
2.22045e-16
2.22045e-16
2.22045e-16
2.22045e-16
2.22045e-16
2.22045e-16
2.22045e-16
2.22045e-16
2.22045e-16
2.22045e-16
2.22045e-16
2.22045e-16
2.22045e-16
2.22045e-16
2.22045e-16
2.22045e-16
2.22045e-16
2.22045e-16
2.22045e-16
2.22045e-16
2.22045e-16
2.22045e-16
2.22045e-16
2.22045e-16
2.22045e-16
2.22045e-16
2.22045e-16
2.22045e-16
2.22045e-16
2.22045e-16
2.22045e-16
2.22045e-16
)
;

boundaryField
{
    right
    {
        type            cyclic;
    }
    left
    {
        type            cyclic;
    }
    outerWall
    {
        type            kqRWallFunction;
        value           nonuniform List<scalar> 
22
(
2.44146e-16
2.4181e-16
2.41811e-16
2.40745e-16
2.39978e-16
2.39365e-16
2.38267e-16
2.36898e-16
2.35618e-16
2.34533e-16
2.33067e-16
2.30593e-16
2.28814e-16
2.30212e-16
2.31545e-16
2.3335e-16
2.35699e-16
2.38539e-16
2.41893e-16
2.45178e-16
2.50806e-16
2.67157e-16
)
;
    }
    stirrerWall
    {
        type            kqRWallFunction;
        value           uniform 2.22045e-16;
    }
    top
    {
        type            empty;
    }
    bottom
    {
        type            empty;
    }
}


// ************************************************************************* //
