/*--------------------------------*- C++ -*----------------------------------*\
  =========                 |
  \\      /  F ield         | OpenFOAM: The Open Source CFD Toolbox
   \\    /   O peration     | Website:  https://openfoam.org
    \\  /    A nd           | Version:  10
     \\/     M anipulation  |
\*---------------------------------------------------------------------------*/
FoamFile
{
    format      ascii;
    class       volScalarField;
    location    "3200";
    object      nut;
}
// * * * * * * * * * * * * * * * * * * * * * * * * * * * * * * * * * * * * * //

dimensions      [0 2 -1 0 0 0 0];

internalField   nonuniform List<scalar> 
420
(
1.04478e-20
6.39046e-20
1.88097e-19
3.66355e-19
5.6974e-19
7.65774e-19
8.97691e-19
8.98028e-19
7.73298e-19
6.20861e-19
1.04473e-20
6.37418e-20
1.83772e-19
3.56571e-19
5.55674e-19
7.48933e-19
8.78999e-19
8.74829e-19
7.41098e-19
5.79355e-19
1.04471e-20
6.33433e-20
1.79934e-19
3.47785e-19
5.41399e-19
7.28887e-19
8.52247e-19
8.39275e-19
6.96396e-19
5.28992e-19
1.04472e-20
6.32278e-20
1.78048e-19
3.40055e-19
5.23365e-19
6.97816e-19
8.08661e-19
7.86643e-19
6.37569e-19
4.69481e-19
1.04476e-20
6.35463e-20
1.76296e-19
3.2613e-19
4.86612e-19
6.34213e-19
7.25595e-19
7.00451e-19
5.57972e-19
4.00002e-19
1.04483e-20
6.30446e-20
1.67759e-19
2.879e-19
4.04287e-19
5.08282e-19
5.75709e-19
5.62306e-19
4.52374e-19
3.20944e-19
1.04493e-20
6.00032e-20
1.38107e-19
2.06374e-19
2.67473e-19
3.24425e-19
3.68595e-19
3.76463e-19
3.23083e-19
2.34745e-19
1.04506e-20
4.77323e-20
8.05647e-20
1.04925e-19
1.28709e-19
1.53349e-19
1.76794e-19
1.92548e-19
1.87431e-19
1.47275e-19
1.04522e-20
2.15379e-20
2.80614e-20
3.46588e-20
4.18593e-20
4.96984e-20
5.79927e-20
6.62177e-20
7.33765e-20
6.79506e-20
2.82342e-21
3.6643e-21
4.61494e-21
5.67535e-21
6.84552e-21
8.12545e-21
9.51514e-21
1.10146e-20
1.26238e-20
1.43428e-20
5.06791e-19
4.54245e-19
4.85577e-19
7.29034e-19
1.08066e-18
1.10856e-18
7.1123e-19
5.26023e-19
2.86732e-19
6.8173e-20
4.61521e-19
4.1199e-19
4.52558e-19
6.96281e-19
1.06685e-18
1.0995e-18
6.82412e-19
5.4263e-19
2.84159e-19
6.75228e-20
4.11742e-19
3.69074e-19
4.20455e-19
6.68585e-19
1.05534e-18
1.11006e-18
6.66463e-19
5.4862e-19
2.816e-19
6.75235e-20
3.57198e-19
3.24844e-19
3.88782e-19
6.46584e-19
1.04838e-18
1.10613e-18
6.53098e-19
5.43307e-19
2.80732e-19
6.72251e-20
2.98333e-19
2.79863e-19
3.58055e-19
6.31556e-19
1.02434e-18
1.10254e-18
6.42417e-19
5.36142e-19
2.78814e-19
6.70086e-20
2.36425e-19
2.35047e-19
3.28999e-19
6.25489e-19
9.71731e-19
1.09959e-18
6.38385e-19
5.30528e-19
2.78014e-19
6.6834e-20
1.73898e-19
1.91648e-19
3.02779e-19
6.31179e-19
9.60626e-19
1.09758e-18
6.29187e-19
5.31103e-19
2.77377e-19
6.65224e-20
1.1504e-19
1.51274e-19
2.81297e-19
6.52583e-19
9.58232e-19
1.09667e-18
6.23612e-19
5.35263e-19
2.76381e-19
6.61339e-20
6.55084e-20
1.15613e-19
2.67648e-19
6.95022e-19
9.56768e-19
1.09621e-18
6.47803e-19
5.46811e-19
2.74998e-19
6.57689e-20
2.99327e-20
8.65224e-20
2.69452e-19
7.65747e-19
9.45747e-19
1.09567e-18
6.77157e-19
5.67793e-19
2.72865e-19
6.54572e-20
1.03958e-20
7.10996e-20
3.19537e-19
8.02199e-19
9.33239e-19
1.09355e-18
6.70962e-19
5.42975e-19
2.68207e-19
6.51819e-20
1.03958e-20
8.84718e-20
4.25386e-19
7.95422e-19
9.12512e-19
1.09246e-18
6.58151e-19
5.17944e-19
2.66762e-19
6.44902e-20
5.49094e-20
2.20858e-19
6.35399e-19
7.95172e-19
9.0924e-19
1.09095e-18
6.32416e-19
5.60396e-19
2.62797e-19
6.38612e-20
2.49962e-19
5.50094e-19
6.79503e-19
7.83794e-19
8.90189e-19
1.08893e-18
6.86782e-19
5.66768e-19
2.54078e-19
6.42598e-20
5.61015e-19
6.09681e-19
6.77456e-19
7.8509e-19
8.87017e-19
1.0853e-18
7.01119e-19
5.69055e-19
2.53672e-19
6.46394e-20
6.37479e-19
6.26486e-19
6.80527e-19
7.95485e-19
9.01631e-19
1.08314e-18
7.46897e-19
5.73509e-19
2.5783e-19
6.51497e-20
6.60026e-19
6.27056e-19
6.78526e-19
8.04836e-19
9.25039e-19
1.08254e-18
7.92551e-19
5.78976e-19
2.6579e-19
6.58102e-20
6.59427e-19
6.21155e-19
6.78658e-19
8.2927e-19
9.88718e-19
1.08346e-18
8.12598e-19
5.84063e-19
2.77274e-19
6.66069e-20
6.56041e-19
6.39021e-19
6.98763e-19
9.10822e-19
1.14626e-18
1.08627e-18
8.11173e-19
5.86178e-19
2.89596e-19
6.75458e-20
6.19841e-19
5.86394e-19
6.4301e-19
8.72295e-19
1.131e-18
1.0907e-18
8.11159e-19
5.83312e-19
2.96412e-19
6.84637e-20
5.86753e-19
5.39485e-19
5.84701e-19
8.29482e-19
1.11501e-18
1.09756e-18
7.47093e-19
5.81479e-19
2.93238e-19
7.00347e-20
5.48011e-19
4.97865e-19
5.31314e-19
7.90474e-19
1.10227e-18
1.10662e-18
6.10068e-19
4.74482e-19
2.88015e-19
7.45983e-20
1.43428e-20
1.11217e-19
3.99652e-19
6.70022e-19
7.3191e-19
7.47367e-19
7.31803e-19
7.06545e-19
6.81592e-19
6.52042e-19
1.26238e-20
8.40429e-20
2.9319e-19
5.85863e-19
7.57142e-19
8.10274e-19
8.17529e-19
8.10819e-19
8.00788e-19
7.89476e-19
1.10146e-20
6.51374e-20
2.12926e-19
4.55023e-19
6.80928e-19
8.11703e-19
8.70045e-19
8.93933e-19
9.03753e-19
9.0799e-19
9.51514e-21
5.20757e-20
1.51245e-19
3.18151e-19
5.21416e-19
6.97534e-19
8.14075e-19
8.80034e-19
9.11472e-19
9.13639e-19
8.12545e-21
4.43531e-20
1.20069e-19
2.35587e-19
3.80487e-19
5.28975e-19
6.52924e-19
7.37995e-19
7.82143e-19
7.83262e-19
6.84552e-21
3.80279e-20
1.0068e-19
1.88454e-19
2.91731e-19
3.96577e-19
4.86994e-19
5.51378e-19
5.84735e-19
5.84581e-19
5.67535e-21
3.21864e-20
8.51853e-20
1.5465e-19
2.27435e-19
2.91801e-19
3.39725e-19
3.68713e-19
3.80361e-19
3.76701e-19
4.61494e-21
2.65132e-20
6.91101e-20
1.16855e-19
1.54247e-19
1.77205e-19
1.88715e-19
1.92923e-19
1.9303e-19
1.91232e-19
3.6643e-21
2.07113e-20
4.41826e-20
5.77875e-20
6.3104e-20
6.45845e-20
6.48326e-20
6.466e-20
6.43778e-20
6.40837e-20
2.82342e-21
1.04522e-20
1.04506e-20
1.04493e-20
1.04483e-20
1.04476e-20
1.04472e-20
1.04471e-20
1.04473e-20
1.04478e-20
)
;

boundaryField
{
    right
    {
        type            cyclic;
    }
    left
    {
        type            cyclic;
    }
    outerWall
    {
        type            nutkWallFunction;
        Cmu             0.09;
        kappa           0.41;
        E               9.8;
        value           uniform 0;
    }
    stirrerWall
    {
        type            nutkWallFunction;
        Cmu             0.09;
        kappa           0.41;
        E               9.8;
        value           uniform 0;
    }
    top
    {
        type            empty;
    }
    bottom
    {
        type            empty;
    }
}


// ************************************************************************* //
