/*--------------------------------*- C++ -*----------------------------------*\
  =========                 |
  \\      /  F ield         | OpenFOAM: The Open Source CFD Toolbox
   \\    /   O peration     | Website:  https://openfoam.org
    \\  /    A nd           | Version:  10
     \\/     M anipulation  |
\*---------------------------------------------------------------------------*/
FoamFile
{
    format      ascii;
    class       volScalarField;
    location    "3200";
    object      omega;
}
// * * * * * * * * * * * * * * * * * * * * * * * * * * * * * * * * * * * * * //

dimensions      [0 0 -1 0 0 0 0];

internalField   nonuniform List<scalar> 
420
(
21252.7
3474.63
1180.48
606.091
389.73
289.961
247.351
247.258
287.14
357.64
21253.7
3483.5
1208.26
622.722
399.595
296.481
252.611
253.815
299.616
383.262
21254.2
3505.42
1234.03
638.453
410.131
304.635
260.54
264.567
318.848
419.75
21254
3511.82
1247.1
652.967
424.263
318.2
274.583
282.269
348.268
472.958
21253.2
3494.22
1259.5
680.848
456.307
350.11
306.017
317.002
397.95
555.108
21251.7
3522.03
1323.59
771.257
549.225
436.853
385.689
394.882
490.843
691.848
21249.7
3700.55
1607.77
1075.93
830.157
684.424
602.409
589.817
687.268
945.898
21247.1
4651.87
2756.1
2116.22
1725.17
1447.97
1255.95
1153.19
1184.67
1507.68
21243.8
10309.5
7912.8
6406.59
5304.55
4467.85
3828.84
3353.25
3026.1
3267.74
78643.9
60596.7
48114.3
39124.4
32436.5
27327.1
23335.9
20159.1
17589.3
15481.3
438.138
488.821
457.279
357.199
275.183
248.165
302.359
379.618
774.398
3581.27
481.115
538.956
490.643
368.161
276.818
247.603
303.569
379.539
781.411
3581.17
539.281
601.627
528.106
378.813
278.396
247.016
303.608
380.07
788.51
3581.13
621.629
683.543
571.13
388.879
279.639
246.373
302.989
381.372
790.949
3581.18
744.284
793.406
620.141
397.421
280.208
245.761
301.977
383.138
796.391
3581.3
939.177
944.68
674.909
403.267
279.931
245.256
300.75
384.831
798.683
3581.49
1276.87
1158.6
733.354
404.667
278.655
244.937
299.557
386.535
800.514
3581.76
1930.15
1467.83
789.359
399.348
276.262
244.813
298.257
388.386
803.399
3582.1
3389.56
1920.59
829.614
385.272
272.981
244.909
296.764
389.879
807.442
3582.51
7418.12
2566.33
824.06
361.133
269.396
245.297
295.961
390.957
813.751
3582.99
21359.1
3123.01
703.233
328.509
266.245
245.767
295.963
392.119
827.884
3575.63
21359.1
2509.78
565.142
312.952
265.328
245.456
295.003
394.364
832.37
3575.63
4043.83
1005.37
403.207
299.326
264.192
245.016
293.956
396.228
844.928
3582.99
888.314
439.343
329.826
293.676
263.847
245.83
292.204
391.773
873.924
3582.51
395.602
338.766
320.173
294.204
263.689
246.91
291.84
390.199
875.322
3582.1
323.959
329.847
324.186
296.562
263.633
247.755
291.67
387.168
861.207
3581.76
319.79
337.223
332.04
300.143
263.835
248.481
292.083
383.513
835.412
3581.49
328.653
349.508
342.566
305.018
264.369
249.025
293.147
380.173
800.812
3581.3
341.832
365.412
356.098
311.386
265.296
249.36
294.983
378.801
766.74
3581.18
358.228
385.622
373.348
319.441
266.599
249.378
297.529
380.662
749.107
3581.13
378.43
411.586
395.318
329.47
268.469
249.098
300.535
383.354
757.217
3581.17
405.183
445.994
423.512
341.916
271.083
249.097
302.956
383.476
770.948
3581.27
15481.3
1996.49
555.595
332.857
298.117
297.502
304.549
314.268
325.773
340.537
17589.3
2642.04
757.341
379.004
293.267
274.036
271.604
273.852
277.282
281.256
20159.1
3408.86
1042.83
487.985
326.091
273.554
255.21
248.391
245.692
244.545
23335.9
4263.88
1468.11
697.922
425.849
318.328
272.757
252.314
243.611
243.033
27327.1
5006.3
1849.31
942.516
583.58
419.764
340.077
300.876
283.893
283.487
32436.5
5838.99
2205.46
1178.24
761.129
559.903
455.95
402.709
379.735
379.836
39124.4
6898.7
2606.61
1435.79
976.299
760.945
653.601
602.215
583.773
589.445
48114.3
8374.86
3212.91
1900.17
1439.54
1253.04
1176.62
1150.95
1150.31
1161.13
60596.7
10721
5025.61
3842.43
3518.71
3438.05
3424.89
3434.04
3449.09
3464.92
78643.9
21243.8
21247.1
21249.7
21251.7
21253.2
21254
21254.2
21253.7
21252.7
)
;

boundaryField
{
    right
    {
        type            cyclic;
    }
    left
    {
        type            cyclic;
    }
    outerWall
    {
        beta1           0.075;
        blended         0;
        type            omegaWallFunction;
        value           nonuniform List<scalar> 
22
(
3581.27
3581.17
3581.13
3581.18
3581.3
3581.49
3581.76
3582.1
3582.51
3582.99
3575.63
3575.63
3582.99
3582.51
3582.1
3581.76
3581.49
3581.3
3581.18
3581.13
3581.17
3581.27
)
;
    }
    stirrerWall
    {
        beta1           0.075;
        blended         0;
        type            omegaWallFunction;
        value           nonuniform List<scalar> 
42
(
21252.7
21253.7
21254.2
21254
21253.2
21251.7
21249.7
21247.1
21243.8
78643.9
78643.9
60596.7
48114.3
39124.4
32436.5
27327.1
23335.9
20159.1
17589.3
15481.3
21359.1
21359.1
15481.3
17589.3
20159.1
23335.9
27327.1
32436.5
39124.4
48114.3
60596.7
78643.9
78643.9
21243.8
21247.1
21249.7
21251.7
21253.2
21254
21254.2
21253.7
21252.7
)
;
    }
    top
    {
        type            empty;
    }
    bottom
    {
        type            empty;
    }
}


// ************************************************************************* //
