/*--------------------------------*- C++ -*----------------------------------*\
  =========                 |
  \\      /  F ield         | OpenFOAM: The Open Source CFD Toolbox
   \\    /   O peration     | Website:  https://openfoam.org
    \\  /    A nd           | Version:  10
     \\/     M anipulation  |
\*---------------------------------------------------------------------------*/
FoamFile
{
    format      ascii;
    class       volScalarField;
    location    "3200";
    object      p;
}
// * * * * * * * * * * * * * * * * * * * * * * * * * * * * * * * * * * * * * //

dimensions      [0 2 -2 0 0 0 0];

internalField   nonuniform List<scalar> 
420
(
0.363491
15.5261
31.1203
48.9298
68.3037
88.6948
109.714
130.869
151.752
171.88
0.131115
14.98
30.3379
47.9087
67.1288
87.5125
108.699
130.164
151.371
171.781
-0.0564924
14.5493
29.652
46.9591
65.9928
86.3467
107.675
129.422
150.96
171.691
-0.19037
14.2359
29.0995
46.1338
64.9496
85.2174
106.622
128.61
150.49
171.581
-0.305983
14.0417
28.6971
45.4493
64.0023
84.1095
105.512
127.698
149.921
171.413
-0.39749
13.9719
28.454
44.9139
63.1532
83.016
104.317
126.637
149.209
171.16
-0.466242
14.0252
28.373
44.528
62.4029
81.931
103.014
125.371
148.304
170.854
-0.526795
14.1991
28.4535
44.2866
61.7562
80.8617
101.586
123.802
147.045
170.327
-0.625167
14.5047
28.6798
44.1822
61.2461
79.8832
100.103
121.873
144.965
168.606
-0.816215
14.915
28.8902
44.1077
60.8595
79.102
98.8034
119.884
142.085
165.064
190.745
208.77
226.101
242.389
257.615
271.689
282.519
300.161
306.017
331.397
190.854
208.988
226.344
242.651
257.959
272.127
283.066
301.183
309.017
331.016
191.012
209.28
226.679
243.055
258.511
272.884
284.053
302.477
311.243
331.799
191.19
209.607
227.048
243.513
259.136
273.779
285.3
303.938
313.509
333.289
191.351
209.925
227.413
243.99
259.783
274.731
286.626
305.409
315.751
334.565
191.488
210.196
227.74
244.463
260.402
275.622
287.842
306.753
317.486
335.414
191.703
210.414
227.968
244.891
260.971
276.415
288.861
307.819
318.678
335.79
192.011
210.581
228.03
245.245
261.522
277.169
289.772
308.843
320.013
336.126
191.839
210.927
228.203
245.618
262.098
277.921
290.755
310.396
322.794
336.467
190.534
211.943
228.993
246.176
262.681
278.612
291.712
312.449
325.046
336.654
189.821
212.548
229.812
246.786
263.081
278.984
291.293
313.456
320.711
334.953
190.793
212.625
230.222
246.949
262.965
278.598
290.62
311.819
315.794
332.302
195.827
213.252
230.597
247.199
262.958
278.16
290.619
308.184
314.257
331.566
195.617
212.994
230.323
246.965
262.63
277.572
289.917
306.209
313.179
328.93
194.444
212.202
229.669
246.369
262.007
276.815
289.212
305.275
311.231
325.522
193.381
211.267
228.842
245.591
261.225
275.936
288.384
304.204
308.779
322.57
192.536
210.426
228.027
244.791
260.433
275.15
287.801
303.491
306.808
320.174
191.868
209.744
227.324
244.067
259.725
274.587
287.654
303.317
306.148
321.775
191.369
209.244
226.779
243.459
259.082
274.032
287.301
302.911
307.944
331.929
191.01
208.901
226.376
242.951
258.424
273.087
285.625
300.438
309.354
348.091
190.761
208.67
226.073
242.518
257.76
271.838
283.085
297.279
306.764
346.066
190.686
208.627
225.97
242.284
257.424
271.402
281.913
298.029
306.391
328.023
179.28
177.008
175.635
174.759
174.08
173.495
172.997
172.576
172.225
172.006
154.4
154.556
154.715
154.643
154.4
154.028
153.583
153.102
152.592
152.137
128.515
130.661
132.456
133.403
133.766
133.732
133.418
132.919
132.268
131.561
104.942
107.385
109.946
111.63
112.547
112.876
112.749
112.289
111.575
110.686
83.8604
85.771
88.1822
90.0628
91.2511
91.8202
91.8647
91.4823
90.7712
89.8088
64.8382
66.0926
67.8882
69.4681
70.5789
71.1764
71.2949
70.9845
70.329
69.4048
47.6748
48.3725
49.4092
50.4006
51.1476
51.5507
51.5951
51.301
50.7162
49.9024
32.3166
32.5592
32.8855
33.1958
33.4247
33.5026
33.3853
33.0628
32.5539
31.8957
18.8286
18.5601
18.2942
18.0657
17.8744
17.6732
17.4149
17.0733
16.6357
16.1161
6.4693
5.23228
4.16988
3.47189
2.99024
2.59629
2.21922
1.81547
1.35044
0.858287
)
;

boundaryField
{
    right
    {
        type            cyclic;
    }
    left
    {
        type            cyclic;
    }
    outerWall
    {
        type            zeroGradient;
    }
    stirrerWall
    {
        type            zeroGradient;
    }
    top
    {
        type            empty;
    }
    bottom
    {
        type            empty;
    }
}


// ************************************************************************* //
