/*--------------------------------*- C++ -*----------------------------------*\
  =========                 |
  \\      /  F ield         | OpenFOAM: The Open Source CFD Toolbox
   \\    /   O peration     | Website:  https://openfoam.org
    \\  /    A nd           | Version:  10
     \\/     M anipulation  |
\*---------------------------------------------------------------------------*/
FoamFile
{
    format      ascii;
    class       surfaceScalarField;
    location    "3200";
    object      phi;
}
// * * * * * * * * * * * * * * * * * * * * * * * * * * * * * * * * * * * * * //

dimensions      [0 3 -1 0 0 0 0];

internalField   nonuniform List<scalar> 
788
(
-1.34373e-06
-5.87052e-06
2.18699e-07
9.41663e-06
1.40786e-06
1.35961e-05
2.34884e-06
1.50032e-05
2.90873e-06
1.4334e-05
2.90457e-06
1.18972e-05
2.39107e-06
7.4837e-06
1.44068e-06
9.32477e-08
5.12677e-07
-1.19064e-05
-2.80265e-05
-1.60912e-07
-3.52973e-07
-5.52133e-06
7.43328e-07
8.2783e-06
2.04067e-06
1.22329e-05
3.21296e-06
1.37722e-05
3.97022e-06
1.35433e-05
4.12634e-06
1.17616e-05
3.80253e-06
7.9001e-06
3.16991e-06
8.54896e-07
2.31874e-06
-1.09453e-05
-2.7016e-05
1.35903e-06
8.43847e-08
-5.62177e-06
1.04176e-06
7.25302e-06
2.33989e-06
1.08551e-05
3.58997e-06
1.24671e-05
4.46329e-06
1.26446e-05
4.80241e-06
1.14383e-05
4.64343e-06
8.12065e-06
4.24384e-06
1.33443e-06
3.41479e-06
-1.00794e-05
-2.59253e-05
2.27966e-06
1.08214e-07
-5.75407e-06
1.00428e-06
6.28e-06
2.3428e-06
9.43006e-06
3.72943e-06
1.10214e-05
4.82542e-06
1.15216e-05
5.44636e-06
1.08274e-05
5.48014e-06
8.12829e-06
5.09102e-06
1.77078e-06
4.13069e-06
-9.10715e-06
-2.46736e-05
2.83221e-06
-3.27625e-08
-5.7498e-06
8.03241e-07
5.3641e-06
2.21778e-06
7.92285e-06
3.80728e-06
9.36089e-06
5.22466e-06
1.00626e-05
6.18556e-06
9.85961e-06
6.4607e-06
7.87547e-06
6.00304e-06
2.25986e-06
4.86368e-06
-7.95371e-06
-2.31454e-05
3.30903e-06
-2.79594e-07
-5.50133e-06
4.95238e-07
4.50497e-06
2.01673e-06
6.30041e-06
3.85566e-06
7.43871e-06
5.65852e-06
8.2077e-06
7.08768e-06
8.41796e-06
7.79201e-06
7.19504e-06
7.4294e-06
2.66986e-06
6.03093e-06
-6.50401e-06
-2.10389e-05
3.9523e-06
-6.4318e-07
-4.89083e-06
9.24646e-08
3.68083e-06
1.74836e-06
4.53653e-06
3.8388e-06
5.25689e-06
6.04885e-06
5.94238e-06
8.04969e-06
6.40897e-06
9.37446e-06
5.90969e-06
9.34122e-06
2.78949e-06
7.48583e-06
-4.52757e-06
-1.78816e-05
4.44985e-06
-1.16822e-06
-3.75519e-06
-3.7094e-07
2.79463e-06
1.40688e-06
2.64606e-06
3.61862e-06
2.94698e-06
6.09411e-06
3.40885e-06
8.61511e-06
3.88374e-06
1.06318e-05
3.94794e-06
1.10735e-05
2.47521e-06
8.60438e-06
-1.85727e-06
-1.30395e-05
3.98794e-06
-1.89805e-06
-1.88807e-06
-6.90039e-07
1.50688e-06
1.01569e-06
8.37864e-07
2.94704e-06
9.20795e-07
5.19608e-06
1.10085e-06
7.76462e-06
1.31224e-06
1.02939e-05
1.48184e-06
1.15966e-05
1.3172e-06
9.57362e-06
4.08555e-07
-5.87942e-06
2.70992e-06
-1.91075e-06
-4.52389e-07
3.37925e-07
1.22797e-06
2.32375e-06
3.65766e-06
5.19459e-06
6.61525e-06
7.18615e-06
1.48015e-06
-5.11909e-07
-4.811e-05
-4.96422e-07
-7.93947e-05
-1.94024e-07
-0.000121033
9.00717e-08
-0.000173698
1.33426e-07
-0.000239056
1.27731e-07
-0.000318039
1.24093e-07
-0.000412439
1.11955e-05
-0.000594932
9.45334e-06
-0.00066049
-0.000805413
5.54678e-07
-4.73372e-05
1.4359e-07
-7.90903e-05
7.90714e-08
-0.000121103
4.11524e-08
-0.000173745
1.54636e-07
-0.000239101
2.54702e-07
-0.000317985
-1.67662e-06
-0.0004108
4.36361e-06
-0.000600997
2.81375e-08
-0.00065564
-0.000805161
1.28188e-06
-4.64694e-05
8.14874e-07
-7.88143e-05
7.54781e-07
-0.000121225
7.47822e-07
-0.000173785
9.79224e-07
-0.000239102
9.63046e-07
-0.000317897
-2.46537e-06
-0.000407983
2.1096e-06
-0.00060474
-1.41934e-06
-0.000652367
-0.000806558
1.77962e-06
-4.55275e-05
1.4393e-06
-7.86336e-05
1.45565e-06
-0.000121388
1.46447e-06
-0.000173797
1.69413e-06
-0.000239111
1.70028e-06
-0.000317947
-2.22214e-06
-0.000404506
5.48399e-07
-0.000607316
-9.48513e-07
-0.000651045
-0.000807443
2.21959e-06
-4.45195e-05
2.08584e-06
-7.86277e-05
2.17004e-06
-0.000121575
2.16489e-06
-0.000173715
2.33307e-06
-0.000239023
2.33768e-06
-0.000318069
-1.52426e-06
-0.000400696
-7.18963e-07
-0.000608119
-2.06913e-06
-0.000649733
-0.000809405
2.78762e-06
-4.3383e-05
2.88398e-06
-7.88152e-05
2.9673e-06
-0.000121739
2.8879e-06
-0.000173517
2.97113e-06
-0.000238798
3.02692e-06
-0.000318194
-6.64061e-07
-0.000396846
-1.22486e-06
-0.000607547
-2.53368e-06
-0.000648403
-0.000811818
3.45403e-06
-4.23218e-05
3.8033e-06
-7.91945e-05
3.80417e-06
-0.000121807
3.60124e-06
-0.000173223
3.58855e-06
-0.000238511
3.81417e-06
-0.000318458
3.27382e-07
-0.000393159
-1.6858e-06
-0.000605531
-2.67364e-06
-0.000647381
-0.000814376
3.87902e-06
-4.20454e-05
4.58205e-06
-7.98694e-05
4.51608e-06
-0.000121803
4.16089e-06
-0.000172825
3.91055e-06
-0.000238063
3.95187e-06
-0.000318548
9.15855e-07
-0.000389966
-3.15378e-06
-0.000601491
-2.84855e-06
-0.000647618
-0.000817177
4.2628e-06
-4.33529e-05
5.53396e-06
-8.09894e-05
5.22348e-06
-0.000121489
4.58156e-06
-0.000172148
4.01103e-06
-0.000237346
3.85224e-06
-0.000318448
2.23188e-06
-0.000388254
-4.9174e-06
-0.000594422
-2.7649e-06
-0.000649548
-0.000820092
7.33128e-06
-4.90641e-05
7.34013e-06
-8.0758e-05
6.01485e-06
-0.000120066
4.89026e-06
-0.000170984
3.64931e-06
-0.00023605
3.84772e-06
-0.00031868
5.82172e-06
-0.000389991
-5.84648e-06
-0.000583019
-1.18513e-06
-0.000653703
-0.00082165
3.11323e-06
-5.20109e-05
3.01705e-06
-8.05144e-05
1.97477e-06
-0.00011896
1.12857e-06
-0.000170099
6.78277e-07
-0.000235516
-4.19901e-07
-0.000317661
3.93927e-07
-0.000390626
3.43376e-06
-0.000586287
-3.02344e-06
-0.000646743
-0.000824654
4.0379e-06
-5.59633e-05
4.9066e-06
-8.12578e-05
4.25789e-06
-0.000118298
3.6595e-06
-0.000169439
3.46026e-06
-0.000235155
2.39852e-06
-0.000316704
7.62177e-07
-0.00038881
3.23088e-06
-0.000589037
-1.58263e-06
-0.000641768
-0.000826147
6.65049e-06
-4.87353e-05
-1.37701e-05
5.17771e-06
-7.94367e-05
4.08534e-06
-0.000117195
2.92352e-06
-0.000168219
1.75992e-06
-0.000233846
1.75512e-06
-0.000316788
-1.33473e-06
-0.000385468
-1.15037e-05
-0.00057899
2.33477e-07
-0.000653381
-0.000825938
3.40815e-06
-4.7823e-05
-4.01657e-06
2.24906e-06
-7.80091e-05
1.60543e-06
-0.000116548
1.01435e-06
-0.000167598
3.41906e-07
-0.000232986
3.55918e-07
-0.000316802
1.77402e-06
-0.000386795
-6.9272e-06
-0.000570086
-7.97922e-06
-0.000652213
-0.000833864
-1.48325e-06
-4.86733e-05
2.51158e-06
-1.337e-06
-7.7967e-05
-1.3913e-06
-0.000116497
-1.47074e-06
-0.000167509
-1.84723e-06
-0.000232477
-2.34424e-06
-0.00031627
-4.39881e-07
-0.000388615
-7.46774e-06
-0.00056311
-1.14808e-05
-0.00064809
-0.000845286
-4.64798e-06
-4.93021e-05
5.40642e-06
-4.10513e-06
-7.83227e-05
-3.74233e-06
-0.000116889
-3.39404e-06
-0.000167856
-3.36338e-06
-0.000232388
-3.85134e-06
-0.000315794
-1.60422e-06
-0.000390711
-8.11249e-06
-0.000556637
-1.31106e-05
-0.000643065
-0.000858367
-6.7258e-06
-4.95631e-05
7.13258e-06
-6.22915e-06
-7.86488e-05
-5.68244e-06
-0.000117472
-5.04688e-06
-0.000168485
-4.62728e-06
-0.000232695
-5.02353e-06
-0.000315457
-2.20193e-06
-0.00039344
-7.71867e-06
-0.000551166
-1.327e-05
-0.000637566
-0.000871607
-8.01834e-06
-4.9589e-05
8.17616e-06
-7.69434e-06
-7.88392e-05
-7.08889e-06
-0.000118107
-6.25861e-06
-0.000169315
-5.45679e-06
-0.000233436
-5.70682e-06
-0.000315336
-2.11513e-06
-0.000396998
-5.41007e-06
-0.000547928
-1.08863e-05
-0.000632141
-0.00088245
-8.4785e-06
-4.94117e-05
8.40049e-06
-8.40188e-06
-7.87952e-05
-7.92388e-06
-0.000118601
-7.10826e-06
-0.000170148
-5.92864e-06
-0.000234631
-5.62053e-06
-0.000315848
-1.11682e-06
-0.000401461
-1.22388e-06
-0.000547802
-5.36468e-06
-0.000627968
-0.000887747
-8.1553e-06
-4.89692e-05
7.79753e-06
-8.30711e-06
-7.85328e-05
-8.0772e-06
-0.000118867
-7.45207e-06
-0.000170845
-6.00961e-06
-0.00023619
-4.92887e-06
-0.000317181
3.11469e-07
-0.000406544
6.24227e-06
-0.000553546
1.18329e-05
-0.000633382
-0.000875673
-6.92077e-06
-4.84841e-05
6.51318e-06
-6.95638e-06
-7.84431e-05
-6.80168e-06
-0.000119141
-6.21709e-06
-0.000171634
-4.63898e-06
-0.000238051
-2.48572e-06
-0.000319662
2.76505e-06
-0.000411421
1.7966e-05
-0.000568217
4.29289e-05
-0.000658938
-0.000833646
-2.95318e-06
2.95158e-06
-2.42567e-06
-1.70226e-06
-9.17665e-07
-5.86866e-07
-1.77176e-06
6.52498e-07
1.58471e-05
1.84205e-05
-1.99533e-05
6.44217e-06
-2.75141e-05
3.88685e-06
-3.08844e-05
6.17516e-06
-3.23438e-05
7.09194e-06
-3.27136e-05
7.6936e-06
-3.2435e-05
8.06693e-06
-3.17336e-05
7.85131e-06
-3.07212e-05
6.90139e-06
-2.96465e-05
5.45909e-06
2.23605e-06
-5.37307e-06
1.19076e-05
-1.19108e-05
1.05956e-05
-1.59342e-05
1.02779e-05
-1.79573e-05
9.17271e-06
-1.8571e-05
8.38918e-06
-1.82738e-05
7.87237e-06
-1.73806e-05
7.06512e-06
-1.60751e-05
5.6995e-06
-1.45e-05
3.96386e-06
1.12109e-06
1.01785e-06
1.09462e-05
-1.56881e-06
1.32264e-05
-4.23698e-06
1.29346e-05
-6.0154e-06
1.09676e-05
-6.66928e-06
9.09155e-06
-6.37744e-06
7.64274e-06
-5.48095e-06
6.23537e-06
-4.22175e-06
4.51298e-06
-2.63956e-06
2.45831e-06
-8.12409e-08
2.83434e-06
8.12988e-06
3.65648e-06
1.23824e-05
3.39753e-06
1.31343e-05
2.86573e-06
1.14699e-05
2.61336e-06
9.33606e-06
2.90084e-06
7.35557e-06
3.66743e-06
5.4785e-06
4.68782e-06
3.52231e-06
5.80585e-06
1.39613e-06
-8.64666e-07
2.76575e-06
5.36172e-06
5.33855e-06
9.7481e-06
7.17157e-06
1.12008e-05
8.14527e-06
1.04238e-05
8.74587e-06
8.6782e-06
9.34755e-06
6.70392e-06
1.00773e-05
4.71155e-06
1.08358e-05
2.75612e-06
1.14838e-05
7.70443e-07
-1.21135e-06
2.30241e-06
3.04602e-06
5.39215e-06
6.56906e-06
8.42369e-06
8.0401e-06
1.07691e-05
7.97963e-06
1.23943e-05
6.96687e-06
1.35305e-05
5.4882e-06
1.43653e-05
3.80783e-06
1.49478e-05
2.12994e-06
1.52055e-05
4.94944e-07
-1.06272e-06
1.7769e-06
1.25018e-06
4.80793e-06
3.43624e-06
8.16837e-06
4.54102e-06
1.11654e-05
4.87588e-06
1.34922e-05
4.54449e-06
1.51479e-05
3.74252e-06
1.6208e-05
2.66618e-06
1.67475e-05
1.52543e-06
1.67668e-05
4.28894e-07
-5.6818e-07
1.40243e-06
-1.71986e-07
4.1478e-06
5.91466e-07
7.21942e-06
1.3378e-06
1.008e-05
1.91059e-06
1.24247e-05
2.10404e-06
1.41703e-05
1.90699e-06
1.5311e-05
1.44372e-06
1.58763e-05
8.88231e-07
1.58304e-05
4.06332e-07
3.08778e-09
8.21151e-07
-1.00903e-06
2.72052e-06
-1.39323e-06
4.88125e-06
-9.22033e-07
6.9746e-06
-2.64176e-07
8.80835e-06
1.95825e-07
1.02583e-05
3.86545e-07
1.12678e-05
3.69524e-07
1.18405e-05
2.57794e-07
1.19663e-05
2.2467e-07
4.55802e-07
-1.02037e-06
-2.4579e-06
-3.41396e-06
-3.70815e-06
-3.541e-06
-3.1829e-06
-2.84104e-06
-2.61214e-06
-2.42491e-06
)
;

boundaryField
{
    right
    {
        type            cyclic;
        value           nonuniform List<scalar> 
20
(
0.000813778
0.000661663
0.000584769
0.000413151
0.000318097
0.000238384
0.000172605
0.0001201
7.90573e-05
4.83957e-05
2.88534e-05
1.30705e-05
1.12573e-06
-6.74957e-06
-1.18067e-05
-1.49404e-05
-1.61176e-05
-1.50476e-05
-1.13365e-05
2.07781e-06
)
;
    }
    left
    {
        type            cyclic;
        value           nonuniform List<scalar> 
20
(
-0.000813778
-0.000661663
-0.000584769
-0.000413151
-0.000318097
-0.000238384
-0.000172605
-0.0001201
-7.90573e-05
-4.83957e-05
-2.88534e-05
-1.30705e-05
-1.12573e-06
6.74957e-06
1.18067e-05
1.49404e-05
1.61176e-05
1.50476e-05
1.13365e-05
-2.07781e-06
)
;
    }
    outerWall
    {
        type            calculated;
        value           uniform 0;
    }
    stirrerWall
    {
        type            calculated;
        value           uniform 0;
    }
    top
    {
        type            empty;
        value           nonuniform List<scalar> 0();
    }
    bottom
    {
        type            empty;
        value           nonuniform List<scalar> 0();
    }
}


// ************************************************************************* //
