/*--------------------------------*- C++ -*----------------------------------*\
  =========                 |
  \\      /  F ield         | OpenFOAM: The Open Source CFD Toolbox
   \\    /   O peration     | Website:  https://openfoam.org
    \\  /    A nd           | Version:  10
     \\/     M anipulation  |
\*---------------------------------------------------------------------------*/
FoamFile
{
    format      ascii;
    class       volVectorField;
    location    "3200";
    object      U;
}
// * * * * * * * * * * * * * * * * * * * * * * * * * * * * * * * * * * * * * //

dimensions      [0 1 -1 0 0 0 0];

internalField   nonuniform List<vector> 
420
(
(0.353289 8.70668 6.80843e-18)
(-0.683891 11.1385 -5.43237e-17)
(-0.336384 12.717 -2.60722e-16)
(-0.287332 14.0684 7.29131e-17)
(-0.280633 15.2409 -4.96318e-16)
(-0.321814 16.2572 0)
(-0.387431 17.1204 0)
(-0.459098 17.7423 5.03569e-16)
(-0.549857 18.003 -5.36139e-16)
(-0.6404 17.9195 0)
(-0.247379 8.56409 2.64771e-17)
(-1.35229 10.9213 -1.31701e-16)
(-1.20013 12.535 7.87797e-16)
(-1.23175 13.9117 -1.10879e-15)
(-1.30599 15.1275 3.59461e-16)
(-1.42299 16.2071 9.33437e-18)
(-1.54866 17.121 3.07029e-15)
(-1.64211 17.7686 -7.80581e-16)
(-1.74541 18.0152 1.21184e-15)
(-1.8578 17.9086 0)
(-0.845137 8.53567 7.35407e-17)
(-2.08533 10.7104 -6.09422e-16)
(-2.07639 12.3173 7.53998e-16)
(-2.21007 13.7066 1.25107e-15)
(-2.3733 14.9536 -8.40067e-16)
(-2.5675 16.0729 3.94653e-15)
(-2.75314 17.0091 1.76875e-15)
(-2.88102 17.6622 5.18735e-15)
(-2.99745 17.9199 -1.92892e-15)
(-3.12306 17.8195 -4.05317e-15)
(-1.46213 8.44128 -1.90419e-17)
(-2.8564 10.4443 5.39713e-16)
(-2.96236 12.0135 -9.57194e-16)
(-3.18808 13.3951 8.37937e-16)
(-3.43079 14.6626 -1.65289e-15)
(-3.69464 15.8086 1.71569e-15)
(-3.94211 16.7782 -9.96142e-15)
(-4.1231 17.4518 0)
(-4.26953 17.7405 -4.63712e-15)
(-4.4124 17.6479 4.00069e-15)
(-2.08187 8.30575 0)
(-3.62578 10.1215 3.76737e-16)
(-3.83069 11.6359 -3.67549e-16)
(-4.13771 12.9958 0)
(-4.45136 14.2711 -2.70523e-16)
(-4.78364 15.4451 -3.0799e-16)
(-5.09892 16.4573 3.32488e-15)
(-5.34444 17.168 -4.48663e-15)
(-5.53519 17.4886 0)
(-5.6991 17.3975 -1.69943e-14)
(-2.7019 8.13494 2.94287e-18)
(-4.37883 9.74021 0)
(-4.66723 11.1844 0)
(-5.04389 12.5098 1.443e-15)
(-5.42378 13.7835 -2.2406e-15)
(-5.8215 14.9837 2.542e-15)
(-6.20226 16.0453 6.49728e-16)
(-6.51445 16.8179 9.63342e-15)
(-6.76161 17.1799 -1.37039e-14)
(-6.95999 17.0917 8.50106e-15)
(-3.32773 7.93418 0)
(-5.10917 9.29931 -3.69096e-16)
(-5.46165 10.6583 -2.2079e-15)
(-5.89617 11.9365 -8.81233e-16)
(-6.33766 13.1942 -3.92006e-15)
(-6.79521 14.4102 2.51055e-15)
(-7.24141 15.5209 -6.12109e-15)
(-7.62857 16.3814 7.63365e-16)
(-7.958 16.8259 -4.01349e-15)
(-8.22414 16.771 -1.30141e-14)
(-3.97788 7.70523 -1.47945e-18)
(-5.80543 8.79726 3.66447e-16)
(-6.20232 10.0614 2.89602e-15)
(-6.69054 11.2792 5.42707e-16)
(-7.19576 12.4965 2.3246e-15)
(-7.71304 13.7014 0)
(-8.22378 14.8446 6.06354e-15)
(-8.70732 15.7981 7.4401e-15)
(-9.17195 16.42 9.95136e-15)
(-9.578 16.4468 9.43278e-15)
(-4.68359 7.43543 8.88276e-19)
(-6.44406 8.25954 3.69411e-16)
(-6.89419 9.43972 -3.94416e-16)
(-7.46587 10.5903 -1.84847e-15)
(-8.06662 11.7392 5.90899e-15)
(-8.67168 12.8941 7.98269e-15)
(-9.27188 14.0431 -2.7517e-15)
(-9.87366 15.1081 0)
(-10.4941 15.9615 0)
(-11.0485 16.1103 -9.60407e-15)
(-5.5063 7.04671 -3.04789e-17)
(-6.90611 7.74873 7.21175e-16)
(-7.48875 8.76268 0)
(-8.19817 9.77201 0)
(-8.92174 10.7671 -3.36674e-15)
(-9.62898 11.755 -2.45922e-17)
(-10.3132 12.731 5.80554e-15)
(-10.9771 13.688 -1.23556e-14)
(-11.6676 14.5917 1.44968e-14)
(-12.4075 15.0798 1.23629e-15)
(-0.693632 17.5607 0)
(-0.681296 16.9721 0)
(-0.644907 16.2403 0)
(-0.580028 15.465 -8.44089e-16)
(-0.50279 14.7053 0)
(-0.283598 14.0581 0)
(-1.35335 13.5227 8.7925e-16)
(0.175293 10.6532 0)
(2.83206 13.315 0)
(-7.17289 13.1971 0)
(-1.92373 17.5168 1.58842e-15)
(-1.89133 16.8902 2.67079e-15)
(-1.81908 16.1335 1.45731e-16)
(-1.72559 15.3685 9.4948e-16)
(-1.60198 14.6283 7.19239e-17)
(-1.27771 14.0247 1.14234e-15)
(-2.43186 13.4511 3.39584e-18)
(-0.84121 10.3263 1.17497e-16)
(1.66627 13.4771 -2.60254e-15)
(-8.43161 12.8708 -6.60604e-16)
(-3.18419 17.4049 1.4707e-15)
(-3.10465 16.7368 0)
(-2.9719 15.9567 -2.1681e-15)
(-2.82716 15.1994 -1.85678e-15)
(-2.65172 14.4684 5.46763e-15)
(-2.23853 13.9066 -1.12679e-15)
(-3.45087 13.3178 1.75834e-15)
(-1.72102 9.98228 0)
(0.648839 13.7264 3.00927e-15)
(-9.26989 12.1711 -4.5276e-17)
(-4.46 17.2026 3.33847e-15)
(-4.31122 16.4876 8.15047e-15)
(-4.10641 15.6936 -8.45503e-15)
(-3.91351 14.9552 3.32133e-15)
(-3.69691 14.2381 6.20278e-18)
(-3.18977 13.7249 0)
(-4.43983 13.1766 -1.75899e-15)
(-2.5547 9.6694 -2.73213e-15)
(-0.30114 13.8342 -3.0343e-15)
(-10.0916 11.4243 3.19675e-15)
(-5.73149 16.9057 3.06581e-15)
(-5.49418 16.1405 -2.67996e-15)
(-5.21498 15.3485 8.69678e-15)
(-4.98052 14.6369 -3.44496e-15)
(-4.72936 13.9314 2.88514e-15)
(-4.13137 13.4692 -4.49186e-15)
(-5.41646 12.9843 3.60267e-15)
(-3.34366 9.35953 2.74412e-15)
(-1.24834 13.8597 0)
(-11.0616 10.5725 -6.41706e-15)
(-6.985 16.5197 3.78499e-15)
(-6.6345 15.6992 -1.62279e-14)
(-6.2871 14.9287 -4.61619e-15)
(-6.02174 14.2492 1.05884e-14)
(-5.74091 13.5536 8.87609e-15)
(-5.05863 13.1422 1.54104e-16)
(-6.36842 12.7344 3.49645e-17)
(-4.11582 9.05423 -2.99212e-15)
(-2.20345 13.8054 -3.07398e-15)
(-11.8512 9.62703 6.98013e-15)
(-8.23783 16.054 3.86978e-15)
(-7.72868 15.1662 5.71011e-15)
(-7.31811 14.44 0)
(-7.03373 13.7939 -3.50721e-15)
(-6.72613 13.1079 -5.54983e-15)
(-5.97039 12.7414 1.8006e-16)
(-7.27886 12.4176 -1.11892e-14)
(-4.87701 8.70809 -2.73337e-15)
(-3.18117 13.6604 6.21452e-15)
(-12.4728 8.65157 -3.60946e-15)
(-9.48922 15.4618 1.44311e-14)
(-8.78839 14.5248 -5.12928e-15)
(-8.30789 13.8788 0)
(-8.01453 13.2675 -1.95553e-16)
(-7.68784 12.5907 2.27545e-14)
(-6.87782 12.2702 -9.33125e-15)
(-8.20729 12.0122 -7.69238e-15)
(-5.64003 8.36455 5.49867e-15)
(-4.2101 13.4147 -6.89109e-15)
(-12.9814 7.65768 0)
(-10.579 14.6818 3.50178e-16)
(-9.79484 13.779 -5.00151e-15)
(-9.26737 13.2625 0)
(-8.96119 12.6804 7.12317e-15)
(-8.62084 12.0045 -1.67997e-14)
(-7.77486 11.7144 9.4708e-15)
(-9.09159 11.5415 3.8514e-15)
(-6.42458 8.10234 0)
(-5.22247 12.999 -1.34608e-16)
(-13.3975 6.65489 3.61531e-15)
(-11.0183 13.8786 4.59508e-16)
(-10.751 13.0002 1.34148e-17)
(-10.2331 12.6224 0)
(-9.88867 12.0513 -1.38082e-14)
(-9.52781 11.3755 5.22544e-15)
(-8.66545 11.0485 -4.91117e-15)
(-9.79072 10.9182 3.83988e-15)
(-7.2072 7.97817 6.93741e-16)
(-6.09653 12.3772 6.77044e-16)
(-13.7629 5.70656 -3.67017e-15)
(-10.8053 13.6865 3.03417e-15)
(-11.4427 12.4085 -5.36478e-15)
(-11.0514 12.0519 0)
(-10.6538 11.4892 0)
(-10.2318 10.8398 0)
(-9.39347 10.5243 -2.44215e-15)
(-10.3877 10.2442 9.84019e-15)
(-7.7651 7.69898 0)
(-6.89695 12.2613 0)
(-13.7576 4.88156 0)
(-11.4902 12.8095 -2.886e-15)
(-11.9874 11.9514 -5.29668e-15)
(-11.6647 11.5901 0)
(-11.2251 11.0301 3.59493e-15)
(-10.7546 10.3837 -2.75724e-15)
(-9.8904 10.1244 2.43929e-15)
(-10.8335 9.83607 3.99835e-15)
(-8.21966 7.06669 -1.80188e-16)
(-7.4479 12.0373 1.64428e-15)
(-13.9407 4.36554 0)
(-12.7675 11.6434 1.88179e-16)
(-12.6068 11.2532 -5.57371e-18)
(-12.366 10.8611 0)
(-11.9098 10.3292 2.05852e-16)
(-11.401 9.68922 5.97475e-15)
(-10.5212 9.46031 -4.44421e-15)
(-11.4282 9.38287 -1.18316e-14)
(-8.82431 6.22337 -6.20832e-15)
(-8.22093 11.312 1.37091e-14)
(-14.2721 3.53622 3.6084e-15)
(-14.1102 10.4818 -1.27913e-14)
(-13.6625 10.2264 4.98021e-15)
(-13.2837 9.83794 0)
(-12.7545 9.36615 -7.0947e-15)
(-12.1803 8.79672 -5.80759e-15)
(-11.2734 8.52431 9.41168e-15)
(-12.0435 8.59582 4.00412e-15)
(-9.54511 6.15429 0)
(-9.09677 10.2648 -6.84138e-15)
(-14.2475 2.37333 1.97753e-16)
(-15.0097 9.12365 -2.85472e-16)
(-14.5438 8.98111 5.04132e-15)
(-14.0931 8.67116 0)
(-13.5039 8.28486 1.4093e-14)
(-12.8877 7.80079 -3.22126e-19)
(-11.9735 7.53877 -1.66357e-16)
(-12.606 7.56494 8.12571e-15)
(-10.1847 5.61586 -5.62643e-15)
(-10.0917 9.35092 -7.05084e-15)
(-14.0339 1.25182 0)
(-15.6851 7.80505 -3.1717e-15)
(-15.2433 7.70463 1.04668e-14)
(-14.7549 7.46017 8.8486e-15)
(-14.1234 7.1582 -1.01465e-14)
(-13.4779 6.76625 -1.70371e-14)
(-12.573 6.54118 -2.57617e-16)
(-13.076 6.53759 -4.0991e-15)
(-10.763 5.06933 -2.84891e-15)
(-11.0546 8.36578 -6.3424e-15)
(-13.6347 0.172928 -3.07123e-15)
(-16.2356 6.50693 -9.61442e-15)
(-15.8048 6.41674 5.2065e-15)
(-15.285 6.21978 -3.96988e-15)
(-14.6245 5.9929 -1.04529e-14)
(-13.9606 5.69215 8.12249e-15)
(-13.0805 5.51377 -2.40533e-16)
(-13.4441 5.4812 7.8334e-15)
(-11.2819 4.48634 3.05778e-15)
(-11.9066 7.35914 2.91758e-15)
(-13.1059 -0.85316 -1.9759e-16)
(-16.6865 5.22347 2.7397e-15)
(-16.2519 5.13272 -2.56148e-15)
(-15.6939 4.97446 -1.28166e-16)
(-15.0096 4.8119 1.03528e-14)
(-14.3313 4.59926 -1.40913e-14)
(-13.4902 4.47542 4.45793e-15)
(-13.7001 4.41148 -3.97244e-15)
(-11.729 3.84326 8.45624e-15)
(-12.6454 6.45184 0)
(-12.5446 -1.76233 5.92793e-17)
(-17.0399 3.96272 2.96166e-15)
(-16.595 3.86965 2.50208e-15)
(-15.9955 3.74199 4.26786e-15)
(-15.2875 3.62902 -6.73737e-15)
(-14.5871 3.48975 2.69022e-15)
(-13.7864 3.44124 0)
(-13.8004 3.33133 -1.90322e-15)
(-11.9934 3.11694 -5.76072e-15)
(-13.2632 5.66702 -7.89239e-17)
(-12.1187 -2.44135 2.9529e-15)
(-17.3034 2.72389 1.32145e-15)
(-16.8471 2.6384 0)
(-16.2015 2.53784 2.08978e-15)
(-15.4671 2.46342 1.79933e-15)
(-14.7254 2.38633 7.79785e-17)
(-13.9526 2.40835 -1.10535e-15)
(-13.8 2.26656 1.87335e-15)
(-12.0204 2.3163 0)
(-13.5485 5.16394 2.98101e-15)
(-12.0131 -2.55374 2.67059e-15)
(-17.492 1.51074 1.46263e-15)
(-17.0159 1.46318 -2.53479e-15)
(-16.3411 1.40852 -1.42326e-16)
(-15.5837 1.37115 7.20297e-16)
(-14.7769 1.38291 -6.35086e-17)
(-13.9805 1.40596 1.05841e-15)
(-13.6949 1.2066 -1.82554e-15)
(-12.013 1.85711 -6.24134e-17)
(-13.3773 5.15198 2.42299e-15)
(-11.1345 -3.51179 -1.99878e-15)
(-17.577 0.443818 2.12704e-29)
(-17.0339 0.451863 0)
(-16.3275 0.469848 0)
(-15.5484 0.498593 -8.24224e-16)
(-14.7347 0.556794 0)
(-14.0326 0.629238 0)
(-13.5924 -0.341102 8.90941e-16)
(-10.935 1.29815 0)
(-12.6308 4.22379 0)
(-14.7568 -7.17155 -8.46443e-30)
(-14.1303 12.4086 8.86662e-16)
(-14.6855 10.8403 -7.89222e-15)
(-15.268 9.18467 7.77647e-15)
(-15.8279 7.81965 -1.0567e-14)
(-16.335 6.51786 6.82405e-15)
(-16.7949 5.23904 -1.35639e-14)
(-17.1852 3.98726 3.24448e-15)
(-17.4947 2.7678 -3.39567e-15)
(-17.7214 1.56824 0)
(-17.8742 0.491622 -3.97699e-16)
(-14.6439 11.7319 1.62237e-14)
(-15.1218 10.4721 0)
(-15.4277 8.93155 8.53801e-15)
(-15.8605 7.65463 -3.3136e-15)
(-16.2984 6.41569 -1.05066e-14)
(-16.7278 5.18756 0)
(-17.1164 3.98265 -3.49652e-15)
(-17.4411 2.80499 -1.52937e-15)
(-17.691 1.63583 1.02343e-15)
(-17.9 0.56711 -4.41768e-16)
(-14.2723 10.9046 -1.35403e-14)
(-15.0418 9.82018 0)
(-15.336 8.47931 7.90367e-15)
(-15.7108 7.35075 5.51732e-16)
(-16.0905 6.22358 8.46459e-15)
(-16.4831 5.07985 -3.75975e-15)
(-16.8533 3.94339 0)
(-17.1732 2.82355 4.06458e-15)
(-17.4158 1.70799 -6.88753e-16)
(-17.6193 0.640632 5.60028e-16)
(-13.2596 10.1571 6.11091e-15)
(-14.4013 9.11323 -2.88999e-15)
(-14.8779 7.92347 6.53656e-15)
(-15.3005 6.93799 -7.02201e-15)
(-15.6727 5.945 6.7438e-16)
(-16.0299 4.91511 3.84203e-15)
(-16.3692 3.86129 -1.1334e-14)
(-16.668 2.80634 1.99953e-15)
(-16.895 1.75026 3.41113e-15)
(-17.0412 0.693111 9.40476e-17)
(-12.1107 9.46475 -9.03718e-15)
(-13.347 8.45175 8.22344e-15)
(-14.0481 7.37602 0)
(-14.587 6.46828 2.57916e-15)
(-15.0033 5.56897 2.68558e-15)
(-15.3587 4.64212 -3.00463e-16)
(-15.6712 3.68911 1.91823e-15)
(-15.9411 2.71415 4.45742e-15)
(-16.1405 1.72369 -2.98172e-18)
(-16.2387 0.717007 4.02864e-16)
(-10.9894 8.78639 -3.55333e-15)
(-12.1495 7.83516 6.26453e-15)
(-12.9406 6.87702 2.3034e-15)
(-13.5957 6.03646 -3.94962e-15)
(-14.0935 5.20956 -2.2474e-15)
(-14.4849 4.36395 -2.68755e-16)
(-14.7972 3.48979 -3.85028e-15)
(-15.0456 2.58314 1.19395e-15)
(-15.216 1.65169 3.88242e-16)
(-15.276 0.700419 -4.06166e-16)
(-9.90186 8.10589 0)
(-10.8972 7.26047 -2.00487e-15)
(-11.6887 6.43344 5.15229e-16)
(-12.3817 5.6603 -8.75189e-16)
(-12.9404 4.88591 1.46812e-15)
(-13.3791 4.09215 0)
(-13.7136 3.27373 8.55118e-16)
(-13.9564 2.42242 1.29089e-15)
(-14.1065 1.54117 -1.1797e-15)
(-14.1408 0.63791 -3.17646e-17)
(-8.83313 7.41525 0)
(-9.64839 6.72238 -5.00625e-16)
(-10.3765 6.02646 3.25331e-15)
(-11.0431 5.31933 -2.40571e-15)
(-11.6056 4.58756 0)
(-12.0535 3.83183 -3.89999e-16)
(-12.3946 3.0537 -9.74739e-16)
(-12.639 2.24615 7.97406e-16)
(-12.7813 1.40509 8.20119e-16)
(-12.8067 0.536421 -3.1349e-16)
(-7.76753 6.66696 -9.35013e-16)
(-8.40343 6.13658 4.90339e-16)
(-9.03259 5.50988 4.6783e-16)
(-9.62421 4.82842 -4.45558e-16)
(-10.1328 4.11916 0)
(-10.5426 3.39624 4.09197e-16)
(-10.8574 2.65777 5.66009e-16)
(-11.0843 1.89608 -6.47161e-16)
(-11.2121 1.09299 -1.34731e-16)
(-11.2451 0.258934 9.15658e-18)
(-6.3635 6.25041 -2.80299e-16)
(-6.55205 6.01023 9.15905e-17)
(-6.91948 5.46388 7.51581e-17)
(-7.30248 4.83779 0)
(-7.66657 4.21548 -2.82518e-17)
(-7.99568 3.60378 0)
(-8.27568 2.99563 -1.01638e-16)
(-8.50087 2.38112 1.47938e-16)
(-8.66013 1.74848 3.21571e-17)
(-8.80602 1.07412 -8.75291e-18)
)
;

boundaryField
{
    right
    {
        type            cyclic;
    }
    left
    {
        type            cyclic;
    }
    outerWall
    {
        type            calculated;
        value           nonuniform List<vector> 
22
(
(-1.55201 41.8305 0)
(-4.64749 41.6006 0)
(-7.71741 41.1419 0)
(-10.7449 40.4569 0)
(-13.7132 39.5492 0)
(-16.6061 38.424 0)
(-19.4075 37.0874 0)
(-22.1022 35.5467 0)
(-24.6752 33.8104 0)
(-27.1124 31.8882 0)
(-28.9573 30.2506 0)
(-30.2506 28.9573 0)
(-31.8882 27.1124 0)
(-33.8104 24.6752 0)
(-35.5467 22.1022 0)
(-37.0874 19.4075 0)
(-38.424 16.6061 0)
(-39.5492 13.7132 0)
(-40.4569 10.7449 0)
(-41.1419 7.71741 0)
(-41.6006 4.64749 0)
(-41.8305 1.55201 0)
)
;
    }
    stirrerWall
    {
        type            calculated;
        value           nonuniform List<vector> 
42
(
(-0.310178 8.3662 0)
(-0.928834 8.32046 0)
(-1.54239 8.22894 0)
(-2.14746 8.09214 0)
(-2.74072 7.91082 0)
(-3.31888 7.68598 0)
(-3.87877 7.41885 0)
(-4.41729 7.11092 0)
(-4.93148 6.76387 0)
(-5.4185 6.37963 0)
(-6.07951 6.64185 0)
(-6.92878 7.56862 0)
(-7.77806 8.49539 0)
(-8.62734 9.42216 0)
(-9.47661 10.3489 0)
(-10.3259 11.2757 0)
(-11.1752 12.2025 0)
(-12.0244 13.1292 0)
(-12.8737 14.056 0)
(-13.723 14.9828 0)
(-14.4723 15.1215 0)
(-15.1215 14.4723 0)
(-14.9828 13.723 0)
(-14.056 12.8737 0)
(-13.1292 12.0244 0)
(-12.2025 11.1752 0)
(-11.2757 10.3259 0)
(-10.3489 9.47661 0)
(-9.42216 8.62734 0)
(-8.49539 7.77806 0)
(-7.56862 6.92878 0)
(-6.64185 6.07951 0)
(-6.37963 5.4185 0)
(-6.76387 4.93148 0)
(-7.11092 4.41729 0)
(-7.41885 3.87877 0)
(-7.68598 3.31888 0)
(-7.91082 2.74072 0)
(-8.09214 2.14746 0)
(-8.22894 1.54239 0)
(-8.32046 0.928834 0)
(-8.3662 0.310178 0)
)
;
    }
    top
    {
        type            empty;
    }
    bottom
    {
        type            empty;
    }
}


// ************************************************************************* //
