/*--------------------------------*- C++ -*----------------------------------*\
  =========                 |
  \\      /  F ield         | OpenFOAM: The Open Source CFD Toolbox
   \\    /   O peration     | Website:  https://openfoam.org
    \\  /    A nd           | Version:  10
     \\/     M anipulation  |
\*---------------------------------------------------------------------------*/
FoamFile
{
    format      ascii;
    class       volVectorField;
    location    "3200";
    object      Urel;
}
// * * * * * * * * * * * * * * * * * * * * * * * * * * * * * * * * * * * * * //

dimensions      [0 1 -1 0 0 0 0];

internalField   nonuniform List<vector> 
420
(
(0.687289 -0.301573 6.80843e-18)
(-0.30339 0.877168 -5.43237e-17)
(0.0906315 1.20217 -2.60722e-16)
(0.186209 1.29975 7.29131e-17)
(0.23944 1.21831 -4.96318e-16)
(0.244798 0.9805 0)
(0.225724 0.589462 0)
(0.200603 -0.042991 5.03569e-16)
(0.156393 -1.0367 -5.36139e-16)
(0.112401 -2.3746 0)
(0.752798 -0.394867 2.64771e-17)
(-0.212864 0.71619 -1.31701e-16)
(0.0785766 1.08333 7.87797e-16)
(0.186282 1.21318 -1.10879e-15)
(0.251385 1.18194 3.59461e-16)
(0.273746 1.01431 9.33437e-18)
(0.287447 0.680967 3.07029e-15)
(0.333375 0.0810949 -7.80581e-16)
(0.369466 -0.919707 1.21184e-15)
(0.396471 -2.27386 0)
(0.815724 -0.324716 7.35407e-17)
(-0.193247 0.617644 -6.09422e-16)
(0.0469979 0.9917 7.53998e-16)
(0.144657 1.14788 1.25107e-15)
(0.212812 1.16163 -8.40067e-16)
(0.250025 1.04757 3.94653e-15)
(0.295822 0.750176 1.76875e-15)
(0.399394 0.169651 5.18735e-15)
(0.514433 -0.806308 -1.92892e-15)
(0.620295 -2.14049 -4.05317e-15)
(0.850286 -0.271788 -1.90419e-17)
(-0.222051 0.519303 5.39713e-16)
(-0.00597616 0.876299 -9.57194e-16)
(0.0904085 1.04536 8.37937e-16)
(0.169862 1.10005 -1.65289e-15)
(0.228205 1.03327 1.71569e-15)
(0.302968 0.78979 -9.96142e-15)
(0.444227 0.250325 0)
(0.620063 -0.674084 -4.63712e-15)
(0.799477 -1.97993 4.00069e-15)
(0.869371 -0.21208 0)
(-0.263658 0.418948 3.76737e-16)
(-0.0575624 0.748213 -3.67549e-16)
(0.0465249 0.922842 0)
(0.144035 1.01258 -2.70523e-16)
(0.222968 1.00087 -3.0799e-16)
(0.318944 0.827254 3.32488e-15)
(0.484709 0.352114 -4.48663e-15)
(0.705267 -0.513277 0)
(0.952685 -1.7904 -1.69943e-14)
(0.871926 -0.140791 2.94287e-18)
(-0.307434 0.313429 0)
(-0.0980997 0.606236 0)
(0.0230741 0.779929 1.443e-15)
(0.141108 0.901787 -2.2406e-15)
(0.241368 0.950054 2.542e-15)
(0.358629 0.859545 6.49728e-16)
(0.544505 0.479952 9.63342e-15)
(0.795435 -0.310303 -1.37039e-14)
(1.09517 -1.55077 8.50106e-15)
(0.849008 -0.0539453 0)
(-0.350897 0.200133 -3.69096e-16)
(-0.121652 0.44768 -2.2079e-15)
(0.0256771 0.614273 -8.81233e-16)
(0.16613 0.760107 -3.92006e-15)
(0.290596 0.864189 2.51055e-15)
(0.426462 0.862802 -6.12109e-15)
(0.62141 0.611121 7.63365e-16)
(0.874129 -0.0565163 -4.01349e-15)
(1.19016 -1.22377 -1.30141e-14)
(0.77877 0.0486578 -1.47945e-18)
(-0.386465 0.0757102 3.66447e-16)
(-0.120824 0.274538 2.89602e-15)
(0.0536302 0.426837 5.42707e-16)
(0.211188 0.578351 2.3246e-15)
(0.356772 0.71744 0)
(0.508954 0.794742 6.06354e-15)
(0.688387 0.682241 7.4401e-15)
(0.886768 0.238052 9.95136e-15)
(1.14376 -0.801345 9.43278e-15)
(0.626779 0.152509 8.88276e-19)
(-0.394217 -0.0364188 3.69411e-16)
(-0.104641 0.1304 -3.94416e-16)
(0.0635445 0.267369 -1.84847e-15)
(0.202785 0.40251 5.90899e-15)
(0.337795 0.543544 7.98269e-15)
(0.477749 0.678646 -2.7517e-15)
(0.616163 0.729638 0)
(0.735965 0.568896 0)
(0.921835 -0.296467 -9.60407e-15)
(0.328543 0.177489 -3.04789e-17)
(-0.258687 -0.0760383 7.21175e-16)
(-0.0285004 -0.0179375 0)
(0.0750934 0.0353428 0)
(0.164659 0.0741993 -3.36674e-15)
(0.270666 0.105757 -2.45922e-17)
(0.399799 0.125422 5.80554e-15)
(0.549182 0.12588 -1.23556e-14)
(0.672148 0.0730412 1.44968e-14)
(0.745717 -0.39543 1.23629e-15)
(0.105976 -3.99453 0)
(0.16792 -5.91998 0)
(0.259234 -8.13186 0)
(0.384927 -10.546 -8.44089e-16)
(0.529496 -13.12 0)
(0.823238 -15.7761 0)
(-0.163974 -18.5357 8.7925e-16)
(1.45605 -23.8679 0)
(4.21401 -23.9325 0)
(-5.67892 -27.0692 0)
(0.470691 -3.91988 1.58842e-15)
(0.651637 -5.87593 2.67079e-15)
(0.888368 -8.10458 1.45731e-16)
(1.16396 -10.4994 9.4948e-16)
(1.48919 -13.044 7.19239e-17)
(2.03671 -15.6455 1.14234e-15)
(1.12972 -18.4311 3.39584e-18)
(2.99402 -24.005 1.17497e-16)
(5.80449 -23.5658 -2.60254e-15)
(-3.95792 -27.1744 -6.60604e-16)
(0.791884 -3.79543 1.4707e-15)
(1.1181 -5.77837 0)
(1.52397 -8.01417 -2.1681e-15)
(1.9711 -10.3833 -1.85678e-15)
(2.48135 -12.8989 5.46763e-15)
(3.26524 -15.4365 -1.12679e-15)
(2.46333 -18.2128 1.75834e-15)
(4.6476 -23.9705 0)
(7.52058 -22.908 3.00927e-15)
(-1.8411 -27.4326 -4.5276e-17)
(1.07588 -3.64489 3.33847e-15)
(1.56811 -5.65278 8.15047e-15)
(2.15317 -7.87832 -8.45503e-15)
(2.76709 -10.2016 3.32133e-15)
(3.44984 -12.6736 6.20278e-18)
(4.47309 -15.1297 0)
(3.79447 -17.8291 -1.75899e-15)
(6.31227 -23.7181 -2.73213e-15)
(9.26633 -22.1903 -3.0343e-15)
(0.251419 -27.5199 3.19675e-15)
(1.3338 -3.47449 3.06581e-15)
(2.00943 -5.50355 -2.67996e-15)
(2.77393 -7.69496 8.69678e-15)
(3.54571 -9.9559 -3.44496e-15)
(4.39178 -12.3768 2.88514e-15)
(5.64845 -14.7383 -4.49186e-15)
(5.09265 -17.326 3.60267e-15)
(7.9729 -23.2791 2.74412e-15)
(10.9622 -21.3567 0)
(2.13872 -27.498 -6.41706e-15)
(1.5709 -3.28124 3.78499e-15)
(2.45217 -5.32955 -1.62279e-14)
(3.38724 -7.45957 -4.61619e-15)
(4.30326 -9.64434 1.05884e-14)
(5.30448 -12.0064 8.87609e-15)
(6.78439 -14.2631 1.54104e-16)
(6.3577 -16.7138 3.49645e-17)
(9.58807 -22.6559 -2.99212e-15)
(12.583 -20.4092 -3.07398e-15)
(4.13382 -27.3603 6.98013e-15)
(1.76169 -3.05889 3.86978e-15)
(2.89115 -5.13177 5.71011e-15)
(3.9885 -7.17012 0)
(5.03328 -9.26902 -3.50721e-15)
(6.1828 -11.5636 -5.54983e-15)
(7.8707 -13.711 1.8006e-16)
(7.59429 -16.0066 -1.11892e-14)
(11.1388 -21.8993 -2.73337e-15)
(14.0998 -19.3641 6.21452e-15)
(6.20899 -27.0492 -3.60946e-15)
(1.89902 -2.85795 1.44311e-14)
(3.30625 -4.93081 -5.12928e-15)
(4.56888 -6.83441 0)
(5.72819 -8.83806 -1.95553e-16)
(7.01366 -11.0565 2.27545e-14)
(8.88523 -13.0838 -9.33125e-15)
(8.73109 -15.2316 -7.69238e-15)
(12.5997 -20.9717 5.49867e-15)
(15.4704 -18.2381 -6.89109e-15)
(8.29426 -26.5601 0)
(2.13542 -2.74427 3.50178e-16)
(3.7082 -4.72731 -5.00151e-15)
(5.1088 -6.43991 0)
(6.38172 -8.34626 7.12317e-15)
(7.79242 -10.4884 -1.67997e-14)
(9.82349 -12.4018 9.4708e-15)
(9.81886 -14.3722 3.8514e-15)
(13.9386 -19.8014 0)
(16.7492 -17.108 -1.34608e-16)
(10.355 -25.8916 3.61531e-15)
(2.95248 -2.55808 4.59508e-16)
(4.08623 -4.45521 1.34148e-17)
(5.56347 -5.96096 0)
(6.97011 -7.78091 -1.38082e-14)
(8.50699 -9.8395 5.22544e-15)
(10.6714 -11.6975 -4.91117e-15)
(10.9878 -13.5228 3.83988e-15)
(15.1675 -18.3396 6.93741e-16)
(18.0454 -16.0184 6.77044e-16)
(12.3357 -24.9897 -3.67017e-15)
(4.11044 -1.89794 3.03417e-15)
(4.39883 -4.14295 -5.36478e-15)
(5.81519 -5.57015 0)
(7.34764 -7.31819 0)
(9.0262 -9.2801 0)
(11.2558 -11.0487 -2.44215e-15)
(11.802 -12.9376 9.84019e-15)
(16.1301 -17.2642 0)
(18.8865 -14.6741 0)
(14.1165 -24.2375 0)
(4.09425 -2.10618 -2.886e-15)
(4.56406 -3.89013 -5.29668e-15)
(5.9573 -5.27644 0)
(7.58236 -6.97138 3.59493e-15)
(9.3653 -8.87437 -2.75724e-15)
(11.6826 -10.5249 2.43929e-15)
(12.3483 -12.3536 3.99835e-15)
(16.7435 -16.8285 -1.80188e-16)
(19.4875 -13.7461 1.64428e-15)
(15.1783 -23.5086 0)
(3.66913 -2.32738 1.88179e-16)
(4.84862 -3.58405 -5.57371e-18)
(6.21738 -4.93553 0)
(7.92248 -6.52957 2.05852e-16)
(9.81401 -8.34558 5.97475e-15)
(12.2248 -9.87657 -4.44421e-15)
(13.0129 -11.3957 -1.18316e-14)
(17.4935 -16.1513 -6.20832e-15)
(20.1747 -12.8299 1.37091e-14)
(16.4241 -22.5624 3.6084e-15)
(3.31592 -2.23263 -1.27913e-14)
(4.84385 -3.27661 4.98021e-15)
(6.4187 -4.53824 0)
(8.27222 -5.97676 -7.0947e-15)
(10.3126 -7.61655 -5.80759e-15)
(12.8429 -9.07404 9.41168e-15)
(13.8702 -10.3146 4.00412e-15)
(18.3586 -14.2089 0)
(21.0103 -11.7069 -6.84138e-15)
(18.299 -21.3792 1.97753e-16)
(3.31012 -2.26459 -2.85472e-16)
(4.91179 -3.11354 5.04132e-15)
(6.62011 -4.2056 0)
(8.60162 -5.45786 1.4093e-14)
(10.7595 -6.90071 -3.22126e-19)
(13.3806 -8.22428 -1.66357e-16)
(14.6378 -9.37345 8.12571e-15)
(19.1515 -12.6238 -5.62643e-15)
(21.5612 -10.3296 -7.05084e-15)
(20.1839 -20.0239 0)
(3.42772 -2.19448 -3.1717e-15)
(5.05467 -2.91519 1.04668e-14)
(6.85519 -3.84644 8.8486e-15)
(8.93955 -4.90882 -1.01465e-14)
(11.1936 -6.14268 -1.70371e-14)
(13.8794 -7.29991 -2.57617e-16)
(15.3482 -8.33556 -4.0991e-15)
(19.8443 -10.9465 -2.84891e-15)
(21.9699 -8.91523 -6.3424e-15)
(22.066 -18.5089 -3.07123e-15)
(3.56534 -2.04897 -9.61442e-15)
(5.22394 -2.66993 5.2065e-15)
(7.10329 -3.45455 -3.96988e-15)
(9.269 -4.33209 -1.04529e-14)
(11.5994 -5.35324 8.12249e-15)
(14.3247 -6.32924 -2.40533e-16)
(16.0041 -7.24492 7.8334e-15)
(20.4283 -9.21756 3.05778e-15)
(22.308 -7.42732 2.91758e-15)
(23.8815 -16.8382 -1.9759e-16)
(3.69372 -1.84181 2.7397e-15)
(5.39217 -2.37089 -2.56148e-15)
(7.34947 -3.01444 -1.28166e-16)
(9.58319 -3.71432 1.03528e-14)
(11.9768 -4.52188 -1.40913e-14)
(14.7172 -5.3044 4.45793e-15)
(16.6102 -6.09763 -3.97244e-15)
(20.9096 -7.4733 8.45624e-15)
(22.571 -5.75871 0)
(25.5259 -14.9627 5.92793e-17)
(3.80762 -1.57316 2.96166e-15)
(5.54542 -2.00967 2.50208e-15)
(7.57643 -2.51759 4.26786e-15)
(9.86939 -3.05158 -6.73737e-15)
(12.3246 -3.657 2.69022e-15)
(15.0682 -4.22163 0)
(17.2053 -4.90296 -1.90322e-15)
(21.3941 -5.75003 -5.76072e-15)
(22.7614 -3.90045 -7.89239e-17)
(26.8255 -12.7844 2.9529e-15)
(3.89688 -1.25218 1.32145e-15)
(5.66802 -1.58435 0)
(7.7694 -1.95802 2.08978e-15)
(10.1155 -2.33485 1.79933e-15)
(12.6418 -2.74674 7.79785e-17)
(15.3904 -3.09542 -1.10535e-15)
(17.7307 -3.64764 1.87335e-15)
(21.9324 -4.05232 0)
(23.086 -1.70781 2.98101e-15)
(27.5905 -9.98254 2.67059e-15)
(3.94466 -0.883675 1.46263e-15)
(5.75029 -1.07979 -2.53479e-15)
(7.89701 -1.29892 -1.42326e-16)
(10.2842 -1.5184 7.20297e-16)
(12.8955 -1.70826 -6.35086e-17)
(15.6897 -1.90845 1.05841e-15)
(18.1873 -2.35498 -1.82554e-15)
(22.3183 -1.97812 -6.24134e-17)
(23.6656 1.01376 2.42299e-15)
(28.9106 -7.98547 -1.99878e-15)
(3.97826 -0.35579 2.12704e-29)
(5.85812 -0.397353 0)
(8.04463 -0.434294 0)
(10.4625 -0.466362 -8.24224e-16)
(13.0906 -0.475492 0)
(15.8017 -0.477597 0)
(18.466 -1.53048 8.90941e-16)
(23.586 0.0173883 0)
(24.6168 2.84185 0)
(25.5096 -8.66552 -8.46443e-30)
(1.34493 -0.744589 8.86662e-16)
(1.72127 -1.13006 -7.89222e-15)
(1.9801 -1.53709 7.77647e-15)
(2.16686 -1.59465 -1.0567e-14)
(2.30751 -1.53729 6.82405e-15)
(2.39297 -1.41274 -1.35639e-14)
(2.44259 -1.22462 3.24448e-15)
(2.46529 -0.975561 -3.39567e-15)
(2.46105 -0.686032 0)
(2.41989 -0.261179 -3.97699e-16)
(-0.125215 -0.607877 1.62237e-14)
(0.270757 -0.757933 0)
(0.75423 -1.12716 8.53801e-15)
(1.02198 -1.1775 -3.3136e-15)
(1.19178 -1.14135 -1.05066e-14)
(1.274 -1.05289 0)
(1.2982 -0.906949 -3.49652e-15)
(1.28513 -0.706888 -1.52937e-15)
(1.2439 -0.479046 1.02343e-15)
(1.13969 -0.13914 -4.41768e-16)
(-0.710156 -0.62169 -1.35403e-14)
(-0.663345 -0.66964 0)
(-0.220086 -0.916391 7.90367e-15)
(0.0594118 -0.899238 5.51732e-16)
(0.247427 -0.835368 8.46459e-15)
(0.332817 -0.7493 -3.75975e-15)
(0.348195 -0.62393 0)
(0.31935 -0.456864 4.06458e-15)
(0.271622 -0.267495 -6.88753e-16)
(0.165966 -0.0190693 5.60028e-16)
(-0.65403 -0.55585 6.11091e-15)
(-1.0368 -0.63639 -2.88999e-15)
(-0.827985 -0.809269 6.53656e-15)
(-0.642437 -0.729885 -7.02201e-15)
(-0.486938 -0.615885 6.7438e-16)
(-0.399932 -0.502755 3.84203e-15)
(-0.380807 -0.383781 -1.1334e-14)
(-0.409153 -0.242628 1.99953e-15)
(-0.454961 -0.0858384 3.41113e-15)
(-0.510259 0.0799561 9.40476e-17)
(-0.461471 -0.434896 -9.03718e-15)
(-0.996462 -0.557729 8.22344e-15)
(-1.06412 -0.693789 0)
(-1.04093 -0.617528 2.57916e-15)
(-0.969654 -0.493896 2.68558e-15)
(-0.914442 -0.364491 -3.00463e-16)
(-0.89579 -0.233735 1.91823e-15)
(-0.915738 -0.103382 4.45742e-15)
(-0.947766 0.0269536 -2.98172e-18)
(-0.962002 0.150395 4.02864e-16)
(-0.296546 -0.300016 -3.55333e-15)
(-0.812869 -0.434244 6.26453e-15)
(-1.02246 -0.52993 2.3034e-15)
(-1.16161 -0.46733 -3.94962e-15)
(-1.21185 -0.355322 -2.2474e-15)
(-1.22637 -0.231449 -2.68755e-16)
(-1.23471 -0.110864 -3.85028e-15)
(-1.25368 -0.00297505 1.19395e-15)
(-1.27047 0.0943205 3.88242e-16)
(-1.25345 0.180345 -4.06166e-16)
(-0.165191 -0.167375 0)
(-0.574252 -0.268941 -2.00487e-15)
(-0.836338 -0.310733 5.15229e-16)
(-1.05942 -0.261543 -8.75189e-16)
(-1.21057 -0.181059 1.46812e-15)
(-1.30612 -0.092077 0)
(-1.36383 -0.00476427 8.55118e-16)
(-1.39773 0.0676861 1.29089e-15)
(-1.40794 0.123143 -1.1797e-15)
(-1.37219 0.164369 -3.17646e-17)
(-0.0525171 -0.0450005 0)
(-0.339073 -0.0671688 -5.00625e-16)
(-0.589644 -0.0550391 3.25331e-15)
(-0.832527 -0.020669 -2.40571e-15)
(-1.02741 0.0184265 0)
(-1.16586 0.0587007 -3.89999e-16)
(-1.25738 0.097315 -9.74739e-16)
(-1.31342 0.122767 7.97406e-16)
(-1.32963 0.126377 8.20119e-16)
(-1.29182 0.109405 -3.1349e-16)
(0.0572347 0.0195403 -9.35013e-16)
(-0.107471 0.0867415 4.90339e-16)
(-0.311041 0.0909092 4.6783e-16)
(-0.525034 0.0701488 -4.45558e-16)
(-0.706045 0.0477581 0)
(-0.840001 0.0341168 4.09197e-16)
(-0.932395 0.0234241 5.66009e-16)
(-0.991534 0.00399571 -6.47161e-16)
(-1.00699 -0.046434 -1.34731e-16)
(-0.983736 -0.121566 9.15658e-18)
(0.505723 0.415569 -2.80299e-16)
(0.730871 0.699861 9.15905e-17)
(0.737096 0.707234 7.51581e-17)
(0.685645 0.661052 0)
(0.609166 0.641654 -2.82518e-17)
(0.522149 0.652541 0)
(0.437397 0.683214 -1.01638e-16)
(0.359515 0.720254 1.47938e-16)
(0.298831 0.748304 3.21571e-17)
(0.202233 0.740116 -8.75291e-18)
)
;

boundaryField
{
    right
    {
        type            cyclic;
    }
    left
    {
        type            cyclic;
    }
    outerWall
    {
        type            noSlip;
    }
    stirrerWall
    {
        type            noSlip;
    }
    top
    {
        type            empty;
    }
    bottom
    {
        type            empty;
    }
}


// ************************************************************************* //
