/*--------------------------------*- C++ -*----------------------------------*\
  =========                 |
  \\      /  F ield         | OpenFOAM: The Open Source CFD Toolbox
   \\    /   O peration     | Website:  https://openfoam.org
    \\  /    A nd           | Version:  10
     \\/     M anipulation  |
\*---------------------------------------------------------------------------*/
FoamFile
{
    format      ascii;
    class       volScalarField;
    location    "16000";
    object      k;
}
// * * * * * * * * * * * * * * * * * * * * * * * * * * * * * * * * * * * * * //

dimensions      [0 2 -2 0 0 0 0];

internalField   nonuniform List<scalar> 
17922
(
0.110208
0.109638
0.109068
0.108497
0.107926
0.107354
0.106781
0.106207
0.105631
0.105055
0.104477
0.103897
0.103316
0.102732
0.102146
0.101558
0.100966
0.100371
0.0997724
0.0991693
0.0985616
0.0979485
0.0973296
0.0967041
0.0960715
0.0954309
0.0947814
0.0941223
0.0934583
0.0928005
0.0921539
0.0915184
0.0908929
0.0902763
0.0896675
0.089066
0.0884713
0.0878833
0.0873015
0.0867259
0.0861562
0.0855922
0.0850337
0.0844804
0.0839321
0.0833885
0.0828494
0.0823144
0.0817832
0.0812555
0.080731
0.0802092
0.0796901
0.0791732
0.0786584
0.0781454
0.0776342
0.0771244
0.076616
0.076109
0.0756032
0.0750985
0.0745949
0.0740923
0.0735907
0.07309
0.0725901
0.072091
0.0715926
0.0710948
0.0705977
0.0701009
0.0696045
0.0691083
0.0686121
0.0681158
0.067619
0.0671216
0.0666234
0.066124
0.0656232
0.0651207
0.0646163
0.0641097
0.0636006
0.0630887
0.062574
0.0620567
0.061538
0.0610204
0.0605083
0.0600074
0.059524
0.110208
0.109638
0.109068
0.108497
0.107925
0.107353
0.10678
0.106206
0.10563
0.105054
0.104476
0.103896
0.103314
0.102731
0.102144
0.101556
0.100964
0.100369
0.0997695
0.0991662
0.0985582
0.097945
0.0973258
0.0967002
0.0960673
0.0954264
0.0947768
0.0941175
0.0934534
0.0927953
0.0921487
0.0915131
0.0908876
0.0902709
0.0896619
0.0890603
0.0884655
0.0878773
0.0872954
0.0867197
0.0861499
0.0855857
0.085027
0.0844736
0.0839252
0.0833815
0.0828423
0.0823072
0.0817759
0.0812481
0.0807234
0.0802016
0.0796824
0.0791654
0.0786505
0.0781374
0.077626
0.0771161
0.0766076
0.0761004
0.0755944
0.0750895
0.0745857
0.0740828
0.0735809
0.0730798
0.0725795
0.0720799
0.071581
0.0710827
0.0705848
0.0700873
0.0695901
0.0690929
0.0685957
0.0680982
0.0676002
0.0671015
0.0666018
0.0661008
0.0655983
0.065094
0.0645876
0.0640789
0.0635676
0.0630535
0.0625365
0.062017
0.0614962
0.060977
0.0604637
0.0599621
0.0594784
0.110208
0.109638
0.109068
0.108497
0.107925
0.107353
0.106779
0.106205
0.10563
0.105053
0.104474
0.103895
0.103313
0.102729
0.102143
0.101554
0.100962
0.100366
0.0997669
0.0991635
0.0985553
0.0979418
0.0973225
0.0966966
0.0960635
0.0954225
0.0947727
0.0941132
0.0934489
0.0927908
0.0921441
0.0915085
0.090883
0.0902661
0.0896571
0.0890553
0.0884604
0.0878721
0.0872901
0.0867143
0.0861443
0.0855801
0.0850213
0.0844678
0.0839193
0.0833755
0.0828362
0.082301
0.0817696
0.0812417
0.080717
0.0801951
0.0796758
0.0791587
0.0786437
0.0781306
0.0776191
0.0771091
0.0766004
0.0760931
0.0755869
0.0750818
0.0745777
0.0740746
0.0735723
0.0730709
0.0725702
0.0720701
0.0715707
0.0710717
0.0705731
0.0700748
0.0695767
0.0690786
0.0685803
0.0680816
0.0675823
0.0670822
0.0665809
0.0660783
0.065574
0.0650678
0.0645594
0.0640486
0.063535
0.0630186
0.0624992
0.0619774
0.0614546
0.0609338
0.0604193
0.0599172
0.0594333
0.110209
0.109639
0.109068
0.108497
0.107925
0.107352
0.106779
0.106204
0.105629
0.105052
0.104474
0.103893
0.103312
0.102727
0.102141
0.101552
0.10096
0.100364
0.0997646
0.099161
0.0985526
0.0979389
0.0973194
0.0966934
0.0960601
0.0954189
0.0947689
0.0941093
0.0934449
0.0927867
0.09214
0.0915044
0.0908788
0.0902619
0.0896528
0.0890509
0.088456
0.0878676
0.0872855
0.0867096
0.0861395
0.0855752
0.0850163
0.0844627
0.0839142
0.0833703
0.0828309
0.0822956
0.0817642
0.0812362
0.0807114
0.0801895
0.0796701
0.079153
0.0786379
0.0781247
0.0776131
0.077103
0.0765943
0.0760868
0.0755804
0.0750751
0.0745708
0.0740674
0.0735648
0.073063
0.0725619
0.0720613
0.0715613
0.0710617
0.0705624
0.0700633
0.0695643
0.0690651
0.0685657
0.0680658
0.0675651
0.0670635
0.0665606
0.0660563
0.0655501
0.0650419
0.0645314
0.0640183
0.0635024
0.0629835
0.0624617
0.0619377
0.0614129
0.0608904
0.0603749
0.0598723
0.0593882
0.110209
0.109639
0.109068
0.108497
0.107925
0.107352
0.106779
0.106204
0.105628
0.105051
0.104473
0.103892
0.10331
0.102726
0.10214
0.10155
0.100958
0.100362
0.0997625
0.0991587
0.0985502
0.0979364
0.0973167
0.0966905
0.0960571
0.0954157
0.0947656
0.0941058
0.0934414
0.0927831
0.0921364
0.0915008
0.0908752
0.0902582
0.0896491
0.0890471
0.0884521
0.0878636
0.0872815
0.0867055
0.0861354
0.085571
0.0850121
0.0844585
0.0839098
0.0833659
0.0828264
0.0822911
0.0817596
0.0812316
0.0807068
0.0801848
0.0796654
0.0791482
0.0786331
0.0781198
0.0776081
0.077098
0.0765891
0.0760815
0.075575
0.0750695
0.074565
0.0740613
0.0735584
0.0730562
0.0725546
0.0720535
0.0715529
0.0710526
0.0705525
0.0700526
0.0695526
0.0690524
0.0685518
0.0680506
0.0675485
0.0670453
0.0665408
0.0660346
0.0655265
0.0650162
0.0645035
0.0639881
0.0634697
0.0629484
0.0624241
0.0618977
0.0613709
0.0608469
0.0603305
0.0598274
0.0593432
0.11021
0.109639
0.109069
0.108497
0.107925
0.107352
0.106778
0.106204
0.105628
0.105051
0.104472
0.103892
0.103309
0.102725
0.102138
0.101549
0.100956
0.10036
0.0997607
0.0991568
0.0985481
0.0979341
0.0973142
0.0966879
0.0960543
0.0954129
0.0947626
0.0941027
0.0934382
0.0927799
0.0921332
0.0914977
0.0908721
0.0902551
0.0896459
0.089044
0.0884489
0.0878604
0.0872782
0.0867022
0.086132
0.0855676
0.0850086
0.0844549
0.0839062
0.0833623
0.0828228
0.0822875
0.0817559
0.0812279
0.080703
0.080181
0.0796616
0.0791444
0.0786292
0.0781159
0.0776042
0.0770939
0.076585
0.0760772
0.0755705
0.0750649
0.0745601
0.0740561
0.0735529
0.0730503
0.0725482
0.0720466
0.0715454
0.0710444
0.0705436
0.0700427
0.0695417
0.0690404
0.0685386
0.068036
0.0675324
0.0670276
0.0665213
0.0660132
0.065503
0.0649906
0.0644755
0.0639577
0.0634368
0.0629129
0.0623861
0.0618573
0.0613286
0.0608031
0.0602859
0.0597826
0.0592983
0.11021
0.10964
0.109069
0.108497
0.107925
0.107352
0.106778
0.106204
0.105628
0.10505
0.104471
0.103891
0.103309
0.102724
0.102137
0.101548
0.100955
0.100359
0.0997591
0.099155
0.0985462
0.0979321
0.0973121
0.0966856
0.096052
0.0954104
0.09476
0.0941001
0.0934355
0.0927772
0.0921305
0.0914951
0.0908695
0.0902526
0.0896433
0.0890414
0.0884463
0.0878577
0.0872756
0.0866995
0.0861293
0.0855649
0.0850059
0.0844522
0.0839035
0.0833595
0.08282
0.0822846
0.0817531
0.0812251
0.0807002
0.0801782
0.0796587
0.0791415
0.0786263
0.0781129
0.0776012
0.0770908
0.0765818
0.0760739
0.0755671
0.0750612
0.0745562
0.074052
0.0735484
0.0730454
0.0725428
0.0720407
0.0715388
0.0710371
0.0705354
0.0700336
0.0695316
0.0690291
0.068526
0.0680219
0.0675168
0.0670103
0.0665021
0.065992
0.0654797
0.064965
0.0644475
0.0639271
0.0634037
0.0628771
0.0623477
0.0618166
0.0612859
0.060759
0.0602411
0.0597376
0.0592533
0.110211
0.10964
0.109069
0.108498
0.107926
0.107353
0.106779
0.106204
0.105627
0.10505
0.104471
0.103891
0.103308
0.102723
0.102136
0.101547
0.100954
0.100358
0.0997578
0.0991536
0.0985446
0.0979304
0.0973103
0.0966837
0.09605
0.0954083
0.0947578
0.0940978
0.0934332
0.092775
0.0921284
0.091493
0.0908675
0.0902505
0.0896413
0.0890394
0.0884443
0.0878558
0.0872736
0.0866975
0.0861273
0.0855629
0.0850039
0.0844502
0.0839015
0.0833575
0.082818
0.0822827
0.0817511
0.0812231
0.0806982
0.0801762
0.0796567
0.0791395
0.0786243
0.0781109
0.0775991
0.0770887
0.0765796
0.0760716
0.0755647
0.0750586
0.0745533
0.0740488
0.0735448
0.0730414
0.0725383
0.0720356
0.0715331
0.0710306
0.070528
0.0700253
0.0695221
0.0690184
0.0685139
0.0680084
0.0675016
0.0669933
0.0664831
0.0659709
0.0654564
0.0649392
0.0644193
0.0638962
0.0633701
0.0628408
0.0623088
0.0617753
0.0612427
0.0607146
0.0601961
0.0596927
0.0592085
0.110212
0.109641
0.10907
0.108498
0.107926
0.107353
0.106779
0.106204
0.105627
0.10505
0.104471
0.10389
0.103308
0.102723
0.102136
0.101546
0.100953
0.100357
0.0997568
0.0991525
0.0985434
0.097929
0.0973088
0.0966822
0.0960483
0.0954065
0.094756
0.094096
0.0934314
0.0927732
0.0921267
0.0914914
0.090866
0.0902491
0.0896399
0.089038
0.0884429
0.0878544
0.0872723
0.0866962
0.0861261
0.0855616
0.0850027
0.084449
0.0839003
0.0833564
0.0828169
0.0822816
0.0817501
0.081222
0.0806972
0.0801752
0.0796557
0.0791385
0.0786233
0.0781099
0.0775981
0.0770876
0.0765784
0.0760703
0.0755632
0.0750569
0.0745514
0.0740465
0.0735422
0.0730383
0.0725348
0.0720314
0.0715281
0.0710249
0.0705214
0.0700176
0.0695133
0.0690082
0.0685023
0.0679952
0.0674866
0.0669764
0.0664642
0.0659498
0.0654329
0.0649133
0.0643907
0.0638649
0.063336
0.0628039
0.0622693
0.0617335
0.0611991
0.0606699
0.060151
0.0596477
0.0591637
0.110213
0.109642
0.109071
0.108499
0.107927
0.107353
0.106779
0.106204
0.105628
0.10505
0.104471
0.10389
0.103308
0.102723
0.102135
0.101546
0.100953
0.100356
0.099756
0.0991516
0.0985424
0.097928
0.0973077
0.0966809
0.096047
0.0954052
0.0947547
0.0940946
0.09343
0.0927719
0.0921255
0.0914904
0.0908651
0.0902482
0.0896391
0.0890372
0.0884422
0.0878537
0.0872716
0.0866956
0.0861255
0.0855611
0.0850022
0.0844486
0.0838999
0.083356
0.0828166
0.0822813
0.0817498
0.0812219
0.0806971
0.0801751
0.0796557
0.0791385
0.0786233
0.0781099
0.077598
0.0770875
0.0765782
0.07607
0.0755627
0.0750562
0.0745504
0.0740452
0.0735405
0.0730362
0.072532
0.072028
0.071524
0.0710199
0.0705154
0.0700105
0.069505
0.0689986
0.0684911
0.0679823
0.0674719
0.0669597
0.0664454
0.0659287
0.0654093
0.064887
0.0643617
0.0638331
0.0633013
0.0627663
0.0622291
0.061691
0.0611549
0.0606247
0.0601056
0.0596026
0.0591188
0.110214
0.109643
0.109072
0.1085
0.107927
0.107354
0.10678
0.106205
0.105628
0.10505
0.104471
0.10389
0.103308
0.102723
0.102135
0.101545
0.100952
0.100356
0.0997555
0.099151
0.0985418
0.0979273
0.0973069
0.0966801
0.0960461
0.0954042
0.0947537
0.0940937
0.0934291
0.0927711
0.0921249
0.0914899
0.0908647
0.0902479
0.0896389
0.0890371
0.0884421
0.0878537
0.0872717
0.0866958
0.0861257
0.0855614
0.0850025
0.0844489
0.0839004
0.0833565
0.0828172
0.0822819
0.0817505
0.0812226
0.0806978
0.0801759
0.0796565
0.0791394
0.0786242
0.0781108
0.0775989
0.0770883
0.076579
0.0760706
0.0755632
0.0750565
0.0745504
0.0740448
0.0735397
0.0730348
0.0725301
0.0720254
0.0715206
0.0710156
0.0705101
0.070004
0.0694971
0.0689893
0.0684802
0.0679696
0.0674573
0.066943
0.0664264
0.0659073
0.0653853
0.0648603
0.0643322
0.0638006
0.0632658
0.062728
0.0621881
0.0616478
0.0611101
0.0605791
0.0600599
0.0595573
0.0590736
0.110215
0.109644
0.109073
0.108501
0.107928
0.107355
0.106781
0.106205
0.105629
0.105051
0.104472
0.103891
0.103308
0.102723
0.102135
0.101545
0.100952
0.100356
0.0997554
0.0991508
0.0985415
0.0979269
0.0973065
0.0966796
0.0960456
0.0954037
0.0947531
0.0940931
0.0934287
0.0927707
0.0921247
0.0914899
0.0908648
0.0902482
0.0896393
0.0890376
0.0884427
0.0878544
0.0872724
0.0866966
0.0861266
0.0855624
0.0850036
0.0844501
0.0839016
0.0833579
0.0828186
0.0822834
0.0817521
0.0812242
0.0806995
0.0801777
0.0796583
0.0791412
0.0786261
0.0781126
0.0776007
0.0770901
0.0765807
0.0760722
0.0755645
0.0750576
0.0745512
0.0740453
0.0735397
0.0730343
0.072529
0.0720236
0.0715179
0.0710119
0.0705053
0.069998
0.0694897
0.0689803
0.0684696
0.0679571
0.0674428
0.0669263
0.0664073
0.0658856
0.0653609
0.0648331
0.0643019
0.0637674
0.0632295
0.0626888
0.0621463
0.0616038
0.0610647
0.060533
0.0600139
0.0595117
0.059028
0.110216
0.109645
0.109074
0.108502
0.107929
0.107356
0.106781
0.106206
0.10563
0.105052
0.104472
0.103891
0.103308
0.102723
0.102136
0.101546
0.100952
0.100356
0.0997555
0.0991508
0.0985415
0.0979268
0.0973064
0.0966795
0.0960454
0.0954035
0.094753
0.0940931
0.0934287
0.0927709
0.0921251
0.0914905
0.0908656
0.0902491
0.0896403
0.0890387
0.088444
0.0878558
0.0872739
0.0866982
0.0861283
0.0855642
0.0850055
0.0844521
0.0839037
0.08336
0.0828208
0.0822858
0.0817545
0.0812267
0.0807021
0.0801803
0.079661
0.079144
0.0786289
0.0781154
0.0776035
0.0770929
0.0765833
0.0760747
0.0755668
0.0750597
0.074553
0.0740467
0.0735406
0.0730346
0.0725286
0.0720224
0.0715158
0.0710087
0.070501
0.0699924
0.0694827
0.0689716
0.068459
0.0679446
0.0674282
0.0669093
0.0663878
0.0658634
0.0653359
0.0648051
0.0642709
0.0637332
0.0631923
0.0626486
0.0621035
0.061559
0.0610186
0.0604865
0.0599677
0.059466
0.0589819
0.110218
0.109647
0.109075
0.108503
0.107931
0.107357
0.106783
0.106207
0.105631
0.105053
0.104473
0.103892
0.103309
0.102724
0.102137
0.101546
0.100953
0.100356
0.0997559
0.0991512
0.0985418
0.0979271
0.0973066
0.0966797
0.0960457
0.0954038
0.0947533
0.0940934
0.0934292
0.0927716
0.092126
0.0914916
0.0908669
0.0902506
0.089642
0.0890405
0.0884459
0.0878578
0.0872761
0.0867005
0.0861307
0.0855667
0.0850082
0.0844549
0.0839066
0.0833631
0.082824
0.082289
0.0817578
0.0812302
0.0807056
0.0801839
0.0796647
0.0791477
0.0786326
0.0781192
0.0776072
0.0770965
0.0765869
0.0760781
0.07557
0.0750626
0.0745555
0.0740488
0.0735422
0.0730356
0.0725289
0.0720218
0.0715143
0.0710061
0.0704971
0.0699871
0.0694758
0.0689631
0.0684486
0.0679321
0.0674133
0.066892
0.0663679
0.0658407
0.0653103
0.0647764
0.064239
0.0636981
0.063154
0.0626074
0.0620597
0.0615134
0.0609718
0.0604395
0.0599213
0.0594203
0.0589351
0.110219
0.109648
0.109077
0.108505
0.107932
0.107358
0.106784
0.106208
0.105632
0.105054
0.104474
0.103893
0.10331
0.102725
0.102137
0.101547
0.100954
0.100357
0.0997566
0.0991519
0.0985425
0.0979278
0.0973073
0.0966804
0.0960463
0.0954045
0.0947541
0.0940943
0.0934302
0.0927727
0.0921274
0.0914932
0.0908688
0.0902527
0.0896442
0.0890429
0.0884485
0.0878606
0.087279
0.0867035
0.0861339
0.08557
0.0850116
0.0844585
0.0839103
0.0833669
0.082828
0.0822931
0.0817621
0.0812345
0.0807101
0.0801884
0.0796693
0.0791523
0.0786373
0.0781239
0.0776119
0.0771011
0.0765913
0.0760824
0.0755741
0.0750663
0.0745589
0.0740517
0.0735446
0.0730373
0.0725298
0.0720218
0.0715133
0.0710039
0.0704936
0.0699821
0.0694692
0.0689546
0.0684381
0.0679194
0.0673982
0.0668743
0.0663474
0.0658173
0.0652838
0.0647467
0.064206
0.0636618
0.0631145
0.062565
0.0620149
0.0614668
0.0609243
0.0603921
0.0598746
0.0593743
0.0588876
0.110221
0.10965
0.109079
0.108507
0.107934
0.10736
0.106786
0.10621
0.105633
0.105055
0.104476
0.103895
0.103311
0.102726
0.102139
0.101548
0.100955
0.100358
0.0997577
0.099153
0.0985435
0.0979288
0.0973083
0.0966814
0.0960474
0.0954056
0.0947553
0.0940956
0.0934317
0.0927744
0.0921294
0.0914955
0.0908712
0.0902554
0.0896471
0.089046
0.0884517
0.087864
0.0872826
0.0867073
0.0861379
0.0855742
0.0850159
0.0844629
0.0839149
0.0833716
0.0828328
0.0822981
0.0817672
0.0812397
0.0807154
0.0801939
0.0796748
0.0791579
0.0786429
0.0781294
0.0776174
0.0771066
0.0765966
0.0760875
0.075579
0.0750709
0.0745631
0.0740554
0.0735476
0.0730396
0.0725313
0.0720223
0.0715127
0.0710021
0.0704903
0.0699772
0.0694625
0.068946
0.0684274
0.0679063
0.0673826
0.066856
0.0663262
0.065793
0.0652563
0.0647159
0.0641718
0.0636242
0.0630737
0.0625214
0.061969
0.0614193
0.0608762
0.0603443
0.0598275
0.0593277
0.0588391
0.1125
0.111932
0.111363
0.110793
0.110223
0.109652
0.109081
0.108508
0.107936
0.107362
0.106787
0.106212
0.105635
0.105057
0.104477
0.103896
0.103313
0.102728
0.10214
0.10155
0.100956
0.10036
0.0997591
0.0991544
0.0985449
0.0979302
0.0973097
0.0966828
0.0960489
0.0954072
0.0947569
0.0940974
0.0934336
0.0927766
0.0921319
0.0914983
0.0908743
0.0902587
0.0896507
0.0890498
0.0884557
0.0878682
0.0872869
0.0867118
0.0861426
0.0855791
0.085021
0.0844682
0.0839203
0.0833772
0.0828385
0.082304
0.0817732
0.0812459
0.0807216
0.0802002
0.0796812
0.0791643
0.0786493
0.0781359
0.0776239
0.0771129
0.0766028
0.0760935
0.0755847
0.0750762
0.0745679
0.0740597
0.0735513
0.0730425
0.0725333
0.0720233
0.0715124
0.0710005
0.0704873
0.0699725
0.0694559
0.0689373
0.0684164
0.0678929
0.0673665
0.066837
0.0663042
0.0657678
0.0652277
0.0646838
0.0641363
0.0635853
0.0630316
0.0624765
0.0619219
0.0613709
0.0608275
0.060296
0.0597801
0.0592805
0.0587895
0.112502
0.111934
0.111365
0.110796
0.110225
0.109654
0.109083
0.108511
0.107938
0.107364
0.106789
0.106214
0.105637
0.105059
0.104479
0.103898
0.103315
0.10273
0.102142
0.101552
0.100958
0.100361
0.0997609
0.0991561
0.0985467
0.097932
0.0973115
0.0966847
0.0960508
0.0954092
0.094759
0.0940997
0.0934361
0.0927794
0.0921349
0.0915017
0.090878
0.0902626
0.0896549
0.0890542
0.0884604
0.0878731
0.087292
0.0867171
0.0861481
0.0855848
0.0850269
0.0844743
0.0839266
0.0833837
0.0828451
0.0823107
0.0817801
0.0812529
0.0807288
0.0802074
0.0796885
0.0791717
0.0786567
0.0781433
0.0776312
0.0771201
0.0766099
0.0761003
0.0755911
0.0750823
0.0745735
0.0740646
0.0735555
0.0730459
0.0725357
0.0720246
0.0715125
0.0709991
0.0704842
0.0699676
0.0694491
0.0689283
0.0684049
0.0678788
0.0673497
0.0668172
0.0662812
0.0657414
0.0651979
0.0646504
0.0640993
0.0635449
0.0629881
0.0624302
0.0618737
0.0613216
0.0607781
0.0602475
0.0597327
0.0592324
0.0587383
0.112505
0.111937
0.111368
0.110798
0.110228
0.109657
0.109085
0.108513
0.10794
0.107366
0.106792
0.106216
0.105639
0.105061
0.104481
0.1039
0.103317
0.102732
0.102144
0.101554
0.10096
0.100364
0.099763
0.0991583
0.0985488
0.0979342
0.0973138
0.096687
0.0960532
0.0954116
0.0947616
0.0941024
0.0934391
0.0927827
0.0921385
0.0915056
0.0908823
0.0902672
0.0896597
0.0890593
0.0884657
0.0878787
0.0872979
0.0867232
0.0861544
0.0855913
0.0850336
0.0844812
0.0839337
0.083391
0.0828526
0.0823184
0.0817879
0.0812608
0.0807368
0.0802156
0.0796967
0.07918
0.078665
0.0781515
0.0776393
0.0771281
0.0766177
0.0761078
0.0755983
0.075089
0.0745797
0.0740702
0.0735603
0.0730498
0.0725385
0.0720262
0.0715127
0.0709978
0.0704812
0.0699626
0.069442
0.0689188
0.068393
0.0678641
0.067332
0.0667964
0.066257
0.0657138
0.0651666
0.0646156
0.0640608
0.063503
0.062943
0.0623826
0.0618243
0.0612715
0.0607282
0.0601987
0.0596849
0.0591832
0.0586853
0.114207
0.113642
0.113075
0.112508
0.11194
0.111371
0.110801
0.11023
0.109659
0.109088
0.108516
0.107943
0.107369
0.106794
0.106218
0.105642
0.105063
0.104484
0.103903
0.103319
0.102734
0.102146
0.101556
0.100963
0.100366
0.0997655
0.0991608
0.0985513
0.0979367
0.0973164
0.0966897
0.0960559
0.0954145
0.0947647
0.0941057
0.0934426
0.0927865
0.0921427
0.0915102
0.0908872
0.0902724
0.0896653
0.0890652
0.0884718
0.087885
0.0873045
0.0867301
0.0861615
0.0855986
0.0850412
0.084489
0.0839417
0.0833991
0.082861
0.0823269
0.0817966
0.0812697
0.0807458
0.0802246
0.0797058
0.0791891
0.0786741
0.0781606
0.0776483
0.0771369
0.0766263
0.0761161
0.0756062
0.0750964
0.0745865
0.0740762
0.0735655
0.073054
0.0725415
0.0720279
0.071513
0.0709964
0.070478
0.0699574
0.0694344
0.0689088
0.0683803
0.0678485
0.0673133
0.0667744
0.0662316
0.0656847
0.0651338
0.064579
0.0640206
0.0634594
0.0628964
0.0623336
0.0617738
0.0612205
0.0606779
0.0601494
0.0596365
0.0591327
0.0586307
0.114211
0.113645
0.113078
0.112511
0.111942
0.111373
0.110804
0.110233
0.109662
0.109091
0.108518
0.107945
0.107372
0.106797
0.106221
0.105644
0.105066
0.104487
0.103905
0.103322
0.102737
0.102149
0.101559
0.100966
0.100369
0.0997683
0.0991636
0.0985543
0.0979397
0.0973194
0.0966928
0.0960592
0.0954179
0.0947682
0.0941095
0.0934467
0.0927909
0.0921475
0.0915154
0.0908927
0.0902783
0.0896715
0.0890717
0.0884786
0.0878921
0.0873119
0.0867377
0.0861694
0.0856068
0.0850496
0.0844976
0.0839505
0.0834082
0.0828702
0.0823363
0.0818062
0.0812794
0.0807556
0.0802345
0.0797158
0.0791991
0.0786841
0.0781705
0.0776581
0.0771465
0.0766356
0.076125
0.0756147
0.0751043
0.0745937
0.0740827
0.073571
0.0730584
0.0725448
0.0720298
0.0715132
0.0709949
0.0704745
0.0699517
0.0694264
0.0688982
0.0683668
0.067832
0.0672935
0.0667511
0.0662047
0.0656541
0.0650994
0.0645407
0.0639787
0.063414
0.0628482
0.0622833
0.0617223
0.0611689
0.0606271
0.0601
0.0595871
0.0590806
0.0585744
0.114214
0.113648
0.113081
0.112514
0.111946
0.111377
0.110807
0.110236
0.109665
0.109094
0.108522
0.107949
0.107375
0.1068
0.106224
0.105647
0.105069
0.10449
0.103908
0.103325
0.10274
0.102152
0.101562
0.100969
0.100372
0.0997716
0.0991669
0.0985576
0.0979431
0.0973229
0.0966964
0.0960629
0.0954218
0.0947723
0.0941138
0.0934512
0.0927958
0.0921529
0.0915211
0.0908989
0.0902849
0.0896784
0.0890789
0.0884862
0.0879
0.08732
0.0867461
0.0861781
0.0856157
0.0850588
0.084507
0.0839602
0.0834181
0.0828803
0.0823466
0.0818166
0.08129
0.0807663
0.0802453
0.0797267
0.07921
0.0786949
0.0781812
0.0776686
0.0771568
0.0766456
0.0761346
0.0756238
0.0751128
0.0746015
0.0740896
0.0735769
0.0730631
0.0725481
0.0720316
0.0715134
0.0709931
0.0704706
0.0699455
0.0694177
0.0688867
0.0683523
0.0678143
0.0672724
0.0667264
0.0661762
0.0656217
0.0650631
0.0645006
0.0639349
0.0633669
0.0627984
0.0622316
0.0616698
0.0611167
0.0605761
0.0600505
0.0595365
0.0590263
0.058516
0.114217
0.113651
0.113085
0.112517
0.111949
0.11138
0.11081
0.11024
0.109669
0.109097
0.108525
0.107952
0.107378
0.106803
0.106228
0.105651
0.105073
0.104493
0.103912
0.103329
0.102743
0.102156
0.101566
0.100972
0.100376
0.0997752
0.0991706
0.0985614
0.097947
0.0973268
0.0967004
0.0960671
0.0954261
0.0947768
0.0941186
0.0934564
0.0928013
0.0921588
0.0915275
0.0909057
0.0902921
0.089686
0.0890869
0.0884945
0.0879086
0.0873289
0.0867554
0.0861876
0.0856255
0.0850688
0.0845174
0.0839708
0.0834289
0.0828913
0.0823578
0.0818279
0.0813014
0.0807779
0.080257
0.0797383
0.0792216
0.0787065
0.0781927
0.0776799
0.0771678
0.0766562
0.0761448
0.0756334
0.0751217
0.0746096
0.0740967
0.0735829
0.0730679
0.0725515
0.0720333
0.0715133
0.070991
0.0704662
0.0699387
0.0694081
0.0688742
0.0683366
0.0677952
0.0672498
0.0667
0.0661459
0.0655874
0.0650248
0.0644584
0.0638891
0.063318
0.0627469
0.0621786
0.0616164
0.0610639
0.0605248
0.0600003
0.0594845
0.0589702
0.0584557
0.114221
0.113655
0.113088
0.112521
0.111952
0.111383
0.110814
0.110243
0.109672
0.109101
0.108529
0.107956
0.107382
0.106807
0.106231
0.105655
0.105076
0.104497
0.103916
0.103332
0.102747
0.10216
0.101569
0.100976
0.10038
0.0997792
0.0991747
0.0985655
0.0979512
0.0973312
0.0967049
0.0960717
0.0954309
0.0947819
0.0941239
0.0934621
0.0928074
0.0921653
0.0915346
0.0909132
0.0903
0.0896942
0.0890955
0.0885035
0.087918
0.0873387
0.0867654
0.086198
0.0856362
0.0850798
0.0845285
0.0839822
0.0834405
0.0829032
0.0823698
0.0818401
0.0813138
0.0807903
0.0802694
0.0797508
0.079234
0.0787188
0.0782048
0.0776918
0.0771794
0.0766674
0.0761555
0.0756434
0.075131
0.074618
0.0741041
0.073589
0.0730727
0.0725547
0.0720348
0.0715128
0.0709883
0.0704611
0.069931
0.0693975
0.0688605
0.0683197
0.0677747
0.0672255
0.0666719
0.0661137
0.0655512
0.0649845
0.0644142
0.0638413
0.0632672
0.062694
0.0621245
0.0615622
0.0610108
0.0604733
0.059949
0.0594306
0.058912
0.0583932
0.114225
0.113659
0.113092
0.112524
0.111956
0.111387
0.110818
0.110247
0.109676
0.109105
0.108532
0.107959
0.107386
0.106811
0.106235
0.105659
0.10508
0.104501
0.10392
0.103337
0.102751
0.102164
0.101574
0.10098
0.100384
0.0997836
0.0991792
0.0985701
0.0979559
0.097336
0.0967099
0.0960768
0.0954363
0.0947875
0.0941298
0.0934683
0.0928141
0.0921725
0.0915422
0.0909213
0.0903086
0.0897033
0.0891049
0.0885133
0.0879281
0.0873492
0.0867762
0.0862091
0.0856476
0.0850915
0.0845406
0.0839945
0.0834531
0.0829159
0.0823827
0.0818532
0.0813269
0.0808036
0.0802827
0.0797641
0.0792472
0.0787319
0.0782177
0.0777044
0.0771916
0.0766791
0.0761666
0.0756539
0.0751406
0.0746266
0.0741115
0.0735952
0.0730773
0.0725576
0.0720359
0.0715118
0.070985
0.0704553
0.0699223
0.0693859
0.0688456
0.0683013
0.0677526
0.0671995
0.0666418
0.0660795
0.0655127
0.064942
0.0643679
0.0637915
0.0632146
0.0626395
0.0620693
0.0615074
0.0609576
0.0604217
0.0598965
0.0593742
0.0588515
0.0583284
0.114229
0.113663
0.113096
0.112528
0.11196
0.111391
0.110822
0.110251
0.10968
0.109109
0.108537
0.107964
0.10739
0.106815
0.10624
0.105663
0.105085
0.104505
0.103924
0.103341
0.102756
0.102168
0.101578
0.100985
0.100389
0.0997885
0.0991841
0.0985751
0.097961
0.0973413
0.0967153
0.0960824
0.0954421
0.0947936
0.0941362
0.0934751
0.0928213
0.0921803
0.0915505
0.0909301
0.0903178
0.089713
0.0891151
0.0885239
0.0879391
0.0873605
0.0867879
0.0862211
0.0856599
0.0851041
0.0845535
0.0840077
0.0834665
0.0829295
0.0823965
0.0818671
0.0813409
0.0808176
0.0802968
0.0797781
0.0792612
0.0787456
0.0782312
0.0777175
0.0772043
0.0766913
0.0761781
0.0756646
0.0751504
0.0746353
0.074119
0.0736012
0.0730817
0.0725603
0.0720365
0.0715101
0.0709809
0.0704484
0.0699125
0.0693729
0.0688292
0.0682812
0.0677287
0.0671715
0.0666096
0.066043
0.065472
0.0648972
0.0643193
0.0637397
0.0631603
0.0625837
0.0620131
0.0614522
0.0609039
0.0603694
0.0598423
0.0593158
0.0587888
0.0582614
0.114233
0.113667
0.1131
0.112533
0.111964
0.111395
0.110826
0.110256
0.109685
0.109113
0.108541
0.107968
0.107394
0.10682
0.106244
0.105668
0.105089
0.10451
0.103929
0.103346
0.102761
0.102173
0.101583
0.10099
0.100394
0.0997937
0.0991895
0.0985806
0.0979666
0.097347
0.0967212
0.0960886
0.0954485
0.0948002
0.0941432
0.0934825
0.0928292
0.0921887
0.0915594
0.0909396
0.0903278
0.0897234
0.089126
0.0885352
0.0879508
0.0873726
0.0868004
0.086234
0.0856731
0.0851176
0.0845672
0.0840217
0.0834807
0.0829439
0.0824111
0.0818818
0.0813557
0.0808325
0.0803116
0.0797929
0.0792758
0.07876
0.0782453
0.0777312
0.0772175
0.0767039
0.07619
0.0756755
0.0751603
0.074644
0.0741264
0.0736071
0.0730858
0.0725624
0.0720364
0.0715076
0.0709758
0.0704405
0.0699014
0.0693584
0.0688111
0.0682593
0.0677027
0.0671413
0.0665751
0.0660042
0.065429
0.06485
0.0642685
0.0636859
0.0631043
0.0625267
0.0619563
0.0613968
0.0608505
0.0603159
0.0597857
0.059255
0.0587238
0.058192
0.114238
0.113672
0.113105
0.112537
0.111969
0.1114
0.11083
0.11026
0.10969
0.109118
0.108546
0.107973
0.107399
0.106825
0.106249
0.105673
0.105095
0.104515
0.103934
0.103351
0.102766
0.102179
0.101589
0.100996
0.100399
0.0997994
0.0991953
0.0985865
0.0979727
0.0973532
0.0967276
0.0960952
0.0954553
0.0948074
0.0941507
0.0934905
0.0928377
0.0921977
0.091569
0.0909497
0.0903385
0.0897346
0.0891377
0.0885473
0.0879634
0.0873856
0.0868137
0.0862476
0.0856871
0.0851319
0.0845818
0.0840365
0.0834958
0.0829592
0.0824265
0.0818974
0.0813713
0.0808481
0.0803272
0.0798083
0.079291
0.078775
0.0782599
0.0777454
0.0772311
0.0767167
0.076202
0.0756866
0.0751703
0.0746527
0.0741335
0.0736125
0.0730894
0.0725639
0.0720356
0.0715043
0.0709696
0.0704312
0.0698889
0.0693423
0.0687912
0.0682354
0.0676746
0.0671089
0.0665382
0.0659629
0.0653834
0.0648005
0.0642154
0.0636301
0.0630468
0.0624686
0.0618989
0.0613411
0.0607967
0.0602609
0.0597267
0.0591919
0.0586564
0.0581202
0.114242
0.113676
0.113109
0.112542
0.111974
0.111405
0.110835
0.110265
0.109694
0.109123
0.108551
0.107978
0.107405
0.10683
0.106255
0.105678
0.1051
0.104521
0.10394
0.103357
0.102772
0.102185
0.101595
0.101002
0.100405
0.0998056
0.0992015
0.0985929
0.0979792
0.0973599
0.0967345
0.0961023
0.0954627
0.0948151
0.0941589
0.0934991
0.0928467
0.0922073
0.0915793
0.0909605
0.0903499
0.0897466
0.0891501
0.0885603
0.0879767
0.0873993
0.0868279
0.0862622
0.085702
0.0851471
0.0845973
0.0840523
0.0835117
0.0829753
0.0824428
0.0819137
0.0813877
0.0808644
0.0803434
0.0798244
0.0793069
0.0787905
0.078275
0.0777599
0.077245
0.0767299
0.0762142
0.0756977
0.0751801
0.0746611
0.0741403
0.0736175
0.0730924
0.0725646
0.0720338
0.0714998
0.0709621
0.0704205
0.0698747
0.0693244
0.0687693
0.0682093
0.0676442
0.067074
0.0664989
0.0659191
0.0653353
0.0647485
0.0641602
0.0635724
0.0629878
0.0624096
0.0618412
0.0612853
0.0607419
0.0602039
0.0596654
0.0591263
0.0585865
0.058046
0.114247
0.113681
0.113114
0.112547
0.111978
0.11141
0.11084
0.11027
0.1097
0.109128
0.108556
0.107984
0.10741
0.106836
0.10626
0.105684
0.105106
0.104526
0.103946
0.103363
0.102778
0.102191
0.101601
0.101008
0.100412
0.0998122
0.0992082
0.0985998
0.0979862
0.0973671
0.0967419
0.0961099
0.0954707
0.0948234
0.0941676
0.0935082
0.0928564
0.0922176
0.0915902
0.0909721
0.090362
0.0897593
0.0891633
0.0885739
0.0879909
0.0874139
0.0868429
0.0862775
0.0857177
0.0851631
0.0846136
0.0840688
0.0835285
0.0829923
0.0824598
0.0819308
0.0814048
0.0808815
0.0803603
0.0798411
0.0793233
0.0788065
0.0782905
0.0777748
0.0772591
0.0767431
0.0762264
0.0757088
0.0751898
0.0746692
0.0741467
0.0736219
0.0730946
0.0725644
0.0720309
0.071494
0.0709532
0.0704082
0.0698587
0.0693045
0.0687453
0.0681809
0.0676113
0.0670366
0.0664568
0.0658725
0.0652846
0.0646941
0.0641028
0.0635131
0.0629277
0.0623501
0.0617835
0.0612299
0.0606858
0.060144
0.0596015
0.0590582
0.0585141
0.0579694
0.114252
0.113686
0.113119
0.112552
0.111984
0.111415
0.110846
0.110276
0.109705
0.109134
0.108562
0.107989
0.107416
0.106842
0.106266
0.10569
0.105112
0.104533
0.103952
0.103369
0.102784
0.102197
0.101608
0.101015
0.100419
0.0998192
0.0992154
0.0986071
0.0979937
0.0973748
0.0967498
0.0961181
0.0954791
0.0948323
0.0941768
0.093518
0.0928668
0.0922285
0.0916017
0.0909843
0.0903749
0.0897727
0.0891773
0.0885884
0.0880058
0.0874293
0.0868587
0.0862937
0.0857342
0.08518
0.0846307
0.0840862
0.083546
0.08301
0.0824776
0.0819486
0.0814226
0.0808991
0.0803779
0.0798583
0.0793402
0.078823
0.0783064
0.07779
0.0772734
0.0767564
0.0762386
0.0757196
0.0751991
0.0746769
0.0741524
0.0736256
0.0730959
0.0725631
0.0720268
0.0714868
0.0709426
0.070394
0.0698407
0.0692824
0.0687189
0.0681501
0.0675758
0.0669964
0.066412
0.0658233
0.0652313
0.0646373
0.0640435
0.0634522
0.0628667
0.0622902
0.0617256
0.0611737
0.0606278
0.0600818
0.0595351
0.0589876
0.0584393
0.0578903
0.114258
0.113691
0.113125
0.112557
0.111989
0.111421
0.110851
0.110282
0.109711
0.10914
0.108568
0.107996
0.107422
0.106848
0.106273
0.105696
0.105118
0.104539
0.103959
0.103376
0.102791
0.102204
0.101615
0.101022
0.100426
0.0998266
0.099223
0.0986149
0.0980017
0.097383
0.0967582
0.0961268
0.0954882
0.0948417
0.0941867
0.0935284
0.0928777
0.0922401
0.091614
0.0909972
0.0903884
0.0897869
0.0891921
0.0886037
0.0880216
0.0874456
0.0868753
0.0863108
0.0857516
0.0851977
0.0846487
0.0841044
0.0835644
0.0830284