/*--------------------------------*- C++ -*----------------------------------*\
  =========                 |
  \\      /  F ield         | OpenFOAM: The Open Source CFD Toolbox
   \\    /   O peration     | Website:  https://openfoam.org
    \\  /    A nd           | Version:  10
     \\/     M anipulation  |
\*---------------------------------------------------------------------------*/
FoamFile
{
    format      ascii;
    class       volScalarField;
    location    "16000";
    object      omega;
}
// * * * * * * * * * * * * * * * * * * * * * * * * * * * * * * * * * * * * * //

dimensions      [0 0 -1 0 0 0 0];

internalField   nonuniform List<scalar> 
17922
(
32.5675
31.9137
31.2793
30.6639
30.067
29.488
28.9266
28.3823
27.8546
27.3433
26.8479
26.3681
25.9035
25.4539
25.0189
24.5983
24.1918
23.7992
23.4201
23.0545
22.7021
22.3627
22.0361
21.7221
21.4207
21.1317
20.855
20.5904
20.3401
20.1077
19.8939
19.6973
19.5166
19.3504
19.1976
19.0573
18.9285
18.8106
18.7027
18.6044
18.5149
18.4339
18.3607
18.2948
18.236
18.1837
18.1376
18.0973
18.0625
18.0329
18.0081
17.9879
17.972
17.9601
17.9522
17.9478
17.947
17.9494
17.955
17.9636
17.9751
17.9895
18.0066
18.0265
18.0491
18.0744
18.1025
18.1334
18.1673
18.2041
18.244
18.2873
18.3341
18.3847
18.4393
18.4982
18.5618
18.6305
18.7047
18.7849
18.8716
18.9654
19.0668
19.1766
19.2954
19.4241
19.5633
19.7139
19.8763
20.0506
20.2365
20.4329
20.6383
32.5681
31.9143
31.2799
30.6645
30.0675
29.4886
28.9271
28.3828
27.8552
27.3438
26.8484
26.3686
25.904
25.4544
25.0194
24.5988
24.1922
23.7996
23.4205
23.0549
22.7024
22.363
22.0363
21.7224
21.4209
21.1319
20.8551
20.5905
20.3402
20.1078
19.8939
19.6973
19.5165
19.3503
19.1975
19.0571
18.9283
18.8103
18.7024
18.604
18.5145
18.4334
18.3601
18.2943
18.2354
18.183
18.1369
18.0965
18.0617
18.032
18.0071
17.9869
17.971
17.9591
17.9511
17.9468
17.9459
17.9483
17.9539
17.9626
17.9742
17.9886
18.0059
18.0259
18.0486
18.0741
18.1025
18.1336
18.1677
18.2049
18.2453
18.2891
18.3364
18.3876
18.4429
18.5026
18.5672
18.6369
18.7122
18.7937
18.8817
18.977
19.0801
19.1917
19.3125
19.4434
19.5849
19.7379
19.9028
20.0796
20.268
20.4667
20.6744
32.5687
31.9148
31.2804
30.665
30.0681
29.4891
28.9277
28.3833
27.8557
27.3443
26.8489
26.369
25.9045
25.4548
25.0198
24.5992
24.1926
23.8
23.4209
23.0552
22.7027
22.3633
22.0366
21.7226
21.4211
21.1321
20.8552
20.5906
20.3403
20.1078
19.8939
19.6973
19.5166
19.3503
19.1975
19.0571
18.9282
18.8101
18.7022
18.6038
18.5142
18.433
18.3597
18.2938
18.2349
18.1825
18.1363
18.0959
18.061
18.0312
18.0064
17.9861
17.9701
17.9582
17.9502
17.9459
17.945
17.9475
17.9531
17.9618
17.9735
17.988
18.0054
18.0255
18.0484
18.0742
18.1027
18.1342
18.1686
18.2062
18.247
18.2913
18.3392
18.3911
18.4472
18.5077
18.5732
18.644
18.7205
18.8033
18.8928
18.9897
19.0945
19.208
19.3309
19.4639
19.6078
19.7632
19.9307
20.1101
20.3009
20.502
20.712
32.5692
31.9153
31.281
30.6655
30.0686
29.4896
28.9282
28.3838
27.8562
27.3448
26.8494
26.3695
25.9049
25.4553
25.0203
24.5996
24.1931
23.8004
23.4213
23.0556
22.7031
22.3636
22.0369
21.7229
21.4214
21.1323
20.8554
20.5907
20.3404
20.1079
19.894
19.6974
19.5166
19.3504
19.1975
19.057
18.9281
18.81
18.702
18.6035
18.5139
18.4327
18.3594
18.2934
18.2344
18.182
18.1357
18.0953
18.0603
18.0306
18.0056
17.9853
17.9693
17.9575
17.9494
17.9451
17.9443
17.9468
17.9524
17.9612
17.9729
17.9876
18.0051
18.0254
18.0485
18.0744
18.1033
18.135
18.1698
18.2078
18.2491
18.294
18.3425
18.3951
18.4519
18.5134
18.5799
18.6518
18.7296
18.8137
18.9047
19.0032
19.1099
19.2253
19.3503
19.4856
19.6319
19.7898
19.9598
20.1418
20.335
20.5385
20.7508
32.5697
31.9159
31.2815
30.6661
30.0691
29.4901
28.9287
28.3843
27.8567
27.3453
26.8499
26.37
25.9054
25.4557
25.0207
24.6001
24.1935
23.8008
23.4217
23.056
22.7034
22.3639
22.0372
21.7232
21.4216
21.1325
20.8556
20.5909
20.3405
20.108
19.8941
19.6975
19.5167
19.3504
19.1975
19.057
18.9281
18.8099
18.7019
18.6034
18.5137
18.4325
18.3591
18.293
18.234
18.1815
18.1352
18.0948
18.0598
18.03
18.005
17.9847
17.9687
17.9568
17.9488
17.9444
17.9436
17.9461
17.9519
17.9607
17.9725
17.9873
18.0049
18.0254
18.0487
18.0749
18.104
18.1362
18.1714
18.2098
18.2516
18.297
18.3462
18.3995
18.4572
18.5197
18.5872
18.6603
18.7393
18.8249
18.9175
19.0177
19.1262
19.2437
19.3709
19.5085
19.6572
19.8177
19.9902
20.1747
20.3704
20.5762
20.7907
32.5703
31.9164
31.282
30.6666
30.0696
29.4906
28.9292
28.3848
27.8572
27.3458
26.8503
26.3705
25.9059
25.4562
25.0212
24.6005
24.1939
23.8012
23.4221
23.0563
22.7038
22.3643
22.0375
21.7235
21.4219
21.1327
20.8558
20.591
20.3406
20.1081
19.8942
19.6976
19.5168
19.3505
19.1976
19.0571
18.9281
18.8099
18.7018
18.6033
18.5136
18.4323
18.3588
18.2927
18.2337
18.1811
18.1348
18.0943
18.0593
18.0294
18.0045
17.9841
17.9681
17.9562
17.9482
17.9439
17.9431
17.9457
17.9515
17.9604
17.9723
17.9872
18.005
18.0257
18.0492
18.0757
18.1051
18.1376
18.1732
18.2121
18.2544
18.3005
18.3504
18.4045
18.4631
18.5265
18.5951
18.6694
18.7498
18.8369
18.9311
19.0331
19.1436
19.2631
19.3925
19.5325
19.6837
19.8468
20.0219
20.2089
20.4071
20.6151
20.8318
32.5708
31.9169
31.2825
30.6671
30.0702
29.4912
28.9297
28.3854
27.8577
27.3463
26.8508
26.371
25.9064
25.4567
25.0216
24.601
24.1944
23.8016
23.4225
23.0567
22.7042
22.3646
22.0379
21.7238
21.4222
21.133
20.856
20.5912
20.3408
20.1083
19.8944
19.6978
19.517
19.3507
19.1977
19.0571
18.9281
18.8099
18.7018
18.6032
18.5135
18.4321
18.3586
18.2925
18.2334
18.1808
18.1344
18.0939
18.0588
18.029
18.004
17.9836
17.9676
17.9557
17.9477
17.9434
17.9427
17.9453
17.9512
17.9602
17.9723
17.9873
18.0053
18.0261
18.0499
18.0767
18.1064
18.1393
18.1754
18.2148
18.2577
18.3044
18.3551
18.41
18.4695
18.534
18.6038
18.6793
18.7611
18.8497
18.9456
19.0495
19.1619
19.2836
19.4153
19.5577
19.7115
19.8772
20.0549
20.2444
20.4449
20.6551
20.8739
32.5714
31.9175
31.2831
30.6677
30.0707
29.4917
28.9302
28.3859
27.8582
27.3468
26.8514
26.3715
25.9069
25.4572
25.0221
24.6014
24.1948
23.8021
23.4229
23.0572
22.7046
22.365
22.0382
21.7241
21.4225
21.1332
20.8563
20.5915
20.341
20.1085
19.8946
19.698
19.5172
19.3508
19.1978
19.0573
18.9282
18.81
18.7018
18.6032
18.5134
18.432
18.3585
18.2923
18.2332
18.1806
18.1342
18.0936
18.0585
18.0286
18.0036
17.9832
17.9672
17.9553
17.9474
17.9431
17.9424
17.9451
17.9511
17.9602
17.9724
17.9876
18.0057
18.0268
18.0509
18.078
18.1081
18.1413
18.1779
18.2178
18.2614
18.3087
18.3602
18.416
18.4765
18.5421
18.6131
18.69
18.7732
18.8634
18.9611
19.0669
19.1814
19.3053
19.4393
19.5842
19.7405
19.9088
20.0891
20.2811
20.4838
20.6961
20.9171
32.5719
31.918
31.2836
30.6682
30.0712
29.4923
28.9308
28.3864
27.8587
27.3473
26.8519
26.372
25.9074
25.4577
25.0226
24.6019
24.1953
23.8025
23.4234
23.0576
22.705
22.3654
22.0386
21.7244
21.4228
21.1335
20.8565
20.5917
20.3412
20.1087
19.8948
19.6982
19.5174
19.3511
19.198
19.0574
18.9283
18.8101
18.7019
18.6032
18.5134
18.432
18.3584
18.2922
18.233
18.1804
18.1339
18.0933
18.0582
18.0283
18.0033
17.9829
17.9669
17.955
17.9471
17.9429
17.9423
17.945
17.9511
17.9603
17.9727
17.988
18.0064
18.0277
18.0521
18.0795
18.11
18.1437
18.1807
18.2213
18.2655
18.3136
18.3659
18.4226
18.4841
18.5508
18.6231
18.7014
18.7862
18.8781
18.9775
19.0853
19.2019
19.328
19.4645
19.6119
19.7708
19.9417
20.1245
20.3189
20.5239
20.7382
20.9612
32.5725
31.9186
31.2842
30.6688
30.0718
29.4928
28.9313
28.387
27.8593
27.3479
26.8524
26.3725
25.9079
25.4582
25.0231
24.6024
24.1958
23.803
23.4239
23.0581
22.7054
22.3658
22.039
21.7248
21.4231
21.1338
20.8568
20.592
20.3415
20.1089
19.8951
19.6985
19.5177
19.3513
19.1983
19.0576
18.9285
18.8102
18.702
18.6033
18.5134
18.432
18.3584
18.2922
18.2329
18.1803
18.1338
18.0932
18.058
18.0281
18.0031
17.9827
17.9667
17.9549
17.947
17.9428
17.9422
17.9451
17.9513
17.9606
17.9731
17.9887
18.0073
18.0289
18.0536
18.0813
18.1122
18.1464
18.184
18.2251
18.27
18.3189
18.3721
18.4298
18.4924
18.5603
18.6338
18.7136
18.8
18.8936
18.995
19.1047
19.2235
19.352
19.4908
19.6408
19.8023
19.9758
20.1612
20.3579
20.565
20.7813
21.0062
32.5731
31.9192
31.2848
30.6694
30.0724
29.4934
28.9319
28.3875
27.8598
27.3484
26.853
26.3731
25.9085
25.4587
25.0237
24.603
24.1963
23.8035
23.4243
23.0585
22.7059
22.3662
22.0394
21.7252
21.4235
21.1342
20.8571
20.5923
20.3418
20.1092
19.8953
19.6988
19.518
19.3516
19.1985
19.0579
18.9287
18.8104
18.7022
18.6034
18.5135
18.432
18.3584
18.2922
18.2329
18.1802
18.1337
18.0931
18.0579
18.028
18.003
17.9826
17.9666
17.9548
17.9469
17.9428
17.9423
17.9453
17.9516
17.9611
17.9738
17.9896
18.0084
18.0303
18.0553
18.0834
18.1148
18.1495
18.1876
18.2294
18.275
18.3247
18.3788
18.4375
18.5013
18.5704
18.6454
18.7266
18.8147
18.9101
19.0134
19.1252
19.2462
19.3771
19.5184
19.6709
19.8351
20.0112
20.199
20.398
20.6072
20.8254
21.0523
32.5737
31.9198
31.2854
30.6699
30.073
29.494
28.9325
28.3881
27.8604
27.349
26.8535
26.3737
25.909
25.4593
25.0242
24.6035
24.1969
23.8041
23.4248
23.059
22.7064
22.3667
22.0398
21.7256
21.4239
21.1346
20.8575
20.5926
20.3421
20.1095
19.8957
19.6991
19.5183
19.3519
19.1988
19.0582
18.929
18.8106
18.7024
18.6036
18.5137
18.4322
18.3585
18.2922
18.2329
18.1802
18.1337
18.093
18.0579
18.0279
18.0029
17.9826
17.9666
17.9548
17.947
17.943
17.9426
17.9457
17.9521
17.9618
17.9746
17.9906
18.0097
18.032
18.0573
18.0859
18.1177
18.1529
18.1916
18.2341
18.2805
18.3311
18.3861
18.4459
18.5108
18.5813
18.6577
18.7405
18.8303
18.9275
19.0328
19.1468
19.2701
19.4033
19.5472
19.7023
19.8691
20.0477
20.238
20.4392
20.6503
20.8703
21.0993
32.5743
31.9204
31.286
30.6706
30.0736
29.4946
28.9331
28.3887
27.861
27.3496
26.8541
26.3742
25.9096
25.4599
25.0248
24.6041
24.1974
23.8046
23.4254
23.0595
22.7069
22.3672
22.0403
21.726
21.4243
21.1349
20.8578
20.593
20.3424
20.1099
19.896
19.6995
19.5187
19.3523
19.1992
19.0585
18.9293
18.8109
18.7026
18.6038
18.5139
18.4323
18.3586
18.2924
18.233
18.1803
18.1338
18.0931
18.0579
18.028
18.003
17.9826
17.9667
17.955
17.9472
17.9433
17.943
17.9462
17.9527
17.9626
17.9757
17.9919
18.0113
18.0339
18.0596
18.0886
18.1209
18.1567
18.1961
18.2393
18.2865
18.338
18.394
18.455
18.5211
18.5929
18.6708
18.7553
18.8468
18.9459
19.0533
19.1695
19.2951
19.4308
19.5772
19.7349
19.9043
20.0855
20.2781
20.4814
20.6944
20.9161
21.1472
32.5749
31.921
31.2866
30.6712
30.0742
29.4952
28.9337
28.3893
27.8616
27.3502
26.8547
26.3749
25.9102
25.4605
25.0254
24.6046
24.198
23.8052
23.4259
23.0601
22.7074
22.3677
22.0408
21.7265
21.4247
21.1354
20.8582
20.5933
20.3428
20.1103
19.8964
19.6999
19.5191
19.3527
19.1996
19.0589
18.9297
18.8113
18.703
18.6041
18.5142
18.4326
18.3589
18.2925
18.2332
18.1805
18.1339
18.0932
18.0581
18.0281
18.0031
17.9828
17.9669
17.9552
17.9476
17.9437
17.9435
17.9468
17.9536
17.9636
17.9769
17.9934
18.0131
18.0361
18.0622
18.0917
18.1245
18.1609
18.201
18.2449
18.293
18.3455
18.4026
18.4646
18.5321
18.6053
18.6848
18.7709
18.8643
18.9654
19.0748
19.1933
19.3212
19.4594
19.6085
19.7688
19.9407
20.1243
20.3192
20.5245
20.7392
20.9626
21.196
32.5756
31.9217
31.2873
30.6718
30.0748
29.4958
28.9343
28.39
27.8623
27.3509
26.8554
26.3755
25.9108
25.4611
25.026
24.6053
24.1986
23.8057
23.4265
23.0606
22.7079
22.3682
22.0413
21.727
21.4252
21.1358
20.8587
20.5937
20.3432
20.1107
19.8968
19.7003
19.5195
19.3531
19.2
19.0593
18.9301
18.8117
18.7033
18.6045
18.5145
18.4329
18.3591
18.2928
18.2335
18.1807
18.1341
18.0934
18.0583
18.0284
18.0034
17.9831
17.9672
17.9556
17.948
17.9443
17.9442
17.9477
17.9546
17.9649
17.9784
17.9952
18.0152
18.0385
18.0651
18.0951
18.1285
18.1655
18.2063
18.2511
18.3001
18.3535
18.4117
18.475
18.5438
18.6185
18.6996
18.7875
18.8827
18.9859
19.0975
19.2182
19.3486
19.4893
19.6409
19.8038
19.9783
20.1643
20.3613
20.5684
20.7847
21.0097
21.2457
32.5763
31.9224
31.288
30.6725
30.0755
29.4965
28.935
28.3906
27.8629
27.3515
26.856
26.3761
25.9115
25.4617
25.0266
24.6059
24.1992
23.8064
23.4271
23.0612
22.7085
22.3687
22.0418
21.7275
21.4257
21.1363
20.8591
20.5942
20.3436
20.1111
19.8973
19.7008
19.52
19.3536
19.2005
19.0598
18.9305
18.8121
18.7037
18.6049
18.5149
18.4332
18.3595
18.2931
18.2338
18.181
18.1344
18.0937
18.0586
18.0287
18.0037
17.9835
17.9677
17.9561
17.9486
17.945
17.945
17.9487
17.9558
17.9663
17.9801
17.9972
18.0176
18.0413
18.0683
18.0988
18.1328
18.1706
18.2121
18.2577
18.3077
18.3622
18.4215
18.4861
18.5563
18.6326
18.7153
18.805
18.9022
19.0074
19.1212
19.2442
19.3771
19.5203
19.6745
19.84
20.0169
20.2052
20.4043
20.6132
20.831
21.0576
21.2963
35.3972
34.6603
33.9451
33.2509
32.577
31.9231
31.2887
30.6732
30.0762
29.4972
28.9357
28.3913
27.8636
27.3522
26.8567
26.3768
25.9122
25.4624
25.0273
24.6065
24.1999
23.807
23.4277
23.0618
22.7091
22.3693
22.0424
21.728
21.4262
21.1367
20.8596
20.5946
20.3441
20.1116
19.8978
19.7013
19.5206
19.3542
19.2011
19.0603
18.9311
18.8126
18.7042
18.6053
18.5153
18.4337
18.3599
18.2935
18.2341
18.1814
18.1348
18.0941
18.059
18.0291
18.0042
17.984
17.9682
17.9568
17.9494
17.9458
17.946
17.9499
17.9572
17.9679
17.982
17.9994
18.0202
18.0444
18.0719
18.103
18.1376
18.176
18.2184
18.2649
18.3158
18.3714
18.432
18.498
18.5696
18.6475
18.7319
18.8234
18.9226
19.0299
19.146
19.2714
19.4068
19.5526
19.7093
19.8773
20.0567
20.2471
20.4481
20.6586
20.8779
21.1062
21.3478
35.398
34.661
33.9457
33.2515
32.5777
31.9238
31.2894
30.6739
30.0769
29.4979
28.9364
28.392
27.8643
27.3529
26.8574
26.3775
25.9129
25.4631
25.028
24.6072
24.2005
23.8077
23.4284
23.0625
22.7097
22.3699
22.0429
21.7286
21.4267
21.1373
20.8601
20.5951
20.3446
20.1121
19.8983
19.7019
19.5211
19.3547
19.2016
19.0609
18.9316
18.8131
18.7048
18.6058
18.5158
18.4342
18.3604
18.294
18.2346
18.1818
18.1352
18.0946
18.0594
18.0296
18.0047
17.9846
17.9689
17.9575
17.9502
17.9468
17.9472
17.9512
17.9588
17.9698
17.9842
18.002
18.0231
18.0477
18.0758
18.1075
18.1428
18.182
18.2252
18.2727
18.3246
18.3814
18.4432
18.5105
18.5837
18.6632
18.7494
18.8429
18.9441
19.0536
19.172
19.2998
19.4376
19.586
19.7452
19.9157
20.0974
20.2899
20.4926
20.7046
20.9251
21.1556
21.4004
35.3988
34.6618
33.9465
33.2522
32.5784
31.9246
31.2902
30.6747
30.0777
29.4987
28.9372
28.3928
27.8651
27.3537
26.8582
26.3783
25.9136
25.4638
25.0287
24.6079
24.2012
23.8083
23.429
23.0631
22.7103
22.3705
22.0435
21.7292
21.4273
21.1378
20.8606
20.5957
20.3451
20.1126
19.8989
19.7025
19.5218
19.3554
19.2023
19.0615
18.9322
18.8137
18.7053
18.6064
18.5164
18.4347
18.3609
18.2945
18.2351
18.1823
18.1358
18.0951
18.06
18.0302
18.0054
17.9853
17.9697
17.9584
17.9513
17.948
17.9486
17.9528
17.9606
17.9718
17.9866
18.0048
18.0264
18.0515
18.0801
18.1124
18.1484
18.1884
18.2325
18.281
18.334
18.392
18.4551
18.5239
18.5987
18.6798
18.7679
18.8633
18.9666
19.0783
19.199
19.3293
19.4696
19.6205
19.7823
19.9551
20.139
20.3335
20.5378
20.751
20.9729
21.2057
21.454
37.7477
36.9415
36.1591
35.3996
34.6626
33.9472
33.2529
32.5792
31.9253
31.2909
30.6755
30.0785
29.4995
28.938
28.3936
27.8659
27.3544
26.859
26.379
25.9144
25.4646
25.0295
24.6087
24.202
23.8091
23.4298
23.0638
22.711
22.3712
22.0442
21.7298
21.4279
21.1384
20.8612
20.5962
20.3457
20.1132
19.8995
19.7031
19.5224
19.356
19.2029
19.0621
18.9329
18.8144
18.706
18.607
18.517
18.4353
18.3615
18.2951
18.2357
18.1829
18.1364
18.0958
18.0607
18.0309
18.0061
17.9861
17.9706
17.9595
17.9524
17.9493
17.9501
17.9545
17.9626
17.9742
17.9892
18.0078
18.0299
18.0555
18.0848
18.1177
18.1545
18.1953
18.2404
18.2898
18.344
18.4032
18.4678
18.5381
18.6144
18.6974
18.7873
18.8847
18.9902
19.1041
19.2272
19.3599
19.5027
19.6561
19.8203
19.9955
20.1815
20.3778
20.5835
20.798
21.0212
21.2565
21.5084
37.7487
36.9424
36.1599
35.4004
34.6634
33.948
33.2537
32.58
31.9261
31.2918
30.6763
30.0793
29.5003
28.9388
28.3944
27.8667
27.3553
26.8598
26.3798
25.9152
25.4654
25.0302
24.6094
24.2027
23.8098
23.4305
23.0645
22.7117
22.3719
22.0448
21.7304
21.4285
21.139
20.8618
20.5968
20.3463
20.1138
19.9002
19.7038
19.5231
19.3567
19.2036
19.0629
18.9336
18.8151
18.7067
18.6077
18.5177
18.436
18.3622
18.2958
18.2364
18.1836
18.1371
18.0965
18.0615
18.0317
18.007
17.9871
17.9717
17.9606
17.9537
17.9508
17.9518
17.9565
17.9648
17.9767
17.9922
18.0112
18.0338
18.0599
18.0898
18.1235
18.1611
18.2028
18.2488
18.2993
18.3547
18.4152
18.4812
18.553
18.6311
18.7158
18.8077
18.9071
19.0148
19.131
19.2565
19.3916
19.5369
19.6928
19.8594
20.0368
20.2248
20.4226
20.6297
20.8452
21.07
21.3082
21.5637
37.7497
36.9433
36.1608
35.4013
34.6642
33.9488
33.2545
32.5808
31.927
31.2926
30.6772
30.0802
29.5011
28.9396
28.3952
27.8675
27.3561
26.8606
26.3807
25.916
25.4662
25.0311
24.6103
24.2035
23.8106
23.4313
23.0653
22.7125
22.3726
22.0455
21.7311
21.4292
21.1396
20.8624
20.5974
20.3469
20.1145
19.9009
19.7045
19.5239
19.3575
19.2044
19.0636
18.9344
18.8159
18.7074
18.6085
18.5184
18.4367
18.3629
18.2965
18.2372
18.1844
18.1379
18.0973
18.0623
18.0327
18.008
17.9882
17.9729
17.962
17.9552
17.9525
17.9537
17.9586
17.9673
17.9795
17.9954
18.0149
18.038
18.0647
18.0953
18.1297
18.1681
18.2107
18.2578
18.3095
18.3661
18.4279
18.4954
18.5688
18.6486
18.7352
18.829
18.9306
19.0404
19.159
19.2869
19.4245
19.5722
19.7305
19.8994
20.0789
20.2687
20.468
20.6761
20.8926
21.1195
21.3609
21.6198
37.7507
36.9443
36.1617
35.4022
34.6651
33.9497
33.2554
32.5816
31.9279
31.2935
30.6781
30.0811
29.502
28.9405
28.3961
27.8684
27.357
26.8615
26.3815
25.9168
25.4671
25.0319
24.6111
24.2043
23.8114
23.4321
23.0661
22.7132
22.3733
22.0463
21.7318
21.4299
21.1403
20.863
20.5981
20.3476
20.1151
19.9016
19.7053
19.5246
19.3583
19.2052
19.0645
18.9352
18.8167
18.7083
18.6093
18.5193
18.4376
18.3637
18.2974
18.238
18.1853
18.1388
18.0982
18.0633
18.0337
18.0091
17.9894
17.9742
17.9634
17.9569
17.9544
17.9558
17.961
17.97
17.9826
17.9989
18.0189
18.0425
18.0699
18.1011
18.1363
18.1756
18.2192
18.2673
18.3202
18.3781
18.4414
18.5104
18.5855
18.667
18.7555
18.8514
18.9551
19.0672
19.1881
19.3183
19.4583
19.6085
19.7691
19.9402
20.1217
20.3131
20.5136
20.7228
20.9404
21.1695
21.4144
21.6767
37.7517
36.9452
36.1626
35.4031
34.666
33.9506
33.2563
32.5826
31.9288
31.2944
30.679
30.082
29.503
28.9415
28.3971
27.8693
27.3579
26.8624
26.3824
25.9177
25.468
25.0328
24.612
24.2052
23.8123
23.4329
23.0669
22.714
22.3741
22.047
21.7325
21.4306
21.141
20.8637
20.5988
20.3482
20.1159
19.9023
19.7061
19.5255
19.3592
19.2061
19.0653
18.9361
18.8176
18.7091
18.6102
18.5201
18.4384
18.3646
18.2983
18.2389
18.1862
18.1398
18.0993
18.0644
18.0348
18.0104
17.9907
17.9757
17.9651
17.9587
17.9564
17.9581
17.9636
17.9729
17.986
18.0027
18.0232
18.0474
18.0755
18.1075
18.1435
18.1837
18.2283
18.2775
18.3316
18.3909
18.4556
18.5262
18.603
18.6863
18.7768
18.8747
18.9806
19.0949
19.2182
19.3508
19.4932
19.6458
19.8087
19.9818
20.1651
20.3579
20.5595
20.7695
20.9885
21.2204
21.4686
21.7343
37.7528
36.9463
36.1636
35.404
34.6669
33.9515
33.2573
32.5835
31.9297
31.2954
30.6799
30.083
29.5039
28.9424
28.398
27.8703
27.3588
26.8633
26.3834
25.9187
25.4689
25.0337
24.6129
24.2061
23.8131
23.4338
23.0677
22.7148
22.3749
22.0478
21.7333
21.4313
21.1417
20.8645
20.5995
20.349
20.1166
19.9031
19.7069
19.5263
19.3601
19.207
19.0663
18.937
18.8185
18.7101
18.6111
18.5211
18.4394
18.3656
18.2993
18.2399
18.1872
18.1408
18.1004
18.0656
18.0361
18.0117
17.9922
17.9773
17.9669
17.9607
17.9587
17.9606
17.9665
17.9761
17.9896
18.0069
18.0279
18.0527
18.0815
18.1142
18.1511
18.1923
18.238
18.2884
18.3437
18.4044
18.4706
18.5428
18.6213
18.7066
18.799
18.899
19.0071
19.1237
19.2493
19.3843
19.5291
19.684
19.849
20.0241
20.2089
20.403
20.6055
20.8163
21.0371
21.272
21.5235
21.7925
37.7539
36.9473
36.1646
35.4051
34.6679
33.9525
33.2582
32.5845
31.9307
31.2964
30.6809
30.084
29.5049
28.9434
28.399
27.8713
27.3598
26.8643
26.3844
25.9197
25.4699
25.0347
24.6138
24.207
23.8141
23.4346
23.0686
22.7157
22.3758
22.0486
21.7341
21.4321
21.1425
20.8652
20.6002
20.3497
20.1174
19.904
19.7078
19.5273
19.361
19.208
19.0672
18.938
18.8195
18.7111
18.6122
18.5221
18.4404
18.3667
18.3003
18.241
18.1884
18.142
18.1016
18.0669
18.0375
18.0132
17.9938
17.9791
17.9689
17.9629
17.9611
17.9634
17.9696
17.9796
17.9936
18.0113
18.0329
18.0584
18.0879
18.1215
18.1593
18.2015
18.2482
18.2999
18.3566
18.4186
18.4864
18.5603
18.6406
18.7278
18.8222
18.9243
19.0346
19.1535
19.2814
19.4188
19.5659
19.7229
19.89
20.0669
20.2531
20.4482
20.6515
20.8632
21.0862
21.3244
21.5791
21.8513
37.7551
36.9484
36.1657
35.4061
34.6689
33.9535
33.2593
32.5855
31.9318
31.2974
30.682
30.085
29.506
28.9445
28.4001
27.8723
27.3609
26.8654
26.3854
25.9207
25.4709
25.0357
24.6148
24.208
23.815
23.4356
23.0695
22.7166
22.3766
22.0495
21.7349
21.4329
21.1433
20.866
20.601
20.3506
20.1182
19.9048
19.7087
19.5282
19.362
19.209
19.0683
18.9391
18.8206
18.7122
18.6132
18.5232
18.4415
18.3678
18.3015
18.2422
18.1896
18.1433
18.103
18.0683
18.039
18.0149
17.9956
17.9811
17.971
17.9653
17.9638
17.9663
17.9729
17.9834
17.9978
18.0161
18.0383
18.0645
18.0948
18.1292
18.168
18.2112
18.2591
18.312
18.3701
18.4336
18.503
18.5786
18.6608
18.7498
18.8463
18.9506
19.0631
19.1843
19.3145
19.4542
19.6035
19.7626
19.9316
20.11
20.2975
20.4934
20.6974
20.9104
21.1361
21.3774
21.6352
21.9106
37.7563
36.9496
36.1668
35.4072
34.67
33.9546
33.2603
32.5866
31.9328
31.2985
30.6831
30.0861
29.5071
28.9456
28.4011
27.8734
27.362
26.8664
26.3865
25.9217
25.4719
25.0367
24.6158
24.209
23.816
23.4365
23.0705
22.7175
22.3775
22.0503
21.7358
21.4337
21.1441
20.8668
20.6018
20.3514
20.1191
19.9058
19.7097
19.5292
19.3631
19.2101
19.0694
18.9402
18.8217
18.7133
18.6144
18.5244
18.4427
18.369
18.3027
18.2435
18.1909
18.1447
18.1044
18.0698
18.0407
18.0167
17.9976
17.9832
17.9734
17.9679
17.9667
17.9696
17.9765
17.9875
18.0024
18.0213
18.0441
18.0711
18.1021
18.1375
18.1772
18.2215
18.2707
18.3248
18.3843
18.4494
18.5205
18.5978
18.6818
18.7729
18.8714
18.9778
19.0926
19.216
19.3485
19.4904
19.6419
19.803
19.9736
20.1535
20.342
20.5386
20.7431
20.958
21.1866
21.431
21.6919
21.9704
37.7575
36.9508
36.168
35.4083
34.6712
33.9557
33.2615
32.5877
31.934
31.2996
30.6842
30.0872
29.5082
28.9467
28.4023
27.8745
27.3631
26.8675
26.3876
25.9228
25.473
25.0378
24.6169
24.21
23.817
23.4375
23.0714
22.7185
22.3785
22.0512
21.7367
21.4346
21.145
20.8677
20.6027
20.3523
20.12
19.9067
19.7107
19.5303
19.3641
19.2112
19.0705
18.9413
18.8229
18.7145
18.6156
18.5256
18.444
18.3703
18.304
18.2449
18.1923
18.1462
18.106
18.0715
18.0425
18.0186
17.9997
17.9855
17.9759
17.9707
17.9698
17.9731
17.9804
17.9919
18.0073
18.0268
18.0504
18.078
18.11
18.1462
18.187
18.2325
18.2828
18.3384
18.3993
18.466
18.5387
18.6178
18.7037
18.7968
18.8974
19.006
19.1229
19.2486
19.3833
19.5274
19.6809
19.8439
20.016
20.1971
20.3864
20.5835
20.789
21.006
21.2377
21.4851
21.749
22.0305
37.7587
36.952
36.1692
35.4095
34.6723
33.9569
33.2626
32.5889
31.9351
31.3008
30.6854
30.0884
29.5094
28.9479
28.4034
27.8757
27.3642
26.8687
26.3887
25.9239
25.4741
25.0389
24.618
24.2111
23.8181
23.4386
23.0724
22.7195
22.3794
22.0522
21.7376
21.4355
21.1458
20.8686
20.6036
20.3532
20.121
19.9077
19.7117
19.5314
19.3653
19.2124
19.0717
18.9426
18.8241
18.7158
18.6169
18.5269
18.4453
18.3717
18.3055
18.2463
18.1939
18.1478
18.1077
18.0733
18.0444
18.0207
18.0019
17.988
17.9786
17.9737
17.9732
17.9768
17.9846
17.9966
18.0126
18.0327
18.057
18.0855
18.1183
18.1555
18.1974
18.244
18.2957
18.3526
18.415
18.4833
18.5578
18.6387
18.7265
18.8216
18.9243
19.0351
19.1542
19.2821
19.419
19.5651
19.7205
19.8851
20.0586
20.2406
20.4305
20.6281
20.835
21.0548
21.2894
21.5396
21.8065
22.0908
37.7601
36.9533
36.1704
35.4108
34.6735
33.9581
33.2638
32.5901
31.9364
31.302
30.6866
30.0896
29.5106
28.9491
28.4047
27.8769
27.3654
26.8699
26.3899
25.9251
25.4753
25.04
24.6191
24.2122
23.8192
23.4397
23.0735
22.7205
22.3804
22.0532
21.7385
21.4364
21.1468
20.8695
20.6045
20.3541
20.1219
19.9087
19.7128
19.5325
19.3665
19.2136
19.073
18.9439
18.8255
18.7171
18.6183
18.5283
18.4468
18.3731
18.307
18.2479
18.1955
18.1495
18.1095
18.0752
18.0465
18.0229
18.0044
17.9906
17.9816
17.977
17.9768
17.9808
17.9891
18.0016
18.0182
18.039
18.064
18.0934
18.1271
18.1654
18.2083
18.2562
18.3092
18.3675
18.4315
18.5015
18.5777
18.6605
18.7502
18.8473
18.9521
19.065
19.1863
19.3163
19.4553
19.6034
19.7605
19.9266
20.1013
20.284
20.4744
20.6725
20.8813
21.104
21.3414
21.5946
21.8642
22.1513
37.7614
36.9546
36.1717
35.412
34.6748
33.9594
33.2651
32.5914
31.9376
31.3033
30.6879
30.0909
29.5119
28.9504
28.4059
27.8782
27.3667
26.8711
26.3911
25.9263
25.4765
25.0412
24.6203
24.2134
23.8203
23.4408
23.0746
22.7215
22.3815
22.0542
21.7395
21.4374
21.1477
20.8704
20.6055
20.3551
20.123
19.9098
19.714
19.5337
19.3677
19.2149
19.0743
18.9452
18.8268
18.7185
18.6197
18.5298
18.4483
18.3747
18.3086
18.2496
18.1972
18.1513
18.1114
18.0773
18.0487
18.0253
18.007
17.9935
17.9847
17.9805
17.9806
17.9852
17.9939
18.007
18.0242
18.0457
18.0716
18.1018
18.1365
18.1758
18.2199
18.269
18.3234
18.3832
18.4488
18.5204
18.5984
18.683
18.7748
18.8739
18.9808
19.0958
19.2192
19.3513
19.4922
19.6421
19.8009
19.9682
20.1438
20.327
20.5177
20.7171
20.9283
21.1537
21.3939
21.6498
21.9221
22.2119
37.7628
36.956
36.1731
35.4134
34.6761
33.9607
33.2664
32.5927
31.9389
31.3046
30.6892
30.0922
29.5132
28.9517
28.4072
27.8795
27.368
26.8724
26.3924
25.9276
25.4777
25.0424
24.6215
24.2146
23.8214
23.4419
23.0757
22.7226
22.3825
22.0552
21.7405
21.4384
21.1487
20.8714
20.6065
20.3561
20.124
19.9109
19.7151
19.5349
19.369
19.2162
19.0757
18.9466
18.8283
18.72
18.6212
18.5314
18.4499
18.3763
18.3103
18.2513
18.1991
18.1533
18.1135
18.0795
18.0511
18.0279
18.0098
17.9966
17.9881
17.9842
17.9848
17.9898
17.9991
18.0127
18.0306
18.0529
18.0795
18.1106
18.1463
18.1868
18.2321
18.2825
18.3383
18.3996
18.4668
18.5401
18.6199
18.7064
18.8001
18.9013
19.0102
19.1273
19.2528
19.3869
19.5297
19.6813
19.8414
20.0098
20.186
20.3696
20.5607
20.7618
20.9757
21.2037
21.4466
21.7051
21.9801
22.2725
37.7642
36.9574
36.1745
35.4147
34.6775
33.962
33.2678
32.594
31.9403
31.306
30.6906
30.0936
29.5145
28.953
28.4086
27.8808
27.3693
26.8737
26.3937
25.9289
25.479
25.0437
24.6227
24.2158
23.8226
23.4431
23.0768
22.7237
22.3836
22.0563
21.7416
21.4394
21.1497
20.8724
20.6075
20.3572
20.1251
19.912
19.7163
19.5362
19.3703
19.2176
19.0771
18.9481
18.8298
18.7216
18.6228
18.533
18.4516
18.3781
18.3121
18.2532
18.2011
18.1553
18.1157
18.0819
18.0536
18.0306
18.0128
17.9999
17.9917
17.9882
17.9892
17.9947
18.0046
18.0188
18.0374
18.0605
18.088
18.12
18.1568
18.1984
18.2449
18.2967
18.3539
18.4168
18.4856
18.5606
18.6422
18.7307
18.8263
18.9295
19.0405
19.1596
19.287
19.423
19.5676
19.7206
19.882
20.0512
20.2278
20.4117
20.6037
20.8069
21.0235
21.2541
21.4996
21.7606
22.0381
22.3329
37.7657
36.9588
36.1759
35.4162
34.6789
33.9634
33.2692
32.5954
31.9417
31.3074
30.692
30.095
29.516
28.9544
28.41
27.8822
27.3707
26.8751
26.395
25.9302
25.4803
25.045
24.624
24.217
23.8239
23.4443
23.078
22.7249
22.3847
22.0573
21.7426
21.4405
21.1508
20.8735
20.6085
20.3583
20.1262
19.9132
19.7175
19.5375
19.3717
19.219
19.0786
18.9497
18.8314
18.7232
18.6245
18.5347
18.4533
18.3799
18.314
18.2552
18.2032
18.1576
18.1181
18.0844
18.0563
18.0336
18.016
18.0034
17.9956
17.9925
17.9939
17.9999
18.0104
18.0253
18.0446
18.0685
18.0969
18.13
18.1678
18.2105
18.2584
18.3115
18.3702
18.4346
18.5051
18.5819
18.6653
18.7556
18.8532
18.9584
19.0714
19.1925
19.3218
19.4596
19.6057
19.7601
19.9224
20.0922
20.2692
20.4533
20.6468
20.8525
21.0715
21.3047
21.5526
21.8161
22.096
22.393
38.5987
37.7672
36.9603
36.1774
35.4176
34.6804
33.9649
33.2706
32.5969
31.9431
31.3088
30.6934
30.0964
29.5174
28.9559
28.4114
27.8836
27.3721
26.8765
26.3964
25.9316
25.4817
25.0463
24.6253
24.2183
23.8251
23.4455
23.0792
22.726
22.3859
22.0585
21.7437
21.4415
21.1518
20.8745
20.6096
20.3594
20.1274
19.9144
19.7188
19.5388
19.3731
19.2205
19.0802
18.9513
18.8331
18.7249
18.6262
18.5365
18.4552
18.3818
18.316
18.2573
18.2054
18.1599
18.1206
18.0871
18.0592
18.0367
18.0194
18.0071
17.9997
17.997
17.999
18.0055
18.0166
18.0322
18.0523
18.077
18.1063
18.1404
18.1793
18.2233
18.2725
18.327
18.3872
18.4532
18.5253
18.6039
18.6891
18.7814
18.8809
18.988
19.1029
19.2259
19.357
19.4964
19.644
19.7994
19.9625
20.1327
20.3098
20.4947
20.6901
20.8983
21.1197
21.3553
21.6056
21.8714
22.1535
22.4527
38.6002
37.7687
36.9618
36.1789
35.4191
34.6819
33.9664
33.2721
32.5984
31.9446
31.3103
30.6949
30.0979
29.5189
28.9573
28.4129
27.8851
27.3736
26.8779
26.3979
25.933
25.483
25.0477
24.6266
24.2196
23.8264
23.4467
23.0804
22.7272
22.387
22.0596
21.7448
21.4426
21.1529
20.8756
20.6107
20.3605
20.1286
19.9156
19.7201
19.5402
19.3746
19.2221
19.0818
18.9529
18.8348
18.7267
18.6281
18.5384
18.4571
18.3839
18.3181
18.2595
18.2077
18.1624
18.1232
18.0899
18.0623
18.0401
18.0231
18.0111
18.0041
18.0018
18.0043
18.0114
18.0231
18.0394
18.0604
18.0859
18.1163
18.1514
18.1915
18.2367
18.2872
18.3432
18.4048
18.4725
18.5463
18.6266
18.7137
18.8078
18.9092
19.0182
19.135
19.2598
19.3926
19.5335
19.6822
19.8386
20.0021
20.1726
20.3499
20.536
20.7338
20.9443
21.1681
21.4059
21.6584
21.9264
22.2106
22.5118
38.6018
37.7702
36.9634
36.1804
35.4207
34.6834
33.9679
33.2736
32.5999
31.9461
31.3118
30.6964
30.0994
29.5204
28.9589
28.4144
27.8866
27.3751
26.8794
26.3993
25.9344
25.4845
25.0491
24.628
24.221
23.8277
23.448
23.0817
22.7285
22.3882
22.0608
21.746
21.4438
21.154
20.8767
20.6119
20.3617
20.1298
19.9169
19.7214
19.5416
19.3761
19.2237
19.0834
18.9546
18.8366
18.7285
18.63
18.5404
18.4592
18.386
18.3203
18.2619
18.2102
18.165
18.126
18.0929
18.0655
18.0436
18.0269
18.0153
18.0087
18.007
18.01
18.0177
18.0301
18.0471
18.0689
18.0954
18.1267
18.1629
18.2042
18.2507
18.3025
18.36
18.4232
18.4925
18.568
18.6501
18.7389
18.8349
18.9382
19.049
19.1676
19.2941
19.4284
19.5706
19.7203
19.8773
20.0412
20.2117
20.3896
20.5776
20.7776
20.9903
21.2163
21.4563
21.7109
21.9808
22.2668
38.6034
37.7719
36.965
36.182
35.4223
34.685
33.9695
33.2752
32.6015
31.9477
31.3134
30.698
30.101
29.522
28.9604
28.4159
27.8881
27.3766
26.8809
26.4008
25.9359
25.4859
25.0505
24.6294
24.2223
23.8291
23.4493
23.0829
22.7297
22.3894
22.0619
21.7472
21.4449
21.1552
20.8779
20.613
20.3629