/*--------------------------------*- C++ -*----------------------------------*\
  =========                 |
  \\      /  F ield         | OpenFOAM: The Open Source CFD Toolbox
   \\    /   O peration     | Website:  https://openfoam.org
    \\  /    A nd           | Version:  10
     \\/     M anipulation  |
\*---------------------------------------------------------------------------*/
FoamFile
{
    format      ascii;
    class       volVectorField;
    location    "68000";
    object      U;
}
// * * * * * * * * * * * * * * * * * * * * * * * * * * * * * * * * * * * * * //

dimensions      [0 1 -1 0 0 0 0];

internalField   nonuniform List<vector> 
17922
(
(-2.38358 2.6073 0)
(-2.38084 2.60429 2.97356e-19)
(-2.37795 2.6011 -1.15886e-18)
(-2.37489 2.59775 -3.12172e-24)
(-2.37168 2.59422 2.72091e-19)
(-2.36832 2.59052 5.29977e-19)
(-2.36479 2.58664 9.33516e-24)
(-2.36111 2.58259 2.4846e-19)
(-2.35727 2.57837 -1.87675e-21)
(-2.35327 2.57397 -2.35475e-19)
(-2.34911 2.56939 -1.81905e-18)
(-2.34479 2.56463 0)
(-2.3403 2.5597 0)
(-2.33566 2.55459 -2.06025e-19)
(-2.33085 2.5493 2.01389e-19)
(-2.32588 2.54384 -1.93256e-19)
(-2.32075 2.5382 1.88963e-19)
(-2.31546 2.53238 -7.28419e-19)
(-2.31001 2.52639 -1.75417e-19)
(-2.3044 2.52022 -6.80974e-19)
(-2.29863 2.51387 -4.94794e-19)
(-2.2927 2.50736 1.59037e-19)
(-2.28661 2.50067 -7.74788e-19)
(-2.28037 2.49382 5.99181e-19)
(-2.27398 2.4868 -5.79853e-19)
(-2.26743 2.47962 0)
(-2.26074 2.47228 0)
(-2.25391 2.46479 0)
(-2.247 2.45722 1.0315e-18)
(-2.24014 2.44971 1.27683e-19)
(-2.23339 2.44234 3.8377e-19)
(-2.22677 2.43509 1.02359e-18)
(-2.22027 2.42799 -4.47651e-19)
(-2.21389 2.42104 4.4654e-19)
(-2.20764 2.41423 -5.10788e-19)
(-2.20152 2.40758 0)
(-2.19554 2.40107 6.35317e-20)
(-2.18969 2.39473 -6.40536e-19)
(-2.18397 2.38854 -3.85141e-19)
(-2.1784 2.38251 -6.43587e-19)
(-2.17296 2.37665 6.49632e-20)
(-2.16766 2.37094 -6.43192e-20)
(-2.16251 2.3654 -4.54761e-19)
(-2.15749 2.36002 -6.48746e-20)
(-2.15262 2.3548 5.25559e-19)
(-2.14789 2.34975 -9.2268e-19)
(-2.14331 2.34487 -8.32569e-22)
(-2.13888 2.34016 -5.33599e-19)
(-2.13459 2.33562 4.68373e-19)
(-2.13045 2.33124 0)
(-2.12646 2.32704 2.71097e-19)
(-2.12262 2.323 2.72755e-19)
(-2.11893 2.31914 -3.42692e-19)
(-2.11539 2.31546 3.45802e-19)
(-2.112 2.31194 0)
(-2.10876 2.30859 2.10445e-19)
(-2.10567 2.30542 7.08957e-20)
(-2.10273 2.30242 2.83804e-19)
(-2.09994 2.29959 0)
(-2.09729 2.29693 -2.87757e-19)
(-2.0948 2.29444 0)
(-2.09244 2.29211 7.24779e-20)
(-2.09023 2.28995 -3.67505e-19)
(-2.08816 2.28794 -2.95627e-19)
(-2.08622 2.2861 2.97635e-19)
(-2.08442 2.28442 -2.99579e-19)
(-2.08275 2.28288 2.26588e-19)
(-2.08121 2.28149 -1.51675e-19)
(-2.07978 2.28025 -3.81939e-19)
(-2.07847 2.27915 0)
(-2.07728 2.27818 1.54414e-19)
(-2.07618 2.27733 1.55244e-19)
(-2.07518 2.2766 -2.91785e-23)
(-2.07427 2.27599 2.34873e-19)
(-2.07345 2.27549 -2.36914e-19)
(-2.0727 2.27508 1.58369e-19)
(-2.07203 2.27476 1.59095e-19)
(-2.07142 2.27453 -3.19472e-19)
(-2.07086 2.27437 7.96976e-20)
(-2.07037 2.27429 -8.09203e-20)
(-2.06992 2.27426 2.41738e-19)
(-2.06951 2.27429 -1.61939e-19)
(-2.06915 2.27437 9.72288e-22)
(-2.06882 2.27449 8.18438e-20)
(-2.06852 2.27465 4.07573e-19)
(-2.06825 2.27484 1.32236e-23)
(-2.06801 2.27506 2.46264e-19)
(-2.06779 2.2753 0)
(-2.0676 2.27556 -8.17282e-20)
(-2.06743 2.27583 8.28045e-20)
(-2.06728 2.27611 -1.64404e-19)
(-2.06715 2.27641 8.34912e-20)
(-2.06704 2.2767 1.65307e-19)
(-2.37733 2.61302 -3.12627e-19)
(-2.3746 2.61 3.01895e-19)
(-2.37171 2.60681 -2.95266e-19)
(-2.36866 2.60345 1.14351e-18)
(-2.36546 2.59991 -9.23938e-25)
(-2.36211 2.5962 -2.68614e-19)
(-2.35859 2.59232 7.86055e-19)
(-2.35492 2.58826 0)
(-2.35109 2.58403 -1.2313e-18)
(-2.3471 2.57962 2.40041e-19)
(-2.34295 2.57503 9.27596e-19)
(-2.33864 2.57027 -8.99525e-19)
(-2.33417 2.56532 0)
(-2.32953 2.5602 0)
(-2.32474 2.55491 0)
(-2.31978 2.54943 9.91612e-19)
(-2.31467 2.54378 7.67487e-19)
(-2.30939 2.53795 5.58052e-19)
(-2.30395 2.53194 1.79561e-19)
(-2.29835 2.52576 5.2347e-19)
(-2.2926 2.5194 -2.09982e-24)
(-2.28668 2.51287 0)
(-2.28061 2.50617 1.57792e-19)
(-2.27439 2.4993 -7.69135e-19)
(-2.26801 2.49227 5.94991e-19)
(-2.26148 2.48507 0)
(-2.25481 2.47772 0)
(-2.24799 2.47022 0)
(-2.2411 2.46263 5.5126e-24)
(-2.23426 2.4551 0)
(-2.22753 2.44771 1.30825e-19)
(-2.22092 2.44045 -1.32305e-19)
(-2.21443 2.43333 1.05005e-18)
(-2.20807 2.42636 3.94348e-19)
(-2.20183 2.41954 1.32007e-19)
(-2.19573 2.41287 0)
(-2.18976 2.40635 -5.25348e-19)
(-2.18393 2.39999 5.26142e-19)
(-2.17823 2.39379 5.92672e-19)
(-2.17266 2.38774 4.62013e-19)
(-2.16724 2.38186 -4.64203e-19)
(-2.16195 2.37614 4.6488e-19)
(-2.15681 2.37058 0)
(-2.15181 2.36519 -6.65608e-20)
(-2.14695 2.35996 -5.37373e-19)
(-2.14223 2.3549 1.14949e-18)
(-2.13766 2.35 6.74995e-20)
(-2.13324 2.34528 4.09674e-19)
(-2.12896 2.34072 -4.80124e-19)
(-2.12484 2.33633 3.44763e-19)
(-2.12086 2.33211 1.38882e-19)
(-2.11703 2.32807 -2.09146e-19)
(-2.11335 2.3242 2.81161e-19)
(-2.10982 2.32049 0)
(-2.10644 2.31697 -7.07504e-20)
(-2.10321 2.31361 7.20854e-20)
(-2.10013 2.31042 2.88466e-19)
(-2.0972 2.30741 -2.90372e-19)
(-2.09441 2.30457 0)
(-2.09178 2.30189 -7.31146e-20)
(-2.08929 2.29939 7.44908e-20)
(-2.08694 2.29705 -7.40841e-20)
(-2.08474 2.29487 6.01033e-19)
(-2.08268 2.29286 3.77956e-19)
(-2.08075 2.291 0)
(-2.07896 2.2893 0)
(-2.07729 2.28776 -7.64661e-20)
(-2.07576 2.28636 3.87369e-19)
(-2.07434 2.2851 6.22646e-19)
(-2.07304 2.28398 0)
(-2.07184 2.283 0)
(-2.07075 2.28214 -2.37786e-19)
(-2.06976 2.2814 -1.59944e-19)
(-2.06886 2.28077 -8.03558e-20)
(-2.06804 2.28025 1.60498e-19)
(-2.0673 2.27982 -1.61189e-19)
(-2.06663 2.27949 -1.61839e-19)
(-2.06602 2.27924 8.16973e-20)
(-2.06548 2.27907 1.63971e-19)
(-2.06499 2.27897 1.64502e-19)
(-2.06455 2.27893 9.5129e-22)
(-2.06415 2.27894 -8.17646e-20)
(-2.0638 2.27901 -1.80443e-24)
(-2.06348 2.27912 -2.47407e-19)
(-2.06319 2.27926 -8.23089e-20)
(-2.06293 2.27944 -2.48332e-19)
(-2.06271 2.27965 -8.25818e-20)
(-2.0625 2.27987 0)
(-2.06232 2.28012 0)
(-2.06217 2.28038 2.49648e-19)
(-2.06203 2.28066 -8.347e-20)
(-2.06192 2.28094 4.82107e-22)
(-2.06184 2.28123 0)
(-2.37088 2.61889 3.13091e-19)
(-2.36815 2.61586 -3.06371e-19)
(-2.36527 2.61266 1.18739e-18)
(-2.36223 2.6093 -1.15394e-18)
(-2.35904 2.60575 -5.60587e-19)
(-2.3557 2.60204 -2.71291e-19)
(-2.35219 2.59814 7.94216e-19)
(-2.34853 2.59408 1.02692e-18)
(-2.34471 2.58983 7.48617e-19)
(-2.34073 2.58542 -7.24636e-19)
(-2.33659 2.58082 0)
(-2.33229 2.57604 1.13743e-18)
(-2.32783 2.57109 -2.21782e-19)
(-2.32321 2.56596 -2.13201e-19)
(-2.31843 2.56065 2.08579e-19)
(-2.31348 2.55516 8.0513e-19)
(-2.30838 2.5495 -1.56076e-18)
(-2.30312 2.54365 0)
(-2.29769 2.53763 -5.50535e-19)
(-2.29211 2.53144 -1.85573e-21)
(-2.28637 2.52507 1.37372e-18)
(-2.28047 2.51852 -3.33107e-19)
(-2.27441 2.51181 6.47108e-19)
(-2.2682 2.50493 1.83384e-21)
(-2.26184 2.49788 -6.03362e-19)
(-2.25533 2.49066 1.47428e-19)
(-2.24868 2.4833 0)
(-2.24188 2.47577 1.3642e-19)
(-2.235 2.46817 -1.21482e-18)
(-2.22818 2.46062 -1.33564e-19)
(-2.22146 2.45321 6.71338e-19)
(-2.21487 2.44593 -5.35244e-19)
(-2.2084 2.4388 -6.67212e-19)
(-2.20205 2.43181 -2.6703e-19)
(-2.19583 2.42497 -2.66968e-19)
(-2.18975 2.41829 6.68538e-19)
(-2.18379 2.41175 6.67414e-19)
(-2.17797 2.40538 -1.34714e-19)
(-2.17228 2.39916 0)
(-2.16673 2.3931 -6.7122e-19)
(-2.16132 2.3872 5.40897e-19)
(-2.15605 2.38146 1.36082e-19)
(-2.15092 2.37589 -4.75364e-19)
(-2.14593 2.37048 -6.1344e-19)
(-2.14108 2.36524 6.15181e-19)
(-2.13638 2.36016 -6.87105e-19)
(-2.13182 2.35525 -4.82826e-19)
(-2.12741 2.35051 0)
(-2.12314 2.34594 4.88693e-19)
(-2.11903 2.34154 -4.90512e-19)
(-2.11506 2.33731 -3.52235e-19)
(-2.11124 2.33325 7.13828e-20)
(-2.10757 2.32936 0)
(-2.10405 2.32565 0)
(-2.10068 2.32211 -2.88992e-19)
(-2.09746 2.31874 0)
(-2.09439 2.31554 -2.92676e-19)
(-2.09147 2.31251 0)
(-2.08869 2.30965 2.96411e-19)
(-2.08607 2.30697 0)
(-2.08359 2.30445 0)
(-2.08125 2.3021 0)
(-2.07906 2.29991 -3.04042e-19)
(-2.077 2.29788 0)
(-2.07508 2.29601 -7.64864e-20)
(-2.0733 2.2943 1.54813e-19)
(-2.07164 2.29274 -1.55721e-19)
(-2.07011 2.29132 -2.34437e-19)
(-2.0687 2.29005 -3.14976e-19)
(-2.0674 2.28892 0)
(-2.06622 2.28792 -1.59135e-19)
(-2.06513 2.28704 1.59941e-19)
(-2.06415 2.28629 1.60682e-19)
(-2.06325 2.28565 0)
(-2.06244 2.28511 0)
(-2.0617 2.28467 8.08996e-20)
(-2.06104 2.28432 -8.21384e-20)
(-2.06044 2.28406 0)
(-2.0599 2.28387 -8.17684e-20)
(-2.05942 2.28375 -8.20014e-20)
(-2.05898 2.28369 0)
(-2.0586 2.28369 3.3156e-19)
(-2.05825 2.28374 1.66146e-19)
(-2.05794 2.28384 -1.66443e-19)
(-2.05766 2.28397 0)
(-2.05742 2.28413 8.39568e-20)
(-2.0572 2.28433 8.4068e-20)
(-2.05701 2.28454 1.67349e-19)
(-2.05685 2.28478 1.67029e-19)
(-2.05671 2.28503 -2.51475e-19)
(-2.05659 2.28529 8.38888e-20)
(-2.0565 2.28557 -9.53297e-22)
(-2.05643 2.28586 -8.44847e-20)
(-2.36422 2.62491 3.17361e-19)
(-2.3615 2.62188 -3.06729e-19)
(-2.35863 2.61867 -5.96529e-19)
(-2.3556 2.6153 8.73849e-19)
(-2.35242 2.61175 2.81818e-19)
(-2.34908 2.60802 -5.49656e-19)
(-2.34558 2.60412 -5.75985e-24)
(-2.34193 2.60005 -2.60353e-19)
(-2.33812 2.5958 2.50895e-19)
(-2.33415 2.59137 7.32678e-19)
(-2.33002 2.58676 0)
(-2.32573 2.58197 0)
(-2.32129 2.57701 -8.94183e-19)
(-2.31668 2.57187 8.67476e-19)
(-2.31191 2.56655 0)
(-2.30698 2.56105 -1.01904e-18)
(-2.30189 2.55537 9.89961e-19)
(-2.29664 2.54951 -7.67043e-19)
(-2.29123 2.54348 1.48705e-18)
(-2.28566 2.53727 -1.79213e-19)
(-2.27994 2.53088 -5.22824e-19)
(-2.27405 2.52432 0)
(-2.26801 2.51759 -6.55615e-19)
(-2.26182 2.5107 -6.35164e-19)
(-2.25548 2.50363 7.68222e-19)
(-2.24899 2.4964 -2.98027e-19)
(-2.24235 2.48901 1.45272e-19)
(-2.23557 2.48147 0)
(-2.22871 2.47385 0)
(-2.2219 2.46629 0)
(-2.21521 2.45886 -5.45868e-19)
(-2.20863 2.45156 0)
(-2.20217 2.44441 -5.43859e-19)
(-2.19584 2.43741 -6.78332e-19)
(-2.18964 2.43055 2.71615e-19)
(-2.18357 2.42385 -6.8013e-19)
(-2.17763 2.4173 0)
(-2.17182 2.4109 0)
(-2.16615 2.40467 0)
(-2.16061 2.39859 1.35802e-19)
(-2.15522 2.39268 4.10252e-19)
(-2.14996 2.38693 -1.36584e-19)
(-2.14484 2.38134 6.90561e-19)
(-2.13986 2.37591 5.53821e-19)
(-2.13503 2.37065 5.5605e-19)
(-2.13034 2.36556 5.58476e-19)
(-2.12579 2.36064 2.9973e-23)
(-2.12139 2.35588 0)
(-2.11714 2.3513 -7.04267e-20)
(-2.11303 2.34688 6.41357e-19)
(-2.10908 2.34264 -2.15247e-19)
(-2.10527 2.33857 -3.60476e-19)
(-2.10161 2.33466 0)
(-2.0981 2.33094 -7.24044e-20)
(-2.09474 2.32738 3.66911e-19)
(-2.09153 2.324 7.32847e-20)
(-2.08847 2.32079 1.48367e-19)
(-2.08556 2.31774 4.47863e-19)
(-2.0828 2.31488 -4.50658e-19)
(-2.08018 2.31217 3.783e-19)
(-2.07771 2.30964 -7.55773e-20)
(-2.07538 2.30728 7.69594e-20)
(-2.07319 2.30507 3.07837e-19)
(-2.07115 2.30303 -7.6957e-20)
(-2.06924 2.30115 3.89821e-19)
(-2.06746 2.29942 -3.13269e-19)
(-2.06581 2.29785 0)
(-2.06429 2.29642 3.16773e-19)
(-2.06289 2.29514 7.91334e-20)
(-2.0616 2.29399 -2.40496e-19)
(-2.06042 2.29297 2.41684e-19)
(-2.05934 2.29208 8.12525e-20)
(-2.05836 2.29131 -4.05211e-19)
(-2.05746 2.29065 8.1956e-20)
(-2.05666 2.2901 0)
(-2.05593 2.28965 1.64201e-19)
(-2.05527 2.28928 3.29554e-19)
(-2.05468 2.289 0)
(-2.05415 2.2888 -2.48196e-19)
(-2.05367 2.28866 1.66212e-19)
(-2.05325 2.28859 -2.50383e-19)
(-2.05287 2.28858 -2.4996e-19)
(-2.05253 2.28861 9.66499e-22)
(-2.05223 2.28869 4.19299e-19)
(-2.05197 2.28881 0)
(-2.05173 2.28896 -8.44647e-20)
(-2.05153 2.28914 8.35606e-20)
(-2.05135 2.28935 -2.52825e-19)
(-2.0512 2.28957 -2.52499e-19)
(-2.05107 2.28982 8.42099e-20)
(-2.05097 2.29007 -8.42413e-20)
(-2.0509 2.29034 8.47616e-20)
(-2.05084 2.29062 0)
(-2.35734 2.63109 9.56409e-19)
(-2.35463 2.62806 -3.08907e-19)
(-2.35177 2.62485 3.02514e-19)
(-2.34875 2.62146 -5.86539e-19)
(-2.34558 2.6179 0)
(-2.34225 2.61417 0)
(-2.33876 2.61026 5.38975e-19)
(-2.33512 2.60618 -1.04751e-18)
(-2.33132 2.60192 -2.53434e-19)
(-2.32736 2.59748 2.48109e-19)
(-2.32325 2.59286 9.59943e-19)
(-2.31897 2.58806 1.16404e-18)
(-2.31454 2.58309 6.77574e-19)
(-2.30994 2.57793 -1.75611e-18)
(-2.30519 2.5726 -8.52005e-19)
(-2.30027 2.56709 -2.05679e-19)
(-2.29519 2.5614 2.0141e-19)
(-2.28996 2.55553 5.84172e-19)
(-2.28457 2.54948 -1.13106e-18)
(-2.27901 2.54325 -1.83726e-19)
(-2.2733 2.53685 -1.7623e-19)
(-2.26744 2.53028 1.72699e-19)
(-2.26141 2.52354 8.31373e-19)
(-2.25524 2.51662 1.28872e-18)
(-2.24891 2.50954 -3.12672e-19)
(-2.24244 2.50229 3.02986e-19)
(-2.23582 2.49489 -1.88621e-21)
(-2.22905 2.48733 -1.43111e-19)
(-2.22222 2.47969 -1.38728e-19)
(-2.21543 2.47211 6.97083e-19)
(-2.20875 2.46466 0)
(-2.20219 2.45735 -4.16472e-19)
(-2.19575 2.45018 2.7661e-19)
(-2.18944 2.44315 6.91755e-19)
(-2.18325 2.43628 0)
(-2.17719 2.42956 -6.89791e-19)
(-2.17127 2.42299 1.39139e-19)
(-2.16548 2.41658 0)
(-2.15982 2.41033 5.54537e-19)
(-2.1543 2.40423 0)
(-2.14892 2.3983 -4.18748e-19)
(-2.14367 2.39253 4.18155e-19)
(-2.13857 2.38693 -1.39248e-19)
(-2.13361 2.38149 5.6437e-19)
(-2.12878 2.37622 -4.22719e-19)
(-2.12411 2.37111 -7.08085e-19)
(-2.11957 2.36617 5.71515e-19)
(-2.11519 2.3614 1.43993e-19)
(-2.11095 2.3568 -1.15043e-18)
(-2.10685 2.35237 -2.89089e-19)
(-2.10291 2.34811 1.67799e-23)
(-2.09911 2.34402 3.64806e-19)
(-2.09546 2.34011 -7.39102e-20)
(-2.09196 2.33637 0)
(-2.08862 2.3328 0)
(-2.08542 2.3294 -7.42839e-20)
(-2.08237 2.32617 -2.25105e-19)
(-2.07947 2.32312 -3.02534e-19)
(-2.07671 2.32024 0)
(-2.07411 2.31752 -2.55229e-23)
(-2.07165 2.31498 0)
(-2.06933 2.3126 0)
(-2.06715 2.31038 -6.23078e-19)
(-2.06512 2.30833 -3.133e-19)
(-2.06321 2.30643 -3.15083e-19)
(-2.06145 2.30469 7.87562e-20)
(-2.05981 2.3031 -8.00919e-20)
(-2.05829 2.30166 2.40554e-19)
(-2.05689 2.30036 -2.40802e-19)
(-2.05561 2.2992 1.61644e-19)
(-2.05444 2.29817 -3.24759e-19)
(-2.05336 2.29726 8.20183e-20)
(-2.05239 2.29648 2.46142e-19)
(-2.0515 2.29581 0)
(-2.0507 2.29524 0)
(-2.04998 2.29477 -1.65581e-19)
(-2.04933 2.29439 -3.32181e-19)
(-2.04874 2.29409 0)
(-2.04822 2.29387 1.66987e-19)
(-2.04775 2.29372 8.32039e-20)
(-2.04734 2.29364 1.66761e-19)
(-2.04697 2.29361 -2.52508e-19)
(-2.04664 2.29363 -1.68267e-19)
(-2.04635 2.29369 -1.68496e-19)
(-2.0461 2.2938 -1.68653e-19)
(-2.04587 2.29394 0)
(-2.04568 2.2941 -3.37805e-19)
(-2.04552 2.2943 1.68986e-19)
(-2.04538 2.29451 0)
(-2.04527 2.29475 8.45384e-20)
(-2.04518 2.295 0)
(-2.04512 2.29526 -8.45612e-20)
(-2.04508 2.29554 -8.45791e-20)
(-2.35025 2.63744 -9.60191e-19)
(-2.34755 2.6344 1.24771e-18)
(-2.34469 2.63118 -2.01905e-21)
(-2.34168 2.62779 2.94434e-19)
(-2.33852 2.62422 0)
(-2.3352 2.62048 -5.59098e-19)
(-2.33172 2.61656 -5.43669e-19)
(-2.32809 2.61247 -1.32034e-18)
(-2.3243 2.6082 2.57851e-19)
(-2.32036 2.60375 -9.98375e-19)
(-2.31625 2.59912 -1.21144e-18)
(-2.31199 2.59431 -7.05607e-19)
(-2.30757 2.58933 0)
(-2.30299 2.58416 -2.2108e-19)
(-2.29825 2.57881 1.29345e-18)
(-2.29335 2.57329 -2.10203e-19)
(-2.28828 2.56758 8.12109e-19)
(-2.28307 2.5617 0)
(-2.27769 2.55564 9.21284e-24)
(-2.27215 2.5494 -7.41348e-19)
(-2.26646 2.54298 7.18955e-19)
(-2.26061 2.5364 -6.97155e-19)
(-2.2546 2.52963 6.75943e-19)
(-2.24844 2.5227 -6.55326e-19)
(-2.24213 2.5156 0)
(-2.23568 2.50834 0)
(-2.22908 2.50092 4.48633e-19)
(-2.22233 2.49334 1.45525e-19)
(-2.21551 2.48568 0)
(-2.20874 2.47808 -5.66381e-19)
(-2.20208 2.47061 0)
(-2.19554 2.46328 5.63403e-19)
(-2.18912 2.45609 -1.39684e-19)
(-2.18283 2.44905 -5.60014e-19)
(-2.17666 2.44216 2.80802e-19)
(-2.17062 2.43542 4.2033e-19)
(-2.16471 2.42883 0)
(-2.15893 2.4224 7.02328e-19)
(-2.15329 2.41613 -5.65306e-19)
(-2.14779 2.41002 -1.82061e-21)
(-2.14242 2.40408 5.64113e-19)
(-2.13719 2.39829 -5.69336e-19)
(-2.1321 2.39267 -2.84638e-19)
(-2.12715 2.38721 -4.27542e-19)
(-2.12234 2.38193 1.4244e-19)
(-2.11768 2.3768 -2.87854e-19)
(-2.11316 2.37185 -4.3272e-19)
(-2.10878 2.36706 -1.44291e-19)
(-2.10456 2.36245 1.31393e-18)
(-2.10048 2.358 0)
(-2.09654 2.35373 2.94729e-19)
(-2.09276 2.34963 0)
(-2.08912 2.3457 2.97858e-19)
(-2.08564 2.34194 0)
(-2.0823 2.33836 0)
(-2.07911 2.33495 -4.53375e-19)
(-2.07608 2.33171 4.57812e-19)
(-2.07319 2.32864 7.61182e-20)
(-2.07044 2.32574 -9.33322e-22)
(-2.06785 2.32302 -3.87786e-19)
(-2.0654 2.32046 -3.11587e-19)
(-2.06309 2.31806 0)
(-2.06092 2.31583 2.80228e-23)
(-2.0589 2.31377 3.16809e-19)
(-2.057 2.31186 7.9144e-20)
(-2.05524 2.3101 2.39644e-19)
(-2.05361 2.3085 0)
(-2.0521 2.30704 -2.42994e-19)
(-2.05072 2.30573 2.43176e-19)
(-2.04944 2.30455 -8.10962e-20)
(-2.04827 2.30351 8.24303e-20)
(-2.04721 2.30259 -8.27603e-20)
(-2.04624 2.30179 -8.30667e-20)
(-2.04536 2.3011 0)
(-2.04457 2.30051 0)
(-2.04385 2.30003 8.29257e-20)
(-2.04321 2.29963 1.66332e-19)
(-2.04263 2.29932 -9.77227e-22)
(-2.04211 2.29909 -1.69092e-19)
(-2.04165 2.29892 -9.78e-22)
(-2.04124 2.29882 -1.68726e-19)
(-2.04088 2.29878 4.22919e-19)
(-2.04057 2.29878 1.69181e-19)
(-2.04029 2.29884 0)
(-2.04004 2.29893 1.69459e-19)
(-2.03983 2.29906 0)
(-2.03965 2.29921 1.34746e-23)
(-2.0395 2.2994 0)
(-2.03938 2.2996 8.43217e-20)
(-2.03928 2.29983 -9.65347e-22)
(-2.03921 2.30007 -8.479e-20)
(-2.03916 2.30033 8.5263e-20)
(-2.03913 2.30061 1.69073e-19)
(-2.34293 2.64396 6.44302e-19)
(-2.34023 2.64091 -9.40304e-19)
(-2.33738 2.63768 3.06553e-19)
(-2.33438 2.63428 0)
(-2.33123 2.63071 0)
(-2.32792 2.62696 5.63398e-19)
(-2.32446 2.62303 0)
(-2.32084 2.61893 1.06613e-18)
(-2.31706 2.61465 1.03666e-18)
(-2.31313 2.61019 2.26653e-18)
(-2.30904 2.60555 -2.45878e-19)
(-2.30479 2.60073 0)
(-2.30038 2.59573 0)
(-2.29581 2.59055 8.9819e-19)
(-2.29108 2.58519 8.7225e-19)
(-2.2862 2.57965 2.10736e-19)
(-2.28115 2.57394 -1.02869e-18)
(-2.27595 2.56804 0)
(-2.27059 2.56196 8.99117e-24)
(-2.26507 2.55571 9.08763e-24)
(-2.25939 2.54928 -7.28989e-19)
(-2.25356 2.54267 1.75816e-19)
(-2.24757 2.53589 -8.58335e-19)
(-2.24143 2.52894 1.65321e-19)
(-2.23514 2.52182 -1.95059e-21)
(-2.2287 2.51454 -1.57354e-19)
(-2.22212 2.5071 -6.06537e-19)
(-2.2154 2.49951 -1.17555e-18)
(-2.2086 2.49183 -1.15517e-18)
(-2.20185 2.48421 0)
(-2.19521 2.47672 1.42541e-19)
(-2.18868 2.46937 -1.44109e-19)
(-2.18228 2.46216 0)
(-2.176 2.4551 5.7099e-19)
(-2.16985 2.44819 -4.28924e-19)
(-2.16383 2.44143 -2.85318e-19)
(-2.15794 2.43483 2.85455e-19)
(-2.15218 2.42838 -7.1527e-19)
(-2.14655 2.42209 -5.72272e-19)
(-2.14106 2.41597 0)
(-2.13571 2.41 -1.29199e-18)
(-2.1305 2.4042 1.44955e-19)
(-2.12542 2.39856 -1.43539e-19)
(-2.12049 2.39309 1.45858e-19)
(-2.1157 2.38778 -4.37287e-19)
(-2.11105 2.38265 -1.46942e-19)
(-2.10654 2.37768 1.02729e-18)
(-2.10218 2.37287 1.48183e-19)
(-2.09797 2.36824 -5.91744e-19)
(-2.0939 2.36378 0)
(-2.08998 2.3595 2.98719e-19)
(-2.08621 2.35538 -3.00228e-19)
(-2.08258 2.35144 -3.018e-19)
(-2.07911 2.34767 -1.50757e-19)
(-2.07579 2.34407 1.53437e-19)
(-2.07261 2.34064 3.06671e-19)
(-2.06958 2.33739 -1.55119e-19)
(-2.06671 2.33431 -4.65961e-19)
(-2.06398 2.3314 4.66619e-19)
(-2.06139 2.32866 1.55751e-19)
(-2.05895 2.32608 3.15126e-19)
(-2.05665 2.32367 1.57444e-19)
(-2.0545 2.32143 1.58295e-19)
(-2.05248 2.31935 -1.59097e-19)
(-2.0506 2.31743 -1.59893e-19)
(-2.04885 2.31566 0)
(-2.04723 2.31404 -8.073e-20)
(-2.04573 2.31257 -2.44265e-19)
(-2.04435 2.31124 3.27778e-19)
(-2.04308 2.31005 -8.18065e-20)
(-2.04192 2.30899 1.66232e-19)
(-2.04086 2.30806 8.34236e-20)
(-2.0399 2.30724 -8.27397e-20)
(-2.03903 2.30654 9.79952e-22)
(-2.03824 2.30594 3.3502e-19)
(-2.03753 2.30544 -8.44794e-20)
(-2.03689 2.30502 0)
(-2.03632 2.3047 -8.38932e-20)
(-2.03582 2.30445 -8.40511e-20)
(-2.03536 2.30427 0)
(-2.03496 2.30415 1.69608e-19)
(-2.03461 2.3041 -1.69814e-19)
(-2.0343 2.30409 -8.44837e-20)
(-2.03403 2.30413 8.55163e-20)
(-2.0338 2.30421 1.70113e-19)
(-2.0336 2.30432 0)
(-2.03343 2.30447 1.70154e-19)
(-2.03329 2.30464 8.55414e-20)
(-2.03318 2.30484 4.86026e-22)
(-2.0331 2.30506 -4.8259e-22)
(-2.03304 2.3053 -2.54907e-19)
(-2.033 2.30555 8.58988e-20)
(-2.03299 2.30582 8.53869e-20)
(-2.33537 2.65065 -1.29487e-18)
(-2.33268 2.64759 0)
(-2.32984 2.64435 0)
(-2.32685 2.64095 5.96539e-19)
(-2.32371 2.63736 -5.84886e-19)
(-2.32041 2.6336 -2.84714e-19)
(-2.31696 2.62967 -5.52213e-19)
(-2.31335 2.62556 5.37315e-19)
(-2.30959 2.62126 -1.5681e-18)
(-2.30567 2.61679 -1.01471e-18)
(-2.30159 2.61214 4.94306e-19)
(-2.29735 2.60731 -2.41277e-19)
(-2.29296 2.6023 -9.34097e-19)
(-2.2884 2.59711 1.13361e-18)
(-2.28369 2.59174 -1.10333e-18)
(-2.27882 2.58619 1.06973e-18)
(-2.27379 2.58045 -2.08972e-19)
(-2.2686 2.57454 8.07762e-19)
(-2.26326 2.56845 7.84211e-19)
(-2.25775 2.56218 8.75388e-24)
(-2.2521 2.55573 0)
(-2.24628 2.54911 5.38699e-19)
(-2.24031 2.54231 -5.20735e-19)
(-2.23419 2.53535 0)
(-2.22792 2.52821 0)
(-2.2215 2.52091 1.57788e-19)
(-2.21494 2.51345 -1.55001e-19)
(-2.20824 2.50583 1.48328e-19)
(-2.20146 2.49814 8.80397e-19)
(-2.19473 2.49049 1.47234e-19)
(-2.18811 2.48299 0)
(-2.18161 2.47562 0)
(-2.17522 2.46839 -4.36483e-19)
(-2.16896 2.46131 -1.45951e-19)
(-2.16283 2.45438 7.2354e-19)
(-2.15683 2.4476 -2.8975e-19)
(-2.15095 2.44098 -5.77818e-19)
(-2.14521 2.43452 8.70293e-19)
(-2.1396 2.42821 1.01572e-18)
(-2.13413 2.42207 0)
(-2.12879 2.41608 5.83176e-19)
(-2.12359 2.41026 -5.84596e-19)
(-2.11853 2.40461 -1.45626e-19)
(-2.11361 2.39912 1.47954e-19)
(-2.10884 2.3938 5.90109e-19)
(-2.1042 2.38864 0)
(-2.09971 2.38366 -7.42338e-19)
(-2.09537 2.37884 8.95606e-19)
(-2.09116 2.37419 -1.50857e-19)
(-2.08711 2.36972 1.51534e-19)
(-2.08321 2.36541 -6.03365e-19)
(-2.07945 2.36128 4.57077e-19)
(-2.07584 2.35732 1.51853e-19)
(-2.07238 2.35354 -1.54511e-19)
(-2.06907 2.34993 1.53409e-19)
(-2.0659 2.34649 -1.56103e-19)
(-2.06289 2.34322 0)
(-2.06002 2.34012 3.13575e-19)
(-2.05731 2.3372 -3.15213e-19)
(-2.05473 2.33444 -2.47781e-23)
(-2.0523 2.33186 -3.18457e-19)
(-2.05002 2.32944 0)
(-2.04787 2.32718 -1.59877e-19)
(-2.04587 2.32508 3.23259e-19)
(-2.04399 2.32315 3.24812e-19)
(-2.04225 2.32136 3.26307e-19)
(-2.04064 2.31973 -1.64859e-19)
(-2.03915 2.31825 3.29202e-19)
(-2.03778 2.31691 -4.96796e-19)
(-2.03652 2.3157 -9.86447e-22)
(-2.03537 2.31463 0)
(-2.03431 2.31368 1.67102e-19)
(-2.03336 2.31284 -1.67642e-19)
(-2.0325 2.31212 1.68141e-19)
(-2.03172 2.31151 -3.37211e-19)
(-2.03101 2.31099 -2.53023e-19)
(-2.03038 2.31057 8.51851e-20)
(-2.02982 2.31023 1.69696e-19)
(-2.02932 2.30996 1.69986e-19)
(-2.02888 2.30977 0)
(-2.02849 2.30964 -8.56949e-20)
(-2.02815 2.30957 -1.70515e-19)
(-2.02785 2.30955 8.57949e-20)
(-2.02759 2.30957 0)
(-2.02736 2.30964 -3.41332e-19)
(-2.02718 2.30974 1.70634e-19)
(-2.02702 2.30988 8.48025e-20)
(-2.02689 2.31005 -1.71482e-19)
(-2.02679 2.31024 -4.81876e-22)
(-2.02672 2.31045 1.70289e-19)
(-2.02667 2.31068 0)
(-2.02665 2.31093 -8.50283e-20)
(-2.02665 2.3112 8.44999e-20)
(-2.32756 2.65751 6.5019e-19)
(-2.32489 2.65444 6.31785e-19)
(-2.32206 2.6512 -6.1981e-19)
(-2.31908 2.64779 5.9988e-19)
(-2.31595 2.64419 -5.88425e-19)
(-2.31266 2.64043 1.14011e-18)
(-2.30922 2.63648 -2.04762e-21)
(-2.30562 2.63236 1.08258e-18)
(-2.30187 2.62805 5.24752e-19)
(-2.29796 2.62357 9.51177e-25)
(-2.2939 2.61891 -9.27436e-25)
(-2.28968 2.61407 7.24357e-19)
(-2.2853 2.60905 7.06291e-19)
(-2.28076 2.60384 -1.60542e-18)
(-2.27606 2.59846 -1.11487e-18)
(-2.27121 2.59289 -8.65924e-19)
(-2.26619 2.58714 0)
(-2.26102 2.58121 -1.02054e-18)
(-2.25569 2.57511 2.01749e-21)
(-2.25021 2.56882 1.73524e-18)
(-2.24457 2.56236 0)
(-2.23877 2.55572 -1.8062e-19)
(-2.23282 2.5489 1.77313e-19)
(-2.22672 2.54192 -1.70105e-19)
(-2.22047 2.53477 2.00875e-21)
(-2.21407 2.52745 1.62145e-19)
(-2.20753 2.51997 -6.25438e-19)
(-2.20085 2.51233 1.21301e-18)
(-2.19409 2.50461 -1.48034e-19)
(-2.18738 2.49695 1.49542e-19)
(-2.18078 2.48942 7.39375e-19)
(-2.1743 2.48203 -7.39458e-19)
(-2.16794 2.47478 1.17929e-18)
(-2.1617 2.46769 -5.88846e-19)
(-2.15558 2.46074 -7.3451e-19)
(-2.1496 2.45394 5.90153e-19)
(-2.14374 2.4473 8.82566e-19)
(-2.13802 2.44081 -7.3695e-19)
(-2.13242 2.43449 -5.89474e-19)
(-2.12697 2.42832 0)
(-2.12165 2.42232 0)
(-2.11647 2.41649 5.92913e-19)
(-2.11142 2.41081 -4.46793e-19)
(-2.10652 2.40531 -1.50004e-19)
(-2.10176 2.39997 -5.98152e-19)
(-2.09714 2.39479 -4.51134e-19)
(-2.09266 2.38979 -3.01253e-19)
(-2.08833 2.38496 -4.52743e-19)
(-2.08415 2.3803 0)
(-2.08011 2.37581 -1.53472e-19)
(-2.07622 2.37149 6.10887e-19)
(-2.07247 2.36734 -3.07807e-19)
(-2.06888 2.36337 1.55586e-19)
(-2.06543 2.35957 0)
(-2.06213 2.35594 -1.5709e-19)
(-2.05898 2.35249 -4.71682e-19)
(-2.05598 2.3492 0)
(-2.05313 2.34609 -4.74453e-19)
(-2.05042 2.34315 4.78742e-19)
(-2.04786 2.34039 -3.20111e-19)
(-2.04545 2.33778 3.21674e-19)
(-2.04317 2.33535 -1.6063e-19)
(-2.04104 2.33308 1.6334e-19)
(-2.03904 2.33097 -3.26219e-19)
(-2.03718 2.32902 -6.55394e-19)
(-2.03545 2.32722 1.65529e-19)
(-2.03385 2.32558 1.66229e-19)
(-2.03237 2.32408 1.64924e-19)
(-2.031 2.32272 1.65576e-19)
(-2.02975 2.3215 -1.59361e-23)
(-2.02861 2.32041 -1.67704e-19)
(-2.02757 2.31945 -1.68249e-19)
(-2.02662 2.3186 1.67752e-19)
(-2.02576 2.31787 -5.07537e-19)
(-2.02499 2.31724 6.78323e-19)
(-2.02429 2.3167 -3.3986e-19)
(-2.02367 2.31626 1.98695e-21)
(-2.02312 2.31591 -5.791e-24)
(-2.02263 2.31563 -1.71726e-19)
(-2.02219 2.31542 8.49558e-20)
(-2.02181 2.31527 8.50134e-20)
(-2.02148 2.31519 8.50573e-20)
(-2.02119 2.31516 1.70146e-19)
(-2.02094 2.31517 -8.60573e-20)
(-2.02072 2.31523 1.71092e-19)
(-2.02055 2.31532 -3.4201e-19)
(-2.0204 2.31545 0)
(-2.02028 2.31561 1.70755e-19)
(-2.0202 2.31579 8.53018e-20)
(-2.02013 2.31599 -1.69961e-19)
(-2.0201 2.31622 8.51383e-20)
(-2.02009 2.31647 -8.50573e-20)
(-2.0201 2.31673 4.77752e-22)
(-2.31951 2.66455 -1.30716e-18)
(-2.31684 2.66148 0)
(-2.31403 2.65823 0)
(-2.31106 2.6548 -6.0494e-19)
(-2.30793 2.6512 -5.89568e-19)
(-2.30466 2.64743 0)
(-2.30123 2.64347 -5.59586e-19)
(-2.29765 2.63934 -1.08995e-18)
(-2.29391 2.63502 -5.28558e-19)
(-2.29001 2.63053 -2.06198e-18)
(-2.28596 2.62586 1.51011e-18)
(-2.28175 2.621 -1.95644e-18)
(-2.27739 2.61596 1.42533e-18)
(-2.27286 2.61075 1.38619e-18)
(-2.26818 2.60535 7.40705e-24)
(-2.26334 2.59977 0)
(-2.25835 2.594 0)
(-2.2532 2.58806 0)
(-2.24788 2.58194 0)
(-2.24242 2.57564 -5.86058e-19)
(-2.23679 2.56916 -1.90437e-19)
(-2.23102 2.5625 0)
(-2.22509 2.55567 7.14547e-19)
(-2.21901 2.54866 1.72425e-19)
(-2.21278 2.54149 -1.69405e-19)
(-2.2064 2.53415 6.53851e-19)
(-2.19988 2.52665 6.34695e-19)
(-2.19322 2.51899 -1.23134e-18)
(-2.18649 2.51125 1.50295e-19)
(-2.1798 2.50357 4.51414e-19)
(-2.17322 2.49602 -1.11019e-23)
(-2.16676 2.48861 4.50757e-19)
(-2.16042 2.48134 2.9921e-19)
(-2.1542 2.47422 4.47207e-19)
(-2.1481 2.46725 5.97046e-19)
(-2.14213 2.46044 -7.45039e-19)
(-2.1363 2.45378 1.5019e-19)
(-2.13059 2.44727 0)
(-2.12502 2.44093 0)
(-2.11958 2.43474 0)
(-2.11428 2.42872 0)
(-2.10911 2.42287 7.50284e-19)
(-2.10409 2.41718 4.50921e-19)
(-2.0992 2.41165 7.54237e-19)
(-2.09446 2.4063 -1.52439e-19)
(-2.08985 2.40111 6.08041e-19)
(-2.08539 2.39609 0)
(-2.08108 2.39124 -1.52159e-19)
(-2.07691 2.38656 1.54685e-19)
(-2.07289 2.38205 1.53396e-19)
(-2.06901 2.37772 -4.66025e-19)
(-2.06528 2.37356 -3.11392e-19)
(-2.0617 2.36957 0)
(-2.05827 2.36575 -1.5615e-19)
(-2.05498 2.36211 4.74524e-19)
(-2.05185 2.35864 1.59573e-19)
(-2.04886 2.35535 4.78975e-19)
(-2.04602 2.35222 2.2259e-23)
(-2.04333 2.34927 -8.0324e-19)
(-2.04078 2.34648 4.85745e-19)
(-2.03838 2.34387 1.61357e-19)
(-2.03611 2.34142 -4.9019e-19)
(-2.03399 2.33914 1.62813e-19)
(-2.03201 2.33701 3.27057e-19)
(-2.03016 2.33505 1.91566e-23)
(-2.02844 2.33324 -1.95952e-23)
(-2.02684 2.33158 -9.47338e-24)
(-2.02537 2.33007 1.9846e-21)
(-2.02402 2.32869 3.36408e-19)
(-2.02277 2.32746 -1.68273e-19)
(-2.02164 2.32635 1.68789e-19)
(-2.0206 2.32537 0)
(-2.01967 2.32451 5.08091e-19)
(-2.01882 2.32376 -1.99606e-21)
(-2.01805 2.32312 -5.12321e-19)
(-2.01737 2.32257 -1.69729e-19)
(-2.01675 2.32212 1.71997e-19)
(-2.01621 2.32174 1.71219e-19)
(-2.01572 2.32145 1.70373e-19)
(-2.0153 2.32123 -1.73467e-19)
(-2.01492 2.32107 -3.44098e-19)
(-2.0146 2.32097 -1.71563e-19)
(-2.01432 2.32093 -1.26876e-23)
(-2.01408 2.32093 0)
(-2.01388 2.32098 -1.70391e-19)
(-2.01371 2.32106 3.43468e-19)
(-2.01357 2.32118 0)
(-2.01347 2.32133 -1.70894e-19)
(-2.01339 2.3215 -1.70687e-19)
(-2.01334 2.3217 -8.5236e-20)
(-2.01331 2.32192 1.6978e-19)
(-2.01331 2.32217 -1.70537e-19)
(-2.01333 2.32243 -1.48119e-25)
(-2.3112 2.67177 2.07395e-21)
(-2.30854 2.66869 -6.34501e-19)
(-2.30573 2.66544 1.246e-18)
(-2.30277 2.662 6.05523e-19)
(-2.29966 2.65839 5.92424e-19)
(-2.2964 2.65461 -5.75415e-19)
(-2.29298 2.65064 -5.58653e-19)
(-2.28941 2.6465 5.50424e-19)
(-2.28568 2.64217 -1.0683e-18)
(-2.2818 2.63767 2.08078e-18)
(-2.27777 2.63298 1.51738e-18)
(-2.27357 2.62811 4.90964e-19)
(-2.26922 2.62306 4.77742e-19)
(-2.26472 2.61783 -1.40267e-18)
(-2.26005 2.61242 1.81666e-18)
(-2.25523 2.60682 -4.3965e-19)
(-2.25025 2.60105 4.31593e-19)
(-2.24512 2.59509 8.35192e-19)
(-2.23982 2.58895 -4.03858e-19)
(-2.23437 2.58263 3.9657e-19)
(-2.22877 2.57613 -7.66705e-19)
(-2.22301 2.56945 0)
(-2.21711 2.5626 5.43765e-19)
(-2.21105 2.55558 1.76756e-19)
(-2.20484 2.54839 -6.82669e-19)
(-2.19848 2.54103 -6.6297e-19)
(-2.19198 2.53351 6.43773e-19)
(-2.18535 2.52583 1.40455e-18)
(-2.17863 2.51807 -1.54585e-19)
(-2.17197 2.51036 1.51998e-19)
(-2.16541 2.50279 -7.63615e-19)
(-2.15897 2.49536 0)
(-2.15265 2.48807 -6.07106e-19)
(-2.14645 2.48093 7.56674e-19)
(-2.14038 2.47394 4.53141e-19)
(-2.13443 2.4671 0)
(-2.12861 2.46042 -1.50308e-19)
(-2.12293 2.4539 3.02719e-19)
(-2.11737 2.44753 -1.52469e-19)
(-2.11195 2.44133 4.56008e-19)
(-2.10667 2.43529 1.95369e-21)
(-2.10152 2.42942 -6.06959e-19)
(-2.09652 2.42371 3.05146e-19)
(-2.09165 2.41817 -7.65835e-19)
(-2.08692 2.41279 7.66085e-19)
(-2.08233 2.40758 -1.54859e-19)
(-2.07789 2.40255 1.5343e-19)
(-2.07359 2.39768 -1.55922e-19)
(-2.06944 2.39299 6.22111e-19)
(-2.06543 2.38846 -3.12269e-19)
(-2.06157 2.38411 -1.55794e-19)
(-2.05786 2.37993 4.73249e-19)
(-2.05429 2.37593 0)
(-2.05087 2.3721 -1.57802e-19)
(-2.0476 2.36844 1.60456e-19)
(-2.04448 2.36496 0)
(-2.04151 2.36165 -3.21815e-19)
(-2.03869 2.35851 6.46477e-19)
(-2.03601 2.35554 1.63334e-19)
(-2.03347 2.35274 -4.88162e-19)
(-2.03108 2.35012 1.62764e-19)
(-2.02883 2.34765 1.63475e-19)
(-2.02672 2.34535 -3.30252e-19)
(-2.02475 2.34322 0)
(-2.02291 2.34124 -1.65447e-19)
(-2.0212 2.33941 1.68062e-19)
(-2.01962 2.33774 -3.35345e-19)