/*--------------------------------*- C++ -*----------------------------------*\
  =========                 |
  \\      /  F ield         | OpenFOAM: The Open Source CFD Toolbox
   \\    /   O peration     | Website:  https://openfoam.org
    \\  /    A nd           | Version:  10
     \\/     M anipulation  |
\*---------------------------------------------------------------------------*/
FoamFile
{
    format      ascii;
    class       volScalarField;
    location    "15000";
    object      omega;
}
// * * * * * * * * * * * * * * * * * * * * * * * * * * * * * * * * * * * * * //

dimensions      [0 0 -1 0 0 0 0];

internalField   nonuniform List<scalar> 
17808
(
14066.8
5666.17
3232.2
2221.02
1677.49
1341.1
1113.33
949.233
825.522
728.986
651.587
588.163
535.251
490.44
452.006
418.68
389.507
363.758
340.863
320.375
301.932
285.244
270.072
256.219
243.521
231.839
221.057
211.076
201.809
193.183
185.134
177.608
170.555
163.932
157.701
151.831
146.289
141.051
136.093
131.392
126.93
122.691
118.657
114.815
111.152
107.656
104.317
101.124
98.0687
95.1429
92.3388
89.6495
87.0683
84.5894
82.2071
79.9163
77.7123
75.5906
73.5469
71.5776
69.6789
67.8475
66.0802
64.374
62.7262
61.1342
59.5954
58.1077
56.6688
55.2767
53.9295
52.6254
51.3627
50.1397
48.9548
47.8067
46.694
45.6152
44.5693
43.555
42.5712
41.6168
40.6909
39.7925
38.9206
38.0745
37.2532
36.4561
35.6822
34.9311
34.2019
33.494
14065.6
5665.53
3233.39
2222.45
1678.78
1342.19
1114.22
949.959
826.116
729.476
651.993
588.502
535.536
490.682
452.212
418.856
389.659
363.889
340.978
320.475
302.02
285.321
270.14
256.28
243.575
231.887
221.1
211.114
201.843
193.213
185.162
177.633
170.577
163.952
157.72
151.847
146.304
141.065
136.105
131.403
126.941
122.7
118.665
114.823
111.159
107.662
104.322
101.129
98.0737
95.1475
92.343
89.6533
87.0719
84.5927
82.2102
79.9192
77.7149
75.593
73.5492
71.5797
69.6809
67.8493
66.0819
64.3756
62.7277
61.1356
59.5968
58.109
56.67
55.2779
53.9306
52.6265
51.3637
50.1406
48.9558
47.8076
46.6948
45.6161
44.5701
43.5558
42.572
41.6176
40.6917
39.7932
38.9214
38.0752
37.2539
36.4567
35.6829
34.9317
34.2025
33.4946
14067.2
5664.42
3233.97
2223.12
1679.4
1342.74
1114.71
950.379
826.479
729.789
652.265
588.739
535.743
490.863
452.372
418.997
389.783
363.999
341.075
320.561
302.097
285.39
270.202
256.334
243.624
231.931
221.14
211.149
201.875
193.242
185.188
177.656
170.598
163.971
157.737
151.863
146.319
141.078
136.117
131.414
126.95
122.709
118.673
114.83
111.166
107.669
104.328
101.134
98.0785
95.1519
92.3471
89.657
87.0753
84.5958
82.213
79.9218
77.7174
75.5953
73.5513
71.5817
69.6827
67.851
66.0835
64.3771
62.7291
61.1369
59.598
58.1101
56.6711
55.2789
53.9316
52.6274
51.3646
50.1415
48.9566
47.8084
46.6956
45.6168
44.5708
43.5565
42.5727
41.6183
40.6923
39.7939
38.922
38.0758
37.2545
36.4573
35.6835
34.9323
34.2031
33.4952
14068.6
5663.37
3234.33
2223.55
1679.83
1343.14
1115.06
950.68
826.74
730.016
652.465
588.915
535.899
491.002
452.496
419.108
389.883
364.089
341.156
320.635
302.163
285.45
270.256
256.383
243.668
231.971
221.176
211.182
201.905
193.27
185.213
177.679
170.619
163.99
157.754
151.878
146.333
141.091
136.129
131.425
126.96
122.718
118.682
114.838
111.173
107.675
104.334
101.14
98.0833
95.1563
92.3512
89.6608
87.0788
84.599
82.216
79.9246
77.7199
75.5976
73.5535
71.5837
69.6846
67.8527
66.0851
64.3786
62.7305
61.1382
59.5992
58.1112
56.6722
55.2799
53.9326
52.6284
51.3655
50.1424
48.9574
47.8092
46.6964
45.6176
44.5716
43.5572
42.5733
41.6189
40.693
39.7945
38.9226
38.0764
37.2551
36.4579
35.6841
34.9329
34.2037
33.4958
14070
5662.01
3234.25
2223.66
1680.04
1343.38
1115.29
950.893
826.93
730.185
652.615
589.049
536.019
491.111
452.594
419.197
389.964
364.163
341.224
320.696
302.219
285.501
270.303
256.426
243.707
232.007
221.209
211.213
201.932
193.295
185.236
177.7
170.638
164.008
157.77
151.893
146.347
141.103
136.14
131.435
126.97
122.727
118.69
114.845
111.179
107.681
104.34
101.145
98.0883
95.1609
92.3554
89.6647
87.0823
84.6023
82.2191
79.9274
77.7225
75.6
73.5557
71.5858
69.6865
67.8545
66.0868
64.3801
62.7319
61.1395
59.6005
58.1124
56.6733
55.281
53.9336
52.6293
51.3664
50.1432
48.9583
47.81
46.6971
45.6183
44.5723
43.5579
42.574
41.6196
40.6936
39.7952
38.9233
38.0771
37.2558
36.4586
35.6847
34.9335
34.2043
33.4964
14071.5
5660.64
3233.95
2223.61
1680.12
1343.51
1115.43
951.033
827.061
730.305
652.724
589.148
536.11
491.194
452.67
419.267
390.029
364.223
341.279
320.747
302.266
285.545
270.343
256.464
243.742
232.039
221.238
211.24
201.958
193.318
185.257
177.72
170.656
164.024
157.786
151.908
146.36
141.115
136.151
131.446
126.98
122.735
118.698
114.852
111.186
107.688
104.346
101.151
98.0933
95.1655
92.3596
89.6686
87.086
84.6057
82.2222
79.9303
77.7252
75.6025
73.558
71.5879
69.6885
67.8564
66.0885
64.3818
62.7334
61.1409
59.6018
58.1137
56.6745
55.2821
53.9347
52.6303
51.3674
50.1441
48.9591
47.8109
46.6979
45.6191
44.573
43.5586
42.5747
41.6203
40.6943
39.7958
38.9239
38.0777
37.2564
36.4592
35.6853
34.9341
34.2049
33.497
14073
5659.44
3233.58
2223.48
1680.12
1343.57
1115.52
951.127
827.152
730.391
652.804
589.222
536.178
491.257
452.729
419.322
390.08
364.271
341.324
320.789
302.306
285.581
270.377
256.496
243.772
232.067
221.264
211.264
201.98
193.339
185.277
177.738
170.673
164.04
157.8
151.921
146.372
141.127
136.162
131.456
126.989
122.744
118.706
114.86
111.193
107.694
104.351
101.156
98.0982
95.1701
92.3639
89.6726
87.0896
84.6091
82.2253
79.9332
77.7279
75.6051
73.5604
71.5901
69.6905
67.8583
66.0902
64.3834
62.735
61.1424
59.6031
58.115
56.6757
55.2833
53.9358
52.6314
51.3683
50.1451
48.96
47.8117
46.6988
45.6199
44.5738
43.5594
42.5755
41.621
40.695
39.7965
38.9246
38.0783
37.257
36.4598
35.686
34.9347
34.2055
33.4976
14074.3
5658.42
3233.18
2223.33
1680.09
1343.59
1115.57
951.191
827.218
730.455
652.864
589.279
536.231
491.306
452.775
419.365
390.121
364.309
341.36
320.823
302.338
285.612
270.406
256.523
243.797
232.091
221.287
211.285
202
193.358
185.294
177.754
170.688
164.054
157.814
151.934
146.384
141.138
136.172
131.465
126.997
122.752
118.713
114.867
111.2
107.7
104.357
101.161
98.1031
95.1747
92.3681
89.6765
87.0933
84.6125
82.2285
79.9362
77.7307
75.6076
73.5628
71.5923
69.6926
67.8602
66.0921
64.3851
62.7366
61.1439
59.6045
58.1163
56.6769
55.2844
53.9369
52.6324
51.3694
50.146
48.9609
47.8126
46.6996
45.6207
44.5746
43.5601
42.5762
41.6217
40.6957
39.7972
38.9252
38.079
37.2577
36.4605
35.6866
34.9354
34.2061
33.4982
14075.4
5657.55
3232.78
2223.16
1680.02
1343.59
1115.6
951.231
827.264
730.502
652.91
589.322
536.272
491.345
452.812
419.4
390.153
364.34
341.39
320.851
302.365
285.637
270.43
256.546
243.819
232.112
221.307
211.304
202.018
193.374
185.31
177.769
170.702
164.067
157.826
151.945
146.395
141.148
136.182
131.474
127.006
122.76
118.721
114.874
111.206
107.706
104.363
101.166
98.108
95.1792
92.3723
89.6804
87.097
84.6159
82.2317
79.9391
77.7335
75.6102
73.5652
71.5946
69.6947
67.8622
66.0939
64.3868
62.7382
61.1454
59.606
58.1176
56.6782
55.2857
53.938
52.6335
51.3704
50.147
48.9619
47.8135
46.7005
45.6215
44.5754
43.5609
42.577
41.6225
40.6964
39.7979
38.9259
38.0797
37.2584
36.4611
35.6872
34.936
34.2068
33.4988
14076.4
5656.79
3232.37
2222.98
1679.94
1343.56
1115.6
951.253
827.295
730.535
652.943
589.355
536.303
491.375
452.84
419.427
390.18
364.365
341.414
320.874
302.387
285.659
270.451
256.565
243.838
232.13
221.324
211.32
202.033
193.389
185.324
177.782
170.715
164.079
157.837
151.956
146.405
141.157
136.19
131.482
127.014
122.767
118.728
114.88
111.212
107.712
104.368
101.171
98.1127
95.1836
92.3765
89.6843
87.1006
84.6193
82.2349
79.9421
77.7363
75.6128
73.5677
71.5969
69.6969
67.8642
66.0958
64.3886
62.7399
61.147
59.6074
58.119
56.6795
55.2869
53.9392
52.6346
51.3715
50.1481
48.9629
47.8144
46.7014
45.6224
44.5762
43.5617
42.5777
41.6232
40.6972
39.7986
38.9266
38.0804
37.259
36.4618
35.6879
34.9367
34.2074
33.4995
14077.3
5656.14
3231.99
2222.8
1679.84
1343.51
1115.59
951.261
827.313
730.558
652.968
589.38
536.327
491.398
452.863
419.449
390.201
364.385
341.433
320.893
302.405
285.676
270.468
256.582
243.854
232.145
221.338
211.334
202.046
193.402
185.336
177.794
170.726
164.09
157.847
151.965
146.414
141.166
136.199
131.49
127.021
122.774
118.734
114.886
111.218
107.717
104.373
101.176
98.1173
95.1879
92.3805
89.6881
87.1042
84.6227
82.238
79.9451
77.739
75.6154
73.5701
71.5992
69.699
67.8663
66.0977
64.3904
62.7416
61.1486
59.609
58.1205
56.6809
55.2882
53.9404
52.6358
51.3726
50.1491
48.9639
47.8154
46.7023
45.6233
44.5771
43.5626
42.5785
41.624
40.6979
39.7994
38.9274
38.0811
37.2598
36.4625
35.6886
34.9374
34.2081
33.5002
14078.1
5655.58
3231.62
2222.61
1679.74
1343.46
1115.57
951.258
827.321
730.572
652.985
589.398
536.346
491.416
452.881
419.466
390.217
364.402
341.449
320.909
302.42
285.691
270.482
256.596
243.867
232.158
221.351
211.346
202.058
193.413
185.347
177.804
170.736
164.099
157.857
151.974
146.422
141.174
136.206
131.497
127.028
122.781
118.74
114.892
111.224
107.722
104.378
101.181
98.1217
95.1921
92.3845
89.6919
87.1077
84.626
82.2411
79.948
77.7418
75.618
73.5726
71.6015
69.7012
67.8683
66.0996
64.3922
62.7433
61.1502
59.6105
58.1219
56.6823
55.2895
53.9417
52.637
51.3737
50.1502
48.9649
47.8164
46.7033
45.6242
44.578
43.5634
42.5794
41.6248
40.6987
39.8001
38.9282
38.0819
37.2605
36.4632
35.6893
34.9381
34.2088
33.5009
14078.7
5655.09
3231.29
2222.43
1679.64
1343.4
1115.54
951.247
827.321
730.579
652.995
589.41
536.359
491.43
452.894
419.48
390.231
364.415
341.462
320.922
302.433
285.703
270.494
256.607
243.879
232.169
221.362
211.357
202.068
193.423
185.357
177.814
170.745
164.108
157.865
151.982
146.43
141.181
136.213
131.504
127.034
122.787
118.746
114.898
111.229
107.727
104.383
101.185
98.126
95.1961
92.3883
89.6955
87.1111
84.6292
82.2442
79.9509
77.7446
75.6206
73.575
71.6038
69.7034
67.8704
66.1016
64.3941
62.745
61.1518
59.6121
58.1234
56.6837
55.2908
53.943
52.6382
51.3749
50.1513
48.966
47.8174
46.7042
45.6252
44.5789
43.5643
42.5803
41.6257
40.6996
39.801
38.9289
38.0827
37.2613
36.464
35.6901
34.9388
34.2095
33.5016
14079.2
5654.67
3230.98
2222.26
1679.54
1343.34
1115.5
951.229
827.315
730.58
653.001
589.418
536.368
491.44
452.905
419.49
390.241
364.425
341.473
320.932
302.443
285.714
270.504
256.617
243.888
232.179
221.371
211.366
202.077
193.432
185.365
177.822
170.753
164.116
157.872
151.989
146.437
141.188
136.22
131.51
127.04
122.793
118.752
114.903
111.234
107.732
104.387
101.19
98.13
95.2
92.392
89.699
87.1145
84.6324
82.2472
79.9538
77.7473
75.6232
73.5774
71.6061
69.7056
67.8724
66.1035
64.3959
62.7468
61.1535
59.6137
58.1249
56.6851
55.2922
53.9443
52.6395
51.3761
50.1525
48.9671
47.8185
46.7053
45.6261
44.5799
43.5652
42.5812
41.6266
40.7004
39.8018
38.9298
38.0835
37.2621
36.4648
35.6909
34.9396
34.2103
33.5023
14079.7
5654.32
3230.7
2222.1
1679.44
1343.28
1115.46
951.206
827.304
730.576
653.002
589.422
536.374
491.447
452.912
419.498
390.25
364.434
341.481
320.94
302.451
285.722
270.513
256.626
243.897
232.187
221.379
211.374
202.085
193.439
185.373
177.829
170.76
164.123
157.879
151.996
146.443
141.194
136.226
131.516
127.046
122.798
118.757
114.908
111.238
107.737
104.392
101.194
98.134
95.2037
92.3956
89.7024
87.1177
84.6355
82.2502
79.9566
77.7499
75.6257
73.5799
71.6084
69.7077
67.8745
66.1055
64.3978
62.7486
61.1552
59.6153
58.1265
56.6866
55.2936
53.9456
52.6408
51.3773
50.1536
48.9682
47.8196
46.7063
45.6272
44.5809
43.5662
42.5821
41.6275
40.7013
39.8027
38.9307
38.0843
37.2629
36.4657
35.6917
34.9404
34.2111
33.5031
14080.1
5654
3230.44
2221.94
1679.34
1343.21
1115.42
951.18
827.288
730.569
652.999
589.423
536.377
491.451
452.917
419.504
390.256
364.44
341.488
320.947
302.458
285.729
270.52
256.633
243.904
232.194
221.386
211.381
202.092
193.446
185.379
177.836
170.766
164.129
157.885
152.002
146.449
141.2
136.231
131.521
127.051
122.803
118.761
114.912
111.243
107.741
104.396
101.198
98.1377
95.2073
92.399
89.7057
87.1208
84.6385
82.253
79.9593
77.7525
75.6282
73.5822
71.6107
69.7099
67.8766
66.1075
64.3997
62.7504
61.1569
59.6169
58.1281
56.6881
55.2951
53.947
52.6421
51.3786
50.1549
48.9694
47.8207
46.7074
45.6282
44.5819
43.5672
42.5831
41.6284
40.7023
39.8036
38.9316
38.0852
37.2638
36.4666
35.6927
34.9414
34.2121
33.504
14080.4
5653.72
3230.21
2221.8
1679.25
1343.15
1115.38
951.152
827.27
730.558
652.994
589.421
536.378
491.453
452.921
419.508
390.26
364.445
341.493
320.953
302.464
285.735
270.525
256.639
243.91
232.2
221.392
211.387
202.098
193.452
185.385
177.841
170.772
164.134
157.891
152.007
146.454
141.205
136.236
131.526
127.055
122.807
118.766
114.917
111.247
107.745
104.4
101.201
98.1412
95.2107
92.4023
89.7088
87.1239
84.6414
82.2558
79.962
77.7551
75.6307
73.5846
71.6129
69.7121
67.8786
66.1095
64.4016
62.7522
61.1587
59.6186
58.1296
56.6896
55.2965
53.9484
52.6434
51.3799
50.1561
48.9706
47.8219
46.7086
45.6293
44.583
43.5682
42.5841
41.6294
40.7032
39.8046
38.9325
38.0862
37.2648
36.4677
14080.7
5653.48
3230
2221.66
1679.16
1343.09
1115.34
951.122
827.25
730.545
652.986
589.417
536.376
491.454
452.922
419.51
390.263
364.449
341.497
320.957
302.468
285.739
270.53
256.644
243.915
232.205
221.397
211.392
202.103
193.457
185.39
177.847
170.777
164.139
157.896
152.012
146.459
141.209
136.24
131.53
127.06
122.811
118.77
114.921
111.251
107.749
104.403
101.205
98.1446
95.214
92.4055
89.7119
87.1268
84.6442
82.2586
79.9646
77.7576
75.6331
73.5869
71.6152
69.7142
67.8807
66.1114
64.4035
62.754
61.1604
59.6203
58.1313
56.6912
55.298
53.9499
52.6448
51.3812
50.1574
48.9719
47.8231
46.7097
45.6305
44.5841
43.5693
42.5852
41.6305
40.7043
39.8056
38.9336
38.0873
37.2659
36.4687
14080.9
5653.26
3229.81
2221.54
1679.07
1343.03
1115.29
951.092
827.229
730.53
652.976
589.411
536.372
491.452
452.922
419.511
390.265
364.451
341.499
320.96
302.472
285.743
270.534
256.648
243.919
232.209
221.402
211.396
202.108
193.462
185.395
177.851
170.782
164.144
157.9
152.016
146.463
141.214
136.245
131.534
127.064
122.815
118.774
114.924
111.254
107.752
104.407
101.208
98.1479
95.2172
92.4085
89.7148
87.1297
84.647
82.2612
79.9672
77.7601
75.6355
73.5892
71.6174
69.7163
67.8827
66.1134
64.4054
62.7558
61.1622
59.622
58.1329
56.6928
55.2996
53.9513
52.6462
51.3826
50.1587
48.9731
47.8243
46.7109
45.6316
44.5852
43.5705
42.5863
41.6316
40.7054
39.8067
38.9347
38.0885
37.2671
36.4698
14081.1
5653.07
3229.64
2221.42
1678.99
1342.97
1115.25
951.061
827.206
730.514
652.964
589.403
536.367
491.449
452.92
419.511
390.265
364.452
341.501
320.962
302.475
285.746
270.537
256.651
243.922
232.213
221.406
211.4
202.112
193.466
185.399
177.855
170.786
164.148
157.904
152.02
146.467
141.218
136.249
131.538
127.068
122.819
118.777
114.928
111.258
107.755
104.41
101.211
98.151
95.2202
92.4114
89.7177
87.1324
84.6496
82.2638
79.9697
77.7625
75.6378
73.5915
71.6195
69.7184
67.8848
66.1154
64.4072
62.7576
61.1639
59.6237
58.1345
56.6944
55.3011
53.9528
52.6477
51.384
50.1601
48.9745
47.8256
46.7122
45.6329
44.5864
43.5716
42.5874
41.6327
40.7065
39.8079
38.936
14081.3
5652.9
3229.48
2221.31
1678.92
1342.92
1115.21
951.03
827.183
730.497
652.952
589.394
536.361
491.444
452.918
419.509
390.265
364.452
341.502
320.964
302.476
285.748
270.54
256.654
243.925
232.216
221.409
211.404
202.115
193.469
185.403
177.859
170.79
164.152
157.908
152.024
146.471
141.221
136.252
131.542
127.071
122.823
118.781
114.931
111.261
107.759
104.413
101.215
98.154
95.2231
92.4143
89.7204
87.1351
84.6522
82.2663
79.9721
77.7649
75.6401
73.5937
71.6217
69.7205
67.8868
66.1173
64.4091
62.7595
61.1657
59.6254
58.1362
56.696
55.3027
53.9544
52.6492
51.3854
50.1615
48.9758
47.8269
46.7135
45.6341
44.5876
43.5728
42.5886
41.6339
40.7078
39.8092
38.9372
14081.5
5652.74
3229.34
2221.21
1678.85
1342.87
1115.17
951
827.16
730.479
652.938
589.383
536.353
491.439
452.914
419.507
390.264
364.452
341.502
320.964
302.478
285.75
270.542
256.656
243.928
232.219
221.412
211.407
202.118
193.473
185.406
177.862
170.793
164.155
157.911
152.027
146.474
141.225
136.256
131.545
127.074
122.826
118.784
114.934
111.264
107.762
104.416
101.217
98.1568
95.2259
92.417
89.7231
87.1377
84.6548
82.2688
79.9745
77.7672
75.6424
73.5959
71.6238
69.7226
67.8888
66.1193
64.411
62.7613
61.1675
59.6271
58.1379
56.6976
55.3043
53.9559
52.6507
51.3869
50.1629
48.9772
47.8283
46.7148
45.6354
44.5889
43.5741
42.5899
41.6352
40.709
39.8104
38.9385
14081.6
5652.6
3229.22
2221.12
1678.78
1342.82
1115.14
950.972
827.137
730.461
652.924
589.372
536.345
491.433
452.909
419.504
390.261
364.451
341.502
320.965
302.478
285.751
270.543
256.658
243.93
232.221
221.414
211.409
202.121
193.476
185.409
177.865
170.796
164.158
157.914
152.031
146.477
141.228
136.259
131.548
127.077
122.829
118.787
114.937
111.267
107.765
104.419
101.22
98.1596
95.2286
92.4197
89.7257
87.1402
84.6573
82.2712
79.9769
77.7695
75.6446
73.5981
71.626
69.7247
67.8908
66.1212
64.4129
62.7632
61.1693
59.6289
58.1396
56.6993
55.3059
53.9575
52.6522
51.3884
50.1644
48.9786
47.8297
46.7162
45.6368
44.5903
43.5755
42.5912
41.6365
40.7103
39.8117
38.9398
14081.7
5652.47
3229.1
2221.03
1678.72
1342.77
1115.1
950.944
827.115
730.443
652.91
589.361
536.336
491.426
452.904
419.5
390.259
364.449
341.501
320.964
302.478
285.751
270.544
256.659
243.932
232.223
221.416
211.412
202.123
193.478
185.411
177.868
170.799
164.161
157.917
152.034
146.48
141.231
136.262
131.551
127.08
122.832
118.79
114.94
111.27
107.767
104.422
101.223
98.1623
95.2312
92.4222
89.7282
87.1427
84.6597
82.2736
79.9792
77.7718
75.6469
73.6002
71.6281
69.7267
67.8928
66.1232
64.4149
62.765
61.1711
59.6307
58.1413
56.701
55.3075
53.9591
52.6538
51.3899
50.1659
48.9801
47.8312
46.7176
45.6382
44.5917
43.5768
42.5926
41.6379
40.7117
39.8131
38.9411
14081.9
5652.35
3228.99
2220.95
1678.66
1342.73
1115.07
950.917
827.093
730.425
652.895
589.349
536.326
491.418
452.898
419.495
390.255
364.446
341.499
320.963
302.478
285.752
270.545
256.66
243.933
232.225
221.418
211.414
202.126
193.48
185.414
177.87
170.801
164.164
157.92
152.036
146.483
141.234
136.264
131.554
127.083
122.835
118.793
114.943
111.273
107.77
104.424
101.226
98.1649
95.2338
92.4248
89.7307
87.1452
84.6621
82.2759
79.9815
77.774
75.6491
73.6024
71.6302
69.7288
67.8948
66.1252
64.4168
62.7669
61.173
59.6325
58.1431
56.7027
55.3092
53.9607
52.6554
51.3915
50.1674
48.9816
47.8327
46.7191
45.6397
44.5931
43.5783
42.594
41.6393
40.7131
39.8144
38.9424
14082
5652.24
3228.89
2220.88
1678.6
1342.69
1115.03
950.891
827.072
730.408
652.881
589.337
536.317
491.41
452.892
419.49
390.251
364.443
341.497
320.962
302.477
285.751
270.545
256.661
243.934
232.226
221.419
211.415
202.127
193.482
185.416
177.873
170.804
164.166
157.922
152.039
146.486
141.236
136.267
131.557
127.086
122.837
118.795
114.946
111.275
107.773
104.427
101.228
98.1674
95.2363
92.4272
89.7331
87.1476
84.6644
82.2782
79.9838
77.7763
75.6512
73.6045
71.6323
69.7309
67.8969
66.1271
64.4187
62.7688
61.1748
59.6343
58.1449
56.7044
55.3109
53.9624
52.6571
51.3931
50.169
48.9832
47.8342
46.7206
45.6412
44.5946
43.5798
42.5955
41.6408
40.7146
39.8159
38.9438
14082.1
5652.14
3228.8
2220.81
1678.55
1342.65
1115
950.867
827.052
730.391
652.867
589.326
536.307
491.402
452.885
419.485
390.247
364.44
341.495
320.96
302.476
285.751
270.545
256.661
243.934
232.227
221.421
211.417
202.129
193.484
185.418
177.875
170.806
164.169
157.925
152.041
146.488
141.239
136.27
131.559
127.088
122.84
118.798
114.948
111.278
107.775
104.43
101.231
98.1699
95.2388
92.4297
89.7355
87.1499
84.6668
82.2805
79.986
77.7785
75.6534
73.6067
71.6344
69.7329
67.8989
66.1291
64.4207
62.7707
61.1767
59.6361
58.1467
56.7062
55.3127
53.9641
52.6587
51.3948
50.1707
48.9848
47.8358
46.7222
45.6428
44.5962
43.5813
42.597
41.6423
40.716
39.8173
38.9452
14082.2
5652.04
3228.72
2220.74
1678.51
1342.61
1114.98
950.844
827.033
730.375
652.853
589.314
536.297
491.394
452.878
419.479
390.242
364.437
341.492
320.958
302.475
285.75
270.544
256.661
243.935
232.227
221.422
211.418
202.131
193.486
185.42
177.877
170.808
164.171
157.927
152.044
146.491
141.241
136.272
131.562
127.091
122.842
118.8
114.951
111.28
107.778
104.432
101.233
98.1724
95.2412
92.4321
89.7379
87.1523
84.6691
82.2828
79.9883
77.7807
75.6556
73.6088
71.6365
69.735
67.9009
66.1311
64.4226
62.7727
61.1786
59.638
58.1485
56.708
55.3145
53.9659
52.6605
51.3965
50.1724
48.9865
47.8375
46.7238
45.6444
44.5978
43.5829
42.5986
41.6439
40.7176
39.8188
38.9466
14082.3
5651.95
3228.64
2220.68
1678.46
1342.58
1114.95
950.823
827.015
730.36
652.84
589.303
536.287
491.386
452.871
419.473
390.238
364.433
341.489
320.956
302.473
285.749
270.544
256.661
243.935
232.228
221.423
211.419
202.132
193.487
185.421
177.879
170.81
164.173
157.929
152.046
146.493
141.244
136.275
131.564
127.093
122.845
118.803
114.953
111.283
107.78
104.434
101.236
98.1748
95.2436
92.4345
89.7403
87.1546
84.6714
82.2851
79.9905
77.7829
75.6578
73.611
71.6386
69.7371
67.903
66.1331
64.4246
62.7746
61.1805
59.6399
58.1504
56.7099
55.3163
53.9677
52.6623
51.3983
50.1741
48.9882
47.8392
46.7255
45.646
44.5995
43.5846
42.6003
41.6455
40.7192
39.8204
38.9482
14082.4
5651.87
3228.57
2220.62
1678.42
1342.55
1114.92
950.802
826.998
730.345
652.828
589.292
536.278
491.377
452.864
419.467
390.233
364.428
341.485
320.953
302.471
285.747
270.543
256.66
243.935
232.228
221.423
211.42
202.133
193.489
185.423
177.88
170.812
164.175
157.931
152.048
146.495
141.246
136.277
131.567
127.096
122.847
118.805
114.956
111.285
107.783
104.437
101.238
98.1772
95.246
92.4368
89.7426
87.1569
84.6737
82.2874
79.9928
77.7852
75.66
73.6132
71.6408
69.7392
67.9051
66.1352
64.4266
62.7766
61.1825
59.6418
58.1523
56.7118
55.3182
53.9695
52.6641
51.4001
50.1759
48.99
47.8409
46.7273
45.6478
44.6012
43.5863
42.6019
41.6471
40.7208
39.822
38.9497
14082.4
5651.79
3228.5
2220.57
1678.38
1342.52
1114.9
950.783
826.982
730.331
652.815
589.281
536.268
491.369
452.857
419.461
390.227
364.424
341.482
320.95
302.469
285.746
270.542
256.66
243.935
232.228
221.424
211.421
202.134
193.49
185.424
177.882
170.814
164.177
157.933
152.05
146.497
141.248
136.279
131.569
127.098
122.85
118.808
114.958
111.288
107.785
104.439
101.24
98.1796
95.2484
92.4392
89.745
87.1593
84.676
82.2897
79.9951
77.7874
75.6622
73.6153
71.6429
69.7413
67.9072
66.1373
64.4287
62.7786
61.1845
59.6438
58.1543
56.7137
55.3201
53.9714
52.6659
51.4019
50.1777
48.9918
47.8427
46.7291
45.6496
44.6029
43.588
42.6037
41.6488
40.7225
39.8236
38.9513
14082.5
5651.72
3228.44
2220.52
1678.34
1342.49
1114.88
950.764
826.966
730.318
652.804
589.271
536.259
491.361
452.85
419.455
390.222
364.42
341.478
320.947
302.466
285.744
270.541
256.659
243.934
232.228
221.424
211.421
202.135
193.491
185.426
177.883
170.815
164.178
157.935
152.052
146.499
141.25
136.281
131.571
127.1
122.852
118.81
114.96
111.29
107.788
104.442
101.243
98.182
95.2508
92.4416
89.7474
87.1616
84.6783
82.292
79.9973
77.7897
75.6644
73.6175
71.6451
69.7435
67.9093
66.1394
64.4308
62.7807
61.1865
59.6458
58.1563
56.7157
55.322
53.9733
52.6679
51.4038
50.1796
48.9937
47.8446
46.7309
45.6514
44.6047
43.5898
42.6054
41.6506
40.7242
39.8253
38.953
14082.6
5651.65
3228.38
2220.47
1678.3
1342.46
1114.86
950.747
826.952
730.306
652.793
589.261
536.251
491.354
452.843
419.449
390.217
364.415
341.474
320.944
302.464
285.742
270.539
256.658
243.934
232.228
221.424
211.422
202.136
193.492
185.427
177.885
170.817
164.18
157.937
152.054
146.501
141.252
136.283
131.573
127.103
122.854
118.812
114.963
111.293
107.79
104.444
101.245
98.1844
95.2532
92.444
89.7497
87.164
84.6807
82.2943
79.9996
77.7919
75.6667
73.6198
71.6473
69.7457
67.9115
66.1415
64.4329
62.7828
61.1886
59.6479
58.1583
56.7177
55.324
53.9753
52.6698
51.4058
50.1816
48.9956
47.8465
46.7328
45.6533
44.6066
43.5917
42.6073
41.6524
40.726
39.827
38.9547
14082.7
5651.59
3228.32
2220.42
1678.27
1342.43
1114.84
950.73
826.938
730.294
652.783
589.252
536.243
491.346
452.837
419.443
390.212
364.411
341.471
320.941
302.461
285.74
270.538
256.657
243.933
232.228
221.424
211.422
202.136
193.493
185.428
177.886
170.818
164.182
157.939
152.056
146.503
141.254
136.286
131.576
127.105
122.857
118.815
114.965
111.295
107.792
104.446
101.248
98.1868
95.2556
92.4463
89.7521
87.1663
84.683
82.2966
80.002
77.7942
75.669
73.622
71.6496
69.7479
67.9137
66.1437
64.4351
62.7849
61.1907
59.65
58.1604
56.7198
55.3261
53.9774
52.6719
51.4078
50.1835
48.9976
47.8485
46.7348
45.6552
44.6085
43.5936
42.6092
41.6542
40.7278
39.8289
38.9565
14082.8
5651.53
3228.27
2220.38
1678.23
1342.41
1114.82
950.715
826.925
730.283
652.773
589.243
536.235
491.339
452.83
419.438
390.207
364.407
341.467
320.938
302.459
285.738
270.536
256.656
243.932
232.227
221.424
211.422
202.137
193.494
185.429
177.887
170.819
164.183
157.94
152.058
146.505
141.256
136.288
131.578
127.107
122.859
118.817
114.967
111.297
107.795
104.449
101.25
98.1892
95.258
92.4487
89.7545
87.1687
84.6854
82.299
80.0043
77.7966
75.6713
73.6243
71.6518
69.7501
67.9159
66.1459
64.4373
62.7871
61.1929
59.6521
58.1625
56.7219
55.3282
53.9795
52.6739
51.4098
50.1856
48.9996
47.8505
46.7368
45.6572
44.6105
43.5955
42.6111
41.6562
40.7297
39.8307
38.9584
14082.9
5651.48
3228.22
2220.34
1678.2
1342.38
1114.8
950.7
826.913
730.272
652.764
589.235
536.228
491.333
452.824
419.432
390.202
364.402
341.463
320.935
302.456
285.736
270.534
256.654
243.931
232.227
221.424
211.422
202.137
193.494
185.43
177.888
170.821
164.185
157.942
152.059
146.507
141.258
136.29
131.58
127.109
122.861
118.819
114.97
111.3
107.797
104.451
101.252
98.1916
95.2604
92.4511
89.7569
87.1711
84.6878
82.3014
80.0067
77.7989
75.6736
73.6267
71.6541
69.7524
67.9182
66.1482
64.4395
62.7893
61.1951
59.6543
58.1647
56.724
55.3303
53.9816
52.676
51.412
50.1877
49.0017
47.8526
46.7388
45.6593
44.6126
43.5975
42.6131
41.6582
40.7317
39.8328
14082.9
5651.43
3228.17
2220.3
1678.17
1342.36
1114.78
950.685
826.901
730.263
652.755
589.228
536.221
491.326
452.819
419.427
390.197
364.398
341.459
320.931
302.453
285.733
270.532
256.653
243.93
232.226
221.423
211.422
202.137
193.495
185.431
177.889
170.822
164.186
157.943
152.061
146.509
141.26
136.292
131.582
127.111
122.863
118.822
114.972
111.302
107.799
104.454
101.255
98.194
95.2628
92.4536
89.7593
87.1735
84.6902
82.3038
80.0091
77.8013
75.676
73.629
71.6565
69.7548
67.9205
66.1505
64.4418
62.7916
61.1974
59.6566
58.1669
56.7262
55.3325
53.9838
52.6782
51.4141
50.1898
49.0039
47.8547
46.741
45.6614
44.6146
43.5996
42.6152
41.6602
40.7338
39.8348
14083
5651.39
3228.13
2220.26
1678.14
1342.34
1114.76
950.672
826.89
730.253
652.747
589.22
536.214
491.32
452.813
419.422
390.193
364.394
341.456
320.928
302.451
285.731
270.53
256.651
243.929
232.225
221.423
211.422
202.138
193.495
185.431
177.89
170.823
164.187
157.945
152.063
146.511
141.262
136.294
131.584
127.114
122.865
118.824
114.974
111.304
107.802
104.456
101.257
98.1964
95.2652
92.456
89.7618
87.176
84.6927
82.3062
80.0115
77.8037
75.6784
73.6314
71.6589
69.7571
67.9228
66.1528
64.4441
62.7939
61.1997
59.6588
58.1692
56.7285
55.3348
53.986
52.6804
51.4163
50.192
49.006
47.8569
46.7431
45.6635
44.6168
43.6018
42.6173
41.6623
40.7358
39.8368
14083.1
5651.35
3228.09
2220.23
1678.11
1342.32
1114.74
950.658
826.879
730.244
652.739
589.214
536.208
491.315
452.808
419.418
390.189
364.39
341.452
320.925
302.448
285.729
270.529
256.65
243.928
232.225
221.423
211.422
202.138
193.496
185.432
177.891
170.824
164.189
157.946
152.064
146.512
141.264
136.296
131.586
127.116
122.868
118.826
114.977
111.307
107.804
104.458
101.26
98.1989
95.2677
92.4585
89.7642
87.1784
84.6951
82.3087
80.014
77.8062
75.6809
73.6339
71.6613
69.7595
67.9252
66.1552
64.4465
62.7963
61.202
59.6612
58.1715
56.7308
55.3371
53.9883
52.6827
51.4186
50.1943
49.0083
47.8591
46.7454
45.6657
44.619
43.6039
42.6195
41.6645
40.7379
39.8389
14083.2
5651.32
3228.05
2220.2
1678.09
1342.29
1114.73
950.646
826.869
730.236
652.732
589.207
536.202
491.31
452.803
419.413
390.185
364.386
341.449
320.922
302.445
285.727
270.527
256.649
243.927
232.224
221.422
211.422
202.138
193.496
185.433
177.892
170.825
164.19
157.948
152.066
146.514
141.266
136.298
131.588
127.118
122.87
118.828
114.979
111.309
107.807
104.461
101.262
98.2013
95.2701
92.461
89.7667
87.1809
84.6976
82.3112
80.0164
77.8087
75.6833
73.6363
71.6637
69.762
67.9277
66.1576
64.4489
62.7987
61.2044
59.6636
58.1739
56.7332
55.3394
53.9906
52.6851
51.4209
50.1966
49.0106
47.8614
46.7476
45.668
44.6212
43.6062
42.6217
41.6666
40.7401
39.841
14083.3
5651.28
3228.02
2220.16
1678.06
1342.27
1114.71
950.633
826.859
730.227
652.725
589.201
536.197
491.305
452.799
419.409
390.181
364.383
341.446
320.919
302.443
285.724
270.525
256.647
243.926
232.223
221.422
211.422
202.138
193.496
185.433
177.893
170.826
164.191
157.949
152.067
146.515
141.267
136.299
131.59
127.12
122.872
118.83
114.981
111.311
107.809
104.463
101.265
98.2038
95.2726
92.4634
89.7692
87.1834
84.7001
82.3137
80.019
77.8112
75.6858
73.6388
71.6662
69.7645
67.9301
66.1601
64.4513
62.8011
61.2068
59.666
58.1763
56.7356
55.3418
53.993
52.6874
51.4233
50.199
49.0129
47.8637
46.75
45.6703
44.6235
43.6084
42.6239
41.6688
40.7422
39.8431
14083.4
5651.26
3227.98
2220.13
1678.04
1342.25
1114.7
950.621
826.849
730.219
652.718
589.195
536.191
491.3
452.794
419.405
390.177
364.38
341.443
320.917
302.44
285.722
270.523
256.646
243.925
232.222
221.421
211.421
202.138
193.497
185.434
177.893
170.827
164.192
157.95
152.069
146.517
141.269
136.301
131.592
127.122
122.874
118.833
114.983
111.314
107.811
104.466
101.267
98.2062
95.2751
92.4659
89.7717
87.186
84.7026
82.3162
80.0215
77.8137
75.6884
73.6413
71.6688
69.767
67.9327
66.1626
64.4538
62.8036
61.2093
59.6684
58.1787
56.738
55.3442
53.9955
52.6899
51.4257
50.2014
49.0153
47.8661
46.7523
45.6727
44.6259
43.6107
42.6262
41.6711
40.7445
39.8453
14083.4
5651.24
3227.95
2220.11
1678.01
1342.24
1114.68
950.609
826.84
730.212
652.712
589.19
536.186
491.295
452.79
419.401
390.174
364.376
341.44
320.914
302.438
285.72
270.521
256.644
243.924
232.221
221.42
211.421
202.138
193.497
185.434
177.894
170.828
164.193