/*--------------------------------*- C++ -*----------------------------------*\
  =========                 |
  \\      /  F ield         | OpenFOAM: The Open Source CFD Toolbox
   \\    /   O peration     | Website:  https://openfoam.org
    \\  /    A nd           | Version:  10
     \\/     M anipulation  |
\*---------------------------------------------------------------------------*/
FoamFile
{
    format      ascii;
    class       volVectorField;
    location    "15000";
    object      Urel;
}
// * * * * * * * * * * * * * * * * * * * * * * * * * * * * * * * * * * * * * //

dimensions      [0 1 -1 0 0 0 0];

internalField   nonuniform List<vector> 
17808
(
(3.72982 -4.08737 -1.11039e-17)
(3.28499 -3.59787 -1.23585e-18)
(3.09087 -3.38432 7.94234e-18)
(2.95773 -3.24152 8.40243e-18)
(2.85711 -3.13163 -1.94684e-18)
(2.77572 -3.04287 -1.35225e-17)
(2.70736 -2.96817 6.71245e-18)
(2.64827 -2.90349 -7.05158e-18)
(2.59609 -2.84631 1.17618e-17)
(2.54925 -2.79494 -3.85934e-21)
(2.50666 -2.74818 -5.23466e-18)
(2.46751 -2.70519 3.7186e-18)
(2.43123 -2.66531 -5.30886e-18)
(2.39735 -2.62806 5.62203e-19)
(2.36551 -2.59304 0)
(2.33545 -2.55996 5.1482e-19)
(2.30691 -2.52856 -9.88486e-19)
(2.27973 -2.49863 -9.50739e-19)
(2.25374 -2.47002 -4.12003e-18)
(2.22881 -2.44256 4.11334e-21)
(2.20483 -2.41615 3.41912e-18)
(2.18171 -2.39069 0)
(2.15937 -2.36607 3.20174e-18)
(2.13773 -2.34222 -3.1097e-18)
(2.11673 -2.31908 3.01542e-18)
(2.09631 -2.29658 -3.66805e-18)
(2.07644 -2.27468 -7.13217e-19)
(2.05706 -2.25333 0)
(2.03815 -2.23248 -6.76567e-19)
(2.01966 -2.2121 -6.59613e-19)
(2.00156 -2.19216 2.57203e-18)
(1.98383 -2.17262 -1.88674e-18)
(1.96644 -2.15345 0)
(1.94938 -2.13464 0)
(1.93261 -2.11616 5.86176e-19)
(1.91612 -2.09799 2.86447e-18)
(1.89989 -2.0801 -1.68503e-18)
(1.88391 -2.06249 0)
(1.86816 -2.04514 -2.14802e-18)
(1.85262 -2.02802 4.38785e-21)
(1.83729 -2.01114 3.09647e-18)
(1.82216 -1.99446 3.02958e-18)
(1.80721 -1.97799 -1.98308e-18)
(1.79243 -1.96171 9.70775e-19)
(1.77781 -1.94562 0)
(1.76334 -1.92969 -9.33097e-19)
(1.74903 -1.91392 2.74267e-18)
(1.73485 -1.89831 -3.5914e-18)
(1.72079 -1.88285 8.7999e-19)
(1.70687 -1.86752 0)
(1.69306 -1.85232 0)
(1.67936 -1.83725 2.48832e-18)
(1.66576 -1.82229 -8.16635e-19)
(1.65226 -1.80744 0)
(1.63886 -1.7927 7.83214e-19)
(1.62554 -1.77806 7.68097e-19)
(1.61231 -1.76351 -7.532e-19)
(1.59916 -1.74905 -7.3851e-19)
(1.58608 -1.73468 -7.24052e-19)
(1.57307 -1.72038 1.41717e-18)
(1.56013 -1.70617 -2.42989e-21)
(1.54725 -1.69202 1.36126e-18)
(1.53443 -1.67794 -1.33879e-18)
(1.52167 -1.66392 -1.30926e-18)
(1.50896 -1.64996 -2.56251e-18)
(1.49629 -1.63606 1.25602e-18)
(1.48367 -1.62221 -2.4623e-18)
(1.4711 -1.60841 2.40811e-18)
(1.45856 -1.59465 0)
(1.44606 -1.58094 1.15322e-18)
(1.43359 -1.56726 2.25385e-18)
(1.42115 -1.55362 -1.10855e-18)
(1.40874 -1.54002 -1.08154e-18)
(1.39635 -1.52644 1.0548e-18)
(1.38399 -1.5129 -2.55522e-21)
(1.37165 -1.49937 -3.0215e-18)
(1.35932 -1.48587 1.97007e-18)
(1.34701 -1.47239 0)
(1.33471 -1.45893 -9.40272e-19)
(1.32242 -1.44548 -2.74778e-18)
(1.31014 -1.43204 0)
(1.29787 -1.41861 0)
(1.28559 -1.40519 1.69756e-18)
(1.27332 -1.39178 0)
(1.26105 -1.37836 1.61189e-18)
(1.24877 -1.36495 0)
(1.23649 -1.35154 -3.65767e-23)
(1.2242 -1.33812 0)
(1.2119 -1.32469 0)
(1.19958 -1.31125 1.4076e-18)
(1.18725 -1.29781 2.73705e-18)
(1.17491 -1.28435 2.66007e-18)
(3.71807 -4.08836 -1.23768e-18)
(3.27708 -3.59872 1.22825e-18)
(3.08271 -3.38751 0)
(2.95107 -3.24455 0)
(2.85111 -3.13503 1.93126e-18)
(2.77005 -3.04668 -8.93695e-19)
(2.70188 -2.97231 6.64258e-18)
(2.64289 -2.90791 -5.42763e-18)
(2.59077 -2.85095 -7.26509e-19)
(2.54395 -2.79975 5.46603e-18)
(2.50137 -2.75313 -5.81168e-18)
(2.46224 -2.71023 1.22347e-18)
(2.42596 -2.67042 5.81478e-19)
(2.39208 -2.63321 -5.54273e-19)
(2.36025 -2.59823 0)
(2.33019 -2.56516 -5.0737e-19)
(2.30167 -2.53376 4.8702e-19)
(2.2745 -2.50383 4.68388e-19)
(2.24853 -2.4752 0)
(2.22362 -2.44773 0)
(2.19966 -2.4213 0)
(2.17656 -2.39581 -8.14511e-19)
(2.15423 -2.37116 0)
(2.13261 -2.34729 -7.65607e-19)
(2.11164 -2.32411 0)
(2.09125 -2.30159 7.22706e-19)
(2.0714 -2.27965 7.03179e-19)
(2.05205 -2.25826 0)
(2.03316 -2.23738 -2.66683e-18)
(2.01469 -2.21696 6.54817e-19)
(1.99663 -2.19698 1.90683e-18)
(1.97892 -2.17741 -6.19936e-19)
(1.96156 -2.15821 2.42052e-18)
(1.94452 -2.13936 -5.32793e-18)
(1.92778 -2.12084 1.73883e-18)
(1.91132 -2.10263 -5.66356e-19)
(1.89512 -2.08471 -1.10862e-18)
(1.87917 -2.06706 0)
(1.86344 -2.04967 0)
(1.84794 -2.03252 2.60132e-18)
(1.83264 -2.0156 -2.04317e-18)
(1.81753 -1.99889 -3.5026e-23)
(1.80261 -1.98239 -9.80637e-19)
(1.78786 -1.96607 -1.9231e-18)
(1.77327 -1.94994 -9.40771e-19)
(1.75884 -1.93398 2.77706e-18)
(1.74455 -1.91818 -1.81238e-18)
(1.7304 -1.90253 2.67269e-18)
(1.71638 -1.88703 -2.61771e-18)
(1.70248 -1.87167 1.71611e-18)
(1.6887 -1.85643 -1.67931e-18)
(1.67503 -1.84133 1.6524e-18)
(1.66146 -1.82633 -8.09575e-19)
(1.64799 -1.81145 0)
(1.63462 -1.79668 -7.79438e-19)
(1.62133 -1.782 0)
(1.60813 -1.76742 0)
(1.59501 -1.75293 7.36035e-19)
(1.58196 -1.73852 2.4277e-21)
(1.56899 -1.7242 1.4187e-18)
(1.55607 -1.70995 -1.38892e-18)
(1.54323 -1.69577 1.36194e-18)
(1.53044 -1.68165 0)
(1.5177 -1.6676 0)
(1.50502 -1.65361 2.56334e-18)
(1.49239 -1.63968 -1.25718e-18)
(1.4798 -1.6258 2.46592e-18)
(1.46725 -1.61196 -2.54048e-21)
(1.45474 -1.59818 -1.18409e-18)
(1.44227 -1.58443 0)
(1.42983 -1.57072 -2.26238e-18)
(1.41743 -1.55705 4.43311e-18)
(1.40505 -1.54342 -5.12879e-21)
(1.39269 -1.52981 -5.14212e-21)
(1.38036 -1.51623 -2.56257e-21)
(1.36804 -1.50268 1.01139e-18)
(1.35575 -1.48915 -1.98458e-18)
(1.34347 -1.47564 9.6825e-19)
(1.3312 -1.46214 1.88892e-18)
(1.31894 -1.44866 -9.26086e-19)
(1.30669 -1.43519 8.98863e-19)
(1.29444 -1.42173 -2.64165e-18)
(1.2822 -1.40828 2.57184e-18)
(1.26996 -1.39484 -5.20719e-21)
(1.25772 -1.38139 -1.63167e-18)
(1.24547 -1.36795 7.97664e-19)
(1.23322 -1.3545 -3.0982e-18)
(1.22096 -1.34105 0)
(1.20869 -1.32759 0)
(1.19641 -1.31412 -2.85842e-18)
(1.18411 -1.30065 -2.08294e-18)
(1.17179 -1.28716 -1.34689e-18)
(3.70703 -4.09424 2.47246e-18)
(3.26622 -3.60466 1.95775e-17)
(3.07223 -3.39338 -3.60318e-17)
(2.94187 -3.2496 1.66121e-17)
(2.84251 -3.14008 -9.5692e-19)
(2.76203 -3.0517 0)
(2.69436 -2.97732 0)
(2.63577 -2.91294 0)
(2.58396 -2.85601 -1.07524e-17)
(2.53741 -2.80484 1.0793e-17)
(2.49503 -2.75825 6.36416e-19)
(2.45606 -2.71539 6.2794e-23)
(2.41992 -2.6756 9.16074e-18)
(2.38615 -2.63842 -1.80123e-17)
(2.35442 -2.60344 8.34776e-18)
(2.32444 -2.57038 7.48701e-18)
(2.29598 -2.53899 -7.19343e-18)
(2.26887 -2.50905 0)
(2.24295 -2.48041 0)
(2.21808 -2.45293 0)
(2.19417 -2.42648 0)
(2.17111 -2.40097 1.6028e-18)
(2.14882 -2.3763 0)
(2.12724 -2.3524 7.53334e-19)
(2.1063 -2.3292 0)
(2.08595 -2.30664 -7.11216e-19)
(2.06613 -2.28468 0)
(2.04682 -2.26326 2.69363e-18)
(2.02796 -2.24235 -2.62923e-18)
(2.00953 -2.2219 6.4058e-19)
(1.99149 -2.20188 -6.25182e-19)
(1.97382 -2.18227 3.05064e-18)
(1.95649 -2.16304 -4.12091e-21)
(1.93948 -2.14416 -1.75171e-18)
(1.92277 -2.12561 1.70925e-18)
(1.90634 -2.10736 -1.67666e-18)
(1.89018 -2.08941 5.4644e-19)
(1.87425 -2.07173 0)
(1.85856 -2.0543 0)
(1.84309 -2.03711 -3.07989e-18)
(1.82782 -2.02016 4.30261e-21)
(1.81275 -2.00341 4.30027e-21)
(1.79786 -1.98687 2.90663e-18)
(1.78314 -1.97052 -1.89698e-18)
(1.76858 -1.95436 9.33744e-19)
(1.75418 -1.93836 0)
(1.73992 -1.92253 0)
(1.7258 -1.90685 0)
(1.71181 -1.89131 2.26885e-21)
(1.69794 -1.87591 8.50159e-19)
(1.68419 -1.86065 0)
(1.67055 -1.8455 8.16915e-19)
(1.65702 -1.83048 -1.60146e-18)
(1.64358 -1.81556 2.36371e-18)
(1.63024 -1.80076 1.54289e-18)
(1.61699 -1.78605 -1.51906e-18)
(1.60382 -1.77143 -1.48622e-18)
(1.59073 -1.75691 7.32854e-19)
(1.57771 -1.74247 -7.16826e-19)
(1.56477 -1.72811 7.03353e-19)
(1.55189 -1.71382 1.38017e-18)
(1.53907 -1.69961 -1.35394e-18)
(1.52631 -1.68547 0)
(1.51361 -1.67138 0)
(1.50096 -1.65736 -2.61203e-23)
(1.48835 -1.64339 -2.50148e-18)
(1.4758 -1.62948 1.22967e-18)
(1.46328 -1.61561 -1.2001e-18)
(1.45081 -1.60179 3.53493e-18)
(1.43837 -1.58802 -2.54203e-21)
(1.42596 -1.57428 1.13041e-18)
(1.41358 -1.56058 -1.10683e-18)
(1.40123 -1.54691 0)
(1.38891 -1.53327 0)
(1.37661 -1.51966 0)
(1.36433 -1.50607 1.01203e-18)
(1.35206 -1.49251 -9.94681e-19)
(1.33981 -1.47897 -9.69839e-19)
(1.32758 -1.46544 0)
(1.31535 -1.45193 0)
(1.30313 -1.43843 -2.71022e-18)
(1.29092 -1.42494 4.41701e-18)
(1.27871 -1.41145 -3.57531e-23)
(1.2665 -1.39798 0)
(1.25429 -1.3845 -8.17414e-19)
(1.24207 -1.37102 5.23388e-21)
(1.22985 -1.35755 7.81959e-19)
(1.21762 -1.34406 -1.51861e-18)
(1.20538 -1.33057 -1.47912e-18)
(1.19313 -1.31708 2.15762e-18)
(1.18087 -1.30357 -5.21584e-21)
(1.16858 -1.29004 6.79242e-19)
(3.69722 -4.10261 1.72885e-17)
(3.25637 -3.61286 1.82809e-17)
(3.06312 -3.40051 -1.90246e-17)
(2.93332 -3.25616 1.02952e-18)
(2.83418 -3.14649 0)
(2.75403 -3.05787 0)
(2.68663 -2.98331 0)
(2.6283 -2.91879 1.20927e-17)
(2.57672 -2.86176 -2.26399e-17)
(2.53037 -2.81051 2.12755e-17)
(2.48819 -2.76385 -1.004e-17)
(2.44938 -2.72093 8.90363e-18)
(2.41338 -2.6811 -9.02912e-18)
(2.37975 -2.64388 5.37324e-19)
(2.34813 -2.60888 8.72118e-18)
(2.31826 -2.57579 -7.37535e-18)
(2.28989 -2.54437 7.54096e-18)
(2.26287 -2.51441 -4.6137e-19)
(2.23702 -2.48575 -6.99203e-18)
(2.21222 -2.45824 -4.2142e-19)
(2.18837 -2.43177 0)
(2.16537 -2.40623 -1.57642e-18)
(2.14314 -2.38154 0)
(2.12161 -2.35761 0)
(2.10071 -2.33438 -6.47265e-18)
(2.08041 -2.3118 5.60086e-18)
(2.06064 -2.2898 0)
(2.04136 -2.26836 0)
(2.02255 -2.24741 0)
(2.00415 -2.22693 -1.26084e-18)
(1.98616 -2.20688 6.15361e-19)
(1.96852 -2.18724 0)
(1.95123 -2.16797 0)
(1.93426 -2.14906 0)
(1.91759 -2.13047 -3.367e-18)
(1.90119 -2.1122 4.95318e-18)
(1.88506 -2.09421 0)
(1.86917 -2.07649 0)
(1.85351 -2.05903 0)
(1.83808 -2.04181 4.55421e-18)
(1.82284 -2.02482 -8.48585e-21)
(1.8078 -2.00804 -9.73966e-18)
(1.79294 -1.99147 6.68755e-18)
(1.77826 -1.97508 -2.81626e-18)
(1.76373 -1.95888 0)
(1.74936 -1.94285 9.0269e-19)
(1.73514 -1.92698 3.53983e-18)
(1.72105 -1.91127 -3.48375e-18)
(1.7071 -1.8957 -8.53985e-19)
(1.69326 -1.88027 4.18784e-18)
(1.67955 -1.86496 -1.65337e-18)
(1.66594 -1.84979 -1.62138e-18)
(1.65244 -1.83473 -1.58993e-18)
(1.63903 -1.81978 -2.31684e-21)
(1.62572 -1.80494 -2.29853e-18)
(1.6125 -1.79019 0)
(1.59936 -1.77555 7.35561e-19)
(1.58631 -1.76099 -1.45131e-18)
(1.57332 -1.74651 -2.1313e-18)
(1.56041 -1.73212 7.00552e-19)
(1.54756 -1.7178 1.37052e-18)
(1.53478 -1.70356 2.41941e-21)
(1.52205 -1.68938 4.88253e-21)
(1.50938 -1.67526 1.29741e-18)
(1.49676 -1.66121 -1.27034e-18)
(1.48419 -1.64721 1.24594e-18)
(1.47167 -1.63326 0)
(1.45919 -1.61936 -1.19541e-18)
(1.44674 -1.60551 -1.16924e-18)
(1.43434 -1.5917 2.51184e-21)
(1.42196 -1.57793 -2.25264e-18)
(1.40962 -1.56419 2.21166e-18)
(1.3973 -1.55049 0)
(1.38501 -1.53682 -2.56185e-21)
(1.37274 -1.52318 -2.07604e-18)
(1.36049 -1.50956 1.01452e-18)
(1.34826 -1.49596 9.92527e-19)
(1.33604 -1.48239 9.70695e-19)
(1.32384 -1.46883 0)
(1.31164 -1.45528 0)
(1.29946 -1.44175 1.81294e-18)
(1.28728 -1.42823 -3.5418e-18)
(1.2751 -1.41471 -1.72931e-18)
(1.26292 -1.4012 1.68808e-18)
(1.25074 -1.38769 2.46836e-18)
(1.23856 -1.37418 8.00859e-19)
(1.22637 -1.36067 1.56713e-18)
(1.21418 -1.34716 7.61233e-19)
(1.20197 -1.33364 1.48344e-18)
(1.18975 -1.32011 -7.27712e-19)
(1.17752 -1.30656 7.03436e-19)
(1.16527 -1.29301 -5.28006e-21)
(3.68689 -4.11139 2.09575e-17)
(3.24651 -3.6214 -1.94283e-17)
(3.05422 -3.40792 -1.66668e-17)
(2.92477 -3.26326 3.0622e-17)
(2.82591 -3.15334 -1.40828e-17)
(2.74605 -3.06447 1.47087e-17)
(2.67888 -2.98973 -2.56533e-17)
(2.62073 -2.92506 8.74264e-21)
(2.56933 -2.8679 1.11676e-17)
(2.52315 -2.81654 0)
(2.48111 -2.76979 0)
(2.44244 -2.72679 -5.84783e-19)
(2.40657 -2.68689 -5.55258e-19)
(2.37305 -2.64961 5.28801e-19)
(2.34154 -2.61456 1.93718e-23)
(2.31177 -2.58142 -4.83403e-19)
(2.2835 -2.54996 -9.27574e-19)
(2.25656 -2.51996 -8.98291e-24)
(2.2308 -2.49126 0)
(2.20608 -2.46372 4.1436e-19)
(2.1823 -2.43721 6.40266e-18)
(2.15936 -2.41164 -5.42867e-18)
(2.13719 -2.38691 0)
(2.11572 -2.36295 6.55295e-18)
(2.09488 -2.33969 -4.95705e-18)
(2.07463 -2.31708 -5.49979e-18)
(2.05491 -2.29505 5.35998e-18)
(2.03569 -2.27357 6.52123e-19)
(2.01692 -2.25259 0)
(1.99857 -2.23208 6.20175e-19)
(1.98061 -2.212 0)
(1.96302 -2.19232 0)
(1.94578 -2.17302 -4.62053e-18)
(1.92884 -2.15407 3.96132e-18)
(1.91221 -2.13545 -1.10631e-18)
(1.89585 -2.11714 -4.32783e-18)
(1.87976 -2.09912 3.71611e-18)
(1.86391 -2.08137 -5.19525e-19)
(1.84829 -2.06387 -4.06921e-18)
(1.83289 -2.04662 3.99755e-18)
(1.81769 -2.02959 -3.912e-18)
(1.80269 -2.01278 4.80608e-18)
(1.78786 -1.99617 -3.76487e-18)
(1.77321 -1.97975 8.53285e-21)
(1.75873 -1.96352 6.35367e-18)
(1.74439 -1.94745 -4.45971e-18)
(1.7302 -1.93155 0)
(1.71615 -1.9158 3.43219e-18)
(1.70223 -1.90019 -3.3794e-18)
(1.68843 -1.88472 0)
(1.67474 -1.86939 -8.13954e-19)
(1.66117 -1.85418 1.59905e-18)
(1.6477 -1.83908 -3.13691e-18)
(1.63434 -1.8241 6.94314e-18)
(1.62106 -1.80922 -2.27798e-18)
(1.60787 -1.79445 -7.44352e-19)
(1.59477 -1.77976 3.65098e-18)
(1.58174 -1.76517 1.42679e-18)
(1.56879 -1.75066 6.95792e-19)
(1.55591 -1.73624 -9.51975e-21)
(1.5431 -1.72188 -8.16051e-18)
(1.53035 -1.7076 -1.32573e-18)
(1.51766 -1.69339 9.69828e-21)
(1.50502 -1.67924 2.57831e-18)
(1.49244 -1.66515 -3.78347e-18)
(1.4799 -1.65112 -2.46836e-18)
(1.46741 -1.63714 7.44728e-21)
(1.45496 -1.6232 1.19491e-18)
(1.44255 -1.60932 -1.16689e-18)
(1.43018 -1.59547 2.29567e-18)
(1.41783 -1.58167 0)
(1.40552 -1.5679 -2.20055e-18)
(1.39324 -1.55417 1.08186e-18)
(1.38098 -1.54046 2.57691e-21)
(1.36875 -1.52679 2.07337e-18)
(1.35653 -1.51314 -1.01372e-18)
(1.34433 -1.49951 0)
(1.33215 -1.4859 -1.94176e-18)
(1.31998 -1.4723 0)
(1.30782 -1.45873 -1.85753e-18)
(1.29566 -1.44516 0)
(1.28352 -1.43161 8.90038e-19)
(1.27137 -1.41806 8.69608e-19)
(1.25923 -1.40451 -2.53766e-18)
(1.24709 -1.39097 -8.24112e-19)
(1.23494 -1.37743 -2.41807e-18)
(1.22278 -1.36388 -7.84615e-19)
(1.21062 -1.35034 1.5357e-18)
(1.19845 -1.33678 -7.45981e-19)
(1.18626 -1.32322 1.46454e-18)
(1.17406 -1.30964 -7.08194e-19)
(1.16185 -1.29605 -2.07953e-18)
(3.67593 -4.12045 0)
(3.23623 -3.63002 0)
(3.0449 -3.41557 1.65526e-17)
(2.91575 -3.27064 -9.23019e-21)
(2.81723 -3.16042 -1.57958e-17)
(2.73767 -3.07133 1.28277e-17)
(2.67074 -2.99641 -1.18779e-17)
(2.61281 -2.93159 0)
(2.5616 -2.8743 -6.87861e-19)
(2.51558 -2.82283 -1.09712e-17)
(2.4737 -2.77598 9.73984e-18)
(2.43518 -2.73289 1.15125e-18)
(2.39944 -2.69292 5.46361e-19)
(2.36604 -2.65557 -9.35949e-18)
(2.33465 -2.62045 7.45355e-18)
(2.30498 -2.58726 4.75331e-19)
(2.27681 -2.55574 4.55982e-19)
(2.24996 -2.52569 7.88608e-18)
(2.22428 -2.49695 -7.73473e-21)
(2.19965 -2.46936 -1.30331e-17)
(2.17595 -2.44281 6.30075e-18)
(2.15308 -2.4172 0)
(2.13098 -2.39243 -5.9008e-18)
(2.10958 -2.36844 7.66775e-21)
(2.0888 -2.34514 5.56801e-18)
(2.06861 -2.32249 6.76264e-19)
(2.04895 -2.30043 5.26152e-18)
(2.02978 -2.27891 -1.15405e-17)
(2.01106 -2.2579 1.00009e-17)
(1.99276 -2.23735 -7.76492e-21)
(1.97486 -2.21724 -5.36275e-18)
(1.95732 -2.19753 0)
(1.94011 -2.17819 0)
(1.92323 -2.15921 5.56252e-19)
(1.90663 -2.14055 5.44363e-19)
(1.89032 -2.1222 -1.06595e-18)
(1.87427 -2.10415 1.0387e-23)
(1.85846 -2.08636 5.11573e-19)
(1.84288 -2.06883 0)
(1.82752 -2.05154 -4.42155e-18)
(1.81236 -2.03448 2.89818e-18)
(1.7974 -2.01763 -3.7819e-18)
(1.78261 -2.00099 4.64874e-18)
(1.768 -1.98453 3.64318e-18)
(1.75355 -1.96826 -3.58529e-18)
(1.73925 -1.95216 0)
(1.7251 -1.93622 0)
(1.71108 -1.92044 0)
(1.6972 -1.9048 0)
(1.68343 -1.88929 -8.18581e-19)
(1.66979 -1.87392 -2.40844e-18)
(1.65625 -1.85868 2.37531e-18)
(1.64282 -1.84355 0)
(1.62948 -1.82853 -7.63065e-19)
(1.61624 -1.81362 -2.99473e-18)
(1.60309 -1.79881 3.68855e-18)
(1.59002 -1.78409 7.23959e-19)
(1.57703 -1.76946 -1.37111e-23)
(1.56412 -1.75492 6.98861e-19)
(1.55127 -1.74046 0)
(1.5385 -1.72607 1.34888e-18)
(1.52578 -1.71175 0)
(1.51312 -1.69751 0)
(1.50052 -1.68332 -3.82821e-18)
(1.48797 -1.6692 6.27236e-18)
(1.47547 -1.65513 -1.23636e-18)
(1.46301 -1.64111 1.20871e-18)
(1.4506 -1.62715 0)
(1.43822 -1.61323 1.16375e-18)
(1.42588 -1.59935 1.13654e-18)
(1.41358 -1.58551 -4.47828e-18)
(1.4013 -1.57171 2.20057e-18)
(1.38905 -1.55794 0)
(1.37683 -1.5442 0)
(1.36463 -1.53049 1.03331e-18)
(1.35245 -1.51681 0)
(1.34028 -1.50314 9.91178e-19)
(1.32813 -1.4895 -9.65151e-19)
(1.316 -1.47587 1.90461e-18)
(1.30387 -1.46226 -9.26552e-19)
(1.29175 -1.44866 2.72921e-18)
(1.27964 -1.43507 0)
(1.26753 -1.42149 -8.66059e-19)
(1.25542 -1.40791 8.51505e-19)
(1.24331 -1.39433 0)
(1.2312 -1.38076 -8.12374e-19)
(1.21908 -1.36718 2.36867e-18)
(1.20695 -1.3536 0)
(1.19481 -1.34001 0)
(1.18266 -1.32641 -2.19842e-18)
(1.1705 -1.3128 3.57851e-18)
(1.15832 -1.29917 1.39373e-18)
(3.66461 -4.12998 0)
(3.22574 -3.6389 -1.20348e-18)
(3.03529 -3.42359 1.09587e-18)
(2.90644 -3.27838 1.00257e-18)
(2.80826 -3.16784 1.37807e-17)
(2.72898 -3.07852 -1.35292e-17)
(2.66229 -3.00342 6.11481e-23)
(2.60457 -2.93844 -1.16108e-17)
(2.55355 -2.881 1.15278e-17)
(2.5077 -2.82941 -1.01699e-17)
(2.46598 -2.78245 1.91684e-17)
(2.4276 -2.73926 -5.74548e-19)
(2.392 -2.6992 -8.02242e-21)
(2.35873 -2.66177 -8.18915e-18)
(2.32745 -2.62658 0)
(2.29789 -2.59331 0)
(2.26983 -2.56173 7.16691e-18)
(2.24308 -2.53163 -1.42154e-17)
(2.21749 -2.50283 6.6412e-18)
(2.19294 -2.47519 -6.39933e-18)
(2.16932 -2.44859 6.19087e-18)
(2.14654 -2.42293 0)
(2.12451 -2.39812 -5.79777e-18)
(2.10318 -2.37408 4.22532e-18)
(2.08247 -2.35074 5.46356e-18)
(2.06234 -2.32805 -5.98454e-18)
(2.04274 -2.30595 0)
(2.02363 -2.28439 6.30111e-19)
(2.00497 -2.26334 0)
(1.98673 -2.24276 0)
(1.96888 -2.22261 5.85378e-19)
(1.95139 -2.20286 -4.57198e-18)
(1.93424 -2.18349 4.47775e-18)
(1.9174 -2.16447 -3.82571e-18)
(1.90086 -2.14577 4.28776e-18)
(1.88459 -2.12739 1.04876e-18)
(1.86858 -2.1093 -3.59214e-18)
(1.85282 -2.09148 7.55258e-18)
(1.83728 -2.07391 -3.95337e-18)
(1.82196 -2.05658 4.84201e-19)
(1.80685 -2.03949 1.9002e-18)
(1.79192 -2.0226 -3.72559e-18)
(1.77718 -2.00592 2.75002e-18)
(1.76261 -1.98943 0)
(1.74819 -1.97312 1.76522e-18)
(1.73394 -1.95699 0)
(1.71982 -1.94101 2.55087e-18)
(1.70585 -1.92519 -8.45381e-19)
(1.692 -1.90952 -3.29366e-18)
(1.67827 -1.89398 8.08179e-19)
(1.66466 -1.87857 0)
(1.65116 -1.86329 0)
(1.63777 -1.84812 0)
(1.62447 -1.83307 7.5435e-19)
(1.61127 -1.81812 -2.96149e-18)
(1.59815 -1.80327 5.83097e-18)
(1.58512 -1.78852 -6.44799e-18)
(1.57217 -1.77386 -6.94991e-19)
(1.55929 -1.75928 1.38888e-18)
(1.54648 -1.74478 -2.71615e-18)
(1.53374 -1.73036 9.41576e-21)
(1.52106 -1.71601 2.632e-18)
(1.50844 -1.70173 1.29063e-18)
(1.49587 -1.68751 1.26791e-18)
(1.48336 -1.67335 0)
(1.47089 -1.65925 3.66435e-18)
(1.45847 -1.64519 -9.80097e-21)
(1.44609 -1.63119 -2.36307e-18)
(1.43375 -1.61724 -1.15736e-18)
(1.42145 -1.60332 0)
(1.40918 -1.58945 0)
(1.39694 -1.57561 -1.09321e-18)
(1.38473 -1.56181 0)
(1.37254 -1.54804 -1.05125e-18)
(1.36037 -1.53429 -3.08642e-18)
(1.34823 -1.52057 1.02019e-18)
(1.3361 -1.50687 -9.79132e-19)
(1.32399 -1.4932 1.94348e-18)
(1.31189 -1.47953 -9.48975e-19)
(1.2998 -1.46589 1.85794e-18)
(1.28771 -1.45225 -1.8182e-18)
(1.27564 -1.43863 0)
(1.26356 -1.42501 0)
(1.25149 -1.4114 1.70072e-18)
(1.23942 -1.39779 0)
(1.22734 -1.38418 1.62401e-18)
(1.21526 -1.37056 -3.17222e-18)
(1.20316 -1.35694 0)
(1.19106 -1.34332 1.51134e-18)
(1.17895 -1.32969 0)
(1.16682 -1.31604 -1.43804e-18)
(1.15468 -1.30238 0)
(3.65293 -4.13997 2.08591e-17)
(3.21505 -3.64807 2.15564e-17)
(3.02544 -3.43199 -3.48094e-17)
(2.89691 -3.28644 9.06414e-21)
(2.79908 -3.17558 1.63657e-17)
(2.72006 -3.08603 -1.41898e-17)
(2.6536 -3.01073 -7.62169e-19)
(2.59609 -2.94558 1.14554e-17)
(2.54525 -2.888 1.13485e-17)
(2.49957 -2.83627 -1.94085e-17)
(2.458 -2.78919 5.9766e-19)
(2.41976 -2.7459 8.36209e-18)
(2.38429 -2.70574 0)
(2.35114 -2.66821 5.02922e-19)
(2.31998 -2.63293 4.79943e-19)
(2.29053 -2.5996 0)
(2.26257 -2.56794 7.0418e-18)
(2.23592 -2.53777 -7.55877e-21)
(2.21043 -2.50891 -6.11641e-18)
(2.18597 -2.48121 3.93107e-19)
(2.16244 -2.45456 0)
(2.13973 -2.42884 -5.14186e-18)
(2.11779 -2.40398 4.98978e-18)
(2.09653 -2.37989 -5.04504e-24)
(2.07589 -2.35651 -5.36664e-18)
(2.05583 -2.33377 5.87867e-18)
(2.0363 -2.31162 0)
(2.01725 -2.29003 0)
(1.99865 -2.26893 -4.22168e-18)
(1.98047 -2.24831 7.51611e-21)
(1.96268 -2.22811 4.60595e-18)
(1.94524 -2.20833 0)
(1.92814 -2.18892 -4.39404e-18)
(1.91136 -2.16986 3.76889e-18)
(1.89486 -2.15113 -3.68193e-18)
(1.87865 -2.13271 3.61381e-18)
(1.86269 -2.11458 -5.05325e-19)
(1.84697 -2.09672 -3.46362e-18)
(1.83148 -2.07911 3.8902e-18)
(1.81621 -2.06175 0)
(1.80114 -2.04462 3.73724e-18)
(1.78626 -2.0277 -3.67649e-18)
(1.77156 -2.01098 0)
(1.75703 -1.99445 0)
(1.74266 -1.97811 -4.34441e-18)
(1.72844 -1.96193 2.56764e-18)
(1.71437 -1.94592 4.19431e-18)
(1.70043 -1.93006 -5.77692e-18)
(1.68663 -1.91435 3.24907e-18)
(1.67294 -1.89878 0)
(1.65937 -1.88333 0)
(1.64591 -1.86802 3.84993e-18)
(1.63255 -1.85281 -3.0362e-18)
(1.6193 -1.83772 -7.45287e-19)
(1.60613 -1.82274 0)
(1.59306 -1.80786 -3.59861e-18)
(1.58006 -1.79307 9.0455e-21)
(1.56715 -1.77837 2.09473e-18)
(1.55431 -1.76375 4.10558e-18)
(1.54154 -1.74922 -3.37208e-18)
(1.52883 -1.73476 1.32419e-18)
(1.51619 -1.72037 0)
(1.50361 -1.70606 -2.12918e-23)
(1.49108 -1.6918 0)
(1.4786 -1.67761 1.23554e-18)
(1.46617 -1.66347 1.20908e-18)
(1.45379 -1.64938 -2.38988e-18)
(1.44145 -1.63534 1.17126e-18)
(1.42914 -1.62135 1.15019e-18)
(1.41688 -1.6074 1.12928e-18)
(1.40464 -1.59349 -2.21208e-18)
(1.39244 -1.57962 3.26885e-18)
(1.38026 -1.56578 0)
(1.36811 -1.55197 1.04718e-18)
(1.35598 -1.53819 -1.02698e-18)
(1.34388 -1.52444 -2.01389e-18)
(1.33178 -1.5107 -9.8702e-19)
(1.31971 -1.49699 0)
(1.30764 -1.48329 9.47591e-19)
(1.29559 -1.46961 0)
(1.28355 -1.45594 1.8173e-18)
(1.27151 -1.44228 0)
(1.25947 -1.42862 0)
(1.24743 -1.41498 -1.69723e-18)
(1.2354 -1.40133 5.31904e-21)
(1.22336 -1.38768 1.62734e-18)
(1.21131 -1.37403 2.59768e-23)
(1.19926 -1.36038 -1.55335e-18)
(1.18719 -1.34672 -1.51684e-18)
(1.17512 -1.33305 -2.95584e-18)
(1.16303 -1.31937 1.4501e-18)
(1.15092 -1.30567 0)
(3.64085 -4.15032 -2.0816e-17)
(3.2041 -3.65747 1.78849e-17)
(3.0153 -3.44067 0)
(2.88713 -3.29477 1.57335e-17)
(2.78964 -3.18359 -1.6182e-17)
(2.71089 -3.0938 -3.60058e-23)
(2.64466 -3.0183 1.14031e-17)
(2.58735 -2.95297 -8.49257e-21)
(2.5367 -2.89524 -1.18428e-17)
(2.49118 -2.84337 0)
(2.44976 -2.79617 -5.7994e-19)
(2.41166 -2.75276 -8.76342e-18)
(2.37632 -2.7125 8.31735e-18)
(2.3433 -2.67488 0)
(2.31225 -2.63952 -4.71565e-19)
(2.28291 -2.60609 -4.51097e-19)
(2.25506 -2.57436 0)
(2.22851 -2.54412 -6.23076e-18)
(2.20311 -2.51519 1.24058e-17)
(2.17874 -2.48742 -1.27384e-17)
(2.15529 -2.46071 1.19346e-17)
(2.13267 -2.43494 -7.29099e-19)
(2.11081 -2.41002 -4.89944e-18)
(2.08962 -2.38588 6.78582e-19)
(2.06906 -2.36244 0)
(2.04907 -2.33965 -6.41008e-19)
(2.02961 -2.31746 0)
(2.01063 -2.29582 5.46803e-18)
(1.9921 -2.27468 -5.3396e-18)
(1.97398 -2.25401 4.62534e-18)
(1.95624 -2.23377 -9.04225e-18)
(1.93887 -2.21394 4.97483e-18)
(1.92182 -2.19449 0)
(1.90509 -2.17539 4.22503e-18)
(1.88866 -2.15662 -9.31584e-18)
(1.87249 -2.13816 4.05964e-18)
(1.85658 -2.11999 5.31279e-24)
(1.84092 -2.10209 0)
(1.82548 -2.08445 -4.2965e-18)
(1.81025 -2.06705 7.81208e-21)
(1.79523 -2.04987 2.76499e-18)
(1.7804 -2.03291 0)
(1.76574 -2.01616 -3.54582e-18)
(1.75126 -1.99959 4.36294e-18)
(1.73693 -1.98321 0)
(1.72276 -1.967 1.29501e-23)
(1.70873 -1.95095 -3.3057e-18)
(1.69484 -1.93506 5.69426e-18)
(1.68107 -1.91931 -4.00328e-18)
(1.66743 -1.9037 0)
(1.6539 -1.88822 7.73462e-19)
(1.64048 -1.87286 -7.60719e-19)
(1.62717 -1.85762 0)
(1.61395 -1.84249 -2.93941e-18)
(1.60082 -1.82747 2.9e-18)
(1.58779 -1.81255 7.12067e-19)
(1.57483 -1.79773 0)
(1.56196 -1.78299 1.37785e-18)
(1.54916 -1.76834 -6.77615e-19)
(1.53643 -1.75377 1.06265e-23)
(1.52376 -1.73927 1.30619e-18)
(1.51116 -1.72485 -2.5827e-18)
(1.49861 -1.7105 -1.26748e-18)
(1.48612 -1.6962 -1.24613e-18)
(1.47369 -1.68197 -1.22502e-18)
(1.4613 -1.6678 0)
(1.44895 -1.65367 1.18332e-18)
(1.43665 -1.6396 -1.16276e-18)
(1.42438 -1.62557 -2.28466e-18)
(1.41215 -1.61159 -1.12207e-18)
(1.39996 -1.59764 -2.1989e-18)
(1.38779 -1.58373 3.25082e-18)
(1.37566 -1.56986 -2.11916e-18)
(1.36354 -1.55601 1.04742e-18)
(1.35145 -1.54219 3.0632e-18)
(1.33938 -1.5284 -1.00837e-18)
(1.32733 -1.51463 9.83911e-19)
(1.31529 -1.50088 -1.92413e-18)
(1.30327 -1.48715 1.8962e-18)
(1.29125 -1.47343 0)
(1.27924 -1.45972 -3.63027e-18)
(1.26724 -1.44602 -1.77753e-18)
(1.25524 -1.43233 1.74017e-18)
(1.24325 -1.41865 -3.40611e-18)
(1.23125 -1.40496 1.66619e-18)
(1.21925 -1.39128 -3.25376e-18)
(1.20724 -1.37759 3.1917e-18)
(1.19522 -1.3639 2.41169e-23)
(1.1832 -1.35021 1.51585e-18)
(1.17116 -1.3365 -5.3701e-21)
(1.15911 -1.32278 -1.45041e-18)
(1.14704 -1.30905 1.41006e-18)
(3.62833 -4.16102 -1.95583e-17)
(3.19285 -3.66711 -1.89731e-17)
(3.00484 -3.44963 8.46918e-21)
(2.87705 -3.30335 3.11648e-17)
(2.77991 -3.19185 -1.33308e-17)
(2.70144 -3.10181 1.38329e-17)
(2.63545 -3.02611 -1.12537e-17)
(2.57834 -2.96061 0)
(2.52787 -2.90272 6.47557e-19)
(2.48253 -2.85071 9.09175e-18)
(2.44125 -2.80338 -8.55978e-18)
(2.4033 -2.75986 1.07742e-18)
(2.36809 -2.71949 5.10653e-19)
(2.33519 -2.68177 -7.28067e-18)
(2.30426 -2.64631 7.87837e-18)
(2.27503 -2.6128 7.52745e-18)
(2.24728 -2.58099 -6.79915e-18)
(2.22083 -2.55067 6.52557e-18)
(2.19553 -2.52167 -6.28963e-18)
(2.17125 -2.49383 -3.78937e-19)
(2.14789 -2.46705 -5.85397e-18)
(2.12536 -2.44122 5.6715e-18)
(2.10358 -2.41624 6.8652e-19)
(2.08247 -2.39204 -6.66095e-19)
(2.06199 -2.36855 0)
(2.04207 -2.34571 -5.03037e-18)
(2.02268 -2.32347 4.90409e-18)
(2.00377 -2.30177 -5.96886e-19)
(1.9853 -2.28058 0)
(1.96725 -2.25987 5.10997e-18)
(1.94958 -2.23958 -4.99856e-18)
(1.93226 -2.21971 -5.4212e-18)
(1.91528 -2.20021 4.24853e-18)
(1.89861 -2.18107 -4.15068e-18)
(1.88223 -2.16226 4.58033e-18)
(1.86612 -2.14375 0)
(1.85026 -2.12554 4.88346e-19)
(1.83465 -2.1076 4.78882e-19)
(1.81926 -2.08992 -2.81495e-18)
(1.80409 -2.07248 7.37684e-18)
(1.78912 -2.05526 -9.12993e-19)
(1.77433 -2.03827 -6.22292e-18)
(1.75973 -2.02147 3.49698e-18)
(1.74529 -2.00487 1.71211e-18)
(1.73101 -1.98845 -3.3771e-18)
(1.71688 -1.9722 8.28953e-19)
(1.7029 -1.95611 3.25597e-18)
(1.68905 -1.94018 -1.60696e-18)
(1.67533 -1.92439 3.9369e-18)
(1.66173 -1.90874 -2.33003e-18)
(1.64825 -1.89322 -1.11411e-23)
(1.63487 -1.87783 0)
(1.6216 -1.86255 -2.94854e-18)
(1.60842 -1.84738 3.63595e-18)
(1.59534 -1.83233 0)
(1.58235 -1.81737 0)
(1.56943 -1.8025 2.76331e-18)
(1.5566 -1.78773 -1.37056e-18)
(1.54384 -1.77304 -3.35386e-18)
(1.53115 -1.75843 -1.97268e-18)
(1.51853 -1.7439 2.59818e-18)
(1.50596 -1.72944 -1.27572e-18)
(1.49346 -1.71505 1.25023e-18)
(1.48101 -1.70072 -1.23889e-18)
(1.46861 -1.68645 -2.42286e-18)
(1.45626 -1.67224 2.39182e-18)
(1.44396 -1.65807 -2.34692e-18)
(1.43169 -1.64396 0)
(1.41947 -1.6299 4.53017e-18)
(1.40728 -1.61588 -2.23314e-18)
(1.39512 -1.60189 -2.18432e-18)
(1.383 -1.58795 1.0802e-18)
(1.3709 -1.57403 0)
(1.35883 -1.56015 1.03687e-18)
(1.34678 -1.5463 0)
(1.33474 -1.53247 9.98909e-19)
(1.32273 -1.51866 9.74978e-19)
(1.31073 -1.50487 -1.9279e-18)
(1.29875 -1.4911 0)
(1.28677 -1.47734 9.24241e-19)
(1.2748 -1.4636 3.62332e-18)
(1.26284 -1.44986 1.77503e-18)
(1.25088 -1.43614 -1.7386e-18)
(1.23892 -1.42241 2.41377e-23)
(1.22696 -1.40869 0)
(1.215 -1.39497 -1.63054e-18)
(1.20303 -1.38125 -5.35152e-21)
(1.19106 -1.36752 -5.3549e-21)
(1.17907 -1.35378 0)
(1.16707 -1.34004 -1.48968e-18)
(1.15506 -1.32628 2.90479e-18)
(1.14304 -1.31251 -5.43196e-21)
(3.6154 -4.17206 -1.95194e-17)
(3.18127 -3.677 -1.88756e-17)
(2.99404 -3.45886 3.39963e-17)
(2.86667 -3.31219 -1.5429e-17)
(2.76988 -3.20036 0)
(2.69169 -3.11007 0)
(2.62594 -3.03416 0)
(2.56905 -2.96848 1.09491e-17)
(2.51877 -2.91043 -1.02025e-17)
(2.47359 -2.85828 5.96508e-19)
(2.43247 -2.81082 8.96933e-18)
(2.39466 -2.76718 -5.37126e-19)
(2.35958 -2.7267 -1.65563e-17)
(2.32681 -2.68888 7.15869e-18)
(2.296 -2.65332 -9.09743e-19)
(2.26688 -2.61972 7.39047e-18)
(2.23924 -2.58783 4.09684e-19)
(2.21289 -2.55742 -6.81274e-18)
(2.18769 -2.52834 0)
(2.1635 -2.50044 6.69011e-18)
(2.14024 -2.47359 -5.75167e-18)
(2.11779 -2.44769 6.95234e-19)
(2.09609 -2.42265 -6.73658e-19)
(2.07506 -2.39839 6.5362e-19)
(2.05466 -2.37484 0)
(2.03482 -2.35194 4.93649e-18)
(2.0155 -2.32964 -4.81281e-18)
(1.99666 -2.30789 5.85812e-19)
(1.97826 -2.28665 5.71362e-19)
(1.96028 -2.26588 -1.11545e-18)
(1.94267 -2.24555 4.89991e-18)
(1.92542 -2.22563 -7.98921e-18)
(1.9085 -2.20609 4.17171e-18)
(1.89189 -2.1869 3.56618e-18)
(1.87557 -2.16804 -7.99121e-18)
(1.85952 -2.14949 3.91888e-18)
(1.84372 -2.13124 4.79786e-19)
(1.82817 -2.11326 -4.70573e-19)
(1.81283 -2.09553 3.69001e-18)
(1.79771 -2.07805 -3.17626e-18)
(1.78279 -2.06079 -1.77625e-18)
(1.76806 -2.04375 2.62647e-18)
(1.7535 -2.02692 -8.5893e-19)
(1.73911 -2.01027 3.37268e-18)
(1.72489 -1.99381 -3.32316e-18)
(1.71081 -1.97752 4.07551e-18)
(1.69687 -1.96139 -7.99047e-21)
(1.68307 -1.94542 -7.97277e-19)
(1.6694 -1.92959 -3.1096e-18)
(1.65584 -1.91391 -7.63874e-19)
(1.6424 -1.89835 2.25076e-18)
(1.62907 -1.88292 -2.96285e-18)
(1.61585 -1.8676 -7.27949e-19)
(1.60271 -1.8524 0)
(1.58968 -1.8373 -7.05174e-19)
(1.57672 -1.8223 -2.77203e-18)
(1.56386 -1.8074 3.42027e-18)
(1.55106 -1.79259 4.03025e-18)
(1.53835 -1.77786 -1.32814e-18)
(1.5257 -1.76321 0)
(1.51312 -1.74864 1.28219e-18)
(1.5006 -1.73414 3.78087e-18)
(1.48813 -1.71971 -2.48786e-18)
(1.47573 -1.70535 1.22169e-18)
(1.46337 -1.69104 -2.39919e-18)
(1.45106 -1.67679 9.41413e-21)
(1.4388 -1.66259 4.65644e-18)
(1.42658 -1.64844 0)
(1.41439 -1.63434 -1.51777e-23)
(1.40224 -1.62027 2.20618e-18)
(1.39013 -1.60625 -2.17817e-18)
(1.37804 -1.59227 0)
(1.36599 -1.57832 3.14272e-18)
(1.35396 -1.5644 -9.99336e-21)
(1.34195 -1.5505 -2.0295e-18)
(1.32996 -1.53664 9.88807e-19)
(1.31798 -1.52279 -9.80702e-19)
(1.30603 -1.50896 0)
(1.29408 -1.49516 0)
(1.28215 -1.48136 -1.21465e-23)
(1.27022 -1.46758 -2.38345e-23)
(1.2583 -1.4538 1.77122e-18)
(1.24638 -1.44004 -1.73574e-18)
(1.23446 -1.42628 5.30981e-21)
(1.22254 -1.41252 1.06295e-20)
(1.21062 -1.39876 4.89646e-18)