/*--------------------------------*- C++ -*----------------------------------*\
  =========                 |
  \\      /  F ield         | OpenFOAM: The Open Source CFD Toolbox
   \\    /   O peration     | Website:  https://openfoam.org
    \\  /    A nd           | Version:  10
     \\/     M anipulation  |
\*---------------------------------------------------------------------------*/
FoamFile
{
    format      ascii;
    class       volScalarField;
    location    "45000";
    object      Co;
}
// * * * * * * * * * * * * * * * * * * * * * * * * * * * * * * * * * * * * * //

dimensions      [0 0 0 0 0 0 0];

internalField   nonuniform List<scalar> 
17922
(
3891.67
3879.87
3868.01
3856.1
3844.12
3832.08
3819.97
3807.78
3795.49
3783.11
3770.63
3758.04
3745.32
3732.48
3719.49
3706.36
3693.06
3679.59
3665.93
3652.07
3637.99
3623.69
3609.13
3594.3
3579.19
3563.77
3548.01
3531.89
3515.54
3499.22
3483.05
3467.03
3451.13
3435.34
3419.66
3404.08
3388.59
3373.17
3357.82
3342.54
3327.31
3312.12
3296.98
3281.87
3266.78
3251.71
3236.66
3221.6
3206.55
3191.48
3176.4
3161.3
3146.17
3131
3115.81
3100.65
3085.51
3070.33
3055.11
3039.84
3024.53
3009.16
2993.75
2978.29
2962.78
2947.24
2931.65
2916.04
2900.39
2884.73
2869.06
2853.38
2837.72
2822.07
2806.45
2790.87
2775.34
2759.87
2744.47
2729.15
2713.91
2698.76
2683.72
2668.78
2653.95
2639.24
2624.65
2610.18
2595.84
2581.62
2567.52
2553.54
2539.69
3779.89
3768.42
3756.9
3745.33
3733.7
3722
3710.24
3698.39
3686.46
3674.43
3662.31
3650.08
3637.73
3625.25
3612.64
3599.88
3586.96
3573.88
3560.61
3547.15
3533.48
3519.58
3505.44
3491.04
3476.36
3461.38
3446.08
3430.43
3414.55
3398.7
3382.99
3367.43
3351.99
3336.66
3321.43
3306.3
3291.25
3276.28
3261.38
3246.53
3231.74
3217
3202.29
3187.62
3172.97
3158.34
3143.71
3129.1
3114.48
3099.85
3085.21
3070.54
3055.85
3041.12
3026.37
3011.64
2996.95
2982.21
2967.43
2952.6
2937.73
2922.81
2907.84
2892.83
2877.77
2862.68
2847.54
2832.38
2817.19
2801.98
2786.77
2771.55
2756.34
2741.15
2725.98
2710.86
2695.78
2680.75
2665.8
2650.91
2636.11
2621.4
2606.78
2592.27
2577.86
2563.56
2549.37
2535.3
2521.35
2507.52
2493.8
2480.2
2466.72
3671.31
3660.17
3648.98
3637.74
3626.44
3615.08
3603.65
3592.15
3580.56
3568.88
3557.1
3545.22
3533.22
3521.1
3508.85
3496.46
3483.92
3471.21
3458.32
3445.24
3431.96
3418.47
3404.73
3390.75
3376.49
3361.94
3347.08
3331.88
3316.45
3301.06
3285.81
3270.69
3255.7
3240.81
3226.02
3211.33
3196.71
3182.18
3167.7
3153.29
3138.92
3124.61
3110.32
3096.07
3081.85
3067.64
3053.44
3039.25
3025.05
3010.85
2996.63
2982.39
2968.12
2953.82
2939.49
2925.2
2910.92
2896.61
2882.26
2867.86
2853.42
2838.93
2824.39
2809.81
2795.19
2780.53
2765.84
2751.11
2736.37
2721.6
2706.82
2692.05
2677.28
2662.53
2647.8
2633.12
2618.47
2603.88
2589.35
2574.9
2560.52
2546.22
2532.02
2517.92
2503.91
2490.01
2476.22
2462.54
2448.97
2435.52
2422.17
2408.94
2395.81
3565.85
3555.03
3544.16
3533.24
3522.27
3511.23
3500.13
3488.95
3477.7
3466.35
3454.91
3443.37
3431.72
3419.95
3408.05
3396.01
3383.83
3371.48
3358.97
3346.27
3333.37
3320.26
3306.92
3293.34
3279.49
3265.36
3250.92
3236.15
3221.17
3206.22
3191.42
3176.73
3162.17
3147.71
3133.35
3119.08
3104.89
3090.77
3076.72
3062.72
3048.77
3034.87
3021
3007.16
2993.35
2979.55
2965.76
2951.98
2938.19
2924.4
2910.59
2896.76
2882.91
2869.03
2855.11
2841.23
2827.36
2813.47
2799.53
2785.54
2771.52
2757.45
2743.33
2729.17
2714.98
2700.74
2686.47
2672.17
2657.85
2643.51
2629.16
2614.81
2600.47
2586.15
2571.85
2557.58
2543.36
2529.19
2515.08
2501.04
2487.07
2473.18
2459.38
2445.67
2432.06
2418.54
2405.13
2391.83
2378.63
2365.55
2352.56
2339.68
2326.91
3463.42
3452.91
3442.35
3431.75
3421.09
3410.37
3399.58
3388.73
3377.79
3366.77
3355.66
3344.45
3333.13
3321.7
3310.14
3298.45
3286.61
3274.62
3262.47
3250.13
3237.6
3224.87
3211.91
3198.72
3185.27
3171.55
3157.52
3143.18
3128.64
3114.12
3099.73
3085.47
3071.33
3057.29
3043.35
3029.49
3015.7
3001.99
2988.34
2974.75
2961.21
2947.7
2934.24
2920.8
2907.38
2893.99
2880.6
2867.21
2853.83
2840.43
2827.03
2813.6
2800.15
2786.66
2773.15
2759.66
2746.2
2732.7
2719.16
2705.58
2691.96
2678.3
2664.59
2650.84
2637.05
2623.22
2609.37
2595.48
2581.57
2567.65
2553.71
2539.78
2525.85
2511.94
2498.06
2484.2
2470.39
2456.62
2442.92
2429.27
2415.7
2402.2
2388.79
2375.47
2362.23
2349.1
2336.06
2323.12
2310.29
2297.55
2284.92
2272.39
2259.96
3363.94
3353.72
3343.47
3333.17
3322.81
3312.4
3301.92
3291.38
3280.76
3270.05
3259.26
3248.37
3237.38
3226.27
3215.05
3203.69
3192.19
3180.55
3168.74
3156.76
3144.59
3132.22
3119.64
3106.82
3093.76
3080.43
3066.81
3052.88
3038.75
3024.65
3010.68
2996.84
2983.1
2969.47
2955.92
2942.46
2929.08
2915.76
2902.51
2889.31
2876.16
2863.04
2849.97
2836.92
2823.89
2810.88
2797.88
2784.88
2771.88
2758.88
2745.86
2732.82
2719.76
2706.67
2693.55
2680.44
2667.36
2654.25
2641.1
2627.92
2614.68
2601.41
2588.1
2574.74
2561.35
2547.92
2534.46
2520.98
2507.47
2493.95
2480.42
2466.88
2453.36
2439.85
2426.36
2412.9
2399.49
2386.12
2372.8
2359.54
2346.35
2333.24
2320.2
2307.25
2294.39
2281.61
2268.94
2256.35
2243.87
2231.48
2219.19
2207
2194.91
3267.31
3257.39
3247.43
3237.42
3227.36
3217.25
3207.07
3196.83
3186.51
3176.11
3165.63
3155.05
3144.37
3133.59
3122.68
3111.65
3100.48
3089.17
3077.7
3066.06
3054.25
3042.23
3030.01
3017.56
3004.88
2991.93
2978.7
2965.18
2951.45
2937.76
2924.19
2910.74
2897.4
2884.16
2871.01
2857.94
2844.94
2832.01
2819.14
2806.32
2793.55
2780.82
2768.12
2755.45
2742.8
2730.16
2717.54
2704.92
2692.29
2679.66
2667.02
2654.36
2641.68
2628.97
2616.23
2603.49
2590.78
2578.05
2565.28
2552.47
2539.62
2526.73
2513.8
2500.82
2487.82
2474.77
2461.7
2448.6
2435.48
2422.35
2409.21
2396.06
2382.93
2369.8
2356.7
2343.63
2330.6
2317.61
2304.67
2291.79
2278.97
2266.23
2253.56
2240.96
2228.46
2216.04
2203.71
2191.47
2179.33
2167.28
2155.33
2143.47
2131.7
3173.45
3163.82
3154.14
3144.42
3134.65
3124.83
3114.94
3104.99
3094.97
3084.87
3074.69
3064.41
3054.04
3043.56
3032.97
3022.26
3011.41
3000.42
2989.28
2977.98
2966.5
2954.83
2942.96
2930.87
2918.55
2905.97
2893.13
2879.99
2866.66
2853.36
2840.19
2827.12
2814.17
2801.31
2788.54
2775.84
2763.22
2750.67
2738.17
2725.72
2713.31
2700.95
2688.62
2676.31
2664.03
2651.76
2639.5
2627.24
2614.99
2602.72
2590.45
2578.16
2565.84
2553.5
2541.13
2528.75
2516.4
2504.03
2491.62
2479.18
2466.7
2454.18
2441.62
2429.02
2416.38
2403.71
2391.02
2378.29
2365.55
2352.79
2340.03
2327.26
2314.5
2301.75
2289.03
2276.33
2263.66
2251.04
2238.47
2225.96
2213.5
2201.11
2188.79
2176.56
2164.4
2152.32
2140.33
2128.43
2116.62
2104.9
2093.27
2081.73
2070.28
3082.29
3072.93
3063.53
3054.09
3044.6
3035.06
3025.46
3015.79
3006.06
2996.25
2986.36
2976.38
2966.3
2956.12
2945.84
2935.43
2924.89
2914.22
2903.4
2892.42
2881.27
2869.94
2858.41
2846.67
2834.7
2822.49
2810.01
2797.25
2784.31
2771.39
2758.59
2745.91
2733.33
2720.84
2708.43
2696.11
2683.85
2671.65
2659.52
2647.43
2635.38
2623.38
2611.4
2599.45
2587.52
2575.61
2563.7
2551.8
2539.9
2527.99
2516.07
2504.14
2492.18
2480.2
2468.19
2456.16
2444.14
2432.13
2420.08
2407.99
2395.87
2383.7
2371.5
2359.26
2346.99
2334.68
2322.35
2309.99
2297.61
2285.22
2272.82
2260.42
2248.02
2235.64
2223.27
2210.94
2198.63
2186.37
2174.15
2161.99
2149.88
2137.84
2125.87
2113.97
2102.15
2090.4
2078.75
2067.17
2055.69
2044.29
2032.98
2021.75
2010.61
2993.75
2984.66
2975.53
2966.36
2957.14
2947.87
2938.54
2929.16
2919.7
2910.17
2900.56
2890.87
2881.08
2871.2
2861.2
2851.1
2840.86
2830.5
2819.99
2809.32
2798.49
2787.49
2776.29
2764.88
2753.26
2741.4
2729.28
2716.89
2704.31
2691.77
2679.34
2667.02
2654.8
2642.68
2630.63
2618.66
2606.76
2594.91
2583.13
2571.39
2559.69
2548.03
2536.4
2524.8
2513.21
2501.64
2490.08
2478.53
2466.97
2455.41
2443.83
2432.24
2420.63
2409
2397.34
2385.64
2373.96
2362.28
2350.58
2338.84
2327.06
2315.24
2303.39
2291.5
2279.57
2267.62
2255.64
2243.63
2231.61
2219.57
2207.52
2195.47
2183.43
2171.4
2159.39
2147.4
2135.44
2123.53
2111.65
2099.83
2088.07
2076.36
2064.72
2053.15
2041.66
2030.24
2018.91
2007.65
1996.48
1985.39
1974.39
1963.47
1952.64
2907.76
2898.92
2890.06
2881.15
2872.19
2863.19
2854.13
2845.01
2835.82
2826.57
2817.23
2807.82
2798.31
2788.71
2779
2769.18
2759.25
2749.18
2738.97
2728.61
2718.09
2707.4
2696.52
2685.45
2674.16
2662.64
2650.87
2638.83
2626.62
2614.44
2602.37
2590.4
2578.54
2566.76
2555.06
2543.43
2531.88
2520.38
2508.93
2497.53
2486.17
2474.85
2463.55
2452.29
2441.04
2429.8
2418.58
2407.36
2396.13
2384.91
2373.67
2362.41
2351.14
2339.84
2328.52
2317.16
2305.8
2294.44
2283.07
2271.66
2260.22
2248.74
2237.22
2225.67
2214.08
2202.47
2190.83
2179.16
2167.48
2155.79
2144.08
2132.38
2120.68
2108.99
2097.32
2085.67
2074.05
2062.47
2050.93
2039.44
2028
2016.62
2005.31
1994.06
1982.88
1971.78
1960.76
1949.81
1938.95
1928.17
1917.47
1906.85
1896.32
2824.23
2815.65
2807.03
2798.38
2789.68
2780.93
2772.13
2763.28
2754.35
2745.36
2736.3
2727.15
2717.92
2708.59
2699.16
2689.63
2679.97
2670.19
2660.28
2650.22
2640
2629.62
2619.05
2608.29
2597.33
2586.14
2574.71
2563.02
2551.16
2539.33
2527.6
2515.99
2504.46
2493.02
2481.66
2470.37
2459.15
2447.98
2436.86
2425.79
2414.76
2403.77
2392.8
2381.86
2370.93
2360.02
2349.12
2338.23
2327.33
2316.43
2305.51
2294.59
2283.64
2272.67
2261.68
2250.65
2239.6
2228.54
2217.49
2206.4
2195.29
2184.13
2172.94
2161.72
2150.46
2139.18
2127.87
2116.54
2105.19
2093.82
2082.45
2071.08
2059.71
2048.35
2037.01
2025.69
2014.4
2003.14
1991.93
1980.76
1969.64
1958.58
1947.58
1936.64
1925.78
1914.98
1904.26
1893.62
1883.06
1872.57
1862.17
1851.84
1841.6
2743.1
2734.77
2726.4
2717.99
2709.54
2701.05
2692.5
2683.89
2675.23
2666.49
2657.69
2648.8
2639.84
2630.78
2621.62
2612.35
2602.98
2593.48
2583.85
2574.07
2564.15
2554.07
2543.8
2533.36
2522.71
2511.84
2500.74
2489.38
2477.86
2466.37
2454.99
2443.7
2432.51
2421.4
2410.37
2399.41
2388.5
2377.66
2366.86
2356.11
2345.4
2334.73
2324.08
2313.45
2302.84
2292.25
2281.66
2271.08
2260.5
2249.91
2239.32
2228.71
2218.08
2207.43
2196.76
2186.05
2175.32
2164.55
2153.78
2143.01
2132.21
2121.37
2110.5
2099.6
2088.66
2077.69
2066.7
2055.69
2044.66
2033.62
2022.57
2011.52
2000.47
1989.43
1978.41
1967.41
1956.44
1945.5
1934.59
1923.74
1912.93
1902.18
1891.48
1880.85
1870.28
1859.79
1849.37
1839.02
1828.75
1818.55
1808.44
1798.4
1788.44
2664.3
2656.2
2648.08
2639.91
2631.7
2623.45
2615.15
2606.79
2598.37
2589.89
2581.34
2572.71
2563.99
2555.19
2546.3
2537.3
2528.19
2518.97
2509.61
2500.12
2490.48
2480.69
2470.72
2460.57
2450.23
2439.67
2428.89
2417.86
2406.68
2395.51
2384.46
2373.5
2362.63
2351.84
2341.13
2330.48
2319.89
2309.36
2298.88
2288.44
2278.04
2267.67
2257.33
2247.01
2236.71
2226.42
2216.14
2205.87
2195.59
2185.31
2175.02
2164.72
2154.4
2144.06
2133.7
2123.3
2112.88
2102.43
2091.94
2081.44
2070.94
2060.41
2049.84
2039.24
2028.62
2017.96
2007.28
1996.58
1985.86
1975.13
1964.4
1953.66
1942.92
1932.19
1921.48
1910.79
1900.12
1889.49
1878.89
1868.33
1857.83
1847.37
1836.98
1826.64
1816.37
1806.16
1796.03
1785.97
1775.98
1766.07
1756.24
1746.48
1736.8
2587.76
2579.9
2572
2564.07
2556.1
2548.08
2540.02
2531.9
2523.72
2515.48
2507.18
2498.79
2490.33
2481.78
2473.14
2464.4
2455.56
2446.59
2437.51
2428.29
2418.93
2409.41
2399.73
2389.88
2379.83
2369.58
2359.1
2348.4
2337.53
2326.69
2315.95
2305.31
2294.75
2284.28
2273.87
2263.53
2253.25
2243.02
2232.84
2222.7
2212.6
2202.53
2192.49
2182.47
2172.47
2162.48
2152.5
2142.52
2132.54
2122.56
2112.57
2102.57
2092.55
2082.51
2072.45
2062.36
2052.24
2042.09
2031.91
2021.69
2011.44
2001.18
1990.91
1980.62
1970.29
1959.93
1949.55
1939.15
1928.74
1918.31
1907.87
1897.44
1887
1876.57
1866.16
1855.77
1845.4
1835.06
1824.76
1814.5
1804.29
1794.12
1784.02
1773.97
1763.98
1754.06
1744.21
1734.43
1724.72
1715.09
1705.53
1696.05
1686.64
2513.42
2505.79
2498.12
2490.41
2482.67
2474.88
2467.05
2459.16
2451.22
2443.22
2435.15
2427
2418.78
2410.48
2402.09
2393.6
2385.01
2376.3
2367.48
2358.52
2349.43
2340.19
2330.79
2321.21
2311.45
2301.5
2291.33
2280.92
2270.37
2259.84
2249.42
2239.08
2228.83
2218.65
2208.55
2198.51
2188.52
2178.59
2168.7
2158.86
2149.05
2139.27
2129.52
2119.79
2110.08
2100.38
2090.68
2080.99
2071.31
2061.61
2051.91
2042.2
2032.47
2022.72
2012.95
2003.16
1993.34
1983.48
1973.6
1963.69
1953.74
1943.75
1933.74
1923.69
1913.62
1903.56
1893.47
1883.36
1873.24
1863.1
1852.96
1842.81
1832.67
1822.54
1812.42
1802.31
1792.23
1782.18
1772.17
1762.2
1752.27
1742.39
1732.56
1722.79
1713.08
1703.44
1693.86
1684.35
1674.92
1665.56
1656.27
1647.05
1637.91
2470.67
2463.33
2455.98
2448.61
2441.22
2433.8
2426.35
2418.87
2411.34
2403.78
2396.17
2388.51
2380.8
2373.02
2365.18
2357.28
2349.29
2341.23
2333.08
2324.83
2316.48
2308.03
2299.46
2290.76
2281.93
2272.95
2263.82
2254.52
2245.04
2235.37
2225.49
2215.39
2205.14
2194.92
2184.79
2174.75
2164.8
2154.91
2145.1
2135.35
2125.65
2116.01
2106.41
2096.85
2087.32
2077.82
2068.35
2058.91
2049.47
2040.05
2030.64
2021.23
2011.83
2002.41
1992.99
1983.56
1974.12
1964.65
1955.17
1945.66
1936.12
1926.56
1916.97
1907.34
1897.69
1888
1878.28
1868.52
1858.74
1848.93
1839.09
1829.22
1819.34
1809.47
1799.61
1789.75
1779.89
1770.03
1760.19
1750.37
1740.58
1730.81
1721.07
1711.37
1701.72
1692.11
1682.56
1673.06
1663.63
1654.25
1644.94
1635.7
1626.53
1617.43
1608.41
1599.46
1590.58
2399.69
2392.57
2385.43
2378.27
2371.09
2363.88
2356.64
2349.37
2342.07
2334.72
2327.33
2319.89
2312.4
2304.85
2297.23
2289.55
2281.8
2273.96
2266.04
2258.04
2249.93
2241.72
2233.39
2224.94
2216.36
2207.64
2198.78
2189.74
2180.54
2171.15
2161.55
2151.74
2141.79
2131.86
2122.02
2112.27
2102.6
2093.01
2083.47
2074
2064.59
2055.22
2045.9
2036.61
2027.36
2018.14
2008.95
1999.77
1990.61
1981.46
1972.32
1963.19
1954.05
1944.91
1935.77
1926.61
1917.44
1908.25
1899.04
1889.81
1880.55
1871.27
1861.96
1852.61
1843.24
1833.84
1824.41
1814.94
1805.45
1795.93
1786.39
1776.82
1767.23
1757.62
1748
1738.37
1728.73
1719.1
1709.48
1699.91
1690.38
1680.89
1671.42
1661.99
1652.61
1643.27
1633.98
1624.75
1615.58
1606.47
1597.42
1588.44
1579.53
1570.69
1561.92
1553.22
1544.6
2330.75
2323.83
2316.9
2309.94
2302.97
2295.97
2288.94
2281.88
2274.78
2267.65
2260.47
2253.24
2245.96
2238.63
2231.23
2223.77
2216.24
2208.63
2200.94
2193.16
2185.28
2177.31
2169.22
2161.02
2152.68
2144.22
2135.6
2126.83
2117.89
2108.77
2099.45
2089.92
2080.25
2070.61
2061.05
2051.59
2042.19
2032.87
2023.62
2014.42
2005.28
1996.18
1987.13
1978.11
1969.13
1960.17
1951.24
1942.33
1933.44
1924.55
1915.68
1906.81
1897.94
1889.06
1880.18
1871.29
1862.38
1853.46
1844.52
1835.56
1826.57
1817.56
1808.52
1799.46
1790.36
1781.24
1772.08
1762.9
1753.69
1744.45
1735.2
1725.91
1716.61
1707.3
1697.97
1688.63
1679.29
1669.94
1660.6
1651.26
1641.94
1632.64
1623.35
1614.09
1604.9
1595.81
1586.79
1577.81
1568.89
1560.04
1551.25
1542.52
1533.86
1525.28
1516.76
1508.31
1499.94
2283.88
2277.19
2270.5
2263.79
2257.07
2250.34
2243.58
2236.81
2230.01
2223.18
2216.32
2209.43
2202.5
2195.52
2188.5
2181.43
2174.31
2167.13
2159.88
2152.56
2145.17
2137.7
2130.15
2122.5
2114.75
2106.89
2098.92
2090.83
2082.61
2074.24
2065.72
2057.04
2048.18
2039.13
2029.87
2020.48
2011.12
2001.84
1992.64
1983.52
1974.47
1965.48
1956.55
1947.67
1938.83
1930.04
1921.29
1912.56
1903.87
1895.19
1886.54
1877.9
1869.28
1860.66
1852.05
1843.43
1834.81
1826.19
1817.56
1808.91
1800.25
1791.57
1782.87
1774.14
1765.4
1756.62
1747.82
1738.99
1730.14
1721.26
1712.35
1703.41
1694.45
1685.47
1676.47
1667.45
1658.41
1649.37
1640.31
1631.25
1622.19
1613.14
1604.09
1595.05
1586.03
1577.03
1568.06
1559.11
1550.19
1541.31
1532.46
1523.66
1514.96
1506.39
1497.91
1489.5
1481.16
1472.89
1464.69
1456.56
2218.26
2211.77
2205.27
2198.75
2192.23
2185.68
2179.12
2172.54
2165.94
2159.31
2152.65
2145.95
2139.22
2132.44
2125.63
2118.76
2111.84
2104.86
2097.82
2090.72
2083.54
2076.28
2068.94
2061.51
2053.99
2046.36
2038.62
2030.76
2022.77
2014.64
2006.37
1997.93
1989.33
1980.54
1971.55
1962.43
1953.33
1944.32
1935.39
1926.53
1917.74
1909.01
1900.34
1891.71
1883.14
1874.6
1866.09
1857.62
1849.18
1840.76
1832.35
1823.97
1815.59
1807.22
1798.85
1790.49
1782.12
1773.75
1765.37
1756.97
1748.56
1740.13
1731.69
1723.22
1714.73
1706.21
1697.67
1689.1
1680.51
1671.89
1663.25
1654.58
1645.89
1637.17
1628.44
1619.69
1610.93
1602.16
1593.38
1584.6
1575.82
1567.04
1558.27
1549.51
1540.77
1532.04
1523.34
1514.67
1506.03
1497.42
1488.85
1480.32
1471.83
1463.38
1454.98
1446.62
1438.36
1430.27
1422.31
1414.42
2154.53
2148.22
2141.91
2135.58
2129.24
2122.89
2116.52
2110.12
2103.71
2097.27
2090.8
2084.29
2077.76
2071.18
2064.55
2057.88
2051.16
2044.39
2037.55
2030.65
2023.67
2016.63
2009.5
2002.28
1994.97
1987.56
1980.04
1972.41
1964.65
1956.75
1948.72
1940.53
1932.17
1923.63
1914.9
1906.05
1897.21
1888.46
1879.78
1871.18
1862.64
1854.17
1845.74
1837.37
1829.03
1820.74
1812.48
1804.26
1796.06
1787.88
1779.72
1771.57
1763.44
1755.31
1747.19
1739.07
1730.94
1722.81
1714.67
1706.52
1698.36
1690.17
1681.97
1673.75
1665.51
1657.24
1648.95
1640.64
1632.3
1623.94
1615.55
1607.14
1598.71
1590.26
1581.79
1573.31
1564.81
1556.31
1547.8
1539.28
1530.77
1522.26
1513.76
1505.27
1496.8
1488.35
1479.91
1471.51
1463.14
1454.8
1446.49
1438.22
1429.99
1421.81
1413.66
1405.56
1397.51
1389.5
1381.53
1373.62
2092.62
2086.5
2080.37
2074.22
2068.07
2061.89
2055.71
2049.5
2043.27
2037.01
2030.73
2024.41
2018.06
2011.67
2005.23
1998.76
1992.23
1985.65
1979
1972.3
1965.53
1958.68
1951.76
1944.75
1937.65
1930.45
1923.15
1915.73
1908.2
1900.53
1892.72
1884.77
1876.65
1868.36
1859.88
1851.28
1842.7
1834.2
1825.77
1817.42
1809.13
1800.89
1792.71
1784.58
1776.49
1768.43
1760.42
1752.43
1744.46
1736.52
1728.6
1720.69
1712.79
1704.9
1697.01
1689.12
1681.23
1673.34
1665.43
1657.52
1649.59
1641.65
1633.69
1625.71
1617.7
1609.68
1601.64
1593.57
1585.48
1577.36
1569.22
1561.07
1552.89
1544.69
1536.48
1528.25
1520.02
1511.77
1503.52
1495.26
1487.01
1478.77
1470.53
1462.3
1454.09
1445.9
1437.73
1429.59
1421.47
1413.39
1405.34
1397.33
1389.36
1381.43
1373.54
1365.69
1357.88
1350.12
1342.4
1334.72
2032.5
2026.55
2020.59
2014.62
2008.65
2002.65
1996.64
1990.61
1984.56
1978.48
1972.38
1966.24
1960.07
1953.87
1947.62
1941.33
1934.99
1928.59
1922.14
1915.63
1909.05
1902.4
1895.68
1888.87
1881.97
1874.98
1867.89
1860.69
1853.37
1845.92
1838.34
1830.61
1822.73
1814.67
1806.44
1798.09
1789.75
1781.5
1773.31
1765.2
1757.15
1749.15
1741.21
1733.31
1725.45
1717.63
1709.84
1702.08
1694.35
1686.63
1678.94
1671.26
1663.59
1655.92
1648.26
1640.61
1632.94
1625.28
1617.6
1609.92
1602.22
1594.51
1586.78
1579.04
1571.27
1563.48
1555.67
1547.84
1539.99
1532.12
1524.22
1516.31
1508.38
1500.43
1492.46
1484.49
1476.5
1468.51
1460.51
1452.51
1444.51
1436.52
1428.53
1420.56
1412.61
1404.67
1396.75
1388.87
1381.01
1373.18
1365.38
1357.62
1349.89
1342.21
1334.56
1326.96
1319.4
1311.87
1304.39
1296.95
1974.09
1968.32
1962.53
1956.74
1950.93
1945.11
1939.27
1933.42
1927.54
1921.64
1915.71
1909.75
1903.76
1897.73
1891.66
1885.55
1879.39
1873.18
1866.91
1860.59
1854.2
1847.74
1841.21
1834.59
1827.9
1821.11
1814.22
1807.22
1800.11
1792.88
1785.52
1778.01
1770.35
1762.53
1754.53
1746.42
1738.33
1730.31
1722.36
1714.48
1706.66
1698.89
1691.18
1683.51
1675.87
1668.28
1660.72
1653.18
1645.67
1638.18
1630.71
1623.25
1615.8
1608.36
1600.92
1593.48
1586.04
1578.6
1571.15
1563.69
1556.21
1548.73
1541.22
1533.7
1526.17
1518.61
1511.03
1503.43
1495.81
1488.17
1480.51
1472.84
1465.14
1457.43
1449.71
1441.98
1434.23
1426.48
1418.73
1410.97
1403.22
1395.48
1387.74
1380.02
1372.31
1364.62
1356.95
1349.31
1341.7
1334.11
1326.56
1319.04
1311.56
1304.12
1296.71
1289.35
1282.02
1274.73
1267.48
1260.27
1917.37
1911.76
1906.14
1900.51
1894.87
1889.22
1883.55
1877.86
1872.15
1866.42
1860.66
1854.87
1849.05
1843.2
1837.3
1831.37
1825.39
1819.35
1813.27
1807.12
1800.92
1794.65
1788.3
1781.88
1775.37
1768.78
1762.09
1755.29
1748.39
1741.36
1734.21
1726.92
1719.48
1711.89
1704.12
1696.24
1688.38
1680.59
1672.87
1665.22
1657.62
1650.08
1642.59
1635.14
1627.72
1620.35
1613
1605.68
1598.39
1591.12
1583.86
1576.62
1569.38
1562.15
1554.93
1547.71
1540.49
1533.26
1526.02
1518.78
1511.52
1504.25
1496.97
1489.67
1482.35
1475.02
1467.66
1460.29
1452.9
1445.49
1438.06
1430.61
1423.15
1415.67
1408.18
1400.68
1393.17
1385.66
1378.15
1370.63
1363.12
1355.61
1348.12
1340.64
1333.17
1325.72
1318.29
1310.89
1303.52
1296.17
1288.86
1281.57
1274.33
1267.12
1259.95
1252.81
1245.71
1238.66
1231.63
1224.65
1862.27
1856.82
1851.37
1845.9
1840.42
1834.93
1829.43
1823.9
1818.36
1812.79
1807.2
1801.58
1795.92
1790.24
1784.51
1778.74
1772.93
1767.08
1761.16
1755.2
1749.17
1743.08
1736.91
1730.68
1724.36
1717.95
1711.45
1704.85
1698.15
1691.32
1684.38
1677.3
1670.07
1662.69
1655.15
1647.5
1639.86
1632.3
1624.8
1617.37
1609.99
1602.67
1595.39
1588.15
1580.95
1573.79
1566.66
1559.55
1552.47
1545.4
1538.36
1531.32
1524.3
1517.28
1510.26
1503.25
1496.24
1489.22
1482.19
1475.16
1468.11
1461.06
1453.99
1446.9
1439.8
1432.68
1425.54
1418.38
1411.21
1404.02
1396.81
1389.59
1382.35
1375.1
1367.84
1360.57
1353.29
1346.01
1338.72
1331.44
1324.16
1316.89
1309.63
1302.38
1295.15
1287.93
1280.74
1273.57
1266.43
1259.31
1252.23
1245.18
1238.16
1231.18
1224.24
1217.33
1210.46
1203.62
1196.82
1190.05
1808.76
1803.46
1798.17
1792.86
1787.54
1782.21
1776.86
1771.49
1766.11
1760.7
1755.27
1749.81
1744.32
1738.79
1733.23
1727.63
1721.99
1716.3
1710.56
1704.76
1698.91
1692.99
1687
1680.94
1674.81
1668.58
1662.27
1655.86
1649.35
1642.72
1635.97
1629.1
1622.08
1614.92
1607.59
1600.16
1592.74
1585.39
1578.11
1570.89
1563.73
1556.61
1549.55
1542.52
1535.53
1528.57
1521.64
1514.74
1507.86
1501
1494.16
1487.32
1480.5
1473.69
1466.87
1460.06
1453.25
1446.44
1439.62
1432.79
1425.95
1419.1
1412.23
1405.35
1398.46
1391.55
1384.62
1377.68
1370.72
1363.74
1356.75
1349.74
1342.72
1335.69
1328.65
1321.6
1314.55
1307.49
1300.43
1293.37
1286.32
1279.27
1272.24
1265.22
1258.21
1251.23
1244.26
1237.32
1230.4
1223.51
1216.66
1209.83
1203.04
1196.28
1189.55
1182.87
1176.21
1169.59
1163.01
1156.46
1756.78
1751.64
1746.49
1741.34
1736.17
1730.99
1725.8
1720.59
1715.36
1710.11
1704.83
1699.53
1694.19
1688.83
1683.43
1677.99
1672.51
1666.98
1661.4
1655.77
1650.09
1644.34
1638.53
1632.64
1626.68
1620.64
1614.5
1608.28
1601.95
1595.52
1588.96
1582.28
1575.47
1568.51
1561.39
1554.17
1546.97
1539.83
1532.76
1525.75
1518.79
1511.88
1505.02
1498.19
1491.4
1484.65
1477.92
1471.22
1464.53
1457.87
1451.22
1444.59
1437.96
1431.35
1424.73
1418.12
1411.5
1404.88
1398.26
1391.63
1384.99
1378.34
1371.68
1365
1358.31
1351.6
1344.88
1338.14
1331.38
1324.62
1317.83
1311.04
1304.23
1297.41
1290.58
1283.75
1276.91
1270.07
1263.23
1256.39
1249.56
1242.73
1235.92
1229.12
1222.34
1215.57
1208.82
1202.1
1195.41
1188.74
1182.1
1175.49
1168.92
1162.38
1155.87
1149.39
1142.95
1136.54
1130.17
1123.83
1706.29
1701.3
1696.3
1691.3
1686.28
1681.25
1676.2
1671.14
1666.06
1660.96
1655.84
1650.69
1645.51
1640.3
1635.05
1629.77
1624.44
1619.08
1613.66
1608.19
1602.67
1597.09
1591.44
1585.72
1579.93
1574.06
1568.11
1562.06
1555.92
1549.66
1543.3
1536.81
1530.19
1523.43
1516.52
1509.51
1502.51
1495.58
1488.72
1481.91
1475.15
1468.44
1461.77
1455.14
1448.55
1441.98
1435.45
1428.94
1422.45
1415.98
1409.52
1403.08
1396.65
1390.22
1383.79
1377.37
1370.95
1364.52
1358.09
1351.65
1345.21
1338.75
1332.28
1325.8
1319.3
1312.79
1306.27
1299.73
1293.18
1286.61
1280.03
1273.44
1266.83
1260.22
1253.6
1246.98
1240.35
1233.72
1227.09
1220.47
1213.85
1207.24
1200.64
1194.05
1187.48
1180.93
1174.4
1167.9
1161.41
1154.96
1148.53
1142.14
1135.78
1129.44
1123.14
1116.88
1110.65
1104.45
1098.28
1092.14
1657.25
1652.41
1647.55
1642.69
1637.82
1632.93
1628.03
1623.12
1618.19
1613.23
1608.25
1603.25
1598.22
1593.16
1588.06
1582.93
1577.76
1572.55
1567.29
1561.98
1556.61
1551.19
1545.7
1540.15
1534.53
1528.83
1523.04
1517.17
1511.2
1505.13
1498.95
1492.65
1486.22
1479.65
1472.94
1466.13
1459.33
1452.6
1445.93
1439.32
1432.75
1426.24
1419.76
1413.32
1406.92
1400.54
1394.2
1387.87
1381.57
1375.29
1369.02
1362.76
1356.51
1350.27
1344.03
1337.79
1331.56
1325.32
1319.07
1312.82
1306.56
1300.29
1294.01
1287.72
1281.41
1275.09
1268.76
1262.42
1256.06
1249.69
1243.3
1236.91
1230.51
1224.09
1217.68
1211.25
1204.83
1198.41
1191.98
1185.57
1179.15
1172.75
1166.36
1159.98
1153.62
1147.28
1140.96
1134.66
1128.39
1122.14
1115.93
1109.74
1103.58
1097.45
1091.36
1085.3
1079.27
1073.27
1067.3
1061.36
1609.62
1604.92
1600.2
1595.48
1590.75
1586
1581.25
1576.47
1571.68
1566.87
1562.03
1557.18
1552.29
1547.37
1542.43
1537.44
1532.42
1527.35
1522.25
1517.09
1511.88
1506.61
1501.28
1495.89
1490.43
1484.89
1479.27
1473.57
1467.77
1461.87
1455.87
1449.75
1443.51
1437.13
1430.61
1424
1417.39
1410.86
1404.38
1397.95
1391.58
1385.25
1378.96
1372.7
1366.48
1360.29
1354.13
1347.99
1341.87
1335.76
1329.67
1323.6
1317.53
1311.46
1305.41
1299.35
1293.29
1287.23
1281.17
1275.1
1269.02
1262.93
1256.84
1250.73
1244.61
1238.48
1232.33
1226.17
1220
1213.82
1207.63
1201.43
1195.22
1189
1182.78
1176.55
1170.32
1164.1
1157.88
1151.66
1145.45
1139.25
1133.06
1126.89
1120.73
1114.59
1108.48
1102.38
1096.31
1090.27
1084.25
1078.26
1072.31
1066.38
1060.48
1054.62
1048.79
1042.99
1037.21
1031.47
1563.36
1558.79
1554.21
1549.63
1545.03
1540.42
1535.8
1531.17
1526.51
1521.84
1517.14
1512.42
1507.68
1502.9
1498.1
1493.26
1488.38
1483.46
1478.5
1473.49
1468.43
1463.31
1458.14
1452.9
1447.59
1442.22
1436.76
1431.22
1425.59
1419.86
1414.03
1408.08
1402.02
1395.83
1389.5
1383.07
1376.66
1370.31
1364.02
1357.78
1351.58
1345.43
1339.32
1333.25
1327.21
1321.2
1315.21
1309.24
1303.3
1297.37
1291.46
1285.55
1279.66
1273.77
1267.89
1262
1256.12
1250.24
1244.35
1238.45
1232.55
1226.64
1220.72
1214.79
1208.85
1202.9
1196.94
1190.96
1184.98
1178.98
1172.97
1166.95
1160.93
1154.9
1148.87
1142.83
1136.8
1130.77
1124.74
1118.72
1112.71
1106.7
1100.71
1094.74
1088.78
1082.83
1076.91
1071.02
1065.14
1059.3
1053.48
1047.69
1041.92
1036.19
1030.49
1024.82
1019.18
1013.57
1007.99
1002.44
1518.43
1513.99
1509.54
1505.09
1500.62
1496.15
1491.66
1487.16
1482.64
1478.1
1473.54
1468.96
1464.35
1459.71
1455.04
1450.34
1445.6
1440.82
1436
1431.14
1426.22
1421.26
1416.23
1411.14
1405.99
1400.77
1395.47
1390.08
1384.62
1379.05
1373.39
1367.62
1361.73
1355.71
1349.56
1343.32
1337.09
1330.92
1324.81
1318.75
1312.73
1306.76
1300.83
1294.93
1289.06
1283.22
1277.4
1271.61
1265.84
1260.08
1254.33
1248.6
1242.87
1237.16
1231.44
1225.73
1220.02
1214.3
1208.58
1202.86
1197.13
1191.39
1185.65
1179.89
1174.12
1168.35
1162.56
1156.76
1150.95
1145.13
1139.3
1133.46
1127.62
1121.77
1115.92
1110.07
1104.23
1098.38
1092.55
1086.71
1080.89
1075.08
1069.28
1063.5
1057.73
1051.98
1046.25
1040.55
1034.86
1029.21
1023.58
1017.98
1012.41
1006.86
1001.35
995.87
990.417
984.993
979.598
974.232
1474.78
1470.47
1466.15
1461.83
1457.49
1453.15
1448.79
1444.42
1440.03
1435.62
1431.19
1426.74
1422.26
1417.76
1413.22
1408.66
1404.05
1399.41
1394.73
1390.01
1385.23
1380.41
1375.53
1370.58
1365.58
1360.51
1355.36
1350.13
1344.82
1339.42
1333.91
1328.31
1322.59
1316.74
1310.77
1304.71
1298.66
1292.67
1286.73
1280.84
1275
1269.2
1263.43
1257.7
1252
1246.33
1240.68
1235.06
1229.45
1223.85
1218.27
1212.7
1207.14
1201.59
1196.04
1190.49
1184.94
1179.39
1173.84
1168.28
1162.72
1157.15
1151.57
1145.98
1140.38
1134.77
1129.16
1123.53
1117.89
1112.24
1106.59
1100.92
1095.26
1089.58
1083.91
1078.24
1072.58
1066.92
1061.26
1055.62
1049.98
1044.35
1038.74
1033.14
1027.56
1022
1016.46
1010.94
1005.44
999.974
994.531
989.115
983.728
978.37
973.041
967.742
962.472
957.231
952.017
946.832
1436.58
1432.39
1428.21
1424.01
1419.81
1415.6
1411.38
1407.15
1402.9
1398.64
1394.36
1390.05
1385.73
1381.38
1377.01
1372.6
1368.17
1363.7
1359.19
1354.64
1350.05
1345.42
1340.73
1335.99
1331.19
1326.33
1321.4
1316.4
1311.32
1306.16
1300.92
1295.57
1290.13
1284.57
1278.9
1273.09
1267.21
1261.33
1255.51
1249.74
1244.02
1238.35
1232.71
1227.11
1221.55
1216.01
1210.5
1205.01
1199.55
1194.1
1188.67
1183.25
1177.84
1172.44
1167.04
1161.65
1156.26
1150.87
1145.48
1140.09
1134.69
1129.29
1123.88
1118.46
1113.04
1107.61
1102.16
1096.71
1091.25
1085.78
1080.3
1074.81
1069.31
1063.81
1058.31
1052.81
1047.32
1041.83
1036.35
1030.87
1025.4
1019.95
1014.5
1009.07
1003.65
998.251
992.87
987.509
982.171
976.856
971.567
966.304
961.068
955.861
950.682
945.532
940.411
935.319
930.255
925.219
920.21
1395.28
1391.22
1387.15
1383.08
1379
1374.91
1370.81
1366.7
1362.58
1358.44
1354.28
1350.1
1345.9
1341.68
1337.43
1333.15
1328.84
1324.5
1320.12
1315.71
1311.25
1306.75
1302.19
1297.59
1292.93
1288.21
1283.42
1278.56
1273.63
1268.62
1263.52
1258.33
1253.04
1247.65
1242.13
1236.5
1230.78
1225.07
1219.42
1213.82
1208.26
1202.75
1197.27
1191.83
1186.43
1181.05
1175.7
1170.37
1165.06
1159.76
1154.49
1149.22
1143.97
1138.72
1133.48
1128.24
1123.01
1117.78
1112.54
1107.3
1102.06
1096.82
1091.56
1086.31
1081.04
1075.76
1070.48
1065.19
1059.89
1054.58
1049.26
1043.94
1038.6
1033.27
1027.93
1022.59
1017.27
1011.95
1006.64
1001.34
996.048
990.765
985.494
980.236
974.994
969.769
964.563
959.378
954.215
949.076
943.962
938.874
933.813
928.78
923.775
918.799
913.851
908.932
904.04
899.177
894.34
1355.18
1351.23
1347.28
1343.32
1339.36
1335.39
1331.41
1327.42
1323.41
1319.39
1315.35
1311.29
1307.21
1303.11
1298.98
1294.83
1290.65
1286.43
1282.18
1277.89
1273.56
1269.18
1264.76
1260.29
1255.76
1251.18
1246.53
1241.81
1237.02
1232.15
1227.2
1222.16
1217.03
1211.79
1206.43
1200.96
1195.4
1189.86
1184.36
1178.92
1173.52
1168.17
1162.85
1157.57
1152.31
1147.09
1141.89
1136.71
1131.55
1126.41
1121.28
1116.17
1111.07
1105.97
1100.88
1095.79
1090.71
1085.63
1080.54
1075.45
1070.36
1065.27
1060.17
1055.06
1049.95
1044.83
1039.7
1034.56
1029.42
1024.26
1019.11
1013.94
1008.76
1003.59
998.406
993.231
988.065
982.913
977.774
972.643
967.52
962.407
957.305
952.217
947.145
942.09
937.054
932.039
927.046
922.077
917.132
912.214
907.323
902.459
897.623
892.815
888.036
883.285
878.561
873.865
1316.22
1312.39
1308.55
1304.71
1300.86
1297
1293.14
1289.26
1285.37
1281.46
1277.54
1273.6
1269.64
1265.65
1261.64
1257.61
1253.55
1249.45
1245.32
1241.16
1236.96
1232.71
1228.42
1224.08
1219.69
1215.24
1210.72
1206.15
1201.5
1196.77
1191.97
1187.07
1182.08
1176.99
1171.79
1166.48
1161.08