/*--------------------------------*- C++ -*----------------------------------*\
  =========                 |
  \\      /  F ield         | OpenFOAM: The Open Source CFD Toolbox
   \\    /   O peration     | Website:  https://openfoam.org
    \\  /    A nd           | Version:  10
     \\/     M anipulation  |
\*---------------------------------------------------------------------------*/
FoamFile
{
    format      ascii;
    class       volVectorField;
    location    "45000";
    object      Urel;
}
// * * * * * * * * * * * * * * * * * * * * * * * * * * * * * * * * * * * * * //

dimensions      [0 1 -1 0 0 0 0];

internalField   nonuniform List<vector> 
17922
(
(2.12783 -2.32809 0)
(2.11369 -2.31264 3.68937e-19)
(2.09944 -2.29707 -1.43767e-18)
(2.08506 -2.28137 1.56996e-25)
(2.07056 -2.26553 3.37128e-19)
(2.05593 -2.24955 6.56507e-19)
(2.04117 -2.23343 1.50992e-23)
(2.02627 -2.21717 3.07279e-19)
(2.01123 -2.20074 -2.53313e-21)
(1.99604 -2.18417 -2.90987e-19)
(1.9807 -2.16743 -2.24514e-18)
(1.96521 -2.15052 0)
(1.94955 -2.13343 0)
(1.93373 -2.11617 -2.53431e-19)
(1.91775 -2.09872 2.47662e-19)
(1.90158 -2.08109 -2.37166e-19)
(1.88523 -2.06325 2.3182e-19)
(1.8687 -2.04521 -8.92022e-19)
(1.85197 -2.02696 -2.1441e-19)
(1.83503 -2.00849 -8.31304e-19)
(1.8179 -1.9898 -6.03128e-19)
(1.80055 -1.97087 1.93471e-19)
(1.78297 -1.9517 -9.41532e-19)
(1.76517 -1.93228 7.26734e-19)
(1.74713 -1.9126 -7.01963e-19)
(1.72884 -1.89265 0)
(1.7103 -1.87242 0)
(1.69149 -1.85189 0)
(1.67257 -1.83125 1.2381e-18)
(1.65386 -1.81083 1.52783e-19)
(1.63552 -1.79081 4.58298e-19)
(1.61753 -1.77116 1.21968e-18)
(1.59987 -1.75188 -5.32168e-19)
(1.58255 -1.73295 5.29464e-19)
(1.56554 -1.71437 -6.04252e-19)
(1.54884 -1.69611 0)
(1.53244 -1.67817 7.47511e-20)
(1.51632 -1.66053 -7.52405e-19)
(1.50048 -1.64319 -4.51361e-19)
(1.48491 -1.62614 -7.52536e-19)
(1.46959 -1.60936 7.58435e-20)
(1.45453 -1.59285 -7.48286e-20)
(1.43972 -1.5766 -5.28196e-19)
(1.42514 -1.5606 -7.51497e-20)
(1.41079 -1.54485 6.08039e-19)
(1.39665 -1.52932 -1.06514e-18)
(1.38274 -1.51403 -1.06152e-21)
(1.36902 -1.49895 -6.13683e-19)
(1.35551 -1.48408 5.37508e-19)
(1.34219 -1.46942 0)
(1.32905 -1.45495 3.10008e-19)
(1.31609 -1.44067 3.11363e-19)
(1.30331 -1.42658 -3.90483e-19)
(1.29069 -1.41266 3.93469e-19)
(1.27824 -1.39891 0)
(1.26594 -1.38533 2.38706e-19)
(1.25379 -1.3719 8.03315e-20)
(1.24179 -1.35863 3.2089e-19)
(1.22993 -1.34551 0)
(1.21821 -1.33253 -3.24431e-19)
(1.20662 -1.31969 0)
(1.19517 -1.30698 8.14527e-20)
(1.18384 -1.29441 -4.12791e-19)
(1.17264 -1.28197 -3.31614e-19)
(1.16157 -1.26966 3.33466e-19)
(1.15062 -1.25748 -3.3527e-19)
(1.13979 -1.24542 2.53356e-19)
(1.12909 -1.23348 -1.69394e-19)
(1.1185 -1.22166 -4.26201e-19)
(1.10804 -1.20997 0)
(1.0977 -1.19839 1.7197e-19)
(1.08748 -1.18694 1.72758e-19)
(1.07738 -1.17562 -2.39498e-23)
(1.06741 -1.16442 2.60923e-19)
(1.05757 -1.15334 -2.63113e-19)
(1.04786 -1.1424 1.75739e-19)
(1.03827 -1.13158 1.76433e-19)
(1.02881 -1.1209 -3.54113e-19)
(1.01949 -1.11035 8.82585e-20)
(1.01029 -1.09993 -8.96651e-20)
(1.00122 -1.08965 2.67582e-19)
(0.992284 -1.0795 -1.79241e-19)
(0.983477 -1.0695 1.14961e-21)
(0.9748 -1.05963 9.06093e-20)
(0.966251 -1.04991 4.50876e-19)
(0.95783 -1.04032 9.21144e-24)
(0.949536 -1.03088 2.72536e-19)
(0.941366 -1.02158 0)
(0.933318 -1.01242 -9.0442e-20)
(0.925391 -1.0034 9.17412e-20)
(0.917582 -0.994517 -1.82132e-19)
(0.909887 -0.985775 9.26414e-20)
(0.902305 -0.977169 1.83417e-19)
(2.12225 -2.33317 -3.88439e-19)
(2.10815 -2.31769 3.74769e-19)
(2.09393 -2.30208 -3.66608e-19)
(2.07959 -2.28634 1.4188e-18)
(2.06512 -2.27047 -8.39305e-24)
(2.05053 -2.25445 -3.3283e-19)
(2.03581 -2.2383 9.7382e-19)
(2.02095 -2.22199 0)
(2.00594 -2.20554 -1.52303e-18)
(1.9908 -2.18892 2.96813e-19)
(1.9755 -2.17214 1.14561e-18)
(1.96005 -2.1552 -1.10992e-18)
(1.94443 -2.13807 0)
(1.92866 -2.12077 0)
(1.91271 -2.10329 0)
(1.89659 -2.08561 1.2182e-18)
(1.88028 -2.06773 9.41542e-19)
(1.86379 -2.04965 6.83765e-19)
(1.8471 -2.03136 2.19628e-19)
(1.83022 -2.01285 6.39546e-19)
(1.81312 -1.99412 1.02756e-23)
(1.79582 -1.97515 0)
(1.77829 -1.95593 1.91773e-19)
(1.76053 -1.93647 -9.33671e-19)
(1.74254 -1.91675 7.2083e-19)
(1.7243 -1.89675 0)
(1.70581 -1.87648 0)
(1.68705 -1.85591 0)
(1.66818 -1.83522 -1.67493e-23)
(1.64952 -1.81475 0)
(1.63123 -1.79469 1.56275e-19)
(1.61329 -1.775 -1.57887e-19)
(1.59568 -1.75568 1.24908e-18)
(1.5784 -1.73671 4.68062e-19)
(1.56144 -1.71808 1.56378e-19)
(1.54479 -1.69978 0)
(1.52842 -1.6818 -6.1896e-19)
(1.51235 -1.66413 6.18461e-19)
(1.49655 -1.64675 6.95003e-19)
(1.48102 -1.62966 5.40528e-19)
(1.46575 -1.61285 -5.4198e-19)
(1.45073 -1.59631 5.41483e-19)
(1.43596 -1.58002 0)
(1.42141 -1.56399 -7.7151e-20)
(1.4071 -1.5482 -6.21891e-19)
(1.39301 -1.53265 1.32786e-18)
(1.37912 -1.51732 7.77633e-20)
(1.36545 -1.50221 4.71376e-19)
(1.35197 -1.48732 -5.51336e-19)
(1.33868 -1.47262 3.95144e-19)
(1.32558 -1.45813 1.5891e-19)
(1.31266 -1.44382 -2.3884e-19)
(1.2999 -1.4297 3.20599e-19)
(1.28732 -1.41575 0)
(1.27489 -1.40198 -8.0356e-20)
(1.26263 -1.38837 8.1848e-20)
(1.25051 -1.37492 3.2682e-19)
(1.23854 -1.36162 -3.28494e-19)
(1.22671 -1.34848 0)
(1.21501 -1.33547 -8.24257e-20)
(1.20346 -1.32261 8.39674e-20)
(1.19203 -1.30989 -8.32971e-20)
(1.18073 -1.2973 6.75442e-19)
(1.16956 -1.28484 4.24219e-19)
(1.15852 -1.27251 0)
(1.14759 -1.2603 0)
(1.13679 -1.24822 -8.54754e-20)
(1.12611 -1.23627 4.32869e-19)
(1.11555 -1.22444 6.95014e-19)
(1.10511 -1.21273 0)
(1.09479 -1.20114 0)
(1.0846 -1.18967 -2.64765e-19)
(1.07453 -1.17834 -1.78015e-19)
(1.06458 -1.16712 -8.93662e-20)
(1.05476 -1.15604 1.78279e-19)
(1.04507 -1.14508 -1.78931e-19)
(1.0355 -1.13425 -1.79545e-19)
(1.02607 -1.12355 9.06357e-20)
(1.01676 -1.11299 1.81819e-19)
(1.00758 -1.10256 1.82331e-19)
(0.99853 -1.09227 1.14159e-21)
(0.989609 -1.08212 -9.04812e-20)
(0.980818 -1.0721 1.34374e-24)
(0.972155 -1.06223 -2.7378e-19)
(0.96362 -1.05249 -9.10522e-20)
(0.955211 -1.0429 -2.74795e-19)
(0.946928 -1.03345 -9.13682e-20)
(0.938768 -1.02413 0)
(0.93073 -1.01496 0)
(0.922811 -1.00593 2.76533e-19)
(0.91501 -0.997037 -9.25157e-20)
(0.907322 -0.988282 5.69288e-22)
(0.899745 -0.979662 0)
(2.11649 -2.33839 3.88905e-19)
(2.10243 -2.32287 -3.80655e-19)
(2.08824 -2.30723 1.47433e-18)
(2.07394 -2.29145 -1.4322e-18)
(2.05952 -2.27554 -6.95437e-19)
(2.04497 -2.25949 -3.3626e-19)
(2.03028 -2.2433 9.84267e-19)
(2.01546 -2.22696 1.27169e-18)
(2.0005 -2.21046 9.26515e-19)
(1.98539 -2.19381 -8.95918e-19)
(1.97014 -2.17699 0)
(1.95473 -2.16001 1.40393e-18)
(1.93916 -2.14285 -2.73612e-19)
(1.92342 -2.12551 -2.62539e-19)
(1.90752 -2.10798 2.56783e-19)
(1.89144 -2.09026 9.89614e-19)
(1.87518 -2.07235 -1.91602e-18)
(1.85873 -2.05422 0)
(1.84209 -2.03589 -6.74124e-19)
(1.82525 -2.01734 -2.48909e-21)
(1.8082 -1.99856 1.67656e-18)
(1.79095 -1.97955 -4.05933e-19)
(1.77347 -1.96029 7.87461e-19)
(1.75576 -1.94078 2.44796e-21)
(1.73781 -1.92102 -7.31101e-19)
(1.71963 -1.90098 1.78455e-19)
(1.70118 -1.88065 0)
(1.68248 -1.86004 1.64223e-19)
(1.66366 -1.8393 -1.4601e-18)
(1.64505 -1.81879 -1.60018e-19)
(1.62681 -1.79868 8.02996e-19)
(1.60892 -1.77895 -6.38565e-19)
(1.59136 -1.75959 -7.93959e-19)
(1.57413 -1.74058 -3.17031e-19)
(1.55722 -1.72191 -3.16191e-19)
(1.54061 -1.70357 7.90012e-19)
(1.52429 -1.68555 7.86607e-19)
(1.50827 -1.66784 -1.5853e-19)
(1.49251 -1.65042 0)
(1.47703 -1.6333 -7.85617e-19)
(1.4618 -1.61645 6.31964e-19)
(1.44682 -1.59987 1.58695e-19)
(1.43208 -1.58355 -5.52831e-19)
(1.41758 -1.56749 -7.11877e-19)
(1.40331 -1.55167 7.12309e-19)
(1.38925 -1.53608 -7.94025e-19)
(1.37541 -1.52072 -5.56788e-19)
(1.36177 -1.50558 0)
(1.34833 -1.49065 5.61495e-19)
(1.33508 -1.47593 -5.62434e-19)
(1.32201 -1.46141 -4.03137e-19)
(1.30912 -1.44707 8.16182e-20)
(1.2964 -1.43292 0)
(1.28385 -1.41895 0)
(1.27146 -1.40515 -3.28559e-19)
(1.25923 -1.39151 0)
(1.24714 -1.37804 -3.31706e-19)
(1.2352 -1.36472 0)
(1.2234 -1.35155 3.34949e-19)
(1.21174 -1.33852 0)
(1.20021 -1.32564 0)
(1.18881 -1.31289 0)
(1.17754 -1.30028 -3.41734e-19)
(1.1664 -1.2878 0)
(1.15538 -1.27545 -8.57109e-20)
(1.14448 -1.26323 1.73392e-19)
(1.13371 -1.25113 -1.74218e-19)
(1.12305 -1.23916 -2.61964e-19)
(1.11252 -1.22731 -3.51673e-19)
(1.10211 -1.21558 0)
(1.09182 -1.20398 -1.7735e-19)
(1.08165 -1.1925 1.78096e-19)
(1.0716 -1.18115 1.78779e-19)
(1.06168 -1.16992 0)
(1.05188 -1.15882 0)
(1.04221 -1.14785 8.97752e-20)
(1.03267 -1.13701 -9.11936e-20)
(1.02325 -1.1263 0)
(1.01397 -1.11573 -9.05927e-20)
(1.00481 -1.10529 -9.08153e-20)
(0.995775 -1.09499 0)
(0.986872 -1.08483 3.67154e-19)
(0.978097 -1.0748 1.83942e-19)
(0.969449 -1.06492 -1.84249e-19)
(0.960929 -1.05517 0)
(0.952534 -1.04557 9.29782e-20)
(0.944263 -1.0361 9.31104e-20)
(0.936115 -1.02678 1.85309e-19)
(0.928087 -1.01759 1.84972e-19)
(0.920178 -1.00855 -2.78663e-19)
(0.912385 -0.999645 9.30067e-20)
(0.904706 -0.990876 -1.13318e-21)
(0.897137 -0.982242 -9.38342e-20)
(2.11055 -2.34375 3.94532e-19)
(2.09652 -2.32819 -3.80985e-19)
(2.08238 -2.31251 -7.40677e-19)
(2.06812 -2.2967 1.085e-18)
(2.05374 -2.28075 3.49606e-19)
(2.03923 -2.26467 -6.81732e-19)
(2.02458 -2.24843 -9.27232e-24)
(2.0098 -2.23205 -3.22642e-19)
(1.99488 -2.21552 3.10478e-19)
(1.97982 -2.19883 9.06204e-19)
(1.96461 -2.18197 0)
(1.94924 -2.16495 0)
(1.93371 -2.14775 -1.10314e-18)
(1.91802 -2.13037 1.0691e-18)
(1.90216 -2.1128 0)
(1.88613 -2.09504 -1.25297e-18)
(1.86991 -2.07708 1.21593e-18)
(1.85351 -2.05892 -9.40808e-19)
(1.83692 -2.04054 1.82141e-18)
(1.82013 -2.02195 -2.19076e-19)
(1.80313 -2.00313 -6.38353e-19)
(1.78592 -1.98407 0)
(1.76849 -1.96477 -7.97965e-19)
(1.75083 -1.94522 -7.71695e-19)
(1.73294 -1.9254 9.31503e-19)
(1.7148 -1.90531 -3.60706e-19)
(1.69641 -1.88495 1.75578e-19)
(1.67776 -1.86428 0)
(1.659 -1.8435 0)
(1.64044 -1.82294 0)
(1.62225 -1.80279 -6.53163e-19)
(1.60441 -1.78301 0)
(1.58691 -1.7636 -6.47573e-19)
(1.56973 -1.74455 -8.05617e-19)
(1.55286 -1.72584 3.21848e-19)
(1.5363 -1.70746 -8.04094e-19)
(1.52003 -1.6894 0)
(1.50405 -1.67165 0)
(1.48834 -1.6542 0)
(1.4729 -1.63703 1.5893e-19)
(1.45772 -1.62015 4.79258e-19)
(1.44278 -1.60353 -1.59133e-19)
(1.42809 -1.58718 8.0348e-19)
(1.41363 -1.57108 6.42919e-19)
(1.3994 -1.55522 6.44157e-19)
(1.38538 -1.5396 6.45645e-19)
(1.37158 -1.52421 3.52371e-23)
(1.35798 -1.50904 0)
(1.34457 -1.49408 -8.08891e-20)
(1.33136 -1.47933 7.3581e-19)
(1.31833 -1.46477 -2.46534e-19)
(1.30548 -1.45041 -4.12106e-19)
(1.29279 -1.43623 0)
(1.28028 -1.42223 -8.24288e-20)
(1.26792 -1.4084 4.1735e-19)
(1.25571 -1.39474 8.31627e-20)
(1.24366 -1.38124 1.68212e-19)
(1.23175 -1.36789 5.07004e-19)
(1.21998 -1.3547 -5.09421e-19)
(1.20835 -1.34165 4.27079e-19)
(1.19685 -1.32874 -8.51422e-20)
(1.18549 -1.31597 8.66907e-20)
(1.17425 -1.30334 3.46109e-19)
(1.16313 -1.29084 -8.6366e-20)
(1.15214 -1.27847 4.37279e-19)
(1.14127 -1.26623 -3.50965e-19)
(1.13052 -1.25411 0)
(1.1199 -1.24212 3.54125e-19)
(1.10939 -1.23025 8.83269e-20)
(1.09901 -1.21851 -2.68385e-19)
(1.08874 -1.20689 2.69463e-19)
(1.0786 -1.1954 9.05475e-20)
(1.06858 -1.18403 -4.50904e-19)
(1.05868 -1.17279 9.11874e-20)
(1.04891 -1.16168 0)
(1.03926 -1.15069 1.82353e-19)
(1.02974 -1.13984 3.65761e-19)
(1.02035 -1.12912 0)
(1.01108 -1.11854 -2.75136e-19)
(1.00194 -1.10809 1.8421e-19)
(0.992926 -1.09777 -2.77442e-19)
(0.984041 -1.0876 -2.76802e-19)
(0.975284 -1.07756 1.15728e-21)
(0.966652 -1.06767 4.64289e-19)
(0.958147 -1.05791 0)
(0.949766 -1.04829 -9.35568e-20)
(0.941509 -1.03882 9.24884e-20)
(0.933373 -1.02948 -2.8006e-19)
(0.925357 -1.02028 -2.7975e-19)
(0.917459 -1.01123 9.33388e-20)
(0.909676 -1.00231 -9.3425e-20)
(0.902006 -0.993523 9.40999e-20)
(0.894447 -0.984874 0)
(2.10442 -2.34925 1.18904e-18)
(2.09043 -2.33366 -3.83787e-19)
(2.07633 -2.31794 3.75938e-19)
(2.06211 -2.30209 -7.28394e-19)
(2.04777 -2.2861 0)
(2.0333 -2.26998 0)
(2.0187 -2.25371 6.68309e-19)
(2.00396 -2.23729 -1.29808e-18)
(1.98909 -2.22071 -3.13727e-19)
(1.97407 -2.20398 3.07128e-19)
(1.9589 -2.18709 1.18689e-18)
(1.94357 -2.17002 1.43787e-18)
(1.92809 -2.15278 8.36133e-19)
(1.91245 -2.13536 -2.16515e-18)
(1.89663 -2.11775 -1.04932e-18)
(1.88065 -2.09994 -2.52908e-19)
(1.86448 -2.08194 2.47579e-19)
(1.84813 -2.06374 7.16939e-19)
(1.83158 -2.04532 -1.38599e-18)
(1.81484 -2.02668 -2.24923e-19)
(1.79789 -2.00781 -2.15194e-19)
(1.78073 -1.98871 2.10768e-19)
(1.76335 -1.96936 1.01226e-18)
(1.74575 -1.94976 1.56627e-18)
(1.72791 -1.9299 -3.7936e-19)
(1.70983 -1.90977 3.66891e-19)
(1.69149 -1.88935 -2.50911e-21)
(1.67289 -1.86864 -1.72686e-19)
(1.65418 -1.84781 -1.66782e-19)
(1.63569 -1.8272 8.36686e-19)
(1.61755 -1.807 0)
(1.59976 -1.78718 -4.97465e-19)
(1.58231 -1.76772 3.29523e-19)
(1.56518 -1.74863 8.22183e-19)
(1.54837 -1.72987 0)
(1.53186 -1.71145 -8.1567e-19)
(1.51564 -1.69335 1.64273e-19)
(1.4997 -1.67556 0)
(1.48404 -1.65807 6.51205e-19)
(1.46864 -1.64086 0)
(1.45351 -1.62394 -4.89623e-19)
(1.43862 -1.60729 4.87621e-19)
(1.42397 -1.5909 -1.61954e-19)
(1.40955 -1.57477 6.55661e-19)
(1.39536 -1.55887 -4.89794e-19)
(1.38138 -1.54322 -8.18833e-19)
(1.36762 -1.5278 6.59885e-19)
(1.35406 -1.51259 1.65988e-19)
(1.34069 -1.4976 -1.32273e-18)
(1.32752 -1.48282 -3.31767e-19)
(1.31453 -1.46823 1.89202e-23)
(1.30171 -1.45384 4.17102e-19)
(1.28906 -1.43963 -8.44252e-20)
(1.27658 -1.4256 0)
(1.26426 -1.41174 0)
(1.25209 -1.39805 -8.43259e-20)
(1.24007 -1.38452 -2.55246e-19)
(1.22819 -1.37115 -3.42597e-19)
(1.21645 -1.35793 0)
(1.20485 -1.34486 -2.58206e-23)
(1.19339 -1.33193 0)
(1.18205 -1.31914 0)
(1.17084 -1.30648 -7.00749e-19)
(1.15975 -1.29396 -3.51921e-19)
(1.14879 -1.28157 -3.53497e-19)
(1.13795 -1.2693 8.82003e-20)
(1.12723 -1.25717 -8.97072e-20)
(1.11663 -1.24516 2.69046e-19)
(1.10616 -1.23327 -2.6895e-19)
(1.0958 -1.22151 1.80397e-19)
(1.08556 -1.20987 -3.62107e-19)
(1.07544 -1.19837 9.14225e-20)
(1.06545 -1.18698 2.74036e-19)
(1.05558 -1.17573 0)
(1.04583 -1.1646 0)
(1.03621 -1.1536 -1.83919e-19)
(1.02671 -1.14274 -3.6875e-19)
(1.01734 -1.13201 0)
(1.00809 -1.12141 1.85182e-19)
(0.998972 -1.11095 9.21848e-20)
(0.989979 -1.10062 1.84694e-19)
(0.981113 -1.09043 -2.79769e-19)
(0.972373 -1.08039 -1.86365e-19)
(0.963759 -1.07048 -1.86592e-19)
(0.95527 -1.06071 -1.86761e-19)
(0.946904 -1.05108 0)
(0.938661 -1.04159 -3.7414e-19)
(0.930539 -1.03224 1.87205e-19)
(0.922536 -1.02303 0)
(0.91465 -1.01396 9.37257e-20)
(0.906879 -1.00502 0)
(0.89922 -0.996223 -9.38656e-20)
(0.891671 -0.987557 -9.39586e-20)
(2.09809 -2.35489 -1.19379e-18)
(2.08415 -2.33926 1.55098e-18)
(2.07009 -2.32351 -2.73311e-21)
(2.05591 -2.30762 3.6563e-19)
(2.04161 -2.29159 0)
(2.02718 -2.27543 -6.93853e-19)
(2.01263 -2.25912 -6.74338e-19)
(1.99794 -2.24266 -1.63655e-18)
(1.9831 -2.22605 3.19526e-19)
(1.96813 -2.20927 -1.23582e-18)
(1.95301 -2.19233 -1.49826e-18)
(1.93773 -2.17523 -8.71866e-19)
(1.92229 -2.15794 0)
(1.9067 -2.14048 -2.72557e-19)
(1.89093 -2.12283 1.59363e-18)
(1.87499 -2.10498 -2.58805e-19)
(1.85887 -2.08693 9.98222e-19)
(1.84257 -2.06868 0)
(1.82607 -2.05022 1.86103e-23)
(1.80938 -2.03153 -9.07521e-19)
(1.79249 -2.01262 8.78771e-19)
(1.77538 -1.99347 -8.5076e-19)
(1.75805 -1.97408 8.23486e-19)
(1.7405 -1.95443 -7.96962e-19)
(1.72272 -1.93452 0)
(1.70469 -1.91434 0)
(1.68641 -1.89388 5.42535e-19)
(1.66787 -1.87311 1.75688e-19)
(1.64922 -1.85223 0)
(1.63078 -1.83158 -6.80062e-19)
(1.6127 -1.81132 0)
(1.59496 -1.79145 6.73153e-19)
(1.57757 -1.77196 -1.66369e-19)
(1.56049 -1.75281 -6.65595e-19)
(1.54373 -1.73402 3.33049e-19)
(1.52727 -1.71555 4.97223e-19)
(1.5111 -1.69741 0)
(1.49521 -1.67957 8.26941e-19)
(1.4796 -1.66204 -6.64376e-19)
(1.46425 -1.6448 -2.35973e-21)
(1.44916 -1.62784 6.59501e-19)
(1.43431 -1.61115 -6.64581e-19)
(1.41971 -1.59472 -3.31418e-19)
(1.40534 -1.57855 -4.96628e-19)
(1.39119 -1.56262 1.65035e-19)
(1.37726 -1.54693 -3.33055e-19)
(1.36353 -1.53147 -4.99548e-19)
(1.35001 -1.51624 -1.66174e-19)
(1.33669 -1.50121 1.51142e-18)
(1.32355 -1.48639 0)
(1.3106 -1.47178 3.3775e-19)
(1.29782 -1.45735 0)
(1.28521 -1.44311 3.40134e-19)
(1.27276 -1.42905 0)
(1.26047 -1.41517 0)
(1.24834 -1.40145 -5.15059e-19)
(1.23635 -1.3879 5.19507e-19)
(1.22451 -1.3745 8.61722e-20)
(1.21281 -1.36125 -1.1646e-21)
(1.20124 -1.34815 -4.38062e-19)
(1.1898 -1.33519 -3.51456e-19)
(1.1785 -1.32238 0)
(1.16732 -1.3097 2.75027e-23)
(1.15626 -1.29715 3.55958e-19)
(1.14533 -1.28474 8.87652e-20)
(1.13452 -1.27246 2.68569e-19)
(1.12383 -1.2603 0)
(1.11326 -1.24827 -2.71837e-19)
(1.10281 -1.23637 2.71661e-19)
(1.09248 -1.22459 -9.04754e-20)
(1.08227 -1.21293 9.19787e-20)
(1.07218 -1.20141 -9.22665e-20)
(1.06221 -1.19001 -9.25338e-20)
(1.05237 -1.17874 0)
(1.04265 -1.1676 0)
(1.03305 -1.15659 9.208e-20)
(1.02357 -1.14571 1.8458e-19)
(1.01423 -1.13496 -1.17879e-21)
(1.005 -1.12435 -1.87638e-19)
(0.995905 -1.11387 -1.17626e-21)
(0.986933 -1.10354 -1.86997e-19)
(0.978086 -1.09333 4.68628e-19)
(0.969365 -1.08327 1.87409e-19)
(0.960769 -1.07335 0)
(0.952297 -1.06357 1.87686e-19)
(0.943948 -1.05393 0)
(0.93572 -1.04442 1.27574e-23)
(0.927612 -1.03506 0)
(0.919624 -1.02583 9.34264e-20)
(0.911751 -1.01675 -1.15008e-21)
(0.903993 -1.0078 -9.40825e-20)
(0.896346 -0.99898 9.47101e-20)
(0.888809 -0.990297 1.8784e-19)
(2.09156 -2.36069 8.01279e-19)
(2.07766 -2.34502 -1.16899e-18)
(2.06364 -2.32922 3.81138e-19)
(2.04951 -2.31329 0)
(2.03526 -2.29723 0)
(2.02087 -2.28102 6.99384e-19)
(2.00636 -2.26467 0)
(1.99172 -2.24817 1.32195e-18)
(1.97693 -2.23152 1.28456e-18)
(1.962 -2.2147 2.80639e-18)
(1.94692 -2.19772 -3.0433e-19)
(1.9317 -2.18057 0)
(1.91631 -2.16324 0)
(1.90076 -2.14573 1.10824e-18)
(1.88504 -2.12804 1.07508e-18)
(1.86915 -2.11015 2.59333e-19)
(1.85309 -2.09206 -1.26507e-18)
(1.83683 -2.07376 0)
(1.82039 -2.05525 1.7979e-23)
(1.80375 -2.03652 1.7883e-23)
(1.78691 -2.01756 -8.91438e-19)
(1.76985 -1.99836 2.14541e-19)
(1.75258 -1.97892 -1.0463e-18)
(1.73509 -1.95923 2.01029e-19)
(1.71736 -1.93927 -2.60517e-21)
(1.69939 -1.91903 -1.90849e-19)
(1.68116 -1.89852 -7.33704e-19)
(1.66268 -1.87771 -1.41898e-18)
(1.64409 -1.85677 -1.39114e-18)
(1.62571 -1.83607 0)
(1.60769 -1.81576 1.70695e-19)
(1.59001 -1.79585 -1.72381e-19)
(1.57267 -1.7763 0)
(1.55565 -1.75711 6.79199e-19)
(1.53894 -1.73827 -5.0908e-19)
(1.52253 -1.71976 -3.37744e-19)
(1.50641 -1.70157 3.37099e-19)
(1.49058 -1.6837 -8.4279e-19)
(1.47501 -1.66612 -6.72627e-19)
(1.45971 -1.64884 0)
(1.44467 -1.63184 -1.51151e-18)
(1.42987 -1.61511 1.69333e-19)
(1.41531 -1.59864 -1.67085e-19)
(1.40099 -1.58243 1.69649e-19)
(1.38688 -1.56647 -5.07312e-19)
(1.37299 -1.55075 -1.70197e-19)
(1.35931 -1.53525 1.18678e-18)
(1.34584 -1.51998 1.70949e-19)
(1.33255 -1.50492 -6.80892e-19)
(1.31946 -1.49007 0)
(1.30654 -1.47542 3.42446e-19)
(1.2938 -1.46096 -3.4356e-19)
(1.28123 -1.44669 -3.44755e-19)
(1.26882 -1.4326 -1.71811e-19)
(1.25657 -1.41869 1.74801e-19)
(1.24447 -1.40494 3.48583e-19)
(1.23252 -1.39136 -1.76152e-19)
(1.22071 -1.37793 -5.28118e-19)
(1.20904 -1.36465 5.2786e-19)
(1.19751 -1.35153 1.75867e-19)
(1.1861 -1.33855 3.55548e-19)
(1.17483 -1.32571 1.77294e-19)
(1.16368 -1.313 1.78017e-19)
(1.15266 -1.30043 -1.78699e-19)
(1.14176 -1.288 -1.79378e-19)
(1.13098 -1.27569 0)
(1.12032 -1.26351 -9.03624e-20)
(1.10978 -1.25146 -2.73225e-19)
(1.09936 -1.23954 3.66333e-19)
(1.08906 -1.22774 -9.1288e-20)
(1.07887 -1.21607 1.8553e-19)
(1.06881 -1.20453 9.30274e-20)
(1.05887 -1.19311 -9.20878e-20)
(1.04905 -1.18182 1.18982e-21)
(1.03936 -1.17067 3.72515e-19)
(1.02978 -1.15964 -9.39197e-20)
(1.02034 -1.14875 0)
(1.01101 -1.13798 -9.30636e-20)
(1.00181 -1.12736 -9.31945e-20)
(0.992734 -1.11687 0)
(0.983784 -1.10652 1.88006e-19)
(0.974958 -1.0963 -1.88179e-19)
(0.966257 -1.08623 -9.35587e-20)
(0.957679 -1.07629 9.47797e-20)
(0.949225 -1.06649 1.88448e-19)
(0.940893 -1.05684 0)
(0.932682 -1.04732 1.88532e-19)
(0.924591 -1.03794 9.4847e-20)
(0.916617 -1.0287 5.79623e-22)
(0.90876 -1.0196 -5.75027e-22)
(0.901016 -1.01063 -2.82916e-19)
(0.893384 -1.00179 9.54813e-20)
(0.885861 -0.993092 9.49509e-20)
(2.08482 -2.36664 -1.61065e-18)
(2.07096 -2.35093 0)
(2.05699 -2.33509 0)
(2.04291 -2.31912 7.41127e-19)
(2.0287 -2.30301 -7.26806e-19)
(2.01436 -2.28677 -3.53635e-19)
(1.99989 -2.27038 -6.8531e-19)
(1.9853 -2.25383 6.66431e-19)
(1.97056 -2.23713 -1.94366e-18)
(1.95568 -2.22027 -1.2566e-18)
(1.94065 -2.20325 6.11782e-19)
(1.92547 -2.18606 -2.98484e-19)
(1.91013 -2.16868 -1.15407e-18)
(1.89463 -2.15113 1.39908e-18)
(1.87897 -2.13339 -1.36053e-18)
(1.86313 -2.11545 1.31738e-18)
(1.84711 -2.09732 -2.57186e-19)
(1.83091 -2.07897 9.9241e-19)
(1.81452 -2.06042 9.62189e-19)
(1.79794 -2.04164 1.71716e-23)
(1.78115 -2.02263 0)
(1.76415 -2.00338 6.58106e-19)
(1.74694 -1.98389 -6.34862e-19)
(1.7295 -1.96415 0)
(1.71183 -1.94414 0)
(1.69391 -1.92385 1.91229e-19)
(1.67575 -1.90328 -1.87711e-19)
(1.65733 -1.88242 1.79023e-19)
(1.6388 -1.86143 1.06078e-18)
(1.62048 -1.84068 1.77082e-19)
(1.60252 -1.82032 0)
(1.5849 -1.80035 0)
(1.56761 -1.78076 -5.20838e-19)
(1.55065 -1.76152 -1.73809e-19)
(1.53399 -1.74263 8.5884e-19)
(1.51764 -1.72408 -3.43147e-19)
(1.50157 -1.70585 -6.82421e-19)
(1.48579 -1.68793 1.02576e-18)
(1.47028 -1.67031 1.19425e-18)
(1.45503 -1.65299 0)
(1.44004 -1.63594 6.82603e-19)
(1.42529 -1.61918 -6.82732e-19)
(1.41078 -1.60267 -1.69584e-19)
(1.3965 -1.58642 1.72156e-19)
(1.38244 -1.57042 6.84726e-19)
(1.36859 -1.55466 0)
(1.35496 -1.53913 -8.57724e-19)
(1.34152 -1.52382 1.03291e-18)
(1.32828 -1.50872 -1.73763e-19)
(1.31523 -1.49384 1.74213e-19)
(1.30235 -1.47916 -6.91705e-19)
(1.28965 -1.46467 5.23343e-19)
(1.27712 -1.45036 1.73413e-19)
(1.26475 -1.43624 -1.76376e-19)
(1.25253 -1.4223 1.74601e-19)
(1.24047 -1.40852 -1.77608e-19)
(1.22855 -1.39491 0)
(1.21678 -1.38145 3.55435e-19)
(1.20515 -1.36815 -3.5676e-19)
(1.19365 -1.35499 -2.46027e-23)
(1.18228 -1.34199 -3.59412e-19)
(1.17104 -1.32912 0)
(1.15992 -1.31639 -1.79848e-19)
(1.14893 -1.3038 3.634e-19)
(1.13806 -1.29134 3.64698e-19)
(1.12731 -1.27901 3.65951e-19)
(1.11669 -1.26681 -1.84787e-19)
(1.10618 -1.25474 3.68379e-19)
(1.09579 -1.24279 -5.55451e-19)
(1.08551 -1.23097 -1.20498e-21)
(1.07536 -1.21928 0)
(1.06533 -1.20772 1.86274e-19)
(1.05542 -1.19629 -1.86719e-19)
(1.04563 -1.18498 1.87128e-19)
(1.03596 -1.17381 -3.75013e-19)
(1.02641 -1.16277 -2.8115e-19)
(1.01699 -1.15186 9.46607e-20)
(1.00769 -1.14108 1.88372e-19)
(0.998509 -1.13044 1.88598e-19)
(0.989457 -1.11994 0)
(0.980529 -1.10957 -9.50485e-20)
(0.971724 -1.09934 -1.88988e-19)
(0.963044 -1.08925 9.51157e-20)
(0.954487 -1.0793 0)
(0.946052 -1.06948 -3.78184e-19)
(0.937738 -1.05981 1.89071e-19)
(0.929546 -1.05028 9.39391e-20)
(0.921472 -1.04088 -1.90175e-19)
(0.913515 -1.03163 -5.75824e-22)
(0.905674 -1.0225 1.88934e-19)
(0.897946 -1.01352 0)
(0.89033 -1.00467 -9.44626e-20)
(0.882822 -0.995946 9.39159e-20)
(2.07786 -2.37274 8.08877e-19)
(2.06405 -2.35699 7.85573e-19)
(2.05013 -2.34111 -7.70918e-19)
(2.03609 -2.3251 7.45429e-19)
(2.02193 -2.30895 -7.31362e-19)
(2.00764 -2.29266 1.41575e-18)
(1.99322 -2.27623 -2.77538e-21)
(1.97867 -2.25964 1.34307e-18)
(1.96398 -2.2429 6.50374e-19)
(1.94915 -2.22599 -2.98915e-24)
(1.93417 -2.20893 3.00131e-24)
(1.91904 -2.19168 8.95679e-19)
(1.90376 -2.17427 8.72793e-19)
(1.88831 -2.15667 -1.98236e-18)
(1.8727 -2.13888 -1.37523e-18)
(1.85691 -2.1209 -1.06689e-18)
(1.84095 -2.10271 0)
(1.8248 -2.08432 -1.25421e-18)
(1.80847 -2.06572 2.7157e-21)
(1.79194 -2.04689 2.12702e-18)
(1.77521 -2.02783 0)
(1.75827 -2.00853 -2.2059e-19)
(1.74111 -1.98899 2.16438e-19)
(1.72373 -1.96919 -2.07036e-19)
(1.70612 -1.94913 2.68534e-21)
(1.68827 -1.9288 1.96848e-19)
(1.67017 -1.90817 -7.57305e-19)
(1.65181 -1.88726 1.46566e-18)
(1.63334 -1.86621 -1.7833e-19)
(1.61508 -1.84541 1.79946e-19)
(1.59718 -1.825 8.86758e-19)
(1.57962 -1.80498 -8.84895e-19)
(1.56239 -1.78533 1.40755e-18)
(1.54549 -1.76605 -7.01086e-19)
(1.52889 -1.74711 -8.72255e-19)
(1.51259 -1.72851 6.99458e-19)
(1.49658 -1.71023 1.04316e-18)
(1.48085 -1.69227 -8.69095e-19)
(1.46539 -1.67461 -6.93445e-19)
(1.4502 -1.65724 0)
(1.43525 -1.64016 0)
(1.42055 -1.62335 6.9273e-19)
(1.40609 -1.6068 -5.20975e-19)
(1.39186 -1.59051 -1.7461e-19)
(1.37785 -1.57447 -6.94326e-19)
(1.36405 -1.55867 -5.22698e-19)
(1.35046 -1.5431 -3.48256e-19)
(1.33707 -1.52776 -5.22226e-19)
(1.32387 -1.51263 0)
(1.31086 -1.49771 -1.76502e-19)
(1.29802 -1.48299 7.0057e-19)
(1.28536 -1.46847 -3.52476e-19)
(1.27287 -1.45413 1.77966e-19)
(1.26054 -1.43998 0)
(1.24836 -1.426 -1.79076e-19)
(1.23634 -1.41219 -5.36598e-19)
(1.22446 -1.39855 0)
(1.21272 -1.38506 -5.37839e-19)
(1.20113 -1.37173 5.42115e-19)
(1.18966 -1.35855 -3.6188e-19)
(1.17833 -1.34551 3.63136e-19)
(1.16712 -1.33262 -1.80978e-19)
(1.15604 -1.31987 1.84011e-19)
(1.14508 -1.30725 -3.66818e-19)
(1.13424 -1.29476 -7.36051e-19)
(1.12353 -1.28241 1.85791e-19)
(1.11293 -1.27019 1.86363e-19)
(1.10245 -1.25809 1.84485e-19)
(1.09209 -1.24613 1.85018e-19)
(1.08185 -1.23429 -1.48137e-23)
(1.07173 -1.22258 -1.87145e-19)
(1.06173 -1.211 -1.87582e-19)
(1.05184 -1.19954 1.86768e-19)
(1.04208 -1.18822 -5.64937e-19)
(1.03244 -1.17703 7.54483e-19)
(1.02292 -1.16597 -3.77765e-19)
(1.01352 -1.15504 2.40172e-21)
(1.00425 -1.14425 -4.41825e-24)
(0.995097 -1.13359 -1.90653e-19)
(0.986069 -1.12307 9.41856e-20)
(0.977164 -1.11269 9.42174e-20)
(0.968383 -1.10244 9.42406e-20)
(0.959724 -1.09234 1.88481e-19)
(0.951188 -1.08237 -9.54104e-20)
(0.942774 -1.07254 1.89594e-19)
(0.93448 -1.06285 -3.79029e-19)
(0.926307 -1.0533 0)
(0.918252 -1.04389 1.89327e-19)
(0.910314 -1.03461 9.46165e-20)
(0.902491 -1.02548 -1.88575e-19)
(0.894781 -1.01647 9.45424e-20)
(0.887182 -1.0076 -9.45214e-20)
(0.879692 -0.99886 5.70882e-22)
(2.07068 -2.37901 -1.62663e-18)
(2.05692 -2.36321 0)
(2.04304 -2.34729 0)
(2.02905 -2.33123 -7.5208e-19)
(2.01494 -2.31504 -7.32694e-19)
(2.0007 -2.29871 0)
(1.98633 -2.28223 -6.94791e-19)
(1.97183 -2.2656 -1.35255e-18)
(1.95719 -2.24881 -6.55259e-19)
(1.94241 -2.23186 -2.55496e-18)
(1.92748 -2.21475 1.87034e-18)
(1.91241 -2.19746 -2.42085e-18)
(1.89717 -2.18 1.76188e-18)
(1.88178 -2.16235 1.71186e-18)
(1.86622 -2.14451 1.59507e-23)
(1.85049 -2.12648 0)
(1.83459 -2.10825 0)
(1.8185 -2.08981 0)
(1.80222 -2.07115 0)
(1.78575 -2.05228 -7.18751e-19)
(1.76907 -2.03317 -2.33291e-19)
(1.75219 -2.01382 0)
(1.73509 -1.99423 8.72091e-19)
(1.71778 -1.97438 2.09955e-19)
(1.70022 -1.95426 -2.06147e-19)
(1.68244 -1.93387 7.93671e-19)
(1.6644 -1.91319 7.68889e-19)
(1.6461 -1.89222 -1.48853e-18)
(1.6277 -1.87112 1.81143e-19)
(1.60951 -1.85026 5.42962e-19)
(1.59167 -1.8298 -1.71235e-23)
(1.57417 -1.80973 5.39716e-19)
(1.55701 -1.79003 3.57287e-19)
(1.54016 -1.7707 5.32572e-19)
(1.52362 -1.75171 7.09428e-19)
(1.50738 -1.73306 -8.83e-19)
(1.49143 -1.71474 1.77717e-19)
(1.47575 -1.69673 0)
(1.46035 -1.67902 0)
(1.4452 -1.66161 0)
(1.43031 -1.64448 0)
(1.41567 -1.62763 8.76824e-19)
(1.40125 -1.61104 5.25759e-19)
(1.38707 -1.59471 8.77588e-19)
(1.37311 -1.57863 -1.77135e-19)
(1.35936 -1.56279 7.046e-19)
(1.34581 -1.54719 0)
(1.33247 -1.5318 -1.75496e-19)
(1.31931 -1.51664 1.78299e-19)
(1.30634 -1.50168 1.76244e-19)
(1.29355 -1.48693 -5.34912e-19)
(1.28094 -1.47237 -3.56697e-19)
(1.26848 -1.458 0)
(1.25619 -1.44381 -1.7813e-19)
(1.24406 -1.4298 5.40873e-19)
(1.23207 -1.41596 1.81661e-19)
(1.22023 -1.40228 5.44188e-19)
(1.20853 -1.38877 2.21959e-23)
(1.19697 -1.37541 -9.0951e-19)
(1.18554 -1.36219 5.4939e-19)
(1.17424 -1.34913 1.82091e-19)
(1.16307 -1.33621 -5.52872e-19)
(1.15203 -1.32343 1.8324e-19)
(1.1411 -1.31078 3.67619e-19)
(1.1303 -1.29827 1.72401e-23)
(1.11962 -1.28589 -1.75701e-23)
(1.10905 -1.27365 -9.80245e-24)
(1.09861 -1.26153 2.43615e-21)
(1.08828 -1.24954 3.76311e-19)
(1.07807 -1.23768 -1.87988e-19)
(1.06798 -1.22595 1.88385e-19)
(1.05801 -1.21435 0)
(1.04815 -1.20288 5.65988e-19)
(1.03842 -1.19154 -2.42468e-21)
(1.02881 -1.18033 -5.70023e-19)
(1.01931 -1.16925 -1.88588e-19)
(1.00994 -1.1583 1.91183e-19)
(1.0007 -1.14749 1.90111e-19)
(0.991571 -1.13682 1.88986e-19)
(0.982568 -1.12628 -1.92622e-19)
(0.973687 -1.11588 -3.81678e-19)
(0.964929 -1.10562 -1.90204e-19)
(0.956294 -1.09549 -1.20212e-23)
(0.94778 -1.08551 0)
(0.939388 -1.07566 -1.88763e-19)
(0.931116 -1.06596 3.80797e-19)
(0.922963 -1.05639 0)
(0.914929 -1.04696 -1.89518e-19)
(0.907011 -1.03767 -1.89366e-19)
(0.899208 -1.02851 -9.46132e-20)
(0.891518 -1.01949 1.88539e-19)
(0.883938 -1.01059 -1.89602e-19)
(0.876468 -1.00183 9.29595e-25)
(2.06327 -2.38543 2.81103e-21)
(2.04956 -2.36959 -7.88935e-19)
(2.03573 -2.35363 1.54978e-18)
(2.02179 -2.33753 7.52696e-19)
(2.00772 -2.32129 7.36375e-19)
(1.99353 -2.30491 -7.14699e-19)
(1.97922 -2.28839 -6.93302e-19)
(1.96477 -2.27171 6.8342e-19)
(1.95018 -2.25488 -1.32517e-18)
(1.93545 -2.23788 2.57938e-18)
(1.92058 -2.22072 1.87936e-18)
(1.90556 -2.20339 6.07443e-19)
(1.89038 -2.18588 5.90555e-19)
(1.87504 -2.16818 -1.73323e-18)
(1.85954 -2.1503 2.24222e-18)
(1.84387 -2.13222 -5.41812e-19)
(1.82802 -2.11393 5.3175e-19)
(1.81198 -2.09544 1.02727e-18)
(1.79577 -2.07673 -4.95847e-19)
(1.77935 -2.0578 4.86711e-19)
(1.76274 -2.03864 -9.39122e-19)
(1.74592 -2.01924 0)
(1.72888 -1.9996 6.64058e-19)
(1.71163 -1.97969 2.15573e-19)
(1.69414 -1.95952 -8.30605e-19)
(1.67642 -1.93908 -8.05117e-19)
(1.65844 -1.91834 7.80251e-19)
(1.64022 -1.89731 1.69863e-18)
(1.62188 -1.87616 -1.86659e-19)
(1.60375 -1.85524 1.82825e-19)
(1.58598 -1.83472 -9.16953e-19)
(1.56855 -1.8146 0)
(1.55144 -1.79485 -7.2528e-19)
(1.53466 -1.77546 9.01594e-19)
(1.51818 -1.75643 5.38546e-19)
(1.502 -1.73773 0)
(1.4861 -1.71935 -1.77689e-19)
(1.47049 -1.7013 3.57253e-19)
(1.45514 -1.68355 -1.79633e-19)
(1.44005 -1.66609 5.35752e-19)
(1.42521 -1.64892 2.5316e-21)
(1.41062 -1.63202 -7.09459e-19)
(1.39626 -1.61539 3.56008e-19)
(1.38213 -1.59902 -8.91657e-19)
(1.36821 -1.5829 8.89805e-19)
(1.35451 -1.56702 -1.79636e-19)
(1.34101 -1.55137 1.77377e-19)
(1.32772 -1.53595 -1.80138e-19)
(1.31461 -1.52075 7.16849e-19)
(1.30168 -1.50575 -3.59136e-19)
(1.28894 -1.49096 -1.78725e-19)
(1.27636 -1.47637 5.42389e-19)
(1.26395 -1.46196 0)
(1.2517 -1.44774 -1.80068e-19)
(1.23961 -1.4337 1.83023e-19)
(1.22766 -1.41982 0)
(1.21586 -1.40611 -3.65651e-19)
(1.2042 -1.39257 7.33396e-19)
(1.19268 -1.37917 1.85126e-19)
(1.18128 -1.36593 -5.5203e-19)