/*--------------------------------*- C++ -*----------------------------------*\
  =========                 |
  \\      /  F ield         | OpenFOAM: The Open Source CFD Toolbox
   \\    /   O peration     | Website:  https://openfoam.org
    \\  /    A nd           | Version:  10
     \\/     M anipulation  |
\*---------------------------------------------------------------------------*/
FoamFile
{
    format      ascii;
    class       surfaceScalarField;
    location    "70000";
    object      phi;
}
// * * * * * * * * * * * * * * * * * * * * * * * * * * * * * * * * * * * * * //

dimensions      [0 3 -1 0 0 0 0];

internalField   nonuniform List<scalar> 
35536
(
-6.15324e-09
-3.59135e-07
-1.43787e-08
-2.78944e-07
1.69279e-08
-2.52592e-07
9.25895e-08
-2.16673e-07
2.31886e-07
-1.70026e-07
4.63836e-07
-1.04988e-07
8.1292e-07
-8.49996e-09
1.28563e-06
1.32284e-07
1.8637e-06
3.22383e-07
2.50786e-06
5.58658e-07
3.17129e-06
8.27982e-07
3.81065e-06
1.11294e-06
4.39415e-06
1.39718e-06
4.90354e-06
1.66745e-06
5.33287e-06
1.91457e-06
5.6858e-06
2.13497e-06
5.9722e-06
2.3281e-06
6.20443e-06
2.49619e-06
6.3944e-06
2.64373e-06
6.55272e-06
2.77487e-06
6.68824e-06
2.89344e-06
6.80785e-06
3.00274e-06
6.91676e-06
3.10535e-06
7.0188e-06
3.20325e-06
7.11662e-06
3.2979e-06
7.21197e-06
3.3904e-06
7.30595e-06
3.48145e-06
7.39923e-06
3.5715e-06
7.49218e-06
3.66081e-06
7.58501e-06
3.74949e-06
7.67779e-06
3.83755e-06
7.77055e-06
3.92495e-06
7.86324e-06
4.01158e-06
7.95581e-06
4.09729e-06
8.04819e-06
4.1819e-06
8.14029e-06
4.26523e-06
8.23202e-06
4.34702e-06
8.32329e-06
4.42705e-06
8.41401e-06
4.50502e-06
8.50409e-06
4.58065e-06
8.59343e-06
4.65362e-06
8.68194e-06
4.7236e-06
8.76954e-06
4.79023e-06
8.85613e-06
4.85313e-06
8.9416e-06
4.91188e-06
9.02585e-06
4.96606e-06
9.10876e-06
5.01521e-06
9.19021e-06
5.05882e-06
9.27007e-06
5.09637e-06
9.34817e-06
5.1273e-06
9.42437e-06
5.15101e-06
9.49847e-06
5.16685e-06
9.57028e-06
5.17413e-06
9.63958e-06
5.17212e-06
9.70612e-06
5.16002e-06
9.76966e-06
5.137e-06
9.82989e-06
5.10215e-06
9.88651e-06
5.05448e-06
9.93918e-06
4.99297e-06
9.98753e-06
4.91649e-06
1.00312e-05
4.82385e-06
1.00697e-05
4.71376e-06
1.01026e-05
4.58484e-06
1.01295e-05
4.4356e-06
1.01498e-05
4.26445e-06
1.0163e-05
4.06969e-06
1.01685e-05
3.84948e-06
1.01657e-05
3.60184e-06
1.0154e-05
3.32466e-06
1.01329e-05
3.01568e-06
1.01015e-05
2.67246e-06
1.00592e-05
2.29242e-06
1.00054e-05
1.87278e-06
9.93936e-06
1.41064e-06
9.86265e-06
8.85192e-07
9.7781e-06
3.55219e-07
9.68662e-06
-1.33147e-07
9.58897e-06
-5.82164e-07
9.4857e-06
-9.93982e-07
9.37756e-06
-1.37181e-06
9.26533e-06
-1.71864e-06
9.14955e-06
-2.03639e-06
9.03064e-06
-2.32663e-06
8.90891e-06
-2.59089e-06
8.78456e-06
-2.83067e-06
8.65784e-06
-3.04745e-06
8.5294e-06
-3.24258e-06
8.40062e-06
-3.41701e-06
8.27334e-06
-3.57099e-06
8.1484e-06
-3.70428e-06
8.02488e-06
-3.81723e-06
7.90123e-06
-3.91158e-06
7.77672e-06
-3.98999e-06
7.65138e-06
-4.05448e-06
7.5253e-06
-4.10629e-06
7.39856e-06
-4.14652e-06
7.27123e-06
-4.17626e-06
7.14338e-06
-4.1965e-06
7.01507e-06
-4.20823e-06
-4.21233e-06
-1.36463e-08
-3.4549e-07
-3.58023e-08
-2.56788e-07
-2.75318e-08
-2.60858e-07
5.62563e-09
-2.49826e-07
6.64619e-08
-2.30863e-07
1.64313e-07
-2.0284e-07
3.16988e-07
-1.61174e-07
5.49664e-07
-1.00392e-07
8.84629e-07
-1.25812e-08
1.332e-06
1.11286e-07
1.88354e-06
2.76447e-07
2.51288e-06
4.83603e-07
3.18286e-06
7.2719e-07
3.85364e-06
9.96673e-07
4.4895e-06
1.27871e-06
5.06461e-06
1.55986e-06
5.5648e-06
1.82792e-06
5.98691e-06
2.07408e-06
6.33614e-06
2.2945e-06
6.62277e-06
2.48824e-06
6.85819e-06
2.65802e-06
7.05322e-06
2.80771e-06
7.21789e-06
2.94068e-06
7.36053e-06
3.06061e-06
7.48774e-06
3.17069e-06
7.60458e-06
3.27355e-06
7.71475e-06
3.37128e-06
7.82078e-06
3.46547e-06
7.92432e-06
3.55727e-06
8.02638e-06
3.64743e-06
8.12754e-06
3.7364e-06
8.22808e-06
3.82441e-06
8.32814e-06
3.91151e-06
8.42776e-06
3.99766e-06
8.52694e-06
4.08273e-06
8.62562e-06
4.16654e-06
8.72376e-06
4.24888e-06
8.82131e-06
4.3295e-06
8.9182e-06
4.40813e-06
9.01436e-06
4.48448e-06
9.10975e-06
4.55824e-06
9.2043e-06
4.62906e-06
9.29793e-06
4.6966e-06
9.39058e-06
4.76048e-06
9.48216e-06
4.8203e-06
9.57258e-06
4.87564e-06
9.66174e-06
4.92604e-06
9.74953e-06
4.97103e-06
9.83581e-06
5.01009e-06
9.92043e-06
5.04268e-06
1.00032e-05
5.06822e-06
1.0084e-05
5.08607e-06
1.01625e-05
5.09559e-06
1.02386e-05
5.09604e-06
1.0312e-05
5.08668e-06
1.03823e-05
5.06667e-06
1.04493e-05
5.03514e-06
1.05126e-05
4.99116e-06
1.05719e-05
4.9337e-06
1.06267e-05
4.86168e-06
1.06766e-05
4.77395e-06
1.07211e-05
4.66923e-06
1.07598e-05
4.5462e-06
1.0792e-05
4.40339e-06
1.08172e-05
4.23926e-06
1.08347e-05
4.05213e-06
1.0844e-05
3.84019e-06
1.08444e-05
3.60152e-06
1.0835e-05
3.33402e-06
1.08152e-05
3.03545e-06
1.07843e-05
2.70341e-06
1.07414e-05
2.33534e-06
1.06857e-05
1.92849e-06
1.06163e-05
1.47996e-06
1.05351e-05
9.66454e-07
1.04449e-05
4.45425e-07
1.03468e-05
-3.50334e-08
1.02416e-05
-4.77008e-07
1.01301e-05
-8.8247e-07
1.00129e-05
-1.25464e-06
9.89084e-06
-1.59656e-06
9.76449e-06
-1.91003e-06
9.6344e-06
-2.19654e-06
9.50103e-06
-2.45752e-06
9.36474e-06
-2.69437e-06
9.22573e-06
-2.90844e-06
9.08424e-06
-3.10109e-06
8.94079e-06
-3.27356e-06
8.79658e-06
-3.42679e-06
8.6534e-06
-3.56111e-06
8.51247e-06
-3.67629e-06
8.37323e-06
-3.77235e-06
8.23401e-06
-3.85077e-06
8.09395e-06
-3.91442e-06
7.95314e-06
-3.96548e-06
7.81173e-06
-4.00511e-06
7.66984e-06
-4.03437e-06
7.52759e-06
-4.05425e-06
7.38508e-06
-4.06571e-06
-4.06965e-06
-1.808e-09
-3.43685e-07
-9.9163e-09
-2.48684e-07
-2.28517e-09
-2.68483e-07
1.82338e-08
-2.70348e-07
5.27006e-08
-2.65333e-07
1.04875e-07
-2.55015e-07
1.81141e-07
-2.3744e-07
2.90112e-07
-2.09363e-07
4.45098e-07
-1.67567e-07
6.65527e-07
-1.09144e-07
9.70822e-07
-2.88487e-08
1.37383e-06
8.05904e-08
1.87569e-06
2.25336e-07
2.46283e-06
4.09533e-07
3.1081e-06
6.33443e-07
3.77749e-06
8.90474e-07
4.43595e-06
1.16946e-06
5.05354e-06
1.45648e-06
5.60997e-06
1.73807e-06
6.09562e-06
2.00259e-06
6.51047e-06
2.24317e-06
6.86041e-06
2.45776e-06
7.15453e-06
2.64657e-06
7.4022e-06
2.81294e-06
7.61256e-06
2.96033e-06
7.79425e-06
3.09186e-06
7.95451e-06
3.21102e-06
8.09912e-06
3.32086e-06
8.23254e-06
3.42385e-06
8.35812e-06
3.52185e-06
8.47824e-06
3.61628e-06
8.59452e-06
3.70812e-06
8.70802e-06
3.79802e-06
8.81938e-06
3.8863e-06
8.929e-06
3.97311e-06
9.03713e-06
4.05842e-06
9.14391e-06
4.1421e-06
9.24945e-06
4.22396e-06
9.35381e-06
4.30377e-06
9.45704e-06
4.38125e-06
9.55918e-06
4.4561e-06
9.66024e-06
4.528e-06
9.76023e-06
4.59661e-06
9.85914e-06
4.66157e-06
9.95694e-06
4.7225e-06
1.00536e-05
4.77899e-06
1.0149e-05
4.83061e-06
1.02431e-05
4.87691e-06
1.03358e-05
4.91739e-06
1.0427e-05
4.95154e-06
1.05164e-05
4.97879e-06
1.06039e-05
4.99856e-06
1.06893e-05
5.01021e-06
1.07723e-05
5.01304e-06
1.08526e-05
5.00633e-06
1.093e-05
4.98929e-06
1.10041e-05
4.96107e-06
1.10745e-05
4.92077e-06
1.11408e-05
4.86741e-06
1.12025e-05
4.79995e-06
1.12592e-05
4.71725e-06
1.13103e-05
4.6181e-06
1.13553e-05
4.50119e-06
1.13936e-05
4.36513e-06
1.14245e-05
4.20839e-06
1.14473e-05
4.02934e-06
1.14612e-05
3.82622e-06
1.14656e-05
3.59714e-06
1.14596e-05
3.34005e-06
1.14423e-05
3.05273e-06
1.14129e-05
2.73284e-06
1.13704e-05
2.37782e-06
1.13139e-05
1.98496e-06
1.12425e-05
1.55138e-06
1.11578e-05
1.05116e-06
1.1063e-05
5.40266e-07
1.09591e-05
6.87757e-08
1.08474e-05
-3.65228e-07
1.07284e-05
-7.63521e-07
1.0603e-05
-1.1292e-06
1.04718e-05
-1.46535e-06
1.03355e-05
-1.77372e-06
1.01947e-05
-2.05575e-06
1.005e-05
-2.31281e-06
9.9018e-06
-2.54622e-06
9.7506e-06
-2.75724e-06
9.59662e-06
-2.9471e-06
9.44007e-06
-3.11701e-06
9.2814e-06
-3.26811e-06
9.12158e-06
-3.40129e-06
8.96226e-06
-3.51697e-06
8.80488e-06
-3.61497e-06
8.64925e-06
-3.69514e-06
8.49372e-06
-3.75889e-06
8.33751e-06
-3.80927e-06
8.18081e-06
-3.84841e-06
8.0238e-06
-3.87736e-06
7.86664e-06
-3.89709e-06
7.70945e-06
-3.90852e-06
-3.91255e-06
1.37678e-09
-3.45063e-07
-1.14949e-09
-2.46153e-07
5.58536e-10
-2.70184e-07
7.40054e-09
-2.77189e-07
2.11363e-08
-2.79063e-07
4.42931e-08
-2.78171e-07
8.06955e-08
-2.73843e-07
1.35468e-07
-2.64135e-07
2.14367e-07
-2.46465e-07
3.23592e-07
-2.18368e-07
4.72121e-07
-1.77376e-07
6.73503e-07
-1.20791e-07
9.4418e-07
-4.53406e-08
1.2994e-06
5.43108e-08
1.74726e-06
1.85584e-07
2.28414e-06
3.53596e-07
2.89317e-06
5.60432e-07
3.54705e-06
8.02597e-07
4.2142e-06
1.07093e-06
4.86394e-06
1.35285e-06
5.47217e-06
1.63494e-06
6.02363e-06
1.9063e-06
6.51154e-06
2.15866e-06
6.9366e-06
2.38787e-06
7.30363e-06
2.5933e-06
7.61955e-06
2.77594e-06
7.89173e-06
2.93883e-06
8.12761e-06
3.08498e-06
8.33445e-06
3.217e-06
8.5185e-06
3.3378e-06
8.68484e-06
3.44994e-06
8.83759e-06
3.55538e-06
8.98001e-06
3.6556e-06
9.11458e-06
3.75173e-06
9.24316e-06
3.84453e-06
9.36705e-06
3.93452e-06
9.4872e-06
4.02195e-06
9.60427e-06
4.10689e-06
9.71875e-06
4.18929e-06
9.83101e-06
4.26899e-06
9.94134e-06
4.34577e-06
1.005e-05
4.41938e-06
1.0157e-05
4.48952e-06
1.02627e-05
4.55589e-06
1.03671e-05
4.61812e-06
1.04702e-05
4.67588e-06
1.05721e-05
4.72875e-06
1.06727e-05
4.77632e-06
1.07719e-05
4.81815e-06
1.08697e-05
4.85375e-06
1.09659e-05
4.88261e-06
1.10603e-05
4.90415e-06
1.11527e-05
4.91779e-06
1.12429e-05
4.92287e-06
1.13305e-05
4.9187e-06
1.14153e-05
4.90453e-06
1.14968e-05
4.87956e-06
1.15747e-05
4.8429e-06
1.16484e-05
4.79363e-06
1.17176e-05
4.73075e-06
1.17817e-05
4.65316e-06
1.18401e-05
4.5597e-06
1.18922e-05
4.44911e-06
1.19373e-05
4.32003e-06
1.19747e-05
4.171e-06
1.20036e-05
4.00043e-06
1.20232e-05
3.80662e-06
1.20326e-05
3.5877e-06
1.2031e-05
3.3417e-06
1.20173e-05
3.06645e-06
1.19905e-05
2.75962e-06
1.19496e-05
2.41871e-06
1.18935e-05
2.04105e-06
1.18211e-05
1.62378e-06
1.1734e-05
1.13825e-06
1.16355e-05
6.38775e-07
1.15269e-05
1.774e-07
1.14093e-05
-2.47631e-07
1.12836e-05
-6.37867e-07
1.11506e-05
-9.96129e-07
1.10108e-05
-1.32556e-06
1.0865e-05
-1.62794e-06
1.07139e-05
-1.90466e-06
1.05581e-05
-2.15702e-06
1.03982e-05
-2.3863e-06
1.02347e-05
-2.59371e-06
1.00679e-05
-2.78037e-06
9.89834e-06
-2.94741e-06
9.72613e-06
-3.09591e-06
9.55171e-06
-3.22687e-06
9.37587e-06
-3.34114e-06
9.20006e-06
-3.43915e-06
9.02579e-06
-3.52087e-06
8.85309e-06
-3.58619e-06
8.6806e-06
-3.63678e-06
8.5079e-06
-3.6757e-06
8.3352e-06
-3.70466e-06
8.16266e-06
-3.72455e-06
7.99039e-06
-3.73625e-06
7.81847e-06
-3.74063e-06
7.64702e-06
-3.73858e-06
7.47615e-06
-3.73095e-06
7.30602e-06
-3.71857e-06
-3.70222e-06
-2.78658e-09
-3.42276e-07
-1.3385e-08
-2.3556e-07
-2.41094e-08
-2.59472e-07
-3.28915e-08
-2.6841e-07
-3.86386e-08
-2.7331e-07
-3.98974e-08
-2.76912e-07
-3.4501e-08
-2.79243e-07
-1.91614e-08
-2.79477e-07
1.05051e-08
-2.76131e-07
5.93314e-08
-2.67193e-07
1.32332e-07
-2.50376e-07
2.34833e-07
-2.23293e-07
3.73102e-07
-1.83612e-07
5.5654e-07
-1.29128e-07
7.99135e-07
-5.70108e-08
1.11629e-06
3.64377e-08
1.52016e-06
1.56566e-07
2.01399e-06
3.08767e-07
2.58884e-06
4.96082e-07
3.22427e-06
7.17414e-07
3.89334e-06
9.65882e-07
4.56781e-06
1.23183e-06
5.22203e-06
1.50443e-06
5.83656e-06
1.77335e-06
6.3989e-06
2.03096e-06
6.90305e-06
2.27179e-06
7.34903e-06
2.49285e-06
7.74045e-06
2.69356e-06
8.08271e-06
2.87475e-06
8.38167e-06
3.03884e-06
8.64352e-06
3.18809e-06
8.87456e-06
3.32434e-06
9.08028e-06
3.44988e-06
9.26541e-06
3.56659e-06
9.43404e-06
3.67591e-06
9.5896e-06
3.77896e-06
9.73491e-06
3.87663e-06
9.87221e-06
3.9696e-06
1.00032e-05
4.05831e-06
1.01292e-05
4.14301e-06
1.02511e-05
4.22381e-06
1.03698e-05
4.30067e-06
1.04859e-05
4.37347e-06
1.05997e-05
4.44204e-06
1.07117e-05
4.50615e-06
1.08221e-05
4.56552e-06
1.0931e-05
4.61985e-06
1.10385e-05
4.6688e-06
1.11447e-05
4.71198e-06
1.12495e-05
4.74897e-06
1.13528e-05
4.77931e-06
1.14544e-05
4.8025e-06
1.15542e-05
4.81799e-06
1.16519e-05
4.82517e-06
1.17472e-05
4.8234e-06
1.18398e-05
4.81197e-06
1.19292e-05
4.79012e-06
1.20151e-05
4.75702e-06
1.20969e-05
4.71179e-06
1.21742e-05
4.65347e-06
1.22464e-05
4.58102e-06
1.23127e-05
4.49332e-06
1.23727e-05
4.38917e-06
1.24254e-05
4.26727e-06
1.24702e-05
4.12621e-06
1.25062e-05
3.96446e-06
1.25324e-05
3.78037e-06
1.2548e-05
3.57216e-06
1.25518e-05
3.33789e-06
1.25428e-05
3.07547e-06
1.25198e-05
2.78261e-06
1.24816e-05
2.45688e-06
1.2427e-05
2.09564e-06
1.23547e-05
1.69606e-06
1.22663e-05
1.22672e-06
1.2165e-05
7.40048e-07
1.20524e-05
2.90034e-07
1.19297e-05
-1.24941e-07
1.1798e-05
-5.06158e-07
1.16578e-05
-8.55971e-07
1.15099e-05
-1.17763e-06
1.1355e-05
-1.47303e-06
1.11938e-05
-1.74351e-06
1.10271e-05
-1.99032e-06
1.08555e-05
-2.21467e-06
1.06795e-05
-2.41771e-06
1.04996e-05
-2.60055e-06
1.03165e-05
-2.76422e-06
1.01303e-05
-2.90975e-06
9.94152e-06
-3.03809e-06
9.75055e-06
-3.15016e-06
9.55814e-06
-3.24675e-06
9.36557e-06
-3.3283e-06
9.17425e-06
-3.39487e-06
8.98424e-06
-3.44678e-06
8.79487e-06
-3.48633e-06
8.60601e-06
-3.5158e-06
8.41769e-06
-3.53624e-06
8.22995e-06
-3.5485e-06
8.04279e-06
-3.55347e-06
7.85628e-06
-3.55207e-06
7.67054e-06
-3.54521e-06
7.48573e-06
-3.53376e-06
-3.51857e-06
-6.40701e-09
-3.35862e-07
-2.33101e-08
-2.18653e-07
-4.10561e-08
-2.41719e-07
-5.78051e-08
-2.51651e-07
-7.32715e-08
-2.57838e-07
-8.69853e-08
-2.63198e-07
-9.81179e-08
-2.68111e-07
-1.05234e-07
-2.72358e-07
-1.06017e-07
-2.75345e-07
-9.71939e-08
-2.76013e-07
-7.46619e-08
-2.72907e-07
-3.36929e-08
-2.64262e-07
3.07402e-08
-2.48045e-07
1.23677e-07
-2.22064e-07
2.50844e-07
-1.84175e-07
4.19745e-07
-1.32461e-07
6.4114e-07
-6.48275e-08
9.28713e-07
2.11954e-08
1.29575e-06
1.29043e-07
1.74934e-06
2.63828e-07
2.28652e-06
4.28701e-07
2.89418e-06
6.24165e-07
3.55164e-06
8.46976e-07
4.23442e-06
1.09058e-06
4.91825e-06
1.34713e-06
5.58156e-06
1.60849e-06
6.20755e-06
1.86686e-06
6.78483e-06
2.11628e-06
7.3073e-06
2.35227e-06
7.77425e-06
2.57189e-06
8.18842e-06
2.77392e-06
8.55409e-06
2.95868e-06
8.8759e-06
3.12807e-06
9.15911e-06
3.28337e-06
9.40927e-06
3.42575e-06
9.63141e-06
3.55682e-06
9.8302e-06
3.67785e-06
1.00099e-05
3.78988e-06
1.01744e-05
3.89384e-06
1.03268e-05
3.99055e-06
1.047e-05
4.08069e-06
1.06058e-05
4.16479e-06
1.07361e-05
4.24319e-06
1.08621e-05
4.31609e-06
1.09846e-05
4.38358e-06
1.11045e-05
4.44564e-06
1.12222e-05
4.50214e-06
1.13381e-05
4.55291e-06
1.14524e-05
4.59771e-06
1.15651e-05
4.63622e-06
1.16764e-05
4.66808e-06
1.1786e-05
4.69287e-06
1.18939e-05
4.71012e-06
1.19998e-05
4.71928e-06
1.21034e-05
4.71978e-06
1.22044e-05
4.71097e-06
1.23024e-05
4.69212e-06
1.23969e-05
4.66248e-06
1.24875e-05
4.62121e-06
1.25736e-05
4.5674e-06
1.26545e-05
4.50008e-06
1.27296e-05
4.41818e-06
1.27983e-05
4.32055e-06
1.28596e-05
4.20597e-06
1.29127e-05
4.07309e-06
1.29567e-05
3.92044e-06
1.29906e-05
3.74647e-06
1.30133e-05
3.54945e-06
1.30237e-05
3.32751e-06
1.30205e-05
3.07865e-06
1.30025e-05
2.80067e-06
1.29682e-05
2.49117e-06
1.29162e-05
2.14758e-06
1.28452e-05
1.76713e-06
1.27563e-05
1.31556e-06
1.26531e-05
8.43237e-07
1.25372e-05
4.05973e-07
1.241e-05
2.24834e-09
1.22728e-05
-3.68919e-07
1.2126e-05
-7.09201e-07
1.19703e-05
-1.02195e-06
1.18065e-05
-1.30927e-06
1.16355e-05
-1.57247e-06
1.14579e-05
-1.81275e-06
1.12745e-05
-2.03125e-06
1.10859e-05
-2.22908e-06
1.08926e-05
-2.40728e-06
1.06953e-05
-2.56689e-06
1.04944e-05
-2.7089e-06
1.02906e-05
-2.83425e-06
1.00843e-05
-2.94386e-06
9.87614e-06
-3.03859e-06
9.66697e-06
-3.11914e-06
9.45802e-06
-3.18591e-06
9.25035e-06
-3.23911e-06
9.04406e-06
-3.28004e-06
8.83882e-06
-3.31056e-06
8.63442e-06
-3.33184e-06
8.43073e-06
-3.34481e-06
8.2277e-06
-3.35044e-06
8.02538e-06
-3.34975e-06
7.82391e-06
-3.34373e-06
7.6235e-06
-3.33335e-06
-3.31952e-06
-7.74213e-09
-3.28115e-07
-2.62162e-08
-2.00192e-07
-4.56137e-08
-2.22328e-07
-6.36568e-08
-2.3361e-07
-8.06299e-08
-2.40873e-07
-9.66717e-08
-2.47162e-07
-1.11701e-07
-2.53083e-07
-1.2537e-07
-2.58689e-07
-1.36893e-07
-2.63821e-07
-1.44789e-07
-2.68119e-07
-1.46744e-07
-2.70954e-07
-1.39629e-07
-2.7138e-07
-1.19544e-07
-2.68131e-07
-8.19682e-08
-2.59638e-07
-2.20279e-08
-2.44115e-07
6.51733e-08
-2.19663e-07
1.84768e-07
-1.84424e-07
3.42777e-07
-1.36815e-07
5.47276e-07
-7.54558e-08
8.09273e-07
1.83197e-09
1.14063e-06
9.73468e-08
1.55051e-06
2.14283e-07
2.04128e-06
3.56208e-07
2.6067e-06
5.25161e-07
3.23304e-06
7.20783e-07
3.90182e-06
9.39703e-07
4.59168e-06
1.177e-06
5.28136e-06
1.42661e-06
5.95159e-06
1.68204e-06
6.58682e-06
1.93666e-06
7.17588e-06
2.18485e-06
7.71245e-06
2.42211e-06
8.19564e-06
2.64489e-06
8.62752e-06
2.8515e-06
9.01113e-06
3.04213e-06
9.3502e-06
3.21776e-06
9.64945e-06
3.3786e-06
9.91373e-06
3.5256e-06
1.01479e-05
3.65965e-06
1.03569e-05
3.78162e-06
1.05452e-05
3.8924e-06
1.0717e-05
3.99293e-06
1.0876e-05
4.08417e-06
1.10252e-05
4.16695e-06
1.11668e-05
4.24196e-06
1.13027e-05
4.30972e-06
1.14343e-05
4.37058e-06
1.15625e-05
4.42472e-06
1.1688e-05
4.4722e-06
1.18112e-05
4.51296e-06
1.19325e-05
4.54682e-06
1.20518e-05
4.57351e-06
1.21693e-05
4.59269e-06
1.22846e-05
4.60392e-06
1.23977e-05
4.6067e-06
1.25082e-05
4.60048e-06
1.26157e-05
4.5846e-06
1.27199e-05
4.55836e-06
1.28201e-05
4.521e-06
1.29158e-05
4.47167e-06
1.30064e-05
4.40946e-06
1.30912e-05
4.33336e-06
1.31695e-05
4.24232e-06
1.32403e-05
4.13516e-06
1.33028e-05
4.01062e-06
1.33559e-05
3.86734e-06
1.33985e-05
3.70382e-06
1.34295e-05
3.51842e-06
1.34477e-05
3.30939e-06
1.34515e-05
3.07481e-06
1.34396e-05
2.81256e-06
1.34104e-05
2.52035e-06
1.33623e-05
2.19568e-06
1.32936e-05
1.83583e-06
1.32054e-05
1.40375e-06
1.31012e-05
9.47513e-07
1.29825e-05
5.24614e-07
1.28512e-05
1.33556e-07
1.27087e-05
-2.26447e-07
1.25558e-05
-5.56253e-07
1.23927e-05
-8.5891e-07
1.22204e-05
-1.13689e-06
1.20395e-05
-1.39163e-06
1.1851e-05
-1.62425e-06
1.16556e-05
-1.83585e-06
1.1454e-05
-2.02746e-06
1.12468e-05
-2.20012e-06
1.10348e-05
-2.35487e-06
1.08186e-05
-2.49274e-06
1.05991e-05
-2.61474e-06
1.03771e-05
-2.72181e-06
1.01533e-05
-2.8148e-06
9.92852e-06
-2.89439e-06
9.7037e-06
-2.96109e-06
9.47975e-06
-3.01516e-06
9.25705e-06
-3.05734e-06
9.03533e-06
-3.08884e-06
8.81424e-06
-3.11076e-06
8.59366e-06
-3.12423e-06
8.37358e-06
-3.13036e-06
8.15413e-06
-3.1303e-06
7.93555e-06
-3.12515e-06
7.71819e-06
-3.11599e-06
7.50247e-06
-3.10379e-06
-3.08943e-06
-7.02736e-09
-3.21086e-07
-2.3025e-08
-1.84183e-07
-3.96151e-08
-2.05735e-07
-5.47058e-08
-2.18516e-07
-6.87065e-08
-2.26872e-07
-8.19154e-08
-2.33953e-07
-9.44729e-08
-2.40523e-07
-1.06392e-07
-2.46768e-07
-1.17518e-07
-2.52693e-07
-1.27432e-07
-2.58206e-07
-1.3528e-07
-2.63106e-07
-1.3963e-07
-2.67029e-07
-1.38354e-07
-2.69405e-07
-1.28555e-07
-2.69436e-07
-1.06579e-07
-2.66089e-07
-6.81643e-08
-2.58079e-07
-8.71754e-09
-2.43872e-07
7.62762e-08
-2.21808e-07
1.91064e-07
-1.90241e-07
3.4059e-07
-1.47692e-07
5.30922e-07
-9.29842e-08
7.69838e-07
-2.46325e-08
1.06687e-06
5.91804e-08
1.43152e-06
1.60501e-07
1.86979e-06
2.82513e-07
2.38163e-06
4.27868e-07
2.96032e-06
5.98312e-07
3.59346e-06
7.93463e-07
4.26486e-06
1.01065e-06
4.95541e-06
1.24611e-06
5.64552e-06
1.49475e-06
6.31699e-06
1.75064e-06
6.95487e-06
2.00701e-06
7.54841e-06
2.25796e-06
8.09203e-06
2.49851e-06
8.58506e-06
2.72472e-06
9.02874e-06
2.93492e-06
9.42489e-06
3.12945e-06
9.77674e-06
3.30781e-06
1.00884e-05
3.46993e-06
1.03645e-05
3.61632e-06
1.06098e-05
3.7476e-06
1.08294e-05
3.86464e-06
1.10279e-05
3.96846e-06
1.12096e-05
4.06023e-06
1.13782e-05
4.14109e-06
1.15367e-05
4.21205e-06
1.16875e-05
4.27394e-06
1.18323e-05
4.32739e-06
1.19725e-05
4.37281e-06
1.21089e-05
4.41043e-06
1.22421e-05
4.4403e-06
1.23725e-05
4.46232e-06
1.25001e-05
4.47627e-06
1.2625e-05
4.4818e-06
1.2747e-05
4.47848e-06
1.28658e-05
4.46578e-06
1.29811e-05
4.4431e-06
1.30923e-05
4.40974e-06
1.3199e-05
4.36496e-06
1.33006e-05
4.30792e-06
1.33962e-05
4.2377e-06
1.34853e-05
4.15331e-06
1.35667e-05
4.05368e-06
1.36397e-05
3.93766e-06
1.37031e-05
3.80397e-06
1.37557e-05
3.6512e-06
1.37963e-05
3.47784e-06
1.38234e-05
3.28224e-06
1.38356e-05
3.06261e-06
1.38312e-05
2.81695e-06
1.38085e-05
2.54308e-06
1.37656e-05
2.23861e-06
1.37005e-05
1.9009e-06
1.36141e-05
1.49018e-06
1.35096e-05
1.05201e-06
1.33888e-05
6.4541e-07
1.32535e-05
2.68805e-07
1.31058e-05
-7.86726e-08
1.29468e-05
-3.97274e-07
1.27766e-05
-6.88762e-07
1.25958e-05
-9.56038e-07
1.24051e-05
-1.20094e-06
1.22055e-05
-1.42461e-06
1.19977e-05
-1.62808e-06
1.17826e-05
-1.81238e-06
1.15611e-05
-1.97857e-06
1.1334e-05
-2.12777e-06
1.11024e-05
-2.26113e-06
1.08673e-05
-2.37969e-06
1.06299e-05
-2.48438e-06
1.03911e-05
-2.57601e-06
1.01517e-05
-2.65499e-06
9.91218e-06
-2.72155e-06
9.67286e-06
-2.77584e-06
9.43367e-06
-2.81815e-06
9.19445e-06
-2.84962e-06
8.95519e-06
-2.8715e-06
8.71597e-06
-2.88501e-06
8.477e-06
-2.8914e-06
8.23862e-06
-2.89191e-06
8.00125e-06
-2.88779e-06
7.76543e-06
-2.88017e-06
7.53175e-06
-2.87011e-06
7.30083e-06
-2.85851e-06
7.07329e-06
-2.84611e-06
-2.83348e-06
-5.66927e-09
-3.1543e-07
-1.81211e-08
-1.71729e-07
-3.03916e-08
-1.93478e-07
-4.12219e-08
-2.0769e-07
-5.10396e-08
-2.17053e-07
-6.0142e-08
-2.24852e-07
-6.86752e-08
-2.31992e-07
-7.67015e-08
-2.38744e-07
-8.42106e-08
-2.45186e-07
-9.1102e-08
-2.51316e-07
-9.71303e-08
-2.57078e-07
-1.018e-07
-2.62359e-07
-1.04244e-07
-2.66963e-07
-1.03116e-07
-2.70565e-07
-9.65204e-08
-2.72686e-07
-8.19206e-08
-2.72679e-07
-5.6091e-08
-2.697e-07
-1.51918e-08
-2.62706e-07
4.49865e-08
-2.5042e-07
1.28686e-07
-2.31393e-07
2.39806e-07
-2.04105e-07
3.82242e-07
-1.67069e-07
5.60445e-07
-1.19021e-07
7.79813e-07
-5.88664e-08
1.04723e-06
1.51002e-08
1.37057e-06
1.04525e-07
1.75759e-06
2.11292e-07
2.21263e-06
3.38423e-07
2.73488e-06
4.88396e-07
3.31809e-06
6.62902e-07
3.95114e-06
8.61694e-07
4.6193e-06
1.08249e-06
5.30459e-06
1.32171e-06
5.98831e-06
1.57424e-06
6.65331e-06
1.8335e-06
7.28568e-06
2.09235e-06
7.87595e-06
2.34465e-06
8.42052e-06
2.58487e-06
8.91856e-06
2.80978e-06
9.37e-06
3.01848e-06
9.77619e-06
3.21013e-06
1.01399e-05
3.38391e-06
1.04646e-05
3.53992e-06
1.07545e-05
3.67854e-06
1.10142e-05
3.80051e-06
1.12485e-05
3.90687e-06
1.14617e-05
3.99884e-06
1.16579e-05
4.07771e-06
1.18406e-05
4.1447e-06
1.20126e-05
4.20083e-06
1.2176e-05
4.24696e-06
1.23327e-05
4.28367e-06
1.24837e-05
4.31133e-06
1.26298e-05
4.33011e-06
1.27716e-05
4.33999e-06
1.29093e-05
4.34078e-06
1.3043e-05
4.33216e-06
1.31724e-05
4.3137e-06
1.32972e-05
4.28486e-06
1.34172e-05
4.24502e-06
1.35316e-05
4.19346e-06
1.364e-05
4.12937e-06
1.37414e-05
4.05182e-06
1.38352e-05
3.9599e-06
1.39203e-05
3.85263e-06
1.39954e-05
3.72881e-06
1.40595e-05
3.58714e-06
1.41111e-05
3.42621e-06
1.41488e-05
3.24454e-06
1.41709e-05
3.04052e-06
1.41756e-05
2.81228e-06
1.41609e-05
2.5578e-06
1.41246e-05
2.27481e-06
1.40647e-05
1.96085e-06
1.39814e-05
1.5735e-06
1.38778e-05
1.15564e-06
1.37555e-05
7.67625e-07
1.36166e-05
4.07778e-07
1.3463e-05
7.49053e-08
1.3297e-05
-2.31266e-07
1.31192e-05
-5.11019e-07
1.29299e-05
-7.6666e-07
1.27293e-05
-1.00039e-06
1.25183e-05
-1.21364e-06
1.2298e-05
-1.40773e-06
1.20694e-05
-1.58381e-06
1.18338e-05
-1.74292e-06
1.15922e-05
-1.88623e-06
1.13462e-05
-2.01511e-06
1.10969e-05
-2.13041e-06
1.08453e-05
-2.23281e-06
1.05922e-05
-2.32289e-06
1.03381e-05
-2.40082e-06
1.00828e-05
-2.46626e-06
9.826e-06
-2.51908e-06
9.56787e-06
-2.56002e-06
9.30872e-06
-2.59047e-06
9.04891e-06
-2.61168e-06
8.78885e-06
-2.62495e-06
8.52905e-06
-2.63159e-06
8.27008e-06
-2.63294e-06
8.01259e-06
-2.6303e-06
7.75731e-06
-2.62488e-06
7.50497e-06
-2.61777e-06
7.25633e-06
-2.60987e-06
7.01211e-06
-2.60189e-06
6.77297e-06
-2.59434e-06
-2.58753e-06
-4.38016e-09
-3.11053e-07
-1.32152e-08
-1.6289e-07
-2.11874e-08
-1.85511e-07
-2.7951e-08
-2.00927e-07
-3.39281e-08
-2.11078e-07
-3.93529e-08
-2.19428e-07
-4.43424e-08
-2.27003e-07
-4.8945e-08
-2.34142e-07
-5.31591e-08
-2.40973e-07
-5.69318e-08
-2.47543e-07
-6.01559e-08
-2.53854e-07
-6.2653e-08
-2.59862e-07
-6.41125e-08
-2.65504e-07
-6.40074e-08
-2.70671e-07
-6.15129e-08
-2.75181e-07
-5.54386e-08
-2.78753e-07
-4.41476e-08
-2.80991e-07
-2.54771e-08
-2.81377e-07
3.34288e-09
-2.7924e-07
4.56777e-08
-2.7373e-07
1.05337e-07
-2.63767e-07
1.86325e-07
-2.48057e-07
2.92445e-07
-2.2514e-07
4.27059e-07
-1.9348e-07
5.93731e-07
-1.51572e-07
7.96415e-07
-9.81593e-08
1.03979e-06
-3.20808e-08
1.32967e-06
4.85413e-08
1.67261e-06
1.45451e-07
2.07513e-06
2.60389e-07
2.54081e-06
3.96007e-07
3.06867e-06
5.54633e-07
3.65265e-06
7.37732e-07
4.28211e-06
9.44777e-07
4.94269e-06
1.17292e-06
5.61727e-06
1.41777e-06
6.2883e-06
1.67363e-06
6.94034e-06
1.93283e-06
7.56168e-06
2.18844e-06
8.14578e-06
2.43438e-06
8.68971e-06
2.66621e-06
9.19168e-06
2.88194e-06
9.651e-06
3.0806e-06
1.00686e-05
3.26096e-06
1.04463e-05
3.42276e-06
1.07871e-05
3.56609e-06
1.10945e-05
3.69143e-06
1.13726e-05
3.79962e-06
1.16256e-05
3.89174e-06
1.18574e-05
3.96904e-06
1.20716e-05
4.03272e-06
1.22714e-05
4.08389e-06
1.24592e-05
4.12347e-06
1.26372e-05
4.15215e-06
1.28068e-05
4.17039e-06
1.29691e-05
4.17845e-06
1.31249e-05
4.17638e-06
1.32745e-05
4.16407e-06
1.34182e-05
4.14125e-06
1.35557e-05
4.10751e-06
1.36868e-05
4.06236e-06
1.38109e-05
4.00519e-06
1.39278e-05
3.93497e-06
1.40365e-05
3.85118e-06
1.4136e-05
3.75313e-06
1.42252e-05
3.63968e-06
1.43028e-05
3.50954e-06
1.43675e-05
3.36147e-06
1.44178e-05
3.19427e-06
1.44517e-05
3.00656e-06
1.44673e-05
2.79664e-06
1.44625e-05
2.56263e-06
1.44349e-05
2.30246e-06
1.43818e-05
2.01388e-06
1.43033e-05
1.65202e-06
1.42021e-05
1.25689e-06
1.40797e-05
8.89997e-07
1.39379e-05
5.49617e-07
1.37784e-05
2.34341e-07
1.36039e-05
-5.67069e-08
1.34165e-05
-3.23697e-07
1.32172e-05
-5.673e-07
1.3006e-05
-7.89215e-07
1.27838e-05
-9.91456e-07
1.25519e-05
-1.17577e-06
1.23115e-05
-1.34343e-06
1.20639e-05
-1.49538e-06
1.18104e-05
-1.63266e-06
1.15518e-05
-1.7565e-06
1.12889e-05
-1.86759e-06
1.10225e-05
-1.96638e-06
1.07527e-05
-2.05305e-06
1.04796e-05
-2.12777e-06
1.02038e-05
-2.19044e-06
9.92555e-06
-2.24083e-06
9.64533e-06
-2.2798e-06
9.36376e-06
-2.3089e-06
9.0815e-06
-2.32943e-06
8.79922e-06
-2.34267e-06
8.51761e-06
-2.34999e-06
8.23746e-06
-2.35279e-06
7.95961e-06
-2.35245e-06
7.68495e-06
-2.35022e-06
7.41434e-06
-2.34717e-06
7.14864e-06
-2.34418e-06
6.88863e-06
-2.34188e-06
6.63498e-06
-2.34069e-06
6.38826e-06
-2.34082e-06
6.14895e-06
-2.3423e-06
-2.34504e-06
-3.39928e-09
-3.07652e-07
-9.1618e-09
-1.57132e-07
-1.34496e-08
-1.81228e-07
-1.69139e-08
-1.97471e-07
-1.98193e-08
-2.08181e-07
-2.23291e-08
-2.16919e-07
-2.45333e-08
-2.24798e-07
-2.64664e-08
-2.32208e-07
-2.81233e-08
-2.39317e-07
-2.94737e-08
-2.46194e-07
-3.04595e-08
-2.52869e-07
-3.09806e-08
-2.59342e-07
-3.08939e-08
-2.65591e-07
-2.99886e-08
-2.71576e-07
-2.79404e-08
-2.7723e-07
-2.42453e-08
-2.82449e-07
-1.81646e-08
-2.87073e-07
-8.68345e-09
-2.90859e-07
5.55501e-09
-2.9348e-07
2.63374e-08
-2.94512e-07
5.59808e-08
-2.9341e-07
9.7383e-08
-2.89459e-07
1.53967e-07
-2.81725e-07
2.29509e-07
-2.69023e-07
3.27874e-07
-2.49937e-07
4.52601e-07
-2.22886e-07
6.06731e-07
-1.8621e-07
7.93541e-07
-1.38269e-07
1.01666e-06
-7.76703e-08
1.28024e-06
-3.1858e-09
1.58917e-06
8.7073e-08
1.94884e-06
1.94963e-07
2.3647e-06
3.21872e-07
2.83971e-06
4.69763e-07
3.37234e-06
6.40295e-07
3.95608e-06
8.34034e-07
4.58006e-06
1.04966e-06
5.22976e-06
1.28312e-06
5.88943e-06
1.52877e-06
6.54384e-06
1.77997e-06
7.1802e-06
2.02984e-06
7.78988e-06
2.27226e-06
8.36826e-06
2.50222e-06
8.91201e-06
2.71721e-06
9.41861e-06
2.91616e-06
9.88675e-06
3.09795e-06
1.03166e-05
3.26162e-06
1.07094e-05
3.40678e-06
1.10676e-05
3.53358e-06
1.1394e-05
3.64256e-06
1.16922e-05
3.73455e-06
1.19655e-05
3.81055e-06
1.22174e-05
3.87161e-06
1.24509e-05
3.9187e-06
1.26686e-05
3.95269e-06
1.28727e-05
3.97427e-06
1.30652e-05
3.98394e-06
1.32472e-05
3.98203e-06
1.34198e-05
3.96866e-06
1.35835e-05
3.94381e-06
1.37386e-05
3.90731e-06
1.38848e-05
3.85892e-06
1.40229e-05
3.79693e-06
1.41513e-05
3.72274e-06
1.42692e-05
3.63524e-06
1.43758e-05
3.53303e-06
1.44702e-05
3.41515e-06
1.45512e-05
3.28052e-06
1.4617e-05
3.12849e-06
1.46655e-05
2.958e-06
1.46947e-05
2.76747e-06
1.47022e-05
2.55516e-06
1.46854e-05
2.31922e-06
1.46416e-05
2.05772e-06
1.457e-05
1.72358e-06
1.44732e-05
1.35367e-06
1.43528e-05
1.01045e-06
1.42102e-05
6.9222e-07
1.4047e-05
3.97474e-07
1.38653e-05
1.25038e-07
1.36675e-05
-1.25857e-07
1.34559e-05
-3.55782e-07
1.32327e-05
-5.65922e-07
1.29989e-05
-7.57746e-07
1.27557e-05
-9.32542e-07
1.25039e-05
-1.09162e-06
1.22447e-05
-1.23618e-06
1.19789e-05
-1.36687e-06
1.17064e-05
-1.484e-06
1.14273e-05
-1.58847e-06
1.11419e-05
-1.68105e-06
1.08509e-05
-1.76204e-06
1.05549e-05
-1.83177e-06
1.02551e-05
-1.89059e-06
9.95283e-06
-1.93858e-06
9.6491e-06
-1.97607e-06
9.34446e-06
-2.00426e-06
9.03958e-06
-2.02454e-06
8.73523e-06
-2.03832e-06
8.4323e-06
-2.04705e-06
8.13175e-06
-2.05224e-06
7.83459e-06
-2.05529e-06
7.54186e-06
-2.05748e-06
7.25453e-06
-2.05984e-06
6.97351e-06
-2.06316e-06
6.69961e-06
-2.06798e-06
6.43349e-06
-2.07456e-06
6.17566e-06
-2.08299e-06
5.92653e-06
-2.09317e-06
5.68635e-06
-2.10486e-06
5.45527e-06
-2.11776e-06
5.23333e-06
-2.13153e-06
5.02052e-06
-2.14577e-06
-2.16013e-06
-2.69662e-09
-3.04959e-07
-6.03324e-09
-1.53797e-07
-7.59662e-09
-1.7967e-07
-8.59097e-09
-1.96482e-07
-9.21619e-09
-2.07558e-07
-9.5878e-09
-2.16547e-07
-9.75881e-09
-2.24627e-07
-9.74375e-09
-2.32224e-07
-9.531e-09
-2.39531e-07
-9.09534e-09
-2.46631e-07
-8.39828e-09
-2.53567e-07
-7.37945e-09
-2.60361e-07
-5.95927e-09
-2.67012e-07
-4.03249e-09
-2.73504e-07
-1.45693e-09
-2.79806e-07
1.96772e-09
-2.85875e-07
6.53745e-09
-2.91644e-07
1.26932e-08
-2.97016e-07
2.10576e-08
-3.01844e-07
3.24648e-08
-3.05919e-07
4.80144e-08
-3.08959e-07
6.91611e-08
-3.10607e-07
9.78317e-08
-3.10397e-07
1.36516e-07
-3.0771e-07
1.88282e-07
-3.01705e-07
2.56678e-07
-2.91282e-07
3.45534e-07
-2.75065e-07
4.58698e-07
-2.51432e-07
5.99642e-07
-2.18615e-07
7.71262e-07
-1.74806e-07
9.76592e-07
-1.18257e-07
1.21907e-06
-4.75179e-08
1.50246e-06
3.84847e-08
1.83089e-06
1.41329e-07
2.2085e-06
2.62684e-07
2.63899e-06
4.0354e-07
3.12419e-06
5.64461e-07
3.66153e-06
7.45783e-07
4.24359e-06
9.4671e-07
4.85882e-06
1.16474e-06
5.49348e-06
1.39518e-06
6.13401e-06
1.63173e-06
6.76841e-06
1.86781e-06
7.38772e-06
2.09791e-06
7.9859e-06
2.31798e-06
8.55782e-06
2.52602e-06
9.09946e-06
2.71998e-06
9.60816e-06
2.89808e-06
1.00826e-05
3.05915e-06
1.05226e-05
3.20257e-06
1.0929e-05
3.32817e-06
1.13034e-05
3.43613e-06
1.16481e-05
3.5269e-06
1.19657e-05
3.60113e-06
1.22588e-05
3.65956e-06
1.25301e-05