/*--------------------------------*- C++ -*----------------------------------*\
  =========                 |
  \\      /  F ield         | OpenFOAM: The Open Source CFD Toolbox
   \\    /   O peration     | Website:  https://openfoam.org
    \\  /    A nd           | Version:  10
     \\/     M anipulation  |
\*---------------------------------------------------------------------------*/
FoamFile
{
    format      ascii;
    class       volVectorField;
    location    "70000";
    object      U;
}
// * * * * * * * * * * * * * * * * * * * * * * * * * * * * * * * * * * * * * //

dimensions      [0 1 -1 0 0 0 0];

internalField   nonuniform List<vector> 
17969
(
(0.102159 1.52779 0)
(-0.0382154 1.5668 0)
(-0.0199177 1.59217 -4.35277e-18)
(-0.0164379 1.61966 5.49165e-18)
(-0.01167 1.6515 -2.12177e-18)
(-0.00312555 1.69157 -1.90098e-18)
(0.0107357 1.74628 1.70674e-18)
(0.031427 1.82055 0)
(0.0579556 1.91111 7.91016e-20)
(0.0886051 2.00945 0)
(0.121106 2.10642 0)
(0.153132 2.19493 0)
(0.182903 2.27102 0)
(0.209102 2.33325 -5.29215e-19)
(0.231001 2.38214 4.95977e-19)
(0.24887 2.42003 0)
(0.263161 2.4494 -3.83281e-19)
(0.274292 2.4724 3.52032e-19)
(0.282935 2.49086 -3.20844e-19)
(0.289716 2.5061 2.94731e-19)
(0.295109 2.51912 0)
(0.299509 2.5306 0)
(0.303195 2.54105 -2.82032e-20)
(0.306401 2.55078 0)
(0.309276 2.55999 0)
(0.311918 2.56881 1.75369e-19)
(0.314397 2.57733 -3.26246e-19)
(0.31675 2.58561 1.52382e-19)
(0.318999 2.5937 1.41662e-19)
(0.321155 2.60163 -1.75482e-20)
(0.323222 2.60943 -1.57596e-19)
(0.325201 2.61713 0)
(0.32709 2.62474 1.12301e-19)
(0.328885 2.63227 -2.41204e-19)
(0.330582 2.63975 7.74793e-22)
(0.332175 2.64717 1.95279e-19)
(0.333661 2.65456 -9.38724e-20)
(0.335034 2.66192 -1.11773e-19)
(0.33629 2.66926 6.49486e-20)
(0.337424 2.67658 0)
(0.338431 2.68391 2.00212e-20)
(0.339309 2.69124 1.93126e-20)
(0.340051 2.6986 1.48005e-19)
(0.340656 2.70598 -1.44552e-19)
(0.341119 2.7134 -1.38287e-19)
(0.341435 2.72086 -3.21818e-20)
(0.341603 2.72838 1.31159e-19)
(0.341616 2.73597 1.25536e-19)
(0.341472 2.74364 -1.61827e-21)
(0.341166 2.7514 -1.19627e-19)
(0.340693 2.75926 -1.43366e-19)
(0.340048 2.76722 1.40797e-19)
(0.339227 2.7753 0)
(0.338224 2.78351 0)
(0.337033 2.79186 2.57003e-20)
(0.335648 2.80035 1.48489e-19)
(0.334062 2.809 -9.7509e-20)
(0.332269 2.81781 0)
(0.330261 2.8268 0)
(0.328031 2.83597 4.30549e-20)
(0.325572 2.84532 -8.68192e-20)
(0.322874 2.85488 0)
(0.31993 2.86463 0)
(0.316731 2.8746 -3.93451e-20)
(0.313269 2.88478 -7.48047e-20)
(0.309534 2.89518 3.91764e-20)
(0.30552 2.90581 7.22896e-20)
(0.301216 2.91667 0)
(0.296614 2.92777 0)
(0.291708 2.9391 0)
(0.286489 2.95067 6.05546e-20)
(0.280951 2.96248 -4.39096e-21)
(0.275087 2.97455 -1.17302e-19)
(0.268891 2.98687 0)
(0.262453 2.99927 5.21428e-20)
(0.255966 3.01141 4.89715e-20)
(0.24954 3.02315 -4.55294e-20)
(0.24318 3.0345 0)
(0.236907 3.04551 0)
(0.230726 3.05613 0)
(0.224628 3.06633 0)
(0.218636 3.07612 0)
(0.212755 3.08552 5.52885e-20)
(0.20698 3.09456 -9.24329e-20)
(0.201309 3.10325 6.27375e-20)
(0.195737 3.11162 -1.11982e-20)
(0.190264 3.11968 0)
(0.184907 3.12751 0)
(0.179699 3.13524 0)
(0.174681 3.14303 -1.92554e-20)
(0.169848 3.15092 2.56347e-20)
(0.165136 3.15879 1.97892e-20)
(0.160512 3.16655 -1.9554e-20)
(0.155966 3.17419 1.43137e-20)
(0.151498 3.18171 -2.75694e-20)
(0.147103 3.18911 1.0288e-20)
(0.142779 3.19636 0)
(0.138524 3.20345 -4.90905e-21)
(0.134336 3.21037 4.83591e-21)
(0.130213 3.2171 2.56533e-22)
(0.0763487 1.53515 0)
(-0.0797351 1.57302 -1.97214e-17)
(-0.057832 1.58565 1.07812e-17)
(-0.0566667 1.60193 2.00053e-19)
(-0.0551736 1.62073 9.08086e-18)
(-0.0520557 1.64318 -1.50505e-17)
(-0.0464968 1.67123 6.88762e-18)
(-0.037848 1.7069 6.32519e-18)
(-0.0249167 1.75398 -6.05878e-18)
(-0.0063848 1.81627 -5.56249e-18)
(0.0175139 1.89259 1.09127e-20)
(0.0457544 1.97806 3.99455e-18)
(0.0767467 2.06643 0)
(0.108566 2.15193 0)
(0.139314 2.23002 -2.49764e-18)
(0.167584 2.29795 2.19802e-18)
(0.192248 2.35441 0)
(0.212832 2.3998 -1.65422e-18)
(0.229699 2.43588 1.5658e-18)
(0.243222 2.4645 0)
(0.253833 2.48736 -1.2894e-18)
(0.262138 2.5059 1.12227e-18)
(0.268678 2.52124 3.44108e-20)
(0.273904 2.53427 0)
(0.278169 2.54569 9.37182e-19)
(0.281753 2.55603 -5.8973e-20)
(0.284861 2.56564 -1.60394e-18)
(0.287639 2.57475 7.45046e-19)
(0.29018 2.58353 -4.32204e-20)
(0.292544 2.59207 6.60865e-19)
(0.294764 2.60044 -5.6524e-19)
(0.296857 2.60868 0)
(0.298829 2.61681 4.61704e-19)
(0.300684 2.62486 -4.08029e-19)
(0.302419 2.63285 0)
(0.304032 2.64078 5.62816e-20)
(0.30552 2.64867 -5.35469e-20)
(0.306879 2.65652 -3.80315e-19)
(0.308106 2.66435 8.02889e-19)
(0.309197 2.67216 -5.00925e-20)
(0.310149 2.67997 -3.8137e-19)
(0.31096 2.68777 -4.06013e-19)
(0.311624 2.69559 6.60281e-19)
(0.312141 2.70342 -7.15536e-19)
(0.312506 2.71129 6.1294e-19)
(0.312715 2.7192 -2.60576e-19)
(0.312766 2.72715 2.83908e-19)
(0.312654 2.73517 -6.21386e-19)
(0.312374 2.74326 5.34037e-19)
(0.311922 2.75143 -5.16833e-19)
(0.311293 2.7597 2.20397e-19)
(0.310481 2.76807 -3.01969e-20)
(0.30948 2.77656 0)
(0.308283 2.78517 0)
(0.306883 2.79392 -2.74942e-20)
(0.305273 2.80282 -5.33179e-20)
(0.303446 2.81187 2.05659e-19)
(0.301391 2.82109 -3.0442e-19)
(0.299101 2.83049 -3.8649e-19)
(0.296566 2.84006 5.53699e-20)
(0.293776 2.84983 3.71369e-19)
(0.290722 2.8598 4.41018e-19)
(0.287392 2.86998 -4.35929e-19)
(0.283777 2.88037 4.15698e-20)
(0.279864 2.89097 0)
(0.275644 2.9018 3.97376e-20)
(0.271106 2.91286 2.97904e-19)
(0.266238 2.92415 -2.97594e-19)
(0.261029 2.93568 -1.42091e-19)
(0.25547 2.94744 -1.30168e-19)
(0.24955 2.95945 2.68147e-19)
(0.24326 2.9717 1.90045e-19)
(0.236592 2.98419 2.37108e-19)
(0.229537 2.99693 -2.38151e-19)
(0.222195 3.00975 -5.46293e-20)
(0.214786 3.02228 -5.13447e-20)
(0.207437 3.03439 4.78763e-20)
(0.200156 3.04609 8.97206e-20)
(0.19297 3.05745 2.4274e-19)
(0.185881 3.0684 -9.84513e-21)
(0.178878 3.0789 -1.48237e-19)
(0.17199 3.08898 -3.36832e-20)
(0.165221 3.09866 0)
(0.158569 3.10798 1.46905e-20)
(0.152035 3.11695 -1.30143e-20)
(0.145616 3.12561 1.19029e-20)
(0.139306 3.13396 0)
(0.133105 3.14204 0)
(0.127021 3.1499 -1.33851e-19)
(0.121084 3.15766 5.39105e-21)
(0.115328 3.1655 1.13127e-19)
(0.109772 3.17349 0)
(0.104353 3.18152 0)
(0.0990224 3.18944 6.26614e-20)
(0.0937822 3.19725 -1.11963e-19)
(0.0886299 3.20493 5.5541e-20)
(0.0835637 3.21248 0)
(0.0785819 3.21987 0)
(0.073683 3.22711 -1.25077e-20)
(0.0688664 3.23415 7.12598e-21)
(0.0494763 1.53937 4.13374e-17)
(-0.117905 1.57643 -4.90117e-17)
(-0.0916807 1.58035 5.94051e-17)
(-0.0910042 1.58986 -1.73722e-17)
(-0.0905513 1.60214 3.39938e-19)
(-0.0891747 1.61671 0)
(-0.0868065 1.63442 2.32904e-19)
(-0.0831739 1.65639 0)
(-0.0776088 1.68339 0)
(-0.0695608 1.71614 3.6074e-19)
(-0.0581105 1.75698 1.67664e-19)
(-0.0422018 1.809 0)
(-0.0215148 1.87327 0)
(0.00345676 1.948 2.40651e-19)
(0.0317268 2.0292 -3.31358e-18)
(0.0618311 2.11192 2.59302e-18)
(0.0920789 2.19133 -2.31006e-18)
(0.120891 2.2635 2.15053e-18)
(0.147242 2.32605 -5.84682e-20)
(0.170101 2.37794 -1.75891e-18)
(0.189399 2.42001 1.41571e-18)
(0.205528 2.45386 1.74211e-19)
(0.218693 2.48096 8.1107e-20)
(0.229252 2.50282 0)
(0.237774 2.52071 0)
(0.24465 2.53563 1.10553e-18)
(0.25026 2.54844 -8.5116e-19)
(0.254912 2.55979 -1.12974e-19)
(0.258844 2.57016 -6.78598e-19)
(0.262234 2.5799 7.82474e-19)
(0.265215 2.58922 0)
(0.267877 2.59828 0)
(0.27028 2.60715 7.9111e-20)
(0.272462 2.61588 1.11106e-18)
(0.274445 2.62452 -2.23609e-18)
(0.276243 2.63307 9.92019e-19)
(0.277863 2.64156 6.20689e-20)
(0.279311 2.65 -1.18203e-19)
(0.28059 2.65839 1.12236e-19)
(0.281702 2.66674 5.31093e-20)
(0.282648 2.67507 0)
(0.28343 2.68339 4.83755e-20)
(0.284046 2.6917 9.31393e-20)
(0.284499 2.70002 -6.19566e-19)
(0.284785 2.70835 7.45703e-21)
(0.284903 2.71671 7.43136e-19)
(0.284852 2.72511 0)
(0.284627 2.73357 -5.09343e-22)
(0.284226 2.74209 -1.47348e-19)
(0.283643 2.75069 0)
(0.282873 2.75937 6.8182e-20)
(0.281909 2.76816 -5.25044e-19)
(0.280745 2.77707 5.15333e-19)
(0.279374 2.78609 0)
(0.277786 2.79526 1.20167e-19)
(0.275974 2.80457 0)
(0.273926 2.81404 -1.12638e-19)
(0.271635 2.82369 -4.31092e-19)
(0.269087 2.8335 4.24938e-19)
(0.266273 2.84351 1.02316e-19)
(0.263181 2.85371 0)
(0.259797 2.86412 -4.72355e-19)
(0.25611 2.87474 1.01704e-18)
(0.252107 2.88557 -9.52747e-21)
(0.247773 2.89663 -1.83703e-19)
(0.243097 2.90792 -9.32109e-20)
(0.238063 2.91944 -6.46574e-19)
(0.232658 2.9312 1.05568e-20)
(0.226868 2.94319 6.08043e-19)
(0.220681 2.95543 1.76056e-21)
(0.214084 2.96791 0)
(0.207064 2.98063 3.92597e-19)
(0.199609 2.99359 1.05432e-19)
(0.19171 3.0068 -5.0671e-19)
(0.183475 3.02006 0)
(0.175152 3.03302 0)
(0.166883 3.04553 -1.03929e-19)
(0.158678 3.05762 2.7552e-19)
(0.150574 3.06934 -7.94826e-19)
(0.14257 3.08065 6.61053e-19)
(0.134653 3.09149 -3.97657e-19)
(0.126856 3.1019 -2.43025e-19)
(0.119181 3.11189 2.77722e-19)
(0.111629 3.12151 -2.69667e-19)
(0.104203 3.13078 4.57015e-19)
(0.0969022 3.13974 -2.17899e-19)
(0.0897256 3.1484 1.82592e-19)
(0.0826681 3.1568 -3.45431e-19)
(0.075726 3.16494 1.50157e-20)
(0.0689044 3.17289 1.42631e-20)
(0.0622224 3.18076 1.41801e-19)
(0.0557088 3.1887 0)
(0.0494011 3.19684 8.16625e-20)
(0.0432407 3.20505 -1.48965e-19)
(0.0371718 3.21315 2.76401e-21)
(0.0312086 3.22113 7.16569e-21)
(0.0253497 3.22897 4.63111e-21)
(0.0195929 3.23667 5.47591e-21)
(0.0139371 3.2442 2.13375e-20)
(0.00838198 3.25156 6.78099e-22)
(0.016642 1.54003 -1.31202e-18)
(-0.153377 1.57451 -1.04631e-16)
(-0.125476 1.57547 9.02177e-20)
(-0.125645 1.5819 1.33846e-18)
(-0.126013 1.59066 2.59196e-17)
(-0.125898 1.60086 1.94576e-17)
(-0.125247 1.61284 -2.90224e-19)
(-0.123913 1.62737 -1.55156e-17)
(-0.12166 1.64529 0)
(-0.118258 1.66715 1.29848e-17)
(-0.113283 1.69339 -1.1886e-17)
(-0.106136 1.72448 0)
(-0.0963764 1.7615 0)
(-0.0831664 1.80675 -2.8486e-19)
(-0.0656414 1.86265 2.61697e-19)
(-0.0439614 1.92896 2.33795e-19)
(-0.0186557 2.00327 6.3624e-18)
(0.00929315 2.08147 -5.73852e-18)
(0.038548 2.159 0)
(0.0676022 2.23176 1.36004e-19)
(0.0951997 2.29671 4.18543e-18)
(0.120532 2.35255 -6.87769e-18)
(0.142784 2.399 2.94579e-18)
(0.161925 2.43715 1.74527e-19)
(0.178315 2.46835 2.58939e-18)
(0.192003 2.49379 -2.43077e-18)
(0.203298 2.51478 -2.40295e-18)
(0.212604 2.53238 2.39327e-18)
(0.220259 2.54746 5.65763e-22)
(0.22658 2.5607 -1.85183e-18)
(0.231831 2.57263 1.74279e-18)
(0.236227 2.58367 0)
(0.239939 2.5941 0)
(0.243102 2.60412 -1.41881e-18)
(0.245817 2.61384 1.50672e-18)
(0.248159 2.62336 -1.24802e-18)
(0.250181 2.63271 1.18254e-18)
(0.251921 2.64194 -9.66804e-19)
(0.253405 2.65105 -1.21706e-19)
(0.254654 2.66009 8.72775e-21)
(0.255683 2.66905 1.87856e-18)
(0.256504 2.67796 -1.78438e-18)
(0.257125 2.68683 7.47511e-19)
(0.257553 2.69567 0)
(0.257793 2.70451 0)
(0.257848 2.71336 -9.21845e-20)
(0.257718 2.72223 -7.04719e-19)
(0.257403 2.73114 5.98328e-19)
(0.256901 2.7401 -4.86379e-19)
(0.256207 2.74913 7.90074e-19)
(0.255317 2.75825 7.52332e-19)
(0.254225 2.76746 -7.33111e-19)
(0.252922 2.77679 0)
(0.251401 2.78624 -4.01638e-19)
(0.249651 2.79583 5.28674e-19)
(0.247663 2.80557 0)
(0.245425 2.81547 1.21552e-19)
(0.242926 2.82555 1.17463e-19)
(0.240152 2.83581 -2.29177e-19)
(0.23709 2.84626 -1.09754e-19)
(0.233726 2.85692 2.14283e-19)
(0.230046 2.86778 8.14799e-19)
(0.226034 2.87887 -1.00529e-18)
(0.221675 2.89018 7.60251e-19)
(0.216953 2.90172 -1.11652e-18)
(0.211852 2.9135 7.29649e-19)
(0.206353 2.92552 -8.57853e-19)
(0.200442 2.93778 8.49514e-19)
(0.194101 2.95028 -1.60512e-19)
(0.187314 2.96302 -7.65052e-19)
(0.180063 2.97601 6.11288e-19)
(0.172334 2.98925 0)
(0.164112 3.00272 -1.37363e-19)
(0.155382 3.01644 0)
(0.146264 3.03021 0)
(0.137031 3.04364 0)
(0.127841 3.05659 5.39927e-19)
(0.118708 3.06909 -4.23028e-19)
(0.109678 3.08121 -1.92347e-19)
(0.100747 3.09291 -1.80251e-19)
(0.0918992 3.10413 8.30416e-20)
(0.0831714 3.1149 -7.91251e-20)
(0.0745679 3.12525 -2.81564e-19)
(0.0660888 3.13521 2.80512e-19)
(0.0577378 3.14482 2.40133e-19)
(0.0495176 3.15409 -1.84469e-20)
(0.0414288 3.16308 -6.1866e-19)
(0.0334697 3.1718 3.40362e-20)
(0.0256364 3.18029 3.5758e-19)
(0.0179248 3.18856 -3.85661e-20)
(0.0103366 3.19667 1.7473e-20)
(0.00288239 3.20471 -2.17659e-19)
(-0.00441532 3.21283 2.0949e-19)
(-0.011509 3.22116 -1.0533e-20)
(-0.0184487 3.22955 8.47969e-21)
(-0.0252865 3.23782 9.57772e-20)
(-0.0319939 3.24595 -1.76499e-19)
(-0.038575 3.25394 8.3358e-20)
(-0.0450339 3.26176 3.84851e-20)
(-0.0513722 3.26941 -5.77697e-20)
(-0.0575909 3.27686 2.07393e-20)
(-0.0636899 3.28409 -1.60875e-21)
(-0.0696677 3.29105 -2.98454e-20)
(-0.0755217 3.29772 2.90421e-20)
(-0.0171297 1.54041 8.7714e-17)
(-0.187926 1.57377 0)
(-0.16006 1.57496 7.55857e-17)
(-0.161334 1.57991 6.55627e-19)
(-0.162704 1.5868 -5.92228e-17)
(-0.163742 1.59455 4.42494e-17)
(-0.164521 1.60316 -1.79198e-17)
(-0.16496 1.61303 0)
(-0.164913 1.62476 1.67859e-17)
(-0.164144 1.63905 -3.08716e-17)
(-0.162454 1.65652 1.38309e-17)
(-0.15964 1.67772 -4.07186e-19)
(-0.155439 1.70301 1.18215e-17)
(-0.14939 1.73263 -2.12028e-17)
(-0.141028 1.76734 9.20113e-18)
(-0.129815 1.80855 -5.42826e-19)
(-0.114902 1.85815 8.01392e-18)
(-0.0957863 1.91699 -6.88027e-18)
(-0.0728216 1.98373 0)
(-0.0466241 2.05536 5.76527e-18)
(-0.0182471 2.12803 -5.71409e-18)
(0.0110555 2.19818 -2.79053e-19)
(0.0399861 2.26302 0)
(0.0674956 2.32068 -4.38106e-19)
(0.0929017 2.3706 0)
(0.115513 2.41289 2.64426e-18)
(0.135227 2.44842 1.49552e-19)
(0.152298 2.47823 -2.74839e-18)
(0.166788 2.50326 -1.42537e-19)
(0.178914 2.52452 0)
(0.188984 2.54288 0)
(0.197305 2.559 0)
(0.204157 2.57338 -1.55524e-18)
(0.209783 2.58647 1.68365e-18)
(0.21439 2.5986 -1.96642e-19)
(0.21816 2.61004 1.4772e-18)
(0.221242 2.62096 -1.22493e-18)
(0.22376 2.6315 1.30676e-18)
(0.225808 2.64174 -1.24078e-18)
(0.227459 2.65174 0)
(0.228767 2.66156 1.37068e-18)
(0.229773 2.67124 -1.04477e-18)
(0.23051 2.68079 7.33003e-19)
(0.231001 2.69027 -7.04685e-19)
(0.231263 2.69968 2.22739e-19)
(0.231309 2.70906 -2.12052e-19)
(0.231148 2.71844 0)
(0.230783 2.72782 -1.38774e-21)
(0.230217 2.73725 0)
(0.229448 2.74673 1.22511e-18)
(0.228473 2.75628 -1.52962e-18)
(0.227284 2.76593 1.61614e-19)
(0.225876 2.77569 -1.23792e-18)
(0.224239 2.78557 1.0597e-18)
(0.222362 2.7956 -1.43748e-19)
(0.220233 2.80578 0)
(0.21784 2.81612 0)
(0.215169 2.82665 -1.024e-18)
(0.212205 2.83737 2.68034e-19)
(0.208932 2.84829 9.72369e-19)
(0.205334 2.85942 6.87415e-19)
(0.201395 2.87077 -9.0687e-19)
(0.197096 2.88235 0)
(0.192419 2.89416 0)
(0.187345 2.90622 -2.0038e-19)
(0.181854 2.91851 0)
(0.175927 2.93106 -1.90915e-19)
(0.169543 2.94386 5.31303e-19)
(0.162682 2.95691 -7.08769e-19)
(0.155324 2.97021 3.37591e-19)
(0.147447 2.98376 3.24831e-19)
(0.139032 2.99755 3.12248e-19)
(0.13006 3.01159 0)
(0.120513 3.02588 2.67385e-19)
(0.110519 3.04019 -2.81865e-19)
(0.100376 3.05415 4.94876e-19)
(0.090263 3.06758 -2.50196e-19)
(0.0801944 3.08054 8.64194e-19)
(0.0702246 3.09309 -5.35013e-20)
(0.0603488 3.10522 1.4383e-19)
(0.0505491 3.11687 -7.52694e-19)
(0.0408631 3.12804 5.72442e-19)
(0.031299 3.13879 -4.98733e-19)
(0.0218579 3.14913 0)
(0.0125442 3.1591 6.92956e-20)
(0.00336143 3.16875 4.83893e-19)
(-0.0056884 3.17809 -9.68683e-20)
(-0.0146046 3.18716 -3.70061e-20)
(-0.0233881 3.19599 -3.94605e-19)
(-0.0320411 3.20462 -1.21036e-21)
(-0.0405663 3.21308 2.06862e-19)
(-0.0489639 3.22141 -2.74147e-19)
(-0.0572289 3.2297 2.07337e-19)
(-0.065334 3.23807 -2.11673e-19)
(-0.0732414 3.24661 1.42144e-19)
(-0.0809843 3.25514 -1.3146e-19)
(-0.088598 3.26353 0)
(-0.0960534 3.27178 0)
(-0.103362 3.27988 4.92246e-20)
(-0.11053 3.28781 -4.2588e-20)
(-0.117561 3.29555 8.35308e-22)
(-0.124454 3.30307 -2.53679e-22)
(-0.131207 3.31032 -2.78777e-20)
(-0.137815 3.31727 2.70763e-20)
(-0.0495421 1.54186 -3.99193e-18)
(-0.221736 1.5755 2.32751e-16)
(-0.194154 1.57739 -1.65153e-16)
(-0.195987 1.58174 4.95082e-17)
(-0.197913 1.58778 0)
(-0.199624 1.59436 0)
(-0.201225 1.60137 -1.20664e-18)
(-0.202713 1.60892 -1.71319e-17)
(-0.203981 1.61731 3.18854e-17)
(-0.204958 1.62699 -1.57285e-17)
(-0.205482 1.63852 0)
(-0.20535 1.65247 1.20871e-22)
(-0.204356 1.66941 -4.38254e-19)
(-0.202264 1.68982 0)
(-0.198864 1.714 7.36388e-19)
(-0.193795 1.74212 6.60064e-19)
(-0.186501 1.7745 -5.84281e-19)
(-0.176695 1.81191 -5.26222e-19)
(-0.163673 1.85575 0)
(-0.146627 1.90722 0)
(-0.12566 1.96576 4.0651e-19)
(-0.101187 2.02954 -5.44014e-22)
(-0.0739061 2.09584 3.22676e-19)
(-0.0448596 2.16177 -6.75483e-22)
(-0.0151917 2.22493 0)
(0.0139762 2.28351 -2.27336e-19)
(0.0417214 2.33624 -6.09262e-19)
(0.0674294 2.38272 -1.83849e-19)
(0.0904763 2.42302 0)
(0.110695 2.45775 0)
(0.128289 2.48765 -2.88425e-19)
(0.143335 2.51341 2.71495e-19)
(0.155976 2.53584 1.52585e-18)
(0.166472 2.55559 -2.54716e-19)
(0.175102 2.57313 -2.40967e-19)
(0.182125 2.58887 -1.94027e-18)
(0.187777 2.6032 -1.61475e-18)
(0.192274 2.61643 1.92056e-18)
(0.195814 2.6288 -1.43851e-18)
(0.198568 2.64052 1.36897e-18)
(0.200682 2.65174 -3.20734e-19)
(0.202268 2.66258 0)
(0.203416 2.67312 2.57303e-18)
(0.204195 2.68343 -2.18303e-18)
(0.204653 2.69357 -2.56531e-19)
(0.204828 2.7036 2.43268e-19)
(0.204746 2.71356 2.32683e-19)
(0.204425 2.72349 -1.31228e-18)
(0.203874 2.73341 1.69009e-18)
(0.203099 2.74337 0)
(0.2021 2.75339 -3.84049e-19)
(0.200874 2.76349 0)
(0.199415 2.77369 0)
(0.197713 2.78403 -3.37115e-19)
(0.195757 2.7945 0)
(0.193536 2.80513 -3.10672e-19)
(0.191035 2.81594 2.98612e-19)
(0.188238 2.82693 -1.13254e-18)
(0.185129 2.83813 1.38733e-18)
(0.18169 2.84953 1.04814e-18)
(0.177903 2.86116 -1.28749e-18)
(0.173748 2.87302 4.94038e-19)
(0.169205 2.88512 4.59196e-19)
(0.164253 2.89747 -9.24048e-19)
(0.158869 2.91007 8.67149e-19)
(0.15303 2.92292 -8.59216e-19)
(0.146713 2.93604 4.05468e-19)
(0.139894 2.94942 7.7277e-19)
(0.132549 2.96306 -7.6931e-19)
(0.124651 2.97696 -3.61244e-19)
(0.116177 2.99112 -6.99282e-19)
(0.107101 3.00553 3.23625e-19)
(0.0973991 3.02019 9.23731e-19)
(0.0870479 3.03509 -3.35418e-19)
(0.0761839 3.05001 8.46666e-19)
(0.0651315 3.06454 -1.13237e-18)
(0.0540858 3.07851 4.56931e-21)
(0.0430696 3.09196 -6.96931e-19)
(0.0321402 3.10499 1.1506e-18)
(0.0212966 3.1176 0)
(0.0105199 3.12972 0)
(-0.00015713 3.14135 1.85014e-19)
(-0.0107195 3.15254 -8.47992e-19)
(-0.0211645 3.16331 6.74077e-19)
(-0.0314874 3.1737 5.05748e-19)
(-0.0416833 3.18375 -4.36515e-19)
(-0.0517492 3.19349 4.21466e-19)
(-0.0616832 3.20295 -4.23941e-19)
(-0.0714834 3.21217 -5.29119e-20)
(-0.081148 3.22118 4.59515e-20)
(-0.0906754 3.23001 4.06117e-20)
(-0.100062 3.23869 0)
(-0.109308 3.24728 0)
(-0.118416 3.25584 2.56239e-20)
(-0.127323 3.26449 2.21851e-20)
(-0.136029 3.27318 1.2993e-19)
(-0.144575 3.28178 -2.44716e-20)
(-0.15295 3.29026 -1.12661e-19)
(-0.161157 3.29862 5.40555e-20)
(-0.169209 3.30683 -5.53527e-20)
(-0.17711 3.31486 -1.11842e-20)
(-0.184858 3.32267 1.08479e-20)
(-0.192449 3.33021 -2.44953e-20)
(-0.199874 3.33744 -1.66473e-20)
(-0.0802438 1.54375 -8.87448e-17)
(-0.254899 1.57821 1.24563e-16)
(-0.227247 1.58083 -1.82798e-16)
(-0.229137 1.5845 5.74379e-17)
(-0.23121 1.58991 1.15677e-18)
(-0.233105 1.59589 -2.62666e-17)
(-0.234954 1.6022 4.18679e-17)
(-0.23678 1.60885 -1.75509e-17)
(-0.23856 1.61592 1.64333e-17)
(-0.240253 1.62359 -1.52726e-17)
(-0.241794 1.63216 0)
(-0.243055 1.64198 4.62165e-19)
(-0.243896 1.65351 -1.49291e-17)
(-0.244128 1.66722 1.41156e-17)
(-0.243555 1.68362 -8.51936e-19)
(-0.241939 1.70311 -1.28529e-17)
(-0.239055 1.72597 1.25354e-17)
(-0.234632 1.75227 1.12523e-17)
(-0.228209 1.782 -2.50362e-20)
(-0.219414 1.81575 -8.3974e-18)
(-0.207855 1.85438 -4.73813e-19)
(-0.192862 1.89881 4.37441e-19)
(-0.174025 1.94936 -1.20646e-18)
(-0.151641 2.00517 -3.64801e-19)
(-0.126147 2.06463 -5.8663e-18)
(-0.098262 2.12569 5.25579e-18)
(-0.068935 2.18631 -1.40857e-21)
(-0.0391876 2.24473 4.64929e-19)
(-0.0100244 2.29957 -4.19035e-19)
(0.0177074 2.34973 3.78152e-19)
(0.0434532 2.39474 3.06576e-18)
(0.0665519 2.43454 -2.81488e-18)
(0.0868852 2.46955 2.89504e-19)
(0.104663 2.50027 -1.39027e-21)
(0.119868 2.52723 2.57081e-19)
(0.13263 2.55104 2.43153e-19)
(0.143193 2.57217 -3.90944e-18)
(0.151809 2.59098 2.95997e-20)
(0.158721 2.60784 3.7399e-18)
(0.164165 2.62312 0)
(0.168374 2.63714 0)
(0.171562 2.65017 0)
(0.173919 2.66245 -2.97955e-18)
(0.175599 2.67415 2.53138e-18)
(0.176728 2.68543 0)
(0.177401 2.69639 0)
(0.177689 2.70715 -2.39586e-18)
(0.177641 2.71776 1.79071e-18)
(0.177294 2.7283 1.91841e-18)
(0.17667 2.73882 -1.84714e-18)
(0.17578 2.74936 4.35122e-19)
(0.174629 2.75996 0)
(0.173218 2.77066 0)
(0.17154 2.78147 7.5919e-19)
(0.169586 2.79242 1.4403e-18)
(0.167346 2.80353 -1.05557e-18)
(0.164805 2.81482 -3.31382e-19)
(0.161946 2.82631 0)
(0.158754 2.83801 -1.51854e-18)
(0.155207 2.84993 2.3998e-20)
(0.151286 2.86208 1.4241e-18)
(0.14697 2.87448 -1.08707e-18)
(0.142235 2.88713 5.19677e-19)
(0.137058 2.90004 0)
(0.131412 2.91322 0)
(0.125273 2.92667 4.48772e-19)
(0.118612 2.94039 -2.70814e-20)
(0.111401 2.95439 -2.77382e-20)
(0.103611 2.96867 -4.24701e-19)
(0.0952115 2.98322 0)
(0.0861728 2.99805 7.62949e-19)
(0.0764638 3.01313 7.37527e-19)
(0.0660543 3.02848 -1.05494e-18)
(0.054915 3.04406 -6.63403e-19)
(0.0431887 3.05967 0)
(0.0312239 3.07484 -1.7739e-18)
(0.0192344 3.0894 1.4504e-18)
(0.00725143 3.1034 5.027e-21)
(-0.0046692 3.11694 -2.49138e-19)
(-0.0165108 3.13007 2.33518e-19)
(-0.0282905 3.14271 2.20195e-19)
(-0.0399954 3.15486 0)
(-0.0516 3.16655 0)
(-0.0630988 3.1778 0)
(-0.0744863 3.18867 -6.39478e-19)
(-0.0857564 3.19918 -1.03842e-19)
(-0.0969045 3.20936 1.26173e-18)
(-0.107926 3.21926 -5.96204e-19)
(-0.118814 3.2289 -3.83699e-19)
(-0.129561 3.23832 4.32965e-19)
(-0.140157 3.24753 0)
(-0.150589 3.25657 3.01405e-19)
(-0.160854 3.26548 -2.91953e-19)
(-0.170961 3.27431 0)
(-0.180859 3.28313 -4.85237e-20)
(-0.190539 3.29196 -1.4626e-19)
(-0.200056 3.30075 1.43188e-19)
(-0.209399 3.30946 -9.01269e-20)
(-0.21857 3.31809 8.72829e-20)
(-0.227581 3.32659 0)
(-0.236433 3.33492 -2.08225e-20)
(-0.245119 3.34303 1.65229e-20)
(-0.253627 3.35087 2.07291e-20)
(-0.261944 3.35837 -5.90992e-20)
(-0.270055 3.36547 4.06351e-20)
(-0.1097 1.54515 2.84684e-18)
(-0.287165 1.57979 0)
(-0.259074 1.58326 -9.62014e-17)
(-0.260657 1.58622 6.46276e-17)
(-0.262602 1.59105 -2.17533e-22)
(-0.264388 1.59657 -9.16598e-19)
(-0.266155 1.60248 0)
(-0.267937 1.60871 -1.78891e-17)
(-0.269726 1.61527 1.66306e-17)
(-0.271509 1.62221 0)
(-0.273266 1.62962 8.84997e-19)
(-0.274958 1.63767 0)
(-0.276509 1.64659 2.32873e-22)
(-0.277824 1.65668 -1.39998e-17)
(-0.278745 1.66828 2.78482e-17)
(-0.279084 1.6818 -1.37442e-17)
(-0.278664 1.69762 1.3408e-17)
(-0.277252 1.71612 -2.70374e-17)
(-0.274655 1.73754 1.17006e-17)
(-0.27064 1.762 6.63876e-19)
(-0.264912 1.78941 -5.89362e-19)
(-0.257033 1.81997 -7.31811e-18)
(-0.246787 1.85421 8.44122e-18)
(-0.233725 1.89287 8.56105e-19)
(-0.217269 1.93658 7.89815e-19)
(-0.197393 1.9852 -7.23324e-19)
(-0.174346 2.0381 6.54483e-19)
(-0.148555 2.09402 0)
(-0.120697 2.15145 -1.43771e-21)
(-0.0916288 2.20878 1.50735e-21)
(-0.0622782 2.26452 -4.29263e-19)
(-0.0335881 2.31742 0)
(-0.0063173 2.36634 0)
(0.0189242 2.41074 5.40336e-18)
(0.0415801 2.45055 -4.12715e-18)
(0.0616432 2.48604 0)
(0.0792194 2.5175 -4.14151e-18)
(0.0942442 2.54544 6.88561e-18)
(0.10686 2.57026 -4.20981e-18)
(0.117287 2.59228 0)
(0.125751 2.61185 -3.76636e-18)
(0.132486 2.62936 3.20312e-18)
(0.137729 2.64519 7.56738e-19)
(0.141716 2.65968 -3.2163e-18)
(0.14466 2.67314 2.39748e-18)
(0.14675 2.68583 0)
(0.148137 2.69796 2.44088e-18)
(0.148944 2.70969 -2.92791e-18)
(0.149261 2.72116 2.1992e-18)
(0.149156 2.73248 -1.58766e-18)
(0.148674 2.74372 -2.48754e-18)
(0.147845 2.75496 1.91496e-18)
(0.146686 2.76624 -4.54842e-19)
(0.145205 2.77762 1.28384e-18)
(0.143402 2.78912 -2.58608e-20)
(0.141271 2.80077 -1.58586e-18)
(0.138804 2.8126 0)
(0.135985 2.82462 -2.14752e-18)
(0.1328 2.83686 2.06109e-18)
(0.129229 2.84934 -1.33182e-18)
(0.125252 2.86205 0)
(0.120846 2.87503 6.02763e-19)
(0.115987 2.88827 1.73426e-18)
(0.110649 2.90178 5.33708e-19)
(0.104805 2.91558 -2.83379e-20)
(0.0984227 2.92967 -5.3209e-19)
(0.0914723 2.94405 1.94641e-18)
(0.0839214 2.95873 -1.9271e-18)
(0.075736 2.97369 -9.10552e-19)
(0.0668805 2.98895 1.71503e-18)
(0.0573182 3.0045 -1.27914e-18)
(0.0470117 3.02033 -1.60513e-18)
(0.0359236 3.03642 2.26308e-18)
(0.0240171 3.05277 -7.61013e-19)
(0.0114395 3.06913 0)
(-0.00143907 3.08502 -6.27787e-19)
(-0.0143875 3.10025 6.57826e-19)
(-0.0273631 3.11487 -2.00418e-18)
(-0.0403199 3.12895 1.38581e-18)
(-0.0532017 3.14263 -5.06804e-19)
(-0.0660203 3.15586 -1.16048e-18)
(-0.0787968 3.16859 5.8045e-20)
(-0.0914954 3.18084 5.65538e-20)
(-0.104107 3.19264 8.14419e-19)
(-0.116625 3.20404 8.892e-19)
(-0.129042 3.21507 -5.15057e-20)
(-0.141347 3.22576 -4.86746e-19)
(-0.153528 3.23615 1.42979e-19)
(-0.16557 3.24625 -4.85985e-19)
(-0.177453 3.25609 5.92239e-19)
(-0.189158 3.26569 0)
(-0.200664 3.27507 3.32226e-19)
(-0.211967 3.28428 -5.67368e-19)
(-0.223089 3.29336 2.73858e-19)
(-0.233969 3.30239 2.2588e-19)
(-0.244665 3.31143 -1.94507e-19)
(-0.255234 3.32046 1.88853e-20)
(-0.265632 3.32946 -8.83292e-20)
(-0.275869 3.3384 8.85021e-20)
(-0.285946 3.34724 7.9447e-21)
(-0.295853 3.3559 4.02692e-21)
(-0.305575 3.36433 0)
(-0.315091 3.37245 6.89087e-22)
(-0.324381 3.3802 -1.84877e-21)
(-0.333422 3.3875 -2.88206e-21)
(-0.342191 3.39429 1.26637e-19)
(-0.350668 3.40051 -1.32863e-19)
(-0.138489 1.54557 -9.33314e-17)
(-0.318392 1.57971 0)
(-0.289741 1.58374 1.11671e-16)
(-0.290889 1.58601 -7.14609e-17)
(-0.292595 1.59031 -1.4498e-18)
(-0.294174 1.59544 2.02378e-18)
(-0.295759 1.60103 2.44711e-17)
(-0.297377 1.60698 -2.03869e-17)
(-0.299022 1.61326 -1.04766e-18)
(-0.300689 1.61989 -1.57494e-17)
(-0.302371 1.62689 1.36492e-17)
(-0.304056 1.63429 8.12106e-19)
(-0.305718 1.64218 1.33747e-22)
(-0.307313 1.65071 8.0587e-19)
(-0.308771 1.66004 8.17991e-19)
(-0.309993 1.6704 1.32436e-17)
(-0.310851 1.68206 -3.02362e-20)
(-0.311182 1.69534 -1.2532e-17)
(-0.310795 1.71057 0)
(-0.309494 1.7281 -7.6891e-19)
(-0.307095 1.74816 -9.98851e-18)
(-0.303402 1.77093 9.19483e-18)
(-0.298217 1.79641 9.41611e-18)
(-0.29124 1.82453 -8.42206e-18)
(-0.282148 1.85563 0)
(-0.27079 1.89017 8.41072e-19)
(-0.25674 1.92871 0)
(-0.239539 1.97168 7.11895e-19)
(-0.219294 2.01889 1.3004e-18)
(-0.196218 2.06991 -5.90143e-19)
(-0.170719 2.12377 5.33839e-19)
(-0.143419 2.17918 -9.66823e-19)
(-0.115099 2.2347 8.7293e-19)
(-0.0866414 2.28889 -7.07194e-18)
(-0.0589166 2.34044 5.73074e-18)
(-0.0325575 2.38828 0)
(-0.00831952 2.43195 4.74477e-18)
(0.0135516 2.47145 -3.34745e-18)
(0.0331452 2.50689 0)
(0.0503035 2.53856 0)
(0.0650457 2.56679 4.68221e-19)
(0.0775095 2.59189 0)
(0.0878664 2.61418 -4.22642e-19)
(0.096307 2.63404 0)
(0.103042 2.65186 -2.67127e-18)
(0.108291 2.66805 2.93416e-18)
(0.112271 2.68295 -6.96745e-19)
(0.115179 2.6969 6.57656e-19)
(0.117185 2.71013 0)
(0.118432 2.72288 -5.94826e-19)
(0.119032 2.73531 5.65832e-19)
(0.119069 2.74755 5.43019e-19)
(0.118605 2.75972 -4.50115e-21)
(0.117683 2.77188 0)
(0.116329 2.7841 1.38523e-18)
(0.114558 2.79643 -2.88715e-20)
(0.112375 2.80891 -1.71552e-18)
(0.109778 2.82157 8.08193e-19)
(0.106757 2.83444 -7.65432e-19)
(0.1033 2.84754 7.52622e-19)
(0.0993898 2.86089 -1.40498e-18)
(0.0950045 2.8745 2.03449e-18)
(0.0901222 2.88838 -1.96344e-18)
(0.0847176 2.90255 -1.85102e-18)
(0.0787598 2.91703 1.21016e-18)
(0.072215 2.93181 -5.76292e-19)
(0.0650491 2.9469 -2.16252e-18)
(0.0572272 2.9623 1.07714e-18)
(0.0487111 2.97802 -4.66227e-19)
(0.0394591 2.99405 2.93822e-18)
(0.0294271 3.01039 1.43597e-20)
(0.0185706 3.02703 -1.42638e-20)
(0.00684384 3.04395 -1.65272e-18)
(-0.00579902 3.06115 1.60811e-18)
(-0.0192088 3.07835 -2.3361e-18)
(-0.0329957 3.09506 -1.40675e-18)
(-0.0469141 3.11105 2.08492e-18)
(-0.0609121 3.12637 -1.25716e-18)
(-0.0749503 3.14109 3.00562e-18)
(-0.0889504 3.15532 -8.73142e-19)
(-0.10289 3.16917 1.01354e-18)
(-0.116791 3.18254 -1.01486e-18)
(-0.130641 3.19542 -1.1261e-18)
(-0.14443 3.20784 6.73566e-19)
(-0.158151 3.21984 5.74432e-19)
(-0.171783 3.23145 -9.54605e-19)
(-0.185303 3.24271 -1.67133e-19)
(-0.198691 3.25362 2.82432e-19)
(-0.211915 3.2642 -1.25318e-18)
(-0.224945 3.27446 5.23943e-19)
(-0.237759 3.28442 1.11753e-19)
(-0.250349 3.2941 0)
(-0.262732 3.30357 -4.06823e-20)
(-0.274902 3.31294 2.65127e-19)
(-0.28689 3.32229 -2.88335e-19)
(-0.298768 3.33167 -1.59596e-19)
(-0.310514 3.34106 3.3272e-19)
(-0.322108 3.35044 -1.46552e-19)
(-0.333544 3.35975 9.84789e-20)
(-0.344807 3.36894 -9.23068e-20)
(-0.355877 3.37794 -6.30988e-20)
(-0.366727 3.38668 4.30519e-20)
(-0.377329 3.39506 -1.37935e-20)
(-0.387652 3.403 2.7169e-20)
(-0.397668 3.41043 0)
(-0.407348 3.41728 3.69391e-21)
(-0.416669 3.4235 0)
(-0.425612 3.42904 -5.24713e-21)
(-0.166764 1.54491 9.52823e-17)
(-0.34852 1.57774 -3.05201e-16)
(-0.319255 1.58208 -3.46892e-18)
(-0.319986 1.58378 7.72506e-17)
(-0.321457 1.58768 0)
(-0.322841 1.59251 -1.09505e-18)
(-0.32426 1.59787 -2.63216e-17)
(-0.325734 1.60361 3.394e-20)
(-0.327252 1.6097 1.65219e-17)
(-0.328805 1.61612 9.55541e-19)
(-0.33039 1.62287 1.2828e-17)
(-0.332001 1.62996 -2.35835e-20)
(-0.333627 1.63743 -2.31824e-17)
(-0.335252 1.64531 1.0215e-17)
(-0.336847 1.65367 -1.16587e-17)
(-0.338372 1.66263 1.19103e-17)
(-0.33976 1.67232 0)
(-0.340927 1.68291 -1.56006e-18)
(-0.341759 1.6946 1.58386e-18)
(-0.342111 1.70765 -1.57794e-18)
(-0.341818 1.72234 2.45812e-17)
(-0.340698 1.73899 -2.36003e-17)
(-0.338572 1.75788 0)
(-0.335281 1.77921 0)
(-0.330655 1.80314 1.17611e-18)
(-0.324521 1.82962 0)
(-0.316618 1.85864 9.43105e-19)
(-0.306701 1.89058 1.25969e-17)
(-0.294658 1.92583 -1.36547e-17)
(-0.280128 1.96483 1.38927e-18)
(-0.262742 2.00783 1.27857e-18)
(-0.242595 2.05468 1.05013e-17)
(-0.2199 2.10498 -9.61494e-18)
(-0.195054 2.15787 9.66986e-19)
(-0.168649 2.21209 -7.8844e-18)
(-0.141413 2.2662 6.39149e-18)
(-0.114178 2.3188 0)
(-0.0876592 2.36854 4.59186e-18)
(-0.062566 2.41468 -4.84525e-18)
(-0.0393787 2.45697 -5.61966e-19)
(-0.0181738 2.49537 0)
(0.000918053 2.53 0)
(0.0177683 2.56113 2.81388e-18)
(0.0323951 2.58901 -3.60597e-18)
(0.0448857 2.61393 -8.56528e-19)
(0.0553577 2.63623 -8.15662e-19)
(0.0639615 2.65628 7.71482e-19)
(0.0708758 2.67448 2.19457e-18)