/*--------------------------------*- C++ -*----------------------------------*\
  =========                 |
  \\      /  F ield         | OpenFOAM: The Open Source CFD Toolbox
   \\    /   O peration     | Website:  https://openfoam.org
    \\  /    A nd           | Version:  10
     \\/     M anipulation  |
\*---------------------------------------------------------------------------*/
FoamFile
{
    format      ascii;
    class       volScalarField;
    location    "900";
    object      k;
}
// * * * * * * * * * * * * * * * * * * * * * * * * * * * * * * * * * * * * * //

dimensions      [0 2 -2 0 0 0 0];

internalField   nonuniform List<scalar> 
420
(
2.22045e-16
2.22045e-16
2.22045e-16
2.22045e-16
2.22045e-16
2.22045e-16
2.22045e-16
2.22045e-16
2.22045e-16
2.22045e-16
2.22045e-16
2.22045e-16
2.22045e-16
2.22045e-16
2.22045e-16
2.22045e-16
2.22045e-16
2.22045e-16
2.22045e-16
2.22045e-16
2.22045e-16
2.22045e-16
2.22045e-16
2.22045e-16
2.22045e-16
2.22045e-16
2.22045e-16
2.22045e-16
2.22045e-16
2.22045e-16
2.22045e-16
2.22045e-16
2.22045e-16
2.22045e-16
2.22045e-16
2.22045e-16
2.22045e-16
2.22045e-16
2.22045e-16
2.22045e-16
2.22045e-16
2.22045e-16
2.22045e-16
2.22045e-16
2.22045e-16
2.22045e-16
2.22045e-16
2.22045e-16
2.22045e-16
2.22045e-16
2.22045e-16
2.22045e-16
2.22045e-16
2.22045e-16
2.22045e-16
2.22045e-16
2.22045e-16
2.22045e-16
2.22045e-16
2.22045e-16
2.22045e-16
2.22045e-16
2.22045e-16
2.22045e-16
2.22045e-16
2.22045e-16
2.22045e-16
2.22045e-16
2.22045e-16
2.22045e-16
2.22045e-16
2.22045e-16
2.22045e-16
2.22045e-16
2.22045e-16
2.22045e-16
2.22045e-16
2.22045e-16
2.22045e-16
2.22045e-16
2.22045e-16
2.22045e-16
2.22045e-16
2.22045e-16
2.22045e-16
2.22045e-16
2.22045e-16
2.22045e-16
2.22045e-16
2.22045e-16
2.22045e-16
2.22045e-16
2.22045e-16
2.22045e-16
2.22045e-16
2.22045e-16
2.22045e-16
2.22045e-16
2.22045e-16
2.22045e-16
2.22045e-16
2.22045e-16
2.22045e-16
2.50547e-16
2.83117e-16
2.75501e-16
2.52593e-16
2.22045e-16
2.22045e-16
3.52304e-16
2.22045e-16
2.22045e-16
2.22045e-16
2.47162e-16
2.83054e-16
2.77751e-16
2.56508e-16
2.22045e-16
2.22045e-16
3.50553e-16
2.22045e-16
2.22045e-16
2.22045e-16
2.44406e-16
2.82931e-16
2.79428e-16
2.60605e-16
2.22045e-16
2.22045e-16
3.50077e-16
2.22045e-16
2.22045e-16
2.22045e-16
2.42508e-16
2.82849e-16
2.80423e-16
2.64628e-16
2.22045e-16
2.22045e-16
3.48707e-16
2.22045e-16
2.22045e-16
2.22045e-16
2.4168e-16
2.82699e-16
2.80688e-16
2.67821e-16
2.22045e-16
2.22045e-16
3.46702e-16
2.22045e-16
2.22045e-16
2.22045e-16
2.42036e-16
2.82788e-16
2.80151e-16
2.6965e-16
2.22045e-16
2.22045e-16
3.43729e-16
2.22045e-16
2.22045e-16
2.22045e-16
2.4393e-16
2.83934e-16
2.79311e-16
2.70354e-16
2.22045e-16
2.22045e-16
3.39885e-16
2.22045e-16
2.22045e-16
2.22045e-16
2.47876e-16
2.85873e-16
2.78708e-16
2.6983e-16
2.22045e-16
2.22045e-16
3.35453e-16
2.22045e-16
2.22045e-16
2.22045e-16
2.54354e-16
2.88356e-16
2.78226e-16
2.68149e-16
2.22045e-16
2.22045e-16
3.30792e-16
2.22045e-16
2.22045e-16
2.22045e-16
2.63293e-16
2.90836e-16
2.77814e-16
2.66192e-16
2.22045e-16
2.22045e-16
3.26128e-16
2.22045e-16
2.22045e-16
2.22045e-16
2.73351e-16
2.92524e-16
2.76878e-16
2.64443e-16
2.22045e-16
2.22045e-16
3.20984e-16
2.22045e-16
2.22045e-16
2.29679e-16
2.77505e-16
2.93492e-16
2.75509e-16
2.62536e-16
2.22045e-16
2.22045e-16
3.16746e-16
2.22045e-16
2.22045e-16
2.46553e-16
2.81531e-16
2.95617e-16
2.74302e-16
2.59816e-16
2.22045e-16
2.22045e-16
3.13422e-16
2.22045e-16
2.33691e-16
2.61246e-16
2.84832e-16
2.9816e-16
2.73203e-16
2.55122e-16
2.22045e-16
2.22045e-16
3.11449e-16
2.35542e-16
2.49844e-16
2.63724e-16
2.85371e-16
2.99192e-16
2.72007e-16
2.50198e-16
2.22045e-16
2.22045e-16
3.0975e-16
2.42726e-16
2.49897e-16
2.61865e-16
2.84633e-16
2.99168e-16
2.70677e-16
2.44722e-16
2.22045e-16
2.22045e-16
3.09281e-16
2.40395e-16
2.46864e-16
2.59116e-16
2.83398e-16
2.98401e-16
2.69308e-16
2.39538e-16
2.22045e-16
2.22045e-16
3.10105e-16
2.3612e-16
2.42846e-16
2.55726e-16
2.8191e-16
2.96856e-16
2.6749e-16
2.34992e-16
2.22045e-16
2.22045e-16
3.12486e-16
2.31171e-16
2.37929e-16
2.51124e-16
2.79312e-16
2.93847e-16
2.65116e-16
2.30858e-16
2.22045e-16
2.22045e-16
3.16441e-16
2.25631e-16
2.31172e-16
2.43552e-16
2.73831e-16
2.88931e-16
2.61884e-16
2.26962e-16
2.22045e-16
2.22045e-16
3.20716e-16
2.22045e-16
2.23737e-16
2.34042e-16
2.66578e-16
2.82963e-16
2.58784e-16
2.2374e-16
2.22045e-16
2.22045e-16
3.25428e-16
2.22045e-16
2.22045e-16
2.25409e-16
2.61257e-16
2.80714e-16
2.59129e-16
2.23135e-16
2.22045e-16
2.22045e-16
3.39988e-16
2.22045e-16
2.22045e-16
2.22045e-16
2.29616e-16
2.32974e-16
2.3116e-16
2.2807e-16
2.2436e-16
2.22045e-16
2.22045e-16
2.22045e-16
2.22045e-16
2.22045e-16
2.22045e-16
2.2282e-16
2.24843e-16
2.23297e-16
2.22045e-16
2.22045e-16
2.22045e-16
2.22045e-16
2.22045e-16
2.22045e-16
2.22045e-16
2.22045e-16
2.22045e-16
2.22045e-16
2.22045e-16
2.22045e-16
2.22045e-16
2.22045e-16
2.22045e-16
2.22045e-16
2.22045e-16
2.22045e-16
2.22045e-16
2.22045e-16
2.22045e-16
2.22045e-16
2.22045e-16
2.22045e-16
2.22045e-16
2.22045e-16
2.22045e-16
2.22045e-16
2.22045e-16
2.22045e-16
2.22045e-16
2.22045e-16
2.22045e-16
2.22045e-16
2.22045e-16
2.22045e-16
2.22045e-16
2.22045e-16
2.22045e-16
2.22045e-16
2.22045e-16
2.22045e-16
2.22045e-16
2.22045e-16
2.22045e-16
2.22045e-16
2.22045e-16
2.22045e-16
2.22045e-16
2.22045e-16
2.22045e-16
2.22045e-16
2.22045e-16
2.22045e-16
2.22045e-16
2.22045e-16
2.22045e-16
2.22045e-16
2.22045e-16
2.22045e-16
2.22045e-16
2.22045e-16
2.22045e-16
2.22045e-16
2.22045e-16
2.22045e-16
2.22045e-16
2.22045e-16
2.22045e-16
2.22045e-16
2.22045e-16
2.22045e-16
2.22045e-16
2.22045e-16
2.22045e-16
2.22045e-16
2.22045e-16
2.22045e-16
2.22045e-16
2.22045e-16
2.22045e-16
2.22045e-16
2.22045e-16
)
;

boundaryField
{
    right
    {
        type            cyclic;
    }
    left
    {
        type            cyclic;
    }
    outerWall
    {
        type            kqRWallFunction;
        value           nonuniform List<scalar> 
22
(
3.52304e-16
3.50553e-16
3.50077e-16
3.48707e-16
3.46702e-16
3.43729e-16
3.39885e-16
3.35453e-16
3.30792e-16
3.26128e-16
3.20984e-16
3.16746e-16
3.13422e-16
3.11449e-16
3.0975e-16
3.09281e-16
3.10105e-16
3.12486e-16
3.16441e-16
3.20716e-16
3.25428e-16
3.39988e-16
)
;
    }
    stirrerWall
    {
        type            kqRWallFunction;
        value           uniform 2.22045e-16;
    }
    top
    {
        type            empty;
    }
    bottom
    {
        type            empty;
    }
}


// ************************************************************************* //
