/*--------------------------------*- C++ -*----------------------------------*\
  =========                 |
  \\      /  F ield         | OpenFOAM: The Open Source CFD Toolbox
   \\    /   O peration     | Website:  https://openfoam.org
    \\  /    A nd           | Version:  10
     \\/     M anipulation  |
\*---------------------------------------------------------------------------*/
FoamFile
{
    format      ascii;
    class       volScalarField;
    location    "900";
    object      k;
}
// * * * * * * * * * * * * * * * * * * * * * * * * * * * * * * * * * * * * * //

dimensions      [0 2 -2 0 0 0 0];

internalField   nonuniform List<scalar> 
2000
(
8.66335e-06
0.00025436
0.00213538
0.00725229
0.0151808
0.0247972
0.0352016
0.0454449
0.0544524
0.0615351
0.0668223
0.0710931
0.0753452
0.0805483
0.0878662
0.0975593
0.111808
0.12187
0.11979
0.115825
6.22359e-06
0.000176113
0.001482
0.00533075
0.0117083
0.0197438
0.0285142
0.0371292
0.0447956
0.0510668
0.0559854
0.0599232
0.0634345
0.0671558
0.0723772
0.0810907
0.0913999
0.101293
0.106437
0.108751
4.62147e-06
0.000131264
0.0010632
0.00392509
0.0089258
0.0154623
0.0226802
0.0297929
0.0361907
0.0415149
0.0457491
0.0491252
0.0520156
0.0547863
0.0581163
0.0631506
0.0715131
0.083475
0.093399
0.100605
3.43721e-06
9.83187e-05
0.000771205
0.00287909
0.00668056
0.0118148
0.0176061
0.0233896
0.028652
0.0330868
0.0366498
0.0394969
0.0419104
0.0441042
0.0462162
0.0500067
0.0574007
0.0695523
0.0825226
0.0939309
2.50488e-06
7.18421e-05
0.00053999
0.0020644
0.00487552
0.0087709
0.0132698
0.0178536
0.022102
0.0257599
0.0287664
0.0312288
0.0333812
0.0354289
0.0377179
0.0414083
0.0481924
0.0603901
0.0758676
0.0908923
1.79751e-06
5.14109e-05
0.000371033
0.00140092
0.00342364
0.00627759
0.00964556
0.0131596
0.0165054
0.0194851
0.0220386
0.0242453
0.0263018
0.0284255
0.0312252
0.0355829
0.0428971
0.0559227
0.0739995
0.0925122
1.32289e-06
3.72926e-05
0.000249757
0.000867245
0.00225939
0.00427784
0.00670947
0.00931179
0.0118713
0.0142527
0.0164179
0.0184437
0.0205198
0.0228985
0.026459
0.0321931
0.0414505
0.0568701
0.0782898
0.100021
1.10027e-06
3.03102e-05
0.000184091
0.000565651
0.00136551
0.00272896
0.00442307
0.00628983
0.00819403
0.0100619
0.0119006
0.0138241
0.0160728
0.0190499
0.0240038
0.0323783
0.045545
0.0654466
0.0904715
0.113249
1.13051e-06
3.01698e-05
0.000165969
0.000438593
0.000901635
0.00166313
0.00277244
0.00406524
0.00545511
0.006918
0.00852392
0.0104843
0.0132277
0.0175748
0.0253963
0.0388345
0.058704
0.0839393
0.109274
0.127295
1.44457e-06
3.6539e-05
0.000185771
0.000450885
0.000806389
0.001242
0.00183628
0.00266231
0.003659
0.00484273
0.0063816
0.00871772
0.0128091
0.0203429
0.0341833
0.0563162
0.0834856
0.108306
0.123448
0.13152
2.07229e-06
4.9433e-05
0.000234563
0.000558199
0.000975179
0.0013808
0.00175203
0.00219677
0.0028834
0.00393132
0.00570693
0.00920593
0.016791
0.0316131
0.057824
0.0875472
0.104163
0.109585
0.113294
0.121173
3.06453e-06
6.87053e-05
0.000307559
0.000724242
0.00131649
0.00192641
0.00240814
0.00277732
0.00327596
0.00440278
0.00696762
0.0129219
0.027705
0.0482853
0.0691951
0.0831931
0.088122
0.0878889
0.0877053
0.0940154
4.40277e-06
9.24194e-05
0.000392953
0.000934158
0.00175737
0.0027608
0.00368952
0.00440024
0.00508221
0.00669518
0.0111555
0.0209607
0.037525
0.0551831
0.0660144
0.0676162
0.0640982
0.0587441
0.0580219
0.0646464
5.83431e-06
0.000114667
0.000465479
0.00112994
0.00223918
0.00379221
0.00552818
0.00720434
0.00876798
0.0112207
0.0176356
0.0285003
0.0418064
0.0525952
0.0561386
0.0529
0.0458573
0.0387902
0.0362683
0.0403401
6.75301e-06
0.000125038
0.0004862
0.00120897
0.00253528
0.004652
0.00743907
0.0105835
0.0139326
0.0177332
0.0241016
0.0325665
0.0412758
0.0465835
0.0455073
0.0386739
0.0290559
0.0209242
0.0182236
0.020901
6.48922e-06
0.000113344
0.000421263
0.00106492
0.002332
0.00455892
0.00788537
0.0120931
0.0168898
0.021653
0.0272364
0.0339397
0.040206
0.0431176
0.0398467
0.0306565
0.0193654
0.012655
0.0095804
0.0103495
4.80562e-06
7.84853e-05
0.000278121
0.000711029
0.00160173
0.00326549
0.00605332
0.010222
0.015643
0.0216236
0.0277515
0.0341724
0.0395585
0.0420022
0.0378557
0.0290499
0.0197738
0.0122965
0.00735776
0.00553906
2.35028e-06
3.47919e-05
0.000118775
0.000313004
0.000732009
0.00155372
0.00304183
0.00559713
0.00968612
0.014966
0.0205737
0.0264962
0.0310338
0.0317228
0.02914
0.0240525
0.0179925
0.0115699
0.00654293
0.00386994
5.63718e-07
6.23787e-06
2.13673e-05
5.93895e-05
0.000145457
0.000322143
0.000667221
0.00133953
0.00265627
0.00484706
0.0074607
0.0103922
0.012057
0.0115792
0.0106393
0.00880322
0.00583812
0.00351925
0.00202979
0.00143329
2.18055e-08
2.26401e-07
7.3738e-07
2.07247e-06
5.09506e-06
1.125e-05
2.31933e-05
4.65976e-05
9.43723e-05
0.000206333
0.000366068
0.000552757
0.000619866
0.000536603
0.000478233
0.000342056
0.000203706
0.000121529
8.34996e-05
0.00028017
0.111776
0.108871
0.115434
0.158178
0.294518
0.597706
1.08506
1.67919
2.28501
2.83993
3.33601
3.83936
4.51976
5.66533
8.00594
13.1373
26.0678
62.7045
188.934
768.441
0.109443
0.110434
0.121002
0.171154
0.32324
0.648835
1.15052
1.74407
2.34294
2.88956
3.3766
3.86924
4.54168
5.67845
8.01707
13.1365
26.0203
62.4199
187.086
761.03
0.105895
0.111411
0.127902
0.189706
0.363799
0.714742
1.22555
1.81057
2.3973
2.93361
3.41202
3.89569
4.56285
5.69322
8.03434
13.1472
25.9951
62.1698
185.001
750.449
0.103616
0.113936
0.138049
0.215874
0.417455
0.793245
1.3052
1.8748
2.4466
2.97211
3.44287
3.91914
4.58307
5.70839
8.05485
13.1646
25.9847
61.951
182.729
735.32
0.104428
0.119587
0.153387
0.252118
0.484695
0.879294
1.38153
1.93043
2.48688
3.00279
3.46772
3.93842
4.6011
5.7227
8.07713
13.1873
25.988
61.7772
180.374
713.2
0.109437
0.129634
0.175813
0.299834
0.562061
0.963219
1.44516
1.97185
2.51525
3.02407
3.48561
3.95287
4.61635
5.73571
8.10049
13.214
26.0044
61.6662
178.23
680.316
0.119284
0.144755
0.206148
0.356619
0.639401
1.03165
1.48756
1.99516
2.52979
3.03487
3.49588
3.96208
4.62838
5.74703
8.12406
13.2439
26.0319
61.6315
176.944
631.413
0.132575
0.163783
0.241697
0.41289
0.700657
1.07257
1.50442
1.99949
2.53037
3.03529
3.49871
3.96618
4.63696
5.75626
8.14658
13.2754
26.0672
61.6645
177.725
559.42
0.144575
0.182692
0.273762
0.45293
0.731552
1.08196
1.49765
1.98724
2.51885
3.02691
3.49541
3.96614
4.64241
5.76346
8.1672
13.3071
26.1071
61.6965
182.653
639.703
0.150063
0.19504
0.290048
0.464498
0.729068
1.06554
1.47351
1.96301
2.49878
3.01256
3.48814
3.96361
4.64566
5.76927
8.1856
13.3385
26.1506
61.5815
185.408
763.107
0.141053
0.187137
0.282296
0.45367
0.709125
1.03303
1.4386
1.93131
2.47351
2.9947
3.47856
3.95972
4.64721
5.77412
8.20136
13.3693
26.2011
61.375
182.934
753.8
0.114227
0.160552
0.25506
0.425513
0.678093
0.99819
1.39907
1.89596
2.44594
2.97548
3.46804
3.95533
4.64741
5.77833
8.21398
13.3992
26.2607
61.2424
180.394
740.178
0.0842363
0.128165
0.221323
0.393092
0.645522
0.963989
1.37106
1.87247
2.42714
2.96005
3.45897
3.95201
4.64725
5.7828
8.22366
13.4282
26.3263
61.199
178.197
726.515
0.0563215
0.0963965
0.188858
0.364017
0.618901
0.940403
1.35351
1.86069
2.41804
2.95256
3.45264
3.95087
4.64748
5.78834
8.23079
13.4571
26.3954
61.2419
176.427
712.93
0.0336669
0.0700007
0.162752
0.342054
0.599511
0.924225
1.34273
1.85544
2.41612
2.9511
3.45026
3.95223
4.64848
5.79556
8.23572
13.4865
26.4645
61.3656
175.169
699.371
0.0192266
0.0509457
0.145056
0.329636
0.589309
0.915532
1.33937
1.85743
2.42052
2.95548
3.45284
3.95688
4.65076
5.80506
8.23887
13.5177
26.5293
61.561
174.27
685.916
0.0102554
0.0378808
0.136543
0.328342
0.589687
0.916592
1.3438
1.86575
2.42991
2.9647
3.45935
3.96496
4.65452
5.81702
8.24024
13.5515
26.585
61.8242
173.447
672.56
0.00603252
0.032004
0.139803
0.339646
0.600976
0.927374
1.35618
1.88064
2.44502
2.97822
3.46914
3.97634
4.65972
5.83121
8.2393
13.5882
26.6214
62.1604
172.411
659.17
0.00390493
0.033244
0.157331
0.363662
0.622713
0.948135
1.37963
1.90545
2.46751
2.99698
3.48312
3.9913
4.66693
5.8478
8.23642
13.6267
26.6155
62.5943
171.197
645.606
0.00288872
0.0400202
0.19025
0.401283
0.656142
0.980975
1.41655
1.94294
2.50061
3.02385
3.50309
4.01136
4.6778
5.86802
8.23359
13.6491
26.5556
62.9005
170.337
631.908
0.00267816
0.0539361
0.241991
0.451081
0.701679
1.02487
1.46555
1.99105
2.54388
3.05937
3.5315
4.03721
4.69601
5.8903
8.24141
13.6573
26.4907
62.7822
166.84
617.265
0.00277559
0.0572888
0.250965
0.460847
0.714419
1.03982
1.48237
2.00664
2.55705
3.07006
3.54092
4.04623
4.70365
5.89684
8.24725
13.6501
26.4683
62.577
166.161
613.301
0.00302557
0.0614036
0.261598
0.475409
0.736371
1.06637
1.51108
2.03227
2.57756
3.08625
3.55551
4.06084
4.71756
5.91083
8.26275
13.653
26.458
62.2986
165.2
607.342
0.00340858
0.0666635
0.274819
0.493444
0.762268
1.09664
1.54266
2.05972
2.59881
3.10265
3.57031
4.07605
4.73289
5.92711
8.28161
13.6605
26.4535
61.9996
164.16
600.624
0.0039511
0.0734107
0.291479
0.515329
0.79156
1.12948
1.57563
2.08764
2.61957
3.11802
3.58419
4.09086
4.74885
5.945
8.30308
13.6721
26.4537
61.6889
163.045
593.322
0.00470649
0.0820193
0.312011
0.541074
0.823664
1.16412
1.60938
2.11523
2.63911
3.13178
3.59643
4.10471
4.76499
5.96409
8.32684
13.6878
26.4585
61.3731
161.884
585.629
0.00575224
0.0929098
0.336621
0.570431
0.857851
1.19998
1.64302
2.14177
2.65687
3.14345
3.60671
4.11714
4.78098
5.98398
8.35262
13.7071
26.468
61.0586
160.723
577.8
0.00719418
0.106547
0.36533
0.602936
0.893412
1.23624
1.67582
2.16665
2.67241
3.15271
3.61469
4.12774
4.79649
6.00424
8.38017
13.7298
26.4825
60.7524
159.622
570.158
0.00917478
0.123424
0.397971
0.637919
0.929657
1.27208
1.70708
2.18934
2.68544
3.15938
3.62017
4.13631
4.81119
6.02449
8.40915
13.7553
26.5026
60.4624
158.653
563.08
0.0118848
0.144042
0.434161
0.674491
0.965709
1.30669
1.73612
2.20936
2.69569
3.16335
3.62305
4.14264
4.82478
6.04437
8.43913
13.7831
26.5287
60.197
157.895
556.982
0.0155794
0.168866
0.473267
0.711572
1.0007
1.33927
1.76229
2.22632
2.70301
3.16462
3.62338
4.1466
4.83698
6.06354
8.46969
13.8126
26.5614
59.9644
157.427
552.295
0.0205992
0.198273
0.514374
0.747947
1.03373
1.36906
1.78507
2.23991
2.70733
3.16324
3.62122
4.14816
4.84753
6.08164
8.50036
13.8436
26.6011
59.7724
157.326
549.428
0.0273986
0.232476
0.556285
0.782685
1.06397
1.39535
1.80397
2.24989
2.70863
3.15934
3.61674
4.14737
4.85623
6.09834
8.53071
13.8753
26.6477
59.6276
157.658
548.731
0.0365837
0.271428
0.597517
0.814809
1.09062
1.41756
1.81864
2.25612
2.70696
3.15307
3.61011
4.14431
4.86287
6.11332
8.56027
13.9071
26.7013
59.5345
158.472
550.469
0.0489632
0.314711
0.636346
0.843409
1.11285
1.43518
1.82895
2.25854
2.70241
3.14463
3.60157
4.13912
4.86731
6.12625
8.58857
13.9382
26.7614
59.4951
159.792
554.787
0.0656172
0.361416
0.670889
0.867453
1.13023
1.44788
1.83467
2.25729
2.6951
3.13419
3.59131
4.13195
4.86942
6.13687
8.61513
13.9679
26.8273
59.5081
161.617
561.689
0.0879901
0.410053
0.699705
0.886303
1.14237
1.45539
1.83571
2.25237
2.68523
3.12192
3.57955
4.12298
4.86913
6.14493
8.63949
13.9954
26.8976
59.5681
163.911
571.026
0.118016
0.458404
0.721891
0.899528
1.149
1.4576
1.83209
2.24385
2.67298
3.10803
3.56646
4.11237
4.8664
6.15021
8.66117
14.0202
26.9705
59.6631
166.606
582.498
0.158285
0.503432
0.737092
0.906831
1.14998
1.45452
1.82394
2.23191
2.65849
3.09272
3.55221
4.10029
4.8612
6.15249
8.67976
14.0416
27.0443
59.7793
169.6
595.67
0.212259
0.542144
0.745093
0.908196
1.14535
1.44627
1.81147
2.21672
2.64185
3.07605
3.53694
4.08689
4.85352
6.15167
8.69493
14.0591
27.1193
59.9134
172.799
610.002
0.314384
0.583245
0.746361
0.902032
1.13248
1.42943
1.79092
2.19434
2.61925
3.05446
3.51753
4.0693
4.84069
6.14574
8.70476
14.0688
27.1919
60.0319
176.528
626.931
0.50632
0.596923
0.701388
0.856744
1.0797
1.37565
1.73789
2.14514
2.57416
3.01362
3.47943
4.03003
4.80899
6.11668
8.68099
14.0823
27.0561
60.2843
171.825
641.387
0.490278
0.553759
0.654
0.808556
1.03089
1.32843
1.69439
2.10683
2.54083
2.98406
3.45151
4.00236
4.78252
6.08932
8.656
14.0846
27.0843
60.6926
169.788
653.039
0.430072
0.492268
0.592445
0.745969
0.967465
1.26656
1.63707
2.05629
2.49757
2.94663
3.41731
3.9702
4.75204
6.05826
8.62409
14.0633
27.1315
60.9553
169.751
662.571
0.371968
0.433097
0.531215
0.68191
0.901808
1.20212
1.57752
2.00443
2.45382
2.90896
3.38243
3.93676
4.71894
6.02254
8.58287
14.0248
27.1471
61.1945
170.639
669.776
0.318839
0.376367
0.470041
0.616003
0.832927
1.13379
1.51448
1.9502
2.40888
2.87082
3.34718
3.90399
4.68544
5.98469
8.53652
13.9765
27.1487
61.4313
171.564
674.103
0.271346
0.323659
0.41103
0.550729
0.763108
1.06368
1.44987
1.89516
2.36389
2.83315
3.31313
3.87202
4.65178
5.94513
8.48606
13.9193
27.1364
61.6637
172.224
675.241
0.229731
0.275592
0.355372
0.487309
0.693864
0.993242
1.38468
1.84015
2.31952
2.79651
3.28145
3.84174
4.61897
5.90488
8.43284
13.8555
27.1125
61.8937
172.643
673.196
0.19379
0.232451
0.30415
0.427851
0.627729
0.925095
1.32112
1.78645
2.27704
2.76298
3.2528
3.81383
4.5876
5.86496
8.37802
13.7864
27.0767
62.1298
172.975
668.337
0.163332
0.195247
0.258637
0.373196
0.565515
0.860264
1.26079
1.73625
2.23842
2.73343
3.22787
3.78904
4.55842
5.82632
8.32285
13.7134
27.0295
62.3834
173.421
661.392
0.139223
0.16428
0.218957
0.323728
0.507696
0.799294
1.2044
1.69041
2.20447
2.70849
3.20731
3.768
4.53208
5.78979
8.26857
13.6379
26.9705
62.6672
174.208
653.675
0.121102
0.13937
0.185243
0.279833
0.454798
0.742793
1.15262
1.64965
2.17585
2.68885
3.19167
3.75112
4.50916
5.75613
8.21645
13.5614
26.8983
62.978
175.579
646.139
0.108465
0.120283
0.15756
0.241843
0.407415
0.691573
1.10635
1.61476
2.15321
2.67507
3.1814
3.73877
4.49021
5.72612
8.16793
13.4861
26.8141
63.3105
177.82
640.201
0.100702
0.106668
0.13582
0.210001
0.366138
0.646492
1.06656
1.58658
2.13719
2.66762
3.17688
3.73136
4.47576
5.70052
8.12437
13.4147
26.7205
63.6678
181.382
642.467
0.0970774
0.0980088
0.119789
0.184456
0.331512
0.608374
1.03415
1.56588
2.12838
2.66685
3.17831
3.72914
4.4662
5.67991
8.08707
13.3496
26.6205
64.0167
186.686
664.939
0.0967218
0.0936471
0.109103
0.165276
0.304064
0.578042
1.00998
1.5533
2.12712
2.67287
3.18579
3.73229
4.46183
5.66489
8.05721
13.2938
26.5191
64.1645
191.309
663.803
0.0986712
0.0928246
0.103319
0.152492
0.284339
0.556327
0.994813
1.54928
2.13348
2.68557
3.19917
3.7407
4.4627
5.65562
8.03536
13.2488
26.4216
64.0205
195.241
789.756
0.102023
0.0947103
0.101602
0.145441
0.272553
0.544695
0.989715
1.55403
2.14733
2.70465
3.21818
3.75416
4.46868
5.652
8.02162
13.2151
26.3406
63.7421
194.074
787.335
0.106392
0.0985798
0.102829
0.142588
0.266932
0.541891
0.995921
1.57013
2.17073
2.73137
3.24328
3.77243
4.47889
5.65265
8.01388
13.1904
26.2659
63.4752
192.637
780.903
0.111591
0.103809
0.106299
0.143459
0.267757
0.549444
1.01566
1.60065
2.20761
2.76942
3.27703
3.79696
4.49405
5.65727
8.01083
13.1707
26.1951
63.2134
191.195
775.337
0.0727925
0.399412
0.456324
0.402104
0.344992
0.294588
0.250848
0.213361
0.181818
0.155162
0.134607
0.119922
0.110629
0.10606
0.105308
0.107203
0.110337
0.113229
0.115785
0.120316
0.0350449
0.315157
0.424468
0.382972
0.328731
0.281164
0.240978
0.207315
0.179524
0.1565
0.139028
0.127434
0.121375
0.120206
0.122815
0.127445
0.131655
0.132275
0.128658
0.128852
0.0186739
0.244253
0.388156
0.365043
0.315588
0.271311
0.234542
0.204347
0.179988
0.160444
0.145981
0.137291
0.1343
0.136607
0.143106
0.151491
0.157629
0.156738
0.143597
0.134198
0.00931379
0.181954
0.344253
0.346856
0.304694
0.263886
0.230216
0.203056
0.181487
0.164481
0.152042
0.144773
0.142674
0.145392
0.151657
0.158697
0.162644
0.162517
0.147705
0.127057
0.00500468
0.125724
0.295358
0.325851
0.294138
0.257243
0.226359
0.201662
0.182143
0.166752
0.155426
0.148242
0.144896
0.144618
0.145469
0.14444
0.143041
0.138403
0.129634
0.11306
0.00305152
0.0825245
0.236232
0.295971
0.280878
0.249806
0.221771
0.199203
0.181423
0.167437
0.156928
0.149613
0.144838
0.141535
0.137679
0.130968
0.12363
0.117893
0.11062
0.100923
0.00189478
0.0525803
0.176762
0.25173
0.259413
0.239631
0.216095
0.195675
0.179293
0.166373
0.156386
0.148764
0.142569
0.136608
0.129742
0.122378
0.114119
0.106513
0.0996889
0.0917981
0.00116332
0.0328417
0.125515
0.200906
0.227004
0.222162
0.20656
0.189908
0.175414
0.163551
0.153927
0.145925
0.138735
0.131461
0.123619
0.115787
0.108119
0.101278
0.0944837
0.0860656
0.00069968
0.0200379
0.0851268
0.151144
0.187057
0.195994
0.190525
0.179816
0.168414
0.158003
0.148865
0.140712
0.133055
0.125469
0.117903
0.110716
0.104139
0.0980348
0.0907416
0.0816243
0.000410279
0.011895
0.0554242
0.107749
0.145158
0.163146
0.167122
0.163462
0.156543
0.148703
0.14091
0.133405
0.126143
0.119102
0.112358
0.10605
0.100097
0.0938394
0.0862991
0.0771212
0.000233641
0.00683818
0.0346973
0.0730568
0.106183
0.127708
0.138241
0.141013
0.139163
0.134914
0.129571
0.123801
0.117922
0.112109
0.10638
0.100747
0.0949767
0.0885113
0.0807573
0.0715795
0.000128852
0.00379481
0.0208856
0.0474178
0.0736359
0.0940952
0.107434
0.114516
0.117013
0.116495
0.114141
0.110729
0.106729
0.102408
0.0977647
0.0927876
0.0872182
0.0806495
0.0728405
0.0638908
6.89746e-05
0.00203794
0.0120714
0.0295647
0.0487982
0.0657301
0.0786466
0.0873763
0.0924683
0.0947505
0.0950128
0.0938748
0.0917585
0.088904
0.0852786
0.0809197
0.0756602
0.0692996
0.0618843
0.0537186
3.6019e-05
0.0010646
0.00668647
0.0177383
0.0310834
0.0439537
0.0548021
0.0631093
0.0688985
0.0724987
0.0743055
0.0746812
0.0738946
0.0720976
0.0692622
0.0655316
0.060852
0.0552168
0.0487836
0.0419461
1.83483e-05
0.000541215
0.00353841
0.0101881
0.0190457
0.0282695
0.0366389
0.0435789
0.0488932
0.0526249
0.0549133
0.055923
0.0557747
0.0545433
0.0522579
0.0491574
0.0452464
0.0405972
0.0354007
0.0300045
8.8887e-06
0.000261401
0.00176007
0.00548174
0.0110285
0.0173025
0.0233867
0.0287352
0.0330828
0.0363351
0.0384796
0.039553
0.0395854
0.0385518
0.036661
0.0340484
0.0307837
0.0270187
0.0229813
0.0189159
3.7324e-06
0.000109057
0.000756988
0.00257049
0.00566516
0.00956302
0.0136459
0.0174418
0.0206581
0.0231317
0.0247759
0.0255462
0.0254167
0.0242964
0.0225475
0.0202788
0.0176533
0.0148645
0.0120981
0.00948732
1.14876e-06
3.32497e-05
0.000229486
0.000856561
0.00217319
0.00409094
0.006305
0.00847491
0.0103309
0.0116919
0.012451
0.0125524
0.0119835
0.0108294
0.00948192
0.008041
0.00661339
0.00527718
0.0040615
0.00299708
2.32453e-07
6.64244e-06
4.328e-05
0.000158253
0.000444544
0.000969887
0.00162421
0.00227625
0.00279627
0.00309308
0.00312437
0.00289424
0.00246271
0.00207144
0.00171104
0.00137732
0.00107706
0.000815811
0.000588702
0.00039692
2.60087e-08
6.04432e-07
2.72277e-06
8.44366e-06
2.10134e-05
4.41065e-05
7.76583e-05
0.000110102
0.000132124
0.000138532
0.000129734
0.00011026
8.84183e-05
7.35156e-05
6.03457e-05
4.83111e-05
3.75503e-05
2.82011e-05
2.01714e-05
1.3558e-05
)
;

boundaryField
{
    right
    {
        type            cyclic;
    }
    left
    {
        type            cyclic;
    }
    outerWall
    {
        type            kqRWallFunction;
        value           nonuniform List<scalar> 
60
(
768.441
761.03
750.449
735.32
713.2
680.316
631.413
559.42
639.703
763.107
753.8
740.178
726.515
712.93
699.371
685.916
672.56
659.17
645.606
631.908
617.265
613.301
607.342
600.624
593.322
585.629
577.8
570.158
563.08
556.982
552.295
549.428
548.731
550.469
554.787
561.689
571.026
582.498
595.67
610.002
626.931
641.387
653.039
662.571
669.776
674.103
675.241
673.196
668.337
661.392
653.675
646.139
640.201
642.467
664.939
663.803
789.756
787.335
780.903
775.337
)
;
    }
    stirrerWall
    {
        type            kqRWallFunction;
        value           nonuniform List<scalar> 
100
(
8.66335e-06
6.22359e-06
4.62147e-06
3.43721e-06
2.50488e-06
1.79751e-06
1.32289e-06
1.10027e-06
1.13051e-06
1.44457e-06
2.07229e-06
3.06453e-06
4.40277e-06
5.83431e-06
6.75301e-06
6.48922e-06
4.80562e-06
2.35028e-06
5.63718e-07
2.18055e-08
2.18055e-08
2.26401e-07
7.3738e-07
2.07247e-06
5.09506e-06
1.125e-05
2.31933e-05
4.65976e-05
9.43723e-05
0.000206333
0.000366068
0.000552757
0.000619866
0.000536603
0.000478233
0.000342056
0.000203706
0.000121529
8.34996e-05
0.00028017
0.00267816
0.00277559
0.00302557
0.00340858
0.0039511
0.00470649
0.00575224
0.00719418
0.00917478
0.0118848
0.0155794
0.0205992
0.0273986
0.0365837
0.0489632
0.0656172
0.0879901
0.118016
0.158285
0.212259
0.0727925
0.0350449
0.0186739
0.00931379
0.00500468
0.00305152
0.00189478
0.00116332
0.00069968
0.000410279
0.000233641
0.000128852
6.89746e-05
3.6019e-05
1.83483e-05
8.8887e-06
3.7324e-06
1.14876e-06
2.32453e-07
2.60087e-08
2.60087e-08
6.04432e-07
2.72277e-06
8.44366e-06
2.10134e-05
4.41065e-05
7.76583e-05
0.000110102
0.000132124
0.000138532
0.000129734
0.00011026
8.84183e-05
7.35156e-05
6.03457e-05
4.83111e-05
3.75503e-05
2.82011e-05
2.01714e-05
1.3558e-05
)
;
    }
    top
    {
        type            empty;
    }
    bottom
    {
        type            empty;
    }
}


// ************************************************************************* //
