/*--------------------------------*- C++ -*----------------------------------*\
  =========                 |
  \\      /  F ield         | OpenFOAM: The Open Source CFD Toolbox
   \\    /   O peration     | Website:  https://openfoam.org
    \\  /    A nd           | Version:  10
     \\/     M anipulation  |
\*---------------------------------------------------------------------------*/
FoamFile
{
    format      ascii;
    class       volScalarField;
    location    "900";
    object      nut;
}
// * * * * * * * * * * * * * * * * * * * * * * * * * * * * * * * * * * * * * //

dimensions      [0 2 -1 0 0 0 0];

internalField   nonuniform List<scalar> 
420
(
1.04478e-20
6.42853e-20
1.91091e-19
3.74619e-19
5.79521e-19
7.65941e-19
8.65299e-19
8.34078e-19
7.19772e-19
5.95283e-19
1.04473e-20
6.40722e-20
1.87469e-19
3.64775e-19
5.67574e-19
7.57542e-19
8.68177e-19
8.48681e-19
7.22434e-19
5.72598e-19
1.04471e-20
6.39761e-20
1.83106e-19
3.5497e-19
5.53555e-19
7.41582e-19
8.54423e-19
8.3681e-19
7.03068e-19
5.38903e-19
1.04472e-20
6.39101e-20
1.80141e-19
3.44921e-19
5.3275e-19
7.0909e-19
8.15764e-19
7.97193e-19
6.57443e-19
4.86671e-19
1.04476e-20
6.37597e-20
1.77091e-19
3.28598e-19
4.92554e-19
6.41888e-19
7.31886e-19
7.12162e-19
5.776e-19
4.15253e-19
1.04483e-20
6.31049e-20
1.68003e-19
2.89423e-19
4.08431e-19
5.13012e-19
5.78386e-19
5.67045e-19
4.62348e-19
3.28289e-19
1.04493e-20
6.00421e-20
1.38471e-19
2.07752e-19
2.70113e-19
3.26508e-19
3.68405e-19
3.75583e-19
3.23916e-19
2.34536e-19
1.04506e-20
4.77878e-20
8.08978e-20
1.05502e-19
1.29466e-19
1.53704e-19
1.76391e-19
1.91599e-19
1.85368e-19
1.43781e-19
1.04522e-20
2.15594e-20
2.81176e-20
3.47239e-20
4.19278e-20
4.9722e-20
5.79659e-20
6.61542e-20
7.28388e-20
6.55246e-20
2.82342e-21
3.6643e-21
4.61494e-21
5.67535e-21
6.84552e-21
8.12545e-21
9.51514e-21
1.10146e-20
1.26238e-20
1.43428e-20
5.00367e-19
4.56897e-19
4.92641e-19
7.13747e-19
1.02445e-18
1.03796e-18
6.81393e-19
5.66966e-19
2.56272e-19
9.71129e-20
4.61462e-19
4.12821e-19
4.52205e-19
6.7334e-19
1.01243e-18
9.71384e-19
6.74592e-19
5.73176e-19
2.57596e-19
9.7888e-20
4.17486e-19
3.68234e-19
4.13477e-19
6.37496e-19
1.00108e-18
9.65442e-19
6.75329e-19
5.78023e-19
2.62181e-19
9.77558e-20
3.65343e-19
3.23062e-19
3.76421e-19
6.06566e-19
9.90554e-19
9.5983e-19
6.6424e-19
5.80852e-19
2.66048e-19
9.73721e-20
3.05164e-19
2.76873e-19
3.41978e-19
5.82023e-19
9.8117e-19
9.50996e-19
6.46216e-19
5.8272e-19
2.69341e-19
9.68092e-20
2.39944e-19
2.30671e-19
3.0983e-19
5.66178e-19
9.76625e-19
9.4944e-19
6.28084e-19
5.83525e-19
2.73331e-19
9.59737e-20
1.74591e-19
1.8621e-19
2.80811e-19
5.61129e-19
9.8077e-19
9.3966e-19
6.11764e-19
5.83121e-19
2.76839e-19
9.48934e-20
1.1441e-19
1.45237e-19
2.56314e-19
5.71015e-19
9.92304e-19
9.47111e-19
5.97448e-19
5.81357e-19
2.7813e-19
9.3647e-20
6.46673e-20
1.09392e-19
2.38963e-19
6.02691e-19
9.97279e-19
9.77102e-19
6.00335e-19
5.78103e-19
2.77342e-19
9.23352e-20
2.97158e-20
8.0326e-20
2.3531e-19
6.67072e-19
9.73124e-19
9.99725e-19
6.43289e-19
5.73155e-19
2.76198e-19
9.1021e-20
1.03958e-20
6.3925e-20
2.70278e-19
7.75668e-19
9.43517e-19
9.57159e-19
5.91379e-19
5.66294e-19
2.75142e-19
8.97699e-20
1.03958e-20
7.8732e-20
3.5496e-19
7.58521e-19
9.29303e-19
9.58697e-19
5.50588e-19
5.62504e-19
2.76886e-19
8.85846e-20
5.21279e-20
1.9854e-19
5.63131e-19
7.81497e-19
9.50117e-19
9.74376e-19
5.667e-19
5.59128e-19
2.74382e-19
8.74748e-20
2.43544e-19
5.03631e-19
6.66054e-19
7.68788e-19
9.16266e-19
1.02979e-18
5.88471e-19
5.52555e-19
2.70413e-19
8.6936e-20
5.48444e-19
6.09813e-19
6.52634e-19
7.49287e-19
8.85813e-19
1.02651e-18
5.76801e-19
5.43521e-19
2.66163e-19
8.64716e-20
6.21197e-19
6.20746e-19
6.50967e-19
7.51884e-19
8.85219e-19
1.01768e-18
5.84755e-19
5.34316e-19
2.61164e-19
8.63489e-20
6.35167e-19
6.13089e-19
6.4632e-19
7.56993e-19
8.93835e-19
1.00773e-18
6.02112e-19
5.27319e-19
2.56327e-19
8.65854e-20
6.28455e-19
6.00191e-19
6.48257e-19
7.83052e-19
9.46945e-19
9.9581e-19
6.19416e-19
5.23918e-19
2.55429e-19
8.7255e-20
6.26647e-19
6.26987e-19
7.1483e-19
8.87159e-19
1.08785e-18
9.84008e-19
6.20744e-19
5.2363e-19
2.56767e-19
8.83623e-20
6.05328e-19
5.96923e-19
6.6874e-19
8.84036e-19
1.07685e-18
9.44425e-19
6.00476e-19
5.24828e-19
2.57727e-19
8.95573e-20
5.66978e-19
5.45919e-19
6.12611e-19
8.4273e-19
1.05648e-18
9.67948e-19
6.42386e-19
5.28873e-19
2.51826e-19
9.08721e-20
5.34374e-19
5.03101e-19
5.51559e-19
7.97328e-19
1.04291e-18
9.77296e-19
6.55656e-19
5.4485e-19
2.46392e-19
9.4935e-20
1.43428e-20
1.12695e-19
3.9812e-19
6.24879e-19
6.74349e-19
6.83497e-19
6.80678e-19
6.60545e-19
6.31285e-19
6.1015e-19
1.26238e-20
8.51025e-20
2.9632e-19
5.79376e-19
7.29484e-19
7.64643e-19
7.53671e-19
7.32311e-19
7.18015e-19
7.13066e-19
1.10146e-20
6.77853e-20
2.19191e-19
4.63917e-19
6.77717e-19
7.81024e-19
8.10699e-19
8.12044e-19
8.08813e-19
8.16739e-19
9.51514e-21
5.3057e-20
1.56008e-19
3.32859e-19
5.43686e-19
7.07631e-19
7.96853e-19
8.36126e-19
8.52185e-19
8.60659e-19
8.12545e-21
4.48389e-20
1.2295e-19
2.45127e-19
3.98974e-19
5.4985e-19
6.65033e-19
7.36553e-19
7.72043e-19
7.77544e-19
6.84552e-21
3.8251e-20
1.02192e-19
1.93287e-19
3.01098e-19
4.08672e-19
4.98092e-19
5.59468e-19
5.91349e-19
5.93302e-19
5.67535e-21
3.22343e-20
8.55341e-20
1.55985e-19
2.30183e-19
2.95494e-19
3.43687e-19
3.72998e-19
3.8573e-19
3.84037e-19
4.61494e-21
2.65072e-20
6.88726e-20
1.16544e-19
1.54331e-19
1.77799e-19
1.89813e-19
1.94606e-19
1.95238e-19
1.93221e-19
3.6643e-21
2.06707e-20
4.39239e-20
5.76445e-20
6.31926e-20
6.47757e-20
6.50882e-20
6.49966e-20
6.48099e-20
6.45614e-20
2.82342e-21
1.04522e-20
1.04506e-20
1.04493e-20
1.04483e-20
1.04476e-20
1.04472e-20
1.04471e-20
1.04473e-20
1.04478e-20
)
;

boundaryField
{
    right
    {
        type            cyclic;
    }
    left
    {
        type            cyclic;
    }
    outerWall
    {
        type            nutkWallFunction;
        Cmu             0.09;
        kappa           0.41;
        E               9.8;
        value           uniform 0;
    }
    stirrerWall
    {
        type            nutkWallFunction;
        Cmu             0.09;
        kappa           0.41;
        E               9.8;
        value           uniform 0;
    }
    top
    {
        type            empty;
    }
    bottom
    {
        type            empty;
    }
}


// ************************************************************************* //
