/*--------------------------------*- C++ -*----------------------------------*\
  =========                 |
  \\      /  F ield         | OpenFOAM: The Open Source CFD Toolbox
   \\    /   O peration     | Website:  https://openfoam.org
    \\  /    A nd           | Version:  10
     \\/     M anipulation  |
\*---------------------------------------------------------------------------*/
FoamFile
{
    format      ascii;
    class       volScalarField;
    location    "900";
    object      nut;
}
// * * * * * * * * * * * * * * * * * * * * * * * * * * * * * * * * * * * * * //

dimensions      [0 2 -1 0 0 0 0];

internalField   nonuniform List<scalar> 
2000
(
9.97913e-11
1.28307e-08
2.20257e-07
1.20229e-06
3.71992e-06
8.44788e-06
1.57732e-05
2.55318e-05
3.67572e-05
4.79083e-05
5.76893e-05
6.5787e-05
7.29565e-05
8.03413e-05
8.91422e-05
9.88089e-05
0.000106658
0.000106753
9.99317e-05
9.28733e-05
7.16859e-11
9.14389e-09
1.55446e-07
8.56239e-07
2.6618e-06
6.07004e-06
1.13652e-05
1.84382e-05
2.66904e-05
3.51915e-05
4.3083e-05
4.99569e-05
5.60569e-05
6.1954e-05
6.86432e-05
7.65724e-05
8.28735e-05
8.63454e-05
8.60843e-05
8.41992e-05
5.32307e-11
7.37149e-09
1.21731e-07
6.45901e-07
1.96086e-06
4.40838e-06
8.17237e-06
1.31819e-05
1.9078e-05
2.52939e-05
3.1267e-05
3.66552e-05
4.14881e-05
4.59832e-05
5.04443e-05
5.50689e-05
6.09804e-05
6.77179e-05
7.21401e-05
7.4465e-05
3.95896e-11
5.91252e-09
1.00503e-07
5.08568e-07
1.4796e-06
3.23586e-06
5.89142e-06
9.39921e-06
1.35379e-05
1.79608e-05
2.23117e-05
2.63473e-05
3.00276e-05
3.33738e-05
3.62381e-05
3.98013e-05
4.52832e-05
5.30052e-05
6.02612e-05
6.57982e-05
2.88508e-11
4.54676e-09
8.1025e-08
4.05928e-07
1.13257e-06
2.39585e-06
4.26409e-06
6.70619e-06
9.58481e-06
1.269e-05
1.58021e-05
1.87681e-05
2.15554e-05
2.41722e-05
2.67106e-05
2.99371e-05
3.49249e-05
4.27963e-05
5.17342e-05
5.9438e-05
2.07033e-11
3.34673e-09
6.12677e-08
3.13162e-07
8.64353e-07
1.77733e-06
3.09164e-06
4.78893e-06
6.78693e-06
8.96223e-06
1.1187e-05
1.33799e-05
1.55393e-05
1.77095e-05
2.01989e-05
2.35387e-05
2.85551e-05
3.65746e-05
4.65585e-05
5.56729e-05
1.52369e-11
2.46132e-09
4.38414e-08
2.22069e-07
6.4018e-07
1.30522e-06
2.23355e-06
3.41672e-06
4.80919e-06
6.34442e-06
7.95838e-06
9.62579e-06
1.13855e-05
1.33274e-05
1.59319e-05
1.97089e-05
2.535e-05
3.39652e-05
4.4748e-05
5.45568e-05
1.26729e-11
2.02082e-09
3.36754e-08
1.60013e-07
4.44617e-07
9.31864e-07
1.5941e-06
2.42728e-06
3.41e-06
4.51465e-06
5.726e-06
7.06908e-06
8.63828e-06
1.0624e-05
1.36677e-05
1.8386e-05
2.53034e-05
3.49973e-05
4.61435e-05
5.54717e-05
1.30214e-11
2.03303e-09
3.1183e-08
1.32995e-07
3.30868e-07
6.53551e-07
1.12495e-06
1.72041e-06
2.43215e-06
3.25959e-06
4.22826e-06
5.42912e-06
7.06241e-06
9.51912e-06
1.36177e-05
2.00305e-05
2.87756e-05
3.93281e-05
4.94663e-05
5.64767e-05
1.66393e-11
2.47837e-09
3.5369e-08
1.41947e-07
3.19453e-07
5.52814e-07
8.61964e-07
1.27778e-06
1.80819e-06
2.47105e-06
3.34906e-06
4.64863e-06
6.79898e-06
1.04706e-05
1.65982e-05
2.53086e-05
3.53417e-05
4.49074e-05
5.10197e-05
5.40912e-05
2.38705e-11
3.38235e-09
4.4761e-08
1.75989e-07
3.95527e-07
6.59189e-07
9.20422e-07
1.19998e-06
1.59851e-06
2.20054e-06
3.18838e-06
5.00904e-06
8.47891e-06
1.46701e-05
2.44256e-05
3.47586e-05
4.12402e-05
4.36833e-05
4.41239e-05
4.56459e-05
3.53015e-11
4.75456e-09
5.83349e-08
2.18408e-07
5.15525e-07
9.29568e-07
1.34716e-06
1.67868e-06
2.02802e-06
2.70748e-06
4.1322e-06
6.96493e-06
1.25381e-05
2.03474e-05
2.87498e-05
3.35673e-05
3.48239e-05
3.35092e-05
3.15924e-05
3.20628e-05
5.07196e-11
6.47241e-09
7.25926e-08
2.58592e-07
6.25447e-07
1.25879e-06
2.06024e-06
2.76854e-06
3.37831e-06
4.39925e-06
6.76555e-06
1.11822e-05
1.33498e-05
1.7878e-05
2.712e-05
2.76263e-05
2.51048e-05
2.12645e-05
1.91878e-05
1.96507e-05
6.72144e-11
8.08755e-09
8.06541e-08
2.72776e-07
6.86373e-07
1.527e-06
2.83571e-06
4.27402e-06
5.61849e-06
7.17758e-06
1.01739e-05
1.25486e-05
1.62234e-05
2.22183e-05
2.3368e-05
2.09951e-05
1.66367e-05
1.26852e-05
1.06926e-05
1.07264e-05
7.78033e-11
8.75789e-09
7.4581e-08
2.38169e-07
6.20619e-07
1.51572e-06
3.22899e-06
5.57101e-06
7.97159e-06
9.89116e-06
1.16293e-05
1.62283e-05
1.92321e-05
2.06841e-05
1.92556e-05
1.51684e-05
1.02004e-05
6.48601e-06
4.89426e-06
4.89225e-06
7.47692e-11
7.64893e-09
5.27069e-08
1.57377e-07
4.115e-07
1.04477e-06
2.45754e-06
4.94251e-06
8.06038e-06
1.10316e-05
1.38132e-05
1.64747e-05
1.85815e-05
1.9161e-05
1.71583e-05
1.26044e-05
7.19669e-06
3.79215e-06
2.29634e-06
2.09855e-06
5.53748e-11
4.75153e-09
2.51508e-08
7.08532e-08
1.81633e-07
4.51217e-07
1.08011e-06
2.45533e-06
4.91714e-06
8.08194e-06
1.05879e-05
1.1498e-05
1.23436e-05
1.23445e-05
1.30268e-05
1.13532e-05
7.23125e-06
3.22838e-06
1.4637e-06
9.36878e-07
2.70843e-11
1.54935e-09
6.33188e-09
1.78621e-08
4.61348e-08
1.12669e-07
2.64155e-07
6.15698e-07
1.42344e-06
2.7145e-06
4.30361e-06
6.11479e-06
7.48283e-06
7.7179e-06
7.24155e-06
6.0182e-06
4.1421e-06
1.96827e-06
9.02306e-07
4.87358e-07
6.49679e-12
1.20211e-10
4.53336e-10
1.38846e-09
3.75689e-09
9.24274e-09
2.14695e-08
4.96074e-08
1.18477e-07
2.51057e-07
4.3642e-07
6.7663e-07
8.46546e-07
8.47862e-07
8.13409e-07
6.87463e-07
4.13644e-07
2.27254e-07
1.33831e-07
1.04554e-07
6.44978e-14
7.69982e-13
2.85735e-12
9.07741e-12
2.50468e-11
6.16812e-11
1.41028e-10
3.12637e-10
6.95427e-10
1.66296e-09
3.21449e-09
5.26978e-09
6.3952e-09
5.97316e-09
5.72767e-09
4.39644e-09
2.80303e-09
1.78627e-09
1.30822e-09
4.6697e-09
8.62099e-05
8.06015e-05
8.23507e-05
0.000111313
0.000216085
0.000498997
0.00113184
0.00228998
0.00396452
0.00589069
0.00774412
0.00925952
0.0102409
0.0106883
0.0112063
0.0123419
0.0149028
0.0197969
0.029987
0.0488814
8.13056e-05
7.85578e-05
8.28947e-05
0.000116255
0.000231857
0.000539127
0.00121139
0.00240604
0.00408746
0.00599418
0.00782101
0.00930725
0.0102669
0.0106973
0.0112108
0.0123395
0.0148849
0.0197067
0.0296283
0.048461
7.51406e-05
7.55726e-05
8.36972e-05
0.000124302
0.000256549
0.00059748
0.00131819
0.00255015
0.00422976
0.00610777
0.00790251
0.00935648
0.0102929
0.0107065
0.0112181
0.0123422
0.014877
0.0196272
0.0292067
0.0477743
6.94855e-05
7.30076e-05
8.58336e-05
0.000136602
0.000291759
0.000675423
0.00145039
0.00271472
0.00438205
0.00622537
0.00798595
0.00940606
0.0103178
0.010714
0.0112251
0.0123463
0.0148754
0.0195606
0.0287265
0.0468353
6.53063e-05
7.16537e-05
9.02663e-05
0.000154723
0.000339616
0.000773461
0.00160247
0.00288735
0.00453162
0.00633817
0.00806594
0.0094528
0.0103399
0.0107189
0.0112313
0.0123514
0.0148802
0.0195159
0.0282024
0.0454636
6.29912e-05
7.2061e-05
9.79496e-05
0.000179994
0.000400503
0.000887431
0.00176241
0.00305214
0.0046661
0.00643863
0.00813798
0.00949423
0.0103582
0.0107212
0.0112367
0.0123573
0.0148914
0.0195042
0.0276794
0.0434107
6.25671e-05
7.44994e-05
0.00010938
0.000211873
0.000469791
0.00100557
0.00191209
0.00319254
0.00477515
0.00652073
0.00819837
0.00952843
0.0103722
0.0107211
0.0112414
0.0123636
0.0149077
0.0195355
0.027253
0.0403338
6.33671e-05
7.85473e-05
0.000123216
0.000244921
0.000535099
0.00110966
0.00203271
0.00329666
0.00485366
0.00658113
0.00824514
0.00955446
0.0103815
0.0107187
0.0112448
0.01237
0.0149266
0.0196131
0.0270968
0.0340052
6.37323e-05
8.22777e-05
0.000134244
0.000267834
0.000579683
0.0011825
0.0021123
0.00336062
0.00490157
0.00661961
0.0082784
0.00957271
0.0103865
0.0107144
0.0112469
0.0123761
0.0149449
0.0197256
0.0284925
0.0388962
6.14432e-05
8.20249e-05
0.000135234
0.000270455
0.000592185
0.00121588
0.00214914
0.00338819
0.00492364
0.00664058
0.00829983
0.0095848
0.0103883
0.0107095
0.0112479
0.012382
0.0149595
0.019778
0.0298742
0.0488932
5.23901e-05
7.17954e-05
0.000123039
0.000257857
0.000584884
0.00121166
0.00214954
0.0033876
0.00492656
0.00664867
0.00831122
0.00959218
0.0103877
0.0107044
0.0112478
0.0123878
0.0149721
0.0197591
0.0296433
0.0483542
3.78556e-05
5.48471e-05
0.00010158
0.00023174
0.000559882
0.00119391
0.00197353
0.00303123
0.00452697
0.00664627
0.00831575
0.00959612
0.0103853
0.0106997
0.0112463
0.0123938
0.0149852
0.0197478
0.0293719
0.0475469
2.42568e-05
3.78826e-05
7.86046e-05
0.000201023
0.000525957
0.00116668
0.00190563
0.00295898
0.00436928
0.00632919
0.00831951
0.00959886
0.0103823
0.0106963
0.0112437
0.0124003
0.0149984
0.0197487
0.0291423
0.0467452
1.38328e-05
2.41418e-05
5.87048e-05
0.000172137
0.000493246
0.00114407
0.00206134
0.00314342
0.00449296
0.00633988
0.00832481
0.00960231
0.0103796
0.0106948
0.0112401
0.0124076
0.0150114
0.0197607
0.0289617
0.0459557
6.97879e-06
1.46064e-05
4.37281e-05
0.000148651
0.000466117
0.00112508
0.00209251
0.00336112
0.00481697
0.00658701
0.00833458
0.0096075
0.0103778
0.0106955
0.0112356
0.012416
0.0150237
0.0197822
0.0288337
0.0451777
3.28759e-06
8.6907e-06
3.35101e-05
0.000132084
0.000447714
0.00111256
0.00208705
0.00336601
0.00495201
0.00669635
0.00835081
0.00961722
0.0103778
0.0106989
0.0112302
0.012426
0.0150347
0.019812
0.0287373
0.0444158
1.39276e-06
5.1739e-06
2.71523e-05
0.000122489
0.000440528
0.00111206
0.00208956
0.00337626
0.00497176
0.0067226
0.00837257
0.00963184
0.0103795
0.0107047
0.0112238
0.0124377
0.0150437
0.0198501
0.02864
0.043668
6.04237e-07
3.42929e-06
2.41557e-05
0.000119888
0.000446262
0.00112565
0.00210272
0.00339603
0.00500166
0.00675673
0.00840017
0.00965152
0.0103829
0.0107124
0.0112158
0.0124512
0.0150487
0.0198978
0.0285141
0.0429316
2.40249e-07
2.71124e-06
2.40812e-05
0.00012532
0.000471172
0.00116241
0.00213792
0.00343556
0.0050476
0.00680272
0.00843651
0.00967675
0.0103883
0.0107219
0.0112066
0.0124658
0.0150457
0.0199574
0.0283697
0.0422336
8.20321e-08
2.40477e-06
2.67974e-05
0.000143847
0.000529311
0.00123299
0.00220125
0.00350194
0.00511759
0.00686755
0.00848534
0.00970983
0.0103975
0.0107336
0.0111977
0.0124745
0.0150333
0.019992
0.0282621
0.0411947
3.12494e-08
2.39995e-06
3.44734e-05
0.000187695
0.000645291
0.00134326
0.0022963
0.00360018
0.0052184
0.00695745
0.00855297
0.00975278
0.0104141
0.0107442
0.0111944
0.0124757
0.0150222
0.0199617
0.0279349
0.0399282
3.24104e-08
2.50827e-06
3.61161e-05
0.000196818
0.000667831
0.00133057
0.00206187
0.00303686
0.00429504
0.00590032
0.00793853
0.00977122
0.0104227
0.0107479
0.0111951
0.0124722
0.0150188
0.0199364
0.0278732
0.0396194
3.53527e-08
2.7027e-06
3.84396e-05
0.000209377
0.000699575
0.00127596
0.00195936
0.00292111
0.0041386
0.005739
0.00777743
0.00980353
0.0104406
0.0107583
0.0112017
0.0124734
0.0150202
0.0199028
0.0277744
0.0390862
3.9851e-08
2.97381e-06
4.15768e-05
0.000225513
0.000737405
0.00118863
0.00181988
0.00273254
0.00386987
0.00538869
0.00736963
0.00970092
0.0104605
0.0107705
0.0112108
0.0124769
0.0150245
0.0198684
0.0276654
0.0384987
4.62167e-08
3.33198e-06
4.57796e-05
0.000246198
0.000706949
0.0011242
0.00171384
0.00258092
0.00363964
0.00506361
0.00696267
0.00924496
0.0104812
0.0107842
0.0112221
0.0124829
0.0150315
0.0198343
0.0275461
0.0378681
5.50754e-08
3.79888e-06
5.13305e-05
0.000272316
0.000664269
0.00107687
0.00163548
0.00246324
0.00345439
0.0047918
0.00658892
0.00883597
0.0105022
0.0107991
0.0112355
0.0124915
0.0150412
0.0198015
0.027419
0.0372065
6.7335e-08
4.40607e-06
5.85832e-05
0.000304749
0.000633282
0.00104378
0.00157799
0.00237139
0.00330366
0.0045646
0.00627023
0.00845707
0.010523
0.0108148
0.0112507
0.0125023
0.0150535
0.0197707
0.0272892
0.0365336
8.4235e-08
5.19604e-06
6.79971e-05
0.000344382
0.000611673
0.00102236
0.0015365
0.00230115
0.00318366
0.00437539
0.00600409
0.00810641
0.0105428
0.010831
0.0112675
0.0125152
0.0150685
0.0197428
0.0271635
0.0358741
1.07443e-07
6.2251e-06
8.01776e-05
0.000392013
0.000598167
0.00101066
0.00150834
0.00224943
0.0030912
0.00422365
0.00577716
0.00780782
0.0105614
0.0108472
0.0112858
0.0125301
0.015086
0.0197189
0.0270503
0.035256
1.39191e-07
7.5683e-06
9.5922e-05
0.000403274
0.000591371
0.00100742
0.0014908
0.00221247
0.00302069
0.00410346
0.00559294
0.00756037
0.010578
0.0108631
0.011305
0.0125464
0.0151059
0.0197
0.0269591
0.0347093
1.82461e-07
9.32689e-06
0.000116273
0.000409883
0.000590434
0.00101126
0.0014821
0.00218805
0.00296911
0.00401007
0.00545145
0.00735191
0.0105924
0.0108783
0.011325
0.0125639
0.0151283
0.0196869
0.0268996
0.0342604
2.41231e-07
1.16406e-05
0.000142562
0.000419652
0.000594696
0.0010212
0.00148072
0.00217412
0.00293417
0.00394208
0.00534251
0.00718461
0.010604
0.0108925
0.0113454
0.0125823
0.0151527
0.0196803
0.0268813
0.0339368
3.20804e-07
1.47088e-05
0.000176423
0.000432872
0.000603672
0.00103626
0.00148513
0.00216848
0.00291292
0.00389598
0.00526206
0.00705629
0.0106125
0.0109054
0.0113657
0.0126012
0.015179
0.0196806
0.0269124
0.0337706
4.28244e-07
1.88233e-05
0.000214944
0.000450449
0.000616918
0.00105541
0.00149423
0.00216967
0.00290345
0.00386754
0.00521041
0.00695897
0.0106177
0.0109165
0.0113857
0.01262
0.0152066
0.0196877
0.0269988
0.0337812
5.72967e-07
2.44271e-05
0.000223275
0.000473818
0.000633857
0.00107766
0.00150704
0.00217628
0.0029042
0.00385513
0.0051827
0.0068909
0.0106193
0.0109256
0.0114049
0.0126383
0.0152351
0.0197013
0.0271436
0.0339744
7.67536e-07
3.22206e-05
0.000232496
0.000498571
0.000654441
0.00110202
0.00152244
0.00218712
0.00291333
0.00385739
0.0051742
0.00685214
0.010617
0.0109323
0.0114229
0.0126556
0.0152637
0.0197202
0.0273466
0.034346
1.02873e-06
4.33648e-05
0.000242318
0.00052353
0.000678135
0.00112853
0.00154028
0.00220238
0.00293127
0.00387374
0.00518613
0.00683878
0.0106109
0.0109364
0.0114393
0.0126713
0.0152917
0.0197428
0.027604
0.0348768
1.37897e-06
5.98402e-05
0.000250246
0.000550564
0.000703834
0.00115996
0.00156474
0.00222867
0.00296489
0.00390993
0.00522329
0.00684795
0.0106008
0.0109376
0.0114537
0.0126851
0.015318
0.0197667
0.0279084
0.035559
1.84828e-06
8.51667e-05
0.000253679
0.000587989
0.00072732
0.00118165
0.00157039
0.00222404
0.00295778
0.00390293
0.00521749
0.00683923
0.0105867
0.0109357
0.0114657
0.0126963
0.015342
0.0197894
0.0282487
0.0364813
2.47669e-06
0.000126476
0.000326254
0.00065072
0.000797171
0.0011221
0.00149123
0.00204478
0.00276921
0.0037031
0.00506698
0.00681645
0.0105686
0.0109304
0.0114748
0.0127047
0.0153634
0.0198108
0.0286139
0.0384303
2.16028e-05
0.000242411
0.000437636
0.00082516
0.00115724
0.00163826
0.00228964
0.00312259
0.00420505
0.00554095
0.00737584
0.00965878
0.0105424
0.0109201
0.0114804
0.012709
0.0153816
0.0198276
0.0290473
0.040234
0.000179967
0.000309988
0.000501075
0.000826988
0.0012856
0.0019741
0.0028701
0.00406293
0.0054808
0.00717943
0.00874961
0.0098368
0.0105063
0.0108941
0.0114707
0.0127023
0.015325
0.0198622
0.0285745
0.0408901
0.000211717
0.000291647
0.000434193
0.000668406
0.00104215
0.00159862
0.0023858
0.00343411
0.00476654
0.00641433
0.00844584
0.00978681
0.0104773
0.0108749
0.0114585
0.0126953
0.0153092
0.019909
0.0284105
0.0416451
0.000231762
0.000310065
0.000449836
0.000685881
0.00106712
0.00164151
0.00245487
0.00354454
0.00491845
0.00658148
0.00859186
0.00973098
0.0104451
0.010855
0.011443
0.012682
0.0152981
0.0199212
0.0284687
0.0422892
0.000228259
0.000302568
0.000434011
0.000659532
0.00102872
0.00159544
0.00241813
0.00354362
0.00497489
0.00671926
0.00850292
0.00967277
0.0104118
0.0108337
0.0114244
0.012664
0.0152808
0.0199257
0.0286212
0.0427308
0.00022032
0.000292299
0.000420871
0.000644596
0.00101483
0.00158336
0.00243356
0.00360177
0.00509162
0.00688628
0.0084089
0.00961445
0.0103792
0.0108124
0.0114044
0.0126437
0.0152623
0.0199302
0.0287743
0.0429741
0.000204887
0.000274731
0.000401012
0.000606686
0.000917562
0.00144488
0.00229627
0.00353549
0.0050907
0.00676004
0.00831361
0.00955581
0.0103473
0.0107911
0.0113832
0.0126214
0.0152429
0.0199346
0.0289025
0.043004
0.000191083
0.000259984
0.000360775
0.000522747
0.000809173
0.00130828
0.00213574
0.00336753
0.00493551
0.00663086
0.00821927
0.00949756
0.0103166
0.0107703
0.0113615
0.0125978
0.0152233
0.0199382
0.029012
0.0428157
0.000181973
0.000223651
0.000302036
0.000446032
0.000708285
0.00117843
0.00197956
0.00320081
0.00478075
0.00650397
0.00812675
0.00944122
0.0102878
0.0107505
0.0113396
0.0125733
0.0152036
0.0199412
0.0291177
0.0424386
0.000151881
0.00018485
0.000250906
0.000377439
0.000616016
0.00105727
0.00183131
0.00304045
0.00463109
0.00638104
0.00803687
0.00938789
0.0102615
0.0107322
0.011318
0.0125481
0.0151842
0.0199444
0.0292344
0.0419957
0.000127953
0.000152764
0.000207116
0.00031695
0.000532584
0.000945309
0.00169191
0.00288801
0.004488
0.00626303
0.00795079
0.0093386
0.010238
0.0107158
0.0112971
0.0125225
0.0151648
0.01995
0.02937
0.0415487
0.000109868
0.000127167
0.000170692
0.000264906
0.000458724
0.000843657
0.00156262
0.00274468
0.00435283
0.006152
0.00787136
0.00929409
0.0102179
0.0107015
0.0112776
0.012497
0.0151454
0.0199601
0.029521
0.0410664
9.7132e-05
0.000107687
0.00014142
0.000221321
0.000394903
0.000753581
0.00144554
0.00261286
0.00422793
0.00605033
0.00780068
0.00925508
0.0102014
0.0106896
0.0112598
0.0124719
0.0151262
0.0199794
0.0296656
0.0406928
8.90495e-05
9.37149e-05
0.000118772
0.000185838
0.000341114
0.000675752
0.00134236
0.00249502
0.00411594
0.00596034
0.00774004
0.00922234
0.010189
0.0106805
0.0112445
0.0124481
0.0151066
0.0200146
0.029723
0.0408989
8.47879e-05
8.44882e-05
0.000102075
0.000157925
0.000297063
0.000610338
0.00125409
0.00239305
0.00401928
0.00588448
0.00769032
0.00919653
0.0101808
0.0106743
0.011232
0.0124263
0.0150859
0.0200838
0.0295811
0.0422898
8.34186e-05
7.91606e-05
9.05833e-05
0.000136976
0.000262341
0.000557261
0.00118125
0.00230815
0.00393938
0.00582385
0.00765237
0.00917819
0.0101771
0.0106712
0.0112228
0.0124073
0.0150621
0.0201447
0.0295276
0.040357
8.39637e-05
7.6851e-05
8.35358e-05
0.000122398
0.000236538
0.000516329
0.00112403
0.00224108
0.00387735
0.00577899
0.00762676
0.00916757
0.0101776
0.0106708
0.011217
0.0123921
0.0150352
0.0201659
0.0309742
0.050107
8.54961e-05
7.66548e-05
7.9909e-05
0.000113064
0.000218941
0.000487986
0.00108306
0.00219198
0.00383344
0.00575018
0.00761375
0.00916477
0.0101822
0.0106729
0.0112144
0.0123807
0.0150091
0.0201029
0.0308426
0.049884
8.74187e-05
7.77495e-05
7.85088e-05
0.000107269
0.000207194
0.000469659
0.0010591
0.00216638
0.00381395
0.00574228
0.00761639
0.00917141
0.0101911
0.0106766
0.0112137
0.0123721
0.0149842
0.0200326
0.0306275
0.0495586
8.9046e-05
7.95452e-05
7.87388e-05
0.000104576
0.00020148
0.000463178
0.00105618
0.00217129
0.00382876
0.00576491
0.00764157
0.00919147
0.0102062
0.0106823
0.0112141
0.0123647
0.0149599
0.0199584
0.0303921
0.0492662
1.21326e-06
7.03729e-05
0.000168344
0.000194025
0.000195325
0.000188428
0.000174442
0.000161383
0.000160257
0.000141128
0.000121459
0.000107183
9.79149e-05
9.30096e-05
9.1589e-05
9.25845e-05
9.47826e-05
9.68868e-05
9.84905e-05
9.97753e-05
5.49062e-07
4.25439e-05
0.000161707
0.000181772
0.000183199
0.000175477
0.00016223
0.000149279
0.000145955
0.000139322
0.000123043
0.000111865
0.000105571
0.000103612
0.00010503
0.000108444
0.000112106
0.000113798
0.000112789
0.000111256
2.74474e-07
2.76039e-05
0.000167236
0.00018584
0.00018532
0.000175561
0.000161843
0.000147894
0.000141703
0.000140699
0.000127501
0.000119168
0.00011569
0.000116744
0.00012139
0.000127859
0.000133403
0.00013495
0.000129727
0.00012208
1.28159e-07
1.76261e-05
0.000135525
0.000199162
0.000199358
0.000188404
0.000172929
0.000156639
0.000146848
0.000143857
0.000132867
0.000126452
0.000124685
0.00012751
0.000134091
0.00014218
0.000147411
0.000149265
0.000141862
0.000125733
6.43251e-08
1.00312e-05
9.62141e-05
0.000217899
0.00022318
0.000212431
0.000194803
0.000175713
0.000161257
0.000147378
0.000137705
0.000132257
0.000130905
0.000133581
0.000139165
0.000144074
0.000145824
0.000143872
0.000135861
0.000118547
3.65472e-08
5.41212e-06
5.6838e-05
0.000171925
0.000228152
0.000221141
0.000200324
0.000180317
0.000163812
0.000150967
0.000142002
0.000136939
0.000135369
0.000137049
0.000140037
0.000139584
0.000136333
0.000131624
0.000122398
0.000107896
2.10917e-08
2.93261e-06
3.11336e-05
0.00010873
0.000185001
0.000206286
0.000196942
0.000181014
0.000166266
0.000154389
0.000145799
0.000140511
0.000137962
0.000137173
0.000136414
0.000133745
0.000128813
0.000121775
0.000111912
9.80236e-05
1.2002e-08
1.62922e-06
1.71954e-05
6.25839e-05
0.000126639
0.000170264
0.000181783
0.00017636
0.000166233
0.000156391
0.000148431
0.000142692
0.000138852
0.000136024
0.000132843
0.000128503
0.000122808
0.000115334
0.000104879
9.03213e-05
6.67049e-09
9.04639e-07
9.59451e-06
3.51592e-05
7.73214e-05
0.000120651
0.000148256
0.000158179
0.000157548
0.000152695
0.000146971
0.000141728
0.000137251
0.00013319
0.000128818
0.000123662
0.000117559
0.000109542
9.80279e-05
8.27804e-05
3.60272e-09
4.96433e-07
5.38766e-06
1.97856e-05
4.50152e-05
7.63463e-05
0.000104999
0.000124535
0.000134364
0.00013734
0.000136512
0.0001339
0.000130528
0.00012674
0.000122275
0.000116832
0.000110107
0.000101024
8.8751e-05
7.36473e-05
1.88305e-09
2.6622e-07
3.01479e-06
1.11603e-05
2.57698e-05
4.55521e-05
6.70475e-05
8.62548e-05
0.000100597
0.000109626
0.000114268
0.000115788
0.000115225
0.000113215
0.000109747
0.000104666
9.76789e-05
8.81545e-05
7.59542e-05
6.1938e-05
9.4951e-10
1.38531e-07
1.67228e-06
6.32685e-06
1.4742e-05
2.65478e-05
4.04765e-05
5.46841e-05
6.74361e-05
7.76143e-05
8.48588e-05
8.9346e-05
9.14705e-05
9.15944e-05
8.96546e-05
8.56166e-05
7.92902e-05
7.05241e-05
5.97229e-05
4.79606e-05
4.62771e-10
6.99633e-08
9.14997e-07
3.6e-06
8.49523e-06
1.54331e-05
2.38832e-05
3.30695e-05
4.21051e-05
5.02153e-05
5.68705e-05
6.17978e-05
6.49075e-05
6.6187e-05
6.53928e-05
6.2563e-05
5.76231e-05
5.06858e-05
4.23238e-05
3.3551e-05
2.19016e-10
3.43303e-08
4.91315e-07
2.05487e-06
4.9518e-06
9.06956e-06
1.41212e-05
1.97301e-05
2.54589e-05
3.08863e-05
3.56409e-05
3.94309e-05
4.20388e-05
4.33012e-05
4.29601e-05
4.10727e-05
3.7579e-05
3.26504e-05
2.6815e-05
2.09274e-05
1.00599e-10
1.62562e-08
2.55521e-07
1.16534e-06
2.91602e-06
5.41217e-06
8.46785e-06
1.18678e-05
1.53712e-05
1.87372e-05
2.1735e-05
2.41577e-05
2.58207e-05
2.65651e-05
2.62051e-05
2.47675e-05
2.22124e-05
1.87773e-05
1.49704e-05
1.13929e-05
4.3696e-11
7.18239e-09
1.23453e-07
6.3051e-07
1.68715e-06
3.22751e-06
5.11229e-06
7.1925e-06
9.31718e-06
1.13364e-05
1.3102e-05
1.44754e-05
1.53237e-05
1.54793e-05
1.48521e-05
1.34516e-05
1.14353e-05
9.15511e-06
6.97343e-06
5.12726e-06
1.63479e-11
2.66856e-09
4.87426e-08
2.85445e-07
8.57103e-07
1.75563e-06
2.87671e-06
4.09957e-06
5.30985e-06
6.40108e-06
7.27408e-06
7.83706e-06
7.99811e-06
7.58529e-06
6.70206e-06
5.5383e-06
4.33496e-06
3.26198e-06
2.38277e-06
1.69683e-06
4.45145e-12
7.08271e-10
1.23436e-08
7.76642e-08
2.71451e-07
6.19466e-07
1.07339e-06
1.55399e-06
1.9863e-06
2.31137e-06
2.48862e-06
2.49419e-06
2.31506e-06
1.93539e-06
1.53196e-06
1.16991e-06
8.75144e-07
6.45029e-07
4.63759e-07
3.21879e-07
7.90564e-13
1.2268e-10
1.61758e-09
7.75385e-09
2.58369e-08
6.3849e-08
1.12193e-07
1.60359e-07
1.98012e-07
2.18029e-07
2.1759e-07
1.97763e-07
1.63189e-07
1.31633e-07
1.03923e-07
8.02694e-08
6.081e-08
4.50263e-08
3.16373e-08
2.05384e-08
7.69304e-14
6.96602e-12
3.13768e-11
9.72957e-11
2.42118e-10
5.08162e-10
8.94666e-10
1.26836e-09
1.52199e-09
1.59574e-09
1.49434e-09
1.27e-09
1.0184e-09
8.46742e-10
6.95049e-10
5.56439e-10
4.32502e-10
3.24824e-10
2.32343e-10
1.56172e-10
)
;

boundaryField
{
    right
    {
        type            cyclic;
    }
    left
    {
        type            cyclic;
    }
    outerWall
    {
        type            nutkWallFunction;
        Cmu             0.09;
        kappa           0.41;
        E               9.8;
        value           nonuniform List<scalar> 
60
(
0
0
0
0
0
0
0
0
0
0
0
0
0
0
0
0
0
0
0
0
0
0
0
0
0
0
0
0
0
0
0
0
0
0
0
0
0
0
0
0
0
0
0
0
0
0
0
0
0
0
0
0
0
0
0
0
7.05502e-05
5.83271e-05
2.57821e-05
0
)
;
    }
    stirrerWall
    {
        type            nutkWallFunction;
        Cmu             0.09;
        kappa           0.41;
        E               9.8;
        value           uniform 0;
    }
    top
    {
        type            empty;
    }
    bottom
    {
        type            empty;
    }
}


// ************************************************************************* //
