/*--------------------------------*- C++ -*----------------------------------*\
  =========                 |
  \\      /  F ield         | OpenFOAM: The Open Source CFD Toolbox
   \\    /   O peration     | Website:  https://openfoam.org
    \\  /    A nd           | Version:  10
     \\/     M anipulation  |
\*---------------------------------------------------------------------------*/
FoamFile
{
    format      ascii;
    class       volScalarField;
    location    "900";
    object      omega;
}
// * * * * * * * * * * * * * * * * * * * * * * * * * * * * * * * * * * * * * //

dimensions      [0 0 -1 0 0 0 0];

internalField   nonuniform List<scalar> 
2000
(
86814.7
19824.3
9694.95
6032.08
4080.95
2935.32
2231.74
1779.93
1481.41
1284.43
1158.31
1080.66
1032.74
1002.58
985.686
987.354
1048.29
1141.61
1198.72
1247.13
86817.5
19260.1
9533.9
6225.78
4398.66
3252.67
2508.91
2013.71
1678.34
1451.11
1299.48
1199.5
1131.61
1083.96
1054.4
1059.01
1102.88
1173.12
1236.43
1291.59
86819.6
17807
8734.07
6076.92
4551.99
3507.47
2775.23
2260.13
1896.99
1641.3
1463.17
1340.2
1253.75
1191.44
1152.09
1146.76
1172.72
1232.69
1294.69
1351.03
86821.1
16628.9
7673.48
5661.18
4515.12
3651.21
2988.42
2488.47
2116.43
1842.16
1642.62
1499.09
1395.73
1321.52
1275.35
1256.41
1267.59
1312.18
1369.41
1427.56
86821.9
15800.7
6664.49
5085.63
4304.83
3660.87
3112
2662.26
2305.94
2029.94
1820.42
1663.93
1548.63
1465.69
1412.1
1383.18
1379.89
1411.11
1466.49
1529.19
86822.2
15361.5
6055.93
4473.45
3960.92
3532.04
3119.88
2747.91
2431.94
2174.14
1970.02
1812.08
1692.59
1605.1
1545.89
1511.68
1502.25
1529.01
1589.39
1661.71
86821.8
15151.5
5696.84
3905.3
3529.3
3277.48
3003.95
2725.36
2468.47
2246.5
2062.97
1916.07
1802.27
1718.15
1660.75
1633.43
1635.13
1674.37
1749.57
1833.34
86820.7
14999
5466.62
3535.04
3071.21
2928.5
2774.65
2591.31
2402.94
2228.72
2078.34
1955.57
1860.64
1793.1
1756.24
1761.03
1799.96
1870.04
1960.65
2041.56
86819.1
14839.8
5322.42
3297.81
2725.06
2544.76
2464.49
2362.94
2242.92
2122.35
2015.94
1931.12
1872.97
1846.26
1864.95
1938.77
2040.06
2134.34
2209.06
2253.94
86816.8
14743.2
5252.36
3176.43
2524.28
2246.69
2130.34
2083.54
2023.58
1959.79
1905.49
1875.33
1883.98
1942.85
2059.46
2225.18
2362.24
2411.77
2419.62
2431.44
86813.9
14615
5240.34
3171.78
2465.52
2094.7
1903.51
1830.68
1803.81
1786.52
1789.92
1837.86
1958.38
2154.93
2367.35
2518.72
2525.77
2508.64
2567.63
2654.64
86810.3
14450.4
5272.31
3316
2553.68
2072.37
1787.57
1654.46
1615.34
1626.16
1686.18
1818.86
2045.21
2257.26
2406.8
2478.4
2530.5
2622.83
2776.15
2932.22
86806.2
14279
5413.13
3612.48
2809.78
2193.21
1790.82
1589.37
1504.36
1521.89
1648.87
1874.47
2157.93
2360.51
2434.15
2447.54
2553.23
2762.55
3023.9
3289.78
86801.4
14178.3
5771.31
4142.38
3262.33
2483.44
1949.48
1685.61
1560.56
1563.31
1733.42
1972.53
2199.23
2331.68
2402.37
2519.64
2756.39
3057.9
3391.89
3760.84
86796
14277.2
6519.1
5076.13
4085.09
3069.16
2303.84
1899.74
1747.78
1740.91
1857.54
2006.77
2146.2
2252.14
2363.33
2549.64
2848.5
3226.05
3723.47
4272.26
86790.1
14818.3
7992.57
6766.65
5667.06
4363.56
3208.64
2446.76
2095.41
1962.81
1971.77
2060.1
2163.77
2250.28
2322.29
2432.2
2690.88
3337.16
4172.02
4931.75
86783.5
16517.9
11058.2
10035.2
8818.5
7237.07
5604.37
4163.19
3181.32
2675.55
2485.35
2456.25
2497.33
2567.01
2566.24
2558.73
2734.5
3808.86
5026.84
5912.25
86776.4
22455.9
18758.2
17523.4
15866.7
13790.2
11515.3
9090.7
6804.71
5513.37
4780.56
4333.14
4147.33
4110.29
4024
3996.63
4343.81
5878.23
7251.35
7940.66
86768.7
51890.9
47133.5
42773.5
38717.4
34853.6
31077.5
27002.6
22420.2
19306.6
17095.2
15358.8
14242.6
13656.9
13079.9
12805.4
14113.9
15486
15166.8
13708.6
338081
294034
258064
228311
203421
182390
164459
149047
135704
124076
113880
104892
96926.8
89835.7
83495.2
77802.9
72673.5
68035.1
63826.9
59997.5
1296.56
1350.74
1401.73
1421.03
1362.97
1197.82
958.675
733.276
576.363
482.105
430.779
414.639
441.345
530.052
714.412
1064.44
1749.19
3167.4
6300.51
14006
1346.07
1405.77
1459.71
1472.22
1394.14
1203.49
949.75
724.871
573.201
482.061
431.734
415.724
442.36
530.83
715.121
1064.59
1748.1
3167.44
6314.46
14005.7
1409.3
1474.23
1528.16
1526.17
1418.05
1196.26
929.728
709.987
566.77
480.308
431.765
416.363
443.301
531.754
716.196
1065.22
1747.33
3167.53
6334.18
14005.5
1491.19
1560.6
1608.33
1580.32
1430.82
1174.44
899.896
690.607
558.322
477.419
431.116
416.661
444.191
532.799
717.573
1066.28
1746.83
3167.14
6361
14005.4
1599.04
1668.96
1699.28
1629.48
1427.19
1136.83
862.126
668.581
548.785
473.763
429.922
416.641
444.986
533.891
719.161
1067.67
1746.49
3165.49
6395.69
14005.3
1737.34
1798.94
1794.93
1665.8
1403.39
1085.4
819.994
646.054
539.047
469.676
428.314
416.344
445.669
534.99
720.893
1069.33
1746.27
3161.69
6439.09
14005.3
1906.49
1943.03
1884.69
1683.18
1361.03
1025.94
777.974
624.946
529.783
465.42
426.411
415.816
446.228
536.05
722.694
1071.2
1746.21
3154.84
6492.65
14005.4
2092.18
2085.16
1961.57
1685.81
1309.4
966.576
740.106
606.52
521.332
461.21
424.336
415.114
446.655
537.032
724.476
1073.19
1746.36
3144.04
6558.88
16451
2268.47
2220.43
2039.29
1691.08
1261.99
914.979
709.013
591.333
513.886
457.264
422.233
414.318
446.966
537.915
726.173
1075.22
1746.89
3127.73
6410.55
16446.4
2442.31
2377.81
2144.78
1717.46
1231.15
876.352
685.627
579.367
507.507
453.66
420.266
413.53
447.2
538.708
727.744
1077.25
1748.09
3113.64
6206.29
14006.1
2692.37
2606.53
2294.36
1759.39
1212.42
852.575
669.257
570.112
502.076
450.421
418.537
412.807
447.375
539.416
729.154
1079.23
1750
3106.17
6171.19
14006.5
3017.44
2927.27
2510.92
1836.16
1211.14
836.068
657.835
562.869
497.403
447.516
417.045
412.18
447.499
540.046
730.372
1081.12
1752.45
3101.23
6141.71
14006.9
3472.68
3383.22
2815.65
1955.46
1227.33
826.268
649.028
557.372
493.687
445.09
415.765
411.717
447.615
540.637
731.403
1082.9
1755.27
3098.88
6114.71
14007.5
4071.58
3992.93
3217.08
2114.7
1254.75
821.981
643.888
553.793
491.109
443.276
414.741
411.45
447.751
541.232
732.272
1084.59
1758.35
3099.18
6091.74
14008.1
4824.17
4792.47
3721.91
2301.05
1286.18
821.477
641.683
552.031
489.48
442.045
413.969
411.369
447.924
541.867
733.005
1086.22
1761.51
3102.06
6075.15
14008.7
5848.23
5862.1
4328.71
2495.66
1316.26
822.903
641.754
551.819
488.795
441.357
413.474
411.437
448.146
542.584
733.635
1087.86
1764.54
3107.26
6064.26
14009.5
7363.36
7321.52
5028.79
2680.57
1338.59
824.229
643.101
552.607
488.743
441.005
413.176
411.651
448.434
543.407
734.179
1089.55
1767.19
3114.55
6056.09
14010.3
9983.7
9332.54
5787.57
2833.03
1346.69
823.856
644.963
553.774
488.841
440.778
412.984
411.991
448.79
544.339
734.617
1091.31
1769.01
3123.98
6046.51
14011.1
16253.7
12261.5
6533.37
2901.85
1321.62
815.663
645.312
554.628
488.849
440.556
412.863
412.463
449.248
545.406
734.959
1093.13
1768.98
3136.4
6034.52
14012.1
35214.5
16642
7099.54
2789.65
1239.61
795.605
643.519
554.818
488.63
440.31
412.84
413.124
449.895
546.697
735.291
1094.16
1766.46
3146.29
6027.04
14013.1
85702.6
22473.8
7019.66
2403.26
1087.38
762.97
638.223
553.041
487.482
439.725
412.898
413.955
450.928
548.229
736.21
1094.72
1763.43
3145.13
5972.46
14005.5
85639
22840
6948.84
2341.48
1069.76
758.704
636.31
551.28
486.12
438.897
412.605
414.097
451.289
548.65
736.683
1094.44
1762.34
3138.83
5961.33
13999.8
85582.4
22719.3
6805.43
2270.59
1052.6
753.583
632.94
548.109
483.685
437.405
412.014
414.223
451.847
549.422
737.63
1094.57
1761.49
3130.14
5947.94
13994.6
85533
22416.9
6609.93
2188.1
1033.72
747.767
629.001
544.509
480.947
435.728
411.333
414.329
452.455
550.309
738.716
1094.86
1760.69
3120.51
5933.76
13990.2
85490.7
22032.2
6367
2093.15
1012.49
741.164
624.582
540.611
478.011
433.924
410.578
414.402
453.081
551.267
739.887
1095.27
1759.88
3110.21
5919
13986.4
85455.4
21590.4
6078.47
1986.94
989.158
733.829
619.746
536.491
474.932
432.02
409.753
414.437
453.712
552.275
741.121
1095.77
1759.07
3099.42
5904.08
13983.2
85427.3
21086.8
5746.03
1871.8
964.293
725.896
614.58
532.217
471.758
430.045
408.866
414.43
454.338
553.313
742.41
1096.37
1758.26
3088.34
5889.61
13980.6
85406.1
20505.3
5372.72
1750.77
938.565
717.541
609.176
527.86
468.534
428.027
407.931
414.379
454.952
554.359
743.744
1097.05
1757.48
3077.19
5876.34
13978.7
85392
19826.8
4963.62
1627.29
912.692
708.948
603.64
523.497
465.314
425.993
406.961
414.282
455.546
555.397
745.111
1097.78
1756.77
3066.21
5865.12
13977.4
85385
19032.3
4526.19
1504.99
887.354
700.317
598.093
519.214
462.154
423.978
405.97
414.14
456.113
556.414
746.493
1098.57
1756.18
3055.69
5856.83
13976.8
85385
18105.3
4070.31
1387.47
863.148
691.853
592.666
515.099
459.112
422.016
404.975
413.958
456.647
557.397
747.873
1099.39
1755.75
3045.91
5852.39
13976.8
85392
17032.8
3608.07
1278.04
840.569
683.762
587.494
511.243
456.245
420.14
403.996
413.737
457.142
558.331
749.236
1100.24
1755.53
3037.18
5852.61
13977.4
85406.1
15805.2
3153.14
1179.48
819.999
676.244
582.717
507.736
453.611
418.387
403.052
413.485
457.593
559.205
750.565
1101.11
1755.57
3029.77
5858.2
13978.7
85427.3
14419.8
2720.05
1093.89
801.703
669.489
578.465
504.659
451.265
416.79
402.161
413.208
457.996
560.008
751.845
1101.99
1755.9
3023.94
5869.59
13980.6
85455.4
12883.7
2323.01
1022.4
785.912
663.645
574.828
502.087
449.256
415.379
401.343
412.914
458.347
560.727
753.06
1102.85
1756.57
3019.86
5886.92
13983.2
85490.7
11216.9
1974.42
965.446
772.526
658.834
571.92
500.06
447.627
414.182
400.613
412.611
458.643
561.353
754.198
1103.69
1757.59
3017.63
5909.93
13986.4
85533
9455.89
1684.36
921.459
761.563
655.174
569.828
498.636
446.401
413.221
399.988
412.309
458.881
561.879
755.244
1104.49
1758.97
3017.2
5937.95
13990.2
85582.4
7660.48
1455.96
888.535
753.03
652.755
568.617
497.856
445.603
412.513
399.48
412.015
459.06
562.298
756.187
1105.25
1760.7
3018.36
5969.77
13994.6
85639
5911.14
1281.29
865.093
746.895
651.648
568.344
497.755
445.26
412.07
399.101
411.738
459.181
562.606
757.02
1105.96
1762.76
3020.77
6003.83
13999.8
85702.6
4286.53
1155.14
849.703
743.082
651.857
569.003
498.316
445.356
411.881
398.846
411.48
459.241
562.802
757.739
1106.61
1765.19
3024.29
6038.99
14005.5
14552.9
2406.02
1056.42
839.568
741.492
653.264
570.486
499.357
445.729
411.808
398.62
411.165
459.165
562.793
758.226
1107
1767.82
3027.7
6077.27
14013.1
2349.23
1214.9
952.173
840.029
749.562
660.774
575.56
501.768
446.324
411.362
397.666
409.69
457.726
561.469
756.794
1108.64
1765.49
3035.12
6013.23
14012.1
1217.76
1042.17
936.575
849.271
762.714
673.019
584.642
507.413
449.324
412.659
397.827
408.955
456.466
559.945
755.423
1109.43
1769.15
3048.5
5976.26
14011.1
1078.63
1003.37
930.928
856.183
774.114
684.304
593.169
512.597
451.949
413.667
397.738
407.997
454.952
558.107
753.654
1108.91
1773.52
3059.81
5962.74
14010.3
1051.38
996.738
937.137
869.463
790.018
698.9
603.962
519.19
455.378
415.081
397.796
406.994
453.228
555.907
751.274
1107.45
1776.55
3071.13
5961.99
14009.5
1044.8
1000.19
948.874
886.6
809.085
716.065
616.619
526.961
459.497
416.889
398.052
406.055
451.424
553.504
748.532
1105.41
1778.81
3082.32
5962.41
14008.7
1047.74
1010.17
965.304
907.766
831.669
736.171
631.4
536.039
464.355
419.103
398.519
405.2
449.565
550.931
745.489
1102.83
1780.27
3093.29
5958.8
14008.1
1055.3
1023.76
985.025
932.21
857.497
759.197
648.338
546.439
469.965
421.742
399.239
404.498
447.722
548.258
742.23
1099.83
1780.99
3104.27
5950.77
14007.5
1064.94
1039.35
1007
959.238
886.266
785.026
667.378
558.125
476.293
424.814
400.258
403.955
445.925
545.553
738.83
1096.49
1780.93
3115.65
5940.53
14006.9
1075.4
1056.24
1030.81
988.758
918.02
813.662
688.463
571.05
483.347
428.368
401.633
403.609
444.227
542.882
735.366
1092.87
1780.11
3127.87
5932.09
14006.5
1088.07
1075.39
1057.17
1021.39
953.27
845.537
711.856
585.32
491.191
432.456
403.395
403.487
442.671
540.306
731.917
1089.07
1778.49
3141.21
5931.49
14006.1
1102.25
1095.96
1085.25
1056.35
991.442
880.444
737.621
601.033
499.869
437.069
405.479
403.603
441.302
537.882
728.567
1085.17
1776
3155.2
5947.59
14005.8
1116.68
1116.97
1114.13
1092.73
1031.68
917.715
765.359
618.004
509.282
442.137
407.837
403.97
440.157
535.671
725.405
1081.32
1772.7
3168.79
5994.13
14005.6
1130.86
1138.22
1143.53
1130.02
1073.36
956.701
794.539
635.896
519.247
447.563
410.447
404.6
439.276
533.729
722.522
1077.65
1768.8
3181.06
6102.41
14005.4
1144.94
1160.03
1173.53
1168
1115.97
996.782
824.62
654.346
529.543
453.2
413.288
405.495
438.689
532.109
720.003
1074.31
1764.59
3187.48
6311
14005.3
1159.48
1183
1204.45
1206.6
1159.04
1037.29
855.008
672.962
539.962
458.952
416.313
406.647
438.42
530.859
717.93
1071.44
1760.65
3185.18
6478.98
16448.3
1175.16
1207.85
1236.82
1245.87
1202.09
1077.47
885.04
691.312
550.243
464.713
419.467
408.036
438.481
530.008
716.353
1069.14
1757.32
3174.7
6303.34
14005.4
1193.31
1235.54
1271.47
1286.36
1244.87
1116.21
913.813
708.961
560.158
470.359
422.68
409.629
438.871
529.565
715.294
1067.39
1754.97
3170.78
6292.41
14005.5
1217.04
1267.92
1309.78
1329.25
1288.32
1153.8
940.344
724.774
569.156
475.659
425.829
411.326
439.492
529.441
714.65
1066.14
1752.91
3168.59
6289.68
14005.7
1253.18
1305.04
1350.02
1371.82
1328.95
1186.25
961.636
737.189
576.585
480.392
428.843
413.096
440.325
529.592
714.353
1065.19
1751.02
3167.26
6290.94
14006
59997.5
5675.65
1551.16
1162.14
1101.78
1085.72
1083.46
1086.84
1092.76
1099.44
1108.26
1118.86
1129.84
1140.31
1149.79
1157.9
1164.1
1168.67
1175.59
1205.87
63826.9
7407.82
1859.9
1238.45
1142.75
1118.63
1113.01
1114.51
1118.7
1123.3
1129.91
1139.18
1149.7
1160.16
1169.33
1175.22
1174.38
1162.37
1140.7
1158.16
68035.1
8848.52
2171.51
1304.48
1169.13
1138.72
1131.79
1132.89
1136.62
1140.34
1144.94
1152.08
1160.86
1170.14
1178.89
1184.83
1181.6
1161.45
1106.92
1099.26
72673.5
10323
2540.15
1373.94
1183.14
1143.72
1135.51
1136.76
1140.52
1143.37
1144.31
1144.89
1144.27
1140.24
1131
1116.17
1103.34
1088.78
1041.19
1010.53
77802.9
12533.4
3069.8
1478.16
1194.65
1137.06
1125.29
1125.95
1129.52
1131.46
1128.68
1120.87
1106.88
1082.63
1045.3
1002.54
980.92
961.991
954.171
953.719
83495.2
15248.1
4156.23
1721.52
1231.1
1129.63
1107.06
1104.74
1107.51
1109.1
1105.11
1092.55
1069.95
1032.73
983.157
938.275
906.824
895.679
903.777
935.373
89835.7
17929.5
5677.52
2315.19
1402.23
1161.65
1097.25
1080.99
1078.35
1077.62
1072.61
1058.74
1033.4
995.881
951.093
915.006
885.933
874.671
890.78
936.491
96926.8
20157.9
7299.36
3210.18
1792.53
1304.81
1136.3
1076.82
1055.23
1045.78
1037.03
1022.66
999.158
966.455
930.563
901.046
880.387
878.128
900.878
952.883
104892
22150.2
8872.45
4298.85
2419.21
1624.47
1285.11
1136.79
1068.97
1034.76
1012.88
992.83
969.429
942.035
915.263
895.311
885.842
894.95
925.671
986.035
113880
23961
10287.2
5445.83
3224.64
2136.92
1591.65
1312.58
1165.07
1082.74
1032.22
996.302
966.404
939.731
918.891
907.709
909.087
928.884
972.373
1047.17
124076
25686.2
11509
6546.11
4120.45
2803.55
2061.84
1634.84
1383.38
1230.67
1133.93
1069.21
1023.4
990.232
969.324
962.557
972.335
1004.05
1063.24
1155.66
135704
27393.2
12489.3
7494.69
4994.96
3544.36
2654.22
2094.14
1735.17
1500.95
1345.07
1239.33
1166.82
1118.06
1090.46
1083.76
1099.99
1143.57
1219.64
1332.15
149047
29128.7
13192.8
8212.44
5744.19
4259.04
3292.96
2642.2
2196.13
1886.88
1670.69
1519.06
1413.68
1343.22
1304.1
1293.41
1313.02
1367.24
1462.17
1601.1
164459
31010.5
13609.3
8632.33
6277.19
4846.28
3880.84
3198.63
2706.26
2347.28
2084.83
1893.98
1757.77
1665.02
1612.25
1595.5
1619.31
1691.15
1819.26
2004.36
182390
33292.9
13847.8
8742.63
6531.39
5223.32
4326.82
3672.04
3180.83
2808.58
2526.5
2314.91
2160.08
2053.19
1994.19
1984.75
2036.98
2162.03
2364.72
2633.62
203421
36394.7
14256.9
8694.14
6536.79
5360.94
4574.59
3995.17
3550.73
3205.17
2936.94
2732.43
2583.27
2490.55
2468.41
2531.17
2691.99
2951.21
3295.55
3689.29
228311
40867.6
15530.3
9005.18
6609.66
5447.05
4743.57
4254.54
3890.53
3613.72
3406.06
3259.67
3177.84
3203.1
3364.26
3661.56
4072.3
4556.87
5077.32
5591.2
258064
46944.8
18591.5
11029
8005.86
6603.98
5873.94
5453.64
5201.06
5058.45
5003.17
5032.63
5176.33
5595.45
6189.41
6873.19
7556.92
8181.3
8757.77
9311.2
294034
54144.6
26756
20409.6
17205.8
15190.3
14476.9
14194.7
14121.7
14186.5
14359
14634.9
15091.2
15736.5
16464.5
17158.7
17711.8
18118.5
18607.9
19325.8
338081
86768.7
86776.4
86783.5
86790.1
86796
86801.4
86806.2
86810.3
86813.9
86816.8
86819.1
86820.7
86821.8
86822.2
86821.9
86821.1
86819.6
86817.5
86814.7
)
;

boundaryField
{
    right
    {
        type            cyclic;
    }
    left
    {
        type            cyclic;
    }
    outerWall
    {
        beta1           0.075;
        blended         0;
        type            omegaWallFunction;
        value           nonuniform List<scalar> 
60
(
14006
14005.7
14005.5
14005.4
14005.3
14005.3
14005.4
16451
16446.4
14006.1
14006.5
14006.9
14007.5
14008.1
14008.7
14009.5
14010.3
14011.1
14012.1
14013.1
14005.5
13999.8
13994.6
13990.2
13986.4
13983.2
13980.6
13978.7
13977.4
13976.8
13976.8
13977.4
13978.7
13980.6
13983.2
13986.4
13990.2
13994.6
13999.8
14005.5
14013.1
14012.1
14011.1
14010.3
14009.5
14008.7
14008.1
14007.5
14006.9
14006.5
14006.1
14005.8
14005.6
14005.4
14005.3
16448.3
14005.4
14005.5
14005.7
14006
)
;
    }
    stirrerWall
    {
        beta1           0.075;
        blended         0;
        type            omegaWallFunction;
        value           nonuniform List<scalar> 
100
(
86814.7
86817.5
86819.6
86821.1
86821.9
86822.2
86821.8
86820.7
86819.1
86816.8
86813.9
86810.3
86806.2
86801.4
86796
86790.1
86783.5
86776.4
86768.7
338081
338081
294034
258064
228311
203421
182390
164459
149047
135704
124076
113880
104892
96926.8
89835.7
83495.2
77802.9
72673.5
68035.1
63826.9
59997.5
85702.6
85639
85582.4
85533
85490.7
85455.4
85427.3
85406.1
85392
85385
85385
85392
85406.1
85427.3
85455.4
85490.7
85533
85582.4
85639
85702.6
59997.5
63826.9
68035.1
72673.5
77802.9
83495.2
89835.7
96926.8
104892
113880
124076
135704
149047
164459
182390
203421
228311
258064
294034
338081
338081
86768.7
86776.4
86783.5
86790.1
86796
86801.4
86806.2
86810.3
86813.9
86816.8
86819.1
86820.7
86821.8
86822.2
86821.9
86821.1
86819.6
86817.5
86814.7
)
;
    }
    top
    {
        type            empty;
    }
    bottom
    {
        type            empty;
    }
}


// ************************************************************************* //
