/*--------------------------------*- C++ -*----------------------------------*\
  =========                 |
  \\      /  F ield         | OpenFOAM: The Open Source CFD Toolbox
   \\    /   O peration     | Website:  https://openfoam.org
    \\  /    A nd           | Version:  10
     \\/     M anipulation  |
\*---------------------------------------------------------------------------*/
FoamFile
{
    format      ascii;
    class       volScalarField;
    location    "900";
    object      omega;
}
// * * * * * * * * * * * * * * * * * * * * * * * * * * * * * * * * * * * * * //

dimensions      [0 0 -1 0 0 0 0];

internalField   nonuniform List<scalar> 
420
(
21252.7
3454.05
1161.98
592.721
383.152
289.898
256.61
266.216
308.493
373.007
21253.7
3465.54
1184.43
608.717
391.217
293.112
255.76
261.635
307.356
387.785
21254.2
3470.74
1212.65
625.531
401.125
299.42
259.877
265.347
315.822
412.031
21254
3474.33
1232.62
643.755
416.789
313.14
272.192
278.533
337.74
456.252
21253.2
3482.52
1253.85
675.734
450.803
345.924
303.387
311.789
384.426
534.722
21251.7
3518.66
1321.67
767.198
543.652
432.826
383.904
391.582
480.254
676.369
21249.7
3698.15
1603.54
1068.8
822.042
680.059
602.718
591.199
685.501
946.74
21247.1
4646.47
2744.75
2104.65
1715.08
1444.62
1258.82
1158.9
1197.86
1544.33
21243.8
10299.2
7896.99
6394.57
5295.87
4465.72
3830.6
3356.47
3048.44
3388.72
78643.9
60596.7
48114.3
39124.4
32436.5
27327.1
23335.9
20159.1
17589.3
15481.3
443.764
485.984
450.723
351.031
276.359
264.635
313.49
391.636
866.441
3581.27
481.177
537.871
491.026
367.068
279.58
264.53
313.372
387.393
861.987
3581.17
531.862
602.998
537.018
383.384
282.625
264.294
313.389
384.145
846.913
3581.13
607.77
687.313
589.884
399.804
285.546
264.017
313.64
382.274
834.604
3581.18
727.624
801.973
649.294
415.241
288.124
263.865
314.061
381.049
824.398
3581.3
925.401
962.602
716.666
427.491
289.557
263.776
314.495
380.523
812.365
3581.49
1271.8
1192.44
790.727
434.714
289.501
263.621
314.994
380.786
802.07
3581.76
1940.78
1528.84
866.299
434.097
287.747
263.477
315.591
381.942
798.347
3582.1
3433.65
2029.8
929.201
422.03
284.248
263.421
316.132
384.092
800.617
3582.51
7472.27
2764.29
943.627
394.699
279.425
263.667
317.14
387.408
803.932
3582.99
21359.1
3473.52
821.541
352.407
274.489
264.179
319.836
392.101
807.019
3575.63
21359.1
2820.26
647.055
329.068
272.727
264.044
320.394
394.743
801.936
3575.63
4259.61
1118.39
437.825
308.644
270.993
263.695
320.106
397.127
809.255
3582.99
911.722
464.013
340.745
299.304
270.679
264.101
320.13
401.85
821.132
3582.51
403.767
346.587
325.808
298.573
270.505
264.983
321.14
408.53
834.244
3582.1
334.064
336.712
328.455
299.362
270.014
265.974
321.468
415.568
850.212
3581.76
332.192
344.205
334.223
300.732
269.609
267.242
321.623
421.082
866.255
3581.49
342.618
355.757
341.677
302.599
269.241
268.616
321.797
423.816
869.301
3581.3
356.508
369.859
351.305
305.444
268.835
269.425
321.904
424.049
864.77
3581.18
372.741
387.273
364.196
309.751
268.312
269.198
321.168
423.081
861.549
3581.13
391.628
409.836
382.04
316.326
267.836
267.354
318.623
419.845
881.739
3581.17
415.523
441.352
408.676
327.666
269.163
265.149
315.264
407.534
901.186
3581.27
15481.3
1970.32
557.733
343.631
313.883
317.297
327.625
339.658
351.734
363.918
17589.3
2609.14
749.341
383.248
305.449
292.909
296.279
303.211
309.248
311.394
20159.1
3275.71
1013.02
478.63
327.636
284.3
273.893
273.439
274.531
271.867
23335.9
4185.02
1423.29
667.084
408.406
313.786
278.652
265.564
260.559
257.994
27327.1
4952.06
1805.97
905.836
556.538
403.827
333.885
301.465
287.606
285.572
32436.5
5804.93
2172.82
1148.78
737.45
543.332
445.791
396.886
375.488
374.252
39124.4
6888.46
2595.98
1423.5
964.644
751.435
646.067
595.297
575.648
578.185
48114.3
8376.76
3223.99
1905.24
1438.75
1248.85
1169.81
1141
1137.3
1149.18
60596.7
10742
5055.21
3851.97
3513.78
3427.9
3411.44
3416.25
3426.09
3439.28
78643.9
21243.8
21247.1
21249.7
21251.7
21253.2
21254
21254.2
21253.7
21252.7
)
;

boundaryField
{
    right
    {
        type            cyclic;
    }
    left
    {
        type            cyclic;
    }
    outerWall
    {
        beta1           0.075;
        blended         0;
        type            omegaWallFunction;
        value           nonuniform List<scalar> 
22
(
3581.27
3581.17
3581.13
3581.18
3581.3
3581.49
3581.76
3582.1
3582.51
3582.99
3575.63
3575.63
3582.99
3582.51
3582.1
3581.76
3581.49
3581.3
3581.18
3581.13
3581.17
3581.27
)
;
    }
    stirrerWall
    {
        beta1           0.075;
        blended         0;
        type            omegaWallFunction;
        value           nonuniform List<scalar> 
42
(
21252.7
21253.7
21254.2
21254
21253.2
21251.7
21249.7
21247.1
21243.8
78643.9
78643.9
60596.7
48114.3
39124.4
32436.5
27327.1
23335.9
20159.1
17589.3
15481.3
21359.1
21359.1
15481.3
17589.3
20159.1
23335.9
27327.1
32436.5
39124.4
48114.3
60596.7
78643.9
78643.9
21243.8
21247.1
21249.7
21251.7
21253.2
21254
21254.2
21253.7
21252.7
)
;
    }
    top
    {
        type            empty;
    }
    bottom
    {
        type            empty;
    }
}


// ************************************************************************* //
