/*--------------------------------*- C++ -*----------------------------------*\
  =========                 |
  \\      /  F ield         | OpenFOAM: The Open Source CFD Toolbox
   \\    /   O peration     | Website:  https://openfoam.org
    \\  /    A nd           | Version:  10
     \\/     M anipulation  |
\*---------------------------------------------------------------------------*/
FoamFile
{
    format      ascii;
    class       volScalarField;
    location    "900";
    object      p;
}
// * * * * * * * * * * * * * * * * * * * * * * * * * * * * * * * * * * * * * //

dimensions      [0 2 -2 0 0 0 0];

internalField   nonuniform List<scalar> 
420
(
0.619046
16.1121
31.6101
49.3559
68.7762
89.3097
110.499
131.769
152.661
172.622
0.93895
15.6828
30.85
48.3068
67.5609
88.1318
109.575
131.242
152.479
172.7
0.984792
15.3611
30.2342
47.4126
66.4918
87.0764
108.725
130.705
152.265
172.776
0.919968
15.121
29.7661
46.6854
65.5668
86.0916
107.845
130.071
151.95
172.787
0.813264
14.9741
29.4473
46.1126
64.7472
85.1152
106.858
129.261
151.463
172.698
0.712467
14.9382
29.2816
45.6832
64.0083
84.1091
105.706
128.205
150.739
172.455
0.630229
15.0201
29.2697
45.3866
63.3329
83.0461
104.353
126.84
149.726
172.095
0.556858
15.2182
29.409
45.2139
62.7226
81.9356
102.792
125.083
148.295
171.487
0.447006
15.5418
29.6806
45.1593
62.2238
80.8822
101.131
122.916
145.997
169.624
0.243083
15.9627
29.9242
45.1259
61.8472
80.0371
99.6738
120.712
142.913
165.926
191.18
208.822
225.761
241.721
256.671
270.563
283.016
302.926
302.985
340.934
191.429
209.149
226.109
242.11
257.161
271.162
283.907
304.452
305.225
336.71
191.712
209.551
226.564
242.648
257.851
272.028
285.02
305.886
306.947
334.787
192
209.996
227.066
243.255
258.633
273.038
286.322
307.441
308.906
334.708
192.26
210.438
227.576
243.895
259.454
274.113
287.613
308.89
310.921
335.033
192.458
210.815
228.034
244.524
260.243
275.124
288.742
310.098
312.207
334.326
192.697
211.107
228.359
245.079
260.951
276.019
289.66
310.942
312.781
333.15
193.021
211.323
228.474
245.503
261.598
276.86
290.485
311.696
313.474
331.97
192.806
211.659
228.635
245.88
262.216
277.68
291.381
312.941
315.456
330.48
191.382
212.586
229.346
246.361
262.753
278.363
292.235
314.703
316.478
328.524
190.46
213.03
230.011
246.815
262.99
278.43
291.459
316.179
309.891
325.785
191.302
212.995
230.323
246.852
262.706
277.807
290.324
313.727
304.348
323.241
196.611
213.648
230.67
247.014
262.54
277.22
289.737
308.176
304.026
322.692
196.304
213.32
230.317
246.676
262.071
276.513
288.685
305.414
303.252
319.949
194.994
212.416
229.557
245.959
261.298
275.603
287.698
303.869
301.52
317.437
193.807
211.364
228.626
245.081
260.401
274.62
286.683
302.285
299.576
316.589
192.865
210.434
227.744
244.234
259.569
273.82
286.042
301.313
298.528
317.326
192.13
209.698
227.015
243.518
258.893
273.334
286.013
301.237
299.072
322.508
191.59
209.171
226.463
242.934
258.314
272.921
285.957
301.315
302.31
337.053
191.214
208.816
226.039
242.403
257.671
272.096
284.649
299.614
305.555
358.332
190.968
208.57
225.653
241.81
256.841
270.795
282.529
297.157
304.129
362.819
190.979
208.563
225.504
241.458
256.338
270.173
281.992
299.504
303.807
343.688
180.46
178.047
176.521
175.529
174.758
174.1
173.541
173.079
172.718
172.587
155.602
155.789
155.906
155.767
155.449
154.993
154.454
153.887
153.317
152.894
129.546
131.924
133.842
134.82
135.149
135.029
134.589
133.951
133.162
132.384
105.806
108.569
111.384
113.196
114.131
114.384
114.113
113.476
112.561
111.509
84.6588
86.843
89.5346
91.5977
92.842
93.3534
93.2499
92.6698
91.7302
90.5514
65.637
67.065
69.0848
70.833
72.0087
72.5659
72.5554
72.0561
71.1779
70.035
48.4888
49.2723
50.441
51.5432
52.3365
52.7073
52.6495
52.2025
51.4375
50.4502
33.1363
33.4157
33.801
34.1606
34.4033
34.448
34.2547
33.8266
33.197
32.4359
19.6463
19.3973
19.1509
18.9328
18.7321
18.4972
18.1845
17.7746
17.2595
16.6844
7.30292
6.06905
5.00428
4.29308
3.78615
3.35469
2.93253
2.48123
1.95983
1.37331
)
;

boundaryField
{
    right
    {
        type            cyclic;
    }
    left
    {
        type            cyclic;
    }
    outerWall
    {
        type            zeroGradient;
    }
    stirrerWall
    {
        type            zeroGradient;
    }
    top
    {
        type            empty;
    }
    bottom
    {
        type            empty;
    }
}


// ************************************************************************* //
