/*--------------------------------*- C++ -*----------------------------------*\
  =========                 |
  \\      /  F ield         | OpenFOAM: The Open Source CFD Toolbox
   \\    /   O peration     | Website:  https://openfoam.org
    \\  /    A nd           | Version:  10
     \\/     M anipulation  |
\*---------------------------------------------------------------------------*/
FoamFile
{
    format      ascii;
    class       volScalarField;
    location    "900";
    object      p;
}
// * * * * * * * * * * * * * * * * * * * * * * * * * * * * * * * * * * * * * //

dimensions      [0 2 -2 0 0 0 0];

internalField   nonuniform List<scalar> 
2000
(
-3.39986
168.227
342.979
550.385
781.1
1026.94
1285.1
1553.23
1828.28
2107.46
2388.11
2667.6
2945.18
3224.03
3504.25
3780.91
4050.21
4309.57
4556.96
4792.45
-9.99729
164.81
335.495
536.838
760.572
1000.08
1253.34
1518.33
1792.03
2071.3
2353.33
2635.78
2918.31
3202.23
3485.5
3764.31
4035.75
4297.24
4545.98
4782.76
-12.8859
162.543
329.846
526.236
744.012
977.06
1224.07
1483.96
1754.35
2032.25
2314.7
2599.54
2887.09
3176.62
3462.58
3741.68
4013.2
4276.09
4527.32
4766.61
-13.2835
159.784
323.141
514.991
727.941
955.805
1196.92
1451.21
1717.32
1992.81
2274.8
2561.59
2853.27
3146.08
3432.27
3710.88
3982.87
4247.62
4501.78
4743.66
-12.0332
156.596
314.909
501.343
708.844
931.794
1167.96
1417.11
1678.86
1951.46
2232.47
2520.86
2815.39
3108.87
3393.78
3672.05
3945.38
4211.72
4468.72
4714.03
-9.87276
153.828
306.219
485.856
686.541
903.572
1134.76
1379.18
1636.78
1906.36
2186.28
2475.76
2771.64
3064.23
3347.51
3625.73
3900.4
4168.94
4429.48
4678.64
-7.22947
151.96
298.128
470.029
662.679
872.53
1097.77
1337.24
1590.62
1857.2
2135.99
2425.67
2720.94
3011.46
3293.42
3572.64
3849.83
4121.05
4384.95
4638.46
-4.32959
151.177
291.295
455.053
638.929
840.716
1058.95
1292.74
1541.57
1805.01
2082.13
2370.58
2663.95
2952.36
3233.85
3514.75
3794.68
4069.47
4337.89
4596.69
-1.31104
151.421
286.014
441.687
616.481
809.837
1020.54
1247.89
1491.61
1751.44
2026.1
2312.15
2603.14
2890.01
3171.77
3455.27
3739
4018.1
4291.21
4556
1.76191
152.472
282.23
430.579
596.317
781.242
984.48
1205.05
1443.1
1698.72
1970.16
2253.27
2541.46
2827.28
3110.84
3397.88
3686.22
3970.49
4249.52
4521.2
5.01302
154.282
279.957
422.12
579.672
756.28
952.44
1166.45
1398.65
1649.59
1917.27
2197.11
2482.98
2768.97
3055.15
3346.44
3640.57
3931.49
4216.59
4493.76
8.61234
157.058
279.715
416.914
567.837
736.78
926.276
1134.39
1361.01
1606.89
1870.52
2147.26
2431.24
2718.27
3008.11
3304.03
3603.55
3900.24
4190.21
4472.01
12.586
161.102
282.408
416.359
562.236
724.977
908.313
1111.23
1332.92
1573.82
1833.3
2107.28
2390.53
2678.97
2971.52
3271.21
3575.92
3878.56
4173.47
4459.22
16.7809
166.663
288.821
421.89
564.93
723.497
901.396
1099.27
1316.34
1553.06
1809.45
2082.07
2365.39
2654.99
2949.76
3252.91
3562.26
3869.24
4166.31
4453.18
21.0184
173.702
299.214
434.383
577.756
734.797
909.153
1102.16
1314.55
1548.01
1803.37
2077.22
2362.17
2652.93
2947.47
3249.05
3557.77
3865.24
4163.41
4451.98
24.9975
181.669
312.884
453.451
601.597
760.707
934.953
1125.84
1335.1
1566.97
1823.03
2097.68
2381.94
2670.23
2960.28
3255.97
3560.09
3866.34
4164.78
4453.8
28.1292
189.635
328.115
476.338
633.284
799.906
978.756
1172.22
1383.26
1616.57
1871.02
2141.36
2420.44
2702.4
2984.82
3271.21
3566.23
3869.28
4169.96
4461.57
29.811
196.742
342.641
498.698
665.442
842.895
1030.74
1231.38
1447.83
1683.68
1933.66
2194.49
2463.64
2736.16
3010.53
3288.84
3574.29
3869.66
4169.03
4465.32
29.5549
202.727
354.167
516.11
690.678
877.537
1074.88
1283.07
1504.28
1740.09
1985.42
2236.45
2492.76
2753.87
3019.71
3290.52
3567.08
3852.65
4146.76
4448.26
28.3034
208.567
361.21
525.773
704.319
896.414
1100.59
1315.75
1541.86
1777.79
2020.47
2267.09
2515.42
2767.24
3024.78
3286.95
3554.81
3830.99
4116.39
4415.35
5020.72
5250.89
5490.44
5742.76
6009.6
6291.26
6588.02
6901.21
7232.78
7584.77
7959.47
8359.22
8786.74
9244.62
9734.88
10263.8
10821.4
11460.9
12014.3
13097.6
5012.55
5244.32
5485.64
5740.07
6009.12
6292.54
6590.35
6904.01
7235.7
7587.62
7962.15
8361.68
8789.04
9246.72
9736.95
10265.9
10823.5
11462.9
12016.5
13095.5
4998.43
5232.25
5476.19
5733.63
6005.5
6291.06
6590.24
6904.72
7236.88
7589.04
7963.67
8363.22
8790.62
9248.26
9738.61
10267.6
10825.4
11464.9
12018.2
13094.2
4978.03
5214.94
5462.49
5723.74
5998.98
6287.02
6587.85
6903.43
7236.38
7589.09
7964.12
8363.95
8791.62
9249.4
9740.01
10269.1
10827.1
11466.8
12019.7
13093.8
4952
5192.84
5444.88
5710.8
5989.99
6280.79
6583.46
6900.41
7234.45
7588.01
7963.7
8364.05
8792.18
9250.26
9741.24
10270.5
10828.6
11468.6
12021.1
13094.1
4920.74
5166.52
5424.29
5695.76
5979.25
6272.85
6577.42
6895.88
7231.22
7585.86
7962.44
8363.5
8792.23
9250.7
9742.15
10271.6
10829.9
11470.3
12022.5
13094.7
4885.94
5138.01
5402.47
5679.85
5967.5
6263.61
6569.97
6890.02
7226.8
7582.69
7960.34
8362.3
8791.76
9250.78
9742.81
10272.6
10831
11472.1
12024
13095.4
4850.27
5109.46
5381.13
5664.26
5955.41
6253.51
6561.52
6883.19
7221.53
7578.82
7957.68
8360.67
8790.98
9250.67
9743.35
10273.4
10832.2
11474.1
12025.8
13096
4816.71
5083.56
5362.13
5649.95
5943.51
6243.02
6552.55
6875.85
7215.78
7574.52
7954.63
8358.72
8789.9
9250.36
9743.73
10274.1
10833.3
11476.1
12027.8
13096.5
4788.86
5062.16
5346.15
5637.07
5931.89
6232.36
6543.35
6868.28
7209.8
7570.02
7951.41
8356.64
8788.71
9250.02
9744.02
10274.6
10834.6
11478.2
12030
13096.6
4766.44
5044.73
5332.85
5625.43
5920.6
6221.82
6534.24
6860.79
7203.91
7565.62
7948.29
8354.67
8787.6
9249.79
9744.3
10275.2
10836.3
11480.3
12032.3
13096.3
4749.49
5032.04
5322.64
5615.11
5909.92
6211.8
6525.57
6853.65
7198.27
7561.4
7945.3
8352.81
8786.55
9249.67
9744.55
10276
10838.3
11481.7
12034.2
13095.5
4739.58
5024.22
5315.07
5605.92
5900.17
6202.84
6517.88
6847.4
7193.4
7557.82
7942.83
8351.37
8785.78
9249.78
9744.79
10276.9
10840.1
11482.1
12035.6
13093.6
4734.54
5020.28
5309.89
5598.28
5891.88
6195.32
6511.42
6842.23
7189.43
7554.98
7940.93
8350.37
8785.28
9250.08
9744.97
10277.9
10841.6
11481
12036.5
13090.1
4735.23
5020.51
5306.83
5592.53
5885.42
6189.53
6506.43
6838.34
7186.52
7553.02
7939.69
8349.84
8785.05
9250.53
9745
10278.9
10842.4
11478.3
12038.2
13086
4739.95
5024.2
5305.93
5589.3
5881.12
6185.73
6503.16
6835.94
7184.84
7552.08
7939.27
8349.91
8785.22
9251.2
9744.8
10279.5
10841.8
11475
12042
13082
4749.9
5029.8
5305.03
5587.42
5878.26
6183.51
6501.36
6834.91
7184.35
7552.16
7939.69
8350.65
8785.92
9252.27
9744.56
10279.8
10839.5
11470.6
12047.6
13077.5
4759.46
5034.37
5302.72
5586.49
5876.93
6182.91
6501
6835.09
7184.83
7552.98
7940.69
8351.84
8787.06
9253.73
9745
10281
10837.1
11465.1
12057.9
13063.2
4760.73
5037.74
5301.87
5587.05
5877.21
6183.37
6501.54
6835.89
7185.8
7554.09
7941.87
8353.03
8788.32
9255.08
9746.69
10284.2
10839.3
11464
12082.7
13018.9
4751.86
5050.83
5304.61
5590.77
5878.44
6184.9
6502.64
6837.24
7187.08
7555.39
7942.99
8354.23
8789.37
9256.9
9748.14
10289.4
10842
11483.2
12106.8
12976.2
4721.44
5091.29
5300.19
5603.69
5879.93
6190
6504.22
6839.53
7188.14
7556.88
7943.6
8356.13
8789.27
9261.92
9745.04
10304
10824.4
11536.2
12036.7
13072.8
4714.61
5100.99
5298.94
5606.04
5879.45
6190.02
6503.28
6838.61
7186.83
7555.67
7942.24
8355.15
8787.93
9261.85
9743.2
10306.4
10819.3
11548.3
12019.2
13098
4711.67
5109.14
5298.74
5608.59
5879.37
6190.21
6502.54
6837.8
7185.64
7554.55
7940.99
8354.24
8786.76
9261.83
9741.56
10308.8
10815.7
11558.6
12004.7
13118.3
4710.58
5115.99
5299.02
5611.1
5879.48
6190.43
6501.88
6837.03
7184.5
7553.45
7939.81
8353.39
8785.68
9261.82
9740.03
10311.3
10812.2
11567.7
11991.4
13137.2
4710.59
5121.86
5299.63
5613.48
5879.72
6190.65
6501.27
6836.28
7183.41
7552.41
7938.69
8352.59
8784.72
9261.85
9738.67
10313.8
10808.6
11576.5
11978.6
13155.6
4711.51
5126.93
5300.52
5615.7
5880.07
6190.87
6500.74
6835.59
7182.4
7551.43
7937.68
8351.88
8783.88
9261.93
9737.51
10316.1
10805.1
11584.9
11966.3
13173.7
4713.27
5131.34
5301.67
5617.73
5880.53
6191.1
6500.32
6834.99
7181.52
7550.57
7936.79
8351.27
8783.19
9262.07
9736.56
10318.4
10801.7
11593
11954.4
13191.6
4715.79
5135.18
5303.03
5619.57
5881.12
6191.41
6500.06
6834.56
7180.83
7549.87
7936.07
8350.79
8782.66
9262.29
9735.82
10320.5
10798.4
11600.9
11943
13209.5
4718.95
5138.44
5304.57
5621.24
5881.86
6191.85
6500.06
6834.38
7180.41
7549.39
7935.56
8350.47
8782.31
9262.57
9735.33
10322.7
10795.2
11608.4
11931.8
13227.4
4722.55
5141.14
5306.28
5622.76
5882.81
6192.52
6500.4
6834.52
7180.32
7549.2
7935.3
8350.31
8782.12
9262.91
9735.05
10324.9
10792.1
11615.7
11920.7
13245
4726.3
5143.25
5308.19
5624.2
5884.05
6193.51
6501.18
6835.1
7180.65
7549.35
7935.32
8350.35
8782.09
9263.29
9734.9
10327.3
10789.5
11622.7
11909.5
13262.4
4729.88
5144.78
5310.34
5625.69
5885.69
6194.95
6502.52
6836.19
7181.46
7549.87
7935.64
8350.56
8782.21
9263.66
9734.81
10329.5
10787.2
11629.6
11897.8
13279.5
4733.02
5145.75
5312.82
5627.39
5887.85
6196.96
6504.5
6837.87
7182.79
7550.8
7936.27
8350.94
8782.43
9263.98
9734.69
10331.2
10785.2
11636.2
11885.5
13296.5
4735.56
5146.25
5315.78
5629.46
5890.67
6199.63
6507.18
6840.15
7184.65
7552.11
7937.16
8351.45
8782.71
9264.19
9734.49
10332.2
10783.2
11642.6
11872.2
13313.2
4737.47
5146.45
5319.42
5632.07
5894.28
6203.01
6510.56
6842.99
7186.99
7553.75
7938.27
8352.03
8782.98
9264.19
9734.22
10332.5
10781.2
11648.4
11858
13329.3
4738.89
5146.66
5323.92
5635.38
5898.71
6207.07
6514.53
6846.27
7189.65
7555.59
7939.48
8352.57
8783.16
9263.91
9733.8
10332.1
10779.2
11653.4
11842.6
13344.8
4739.86
5147.44
5329.31
5639.47
5903.84
6211.67
6518.86
6849.75
7192.42
7557.43
7940.63
8352.98
8783.12
9263.34
9733.04
10331.3
10776.1
11658.5
11824.6
13360.9
4740.94
5149.49
5335.8
5644.55
5909.66
6216.68
6523.35
6853.22
7195.07
7559.13
7941.58
8353.21
8782.81
9262.58
9731.77
10330.6
10771.1
11666
11801.2
13379.9
4746.6
5153.11
5344.83
5650.83
5916.57
6222.11
6528
6856.57
7197.55
7560.62
7942.4
8353.3
8782.53
9261.59
9730.69
10329.1
10766.4
11672.3
11776.8
13396.9
4767.04
5156.45
5357.41
5656.91
5924.01
6226.94
6532.26
6859.3
7199.61
7561.76
7943.17
8353.24
8782.74
9259.91
9731.53
10323.5
10770
11661.1
11777.6
13387.8
4886.82
5150.36
5393.95
5663.63
5939.24
6232.42
6538.21
6861.07
7200.88
7560.89
7942.49
8349.69
8782.51
9249.56
9739.71
10286.9
10821.4
11528.4
11956.5
13222.8
4899.71
5147.73
5402.43
5667.34
5943.96
6234.38
6539.49
6860.94
7200.33
7559.86
7941.71
8348.47
8782.34
9246.65
9741.69
10276.4
10835.3
11483.4
12021.3
13158.9
4898.62
5148.97
5405.55
5670.61
5946.99
6236.38
6540.53
6861.05
7199.82
7558.93
7940.57
8347.09
8780.85
9244.6
9739.96
10273.1
10835.9
11475.8
12041.8
13126.5
4898.6
5150.21
5407.38
5672.83
5949.03
6237.97
6541.5
6861.39
7199.64
7558.36
7939.71
8345.99
8779.52
9243.09
9738.22
10271.5
10834.5
11475.5
12045.3
13109.6
4902.78
5153.44
5410.2
5675.38
5951.15
6239.56
6542.5
6861.81
7199.56
7557.86
7938.86
8344.83
8778.06
9241.39
9736.31
10269.7
10832.6
11473.8
12043.7
13099
4909.6
5158.46
5414.13
5678.53
5953.63
6241.39
6543.67
6862.39
7199.64
7557.48
7938.08
8343.71
8776.62
9239.67
9734.29
10267.6
10830.1
11470.9
12040.2
13091.8
4918.04
5164.85
5419.12
5682.42
5956.62
6243.55
6545.05
6863.14
7199.83
7557.18
7937.34
8342.58
8775.14
9237.87
9732.17
10265.2
10827.2
11467.4
12036
13086.2
4927.4
5172.21
5424.93
5686.99
5960.09
6246.02
6546.67
6864.04
7200.13
7556.97
7936.67
8341.48
8773.65
9236.03
9729.97
10262.6
10823.9
11463.9
12031.3
13080.8
4937.35
5180.23
5431.33
5692.02
5963.9
6248.72
6548.44
6865.05
7200.51
7556.82
7936.05
8340.44
8772.18
9234.18
9727.74
10259.9
10820.6
11460.3
12025.8
13076.2
4947.48
5188.49
5437.98
5697.26
5967.86
6251.54
6550.31
6866.14
7200.97
7556.75
7935.51
8339.47
8770.81
9232.44
9725.59
10257.3
10817.6
11456.8
12019.6
13074.8
4957.45
5196.74
5444.65
5702.5
5971.8
6254.37
6552.2
6867.27
7201.51
7556.79
7935.11
8338.67
8769.65
9230.93
9723.7
10255.1
10815
11453.4
12014.7
13076.5
4967.16
5204.77
5451.12
5707.54
5975.59
6257.11
6554.08
6868.5
7202.2
7557.04
7934.96
8338.16
8768.81
9229.78
9722.21
10253.4
10812.9
11450.5
12012
13078.5
4976.58
5212.53
5457.29
5712.31
5979.17
6259.74
6556
6869.88
7203.16
7557.61
7935.18
8338.06
8768.41
9229.1
9721.25
10252.2
10811.2
11448
12011
13082.1
4985.65
5219.92
5463.07
5716.7
5982.5
6262.3
6558.03
6871.53
7204.48
7558.63
7935.9
8338.49
8768.56
9228.96
9720.87
10251.7
10810.1
11446.9
12012.8
13083.7
4994.35
5226.89
5468.39
5720.72
5985.65
6264.9
6560.29
6873.56
7206.3
7560.23
7937.26
8339.56
8769.35
9229.47
9721.17
10251.8
10809.9
11447.8
12015.2
13081.2
5002.73
5233.44
5473.34
5724.57
5988.87
6267.81
6563.08
6876.24
7208.85
7562.6
7939.39
8341.4
8770.9
9230.73
9722.23
10252.6
10810.4
11449.4
12013.6
13083.1
5010.26
5239.45
5478.14
5728.63
5992.59
6271.46
6566.75
6879.88
7212.36
7565.88
7942.39
8344.09
8773.29
9232.8
9724.05
10254.2
10811.7
11450.8
12013
13087
5015.99
5244.8
5483.08
5733.26
5997.1
6276.01
6571.4
6884.56
7216.93
7570.21
7946.4
8347.72
8776.55
9235.69
9726.7
10256.5
10813.9
11453.6
12013.3
13090.2
5020.2
5249.73
5488.27
5738.4
6002.16
6281.1
6576.64
6889.97
7222.35
7575.42
7951.24
8352.13
8780.56
9239.26
9729.95
10259.4
10816.8
11456.8
12013.9
13094.3
5023.47
5253.07
5491.73
5742.34
6007.19
6287.19
6583.07
6896.19
7228.12
7580.68
7955.95
8356.23
8784.13
9242.35
9732.77
10261.9
10819.3
11459.2
12013.9
13097.2
4675.16
4652.81
4643.68
4644.94
4651.91
4661.9
4673.33
4685.29
4697.51
4709.76
4721.62
4733.06
4744.18
4754.93
4765.34
4775.47
4784.55
4790.7
4793.69
4795.91
4360.02
4364.62
4370.39
4380.25
4393.4
4408.4
4423.96
4439.25
4454.1
4468.67
4482.48
4495.65
4508.37
4520.69
4532.64
4544.28
4554.65
4561.11
4562.3
4561.67
4013.64
4050.7
4079.02
4102.78
4125.29
4147.1
4167.89
4187.23
4205.12
4222.06
4237.82
4252.57
4266.54
4279.91
4292.78
4305.19
4316.11
4322.51
4321.56
4316.35
3670.2
3729.75
3777.71
3816.01
3849.15
3878.83
3905.64
3929.58
3950.88
3970.3
3987.99
4004
4018.62
4032.12
4044.77
4056.54
4066.56
4072.1
4069.04
4059.46
3339.09
3409.98
3473.36
3524.51
3567.82
3605.39
3638.4
3667.29
3692.33
3714.35
3733.85
3750.68
3765.4
3778.34
3789.78
3799.71
3807.62
3811.39
3806.29
3793.53
3020.8
3096.07
3170.84
3232.28
3284.2
3328.91
3367.82
3401.57
3430.43
3455.01
3476.23
3493.9
3508.83
3521.28
3531.28
3538.93
3543.89
3544.34
3536.19
3520.55
2718.04
2792
2873.49
2941.97
3000.75
3051.44
3095.43
3133.57
3166.07
3193.3
3216.55
3235.64
3250.99
3262.91
3271.45
3276.54
3277.72
3273.52
3261.74
3243.67
2432.55
2500.53
2583.15
2655.88
2719.37
2774.39
2822.17
2863.67
2899.22
2928.98
2953.91
2974.35
2990.12
3001.59
3008.81
3011.62
3009.63
3002
2987.97
2968.32
2163.67
2222.74
2302.81
2377
2442.31
2499.6
2549.52
2592.92
2630.34
2661.94
2688.06
2709.23
2725.18
2736.31
2742.72
2744.09
2740.17
2730.68
2715.32
2694.09
1910.83
1960.24
2033.5
2106.07
2171.46
2229.17
2279.75
2323.85
2362.02
2394.5
2421.3
2442.81
2458.73
2469.26
2474.81
2475.18
2469.85
2458.3
2440.74
2417.25
1673.69
1713.3
1776.2
1843.88
1907.45
1964.54
2014.51
2058.02
2095.71
2127.88
2154.55
2175.81
2191.37
2201.01
2205.02
2203.48
2196.09
2182.6
2163.34
2138.21
1451.33
1481.62
1532.29
1592.31
1651.52
1706.05
1754.48
1796.43
1832.6
1863.29
1888.56
1908.48
1922.72
1930.91
1933.2
1929.81
1920.81
1906.28
1885.98
1859.79
1242.68
1264.77
1303.02
1352.7
1404.97
1454.85
1500.02
1539.44
1573.28
1601.8
1624.99
1642.88
1655.21
1661.65
1662.27
1657.42
1647.37
1632.1
1611.18
1584.54
1046.43
1061.66
1088.61
1126.51
1169.28
1212
1252.01
1287.88
1318.69
1344.28
1364.9
1380.51
1390.75
1395.42
1394.63
1388.76
1378.04
1362.21
1341.13
1314.88
861.187
870.902
888.357
914.64
946.371
979.845
1012.53
1042.78
1069.47
1091.87
1109.55
1122.44
1130.46
1133.57
1131.82
1125.39
1114.36
1098.61
1078.36
1053.82
685.805
691.131
700.845
716.698
737.312
760.535
784.513
807.651
828.632
846.507
860.711
870.922
876.899
878.496
875.867
869.223
858.576
843.936
825.585
803.944
519.538
521.163
524.281
531.026
541.643
555.239
570.575
586.28
601.044
613.809
623.876
630.805
634.33
634.336
630.919
624.127
614.068
601.004
585.293
567.803
363.243
361.255
358.08
356.662
358.655
364.219
372.279
381.343
390.105
397.618
403.254
406.642
407.624
406.2
402.409
396.391
388.255
378.152
366.345
354.047
218.107
210.42
201.317
194.612
192.104
193.563
197.493
202.158
206.299
209.249
210.727
210.746
209.556
207.353
204.061
199.668
194.175
187.59
180.335
173.642
72.3753
52.6059
36.1388
26.6228
21.994
20.5094
20.8977
21.9505
22.5825
22.1428
20.4542
17.6567
14.093
10.2019
6.3281
2.56021
-1.16565
-4.73384
-7.36508
-7.80872
)
;

boundaryField
{
    right
    {
        type            cyclic;
    }
    left
    {
        type            cyclic;
    }
    outerWall
    {
        type            zeroGradient;
    }
    stirrerWall
    {
        type            zeroGradient;
    }
    top
    {
        type            empty;
    }
    bottom
    {
        type            empty;
    }
}


// ************************************************************************* //
