/*--------------------------------*- C++ -*----------------------------------*\
  =========                 |
  \\      /  F ield         | OpenFOAM: The Open Source CFD Toolbox
   \\    /   O peration     | Website:  https://openfoam.org
    \\  /    A nd           | Version:  10
     \\/     M anipulation  |
\*---------------------------------------------------------------------------*/
FoamFile
{
    format      ascii;
    class       surfaceScalarField;
    location    "900";
    object      phi;
}
// * * * * * * * * * * * * * * * * * * * * * * * * * * * * * * * * * * * * * //

dimensions      [0 3 -1 0 0 0 0];

internalField   nonuniform List<scalar> 
788
(
-2.35935e-06
-7.27833e-06
-3.53216e-07
1.07194e-05
9.34836e-07
1.4739e-05
1.66119e-06
1.63955e-05
1.67259e-06
1.61428e-05
8.54401e-07
1.41435e-05
-6.13927e-07
9.86571e-06
-2.65142e-06
1.34705e-06
-4.38947e-06
-1.21113e-05
-2.95779e-05
-5.52754e-06
-9.05098e-07
-6.37095e-06
3.95377e-07
9.37735e-06
1.81416e-06
1.32598e-05
2.85094e-06
1.53083e-05
3.20351e-06
1.57699e-05
2.84093e-06
1.4535e-05
2.03519e-06
1.07476e-05
9.69476e-07
2.48397e-06
-3.47056e-07
-1.07731e-05
-2.8267e-05
-1.67993e-06
-2.20907e-07
-6.15983e-06
8.55268e-07
8.23154e-06
2.21017e-06
1.18224e-05
3.38815e-06
1.40722e-05
4.11717e-06
1.50143e-05
4.49508e-06
1.41659e-05
4.6497e-06
1.06321e-05
4.48861e-06
2.68222e-06
3.50147e-06
-9.79754e-06
-2.67195e-05
1.85829e-06
-7.93931e-08
-6.10428e-06
9.57626e-07
7.1087e-06
2.38347e-06
1.03026e-05
3.85593e-06
1.25327e-05
5.15129e-06
1.36846e-05
6.31722e-06
1.30025e-05
7.22199e-06
9.7647e-06
7.54407e-06
2.41234e-06
6.69526e-06
-8.92032e-06
-2.47843e-05
4.72e-06
-1.58403e-07
-5.97834e-06
8.40866e-07
6.01391e-06
2.38885e-06
8.64932e-06
4.21132e-06
1.06272e-05
6.07803e-06
1.17675e-05
7.83022e-06
1.12402e-05
9.14353e-06
8.48707e-06
9.4468e-06
2.18135e-06
8.42088e-06
-7.82169e-06
-2.2608e-05
6.2644e-06
-3.76549e-07
-5.63823e-06
5.5586e-07
4.97885e-06
2.22825e-06
6.85919e-06
4.36236e-06
8.3923e-06
6.68684e-06
9.37551e-06
8.78278e-06
9.12655e-06
1.01712e-05
7.14563e-06
1.02026e-05
2.26313e-06
8.8073e-06
-6.278e-06
-2.01555e-05
6.47232e-06
-7.25218e-07
-4.95121e-06
1.43594e-07
4.00171e-06
1.93023e-06
4.94328e-06
4.27031e-06
5.93688e-06
6.85248e-06
6.71371e-06
9.18587e-06
6.77266e-06
1.06531e-05
5.74079e-06
1.05231e-05
2.55842e-06
8.77975e-06
-4.28191e-06
-1.71751e-05
6.05801e-06
-1.22661e-06
-3.76297e-06
-3.15227e-07
2.97985e-06
1.57526e-06
2.91617e-06
3.96765e-06
3.419e-06
6.61948e-06
3.97163e-06
9.12578e-06
4.23684e-06
1.09282e-05
4.00291e-06
1.11547e-05
2.53938e-06
9.039e-06
-1.80021e-06
-1.28003e-05
5.07947e-06
-1.91553e-06
-1.88456e-06
-5.81239e-07
1.54553e-06
1.25028e-06
9.6452e-07
3.35186e-06
1.19459e-06
5.68327e-06
1.53409e-06
7.98503e-06
1.88568e-06
9.87171e-06
2.18174e-06
1.05729e-05
2.08348e-06
8.51432e-06
7.07219e-07
-6.38911e-06
2.62326e-06
-1.91168e-06
-4.2078e-07
4.82911e-07
1.6196e-06
3.11866e-06
5.01783e-06
7.29395e-06
9.57738e-06
1.05805e-05
4.46943e-06
-6.16746e-06
-5.06857e-05
-6.44226e-06
-8.25809e-05
-6.54514e-06
-0.000124153
-6.6237e-06
-0.000175662
-6.29917e-06
-0.000240205
-5.04034e-06
-0.000321034
-2.48917e-06
-0.000427673
9.81556e-07
-0.000575989
-3.22011e-06
-0.000649354
-0.00105005
-2.88523e-06
-4.95377e-05
-3.8914e-06
-8.16479e-05
-4.52082e-06
-0.000123573
-4.97019e-06
-0.00017511
-4.99685e-06
-0.000239739
-4.80423e-06
-0.000320672
-4.6506e-06
-0.000427915
-7.53083e-07
-0.000580103
-6.16755e-06
-0.000643386
-0.00105597
9.80534e-08
-4.79492e-05
-1.32765e-06
-8.04404e-05
-2.18854e-06
-0.000122891
-2.75631e-06
-0.000174524
-3.0111e-06
-0.00023923
-3.60968e-06
-0.000320041
-4.66955e-06
-0.000427085
1.19125e-08
-0.000583917
-4.67513e-06
-0.000638909
-0.00106063
2.57739e-06
-4.59299e-05
1.00134e-06
-7.90408e-05
1.08818e-07
-0.000122113
-4.64761e-07
-0.000173844
-8.13956e-07
-0.000238646
-1.82508e-06
-0.000319211
-3.51532e-06
-0.000425579
1.03382e-06
-0.000588296
-3.67559e-06
-0.000634325
-0.00106427
4.1089e-06
-4.38481e-05
2.78668e-06
-7.78593e-05
2.06008e-06
-0.000121446
1.54453e-06
-0.00017314
1.1184e-06
-0.00023799
-1.86121e-07
-0.000318163
-2.34594e-06
-0.000423292
2.18032e-06
-0.000592848
-3.59424e-06
-0.000628563
-0.00106779
4.70614e-06
-4.20728e-05
4.04273e-06
-7.72862e-05
3.66258e-06
-0.000121082
3.31073e-06
-0.000172549
2.90809e-06
-0.000237328
1.5318e-06
-0.000316965
-1.22025e-06
-0.00042023
3.72736e-06
-0.000597831
-2.79079e-06
-0.000622001
-0.00107049
4.92634e-06
-4.08112e-05
5.06462e-06
-7.74515e-05
5.06963e-06
-0.000121087
4.98388e-06
-0.000172252
4.74988e-06
-0.0002369
3.62413e-06
-0.000315974
2.92643e-07
-0.000416549
5.31726e-06
-0.000602929
-1.16392e-06
-0.000615472
-0.00107155
5.0857e-06
-4.05358e-05
6.05585e-06
-7.83659e-05
6.42538e-06
-0.000121424
6.64613e-06
-0.000172289
6.65739e-06
-0.000236817
5.86664e-06
-0.000315339
2.03402e-06
-0.000412403
5.93935e-06
-0.000606951
1.13012e-06
-0.000610655
-0.0010703
5.4226e-06
-4.29557e-05
7.44722e-06
-8.01999e-05
7.85509e-06
-0.00012173
8.1581e-06
-0.000172417
8.35569e-06
-0.000236995
7.98993e-06
-0.000315179
4.06731e-06
-0.000408254
4.23954e-06
-0.0006072
3.4118e-06
-0.000609778
-0.00106692
9.19649e-06
-4.75229e-05
9.95071e-06
-8.0692e-05
9.25295e-06
-0.000120894
9.11894e-06
-0.000172185
9.38092e-06
-0.000237297
1.05501e-05
-0.000316389
7.67079e-06
-0.000405176
2.64272e-06
-0.000602411
6.13965e-06
-0.000612868
-0.00106109
5.05937e-06
-5.2408e-05
5.38413e-06
-8.08964e-05
4.62159e-06
-0.000120034
4.14652e-06
-0.000171605
3.69254e-06
-0.000236901
3.09932e-06
-0.000315896
7.44139e-06
-0.000409265
1.14771e-05
-0.000606584
-1.50195e-06
-0.000599527
-0.00106252
6.26318e-06
-5.86169e-05
7.34271e-06
-8.19069e-05
6.84945e-06
-0.00011949
6.62293e-06
-0.000171194
6.20442e-06
-0.000236481
4.92147e-06
-0.000314757
7.56329e-06
-0.000411636
1.37599e-05
-0.000613038
2.86711e-06
-0.000588508
-0.00105951
9.79275e-06
-5.02473e-05
-1.80914e-05
8.79287e-06
-8.05346e-05
8.14876e-06
-0.000118847
7.80985e-06
-0.000170723
7.67939e-06
-0.000236336
7.96436e-06
-0.000315083
2.83001e-06
-0.000406218
2.96235e-06
-0.000613271
1.34362e-05
-0.000598757
-0.00104611
7.26391e-06
-5.09494e-05
-6.24574e-06
7.03769e-06
-8.00917e-05
7.13645e-06
-0.000118978
7.43387e-06
-0.000170879
7.83091e-06
-0.000236622
8.74064e-06
-0.000315987
6.31283e-06
-0.000403594
1.44754e-06
-0.000608111
4.00096e-06
-0.000601094
-0.00104208
2.27062e-06
-5.25098e-05
-5.37073e-07
3.06926e-06
-8.08307e-05
3.70839e-06
-0.000119664
4.42607e-06
-0.000171482
4.92697e-06
-0.000237017
5.7474e-06
-0.000316715
5.46812e-06
-0.000403083
1.71431e-07
-0.000602905
1.97268e-06
-0.000602693
-0.0010401
-1.89047e-06
-5.35116e-05
2.97263e-06
-8.33014e-07
-8.18417e-05
2.06773e-07
-0.00012076
1.30831e-06
-0.000172437
2.01809e-06
-0.000237602
2.79577e-06
-0.000317488
3.52958e-06
-0.000403541
-2.51844e-06
-0.000596928
-6.7171e-07
-0.000604438
-0.00104083
-5.53334e-06
-5.38706e-05
5.98781e-06
-4.60815e-06
-8.27198e-05
-3.38347e-06
-0.00012203
-2.04317e-06
-0.000173603
-1.16279e-06
-0.000238324
-4.28142e-07
-0.000318262
1.2744e-06
-0.000405049
-5.87996e-06
-0.000589871
-4.26366e-06
-0.000606062
-0.00104517
-8.79639e-06
-5.37936e-05
8.80714e-06
-8.13843e-06
-8.33583e-05
-6.92436e-06
-0.000123266
-5.53479e-06
-0.000174831
-4.61884e-06
-0.000239142
-4.02511e-06
-0.000318995
-1.33873e-06
-0.000407627
-8.17268e-06
-0.000583145
-6.01663e-06
-0.000608225
-0.0010512
-1.13206e-05
-5.34346e-05
1.10146e-05
-1.1082e-05
-8.35841e-05
-1.02169e-05
-0.000124129
-9.1335e-06
-0.000175803
-8.41995e-06
-0.000239879
-8.15975e-06
-0.000319513
-4.12937e-06
-0.000411566
-8.03619e-06
-0.000579248
-5.41104e-06
-0.000610688
-0.00105654
-1.30083e-05
-5.27311e-05
1.23417e-05
-1.33706e-05
-8.32133e-05
-1.32502e-05
-0.000124275
-1.31302e-05
-0.000175934
-1.31757e-05
-0.000240033
-1.3427e-05
-0.000319607
-8.42425e-06
-0.000416351
-8.33836e-06
-0.000579121
1.69594e-06
-0.000620447
-0.00105462
-1.39365e-05
-5.16809e-05
1.29153e-05
-1.4768e-05
-8.24475e-05
-1.56416e-05
-0.000123573
-1.66004e-05
-0.000175237
-1.71302e-05
-0.000239947
-1.76536e-05
-0.000319457
-1.40697e-05
-0.000419462
-1.60639e-05
-0.000576955
1.77855e-05
-0.00065542
-0.00103721
-1.10078e-05
1.01903e-05
-1.13357e-05
-1.153e-05
-1.18462e-05
-1.21821e-05
-1.10032e-05
-3.79869e-06
-8.42619e-06
-1.02794e-05
-2.10327e-05
3.17581e-06
-2.95809e-05
2.56183e-06
-3.36001e-05
3.69683e-06
-3.564e-05
5.12914e-06
-3.63455e-05
6.77221e-06
-3.61128e-05
8.64273e-06
-3.52057e-05
1.01596e-05
-3.37976e-05
1.0932e-05
-3.20247e-05
1.09936e-05
8.49128e-06
-6.58319e-06
9.87202e-06
-1.33335e-05
9.53036e-06
-1.79087e-05
8.36761e-06
-2.05769e-05
7.82408e-06
-2.16595e-05
7.88919e-06
-2.14888e-05
8.51717e-06
-2.03666e-05
9.06265e-06
-1.85583e-05
9.11574e-06
-1.61754e-05
8.55096e-06
6.22619e-06
1.91482e-07
9.74797e-06
-2.73495e-06
1.25356e-05
-5.98347e-06
1.16104e-05
-8.19947e-06
1.00287e-05
-9.19671e-06
8.89439e-06
-9.03406e-06
8.35833e-06
-7.86838e-06
7.87956e-06
-5.95585e-06
7.17081e-06
-3.44094e-06
5.98883e-06
3.68201e-06
2.31263e-06
7.46643e-06
2.87089e-06
1.19912e-05
2.02001e-06
1.24279e-05
1.05205e-06
1.09701e-05
6.3741e-07
9.29974e-06
1.07868e-06
7.89784e-06
2.28416e-06
6.63772e-06
4.07042e-06
5.3477e-06
6.20873e-06
3.81906e-06
1.68706e-06
2.43317e-06
5.0507e-06
4.73294e-06
9.67552e-06
6.07107e-06
1.10489e-05
6.62257e-06
1.03901e-05
7.08443e-06
8.81486e-06
7.85904e-06
7.08784e-06
9.00245e-06
5.44727e-06
1.0418e-05
3.89441e-06
1.19245e-05
2.28878e-06
3.29188e-07
2.10844e-06
2.95251e-06
5.00321e-06
6.74886e-06
7.81277e-06
8.18635e-06
9.9517e-06
8.21406e-06
1.14761e-05
7.25131e-06
1.26966e-05
5.81615e-06
1.3818e-05
4.26975e-06
1.48691e-05
2.80373e-06
1.57385e-05
1.39574e-06
-1.77185e-07
1.69422e-06
1.25893e-06
4.70097e-06
3.69775e-06
8.05522e-06
4.76579e-06
1.10703e-05
5.14587e-06
1.3433e-05
4.83187e-06
1.51628e-05
4.02243e-06
1.63866e-05
2.98232e-06
1.71748e-05
1.96806e-06
1.75172e-05
1.02193e-06
8.56754e-09
1.39005e-06
-1.38204e-07
4.26741e-06
7.65609e-07
7.46969e-06
1.48816e-06
1.04636e-05
2.08464e-06
1.29389e-05
2.28863e-06
1.47994e-05
2.09303e-06
1.60575e-05
1.66017e-06
1.6769e-05
1.20479e-06
1.68831e-05
8.62633e-07
5.21212e-07
8.81863e-07
-1.02806e-06
3.08335e-06
-1.48891e-06
5.47884e-06
-9.68679e-07
7.78076e-06
-2.73735e-07
9.80556e-06
2.0843e-07
1.14139e-05
4.30978e-07
1.25574e-05
4.69191e-07
1.32813e-05
4.4408e-07
1.35918e-05
5.26576e-07
9.85626e-07
-1.03358e-06
-2.55283e-06
-3.54693e-06
-3.84443e-06
-3.65938e-06
-3.25145e-06
-2.80465e-06
-2.38648e-06
-1.89919e-06
)
;

boundaryField
{
    right
    {
        type            cyclic;
        value           nonuniform List<scalar> 
20
(
0.00104682
0.000654411
0.000572365
0.000424649
0.000319218
0.000239093
0.000174792
0.000123457
8.23093e-05
5.09882e-05
3.06121e-05
1.38166e-05
7.01466e-07
-8.37839e-06
-1.33118e-05
-1.61638e-05
-1.72066e-05
-1.62187e-05
-1.31099e-05
1.10585e-06
)
;
    }
    left
    {
        type            cyclic;
        value           nonuniform List<scalar> 
20
(
-0.00104682
-0.000654411
-0.000572365
-0.000424649
-0.000319218
-0.000239093
-0.000174792
-0.000123457
-8.23093e-05
-5.09882e-05
-3.06121e-05
-1.38166e-05
-7.01466e-07
8.37839e-06
1.33118e-05
1.61638e-05
1.72066e-05
1.62187e-05
1.31099e-05
-1.10585e-06
)
;
    }
    outerWall
    {
        type            calculated;
        value           uniform 0;
    }
    stirrerWall
    {
        type            calculated;
        value           uniform 0;
    }
    top
    {
        type            empty;
        value           nonuniform List<scalar> 0();
    }
    bottom
    {
        type            empty;
        value           nonuniform List<scalar> 0();
    }
}


// ************************************************************************* //
