/*--------------------------------*- C++ -*----------------------------------*\
  =========                 |
  \\      /  F ield         | OpenFOAM: The Open Source CFD Toolbox
   \\    /   O peration     | Website:  https://openfoam.org
    \\  /    A nd           | Version:  10
     \\/     M anipulation  |
\*---------------------------------------------------------------------------*/
FoamFile
{
    format      ascii;
    class       surfaceScalarField;
    location    "900";
    object      phi;
}
// * * * * * * * * * * * * * * * * * * * * * * * * * * * * * * * * * * * * * //

dimensions      [0 3 -1 0 0 0 0];

internalField   nonuniform List<scalar> 
3880
(
5.37133e-06
-2.49744e-05
1.18185e-05
-9.00362e-06
1.98732e-05
2.38489e-05
2.82059e-05
4.88617e-05
3.5671e-05
6.4923e-05
4.17854e-05
7.31363e-05
4.65404e-05
7.49334e-05
5.01683e-05
7.17829e-05
5.28492e-05
6.51432e-05
5.48393e-05
5.61866e-05
5.64957e-05
4.57007e-05
5.82228e-05
3.42609e-05
6.0274e-05
2.33998e-05
6.20575e-05
1.38077e-05
6.36336e-05
7.38408e-06
6.69477e-05
3.84976e-06
7.38034e-05
-1.28695e-05
7.79548e-05
-4.89574e-05
7.79965e-05
-7.88202e-05
-0.000101514
7.51332e-05
4.7775e-06
-2.97675e-05
1.10081e-05
-1.51694e-05
1.93471e-05
1.56116e-05
2.81842e-05
3.99581e-05
3.68319e-05
5.63056e-05
4.47066e-05
6.52947e-05
5.13924e-05
6.81696e-05
5.67076e-05
6.64164e-05
6.05788e-05
6.13028e-05
6.31203e-05
5.36579e-05
6.46348e-05
4.40876e-05
6.56338e-05
3.3176e-05
6.67705e-05
2.22768e-05
6.8171e-05
1.24101e-05
7.1657e-05
3.79641e-06
8.01646e-05
-4.81931e-06
8.89343e-05
-2.17585e-05
9.02929e-05
-5.03511e-05
8.78902e-05
-7.64161e-05
-9.70626e-05
8.3443e-05
2.95687e-06
-3.27537e-05
7.83876e-06
-2.01925e-05
1.6546e-05
7.0153e-06
2.63984e-05
3.01447e-05
3.61661e-05
4.64833e-05
4.5281e-05
5.60652e-05
5.33872e-05
6.00285e-05
6.0243e-05
5.95918e-05
6.57115e-05
5.58043e-05
6.98502e-05
4.9475e-05
7.27976e-05
4.11178e-05
7.47771e-05
3.1206e-05
7.63695e-05
2.06889e-05
7.85851e-05
1.0151e-05
8.29984e-05
-7.06005e-07
9.03198e-05
-1.22332e-05
9.59751e-05
-2.74688e-05
9.59538e-05
-5.03698e-05
9.27967e-05
-7.3332e-05
-9.20515e-05
8.76991e-05
1.80191e-06
-3.45251e-05
4.93247e-06
-2.33712e-05
1.35567e-05
-1.60183e-06
2.40604e-05
1.95142e-05
3.46718e-05
3.5863e-05
4.47048e-05
4.60544e-05
5.37989e-05
5.09264e-05
6.17654e-05
5.15934e-05
6.84882e-05
4.90162e-05
7.39951e-05
4.39498e-05
7.83453e-05
3.679e-05
8.16445e-05
2.79323e-05
8.43141e-05
1.80149e-05
8.70862e-05
7.34163e-06
9.04888e-05
-4.15257e-06
9.52207e-05
-1.70045e-05
9.89142e-05
-3.1175e-05
9.8162e-05
-4.96183e-05
9.44406e-05
-6.96247e-05
-8.63235e-05
8.86956e-05
9.81215e-07
-3.55153e-05
2.60445e-06
-2.51055e-05
1.05162e-05
-9.41449e-06
2.11594e-05
8.83421e-06
3.22302e-05
2.47668e-05
4.28323e-05
3.54556e-05
5.25676e-05
4.11697e-05
6.12563e-05
4.2868e-05
6.88182e-05
4.14346e-05
7.52697e-05
3.75435e-05
8.06103e-05
3.15183e-05
8.48788e-05
2.3717e-05
8.83007e-05
1.4601e-05
9.1193e-05
4.41009e-06
9.36576e-05
-6.6404e-06
9.65564e-05
-1.98645e-05
9.86881e-05
-3.32289e-05
9.71014e-05
-4.79776e-05
9.2353e-05
-6.48589e-05
-7.95316e-05
8.5581e-05
5.61714e-07
-3.60528e-05
1.31379e-06
-2.59818e-05
7.63791e-06
-1.56321e-05
1.76994e-05
-1.17417e-06
2.87724e-05
1.36327e-05
3.95834e-05
2.46155e-05
4.96111e-05
3.11406e-05
5.86319e-05
3.38556e-05
6.6587e-05
3.35179e-05
7.34755e-05
3.07227e-05
7.92596e-05
2.57752e-05
8.3934e-05
1.90421e-05
8.75752e-05
1.09457e-05
9.02836e-05
1.70606e-06
9.20198e-05
-8.33036e-06
9.34129e-05
-2.11863e-05
9.37155e-05
-3.34754e-05
9.09712e-05
-4.52143e-05
8.51703e-05
-5.90645e-05
-7.16094e-05
7.72573e-05
3.68863e-07
-3.63627e-05
7.82617e-07
-2.64722e-05
5.24283e-06
-2.00677e-05
1.39675e-05
-9.82812e-06
2.44597e-05
3.07291e-06
3.50783e-05
1.39768e-05
4.50253e-05
2.12151e-05
5.397e-05
2.49314e-05
6.18337e-05
2.56908e-05
6.8591e-05
2.39988e-05
7.42093e-05
2.01626e-05
7.86811e-05
1.45635e-05
8.20119e-05
7.61654e-06
8.42364e-05
-5.05361e-07
8.5301e-05
-9.37637e-06
8.50808e-05
-2.09617e-05
8.34776e-05
-3.18868e-05
7.9494e-05
-4.12515e-05
7.23586e-05
-5.19534e-05
-6.21448e-05
6.28759e-05
2.22482e-07
-3.65313e-05
3.95134e-07
-2.66532e-05
3.73281e-06
-2.34604e-05
1.04911e-05
-1.65472e-05
1.96413e-05
-6.13325e-06
2.9542e-05
4.07461e-06
3.90001e-05
1.17711e-05
4.74847e-05
1.64452e-05
5.48098e-05
1.83762e-05
6.08894e-05
1.79145e-05
6.56915e-05
1.53267e-05
6.92468e-05
1.0975e-05
7.16046e-05
5.24238e-06
7.27965e-05
-1.71381e-06
7.27598e-05
-9.37582e-06
7.06976e-05
-1.89462e-05
6.66681e-05
-2.78969e-05
6.05713e-05
-3.51827e-05
5.16944e-05
-4.31075e-05
-5.14738e-05
4.099e-05
3.16037e-08
-3.65382e-05
1.21819e-07
-2.67059e-05
2.84102e-06
-2.62704e-05
7.77942e-06
-2.14969e-05
1.49628e-05
-1.33686e-05
2.33963e-05
-4.36059e-06
3.18123e-05
3.33228e-06
3.9425e-05
8.79732e-06
4.58221e-05
1.19614e-05
5.07627e-05
1.29476e-05
5.4167e-05
1.18813e-05
5.60842e-05
9.03004e-06
5.66338e-05
4.68226e-06
5.59692e-05
-1.06398e-06
5.40145e-05
-7.45961e-06
4.92596e-05
-1.42323e-05
4.21968e-05
-2.08662e-05
3.35975e-05
-2.66078e-05
2.33045e-05
-3.28432e-05
-4.1218e-05
1.30299e-05
-2.27764e-07
-3.63139e-05
-2.05319e-07
-2.66872e-05
1.8204e-06
-2.84e-05
5.51907e-06
-2.52459e-05
1.08541e-05
-1.87569e-05
1.72678e-05
-1.07765e-05
2.38794e-05
-3.3149e-06
3.00744e-05
2.58328e-06
3.51601e-05
6.88586e-06
3.85768e-05
9.5363e-06
4.00708e-05
1.03947e-05
3.96406e-05
9.48926e-06
3.74386e-05
6.91075e-06
3.36518e-05
2.72745e-06
2.82291e-05
-2.06203e-06
1.94517e-05
-5.49031e-06
8.82168e-06
-1.02702e-05
-1.58184e-06
-1.62224e-05
-1.08039e-05
-2.36196e-05
-3.50503e-05
-1.69501e-05
-5.86464e-07
-3.57498e-05
-8.31781e-07
-2.64313e-05
4.44143e-07
-2.97771e-05
3.00016e-06
-2.78506e-05
6.78804e-06
-2.25745e-05
1.12044e-05
-1.51711e-05
1.55772e-05
-7.69109e-06
1.97294e-05
-1.52943e-06
2.3094e-05
3.58734e-06
2.46533e-05
8.02256e-06
2.38368e-05
1.125e-05
2.03684e-05
1.30071e-05
1.42693e-05
1.30317e-05
5.71978e-06
1.12641e-05
-4.99062e-06
8.62668e-06
-1.87519e-05
8.25458e-06
-3.17448e-05
2.71101e-06
-4.01666e-05
-7.80374e-06
-4.30264e-05
-2.07601e-05
-3.62033e-05
-4.18628e-05
-1.11672e-06
-3.46664e-05
-1.94922e-06
-2.56192e-05
-1.60712e-06
-3.0192e-05
-1.26954e-07
-2.93383e-05
2.2016e-06
-2.48812e-05
4.6091e-06
-1.75289e-05
6.77767e-06
-9.84054e-06
8.68638e-06
-3.3903e-06
1.02983e-05
2.03003e-06
9.98328e-06
8.36008e-06
6.85562e-06
1.43752e-05
-2.34441e-09
1.985e-05
-1.0944e-05
2.39343e-05
-2.49482e-05
2.52289e-05
-4.10253e-05
2.4692e-05
-5.7535e-05
2.47762e-05
-6.88699e-05
1.40598e-05
-7.23487e-05
-4.29949e-06
-6.67583e-05
-2.63242e-05
-4.70432e-05
-5.59164e-05
-1.84926e-06
-3.28524e-05
-3.61868e-06
-2.3869e-05
-4.43628e-06
-2.93997e-05
-4.10293e-06
-2.96357e-05
-3.02752e-06
-2.59128e-05
-2.22368e-06
-1.83082e-05
-1.99079e-06
-1.00868e-05
-2.03313e-06
-3.36907e-06
-9.98765e-07
9.44346e-07
-2.2088e-06
9.50868e-06
-6.16182e-06
1.82789e-05
-1.4611e-05
2.82587e-05
-2.85566e-05
3.78402e-05
-4.56838e-05
4.23429e-05
-6.1243e-05
4.02923e-05
-6.90836e-05
3.27021e-05
-6.75469e-05
1.26077e-05
-6.08202e-05
-1.09703e-05
-5.47777e-05
-3.23452e-05
-5.3019e-05
-4.88056e-05
-2.73518e-06
-3.01462e-05
-5.66694e-06
-2.0932e-05
-7.91737e-06
-2.71418e-05
-9.25611e-06
-2.82634e-05
-9.93149e-06
-2.52297e-05
-1.03287e-05
-1.79634e-05
-1.02985e-05
-1.01863e-05
-9.53267e-06
-4.19436e-06
-7.30694e-06
-1.33378e-06
-9.84706e-06
1.20376e-05
-1.75383e-05
2.60113e-05
-2.88237e-05
3.96049e-05
-4.08515e-05
4.99438e-05
-5.14824e-05
5.30609e-05
-5.94244e-05
4.83159e-05
-6.21522e-05
3.5504e-05
-6.1446e-05
1.19619e-05
-5.6001e-05
-1.63644e-05
-5.02559e-05
-3.80682e-05
-5.9854e-05
-4.34417e-05
-3.61177e-06
-2.65535e-05
-7.72199e-06
-1.68112e-05
-1.13204e-05
-2.35415e-05
-1.42049e-05
-2.53815e-05
-1.65736e-05
-2.28831e-05
-1.88093e-05
-1.57762e-05
-2.09083e-05
-8.10962e-06
-2.2418e-05
-2.67394e-06
-2.32457e-05
-4.36339e-07
-2.66473e-05
1.55612e-05
-3.28451e-05
3.23214e-05
-4.00959e-05
4.693e-05
-4.72563e-05
5.71576e-05
-5.26988e-05
5.85157e-05
-5.57614e-05
5.13635e-05
-5.58232e-05
3.55258e-05
-5.13056e-05
7.39234e-06
-4.30348e-05
-2.46805e-05
-3.55302e-05
-4.56091e-05
-6.55245e-05
-2.9906e-05
-4.44319e-06
-2.21191e-05
-9.48978e-06
-1.17799e-05
-1.41898e-05
-1.88707e-05
-1.80551e-05
-2.15118e-05
-2.09424e-05
-1.99989e-05
-2.27954e-05
-1.38762e-05
-2.40691e-05
-6.74847e-06
-2.52176e-05
-1.4478e-06
-2.86751e-05
3.07858e-06
-3.33663e-05
2.02521e-05
-3.63816e-05
3.52763e-05
-3.66813e-05
4.71437e-05
-3.35514e-05
5.3975e-05
-2.73613e-05
5.2305e-05
-2.25319e-05
4.65398e-05
-2.10602e-05
3.40638e-05
-2.03612e-05
6.69407e-06
-1.87529e-05
-2.62548e-05
-1.6763e-05
-4.75061e-05
-6.48705e-05
-1.73036e-05
-5.21958e-06
-1.69022e-05
-1.07117e-05
-6.30317e-06
-1.63256e-05
-1.32984e-05
-2.11468e-05
-1.66369e-05
-2.44869e-05
-1.66292e-05
-2.53828e-05
-1.29622e-05
-2.4434e-05
-7.72929e-06
-2.36032e-05
-2.37716e-06
-2.61264e-05
5.53023e-06
-2.63454e-05
2.04565e-05
-2.28992e-05
3.18674e-05
-1.73229e-05
4.1621e-05
-8.60937e-06
4.53004e-05
3.14963e-06
4.05205e-05
1.33161e-05
3.62869e-05
2.03884e-05
2.69116e-05
2.28338e-05
4.20934e-06
2.1124e-05
-2.4622e-05
1.50939e-05
-4.15932e-05
-5.33407e-05
3.48492e-06
-5.71548e-06
-1.11926e-05
-1.0757e-05
-1.23208e-06
-1.68757e-05
-7.20314e-06
-2.33171e-05
-1.02349e-05
-2.88471e-05
-1.11378e-05
-3.19883e-05
-9.8108e-06
-3.2388e-05
-7.27768e-06
-3.10292e-05
-3.69237e-06
-2.82833e-05
2.83059e-06
-2.06428e-05
1.28489e-05
-9.57376e-06
2.07773e-05
5.36253e-06
2.66388e-05
2.40454e-05
2.66037e-05
4.28641e-05
2.17186e-05
5.93417e-05
1.98159e-05
7.1472e-05
1.47826e-05
7.39042e-05
1.80212e-06
6.49259e-05
-1.55931e-05
4.88238e-05
-2.54509e-05
-3.08781e-05
2.63789e-05
-5.78397e-06
-5.42441e-06
-8.27697e-06
1.26411e-06
-1.34708e-05
-2.00432e-06
-2.07514e-05
-2.87543e-06
-2.83883e-05
-3.4158e-06
-3.46691e-05
-3.52281e-06
-3.87076e-05
-3.29207e-06
-4.00246e-05
-2.40093e-06
-3.69379e-05
-2.25894e-07
-2.71402e-05
3.08448e-06
-1.20358e-05
5.66218e-06
7.22804e-06
7.33908e-06
2.72237e-05
6.61903e-06
4.44519e-05
4.51742e-06
6.04636e-05
3.80385e-06
7.39077e-05
1.3565e-06
7.89335e-05
-3.23524e-06
7.11771e-05
-7.85229e-06
5.28688e-05
-7.26619e-06
-3.68307e-06
2.5526e-05
-5.44815e-06
-4.17996e-06
-6.18696e-06
-9.07099e-06
-1.2517e-05
-1.60675e-05
-1.93696e-05
-2.17686e-05
-2.19968e-05
-1.89249e-05
-1.32621e-05
-5.88669e-06
7.64998e-07
5.28007e-06
9.07337e-06
1.04455e-05
7.19164e-06
-6.66232e-07
-7.91055e-06
-1.15523e-05
7.03445e-05
-0.000121038
6.4063e-05
-0.000142618
5.65749e-05
-0.000163213
4.83168e-05
-0.00018214
3.99425e-05
-0.000201473
3.21918e-05
-0.000226798
2.55161e-05
-0.000259591
2.00294e-05
-0.000296258
1.56459e-05
-0.000334867
1.21893e-05
-0.000375659
9.45721e-06
-0.000419188
7.29146e-06
-0.000465863
5.56941e-06
-0.000516529
4.17999e-06
-0.000571623
3.01593e-06
-0.000631981
2.04433e-06
-0.000699943
1.25956e-06
-0.000765013
1.29968e-06
-0.00087168
2.48805e-06
-0.000871481
-0.0011981
7.75148e-05
-0.000115167
7.00653e-05
-0.000135284
6.13106e-05
-0.000154578
5.17473e-05
-0.000172673
4.24052e-05
-0.000192206
3.43359e-05
-0.000218791
2.77135e-05
-0.000253035
2.22312e-05
-0.000290857
1.77062e-05
-0.000330421
1.40281e-05
-0.000372044
1.10444e-05
-0.000416273
8.62703e-06
-0.000463521
6.65372e-06
-0.000514604
5.06655e-06
-0.000570045
3.70586e-06
-0.000630605
2.61221e-06
-0.000698835
1.63796e-06
-0.000764027
1.31375e-06
-0.000871332
1.91562e-06
-0.000872075
-0.00119621
8.10195e-05
-0.000108576
7.26104e-05
-0.000126956
6.27298e-05
-0.000144749
5.217e-05
-0.000162132
4.24094e-05
-0.00018245
3.45411e-05
-0.00021095
2.8311e-05
-0.000246866
2.31104e-05
-0.000285744
1.87129e-05
-0.000326122
1.50521e-05
-0.000368467
1.20254e-05
-0.000413305
9.54243e-06
-0.000461071
7.46804e-06
-0.000512542
5.79059e-06
-0.000568383
4.28594e-06
-0.000629127
3.13814e-06
-0.000697723
1.9779e-06
-0.000762906
1.43155e-06
-0.000870807
1.9701e-06
-0.000872631
-0.00119424
8.11705e-05
-0.000101068
7.17592e-05
-0.000117541
6.09187e-05
-0.000133875
4.98082e-05
-0.000150987
4.02394e-05
-0.000172868
3.30762e-05
-0.000203793
2.75434e-05
-0.000241358
2.28378e-05
-0.000281083
1.8765e-05
-0.000322097
1.53061e-05
-0.000365041
1.23926e-05
-0.000410409
9.97036e-06
-0.000458661
7.89637e-06
-0.000510489
6.22085e-06
-0.000566758
4.63338e-06
-0.00062761
3.49879e-06
-0.000696658
2.19038e-06
-0.00076166
1.5468e-06
-0.000870221
2.09475e-06
-0.000873197
-0.00119215
7.69836e-05
-9.24271e-05
6.65652e-05
-0.000107049
5.51081e-05
-0.000122321
4.41985e-05
-0.000139987
3.57464e-05
-0.000164348
2.99606e-05
-0.00019796
2.54943e-05
-0.000236853
2.15241e-05
-0.000277079
1.79721e-05
-0.00031851
1.4877e-05
-0.00036191
1.22063e-05
-0.000407707
9.95089e-06
-0.000456385
7.96601e-06
-0.0005085
6.38122e-06
-0.000565198
4.77525e-06
-0.000626052
3.71425e-06
-0.000695668
2.28939e-06
-0.000760275
1.64665e-06
-0.00086962
2.17388e-06
-0.000873733
-0.00118997
6.74976e-05
-8.26313e-05
5.63166e-05
-9.58036e-05
4.50035e-05
-0.00011093
3.54826e-05
-0.000130398
2.92643e-05
-0.000158083
2.5475e-05
-0.00019414
2.23599e-05
-0.000233714
1.93102e-05
-0.000274009
1.64308e-05
-0.000315615
1.3826e-05
-0.000359297
1.15054e-05
-0.00040538
9.5112e-06
-0.000454375
7.69861e-06
-0.000506666
6.28344e-06
-0.000563765
4.71191e-06
-0.000624478
3.80527e-06
-0.000694787
2.27934e-06
-0.000758768
1.75013e-06
-0.000869102
2.18576e-06
-0.000874159
-0.00118778
5.19899e-05
-7.17654e-05
4.08246e-05
-8.46502e-05
3.1096e-05
-0.00010121
2.45734e-05
-0.000123899
2.16051e-05
-0.000155168
2.01253e-05
-0.000192737
1.84562e-05
-0.000232129
1.64227e-05
-0.000272066
1.43167e-05
-0.000313609
1.22959e-05
-0.000357385
1.04103e-05
-0.000403591
8.75117e-06
-0.000452774
7.17401e-06
-0.000505108
5.98419e-06
-0.00056257
4.47572e-06
-0.000622973
3.78305e-06
-0.000694098
2.16445e-06
-0.000757157
1.78084e-06
-0.000868709
2.03935e-06
-0.000874398
-0.00118573
3.02666e-05
-6.10861e-05
2.11163e-05
-7.55498e-05
1.51516e-05
-9.5304e-05
1.31468e-05
-0.00012196
1.38058e-05
-0.000155909
1.44645e-05
-0.000193494
1.4134e-05
-0.000231908
1.31191e-05
-0.000271167
1.18271e-05
-0.000312448
1.04427e-05
-0.000356145
9.04727e-06
-0.000402327
7.77179e-06
-0.000451591
6.46928e-06
-0.000503853
5.53493e-06
-0.000561651
4.11506e-06
-0.000621579
3.68014e-06
-0.00069367
1.97964e-06
-0.000755465
1.76203e-06
-0.000868478
1.78027e-06
-0.000874399
-0.00118394
4.94261e-06
-5.29961e-05
4.79103e-07
-7.10738e-05
1.55975e-07
-9.49667e-05
3.04151e-06
-0.000124828
6.6896e-06
-0.000159532
8.92334e-06
-0.000195705
9.72085e-06
-0.00023269
9.66377e-06
-0.000271102
9.16888e-06
-0.000311958
8.42827e-06
-0.000355425
7.54422e-06
-0.00040146
6.6755e-06
-0.000450725
5.66877e-06
-0.000502837
4.9984e-06
-0.000560968
3.68741e-06
-0.000620282
3.5368e-06
-0.000693517
1.76166e-06
-0.000753694
1.73643e-06
-0.00086844
1.50682e-06
-0.000874162
-0.00118244
-1.90213e-05
-5.08651e-05
-1.69061e-05
-7.31106e-05
-1.14629e-05
-0.000100327
-4.86952e-06
-0.000131332
5.6717e-07
-0.00016487
3.81251e-06
-0.000198858
5.55156e-06
-0.000234359
6.34983e-06
-0.00027185
6.57404e-06
-0.000312148
6.4288e-06
-0.000355247
6.03097e-06
-0.000401016
5.55477e-06
-0.000450198
4.83994e-06
-0.000502075
4.42158e-06
-0.000560524
3.23129e-06
-0.000619099
3.36411e-06
-0.000693639
1.53875e-06
-0.00075187
1.71592e-06
-0.000868611
1.29669e-06
-0.000873751
-0.00118116
-3.75467e-05
-5.51409e-05
-2.95996e-05
-8.10134e-05
-1.97196e-05
-0.000110194
-1.08799e-05
-0.000140181
-4.53293e-06
-0.000171239
-5.95665e-07
-0.000202846
1.92864e-06
-0.000236971
3.43309e-06
-0.000273463
4.24985e-06
-0.000313072
4.60533e-06
-0.000355671
4.62541e-06
-0.000401059
4.49073e-06
-0.000450069
4.03888e-06
-0.000501625
3.84287e-06
-0.000560345
2.78037e-06
-0.000618071
3.15353e-06
-0.000694014
1.34393e-06
-0.000750071
1.76026e-06
-0.000869039
1.1787e-06
-0.000873195
-0.00118001
-4.43104e-05
-6.6771e-05
-3.30174e-05
-9.2358e-05
-2.26825e-05
-0.000120613
-1.44977e-05
-0.000148438
-8.28939e-06
-0.000177475
-3.96566e-06
-0.000207185
-8.92677e-07
-0.000240067
1.11404e-06
-0.000275506
2.37567e-06
-0.000314366
3.1191e-06
-0.000356414
3.4618e-06
-0.000401382
3.58823e-06
-0.000450192
3.34637e-06
-0.000501395
3.3228e-06
-0.000560358
2.3863e-06
-0.000617183
2.90711e-06
-0.000694547
1.12522e-06
-0.000748312
1.89162e-06
-0.000869832
1.05102e-06
-0.000872391
-0.00117898
-4.079e-05
-7.47878e-05
-3.12938e-05
-0.000101843
-2.24435e-05
-0.000129416
-1.56103e-05
-0.000155168
-1.00546e-05
-0.000182883
-5.80598e-06
-0.00021128
-2.58105e-06
-0.000243141
-3.74034e-07
-0.00027759
1.10962e-06
-0.000315738
2.07442e-06
-0.000357259
2.60898e-06
-0.000401828
2.89713e-06
-0.000450452
2.80363e-06
-0.000501308
2.89412e-06
-0.000560483
2.09297e-06
-0.000616429
2.69847e-06
-0.000695167
8.85986e-07
-0.000746527
2.021e-06
-0.000870999
7.32131e-07
-0.000871142
-0.00117827
-3.55193e-05
-8.27601e-05
-2.72655e-05
-0.000110149
-2.01204e-05
-0.000136598
-1.45189e-05
-0.000160804
-9.71576e-06
-0.000187762
-5.94347e-06
-0.000215172
-3.03485e-06
-0.000246166
-9.70792e-07
-0.000279756
4.85069e-07
-0.000317239
1.48675e-06
-0.000358238
2.07577e-06
-0.000402396
2.42672e-06
-0.000450823
2.42302e-06
-0.000501332
2.56436e-06
-0.000560661
1.91073e-06
-0.000615819
2.52357e-06
-0.000695795
6.60446e-07
-0.000744693
2.15397e-06
-0.000872523
2.38286e-07
-0.000869266
-0.00117806
-2.56806e-05
-8.70438e-05
-2.10286e-05
-0.000114853
-1.58636e-05
-0.000141828
-1.15174e-05
-0.000165229
-7.72256e-06
-0.00019164
-4.70606e-06
-0.000218247
-2.38934e-06
-0.000248496
-6.96353e-07
-0.000281432
5.2453e-07
-0.000318412
1.38733e-06
-0.000359028
1.8951e-06
-0.000402868
2.20262e-06
-0.000451147
2.22201e-06
-0.000501366
2.34177e-06
-0.0005608
1.84147e-06
-0.000615349
2.35537e-06
-0.00069632
4.67465e-07
-0.00074283
2.2791e-06
-0.000874359
-4.46991e-07
-0.000866577
-0.00117853
-1.73214e-05
-8.69539e-05
-1.43952e-05
-0.00011775
-1.05481e-05
-0.000145637
-7.32859e-06
-0.00016841
-4.637e-06
-0.000194306
-2.48417e-06
-0.000220379
-9.06992e-07
-0.00025007
2.65964e-07
-0.000282578
1.10353e-06
-0.000319198
1.69615e-06
-0.000359552
2.02006e-06
-0.000403161
2.19363e-06
-0.00045133
2.17028e-06
-0.000501338
2.19742e-06
-0.000560824
1.86087e-06
-0.00061503
2.17822e-06
-0.000696643
3.19695e-07
-0.000740988
2.42147e-06
-0.000876486
-1.51981e-06
-0.000862676
-0.00118007
-4.55481e-06
-7.89776e-05
-4.93016e-06
-0.000117484
-3.72382e-06
-0.000146952
-2.18209e-06
-0.000170068
-8.45128e-07
-0.00019576
3.77079e-07
-0.000221676
1.17693e-06
-0.000250927
1.76298e-06
-0.000283173
2.11521e-06
-0.000319541
2.33509e-06
-0.000359743
2.38956e-06
-0.000403205
2.34652e-06
-0.000451301
2.20458e-06
-0.000501186
2.04566e-06
-0.000560649
1.87045e-06
-0.000614867
1.8853e-06
-0.000696661
1.95198e-07
-0.0007393
2.41414e-06
-0.000878722
-3.11816e-06
-0.00085718
-0.00118319
9.23963e-06
-6.1792e-05
4.96261e-06
-0.000113151
3.33096e-06
-0.000145257
3.31815e-06
-0.000169998
3.44378e-06
-0.000195824
3.74964e-06
-0.000221958
3.75635e-06
-0.000250952
3.70428e-06
-0.000283109
3.52069e-06
-0.00031937
3.28402e-06
-0.000359506
3.01045e-06
-0.000402929
2.66346e-06
-0.000450961
2.34746e-06
-0.00050086
1.81267e-06
-0.000560087
1.78676e-06
-0.000614835
1.0631e-06
-0.000695947
3.94815e-07
-0.000738636
1.63873e-06
-0.000879973
-4.41113e-06
-0.000851128
-0.00118758
1.30592e-05
-4.93729e-05
1.09092e-05
-0.000111015
9.75235e-06
-0.000144103
9.03285e-06
-0.000169273
8.58578e-06
-0.000195371
7.97101e-06
-0.000221367
7.1799e-06
-0.000250238
6.39169e-06
-0.000282331
5.60389e-06
-0.000318624
4.81358e-06
-0.000358744
4.13135e-06
-0.000402267
3.3274e-06
-0.00045015
2.86559e-06
-0.000500383
1.62817e-06
-0.000558827
1.89228e-06
-0.000615092
-9.76593e-07
-0.000693119
1.2487e-06
-0.000740842
-2.1536e-06
-0.000876532
-4.26796e-06
-0.000849001
-0.00119184
8.4325e-06
-6.93079e-05
1.59933e-05
-0.000118477
1.66947e-05
-0.000144749
1.6912e-05
-0.000169462
1.5542e-05
-0.000194037
1.39268e-05
-0.000219746
1.21272e-05
-0.000248527
1.05562e-05
-0.00028075
9.03184e-06
-0.000317142
7.6175e-06
-0.000357337
6.27869e-06
-0.000400957
4.88128e-06
-0.00044871
3.95452e-06
-0.000499443
2.11094e-06
-0.000557034
2.12308e-06
-0.000615067
-1.59732e-06
-0.000689434
8.77609e-07
-0.000743299
-5.66536e-06
-0.000869959
-1.07522e-05
-0.000843903
-0.0012026
2.96201e-06
-7.22602e-05
1.81672e-06
-0.000117325
2.12607e-06
-0.000145049
1.5795e-06
-0.000168915
1.39241e-06
-0.000193871
1.05765e-06
-0.000219412
8.87763e-07
-0.000248381
7.314e-07
-0.000280605
6.20717e-07
-0.000317046
4.61918e-07
-0.000357176
3.27189e-07
-0.000400825
1.1329e-07
-0.00044849
9.28635e-08
-0.000499415
-2.49186e-07
-0.00055671
9.65737e-08
-0.000615406
-7.44136e-07
-0.000688583
5.62316e-07
-0.000744601
-1.69561e-06
-0.000867697
1.93675e-06
-0.000847525
-0.00120067
3.20338e-06
-7.54606e-05
1.87848e-06
-0.000115994
2.21152e-06
-0.000145382
1.61851e-06
-0.00016832
1.42268e-06
-0.000193681
1.08102e-06
-0.000219064
9.17299e-07
-0.000248222
7.74181e-07
-0.000280459
6.77279e-07
-0.000316951
5.28748e-07
-0.000357023
3.98056e-07
-0.000400699
1.81247e-07
-0.000448276
1.56107e-07
-0.000499386
-1.94513e-07
-0.000556365
1.51052e-07
-0.000615749
-7.41522e-07
-0.000687695
5.79393e-07
-0.000745921
-1.77177e-06
-0.000865344
1.81525e-06
-0.000851112
-0.00119885
3.11954e-06
-7.85769e-05
1.94523e-06
-0.000114816
2.25762e-06
-0.000145697
1.66238e-06
-0.000167722
1.44042e-06
-0.000193466
1.0961e-06
-0.000218713
9.37222e-07
-0.000248066
8.10939e-07
-0.000280326
7.28094e-07
-0.000316871
5.93111e-07
-0.000356882
4.65962e-07
-0.000400577
2.49232e-07
-0.000448063
2.15587e-07
-0.000499349
-1.34995e-07
-0.000556022
1.95332e-07
-0.000616077
-7.04165e-07
-0.000686801
5.9144e-07
-0.000747216
-1.77997e-06
-0.000862973
1.64683e-06
-0.000854539
-0.00119721
2.98489e-06
-8.1559e-05
1.98258e-06
-0.000113812
2.27126e-06
-0.000145989
1.67235e-06
-0.000167118
1.42416e-06
-0.000193226
1.08178e-06
-0.000218361
9.32245e-07
-0.000247918
8.26211e-07
-0.000280211
7.60429e-07
-0.000316809
6.4257e-07
-0.000356757
5.22195e-07
-0.000400463
3.08486e-07
-0.000447853
2.67849e-07
-0.000499305
-8.04296e-08
-0.000555683
2.33764e-07
-0.000616387
-6.64592e-07
-0.00068591
6.19073e-07
-0.000748498
-1.77695e-06
-0.000860577
1.52049e-06
-0.000857838
-0.00119569
2.84313e-06
-8.44004e-05
1.99542e-06
-0.000112964
2.24859e-06
-0.000146245
1.64513e-06
-0.000166509
1.37437e-06
-0.000192963
1.03939e-06
-0.000218016
9.02975e-07
-0.000247783
8.19337e-07
-0.000280116
7.72079e-07
-0.000316767
6.74137e-07
-0.000356651
5.64101e-07
-0.000400358
3.56897e-07
-0.00044765
3.11351e-07
-0.000499256
-3.20413e-08
-0.00055535
2.64839e-07
-0.00061668
-6.22949e-07
-0.00068503
6.54688e-07
-0.000749775
-1.77065e-06
-0.000858152
1.43276e-06
-0.000861043
-0.00119426
2.71164e-06
-8.71108e-05
1.98391e-06
-0.000112235
2.18829e-06
-0.000146452
1.58113e-06
-0.000165894
1.29268e-06
-0.000192682
9.71028e-07
-0.000217683
8.51743e-07
-0.000247665
7.92383e-07
-0.000280045
7.64401e-07
-0.000316745
6.87895e-07
-0.000356567
5.91314e-07
-0.000400268
3.94546e-07
-0.000447459
3.46276e-07
-0.000499203
1.11465e-08
-0.000555028
2.91445e-07
-0.000616955
-5.80192e-07
-0.000684167
6.91989e-07
-0.000751047
-1.76419e-06
-0.000855695
1.38469e-06
-0.000864193
-0.00119287
2.5893e-06
-8.96984e-05
1.94545e-06
-0.000111591
2.09033e-06
-0.000146599
1.48117e-06
-0.000165276
1.18091e-06
-0.00019239
8.79402e-07
-0.000217369
7.81281e-07
-0.000247569
7.47384e-07
-0.000279998
7.39077e-07
-0.000316744
6.84693e-07
-0.000356504
6.03887e-07
-0.000400193
4.2143e-07
-0.000447282
3.72747e-07
-0.00049915
4.92046e-08
-0.000554718
3.13533e-07
-0.000617213
-5.37801e-07
-0.000683324
7.28861e-07
-0.000752313
-1.75609e-06
-0.000853209
1.37963e-06
-0.00086733
-0.00119149
2.47004e-06
-9.21655e-05
1.87774e-06
-0.000110998
1.95544e-06
-0.000146676
1.34673e-06
-0.000164658
1.04162e-06
-0.000192092
7.67502e-07
-0.000217082
6.94115e-07
-0.000247497
6.86415e-07
-0.000279977
6.97661e-07
-0.000316763
6.65887e-07
-0.000356464
6.02427e-07
-0.000400136
4.37369e-07
-0.000447123
3.90924e-07
-0.000499099
8.21078e-08
-0.000554423
3.30981e-07
-0.000617455
-4.96061e-07
-0.000682504
7.64905e-07
-0.000753572
-1.74678e-06
-0.000850696
1.41756e-06
-0.000870495
-0.00119008
2.3467e-06
-9.45079e-05
1.77899e-06
-0.000110431
1.78455e-06
-0.000146681
1.18015e-06
-0.000164045
8.78243e-07
-0.000191797
6.3869e-07
-0.000216829
5.93251e-07
-0.000247455
6.12148e-07
-0.000279984
6.42461e-07
-0.000316802
6.3302e-07
-0.000356447
5.87679e-07
-0.000400096
4.42728e-07
-0.000446984
4.0112e-07
-0.000499052
1.09919e-07
-0.000554147
3.43629e-07
-0.000617681
-4.54878e-07
-0.000681713
7.9982e-07
-0.000754825
-1.73602e-06
-0.000848158
1.4984e-06
-0.000873729
-0.00118858
2.21185e-06
-9.67141e-05
1.64793e-06
-0.000109868
1.57824e-06
-0.00014661
9.83933e-07
-0.000163444
6.94976e-07
-0.000191515
4.96632e-07
-0.000216618
4.81616e-07
-0.000247444
5.27136e-07
-0.000280017
5.75885e-07
-0.00031686
5.87929e-07
-0.000356451
5.61098e-07
-0.000400075
4.38528e-07
-0.000446868
4.03718e-07
-0.000499012
1.3281e-07
-0.00055389
3.51344e-07
-0.000617892
-4.13849e-07
-0.000680954
8.33253e-07
-0.000756069
-1.72308e-06
-0.000845599
1.62198e-06
-0.000877073
-0.00118696
2.06259e-06
-9.87702e-05
1.48371e-06
-0.000109292
1.33899e-06
-0.000146465
7.6321e-07
-0.000162864
4.96435e-07
-0.000191254
3.45014e-07
-0.000216454
3.62018e-07
-0.000247465
4.33782e-07
-0.000280077
5.00141e-07
-0.000316936
5.32787e-07
-0.000356477
5.24411e-07
-0.000400072
4.25595e-07
-0.000446776
3.99203e-07
-0.00049898
1.50714e-07
-0.000553656
3.569e-07
-0.00061809
-3.69718e-07
-0.000680232
8.6501e-07
-0.0007573
-1.70769e-06
-0.000843023
1.78668e-06
-0.000880567
-0.00118517
1.89954e-06
-0.000100663
1.2879e-06
-0.000108685
1.06983e-06
-0.000146246
5.23609e-07
-0.000162315
2.87629e-07
-0.000191023
1.87506e-07
-0.000216342
2.37244e-07
-0.000247519
3.34568e-07
-0.000280163
4.17605e-07
-0.000317029
4.69792e-07
-0.000356522
4.79377e-07
-0.000400087
4.04925e-07
-0.000446708
3.88142e-07
-0.000498958
1.6472e-07
-0.000553447
3.59543e-07
-0.000618278
-3.19217e-07
-0.000679558
9.00212e-07
-0.000758516
-1.68879e-06
-0.000840432
1.99232e-06
-0.000884248
-0.00118318
1.71907e-06
-0.000102375
1.06156e-06
-0.000108034
7.75494e-07
-0.00014596
2.71635e-07
-0.000161809
7.37154e-08
-0.000190828
2.75675e-08
-0.000216283
1.09759e-07
-0.000247605
2.31676e-07
-0.000280274
3.30579e-07
-0.000317138
4.01033e-07
-0.000356587
4.27788e-07
-0.000400118
3.77788e-07
-0.000446664
3.71153e-07
-0.000498946
1.75281e-07
-0.000553265
3.57902e-07
-0.000618453
-2.66267e-07
-0.000678938
9.34638e-07
-0.000759713
-1.66541e-06
-0.000837831
2.23653e-06
-0.00088815
-0.00118095
1.51883e-06
-0.000103887
8.0777e-07
-0.000107328
4.62287e-07
-0.000145615
1.41702e-08
-0.00016136
-1.40229e-07
-0.000190675
-1.31709e-07
-0.00021628
-1.82514e-08
-0.000247723
1.27037e-07
-0.000280409
2.41066e-07
-0.000317261
3.28549e-07
-0.000356669
3.71526e-07
-0.000400165
3.45379e-07
-0.000446645
3.48916e-07
-0.000498945
1.82484e-07
-0.000553112
3.5098e-07
-0.000618615
-2.14554e-07
-0.000678376
9.64219e-07
-0.000760888
-1.63778e-06
-0.000835228
2.51327e-06
-0.000892302
-0.00117844
1.29777e-06
-0.000105178
5.31604e-07
-0.000106567
1.38692e-07
-0.000145223
-2.41003e-07
-0.000160979
-3.49494e-07
-0.000190565
-2.87631e-07
-0.00021633
-1.44827e-07
-0.000247869
2.24322e-08
-0.000280566
1.50933e-07
-0.000317398
2.5426e-07
-0.000356768
3.12362e-07
-0.000400228
3.08828e-07
-0.000446649
3.22277e-07
-0.000498955
1.86334e-07
-0.000552988
3.36979e-07
-0.000618761
-1.66163e-07
-0.000677876
9.87447e-07
-0.000762039
-1.60752e-06
-0.000832634
2.81712e-06
-0.000896728
-0.00117562
1.0543e-06
-0.000106226
2.39458e-07
-0.000105755
-1.85916e-07
-0.000144799
-4.8656e-07
-0.000160676
-5.50006e-07
-0.0001905
-4.37922e-07
-0.000216431
-2.68319e-07
-0.000248042
-8.05863e-08
-0.000280745
6.19065e-08
-0.000317548
1.7991e-07
-0.000356884
2.51962e-07
-0.000400304
2.69462e-07
-0.000446673
2.92106e-07
-0.000498975
1.87192e-07
-0.000552895
3.1923e-07
-0.000618888
-1.17156e-07
-0.000677442
1.00217e-06
-0.000763157
-1.57585e-06
-0.000830058
3.14196e-06
-0.000901448
-0.00117249
7.83102e-07
-0.000107003
-6.20523e-08
-0.000104911
-5.0641e-07
-0.000144355
-7.2023e-07
-0.00016046
-7.38397e-07
-0.000190479
-5.80479e-07
-0.00021658
-3.87127e-07
-0.000248239
-1.80465e-07
-0.000280944
-2.43677e-08
-0.000317711
1.07186e-07
-0.000357014
1.91872e-07
-0.000400393
2.28725e-07
-0.000446717
2.59172e-07
-0.000499004
1.85541e-07
-0.000552831
2.96345e-07
-0.000618995
-6.74544e-08
-0.000677079
9.99615e-07
-0.000764223
-1.54151e-06
-0.00082752
3.47988e-06
-0.000906471
-0.00116901
4.97125e-07
-0.000107495
-3.51167e-07
-0.000104064
-8.15017e-07
-0.000143892
-9.35722e-07
-0.000160337
-9.11793e-07
-0.0001905
-7.13675e-07
-0.000216771
-4.99987e-07
-0.000248457
-2.75718e-07
-0.000281162
-1.06335e-07
-0.000317885
3.77809e-08
-0.000357157
1.33596e-07
-0.000400492
1.88004e-07
-0.000446778
2.24194e-07
-0.000499038
1.82513e-07
-0.000552798
2.67198e-07
-0.000619076
-2.51611e-08
-0.000676787
9.51739e-07
-0.000765201
-1.50817e-06
-0.000825064
3.82256e-06
-0.000911802
-0.00116519
2.13399e-07
-0.000107704
-6.19881e-07
-0.00010323
-1.10118e-06
-0.00014341
-1.12843e-06
-0.000160308
-1.0672e-06
-0.000190557
-8.37727e-07
-0.000216994
-6.07011e-07
-0.000248691
-3.66657e-07
-0.000281398
-1.83796e-07
-0.000318071
-2.81118e-08
-0.000357312
7.76983e-08
-0.000400601
1.47336e-07
-0.000446853
1.88121e-07
-0.000499077
1.7644e-07
-0.000552792
2.35086e-07
-0.000619131
1.06827e-08
-0.000676563
8.99558e-07
-0.000766091
-1.46531e-06
-0.000822703
4.17048e-06
-0.000917437
-0.00116102
-1.00257e-07
-0.000107599
-7.76458e-07
-0.000102555
-1.35079e-06
-0.000142836
-1.27234e-06
-0.000160384
-1.19677e-06
-0.000190627
-9.46473e-07
-0.00021724
-7.08426e-07
-0.000248934
-4.54727e-07
-0.000281651
-2.60644e-07
-0.000318264
-9.30738e-08
-0.000357478
2.21277e-08
-0.000400721
1.07144e-07
-0.000446945
1.49431e-07
-0.000499116
1.72799e-07
-0.000552816
1.93901e-07
-0.000619151
6.33501e-08
-0.000676433
7.9763e-07
-0.000766829
-1.32052e-06
-0.00082059
4.31938e-06
-0.000923073
-0.0011567
-1.94951e-05
-7.65319e-05
-1.15586e-05
-1.56403e-05
-0.000106397
-2.30344e-05
-0.000135427
-2.11827e-05
-0.000162233
-2.16711e-05
-0.000190074
-1.98213e-05
-0.000219087
-1.84493e-05
-0.000250305
-1.63083e-05
-0.000283804
-1.44708e-05