/*--------------------------------*- C++ -*----------------------------------*\
  =========                 |
  \\      /  F ield         | OpenFOAM: The Open Source CFD Toolbox
   \\    /   O peration     | Website:  https://openfoam.org
    \\  /    A nd           | Version:  10
     \\/     M anipulation  |
\*---------------------------------------------------------------------------*/
FoamFile
{
    format      ascii;
    class       volVectorField;
    location    "900";
    object      U;
}
// * * * * * * * * * * * * * * * * * * * * * * * * * * * * * * * * * * * * * //

dimensions      [0 1 -1 0 0 0 0];

internalField   nonuniform List<vector> 
2000
(
(3.73642 39.0829 -1.68424e-17)
(1.24449 45.3785 3.44642e-17)
(3.36447 54.3738 -1.58225e-17)
(5.5083 61.8291 0)
(6.99927 67.6205 0)
(8.06635 72.0456 2.93186e-16)
(8.71531 75.4077 -3.53788e-16)
(9.03655 77.9583 -4.23932e-16)
(9.14465 79.9364 5.07149e-16)
(9.09898 81.5284 6.09874e-16)
(8.9881 82.859 7.39604e-16)
(8.82252 84.0506 0)
(8.62597 85.3967 1.0676e-15)
(8.46461 86.9833 1.23156e-15)
(8.66452 89.1737 1.38982e-15)
(8.91388 92.0866 1.61832e-15)
(8.65549 92.6692 -1.73665e-15)
(9.55054 89.1841 6.69879e-16)
(9.42803 86.9043 6.18164e-16)
(8.87974 86.0132 2.40299e-15)
(1.87174 39.0555 -1.08229e-19)
(-0.691666 44.6834 4.39856e-17)
(1.25395 53.355 -2.2904e-16)
(3.1602 60.7744 -6.23618e-16)
(4.64878 66.7168 1.07816e-16)
(5.91672 71.3608 -1.25215e-15)
(6.85896 74.9254 6.87796e-16)
(7.45207 77.661 1.2729e-15)
(7.7205 79.8076 4.92112e-16)
(7.70257 81.5376 5.80353e-16)
(7.47662 82.9787 -1.35785e-15)
(7.116 84.2401 -7.99562e-16)
(6.68294 85.5945 -1.00412e-15)
(6.34824 87.2152 -1.15517e-15)
(6.24572 89.1812 -3.97512e-15)
(6.87892 91.146 -1.70881e-15)
(7.95682 91.1466 4.54558e-15)
(8.2713 88.9864 -3.7511e-15)
(7.72732 87.5071 0)
(6.88051 87.0241 -3.33183e-15)
(-0.244461 38.4174 1.10311e-17)
(-3.14415 43.4534 -2.67099e-16)
(-1.44654 51.6489 2.76717e-16)
(0.475345 59.0279 6.17561e-16)
(2.02028 65.119 1.0285e-15)
(3.39754 69.9859 2.80107e-16)
(4.49406 73.829 7.38343e-16)
(5.26911 76.8788 -1.25821e-15)
(5.72526 79.33 -1.00209e-15)
(5.90004 81.3267 -1.15987e-15)
(5.83849 82.9713 1.34942e-15)
(5.59466 84.3509 0)
(5.21201 85.6476 -3.55634e-15)
(4.83922 87.0034 0)
(4.72265 88.3772 0)
(5.28046 89.766 0)
(5.99367 90.3493 3.03189e-15)
(5.89073 89.289 -4.55383e-15)
(5.17932 88.3101 0)
(4.20599 88.0814 2.14429e-15)
(-1.97393 37.943 -7.2559e-17)
(-5.48048 42.5688 7.71037e-16)
(-4.04603 49.9947 0)
(-2.16825 57.152 1.13473e-15)
(-0.6272 63.3047 3.44242e-16)
(0.780066 68.3493 1.64706e-16)
(1.93707 72.4367 -3.83883e-17)
(2.79489 75.758 2.46964e-15)
(3.36315 78.4815 0)
(3.67135 80.7439 1.00697e-15)
(3.75497 82.6233 1.21079e-15)
(3.65194 84.1928 2.86924e-15)
(3.38417 85.5759 3.38896e-15)
(3.07253 86.8525 7.62944e-15)
(2.83976 88.03 -4.14431e-15)
(2.9458 89.1186 -3.11096e-16)
(3.28279 89.8875 9.74597e-15)
(2.94719 89.5637 4.28604e-15)
(2.11701 89.0092 4.021e-15)
(1.01298 89.0554 3.90436e-15)
(-3.44223 37.5882 0)
(-7.65676 41.8818 -1.2531e-15)
(-6.46931 48.3488 -5.10922e-16)
(-4.79785 55.1277 -1.46527e-15)
(-3.31838 61.2916 -1.75274e-15)
(-1.95628 66.4781 5.5919e-16)
(-0.811914 70.763 -1.53452e-15)
(0.0561206 74.3088 -2.48849e-15)
(0.657995 77.2728 -9.0098e-16)
(1.0205 79.7765 9.13005e-17)
(1.17697 81.8815 -2.33714e-15)
(1.14676 83.6521 -2.84768e-15)
(0.92951 85.1717 -3.04371e-15)
(0.624582 86.5033 -3.61933e-15)
(0.288942 87.6892 0)
(0.0511344 88.6062 5.05428e-17)
(0.0596345 89.4661 3.48502e-17)
(-0.483266 89.7831 -4.22232e-15)
(-1.51143 89.6594 -1.19927e-14)
(-2.8031 89.9677 3.47516e-15)
(-4.7617 37.3136 0)
(-9.52996 41.3065 6.09397e-16)
(-8.59286 46.8161 0)
(-7.41657 53.0526 1.01478e-15)
(-6.07963 59.1333 2.192e-15)
(-4.8329 64.4288 0)
(-3.77102 68.8886 2.88168e-15)
(-2.96412 72.6351 5.0511e-15)
(-2.40589 75.809 0)
(-2.07249 78.5213 -1.86987e-15)
(-1.93468 80.8267 4.92057e-15)
(-1.9877 82.7815 2.61621e-16)
(-2.23995 84.4551 3.3278e-15)
(-2.60058 85.9148 -3.20867e-15)
(-3.01172 87.2286 0)
(-3.5345 88.0663 -8.00623e-15)
(-3.8381 89.0159 -4.2521e-15)
(-4.68 89.8403 0)
(-5.94007 90.1784 7.66457e-15)
(-7.39461 90.7485 -1.42351e-14)
(-6.01307 37.0649 -4.29601e-16)
(-11.1561 40.7997 2.73848e-16)
(-10.4889 45.5691 -1.50743e-15)
(-9.91597 51.0398 -4.85526e-16)
(-8.87873 56.8799 -9.76096e-17)
(-7.82542 62.2275 -1.50858e-15)
(-6.92001 66.8443 2.81028e-15)
(-6.25009 70.7773 -5.08641e-15)
(-5.81904 74.1383 -5.73976e-15)
(-5.60615 77.0266 4.13425e-15)
(-5.59064 79.4981 -2.6672e-15)
(-5.76633 81.6175 -2.72471e-15)
(-6.13689 83.4566 2.74697e-15)
(-6.61318 85.073 -6.20589e-15)
(-7.10896 86.5599 0)
(-7.87087 87.5043 1.60008e-14)
(-8.61878 88.5515 -1.55727e-14)
(-9.66111 89.7205 7.23247e-15)
(-11.1842 90.4698 7.50099e-15)
(-12.8763 91.322 4.24581e-16)
(-7.25608 36.8058 -1.11943e-16)
(-12.6444 40.296 -4.04177e-16)
(-12.2917 44.5069 1.89832e-15)
(-12.0943 49.1877 -2.10158e-15)
(-11.6299 54.6339 -2.74715e-15)
(-10.8845 59.9138 0)
(-10.2191 64.6401 -3.2301e-15)
(-9.76085 68.7417 0)
(-9.53628 72.2819 3.99565e-15)
(-9.53865 75.3356 0)
(-9.75358 77.9568 0)
(-10.165 80.2169 -4.31061e-16)
(-10.7506 82.1964 1.1343e-14)
(-11.4215 83.9494 6.62631e-15)
(-12.0736 85.5854 5.04476e-16)
(-13.1308 86.7003 -7.14186e-15)
(-14.3041 87.8816 0)
(-15.7457 89.2841 0)
(-17.548 90.427 7.16491e-15)
(-19.5056 91.5772 1.51177e-14)
(-8.52262 36.5216 4.78139e-16)
(-14.1197 39.7566 -1.41671e-15)
(-13.8838 43.4901 7.19544e-16)
(-14.1207 47.675 -1.29746e-15)
(-14.1067 52.5227 -1.79835e-15)
(-13.9204 57.5991 1.44106e-15)
(-13.6128 62.3235 1.8455e-15)
(-13.4516 66.5452 -1.66184e-15)
(-13.5103 70.2541 0)
(-13.8139 73.4772 -4.63385e-15)
(-14.3594 76.2486 4.50016e-15)
(-15.1154 78.638 -5.43977e-15)
(-16.0287 80.7265 0)
(-17.0128 82.5605 9.97728e-17)
(-17.9475 84.2795 5.37151e-16)
(-19.4379 85.6182 7.80481e-15)
(-21.1354 86.9621 -1.52031e-14)
(-23.0186 88.5195 7.33506e-15)
(-25.101 89.9987 -7.82908e-15)
(-27.0965 91.3998 -8.17633e-15)
(-9.8317 36.2103 0)
(-15.6257 39.1636 -8.09561e-17)
(-15.4077 42.4897 -2.08974e-15)
(-16.1086 46.3115 -8.087e-17)
(-16.4493 50.735 0)
(-16.7421 55.4054 0)
(-17.0238 60.0075 -5.87878e-15)
(-17.2799 64.2437 1.834e-15)
(-17.7026 68.0741 -8.74683e-15)
(-18.3837 71.4664 -5.9075e-16)
(-19.3482 74.4032 1.00834e-14)
(-20.562 76.9227 -5.26666e-15)
(-21.9347 79.0966 4.07228e-16)
(-23.3785 80.9695 7.00169e-16)
(-24.8781 82.7073 -7.55761e-15)
(-27.0332 84.3094 0)
(-29.3822 85.8237 -8.69234e-15)
(-31.6465 87.4777 3.49866e-14)
(-33.7049 89.1895 -1.70845e-14)
(-35.1528 90.6372 9.81464e-15)
(-11.193 35.8805 1.64352e-16)
(-17.1765 38.5131 1.24711e-15)
(-17.072 41.4821 2.01963e-15)
(-18.0208 44.9799 1.12947e-15)
(-18.8647 49.1077 1.53263e-15)
(-19.5573 53.4819 0)
(-20.3641 57.808 2.09788e-15)
(-21.2164 61.9471 2.1484e-15)
(-22.0989 65.8012 -5.08976e-15)
(-23.2249 69.3401 1.02671e-14)
(-24.6856 72.4653 6.21217e-15)
(-26.4648 75.1502 -6.2367e-15)
(-28.4696 77.4111 1.3804e-14)
(-30.616 79.2967 8.22147e-15)
(-33.0261 81.073 9.82651e-15)
(-36.1479 83.0633 1.0251e-15)
(-39.125 84.7733 -9.65373e-15)
(-41.2642 86.421 3.26219e-16)
(-42.372 88.0302 -2.53742e-14)
(-42.4157 88.8647 -1.56922e-14)
(-12.5994 35.5477 0)
(-18.8262 37.8227 -9.36824e-16)
(-18.9435 40.4667 9.3245e-16)
(-20.1094 43.6539 -1.50835e-15)
(-21.2654 47.516 3.46431e-15)
(-22.5915 51.7243 -1.9851e-15)
(-23.8912 55.8575 0)
(-25.236 59.778 0)
(-26.6684 63.5701 5.87397e-15)
(-28.2571 67.2348 0)
(-30.2343 70.5913 3.79735e-16)
(-32.6671 73.5539 -1.44318e-14)
(-35.5089 76.0796 8.8294e-15)
(-38.6701 78.1856 -1.04814e-14)
(-42.0692 79.8513 0)
(-45.8115 81.7854 1.43004e-14)
(-48.3076 82.7185 0)
(-49.0188 82.8333 -1.76463e-14)
(-48.3832 82.9101 -4.19139e-14)
(-46.9094 83.7908 3.60044e-14)
(-14.0644 35.2391 -4.46409e-16)
(-20.6015 37.1344 -1.72472e-15)
(-21.0526 39.4551 0)
(-22.4454 42.3023 -2.81513e-15)
(-23.8226 45.8564 -1.74357e-15)
(-25.5568 49.9162 -2.18635e-15)
(-27.5327 53.9753 0)
(-29.3421 57.8188 0)
(-31.0694 61.5442 8.06905e-15)
(-33.0585 65.4095 0)
(-35.3328 68.9868 8.91568e-15)
(-38.0916 72.1358 -9.04917e-15)
(-41.3688 74.686 -1.12544e-14)
(-44.9554 76.3579 1.91055e-15)
(-48.7559 77.8948 -5.76958e-14)
(-51.6784 80.1126 1.64243e-14)
(-52.0379 81.1572 -1.77851e-14)
(-51.0699 81.9294 0)
(-49.847 82.2299 -1.55643e-14)
(-48.8758 82.1975 4.4346e-14)
(-15.5906 34.9905 7.36627e-17)
(-22.5152 36.4909 3.44176e-15)
(-23.3485 38.5026 -9.30494e-16)
(-25.0769 41.0188 2.6139e-15)
(-26.8446 44.2773 3.461e-15)
(-28.9294 48.0669 -5.28834e-15)
(-31.0786 51.8046 1.30906e-14)
(-32.9225 55.2537 -1.73011e-14)
(-33.8192 58.5465 -3.84466e-16)
(-36.278 62.8632 -1.15584e-14)
(-39.3821 66.8935 3.2202e-14)
(-43.5271 71.1244 -2.16547e-14)
(-48.0655 75.4618 9.89153e-15)
(-52.0367 79.1013 0)
(-54.7396 81.2566 0)
(-55.5987 81.9367 0)
(-54.8283 81.3261 1.14845e-14)
(-53.5738 80.1729 1.89608e-15)
(-52.1154 79.7681 -1.26288e-14)
(-50.9053 79.4526 -1.14127e-14)
(-17.1666 34.841 -2.4445e-16)
(-24.5171 35.9318 -3.73083e-15)
(-25.7236 37.6148 -1.2136e-15)
(-27.7554 39.8279 1.18138e-15)
(-29.9105 42.8989 1.90862e-15)
(-32.4865 46.627 -2.04837e-15)
(-35.2035 50.2893 0)
(-37.6763 53.511 0)
(-39.1882 56.3343 0)
(-42.0531 61.028 0)
(-45.8476 66.1825 -1.62387e-14)
(-49.7184 70.8601 2.43475e-14)
(-53.0526 74.5885 -7.79685e-15)
(-55.5358 76.9699 0)
(-57.0234 78.3442 0)
(-57.2273 78.8562 0)
(-55.8824 78.0265 2.23382e-14)
(-53.6176 76.5924 1.80235e-15)
(-52.2341 76.891 4.34333e-16)
(-51.2661 77.0806 0)
(-18.8079 34.7458 0)
(-26.5479 35.4588 7.86424e-15)
(-28.0793 36.8191 -1.2835e-15)
(-30.3257 38.7097 6.80959e-15)
(-32.6408 41.5177 -7.13e-15)
(-35.2969 45.2639 0)
(-38.138 49.2617 0)
(-40.828 53.0468 1.38679e-14)
(-43.361 56.2877 0)
(-46.8783 61.1362 0)
(-50.3406 65.6735 -1.49147e-14)
(-53.2208 69.9877 2.30842e-14)
(-55.202 74.1169 -7.32982e-15)
(-56.0241 77.3103 -3.69637e-14)
(-56.0383 79.2984 -1.90471e-15)
(-55.686 79.7873 -1.90545e-15)
(-54.4182 78.402 5.28442e-14)
(-52.9286 76.6768 3.03894e-14)
(-52.4018 76.1589 0)
(-52.0907 75.8126 -2.5996e-14)
(-20.5509 34.6756 0)
(-28.5436 35.0636 -4.22678e-15)
(-30.3207 36.1781 4.99351e-15)
(-32.7483 37.6315 -4.03744e-15)
(-35.0875 39.9104 5.52332e-15)
(-37.4464 43.1554 0)
(-39.7205 46.9252 0)
(-41.9366 50.712 1.09421e-15)
(-44.7095 54.6102 -8.55792e-15)
(-48.4949 59.7655 7.06712e-15)
(-51.0214 64.5132 1.46295e-14)
(-52.865 69.0572 -1.6003e-14)
(-53.9585 73.0535 -4.01717e-14)
(-53.8315 75.9589 4.41513e-14)
(-53.4521 78.5138 2.60806e-14)
(-53.0929 79.9807 -3.12247e-14)
(-51.5228 79.2475 -5.86136e-16)
(-49.8163 77.5089 -4.21906e-14)
(-50.7345 76.8736 -3.62221e-14)
(-52.5407 76.7025 6.02512e-14)
(-22.3875 34.6262 0)
(-30.3562 34.7501 4.81724e-15)
(-32.3006 35.8908 -5.34576e-15)
(-35.0208 36.9845 4.74132e-15)
(-37.6652 38.6043 1.74837e-15)
(-40.1034 40.8462 0)
(-42.2298 43.6242 0)
(-44.2926 46.7994 -8.40638e-15)
(-46.4579 50.9347 -1.43772e-15)
(-48.6758 56.1841 9.14008e-15)
(-50.2233 61.3764 0)
(-51.097 66.5762 0)
(-50.7886 71.0308 2.94808e-14)
(-49.4685 74.726 -7.47644e-16)
(-49.204 78.5947 3.42984e-14)
(-49.1751 81.5584 -3.11985e-14)
(-48.599 82.5292 0)
(-48.44 81.4858 0)
(-50.9626 80.3504 0)
(-54.0218 80.1309 0)
(-24.3252 34.4025 5.34537e-16)
(-31.6123 34.4434 -1.12805e-14)
(-33.457 35.9804 8.24525e-15)
(-36.4747 37.2164 -8.92993e-15)
(-39.7234 38.6107 -4.90382e-15)
(-42.8471 40.4006 1.51852e-14)
(-45.6345 42.5618 0)
(-48.1022 45.066 -1.54199e-14)
(-49.991 48.2994 -9.8934e-15)
(-51.14 52.5182 1e-14)
(-51.6157 57.1377 4.09413e-14)
(-51.3763 62.1093 -5.0003e-14)
(-50.6203 66.4985 6.99347e-14)
(-49.9372 70.3076 -3.24058e-14)
(-49.8439 74.2204 3.15653e-14)
(-49.8347 77.4276 -5.52638e-14)
(-49.904 79.3371 2.93236e-14)
(-51.0353 80.0094 -2.85468e-14)
(-54.4419 80.39 0)
(-58.7573 80.7327 0)
(-26.9494 33.6238 0)
(-32.576 34.2026 2.37411e-15)
(-34.1426 36.4619 -4.17173e-15)
(-36.6259 38.4519 0)
(-39.148 40.2514 0)
(-41.5826 41.9565 -1.01506e-14)
(-43.9163 43.6391 -6.93344e-15)
(-46.1464 45.4486 7.02224e-15)
(-48.1504 47.5824 0)
(-49.6859 50.1035 0)
(-50.7238 52.888 -2.66843e-14)
(-51.3749 55.6718 0)
(-51.9525 58.2167 -3.00344e-14)
(-52.7385 60.5419 -3.20422e-14)
(-53.8879 62.894 6.09014e-14)
(-55.2515 65.1386 3.17288e-14)
(-57.3085 67.0349 0)
(-60.1804 68.8868 3.59549e-14)
(-63.9827 71.1313 4.02129e-14)
(-68.1277 73.7229 -5.09718e-14)
(8.06404 86.0703 -1.11707e-15)
(7.03608 86.796 -3.54253e-17)
(5.85277 88.1362 1.03081e-15)
(4.67764 90.15 -1.06476e-15)
(3.5256 92.5284 1.00246e-15)
(2.34353 94.5637 -1.0226e-15)
(1.31151 96.1494 9.35194e-16)
(0.527233 97.7956 9.32387e-16)
(-0.0761041 99.7622 -8.44023e-16)
(-0.554891 102.04 -1.63334e-15)
(-0.932928 104.591 -3.13482e-15)
(-1.24302 107.403 1.44195e-15)
(-1.48681 110.428 0)
(-1.70173 113.672 0)
(-1.90554 117.109 -2.6099e-15)
(-1.91565 120.607 0)
(-2.6877 125.02 0)
(-0.695703 127.164 1.13252e-15)
(-7.80015 137.477 -1.08913e-15)
(11.8656 126.859 3.61049e-15)
(5.8519 87.2855 -2.21429e-15)
(4.61812 88.1304 -1.15252e-15)
(3.19846 89.5239 -2.99212e-17)
(1.76261 91.5347 -2.01977e-15)
(0.365276 93.8148 -4.16478e-15)
(-0.975402 95.6359 3.86625e-15)
(-2.07405 96.9756 1.0023e-16)
(-2.90762 98.4121 -3.54639e-15)
(-3.58765 100.206 -3.43813e-15)
(-4.16862 102.343 -1.70302e-15)
(-4.6638 104.781 4.56751e-15)
(-5.10437 107.506 2.87369e-15)
(-5.4798 110.469 8.39575e-15)
(-5.84427 113.664 0)
(-6.17707 117.065 7.8242e-15)
(-6.35563 120.536 -5.12019e-15)
(-7.26468 124.899 9.47887e-15)
(-5.41314 127.061 4.52879e-15)
(-12.8485 137.03 -4.35161e-15)
(6.97408 127.345 -2.1374e-19)
(3.04637 88.5098 -4.22185e-15)
(1.64469 89.4918 3.89649e-15)
(0.0152708 90.972 1.00139e-14)
(-1.6453 92.9658 -1.87987e-15)
(-3.21889 95.0535 0)
(-4.62229 96.5563 -1.19519e-16)
(-5.70629 97.6162 3.72927e-15)
(-6.53542 98.8582 0)
(-7.25012 100.501 3.44108e-15)
(-7.89637 102.51 -6.65686e-15)
(-8.4778 104.845 6.02955e-15)
(-9.0232 107.484 -5.8895e-15)
(-9.50962 110.383 1.34475e-16)
(-10.0086 113.519 -5.28761e-15)
(-10.4593 116.883 -5.21565e-15)
(-10.8008 120.311 0)
(-11.8399 124.631 -4.80248e-15)
(-10.1216 126.808 0)
(-17.8848 136.426 -8.89994e-15)
(2.17967 127.635 0)
(-0.291537 89.6905 1.85395e-16)
(-1.87382 90.8386 -3.75875e-15)
(-3.70178 92.4074 -7.79248e-15)
(-5.53343 94.3407 0)
(-7.19024 96.1491 -8.30604e-15)
(-8.55118 97.2676 3.71395e-15)
(-9.54449 98.0446 3.82049e-15)
(-10.3249 99.1161 7.23044e-15)
(-11.0418 100.628 -6.85427e-15)
(-11.7245 102.522 6.65443e-15)
(-12.3676 104.76 2.92484e-16)
(-12.9974 107.315 -5.74105e-15)
(-13.5789 110.149 0)
(-14.1992 113.219 1.08312e-14)
(-14.7573 116.546 -1.06963e-14)
(-15.2553 119.916 -2.56487e-16)
(-16.4151 124.203 -9.87909e-15)
(-14.827 126.386 8.80666e-15)
(-22.897 135.634 9.4703e-15)
(-2.60241 127.757 3.0055e-16)
(-4.29408 90.8137 1.53718e-14)
(-6.07089 92.1219 -1.14201e-14)
(-8.06416 93.741 3.74596e-15)
(-9.97003 95.5286 0)
(-11.5622 96.9549 0)
(-12.7386 97.6578 -8.20182e-15)
(-13.5579 98.1945 1.50488e-14)
(-14.2487 99.1439 -1.47298e-14)
(-14.939 100.556 6.37253e-15)
(-15.6335 102.355 1.26917e-14)
(-16.3178 104.508 1.26352e-14)
(-17.0146 106.984 -1.17761e-14)
(-17.6783 109.756 1.09942e-14)
(-18.4072 112.754 -1.33824e-17)
(-19.0633 116.051 1.07001e-14)
(-19.7102 119.349 2.63409e-16)
(-20.9836 123.615 -9.88592e-15)
(-19.5237 125.791 1.74583e-14)
(-27.877 134.659 -1.77402e-14)
(-7.38609 127.708 -1.4498e-14)
(-9.0953 91.8037 3.89998e-15)
(-11.0509 93.2353 -3.27472e-15)
(-13.1218 94.8225 3.7572e-16)
(-14.9324 96.3457 0)
(-16.2569 97.3028 0)
(-17.1025 97.6242 -1.66321e-14)
(-17.6892 98.0116 1.49082e-14)
(-18.268 98.9043 2.95193e-14)
(-18.9132 100.255 -2.03483e-14)
(-19.6018 101.983 -1.3345e-14)
(-20.3123 104.067 2.47002e-14)
(-21.0622 106.474 -4.70744e-14)
(-21.7981 109.194 1.07057e-14)
(-22.6228 112.12 1.05507e-14)
(-23.3712 115.395 1.07074e-14)
(-24.1565 118.606 -9.71569e-15)
(-25.5394 122.866 0)
(-24.2056 125.016 1.81212e-14)
(-32.8097 133.504 1.88753e-14)
(-12.1796 127.482 1.51134e-14)
(-14.7979 92.5625 -7.35367e-15)
(-16.8537 94.0248 0)
(-18.8125 95.4413 1.69788e-14)
(-20.2626 96.5642 -1.64608e-14)
(-21.0922 97.026 0)
(-21.511 97.0914 0)
(-21.8602 97.4595 -7.8216e-15)
(-22.3304 98.3672 -2.94109e-14)
(-22.924 99.6968 1.38225e-14)
(-23.5973 101.383 0)
(-24.3251 103.42 0)
(-25.1186 105.772 1.17983e-14)
(-25.921 108.452 -1.12992e-14)
(-26.8309 111.308 -1.08512e-14)
(-27.6715 114.573 -2.14371e-14)
(-28.5835 117.683 1.94277e-14)
(-30.077 121.957 5.55339e-16)
(-28.8647 124.057 5.04724e-16)
(-37.7003 132.179 -1.76808e-14)
(-16.9788 127.069 -1.45287e-14)
(-21.4666 92.9307 -7.34794e-15)
(-23.3613 94.2644 -1.72764e-14)
(-24.8673 95.3352 -1.4847e-15)
(-25.6344 95.9666 2.67432e-14)
(-25.8166 96.0364 0)
(-25.8274 96.061 1.6859e-14)
(-25.9958 96.5443 -1.6257e-14)
(-26.3824 97.5274 1.4086e-14)
(-26.9292 98.8719 1.35127e-14)
(-27.5863 100.544 -1.34502e-14)
(-28.3287 102.556 1.20966e-14)
(-29.161 104.869 0)
(-30.029 107.522 -2.31852e-14)
(-31.0148 110.312 4.34126e-14)
(-31.9532 113.58 -4.12772e-14)
(-32.9774 116.575 0)
(-34.5889 120.884 1.04353e-17)
(-33.4896 122.912 -1.77226e-14)
(-42.5422 130.69 3.60887e-14)
(-21.7717 126.458 -4.30324e-14)
(-28.7743 92.7012 -7.6468e-16)
(-30.0873 93.6851 2.79806e-14)
(-30.7496 94.2602 -1.89563e-14)
(-30.6212 94.459 -9.99135e-15)
(-30.2133 94.4018 1.88084e-14)
(-29.9654 94.6239 -3.52469e-14)
(-30.0441 95.3149 1.56078e-14)
(-30.3796 96.4108 0)
(-30.8924 97.7989 3.32571e-16)
(-31.5398 99.4811 -1.28397e-14)
(-32.2998 101.486 -2.55259e-14)
(-33.1696 103.774 2.3059e-14)
(-34.1058 106.407 -2.32314e-14)
(-35.1587 109.135 2.17418e-14)
(-36.206 112.414 2.20603e-14)
(-37.3228 115.281 -1.94195e-14)
(-39.0684 119.648 5.85176e-14)
(-38.0667 121.581 -1.72105e-14)
(-47.3274 129.041 -3.53409e-14)
(-26.5419 125.644 6.49523e-18)
(-35.9795 91.6176 -1.05141e-14)
(-36.2735 92.0065 4.60273e-14)
(-35.8597 92.0981 1.85332e-15)
(-34.9366 92.168 -4.35984e-14)
(-34.215 92.3202 -2.09784e-14)
(-33.9004 92.8968 3.50057e-14)
(-33.965 93.8232 0)
(-34.2788 95.0486 1.55768e-14)
(-34.7771 96.5013 -2.78855e-14)
(-35.4292 98.2125 0)
(-36.2162 100.225 -2.49527e-14)
(-37.1268 102.495 2.36938e-14)
(-38.1373 105.116 0)
(-39.2494 107.783 4.34961e-14)
(-40.422 111.078 -2.09747e-14)
(-41.6064 113.804 0)
(-43.5117 118.251 -5.86311e-14)
(-42.5841 120.069 5.34766e-14)
(-52.0492 127.235 3.62182e-14)
(-31.2798 124.631 5.84271e-14)
(-41.9968 88.9282 2.70898e-14)
(-41.215 88.7731 1.55747e-14)
(-39.9289 88.9011 -2.5761e-14)
(-38.6116 89.3696 -2.4256e-14)
(-37.8749 89.9781 4.06515e-14)
(-37.623 90.9454 -3.58343e-14)
(-37.7132 92.092 1.66019e-14)
(-38.0355 93.4545 -3.15193e-14)
(-38.5457 94.9876 4.2029e-14)
(-39.2237 96.7427 2.73193e-14)
(-40.0534 98.7746 -2.43625e-14)
(-41.0132 101.036 5.90494e-16)
(-42.1083 103.649 -2.21524e-14)
(-43.2738 106.259 -6.58871e-14)
(-44.5933 109.569 4.20648e-14)
(-45.8145 112.153 1.06767e-15)
(-47.9153 116.69 3.9318e-14)
(-47.0325 118.376 0)
(-56.6898 125.27 -3.54515e-14)
(-35.9903 123.425 2.92798e-14)
(-45.6758 84.8879 0)
(-44.334 85.3514 0)
(-42.8543 85.7672 -2.69796e-14)
(-41.7192 86.5511 -1.51104e-15)
(-41.2161 87.5352 6.21871e-14)
(-41.1034 88.8296 -1.79603e-14)
(-41.2521 90.1673 1.77825e-14)
(-41.6233 91.6685 -3.02691e-14)
(-42.1754 93.2892 0)
(-42.9012 95.0947 2.67864e-14)
(-43.7909 97.1506 2.51702e-14)
(-44.8111 99.4067 0)
(-46.0038 102.012 -2.33816e-14)
(-47.2191 104.572 4.30252e-14)
(-48.7096 107.89 4.26982e-14)
(-49.9322 110.34 -1.83283e-14)
(-52.2769 114.948 -7.67357e-14)
(-51.4015 116.497 0)
(-61.2397 123.152 0)
(-40.6812 122.023 -3.17354e-18)
(-47.8583 82.2276 -2.58494e-14)
(-46.5054 82.3753 0)
(-45.2024 82.8688 6.28026e-16)
(-44.441 83.9828 2.30683e-14)
(-44.2227 85.1712 -3.95718e-14)
(-44.3119 86.6528 0)
(-44.559 88.1422 1.70539e-14)
(-45.028 89.7651 0)
(-45.6567 91.4631 0)
(-46.4564 93.3105 -2.69969e-14)
(-47.4227 95.383 0)
(-48.5143 97.6293 2.4484e-14)
(-49.8166 100.219 -6.84769e-14)
(-51.0783 102.733 4.36341e-14)
(-52.7627 106.043 -2.05421e-14)
(-53.9485 108.378 7.97411e-14)
(-56.5938 113.033 0)
(-55.6774 114.432 -3.5411e-14)
(-65.7143 120.892 0)
(-45.3499 120.407 5.88226e-14)
(-49.5654 79.3914 0)
(-48.1714 79.5277 5.50202e-16)
(-47.2171 80.2698 1.10792e-15)
(-46.9208 81.601 -6.13441e-14)
(-46.9337 82.899 1.87407e-14)
(-47.2391 84.4884 -1.8201e-14)
(-47.6349 86.0769 -1.69781e-14)
(-48.2513 87.7816 3.23154e-14)
(-48.9877 89.5337 -2.83558e-14)
(-49.8859 91.4077 -5.48352e-14)
(-50.9468 93.4858 2.46281e-14)
(-52.1188 95.7153 2.38968e-14)
(-53.5418 98.2803 2.2869e-14)
(-54.8473 100.753 2.18373e-14)
(-56.7453 104.03 0)
(-57.8577 106.283 1.07214e-15)
(-60.8687 110.945 -7.7133e-14)
(-59.8443 112.192 -8.23545e-16)
(-70.1128 118.506 3.48473e-14)
(-49.9887 118.563 -5.89358e-14)
(-50.5134 77.1282 2.40635e-14)
(-49.6625 77.2461 2.19448e-14)
(-49.0393 78.0548 2.06305e-14)
(-49.2043 79.3888 -2.09574e-14)
(-49.4043 80.7295 1.77253e-14)
(-49.9576 82.365 3.65286e-14)
(-50.5267 84.014 -1.5815e-14)
(-51.3143 85.7548 -6.33543e-14)
(-52.1789 87.5309 -1.53691e-15)
(-53.1914 89.4093 -1.41646e-15)
(-54.3618 91.4764 2.46615e-14)
(-55.6221 93.6797 -4.78587e-14)
(-57.1749 96.2054 0)
(-58.5238 98.6428 2.30148e-14)
(-60.6493 101.854 -8.47211e-14)
(-61.6585 104.067 3.87749e-14)
(-65.1038 108.679 3.9202e-14)
(-63.8841 109.795 0)
(-74.4475 116.01 -3.58014e-14)
(-54.5902 116.477 0)
(-52.0182 75.5345 7.39288e-16)
(-51.3704 75.4516 6.13196e-16)
(-50.8284 76.1032 2.05014e-14)
(-51.4033 77.3183 -6.00095e-14)
(-51.7392 78.7002 5.46758e-14)
(-52.5509 80.3198 1.75857e-14)
(-53.2987 81.9879 -1.65214e-14)
(-54.2612 83.7179 3.01961e-14)
(-55.2605 85.4835 2.81733e-14)
(-56.3926 87.3382 5.97707e-19)
(-57.6785 89.3727 0)
(-59.0312 91.5374 -6.28454e-16)
(-60.7179 94.0058 2.23111e-14)
(-62.1104 96.412 4.49099e-14)
(-64.468 99.5164 2.27794e-15)
(-65.3533 101.738 -7.86489e-14)
(-69.2942 106.22 4.04323e-14)
(-67.7739 107.274 -6.94788e-14)
(-78.7469 113.399 3.59119e-14)
(-59.1418 114.137 0)
(-53.5141 75.3891 0)
(-53.0176 74.0666 -2.21975e-14)
(-52.4496 74.4724 -2.05203e-14)
(-53.5298 75.4178 0)
(-54.0079 76.8091 5.65765e-14)
(-55.071 78.3396 -5.17044e-14)
(-55.9897 79.9889 -6.67405e-14)
(-57.117 81.6679 -8.09948e-16)
(-58.2492 83.394 0)
(-59.5009 85.2 -7.23025e-18)
(-60.9047 87.181 2.52859e-14)
(-62.3518 89.2957 0)
(-64.1738 91.6879 4.70932e-14)
(-65.6136 94.0666 -8.75819e-14)
(-68.1985 97.0153 4.13293e-14)
(-68.9526 99.3026 -1.40479e-17)
(-73.4324 103.553 -3.94018e-14)
(-71.4859 104.621 3.51699e-14)
(-83.0383 110.665 -3.75509e-14)
(-63.6237 111.527 5.7732e-14)
(-55.7409 76.6506 0)
(-55.1911 72.9756 0)
(-54.1952 73.2442 -4.32677e-14)
(-55.7099 73.6872 7.9585e-14)
(-56.2852 75.0399 -7.36786e-14)
(-57.5467 76.4172 1.76028e-14)
(-58.6248 78.0152 6.58126e-14)
(-59.9026 79.6111 3.14853e-14)
(-61.1628 81.2747 -2.78614e-14)
(-62.5283 83.0099 2.67849e-14)
(-64.0503 84.917 -5.1179e-14)
(-65.5905 86.9708 2.33198e-14)
(-67.5466 89.2662 4.71381e-14)
(-69.0432 91.6217 4.62e-14)
(-71.8463 94.3671 -4.13784e-14)
(-72.4855 96.7861 3.88992e-14)
(-77.5469 100.658 7.90211e-14)
(-74.9991 101.914 -3.41183e-14)
(-87.3632 107.813 0)
(-67.9777 108.58 0)
(-59.6179 77.0981 0)
(-58.0216 71.1353 2.43907e-14)
(-56.1736 71.9661 -2.08314e-14)
(-57.8272 71.9079 -4.09672e-14)
(-58.4867 73.2849 1.65788e-14)
(-59.8992 74.5144 3.38118e-14)
(-61.1527 76.055 1.28348e-18)
(-62.581 77.5499 0)
(-63.9679 79.1291 0)
(-65.4482 80.778 5.41445e-14)
(-67.0855 82.5849 1.33705e-15)
(-68.7204 84.5655 -4.72852e-14)
(-70.8062 86.7369 0)
(-72.3728 89.0753 -8.78869e-14)
(-75.3738 91.5665 4.36862e-14)
(-75.9584 94.2026 -1.19049e-13)
(-81.6319 97.4258 3.94318e-14)
(-78.3097 99.272 3.60188e-14)
(-91.8841 104.799 -7.33708e-14)
(-72.1135 105.097 5.72789e-14)
(-61.8748 74.1938 -1.06407e-15)
(-60.2182 67.415 -2.20179e-14)
(-58.0851 70.4195 -1.96675e-14)
(-59.6716 70.2016 1.84777e-14)
(-60.492 71.6756 3.54985e-14)
(-62.1121 72.7537 -3.18685e-14)
(-63.5189 74.1752 -3.09329e-14)
(-65.0815 75.5204 2.99464e-14)
(-66.5877 76.9817 -2.66891e-14)
(-68.1691 78.5122 -2.64573e-14)
(-69.9323 80.1946 4.88628e-14)
(-71.6761 82.0877 6.11529e-16)
(-73.8802 84.0841 -4.58865e-14)
(-75.5578 86.4333 4.1709e-14)
(-78.6964 88.5802 0)
(-79.3601 91.547 3.93174e-14)
(-85.3718 93.8751 1.13353e-15)
(-81.607 96.8746 -3.34719e-14)
(-96.6841 101.195 0)
(-76.2825 101.094 -5.61617e-14)
(-58.2556 75.0916 2.30954e-14)
(-61.0763 67.7377 -5.94113e-17)
(-58.96 69.9506 1.70289e-14)
(-61.0675 69.5958 -3.22075e-14)
(-61.8881 70.9358 -4.86043e-16)
(-63.655 71.8722 1.47722e-14)
(-65.0548 73.2177 4.32454e-16)
(-66.6231 74.5235 2.08557e-17)
(-68.1055 75.9553 -2.38681e-14)
(-69.7121 77.4608 -2.23149e-14)
(-71.5127 79.0713 6.46595e-16)
(-73.3364 80.9175 -2.00096e-14)
(-75.608 82.7842 0)
(-77.3938 85.1496 7.3556e-14)
(-80.5571 87.0413 0)
(-81.4066 90.2798 -3.41074e-14)
(-87.2863 91.8369 3.28267e-14)
(-83.7367 96.0898 2.97374e-14)
(-98.967 98.2507 -4.73192e-16)
(-78.627 99.5793 3.41261e-16)
(-58.1637 74.5782 0)
(-61.458 67.5519 1.47993e-14)
(-59.2093 69.6758 0)
(-61.4397 69.351 1.31853e-14)
(-62.2466 70.6408 0)
(-64.0399 71.5829 -2.38297e-14)
(-65.4309 72.9051 3.60605e-16)
(-66.9952 74.2134 -3.20358e-16)
(-68.4703 75.6445 1.95975e-14)
(-70.0775 77.1573 1.8308e-14)
(-71.8767 78.7635 -1.75378e-14)
(-73.7103 80.6103 3.32569e-14)
(-75.9764 82.4545 0)
(-77.7906 84.8322 -3.12794e-14)
(-80.92 86.6703 4.90919e-16)
(-81.8446 89.9821 7.84638e-18)
(-87.6765 91.3667 -4.27811e-16)
(-84.2183 95.8756 -2.5811e-14)
(-99.3723 97.5705 -2.36038e-14)
(-79.1587 99.282 -1.89712e-14)
(-58.2744 73.7321 2.69562e-16)
(-61.8935 67.3899 -2.23906e-16)
(-59.4807 69.3511 0)
(-61.8137 69.115 1.36588e-14)
(-62.6115 70.3385 1.21386e-14)
(-64.4267 71.2823 2.34556e-14)
(-65.807 72.5789 7.0243e-16)
(-67.3631 73.8899 1.73771e-17)
(-68.8298 75.3208 -2.98412e-16)
(-70.4372 76.8429 -3.66099e-14)
(-72.2352 78.4474 -4.98633e-18)
(-74.0806 80.2962 -3.32651e-14)
(-76.3409 82.1211 2.43547e-16)
(-78.1875 84.5102 -5.01728e-16)
(-81.2781 86.2998 -3.00955e-14)
(-82.2901 89.6797 2.93978e-14)
(-88.0204 90.9023 4.53024e-16)
(-84.723 95.6667 -3.85197e-16)
(-99.7233 96.885 2.39299e-14)
(-79.6953 99.0262 3.80983e-14)
(-58.5054 72.8357 0)
(-62.3184 67.2135 0)
(-59.7913 69.0041 1.37094e-14)
(-62.2105 68.859 -1.32457e-14)
(-63.0053 70.0137 -1.21109e-14)
(-64.8357 70.9609 -3.53848e-16)
(-66.201 72.2354 -2.21526e-14)
(-67.7455 73.5518 -6.60882e-16)
(-69.2017 74.9848 3.0007e-16)
(-70.8068 76.5185 1.83733e-14)
(-72.6011 78.1241 3.44668e-14)
(-74.4569 79.976 -5.28355e-18)
(-76.7095 81.7846 1.60105e-14)
(-78.588 84.1832 0)
(-81.6376 85.9289 3.00587e-14)
(-82.7396 89.3709 4.47013e-16)
(-88.3561 90.4469 2.80106e-14)
(-85.2297 95.4635 2.56121e-14)
(-100.066 96.2182 3.88996e-16)
(-80.1973 98.7748 -1.91312e-14)
(-58.776 71.943 1.59648e-14)
(-62.7243 67.0199 -1.36833e-17)
(-60.1379 68.6306 2.3981e-16)
(-62.6342 68.5783 -4.2523e-16)
(-63.4275 69.665 -1.21479e-14)
(-65.2644 70.6178 -1.19444e-14)
(-66.6102 71.8731 2.22615e-14)
(-68.1396 73.1965 3.24123e-16)
(-69.5841 74.6326 1.99135e-14)
(-71.1856 76.1794 0)
(-72.974 77.7894 -1.72649e-14)
(-74.8385 79.6463 3.29826e-14)
(-77.0811 81.442 -1.60038e-14)
(-78.9911 83.8488 0)
(-81.9976 85.5558 -4.90976e-16)
(-83.1921 89.0524 -2.90528e-14)
(-88.682 90 -2.79815e-14)
(-85.7397 95.2539 -2.52587e-14)
(-100.399 95.5649 -3.66341e-16)
(-80.6689 98.5341 3.01079e-16)
(-59.0521 71.0784 -3.20905e-14)
(-63.1153 66.8107 1.49834e-14)
(-60.5206 68.2295 2.1991e-17)
(-63.0846 68.2716 2.02067e-16)
(-63.876 69.2923 2.50671e-14)
(-65.7107 70.2535 1.16216e-14)
(-67.0323 71.4929 -2.20747e-14)
(-68.5439 72.8251 -3.26688e-16)
(-69.9758 74.2655 -2.01029e-14)
(-71.5731 75.8261 -3.00807e-16)
(-73.3541 77.443 2.64773e-16)
(-75.2254 79.3072 -1.64844e-14)
(-77.456 81.0935 -1.57516e-14)
(-79.3967 83.5072 -2.38351e-16)
(-82.357 85.1813 3.05492e-14)
(-83.6468 88.7264 2.95247e-14)
(-88.9989 89.5577 2.84045e-14)
(-86.2565 95.035 -3.88275e-16)
(-100.721 94.9226 -2.41339e-14)
(-81.1119 98.3089 2.89658e-16)
(-59.3251 70.2417 1.56129e-14)
(-63.5004 66.5836 -1.50168e-14)
(-60.9397 67.8023 -2.74421e-14)
(-63.5607 67.9384 0)
(-64.3489 68.8954 1.48259e-17)
(-66.1718 69.8686 -3.77415e-16)
(-67.4647 71.096 2.32519e-14)
(-68.9562 72.4387 3.46652e-16)
(-70.3755 73.8842 -3.08647e-16)
(-71.968 75.4593 0)
(-73.7411 77.0847 0)
(-75.6171 78.9583 1.65272e-14)
(-77.8338 80.7388 1.60016e-14)
(-79.8043 83.1583 3.13864e-14)
(-82.7157 84.8053 -6.15723e-14)
(-84.103 88.3922 4.48712e-16)
(-89.308 89.1186 -2.7922e-14)
(-86.7812 94.8064 0)
(-101.029 94.2921 1.51539e-17)
(-81.5272 98.1032 -1.95696e-14)
(-59.5983 69.4281 1.55476e-14)
(-63.889 66.3377 1.55772e-14)
(-61.3949 67.3506 1.37205e-14)
(-64.0611 67.5784 1.33957e-14)
(-64.8439 68.4748 -2.5622e-14)
(-66.6447 69.4644 -1.13529e-14)
(-67.9051 70.6837 1.85683e-17)
(-69.3749 72.0384 -2.20842e-14)
(-70.7818 73.4897 0)
(-72.3693 75.0794 1.91479e-14)
(-74.1339 76.715 -2.85492e-16)
(-76.0135 78.5989 -1.61225e-14)
(-78.2143 80.3778 -2.43481e-16)
(-80.2137 82.802 1.79806e-17)
(-83.0738 84.4278 3.0532e-14)
(-84.5603 88.0491 0)
(-89.6097 88.6828 0)
(-87.3139 94.568 -2.59366e-14)
(-101.32 93.6705 1.08212e-17)
(-81.9162 97.9201 -2.89773e-17)
(-59.8786 68.6319 -3.13049e-14)
(-64.2888 66.0721 -1.53587e-14)
(-61.8854 66.8751 -1.37777e-14)
(-64.5838 67.1916 -1.34007e-14)
(-65.3575 68.0318 2.53169e-14)
(-67.1259 69.0423 0)
(-68.3507 70.2577 0)
(-69.798 71.6258 -6.66458e-18)
(-71.1931 73.0836 0)
(-72.7758 74.6875 -1.93094e-14)
(-74.5315 76.3344 -1.76997e-14)
(-76.4142 78.2292 -1.70725e-14)
(-78.597 80.0105 -1.62697e-14)
(-80.6244 82.4383 -6.25951e-14)
(-83.4315 84.0489 0)
(-85.0188 87.6974 0)
(-89.9038 88.2501 0)
(-87.8543 94.3195 2.59941e-14)
(-101.593 93.0562 4.73889e-14)
(-82.2813 97.762 1.99054e-14)
(-60.1729 67.8458 1.55077e-14)
(-64.7058 65.7854 0)
(-62.41 66.3768 1.37674e-14)
(-65.1282 66.7784 4.29365e-16)
(-65.8855 67.5682 -1.30849e-14)
(-67.6118 68.6044 0)
(-68.7991 69.8196 0)
(-70.2235 71.2024 2.19358e-14)
(-71.6078 72.6674 3.3193e-16)
(-73.1859 74.2849 -6.07963e-16)
(-74.9331 75.9436 1.8431e-14)
(-76.8179 77.8497 1.69708e-14)
(-78.9816 79.637 1.60074e-14)
(-81.036 82.0671 3.09239e-14)
(-83.7888 83.6685 -2.60768e-17)
(-85.4792 87.338 4.50394e-16)
(-90.1907 87.8208 0)
(-88.4025 94.0602 0)
(-101.846 92.4481 -2.36915e-14)
(-82.6253 97.6304 0)
(-60.4847 67.0712 1.54936e-14)
(-65.1441 65.4758 0)
(-62.9684 65.8565 1.38308e-14)
(-65.6891 66.3406 -4.30169e-16)