/*--------------------------------*- C++ -*----------------------------------*\
  =========                 |
  \\      /  F ield         | OpenFOAM: The Open Source CFD Toolbox
   \\    /   O peration     | Website:  https://openfoam.org
    \\  /    A nd           | Version:  10
     \\/     M anipulation  |
\*---------------------------------------------------------------------------*/
FoamFile
{
    format      ascii;
    class       volVectorField;
    location    "900";
    object      U;
}
// * * * * * * * * * * * * * * * * * * * * * * * * * * * * * * * * * * * * * //

dimensions      [0 1 -1 0 0 0 0];

internalField   nonuniform List<vector> 
420
(
(0.238692 8.68896 7.11905e-18)
(-0.825162 11.2752 -5.72884e-17)
(-0.396177 12.8158 -2.7043e-16)
(-0.345571 14.1722 7.55082e-17)
(-0.374191 15.3675 -5.07252e-16)
(-0.473382 16.4225 0)
(-0.585106 17.3056 0)
(-0.753145 17.8374 4.51855e-16)
(-0.914159 17.9852 -4.63664e-16)
(-1.00607 17.7975 0)
(-0.327648 8.45672 2.77242e-17)
(-1.44317 11.0131 -1.36749e-16)
(-1.23901 12.6247 8.09926e-16)
(-1.27263 14.0349 -1.12011e-15)
(-1.37362 15.2982 3.6367e-16)
(-1.53047 16.425 7.46474e-18)
(-1.69021 17.3559 2.96062e-15)
(-1.8165 17.9021 -7.22729e-16)
(-1.96583 18.0117 1.05984e-15)
(-2.05597 17.7772 0)
(-0.888219 8.46024 8.81102e-17)
(-2.14785 10.783 -6.04939e-16)
(-2.11081 12.3966 7.47818e-16)
(-2.25239 13.8393 1.25179e-15)
(-2.43221 15.154 -8.29069e-16)
(-2.63273 16.318 3.90448e-15)
(-2.80102 17.2522 1.74272e-15)
(-2.89319 17.8021 5.0169e-15)
(-3.02426 17.9429 -1.75936e-15)
(-3.12828 17.7299 -3.65563e-15)
(-1.48327 8.39526 -3.02949e-17)
(-2.90508 10.5059 5.33062e-16)
(-2.98684 12.0857 -9.49317e-16)
(-3.21471 13.5275 8.23566e-16)
(-3.45252 14.8633 -1.5887e-15)
(-3.68494 16.0386 1.65888e-15)
(-3.8807 16.9858 -9.66771e-15)
(-3.98625 17.5823 0)
(-4.11796 17.8003 -4.52268e-15)
(-4.25399 17.6425 3.78178e-15)
(-2.09315 8.27616 0)
(-3.66597 10.1704 3.59578e-16)
(-3.84728 11.6993 -3.48869e-16)
(-4.14648 13.117 0)
(-4.43458 14.4516 -2.64639e-16)
(-4.70894 15.6252 -3.01486e-16)
(-4.95599 16.5967 3.14815e-15)
(-5.13168 17.2461 -4.25406e-15)
(-5.3085 17.5575 0)
(-5.47364 17.4791 -1.64981e-14)
(-2.71018 8.1149 3.59785e-18)
(-4.41344 9.77498 0)
(-4.68024 11.2354 0)
(-5.04165 12.6092 1.36127e-15)
(-5.38429 13.9252 -2.12076e-15)
(-5.71755 15.1087 2.38517e-15)
(-6.04941 16.1047 6.0989e-16)
(-6.33161 16.8303 9.03442e-15)
(-6.59071 17.2322 -1.27604e-14)
(-6.78554 17.217 8.34808e-15)
(-3.3365 7.92105 0)
(-5.13815 9.32146 -3.36799e-16)
(-5.47377 10.6965 -2.05928e-15)
(-5.89247 12.0123 -8.43745e-16)
(-6.30106 13.2958 -3.67038e-15)
(-6.71345 14.4849 2.37656e-15)
(-7.14661 15.5324 -5.82366e-15)
(-7.55341 16.361 7.50603e-16)
(-7.90892 16.8657 -3.85003e-15)
(-8.14184 16.8981 -1.31213e-14)
(-3.98684 7.6978 -7.04033e-19)
(-5.82541 8.81103 3.29105e-16)
(-6.21058 10.0904 2.7012e-15)
(-6.68689 11.3365 5.42169e-16)
(-7.17398 12.5725 2.22043e-15)
(-7.67907 13.7589 0)
(-8.21423 14.861 5.89358e-15)
(-8.74068 15.81 7.31598e-15)
(-9.20512 16.457 1.00235e-14)
(-9.5384 16.5367 9.80771e-15)
(-4.68969 7.43243 1.87225e-18)
(-6.4518 8.27207 3.28245e-16)
(-6.89624 9.47191 -3.50759e-16)
(-7.46291 10.6485 -1.74589e-15)
(-8.05702 11.8137 5.50194e-15)
(-8.66805 12.9553 7.47601e-15)
(-9.3053 14.0587 -2.60419e-15)
(-9.95559 15.0812 0)
(-10.5788 15.8921 0)
(-11.054 16.0299 -9.79831e-15)
(-5.50653 7.04641 5.61646e-18)
(-6.90507 7.74755 7.56613e-16)
(-7.47997 8.76439 0)
(-8.17321 9.78354 0)
(-8.87538 10.7988 -3.4127e-15)
(-9.56035 11.8206 -2.94535e-17)
(-10.2224 12.8443 5.84751e-15)
(-10.8545 13.8549 -1.23775e-14)
(-11.5079 14.7792 1.43067e-14)
(-12.2383 15.3135 1.24299e-15)
(-1.04539 17.3598 0)
(-1.02619 16.7332 0)
(-0.980351 16.02 0)
(-0.905597 15.3332 -7.64179e-16)
(-0.832258 14.638 0)
(-0.859999 13.928 0)
(-1.26424 12.9101 8.09964e-16)
(0.807168 11.2946 0)
(0.410128 13.5831 0)
(-4.90969 5.39583 0)
(-2.10343 17.2952 1.40439e-15)
(-2.09622 16.6469 2.37293e-15)
(-2.03527 15.9157 1.29492e-16)
(-1.94127 15.238 8.62299e-16)
(-1.84244 14.5466 5.29555e-17)
(-1.83523 13.8168 1.05866e-15)
(-2.37559 12.7277 8.90599e-17)
(0.00198537 11.2307 1.50667e-16)
(-0.645127 13.6326 -2.59857e-15)
(-5.43772 4.95042 -5.25144e-16)
(-3.19473 17.2412 1.34026e-15)
(-3.17922 16.5582 0)
(-3.08182 15.7926 -1.9967e-15)
(-2.95211 15.1123 -1.73207e-15)
(-2.81239 14.4201 5.17882e-15)
(-2.77072 13.6851 -1.04669e-15)
(-3.3851 12.5103 1.68121e-15)
(-0.677788 11.0502 0)
(-1.69229 13.7659 3.06237e-15)
(-5.63111 4.35056 -3.90441e-17)
(-4.33601 17.1462 3.13497e-15)
(-4.28949 16.4107 7.63503e-15)
(-4.13078 15.6033 -7.97298e-15)
(-3.95666 14.9199 3.1688e-15)
(-3.76618 14.231 4.8114e-17)
(-3.6726 13.5083 0)
(-4.34866 12.2689 -1.68522e-15)
(-1.31788 10.8459 -3.03506e-15)
(-2.66033 13.767 -3.04743e-15)
(-6.02793 3.78987 2.6482e-15)
(-5.55828 16.9718 2.98856e-15)
(-5.43749 16.1754 -2.57042e-15)
(-5.19159 15.3378 8.43742e-15)
(-4.96881 14.6601 -3.34159e-15)
(-4.72318 13.9792 2.78801e-15)
(-4.56488 13.2828 -4.3882e-15)
(-5.32084 11.9792 3.71964e-15)
(-1.91792 10.6172 3.28939e-15)
(-3.69226 13.7377 0)
(-6.37655 3.19009 -5.31755e-15)
(-6.84983 16.6696 3.80065e-15)
(-6.59853 15.8138 -1.60308e-14)
(-6.25009 14.9784 -4.57635e-15)
(-5.97979 14.3224 1.06078e-14)
(-5.67616 13.6601 8.8784e-15)
(-5.4373 13.011 1.10324e-16)
(-6.28188 11.641 4.26151e-17)
(-2.50542 10.3074 -3.38997e-15)
(-4.69913 13.6703 -2.82701e-15)
(-6.62135 2.57413 6.01441e-15)
(-8.16432 16.2252 3.92781e-15)
(-7.72462 15.3107 5.76614e-15)
(-7.27769 14.5178 0)
(-6.96931 13.899 -3.57613e-15)
(-6.6108 13.2676 -5.7238e-15)
(-6.27537 12.6909 1.28688e-16)
(-7.20563 11.2662 -1.10506e-14)
(-3.09642 9.93394 -3.24423e-15)
(-5.65589 13.5712 6.10955e-15)
(-6.82325 1.98605 -3.19346e-15)
(-9.45483 15.6318 1.49739e-14)
(-8.79305 14.6702 -5.24054e-15)
(-8.25175 13.9647 0)
(-7.91761 13.39 -2.1602e-16)
(-7.51596 12.7973 2.40623e-14)
(-7.07782 12.3157 -9.67952e-15)
(-8.10577 10.8558 -8.08203e-15)
(-3.69551 9.50743 6.25579e-15)
(-6.60341 13.4086 -7.11367e-15)
(-6.99624 1.44545 0)
(-10.5505 14.8271 3.78066e-16)
(-9.78242 13.9118 -5.11825e-15)
(-9.17653 13.3423 0)
(-8.81661 12.8015 7.66824e-15)
(-8.38531 12.2386 -1.80179e-14)
(-7.86166 11.8667 9.98773e-15)
(-8.97501 10.4274 3.85225e-15)
(-4.35224 9.10805 0)
(-7.58237 13.0642 -1.30234e-16)
(-7.16176 0.966085 3.03753e-15)
(-11.0145 14.0413 4.82977e-16)
(-10.6605 13.1088 4.49859e-17)
(-10.0853 12.6845 0)
(-9.68948 12.1474 -1.46734e-14)
(-9.22661 11.5872 5.56962e-15)
(-8.61295 11.2881 -5.11642e-15)
(-9.7449 10.0026 4.3479e-15)
(-5.12984 8.93178 1.06243e-15)
(-8.38466 12.3608 6.43971e-16)
(-7.36171 0.608017 -3.05344e-15)
(-10.5468 13.9727 3.16817e-15)
(-11.3065 12.5232 -5.55565e-15)
(-10.8462 12.1678 0)
(-10.4084 11.6213 0)
(-9.92075 11.0498 0)
(-9.33955 10.7137 -2.52903e-15)
(-10.1226 9.47026 9.74903e-15)
(-5.46252 8.81954 0)
(-9.13494 12.2354 0)
(-7.26211 0.209468 0)
(-11.1498 13.0339 -2.96667e-15)
(-11.8304 12.0799 -5.49659e-15)
(-11.4598 11.7025 0)
(-10.9767 11.1465 3.82065e-15)
(-10.441 10.5917 -2.93284e-15)
(-9.8457 10.2827 2.50744e-15)
(-10.4752 8.86879 3.75646e-15)
(-5.8982 8.13752 -2.63851e-16)
(-9.57484 12.5156 1.70552e-15)
(-7.42277 -0.0926742 0)
(-12.468 11.675 2.05764e-16)
(-12.4215 11.3743 -4.81552e-18)
(-12.1674 10.9562 0)
(-11.6618 10.4261 2.63463e-16)
(-11.0719 9.92975 6.31295e-15)
(-10.4018 9.76228 -4.71894e-15)
(-11.0235 8.20748 -1.14991e-14)
(-6.63293 7.04983 -6.8441e-15)
(-10.3231 11.9719 1.38296e-14)
(-7.80568 -0.445566 2.87257e-15)
(-13.8108 10.5643 -1.32626e-14)
(-13.4065 10.3725 5.14196e-15)
(-13.0006 9.98675 0)
(-12.4262 9.50937 -7.2738e-15)
(-11.7776 9.05373 -6.02601e-15)
(-11.0579 8.93226 9.67534e-15)
(-11.6535 7.73175 3.78553e-15)
(-7.31766 6.62271 0)
(-11.2514 10.6932 -6.87155e-15)
(-7.82701 -0.843588 3.05914e-16)
(-14.6385 9.15559 -3.12647e-16)
(-14.2472 9.09749 5.0826e-15)
(-13.7886 8.79791 0)
(-13.1666 8.40451 1.42361e-14)
(-12.4866 8.01299 5.56136e-18)
(-11.7319 7.94145 -1.87971e-16)
(-12.2168 6.88203 7.60408e-15)
(-8.06831 6.04588 -5.69786e-15)
(-11.9685 9.67426 -7.10952e-15)
(-7.76232 -1.28342 0)
(-15.3106 7.78142 -3.10493e-15)
(-14.9392 7.76272 1.01997e-14)
(-14.4475 7.53182 8.66137e-15)
(-13.7905 7.22704 -9.96701e-15)
(-13.0932 6.9114 -1.68468e-14)
(-12.3202 6.89751 -1.71008e-16)
(-12.6882 5.95837 -3.69119e-15)
(-8.74626 5.36403 -2.74357e-15)
(-12.6965 8.4875 -5.85638e-15)
(-7.57148 -1.65112 -2.10471e-15)
(-15.8848 6.40692 -9.09103e-15)
(-15.5027 6.38847 4.91728e-15)
(-14.9762 6.20951 -3.77615e-15)
(-14.2996 5.99062 -9.97507e-15)
(-13.6029 5.75266 7.8704e-15)
(-12.8316 5.79147 -1.58034e-16)
(-13.0601 4.98463 7.145e-15)
(-9.44043 4.66215 2.89365e-15)
(-13.3708 7.14048 2.4504e-15)
(-7.21044 -1.98284 -2.26064e-16)
(-16.3739 5.02871 2.66667e-15)
(-15.9535 4.99621 -2.44673e-15)
(-15.3825 4.85787 -8.30717e-17)
(-14.6957 4.7146 9.77255e-15)
(-14.0108 4.54867 -1.32602e-14)
(-13.2604 4.62689 4.23141e-15)
(-13.3286 3.959 -3.49687e-15)
(-10.1096 3.90109 7.72434e-15)
(-13.9308 5.80698 0)
(-6.73977 -2.16554 4.36431e-17)
(-16.7665 3.67039 2.96645e-15)
(-16.2986 3.62018 2.47931e-15)
(-15.6805 3.50887 4.10292e-15)
(-14.9882 3.4175 -6.38132e-15)
(-14.3194 3.30965 2.5684e-15)
(-13.5981 3.40942 0)
(-13.4722 2.84484 -1.68274e-15)
(-10.6519 3.08503 -5.08386e-15)
(-14.3121 4.64313 3.5008e-18)
(-6.33023 -2.30289 2.15257e-15)
(-17.0411 2.34438 1.2852e-15)
(-16.5459 2.27167 0)
(-15.8826 2.18013 2.01401e-15)
(-15.1885 2.10862 1.71658e-15)
(-14.5283 2.01518 8.46417e-17)
(-13.8364 2.1179 -1.04661e-15)
(-13.434 1.61972 1.69205e-15)
(-10.8505 2.07852 0)
(-14.3918 3.62583 2.66603e-15)
(-6.11692 -2.12354 2.07297e-15)
(-17.2202 1.03422 1.36033e-15)
(-16.6984 0.970192 -2.34183e-15)
(-16.0024 0.891013 -1.21094e-16)
(-15.3104 0.820017 6.79022e-16)
(-14.6377 0.758875 -5.57409e-17)
(-13.9903 0.832617 1.00395e-15)
(-13.4151 0.456473 -1.65017e-15)
(-11.0324 0.99112 -2.20554e-17)
(-13.971 2.69098 2.31928e-15)
(-5.30235 -2.45363 -1.6097e-15)
(-17.3787 -0.060255 1.86471e-29)
(-16.8203 -0.0823559 0)
(-16.1408 -0.072694 0)
(-15.4655 -0.0543918 -7.35119e-16)
(-14.7621 -0.0170784 0)
(-14.068 -0.0864193 0)
(-13.1646 -0.361168 7.92427e-16)
(-11.4478 1.30336 0)
(-12.9153 1.57814 0)
(-6.91805 -6.06733 -7.05651e-30)
(-13.8474 12.5831 9.05086e-16)
(-14.5229 10.8996 -8.21431e-15)
(-14.9856 9.27477 7.98178e-15)
(-15.5048 7.86048 -1.04766e-14)
(-16.0174 6.49448 6.60573e-15)
(-16.5015 5.12338 -1.32539e-14)
(-16.9318 3.76464 3.26284e-15)
(-17.2723 2.42791 -3.26027e-15)
(-17.5133 1.12306 0)
(-17.7366 0.00855691 -3.48709e-16)
(-14.4428 11.8002 1.67611e-14)
(-15.0187 10.4707 0)
(-15.2374 9.00585 8.96525e-15)
(-15.613 7.68046 -3.43961e-15)
(-16.0381 6.38442 -1.06292e-14)
(-16.4758 5.07762 0)
(-16.8963 3.77958 -3.46965e-15)
(-17.258 2.50229 -1.45533e-15)
(-17.5346 1.24504 9.43738e-16)
(-17.8252 0.127915 -3.90003e-16)
(-14.1083 10.9281 -1.39062e-14)
(-14.9831 9.82841 0)
(-15.1869 8.51378 8.13839e-15)
(-15.523 7.33334 5.25564e-16)
(-15.895 6.15792 8.64704e-15)
(-16.2863 4.95457 -3.79744e-15)
(-16.6768 3.7517 0)
(-17.038 2.55581 3.8692e-15)
(-17.3269 1.37435 -6.47155e-16)
(-17.6187 0.284869 4.97905e-16)
(-13.1305 10.1438 6.22908e-15)
(-14.3741 9.1336 -3.1216e-15)
(-14.7702 7.94071 6.9975e-15)
(-15.1614 6.91664 -7.57824e-15)
(-15.5267 5.86229 6.49733e-16)
(-15.9006 4.77447 3.81355e-15)
(-16.2692 3.67891 -1.10976e-14)
(-16.6155 2.58026 1.92844e-15)
(-16.8953 1.48553 3.15125e-15)
(-17.1325 0.435817 8.65425e-17)
(-12.0122 9.43462 -9.21851e-15)
(-13.3392 8.47094 8.89551e-15)
(-13.9761 7.36271 0)
(-14.483 6.4302 2.7731e-15)
(-14.8791 5.50429 2.93948e-15)
(-15.2373 4.55272 -2.91822e-16)
(-15.5812 3.57248 2.13909e-15)
(-15.8992 2.56736 4.92843e-15)
(-16.1523 1.54584 -1.08028e-17)
(-16.32 0.538838 4.19674e-16)
(-10.9157 8.74777 -3.64251e-15)
(-12.1628 7.84512 6.9861e-15)
(-12.9032 6.85166 2.45457e-15)
(-13.554 5.99744 -4.30071e-15)
(-14.0344 5.15921 -2.41924e-15)
(-14.4212 4.30492 -2.78899e-16)
(-14.7483 3.41541 -4.25187e-15)
(-15.0312 2.48989 1.30179e-15)
(-15.2423 1.53618 4.09055e-16)
(-15.3479 0.587611 -4.22059e-16)
(-9.85737 8.07202 0)
(-10.9274 7.25519 -2.25037e-15)
(-11.6893 6.40921 5.06369e-16)
(-12.3896 5.6309 -9.48863e-16)
(-12.9496 4.85332 1.63792e-15)
(-13.3868 4.06042 0)
(-13.7247 3.23828 9.27552e-16)
(-13.9871 2.37547 1.3814e-15)
(-14.1582 1.47581 -1.23766e-15)
(-14.2152 0.571938 -3.1459e-17)
(-8.81355 7.39429 0)
(-9.68205 6.71334 -6.25829e-16)
(-10.4004 6.01272 3.78269e-15)
(-11.0817 5.30696 -2.79714e-15)
(-11.6532 4.57549 0)
(-12.1062 3.82281 -4.6756e-16)
(-12.4538 3.04271 -1.09813e-15)
(-12.7093 2.22031 9.02704e-16)
(-12.8627 1.36041 8.9344e-16)
(-12.9011 0.482444 -3.36203e-16)
(-7.76063 6.65835 -1.00338e-15)
(-8.42764 6.15187 6.11081e-16)
(-9.06978 5.52512 5.79764e-16)
(-9.68243 4.84559 -5.46565e-16)
(-10.2079 4.13582 0)
(-10.6333 3.4068 4.89609e-16)
(-10.9612 2.65549 6.92687e-16)
(-11.2008 1.87321 -8.03631e-16)
(-11.3416 1.04268 -1.56182e-16)
(-11.3887 0.179607 1.09242e-17)
(-6.35663 6.24812 -3.31178e-16)
(-6.54654 6.01919 1.3381e-16)
(-6.90277 5.47052 1.15494e-16)
(-7.28447 4.84786 0)
(-7.64968 4.22701 -4.58224e-17)
(-7.98172 3.61564 0)
(-8.26959 3.00421 -1.65646e-16)
(-8.50919 2.38196 2.09667e-16)
(-8.69749 1.73544 3.66602e-17)
(-8.87666 1.0248 -1.03578e-17)
)
;

boundaryField
{
    right
    {
        type            cyclic;
    }
    left
    {
        type            cyclic;
    }
    outerWall
    {
        type            calculated;
        value           nonuniform List<vector> 
22
(
(-1.55201 41.8305 0)
(-4.64749 41.6006 0)
(-7.71741 41.1419 0)
(-10.7449 40.4569 0)
(-13.7132 39.5492 0)
(-16.6061 38.424 0)
(-19.4075 37.0874 0)
(-22.1022 35.5467 0)
(-24.6752 33.8104 0)
(-27.1124 31.8882 0)
(-28.9573 30.2506 0)
(-30.2506 28.9573 0)
(-31.8882 27.1124 0)
(-33.8104 24.6752 0)
(-35.5467 22.1022 0)
(-37.0874 19.4075 0)
(-38.424 16.6061 0)
(-39.5492 13.7132 0)
(-40.4569 10.7449 0)
(-41.1419 7.71741 0)
(-41.6006 4.64749 0)
(-41.8305 1.55201 0)
)
;
    }
    stirrerWall
    {
        type            calculated;
        value           nonuniform List<vector> 
42
(
(-0.310178 8.3662 0)
(-0.928834 8.32046 0)
(-1.54239 8.22894 0)
(-2.14746 8.09214 0)
(-2.74072 7.91082 0)
(-3.31888 7.68598 0)
(-3.87877 7.41885 0)
(-4.41729 7.11092 0)
(-4.93148 6.76387 0)
(-5.4185 6.37963 0)
(-6.07951 6.64185 0)
(-6.92878 7.56862 0)
(-7.77806 8.49539 0)
(-8.62734 9.42216 0)
(-9.47661 10.3489 0)
(-10.3259 11.2757 0)
(-11.1752 12.2025 0)
(-12.0244 13.1292 0)
(-12.8737 14.056 0)
(-13.723 14.9828 0)
(-14.4723 15.1215 0)
(-15.1215 14.4723 0)
(-14.9828 13.723 0)
(-14.056 12.8737 0)
(-13.1292 12.0244 0)
(-12.2025 11.1752 0)
(-11.2757 10.3259 0)
(-10.3489 9.47661 0)
(-9.42216 8.62734 0)
(-8.49539 7.77806 0)
(-7.56862 6.92878 0)
(-6.64185 6.07951 0)
(-6.37963 5.4185 0)
(-6.76387 4.93148 0)
(-7.11092 4.41729 0)
(-7.41885 3.87877 0)
(-7.68598 3.31888 0)
(-7.91082 2.74072 0)
(-8.09214 2.14746 0)
(-8.22894 1.54239 0)
(-8.32046 0.928834 0)
(-8.3662 0.310178 0)
)
;
    }
    top
    {
        type            empty;
    }
    bottom
    {
        type            empty;
    }
}


// ************************************************************************* //
