/*--------------------------------*- C++ -*----------------------------------*\
  =========                 |
  \\      /  F ield         | OpenFOAM: The Open Source CFD Toolbox
   \\    /   O peration     | Website:  https://openfoam.org
    \\  /    A nd           | Version:  10
     \\/     M anipulation  |
\*---------------------------------------------------------------------------*/
FoamFile
{
    format      ascii;
    class       volVectorField;
    location    "900";
    object      Urel;
}
// * * * * * * * * * * * * * * * * * * * * * * * * * * * * * * * * * * * * * //

dimensions      [0 1 -1 0 0 0 0];

internalField   nonuniform List<vector> 
420
(
(0.572692 -0.319294 7.11905e-18)
(-0.444662 1.01389 -5.72884e-17)
(0.0308392 1.30096 -2.7043e-16)
(0.12797 1.40358 7.55082e-17)
(0.145882 1.34497 -5.07252e-16)
(0.0932307 1.14581 0)
(0.028049 0.774705 0)
(-0.0934443 0.0521095 4.51855e-16)
(-0.207909 -1.05449 -4.63664e-16)
(-0.253272 -2.49658 0)
(0.672529 -0.502237 2.77242e-17)
(-0.30375 0.807926 -1.36749e-16)
(0.0397005 1.17297 8.09926e-16)
(0.145397 1.33638 -1.12011e-15)
(0.183755 1.35258 3.6367e-16)
(0.166265 1.23227 7.46474e-18)
(0.145896 0.915846 2.96062e-15)
(0.158985 0.214587 -7.22729e-16)
(0.149046 -0.923282 1.05984e-15)
(0.198303 -2.40524 0)
(0.772643 -0.400148 8.81102e-17)
(-0.25576 0.690193 -6.04939e-16)
(0.0125694 1.07104 7.47818e-16)
(0.102338 1.28061 1.25179e-15)
(0.153911 1.3621 -8.29069e-16)
(0.184796 1.29264 3.90448e-15)
(0.24794 0.993286 1.74272e-15)
(0.38723 0.309612 5.0169e-15)
(0.487618 -0.783306 -1.75936e-15)
(0.615077 -2.23003 -3.65563e-15)
(0.82914 -0.317816 -3.02949e-17)
(-0.270733 0.580921 5.33062e-16)
(-0.0304517 0.948477 -9.49317e-16)
(0.0637847 1.17774 8.23566e-16)
(0.148125 1.3008 -1.5887e-15)
(0.237907 1.26323 1.65888e-15)
(0.364373 0.997424 -9.66771e-15)
(0.581071 0.380871 0)
(0.771633 -0.614327 -4.52268e-15)
(0.957889 -1.98534 3.78178e-15)
(0.858095 -0.241669 0)
(-0.303844 0.467886 3.59578e-16)
(-0.0741461 0.811628 -3.48869e-16)
(0.0377471 1.04396 0)
(0.160812 1.19305 -2.64639e-16)
(0.297673 1.18099 -3.01486e-16)
(0.461868 0.966655 3.14815e-15)
(0.697469 0.430218 -4.25406e-15)
(0.931951 -0.444327 0)
(1.17814 -1.70878 -1.64981e-14)
(0.863647 -0.160832 3.59785e-18)
(-0.342045 0.348197 0)
(-0.111112 0.657197 0)
(0.0253158 0.87934 1.36127e-15)
(0.180599 1.04348 -2.12076e-15)
(0.345313 1.07504 2.38517e-15)
(0.511479 0.918943 6.0989e-16)
(0.727345 0.492375 9.03442e-15)
(0.96633 -0.257994 -1.27604e-14)
(1.26962 -1.4255 8.34808e-15)
(0.840236 -0.0670721 0)
(-0.379875 0.222281 -3.36799e-16)
(-0.133774 0.485948 -2.05928e-15)
(0.0293809 0.690024 -8.43745e-16)
(0.202729 0.861751 -3.67038e-15)
(0.37236 0.938916 2.37656e-15)
(0.521261 0.874352 -5.82366e-15)
(0.696577 0.590733 7.50603e-16)
(0.923214 -0.016784 -3.85003e-15)
(1.27246 -1.09659 -1.31213e-14)
(0.769807 0.0412247 -7.04033e-19)
(-0.406443 0.089479 3.29105e-16)
(-0.129083 0.303565 2.7012e-15)
(0.0572781 0.484133 5.42169e-16)
(0.232975 0.654432 2.22043e-15)
(0.390744 0.774918 0)
(0.518504 0.811137 5.89358e-15)
(0.655031 0.694096 7.31598e-15)
(0.853593 0.275047 1.00235e-14)
(1.18336 -0.711435 9.80771e-15)
(0.620674 0.149507 1.87225e-18)
(-0.401959 -0.0238962 3.28245e-16)
(-0.10669 0.162586 -3.50759e-16)
(0.0665039 0.325555 -1.74589e-15)
(0.212378 0.47709 5.50194e-15)
(0.341431 0.604778 7.47601e-15)
(0.444329 0.694197 -2.60419e-15)
(0.534239 0.702731 0)
(0.651261 0.499513 0)
(0.916334 -0.376819 -9.79831e-15)
(0.328313 0.177187 5.61646e-18)
(-0.25765 -0.0772171 7.56613e-16)
(-0.0197162 -0.0162233 0)
(0.100051 0.0468713 0)
(0.211019 0.105964 -3.4127e-15)
(0.339293 0.171384 -2.94535e-17)
(0.490513 0.238647 5.84751e-15)
(0.67186 0.29283 -1.23775e-14)
(0.8319 0.260591 1.43067e-14)
(0.914868 -0.161755 1.24299e-15)
(-0.245781 -4.19545 0)
(-0.176972 -6.15886 0)
(-0.0762097 -8.3522 0)
(0.0593579 -10.6777 -7.64179e-16)
(0.200029 -13.1873 0)
(0.246837 -15.9062 0)
(-0.0748641 -19.1483 8.09964e-16)
(2.08793 -23.2265 0)
(1.79207 -23.6645 0)
(-3.41572 -34.8706 0)
(0.290989 -4.14145 1.40439e-15)
(0.446752 -6.11923 2.37293e-15)
(0.672175 -8.32244 1.29492e-16)
(0.948283 -10.6298 8.62299e-16)
(1.24874 -13.1257 5.29555e-17)
(1.47918 -15.8534 1.05866e-15)
(1.18599 -19.1545 8.90599e-17)
(3.83722 -23.1006 1.50667e-16)
(3.49309 -23.4103 -2.59857e-15)
(-0.964031 -35.0947 -5.25144e-16)
(0.781337 -3.9591 1.34026e-15)
(1.04353 -5.95691 0)
(1.41405 -8.17826 -1.9967e-15)
(1.84615 -10.4703 -1.73207e-15)
(2.32068 -12.9471 5.17882e-15)
(2.73305 -15.6579 -1.04669e-15)
(2.52909 -19.0204 1.68121e-15)
(5.69083 -22.9026 0)
(5.17945 -22.8686 3.06237e-15)
(1.79769 -35.253 -3.90441e-17)
(1.19987 -3.70128 3.13497e-15)
(1.58984 -5.72975 7.63503e-15)
(2.12881 -7.96866 -7.97298e-15)
(2.72394 -10.2369 3.1688e-15)
(3.38057 -12.6807 4.8114e-17)
(3.99027 -15.3463 0)
(3.88564 -18.7368 -1.68522e-15)
(7.54909 -22.5416 -3.03506e-15)
(6.90713 -22.2575 -3.04743e-15)
(4.3151 -35.1543 2.6482e-15)
(1.50701 -3.40836 2.98856e-15)
(2.06612 -5.46868 -2.57042e-15)
(2.79731 -7.70558 8.43742e-15)
(3.55742 -9.9327 -3.34159e-15)
(4.39796 -12.329 2.78801e-15)
(5.21495 -14.9247 -4.3882e-15)
(5.18827 -18.3312 3.71964e-15)
(9.39864 -22.0214 3.28939e-15)
(8.5183 -21.4787 0)
(6.82382 -34.8804 -5.31755e-15)
(1.70607 -3.13127 3.80065e-15)
(2.48813 -5.21497 -1.60308e-14)
(3.42424 -7.40983 -4.57635e-15)
(4.34521 -9.57106 1.06078e-14)
(5.36924 -11.9 8.8784e-15)
(6.40571 -14.3942 1.10324e-16)
(6.44424 -17.8072 4.26151e-17)
(11.1985 -21.4027 -3.38997e-15)
(10.0873 -20.5442 -2.82701e-15)
(9.36371 -34.4132 6.01441e-15)
(1.8352 -2.88767 3.92781e-15)
(2.8952 -4.98722 5.76614e-15)
(4.02892 -7.09228 0)
(5.09771 -9.16393 -3.57613e-15)
(6.29813 -11.4038 -5.7238e-15)
(7.56571 -13.7614 1.28688e-16)
(7.66752 -17.1579 -1.10506e-14)
(12.9194 -20.6734 -3.24423e-15)
(11.6251 -19.4533 6.10955e-15)
(11.8585 -33.7147 -3.19346e-15)
(1.93341 -2.68796 1.49739e-14)
(3.3016 -4.78545 -5.24054e-15)
(4.62501 -6.74845 0)
(5.82512 -8.71552 -2.1602e-16)
(7.18555 -10.8498 2.40623e-14)
(8.68523 -13.0383 -9.67952e-15)
(8.83261 -16.388 -8.08203e-15)
(14.5442 -19.8288 6.25579e-15)
(13.0771 -18.2442 -7.11367e-15)
(14.2794 -32.7723 0)
(2.1639 -2.59897 3.78066e-16)
(3.72061 -4.59453 -5.11825e-15)
(5.19964 -6.36011 0)
(6.52629 -8.22515 7.66824e-15)
(8.02796 -10.2544 -1.80179e-14)
(9.73669 -12.2496 9.98773e-15)
(9.93544 -15.4863 3.85225e-15)
(16.011 -18.7957 0)
(14.3893 -17.0428 -1.30234e-16)
(16.5907 -31.5804 3.03753e-15)
(2.95627 -2.3953 4.82977e-16)
(4.17675 -4.34664 4.49859e-17)
(5.71133 -5.89888 0)
(7.1693 -7.68484 -1.46734e-14)
(8.80819 -9.6278 5.56962e-15)
(10.7239 -11.4579 -5.11642e-15)
(11.0336 -14.4384 4.3479e-15)
(17.2448 -17.386 1.06243e-15)
(15.7573 -16.0349 6.43971e-16)
(18.7369 -30.0882 -3.05344e-15)
(4.36887 -1.61174 3.16817e-15)
(4.53499 -4.0282 -5.55565e-15)
(6.02032 -5.45426 0)
(7.59305 -7.18614 0)
(9.33729 -9.07009 0)
(11.3097 -10.8593 -2.52903e-15)
(12.0671 -13.7116 9.74903e-15)
(18.4326 -16.1436 0)
(16.6485 -14.7 0)
(20.612 -28.9096 0)
(4.43467 -1.88181 -2.96667e-15)
(4.72098 -3.76163 -5.49659e-15)
(6.16219 -5.164 0)
(7.83069 -6.85502 3.82065e-15)
(9.67886 -8.66637 -2.93284e-15)
(11.7273 -10.3666 2.50744e-15)
(12.7067 -13.3209 3.75646e-15)
(19.065 -15.7576 -2.63851e-16)
(17.3605 -13.2679 1.70552e-15)
(21.6963 -27.9668 0)
(3.96859 -2.29578 2.05764e-16)
(5.03391 -3.46297 -4.81552e-18)
(6.41598 -4.84043 0)
(8.17046 -6.43269 2.63463e-16)
(10.1431 -8.10505 6.31295e-15)
(12.3441 -9.5746 -4.71894e-15)
(13.4175 -12.571 -1.14991e-14)
(19.6848 -15.3249 -6.8441e-15)
(18.0726 -12.17 1.38296e-14)
(22.8906 -26.5442 2.87257e-15)
(3.61529 -2.15011 -1.32626e-14)
(5.09984 -3.13058 5.14196e-15)
(6.70181 -4.38943 0)
(8.60045 -5.83354 -7.2738e-15)
(10.7153 -7.35954 -6.02601e-15)
(13.0584 -8.66608 9.67534e-15)
(14.2602 -11.1787 3.78553e-15)
(20.5861 -13.7405 0)
(18.8557 -11.2785 -6.87155e-15)
(24.7195 -24.5961 3.05914e-16)
(3.68134 -2.23265 -3.12647e-16)
(5.20841 -2.99715 5.0826e-15)
(6.92461 -4.07886 0)
(8.93893 -5.33822 1.42361e-14)
(11.1605 -6.68851 5.56136e-18)
(13.6221 -7.8216 -1.87971e-16)
(15.027 -10.0563 7.60408e-15)
(21.2679 -12.1938 -5.69786e-15)
(19.6843 -10.0062 -7.10952e-15)
(26.4554 -22.5591 0)
(3.8023 -2.21811 -3.10493e-15)
(5.35872 -2.8571 1.01997e-14)
(7.1626 -3.77479 8.66137e-15)
(9.2724 -4.83998 -9.96701e-15)
(11.5782 -5.99753 -1.68468e-14)
(14.1322 -6.94358 -1.71008e-16)
(15.736 -8.91478 -3.69119e-15)
(21.8611 -10.6518 -2.74357e-15)
(20.328 -8.79351 -5.85638e-15)
(28.1293 -20.3329 -2.10471e-15)
(3.91608 -2.14898 -9.09103e-15)
(5.52604 -2.6982 4.91728e-15)
(7.41208 -3.46483 -3.77615e-15)
(9.59394 -4.33437 -9.97507e-15)
(11.9572 -5.29273 7.8704e-15)
(14.5736 -6.05154 -1.58034e-16)
(16.3881 -7.7415 7.145e-15)
(22.2697 -9.04174 2.89365e-15)
(20.8438 -7.64598 2.4504e-15)
(29.7769 -17.9679 -2.26064e-16)
(4.00628 -2.03658 2.66667e-15)
(5.69054 -2.5074 -2.44673e-15)
(7.66088 -3.13104 -8.30717e-17)
(9.89709 -3.81163 9.77255e-15)
(12.2974 -4.57247 -1.32602e-14)
(14.9471 -5.15294 4.23141e-15)
(16.9817 -6.5501 -3.49687e-15)
(22.529 -7.41547 7.72434e-15)
(21.2856 -6.40357 0)
(31.3307 -15.3659 4.36431e-17)
(4.08099 -1.86549 2.96645e-15)
(5.84183 -2.25914 2.47931e-15)
(7.89144 -2.75071 4.10292e-15)
(10.1687 -3.2631 -6.38132e-15)
(12.5922 -3.8371 2.5684e-15)
(15.2565 -4.25344 0)
(17.5336 -5.38945 -1.68274e-15)
(22.7356 -5.78194 -5.08386e-15)
(21.7124 -4.92433 3.5008e-18)
(32.614 -12.6459 2.15257e-15)
(4.15918 -1.63169 1.2852e-15)
(5.96919 -1.95108 0)
(8.08828 -2.31574 2.01401e-15)
(10.3941 -2.68964 1.71658e-15)
(12.8389 -3.1179 8.46417e-17)
(15.5066 -3.38586 -1.04661e-15)
(18.0967 -4.29448 1.69205e-15)
(23.1023 -4.2901 0)
(22.2427 -3.24591 2.66603e-15)
(33.4867 -9.55234 2.07297e-15)
(4.21645 -1.36019 1.36033e-15)
(6.06772 -1.57278 -2.34183e-15)
(8.23571 -1.81643 -1.21094e-16)
(10.5575 -2.06953 6.79022e-16)
(13.0346 -2.3323 -5.57409e-17)
(15.6799 -2.4818 1.00395e-15)
(18.4671 -3.1051 -1.65017e-15)
(23.2989 -2.84411 -2.20554e-17)
(23.0719 -1.44724 2.31928e-15)
(34.7428 -6.92732 -1.6097e-15)
(4.17654 -0.859863 1.86471e-29)
(6.07181 -0.931572 0)
(8.23141 -0.976836 0)
(10.5454 -1.01935 -7.35119e-16)
(13.0632 -1.04937 0)
(15.7662 -1.19325 0)
(18.8938 -1.55054 7.92427e-16)
(23.0733 0.0225958 0)
(24.3323 0.196195 0)
(33.3483 -7.56129 -7.05651e-30)
(1.62782 -0.570111 9.05086e-16)
(1.88388 -1.0708 -8.21431e-15)
(2.26255 -1.44699 7.98178e-15)
(2.48996 -1.55383 -1.04766e-14)
(2.62508 -1.56068 6.60573e-15)
(2.68636 -1.5284 -1.32539e-14)
(2.69603 -1.44724 3.26284e-15)
(2.68771 -1.31545 -3.26027e-15)
(2.66918 -1.13121 0)
(2.5575 -0.744244 -3.48709e-16)
(0.075888 -0.539576 1.67611e-14)
(0.373912 -0.759328 0)
(0.944618 -1.05287 8.96525e-15)
(1.26945 -1.15167 -3.43961e-15)
(1.45208 -1.17262 -1.06292e-14)
(1.52603 -1.16284 0)
(1.51828 -1.11002 -3.46965e-15)
(1.46825 -1.00959 -1.45533e-15)
(1.40032 -0.869831 9.43738e-16)
(1.21448 -0.578335 -3.90003e-16)
(-0.54623 -0.598218 -1.39062e-14)
(-0.604646 -0.661418 0)
(-0.0709738 -0.881923 8.13839e-15)
(0.247202 -0.916643 5.25564e-16)
(0.442951 -0.901033 8.64704e-15)
(0.529588 -0.874576 -3.79744e-15)
(0.524683 -0.815623 0)
(0.454523 -0.724603 3.8692e-15)
(0.360524 -0.601133 -6.47155e-16)
(0.166532 -0.374832 4.97905e-16)
(-0.524877 -0.569143 6.22908e-15)
(-1.00967 -0.616024 -3.1216e-15)
(-0.720282 -0.792024 6.9975e-15)
(-0.503271 -0.751233 -7.57824e-15)
(-0.340957 -0.698601 6.49733e-16)
(-0.270635 -0.643394 3.81355e-15)
(-0.280792 -0.566159 -1.10976e-14)
(-0.356645 -0.468704 1.92844e-15)
(-0.455244 -0.350578 3.15125e-15)
(-0.60162 -0.177338 8.65425e-17)
(-0.362962 -0.465018 -9.21851e-15)
(-0.988734 -0.538538 8.89551e-15)
(-0.992203 -0.707106 0)
(-0.937012 -0.655602 2.7731e-15)
(-0.845426 -0.558571 2.93948e-15)
(-0.793107 -0.453894 -2.91822e-16)
(-0.80579 -0.350371 2.13909e-15)
(-0.873823 -0.25017 4.92843e-15)
(-0.959539 -0.150894 -1.08028e-17)
(-1.04326 -0.0277743 4.19674e-16)
(-0.222785 -0.338628 -3.64251e-15)
(-0.826131 -0.424277 6.9861e-15)
(-0.985093 -0.555294 2.45457e-15)
(-1.11991 -0.506351 -4.30071e-15)
(-1.15275 -0.405679 -2.41924e-15)
(-1.16271 -0.290474 -2.78899e-16)
(-1.18583 -0.185239 -4.25187e-15)
(-1.23927 -0.0962239 1.30179e-15)
(-1.29672 -0.0211978 4.09055e-16)
(-1.3253 0.0675375 -4.22059e-16)
(-0.120704 -0.201239 0)
(-0.604482 -0.274221 -2.25037e-15)
(-0.836951 -0.334958 5.06369e-16)
(-1.06741 -0.290952 -9.48863e-16)
(-1.21978 -0.213648 1.63792e-15)
(-1.31378 -0.123815 0)
(-1.37498 -0.0402144 9.27552e-16)
(-1.4284 0.0207401 1.3814e-15)
(-1.45969 0.057775 -1.23766e-15)
(-1.44661 0.098397 -3.1459e-17)
(-0.032931 -0.0659623 0)
(-0.372734 -0.0762071 -6.25829e-16)
(-0.613548 -0.0687738 3.78269e-15)
(-0.871111 -0.0330416 -2.79714e-15)
(-1.07498 0.00636152 0)
(-1.21857 0.0496808 -4.6756e-16)
(-1.31661 0.0863291 -1.09813e-15)
(-1.38368 0.0969275 9.02704e-16)
(-1.41102 0.0817022 8.9344e-16)
(-1.38627 0.0554282 -3.36203e-16)
(0.0641391 0.0109329 -1.00338e-15)
(-0.131682 0.102032 6.11081e-16)
(-0.34823 0.10615 5.79764e-16)
(-0.583244 0.0873168 -5.46565e-16)
(-0.78116 0.0644219 0)
(-0.930797 0.044679 4.89609e-16)
(-1.03628 0.0211386 6.92687e-16)
(-1.10799 -0.0188765 -8.03631e-16)
(-1.13649 -0.096742 -1.56182e-16)
(-1.12735 -0.200894 1.09242e-17)
(0.512596 0.413278 -3.31178e-16)
(0.736384 0.708828 1.3381e-16)
(0.753801 0.713872 1.15494e-16)
(0.703654 0.671125 0)
(0.626056 0.653187 -4.58224e-17)
(0.536114 0.664394 0)
(0.443483 0.691792 -1.65646e-16)
(0.3512 0.721097 2.09667e-16)
(0.261471 0.735267 3.66602e-17)
(0.131589 0.690799 -1.03578e-17)
)
;

boundaryField
{
    right
    {
        type            cyclic;
    }
    left
    {
        type            cyclic;
    }
    outerWall
    {
        type            noSlip;
    }
    stirrerWall
    {
        type            noSlip;
    }
    top
    {
        type            empty;
    }
    bottom
    {
        type            empty;
    }
}


// ************************************************************************* //
