/*--------------------------------*- C++ -*----------------------------------*\
  =========                 |
  \\      /  F ield         | OpenFOAM: The Open Source CFD Toolbox
   \\    /   O peration     | Website:  https://openfoam.org
    \\  /    A nd           | Version:  10
     \\/     M anipulation  |
\*---------------------------------------------------------------------------*/
FoamFile
{
    format      ascii;
    class       volScalarField;
    location    "74000";
    object      Co;
}
// * * * * * * * * * * * * * * * * * * * * * * * * * * * * * * * * * * * * * //

dimensions      [0 0 0 0 0 0 0];

internalField   nonuniform List<scalar> 
17969
(
81.3308
64.042
53.6672
49.0383
53.8873
95.1077
159.916
268.793
396.744
534.015
669.356
793.033
898.59
982.919
1045.9
1089.58
1116.99
1131.5
1136.26
1133.87
1126.4
1115.43
1102.08
1087.13
1071.1
1054.35
1037.11
1019.52
1001.67
983.631
965.436
947.12
928.707
910.213
891.654
873.041
854.385
835.694
816.977
798.24
779.49
760.735
741.979
723.229
704.491
685.77
667.071
648.399
629.759
611.156
592.593
574.076
555.607
537.19
518.829
500.527
482.287
464.112
446.004
427.965
409.998
392.106
374.289
356.551
338.892
321.315
303.822
286.413
269.092
251.861
234.721
217.675
200.727
183.881
171.763
164.429
163.721
172.389
180.647
188.533
196.091
203.347
210.318
217.018
223.459
229.651
235.603
241.325
246.827
252.122
257.213
262.1
266.786
271.278
275.587
279.72
283.688
287.497
291.158
294.679
82.3776
65.4728
61.8295
52.6599
49.2476
54.0184
63.2386
105.7
163.936
259.955
373.866
498.979
626.872
749.023
858.469
950.798
1024.05
1078.52
1116.06
1139.27
1150.96
1153.76
1149.88
1141.14
1128.95
1114.35
1098.1
1080.72
1062.59
1043.94
1024.93
1005.68
986.238
966.669
947.002
927.265
907.476
887.654
867.81
847.955
828.1
808.251
788.415
768.6
748.81
729.052
709.329
689.647
670.01
650.422
630.886
611.405
591.985
572.626
553.333
534.108
514.953
495.87
476.863
457.932
439.079
420.307
401.616
383.008
364.485
346.047
327.695
309.431
291.257
273.172
255.181
237.283
219.482
201.781
189.259
181.955
178.254
187.104
195.527
203.564
211.26
218.64
225.721
232.515
239.037
245.296
251.3
257.056
262.572
267.857
272.922
277.771
282.406
286.833
291.062
295.102
298.965
302.658
306.192
309.576
82.4927
62.1071
65.0355
61.0701
53.6633
50.8046
54.5248
60.8361
70.5428
108.123
158.59
239.354
338.705
450.699
569.235
687.166
797.742
895.651
977.664
1042.48
1090.58
1123.64
1143.87
1153.65
1155.22
1150.47
1141.01
1128.13
1112.79
1095.72
1077.45
1058.36
1038.71
1018.68
998.378
977.894
957.282
936.584
915.832
895.048
874.251
853.455
832.673
811.914
791.185
770.495
749.848
729.25
708.705
688.218
667.791
647.429
627.134
606.909
586.757
566.68
546.68
526.76
506.92
487.163
467.489
447.9
428.398
408.982
389.654
370.413
351.262
332.199
313.226
294.343
275.551
256.851
238.245
219.735
206.848
199.608
193.543
201.572
210.148
218.322
226.139
233.624
240.792
247.657
254.232
260.529
266.555
272.318
277.822
283.072
288.073
292.836
297.366
301.671
305.763
309.655
313.356
316.878
320.23
323.422
83.1434
58.7402
64.7404
65.4691
63.0467
57.9501
51.9337
50.7548
54.9229
61.5373
71.1611
102.138
145.406
211.423
297.241
396.096
503.925
615.126
723.711
824.224
912.505
986.12
1044.19
1087.27
1116.86
1134.84
1143.27
1144.02
1138.77
1128.93
1115.68
1099.91
1082.34
1063.49
1043.74
1023.39
1002.61
981.549
960.291
938.904
917.436
895.924
874.392
852.862
831.349
809.866
788.422
767.026
745.683
724.4
703.18
682.029
660.948
639.942
619.013
598.164
577.396
556.711
536.112
515.599
495.173
474.836
454.589
434.43
414.361
394.382
374.492
354.691
334.979
315.354
295.818
276.369
257.01
237.74
224.531
217.394
210.605
215.808
224.523
232.815
240.732
248.297
255.526
262.434
269.032
275.331
281.341
287.069
292.52
297.696
302.601
307.238
311.613
315.737
319.629
323.311
326.795
330.09
333.205
336.149
338.931
341.564
344.06
346.435
84.1375
56.4041
63.3955
66.2819
66.9484
66.0376
63.3547
58.297
50.6468
47.9608
52.2938
58.9013
68.1857
92.3802
129.558
182.301
255.89
341.945
438.16
540.565
644.143
743.869
835.31
915.152
981.519
1033.81
1072.61
1099.23
1115.32
1122.62
1122.75
1117.14
1107.07
1093.61
1077.59
1059.71
1040.5
1020.33
999.506
978.228
956.64
934.845
912.916
890.906
868.854
846.789
824.732
802.7
780.705
758.759
736.869
715.041
693.28
671.592
649.981
628.448
606.998
585.632
564.352
543.161
522.059
501.046
480.125
459.294
438.553
417.902
397.34
376.866
356.477
336.174
315.954
295.815
275.758
255.782
242.3
235.308
228.641
229.813
238.649
247.038
255.028
262.645
269.905
276.82
283.403
289.664
295.612
301.254
306.596
311.644
316.399
320.865
325.044
328.942
332.578
335.992
339.204
342.218
345.039
347.674
350.132
352.425
354.567
356.576
85.2382
54.5343
61.7179
65.3293
67.1804
68.0436
67.9683
66.7365
63.9035
58.8308
50.7638
46.579
49.8332
56.2079
64.9091
82.6409
114.806
155.872
218.7
292.824
377.189
469.28
565.382
661.149
752.353
835.347
907.45
967.196
1014.19
1049.03
1072.89
1087.21
1093.45
1092.97
1087.06
1076.85
1063.29
1047.18
1029.18
1009.8
989.432
968.363
946.808
924.917
902.801
880.538
858.185
835.783
813.363
790.95
768.561
746.21
723.908
701.664
679.485
657.378
635.345
613.393
591.524
569.74
548.044
526.436
504.918
483.491
462.152
440.902
419.739
398.662
377.667
356.752
335.914
315.15
294.458
273.835
260.134
253.335
246.83
243.578
252.512
260.972
269.005
276.64
283.893
290.775
297.298
303.472
309.303
314.801
319.972
324.824
329.363
333.596
337.529
341.167
344.522
347.631
350.525
353.205
355.67
357.924
359.978
361.845
363.542
365.091
86.4482
52.9925
60.0989
63.9272
66.1508
67.6303
68.5342
68.8336
68.3805
66.893
63.9373
58.956
51.2971
46.1688
48.1076
54.1337
62.2457
74.1004
102.273
136.401
187.157
250.634
323.643
404.862
491.795
581.073
668.946
751.841
826.736
891.45
944.865
986.806
1017.87
1039.09
1051.69
1056.88
1055.84
1049.69
1039.43
1025.92
1009.89
991.956
972.618
952.254
931.151
909.522
887.523
865.27
842.845
820.309
797.709
775.079
752.445
729.827
707.243
684.703
662.219
639.8
617.451
595.177
572.984
550.873
528.847
506.907
485.053
463.284
441.599
419.995
398.469
377.017
355.634
334.317
313.059
291.857
277.999
271.447
265.152
259.382
266.077
274.579
282.623
290.238
297.439
304.239
310.647
316.673
322.324
327.61
332.541
337.129
341.387
345.331
348.971
352.314
355.367
358.148
360.677
362.952
364.973
366.747
368.287
369.614
370.75
371.726
372.572
87.7731
51.73
58.6904
62.4991
64.7353
66.3254
67.4965
68.2942
68.6916
68.6
67.8509
66.1762
63.1947
58.4234
51.2858
46.0272
47.3387
52.9359
60.4229
69.9249
91.6695
121.368
160.752
215.263
278.064
348.728
425.813
506.941
589.096
669.034
743.729
810.703
868.252
915.568
952.654
980.092
998.772
1009.73
1013.95
1012.44
1006.15
995.953
982.626
966.841
949.164
930.055
909.878
888.914
867.375
845.422
823.173
800.719
778.127
755.447
732.719
709.973
687.233
664.517
641.841
619.215
596.649
574.15
551.723
529.371
507.098
484.904
462.786
440.742
418.771
396.866
375.022
353.233
331.49
309.788
295.844
289.604
283.575
277.75
279.297
287.804
295.816
303.358
310.452
317.108
323.336
329.144
334.542
339.544
344.169
348.438
352.373
355.995
359.316
362.333
365.041
367.427
369.493
371.245
372.69
373.844
374.729
375.376
375.818
376.094
376.245
376.312
376.333
89.223
50.7557
57.5854
61.2684
63.3471
64.8107
65.9265
66.7739
67.3701
67.6977
67.7068
67.3026
66.3274
64.5473
61.6344
57.1723
50.6531
46.0272
47.3176
52.3139
59.0145
67.543
82.3629
108.554
139.075
185.819
239.955
301.077
368.519
440.791
515.654
590.421
662.335
728.894
788.111
838.707
880.156
912.603
936.601
952.91
962.325
965.667
963.781
957.463
947.461
934.457
919.053
901.765
883.019
863.159
842.459
821.131
799.338
777.206
754.832
732.288
709.632
686.907
664.148
641.383
618.63
595.908
573.228
550.601
528.035
505.531
483.091
460.714
438.399
416.141
393.933
371.768
349.635
327.525
313.582
307.73
302.04
296.496
293.221
300.542
308.451
315.855
322.776
329.222
335.198
340.717
345.797
350.463
354.747
358.676
362.271
365.546
368.498
371.103
373.325
375.144
376.571
377.623
378.32
378.689
378.764
378.588
378.206
377.669
377.025
376.325
375.611
374.926
90.8008
50.0923
56.85
60.3624
62.2021
63.4219
64.3224
65.0042
65.5049
65.8331
65.9798
65.918
65.5972
64.9293
63.7759
61.9382
59.1405
55.0271
49.1518
46.026
48.0606
52.331
58.1428
65.6381
74.8772
97.6502
124.552
161.515
208.664
261.611
320.229
383.692
450.512
518.644
585.742
649.52
707.995
759.61
803.485
839.379
867.5
888.324
902.437
910.449
913.025
910.836
904.544
894.789
882.167
867.212
850.389
832.091
812.643
792.308
771.294
749.768
727.861
705.673
683.285
660.758
638.141
615.469
592.769
570.074
547.403
524.76
502.15
479.581
457.055
434.572
412.123
389.699
367.291
344.886
331.044
325.67
320.406
315.228
310.121
312.654
320.371
327.546
334.203
340.351
346.006
351.193
355.938
360.268
364.208
367.77
370.954
373.753
376.145
378.1
379.587
380.613
381.197
381.366
381.149
380.585
379.719
378.607
377.305
375.875
374.376
372.863
371.384
369.983
368.692
367.538
92.5081
49.7685
56.5355
59.8635
61.4393
62.3744
62.9959
63.4187
63.6912
63.8342
63.8538
63.7461
63.497
63.0804
62.4503
61.5296
60.2004
58.2955
55.5871
51.7707
48.0507
47.4981
49.8604
53.3793
58.2713
64.7076
72.7818
88.8729
112.833
141.793
183.384
229.672
280.638
335.94
394.664
455.397
516.351
575.532
631.109
681.572
725.833
763.356
794.074
818.212
836.124
848.198
854.88
856.683
854.157
847.862
838.345
826.119
811.651
795.354
777.584
758.641
738.774
718.188
697.047
675.486
653.608
631.495
609.197
586.811
564.352
541.836
519.29
496.738
474.197
451.669
429.147
406.623
384.089
361.533
347.914
343.124
338.39
333.685
328.984
326.181
331.429
338.28
344.56
350.315
355.578
360.377
364.73
368.646
372.12
375.137
377.681
379.74
381.304
382.361
382.908
382.964
382.553
381.702
380.452
378.851
376.959
374.842
372.573
370.221
367.853
365.529
363.3
361.208
359.285
357.554
356.03
354.724
353.637
352.771
94.344
49.8097
56.6819
59.8257
61.1489
61.8097
62.1533
62.303
62.3128
62.2087
62.0027
61.6998
61.2985
60.7919
60.166
59.3966
58.4427
57.2377
55.6818
53.6362
50.9679
49.6217
50.1156
51.1743
52.9988
55.8103
59.8276
65.237
72.1718
82.5199
103.948
128.172
163.234
204.138
248.801
296.982
348.174
401.46
455.561
508.966
560.088
607.526
650.194
687.464
719.109
745.127
765.591
780.68
790.677
795.941
796.886
793.96
787.622
778.327
766.506
752.559
736.847
719.686
701.35
682.076
662.059
641.466
620.39
598.952
577.216
555.297
533.228
511.065
488.843
466.557
444.212
421.812
399.36
376.851
363.61
359.52
355.433
351.319
347.148
342.902
342.319
347.737
353.615
358.907
363.647
367.861
371.562
374.756
377.44
379.617
381.277
382.406
382.993
383.036
382.539
381.516
380.001
378.033
375.665
372.961
369.996
366.852
363.612
360.354
357.151
354.065
351.146
348.431
345.949
343.716
341.743
340.031
338.581
337.385
96.3032
50.2229
57.3055
60.2867
61.3926
61.8198
61.9255
61.8375
61.612
61.2763
60.8442
60.3226
59.7144
59.0189
58.2321
57.4017
56.8114
56.4404
56.0541
55.6689
55.3115
55.0209
54.8529
54.8841
55.2182
55.9963
57.3944
59.6163
62.8759
67.3696
73.2492
80.6105
97.7293
119.394
147.194
183.636
223.114
265.377
310.007
356.381
403.659
450.752
496.423
539.504
579.052
614.461
645.395
671.67
693.21
710.042
722.293
730.173
733.957
733.97
730.568
724.121
714.999
703.56
690.135
675.038
658.541
640.879
622.283
602.966
583.011
562.586
541.778
520.653
499.248
477.624
455.844
433.925
411.89
389.741
377.103
373.862
370.56
367.164
363.642
359.967
356.122
356.333
360.311
365.033
369.121
372.597
375.475
377.765
379.475
380.614
381.186
381.192
380.639
379.531
377.872
375.672
372.97
369.821
366.294
362.472
358.446
354.309
350.156
346.07
342.125
338.38
334.88
331.656
328.729
326.108
323.796
321.788
320.076
318.649
98.3802
51.003
58.3813
61.2314
62.1695
62.4217
62.3545
62.3749
62.5531
62.6717
62.745
62.7806
62.7829
62.7534
62.6924
62.5993
62.4734
62.3139
62.1212
61.8976
61.6493
61.3892
61.1397
60.9328
60.8126
60.8397
61.0972
61.6987
62.7924
64.5569
67.19
70.8879
75.8172
82.0926
93.5811
112.915
134.368
166.561
201.561
238.775
277.834
318.248
359.349
400.324
440.282
478.351
513.843
546.245
575.173
600.354
621.617
638.891
652.193
661.617
667.324
669.531
668.491
664.488
657.815
648.771
637.641
624.706
610.231
594.446
577.52
559.64
540.971
521.729
502.009
481.88
461.422
440.673
419.664
398.394
386.704
384.54
382.228
379.728
377.007
374.04
370.804
367.282
366.652
367.326
370.644
373.267
375.216
376.506
377.152
377.168
376.567
375.361
373.566
371.201
368.283
364.842
360.923
356.595
351.944
347.065
342.066
337.049
332.113
327.344
322.809
318.562
314.639
311.062
307.842
304.978
302.465
300.291
298.443
296.902
100.57
52.1424
59.8609
62.683
63.9411
64.8093
65.3922
65.8257
66.1708
66.4579
66.7034
66.9164
67.1021
67.2628
67.3992
67.5109
67.5963
67.6536
67.6805
67.675
67.6359
67.5638
67.4628
67.3424
67.2208
67.1245
67.089
67.1623
67.4094
67.9199
68.8134
70.2392
72.3706
75.3894
79.4639
84.726
91.249
108.036
127.023
151.979
182.877
215.586
249.749
284.924
320.562
356.004
390.6
423.761
454.978
483.817
509.924
533.026
552.928
569.513
582.736
592.619
599.243
602.741
603.285
601.083
596.353
589.333
580.267
569.394
556.925
543.078
528.003
511.886
494.87
477.091
458.659
439.677
420.268
400.503
390.265
389.487
388.403
387.008
385.284
383.206
380.754
377.905
374.642
371.358
370.904
369.83
369.455
369.706
369.258
368.133
366.356
363.948
360.934
357.343
353.209
348.579
343.519
338.112
332.46
326.675
320.873
315.163
309.644
304.395
299.476
294.929
290.779
287.035
283.697
280.757
278.199
276.005
274.155
272.626
271.399
102.862
53.6419
61.8474
65.1539
66.805
67.7742
68.4526
68.9825
69.4278
69.8212
70.1808
70.517
70.8357
71.1405
71.4325
71.7117
71.977
72.226
72.4558
72.6631
72.8442
72.9956
73.1144
73.1994
73.2523
73.2798
73.2955
73.3215
73.3873
73.5313
73.8047
74.2771
75.0424
76.2208
77.9569
80.4105
83.7387
88.0749
93.5167
104.459
121.044
139.335
166.505
195.187
225.002
255.511
286.238
316.703
346.443
375.023
402.048
427.168
450.086
470.562
488.412
503.512
515.794
525.243
531.895
535.83
537.162
536.034
532.614
527.076
519.613
510.44
499.726
487.635
474.318
459.934
444.623
428.49
411.628
394.099
385.699
386.485
386.866
386.821
386.332
385.381
383.944
382.002
379.536
376.53
372.976
368.867
365.548
362.938
359.67
355.771
351.269
346.347
342.24
337.563
332.366
326.715
320.694
314.408
307.974
301.518
295.162
289.015
283.169
277.691
272.63
268.013
263.851
260.143
256.876
254.033
251.591
249.526
247.813
246.426
245.34
105.236
55.5201
64.2435
67.7902
69.4626
70.4522
71.1553
71.717
72.2028
72.6468
73.068
73.4778
73.8832
74.2881
74.6945
75.1028
75.5121
75.9201
76.3237
76.7187
77.1004
77.4635
77.8024
78.1118
78.3872
78.6254
78.826
78.993
79.1365
79.2747
79.4331
79.6439
79.9482
80.4003
81.0734
82.0623
83.4832
85.4697
88.1633
91.6933
96.1591
101.797
116.19
131.937
152.193
177.148
202.953
229.221
255.568
281.618
307.01
331.404
354.49
375.988
395.658
413.301
428.759
441.92
452.716
461.123
467.153
470.855
472.308
471.615
468.903
464.329
458.04
450.18
440.886
430.298
418.556
405.781
392.082
377.541
371.531
374.141
376.217
377.756
378.746
379.171
379.011
378.245
376.853
374.82
372.134
368.786
364.777
360.113
354.806
348.879
342.359
335.435
329.383
322.778
315.672
308.12
300.186
291.94
283.458
274.815
266.087
259.269
253.38
247.944
242.994
238.542
234.586
231.111
228.098
225.519
223.348
221.553
220.107
218.981
218.148
107.661
57.7012
66.6767
70.1644
71.774
72.7176
73.3872
73.927
74.4032
74.8505
75.2887
75.73
76.182
76.6494
77.1345
77.6382
78.1593
78.6958
79.2439
79.799
80.3554
80.9064
81.4448
81.9631
82.4537
82.9096
83.3246
83.6943
84.0167
84.2944
84.5354
84.755
84.9761
85.2275
85.5441
85.97
86.5628
87.3972
88.5658
90.1771
92.3493
95.1994
98.8276
103.308
112.12
125.677
140.217
160.861
183.015
205.485
227.943
250.079
271.596
292.222
311.705
329.824
346.384
361.225
374.221
385.279
394.343
401.389
406.425
409.486
410.635
409.963
407.572
403.571
398.072
391.193
383.052
373.766
363.442
352.174
348.697
353.139
356.965
360.179
362.774
364.734
366.038
366.663
366.586
365.787
364.247
361.956
358.906
355.099
350.545
345.261
339.271
332.608
325.308
317.412
308.962
299.996
290.547
280.646
270.32
259.596
248.502
239.057
230.222
221.494
212.904
207.382
203.826
200.763
198.164
195.998
194.231
192.831
191.767
191.009
190.528
190.3
110.119
60.0415
69.0561
72.2128
73.6837
74.5191
75.0993
75.5659
75.9848
76.3911
76.8051
77.2397
77.7031
78.2001
78.7336
79.304
79.9103
80.5498
81.2181
81.9096
82.6174
83.3333
84.0485
84.7536
85.4387
86.0944
86.7116
87.2821
87.7994
88.2589
88.6589
89.0016
89.2949
89.5528
89.7963
90.053
90.355
90.7399
91.2543
91.9579
92.9241
94.2396
96.0013
98.3103
101.259
104.921
109.337
119.997
132.361
145.924
164.784
183.855
202.856
221.521
239.602
256.871
273.124
288.18
301.885
314.113
324.766
333.774
341.095
346.716
350.649
352.931
353.62
352.785
350.509
346.881
342
335.962
328.867
320.805
319.73
325.804
331.239
336.041
340.201
343.702
346.519
348.623
349.984
350.574
350.367
349.348
347.485
344.787
341.252
336.889
331.716
325.76
319.057
311.643
303.56
294.848
285.547
275.696
265.332
254.495
243.226
231.564
219.552
207.231
194.64
184.815
176.643
169.925
167.874
166.241
164.991
164.089
163.502
163.201
163.156
163.343
112.573
62.3835
71.5349
74.4566
75.716
76.4054
76.8116
77.0332
77.1102
77.2697
77.6058
77.9982
78.4409
78.9389
79.4945
80.1081
80.778
81.5005
82.2701
83.0798
83.921
84.7837
85.657
86.5293
87.3887
88.2235
89.0224
89.7749
90.472
91.1063
91.6722
92.1669
92.5904
92.9464
93.2435
93.4962
93.7246
93.9557
94.22
94.5519
94.9903
95.5838
96.3911
97.4813
98.9311
100.821
103.227
106.21
109.81
114.614
125.018
135.939
147.959
163.996
179.924
195.517
210.561
224.867
238.265
250.61
261.78
271.677
280.229
287.388
293.13
297.456
300.386
301.958
302.224
301.248
299.106
295.878
291.647
286.497
287.532
294.935
301.725
307.906
313.467
318.385
322.632
326.17
328.963
330.971
332.153
332.505
331.947
330.508
328.161
324.906
320.751
315.716
309.827
303.118
295.625
287.389
278.453
268.863
258.667
247.915
236.658
224.948
212.835
200.366
187.586
174.539
161.262
149.121
141.457
136.967
136.321
135.998
135.965
136.192
136.651
137.318
115.009
64.7121
74.0483
77.1896
78.7453
79.7514
80.4751
81.0093
81.3922
81.6396
81.7564
81.7414
81.5906
81.2978
80.8553
80.4988
80.7845
81.5761
82.4342
83.3497
84.312
85.3089
86.3268
87.3519
88.3699
89.3667
90.3289
91.2443
92.1019
92.8926
93.6093
94.247
94.8033
95.2782
95.6744
95.9981
96.2596
96.4742
96.6622
96.8491
97.0644
97.3405
97.7115
98.2162
98.9015
99.8205
101.031
102.593
104.565
106.993
109.91
113.329
118.003
127.077
136.422
145.901
158.886
171.77
184.15
195.867
206.783
216.781
225.767
233.67
240.44
246.05
250.494
253.784
255.947
257.026
257.076
256.161
254.351
251.719
254.517
262.93
270.791
278.098
284.837
290.982
296.497
301.34
305.465
308.824
311.355
313.065
313.844
313.706
312.617
310.563
307.54
303.554
298.622
292.767
286.021
278.421
270.013
260.847
250.982
240.476
229.392
217.789
205.724
193.251
180.419
167.276
153.863
140.22
126.381
115.508
108.834
109.151
109.73
110.54
111.556
112.754
117.4
66.9907
76.4365
79.8441
81.7528
83.1333
84.2307
85.132
85.8736
86.4704
86.9271
87.2428
87.4134
87.4319
87.29
86.9781
86.4863
85.8043
84.922
83.8497
83.841
84.9646
86.119
87.2876
88.4533
89.5999
90.7117
91.7747
92.7765
93.7067
94.5573
95.3224
95.9985
96.5846
97.0818
97.4936
97.8259
98.0877
98.2906
98.4504
98.5874
98.7255
98.8924
99.1178
99.4321
99.8664
100.456
101.241
102.263
103.566
105.188
107.164
109.519
112.262
115.386
118.867
126.282
134.004
141.685
150.107
160.182
169.676
178.48
186.505
193.682
199.964
205.322
209.747
213.247
215.846
217.582
218.504
218.671
218.145
222.364
231.503
240.167
248.355
256.046
263.21
269.808
275.79
281.103
285.694
289.485
292.458
294.533
295.674
295.842
295.01
293.16
290.283
286.381
281.467
275.564
268.705
260.935
252.313
242.901
232.768
221.983
210.614
198.722
186.368
173.604
160.48
147.041
133.328
119.378
105.227
91.4294
84.5906
85.2735
86.7083
88.3206
90.0877
119.721
69.1074
78.6175
82.3407
84.652
86.4524
87.9693
89.2848
90.433
91.4281
92.2739
92.9689
93.5077
93.883
94.0859
94.1063
93.9334
93.5563
92.9639
92.1458
91.0925
89.796
88.2501
87.2348
87.7093
88.9982
90.2507
91.451
92.5854
93.6427
94.6139
95.4929
96.276
96.9617
97.5509
98.0464
98.453
98.7775
99.0283
99.216
99.3536
99.4563
99.5434
99.6374
99.7627
99.9455
100.213
100.589
101.1
101.775
102.642
103.73
105.065
106.67
108.558
110.732
113.184
115.892
118.822
122.847
128.961
134.904
140.585
146.22
153.296
159.74
165.508
170.573
174.928
178.58
181.553
183.88
185.61
186.798
192.126
201.75
210.991
219.84
228.278
236.268
243.767
250.72
257.069
262.752
267.694
271.83
275.102
277.454
278.832
279.195
278.507
276.745
273.896
269.958
264.945
258.885
251.825
243.825
234.955
225.29
214.905
203.871
192.257
180.124
167.53
154.526
141.158
127.471
113.502
99.2873
84.8609
70.2536
63.1768
65.0565
67.2932
69.6581
121.943
70.938
80.4815
84.575
87.3455
89.6218
91.6128
93.3928
94.9941
96.4302
97.705
98.8176
99.763
100.534
101.12
101.512
101.697
101.662
101.397
100.89
100.129
99.1062
97.8144
96.2491
94.4079
92.2918
90.4265
90.3542
91.6146
92.7912
93.8747
94.8587
95.7395
96.5158
97.1885
97.7606
98.2368
98.6232
98.9274
99.1582
99.3256
99.4408
99.517
99.5691
99.6138
99.6712
99.7627
99.9099
100.135
100.458
100.898
101.473
102.201
103.101
104.185
105.465
106.945
108.621
110.479
112.493
114.63
116.843
119.075
121.572
125.875
129.843
133.413
136.553
141.346
145.64
149.448
152.792
155.71
158.248
164.409
174.319
183.943
193.27
202.274
210.917
219.152
226.921
234.158
240.792
246.748
251.948
256.321
259.799
262.317
263.818
264.252
263.578
261.767
258.805
254.694
249.46
243.149
235.823
227.558
218.43
208.521
197.905
186.652
174.829
162.492
149.697
136.489
122.914
109.01
94.8154
80.3635
65.6866
50.8149
45.8384
48.7187
51.7013
124.05
72.3988
81.9681
86.4894
89.7695
92.5643
95.0652
97.3444
99.4337
101.347
103.089
104.657
106.048
107.253
108.262
109.063
109.643
109.989
110.088
109.926
109.492
108.776
107.769
106.467
104.868
102.971
100.781
98.3039
95.5497
92.9703
92.4296
93.5144
94.4881
95.3499
96.1011
96.7449
97.2862
97.7313
98.0875
98.3632
98.5673
98.7098
98.8011
98.8526
98.8763
98.886
98.8959
98.9222
98.9831
99.0961
99.2776
99.5432
99.9067
100.378
100.965
101.677
102.518
103.487
104.577
105.777
107.065
108.409
109.77
111.099
112.338
113.422
114.276
114.85
117.251
119.226
121.4
125.421
129.192
132.753
139.504
149.535
159.383
169.03
178.448
187.595
196.422
204.865
212.856
220.316
227.164
233.315
238.688
243.201
246.779
249.35
250.848
251.216
250.408
248.398
245.18
240.776
235.232
228.612
220.993
212.456
203.083
192.95
182.132
170.692
158.691
146.182
133.214
119.831
106.072
91.9757
77.5755
62.904
47.992
34.3584
32.7418
36.3554
126.014
73.3923
82.9872
87.9805
91.8079
95.1596
98.2095
101.026
103.641
106.069
108.314
110.375
112.248
113.923
115.39
116.636
117.648
118.41
118.907
119.125
119.051
118.673
117.982
116.973
115.641
113.988
112.018
109.738
107.158
104.292
101.154
97.7615
94.5464
93.5601
94.3884
95.102
95.7064
96.2082
96.6148
96.9346
97.1763
97.3493
97.4631
97.5277
97.5531
97.5498
97.5284
97.5004
97.4781
97.4732
97.4992
97.5701
97.6973
97.8899
98.1559
98.5003
98.9234
99.4227
99.9925
100.622
101.295
101.986
102.666
103.295
103.829
104.21
104.376
104.253
103.764
102.822
102.025
103.013
106.013
110.32
117.46
127.483
137.425
147.264
156.969
166.495
175.79
184.787
193.414
201.586
209.217
216.216
222.491
227.951
232.507
236.073
238.569
239.92
240.068
238.974
236.626
233.043
228.271
222.375
215.432
207.524
198.735
189.141
178.817
167.826
156.229
144.079
131.425
118.309
104.771
90.8484
76.575
61.9829
47.1028
31.9645
21.0442
23.6685
127.822
73.8368
83.4676
88.9833
93.3993
97.3425
100.974
104.359
107.53
110.503
113.282
115.867
118.253
120.43
122.388
124.114
125.59
126.802
127.732
128.364
128.682
128.674
128.329
127.64
126.603
125.218
123.49
121.426
119.039
116.341
113.35
110.084
106.563
102.808
98.8396
95.0308
93.5946
94.1532
94.6098
94.9732
95.2521
95.4558
95.5936
95.6749
95.7088
95.7047
95.6714
95.618
95.5535
95.4861
95.4253
95.3797
95.3571
95.3657
95.413
95.5027
95.6349
95.8072
96.0137
96.2419
96.4741
96.6891
96.8603
96.954
96.9288
96.7355
96.3175
95.6102
94.5415
93.0311
90.9913
88.328
87.4668
90.7421
98.1247
108.053
117.997
127.932
137.824
147.63
157.292
166.744
175.907
184.695
193.014
200.768
207.856
214.178
219.632
224.119
227.543
229.816
230.866
230.645
229.137
226.356
222.354
217.188
210.94
203.693
195.527
186.519
176.741
166.258
155.128
143.404
131.132
118.355
105.111
91.4358
77.363
62.9239
48.1484
33.0657
17.7043
13.6093
129.464
73.6715
83.3541
89.4339
94.4712
99.0345
103.274
107.254
111.007
114.551
117.891
121.027
123.954
126.664
129.143
131.378
133.352
135.046
136.442
137.52
138.264
138.659
138.691
138.351
137.636
136.545
135.081
133.254
131.076
128.562
125.73
122.601
119.197
115.54
111.654
107.562
103.286
98.8489
94.4728
92.5712
92.8873
93.1215
93.283
93.3811
93.4249
93.4231
93.3838
93.3152
93.2245
93.1186
93.0041
92.8866
92.7709
92.6622
92.5641
92.4777
92.4033
92.3385
92.2764
92.2043
92.106
91.9625
91.7489
91.432
90.9718
90.3227
89.4319
88.2388
86.6752
84.6653
82.1261
78.9668
75.0895
73.6525
81.1969
90.9899
100.884
110.854
120.868
130.881
140.836
150.664
160.285
169.608
178.536
186.966
194.789
201.896
208.173
213.508
217.79
220.918
222.81
223.415
222.716
220.719
217.49
213.058
207.518
200.951
193.438
185.055
175.869
165.946
155.34
144.102
132.278
119.907
107.028
93.6726
79.8737
65.6609
51.0631
36.1082
20.8239
8.27847
130.935
72.8344
82.5982
89.277
94.9591
100.163
105.031
109.626
113.983
118.12
122.044
125.755
129.249
132.516
135.545
138.318
140.818
143.026
144.919
146.477
147.68
148.51
148.951
148.993
148.63
147.859
146.684
145.115
143.165
140.85
138.191
135.21
131.931
128.379
124.579
120.558
116.339
111.947
107.406
102.738
97.9646
93.1072
90.6955
90.7283
90.7811
90.7812
90.7367
90.655
90.5432
90.407
90.2519
90.0821
89.9008
89.7106
89.5124
89.3049
89.086
88.8508
88.59
88.2911
87.9399
87.5181
87.0007
86.3558
85.5456
84.5277
83.2513
81.6573
79.6793
77.2444
74.2718
70.6727
66.3506
61.2426
66.2991
75.9572
85.7877
95.7687
105.869
116.047
126.245
136.395
146.415
156.212
165.684
174.724
183.215
191.038
198.069
204.182
209.255
213.175
215.854
217.234
217.296
216.045
213.563
209.877
205.063
199.202
192.373
184.65
176.1
166.783
156.754
146.061
134.747
122.848
110.401
97.4365
83.9837
70.0706
55.724
40.9701
25.8351
10.3455
132.236
71.2551
81.1369
88.4428
94.788
100.65
106.162
111.39
116.369
121.118
125.646
129.953
134.035
137.883
141.484
144.822
147.876
150.626
153.048
155.119
156.814
158.114
158.999
159.456
159.475
159.055
158.196
156.91
155.208
153.111
150.639
147.817
144.672
141.232
137.524
133.576
129.416
125.07
120.563
115.92
111.163
106.316
101.398
96.4296
91.4287
88.3923
87.7987
87.703
87.5699
87.405
87.2131
86.9978
86.7616
86.5056
86.229
85.9291
85.6015
85.2389
84.8301
84.3622
83.8201
83.184
82.4277
81.5198
80.425
79.1025
77.5029
75.5692
73.2379
70.4383
67.0905
63.1062
58.3897
52.8369
53.0542
62.6044
72.3855
82.379
92.5574
102.881
113.297
123.736
134.116
144.342
154.31
163.906
173.007
181.486
189.208
196.036
201.836
206.491
209.908
212.028
212.829
212.313
210.542
207.578
203.486
198.34
192.214
185.179
177.299
168.63
159.226
149.129
138.381
127.017
115.067
102.561
89.5248
75.9838
61.962
47.4831
32.571
17.2502
5.46455
133.393
68.8668
78.8627
86.8296
93.8621
100.401
106.577
112.454
118.072
123.452
128.601
133.524
138.214
142.663
146.857
150.781
154.414
157.733
160.714
163.329
165.552
167.358
168.724
169.632
170.069
170.032
169.521
168.544
167.115
165.255
162.988
160.339
157.34
154.019
150.409
146.539
142.439
138.139
133.666
129.046
124.305
119.465
114.549
109.576
104.568
99.5414
94.513
89.4981
85.6334
84.1675
83.9381
83.6782
83.3898
83.0731
82.7267
82.3469
81.9277
81.4603
80.9329
80.3314
79.6391
78.8346
77.8904
76.7748
75.4529
73.8829
72.0158
69.796
67.1623
64.046
60.3685
56.0432
50.9746
45.0575
41.141
50.6184
60.3771
70.4013
80.6668
91.1374
101.762
112.473
123.189
133.815
144.241
154.35
164.014
173.095
181.448
188.928
195.394
200.723
204.82
207.628
209.125
209.327
208.272
206.023
202.65
198.223
192.813
186.486
179.302
171.316
162.576
153.123
142.993
132.218
120.827
108.844
96.2932
83.195
69.5707
55.4407
40.826
25.7481
10.23
134.471
65.7661
75.8068
84.4304
92.1499
99.3676
106.21
112.744
119.012
125.034
130.822
136.376
141.691
146.758
151.563
156.091
160.322
164.235
167.802
170.994
173.78
176.13
178.016
179.415
180.31
180.693
180.562
179.926
178.799
177.201
175.158
172.7
169.859
166.668
163.163
159.375
155.34
151.087
146.648
142.05
137.321
132.486
127.568
122.589
117.57
112.528
107.482
102.447
97.4381
92.4673
87.5461
82.684
79.9764
79.4498
79.0356
78.5801
78.0765
77.5153
76.8842
76.168
75.3486
74.4033
73.3042
72.019
70.5117
68.7398
66.6534
64.1971
61.3103
57.9244
53.9614
49.3358
43.9529
37.707
31.5163
39.7535
49.5167
59.5935
69.962
80.5885
91.4238
102.402
113.442
124.445
135.303
145.891
156.074
165.708
174.639
182.714
189.788
195.736
200.464
203.917
206.077
206.957
206.596
205.053
202.394
198.687
194
188.395
181.929
174.653
166.61
157.839
148.372
138.238
127.461
116.062
104.06
91.4726
78.3166
64.6085
50.3656
35.6058
20.3487
135.473
61.975
71.992
81.2426
89.6207
97.4957
104.991
112.177
119.096
125.771
132.211
138.415
144.373
150.073
155.502
160.648
165.494
170.02
174.199
177.999
181.385
184.319
186.767
188.7
190.095
190.94
191.229
190.97
190.176
188.868
187.074
184.827
182.161
179.114
175.723
172.025
168.057
163.855
159.45
154.874
150.156
145.323
140.401
135.411
130.377
125.316
120.248
115.189
110.153
105.154
100.202
95.3083
90.4799
85.7226
81.0399
76.5323
74.074
73.4235
72.6955
71.8743
70.9407
69.871
68.6369
67.2056
65.5399
63.5965
61.3252
58.6702
55.5705
51.9564
47.7497
42.8646
37.206
30.6673
23.8504
29.8186
39.6096
49.7588
60.2463
71.04
82.092
93.3372
104.693
116.062
127.328
138.365
149.031
159.172
168.631
177.247
184.875
191.389
196.701
200.757
203.541
205.066
205.374
204.517
202.56
199.568
195.603
190.727
184.991
178.443
171.123
163.065
154.3
144.85
134.736
123.974
112.581
100.568
87.9481
74.733
60.9353
46.5686
31.6484
136.424
57.4935
67.4089
77.2411
86.2284
94.7185
102.835
110.651
118.214
125.546
132.655
139.532
146.157
152.509
158.576
164.351