/*--------------------------------*- C++ -*----------------------------------*\
  =========                 |
  \\      /  F ield         | OpenFOAM: The Open Source CFD Toolbox
   \\    /   O peration     | Website:  https://openfoam.org
    \\  /    A nd           | Version:  10
     \\/     M anipulation  |
\*---------------------------------------------------------------------------*/
FoamFile
{
    format      ascii;
    class       volScalarField;
    location    "74000";
    object      nut;
}
// * * * * * * * * * * * * * * * * * * * * * * * * * * * * * * * * * * * * * //

dimensions      [0 2 -1 0 0 0 0];

internalField   nonuniform List<scalar> 
17969
(
1.4454e-08
1.21297e-06
6.22399e-06
1.29116e-05
1.74812e-05
1.91301e-05
1.80277e-05
1.7326e-05
1.75784e-05
1.878e-05
2.0997e-05
2.4453e-05
2.96773e-05
3.7585e-05
4.54764e-05
5.22522e-05
6.06346e-05
7.09077e-05
8.33074e-05
9.80121e-05
0.000115115
0.000134596
0.00015633
0.000180125
0.000205757
0.000232983
0.000261564
0.000291279
0.000321929
0.000353343
0.000385381
0.000417927
0.000450888
0.000484194
0.000517786
0.000551619
0.000585659
0.000619873
0.000654237
0.000688723
0.000723309
0.000757968
0.000792675
0.000827399
0.00086211
0.000896774
0.000931355
0.000965811
0.0010001
0.00103418
0.00106801
0.00110152
0.00113467
0.0011674
0.00119966
0.00123138
0.0012625
0.00129295
0.00132266
0.00135156
0.00137958
0.00140662
0.0014326
0.00145742
0.00148099
0.00150318
0.00152389
0.00154296
0.00156026
0.00157562
0.00158885
0.00159974
0.00160807
0.0016136
0.00161602
0.00161529
0.00161161
0.00160496
0.00159565
0.00156546
0.00152878
0.00149489
0.00146342
0.00143372
0.00140545
0.00137911
0.00135749
0.0013462
0.00135054
0.00136683
0.00136837
0.00134679
0.00132548
0.00130456
0.00128417
0.00126447
0.00124563
0.00122788
0.00121204
0.00119852
6.35142e-09
6.01463e-07
4.11667e-06
1.08087e-05
1.70019e-05
2.07956e-05
2.26212e-05
2.432e-05
2.31734e-05
2.22759e-05
2.22498e-05
2.31438e-05
2.49821e-05
2.79223e-05
3.2262e-05
3.86025e-05
4.78801e-05
5.62972e-05
6.34411e-05
7.21393e-05
8.26546e-05
9.51984e-05
0.00010993
0.000126956
0.000146313
0.000167945
0.000191709
0.000217406
0.00024481
0.000273689
0.000303816
0.000334986
0.000367012
0.000399734
0.000433016
0.000466745
0.000500824
0.000535178
0.00056974
0.000604459
0.000639288
0.000674187
0.000709119
0.000744049
0.000778943
0.000813768
0.000848487
0.000883063
0.000917456
0.000951627
0.000985529
0.00101912
0.00105234
0.00108515
0.00111749
0.0011493
0.00118052
0.00121108
0.00124092
0.00126997
0.00129815
0.00132538
0.00135157
0.00137663
0.00140046
0.00142295
0.00144398
0.00146341
0.00148111
0.0014969
0.0015106
0.00152201
0.00153091
0.00153706
0.00154016
0.0015402
0.00153741
0.00153172
0.00152347
0.00149043
0.00145335
0.00141944
0.00138828
0.00135961
0.00133319
0.0013086
0.00128602
0.00126754
0.00125779
0.00126213
0.00128033
0.00129383
0.00127429
0.00125517
0.00123662
0.00121878
0.00120183
0.001186
0.00117204
0.0011603
2.52536e-09
2.57088e-07
2.27876e-06
7.5073e-06
1.36088e-05
1.81881e-05
2.06774e-05
2.27749e-05
2.52045e-05
2.78679e-05
2.85821e-05
2.77157e-05
2.74324e-05
2.80055e-05
2.94853e-05
3.19562e-05
3.56382e-05
4.08683e-05
4.82762e-05
5.87679e-05
6.73626e-05
7.47982e-05
8.3736e-05
9.4421e-05
0.00010705
0.00012177
0.000138677
0.000157821
0.000179194
0.00020272
0.000228252
0.000255593
0.00028452
0.000314806
0.000346233
0.000378601
0.00041173
0.000445464
0.000479669
0.00051423
0.000549049
0.000584043
0.000619141
0.000654281
0.000689409
0.000724475
0.000759434
0.000794242
0.000828856
0.000863233
0.000897328
0.000931096
0.00096449
0.000997459
0.00102995
0.00106191
0.00109328
0.001124
0.00115401
0.00118322
0.00121158
0.001239
0.0012654
0.00129069
0.00131476
0.00133752
0.00135885
0.00137861
0.00139666
0.00141284
0.00142697
0.00143886
0.00144828
0.00145502
0.00145878
0.00145955
0.00145759
0.001453
0.00144594
0.00141213
0.00137507
0.00134122
0.00131013
0.00128177
0.00125622
0.0012333
0.00121269
0.00119448
0.00118011
0.00117311
0.00117832
0.00119785
0.0012199
0.00120282
0.00118635
0.00117063
0.00115583
0.00114228
0.00113057
0.00112091
1.27512e-09
1.31996e-07
1.30906e-06
5.09964e-06
1.04825e-05
1.53117e-05
1.84242e-05
2.02457e-05
2.24869e-05
2.51313e-05
2.81845e-05
3.15742e-05
3.46947e-05
3.39265e-05
3.337e-05
3.3617e-05
3.47308e-05
3.67693e-05
3.98632e-05
4.42756e-05
5.03481e-05
5.87156e-05
7.02326e-05
7.87975e-05
8.6456e-05
9.55641e-05
0.000106353
0.000119008
0.000133666
0.000150419
0.000169315
0.000190356
0.0002135
0.000238651
0.000265663
0.000294346
0.000324485
0.000355858
0.000388252
0.000421467
0.000455327
0.000489674
0.000524373
0.000559307
0.000594375
0.000629489
0.000664572
0.000699557
0.00073438
0.000768986
0.000803319
0.000837326
0.000870957
0.000904158
0.000936877
0.000969057
0.00100064
0.00103157
0.00106178
0.00109121
0.00111977
0.00114741
0.00117402
0.00119954
0.00122385
0.00124687
0.00126846
0.00128852
0.00130689
0.00132342
0.00133794
0.00135026
0.00136019
0.00136751
0.00137196
0.00137353
0.00137251
0.00136918
0.00136349
0.00133067
0.00129399
0.00126051
0.00122983
0.00120189
0.00117687
0.00115487
0.00113582
0.00111965
0.00110645
0.00109721
0.00109447
0.00110223
0.00112325
0.00114804
0.00113392
0.0011206
0.00110825
0.00109724
0.00108806
0.00108082
0.00107559
0.00107256
0.00107194
0.00107387
8.48604e-10
8.74741e-08
8.82117e-07
3.74069e-06
8.37027e-06
1.31783e-05
1.69385e-05
1.91198e-05
2.06119e-05
2.25706e-05
2.501e-05
2.79486e-05
3.13636e-05
3.52099e-05
3.92464e-05
4.07811e-05
4.01792e-05
4.01127e-05
4.08457e-05
4.24701e-05
4.50676e-05
4.87885e-05
5.39224e-05
6.08083e-05
7.00728e-05
8.25163e-05
9.06719e-05
9.8483e-05
0.000107693
0.000118523
0.000131149
0.0001457
0.000162263
0.000180879
0.000201552
0.000224242
0.000248874
0.000275334
0.00030347
0.0003331
0.000364023
0.000396027
0.000428908
0.00046247
0.000496537
0.000530953
0.000565579
0.000600296
0.000634998
0.000669592
0.000703996
0.000738133
0.000771936
0.000805336
0.000838272
0.00087068
0.000902498
0.000933662
0.000964106
0.000993763
0.00102256
0.00105042
0.00107727
0.00110302
0.00112757
0.00115083
0.00117268
0.001193
0.00121167
0.00122853
0.00124343
0.00125621
0.00126668
0.00127468
0.00127996
0.00128254
0.00128272
0.00128082
0.00127669
0.00124684
0.00121095
0.00117822
0.00114844
0.0011214
0.00109729
0.00107622
0.00105835
0.00104377
0.0010326
0.00102507
0.0010219
0.00102493
0.00103754
0.00106109
0.0010799
0.00106927
0.00105964
0.00105143
0.00104503
0.00104052
0.00103805
0.00103781
0.00103999
0.00104473
6.72718e-10
6.91092e-08
6.89568e-07
3.02678e-06
7.09837e-06
1.17857e-05
1.60838e-05
1.92752e-05
2.10361e-05
2.20757e-05
2.35023e-05
2.54318e-05
2.79352e-05
3.10177e-05
3.46649e-05
3.88506e-05
4.34173e-05
4.80021e-05
4.78073e-05
4.75179e-05
4.79705e-05
4.92117e-05
5.13553e-05
5.45258e-05
5.89036e-05
6.48011e-05
7.25274e-05
8.27249e-05
9.61313e-05
0.000103063
0.000110962
0.000120214
0.000131029
0.000143574
0.000157969
0.000174291
0.000192577
0.000212821
0.00023498
0.00025898
0.000284714
0.000312049
0.00034083
0.000370881
0.000402014
0.000434037
0.000466758
0.000499996
0.000533581
0.000567359
0.00060119
0.000634951
0.000668531
0.000701828
0.000734751
0.000767216
0.000799141
0.000830448
0.000861062
0.000890906
0.000919904
0.000947976
0.000975039
0.00100101
0.00102579
0.00104929
0.0010714
0.00109201
0.001111
0.00112825
0.00114362
0.00115697
0.00116816
0.00117705
0.00118342
0.00118727
0.00118888
0.00118863
0.00118626
0.00116212
0.00112772
0.00109614
0.0010677
0.00104206
0.00101934
0.000999686
0.000983238
0.000970207
0.000960857
0.000955499
0.000954546
0.000958605
0.00096888
0.000988686
0.00101669
0.00101728
0.00101062
0.00100544
0.00100207
0.0010006
0.00100119
0.00100406
0.00100937
0.00101722
5.87612e-10
6.03126e-08
5.93519e-07
2.63964e-06
6.33337e-06
1.08375e-05
1.53981e-05
1.94173e-05
2.24159e-05
2.40773e-05
2.47359e-05
2.56019e-05
2.68552e-05
2.86654e-05
3.11193e-05
3.42302e-05
3.79875e-05
4.23671e-05
4.73123e-05
5.24926e-05
5.59182e-05
5.58721e-05
5.6134e-05
5.71054e-05
5.8876e-05
6.15803e-05
6.53846e-05
7.05036e-05
7.72499e-05
8.5928e-05
9.71054e-05
0.000109191
0.000116059
0.000123997
0.000133239
0.000143981
0.000156378
0.00017054
0.000186535
0.000204389
0.00022409
0.000245589
0.000268804
0.000293629
0.000319936
0.00034758
0.000376401
0.00040623
0.000436894
0.000468216
0.000500023
0.000532148
0.000564432
0.000596727
0.000628894
0.000660807
0.000692347
0.000723404
0.000753877
0.000783667
0.00081268
0.000840823
0.000868006
0.000894136
0.000919121
0.000942866
0.000965274
0.000986243
0.00100567
0.00102345
0.00103946
0.00105361
0.00106576
0.00107582
0.00108353
0.00108886
0.00109205
0.00109339
0.00109305
0.00107864
0.00104651
0.00101634
0.000989583
0.000965792
0.000944983
0.00092726
0.00091276
0.000901751
0.000894605
0.000891767
0.000893751
0.000900854
0.0009131
0.000932884
0.000960546
0.000965362
0.00096186
0.000959922
0.000959819
0.000961652
0.000965613
0.000971884
0.000980602
0.000991839
0.00100559
5.41912e-10
5.56687e-08
5.40399e-07
2.41166e-06
5.84774e-06
1.01612e-05
1.47733e-05
1.92421e-05
2.31778e-05
2.62181e-05
2.80517e-05
2.87037e-05
2.89999e-05
2.96068e-05
3.06293e-05
3.22389e-05
3.45543e-05
3.76109e-05
4.14117e-05
4.59407e-05
5.11812e-05
5.68715e-05
6.26249e-05
6.5015e-05
6.54369e-05
6.62678e-05
6.77669e-05
7.00968e-05
7.34179e-05
7.79527e-05
8.39273e-05
9.15713e-05
0.000101215
0.000113346
0.000122917
0.00012981
0.000137729
0.000146889
0.000157469
0.000169609
0.00018341
0.000198929
0.000216187
0.000235164
0.000255807
0.000278032
0.000301729
0.000326771
0.000353015
0.000380309
0.000408494
0.000437407
0.000466882
0.000496755
0.000526867
0.000557062
0.000587189
0.000617107
0.00064668
0.000675779
0.000704283
0.000732077
0.000759049
0.000785095
0.000810111
0.000833998
0.000856657
0.00087799
0.000897903
0.000916299
0.000933083
0.000948157
0.000961421
0.000972768
0.000981941
0.000988854
0.000993725
0.000996827
0.000998478
0.000997334
0.00096895
0.000940967
0.000916424
0.000895038
0.000876667
0.000861409
0.000849496
0.000841315
0.000837321
0.000837889
0.00084344
0.000854149
0.000869487
0.000890856
0.000915729
0.000914215
0.00091404
0.00091554
0.000918907
0.000924294
0.000931877
0.000941806
0.000954175
0.000969007
0.00098625
0.00100577
0.00102737
5.18474e-10
5.33517e-08
5.1066e-07
2.27144e-06
5.52657e-06
9.66826e-06
1.42236e-05
1.88689e-05
2.3331e-05
2.73376e-05
3.06037e-05
3.28436e-05
3.38299e-05
3.3832e-05
3.38497e-05
3.41495e-05
3.48691e-05
3.61939e-05
3.82761e-05
4.11857e-05
4.49449e-05
4.9546e-05
5.49706e-05
6.10799e-05
6.75052e-05
7.38285e-05
7.57576e-05
7.66728e-05
7.80666e-05
8.01478e-05
8.31201e-05
8.71631e-05
9.25186e-05
9.94084e-05
0.000107944
0.000118516
0.000131477
0.000137586
0.000144435
0.000152248
0.000161218
0.000171504
0.000183232
0.00019649
0.000211331
0.000227771
0.000245788
0.000265329
0.000286311
0.000308625
0.000332145
0.00035673
0.000382229
0.000408486
0.000435341
0.000462635
0.000490208
0.000517903
0.000545569
0.000573058
0.000600227
0.000626941
0.000653068
0.000678485
0.000703073
0.000726721
0.00074932
0.000770767
0.000790963
0.000809814
0.000827225
0.000843106
0.000857361
0.000869888
0.000880403
0.000888783
0.000895224
0.000899994
0.000903424
0.000905301
0.00089545
0.000872885
0.00085157
0.000832884
0.000817288
0.000805201
0.000796924
0.000792762
0.000793051
0.000797683
0.000806348
0.000818743
0.00083571
0.00085677
0.000862722
0.000864463
0.000867734
0.000872805
0.000879843
0.000889003
0.00090043
0.000914228
0.000930437
0.000949024
0.000969881
0.000992825
0.00101762
0.00104396
5.11271e-10
5.2733e-08
4.97259e-07
2.19143e-06
5.32268e-06
9.32474e-06
1.37845e-05
1.845e-05
2.31318e-05
2.76496e-05
3.18066e-05
3.53787e-05
3.81154e-05
3.97543e-05
4.01391e-05
3.9699e-05
3.93973e-05
3.93458e-05
3.96919e-05
4.06427e-05
4.23836e-05
4.50239e-05
4.8616e-05
5.31676e-05
5.86601e-05
6.5084e-05
7.20566e-05
7.91711e-05
8.60886e-05
8.81634e-05
8.96776e-05
9.17249e-05
9.45023e-05
9.82306e-05
0.000103117
0.000109387
0.000117203
0.000126684
0.000138104
0.000147144
0.000153205
0.000159941
0.000167546
0.000176192
0.000186021
0.000197147
0.000209651
0.000223583
0.000238959
0.000255759
0.000273931
0.000293397
0.000314051
0.00033577
0.000358415
0.000381837
0.000405882
0.000430392
0.000455208
0.000480174
0.000505134
0.000529941
0.000554448
0.000578516
0.000602014
0.000624816
0.000646801
0.000667856
0.000687874
0.000706754
0.000724402
0.000740723
0.000755626
0.000769009
0.000780567
0.00079014
0.000797903
0.000804093
0.000808977
0.000812893
0.000815312
0.000812445
0.000796618
0.000782676
0.000772098
0.000765019
0.000761477
0.0007612
0.000763806
0.000769447
0.000777998
0.000784473
0.000792498
0.000804853
0.000811363
0.000816471
0.00082331
0.000832103
0.000842999
0.000856127
0.000871588
0.000889423
0.000909611
0.000932053
0.00095658
0.000982959
0.00101091
0.0010401
0.00107022
0.00110093
5.1834e-10
5.36161e-08
4.97681e-07
2.16147e-06
5.21989e-06
9.12642e-06
1.35002e-05
1.81278e-05
2.28677e-05
2.76001e-05
3.22017e-05
3.65308e-05
4.04171e-05
4.36569e-05
4.60137e-05
4.72329e-05
4.71973e-05
4.64071e-05
4.57653e-05
4.53342e-05
4.52546e-05
4.57487e-05
4.70336e-05
4.92671e-05
5.25499e-05
5.69251e-05
6.23924e-05
6.89414e-05
7.63255e-05
8.4093e-05
9.18548e-05
9.93689e-05
0.000102402
0.000104673
0.000107509
0.000111143
0.000115783
0.000121681
0.000128945
0.000137662
0.00014804
0.000158306
0.000163854
0.000169792
0.000176307
0.000183572
0.000191738
0.000200936
0.000211271
0.000222817
0.000235622
0.000249698
0.00026503
0.000281569
0.00029924
0.000317944
0.000337562
0.000357961
0.000378996
0.000400515
0.000422364
0.000444388
0.000466432
0.000488346
0.000509988
0.000531219
0.000551906
0.000571923
0.000591155
0.000609495
0.000626841
0.0006431
0.000658179
0.000671978
0.000684175
0.00069458
0.000703349
0.000710696
0.000716869
0.000722227
0.00072674
0.000730152
0.000732584
0.000734266
0.000735421
0.000736256
0.00073696
0.000737715
0.000732885
0.000729877
0.000729089
0.000730807
0.000735793
0.000745844
0.00076145
0.000770532
0.000781095
0.000793775
0.000808702
0.000825967
0.00084561
0.000867605
0.000891855
0.000918188
0.000946373
0.000976123
0.00100712
0.00103901
0.00107147
0.00110416
0.00113678
0.00116906
0.00120076
0.00123168
5.39127e-10
5.59586e-08
5.10967e-07
2.17689e-06
5.2105e-06
9.07178e-06
1.33965e-05
1.79896e-05
2.27322e-05
2.75359e-05
3.23205e-05
3.70008e-05
4.14773e-05
4.56278e-05
4.92996e-05
5.23044e-05
5.4416e-05
5.53831e-05
5.50823e-05
5.3998e-05
5.30317e-05
5.2231e-05
5.17147e-05
5.16933e-05
5.24147e-05
5.40966e-05
5.68965e-05
6.09017e-05
6.61379e-05
7.25976e-05
8.02095e-05
8.85041e-05
9.6994e-05
0.000105404
0.00011354
0.00011858
0.00012189
0.000125706
0.000130409
0.000136239
0.000143352
0.000151743
0.000161474
0.000170692
0.000175994
0.000181419
0.000187146
0.000193344
0.000200162
0.000207735
0.000216176
0.000225578
0.000236007
0.000247505
0.000260082
0.000273724
0.000288386
0.000303998
0.000320469
0.000337688
0.00035553
0.000373858
0.000392524
0.000411387
0.000430302
0.000449124
0.000467709
0.000485924
0.000503648
0.000520766
0.00053717
0.000552763
0.000567451
0.000581137
0.000593489
0.000604294
0.000613681
0.000621834
0.000628955
0.000635308
0.000641313
0.000646674
0.000651362
0.000655511
0.000659267
0.000662787
0.000666234
0.000669775
0.000673575
0.000677854
0.000682835
0.000685651
0.0006905
0.000699404
0.000713345
0.00072721
0.000741609
0.0007583
0.000777384
0.0007989
0.000822815
0.00084902
0.000877334
0.00090751
0.00093925
0.000972219
0.00100606
0.00104043
0.00107496
0.00110936
0.00114332
0.00117661
0.00120901
0.00124036
5.73524e-10
5.97755e-08
5.36722e-07
2.23452e-06
5.28752e-06
9.15357e-06
1.34765e-05
1.80684e-05
2.28182e-05
2.76504e-05
3.25046e-05
3.73253e-05
4.20539e-05
4.66233e-05
5.09511e-05
5.49326e-05
5.84328e-05
6.1278e-05
6.3256e-05
6.412e-05
6.37239e-05
6.24525e-05
6.12209e-05
6.01107e-05
5.91901e-05
5.86479e-05
5.87548e-05
5.9777e-05
6.19322e-05
6.5367e-05
7.01561e-05
7.6317e-05
8.38693e-05
9.24393e-05
0.000101521
0.000110694
0.000119746
0.000128524
0.00013689
0.000141735
0.0001469
0.000153008
0.000160224
0.000168724
0.00017811
0.000183615
0.000188899
0.000194112
0.000199401
0.000204911
0.000210776
0.000217121
0.000224058
0.000231685
0.000240079
0.000249297
0.000259372
0.000270313
0.000282102
0.000294701
0.000308047
0.000322055
0.000336631
0.000351661
0.000367023
0.000382587
0.00039822
0.000413798
0.000429202
0.000444314
0.000459024
0.000473232
0.00048685
0.000499785
0.000511708
0.000522389
0.000531928
0.000540473
0.000548181
0.000555235
0.00056189
0.000568564
0.000574982
0.000581101
0.000587036
0.00059291
0.00059886
0.000605034
0.000611592
0.000618719
0.000626628
0.000635561
0.000645806
0.000657661
0.000671412
0.000687307
0.000705565
0.000726307
0.000749588
0.000775376
0.000803552
0.000833912
0.000866185
0.000900044
0.000935128
0.00097106
0.00100746
0.00104397
0.00108025
0.00111599
0.00115095
0.0011849
0.00121766
0.00124911
6.21769e-10
6.51119e-08
5.74668e-07
2.33134e-06
5.44307e-06
9.35899e-06
1.37266e-05
1.83608e-05
2.31469e-05
2.80139e-05
3.29087e-05
3.7788e-05
4.26125e-05
4.73434e-05
5.19378e-05
5.63442e-05
6.0497e-05
6.43095e-05
6.76671e-05
7.0419e-05
7.23716e-05
7.32833e-05
7.29961e-05
7.17128e-05
7.02841e-05
6.89487e-05
6.77219e-05
6.67354e-05
6.62527e-05
6.65721e-05
6.79687e-05
7.06579e-05
7.47787e-05
8.03975e-05
8.75464e-05
9.60686e-05
0.000105463
0.000115215
0.000125022
0.000134659
0.000143998
0.00015294
0.000161438
0.000169423
0.000176853
0.000183723
0.00019008
0.000196
0.000201583
0.000206937
0.000212176
0.000217417
0.000222775
0.000228358
0.000234271
0.000240603
0.000247433
0.000254825
0.000262821
0.000271445
0.000280704
0.00029058
0.000301039
0.000312031
0.000323481
0.000335307
0.000347421
0.000359729
0.000372129
0.00038452
0.000396805
0.000408898
0.000420722
0.000432196
0.000443015
0.000452955
0.000462084
0.000470516
0.000478365
0.000485759
0.00049285
0.000499856
0.000507122
0.000514646
0.000522209
0.000529934
0.000537934
0.000546327
0.000555257
0.000564894
0.000575444
0.000587157
0.00060032
0.000615255
0.000632284
0.000651698
0.000673721
0.000698445
0.000725846
0.00075581
0.000788115
0.000822451
0.000858451
0.000895711
0.000933812
0.000972344
0.00101091
0.00104916
0.00108677
0.00112346
0.00115902
0.00119324
0.001226
0.00125719
6.8453e-10
7.20449e-08
6.2477e-07
2.46497e-06
5.67017e-06
9.67352e-06
1.4124e-05
1.88327e-05
2.36867e-05
2.86115e-05
3.35537e-05
3.84733e-05
4.33387e-05
4.81238e-05
5.28054e-05
5.73596e-05
6.17592e-05
6.59692e-05
6.99413e-05
7.36081e-05
7.68752e-05
7.96129e-05
8.16486e-05
8.27496e-05
8.27475e-05
8.16535e-05
8.01281e-05
7.86834e-05
7.72852e-05
7.59941e-05
7.50259e-05
7.46863e-05
7.52901e-05
7.71157e-05
8.03702e-05
8.51776e-05
9.15918e-05
9.96898e-05
0.000109022
0.000119057
0.000129369
0.000139696
0.000149826
0.000159605
0.000168913
0.00017769
0.000185889
0.000193507
0.00020058
0.000207158
0.000213309
0.00021911
0.000224648
0.000230012
0.000235294
0.000240586
0.000245973
0.000251536
0.000257346
0.000263461
0.00026993
0.000276783
0.000284039
0.000291701
0.000299751
0.000308157
0.000316883
0.000325885
0.000335108
0.00034449
0.00035397
0.000363494
0.000373008
0.000382454
0.000391584
0.000400203
0.000408352
0.00041611
0.000423562
0.000430802
0.000437929
0.000445066
0.000452365
0.000460011
0.00046827
0.000477111
0.000486488
0.000496431
0.000507088
0.000518629
0.000531265
0.000545251
0.000560895
0.000578541
0.000598541
0.00062121
0.000646769
0.000675274
0.000706597
0.000740512
0.00077668
0.000814678
0.000854041
0.000894292
0.000934967
0.000975633
0.0010159
0.00105541
0.00109388
0.00113108
0.00116679
0.00120089
0.00123327
0.00126385
0.00129261
7.631e-10
8.06875e-08
6.87372e-07
2.63146e-06
5.95097e-06
1.00767e-05
1.46492e-05
1.94716e-05
2.44252e-05
2.94315e-05
3.44351e-05
3.93964e-05
4.42867e-05
4.90857e-05
5.37792e-05
5.83574e-05
6.28122e-05
6.7135e-05
7.13137e-05
7.53283e-05
7.91464e-05
8.27172e-05
8.59639e-05
8.87756e-05
9.09998e-05
9.24225e-05
9.28386e-05
9.21374e-05
9.06942e-05
8.9259e-05
8.78214e-05
8.63969e-05
8.51099e-05
8.42409e-05
8.41173e-05
8.50627e-05
8.73519e-05
9.11858e-05
9.66804e-05
0.00010391
0.000112713
0.000122611
0.000133081
0.000143775
0.00015442
0.000164805
0.000174785
0.000184267
0.000193215
0.000201616
0.000209474
0.000216815
0.000223684
0.00023013
0.000236212
0.000241998
0.000247554
0.000252953
0.000258261
0.000263544
0.000268862
0.000274267
0.000279802
0.000285501
0.000291385
0.000297464
0.000303741
0.000310212
0.000316863
0.000323676
0.000330631
0.00033771
0.000344898
0.000352179
0.000359383
0.00036635
0.000373119
0.000379751
0.000386315
0.000392886
0.000399544
0.000406377
0.000413485
0.000420978
0.000428983
0.000437624
0.000447075
0.000457477
0.000468919
0.000481536
0.000495518
0.000511111
0.000528612
0.00054842
0.000570924
0.000596451
0.000625198
0.000657161
0.000692093
0.000729611
0.000769245
0.000810457
0.000852688
0.000895403
0.000938104
0.000980352
0.00102176
0.00106202
0.00110086
0.00113808
0.00117353
0.0012071
0.00123872
0.00126837
0.00129603
8.59314e-10
9.12085e-08
7.61347e-07
2.82692e-06
6.29514e-06
1.05757e-05
1.52989e-05
2.02597e-05
2.53331e-05
3.04363e-05
3.55115e-05
4.05182e-05
4.54289e-05
5.02263e-05
5.49014e-05
5.94514e-05
6.38786e-05
6.81883e-05
7.23864e-05
7.64775e-05
8.04617e-05
8.43308e-05
8.8064e-05
9.16223e-05
9.49417e-05
9.7925e-05
0.000100434
0.000102275
0.000103194
0.000103073
0.000101992
0.000100648
9.92834e-05
9.78841e-05
9.64706e-05
9.52559e-05
9.45535e-05
9.47045e-05
9.6034e-05
9.88025e-05
0.000103185
0.000109269
0.000117147
0.000126438
0.000136652
0.000147335
0.000158165
0.000168895
0.000179354
0.000189427
0.000199038
0.000208152
0.000216767
0.000224881
0.00023251
0.000239686
0.000246446
0.000252834
0.000258897
0.000264685
0.00027025
0.000275641
0.000280905
0.000286082
0.000291208
0.000296316
0.00030143
0.00030657
0.000311748
0.000316975
0.00032226
0.000327613
0.000333049
0.00033858
0.000344097
0.000349504
0.00035485
0.000360199
0.000365621
0.000371186
0.000376971
0.000383058
0.000389534
0.000396493
0.000404038
0.000412283
0.000421357
0.000431405
0.000442593
0.000455128
0.000469276
0.000485385
0.000503878
0.000525165
0.000549639
0.000577597
0.000609159
0.000644217
0.000682375
0.000723048
0.000765632
0.000809479
0.000853961
0.000898503
0.000942597
0.000985809
0.00102778
0.00106823
0.00110693
0.00114371
0.00117847
0.00121113
0.00124167
0.00127007
0.00129637
9.74002e-10
1.03714e-07
8.44921e-07
3.05573e-06
6.69934e-06
1.11585e-05
1.60522e-05
2.11672e-05
2.63725e-05
3.15807e-05
3.67316e-05
4.17839e-05
4.6711e-05
5.14978e-05
5.6139e-05
6.06371e-05
6.50008e-05
6.92435e-05
7.33815e-05
7.74323e-05
8.14126e-05
8.53357e-05
8.92094e-05
9.30321e-05
9.67892e-05
0.000100448
0.000103951
0.000107209
0.000110095
0.000112432
0.00011396
0.000114522
0.000114029
0.000112882
0.000111687
0.00011042
0.00010906
0.000107707
0.000106634
0.000106171
0.00010666
0.000108405
0.000111642
0.000116519
0.000123117
0.000131337
0.000140793
0.000151035
0.000161683
0.000172456
0.000183138
0.000193584
0.000203692
0.000213392
0.000222644
0.000231443
0.000239785
0.000247674
0.000255129
0.000262177
0.000268848
0.000275173
0.000281186
0.000286921
0.000292412
0.000297691
0.000302787
0.000307729
0.00031254
0.00031724
0.000321852
0.000326399
0.000330907
0.000335406
0.000339828
0.000344121
0.000348351
0.000352597
0.000356937
0.000361453
0.00036623
0.000371356
0.000376926
0.000383041
0.000389807
0.000397344
0.000405788
0.000415297
0.000426067
0.000438349
0.000452462
0.000468808
0.000487858
0.000510107
0.000535991
0.000565796
0.000599565
0.000637063
0.000677731
0.000720818
0.00076559
0.000811307
0.000857282
0.000902911
0.000947693
0.000991216
0.00103315
0.00107325
0.00111132
0.00114723
0.00118091
0.00121233
0.00124148
0.00126838
0.0012931
0.00131569
1.10793e-09
1.18197e-07
9.37577e-07
3.31179e-06
7.14974e-06
1.18041e-05
1.68817e-05
2.21607e-05
2.75037e-05
3.28193e-05
3.80446e-05
4.3138e-05
4.80741e-05
5.28407e-05
5.74363e-05
6.18679e-05
6.61496e-05
7.03009e-05
7.4345e-05
7.83074e-05
8.22143e-05
8.60906e-05
8.9958e-05
9.38337e-05
9.77272e-05
0.000101638
0.000105553
0.00010944
0.000113244
0.000116881
0.000120229
0.000123124
0.000125331
0.000126584
0.000126804
0.000126085
0.000125108
0.000124034
0.000122867
0.000121577
0.000120362
0.000119514
0.000119364
0.000120236
0.0001224
0.000126044
0.000131262
0.000138113
0.000146394
0.000155759
0.000165827
0.00017628
0.000186867
0.000197399
0.000207745
0.000217809
0.000227524
0.000236845
0.000245747
0.000254236
0.000262304
0.000269957
0.000277207
0.000284073
0.000290573
0.00029673
0.000302564
0.000308097
0.00031335
0.000318343
0.000323095
0.000327631
0.00033198
0.00033617
0.000340148
0.000343886
0.000347468
0.000350985
0.000354533
0.000358205
0.000362102
0.000366327
0.000370988
0.000376201
0.000382091
0.000388797
0.000396472
0.000405303
0.000415521
0.000427423
0.000441388
0.000457881
0.000477437
0.000500593
0.000527794
0.00055927
0.000594955
0.000634459
0.000677054
0.00072186
0.000768064
0.000814875
0.000861584
0.000907591
0.000952405
0.000995639
0.001037
0.00107626
0.00111328
0.00114796
0.00118024
0.00121014
0.00123767
0.00126288
0.00128585
0.00130666
1.26012e-09
1.34538e-07
1.03997e-06
3.58666e-06
7.63046e-06
1.24911e-05
1.77609e-05
2.32084e-05
2.869e-05
3.4111e-05
3.94046e-05
4.453e-05
4.94644e-05
5.41989e-05
5.87364e-05
6.30891e-05
6.72762e-05
7.13222e-05
7.52563e-05
7.91103e-05
8.29167e-05
8.67071e-05
9.05113e-05
9.43557e-05
9.82619e-05
0.000102245
0.000106312
0.00011046
0.00011467
0.000118911
0.000123125
0.000127229
0.000131106
0.000134595
0.00013749
0.000139473
0.000140451
0.000140375
0.000139659
0.000138836
0.000137931
0.000136875
0.000135733
0.000134757
0.000134235
0.000134479
0.000135768
0.000138313
0.000142259
0.000147653
0.000154507
0.000162613
0.000171685
0.000181416
0.000191528
0.000201801
0.000212062
0.000222189
0.00023209
0.000241696
0.000250961
0.00025985
0.000268344
0.000276442
0.00028414
0.000291436
0.000298335
0.000304842
0.000310971
0.000316729
0.000322129
0.000327186
0.000331919
0.00033635
0.000340417
0.000344097
0.000347486
0.000350688
0.000353812
0.000356966
0.000360264
0.000363824
0.000367772
0.000372242
0.000377376
0.000383339
0.000390312
0.000398514
0.000408222
0.000419788
0.000433654
0.000450353
0.000470477
0.000494586
0.000523094
0.00055614
0.000593516
0.00063464
0.000678633
0.000724562
0.000771558
0.000818808
0.000865609
0.000911383
0.000955669
0.000998114
0.00103845
0.00107651
0.00111216
0.00114533
0.00117599
0.00120417
0.00122992
0.00125331
0.00127442
0.00129337
1.43228e-09
1.52809e-07
1.1515e-06
3.88113e-06
8.13743e-06
1.32104e-05
1.86766e-05
2.42931e-05
2.99085e-05
3.54234e-05
4.07728e-05
4.59169e-05
5.08353e-05
5.55232e-05
5.99889e-05
6.42508e-05
6.83332e-05
7.22635e-05
7.60776e-05
7.98135e-05
8.35089e-05
8.71994e-05
9.09199e-05
9.47025e-05
9.8575e-05
0.00010256
0.000106674
0.000110927
0.000115319
0.000119842
0.000124473
0.000129173
0.000133886
0.000138526
0.000142978
0.000147089
0.000150668
0.000153438
0.000155144
0.000155794
0.000155511
0.000154974
0.000154343
0.00015364
0.000152778
0.000151921
0.000151315
0.000151226
0.000151926
0.000153636
0.000156515
0.000160661
0.000166084
0.000172754
0.000180509
0.000189122
0.000198362
0.000207987
0.000217801
0.000227646
0.000237402
0.000246978
0.000256307
0.000265332
0.000274015
0.000282324
0.000290238
0.000297742
0.000304834
0.000311504
0.000317746
0.000323559
0.000328954
0.000333936
0.000338424
0.000342385
0.000345919
0.000349143
0.000352173
0.000355128
0.000358133
0.000361319
0.000364828
0.000368809
0.000373422
0.000378857
0.000385328
0.000393086
0.000402463
0.000413868
0.000427811
0.00044489
0.000465736
0.000490905
0.000520739
0.000555251
0.000594073
0.000636427
0.000681325
0.000727831
0.000775048
0.00082217
0.000868522
0.000913558
0.000956854
0.000998093
0.00103705
0.00107357
0.00110757
0.00113902
0.0011679
0.00119425
0.00121811
0.0012396
0.00125881
0.00127585
1.62496e-09
1.72969e-07
1.27015e-06
4.19103e-06
8.66674e-06
1.39562e-05
1.96191e-05
2.54009e-05
3.1143e-05
3.67432e-05
4.21362e-05
4.72844e-05
5.21712e-05
5.67966e-05
6.11738e-05
6.53262e-05
6.9285e-05
7.30867e-05
7.67716e-05
8.03829e-05
8.39648e-05
8.75502e-05
9.118e-05
9.48909e-05
9.8714e-05
0.000102675
0.000106796
0.000111093
0.000115575
0.000120243
0.000125091
0.000130104
0.000135253
0.000140496
0.000145771
0.000150995
0.000156054
0.000160801
0.000165054
0.000168584
0.000171034
0.00017243
0.000172799
0.000172571
0.000172252
0.000171934
0.000171515
0.000170994
0.000170575
0.000170472
0.000170915
0.000172124
0.000174262
0.000177437
0.000181709
0.000187062
0.00019344
0.000200733
0.000208767
0.000217365
0.000226347
0.000235534
0.000244781
0.000253971
0.00026301
0.000271825
0.000280357
0.000288557
0.000296381
0.000303797
0.000310777
0.000317302
0.000323365
0.000328954
0.00033396
0.000338333
0.000342178
0.000345614
0.00034876
0.000351744
0.000354696
0.000357757
0.000361078
0.000364822
0.000369169
0.000374322
0.00038053
0.000388089
0.000397374
0.000408858
0.000423117
0.0004408
0.000462552
0.000488887
0.000520045
0.000555887
0.000595851
0.000639001
0.000684335
0.000730913
0.000777843
0.000824351
0.000869798
0.00091368
0.000955614
0.000995318
0.0010326
0.00106734
0.00109949
0.00112902
0.00115598
0.0011804
0.00120234
0.0012219
0.00123919
0.00125434
1.83707e-09
1.94778e-07
1.39434e-06
4.51218e-06
9.21094e-06
1.47173e-05
2.0573e-05
2.65119e-05
3.2369e-05
3.80397e-05
4.34598e-05
4.85949e-05
5.34331e-05
5.79802e-05
6.22558e-05
6.62895e-05
7.01184e-05
7.37849e-05
7.7334e-05
8.08121e-05
8.42651e-05
8.77373e-05
9.12713e-05
9.4908e-05
9.86783e-05
0.000102607
0.00010672
0.000111038
0.000115571
0.000120327
0.000125308
0.000130508
0.000135912
0.000141499
0.000147236
0.000153075
0.000158954
0.000164786
0.000170464
0.000175846
0.000180755
0.000185002
0.000188286
0.000190404
0.000191517
0.000191763
0.000191802
0.000191823
0.000191922
0.000191927
0.00019192
0.000192091
0.000192614
0.000193671
0.00019543
0.000198002
0.000201444
0.000205792
0.00021102
0.000217056
0.00022381
0.000231167
0.000238985
0.000247125
0.000255468
0.00026387
0.000272216
0.000280408
0.000288366
0.000296024
0.000303329
0.000310233
0.000316694
0.000322678
0.000328056
0.00033276
0.000336884
0.000340543
0.000343856
0.000346957