/*--------------------------------*- C++ -*----------------------------------*\
  =========                 |
  \\      /  F ield         | OpenFOAM: The Open Source CFD Toolbox
   \\    /   O peration     | Website:  https://openfoam.org
    \\  /    A nd           | Version:  10
     \\/     M anipulation  |
\*---------------------------------------------------------------------------*/
FoamFile
{
    format      ascii;
    class       volVectorField;
    location    "74000";
    object      Urel;
}
// * * * * * * * * * * * * * * * * * * * * * * * * * * * * * * * * * * * * * //

dimensions      [0 1 -1 0 0 0 0];

internalField   nonuniform List<vector> 
17969
(
(0.12045 -0.151556 0)
(-0.0179539 -0.119735 0)
(0.000228526 -0.0983064 -4.22701e-18)
(0.00403056 -0.0750065 5.36088e-18)
(0.00927868 -0.0472859 -2.09147e-18)
(0.0185136 -0.0108556 -1.87831e-18)
(0.0335022 0.0410652 1.6837e-18)
(0.0554287 0.112779 0)
(0.0831181 0.199995 7.68307e-20)
(0.114723 0.293879 0)
(0.147875 0.385367 0)
(0.180239 0.467579 0)
(0.210091 0.536749 0)
(0.236093 0.591427 -5.15232e-19)
(0.25775 0.632489 4.85218e-19)
(0.275437 0.662388 0)
(0.289572 0.683556 -3.75864e-19)
(0.300646 0.698162 3.4517e-19)
(0.309342 0.708021 -3.14486e-19)
(0.316259 0.714479 2.88826e-19)
(0.321865 0.718524 0)
(0.326525 0.720857 0)
(0.330518 0.721953 -2.7648e-20)
(0.33404 0.722115 0)
(0.337229 0.721524 0)
(0.340177 0.720291 1.72183e-19)
(0.342941 0.718482 -3.20482e-19)
(0.345556 0.716138 1.49756e-19)
(0.348044 0.713288 1.3927e-19)
(0.350417 0.709951 -1.7259e-20)
(0.352683 0.70614 -1.55021e-19)
(0.354846 0.701865 0)
(0.356907 0.697133 1.10505e-19)
(0.358867 0.69195 -2.37385e-19)
(0.360726 0.686317 7.64509e-22)
(0.362482 0.680238 1.92241e-19)
(0.364131 0.673712 -9.24258e-20)
(0.365673 0.666741 -1.10065e-19)
(0.367103 0.659324 6.39662e-20)
(0.368419 0.65146 0)
(0.369616 0.643148 1.97246e-20)
(0.370691 0.634386 1.90294e-20)
(0.37164 0.625173 1.4585e-19)
(0.372459 0.615504 -1.42472e-19)
(0.373144 0.605379 -1.36312e-19)
(0.373691 0.594792 -3.1723e-20)
(0.374095 0.583741 1.29324e-19)
(0.374351 0.57222 1.23789e-19)
(0.374455 0.560225 -1.60077e-21)
(0.374402 0.54775 -1.17992e-19)
(0.374187 0.534789 -1.41415e-19)
(0.373803 0.521335 1.38898e-19)
(0.373247 0.507379 0)
(0.372511 0.492915 0)
(0.371591 0.477932 2.53592e-20)
(0.370479 0.462421 1.4652e-19)
(0.369169 0.446371 -9.62231e-20)
(0.367654 0.429771 0)
(0.365928 0.412607 0)
(0.363983 0.394868 4.24858e-20)
(0.361811 0.376539 -8.56855e-20)
(0.359405 0.357603 0)
(0.356757 0.338046 0)
(0.353859 0.317849 -3.88338e-20)
(0.350703 0.296994 -7.38258e-20)
(0.34728 0.275462 3.86727e-20)
(0.343583 0.25323 7.13482e-20)
(0.339603 0.230277 0)
(0.335332 0.206579 0)
(0.330764 0.182112 0)
(0.32589 0.15685 5.97562e-20)
(0.320705 0.130766 -4.34619e-21)
(0.315202 0.103834 -1.1576e-19)
(0.309376 0.0760272 0)
(0.30331 0.0477313 5.14553e-20)
(0.297187 0.0197502 4.83246e-20)
(0.291113 -0.00751249 -4.4915e-20)
(0.285094 -0.0340583 0)
(0.279148 -0.0598892 0)
(0.273284 -0.0850692 0)
(0.267491 -0.109668 0)
(0.261792 -0.133708 0)
(0.256193 -0.157188 5.45082e-20)
(0.250692 -0.180108 -9.11222e-20)
(0.245286 -0.202476 6.18428e-20)
(0.23997 -0.224302 -1.10376e-20)
(0.234746 -0.245583 0)
(0.229626 -0.266277 0)
(0.224647 -0.286272 0)
(0.219848 -0.305427 -1.89884e-20)
(0.215229 -0.323722 2.52694e-20)
(0.210727 -0.341291 1.95e-20)
(0.206305 -0.358249 -1.92695e-20)
(0.201957 -0.374623 1.41041e-20)
(0.197679 -0.39044 -2.7167e-20)
(0.193469 -0.405724 1.01384e-20)
(0.189325 -0.420508 0)
(0.185245 -0.434822 -4.83795e-21)
(0.181225 -0.448701 4.76667e-21)
(0.177266 -0.462177 2.52742e-22)
(0.133172 -0.144719 0)
(-0.0196813 -0.11407 -1.90784e-17)
(0.00160239 -0.105437 1.03502e-17)
(0.00308298 -0.0937169 1.92657e-19)
(0.00477293 -0.079512 8.82326e-18)
(0.00817933 -0.0615867 -1.47429e-17)
(0.0142094 -0.0378477 6.77075e-18)
(0.0234931 -0.00621962 6.20438e-18)
(0.0372547 0.0371737 -5.94284e-18)
(0.0567345 0.0960639 -5.43075e-18)
(0.0815505 0.168802 1.07326e-20)
(0.110579 0.250131 3.88999e-18)
(0.142181 0.333479 0)
(0.17439 0.412775 0)
(0.205373 0.483465 -2.43331e-18)
(0.233834 0.543068 2.14297e-18)
(0.258705 0.590617 0)
(0.279661 0.626908 -1.62241e-18)
(0.297057 0.653826 1.53761e-18)
(0.311206 0.673198 0)
(0.322513 0.68674 -1.2652e-18)
(0.331555 0.695912 1.10108e-18)
(0.338846 0.701827 3.37635e-20)
(0.344802 0.705341 0)
(0.349766 0.707097 9.20134e-19)
(0.354002 0.707555 -5.79328e-20)
(0.357709 0.707025 -1.57624e-18)
(0.361034 0.705705 7.32487e-19)
(0.364075 0.703717 -4.25058e-20)
(0.366902 0.701136 6.50093e-19)
(0.369555 0.69801 -5.56121e-19)
(0.372062 0.694367 0)
(0.37444 0.69023 4.54324e-19)
(0.376699 0.68561 -4.0153e-19)
(0.378844 0.680519 0)
(0.38088 0.674963 5.53919e-20)
(0.382808 0.668946 -5.27044e-20)
(0.384627 0.662471 -3.74351e-19)
(0.386338 0.655541 7.90395e-19)
(0.387937 0.648155 -4.933e-20)
(0.389423 0.640314 -3.75546e-19)
(0.390793 0.632016 -3.99868e-19)
(0.392042 0.623261 6.50401e-19)
(0.393167 0.614046 -7.0495e-19)
(0.394164 0.60437 6.03969e-19)
(0.395029 0.594228 -2.56809e-19)
(0.395755 0.583619 2.79835e-19)
(0.396338 0.572537 -6.12572e-19)
(0.396774 0.560978 5.2653e-19)
(0.397055 0.548937 -5.09631e-19)
(0.397177 0.536407 2.17352e-19)
(0.397132 0.523384 -2.97814e-20)
(0.396915 0.509859 0)
(0.396519 0.495824 0)
(0.395938 0.481271 -2.71224e-20)
(0.395162 0.46619 -5.26e-20)
(0.394186 0.450571 2.02905e-19)
(0.393001 0.434404 -3.00375e-19)
(0.3916 0.417675 -3.81348e-19)
(0.389973 0.400372 5.46544e-20)
(0.388112 0.382482 3.66472e-19)
(0.386007 0.363988 4.35197e-19)
(0.38365 0.344875 -4.30206e-19)
(0.381032 0.325125 4.1021e-20)
(0.378141 0.304721 0)
(0.374969 0.283641 3.92234e-20)
(0.371506 0.261864 2.93984e-19)
(0.367742 0.239369 -2.93701e-19)
(0.363666 0.21613 -1.40237e-19)
(0.359271 0.192123 -1.28438e-19)
(0.354547 0.16732 2.64636e-19)
(0.349484 0.141695 1.87551e-19)
(0.344077 0.115219 2.33974e-19)
(0.338317 0.0878646 -2.35024e-19)
(0.332286 0.060011 -5.39042e-20)
(0.326167 0.0324505 -5.06625e-20)
(0.320069 0.00558494 4.72264e-20)
(0.314001 -0.0205809 8.85105e-20)
(0.30799 -0.0460408 2.39392e-19)
(0.302041 -0.0708635 -9.72169e-21)
(0.296143 -0.0951269 -1.46129e-19)
(0.290323 -0.118847 -3.32105e-20)
(0.284588 -0.142019 0)
(0.278939 -0.16464 1.44874e-20)
(0.273378 -0.186705 -1.28284e-20)
(0.267904 -0.208218 1.17306e-20)
(0.262512 -0.229185 0)
(0.257201 -0.249605 0)
(0.25198 -0.269444 -1.3192e-19)
(0.246878 -0.288602 5.32889e-21)
(0.24193 -0.306931 1.11544e-19)
(0.237159 -0.324364 0)
(0.232503 -0.341038 0)
(0.227913 -0.357115 6.17439e-20)
(0.223392 -0.37263 -1.10326e-19)
(0.218937 -0.38761 5.47294e-20)
(0.214549 -0.402081 0)
(0.210226 -0.416077 0)
(0.205966 -0.42963 -1.23184e-20)
(0.20177 -0.442776 7.02729e-21)
(0.143144 -0.137585 4.07794e-17)
(-0.0204214 -0.10524 -4.64698e-17)
(0.0041089 -0.106099 5.53298e-17)
(0.00448173 -0.1014 -1.65905e-17)
(0.00482744 -0.0944782 3.36841e-19)
(0.00610816 -0.0853428 0)
(0.00848706 -0.0729861 2.38695e-19)
(0.0122788 -0.0562017 0)
(0.0181762 -0.0342033 0)
(0.0267951 -0.00617369 3.62141e-19)
(0.0390171 0.0302902 1.66906e-19)
(0.0558995 0.0782159 0)
(0.0777907 0.138332 0)
(0.104052 0.208147 2.36671e-19)
(0.133611 0.283077 -3.25232e-18)
(0.164973 0.358029 2.54361e-18)
(0.196458 0.428455 -2.26726e-18)
(0.226559 0.490942 2.11448e-18)
(0.254233 0.543681 -5.76468e-20)
(0.278561 0.586029 -1.73495e-18)
(0.299307 0.618753 1.3926e-18)
(0.316806 0.643356 1.71066e-19)
(0.331255 0.661262 7.9632e-20)
(0.343031 0.673894 0)
(0.352599 0.682455 0)
(0.360413 0.687885 1.0865e-18)
(0.366856 0.690928 -8.36913e-19)
(0.372243 0.692175 -1.11138e-19)
(0.376832 0.692064 -6.67804e-19)
(0.380822 0.690906 7.70212e-19)
(0.384367 0.688909 0)
(0.387578 0.686206 0)
(0.390532 0.682879 7.78743e-20)
(0.393281 0.678983 1.09359e-18)
(0.395857 0.674552 -2.20069e-18)
(0.398284 0.669609 9.7623e-19)
(0.400576 0.664169 6.1075e-20)
(0.402741 0.658243 -1.16317e-19)
(0.404786 0.651841 1.10449e-19)
(0.406712 0.644965 5.2264e-20)
(0.408522 0.637622 0)
(0.410214 0.629811 4.76184e-20)
(0.411786 0.621534 9.17033e-20)
(0.413237 0.612792 -6.10098e-19)
(0.414562 0.603582 7.36632e-21)
(0.415757 0.593903 7.32087e-19)
(0.416818 0.583753 0)
(0.417739 0.573128 -5.06781e-22)
(0.418515 0.562024 -1.45237e-19)
(0.419139 0.550437 0)
(0.419605 0.538362 6.72202e-20)
(0.419907 0.525792 -5.1771e-19)
(0.420036 0.512721 5.0821e-19)
(0.419987 0.499141 0)
(0.41975 0.485045 1.18531e-19)
(0.419317 0.470423 0)
(0.418681 0.455266 -1.1112e-19)
(0.417832 0.439562 -4.25288e-19)
(0.416761 0.423301 4.19248e-19)
(0.415458 0.406469 1.00954e-19)
(0.413914 0.389054 0)
(0.412117 0.37104 -4.66059e-19)
(0.410057 0.352411 1.00356e-18)
(0.407723 0.333151 -9.42228e-21)
(0.405104 0.31324 -1.81309e-19)
(0.402188 0.292659 -9.19976e-20)
(0.398963 0.271385 -6.38057e-19)
(0.395418 0.249397 1.04406e-20)
(0.39154 0.22667 6.00066e-19)
(0.387318 0.203176 1.75964e-21)
(0.38274 0.17889 0)
(0.377797 0.153781 3.87435e-19)
(0.372478 0.12782 1.04012e-19)
(0.366773 0.10098 -5.00094e-19)
(0.360761 0.073629 0)
(0.354627 0.0465467 0)
(0.348483 0.0201314 -1.02562e-19)
(0.34234 -0.00560604 2.718e-19)
(0.336235 -0.0306501 -7.83889e-19)
(0.330171 -0.0550662 6.51496e-19)
(0.324135 -0.0789393 -3.91894e-19)
(0.318158 -0.102285 -2.3953e-19)
(0.312248 -0.125097 2.73809e-19)
(0.306408 -0.147371 -2.65859e-19)
(0.300641 -0.1691 4.50581e-19)
(0.294951 -0.190277 -2.14815e-19)
(0.289338 -0.2109 1.79948e-19)
(0.2838 -0.230969 -3.40372e-19)
(0.278332 -0.250483 1.48126e-20)
(0.272942 -0.269413 1.40703e-20)
(0.267647 -0.287674 1.39761e-19)
(0.262477 -0.305122 0)
(0.257474 -0.321655 8.048e-20)
(0.25258 -0.33742 -1.46804e-19)
(0.247741 -0.35261 2.73393e-21)
(0.242972 -0.367267 7.07068e-21)
(0.238272 -0.381417 4.5729e-21)
(0.233642 -0.395087 5.40528e-21)
(0.22908 -0.408312 2.1018e-20)
(0.224587 -0.421125 6.67347e-22)
(0.14917 -0.131327 -1.31521e-18)
(-0.0202075 -0.0981274 -1.04351e-16)
(0.00653299 -0.102122 8.87419e-20)
(0.00623423 -0.101937 1.31624e-18)
(0.0058346 -0.0990678 2.59512e-17)
(0.00596554 -0.0948814 1.98864e-17)
(0.00669056 -0.0890185 -3.02487e-19)
(0.00812861 -0.0806419 -1.62524e-17)
(0.0105922 -0.0688997 0)
(0.0143259 -0.0532376 1.34572e-17)
(0.0198263 -0.0332297 -1.22377e-17)
(0.0277447 -0.00839103 0)
(0.0385493 0.0225118 0)
(0.0531279 0.0617947 -2.85814e-19)
(0.0723272 0.111469 2.60881e-19)
(0.0958639 0.170726 2.31818e-19)
(0.123133 0.236825 6.28562e-18)
(0.153093 0.305829 -5.66294e-18)
(0.18438 0.373692 0)
(0.215509 0.436902 1.34469e-19)
(0.245184 0.492813 4.14369e-18)
(0.272547 0.540088 -6.81833e-18)
(0.296738 0.578306 2.91452e-18)
(0.317608 0.608178 1.71799e-19)
(0.335444 0.630899 2.54306e-18)
(0.350402 0.647596 -2.388e-18)
(0.362768 0.659471 -2.362e-18)
(0.372967 0.667525 2.35374e-18)
(0.381393 0.672546 5.73206e-22)
(0.388398 0.675189 -1.82287e-18)
(0.394276 0.67599 1.71591e-18)
(0.399277 0.675367 0)
(0.403604 0.673628 0)
(0.40742 0.670986 -1.39679e-18)
(0.410847 0.667585 1.48306e-18)
(0.413971 0.66352 -1.22812e-18)
(0.416854 0.658851 1.16347e-18)
(0.419537 0.65362 -9.51058e-19)
(0.422048 0.647856 -1.19684e-19)
(0.424406 0.641577 8.61214e-21)
(0.426621 0.634797 1.84792e-18)
(0.428703 0.627526 -1.75549e-18)
(0.430653 0.619772 7.3555e-19)
(0.432475 0.611537 0)
(0.434166 0.602826 0)
(0.435725 0.593638 -9.07648e-20)
(0.437148 0.583973 -6.94039e-19)
(0.438431 0.57383 5.89408e-19)
(0.439569 0.563206 -4.79222e-19)
(0.440555 0.552098 7.78626e-19)
(0.441383 0.540501 7.41542e-19)
(0.442046 0.52841 -7.2273e-19)
(0.442537 0.515819 0)
(0.442846 0.502722 -3.96029e-19)
(0.442967 0.48911 5.21386e-19)
(0.442889 0.474976 0)
(0.442604 0.460309 1.19885e-19)
(0.442102 0.445101 1.1586e-19)
(0.441372 0.42934 -2.26087e-19)
(0.440403 0.413013 -1.08267e-19)
(0.439185 0.396108 2.11415e-19)
(0.437705 0.37861 8.03859e-19)
(0.435952 0.360505 -9.91861e-19)
(0.433912 0.341774 7.50101e-19)
(0.431573 0.322399 -1.10168e-18)
(0.428921 0.302361 7.20001e-19)
(0.425941 0.281638 -8.46507e-19)
(0.42262 0.260207 8.38353e-19)
(0.418944 0.238043 -1.5839e-19)
(0.414898 0.215118 -7.54983e-19)
(0.410467 0.191404 6.03314e-19)
(0.405639 0.166871 0)
(0.400401 0.141489 -1.35562e-19)
(0.394739 0.115225 0)
(0.38873 0.0884415 0)
(0.382559 0.0618991 0)
(0.376344 0.0359912 5.3291e-19)
(0.370098 0.0107343 -4.1742e-19)
(0.363868 -0.0138457 -1.89733e-19)
(0.357654 -0.037803 -1.77612e-19)
(0.351443 -0.0612287 8.17921e-20)
(0.345267 -0.0841414 -7.7974e-20)
(0.339138 -0.106536 -2.7749e-19)
(0.333057 -0.128407 2.7654e-19)
(0.327033 -0.149747 2.3673e-19)
(0.321069 -0.170546 -1.82148e-20)
(0.315169 -0.190795 -6.09848e-19)
(0.309335 -0.210486 3.35924e-20)
(0.303565 -0.229615 3.52347e-19)
(0.297858 -0.248176 -3.79955e-20)
(0.292214 -0.266141 1.72164e-20)
(0.286647 -0.283439 -2.14411e-19)
(0.281179 -0.299939 2.06435e-19)
(0.275861 -0.315539 -1.03813e-20)
(0.270645 -0.330403 8.35655e-21)
(0.265481 -0.344729 9.43642e-20)
(0.260399 -0.358554 -1.73891e-19)
(0.255397 -0.371902 8.21205e-20)
(0.250471 -0.3848 3.78699e-20)
(0.245622 -0.397283 -5.68114e-20)
(0.240849 -0.40939 2.02951e-20)
(0.236152 -0.421167 -1.49964e-21)
(0.231536 -0.43266 -2.95224e-20)
(0.227004 -0.44392 2.8732e-20)
(0.153075 -0.125571 8.89489e-17)
(-0.0195514 -0.0925139 0)
(0.00844679 -0.0969974 8.01327e-17)
(0.00797032 -0.0984941 6.95435e-19)
(0.00722638 -0.0978332 -6.24815e-17)
(0.00682653 -0.0962277 4.6196e-17)
(0.00667871 -0.093762 -1.85381e-17)
(0.00689797 -0.0901119 0)
(0.00762328 -0.0846938 1.72068e-17)
(0.00907002 -0.0768825 -3.15549e-17)
(0.0114709 -0.066125 1.41168e-17)
(0.0150744 -0.0519363 -4.15246e-19)
(0.0201977 -0.0339975 1.20275e-17)
(0.0273676 -0.0121 -2.14091e-17)
(0.0370357 0.0145708 9.26844e-18)
(0.0497957 0.0475265 -5.45754e-19)
(0.0664803 0.0885879 8.00961e-18)
(0.0874264 0.138308 -6.83041e-18)
(0.112277 0.195493 0)
(0.140406 0.257513 5.69879e-18)
(0.170766 0.321015 -5.64821e-18)
(0.202103 0.382741 -2.75933e-19)
(0.233092 0.43992 0)
(0.262603 0.490434 -4.32577e-19)
(0.28988 0.533258 0)
(0.314144 0.56811 2.60123e-18)
(0.335276 0.595645 1.47132e-19)
(0.353558 0.616798 -2.70102e-18)
(0.369078 0.632466 -1.40122e-19)
(0.382082 0.643697 0)
(0.39294 0.651306 0)
(0.402001 0.65595 0)
(0.409588 0.658206 -1.5308e-18)
(0.415982 0.658567 1.65715e-18)
(0.421426 0.657433 -1.935e-19)
(0.426129 0.655109 1.45336e-18)
(0.430257 0.651815 -1.2049e-18)
(0.433943 0.647705 1.28507e-18)
(0.437282 0.642885 -1.22e-18)
(0.440344 0.637428 0)
(0.443175 0.631382 1.34755e-18)
(0.445809 0.624781 -1.02724e-18)
(0.448268 0.61765 7.20772e-19)
(0.450564 0.610005 -6.93108e-19)
(0.452707 0.601857 2.19139e-19)
(0.4547 0.593214 -2.08682e-19)
(0.456545 0.584082 0)
(0.45824 0.574462 -1.37784e-21)
(0.459782 0.564356 0)
(0.461167 0.553761 1.20693e-18)
(0.462389 0.542675 -1.5073e-18)
(0.463442 0.531095 1.5928e-19)
(0.464319 0.519015 -1.22028e-18)
(0.46501 0.50643 1.04479e-18)
(0.465509 0.493334 -1.41734e-19)
(0.465805 0.479718 0)
(0.465888 0.465574 0)
(0.465749 0.450893 -1.00995e-18)
(0.465376 0.435664 2.644e-19)
(0.464756 0.419876 9.59176e-19)
(0.463879 0.403516 6.78105e-19)
(0.46273 0.386571 -8.94655e-19)
(0.461297 0.369026 0)
(0.459564 0.350864 0)
(0.457516 0.332067 -1.97691e-19)
(0.455139 0.312617 0)
(0.452415 0.292491 -1.8843e-19)
(0.449327 0.271666 5.24281e-19)
(0.44586 0.250116 -6.99475e-19)
(0.441994 0.227815 3.33202e-19)
(0.437712 0.204733 3.20627e-19)
(0.432997 0.180838 3.08224e-19)
(0.427833 0.156098 0)
(0.422202 0.13048 2.63885e-19)
(0.416178 0.104331 -2.78247e-19)
(0.409947 0.0783939 4.88524e-19)
(0.403632 0.053054 -2.47004e-19)
(0.397253 0.0283321 8.52802e-19)
(0.39086 0.00426632 -5.28942e-20)
(0.384457 -0.0191761 1.41558e-19)
(0.378028 -0.0420935 -7.41075e-19)
(0.371606 -0.0645135 5.63674e-19)
(0.365207 -0.0864306 -4.91319e-19)
(0.358834 -0.107838 0)
(0.352493 -0.128728 6.83078e-20)
(0.346193 -0.149092 4.76976e-19)
(0.339939 -0.168918 -9.55604e-20)
(0.333734 -0.188195 -3.6533e-20)
(0.327582 -0.206911 -3.88922e-19)
(0.321483 -0.225056 -1.20192e-21)
(0.315438 -0.242617 2.03741e-19)
(0.309447 -0.25957 -2.70009e-19)
(0.303519 -0.275848 2.04162e-19)
(0.297682 -0.291341 -2.0852e-19)
(0.291977 -0.306002 1.40055e-19)
(0.286371 -0.320026 -1.29575e-19)
(0.280834 -0.333546 0)
(0.275395 -0.346584 0)
(0.270045 -0.359164 4.84347e-20)
(0.264778 -0.37132 -4.19101e-20)
(0.259592 -0.383095 8.17692e-22)
(0.254489 -0.394535 -2.48732e-22)
(0.249474 -0.405696 -2.76156e-20)
(0.244551 -0.416633 2.68249e-20)
(0.156062 -0.120117 -4.06337e-18)
(-0.0187684 -0.0877827 2.49119e-16)
(0.010023 -0.0918734 -1.79839e-16)
(0.00962317 -0.094225 5.41981e-17)
(0.00884087 -0.0945369 0)
(0.00827663 -0.0941023 0)
(0.00783233 -0.093177 -1.26503e-18)
(0.00752256 -0.0917084 -1.77254e-17)
(0.0074102 -0.0894724 3.2811e-17)
(0.00765267 -0.0860929 -1.62221e-17)
(0.00839369 -0.0811028 0)
(0.00980907 -0.0740198 3.38964e-23)
(0.0121233 -0.0643528 -4.39595e-19)
(0.0155464 -0.0516555 0)
(0.020322 -0.0356166 7.32938e-19)
(0.0268155 -0.0160928 6.56975e-19)
(0.0355735 0.00730444 -5.81337e-19)
(0.0468663 0.0353678 -5.23807e-19)
(0.0613908 0.0695353 0)
(0.0799066 0.111134 0)
(0.102296 0.159883 4.01168e-19)
(0.128223 0.214396 -6.63024e-22)
(0.157042 0.272303 3.18297e-19)
(0.187734 0.330789 -7.66943e-22)
(0.219136 0.387191 0)
(0.250049 0.439253 -2.23443e-19)
(0.279462 0.485214 -5.97014e-19)
(0.30673 0.524273 -1.79693e-19)
(0.331079 0.556241 0)
(0.352484 0.581733 0)
(0.371228 0.601476 -2.83606e-19)
(0.387299 0.616215 2.67064e-19)
(0.400933 0.626804 1.50107e-18)
(0.412453 0.633912 -2.5072e-19)
(0.422168 0.638108 -2.37171e-19)
(0.43037 0.639908 -1.90854e-18)
(0.437323 0.639773 -1.58788e-18)
(0.443265 0.638084 1.88831e-18)
(0.448404 0.635143 -1.41398e-18)
(0.45291 0.631176 1.34549e-18)
(0.45692 0.626345 -3.1519e-19)
(0.460535 0.620767 0)
(0.463831 0.614521 2.52888e-18)
(0.466858 0.607664 -2.14605e-18)
(0.469655 0.600235 -2.5224e-19)
(0.472244 0.59226 2.39272e-19)
(0.474641 0.58376 2.28946e-19)
(0.476855 0.574746 -1.2916e-18)
(0.478891 0.565225 1.66406e-18)
(0.480749 0.555203 0)
(0.482428 0.544681 -3.78367e-19)
(0.483924 0.533659 0)
(0.485232 0.522134 0)
(0.486346 0.510102 -3.32344e-19)
(0.487258 0.497559 0)
(0.487958 0.484498 -3.0636e-19)
(0.488438 0.470912 2.94497e-19)
(0.488687 0.456793 -1.11694e-18)
(0.488693 0.442131 1.36836e-18)
(0.488445 0.426917 1.03382e-18)
(0.487928 0.411138 -1.27003e-18)
(0.48713 0.394782 4.87381e-19)
(0.486034 0.377836 4.52939e-19)
(0.484625 0.360282 -9.11636e-19)
(0.482885 0.342105 8.55508e-19)
(0.480798 0.323286 -8.47772e-19)
(0.478343 0.303803 4.0005e-19)
(0.475501 0.283634 7.62538e-19)
(0.472252 0.262752 -7.59225e-19)
(0.468574 0.241132 -3.56494e-19)
(0.464445 0.218741 -6.90204e-19)
(0.459843 0.195549 3.19455e-19)
(0.454747 0.17152 9.11837e-19)
(0.449135 0.146618 -3.31159e-19)
(0.443078 0.121177 8.3592e-19)
(0.436761 0.0959159 -1.11816e-18)
(0.430315 0.0712085 4.57047e-21)
(0.423767 0.0470788 -6.8786e-19)
(0.417169 0.0235784 1.13498e-18)
(0.410532 0.000708989 0)
(0.403843 -0.0216362 0)
(0.397124 -0.0434992 1.82037e-19)
(0.390398 -0.0648747 -8.34671e-19)
(0.383672 -0.0857546 6.63813e-19)
(0.376953 -0.106131 4.98172e-19)
(0.370248 -0.125994 -4.30145e-19)
(0.363565 -0.145334 4.15327e-19)
(0.35691 -0.164138 -4.17883e-19)
(0.35029 -0.182394 -5.21579e-20)
(0.34371 -0.20009 4.52768e-20)
(0.337176 -0.217211 4.00054e-20)
(0.330696 -0.233744 0)
(0.324272 -0.249664 0)
(0.317903 -0.264908 2.52218e-20)
(0.311661 -0.279393 2.18474e-20)
(0.305544 -0.293194 1.28002e-19)
(0.299507 -0.306448 -2.41613e-20)
(0.293571 -0.319197 -1.11008e-19)
(0.287731 -0.331465 5.319e-20)
(0.281976 -0.343291 -5.44705e-20)
(0.276304 -0.354723 -1.08913e-20)
(0.270718 -0.365817 1.05562e-20)
(0.265226 -0.376635 -2.43024e-20)
(0.259837 -0.387245 -1.64268e-20)
(0.158519 -0.114928 -9.00067e-17)
(-0.0180075 -0.0837246 1.31499e-16)
(0.0113757 -0.0871795 -1.95948e-16)
(0.0111332 -0.0899862 6.1789e-17)
(0.0104207 -0.0908066 1.23361e-18)
(0.00987154 -0.0909376 -2.7636e-17)
(0.00936974 -0.090706 4.346e-17)
(0.00890624 -0.0901696 -1.8001e-17)
(0.00852121 -0.0892853 1.67004e-17)
(0.0082668 -0.0879222 -1.54639e-17)
(0.00820228 -0.0858462 0)
(0.00848017 -0.0827438 4.7255e-19)
(0.0092244 -0.0782385 -1.53656e-17)
(0.0105904 -0.0718997 1.44427e-17)
(0.0128043 -0.0632818 -8.48965e-19)
(0.0160564 -0.051966 -1.25414e-17)
(0.0205561 -0.0376312 1.22095e-17)
(0.026566 -0.0201397 1.10353e-17)
(0.03449 0.000516502 -2.42145e-20)
(0.0447076 0.0249625 -8.26467e-18)
(0.0575891 0.054104 -4.673e-19)
(0.0737937 0.0890231 4.30101e-19)
(0.0937775 0.130319 -1.18514e-18)
(0.117347 0.177481 -3.58499e-19)
(0.144131 0.229115 -5.76249e-18)
(0.173452 0.283116 5.15849e-18)
(0.204342 0.337085 -1.54612e-21)
(0.235724 0.388792 4.54621e-19)
(0.266493 0.436351 -4.08904e-19)
(0.295783 0.47824 3.68244e-19)
(0.322939 0.51385 2.98509e-18)
(0.347367 0.543182 -2.75241e-18)
(0.369086 0.566727 2.84197e-19)
(0.388267 0.585028 -1.41406e-21)
(0.404902 0.59876 2.52792e-19)
(0.419194 0.608595 2.39103e-19)
(0.431418 0.615084 -3.84412e-18)
(0.441846 0.618728 2.94011e-20)
(0.450733 0.619996 3.67651e-18)
(0.458325 0.619314 0)
(0.464849 0.617046 0)
(0.470507 0.613487 0)
(0.475471 0.60886 -2.92821e-18)
(0.479876 0.603333 2.48821e-18)
(0.483828 0.597027 0)
(0.487405 0.590027 0)
(0.490663 0.582395 -2.35685e-18)
(0.493642 0.574173 1.76221e-18)
(0.496368 0.565389 1.88849e-18)
(0.498859 0.556062 -1.81899e-18)
(0.501126 0.546205 4.28607e-19)
(0.503174 0.535826 0)
(0.505005 0.524929 0)
(0.506617 0.513514 7.48393e-19)
(0.508006 0.501581 1.42004e-18)
(0.509167 0.489127 -1.04089e-18)
(0.510091 0.476146 -3.26778e-19)
(0.510771 0.462633 0)
(0.511194 0.448581 -1.4977e-18)
(0.51135 0.433981 2.37008e-20)
(0.511225 0.418823 1.4047e-18)
(0.510804 0.403096 -1.07231e-18)
(0.510072 0.386787 5.12601e-19)
(0.509011 0.369883 0)
(0.507602 0.352368 0)
(0.505825 0.334224 4.42702e-19)
(0.503659 0.315431 -2.67647e-20)
(0.501079 0.295968 -2.74165e-20)
(0.498063 0.275808 -4.19102e-19)
(0.494584 0.254926 0)
(0.490615 0.23329 7.53076e-19)
(0.48613 0.210867 7.28137e-19)
(0.481101 0.187621 -1.04156e-18)
(0.4755 0.163513 -6.54971e-19)
(0.469392 0.13886 0)
(0.462964 0.114353 -1.75196e-18)
(0.456352 0.0903526 1.43274e-18)
(0.449593 0.0668804 5.02947e-21)
(0.442734 0.0439965 -2.45788e-19)
(0.435813 0.0217516 2.2973e-19)
(0.428821 4.11668e-05 2.16431e-19)
(0.421751 -0.0211958 0)
(0.414637 -0.041959 0)
(0.407489 -0.0622404 0)
(0.400316 -0.0820316 -6.29402e-19)
(0.393128 -0.101323 -1.02156e-19)
(0.385934 -0.120106 1.24281e-18)
(0.378743 -0.138371 -5.87438e-19)
(0.371567 -0.156108 -3.78059e-19)
(0.364418 -0.173308 4.26651e-19)
(0.357312 -0.189963 0)
(0.350266 -0.20606 2.96861e-19)
(0.34329 -0.221584 -2.87531e-19)
(0.336373 -0.236505 0)
(0.329583 -0.250757 -4.77813e-20)
(0.322918 -0.264351 -1.44111e-19)
(0.316327 -0.277355 1.41164e-19)
(0.309827 -0.289808 -8.87789e-20)
(0.303415 -0.301745 8.59825e-20)
(0.29708 -0.313216 0)
(0.290825 -0.324281 -2.03577e-20)
(0.284658 -0.335008 1.61414e-20)
(0.278594 -0.345473 2.06048e-20)
(0.272647 -0.355754 -5.86408e-20)
(0.266837 -0.365926 4.0272e-20)
(0.160612 -0.109998 2.86835e-18)
(-0.0173107 -0.0802641 0)
(0.0125959 -0.0830804 -9.93552e-17)
(0.0125441 -0.0861845 6.67333e-17)
(0.0119501 -0.0872982 -1.07329e-22)
(0.0114871 -0.0877241 -9.31631e-19)
(0.0110367 -0.0878291 0)
(0.0105821 -0.0877121 -1.79602e-17)
(0.0101457 -0.087389 1.66348e-17)
(0.00975142 -0.0868348 0)
(0.00943167 -0.0859812 8.82303e-19)
(0.00923483 -0.0846951 0)
(0.00921458 -0.0827758 8.65688e-23)
(0.00952134 -0.0799699 -1.41064e-17)
(0.0102537 -0.0759506 2.8139e-17)
(0.0115668 -0.0703341 -1.37825e-17)
(0.0136795 -0.0627151 1.30953e-17)
(0.0167642 -0.052694 -2.59812e-17)
(0.0210115 -0.0399501 1.12683e-17)
(0.0266285 -0.0242815 6.41522e-19)
(0.0338829 -0.00567556 -5.74341e-19)
(0.0431798 0.0160519 -7.14523e-18)
(0.0547806 0.0414697 8.26873e-18)
(0.069113 0.0713738 8.35479e-19)
(0.0867801 0.106533 7.70435e-19)
(0.107971 0.147063 -7.06837e-19)
(0.132476 0.192381 6.39983e-19)
(0.159887 0.241137 0)
(0.18952 0.291444 -1.48818e-21)
(0.220464 0.341207 1.5458e-21)
(0.251701 0.388509 -4.18058e-19)
(0.282247 0.431741 0)
(0.311368 0.469723 0)
(0.338371 0.502018 5.26784e-18)
(0.362875 0.528755 -4.04517e-18)
(0.384948 0.550288 0)
(0.404611 0.567035 -4.07017e-18)
(0.421869 0.579651 6.76899e-18)
(0.436888 0.588633 -4.13885e-18)
(0.449892 0.594422 0)
(0.461109 0.597458 -3.7025e-18)
(0.470765 0.59817 3.14899e-18)
(0.479082 0.596952 7.43952e-19)
(0.486272 0.594142 -3.16229e-18)
(0.492527 0.590018 2.3577e-18)
(0.498012 0.584796 0)
(0.502863 0.57864 2.40155e-18)
(0.507185 0.571673 -2.88166e-18)
(0.51106 0.563983 2.16514e-18)
(0.51455 0.555631 -1.56357e-18)
(0.517697 0.546661 -2.45055e-18)
(0.520533 0.537105 1.887e-18)
(0.523079 0.526982 -4.48329e-19)
(0.525347 0.516307 1.26566e-18)
(0.527346 0.505086 -2.55094e-20)
(0.529077 0.493326 -1.56383e-18)
(0.53054 0.481026 0)
(0.53173 0.468186 -2.11806e-18)
(0.532639 0.454803 2.03281e-18)
(0.533259 0.440871 -1.31363e-18)
(0.533577 0.426385 0)
(0.53358 0.411334 5.94506e-19)
(0.533252 0.39571 1.71072e-18)
(0.532577 0.379501 5.26481e-19)
(0.531533 0.362694 -2.79952e-20)
(0.530098 0.345273 -5.24994e-19)
(0.528247 0.32722 1.92031e-18)
(0.525956 0.308514 -1.90153e-18)
(0.523195 0.289132 -8.98548e-19)
(0.519934 0.269048 1.69258e-18)
(0.516142 0.248231 -1.26252e-18)
(0.511784 0.226648 -1.58462e-18)
(0.506826 0.204262 2.23437e-18)
(0.501234 0.18103 -7.51498e-19)
(0.495064 0.157253 0)
(0.488502 0.133591 -6.20197e-19)
(0.481688 0.110385 6.50064e-19)
(0.474671 0.0876514 -1.98041e-18)
(0.467486 0.0654369 1.36719e-18)
(0.460218 0.0438345 -4.9846e-19)
(0.452859 0.0228233 -1.1395e-18)
(0.445372 0.00229421 5.70889e-20)
(0.437797 -0.017776 5.56457e-20)
(0.430151 -0.0373815 8.00504e-19)
(0.422443 -0.056511 8.7432e-19)
(0.414683 -0.0751546 -5.07476e-20)
(0.406887 -0.0933056 -4.79061e-19)
(0.39907 -0.110961 1.40796e-19)
(0.391256 -0.128122 -4.78573e-19)
(0.383468 -0.14479 5.83394e-19)
(0.375733 -0.160963 0)
(0.368077 -0.176632 3.27188e-19)
(0.36051 -0.191775 -5.58724e-19)
(0.353019 -0.206363 2.6979e-19)
(0.345665 -0.220336 2.22655e-19)
(0.338388 -0.23365 -1.91852e-19)
(0.331143 -0.24634 1.86244e-20)
(0.323973 -0.258434 -8.70316e-20)
(0.316868 -0.269985 8.72127e-20)
(0.309829 -0.281056 7.82055e-21)
(0.302869 -0.291722 3.95169e-21)
(0.296007 -0.302066 0)
(0.289265 -0.312176 6.91395e-22)
(0.282666 -0.322143 -1.83559e-21)
(0.276238 -0.332054 -2.85479e-21)
(0.270006 -0.341987 1.25291e-19)
(0.263992 -0.352012 -1.31446e-19)
(0.162407 -0.105323 -9.35092e-17)
(-0.0166684 -0.0773826 0)
(0.0137508 -0.0796415 1.11311e-16)
(0.0138999 -0.0829748 -7.10101e-17)
(0.0134477 -0.0842751 -1.43269e-18)
(0.0131021 -0.0848604 1.99093e-18)
(0.0127484 -0.0851314 2.40105e-17)
(0.0123691 -0.0852098 -1.9986e-17)
(0.0119823 -0.0851347 -1.02763e-18)
(0.0116009 -0.0849133 -1.54748e-17)
(0.0112377 -0.0845322 1.34431e-17)
(0.0109121 -0.083956 8.02231e-19)
(0.0106533 -0.0831161 6.95443e-23)
(0.0105062 -0.0818921 8.01051e-19)
(0.0105243 -0.0801172 8.14489e-19)
(0.0108332 -0.077582 1.31883e-17)
(0.0115247 -0.0740036 -2.94731e-20)
(0.012764 -0.0690439 -1.23237e-17)
(0.0147243 -0.0623197 0)
(0.0175996 -0.0534517 -7.4424e-19)
(0.0215694 -0.0421041 -9.65411e-18)
(0.0268168 -0.0280362 8.88328e-18)
(0.0335446 -0.0111659 9.15591e-18)
(0.042029 0.00846963 -8.19296e-18)
(0.0526307 0.0311606 0)
(0.0655382 0.0574001 8.17843e-19)
(0.0811771 0.0877697 0)
(0.100092 0.122759 6.92127e-19)
(0.122294 0.162196 1.26732e-18)
(0.147543 0.205449 -5.75653e-19)
(0.175402 0.251216 5.20622e-19)
(0.205187 0.297777 -9.4222e-19)
(0.236046 0.34333 8.50219e-19)
(0.267037 0.386258 -6.88762e-18)
(0.297296 0.425182 5.5881e-18)
(0.326222 0.45927 0)
(0.353071 0.48827 4.64352e-18)
(0.377679 0.512384 -3.28493e-18)
(0.40016 0.531845 0)
(0.420347 0.547069 0)
(0.43828 0.558525 4.6032e-19)
(0.454093 0.566601 0)
(0.467951 0.571675 -4.15669e-19)
(0.480028 0.574129 0)
(0.490516 0.574343 -2.62806e-18)
(0.499613 0.572666 2.88735e-18)
(0.507513 0.569403 -6.85794e-19)
(0.514397 0.564806 6.47487e-19)
(0.520424 0.559077 0)
(0.525726 0.552373 -5.85942e-19)
(0.530412 0.544815 5.57522e-19)
(0.534567 0.536492 5.35215e-19)
(0.538256 0.527468 -4.48967e-21)
(0.54153 0.517791 0)
(0.544423 0.507494 1.36592e-18)
(0.546959 0.496599 -2.84709e-20)
(0.549154 0.485123 -1.69192e-18)
(0.551016 0.473077 7.97049e-19)
(0.552548 0.460466 -7.54994e-19)
(0.553748 0.447292 7.42259e-19)
(0.554609 0.433555 -1.38573e-18)
(0.555121 0.419252 2.00656e-18)
(0.555273 0.404374 -1.93652e-18)
(0.555051 0.388918 -1.82564e-18)
(0.554431 0.372876 1.19368e-18)
(0.55339 0.356235 -5.68523e-19)
(0.551902 0.338977 -2.13329e-18)
(0.54994 0.321086 1.06265e-18)
(0.547473 0.302541 -4.59941e-19)
(0.544464 0.283319 2.89984e-18)
(0.540875 0.263391 1.4362e-20)
(0.536667 0.242723 -1.42673e-20)
(0.531796 0.221277 -1.63195e-18)
(0.52622 0.19901 1.58832e-18)
(0.519985 0.176206 -2.30804e-18)
(0.513274 0.153491 -1.39004e-18)
(0.506231 0.131187 2.06079e-18)
(0.498909 0.109297 -1.24287e-18)
(0.491349 0.0878501 2.97049e-18)
(0.48362 0.0669262 -8.61374e-19)
(0.475766 0.0466254 9.96604e-19)
(0.467782 0.0268753 -9.96087e-19)
(0.459669 0.00757647 -1.10507e-18)
(0.451445 -0.011275 6.61096e-19)
(0.443117 -0.029663 5.6404e-19)
(0.434702 -0.0475796 -9.38045e-19)
(0.426226 -0.0650276 -1.64296e-19)
(0.417719 -0.0820193 2.7778e-19)
(0.409222 -0.0985716 -1.23322e-18)
(0.400769 -0.114694 5.15826e-19)
(0.392389 -0.130389 1.10052e-19)
(0.384099 -0.145652 0)
(0.375884 -0.160434 -4.00512e-20)
(0.367764 -0.17464 2.61161e-19)
(0.359703 -0.188216 -2.84431e-19)
(0.351632 -0.201118 -1.57424e-19)
(0.343588 -0.213368 3.28194e-19)
(0.335587 -0.225014 -1.44537e-19)
(0.327637 -0.236119 9.70129e-20)
(0.319756 -0.246755 -9.09285e-20)
(0.311968 -0.257009 -6.18924e-20)
(0.304301 -0.266978 4.25434e-20)
(0.296788 -0.276763 -1.44288e-20)
(0.289463 -0.286466 2.72032e-20)
(0.282359 -0.296181 0)
(0.275507 -0.305992 3.6561e-21)
(0.268935 -0.31597 0)
(0.262664 -0.32617 -5.1862e-21)
(0.163939 -0.1009 9.51065e-17)
(-0.0160527 -0.0750722 -2.98845e-16)
(0.0148951 -0.0768849 -3.36833e-18)
(0.0152424 -0.0804206 7.46451e-17)
(0.0149447 -0.081854 0)
(0.0147312 -0.0825295 -1.05389e-18)
(0.0144955 -0.0828797 -2.53485e-17)
(0.0142223 -0.0830436 3.24352e-20)
(0.0139291 -0.0830724 1.59749e-17)
(0.0136255 -0.0829864 9.26616e-19)