/*--------------------------------*- C++ -*----------------------------------*\
  =========                 |
  \\      /  F ield         | OpenFOAM: The Open Source CFD Toolbox
   \\    /   O peration     | Website:  https://openfoam.org
    \\  /    A nd           | Version:  10
     \\/     M anipulation  |
\*---------------------------------------------------------------------------*/
FoamFile
{
    format      ascii;
    class       volScalarField;
    location    "74000";
    object      yPlus;
}
// * * * * * * * * * * * * * * * * * * * * * * * * * * * * * * * * * * * * * //

dimensions      [0 0 0 0 0 0 0];

internalField   uniform 0;

boundaryField
{
    right
    {
        type            cyclic;
    }
    left
    {
        type            cyclic;
    }
    outerWall
    {
        type            calculated;
        value           nonuniform List<scalar> 0();
    }
    stirrerWall
    {
        type            calculated;
        value           nonuniform List<scalar> 
398
(
0.588979
0.390428
0.246188
0.174937
0.142711
0.127064
0.118755
0.114043
0.11155
0.110772
0.111535
0.11375
0.117323
0.122157
0.128175
0.135331
0.143609
0.152892
0.163066
0.173905
0.185404
0.197482
0.209976
0.222677
0.235458
0.248115
0.260424
0.272202
0.283196
0.293026
0.301396
0.308556
0.314269
0.31838
0.321
0.322308
0.322481
0.321518
0.319861
0.317914
0.315138
0.309648
0.301093
0.291053
0.280767
0.269554
0.258263
0.247109
0.235942
0.225031
0.214318
0.203965
0.194028
0.184493
0.175313
0.166422
0.157681
0.149186
0.141045
0.133297
0.125939
0.118942
0.112277
0.105884
0.0998128
0.0938742
0.0881009
0.0825078
0.0769713
0.0716646
0.0665394
0.0617862
0.0576924
0.0543956
0.0517183
0.0490624
0.0452768
0.0388287
0.0282228
0.00814758
0.00814758
0.0217228
0.00935171
0.0133004
0.0169333
0.0221263
0.0273348
0.0319205
0.0352972
0.0376142
0.0390032
0.039587
0.0395062
0.0388951
0.0378689
0.0365222
0.0349337
0.033117
0.0312856
0.0294029
0.0276223
0.0260013
0.0244867
0.0230643
0.0217325
0.0204993
0.0194011
0.0184854
0.0178135
0.0174715
0.0175796
0.0184232
0.0203103
0.023258
0.0271589
0.0317381
0.036669
0.041682
0.0466862
0.0516384
0.0566195
0.0615912
0.0666283
0.0717221
0.0771537
0.082767
0.0885801
0.0950917
0.103646
0.114956
0.128645
0.145792
0.166189
0.189671
0.217289
0.250017
0.287516
0.329631
0.376312
0.427523
0.48326
0.54383
0.609979
0.682809
0.763554
0.853489
0.954573
1.07015
1.2047
1.36387
1.55307
1.77662
2.03657
2.33141
2.65475
2.98759
3.30774
3.60582
3.87649
4.1245
4.34188
4.53059
4.69392
4.83481
4.95696
5.06422
5.15987
5.24844
5.33418
5.42003
5.50741
5.59659
5.68808
5.78048
5.86793
5.94104
6.00414
6.06016
6.10529
6.13988
6.15606
6.16431
6.16584
6.1603
6.14724
6.12638
6.0982
6.0626
6.01805
5.96406
5.90047
5.82709
5.74364
5.64981
5.54525
5.42966
5.30265
5.16633
5.02654
4.87981
4.72452
4.56005
4.3866
4.20468
4.01505
3.81887
3.61781
3.41385
0.0334008
0.0396844
0.0258588
0.0287258
0.0565928
0.123395
0.221809
0.316418
0.390144
0.43842
0.463503
0.468676
0.45706
0.428864
0.387903
0.345323
0.313536
0.282713
0.250804
0.218644
0.187871
0.159667
0.134586
0.112706
0.0937579
0.0776709
0.0649248
0.0553416
0.0485223
0.0497337
0.0811236
0.186968
0.358597
0.477613
0.529547
0.53739
0.516357
0.501427
0.518773
0.566061
0.628319
0.689935
0.745909
0.796544
0.840189
0.896848
1.00503
1.22036
1.67156
3.1204
5.74735
8.77276
10.7714
9.25385
9.43157
9.8173
10.5758
12.4479
11.9134
12.1461
10.9242
11.4762
12.7493
12.7175
11.0991
11.4686
11.9023
11.4402
11.7279
11.7356
12.032
12.33
12.6293
12.9305
13.2317
13.5252
13.8064
14.0768
14.3372
14.5887
14.8322
15.0687
15.2988
15.5234
15.7434
15.9598
16.1738
16.3875
16.6
16.8113
17.0219
17.2321
17.4424
17.653
17.8643
18.0765
18.29
18.5051
18.7223
18.9421
19.1645
19.3896
19.6177
19.8491
20.0842
20.3233
20.5668
20.8152
21.0687
21.3278
0.0334008
0.0998421
0.15553
0.216979
0.222709
0.211435
0.198895
0.187171
0.221675
0.272717
0.339235
0.42208
0.522066
0.639309
0.77225
0.918503
1.07587
1.24186
1.41353
1.58832
1.76424
1.94011
2.11517
2.28977
2.46591
2.64907
2.8307
3.00323
3.16823
3.32821
3.4812
3.62878
3.77213
3.91273
4.05751
4.20897
4.35906
4.51585
4.69146
4.83734
4.96912
5.12557
5.31084
5.53539
5.80392
6.14252
6.58697
7.18935
8.03239
9.01771
10.0954
11.3296
10.24
10.9843
11.7131
10.4966
10.3556
10.4777
10.6008
11.9938
10.7197
11.6899
11.7226
10.5058
10.2029
10.0896
10.0009
12.4128
12.2128
10.3846
10.1802
9.62673
11.4226
11.662
11.5788
7.3951
2.83316
1.08308
0.82438
0.745972
)
;
    }
    top
    {
        type            empty;
    }
    bottom
    {
        type            empty;
    }
    procBoundary1to0
    {
        type            processor;
        value           uniform 0;
    }
}


// ************************************************************************* //
