/*--------------------------------*- C++ -*----------------------------------*\
  =========                 |
  \\      /  F ield         | OpenFOAM: The Open Source CFD Toolbox
   \\    /   O peration     | Website:  https://openfoam.org
    \\  /    A nd           | Version:  10
     \\/     M anipulation  |
\*---------------------------------------------------------------------------*/
FoamFile
{
    format      ascii;
    class       volScalarField;
    location    "35000";
    object      Co;
}
// * * * * * * * * * * * * * * * * * * * * * * * * * * * * * * * * * * * * * //

dimensions      [0 0 0 0 0 0 0];

internalField   nonuniform List<scalar> 
17981
(
193.688
195.697
197.652
199.557
201.418
203.242
205.035
206.803
208.551
210.284
212.005
213.719
215.43
217.14
218.853
220.571
222.297
224.033
225.783
227.547
229.328
231.129
232.95
234.794
236.663
238.558
240.482
242.436
244.421
246.44
248.495
250.586
252.716
254.887
257.1
259.357
261.66
264.011
266.412
268.864
271.369
273.93
276.548
279.226
281.966
284.769
287.638
290.575
201.841
203.754
205.61
207.42
209.19
210.928
212.64
214.333
216.012
217.682
219.347
221.012
222.679
224.353
226.035
227.73
229.438
231.163
232.907
234.671
236.457
238.268
240.105
241.97
243.864
245.79
247.749
249.741
251.771
253.838
255.944
258.091
260.281
262.516
264.797
267.126
269.504
271.934
274.418
276.957
279.553
282.208
284.925
287.704
290.55
293.462
296.445
299.5
209.132
210.909
212.633
214.313
215.959
217.578
219.178
220.765
222.345
223.923
225.503
227.09
228.686
230.296
231.921
233.565
235.229
236.916
238.627
240.365
242.13
243.925
245.751
247.61
249.503
251.432
253.397
255.401
257.445
259.531
261.66
263.833
266.052
268.319
270.635
273.002
275.422
277.897
280.427
283.016
285.665
288.375
291.15
293.99
296.899
299.878
302.929
306.055
221.713
223.184
224.642
226.094
227.547
229.005
230.473
231.955
233.455
234.975
236.518
238.086
239.681
241.306
242.961
244.648
246.368
248.124
249.915
251.743
253.61
255.517
257.465
259.454
261.487
263.565
265.689
267.86
270.08
272.35
274.671
277.046
279.476
281.962
284.506
287.11
289.776
292.505
295.299
298.161
301.093
304.096
307.173
310.326
226.396
227.687
228.971
230.257
231.552
232.86
234.186
235.535
236.909
238.312
239.747
241.214
242.715
244.253
245.828
247.44
249.093
250.785
252.518
254.293
256.111
257.973
259.879
261.831
263.829
265.874
267.968
270.111
272.306
274.552
276.851
279.206
281.616
284.084
286.61
289.198
291.848
294.562
297.341
300.189
303.106
306.095
309.158
312.297
229.977
231.051
232.126
233.211
234.314
235.439
236.593
237.78
239.002
240.262
241.563
242.905
244.29
245.718
247.191
248.71
250.273
251.883
253.538
255.241
256.99
258.787
260.632
262.525
264.468
266.461
268.504
270.598
272.745
274.944
277.198
279.507
281.873
284.297
286.779
289.323
291.928
294.597
297.331
300.131
303.001
305.942
308.955
312.042
233.181
234.005
234.849
235.723
236.632
237.582
238.577
239.62
240.712
241.856
243.052
244.3
245.601
246.955
248.361
249.82
251.33
252.893
254.507
256.173
257.89
259.658
261.478
263.349
265.273
267.248
269.277
271.358
273.493
275.683
277.928
280.229
282.587
285.004
287.48
290.017
292.616
295.278
298.006
300.8
303.663
306.596
309.601
235.013
235.625
236.289
237.01
237.791
238.635
239.543
240.515
241.551
242.65
243.813
245.037
246.321
247.666
249.069
250.529
252.047
253.62
255.248
256.931
258.667
260.458
262.302
264.199
266.15
268.154
270.212
272.324
274.491
276.712
278.99
281.325
283.717
286.167
288.677
291.248
293.882
296.579
299.341
302.169
305.066
233.812
234.216
234.696
235.255
235.893
236.611
237.406
238.279
239.227
240.248
241.34
242.501
243.729
245.022
246.379
247.797
249.275
250.812
252.406
254.056
255.762
257.522
259.337
261.205
263.126
265.101
267.128
269.208
271.342
273.53
275.772
278.068
280.421
282.829
285.295
287.819
290.403
293.047
295.753
298.523
230.492
230.836
231.276
231.812
232.44
233.159
233.963
234.851
235.82
236.865
237.984
239.175
240.433
241.758
243.147
244.597
246.106
247.673
249.297
250.975
252.707
254.492
256.329
258.218
260.157
262.148
264.189
266.281
268.423
270.617
272.863
275.161
277.511
279.915
282.374
284.888
287.459
290.087
225.62
226.204
226.886
227.661
228.524
229.471
230.498
231.601
232.775
234.019
235.328
236.699
238.131
239.621
241.167
242.767
244.419
246.123
247.877
249.68
251.531
253.429
255.375
257.368
259.407
261.494
263.626
265.806
268.033
270.308
272.632
275.004
277.427
279.9
216.973
217.448
218.029
218.711
219.489
220.356
221.307
222.338
223.444
224.621
225.864
227.171
228.538
229.963
231.442
232.974
234.557
236.187
237.865
239.587
241.354
243.164
245.016
246.91
248.845
250.82
252.836
254.893
256.99
259.128
261.307
263.527
265.789
268.095
206.631
207.027
207.539
208.159
208.879
209.693
210.595
211.58
212.641
213.773
214.973
216.236
217.558
218.936
220.365
221.845
223.37
224.941
226.553
228.206
229.897
231.626
233.39
235.19
237.024
238.892
240.792
242.725
244.69
246.688
248.718
250.781
252.876
255.005
194.771
195.131
195.611
196.204
196.902
197.697
198.582
199.551
200.596
201.713
202.897
204.141
205.442
206.795
208.197
209.644
211.133
212.661
214.226
215.824
217.455
219.116
220.806
222.524
224.267
226.036
227.829
229.645
231.485
233.348
235.233
237.141
239.071
241.024
182.007
182.497
183.104
183.817
184.629
185.532
186.519
187.582
188.716
189.914
191.17
192.479
193.836
195.237
196.678
198.155
199.665
201.204
202.77
204.36
205.972
207.605
209.256
210.924
212.608
214.307
216.02
217.745
219.483
221.233
222.994
224.767
226.55
167.979
168.517
169.173
169.937
170.801
171.757
172.796
173.911
175.095
176.341
177.642
178.992
180.385
181.816
183.28
184.773
186.29
187.829
189.386
190.958
192.543
194.139
195.743
197.355
198.971
200.592
202.216
203.841
205.468
207.096
208.723
210.35
211.975
153.467
154.094
154.838
155.688
156.638
157.677
158.798
159.993
161.254
162.573
163.943
165.357
166.808
168.29
169.797
171.326
172.87
174.427
175.993
177.565
179.14
180.715
182.289
183.859
185.424
186.982
188.531
190.072
191.602
193.12
194.627
196.121
197.602
139.638
140.478
141.42
142.459
143.586
144.795
146.078
147.427
148.834
150.293
151.795
153.332
154.894
156.471
158.057
159.648
161.242
162.834
164.422
166.002
167.573
169.131
170.676
172.204
173.714
175.205
176.676
178.125
179.551
180.953
182.331
183.683
125.094
126.04
127.08
128.21
129.425
130.718
132.083
133.51
134.994
136.527
138.102
139.71
141.344
142.996
144.661
146.336
148.013
149.683
151.339
152.972
154.581
156.165
157.721
160.64
165.535
170.932
176.182
181.287
186.253
191.081
195.778
200.346
110.198
111.306
112.503
113.785
115.147
116.582
118.081
119.637
121.241
122.885
124.561
126.263
127.984
129.72
131.47
133.229
134.987
139.106
145.819
152.613
159.223
165.66
171.931
178.044
184.004
189.813
195.475
200.992
206.368
211.608
216.714
221.692
95.529
96.8584
98.2725
99.7683
101.341
102.982
104.683
106.435
108.228
110.055
111.907
113.774
115.903
121.305
129.691
137.856
145.801
153.527
161.035
168.328
175.414
182.302
189.005
195.533
201.899
208.108
214.167
220.078
225.846
231.473
236.963
242.322
81.9013
83.5085
85.1929
86.9524
88.7822
90.6747
92.6201
94.6085
96.6302
98.6763
104.434
113.952
123.318
132.459
141.372
150.059
158.52
166.757
174.773
182.57
190.151
197.522
204.689
211.662
218.451
225.07
231.528
237.832
243.983
249.987
255.848
261.569
69.6728
71.5983
73.5909
75.6507
77.7746
79.9554
82.1831
84.6989
91.3657
101.913
112.252
122.375
132.272
141.941
151.378
160.583
169.556
178.298
186.812
195.099
203.164
211.01
218.643
226.069
233.296
240.335
247.198
253.893
260.428
266.805
273.028
279.102
58.9542
61.2276
63.5555
65.9412
68.3836
70.8773
75.8633
85.2664
96.5188
107.589
118.455
129.104
139.526
149.714
159.667
169.382
178.859
188.1
197.107
205.881
214.425
222.743
230.838
238.716
246.383
253.847
261.119
268.21
275.127
281.874
288.456
294.878
49.7122
52.3624
55.0511
57.7855
60.5682
66.1914
76.3892
88.264
100.011
111.591
122.976
134.146
145.088
155.793
166.258
176.48
186.46
196.198
205.695
214.953
223.975
232.763
241.32
249.651
257.76
265.653
273.34
280.831
288.133
295.253
302.193
308.961
41.8856
44.9511
48.0308
51.1384
55.7821
65.0044
77.3325
89.6387
101.856
113.932
125.826
137.512
148.971
160.191
171.168
181.897
192.379
202.614
212.604
222.349
231.852
241.114
250.137
258.925
267.481
275.811
283.92
291.819
299.514
307.011
314.314
321.429
35.456
38.9674
42.4686
45.9743
52.7442
64.0777
76.7124
89.3997
102.055
114.607
127.001
139.198
151.173
162.911
174.402
185.642
196.631
207.368
217.856
228.095
238.086
247.83
257.329
266.584
275.598
284.375
292.919
301.238
309.337
317.222
324.896
332.365
30.4604
34.4111
38.3437
42.2625
49.7683
61.7281
74.5776
87.5779
100.626
113.627
126.508
139.213
151.706
163.965
175.976
187.734
199.238
210.487
221.482
232.226
242.717
252.957
262.946
272.683
282.171
291.411
300.406
309.161
317.681
325.968
334.026
341.86
26.9073
31.273
35.6221
39.9506
46.8875
58.0749
71.0276
84.2503
97.6262
111.038
124.386
137.593
150.605
163.391
175.931
188.217
200.246
212.018
223.535
234.797
245.804
256.557
267.053
277.292
287.274
296.997
306.464
315.676
324.634
333.341
341.802
350.019
29.4968
34.242
38.9627
44.1343
53.2714
66.2094
79.5447
93.1616
106.925
120.708
134.402
147.934
161.253
174.333
187.158
199.726
212.035
224.088
235.886
247.427
258.712
269.738
280.502
291
301.231
311.191
320.88
330.297
339.446
348.328
356.948
28.9678
34.0969
39.1924
44.2566
50.2784
60.2979
73.6314
87.3829
101.416
115.581
129.739
143.783
157.641
171.27
184.649
197.77
210.632
223.239
235.591
247.688
259.529
271.109
282.423
293.464
304.224
314.699
324.886
334.785
344.396
353.723
362.768
29.5397
35.0419
40.4998
45.9148
51.2932
56.9755
66.6972
80.473
94.6752
109.147
123.724
138.263
152.66
166.849
180.795
194.486
207.92
221.099
234.027
246.704
259.127
271.289
283.179
294.785
306.098
317.111
327.822
338.226
348.325
358.12
367.613
31.0542
36.9157
42.7219
48.4748
54.1771
59.8394
65.4847
73.959
86.8886
101.575
116.505
131.504
146.43
161.185
175.714
189.993
204.017
217.789
231.315
244.597
257.629
270.399
282.89
295.088
306.982
318.563
329.824
340.762
351.375
361.663
371.628
51.7653
57.7779
63.7348
69.6504
75.5539
82.0354
93.0451
108.245
123.648
139.077
154.397
169.52
184.405
199.039
213.425
227.571
241.483
255.152
268.558
281.682
294.504
307.011
319.19
331.032
342.533
353.687
364.495
374.958
55.6239
61.9263
68.1637
74.3429
80.4834
86.6204
92.769
101.378
114.843
130.731
146.598
162.321
177.828
193.093
208.116
222.906
237.475
251.812
265.888
279.678
293.159
306.312
319.123
331.579
343.672
355.398
366.753
377.738
59.9012
66.4718
72.9661
79.3918
85.758
92.1004
98.457
104.821
111.157
121.986
137.906
154.22
170.36
186.275
201.956
217.421
232.683
247.724
262.507
277.001
291.178
305.017
318.496
331.601
344.321
356.649
368.58
380.113
64.4502
71.2683
77.9978
84.6478
91.2273
97.7604
104.291
110.843
117.393
123.892
132.022
145.327
162.099
178.677
195.039
211.209
227.201
242.983
258.515
273.756
288.674
303.241
317.431
331.227
344.613
357.579
370.12
382.231
69.134
76.179
83.1238
89.9796
96.7592
103.477
110.162
116.862
123.586
130.295
136.926
143.417
154.184
170.373
187.438
204.342
221.098
237.663
253.986
270.022
285.729
301.074
316.026
330.562
344.663
358.314
371.508
384.238
73.8466
81.1008
88.2424
95.2844
102.242
109.131
115.97
122.801
129.665
136.546
143.389
150.124
156.695
165.147
179.193
196.857
214.409
231.794
248.952
265.829
282.375
298.55
314.316
329.643
344.509
358.895
372.788
386.182
78.4898
85.9385
93.2615
100.473
107.59
114.63
121.614
128.57
135.549
142.569
149.59
156.545
163.369
170.025
176.531
188.838
207.165
225.403
243.435
261.196
278.63
295.684
312.315
328.485
344.165
359.333
373.97
388.068
82.9721
90.6011
98.0908
105.457
112.717
119.894
127.009
134.088
141.17
148.296
155.461
162.608
169.664
176.586
183.384
190.162
201.263
218.519
237.463
256.155
274.524
292.511
310.061
327.129
343.678
359.68
375.112
389.961
87.222
95.0194
102.664
110.171
117.562
124.86
132.091
139.283
146.466
153.684
160.963
168.268
175.532
182.703
189.79
196.894
204.09
214.434
231.056
250.723
270.08
289.056
307.584
325.61
343.088
359.983
376.266
391.919
91.1824
99.1388
106.929
114.57
122.081
129.487
136.818
144.104
151.38
158.682
166.052
173.486
180.929
188.329
195.699
203.13
210.686
218.364
228.442
244.911
265.311
285.336
304.907
323.957
342.431
360.283
377.48
393.996
94.8066
102.913
110.842
118.608
126.231
133.738
141.159
148.527
155.88
163.256
170.7
178.233
185.827
193.435
201.076
208.831
216.747
224.823
233.052
243.39
260.215
281.354
302.037
322.184
341.727
360.609
378.788
396.232
99.9183
106.31
114.37
122.256
129.987
137.59
145.094
152.536
159.956
167.396
174.899
182.501
190.209
198
205.901
213.971
222.238
230.708
239.377
248.233
259.388
277.101
298.973
320.295
340.985
360.975
380.211
398.655
106.995
109.308
117.49
125.489
133.322
141.014
148.597
156.106
163.584
171.075
178.627
186.282
194.073
202.019
210.15
218.505
227.106
235.963
245.073
254.427
264.005
276.562
295.707
318.285
340.206
361.386
381.76
401.279
113.879
111.899
120.192
128.294
136.22
143.993
151.644
159.21
166.734
174.268
181.862
189.568
197.437
205.513
213.835
222.44
231.352
240.585
250.137
259.998
270.148
280.555
295.053
316.11
339.352
361.813
383.413
404.091
119.847
114.807
122.492
130.687
138.698
146.546
154.26
161.877
169.442
177.01
184.639
192.393
200.332
208.518
217.001
225.828
235.029
244.621
254.609
264.981
275.715
286.777
298.125
315.012
338.358
362.202
385.126
407.058
124.898
119.201
124.42
132.701
140.792
148.711
156.486
164.151
171.755
179.353
187.01
194.799
202.793
211.064
219.681
228.699
238.16
248.092
258.502
269.383
280.711
292.449
304.549
317.51
337.161
362.499
386.859
410.149
129.05
124.128
126.019
134.377
142.542
150.529
158.363
166.077
173.717
181.34
189.016
196.824
204.849
213.178
221.893
231.066
240.755
250.998
261.812
273.194
285.121
297.553
310.437
323.706
339.933
362.656
388.572
413.336
132.348
128.171
127.338
135.762
143.994
152.045
159.936
167.697
175.371
183.015
190.699
198.509
206.541
214.894
223.668
232.954
242.828
253.345
264.535
276.402
288.927
302.067
315.763
329.941
344.514
364.278
390.226
416.59
134.858
131.379
128.471
136.909
145.199
153.308
161.253
169.058
176.763
184.422
192.105
199.901
207.913
216.254
225.043
234.392
244.401
255.145
266.671
278.997
292.109
305.965
320.5
335.63
351.255
368.306
391.779
419.885
136.678
133.826
130.38
137.873
146.211
154.369
162.361
170.206
177.939
185.609
193.283
201.049
209.016
217.31
226.066
235.422
245.503
256.414
268.224
280.97
294.648
309.219
324.613
340.737
357.474
374.696
395.981
423.19
135.617
132.812
138.707
147.083
155.28
163.31
171.19
178.947
186.623
194.28
202.004
209.904
218.115
226.79
236.091
246.175
257.179
269.206
282.317
296.525
311.798
328.065
345.22
363.132
381.651
400.985
426.474
136.876
134.62
139.466
147.868
156.094
164.152
172.057
179.83
187.507
195.142
202.813
210.628
218.726
227.272
236.454
246.462
257.474
269.634
283.037
297.722
313.671
330.812
349.032
368.181
388.085
408.547
432.652
140.198
148.615
156.859
164.934
172.854
180.634
188.305
195.911
203.521
211.237
219.195
227.571
236.57
246.42
257.343
269.534
283.135
298.223
314.801
332.806
352.116
372.563
393.943
416.026
439.023
140.953
149.371
157.62
165.702
173.624
181.401
189.056
196.626
204.169
211.774
219.573
227.741
236.5
246.107
256.835
268.939
282.622
298.014
315.153
333.992
354.406
376.207
399.161
422.996
447.416
150.177
158.417
166.493
174.406
182.167
189.796
197.32
204.788
212.276
219.902
227.834
236.302
245.587
256.009
267.893
281.518
297.086
314.689
334.309
355.826
379.034
403.662
429.39
455.863
151.067
159.286
167.341
175.233
182.966
190.555
198.023
205.407
212.771
220.214
227.892
236.029
244.921
254.931
266.452
279.857
295.442
313.379
333.698
356.295
380.951
407.356
435.133
463.854
152.07
160.253
168.273
176.129
183.822
191.359
198.757
206.047
213.279
220.533
227.947
235.727
244.171
253.669
264.683
277.688
293.099
311.199
332.097
355.724
381.855
410.141
440.137
471.328
161.338
169.309
177.115
184.752
192.224
199.54
206.724
213.814
220.875
228.018
235.427
243.385
252.292
262.662
275.076
290.092
308.142
329.452
354.021
381.632
411.9
444.3
478.212
162.553
170.462
178.201
185.768
193.16
200.381
207.445
214.382
221.242
228.113
235.148
242.6
250.858
260.467
272.1
286.475
304.213
325.714
351.086
380.153
412.493
447.501
484.422
171.735
179.393
186.873
194.17
201.281
208.213
214.984
221.634
228.229
234.89
241.832
249.41
258.169
268.848
282.323
299.444
320.848
346.823
377.272
411.763
449.595
489.855
173.128
180.689
188.065
195.248
202.234
209.02
215.613
222.04
228.353
234.643
241.08
247.971
255.825
265.41
277.731
293.893
314.843
341.138
372.836
409.526
450.412
494.39
174.632
182.079
189.334
196.386
203.227
209.85
216.253
222.446
228.466
234.383
240.326
246.539
253.473
261.868
272.814
287.658
307.726
333.961
366.686
405.578
449.755
497.887
183.553
190.666
197.567
204.244
210.684
216.88
222.829
228.547
234.084
239.538
245.095
251.121
258.287
267.691
280.872
299.572
325.256
358.673
399.696
447.398
500.189
185.094
192.046
198.774
205.263
211.498
217.466
223.155
228.564
233.717
238.682
243.601
248.753
254.7
262.469
273.696
290.517
315.046
348.67
391.646
443.088
501.12
186.684
193.453
199.984
206.261
212.266
217.98
223.387
228.472
233.238
237.718
242.011
246.327
251.101
257.221
266.293
280.748
303.417
336.588
381.184
436.53
500.471
194.867
201.175
207.213
212.959
218.392
223.489
228.227
232.592
236.588
240.269
243.78
247.444
251.967
258.8
270.488
290.542
322.404
368.071
427.386
497.996
196.267
202.325
208.092
213.549
218.668
223.423
227.784
231.723
235.223
238.295
241.026
243.64
246.662
251.29
259.962
276.673
306.186
352.09
415.266
493.391
197.629
203.405
208.87
214.001
218.77
223.146
227.093
230.575
233.556
236.015
237.978
239.587
241.212
243.763
249.357
262.135
288.128
333.089
399.733
486.282
198.923
204.385
209.511
214.276
218.651
222.603
226.091
229.073
231.502
233.335
234.553
235.207
235.531
236.171
238.797
247.283
268.58
311.037
380.328
476.209
200.102
205.216
209.966
214.323
218.257
221.734
224.711
227.143
228.976
230.153
230.624
230.378
229.513
228.423
228.316
232.452
248.049
286.11
356.618
462.608
201.087
205.817
210.149
214.052
217.496
220.444
222.855
224.684
225.873
226.358
226.068
224.943
222.973
220.35
217.837
217.888
227.17
258.758
328.25
444.75
201.717
206.018
209.883
213.279
216.175
218.534
220.318
221.482
221.971
221.723
220.658
218.688
215.733
211.808
207.298
203.813
206.746
229.889
295.104
421.635
201.639
205.436
208.757
211.569
213.84
215.535
216.618
217.05
216.782
215.76
213.915
211.159
207.391
202.528
196.647
190.53
187.862
201.27
257.801
392.024
199.949
203.09
205.714
207.794
209.303
210.214
210.499
210.13
209.073
207.289
204.734
201.348
197.045
191.699
187.414
182.729
174.687
174.746
217.674
354.886
193.766
195.833
197.359
198.336
198.76
198.629
197.946
196.717
194.945
192.629
189.769
186.348
184.475
182.933
183.389
183.717
177.71
163.187
176.422
310.745
171.597
171.286
170.468
169.204
167.567
165.642
163.523
161.303
159.064
157.261
156.554
156.334
158.926
163.331
169.214
176.406
183.544
177.194
155.128
263.638
77.786
74.4013
71.1813
68.2188
65.6101
63.4564
61.8642
60.9495
60.847
62.1076
65.539
70.7713
78.3386
89.0264
103.842
123.907
151.571
182.759
190.382
195.645
2166.8
2155.11
2143.5
2131.95
2120.45
2109.01
2097.6
2086.23
2074.88
2063.54
2052.2
2040.85
2029.48
2018.06
2006.59
1995.05
1983.42
1971.68
1959.81
1947.79
1935.59
1923.19
1910.56
1897.67
1884.49
1870.97
1857.08
1842.77
1828
1812.72
1796.87
1780.38
1763.21
1745.27
1726.5
1706.82
1686.15
1664.4
1641.51
1617.39
1591.96
1565.17
1536.97
1507.31
1476.16
1443.51
1409.34
1373.57
1336.03
1296.29
1253.3
1204.58
1143.56
1045.91
800.867
2104.4
2093.02
2081.71
2070.47
2059.28
2048.13
2037.03
2025.96
2014.9
2003.86
1992.83
1981.78
1970.7
1959.59
1948.43
1937.2
1925.89
1914.47
1902.93
1891.24
1879.39
1867.34
1855.08
1842.56
1829.76
1816.64
1803.17
1789.3
1774.99
1760.18
1744.84
1728.9
1712.31
1694.99
1676.88
1657.92
1638.03
1617.13
1595.17
1572.06
1547.75
1522.18
1495.31
1467.09
1437.51
1406.52
1374.09
1340.09
1304.26
1266
1223.92
1174.63
1108.97
996.271
730.549
2043.77
2032.69
2021.69
2010.74
1999.85
1989
1978.19
1967.41
1956.65
1945.91
1935.16
1924.41
1913.64
1902.83
1891.97
1881.05
1870.05
1858.95
1847.73
1836.37
1824.86
1813.16
1801.25
1789.1
1776.68
1763.96
1750.89
1737.45
1723.59
1709.26
1694.42
1679.01
1662.98
1646.27
1628.81
1610.54
1591.41
1571.34
1550.26
1528.13
1504.87
1480.44
1454.8
1427.9
1399.71
1370.17
1339.18
1306.56
1271.9
1234.34
1192
1140.43
1068.02
941.758
678.928
1984.86
1974.08
1963.37
1952.71
1942.11
1931.55
1921.03
1910.54
1900.08
1889.62
1879.17
1868.71
1858.23
1847.72
1837.16
1826.54
1815.85
1805.06
1794.16
1783.13
1771.95
1760.59
1749.04
1737.25
1725.2
1712.87
1700.21
1687.19
1673.77
1659.91
1645.56
1630.67
1615.19
1599.06
1582.24
1564.65
1546.25
1526.97
1506.75
1485.54
1463.29
1439.94
1415.45
1389.77
1362.85
1334.61
1304.9
1273.43
1239.64
1202.41
1159.29
1104.77
1025.51
890.002
645.052
1927.62
1917.14
1906.71
1896.35
1886.03
1875.75
1865.52
1855.31
1845.13
1834.96
1824.79
1814.62
1804.43
1794.21
1783.95
1773.63
1763.24
1752.77
1742.18
1731.48
1720.62
1709.6
1698.39
1686.96
1675.28
1663.33
1651.07
1638.47
1625.48
1612.08
1598.2
1583.82
1568.88
1553.33
1537.13
1520.2
1502.51
1484
1464.61
1444.29
1422.99
1400.67
1377.27
1352.74
1327.01
1299.94
1271.35
1240.84
1207.67
1170.4
1126.04
1068.16
982.858
843.873
624.587
1872.02
1861.82
1851.68
1841.59
1831.55
1821.56
1811.6
1801.68
1791.77
1781.88
1772
1762.11
1752.21
1742.27
1732.3
1722.28
1712.19
1702.02
1691.75
1681.36
1670.83
1660.14
1649.27
1638.19
1626.87
1615.3
1603.43
1591.23
1578.67
1565.71
1552.31
1538.43
1524.02
1509.03
1493.43
1477.15
1460.15
1442.38
1423.79
1404.34
1383.96
1362.62
1340.26
1316.8
1292.16
1266.16
1238.53
1208.76
1175.92
1138.24
1092.2
1030.8
941.098
804.135
612.259
1818
1808.08
1798.21
1788.4
1778.64
1768.92
1759.24
1749.58
1739.96
1730.34
1720.74
1711.13
1701.5
1691.86
1682.18
1672.44
1662.65
1652.78
1642.81
1632.73
1622.52
1612.15
1601.62
1590.88
1579.93
1568.72
1557.23
1545.44
1533.3
1520.78
1507.84
1494.44
1480.55
1466.12
1451.1
1435.45
1419.13
1402.08
1384.27
1365.64
1346.15
1325.75
1304.36
1281.9
1258.24
1233.16
1206.31
1177.05
1144.24
1105.77
1057.75
993.192
901.314
770.591
604.263
1765.53
1755.87
1746.28
1736.74
1727.25
1717.8
1708.38
1699
1689.64
1680.3
1670.97
1661.63
1652.29
1642.92
1633.52
1624.07
1614.57
1604.99
1595.32
1585.55
1575.65
1565.61
1555.4
1545
1534.4
1523.55
1512.44
1501.04
1489.31
1477.22
1464.73
1451.82
1438.44
1424.54
1410.1
1395.07
1379.4
1363.06
1345.99
1328.16
1309.51
1289.98
1269.49
1247.94
1225.14
1200.83
1174.56
1145.54
1112.44
1072.89
1022.83
955.954
864.301
742.408
598.324
1714.55
1705.16
1695.84
1686.56
1677.33
1668.15
1659
1649.88
1640.79
1631.71
1622.65
1613.58
1604.51
1595.42
1586.29
1577.13
1567.91
1558.62
1549.25
1539.77
1530.18
1520.45
1510.57
1500.51
1490.24
1479.76
1469.02
1458
1446.67
1435
1422.96
1410.51
1397.63
1384.26
1370.38
1355.94
1340.91
1325.24
1308.9
1291.82
1273.96
1255.24
1235.57
1214.8
1192.73
1169.01
1143.1
1114.07
1080.42
1039.61
987.767
919.747
830.414
718.481
593.167
1665.03
1655.91
1646.84
1637.82
1628.86
1619.93
1611.04
1602.18
1593.35
1584.54
1575.74
1566.94
1558.13
1549.31
1540.46
1531.57
1522.63
1513.63
1504.54
1495.36
1486.07
1476.65
1467.09
1457.35
1447.42
1437.28
1426.9
1416.26
1405.33
1394.07
1382.47
1370.48
1358.07
1345.22
1331.88
1318.02
1303.6
1288.58
1272.91
1256.54
1239.41
1221.42
1202.47
1182.37
1160.87
1137.56
1111.79
1082.52
1048.12
1006.06
952.986
885.099
799.622
697.748
588.112
1616.93
1608.07
1599.25
1590.49
1581.78
1573.11
1564.47
1555.87
1547.3
1538.74
1530.2
1521.66
1513.12
1504.56
1495.97
1487.36
1478.69
1469.97
1461.16
1452.27
1443.28
1434.16
1424.91
1415.49
1405.89
1396.09
1386.07
1375.79
1365.24
1354.39
1343.21
1331.66
1319.73
1307.37
1294.56
1281.25
1267.41
1253
1237.96
1222.24
1205.76
1188.42
1170.08
1150.52
1129.43
1106.34
1080.52
1050.84
1015.6
972.531
918.937
852.328
771.649
679.338
582.808
1570.22
1561.6
1553.04
1544.53
1536.06
1527.64
1519.25
1510.9
1502.58
1494.28
1485.99
1477.71
1469.42
1461.12
1452.8
1444.45
1436.05
1427.6
1419.07
1410.47
1401.76
1392.94
1383.99
1374.88
1365.6
1356.14
1346.46
1336.54
1326.37
1315.91
1305.13
1294.02
1282.54
1270.66
1258.35
1245.56
1232.27
1218.42
1203.97
1188.83
1172.93
1156.14
1138.29
1119.13
1098.31
1075.29
1049.25
1019.03
983.036
939.336
885.98
821.541
746.115
662.596
577.087
1524.84
1516.47
1508.15
1499.88
1491.67
1483.49
1475.35
1467.24
1459.17
1451.11
1443.07
1435.04
1427
1418.96
1410.9
1402.8
1394.67
1386.48
1378.23
1369.9
1361.48
1352.94
1344.29
1335.48
1326.52
1317.38
1308.04
1298.47
1288.66
1278.58
1268.2
1257.5
1246.46
1235.03
1223.19
1210.89
1198.11
1184.78
1170.84
1156.22
1140.82
1124.48
1107.01
1088.13
1067.44
1044.33
1017.97
987.206
950.64
906.784
854.342
792.691
722.624
647.043
570.872
1480.77
1472.64
1464.56
1456.53
1448.55
1440.62
1432.72
1424.86
1417.02
1409.21
1401.41
1393.62
1385.83
1378.04
1370.23
1362.39
1354.51
1346.58
1338.6
1330.54
1322.39
1314.14
1305.76
1297.26
1288.6
1279.78
1270.76
1261.53
1252.07
1242.35
1232.36
1222.05
1211.42
1200.42
1189.02
1177.18
1164.85
1151.99
1138.52
1124.34
1109.34
1093.36
1076.17
1057.45
1036.75
1013.46
986.721
955.496
918.65
875.115
824.13
765.643
700.814
632.33
564.132
1437.97
1430.07
1422.23
1414.44
1406.69
1398.99
1391.33
1383.7
1376.1
1368.53
1360.97
1353.42
1345.87
1338.32
1330.75
1323.16
1315.53
1307.86
1300.13
1292.33
1284.45
1276.47
1268.38
1260.17
1251.8
1243.28
1234.58
1225.67
1216.55
1207.18
1197.55
1187.62
1177.37
1166.77
1155.77
1144.35
1132.44
1119.99
1106.91
1093.1
1078.43
1062.71
1045.69
1027.03
1006.24
982.691
955.595
924.077
887.276
844.485
795.356
740.216
680.372
618.207
556.866
1397
1389.11
1381.26
1373.57
1366.05
1358.57
1351.14
1343.74
1336.37
1329.03
1321.7
1314.39
1307.08
1299.76
1292.43
1285.08
1277.7
1270.28
1262.8
1255.25
1247.63
1239.92
1232.1
1224.16
1216.08
1207.85
1199.45
1190.86
1182.05
1173.02
1163.72
1154.15
1144.26
1134.02
1123.4
1112.34
1100.8
1088.7
1075.96
1062.45
1048.03
1032.48
1015.55
996.846
975.893
952.078
924.718
893.122
856.681
814.979
767.974
716.222
661.04
604.491
549.089
1357.34
1349.69
1342.07
1334.48
1326.92
1319.43
1312.12
1304.95
1297.81
1290.69
1283.59
1276.5
1269.42
1262.33
1255.24
1248.12
1240.98
1233.79
1226.56
1219.26
1211.89
1204.43
1196.87
1189.2
1181.4
1173.45
1165.34
1157.04
1148.54
1139.81
1130.84
1121.59
1112.03
1102.12
1091.83
1081.11
1069.88
1058.08
1045.61
1032.33
1018.08
1002.63
985.7
966.897
945.748
921.709
894.224
862.779
826.975
786.626
741.903
693.481
642.614
591.056
540.828
1318.82
1311.4
1304
1296.64
1289.3
1281.98
1274.68
1267.43
1260.36
1253.46
1246.58
1239.72
1232.86
1226
1219.13
1212.24
1205.32
1198.37
1191.37
1184.31
1177.19
1169.97
1162.67
1155.25
1147.71
1140.03
1132.19
1124.17
1115.95
1107.52
1098.84
1089.89
1080.63
1071.02
1061.03
1050.58
1039.63
1028.07
1015.81
1002.69
988.542
973.127
956.137
937.194
915.862
891.686
864.239
833.163
798.227
759.417
717.045
671.832
624.929
577.816
532.123
1281.41
1274.2
1267.03
1259.89
1252.76
1245.66
1238.58
1231.5
1224.43
1217.44
1210.66
1204.01
1197.36
1190.72
1184.07
1177.4
1170.71
1163.98
1157.21
1150.38
1143.48
1136.51
1129.44
1122.27
1114.98
1107.55
1099.96
1092.21
1084.26
1076.09
1067.68
1059
1050.01
1040.67
1030.93
1020.72
1009.99
998.623
986.511
973.5
959.397
943.953
926.863
907.773
886.309
862.112
834.87
804.353
770.464
733.91
695.51
653.992
609.102
564.714
523.018
1245.06
1238.08
1231.12
1224.19
1217.28
1210.38
1203.51
1196.64
1189.77
1182.91
1176.04
1169.36
1162.9
1156.46
1150.02
1143.57
1137.09
1130.58
1124.02
1117.42
1110.74
1103.99
1097.16
1090.22
1083.16
1075.97
1068.62
1061.11
1053.41
1045.49
1037.32
1028.88
1020.13
1011.01
1001.49
991.485
980.922
969.7
957.689
944.73
930.619
915.105
897.898
878.688
857.171
833.079
806.197
776.397
744.817
712.135
676.741
637.489
594.397
552.01
513.558
1209.76
1202.99
1196.24
1189.52
1182.81
1176.12
1169.45
1162.78
1156.12
1149.45
1142.78
1136.1
1129.53
1123.2
1116.96
1110.71
1104.44
1098.14
1091.79
1085.39
1078.93
1072.4
1065.77
1059.05
1052.21
1045.25
1038.13
1030.84
1023.36
1015.66
1007.71
999.485
990.936
982.017
972.671
962.825
952.393
941.267
929.312
916.357
902.197
886.59
869.277
850
828.526
804.662
778.274
750.937
723.03
692.606
658.915
621.855
581.481
540.655
503.785
1175.48
1168.91
1162.36
1155.84
1149.34
1142.85
1136.37
1129.9
1123.44
1116.97
1110.49
1104
1097.49
1091.05
1084.85
1078.8
1072.72
1066.61
1060.47
1054.27
1048.01
1041.68
1035.26
1028.74
1022.11
1015.35
1008.43
1001.35
994.068
986.568
978.815
970.773
962.399
953.641
944.436
934.71
924.369
913.298
901.355
888.367
874.132
858.432
841.045
821.772
800.438
776.958
753.328
729.471
703.1
673.986
641.976
607.021
569.196
529.508
493.733
1142.18
1135.81
1129.46
1123.14
1116.83
1110.53
1104.25
1097.98
1091.7
1085.42
1079.14
1072.84
1066.52
1060.17
1053.86
1047.79
1041.9
1035.98
1030.02
1024.02
1017.95
1011.8
1005.58
999.249
992.806
986.231
979.504
972.603
965.504
958.179
950.593
942.708
934.479
925.849
916.753
907.11
896.822
885.767
873.801
860.753
846.436
830.662
813.254
794.06
773.677
753.365
732.409
709.369
684.033
656.234
625.87
592.927
557.492
519.75
484.654
1109.83
1103.66
1097.5
1091.37
1085.25
1079.15
1073.06
1066.97
1060.88
1054.79
1048.69
1042.58
1036.44
1030.29
1024.09
1017.9
1011.95
1006.21
1000.43
994.598
988.706
982.741
976.69
970.538
964.269
957.864
951.306
944.569
937.628
930.454
923.01
915.256
907.142
898.61
889.59
879.997
869.727
858.656
846.64
833.519
819.129
803.317
785.947
768.404
751.1
732.56
712.285
690.088
665.804
639.312
610.548
579.522
546.324
511.118
476.323
1078.41
1072.43
1066.46
1060.52
1054.59
1048.67
1042.76
1036.86
1030.96
1025.05
1019.13
1013.2
1007.25
1001.28
995.268
989.222
983.13
977.265
971.644
965.981
960.255
954.455
948.566
942.574
936.462
930.212
923.803
917.21
910.406
903.36
896.033
888.383
880.358
871.895
862.92
853.346
843.064
831.951
819.87
806.678
792.24
777.101
762.199
746.981
730.476
712.519
692.947
671.61
648.383
623.179
595.963
566.759
535.654
502.797
468.385
1047.9
1042.1
1036.32
1030.55
1024.81
1019.07
1013.34
1007.62
1001.9
996.168
990.431
984.681
978.911
973.117
967.291