/*--------------------------------*- C++ -*----------------------------------*\
  =========                 |
  \\      /  F ield         | OpenFOAM: The Open Source CFD Toolbox
   \\    /   O peration     | Website:  https://openfoam.org
    \\  /    A nd           | Version:  10
     \\/     M anipulation  |
\*---------------------------------------------------------------------------*/
FoamFile
{
    format      ascii;
    class       volScalarField;
    location    "76000";
    object      Co;
}
// * * * * * * * * * * * * * * * * * * * * * * * * * * * * * * * * * * * * * //

dimensions      [0 0 0 0 0 0 0];

internalField   nonuniform List<scalar> 
17981
(
300.59
303.881
307.061
310.136
313.119
316.018
318.846
321.613
324.329
327.003
329.646
332.265
334.871
337.47
340.069
342.675
345.294
347.931
350.592
353.281
356.003
358.761
361.559
364.401
367.29
370.23
373.222
376.271
379.378
382.548
385.782
389.083
392.455
395.899
399.419
403.018
406.698
410.462
414.313
418.254
422.288
426.419
430.649
434.981
439.419
443.967
448.628
453.405
315.483
318.623
321.643
324.554
327.368
330.097
332.754
335.351
337.9
340.413
342.9
345.371
347.837
350.305
352.783
355.279
357.798
360.346
362.929
365.551
368.217
370.929
373.693
376.51
379.385
382.32
385.318
388.381
391.513
394.716
397.993
401.345
404.776
408.289
411.885
415.568
419.34
423.204
427.163
431.22
435.378
439.639
444.008
448.486
453.078
457.787
462.617
467.57
329.259
332.187
334.986
337.67
340.252
342.747
345.168
347.531
349.848
352.135
354.402
356.662
358.926
361.202
363.5
365.826
368.188
370.591
373.04
375.54
378.094
380.708
383.383
386.122
388.929
391.807
394.757
397.781
400.884
404.065
407.329
410.676
414.11
417.633
421.247
424.954
428.758
432.66
436.663
440.771
444.985
449.309
453.746
458.299
462.972
467.766
472.687
477.738
351.7
353.891
356.007
358.066
360.084
362.076
364.058
366.042
368.041
370.065
372.123
374.223
376.371
378.574
380.836
383.161
385.554
388.017
390.554
393.166
395.856
398.626
401.478
404.414
407.436
410.545
413.744
417.034
420.418
423.897
427.473
431.148
434.925
438.806
442.794
446.89
451.098
455.419
459.858
464.417
469.099
473.906
478.844
483.914
361.575
363.382
365.113
366.789
368.429
370.052
371.675
373.314
374.982
376.689
378.446
380.261
382.139
384.088
386.11
388.211
390.392
392.656
395.006
397.444
399.97
402.586
405.294
408.094
410.989
413.979
417.065
420.249
423.533
426.917
430.404
433.995
437.692
441.497
445.412
449.439
453.581
457.839
462.217
466.716
471.341
476.094
480.978
485.996
369.723
371.052
372.305
373.509
374.688
375.862
377.053
378.277
379.549
380.879
382.278
383.754
385.313
386.959
388.696
390.527
392.454
394.479
396.602
398.824
401.147
403.569
406.093
408.718
411.445
414.275
417.207
420.244
423.384
426.63
429.983
433.443
437.013
440.692
444.484
448.39
452.412
456.551
460.811
465.193
469.7
474.334
479.099
483.997
376.611
377.287
377.926
378.558
379.206
379.894
380.638
381.455
382.355
383.348
384.441
385.639
386.944
388.36
389.887
391.527
393.279
395.144
397.121
399.209
401.407
403.716
406.135
408.662
411.299
414.044
416.898
419.861
422.932
426.113
429.404
432.805
436.319
439.945
443.685
447.54
451.513
455.605
459.817
464.153
468.614
473.203
477.922
379.659
379.67
379.728
379.857
380.075
380.397
380.831
381.387
382.07
382.882
383.825
384.899
386.104
387.439
388.902
390.491
392.205
394.042
395.999
398.075
400.269
402.578
405.001
407.537
410.185
412.945
415.816
418.797
421.889
425.092
428.406
431.832
435.37
439.022
442.789
446.672
450.672
454.791
459.032
463.395
467.884
377.605
377.037
376.579
376.25
376.06
376.018
376.129
376.396
376.819
377.397
378.128
379.009
380.037
381.209
382.52
383.968
385.548
387.258
389.095
391.054
393.135
395.333
397.649
400.078
402.621
405.276
408.041
410.917
413.902
416.997
420.2
423.513
426.936
430.469
434.114
437.87
441.74
445.725
449.826
454.045
369.744
368.878
368.193
367.693
367.379
367.252
367.307
367.541
367.948
368.525
369.264
370.161
371.21
372.405
373.741
375.215
376.82
378.554
380.412
382.392
384.49
386.703
389.03
391.467
394.014
396.668
399.428
402.294
405.264
408.338
411.516
414.799
418.185
421.676
425.273
428.977
432.788
436.707
355.084
354.611
354.348
354.285
354.416
354.732
355.225
355.887
356.711
357.69
358.816
360.084
361.488
363.023
364.682
366.463
368.361
370.372
372.493
374.721
377.053
379.489
382.025
384.66
387.394
390.224
393.151
396.174
399.293
402.508
405.818
409.225
412.729
416.331
339.272
338.523
338.005
337.706
337.617
337.725
338.021
338.495
339.137
339.939
340.892
341.989
343.222
344.585
346.073
347.679
349.399
351.228
353.164
355.202
357.338
359.572
361.899
364.317
366.826
369.423
372.107
374.878
377.734
380.674
383.7
386.81
390.005
393.285
320.176
319.239
318.55
318.095
317.861
317.832
317.998
318.346
318.865
319.545
320.376
321.35
322.459
323.695
325.052
326.524
328.104
329.789
331.573
333.452
335.422
337.481
339.624
341.85
344.156
346.539
348.999
351.533
354.141
356.822
359.574
362.397
365.292
368.257
298.153
297.133
296.373
295.855
295.563
295.481
295.594
295.89
296.356
296.98
297.753
298.664
299.705
300.868
302.144
303.529
305.014
306.596
308.268
310.025
311.865
313.782
315.773
317.836
319.967
322.164
324.425
326.747
329.13
331.572
334.071
336.627
339.239
341.905
272.707
271.981
271.498
271.24
271.19
271.333
271.654
272.139
272.777
273.556
274.467
275.499
276.644
277.895
279.244
280.685
282.211
283.817
285.498
287.249
289.067
290.946
292.884
294.878
296.925
299.022
301.166
303.356
305.591
307.867
310.185
312.542
314.938
246.568
245.981
245.632
245.502
245.572
245.827
246.25
246.83
247.552
248.405
249.379
250.464
251.652
252.934
254.303
255.751
257.274
258.864
260.516
262.227
263.99
265.802
267.659
269.558
271.496
273.469
275.475
277.511
279.576
281.668
283.783
285.922
288.083
219.39
219.041
218.919
219.003
219.276
219.721
220.322
221.066
221.94
222.933
224.034
225.233
226.522
227.892
229.336
230.847
232.418
234.044
235.718
237.437
239.194
240.987
242.81
244.66
246.534
248.429
250.34
252.267
254.206
256.155
258.111
260.073
262.04
191.846
192.034
192.412
192.963
193.669
194.517
195.491
196.581
197.775
199.062
200.434
201.88
203.394
204.967
206.593
208.265
209.977
211.724
213.501
215.302
217.124
218.962
220.811
222.669
224.532
226.397
228.261
232.782
239.99
247.042
253.882
260.513
165.053
165.622
166.362
167.256
168.288
169.442
170.707
172.07
173.521
175.049
176.646
178.303
180.012
181.766
183.558
185.381
187.23
189.099
190.983
194.25
201.4
210.968
220.3
229.395
238.257
246.887
255.288
263.463
271.415
279.15
286.671
293.982
139.259
140.27
141.43
142.723
144.134
145.648
147.255
148.942
150.7
152.519
154.391
156.306
158.259
160.241
163.365
171.233
182.67
193.873
204.84
215.569
226.058
236.306
246.315
256.086
265.619
274.918
283.984
292.821
301.434
309.826
318.001
325.965
114.985
116.487
118.114
119.853
121.688
123.607
125.6
127.655
129.764
131.917
134.106
140.982
153.246
166.015
178.569
190.902
203.006
214.877
226.512
237.908
249.062
259.974
270.643
281.07
291.256
301.203
310.914
320.392
329.641
338.666
347.47
356.06
92.6621
94.6913
96.8237
99.0446
101.341
103.703
106.118
108.579
115.219
127.683
141.657
155.453
169.06
182.468
195.666
208.647
221.403
233.927
246.216
258.264
270.069
281.629
292.943
304.011
314.833
325.411
335.749
345.848
355.713
365.347
374.757
383.947
72.6204
75.2062
77.8721
80.6047
83.3926
86.2254
95.0564
109.99
124.83
139.538
154.097
168.493
182.711
196.74
210.567
224.182
237.577
250.742
263.673
276.363
288.808
301.005
312.952
324.649
336.095
347.291
358.24
368.944
379.407
389.633
399.627
409.396
55.0906
58.2539
61.4747
64.741
73.0137
87.4709
102.995
118.448
133.811
149.063
164.186
179.161
193.975
208.61
223.053
237.292
251.316
265.114
278.68
292.004
305.083
317.91
330.484
342.802
354.864
366.669
378.219
389.516
400.564
411.367
421.93
432.258
40.2054
43.9607
49.2764
60.6458
76.615
92.5916
108.552
124.472
140.329
156.1
171.765
187.304
202.697
217.927
232.977
247.833
262.481
276.908
291.105
305.063
318.773
332.229
345.428
358.365
371.039
383.448
395.595
407.479
419.104
430.474
441.593
452.468
28.0081
34.2627
46.4069
62.6273
78.9195
95.2581
111.617
127.971
144.295
160.562
176.75
192.835
208.795
224.611
240.261
255.73
271
286.056
300.887
315.479
329.824
343.913
357.74
371.299
384.588
397.604
410.346
422.816
435.016
446.949
458.618
470.03
18.7014
29.4703
45.7769
62.2277
78.7953
95.4527
112.173
128.927
145.687
162.427
179.117
195.734
212.25
228.643
244.891
260.971
276.865
292.554
308.023
323.258
338.245
352.975
367.439
381.629
395.541
409.17
422.516
435.576
448.354
460.85
473.07
485.017
13.4837
26.438
42.8704
59.497
76.2898
93.2202
110.26
127.378
144.545
161.731
178.904
196.036
213.098
230.063
246.905
263.598
280.12
296.45
312.568
328.456
344.099
359.484
374.598
389.434
403.982
418.238
432.198
445.86
459.224
472.292
485.066
497.551
8.45446
21.2998
37.7963
54.5411
71.5056
88.6603
105.975
123.419
140.96
158.564
176.198
193.83
211.426
228.957
246.392
263.701
280.859
297.839
314.619
331.176
347.492
363.549
379.334
394.834
410.039
424.94
439.533
453.813
467.779
481.431
494.77
507.801
15.1025
30.7111
47.5132
64.5926
81.9193
99.4622
117.189
135.066
153.059
171.13
189.243
207.362
225.453
243.48
261.41
279.211
296.854
314.311
331.556
348.566
365.32
381.799
397.988
413.873
429.444
444.692
459.613
474.201
488.455
502.377
515.969
11.3745
22.5559
38.6049
55.7388
73.1817
90.9019
108.866
127.04
145.386
163.866
182.44
201.068
219.71
238.328
256.882
275.337
293.657
311.81
329.765
347.493
364.969
382.17
399.077
415.673
431.943
447.876
463.463
478.7
493.582
508.108
522.279
13.222
21.0469
30.7228
45.1619
62.6609
80.5036
98.656
117.082
135.744
154.601
173.61
192.73
211.914
231.119
250.302
269.42
288.432
307.3
325.988
344.462
362.69
380.646
398.305
415.644
432.647
449.299
465.586
481.502
497.04
512.197
526.973
18.6052
24.8669
33.1001
41.2049
52.3267
68.4979
86.7843
105.415
124.351
143.549
162.966
182.555
202.267
222.054
241.867
261.656
281.375
300.98
320.427
339.675
358.689
377.435
395.882
414.005
431.779
449.187
466.212
482.844
499.072
514.892
530.302
47.1467
55.5836
63.8782
75.3767
92.2726
111.436
130.937
150.728
170.761
190.983
211.342
231.783
252.25
272.69
293.051
313.283
333.339
353.173
372.748
392.025
410.972
429.561
447.768
465.574
482.962
499.92
516.44
532.518
53.9245
62.7981
71.5138
80.0777
88.4974
99.8396
116.99
137.119
157.567
178.278
199.195
220.258
241.406
262.579
283.716
304.759
325.653
346.346
366.789
386.94
406.758
426.209
445.264
463.896
482.087
499.819
517.082
533.868
61.2774
70.5621
79.6732
88.6187
97.4083
106.053
114.565
125.738
143.186
164.361
185.819
207.496
229.324
251.238
273.167
295.046
316.811
338.399
359.755
380.826
401.564
421.928
441.882
461.393
480.436
498.992
517.043
534.581
68.9616
78.6304
88.1098
97.4099
106.542
115.521
124.361
133.078
141.686
153.153
171.404
193.682
216.189
238.848
261.584
284.322
306.988
329.511
351.823
373.862
395.573
416.905
437.812
458.257
478.209
497.641
516.533
534.871
76.7558
86.7809
96.6012
106.228
115.677
124.962
134.104
143.12
152.03
160.853
169.604
182.231
202.163
225.571
249.126
272.744
296.34
319.834
343.148
366.207
388.944
411.301
433.222
454.662
475.581
495.948
515.737
534.929
84.4649
94.8185
104.952
114.879
124.615
134.181
143.597
152.887
162.074
171.18
180.228
189.236
198.222
213.171
235.925
260.442
284.998
309.5
333.859
357.989
381.812
405.254
428.252
450.751
472.703
494.067
514.814
534.918
91.9231
102.578
112.998
123.197
133.196
143.015
152.679
162.217
171.654
181.021
190.342
199.642
208.943
218.263
228.884
247.521
273.062
298.609
324.059
349.313
374.278
398.871
423.014
446.641
469.694
492.125
513.895
534.974
98.9971
109.926
120.606
131.053
141.288
151.335
161.222
170.982
180.646
190.247
199.819
209.39
218.989
228.637
238.353
248.149
263.473
287.232
313.817
340.248
366.419
392.229
417.589
442.417
466.646
490.217
513.083
535.207
105.586
116.762
127.678
138.349
148.796
159.047
169.134
179.09
188.955
198.768
208.566
218.387
228.264
238.225
248.293
258.485
268.81
281.681
303.178
330.841
358.28
385.377
412.028
438.137
463.622
488.413
512.452
535.695
113.31
123.017
134.144
145.016
155.655
166.088
176.35
186.482
196.524
206.523
216.524
226.571
236.704
246.96
257.366
267.946
278.712
289.671
300.986
321.107
349.878
378.337
406.359
433.833
460.66
486.756
512.053
536.496
123.521
128.648
139.966
151.018
161.827
172.423
182.841
193.125
203.322
213.484
223.662
233.911
244.277
254.806
265.534
276.489
287.691
299.149
310.861
322.82
342.509
371.106
400.584
429.511
457.772
485.267
511.913
537.644
134.234
133.642
145.129
156.342
167.304
178.044
188.599
199.016
209.346
219.647
229.978
240.402
250.976
261.754
272.782
284.098
295.725
307.68
319.962
332.565
345.468
365.604
394.681
425.158
454.953
483.946
512.04
539.155
143.767
138.007
149.642
160.999
172.097
182.965
193.642
204.174
214.617
225.034
235.493
246.064
256.817
267.816
279.119
290.773
302.812
315.256
328.111
341.37
355.012
369.008
390.423
420.741
452.176
482.777
512.427
541.028
152.089
143.637
153.536
165.019
176.238
187.22
198.004
208.635
219.172
229.684
240.245
250.935
261.836
273.024
284.571
296.536
308.964
321.884
335.308
349.231
363.633
378.48
393.725
417.172
449.4
481.727
513.049
543.252
159.194
151.004
156.856
168.448
179.774
190.858
201.735
212.452
223.068
233.654
244.293
255.072
266.086
277.427
289.18
301.421
314.209
327.583
341.565
356.154
371.33
387.056
403.28
420.427
446.57
480.751
513.874
545.802
165.105
157.9
159.663
171.348
182.766
193.939
204.898
215.689
226.369
237.012
247.704
258.543
269.635
281.088
293.004
305.478
318.587
332.385
346.905
362.152
378.109
394.738
411.981
429.766
450.398
479.791
514.854
548.644
169.874
163.626
162.026
173.788
185.284
196.533
207.564
218.417
229.149
239.832
250.556
261.426
272.56
284.08
296.11
308.766
322.147
336.326
351.352
367.241
383.98
401.53
419.827
438.789
458.318
482.938
515.938
551.738
173.595
168.243
164.022
175.844
187.403
198.716
209.807
220.713
231.486
242.195
252.932
263.806
274.943
286.485
298.575
311.354
324.946
339.452
354.94
371.441
388.951
407.431
426.814
447.005
467.893
489.35
518.278
555.039
176.395
171.85
166.719
177.598
189.206
200.568
211.708
222.657
233.46
244.183
254.915
265.767
276.874
288.39
300.481
313.315
327.049
341.812
357.702
374.772
393.029
412.44
432.932
454.401
476.72
499.739
525.106
558.496
178.427
174.586
170.071
179.13
190.772
202.171
213.347
224.326
235.15
245.876
256.589
267.397
278.44
289.884
301.916
314.732
328.524
343.462
359.678
377.254
396.219
416.548
438.166
460.959
484.779
509.455
534.798
565.318
176.609
172.813
180.518
192.183
203.605
214.802
225.799
236.632
247.351
258.031
268.777
279.727
291.056
302.967
315.687
329.447
344.462
360.908
378.91
398.525
419.742
442.49
466.645
492.039
518.473
545.726
573.824
178.077
174.895
181.838
193.512
204.944
216.149
227.151
237.98
248.679
259.315
269.983
280.816
291.99
303.724
316.269
329.897
344.875
361.438
379.761
399.944
422.001
445.869
471.416
498.454
526.753
556.051
586.066
183.158
194.827
206.257
217.458
228.449
239.259
249.927
260.506
271.082
281.778
292.766
304.269
316.562
329.955
344.773
361.318
379.833
400.475
423.298
448.258
475.217
503.966
534.239
565.73
598.103
184.54
196.19
207.605
218.789
229.757
240.533
251.153
261.662
272.134
282.676
293.45
304.678
316.648
329.705
344.231
360.605
379.156
400.118
423.605
449.602
477.977
508.498
540.86
574.705
609.631
197.653
209.038
220.192
231.125
241.854
252.409
262.832
273.186
283.56
294.101
305.019
316.606
329.23
343.329
359.364
377.768
398.877
422.889
449.84
479.612
511.958
546.529
582.901
620.599
199.258
210.598
221.708
232.593
243.262
253.738
264.058
274.277
284.471
294.763
305.346
316.5
328.607
342.149
357.67
375.719
396.764
421.12
448.902
480.027
514.236
551.135
590.227
630.943
201.037
212.317
223.368
234.189
244.785
255.17
265.372
275.438
285.436
295.467
305.696
316.383
327.906
340.773
355.603
373.071
393.805
418.275
446.718
479.112
515.204
554.551
596.573
640.585
214.217
225.192
235.933
246.441
256.722
266.793
276.691
286.475
296.23
306.094
316.293
327.182
339.277
353.252
369.904
390.043
414.345
443.22
476.753
514.718
556.629
601.807
649.43
216.308
227.191
237.835
248.237
258.399
268.327
278.044
287.597
297.061
306.549
316.248
326.476
337.727
350.704
366.309
385.546
409.341
438.35
472.829
512.616
557.194
605.776
657.372
229.365
239.894
250.173
260.197
269.967
279.493
288.803
297.959
307.058
316.253
325.808
336.174
348.045
362.392
380.405
403.304
432.07
467.219
508.72
556.05
608.303
664.284
231.709
242.104
252.239
262.106
271.699
281.02
290.081
298.919
307.614
316.296
325.179
334.644
345.341
358.26
374.74
396.313
424.373
459.816
502.841
552.971
609.178
670.023
234.208
244.449
254.419
264.107
273.503
282.6
291.399
299.916
308.202
316.362
324.573
333.144
342.64
354.013
368.687
388.487
415.294
450.534
494.786
547.706
608.162
674.422
246.912
256.693
266.179
275.354
284.205
292.723
300.909
308.786
316.424
323.965
331.656
339.958
349.728
362.389
379.987
404.926
439.327
484.363
539.975
604.976
677.292
249.467
259.037
268.294
277.222
285.803
294.017
301.854
309.315
316.433
323.308
330.136
337.278
345.448
355.975
371.007
393.43
426.213
471.403
529.473
599.294
678.413
252.091
261.42
270.422
279.074
287.354
295.238
302.703
309.734
316.333
322.55
328.527
334.547
341.171
349.54
361.751
381.039
411.297
455.779
515.875
590.736
677.523
263.816
272.529
280.872
288.818
296.339
303.403
309.982
316.057
321.633
326.785
331.718
336.863
343.134
352.408
368.042
394.788
437.44
498.848
578.849
674.306
266.196
274.586
282.584
290.16
297.281
303.908
310.004
315.532
320.47
324.834
328.735
332.478
336.754
343.114
354.751
377.019
416.457
478.079
563.105
668.374
268.533
276.566
284.182
291.348
298.027
304.178
309.753
314.703
318.983
322.564
325.479
327.901
330.317
333.91
341.444
358.43
393.073
453.323
542.884
659.234
270.796
278.436
285.631
292.345
298.538
304.165
309.172
313.503
317.092
319.881
321.832
323.002
323.691
324.743
328.324
339.537
367.761
424.484
517.489
646.248
272.94
280.152
286.887
293.104
298.761
303.808
308.188
311.838
314.684
316.646
317.649
317.662
316.8
315.573
315.521
320.873
341.253
391.739
486.167
628.563
274.888
281.638
287.876
293.555
298.625
303.032
306.716
309.614
311.648
312.731
312.767
311.669
309.418
306.223
302.996
302.853
314.515
355.711
448.195
604.955
276.487
282.745
288.45
293.547
297.978
301.682
304.596
306.657
307.794
307.925
306.95
304.754
301.22
296.327
290.508
285.734
288.817
317.919
403.23
573.656
277.43
283.143
288.261
292.723
296.448
299.366
301.409
302.516
302.627
301.676
299.581
296.239
291.515
285.289
277.636
269.501
265.327
280.854
351.99
532.556
276.939
281.986
286.405
290.114
292.995
294.967
295.965
295.937
294.838
292.629
289.265
284.678
278.772
271.42
262.511
252.195
242.513
244.578
295.158
479.249
272.835
276.83
280.122
282.625
284.173
284.704
284.187
282.613
279.996
276.363
271.736
266.094
259.404
251.564
247.026
241.797
234.006
218.97
235.79
413.583
256.165
257.909
258.795
258.666
257.286
254.759
251.263
246.999
242.161
236.93
231.455
226.74
223.918
221.681
224.991
230.217
235.156
226.215
203.327
342.981
163.594
156.262
148.127
139.499
130.814
122.657
115.411
109.353
104.725
101.76
100.707
102.771
109.382
119.746
135.049
156.859
186.935
221.276
231.065
237.453
3138.1
3121.25
3104.56
3088
3071.57
3055.26
3039.06
3022.95
3006.91
2990.92
2974.96
2959.02
2943.07
2927.07
2911.02
2894.87
2878.59
2862.15
2845.52
2828.64
2811.48
2794
2776.12
2757.81
2738.98
2719.58
2699.52
2678.71
2657.05
2634.44
2610.74
2585.83
2559.56
2531.75
2502.22
2470.77
2437.18
2401.24
2362.69
2321.33
2276.91
2229.27
2178.28
2123.87
2066.1
2005.12
1941.21
1874.73
1806
1735.12
1661.5
1582.88
1492.3
1363.82
1069.09
3048.02
3031.62
3015.35
2999.22
2983.22
2967.32
2951.53
2935.82
2920.18
2904.59
2889.03
2873.48
2857.92
2842.33
2826.67
2810.93
2795.06
2779.04
2762.83
2746.39
2729.67
2712.64
2695.23
2677.4
2659.08
2640.2
2620.68
2600.44
2579.38
2557.4
2534.38
2510.19
2484.69
2457.72
2429.1
2398.66
2366.18
2331.48
2294.33
2254.53
2211.9
2166.27
2117.56
2065.72
2010.81
1953
1892.5
1829.6
1764.49
1697.01
1626.13
1548.58
1454.66
1311.3
992.422
2960.48
2944.51
2928.67
2912.95
2897.36
2881.87
2866.48
2851.17
2835.92
2820.72
2805.56
2790.4
2775.24
2760.04
2744.78
2729.43
2713.97
2698.36
2682.57
2666.56
2650.29
2633.7
2616.76
2599.41
2581.59
2563.22
2544.24
2524.56
2504.1
2482.74
2460.39
2436.91
2412.17
2386.03
2358.31
2328.86
2297.48
2264
2228.21
2189.95
2149.04
2105.37
2058.85
2009.45
1957.25
1902.36
1844.97
1785.25
1723.19
1658.29
1588.91
1510.42
1410.09
1250.52
927.623
2875.41
2859.86
2844.43
2829.13
2813.93
2798.85
2783.85
2768.93
2754.07
2739.26
2724.48
2709.71
2694.94
2680.13
2665.26
2650.32
2635.26
2620.06
2604.69
2589.1
2573.26
2557.13
2540.65
2523.77
2506.44
2488.58
2470.13
2451.01
2431.13
2410.4
2388.7
2365.92
2341.94
2316.61
2289.79
2261.31
2231.01
2198.73
2164.28
2127.51
2088.29
2046.5
2002.09
1955.03
1905.39
1853.26
1798.75
1741.89
1682.45
1619.54
1550.75
1470.02
1362.15
1189.9
881.667
2792.75
2777.6
2762.58
2747.68
2732.88
2718.18
2703.57
2689.04
2674.56
2660.14
2645.74
2631.35
2616.96
2602.54
2588.07
2573.51
2558.86
2544.06
2529.1
2513.94
2498.53
2482.84
2466.82
2450.41
2433.56
2416.21
2398.29
2379.72
2360.42
2340.29
2319.25
2297.16
2273.93
2249.41
2223.46
2195.95
2166.72
2135.61
2102.47
2067.18
2029.6
1989.65
1947.27
1902.46
1855.25
1805.7
1753.83
1699.52
1642.26
1580.71
1511.64
1427.69
1312.43
1133.49
851.272
2712.42
2697.67
2683.05
2668.53
2654.13
2639.81
2625.58
2611.43
2597.33
2583.28
2569.27
2555.26
2541.25
2527.21
2513.12
2498.96
2484.7
2470.31
2455.76
2441.01
2426.03
2410.77
2395.2
2379.26
2362.89
2346.04
2328.63
2310.61
2291.88
2272.36
2251.95
2230.56
2208.06
2184.34
2159.26
2132.7
2104.52
2074.57
2042.73
2008.87
1972.9
1934.73
1894.32
1851.66
1806.74
1759.58
1710.07
1657.92
1602.31
1541.39
1471.14
1383.23
1261.86
1082.78
831.691
2634.36
2620.01
2605.77
2591.64
2577.61
2563.68
2549.83
2536.04
2522.32
2508.64
2495
2481.37
2467.73
2454.07
2440.36
2426.59
2412.72
2398.73
2384.58
2370.25
2355.69
2340.87
2325.74
2310.25
2294.36
2278
2261.11
2243.62
2225.45
2206.53
2186.75
2166.03
2144.26
2121.33
2097.11
2071.49
2044.34
2015.54
1984.97
1952.52
1918.11
1881.66
1843.13
1802.49
1759.7
1714.68
1667.22
1616.79
1562.24
1501.22
1429.04
1337.21
1212.25
1039.02
819.109
2558.52
2544.55
2530.69
2516.94
2503.28
2489.72
2476.23
2462.82
2449.47
2436.16
2422.88
2409.62
2396.35
2383.06
2369.74
2356.34
2342.86
2329.26
2315.51
2301.58
2287.44
2273.04
2258.35
2243.32
2227.89
2212.02
2195.63
2178.67
2161.06
2142.72
2123.58
2103.53
2082.47
2060.32
2036.95
2012.25
1986.12
1958.44
1929.11
1898.04
1865.13
1830.33
1793.57
1754.8
1713.93
1670.78
1625
1575.81
1521.74
1459.97
1385.54
1290.66
1165.25
1002
810.161
2484.83
2471.23
2457.75
2444.36
2431.07
2417.87
2404.75
2391.7
2378.71
2365.76
2352.84
2339.95
2327.05
2314.13
2301.17
2288.16
2275.05
2261.84
2248.49
2234.96
2221.23
2207.25
2192.99
2178.4
2163.43
2148.03
2132.15
2115.7
2098.64
2080.89
2062.35
2042.96
2022.62
2001.23
1978.69
1954.91
1929.78
1903.19
1875.07
1845.31
1813.84
1780.58
1745.47
1708.4
1669.21
1627.64
1583.14
1534.73
1480.6
1417.67
1341.18
1244.71
1121.75
970.58
802.768
2413.22
2400
2386.88
2373.85
2360.93
2348.08
2335.32
2322.62
2309.99
2297.4
2284.84
2272.3
2259.76
2247.21
2234.62
2221.97
2209.25
2196.41
2183.44
2170.31
2156.98
2143.42
2129.58
2115.43
2100.91
2085.98
2070.58
2054.65
2038.13
2020.94
2003.02
1984.27
1964.63
1943.99
1922.27
1899.38
1875.21
1849.69
1822.73
1794.22
1764.11
1732.29
1698.67
1663.1
1625.35
1585.03
1541.43
1493.34
1438.74
1374.57
1296.66
1200.3
1081.99
943.437
795.811
2343.66
2330.79
2318.03
2305.36
2292.78
2280.29
2267.88
2255.54
2243.25
2231.01
2218.8
2206.62
2194.44
2182.24
2170.01
2157.73
2145.37
2132.91
2120.33
2107.58
2094.65
2081.49
2068.07
2054.34
2040.27
2025.8
2010.88
1995.45
1979.46
1962.83
1945.5
1927.39
1908.43
1888.52
1867.6
1845.57
1822.35
1797.85
1771.98
1744.66
1715.8
1685.29
1653
1618.72
1582.15
1542.75
1499.68
1451.54
1396.28
1331.1
1252.7
1157.98
1045.75
919.41
788.717
2276.07
2263.55
2251.14
2238.82
2226.59
2214.45
2202.38
2190.38
2178.44
2166.54
2154.68
2142.85
2131.01
2119.17
2107.29
2095.37
2083.37
2071.28
2059.07
2046.7
2034.16
2021.4
2008.38
1995.08
1981.44
1967.42
1952.97
1938.03
1922.56
1906.48
1889.73
1872.24
1853.94
1834.75
1814.6
1793.41
1771.08
1747.55
1722.72
1696.49
1668.78
1639.44
1608.3
1575.09
1539.42
1500.65
1457.77
1409.35
1353.47
1287.77
1209.86
1118.01
1012.58
897.606
781.195
2210.4
2198.23
2186.16
2174.18
2162.3
2150.49
2138.76
2127.1
2115.5
2103.94
2092.42
2080.93
2069.44
2057.94
2046.41
2034.84
2023.2
2011.47
1999.62
1987.62
1975.46
1963.08
1950.47
1937.58
1924.36
1910.78
1896.79
1882.34
1867.37
1851.82
1835.63
1818.75
1801.09
1782.6
1763.19
1742.79
1721.32
1698.69
1674.82
1649.6
1622.91
1594.59
1564.42
1532.06
1497.04
1458.59
1415.69
1366.93
1310.66
1245.05
1168.51
1080.39
981.987
877.368
773.099
2146.6
2134.77
2123.04
2111.4
2099.84
2088.37
2076.98
2065.65
2054.38
2043.15
2031.97
2020.8
2009.65
1998.49
1987.3
1976.08
1964.78
1953.4
1941.91
1930.28
1918.49
1906.49
1894.27
1881.77
1868.97
1855.82
1842.28
1828.29
1813.81
1798.78
1783.15
1766.85
1749.82
1731.98
1713.28
1693.63
1672.96
1651.17
1628.18
1603.86
1578.07
1550.62
1521.23
1489.5
1454.87
1416.55
1373.51
1324.51
1268.2
1203.27
1128.83
1044.98
953.521
858.224
764.364
2084.62
2073.12
2061.72
2050.41
2039.18
2028.04
2016.97
2005.96
1995.02
1984.12
1973.26
1962.43
1951.6
1940.77
1929.92
1919.03
1908.07
1897.04
1885.89
1874.62
1863.19
1851.56
1839.71
1827.61
1815.21
1802.48
1789.37
1775.84
1761.84
1747.31
1732.2
1716.46
1700.02
1682.82
1664.79
1645.84
1625.91
1604.9
1582.69
1559.17
1534.15
1507.4
1478.6
1447.3
1412.88
1374.55
1331.39
1282.35
1226.4
1162.69
1090.87
1011.58
926.783
839.838
754.971
2024.41
2013.24
2002.16
1991.16
1980.26
1969.43
1958.68
1948
1937.37
1926.8
1916.26
1905.74
1895.24
1884.73
1874.2
1863.64
1853.02
1842.32
1831.51
1820.58
1809.5
1798.23
1786.76
1775.03
1763.02
1750.7
1738.01
1724.91
1711.37
1697.33
1682.73
1667.52
1651.64
1635.04
1617.63
1599.34
1580.08
1559.76
1538.26
1515.41
1491.02
1464.83
1436.45
1405.39
1371.05
1332.68
1289.5
1240.69
1185.49
1123.44
1054.62
979.963
901.445
821.97
744.93
1965.92
1955.06
1944.3
1933.62
1923.03
1912.51
1902.08
1891.7
1881.39
1871.12
1860.9
1850.69
1840.5
1830.31
1820.1
1809.86
1799.56
1789.18
1778.71
1768.11
1757.37
1746.45
1735.33
1723.97
1712.34
1700.41
1688.12
1675.45
1662.35
1648.77
1634.65
1619.95
1604.61
1588.55
1571.72
1554.03
1535.38
1515.68
1494.77
1472.49
1448.61
1422.81
1394.69
1363.76
1329.44
1291.09
1248.06
1199.73
1145.63
1085.59
1019.99
949.916
877.245
804.452
734.266
1909.1
1898.55
1888.09
1877.72
1867.43
1857.23
1847.09
1837.03
1827.02
1817.06
1807.13
1797.24
1787.35
1777.47
1767.57
1757.63
1747.64
1737.58
1727.43
1717.16
1706.75
1696.17
1685.39
1674.39
1663.12
1651.56
1639.66
1627.4
1614.71
1601.57
1587.91
1573.68
1558.83
1543.29
1526.99
1509.84
1491.73
1472.56
1452.16
1430.33
1406.82
1381.28
1353.31
1322.43
1288.14
1249.91
1207.22
1159.64
1106.92
1049.14
986.863
921.238
853.973
787.164
723.02
1853.89
1843.65
1833.49
1823.42
1813.44
1803.53
1793.69
1783.92
1774.21
1764.55
1754.92
1745.32
1735.73
1726.14
1716.54
1706.91
1697.22
1687.47
1677.62
1667.67
1657.57
1647.32
1636.87
1626.21
1615.29
1604.09
1592.57
1580.68
1568.4
1555.66
1542.43
1528.65
1514.26
1499.19
1483.36
1466.68
1449.05
1430.32
1410.33
1388.84
1365.58
1340.19
1312.29
1281.47
1247.27
1209.29
1167.13
1120.53
1069.42
1014.06
955.128
893.754
831.465
770.027
711.236
1800.27
1790.31
1780.45
1770.68
1760.98
1751.37
1741.82
1732.34
1722.92
1713.54
1704.2
1694.89
1685.59
1676.29
1666.98
1657.64
1648.24
1638.78
1629.24
1619.58
1609.8
1599.85
1589.73
1579.39
1568.8
1557.94
1546.77
1535.25
1523.34
1511
1498.16
1484.79
1470.82
1456.17
1440.76
1424.5
1407.26
1388.9
1369.21
1347.95
1324.84
1299.54
1271.69
1240.95
1206.94
1169.35
1127.9
1082.47
1033.14
980.298
924.663
867.313
809.592
752.985
698.961
1748.17
1738.5
1728.93
1719.44
1710.03
1700.7
1691.43
1682.24
1673.09
1664
1654.94
1645.9
1636.88
1627.86
1618.83
1609.77
1600.66
1591.48
1582.22
1572.86
1563.37
1553.72
1543.9
1533.87
1523.6
1513.07
1502.23
1491.05
1479.49
1467.5
1455.04
1442.04
1428.44
1414.16
1399.13
1383.22
1366.3
1348.21
1328.74
1307.62
1284.59
1259.34
1231.56
1200.96
1167.24
1130.18
1089.6
1045.5
998.074
948.831
897.443
842.824
788.251
736.003
686.243
1697.55
1688.17
1678.88
1669.67
1660.53
1651.48
1642.49
1633.56
1624.69
1615.86
1607.07
1598.31
1589.56
1580.81
1572.05
1563.25
1554.42
1545.51
1536.53
1527.44
1518.23
1508.87
1499.34
1489.6
1479.63
1469.4
1458.88
1448.02
1436.78
1425.12
1412.99
1400.33
1387.06
1373.11
1358.39
1342.76
1326.09
1308.2
1288.86
1267.82
1244.84
1219.64
1191.97
1161.59
1128.27
1091.85
1052.28
1010.67
968.151
923.295
874.642
822.261
768.946
719.055
673.128
1648.38
1639.27
1630.25
1621.31
1612.45
1603.66
1594.93
1586.27
1577.66
1569.1
1560.57
1552.07
1543.58
1535.09
1526.58
1518.05
1509.47
1500.83
1492.11
1483.29
1474.34
1465.25
1455.99
1446.53
1436.84
1426.9
1416.67
1406.1
1395.16
1383.8
1371.97
1359.6
1346.63
1332.96
1318.48
1303.08
1286.59
1268.81
1249.54
1228.54
1205.6
1180.48
1152.98
1122.9
1090.07
1054.43
1018.17
981.533
942.026
899.184
852.981
803.516
751.033
702.128
659.656
1600.61
1591.77
1583.01
1574.33
1565.73
1557.2
1548.73
1540.32
1531.97
1523.66
1515.38
1507.13
1498.89
1490.65
1482.39
1474.11
1465.78
1457.38
1448.91
1440.34
1431.65
1422.81
1413.81
1404.61
1395.19
1385.51
1375.54
1365.24
1354.58
1343.49
1331.92
1319.81
1307.08
1293.63
1279.36
1264.11
1247.72
1230.01
1210.77
1189.8
1166.91
1141.92
1114.64
1084.94
1053.49
1022.07
989.875
954.926
917.068
876.22
832.397
785.715
736.396
688.017
645.862
1554.2
1545.61
1537.11
1528.68
1520.33
1512.05
1503.84
1495.68
1487.57
1479.5
1471.47
1463.45
1455.45
1447.45
1439.43
1431.38
1423.29
1415.13
1406.9
1398.56
1390.11
1381.51
1372.75
1363.79
1354.61
1345.18
1335.45
1325.4
1314.98
1304.12
1292.79
1280.9
1268.36
1255.09
1240.95
1225.79
1209.46
1191.77
1172.54
1151.61
1128.81
1103.99
1077.01
1049.73
1022.75
994.078
963.033
929.457
893.244
854.357
812.834
768.8
722.463
674.134
631.776
1509.25
1500.77
1492.51
1484.33
1476.22
1468.19
1460.21
1452.29
1444.41
1436.58
1428.78