/*--------------------------------*- C++ -*----------------------------------*\
  =========                 |
  \\      /  F ield         | OpenFOAM: The Open Source CFD Toolbox
   \\    /   O peration     | Website:  https://openfoam.org
    \\  /    A nd           | Version:  10
     \\/     M anipulation  |
\*---------------------------------------------------------------------------*/
FoamFile
{
    format      ascii;
    class       volVectorField;
    location    "76000";
    object      U;
}
// * * * * * * * * * * * * * * * * * * * * * * * * * * * * * * * * * * * * * //

dimensions      [0 1 -1 0 0 0 0];

internalField   nonuniform List<vector> 
17981
(
(0.131218 3.20986 8.57878e-22)
(0.127124 3.21587 -8.62463e-22)
(0.123096 3.22165 0)
(0.119134 3.22718 -5.48818e-21)
(0.115238 3.23243 1.21237e-20)
(0.11141 3.23738 -6.58856e-21)
(0.107653 3.24202 0)
(0.103968 3.24633 5.7358e-22)
(0.100359 3.25031 0)
(0.0968289 3.25394 0)
(0.0933801 3.25723 -7.06639e-22)
(0.0900154 3.26017 1.30454e-20)
(0.086737 3.26277 -1.18237e-20)
(0.0835472 3.26503 0)
(0.0804474 3.26697 0)
(0.0774389 3.2686 0)
(0.0745225 3.26993 0)
(0.0716985 3.27097 -1.33575e-20)
(0.0689668 3.27174 1.27964e-20)
(0.066327 3.27226 2.65548e-20)
(0.0637783 3.27254 -2.50405e-20)
(0.0613197 3.27259 -4.01302e-22)
(0.0589497 3.27244 0)
(0.0566668 3.2721 0)
(0.0544693 3.27158 2.5204e-20)
(0.0523551 3.27091 -2.38067e-20)
(0.0503222 3.27008 2.44432e-20)
(0.0483683 3.26912 -2.34789e-20)
(0.0464912 3.26804 -3.64958e-22)
(0.0446887 3.26685 0)
(0.0429582 3.26556 1.76026e-22)
(0.0412974 3.26418 -1.72717e-22)
(0.0397039 3.26273 -1.69375e-22)
(0.0381754 3.26121 2.12581e-20)
(0.0367095 3.25962 -2.04752e-20)
(0.0353038 3.25799 -1.59274e-22)
(0.0339561 3.25631 0)
(0.0326641 3.2546 0)
(0.0314256 3.25285 1.49254e-22)
(0.0302385 3.25108 -1.89377e-20)
(0.0291006 3.24929 -8.52624e-23)
(0.02801 3.24748 1.75936e-20)
(0.0269648 3.24566 6.81519e-23)
(0.0259629 3.24384 0)
(0.0250026 3.24201 0)
(0.0240822 3.24019 0)
(0.0231998 3.23837 0)
(0.0223539 3.23656 -1.57192e-20)
(0.0699346 3.22773 -5.16311e-21)
(0.0651749 3.23407 0)
(0.0604986 3.24017 -1.51873e-20)
(0.0559066 3.24602 3.74894e-20)
(0.0514008 3.25158 -2.13669e-20)
(0.0469837 3.25683 3.23092e-20)
(0.0426581 3.26175 -3.13207e-20)
(0.0384274 3.26632 5.74229e-22)
(0.034295 3.27053 1.28245e-21)
(0.0302641 3.27436 -4.65331e-20)
(0.0263381 3.27783 9.2888e-20)
(0.0225196 3.28092 -4.76871e-20)
(0.0188112 3.28363 0)
(0.0152148 3.28598 1.60873e-21)
(0.0117315 3.28798 -5.41321e-20)
(0.00836232 3.28963 5.18416e-20)
(0.00510735 3.29096 5.49583e-20)
(0.00196632 3.29198 -5.26135e-20)
(-0.00106156 3.2927 8.39491e-22)
(-0.0039775 3.29314 0)
(-0.00678312 3.29333 -4.17408e-22)
(-0.00948036 3.29327 5.42609e-20)
(-0.0120715 3.29299 -5.07846e-20)
(-0.0145589 3.2925 5.34359e-20)
(-0.0169453 3.29183 -1.02391e-19)
(-0.0192334 3.29098 4.94215e-20)
(-0.0214263 3.28997 -5.03555e-20)
(-0.0235269 3.28882 4.83624e-20)
(-0.0255383 3.28754 3.75991e-22)
(-0.0274636 3.28614 0)
(-0.0293059 3.28464 1.81477e-22)
(-0.0310682 3.28305 1.77917e-22)
(-0.0327536 3.28138 -4.49115e-20)
(-0.0343652 3.27963 4.35869e-20)
(-0.0359059 3.27783 -5.03e-22)
(-0.0373785 3.27597 4.25235e-20)
(-0.038786 3.27406 -4.08373e-20)
(-0.0401311 3.27212 0)
(-0.0414164 3.27015 3.9517e-20)
(-0.0426446 3.26815 -7.66228e-20)
(-0.0438181 3.26614 3.70043e-20)
(-0.0449394 3.26411 -3.69159e-20)
(-0.0460109 3.26207 -6.2612e-22)
(-0.0470346 3.26003 3.48482e-20)
(-0.0480129 3.258 0)
(-0.0489478 3.25596 0)
(-0.0498413 3.25393 1.28194e-22)
(-0.0506952 3.25191 -6.33619e-23)
(0.00942076 3.24602 0)
(0.00394784 3.25268 8.41378e-21)
(-0.00142245 3.2591 -9.0016e-21)
(-0.00668837 3.26525 2.17999e-20)
(-0.0118472 3.27111 -2.26885e-20)
(-0.0168956 3.27664 -1.82654e-21)
(-0.0218295 3.28182 0)
(-0.0266447 3.28662 -1.22506e-21)
(-0.0313366 3.29104 -3.96033e-21)
(-0.0359014 3.29506 0)
(-0.040335 3.29867 1.51076e-21)
(-0.0446345 3.30187 3.1153e-21)
(-0.0487972 3.30467 0)
(-0.0528214 3.30707 -1.36383e-23)
(-0.0567061 3.30908 1.68351e-21)
(-0.060451 3.31072 0)
(-0.0640566 3.312 1.13016e-19)
(-0.0675239 3.31295 -1.06391e-19)
(-0.0708547 3.31357 -1.13857e-19)
(-0.0740512 3.31389 1.0813e-19)
(-0.0771159 3.31394 -1.71178e-21)
(-0.0800518 3.31372 0)
(-0.0828623 3.31326 8.40205e-22)
(-0.0855508 3.31259 -8.33566e-22)
(-0.088121 3.31171 8.22204e-22)
(-0.0905767 3.31064 -1.04434e-19)
(-0.092922 3.30941 1.01022e-19)
(-0.0951606 3.30802 -7.86761e-22)
(-0.0972967 3.3065 0)
(-0.0993342 3.30486 9.76214e-20)
(-0.101277 3.30311 2.32074e-21)
(-0.103129 3.30126 -9.36497e-20)
(-0.104894 3.29933 0)
(-0.106576 3.29732 0)
(-0.108178 3.29526 -8.95242e-20)
(-0.109704 3.29314 8.66298e-20)
(-0.111157 3.29097 -3.31669e-22)
(-0.112541 3.28877 0)
(-0.113859 3.28654 3.17781e-22)
(-0.115114 3.28429 -3.10387e-22)
(-0.116309 3.28202 -7.82727e-20)
(-0.117446 3.27974 7.55945e-20)
(-0.11853 3.27746 1.45079e-22)
(-0.119561 3.27518 -1.4236e-22)
(-0.120543 3.2729 -2.77668e-22)
(-0.121478 3.27062 0)
(-0.122369 3.26836 -1.32203e-22)
(-0.123217 3.26612 -6.74512e-20)
(-0.0746344 3.29112 -1.38953e-21)
(-0.080358 3.29692 1.91123e-21)
(-0.0859425 3.30234 7.60717e-20)
(-0.0913819 3.30737 -1.57868e-19)
(-0.0966705 3.31197 8.40629e-20)
(-0.101803 3.31614 -2.88006e-21)
(-0.106774 3.31986 9.97914e-20)
(-0.111581 3.32314 -1.01758e-19)
(-0.116221 3.32597 0)
(-0.120692 3.32837 -1.70854e-21)
(-0.124994 3.33035 1.12457e-19)
(-0.129126 3.33193 -1.09164e-19)
(-0.133091 3.33311 -1.12422e-19)
(-0.136891 3.33393 -8.83036e-21)
(-0.140527 3.33441 1.11044e-19)
(-0.144005 3.33456 -1.15431e-19)
(-0.147326 3.33441 1.1046e-19)
(-0.150497 3.33398 0)
(-0.153521 3.33329 1.1075e-19)
(-0.156403 3.33237 -2.18935e-19)
(-0.159147 3.33124 1.04034e-19)
(-0.16176 3.32991 1.07284e-19)
(-0.164246 3.3284 -1.02135e-19)
(-0.16661 3.32674 -8.08496e-22)
(-0.168858 3.32493 -1.02985e-19)
(-0.170993 3.32299 -6.05799e-22)
(-0.173021 3.32095 -3.55807e-21)
(-0.174948 3.3188 9.71039e-20)
(-0.176776 3.31657 9.56081e-20)
(-0.178512 3.31427 -1.85819e-19)
(-0.180159 3.31191 9.103e-20)
(-0.181722 3.30949 -8.99724e-20)
(-0.183204 3.30703 8.71098e-20)
(-0.184611 3.30453 -8.62463e-20)
(-0.185944 3.30201 -2.15023e-21)
(-0.187209 3.29947 8.14817e-20)
(-0.188409 3.29692 9.40829e-22)
(-0.189546 3.29436 -7.86681e-20)
(-0.190624 3.2918 7.60114e-20)
(-0.191647 3.28925 2.92849e-22)
(-0.192617 3.2867 2.8623e-22)
(-0.193536 3.28417 7.17678e-20)
(-0.194408 3.28165 -6.96881e-20)
(-0.195235 3.27915 0)
(-0.137131 3.31172 -3.76592e-20)
(-0.143581 3.31777 -3.66712e-21)
(-0.149865 3.32342 0)
(-0.155974 3.32863 8.59615e-20)
(-0.1619 3.33339 -8.25684e-20)
(-0.167636 3.33767 5.92231e-21)
(-0.173176 3.34146 6.27194e-21)
(-0.178517 3.34476 0)
(-0.183656 3.34758 0)
(-0.18859 3.34993 -3.46249e-21)
(-0.193321 3.35182 0)
(-0.197849 3.35326 0)
(-0.202178 3.35429 -3.62704e-21)
(-0.20631 3.35493 1.81948e-21)
(-0.21025 3.35519 -1.18747e-19)
(-0.214003 3.35511 1.13539e-19)
(-0.217575 3.3547 -1.15687e-19)
(-0.22097 3.354 1.12454e-19)
(-0.224195 3.35303 1.77096e-21)
(-0.227257 3.35181 0)
(-0.230162 3.35037 -1.12526e-19)
(-0.232916 3.34872 -4.71549e-21)
(-0.235525 3.34689 -4.48064e-21)
(-0.237997 3.34489 1.06646e-19)
(-0.240336 3.34274 -1.05807e-19)
(-0.24255 3.34047 -3.05599e-21)
(-0.244644 3.33808 1.02409e-19)
(-0.246624 3.3356 -1.01041e-19)
(-0.248496 3.33303 9.65535e-20)
(-0.250265 3.33039 0)
(-0.251936 3.32768 9.4583e-20)
(-0.253514 3.32493 -9.26376e-20)
(-0.255005 3.32214 0)
(-0.256412 3.31931 6.90167e-22)
(-0.257741 3.31647 6.74699e-22)
(-0.258995 3.3136 6.61748e-22)
(-0.260178 3.31074 8.2704e-20)
(-0.261295 3.30787 -1.6302e-19)
(-0.262348 3.305 7.97323e-20)
(-0.263342 3.30214 0)
(-0.26428 3.2993 0)
(-0.265164 3.29648 7.47675e-20)
(-0.265998 3.29368 -7.20571e-20)
(-0.266785 3.2909 0)
(-0.19952 3.33302 -3.93089e-20)
(-0.206757 3.33931 -6.3136e-20)
(-0.213795 3.34516 1.42218e-19)
(-0.220621 3.35053 -7.46906e-20)
(-0.227227 3.35539 -9.5026e-20)
(-0.233603 3.35973 8.79178e-20)
(-0.239741 3.36354 -3.21732e-21)
(-0.245638 3.36681 0)
(-0.251291 3.36955 -1.14878e-19)
(-0.2567 3.37177 2.30669e-19)
(-0.261865 3.3735 7.24043e-21)
(-0.26679 3.37475 -1.13888e-19)
(-0.271479 3.37555 -3.68197e-21)
(-0.275937 3.37593 -1.21542e-19)
(-0.28017 3.37591 1.16116e-19)
(-0.284186 3.37553 -1.2095e-19)
(-0.287991 3.3748 -4.53677e-21)
(-0.291594 3.37376 1.15048e-19)
(-0.295001 3.37244 -5.44262e-21)
(-0.298222 3.37086 0)
(-0.301265 3.36905 1.97899e-24)
(-0.304137 3.36702 1.75411e-21)
(-0.306846 3.3648 1.12135e-19)
(-0.3094 3.36242 2.69749e-21)
(-0.311807 3.35989 -2.14785e-19)
(-0.314074 3.35723 1.02841e-19)
(-0.316208 3.35445 -3.24667e-21)
(-0.318216 3.35158 0)
(-0.320105 3.34862 -2.02417e-19)
(-0.321882 3.34559 1.95071e-19)
(-0.323551 3.34251 0)
(-0.32512 3.33938 7.39412e-22)
(-0.326593 3.33622 1.8715e-19)
(-0.327977 3.33303 -1.81365e-19)
(-0.329276 3.32982 0)
(-0.330494 3.32661 -6.81543e-22)
(-0.331638 3.32339 6.68646e-22)
(-0.33271 3.32018 6.53133e-22)
(-0.333716 3.31698 -1.65396e-19)
(-0.334658 3.31379 1.59334e-19)
(-0.335541 3.31063 -6.12996e-22)
(-0.336369 3.30749 -1.54666e-19)
(-0.337144 3.30438 1.49102e-19)
(-0.33787 3.30131 0)
(-0.270165 3.36166 -3.58834e-21)
(-0.278013 3.36767 -4.34491e-21)
(-0.285606 3.37314 0)
(-0.292929 3.37806 -5.5566e-21)
(-0.299973 3.38239 -6.02568e-21)
(-0.30673 3.38613 0)
(-0.313196 3.38929 -1.13319e-19)
(-0.319369 3.39187 1.08047e-19)
(-0.325251 3.39389 0)
(-0.330844 3.39537 -2.43145e-19)
(-0.336155 3.39634 2.35602e-19)
(-0.341188 3.39683 3.77689e-21)
(-0.345953 3.39687 0)
(-0.350458 3.39649 0)
(-0.354712 3.39572 -3.77346e-21)
(-0.358725 3.3946 0)
(-0.362507 3.39316 2.43877e-19)
(-0.366068 3.39142 -4.75201e-19)
(-0.369418 3.38941 4.70684e-19)
(-0.372567 3.38716 -2.2748e-19)
(-0.375526 3.38469 0)
(-0.378302 3.38204 2.28208e-19)
(-0.380907 3.37921 -2.20994e-19)
(-0.383349 3.37624 0)
(-0.385637 3.37313 2.21174e-19)
(-0.387779 3.36992 -4.254e-19)
(-0.389784 3.36661 2.06196e-19)
(-0.391658 3.36322 -2.08275e-19)
(-0.393411 3.35977 1.99206e-19)
(-0.395048 3.35627 -2.00636e-19)
(-0.396576 3.35272 1.93595e-19)
(-0.398002 3.34915 0)
(-0.399332 3.34556 1.87674e-19)
(-0.400572 3.34196 -1.82711e-19)
(-0.401727 3.33836 0)
(-0.402802 3.33476 -1.78471e-19)
(-0.403803 3.33118 1.72575e-19)
(-0.404734 3.32761 -6.62258e-22)
(-0.405598 3.32407 -1.66691e-19)
(-0.406402 3.32056 3.24371e-19)
(-0.407147 3.31708 -1.57216e-19)
(-0.407839 3.31364 1.5657e-19)
(-0.40848 3.31024 1.48189e-21)
(-0.351265 3.39652 -4.99315e-21)
(-0.359328 3.4014 1.63102e-22)
(-0.367051 3.40564 6.21512e-21)
(-0.374428 3.40922 0)
(-0.381456 3.41216 -2.36561e-19)
(-0.388136 3.41448 4.48977e-19)
(-0.394471 3.41619 1.69988e-20)
(-0.400469 3.41733 1.56822e-20)
(-0.406136 3.41793 -2.46955e-19)
(-0.411482 3.41801 -3.8166e-21)
(-0.41652 3.41763 0)
(-0.421259 3.4168 -2.52719e-19)
(-0.425713 3.41557 -6.69452e-21)
(-0.429895 3.41398 2.44924e-19)
(-0.433816 3.41205 0)
(-0.437489 3.40981 8.93616e-24)
(-0.440927 3.40731 3.75791e-21)
(-0.444141 3.40456 -3.72064e-21)
(-0.447145 3.40159 0)
(-0.449948 3.39844 2.33985e-19)
(-0.452563 3.39512 -2.26673e-19)
(-0.455 3.39165 0)
(-0.457269 3.38805 1.74215e-21)
(-0.459379 3.38435 2.2185e-19)
(-0.461342 3.38056 -2.10386e-19)
(-0.463164 3.3767 0)
(-0.464855 3.37278 2.10592e-19)
(-0.466423 3.36882 -2.03207e-19)
(-0.467876 3.36482 1.57364e-21)
(-0.46922 3.3608 0)
(-0.470463 3.35678 1.51281e-21)
(-0.471611 3.35275 0)
(-0.47267 3.34873 -1.87615e-19)
(-0.473646 3.34472 3.65249e-19)
(-0.474544 3.34074 -3.57858e-19)
(-0.47537 3.33678 1.75579e-19)
(-0.476128 3.33286 0)
(-0.476823 3.32897 6.55512e-22)
(-0.477459 3.32513 -1.65295e-19)
(-0.47804 3.32133 3.21154e-19)
(-0.47857 3.31759 -1.58904e-19)
(-0.426774 3.42534 -1.88912e-19)
(-0.435158 3.42936 1.79193e-19)
(-0.443128 3.43267 0)
(-0.450685 3.43528 6.99096e-21)
(-0.457832 3.43722 1.0727e-22)
(-0.464577 3.43852 0)
(-0.470931 3.43921 0)
(-0.476905 3.43932 1.54001e-20)
(-0.482513 3.43891 3.90643e-21)
(-0.487771 3.438 3.9039e-21)
(-0.492692 3.43664 0)
(-0.497293 3.43486 -2.56963e-19)
(-0.50159 3.43271 2.41881e-19)
(-0.505597 3.43022 2.54449e-19)
(-0.50933 3.42743 -2.39925e-19)
(-0.512804 3.42436 -3.8508e-21)
(-0.516033 3.42105 3.81414e-21)
(-0.519031 3.41753 0)
(-0.521813 3.41381 3.729e-21)
(-0.524389 3.40994 2.386e-19)
(-0.526773 3.40593 -2.29619e-19)
(-0.528978 3.40179 -2.35354e-19)
(-0.531012 3.39756 2.25078e-19)
(-0.532887 3.39325 -3.47303e-21)
(-0.534615 3.38888 0)
(-0.536204 3.38445 3.36091e-21)
(-0.537662 3.37999 2.1495e-19)
(-0.538998 3.37551 -2.07626e-19)
(-0.540221 3.37102 2.05641e-19)
(-0.541338 3.36652 -4.00559e-19)
(-0.542356 3.36204 1.95113e-19)
(-0.543282 3.35757 -1.94122e-19)
(-0.544123 3.35312 1.87807e-19)
(-0.544884 3.34871 -7.23187e-22)
(-0.545572 3.34434 1.52059e-24)
(-0.54619 3.34001 6.9583e-22)
(-0.546745 3.33573 0)
(-0.547241 3.33151 -6.67376e-22)
(-0.547682 3.32733 0)
(-0.548072 3.32322 6.48698e-22)
(-0.513075 3.45623 0)
(-0.521095 3.45839 6.90618e-21)
(-0.528641 3.45983 7.32306e-21)
(-0.535726 3.4606 0)
(-0.542365 3.46073 -2.53986e-19)
(-0.548575 3.46027 2.34099e-19)
(-0.554374 3.45926 -7.86383e-21)
(-0.559781 3.45774 -3.99401e-21)
(-0.564815 3.45576 -2.61967e-19)
(-0.569494 3.45336 -1.13807e-20)
(-0.573839 3.45059 2.54532e-19)
(-0.577867 3.44747 0)
(-0.581596 3.44405 -2.58118e-19)
(-0.585044 3.44036 -8.40624e-21)
(-0.588227 3.43643 5.03407e-19)
(-0.591161 3.43229 -2.43744e-19)
(-0.593862 3.42797 -2.48123e-19)
(-0.596345 3.4235 4.80035e-19)
(-0.598622 3.41889 -2.39692e-19)
(-0.600708 3.41418 -1.84127e-21)
(-0.602615 3.40938 -1.81549e-21)
(-0.604353 3.4045 -2.278e-19)
(-0.605935 3.39957 -4.43463e-21)
(-0.607372 3.3946 2.18144e-19)
(-0.608673 3.38961 -1.70483e-21)
(-0.609849 3.38461 0)
(-0.610907 3.37961 -1.6493e-21)
(-0.611857 3.37462 0)
(-0.612706 3.36965 0)
(-0.613461 3.36471 0)
(-0.614129 3.35981 1.53258e-21)
(-0.614717 3.35495 0)
(-0.615231 3.35014 -7.35579e-22)
(-0.615677 3.34539 1.52274e-24)
(-0.616059 3.34069 -7.08074e-22)
(-0.616383 3.33607 1.79716e-19)
(-0.616654 3.3315 -1.72845e-19)
(-0.616875 3.32702 1.7342e-19)
(-0.614798 3.48156 2.56877e-19)
(-0.621151 3.48043 -2.3683e-19)
(-0.627049 3.47873 8.04442e-21)
(-0.632517 3.47652 0)
(-0.637577 3.47385 -2.66522e-19)
(-0.642252 3.47076 2.54903e-19)
(-0.646564 3.4673 -2.01528e-23)
(-0.650535 3.46349 4.05776e-21)
(-0.654184 3.45939 0)
(-0.657533 3.45502 -4.02077e-21)
(-0.6606 3.45043 -4.00237e-21)
(-0.663403 3.44563 -2.57484e-19)
(-0.665959 3.44066 2.47758e-19)
(-0.668285 3.43555 3.88643e-21)
(-0.670395 3.43031 2.63839e-24)
(-0.672304 3.42498 2.4937e-19)
(-0.674027 3.41957 -2.36902e-19)
(-0.675578 3.41411 -1.84551e-21)
(-0.676966 3.4086 -1.81952e-21)
(-0.678204 3.40306 0)
(-0.679304 3.39752 2.27833e-19)
(-0.680275 3.39198 -2.20295e-19)
(-0.681126 3.38645 2.20286e-19)
(-0.681867 3.38094 -2.1483e-19)
(-0.682507 3.37547 -2.12625e-19)
(-0.683052 3.37004 2.07484e-19)
(-0.683511 3.36466 -1.58883e-21)
(-0.68389 3.35933 -1.99493e-19)
(-0.684196 3.35407 1.93276e-19)
(-0.684435 3.34888 -1.92613e-19)
(-0.684612 3.34376 1.88908e-19)
(-0.684733 3.33872 1.85022e-19)
(-0.684803 3.33375 -1.80818e-19)
(-0.684825 3.32887 -7.02013e-22)
(-0.688183 3.50132 0)
(-0.694572 3.49943 -9.62734e-23)
(-0.700469 3.49697 2.67484e-19)
(-0.7059 3.49401 -2.6357e-19)
(-0.710894 3.49059 0)
(-0.715476 3.48675 -8.27332e-21)
(-0.719671 3.48254 4.12206e-21)
(-0.723504 3.478 2.7113e-19)
(-0.726997 3.47317 9.81073e-21)
(-0.730174 3.46809 -2.55283e-19)
(-0.733054 3.46279 -2.62548e-19)
(-0.735658 3.45731 2.56561e-19)
(-0.738005 3.45166 2.61974e-19)
(-0.740112 3.44588 -2.4844e-19)
(-0.741997 3.44 2.60326e-19)
(-0.743674 3.43403 -2.51255e-19)
(-0.745159 3.42799 -3.86297e-21)
(-0.746467 3.42191 2.46711e-19)
(-0.747609 3.4158 -4.76005e-19)
(-0.748598 3.40968 -6.38374e-21)
(-0.749446 3.40357 2.31817e-19)
(-0.750165 3.39746 -2.32351e-19)
(-0.750763 3.39139 2.26657e-19)
(-0.751252 3.38535 -2.23057e-19)
(-0.751639 3.37936 4.38682e-19)
(-0.751933 3.37342 -2.14061e-19)
(-0.752143 3.36755 0)
(-0.752275 3.36175 -1.62389e-21)
(-0.752336 3.35603 1.59414e-21)
(-0.752332 3.35038 -3.13142e-21)
(-0.75227 3.34482 -1.98491e-19)
(-0.752155 3.33936 1.93293e-19)
(-0.751992 3.33398 1.47689e-21)
(-0.751786 3.3287 0)
(-0.762335 3.51962 -2.4298e-19)
(-0.768644 3.51691 2.59158e-19)
(-0.774429 3.51365 -5.34465e-19)
(-0.77972 3.50989 2.67508e-19)
(-0.784549 3.50567 -8.37289e-21)
(-0.788944 3.50104 -2.68653e-19)
(-0.792934 3.49606 2.5715e-19)
(-0.796544 3.49076 2.73095e-19)
(-0.799802 3.48518 -2.70626e-19)
(-0.80273 3.47936 2.71238e-19)
(-0.805351 3.47333 -2.69259e-19)
(-0.807687 3.46713 0)
(-0.809758 3.46079 -4.15029e-21)
(-0.811583 3.45432 2.63184e-19)
(-0.81318 3.44777 -5.22557e-19)
(-0.814566 3.44114 2.555e-19)
(-0.815756 3.43446 2.99224e-24)
(-0.816766 3.42775 0)
(-0.81761 3.42103 -7.79817e-21)
(-0.8183 3.41431 2.50562e-19)
(-0.81885 3.4076 -4.85719e-19)
(-0.81927 3.40093 2.37282e-19)
(-0.819573 3.3943 0)
(-0.819766 3.38772 0)
(-0.819861 3.3812 -2.30151e-19)
(-0.819866 3.37476 4.47637e-19)
(-0.819789 3.36839 -2.1941e-19)
(-0.819638 3.3621 2.18512e-19)
(-0.81942 3.35591 -2.11948e-19)
(-0.819142 3.34981 -2.32603e-24)
(-0.818809 3.34381 -2.06741e-19)
(-0.818427 3.33791 1.99055e-19)
(-0.818003 3.33212 -7.7228e-22)
(-0.81754 3.32643 -1.9783e-19)
(-0.836972 3.53608 7.88635e-21)
(-0.843081 3.53253 0)
(-0.848641 3.52843 8.3849e-21)
(-0.853686 3.52384 0)
(-0.85825 3.5188 2.89815e-19)
(-0.862365 3.51338 -2.7808e-19)
(-0.866061 3.5076 0)
(-0.869367 3.50152 8.67026e-21)
(-0.87231 3.49518 2.88154e-19)
(-0.874915 3.48861 -2.68705e-19)
(-0.877206 3.48185 -4.32231e-21)
(-0.879207 3.47493 4.30389e-21)
(-0.880939 3.46788 2.82614e-19)
(-0.882422 3.46073 -5.44747e-19)
(-0.883674 3.45349 2.66669e-19)
(-0.884714 3.4462 2.79354e-19)
(-0.885557 3.43887 -2.57858e-19)
(-0.886221 3.43153 -2.65052e-19)
(-0.886719 3.42419 5.26442e-19)
(-0.887066 3.41687 -2.53499e-19)
(-0.887274 3.40958 0)
(-0.887355 3.40233 0)
(-0.887321 3.39514 0)
(-0.887182 3.38802 0)
(-0.886948 3.38097 1.86353e-21)
(-0.886629 3.37401 0)
(-0.886232 3.36714 -1.80497e-21)
(-0.885765 3.36037 2.30388e-19)
(-0.885237 3.3537 -2.21868e-19)
(-0.884653 3.34714 -1.88835e-24)
(-0.884021 3.3407 -2.16697e-19)
(-0.883346 3.33437 2.10395e-19)
(-0.882633 3.32816 1.62307e-21)
(-0.881888 3.32207 0)
(-0.917517 3.54599 2.54794e-19)
(-0.922744 3.54104 -2.79391e-19)
(-0.927443 3.53562 5.50952e-19)
(-0.93165 3.52977 -2.63042e-19)
(-0.935398 3.52355 8.85396e-21)
(-0.93872 3.51698 0)
(-0.941644 3.51013 -5.88954e-23)
(-0.944201 3.50304 -8.91238e-21)
(-0.946416 3.49572 2.91337e-19)
(-0.948315 3.48823 -2.71888e-19)
(-0.949921 3.4806 -1.65291e-23)
(-0.951257 3.47285 4.42276e-21)
(-0.952343 3.465 0)
(-0.953199 3.45709 2.83677e-19)
(-0.953844 3.44915 -2.78696e-19)
(-0.954294 3.44117 2.78558e-19)
(-0.954567 3.4332 -5.45346e-19)
(-0.954677 3.42525 2.62777e-19)
(-0.954639 3.41732 4.16641e-21)
(-0.954466 3.40945 0)
(-0.954171 3.40163 0)
(-0.953765 3.39388 -2.58963e-19)
(-0.953258 3.38622 2.51214e-19)
(-0.952663 3.37864 -1.94966e-21)
(-0.951987 3.37117 0)
(-0.951239 3.3638 1.89067e-21)
(-0.950428 3.35655 -1.86049e-21)
(-0.949562 3.34941 0)
(-0.948647 3.3424 2.31773e-19)
(-0.94769 3.33551 -4.51072e-19)
(-0.946696 3.32876 2.21207e-19)
(-0.945672 3.32213 2.17864e-19)
(-0.944622 3.31565 -2.14717e-19)
(-0.991516 3.55706 2.69367e-19)
(-0.996316 3.55129 -2.65524e-19)
(-1.00058 3.54507 8.71137e-21)
(-1.00435 3.53842 2.92981e-19)
(-1.00765 3.53142 -2.72391e-19)
(-1.01053 3.52409 -9.0677e-21)
(-1.01301 3.51649 2.90439e-19)
(-1.01512 3.50865 2.10339e-20)
(-1.01689 3.50062 -2.89572e-19)
(-1.01834 3.49242 -1.38205e-20)
(-1.0195 3.48408 -9.20714e-21)
(-1.02039 3.47564 -3.02828e-19)
(-1.02103 3.46713 5.85015e-19)
(-1.02145 3.45856 -5.81782e-19)
(-1.02166 3.44997 2.80821e-19)
(-1.02168 3.44136 -2.90147e-19)
(-1.02152 3.43277 2.81113e-19)
(-1.02121 3.42421 4.39664e-21)
(-1.02075 3.4157 -2.81505e-19)
(-1.02016 3.40724 2.73036e-19)
(-1.01946 3.39886 4.25467e-21)
(-1.01865 3.39057 0)
(-1.01775 3.38237 0)
(-1.01677 3.37427 -2.63939e-19)
(-1.01571 3.36629 2.56317e-19)
(-1.01458 3.35843 2.54195e-19)
(-1.0134 3.3507 -2.48865e-19)
(-1.01218 3.3431 0)
(-1.01091 3.33564 3.79031e-21)
(-1.0096 3.32832 -2.39937e-19)
(-1.00827 3.32114 2.35018e-19)
(-1.00692 3.31411 2.31598e-19)
(-1.00554 3.30723 -2.30164e-19)
(-1.06462 3.56561 2.69417e-19)
(-1.06891 3.55907 0)
(-1.07267 3.55208 -9.00267e-21)
(-1.07593 3.54469 -1.04878e-22)
(-1.07873 3.53694 -9.29826e-21)
(-1.08111 3.52889 3.16086e-19)
(-1.08309 3.52057 -6.0414e-19)
(-1.0847 3.51203 3.07132e-19)
(-1.08598 3.5033 0)
(-1.08694 3.49441 3.11052e-19)
(-1.08761 3.48541 -2.8627e-19)
(-1.08802 3.47631 0)
(-1.08819 3.46714 3.13427e-19)
(-1.08813 3.45794 -6.06014e-19)
(-1.08787 3.44872 6.07472e-19)
(-1.08743 3.4395 7.19316e-21)
(-1.08681 3.43031 -5.94401e-19)
(-1.08605 3.42116 2.91549e-19)
(-1.08515 3.41206 -7.0677e-24)
(-1.08412 3.40305 2.9182e-19)
(-1.08298 3.39412 -2.92268e-19)
(-1.08175 3.38528 0)
(-1.08043 3.37656 0)
(-1.07903 3.36796 -2.799e-19)
(-1.07757 3.35948 -4.02112e-21)
(-1.07605 3.35114 2.68297e-19)
(-1.07449 3.34294 0)
(-1.07288 3.33488 0)
(-1.07124 3.32698 -2.00089e-21)
(-1.06957 3.31923 -1.96862e-21)
(-1.06789 3.31164 -3.87229e-21)
(-1.06618 3.30421 2.46833e-19)
(-1.06447 3.29695 -4.87603e-19)
(-1.14008 3.56437 2.74691e-19)
(-1.14328 3.55668 3.02123e-19)
(-1.14599 3.54859 -2.99713e-19)
(-1.14824 3.54015 -3.03045e-19)
(-1.15008 3.53142 2.914e-19)
(-1.15152 3.52243 0)
(-1.15261 3.51323 -9.86031e-21)
(-1.15336 3.50384 3.22307e-19)
(-1.1538 3.49431 2.13796e-20)
(-1.15396 3.48467 -6.45666e-19)
(-1.15386 3.47494 3.07924e-19)
(-1.15352 3.46515 3.1709e-19)
(-1.15297 3.45534 -3.12132e-19)
(-1.15222 3.44551 0)
(-1.15129 3.4357 -3.17356e-19)
(-1.1502 3.42593 6.23109e-19)
(-1.14896 3.41621 -3.10764e-19)
(-1.14759 3.40656 -4.79703e-21)
(-1.14611 3.39699 0)
(-1.14452 3.38753 4.70532e-21)
(-1.14285 3.37817 0)
(-1.14109 3.36894 0)
(-1.13927 3.35984 -2.90803e-19)
(-1.13739 3.35088 2.87196e-19)
(-1.13546 3.34207 0)
(-1.13349 3.33341 0)
(-1.13149 3.32491 -2.15001e-21)
(-1.12947 3.31658 -2.74914e-19)
(-1.12743 3.30841 2.65316e-19)
(-1.12538 3.30042 3.62037e-25)
(-1.12332 3.2926 -2.61617e-19)
(-1.12126 3.28496 2.58177e-19)
(-1.2094 3.56727 3.01844e-19)
(-1.21201 3.55893 -2.80676e-19)
(-1.21414 3.55021 3.07164e-19)
(-1.21583 3.54115 -3.24646e-19)
(-1.2171 3.5318 -3.16787e-19)
(-1.21798 3.5222 3.05391e-19)
(-1.21852 3.51238 0)
(-1.21872 3.50238 0)
(-1.21863 3.49225 -3.36452e-19)
(-1.21826 3.48201 3.25824e-19)
(-1.21764 3.47168 1.55494e-20)
(-1.21678 3.46131 5.17568e-21)
(-1.21572 3.45091 5.1691e-21)
(-1.21447 3.44052 -3.34906e-19)
(-1.21304 3.43014 -8.13613e-21)
(-1.21146 3.41981 3.237e-19)
(-1.20974 3.40955 3.29041e-19)
(-1.20789 3.39936 -3.19768e-19)
(-1.20594 3.38926 0)
(-1.2039 3.37928 0)
(-1.20177 3.36942 -3.17179e-19)
(-1.19957 3.35969 3.13267e-19)
(-1.19731 3.35011 3.0986e-19)
(-1.195 3.34067 -6.09728e-19)
(-1.19266 3.3314 2.97637e-19)
(-1.19028 3.3223 -2.97779e-19)
(-1.18788 3.31337 5.85518e-19)
(-1.18546 3.30462 -2.83347e-19)
(-1.18304 3.29605 0)
(-1.18062 3.28766 2.82366e-19)
(-1.1782 3.27946 -5.48257e-19)
(-1.17579 3.27145 2.69929e-19)
(-1.27653 3.5679 -2.86785e-19)
(-1.27853 3.55901 -9.70454e-21)
(-1.28007 3.54973 9.9665e-21)
(-1.28117 3.54012 3.33392e-19)
(-1.28187 3.53021 -3.11452e-19)
(-1.28219 3.52004 2.09523e-20)
(-1.28217 3.50967 -3.46713e-19)
(-1.28183 3.49912 -1.38154e-20)
(-1.28119 3.48842 3.27764e-19)
(-1.28029 3.47762 1.08017e-20)
(-1.27914 3.46675 -1.08958e-20)
(-1.27777 3.45582 -5.45409e-21)
(-1.27619 3.44488 -5.45198e-21)
(-1.27443 3.43394 -5.42103e-21)
(-1.2725 3.42303 0)
(-1.27042 3.41217 0)
(-1.26822 3.40138 -5.35401e-21)
(-1.2659 3.39067 0)
(-1.26347 3.38007 -3.46986e-19)
(-1.26096 3.36959 -1.15351e-20)
(-1.25838 3.35923 6.59648e-19)
(-1.25573 3.34903 -6.63338e-19)
(-1.25303 3.33897 3.22956e-19)
(-1.2503 3.32908 -5.02456e-21)
(-1.24753 3.31937 -2.48198e-21)
(-1.24474 3.30983 0)
(-1.24194 3.30048 3.11695e-19)
(-1.23913 3.29132 -6.10667e-19)
(-1.23632 3.28235 2.99095e-19)
(-1.23352 3.27358 0)
(-1.23074 3.26501 2.95562e-19)
(-1.22797 3.25664 -2.87338e-19)
(-1.34115 3.56649 -3.183e-19)
(-1.34255 3.55712 6.25538e-19)
(-1.3435 3.54736 -3.17114e-19)
(-1.34402 3.53726 1.05591e-20)
(-1.34416 3.52686 -3.62863e-19)
(-1.34392 3.5162 -1.69693e-20)
(-1.34335 3.50532 7.19005e-19)
(-1.34247 3.49426 -3.61806e-19)
(-1.3413 3.48306 3.68151e-19)
(-1.33987 3.47175 -3.6854e-19)
(-1.3382 3.46036 0)
(-1.33631 3.44892 0)
(-1.33423 3.43747 -5.71149e-21)
(-1.33196 3.42602 3.76753e-19)
(-1.32954 3.4146 -3.60629e-19)
(-1.32698 3.40323 -5.67773e-21)
(-1.32429 3.39194 -3.66448e-19)
(-1.32149 3.38074 3.5654e-19)
(-1.3186 3.36964 -3.50411e-19)
(-1.31563 3.35868 3.57513e-19)
(-1.31259 3.34785 3.61033e-19)
(-1.3095 3.33718 5.94656e-21)
(-1.30636 3.32667 -3.42834e-19)
(-1.3032 3.31634 5.34694e-21)
(-1.30001 3.30619 -3.37813e-19)
(-1.29681 3.29623 3.28958e-19)
(-1.2936 3.28647 -2.57296e-21)
(-1.2904 3.27691 0)
(-1.28721 3.26755 -3.22507e-19)
(-1.28404 3.25841 -3.61515e-21)
(-1.2809 3.24948 -5.83013e-21)
(-1.27778 3.24077 3.08948e-19)
(-1.40303 3.56327 3.38015e-19)
(-1.40385 3.55351 -3.06112e-19)
(-1.40423 3.54334 1.05391e-20)
(-1.4042 3.53283 1.08458e-20)
(-1.40378 3.522 1.11093e-20)
(-1.40301 3.5109 3.61952e-19)
(-1.40191 3.49958 -7.52278e-19)
(-1.40051 3.48807 3.79147e-19)
(-1.39882 3.47641 1.1888e-20)
(-1.39688 3.46464 0)
(-1.39471 3.45278 -4.02393e-19)
(-1.39232 3.44086 -1.20634e-20)
(-1.38974 3.42893 3.86486e-19)
(-1.38699 3.417 0)
(-1.38408 3.4051 -3.90835e-19)
(-1.38104 3.39325 3.86357e-19)
(-1.37788 3.38148 1.1989e-20)
(-1.37461 3.36981 3.86007e-19)
(-1.37126 3.35825 1.76574e-21)
(-1.36784 3.34682 -3.67734e-19)
(-1.36436 3.33553 0)
(-1.36083 3.32441 -3.74424e-19)
(-1.35726 3.31346 -5.9996e-21)
(-1.35367 3.3027 3.66938e-19)
(-1.35007 3.29212 -3.57148e-19)
(-1.34647 3.28175 3.56239e-19)
(-1.34287 3.27159 2.74886e-21)
(-1.33928 3.26164 0)
(-1.33571 3.25191 0)
(-1.33217 3.2424 2.63381e-21)
(-1.32867 3.23312 2.59476e-21)
(-1.3252 3.22406 0)
(-1.46201 3.5585 3.49362e-19)
(-1.46228 3.54843 -3.1708e-19)
(-1.46213 3.53794 3.53533e-19)
(-1.46157 3.52708 -3.64245e-19)
(-1.46064 3.51589 -1.23909e-22)
(-1.45936 3.50443 0)
(-1.45776 3.49272 0)
(-1.45585 3.48081 4.02106e-19)
(-1.45368 3.46874 -8.08813e-19)
(-1.45125 3.45654 3.94449e-19)
(-1.4486 3.44425 1.2681e-20)
(-1.44573 3.4319 0)
(-1.44268 3.41953 -4.13971e-19)
(-1.43946 3.40715 -1.13627e-20)
(-1.43608 3.39479 8.17312e-19)
(-1.43258 3.38249 -4.09533e-19)
(-1.42897 3.37027 4.11844e-19)
(-1.42525 3.35814 -3.9495e-19)
(-1.42146 3.34613 0)
(-1.41759 3.33425 -1.25441e-20)
(-1.41368 3.32252 6.22074e-21)
(-1.40972 3.31097 3.99052e-19)
(-1.40574 3.29959 -3.82855e-19)
(-1.40174 3.2884 -6.07694e-21)
(-1.39773 3.27741 -1.20148e-20)
(-1.39373 3.26664 -3.82909e-19)
(-1.38974 3.25608 3.73212e-19)
(-1.38577 3.24575 3.73387e-19)
(-1.38184 3.23565 7.3113e-21)
(-1.37794 3.22578 -3.61746e-19)
(-1.37408 3.21615 -3.63293e-19)
(-1.37027 3.20676 -3.75381e-21)
(-1.518 3.55245 -1.97262e-19)
(-1.51777 3.54215 1.58932e-19)
(-1.51711 3.5314 1.9014e-19)
(-1.51607 3.52027 -1.84183e-19)
(-1.51466 3.5088 3.89421e-19)
(-1.51291 3.49703 -3.89462e-19)
(-1.51084 3.48499 0)
(-1.50848 3.47274 1.28842e-20)
(-1.50585 3.46031 4.2786e-19)
(-1.50297 3.44773 -4.15936e-19)
(-1.49986 3.43506 0)
(-1.49654 3.42231 1.34029e-20)
(-1.49305 3.40952 1.34663e-20)
(-1.48938 3.39672 0)
(-1.48557 3.38394 0)
(-1.48163 3.37121 6.79134e-21)
(-1.47758 3.35855 -1.35343e-20)
(-1.47344 3.34599 4.299e-19)
(-1.46921 3.33354 -4.19047e-19)
(-1.46493 3.32123 2.12082e-23)
(-1.4606 3.30908 -1.32953e-20)
(-1.45623 3.29709 0)
(-1.45184 3.28529 4.15984e-19)
(-1.44744 3.27369 -4.12049e-19)
(-1.44304 3.2623 6.4334e-21)
(-1.43865 3.25113 -3.17515e-21)
(-1.43429 3.24018 0)
(-1.42995 3.22948 -3.10105e-21)
(-1.42566 3.21901 -6.07949e-24)
(-1.4214 3.20879 -3.86136e-19)
(-1.4172 3.19882 3.79255e-19)
(-1.41306 3.1891 0)
(-1.57097 3.54538 -2.173e-20)
(-1.57028 3.53492 1.91359e-19)
(-1.56918 3.524 -1.97262e-19)
(-1.56769 3.51267 2.17468e-19)
(-1.56585 3.50097 -1.86136e-19)
(-1.56367 3.48895 -2.15342e-19)
(-1.56118 3.47665 2.09179e-19)
(-1.5584 3.4641 -2.50211e-19)
(-1.55535 3.45136 2.44532e-19)
(-1.55205 3.43845 1.39582e-20)
(-1.54853 3.42543 1.40989e-20)
(-1.5448 3.41231 -2.85018e-20)
(-1.54089 3.39915 -1.43704e-20)
(-1.53681 3.38596 -4.67025e-19)
(-1.53259 3.37279 9.30258e-19)
(-1.52824 3.35965 -4.63314e-19)
(-1.52378 3.34658 -4.59861e-19)
(-1.51923 3.3336 -1.0242e-20)
(-1.5146 3.32073 4.47308e-19)
(-1.50992 3.308 7.15755e-21)
(-1.50519 3.29543 7.11809e-21)
(-1.50043 3.28303 0)
(-1.49565 3.27082 -6.99848e-21)
(-1.49086 3.25881 0)
(-1.48609 3.24702 -6.87567e-21)
(-1.48133 3.23545 4.4945e-19)
(-1.4766 3.22413 -8.6259e-19)
(-1.4719 3.21305 4.23434e-19)
(-1.46726 3.20222 4.20113e-19)
(-1.46266 3.19165 -4.15996e-19)
(-1.45813 3.18134 3.2011e-21)
(-1.45366 3.17129 -3.19266e-21)
(-1.62095 3.53751 1.9722e-19)
(-1.61985 3.52698 0)
(-1.61835 3.51596 -2.07876e-19)
(-1.61648 3.5045 1.88611e-19)
(-1.61425 3.49264 -2.48214e-19)
(-1.6117 3.48043 -1.17409e-20)
(-1.60883 3.46791 2.34597e-19)
(-1.60568 3.45513 -2.3551e-19)
(-1.60225 3.44212 2.14718e-19)
(-1.59858 3.42893 -2.71692e-19)
(-1.59469 3.4156 2.20797e-19)
(-1.59058 3.40216 -2.15996e-19)
(-1.5863 3.38865 2.55387e-19)
(-1.58184 3.37511 -1.52866e-20)
(-1.57724 3.36156 2.41622e-19)
(-1.57251 3.34804 -2.35582e-19)
(-1.56767 3.33457 7.68752e-21)
(-1.56274 3.32119 0)
(-1.55773 3.30792 0)
(-1.55266 3.29478 0)
(-1.54756 3.2818 0)
(-1.54242 3.26899 4.88516e-19)
(-1.53727 3.25637 -4.69229e-19)
(-1.53212 3.24396 0)
(-1.52698 3.23178 -4.68912e-19)
(-1.52186 3.21983 -1.40763e-20)
(-1.51678 3.20812 4.63469e-19)
(-1.51174 3.19667 3.57966e-21)
(-1.50676 3.18547 -3.52724e-21)
(-1.50183 3.17455 4.48677e-19)
(-1.49697 3.1639 -8.79658e-19)
(-1.49219 3.15353 4.44073e-19)
(-1.668 3.52906 2.3606e-20)
(-1.66655 3.51852 -2.34209e-19)
(-1.66472 3.50747 2.16131e-19)
(-1.66251 3.49595 -2.26131e-19)
(-1.65996 3.484 2.33972e-19)
(-1.65708 3.47166 0)
(-1.65389 3.45899 -2.98691e-20)
(-1.65041 3.44602 2.64877e-19)
(-1.64666 3.43281 -5.05464e-21)
(-1.64266 3.41938 -4.88543e-19)
(-1.63844 3.40578 -9.19892e-21)
(-1.634 3.39205 2.5352e-19)
(-1.62937 3.37823 -1.62942e-20)
(-1.62458 3.36435 2.65493e-19)
(-1.61963 3.35046 -2.59116e-19)
(-1.61455 3.33657 0)