/*--------------------------------*- C++ -*----------------------------------*\
  =========                 |
  \\      /  F ield         | OpenFOAM: The Open Source CFD Toolbox
   \\    /   O peration     | Website:  https://openfoam.org
    \\  /    A nd           | Version:  10
     \\/     M anipulation  |
\*---------------------------------------------------------------------------*/
FoamFile
{
    format      ascii;
    class       volScalarField;
    location    "10000";
    object      omega;
}
// * * * * * * * * * * * * * * * * * * * * * * * * * * * * * * * * * * * * * //

dimensions      [0 0 -1 0 0 0 0];

internalField   nonuniform List<scalar> 
17808
(
15116.1
6089.95
3472.9
2387.26
1803.93
1442.94
1198.5
1022.37
889.578
785.939
702.832
634.717
577.878
529.73
488.422
452.591
421.216
393.512
368.869
346.807
326.938
308.951
292.591
277.645
263.937
251.32
239.669
228.876
218.85
209.512
200.794
192.637
184.987
177.8
171.035
164.656
158.632
152.933
147.535
142.414
137.551
132.926
128.523
124.327
120.324
116.5
112.846
109.349
106.001
102.793
99.716
96.7629
93.9268
91.2011
88.58
86.0578
83.6295
81.2903
79.0357
76.8616
74.764
72.7393
70.7842
68.8955
67.0701
65.3052
63.5981
61.9465
60.3479
58.8003
57.3014
55.8494
54.4424
53.0786
51.7564
50.474
49.2302
48.0234
46.8523
45.7156
44.6121
43.5407
42.5001
41.4895
40.5077
39.5539
38.6271
37.7265
36.8512
36.0005
35.1735
34.3697
15115.5
6088.82
3473.94
2388.66
1805.26
1444.08
1199.45
1023.16
890.226
786.477
703.28
635.092
578.195
530
488.652
452.789
421.387
393.66
368.999
346.92
327.038
309.04
292.669
277.714
263.999
251.376
239.718
228.92
218.89
209.548
200.827
192.666
185.014
177.825
171.058
164.677
158.65
152.95
147.55
142.429
137.564
132.938
128.535
124.337
120.333
116.509
112.854
109.357
106.008
102.8
99.7222
96.7687
93.9322
91.2062
88.5848
86.0624
83.6338
81.2944
79.0396
76.8652
74.7675
72.7427
70.7874
68.8985
67.073
65.3079
63.6008
61.9491
60.3505
58.8027
57.3038
55.8517
54.4447
53.0808
51.7585
50.4761
49.2322
48.0254
46.8542
45.7175
44.614
43.5425
42.5019
41.4913
40.5095
39.5556
38.6288
37.7282
36.8529
36.0021
35.1751
34.3713
15117.5
6087.43
3474.39
2389.26
1805.86
1444.65
1199.96
1023.61
890.619
786.819
703.579
635.354
578.424
530.201
488.83
452.946
421.526
393.783
369.108
347.018
327.125
309.118
292.739
277.777
264.056
251.427
239.764
228.962
218.928
209.583
200.858
192.695
185.04
177.848
171.079
164.696
158.668
152.967
147.566
142.443
137.577
132.95
128.545
124.347
120.342
116.518
112.862
109.364
106.015
102.806
99.7282
96.7743
93.9375
91.2112
88.5894
86.0667
83.638
81.2983
79.0433
76.8687
74.7708
72.7458
70.7904
68.9014
67.0757
65.3106
63.6034
61.9516
60.3529
58.8051
57.3061
55.8539
54.4468
53.0829
51.7605
50.4781
49.2342
48.0273
46.8561
45.7194
44.6158
43.5443
42.5037
41.493
40.5112
39.5574
38.6305
37.7299
36.8546
36.0038
35.1768
34.3729
15119.1
6086.21
3474.61
2389.61
1806.25
1445.03
1200.32
1023.92
890.898
787.065
703.797
635.548
578.597
530.356
488.968
453.071
421.638
393.885
369.2
347.101
327.2
309.186
292.801
277.833
264.107
251.473
239.807
229.001
218.963
209.615
200.888
192.722
185.065
177.871
171.1
164.716
158.686
152.983
147.581
142.456
137.59
132.962
128.556
124.358
120.352
116.527
112.87
109.372
106.022
102.813
99.7344
96.7801
93.9429
91.2163
88.5942
86.0713
83.6422
81.3023
79.0471
76.8724
74.7743
72.7491
70.7936
68.9044
67.0786
65.3134
63.606
61.9542
60.3554
58.8075
57.3084
55.8562
54.449
53.085
51.7626
50.4802
49.2362
48.0293
46.8581
45.7213
44.6177
43.5462
42.5056
41.4949
40.513
39.5592
38.6323
37.7317
36.8563
36.0055
35.1785
34.3746
15120.6
6084.71
3474.4
2389.64
1806.41
1445.25
1200.54
1024.14
891.097
787.246
703.959
635.694
578.729
530.476
489.077
453.17
421.728
393.968
369.276
347.17
327.264
309.244
292.855
277.883
264.153
251.515
239.845
229.036
218.996
209.645
200.916
192.747
185.089
177.893
171.12
164.734
158.703
152.999
147.595
142.47
137.602
132.974
128.567
124.368
120.361
116.535
112.878
109.38
106.03
102.819
99.7407
96.7861
93.9485
91.2215
88.5992
86.0759
83.6466
81.3065
79.0511
76.8761
74.7778
72.7526
70.7968
68.9075
67.0816
65.3162
63.6088
61.9568
60.358
58.81
57.3109
55.8586
54.4513
53.0873
51.7648
50.4823
49.2383
48.0314
46.8601
45.7233
44.6197
43.5481
42.5075
41.4968
40.515
39.5611
38.6342
37.7335
36.8582
36.0074
35.1804
34.3764
15122.1
6083.25
3473.98
2389.5
1806.43
1445.34
1200.67
1024.28
891.23
787.371
704.076
635.802
578.829
530.567
489.162
453.248
421.801
394.035
369.338
347.228
327.318
309.294
292.901
277.926
264.193
251.552
239.88
229.068
219.026
209.673
200.941
192.771
185.111
177.914
171.139
164.752
158.72
153.014
147.61
142.484
137.615
132.985
128.578
124.378
120.371
116.544
112.887
109.387
106.037
102.826
99.7472
96.7921
93.9542
91.2269
88.6043
86.0808
83.6512
81.3108
79.0552
76.88
74.7816
72.7561
70.8002
68.9108
67.0847
65.3192
63.6117
61.9596
60.3607
58.8126
57.3134
55.8611
54.4538
53.0897
51.7671
50.4846
49.2405
48.0335
46.8623
45.7254
44.6218
43.5502
42.5095
41.4988
40.5169
39.563
38.6362
37.7355
36.8601
36.0093
35.1823
34.3784
15123.4
6082.02
3473.52
2389.31
1806.38
1445.37
1200.74
1024.36
891.32
787.46
704.161
635.882
578.904
530.637
489.227
453.31
421.858
394.089
369.389
347.276
327.363
309.336
292.94
277.963
264.227
251.585
239.911
229.097
219.053
209.698
200.965
192.794
185.132
177.933
171.158
164.769
158.736
153.029
147.624
142.497
137.627
132.997
128.589
124.388
120.38
116.553
112.895
109.395
106.044
102.833
99.7537
96.7983
93.96
91.2324
88.6095
86.0857
83.6559
81.3153
79.0594
76.8841
74.7854
72.7598
70.8038
68.9141
67.0879
65.3223
63.6147
61.9625
60.3635
58.8154
57.3161
55.8637
54.4563
53.0921
51.7695
50.4869
49.2428
48.0358
46.8645
45.7276
44.6239
43.5523
42.5117
41.5009
40.519
39.5651
38.6382
37.7375
36.8621
36.0113
35.1843
34.3804
15124.6
6080.99
3473.05
2389.1
1806.3
1445.36
1200.77
1024.41
891.381
787.524
704.224
635.943
578.961
530.692
489.279
453.358
421.905
394.132
369.43
347.315
327.4
309.372
292.974
277.995
264.257
251.614
239.938
229.123
219.077
209.721
200.986
192.814
185.151
177.951
171.175
164.785
158.751
153.043
147.637
142.509
137.639
133.008
128.6
124.398
120.39
116.562
112.903
109.403
106.052
102.84
99.7603
96.8046
93.966
91.238
88.6148
86.0908
83.6607
81.3199
79.0638
76.8883
74.7894
72.7636
70.8074
68.9176
67.0913
65.3256
63.6178
61.9656
60.3664
58.8182
57.3189
55.8664
54.4589
53.0947
51.772
50.4894
49.2453
48.0382
46.8668
45.7299
44.6262
43.5546
42.5139
41.5031
40.5212
39.5673
38.6404
37.7396
36.8643
36.0134
35.1864
34.3825
15125.6
6080.13
3472.6
2388.88
1806.19
1445.32
1200.77
1024.44
891.42
787.568
704.27
635.988
579.006
530.734
489.32
453.397
421.942
394.168
369.464
347.347
327.431
309.401
293.002
278.022
264.283
251.638
239.961
229.145
219.098
209.741
201.006
192.832
185.168
177.968
171.19
164.8
158.765
153.057
147.65
142.521
137.651
133.019
128.61
124.408
120.399
116.571
112.912
109.411
106.059
102.847
99.767
96.8109
93.972
91.2437
88.6202
86.0959
83.6656
81.3246
79.0683
76.8925
74.7935
72.7675
70.8112
68.9213
67.0948
65.329
63.6211
61.9687
60.3695
58.8212
57.3218
55.8692
54.4617
53.0974
51.7747
50.492
49.2478
48.0407
46.8693
45.7323
44.6286
43.5569
42.5162
41.5054
40.5235
39.5695
38.6426
37.7419
36.8665
36.0157
35.1886
34.3847
15126.5
6079.38
3472.15
2388.66
1806.07
1445.26
1200.75
1024.44
891.441
787.597
704.303
636.022
579.039
530.768
489.352
453.428
421.972
394.197
369.492
347.374
327.457
309.427
293.027
278.045
264.306
251.66
239.982
229.165
219.117
209.76
201.023
192.849
185.184
177.983
171.205
164.814
158.778
153.07
147.662
142.533
137.661
133.029
128.62
124.417
120.408
116.579
112.92
109.419
106.066
102.854
99.7736
96.8172
93.978
91.2495
88.6257
86.1012
83.6707
81.3294
79.0729
76.8969
74.7977
72.7716
70.8151
68.925
67.0984
65.3324
63.6245
61.972
60.3727
58.8243
57.3248
55.8721
54.4645
53.1002
51.7774
50.4947
49.2504
48.0433
46.8718
45.7348
44.6311
43.5594
42.5187
41.5078
40.5259
39.5719
38.645
37.7443
36.8688
36.018
35.1909
34.387
15127.2
6078.76
3471.75
2388.44
1805.94
1445.19
1200.72
1024.44
891.45
787.615
704.325
636.047
579.065
530.793
489.377
453.453
421.996
394.22
369.515
347.397
327.479
309.448
293.047
278.065
264.325
251.679
240
229.183
219.134
209.776
201.039
192.864
185.199
177.997
171.219
164.827
158.791
153.082
147.673
142.544
137.672
133.039
128.629
124.426
120.417
116.588
112.928
109.426
106.074
102.861
99.7803
96.8236
93.9841
91.2553
88.6313
86.1065
83.6758
81.3343
79.0776
76.9015
74.8021
72.7758
70.8191
68.9289
67.1022
65.3361
63.628
61.9754
60.376
58.8275
57.3279
55.8752
54.4675
53.1031
51.7803
50.4975
49.2532
48.046
46.8745
45.7375
44.6337
43.562
42.5212
41.5104
40.5284
39.5744
38.6475
37.7467
36.8713
36.0204
35.1934
34.3894
15127.8
6078.23
3471.37
2388.23
1805.82
1445.11
1200.68
1024.42
891.448
787.623
704.339
636.064
579.084
530.813
489.397
453.473
422.016
394.24
369.534
347.416
327.497
309.466
293.065
278.083
264.342
251.695
240.016
229.198
219.149
209.791
201.054
192.878
185.212
178.01
171.231
164.839
158.803
153.093
147.684
142.554
137.682
133.049
128.638
124.435
120.425
116.596
112.935
109.434
106.081
102.868
99.7869
96.8299
93.9902
91.2612
88.6369
86.1119
83.6809
81.3393
79.0824
76.9061
74.8065
72.78
70.8232
68.9329
67.106
65.3398
63.6316
61.9789
60.3794
58.8309
57.3312
55.8784
54.4706
53.1062
51.7833
50.5004
49.2561
48.0488
46.8773
45.7403
44.6364
43.5647
42.5239
41.513
40.5311
39.5771
38.6501
37.7493
36.8739
36.023
35.1959
34.392
15128.3
6077.78
3471.03
2388.04
1805.69
1445.04
1200.63
1024.39
891.438
787.623
704.346
636.076
579.098
530.828
489.413
453.489
422.032
394.256
369.55
347.431
327.513
309.481
293.08
278.097
264.357
251.71
240.03
229.212
219.163
209.804
201.067
192.891
185.225
178.022
171.243
164.85
158.813
153.103
147.694
142.564
137.691
133.058
128.647
124.444
120.433
116.604
112.943
109.441
106.088
102.875
99.7935
96.8362
93.9963
91.267
88.6426
86.1173
83.6862
81.3443
79.0872
76.9108
74.8111
72.7844
70.8275
68.937
67.11
65.3437
63.6354
61.9826
60.383
58.8344
57.3346
55.8817
54.4739
53.1094
51.7864
50.5035
49.2591
48.0518
46.8803
45.7432
44.6393
43.5675
42.5267
41.5158
40.5339
39.5798
38.6529
37.7521
36.8766
36.0257
35.1986
34.3946
15128.7
6077.39
3470.73
2387.85
1805.57
1444.96
1200.58
1024.36
891.422
787.618
704.348
636.082
579.107
530.839
489.425
453.502
422.045
394.269
369.564
347.445
327.526
309.494
293.093
278.111
264.37
251.722
240.043
229.225
219.175
209.816
201.078
192.902
185.236
178.033
171.253
164.861
158.824
153.113
147.704
142.573
137.701
133.067
128.656
124.452
120.441
116.611
112.951
109.448
106.095
102.882
99.8
96.8426
94.0023
91.2729
88.6483
86.1228
83.6915
81.3495
79.0922
76.9156
74.8157
72.789
70.8319
68.9413
67.1142
65.3477
63.6393
61.9864
60.3867
58.838
57.3381
55.8852
54.4773
53.1127
51.7897
50.5067
49.2623
48.0549
46.8834
45.7462
44.6423
43.5705
42.5297
41.5188
40.5368
39.5827
38.6558
37.7549
36.8795
36.0285
35.2014
34.3975
15129
6077.07
3470.46
2387.68
1805.46
1444.88
1200.52
1024.33
891.402
787.608
704.345
636.084
579.112
530.847
489.434
453.512
422.056
394.28
369.575
347.456
327.538
309.506
293.105
278.122
264.381
251.734
240.054
229.236
219.186
209.827
201.089
192.913
185.246
178.043
171.263
164.871
158.833
153.123
147.713
142.582
137.709
133.075
128.664
124.46
120.449
116.619
112.958
109.455
106.102
102.888
99.8065
96.8488
94.0084
91.2788
88.654
86.1284
83.6969
81.3547
79.0973
76.9205
74.8205
72.7936
70.8364
68.9456
67.1184
65.3518
63.6433
61.9903
60.3905
58.8417
57.3418
55.8888
54.4808
53.1162
51.7931
50.5101
49.2656
48.0582
46.8866
45.7494
44.6455
43.5737
42.5328
41.5219
40.5399
39.5858
38.6588
37.758
36.8825
36.0315
35.2044
34.4004
15129.3
6076.78
3470.21
2387.52
1805.35
1444.8
1200.47
1024.29
891.379
787.594
704.338
636.082
579.114
530.851
489.44
453.519
422.064
394.289
369.584
347.466
327.547
309.516
293.115
278.132
264.391
251.744
240.065
229.246
219.196
209.837
201.099
192.923
185.256
178.053
171.273
164.88
158.842
153.131
147.722
142.591
137.718
133.084
128.672
124.468
120.457
116.626
112.965
109.462
106.109
102.895
99.8129
96.8551
94.0145
91.2847
88.6597
86.134
83.7023
81.3599
79.1024
76.9255
74.8253
72.7983
70.841
68.9501
67.1228
65.3561
63.6475
61.9944
60.3945
58.8456
57.3456
55.8925
54.4845
53.1198
51.7967
50.5136
49.2691
48.0616
46.89
45.7528
44.6488
43.5769
42.5361
41.5251
40.5431
39.589
38.662
37.7612
36.8857
36.0347
35.2076
34.4035
15129.5
6076.53
3469.99
2387.38
1805.25
1444.73
1200.42
1024.26
891.354
787.578
704.329
636.078
579.114
530.853
489.445
453.525
422.07
394.296
369.592
347.474
327.556
309.525
293.124
278.141
264.4
251.753
240.074
229.255
219.206
209.846
201.108
192.932
185.265
178.062
171.282
164.889
158.851
153.14
147.73
142.599
137.726
133.091
128.68
124.475
120.464
116.634
112.972
109.469
106.115
102.901
99.8193
96.8613
94.0206
91.2907
88.6655
86.1396
83.7078
81.3653
79.1076
76.9306
74.8303
72.8031
70.8457
68.9547
67.1273
65.3605
63.6518
61.9986
60.3987
58.8497
57.3496
55.8964
54.4883
53.1236
51.8004
50.5173
49.2727
48.0652
46.8935
45.7562
44.6523
43.5804
42.5395
41.5285
40.5465
39.5924
38.6654
37.7646
15129.7
6076.32
3469.8
2387.24
1805.16
1444.67
1200.37
1024.22
891.328
787.561
704.318
636.072
579.111
530.854
489.447
453.529
422.075
394.302
369.598
347.481
327.563
309.532
293.132
278.149
264.409
251.762
240.082
229.264
219.214
209.855
201.117
192.94
185.274
178.07
171.29
164.897
158.859
153.148
147.738
142.607
137.733
133.099
128.687
124.483
120.471
116.641
112.979
109.476
106.122
102.908
99.8257
96.8676
94.0267
91.2966
88.6713
86.1453
83.7133
81.3707
79.1129
76.9357
74.8353
72.8081
70.8505
68.9594
67.1319
65.365
63.6562
62.003
60.4029
58.8539
57.3537
55.9005
54.4923
53.1275
51.8042
50.5211
49.2764
48.0689
46.8972
45.7599
44.6559
43.584
42.5431
41.5321
40.55
39.5959
38.6689
37.7681
15129.9
6076.13
3469.63
2387.12
1805.08
1444.6
1200.32
1024.19
891.302
787.542
704.305
636.064
579.107
530.852
489.447
453.531
422.079
394.307
369.604
347.487
327.57
309.539
293.139
278.157
264.416
251.769
240.09
229.272
219.222
209.863
201.125
192.948
185.282
178.078
171.298
164.905
158.867
153.156
147.746
142.615
137.741
133.107
128.695
124.49
120.478
116.648
112.986
109.483
106.129
102.915
99.832
96.8738
94.0328
91.3026
88.6772
86.151
83.719
81.3762
79.1183
76.941
74.8405
72.8131
70.8554
68.9643
67.1366
65.3697
63.6608
62.0074
60.4073
58.8582
57.358
55.9047
54.4965
53.1315
51.8083
50.525
49.2803
48.0728
46.901
45.7637
44.6597
43.5878
42.5468
41.5359
40.5538
39.5998
38.6727
37.7718
15130.1
6075.97
3469.48
2387.01
1805
1444.54
1200.28
1024.15
891.276
787.523
704.291
636.054
579.101
530.849
489.447
453.532
422.081
394.31
369.608
347.492
327.575
309.545
293.145
278.163
264.423
251.776
240.097
229.279
219.23
209.87
201.132
192.956
185.289
178.086
171.306
164.913
158.875
153.163
147.753
142.622
137.748
133.114
128.702
124.497
120.485
116.655
112.993
109.49
106.135
102.921
99.8384
96.88
94.0389
91.3086
88.6831
86.1568
83.7246
81.3818
79.1237
76.9464
74.8457
72.8183
70.8605
68.9692
67.1415
65.3745
63.6655
62.0121
60.4119
58.8627
57.3624
55.909
54.5007
53.1358
51.8124
50.5292
49.2844
48.0768
46.905
45.7677
44.6637
43.5917
42.5508
41.5399
40.5579
15130.2
6075.82
3469.34
2386.91
1804.92
1444.49
1200.24
1024.12
891.25
787.503
704.277
636.044
579.094
530.845
489.445
453.532
422.083
394.313
369.611
347.496
327.58
309.55
293.151
278.169
264.429
251.783
240.104
229.286
219.237
209.877
201.14
192.963
185.297
178.093
171.313
164.92
158.882
153.171
147.761
142.629
137.755
133.121
128.709
124.504
120.492
116.661
113
109.496
106.142
102.927
99.8448
96.8863
94.0451
91.3147
88.689
86.1627
83.7304
81.3874
79.1293
76.9518
74.8511
72.8235
70.8657
68.9743
67.1465
65.3794
63.6703
62.0168
60.4166
58.8673
57.3669
55.9135
54.5052
53.1402
51.8168
50.5334
49.2887
48.0811
46.9092
45.7719
44.6678
43.5959
42.555
41.544
40.562
15130.3
6075.69
3469.22
2386.82
1804.85
1444.44
1200.2
1024.09
891.226
787.484
704.263
636.034
579.087
530.84
489.442
453.531
422.083
394.315
369.614
347.5
327.584
309.555
293.156
278.175
264.435
251.789
240.11
229.293
219.243
209.884
201.147
192.97
185.304
178.101
171.32
164.927
158.889
153.178
147.768
142.636
137.763
133.128
128.716
124.511
120.499
116.668
113.006
109.503
106.148
102.934
99.8511
96.8926
94.0513
91.3208
88.6951
86.1686
83.7362
81.3932
79.1349
76.9574
74.8566
72.8289
70.871
68.9795
67.1516
65.3845
63.6753
62.0218
60.4214
58.8721
57.3717
55.9182
54.5098
53.1447
51.8213
50.5379
49.2931
48.0855
46.9136
45.7762
44.6722
43.6002
42.5593
41.5483
40.5663
15130.4
6075.58
3469.11
2386.73
1804.79
1444.39
1200.16
1024.06
891.203
787.466
704.248
636.023
579.079
530.835
489.439
453.53
422.083
394.316
369.616
347.503
327.588
309.559
293.161
278.18
264.441
251.795
240.117
229.299
219.25
209.891
201.153
192.977
185.311
178.108
171.327
164.934
158.896
153.185
147.775
142.643
137.77
133.135
128.723
124.518
120.506
116.675
113.013
109.51
106.155
102.94
99.8576
96.899
94.0576
91.327
88.7012
86.1746
83.7422
81.399
79.1407
76.9631
74.8622
72.8344
70.8764
68.9849
67.1569
65.3897
63.6805
62.0268
60.4264
58.877
57.3765
55.923
54.5146
53.1494
51.826
50.5426
49.2977
48.09
46.9182
45.7808
44.6767
43.6048
42.5638
41.5528
40.5707
15130.5
6075.48
3469.01
2386.65
1804.73
1444.35
1200.13
1024.03
891.181
787.448
704.234
636.012
579.071
530.829
489.435
453.528
422.083
394.316
369.618
347.505
327.591
309.563
293.165
278.185
264.446
251.8
240.122
229.305
219.256
209.897
201.16
192.984
185.317
178.114
171.334
164.941
158.903
153.192
147.782
142.65
137.777
133.142
128.73
124.525
120.513
116.682
113.02
109.516
106.162
102.947
99.8641
96.9054
94.0639
91.3332
88.7073
86.1807
83.7482
81.405
79.1466
76.9688
74.8679
72.8401
70.882
68.9904
67.1623
65.395
63.6857
62.032
60.4316
58.8821
57.3816
55.928
54.5195
53.1543
51.8308
50.5474
49.3025
48.0948
46.9229
45.7855
44.6814
43.6095
42.5685
41.5574
40.5752
15130.6
6075.39
3468.92
2386.59
1804.68
1444.31
1200.1
1024.01
891.161
787.432
704.221
636.002
579.063
530.823
489.431
453.525
422.082
394.316
369.619
347.507
327.594
309.567
293.169
278.189
264.451
251.806
240.128
229.311
219.262
209.904
201.166
192.991
185.324
178.121
171.341
164.948
158.91
153.199
147.789
142.657
137.783
133.149
128.737
124.532
120.52
116.689
113.026
109.523
106.168
102.954
99.8706
96.9118
94.0703
91.3396
88.7136
86.1869
83.7543
81.411
79.1526
76.9748
74.8737
72.8458
70.8877
68.996
67.1679
65.4005
63.6912
62.0374
60.4369
58.8874
57.3868
55.9332
54.5246
53.1594
51.8359
50.5524
49.3075
48.0998
46.9279
45.7904
44.6863
43.6143
42.5733
41.5622
40.5799
15130.7
6075.3
3468.84
2386.52
1804.63
1444.27
1200.07
1023.98
891.142
787.416
704.208
635.991
579.055
530.817
489.427
453.523
422.08
394.316
369.62
347.509
327.596
309.57
293.173
278.194
264.456
251.811
240.133
229.316
219.268
209.91
201.173
192.997
185.331
178.128
171.348
164.955
158.917
153.206
147.796
142.664
137.79
133.156
128.744
124.538
120.527
116.695
113.033
109.53
106.175
102.96
99.8772
96.9184
94.0768
91.346
88.72
86.1932
83.7606
81.4172
79.1587
76.9808
74.8797
72.8517
70.8935
69.0018
67.1736
65.4062
63.6968
62.0429
60.4424
58.8928
57.3922
55.9385
54.5299
53.1647
51.8411
50.5576
49.3127
48.1049
46.933
45.7955
44.6914
43.6194
42.5783
41.5671
40.5848
15130.8
6075.23
3468.77
2386.46
1804.59
1444.24
1200.04
1023.96
891.124
787.402
704.197
635.982
579.048
530.812
489.423
453.52
422.079
394.316
369.621
347.51
327.599
309.573
293.176
278.198
264.46
251.816
240.138
229.322
219.274
209.916
201.179
193.003
185.337
178.134
171.354
164.962
158.924
153.213
147.803
142.671
137.797
133.163
128.75
124.545
120.534
116.702
113.04
109.537
106.182
102.967
99.8839
96.925
94.0834
91.3525
88.7265
86.1996
83.7669
81.4235
79.1649
76.987
74.8858
72.8578
70.8995
69.0077
67.1795
65.412
63.7025
62.0486
60.448
58.8984
57.3977
55.944
54.5354
53.1701
51.8465
50.563
49.318
48.1103
46.9383
45.8008
44.6966
43.6246
42.5834
41.5722
40.5898
15130.9
6075.17
3468.71
2386.41
1804.55
1444.21
1200.02
1023.94
891.108
787.389
704.186
635.973
579.04
530.806
489.419
453.517
422.077
394.315
369.621
347.512
327.601
309.575
293.18
278.201
264.464
251.82
240.144
229.327
219.28
209.922
201.185
193.01
185.344
178.141
171.361
164.968
158.931
153.22
147.81
142.678
137.804
133.17
128.757
124.552
120.54
116.709
113.047
109.543
106.189
102.974
99.8907
96.9318
94.0901
91.3592
88.7331
86.2062
83.7734
81.4299
79.1713
76.9933
74.8921
72.864
70.9056
69.0138
67.1855
65.4179
63.7084
62.0545
60.4538
58.9042
57.4034
55.9497
54.541
53.1757
51.8521
50.5685
49.3236
48.1158
46.9438
45.8063
44.7021
43.6299
42.5888
41.5775
40.595
15131
6075.12
3468.65
2386.36
1804.51
1444.18
1199.99
1023.92
891.094
787.377
704.176
635.965
579.034
530.801
489.415
453.514
422.075
394.315
369.621
347.513
327.603
309.578
293.183
278.205
264.469
251.825
240.148
229.332
219.285
209.927
201.191
193.016
185.35
178.147
171.368
164.975
158.937
153.227
147.817
142.685
137.811
133.177
128.765
124.559
120.548
116.716
113.054
109.55
106.196
102.981
99.8976
96.9386
94.0969
91.3659
88.7398
86.2128
83.78
81.4365
79.1778
76.9997
74.8984
72.8703
70.9119
69.02
67.1917
65.4241
63.7145
62.0605
60.4598
58.9101
57.4094
55.9556
54.5469
53.1815
51.8579
50.5743
49.3293
48.1215
46.9494
45.8119
44.7076
43.6355
42.5942
41.5829
40.6004
15131.1
6075.07
3468.6
2386.32
1804.48
1444.15
1199.97
1023.91
891.08
787.366
704.167
635.957
579.028
530.796
489.411
453.512
422.074
394.314
369.621
347.514
327.604
309.58
293.186
278.209
264.473
251.829
240.153
229.338
219.291
209.933
201.197
193.022
185.356
178.154
171.374
164.982
158.944
153.233
147.824
142.692
137.818
133.184
128.772
124.567
120.555
116.723
113.061
109.558
106.203
102.988
99.9046
96.9456
94.1038
91.3728
88.7466
86.2196
83.7867
81.4432
79.1844
77.0063
74.905
72.8768
70.9183
69.0264
67.198
65.4303
63.7207
62.0667
60.466
58.9162
57.4154
55.9616
54.5529
53.1875
51.8638
50.5802
49.3352
48.1273
46.9552
45.8177
44.7134
43.6411
42.5999
41.5885
40.6059
15131.2
6075.02
3468.55
2386.28
1804.44
1444.13
1199.95
1023.89
891.068
787.356
704.158
635.95
579.022
530.792
489.408
453.509
422.072
394.313
369.622
347.515
327.606
309.583
293.189
278.212
264.477
251.834
240.158
229.343
219.296
209.939
201.203
193.028
185.363
178.16
171.381
164.989
158.951
153.24
147.831
142.699
137.826
133.191
128.779
124.574
120.562
116.731
113.068
109.565
106.21
102.995
99.9117
96.9527
94.1109
91.3798
88.7536
86.2265
83.7936
81.45
79.1912
77.013
74.9117
72.8834
70.9249
69.0329
67.2045
65.4368
63.7272
62.0731
60.4723
58.9225
57.4217
55.9678
54.5591
53.1937
51.8699
50.5863
49.3412
48.1333
46.9612
45.8236
44.7193
43.647
42.6057
41.5942
40.6116
15131.3
6074.99
3468.51
2386.24
1804.41
1444.1
1199.94
1023.88
891.058
787.347
704.151
635.944
579.017
530.788
489.405
453.507
422.071
394.313
369.622
347.516
327.608
309.585
293.192
278.216
264.48
251.838
240.163
229.348
219.301
209.944
201.209
193.034
185.369
178.167
171.388
164.995
158.958
153.247
147.838
142.706
137.833
133.198
128.786
124.581
120.569
116.738
113.076
109.572
106.217
103.002
99.9189
96.9599
94.118
91.387
88.7607
86.2336
83.8006
81.4569
79.1981
77.0199
74.9185
72.8902
70.9317
69.0396
67.2112
65.4434
63.7337
62.0796
60.4788
58.929
57.4281
55.9742
54.5654
53.2
51.8762
50.5926
49.3475
48.1395
46.9674
45.8297
44.7253
43.653
42.6116
41.6001
40.6174
15131.4
6074.96
3468.47
2386.21
1804.39
1444.08
1199.92
1023.87
891.048
787.339
704.145
635.939
579.013
530.784
489.402
453.505
422.07
394.313
369.622
347.517
327.609
309.587
293.194
278.219
264.484
251.842
240.167
229.353
219.307
209.95
201.214
193.04
185.375
178.173
171.394
165.002
158.965
153.254
147.845
142.714
137.84
133.206
128.793
124.588
120.577
116.745
113.083
109.579
106.224
103.01
99.9263
96.9672
94.1253
91.3942
88.7679
86.2408
83.8078
81.4641
79.2052
77.0269
74.9255
72.8972
70.9386
69.0465
67.218
65.4502
63.7405
62.0863
60.4855
58.9356
57.4347
55.9808
54.572
53.2065
51.8827
50.599
49.3539
48.1459
46.9737
45.836
44.7316
43.6592
42.6177
41.6061
40.6234
15131.4
6074.94
3468.44
2386.17
1804.36
1444.06
1199.91
1023.86
891.039
787.332
704.139
635.935
579.009
530.781
489.4
453.504
422.069
394.313
369.623
347.518
327.611
309.59
293.197
278.222
264.488
251.846
240.172
229.358
219.312
209.956
201.22
193.046
185.381
178.18
171.401
165.009
158.972
153.261
147.852
142.721
137.847
133.213
128.801
124.596
120.584
116.753
113.091
109.587
106.232
103.017
99.9337
96.9746
94.1327
91.4016
88.7752
86.2481
83.815
81.4713
79.2124
77.0341
74.9326
72.9042
70.9456
69.0535
67.2249
65.4571
63.7474
62.0932
60.4923
58.9424
57.4415
55.9875
54.5787
53.2132
51.8893
50.6056
49.3604
48.1524
46.9802
45.8424
44.7379
43.6655
42.624
41.6123
40.6295
15131.5
6074.93
3468.41
2386.15
1804.34
1444.05
1199.89
1023.85
891.031
787.326
704.134
635.931
579.006
530.779
489.398
453.503
422.069
394.313
369.624
347.519
327.613
309.592
293.2
278.225
264.492
251.851
240.176
229.362
219.317
209.961
201.226
193.052
185.388
178.186
171.407
165.016
158.979
153.268
147.859
142.728
137.855
133.22
128.808
124.603
120.591
116.76
113.098
109.594
106.239
103.025
99.9412
96.9821
94.1402
91.4091
88.7827
86.2555
83.8224
81.4787
79.2197
77.0414
74.9399
72.9115
70.9528
69.0607
67.2321
65.4642
63.7544
62.1002
60.4992
58.9493
57.4484
55.9944
54.5855
53.22
51.8961
50.6123
49.3671
48.1591
46.9868
45.849
44.7445
43.672
42.6304
41.6187
40.6358
15131.6
6074.92
3468.38
2386.12
1804.32
1444.03
1199.88
1023.84
891.024
787.321
704.13
635.928
579.004
530.777
489.397
453.502
422.069
394.313
369.625
347.521
327.615
309.594
293.203
278.229
264.495
251.855
240.181
229.367
219.322
209.966
201.232
193.058
185.394
178.193
171.414
165.022
158.986
153.275
147.866
142.735
137.862
133.228
128.816
124.611
120.599
116.768
113.106
109.602
106.247
103.032
99.9489
96.9898
94.1478
91.4167
88.7902
86.2631
83.83
81.4861
79.2272
77.0488
74.9473
72.9188
70.9601
69.0679
67.2393
65.4714
63.7616
62.1074
60.5064
58.9564
57.4554
56.0014
54.5925
53.2269
51.903
50.6192
49.374
48.1659
46.9936
45.8557
44.7511
43.6786
42.637
41.6253
15131.7
6074.92
3468.36
2386.1
1804.3
1444.02
1199.87
1023.83
891.018
787.316
704.127
635.925
579.002
530.776
489.396
453.502
422.069
394.314
369.626
347.522
327.617
309.597
293.206
278.232
264.499
251.859
240.185
229.372
219.327
209.972
201.237
193.064
185.4
178.199
171.421
165.029
158.993
153.282
147.873
142.743
137.869
133.235
128.823
124.618
120.607
116.775
113.113
109.61
106.255
103.04
99.9566
96.9975
94.1555
91.4243
88.7979
86.2707
83.8376
81.4938
79.2347
77.0564
74.9548
72.9263
70.9676
69.0754
67.2467
65.4788
63.7689
62.1147
60.5136
58.9637
57.4626
56.0086
54.5996
53.234
51.9101
50.6262
49.381
48.1728
47.0005
45.8626
44.758
43.6854
42.6437
41.6319
15131.8
6074.92
3468.35
2386.08
1804.29
1444
1199.86
1023.82
891.013
787.312
704.124
635.923
579
530.775
489.396
453.502
422.069
394.315
369.627
347.524
327.619
309.599
293.209
278.235
264.503
251.863
240.19
229.377
219.332
209.977
201.243
193.07
185.406
178.205
171.427
165.036
158.999
153.289
147.881
142.75
137.877
133.243
128.831
124.626
120.614
116.783
113.121
109.617
106.263
103.048
99.9644
97.0053
94.1633
91.4321
88.8057
86.2785
83.8453
81.5015
79.2424
77.064
74.9624
72.9339
70.9752
69.0829
67.2542
65.4863
63.7764
62.1221
60.521
58.971
57.47
56.0159
54.6069
53.2413
51.9173
50.6334
49.3881
48.1799
47.0075
45.8696
44.7649
43.6922
42.6505
41.6386
15132
6074.93
3468.34
2386.07
1804.27
1443.99
1199.85
1023.81
891.008
787.309
704.121
635.921
578.999
530.775
489.396
453.502
422.07
394.316
369.629
347.526
327.621
309.602
293.212
278.239
264.507
251.867
240.194
229.382
219.337
209.983
201.249
193.076
185.412
178.212
171.434
165.043
159.006
153.297
147.888
142.757
137.884
133.25
128.838
124.634
120.622
116.791
113.129
109.625
106.27
103.056
99.9722
97.0131
94.1712
91.44
88.8135
86.2863
83.8532
81.5093
79.2502
77.0718
74.9702
72.9416
70.9828
69.0906
67.2619
65.4939
63.7839
62.1296
60.5285
58.9785
57.4774
56.0233
54.6143
53.2486
51.9246
50.6407
49.3953
48.1871
47.0147
45.8767
44.7719
43.6992
42.6573
41.6453
15132.1
6074.95
3468.33
2386.05
1804.26
1443.98
1199.84
1023.81
891.004
787.306
704.12
635.92
578.999
530.775
489.396
453.503
422.071
394.317
369.63
347.528
327.624
309.605
293.215
278.242
264.51
251.871
240.199
229.386
219.342
209.988
201.254
193.082
185.418
178.218
171.44
165.049
159.013
153.303
147.895
142.764
137.891
133.257
128.846
124.641
120.63
116.799
113.137
109.633
106.278
103.063
99.9802
97.0211
94.1791
91.4479
88.8215
86.2942
83.8611
81.5172
79.2581
77.0796
74.978
72.9494
70.9906
69.0983
67.2696
65.5016
63.7916
62.1373
60.5362
58.9861
57.485
56.0308
54.6218
53.2561
51.932
50.6481
49.4027
48.1944
47.0219
45.8838
44.779
43.7062
42.6643
41.6522
15132.2
6074.96
3468.32
2386.04
1804.25
1443.97
1199.83
1023.8
891
787.303
704.118
635.919
578.999
530.775
489.397
453.504
422.073
394.319
369.632
347.53
327.626
309.607
293.218
278.246
264.514
251.875
240.203
229.391
219.347
209.993
201.26
193.088
185.424
178.224
171.447
165.056
159.02
153.31
147.902
142.772
137.899
133.265
128.853
124.649
120.637
116.806
113.144
109.641
106.286
103.071
99.9881
97.029
94.1871
91.4559
88.8294
86.3022
83.869
81.5251
79.266
77.0876
74.9859
72.9573
70.9985
69.1062
67.2774
65.5094
63.7994
62.145
60.5439
58.9938
57.4926
56.0384
54.6294
53.2636
51.9395
50.6555
49.4101
48.2018
47.0292
45.8911
44.7862
43.7133
42.6713
41.6591
15132.3
6074.99
3468.32
2386.03
1804.24
1443.96
1199.83
1023.8
890.997
787.301
704.117
635.919
578.999
530.775
489.398
453.505
422.074
394.321
369.634
347.532
327.629
309.61
293.221
278.249
264.518
251.879
240.207
229.396
219.352
209.998
201.265
193.093
185.43
178.23
171.453
165.062
159.027
153.317
147.909
142.779
137.906
133.272
128.861
124.656
120.645
116.814
113.152
109.649
106.294
103.079
99.996
97.037
94.1951
91.4639
88.8374
86.3102
83.877
81.5331
79.274
77.0956
74.9939
72.9653
71.0064
69.1141
67.2853
65.5172
63.8072
62.1528
60.5517
59.0015
57.5004
56.0461
54.637
53.2712
51.9471
50.6631
49.4176
48.2092
47.0365
45.8984
44.7934
43.7204
42.6783
41.6661
15132.4
6075.02
3468.32
2386.03
1804.23
1443.96
1199.82
1023.79
890.994
787.3
704.116
635.919
578.999
530.776
489.399
453.507
422.076
394.323
369.636
347.535
327.631
309.613
293.224
278.253
264.522
251.883
240.212
229.4
219.357
210.003
201.271
193.099
185.436