/*--------------------------------*- C++ -*----------------------------------*\
  =========                 |
  \\      /  F ield         | OpenFOAM: The Open Source CFD Toolbox
   \\    /   O peration     | Website:  https://openfoam.org
    \\  /    A nd           | Version:  10
     \\/     M anipulation  |
\*---------------------------------------------------------------------------*/
FoamFile
{
    format      ascii;
    class       volScalarField;
    location    "32000";
    object      nut;
}
// * * * * * * * * * * * * * * * * * * * * * * * * * * * * * * * * * * * * * //

dimensions      [0 2 -1 0 0 0 0];

internalField   nonuniform List<scalar> 
17969
(
1.54352e-09
1.59107e-07
1.59282e-06
5.91071e-06
1.17717e-05
1.72641e-05
2.14895e-05
2.42499e-05
2.57855e-05
2.69656e-05
2.81453e-05
2.71341e-05
2.54292e-05
2.43764e-05
2.42468e-05
2.50964e-05
2.70365e-05
3.03134e-05
3.53182e-05
4.27934e-05
5.18074e-05
5.72992e-05
6.40454e-05
7.22837e-05
8.22131e-05
9.39885e-05
0.000107718
0.000123447
0.000141134
0.000160665
0.000181882
0.000204602
0.000228642
0.000253822
0.000279974
0.000306946
0.000334605
0.000362835
0.00039154
0.000420637
0.000450059
0.000479748
0.000509656
0.00053974
0.000569961
0.000600285
0.000630677
0.000661102
0.000691524
0.000721905
0.000752205
0.000782381
0.000812387
0.000842171
0.000871681
0.000900858
0.00092964
0.000957962
0.000985752
0.00101294
0.00103943
0.00106516
0.00109003
0.00111394
0.0011368
0.00115849
0.00117891
0.00119793
0.00121542
0.00123124
0.00124525
0.00125729
0.0012672
0.0012748
0.00127985
0.00128229
0.00128232
0.00128017
0.00127198
0.00124429
0.0012183
0.00119477
0.00117251
0.00115125
0.00113108
0.00111312
0.00110022
0.0010966
0.00110474
0.00112011
0.00112381
0.00110865
0.00109381
0.00107947
0.00106593
0.00105427
0.00104485
0.00103716
0.00103116
0.00102693
7.18383e-10
7.50755e-08
8.61683e-07
3.94804e-06
8.99217e-06
1.42906e-05
1.8759e-05
2.18959e-05
2.38097e-05
2.53769e-05
2.70944e-05
2.89624e-05
3.08878e-05
3.11312e-05
2.96215e-05
2.85113e-05
2.82232e-05
2.88732e-05
3.05413e-05
3.33971e-05
3.7747e-05
4.41029e-05
5.32077e-05
6.14963e-05
6.75323e-05
7.48326e-05
8.36111e-05
9.40429e-05
0.000106264
0.000120369
0.000136408
0.000154371
0.000174176
0.000195686
0.000218729
0.000243123
0.000268686
0.000295248
0.000322652
0.000350757
0.000379439
0.000408591
0.000438119
0.000467943
0.000497993
0.000528206
0.00055853
0.000588914
0.000619312
0.000649677
0.000679966
0.000710133
0.000740131
0.000769911
0.000799422
0.000828608
0.000857411
0.000885769
0.000913616
0.000940881
0.00096749
0.000993361
0.00101841
0.00104255
0.00106568
0.00108769
0.00110848
0.00112793
0.0011459
0.00116228
0.00117689
0.0011896
0.00120023
0.00120862
0.00121449
0.00121778
0.00121868
0.00121744
0.00120304
0.00117596
0.00115066
0.00112751
0.00110605
0.00108614
0.00106743
0.0010498
0.00103398
0.0010223
0.00101854
0.00102601
0.00104408
0.00106272
0.00105216
0.00103933
0.00102713
0.00101656
0.00100806
0.00100121
0.000995979
0.000992464
3.70447e-10
3.86834e-08
4.64704e-07
2.51167e-06
6.51686e-06
1.12367e-05
1.55587e-05
1.8859e-05
2.09613e-05
2.25537e-05
2.43538e-05
2.63884e-05
2.8658e-05
3.11265e-05
3.36731e-05
3.54843e-05
3.42117e-05
3.30424e-05
3.25776e-05
3.29848e-05
3.43491e-05
3.67998e-05
4.05805e-05
4.60199e-05
5.3727e-05
6.44264e-05
7.15334e-05
7.80594e-05
8.58534e-05
9.51103e-05
0.000105984
0.000118592
0.000133017
0.000149302
0.000167447
0.0001874
0.000209053
0.000232254
0.000256828
0.000282593
0.000309371
0.000336997
0.000365323
0.000394216
0.000423556
0.000453242
0.000483179
0.000513288
0.000543496
0.000573736
0.000603948
0.000634072
0.000664055
0.000693841
0.000723374
0.000752598
0.000781456
0.000809885
0.000837822
0.000865199
0.000891946
0.000917984
0.000943234
0.000967608
0.000991015
0.00101335
0.00103452
0.00105439
0.00107285
0.00108976
0.00110498
0.00111835
0.00112971
0.00113887
0.00114557
0.00114972
0.00115151
0.0011512
0.00113416
0.00110746
0.00108268
0.00105992
0.00103889
0.00101964
0.00100205
0.000985865
0.00097097
0.000957891
0.000948347
0.000945458
0.000952893
0.000971718
0.000994679
0.000997609
0.000987039
0.000977885
0.000970582
0.000964826
0.00096062
0.000958082
2.34984e-10
2.43118e-08
2.8742e-07
1.69184e-06
4.82131e-06
8.90774e-06
1.29977e-05
1.64214e-05
1.88044e-05
2.02638e-05
2.17939e-05
2.35816e-05
2.56696e-05
2.80525e-05
3.0703e-05
3.35891e-05
3.65942e-05
3.95371e-05
3.91787e-05
3.80248e-05
3.74057e-05
3.75612e-05
3.8614e-05
4.06771e-05
4.39297e-05
4.86793e-05
5.52577e-05
6.43206e-05
7.60522e-05
8.19592e-05
8.89293e-05
9.71669e-05
0.000106847
0.000118106
0.000131043
0.000145726
0.000162188
0.000180427
0.000200401
0.000222027
0.00024518
0.000269705
0.000295428
0.00032217
0.000349759
0.000378036
0.000406856
0.000436091
0.000465623
0.000495352
0.000525184
0.000555036
0.00058483
0.000614495
0.000643963
0.000673166
0.00070204
0.000730518
0.000758535
0.000786022
0.000812908
0.000839116
0.00086457
0.000889185
0.00091287
0.000935531
0.000957065
0.000977359
0.000996293
0.00101374
0.00102955
0.00104357
0.00105565
0.00106561
0.00107317
0.00107824
0.00108101
0.00108175
0.0010647
0.00103852
0.00101424
0.000991941
0.000971324
0.000952499
0.000935486
0.000920218
0.00090661
0.000894683
0.000884874
0.000878497
0.000878072
0.000886807
0.000906372
0.00093226
0.000945929
0.000938442
0.000932596
0.000928191
0.00092526
0.000923937
0.000924366
0.000926653
0.000930858
0.000936984
1.76186e-10
1.80837e-08
2.07287e-07
1.25965e-06
3.78836e-06
7.33762e-06
1.1177e-05
1.47113e-05
1.75202e-05
1.93621e-05
2.04941e-05
2.17776e-05
2.33509e-05
2.52678e-05
2.75323e-05
3.0132e-05
3.30417e-05
3.62345e-05
3.96076e-05
4.29872e-05
4.45008e-05
4.35413e-05
4.2794e-05
4.27043e-05
4.34506e-05
4.51565e-05
4.79546e-05
5.20666e-05
5.78255e-05
6.56016e-05
7.59875e-05
8.65008e-05
9.2799e-05
0.000100169
0.000108799
0.000118844
0.000130422
0.000143617
0.00015848
0.000175033
0.000193265
0.000213133
0.000234564
0.000257453
0.000281666
0.00030705
0.000333437
0.000360657
0.000388546
0.00041695
0.000445726
0.000474748
0.0005039
0.000533077
0.000562184
0.000591132
0.000619838
0.000648222
0.000676207
0.000703716
0.000730673
0.000756999
0.000782614
0.000807434
0.000831369
0.000854326
0.000876204
0.000896896
0.000916286
0.000934247
0.000950645
0.000965335
0.000978164
0.000988974
0.000997482
0.00100358
0.00100747
0.0010094
0.000994294
0.00096901
0.000945454
0.000923877
0.000903917
0.00088568
0.000869232
0.000854587
0.000841792
0.000830936
0.000822221
0.000816157
0.00081388
0.000817375
0.000829159
0.000850878
0.000879496
0.000898465
0.000894336
0.000891527
0.000890113
0.000890245
0.000892076
0.00089572
0.00090124
0.00090864
1.47045e-10
1.50116e-08
1.67233e-07
1.02387e-06
3.16392e-06
6.29815e-06
9.87927e-06
1.34401e-05
1.66068e-05
1.90864e-05
2.0683e-05
2.1589e-05
2.2571e-05
2.37982e-05
2.53696e-05
2.73333e-05
2.96909e-05
3.24336e-05
3.55411e-05
3.89904e-05
4.27017e-05
4.65007e-05
5.0178e-05
4.95176e-05
4.87265e-05
4.84924e-05
4.89725e-05
5.03238e-05
5.27042e-05
5.63e-05
6.13535e-05
6.81424e-05
7.71015e-05
8.87837e-05
9.74407e-05
0.000104084
0.000111797
0.000120753
0.000131086
0.000142898
0.000156257
0.0001712
0.000187733
0.000205835
0.000225457
0.000246525
0.000268941
0.000292587
0.000317325
0.000343006
0.000369473
0.000396566
0.000424132
0.000452022
0.000480099
0.000508235
0.000536314
0.000564226
0.00059187
0.000619149
0.000645972
0.000672247
0.000697885
0.000722797
0.000746891
0.00077007
0.000792237
0.000813285
0.000833106
0.000851581
0.000868586
0.00088399
0.000897656
0.000909443
0.000919066
0.000926397
0.000931615
0.000934961
0.000923841
0.000899906
0.000877323
0.000856697
0.000837615
0.00082019
0.00080451
0.000790593
0.000778507
0.000768407
0.000760557
0.000755399
0.000753657
0.000756464
0.000765386
0.000782268
0.000808483
0.000840056
0.000856045
0.000855053
0.000855371
0.000857169
0.000860608
0.000865805
0.000872826
0.000881671
1.30781e-10
1.33092e-08
1.44724e-07
8.84286e-07
2.76764e-06
5.58776e-06
8.91766e-06
1.24067e-05
1.57695e-05
1.87525e-05
2.11266e-05
2.27025e-05
2.35305e-05
2.41955e-05
2.50519e-05
2.61872e-05
2.76907e-05
2.96277e-05
3.20078e-05
3.48285e-05
3.80741e-05
4.17219e-05
4.57211e-05
4.98873e-05
5.40177e-05
5.57619e-05
5.52475e-05
5.49297e-05
5.51988e-05
5.627e-05
5.82941e-05
6.14256e-05
6.58799e-05
7.19237e-05
7.97619e-05
8.99112e-05
0.000102837
0.000108887
0.000115814
0.0001238
0.000132995
0.000143519
0.000155456
0.000168858
0.00018375
0.000200125
0.00021795
0.000237166
0.000257694
0.000279437
0.00030228
0.000326097
0.000350749
0.000376093
0.000401979
0.000428262
0.000454795
0.000481439
0.00050806
0.000534532
0.000560736
0.000586558
0.000611889
0.000636623
0.000660658
0.000683891
0.000706221
0.000727542
0.000747749
0.000766733
0.000784382
0.000800579
0.000815204
0.000828131
0.00083906
0.000847828
0.000854579
0.000859515
0.000854687
0.000832456
0.000810958
0.000791426
0.000773384
0.000756942
0.000742215
0.000729226
0.000718045
0.000708842
0.000701909
0.000697704
0.000696925
0.000700542
0.000709749
0.000725757
0.000749528
0.000781685
0.000816307
0.000819032
0.00082126
0.000824908
0.000830138
0.000837068
0.000845756
0.0008562
0.000868332
1.21649e-10
1.23561e-08
1.31504e-07
7.98079e-07
2.50884e-06
5.09458e-06
8.19895e-06
1.15527e-05
1.49526e-05
1.82171e-05
2.11638e-05
2.36057e-05
2.53608e-05
2.63153e-05
2.67334e-05
2.72375e-05
2.79321e-05
2.89151e-05
3.02831e-05
3.21168e-05
3.44434e-05
3.72708e-05
4.0591e-05
4.43853e-05
4.86399e-05
5.31701e-05
5.77622e-05
6.22156e-05
6.21852e-05
6.19562e-05
6.21903e-05
6.30586e-05
6.47714e-05
6.75139e-05
7.14743e-05
7.68776e-05
8.39611e-05
9.29426e-05
0.000104251
0.000114518
0.000120798
0.000127944
0.000136118
0.000145452
0.000156047
0.000167974
0.000181274
0.000195958
0.000212008
0.000229381
0.000248011
0.000267812
0.000288683
0.00031051
0.000333168
0.000356525
0.000380446
0.000404791
0.000429418
0.000454189
0.000478968
0.000503622
0.000528023
0.000552047
0.000575577
0.000598495
0.000620692
0.000642058
0.000662486
0.00068187
0.000700103
0.000717079
0.000732684
0.000746798
0.000759095
0.000769363
0.000777707
0.00078429
0.000787503
0.000767618
0.000747593
0.000729359
0.00071253
0.000697204
0.000683554
0.000671687
0.000661744
0.000653969
0.000648675
0.000646162
0.000646891
0.000651699
0.00066169
0.000677958
0.000701299
0.000732995
0.000769954
0.000783707
0.000788
0.000793664
0.000800854
0.000809679
0.000820186
0.00083236
0.000846124
0.00086135
0.00087787
1.17577e-10
1.19313e-08
1.24515e-07
7.47862e-07
2.3475e-06
4.76806e-06
7.69112e-06
1.0895e-05
1.42313e-05
1.75783e-05
2.08153e-05
2.38083e-05
2.64057e-05
2.84403e-05
2.97435e-05
3.02871e-05
3.04754e-05
3.07825e-05
3.12705e-05
3.20392e-05
3.3202e-05
3.48504e-05
3.70365e-05
3.97883e-05
4.31129e-05
4.70009e-05
5.14395e-05
5.6274e-05
6.12693e-05
6.62383e-05
6.93178e-05
6.95758e-05
6.98865e-05
7.06985e-05
7.22254e-05
7.46511e-05
7.81879e-05
8.30888e-05
8.95444e-05
9.76542e-05
0.000107762
0.000120201
0.000126725
0.000133161
0.000140435
0.000148688
0.000158034
0.000168558
0.000180317
0.000193342
0.000207635
0.000223169
0.000239894
0.000257739
0.000276614
0.000296413
0.000317021
0.000338315
0.000360164
0.000382438
0.000405001
0.000427719
0.000450461
0.000473096
0.000495496
0.000517539
0.000539104
0.000560077
0.000580346
0.000599802
0.000618339
0.00063585
0.000652224
0.000667338
0.000680837
0.000692459
0.000702273
0.000710407
0.000716954
0.0007063
0.000688806
0.000672151
0.000656764
0.000642716
0.00063038
0.000620121
0.000612142
0.000606697
0.000604119
0.000604309
0.00060711
0.000612755
0.000622121
0.000636545
0.000657688
0.000687129
0.000721212
0.000749315
0.000755793
0.000763614
0.000772911
0.00078377
0.000796222
0.000810234
0.000825717
0.00084253
0.000860495
0.000879414
1.17695e-10
1.19421e-08
1.22392e-07
7.25212e-07
2.26269e-06
4.58004e-06
7.37757e-06
1.04584e-05
1.37031e-05
1.70266e-05
2.03524e-05
2.35991e-05
2.66707e-05
2.94513e-05
3.18019e-05
3.35624e-05
3.45729e-05
3.48423e-05
3.48258e-05
3.49162e-05
3.51644e-05
3.56704e-05
3.65566e-05
3.79305e-05
3.98761e-05
4.24494e-05
4.56768e-05
4.95607e-05
5.40937e-05
5.91746e-05
6.45582e-05
7.00086e-05
7.53798e-05
7.75005e-05
7.82172e-05
7.91594e-05
8.06391e-05
8.29062e-05
8.61563e-05
9.06389e-05
9.65913e-05
0.000104128
0.000113355
0.000124544
0.000133523
0.000139393
0.000145907
0.000153207
0.000161417
0.000170631
0.000180922
0.000192337
0.0002049
0.000218604
0.000233418
0.000249289
0.00026614
0.000283881
0.000302404
0.000321596
0.000341335
0.000361495
0.000381947
0.000402564
0.000423219
0.000443786
0.000464144
0.000484175
0.000503766
0.000522806
0.000541188
0.000558803
0.000575542
0.000591278
0.000605632
0.000618302
0.000629329
0.000638811
0.000646813
0.000649644
0.000636316
0.000621889
0.00060823
0.000595915
0.000585584
0.000577989
0.00057308
0.000570457
0.000569908
0.000571596
0.000575386
0.000578837
0.000583541
0.000591647
0.000604824
0.000624984
0.000654323
0.000692551
0.000724716
0.000734841
0.000746379
0.000759392
0.000773887
0.000789815
0.000807068
0.000825495
0.000844912
0.000865113
0.000885888
0.000907032
1.21636e-10
1.23506e-08
1.24479e-07
7.25394e-07
2.24104e-06
4.5091e-06
7.23788e-06
1.02421e-05
1.34154e-05
1.66894e-05
2.00114e-05
2.33315e-05
2.65951e-05
2.97365e-05
3.26731e-05
3.53004e-05
3.74893e-05
3.9084e-05
3.99293e-05
4.00245e-05
3.98151e-05
3.96951e-05
3.97009e-05
3.9916e-05
4.04672e-05
4.1489e-05
4.30989e-05
4.53844e-05
4.83984e-05
5.21625e-05
5.66786e-05
6.19133e-05
6.76113e-05
7.3492e-05
7.9398e-05
8.51889e-05
8.69903e-05
8.83036e-05
8.99836e-05
9.22875e-05
9.54452e-05
9.96526e-05
0.00010522
0.0001123
0.000120913
0.000131224
0.000141117
0.000146564
0.000152465
0.000158958
0.000166164
0.000174188
0.000183115
0.000193006
0.0002039
0.000215813
0.000228732
0.000242624
0.000257432
0.000273083
0.000289485
0.000306535
0.000324124
0.000342137
0.000360454
0.000378952
0.000397515
0.000416026
0.000434372
0.000452444
0.000470134
0.000487335
0.000503939
0.000519823
0.000534592
0.000547917
0.000559815
0.000570367
0.000579624
0.000587605
0.000589913
0.000580515
0.000570757
0.000561666
0.000553827
0.000548018
0.000544762
0.000543367
0.000538073
0.000535284
0.000534373
0.000535434
0.000538874
0.000545347
0.000555941
0.000572014
0.0005955
0.000628644
0.000670731
0.000707425
0.000721317
0.000736574
0.000753181
0.000771067
0.000790111
0.000810149
0.00083099
0.000852428
0.000874254
0.000896269
0.000918286
0.000940141
0.000961692
0.000982821
1.29312e-10
1.31507e-08
1.30538e-07
7.45728e-07
2.27326e-06
4.53743e-06
7.24828e-06
1.02255e-05
1.33671e-05
1.66101e-05
1.99112e-05
2.32354e-05
2.65495e-05
2.98182e-05
3.29984e-05
3.60328e-05
3.88518e-05
4.13639e-05
4.34516e-05
4.49671e-05
4.5761e-05
4.57909e-05
4.54271e-05
4.51249e-05
4.49073e-05
4.48386e-05
4.50425e-05
4.56723e-05
4.68763e-05
4.87779e-05
5.14645e-05
5.49862e-05
5.93614e-05
6.46083e-05
7.04992e-05
7.67384e-05
8.30962e-05
8.94493e-05
9.56692e-05
9.80214e-05
0.000100131
0.000102687
0.000105968
0.000110207
0.000115627
0.000122391
0.000130587
0.000140281
0.000149348
0.000154514
0.00015995
0.000165788
0.000172149
0.000179139
0.000186848
0.000195347
0.000204686
0.000214896
0.000225984
0.000237937
0.000250719
0.000264278
0.000278544
0.000293432
0.000308848
0.000324688
0.000340854
0.000357237
0.000373732
0.000390233
0.00040664
0.000422849
0.000438757
0.000454246
0.000468921
0.000482437
0.000494791
0.000506044
0.000516245
0.000525423
0.000533595
0.00054083
0.000542866
0.000538895
0.000534313
0.000522822
0.000513742
0.000506627
0.00050121
0.000497434
0.000495504
0.000495837
0.00049885
0.000505006
0.000514954
0.000529405
0.0005495
0.000577068
0.000614066
0.000659416
0.000697822
0.000715372
0.000734117
0.000753964
0.000774777
0.000796382
0.000818585
0.00084118
0.000863964
0.000886747
0.000909353
0.000931632
0.000953456
0.000974719
1.4075e-10
1.43504e-08
1.40571e-07
7.84683e-07
2.35264e-06
4.65047e-06
7.38534e-06
1.03798e-05
1.35318e-05
1.67764e-05
2.00738e-05
2.33939e-05
2.67121e-05
3.00061e-05
3.32531e-05
3.64269e-05
3.94951e-05
4.2415e-05
4.51285e-05
4.75573e-05
4.95977e-05
5.11139e-05
5.19564e-05
5.2035e-05
5.1591e-05
5.11532e-05
5.07651e-05
5.04672e-05
5.03598e-05
5.06027e-05
5.13688e-05
5.28176e-05
5.50773e-05
5.82365e-05
6.23435e-05
6.74302e-05
7.33536e-05
7.98214e-05
8.65528e-05
9.33686e-05
0.000100155
0.000106807
0.000110824
0.000114002
0.000117639
0.000122105
0.000127662
0.000134464
0.000142579
0.000151972
0.000157919
0.000162917
0.000168033
0.000173388
0.000179091
0.000185241
0.000191924
0.000199214
0.000207168
0.000215827
0.000225215
0.000235337
0.000246181
0.000257713
0.000269885
0.000282644
0.000295918
0.000309625
0.000323682
0.000338003
0.000352502
0.000367091
0.00038168
0.000396164
0.000410164
0.000423329
0.000435636
0.000447126
0.000457834
0.000467786
0.000477007
0.000485527
0.000493382
0.000500657
0.000502149
0.000494001
0.000484759
0.000476444
0.00046998
0.000465591
0.000463377
0.00046352
0.000466304
0.000472128
0.00048151
0.000494922
0.000513043
0.00053703
0.000568462
0.00060909
0.000657166
0.000695852
0.000716706
0.000738465
0.000760975
0.000784058
0.000807516
0.000831148
0.000854761
0.000878175
0.000901231
0.000923793
0.000945748
0.000967007
1.56068e-10
1.59652e-08
1.54546e-07
8.40837e-07
2.47344e-06
4.83656e-06
7.62691e-06
1.06679e-05
1.38587e-05
1.71358e-05
2.04561e-05
2.37891e-05
2.7112e-05
3.04075e-05
3.36614e-05
3.68613e-05
3.99943e-05
4.30444e-05
4.59896e-05
4.87986e-05
5.14255e-05
5.38051e-05
5.58468e-05
5.74276e-05
5.83908e-05
5.86312e-05
5.82405e-05
5.77237e-05
5.72335e-05
5.67865e-05
5.6442e-05
5.63481e-05
5.66901e-05
5.76572e-05
5.94181e-05
6.21027e-05
6.5796e-05
7.05511e-05
7.63315e-05
8.28639e-05
8.98322e-05
9.70266e-05
0.000104282
0.000111491
0.000118573
0.000125448
0.00013026
0.000135346
0.000141406
0.000148688
0.000155989
0.000161243
0.000166305
0.00017127
0.000176237
0.000181301
0.000186553
0.000192081
0.000197964
0.000204272
0.000211066
0.000218394
0.000226291
0.000234773
0.000243846
0.000253504
0.000263729
0.000274487
0.000285735
0.000297427
0.000309506
0.00032191
0.000334581
0.000347439
0.000360141
0.000372358
0.000384048
0.000395232
0.000405926
0.00041614
0.000425884
0.000435171
0.000444014
0.000452432
0.00046043
0.000466241
0.000460061
0.000452646
0.00044602
0.00044111
0.000438357
0.000438017
0.000440334
0.000445651
0.000454418
0.000467034
0.000483921
0.000505739
0.00053346
0.000568504
0.000612395
0.000662528
0.000700921
0.000724484
0.000748568
0.000772989
0.000797551
0.000822064
0.000846344
0.000870228
0.000893573
0.00091626
0.000938194
0.000959303
1.75699e-10
1.80403e-08
1.72616e-07
9.13719e-07
2.63179e-06
5.07441e-06
7.94624e-06
1.1067e-05
1.43302e-05
1.76681e-05
2.10348e-05
2.4398e-05
2.77352e-05
3.10307e-05
3.42742e-05
3.74596e-05
4.05829e-05
4.36416e-05
4.66319e-05
4.95474e-05
5.23756e-05
5.50947e-05
5.76691e-05
6.00444e-05
6.21409e-05
6.38479e-05
6.50088e-05
6.55099e-05
6.53174e-05
6.4791e-05
6.42729e-05
6.37617e-05
6.32771e-05
6.29317e-05
6.29088e-05
6.34143e-05
6.46497e-05
6.67862e-05
6.99502e-05
7.42197e-05
7.96654e-05
8.60629e-05
9.31031e-05
0.000100521
0.00010813
0.000115776
0.000123335
0.000130727
0.000137885
0.000144763
0.000151294
0.000157452
0.000163262
0.000168768
0.000174028
0.000179112
0.000184095
0.000189052
0.000194057
0.000199185
0.000204506
0.000210083
0.000215976
0.000222234
0.000228897
0.000235998
0.000243561
0.000251599
0.000260117
0.00026911
0.000278571
0.000288488
0.000298841
0.000309592
0.000320465
0.000331179
0.000341689
0.000351995
0.000362104
0.000372019
0.000381736
0.000391258
0.000400587
0.00040972
0.000418644
0.000427333
0.000435755
0.000433125
0.0004276
0.000422598
0.000419316
0.000418344
0.000420038
0.000424744
0.000432891
0.000444887
0.00046101
0.000481561
0.000507023
0.000538149
0.000576296
0.000622726
0.00067395
0.00071189
0.000737366
0.000762934
0.000788408
0.000813606
0.000838364
0.000862534
0.000885991
0.000908636
0.000930391
0.000951201
0.00097103
2.00057e-10
2.06242e-08
1.95147e-07
1.00324e-06
2.81763e-06
5.36709e-06
8.34734e-06
1.15716e-05
1.49278e-05
1.8344e-05
2.17714e-05
2.51761e-05
2.8535e-05
3.18333e-05
3.50628e-05
3.82205e-05
4.13077e-05
4.43283e-05
4.72881e-05
5.01928e-05
5.30469e-05
5.5851e-05
5.85995e-05
6.12772e-05
6.38558e-05
6.62881e-05
6.85031e-05
7.04002e-05
7.18334e-05
7.2655e-05
7.2774e-05
7.23567e-05
7.1876e-05
7.13694e-05
7.08424e-05
7.03488e-05
7.0053e-05
7.01631e-05
7.09011e-05
7.24743e-05
7.50529e-05
7.87577e-05
8.36784e-05
8.97174e-05
9.66098e-05
0.000104057
0.000111823
0.000119722
0.000127612
0.000135369
0.000142887
0.000150089
0.000156946
0.000163438
0.000169576
0.000175392
0.000180923
0.000186219
0.000191331
0.000196319
0.00020124
0.000206156
0.000211124
0.000216202
0.000221443
0.000226899
0.000232615
0.000238632
0.000244988
0.000251718
0.00025885
0.000266414
0.000274439
0.000282936
0.000291722
0.00030058
0.00030949
0.000318455
0.000327481
0.000336574
0.000345734
0.000354957
0.000364243
0.00037358
0.000382949
0.000392317
0.000401643
0.000410873
0.000412231
0.000408391
0.00040499
0.000403534
0.000404641
0.000408732
0.000416276
0.000427763
0.000443417
0.00046334
0.000487661
0.000516471
0.0005504
0.000591032
0.000639292
0.000690564
0.000727121
0.000753598
0.000779752
0.000805415
0.000830439
0.000854697
0.000878083
0.000900515
0.000921936
0.000942305
0.000961603
2.29405e-10
2.37467e-08
2.22139e-07
1.10627e-06
3.03606e-06
5.71315e-06
8.82078e-06
1.21645e-05
1.56267e-05
1.91312e-05
2.26264e-05
2.60771e-05
2.946e-05
3.27611e-05
3.59741e-05
3.90985e-05
4.21391e-05
4.51043e-05
4.80052e-05
5.08545e-05
5.36651e-05
5.64489e-05
5.9215e-05
6.1968e-05
6.47057e-05
6.74162e-05
7.0074e-05
7.26363e-05
7.50366e-05
7.71798e-05
7.89309e-05
8.01059e-05
8.06166e-05
8.04676e-05
8.00639e-05
7.96143e-05
7.91231e-05
7.85845e-05
7.81226e-05
7.79347e-05
7.82487e-05
7.92962e-05
8.128e-05
8.43576e-05
8.86366e-05
9.41352e-05
0.000100653
0.000107902
0.000115616
0.000123573
0.00013159
0.000139522
0.000147252
0.000154701
0.000161825
0.000168616
0.000175065
0.000181183
0.000186996
0.000192533
0.00019783
0.000202928
0.000207871
0.000212706
0.000217481
0.000222247
0.000227051
0.000231943
0.000236973
0.000242191
0.000247651
0.000253406
0.000259517
0.000266034
0.000272857
0.000279855
0.000287042
0.000294448
0.000302098
0.00031001
0.000318199
0.000326673
0.000335436
0.000344484
0.000353799
0.000363354
0.000373111
0.000383022
0.000393041
0.000396599
0.000394133
0.00039234
0.000392893
0.000396468
0.000403591
0.000414795
0.000430316
0.000450187
0.000474371
0.000502582
0.000534384
0.000570063
0.000611886
0.000663766
0.000712651
0.000744633
0.000771222
0.000797116
0.000822185
0.000846324
0.000869448
0.000891496
0.000912426
0.000932216
0.000950862
2.64459e-10
2.74786e-08
2.53859e-07
1.22251e-06
3.28392e-06
6.10468e-06
9.35323e-06
1.28269e-05
1.64021e-05
1.99989e-05
2.35632e-05
2.70589e-05
3.04628e-05
3.37625e-05
3.69537e-05
4.0039e-05
4.30263e-05
4.59278e-05
4.87588e-05
5.15365e-05
5.4279e-05
5.70044e-05
5.97292e-05
6.24676e-05
6.523e-05
6.80211e-05
7.08385e-05
7.36699e-05
7.649e-05
7.92564e-05
8.19043e-05
8.43413e-05
8.64423e-05
8.80201e-05
8.89494e-05
8.91655e-05
8.88936e-05
8.85418e-05
8.81313e-05
8.76361e-05
8.71153e-05
8.67451e-05
8.67443e-05
8.73513e-05
8.87884e-05
9.12401e-05
9.48329e-05
9.96613e-05
0.00010561
0.000112443
0.000119877
0.000127666
0.000135604
0.000143534
0.000151338
0.000158926
0.00016624
0.000173246
0.00017994
0.000186313
0.000192369
0.000198128
0.000203609
0.00020884
0.000213852
0.00021868
0.000223362
0.00022794
0.00023246
0.000236972
0.00024153
0.000246197
0.000251042
0.000256138
0.000261442
0.000266898
0.000272558
0.000278484
0.00028473
0.000291343
0.000298362
0.000305816
0.00031373
0.000322115
0.000330971
0.000340286
0.000350035
0.000360182
0.000370691
0.000381532
0.000385496
0.000384335
0.000384517
0.000387661
0.000394473
0.000405553
0.000421248
0.000441648
0.000466238
0.000494684
0.000528719
0.000561292
0.000596397
0.000636371
0.00068149
0.000727298
0.000762554
0.000788415
0.000813289
0.000837088
0.00085975
0.000881231
0.000901511
0.000920582
0.000938455
0.000955153
3.05647e-10
3.18706e-08
2.9056e-07
1.35255e-06
3.55791e-06
6.5332e-06
9.93113e-06
1.35401e-05
1.72306e-05
2.09189e-05
2.4549e-05
2.80841e-05
3.1502e-05
3.47923e-05
3.79537e-05
4.09921e-05
4.39191e-05
4.67506e-05
4.95056e-05
5.22052e-05
5.48716e-05
5.75268e-05
6.01916e-05
6.28853e-05
6.56242e-05
6.8421e-05
7.12837e-05
7.42146e-05
7.72081e-05
8.02492e-05
8.33103e-05
8.63477e-05
8.92971e-05
9.20676e-05
9.45394e-05
9.65413e-05
9.78748e-05
9.84905e-05
9.84538e-05
9.82177e-05
9.79073e-05
9.75218e-05
9.70423e-05
9.66093e-05
9.64214e-05
9.6708e-05
9.76972e-05
9.9587e-05
0.000102532
0.000106626
0.00011186
0.000118067
0.000125003
0.000132414
0.000140085
0.000147849
0.000155576
0.00016317
0.000170555
0.000177681
0.000184516
0.000191053
0.000197282
0.000203201
0.00020882
0.000214156
0.000219227
0.000224059
0.000228681
0.000233131
0.000237452
0.000241701
0.000245941
0.000250247
0.000254604
0.000259002
0.000263526
0.00026827
0.000273316
0.000278742
0.000284614
0.000290993
0.000297929
0.00030546
0.000313614
0.000322402
0.000331824
0.000341867
0.000352516
0.000363759
0.000375598
0.000378851
0.000379515
0.000382498
0.000389282
0.000400657
0.000416686
0.000437479
0.000464368
0.000491871
0.000521779
0.000553571
0.000586508
0.000621056
0.000658509
0.000698852
0.000739442
0.000776008
0.000803531
0.000826761
0.000848747
0.000869465
0.000888905
0.000907072
0.000921815
0.000934344
3.53199e-10
3.69444e-08
3.3238e-07
1.49905e-06
3.85249e-06
6.98789e-06
1.05396e-05
1.42856e-05
1.80897e-05
2.18649e-05
2.5555e-05
2.91205e-05
3.2542e-05
3.58122e-05
3.89336e-05
4.19159e-05
4.47749e-05
4.75301e-05
5.02042e-05
5.28222e-05
5.54096e-05
5.79918e-05
6.05926e-05
6.3234e-05
6.59359e-05
6.87146e-05
7.1583e-05
7.45496e-05
7.7618e-05
8.07856e-05
8.40428e-05
8.73703e-05
9.07376e-05
9.40986e-05
9.73882e-05
0.000100516
0.000103363
0.000105775
0.000107517
0.00010853
0.000108815
0.000108703
0.000108509
0.00010827
0.000107916
0.00010753
0.000107283
0.000107383
0.000108052
0.000109488
0.000111854
0.000115246
0.000119708
0.000125161
0.000131435
0.000138295
0.000145531
0.000152966
0.000160461
0.000167906
0.000175218
0.000182329
0.000189193
0.000195777
0.000202063
0.000208045
0.000213715
0.000219076
0.00022414
0.000228924
0.000233456
0.000237774
0.000241927
0.000245976
0.000249909
0.000253736
0.000257565
0.000261508
0.000265673
0.000270164
0.000275074
0.00028049
0.000286493
0.000293154
0.000300528
0.000308661
0.000317584
0.000327319
0.000337883
0.000349293
0.000361579
0.000374731
0.00037757
0.00038121
0.000388304
0.000400043
0.000417956
0.000437777
0.000461438
0.000488471
0.000517787
0.000548544
0.000580029
0.000611961
0.000644648
0.00067851
0.000713302
0.000747468
0.000778643
0.000805234
0.000827254
0.000845696
0.000861631
0.000875773
0.000888389
0.000899564
4.07027e-10
4.2677e-08
3.7867e-07
1.65783e-06
4.16913e-06
7.46967e-06
1.11768e-05
1.50578e-05
1.89701e-05
2.28228e-05
2.65578e-05
3.01403e-05
3.35525e-05
3.67903e-05
3.98601e-05
4.27764e-05
4.55605e-05
4.82331e-05
5.08212e-05
5.33542e-05
5.58613e-05
5.83704e-05
6.09073e-05
6.34963e-05
6.61594e-05
6.8915e-05
7.17781e-05
7.476e-05
7.78683e-05
8.11058e-05
8.44708e-05
8.79555e-05
9.15455e-05
9.52174e-05
9.89371e-05
0.000102656
0.000106308
0.000109802
0.000113021
0.000115822
0.000117989
0.000119373
0.00012
0.000120052
0.00011999
0.000119902
0.000119736
0.000119488
0.000119302
0.000119356
0.000119852
0.000120974
0.000122878
0.000125674
0.000129407
0.000134075
0.000139581
0.000145765
0.000152421
0.000159375
0.000166482
0.000173623
0.0001807
0.000187639
0.000194378
0.000200868
0.000207074
0.000212973
0.000218557
0.000223818
0.00022876
0.000233405
0.000237777
0.000241918
0.000245802
0.000249438
0.000252941
0.000256437
0.000260047
0.000263892
0.000268087
0.000272745
0.000277968
0.000283856
0.000290499
0.000297977
0.00030636
0.000315707
0.000326076
0.000337525
0.000350118
0.000363925
0.000377045
0.000383368
0.000392939
0.000403984
0.000419342
0.000438923
0.000462074
0.000488134
0.000516311
0.000545754
0.000575691
0.000605624
0.000635462
0.000665395
0.0006955
0.000725329
0.000753854
0.000779806
0.000802295
0.000821116
0.000836624
0.00084943
0.00086015
0.000869297
4.67533e-10
4.90774e-08
4.29044e-07
1.82674e-06
4.50075e-06
7.96924e-06
1.18313e-05
1.58436e-05
1.98572e-05
2.37785e-05
2.75494e-05
3.11371e-05
3.45271e-05
3.77196e-05
4.07251e-05
4.35626e-05
4.62567e-05
4.8836e-05
5.13314e-05
5.37754e-05
5.62009e-05
5.86382e-05
6.11117e-05
6.36493e-05
6.62749e-05
6.90079e-05
7.18639e-05
7.4856e-05
7.79933e-05
8.12807e-05
8.47199e-05
8.83082e-05
9.20383e-05
9.58978e-05
9.98677e-05
0.000103921
0.00010802
0.000112114
0.000116135
0.000119994
0.000123576
0.000126743
0.000129312
0.000131042
0.000132001
0.000132292
0.000132365
0.000132419
0.000132476
0.000132445
0.000132425
0.000132563
0.000133024
0.000133978
0.000135564
0.000137896
0.000141029
0.000144971
0.0001497
0.000155127
0.000161096
0.000167439
0.00017401
0.000180687
0.000187364
0.000193956
0.000200388
0.000206605
0.000212554
0.000218201
0.000223529
0.000228531
0.000233208
0.000237584
0.000241609
0.000245278
0.0002487
0.000252004
0.000255317
0.000258769
0.000262486
0.000266598
0.00027123
0.000276503
0.000282533
0.000289433
0.000297317
0.000306285
0.000316439
0.000327885
0.000340728
0.000355071
0.000370999
0.000387794
0.000397779
0.000409854
0.00042546
0.000444727
0.000467265
0.000492366
0.00051933
0.000547404
0.000575836
0.000604037
0.000631726
0.00065893
0.000685785
0.000712232
0.000737804
0.000761693
0.000783058
0.00080132
0.00081632
0.000828279
0.000837662
0.000845042
5.35067e-10
5.61786e-08
4.8335e-07
2.00452e-06
4.84393e-06
8.4803e-06
1.2494e-05
1.66306e-05
2.07355e-05
2.47131e-05
2.85063e-05
3.2085e-05
3.54391e-05
3.85734e-05
4.15038e-05
4.42542e-05
4.68539e-05
4.93359e-05
5.1735e-05
5.40861e-05
5.64238e-05
5.87807e-05
6.11873e-05
6.36721e-05
6.62619e-05
6.89738e-05
7.18223e-05
7.48228e-05
7.7986e-05
8.13161e-05
8.48163e-05
8.84865e-05
9.23222e-05
9.63157e-05
0.000100455
0.000104724
0.0001091
0.000113551
0.000118039
0.000122509
0.000126893
0.000131102
0.000135026
0.000138524
0.000141447
0.000143533
0.000144805
0.000145388
0.000145603
0.000145803
0.000146084
0.000146326
0.000146544