/*--------------------------------*- C++ -*----------------------------------*\
  =========                 |
  \\      /  F ield         | OpenFOAM: The Open Source CFD Toolbox
   \\    /   O peration     | Website:  https://openfoam.org
    \\  /    A nd           | Version:  10
     \\/     M anipulation  |
\*---------------------------------------------------------------------------*/
FoamFile
{
    format      ascii;
    class       surfaceScalarField;
    location    "32000";
    object      phi;
}
// * * * * * * * * * * * * * * * * * * * * * * * * * * * * * * * * * * * * * //

dimensions      [0 3 -1 0 0 0 0];

internalField   nonuniform List<scalar> 
35536
(
-5.01891e-09
-3.36601e-07
-1.85626e-08
-2.01915e-07
-1.98414e-08
-2.00045e-07
-1.07034e-08
-1.92344e-07
7.89261e-09
-1.81898e-07
3.69641e-08
-1.69379e-07
7.86806e-08
-1.53547e-07
1.36296e-07
-1.3268e-07
2.14317e-07
-1.0464e-07
3.19952e-07
-6.71695e-08
4.64534e-07
-1.81051e-08
6.61586e-07
4.59588e-08
9.21536e-07
1.30127e-07
1.24606e-06
2.39069e-07
1.62517e-06
3.75197e-07
2.03909e-06
5.36734e-07
2.46345e-06
7.1741e-07
2.87404e-06
9.08048e-07
3.25233e-06
1.09884e-06
3.58751e-06
1.28152e-06
3.87592e-06
1.44985e-06
4.11958e-06
1.60132e-06
4.32362e-06
1.73566e-06
4.49411e-06
1.85439e-06
4.63686e-06
1.96004e-06
4.75741e-06
2.05474e-06
4.86063e-06
2.14062e-06
4.95057e-06
2.21957e-06
5.03053e-06
2.29316e-06
5.10319e-06
2.36262e-06
5.17063e-06
2.42891e-06
5.23431e-06
2.49282e-06
5.29528e-06
2.55488e-06
5.35423e-06
2.61546e-06
5.41166e-06
2.67473e-06
5.4679e-06
2.73279e-06
5.52314e-06
2.78965e-06
5.57754e-06
2.84526e-06
5.63117e-06
2.89954e-06
5.68409e-06
2.95236e-06
5.73629e-06
3.00357e-06
5.78778e-06
3.053e-06
5.83854e-06
3.10046e-06
5.88851e-06
3.14572e-06
5.93765e-06
3.18855e-06
5.98589e-06
3.22869e-06
6.03316e-06
3.26588e-06
6.07938e-06
3.29979e-06
6.12445e-06
3.33012e-06
6.16827e-06
3.35652e-06
6.21072e-06
3.3786e-06
6.25169e-06
3.39596e-06
6.29103e-06
3.40818e-06
6.3286e-06
3.41479e-06
6.36424e-06
3.41527e-06
6.39777e-06
3.40911e-06
6.429e-06
3.39571e-06
6.45774e-06
3.37446e-06
6.48375e-06
3.34469e-06
6.5068e-06
3.30568e-06
6.52664e-06
3.25667e-06
6.543e-06
3.19682e-06
6.55558e-06
3.12527e-06
6.56408e-06
3.04105e-06
6.56816e-06
2.94316e-06
6.56749e-06
2.83052e-06
6.56168e-06
2.70195e-06
6.55038e-06
2.55622e-06
6.53316e-06
2.39201e-06
6.50963e-06
2.20791e-06
6.47934e-06
2.00242e-06
6.44184e-06
1.77396e-06
6.39665e-06
1.52085e-06
6.34328e-06
1.24134e-06
6.28301e-06
9.12133e-07
6.21786e-06
5.70136e-07
6.1483e-06
2.54597e-07
6.07467e-06
-3.59434e-08
5.99741e-06
-3.03228e-07
5.91697e-06
-5.49218e-07
5.83386e-06
-7.75606e-07
5.74842e-06
-9.83488e-07
5.66096e-06
-1.1739e-06
5.57167e-06
-1.34789e-06
5.48074e-06
-1.50649e-06
5.38849e-06
-1.6507e-06
5.29559e-06
-1.7814e-06
5.20309e-06
-1.89913e-06
5.11213e-06
-2.00403e-06
5.02303e-06
-2.09599e-06
4.93498e-06
-2.17538e-06
4.84674e-06
-2.24335e-06
4.75762e-06
-2.30175e-06
4.66755e-06
-2.35208e-06
4.57659e-06
-2.39526e-06
4.48486e-06
-2.43205e-06
4.39249e-06
-2.4631e-06
4.29966e-06
-2.48898e-06
4.20653e-06
-2.51025e-06
-2.52742e-06
-4.91208e-09
-3.31689e-07
-1.8224e-08
-1.88604e-07
-2.4423e-08
-1.93846e-07
-2.29241e-08
-1.93843e-07
-1.4521e-08
-1.90301e-07
1.22154e-09
-1.85121e-07
2.55015e-08
-1.77827e-07
6.01931e-08
-1.67372e-07
1.07856e-07
-1.52303e-07
1.71653e-07
-1.30967e-07
2.55457e-07
-1.01909e-07
3.65246e-07
-6.38306e-08
5.10485e-07
-1.51117e-08
7.02748e-07
4.68055e-08
9.51948e-07
1.25996e-07
1.26191e-06
2.26775e-07
1.62715e-06
3.52163e-07
2.03293e-06
5.02272e-07
2.4588e-06
6.72979e-07
2.88298e-06
8.5733e-07
3.28595e-06
1.04688e-06
3.65383e-06
1.23344e-06
3.97928e-06
1.41021e-06
4.26089e-06
1.57278e-06
4.50141e-06
1.71952e-06
4.70574e-06
1.85041e-06
4.87899e-06
1.96736e-06
5.02618e-06
2.07238e-06
5.15226e-06
2.16709e-06
5.26146e-06
2.25341e-06
5.35742e-06
2.33294e-06
5.44326e-06
2.40698e-06
5.52151e-06
2.47663e-06
5.59418e-06
2.54279e-06
5.66273e-06
2.60618e-06
5.72822e-06
2.66729e-06
5.79142e-06
2.72646e-06
5.85283e-06
2.78385e-06
5.9128e-06
2.83956e-06
5.97158e-06
2.89358e-06
6.02932e-06
2.94584e-06
6.0861e-06
2.99622e-06
6.14197e-06
3.04459e-06
6.19694e-06
3.09075e-06
6.25099e-06
3.1345e-06
6.30407e-06
3.17561e-06
6.35614e-06
3.21381e-06
6.40711e-06
3.24882e-06
6.45689e-06
3.28034e-06
6.50538e-06
3.30803e-06
6.55245e-06
3.33153e-06
6.59797e-06
3.35044e-06
6.6418e-06
3.36436e-06
6.68377e-06
3.37282e-06
6.7237e-06
3.37534e-06
6.7614e-06
3.37141e-06
6.79666e-06
3.36045e-06
6.82926e-06
3.34186e-06
6.85894e-06
3.315e-06
6.88545e-06
3.27917e-06
6.90851e-06
3.23361e-06
6.9278e-06
3.17753e-06
6.943e-06
3.11006e-06
6.95378e-06
3.03028e-06
6.95976e-06
2.93718e-06
6.96056e-06
2.82972e-06
6.95576e-06
2.70674e-06
6.94496e-06
2.56702e-06
6.92769e-06
2.40927e-06
6.90351e-06
2.2321e-06
6.87191e-06
2.03401e-06
6.83242e-06
1.81346e-06
6.78449e-06
1.56878e-06
6.72758e-06
1.29825e-06
6.66306e-06
9.76654e-07
6.5931e-06
6.40092e-07
6.51823e-06
3.29475e-07
6.43878e-06
4.34974e-08
6.35525e-06
-2.19691e-07
6.26816e-06
-4.62135e-07
6.178e-06
-6.85438e-07
6.08516e-06
-8.90655e-07
5.99004e-06
-1.07877e-06
5.89291e-06
-1.25076e-06
5.79401e-06
-1.40758e-06
5.69349e-06
-1.55019e-06
5.59161e-06
-1.67952e-06
5.4889e-06
-1.79643e-06
5.38635e-06
-1.90147e-06
5.28517e-06
-1.99482e-06
5.18612e-06
-2.07634e-06
5.08877e-06
-2.146e-06
4.99177e-06
-2.20475e-06
4.89415e-06
-2.25446e-06
4.79569e-06
-2.2968e-06
4.6965e-06
-2.33286e-06
4.59674e-06
-2.36334e-06
4.49662e-06
-2.38885e-06
4.39632e-06
-2.40995e-06
-2.42715e-06
-4.17996e-09
-3.27509e-07
-1.51584e-08
-1.77625e-07
-2.36557e-08
-1.85349e-07
-2.76638e-08
-1.89834e-07
-2.72371e-08
-1.90727e-07
-2.19915e-08
-1.90367e-07
-1.11121e-08
-1.88706e-07
6.69214e-09
-1.85176e-07
3.32594e-08
-1.7887e-07
7.08769e-08
-1.68584e-07
1.22066e-07
-1.53098e-07
1.89543e-07
-1.31308e-07
2.76535e-07
-1.02104e-07
3.87732e-07
-6.43911e-08
5.30547e-07
-1.68188e-08
7.14869e-07
4.24521e-08
9.50469e-07
1.16563e-07
1.24309e-06
2.09655e-07
1.59103e-06
3.25038e-07
1.98429e-06
4.64071e-07
2.4066e-06
6.2457e-07
2.83853e-06
8.01502e-07
3.26085e-06
9.87896e-07
3.65759e-06
1.17604e-06
4.01807e-06
1.35904e-06
4.33725e-06
1.53123e-06
4.61531e-06
1.68929e-06
4.85542e-06
1.83227e-06
5.06201e-06
1.9605e-06
5.2394e-06
2.07602e-06
5.39201e-06
2.18033e-06
5.52421e-06
2.27479e-06
5.6398e-06
2.36104e-06
5.74213e-06
2.44045e-06
5.83415e-06
2.51417e-06
5.91827e-06
2.58317e-06
5.99644e-06
2.64829e-06
6.07012e-06
2.71018e-06
6.14038e-06
2.7693e-06
6.208e-06
2.82596e-06
6.27351e-06
2.88032e-06
6.3373e-06
2.93244e-06
6.3996e-06
2.98228e-06
6.46059e-06
3.02976e-06
6.52035e-06
3.07474e-06
6.57892e-06
3.11704e-06
6.63629e-06
3.15644e-06
6.69243e-06
3.19268e-06
6.74728e-06
3.2255e-06
6.80073e-06
3.25458e-06
6.85269e-06
3.27957e-06
6.90302e-06
3.30011e-06
6.95156e-06
3.31581e-06
6.99816e-06
3.32622e-06
7.04263e-06
3.33088e-06
7.08475e-06
3.32928e-06
7.12431e-06
3.32089e-06
7.16106e-06
3.30512e-06
7.19472e-06
3.28133e-06
7.22503e-06
3.24887e-06
7.25165e-06
3.20699e-06
7.27427e-06
3.15491e-06
7.29253e-06
3.09181e-06
7.30604e-06
3.01676e-06
7.31441e-06
2.92882e-06
7.31721e-06
2.82692e-06
7.31398e-06
2.70997e-06
7.30425e-06
2.57675e-06
7.28754e-06
2.42599e-06
7.26332e-06
2.25632e-06
7.23106e-06
2.06627e-06
7.19021e-06
1.85431e-06
7.14018e-06
1.61881e-06
7.08036e-06
1.35806e-06
7.0122e-06
1.04482e-06
6.93801e-06
7.14277e-07
6.8584e-06
4.09091e-07
6.77378e-06
1.28111e-07
6.68459e-06
-1.30496e-07
6.59137e-06
-3.68918e-07
6.49462e-06
-5.8869e-07
6.39479e-06
-7.90828e-07
6.29231e-06
-9.76286e-07
6.18753e-06
-1.14599e-06
6.08079e-06
-1.30084e-06
5.97231e-06
-1.44171e-06
5.86228e-06
-1.56949e-06
5.75092e-06
-1.68506e-06
5.63865e-06
-1.7892e-06
5.5263e-06
-1.88246e-06
5.41503e-06
-1.96507e-06
5.3059e-06
-2.03687e-06
5.19885e-06
-2.0977e-06
5.09267e-06
-2.14829e-06
4.98622e-06
-2.19035e-06
4.87915e-06
-2.22579e-06
4.77164e-06
-2.25583e-06
4.66391e-06
-2.28112e-06
4.55617e-06
-2.30222e-06
-2.31963e-06
-3.7877e-09
-3.23721e-07
-1.30982e-08
-1.68314e-07
-2.20879e-08
-1.76359e-07
-2.89106e-08
-1.83012e-07
-3.32853e-08
-1.86353e-07
-3.48634e-08
-1.88789e-07
-3.30979e-08
-1.90472e-07
-2.71292e-08
-1.91145e-07
-1.5663e-08
-1.90336e-07
3.056e-09
-1.87304e-07
3.10682e-08
-1.81111e-07
7.05545e-08
-1.70794e-07
1.23836e-07
-1.55386e-07
1.93313e-07
-1.33868e-07
2.81712e-07
-1.05218e-07
3.92624e-07
-6.84605e-08
5.31685e-07
-2.24974e-08
7.07219e-07
3.41205e-08
9.28505e-07
1.03752e-07
1.20251e-06
1.90067e-07
1.53071e-06
2.96367e-07
1.90746e-06
4.24754e-07
2.32058e-06
5.74772e-07
2.75346e-06
7.43161e-07
3.18807e-06
9.24434e-07
3.6075e-06
1.1118e-06
3.99865e-06
1.29814e-06
4.3533e-06
1.47763e-06
4.66818e-06
1.64562e-06
4.94465e-06
1.79955e-06
5.18598e-06
1.939e-06
5.3959e-06
2.06487e-06
5.57814e-06
2.1788e-06
5.73672e-06
2.28187e-06
5.87546e-06
2.37543e-06
5.99779e-06
2.46084e-06
6.10683e-06
2.53925e-06
6.20531e-06
2.61169e-06
6.29558e-06
2.67904e-06
6.3795e-06
2.74205e-06
6.4585e-06
2.80132e-06
6.53367e-06
2.85727e-06
6.60579e-06
2.91016e-06
6.67541e-06
2.96014e-06
6.74292e-06
3.00723e-06
6.80857e-06
3.05138e-06
6.87253e-06
3.09248e-06
6.93487e-06
3.13034e-06
6.99561e-06
3.16476e-06
7.05474e-06
3.19545e-06
7.11217e-06
3.22213e-06
7.16782e-06
3.24447e-06
7.22155e-06
3.26208e-06
7.2732e-06
3.27456e-06
7.3226e-06
3.28148e-06
7.36953e-06
3.28235e-06
7.41376e-06
3.27666e-06
7.45504e-06
3.26384e-06
7.49308e-06
3.24329e-06
7.52758e-06
3.21436e-06
7.55821e-06
3.17636e-06
7.58461e-06
3.12851e-06
7.60639e-06
3.07002e-06
7.62314e-06
3.00001e-06
7.63442e-06
2.91753e-06
7.63977e-06
2.82158e-06
7.63868e-06
2.71105e-06
7.63064e-06
2.58479e-06
7.6151e-06
2.44153e-06
7.59148e-06
2.27994e-06
7.55919e-06
2.09856e-06
7.51761e-06
1.89589e-06
7.4661e-06
1.67032e-06
7.404e-06
1.42017e-06
7.33278e-06
1.11604e-06
7.25492e-06
7.92135e-07
7.17111e-06
4.92903e-07
7.08186e-06
2.1736e-07
6.98755e-06
-3.61875e-08
6.88868e-06
-2.7005e-07
6.78577e-06
-4.8578e-07
6.67931e-06
-6.84362e-07
6.56973e-06
-8.66714e-07
6.45747e-06
-1.03373e-06
6.34291e-06
-1.18627e-06
6.22637e-06
-1.32517e-06
6.10812e-06
-1.45125e-06
5.9884e-06
-1.56534e-06
5.86742e-06
-1.66822e-06
5.74558e-06
-1.76062e-06
5.62357e-06
-1.84306e-06
5.50245e-06
-1.91575e-06
5.38334e-06
-1.97858e-06
5.26646e-06
-2.03141e-06
5.15087e-06
-2.07476e-06
5.03538e-06
-2.11031e-06
4.91968e-06
-2.14013e-06
4.80399e-06
-2.16543e-06
4.68856e-06
-2.18678e-06
4.57359e-06
-2.20467e-06
4.45933e-06
-2.21954e-06
4.34598e-06
-2.23177e-06
4.23377e-06
-2.24166e-06
-2.24948e-06
-3.50595e-09
-3.20215e-07
-1.17419e-08
-1.60078e-07
-2.0411e-08
-1.6769e-07
-2.8103e-08
-1.7532e-07
-3.45879e-08
-1.79868e-07
-3.96322e-08
-1.83744e-07
-4.29122e-08
-1.87192e-07
-4.39371e-08
-1.9012e-07
-4.19528e-08
-1.92321e-07
-3.58126e-08
-1.93444e-07
-2.39822e-08
-1.92941e-07
-4.67535e-09
-1.90101e-07
2.40768e-08
-1.84138e-07
6.43837e-08
-1.74175e-07
1.18437e-07
-1.59272e-07
1.88435e-07
-1.38459e-07
2.76695e-07
-1.10757e-07
3.86067e-07
-7.52509e-08
5.20852e-07
-3.10334e-08
6.87739e-07
2.31789e-08
8.94982e-07
8.91249e-08
1.15019e-06
1.69541e-07
1.45737e-06
2.67594e-07
1.8145e-06
3.86029e-07
2.21317e-06
5.25765e-07
2.64016e-06
6.84819e-07
3.07919e-06
8.59113e-07
3.51379e-06
1.04302e-06
3.92929e-06
1.23012e-06
4.31497e-06
1.41387e-06
4.66468e-06
1.58929e-06
4.97677e-06
1.75278e-06
5.25308e-06
1.90249e-06
5.49667e-06
2.03828e-06
5.71063e-06
2.16147e-06
5.89826e-06
2.27321e-06
6.06323e-06
2.37428e-06
6.20882e-06
2.46609e-06
6.33813e-06
2.54973e-06
6.45404e-06
2.62614e-06
6.55916e-06
2.6962e-06
6.6557e-06
2.76073e-06
6.74545e-06
2.82041e-06
6.82982e-06
2.87577e-06
6.90986e-06
2.92719e-06
6.98636e-06
2.97489e-06
7.05986e-06
3.01898e-06
7.13075e-06
3.05945e-06
7.19929e-06
3.09622e-06
7.26562e-06
3.12912e-06
7.3298e-06
3.15796e-06
7.39182e-06
3.18245e-06
7.45162e-06
3.20228e-06
7.5091e-06
3.21709e-06
7.5641e-06
3.22648e-06
7.61645e-06
3.23e-06
7.66593e-06
3.22718e-06
7.71228e-06
3.21749e-06
7.75522e-06
3.20035e-06
7.79444e-06
3.17515e-06
7.82959e-06
3.14121e-06
7.86029e-06
3.09781e-06
7.88614e-06
3.04418e-06
7.90669e-06
2.97946e-06
7.92147e-06
2.90276e-06
7.92996e-06
2.81309e-06
7.93163e-06
2.70939e-06
7.9259e-06
2.59052e-06
7.91216e-06
2.45527e-06
7.88978e-06
2.30231e-06
7.8581e-06
2.13024e-06
7.81643e-06
1.93756e-06
7.76407e-06
1.72269e-06
7.70026e-06
1.48397e-06
7.62654e-06
1.18975e-06
7.54552e-06
8.73156e-07
7.45799e-06
5.80433e-07
7.36457e-06
3.10789e-07
7.26557e-06
6.28088e-08
7.16145e-06
-1.65926e-07
7.05273e-06
-3.77062e-07
6.93993e-06
-5.71561e-07
6.82352e-06
-7.50306e-07
6.70395e-06
-9.14161e-07
6.58163e-06
-1.06395e-06
6.45695e-06
-1.20049e-06
6.33026e-06
-1.32456e-06
6.20186e-06
-1.43694e-06
6.07205e-06
-1.53841e-06
5.94112e-06
-1.6297e-06
5.8095e-06
-1.71143e-06
5.67783e-06
-1.78409e-06
5.54709e-06
-1.84784e-06
5.41828e-06
-1.90261e-06
5.2918e-06
-1.94828e-06
5.16687e-06
-1.98537e-06
5.04247e-06
-2.01573e-06
4.91848e-06
-2.04144e-06
4.7951e-06
-2.0634e-06
4.67253e-06
-2.08211e-06
4.55097e-06
-2.09798e-06
4.43059e-06
-2.1114e-06
4.31161e-06
-2.12268e-06
-2.1321e-06
-3.33003e-09
-3.16885e-07
-1.09509e-08
-1.52458e-07
-1.90544e-08
-1.59587e-07
-2.65948e-08
-1.6778e-07
-3.35155e-08
-1.72948e-07
-3.97348e-08
-1.77525e-07
-4.5102e-08
-1.81825e-07
-4.93743e-08
-1.85848e-07
-5.21745e-08
-1.89521e-07
-5.29163e-08
-1.92702e-07
-5.07033e-08
-1.95154e-07
-4.43063e-08
-1.96499e-07
-3.2237e-08
-1.96207e-07
-1.27624e-08
-1.9365e-07
1.60601e-08
-1.88095e-07
5.62991e-08
-1.78698e-07
1.10062e-07
-1.64521e-07
1.79429e-07
-1.44618e-07
2.6643e-07
-1.18035e-07
3.7347e-07
-8.38608e-08
5.03863e-07
-4.12685e-08
6.62619e-07
1.0786e-08
8.56696e-07
7.35167e-08
1.09389e-06
1.4883e-07
1.37975e-06
2.39911e-07
1.7151e-06
3.4947e-07
2.09514e-06
4.79072e-07
2.51004e-06
6.28124e-07
2.94611e-06
7.94045e-07
3.38775e-06
9.72221e-07
3.82008e-06
1.15696e-06
4.23069e-06
1.34217e-06
4.61095e-06
1.52223e-06
4.95631e-06
1.69291e-06
5.26647e-06
1.85132e-06
5.54353e-06
1.99615e-06
5.79012e-06
2.12769e-06
6.00867e-06
2.24755e-06
6.20214e-06
2.35626e-06
6.37368e-06
2.45459e-06
6.52623e-06
2.54365e-06
6.66261e-06
2.62436e-06
6.78547e-06
2.69754e-06
6.89727e-06
2.76398e-06
7.00007e-06
2.82439e-06
7.09559e-06
2.87937e-06
7.18516e-06
2.9294e-06
7.26982e-06
2.97479e-06
7.35031e-06
3.01573e-06
7.42717e-06
3.05226e-06
7.50079e-06
3.08434e-06
7.57138e-06
3.11185e-06
7.63907e-06
3.13459e-06
7.70388e-06
3.15227e-06
7.76577e-06
3.16458e-06
7.82464e-06
3.17114e-06
7.88032e-06
3.17151e-06
7.93259e-06
3.16522e-06
7.98121e-06
3.15173e-06
8.02588e-06
3.13048e-06
8.06624e-06
3.10084e-06
8.10193e-06
3.06213e-06
8.1325e-06
3.0136e-06
8.15751e-06
2.95445e-06
8.17644e-06
2.88383e-06
8.18874e-06
2.80078e-06
8.19384e-06
2.70429e-06
8.19109e-06
2.59327e-06
8.17983e-06
2.46652e-06
8.15937e-06
2.32278e-06
8.12895e-06
2.16065e-06
8.08783e-06
1.97869e-06
8.0352e-06
1.77531e-06
7.97026e-06
1.54891e-06
7.89454e-06
1.26547e-06
7.8108e-06
9.56903e-07
7.71995e-06
6.7128e-07
7.62273e-06
4.08006e-07
7.51946e-06
1.66081e-07
7.41049e-06
-5.69576e-08
7.29633e-06
-2.62899e-07
7.17749e-06
-4.52724e-07
7.05448e-06
-6.27292e-07
6.92776e-06
-7.8744e-07
6.79777e-06
-9.33967e-07
6.66494e-06
-1.06765e-06
6.52963e-06
-1.18925e-06
6.39223e-06
-1.29954e-06
6.25311e-06
-1.39929e-06
6.11266e-06
-1.48925e-06
5.97134e-06
-1.57011e-06
5.8297e-06
-1.64245e-06
5.68847e-06
-1.70661e-06
5.54856e-06
-1.76269e-06
5.41085e-06
-1.81057e-06
5.27561e-06
-1.85014e-06
5.14208e-06
-1.8822e-06
5.00962e-06
-1.90898e-06
4.87822e-06
-1.93201e-06
4.74799e-06
-1.95188e-06
4.61906e-06
-1.96904e-06
4.49157e-06
-1.98391e-06
4.36573e-06
-1.99684e-06
-2.00808e-06
-3.13193e-09
-3.13753e-07
-1.0177e-08
-1.45413e-07
-1.74581e-08
-1.52306e-07
-2.42471e-08
-1.60991e-07
-3.06391e-08
-1.66556e-07
-3.66794e-08
-1.71485e-07
-4.23342e-08
-1.7617e-07
-4.75062e-08
-1.80676e-07
-5.20294e-08
-1.84997e-07
-5.56442e-08
-1.89087e-07
-5.79449e-08
-1.92854e-07
-5.83022e-08
-1.96141e-07
-5.58074e-08
-1.98702e-07
-4.92787e-08
-2.00178e-07
-3.72804e-08
-2.00093e-07
-1.81337e-08
-1.97844e-07
1.00901e-08
-1.92744e-07
4.94456e-08
-1.83973e-07
1.02027e-07
-1.70616e-07
1.69881e-07
-1.51716e-07
2.54937e-07
-1.26324e-07
3.59264e-07
-9.3541e-08
4.85378e-07
-5.25972e-08
6.36968e-07
-2.76089e-09
8.19713e-07
5.71664e-08
1.04054e-06
1.28641e-07
1.30575e-06
2.13864e-07
1.61848e-06
3.15397e-07
1.97704e-06
4.35476e-07
2.37466e-06
5.74606e-07
2.80056e-06
7.31061e-07
3.24116e-06
9.01566e-07
3.68205e-06
1.08135e-06
4.11002e-06
1.26494e-06
4.51476e-06
1.44658e-06
4.88934e-06
1.62156e-06
5.2306e-06
1.78643e-06
5.53942e-06
1.93873e-06
5.81784e-06
2.07785e-06
6.06771e-06
2.20472e-06
6.29111e-06
2.32025e-06
6.49069e-06
2.42477e-06
6.66902e-06
2.51922e-06
6.82862e-06
2.60437e-06
6.97208e-06
2.68093e-06
7.10187e-06
2.74959e-06
7.22023e-06
2.81105e-06
7.32909e-06
2.86593e-06
7.43007e-06
2.91475e-06
7.52441e-06
2.95792e-06
7.61308e-06
2.99567e-06
7.69682e-06
3.02812e-06
7.77612e-06
3.05529e-06
7.85133e-06
3.07706e-06
7.92264e-06
3.09327e-06
7.99014e-06
3.10364e-06
8.0538e-06
3.10784e-06
8.11353e-06
3.10548e-06
8.16916e-06
3.0961e-06
8.22045e-06
3.07919e-06
8.26709e-06
3.0542e-06
8.30872e-06
3.02049e-06
8.34494e-06
2.97738e-06
8.37526e-06
2.92413e-06
8.39917e-06
2.85992e-06
8.41609e-06
2.78386e-06
8.42539e-06
2.69499e-06
8.4264e-06
2.59226e-06
8.41839e-06
2.47454e-06
8.40057e-06
2.3406e-06
8.37213e-06
2.18909e-06
8.33223e-06
2.01859e-06
8.27997e-06
1.82757e-06
8.21447e-06
1.61441e-06
8.13724e-06
1.3427e-06
8.05115e-06
1.04299e-06
7.9573e-06
7.65136e-07
7.85661e-06
5.08694e-07
7.74954e-06
2.73153e-07
7.63619e-06
5.63872e-08
7.51697e-06
-1.43676e-07
7.39239e-06
-3.28143e-07
7.26297e-06
-4.97872e-07
7.1292e-06
-6.53676e-07
6.99157e-06
-7.96329e-07
6.8505e-06
-9.26578e-07
6.70642e-06
-1.04517e-06
6.55976e-06
-1.15288e-06
6.41096e-06
-1.2505e-06
6.26055e-06
-1.33883e-06
6.10911e-06
-1.41868e-06
5.95736e-06
-1.49069e-06
5.80607e-06
-1.55532e-06
5.65607e-06
-1.6127e-06
5.50819e-06
-1.66268e-06
5.36305e-06
-1.705e-06
5.22049e-06
-1.73964e-06
5.07966e-06
-1.76814e-06
4.94022e-06
-1.79257e-06
4.80218e-06
-1.81384e-06
4.66564e-06
-1.8325e-06
4.53074e-06
-1.84902e-06
4.39769e-06
-1.86379e-06
4.26671e-06
-1.8771e-06
-1.88918e-06
-2.9032e-09
-3.1085e-07
-9.19727e-09
-1.3912e-07
-1.5375e-08
-1.4613e-07
-2.10034e-08
-1.55364e-07
-2.62765e-08
-1.61283e-07
-3.13266e-08
-1.66436e-07
-3.61943e-08
-1.71303e-07
-4.08641e-08
-1.76006e-07
-4.52773e-08
-1.80584e-07
-4.93308e-08
-1.85034e-07
-5.28607e-08
-1.89324e-07
-5.56078e-08
-1.93394e-07
-5.71613e-08
-1.97149e-07
-5.69084e-08
-2.00431e-07
-5.40012e-08
-2.03e-07
-4.73233e-08
-2.04522e-07
-3.54895e-08
-2.04578e-07
-1.68584e-08
-2.02604e-07
1.04577e-08
-1.97932e-07
4.85113e-08
-1.89769e-07
9.94255e-08
-1.77238e-07
1.65273e-07
-1.59389e-07
2.47939e-07
-1.35263e-07
3.49129e-07
-1.03951e-07
4.70934e-07
-6.46381e-08
6.16214e-07
-1.66397e-08
7.89101e-07
4.09776e-08
9.95228e-07
1.0927e-07
1.24113e-06
1.89578e-07
1.53135e-06
2.84379e-07
1.86658e-06
3.95831e-07
2.24304e-06
5.25108e-07
2.65283e-06
6.71562e-07
3.0848e-06
8.32964e-07
3.52582e-06
1.00556e-06
3.9628e-06
1.18459e-06
4.3843e-06
1.36493e-06
4.78186e-06
1.54117e-06
5.15028e-06
1.70942e-06
5.48807e-06
1.86694e-06
5.79637e-06
2.01195e-06
6.07667e-06
2.14447e-06
6.33017e-06
2.26572e-06
6.5587e-06
2.37584e-06
6.76439e-06
2.47523e-06
6.94937e-06
2.56461e-06
7.11588e-06
2.64453e-06
7.26623e-06
2.71558e-06
7.40265e-06
2.77833e-06
7.52718e-06
2.83339e-06
7.64158e-06
2.88126e-06
7.74731e-06
2.92239e-06
7.84555e-06
2.95705e-06
7.9372e-06
2.98541e-06
8.02293e-06
3.00754e-06
8.1032e-06
3.02337e-06
8.1783e-06
3.03274e-06
8.24838e-06
3.03541e-06
8.31348e-06
3.031e-06
8.37352e-06
3.01916e-06
8.42826e-06
2.99946e-06
8.47746e-06
2.9713e-06
8.52076e-06
2.93408e-06
8.5577e-06
2.88718e-06
8.58778e-06
2.82984e-06
8.61042e-06
2.76122e-06
8.62499e-06
2.68042e-06
8.63075e-06
2.5865e-06
8.62693e-06
2.47837e-06
8.61267e-06
2.35486e-06
8.58707e-06
2.21469e-06
8.54919e-06
2.05647e-06
8.49805e-06
1.87871e-06
8.43265e-06
1.6798e-06
8.35446e-06
1.42089e-06
8.26643e-06
1.13102e-06
8.16982e-06
8.61754e-07
8.06583e-06
6.12678e-07
7.95528e-06
3.83704e-07
7.83795e-06
1.73723e-07
7.71401e-06
-1.97418e-08
7.58398e-06
-1.9811e-07
7.44836e-06
-3.62254e-07
7.30765e-06
-5.1297e-07
7.16236e-06
-6.51031e-07
7.01296e-06
-7.77186e-07
6.85999e-06
-8.92199e-07
6.704e-06
-9.96885e-07
6.54559e-06
-1.09209e-06
6.38543e-06
-1.17866e-06
6.22418e-06
-1.25743e-06
6.06265e-06
-1.32916e-06
5.9017e-06
-1.39438e-06
5.74223e-06
-1.45322e-06
5.58503e-06
-1.50549e-06
5.43072e-06
-1.55068e-06
5.2794e-06
-1.58831e-06
5.13024e-06
-1.61898e-06
4.98252e-06
-1.64485e-06
4.83622e-06
-1.66754e-06
4.69151e-06
-1.68779e-06
4.54862e-06
-1.70612e-06
4.4078e-06
-1.72297e-06
4.26934e-06
-1.73864e-06
4.1335e-06
-1.75335e-06
4.00056e-06
-1.76721e-06
-1.78027e-06
-2.65344e-09
-3.08197e-07
-8.07462e-09
-1.33699e-07
-1.29907e-08
-1.41214e-07
-1.72674e-08
-1.51088e-07
-2.11584e-08
-1.57393e-07
-2.48434e-08
-1.62751e-07
-2.84024e-08
-1.67744e-07
-3.18619e-08
-1.72547e-07
-3.52159e-08
-1.7723e-07
-3.84327e-08
-1.81817e-07
-4.14528e-08
-1.86304e-07
-4.41798e-08
-1.90667e-07
-4.64613e-08
-1.94867e-07
-4.8051e-08
-1.98842e-07
-4.85582e-08
-2.02493e-07
-4.74117e-08
-2.05669e-07
-4.38471e-08
-2.08142e-07
-3.6844e-08
-2.09607e-07
-2.51021e-08
-2.09673e-07
-7.01984e-09
-2.07851e-07
1.92408e-08
-2.03499e-07
5.57174e-08
-1.95865e-07
1.04548e-07
-1.84094e-07
1.67838e-07
-1.67241e-07
2.47517e-07
-1.44318e-07
3.45274e-07
-1.14396e-07
4.62886e-07
-7.66346e-08
6.02533e-07
-3.03773e-08
7.67186e-07
2.49239e-08
9.61227e-07
9.03392e-08
1.19011e-06
1.66951e-07
1.45902e-06
2.56192e-07
1.77055e-06
3.6003e-07
2.12344e-06
4.80082e-07
2.51244e-06
6.16558e-07
2.92907e-06
7.67947e-07
3.36232e-06
9.31692e-07
3.79974e-06
1.10375e-06
4.22971e-06
1.27945e-06
4.64278e-06
1.45386e-06
5.03217e-06
1.62256e-06
5.39417e-06
1.78248e-06
5.72873e-06
1.93115e-06
6.03682e-06
2.06775e-06
6.31903e-06
2.19302e-06
6.57627e-06
2.30737e-06
6.80996e-06
2.41084e-06
7.02161e-06
2.50393e-06
7.21298e-06
2.58697e-06
7.386e-06
2.66036e-06
7.54271e-06
2.72456e-06
7.68508e-06
2.78002e-06
7.81492e-06
2.8272e-06
7.93383e-06
2.86651e-06
8.04313e-06
2.89824e-06
8.14389e-06
2.92261e-06
8.23692e-06
2.93971e-06
8.3228e-06
2.94952e-06
8.40206e-06
2.95175e-06
8.47474e-06
2.94648e-06
8.54086e-06
2.93334e-06
8.60046e-06
2.91169e-06
8.65336e-06
2.88119e-06
8.69913e-06
2.84141e-06
8.73732e-06
2.79165e-06
8.76745e-06
2.7311e-06
8.78889e-06
2.65898e-06
8.8009e-06
2.57449e-06
8.80263e-06
2.47663e-06
8.79318e-06
2.36431e-06
8.77158e-06
2.23629e-06
8.73681e-06
2.09125e-06
8.68778e-06
1.92774e-06
8.62338e-06
1.74421e-06
8.54495e-06
1.49932e-06
8.4555e-06
1.22047e-06
8.3564e-06
9.60849e-07
8.24908e-06
7.20002e-07
8.13475e-06
4.98036e-07
8.01355e-06
2.94927e-07
7.88525e-06
1.08552e-07
7.75013e-06
-6.29932e-08
7.60861e-06
-2.20729e-07
7.46116e-06
-3.65518e-07
7.30834e-06
-4.98217e-07
7.15084e-06
-6.19679e-07
6.98936e-06
-7.30724e-07
6.82471e-06
-8.32235e-07
6.65777e-06
-9.25151e-07
6.48928e-06
-1.01018e-06
6.31984e-06
-1.08798e-06
6.14994e-06
-1.15927e-06
5.98016e-06
-1.2246e-06
5.81122e-06
-1.28427e-06
5.64397e-06
-1.33824e-06
5.47932e-06
-1.38604e-06
5.31792e-06
-1.42691e-06
5.15944e-06
-1.46051e-06
5.00278e-06
-1.48819e-06
4.84752e-06
-1.51229e-06
4.69398e-06
-1.53424e-06
4.54251e-06
-1.55465e-06
4.39347e-06
-1.57393e-06
4.24719e-06
-1.59236e-06
4.10399e-06
-1.61015e-06
3.96415e-06
-1.62736e-06
3.8279e-06
-1.64403e-06
-1.66008e-06
-2.40649e-09
-3.05791e-07
-6.9043e-09
-1.29202e-07
-1.05148e-08
-1.37605e-07
-1.341e-08
-1.48193e-07
-1.58886e-08
-1.54915e-07
-1.81419e-08
-1.60498e-07
-2.02606e-08
-1.65625e-07
-2.22859e-08
-1.70522e-07
-2.4233e-08
-1.75283e-07
-2.61006e-08
-1.7995e-07
-2.78726e-08
-1.84532e-07
-2.95165e-08
-1.89023e-07
-3.09782e-08
-1.93406e-07
-3.21709e-08
-1.97649e-07
-3.29556e-08
-2.01708e-07
-3.31056e-08
-2.05519e-07
-3.22649e-08
-2.08983e-07
-2.99183e-08
-2.11954e-07
-2.53693e-08
-2.14222e-07
-1.77098e-08
-2.15511e-07
-5.74462e-09
-2.15464e-07
1.2024e-08
-2.13634e-07
3.73726e-08
-2.09442e-07
7.23092e-08
-2.02177e-07
1.19007e-07
-1.91016e-07
1.79653e-07
-1.75042e-07
2.56293e-07
-1.53274e-07
3.50676e-07
-1.24761e-07
4.64236e-07
-8.86352e-08
5.98738e-07
-4.41629e-08
7.56487e-07
9.20181e-09
9.40543e-07
7.21356e-08
1.15499e-06
1.45581e-07
1.40472e-06
2.30357e-07
1.69343e-06
3.27844e-07
2.02188e-06
4.395e-07
2.38726e-06
5.66314e-07
2.78339e-06
7.07616e-07
3.2016e-06
8.61238e-07
3.63116e-06
1.0243e-06
4.06086e-06
1.19286e-06
4.48079e-06
1.36255e-06
4.88332e-06
1.52863e-06
5.26339e-06
1.68767e-06
5.61927e-06
1.83715e-06
5.95115e-06
1.9755e-06
6.25911e-06
2.10287e-06
6.54322e-06
2.21982e-06
6.80403e-06
2.32616e-06
7.0423e-06
2.42209e-06
7.25914e-06
2.50772e-06
7.45597e-06
2.58319e-06
7.63445e-06
2.64871e-06
7.79637e-06
2.70459e-06
7.94345e-06
2.75117e-06
8.07728e-06
2.78878e-06
8.19928e-06
2.81771e-06
8.31066e-06
2.83815e-06
8.41203e-06
2.85037e-06
8.50406e-06
2.85445e-06
8.58746e-06
2.84994e-06
8.66278e-06
2.83637e-06
8.72976e-06
2.81421e-06
8.7881e-06
2.78307e-06
8.83763e-06
2.74212e-06
8.87816e-06
2.69057e-06
8.90913e-06
2.62801e-06
8.92977e-06
2.55385e-06
8.93919e-06
2.46721e-06
8.93648e-06
2.36702e-06
8.92062e-06
2.25215e-06
8.89054e-06
2.12133e-06
8.84507e-06
1.97321e-06
8.78294e-06
1.80634e-06
8.70532e-06
1.57694e-06
8.61521e-06
1.31058e-06
8.51403e-06
1.06203e-06
8.40328e-06
8.30752e-07
8.28463e-06
6.16687e-07
8.15924e-06
4.20315e-07
8.02681e-06
2.40981e-07
7.88705e-06
7.67675e-08
7.74014e-06
-7.38208e-08
7.58657e-06
-2.11942e-07
7.42705e-06
-3.38703e-07
7.26267e-06
-4.55294e-07
7.09443e-06
-5.6249e-07
6.92322e-06
-6.6102e-07
6.74977e-06
-7.51705e-07
6.5747e-06
-8.35108e-07
6.39837e-06
-9.11651e-07
6.2209e-06
-9.81798e-07
6.04243e-06
-1.04613e-06
5.86333e-06
-1.10517e-06
5.68436e-06
-1.15928e-06
5.50675e-06
-1.20843e-06
5.33205e-06
-1.2522e-06
5.16141e-06
-1.28987e-06
4.99444e-06
-1.32123e-06
4.82991e-06
-1.34776e-06
4.66748e-06
-1.37181e-06
4.50754e-06
-1.39471e-06
4.3505e-06
-1.41688e-06
4.19672e-06
-1.43859e-06
4.04655e-06
-1.45997e-06
3.90026e-06
-1.48107e-06
3.75809e-06
-1.50186e-06
3.62023e-06
-1.52222e-06
3.48682e-06
-1.54203e-06
-1.56113e-06
-2.18182e-09
-3.03609e-07
-5.76655e-09
-1.25618e-07
-8.09259e-09
-1.35279e-07
-9.69744e-09
-1.46589e-07
-1.08883e-08
-1.53724e-07
-1.18385e-08
-1.59548e-07
-1.26286e-08
-1.64836e-07
-1.32963e-08
-1.69854e-07
-1.38593e-08
-1.7472e-07
-1.43251e-08
-1.79484e-07
-1.46914e-08
-1.84166e-07
-1.49486e-08
-1.88766e-07
-1.50779e-08
-1.93276e-07
-1.50486e-08
-1.97678e-07
-1.48112e-08
-2.01946e-07
-1.42877e-08
-2.06042e-07
-1.33511e-08
-2.0992e-07
-1.17942e-08
-2.13511e-07
-9.29696e-09
-2.1672e-07
-5.40345e-09
-2.19404e-07
5.02408e-10
-2.2137e-07
9.23097e-09
-2.22363e-07
2.185e-08
-2.22061e-07
3.97385e-08
-2.20066e-07
6.4592e-08
-2.15869e-07
9.83628e-08
-2.08813e-07
1.43207e-07
-1.98118e-07
2.0134e-07
-1.82894e-07
2.74881e-07
-1.62176e-07
3.65709e-07
-1.34991e-07
4.75341e-07
-1.0043e-07
6.05181e-07
-5.77037e-08
7.57e-07
-6.23793e-09
9.33003e-07
5.43537e-08
1.13599e-06
1.24853e-07
1.36945e-06
2.06042e-07
1.63738e-06
2.98389e-07
1.94203e-06
4.02965e-07
2.28255e-06
5.20715e-07
2.6549e-06
6.51953e-07
3.05243e-06
7.95325e-07
3.46674e-06
9.48247e-07
3.88779e-06
1.10757e-06
4.30589e-06
1.26957e-06
4.71303e-06
1.43001e-06
5.10337e-06
1.58515e-06
5.47388e-06
1.73236e-06
5.82398e-06
1.86973e-06
6.1531e-06
1.99703e-06
6.46051e-06
2.11468e-06
6.74572e-06
2.22251e-06
7.0087e-06
2.32021e-06
7.24991e-06
2.40751e-06
7.47022e-06
2.48428e-06
7.67085e-06
2.55054e-06
7.85318e-06
2.60645e-06
8.01865e-06
2.65223e-06
8.16865e-06
2.68814e-06
8.30458e-06
2.71445e-06
8.42775e-06
2.73128e-06
8.53903e-06
2.73866e-06
8.63843e-06
2.73697e-06
8.72618e-06
2.72646e-06
8.80335e-06
2.70589e-06
8.86998e-06
2.6755e-06
8.92632e-06
2.63422e-06
8.97138e-06
2.58295e-06
9.00443e-06
2.52081e-06
9.02485e-06
2.44678e-06
9.03184e-06
2.36004e-06
9.0244e-06
2.25959e-06
9.00146e-06
2.14427e-06
8.96179e-06
2.01288e-06
8.904e-06
1.86413e-06
8.82899e-06
1.65195e-06
8.73967e-06
1.3999e-06
8.63748e-06
1.16422e-06
8.52393e-06
9.44303e-07
8.40074e-06
7.39878e-07
8.26993e-06
5.51125e-07
8.13254e-06
3.78365e-07
7.98838e-06
2.20933e-07
7.83732e-06
7.7235e-08
7.67964e-06
-5.42571e-08
7.51591e-06
-1.7498e-07
7.34713e-06
-2.86513e-07
7.17434e-06
-3.89693e-07
6.9982e-06
-4.84887e-07
6.81895e-06
-5.72448e-07
6.63684e-06
-6.53001e-07
6.45226e-06
-7.27067e-07
6.26556e-06
-7.95103e-07
6.0771e-06
-8.57663e-07
5.88729e-06
-9.15367e-07
5.69681e-06
-9.68791e-07
5.50671e-06
-1.01834e-06
5.31859e-06
-1.06408e-06
5.13432e-06
-1.1056e-06
4.95522e-06
-1.14212e-06
4.78085e-06
-1.17338e-06
4.60991e-06
-1.20087e-06
4.44205e-06
-1.22686e-06
4.27766e-06
-1.25249e-06
4.11709e-06
-1.27803e-06
3.96069e-06
-1.30356e-06
3.8087e-06
-1.32909e-06
3.66137e-06
-1.35452e-06
3.51884e-06
-1.3797e-06
3.38124e-06
-1.40443e-06
3.24864e-06
-1.42853e-06
3.12106e-06
-1.45176e-06
2.99849e-06
-1.47394e-06
2.88089e-06
-1.49488e-06
-1.51442e-06
-1.99301e-09
-3.01616e-07
-4.73937e-09
-1.22872e-07
-5.86399e-09
-1.34156e-07
-6.35979e-09
-1.46094e-07
-6.47276e-09
-1.53612e-07
-6.34342e-09
-1.59678e-07
-6.03418e-09
-1.65145e-07
-5.57214e-09
-1.70316e-07
-4.96826e-09
-1.75325e-07
-4.22338e-09
-1.80229e-07
-3.33594e-09
-1.85053e-07
-2.30001e-09
-1.89802e-07
-1.10567e-09
-1.94471e-07
2.61654e-10
-1.99046e-07
1.82275e-09
-2.03507e-07
3.60838e-09
-2.07828e-07
5.66507e-09
-2.11977e-07
8.06513e-09
-2.15911e-07
1.09247e-08
-2.19579e-07
1.44323e-08
-2.22912e-07
1.88762e-08
-2.25814e-07
2.46637e-08
-2.2815e-07
3.23402e-08
-2.29738e-07
4.26208e-08
-2.30346e-07
5.64372e-08
-2.29686e-07
7.50191e-08
-2.27395e-07
9.99166e-08
-2.23016e-07
1.32988e-07
-2.15966e-07
1.76341e-07
-2.05528e-07
2.32209e-07
-1.90859e-07
3.02803e-07
-1.71024e-07
3.9015e-07
-1.4505e-07
4.95924e-07
-1.12011e-07
6.21359e-07
-7.10814e-08
7.67825e-07
-2.16134e-08
9.37024e-07
3.68425e-08
1.13092e-06
1.0449e-07
1.3518e-06
1.82087e-07
1.60224e-06
2.70274e-07
1.88503e-06
3.6916e-07
2.20109e-06
4.79272e-07
2.54838e-06
6.00956e-07
2.9221e-06
7.33853e-07
3.31545e-06
8.7622e-07
3.72031e-06
1.02515e-06
4.12813e-06
1.17734e-06
4.53105e-06
1.32944e-06
4.92302e-06
1.47776e-06
5.3005e-06
1.61955e-06
5.66203e-06
1.75314e-06
6.00603e-06
1.8785e-06
6.33088e-06