/*--------------------------------*- C++ -*----------------------------------*\
  =========                 |
  \\      /  F ield         | OpenFOAM: The Open Source CFD Toolbox
   \\    /   O peration     | Website:  https://openfoam.org
    \\  /    A nd           | Version:  10
     \\/     M anipulation  |
\*---------------------------------------------------------------------------*/
FoamFile
{
    format      ascii;
    class       volVectorField;
    location    "32000";
    object      U;
}
// * * * * * * * * * * * * * * * * * * * * * * * * * * * * * * * * * * * * * //

dimensions      [0 1 -1 0 0 0 0];

internalField   nonuniform List<vector> 
17969
(
(0.122925 1.53791 0)
(-0.0452773 1.59764 0)
(-0.0206328 1.60834 -8.05165e-18)
(-0.019609 1.62081 9.03772e-18)
(-0.0193428 1.63386 -2.86697e-18)
(-0.0183938 1.64756 -2.18644e-18)
(-0.0167841 1.66245 1.77171e-18)
(-0.0144836 1.67918 0)
(-0.0113168 1.69842 9.51726e-20)
(-0.00694701 1.7208 0)
(-0.00104174 1.74694 0)
(0.00699119 1.77827 0)
(0.0179631 1.81681 0)
(0.0321881 1.8632 -1.25796e-18)
(0.0493479 1.91604 1.219e-18)
(0.0686146 1.97227 0)
(0.0888359 2.02828 -8.90516e-19)
(0.108713 2.08074 7.79666e-19)
(0.127253 2.12733 -6.76921e-19)
(0.143746 2.16708 5.92617e-19)
(0.157698 2.19998 0)
(0.169312 2.22716 0)
(0.178883 2.24979 -5.56137e-20)
(0.186547 2.26887 0)
(0.19264 2.28525 0)
(0.197485 2.29959 3.49562e-19)
(0.201334 2.31244 -6.45884e-19)
(0.204398 2.32425 2.98191e-19)
(0.206881 2.33535 2.7315e-19)
(0.208869 2.34601 -3.30726e-20)
(0.21054 2.35639 -2.92377e-19)
(0.211941 2.36661 0)
(0.213136 2.37676 1.99949e-19)
(0.214167 2.38689 -4.20569e-19)
(0.21506 2.39704 1.21296e-21)
(0.215833 2.40724 3.27589e-19)
(0.216498 2.41751 -1.54655e-19)
(0.217062 2.42789 -1.81221e-19)
(0.217529 2.43838 1.03643e-19)
(0.217904 2.44899 0)
(0.218186 2.45976 3.10811e-20)
(0.218376 2.47068 2.96189e-20)
(0.218474 2.48177 2.24673e-19)
(0.218478 2.49304 -2.16992e-19)
(0.218387 2.50451 -2.05785e-19)
(0.218198 2.51619 -4.75926e-20)
(0.21791 2.52809 1.91695e-19)
(0.21752 2.54022 1.82244e-19)
(0.217025 2.5526 -2.15822e-21)
(0.216423 2.56523 -1.71111e-19)
(0.21571 2.57813 -2.03943e-19)
(0.214882 2.59132 1.98948e-19)
(0.213938 2.6048 0)
(0.212872 2.61858 0)
(0.211681 2.63268 3.57433e-20)
(0.210362 2.64711 2.05775e-19)
(0.208909 2.66188 -1.34451e-19)
(0.20732 2.67701 0)
(0.205588 2.6925 0)
(0.20371 2.70837 5.88812e-20)
(0.20168 2.72462 -1.17959e-19)
(0.199493 2.74128 0)
(0.197145 2.75836 0)
(0.19463 2.77585 -5.29748e-20)
(0.191943 2.79379 -1.00683e-19)
(0.189078 2.81218 5.23355e-20)
(0.18603 2.83103 9.67241e-20)
(0.182794 2.85036 0)
(0.179364 2.87018 0)
(0.175736 2.8905 0)
(0.171904 2.91134 8.06774e-20)
(0.167864 2.93272 -5.45322e-21)
(0.163612 2.95465 -1.55591e-19)
(0.159143 2.97715 0)
(0.15452 2.99991 6.89572e-20)
(0.149877 3.0223 6.46867e-20)
(0.145286 3.04402 -6.03163e-20)
(0.140748 3.0651 0)
(0.13628 3.08555 0)
(0.131873 3.10537 0)
(0.127528 3.12454 0)
(0.123262 3.1431 0)
(0.119074 3.16107 7.46574e-20)
(0.114963 3.17846 -1.24745e-19)
(0.110925 3.19529 8.45333e-20)
(0.106962 3.21157 -1.50612e-20)
(0.103077 3.22734 0)
(0.0992885 3.24264 0)
(0.0956203 3.25759 0)
(0.0920906 3.27226 -2.5816e-20)
(0.0886927 3.28667 3.4216e-20)
(0.0853779 3.30073 2.64203e-20)
(0.0821187 3.31438 -2.60346e-20)
(0.0789067 3.3276 1.90576e-20)
(0.0757384 3.34039 -3.65923e-20)
(0.072613 3.35272 1.36095e-20)
(0.0695318 3.36461 0)
(0.0664959 3.37603 -6.43405e-21)
(0.0635067 3.387 6.29268e-21)
(0.0605662 3.39749 3.28321e-22)
(0.0893844 1.54259 0)
(-0.0839355 1.60179 -3.01383e-17)
(-0.0581156 1.60895 2.01458e-17)
(-0.0577045 1.61783 3.62742e-19)
(-0.0580654 1.62793 1.42641e-17)
(-0.0578848 1.63864 -2.03279e-17)
(-0.0572497 1.6502 8.25136e-18)
(-0.0561684 1.66302 7.25912e-18)
(-0.0545437 1.67759 -6.88288e-18)
(-0.0522404 1.69439 -6.6411e-18)
(-0.0491111 1.71374 1.21591e-20)
(-0.0448922 1.73583 5.77684e-18)
(-0.0392666 1.76106 0)
(-0.0317954 1.79046 0)
(-0.0218242 1.82557 -5.08541e-18)
(-0.00893014 1.86734 4.9152e-18)
(0.00672397 1.91513 0)
(0.0246114 1.96687 -3.93827e-18)
(0.0438359 2.01973 3.61464e-18)
(0.0633418 2.0709 0)
(0.082099 2.11807 -2.70983e-18)
(0.0993846 2.15977 2.24151e-18)
(0.114593 2.19548 6.58124e-20)
(0.127506 2.22559 0)
(0.138354 2.25102 1.75543e-18)
(0.147315 2.27265 -1.10399e-19)
(0.154549 2.29132 -3.04698e-18)
(0.160349 2.30767 1.4204e-18)
(0.164964 2.32225 -8.23786e-20)
(0.168635 2.33549 1.25532e-18)
(0.171532 2.34778 -1.0644e-18)
(0.173819 2.35941 0)
(0.175633 2.37062 8.47874e-19)
(0.177079 2.38158 -7.36765e-19)
(0.178237 2.39239 0)
(0.179166 2.40314 9.81073e-20)
(0.179906 2.41389 -9.16967e-20)
(0.180486 2.42469 -6.40596e-19)
(0.180924 2.43555 1.32955e-18)
(0.181233 2.44652 -8.117e-20)
(0.181423 2.45761 -6.12111e-19)
(0.181497 2.46884 -6.42939e-19)
(0.181458 2.48022 1.03164e-18)
(0.181308 2.49178 -1.1043e-18)
(0.181046 2.50353 9.35323e-19)
(0.180672 2.51548 -3.93224e-19)
(0.180183 2.52765 4.2467e-19)
(0.179576 2.54005 -9.20539e-19)
(0.17885 2.55268 7.84506e-19)
(0.178001 2.56557 -7.53245e-19)
(0.177025 2.57873 3.1878e-19)
(0.175917 2.59217 -4.34194e-20)
(0.174675 2.60589 0)
(0.173293 2.61993 0)
(0.171767 2.63428 -3.88258e-20)
(0.170091 2.64896 -7.48966e-20)
(0.168261 2.66398 2.8737e-19)
(0.166271 2.67935 -4.22815e-19)
(0.164116 2.69509 -5.35214e-19)
(0.161789 2.71121 7.57002e-20)
(0.159284 2.72772 5.09554e-19)
(0.156596 2.74463 6.0356e-19)
(0.153718 2.76196 -5.93938e-19)
(0.150643 2.77971 5.65791e-20)
(0.147364 2.7979 0)
(0.143876 2.81654 5.35029e-20)
(0.140171 2.83565 4.02123e-19)
(0.136243 2.85524 -4.00125e-19)
(0.132085 2.87531 -1.90521e-19)
(0.127691 2.89589 -1.7513e-19)
(0.123056 2.91699 3.58475e-19)
(0.118172 2.93863 2.53747e-19)
(0.113035 2.96081 3.16662e-19)
(0.107639 2.98356 -3.16865e-19)
(0.102061 3.00657 -7.27801e-20)
(0.0964605 3.0292 -6.83059e-20)
(0.0909229 3.05116 6.37307e-20)
(0.0854563 3.07247 1.20179e-19)
(0.0800716 3.09315 3.27829e-19)
(0.0747579 3.11318 -1.28925e-20)
(0.0695266 3.13256 -2.00766e-19)
(0.0643898 3.15131 -4.5558e-20)
(0.0593466 3.16946 0)
(0.0543977 3.18704 1.97757e-20)
(0.0495427 3.20405 -1.76795e-20)
(0.0447796 3.22053 1.61688e-20)
(0.040106 3.23647 0)
(0.0355244 3.25191 0)
(0.031047 3.26689 -1.80852e-19)
(0.026696 3.28149 6.98337e-21)
(0.02249 3.29584 1.51713e-19)
(0.0184435 3.30997 0)
(0.0145123 3.32382 0)
(0.0106506 3.33727 8.31222e-20)
(0.00685456 3.35029 -1.48039e-19)
(0.00311742 3.36286 7.31354e-20)
(-0.000559021 3.37498 0)
(-0.00417254 3.38664 0)
(-0.00772126 3.39782 -1.61148e-20)
(-0.0112024 3.40853 9.24015e-21)
(0.0556695 1.54622 4.15894e-17)
(-0.121125 1.60448 -6.53067e-17)
(-0.0944669 1.61046 9.88345e-17)
(-0.094388 1.61689 -3.12594e-17)
(-0.0952292 1.62483 5.68663e-19)
(-0.0956339 1.63339 0)
(-0.0957358 1.64259 3.08378e-19)
(-0.095551 1.65265 0)
(-0.0950248 1.66393 0)
(-0.09405 1.67679 4.64131e-19)
(-0.0925243 1.69156 2.19469e-19)
(-0.0903378 1.70844 0)
(-0.0873591 1.72762 0)
(-0.0833878 1.74921 3.58228e-19)
(-0.0781139 1.77349 -5.28987e-18)
(-0.0712674 1.80107 4.50281e-18)
(-0.0623085 1.83318 -4.4561e-18)
(-0.0506993 1.87095 4.5544e-18)
(-0.0364894 1.91428 -1.32324e-19)
(-0.0199781 1.96189 -4.09232e-18)
(-0.00180667 2.01167 3.24861e-18)
(0.0171607 2.06124 3.84589e-19)
(0.0359746 2.10842 1.70706e-19)
(0.0538014 2.15153 0)
(0.0700988 2.18967 0)
(0.0843171 2.22255 2.02663e-18)
(0.0964298 2.25075 -1.53617e-18)
(0.10669 2.27503 -2.04216e-19)
(0.115174 2.29607 -1.23445e-18)
(0.122061 2.31459 1.42965e-18)
(0.127603 2.33109 0)
(0.132016 2.346 0)
(0.135494 2.3597 1.44733e-19)
(0.138204 2.37253 2.02045e-18)
(0.140294 2.38477 -4.02992e-18)
(0.14189 2.39661 1.76743e-18)
(0.143092 2.40821 1.09252e-19)
(0.14398 2.41969 -2.04898e-19)
(0.144611 2.43113 1.91669e-19)
(0.145025 2.44259 8.94325e-20)
(0.145253 2.45411 0)
(0.145314 2.46573 7.9077e-20)
(0.145221 2.47747 1.49921e-19)
(0.144984 2.48937 -9.8493e-19)
(0.144607 2.50143 1.08746e-20)
(0.144093 2.51369 1.15153e-18)
(0.143443 2.52614 0)
(0.142656 2.53882 -5.93369e-22)
(0.141731 2.55174 -2.21088e-19)
(0.140663 2.5649 0)
(0.139451 2.57833 1.00655e-19)
(0.138089 2.59204 -7.68599e-19)
(0.136574 2.60603 7.47976e-19)
(0.1349 2.62033 0)
(0.133062 2.63494 1.7195e-19)
(0.131053 2.64988 0)
(0.128869 2.66517 -1.59241e-19)
(0.126502 2.68081 -6.06832e-19)
(0.123946 2.69681 5.94768e-19)
(0.121193 2.71319 1.42434e-19)
(0.118238 2.72997 0)
(0.115071 2.74715 -6.53218e-19)
(0.111686 2.76474 1.39971e-18)
(0.108074 2.78276 -1.23743e-20)
(0.104228 2.80123 -2.50042e-19)
(0.100139 2.82014 -1.26466e-19)
(0.0958004 2.83952 -8.78368e-19)
(0.0912028 2.85938 1.36074e-20)
(0.0863387 2.87973 8.21322e-19)
(0.0812005 2.90058 1.71022e-21)
(0.0757805 2.92195 0)
(0.0700714 2.94385 5.27446e-19)
(0.0640663 2.96631 1.42335e-19)
(0.0577591 2.98932 -6.7685e-19)
(0.0512372 3.01259 0)
(0.0446897 3.03547 0)
(0.0382143 3.05767 -1.37925e-19)
(0.0318262 3.07922 3.70621e-19)
(0.0255306 3.10014 -1.07923e-18)
(0.019317 3.12039 9.00213e-19)
(0.0132005 3.13998 -5.40807e-19)
(0.00719129 3.15893 -3.31081e-19)
(0.00128919 3.17727 3.77533e-19)
(-0.00450435 3.19504 -3.67191e-19)
(-0.0101878 3.21224 6.21361e-19)
(-0.0157614 3.2289 -2.95948e-19)
(-0.0212273 3.24504 2.48388e-19)
(-0.026588 3.26066 -4.69316e-19)
(-0.0318432 3.27579 2.00699e-20)
(-0.0369854 3.29046 1.90765e-20)
(-0.0419978 3.30476 1.91477e-19)
(-0.0468582 3.3188 0)
(-0.0515518 3.33265 1.09206e-19)
(-0.0561013 3.34627 -1.97184e-19)
(-0.0605583 3.35952 3.64965e-21)
(-0.0649362 3.37232 9.37594e-21)
(-0.0692341 3.38467 6.11275e-21)
(-0.0734496 3.39654 7.20342e-21)
(-0.0775802 3.40794 2.73667e-20)
(-0.0816225 3.41884 8.57779e-22)
(0.0220677 1.54879 -1.32575e-18)
(-0.157088 1.60549 -1.35281e-16)
(-0.129931 1.61163 1.55409e-19)
(-0.12999 1.61676 2.3816e-18)
(-0.131153 1.62336 4.44217e-17)
(-0.13195 1.63053 3.00003e-17)
(-0.132557 1.63818 -4.00529e-19)
(-0.13301 1.64641 -1.95489e-17)
(-0.133256 1.65543 0)
(-0.133235 1.6655 1.65836e-17)
(-0.132861 1.67692 -1.58739e-17)
(-0.132041 1.68991 0)
(-0.130675 1.70468 0)
(-0.128658 1.72142 -4.16114e-19)
(-0.125879 1.74027 3.86886e-19)
(-0.122195 1.76131 3.55379e-19)
(-0.117326 1.78467 1.00736e-17)
(-0.111084 1.81077 -9.64174e-18)
(-0.103051 1.84051 0)
(-0.0926774 1.87497 2.73247e-19)
(-0.0798471 1.91444 8.98319e-18)
(-0.0647137 1.95825 -1.53814e-17)
(-0.0476881 2.00495 6.6581e-18)
(-0.0294612 2.05259 3.8492e-19)
(-0.0108468 2.09922 5.48324e-18)
(0.00730477 2.14313 -4.90858e-18)
(0.0243141 2.18305 -4.62842e-18)
(0.0397549 2.21844 4.38711e-18)
(0.05315 2.24927 6.91181e-22)
(0.0646028 2.27613 -3.24441e-18)
(0.0743621 2.29965 3.05841e-18)
(0.0824336 2.3204 0)
(0.0890071 2.33893 0)
(0.0943001 2.35569 -2.51172e-18)
(0.0984996 2.37103 2.66599e-18)
(0.101774 2.38527 -2.20502e-18)
(0.104276 2.39872 2.07907e-18)
(0.106142 2.41163 -1.68962e-18)
(0.10749 2.42417 -2.12073e-19)
(0.108417 2.43651 1.3905e-20)
(0.108997 2.44875 3.18465e-18)
(0.109288 2.46097 -2.98804e-18)
(0.109332 2.47322 1.23529e-18)
(0.109157 2.48557 0)
(0.108785 2.49804 0)
(0.108229 2.51067 -1.46819e-19)
(0.107498 2.52347 -1.10856e-18)
(0.106597 2.53648 9.29978e-19)
(0.105528 2.54971 -7.47997e-19)
(0.104292 2.56318 1.20154e-18)
(0.102887 2.57691 1.13374e-18)
(0.10131 2.5909 -1.09384e-18)
(0.0995578 2.60519 0)
(0.0976245 2.61977 -5.90158e-19)
(0.0955052 2.63466 7.69348e-19)
(0.0931938 2.64989 0)
(0.0906836 2.66545 1.74802e-19)
(0.0879675 2.68137 1.67861e-19)
(0.0850379 2.69766 -3.24789e-19)
(0.081887 2.71432 -1.55059e-19)
(0.0785064 2.73138 3.00388e-19)
(0.0748875 2.74884 1.13886e-18)
(0.0710213 2.76672 -1.39747e-18)
(0.0668987 2.78503 1.05324e-18)
(0.0625102 2.80378 -1.53959e-18)
(0.0578463 2.82299 1.00162e-18)
(0.0528973 2.84266 -1.17456e-18)
(0.0476537 2.86281 1.15791e-18)
(0.0421057 2.88345 -2.18676e-19)
(0.0362441 2.90459 -1.03856e-18)
(0.0300595 2.92625 8.25988e-19)
(0.0235429 2.94843 0)
(0.0166858 2.97117 -1.85177e-19)
(0.00948047 2.99446 0)
(0.00202668 3.01801 0)
(-0.00545937 3.04115 0)
(-0.0128653 3.06359 7.2033e-19)
(-0.0201711 3.0854 -5.67966e-19)
(-0.0273734 3.10656 -2.61388e-19)
(-0.0344839 3.12704 -2.45698e-19)
(-0.0414876 3.14686 1.13731e-19)
(-0.0483731 3.16603 -1.07738e-19)
(-0.0551407 3.18458 -3.84578e-19)
(-0.0617886 3.20254 3.82232e-19)
(-0.0683143 3.21993 3.27599e-19)
(-0.0747166 3.23678 -2.46299e-20)
(-0.0809957 3.25311 -8.42971e-19)
(-0.0871527 3.26892 4.56285e-20)
(-0.0931895 3.28424 4.8662e-19)
(-0.0991065 3.29908 -5.22903e-20)
(-0.104899 3.31348 2.34912e-20)
(-0.110555 3.32751 -2.94819e-19)
(-0.116055 3.34127 2.82354e-19)
(-0.121383 3.35485 -1.39879e-20)
(-0.126547 3.36823 1.11794e-20)
(-0.131595 3.38125 1.2445e-19)
(-0.136547 3.39381 -2.2781e-19)
(-0.141391 3.40589 1.06885e-19)
(-0.146127 3.41748 4.8391e-20)
(-0.150751 3.42856 -7.13721e-20)
(-0.15526 3.43913 2.35543e-20)
(-0.159651 3.44918 -3.89638e-22)
(-0.163921 3.45871 -3.95252e-20)
(-0.168068 3.46771 3.82376e-20)
(-0.0109701 1.55046 8.91498e-17)
(-0.191972 1.60528 0)
(-0.164508 1.61206 1.21473e-16)
(-0.164613 1.61658 1.19085e-18)
(-0.16597 1.62244 -1.06728e-16)
(-0.167006 1.6288 7.22524e-17)
(-0.167929 1.63553 -2.58513e-17)
(-0.16878 1.64267 0)
(-0.169533 1.65032 1.97299e-17)
(-0.170153 1.65861 -3.57365e-17)
(-0.170573 1.66776 1.67264e-17)
(-0.170733 1.67798 -5.24548e-19)
(-0.170541 1.68949 1.61227e-17)
(-0.169909 1.70249 -3.05134e-17)
(-0.168744 1.71716 1.38511e-17)
(-0.166946 1.73367 -8.30572e-19)
(-0.164417 1.75215 1.23032e-17)
(-0.161049 1.77266 -1.06105e-17)
(-0.156632 1.79525 0)
(-0.150954 1.82021 9.45673e-18)
(-0.143749 1.84816 -9.97143e-18)
(-0.134552 1.87992 -5.27516e-19)
(-0.123034 1.91607 0)
(-0.109267 1.95647 -9.29172e-19)
(-0.0934818 2.00015 0)
(-0.0761824 2.04562 5.75435e-18)
(-0.0580663 2.09116 3.21567e-19)
(-0.039889 2.13518 -5.58751e-18)
(-0.022402 2.17635 -2.77042e-19)
(-0.00614494 2.21369 0)
(0.00847 2.24692 0)
(0.0211591 2.27625 0)
(0.0320645 2.30219 -2.6587e-18)
(0.0413442 2.32522 2.87654e-18)
(0.0490351 2.34586 -3.36729e-19)
(0.0553059 2.36458 2.53267e-18)
(0.0603419 2.38171 -2.10085e-18)
(0.0643087 2.39756 2.2415e-18)
(0.0673531 2.41243 -2.12325e-18)
(0.0696129 2.42659 0)
(0.0712153 2.44025 2.32678e-18)
(0.0722719 2.4536 -1.76128e-18)
(0.0728748 2.46677 1.22719e-18)
(0.0730965 2.47986 -1.16815e-18)
(0.0729924 2.49296 3.65332e-19)
(0.0726033 2.50613 -3.44153e-19)
(0.0719588 2.51942 0)
(0.0710795 2.53286 -1.66225e-21)
(0.0699793 2.54648 0)
(0.068667 2.56032 1.90614e-18)
(0.0671472 2.57439 -2.35408e-18)
(0.0654215 2.58872 2.46559e-19)
(0.0634893 2.60333 -1.86964e-18)
(0.0613481 2.61823 1.58432e-18)
(0.0589937 2.63344 -2.13434e-19)
(0.056421 2.64897 0)
(0.0536236 2.66483 0)
(0.0505944 2.68106 -1.48479e-18)
(0.0473257 2.69764 3.8478e-19)
(0.043809 2.71461 1.38986e-18)
(0.0400351 2.73197 9.77387e-19)
(0.0359945 2.74974 -1.28097e-18)
(0.031677 2.76792 0)
(0.0270723 2.78653 0)
(0.0221694 2.80559 -2.7934e-19)
(0.0169572 2.82511 0)
(0.0114245 2.84509 -2.62081e-19)
(0.00555984 2.86555 7.30432e-19)
(-0.000648321 2.8865 -9.69677e-19)
(-0.00721134 2.90795 4.59628e-19)
(-0.0141404 2.92991 4.40718e-19)
(-0.0214466 2.95241 4.22237e-19)
(-0.0291403 2.97544 0)
(-0.0372311 2.99904 3.61662e-19)
(-0.0456071 3.02287 -3.786e-19)
(-0.0540248 3.04629 6.63118e-19)
(-0.0623563 3.069 -3.34267e-19)
(-0.0705785 3.09105 1.16094e-18)
(-0.0786874 3.11247 -6.95056e-20)
(-0.0866963 3.13321 1.99673e-19)
(-0.0945924 3.15327 -1.03003e-18)
(-0.102362 3.17267 7.85176e-19)
(-0.110004 3.19145 -6.81955e-19)
(-0.117519 3.20962 0)
(-0.124902 3.22723 9.43535e-20)
(-0.132152 3.24428 6.61251e-19)
(-0.139268 3.2608 -1.31137e-19)
(-0.146249 3.27681 -4.9829e-20)
(-0.153096 3.29232 -5.3853e-19)
(-0.159808 3.30735 -1.23968e-21)
(-0.166384 3.32192 2.82269e-19)
(-0.172821 3.33606 -3.72991e-19)
(-0.179108 3.34983 2.81073e-19)
(-0.185232 3.36334 -2.84688e-19)
(-0.191178 3.37667 1.87989e-19)
(-0.196943 3.38978 -1.70416e-19)
(-0.20257 3.40253 0)
(-0.208075 3.41479 0)
(-0.213439 3.42654 6.10606e-20)
(-0.218663 3.43778 -5.25462e-20)
(-0.223747 3.44849 9.45251e-22)
(-0.228687 3.45866 -2.75936e-22)
(-0.233481 3.4683 -3.77939e-20)
(-0.238127 3.47739 3.65228e-20)
(-0.0432675 1.55133 -4.05388e-18)
(-0.225856 1.60412 3.02921e-16)
(-0.198185 1.61166 -2.62262e-16)
(-0.198305 1.61584 9.05442e-17)
(-0.199775 1.62128 0)
(-0.200947 1.62718 0)
(-0.202052 1.63341 -1.87483e-18)
(-0.203139 1.63995 -2.38913e-17)
(-0.204194 1.64685 4.01996e-17)
(-0.205194 1.65416 -1.84855e-17)
(-0.206115 1.66199 0)
(-0.206907 1.67048 3.91328e-23)
(-0.207511 1.67981 -5.24593e-19)
(-0.207861 1.69017 0)
(-0.207878 1.70173 9.95318e-19)
(-0.207468 1.7147 9.46296e-19)
(-0.206542 1.72925 -8.87314e-19)
(-0.205008 1.74555 -8.26106e-19)
(-0.202775 1.7637 0)
(-0.199752 1.78377 0)
(-0.195797 1.80578 6.40784e-19)
(-0.190657 1.82989 -2.4718e-22)
(-0.184222 1.85644 5.37645e-19)
(-0.176105 1.88609 -3.63999e-22)
(-0.165834 1.91957 0)
(-0.15341 1.95694 -4.5599e-19)
(-0.13894 1.99772 -1.26128e-18)
(-0.122742 2.04085 -3.84383e-19)
(-0.105365 2.08493 0)
(-0.0874906 2.12846 0)
(-0.0698336 2.17014 -5.63469e-19)
(-0.0530329 2.20891 5.07265e-19)
(-0.0375114 2.24414 2.72769e-18)
(-0.0236826 2.27571 -4.3496e-19)
(-0.0116597 2.30394 -4.02824e-19)
(-0.00126802 2.32924 -3.24063e-18)
(0.00755642 2.352 -2.69553e-18)
(0.0148735 2.37273 3.20396e-18)
(0.020831 2.39177 -2.40229e-18)
(0.0255852 2.40939 2.28482e-18)
(0.0292806 2.42587 -5.35445e-19)
(0.0320498 2.44147 0)
(0.0340189 2.45644 4.27387e-18)
(0.0353055 2.47096 -3.60976e-18)
(0.036014 2.48522 -4.22365e-19)
(0.0362311 2.49933 3.98017e-19)
(0.0360262 2.5134 3.77253e-19)
(0.0354526 2.5275 -2.11355e-18)
(0.0345499 2.5417 2.69628e-18)
(0.0333474 2.55605 0)
(0.0318652 2.57059 -6.01042e-19)
(0.0301169 2.58534 0)
(0.0281108 2.60034 0)
(0.0258509 2.61562 -5.12909e-19)
(0.0233382 2.63119 0)
(0.0205709 2.64706 -4.6433e-19)
(0.0175452 2.66327 4.42558e-19)
(0.0142558 2.67983 -1.66793e-18)
(0.0106959 2.69675 2.02536e-18)
(0.00685745 2.71404 1.52077e-18)
(0.00273131 2.73173 -1.85301e-18)
(-0.00169252 2.74982 7.05792e-19)
(-0.0064248 2.76833 6.54705e-19)
(-0.011477 2.78728 -1.30549e-18)
(-0.0168614 2.80667 1.21962e-18)
(-0.0225905 2.82651 -1.20071e-18)
(-0.0286772 2.84682 5.65082e-19)
(-0.0351351 2.86762 1.07068e-18)
(-0.0419775 2.8889 -1.0597e-18)
(-0.0492182 2.91069 -4.96744e-19)
(-0.0568706 2.93299 -9.55677e-19)
(-0.0649481 2.95581 4.40308e-19)
(-0.0734635 2.97917 1.25382e-18)
(-0.0824281 3.00309 -4.5288e-19)
(-0.0917186 3.02724 1.14008e-18)
(-0.101064 3.05095 -1.51783e-18)
(-0.110318 3.07393 4.29293e-21)
(-0.119459 3.09624 -9.34948e-19)
(-0.128477 3.11793 1.5657e-18)
(-0.137386 3.13894 0)
(-0.14618 3.15926 0)
(-0.154842 3.17892 2.54381e-19)
(-0.163372 3.19795 -1.16309e-18)
(-0.171768 3.21636 9.22297e-19)
(-0.180027 3.23419 6.92491e-19)
(-0.188146 3.25147 -5.97644e-19)
(-0.196124 3.26821 5.7828e-19)
(-0.20396 3.28443 -5.80572e-19)
(-0.21165 3.30014 -7.22237e-20)
(-0.219194 3.31536 6.32321e-20)
(-0.226587 3.33011 5.58866e-20)
(-0.233824 3.3444 0)
(-0.240899 3.35828 0)
(-0.247803 3.37181 3.49341e-20)
(-0.254529 3.38507 2.95308e-20)
(-0.261054 3.39814 1.69001e-19)
(-0.267387 3.41096 -3.16784e-20)
(-0.273556 3.42335 -1.41359e-19)
(-0.27957 3.43523 6.60596e-20)
(-0.28541 3.44659 -6.72926e-20)
(-0.291081 3.45741 -1.08232e-20)
(-0.296584 3.46768 1.02492e-20)
(-0.301916 3.47741 -3.42158e-20)
(-0.307074 3.48657 -2.11486e-20)
(-0.0747288 1.55149 -8.95639e-17)
(-0.25877 1.60219 1.57817e-16)
(-0.230921 1.61042 -2.79677e-16)
(-0.231022 1.61434 1.01452e-16)
(-0.232551 1.6195 2.10407e-18)
(-0.233796 1.62514 -4.55726e-17)
(-0.235001 1.63108 6.75995e-17)
(-0.236221 1.6373 -2.61593e-17)
(-0.237446 1.64381 2.24852e-17)
(-0.238666 1.65063 -1.91893e-17)
(-0.239866 1.65779 0)
(-0.241028 1.66538 5.25225e-19)
(-0.242122 1.67348 -1.69925e-17)
(-0.243103 1.68222 1.63858e-17)
(-0.243909 1.69175 -1.01421e-18)
(-0.244474 1.70224 -1.5981e-17)
(-0.244738 1.71388 1.66129e-17)
(-0.244587 1.72685 1.58723e-17)
(-0.243944 1.74131 -3.61036e-20)
(-0.242717 1.75742 -1.31635e-17)
(-0.240817 1.77531 -7.62407e-19)
(-0.238156 1.79504 7.02699e-19)
(-0.234639 1.81661 -1.91892e-18)
(-0.230066 1.84003 -5.84044e-19)
(-0.224292 1.86558 -9.57242e-18)
(-0.217083 1.89372 8.96324e-18)
(-0.208034 1.92503 -8.23372e-22)
(-0.196913 1.95979 8.88794e-19)
(-0.183779 1.9979 -8.28579e-19)
(-0.168814 2.03865 7.62074e-19)
(-0.15242 2.08095 6.23168e-18)
(-0.135163 2.12353 -5.67343e-18)
(-0.117686 2.16515 5.67812e-19)
(-0.100646 2.20474 -1.49069e-21)
(-0.0845817 2.24146 4.6387e-19)
(-0.0698133 2.27496 4.1986e-19)
(-0.0567684 2.30524 -6.51578e-18)
(-0.0454055 2.33268 4.37337e-20)
(-0.0355221 2.3576 6.12142e-18)
(-0.0271683 2.38035 0)
(-0.0202511 2.40133 0)
(-0.0146379 2.42082 0)
(-0.0102012 2.43905 -4.86052e-18)
(-0.00682231 2.45627 4.1219e-18)
(-0.0043831 2.47272 0)
(-0.0027669 2.48861 0)
(-0.0018642 2.50412 -3.87304e-18)
(-0.00157827 2.51941 2.8792e-18)
(-0.00182808 2.53459 3.07045e-18)
(-0.00254844 2.54976 -2.93624e-18)
(-0.00368861 2.565 6.87885e-19)
(-0.00521021 2.58038 0)
(-0.00708516 2.59593 0)
(-0.00929376 2.6117 1.17124e-18)
(-0.011823 2.62773 2.20463e-18)
(-0.0146652 2.64404 -1.60027e-18)
(-0.0178172 2.66066 -4.99309e-19)
(-0.0212791 2.6776 0)
(-0.0250536 2.6949 -2.25e-18)
(-0.029146 2.71257 3.37899e-20)
(-0.0335639 2.73062 2.07677e-18)
(-0.0383162 2.74907 -1.57392e-18)
(-0.0434134 2.76794 7.48417e-19)
(-0.0488672 2.78724 0)
(-0.0546906 2.80699 0)
(-0.0608973 2.82719 6.35022e-19)
(-0.0675017 2.84787 -3.66543e-20)
(-0.0745191 2.86902 -3.73676e-20)
(-0.0819651 2.89067 -5.89831e-19)
(-0.0898559 2.91282 0)
(-0.0982076 2.93548 1.04804e-18)
(-0.107036 2.95866 1.00609e-18)
(-0.116357 2.98238 -1.43469e-18)
(-0.126183 3.00665 -9.01062e-19)
(-0.136381 3.03114 0)
(-0.146651 3.05516 -2.38244e-18)
(-0.156829 3.07843 1.93696e-18)
(-0.166893 3.10102 4.68559e-21)
(-0.176823 3.12299 -3.36035e-19)
(-0.186631 3.14429 3.19487e-19)
(-0.19633 3.1649 3.01789e-19)
(-0.205895 3.18484 0)
(-0.215327 3.20413 0)
(-0.224623 3.22281 0)
(-0.23378 3.2409 -8.78157e-19)
(-0.242795 3.25843 -1.44187e-19)
(-0.251665 3.27541 1.73426e-18)
(-0.260388 3.29186 -8.20121e-19)
(-0.268959 3.3078 -5.28384e-19)
(-0.277373 3.32323 5.97178e-19)
(-0.28562 3.33816 0)
(-0.293692 3.35261 4.16039e-19)
(-0.301575 3.3666 -4.02274e-19)
(-0.309259 3.38018 0)
(-0.316739 3.39343 -6.557e-20)
(-0.324019 3.40642 -1.91195e-19)
(-0.33106 3.41921 1.81336e-19)
(-0.337898 3.43166 -1.10765e-19)
(-0.34457 3.44362 1.06932e-19)
(-0.351041 3.45507 0)
(-0.357319 3.46598 -2.10814e-20)
(-0.363404 3.47633 1.63615e-20)
(-0.369294 3.48612 3.02836e-20)
(-0.374984 3.49532 -8.33141e-20)
(-0.380472 3.50395 5.58692e-20)
(-0.105336 1.55097 2.84698e-18)
(-0.290725 1.59949 0)
(-0.262671 1.60827 -1.40064e-16)
(-0.262723 1.61194 1.08502e-16)
(-0.264269 1.61688 -9.61003e-23)
(-0.265542 1.62235 -1.56321e-18)
(-0.266793 1.62814 0)
(-0.268079 1.63419 -2.75371e-17)
(-0.269391 1.6405 2.41777e-17)
(-0.270725 1.64707 0)
(-0.272074 1.65393 1.12665e-18)
(-0.273432 1.66109 0)
(-0.274784 1.6686 6.73456e-23)
(-0.276111 1.67652 -1.5622e-17)
(-0.277381 1.68495 3.12362e-17)
(-0.278565 1.69399 -1.56686e-17)
(-0.279582 1.70377 1.56117e-17)
(-0.280395 1.71444 -3.2987e-17)
(-0.280909 1.72619 1.52778e-17)
(-0.281051 1.73919 9.19308e-19)
(-0.280719 1.7536 -8.70747e-19)
(-0.279824 1.76959 -1.14119e-17)
(-0.27828 1.78726 1.36932e-17)
(-0.276006 1.8067 1.40599e-18)
(-0.272929 1.82792 1.28023e-18)
(-0.268917 1.8509 -1.16651e-18)
(-0.26376 1.87577 1.0573e-18)
(-0.257386 1.90281 0)
(-0.249469 1.93245 -7.77194e-22)
(-0.239611 1.96513 9.10409e-22)
(-0.227826 2.00085 -8.12045e-19)
(-0.214199 2.03928 0)
(-0.198982 2.07965 0)
(-0.182618 2.12092 1.06712e-17)
(-0.165674 2.16197 -8.03019e-18)
(-0.148754 2.20178 0)
(-0.132449 2.23951 -7.50009e-18)
(-0.117179 2.27449 1.19679e-17)
(-0.103286 2.30657 -7.04321e-18)
(-0.0910087 2.33593 0)
(-0.0802499 2.36285 -6.08344e-18)
(-0.0709272 2.38759 5.14954e-18)
(-0.0630604 2.41053 1.21415e-18)
(-0.0565722 2.43195 -5.15547e-18)
(-0.0513537 2.45204 3.83636e-18)
(-0.0473 2.47102 0)
(-0.0443095 2.48912 3.89658e-18)
(-0.0422769 2.50655 -4.6606e-18)
(-0.0410962 2.5235 3.49362e-18)
(-0.0406677 2.54014 -2.51242e-18)
(-0.0409029 2.5566 -3.91995e-18)
(-0.0417272 2.573 3.00169e-18)
(-0.0430797 2.58942 -7.08347e-19)
(-0.0449124 2.60595 1.98957e-18)
(-0.0471883 2.62264 -3.80879e-20)
(-0.0498806 2.63955 -2.42333e-18)
(-0.0529704 2.65671 0)
(-0.056446 2.67415 -3.23408e-18)
(-0.0602999 2.69192 3.08285e-18)
(-0.0645297 2.71003 -1.97543e-18)
(-0.0691383 2.72852 0)
(-0.074131 2.74739 8.82564e-19)
(-0.079515 2.76666 2.51647e-18)
(-0.0853006 2.78637 7.69143e-19)
(-0.0915009 2.80651 -3.92655e-20)
(-0.0981296 2.82711 -7.54696e-19)
(-0.105201 2.84818 2.75139e-18)
(-0.112732 2.86974 -2.70476e-18)
(-0.120741 2.89178 -1.27086e-18)
(-0.129246 2.91433 2.38127e-18)
(-0.138265 2.93739 -1.76796e-18)
(-0.147818 2.96097 -2.20285e-18)
(-0.157922 2.98509 3.09348e-18)
(-0.168595 3.00975 -1.03491e-18)
(-0.17969 3.0346 0)
(-0.190882 3.05897 -8.42949e-19)
(-0.201985 3.08255 8.77145e-19)
(-0.212982 3.10542 -2.67177e-18)
(-0.223828 3.12767 1.85921e-18)
(-0.234541 3.14928 -6.92728e-19)
(-0.245153 3.1702 -1.60128e-18)
(-0.255635 3.19045 7.84488e-20)
(-0.265985 3.21005 7.65383e-20)
(-0.276203 3.22903 1.12088e-18)
(-0.286284 3.24741 1.22479e-18)
(-0.296225 3.26522 -7.02784e-20)
(-0.306021 3.28248 -6.73123e-19)
(-0.315665 3.29919 1.9708e-19)
(-0.325147 3.31538 -6.74366e-19)
(-0.334456 3.33104 8.23028e-19)
(-0.343576 3.34617 0)
(-0.352494 3.36077 4.63476e-19)
(-0.361194 3.37485 -7.90993e-19)
(-0.369661 3.38846 3.80197e-19)
(-0.377892 3.40168 3.07824e-19)
(-0.385897 3.4146 -2.55868e-19)
(-0.393646 3.42731 2.36188e-20)
(-0.401169 3.43976 -1.0734e-19)
(-0.408503 3.45179 1.07256e-19)
(-0.415633 3.46331 9.1724e-21)
(-0.422548 3.47429 4.41797e-21)
(-0.429247 3.48471 0)
(-0.435723 3.49454 1.21379e-21)
(-0.441972 3.50378 -2.67463e-21)
(-0.447987 3.5124 -3.97381e-21)
(-0.453766 3.52042 1.70561e-19)
(-0.459305 3.52784 -1.78896e-19)
(-0.135102 1.54981 -9.26183e-17)
(-0.321721 1.59599 0)
(-0.293407 1.6052 1.55693e-16)
(-0.293399 1.6086 -1.14596e-16)
(-0.294929 1.61333 -2.44895e-18)
(-0.296203 1.61868 3.3718e-18)
(-0.29747 1.62436 3.94323e-17)
(-0.298783 1.63031 -3.16959e-17)
(-0.300136 1.63652 -1.57021e-18)
(-0.301524 1.64298 -2.26988e-17)
(-0.302945 1.64969 1.88181e-17)
(-0.304397 1.65666 1.06285e-18)
(-0.305875 1.66392 5.26322e-23)
(-0.307374 1.67149 9.40089e-19)
(-0.308879 1.67941 9.1822e-19)
(-0.310373 1.68773 1.46374e-17)
(-0.311828 1.69654 -3.45699e-20)
(-0.313205 1.70593 -1.40049e-17)
(-0.314464 1.71602 0)
(-0.315523 1.72695 -9.39026e-19)
(-0.316322 1.73887 -1.29655e-17)
(-0.316775 1.75196 1.26046e-17)
(-0.316784 1.76638 1.37063e-17)
(-0.31626 1.7823 -1.29702e-17)
(-0.315113 1.79984 0)
(-0.313264 1.81909 1.40301e-18)
(-0.310638 1.84007 0)
(-0.307152 1.86277 1.16773e-18)
(-0.302637 1.88714 2.12094e-18)
(-0.296969 1.91341 -9.64558e-19)
(-0.289995 1.94188 8.93788e-19)
(-0.281389 1.97289 -1.68438e-18)
(-0.270932 2.0066 1.58398e-18)
(-0.258683 2.0429 -1.32513e-17)
(-0.244794 2.0813 1.0942e-17)
(-0.229579 2.12103 0)
(-0.213487 2.16116 9.11516e-18)
(-0.197064 2.2007 -6.27391e-18)
(-0.180883 2.23881 0)
(-0.165438 2.27483 0)
(-0.151047 2.30834 7.86336e-19)
(-0.138095 2.33936 0)
(-0.126627 2.3681 -6.7688e-19)
(-0.116504 2.39476 0)
(-0.107793 2.41962 -4.22889e-18)
(-0.100471 2.44295 4.63035e-18)
(-0.0944707 2.46495 -1.09617e-18)
(-0.0897149 2.48581 1.03516e-18)
(-0.0861254 2.50571 0)
(-0.0836154 2.52484 -9.32499e-19)
(-0.0820908 2.54341 8.84799e-19)
(-0.0814566 2.56158 8.44523e-19)
(-0.081623 2.57949 -5.04839e-21)
(-0.0825095 2.59728 0)
(-0.0840473 2.61504 2.13152e-18)
(-0.0861796 2.63287 -4.24762e-20)
(-0.0888614 2.65084 -2.60736e-18)
(-0.0920594 2.66901 1.22276e-18)
(-0.0957424 2.68742 -1.14811e-18)
(-0.0998973 2.70612 1.12315e-18)
(-0.104519 2.72516 -2.08112e-18)
(-0.109601 2.74454 2.99325e-18)
(-0.115138 2.76432 -2.86783e-18)
(-0.121139 2.7845 -2.68604e-18)
(-0.127615 2.80511 1.74193e-18)
(-0.134577 2.82617 -8.22548e-19)
(-0.142036 2.84769 -3.07291e-18)
(-0.15001 2.86969 1.52195e-18)
(-0.158519 2.89218 -6.56424e-19)
(-0.167583 2.91518 4.08884e-18)
(-0.177223 2.93868 1.38434e-20)
(-0.187461 2.96271 -1.36175e-20)
(-0.198317 2.98727 -2.26156e-18)
(-0.20981 3.01236 2.1863e-18)
(-0.221786 3.03763 -3.15294e-18)
(-0.233892 3.06239 -1.8918e-18)
(-0.245923 3.08631 2.78346e-18)
(-0.257857 3.10948 -1.66781e-18)
(-0.269645 3.13199 3.99601e-18)
(-0.28129 3.15392 -1.18054e-18)
(-0.292818 3.17519 1.39546e-18)
(-0.304229 3.19579 -1.4021e-18)
(-0.315514 3.21573 -1.55649e-18)
(-0.326675 3.23505 9.3294e-19)
(-0.337707 3.25376 7.95651e-19)
(-0.348602 3.27189 -1.32474e-18)
(-0.359347 3.28945 -2.33693e-19)
(-0.369926 3.30646 3.94522e-19)
(-0.38032 3.32291 -1.75352e-18)
(-0.390508 3.3388 7.34021e-19)
(-0.400476 3.35412 1.56483e-19)
(-0.410213 3.36887 0)
(-0.419712 3.38305 -5.76209e-20)
(-0.428968 3.39668 3.70295e-19)
(-0.437979 3.40985 -3.94263e-19)
(-0.446744 3.42267 -2.09286e-19)
(-0.45526 3.43527 4.1794e-19)
(-0.463518 3.4477 -1.78683e-19)
(-0.471556 3.45982 1.15451e-19)
(-0.479385 3.47142 -1.07561e-19)
(-0.486976 3.48248 -6.32338e-20)
(-0.494321 3.49295 5.57123e-20)
(-0.501412 3.5028 -5.00202e-20)
(-0.508239 3.51203 4.95185e-20)
(-0.514796 3.52061 0)
(-0.521077 3.52856 5.0989e-21)
(-0.527082 3.53588 0)
(-0.53281 3.54258 -7.06837e-21)
(-0.164049 1.54806 9.40279e-17)
(-0.351753 1.59172 -3.53446e-16)
(-0.323123 1.60121 -4.6728e-18)
(-0.32305 1.60432 1.19601e-16)
(-0.324545 1.60886 0)
(-0.325807 1.61409 -1.78657e-18)
(-0.327074 1.61969 -4.19467e-17)
(-0.328399 1.62558 5.56123e-20)
(-0.32977 1.63173 2.50641e-17)
(-0.331184 1.63812 1.41425e-18)
(-0.332639 1.64476 1.84829e-17)
(-0.334136 1.65165 -3.44876e-20)
(-0.335674 1.6588 -3.11893e-17)
(-0.337252 1.66622 1.31325e-17)
(-0.338865 1.67394 -1.42219e-17)
(-0.340508 1.68196 1.38156e-17)
(-0.34217 1.69034 0)
(-0.343834 1.69913 -1.71808e-18)
(-0.345475 1.70838 1.74422e-18)
(-0.34706 1.7182 -1.77188e-18)
(-0.348545 1.72867 2.86838e-17)
(-0.349867 1.73991 -2.89004e-17)
(-0.35096 1.75208 0)
(-0.351733 1.76535 0)
(-0.352107 1.77986 1.67996e-18)
(-0.351972 1.79579 0)
(-0.351239 1.81327 1.50166e-18)
(-0.349823 1.83238 2.09369e-17)
(-0.347655 1.85317 -2.31943e-17)
(-0.344674 1.87564 2.34114e-18)
(-0.340773 1.89975 2.12876e-18)
(-0.335788 1.92554 1.72831e-17)
(-0.32965 1.95321 -1.58568e-17)