/*--------------------------------*- C++ -*----------------------------------*\
  =========                 |
  \\      /  F ield         | OpenFOAM: The Open Source CFD Toolbox
   \\    /   O peration     | Website:  https://openfoam.org
    \\  /    A nd           | Version:  10
     \\/     M anipulation  |
\*---------------------------------------------------------------------------*/
FoamFile
{
    format      ascii;
    class       volScalarField;
    location    "62000";
    object      k;
}
// * * * * * * * * * * * * * * * * * * * * * * * * * * * * * * * * * * * * * //

dimensions      [0 2 -2 0 0 0 0];

internalField   nonuniform List<scalar> 
17969
(
4.65903e-05
0.000973336
0.00227867
0.00386299
0.0055703
0.00758972
0.0100742
0.0128679
0.0154945
0.0175518
0.0189202
0.0196764
0.0199968
0.0200737
0.0200814
0.0201295
0.0202686
0.0205829
0.0210928
0.0217853
0.0226312
0.0235945
0.0246394
0.0257327
0.026847
0.0279616
0.0290614
0.0301364
0.0311803
0.0321894
0.0331617
0.0340965
0.0349939
0.0358541
0.0366779
0.0374658
0.0382184
0.0389363
0.03962
0.04027
0.0408865
0.0414699
0.0420205
0.0425385
0.0430241
0.0434775
0.043899
0.0442889
0.0446476
0.0449754
0.0452728
0.0455404
0.0457789
0.0459889
0.0461713
0.0463271
0.0464573
0.0465631
0.0466458
0.0467066
0.0467472
0.0467689
0.0467734
0.0467623
0.0467372
0.0466996
0.0466512
0.0465933
0.0465272
0.0464538
0.0463738
0.0462876
0.0461948
0.0460948
0.045988
0.0458757
0.045758
0.0456317
0.0454972
0.0453532
0.0452007
0.045042
0.04488
0.0447185
0.0445614
0.0444135
0.0442797
0.044166
0.0440794
0.044028
0.0440209
0.044068
0.044182
0.044374
0.0446555
0.0450385
0.0455351
0.0461545
0.0469027
0.0477894
1.98302e-05
0.000461055
0.00118944
0.0021457
0.0031955
0.00442494
0.00594262
0.00784649
0.0102573
0.0129884
0.0156634
0.0179345
0.0196039
0.020662
0.0212172
0.0214253
0.0214418
0.0214042
0.0213996
0.0214721
0.0216951
0.0220924
0.0226592
0.0233745
0.0242102
0.0251362
0.026124
0.0271478
0.0281858
0.0292212
0.0302416
0.0312383
0.0322056
0.0331398
0.0340388
0.0349015
0.0357274
0.0365166
0.0372693
0.0379857
0.0386663
0.0393116
0.0399219
0.0404976
0.0410393
0.0415471
0.0420216
0.0424632
0.0428723
0.0432493
0.0435949
0.0439095
0.044194
0.0444489
0.0446752
0.0448738
0.0450457
0.045192
0.045314
0.0454129
0.0454901
0.0455472
0.0455856
0.0456069
0.0456127
0.0456044
0.0455838
0.045552
0.0455104
0.0454599
0.0454014
0.045335
0.0452607
0.0451779
0.045087
0.0449891
0.0448847
0.0447713
0.0446481
0.0445142
0.0443712
0.0442215
0.0440686
0.043916
0.0437683
0.0436306
0.0435087
0.043409
0.0433388
0.0433057
0.0433182
0.0433852
0.0435171
0.0437287
0.0440325
0.0444414
0.0449686
0.0456238
0.0464146
0.0473529
8.48861e-06
0.00021194
0.000603551
0.00116908
0.00178097
0.00247754
0.00334928
0.0044537
0.00587168
0.00769241
0.0100129
0.0126331
0.0152942
0.0177495
0.0197383
0.02117
0.0220671
0.0225292
0.0226862
0.0226684
0.0225926
0.0225351
0.0225418
0.0226805
0.0229771
0.0234325
0.0240319
0.0247527
0.025569
0.0264556
0.0273886
0.0283474
0.0293141
0.0302748
0.0312188
0.0321387
0.0330292
0.033887
0.0347098
0.0354966
0.0362468
0.0369602
0.0376368
0.038277
0.0388812
0.0394496
0.0399829
0.0404814
0.0409458
0.0413766
0.0417743
0.0421396
0.0424733
0.0427761
0.0430488
0.0432924
0.0435079
0.0436964
0.0438591
0.0439972
0.0441122
0.0442054
0.0442783
0.0443324
0.0443694
0.0443906
0.0443977
0.0443919
0.0443746
0.0443469
0.0443094
0.0442627
0.0442067
0.0441411
0.0440662
0.0439832
0.0438925
0.043794
0.0436844
0.0435633
0.0434328
0.0432958
0.0431555
0.0430158
0.0428815
0.0427579
0.0426514
0.0425691
0.0425191
0.04251
0.0425508
0.04265
0.0428159
0.0430596
0.0433975
0.0438445
0.0444149
0.0451192
0.0459668
0.0469715
4.70157e-06
0.000119973
0.000352904
0.00071342
0.00109405
0.00149801
0.00197881
0.00258819
0.00337794
0.00441055
0.00575255
0.00746903
0.00964385
0.012131
0.0147187
0.0172519
0.0194982
0.0212866
0.0225601
0.0233493
0.0237429
0.0238541
0.023798
0.0236795
0.0235657
0.0235086
0.0235704
0.0237776
0.0241343
0.0246301
0.0252463
0.0259604
0.0267494
0.0275914
0.0284666
0.0293577
0.0302505
0.0311334
0.0319976
0.0328366
0.0336458
0.0344223
0.035164
0.0358699
0.0365395
0.0371724
0.0377688
0.038329
0.0388533
0.0393423
0.0397965
0.0402166
0.0406033
0.0409574
0.0412797
0.0415711
0.0418328
0.0420657
0.0422711
0.0424502
0.0426043
0.0427348
0.0428432
0.042931
0.0429997
0.0430508
0.0430858
0.0431061
0.0431131
0.0431078
0.0430913
0.043064
0.0430264
0.0429782
0.04292
0.0428531
0.0427785
0.0426965
0.0426029
0.0424977
0.0423833
0.0422626
0.0421392
0.0420171
0.041901
0.0417967
0.0417107
0.0416507
0.0416257
0.0416453
0.0417197
0.0418591
0.042072
0.0423657
0.0427518
0.0432497
0.0438767
0.0446442
0.0455638
0.0466514
0.0479196
0.0493774
0.0510292
0.0528754
3.38589e-06
8.68203e-05
0.000252938
0.000516981
0.000786157
0.00104918
0.00133369
0.00167551
0.00210541
0.00266198
0.00339992
0.00436892
0.00562317
0.00721824
0.00922452
0.0115882
0.0141191
0.0166501
0.0190531
0.0211246
0.0227489
0.0238892
0.0245799
0.0249028
0.024961
0.0248602
0.0246961
0.0245266
0.0244108
0.0244041
0.0245317
0.0247993
0.0251994
0.0257163
0.0263304
0.027021
0.0277682
0.0285535
0.0293604
0.0301752
0.0309862
0.0317842
0.0325619
0.033314
0.0340365
0.0347266
0.0353827
0.0360035
0.0365886
0.0371378
0.0376512
0.0381291
0.038572
0.0389806
0.0393557
0.039698
0.0400086
0.0402886
0.040539
0.0407612
0.0409563
0.0411258
0.041271
0.0413936
0.0414949
0.0415765
0.0416399
0.0416867
0.0417181
0.0417355
0.0417399
0.0417324
0.0417136
0.0416837
0.0416436
0.0415946
0.0415382
0.0414755
0.0414013
0.0413157
0.0412215
0.0411216
0.0410198
0.0409203
0.040828
0.0407489
0.0406898
0.0406589
0.0406656
0.0407205
0.0408349
0.0410205
0.0412878
0.0416448
0.0420974
0.0426599
0.0433575
0.0442035
0.0452116
0.0463997
0.0477814
0.0493657
0.051157
0.0531549
2.8588e-06
7.32892e-05
0.000210241
0.000429405
0.000646683
0.000844976
0.00104152
0.00125484
0.00150723
0.00181925
0.00221462
0.00273466
0.00342955
0.00433944
0.00551357
0.00700108
0.00885942
0.011105
0.0135755
0.0160727
0.0185306
0.0207949
0.0227066
0.0241788
0.0251909
0.0257823
0.0260321
0.0260359
0.0258916
0.0256862
0.0254668
0.0252974
0.0252268
0.0252778
0.0254576
0.0257612
0.0261761
0.0266859
0.0272726
0.0279183
0.0286058
0.02932
0.0300475
0.0307768
0.0314987
0.0322056
0.0328914
0.0335515
0.0341826
0.0347821
0.0353486
0.0358809
0.0363787
0.0368418
0.0372704
0.037665
0.0380264
0.0383553
0.0386528
0.0389199
0.0391579
0.039368
0.0395517
0.0397104
0.0398456
0.0399589
0.0400517
0.0401257
0.0401824
0.0402233
0.0402498
0.0402631
0.0402645
0.0402547
0.0402348
0.0402062
0.0401705
0.0401285
0.0400794
0.040018
0.0399485
0.0398745
0.0397996
0.0397285
0.0396663
0.0396193
0.0395947
0.0396009
0.0396478
0.0397465
0.0399092
0.0401486
0.0404768
0.0409036
0.0414351
0.0420808
0.0428636
0.0438042
0.0449194
0.0462283
0.0477448
0.0494779
0.0514314
0.0536034
2.59424e-06
6.65108e-05
0.000188655
0.000384945
0.000577039
0.00074498
0.000901428
0.00105833
0.00122695
0.00142093
0.0016563
0.00194702
0.00231595
0.00280269
0.00345435
0.00430864
0.00540859
0.00679896
0.0085255
0.0106501
0.0130514
0.0155387
0.0179941
0.0203636
0.0224885
0.0242466
0.0255746
0.0264673
0.0269688
0.0271548
0.0271132
0.0269326
0.0266904
0.0264229
0.0261982
0.0260593
0.0260285
0.0261146
0.0263155
0.0266222
0.0270213
0.0274977
0.0280354
0.0286188
0.0292335
0.0298664
0.0305065
0.0311441
0.0317715
0.0323823
0.0329715
0.0335351
0.0340704
0.0345754
0.0350485
0.0354893
0.0358973
0.0362727
0.0366158
0.0369274
0.0372084
0.0374598
0.0376828
0.0378787
0.038049
0.0381952
0.0383188
0.0384215
0.038505
0.0385711
0.0386214
0.0386577
0.0386815
0.0386943
0.0386973
0.0386922
0.0386806
0.0386638
0.0386432
0.0386103
0.0385704
0.0385272
0.0384851
0.0384488
0.0384239
0.0384168
0.0384349
0.0384872
0.0385836
0.0387359
0.0389568
0.0392596
0.0396576
0.0401618
0.0407792
0.0415194
0.0424045
0.0434587
0.0447023
0.0461545
0.0478291
0.0497347
0.0518739
0.0542427
0.056831
2.43925e-06
6.2588e-05
0.000176151
0.000359435
0.000538606
0.000691801
0.000829277
0.000960197
0.00109177
0.00123095
0.00138613
0.00156923
0.00179004
0.00206065
0.00240617
0.00286038
0.00346536
0.00426512
0.00529535
0.00660008
0.0082202
0.010206
0.0125061
0.0149729
0.0174393
0.019846
0.0221097
0.0240948
0.025711
0.0269139
0.0277088
0.0281408
0.0282796
0.0282034
0.0279909
0.0277047
0.027388
0.0271042
0.0268919
0.0267742
0.0267621
0.0268562
0.0270507
0.0273353
0.0276973
0.0281225
0.0285965
0.0291059
0.0296379
0.0301815
0.0307272
0.031267
0.0317944
0.032304
0.0327918
0.0332547
0.0336905
0.0340976
0.0344751
0.0348227
0.0351403
0.0354283
0.0356875
0.0359186
0.0361228
0.0363014
0.036456
0.036588
0.0366994
0.0367919
0.0368676
0.0369285
0.0369766
0.037014
0.0370421
0.0370627
0.0370782
0.0370902
0.037101
0.0371025
0.0370972
0.0370907
0.0370877
0.0370934
0.0371135
0.0371546
0.0372245
0.037332
0.0374875
0.0377032
0.0379922
0.0383685
0.0388459
0.0394358
0.0401464
0.0409916
0.0419975
0.0431865
0.0445809
0.0461995
0.0480559
0.0501573
0.0525044
0.0550908
0.0579032
0.0609225
0.0641244
2.35051e-06
6.0405e-05
0.000169105
0.000344906
0.000517607
0.000663813
0.000792331
0.000911019
0.00102542
0.00114
0.00125916
0.00138811
0.00153398
0.00170664
0.001913
0.00216419
0.00248439
0.0029036
0.00345972
0.00419654
0.00514772
0.00635584
0.00786045
0.00970496
0.0119033
0.0143208
0.0167862
0.0192164
0.0215552
0.0237096
0.0255697
0.0270682
0.0281745
0.0288985
0.0292824
0.0293887
0.0292873
0.0290477
0.0287149
0.0283497
0.0280065
0.0277211
0.0275174
0.0274075
0.0273946
0.0274758
0.0276435
0.0278873
0.0281948
0.0285533
0.02895
0.0293731
0.0298118
0.0302569
0.0307004
0.0311357
0.0315575
0.0319616
0.0323448
0.0327047
0.0330398
0.0333489
0.0336317
0.0338882
0.0341186
0.0343237
0.0345047
0.0346627
0.0347995
0.0349168
0.0350167
0.0351014
0.0351734
0.0352351
0.0352883
0.0353351
0.0353784
0.0354205
0.035463
0.0355076
0.0355448
0.0355815
0.0356248
0.03568
0.0357532
0.0358509
0.035981
0.0361525
0.0363762
0.0366641
0.03703
0.0374887
0.0380542
0.0387383
0.0395527
0.0405197
0.0416647
0.0430087
0.0445748
0.0463814
0.0484409
0.0507589
0.0533335
0.056155
0.0592068
0.0624658
0.0659041
0.0694909
2.32498e-06
5.98243e-05
0.000166781
0.000339137
0.000509433
0.000652989
0.000777727
0.000890891
0.000997326
0.00110052
0.0012034
0.00130883
0.00142013
0.0015416
0.00167946
0.00184171
0.00203376
0.00226581
0.00255957
0.00294196
0.00344755
0.00411374
0.00497712
0.00607986
0.00746205
0.00916158
0.0112299
0.0135627
0.016014
0.0184656
0.0208497
0.0231099
0.0251603
0.0269139
0.0283183
0.0293519
0.0300265
0.0303803
0.0304679
0.0303516
0.0300865
0.0297191
0.0293147
0.0289189
0.0285666
0.028281
0.0280755
0.027956
0.0279223
0.0279695
0.0280896
0.0282724
0.0285068
0.0287815
0.0290859
0.0294099
0.0297447
0.0300827
0.0304174
0.0307435
0.0310568
0.031354
0.0316327
0.0318912
0.0321284
0.0323439
0.0325379
0.0327108
0.0328637
0.0329981
0.0331159
0.0332192
0.0333106
0.0333928
0.0334679
0.0335382
0.0336075
0.0336791
0.0337563
0.033843
0.0339326
0.0340232
0.0341206
0.0342325
0.0343657
0.0345273
0.0347252
0.0349683
0.0352675
0.0356347
0.0360827
0.0366269
0.0372857
0.0380765
0.0390141
0.0401195
0.0414193
0.0429352
0.0446907
0.0467037
0.0489849
0.0515375
0.0543562
0.0574274
0.06073
0.064237
0.067917
0.0717356
0.0756577
0.0796488
2.36389e-06
6.08552e-05
0.000169022
0.00034131
0.000512159
0.000655818
0.00077972
0.000890869
0.000993855
0.0010918
0.00118708
0.00128169
0.00137763
0.00147706
0.0015827
0.00169821
0.00182895
0.00198184
0.00216121
0.00237556
0.00264406
0.00299079
0.00344456
0.0040381
0.00481118
0.00580632
0.00706574
0.00862675
0.0105344
0.0127576
0.0151635
0.0176061
0.0200276
0.022356
0.024533
0.0264876
0.0281488
0.0294765
0.0304545
0.0310956
0.031435
0.0315195
0.0314005
0.0311147
0.0307294
0.0302957
0.029856
0.0294431
0.0290802
0.0287822
0.0285571
0.0284072
0.0283304
0.0283212
0.0283721
0.0284741
0.0286179
0.0287942
0.0289942
0.0292096
0.0294333
0.0296595
0.0298828
0.0300991
0.0303051
0.0304985
0.0306777
0.0308418
0.0309905
0.0311247
0.0312455
0.0313549
0.0314546
0.0315478
0.0316364
0.031723
0.0318117
0.0319066
0.0320116
0.0321311
0.0322716
0.032422
0.0325849
0.0327658
0.0329709
0.0332065
0.0334796
0.0337982
0.0341721
0.0346167
0.0351474
0.0357822
0.0365424
0.0374503
0.0385262
0.0397875
0.0412552
0.0429578
0.044919
0.0471553
0.0496753
0.0524785
0.0555552
0.058887
0.0624482
0.0662072
0.0701288
0.0741757
0.0783107
0.0824977
0.0867028
0.0908951
0.0950471
0.0991349
2.46931e-06
6.35507e-05
0.000175888
0.000351026
0.000524704
0.00067035
0.000795231
0.00090634
0.00100824
0.00110395
0.00119566
0.00128507
0.00137366
0.00146289
0.00155428
0.00164964
0.00175125
0.00186225
0.00198724
0.00213261
0.00230202
0.00250162
0.00274716
0.00305852
0.00346092
0.00398571
0.00467016
0.00555558
0.00668434
0.00809484
0.00982493
0.0119111
0.014236
0.0166542
0.0190859
0.0214745
0.0237476
0.0258421
0.0277078
0.0292883
0.030551
0.0314868
0.0321081
0.0324423
0.0325238
0.0323904
0.0321015
0.0317093
0.0312593
0.0307888
0.0303277
0.0298982
0.0295163
0.0291918
0.0289295
0.0287301
0.0285912
0.0285079
0.0284737
0.0284817
0.0285242
0.0285939
0.0286838
0.0287873
0.0288991
0.0290145
0.0291296
0.0292415
0.0293482
0.0294491
0.0295444
0.0296346
0.0297211
0.0298063
0.0298921
0.0299809
0.0300763
0.0301824
0.0303035
0.0304438
0.0306086
0.0308064
0.0310264
0.031272
0.0315479
0.0318596
0.0322139
0.0326188
0.0330837
0.0336212
0.0342464
0.0349795
0.0358457
0.0368719
0.0380851
0.0395087
0.0411606
0.0430645
0.045247
0.0477227
0.0504965
0.0535633
0.056908
0.0605068
0.0643288
0.0683379
0.0724954
0.0767614
0.0810968
0.0854647
0.0898308
0.0941646
0.0984391
0.102631
2.63949e-06
6.78861e-05
0.000187292
0.000367803
0.000546028
0.000694977
0.000822005
0.000934251
0.00103637
0.00113143
0.00122159
0.00130845
0.00139332
0.00147736
0.00156171
0.00164753
0.00173609
0.00182893
0.00192803
0.00203605
0.00215684
0.00229608
0.00245718
0.00264414
0.00286951
0.00315049
0.00350876
0.00397193
0.00457397
0.00535428
0.00635547
0.00761952
0.00918231
0.0110911
0.0132907
0.0156579
0.018066
0.0204644
0.022799
0.0250084
0.0270295
0.0288065
0.0303077
0.0315068
0.032395
0.0329776
0.0332816
0.0333502
0.0332277
0.032958
0.0325825
0.0321383
0.0316579
0.0311683
0.0306913
0.030243
0.0298349
0.0294741
0.0291639
0.0289046
0.0286943
0.0285292
0.0284044
0.0283144
0.0282538
0.0282171
0.0281994
0.0281961
0.0282037
0.0282193
0.0282415
0.0282692
0.0283035
0.0283463
0.0283993
0.0284644
0.0285441
0.0286419
0.0287612
0.028906
0.0290806
0.0292908
0.0295456
0.0298395
0.0301736
0.0305528
0.0309827
0.0314707
0.0320257
0.0326595
0.0333875
0.0342297
0.0352107
0.0363594
0.0377089
0.039293
0.0411335
0.0432501
0.0456662
0.0483929
0.0514308
0.0547686
0.0583852
0.0622507
0.0663288
0.0705793
0.0749601
0.0794295
0.0839471
0.0884756
0.0929812
0.0974339
0.101808
0.106081
2.87835e-06
7.39058e-05
0.000203165
0.000391104
0.000575092
0.000728266
0.000858165
0.000972219
0.00107527
0.00117049
0.00126007
0.00134563
0.00142846
0.00150963
0.00159011
0.00167079
0.00175259
0.00183649
0.0019236
0.00201526
0.00211315
0.00221956
0.00233768
0.00247226
0.00262746
0.00280585
0.003016
0.00327288
0.00359479
0.00400547
0.00453486
0.00521901
0.00609855
0.00721579
0.00860785
0.0103141
0.0123516
0.0146134
0.0169653
0.0193402
0.0216839
0.0239365
0.0260461
0.0279617
0.0296349
0.0310315
0.0321378
0.0329579
0.0335092
0.0338178
0.0339146
0.0338336
0.033609
0.0332743
0.0328608
0.0323965
0.0319057
0.0314087
0.0309217
0.0304569
0.0300229
0.0296249
0.0292658
0.0289461
0.0286648
0.02842
0.028208
0.0280258
0.0278703
0.0277386
0.0276285
0.0275381
0.0274677
0.0274188
0.0273941
0.0273951
0.0274236
0.0274815
0.027571
0.027695
0.0278568
0.0280604
0.0283114
0.0286174
0.028981
0.0294019
0.029884
0.0304341
0.031061
0.0317761
0.0325949
0.0335379
0.0346313
0.0359067
0.0373995
0.0391454
0.0411746
0.0435086
0.0461635
0.0491464
0.0524515
0.0560605
0.0599452
0.0640694
0.0683915
0.0728675
0.0774526
0.0821035
0.0867797
0.091444
0.0960635
0.100609
0.105057
0.109386
3.18967e-06
8.16741e-05
0.000223548
0.000420588
0.000610959
0.00076849
0.000901549
0.00101779
0.00112221
0.00121809
0.00130771
0.00139275
0.0014745
0.00155401
0.00163218
0.00170985
0.00178776
0.00186669
0.00194743
0.00203082
0.00211785
0.0022097
0.00230783
0.00241418
0.00253143
0.00266342
0.0028151
0.00298844
0.00318811
0.00342694
0.00372031
0.00408812
0.00455584
0.00515499
0.00592241
0.00689829
0.0081213
0.0096244
0.0114558
0.0135553
0.0158111
0.0181134
0.0204136
0.0226573
0.0247906
0.026763
0.0285331
0.0300698
0.0313562
0.0323887
0.0331725
0.0337214
0.0340549
0.0341967
0.0341728
0.0340104
0.0337363
0.0333763
0.032954
0.0324905
0.0320042
0.03151
0.0310203
0.0305443
0.0300889
0.0296589
0.0292568
0.0288834
0.0285396
0.028226
0.0279425
0.0276895
0.0274671
0.0272767
0.027124
0.0270136
0.0269463
0.0269216
0.0269408
0.0270058
0.0271188
0.0272829
0.0275017
0.0277801
0.0281234
0.0285386
0.029031
0.0296056
0.0302695
0.0310337
0.0319148
0.032935
0.0341227
0.0355121
0.037141
0.0390481
0.0412676
0.04382
0.0467146
0.0499531
0.0535219
0.057395
0.0615364
0.0659035
0.0704499
0.0751282
0.0798921
0.0846975
0.089504
0.0942756
0.0989805
0.103592
0.108086
0.112445
0.116654
3.57695e-06
9.12302e-05
0.000248391
0.000455053
0.000652308
0.000814692
0.000951128
0.00106968
0.0011756
0.00127236
0.00136232
0.00144723
0.00152841
0.00160692
0.00168367
0.00175943
0.00183493
0.00191083
0.00198779
0.00206648
0.00214761
0.00223194
0.00232035
0.00241386
0.00251376
0.00262171
0.00273996
0.00287166
0.00302155
0.00319232
0.00338612
0.00361241
0.00388447
0.0042187
0.00463633
0.00516399
0.0058338
0.00668214
0.00774745
0.00906146
0.0106595
0.0125513
0.0146479
0.0168305
0.0190374
0.0212159
0.0233136
0.0252863
0.027097
0.0287197
0.0301349
0.0313316
0.0323085
0.0330697
0.0336255
0.0339907
0.0341833
0.0342233
0.0341317
0.0339299
0.0336385
0.0332769
0.0328628
0.032412
0.0319381
0.0314527
0.0309651
0.0304825
0.0300112
0.0295563
0.0291216
0.0287106
0.0283271
0.0279758
0.0276684
0.0274147
0.027214
0.0270669
0.0269746
0.0269383
0.0269602
0.0270428
0.0271894
0.0274038
0.027691
0.0280565
0.028507
0.0290506
0.0296984
0.0304645
0.0313668
0.0324294
0.0336835
0.035166
0.0369176
0.038978
0.0413814
0.044147
0.0472822
0.0507759
0.0545993
0.058722
0.0631006
0.0676868
0.0724304
0.0772816
0.0821931
0.0871211
0.0920262
0.0968738
0.101634
0.106281
0.110795
0.115158
0.119358
4.04676e-06
0.000102592
0.000276874
0.000494316
0.000698908
0.000866119
0.00100583
0.00112663
0.00123406
0.00133174
0.00142217
0.00150715
0.00158805
0.00166595
0.00174175
0.00181625
0.00189013
0.00196404
0.00203858
0.00211434
0.00219192
0.00227191
0.00235495
0.00244173
0.00253301
0.00262971
0.00273293
0.00284409
0.0029651
0.00309856
0.00324828
0.00341846
0.00361036
0.00382895
0.00408611
0.00439535
0.00477414
0.00524447
0.0058332
0.00657132
0.00749245
0.00862785
0.0100023
0.0116558
0.0135379
0.0155589
0.0176229
0.0196859
0.0217009
0.0236266
0.0254308
0.0270863
0.028574
0.0298805
0.0309982
0.0319257
0.0326667
0.0332283
0.0336216
0.0338603
0.0339594
0.0339353
0.0338044
0.0335827
0.0332858
0.032928
0.0325223
0.0320806
0.0316134
0.0311302
0.0306392
0.0301474
0.0296623
0.0291923
0.0287554
0.0283673
0.0280318
0.0277515
0.0275291
0.0273675
0.0272696
0.0272389
0.0272791
0.0273949
0.0275913
0.0278744
0.0282516
0.0287324
0.0293291
0.0300582
0.0309418
0.0320092
0.0332966
0.0348463
0.0367028
0.0389069
0.041489
0.0444615
0.0478263
0.0515708
0.0556426
0.0599911
0.0645779
0.0693512
0.0742577
0.0792463
0.0842698
0.0892854
0.094255
0.0991461
0.103931
0.108585
0.113092
0.117435
0.121602
4.60863e-06
0.000115979
0.000308505
0.000538018
0.000749979
0.000921798
0.00106459
0.0011875
0.00129637
0.00139497
0.00148592
0.00157108
0.00165185
0.00172935
0.00180451
0.0018781
0.00195082
0.00202332
0.00209617
0.00216994
0.00224519
0.00232244
0.00240223
0.0024851
0.00257161
0.00266237
0.00275805
0.00285944
0.00296747
0.00308338
0.00320875
0.00334578
0.00349754
0.00366866
0.00386111
0.00407663
0.00432452
0.00461643
0.00496651
0.00539261
0.00591639
0.00656327
0.00736127
0.00833948
0.0095188
0.0109211
0.0125578
0.0143626
0.0162499
0.018159
0.0200524
0.021891
0.0236424
0.0252819
0.0267889
0.0281482
0.0293502
0.0303891
0.031263
0.0319748
0.0325299
0.0329358
0.0332028
0.033342
0.0333656
0.0332858
0.0331148
0.0328647
0.0325473
0.0321738
0.0317543
0.0312986
0.0308164
0.0303184
0.0298267
0.0293632
0.0289371
0.0285552
0.0282238
0.0279485
0.0277349
0.0275884
0.0275149
0.0275203
0.0276115
0.0277962
0.0280832
0.0284838
0.0290128
0.0296898
0.0305413
0.0316013
0.0329118
0.0345198
0.0364729
0.0388115
0.0415623
0.04473
0.0483096
0.052285
0.0565844
0.0611373
0.0659034
0.0708279
0.0758577
0.0809437
0.0860407
0.0911072
0.096107
0.101009
0.105789
0.110424
0.114898
0.119198
0.123315
0.12724
5.26183e-06
0.000131353
0.000342916
0.00058526
0.000804465
0.000980673
0.00112638
0.00125128
0.00136151
0.00146102
0.00155251
0.00163789
0.00171863
0.00179586
0.00187052
0.00194341
0.00201523
0.00208662
0.00215819
0.00223048
0.00230405
0.00237939
0.00245702
0.00253742
0.00262107
0.00270844
0.00280003
0.00289633
0.00299793
0.00310549
0.00321981
0.00334194
0.00347325
0.00361563
0.00377162
0.00394501
0.0041397
0.00435645
0.00460005
0.00488123
0.00521139
0.00560493
0.00607901
0.00665367
0.00735078
0.0081931
0.0092007
0.0103853
0.0117667
0.0133258
0.0150061
0.0167343
0.0184708
0.0201845
0.0218435
0.0234214
0.0248976
0.026257
0.0274868
0.0285787
0.0295284
0.0303342
0.030997
0.0315208
0.0319109
0.0321742
0.0323184
0.0323524
0.0322858
0.0321282
0.0318892
0.0315783
0.0312057
0.0307826
0.0303313
0.0298769
0.0294342
0.0290147
0.0286286
0.0282855
0.027994
0.0277627
0.0275997
0.027514
0.0275145
0.0276113
0.0278155
0.0281412
0.0286064
0.0292347
0.0300576
0.0311147
0.0324534
0.0341255
0.0361801
0.0386562
0.0415751
0.0449311
0.0486952
0.0528407
0.057323
0.0620587
0.0669736
0.0720171
0.0771406
0.0822927
0.0874286
0.0925112
0.0975088
0.102393
0.10714
0.111731
0.116151
0.12039
0.124438
0.128291
6.01285e-06
0.000148615
0.000379948
0.000635253
0.000861483
0.00104187
0.00119034
0.00131715
0.00142869
0.00152908
0.0016211
0.00170674
0.00178748
0.00186449
0.00193873
0.00201101
0.00208204
0.00215248
0.00222295
0.00229401
0.00236621
0.00244008
0.00251611
0.00259479
0.00267657
0.00276187
0.00285111
0.00294468
0.00304297
0.00314641
0.00325545
0.00337066
0.00349272
0.00362255
0.00376132
0.00391068
0.00407282
0.00425081
0.00444932
0.00466995
0.004914
0.00519008
0.00550793
0.00587882
0.00631617
0.00683516
0.00745244
0.00818483
0.00904884
0.0100545
0.0112062
0.0125189
0.0139628
0.0154931
0.0170526
0.0186093
0.0201388
0.0216157
0.0230179
0.0243281
0.025533
0.0266234
0.0275915
0.0284329
0.0291459
0.0297306
0.0301888
0.0305242
0.0307418
0.0308473
0.0308471
0.0307488
0.0305608
0.030293
0.0299642
0.029599
0.0292162
0.0288312
0.0284578
0.0281088
0.0277962
0.0275318
0.0273256
0.0271893
0.027135
0.0271751
0.0273244
0.0275996
0.0280226
0.0286221
0.0294347
0.0305062
0.0318895
0.0336398
0.0358064
0.0384242
0.0415066
0.0450341
0.0489672
0.0532661
0.0578788
0.062731
0.0677449
0.0728635
0.0780379
0.0832191
0.0883643
0.0934364
0.0984043
0.103244
0.107935
0.112461
0.116809
0.12097
0.124937
0.128705
6.86027e-06
0.000167767
0.000419799
0.000687582
0.000920392
0.00110474
0.00125583
0.00138446
0.00149727
0.00159851
0.00169104
0.00177692
0.00185766
0.00193446
0.00200831
0.00207998
0.00215023
0.00221974
0.00228914
0.00235905
0.00243001
0.00250258
0.00257728
0.00265462
0.00273504
0.00281898
0.00290681
0.00299889
0.00309553
0.00319703
0.00330369
0.00341584
0.00353384
0.00365817
0.00378942
0.00392839
0.00407616
0.00423419
0.00440444
0.00458953
0.00479322
0.00501937
0.00526833
0.00554411
0.00585588
0.00621229
0.00662374
0.00710161
0.00765807
0.00830527
0.00905456
0.00991637
0.0108934
0.0119838
0.0131944
0.0145003
0.0158664
0.0172527
0.0186252
0.0199659
0.0212556
0.0224757
0.0236111
0.0246505
0.0255852
0.0264091
0.027118
0.0277094
0.0281829
0.0285398
0.0287825
0.0289148
0.028942
0.0288712
0.0287147
0.0284938
0.0282289
0.0279377
0.0276363
0.0273398
0.0270624
0.026818
0.0266201
0.0264819
0.0264171
0.0264411
0.0265718
0.0268301
0.0272419
0.0278409
0.0286696
0.0297798
0.0312289
0.0330743
0.0353634
0.0381252
0.0413609
0.045039
0.0491142
0.0535352
0.0582383
0.0631546
0.0682168
0.0733647
0.0785454
0.0837127
0.0888264
0.0938527
0.0987633
0.103535
0.108149
0.112592
0.116851
0.120921
0.124796
0.128472
7.81028e-06
0.000188714
0.000461321
0.000741594
0.000980638
0.00116873
0.00132235
0.00145275
0.0015668
0.00166889
0.00176195
0.00184805
0.00192876
0.00200526
0.00207857
0.00214953
0.00221889
0.00228737
0.00235565
0.00242439
0.0024941
0.00256538
0.00263883
0.00271499
0.00279431
0.00287725
0.00296419
0.00305548
0.0031514
0.00325218
0.00335806
0.00346922
0.00358587
0.00370825
0.00383666
0.00397151
0.00411334
0.0042629
0.00442117
0.00458948
0.0047696
0.00496382
0.00517512
0.00540814
0.00566442
0.00594434
0.00625497
0.00660367
0.00699801
0.00744663
0.00795821
0.00854146
0.00920395
0.00995176
0.0107898
0.0117163
0.0127248
0.0138124
0.0149677
0.0161618
0.0173679
0.018554
0.0197015
0.0207968
0.0218259
0.0227755
0.0236354
0.024398
0.0250579
0.0256113
0.0260567
0.0263936
0.0266236
0.0267502
0.0267788
0.026725
0.0266081
0.026446
0.0262558
0.0260537
0.0258548
0.0256743
0.0255269
0.025428
0.0253934
0.0254403
0.0255892
0.0258645
0.0262968
0.026925
0.0277974
0.0289709
0.0305065
0.0324612
0.0348788
0.0377806
0.0411514
0.0449507
0.0491317
0.0536343
0.0583914
0.063335
0.0684006
0.0735299
0.0786721
0.0837834
0.0888268
0.0937713
0.0985917
0.103267
0.107782
0.112123
0.11628
0.120247
0.12402
0.127597
8.85535e-06
0.000211302
0.00050393
0.000796509
0.00104148
0.00123314
0.00138918
0.00152129
0.00163657
0.00173949
0.00183305
0.00191937
0.00200001
0.0020762
0.00214895
0.00221913
0.00228752
0.00235485
0.00242182
0.00248909
0.00255734
0.00262721
0.00269936
0.00277441
0.00285272
0.00293482
0.00302116
0.00311207
0.00320781
0.0033086
0.00341461
0.00352597
0.00364278
0.00376517
0.00389326
0.00402723
0.00416736
0.00431402
0.00446773
0.0046292
0.00479938
0.00497948
0.00517113
0.00537639
0.00559776
0.0058386
0.00610299
0.00639093
0.0067042
0.00705015
0.00743421
0.00786255
0.00834144
0.00887652
0.00947296
0.0101342
0.0108619
0.011656
0.0125134
0.0134252
0.0143812
0.0153769
0.016394
0.0174106
0.0184068
0.0193591
0.0202552
0.0210856
0.0218403
0.0225104
0.02309
0.0235751
0.0239631
0.0242542
0.0244476
0.0245516
0.024583
0.0245589
0.0244956
0.0244084
0.0243124
0.0242228
0.0241551
0.0241252
0.0241505
0.0242499
0.0244463
0.0247672
0.0252475
0.0259311
0.0268713
0.028129
0.0297668
0.0318399
0.0343862
0.0374131
0.0408934
0.0447841
0.0490333
0.0535765
0.0583455
0.0632739
0.0682997
0.073368
0.0784312
0.0834487
0.0883867
0.0932174
0.0979184
0.102472
0.106863
0.111082
0.11512
0.11897
0.12263
0.126098
9.98603e-06
0.000235231
0.000547008
0.000851602
0.00110224
0.0012973
0.00145568
0.00158947
0.00170594
0.00180966
0.00190367
0.00199013
0.00207062
0.00214639
0.00221846
0.00228773
0.00235501
0.00242105
0.00248659
0.00255237
0.00261908
0.00268744
0.00275812
0.00283176
0.00290894
0.00299022
0.00307613
0.00316691
0.00326277
0.00336399
0.00347071
0.00358298
0.00370085
0.00382437
0.00395355
0.00408846
0.00422919
0.0043759
0.00452887
0.00468846
0.00485519
0.00502976
0.00521307
0.00540628
0.00561082
0.00582851
0.00606156
0.00631248
0.00658489
0.00688123
0.00720075
0.0075468
0.00792493
0.00833873
0.00879255
0.00929007
0.00983392
0.010426
0.0110667
0.0117543
0.0124852
0.0132553
0.0140565
0.0148781
0.0157094
0.0165455
0.0173713
0.0181702
0.0189254
0.0196219
0.0202541
0.020814
0.0212966
0.0216984
0.0220131
0.0222422
0.022399
0.0224987
0.0225554
0.0225832
0.0225961
0.0226077
0.022633
0.0226883
0.0227912
0.0229621
0.0232258
0.0236128
0.0241616
0.0249204
0.0259464
0.027303
0.0290521
0.0312446
0.0339107
0.0370412
0.0406012
0.0445493
0.0488274
0.0533694
0.0581081
0.0629794
0.0679251
0.0728939
0.0778419
0.0827323
0.0875346
0.0922242
0.0967811
0.10119
0.105439
0.109518
0.113422
0.117146
0.120684
0.124037
1.11899e-05
0.000260176
0.000589996
0.000906231
0.00116228
0.00136061
0.00152125
0.00165666
0.00177427
0.00187873
0.00197312
0.00205962
0.00213983
0.00221502
0.00228624
0.0023544
0.00242034
0.00248489
0.00254882
0.00261292
0.00267797
0.00274473
0.00281394
0.00288629
0.00296241
0.00304288
0.00312818
0.0032187
0.00331476
0.00341666
0.00352448
0.00363805
0.00375751
0.00388283
0.00401393
0.00415079
0.00429341
0.00444182
0.00459612
0.00475649
0.0049232
0.00509664
0.00527733
0.00546596
0.00566338
0.00587064
0.00608904
0.00632011
0.00656572
0.00682789
0.00710877
0.00741174
0.00773776
0.00808552
0.00845848
0.00886009
0.00929199
0.00975651
0.0102552
0.0107879
0.0113537
0.0119507
0.012575
0.0132216
0.0138843
0.0145574
0.0152328
0.0159018
0.0165595
0.0172008
0.0178104
0.0183709
0.0188779
0.0193264
0.019707
0.020016
0.0202622
0.020457
0.0206119
0.0207391
0.0208512
0.0209604
0.0210792
0.0212235
0.0214108
0.0216624
0.0220044
0.0224698
0.0231002
0.0239471
0.0250701
0.0265331
0.0283954
0.0307025
0.033468
0.0366727
0.040283
0.0442522
0.0485197
0.05302
0.0576881
0.0624636
0.0672922
0.072127
0.0769281
0.0816623
0.0863028
0.0908278
0.0952203
0.099467
0.103558
0.107486
0.111246
0.114835
0.118249
0.121487
1.24486e-05
0.000285739
0.000632276
0.00095969
0.00122091
0.0014224
0.00158523
0.00172221
0.0018409
0.00194601
0.00204068
0.00212708
0.00220685
0.00228127
0.00235141
0.00241822
0.00248259
0.00254539
0.00260747
0.00266968
0.00273288
0.0027979
0.00286555
0.00293658
0.00301169
0.00309147
0.00317642
0.00326695
0.00336337
0.00346588
0.00357459
0.00368955
0.00381084
0.00393844
0.0040719
0.00421127
0.00435653
0.00450754
0.00466431
0.00482693
0.00499548
0.00517018
0.00535133
0.00553931
0.00573464
0.00593796
0.00615005
0.00637182
0.00660437
0.00684893
0.00710689
0.00737991
0.00766949
0.0079769
0.00830447
0.00865236
0.00901871
0.00940554
0.00981513
0.010247
0.0107012
0.0111769
0.011672
0.0121833
0.0127074
0.0132405
0.0137775
0.0143135
0.0148445
0.0153669
0.0158778
0.0163791
0.0168518
0.0172883
0.0176796
0.0180196
0.0183131
0.0185681
0.018793
0.0189968
0.0191895
0.0193826
0.0195863
0.0198147
0.020085
0.0204187
0.0208429
0.0213923
0.022111
0.0230524
0.0242771
0.0258471
0.027817
0.0302239
0.0330654