/*--------------------------------*- C++ -*----------------------------------*\
  =========                 |
  \\      /  F ield         | OpenFOAM: The Open Source CFD Toolbox
   \\    /   O peration     | Website:  https://openfoam.org
    \\  /    A nd           | Version:  10
     \\/     M anipulation  |
\*---------------------------------------------------------------------------*/
FoamFile
{
    format      ascii;
    class       volScalarField;
    location    "62000";
    object      nut;
}
// * * * * * * * * * * * * * * * * * * * * * * * * * * * * * * * * * * * * * //

dimensions      [0 2 -1 0 0 0 0];

internalField   nonuniform List<scalar> 
17969
(
8.37623e-09
7.8165e-07
4.75711e-06
1.1481e-05
1.69929e-05
2.01035e-05
2.10754e-05
1.97672e-05
1.889e-05
1.89266e-05
1.98882e-05
2.18196e-05
2.49216e-05
2.95541e-05
3.64924e-05
4.56459e-05
5.17188e-05
5.91969e-05
6.83619e-05
7.94505e-05
9.26498e-05
0.000108093
0.000125832
0.000145816
0.000167906
0.000191909
0.000217607
0.000244774
0.00027319
0.00030265
0.000332974
0.000364005
0.000395612
0.000427689
0.000460147
0.000492918
0.000525945
0.000559183
0.000592595
0.000626147
0.000659811
0.000693558
0.000727362
0.000761192
0.000795019
0.00082881
0.00086253
0.000896141
0.000929604
0.000962873
0.000995904
0.00102865
0.00106105
0.00109306
0.00112462
0.00115568
0.00118615
0.001216
0.00124513
0.00127349
0.00130099
0.00132755
0.00135309
0.00137752
0.00140074
0.00142263
0.00144309
0.00146198
0.00147915
0.00149445
0.00150771
0.00151872
0.00152727
0.00153313
0.00153601
0.00153586
0.0015329
0.00152707
0.00151742
0.00148124
0.00144615
0.00141436
0.00138481
0.00135711
0.00133089
0.00130643
0.00128604
0.00127472
0.00127793
0.00129489
0.00130609
0.00128597
0.00126615
0.00124675
0.00122792
0.00120982
0.00119264
0.00117697
0.0011634
0.00115195
3.56512e-09
3.52442e-07
2.87085e-06
8.63608e-06
1.47682e-05
1.90226e-05
2.12504e-05
2.31348e-05
2.51675e-05
2.48176e-05
2.38462e-05
2.36317e-05
2.43153e-05
2.59067e-05
2.85124e-05
3.23851e-05
3.79394e-05
4.59705e-05
5.60299e-05
6.24449e-05
7.02146e-05
7.96026e-05
9.08323e-05
0.000104075
0.000119457
0.000137054
0.000156874
0.000178846
0.000202819
0.000228595
0.000255955
0.000284677
0.000314547
0.000345372
0.000376976
0.00040921
0.000441945
0.000475074
0.000508508
0.000542171
0.000576002
0.000609947
0.000643961
0.000678001
0.000712029
0.000746008
0.0007799
0.000813668
0.000847272
0.000880672
0.000913823
0.00094668
0.000979195
0.00101132
0.00104299
0.00107416
0.00110477
0.00113476
0.00116405
0.00119258
0.00122028
0.00124706
0.00127284
0.00129754
0.00132105
0.00134327
0.00136409
0.00138337
0.00140097
0.00141675
0.00143051
0.00144208
0.00145123
0.00145775
0.00146133
0.00146194
0.00145983
0.00145503
0.00144239
0.00140638
0.00137164
0.00133997
0.00131074
0.00128397
0.00125945
0.00123677
0.00121598
0.00119873
0.00118899
0.00119207
0.0012103
0.00123267
0.0012165
0.00119891
0.00118192
0.00116569
0.00115039
0.00113659
0.00112481
0.00111505
1.52608e-09
1.56802e-07
1.54877e-06
5.78081e-06
1.13836e-05
1.60873e-05
1.89365e-05
2.08435e-05
2.31122e-05
2.56994e-05
2.85494e-05
3.01448e-05
2.92731e-05
2.88441e-05
2.92221e-05
3.0465e-05
3.26235e-05
3.58561e-05
4.04725e-05
4.69144e-05
5.59712e-05
6.66323e-05
7.33079e-05
8.12964e-05
9.08482e-05
0.000102176
0.000115442
0.000130763
0.000148213
0.000167815
0.000189541
0.0002133
0.000238935
0.000266248
0.00029502
0.000325031
0.000356072
0.000387952
0.000420505
0.000453583
0.000487061
0.000520832
0.000554806
0.000588903
0.000623055
0.000657201
0.000691288
0.000725265
0.000759083
0.000792695
0.000826055
0.000859116
0.000891828
0.000924142
0.000956006
0.000987365
0.00101816
0.00104834
0.00107782
0.00110656
0.00113447
0.00116148
0.00118751
0.00121247
0.00123627
0.0012588
0.00127995
0.00129959
0.0013176
0.0013338
0.00134804
0.00136013
0.00136985
0.00137699
0.00138126
0.00138264
0.00138136
0.0013777
0.00136449
0.00132866
0.00129442
0.00126323
0.00123435
0.00120798
0.00118425
0.00116303
0.00114411
0.00112751
0.00111433
0.00110754
0.00111194
0.00113073
0.00115538
0.00114831
0.00113343
0.00111934
0.00110622
0.0010946
0.00108493
0.00107719
8.45243e-10
8.74136e-08
9.12938e-07
3.92338e-06
8.70575e-06
1.34613e-05
1.69346e-05
1.88645e-05
2.07174e-05
2.29482e-05
2.55939e-05
2.86428e-05
3.20473e-05
3.55487e-05
3.53274e-05
3.47336e-05
3.48404e-05
3.57338e-05
3.7488e-05
4.02073e-05
4.40942e-05
4.94843e-05
5.68483e-05
6.6949e-05
7.75897e-05
8.44754e-05
9.26421e-05
0.000102329
0.000113735
0.000127013
0.00014227
0.000159569
0.000178932
0.000200336
0.000223718
0.000248966
0.000275925
0.000304404
0.000334195
0.000365086
0.000396878
0.000429384
0.000462441
0.000495905
0.000529649
0.000563565
0.000597558
0.000631543
0.000665446
0.000699198
0.000732735
0.000765998
0.000798928
0.000831469
0.000863565
0.000895158
0.00092619
0.000956601
0.000986327
0.0010153
0.00104346
0.00107072
0.00109701
0.00112223
0.00114631
0.00116914
0.00119061
0.00121059
0.00122896
0.00124557
0.00126024
0.00127282
0.0012831
0.00129088
0.00129591
0.00129817
0.00129794
0.00129553
0.00128405
0.00124869
0.001215
0.00118447
0.00115624
0.00113046
0.00110734
0.00108697
0.0010694
0.00105463
0.00104277
0.00103462
0.00103235
0.00103978
0.00106015
0.00108657
0.00108299
0.00107132
0.00106066
0.0010515
0.00104424
0.00103886
0.00103549
0.00103434
0.00103559
0.00103935
6.08707e-10
6.284e-08
6.4994e-07
2.96665e-06
7.06052e-06
1.16829e-05
1.57144e-05
1.84367e-05
1.98589e-05
2.13434e-05
2.32334e-05
2.55986e-05
2.84528e-05
3.17782e-05
3.55432e-05
3.95598e-05
4.2036e-05
4.15409e-05
4.13874e-05
4.19522e-05
4.33191e-05
4.55863e-05
4.89035e-05
5.35105e-05
5.9738e-05
6.807e-05
7.92091e-05
8.90776e-05
9.61405e-05
0.000104455
0.000114247
0.000125699
0.000138951
0.000154096
0.000171187
0.000190238
0.000211226
0.000234092
0.000258744
0.00028506
0.000312885
0.000342045
0.00037235
0.000403605
0.00043562
0.000468217
0.000501234
0.000534524
0.000567957
0.00060142
0.000634808
0.00066803
0.000701002
0.000733647
0.000765893
0.000797668
0.000828905
0.000859538
0.000889497
0.000918714
0.000947117
0.000974631
0.00100118
0.00102667
0.00105102
0.00107414
0.00109591
0.00111621
0.00113494
0.00115194
0.00116707
0.00118017
0.00119108
0.00119962
0.00120557
0.00120892
0.00120994
0.00120899
0.00120175
0.00116732
0.00113426
0.00110457
0.00107733
0.00105259
0.00103052
0.00101122
0.00099484
0.000981577
0.000971596
0.000965147
0.000962906
0.000966451
0.000978483
0.00100207
0.00103097
0.0010222
0.00101425
0.00100784
0.00100327
0.00100055
0.000999859
0.0010014
0.00100535
0.00101179
5.13947e-10
5.28992e-08
5.37084e-07
2.50021e-06
6.14358e-06
1.05656e-05
1.48975e-05
1.84719e-05
2.08216e-05
2.19655e-05
2.29534e-05
2.43134e-05
2.61742e-05
2.8587e-05
3.15637e-05
3.5091e-05
3.91421e-05
4.36112e-05
4.81817e-05
4.92786e-05
4.9037e-05
4.93097e-05
5.02973e-05
5.21426e-05
5.4969e-05
5.89454e-05
6.43283e-05
7.14027e-05
8.06466e-05
9.26826e-05
0.000101253
0.00010845
0.000116858
0.000126685
0.000138099
0.000151225
0.000166149
0.000182916
0.000201533
0.000221975
0.000244183
0.000268071
0.00029353
0.000320425
0.000348607
0.00037791
0.00040816
0.000439176
0.000470784
0.000502813
0.000535104
0.000567511
0.000599899
0.000632148
0.000664147
0.000695794
0.000726995
0.000757662
0.000787712
0.000817061
0.00084563
0.000873336
0.000900097
0.000925826
0.000950433
0.000973826
0.000995902
0.00101656
0.00103568
0.00105314
0.00106883
0.0010826
0.00109433
0.00110388
0.00111101
0.00111569
0.00111817
0.00111875
0.00111754
0.00108555
0.00105369
0.00102516
0.000999305
0.000976077
0.000955584
0.000937874
0.000923072
0.000911409
0.000903196
0.0008988
0.000898674
0.000903365
0.000913819
0.000932897
0.000960999
0.00097255
0.000967601
0.000964197
0.000962565
0.000962798
0.000965092
0.000969635
0.000976574
0.000985986
4.66385e-10
4.79212e-08
4.79545e-07
2.24471e-06
5.59333e-06
9.81452e-06
1.42468e-05
1.83725e-05
2.17597e-05
2.40584e-05
2.51499e-05
2.56609e-05
2.64687e-05
2.76714e-05
2.94244e-05
3.18043e-05
3.48299e-05
3.84919e-05
4.27629e-05
4.76157e-05
5.27661e-05
5.77248e-05
5.7718e-05
5.77718e-05
5.84934e-05
5.99575e-05
6.23281e-05
6.5758e-05
7.04299e-05
7.65941e-05
8.44608e-05
9.45128e-05
0.000107297
0.000114171
0.000121423
0.000129827
0.000139575
0.000150823
0.000163687
0.000178248
0.000194546
0.000212588
0.000232342
0.000253749
0.000276721
0.000301149
0.000326905
0.000353847
0.000381822
0.000410667
0.000440218
0.000470306
0.000500768
0.000531446
0.000562186
0.000592847
0.000623295
0.000653405
0.00068306
0.000712152
0.000740577
0.000768235
0.00079503
0.000820866
0.00084565
0.000869286
0.000891678
0.000912728
0.000932336
0.000950397
0.000966808
0.000981459
0.00099424
0.00100503
0.00101358
0.00101982
0.00102396
0.00102627
0.00102704
0.00100461
0.000975189
0.000948283
0.0009243
0.000903078
0.00088462
0.000868942
0.000856153
0.000846508
0.000840395
0.000838314
0.000840853
0.000848466
0.000861219
0.000880484
0.00090758
0.000923177
0.00092139
0.00092118
0.000922725
0.000926177
0.00093173
0.000939548
0.000949746
0.000962367
0.000977374
4.38521e-10
4.50303e-08
4.4485e-07
2.08041e-06
5.21304e-06
9.23715e-06
1.36302e-05
1.80139e-05
2.20646e-05
2.54732e-05
2.79459e-05
2.92451e-05
2.95721e-05
2.9859e-05
3.04312e-05
3.14153e-05
3.29678e-05
3.52192e-05
3.82062e-05
4.19292e-05
4.63672e-05
5.14917e-05
5.70901e-05
6.28183e-05
6.6972e-05
6.72708e-05
6.78057e-05
6.90196e-05
7.10295e-05
7.39939e-05
7.80881e-05
8.35051e-05
9.04669e-05
9.9152e-05
0.000109996
0.000121436
0.000127776
0.000134987
0.000143276
0.000152823
0.000163774
0.000176239
0.000190293
0.000205974
0.000223285
0.000242192
0.000262631
0.000284512
0.000307721
0.000332128
0.000357592
0.000383961
0.000411079
0.000438788
0.000466928
0.000495343
0.000523878
0.000552384
0.00058072
0.000608748
0.00063634
0.00066337
0.000689723
0.000715286
0.000739951
0.000763614
0.000786174
0.000807533
0.000827594
0.00084626
0.000863436
0.000879025
0.000892926
0.000905029
0.000915056
0.000922888
0.000928716
0.000932795
0.000935427
0.000926721
0.000900955
0.000876267
0.00085466
0.000835917
0.000819908
0.000806685
0.000796442
0.000789538
0.000786431
0.000787516
0.000793291
0.000804209
0.000819942
0.000841322
0.000868058
0.000874761
0.000876246
0.000879379
0.000884317
0.000891229
0.000900285
0.000911616
0.000925293
0.000941313
0.000959597
0.00097999
0.00100227
4.22568e-10
4.3425e-08
4.23301e-07
1.96852e-06
4.93641e-06
8.78007e-06
1.30614e-05
1.74989e-05
2.18711e-05
2.59624e-05
2.95405e-05
3.23545e-05
3.41515e-05
3.47831e-05
3.46575e-05
3.46785e-05
3.49552e-05
3.56319e-05
3.68852e-05
3.8883e-05
4.16968e-05
4.53451e-05
4.98188e-05
5.50962e-05
6.10775e-05
6.73995e-05
7.36763e-05
7.72408e-05
7.80708e-05
7.92352e-05
8.1074e-05
8.37415e-05
8.73986e-05
9.2261e-05
9.85269e-05
0.000106329
0.000115903
0.000127596
0.000135793
0.000142066
0.000149145
0.00015722
0.000166456
0.000176987
0.000188915
0.000202309
0.000217202
0.000233595
0.00025145
0.000270702
0.000291257
0.000313002
0.000335806
0.000359526
0.000384012
0.000409112
0.00043467
0.000460532
0.000486545
0.000512562
0.000538437
0.000564032
0.000589214
0.000613853
0.000637827
0.00066102
0.00068332
0.000704619
0.000724816
0.000743811
0.00076151
0.000777817
0.000792634
0.000805853
0.00081717
0.000826423
0.000833777
0.000839449
0.000843659
0.000846637
0.000832495
0.000812248
0.000793599
0.000777353
0.000763963
0.000753794
0.000747075
0.000744071
0.00074516
0.000750178
0.000758894
0.000771263
0.000787976
0.000809517
0.000824509
0.000827835
0.000832691
0.000839308
0.000847828
0.000858404
0.000871167
0.000886199
0.000903519
0.000923072
0.000944727
0.000968287
0.000993497
0.00102006
4.17981e-10
4.30232e-08
4.13264e-07
1.90166e-06
4.75386e-06
8.45426e-06
1.26122e-05
1.70025e-05
2.14697e-05
2.58754e-05
3.00708e-05
3.38821e-05
3.71049e-05
3.95069e-05
4.0846e-05
4.10346e-05
4.05813e-05
4.02874e-05
4.0211e-05
4.04977e-05
4.13491e-05
4.29577e-05
4.54388e-05
4.88485e-05
5.32021e-05
5.84881e-05
6.47015e-05
7.14977e-05
7.8477e-05
8.53185e-05
8.89189e-05
9.04776e-05
9.2403e-05
9.50079e-05
9.84753e-05
0.000102979
0.000108738
0.000115932
0.000124645
0.000135125
0.000145367
0.000150981
0.00015713
0.000164002
0.000171771
0.000180583
0.000190559
0.000201792
0.000214343
0.000228242
0.000243484
0.000260034
0.000277827
0.000296772
0.000316759
0.00033766
0.000359336
0.000381643
0.00040443
0.000427545
0.000450839
0.000474164
0.000497376
0.000520336
0.000542909
0.000564965
0.000586384
0.000607047
0.000626844
0.000645672
0.000663429
0.00068002
0.000695347
0.000709302
0.000721559
0.000731925
0.000740544
0.000747621
0.000753387
0.000758161
0.00076166
0.000756694
0.000742879
0.000731041
0.000722311
0.000716847
0.00071465
0.000715402
0.000718703
0.000724732
0.000733443
0.000740097
0.000747734
0.000760269
0.000776093
0.00078272
0.000791063
0.00080131
0.000813581
0.000827995
0.000844629
0.000863507
0.000884585
0.000907746
0.000932806
0.000959522
0.000987605
0.00101674
0.00104661
0.00107689
4.24977e-10
4.38462e-08
4.14457e-07
1.8779e-06
4.66407e-06
8.27193e-06
1.23365e-05
1.66608e-05
2.11241e-05
2.56325e-05
3.00947e-05
3.44074e-05
3.84456e-05
4.20547e-05
4.50461e-05
4.71972e-05
4.82718e-05
4.81794e-05
4.7427e-05
4.68052e-05
4.63525e-05
4.62009e-05
4.65643e-05
4.76565e-05
4.9645e-05
5.26436e-05
5.67097e-05
6.18563e-05
6.80835e-05
7.51863e-05
8.27363e-05
9.03417e-05
9.77783e-05
0.000102456
0.000104927
0.000107733
0.000111242
0.00011566
0.000121213
0.000128035
0.000136152
0.000145784
0.000156333
0.000161571
0.000167083
0.000173048
0.000179634
0.000186993
0.000195254
0.000204526
0.000214889
0.000226397
0.000239075
0.000252919
0.000267894
0.000283942
0.000300979
0.000318901
0.00033759
0.000356913
0.000376732
0.000396907
0.000417292
0.00043774
0.000458109
0.000478264
0.000498073
0.000517407
0.000536148
0.000554185
0.000571416
0.000587739
0.000603056
0.00061726
0.000630011
0.00064109
0.00065062
0.000658781
0.000665772
0.000671844
0.000677386
0.000681853
0.000685381
0.000688195
0.000690504
0.000692508
0.000693988
0.000696326
0.000691027
0.000688792
0.000688581
0.000690547
0.000695435
0.000704592
0.000720102
0.000739646
0.000751626
0.000765655
0.000781832
0.000800229
0.000820863
0.000843686
0.000868581
0.000895367
0.0009238
0.000953593
0.000984428
0.00101597
0.00104791
0.00107992
0.00111172
0.00114307
0.00117375
0.00120358
4.43934e-10
4.5945e-08
4.27195e-07
1.89652e-06
4.66477e-06
8.23469e-06
1.22545e-05
1.65401e-05
2.09855e-05
2.55171e-05
3.00726e-05
3.45892e-05
3.89956e-05
4.32061e-05
4.71124e-05
5.05772e-05
5.34275e-05
5.54516e-05
5.64138e-05
5.61847e-05
5.51875e-05
5.42683e-05
5.34713e-05
5.2891e-05
5.27203e-05
5.32034e-05
5.45658e-05
5.69811e-05
6.05569e-05
6.53399e-05
7.1339e-05
7.85328e-05
8.64877e-05
9.47421e-05
0.000103
0.000111079
0.000118121
0.00012176
0.000125613
0.000130209
0.00013577
0.000142527
0.000150509
0.000159718
0.000168308
0.000173424
0.000178582
0.000183947
0.000189673
0.000195904
0.000202765
0.000210369
0.000218805
0.000228145
0.000238436
0.000249698
0.000261928
0.000275098
0.000289154
0.000304023
0.000319614
0.000335817
0.000352514
0.000369575
0.000386868
0.000404264
0.000421628
0.000438829
0.000455741
0.000472252
0.000488257
0.000503653
0.000518339
0.000532211
0.000544923
0.000556236
0.000566244
0.000575099
0.000582959
0.000590013
0.000596519
0.000602895
0.000608605
0.000613796
0.000618607
0.00062319
0.000627703
0.000632312
0.000637176
0.000642518
0.000646507
0.000649004
0.000654102
0.00066253
0.000675673
0.000694978
0.000714845
0.000732761
0.000752951
0.000775425
0.000800124
0.000826919
0.000855616
0.000885959
0.000917649
0.000950358
0.000983744
0.00101747
0.0010512
0.00108466
0.00111758
0.00114973
0.00118093
0.00121103
4.74531e-10
4.93228e-08
4.51188e-07
1.95458e-06
4.74797e-06
8.33128e-06
1.23584e-05
1.66494e-05
2.11029e-05
2.56522e-05
3.02467e-05
3.48412e-05
3.93894e-05
4.38449e-05
4.81521e-05
5.22407e-05
5.60193e-05
5.93686e-05
6.21343e-05
6.41214e-05
6.5098e-05
6.4912e-05
6.38177e-05
6.26561e-05
6.15771e-05
6.06268e-05
5.99564e-05
5.98192e-05
6.04824e-05
6.21801e-05
6.50851e-05
6.93024e-05
7.48769e-05
8.18441e-05
8.99188e-05
9.8634e-05
0.000107557
0.000116444
0.000125143
0.00013353
0.000141041
0.00014645
0.000152446
0.000159532
0.000167743
0.000175045
0.000180522
0.000185744
0.000190839
0.000195937
0.000201166
0.000206648
0.000212499
0.000218823
0.000225713
0.000233246
0.00024148
0.000250455
0.00026019
0.000270682
0.000281907
0.000293821
0.000306361
0.000319446
0.000332988
0.000346883
0.00036102
0.000375284
0.000389563
0.000403752
0.000417749
0.000431453
0.000444772
0.000457612
0.000469638
0.000480599
0.000490557
0.000499628
0.000507935
0.000515614
0.000522835
0.000529838
0.000537007
0.000544016
0.000550851
0.000557632
0.000564493
0.000571579
0.000579051
0.000587098
0.000595938
0.00060583
0.000617073
0.000629534
0.000641977
0.000659141
0.000681392
0.000703204
0.000727418
0.000753966
0.000782699
0.000813395
0.00084577
0.000879499
0.000914229
0.000949596
0.000985241
0.00102083
0.00105604
0.00109061
0.0011243
0.00115693
0.00118832
0.00121838
5.17479e-10
5.40485e-08
4.86258e-07
2.04905e-06
4.90447e-06
8.54703e-06
1.26288e-05
1.69699e-05
2.14684e-05
2.60569e-05
3.06864e-05
3.53185e-05
3.99208e-05
4.44638e-05
4.89174e-05
5.32481e-05
5.74142e-05
6.13613e-05
6.50162e-05
6.82794e-05
7.10177e-05
7.30569e-05
7.41698e-05
7.41998e-05
7.32003e-05
7.18658e-05
7.06015e-05
6.93969e-05
6.83377e-05
6.76482e-05
6.76167e-05
6.85276e-05
7.06218e-05
7.40713e-05
7.89743e-05
8.53823e-05
9.32415e-05
0.000102098
0.000111463
0.000121001
0.000130481
0.000139726
0.000148628
0.000157108
0.000165111
0.000172579
0.000179504
0.000185925
0.000191903
0.000197521
0.000202872
0.000208053
0.000213166
0.000218314
0.000223593
0.000229098
0.000234914
0.000241115
0.000247763
0.000254907
0.000262578
0.000270791
0.000279544
0.000288817
0.000298578
0.000308778
0.000319352
0.00033023
0.000341339
0.000352601
0.000363936
0.000375259
0.0003865
0.000397587
0.000408226
0.000418168
0.000427456
0.000436172
0.000444403
0.000452246
0.000459807
0.000467224
0.000474687
0.000482491
0.000490674
0.000499075
0.000507743
0.000516816
0.000526442
0.000536795
0.000548091
0.000560592
0.000574603
0.00059045
0.000608453
0.000628885
0.00065191
0.000677529
0.000705675
0.000736187
0.000768808
0.000803213
0.000839028
0.000875858
0.000913301
0.000950969
0.000988499
0.00102556
0.00106186
0.00109716
0.00113126
0.00116399
0.00119525
0.00122494
5.73456e-10
6.02107e-08
5.32723e-07
2.17879e-06
5.12555e-06
8.85563e-06
1.3029e-05
1.74611e-05
2.20427e-05
2.67019e-05
3.13876e-05
3.60623e-05
4.06975e-05
4.52712e-05
4.97655e-05
5.41646e-05
5.84523e-05
6.26092e-05
6.66085e-05
7.04121e-05
7.39639e-05
7.71836e-05
7.99582e-05
8.21354e-05
8.35048e-05
8.38832e-05
8.31738e-05
8.18096e-05
8.0475e-05
7.91454e-05
7.78549e-05
7.67533e-05
7.61196e-05
7.62645e-05
7.74838e-05
8.00179e-05
8.40325e-05
8.96174e-05
9.68576e-05
0.000105453
0.000114922
0.000124805
0.000134812
0.000144714
0.000154341
0.000163559
0.00017228
0.000180475
0.000188127
0.000195255
0.0002019
0.000208113
0.000213959
0.000219509
0.00022484
0.00023003
0.000235159
0.000240304
0.000245538
0.000250928
0.000256531
0.000262394
0.000268556
0.00027504
0.000281859
0.000289016
0.000296495
0.000304271
0.000312319
0.000320606
0.000329093
0.000337745
0.000346525
0.000355393
0.000364116
0.000372489
0.000380541
0.000388323
0.000395901
0.000403347
0.000410735
0.000418154
0.00042571
0.000433534
0.000441768
0.00045064
0.000460229
0.000470564
0.000481682
0.000493692
0.000506834
0.000521395
0.000537706
0.000556117
0.000576965
0.000600519
0.000626937
0.000656186
0.000688071
0.000722322
0.000758564
0.000796362
0.000835254
0.000874781
0.000914507
0.000954028
0.000992987
0.00103107
0.00106803
0.00110364
0.00113774
0.00117022
0.00120098
0.00122998
0.00125721
6.43091e-10
6.78839e-08
5.91128e-07
2.33431e-06
5.39889e-06
9.25817e-06
1.35627e-05
1.81194e-05
2.28121e-05
2.75642e-05
3.23218e-05
3.70467e-05
4.17113e-05
4.62969e-05
5.07914e-05
5.51878e-05
5.94825e-05
6.36732e-05
6.77571e-05
7.17278e-05
7.55717e-05
7.92641e-05
8.27631e-05
8.60039e-05
8.88901e-05
9.1287e-05
9.30047e-05
9.38132e-05
9.35901e-05
9.2464e-05
9.11493e-05
8.98131e-05
8.84565e-05
8.71279e-05
8.60544e-05
8.5545e-05
8.59259e-05
8.74966e-05
9.04933e-05
9.50718e-05
0.000101324
0.000109214
0.000118329
0.000128179
0.000138376
0.000148633
0.000158723
0.000168493
0.000177837
0.000186694
0.000195056
0.000202913
0.000210277
0.00021718
0.000223661
0.000229769
0.000235556
0.00024108
0.0002464
0.000251577
0.000256667
0.000261726
0.000266802
0.00027194
0.000277176
0.000282537
0.000288045
0.000293711
0.000299545
0.000305548
0.00031172
0.000318059
0.000324569
0.000331252
0.000337957
0.000344547
0.000351045
0.000357503
0.000363976
0.000370527
0.000377219
0.000384123
0.000391319
0.000398898
0.000406961
0.000415628
0.000425023
0.000435289
0.000446628
0.00045926
0.000473393
0.000489301
0.000507319
0.000527807
0.000551099
0.000577431
0.000606912
0.00063888
0.000672325
0.00071249
0.000751959
0.000792703
0.000834182
0.000875889
0.000917365
0.000958209
0.000998082
0.0010367
0.00107384
0.00110933
0.00114304
0.00117489
0.00120483
0.00123284
0.00125893
7.27565e-10
7.71307e-08
6.59408e-07
2.52077e-06
5.73614e-06
9.75567e-06
1.4218e-05
1.89212e-05
2.37425e-05
2.86006e-05
3.3439e-05
3.82181e-05
4.29108e-05
4.75004e-05
5.19782e-05
5.63423e-05
6.05962e-05
6.47471e-05
6.88044e-05
7.27778e-05
7.66753e-05
8.05001e-05
8.4248e-05
8.79032e-05
9.14334e-05
9.47835e-05
9.78687e-05
0.000100567
0.000102708
0.000104044
0.00010444
0.000103816
0.000102618
0.000101385
0.000100089
9.87224e-05
9.74086e-05
9.64276e-05
9.61054e-05
9.67749e-05
9.87248e-05
0.000102171
0.000107241
0.000114038
0.000122329
0.000131688
0.000141664
0.000151917
0.000162185
0.000172283
0.000182081
0.000191492
0.000200461
0.000208975
0.000217029
0.000224626
0.000231784
0.000238534
0.000244908
0.000250943
0.000256681
0.000262164
0.000267434
0.000272534
0.000277501
0.000282373
0.00028718
0.000291952
0.000296715
0.000301494
0.000306308
0.000311179
0.000316133
0.0003212
0.000326294
0.000331335
0.000336372
0.000341467
0.000346686
0.000352094
0.000357762
0.00036376
0.000370168
0.000377072
0.000384565
0.000392754
0.000401765
0.000411748
0.000422895
0.000435445
0.000449698
0.000466015
0.000484814
0.000506527
0.000531531
0.000560072
0.00059216
0.000627537
0.000660966
0.000701322
0.000748373
0.000791948
0.000835397
0.000878658
0.000921271
0.00096285
0.00100308
0.00104172
0.00107857
0.00111351
0.00114644
0.00117732
0.00120613
0.00123288
0.0012576
8.28593e-10
8.8149e-08
7.36569e-07
2.73987e-06
6.13269e-06
1.03351e-05
1.49731e-05
1.98363e-05
2.47955e-05
2.97652e-05
3.46861e-05
3.9518e-05
4.42343e-05
4.88202e-05
5.32702e-05
5.75863e-05
6.17774e-05
6.58568e-05
6.98414e-05
7.37503e-05
7.76025e-05
8.14156e-05
8.52041e-05
8.89764e-05
9.27323e-05
9.646e-05
0.000100131
0.000103696
0.000107076
0.000110159
0.000112789
0.000114742
0.000115785
0.000115819
0.000114966
0.000113903
0.000112743
0.000111493
0.000110147
0.000108916
0.000108102
0.000108035
0.000109033
0.000111359
0.000115197
0.000120645
0.000127714
0.000136103
0.000145422
0.000155288
0.000165405
0.000175547
0.000185553
0.000195307
0.000204731
0.000213769
0.000222392
0.000230603
0.000238394
0.00024577
0.000252747
0.000259349
0.000265599
0.000271524
0.00027715
0.000282506
0.00028762
0.00029252
0.000297235
0.000301792
0.000306219
0.000310545
0.000314801
0.000319026
0.00032317
0.000327197
0.000331177
0.000335193
0.000339324
0.000343654
0.000348264
0.000353241
0.000358675
0.000364663
0.000371311
0.000378738
0.000387083
0.000396515
0.00040725
0.000419564
0.000433811
0.000450419
0.000469869
0.00049264
0.000519115
0.000549479
0.000583652
0.000621239
0.000655813
0.000695967
0.000748084
0.000793644
0.000838312
0.00088241
0.000925489
0.000967188
0.00100722
0.00104538
0.00108151
0.0011155
0.00114731
0.00117691
0.00120433
0.00122959
0.00125276
0.0012739
9.46045e-10
1.00941e-07
8.21912e-07
2.98543e-06
6.57452e-06
1.09752e-05
1.58004e-05
2.08311e-05
2.59317e-05
3.10126e-05
3.60125e-05
4.08908e-05
4.56223e-05
5.01945e-05
5.46053e-05
5.88611e-05
6.29752e-05
6.69667e-05
7.08582e-05
7.46751e-05
7.84434e-05
8.21889e-05
8.59354e-05
8.97036e-05
9.35088e-05
9.73597e-05
0.000101256
0.000105184
0.000109116
0.000113003
0.000116771
0.00012031
0.000123475
0.000126066
0.000127788
0.000128552
0.000128296
0.000127443
0.000126488
0.000125441
0.000124247
0.000122991
0.00012193
0.000121365
0.000121615
0.000122961
0.000125622
0.000129731
0.000135356
0.000142419
0.000150647
0.000159718
0.000169306
0.000179155
0.000189064
0.000198885
0.000208513
0.000217868
0.000226896
0.000235558
0.000243834
0.000251725
0.000259224
0.000266334
0.000273061
0.00027942
0.000285423
0.000291088
0.000296432
0.000301475
0.000306236
0.000310742
0.000315022
0.000319109
0.000322957
0.000326552
0.000329983
0.000333348
0.000336744
0.000340271
0.000344029
0.00034812
0.000352652
0.000357743
0.000363518
0.000370118
0.000377707
0.000386485
0.000396707
0.000408698
0.000422873
0.000439723
0.000459788
0.000483574
0.000511444
0.000543509
0.00057957
0.000619081
0.000661255
0.000700111
0.000744227
0.000793807
0.000841843
0.000886112
0.000929051
0.000970322
0.00100967
0.00104692
0.00108194
0.00111467
0.00114508
0.00117318
0.001199
0.00122261
0.00124407
0.00126349
1.08109e-09
1.15472e-07
9.15521e-07
3.25081e-06
7.04723e-06
1.16553e-05
1.66739e-05
2.18747e-05
2.71155e-05
3.23026e-05
3.73735e-05
4.22877e-05
4.70223e-05
5.15681e-05
5.59272e-05
6.01101e-05
6.41354e-05
6.80275e-05
7.18146e-05
7.55272e-05
7.91966e-05
8.2854e-05
8.65289e-05
9.02484e-05
9.40358e-05
9.79092e-05
0.000101881
0.000105956
0.000110129
0.000114384
0.000118689
0.000122994
0.000127225
0.000131278
0.000135009
0.000138242
0.00014071
0.000142179
0.000142625
0.00014216
0.000141448
0.000140623
0.000139709
0.000138635
0.000137578
0.000136796
0.000136573
0.000137189
0.000138874
0.000141797
0.000146042
0.000151639
0.000158492
0.00016638
0.000175048
0.000184225
0.000193685
0.000203246
0.000212771
0.000222155
0.000231321
0.000240208
0.000248771
0.00025698
0.000264813
0.000272264
0.000279325
0.00028599
0.000292257
0.000298132
0.000303626
0.000308749
0.000313519
0.000317954
0.000321999
0.000325635
0.000328964
0.000332096
0.000335142
0.000338215
0.000341431
0.000344912
0.000348776
0.000353163
0.000358222
0.00036412
0.000371054
0.000379261
0.000389042
0.000400782
0.00041496
0.000432134
0.000452888
0.000477731
0.000506972
0.000540613
0.000578304
0.000619321
0.000662759
0.000706203
0.000750155
0.000797573
0.000844822
0.000888724
0.000931021
0.000971413
0.00100968
0.00104568
0.00107932
0.00111055
0.00113935
0.00116577
0.00118987
0.00121171
0.0012314
0.00124903
1.23347e-09
1.31755e-07
1.01907e-06
3.53036e-06
7.53711e-06
1.23565e-05
1.75709e-05
2.29405e-05
2.83163e-05
3.36009e-05
3.87308e-05
4.36671e-05
4.83898e-05
5.28948e-05
5.71897e-05
6.12866e-05
6.5211e-05
6.89935e-05
7.26678e-05
7.62696e-05
7.98338e-05
8.33959e-05
8.69897e-05
9.06464e-05
9.43932e-05
9.82534e-05
0.000102245
0.000106381
0.000110668
0.000115102
0.000119675
0.000124365
0.000129135
0.000133934
0.000138687
0.000143292
0.000147613
0.00015148
0.000154673
0.000156855
0.000158026
0.000158181
0.000157725
0.000157163
0.000156564
0.000155842
0.000155011
0.000154286
0.000153899
0.000154102
0.000155122
0.00015713
0.000160254
0.000164539
0.000169975
0.000176487
0.000183908
0.000192042
0.000200681
0.000209619
0.000218695
0.000227774
0.000236753
0.000245552
0.000254107
0.000262361
0.000270275
0.000277816
0.000284957
0.000291684
0.00029799
0.000303865
0.000309306
0.000314318
0.000318822
0.000322786
0.000326313
0.000329521
0.000332528
0.000335455
0.00033843
0.000341584
0.000345061
0.000349011
0.000353599
0.000359019
0.000365504
0.000373333
0.000382862
0.000394536
0.000408901
0.000426571
0.000448156
0.000474138
0.000504736
0.000539813
0.000578837
0.00062093
0.000665154
0.000710628
0.000756507
0.000802036
0.00084658
0.000889653
0.000930892
0.000970032
0.00100689
0.00104135
0.00107335
0.00110288
0.00112995
0.00115458
0.00117686
0.00119688
0.00121474
0.00123057
1.4043e-09
1.49731e-07
1.12936e-06
3.8255e-06
8.04786e-06
1.30812e-05
1.84905e-05
2.40243e-05
2.95267e-05
3.48972e-05
4.00719e-05
4.5014e-05
4.97072e-05
5.41516e-05
5.83596e-05
6.23539e-05
6.61645e-05
6.98272e-05
7.33816e-05
7.68698e-05
8.0325e-05
8.37883e-05
8.72981e-05
9.08886e-05
9.45887e-05
9.84244e-05
0.000102417
0.000106583
0.000110934
0.000115473
0.0001202
0.000125107
0.000130177
0.000135383
0.000140685
0.000146028
0.000151338
0.000156516
0.000161431
0.000165918
0.000169793
0.000172769
0.000174627
0.000175487
0.000175461
0.000175192
0.000174869
0.000174579
0.000174168
0.000173732
0.000173475
0.00017359
0.000174286
0.000175737
0.000178062
0.000181348
0.000185616
0.00019083
0.000196928
0.000203794
0.000211276
0.000219233
0.000227492
0.000235899
0.000244328
0.000252673
0.000260848
0.000268784
0.000276419
0.000283705
0.000290597
0.000297063
0.000303081
0.000308634
0.000313619
0.000317979
0.000321811
0.000325239
0.000328381
0.000331362
0.000334313
0.000337374
0.000340695
0.000344443
0.000348804
0.000353991
0.000360267
0.000367957
0.000377469
0.000389313
0.000404093
0.000422466
0.000445035
0.000472217
0.000504113
0.000540428
0.000580424
0.000623137
0.000667639
0.00071302
0.000758449
0.000803217
0.000846748
0.000888594
0.000928427
0.000966011
0.00100119
0.00103389
0.00106406
0.00109172
0.00111691
0.00113969
0.00116011
0.00117827
0.00119431
0.00120833
1.59223e-09
1.69235e-07
1.245e-06
4.13152e-06
8.57264e-06
1.38196e-05
1.94192e-05
2.51084e-05
3.07248e-05
3.61655e-05
4.1368e-05
4.62984e-05
5.09454e-05
5.53147e-05
5.94252e-05
6.33056e-05
6.69922e-05
7.05256e-05
7.39496e-05
7.73086e-05
8.06467e-05
8.40067e-05
8.74303e-05
9.09564e-05
9.46077e-05
9.84149e-05
0.000102403
0.000106588
0.000110983
0.000115597
0.000120431
0.000125485
0.000130748
0.000136208
0.000141841
0.000147616
0.00015349
0.000159406
0.000165289
0.000171043
0.000176547
0.000181646
0.000186165
0.000189899
0.000192485
0.000194051
0.000194698
0.000194744
0.000194747
0.000194808
0.000194924
0.000194963
0.000195059
0.000195378
0.000196069
0.000197293
0.000199175
0.000201792
0.000205188
0.000209376
0.000214319
0.000219937
0.000226155
0.000232866
0.000239945
0.000247287
0.000254755
0.000262225
0.000269592