/*--------------------------------*- C++ -*----------------------------------*\
  =========                 |
  \\      /  F ield         | OpenFOAM: The Open Source CFD Toolbox
   \\    /   O peration     | Website:  https://openfoam.org
    \\  /    A nd           | Version:  10
     \\/     M anipulation  |
\*---------------------------------------------------------------------------*/
FoamFile
{
    format      ascii;
    class       volVectorField;
    location    "62000";
    object      U;
}
// * * * * * * * * * * * * * * * * * * * * * * * * * * * * * * * * * * * * * //

dimensions      [0 1 -1 0 0 0 0];

internalField   nonuniform List<vector> 
17969
(
(0.108045 1.52913 0)
(-0.0403008 1.56968 0)
(-0.0201256 1.58917 -4.83975e-18)
(-0.0176539 1.61103 5.83547e-18)
(-0.014806 1.63562 -2.14135e-18)
(-0.00934589 1.6652 -1.90058e-18)
(-0.000418049 1.7028 1.6901e-18)
(0.0134089 1.75356 0)
(0.0332235 1.82125 8.95072e-20)
(0.0584187 1.90336 0)
(0.0875382 1.9933 0)
(0.118635 2.08353 0)
(0.149522 2.1675 0)
(0.178475 2.24097 -6.22458e-19)
(0.204317 2.30224 5.70822e-19)
(0.226146 2.35111 0)
(0.244174 2.38947 -4.24511e-19)
(0.258817 2.41954 3.90513e-19)
(0.270429 2.44321 -3.57099e-19)
(0.279532 2.46223 3.29492e-19)
(0.28674 2.47793 0)
(0.292503 2.4913 0)
(0.297192 2.50307 -3.18547e-20)
(0.301099 2.51377 0)
(0.304441 2.52374 0)
(0.307375 2.53321 1.97546e-19)
(0.310011 2.54232 -3.66309e-19)
(0.312422 2.55115 1.70422e-19)
(0.314654 2.55977 1.57761e-19)
(0.316736 2.56821 -1.94441e-20)
(0.318687 2.57651 -1.73917e-19)
(0.320518 2.58469 0)
(0.322237 2.59277 1.22873e-19)
(0.323847 2.60076 -2.62859e-19)
(0.325351 2.60869 8.31894e-22)
(0.326749 2.61658 2.11309e-19)
(0.32804 2.62442 -1.01259e-19)
(0.329223 2.63224 -1.20238e-19)
(0.330295 2.64005 6.96789e-20)
(0.331253 2.64786 0)
(0.332096 2.65569 2.13859e-20)
(0.332818 2.66354 2.05889e-20)
(0.333416 2.67142 1.5751e-19)
(0.333887 2.67935 -1.53569e-19)
(0.334225 2.68734 -1.46711e-19)
(0.334428 2.69539 -3.41105e-20)
(0.334489 2.70353 1.38768e-19)
(0.334406 2.71175 1.32679e-19)
(0.334172 2.72008 -1.69231e-21)
(0.333783 2.72851 -1.26154e-19)
(0.333233 2.73707 -1.51066e-19)
(0.332518 2.74575 1.48214e-19)
(0.331632 2.75458 0)
(0.330568 2.76356 0)
(0.329321 2.7727 2.69941e-20)
(0.327885 2.78201 1.5587e-19)
(0.326253 2.79149 -1.02281e-19)
(0.324417 2.80117 0)
(0.322372 2.81103 0)
(0.320108 2.8211 4.51031e-20)
(0.31762 2.83138 -9.08828e-20)
(0.314899 2.84188 0)
(0.311936 2.85261 0)
(0.308724 2.86356 -4.11426e-20)
(0.305255 2.87476 -7.82078e-20)
(0.30152 2.8862 4.09259e-20)
(0.29751 2.89789 7.55225e-20)
(0.293218 2.90983 0)
(0.288636 2.92203 0)
(0.283757 2.9345 0)
(0.278572 2.94724 6.3231e-20)
(0.273075 2.96025 -4.55749e-21)
(0.267261 2.97354 -1.22428e-19)
(0.261123 2.98711 0)
(0.254749 3.00078 5.44209e-20)
(0.24833 3.01418 5.11127e-20)
(0.241973 3.02713 -4.75987e-20)
(0.235681 3.03967 0)
(0.229482 3.05182 0)
(0.22337 3.06355 0)
(0.217337 3.0748 0)
(0.21141 3.08562 0)
(0.205589 3.09602 5.81924e-20)
(0.199874 3.10604 -9.72785e-20)
(0.194262 3.11568 6.60142e-20)
(0.18875 3.12498 -1.17842e-20)
(0.183337 3.13395 0)
(0.178035 3.14265 0)
(0.172875 3.1512 0)
(0.167894 3.15976 -2.02746e-20)
(0.163109 3.16842 2.68818e-20)
(0.158459 3.17706 2.07177e-20)
(0.153893 3.18557 -2.04648e-20)
(0.149407 3.19393 1.49808e-20)
(0.144996 3.20215 -2.88456e-20)
(0.140657 3.2102 1.07596e-20)
(0.136388 3.21808 0)
(0.132187 3.22578 -5.12959e-21)
(0.128052 3.23327 5.04786e-21)
(0.123982 3.24053 2.68065e-22)
(0.0795278 1.53475 0)
(-0.0805905 1.576 -2.18018e-17)
(-0.057731 1.58488 1.2231e-17)
(-0.0570373 1.59808 2.23305e-19)
(-0.0563364 1.61362 9.90078e-18)
(-0.0544669 1.63188 -1.60725e-17)
(-0.0510982 1.65423 7.24728e-18)
(-0.0455303 1.68214 6.7098e-18)
(-0.0371587 1.71679 -6.22894e-18)
(-0.0249529 1.7611 -5.90998e-18)
(-0.00775247 1.81837 1.13492e-20)
(0.0144766 1.88834 4.62406e-18)
(0.0408718 1.96725 0)
(0.0700707 2.0496 0)
(0.100386 2.13001 -2.94781e-18)
(0.130058 2.20411 2.58802e-18)
(0.157762 2.26912 0)
(0.182509 2.32399 -1.89549e-18)
(0.203615 2.36869 1.74503e-18)
(0.22124 2.4047 0)
(0.235771 2.43368 -1.42241e-18)
(0.247425 2.45707 1.24076e-18)
(0.256688 2.47628 3.81825e-20)
(0.264065 2.49237 0)
(0.269967 2.50619 1.04793e-18)
(0.274737 2.51838 -6.60637e-20)
(0.278655 2.52943 -1.80104e-18)
(0.281938 2.53971 8.3662e-19)
(0.284752 2.54944 -4.84742e-20)
(0.287216 2.55879 7.39467e-19)
(0.289414 2.56786 -6.30436e-19)
(0.291402 2.57672 0)
(0.293214 2.58541 5.11073e-19)
(0.294875 2.59397 -4.4978e-19)
(0.296399 2.60243 0)
(0.297794 2.61081 6.15552e-20)
(0.299065 2.61913 -5.83476e-20)
(0.300216 2.62742 -4.12981e-19)
(0.301245 2.63568 8.69006e-19)
(0.302152 2.64393 -5.4022e-20)
(0.302934 2.65218 -4.10417e-19)
(0.303589 2.66046 -4.35889e-19)
(0.304113 2.66876 7.07224e-19)
(0.304502 2.67711 -7.64814e-19)
(0.304751 2.6855 6.53901e-19)
(0.304855 2.69397 -2.77487e-19)
(0.304809 2.7025 3.01881e-19)
(0.304609 2.71113 -6.59707e-19)
(0.304247 2.71985 5.66194e-19)
(0.303718 2.72868 -5.47261e-19)
(0.303017 2.73764 2.33082e-19)
(0.302136 2.74672 -3.19024e-20)
(0.301069 2.75594 0)
(0.299809 2.76531 0)
(0.298348 2.77484 -2.89653e-20)
(0.296679 2.78454 -5.61252e-20)
(0.294794 2.79442 2.16339e-19)
(0.292684 2.80449 -3.1996e-19)
(0.290342 2.81475 -4.06013e-19)
(0.287757 2.82522 5.80613e-20)
(0.284921 2.8359 3.89611e-19)
(0.281824 2.8468 4.62516e-19)
(0.278456 2.85793 -4.56898e-19)
(0.274807 2.8693 4.35555e-20)
(0.270867 2.88091 0)
(0.266625 2.89276 4.15985e-20)
(0.262071 2.90487 3.11824e-19)
(0.257195 2.91723 -3.11344e-19)
(0.251986 2.92985 -1.48627e-19)
(0.246434 2.94274 -1.36172e-19)
(0.24053 2.95589 2.80343e-19)
(0.234265 2.96932 1.98675e-19)
(0.22763 2.98302 2.47878e-19)
(0.220618 2.99701 -2.48875e-19)
(0.213327 3.01108 -5.70977e-20)
(0.205976 3.02485 -5.36662e-20)
(0.198687 3.03816 5.01078e-20)
(0.191467 3.05105 9.40012e-20)
(0.184346 3.06354 2.54967e-19)
(0.177314 3.07559 -1.03241e-20)
(0.17037 3.08715 -1.56167e-19)
(0.16354 3.09826 -3.55017e-20)
(0.156825 3.10894 0)
(0.150224 3.11923 1.54906e-20)
(0.14374 3.12916 -1.37251e-20)
(0.137373 3.13874 1.25509e-20)
(0.131116 3.14799 0)
(0.124969 3.15695 0)
(0.118937 3.16565 -1.41304e-19)
(0.113042 3.1742 5.66602e-21)
(0.107318 3.18277 1.19318e-19)
(0.101801 3.19148 0)
(0.0964374 3.20024 0)
(0.0911618 3.20889 6.56498e-20)
(0.085978 3.21739 -1.17262e-19)
(0.0808807 3.22573 5.81481e-20)
(0.0758687 3.23391 0)
(0.070941 3.2419 0)
(0.0660971 3.24969 -1.30925e-20)
(0.0613368 3.25726 7.42728e-21)
(0.0495866 1.54004 4.12093e-17)
(-0.118775 1.58293 -5.15068e-17)
(-0.0934674 1.58602 6.47322e-17)
(-0.0937865 1.59368 -1.9427e-17)
(-0.0942225 1.60381 3.82474e-19)
(-0.0939554 1.61568 0)
(-0.0929215 1.6299 2.61835e-19)
(-0.0909085 1.6475 0)
(-0.0876065 1.66927 0)
(-0.0824697 1.69568 4.04577e-19)
(-0.0748834 1.72736 1.80851e-19)
(-0.0641825 1.76606 0)
(-0.0494022 1.81434 0)
(-0.0299669 1.87351 2.75614e-19)
(-0.00633233 1.94198 -3.87924e-18)
(0.0206659 2.01622 3.06289e-18)
(0.0497525 2.09195 -2.73359e-18)
(0.0794485 2.16517 2.54112e-18)
(0.108281 2.23261 -6.9131e-20)
(0.135122 2.29214 -2.06409e-18)
(0.159172 2.34295 1.61518e-18)
(0.179819 2.38509 1.93103e-19)
(0.197229 2.41972 8.90325e-20)
(0.211728 2.44813 0)
(0.22349 2.47151 0)
(0.232929 2.49101 1.22011e-18)
(0.240488 2.50754 -9.4252e-19)
(0.246538 2.52183 -1.2551e-19)
(0.251403 2.53446 -7.55844e-19)
(0.25535 2.54591 8.72867e-19)
(0.258597 2.55654 0)
(0.261316 2.56659 0)
(0.263636 2.57624 8.80919e-20)
(0.265647 2.5856 1.23427e-18)
(0.267414 2.59475 -2.47648e-18)
(0.268976 2.60375 1.09495e-18)
(0.270361 2.61264 6.82698e-20)
(0.271586 2.62145 -1.29563e-19)
(0.27266 2.63021 1.226e-19)
(0.273588 2.63894 5.78188e-20)
(0.274374 2.64766 0)
(0.275015 2.65638 5.23483e-20)
(0.275512 2.66513 1.00517e-19)
(0.275861 2.67391 -6.66993e-19)
(0.276057 2.68273 7.937e-21)
(0.276098 2.69162 7.96355e-19)
(0.275976 2.70057 0)
(0.275688 2.70961 -5.43159e-22)
(0.275226 2.71875 -1.57032e-19)
(0.274585 2.72799 0)
(0.273757 2.73736 7.24432e-20)
(0.272736 2.74685 -5.5713e-19)
(0.271513 2.75647 5.46063e-19)
(0.270081 2.76626 0)
(0.268431 2.7762 1.2705e-19)
(0.266554 2.78631 0)
(0.264441 2.7966 -1.18856e-19)
(0.262083 2.80708 -4.54533e-19)
(0.259469 2.81776 4.47618e-19)
(0.256589 2.82865 1.07701e-19)
(0.253432 2.83976 0)
(0.249986 2.85109 -4.96607e-19)
(0.24624 2.86265 1.06855e-18)
(0.242181 2.87446 -9.93527e-21)
(0.237797 2.8865 -1.9273e-19)
(0.233076 2.8988 -9.77216e-20)
(0.228005 2.91135 -6.7804e-19)
(0.22257 2.92416 1.09976e-20)
(0.216759 2.93724 6.37157e-19)
(0.21056 2.95058 1.82635e-21)
(0.203959 2.96419 0)
(0.196946 2.97807 4.11161e-19)
(0.189509 2.99222 1.10509e-19)
(0.181638 3.00665 -5.3034e-19)
(0.173442 3.02116 0)
(0.165166 3.03535 0)
(0.156946 3.04905 -1.08824e-19)
(0.148799 3.06232 2.89256e-19)
(0.140752 3.07517 -8.36812e-19)
(0.132796 3.08757 6.97347e-19)
(0.124932 3.09947 -4.19654e-19)
(0.117187 3.1109 -2.56607e-19)
(0.109561 3.1219 2.93259e-19)
(0.102055 3.13249 -2.84902e-19)
(0.0946733 3.14271 4.8285e-19)
(0.0874169 3.15258 -2.30187e-19)
(0.0802851 3.16213 1.92906e-19)
(0.0732741 3.17139 -3.64822e-19)
(0.0663804 3.18038 1.58182e-20)
(0.0596057 3.18914 1.5037e-20)
(0.0529642 3.19777 1.49958e-19)
(0.0464851 3.20642 0)
(0.0402074 3.21524 8.61091e-20)
(0.0340929 3.22413 -1.56435e-19)
(0.0280787 3.23292 2.8712e-21)
(0.0221672 3.24156 7.48619e-21)
(0.0163617 3.25002 4.82624e-21)
(0.0106602 3.25831 5.70695e-21)
(0.0050622 3.26639 2.2334e-20)
(-0.000432412 3.27426 7.10776e-22)
(0.0179997 1.54368 -1.32488e-18)
(-0.155059 1.58677 -1.12923e-16)
(-0.128095 1.58809 1.03271e-19)
(-0.128763 1.59284 1.53395e-18)
(-0.129744 1.59999 2.96122e-17)
(-0.1303 1.60838 2.19148e-17)
(-0.130477 1.61809 -3.24404e-19)
(-0.130168 1.62965 -1.73648e-17)
(-0.129162 1.64374 0)
(-0.127227 1.66098 1.47187e-17)
(-0.124121 1.68181 -1.34925e-17)
(-0.119466 1.70659 0)
(-0.112671 1.73564 0)
(-0.103346 1.76987 -3.11278e-19)
(-0.0907369 1.81118 2.87546e-19)
(-0.073997 1.8615 2.64119e-19)
(-0.0531865 1.92068 7.35818e-18)
(-0.0287534 1.98689 -6.73267e-18)
(-0.00151178 2.05707 0)
(0.0273457 2.1277 1.6084e-19)
(0.0564952 2.19561 4.93989e-18)
(0.08465 2.25818 -8.10657e-18)
(0.110846 2.31368 3.43469e-18)
(0.134343 2.36145 1.97556e-19)
(0.154652 2.40166 2.85585e-18)
(0.171939 2.43525 -2.65961e-18)
(0.186454 2.46325 -2.62957e-18)
(0.198349 2.48666 2.62232e-18)
(0.207988 2.50645 6.33046e-22)
(0.215754 2.5234 -2.03932e-18)
(0.22199 2.53813 1.92364e-18)
(0.226995 2.55122 0)
(0.231025 2.5631 0)
(0.234295 2.57413 -1.57202e-18)
(0.236978 2.58456 1.66893e-18)
(0.239205 2.59459 -1.38112e-18)
(0.241076 2.60433 1.30643e-18)
(0.242656 2.61387 -1.0659e-18)
(0.243992 2.62328 -1.3392e-19)
(0.245113 2.6326 9.49024e-21)
(0.246038 2.64187 2.05443e-18)
(0.246779 2.65111 -1.94592e-18)
(0.247342 2.66035 8.12885e-19)
(0.247729 2.66961 0)
(0.247941 2.6789 0)
(0.247976 2.68824 -9.94858e-20)
(0.24783 2.69764 -7.58829e-19)
(0.2475 2.70713 6.42817e-19)
(0.24698 2.7167 -5.2155e-19)
(0.246265 2.72638 8.45501e-19)
(0.245346 2.73617 8.03756e-19)
(0.244218 2.74609 -7.81846e-19)
(0.242872 2.75615 0)
(0.241299 2.76636 -4.27119e-19)
(0.23949 2.77673 5.61354e-19)
(0.237436 2.78727 0)
(0.235125 2.798 1.28766e-19)
(0.232548 2.80892 1.24299e-19)
(0.229693 2.82004 -2.42252e-19)
(0.226548 2.83137 -1.15915e-19)
(0.223099 2.84293 2.26099e-19)
(0.219335 2.85471 8.59152e-19)
(0.21524 2.86673 -1.05907e-18)
(0.210802 2.87899 8.00509e-19)
(0.206005 2.89151 -1.17481e-18)
(0.200834 2.90428 7.67237e-19)
(0.195274 2.91731 -9.0173e-19)
(0.18931 2.93061 8.92408e-19)
(0.182925 2.94417 -1.68573e-19)
(0.176103 2.958 -8.03204e-19)
(0.16883 2.9721 6.41421e-19)
(0.16109 2.98647 0)
(0.152868 3.00112 -1.44082e-19)
(0.14415 3.01604 0)
(0.135057 3.03103 0)
(0.125859 3.04567 0)
(0.116711 3.0598 5.66111e-19)
(0.107632 3.07346 -4.44769e-19)
(0.0986532 3.08672 -2.02819e-19)
(0.0897671 3.0995 -1.90424e-19)
(0.0809687 3.11178 8.77806e-20)
(0.0722904 3.12358 -8.36406e-20)
(0.0637333 3.13493 -2.9778e-19)
(0.0552977 3.14586 2.96675e-19)
(0.0469877 3.1564 2.54102e-19)
(0.0388062 3.16659 -1.9457e-20)
(0.0307546 3.17646 -6.5473e-19)
(0.0228328 3.18604 3.59066e-20)
(0.0150384 3.19535 3.78211e-19)
(0.00736798 3.20443 -4.07871e-20)
(-0.000178591 3.21332 1.84799e-20)
(-0.0075932 3.22209 -2.30339e-19)
(-0.0148537 3.2309 2.21577e-19)
(-0.0219161 3.23987 -1.11131e-20)
(-0.0288122 3.24891 8.90954e-21)
(-0.0355927 3.25783 1.00482e-19)
(-0.0422487 3.26656 -1.8506e-19)
(-0.0487732 3.27512 8.73443e-20)
(-0.0551709 3.28348 4.03985e-20)
(-0.0614438 3.29163 -6.06735e-20)
(-0.0675924 3.29954 2.20133e-20)
(-0.0736158 3.30718 -1.89431e-21)
(-0.0795126 3.31453 -3.08002e-20)
(-0.0852796 3.32155 2.99226e-20)
(-0.0141147 1.54586 8.94409e-17)
(-0.189872 1.58804 0)
(-0.161943 1.58933 8.94116e-17)
(-0.16267 1.5928 7.93041e-19)
(-0.163893 1.59849 -7.05969e-17)
(-0.164848 1.60515 5.07822e-17)
(-0.16563 1.61261 -1.97184e-17)
(-0.166211 1.62103 0)
(-0.166475 1.63076 1.7711e-17)
(-0.166254 1.64231 -3.30097e-17)
(-0.165365 1.65614 1.50956e-17)
(-0.16361 1.67274 -4.50891e-19)
(-0.160764 1.69253 1.32145e-17)
(-0.156588 1.71579 -2.40712e-17)
(-0.150644 1.74267 1.04511e-17)
(-0.142493 1.77377 -6.01647e-19)
(-0.131695 1.81023 8.77324e-18)
(-0.117505 1.85364 -7.60639e-18)
(-0.0994278 1.90494 0)
(-0.0776873 1.96351 6.66151e-18)
(-0.0527433 2.0275 -6.67541e-18)
(-0.0254219 2.09421 -3.27284e-19)
(0.00316401 2.16069 0)
(0.0317995 2.2243 -5.10944e-19)
(0.0593436 2.28286 0)
(0.0849712 2.33498 3.03446e-18)
(0.107972 2.38016 1.67924e-19)
(0.127998 2.41869 -3.01718e-18)
(0.145225 2.45135 -1.55559e-19)
(0.159809 2.47893 0)
(0.171894 2.50234 0)
(0.181795 2.52238 0)
(0.189842 2.53971 -1.70267e-18)
(0.196344 2.55492 1.84603e-18)
(0.20157 2.5685 -2.15888e-19)
(0.205761 2.5809 1.62346e-18)
(0.209122 2.59244 -1.34685e-18)
(0.211825 2.60338 1.43702e-18)
(0.214003 2.61392 -1.36384e-18)
(0.215757 2.62418 0)
(0.21716 2.63425 1.50362e-18)
(0.218262 2.6442 -1.14425e-18)
(0.219098 2.65409 8.01406e-19)
(0.219689 2.66394 -7.68821e-19)
(0.220051 2.67379 2.42497e-19)
(0.220192 2.68366 -2.30355e-19)
(0.220116 2.69358 0)
(0.219823 2.70356 -1.48879e-21)
(0.219314 2.71361 0)
(0.218584 2.72376 1.31959e-18)
(0.217628 2.73402 -1.64413e-18)
(0.216442 2.7444 1.73396e-19)
(0.215017 2.75492 -1.32581e-18)
(0.213345 2.76558 1.13283e-18)
(0.211418 2.7764 -1.53437e-19)
(0.209224 2.7874 0)
(0.206753 2.79859 0)
(0.203993 2.80996 -1.08839e-18)
(0.200931 2.82155 2.84364e-19)
(0.197555 2.83335 1.03087e-18)
(0.19385 2.84537 7.28114e-19)
(0.189801 2.85764 -9.5944e-19)
(0.185392 2.87014 0)
(0.180608 2.8829 0)
(0.175431 2.89591 -2.11488e-19)
(0.169844 2.90918 0)
(0.163828 2.92272 -2.01174e-19)
(0.157364 2.93654 5.59697e-19)
(0.150434 2.95063 -7.46092e-19)
(0.143018 2.96499 3.55203e-19)
(0.135097 2.97963 3.41627e-19)
(0.12665 2.99454 3.28262e-19)
(0.117661 3.00972 0)
(0.10811 3.02518 2.81042e-19)
(0.0981268 3.04069 -2.96041e-19)
(0.0880083 3.05583 5.19843e-19)
(0.0779274 3.07042 -2.62722e-19)
(0.0679046 3.08453 9.10343e-19)
(0.0579854 3.09821 -5.61971e-20)
(0.0481595 3.11142 1.52338e-19)
(0.0384093 3.12412 -7.96347e-19)
(0.028774 3.13632 6.05933e-19)
(0.0192568 3.14806 -5.27845e-19)
(0.00985883 3.15938 0)
(0.00058462 3.1703 7.33822e-20)
(-0.00856211 3.18085 5.12685e-19)
(-0.0175789 3.19108 -1.02495e-19)
(-0.026464 3.201 -3.90875e-20)
(-0.0352166 3.21066 -4.17967e-19)
(-0.0438373 3.22008 -1.27355e-21)
(-0.0523274 3.2293 2.19024e-19)
(-0.0606858 3.23836 -2.90099e-19)
(-0.0689083 3.24734 2.19453e-19)
(-0.0769822 3.25635 -2.23486e-19)
(-0.0848445 3.26551 1.49513e-19)
(-0.0925322 3.27466 -1.37891e-19)
(-0.100094 3.28364 0)
(-0.107491 3.29244 0)
(-0.114734 3.30106 5.16875e-20)
(-0.121831 3.30946 -4.46571e-20)
(-0.128783 3.31764 8.85492e-22)
(-0.135589 3.32555 -2.66937e-22)
(-0.142248 3.33315 -2.86709e-20)
(-0.148753 3.34042 2.77997e-20)
(-0.0460775 1.54697 -4.075e-18)
(-0.223532 1.58763 2.61795e-16)
(-0.195074 1.58947 -1.9594e-16)
(-0.195837 1.5924 6.02992e-17)
(-0.197188 1.59741 0)
(-0.198354 1.60326 0)
(-0.199455 1.60967 -1.34761e-18)
(-0.200493 1.61664 -1.8388e-17)
(-0.201414 1.62428 3.32831e-17)
(-0.202143 1.63282 -1.63264e-17)
(-0.202546 1.6426 0)
(-0.202508 1.65401 2.34e-23)
(-0.201841 1.66747 -4.66482e-19)
(-0.200364 1.6834 0)
(-0.197883 1.70222 8.02224e-19)
(-0.194214 1.72423 7.32499e-19)
(-0.189059 1.74956 -6.6195e-19)
(-0.181981 1.77843 -5.88471e-19)
(-0.172682 1.81151 0)
(-0.160628 1.84995 0)
(-0.14514 1.89493 4.49639e-19)
(-0.126057 1.94666 -5.79653e-22)
(-0.103629 2.00438 3.70591e-19)
(-0.0783422 2.06625 -7.20763e-22)
(-0.051039 2.12982 0)
(-0.0227609 2.19259 -2.62431e-19)
(0.00537747 2.25231 -6.99249e-19)
(0.0323706 2.3072 -2.09804e-19)
(0.0575175 2.35619 0)
(0.0801271 2.39898 0)
(0.0999796 2.43593 -3.15214e-19)
(0.117255 2.46766 2.95474e-19)
(0.132014 2.49483 1.65853e-18)
(0.144387 2.51825 -2.76738e-19)
(0.154635 2.53859 -2.61984e-19)
(0.163038 2.5564 -2.11208e-18)
(0.169866 2.57219 -1.75961e-18)
(0.175361 2.58643 2.09486e-18)
(0.179745 2.5995 -1.57047e-18)
(0.183215 2.61173 1.49544e-18)
(0.185939 2.62336 -3.50507e-19)
(0.188053 2.63458 0)
(0.189664 2.64552 2.81152e-18)
(0.190849 2.65627 -2.38398e-18)
(0.191665 2.66691 -2.79932e-19)
(0.192153 2.6775 2.65174e-19)
(0.19234 2.68806 2.5328e-19)
(0.192243 2.69865 -1.42648e-18)
(0.191874 2.70928 1.83391e-18)
(0.19124 2.71997 0)
(0.190341 2.73076 -4.15241e-19)
(0.189177 2.74165 0)
(0.187745 2.75267 0)
(0.186038 2.76383 -3.62488e-19)
(0.184049 2.77514 0)
(0.181769 2.78663 -3.32892e-19)
(0.179186 2.7983 3.19444e-19)
(0.17629 2.81017 -1.2098e-18)
(0.173067 2.82224 1.47958e-18)
(0.169503 2.83454 1.11645e-18)
(0.165582 2.84706 -1.36942e-18)
(0.161289 2.85983 5.24845e-19)
(0.156606 2.87285 4.87417e-19)
(0.151514 2.88612 -9.79513e-19)
(0.145995 2.89966 9.18466e-19)
(0.140027 2.91348 -9.09099e-19)
(0.133591 2.92757 4.28725e-19)
(0.126662 2.94193 8.16503e-19)
(0.119219 2.95659 -8.12134e-19)
(0.111239 2.97152 -3.81181e-19)
(0.102696 2.98674 -7.37381e-19)
(0.093567 3.00224 3.41121e-19)
(0.0838284 3.01802 9.73257e-19)
(0.0734572 3.03407 -3.53056e-19)
(0.0625903 3.05016 8.91311e-19)
(0.0515505 3.06585 -1.19151e-18)
(0.0405304 3.08095 4.73994e-21)
(0.0295496 3.09552 -7.34378e-19)
(0.0186732 3.10966 1.21466e-18)
(0.00788741 3.12334 0)
(-0.00283826 3.13651 0)
(-0.013461 3.14917 1.95966e-19)
(-0.0239732 3.16135 -8.98346e-19)
(-0.0343729 3.1731 7.14062e-19)
(-0.0446546 3.18444 5.3601e-19)
(-0.0548135 3.19541 -4.62602e-19)
(-0.0648463 3.20604 4.46885e-19)
(-0.0747502 3.21635 -4.49382e-19)
(-0.0845221 3.22639 -5.6083e-20)
(-0.0941586 3.23618 4.87053e-20)
(-0.103656 3.24576 4.3026e-20)
(-0.113009 3.25517 0)
(-0.122217 3.26444 0)
(-0.131281 3.27364 2.71092e-20)
(-0.140153 3.28288 2.34079e-20)
(-0.148814 3.29216 1.36607e-19)
(-0.157299 3.30133 -2.55652e-20)
(-0.165615 3.31035 -1.18081e-19)
(-0.173751 3.3192 5.67549e-20)
(-0.181721 3.32785 -5.80347e-20)
(-0.189529 3.33628 -1.19807e-20)
(-0.197175 3.34445 1.1622e-20)
(-0.204651 3.35231 -2.50981e-20)
(-0.211952 3.35981 -1.7239e-20)
(-0.0774069 1.54734 -9.0071e-17)
(-0.256207 1.58629 1.36656e-16)
(-0.227417 1.58885 -2.09757e-16)
(-0.22822 1.5915 6.73895e-17)
(-0.229657 1.59616 1.34591e-18)
(-0.230952 1.60161 -2.98628e-17)
(-0.232236 1.60752 4.63055e-17)
(-0.233525 1.61383 -1.88439e-17)
(-0.234792 1.62056 1.71125e-17)
(-0.236 1.62777 -1.55033e-17)
(-0.237113 1.63561 0)
(-0.238031 1.64429 4.69139e-19)
(-0.238661 1.65409 -1.54042e-17)
(-0.238892 1.66535 1.47949e-17)
(-0.238555 1.67846 -8.94794e-19)
(-0.237461 1.69382 -1.34927e-17)
(-0.235446 1.71183 1.33308e-17)
(-0.232317 1.7328 1.22091e-17)
(-0.227877 1.7569 -2.66921e-20)
(-0.221824 1.78413 -9.36741e-18)
(-0.213728 1.81493 -5.21981e-19)
(-0.203394 1.84991 4.70633e-19)
(-0.190244 1.89 -1.30452e-18)
(-0.173649 1.93606 -4.03319e-19)
(-0.153729 1.98784 -6.60515e-18)
(-0.130743 2.04439 5.98411e-18)
(-0.10521 2.10394 -1.42905e-21)
(-0.0779634 2.16432 5.31676e-19)
(-0.0499783 2.22341 -4.77372e-19)
(-0.0222779 2.27939 4.2856e-19)
(0.00425375 2.33079 3.46147e-18)
(0.0290255 2.37687 -3.1474e-18)
(0.0513486 2.41749 3.18079e-19)
(0.0711145 2.45304 -1.45931e-21)
(0.0885113 2.48402 2.78872e-19)
(0.103489 2.51097 2.63327e-19)
(0.116171 2.53459 -4.23218e-18)
(0.126772 2.5554 3.18645e-20)
(0.135526 2.57386 4.05173e-18)
(0.142659 2.59043 0)
(0.148389 2.60549 0)
(0.152923 2.61942 0)
(0.156451 2.63251 -3.23923e-18)
(0.159142 2.64499 2.75349e-18)
(0.161132 2.65704 0)
(0.162533 2.6688 0)
(0.163427 2.68037 -2.60736e-18)
(0.163879 2.69183 1.94779e-18)
(0.163934 2.70324 2.08555e-18)
(0.163624 2.71465 -2.00606e-18)
(0.16297 2.72609 4.72084e-19)
(0.161985 2.7376 0)
(0.160678 2.74921 0)
(0.159048 2.76094 8.2017e-19)
(0.157096 2.77281 1.55363e-18)
(0.154815 2.78483 -1.13658e-18)
(0.152198 2.79704 -3.56289e-19)
(0.149235 2.80944 0)
(0.145914 2.82204 -1.62752e-18)
(0.142221 2.83487 2.54958e-20)
(0.13814 2.84793 1.52157e-18)
(0.133655 2.86123 -1.15992e-18)
(0.128746 2.8748 5.53806e-19)
(0.123394 2.88862 0)
(0.117578 2.90273 0)
(0.111273 2.91711 4.76676e-19)
(0.104457 2.93179 -2.85668e-20)
(0.0971035 2.94675 -2.92374e-20)
(0.089185 2.96201 -4.4969e-19)
(0.0806737 2.97757 0)
(0.0715404 2.99342 8.06645e-19)
(0.0617556 3.00956 7.79135e-19)
(0.0512896 3.02598 -1.11381e-18)
(0.0401138 3.04269 -7.00123e-19)
(0.0283715 3.05943 0)
(0.01641 3.07573 -1.87045e-18)
(0.00443989 3.09139 1.52863e-18)
(-0.0075117 3.10648 5.21673e-21)
(-0.0193814 3.12109 -2.63419e-19)
(-0.0311674 3.13529 2.47302e-19)
(-0.042893 3.14897 2.33279e-19)
(-0.0545389 3.16215 0)
(-0.0660882 3.17483 0)
(-0.0775359 3.18706 0)
(-0.0888762 3.19888 -6.77703e-19)
(-0.100103 3.21032 -1.10247e-19)
(-0.111213 3.2214 1.33729e-18)
(-0.122201 3.23216 -6.31909e-19)
(-0.13306 3.24262 -4.06806e-19)
(-0.14378 3.25282 4.58875e-19)
(-0.15435 3.26278 0)
(-0.164755 3.27253 3.19257e-19)
(-0.174985 3.28211 -3.0893e-19)
(-0.18505 3.29157 0)
(-0.194915 3.30098 -5.12088e-20)
(-0.204549 3.31037 -1.53763e-19)
(-0.213999 3.3197 1.50102e-19)
(-0.223275 3.32891 -9.45225e-20)
(-0.232362 3.33799 9.14038e-20)
(-0.241276 3.34689 0)
(-0.250016 3.35559 -2.20928e-20)
(-0.258576 3.36402 1.75315e-20)
(-0.266945 3.37213 2.11428e-20)
(-0.27511 3.37985 -6.04114e-20)
(-0.283056 3.38715 4.15765e-20)
(-0.107916 1.54709 2.86633e-18)
(-0.287957 1.58425 0)
(-0.258877 1.5875 -1.05264e-16)
(-0.259677 1.58993 7.19783e-17)
(-0.261151 1.59438 -1.01233e-22)
(-0.262509 1.59961 -1.0027e-18)
(-0.263885 1.60528 0)
(-0.2653 1.61129 -1.89616e-17)
(-0.266738 1.61762 1.73188e-17)
(-0.268184 1.62429 0)
(-0.269618 1.63134 8.84188e-19)
(-0.27101 1.63884 0)
(-0.27233 1.64693 8.67337e-23)
(-0.273483 1.6558 -1.38961e-17)
(-0.274394 1.66567 2.79481e-17)
(-0.274924 1.67686 -1.39505e-17)
(-0.274969 1.68973 1.36841e-17)
(-0.274318 1.70465 -2.78789e-17)
(-0.272803 1.722 1.22911e-17)
(-0.270258 1.74209 7.08633e-19)
(-0.266492 1.76514 -6.48577e-19)
(-0.261298 1.79117 -8.1584e-18)
(-0.254338 1.82019 9.40298e-18)
(-0.245312 1.8527 9.35439e-19)
(-0.23395 1.88933 8.47408e-19)
(-0.21971 1.93073 -7.84163e-19)
(-0.202186 1.97727 7.22972e-19)
(-0.181551 2.02849 0)
(-0.15812 2.08337 -1.31817e-21)
(-0.132452 2.14028 1.41953e-21)
(-0.105348 2.19735 -4.85839e-19)
(-0.0777162 2.25285 0)
(-0.0504906 2.30531 0)
(-0.0244288 2.35355 6.0631e-18)
(-0.000105519 2.39709 -4.57937e-18)
(0.0219207 2.43594 0)
(0.0416101 2.47043 -4.48901e-18)
(0.0590607 2.50092 7.44404e-18)
(0.0741947 2.52794 -4.54475e-18)
(0.0871122 2.55198 0)
(0.0979871 2.57345 -4.06454e-18)
(0.107007 2.59274 3.45828e-18)
(0.114363 2.61022 8.17643e-19)
(0.120249 2.62626 -3.4786e-18)
(0.12486 2.64118 2.59521e-18)
(0.128378 2.65525 0)
(0.130967 2.6687 2.64656e-18)
(0.132765 2.6817 -3.17584e-18)
(0.133883 2.69441 2.38631e-18)
(0.134411 2.70692 -1.72252e-18)
(0.134416 2.71933 -2.69837e-18)
(0.133947 2.7317 2.07601e-18)
(0.13304 2.74409 -4.92736e-19)
(0.131717 2.75654 1.38969e-18)
(0.129992 2.76908 -2.77234e-20)
(0.127873 2.78176 -1.71243e-18)
(0.125361 2.79458 0)
(0.122452 2.80758 -2.31288e-18)
(0.119139 2.82078 2.21661e-18)
(0.11541 2.83419 -1.43012e-18)
(0.111255 2.84784 0)
(0.106655 2.86173 6.45496e-19)
(0.101591 2.87589 1.8546e-18)
(0.0960433 2.89031 5.70101e-19)
(0.0899896 2.90502 -3.00513e-20)
(0.0834054 2.92002 -5.66701e-19)
(0.0762634 2.93532 2.07127e-18)
(0.0685341 2.95093 -2.04817e-18)
(0.0601865 2.96684 -9.66849e-19)
(0.0511878 2.98307 1.8195e-18)
(0.041503 2.9996 -1.3557e-18)
(0.031096 3.01644 -1.69978e-18)
(0.0199306 3.03358 2.39491e-18)
(0.00797107 3.05101 -8.04628e-19)
(-0.00463479 3.06847 0)
(-0.0175185 3.08546 -6.63229e-19)
(-0.0304531 3.10176 6.94424e-19)
(-0.0434008 3.11742 -2.11593e-18)
(-0.0563132 3.13256 1.46751e-18)
(-0.0691447 3.14728 -5.37289e-19)
(-0.0819069 3.16153 -1.23017e-18)
(-0.0946196 3.17527 6.12451e-20)
(-0.107256 3.18852 5.96647e-20)
(-0.119807 3.20129 8.62337e-19)
(-0.132267 3.21365 9.4158e-19)
(-0.144629 3.22561 -5.43429e-20)
(-0.156887 3.23721 -5.15389e-19)
(-0.169028 3.24847 1.514e-19)
(-0.181037 3.25941 -5.14876e-19)
(-0.192893 3.27004 6.27332e-19)
(-0.204575 3.28039 0)
(-0.216058 3.29047 3.5184e-19)
(-0.227331 3.30034 -6.003e-19)
(-0.23841 3.31004 2.89445e-19)
(-0.249253 3.31965 2.38279e-19)
(-0.259891 3.32922 -2.04237e-19)
(-0.270382 3.33875 1.97871e-20)
(-0.280696 3.34821 -9.25698e-20)
(-0.290831 3.35756 9.25847e-20)
(-0.300788 3.36675 8.31595e-21)
(-0.310557 3.37572 4.2353e-21)
(-0.320124 3.38442 0)
(-0.329468 3.39276 6.87719e-22)
(-0.338569 3.40068 -1.88534e-21)
(-0.347407 3.40812 -2.9488e-21)
(-0.355961 3.41502 1.29689e-19)
(-0.364213 3.42134 -1.35864e-19)
(-0.137563 1.54625 -9.33812e-17)
(-0.318775 1.58147 0)
(-0.289364 1.58529 1.17444e-16)
(-0.290102 1.5875 -7.62768e-17)
(-0.29156 1.59177 -1.54651e-18)
(-0.292924 1.59687 2.14402e-18)
(-0.294322 1.60242 2.57314e-17)
(-0.295778 1.60829 -2.12802e-17)
(-0.297279 1.61445 -1.08488e-18)
(-0.298816 1.6209 -1.61552e-17)
(-0.300382 1.62764 1.38329e-17)
(-0.301969 1.6347 8.1067e-19)
(-0.303559 1.64213 7.39411e-23)
(-0.305129 1.64999 7.83003e-19)
(-0.306637 1.65842 7.94103e-19)
(-0.308044 1.66756 1.29101e-17)
(-0.309212 1.67762 -2.91777e-20)
(-0.310085 1.68887 -1.23654e-17)
(-0.310482 1.70162 0)
(-0.310278 1.71623 -7.94047e-19)
(-0.309258 1.73306 -1.04944e-17)
(-0.307264 1.7524 9.80283e-18)
(-0.304123 1.77449 1.02801e-17)
(-0.299661 1.79944 -9.37555e-18)
(-0.293659 1.82721 0)
(-0.285789 1.8579 9.37669e-19)
(-0.275823 1.89194 0)
(-0.263475 1.92981 7.65618e-19)
(-0.248256 1.97193 1.41451e-18)
(-0.229968 2.01831 -6.51046e-19)
(-0.208823 2.06841 5.94913e-19)
(-0.185184 2.12124 -1.08353e-18)
(-0.159622 2.17536 9.81376e-19)
(-0.132886 2.22922 -7.96138e-18)
(-0.105823 2.28138 6.44724e-18)
(-0.0792602 2.33066 0)
(-0.0538248 2.37617 5.29954e-18)
(-0.0301471 2.41762 -3.67976e-18)
(-0.00856031 2.4551 0)
(0.0109584 2.48884 0)
(0.0283281 2.51914 5.05025e-19)
(0.0435008 2.54643 0)
(0.0565509 2.57104 -4.55135e-19)
(0.0676038 2.59329 0)
(0.0767994 2.61349 -2.8775e-18)
(0.0842959 2.63198 3.16239e-18)
(0.0902676 2.64908 -7.51486e-19)
(0.0948934 2.66509 7.10079e-19)
(0.0983449 2.68025 0)
(0.100777 2.69479 -6.43129e-19)
(0.102325 2.70888 6.12042e-19)
(0.103098 2.72268 5.87407e-19)
(0.103186 2.73628 -4.80047e-21)
(0.102658 2.7498 0)
(0.101564 2.7633 1.49758e-18)
(0.0999412 2.77684 -3.09258e-20)
(0.0978132 2.79046 -1.85152e-18)
(0.0951936 2.80422 8.71514e-19)
(0.0920873 2.81813 -8.24524e-19)
(0.088496 2.83224 8.09646e-19)
(0.0844153 2.84656 -1.50979e-18)
(0.0798324 2.86112 2.18338e-18)
(0.0747298 2.87593 -2.10434e-18)
(0.0690895 2.89102 -1.98152e-18)
(0.0628924 2.90639 1.29367e-18)
(0.0561143 2.92206 -6.153e-19)
(0.0487249 2.93804 -2.30655e-18)
(0.0406915 2.95434 1.14744e-18)
(0.0319804 2.97097 -4.96374e-19)
(0.0225544 2.98793 3.12324e-18)
(0.0123718 3.00521 1.50057e-20)
(0.0013894 3.02282 -1.48842e-20)
(-0.0104359 3.04075 -1.75227e-18)
(-0.0231477 3.05898 1.7035e-18)
(-0.0365962 3.07724 -2.47279e-18)
(-0.0503949 3.095 -1.48874e-18)
(-0.0643039 3.11203 2.20511e-18)
(-0.0782769 3.12837 -1.32932e-18)
(-0.0922784 3.1441 3.18209e-18)
(-0.106234 3.15934 -9.2619e-19)
(-0.120118 3.17418 1.07441e-18)
(-0.133956 3.18856 -1.07432e-18)
(-0.147735 3.20242 -1.19147e-18)
(-0.161448 3.21581 7.12222e-19)
(-0.175093 3.22876 6.07417e-19)
(-0.188659 3.24131 -1.00923e-18)
(-0.202124 3.25348 -1.76786e-19)
(-0.215466 3.26528 2.98804e-19)
(-0.228651 3.27672 -1.32549e-18)
(-0.241648 3.2878 5.54127e-19)
(-0.254434 3.29852 1.18198e-19)
(-0.266997 3.30891 0)
(-0.279343 3.31903 -4.30259e-20)
(-0.291477 3.32898 2.79775e-19)
(-0.303404 3.33888 -3.02921e-19)
(-0.315192 3.34876 -1.67374e-19)
(-0.326848 3.35861 3.48379e-19)
(-0.338333 3.3684 -1.53236e-19)
(-0.349641 3.37807 1.03022e-19)
(-0.360755 3.38757 -9.63996e-20)
(-0.371653 3.39682 -6.6342e-20)
(-0.382309 3.40576 4.44905e-20)
(-0.392696 3.41429 -1.24809e-20)
(-0.402785 3.42235 2.71904e-20)
(-0.412549 3.42986 0)
(-0.421965 3.43676 3.77473e-21)
(-0.431012 3.44302 0)
(-0.439676 3.4486 -5.36127e-21)
(-0.166399 1.54482 9.49494e-17)
(-0.348638 1.57787 -3.07484e-16)
(-0.318835 1.58212 -3.5487e-18)
(-0.319478 1.58406 8.0094e-17)
(-0.320883 1.58818 0)
(-0.322217 1.59318 -1.13662e-18)
(-0.3236 1.59864 -2.72601e-17)
(-0.32505 1.60444 3.5091e-20)
(-0.326556 1.61052 1.70276e-17)
(-0.328109 1.61688 9.81059e-19)
(-0.329709 1.6235 1.30993e-17)
(-0.331352 1.63041 -2.37909e-20)
(-0.333035 1.63761 -2.32456e-17)
(-0.33475 1.64513 1.01051e-17)
(-0.336484 1.65301 -1.13651e-17)
(-0.338214 1.66132 1.149e-17)
(-0.339906 1.67017 0)
(-0.341504 1.67969 -1.50194e-18)
(-0.342953 1.69004 1.53331e-18)
(-0.3441 1.70145 -1.55691e-18)
(-0.344861 1.7142 2.49273e-17)
(-0.345054 1.72862 -2.44622e-17)
(-0.344515 1.74504 0)
(-0.343054 1.76376 0)
(-0.340505 1.78504 1.27574e-18)
(-0.336702 1.80902 0)
(-0.331487 1.83571 1.05198e-18)
(-0.324631 1.86506 1.41105e-17)
(-0.31585 1.89719 -1.51835e-17)
(-0.304984 1.93244 1.5119e-18)
(-0.291772 1.97113 1.38235e-18)
(-0.275812 2.01347 1.14575e-17)
(-0.257043 2.05924 -1.05942e-17)
(-0.235708 2.10788 1.07395e-18)
(-0.212206 2.15852 -8.80161e-18)
(-0.1871 2.20992 7.15872e-18)
(-0.161076 2.26078 0)
(-0.134897 2.30994 5.15212e-18)
(-0.109255 2.35638 -5.4159e-18)
(-0.084734 2.39952 -6.20355e-19)
(-0.0618806 2.43926 0)
(-0.040831 2.47565 0)
(-0.0216288 2.50884 3.03603e-18)
(-0.00445629 2.53915 -3.88303e-18)
(0.0106498 2.56682 -9.21188e-19)
(0.0237307 2.59206 -8.76739e-19)