/*--------------------------------*- C++ -*----------------------------------*\
  =========                 |
  \\      /  F ield         | OpenFOAM: The Open Source CFD Toolbox
   \\    /   O peration     | Website:  https://openfoam.org
    \\  /    A nd           | Version:  10
     \\/     M anipulation  |
\*---------------------------------------------------------------------------*/
FoamFile
{
    format      ascii;
    class       volScalarField;
    location    "100";
    object      k;
}
// * * * * * * * * * * * * * * * * * * * * * * * * * * * * * * * * * * * * * //

dimensions      [0 2 -2 0 0 0 0];

internalField   nonuniform List<scalar> 
2000
(
6.10101e-05
0.00168162
0.0117245
0.0426233
0.0905355
0.143367
0.196846
0.249165
0.298005
0.339979
0.370447
0.386062
0.392008
0.392353
0.392315
0.412004
0.49311
0.692738
1.06509
1.66679
4.53895e-05
0.00123257
0.00828485
0.0295483
0.0679419
0.111418
0.15514
0.197766
0.237185
0.270966
0.29635
0.311209
0.321358
0.330151
0.34631
0.397659
0.539273
0.837555
1.33774
2.08177
3.34194e-05
0.000875901
0.00573645
0.020163
0.0514421
0.0892236
0.125441
0.159497
0.191148
0.218644
0.240637
0.256368
0.271229
0.291765
0.333305
0.436269
0.675876
1.11338
1.74105
2.56949
2.29423e-05
0.000613978
0.00386483
0.0131303
0.0336754
0.0675077
0.100365
0.129303
0.155433
0.178895
0.199412
0.218081
0.241096
0.281436
0.368156
0.559823
0.953971
1.54688
2.17881
2.86784
1.75691e-05
0.000465022
0.00275813
0.00867354
0.0211862
0.0449157
0.0747758
0.101483
0.125085
0.147026
0.168729
0.194069
0.234968
0.314937
0.498202
0.84362
1.43219
1.90733
2.40675
2.99819
1.6593e-05
0.000431004
0.00235795
0.00638087
0.013783
0.0272012
0.049676
0.0739758
0.096622
0.119013
0.145118
0.186259
0.276069
0.472604
0.901092
1.30044
1.69719
2.0667
2.4291
2.86165
1.9313e-05
0.000496489
0.00253555
0.00583385
0.0103507
0.0176496
0.0311892
0.0504458
0.0718049
0.0960834
0.131713
0.206711
0.422607
0.732903
1.06879
1.39539
1.72528
1.96704
2.19654
2.53019
2.5416e-05
0.000649981
0.00316228
0.00661428
0.00991662
0.0136677
0.0210918
0.0351699
0.0547009
0.0831011
0.141536
0.277179
0.508304
0.796596
1.10464
1.40786
1.62661
1.70592
1.79752
2.04822
3.52131e-05
0.000889642
0.00413038
0.00833585
0.0116942
0.0136176
0.0173353
0.0273977
0.0460162
0.084304
0.169534
0.333049
0.590204
0.895892
1.16948
1.35643
1.38325
1.30818
1.32791
1.54137
5.03906e-05
0.00122567
0.00534634
0.0106522
0.0150004
0.0164407
0.0178595
0.0251674
0.0442662
0.0967057
0.206074
0.393848
0.638577
0.887959
1.07329
1.13542
1.0056
0.899499
0.90684
1.07722
7.68289e-05
0.00168723
0.00672436
0.0132574
0.0192748
0.021569
0.0218835
0.028206
0.0508434
0.114052
0.235129
0.419741
0.638609
0.841631
0.966445
0.922432
0.697331
0.57355
0.562806
0.687972
0.000113755
0.00225677
0.00821502
0.0159563
0.0239667
0.0287538
0.0301684
0.0377934
0.0620388
0.130226
0.255179
0.431551
0.619045
0.777942
0.845689
0.730167
0.469558
0.350225
0.326482
0.402908
0.000154927
0.00279921
0.00946491
0.0184102
0.0288943
0.0378098
0.0426155
0.0520055
0.0777337
0.146276
0.265402
0.421774
0.57674
0.696162
0.724887
0.572404
0.341499
0.236699
0.195061
0.221319
0.000188724
0.00316468
0.010125
0.0199896
0.0330473
0.0472307
0.0577061
0.0696149
0.0974754
0.160215
0.26725
0.401623
0.528936
0.621465
0.634863
0.485727
0.298943
0.200762
0.141831
0.128893
0.000199487
0.00317529
0.00979597
0.0198947
0.0348993
0.0544855
0.0744214
0.0917406
0.122342
0.176268
0.267814
0.382421
0.487317
0.556232
0.557728
0.450794
0.318847
0.213432
0.137329
0.10153
0.000174408
0.00269463
0.00814987
0.0172568
0.03241
0.055264
0.0842311
0.113487
0.149573
0.196024
0.274467
0.373742
0.459701
0.509592
0.497663
0.42734
0.335004
0.230508
0.143516
0.0929348
0.000115521
0.00175681
0.00528111
0.0118311
0.024029
0.0449813
0.0768562
0.11821
0.163181
0.209907
0.280849
0.364877
0.436481
0.473634
0.461154
0.406712
0.317669
0.216588
0.132479
0.0812253
4.93719e-05
0.000711419
0.00216387
0.00524082
0.0116959
0.0242236
0.0464222
0.0819816
0.128026
0.18194
0.257446
0.333655
0.387246
0.404544
0.379372
0.316258
0.228369
0.14791
0.0877853
0.0537262
1.14315e-05
0.000123823
0.000360667
0.000940673
0.00228996
0.00519172
0.0110591
0.0225792
0.0454099
0.079901
0.132271
0.18423
0.204576
0.197212
0.164835
0.115291
0.0754828
0.0465267
0.026114
0.0190176
4.4501e-07
4.57548e-06
1.26879e-05
3.35754e-05
8.20575e-05
0.0001855
0.000393821
0.000818273
0.00198116
0.0046124
0.00973513
0.0150299
0.0161306
0.0133351
0.00815463
0.00452347
0.00280409
0.00171033
0.00116225
0.00489313
2.59127
4.12048
6.74165
10.778
15.5042
19.4967
22.1618
23.5228
23.6996
22.7894
20.9883
18.6151
16.3771
15.416
17.7141
25.0008
37.4249
70.0645
164.459
774.201
3.13117
4.73888
7.34532
11.2409
15.7327
19.5027
22.0666
23.4104
23.5992
22.711
20.937
18.5844
16.3653
15.4172
17.7342
25.0605
37.5138
70.1984
162.661
754.703
3.57401
5.13983
7.69526
11.4333
15.6575
19.2906
21.8148
23.1827
23.4198
22.5861
20.8632
18.5462
16.3536
15.4204
17.7541
25.1247
37.6182
70.4076
161.664
738.116
3.8242
5.3122
7.76443
11.3554
15.4109
18.9394
21.467
22.8875
23.1952
22.435
20.7761
18.5028
16.341
15.4247
17.7738
25.188
37.7233
70.6772
161.519
725.802
3.83584
5.21635
7.57103
11.0521
15.0084
18.4988
21.0571
22.5472
22.9414
22.2691
20.6843
18.4606
16.3312
15.4311
17.7919
25.2474
37.8246
70.9954
162.219
718.984
3.59359
4.89804
7.17079
10.5778
14.4913
17.9918
20.6099
22.1879
22.6811
22.1046
20.5976
18.4251
16.3264
15.4402
17.8085
25.3027
37.9188
71.33
163.62
718.181
3.17007
4.40067
6.61346
9.99009
13.9102
17.4554
20.1558
21.8355
22.4345
21.9554
20.5234
18.3978
16.3262
15.452
17.8232
25.3522
38.003
71.6549
165.513
723.537
2.63249
3.80308
5.96404
9.33794
13.3037
16.9232
19.7216
21.51
22.2144
21.8282
20.4642
18.3801
16.3304
15.4646
17.8356
25.3942
38.0738
71.9503
167.584
733.101
2.07294
3.1694
5.27645
8.66879
12.7089
16.4236
19.3316
21.2315
22.0346
21.7321
20.4257
18.3752
16.3402
15.4776
17.8443
25.4294
38.1307
72.2057
169.501
743.165
1.53633
2.54551
4.59931
8.02969
12.1666
15.9896
19.0128
21.0205
21.9102
21.6775
20.4142
18.3863
16.3573
15.4918
17.85
25.4576
38.1754
72.4141
171.117
752.504
1.0675
1.97751
3.97875
7.46278
11.7105
15.6462
18.7815
20.8872
21.8507
21.6653
20.4284
18.4123
16.3801
15.5067
17.853
25.4778
38.2095
72.5738
172.302
759.784
0.694139
1.49441
3.44838
6.99942
11.3631
15.4068
18.6436
20.8322
21.8529
21.6951
20.4675
18.4523
16.4082
15.5222
17.8543
25.4891
38.2357
72.6897
172.951
763.12
0.422106
1.1101
3.03487
6.66836
11.1465
15.2857
18.6069
20.8551
21.9107
21.7622
20.5292
18.5054
16.4413
15.5388
17.8557
25.4918
38.2581
72.772
173.015
759.884
0.250522
0.838782
2.76906
6.49598
11.0703
15.2772
18.6536
20.9351
22.0073
21.8544
20.6069
18.5682
16.4783
15.5566
17.8581
25.4864
38.2807
72.8333
172.554
746.509
0.170508
0.695333
2.68347
6.50381
11.1361
15.3717
18.7703
21.0605
22.1318
21.9652
20.6963
18.6383
16.5182
15.5753
17.861
25.4736
38.307
72.8911
171.83
718.315
0.13695
0.67134
2.80106
6.71906
11.3473
15.5524
18.9348
21.211
22.2687
22.0843
20.7914
18.7135
16.56
15.5937
17.8654
25.4525
38.343
72.9541
171.416
669.231
0.120983
0.730429
3.11522
7.12947
11.6841
15.8033
19.138
21.3794
22.411
22.2051
20.887
18.7898
16.6007
15.6106
17.8718
25.423
38.3946
73.014
172.014
591.846
0.109117
0.867365
3.62301
7.68846
12.0992
16.0898
19.3585
21.5518
22.5511
22.3212
20.9788
18.8645
16.6388
15.6253
17.8807
25.3878
38.4691
73.0277
175.077
667.232
0.0990553
1.06494
4.28994
8.3293
12.556
16.3914
19.5854
21.7231
22.6849
22.4288
21.064
18.936
16.6736
15.6375
17.8921
25.3489
38.5686
72.8982
175.288
781.501
0.0852182
1.32811
5.09148
9.00289
13.017
16.6723
19.8024
21.8798
22.8035
22.5229
21.1406
19.0041
16.705
15.6467
17.9048
25.2996
38.6795
72.3897
171.032
754.8
0.0890836
1.81018
6.06435
9.52863
13.2925
16.8227
19.9314
21.97
22.8733
22.5786
21.1903
19.056
16.7277
15.6507
17.921
25.244
38.7808
71.5386
164.449
720.752
0.0960291
1.93879
6.25733
9.65026
13.3912
16.9017
20.0005
22.0264
22.9169
22.6082
21.2079
19.0649
16.7262
15.6464
17.923
25.2219
38.7686
71.3479
163.974
716.797
0.111257
2.1586
6.58867
9.92314
13.6477
17.1179
20.178
22.1642
23.0145
22.6647
21.2303
19.0638
16.7108
15.6376
17.9318
25.207
38.7433
71.1638
163.931
714.26
0.131452
2.41944
6.95084
10.2222
13.9238
17.3476
20.3597
22.3019
23.1073
22.7135
21.2445
19.0555
16.691
15.6283
17.9424
25.1971
38.7193
71.0063
164.044
711.968
0.157155
2.72007
7.33573
10.5362
14.2012
17.5717
20.5275
22.4233
23.1828
22.746
21.2456
19.0386
16.6669
15.6187
17.9549
25.1921
38.6994
70.8697
164.264
709.704
0.189556
3.06071
7.73684
10.8588
14.4708
17.7799
20.6715
22.5188
23.2332
22.7568
21.2303
19.0113
16.6381
15.6086
17.9692
25.1921
38.6846
70.749
164.578
707.348
0.230253
3.44073
8.14626
11.1812
14.7251
17.9645
20.7845
22.5819
23.2532
22.7423
21.1959
18.9724
16.6041
15.598
17.9851
25.1968
38.6753
70.6461
164.977
704.768
0.281234
3.85763
8.5546
11.4946
14.9563
18.119
20.8611
22.6076
23.2389
22.6997
21.1404
18.9206
16.5645
15.5867
18.0024
25.2059
38.6715
70.5657
165.448
701.796
0.344921
4.30657
8.95097
11.7896
15.1569
18.2374
20.8973
22.5927
23.1882
22.6276
21.063
18.8552
16.5191
15.5746
18.0206
25.219
38.673
70.5086
165.969
698.21
0.424231
4.77979
9.32318
12.0562
15.3199
18.3149
20.8906
22.5357
23.1001
22.5257
20.9635
18.7757
16.4678
15.5615
18.0396
25.2355
38.6795
70.4735
166.509
693.734
0.522625
5.2663
9.65857
12.2844
15.439
18.3477
20.8397
22.4368
22.9756
22.3953
20.8431
18.6819
16.4108
15.5473
18.0589
25.2548
38.6901
70.4576
167.023
688.035
0.644145
5.75197
9.94578
12.4648
15.5086
18.3336
20.7455
22.2981
22.8173
22.2389
20.704
18.5744
16.3487
15.5321
18.0779
25.2762
38.7039
70.456
167.457
680.74
0.793385
6.21952
10.1715
12.5885
15.524
18.2719
20.6101
22.1234
22.6295
22.0602
20.5491
18.455
16.2821
15.5158
18.0961
25.2988
38.7192
70.4614
167.743
671.466
0.975376
6.6493
10.324
12.6471
15.4822
18.1633
20.4374
21.918
22.4176
21.8641
20.3825
18.3268
16.2121
15.4985
18.1128
25.3217
38.7342
70.4644
167.805
659.887
1.19529
7.0197
10.392
12.6336
15.3817
18.0102
20.2328
21.6885
22.1881
21.6562
20.2083
18.1931
16.1398
15.4802
18.1273
25.3438
38.7464
70.4524
167.563
645.839
1.45788
7.30783
10.3656
12.5422
15.2226
17.8169
20.0029
21.4426
21.9483
21.4425
20.0314
18.0575
16.0666
15.4609
18.1387
25.364
38.7526
70.4093
166.94
629.484
1.76639
7.49027
10.237
12.3688
15.0073
17.589
19.7558
21.1887
21.7058
21.2293
19.8565
17.9235
15.9937
15.4407
18.1465
25.3811
38.7489
70.3144
165.873
611.563
2.12085
7.54355
9.99997
12.1111
14.7397
17.3339
19.5002
20.9352
21.4682
21.0227
19.688
17.7942
15.9226
15.4196
18.1496
25.3935
38.7301
70.1427
164.321
593.73
2.51508
7.44413
9.64996
11.7682
14.4251
17.06
19.2453
20.6907
21.2424
20.8278
19.5299
17.6722
15.8545
15.3975
18.1474
25.3997
38.6905
69.8658
162.285
578.996
2.93186
7.16822
9.18373
11.3367
14.0684
16.7753
18.9996
20.4623
21.0342
20.6489
19.3848
17.559
15.7903
15.3742
18.1393
25.3989
38.6254
69.4507
159.85
572.244
3.50426
6.54447
8.42981
10.6679
13.5743
16.4162
18.7159
20.2099
20.8095
20.4587
19.2312
17.4376
15.7199
15.3451
18.1207
25.3842
38.5083
68.7442
156.801
582.173
5.13184
6.07827
7.57663
9.97131
13.0546
16.1173
18.5368
20.0942
20.7299
20.4051
19.2039
17.4088
15.7149
15.3423
18.0773
25.447
38.1662
69.1328
151.013
595.935
4.38165
5.19013
6.69487
9.21121
12.5106
15.8105
18.3872
20.0291
20.7093
20.4108
19.2236
17.4297
15.7334
15.3434
18.055
25.4261
38.0761
69.343
147.894
600.853
3.49673
4.30543
5.83272
8.44559
11.9592
15.5032
18.2453
19.9772
20.7063
20.4354
19.257
17.4638
15.757
15.3427
18.0278
25.3898
38.0239
69.3797
146.117
588.836
2.78602
3.55757
5.05001
7.71687
11.4316
15.2237
18.134
19.9553
20.7314
20.4851
19.3087
17.5124
15.7877
15.3412
17.9931
25.3395
37.955
69.3407
143.895
544.562
2.24482
2.93919
4.3539
7.03741
10.9364
14.9784
18.0589
19.9668
20.7858
20.558
19.3812
17.5751
15.8252
15.34
17.9539
25.2826
37.8787
69.3513
141.766
442.247
1.84819
2.45087
3.76052
6.41887
10.4708
14.7586
18.0182
20.0106
20.8682
20.6515
19.4729
17.6506
15.8687
15.3396
17.9123
25.2216
37.7949
69.3754
141.664
439.177
1.56839
2.0812
3.27253
5.86844
10.0388
14.5687
18.0067
20.0864
20.9778
20.7712
19.5837
17.7376
15.9176
15.3406
17.8703
25.1593
37.7082
69.4211
141.784
438.874
1.38487
1.83163
2.91762
5.43342
9.68632
14.4404
18.048
20.2057
21.1234
20.9165
19.7111
17.8338
15.9715
15.3436
17.8297
25.0981
37.6209
69.4833
142.431
439.909
1.26284
1.65948
2.66487
5.12353
9.44661
14.378
18.1435
20.3692
21.3019
21.0839
19.8518
17.9367
16.0289
15.349
17.792
25.0407
37.5359
69.5638
143.685
442.625
1.17672
1.54131
2.49352
4.91797
9.31496
14.4115
18.3001
20.5704
21.5071
21.268
20.0011
18.0433
16.0882
15.3569
17.7585
24.9889
37.4553
69.6542
145.424
447.6
1.11311
1.46331
2.39232
4.81573
9.29512
14.5377
18.5215
20.8146
21.7355
21.4627
20.1546
18.1511
16.1485
15.3677
17.7305
24.9442
37.3813
69.7403
147.543
455.581
1.06639
1.4174
2.35278
4.81395
9.39835
14.7639
18.8059
21.0962
21.9847
21.6658
20.3082
18.2563
16.2085
15.3815
17.7088
24.9081
37.316
69.8084
150.057
467.254
1.035
1.40126
2.3741
4.91639
9.62933
15.0915
19.1506
21.4096
22.2479
21.8721
20.459
18.3569
16.2654
15.397
17.6947
24.882
37.2611
69.8513
152.967
484.202
1.02022
1.4164
2.45952
5.13102
9.99532
15.5179
19.5459
21.7446
22.5172
22.0753
20.6028
18.4498
16.3173
15.4118
17.6853
24.8665
37.218
69.8554
156.235
508.903
1.02676
1.46795
2.61582
5.46732
10.4987
16.0328
19.9765
22.0874
22.7815
22.2677
20.7346
18.5321
16.3627
15.4252
17.6804
24.8618
37.187
69.792
159.454
544.997
1.06202
1.56426
2.8541
5.93642
11.1342
16.6134
20.4192
22.4201
23.0284
22.4413
20.8498
18.6019
16.4012
15.4368
17.6792
24.8675
37.17
69.6595
162.576
598.056
1.13449
1.71616
3.18767
6.5438
11.8829
17.2307
20.851
22.7268
23.2467
22.5892
20.9459
18.6592
16.4332
15.4467
17.6816
24.8833
37.1674
69.4519
164.96
676.387
1.25184
1.93443
3.61912
7.26139
12.6873
17.8338
21.2383
22.9838
23.4202
22.7026
21.0186
18.7025
16.459
15.456
17.6875
24.9064
37.1682
69.1594
165.041
791.089
1.39014
2.1898
4.08039
7.94092
13.3375
18.2182
21.4163
23.0739
23.4712
22.7324
21.0408
18.72
16.4746
15.4635
17.695
24.9327
37.1789
68.7158
159.716
765.696
1.22937
4.94308
4.6179
3.62275
2.80673
2.20552
1.7788
1.48769
1.30265
1.18506
1.09929
1.02945
0.968755
0.915256
0.869663
0.836187
0.822772
0.84027
0.899771
0.986449
0.720881
4.45756
4.70989
3.69708
2.82783
2.19846
1.75841
1.45742
1.26205
1.14345
1.05779
0.986905
0.922647
0.860868
0.800454
0.74475
0.70141
0.681136
0.694485
0.731408
0.439691
3.93454
4.80704
3.88441
2.97396
2.29878
1.8206
1.48663
1.25839
1.12078
1.03078
0.959963
0.895725
0.831358
0.764048
0.695707
0.63281
0.585821
0.564982
0.564661
0.234396
3.29946
4.77861
4.08123
3.17391
2.45964
1.9376
1.56265
1.29777
1.12913
1.03265
0.963178
0.900897
0.836997
0.766948
0.690913
0.614057
0.547384
0.501933
0.475823
0.123652
2.48518
4.4939
4.21284
3.38299
2.65643
2.0986
1.68339
1.38436
1.18474
1.07758
1.00717
0.941393
0.873821
0.800719
0.72075
0.635342
0.554135
0.49037
0.446876
0.0734094
1.69374
3.85938
4.19238
3.5521
2.85504
2.28378
1.84286
1.51573
1.2898
1.16906
1.08904
1.00423
0.920917
0.839278
0.757159
0.671233
0.58365
0.506468
0.449597
0.0448694
1.09828
2.98745
3.80646
3.58162
3.00525
2.46388
2.0197
1.67466
1.41839
1.28395
1.19572
1.0831
0.974772
0.877982
0.788778
0.702658
0.613956
0.528372
0.459396
0.0271211
0.693447
2.16019
3.14255
3.30906
3.00846
2.58275
2.17377
1.83192
1.56138
1.40932
1.29598
1.15822
1.02773
0.913488
0.811892
0.718991
0.628429
0.539497
0.46212
0.0160564
0.427682
1.48305
2.40265
2.80321
2.77696
2.53643
2.23244
1.94564
1.70757
1.53762
1.38464
1.22651
1.07274
0.935889
0.817542
0.714232
0.620124
0.532012
0.453364
0.00925143
0.255444
0.976448
1.72595
2.19658
2.3557
2.29846
2.13135
1.93078
1.73908
1.57333
1.41501
1.24962
1.08478
0.934067
0.803116
0.691261
0.593752
0.507508
0.432843
0.00511638
0.1452
0.618137
1.17448
1.60559
1.84399
1.9115
1.86421
1.75516
1.6217
1.48316
1.3423
1.1884
1.03125
0.884539
0.755094
0.643972
0.548475
0.465708
0.395995
0.00266607
0.0771259
0.374728
0.765632
1.10847
1.34523
1.46748
1.49536
1.4579
1.38042
1.28014
1.16892
1.0429
0.911212
0.785149
0.671123
0.571235
0.484948
0.409998
0.347024
0.00130812
0.0384005
0.214838
0.479133
0.731735
0.927578
1.05371
1.11281
1.11718
1.0813
1.01741
0.935935
0.844712
0.74718
0.650897
0.561087
0.480225
0.408479
0.345044
0.290918
0.000611968
0.0181886
0.114174
0.285517
0.464453
0.613009
0.718654
0.780631
0.802912
0.792295
0.756383
0.702829
0.641741
0.575425
0.508231
0.443552
0.383254
0.32745
0.276446
0.231727
0.00027015
0.00804598
0.0548494
0.157728
0.279854
0.388943
0.471435
0.524578
0.550604
0.552821
0.535701
0.504158
0.465798
0.423341
0.37888
0.334175
0.290224
0.247815
0.207718
0.171561
0.000109872
0.00325499
0.0226907
0.0759756
0.152846
0.229891
0.292996
0.337313
0.362824
0.371277
0.365702
0.349049
0.325844
0.298579
0.268336
0.23625
0.203237
0.170757
0.139556
0.111535
3.78451e-05
0.00110879
0.00764321
0.0278643
0.0674698
0.115889
0.161181
0.196519
0.219759
0.231035
0.23161
0.223125
0.207724
0.188237
0.165728
0.141582
0.117268
0.0940488
0.0724908
0.0548541
1.0483e-05
0.000304222
0.00208008
0.00755944
0.020054
0.0416923
0.0663697
0.0881311
0.103353
0.110625
0.109911
0.102118
0.0906771
0.0781188
0.0651547
0.0524557
0.0407467
0.0304454
0.0218226
0.0161011
2.22075e-06
6.35008e-05
0.000402856
0.00140035
0.00362802
0.00784684
0.0142482
0.0202608
0.0242298
0.0252204
0.0232273
0.0192374
0.0161352
0.013332
0.0106255
0.00801269
0.0058281
0.00414479
0.00294275
0.00228369
2.616e-07
5.98642e-06
2.62628e-05
7.83312e-05
0.000184136
0.000360886
0.000619466
0.000885726
0.00104315
0.00104847
0.00092426
0.000738529
0.000590612
0.000477429
0.000379678
0.00028863
0.000210726
0.000150531
0.000108607
8.3714e-05
)
;

boundaryField
{
    right
    {
        type            cyclic;
    }
    left
    {
        type            cyclic;
    }
    outerWall
    {
        type            kqRWallFunction;
        value           nonuniform List<scalar> 
60
(
774.201
754.703
738.116
725.802
718.984
718.181
723.537
733.101
743.165
752.504
759.784
763.12
759.884
746.509
718.315
669.231
591.846
667.232
781.501
754.8
720.752
716.797
714.26
711.968
709.704
707.348
704.768
701.796
698.21
693.734
688.035
680.74
671.466
659.887
645.839
629.484
611.563
593.73
578.996
572.244
582.173
595.935
600.853
588.836
544.562
442.247
439.177
438.874
439.909
442.625
447.6
455.581
467.254
484.202
508.903
544.997
598.056
676.387
791.089
765.696
)
;
    }
    stirrerWall
    {
        type            kqRWallFunction;
        value           nonuniform List<scalar> 
100
(
6.10101e-05
4.53895e-05
3.34194e-05
2.29423e-05
1.75691e-05
1.6593e-05
1.9313e-05
2.5416e-05
3.52131e-05
5.03906e-05
7.68289e-05
0.000113755
0.000154927
0.000188724
0.000199487
0.000174408
0.000115521
4.93719e-05
1.14315e-05
4.4501e-07
4.4501e-07
4.57548e-06
1.26879e-05
3.35754e-05
8.20575e-05
0.0001855
0.000393821
0.000818273
0.00198116
0.0046124
0.00973513
0.0150299
0.0161306
0.0133351
0.00815463
0.00452347
0.00280409
0.00171033
0.00116225
0.00489313
0.0890836
0.0960291
0.111257
0.131452
0.157155
0.189556
0.230253
0.281234
0.344921
0.424231
0.522625
0.644145
0.793385
0.975376
1.19529
1.45788
1.76639
2.12085
2.51508
2.93186
1.22937
0.720881
0.439691
0.234396
0.123652
0.0734094
0.0448694
0.0271211
0.0160564
0.00925143
0.00511638
0.00266607
0.00130812
0.000611968
0.00027015
0.000109872
3.78451e-05
1.0483e-05
2.22075e-06
2.616e-07
2.616e-07
5.98642e-06
2.62628e-05
7.83312e-05
0.000184136
0.000360886
0.000619466
0.000885726
0.00104315
0.00104847
0.00092426
0.000738529
0.000590612
0.000477429
0.000379678
0.00028863
0.000210726
0.000150531
0.000108607
8.3714e-05
)
;
    }
    top
    {
        type            empty;
    }
    bottom
    {
        type            empty;
    }
}


// ************************************************************************* //
