/*--------------------------------*- C++ -*----------------------------------*\
  =========                 |
  \\      /  F ield         | OpenFOAM: The Open Source CFD Toolbox
   \\    /   O peration     | Website:  https://openfoam.org
    \\  /    A nd           | Version:  10
     \\/     M anipulation  |
\*---------------------------------------------------------------------------*/
FoamFile
{
    format      ascii;
    class       volScalarField;
    location    "100";
    object      k;
}
// * * * * * * * * * * * * * * * * * * * * * * * * * * * * * * * * * * * * * //

dimensions      [0 2 -2 0 0 0 0];

internalField   nonuniform List<scalar> 
420
(
2.97794e-07
7.65511e-06
4.65808e-05
0.000141818
0.000317537
0.000608175
0.0010415
0.00160239
0.00228129
0.0031771
2.27185e-07
5.94921e-06
3.60565e-05
0.000109956
0.000245916
0.000467607
0.000785732
0.0011789
0.00165402
0.00233761
1.69698e-07
4.49911e-06
2.71865e-05
8.33518e-05
0.000186969
0.000353312
0.000582811
0.000855967
0.00118538
0.00172799
1.2595e-07
3.35224e-06
2.01823e-05
6.21559e-05
0.00013971
0.000261092
0.000418606
0.000592826
0.000812561
0.00125601
9.17721e-08
2.45265e-06
1.46643e-05
4.50729e-05
0.000100773
0.000184212
0.000283316
0.000383501
0.000527865
0.000901256
6.34594e-08
1.69854e-06
1.00109e-05
3.04069e-05
6.69853e-05
0.000118674
0.000173712
0.000225674
0.000322495
0.00064198
4.01455e-08
1.00725e-06
5.80802e-06
1.72844e-05
3.73331e-05
6.39893e-05
8.93746e-05
0.00011431
0.00018173
0.000450689
1.95382e-08
4.27596e-07
2.33312e-06
6.80443e-06
1.44983e-05
2.42918e-05
3.30514e-05
4.42759e-05
8.95194e-05
0.000300386
5.35493e-09
8.59252e-08
4.25913e-07
1.2408e-06
2.66256e-06
4.46934e-06
6.16059e-06
9.61522e-06
3.23303e-05
0.000180788
2.18363e-10
3.25779e-09
1.53846e-08
4.51447e-08
9.84579e-08
1.68362e-07
2.3923e-07
4.35559e-07
2.77982e-06
4.49118e-05
0.00488029
0.00909677
0.0195938
0.0371491
0.049898
0.042317
0.0361193
0.0174115
0.00886011
0.00860373
0.00389062
0.00813518
0.0191772
0.0374848
0.0501788
0.0421563
0.0354829
0.0168404
0.00868167
0.00855154
0.00317662
0.00748616
0.0191787
0.038165
0.0504769
0.042119
0.0349195
0.0163075
0.00846751
0.00862984
0.00262254
0.00703577
0.0195035
0.0390532
0.0507218
0.0421022
0.0344177
0.0159031
0.00831213
0.00875719
0.00219768
0.00676833
0.0201689
0.0401171
0.0508886
0.0421119
0.0339981
0.0156929
0.00819632
0.00893864
0.00186922
0.00667414
0.021192
0.0412894
0.0509355
0.0421827
0.0337232
0.0156204
0.00811776
0.00909649
0.00159588
0.00674805
0.0225781
0.0424671
0.0508393
0.0422767
0.0336063
0.0156435
0.00808828
0.009264
0.00134152
0.00701182
0.0243142
0.0435034
0.0507078
0.0423794
0.0336431
0.0157534
0.00810303
0.00946847
0.00105509
0.00759516
0.0263404
0.0443595
0.0505232
0.0424891
0.0338216
0.0159591
0.00816072
0.00967674
0.000737397
0.0088916
0.0287231
0.0450156
0.0502952
0.0426009
0.0341393
0.016239
0.00825461
0.00987487
0.00075202
0.0119783
0.0316163
0.0453523
0.0500827
0.0427014
0.0345954
0.0165832
0.00836983
0.0100631
0.00191666
0.0157502
0.0330114
0.0450371
0.0497297
0.0426692
0.0349695
0.0167703
0.00842475
0.01003
0.00682084
0.0206759
0.0340349
0.0444246
0.0491152
0.0424041
0.0351721
0.016966
0.00852388
0.00997047
0.0144876
0.0239083
0.0332482
0.0432714
0.048653
0.0422412
0.035604
0.0174622
0.00876764
0.0101051
0.0167258
0.0231437
0.0316399
0.0421594
0.0484627
0.0422321
0.0361627
0.0179768
0.00901506
0.0101994
0.0157366
0.0212818
0.0297272
0.0410101
0.0483671
0.0422283
0.036748
0.0184952
0.00926684
0.0102275
0.0140413
0.0191981
0.0277495
0.0399147
0.0483738
0.0422598
0.0372778
0.0190005
0.00951833
0.0101845
0.0122536
0.0171159
0.0258294
0.038938
0.0484551
0.0423666
0.0376788
0.0194325
0.00976084
0.0100525
0.0105351
0.015164
0.0241458
0.038193
0.0487191
0.0425865
0.0378661
0.0197966
0.00995382
0.00982702
0.00894203
0.0134396
0.0227209
0.0376853
0.0492284
0.0428965
0.0379378
0.0199253
0.00996293
0.00950126
0.00750625
0.0118935
0.0215256
0.0374521
0.0497973
0.0431292
0.0377407
0.0195235
0.0095839
0.00917718
0.00622606
0.0105026
0.0205392
0.0373292
0.0501074
0.0429246
0.0369955
0.018335
0.00917843
0.00870707
0.000903383
0.00670951
0.0110846
0.0115891
0.0105951
0.00928196
0.00796737
0.00669494
0.00546767
0.00430638
0.000200668
0.0029934
0.00663575
0.00784799
0.00752057
0.0066842
0.00576164
0.00485288
0.00395023
0.00308007
5.00794e-05
0.00116128
0.00355327
0.00484899
0.00496728
0.0045341
0.00394007
0.00333106
0.00272582
0.00212864
1.64075e-05
0.000436677
0.00163854
0.00258978
0.0029196
0.00280948
0.00249565
0.00211878
0.00173331
0.0013604
5.68329e-06
0.000159092
0.000693286
0.00122785
0.0015052
0.00153399
0.00140888
0.00121337
0.00100107
0.000791403
1.91016e-06
5.48226e-05
0.000268012
0.000523476
0.000688298
0.000737515
0.000699839
0.000613977
0.000514913
0.000412247
5.91983e-07
1.72204e-05
9.15198e-05
0.000195477
0.000273985
0.00030653
0.000298552
0.000265477
0.000225296
0.000182758
1.5512e-07
4.52729e-06
2.53779e-05
5.83655e-05
8.60715e-05
9.90114e-05
9.73338e-05
8.62258e-05
7.2989e-05
5.9528e-05
2.66462e-08
7.69386e-07
4.30145e-06
1.02036e-05
1.5285e-05
1.75142e-05
1.68467e-05
1.44449e-05
1.20467e-05
9.77922e-06
1.60778e-09
3.94963e-08
1.67332e-07
3.802e-07
5.8542e-07
6.75029e-07
6.39378e-07
5.39336e-07
4.50579e-07
3.70609e-07
)
;

boundaryField
{
    right
    {
        type            cyclic;
    }
    left
    {
        type            cyclic;
    }
    outerWall
    {
        type            kqRWallFunction;
        value           nonuniform List<scalar> 
22
(
0.00860373
0.00855154
0.00862984
0.00875719
0.00893864
0.00909649
0.009264
0.00946847
0.00967674
0.00987487
0.0100631
0.01003
0.00997047
0.0101051
0.0101994
0.0102275
0.0101845
0.0100525
0.00982702
0.00950126
0.00917718
0.00870707
)
;
    }
    stirrerWall
    {
        type            kqRWallFunction;
        value           nonuniform List<scalar> 
42
(
2.97794e-07
2.27185e-07
1.69698e-07
1.2595e-07
9.17721e-08
6.34594e-08
4.01455e-08
1.95382e-08
5.35493e-09
2.18363e-10
2.18363e-10
3.25779e-09
1.53846e-08
4.51447e-08
9.84579e-08
1.68362e-07
2.3923e-07
4.35559e-07
2.77982e-06
4.49118e-05
0.00075202
0.00191666
0.000903383
0.000200668
5.00794e-05
1.64075e-05
5.68329e-06
1.91016e-06
5.91983e-07
1.5512e-07
2.66462e-08
1.60778e-09
1.60778e-09
3.94963e-08
1.67332e-07
3.802e-07
5.8542e-07
6.75029e-07
6.39378e-07
5.39336e-07
4.50579e-07
3.70609e-07
)
;
    }
    top
    {
        type            empty;
    }
    bottom
    {
        type            empty;
    }
}


// ************************************************************************* //
