/*--------------------------------*- C++ -*----------------------------------*\
  =========                 |
  \\      /  F ield         | OpenFOAM: The Open Source CFD Toolbox
   \\    /   O peration     | Website:  https://openfoam.org
    \\  /    A nd           | Version:  10
     \\/     M anipulation  |
\*---------------------------------------------------------------------------*/
FoamFile
{
    format      ascii;
    class       volScalarField;
    location    "100";
    object      nut;
}
// * * * * * * * * * * * * * * * * * * * * * * * * * * * * * * * * * * * * * //

dimensions      [0 2 -1 0 0 0 0];

internalField   nonuniform List<scalar> 
2000
(
7.02762e-10
1.031e-07
1.62691e-06
7.87921e-06
2.02266e-05
3.8761e-05
6.39759e-05
9.56012e-05
0.000132024
0.000169836
0.00020363
0.000227494
0.000241566
0.000247776
0.000249432
0.000258618
0.000299279
0.000398925
0.000576403
0.000851514
5.22815e-10
7.99485e-08
1.30305e-06
6.24571e-06
1.60455e-05
2.99678e-05
4.84238e-05
7.14737e-05
9.79482e-05
0.000125378
0.000150161
0.000168487
0.000181608
0.000190457
0.000199617
0.000223846
0.000290754
0.000428256
0.000650787
0.00097517
3.84929e-10
5.69837e-08
9.60356e-07
4.96262e-06
1.36368e-05
2.50984e-05
3.90845e-05
5.59436e-05
7.52259e-05
9.5296e-05
0.000113965
0.000129037
0.000141748
0.000154296
0.000173767
0.000218979
0.00032311
0.000509958
0.000775702
0.00112313
2.64248e-10
3.89281e-08
6.34376e-07
3.48339e-06
1.05339e-05
2.12853e-05
3.30417e-05
4.60997e-05
6.05967e-05
7.58428e-05
9.06474e-05
0.00010408
0.000117697
0.000136158
0.000171686
0.000248002
0.000406282
0.000649723
0.000912312
0.00118352
2.02358e-10
2.87465e-08
4.37989e-07
2.33463e-06
7.37309e-06
1.67825e-05
2.78115e-05
3.90378e-05
5.08472e-05
6.33306e-05
7.62396e-05
8.98906e-05
0.000107406
0.00013755
0.000204592
0.000331517
0.000567224
0.000768489
0.000955462
0.00116707
1.91114e-10
2.64625e-08
3.71641e-07
1.73336e-06
5.07188e-06
1.17505e-05
2.20034e-05
3.26731e-05
4.3332e-05
5.46651e-05
6.75916e-05
8.50468e-05
0.000116827
0.000180609
0.000331534
0.000495703
0.000664464
0.000800309
0.000914713
0.00105842
2.22444e-10
3.07118e-08
4.08288e-07
1.63228e-06
3.97899e-06
8.29287e-06
1.60516e-05
2.61654e-05
3.68004e-05
4.84507e-05
6.4222e-05
9.27643e-05
0.000164597
0.000269902
0.000405768
0.000551228
0.000674891
0.000736774
0.000789288
0.000885539
2.92742e-10
4.1119e-08
5.33362e-07
1.94046e-06
4.00195e-06
6.81585e-06
1.19964e-05
2.07008e-05
3.15091e-05
4.54384e-05
7.03841e-05
0.000119757
0.00019671
0.000305759
0.000437186
0.000555106
0.000612302
0.000612026
0.000618091
0.000678579
4.05592e-10
5.81975e-08
7.37443e-07
2.5614e-06
4.92802e-06
7.17145e-06
1.05493e-05
1.75353e-05
2.85182e-05
4.75674e-05
8.3024e-05
0.000142587
0.000234637
0.000352677
0.000457796
0.000511302
0.000497677
0.000455395
0.000438996
0.00048097
5.80424e-10
8.31141e-08
1.0029e-06
3.35267e-06
6.45065e-06
9.04505e-06
1.1529e-05
1.70297e-05
2.84567e-05
5.41947e-05
9.89962e-05
0.000169179
0.000261431
0.000358675
0.000422656
0.000426276
0.000363815
0.000309706
0.000288402
0.000315389
8.84984e-10
1.16695e-07
1.28627e-06
4.10373e-06
8.12559e-06
1.20828e-05
1.48305e-05
1.98467e-05
3.25333e-05
5.11267e-05
0.000111759
0.000184382
0.000269908
0.000347685
0.000381801
0.00034709
0.000255127
0.000196427
0.000172873
0.000188884
1.31039e-09
1.59416e-07
1.56413e-06
4.64251e-06
9.37724e-06
1.55592e-05
2.06629e-05
2.66259e-05
3.95618e-05
5.95335e-05
0.000109935
0.000193093
0.000269222
0.000327953
0.000337928
0.000279727
0.000177128
0.000120805
9.7114e-05
0.00010356
1.78474e-09
2.011e-07
1.73814e-06
4.82479e-06
9.97749e-06
1.83598e-05
2.7671e-05
3.58486e-05
5.00727e-05
6.89419e-05
0.000118887
0.000193353
0.00025851
0.000301503
0.000297538
0.000229753
0.000135498
8.23146e-05
5.57607e-05
5.28885e-05
2.1742e-09
2.29114e-07
1.72342e-06
4.50248e-06
9.55288e-06
1.92883e-05
3.36173e-05
4.5767e-05
5.52586e-05
7.29807e-05
0.000125385
0.000189049
0.000245237
0.000279124
0.000271465
0.00020733
0.000125912
6.94415e-05
3.80803e-05
2.81329e-05
2.29834e-09
2.27868e-07
1.46974e-06
3.65177e-06
7.96343e-06
1.74374e-05
3.5512e-05
5.43068e-05
5.98258e-05
7.54311e-05
0.000120905
0.000183497
0.000232552
0.000259467
0.000251222
0.000203931
0.000135209
6.89714e-05
3.30013e-05
1.95663e-05
2.00954e-09
1.86014e-07
1.00573e-06
2.40951e-06
5.38985e-06
1.24854e-05
2.87644e-05
5.39511e-05
5.84896e-05
6.95437e-05
0.000101565
0.00014725
0.000207237
0.000239398
0.000231854
0.000198661
0.000130488
6.30537e-05
2.86947e-05
1.49617e-05
1.33114e-09
1.09001e-07
4.79707e-07
1.13743e-06
2.61218e-06
6.2198e-06
1.53018e-05
3.57015e-05
5.42242e-05
6.05055e-05
7.90338e-05
0.000101316
0.000121072
0.000146157
0.000195232
0.000164771
9.3149e-05
4.31457e-05
2.00378e-05
1.02053e-05
5.68955e-10
3.23404e-08
1.17158e-07
2.93493e-07
7.12486e-07
1.73467e-06
4.29019e-06
1.0759e-05
2.20597e-05
3.86834e-05
6.06794e-05
7.08957e-05
8.24603e-05
0.000103063
0.000100231
6.98672e-05
3.53526e-05
1.753e-05
8.93959e-06
4.82157e-06
1.31746e-10
2.39942e-09
7.62164e-09
2.16533e-08
5.79043e-08
1.47003e-07
3.6168e-07
8.83511e-07
2.14418e-06
4.44953e-06
8.66704e-06
1.34741e-05
1.57315e-05
1.54291e-05
1.26795e-05
7.8534e-06
4.56806e-06
2.7152e-06
1.53074e-06
1.00047e-06
1.31628e-12
1.55611e-11
4.91658e-11
1.4706e-10
4.03387e-10
1.01705e-09
2.39465e-09
5.49004e-09
1.45991e-08
3.7174e-08
8.54855e-08
1.43289e-07
1.6642e-07
1.48439e-07
9.76659e-08
5.81401e-08
3.85847e-08
2.51389e-08
1.82093e-08
8.15557e-08
0.00127524
0.00201647
0.0034346
0.00609393
0.0101789
0.014875
0.0193075
0.0230633
0.0259978
0.0279532
0.0287288
0.0281382
0.0262397
0.0233008
0.0208761
0.0206823
0.0208275
0.0230682
0.0272808
0.0434748
0.00144173
0.00221267
0.00365538
0.00637869
0.0105656
0.0152578
0.019585
0.0232211
0.0260711
0.0279811
0.0287359
0.0281301
0.0262227
0.0232806
0.020865
0.0206898
0.0208391
0.0231141
0.0271416
0.0424697
0.00155503
0.00229645
0.00374337
0.00649997
0.0106804
0.0153749
0.0196379
0.0232088
0.0260269
0.0279352
0.0287017
0.0281027
0.0262011
0.0232629
0.0208562
0.0206996
0.0208511
0.0231639
0.0271046
0.0415042
0.00157553
0.0022763
0.00369363
0.00645319
0.0106516
0.0153207
0.0195487
0.0230935
0.0259137
0.0278476
0.0286449
0.0280655
0.0261776
0.0232479
0.0208497
0.0207104
0.0208592
0.0232067
0.0271624
0.0408153
0.00150094
0.00214248
0.00350602
0.00624349
0.0104623
0.015142
0.0193574
0.0228999
0.0257453
0.0277281
0.0285729
0.0280241
0.0261559
0.0232367
0.0208452
0.0207211
0.020863
0.0232376
0.0272989
0.0404513
0.00133409
0.00191347
0.00320397
0.00589434
0.010133
0.01485
0.0190838
0.0226525
0.0255468
0.0275938
0.0284959
0.027984
0.0261383
0.0232301
0.0208428
0.0207319
0.0208628
0.0232516
0.027487
0.0404397
0.00110843
0.00161875
0.00281832
0.0054415
0.00969992
0.0144747
0.0187552
0.0223739
0.0253346
0.0274578
0.0284224
0.0279494
0.0261257
0.0232279
0.0208425
0.0207424
0.0208591
0.0232464
0.0276909
0.0407808
0.000859647
0.00129998
0.00239211
0.00492292
0.00919782
0.0140511
0.0183992
0.0220856
0.0251235
0.0273283
0.0283567
0.0279224
0.0261192
0.0232287
0.0208429
0.0207518
0.0208525
0.0232238
0.027872
0.0413561
0.000625886
0.000993694
0.00196621
0.00438107
0.00866381
0.0136092
0.0180416
0.0218086
0.0249288
0.0272152
0.0283049
0.0279065
0.0261201
0.0232327
0.0208433
0.0207594
0.020844
0.0231886
0.0280031
0.0419585
0.000425599
0.00072334
0.00157323
0.00385603
0.0081373
0.0131825
0.0177086
0.0215634
0.0247658
0.0271303
0.0282737
0.0279052
0.0261293
0.0232399
0.0208436
0.020765
0.020835
0.0231425
0.0280652
0.0425219
0.000269579
0.0005039
0.00123678
0.00338122
0.00765341
0.0128002
0.017421
0.0213646
0.0246488
0.0270764
0.0282635
0.0279183
0.0261455
0.023249
0.0208432
0.0207681
0.0208267
0.0230884
0.0280411
0.0429742
0.000158816
0.000338405
0.000967372
0.00297903
0.00723943
0.0124843
0.0171925
0.0212183
0.0245782
0.0270561
0.0282745
0.0279453
0.0261676
0.0232588
0.0208419
0.020768
0.0208206
0.0230314
0.0279176
0.0432096
8.68058e-05
0.000221659
0.00076582
0.00266333
0.0069191
0.0122554
0.0170365
0.0211291
0.0245497
0.0270676
0.0283072
0.0279853
0.0261948
0.023269
0.0208399
0.0207649
0.0208183
0.0229782
0.0276906
0.0430813
4.5718e-05
0.000146681
0.000629181
0.00244242
0.00671103
0.012125
0.016952
0.02109
0.0245566
0.0271026
0.0283573
0.0280357
0.0262256
0.0232787
0.0208375
0.0207583
0.0208213
0.0229367
0.0273725
0.0423878
2.70443e-05
0.000105842
0.000551971
0.00232007
0.00663208
0.0121017
0.0169414
0.0211016
0.0245963
0.02716
0.028421
0.028094
0.0262583
0.0232873
0.0208346
0.0207479
0.0208309
0.0229164
0.0270034
0.0408595
1.7934e-05
8.75414e-05
0.0005273
0.00231884
0.006724
0.0121933
0.0170029
0.0211606
0.0246644
0.0272354
0.0284945
0.028158
0.0262923
0.0232945
0.0208305
0.0207327
0.0208486
0.0229251
0.0266677
0.0381382
1.21585e-05
7.97219e-05
0.000547959
0.00247338
0.00703267
0.0124169
0.0171424
0.0212757
0.0247681
0.0273308
0.0285779
0.0282264
0.0263255
0.0232984
0.0208249
0.0207123
0.020875
0.0229648
0.0264821
0.0337889
7.58665e-06
7.8078e-05
0.0006174
0.00279836
0.0075406
0.0127379
0.0171896
0.0207768
0.0242252
0.0274442
0.0286689
0.028297
0.0263565
0.023298
0.020818
0.0206879
0.020911
0.0230281
0.027485
0.0381775
4.2444e-06
7.94362e-05
0.000741567
0.00330721
0.00820467
0.0125491
0.0163034
0.019915
0.0235162
0.0272801
0.0287652
0.0283679
0.0263842
0.023293
0.0208097
0.0206606
0.0209556
0.023044
0.0283583
0.0448465
2.06578e-06
8.19287e-05
0.000937056
0.00406137
0.00781032
0.0105622
0.0143667
0.0180841
0.0218427
0.0257333
0.028864
0.0284385
0.0264084
0.0232824
0.0207995
0.0206286
0.0210053
0.0229709
0.0278366
0.0429348
1.03945e-06
9.96976e-05
0.00136807
0.00479526
0.00733979
0.0103756
0.0140429
0.0179782
0.0217207
0.0254734
0.0289514
0.0284989
0.026424
0.0232635
0.0207859
0.0205903
0.0210479
0.0228555
0.0270575
0.040695
1.12133e-06
0.000107162
0.00146118
0.0052861
0.0076913
0.0108363
0.014235
0.0181864
0.0217934
0.0254544
0.0290191
0.0285448
0.0264435
0.0232641
0.0207837
0.0205841
0.0210473
0.0228222
0.0269737
0.0404812
1.3e-06
0.000122689
0.00161949
0.00526828
0.00718027
0.0102697
0.0135141
0.0174594
0.0210333
0.0246887
0.0288262
0.0286144
0.0264623
0.0232597
0.0207835
0.0205809
0.0210383
0.0227778
0.0269155
0.0402457
1.53686e-06
0.000142718
0.00181003
0.00521255
0.006931
0.00989558
0.0129391
0.0167335
0.0202011
0.0238003
0.0280055
0.0286816
0.0264775
0.0232544
0.0207845
0.0205804
0.0210292
0.0227352
0.0268668
0.0400344
1.83827e-06
0.00016754
0.00203399
0.005266
0.00686499
0.00972382
0.0125676
0.01618
0.0195048
0.0229911
0.0272094
0.0287403
0.0264871
0.0232482
0.0207874
0.0205828
0.0210211
0.0226938
0.026823
0.0398306
2.21819e-06
0.000197905
0.00229364
0.00535829
0.00686024
0.00963751
0.0123042
0.0157389
0.0189197
0.0222665
0.0263965
0.0287871
0.02649
0.0232412
0.0207926
0.020588
0.0210144
0.0226525
0.0267827
0.0396241
2.69531e-06
0.00023479
0.00259067
0.00548376
0.00689214
0.00960514
0.0121141
0.0153787
0.0184172
0.0216302
0.025615
0.028819
0.0264854
0.0232333
0.0207999
0.0205962
0.0210091
0.0226114
0.0267454
0.039408
3.2929e-06
0.000279327
0.00292533
0.00564072
0.00695162
0.00961431
0.0119811
0.0150902
0.0179909
0.021078
0.0249071
0.0288335
0.0264723
0.0232244
0.0208095
0.020607
0.0210051
0.0225709
0.0267102
0.0391718
4.03927e-06
0.000332763
0.00326785
0.00582953
0.00703395
0.00966015
0.0118994
0.0148699
0.0176426
0.0206084
0.0242871
0.0288281
0.0264501
0.0232145
0.0208212
0.0206204
0.021002
0.022531
0.0266761
0.0389029
4.96845e-06
0.000396396
0.00337809
0.00604673
0.00713682
0.00973973
0.0118659
0.0147161
0.0173712
0.0202243
0.0237739
0.0284519
0.0264186
0.0232036
0.0208348
0.020636
0.0209995
0.0224915
0.0266413
0.0385846
6.12081e-06
0.000471474
0.00348649
0.00628663
0.007259
0.00985055
0.0118781
0.0146267
0.0171749
0.0199238
0.0233673
0.0278385
0.0263776
0.0231922
0.0208501
0.0206534
0.0209972
0.0224516
0.026604
0.0381967
7.54338e-06
0.000559114
0.00360011
0.00654644
0.00739942
0.00999153
0.0119345
0.0145994
0.0170521
0.019705
0.0230651
0.0272719
0.0263276
0.0231801
0.0208666
0.0206721
0.0209942
0.0224105
0.0265614
0.0377154
9.28955e-06
0.000660143
0.00372206
0.00682563
0.0075591
0.0101635
0.0120355
0.0146331
0.0170013
0.0195667
0.0228675
0.0268278
0.0262694
0.0231678
0.020884
0.0206916
0.0209899
0.0223666
0.0265108
0.0371151
1.14176e-05
0.000775075
0.00384743
0.00712483
0.00774043
0.0103693
0.012183
0.0147269
0.0170209
0.0195079
0.0227688
0.0265428
0.0262043
0.0231552
0.0209017
0.0207112
0.0209831
0.0223182
0.0264499
0.0363729
1.39873e-05
0.000904151
0.00397146
0.00744737
0.00794798
0.0106147
0.0123813
0.0148827
0.0171108
0.0195284
0.0227664
0.0264162
0.0261337
0.0231426
0.0209193
0.0207301
0.0209726
0.0222625
0.0263768
0.0354741
1.7053e-05
0.00104773
0.00409381
0.00780295
0.00818959
0.0109108
0.0126381
0.0151069
0.0172752
0.0196299
0.0228591
0.0264417
0.0260596
0.0231301
0.0209359
0.0207475
0.0209566
0.022196
0.0262914
0.0344201
2.06516e-05
0.00120723
0.00421259
0.00821869
0.0084816
0.0112796
0.0129672
0.0154084
0.0175198
0.0198148
0.023044
0.0265947
0.025984
0.0231179
0.020951
0.0207625
0.0209333
0.0221136
0.0261959
0.0332391
2.47814e-05
0.00138729
0.00430248
0.00874004
0.00885357
0.011757
0.0133866
0.0157863
0.0178342
0.0200671
0.0233039
0.0268265
0.025909
0.023106
0.0209637
0.020774
0.0208999
0.0220088
0.0260953
0.0320183
2.93684e-05
0.00160089
0.00431897
0.00869112
0.00914778
0.0121264
0.0137037
0.0160393
0.0180381
0.0202185
0.0234385
0.0268748
0.0258365
0.0230944
0.0209731
0.020781
0.0208536
0.0218733
0.0259985
0.0309748
3.42096e-05
0.00188445
0.00500807
0.00835627
0.00894711
0.011131
0.0129282
0.015274
0.0175034
0.0197669
0.0228323
0.0260941
0.0257679
0.0230826
0.0209785
0.0207824
0.0207914
0.0216966
0.0259197
0.0314401
0.000216561
0.00244771
0.0037228
0.00658569
0.00891342
0.0123533
0.0152127
0.0179347
0.0202776
0.0224416
0.025481
0.0274613
0.025691
0.0230675
0.0209785
0.0207763
0.0207015
0.0214341
0.0258275
0.0326889
0.00137697
0.00224792
0.00330162
0.00511434
0.00767588
0.0110561
0.014793
0.0184492
0.0216971
0.0247455
0.0277891
0.0273841
0.0256743
0.0230784
0.0209874
0.0208104
0.020662
0.0214197
0.0244362
0.0334294
0.00162904
0.00218537
0.00320263
0.00488058
0.00731194
0.0104839
0.0141837
0.0180064
0.0215516
0.0248943
0.0277269
0.0273499
0.0256812
0.0230985
0.0209928
0.0208098
0.0206629
0.0213815
0.023224
0.0337686
0.00168992
0.0022804
0.00324302
0.00483291
0.00720588
0.0103584
0.0141771
0.0181449
0.0219479
0.0255528
0.0276701
0.0273284
0.0256972
0.023124
0.0209996
0.0208101
0.0206707
0.0213399
0.0220947
0.0331693
0.00171672
0.00225268
0.00316211
0.0047285
0.00712179
0.0104617
0.0144215
0.0185424
0.0225572
0.0263536
0.0276216
0.0273208
0.0257227
0.0231517
0.0210033
0.0208046
0.0206768
0.0213239
0.0209289
0.0306781
0.00171424
0.00220965
0.00307141
0.00466869
0.0073085
0.0111787
0.0148426
0.0190308
0.0232038
0.0264379
0.0275883
0.0273277
0.0257566
0.0231812
0.0210048
0.0207959
0.0206819
0.0213629
0.0198783
0.0249057
0.00161921
0.00202011
0.00290183
0.00470685
0.00767437
0.0116149
0.0155553
0.0197231
0.0238549
0.0263788
0.0275727
0.0273487
0.0257973
0.0232113
0.0210042
0.0207848
0.0206853
0.021461
0.0199799
0.0246557
0.00138538
0.0017223
0.00252223
0.00427088
0.00726151
0.0112957
0.0157677
0.0201032
0.0237668
0.0263418
0.0275772
0.0273833
0.0258435
0.0232412
0.0210019
0.0207718
0.020686
0.0215625
0.0201448
0.0245865
0.00122273
0.00151247
0.00223633
0.00391179
0.00689644
0.011008
0.0155735
0.0199867
0.0237092
0.0263314
0.0276029
0.0274305
0.0258939
0.0232701
0.020998
0.0207578
0.0206848
0.0216643
0.020366
0.0246123
0.00110647
0.00135914
0.00202086
0.00363632
0.00661126
0.0107698
0.0154236
0.0199119
0.0236877
0.0263497
0.027648
0.0274879
0.0259467
0.0232972
0.0209928
0.0207433
0.0206828
0.0217688
0.0206518
0.0247451
0.00101591
0.00124471
0.00186207
0.00343178
0.006404
0.010617
0.0153416
0.0198831
0.0237034
0.0263945
0.0277093
0.0275531
0.026
0.0233219
0.0209865
0.020729
0.0206813
0.0218785
0.0210003
0.0250613
0.000940923
0.00115886
0.00175159
0.00329592
0.00627658
0.0105469
0.015337
0.0199216
0.0237644
0.0264649
0.027784
0.0276236
0.0260526
0.0233436
0.0209795
0.0207153
0.0206812
0.0219962
0.0214176
0.0255484
0.000877063
0.00109477
0.00168136
0.00322311
0.00623383
0.0105673
0.0154147
0.0200267
0.0238717
0.0265641
0.0278734
0.0276978
0.0261032
0.0233623
0.0209721
0.0207029
0.0206833
0.0221214
0.021928
0.0262111
0.000822822
0.00104922
0.00164748
0.00321163
0.00627642
0.0106822
0.0155796
0.0201994
0.0240237
0.0266894
0.0279758
0.0277753
0.0261511
0.0233768
0.0209643
0.0206923
0.0206879
0.0222514
0.022552
0.0272104
0.00077843
0.00102105
0.00164791
0.0032619
0.0064083
0.0108954
0.0158309
0.0204358
0.0242164
0.0268374
0.0280879
0.0278539
0.0261956
0.0233871
0.0209553
0.0206836
0.0206946
0.0223799
0.0233048
0.0285849
0.00074569
0.00101067
0.00168212
0.00337536
0.00663349
0.0112087
0.0161652
0.0207288
0.024442
0.0270019
0.0282054
0.027931
0.0262356
0.023393
0.0209449
0.0206771
0.0207023
0.0224956
0.0241794
0.0305047
0.000726969
0.00101928
0.00175097
0.00355522
0.00695603
0.0116205
0.0165736
0.0210665
0.0246902
0.0271751
0.0283237
0.0280044
0.0262707
0.0233945
0.020933
0.0206728
0.0207105
0.0225893
0.0251537
0.0334949
0.000723901
0.0010479
0.00185595
0.00380472
0.00737863
0.0121271
0.0170451
0.0214356
0.0249496
0.0273492
0.0284391
0.0280735
0.0263012
0.0233921
0.0209198
0.0206706
0.0207192
0.0226527
0.0261466
0.0379326
0.000736518
0.00109597
0.00199528
0.00411884
0.00789364
0.0127176
0.0175637
0.0218179
0.0252045
0.0275144
0.0285464
0.0281362
0.0263275
0.0233868
0.0209054
0.0206694
0.020727
0.0226755
0.0269713
0.0442945
0.000753965
0.00114725
0.00213998
0.00444323
0.00842874
0.0133145
0.0180489
0.0221404
0.0253983
0.0276311
0.0286217
0.0281814
0.0263463
0.0233783
0.0208886
0.020667
0.0207331
0.0226405
0.0263805
0.0428775
2.04904e-05
0.000897417
0.0014782
0.00159277
0.00163131
0.00164029
0.00164156
0.00139673
0.00122932
0.00111351
0.00101997
0.000936646
0.000858878
0.000785681
0.000717918
0.000658492
0.000611826
0.00058237
0.000572389
0.00057192
1.12943e-05
0.000637624
0.001458
0.00154762
0.00154003
0.00153352
0.00155735
0.00143697
0.00125948
0.00113862
0.00104083
0.000952265
0.000867433
0.000784266
0.000702818
0.000625992
0.000559071
0.000508114
0.000476998
0.00045769
6.46271e-06
0.000473353
0.00158171
0.00159889
0.00152189
0.00144845
0.00139908
0.00140977
0.0012946
0.00115403
0.00104795
0.000955036
0.000866796
0.000779437
0.000691877
0.000606009
0.000526489
0.000460141
0.000412172
0.000377669
3.22533e-06
0.000337917
0.00172223
0.00169465
0.00155729
0.00141434
0.00129699
0.00123238
0.00130338
0.00117125
0.00105598
0.000960028
0.000870189
0.00078137
0.000691676
0.000601809
0.000515145
0.000438566
0.0003783
0.000332392
1.58929e-06
0.000198979
0.00147093
0.00184489
0.00166543
0.00146118
0.00128668
0.00116658
0.00116286
0.00121622
0.00108885
0.000987309
0.000890793
0.000796187
0.000702959
0.000611216
0.000521609
0.000439113
0.000370715
0.000317379
8.79205e-07
0.000104058
0.000902583
0.00197139
0.00183458
0.00160283
0.00138795
0.00121813
0.00114486
0.00130412
0.00115917
0.00104309
0.000926622
0.000815413
0.000712522
0.000618248
0.000529981
0.000447037
0.000374596
0.000317154
4.99461e-07
5.49927e-05
0.000471331
0.00146765
0.0020303
0.00185181
0.00163565
0.0014449
0.00133171
0.00142607
0.00125785
0.00111975
0.000973822
0.000837352
0.000718426
0.000617253
0.000529318
0.0004483
0.000375045
0.000315501
2.7981e-07
3.03862e-05
0.000252443
0.000828308
0.0015612
0.00199432
0.00191943
0.00177618
0.00167603
0.00154045
0.00136643
0.00119516
0.00101764
0.00085557
0.000718748
0.000607692
0.000516081
0.000435751
0.000363508
0.000303683
1.53075e-07
1.71901e-05
0.000139901
0.000454558
0.000930124
0.00138273
0.00164412
0.00170706
0.00164937
0.00153295
0.0013956
0.00121857
0.00102605
0.00084787
0.000699059
0.000580847
0.000486445
0.000407355
0.000338354
0.000280934
8.1238e-08
9.70888e-06
7.96622e-05
0.000253748
0.000529053
0.000843285
0.0011084
0.00126898
0.00132383
0.00129879
0.00122085
0.00109657
0.000936961
0.000777651
0.000639657
0.000527717
0.000438085
0.000364041
0.000300879
0.000248931
4.12359e-08
5.29872e-06
4.58501e-05
0.000144001
0.000299224
0.000488666
0.000674086
0.000820079
0.000907664
0.00093533
0.000912008
0.000850549
0.000750235
0.000638047
0.000533349
0.000443663
0.000369001
0.000305965
0.000251577
0.000206718
1.96462e-08
2.71642e-06
2.63974e-05
8.36031e-05
0.000172106
0.00028164
0.000395256
0.000494711
0.000566417
0.000603807
0.000607149
0.000584032
0.000534054
0.000470315
0.000404717
0.000343764
0.000289355
0.000240917
0.000197542
0.000160948
8.77658e-09
1.309e-06
1.49905e-05
4.9495e-05
0.00010163
0.000165299
0.000232446
0.000293904
0.000341948
0.000371734
0.000381331
0.000372857
0.000351779
0.000320679
0.000284941
0.000248268
0.000212385
0.000177875
0.000145422
0.00011728
3.72111e-09
5.94976e-07
8.18137e-06
2.96166e-05
6.17524e-05
9.99594e-05
0.000139795
0.000176863
0.000207078
0.00022722
0.000235879
0.00023379
0.000225091
0.0002105
0.000191818
0.000170413
0.000147216
0.000123157
9.97524e-05
7.92696e-05
1.48117e-09
2.45845e-07
4.05864e-06
1.73142e-05
3.80928e-05
6.22912e-05
8.68885e-05
0.000109502
0.00012804
0.000140898
0.000147395
0.000147711
0.000143956
0.000136585
0.000125781
0.000111869
9.56442e-05
7.85635e-05
6.23079e-05
4.84839e-05
5.4012e-10
9.02541e-08
1.64645e-06
8.93119e-06
2.24787e-05
3.87023e-05
5.49175e-05
6.94933e-05
8.13115e-05
8.95884e-05
9.40259e-05
9.46629e-05
9.21619e-05
8.66074e-05
7.79746e-05
6.69739e-05
5.49762e-05
4.34786e-05
3.338e-05
2.5337e-05
1.65761e-10
2.72241e-08
4.96566e-07
3.16433e-06
1.03694e-05
2.08113e-05
3.18075e-05
4.1588e-05
4.92481e-05
5.43079e-05
5.65528e-05
5.58901e-05
5.20753e-05
4.5911e-05
3.83672e-05
3.06443e-05
2.36622e-05
1.78235e-05
1.3088e-05
9.73229e-06
4.06218e-11
6.52366e-09
1.12459e-07
6.7115e-07
2.40917e-06
6.1617e-06
1.0987e-05
1.54709e-05
1.86815e-05
2.02034e-05
1.99604e-05
1.81229e-05
1.52356e-05
1.22451e-05
9.50729e-06
7.1639e-06
5.2583e-06
3.77255e-06
2.63271e-06
2.01293e-06
7.55272e-12
1.18189e-09
1.49351e-08
6.63161e-08
1.97882e-07
4.80472e-07
9.49994e-07
1.38654e-06
1.66845e-06
1.72895e-06
1.57462e-06
1.28706e-06
1.07501e-06
8.72727e-07
6.7504e-07
4.88783e-07
3.40357e-07
2.34393e-07
1.62646e-07
1.31051e-07
7.73777e-13
6.89928e-11
3.02649e-10
9.02604e-10
2.12163e-09
4.15786e-09
7.13659e-09
1.02035e-08
1.20164e-08
1.20773e-08
1.06461e-08
8.50653e-09
6.80266e-09
5.49895e-09
4.37306e-09
3.32439e-09
2.42713e-09
1.73383e-09
1.25099e-09
9.64283e-10
)
;

boundaryField
{
    right
    {
        type            cyclic;
    }
    left
    {
        type            cyclic;
    }
    outerWall
    {
        type            nutkWallFunction;
        Cmu             0.09;
        kappa           0.41;
        E               9.8;
        value           nonuniform List<scalar> 
60
(
0
0
0
0
0
0
0
0
0
0
0
0
0
0
0
0
0
0
2.70133e-05
0
0
0
0
0
0
0
0
0
0
0
0
0
0
0
0
0
0
0
0
0
0
0
0
0
0
0
0
0
0
0
0
0
0
0
0
0
0
0
7.71525e-05
0
)
;
    }
    stirrerWall
    {
        type            nutkWallFunction;
        Cmu             0.09;
        kappa           0.41;
        E               9.8;
        value           uniform 0;
    }
    top
    {
        type            empty;
    }
    bottom
    {
        type            empty;
    }
}


// ************************************************************************* //
