/*--------------------------------*- C++ -*----------------------------------*\
  =========                 |
  \\      /  F ield         | OpenFOAM: The Open Source CFD Toolbox
   \\    /   O peration     | Website:  https://openfoam.org
    \\  /    A nd           | Version:  10
     \\/     M anipulation  |
\*---------------------------------------------------------------------------*/
FoamFile
{
    format      ascii;
    class       volScalarField;
    location    "100";
    object      nut;
}
// * * * * * * * * * * * * * * * * * * * * * * * * * * * * * * * * * * * * * //

dimensions      [0 2 -1 0 0 0 0];

internalField   nonuniform List<scalar> 
420
(
1.40121e-11
1.98457e-09
3.40076e-08
2.01269e-07
6.98741e-07
1.79474e-06
3.61855e-06
5.67911e-06
7.24699e-06
8.19572e-06
1.06892e-11
1.53411e-09
2.54014e-08
1.4933e-07
5.21481e-07
1.33845e-06
2.65115e-06
4.04931e-06
5.03494e-06
5.65499e-06
7.9842e-12
1.14749e-09
1.85268e-08
1.07938e-07
3.77204e-07
9.64152e-07
1.87576e-06
2.78962e-06
3.36667e-06
3.81007e-06
5.92596e-12
8.59337e-10
1.35726e-08
7.7654e-08
2.6782e-07
6.71064e-07
1.26107e-06
1.78659e-06
2.07921e-06
2.44088e-06
4.31805e-12
6.40161e-10
9.88236e-09
5.44224e-08
1.80426e-07
4.30941e-07
7.63101e-07
1.01516e-06
1.15091e-06
1.47467e-06
2.98608e-12
4.52142e-10
6.61501e-09
3.35633e-08
1.03051e-07
2.28144e-07
3.74937e-07
4.75778e-07
5.59696e-07
8.32365e-07
1.88923e-12
2.5872e-10
3.27836e-09
1.43869e-08
3.9937e-08
8.17537e-08
1.26889e-07
1.63744e-07
2.24936e-07
4.24157e-07
9.19572e-13
8.7362e-11
7.92057e-10
2.99404e-09
7.77023e-09
1.52982e-08
2.35866e-08
3.42972e-08
6.66678e-08
1.77524e-07
2.5207e-13
8.0028e-12
5.15501e-11
1.85446e-10
4.79487e-10
9.51208e-10
1.5227e-09
2.71645e-09
1.01995e-08
5.12443e-08
2.7766e-15
5.37619e-14
3.19751e-13
1.15388e-12
3.0354e-12
6.16102e-12
1.02516e-11
2.16061e-11
1.5804e-10
2.90104e-09
1.01101e-05
1.65598e-05
3.86408e-05
9.40466e-05
0.000158322
0.000152862
9.24919e-05
3.74238e-05
8.99521e-06
2.40242e-06
7.3893e-06
1.35528e-05
3.58123e-05
9.34973e-05
0.000159446
0.000152297
9.0942e-05
3.58469e-05
8.54057e-06
2.38792e-06
5.39136e-06
1.12346e-05
3.38291e-05
9.40824e-05
0.000160936
0.00015195
9.06917e-05
3.44547e-05
8.10855e-06
2.40981e-06
3.85701e-06
9.34727e-06
3.24729e-05
9.56469e-05
0.000162467
0.000151555
9.13453e-05
3.33357e-05
7.81184e-06
2.44534e-06
2.68772e-06
7.80294e-06
3.17473e-05
9.8347e-05
0.000163999
0.00015113
9.31377e-05
3.28517e-05
7.68229e-06
2.49592e-06
1.79747e-06
6.53513e-06
3.17288e-05
0.000102371
0.00015281
0.000150981
9.54702e-05
3.28394e-05
7.65721e-06
2.53986e-06
1.11689e-06
5.4986e-06
3.25595e-05
0.000107389
0.000149681
0.000151025
9.79837e-05
3.31384e-05
7.688e-06
2.58644e-06
6.31022e-07
4.6671e-06
3.42304e-05
0.000112681
0.000151309
0.000151237
9.95117e-05
3.3745e-05
7.80649e-06
2.64327e-06
2.90741e-07
4.02101e-06
3.67574e-05
0.000118067
0.000153791
0.000151615
0.000100228
3.46748e-05
8.01885e-06
2.7011e-06
9.60277e-08
3.67692e-06
4.11573e-05
0.000123618
0.000157707
0.000152133
0.000101247
3.5784e-05
8.3139e-06
2.75604e-06
3.52084e-08
4.16319e-06
5.15705e-05
0.00012772
0.000158344
0.000152685
0.000102596
3.69962e-05
8.59103e-06
2.81434e-06
8.97352e-08
6.80823e-06
6.25725e-05
0.000115755
0.000146328
0.000152912
0.000101496
3.73953e-05
8.72528e-06
2.80509e-06
1.75674e-06
2.33865e-05
7.74156e-05
0.000113606
0.000146009
0.000152382
9.75417e-05
3.77586e-05
8.88489e-06
2.78272e-06
1.66556e-05
4.87538e-05
7.86443e-05
0.000117483
0.000155215
0.000152882
0.000102196
3.93665e-05
9.23408e-06
2.82068e-06
3.60884e-05
5.12099e-05
7.73828e-05
0.000117083
0.000157842
0.000153653
0.000103467
4.0846e-05
9.7528e-06
2.84733e-06
3.80942e-05
5.0586e-05
7.54615e-05
0.000117495
0.000160914
0.000154295
0.000105849
4.22841e-05
1.03374e-05
2.85544e-06
3.5855e-05
4.74856e-05
6.96875e-05
0.000112767
0.000159545
0.000154675
0.000108322
4.34952e-05
1.091e-05
2.84366e-06
3.1814e-05
4.10161e-05
6.28985e-05
0.000107978
0.000158187
0.000154744
0.000111833
4.42209e-05
1.13743e-05
2.80696e-06
2.68494e-05
3.49587e-05
5.68383e-05
0.000103898
0.000157226
0.000154804
0.000113627
4.45042e-05
1.1534e-05
2.74408e-06
2.19771e-05
2.96127e-05
5.14571e-05
0.000100343
0.000156966
0.000155014
0.000113031
4.4048e-05
1.13167e-05
2.65314e-06
1.7554e-05
2.47545e-05
4.65501e-05
9.74897e-05
0.000157389
0.00015517
0.000100608
3.53678e-05
1.05631e-05
2.56262e-06
1.37119e-05
2.04473e-05
4.22648e-05
9.52558e-05
0.000158044
0.000154621
9.62762e-05
3.42004e-05
9.6285e-06
2.43128e-06
5.83533e-08
3.31712e-06
1.86401e-05
3.02455e-05
3.05596e-05
2.72384e-05
2.33386e-05
1.92374e-05
1.52386e-05
1.15656e-05
1.14085e-08
1.10579e-06
8.34206e-06
1.86168e-05
2.25114e-05
2.15953e-05
1.91346e-05
1.62403e-05
1.30909e-05
1.00292e-05
2.4842e-09
3.29209e-07
3.22368e-06
9.00887e-06
1.3357e-05
1.44851e-05
1.36365e-05
1.19338e-05
9.84608e-06
7.66832e-06
7.03102e-10
9.83601e-08
1.02405e-06
3.25658e-06
5.81217e-06
7.38736e-06
7.69855e-06
7.12599e-06
6.04344e-06
4.78356e-06
2.07973e-10
3.02496e-08
3.38811e-07
1.12679e-06
2.15376e-06
2.98629e-06
3.36661e-06
3.29483e-06
2.90281e-06
2.35045e-06
5.88892e-11
8.93649e-09
1.09813e-07
3.84791e-07
7.58835e-07
1.08412e-06
1.25518e-06
1.25097e-06
1.12032e-06
9.16873e-07
1.51308e-11
2.38651e-09
3.20735e-08
1.19998e-07
2.41958e-07
3.44116e-07
3.89948e-07
3.76982e-07
3.28798e-07
2.65868e-07
3.22398e-12
5.18578e-10
7.34044e-09
2.80436e-08
5.4294e-08
7.17965e-08
7.51273e-08
6.75925e-08
5.61889e-08
4.4724e-08
4.3973e-13
6.90295e-11
8.21635e-10
2.55747e-09
4.15968e-09
4.86997e-09
4.68269e-09
3.96434e-09
3.24407e-09
2.58538e-09
2.04438e-14
1.85919e-12
7.87555e-12
1.78921e-11
2.75469e-11
3.17614e-11
3.00827e-11
2.53756e-11
2.12e-11
1.74382e-11
)
;

boundaryField
{
    right
    {
        type            cyclic;
    }
    left
    {
        type            cyclic;
    }
    outerWall
    {
        type            nutkWallFunction;
        Cmu             0.09;
        kappa           0.41;
        E               9.8;
        value           uniform 0;
    }
    stirrerWall
    {
        type            nutkWallFunction;
        Cmu             0.09;
        kappa           0.41;
        E               9.8;
        value           uniform 0;
    }
    top
    {
        type            empty;
    }
    bottom
    {
        type            empty;
    }
}


// ************************************************************************* //
