/*--------------------------------*- C++ -*----------------------------------*\
  =========                 |
  \\      /  F ield         | OpenFOAM: The Open Source CFD Toolbox
   \\    /   O peration     | Website:  https://openfoam.org
    \\  /    A nd           | Version:  10
     \\/     M anipulation  |
\*---------------------------------------------------------------------------*/
FoamFile
{
    format      ascii;
    class       volScalarField;
    location    "100";
    object      omega;
}
// * * * * * * * * * * * * * * * * * * * * * * * * * * * * * * * * * * * * * //

dimensions      [0 0 -1 0 0 0 0];

internalField   nonuniform List<scalar> 
420
(
21252.7
3857.31
1369.72
704.619
454.442
338.865
287.822
282.155
314.792
387.654
21253.7
3877.95
1419.47
736.327
471.573
349.365
296.374
291.136
328.508
413.371
21254.2
3920.84
1467.41
772.216
495.669
366.448
310.707
306.84
352.091
453.533
21254
3900.97
1486.99
800.42
521.658
389.071
331.944
331.82
390.802
514.575
21253.2
3831.3
1483.88
828.205
558.531
427.465
371.269
377.773
458.651
611.156
21251.7
3756.66
1513.36
905.958
650.024
520.173
463.31
474.326
576.197
771.272
21249.7
3893.21
1771.63
1201.4
934.8
782.708
704.35
698.101
807.915
1062.55
21247.1
4894.53
2945.64
2272.66
1865.88
1587.89
1401.28
1290.95
1342.77
1692.09
21243.8
10736.9
8262.12
6690.91
5552.93
4698.6
4045.83
3539.63
3169.78
3527.97
78643.9
60596.7
48114.3
39124.4
32436.5
27327.1
23335.9
20159.1
17589.3
15481.3
482.713
549.329
507.077
395.007
315.167
276.831
341.018
465.252
984.981
3581.27
526.521
600.257
535.492
400.918
314.708
276.804
341.096
469.786
1016.52
3581.17
589.204
666.348
566.929
405.655
313.647
277.19
340.856
473.304
1044.27
3581.13
679.94
752.709
600.608
408.306
312.198
277.801
340.443
477.059
1064.04
3581.18
817.672
867.408
635.295
407.914
310.299
278.647
339.987
477.689
1066.91
3581.3
1039.91
1021.27
667.911
403.329
307.548
279.39
339.395
475.661
1060.15
3581.49
1428.86
1227.23
693.44
395.45
304.873
279.932
338.747
472.067
1052.07
3581.76
2125.95
1502.39
710.309
386.074
302.377
280.218
338.082
466.835
1037.99
3582.1
3628.96
1888.87
716.603
375.715
300.293
280.244
337.447
460.252
1017.69
3582.51
7679
2418.22
697.886
364.152
298.813
280.024
337.187
453.807
992.868
3582.99
21359.1
2877.2
613.069
352.302
298.197
279.671
337.199
448.241
974.252
3575.63
21359.1
2313.41
527.571
346.581
298.113
279.044
337.197
448.46
965.556
3575.63
3882.67
884.093
419.643
340.778
297.356
278.274
337.199
449.329
959.367
3582.99
869.831
469.465
383.489
340.024
297.29
276.299
335.422
443.579
949.487
3582.51
446.477
401.749
381.558
343.276
298.612
274.853
334.171
440.111
924.356
3582.1
383.793
396.324
388.115
348.06
300.578
273.685
332.902
437.403
896.44
3581.76
377.944
404.292
398.199
353.958
303.199
273.216
332.091
436.842
872.445
3581.49
383.328
417.298
410.652
360.612
306.315
273.785
331.943
439.441
858.151
3581.3
392.378
433.769
424.815
367.602
309.866
275.099
333.248
444.824
862.997
3581.18
406.88
453.845
441.55
375.564
313.624
276.726
335.64
452.353
880.371
3581.13
427.61
480.461
462.418
384.165
316.397
277.948
338.729
460.342
907.296
3581.17
454.061
513.642
485.964
391.884
317.047
277.611
340.182
463.427
953.256
3581.27
15481.3
2022.69
594.667
383.168
346.703
340.767
341.382
348.017
358.804
372.343
17589.3
2707.02
795.457
421.555
334.079
309.521
301.111
298.818
301.753
307.111
20159.1
3527.47
1102.24
538.247
371.885
313.018
288.935
279.127
276.844
277.59
23335.9
4439.58
1600.05
795.244
502.325
380.309
324.172
297.331
286.809
284.391
27327.1
5259.3
2046.23
1089.68
698.871
513.678
418.485
368.264
344.863
336.702
32436.5
6134.69
2440.63
1360.42
907.045
680.288
557.561
490.801
459.613
449.623
39124.4
7215.74
2853.44
1629.01
1132.37
890.773
765.619
704.216
685.212
687.403
48114.3
8730.21
3457.28
2081.24
1585.29
1379.06
1295.58
1275.67
1298.99
1331.01
60596.7
11145.8
5235.23
3989.74
3674.58
3596.38
3597.65
3643.7
3713.46
3782.51
78643.9
21243.8
21247.1
21249.7
21251.7
21253.2
21254
21254.2
21253.7
21252.7
)
;

boundaryField
{
    right
    {
        type            cyclic;
    }
    left
    {
        type            cyclic;
    }
    outerWall
    {
        beta1           0.075;
        blended         0;
        type            omegaWallFunction;
        value           nonuniform List<scalar> 
22
(
3581.27
3581.17
3581.13
3581.18
3581.3
3581.49
3581.76
3582.1
3582.51
3582.99
3575.63
3575.63
3582.99
3582.51
3582.1
3581.76
3581.49
3581.3
3581.18
3581.13
3581.17
3581.27
)
;
    }
    stirrerWall
    {
        beta1           0.075;
        blended         0;
        type            omegaWallFunction;
        value           nonuniform List<scalar> 
42
(
21252.7
21253.7
21254.2
21254
21253.2
21251.7
21249.7
21247.1
21243.8
78643.9
78643.9
60596.7
48114.3
39124.4
32436.5
27327.1
23335.9
20159.1
17589.3
15481.3
21359.1
21359.1
15481.3
17589.3
20159.1
23335.9
27327.1
32436.5
39124.4
48114.3
60596.7
78643.9
78643.9
21243.8
21247.1
21249.7
21251.7
21253.2
21254
21254.2
21253.7
21252.7
)
;
    }
    top
    {
        type            empty;
    }
    bottom
    {
        type            empty;
    }
}


// ************************************************************************* //
