/*--------------------------------*- C++ -*----------------------------------*\
  =========                 |
  \\      /  F ield         | OpenFOAM: The Open Source CFD Toolbox
   \\    /   O peration     | Website:  https://openfoam.org
    \\  /    A nd           | Version:  10
     \\/     M anipulation  |
\*---------------------------------------------------------------------------*/
FoamFile
{
    format      ascii;
    class       volScalarField;
    location    "100";
    object      omega;
}
// * * * * * * * * * * * * * * * * * * * * * * * * * * * * * * * * * * * * * //

dimensions      [0 0 -1 0 0 0 0];

internalField   nonuniform List<scalar> 
2000
(
86814.7
16310.7
7206.63
5409.59
4476.06
3698.74
3076.88
2606.29
2257.21
2001.81
1819.22
1697.02
1622.78
1583.5
1572.83
1593.1
1647.66
1736.51
1847.83
1957.44
86817.5
15417
6358.06
4730.97
4234.32
3717.94
3203.8
2766.98
2421.54
2161.19
1973.55
1847.08
1769.51
1733.47
1734.88
1776.49
1854.74
1955.74
2055.58
2134.78
86819.6
15371.1
5973.25
4062.98
3772.28
3554.96
3209.47
2851.03
2540.98
2294.36
2111.49
1986.79
1913.47
1890.95
1918.12
1992.29
2091.78
2183.28
2244.48
2287.8
86821.1
15772.1
6092.33
3769.4
3196.87
3171.57
3037.53
2804.85
2565.05
2358.77
2199.86
2095.32
2048.45
2066.98
2144.36
2257.34
2348.05
2380.82
2388.23
2423.14
86821.9
16176.6
6297.26
3715.17
2873.45
2676.34
2688.66
2599.6
2460.02
2321.57
2213.14
2158.95
2187.65
2289.63
2435.1
2544.73
2524.91
2481.92
2518.94
2569
86822.2
16287.3
6344.69
3681.22
2717.52
2314.89
2257.65
2264.12
2229.8
2177.13
2146.98
2190.07
2363.06
2616.73
2717.94
2623.43
2554.22
2582.38
2655.58
2703.69
86821.8
16166.1
6210.21
3574.04
2601.33
2128.28
1943.06
1927.96
1951.2
1983.12
2050.91
2228.34
2567.53
2715.44
2633.98
2531.43
2556.38
2669.8
2782.94
2857.24
86820.7
15807.3
5928.96
3408.61
2477.95
2005.28
1758.17
1698.96
1736.03
1828.88
2010.91
2314.51
2584.03
2605.31
2526.7
2536.21
2656.55
2787.33
2908.18
3018.4
86819.1
15286.6
5600.95
3254.41
2372.99
1898.86
1643.25
1562.43
1613.57
1772.31
2041.99
2335.77
2515.39
2540.26
2554.59
2652.89
2779.42
2872.63
3024.87
3204.71
86816.8
14746.8
5330.9
3177.23
2325.4
1817.65
1549.1
1477.86
1555.56
1784.41
2081.63
2328
2442.62
2475.66
2539.39
2663.58
2764.04
2904.36
3144.37
3415.52
86813.9
14458.5
5227.8
3230.57
2372.11
1785.1
1475.57
1421.19
1537.79
1808.27
2082.59
2276.48
2366.03
2420.67
2531.28
2657.62
2733.27
2919.91
3255.6
3642.3
86810.3
14156.5
5252.12
3437
2555.83
1848.03
1460.03
1419.42
1536.69
1810.34
2070.22
2234.94
2299.39
2372.12
2502.57
2610.29
2650.96
2899.1
3361.84
3890.57
86806.2
13919.5
5445.44
3815.75
2895.95
2059.38
1540.08
1450.7
1552.42
1808.03
2045.29
2181.36
2231.02
2308.97
2436.29
2491.39
2520.32
2875.54
3498.17
4184.63
86801.4
13812.7
5874.9
4439.7
3459.41
2448.67
1716.56
1521.07
1604.52
1825.33
2020.96
2124.44
2156.83
2226.49
2338.66
2342.77
2374.23
2891.1
3724.52
4581.58
86796
13934.8
6665.13
5447.96
4382.45
3124.63
2095.67
1689.3
1704.66
1859.57
2006.3
2084.08
2095.51
2143.75
2220.06
2210.53
2358.17
3094.49
4161.32
5189.03
86790.1
14486.1
8103.43
7161.96
6013.15
4426.28
2928.31
2103.52
1947.28
1981.11
2055.45
2104.44
2107.14
2128.63
2146.45
2151.11
2567.32
3655.74
5001.5
6211.52
86783.5
16117.4
11009
10401.7
9198.82
7231.96
5022.69
3311.06
2706.24
2451.88
2350.46
2339.13
2342.24
2352.32
2357.2
2468.35
3410.33
5019.93
6611.42
7959.11
86776.4
21997.8
18469.7
17856.7
16415.6
13964.3
10820.6
7619.81
5803.63
4703.31
3974.46
3702.19
3633.96
3645.09
3784.96
4526.56
6459.74
8437.55
9819.84
11142.9
86768.7
51605.3
47321.4
43442.6
39547.2
35317.1
30577
25556.3
21178.3
17957.2
15261.4
13672.9
13004.2
12781.8
13000.2
14680.4
16524
17135.6
17059.7
19008.6
338081
294034
258064
228311
203421
182390
164459
149047
135704
124076
113880
104892
96926.8
89835.7
83495.2
77802.9
72673.5
68035.1
63826.9
59997.5
2031.98
2043.41
1962.87
1768.65
1523.17
1310.7
1147.84
1019.93
911.599
815.269
730.567
661.558
624.132
661.607
848.535
1208.8
1796.9
3037.28
6028.38
14006
2171.81
2141.7
2009.45
1762.26
1489.04
1278.22
1126.71
1008.15
905.188
811.656
728.6
660.66
624.089
662.233
849.948
1211.25
1800.17
3037.04
5993.07
14005.7
2298.36
2238.17
2055.71
1758.98
1466.01
1254.69
1110.85
998.876
899.833
808.519
726.897
659.943
624.158
662.875
851.265
1213.78
1804.14
3039.54
5964.43
14005.5
2427.25
2333.7
2102.11
1759.65
1446.81
1236.19
1098.13
991.081
895.093
805.632
725.298
659.273
624.236
663.49
852.47
1216.2
1808.47
3045.56
5946.41
14005.4
2555.63
2434.73
2159.44
1770.18
1434.52
1221.68
1087.81
984.599
891.092
803.125
723.916
658.742
624.379
664.086
853.527
1218.44
1813
3055.19
5942.34
14005.3
2693.68
2559.78
2238.09
1794.56
1430.12
1211.57
1079.96
979.491
887.825
801.071
722.829
658.416
624.615
664.664
854.419
1220.47
1817.53
3067.74
5952.62
14005.3
2859.98
2718.56
2346.6
1835.91
1434.06
1205.93
1074.68
975.933
885.527
799.604
722.083
658.254
624.91
665.236
855.136
1222.24
1821.89
3082.41
5977.19
14005.4
3062.29
2925.48
2493.21
1896.83
1446.4
1204.41
1071.87
973.939
884.206
798.74
721.671
658.256
625.224
665.757
855.716
1223.71
1825.87
3098.13
6012.63
14005.6
3312.01
3189.52
2683.56
1978.69
1466.9
1206.8
1071.5
973.536
883.903
798.525
721.632
658.456
625.581
666.198
856.116
1224.96
1829.34
3113.85
6052.95
14005.8
3609.81
3519.11
2923.48
2082.37
1495.17
1212.95
1073.64
974.826
884.696
799.015
722.02
658.885
626.013
666.603
856.377
1225.99
1832.27
3129.06
6097.14
14006.1
3959.88
3924.42
3217.03
2207.13
1530.1
1222.34
1078.1
977.658
886.482
800.154
722.786
659.507
626.498
666.984
856.536
1226.78
1834.64
3143.3
6144.64
14006.5
4370.72
4416.03
3564.68
2349.56
1569.62
1234.1
1084.41
981.804
889.118
801.855
723.884
660.302
627.042
667.368
856.654
1227.33
1836.44
3156.11
6195.06
14006.9
4862.65
5008.15
3962.9
2503.76
1610.98
1247.26
1092.18
987.032
892.501
803.994
725.23
661.252
627.654
667.791
856.806
1227.64
1837.72
3167.01
6248.15
14007.5
5479.73
5718.41
4401.05
2659.64
1649.57
1259.98
1100.38
992.656
896.186
806.36
726.688
662.307
628.329
668.278
857.02
1227.77
1838.54
3175.41
6303.93
14008.1
6304.75
6569.51
4861.62
2803.29
1679.13
1270.21
1107.96
998.053
899.802
808.734
728.206
663.427
629.066
668.833
857.277
1227.77
1838.95
3180.74
6363.29
14008.7
7636.34
7668.83
5312.09
2897.6
1687.58
1275.49
1113.62
1002.39
902.872
810.868
729.663
664.59
629.842
669.415
857.658
1227.65
1839.12
3182.28
6427.87
14009.5
9950.55
9162.21
5685.14
2882.49
1661.41
1272.73
1116.42
1004.87
904.834
812.457
730.877
665.68
630.593
670.029
858.195
1227.43
1839.26
3179.39
6495.5
16439.5
14382.8
11109
5868.17
2747.48
1604.54
1263.15
1116.67
1005.6
905.505
813.328
731.762
666.662
631.299
670.671
858.907
1227.18
1839.66
3171.25
6369.91
16474.4
23337.9
13406.3
5784.97
2518.53
1530.35
1249.91
1114.92
1004.78
905.04
813.462
732.275
667.517
631.953
671.342
859.795
1226.92
1840.49
3163.43
6181.2
14012.1
41252.3
16210.5
5433.48
2216.71
1451.93
1234.91
1111.07
1002.26
903.474
812.878
732.419
668.254
632.565
672.042
860.832
1226.44
1841.42
3151.36
6144.16
14013.1
85702.6
18156.7
4432.79
1867.79
1379.64
1216.24
1103.08
996.801
900.127
811.207
731.929
668.659
633.049
672.76
862.173
1226.01
1842.5
3130.03
6077.73
14005.5
85639
18092
4282.38
1825.59
1371.16
1212.35
1100.02
994.24
898.148
809.718
730.826
667.894
632.526
672.556
862.359
1225.31
1841.97
3126.25
6079.03
13999.8
85582.4
17594.1
4068.35
1777.11
1361.66
1206.63
1094.73
989.607
894.427
806.785
728.546
666.23
631.495
672.302
862.789
1224.78
1841.56
3124.26
6090.59
13994.6
85533
16952.6
3840.18
1728.61
1351.49
1200.2
1088.77
984.425
890.262
803.508
726.006
664.383
630.386
672.057
863.258
1224.33
1841.22
3123.19
6105.82
13990.2
85490.7
16235.3
3606.58
1680.41
1340.65
1193.23
1082.39
978.903
885.821
800.024
723.31
662.434
629.247
671.823
863.739
1223.94
1840.98
3122.87
6123.99
13986.4
85455.4
15465.6
3373.17
1633.5
1329.47
1185.94
1075.78
973.191
881.207
796.399
720.493
660.41
628.088
671.594
864.215
1223.63
1840.86
3123.23
6144.93
13983.2
85427.3
14654.5
3144.46
1588.89
1318.24
1178.57
1069.1
967.408
876.501
792.69
717.587
658.327
626.916
671.366
864.673
1223.37
1840.88
3124.36
6168.44
13980.6
85406.1
13810.5
2924.32
1547.37
1307.26
1171.31
1062.52
961.674
871.785
788.954
714.639
656.202
625.731
671.136
865.104
1223.17
1841.05
3126.4
6194.2
13978.7
85392
12941.8
2716.07
1509.53
1296.79
1164.4
1056.21
956.108
867.141
785.247
711.691
654.055
624.537
670.899
865.495
1223.01
1841.4
3129.4
6221.66
13977.4
85385
12058.1
2522.37
1475.79
1287.09
1158.04
1050.33
950.834
862.654
781.627
708.79
651.907
623.341
670.647
865.839
1222.89
1841.92
3133.34
6250.01
13976.8
85385
11169.8
2344.86
1446.33
1278.39
1152.48
1045.07
945.975
858.411
778.15
705.982
649.78
622.15
670.369
866.13
1222.79
1842.64
3138.2
6278.13
13976.8
85392
10287.7
2185.07
1421.21
1270.93
1147.93
1040.6
941.657
854.499
774.875
703.307
647.697
620.971
670.06
866.356
1222.72
1843.55
3143.89
6304.53
13977.4
85406.1
9421.47
2044.07
1400.38
1264.92
1144.59
1037.09
937.998
850.999
771.853
700.802
645.69
619.813
669.715
866.506
1222.66
1844.66
3150.29
6327.33
13978.7
85427.3
8578.92
1922.18
1383.71
1260.58
1142.66
1034.68
935.11
847.989
769.136
698.503
643.792
618.683
669.331
866.569
1222.61
1845.97
3157.26
6344.26
13980.6
85455.4
7763.85
1819
1371.01
1258.08
1142.32
1033.52
933.093
845.536
766.769
696.439
642.03
617.587
668.903
866.535
1222.56
1847.48
3164.62
6352.66
13983.2
85490.7
6974.95
1733.43
1361.99
1257.57
1143.72
1033.73
932.034
843.702
764.79
694.633
640.423
616.531
668.43
866.394
1222.51
1849.18
3172.17
6349.6
13986.4
85533
6204.52
1663.86
1356.36
1259.16
1146.98
1035.4
932.007
842.536
763.232
693.105
638.987
615.52
667.91
866.139
1222.45
1851.06
3179.7
6332.01
13990.2
85582.4
5437.63
1608.42
1353.82
1262.95
1152.22
1038.62
933.07
842.076
762.12
691.87
637.729
614.557
667.339
865.764
1222.37
1853.12
3187.03
6296.94
13994.6
85639
4650.01
1565.15
1354.05
1268.99
1159.49
1043.43
935.261
842.349
761.472
690.936
636.655
613.646
666.72
865.269
1222.26
1855.34
3194.11
6242.09
13999.8
85702.6
3803.88
1532.36
1356.67
1277.21
1168.76
1049.81
938.563
843.344
761.283
690.299
635.761
612.788
666.053
864.662
1222.13
1857.75
3200.99
6167.13
14005.5
16181.4
2650.86
1504.98
1362
1288.69
1181.03
1058.43
943.31
845.191
761.578
689.942
634.988
611.886
665.225
863.774
1221.79
1860.17
3207.24
6071.09
14013.1
2559.83
1558.36
1406.53
1364.76
1303.57
1197.23
1069.03
948.878
847.718
762.766
691.059
635.728
612.09
664.79
861.342
1222.81
1847.17
3227.53
6179.87
14012.1
1444.41
1365.89
1359.69
1357.28
1312.84
1210.61
1079.56
955.575
851.8
765.548
693.317
637.286
612.642
664.259
860.057
1221.83
1842.73
3243.14
6368.17
14011.1
1271.06
1290.85
1328
1351.78
1322.21
1223.71
1090.05
962.526
856.329
768.861
695.949
639.033
613.179
663.499
858.483
1220.07
1839.51
3251.17
6613.2
14010.3
1201.9
1250.82
1309.81
1351.87
1334.23
1238.15
1101.41
970.189
861.572
772.88
699.041
640.989
613.764
662.639
856.68
1217.98
1835.64
3251.78
6875.41
14009.5
1163.11
1226.5
1299.59
1356.15
1348.51
1253.92
1113.67
978.682
867.699
777.598
702.513
643.125
614.414
661.744
854.754
1215.75
1831.49
3246.34
7131.7
17076.9
1141.42
1213.24
1295.92
1363.73
1364.39
1270.66
1126.86
988.253
874.796
782.883
706.236
645.392
615.13
660.868
852.796
1213.47
1827.13
3232.62
7090.33
16994.4
1132.1
1208.38
1297.48
1374.06
1382.47
1289.76
1142
999.162
882.652
788.526
710.139
647.752
615.922
660.059
850.892
1211.22
1822.88
3219.52
7038.24
16884.2
1132.61
1211.02
1304.65
1388.99
1404.54
1311.82
1158.89
1010.96
890.934
794.355
714.095
650.146
616.804
659.37
849.116
1209.1
1818.77
3207.27
6993.58
16791.5
1141.32
1220.98
1318.68
1408.99
1428.87
1335.03
1176.35
1022.97
899.283
800.159
718.019
652.532
617.761
658.835
847.53
1207.17
1814.83
3195.57
6957.52
16723.2
1158.29
1238.29
1339.11
1433.06
1454.55
1357.4
1192.84
1034.57
907.343
805.774
721.822
654.858
618.776
658.479
846.189
1205.5
1811.07
3183.69
6924.88
16686
1183
1262.72
1365.8
1461.12
1480.92
1378.39
1207.64
1044.83
914.628
810.987
725.404
657.086
619.842
658.327
845.135
1204.14
1807.5
3170.56
6888.88
16681.8
1215.86
1294.7
1399.33
1493.57
1507.64
1397.12
1220
1053.4
920.951
815.605
728.586
659.124
620.94
658.389
844.399
1203.12
1804.16
3155.7
6843.19
16692
1257.87
1335.52
1441.06
1530.81
1534.21
1412.76
1229.22
1059.91
926.081
819.505
731.312
660.905
621.978
658.644
844.039
1202.48
1801.11
3139.18
6782.86
16696.8
1310.61
1387.2
1492.5
1573.02
1559.74
1424.27
1234.66
1064.04
929.832
822.557
733.513
662.376
622.903
658.987
843.957
1202.23
1798.44
3121.34
6704.01
16684.3
1376.92
1452.45
1555.07
1619.77
1582.68
1430.39
1235.77
1065.54
932.064
824.672
735.129
663.494
623.684
659.394
844.14
1202.38
1796.27
3102.47
6594.65
16639.7
1460.89
1534.67
1630.01
1669.78
1600.65
1429.67
1232.04
1064.25
932.693
825.803
736.127
664.248
624.315
659.847
844.562
1202.91
1794.74
3083.74
6463.3
16562.6
1567.19
1637.71
1717.54
1719.91
1610.44
1420.84
1223.29
1060.24
931.746
825.954
736.518
664.657
624.807
660.339
845.209
1203.8
1793.86
3065.94
6309.03
16463.1
1699.67
1765.05
1813.85
1762.97
1607.28
1402.29
1209.21
1053.44
929.209
825.116
736.295
664.715
625.163
660.885
846.072
1204.98
1793.22
3049.96
6119.13
14005.7
1843.77
1908.74
1906.74
1787.19
1582.39
1368.3
1186.57
1042.16
924.124
822.713
735.134
664.268
625.31
661.448
847.116
1206.4
1793.21
3035.08
6054.32
14006
59997.5
5508.12
1695.48
1291.45
1178
1118.63
1083.61
1065.12
1059.66
1064.25
1077.77
1099.09
1127.93
1164.92
1211.37
1269.85
1344.78
1442.84
1571.96
1724.8
63826.9
6990.89
1944.39
1335.28
1175.75
1093.62
1043.32
1014.23
1002.04
1004.24
1016.29
1036.38
1063.65
1097.67
1138.92
1189.71
1254.6
1340.52
1455.95
1598.04
68035.1
8312.08
2208.56
1399.81
1196.41
1094.31
1030.21
991.2
972.027
971.183
983.614
1005.16
1033.37
1066.61
1104.31
1148.02
1201.94
1273.13
1370.74
1495.12
72673.5
9764.12
2535.87
1487.75
1236.28
1117.36
1042
994.128
968.476
964.042
977.914
1003.28
1035.29
1071.19
1108.83
1148.06
1192.01
1248.12
1326.81
1431.51
77802.9
12489.6
3055.15
1611.83
1289.18
1153.29
1069.2
1013.82
982.024
974.122
989.65
1020.12
1056.8
1097.51
1139.07
1179.21
1218.04
1261.94
1322.77
1408.02
83495.2
16276.9
4275.93
1858.29
1369.43
1197.07
1101.32
1038.56
1000.94
989.021
1008.53
1044.06
1083.76
1129.39
1177.9
1224.69
1266.52
1305.6
1352.04
1417.6
89835.7
19971.4
6338.32
2593.57
1585.55
1273.11
1143.22
1064.24
1014.65
994.615
1020.75
1067.84
1112.22
1164.11
1222.09
1277.88
1327.48
1369.52
1408.82
1456.08
96926.8
22821.1
8557.15
3793.94
2119.56
1508.52
1258.48
1129.73
1052.85
1013.59
1031.39
1084.35
1138.14
1201.22
1270.94
1336.03
1393.18
1442.17
1484.14
1521.72
104892
24879.5
10600.6
5285.69
3013.8
2008.31
1542.72
1307.77
1179.63
1113.92
1101.76
1136.28
1195.37
1265.22
1338.78
1407.5
1468.27
1522.32
1572.35
1613.77
113880
26310.4
12257.4
6801.82
4151.91
2793.48
2073.68
1679.57
1458.48
1339
1288.71
1290.4
1333.69
1394.94
1460.26
1521.87
1577.92
1631
1686.76
1738.81
124076
27402.8
13481.7
8156.04
5365.83
3773.51
2835.7
2273.21
1933.71
1733.83
1626.26
1578.16
1584.04
1616.25
1658.46
1701.95
1745.18
1792.61
1851.16
1915.63
135704
28392.4
14195.6
9157.94
6440.64
4776.43
3712.73
3022.69
2573.9
2286.19
2108.45
2001.46
1952.81
1937.45
1939.99
1952.28
1974.17
2012.93
2075.49
2156.13
149047
29335.7
14331.6
9680.44
7200
5611.53
4533.14
3786.33
3267.11
2908.8
2668.04
2510.17
2401.26
2330
2284.32
2260
2261.11
2296.44
2372.7
2480.55
164459
30570.3
13955.4
9640.44
7521.21
6132.58
5140.77
4413.76
3877.34
3486.91
3206.65
3006.24
2851.03
2733.61
2649.55
2602.8
2603.35
2658.81
2771.32
2923.28
182390
32727.8
13514.2
9109.73
7346.64
6243.95
5425.75
4790.59
4300.25
3923.55
3634.45
3413.13
3235.7
3099.46
3012.22
2987.19
3034.41
3154.33
3333.73
3538.51
203421
36064.7
13781.6
8506.78
6799.59
5939.98
5335.21
4853.89
4462.14
4144.26
3889.37
3687.29
3535.56
3447.5
3441.32
3527.49
3696.81
3927.39
4180.82
4402.06
228311
40728.3
15392.1
8805.77
6506.63
5568.57
5067.38
4725.38
4462.29
4254.17
4095.46
3992.21
3988.91
4100.05
4319.53
4620.18
4955.92
5276.69
5538.74
5636.3
258064
46633.6
18496.4
11263.4
8324.02
6766.37
6040.77
5696.56
5532.36
5475.54
5506.46
5634.73
5951.66
6379.6
6853.13
7322.22
7749.04
8070.24
8289.04
7998.83
294034
53728.3
26973.7
21116.2
18334.3
16331.5
14998.2
14612.4
14522.3
14587.2
14751.1
14946.7
15009.4
15276.2
15740.5
16393.2
17123.5
17683.1
18092.9
17425.9
338081
86768.7
86776.4
86783.5
86790.1
86796
86801.4
86806.2
86810.3
86813.9
86816.8
86819.1
86820.7
86821.8
86822.2
86821.9
86821.1
86819.6
86817.5
86814.7
)
;

boundaryField
{
    right
    {
        type            cyclic;
    }
    left
    {
        type            cyclic;
    }
    outerWall
    {
        beta1           0.075;
        blended         0;
        type            omegaWallFunction;
        value           nonuniform List<scalar> 
60
(
14006
14005.7
14005.5
14005.4
14005.3
14005.3
14005.4
14005.6
14005.8
14006.1
14006.5
14006.9
14007.5
14008.1
14008.7
14009.5
16439.5
16474.4
14012.1
14013.1
14005.5
13999.8
13994.6
13990.2
13986.4
13983.2
13980.6
13978.7
13977.4
13976.8
13976.8
13977.4
13978.7
13980.6
13983.2
13986.4
13990.2
13994.6
13999.8
14005.5
14013.1
14012.1
14011.1
14010.3
14009.5
17076.9
16994.4
16884.2
16791.5
16723.2
16686
16681.8
16692
16696.8
16684.3
16639.7
16562.6
16463.1
14005.7
14006
)
;
    }
    stirrerWall
    {
        beta1           0.075;
        blended         0;
        type            omegaWallFunction;
        value           nonuniform List<scalar> 
100
(
86814.7
86817.5
86819.6
86821.1
86821.9
86822.2
86821.8
86820.7
86819.1
86816.8
86813.9
86810.3
86806.2
86801.4
86796
86790.1
86783.5
86776.4
86768.7
338081
338081
294034
258064
228311
203421
182390
164459
149047
135704
124076
113880
104892
96926.8
89835.7
83495.2
77802.9
72673.5
68035.1
63826.9
59997.5
85702.6
85639
85582.4
85533
85490.7
85455.4
85427.3
85406.1
85392
85385
85385
85392
85406.1
85427.3
85455.4
85490.7
85533
85582.4
85639
85702.6
59997.5
63826.9
68035.1
72673.5
77802.9
83495.2
89835.7
96926.8
104892
113880
124076
135704
149047
164459
182390
203421
228311
258064
294034
338081
338081
86768.7
86776.4
86783.5
86790.1
86796
86801.4
86806.2
86810.3
86813.9
86816.8
86819.1
86820.7
86821.8
86822.2
86821.9
86821.1
86819.6
86817.5
86814.7
)
;
    }
    top
    {
        type            empty;
    }
    bottom
    {
        type            empty;
    }
}


// ************************************************************************* //
