/*--------------------------------*- C++ -*----------------------------------*\
  =========                 |
  \\      /  F ield         | OpenFOAM: The Open Source CFD Toolbox
   \\    /   O peration     | Website:  https://openfoam.org
    \\  /    A nd           | Version:  10
     \\/     M anipulation  |
\*---------------------------------------------------------------------------*/
FoamFile
{
    format      ascii;
    class       volScalarField;
    location    "100";
    object      p;
}
// * * * * * * * * * * * * * * * * * * * * * * * * * * * * * * * * * * * * * //

dimensions      [0 2 -2 0 0 0 0];

internalField   nonuniform List<scalar> 
2000
(
0.0603383
148.532
295.204
478.32
691.683
925.274
1173.94
1433.27
1699
1967.66
2237.14
2505.68
2771.93
3035.68
3296.23
3551.99
3801.31
4040.82
4270.84
4495.52
6.67128
149.14
286.765
461.022
665.336
891.163
1134.25
1390.27
1655.09
1924.64
2196.04
2467.24
2736.75
3004.49
3268.54
3525.48
3774.51
4015.13
4248.58
4478
11.0698
151.563
282.062
447.324
641.463
857.545
1092.66
1343.3
1605.19
1874.25
2146.88
2420.43
2693.37
2965.52
3233.13
3491.45
3742.13
3986.97
4226.49
4462.19
13.1997
153.069
277.953
434.455
618.296
824.016
1049.45
1292.66
1550.01
1817.3
2090.56
2366.45
2643.4
2920.26
3191.11
3452.05
3707.02
3958.48
4206.03
4448.57
14.0037
153.248
273.427
421.858
595.726
791.11
1006.39
1240.82
1492.04
1756.18
2029.08
2307.13
2588.77
2870.41
3144.47
3409.86
3671.77
3931.89
4187.61
4436.26
14.0335
152.351
268.342
409.325
573.911
759.709
965.577
1190.9
1434.9
1694.65
1966.14
2246.27
2532.54
2818.54
3096.78
3369.15
3639.76
3907.74
4171.06
4426.18
13.8905
150.843
262.844
396.904
553.157
730.67
928.51
1145.72
1382.45
1637.14
1906.66
2188.38
2478.4
2768.49
3051.91
3331.87
3611.4
3888.26
4159.17
4418.94
14.0329
149.334
257.365
384.989
533.683
704.289
895.745
1106.66
1337.19
1587.13
1854.65
2137.01
2429.32
2723.11
3012.73
3302.57
3592.21
3875.89
4150.86
4413.13
14.7431
148.266
252.303
374.084
515.892
680.83
867.6
1074.17
1300.08
1546.29
1811.87
2094.21
2388.61
2687.8
2986.37
3285.25
3580.81
3868.3
4146.73
4411.06
16.2007
147.985
248.102
364.782
500.69
661.125
844.789
1048.7
1271.7
1515.4
1779.8
2063.07
2361.77
2667.36
2972.64
3277.55
3578.11
3868.63
4147.52
4411.09
18.6279
148.952
245.533
358.038
489.68
646.858
828.602
1030.91
1252.69
1495.33
1760.21
2046.11
2349.18
2660.34
2970.8
3278.92
3580.64
3870.84
4148.76
4412.11
22.146
151.768
245.966
355.606
484.805
640.172
820.796
1022.45
1244.62
1487.71
1754.45
2044
2351.66
2666.13
2976.97
3283.58
3584.71
3876.07
4155.12
4418.55
26.5923
156.864
251.038
359.979
488.598
643.954
824.324
1026.15
1249
1493.23
1763.32
2056.58
2365.76
2679.39
2987.84
3292.16
3593.18
3885.64
4164.46
4426.87
31.5863
164.378
261.54
372.491
503.003
660.471
841.642
1043.62
1266.34
1512.37
1786.19
2082.84
2392.62
2703.09
3004.99
3302.38
3600.2
3892.35
4171.84
4435.87
36.6854
173.911
277.181
393.18
527.713
688.429
871.944
1074.43
1297.84
1547.51
1825.28
2123.59
2429.63
2731.02
3021.5
3309.44
3603.99
3897.67
4179.59
4446.13
41.1213
184.398
296.573
420.542
561.681
726.339
913.462
1118.74
1345.79
1601.37
1883.19
2180.49
2478.78
2768.13
3046.46
3323.07
3609.68
3900.59
4183.12
4454.61
43.9236
194.457
317.527
451.339
601.383
772.55
965.314
1176.74
1410.85
1672.4
1953.15
2241.64
2526.72
2802.11
3068.95
3334.07
3609.48
3897.04
4184.6
4463.27
44.2725
202.891
337.285
481.489
641.105
820.228
1019.9
1239.23
1479.95
1743.24
2015.99
2290.59
2562.73
2826.14
3080.97
3334.54
3597.49
3876.81
4166.97
4456.27
42.0737
209.317
352.789
505.857
674.257
860.933
1066.44
1290.35
1532.63
1791.59
2055.14
2315.23
2569.29
2814.69
3053.49
3295.91
3549.17
3820.03
4110.94
4413.76
38.9386
215.303
362.793
521.189
695.259
886.993
1096.64
1323.09
1564.46
1817.26
2073.04
2320.37
2555.57
2782.84
3008.21
3241.34
3490.1
3760.15
4050.72
4355.29
4719.18
4947.04
5180.23
5413.28
5639.82
5857.48
6068.86
6277.66
6486.25
6696.42
6909.81
7129.05
7356.34
7598.11
7856.21
8156.39
8478.44
8936.48
9308.9
10290.5
4706.66
4938.98
5175.23
5409.74
5636.68
5854.55
6066.37
6275.62
6484.5
6694.78
6908.18
7127.5
7354.93
7596.8
7854.99
8154.78
8477.39
8935.12
9310.08
10286.5
4696.26
4932.47
5170.98
5406.21
5633.04
5850.9
6063.13
6272.93
6482.29
6692.95
6906.65
7126.28
7353.96
7596.03
7854.41
8154.18
8477.05
8935.08
9311.22
10283.1
4687.45
4926.81
5166.89
5402.24
5628.61
5846.38
6059.09
6269.55
6479.55
6690.76
6904.92
7124.97
7352.91
7595.18
7853.81
8153.61
8476.83
8934.98
9311.87
10281.2
4679.56
4921.73
5162.75
5397.72
5623.44
5841.11
6054.33
6265.53
6476.26
6688.15
6902.86
7123.38
7351.58
7594.13
7853.05
8152.89
8476.81
8935.04
9312.31
10279.8
4673.38
4917.16
5158.29
5392.54
5617.53
5835.13
6048.91
6260.92
6472.5
6685.19
6900.53
7121.59
7350.11
7593.05
7852.3
8152.18
8476.88
8935.05
9312.51
10278.6
4668.15
4912.6
5153.59
5386.96
5611.18
5828.77
6043.2
6256.11
6468.64
6682.22
6898.23
7119.88
7348.77
7592.19
7851.7
8151.56
8477.03
8934.9
9312.63
10277.7
4663.9
4908.77
5149.19
5381.44
5604.92
5822.62
6037.75
6251.55
6464.99
6679.44
6896.12
7118.39
7347.65
7591.57
7851.27
8151.07
8477.39
8934.6
9312.91
10276.9
4661.87
4905.72
5145.1
5376.23
5599.16
5817.1
6032.88
6247.48
6461.74
6677
6894.31
7117.22
7346.84
7591.3
7851.06
8150.86
8478.11
8934.34
9313.54
10276.1
4660.49
4903.31
5141.97
5371.98
5594.31
5812.45
6028.79
6244.1
6459.06
6675
6892.9
7116.43
7346.31
7591.26
7850.97
8150.88
8479.12
8933.97
9314.59
10275.3
4661.53
4903.84
5141.2
5369.42
5590.86
5809.01
6025.72
6241.63
6457.15
6673.64
6892
7116.02
7345.94
7591.3
7850.79
8150.85
8479.91
8932.97
9315.93
10274.4
4666.69
4907.16
5142.4
5368.46
5588.93
5807.09
6024.01
6240.34
6456.24
6673.17
6891.9
7116.29
7346.07
7591.78
7850.74
8150.76
8480.19
8930.97
9317.47
10273.3
4673.89
4913.06
5145.77
5369.36
5588.65
5806.72
6023.66
6240.25
6456.43
6673.72
6892.7
7117.39
7347.04
7593.2
7851.33
8151.15
8480.44
8928.55
9319.71
10271.9
4684.29
4922.48
5151.49
5372.4
5590.33
5808.2
6024.83
6241.35
6457.5
6674.99
6894.16
7119.16
7348.82
7595.66
7852.86
8152.9
8481.97
8927.24
9323.45
10269.7
4697.08
4934.36
5159.19
5377.68
5593.85
5811.24
6027.3
6243.6
6459.51
6676.99
6896.14
7121.3
7350.95
7598.53
7854.84
8156.17
8485.37
8927.47
9328.9
10266.6
4712.21
4948.51
5167.98
5384.46
5598.38
5815.17
6030.61
6246.77
6462.42
6679.76
6898.63
7123.68
7353.04
7601.03
7856.21
8159.74
8488.48
8926.72
9335.09
10263.1
4728.97
4961.78
5173.98
5390.31
5602.7
5819.54
6034.71
6250.93
6466.39
6683.54
6902
7126.77
7355.62
7603.59
7857.14
8162.69
8488.05
8921.73
9341.89
10259.8
4735.82
4966.28
5172.62
5392.48
5605.41
5823.22
6038.59
6255.1
6470.56
6687.84
6906.35
7131.34
7360.28
7608.32
7860.74
8167.53
8486.11
8915.3
9357.05
10249.5
4720.75
4960.23
5167.36
5391.73
5606.47
5825.17
6040.84
6257.59
6473.37
6691.27
6910.84
7137.12
7367.8
7616.47
7870.09
8177.91
8493.07
8920.65
9395.17
10212.8
4695.26
4966.85
5168.77
5395.66
5609.15
5828.52
6043.46
6260.05
6475.49
6693.81
6914.17
7142.14
7374.24
7625.04
7879.77
8192.96
8507.46
8958.24
9423.08
10174.2
4682.76
5009.51
5165.57
5412.12
5612.79
5837.54
6048.88
6266.67
6479.93
6698.27
6915.87
7145.28
7372.02
7630.54
7876.2
8210.6
8488.34
9017.06
9338.81
10266.1
4682.88
5019.39
5164.76
5415.35
5613.12
5839.03
6049.66
6267.71
6480.47
6698.69
6915.39
7144.79
7370.01
7630.22
7873.1
8212.65
8481.28
9027.7
9319.12
10287.4
4685.56
5028.07
5164.91
5418.62
5613.94
5840.74
6050.76
6269.02
6481.31
6699.34
6915.15
7144.38
7368.12
7629.69
7868.34
8214.21
8472.6
9037.76
9303.47
10303.2
4688.62
5035.7
5165.5
5421.7
5614.86
5842.37
6051.86
6270.29
6482.16
6699.99
6914.96
7143.99
7366.3
7629.02
7863.84
8215.53
8464.3
9047.53
9288.47
10317.5
4691.88
5042.5
5166.39
5424.55
5615.8
5843.86
6052.92
6271.54
6483.05
6700.64
6914.82
7143.63
7364.6
7628.29
7859.51
8216.66
8456.29
9056.23
9274.04
10331.2
4695.44
5048.64
5167.58
5427.18
5616.76
5845.27
6054
6272.81
6484
6701.34
6914.77
7143.31
7363
7627.51
7855.36
8217.59
8448.5
9063.92
9259.95
10344.2
4699.39
5054.28
5169.1
5429.64
5617.79
5846.65
6055.17
6274.17
6485.09
6702.13
6914.83
7143.07
7361.51
7626.71
7851.39
8218.35
8440.88
9071.11
9245.97
10356.7
4703.83
5059.57
5170.99
5432
5618.99
5848.11
6056.52
6275.72
6486.38
6703.09
6915.06
7142.91
7360.16
7625.88
7847.59
8218.93
8433.39
9078.03
9232.03
10368.9
4708.89
5064.66
5173.35
5434.4
5620.48
5849.79
6058.17
6277.53
6487.95
6704.24
6915.47
7142.85
7358.93
7625.02
7843.94
8219.32
8426
9084.74
9218.04
10380.8
4714.69
5069.7
5176.25
5436.97
5622.42
5851.85
6060.26
6279.7
6489.85
6705.65
6916.09
7142.89
7357.83
7624.11
7840.41
8219.46
8418.74
9091.25
9203.9
10392.7
4721.33
5074.86
5179.85
5439.91
5625.02
5854.47
6062.92
6282.34
6492.14
6707.32
6916.92
7143.01
7356.84
7623.13
7836.98
8219.33
8411.68
9097.59
9189.5
10404.8
4728.83
5080.28
5184.29
5443.41
5628.47
5857.82
6066.29
6285.51
6494.84
6709.25
6917.94
7143.2
7355.94
7622.07
7833.66
8218.93
8404.89
9103.83
9174.69
10417.3
4737.08
5086.07
5189.73
5447.69
5632.95
5862.06
6070.45
6289.24
6497.94
6711.43
6919.12
7143.43
7355.08
7620.88
7830.38
8218.27
8398.2
9109.97
9159.22
10430.2
4745.86
5092.24
5196.33
5452.94
5638.62
5867.27
6075.39
6293.46
6501.33
6713.74
6920.4
7143.66
7354.22
7619.53
7827.14
8217.38
8391.39
9115.85
9142.9
10443.9
4754.78
5098.68
5204.18
5459.23
5645.5
5873.39
6080.99
6298.01
6504.85
6716.04
6921.63
7143.78
7353.32
7618
7824.08
8216.17
8384.64
9121.26
9126.07
10458.1
4762.97
5105.13
5213.18
5466.49
5653.42
5880.21
6086.99
6302.6
6508.2
6718.06
6922.63
7143.65
7352.33
7616.25
7821.33
8214.46
8378.67
9126.61
9109.18
10472.9
4768.67
5111.35
5222.94
5474.53
5661.98
5887.36
6092.94
6306.84
6511.03
6719.52
6923.1
7143.05
7350.96
7614.26
7818.38
8212.24
8373.35
9133.78
9090.16
10490.2
4770.19
5117.28
5233.26
5483.15
5670.75
5894.33
6098.29
6310.26
6512.92
6720.08
6922.69
7141.74
7348.78
7611.92
7814.1
8210
8366.25
9144.4
9063.4
10513.3
4771.23
5122.7
5245.37
5491.97
5679.57
5900.39
6102.37
6312.18
6513.42
6719.4
6921.31
7139.6
7346.12
7609.07
7809.39
8207.66
8357.13
9152.25
9031.71
10536.4
4785.04
5125.52
5259.89
5498.82
5687.51
5904.15
6104.6
6312.11
6512.62
6717.75
6919.84
7137.32
7345.09
7605.8
7809.85
8202.3
8357.19
9137.34
9026.6
10532.9
4899.94
5114.84
5301.45
5506.25
5704.57
5907.63
6107.55
6309.08
6509.92
6713.21
6918.54
7132.23
7350.3
7593.34
7837.31
8157.86
8428.51
8974.04
9214.46
10379.4
4899.51
5102
5302.66
5503.68
5703.96
5904.3
6104.37
6305.08
6506.77
6710.63
6917.99
7132.01
7354.21
7593.25
7847.07
8146.89
8468.85
8933.5
9303.98
10327.3
4875.75
5087.08
5293.75
5497.33
5699.17
5899.76
6100.14
6301.13
6503.55
6708.36
6917
7132.16
7355.96
7595.38
7851.64
8150.47
8477.16
8933.16
9337.76
10310.7
4854.13
5070.22
5280.97
5488
5692.16
5894.3
6095.68
6297.59
6500.95
6706.8
6916.55
7132.83
7357.64
7598.04
7854.94
8155.2
8482.63
8939.37
9344.21
10301
4838.64
5055.85
5268.99
5478.61
5685.04
5888.83
6091.43
6294.37
6498.72
6705.57
6916.33
7133.58
7359.26
7600.45
7857.89
8158.88
8485.95
8942.9
9347.58
10296.5
4827.88
5044.79
5259.15
5470.65
5678.95
5884.31
6088.08
6291.93
6497.14
6704.86
6916.49
7134.55
7360.97
7602.74
7860.51
8161.93
8488.49
8945.08
9347.81
10292.8
4820.68
5036.95
5251.9
5464.71
5674.51
5881.21
6085.98
6290.55
6496.39
6704.77
6917.07
7135.76
7362.71
7604.86
7862.83
8164.46
8490.24
8946.57
9348.3
10290.5
4816.15
5031.88
5247.2
5460.94
5671.9
5879.68
6085.22
6290.31
6496.56
6705.35
6918.09
7137.18
7364.43
7606.75
7864.79
8166.49
8491.38
8947.73
9347.46
10288.2
4813.44
5028.82
5244.5
5459.01
5670.91
5879.49
6085.62
6291.08
6497.57
6706.56
6919.51
7138.75
7366.07
7608.35
7866.33
8167.89
8491.87
8948.53
9345.63
10286
4811.61
5026.94
5243.05
5458.35
5671.13
5880.35
6086.88
6292.59
6499.19
6708.23
6921.23
7140.45
7367.68
7609.8
7867.57
8168.72
8491.76
8948.49
9341.78
10285.9
4809.78
5025.4
5242.2
5458.47
5672.1
5881.86
6088.64
6294.46
6501.1
6710.12
6923.06
7142.19
7369.32
7611.29
7868.78
8169.4
8491.52
8947.89
9337.52
10289.8
4807.35
5023.58
5241.34
5458.72
5673.29
5883.59
6090.53
6296.34
6502.94
6711.9
6924.73
7143.74
7370.82
7612.71
7870.01
8170.23
8491.66
8947.71
9335.53
10292.3
4803.88
5021.04
5239.97
5458.56
5674.14
5885.03
6092.16
6297.95
6504.46
6713.3
6925.98
7144.86
7371.85
7613.65
7870.87
8171.04
8492.05
8947.66
9333.84
10294.4
4798.94
5017.27
5237.56
5457.53
5674.23
5885.77
6093.17
6299.03
6505.51
6714.25
6926.8
7145.52
7372.33
7613.89
7870.99
8171.2
8491.87
8947.33
9333.09
10296.1
4792.36
5011.9
5233.59
5455.07
5673.01
5885.33
6093.11
6299.18
6505.78
6714.61
6927.23
7145.97
7372.73
7614.1
7871.03
8170.95
8491.03
8947.97
9335.4
10292.4
4784.12
5004.72
5227.77
5450.74
5669.89
5883
6091.27
6297.71
6504.7
6713.97
6927.12
7146.44
7373.77
7615.6
7872.83
8172.37
8491.5
8950.52
9336.31
10290.4
4774.01
4995.52
5219.84
5444.2
5664.43
5878.26
6087.08
6294.1
6501.76
6711.84
6925.93
7146.33
7374.9
7617.99
7876.34
8176.11
8495.26
8954.77
9334.1
10294
4761.94
4984.12
5209.47
5435
5656.29
5871
6080.71
6288.6
6497.03
6707.78
6922.49
7143.5
7372.77
7616.6
7875.63
8175.64
8496.56
8956.25
9330.36
10292.5
4747.88
4970.4
5196.91
5424.03
5646.95
5863
6073.85
6282.58
6491.43
6702.13
6916.3
7136.41
7364.59
7607.14
7865.21
8165.17
8486.86
8947.47
9318.66
10287.8
4733.22
4957.24
5186.76
5417
5642.29
5859.43
6070.51
6279.2
6487.84
6698.1
6911.5
7130.59
7357.7
7599.28
7856.95
8157.28
8478.78
8938.45
9310.82
10289.9
4732.52
4683.26
4647.41
4626.06
4613.16
4605.28
4600.49
4597.68
4596.13
4594.97
4593.31
4590.63
4586.52
4580.62
4573.01
4563.92
4553.3
4541.04
4527.42
4512.71
4409.33
4399.47
4386.36
4377.78
4373.39
4371.78
4371.64
4372.04
4372.56
4372.77
4371.84
4369.33
4364.78
4358.07
4349.54
4339.63
4328.6
4316.47
4303.61
4289.74
4028.63
4073.78
4095.69
4108.47
4117.98
4125.99
4132.69
4137.87
4141.59
4143.98
4144.4
4142.45
4137.81
4130.56
4121.11
4110.05
4098.13
4085.66
4073.07
4059.85
3653.02
3736.94
3788.7
3823.78
3849.35
3868.89
3884.02
3895.32
3903.25
3908.5
3910.98
3910.18
3905.94
3898.48
3888.16
3875.67
3862.16
3848.05
3833.7
3819.51
3295.4
3399.7
3475.3
3530.08
3571.08
3602.42
3626.52
3644.58
3657.38
3665.94
3670.92
3671.69
3668.19
3660.86
3650.01
3636.37
3621.13
3604.61
3587.02
3570.31
2953.8
3067.66
3161.91
3232.84
3287.02
3329.05
3361.62
3386.3
3404.06
3416.06
3423.47
3425.93
3423.45
3416.62
3405.78
3391.66
3375.35
3357.19
3337.11
3317.1
2633.88
2746.83
2853.39
2935.98
3000.68
3051.58
3091.35
3121.83
3144.15
3159.39
3169.04
3173.4
3172.42
3166.59
3156.33
3142.34
3125.66
3106.56
3084.71
3061.08
2339.8
2442.52
2552.91
2642.63
2715.02
2772.73
2818.2
2853.38
2879.58
2897.84
2909.67
2915.91
2916.41
2911.62
2902.2
2888.79
2872.1
2852.13
2828.53
2801.69
2069.91
2156.84
2264.11
2357.02
2433.24
2495.14
2544.51
2583.05
2612.17
2632.95
2646.75
2654.72
2656.71
2653.06
2644.49
2631.61
2614.81
2593.9
2568.56
2538.98
1822.49
1892.28
1990.25
2080.86
2157.16
2220.73
2272.18
2312.82
2344.03
2366.92
2382.55
2392.08
2395.53
2393.02
2385.18
2372.4
2354.79
2332.47
2305.25
2273.23
1595.53
1648.07
1730.29
1814.71
1888.93
1951.31
2002.91
2044.38
2076.7
2100.86
2117.75
2128.31
2132.69
2130.76
2122.94
2109.81
2091.61
2068.43
2039.81
2005.81
1385.04
1421.26
1485.01
1558.39
1627.57
1687.78
1737.86
1778.84
1811.18
1835.67
1853.01
1863.98
1868.78
1867.15
1859.37
1846.09
1827.64
1803.75
1774.01
1738.54
1187.11
1209.27
1254.2
1313.19
1373.82
1429.11
1476.91
1516.48
1548.14
1572.43
1589.75
1600.71
1605.55
1604.02
1596.23
1582.84
1564.1
1539.61
1509.21
1473.12
998.835
1010.18
1038.3
1080.71
1129.29
1177.28
1220.84
1257.67
1287.78
1311.48
1328.49
1339.23
1343.96
1342.41
1334.63
1321.22
1302.31
1277.66
1247.37
1212.01
818.84
822.607
837.451
863.681
897.891
935.069
971.541
1004.67
1032.57
1054.36
1070.19
1080.45
1085.05
1083.6
1076.1
1063.03
1044.56
1020.83
992.156
959.44
646.727
645.622
650.992
663.83
683.644
708.216
734.908
761.05
784.529
804.023
818.797
828.349
832.321
830.605
823.571
811.629
794.96
773.745
748.537
720.372
482.434
478.546
477.316
480.199
488.24
501.08
517.454
535.43
552.941
568.249
580.198
588.084
591.435
590.122
584.348
574.276
560.217
542.592
522.153
499.993
327.964
321.96
315.355
310.694
310.261
314.516
322.636
333.059
344.114
354.35
362.681
368.372
371.013
370.581
367.138
360.692
351.23
338.965
324.268
308.473
184.534
174.215
163.031
154.458
150.695
151.675
155.993
161.948
168.21
173.889
178.469
181.741
183.738
184.432
183.5
180.692
175.827
168.979
160.663
152.92
40.0342
19.2233
2.26441
-7.423
-11.7828
-12.468
-10.661
-7.54296
-4.20255
-1.38641
0.561387
1.62661
2.06532
2.15965
2.0016
1.46676
0.365366
-1.43525
-3.16884
-2.49966
)
;

boundaryField
{
    right
    {
        type            cyclic;
    }
    left
    {
        type            cyclic;
    }
    outerWall
    {
        type            zeroGradient;
    }
    stirrerWall
    {
        type            zeroGradient;
    }
    top
    {
        type            empty;
    }
    bottom
    {
        type            empty;
    }
}


// ************************************************************************* //
