/*--------------------------------*- C++ -*----------------------------------*\
  =========                 |
  \\      /  F ield         | OpenFOAM: The Open Source CFD Toolbox
   \\    /   O peration     | Website:  https://openfoam.org
    \\  /    A nd           | Version:  10
     \\/     M anipulation  |
\*---------------------------------------------------------------------------*/
FoamFile
{
    format      ascii;
    class       volScalarField;
    location    "100";
    object      p;
}
// * * * * * * * * * * * * * * * * * * * * * * * * * * * * * * * * * * * * * //

dimensions      [0 2 -2 0 0 0 0];

internalField   nonuniform List<scalar> 
420
(
0.0245353
15.987
32.2535
50.7425
70.6562
91.4464
112.741
134.009
154.809
174.537
0.575916
15.6978
31.5316
49.6729
69.3724
90.131
111.62
133.234
154.397
174.422
0.672193
15.4225
30.8774
48.6467
68.099
88.8188
110.488
132.424
153.949
174.309
0.563562
15.1611
30.3213
47.7352
66.9181
87.5442
109.315
131.528
153.421
174.149
0.428781
14.9601
29.8771
46.9496
65.8298
86.2812
108.053
130.487
152.745
173.884
0.311923
14.8561
29.5649
46.2912
64.8181
85.001
106.648
129.215
151.833
173.465
0.217061
14.8659
29.3991
45.7632
63.8752
83.6783
105.052
127.627
150.615
172.917
0.13832
14.9981
29.3918
45.3725
63.0098
82.313
103.246
125.625
148.926
172.081
0.0299034
15.2734
29.5483
45.141
62.2961
81.03
101.343
123.182
146.312
169.901
-0.190932
15.6553
29.6971
44.956
61.7344
79.9829
99.6655
120.72
142.909
165.832
192.542
209.147
224.405
238.019
249.994
260.934
267.734
277.003
279.959
286.285
192.605
209.251
224.439
237.994
249.954
260.911
268.013
277.889
282.976
291.505
192.723
209.453
224.618
238.187
250.201
261.24
268.668
279.316
286.598
295.845
192.843
209.697
224.866
238.504
250.635
261.824
269.659
281.399
290.866
298.755
192.922
209.937
225.154
238.92
251.22
262.638
270.938
283.8
294.732
301.61
192.949
210.142
225.467
239.437
251.931
263.637
272.488
286.363
298.028
304.163
193.035
210.289
225.708
239.99
252.734
264.783
274.233
289.016
300.976
306.209
193.201
210.337
225.716
240.448
253.584
266.06
276.135
291.758
304.051
308.102
192.778
210.521
225.791
240.909
254.512
267.456
278.219
295.033
308.268
309.243
191.141
211.467
226.623
241.647
255.52
268.873
280.315
298.955
312.106
309.801
190.669
212.187
227.611
242.499
256.32
269.999
281.056
301.942
312.06
307.939
191.899
212.393
228.243
242.905
256.593
270.327
281.404
301.908
310.004
306.714
197.524
213.392
228.99
243.577
257.183
270.641
282.258
299.919
308.766
309.059
197.146
213.257
228.936
243.647
257.253
270.524
281.991
298.701
308.071
308.48
195.84
212.533
228.46
243.293
256.894
270.012
281.214
297.424
306.439
306.911
194.76
211.654
227.751
242.651
256.212
269.171
280.059
295.544
303.789
304.308
193.97
210.868
226.982
241.853
255.332
268.19
278.853
293.445
300.484
301.261
193.407
210.242
226.277
241.035
254.381
267.156
277.558
291.088
297.593
301.157
193.031
209.81
225.732
240.311
253.424
265.932
275.633
287.83
295.887
307.678
192.786
209.522
225.305
239.637
252.388
264.302
272.452
282.639
292.736
315.754
192.594
209.274
224.866
238.887
251.229
262.525
269.033
277.818
286.075
298.677
192.509
209.115
224.485
238.224
250.288
261.335
267.757
277.145
281.814
275.638
181.876
179.322
177.672
176.742
176.133
175.689
175.356
175.088
174.833
174.653
156.485
156.865
156.996
156.949
156.816
156.611
156.345
156.015
155.601
155.191
129.678
132.5
134.633
135.761
136.297
136.45
136.313
135.949
135.381
134.719
105.376
108.599
111.783
113.808
114.972
115.508
115.559
115.231
114.6
113.756
83.8063
86.3752
89.4748
91.8306
93.3561
94.1742
94.4071
94.1601
93.537
92.6188
64.4673
66.1977
68.5853
70.6459
72.1426
73.0281
73.3578
73.2015
72.6501
71.7877
47.1263
48.1287
49.5914
50.9952
52.0865
52.7615
53.0222
52.8987
52.434
51.7017
31.6796
32.101
32.6859
33.272
33.7529
34.0435
34.0946
33.9031
33.4944
32.9325
18.14
17.9709
17.8385
17.7489
17.6788
17.573
17.3894
17.1155
16.7565
16.3624
5.69898
4.55342
3.5466
2.88879
2.43201
2.05248
1.68593
1.31973
0.962871
0.591869
)
;

boundaryField
{
    right
    {
        type            cyclic;
    }
    left
    {
        type            cyclic;
    }
    outerWall
    {
        type            zeroGradient;
    }
    stirrerWall
    {
        type            zeroGradient;
    }
    top
    {
        type            empty;
    }
    bottom
    {
        type            empty;
    }
}


// ************************************************************************* //
