/*--------------------------------*- C++ -*----------------------------------*\
  =========                 |
  \\      /  F ield         | OpenFOAM: The Open Source CFD Toolbox
   \\    /   O peration     | Website:  https://openfoam.org
    \\  /    A nd           | Version:  10
     \\/     M anipulation  |
\*---------------------------------------------------------------------------*/
FoamFile
{
    format      ascii;
    class       surfaceScalarField;
    location    "100";
    object      phi;
}
// * * * * * * * * * * * * * * * * * * * * * * * * * * * * * * * * * * * * * //

dimensions      [0 3 -1 0 0 0 0];

internalField   nonuniform List<scalar> 
3880
(
1.22797e-06
-3.60994e-05
4.73219e-06
-2.39985e-05
1.38806e-05
-1.36832e-05
2.60773e-05
5.82309e-06
3.84679e-05
2.8432e-05
4.86249e-05
4.51178e-05
5.62743e-05
5.25234e-05
6.16488e-05
5.21075e-05
6.49986e-05
4.59412e-05
6.68052e-05
3.53898e-05
6.73728e-05
2.20177e-05
6.69802e-05
6.72901e-06
6.53756e-05
-1.00066e-05
6.25982e-05
-2.77879e-05
5.87802e-05
-4.43061e-05
5.37696e-05
-5.85259e-05
4.74631e-05
-6.96972e-05
3.93575e-05
-7.84107e-05
2.90819e-05
-8.60303e-05
-9.44719e-05
1.7711e-05
8.42935e-08
-3.61505e-05
1.76757e-06
-2.57014e-05
9.6008e-06
-2.1445e-05
2.23076e-05
-6.83022e-06
3.60897e-05
1.47076e-05
4.80146e-05
3.32072e-05
5.71346e-05
4.34492e-05
6.36181e-05
4.55713e-05
6.77544e-05
4.18409e-05
6.98587e-05
3.33378e-05
7.02976e-05
2.159e-05
6.92578e-05
7.82745e-06
6.67198e-05
-7.42262e-06
6.29234e-05
-2.40122e-05
5.76511e-05
-3.90626e-05
5.04158e-05
-5.13441e-05
4.08887e-05
-6.02666e-05
2.90023e-05
-6.66004e-05
1.58014e-05
-7.28984e-05
-8.25919e-05
3.92817e-06
-2.94e-07
-3.59095e-05
7.97645e-08
-2.61316e-05
4.14894e-06
-2.55285e-05
1.29293e-05
-1.56686e-05
2.6256e-05
1.46525e-06
4.02407e-05
1.92039e-05
5.17272e-05
3.19464e-05
6.00335e-05
3.72878e-05
6.55646e-05
3.63311e-05
6.84778e-05
3.03872e-05
6.91545e-05
2.0871e-05
6.80266e-05
8.96545e-06
6.49634e-05
-4.40374e-06
5.99385e-05
-1.907e-05
5.2457e-05
-3.16336e-05
4.18882e-05
-4.07793e-05
2.82743e-05
-4.66472e-05
1.28038e-05
-5.11567e-05
-1.53235e-06
-5.86545e-05
-7.28987e-05
-1.13433e-05
3.74226e-07
-3.62438e-05
9.63465e-07
-2.67903e-05
3.12461e-06
-2.76583e-05
8.012e-06
-2.05753e-05
1.72029e-05
-7.75355e-06
2.98181e-05
6.58228e-06
4.21091e-05
1.95735e-05
5.17624e-05
2.75626e-05
5.83467e-05
2.97306e-05
6.18908e-05
2.68743e-05
6.26306e-05
2.01545e-05
6.09043e-05
1.06864e-05
5.67658e-05
-3.01225e-07
4.96338e-05
-1.19119e-05
3.89298e-05
-2.08805e-05
2.42478e-05
-2.60915e-05
6.9156e-06
-2.93366e-05
-9.81478e-06
-3.4453e-05
-2.12309e-05
-4.72115e-05
-6.87243e-05
-2.53488e-05
8.84644e-07
-3.7142e-05
2.23916e-06
-2.82504e-05
4.15891e-06
-2.96308e-05
7.25404e-06
-2.36758e-05
1.21045e-05
-1.26428e-05
2.03974e-05
-1.70781e-06
3.077e-05
9.1976e-06
3.99804e-05
1.84062e-05
4.64518e-05
2.32613e-05
4.97669e-05
2.35322e-05
4.99007e-05
2.00369e-05
4.68024e-05
1.38406e-05
4.03452e-05
6.16085e-06
2.9743e-05
-1.29064e-06
1.49049e-05
-5.98119e-06
-3.54523e-06
-7.57417e-06
-2.17856e-05
-1.09991e-05
-3.44567e-05
-2.16793e-05
-3.82032e-05
-4.34157e-05
-7.17358e-05
-3.52275e-05
1.1362e-06
-3.82978e-05
2.99067e-06
-3.00465e-05
5.32093e-06
-3.18927e-05
7.84606e-06
-2.62581e-05
1.08033e-05
-1.57172e-05
1.4818e-05
-5.77984e-06
2.09924e-05
2.99568e-06
2.74831e-05
1.19698e-05
3.21047e-05
1.87089e-05
3.37628e-05
2.1943e-05
3.18091e-05
2.20413e-05
2.56737e-05
2.00017e-05
1.49813e-05
1.68492e-05
-7.41328e-07
1.44533e-05
-1.97632e-05
1.31145e-05
-3.85509e-05
1.12679e-05
-5.13588e-05
1.81401e-06
-5.36429e-05
-1.94497e-05
-4.7653e-05
-4.95074e-05
-7.93111e-05
-4.01734e-05
1.19243e-06
-3.94981e-05
3.14946e-06
-3.20532e-05
5.74192e-06
-3.44925e-05
8.51396e-06
-2.90903e-05
1.11216e-05
-1.83714e-05
1.28153e-05
-7.45983e-06
1.51008e-05
7.81546e-07
1.74887e-05
9.63911e-06
1.86341e-05
1.76207e-05
1.71847e-05
2.34387e-05
1.18037e-05
2.74095e-05
9.19379e-07
3.0806e-05
-1.64607e-05
3.41572e-05
-3.95887e-05
3.75554e-05
-6.20908e-05
3.56076e-05
-7.25308e-05
2.16525e-05
-6.84442e-05
-2.36064e-06
-5.99094e-05
-2.80692e-05
-5.21616e-05
-5.72889e-05
-8.70526e-05
-4.44106e-05
1.00389e-06
-4.0506e-05
2.6542e-06
-3.37867e-05
5.19829e-06
-3.7049e-05
8.13649e-06
-3.19714e-05
1.07052e-05
-2.09042e-05
1.20054e-05
-8.75983e-06
1.22154e-05
6.09632e-07
1.14531e-05
1.03828e-05
8.78268e-06
2.03006e-05
3.68048e-06
2.85682e-05
-5.36241e-06
3.64278e-05
-2.06463e-05
4.59911e-05
-4.20468e-05
5.54958e-05
-6.04005e-05
5.59221e-05
-6.9233e-05
4.44736e-05
-7.19815e-05
2.43931e-05
-6.93802e-05
-4.96918e-06
-6.2653e-05
-3.4788e-05
-5.50233e-05
-6.49019e-05
-9.46136e-05
-4.74562e-05
6.02158e-07
-4.10798e-05
1.74724e-06
-3.49328e-05
3.89931e-06
-3.92071e-05
6.65683e-06
-3.46829e-05
9.31527e-06
-2.35795e-05
1.04752e-05
-9.95262e-06
1.00015e-05
1.125e-06
8.1282e-06
1.23211e-05
3.05403e-06
2.5462e-05
-4.55914e-06
3.62512e-05
-1.64972e-05
4.83597e-05
-3.25648e-05
6.20235e-05
-4.97339e-05
7.27326e-05
-6.61694e-05
7.24743e-05
-7.75428e-05
5.59322e-05
-7.90548e-05
2.59262e-05
-7.07119e-05
-1.33321e-05
-6.16885e-05
-4.38504e-05
-5.42155e-05
-7.24108e-05
-0.000101021
-4.78453e-05
8.65871e-09
-4.10659e-05
4.7682e-07
-3.53729e-05
1.95972e-06
-4.07241e-05
4.19232e-06
-3.69244e-05
6.71635e-06
-2.61295e-05
8.09334e-06
-1.12923e-05
7.73133e-06
1.5604e-06
5.48294e-06
1.47333e-05
-2.84433e-07
3.13694e-05
-9.84333e-06
4.58829e-05
-2.34459e-05
6.19898e-05
-4.03971e-05
7.90467e-05
-5.65125e-05
8.89543e-05
-6.85483e-05
8.45801e-05
-7.31553e-05
6.05511e-05
-7.12343e-05
2.396e-05
-6.44193e-05
-2.01958e-05
-5.84831e-05
-4.98403e-05
-5.25081e-05
-7.84175e-05
-0.000107042
-4.64745e-05
-8.08912e-07
-4.02729e-05
-1.24622e-06
-3.49223e-05
-7.88108e-07
-4.12147e-05
6.50835e-07
-3.83562e-05
2.8851e-06
-2.831e-05
4.45584e-06
-1.27257e-05
4.2903e-06
1.79597e-06
1.5468e-06
1.76234e-05
-3.98618e-06
3.70096e-05
-1.39374e-05
5.5865e-05
-2.63811e-05
7.44617e-05
-3.93425e-05
9.20744e-05
-5.07521e-05
0.000100425
-5.86897e-05
9.2511e-05
-6.30568e-05
6.48725e-05
-6.23153e-05
2.3203e-05
-5.81317e-05
-2.43526e-05
-5.28274e-05
-5.51198e-05
-4.69869e-05
-8.42228e-05
-0.000112578
-4.13696e-05
-1.86182e-06
-3.84401e-05
-3.75064e-06
-3.30088e-05
-4.53388e-06
-4.0414e-05
-3.82477e-06
-3.90156e-05
-2.28618e-06
-2.97606e-05
-1.24691e-06
-1.36629e-05
-1.54509e-06
2.09499e-06
-3.36767e-06
1.94503e-05
-6.50935e-06
4.01745e-05
-1.41737e-05
6.3553e-05
-2.46586e-05
8.49806e-05
-3.57268e-05
0.000103189
-4.48103e-05
0.000109538
-4.99913e-05
9.76912e-05
-5.20431e-05
6.6932e-05
-4.91358e-05
2.03346e-05
-4.54099e-05
-2.80406e-05
-4.11342e-05
-5.94075e-05
-3.61471e-05
-8.92585e-05
-0.000116788
-3.1961e-05
-3.01872e-06
-3.54334e-05
-6.45107e-06
-2.95431e-05
-8.54974e-06
-3.82588e-05
-8.71388e-06
-3.88228e-05
-7.22192e-06
-3.1234e-05
-5.38499e-06
-1.55581e-05
-5.35828e-06
2.00645e-06
-6.3911e-06
2.04544e-05
-8.2623e-06
4.20875e-05
-1.32655e-05
6.86342e-05
-1.9861e-05
9.16801e-05
-2.62791e-05
0.000109674
-3.0635e-05
0.000113893
-3.32429e-05
0.000100278
-3.3633e-05
6.7294e-05
-3.20792e-05
1.87133e-05
-3.02945e-05
-2.98947e-05
-2.61175e-05
-6.36209e-05
-2.1019e-05
-9.43734e-05
-0.000119685
-1.81351e-05
-4.12841e-06
-3.12958e-05
-9.21194e-06
-2.44616e-05
-1.28816e-05
-3.45437e-05
-1.4358e-05
-3.73817e-05
-1.32734e-05
-3.23501e-05
-1.04585e-05
-1.84486e-05
-8.71222e-06
2.66627e-07
-7.56645e-06
1.94088e-05
-8.08471e-06
4.27638e-05
-9.7087e-06
7.03407e-05
-1.15591e-05
9.35252e-05
-1.23526e-05
0.000110418
-1.21211e-05
0.000113606
-1.11741e-05
9.93209e-05
-1.02634e-05
6.64276e-05
-1.01916e-05
1.8698e-05
-8.79933e-06
-3.12678e-05
-4.73295e-06
-6.77064e-05
-4.78529e-07
-9.8686e-05
-0.000120073
-1.37253e-07
-5.04484e-06
-2.62338e-05
-1.15999e-05
-1.79545e-05
-1.71624e-05
-2.89516e-05
-2.07057e-05
-3.38964e-05
-2.13158e-05
-3.17757e-05
-1.89994e-05
-2.07245e-05
-1.55675e-05
-3.04748e-06
-1.23763e-05
1.62623e-05
-9.84259e-06
4.02321e-05
-6.71484e-06
6.71898e-05
-3.48872e-06
9.0294e-05
7.05708e-07
0.000106275
5.6543e-06
0.000108744
1.22155e-05
9.27884e-05
1.93337e-05
5.92724e-05
2.32797e-05
1.47253e-05
2.4383e-05
-3.23575e-05
2.55783e-05
-6.88678e-05
2.56209e-05
-9.87198e-05
-0.000115415
2.09924e-05
-5.6112e-06
-2.06115e-05
-1.30521e-05
-1.05746e-05
-2.03646e-05
-2.15832e-05
-2.62964e-05
-2.79839e-05
-2.96142e-05
-2.8521e-05
-2.92982e-05
-2.10623e-05
-2.53455e-05
-6.89514e-06
-2.00556e-05
1.10808e-05
-1.26872e-05
3.28976e-05
-3.72356e-06
5.82281e-05
5.54234e-06
8.10062e-05
1.61774e-05
9.56087e-05
2.91121e-05
9.57923e-05
4.28934e-05
7.90142e-05
5.33777e-05
4.88757e-05
5.78881e-05
1.03485e-05
5.74947e-05
-3.19247e-05
5.60804e-05
-6.74697e-05
5.07296e-05
-9.33845e-05
-0.000104273
3.96071e-05
-5.67136e-06
-1.49299e-05
-1.28277e-05
-3.48997e-06
-2.09499e-05
-1.34406e-05
-2.88646e-05
-2.01055e-05
-3.48574e-05
-2.24789e-05
-3.70675e-05
-1.88185e-05
-3.44644e-05
-9.5251e-06
-2.79484e-05
4.45663e-06
-1.70883e-05
2.19908e-05
-3.07971e-06
4.42664e-05
1.23115e-05
6.56837e-05
3.01084e-05
7.78197e-05
5.09669e-05
7.4886e-05
7.15223e-05
5.84918e-05
8.71915e-05
3.32911e-05
9.47657e-05
2.81227e-06
9.3814e-05
-3.09632e-05
8.64777e-05
-6.0069e-05
7.14906e-05
-7.82531e-05
-8.12701e-05
4.86254e-05
-5.23994e-06
-9.66073e-06
-1.02402e-05
1.41674e-06
-1.73801e-05
-6.33496e-06
-2.6214e-05
-1.13302e-05
-3.46914e-05
-1.40147e-05
-4.03176e-05
-1.3219e-05
-4.11344e-05
-8.70608e-06
-3.58383e-05
-8.70169e-07
-2.43513e-05
1.05001e-05
-6.45496e-06
2.63907e-05
1.56314e-05
4.35975e-05
4.14367e-05
5.1981e-05
6.88187e-05
4.74454e-05
9.26901e-05
3.4622e-05
0.000109525
1.64357e-05
0.000117071
-4.78274e-06
0.000113658
-2.75762e-05
9.74245e-05
-4.38294e-05
6.87683e-05
-4.95865e-05
-4.51018e-05
3.26346e-05
-5.18617e-06
-4.44763e-06
-5.3865e-06
1.53478e-06
-9.24048e-06
-2.44718e-06
-1.68335e-05
-3.76325e-06
-2.62537e-05
-4.58711e-06
-3.48687e-05
-4.63107e-06
-3.99987e-05
-3.56763e-06
-3.96392e-05
-1.17245e-06
-3.21854e-05
3.08317e-06
-1.49969e-05
9.16185e-06
1.28373e-05
1.56809e-05
4.6258e-05
1.8518e-05
7.69249e-05
1.67154e-05
0.000100207
1.1279e-05
0.000113012
3.63857e-06
0.000112964
-4.702e-06
9.61858e-05
-1.07484e-05
6.35323e-05
-1.11337e-05
2.39562e-05
-9.94237e-06
-1.90511e-05
-2.07125e-06
-4.43325e-06
-2.91882e-06
-5.36602e-06
-9.13807e-06
-1.3717e-05
-1.83539e-05
-2.19201e-05
-2.30752e-05
-1.99808e-05
-1.0838e-05
4.76762e-06
2.32377e-05
3.9956e-05
5.1199e-05
5.48322e-05
5.01496e-05
3.94212e-05
2.83174e-05
1.84179e-05
-5.72638e-07
7.83824e-06
-0.000107988
1.89295e-06
-0.000132205
1.28473e-06
-0.000166475
4.19873e-06
-0.000211335
7.40285e-06
-0.000264133
8.99143e-06
-0.000321887
8.93326e-06
-0.000383205
8.04022e-06
-0.000448256
6.9418e-06
-0.000517564
5.93051e-06
-0.000591158
5.09033e-06
-0.000668626
4.41245e-06
-0.000749619
3.78731e-06
-0.000832221
3.31357e-06
-0.000914651
2.73703e-06
-0.000987103
2.23712e-06
-0.001052
1.70313e-06
-0.0010799
1.7424e-06
-0.0011317
1.99862e-06
-0.00104453
-0.00130279
-3.80561e-06
-0.000100291
-6.20229e-06
-0.000129846
-4.02691e-06
-0.000168718
2.12651e-08
-0.000215487
3.41291e-06
-0.000267609
5.19622e-06
-0.00032371
5.65447e-06
-0.000383674
5.42552e-06
-0.000448013
4.95408e-06
-0.000517055
4.43996e-06
-0.0005906
3.95116e-06
-0.000668084
3.54213e-06
-0.000749136
3.14253e-06
-0.000831754
2.86056e-06
-0.000914345
2.4388e-06
-0.000986661
2.00969e-06
-0.00105153
1.33067e-06
-0.00107919
1.30156e-06
-0.00113167
1.01553e-06
-0.0010443
-0.00130175
-1.48281e-05
-9.68582e-05
-1.32636e-05
-0.000131439
-8.88963e-06
-0.000173125
-4.16902e-06
-0.000220222
-6.3495e-07
-0.000271129
1.39822e-06
-0.000325729
2.33746e-06
-0.000384625
2.69084e-06
-0.000448385
2.77779e-06
-0.000517133
2.73357e-06
-0.000590534
2.59847e-06
-0.000667957
2.44887e-06
-0.00074903
2.25186e-06
-0.000831607
2.16238e-06
-0.000914287
1.84375e-06
-0.000986343
1.75563e-06
-0.00105142
9.3012e-07
-0.00107834
8.59452e-07
-0.00113158
9.76601e-07
-0.00104438
-0.00130073
-2.34988e-05
-9.8657e-05
-1.87674e-05
-0.000136156
-1.31293e-05
-0.000178773
-8.12872e-06
-0.000225231
-4.5094e-06
-0.000274756
-2.22807e-06
-0.000328036
-8.42306e-07
-0.000386067
3.31544e-08
-0.000449327
6.14823e-07
-0.000517771
9.93048e-07
-0.000590972
1.20508e-06
-0.00066824
1.34498e-06
-0.000749232
1.38233e-06
-0.000831687
1.50917e-06
-0.00091444
1.35049e-06
-0.000986194
1.478e-06
-0.00105154
8.64063e-07
-0.00107771
1.11991e-06
-0.00113181
1.62071e-06
-0.00104486
-0.00129908
-2.93406e-05
-0.000104618
-2.29996e-05
-0.00014257
-1.70277e-05
-0.000184795
-1.20306e-05
-0.000230249
-8.30781e-06
-0.000278488
-5.71942e-06
-0.000330644
-3.87631e-06
-0.000387944
-2.51559e-06
-0.000450711
-1.48567e-06
-0.000518788
-7.11723e-07
-0.000591705
-1.60155e-07
-0.000668749
2.61669e-07
-0.000749627
5.2067e-07
-0.000831941
8.48853e-07
-0.000914763
8.37066e-07
-0.00098617
1.15506e-06
-0.00105184
7.14881e-07
-0.00107726
1.05647e-06
-0.00113215
1.98148e-06
-0.00104576
-0.00129708
-3.35784e-05
-0.000111251
-2.69549e-05
-0.000149189
-2.08226e-05
-0.000190908
-1.57518e-05
-0.000235292
-1.18414e-05
-0.000282365
-8.8891e-06
-0.000333564
-6.59382e-06
-0.000390214
-4.79014e-06
-0.000452477
-3.36429e-06
-0.000520143
-2.24769e-06
-0.000592736
-1.40611e-06
-0.000669522
-7.39672e-07
-0.000750257
-2.74186e-07
-0.000832393
2.5255e-07
-0.000915265
3.92641e-07
-0.000986283
9.008e-07
-0.00105232
5.159e-07
-0.00107686
8.77626e-07
-0.0011325
2.27003e-06
-0.00104711
-0.00129479
-3.74181e-05
-0.000118199
-3.05818e-05
-0.000155958
-2.4192e-05
-0.000197223
-1.89353e-05
-0.000240491
-1.47909e-05
-0.00028649
-1.14987e-05
-0.000336863
-8.81492e-06
-0.000392918
-6.64618e-06
-0.000454668
-4.90636e-06
-0.0005219
-3.52599e-06
-0.000594142
-2.46186e-06
-0.000670642
-1.59598e-06
-0.000751197
-9.53045e-07
-0.000833106
-2.55645e-07
-0.000915989
2.52098e-08
-0.000986563
7.1152e-07
-0.00105302
3.72028e-07
-0.00107652
8.24777e-07
-0.00113294
2.59231e-06
-0.00104885
-0.00129219
-4.02543e-05
-0.000125383
-3.32087e-05
-0.000162959
-2.66573e-05
-0.000203722
-2.12851e-05
-0.00024584
-1.69391e-05
-0.000290863
-1.33753e-05
-0.000340477
-1.04073e-05
-0.000395934
-7.99401e-06
-0.000457133
-6.04934e-06
-0.0005239
-4.49257e-06
-0.000595767
-3.26956e-06
-0.000671956
-2.248e-06
-0.000752305
-1.45888e-06
-0.000833961
-6.35019e-07
-0.000916859
-2.47083e-07
-0.000986966
6.03941e-07
-0.00105389
3.13552e-07
-0.00107625
9.72641e-07
-0.00113359
2.87776e-06
-0.00105074
-0.00128932
-4.14496e-05
-0.000131789
-3.45873e-05
-0.000169795
-2.79557e-05
-0.000210317
-2.25198e-05
-0.000251255
-1.80625e-05
-0.000295321
-1.43706e-05
-0.000344165
-1.12841e-05
-0.000398995
-8.7685e-06
-0.000459614
-6.72545e-06
-0.000525901
-5.07672e-06
-0.000597382
-3.75957e-06
-0.000673262
-2.64125e-06
-0.000753415
-1.75983e-06
-0.00083483
-8.51164e-07
-0.000917758
-3.97709e-07
-0.000987419
5.75074e-07
-0.00105487
2.87465e-07
-0.00107597
1.0471e-06
-0.00113435
2.88073e-06
-0.00105258
-0.00128646
-4.04232e-05
-0.000137785
-3.3934e-05
-0.000176209
-2.7516e-05
-0.00021665
-2.2242e-05
-0.000256463
-1.78811e-05
-0.00029964
-1.42928e-05
-0.000347729
-1.13044e-05
-0.000401963
-8.86286e-06
-0.000462052
-6.85677e-06
-0.000527901
-5.22343e-06
-0.000599018
-3.89654e-06
-0.000674603
-2.75383e-06
-0.000754568
-1.85251e-06
-0.00083575
-9.1904e-07
-0.000918701
-4.36165e-07
-0.000987929
6.11583e-07
-0.00105593
3.00204e-07
-0.00107568
1.10068e-06
-0.00113515
2.77551e-06
-0.00105427
-0.00128369
-3.63138e-05
-0.000142732
-3.08502e-05
-0.000181581
-2.50872e-05
-0.000222336
-2.03072e-05
-0.000261195
-1.63426e-05
-0.000303607
-1.31243e-05
-0.000350999
-1.04518e-05
-0.000404703
-8.2549e-06
-0.000464319
-6.42604e-06
-0.000529762
-4.91889e-06
-0.000600541
-3.67646e-06
-0.000675858
-2.5915e-06
-0.000755662
-1.73656e-06
-0.000836636
-8.38659e-07
-0.000919614
-3.56562e-07
-0.000988444
7.15753e-07
-0.001057
3.67694e-07
-0.00107533
1.21197e-06
-0.001136
2.61966e-06
-0.00105569
-0.00128108
-2.90199e-05
-0.00014564
-2.53208e-05
-0.000185234
-2.06218e-05
-0.000226984
-1.6695e-05
-0.000265058
-1.34709e-05
-0.000306783
-1.08989e-05
-0.000353538
-8.75331e-06
-0.000406804
-6.95586e-06
-0.000466058
-5.43663e-06
-0.000531197
-4.1674e-06
-0.000601733
-3.10619e-06
-0.000676868
-2.16814e-06
-0.000756579
-1.42715e-06
-0.000837395
-6.24836e-07
-0.000920413
-1.70742e-07
-0.000988908
8.69289e-07
-0.00105802
4.84413e-07
-0.00107492
1.3906e-06
-0.0011369
2.36876e-06
-0.00105667
-0.00127872
-1.80867e-05
-0.000145666
-1.694e-05
-0.000186349
-1.39437e-05
-0.000229975
-1.14039e-05
-0.000267603
-9.33643e-06
-0.000308891
-7.69714e-06
-0.000355253
-6.29591e-06
-0.000408297
-5.06595e-06
-0.00046734
-3.98408e-06
-0.000532273
-3.05388e-06
-0.000602644
-2.25628e-06
-0.000677647
-1.53382e-06
-0.000757299
-9.59701e-07
-0.000837989
-3.08631e-07
-0.000921048
8.82064e-08
-0.000989296
1.02228e-06
-0.00105892
6.00103e-07
-0.00107448
1.61324e-06
-0.00113791
1.95862e-06
-0.00105702
-0.00127676
-4.14017e-06
-0.000141673
-6.21676e-06
-0.000184267
-5.54488e-06
-0.000230676
-4.89331e-06
-0.000268302
-4.34867e-06
-0.000309503
-3.85205e-06
-0.000355768
-3.31344e-06
-0.000408835
-2.74211e-06
-0.000467886
-2.17341e-06
-0.000532783
-1.6469e-06
-0.000603128
-1.17273e-06
-0.000678097
-7.18802e-07
-0.00075776
-3.57249e-07
-0.000838371
8.76332e-08
-0.000921471
3.8959e-07
-0.000989583
1.12042e-06
-0.00105963
6.32299e-07
-0.00107398
1.90794e-06
-0.00113918
1.3771e-06
-0.00105649
-0.00127538
1.18163e-05
-0.000132398
6.03701e-06
-0.000178352
3.80961e-06
-0.000228355
2.2102e-06
-0.000266634
1.05127e-06
-0.000308363
2.925e-07
-0.000355052
-8.94249e-08
-0.000408465
-2.03347e-07
-0.000467749
-1.74053e-07
-0.000532774
-7.50708e-08
-0.000603213
5.71549e-08
-0.00067822
2.23762e-07
-0.000757937
3.4848e-07
-0.000838509
5.49583e-07
-0.000921646
7.22772e-07
-0.000989744
1.13842e-06
-0.00106003
5.23082e-07
-0.00107335
2.0675e-06
-0.00114073
5.05915e-07
-0.00105494
-0.00127487
2.58153e-05
-0.000118583
1.76119e-05
-0.000170162
1.26072e-05
-0.000223416
8.82068e-06
-0.000262892
6.10394e-06
-0.000305633
4.26934e-06
-0.000353223
3.0712e-06
-0.00040728
2.33721e-06
-0.000466998
1.86274e-06
-0.000532284
1.55179e-06
-0.000602923
1.35121e-06
-0.000678029
1.23197e-06
-0.000757839
1.10839e-06
-0.000838412
1.0467e-06
-0.000921584
1.07256e-06
-0.00098978
1.10695e-06
-0.00106007
4.75592e-07
-0.00107273
2.08823e-06
-0.00114233
-8.71747e-07
-0.00105199
-0.00127576
3.06199e-05
-0.000100476
2.34198e-05
-0.000162886
1.76995e-05
-0.000217703
1.3293e-05
-0.00025856
9.91226e-06
-0.000302284
7.55389e-06
-0.000350876
5.84532e-06
-0.00040559
4.66002e-06
-0.000465805
3.77865e-06
-0.000531401
3.12294e-06
-0.000602292
2.62484e-06
-0.000677531
2.2311e-06
-0.000757452
1.85777e-06
-0.000838067
1.52071e-06
-0.000921271
1.38028e-06
-0.000989663
9.97219e-07
-0.00105968
5.00891e-07
-0.00107224
1.85488e-06
-0.0011437
-2.79565e-06
-0.00104733
-0.00127858
2.18959e-05
-8.9706e-05
2.22699e-05
-0.000163232
1.91491e-05
-0.000214555
1.58105e-05
-0.000255245
1.26239e-05
-0.000299129
1.01571e-05
-0.000348424
8.19621e-06
-0.000403655
6.69765e-06
-0.00046431
5.50932e-06
-0.000530214
4.58116e-06
-0.00060137
3.83682e-06
-0.000676779
3.17007e-06
-0.000756805
2.58838e-06
-0.000837519
1.92171e-06
-0.000920621
1.62373e-06
-0.000989394
6.04818e-07
-0.00105867
7.09804e-07
-0.00107236
5.90267e-07
-0.00114361
-4.25384e-06
-0.00104245
-0.00128286
1.08125e-05
-0.000102632
1.88098e-05
-0.000171318
1.95968e-05
-0.000215334
1.72424e-05
-0.000252925
1.46717e-05
-0.000296588
1.22036e-05
-0.000345963
1.01693e-05
-0.000401632
8.44485e-06
-0.000462558
7.06329e-06
-0.000528808
5.90423e-06
-0.000600197
5.01579e-06
-0.000675876
4.07289e-06
-0.00075587
3.43538e-06
-0.000836909
2.26906e-06
-0.000919461
2.03011e-06
-0.000989187
-3.64836e-07
-0.00105631
1.48277e-06
-0.00107422
-3.25878e-06
-0.0011389
-4.08364e-06
-0.00104157
-0.00128694
1.69874e-05
-0.000120181
2.10865e-05
-0.000175502
1.92505e-05
-0.000213455
1.67501e-05
-0.000250495
1.46355e-05
-0.000294504
1.27542e-05
-0.000344054
1.10895e-05
-0.000399962
9.567e-06
-0.00046101
8.24857e-06
-0.000527477
7.09978e-06
-0.000599023
6.16826e-06
-0.000674932
5.13753e-06
-0.000754836
4.3683e-06
-0.000836169
3.00644e-06
-0.000918095
2.64248e-06
-0.000988825
-4.19045e-07
-0.00105326
3.66586e-07
-0.00107498
-5.75845e-06
-0.00113282
-1.04194e-05
-0.00103687
-0.00129737
1.36936e-06
-0.000121539
-1.88153e-07
-0.000173969
1.80468e-08
-0.00021366
-4.03124e-07
-0.000250073
-2.74231e-07
-0.000294633
-3.13703e-07
-0.000344008
-3.02396e-07
-0.00039997
-3.83115e-07
-0.000460913
-4.42741e-07
-0.000527405
-5.24453e-07
-0.000598937
-5.27316e-07
-0.000674929
-5.84136e-07
-0.000754778
-4.64657e-07
-0.000836302
-6.21254e-07
-0.000917947
-1.2796e-07
-0.000989315
-7.99743e-07
-0.00105259
5.57655e-07
-0.00107633
-1.19818e-06
-0.00113107
2.05258e-06
-0.00104011
-0.00129532
1.49603e-06
-0.000123026
-1.60849e-07
-0.000172323
3.61426e-08
-0.000213853
-3.70706e-07
-0.000249669
-2.16499e-07
-0.000294786
-2.25069e-07
-0.000343997
-1.8599e-07
-0.000400011
-2.47886e-07
-0.000460849
-2.98722e-07
-0.000527354
-3.80587e-07
-0.000598852
-3.90081e-07
-0.000674919
-4.6018e-07
-0.000754705
-3.54326e-07
-0.000836406
-5.55242e-07
-0.000917745
-8.69809e-08
-0.000989783
-7.89981e-07
-0.00105189
5.7777e-07
-0.00107769
-1.25804e-06
-0.00112924
1.99403e-06
-0.00104336
-0.00129332
1.42466e-06
-0.000124444
-1.51797e-07
-0.000170756
-7.76775e-09
-0.000213989
-3.78455e-07
-0.000249303
-2.06314e-07
-0.000294957
-1.69787e-07
-0.000344031
-9.63786e-08
-0.000400086
-1.30257e-07
-0.000460816
-1.67918e-07
-0.000527318
-2.4487e-07
-0.000598772
-2.60712e-07
-0.000674903
-3.3958e-07
-0.000754623
-2.48947e-07
-0.000836495
-4.57161e-07
-0.000917535
-2.61872e-08
-0.000990214
-7.35593e-07
-0.00105118
5.82053e-07
-0.001079
-1.27248e-06
-0.00112739
1.92309e-06
-0.00104656
-0.0012914
1.30228e-06
-0.000125738
-1.7864e-07
-0.000169286
-8.71765e-08
-0.000214071
-4.24912e-07
-0.00024897
-2.35293e-07
-0.000295146
-1.50574e-07
-0.000344113
-3.7931e-08
-0.0004002
-3.78657e-08
-0.000460816
-5.65499e-08
-0.000527301
-1.23044e-07
-0.000598701
-1.41529e-07
-0.000674884
-2.26735e-07
-0.000754535
-1.4967e-07
-0.000836571
-3.6585e-07
-0.000917317
2.97085e-08
-0.000990608
-6.80064e-07
-0.00105047
5.80894e-07
-0.00108026
-1.29152e-06
-0.00112552
1.8839e-06
-0.00104973
-0.00128951
1.16669e-06
-0.000126895
-2.21371e-07
-0.000167911
-1.81748e-07
-0.000214101
-4.88144e-07
-0.000248668
-2.84152e-07
-0.000295351
-1.54815e-07
-0.000344239
-3.63745e-09
-0.000400353
3.24169e-08
-0.000460852
3.64563e-08
-0.000527307
-1.47076e-08
-0.000598645
-3.20541e-08
-0.000674867
-1.21133e-07
-0.000754443
-5.78265e-08
-0.000836632
-2.80171e-07
-0.000917091
8.29946e-08
-0.000990968
-6.24434e-07
-0.00104976
5.87442e-07
-0.00108147
-1.30758e-06
-0.00112363
1.8656e-06
-0.0010529
-0.00128765
1.02786e-06
-0.000127912
-2.75036e-07
-0.000166623
-2.8677e-07
-0.00021408
-5.61921e-07
-0.000248396
-3.45626e-07
-0.000295569
-1.76286e-07
-0.000344404
1.10374e-08
-0.000400541
8.35797e-08
-0.000460924
1.12527e-07
-0.000527338
8.00891e-08
-0.000598608
6.74799e-08
-0.000674855
-2.25316e-08
-0.000754351
2.81641e-08
-0.000836681
-1.98481e-07
-0.00091686
1.3347e-07
-0.000991297
-5.69012e-07
-0.00104906
6.11476e-07
-0.00108264
-1.30876e-06
-0.00112171
1.86259e-06
-0.00105608
-0.00128578
8.91853e-07
-0.000128794
-3.36631e-07
-0.00016541
-3.9798e-07
-0.000214013
-6.41449e-07
-0.000248154
-4.14941e-07
-0.000295798
-2.10403e-07
-0.000344603
9.72336e-09
-0.000400761
1.18072e-07
-0.000461031
1.73263e-07
-0.000527395
1.61637e-07
-0.000598592
1.56867e-07
-0.000674852
6.921e-08
-0.00075426
1.0873e-07
-0.000836719
-1.20195e-07
-0.000916627
1.81214e-07
-0.000991595
-5.1388e-07
-0.00104837
6.36028e-07
-0.00108379
-1.30126e-06
-0.00111977
1.88416e-06
-0.00105926
-0.0012839
7.62547e-07
-0.000129546
-4.01968e-07
-0.000164262
-5.11465e-07
-0.000213899
-7.22482e-07
-0.000247942
-4.88044e-07
-0.000296036
-2.53223e-07
-0.000344832
-4.20534e-09
-0.000401009
1.38411e-07
-0.000461173
2.20453e-07
-0.000527479
2.31085e-07
-0.000598598
2.36681e-07
-0.00067486
1.54411e-07
-0.000754176
1.84174e-07
-0.000836747
-4.51168e-08
-0.000916393
2.26318e-07
-0.000991862
-4.58866e-07
-0.00104768
6.59086e-07
-0.00108491
-1.29198e-06
-0.00111782
1.92539e-06
-0.00106248
-0.00128197
6.42161e-07
-0.00013018
-4.67225e-07
-0.000163169
-6.22954e-07
-0.000213739
-8.00742e-07
-0.000247762
-5.61104e-07
-0.000296278
-3.00922e-07
-0.000345085
-2.72119e-08
-0.000401282
1.4754e-07
-0.000461346
2.56277e-07
-0.000527589
2.89772e-07
-0.000598629
3.07628e-07
-0.000674881
2.33504e-07
-0.000754099
2.54926e-07
-0.000836767
2.70489e-08
-0.00091616
2.68909e-07
-0.000992101
-4.03798e-07
-0.00104701
6.80115e-07
-0.00108599
-1.28294e-06
-0.00111585
1.98397e-06
-0.00106575
-0.00127998
5.32768e-07
-0.000130705
-5.28472e-07
-0.000162123
-7.28026e-07
-0.000213536
-8.72191e-07
-0.000247614
-6.30432e-07
-0.000296523
-3.49663e-07
-0.000345359
-5.55767e-08
-0.000401576
1.48683e-07
-0.000461549
2.83307e-07
-0.000527724
3.39596e-07
-0.000598683
3.70881e-07
-0.000674916
3.07077e-07
-0.000754033
3.21408e-07
-0.000836781
9.66414e-08
-0.000915931
3.09191e-07
-0.00099231
-3.48445e-07
-0.00104635
6.98907e-07
-0.00108704
-1.27501e-06
-0.00111388
2.0583e-06
-0.00106909
-0.00127792
4.37188e-07
-0.000131134
-5.82626e-07
-0.000161116
-8.23579e-07
-0.00021329
-9.33202e-07
-0.000247499
-6.92465e-07
-0.000296766
-3.95733e-07
-0.000345649
-8.55052e-08
-0.000401887
1.45243e-07
-0.000461779
3.04322e-07
-0.000527885
3.82788e-07
-0.00059876
4.27742e-07
-0.000674965
3.75701e-07
-0.000753978
3.84161e-07
-0.000836788
1.64092e-07
-0.000915708
3.47521e-07
-0.000992491
-2.9267e-07
-0.00104571
7.15267e-07
-0.00108805
-1.26892e-06
-0.00111189
2.14696e-06
-0.00107251
-0.00127578
3.58388e-07
-0.000131485
-6.26446e-07
-0.000160142
-9.05854e-07
-0.000213003
-9.8054e-07
-0.000247418
-7.43894e-07
-0.000297005
-4.35594e-07
-0.000345952
-1.13311e-07
-0.000402211
1.40649e-07
-0.000462033
3.22184e-07
-0.000528068
4.21583e-07
-0.000598858
4.79268e-07
-0.000675026
4.39776e-07
-0.000753936
4.43824e-07
-0.00083679
2.29812e-07
-0.000915491
3.84262e-07
-0.000992643
-2.36079e-07
-0.00104509
7.29024e-07
-0.00108902
-1.26528e-06
-0.00110989
2.24888e-06
-0.00107603
-0.00127353
2.99217e-07
-0.000131775
-6.55474e-07
-0.000159196
-9.69823e-07
-0.00021268
-1.01109e-06
-0.000247369
-7.81612e-07
-0.000297236
-4.65931e-07
-0.000346264
-1.35454e-07
-0.000402544
1.38222e-07
-0.000462307
3.39734e-07
-0.000528272
4.5838e-07
-0.000598976
5.27143e-07
-0.000675098
5.00224e-07
-0.000753905
5.01101e-07
-0.000836789
2.94338e-07
-0.000915281
4.19853e-07
-0.000992767
-1.78246e-07
-0.00104449
7.39666e-07
-0.00108994
-1.26467e-06
-0.00110788
2.36354e-06
-0.00107966
-0.00127116
2.6256e-07
-0.000132028
-6.65224e-07
-0.000158275
-1.01097e-06
-0.000212326
-1.02186e-06
-0.000247351
-8.0266e-07
-0.000297457
-4.83614e-07
-0.00034658
-1.48617e-07
-0.000402881
1.41101e-07
-0.000462597
3.59704e-07
-0.000528493
4.95487e-07
-0.000599111
5.73544e-07
-0.000675178
5.58574e-07
-0.000753885
5.56743e-07
-0.000836784
3.58186e-07
-0.00091508
4.54721e-07
-0.000992862
-1.18677e-07
-0.00104391
7.4663e-07
-0.00109081
-1.26768e-06
-0.00110586
2.49164e-06
-0.00108343
-0.00126867
2.50672e-07
-0.00013227
-6.52014e-07
-0.000157376
-1.02531e-06
-0.000211946
-1.00995e-06
-0.000247359
-8.04143e-07
-0.000297666
-4.85663e-07
-0.000346896
-1.49742e-07
-0.000403219
1.52163e-07
-0.0004629
3.84648e-07
-0.000528728
5.35066e-07
-0.00059926
6.20544e-07
-0.000675265
6.16366e-07
-0.000753877
6.11674e-07
-0.000836777
4.21827e-07
-0.000914889
4.89708e-07
-0.000992929
-5.72574e-08
-0.00104336
7.49986e-07
-0.00109162
-1.27526e-06
-0.00110384
2.63577e-06
-0.00108734
-0.00126603
2.64174e-07
-0.000132526
-6.12262e-07
-0.000156503
-1.00903e-06
-0.000211546
-9.72296e-07
-0.000247389
-7.83164e-07
-0.000297857
-4.6916e-07
-0.000347208
-1.35992e-07
-0.000403553
1.74056e-07
-0.00046321
4.16876e-07
-0.000528973
5.79148e-07
-0.000599421
6.70214e-07
-0.000675357
6.75207e-07
-0.000753877
6.66812e-07
-0.000836766
4.85691e-07
-0.000914706
5.2571e-07
-0.000992969
5.98827e-09
-0.00104284
7.50776e-07
-0.00109237
-1.28665e-06
-0.0011018
2.80044e-06
-0.00109143
-0.00126323
3.01906e-07
-0.000132822
-5.41099e-07
-0.000155663
-9.58634e-07
-0.000211129
-9.05262e-07
-0.000247436
-7.3669e-07
-0.000298029
-4.31007e-07
-0.000347513
-1.0461e-07
-0.000403878
2.0934e-07
-0.000463525
4.58626e-07
-0.000529225
6.29664e-07
-0.000599592
7.24315e-07
-0.000675452
7.36662e-07
-0.000753887
7.22792e-07
-0.00083675
5.50489e-07
-0.000914532
5.62206e-07
-0.000992982
7.26745e-08
-0.00104234
7.47193e-07
-0.00109305
-1.29595e-06
-0.00109975
2.99e-06
-0.00109573
-0.00126023
3.65226e-07
-0.000133184
-4.32203e-07
-0.000154869
-8.6964e-07
-0.000210692
-8.04629e-07
-0.000247496
-6.61352e-07
-0.000298176
-3.6804e-07
-0.000347806
-5.30348e-08
-0.000404192
2.60418e-07
-0.00046384
5.11936e-07
-0.00052948
6.88459e-07
-0.000599767
7.84361e-07
-0.000675548
8.02184e-07
-0.000753903
7.79773e-07
-0.000836726
6.16863e-07
-0.000914367
5.94422e-07
-0.000992961
1.42629e-07
-0.00104189
7.27209e-07
-0.00109364
-1.29845e-06
-0.00109773
3.20843e-06
-0.00110024
-0.00125702
4.66118e-07
-0.000133646
-2.80557e-07
-0.000154125
-7.30153e-07
-0.000210242
-6.65594e-07
-0.000247556
-5.53353e-07
-0.000298292
-2.78975e-07
-0.000348081
1.97092e-08
-0.000404489
3.27816e-07
-0.000464149
5.77681e-07
-0.000529733
7.56246e-07
-0.000599944
8.51181e-07
-0.000675642
8.71792e-07
-0.000753923
8.37984e-07
-0.000836691
6.83312e-07
-0.000914209
6.21774e-07
-0.000992899
2.06511e-07
-0.00104147
6.82098e-07
-0.00109412
-1.31903e-06
-0.00109573
3.46939e-06
-0.00110503
-0.00125355
5.98013e-07
-0.000134238
-7.25095e-09
-0.000153516
-5.23808e-07
-0.000209722
-4.70638e-07
-0.000247605
-4.17099e-07
-0.000298347
-1.71233e-07
-0.000348329
1.03266e-07
-0.000404761
4.03263e-07
-0.000464451
6.4849e-07
-0.00052998
8.27852e-07
-0.000600119
9.18043e-07
-0.00067573
9.40647e-07
-0.000753947
8.88559e-07
-0.000836638
7.49011e-07
-0.000914063
6.28158e-07
-0.000992777
2.73536e-07
-0.00104112
6.07185e-07
-0.00109445
-1.27943e-06
-0.00109383
3.66004e-06
-0.00110997
-0.0012499
1.33066e-07
-0.000111058
-2.32944e-05
1.12942e-06
-0.000154507
-9.4081e-06
-0.000199154
-1.18072e-05
-0.000245223
-1.49664e-05
-0.000295211