/*--------------------------------*- C++ -*----------------------------------*\
  =========                 |
  \\      /  F ield         | OpenFOAM: The Open Source CFD Toolbox
   \\    /   O peration     | Website:  https://openfoam.org
    \\  /    A nd           | Version:  10
     \\/     M anipulation  |
\*---------------------------------------------------------------------------*/
FoamFile
{
    format      ascii;
    class       volVectorField;
    location    "100";
    object      U;
}
// * * * * * * * * * * * * * * * * * * * * * * * * * * * * * * * * * * * * * //

dimensions      [0 1 -1 0 0 0 0];

internalField   nonuniform List<vector> 
420
(
(0.419838 8.86326 3.45519e-18)
(-0.356659 11.3459 -3.20847e-17)
(-0.176486 12.98 -1.98925e-16)
(-0.130484 14.3423 5.6343e-17)
(-0.118469 15.4803 -4.25673e-16)
(-0.144801 16.4186 0)
(-0.160447 17.0974 0)
(-0.238689 17.4631 5.62837e-16)
(-0.261978 17.5745 -5.86742e-16)
(-0.371574 17.4035 0)
(-0.210021 8.77966 2.0452e-17)
(-1.19255 11.1769 -7.30328e-17)
(-1.07074 12.8061 5.81643e-16)
(-1.08794 14.188 -9.26493e-16)
(-1.13732 15.3726 2.85588e-16)
(-1.20473 16.3624 5.43565e-18)
(-1.23609 17.0599 2.73314e-15)
(-1.35016 17.439 -7.99272e-16)
(-1.43369 17.568 1.22862e-15)
(-1.57252 17.4204 0)
(-0.770818 8.66921 7.23892e-18)
(-1.96103 10.9323 -3.10273e-16)
(-1.91427 12.5604 5.86894e-16)
(-2.00377 13.9634 1.06455e-15)
(-2.11536 15.1921 -7.05351e-16)
(-2.23393 16.2285 3.45036e-15)
(-2.3155 16.9579 1.57436e-15)
(-2.50678 17.3579 5.07433e-15)
(-2.65963 17.5092 -1.84473e-15)
(-2.80456 17.3741 -3.8676e-15)
(-1.36645 8.54344 2.70182e-17)
(-2.74807 10.6216 2.98064e-16)
(-2.78699 12.2243 -7.22927e-16)
(-2.95606 13.628 7.19811e-16)
(-3.13709 14.8913 -1.39003e-15)
(-3.31179 15.9622 1.55134e-15)
(-3.45095 16.7474 -8.85585e-15)
(-3.68916 17.2058 0)
(-3.89264 17.3833 -4.1953e-15)
(-4.04866 17.2644 3.65484e-15)
(-1.97867 8.37018 0)
(-3.5362 10.2456 2.60066e-16)
(-3.66711 11.8027 -2.48211e-16)
(-3.9137 13.1898 0)
(-4.15952 14.4672 -2.70304e-16)
(-4.39111 15.5732 -3.03781e-16)
(-4.59591 16.4209 2.96873e-15)
(-4.87462 16.9626 -4.11597e-15)
(-5.13251 17.1865 0)
(-5.31912 17.0933 -1.49346e-14)
(-2.60355 8.16476 -1.41777e-17)
(-4.3159 9.81074 0)
(-4.53149 11.2983 0)
(-4.84992 12.6499 1.19224e-15)
(-5.16011 13.9246 -1.96942e-15)
(-5.45354 15.0629 2.23571e-15)
(-5.73928 15.9626 6.05965e-16)
(-6.07452 16.6063 8.76715e-15)
(-6.40788 16.9102 -1.1228e-14)
(-6.65459 16.8593 7.28478e-15)
(-3.24642 7.93985 0)
(-5.07629 9.32229 -2.57097e-16)
(-5.36621 10.7165 -1.73756e-15)
(-5.75264 12.0134 -7.64512e-16)
(-6.13304 13.2646 -3.3506e-15)
(-6.50231 14.4159 2.21876e-15)
(-6.88758 15.3712 -5.42536e-15)
(-7.32154 16.1271 7.61703e-16)
(-7.7641 16.5511 -3.25009e-15)
(-8.10713 16.5726 -1.11862e-14)
(-3.92377 7.69934 3.16478e-17)
(-5.80741 8.78562 2.56092e-16)
(-6.15596 10.0705 2.34647e-15)
(-6.60991 11.2936 5.47108e-16)
(-7.07178 12.4937 2.08666e-15)
(-7.53894 13.6319 0)
(-8.04328 14.6462 5.59349e-15)
(-8.6263 15.5051 7.08686e-15)
(-9.21456 16.12 8.55112e-15)
(-9.68554 16.2527 8.58886e-15)
(-4.66504 7.42932 3.31392e-17)
(-6.48204 8.2305 2.55724e-16)
(-6.90751 9.42517 -2.70696e-16)
(-7.45843 10.5775 -1.61274e-15)
(-8.02844 11.7123 5.15034e-15)
(-8.60755 12.8117 7.18309e-15)
(-9.22381 13.8445 -2.51995e-15)
(-9.91747 14.7857 0)
(-10.639 15.5802 0)
(-11.2816 15.76 -9.1943e-15)
(-5.50266 7.04786 -2.49154e-17)
(-6.90257 7.74561 7.23968e-16)
(-7.47661 8.7518 0)
(-8.19335 9.75146 0)
(-8.94277 10.7347 -3.39799e-15)
(-9.70877 11.7138 -3.43411e-17)
(-10.4981 12.7015 6.1201e-15)
(-11.295 13.7124 -1.35191e-14)
(-12.0554 14.6866 1.61491e-14)
(-12.674 15.0285 1.32671e-15)
(-0.446047 16.8921 0)
(-0.47112 16.0422 0)
(-0.396595 15.0486 0)
(-0.308979 14.1461 -7.64499e-16)
(-0.376275 13.2729 0)
(0.156173 12.2097 0)
(0.132433 12.7513 8.23586e-16)
(-1.33239 9.02725 0)
(2.79158 8.52252 0)
(-4.081 24.1799 0)
(-1.63882 16.901 1.5661e-15)
(-1.63082 15.9856 2.51771e-15)
(-1.49527 14.9387 1.03646e-16)
(-1.36051 14.0242 8.25949e-16)
(-1.39079 13.136 4.3023e-17)
(-0.860362 12.0505 1.00769e-15)
(-0.926728 12.607 -7.33953e-17)
(-2.14002 8.90016 -4.59677e-17)
(1.82921 8.48534 -1.82031e-15)
(-6.1745 24.3737 -9.67574e-16)
(-2.85397 16.8489 1.42257e-15)
(-2.80278 15.8731 0)
(-2.59931 14.7894 -1.95235e-15)
(-2.42185 13.8751 -1.60774e-15)
(-2.4123 12.9869 4.80263e-15)
(-1.89473 11.9169 -9.81885e-16)
(-1.97731 12.3985 1.67585e-15)
(-2.92939 8.76509 0)
(0.883263 8.71099 2.00115e-15)
(-7.93984 23.742 -6.84364e-17)
(-4.09421 16.7358 3.11367e-15)
(-3.99184 15.6918 7.41326e-15)
(-3.70715 14.5811 -7.58192e-15)
(-3.48454 13.6747 2.9609e-15)
(-3.42735 12.7928 1.02975e-17)
(-2.9166 11.7462 0)
(-3.0238 12.1408 -1.68703e-15)
(-3.68213 8.63254 -2.18172e-15)
(-0.0602528 8.86392 -1.99969e-15)
(-9.83892 22.8544 4.3105e-15)
(-5.37809 16.5525 2.82037e-15)
(-5.19896 15.4281 -2.41721e-15)
(-4.81632 14.3085 7.69508e-15)
(-4.54543 13.4186 -3.01922e-15)
(-4.43055 12.5484 2.47854e-15)
(-3.91515 11.5318 -3.89628e-15)
(-4.04021 11.8183 3.34998e-15)
(-4.37582 8.50786 2.15899e-15)
(-0.987545 8.96795 0)
(-11.4321 21.6726 -8.68721e-15)
(-6.73339 16.2738 3.40176e-15)
(-6.41933 15.0532 -1.44152e-14)
(-5.92071 13.9587 -4.02406e-15)
(-5.6036 13.0986 9.24092e-15)
(-5.42152 12.2464 7.61472e-15)
(-4.88897 11.2697 1.2869e-16)
(-5.02615 11.4258 7.08704e-17)
(-5.02291 8.37324 -2.36167e-15)
(-1.87733 8.97004 -2.38816e-15)
(-12.6739 20.3809 9.19244e-15)
(-8.16633 15.8523 3.4884e-15)
(-7.62509 14.5325 5.02729e-15)
(-7.00338 13.5135 0)
(-6.65104 12.7008 -3.0811e-15)
(-6.39692 11.8762 -4.90622e-15)
(-5.83927 10.9528 1.39206e-16)
(-5.98185 10.9637 -1.05068e-14)
(-5.65111 8.19769 -2.35169e-15)
(-2.74536 8.89848 4.67878e-15)
(-13.9718 18.967 -4.58258e-15)
(-9.60426 15.2226 1.34032e-14)
(-8.76333 13.8427 -4.62808e-15)
(-8.03864 12.9688 0)
(-7.66588 12.2188 -1.41312e-16)
(-7.34454 11.4332 2.02372e-14)
(-6.76117 10.5759 -8.15689e-15)
(-6.89711 10.4419 -7.19446e-15)
(-6.25666 7.96776 4.97385e-15)
(-3.60595 8.76318 -4.9519e-15)
(-15.0968 17.3925 0)
(-10.7608 14.3434 3.3603e-16)
(-9.79584 13.0376 -4.59542e-15)
(-9.01519 12.3609 0)
(-8.62594 11.6682 6.49467e-15)
(-8.24511 10.9237 -1.52648e-14)
(-7.63521 10.1334 8.35308e-15)
(-7.76338 9.83995 3.58948e-15)
(-6.81954 7.75841 0)
(-4.41628 8.5792 -2.38667e-16)
(-16.0823 15.7297 4.95667e-15)
(-11.1469 13.5091 4.5476e-16)
(-10.6773 12.2775 9.54103e-18)
(-9.96153 11.7413 0)
(-9.52875 11.0682 -1.28021e-14)
(-9.08368 10.3469 4.85022e-15)
(-8.44213 9.64774 -4.39296e-15)
(-8.54009 9.15268 3.60315e-15)
(-7.30054 7.39965 5.47996e-16)
(-5.09933 8.3474 2.87072e-16)
(-16.8704 14.0189 -5.00777e-15)
(-10.8988 13.5676 2.91545e-15)
(-11.2681 11.7696 -4.92975e-15)
(-10.7005 11.2525 0)
(-10.1995 10.6071 0)
(-9.70517 9.91507 0)
(-9.05272 9.32473 -2.21851e-15)
(-9.15543 8.75239 9.25915e-15)
(-7.52911 7.17344 0)
(-5.68703 8.39489 0)
(-17.4922 12.6286 0)
(-11.5295 12.8741 -2.82883e-15)
(-11.8473 11.3991 -4.8759e-15)
(-11.331 10.8279 0)
(-10.753 10.1904 3.37928e-15)
(-10.194 9.52345 -2.59151e-15)
(-9.52956 8.9625 2.28426e-15)
(-9.52066 8.38624 3.92592e-15)
(-7.71869 6.74148 -1.76886e-16)
(-6.20152 8.21073 1.33027e-15)
(-17.9642 11.7903 0)
(-13.1514 11.4047 2.73434e-16)
(-12.6937 10.6554 -2.11975e-17)
(-12.1298 10.0132 0)
(-11.4781 9.39213 2.13626e-16)
(-10.8397 8.78392 5.78606e-15)
(-10.1685 8.26225 -4.20401e-15)
(-10.0534 7.62915 -1.14507e-14)
(-8.08354 6.18447 -6.56198e-15)
(-6.83681 7.63496 1.13527e-14)
(-18.4616 10.466 5.09601e-15)
(-14.4087 10.1483 -1.31427e-14)
(-13.6771 9.59955 4.79021e-15)
(-12.9552 9.08177 0)
(-12.2133 8.54691 -6.90727e-15)
(-11.5103 8.03225 -5.67022e-15)
(-10.8013 7.62792 9.11351e-15)
(-10.6845 6.84883 3.99622e-15)
(-8.47126 5.75193 0)
(-7.48709 7.20705 -5.72927e-15)
(-18.9618 8.60276 1.22321e-16)
(-15.0533 8.83328 -2.80808e-16)
(-14.3618 8.44807 4.70415e-15)
(-13.5993 8.06133 0)
(-12.8139 7.62373 1.3506e-14)
(-12.0768 7.19325 -1.55121e-17)
(-11.3344 6.93847 -1.72409e-16)
(-11.2283 6.07432 8.32551e-15)
(-8.81923 5.08498 -6.2053e-15)
(-8.08601 6.85206 -6.09997e-15)
(-19.2661 6.77463 0)
(-15.5155 7.62262 -2.94652e-15)
(-14.8769 7.33126 9.77761e-15)
(-14.1038 7.03178 8.36251e-15)
(-13.298 6.68171 -9.66065e-15)
(-12.5458 6.3278 -1.67346e-14)
(-11.7852 6.22642 -3.44119e-16)
(-11.7192 5.34095 -4.10151e-15)
(-9.12986 4.44666 -3.2223e-15)
(-8.60819 6.51026 -6.07257e-15)
(-19.4355 4.98998 -4.86913e-15)
(-15.8939 6.4696 -9.0512e-15)
(-15.2734 6.23576 4.82986e-15)
(-14.4923 6.00344 -3.68971e-15)
(-13.6763 5.7318 -9.97753e-15)
(-12.9186 5.44373 7.80122e-15)
(-12.1498 5.49815 -3.36989e-16)
(-12.1557 4.61914 7.79561e-15)
(-9.37958 3.78393 3.57631e-15)
(-9.05679 6.20255 3.18124e-15)
(-19.5186 3.28603 -9.11587e-17)
(-16.2053 5.3432 2.63616e-15)
(-15.5797 5.15659 -2.43183e-15)
(-14.7822 4.98309 -1.31123e-16)
(-13.9549 4.78566 9.82372e-15)
(-13.1902 4.55793 -1.37033e-14)
(-12.4201 4.77397 4.43221e-15)
(-12.5203 3.93009 -3.99124e-15)
(-9.56338 3.11321 9.22975e-15)
(-9.56597 5.93011 0)
(-19.5607 1.77128 1.09439e-16)
(-16.4589 4.21078 2.96195e-15)
(-15.8082 4.07448 2.44082e-15)
(-14.9822 3.9613 4.10731e-15)
(-14.1359 3.84043 -6.48285e-15)
(-13.3512 3.6755 2.64071e-15)
(-12.5682 4.06049 0)
(-12.782 3.28939 -1.83931e-15)
(-9.62317 2.53851 -6.18946e-15)
(-9.97096 5.74486 -9.66545e-17)
(-19.7841 0.635238 4.53529e-15)
(-16.6535 3.05451 1.35383e-15)
(-15.9585 2.97645 0)
(-15.0988 2.92864 2.04207e-15)
(-14.228 2.88831 1.74824e-15)
(-13.4103 2.78917 9.77154e-17)
(-12.5654 3.35682 -1.07914e-15)
(-12.8197 2.63085 1.80919e-15)
(-9.52682 2.19386 0)
(-10.1908 5.87551 2.70721e-15)
(-20.2958 -0.00786963 3.74688e-15)
(-16.7644 1.8856 1.50497e-15)
(-16.015 1.85173 -2.52868e-15)
(-15.1252 1.86434 -1.22511e-16)
(-14.2313 1.89277 7.05452e-16)
(-13.3783 1.81698 -6.5611e-17)
(-12.5004 2.56063 1.02094e-15)
(-12.7321 1.81592 -1.59682e-15)
(-8.85131 1.50143 -2.46333e-17)
(-10.2068 6.34611 1.9329e-15)
(-19.5346 -1.38113 -2.64396e-15)
(-16.8353 0.723172 2.18367e-29)
(-16.0306 0.668677 0)
(-15.0707 0.701594 0)
(-14.1668 0.753093 -7.75348e-16)
(-13.2999 0.634551 0)
(-12.1962 1.23884 0)
(-12.8093 1.08533 8.34295e-16)
(-9.08409 -0.752611 0)
(-8.70218 4.30312 0)
(-25.4014 -2.23302 -1.03687e-29)
(-14.4598 12.4509 9.20872e-16)
(-15.1722 10.3256 -7.5641e-15)
(-15.6224 8.88727 7.10167e-15)
(-15.9722 7.66498 -9.64983e-15)
(-16.315 6.52891 6.43249e-15)
(-16.6258 5.41938 -1.34138e-14)
(-16.8953 4.29537 3.32738e-15)
(-17.1136 3.13364 -3.58846e-15)
(-17.2641 1.94592 0)
(-17.3442 0.803054 -4.24889e-16)
(-15.016 11.769 1.45567e-14)
(-15.5196 9.85315 0)
(-15.868 8.61147 7.37973e-15)
(-16.1384 7.51369 -2.87261e-15)
(-16.4393 6.4586 -9.83614e-15)
(-16.7418 5.40766 0)
(-17.0226 4.32606 -3.72134e-15)
(-17.2688 3.19249 -1.67933e-15)
(-17.4629 2.01727 1.13246e-15)
(-17.5392 0.892794 -4.91065e-16)
(-14.6736 10.9421 -1.20648e-14)
(-15.3882 9.22086 0)
(-15.7819 8.13208 6.73693e-15)
(-16.0356 7.18247 6.44158e-16)
(-16.2984 6.23415 8.16977e-15)
(-16.5724 5.26452 -3.77363e-15)
(-16.8402 4.2487 0)
(-17.0895 3.17457 4.60049e-15)
(-17.3136 2.03898 -7.50833e-16)
(-17.4281 0.889272 6.5091e-16)
(-13.6021 10.1797 5.48528e-15)
(-14.7713 8.6384 -2.22658e-15)
(-15.3419 7.60601 5.21685e-15)
(-15.6699 6.75555 -5.59932e-15)
(-15.9298 5.90419 6.53049e-16)
(-16.1806 5.01064 3.41794e-15)
(-16.4306 4.07442 -1.04288e-14)
(-16.6695 3.08808 1.83332e-15)
(-16.8928 2.03901 3.11546e-15)
(-17.0405 0.931809 9.47406e-17)
(-12.3734 9.47963 -8.19889e-15)
(-13.6937 8.08068 6.17458e-15)
(-14.5341 7.1114 0)
(-15.0194 6.31738 2.03249e-15)
(-15.3546 5.55526 2.17776e-15)
(-15.6236 4.75245 -3.12135e-16)
(-15.8618 3.89494 1.66089e-15)
(-16.0733 2.97915 3.8479e-15)
(-16.2531 1.99161 7.48633e-18)
(-16.3782 0.938114 3.55799e-16)
(-11.1575 8.79639 -3.27659e-15)
(-12.4316 7.56388 4.33785e-15)
(-13.3683 6.67361 1.76161e-15)
(-14.0346 5.91513 -2.87426e-15)
(-14.4937 5.19799 -1.76633e-15)
(-14.8293 4.45555 -2.49225e-16)
(-15.0833 3.66202 -3.05532e-15)
(-15.2791 2.81004 9.99459e-16)
(-15.4217 1.89147 3.0014e-16)
(-15.4911 0.90482 -3.41335e-16)
(-10.0031 8.10883 0)
(-11.0882 7.06606 -1.39518e-15)
(-12.0205 6.28549 4.89544e-16)
(-12.754 5.56465 -6.44598e-16)
(-13.3072 4.87176 1.01306e-15)
(-13.7261 4.162 0)
(-14.0292 3.41216 6.67743e-16)
(-14.2358 2.61319 1.03773e-15)
(-14.3581 1.75228 -9.22644e-16)
(-14.3967 0.829079 -3.16413e-17)
(-8.89619 7.41269 0)
(-9.75814 6.59191 -2.18248e-16)
(-10.5925 5.93103 1.96846e-15)
(-11.3072 5.25961 -1.42716e-15)
(-11.8916 4.58788 0)
(-12.3445 3.89595 -1.96752e-16)
(-12.6754 3.17156 -6.23917e-16)
(-12.8971 2.40961 5.25974e-16)
(-13.0145 1.58739 5.39421e-16)
(-13.044 0.718713 -2.20129e-16)
(-7.81329 6.65827 -8.36911e-16)
(-8.48326 6.0383 2.21746e-16)
(-9.17824 5.44333 2.17273e-16)
(-9.80661 4.79291 -2.13742e-16)
(-10.334 4.12765 0)
(-10.7497 3.44276 2.1064e-16)
(-11.0539 2.73328 2.09331e-16)
(-11.2515 1.99763 -2.05907e-16)
(-11.3458 1.22428 -5.62189e-17)
(-11.3681 0.442463 8.61963e-19)
(-6.3744 6.25356 -2.12646e-16)
(-6.57476 6.02814 1.07126e-17)
(-6.96887 5.53468 -2.54501e-18)
(-7.3802 4.94794 0)
(-7.77036 4.35382 8.02067e-18)
(-8.11076 3.76384 0)
(-8.39006 3.1673 6.11227e-17)
(-8.60596 2.54906 -5.84922e-18)
(-8.75836 1.88826 2.15092e-17)
(-8.85594 1.19783 -3.83906e-18)
)
;

boundaryField
{
    right
    {
        type            cyclic;
    }
    left
    {
        type            cyclic;
    }
    outerWall
    {
        type            calculated;
        value           nonuniform List<vector> 
22
(
(-1.55201 41.8305 0)
(-4.64749 41.6006 0)
(-7.71741 41.1419 0)
(-10.7449 40.4569 0)
(-13.7132 39.5492 0)
(-16.6061 38.424 0)
(-19.4075 37.0874 0)
(-22.1022 35.5467 0)
(-24.6752 33.8104 0)
(-27.1124 31.8882 0)
(-28.9573 30.2506 0)
(-30.2506 28.9573 0)
(-31.8882 27.1124 0)
(-33.8104 24.6752 0)
(-35.5467 22.1022 0)
(-37.0874 19.4075 0)
(-38.424 16.6061 0)
(-39.5492 13.7132 0)
(-40.4569 10.7449 0)
(-41.1419 7.71741 0)
(-41.6006 4.64749 0)
(-41.8305 1.55201 0)
)
;
    }
    stirrerWall
    {
        type            calculated;
        value           nonuniform List<vector> 
42
(
(-0.310178 8.3662 0)
(-0.928834 8.32046 0)
(-1.54239 8.22894 0)
(-2.14746 8.09214 0)
(-2.74072 7.91082 0)
(-3.31888 7.68598 0)
(-3.87877 7.41885 0)
(-4.41729 7.11092 0)
(-4.93148 6.76387 0)
(-5.4185 6.37963 0)
(-6.07951 6.64185 0)
(-6.92878 7.56862 0)
(-7.77806 8.49539 0)
(-8.62734 9.42216 0)
(-9.47661 10.3489 0)
(-10.3259 11.2757 0)
(-11.1752 12.2025 0)
(-12.0244 13.1292 0)
(-12.8737 14.056 0)
(-13.723 14.9828 0)
(-14.4723 15.1215 0)
(-15.1215 14.4723 0)
(-14.9828 13.723 0)
(-14.056 12.8737 0)
(-13.1292 12.0244 0)
(-12.2025 11.1752 0)
(-11.2757 10.3259 0)
(-10.3489 9.47661 0)
(-9.42216 8.62734 0)
(-8.49539 7.77806 0)
(-7.56862 6.92878 0)
(-6.64185 6.07951 0)
(-6.37963 5.4185 0)
(-6.76387 4.93148 0)
(-7.11092 4.41729 0)
(-7.41885 3.87877 0)
(-7.68598 3.31888 0)
(-7.91082 2.74072 0)
(-8.09214 2.14746 0)
(-8.22894 1.54239 0)
(-8.32046 0.928834 0)
(-8.3662 0.310178 0)
)
;
    }
    top
    {
        type            empty;
    }
    bottom
    {
        type            empty;
    }
}


// ************************************************************************* //
