/*--------------------------------*- C++ -*----------------------------------*\
  =========                 |
  \\      /  F ield         | OpenFOAM: The Open Source CFD Toolbox
   \\    /   O peration     | Website:  https://openfoam.org
    \\  /    A nd           | Version:  10
     \\/     M anipulation  |
\*---------------------------------------------------------------------------*/
FoamFile
{
    format      ascii;
    class       volVectorField;
    location    "100";
    object      U;
}
// * * * * * * * * * * * * * * * * * * * * * * * * * * * * * * * * * * * * * //

dimensions      [0 1 -1 0 0 0 0];

internalField   nonuniform List<vector> 
2000
(
(2.30702 37.5902 -2.6637e-18)
(-1.31566 42.8356 9.03414e-18)
(1.47148 48.1764 -7.83555e-18)
(4.27733 54.9613 0)
(7.26297 62.0446 0)
(9.42845 67.8572 1.46566e-16)
(10.7831 72.0572 -1.9788e-16)
(11.5123 74.9731 -2.6235e-16)
(11.7466 76.9251 3.43489e-16)
(11.6163 78.2039 4.45227e-16)
(11.2519 79.0482 5.7415e-16)
(10.7566 79.5757 0)
(10.1825 79.7721 8.81554e-16)
(9.30465 79.7072 8.59655e-16)
(8.2941 79.8392 8.38299e-16)
(7.17751 80.3609 8.2201e-16)
(6.01486 81.4193 -8.08936e-16)
(4.74983 82.9101 3.83048e-16)
(3.3055 84.6522 3.8736e-16)
(1.6847 86.4341 1.68348e-15)
(1.21641 37.5663 -1.91295e-17)
(-3.44294 42.3903 6.42996e-18)
(-1.82423 46.6101 -8.06763e-17)
(1.37711 52.8093 -2.75445e-16)
(4.24118 60.0378 4.40037e-17)
(6.67527 66.3676 -6.0494e-16)
(8.23889 71.1009 3.6723e-16)
(9.08734 74.408 7.48247e-16)
(9.4517 76.7411 2.92207e-16)
(9.30896 78.2467 3.84157e-16)
(8.92037 79.2093 -1.02201e-15)
(8.3002 79.8188 -6.46806e-16)
(7.52501 80.175 -8.4343e-16)
(6.45456 80.3366 -8.31702e-16)
(5.22118 80.7281 -2.4931e-15)
(3.80623 81.5339 -9.1777e-16)
(2.2067 82.8746 2.391e-15)
(0.377711 84.6751 -2.34509e-15)
(-1.61317 86.6429 0)
(-3.51007 88.3274 -2.65014e-15)
(0.151394 37.6424 1.75269e-17)
(-5.05407 42.0495 -4.67687e-17)
(-4.58275 45.5896 9.04874e-17)
(-2.6349 50.6756 2.9461e-16)
(-0.394268 57.2084 4.23376e-16)
(2.32796 63.776 1.30392e-16)
(4.35662 69.1342 3.71617e-16)
(5.5732 73.0836 -7.12604e-16)
(6.11247 75.9046 -6.47475e-16)
(6.19397 77.8519 -8.21722e-16)
(5.77489 79.1774 1.03951e-15)
(5.14335 80.1026 0)
(4.27055 80.76 -3.05597e-15)
(3.02512 81.1531 0)
(1.48629 81.8023 0)
(-0.382308 82.9256 0)
(-2.5886 84.6119 1.7451e-15)
(-5.05517 86.7013 -3.22634e-15)
(-7.42736 88.6768 0)
(-9.22844 89.8876 1.97217e-15)
(-0.892722 37.6572 -1.68966e-17)
(-6.1803 41.7762 1.24158e-16)
(-5.95138 45.0432 0)
(-5.43088 49.5833 4.77563e-16)
(-4.12701 55.0976 1.62285e-16)
(-2.28932 61.1906 1.25106e-16)
(-0.208235 66.8428 -5.97028e-17)
(1.199 71.3571 1.24478e-15)
(1.91843 74.747 0)
(2.07657 77.2083 6.04115e-16)
(1.71084 78.961 8.76401e-16)
(0.95015 80.2163 2.38407e-15)
(-0.085097 81.1662 3.09196e-15)
(-1.6258 81.8749 6.26494e-15)
(-3.62436 82.9068 -2.97783e-15)
(-6.08993 84.5129 -1.60372e-16)
(-8.95005 86.6295 6.77156e-15)
(-11.833 88.8749 3.84865e-15)
(-14.0274 90.423 4.32983e-15)
(-15.0658 90.6185 4.81075e-15)
(-2.14774 37.5138 0)
(-7.34623 41.3705 -2.235e-16)
(-6.92546 44.4986 -1.27371e-16)
(-7.21944 48.808 -5.2919e-16)
(-6.67091 54.0199 -9.13403e-16)
(-6.22559 59.1635 2.63979e-16)
(-4.85274 64.5293 -7.90925e-16)
(-3.66258 69.3523 -1.31948e-15)
(-3.03157 73.2359 -5.05292e-16)
(-2.97791 76.2087 1.05851e-16)
(-3.44547 78.4346 -1.72174e-15)
(-4.4023 80.0988 -2.52249e-15)
(-5.81573 81.4037 -3.03534e-15)
(-7.89865 82.5713 -3.28099e-15)
(-10.5277 84.1316 0)
(-13.6434 86.3397 1.96173e-16)
(-16.9015 88.8257 2.64515e-16)
(-19.5059 90.759 -4.79534e-15)
(-20.5575 90.9253 -1.72883e-14)
(-20.2359 89.5522 5.72161e-15)
(-3.48833 37.2464 0)
(-8.6879 40.8146 9.98769e-17)
(-8.06403 43.8912 0)
(-8.53157 48.0976 3.19254e-16)
(-8.73339 53.1536 1.0872e-15)
(-8.90274 57.947 0)
(-8.91553 62.7228 1.74036e-15)
(-8.44817 67.4717 3.06125e-15)
(-8.28861 71.6449 0)
(-8.61463 75.0462 -1.3147e-15)
(-9.47435 77.7452 4.39459e-15)
(-10.9343 79.8796 4.73752e-16)
(-13.0688 81.6056 3.97568e-15)
(-15.9852 83.3666 -3.51385e-15)
(-19.4186 85.6627 0)
(-22.9273 88.4477 -1.00031e-14)
(-25.6396 90.3243 -5.93649e-15)
(-26.7282 90.2144 0)
(-25.6213 88.9025 1.47216e-14)
(-24.1996 87.6054 -2.39536e-14)
(-4.84892 36.8913 1.38709e-16)
(-10.135 40.144 -4.23448e-17)
(-9.45214 43.1697 -2.36313e-16)
(-9.91547 47.2787 -1.29313e-16)
(-10.4407 52.3005 5.08536e-17)
(-11.0626 57.2015 -1.01043e-15)
(-11.9173 61.5693 2.31839e-15)
(-12.6316 66.101 -3.53946e-15)
(-13.2729 70.356 -4.62776e-15)
(-14.2901 74.0513 3.21354e-15)
(-15.8358 77.187 -2.60639e-15)
(-18.1324 79.8844 -3.28388e-15)
(-21.3911 82.2778 3.68533e-15)
(-25.541 84.4727 -1.05681e-14)
(-29.7605 86.4236 0)
(-32.818 87.5345 3.48715e-14)
(-32.5733 88.1812 -3.36187e-14)
(-31.1076 88.3092 1.33397e-14)
(-29.4284 86.9325 1.26568e-14)
(-27.8081 85.2051 2.56369e-16)
(-6.22072 36.488 6.1847e-17)
(-11.6794 39.4005 -5.11263e-17)
(-11.0815 42.3318 2.82937e-16)
(-11.5953 46.3622 -4.81735e-16)
(-12.2494 51.3893 -1.02232e-15)
(-13.2669 56.4292 0)
(-14.3974 60.8739 -2.58666e-15)
(-16.0492 65.2827 0)
(-17.6082 69.5815 3.58297e-15)
(-19.4681 73.4807 0)
(-21.8703 77.0401 0)
(-25.1031 80.3451 -6.02637e-16)
(-29.3203 83.197 2.06218e-14)
(-33.7503 85.6363 1.51375e-14)
(-35.8623 87.7382 6.01203e-16)
(-36.3636 88.5877 -1.20445e-14)
(-35.9223 87.4445 0)
(-34.5645 85.8085 0)
(-32.766 84.136 1.08323e-14)
(-30.9939 82.6137 1.99565e-14)
(-7.60881 36.0741 -1.66788e-16)
(-13.2939 38.644 9.36644e-17)
(-12.8297 41.4306 1.70007e-16)
(-13.5624 45.33 -2.00358e-16)
(-14.2978 50.3495 -6.65294e-16)
(-15.5166 55.5715 7.73021e-16)
(-17.0748 60.2187 1.77756e-15)
(-19.0457 64.7125 -1.7342e-15)
(-21.348 69.2579 0)
(-23.9066 73.3378 -6.15085e-15)
(-27.0487 77.0712 6.20198e-15)
(-31.0725 81.1134 -8.18881e-15)
(-35.3213 85.8064 0)
(-38.8263 88.9612 9.49742e-16)
(-41.1689 89.1184 3.69027e-16)
(-41.4738 87.4962 9.08498e-15)
(-39.7446 84.8416 -2.06016e-14)
(-37.1581 83.0421 1.03349e-14)
(-35.2719 81.658 -1.00184e-14)
(-33.6542 80.3587 -9.28775e-15)
(-9.02847 35.6765 0)
(-14.9607 37.8933 2.75747e-17)
(-14.6989 40.4756 -2.38423e-16)
(-15.7181 44.1782 2.21817e-17)
(-16.6099 49.1557 0)
(-17.9778 54.5665 0)
(-19.7824 59.4446 -5.80551e-15)
(-22.0681 64.1403 2.12814e-15)
(-24.8143 69.1272 -1.19802e-14)
(-27.9412 73.4142 -1.42678e-15)
(-31.9891 78.1241 1.39932e-14)
(-36.504 83.1236 -6.08451e-15)
(-40.5717 86.8322 3.27589e-16)
(-43.4037 88.3472 1.11568e-15)
(-44.3949 87.5985 -6.65509e-15)
(-43.314 85.1003 0)
(-41.0994 81.604 -1.18019e-14)
(-39.2279 80.4024 4.29625e-14)
(-37.5583 79.2754 -1.90762e-14)
(-35.9957 78.1131 9.11113e-15)
(-10.5057 35.3163 1.23011e-17)
(-16.7133 37.1534 5.77987e-17)
(-16.7265 39.4752 2.38954e-16)
(-18.1149 42.9108 1.67935e-16)
(-19.1471 47.7544 4.31856e-16)
(-20.6457 53.2883 0)
(-22.6415 58.3438 1.58992e-15)
(-25.3237 63.1468 2.50196e-15)
(-28.357 68.6542 -7.50871e-15)
(-32.0895 73.8148 1.26729e-14)
(-36.3838 78.7402 7.80039e-15)
(-40.4683 83.604 -5.6579e-15)
(-43.9106 87.2738 1.08966e-14)
(-46.0026 88.9234 6.47242e-15)
(-46.4119 87.03 7.46795e-15)
(-45.2325 83.7728 7.7076e-16)
(-42.7459 79.7808 -1.10681e-14)
(-41.0861 78.3247 2.23744e-16)
(-39.3067 77.2504 -1.9344e-14)
(-37.7448 76.1433 -9.4303e-15)
(-12.0536 35.0273 0)
(-18.6155 36.4687 -4.11422e-17)
(-19.0943 38.4531 3.82401e-17)
(-20.6967 41.5939 -3.60457e-16)
(-21.931 46.2536 1.19512e-15)
(-23.6394 51.7832 -1.00205e-15)
(-26.0124 56.8 0)
(-28.9449 62.1395 0)
(-32.0258 68.1726 5.84465e-15)
(-35.6108 73.9972 0)
(-39.8622 79.2857 9.29604e-16)
(-43.9393 84.2378 -1.01237e-14)
(-47.1315 87.5236 5.77721e-15)
(-48.5057 88.1095 -5.85219e-15)
(-48.5218 86.2783 0)
(-46.5345 82.3482 9.14443e-15)
(-43.3274 78.2125 0)
(-41.954 76.6869 -1.06265e-14)
(-40.2515 75.6232 -1.98976e-14)
(-38.8854 74.5703 1.74334e-14)
(-13.6564 34.8444 1.89042e-16)
(-20.6442 35.9008 6.49673e-17)
(-21.544 37.4738 0)
(-23.3409 40.2002 -4.39885e-16)
(-24.7378 44.7268 -3.17469e-16)
(-26.5559 50.5708 -9.18893e-16)
(-29.2912 56.1223 0)
(-32.2086 61.6153 0)
(-35.4824 67.2111 6.1638e-15)
(-38.7793 73.5647 0)
(-42.8231 79.1767 6.15237e-15)
(-46.3969 84.1635 -5.04709e-15)
(-48.8487 87.2668 -5.37761e-15)
(-49.6945 87.8973 7.69839e-16)
(-49.1927 85.4516 -2.39231e-14)
(-46.6921 81.2226 9.98467e-15)
(-43.8871 77.2924 -1.3923e-14)
(-42.5355 75.5641 0)
(-40.6631 74.3738 -1.02387e-14)
(-39.4785 73.4931 2.80881e-14)
(-15.3048 34.8002 -2.26733e-16)
(-22.7477 35.4729 -2.1025e-16)
(-24.0839 36.5094 -2.48589e-17)
(-26.0676 38.6715 4.23388e-16)
(-27.5882 42.701 9.75435e-16)
(-29.3189 48.3388 -2.88476e-15)
(-32.0023 54.1631 9.02614e-15)
(-34.6652 59.9298 -1.08939e-14)
(-38.1714 65.7522 -5.1368e-16)
(-41.3128 72.7575 -6.2961e-15)
(-45.0447 78.6562 1.64451e-14)
(-48.0744 83.8321 -1.15854e-14)
(-49.6931 87.0766 5.91866e-15)
(-50.1039 87.6733 0)
(-49.1703 85.4043 0)
(-46.5297 81.1231 0)
(-43.6526 76.9703 1.6276e-14)
(-42.1515 74.7455 7.66156e-16)
(-40.2718 73.5252 -1.11778e-14)
(-39.5648 73.0261 -9.8729e-15)
(-16.9907 34.8673 9.21465e-17)
(-24.8741 35.2498 1.96637e-16)
(-26.6466 35.7298 -1.43989e-16)
(-28.8788 37.2136 1.37183e-16)
(-30.6672 40.4246 6.48438e-16)
(-32.4622 45.4007 -7.84082e-16)
(-35.0206 51.151 0)
(-37.5101 57.1318 0)
(-40.9002 63.627 0)
(-43.6922 71.1294 0)
(-46.9722 77.3575 -1.12519e-14)
(-49.3441 82.7491 1.84153e-14)
(-50.4907 86.2072 -6.23974e-15)
(-50.2302 87.0353 0)
(-48.4933 85.2148 0)
(-45.1347 81.7071 0)
(-41.6523 77.8096 4.16182e-14)
(-40.5738 75.0599 9.61743e-16)
(-39.2178 73.5505 6.24651e-16)
(-39.4343 73.4051 0)
(-18.7029 35.0186 0)
(-26.9408 35.2095 -4.48556e-16)
(-29.0693 35.3084 -1.56705e-16)
(-31.6078 36.1766 1.0201e-15)
(-33.8212 38.4541 -1.68719e-15)
(-35.9079 42.4905 0)
(-38.346 47.7522 0)
(-40.8295 53.7184 1.04513e-14)
(-43.3737 60.7255 0)
(-45.6352 68.4856 0)
(-48.2141 75.2113 -1.24099e-14)
(-49.8907 80.9868 2.10167e-14)
(-50.193 85.0397 -7.4371e-15)
(-48.9061 86.4468 -3.72731e-14)
(-46.4502 85.3689 -1.41304e-15)
(-43.5221 82.8296 -1.74451e-15)
(-40.5596 79.3485 6.02554e-14)
(-39.4353 76.3822 2.43241e-14)
(-38.9657 74.6446 0)
(-40.2362 74.7153 -2.15331e-14)
(-20.4146 35.172 0)
(-28.8361 35.3145 2.6166e-16)
(-31.1065 35.4469 5.71401e-16)
(-33.9419 35.8641 -5.65722e-16)
(-36.6065 37.369 1.31736e-15)
(-39.0833 40.4093 0)
(-41.4518 44.7829 0)
(-43.8991 50.2885 -1.19459e-16)
(-45.6401 57.1342 -6.27133e-15)
(-47.347 64.8854 5.27909e-15)
(-49.2798 72.089 1.37105e-14)
(-50.0966 78.3344 -1.53068e-14)
(-49.269 82.5826 -3.26962e-14)
(-47.0008 84.5996 3.16408e-14)
(-44.1074 84.976 1.77377e-14)
(-41.3962 83.8073 -2.29144e-14)
(-39.2838 81.3068 -7.24737e-16)
(-38.5749 78.5021 -1.91613e-14)
(-39.7784 76.6694 -1.92407e-14)
(-42.8885 76.6427 3.94342e-14)
(-22.0794 35.227 0)
(-30.3665 35.3699 -3.46074e-16)
(-32.3845 36.0453 -6.47032e-16)
(-35.4553 36.516 1.06365e-15)
(-38.605 37.5272 4.09527e-16)
(-41.5922 39.4866 0)
(-44.1954 42.6746 0)
(-46.5153 46.9658 -4.80954e-15)
(-47.7881 52.7727 -1.52504e-15)
(-48.8606 59.9398 5.73848e-15)
(-49.7764 67.3944 0)
(-49.491 73.8975 0)
(-47.4794 78.6191 1.48195e-14)
(-44.8637 81.4916 -9.03482e-16)
(-42.267 82.7488 1.68911e-14)
(-40.2629 82.6005 -1.74444e-14)
(-39.2059 81.0833 0)
(-40.1529 79.2629 0)
(-43.5792 77.7778 0)
(-49.6069 77.5391 0)
(-24.0306 34.9502 1.19316e-16)
(-31.3727 35.1014 1.16468e-15)
(-32.6586 36.7018 1.58473e-15)
(-35.5261 37.673 -2.24067e-15)
(-38.9812 38.6217 -1.82946e-15)
(-42.56 40.0472 5.99194e-15)
(-45.8014 42.2238 0)
(-48.517 45.1862 -8.24591e-15)
(-50.2971 49.5293 -6.35731e-15)
(-51.1761 55.3765 6.53845e-15)
(-51.1412 62.3596 2.93753e-14)
(-49.3572 68.7621 -2.95756e-14)
(-46.353 73.7857 3.27288e-14)
(-43.9262 77.2302 -1.52495e-14)
(-42.3313 79.0897 1.65905e-14)
(-41.8987 79.4702 -3.2094e-14)
(-43.3123 78.5678 1.71828e-14)
(-47.4135 77.1251 -1.77919e-14)
(-53.6489 76.2675 0)
(-61.3002 76.6426 0)
(-26.7308 33.7874 0)
(-32.1267 34.3249 2.06917e-15)
(-33.8525 36.6031 -3.62553e-15)
(-36.6944 38.6544 0)
(-39.6887 40.555 0)
(-42.6126 42.3954 -8.12756e-15)
(-45.3094 44.2823 -5.56547e-15)
(-47.594 46.3302 5.54615e-15)
(-49.1497 48.7236 0)
(-49.6958 51.6122 0)
(-49.2731 55.1956 -2.34516e-14)
(-48.6561 58.9804 0)
(-48.0845 62.901 -2.59604e-14)
(-48.0311 66.1875 -2.61205e-14)
(-49.2301 68.8797 5.24038e-14)
(-51.7725 71.1901 2.92086e-14)
(-55.9368 73.5316 0)
(-60.5894 76.4936 4.32142e-14)
(-63.9525 78.7409 5.46753e-14)
(-65.6546 74.7559 -5.23001e-14)
(0.131971 87.8863 -8.29149e-16)
(-1.04134 88.6242 -3.0382e-17)
(-1.52973 88.2862 8.27963e-16)
(-1.33716 86.8236 -8.07095e-16)
(-0.892665 84.7964 6.62423e-16)
(-0.592309 82.8551 -6.0345e-16)
(-0.52357 81.329 5.09736e-16)
(-0.600589 80.2424 4.79842e-16)
(-0.726884 79.5409 -4.23332e-16)
(-0.850531 79.2329 -7.98355e-16)
(-0.966031 79.3803 -1.51192e-15)
(-1.05662 80.0391 6.98401e-16)
(-1.17686 81.3951 0)
(-1.23749 83.6003 0)
(-1.4942 87.4216 -1.28604e-15)
(-1.29915 92.5417 0)
(-2.48167 101.111 0)
(-0.0660844 108.359 6.68951e-16)
(-7.64634 125.487 -7.06592e-16)
(11.5523 119.983 2.64088e-15)
(-4.94867 89.211 -1.94468e-15)
(-5.6907 89.0799 -1.08752e-15)
(-5.66322 87.9561 -6.299e-17)
(-5.09359 86.1633 -1.60479e-15)
(-4.46739 84.2509 -2.80623e-15)
(-4.0753 82.5693 2.29538e-15)
(-3.91501 81.235 5.11987e-17)
(-3.8851 80.232 -1.83808e-15)
(-3.91206 79.5481 -1.7164e-15)
(-3.9614 79.2324 -8.24152e-16)
(-4.03609 79.367 2.21977e-15)
(-4.11676 80.0103 1.38725e-15)
(-4.26302 81.3543 4.04257e-15)
(-4.38484 83.5409 0)
(-4.76554 87.3619 3.85438e-15)
(-4.75635 92.5154 -2.59277e-15)
(-6.23447 100.984 5.11678e-15)
(-4.12909 108.275 2.67182e-15)
(-12.2792 125.145 -2.82735e-15)
(6.87129 120.414 -2.40933e-18)
(-10.1359 89.8394 -4.39945e-15)
(-10.1958 88.7672 4.07991e-15)
(-9.62665 87.0807 9.76716e-15)
(-8.75767 85.2098 -1.54906e-15)
(-8.00552 83.5015 0)
(-7.53915 82.0683 -6.0519e-17)
(-7.29624 80.9054 2.04463e-15)
(-7.16956 79.9897 0)
(-7.10628 79.3441 1.72462e-15)
(-7.0866 79.0429 -3.2447e-15)
(-7.12197 79.1807 2.93229e-15)
(-7.19185 79.8188 -2.83507e-15)
(-7.3652 81.1584 4.41614e-17)
(-7.54707 83.3285 -2.57109e-15)
(-8.05224 87.1502 -2.57012e-15)
(-8.22688 92.2756 0)
(-9.98132 100.755 -2.58786e-15)
(-8.18681 108.048 0)
(-16.9075 124.604 -5.78665e-15)
(2.34349 120.647 0)
(-15.0043 89.3745 1.26664e-16)
(-14.3276 87.6288 -4.57394e-15)
(-13.3545 85.7824 -8.13749e-15)
(-12.2947 84.0572 0)
(-11.4704 82.6076 -5.64904e-15)
(-10.9529 81.405 2.23749e-15)
(-10.6376 80.3896 2.08695e-15)
(-10.4233 79.5564 3.74548e-15)
(-10.2792 78.9576 -3.42944e-15)
(-10.1979 78.6839 3.24212e-15)
(-10.198 78.8376 1.09152e-16)
(-10.2565 79.4806 -2.77266e-15)
(-10.4562 80.8236 0)
(-10.6941 82.981 5.2233e-15)
(-11.3231 86.8072 -5.23441e-15)
(-11.683 91.9063 -1.02951e-16)
(-13.706 100.38 -5.31538e-15)
(-12.2169 107.663 5.18191e-15)
(-21.4261 123.886 6.23475e-15)
(-2.15802 120.739 2.69499e-16)
(-19.1653 87.6589 2.34436e-14)
(-18.0624 85.9845 -1.45396e-14)
(-16.8837 84.255 3.83992e-15)
(-15.7265 82.7516 0)
(-14.872 81.5574 0)
(-14.3122 80.5604 -4.83188e-15)
(-13.9266 79.6774 8.23913e-15)
(-13.6311 78.9294 -7.60538e-15)
(-13.415 78.3894 3.23756e-15)
(-13.2796 78.157 6.23995e-15)
(-13.2492 78.3394 6.06705e-15)
(-13.2987 78.997 -5.64667e-15)
(-13.5283 80.3487 5.30119e-15)
(-13.8208 82.4946 -1.31439e-17)
(-14.5799 86.3258 5.22791e-15)
(-15.119 91.3848 1.13879e-16)
(-17.4202 99.8357 -5.31044e-15)
(-16.226 107.111 1.02509e-14)
(-25.9651 122.968 -1.15438e-14)
(-6.64836 120.694 -1.06214e-14)
(-22.8605 85.8509 5.59801e-15)
(-21.5848 84.1324 -4.06006e-15)
(-20.2646 82.5769 1.65955e-16)
(-19.0498 81.3217 0)
(-18.1834 80.3582 0)
(-17.5867 79.5468 -9.69658e-15)
(-17.1334 78.7887 8.16781e-15)
(-16.7662 78.133 1.52143e-14)
(-16.4898 77.6637 -1.01901e-14)
(-16.3111 77.4839 -6.48205e-15)
(-16.2594 77.7033 1.19038e-14)
(-16.3059 78.3805 -2.25358e-14)
(-16.5707 79.7437 5.18675e-15)
(-16.9166 81.879 5.10265e-15)
(-17.8111 85.7141 5.22179e-15)
(-18.5225 90.725 -4.93544e-15)
(-21.1125 99.1546 0)
(-20.2144 106.405 1.06153e-14)
(-30.4652 121.851 1.24183e-14)
(-11.1603 120.498 1.11702e-14)
(-26.3003 83.5903 -9.7223e-15)
(-24.8916 82.0943 0)
(-23.4749 80.7634 1.48643e-14)
(-22.2314 79.7654 -1.22313e-14)
(-21.3617 79.0195 0)
(-20.7331 78.3716 0)
(-20.225 77.7359 -4.18771e-15)
(-19.8029 77.1791 -1.51061e-14)
(-19.4817 76.788 6.88491e-15)
(-19.274 76.6668 0)
(-19.2131 76.9274 0)
(-19.2644 77.6283 5.63633e-15)
(-19.5715 79.0057 -5.39448e-15)
(-19.9713 81.1328 -5.21234e-15)
(-21.0099 84.9701 -1.04329e-14)
(-21.8863 89.924 9.85454e-15)
(-24.7724 98.3328 3.05542e-16)
(-24.1756 105.545 2.92062e-16)
(-34.8753 120.546 -1.14871e-14)
(-15.7155 120.146 -1.06355e-14)
(-29.4068 81.3122 -8.91591e-15)
(-27.9368 79.9966 -1.62821e-14)
(-26.4645 78.845 -5.35697e-16)
(-25.2256 78.0918 1.79513e-14)
(-24.3701 77.5459 0)
(-23.723 77.0539 9.27252e-15)
(-23.1767 76.5382 -8.45776e-15)
(-22.722 76.0828 7.20293e-15)
(-22.3763 75.7732 6.72253e-15)
(-22.156 75.7133 -6.47808e-15)
(-22.0983 76.0178 5.83468e-15)
(-22.1626 76.7456 0)
(-22.5194 78.1391 -1.09689e-14)
(-22.9744 80.2591 2.0804e-14)
(-24.1688 84.0948 -2.02046e-14)
(-25.2013 88.9849 0)
(-28.3948 97.3711 1.39694e-17)
(-28.0976 104.527 -1.03485e-14)
(-39.1876 119.07 2.35252e-14)
(-20.3097 119.629 -3.12918e-14)
(-32.1757 79.0657 -3.05533e-16)
(-30.6963 77.808 2.28858e-14)
(-29.192 76.829 -1.32551e-14)
(-27.9937 76.3284 -5.90684e-15)
(-27.1747 75.9727 1.03854e-14)
(-26.534 75.6294 -1.85243e-14)
(-25.9777 75.2341 8.04717e-15)
(-25.518 74.8815 0)
(-25.1682 74.6533 1.28453e-16)
(-24.951 74.6541 -6.21127e-15)
(-24.9081 75.0015 -1.20854e-14)
(-24.9944 75.7559 1.10235e-14)
(-25.4096 77.1628 -1.09612e-14)
(-25.9212 79.2735 1.0396e-14)
(-27.2825 83.0983 1.06216e-14)
(-28.4609 87.918 -9.82465e-15)
(-31.9796 96.2749 3.11756e-14)
(-31.9719 103.353 -1.00247e-14)
(-43.4499 117.439 -2.28217e-14)
(-24.9171 118.933 2.71287e-17)
(-34.5466 76.9036 -8.21327e-15)
(-33.0977 75.6682 2.9776e-14)
(-31.6004 74.8115 4.48304e-16)
(-30.4958 74.5403 -2.33044e-14)
(-29.7452 74.3571 -1.06457e-14)
(-29.1482 74.151 1.80422e-14)
(-28.6163 73.8677 0)
(-28.1817 73.6079 7.58214e-15)
(-27.8503 73.4526 -1.35333e-14)
(-27.6527 73.5085 0)
(-27.6376 73.8937 -1.18411e-14)
(-27.7548 74.6701 1.12138e-14)
(-28.2381 76.0839 0)
(-28.809 78.1826 2.07658e-14)
(-30.3488 81.9842 -1.01894e-14)
(-31.6602 86.7296 0)
(-35.5255 95.0468 -3.11669e-14)
(-35.7925 102.033 3.10984e-14)
(-47.6468 115.663 2.32959e-14)
(-29.5206 118.047 4.2354e-14)
(-36.4363 74.9604 1.59118e-14)
(-35.1278 73.6798 7.50474e-15)
(-33.6792 72.8861 -1.27587e-14)
(-32.731 72.7953 -1.17715e-14)
(-32.084 72.7499 2.04276e-14)
(-31.5729 72.659 -1.79539e-14)
(-31.097 72.4668 8.17878e-15)
(-30.7132 72.2809 -1.5134e-14)
(-30.4213 72.1854 2.02239e-14)
(-30.2593 72.2871 1.28671e-14)
(-30.2844 72.7017 -1.16099e-14)
(-30.4418 73.4937 2.03851e-16)
(-31.0018 74.906 -1.05317e-14)
(-31.6339 76.9905 -3.13154e-14)
(-33.3631 80.7547 2.03945e-14)
(-34.7931 85.4255 4.37927e-16)
(-39.0303 93.6866 2.08102e-14)
(-39.5507 100.569 0)
(-51.7633 113.753 -2.27026e-14)
(-34.1167 116.964 2.11336e-14)
(-37.9118 73.4101 0)
(-36.8504 71.9751 0)
(-35.459 71.1373 -1.31159e-14)
(-34.7258 71.1597 -3.89587e-16)
(-34.216 71.2151 3.07382e-14)
(-33.8339 71.2047 -8.91831e-15)
(-33.4419 71.0757 8.49354e-15)
(-33.1298 70.9397 -1.45713e-14)
(-32.8933 70.8854 0)
(-32.7795 71.0171 1.26475e-14)
(-32.8545 71.4476 1.18125e-14)
(-33.0597 72.2441 0)
(-33.7035 73.6432 -1.09238e-14)
(-34.3977 75.7097 2.05332e-14)
(-36.3255 79.4174 2.05812e-14)
(-37.8579 84.0153 -9.34696e-15)
(-42.4937 92.1939 -4.07032e-14)
(-43.2359 98.9642 0)
(-55.8005 111.721 0)
(-38.7001 115.676 -8.55393e-18)
(-39.013 72.4561 -1.63245e-14)
(-38.3132 70.7178 0)
(-36.9715 69.6732 9.33263e-17)
(-36.5179 69.7111 1.21256e-14)
(-36.1809 69.8121 -2.04088e-14)
(-35.966 69.8295 0)
(-35.6773 69.7234 8.22276e-15)
(-35.4531 69.6033 0)
(-35.2832 69.5658 0)
(-35.2262 69.7079 -1.26246e-14)
(-35.3578 70.1388 0)
(-35.6152 70.9286 1.1394e-14)
(-36.3472 72.3034 -3.21865e-14)
(-37.1039 74.3486 2.07261e-14)
(-39.2376 77.9778 -9.98577e-15)
(-40.8562 82.5087 3.99952e-14)
(-45.9194 90.5678 0)
(-46.8397 97.2302 -2.05182e-14)
(-59.7731 109.584 0)
(-43.2616 114.172 4.21512e-14)
(-39.9417 72.2434 0)
(-39.7058 69.9874 6.1398e-17)
(-38.3489 68.5717 1.5285e-16)
(-38.2174 68.504 -3.56814e-14)
(-38.0674 68.5749 1.03003e-14)
(-38.0356 68.5509 -9.2704e-15)
(-37.851 68.4192 -8.23084e-15)
(-37.7141 68.277 1.52195e-14)
(-37.6096 68.23 -1.34581e-14)
(-37.6104 68.3621 -2.55624e-14)
(-37.801 68.778 1.16322e-14)
(-38.1122 69.5507 1.12177e-14)
(-38.934 70.8905 1.07275e-14)
(-39.7544 72.9116 1.03734e-14)
(-42.0992 76.4381 0)
(-43.7904 80.915 4.40155e-16)
(-49.3109 88.8092 -4.07312e-14)
(-50.3582 95.3747 -4.83505e-16)
(-63.6905 107.354 2.20252e-14)
(-47.7905 112.437 -4.20897e-14)
(-40.9849 72.8868 1.96365e-14)
(-41.2598 69.8054 1.58716e-14)
(-39.7693 67.8936 1.37448e-14)
(-39.9728 67.5725 -1.25285e-14)
(-39.979 67.5193 1.03252e-14)
(-40.1093 67.3727 1.8959e-14)
(-40.012 67.1649 -8.03224e-15)
(-39.9495 66.9637 -3.03911e-14)
(-39.9001 66.8813 -4.80017e-16)
(-39.9514 66.9825 -4.80975e-16)
(-40.1969 67.3686 1.16648e-14)
(-40.5583 68.114 -2.2455e-14)
(-41.4678 69.4076 0)
(-42.3517 71.4009 1.07604e-14)
(-44.9074 74.7992 -4.07775e-14)
(-46.66 79.2428 1.95656e-14)
(-52.6657 86.9195 2.06097e-14)
(-53.7855 93.3636 0)
(-67.5654 105.035 -2.25834e-14)
(-52.2749 110.452 0)
(-42.823 74.1822 4.2429e-16)
(-43.3227 69.9815 3.32737e-16)
(-41.48 67.5639 1.4499e-14)
(-41.9551 66.8496 -3.82774e-14)
(-42.0357 66.5877 3.24162e-14)
(-42.2571 66.252 9.47472e-15)
(-42.2016 65.9299 -8.39781e-15)
(-42.1844 65.6432 1.49025e-14)
(-42.1724 65.5062 1.35888e-14)
(-42.2613 65.5616 -3.68478e-17)
(-42.5538 65.9063 0)
(-42.9591 66.6165 -2.02375e-16)
(-43.9512 67.8532 1.05707e-14)
(-44.8978 69.8144 2.1138e-14)
(-47.6567 73.0592 7.98753e-16)
(-49.4607 77.4968 -3.95785e-14)
(-55.9756 84.8832 2.11982e-14)
(-57.0995 91.2312 -4.03256e-14)
(-71.4135 102.619 2.26058e-14)
(-56.7003 108.198 0)
(-46.5586 75.3065 0)
(-46.3762 69.7915 -1.63386e-14)
(-43.823 67.1557 -1.41254e-14)
(-44.3227 66.0641 0)
(-44.3239 65.6201 3.29829e-14)
(-44.5225 65.0985 -2.82751e-14)
(-44.4503 64.6636 -3.40401e-14)
(-44.4399 64.2863 -2.23619e-16)
(-44.4423 64.0878 0)
(-44.5516 64.0907 -3.37158e-17)
(-44.8807 64.3873 1.19309e-14)
(-45.3217 65.0581 0)
(-46.3903 66.228 2.19124e-14)
(-47.3982 68.1533 -4.15435e-14)
(-50.3469 71.2231 2.00084e-14)
(-52.1995 75.6819 -1.6869e-17)
(-59.2346 82.6729 -2.06475e-14)
(-60.279 88.9928 2.04211e-14)
(-75.2577 100.112 -2.37981e-14)
(-61.0365 105.661 4.07452e-14)
(-52.6485 74.6315 0)
(-49.8442 68.0218 0)
(-46.4561 66.1326 -2.86272e-14)
(-46.8667 64.9234 4.9944e-14)
(-46.7272 64.4657 -4.30076e-14)
(-46.8489 63.8217 9.46222e-15)
(-46.7287 63.3118 3.36781e-14)
(-46.7025 62.8566 1.54486e-14)
(-46.7051 62.6034 -1.36302e-14)
(-46.822 62.5571 1.27542e-14)
(-47.1796 62.8055 -2.40325e-14)
(-47.6502 63.439 1.10685e-14)
(-48.7918 64.537 2.19262e-14)
(-49.8605 66.4282 2.15553e-14)
(-52.9859 69.3089 -2.0026e-14)
(-54.9026 73.8088 1.96276e-14)
(-62.4543 80.2816 4.14021e-14)
(-63.328 86.7159 -1.98542e-14)
(-79.1614 97.5459 0)
(-65.2198 102.803 0)
(-57.373 70.8333 0)
(-52.3023 64.5311 1.72876e-14)
(-48.8813 64.5195 -1.40346e-14)
(-49.4076 63.4455 -2.51818e-14)
(-49.1621 63.1476 1.01442e-14)
(-49.2062 62.4194 1.86173e-14)
(-49.016 61.8625 1.44487e-17)
(-48.9579 61.3359 0)
(-48.9431 61.0321 0)
(-49.0545 60.9386 2.57622e-14)
(-49.4339 61.1411 4.00635e-16)
(-49.9268 61.7453 -2.23513e-14)
(-51.1385 62.7684 0)
(-52.2705 64.6344 -4.16535e-14)
(-55.5561 67.31 2.08392e-14)
(-57.5754 71.8716 -5.98558e-14)
(-65.6228 77.7124 2.06298e-14)
(-66.3029 84.5395 2.09928e-14)
(-83.1939 94.8346 -4.62524e-14)
(-69.1826 99.4561 4.04107e-14)
(-55.7335 67.8522 -6.35015e-16)
(-54.3337 62.1915 -1.61978e-14)
(-51.5545 63.2645 -1.36236e-14)
(-52.37 61.9802 1.19215e-14)
(-51.9174 61.8041 2.10583e-14)
(-51.8421 60.9645 -1.80905e-14)
(-51.4851 60.3813 -1.63941e-14)
(-51.3321 59.7914 1.50299e-14)
(-51.2354 59.4274 -1.32207e-14)
(-51.2955 59.2792 -1.25407e-14)
(-51.6591 59.419 2.30502e-14)
(-52.1526 59.9952 1.79698e-16)
(-53.4087 60.9146 -2.13533e-14)
(-54.6074 62.7739 1.99446e-14)
(-58.009 65.209 0)
(-60.1939 69.8971 1.97465e-14)
(-68.6019 74.9477 5.74474e-16)
(-69.4503 82.6759 -1.96074e-14)
(-87.2405 91.4202 0)
(-73.1232 95.6203 -3.99149e-14)
(-54.1241 67.6677 1.73812e-14)
(-55.9911 60.0973 2.45982e-17)
(-53.4156 61.0417 1.23418e-14)
(-54.5259 59.8704 -2.08472e-14)
(-53.6665 59.9212 -2.81075e-16)
(-53.4755 59.3698 7.98425e-15)
(-52.9294 59.019 2.16572e-16)
(-52.6967 58.5989 6.55692e-18)
(-52.5418 58.3321 -1.11307e-14)
(-52.5833 58.2461 -1.01828e-14)
(-52.9304 58.3873 2.93632e-16)
(-53.4388 58.9972 -9.16558e-15)
(-54.6954 59.859 0)
(-55.969 61.7776 3.49756e-14)
(-59.3656 64.053 0)
(-61.755 68.9387 -1.73579e-14)
(-70.1261 73.4194 1.76062e-14)
(-70.942 81.9405 1.77581e-14)
(-89.3003 89.0999 -3.11964e-16)
(-75.1122 94.3443 2.4412e-16)
(-54.3116 67.2326 0)
(-56.4817 60.076 1.18186e-14)
(-53.7847 60.7407 0)
(-54.9227 59.6383 8.52681e-15)
(-54.0019 59.6366 0)
(-53.7947 59.1165 -1.25581e-14)
(-53.2223 58.7744 1.75053e-16)
(-52.9767 58.3756 -1.49885e-16)
(-52.8093 58.1124 8.83106e-15)
(-52.8471 58.0302 8.0847e-15)
(-53.1896 58.164 -7.75286e-15)
(-53.7059 58.7748 1.49735e-14)
(-54.9581 59.6175 0)
(-56.2572 61.551 -1.49152e-14)
(-59.6436 63.7308 2.40721e-16)
(-62.1036 68.7124 -2.0144e-18)
(-70.4091 73.0008 -2.34655e-16)
(-71.3695 81.7685 -1.56841e-14)
(-89.6491 88.504 -1.58576e-14)
(-75.5984 94.1042 -1.38166e-14)
(-54.6538 66.5929 2.1611e-16)
(-56.952 59.9865 -1.79757e-16)
(-54.1634 60.3597 0)
(-55.3207 59.3406 8.70206e-15)
(-54.3457 59.2897 7.02296e-15)
(-54.1187 58.8153 1.2399e-14)
(-53.5194 58.4931 3.4563e-16)
(-53.2586 58.1272 5.39742e-18)
(-53.0786 57.8756 -1.35753e-16)
(-53.1129 57.8031 -1.62098e-14)
(-53.4496 57.9329 1.89011e-18)
(-53.9748 58.5462 -1.49666e-14)
(-55.2206 59.3725 1.13256e-16)
(-56.5463 61.3227 -2.37083e-16)
(-59.9096 63.456 -1.48249e-14)
(-62.457 68.4847 1.51328e-14)
(-70.6736 72.6299 2.46768e-16)
(-71.827 81.5647 -2.34007e-16)
(-89.9239 87.9135 1.60832e-14)
(-76.0959 93.9038 2.77188e-14)
(-55.0605 65.9177 0)
(-57.4285 59.8472 0)
(-54.5696 59.9512 1.00205e-14)
(-55.7356 59.0074 -8.38902e-15)
(-54.7115 58.9069 -7.08425e-15)
(-54.4602 58.4802 -2.06572e-16)
(-53.8325 58.1827 -1.09681e-14)
(-53.5531 57.8553 -3.08107e-16)
(-53.3581 57.6214 1.36843e-16)
(-53.3862 57.5636 8.16908e-15)
(-53.7145 57.6941 1.52118e-14)
(-54.2479 58.3109 3.42632e-19)
(-55.4852 59.1236 7.37008e-15)
(-56.8377 61.0882 0)
(-60.1709 63.1718 1.48117e-14)
(-62.8115 68.2505 2.31153e-16)
(-70.9278 72.2606 1.52634e-14)
(-72.2944 81.3436 1.55433e-14)
(-90.1928 87.343 2.63496e-16)
(-76.5702 93.7048 -1.38894e-14)
(-55.4889 65.2525 1.29692e-14)
(-57.9069 59.6841 -6.59568e-18)
(-54.9933 59.5364 1.18634e-16)
(-56.158 58.66 -2.6408e-16)
(-55.0882 58.5094 -7.10277e-15)
(-54.8124 58.1255 -6.39674e-15)
(-54.1582 57.8524 1.10924e-14)
(-53.8593 57.5649 1.52882e-16)
(-53.6479 57.3522 9.01193e-15)
(-53.6675 57.3124 0)
(-53.9843 57.4479 -7.60677e-15)
(-54.525 58.0694 1.48222e-14)
(-55.7518 58.8711 -7.3679e-15)
(-57.134 60.8476 0)
(-60.4326 62.889 -2.4077e-16)
(-63.1674 68.01 -1.49491e-14)
(-71.1774 71.8968 -1.52536e-14)
(-72.7591 81.1191 -1.53183e-14)
(-90.4541 86.7761 -2.46056e-16)
(-77.0276 93.5106 2.17856e-16)
(-55.9234 64.6043 -2.6156e-14)
(-58.3834 59.5008 1.16051e-14)
(-55.4291 59.1164 -4.08252e-17)
(-56.583 58.3005 1.27542e-16)
(-55.469 58.1013 1.47021e-14)
(-55.1695 57.7549 6.2113e-15)
(-54.4918 57.5048 -1.09927e-14)
(-54.1741 57.2574 -1.54448e-16)
(-53.9457 57.0686 -9.12251e-15)
(-53.9557 57.0492 -1.3264e-16)
(-54.259 57.1935 1.17353e-16)
(-54.8055 57.8215 -7.40428e-15)
(-56.0203 58.6149 -7.24759e-15)
(-57.4324 60.6013 -1.14499e-16)
(-60.6939 62.6059 1.50431e-14)
(-63.5243 67.7634 1.51871e-14)
(-71.4225 71.5366 1.54823e-14)
(-73.2167 80.9097 -2.35299e-16)
(-90.7068 86.2062 -1.62021e-14)
(-77.4715 93.3225 2.07259e-16)
(-56.3585 63.9828 1.27749e-14)
(-58.8568 59.2999 -1.16432e-14)
(-55.8741 58.6938 -1.94121e-14)
(-57.0069 57.9325 0)
(-55.851 57.6859 -2.29241e-17)
(-55.5287 57.3722 -2.20826e-16)
(-54.8308 57.1428 1.16239e-14)
(-54.4955 56.9345 1.61783e-16)
(-54.2502 56.7715 -1.41389e-16)
(-54.2496 56.7744 0)
(-54.5386 56.9303 0)
(-55.089 57.5673 7.39706e-15)
(-56.2905 58.355 7.36291e-15)
(-57.7325 60.3498 1.49546e-14)
(-60.9549 62.3227 -3.03204e-14)
(-63.8821 67.5105 2.31687e-16)
(-71.6631 71.1792 -1.52261e-14)
(-73.6734 80.6922 0)
(-90.9469 85.6469 1.82053e-17)
(-77.9037 93.1413 -1.4013e-14)
(-56.7919 63.3888 1.26128e-14)
(-59.3253 59.0871 1.19396e-14)
(-56.3257 58.2706 9.58925e-15)
(-57.4263 57.5593 8.2573e-15)
(-56.2314 57.2663 -1.49026e-14)
(-55.8874 56.9806 -6.05993e-15)
(-55.1727 56.7691 6.59178e-18)
(-54.8215 56.5981 -1.04104e-14)
(-54.5598 56.4621 0)
(-54.5481 56.4887 8.53939e-15)
(-54.8225 56.6582 -1.24003e-16)
(-55.3751 57.3065 -7.1619e-15)
(-56.5621 58.0914 -1.13069e-16)
(-58.0337 60.0932 3.75985e-18)
(-61.2154 62.0394 1.50358e-14)
(-64.2404 67.2512 0)
(-71.8991 70.8247 0)
(-74.1339 80.4671 -1.56976e-14)
(-91.1742 85.0906 1.82572e-17)
(-78.326 92.9676 -7.27931e-19)
(-57.2227 62.8214 -2.5479e-14)
(-59.7867 58.8663 -1.17799e-14)
(-56.7807 57.849 -9.39757e-15)
(-57.8375 57.1842 -8.24429e-15)
(-56.6079 56.8452 1.46206e-14)
(-56.2434 56.5829 0)
(-55.5153 56.3865 0)
(-55.1499 56.2504 1.44296e-17)
(-54.8729 56.1418 0)
(-54.8498 56.1929 -8.63642e-15)
(-55.1098 56.3777 -7.75727e-15)
(-55.6632 57.0392 -7.50222e-15)
(-56.8347 57.8241 -7.47929e-15)
(-58.3357 59.8315 -2.98186e-14)
(-61.4753 61.7559 0)
(-64.5989 66.9855 0)
(-72.1307 70.4732 0)
(-74.5986 80.2338 1.572e-14)
(-91.3896 84.5361 3.16337e-14)
(-78.7398 92.8019 1.40756e-14)
(-57.6506 62.2795 1.26675e-14)
(-60.2388 58.6415 0)
(-57.236 57.4322 9.29929e-15)
(-58.237 56.8108 2.58631e-16)
(-56.9784 56.4255 -7.51501e-15)
(-56.5944 56.1824 0)
(-55.8564 55.9977 0)
(-55.4788 55.8937 1.0417e-14)
(-55.1876 55.8123 1.51064e-16)
(-55.1534 55.8883 -2.723e-16)
(-55.3994 56.0895 8.09392e-15)
(-55.9527 56.7657 7.39203e-15)
(-57.1081 57.5533 7.36257e-15)
(-58.6382 59.565 1.47347e-14)
(-61.7344 61.4723 -9.83931e-18)
(-64.9573 66.7134 2.3219e-16)
(-72.3578 70.125 0)
(-75.0676 79.9918 0)
(-91.5931 83.982 -1.57814e-14)
(-79.1464 92.6446 0)
(-58.0745 61.7621 1.25454e-14)
(-60.6794 58.417 0)