/*--------------------------------*- C++ -*----------------------------------*\
  =========                 |
  \\      /  F ield         | OpenFOAM: The Open Source CFD Toolbox
   \\    /   O peration     | Website:  https://openfoam.org
    \\  /    A nd           | Version:  10
     \\/     M anipulation  |
\*---------------------------------------------------------------------------*/
FoamFile
{
    format      ascii;
    class       volVectorField;
    location    "100";
    object      Urel;
}
// * * * * * * * * * * * * * * * * * * * * * * * * * * * * * * * * * * * * * //

dimensions      [0 1 -1 0 0 0 0];

internalField   nonuniform List<vector> 
420
(
(0.753838 -0.144987 3.45519e-18)
(0.023842 1.08451 -3.20847e-17)
(0.25053 1.46515 -1.98925e-16)
(0.343057 1.57369 5.6343e-17)
(0.401605 1.45771 -4.25673e-16)
(0.421811 1.14193 0)
(0.452708 0.5665 0)
(0.421012 -0.322175 5.62837e-16)
(0.444272 -1.46518 -5.86742e-16)
(0.381227 -2.89066 0)
(0.790156 -0.179303 2.0452e-17)
(-0.0531241 0.971719 -7.30328e-17)
(0.207967 1.35439 5.81643e-16)
(0.330088 1.48946 -9.26493e-16)
(0.420049 1.42703 2.85588e-16)
(0.492 1.16959 5.43565e-18)
(0.600014 0.619852 2.73314e-15)
(0.625328 -0.248487 -7.99272e-16)
(0.681183 -1.36695 1.22862e-15)
(0.68175 -2.76206 0)
(0.890043 -0.191175 7.23892e-18)
(-0.068943 0.839546 -3.10273e-16)
(0.209116 1.23479 5.86894e-16)
(0.350962 1.40474 1.06455e-15)
(0.470761 1.40019 -7.05351e-16)
(0.583603 1.20315 3.45036e-15)
(0.733459 0.698987 1.57436e-15)
(0.773632 -0.134633 5.07433e-15)
(0.852254 -1.21696 -1.84473e-15)
(0.938796 -2.58583 -3.8676e-15)
(0.945966 -0.169637 2.70182e-17)
(-0.113725 0.696624 2.98064e-16)
(0.169398 1.08704 -7.22927e-16)
(0.322431 1.27824 7.19811e-16)
(0.463555 1.32883 -1.39003e-15)
(0.611058 1.18678 1.55134e-15)
(0.794124 0.759067 -8.85585e-15)
(0.878169 0.00435798 0)
(0.996959 -1.03135 -4.1953e-15)
(1.16322 -2.36342 3.65484e-15)
(0.972573 -0.147654 0)
(-0.174073 0.543006 2.60066e-16)
(0.106018 0.915091 -2.48211e-16)
(0.270534 1.11677 0)
(0.43588 1.2087 -2.70304e-16)
(0.615497 1.12902 -3.03781e-16)
(0.821955 0.790898 2.96873e-15)
(0.954531 0.146672 -4.11597e-15)
(1.10795 -0.815344 0)
(1.33266 -2.09453 -1.49346e-14)
(0.970273 -0.110974 -1.41777e-17)
(-0.2445 0.383958 0)
(0.0376422 0.720069 0)
(0.217051 0.920044 1.19224e-15)
(0.40478 1.04291 -1.96942e-15)
(0.609325 1.02918 2.23571e-15)
(0.821611 0.776853 6.05965e-16)
(0.984435 0.268348 8.76715e-15)
(1.14916 -0.579946 -1.1228e-14)
(1.40057 -1.78322 7.28478e-15)
(0.930319 -0.0482766 0)
(-0.318017 0.223113 -2.57097e-16)
(-0.0262093 0.505878 -1.73756e-15)
(0.169212 0.691203 -7.64512e-16)
(0.370747 0.830522 -3.3506e-15)
(0.583491 0.869898 2.21876e-15)
(0.780293 0.713148 -5.42536e-15)
(0.92844 0.356842 7.61703e-16)
(1.06803 -0.331337 -3.25009e-15)
(1.30717 -1.42214 -1.11862e-14)
(0.832875 0.0427692 3.16478e-17)
(-0.388437 0.0640711 2.56092e-16)
(-0.0744633 0.283693 2.34647e-15)
(0.134259 0.441237 5.47108e-16)
(0.33517 0.575575 2.08666e-15)
(0.530869 0.647966 0)
(0.689456 0.596324 5.59349e-15)
(0.769407 0.389195 7.08686e-15)
(0.844154 -0.0620087 8.55112e-15)
(1.03622 -0.995376 8.58886e-15)
(0.645324 0.146394 3.31392e-17)
(-0.432203 -0.0654622 2.55724e-16)
(-0.117965 0.115847 -2.70696e-16)
(0.0709845 0.254624 -1.61274e-15)
(0.240962 0.375698 5.15034e-15)
(0.401929 0.461212 7.18309e-15)
(0.52581 0.480005 -2.51995e-15)
(0.572351 0.407156 0)
(0.591081 0.187607 0)
(0.688724 -0.646736 -9.1943e-15)
(0.332183 0.178638 -2.49154e-17)
(-0.25515 -0.0791602 7.23968e-16)
(-0.016356 -0.0288143 0)
(0.0799058 0.0147892 0)
(0.143628 0.0417893 -3.39799e-15)
(0.190868 0.064638 -3.43411e-17)
(0.214902 0.0958936 6.1201e-15)
(0.231368 0.15026 -1.35191e-14)
(0.284347 0.167978 1.61491e-14)
(0.479217 -0.446775 1.32671e-15)
(0.353561 -4.66312 0)
(0.378096 -6.84984 0)
(0.507547 -9.32358 0)
(0.655976 -11.8648 -7.64499e-16)
(0.656012 -14.5524 0)
(1.26301 -17.6245 0)
(1.32181 -19.3071 8.23586e-16)
(-0.0516293 -25.4938 0)
(4.17352 -28.7251 0)
(-2.58704 -16.0865 0)
(0.755599 -4.53566 1.5661e-15)
(0.91215 -6.78051 2.51771e-15)
(1.21218 -9.29942 1.03646e-16)
(1.52904 -11.8437 8.25949e-16)
(1.70039 -14.5363 4.3023e-17)
(2.45405 -17.6197 1.00769e-15)
(2.63485 -19.2752 -7.33953e-17)
(1.69521 -25.4312 -4.59677e-17)
(5.96744 -28.5576 -1.82031e-15)
(-1.70081 -15.6715 -9.67574e-16)
(1.1221 -4.35142 1.42257e-15)
(1.41997 -6.64199 0)
(1.89656 -9.18147 -1.95235e-15)
(2.37641 -11.7076 -1.60774e-15)
(2.72077 -14.3804 4.80263e-15)
(3.60904 -17.4261 -9.81885e-16)
(3.93689 -19.1322 1.67585e-15)
(3.43922 -25.1877 0)
(7.75501 -27.9235 2.00115e-15)
(-0.511042 -15.8616 -6.84364e-17)
(1.44167 -4.11172 3.11367e-15)
(1.88749 -6.44858 7.41326e-15)
(2.55243 -8.99084 -7.58192e-15)
(3.19606 -11.4821 2.9609e-15)
(3.7194 -14.1188 1.02975e-17)
(4.74626 -17.1084 0)
(5.21049 -18.8649 -1.68703e-15)
(5.18484 -24.755 -2.18172e-15)
(9.50721 -27.1606 -1.99969e-15)
(0.504124 -16.0898 4.3105e-15)
(1.6872 -3.82769 2.82037e-15)
(2.30464 -6.216 -2.41721e-15)
(3.17258 -8.73493 7.69508e-15)
(3.98079 -11.1741 -3.01922e-15)
(4.69059 -13.7598 2.47854e-15)
(5.86467 -16.6756 -3.89628e-15)
(6.4689 -18.4921 3.34998e-15)
(6.94074 -24.1307 2.15899e-15)
(11.223 -26.2485 0)
(1.76828 -16.3979 -8.68721e-15)
(1.8225 -3.52714 3.40176e-15)
(2.66734 -5.97558 -1.44152e-14)
(3.75363 -8.42954 -4.02406e-15)
(4.72139 -10.7949 9.24092e-15)
(5.62388 -13.3137 7.61472e-15)
(6.95404 -16.1356 1.2869e-16)
(7.69997 -18.0225 7.08704e-17)
(8.68098 -23.3369 -2.36167e-15)
(12.9091 -25.2445 -2.38816e-15)
(3.31113 -16.6065 9.19244e-15)
(1.83319 -3.26051 3.4884e-15)
(2.99473 -5.76542 5.02729e-15)
(4.30323 -8.09658 0)
(5.41598 -10.3621 -3.0811e-15)
(6.512 -12.7952 -4.90622e-15)
(8.00181 -15.4996 1.39206e-16)
(8.8913 -17.4605 -1.05068e-14)
(10.3647 -22.4097 -2.35169e-15)
(14.5357 -24.126 4.67878e-15)
(4.70995 -16.7338 -4.58258e-15)
(1.78398 -3.09716 1.34032e-14)
(3.33132 -5.61294 -4.62808e-15)
(4.83813 -7.74433 0)
(6.07685 -9.88671 -1.41312e-16)
(7.35696 -12.2139 2.02372e-14)
(9.00188 -14.7781 -8.15689e-15)
(10.0413 -16.8019 -7.19446e-15)
(11.983 -21.3684 4.97385e-15)
(16.0745 -22.8897 -4.9519e-15)
(6.17887 -16.8252 0)
(1.95363 -3.08266 3.3603e-16)
(3.70719 -5.4688 -4.59542e-15)
(5.36098 -7.34153 0)
(6.71697 -9.35853 6.49467e-15)
(8.16815 -11.5693 -1.52648e-14)
(9.96313 -13.9829 8.35308e-15)
(11.1471 -16.0737 3.58948e-15)
(13.5437 -20.1453 0)
(17.5554 -21.5278 -2.38667e-16)
(7.67018 -16.8168 4.95667e-15)
(2.82392 -2.92752 4.5476e-16)
(4.15998 -5.17791 9.54103e-18)
(5.83507 -6.84207 0)
(7.33003 -8.76404 -1.28021e-14)
(8.95112 -10.8681 4.85022e-15)
(10.8948 -13.0982 -4.39296e-15)
(12.2384 -15.2883 3.60315e-15)
(15.0741 -18.9181 5.47996e-16)
(19.0426 -20.0482 2.87072e-16)
(9.2282 -16.6774 -5.00777e-15)
(4.01689 -2.01681 2.91545e-15)
(4.57341 -4.78186 -4.92975e-15)
(6.16608 -6.36955 0)
(7.80199 -8.20031 0)
(9.55287 -10.2048 0)
(11.5966 -12.2482 -2.21851e-15)
(13.0342 -14.4294 9.25915e-15)
(16.3661 -17.7897 0)
(20.0964 -18.5405 0)
(10.3819 -16.4904 0)
(4.05492 -2.04156 -2.82883e-15)
(4.70408 -4.44236 -4.8759e-15)
(6.29102 -6.03866 0)
(8.05438 -7.81102 3.37928e-15)
(9.9259 -9.73459 -2.59151e-15)
(12.0434 -11.6868 2.28426e-15)
(13.6612 -13.8034 3.92592e-15)
(17.2445 -17.1537 -1.76886e-16)
(20.7339 -17.5727 1.33027e-15)
(11.1548 -16.0838 0)
(3.28521 -2.5661 2.73434e-16)
(4.76173 -4.18191 -2.11975e-17)
(6.45357 -5.7834 0)
(8.3542 -7.46664 2.13626e-16)
(10.3753 -9.25088 5.78606e-15)
(12.5775 -11.0746 -4.20401e-15)
(14.3876 -13.1494 -1.14507e-14)
(18.2342 -16.1902 -6.56198e-15)
(21.5588 -16.507 1.13527e-14)
(12.2347 -15.6326 5.09601e-15)
(3.01742 -2.56612 -1.31427e-14)
(4.82923 -3.90348 4.79021e-15)
(6.74722 -5.2944 0)
(8.8134 -6.796 -6.90727e-15)
(10.9826 -8.38102 -5.67022e-15)
(13.3149 -9.97042 9.11351e-15)
(15.2292 -12.0616 3.99622e-15)
(19.4325 -14.6113 0)
(22.62 -14.7646 -5.72927e-15)
(13.5847 -15.1497 1.22321e-16)
(3.26651 -2.55496 -2.80808e-16)
(5.09378 -3.64657 4.70415e-15)
(7.11389 -4.81543 0)
(9.29164 -6.11899 1.3506e-14)
(11.5703 -7.50825 -1.55121e-17)
(14.0196 -8.82458 -1.72409e-16)
(16.0156 -10.8641 8.32551e-15)
(20.517 -13.1547 -6.2053e-15)
(23.5668 -12.8284 -6.09997e-15)
(14.9517 -14.5011 0)
(3.59736 -2.37691 -2.94652e-15)
(5.42105 -3.28856 9.77761e-15)
(7.50631 -4.27483 8.36251e-15)
(9.76486 -5.38531 -9.66065e-15)
(12.1256 -6.58112 -1.67346e-14)
(14.6672 -7.61467 -3.44119e-16)
(16.705 -9.5322 -4.10151e-15)
(21.4775 -11.5692 -3.2223e-15)
(24.4163 -10.7708 -6.07257e-15)
(16.2653 -13.6918 -4.86913e-15)
(3.90702 -2.0863 -9.0512e-15)
(5.75538 -2.85091 4.82986e-15)
(7.89593 -3.6709 -3.68971e-15)
(10.2172 -4.59319 -9.97753e-15)
(12.6414 -5.60166 7.80122e-15)
(15.2554 -6.34486 -3.36989e-16)
(17.2925 -8.10698 7.79561e-15)
(22.3306 -9.91996 3.57631e-15)
(25.1578 -8.58391 3.18124e-15)
(17.4688 -12.699 -9.11587e-17)
(4.17488 -1.72209 2.63616e-15)
(6.06441 -2.34702 -2.43183e-15)
(8.2612 -3.00581 -1.31123e-16)
(10.6379 -3.74057 9.82372e-15)
(13.118 -4.56321 -1.37033e-14)
(15.7873 -5.00585 4.43221e-15)
(17.7901 -6.57901 -3.99124e-15)
(23.0752 -8.20334 9.22975e-15)
(25.6504 -6.28045 0)
(18.5098 -11.4291 1.09439e-16)
(4.38866 -1.32511 2.96195e-15)
(6.33222 -1.80485 2.44082e-15)
(8.58972 -2.29829 4.10731e-15)
(11.021 -2.84018 -6.48285e-15)
(13.5605 -3.47125 2.64071e-15)
(16.2864 -3.60238 0)
(18.2238 -4.9449 -1.83931e-15)
(23.7643 -6.32847 -6.18946e-15)
(26.0536 -3.8226 -9.66545e-17)
(19.1601 -9.7078 4.53529e-15)
(4.54681 -0.921561 1.35383e-15)
(6.55667 -1.2463 0)
(8.87205 -1.56723 2.04207e-15)
(11.3547 -1.90995 1.74824e-15)
(13.9569 -2.3439 9.77154e-17)
(16.7776 -2.14695 -1.07914e-15)
(18.711 -3.28334 1.80919e-15)
(24.4259 -4.17476 0)
(26.4436 -0.996234 2.70721e-15)
(19.3078 -7.43667 3.74688e-15)
(4.67231 -0.50882 1.50497e-15)
(6.75119 -0.691238 -2.52868e-15)
(9.11287 -0.843105 -1.22511e-16)
(11.6366 -0.99678 7.05452e-16)
(14.294 -1.27419 -6.5611e-17)
(17.1698 -0.753784 1.02094e-15)
(19.1502 -1.74566 -1.59682e-15)
(25.48 -2.3338 -2.46333e-17)
(26.8361 2.20789 1.9329e-15)
(20.5106 -5.85481 -2.64396e-15)
(4.71992 -0.0764356 2.18367e-29)
(6.86151 -0.180539 0)
(9.3015 -0.202548 0)
(11.8441 -0.211861 -7.75348e-16)
(14.5254 -0.397736 0)
(17.638 0.132002 0)
(19.2491 -0.104042 8.34295e-16)
(25.4369 -2.03337 0)
(28.5454 2.92117 0)
(14.865 -3.72699 -1.03687e-29)
(1.01543 -0.702356 9.20872e-16)
(1.23449 -1.64471 -7.5641e-15)
(1.62574 -1.83449 7.10167e-15)
(2.02255 -1.74933 -9.64983e-15)
(2.32754 -1.52625 6.43249e-15)
(2.56201 -1.2324 -1.34138e-14)
(2.7325 -0.916507 3.32738e-15)
(2.84637 -0.609713 -3.58846e-15)
(2.91842 -0.308357 0)
(2.94993 0.0502525 -4.24889e-16)
(-0.497308 -0.570804 1.45567e-14)
(-0.127048 -1.37692 0)
(0.313981 -1.44725 7.37973e-15)
(0.744091 -1.31844 -2.87261e-15)
(1.05088 -1.09845 -9.83614e-15)
(1.26009 -0.832798 0)
(1.392 -0.56353 -3.72134e-15)
(1.4574 -0.319386 -1.67933e-15)
(1.47202 -0.097604 1.13246e-15)
(1.50047 0.186544 -4.91065e-16)
(-1.11148 -0.58422 -1.20648e-14)
(-1.00966 -1.26896 0)
(-0.666028 -1.26363 6.73693e-15)
(-0.265318 -1.06751 6.44158e-16)
(0.0395982 -0.824796 8.16977e-15)
(0.243473 -0.564624 -3.77363e-15)
(0.361296 -0.318628 0)
(0.402999 -0.105849 4.60049e-15)
(0.373833 0.0634946 -7.50833e-16)
(0.35719 0.229571 6.5091e-16)
(-0.996458 -0.533269 5.48528e-15)
(-1.4068 -1.11123 -2.22658e-15)
(-1.29203 -1.12673 5.21685e-15)
(-1.0118 -0.912327 -5.59932e-15)
(-0.744074 -0.656698 6.53049e-16)
(-0.550582 -0.407222 3.41794e-15)
(-0.442194 -0.170652 -1.04288e-14)
(-0.410648 0.0391164 1.83332e-15)
(-0.45275 0.202912 3.11546e-15)
(-0.509545 0.318654 9.47406e-17)
(-0.724242 -0.420007 -8.19889e-15)
(-1.34317 -0.928802 6.17458e-15)
(-1.55018 -0.958415 0)
(-1.47335 -0.768428 2.03249e-15)
(-1.32096 -0.507604 2.17776e-15)
(-1.17941 -0.254163 -3.12135e-16)
(-1.0864 -0.0279031 1.66089e-15)
(-1.04798 0.161618 3.8479e-15)
(-1.06031 0.294874 7.48633e-18)
(-1.10153 0.371502 3.55799e-16)
(-0.46466 -0.290007 -3.27659e-15)
(-1.09494 -0.705521 4.33785e-15)
(-1.45023 -0.733343 1.76161e-15)
(-1.60056 -0.588661 -2.87426e-15)
(-1.61202 -0.366893 -1.76633e-15)
(-1.57076 -0.139846 -2.49225e-16)
(-1.5208 0.0613663 -3.05532e-15)
(-1.48715 0.223928 9.99459e-16)
(-1.47609 0.334094 3.0014e-16)
(-1.46852 0.384746 -3.41335e-16)
(-0.266458 -0.164427 0)
(-0.765339 -0.463357 -1.39518e-15)
(-1.16807 -0.458683 4.89544e-16)
(-1.43173 -0.357198 -6.44598e-16)
(-1.57731 -0.195205 1.01306e-15)
(-1.65308 -0.0222289 0)
(-1.67942 0.133667 6.67743e-16)
(-1.67713 0.25846 1.03773e-15)
(-1.65959 0.334246 -9.22644e-16)
(-1.62812 0.355538 -3.16413e-17)
(-0.115574 -0.047558 0)
(-0.448816 -0.197637 -2.18248e-16)
(-0.805628 -0.150468 1.96846e-15)
(-1.09665 -0.0803857 -1.42716e-15)
(-1.31343 0.0187466 0)
(-1.45687 0.122822 -1.96752e-16)
(-1.53812 0.21518 -6.23917e-16)
(-1.57146 0.286222 5.25974e-16)
(-1.56279 0.308675 5.39421e-16)
(-1.52916 0.291698 -2.20129e-16)
(0.0114785 0.0108528 -8.36911e-16)
(-0.187298 -0.0115428 2.21746e-16)
(-0.45669 0.0243627 2.17273e-16)
(-0.707432 0.0346307 -2.13742e-16)
(-0.907208 0.0562467 0)
(-1.04718 0.0806379 2.1064e-16)
(-1.12896 0.098928 2.09331e-16)
(-1.15872 0.105548 -2.05907e-16)
(-1.14065 0.0848532 -5.62189e-17)
(-1.1068 0.0619627 8.61963e-19)
(0.494819 0.418722 -2.12646e-16)
(0.708157 0.717779 1.07126e-17)
(0.687705 0.778032 -2.54501e-18)
(0.607922 0.771203 0)
(0.505379 0.779989 8.02067e-18)
(0.407069 0.812595 0)
(0.323016 0.854882 6.11227e-17)
(0.254422 0.8882 -5.84922e-18)
(0.200602 0.888085 2.15092e-17)
(0.152311 0.863833 -3.83906e-18)
)
;

boundaryField
{
    right
    {
        type            cyclic;
    }
    left
    {
        type            cyclic;
    }
    outerWall
    {
        type            noSlip;
    }
    stirrerWall
    {
        type            noSlip;
    }
    top
    {
        type            empty;
    }
    bottom
    {
        type            empty;
    }
}


// ************************************************************************* //
