/*--------------------------------*- C++ -*----------------------------------*\
  =========                 |
  \\      /  F ield         | OpenFOAM: The Open Source CFD Toolbox
   \\    /   O peration     | Website:  https://openfoam.org
    \\  /    A nd           | Version:  10
     \\/     M anipulation  |
\*---------------------------------------------------------------------------*/
FoamFile
{
    format      ascii;
    class       volVectorField;
    location    "100";
    object      Urel;
}
// * * * * * * * * * * * * * * * * * * * * * * * * * * * * * * * * * * * * * //

dimensions      [0 1 -1 0 0 0 0];

internalField   nonuniform List<vector> 
2000
(
(3.11246 -5.87284 -2.6637e-18)
(-0.451987 -3.76669 9.03414e-18)
(2.39338 -1.56522 -7.83555e-18)
(5.25746 2.08018 0)
(8.30133 6.0239 0)
(10.525 8.69679 1.46566e-16)
(11.9379 9.75697 -1.9788e-16)
(12.7253 9.53307 -2.6235e-16)
(13.0179 8.34512 3.43489e-16)
(12.9458 6.48402 4.45227e-16)
(12.6397 4.18826 5.7415e-16)
(12.2026 1.57573 0)
(11.6868 -1.36798 8.81554e-16)
(10.8672 -4.57297 8.59655e-16)
(9.91486 -7.58107 8.38299e-16)
(8.85651 -10.1996 8.2201e-16)
(7.7521 -12.2814 -8.08936e-16)
(6.54532 -13.9308 3.83048e-16)
(5.15923 -15.3289 3.8736e-16)
(3.59667 -16.6872 1.68348e-15)
(3.63165 -5.83762 -1.91295e-17)
(-0.853097 -4.14845 6.42996e-18)
(0.940218 -3.06367 -8.06763e-17)
(4.31616 0.000412488 -2.75445e-16)
(7.35486 4.09368 4.40037e-17)
(9.96356 7.28813 -6.0494e-16)
(11.7018 8.88602 3.6723e-16)
(12.7249 9.05763 7.48247e-16)
(13.2639 8.25522 2.92207e-16)
(13.2958 6.62523 3.84157e-16)
(13.0818 4.4522 -1.02201e-15)
(12.6363 1.92598 -6.46806e-16)
(12.0358 -0.853552 -8.4343e-16)
(11.14 -3.82762 -8.31702e-16)
(10.0812 -6.5719 -2.4931e-15)
(8.84093 -8.90193 -9.1777e-16)
(7.41605 -10.697 2.391e-15)
(5.76171 -12.0324 -2.34509e-15)
(3.94548 -13.2004 0)
(2.22323 -14.6518 -2.65014e-15)
(4.17314 -5.64267 1.75269e-17)
(-0.741605 -4.3618 -4.67687e-17)
(0.0204525 -3.94798 9.04874e-17)
(2.25906 -1.98842 2.9461e-16)
(4.79045 1.4178 4.23376e-16)
(7.80345 4.85874 1.30392e-16)
(10.1229 7.09011 3.71617e-16)
(11.6303 7.91273 -7.12604e-16)
(12.4603 7.60687 -6.47475e-16)
(12.8326 6.42729 -8.21722e-16)
(12.7043 4.62582 1.03951e-15)
(12.3636 2.424 0)
(11.7816 -0.0456788 -3.05597e-15)
(10.827 -2.77959 0)
(9.57895 -5.25749 0)
(8.00116 -7.2613 0)
(6.08569 -8.70215 1.7451e-15)
(3.90994 -9.73993 -3.22634e-15)
(1.82856 -10.8916 0)
(0.318302 -12.808 1.97217e-15)
(4.73 -5.44949 -1.68966e-17)
(-0.151128 -4.44377 1.24158e-16)
(0.484269 -4.29009 0)
(1.41126 -2.86348 4.77563e-16)
(3.12164 -0.462787 1.62285e-16)
(5.36585 2.51646 1.25106e-16)
(7.85346 5.05488 -5.97028e-17)
(9.66723 6.45533 1.24478e-15)
(10.7932 6.73134 0)
(11.3579 6.07871 6.04115e-16)
(11.3987 4.71738 8.76401e-16)
(11.0446 2.85869 2.38407e-15)
(10.4159 0.694516 3.09196e-15)
(9.28177 -1.71095 6.26494e-15)
(7.68979 -3.79321 -2.97783e-15)
(5.6308 -5.30121 -1.60372e-16)
(3.17725 -6.29881 6.77156e-15)
(0.700916 -7.16762 3.84865e-15)
(-1.08688 -8.73367 4.32983e-15)
(-1.71878 -11.6524 4.81075e-15)
(5.06824 -5.35521 0)
(0.391368 -4.59451 -2.235e-16)
(1.33379 -4.56257 -1.27371e-16)
(1.56148 -3.34942 -5.2919e-16)
(2.6317 -1.23387 -9.13403e-16)
(3.59873 0.813185 2.63979e-16)
(5.4933 3.08246 -7.90925e-16)
(7.20519 4.80883 -1.31948e-15)
(8.35793 5.59576 -5.05292e-16)
(8.93335 5.4719 1.05851e-16)
(8.98755 4.60096 -1.72174e-15)
(8.55247 3.16837 -2.52249e-15)
(7.66081 1.37649 -3.03534e-15)
(6.09967 -0.552837 -3.28099e-15)
(3.99235 -2.08936 0)
(1.39844 -2.97823 1.96173e-16)
(-1.33782 -3.5892 2.64515e-16)
(-3.42048 -4.75285 -4.79534e-15)
(-3.95025 -7.6835 -1.72883e-14)
(-3.10681 -12.1536 5.72161e-15)
(5.31097 -5.326 0)
(0.747482 -4.83223 9.98769e-17)
(2.00746 -4.83034 0)
(2.17606 -3.69875 3.19254e-16)
(2.61041 -1.71766 1.0872e-15)
(3.07723 0.00082189 0)
(3.70064 1.70151 1.74036e-15)
(4.80421 3.37529 3.06125e-15)
(5.59998 4.47335 0)
(5.9102 4.79939 -1.3147e-15)
(5.68672 4.42304 4.39459e-15)
(4.86299 3.48218 4.73752e-16)
(3.36473 2.13279 3.97568e-15)
(1.08465 0.818378 -3.51385e-15)
(-1.71255 0.0391068 0)
(-4.58497 -0.25134 -1.00031e-14)
(-6.66098 -1.45013 -5.93649e-15)
(-7.11327 -4.63559 0)
(-5.37011 -9.02293 1.47216e-14)
(-3.31211 -13.3955 -2.39536e-14)
(5.52162 -5.32577 1.38709e-16)
(0.985181 -5.1219 -4.23448e-17)
(2.41775 -5.14515 -2.36313e-16)
(2.70415 -4.08533 -1.29313e-16)
(2.92869 -2.1127 5.08536e-17)
(3.05659 -0.261008 -1.01043e-15)
(2.95164 1.05751 2.31839e-15)
(2.98713 2.53978 -3.53946e-15)
(3.09565 3.74523 -4.62776e-15)
(2.82835 4.39103 3.21354e-15)
(2.03252 4.47716 -2.60639e-15)
(0.485722 4.12492 -3.28388e-15)
(-2.02309 3.46869 3.68533e-15)
(-5.42308 2.61384 -1.05681e-14)
(-8.89276 1.51504 0)
(-11.2003 -0.423798 3.48715e-14)
(-10.2057 -2.82678 -3.36187e-14)
(-7.99017 -5.74855 1.33397e-14)
(-5.56107 -10.175 1.26568e-14)
(-3.19083 -14.9523 2.56369e-16)
(5.70677 -5.31585 6.1847e-17)
(1.11032 -5.42226 -5.11263e-17)
(2.57043 -5.51001 2.82937e-16)
(2.91891 -4.49884 -4.81735e-16)
(3.12721 -2.49106 -1.02232e-15)
(2.97202 -0.470548 0)
(2.70394 0.954707 -2.58666e-15)
(1.91446 2.34399 0)
(1.21794 3.62315 3.58297e-15)
(0.220434 4.50272 0)
(-1.31932 5.04241 0)
(-3.68973 5.32765 -6.02637e-16)
(-7.04443 5.15981 2.06218e-14)
(-10.612 4.57932 1.51375e-14)
(-11.8615 3.66138 6.01203e-16)
(-11.5003 1.49106 -1.20445e-14)
(-10.1966 -2.67201 0)
(-7.97625 -7.32783 0)
(-5.31535 -12.0202 1.08323e-14)
(-2.68068 -16.5625 1.99565e-14)
(5.85922 -5.25885 -1.66788e-16)
(1.14767 -5.67389 9.36644e-17)
(2.58553 -5.87233 1.70007e-16)
(2.82652 -4.95811 -2.00358e-16)
(3.0648 -2.92385 -6.65294e-16)
(2.81973 -0.687268 7.73021e-16)
(2.23533 0.974481 1.77756e-15)
(1.23825 2.48278 -1.7342e-15)
(-0.0903 4.04264 0)
(-1.67508 5.1369 -6.15085e-15)
(-3.84336 5.88462 6.20198e-15)
(-6.89325 6.9411 -8.18881e-15)
(-10.1682 8.64837 0)
(-12.6993 8.81743 9.49742e-16)
(-14.0681 5.98889 3.69027e-16)
(-13.3991 1.38082 9.08498e-15)
(-10.696 -4.25961 -2.06016e-14)
(-7.13568 -9.04497 1.03349e-14)
(-4.27559 -13.4149 -1.00184e-14)
(-1.68397 -17.7 -9.28775e-15)
(5.96156 -5.12878 0)
(1.11295 -5.85879 2.75747e-17)
(2.4584 -6.22337 -2.38423e-16)
(2.52299 -5.46784 2.21817e-17)
(2.71492 -3.43752 0)
(2.43084 -0.973987 0)
(1.71001 0.956784 -5.80551e-15)
(0.508192 2.70514 2.12814e-15)
(-1.15414 4.74454 -1.19802e-14)
(-3.19715 6.08409 -1.42678e-15)
(-6.16118 7.8465 1.39932e-14)
(-9.59224 9.89839 -6.08451e-15)
(-12.5759 10.6594 3.27589e-16)
(-14.3241 9.22675 1.11568e-15)
(-14.2313 5.53042 -6.65509e-15)
(-12.0664 0.0844919 0)
(-8.76787 -6.3595 -1.18019e-14)
(-5.8124 -10.5088 4.29625e-14)
(-3.05885 -14.5835 -1.90762e-14)
(-0.412257 -18.6936 9.11113e-15)
(5.98566 -4.90508 1.23011e-17)
(0.970237 -5.9726 5.77987e-17)
(2.14928 -6.55559 2.38954e-16)
(1.95317 -6.02493 1.67935e-16)
(2.11328 -4.08628 4.31856e-16)
(1.80702 -1.45749 0)
(1.00368 0.692856 1.58992e-15)
(-0.48615 2.59062 2.50196e-15)
(-2.32697 5.1928 -7.50871e-15)
(-4.86699 7.44808 1.26729e-14)
(-7.96884 9.46809 7.80039e-15)
(-10.8608 11.4265 -5.6579e-15)
(-13.1107 12.1909 1.08966e-14)
(-14.0101 10.9351 6.47242e-15)
(-13.2269 6.13617 7.46795e-15)
(-10.855 -0.0265248 7.7076e-16)
(-7.17581 -6.9241 -1.10681e-14)
(-4.32348 -11.2857 2.23744e-16)
(-1.35154 -15.2656 -1.9344e-14)
(1.4029 -19.2783 -9.4303e-15)
(5.91644 -4.55495 0)
(0.653611 -5.97206 -4.11422e-17)
(1.47403 -6.84629 3.82401e-17)
(1.17076 -6.56424 -3.60457e-16)
(1.23576 -4.76329 1.19512e-15)
(0.826674 -2.09269 -1.00205e-15)
(-0.247024 0.0651171 0)
(-1.88014 2.54555 0)
(-3.66166 5.71961 5.84465e-15)
(-5.94727 8.68501 0)
(-8.89924 11.1144 9.29604e-16)
(-11.6769 13.2072 -1.01237e-14)
(-13.5697 13.6337 5.77721e-15)
(-13.6444 11.3604 -5.85219e-15)
(-12.361 6.66978 0)
(-9.07423 -0.119673 9.14443e-15)
(-4.56767 -7.1147 0)
(-1.89476 -11.4996 -1.06265e-14)
(1.10725 -15.4228 -1.98976e-14)
(3.77284 -19.335 1.74334e-14)
(5.7675 -4.0442 1.89042e-16)
(0.183985 -5.79625 6.49673e-17)
(0.688434 -7.03174 0)
(0.295925 -7.11405 -4.39885e-16)
(0.303424 -5.39624 -3.17469e-16)
(-0.110222 -2.3611 -9.18893e-16)
(-1.44101 0.381546 0)
(-2.95392 3.06556 0)
(-4.82319 5.85228 6.1638e-15)
(-6.71548 9.39688 0)
(-9.35467 12.1997 6.15237e-15)
(-11.5239 14.3774 -5.04709e-15)
(-12.5711 14.6715 -5.37761e-15)
(-12.0122 12.4928 7.69839e-16)
(-10.1059 7.23784 -2.39231e-14)
(-6.20054 0.199556 9.98467e-15)
(-1.99095 -6.53991 -1.3923e-14)
(0.765387 -11.0775 0)
(4.04249 -15.077 -1.02387e-14)
(6.63174 -18.7671 2.80881e-14)
(5.54634 -3.34131 -2.26733e-16)
(-0.389191 -5.42313 -2.1025e-16)
(-0.217834 -7.14127 -2.48589e-17)
(-0.693983 -7.73383 4.23388e-16)
(-0.706894 -6.45918 9.75435e-16)
(-0.92996 -3.57626 -2.88476e-15)
(-2.10563 -0.507007 9.02614e-15)
(-3.26072 2.50464 -1.08939e-14)
(-5.25919 5.57202 -5.1368e-16)
(-6.8928 9.82215 -6.2961e-15)
(-9.1169 12.9656 1.64451e-14)
(-10.6387 15.3864 -1.15854e-14)
(-10.7496 15.8757 5.91866e-15)
(-9.65247 13.7171 0)
(-7.21102 8.69279 0)
(-3.06251 1.65623 0)
(1.32254 -5.25183 1.6276e-14)
(4.33155 -10.232 7.66156e-16)
(7.71915 -14.2077 -1.11778e-14)
(9.93411 -17.4622 -9.8729e-15)
(5.25885 -2.47461 9.21465e-17)
(-1.01599 -4.78892 1.96637e-16)
(-1.17979 -7.00581 -1.43989e-16)
(-1.80322 -8.21906 1.37183e-16)
(-1.98283 -7.70518 6.48438e-16)
(-2.169 -5.4263 -7.84082e-16)
(-3.1185 -2.37324 0)
(-3.99906 0.910275 0)
(-5.78022 4.70803 0)
(-6.96325 9.51309 0)
(-8.63426 13.0437 -1.12519e-14)
(-9.39718 15.7378 1.84153e-14)
(-8.93468 16.4984 -6.23974e-15)
(-7.06517 14.6289 0)
(-3.71924 10.1109 0)
(1.24851 3.90561 0)
(6.33993 -2.68948 4.16182e-14)
(9.02752 -8.13685 9.61743e-16)
(11.9926 -12.3439 6.24651e-16)
(13.3853 -15.1869 0)
(4.91441 -1.47245 0)
(-1.61595 -3.91683 -4.48556e-16)
(-2.03681 -6.45344 -1.56705e-16)
(-2.86763 -8.22084 1.0201e-15)
(-3.3733 -8.57904 -1.68719e-15)
(-3.75211 -7.17842 0)
(-4.48242 -4.55258 0)
(-5.25804 -1.22233 1.04513e-14)
(-6.09428 3.14884 0)
(-6.64781 8.27295 0)
(-7.51875 12.3626 -1.24099e-14)
(-7.48736 15.5021 2.10167e-14)
(-6.08173 16.9188 -7.4371e-15)
(-3.08678 15.6898 -3.72731e-14)
(1.07721 11.9758 -1.41304e-15)
(5.71332 6.80036 -1.74451e-15)
(10.3839 0.683121 6.02554e-14)
(13.2163 -4.91945 2.43241e-14)
(15.3939 -9.29324 0)
(15.8315 -11.8587 -2.15331e-14)
(4.53795 -0.417841 0)
(-2.07939 -2.84573 2.6166e-16)
(-2.54553 -5.28376 5.71401e-16)
(-3.57664 -7.43714 -5.65722e-16)
(-4.43688 -8.50293 1.31736e-15)
(-5.10921 -8.03339 0)
(-5.67325 -6.23058 0)
(-6.31599 -3.29582 -1.19459e-16)
(-6.25247 0.978985 -6.27133e-15)
(-6.15486 6.1592 5.27909e-15)
(-6.28299 10.7918 1.37105e-14)
(-5.2952 14.4662 -1.53068e-14)
(-2.66293 16.1433 -3.26962e-14)
(1.40995 15.5892 3.16408e-14)
(6.10793 13.3946 1.77377e-14)
(10.6239 9.65475 -2.29144e-14)
(14.541 4.58317 -7.24737e-16)
(17.0546 -0.792751 -1.91613e-14)
(17.6559 -5.19663 -1.92407e-14)
(16.3504 -7.7945 3.94342e-14)
(4.17406 0.58722 0)
(-2.21469 -1.77166 -3.46074e-16)
(-2.33432 -3.59823 -6.47032e-16)
(-3.50667 -5.62948 1.06365e-15)
(-4.75787 -7.12039 4.09527e-16)
(-5.8465 -7.66315 0)
(-6.55112 -6.97747 0)
(-6.97234 -5.18855 -4.80954e-15)
(-6.34647 -1.88393 -1.52504e-15)
(-5.52015 2.78075 5.73848e-15)
(-4.53725 7.73291 0)
(-2.353 11.7336 0)
(1.55732 13.9527 1.48195e-14)
(6.07192 14.3227 -9.03482e-16)
(10.5674 13.0774 1.68911e-14)
(14.4703 10.4266 -1.74444e-14)
(17.4263 6.40679 0)
(18.3781 2.08381 0)
(16.8507 -1.90389 0)
(12.7219 -4.64512 0)
(3.4876 1.30806 1.19316e-16)
(-1.8647 -0.970477 1.16468e-15)
(-1.16068 -1.79997 1.58473e-15)
(-2.03813 -3.25884 -2.24067e-15)
(-3.50323 -4.74019 -1.82946e-15)
(-5.09183 -5.74489 5.99194e-15)
(-6.34312 -5.99855 0)
(-7.06847 -5.46648 -8.24591e-15)
(-6.85834 -3.55371 -6.35731e-15)
(-5.74701 -0.136799 6.53845e-15)
(-3.7218 4.41587 2.93753e-14)
(0.0524923 8.3879 -2.95756e-14)
(5.04711 10.981 3.27288e-14)
(9.46425 11.995 -1.52495e-14)
(13.0495 11.424 1.65905e-14)
(15.4725 9.37404 -3.2094e-14)
(16.0494 6.04112 1.71828e-14)
(13.9387 2.16786 -1.77919e-14)
(9.69369 -1.12035 0)
(4.03288 -3.1758 0)
(2.0142 1.18925 0)
(-1.30307 -0.627668 2.06917e-15)
(-0.950081 -0.704053 -3.62553e-15)
(-1.71325 -1.00744 0)
(-2.62866 -1.46168 0)
(-3.47361 -1.97608 -8.12756e-15)
(-4.09141 -2.44412 -5.56547e-15)
(-4.2969 -2.75116 5.54615e-15)
(-3.77349 -2.71275 0)
(-2.24054 -2.17917 0)
(0.261294 -0.950832 -2.34516e-14)
(2.95751 0.478886 0)
(5.60832 2.04442 -2.59604e-14)
(7.74088 2.97577 -2.61205e-14)
(8.6212 3.31273 5.24038e-14)
(8.15799 3.26797 2.92086e-14)
(6.07292 3.25427 0)
(3.49965 3.86109 4.32142e-14)
(2.21586 3.75321 5.46753e-14)
(2.59306 -2.58709 -5.23001e-14)
(2.10263 -18.3981 -8.29149e-16)
(0.989876 -20.9252 -3.0382e-17)
(0.56504 -24.6896 8.27963e-16)
(0.824306 -29.7479 -8.07095e-16)
(1.33879 -35.5484 6.62423e-16)
(1.71259 -41.4494 -6.0345e-16)
(1.85841 -47.131 5.09736e-16)
(1.86227 -52.5783 4.79842e-16)
(1.82086 -57.856 -4.23332e-16)
(1.78628 -62.9663 -7.98355e-16)
(1.76426 -67.8584 -1.51192e-15)
(1.77177 -72.4881 6.98401e-16)
(1.75447 -76.682 0)
(1.80186 -80.3009 0)
(1.65851 -82.5914 -1.28604e-15)
(1.97253 -83.8851 0)
(0.914861 -82.0466 0)
(3.46145 -81.8617 6.68951e-16)
(-3.98132 -72.1454 -7.06592e-16)
(15.3616 -85.4281 2.64088e-15)
(0.960572 -16.9269 -1.94468e-15)
(0.400144 -20.3186 -1.08752e-15)
(0.618194 -24.8641 -6.299e-17)
(1.38782 -30.2476 -1.60479e-15)
(2.22388 -35.9283 -2.80623e-15)
(2.83621 -41.5641 2.29538e-15)
(3.22763 -47.0482 5.11987e-17)
(3.50008 -52.406 -1.83808e-15)
(3.72765 -57.6598 -1.7164e-15)
(3.94541 -62.7712 -8.24152e-16)
(4.15102 -67.6692 2.21977e-15)
(4.3645 -72.3073 1.38725e-15)
(4.52692 -76.5056 4.04257e-15)
(4.72903 -80.1351 0)
(4.68827 -82.4176 3.85438e-15)
(5.05419 -83.6691 -2.59277e-15)
(3.95043 -81.9222 5.11678e-15)
(6.44867 -81.6844 2.67182e-15)
(-1.28917 -72.2167 -2.82735e-15)
(18.294 -84.7152 -2.40933e-18)
(-0.296198 -16.0063 -4.39945e-15)
(-0.0536845 -20.33 4.07991e-15)
(0.832767 -25.4289 9.76716e-15)
(2.03476 -30.8806 -1.54906e-15)
(3.13638 -36.3467 0)
(3.96948 -41.7235 -6.0519e-17)
(4.59724 -47.0247 2.04463e-15)
(5.12778 -52.2832 0)
(5.61489 -57.4862 1.72462e-15)
(6.07933 -62.57 -3.2447e-15)
(6.5107 -67.451 2.93229e-15)
(6.93062 -72.0798 -2.83507e-15)
(7.27127 -76.2672 4.41614e-17)
(7.62879 -79.8972 -2.57109e-15)
(7.68967 -82.1623 -2.57012e-15)
(8.10904 -83.4244 0)
(6.97797 -81.6481 -2.58786e-15)
(9.42664 -81.389 0)
(1.39243 -72.2146 -5.78665e-15)
(21.3638 -83.918 0)
(-1.24767 -16.0335 1.26664e-16)
(-0.148187 -21.0173 -4.57394e-15)
(1.26853 -26.2619 -8.13749e-15)
(2.79388 -31.5532 0)
(4.10681 -36.7452 -5.64904e-15)
(5.13702 -41.875 2.23749e-15)
(5.99034 -47.0116 2.08695e-15)
(6.76928 -52.1697 3.74548e-15)
(7.50597 -57.307 -3.42944e-15)
(8.20905 -62.3435 3.24212e-15)
(8.86154 -67.1879 1.09152e-16)
(9.48781 -71.7899 -2.77266e-15)
(10.0066 -75.9512 0)
(10.5229 -79.57 5.2233e-15)
(10.6853 -81.8053 -5.23441e-15)
(11.1558 -83.0674 -1.02951e-16)
(10.0043 -81.2693 -5.31538e-15)
(12.408 -80.9907 5.18191e-15)
(4.15858 -72.1197 6.23475e-15)
(24.4338 -82.9812 2.69499e-16)
(-1.51066 -17.1665 2.34436e-14)
(0.134842 -22.0612 -1.45396e-14)
(1.88283 -27.1702 3.83992e-15)
(3.63757 -32.22 0)
(5.11908 -37.1358 0)
(6.33688 -42.0383 -4.83188e-15)
(7.41302 -47.0197 8.23913e-15)
(8.43317 -52.0687 -7.60538e-15)
(9.40964 -57.1222 3.23756e-15)
(10.343 -62.091 6.23995e-15)
(11.2109 -66.8791 6.06705e-15)
(12.0403 -71.4376 -5.64667e-15)
(12.7329 -75.5597 5.30119e-15)
(13.4082 -79.158 -1.31439e-17)
(13.6647 -81.3549 5.22791e-15)
(14.1913 -82.6218 1.13879e-16)
(13.0085 -80.8094 -5.31044e-15)
(15.3765 -80.5005 1.02509e-14)
(6.86906 -71.9541 -1.15438e-14)
(27.4784 -81.9005 -1.06214e-14)
(-1.33211 -18.2481 5.59801e-15)
(0.605197 -23.1646 -4.06006e-15)
(2.61974 -28.076 1.65955e-16)
(4.56314 -32.8531 0)
(6.19416 -37.5123 0)
(7.59323 -42.2021 -9.69658e-15)
(8.88851 -47.0302 8.16781e-15)
(10.1393 -51.9571 1.52143e-14)
(11.343 -56.9086 -1.01901e-14)
(12.4948 -61.792 -6.48205e-15)
(13.5676 -66.5086 1.19038e-14)
(14.5928 -71.0113 -2.25358e-14)
(15.4526 -75.084 5.18675e-15)
(16.2868 -78.653 5.10265e-15)
(16.6308 -80.8042 5.22179e-15)
(17.219 -82.0754 -4.93544e-15)
(15.9929 -80.2382 0)
(18.3222 -79.9063 1.06153e-14)
(9.57339 -71.7198 1.24183e-14)
(30.4544 -80.6919 1.11702e-14)
(-0.927637 -19.6392 -9.7223e-15)
(1.26077 -24.3065 0)
(3.49576 -28.9652 1.48643e-14)
(5.59795 -33.4556 -1.22313e-14)
(7.36878 -37.8664 0)
(8.94293 -42.3602 0)
(10.4434 -47.0319 -4.18771e-15)
(11.9069 -51.8242 -1.51061e-14)
(13.321 -56.6599 6.88491e-15)
(14.6756 -61.4454 0)
(15.94 -66.0795 0)
(17.1516 -70.5152 5.63633e-15)
(18.1699 -74.5282 -5.39448e-15)
(19.161 -78.0578 -5.21234e-15)
(19.5819 -80.1567 -1.04329e-14)
(20.2372 -81.4323 9.85454e-15)
(18.9585 -79.5608 3.05542e-16)
(21.2421 -79.2087 2.92062e-16)
(12.3126 -71.4069 -1.14871e-14)
(33.3299 -79.3624 -1.06355e-14)
(-0.224847 -20.906 -8.91591e-15)
(2.14198 -25.3617 -1.62821e-14)
(4.55534 -29.8085 -5.35697e-16)
(6.78188 -34.0199 1.79513e-14)
(8.67379 -38.1947 0)
(10.4084 -42.495 9.27252e-15)
(12.0961 -47.007 -8.45776e-15)
(13.7486 -51.6562 7.20293e-15)
(15.3512 -56.3669 6.72253e-15)
(16.8905 -61.0453 -6.47808e-15)
(18.3324 -65.5876 5.83468e-15)
(19.7206 -69.946 0)
(20.8882 -73.8899 -1.09689e-14)
(22.0328 -77.3711 2.0804e-14)
(22.5172 -79.4134 -2.02046e-14)
(23.2463 -80.6917 0)
(21.9015 -78.7786 1.39694e-17)
(24.1388 -78.4152 -1.03485e-14)
(15.0846 -71.0018 2.35252e-14)
(36.099 -77.9231 -3.12918e-14)
(0.775561 -22.0008 -3.05533e-16)
(3.26761 -26.3632 2.28858e-14)
(5.83456 -30.6002 -1.32551e-14)
(8.14801 -34.5198 -5.90684e-15)
(10.1372 -38.4636 1.03854e-14)
(12.006 -42.5721 -1.85243e-14)
(13.851 -46.9187 8.04717e-15)
(15.6632 -51.4178 0)
(17.4322 -55.9974 1.28453e-16)
(19.1388 -60.563 -6.21127e-15)
(20.7446 -65.0076 -1.20854e-14)
(22.2985 -69.282 1.10235e-14)
(23.6045 -73.1523 -1.09612e-14)
(24.8992 -76.5797 1.0396e-14)
(25.4334 -78.5665 1.06216e-14)
(26.2442 -79.8455 -9.82465e-15)
(24.8129 -77.8887 3.11756e-14)
(27.0112 -77.5267 -1.00247e-14)
(17.832 -70.4887 -2.28217e-14)
(38.7772 -76.3916 2.71287e-17)
(2.1287 -22.8723 -8.21327e-15)
(4.70464 -27.1726 2.9776e-14)
(7.38464 -31.2457 4.48304e-16)
(9.73038 -34.8922 -2.33044e-14)
(11.7834 -38.6176 -1.06457e-14)
(13.7473 -42.5407 1.80422e-14)
(15.7136 -46.7248 0)
(17.6534 -51.0781 7.58214e-15)
(19.5645 -55.5291 -1.35333e-14)
(21.4198 -59.9812 0)
(23.1744 -64.3267 -1.18411e-14)
(24.8827 -68.5146 1.12138e-14)
(26.3152 -72.3106 0)
(27.7546 -75.679 2.07658e-14)
(28.3245 -77.6147 -1.01894e-14)
(29.2271 -78.89 0)
(27.685 -76.891 -3.11669e-14)
(29.8562 -76.5355 3.10984e-14)
(20.5604 -69.8629 2.32959e-14)
(41.3716 -74.781 4.2354e-14)
(3.91269 -23.3879 1.59118e-14)
(6.46102 -27.6895 7.50474e-15)
(9.21083 -31.6534 -1.27587e-14)
(11.5245 -35.0712 -1.17715e-14)
(13.6044 -38.6079 2.04276e-14)
(15.6192 -42.3626 -1.79539e-14)
(17.6732 -46.3996 8.17878e-15)
(19.7129 -50.6202 -1.5134e-14)
(21.7426 -54.9499 2.02239e-14)
(23.7283 -59.2915 1.28671e-14)
(25.617 -63.5398 -1.16099e-14)
(27.4679 -67.6411 2.03851e-16)
(29.0155 -71.3638 -1.05317e-14)
(30.5951 -74.668 -3.13154e-14)
(31.1868 -76.5588 2.03945e-14)
(32.1925 -77.8224 4.37927e-16)
(30.5114 -75.789 2.08102e-14)
(32.6732 -75.4421 0)
(23.2754 -69.116 -2.27026e-14)
(43.8759 -73.102 2.11336e-14)
(6.05538 -23.3755 0)
(8.46788 -27.7833 0)
(11.2771 -31.7409 -1.31159e-14)
(13.4982 -34.9925 -3.89587e-16)
(15.5693 -38.3727 3.07382e-14)
(17.59 -41.9886 -8.91831e-15)
(19.7014 -45.9012 8.49354e-15)
(21.818 -50.0077 -1.45713e-14)
(23.9481 -54.2287 0)
(26.0491 -58.4696 1.26475e-14)
(28.0595 -62.6277 1.18125e-14)
(30.0426 -66.6466 0)
(31.6953 -70.3007 -1.09238e-14)
(33.4111 -73.5372 2.05332e-14)
(34.0123 -75.3944 2.05812e-14)
(35.134 -76.6364 -9.34696e-15)
(33.2833 -74.5862 -4.07032e-14)
(35.4638 -74.2472 0)
(25.9664 -68.2389 0)
(46.2855 -71.3665 -8.55393e-18)
(8.51202 -22.6337 -1.63245e-14)
(10.6723 -27.2928 0)
(13.5465 -31.4023 9.33263e-17)
(15.6083 -34.5809 1.21256e-14)
(17.633 -37.8552 -2.04088e-14)
(19.6189 -41.38 0)
(21.7662 -45.2032 8.22276e-15)
(23.9408 -49.2241 0)
(26.1575 -53.3552 0)
(28.3625 -57.5088 -1.26246e-14)
(30.4849 -61.586 0)
(32.5929 -65.527 1.1394e-14)
(34.3433 -69.1167 -3.21865e-14)
(36.1915 -72.2814 2.07261e-14)
(36.7914 -74.1193 -9.98577e-15)
(38.0415 -75.3258 3.99952e-14)
(35.9887 -73.2876 0)
(38.2276 -72.9434 -2.05182e-14)
(28.6095 -67.2204 0)
(48.6 -69.5899 4.21512e-14)
(11.076 -21.0201 0)
(12.8796 -26.1406 6.1398e-17)
(15.8815 -30.5623 1.5285e-16)
(17.7394 -33.7844 -3.56814e-14)
(19.7011 -37.024 1.03003e-14)
(21.6341 -40.5219 -9.2704e-15)
(23.8138 -44.2992 -8.23084e-15)
(26.0443 -48.2671 1.52195e-14)
(28.346 -52.3288 -1.34581e-14)
(30.6509 -56.4098 -2.55624e-14)
(32.8799 -60.4152 1.16322e-14)
(35.1079 -64.2821 1.12177e-14)
(36.9507 -67.8113 1.07275e-14)
(38.9267 -70.8998 1.03734e-14)
(39.5163 -72.7352 0)
(40.9045 -73.8853 4.40155e-16)
(38.6156 -71.8959 -4.07312e-14)
(40.9596 -71.5271 -4.83505e-16)
(31.1862 -66.051 2.20252e-14)
(50.8208 -67.7915 -4.20897e-14)
(13.4554 -18.4223 1.96365e-14)
(14.8532 -24.3079 1.58716e-14)
(18.0991 -29.1626 1.37448e-14)
(19.7378 -32.5719 -1.25285e-14)
(21.6647 -35.8659 1.03252e-14)
(23.5631 -39.4135 1.8959e-14)
(25.7892 -43.1903 -8.03224e-15)
(28.0859 -47.1368 -3.03911e-14)
(30.4798 -51.1497 -4.80017e-16)
(32.8888 -55.173 -4.80975e-16)
(35.2252 -59.1153 1.16648e-14)
(37.5732 -62.9122 -2.2455e-14)
(39.507 -66.3852 0)
(41.6069 -69.3941 1.07604e-14)
(42.1824 -71.2451 -4.07775e-14)
(43.7157 -72.3102 1.95656e-14)
(41.1583 -70.4143 2.06097e-14)
(43.6572 -70.0367 0)
(33.6747 -64.7317 -2.25834e-14)
(52.9503 -65.9952 0)
(14.9651 -15.0469 4.2429e-16)
(16.241 -21.9879 3.32737e-16)
(19.947 -27.2811 1.4499e-14)
(21.4272 -31.0132 -3.82774e-14)
(23.3985 -34.4418 3.24162e-14)
(25.3305 -38.1008 9.47472e-15)
(27.6457 -41.9105 -8.39781e-15)
(30.0343 -45.8569 1.49025e-14)
(32.5349 -49.8346 1.35888e-14)
(35.0576 -53.8096 -3.68478e-17)
(37.5056 -57.6944 0)
(39.9763 -61.4227 -2.02375e-16)
(42.0022 -64.8439 1.05707e-14)
(44.2228 -67.7706 2.1138e-14)
(44.7875 -69.6552 7.98753e-16)
(46.4715 -70.6005 -3.95785e-14)
(43.6167 -68.8629 2.11982e-14)
(46.3339 -68.4429 -4.03256e-14)
(36.0507 -63.2759 2.26058e-14)
(54.9939 -64.2256 0)
(14.498 -11.7202 0)
(16.5562 -19.9076 -1.63386e-14)
(21.0781 -25.3479 -1.41254e-14)
(22.6442 -29.3825 0)
(24.811 -32.9149 3.29829e-14)
(26.8875 -36.6775 -2.82751e-14)
(29.3471 -40.5137 -3.40401e-14)
(31.863 -44.4602 -2.23619e-16)
(34.4897 -48.4043 0)
(37.1396 -52.332 -3.37158e-17)
(39.706 -56.1602 1.19309e-14)
(42.3035 -59.8181 0)
(44.4235 -63.1908 2.19124e-14)
(46.7618 -66.0325 -4.15435e-14)
(47.3246 -67.9651 2.00084e-14)
(49.1571 -68.756 -1.6869e-17)
(45.9891 -67.274 -2.06475e-14)
(49.0028 -66.7354 2.04211e-14)
(38.2828 -61.683 -2.37981e-14)
(56.973 -62.5005 4.07452e-14)
(11.5926 -10.0731 0)
(16.3707 -19.2837 0)
(21.8299 -23.9024 -2.86272e-14)
(23.5929 -27.9758 4.9944e-14)
(26.0134 -31.4393 -4.30076e-14)
(28.2853 -35.2376 9.46222e-15)
(30.9174 -39.0578 3.36781e-14)
(33.5796 -42.9867 1.54486e-14)
(36.3432 -46.8853 -1.36302e-14)
(39.1292 -50.7571 1.27542e-14)
(41.818 -54.5232 -2.40325e-14)
(44.5443 -58.1025 1.10685e-14)
(46.7576 -61.4255 2.19262e-14)
(49.2094 -64.1738 2.15553e-14)
(49.7785 -66.1617 -2.0026e-14)
(51.7389 -66.771 1.96276e-14)
(48.2559 -65.66 4.14021e-14)
(51.6518 -64.8522 -1.98542e-14)
(40.299 -59.9268 0)
(58.9426 -60.8662 0)
(9.96461 -11.4328 0)
(17.104 -20.2609 1.72876e-14)
(22.696 -22.9231 -1.40346e-14)
(24.4479 -26.7788 -2.51818e-14)
(27.0842 -29.9957 1.01442e-14)
(29.5489 -33.7871 1.86173e-14)
(32.3721 -37.5587 1.44487e-17)
(35.1931 -41.4588 0)
(38.1073 -45.3027 0)
(41.0386 -49.1113 2.57622e-14)
(43.8523 -52.8074 4.00635e-16)
(46.7103 -56.2944 -2.23513e-14)
(49.0149 -59.5647 0)
(51.573 -62.2042 -4.16535e-14)
(52.1599 -64.2567 2.08392e-14)
(54.2043 -64.6569 -5.98558e-14)
(50.4215 -64.0229 2.06298e-14)
(54.2167 -62.6601 2.09928e-14)
(42.0221 -58.099 -4.62524e-14)
(60.9618 -59.495 4.04107e-14)
(14.6081 -11.8624 -6.35015e-16)
(18.1688 -19.9704 -1.61978e-14)
(23.2157 -21.4656 -1.36236e-14)
(24.7799 -25.445 1.19215e-14)
(27.7299 -28.4494 2.10583e-14)
(30.4258 -32.257 -1.80905e-14)
(33.533 -35.9548 -1.63941e-14)
(36.5721 -39.8133 1.50299e-14)
(39.6975 -43.6074 -1.32207e-14)
(42.8157 -47.3551 -1.25407e-14)
(45.7874 -50.9926 2.30502e-14)
(48.7941 -54.3804 1.79698e-16)
(51.2111 -57.6208 -2.13533e-14)
(53.867 -60.1269 1.99446e-14)
(54.5103 -62.2729 0)
(56.5703 -62.3922 1.97465e-14)
(52.6169 -62.3866 5.74474e-16)
(56.4433 -59.9525 -1.96074e-14)
(43.5587 -56.764 0)
(62.8241 -58.3942 -3.99149e-14)
(17.8608 -10.5787 1.73812e-14)
(18.2056 -20.5517 2.45982e-17)
(23.1021 -22.1286 1.23418e-14)
(24.4275 -25.9458 -2.08472e-14)
(27.8429 -28.6716 -2.81075e-16)
(30.7163 -32.1368 7.98425e-15)
(34.0773 -35.5454 2.16572e-16)
(37.264 -39.1744 6.55692e-18)
(40.5188 -42.8085 -1.11307e-14)
(43.7304 -46.4283 -1.01828e-14)
(46.7971 -49.9955 2.93632e-16)
(49.8712 -53.2772 -9.16558e-15)
(52.3741 -56.4992 0)
(55.0457 -58.8662 3.49756e-14)
(55.7892 -61.0882 0)
(57.7446 -60.9222 -1.73579e-14)
(53.9329 -61.3943 1.76062e-14)
(57.9016 -58.0707 1.77581e-14)
(44.5644 -56.3655 -3.11964e-16)
(64.0217 -56.8449 2.4412e-16)
(18.0032 -10.6848 0)
(18.0559 -20.2347 1.18186e-14)
(23.0853 -22.0818 0)
(24.395 -25.8199 8.52681e-15)
(27.8845 -28.5876 0)
(30.7872 -32.0104 -1.25581e-14)
(34.1884 -35.3986 1.75053e-16)
(37.4025 -38.9939 -1.49885e-16)
(40.685 -42.6117 8.83106e-15)
(43.9164 -46.2142 8.0847e-15)
(47.0045 -49.7746 -7.75286e-15)
(50.0884 -53.0405 1.49735e-14)
(52.6141 -56.2661 0)
(55.2797 -58.6019 -1.49152e-14)
(56.0539 -60.9023 2.40721e-16)
(57.96 -60.6223 -2.0144e-18)
(54.2363 -61.2678 -2.34655e-16)
(58.0841 -57.6778 -1.56841e-14)
(44.8504 -56.3758 -1.58576e-14)
(64.1961 -56.4774 -1.38166e-14)
(17.9911 -10.9952 2.1611e-16)
(17.9263 -19.9858 -1.79757e-16)
(23.0586 -22.1146 0)
(24.3609 -25.7592 8.70206e-15)
(27.9171 -28.5654 7.02296e-15)
(30.8528 -31.9312 1.2399e-14)
(34.2945 -35.2877 3.4563e-16)
(37.5383 -38.8379 5.39742e-18)
(40.8486 -42.431 -1.35753e-16)
(44.0993 -46.0101 -1.62098e-14)
(47.2099 -49.5602 1.89011e-18)
(50.3024 -52.8087 -1.49666e-14)
(52.8529 -56.0349 1.13256e-16)
(55.5111 -58.3374 -2.37083e-16)
(56.3286 -60.667 -1.48249e-14)
(58.1686 -60.3217 1.51328e-14)
(54.5561 -61.0913 2.46768e-16)
(58.2343 -57.314 -2.34007e-16)
(45.2077 -56.3777 1.60832e-14)
(64.3565 -56.0672 2.77188e-14)
(17.9142 -11.3412 0)
(17.7904 -19.7865 0)
(23.0043 -22.1746 1.00205e-14)
(24.3097 -25.7337 -8.38902e-15)
(27.9273 -28.5786 -7.08425e-15)
(30.9002 -31.8854 -2.06572e-16)
(34.3841 -35.2052 -1.09681e-14)
(37.6607 -38.7044 -3.08107e-16)
(41.001 -42.2667 1.36843e-16)
(44.2737 -45.8173 8.16908e-15)
(47.4092 -49.3523 1.52118e-14)
(50.5108 -52.582 3.42632e-19)
(53.088 -55.8059 7.37008e-15)
(55.7387 -58.0773 0)
(56.6063 -60.4391 1.48117e-14)
(58.374 -60.0254 2.31153e-16)
(54.884 -60.9107 1.52634e-14)
(58.3721 -56.965 1.55433e-14)
(45.5683 -56.3568 2.63496e-16)
(64.5373 -55.6525 -1.38894e-14)
(17.8156 -11.6771 1.29692e-14)
(17.6524 -19.6109 -6.59568e-18)
(22.9322 -22.2408 1.18634e-16)
(24.2506 -25.722 -2.6408e-16)
(27.9262 -28.606 -7.10277e-15)
(30.9365 -31.8586 -6.39674e-15)
(34.4603 -35.1419 1.10924e-14)
(37.7706 -38.5885 1.52882e-16)
(41.1423 -42.1164 9.01193e-15)
(44.439 -45.6351 0)
(47.6024 -49.1504 -7.60677e-15)
(50.7139 -52.3601 1.48222e-14)
(53.3197 -55.5789 -7.3679e-15)
(55.9595 -57.8216 0)
(56.8816 -60.2078 -2.4077e-16)
(58.5761 -59.7332 -1.49491e-14)
(55.2141 -60.7223 -1.52536e-14)
(58.5102 -56.6169 -1.53183e-14)
(45.9338 -56.3295 -2.46056e-16)
(64.7321 -55.23 2.17856e-16)
(17.7109 -11.996 -2.6156e-14)
(17.5162 -19.4552 1.16051e-14)
(22.8478 -22.3118 -4.08252e-17)
(24.1886 -25.722 1.27542e-16)
(27.9204 -28.6437 1.47021e-14)
(30.9672 -31.847 6.2113e-15)
(34.528 -35.0953 -1.09927e-14)
(37.8711 -38.489 -1.54448e-16)
(41.2745 -41.9795 -9.12251e-15)
(44.5964 -45.4637 -1.3264e-16)
(47.7895 -48.9555 1.17353e-16)
(50.9123 -52.1432 -7.40428e-15)
(53.5479 -55.354 -7.24759e-15)
(56.1766 -57.5698 -1.14499e-16)
(57.1555 -59.9749 1.50431e-14)
(58.775 -59.445 1.51871e-14)
(55.5466 -60.5279 1.54823e-14)
(58.6528 -56.251 -2.35299e-16)
(46.3054 -56.3025 -1.62021e-14)
(64.9375 -54.7983 2.07259e-16)
(17.6055 -12.2882 1.27749e-14)
(17.3829 -19.3171 -1.16432e-14)
(22.7538 -22.3852 -1.94121e-14)
(24.1272 -25.7301 0)
(27.9131 -28.688 -2.29241e-17)
(30.9953 -31.847 -2.20826e-16)
(34.5896 -35.0623 1.16239e-14)
(37.9643 -38.4039 1.61783e-16)
(41.3992 -41.8551 -1.41389e-16)
(44.7469 -45.3028 0)
(47.9705 -48.7681 0)
(51.1062 -51.9312 7.39706e-15)
(53.773 -55.1312 7.36291e-15)
(56.3903 -57.3213 1.49546e-14)
(57.4278 -59.74 -3.03204e-14)
(58.971 -59.1609 2.31687e-16)
(55.8813 -60.3284 -1.52261e-14)
(58.794 -55.8907 0)
(46.6869 -56.262 1.82053e-17)
(65.1516 -54.3567 -1.4013e-14)
(17.5018 -12.5527 1.26128e-14)
(17.2545 -19.1908 1.19396e-14)
(22.6532 -22.459 9.58925e-15)
(24.0701 -25.7432 8.2573e-15)
(27.9069 -28.7362 -1.49026e-14)
(31.0234 -31.8554 -6.05993e-15)
(34.6476 -35.0403 6.59178e-18)
(38.052 -38.3316 -1.04104e-14)
(41.5178 -41.7421 0)
(44.8919 -45.1518 8.53939e-15)
(48.146 -48.5883 -1.24003e-16)
(51.2962 -51.7243 -7.1619e-15)
(53.995 -54.9106 -1.13069e-16)
(56.6012 -57.0763 3.75985e-18)
(57.6988 -59.5034 1.50358e-14)
(59.1645 -58.881 0)
(56.2183 -60.1237 0)
(58.929 -55.5354 -1.56976e-14)
(47.0785 -56.2158 1.82572e-17)
(65.3728 -53.9047 -7.27931e-19)
(17.4007 -12.7906 -2.5479e-14)
(17.133 -19.0722 -1.17799e-14)
(22.5488 -22.5309 -9.39757e-15)
(24.0208 -25.7578 -8.24429e-15)
(27.9042 -28.7854 1.46206e-14)
(31.0536 -31.8691 0)
(34.7042 -35.0265 0)
(38.1364 -38.2697 1.44296e-17)
(41.6319 -41.639 0)
(45.0324 -45.0097 -8.63642e-15)
(48.3168 -48.4157 -7.75727e-15)
(51.4828 -51.5225 -7.50222e-15)
(54.2145 -54.6921 -7.47929e-15)
(56.8095 -56.8345 -2.98186e-14)
(57.9684 -59.265 0)
(59.3556 -58.6054 0)
(56.5576 -59.9136 0)
(59.0572 -55.1858 1.572e-14)
(47.4792 -56.165 3.16337e-14)
(65.5996 -53.4416 1.40756e-14)
(17.3024 -13.0031 1.26675e-14)
(17.0206 -18.9576 0)
(22.4439 -22.5978 9.29929e-15)
(23.9829 -25.7703 2.58631e-16)
(27.907 -28.8327 -7.51501e-15)
(31.0882 -31.8852 0)
(34.7616 -35.0181 0)
(38.2197 -38.216 1.0417e-14)
(41.7435 -41.5441 1.51064e-16)
(45.17 -44.8753 -2.723e-16)
(48.484 -48.2496 8.09392e-15)
(51.6666 -51.3255 7.39203e-15)
(54.4317 -54.4754 7.36257e-15)
(57.0158 -56.5959 1.47347e-14)
(58.2369 -59.0248 -9.83931e-18)
(59.5448 -58.3342 2.3219e-16)
(56.8989 -59.6979 0)