/*--------------------------------*- C++ -*----------------------------------*\
  =========                 |
  \\      /  F ield         | OpenFOAM: The Open Source CFD Toolbox
   \\    /   O peration     | Website:  https://openfoam.org
    \\  /    A nd           | Version:  10
     \\/     M anipulation  |
\*---------------------------------------------------------------------------*/
FoamFile
{
    format      ascii;
    class       volScalarField;
    location    "18000";
    object      k;
}
// * * * * * * * * * * * * * * * * * * * * * * * * * * * * * * * * * * * * * //

dimensions      [0 2 -2 0 0 0 0];

internalField   nonuniform List<scalar> 
17808
(
0.141559
0.16277
0.150027
0.145346
0.14333
0.142276
0.141651
0.141239
0.140942
0.140709
0.140509
0.140328
0.140155
0.139984
0.13981
0.139631
0.139445
0.139252
0.13905
0.13884
0.138621
0.138394
0.138157
0.137912
0.137659
0.137397
0.137127
0.136849
0.136563
0.13627
0.13597
0.135663
0.135348
0.135027
0.1347
0.134366
0.134026
0.133681
0.133329
0.132972
0.13261
0.132243
0.131871
0.131494
0.131112
0.130726
0.130336
0.129941
0.129543
0.129141
0.128735
0.128325
0.127912
0.127496
0.127077
0.126655
0.12623
0.125802
0.125372
0.124939
0.124504
0.124067
0.123628
0.123186
0.122743
0.122298
0.121851
0.121403
0.120953
0.120502
0.12005
0.119596
0.119141
0.118686
0.118229
0.117771
0.117313
0.116854
0.116394
0.115933
0.115472
0.11501
0.114548
0.114085
0.113622
0.113159
0.112695
0.112231
0.111766
0.111302
0.110836
0.110371
0.141529
0.16275
0.150017
0.145395
0.1434
0.142354
0.141729
0.141315
0.141014
0.140775
0.140571
0.140386
0.140208
0.140033
0.139855
0.139673
0.139484
0.139288
0.139084
0.138872
0.138651
0.138421
0.138183
0.137936
0.137681
0.137418
0.137147
0.136868
0.136581
0.136287
0.135985
0.135677
0.135362
0.13504
0.134712
0.134378
0.134037
0.133691
0.133339
0.132982
0.132619
0.132251
0.131879
0.131501
0.131119
0.130733
0.130342
0.129947
0.129549
0.129146
0.12874
0.12833
0.127917
0.127501
0.127082
0.126659
0.126234
0.125806
0.125376
0.124943
0.124508
0.124071
0.123631
0.12319
0.122746
0.122301
0.121854
0.121406
0.120956
0.120505
0.120053
0.119599
0.119144
0.118688
0.118231
0.117774
0.117315
0.116856
0.116396
0.115935
0.115474
0.115012
0.11455
0.114087
0.113624
0.113161
0.112697
0.112233
0.111768
0.111303
0.110838
0.110372
0.141559
0.162694
0.149964
0.145381
0.143405
0.142373
0.141756
0.141347
0.141049
0.140812
0.140609
0.140423
0.140245
0.140069
0.13989
0.139706
0.139516
0.139319
0.139114
0.1389
0.138677
0.138447
0.138207
0.137959
0.137703
0.137439
0.137166
0.136886
0.136598
0.136303
0.136001
0.135692
0.135376
0.135053
0.134725
0.134389
0.134048
0.133702
0.133349
0.132991
0.132628
0.13226
0.131887
0.131509
0.131127
0.13074
0.130349
0.129954
0.129555
0.129152
0.128746
0.128336
0.127922
0.127506
0.127086
0.126664
0.126238
0.12581
0.12538
0.124947
0.124512
0.124074
0.123634
0.123193
0.122749
0.122304
0.121857
0.121409
0.120959
0.120508
0.120055
0.119601
0.119147
0.118691
0.118234
0.117776
0.117317
0.116858
0.116398
0.115937
0.115476
0.115014
0.114552
0.114089
0.113626
0.113163
0.112699
0.112234
0.11177
0.111305
0.110839
0.110373
0.141588
0.162652
0.149927
0.145361
0.143401
0.14238
0.141771
0.141366
0.14107
0.140835
0.140633
0.140449
0.140271
0.140095
0.139916
0.139732
0.139542
0.139344
0.139138
0.138924
0.138701
0.138469
0.138229
0.13798
0.137723
0.137458
0.137185
0.136904
0.136615
0.136319
0.136016
0.135707
0.13539
0.135067
0.134737
0.134401
0.13406
0.133712
0.133359
0.133001
0.132638
0.132269
0.131895
0.131517
0.131134
0.130747
0.130356
0.12996
0.129561
0.129158
0.128751
0.128341
0.127928
0.127511
0.127091
0.126668
0.126243
0.125815
0.125384
0.124951
0.124515
0.124078
0.123638
0.123196
0.122753
0.122307
0.12186
0.121412
0.120962
0.120511
0.120058
0.119604
0.119149
0.118693
0.118236
0.117778
0.11732
0.11686
0.1164
0.11594
0.115478
0.115016
0.114554
0.114091
0.113628
0.113164
0.1127
0.112236
0.111771
0.111306
0.110841
0.110375
0.141616
0.162621
0.149897
0.145338
0.143392
0.142382
0.14178
0.141379
0.141086
0.140853
0.140652
0.140468
0.140291
0.140115
0.139936
0.139753
0.139563
0.139365
0.139159
0.138944
0.138721
0.138489
0.138248
0.137999
0.137741
0.137475
0.137202
0.13692
0.136631
0.136335
0.136031
0.135721
0.135403
0.13508
0.13475
0.134413
0.134071
0.133723
0.13337
0.133011
0.132647
0.132278
0.131904
0.131525
0.131142
0.130755
0.130363
0.129967
0.129568
0.129164
0.128757
0.128347
0.127933
0.127516
0.127096
0.126673
0.126248
0.125819
0.125388
0.124955
0.124519
0.124082
0.123642
0.1232
0.122756
0.122311
0.121864
0.121415
0.120965
0.120513
0.120061
0.119607
0.119152
0.118696
0.118239
0.117781
0.117322
0.116863
0.116402
0.115942
0.11548
0.115018
0.114556
0.114093
0.11363
0.113166
0.112702
0.112238
0.111773
0.111308
0.110842
0.110376
0.141647
0.162595
0.149868
0.145312
0.143378
0.142377
0.141781
0.141385
0.141095
0.140864
0.140664
0.140481
0.140305
0.14013
0.139952
0.139769
0.139579
0.139381
0.139175
0.13896
0.138737
0.138505
0.138264
0.138015
0.137757
0.137491
0.137217
0.136935
0.136646
0.136349
0.136045
0.135734
0.135416
0.135092
0.134762
0.134425
0.134082
0.133734
0.13338
0.133021
0.132657
0.132287
0.131913
0.131534
0.13115
0.130762
0.13037
0.129974
0.129574
0.129171
0.128764
0.128353
0.127939
0.127522
0.127101
0.126678
0.126252
0.125824
0.125393
0.124959
0.124523
0.124085
0.123645
0.123204
0.12276
0.122314
0.121867
0.121418
0.120968
0.120516
0.120064
0.11961
0.119154
0.118698
0.118241
0.117783
0.117324
0.116865
0.116405
0.115944
0.115482
0.11502
0.114558
0.114095
0.113632
0.113168
0.112704
0.112239
0.111775
0.111309
0.110844
0.110378
0.141679
0.162576
0.149842
0.145287
0.143362
0.142368
0.141778
0.141386
0.141099
0.14087
0.140672
0.14049
0.140314
0.14014
0.139963
0.13978
0.139591
0.139394
0.139188
0.138974
0.138751
0.138519
0.138278
0.138029
0.137771
0.137505
0.137231
0.136948
0.136659
0.136362
0.136058
0.135746
0.135428
0.135104
0.134773
0.134436
0.134093
0.133744
0.13339
0.133031
0.132666
0.132296
0.131921
0.131542
0.131158
0.13077
0.130378
0.129982
0.129581
0.129177
0.12877
0.128359
0.127945
0.127527
0.127107
0.126683
0.126257
0.125829
0.125397
0.124964
0.124528
0.12409
0.123649
0.123207
0.122763
0.122318
0.12187
0.121421
0.120971
0.120519
0.120067
0.119612
0.119157
0.118701
0.118244
0.117786
0.117327
0.116867
0.116407
0.115946
0.115485
0.115023
0.11456
0.114097
0.113634
0.11317
0.112706
0.112241
0.111776
0.111311
0.110845
0.110379
0.141708
0.16256
0.14982
0.145265
0.143345
0.142357
0.141773
0.141385
0.1411
0.140873
0.140676
0.140495
0.140321
0.140147
0.139971
0.139789
0.1396
0.139403
0.139198
0.138984
0.138762
0.13853
0.138289
0.13804
0.137783
0.137516
0.137242
0.13696
0.136671
0.136373
0.136069
0.135758
0.135439
0.135115
0.134784
0.134446
0.134103
0.133754
0.1334
0.13304
0.132675
0.132305
0.13193
0.13155
0.131166
0.130778
0.130385
0.129989
0.129588
0.129184
0.128776
0.128365
0.12795
0.127533
0.127112
0.126689
0.126262
0.125833
0.125402
0.124968
0.124532
0.124094
0.123653
0.123211
0.122767
0.122321
0.121874
0.121425
0.120974
0.120523
0.12007
0.119615
0.11916
0.118704
0.118247
0.117788
0.117329
0.11687
0.116409
0.115948
0.115487
0.115025
0.114562
0.114099
0.113636
0.113172
0.112708
0.112243
0.111778
0.111313
0.110847
0.110381
0.141733
0.162548
0.149801
0.145245
0.143329
0.142346
0.141766
0.141381
0.1411
0.140874
0.140679
0.140499
0.140326
0.140153
0.139977
0.139795
0.139607
0.139411
0.139206
0.138993
0.13877
0.138539
0.138299
0.13805
0.137792
0.137527
0.137253
0.136971
0.136681
0.136384
0.136079
0.135768
0.13545
0.135125
0.134794
0.134456
0.134113
0.133764
0.133409
0.133049
0.132684
0.132313
0.131938
0.131558
0.131174
0.130785
0.130393
0.129996
0.129595
0.129191
0.128783
0.128371
0.127956
0.127539
0.127118
0.126694
0.126267
0.125838
0.125407
0.124973
0.124536
0.124098
0.123658
0.123215
0.122771
0.122325
0.121877
0.121428
0.120978
0.120526
0.120073
0.119618
0.119163
0.118707
0.118249
0.117791
0.117332
0.116872
0.116412
0.115951
0.115489
0.115027
0.114564
0.114101
0.113638
0.113174
0.112709
0.112245
0.11178
0.111314
0.110849
0.110383
0.141757
0.162539
0.149785
0.145228
0.143313
0.142334
0.141757
0.141376
0.141097
0.140874
0.14068
0.140501
0.140329
0.140156
0.139981
0.1398
0.139612
0.139417
0.139213
0.139
0.138778
0.138547
0.138307
0.138058
0.137801
0.137535
0.137261
0.13698
0.13669
0.136393
0.136089
0.135777
0.135459
0.135134
0.134803
0.134465
0.134122
0.133772
0.133418
0.133057
0.132692
0.132321
0.131946
0.131566
0.131182
0.130793
0.1304
0.130003
0.129602
0.129197
0.128789
0.128377
0.127962
0.127544
0.127123
0.126699
0.126273
0.125843
0.125412
0.124977
0.124541
0.124102
0.123662
0.123219
0.122775
0.122329
0.121881
0.121432
0.120981
0.120529
0.120076
0.119622
0.119166
0.11871
0.118252
0.117794
0.117335
0.116875
0.116414
0.115953
0.115491
0.115029
0.114567
0.114103
0.11364
0.113176
0.112711
0.112247
0.111782
0.111316
0.11085
0.110384
0.141777
0.162532
0.149772
0.145214
0.143299
0.142322
0.141749
0.14137
0.141094
0.140872
0.14068
0.140502
0.14033
0.140159
0.139984
0.139804
0.139616
0.139421
0.139217
0.139005
0.138783
0.138553
0.138313
0.138065
0.137808
0.137543
0.137269
0.136987
0.136698
0.136401
0.136097
0.135785
0.135467
0.135142
0.134811
0.134473
0.13413
0.133781
0.133426
0.133065
0.1327
0.132329
0.131954
0.131573
0.131189
0.1308
0.130407
0.130009
0.129608
0.129203
0.128795
0.128383
0.127968
0.12755
0.127129
0.126705
0.126278
0.125848
0.125416
0.124982
0.124546
0.124107
0.123666
0.123223
0.122779
0.122333
0.121885
0.121435
0.120985
0.120533
0.120079
0.119625
0.119169
0.118712
0.118255
0.117797
0.117337
0.116877
0.116417
0.115956
0.115494
0.115032
0.114569
0.114106
0.113642
0.113178
0.112713
0.112249
0.111784
0.111318
0.110852
0.110386
0.141795
0.162526
0.149762
0.145202
0.143287
0.142311
0.14174
0.141364
0.141089
0.140869
0.140678
0.140502
0.140331
0.14016
0.139986
0.139806
0.139619
0.139424
0.139221
0.139009
0.138788
0.138558
0.138318
0.13807
0.137814
0.137549
0.137275
0.136994
0.136705
0.136408
0.136104
0.135793
0.135474
0.13515
0.134818
0.134481
0.134137
0.133788
0.133433
0.133073
0.132707
0.132336
0.131961
0.131581
0.131196
0.130807
0.130413
0.130016
0.129615
0.12921
0.128801
0.128389
0.127974
0.127556
0.127134
0.12671
0.126283
0.125853
0.125421
0.124987
0.12455
0.124111
0.12367
0.123228
0.122783
0.122337
0.121889
0.121439
0.120988
0.120536
0.120083
0.119628
0.119172
0.118716
0.118258
0.117799
0.11734
0.11688
0.11642
0.115958
0.115496
0.115034
0.114571
0.114108
0.113644
0.11318
0.112716
0.112251
0.111785
0.11132
0.110854
0.110388
0.14181
0.162522
0.149754
0.145191
0.143275
0.1423
0.141731
0.141357
0.141084
0.140866
0.140676
0.140501
0.14033
0.14016
0.139987
0.139807
0.139621
0.139427
0.139224
0.139012
0.138791
0.138561
0.138323
0.138075
0.137819
0.137554
0.137281
0.137
0.136711
0.136414
0.13611
0.135799
0.135481
0.135156
0.134825
0.134488
0.134144
0.133795
0.13344
0.13308
0.132714
0.132343
0.131968
0.131587
0.131202
0.130813
0.13042
0.130022
0.129621
0.129216
0.128807
0.128395
0.12798
0.127561
0.12714
0.126715
0.126288
0.125858
0.125426
0.124992
0.124555
0.124116
0.123675
0.123232
0.122787
0.122341
0.121892
0.121443
0.120992
0.12054
0.120086
0.119631
0.119175
0.118719
0.118261
0.117802
0.117343
0.116883
0.116422
0.115961
0.115499
0.115037
0.114574
0.11411
0.113646
0.113182
0.112718
0.112253
0.111788
0.111322
0.110856
0.110389
0.141824
0.162519
0.149747
0.145183
0.143266
0.142291
0.141722
0.14135
0.141079
0.140862
0.140673
0.140499
0.14033
0.14016
0.139987
0.139808
0.139622
0.139428
0.139226
0.139014
0.138794
0.138565
0.138326
0.138079
0.137823
0.137558
0.137285
0.137005
0.136716
0.136419
0.136116
0.135805
0.135487
0.135162
0.134831
0.134494
0.134151
0.133801
0.133446
0.133086
0.13272
0.13235
0.131974
0.131594
0.131209
0.130819
0.130426
0.130028
0.129627
0.129222
0.128813
0.128401
0.127985
0.127567
0.127145
0.126721
0.126293
0.125863
0.125431
0.124996
0.124559
0.12412
0.123679
0.123236
0.122791
0.122345
0.121896
0.121447
0.120996
0.120543
0.120089
0.119635
0.119179
0.118722
0.118264
0.117805
0.117346
0.116886
0.116425
0.115964
0.115502
0.115039
0.114576
0.114113
0.113649
0.113185
0.11272
0.112255
0.11179
0.111324
0.110858
0.110391
0.141835
0.162517
0.149742
0.145176
0.143257
0.142282
0.141714
0.141343
0.141073
0.140857
0.14067
0.140497
0.140328
0.140159
0.139987
0.139808
0.139623
0.139429
0.139227
0.139016
0.138796
0.138567
0.138329
0.138082
0.137826
0.137562
0.137289
0.137009
0.13672
0.136424
0.13612
0.13581
0.135492
0.135168
0.134837
0.134499
0.134156
0.133807
0.133452
0.133092
0.132726
0.132355
0.13198
0.131599
0.131215
0.130825
0.130432
0.130034
0.129633
0.129227
0.128819
0.128406
0.127991
0.127572
0.12715
0.126726
0.126298
0.125868
0.125436
0.125001
0.124564
0.124125
0.123683
0.12324
0.122795
0.122349
0.1219
0.12145
0.120999
0.120547
0.120093
0.119638
0.119182
0.118725
0.118267
0.117809
0.117349
0.116889
0.116428
0.115966
0.115504
0.115042
0.114579
0.114115
0.113651
0.113187
0.112722
0.112257
0.111792
0.111326
0.11086
0.110393
0.141845
0.162516
0.149738
0.14517
0.14325
0.142274
0.141706
0.141336
0.141067
0.140853
0.140666
0.140494
0.140326
0.140158
0.139986
0.139808
0.139623
0.13943
0.139228
0.139017
0.138798
0.138569
0.138331
0.138084
0.137829
0.137565
0.137293
0.137012
0.136724
0.136428
0.136125
0.135814
0.135497
0.135172
0.134842
0.134505
0.134161
0.133812
0.133457
0.133097
0.132732
0.132361
0.131985
0.131605
0.13122
0.130831
0.130437
0.13004
0.129638
0.129233
0.128824
0.128412
0.127996
0.127577
0.127155
0.126731
0.126303
0.125873
0.125441
0.125006
0.124568
0.124129
0.123688
0.123245
0.122799
0.122353
0.121904
0.121454
0.121003
0.12055
0.120097
0.119642
0.119186
0.118728
0.11827
0.117812
0.117352
0.116892
0.116431
0.115969
0.115507
0.115045
0.114581
0.114118
0.113654
0.11319
0.112725
0.11226
0.111794
0.111328
0.110862
0.110396
0.141854
0.162515
0.149736
0.145166
0.143244
0.142267
0.141699
0.141329
0.141061
0.140848
0.140662
0.14049
0.140323
0.140156
0.139985
0.139807
0.139623
0.13943
0.139229
0.139018
0.138799
0.13857
0.138333
0.138086
0.137831
0.137568
0.137296
0.137015
0.136727
0.136432
0.136128
0.135818
0.135501
0.135177
0.134846
0.134509
0.134166
0.133817
0.133462
0.133102
0.132737
0.132366
0.13199
0.13161
0.131225
0.130836
0.130442
0.130045
0.129643
0.129238
0.128829
0.128417
0.128001
0.127582
0.12716
0.126736
0.126308
0.125878
0.125445
0.12501
0.124573
0.124134
0.123692
0.123249
0.122804
0.122357
0.121908
0.121458
0.121007
0.120554
0.1201
0.119645
0.119189
0.118732
0.118274
0.117815
0.117355
0.116895
0.116434
0.115972
0.11551
0.115047
0.114584
0.114121
0.113657
0.113192
0.112727
0.112262
0.141862
0.162515
0.149734
0.145163
0.143239
0.142261
0.141693
0.141323
0.141056
0.140843
0.140658
0.140487
0.140321
0.140154
0.139983
0.139806
0.139622
0.13943
0.139229
0.139019
0.1388
0.138571
0.138334
0.138088
0.137833
0.13757
0.137298
0.137018
0.13673
0.136435
0.136132
0.135822
0.135504
0.135181
0.13485
0.134513
0.13417
0.133821
0.133467
0.133107
0.132741
0.132371
0.131995
0.131615
0.13123
0.130841
0.130447
0.13005
0.129648
0.129243
0.128834
0.128422
0.128006
0.127587
0.127165
0.12674
0.126313
0.125883
0.12545
0.125015
0.124577
0.124138
0.123696
0.123253
0.122808
0.122361
0.121912
0.121462
0.121011
0.120558
0.120104
0.119649
0.119192
0.118735
0.118277
0.117818
0.117358
0.116898
0.116437
0.115975
0.115513
0.11505
0.114587
0.114123
0.113659
0.113195
0.11273
0.112265
0.141869
0.162515
0.149733
0.14516
0.143235
0.142256
0.141687
0.141317
0.14105
0.140838
0.140654
0.140483
0.140318
0.140151
0.139981
0.139805
0.139621
0.139429
0.139228
0.139019
0.1388
0.138572
0.138335
0.138089
0.137835
0.137571
0.1373
0.13702
0.136733
0.136437
0.136135
0.135825
0.135508
0.135184
0.134854
0.134517
0.134174
0.133825
0.133471
0.133111
0.132746
0.132375
0.132
0.13162
0.131235
0.130846
0.130452
0.130054
0.129653
0.129248
0.128839
0.128426
0.128011
0.127592
0.12717
0.126745
0.126317
0.125887
0.125454
0.125019
0.124582
0.124142
0.123701
0.123257
0.122812
0.122365
0.121916
0.121466
0.121015
0.120562
0.120108
0.119652
0.119196
0.118739
0.118281
0.117822
0.117362
0.116901
0.11644
0.115978
0.115516
0.115053
0.11459
0.114126
0.113662
0.113198
0.112733
0.112268
0.141875
0.162515
0.149732
0.145158
0.143232
0.142251
0.141682
0.141311
0.141045
0.140833
0.140649
0.140479
0.140314
0.140149
0.139979
0.139803
0.13962
0.139428
0.139228
0.139018
0.1388
0.138572
0.138336
0.13809
0.137836
0.137573
0.137301
0.137022
0.136735
0.13644
0.136137
0.135827
0.135511
0.135187
0.134857
0.13452
0.134178
0.133829
0.133475
0.133115
0.13275
0.132379
0.132004
0.131624
0.131239
0.13085
0.130456
0.130059
0.129657
0.129252
0.128843
0.128431
0.128015
0.127596
0.127174
0.126749
0.126322
0.125891
0.125459
0.125023
0.124586
0.124146
0.123705
0.123261
0.122816
0.122369
0.12192
0.12147
0.121018
0.120565
0.120111
0.119656
0.1192
0.118742
0.118284
0.117825
0.117365
0.116905
0.116443
0.115982
0.115519
0.115057
0.114593
0.11413
0.113666
0.141881
0.162515
0.149732
0.145157
0.143229
0.142248
0.141677
0.141307
0.14104
0.140828
0.140645
0.140475
0.140311
0.140146
0.139976
0.139801
0.139618
0.139427
0.139227
0.139018
0.1388
0.138572
0.138336
0.138091
0.137837
0.137574
0.137303
0.137024
0.136736
0.136442
0.136139
0.13583
0.135513
0.13519
0.13486
0.134523
0.134181
0.133832
0.133478
0.133118
0.132753
0.132383
0.132008
0.131628
0.131243
0.130854
0.130461
0.130063
0.129662
0.129256
0.128847
0.128435
0.128019
0.1276
0.127179
0.126754
0.126326
0.125896
0.125463
0.125028
0.12459
0.124151
0.123709
0.123265
0.12282
0.122373
0.121924
0.121474
0.121022
0.120569
0.120115
0.11966
0.119203
0.118746
0.118288
0.117828
0.117369
0.116908
0.116447
0.115985
0.115523
0.11506
0.114597
0.114133
0.113669
0.141886
0.162516
0.149732
0.145157
0.143228
0.142245
0.141673
0.141302
0.141035
0.140823
0.14064
0.140471
0.140307
0.140142
0.139974
0.139799
0.139616
0.139425
0.139226
0.139017
0.138799
0.138572
0.138336
0.138091
0.137837
0.137575
0.137304
0.137025
0.136738
0.136443
0.136141
0.135832
0.135515
0.135192
0.134862
0.134526
0.134184
0.133836
0.133481
0.133122
0.132757
0.132387
0.132011
0.131631
0.131247
0.130858
0.130465
0.130067
0.129666
0.12926
0.128852
0.128439
0.128024
0.127605
0.127183
0.126758
0.12633
0.1259
0.125467
0.125032
0.124594
0.124155
0.123713
0.123269
0.122824
0.122377
0.121928
0.121478
0.121026
0.120573
0.120119
0.119663
0.119207
0.11875
0.118291
0.117832
0.117372
0.116911
0.11645
0.115988
0.115526
0.115063
0.1146
0.114136
0.113672
0.141891
0.162516
0.149733
0.145156
0.143226
0.142242
0.14167
0.141298
0.141031
0.140819
0.140636
0.140467
0.140304
0.140139
0.139971
0.139796
0.139614
0.139424
0.139224
0.139016
0.138798
0.138572
0.138336
0.138091
0.137837
0.137575
0.137305
0.137026
0.136739
0.136445
0.136143
0.135834
0.135518
0.135194
0.134865
0.134529
0.134187
0.133838
0.133484
0.133125
0.13276
0.13239
0.132015
0.131635
0.13125
0.130862
0.130468
0.130071
0.129669
0.129264
0.128856
0.128443
0.128028
0.127609
0.127187
0.126762
0.126334
0.125904
0.125471
0.125036
0.124598
0.124159
0.123717
0.123273
0.122828
0.122381
0.121932
0.121482
0.12103
0.120577
0.120123
0.119667
0.119211
0.118753
0.118295
0.117836
0.117376
0.116915
0.116454
0.115992
0.11553
0.115067
0.114603
0.114139
0.113675
0.141895
0.162516
0.149733
0.145157
0.143226
0.142241
0.141667
0.141295
0.141027
0.140815
0.140632
0.140464
0.1403
0.140136
0.139968
0.139794
0.139612
0.139422
0.139223
0.139015
0.138797
0.138571
0.138335
0.138091
0.137838
0.137576
0.137305
0.137027
0.13674
0.136446
0.136144
0.135835
0.135519
0.135196
0.134867
0.134531
0.134189
0.133841
0.133487
0.133128
0.132763
0.132393
0.132018
0.131638
0.131254
0.130865
0.130472
0.130074
0.129673
0.129268
0.128859
0.128447
0.128031
0.127613
0.127191
0.126766
0.126338
0.125908
0.125475
0.12504
0.124602
0.124163
0.123721
0.123277
0.122832
0.122385
0.121936
0.121485
0.121034
0.120581
0.120126
0.119671
0.119214
0.118757
0.118299
0.117839
0.117379
0.116919
0.116457
0.115996
0.115533
0.11507
0.114607
0.114143
0.113679
0.141899
0.162517
0.149734
0.145157
0.143225
0.142239
0.141665
0.141292
0.141024
0.140811
0.140628
0.14046
0.140296
0.140133
0.139965
0.139791
0.139609
0.13942
0.139221
0.139013
0.138796
0.13857
0.138335
0.138091
0.137838
0.137576
0.137306
0.137027
0.136741
0.136447
0.136146
0.135837
0.135521
0.135198
0.134869
0.134533
0.134191
0.133843
0.13349
0.13313
0.132766
0.132396
0.132021
0.131641
0.131257
0.130868
0.130475
0.130078
0.129677
0.129272
0.128863
0.128451
0.128035
0.127616
0.127194
0.12677
0.126342
0.125912
0.125479
0.125044
0.124606
0.124167
0.123725
0.123281
0.122836
0.122389
0.12194
0.121489
0.121038
0.120584
0.12013
0.119675
0.119218
0.118761
0.118302
0.117843
0.117383
0.116922
0.116461
0.115999
0.115537
0.115074
0.11461
0.114146
0.113682
0.141903
0.162517
0.149735
0.145157
0.143225
0.142238
0.141663
0.141289
0.14102
0.140808
0.140625
0.140456
0.140293
0.140129
0.139962
0.139788
0.139607
0.139417
0.139219
0.139012
0.138795
0.138569
0.138334
0.13809
0.137837
0.137576
0.137306
0.137028
0.136742
0.136448
0.136147
0.135838
0.135522
0.1352
0.134871
0.134535
0.134193
0.133846
0.133492
0.133133
0.132768
0.132399
0.132024
0.131644
0.13126
0.130871
0.130478
0.130081
0.12968
0.129275
0.128866
0.128454
0.128039
0.12762
0.127198
0.126773
0.126346
0.125916
0.125483
0.125048
0.12461
0.12417
0.123729
0.123285
0.12284
0.122392
0.121944
0.121493
0.121041
0.120588
0.120134
0.119679
0.119222
0.118765
0.118306
0.117847
0.117387
0.116926
0.116465
0.116003
0.115541
0.115078
0.114614
0.11415
0.113686
0.141907
0.162518
0.149735
0.145158
0.143225
0.142238
0.141662
0.141287
0.141018
0.140805
0.140621
0.140453
0.140289
0.140126
0.139959
0.139785
0.139604
0.139415
0.139217
0.13901
0.138793
0.138568
0.138333
0.138089
0.137837
0.137576
0.137306
0.137028
0.136742
0.136449
0.136147
0.135839
0.135524
0.135201
0.134872
0.134537
0.134195
0.133848
0.133494
0.133135
0.132771
0.132401
0.132027
0.131647
0.131263
0.130874
0.130481
0.130084
0.129683
0.129278
0.12887
0.128458
0.128042
0.127624
0.127202
0.126777
0.126349
0.125919
0.125487
0.125051
0.124614
0.124174
0.123733
0.123289
0.122843
0.122396
0.121947
0.121497
0.121045
0.120592
0.120138
0.119682
0.119226
0.118768
0.11831
0.117851
0.117391
0.11693
0.116469
0.116007
0.115545
0.115082
0.114618
0.114154
0.113689
0.14191
0.162518
0.149736
0.145158
0.143225
0.142237
0.141661
0.141286
0.141015
0.140802
0.140618
0.14045
0.140286
0.140123
0.139955
0.139782
0.139602
0.139413
0.139215
0.139008
0.138792
0.138566
0.138332
0.138089
0.137836
0.137575
0.137306
0.137028
0.136743
0.136449
0.136148
0.13584
0.135525
0.135202
0.134874
0.134538
0.134197
0.13385
0.133496
0.133137
0.132773
0.132404
0.132029
0.13165
0.131266
0.130877
0.130484
0.130087
0.129686
0.129282
0.128873
0.128461
0.128046
0.127627
0.127205
0.126781
0.126353
0.125923
0.12549
0.125055
0.124618
0.124178
0.123736
0.123293
0.122847
0.1224
0.121951
0.121501
0.121049
0.120596
0.120142
0.119686
0.11923
0.118772
0.118314
0.117855
0.117395
0.116934
0.116473
0.116011
0.115548
0.115085
0.114622
0.114158
0.113693
0.141914
0.162519
0.149736
0.145159
0.143226
0.142237
0.14166
0.141284
0.141014
0.140799
0.140616
0.140447
0.140283
0.14012
0.139952
0.139779
0.139599
0.13941
0.139213
0.139006
0.13879
0.138565
0.138331
0.138087
0.137835
0.137575
0.137305
0.137028
0.136743
0.136449
0.136149
0.135841
0.135526
0.135204
0.134875
0.13454
0.134199
0.133851
0.133498
0.133139
0.132775
0.132406
0.132032
0.131652
0.131268
0.13088
0.130487
0.13009
0.129689
0.129285
0.128876
0.128464
0.128049
0.12763
0.127209
0.126784
0.126357
0.125926
0.125494
0.125059
0.124621
0.124182
0.12374
0.123296
0.122851
0.122404
0.121955
0.121505
0.121053
0.1206
0.120146
0.11969
0.119234
0.118776
0.118318
0.117859
0.117399
0.116938
0.116477
0.116015
0.115552
0.115089
0.114626
0.114162
0.113697
0.141917
0.162519
0.149737
0.14516
0.143226
0.142237
0.14166
0.141283
0.141012
0.140797
0.140613
0.140444
0.14028
0.140117
0.139949
0.139776
0.139596
0.139408
0.13921
0.139004
0.138788
0.138563
0.138329
0.138086
0.137834
0.137574
0.137305
0.137028
0.136743
0.13645
0.136149
0.135841
0.135526
0.135205
0.134876
0.134541
0.1342
0.133853
0.1335
0.133141
0.132777
0.132408
0.132034
0.131655
0.131271
0.130883
0.13049
0.130093
0.129692
0.129288
0.128879
0.128467
0.128052
0.127634
0.127212
0.126787
0.12636
0.12593
0.125497
0.125062
0.124625
0.124185
0.123744
0.1233
0.122855
0.122408
0.121959
0.121509
0.121057
0.120604
0.12015
0.119694
0.119238
0.11878
0.118322
0.117863
0.117403
0.116942
0.116481
0.116019
0.115557
0.115093
0.11463
0.114166
0.113701
0.14192
0.162519
0.149737
0.14516
0.143227
0.142237
0.141659
0.141282
0.14101
0.140795
0.140611
0.140441
0.140277
0.140114
0.139947
0.139774
0.139593
0.139405
0.139208
0.139002
0.138786
0.138562
0.138328
0.138085
0.137833
0.137573
0.137304
0.137027
0.136742
0.13645
0.136149
0.135842
0.135527
0.135205
0.134877
0.134542
0.134201
0.133854
0.133502
0.133143
0.132779
0.13241
0.132036
0.131657
0.131273
0.130885
0.130493
0.130096
0.129695
0.12929
0.128882
0.12847
0.128055
0.127637
0.127215
0.126791
0.126363
0.125933
0.125501
0.125066
0.124628
0.124189
0.123747
0.123304
0.122859
0.122411
0.121963
0.121512
0.121061
0.120608
0.120154
0.119698
0.119242
0.118784
0.118326
0.117867
0.117407
0.116946
0.116485
0.116023
0.115561
0.115098
0.114634
0.11417
0.113705
0.141924
0.162519
0.149738
0.145161
0.143227
0.142238
0.141659
0.141282
0.141009
0.140794
0.140609
0.140439
0.140275
0.140111
0.139944
0.139771
0.139591
0.139402
0.139205
0.138999
0.138784
0.13856
0.138326
0.138084
0.137832
0.137572
0.137304
0.137027
0.136742
0.13645
0.13615
0.135842
0.135528
0.135206
0.134878
0.134543
0.134203
0.133856
0.133503
0.133145
0.132781
0.132412
0.132038
0.131659
0.131276
0.130888
0.130495
0.130098
0.129698
0.129293
0.128885
0.128473
0.128058
0.12764
0.127218
0.126794
0.126367
0.125937
0.125504
0.125069
0.124632
0.124193
0.123751
0.123308
0.122862
0.122415
0.121967
0.121516
0.121065
0.120612
0.120158
0.119702
0.119246
0.118789
0.11833
0.117871
0.117411
0.116951
0.116489
0.116028
0.115565
0.115102
0.114638
0.114174
0.113709
0.141927
0.162519
0.149738
0.145161
0.143228
0.142238
0.141659
0.141281
0.141008
0.140792
0.140607
0.140437
0.140272
0.140109
0.139941
0.139768
0.139588
0.1394
0.139203
0.138997
0.138782
0.138558
0.138325
0.138082
0.137831
0.137571
0.137303
0.137026
0.136742
0.136449
0.13615
0.135842
0.135528
0.135207
0.134879
0.134544
0.134204
0.133857
0.133504
0.133146
0.132783
0.132414
0.13204
0.131661
0.131278
0.13089
0.130497
0.130101
0.1297
0.129296
0.128888
0.128476
0.128061
0.127643
0.127222
0.126797
0.12637
0.12594
0.125508
0.125073
0.124636
0.124196
0.123755
0.123311
0.122866
0.122419
0.12197
0.12152
0.121069
0.120616
0.120162
0.119706
0.11925
0.118793
0.118335
0.117876
0.117416
0.116955
0.116494
0.116032
0.115569
0.115106
0.114643
0.114178
0.113713
0.14193
0.162519
0.149738
0.145162
0.143228
0.142238
0.141659
0.141281
0.141008
0.140791
0.140605
0.140435
0.14027
0.140106
0.139939
0.139766
0.139586
0.139397
0.139201
0.138995
0.13878
0.138556
0.138323
0.138081
0.13783
0.13757
0.137302
0.137026
0.136741
0.136449
0.136149
0.135842
0.135528
0.135207
0.134879
0.134545
0.134205
0.133858
0.133506
0.133148
0.132784
0.132416
0.132042
0.131663
0.13128
0.130892
0.1305
0.130103
0.129703
0.129299
0.128891
0.128479
0.128064
0.127646
0.127225
0.1268
0.126373
0.125943
0.125511
0.125076
0.124639
0.1242
0.123758
0.123315
0.12287
0.122423
0.121974
0.121524
0.121073
0.12062
0.120166
0.119711
0.119254
0.118797
0.118339
0.11788
0.11742
0.11696
0.116498
0.116036
0.115574
0.115111
0.114647
0.114183
0.113718
0.141933
0.162519
0.149738
0.145162
0.143228
0.142239
0.141659
0.14128
0.141007
0.14079
0.140604
0.140433
0.140268
0.140104
0.139936
0.139763
0.139583
0.139395
0.139198
0.138993
0.138778
0.138554
0.138321
0.138079
0.137828
0.137569
0.137301
0.137025
0.136741
0.136449
0.136149
0.135842
0.135528
0.135207
0.13488
0.134546
0.134206
0.133859
0.133507
0.133149
0.132786
0.132417
0.132044
0.131665
0.131282
0.130894
0.130502
0.130106
0.129706
0.129301
0.128893
0.128482
0.128067
0.127649
0.127228
0.126804
0.126377
0.125947
0.125514
0.12508
0.124643
0.124203
0.123762
0.123319
0.122874
0.122427
0.121978
0.121528
0.121077
0.120624
0.12017
0.119715
0.119259
0.118801
0.118343
0.117884
0.117425
0.116964
0.116503
0.116041
0.115578
0.115115
0.114652
0.114187
0.113722
0.141936
0.162519
0.149738
0.145162
0.143229
0.142239
0.141659
0.14128
0.141006
0.140789
0.140603
0.140432
0.140267
0.140102
0.139934
0.139761
0.139581
0.139393
0.139196
0.13899
0.138776
0.138552
0.138319
0.138077
0.137827
0.137567
0.1373
0.137024
0.13674
0.136448
0.136149
0.135842
0.135528
0.135208
0.13488
0.134546
0.134206
0.13386
0.133508
0.13315
0.132787
0.132419
0.132045
0.131667
0.131284
0.130896
0.130504
0.130108
0.129708
0.129304
0.128896
0.128485
0.12807
0.127652
0.127231
0.126807
0.12638
0.12595
0.125518
0.125083
0.124646
0.124207
0.123766
0.123323
0.122877
0.122431
0.121982
0.121532
0.121081
0.120628
0.120174
0.119719
0.119263
0.118806
0.118348
0.117889
0.117429
0.116969
0.116507
0.116046
0.115583
0.11512
0.114656
0.114192
0.141939
0.162518
0.149738
0.145162
0.143229
0.142239
0.141659
0.14128
0.141006
0.140789
0.140602
0.14043
0.140265
0.1401
0.139932
0.139759
0.139578
0.13939
0.139194
0.138988
0.138773
0.13855
0.138317
0.138075
0.137825
0.137566
0.137298
0.137023
0.136739
0.136447
0.136148
0.135842
0.135528
0.135208
0.134881
0.134547
0.134207
0.133861
0.133509
0.133152
0.132789
0.13242
0.132047
0.131669
0.131286
0.130898
0.130506
0.13011
0.12971
0.129306
0.128899
0.128487
0.128073
0.127655
0.127234
0.12681
0.126383
0.125953
0.125521
0.125087
0.12465
0.124211
0.123769
0.123326
0.122881
0.122435
0.121986
0.121536
0.121085
0.120632
0.120179
0.119723
0.119267
0.11881
0.118352
0.117893
0.117434
0.116973
0.116512
0.11605
0.115588
0.115125
0.114661
0.114197
0.141943
0.162518
0.149738
0.145162
0.143229
0.142239
0.14166
0.14128
0.141006
0.140788
0.140601
0.140429
0.140263
0.140098
0.13993
0.139757
0.139576
0.139388
0.139191
0.138986
0.138771
0.138548
0.138315
0.138074
0.137823
0.137564
0.137297
0.137022
0.136738
0.136447
0.136148
0.135842
0.135528
0.135208
0.134881
0.134547
0.134208
0.133862