/*--------------------------------*- C++ -*----------------------------------*\
  =========                 |
  \\      /  F ield         | OpenFOAM: The Open Source CFD Toolbox
   \\    /   O peration     | Website:  https://openfoam.org
    \\  /    A nd           | Version:  10
     \\/     M anipulation  |
\*---------------------------------------------------------------------------*/
FoamFile
{
    format      ascii;
    class       volScalarField;
    location    "18000";
    object      omega;
}
// * * * * * * * * * * * * * * * * * * * * * * * * * * * * * * * * * * * * * //

dimensions      [0 0 -1 0 0 0 0];

internalField   nonuniform List<scalar> 
17808
(
13579.4
5469.76
3120.82
2144.28
1619.28
1294.34
1074.33
915.826
796.334
703.092
628.337
567.083
515.983
472.711
435.6
403.423
375.26
350.404
328.308
308.536
290.741
274.641
260.006
246.646
234.401
223.138
212.745
203.124
194.195
185.884
178.131
170.883
164.091
157.715
151.718
146.069
140.737
135.698
130.929
126.41
122.12
118.045
114.169
110.478
106.959
103.602
100.396
97.3314
94.3994
91.5922
88.9024
86.3231
83.8483
81.4719
79.1888
76.9939
74.8826
72.8506
70.8939
69.0088
67.1918
65.4396
63.7492
62.1176
60.5424
59.0208
57.5506
56.1295
54.7554
53.4265
52.1409
50.8967
49.6924
48.5264
47.3971
46.3032
45.2434
44.2164
43.221
42.256
41.3205
40.4133
39.5336
38.6803
37.8527
37.0499
36.2711
35.5156
34.7826
34.0715
33.3816
32.7124
13577.9
5469.34
3122.07
2145.71
1620.55
1295.4
1075.19
916.525
796.904
703.561
628.726
567.407
516.255
472.942
435.796
403.591
375.405
350.53
328.417
308.631
290.824
274.714
260.071
246.703
234.452
223.183
212.785
203.16
194.227
185.913
178.157
170.906
164.112
157.734
151.735
146.084
140.751
135.711
130.941
126.42
122.13
118.054
114.177
110.485
106.966
103.608
100.402
97.3364
94.404
91.5964
88.9062
86.3267
83.8515
81.4749
79.1916
76.9965
74.885
72.8528
70.896
69.0107
67.1936
65.4412
63.7507
62.1191
60.5437
59.0221
57.5518
56.1306
54.7565
53.4275
52.1418
50.8976
49.6933
48.5272
47.3979
46.304
45.2442
44.2171
43.2217
42.2567
41.3211
40.414
39.5342
38.681
37.8533
37.0505
36.2717
35.5162
34.7832
34.0721
33.3822
32.713
13579.3
5468.35
3122.7
2146.4
1621.17
1295.95
1075.67
916.931
797.253
703.862
628.987
567.634
516.454
473.115
435.949
403.725
375.523
350.635
328.51
308.714
290.897
274.78
260.129
246.755
234.498
223.225
212.823
203.194
194.257
185.94
178.182
170.928
164.132
157.752
151.752
146.099
140.765
135.723
130.952
126.43
122.139
118.062
114.184
110.492
106.972
103.614
100.407
97.3412
94.4084
91.6004
88.9099
86.33
83.8546
81.4778
79.1942
76.9989
74.8872
72.8549
70.8979
69.0125
67.1952
65.4427
63.7521
62.1204
60.5449
59.0232
57.5528
56.1316
54.7575
53.4284
52.1427
50.8984
49.6941
48.5279
47.3986
46.3047
45.2448
44.2177
43.2223
42.2573
41.3217
40.4145
39.5348
38.6815
37.8539
37.0511
36.2722
35.5167
34.7837
34.0726
33.3827
32.7135
13580.6
5467.39
3123.11
2146.86
1621.61
1296.34
1076.01
917.223
797.505
704.081
629.178
567.802
516.603
473.248
436.068
403.832
375.619
350.721
328.587
308.783
290.961
274.837
260.181
246.802
234.54
223.263
212.857
203.225
194.285
185.966
178.205
170.949
164.151
157.77
151.768
146.113
140.778
135.735
130.963
126.44
122.148
118.071
114.192
110.499
106.979
103.62
100.412
97.3461
94.4128
91.6045
88.9136
86.3335
83.8578
81.4807
79.1969
77.0013
74.8895
72.857
70.8998
69.0143
67.1968
65.4443
63.7535
62.1217
60.5462
59.0244
57.5539
56.1326
54.7584
53.4293
52.1435
50.8993
49.6948
48.5287
47.3993
46.3054
45.2455
44.2184
43.2229
42.2579
41.3223
40.4151
39.5353
38.682
37.8544
37.0516
36.2728
35.5172
34.7842
34.0731
33.3832
32.714
13582
5466.09
3123.09
2147.01
1621.84
1296.59
1076.24
917.433
797.69
704.244
629.322
567.931
516.718
473.352
436.162
403.917
375.696
350.792
328.652
308.842
291.014
274.886
260.225
246.843
234.578
223.298
212.888
203.254
194.312
185.99
178.227
170.969
164.17
157.786
151.783
146.127
140.791
135.747
130.974
126.45
122.157
118.079
114.2
110.506
106.985
103.626
100.418
97.351
94.4174
91.6086
88.9175
86.337
83.861
81.4837
79.1996
77.0039
74.8918
72.8591
70.9018
69.0161
67.1986
65.4459
63.755
62.1231
60.5474
59.0255
57.555
56.1337
54.7594
53.4303
52.1444
50.9001
49.6956
48.5294
47.4
46.306
45.2461
44.219
43.2235
42.2585
41.3229
40.4156
39.5358
38.6826
37.8549
37.0521
36.2733
35.5177
34.7847
34.0736
33.3837
32.7145
13583.4
5464.77
3122.84
2146.99
1621.94
1296.73
1076.39
917.573
797.819
704.361
629.428
568.027
516.806
473.432
436.235
403.985
375.759
350.849
328.705
308.891
291.059
274.927
260.264
246.878
234.611
223.328
212.916
203.28
194.335
186.012
178.247
170.988
164.187
157.802
151.798
146.141
140.803
135.758
130.984
126.46
122.166
118.087
114.207
110.513
106.991
103.632
100.423
97.3559
94.4219
91.6128
88.9213
86.3406
83.8643
81.4867
79.2024
77.0065
74.8942
72.8613
70.9039
69.018
67.2003
65.4475
63.7565
62.1245
60.5488
59.0268
57.5562
56.1348
54.7604
53.4312
52.1453
50.9009
49.6964
48.5302
47.4008
46.3067
45.2468
44.2196
43.2241
42.2591
41.3234
40.4162
39.5364
38.6831
37.8554
37.0526
36.2738
35.5182
34.7852
34.0741
33.3842
32.7149
13584.9
5463.59
3122.52
2146.9
1621.96
1296.81
1076.48
917.669
797.91
704.445
629.506
568.099
516.872
473.493
436.292
404.038
375.808
350.895
328.748
308.931
291.097
274.962
260.297
246.909
234.639
223.354
212.941
203.303
194.357
186.032
178.266
171.005
164.202
157.817
151.811
146.153
140.815
135.769
130.994
126.469
122.175
118.095
114.214
110.519
106.998
103.637
100.428
97.3608
94.4264
91.617
88.9252
86.3441
83.8676
81.4898
79.2053
77.0091
74.8966
72.8636
70.9059
69.0199
67.2021
65.4492
63.7581
62.1259
60.5501
59.028
57.5574
56.1359
54.7615
53.4322
52.1463
50.9018
49.6972
48.531
47.4015
46.3074
45.2474
44.2203
43.2247
42.2597
41.324
40.4168
39.5369
38.6836
37.856
37.0531
36.2743
35.5187
34.7857
34.0746
33.3847
32.7154
13586.2
5462.59
3122.16
2146.78
1621.95
1296.84
1076.54
917.737
797.977
704.509
629.565
568.153
516.923
473.541
436.336
404.079
375.847
350.932
328.783
308.964
291.128
274.992
260.324
246.935
234.663
223.377
212.962
203.323
194.376
186.049
178.282
171.02
164.217
157.83
151.824
146.165
140.825
135.779
131.003
126.477
122.183
118.102
114.221
110.526
107.004
103.643
100.433
97.3656
94.4309
91.6212
88.929
86.3477
83.8709
81.4928
79.2081
77.0117
74.8991
72.8659
70.9081
69.0219
67.2039
65.4509
63.7597
62.1274
60.5515
59.0293
57.5586
56.137
54.7625
53.4332
52.1472
50.9027
49.6981
48.5318
47.4023
46.3082
45.2481
44.2209
43.2254
42.2603
41.3246
40.4173
39.5375
38.6842
37.8565
37.0536
36.2748
35.5192
34.7862
34.0751
33.3852
32.7159
13587.4
5461.71
3121.78
2146.63
1621.9
1296.85
1076.58
917.782
798.025
704.556
629.61
568.196
516.962
473.578
436.371
404.113
375.879
350.962
328.811
308.991
291.154
275.016
260.347
246.957
234.684
223.397
212.981
203.34
194.392
186.065
178.297
171.034
164.23
157.842
151.835
146.176
140.836
135.789
131.012
126.486
122.19
118.11
114.228
110.532
107.009
103.648
100.438
97.3704
94.4353
91.6253
88.9328
86.3512
83.8742
81.4959
79.2109
77.0144
74.9016
72.8682
70.9102
69.0239
67.2058
65.4526
63.7613
62.1289
60.5529
59.0306
57.5598
56.1382
54.7636
53.4342
52.1482
50.9036
49.6989
48.5326
47.403
46.3089
45.2488
44.2216
43.226
42.2609
41.3252
40.4179
39.5381
38.6847
37.857
37.0542
36.2753
35.5197
34.7867
34.0756
33.3857
32.7164
13588.5
5460.95
3121.4
2146.47
1621.84
1296.83
1076.59
917.81
798.059
704.591
629.644
568.228
516.993
473.607
436.399
404.139
375.904
350.986
328.834
309.014
291.175
275.037
260.367
246.975
234.702
223.414
212.997
203.356
194.407
186.079
178.31
171.047
164.242
157.854
151.846
146.186
140.845
135.797
131.02
126.493
122.198
118.116
114.234
110.538
107.015
103.654
100.443
97.3749
94.4396
91.6292
88.9366
86.3547
83.8774
81.4989
79.2138
77.017
74.904
72.8705
70.9123
69.0259
67.2077
65.4543
63.7629
62.1304
60.5543
59.032
57.561
56.1393
54.7647
53.4353
52.1491
50.9045
49.6998
48.5334
47.4038
46.3096
45.2496
44.2223
43.2267
42.2615
41.3258
40.4185
39.5386
38.6853
37.8576
37.0547
36.2758
35.5202
34.7872
34.0761
33.3862
32.7169
13589.4
5460.29
3121.03
2146.3
1621.76
1296.8
1076.59
917.824
798.08
704.615
629.669
568.253
517.017
473.63
436.421
404.16
375.924
351.006
328.853
309.032
291.193
275.054
260.383
246.991
234.717
223.428
213.011
203.369
194.42
186.091
178.322
171.058
164.252
157.863
151.855
146.195
140.853
135.805
131.028
126.501
122.204
118.123
114.24
110.544
107.02
103.659
100.448
97.3793
94.4437
91.6331
88.9402
86.3581
83.8806
81.5019
79.2166
77.0196
74.9065
72.8728
70.9145
69.0279
67.2095
65.4561
63.7645
62.132
60.5557
59.0333
57.5623
56.1405
54.7659
53.4364
52.1502
50.9055
49.7007
48.5343
47.4046
46.3104
45.2503
44.223
43.2273
42.2622
41.3264
40.4191
39.5392
38.6859
37.8581
37.0552
36.2764
35.5208
34.7877
34.0766
33.3867
32.7174
13590.3
5459.72
3120.67
2146.13
1621.67
1296.76
1076.58
917.827
798.092
704.632
629.687
568.272
517.035
473.648
436.438
404.177
375.941
351.022
328.869
309.047
291.207
275.068
260.397
247.004
234.73
223.441
213.023
203.381
194.431
186.102
178.332
171.068
164.262
157.872
151.864
146.203
140.861
135.813
131.035
126.507
122.211
118.129
114.246
110.549
107.025
103.663
100.452
97.3835
94.4477
91.6368
88.9437
86.3614
83.8837
81.5048
79.2193
77.0222
74.9089
72.875
70.9166
69.0299
67.2114
65.4578
63.7662
62.1335
60.5572
59.0347
57.5636
56.1417
54.767
53.4374
52.1512
50.9065
49.7016
48.5351
47.4054
46.3112
45.251
44.2237
43.228
42.2628
41.3271
40.4197
39.5398
38.6864
37.8587
37.0558
36.2769
35.5213
34.7883
34.0771
33.3872
32.7179
13591
5459.22
3120.34
2145.96
1621.58
1296.72
1076.55
917.822
798.097
704.641
629.7
568.285
517.049
473.662
436.452
404.19
375.954
351.034
328.881
309.059
291.219
275.079
260.409
247.015
234.741
223.451
213.034
203.391
194.44
186.111
178.341
171.076
164.27
157.88
151.871
146.21
140.868
135.82
131.041
126.513
122.216
118.134
114.251
110.554
107.03
103.668
100.457
97.3876
94.4515
91.6404
88.9471
86.3646
83.8867
81.5077
79.222
77.0247
74.9113
72.8773
70.9187
69.0319
67.2133
65.4596
63.7678
62.1351
60.5587
59.0361
57.5649
56.143
54.7682
53.4385
52.1522
50.9074
49.7026
48.536
47.4063
46.312
45.2518
44.2244
43.2287
42.2635
41.3277
40.4204
39.5404
38.687
37.8593
37.0564
36.2775
35.5219
34.7888
34.0776
33.3877
32.7184
13591.6
5458.79
3120.04
2145.8
1621.49
1296.66
1076.53
917.81
798.095
704.645
629.707
568.294
517.059
473.672
436.462
404.201
375.964
351.044
328.891
309.069
291.229
275.089
260.418
247.025
234.75
223.461
213.042
203.399
194.449
186.119
178.349
171.084
164.277
157.888
151.878
146.217
140.874
135.826
131.047
126.519
122.222
118.139
114.256
110.559
107.034
103.672
100.461
97.3914
94.4551
91.6439
88.9503
86.3677
83.8897
81.5104
79.2246
77.0272
74.9136
72.8795
70.9208
69.0338
67.2151
65.4613
63.7695
62.1366
60.5601
59.0374
57.5662
56.1442
54.7694
53.4397
52.1533
50.9084
49.7035
48.5369
47.4071
46.3128
45.2526
44.2252
43.2294
42.2642
41.3284
40.421
39.5411
38.6877
37.8599
37.057
36.2781
35.5224
34.7894
34.0782
33.3882
32.7189
13592.1
5458.42
3119.75
2145.65
1621.4
1296.61
1076.49
917.793
798.088
704.645
629.71
568.299
517.066
473.679
436.47
404.209
375.972
351.053
328.899
309.077
291.237
275.097
260.426
247.033
234.758
223.468
213.05
203.407
194.456
186.126
178.356
171.091
164.284
157.894
151.884
146.223
140.88
135.831
131.053
126.524
122.227
118.144
114.261
110.563
107.039
103.676
100.465
97.395
94.4585
91.6471
88.9534
86.3706
83.8925
81.5131
79.2271
77.0296
74.9159
72.8816
70.9228
69.0358
67.2169
65.4631
63.7711
62.1382
60.5616
59.0388
57.5675
56.1455
54.7705
53.4408
52.1543
50.9095
49.7045
48.5378
47.408
46.3136
45.2534
44.226
43.2302
42.2649
41.3291
40.4217
39.5417
38.6883
37.8605
37.0576
36.2787
35.523
34.79
34.0788
33.3888
32.7195
13592.5
5458.1
3119.5
2145.5
1621.31
1296.55
1076.46
917.772
798.077
704.64
629.71
568.302
517.069
473.684
436.475
404.214
375.978
351.059
328.906
309.084
291.244
275.104
260.433
247.039
234.765
223.475
213.056
203.413
194.462
186.132
178.362
171.097
164.29
157.9
151.89
146.228
140.885
135.836
131.058
126.529
122.231
118.148
114.265
110.567
107.042
103.68
100.468
97.3984
94.4617
91.6502
88.9564
86.3735
83.8952
81.5156
79.2296
77.0319
74.9181
72.8837
70.9248
69.0377
67.2187
65.4648
63.7727
62.1397
60.563
59.0402
57.5688
56.1467
54.7717
53.4419
52.1554
50.9105
49.7055
48.5388
47.4089
46.3145
45.2542
44.2267
43.2309
42.2656
41.3298
40.4224
39.5424
38.6889
37.8612
37.0582
36.2793
35.5237
34.7907
34.0795
33.3895
32.7202
13592.9
5457.81
3119.26
2145.35
1621.22
1296.49
1076.42
917.749
798.063
704.633
629.706
568.301
517.071
473.687
436.479
404.218
375.982
351.064
328.911
309.089
291.249
275.109
260.438
247.045
234.77
223.48
213.062
203.419
194.468
186.138
178.367
171.102
164.295
157.905
151.895
146.233
140.89
135.841
131.062
126.533
122.235
118.152
114.269
110.571
107.046
103.683
100.471
97.4015
94.4648
91.6532
88.9592
86.3762
83.8977
81.5181
79.2319
77.0342
74.9202
72.8858
70.9268
69.0395
67.2205
65.4665
63.7743
62.1412
60.5645
59.0416
57.5702
56.148
54.7729
53.4431
52.1565
50.9115
49.7065
48.5397
47.4098
46.3154
45.255
44.2275
43.2317
42.2664
41.3305
40.4231
39.5431
38.6896
37.8618
37.0589
36.28
35.5245
13593.2
5457.56
3119.05
2145.22
1621.13
1296.44
1076.38
917.723
798.046
704.622
629.701
568.298
517.07
473.688
436.48
404.221
375.985
351.067
328.914
309.093
291.253
275.114
260.443
247.05
234.775
223.485
213.067
203.423
194.472
186.143
178.372
171.106
164.299
157.909
151.899
146.237
140.894
135.845
131.066
126.537
122.239
118.156
114.272
110.574
107.049
103.686
100.474
97.4045
94.4677
91.6559
88.9619
86.3787
83.9002
81.5205
79.2342
77.0363
74.9223
72.8877
70.9287
69.0413
67.2222
65.4681
63.7759
62.1427
60.5659
59.043
57.5715
56.1492
54.7741
53.4442
52.1576
50.9126
49.7075
48.5407
47.4107
46.3163
45.2559
44.2284
43.2325
42.2671
41.3313
40.4238
39.5438
38.6903
37.8626
37.0596
36.2808
35.5252
13593.5
5457.33
3118.86
2145.1
1621.05
1296.38
1076.34
917.696
798.028
704.61
629.693
568.294
517.068
473.687
436.481
404.222
375.987
351.069
328.917
309.096
291.256
275.117
260.446
247.053
234.779
223.489
213.071
203.428
194.477
186.147
178.376
171.111
164.303
157.913
151.903
146.241
140.898
135.849
131.07
126.54
122.243
118.159
114.276
110.578
107.053
103.689
100.477
97.4074
94.4704
91.6586
88.9644
86.3812
83.9026
81.5227
79.2364
77.0384
74.9243
72.8897
70.9305
69.0431
67.2239
65.4697
63.7775
62.1442
60.5673
59.0443
57.5728
56.1505
54.7753
53.4454
52.1587
50.9136
49.7085
48.5417
47.4117
46.3172
45.2567
44.2292
43.2333
42.2679
41.332
40.4246
39.5446
38.6911
37.8634
37.0605
36.2816
35.526
13593.7
5457.13
3118.68
2144.98
1620.97
1296.33
1076.31
917.669
798.008
704.596
629.683
568.287
517.064
473.684
436.48
404.222
375.988
351.07
328.919
309.098
291.259
275.12
260.449
247.056
234.782
223.492
213.074
203.431
194.48
186.15
178.38
171.114
164.307
157.917
151.907
146.244
140.901
135.852
131.073
126.544
122.246
118.163
114.279
110.58
107.055
103.692
100.48
97.41
94.473
91.6611
88.9668
86.3835
83.9048
81.5249
79.2385
77.0405
74.9262
72.8915
70.9323
69.0448
67.2256
65.4713
63.779
62.1457
60.5688
59.0457
57.5741
56.1517
54.7765
53.4465
52.1598
50.9147
49.7095
48.5426
47.4126
46.3181
45.2576
44.2301
43.2341
42.2688
41.3328
40.4253
39.5454
38.692
37.8643
13594
5456.95
3118.52
2144.87
1620.9
1296.28
1076.27
917.641
797.988
704.581
629.672
568.279
517.058
473.681
436.477
404.221
375.988
351.071
328.92
309.099
291.261
275.122
260.451
247.059
234.785
223.495
213.077
203.434
194.483
186.153
178.383
171.117
164.31
157.92
151.91
146.248
140.905
135.855
131.076
126.547
122.249
118.165
114.282
110.583
107.058
103.695
100.483
97.4125
94.4754
91.6634
88.9691
86.3857
83.907
81.527
79.2405
77.0424
74.9281
72.8934
70.9341
69.0465
67.2272
65.4729
63.7805
62.1471
60.5702
59.047
57.5754
56.153
54.7777
53.4477
52.1609
50.9158
49.7105
48.5436
47.4136
46.319
45.2585
44.2309
43.235
42.2696
41.3337
40.4262
39.5462
38.6928
37.8652
13594.2
5456.79
3118.37
2144.77
1620.83
1296.23
1076.23
917.613
797.967
704.565
629.66
568.271
517.052
473.676
436.474
404.219
375.986
351.07
328.92
309.1
291.262
275.123
260.453
247.061
234.787
223.497
213.08
203.437
194.486
186.156
178.385
171.12
164.313
157.923
151.913
146.25
140.907
135.858
131.079
126.549
122.252
118.168
114.284
110.586
107.061
103.697
100.485
97.4149
94.4777
91.6657
88.9713
86.3878
83.909
81.529
79.2424
77.0443
74.9299
72.8951
70.9358
69.0482
67.2288
65.4744
63.782
62.1486
60.5715
59.0484
57.5767
56.1542
54.7789
53.4488
52.1621
50.9169
49.7116
48.5447
47.4146
46.32
45.2595
44.2318
43.2359
42.2705
41.3345
40.427
39.5471
38.6937
37.866
13594.3
5456.64
3118.24
2144.67
1620.76
1296.18
1076.2
917.586
797.946
704.549
629.648
568.261
517.044
473.67
436.47
404.216
375.984
351.069
328.919
309.1
291.262
275.124
260.454
247.062
234.788
223.499
213.082
203.439
194.488
186.158
178.388
171.123
164.316
157.925
151.915
146.253
140.91
135.86
131.081
126.552
122.254
118.171
114.287
110.588
107.063
103.7
100.487
97.4171
94.4799
91.6678
88.9734
86.3899
83.911
81.5309
79.2443
77.0461
74.9317
72.8968
70.9374
69.0498
67.2304
65.4759
63.7834
62.15
60.5729
59.0497
57.5779
56.1554
54.7801
53.45
52.1632
50.918
49.7126
48.5457
47.4156
46.3209
45.2604
44.2328
43.2368
42.2714
41.3354
40.4279
39.548
38.6946
37.8669
13594.5
5456.5
3118.12
2144.59
1620.7
1296.13
1076.16
917.56
797.925
704.532
629.634
568.25
517.036
473.664
436.465
404.212
375.982
351.067
328.918
309.099
291.262
275.124
260.455
247.063
234.79
223.501
213.083
203.44
194.49
186.16
178.39
171.125
164.318
157.928
151.918
146.255
140.912
135.863
131.084
126.554
122.256
118.173
114.289
110.59
107.065
103.702
100.49
97.4192
94.482
91.6698
88.9754
86.3918
83.9129
81.5328
79.2461
77.0478
74.9334
72.8985
70.939
69.0513
67.2319
65.4774
63.7849
62.1514
60.5742
59.051
57.5792
56.1567
54.7813
53.4512
52.1643
50.9191
49.7137
48.5467
47.4166
46.3219
45.2614
44.2337
43.2377
42.2723
41.3363
40.4288
39.5489
38.6955
37.8678
13594.6
5456.37
3118.01
2144.5
1620.64
1296.09
1076.13
917.534
797.904
704.516
629.621
568.24
517.027
473.657
436.46
404.208
375.978
351.065
328.916
309.098
291.261
275.124
260.455
247.064
234.79
223.502
213.084
203.442
194.492
186.162
178.392
171.127
164.32
157.93
151.92
146.258
140.915
135.865
131.086
126.557
122.259
118.175
114.291
110.593
107.067
103.704
100.492
97.4212
94.4839
91.6718
88.9773
86.3937
83.9147
81.5345
79.2478
77.0495
74.9351
72.9001
70.9406
69.0529
67.2334
65.4789
63.7863
62.1527
60.5756
59.0523
57.5805
56.1579
54.7825
53.4523
52.1655
50.9202
49.7148
48.5478
47.4176
46.3229
45.2624
44.2347
43.2387
42.2732
41.3373
40.4298
39.5498
38.6964
37.8686
13594.8
5456.25
3117.9
2144.43
1620.59
1296.05
1076.1
917.51
797.884
704.499
629.607
568.228
517.018
473.65
436.454
404.203
375.975
351.062
328.914
309.096
291.26
275.123
260.455
247.064
234.791
223.503
213.085
203.443
194.493
186.164
178.393
171.128
164.322
157.931
151.922
146.26
140.917
135.867
131.088
126.559
122.261
118.177
114.293
110.595
107.069
103.706
100.494
97.4231
94.4858
91.6736
88.9791
86.3955
83.9165
81.5363
79.2495
77.0512
74.9367
72.9017
70.9422
69.0544
67.2348
65.4803
63.7877
62.1541
60.5769
59.0536
57.5817
56.1591
54.7837
53.4535
52.1666
50.9213
49.7159
48.5488
47.4187
46.324
45.2634
44.2357
43.2397
42.2742
41.3382
40.4307
39.5507
38.6973
37.8695
13594.9
5456.14
3117.81
2144.35
1620.54
1296.01
1076.07
917.486
797.865
704.483
629.594
568.217
517.009
473.642
436.447
404.198
375.97
351.059
328.912
309.095
291.259
275.123
260.455
247.064
234.791
223.503
213.086
203.444
194.494
186.165
178.395
171.13
164.323
157.933
151.923
146.261
140.918
135.869
131.09
126.56
122.263
118.179
114.295
110.597
107.071
103.708
100.495
97.425
94.4877
91.6754
88.9809
86.3972
83.9182
81.5379
79.2512
77.0528
74.9383
72.9032
70.9437
69.0559
67.2363
65.4817
63.7891
62.1555
60.5782
59.0549
57.583
56.1604
54.7849
53.4547
52.1678
50.9224
49.717
48.5499
47.4197
46.325
45.2644
44.2367
43.2407
42.2752
41.3392
40.4317
39.5517
38.6982
37.8704
13595
5456.04
3117.72
2144.29
1620.49
1295.98
1076.04
917.464
797.847
704.468
629.581
568.206
516.999
473.634
436.441
404.192
375.966
351.055
328.909
309.092
291.257
275.121
260.454
247.063
234.791
223.503
213.087
203.445
194.495
186.166
178.396
171.131
164.325
157.935
151.925
146.263
140.92
135.871
131.092
126.562
122.264
118.181
114.297
110.598
107.073
103.709
100.497
97.4267
94.4894
91.6771
88.9826
86.3989
83.9198
81.5396
79.2528
77.0544
74.9398
72.9047
70.9452
69.0573
67.2377
65.4831
63.7904
62.1568
60.5795
59.0562
57.5843
56.1616
54.7861
53.4559
52.1689
50.9236
49.7181
48.551
47.4208
46.3261
45.2655
44.2377
43.2417
42.2762
41.3402
40.4327
39.5527
38.6992
37.8713
13595.1
5455.94
3117.64
2144.22
1620.44
1295.94
1076.01
917.442
797.829
704.453
629.568
568.195
516.99
473.626
436.434
404.186
375.961
351.051
328.905
309.09
291.255
275.12
260.453
247.063
234.791
223.503
213.087
203.445
194.496
186.167
178.397
171.132
164.326
157.936
151.926
146.264
140.922
135.872
131.093
126.564
122.266
118.183
114.299
110.6
107.075
103.711
100.499
97.4285
94.4911
91.6788
88.9842
86.4005
83.9214
81.5412
79.2543
77.0559
74.9413
72.9062
70.9466
69.0588
67.2391
65.4845
63.7918
62.1581
60.5809
59.0574
57.5855
56.1629
54.7874
53.4571
52.1701
50.9247
49.7193
48.5522
47.4219
46.3272
45.2665
44.2388
43.2428
42.2773
41.3413
40.4337
39.5537
38.7001
37.8722
13595.2
5455.85
3117.56
2144.16
1620.4
1295.91
1075.99
917.422
797.812
704.438
629.555
568.184
516.98
473.617
436.427
404.18
375.956
351.046
328.902
309.087
291.253
275.118
260.451
247.062
234.79
223.503
213.087
203.446
194.496
186.168
178.398
171.133
164.327
157.937
151.928
146.266
140.923
135.874
131.095
126.566
122.268
118.184
114.3
110.602
107.076
103.713
100.501
97.4301
94.4927
91.6804
88.9858
86.4021
83.923
81.5427
79.2559
77.0575
74.9428
72.9077
70.9481
69.0602
67.2405
65.4859
63.7931
62.1595
60.5822
59.0587
57.5868
56.1641
54.7886
53.4583
52.1713
50.9259
49.7204
48.5533
47.4231
46.3283
45.2677
44.2399
43.2439
42.2784
41.3423
40.4348
39.5547
38.7011
37.8732
13595.3
5455.76
3117.48
2144.11
1620.35
1295.88
1075.97
917.403
797.796
704.424
629.543
568.173
516.971
473.609
436.419
404.174
375.95
351.042
328.898
309.084
291.25
275.116
260.45
247.061
234.79
223.503
213.087
203.446
194.497
186.168
178.399
171.134
164.328
157.938
151.929
146.267
140.925
135.875
131.096
126.567
122.269
118.186
114.302
110.603
107.078
103.714
100.502
97.4317
94.4944
91.682
88.9874
86.4037
83.9246
81.5443
79.2574
77.059
74.9443
72.9092
70.9495
69.0616
67.2419
65.4873
63.7945
62.1608
60.5835
59.06
57.5881
56.1654
54.7898
53.4595
52.1725
50.9271
49.7216
48.5545
47.4242
46.3294
45.2688
44.241
43.245
42.2794
41.3434
40.4358
39.5557
38.7021
37.8742
13595.4
5455.68
3117.42
2144.05
1620.32
1295.85
1075.94
917.384
797.78
704.411
629.532
568.163
516.962
473.601
436.412
404.168
375.945
351.037
328.894
309.08
291.248
275.114
260.448
247.059
234.789
223.502
213.087
203.446
194.497
186.169
178.399
171.135
164.329
157.939
151.93
146.268
140.926
135.877
131.098
126.569
122.271
118.187
114.303
110.605
107.08
103.716
100.504
97.4333
94.4959
91.6836
88.989
86.4053
83.9261
81.5458
79.2589
77.0604
74.9458
72.9106
70.951
69.063
67.2433
65.4886
63.7959
62.1621
60.5848
59.0613
57.5893
56.1666
54.7911
53.4607
52.1737
50.9283
49.7228
48.5556
47.4254
46.3306
45.2699
44.2422
43.2461
42.2806
41.3445
40.4369
39.5568
38.7031
37.8752
13595.5
5455.6
3117.35
2144
1620.28
1295.82
1075.92
917.366
797.766
704.398
629.52
568.153
516.953
473.593
436.405
404.162
375.94
351.033
328.89
309.077
291.245
275.111
260.446
247.058
234.787
223.501
213.086
203.445
194.497
186.169
178.4
171.136
164.33
157.94
151.931
146.27
140.927
135.878
131.099
126.57
122.272
118.189
114.305
110.606
107.081
103.718
100.505
97.4349
94.4975
91.6852
88.9905
86.4068
83.9276
81.5473
79.2604
77.0619
74.9473
72.9121
70.9524
69.0644
67.2447
65.49
63.7972
62.1635
60.5861
59.0626
57.5906
56.1679
54.7923
53.462
52.175
50.9295
49.724
48.5569
47.4266
46.3318
45.2711
44.2433
43.2472
42.2817
41.3456
40.438
39.5578
38.7042
37.8762
13595.6
5455.52
3117.29
2143.95
1620.24
1295.79
1075.9
917.35
797.752
704.386
629.51
568.143
516.944
473.585
436.398
404.155
375.934
351.028
328.886
309.073
291.242
275.109
260.444
247.056
234.786
223.5
213.085
203.445
194.497
186.169
178.4
171.136
164.33
157.941
151.932
146.271
140.928
135.879
131.1
126.571
122.274
118.19
114.306
110.608
107.083
103.719
100.507
97.4364
94.499
91.6867
88.9921
86.4083
83.9292
81.5488
79.2619
77.0634
74.9487
72.9135
70.9538
69.0659
67.2461
65.4914
63.7986
62.1648
60.5875
59.064
57.5919
56.1692
54.7936
53.4632
52.1762
50.9308
49.7252
48.5581
47.4278
46.333
45.2723
44.2445
43.2484
42.2829
41.3468
40.4391
39.5589
38.7053
37.8773
13595.7
5455.45
3117.23
2143.91
1620.21
1295.77
1075.88
917.334
797.738
704.375
629.5
568.134
516.936
473.578
436.391
404.149
375.929
351.023
328.881
309.069
291.238
275.106
260.442
247.054
234.785
223.499
213.085
203.445
194.497
186.169
178.4
171.137
164.331
157.942
151.933
146.272
140.929
135.88
131.101
126.573
122.275
118.192
114.308
110.609
107.084
103.721
100.508
97.4379
94.5005
91.6882
88.9936
86.4098
83.9307
81.5503
79.2634
77.0649
74.9502
72.915
70.9553
69.0673
67.2475
65.4928
63.8
62.1662
60.5888
59.0653
57.5933
56.1705
54.7949
53.4645
52.1775
50.932
49.7265
48.5593
47.429
46.3342
45.2735
44.2457
43.2496
42.284
41.3479
40.4403
39.5601
38.7064
37.8784
13595.7
5455.39
3117.17
2143.86
1620.17
1295.74
1075.86
917.318
797.725
704.364
629.49
568.126
516.928
473.571
436.385
404.143
375.923
351.018
328.877
309.066
291.235
275.103
260.44
247.053
234.783
223.498
213.084
203.444
194.496
186.169
178.4
171.137
164.332
157.943
151.934
146.272
140.93
135.881
131.103
126.574
122.276
118.193
114.309
110.611
107.086
103.722
100.51
97.4394
94.502
91.6897
88.9951
86.4113
83.9322
81.5518
79.2649
77.0664
74.9516
72.9164
70.9567
69.0687
67.249
65.4942
63.8014
62.1676
60.5902
59.0666
57.5946
56.1718
54.7962
53.4658
52.1788
50.9333
49.7278
48.5606
47.4303
46.3355
45.2748
44.247
43.2508
42.2853
41.3491
40.4415
39.5613
38.7077
13595.8
5455.32
3117.12
2143.82
1620.14
1295.72
1075.84
917.303
797.713
704.353
629.481
568.117
516.921
473.564
436.378
404.137
375.918
351.013
328.873
309.062
291.232
275.101
260.437
247.05
234.782
223.497
213.083
203.443
194.496
186.169
178.401
171.137
164.332
157.943
151.934
146.273
140.931
135.882
131.104
126.575
122.277
118.194
114.31
110.612
107.087
103.723
100.511
97.4408
94.5035
91.6912
88.9966
86.4128
83.9336
81.5533
79.2663
77.0678
74.9531
72.9179
70.9581
69.0701
67.2504
65.4956
63.8028
62.169
60.5916
59.068
57.596
56.1732
54.7976
53.4672
52.1801
50.9346
49.7291
48.5619
47.4316
46.3367
45.276
44.2482
43.2521
42.2865
41.3504
40.4427
39.5625
38.7089
13595.9
5455.27
3117.07
2143.78
1620.11
1295.69
1075.82
917.289
797.701
704.343
629.472
568.109
516.913
473.557
436.372
404.132
375.913
351.008
328.869
309.058
291.228
275.098
260.435
247.048
234.78
223.495
213.082
203.443
194.495
186.169
178.401
171.137
164.332
157.944
151.935
146.274
140.932
135.883
131.105
126.576
122.279
118.196
114.312
110.613
107.088
103.725
100.513
97.4423
94.505
91.6927
88.998
86.4143
83.9351
81.5548
79.2678
77.0693
74.9546
72.9194
70.9596
69.0716
67.2518
65.497
63.8042
62.1704
60.593
59.0694
57.5973
56.1745
54.7989
53.4685
52.1814
50.936
49.7304
48.5632
47.4329
46.338
45.2773
44.2495
43.2534
42.2878
41.3517
40.444
39.5637
38.7101
13596
5455.21
3117.02
2143.74
1620.08
1295.67
1075.8
917.275
797.69
704.334
629.463
568.102
516.906
473.551
436.366
404.126
375.908
351.004
328.864
309.054
291.225
275.095
260.432
247.046
234.778
223.494
213.081
203.442
194.495
186.168
178.4
171.138
164.333
157.944
151.936
146.275
140.933
135.884
131.106
126.577
122.28
118.197
114.313
110.615
107.09
103.726
100.514
97.4437
94.5064
91.6941
88.9995
86.4158
83.9366
81.5563
79.2693
77.0708
74.9561
72.9208
70.9611
69.073
67.2533
65.4985
63.8056
62.1718
60.5944
59.0708
57.5987
56.1759
54.8003
53.4699
52.1828
50.9373
49.7318
48.5646
47.4342
46.3394
45.2787
44.2508
43.2547
42.2891
41.3529
40.4452
39.565
38.7113
13596.1
5455.16
3116.97
2143.7
1620.05
1295.65
1075.79
917.261
797.679
704.324
629.455
568.095
516.9
473.544
436.361
404.121
375.903
350.999
328.86
309.051
291.222
275.092
260.429
247.044
234.776
223.492
213.079
203.441
194.494
186.168
178.4
171.138
164.333
157.944
151.936
146.275
140.934
135.885
131.107
126.578
122.281
118.198
114.314
110.616
107.091
103.728
100.516
97.4452
94.5079
91.6956
89.001
86.4173
83.9381
81.5577
79.2708
77.0723
74.9575
72.9223
70.9625
69.0745
67.2547
65.4999
63.807
62.1732
60.5958
59.0722
57.6001
56.1773
54.8017
53.4713
52.1842
50.9387
49.7331
48.5659
47.4356
46.3407
45.28
44.2522
43.256
42.2904
41.3542
40.4465
39.5662
38.7125
13596.2
5455.11
3116.93
2143.66
1620.02
1295.62
1075.77
917.248
797.668
704.316
629.448
568.088
516.893
473.539
436.355
404.116
375.898
350.995
328.856
309.047
291.218
275.089
260.427
247.042
234.774
223.491
213.078
203.44
194.493
186.167
178.4
171.137
164.333
157.945
151.937
146.276
140.934
135.886
131.108
126.579
122.282
118.199
114.315
110.617
107.092
103.729
100.517
97.4466
94.5093
91.6971
89.0025
86.4187
83.9396
81.5592
79.2723
77.0738
74.959
72.9238
70.964
69.076
67.2562
65.5014
63.8085
62.1747
60.5972
59.0737
57.6016
56.1788
54.8031
53.4727
52.1856
50.9401
49.7345
48.5673
47.437
46.3421
45.2814
44.2535
43.2573
42.2917
41.3555
40.4478
39.5675
38.7137
13596.3
5455.06
3116.89
2143.63
1619.99
1295.6
1075.75
917.235
797.658
704.307
629.44
568.081
516.887
473.533
436.35
404.111
375.893
350.991
328.852
309.043
291.215
275.086
260.424
247.039
234.772
223.489
213.077
203.439
194.492
186.167
178.399
171.137
164.333
157.945
151.937
146.277
140.935
135.887
131.109
126.58
122.283
118.2
114.317
110.619
107.094
103.73
100.518
97.448
94.5107
91.6985
89.0039
86.4202
83.9411
81.5607
79.2738
77.0753
74.9605
72.9253
70.9655
69.0775
67.2577
65.5029
63.81
62.1761
60.5987
59.0751
57.603
56.1802
54.8046
53.4741
52.187
50.9415
49.7359
48.5687
47.4384
46.3435
45.2828
44.2549
43.2587
42.2931
41.3569
40.4491
39.5688
38.7149
13596.3
5455.02
3116.85
2143.59
1619.96
1295.58
1075.74
917.222
797.647
704.298
629.433
568.075
516.882
473.528
436.345
404.106
375.889
350.987
328.849
309.04
291.212
275.083
260.422
247.037
234.77
223.487
213.075
203.438
194.492
186.166
178.399