/*--------------------------------*- C++ -*----------------------------------*\
  =========                 |
  \\      /  F ield         | OpenFOAM: The Open Source CFD Toolbox
   \\    /   O peration     | Website:  https://openfoam.org
    \\  /    A nd           | Version:  10
     \\/     M anipulation  |
\*---------------------------------------------------------------------------*/
FoamFile
{
    format      ascii;
    class       volScalarField;
    location    "18000";
    object      p;
}
// * * * * * * * * * * * * * * * * * * * * * * * * * * * * * * * * * * * * * //

dimensions      [0 2 -2 0 0 0 0];

internalField   nonuniform List<scalar> 
17808
(
16.7772
16.7975
16.8073
16.8085
16.8071
16.8029
16.7966
16.7886
16.7791
16.7685
16.7568
16.7441
16.7305
16.7161
16.701
16.6851
16.6685
16.6511
16.6331
16.6144
16.5951
16.5751
16.5544
16.533
16.511
16.4883
16.465
16.4409
16.4162
16.3908
16.3647
16.3379
16.3104
16.2821
16.2532
16.2234
16.193
16.1618
16.1298
16.097
16.0634
16.029
15.9938
15.9578
15.9209
15.8832
15.8446
15.8051
15.7647
15.7234
15.6811
15.6379
15.5938
15.5487
15.5025
15.4554
15.4073
15.3581
15.3078
15.2565
15.2041
15.1505
15.0959
15.04
14.983
14.9249
14.8655
14.8049
14.743
14.6799
14.6155
14.5497
14.4827
14.4143
14.3445
14.2733
14.2007
14.1267
14.0512
13.9743
13.8958
13.8158
13.7342
13.6511
13.5663
13.48
13.3919
13.3022
13.2109
13.1177
13.0229
12.9263
16.8394
16.8388
16.8305
16.823
16.8161
16.8082
16.7995
16.7899
16.7795
16.7681
16.756
16.743
16.7293
16.7148
16.6995
16.6836
16.667
16.6497
16.6317
16.613
16.5937
16.5737
16.5531
16.5317
16.5098
16.4871
16.4638
16.4398
16.4151
16.3897
16.3637
16.3369
16.3094
16.2812
16.2523
16.2226
16.1922
16.161
16.129
16.0962
16.0627
16.0283
15.9932
15.9571
15.9203
15.8826
15.844
15.8045
15.7641
15.7228
15.6806
15.6374
15.5933
15.5482
15.5021
15.455
15.4069
15.3577
15.3074
15.2561
15.2037
15.1502
15.0955
15.0397
14.9827
14.9245
14.8652
14.8046
14.7427
14.6796
14.6152
14.5494
14.4824
14.414
14.3442
14.2731
14.2005
14.1264
14.051
13.974
13.8955
13.8155
13.7339
13.6508
13.5661
13.4797
13.3917
13.302
13.2106
13.1175
13.0226
12.926
16.8667
16.8607
16.8499
16.8405
16.8305
16.8197
16.8085
16.7969
16.7848
16.7721
16.7589
16.7451
16.7307
16.7157
16.7001
16.6838
16.667
16.6495
16.6313
16.6126
16.5932
16.5731
16.5524
16.5311
16.5091
16.4864
16.4631
16.4391
16.4144
16.3891
16.363
16.3362
16.3088
16.2806
16.2516
16.222
16.1916
16.1604
16.1284
16.0957
16.0621
16.0278
15.9926
15.9566
15.9198
15.8821
15.8435
15.8041
15.7637
15.7224
15.6802
15.637
15.5929
15.5478
15.5017
15.4546
15.4065
15.3573
15.3071
15.2558
15.2034
15.1498
15.0952
15.0394
14.9824
14.9242
14.8649
14.8042
14.7424
14.6793
14.6149
14.5492
14.4821
14.4137
14.3439
14.2728
14.2002
14.1262
14.0507
13.9737
13.8952
13.8152
13.7337
13.6505
13.5658
13.4794
13.3914
13.3017
13.2103
13.1172
13.0223
12.9257
16.8669
16.8607
16.8521
16.8438
16.8341
16.8235
16.8123
16.8005
16.788
16.775
16.7613
16.7472
16.7324
16.7171
16.7011
16.6846
16.6676
16.6499
16.6316
16.6127
16.5932
16.573
16.5522
16.5308
16.5088
16.4861
16.4627
16.4387
16.414
16.3886
16.3625
16.3357
16.3083
16.2801
16.2511
16.2215
16.1911
16.1599
16.1279
16.0952
16.0617
16.0273
15.9922
15.9562
15.9193
15.8817
15.8431
15.8036
15.7633
15.722
15.6798
15.6366
15.5925
15.5474
15.5013
15.4543
15.4061
15.357
15.3067
15.2554
15.203
15.1495
15.0949
15.0391
14.9821
14.9239
14.8645
14.8039
14.7421
14.679
14.6146
14.5489
14.4818
14.4134
14.3437
14.2725
14.1999
14.1259
14.0504
13.9734
13.8949
13.8149
13.7334
13.6502
13.5655
13.4791
13.3911
13.3014
13.21
13.1169
13.022
12.9254
16.8677
16.861
16.8531
16.8447
16.835
16.8246
16.8136
16.8018
16.7893
16.7763
16.7626
16.7483
16.7334
16.718
16.7019
16.6853
16.6681
16.6503
16.6319
16.6129
16.5932
16.573
16.5522
16.5307
16.5086
16.4858
16.4624
16.4384
16.4136
16.3882
16.3621
16.3353
16.3078
16.2796
16.2507
16.221
16.1906
16.1594
16.1275
16.0947
16.0612
16.0269
15.9917
15.9558
15.9189
15.8812
15.8427
15.8032
15.7629
15.7216
15.6794
15.6363
15.5922
15.5471
15.501
15.4539
15.4058
15.3566
15.3064
15.2551
15.2027
15.1492
15.0945
15.0387
14.9818
14.9236
14.8643
14.8037
14.7418
14.6787
14.6143
14.5486
14.4815
14.4132
14.3434
14.2722
14.1996
14.1256
14.0501
13.9732
13.8947
13.8147
13.7331
13.65
13.5652
13.4789
13.3908
13.3012
13.2098
13.1166
13.0218
12.9251
16.8712
16.8641
16.8562
16.8474
16.8375
16.8269
16.8156
16.8036
16.791
16.7778
16.7639
16.7495
16.7345
16.7189
16.7027
16.686
16.6687
16.6508
16.6322
16.6131
16.5934
16.5731
16.5522
16.5307
16.5085
16.4857
16.4623
16.4382
16.4134
16.388
16.3618
16.335
16.3075
16.2793
16.2503
16.2207
16.1902
16.159
16.1271
16.0944
16.0608
16.0265
15.9914
15.9554
15.9185
15.8809
15.8423
15.8029
15.7625
15.7212
15.6791
15.6359
15.5918
15.5467
15.5007
15.4536
15.4055
15.3563
15.3061
15.2548
15.2024
15.1489
15.0942
15.0385
14.9815
14.9233
14.864
14.8034
14.7415
14.6784
14.614
14.5483
14.4813
14.4129
14.3431
14.272
14.1994
14.1254
14.0499
13.9729
13.8944
13.8144
13.7329
13.6497
13.565
13.4786
13.3906
13.3009
13.2095
13.1164
13.0215
12.9249
16.8738
16.8663
16.8586
16.8497
16.8397
16.829
16.8175
16.8054
16.7927
16.7793
16.7653
16.7508
16.7356
16.7199
16.7036
16.6868
16.6693
16.6513
16.6327
16.6135
16.5938
16.5734
16.5524
16.5308
16.5086
16.4857
16.4622
16.4381
16.4133
16.3878
16.3616
16.3348
16.3073
16.279
16.2501
16.2204
16.1899
16.1587
16.1268
16.094
16.0605
16.0262
15.991
15.955
15.9182
15.8805
15.842
15.8025
15.7622
15.7209
15.6787
15.6356
15.5915
15.5464
15.5003
15.4533
15.4052
15.356
15.3058
15.2545
15.2021
15.1486
15.094
15.0382
14.9812
14.9231
14.8637
14.8031
14.7413
14.6782
14.6138
14.5481
14.481
14.4126
14.3429
14.2717
14.1991
14.1251
14.0496
13.9727
13.8942
13.8142
13.7326
13.6495
13.5647
13.4784
13.3904
13.3007
13.2093
13.1162
13.0213
12.9246
16.8751
16.8675
16.86
16.851
16.841
16.8303
16.8188
16.8066
16.7938
16.7804
16.7664
16.7517
16.7365
16.7207
16.7044
16.6875
16.67
16.6519
16.6332
16.614
16.5941
16.5737
16.5526
16.531
16.5087
16.4858
16.4622
16.4381
16.4132
16.3877
16.3615
16.3347
16.3071
16.2788
16.2498
16.2201
16.1897
16.1585
16.1265
16.0937
16.0602
16.0259
15.9907
15.9547
15.9179
15.8802
15.8416
15.8022
15.7619
15.7206
15.6784
15.6353
15.5912
15.5461
15.5
15.453
15.4049
15.3557
15.3055
15.2542
15.2018
15.1483
15.0937
15.0379
14.981
14.9228
14.8634
14.8029
14.741
14.6779
14.6135
14.5478
14.4808
14.4124
14.3426
14.2715
14.1989
14.1249
14.0494
13.9724
13.894
13.814
13.7324
13.6493
13.5645
13.4781
13.3901
13.3004
13.209
13.1159
13.0211
12.9244
16.8762
16.8684
16.861
16.8519
16.842
16.8312
16.8197
16.8075
16.7947
16.7812
16.7672
16.7525
16.7373
16.7214
16.705
16.688
16.6705
16.6524
16.6336
16.6143
16.5944
16.574
16.5529
16.5312
16.5088
16.4859
16.4623
16.4381
16.4132
16.3877
16.3615
16.3346
16.307
16.2787
16.2497
16.22
16.1895
16.1583
16.1263
16.0935
16.06
16.0256
15.9905
15.9545
15.9176
15.8799
15.8414
15.8019
15.7616
15.7203
15.6781
15.635
15.5909
15.5458
15.4998
15.4527
15.4046
15.3554
15.3052
15.2539
15.2016
15.1481
15.0934
15.0377
14.9807
14.9226
14.8632
14.8026
14.7408
14.6777
14.6133
14.5476
14.4806
14.4122
14.3424
14.2713
14.1987
14.1247
14.0492
13.9722
13.8937
13.8137
13.7322
13.649
13.5643
13.4779
13.3899
13.3002
13.2088
13.1157
13.0208
12.9242
16.8772
16.8693
16.8619
16.8528
16.8428
16.8321
16.8205
16.8083
16.7955
16.782
16.7679
16.7532
16.7379
16.722
16.7056
16.6886
16.671
16.6528
16.634
16.6147
16.5948
16.5742
16.5531
16.5314
16.509
16.486
16.4624
16.4382
16.4133
16.3877
16.3615
16.3345
16.3069
16.2786
16.2496
16.2198
16.1893
16.1581
16.1261
16.0933
16.0598
16.0254
15.9902
15.9542
15.9174
15.8797
15.8411
15.8017
15.7613
15.7201
15.6779
15.6347
15.5906
15.5456
15.4995
15.4524
15.4043
15.3552
15.305
15.2537
15.2013
15.1478
15.0932
15.0374
14.9805
14.9223
14.863
14.8024
14.7406
14.6775
14.6131
14.5474
14.4803
14.412
14.3422
14.271
14.1985
14.1245
14.049
13.972
13.8935
13.8135
13.732
13.6488
13.5641
13.4777
13.3897
13.3
13.2086
13.1155
13.0206
12.924
16.8779
16.87
16.8627
16.8535
16.8436
16.8328
16.8212
16.809
16.7961
16.7826
16.7685
16.7538
16.7384
16.7226
16.7061
16.689
16.6714
16.6532
16.6344
16.615
16.5951
16.5745
16.5534
16.5316
16.5092
16.4862
16.4625
16.4383
16.4133
16.3877
16.3615
16.3345
16.3069
16.2786
16.2495
16.2197
16.1892
16.158
16.126
16.0932
16.0596
16.0252
15.99
15.954
15.9172
15.8795
15.8409
15.8015
15.7611
15.7198
15.6776
15.6345
15.5904
15.5453
15.4993
15.4522
15.4041
15.355
15.3048
15.2535
15.2011
15.1476
15.093
15.0372
14.9802
14.9221
14.8627
14.8022
14.7403
14.6772
14.6129
14.5472
14.4801
14.4117
14.342
14.2708
14.1983
14.1243
14.0488
13.9718
13.8933
13.8133
13.7318
13.6486
13.5639
13.4775
13.3895
13.2998
13.2084
13.1153
13.0205
12.9238
16.8785
16.8706
16.8633
16.8541
16.8441
16.8333
16.8218
16.8095
16.7966
16.7831
16.769
16.7542
16.7389
16.723
16.7065
16.6894
16.6718
16.6536
16.6347
16.6153
16.5954
16.5748
16.5536
16.5318
16.5094
16.4863
16.4627
16.4384
16.4134
16.3878
16.3615
16.3345
16.3069
16.2785
16.2495
16.2197
16.1892
16.1579
16.1259
16.0931
16.0595
16.0251
15.9899
15.9539
15.917
15.8793
15.8407
15.8013
15.7609
15.7196
15.6774
15.6343
15.5902
15.5451
15.4991
15.452
15.4039
15.3547
15.3045
15.2533
15.2009
15.1474
15.0928
15.037
14.98
14.9219
14.8625
14.802
14.7401
14.677
14.6127
14.547
14.4799
14.4116
14.3418
14.2706
14.1981
14.1241
14.0486
13.9716
13.8932
13.8132
13.7316
13.6485
13.5637
13.4774
13.3893
13.2997
13.2083
13.1151
13.0203
12.9236
16.879
16.871
16.8638
16.8546
16.8446
16.8338
16.8222
16.81
16.7971
16.7835
16.7694
16.7546
16.7393
16.7234
16.7069
16.6898
16.6721
16.6539
16.635
16.6156
16.5956
16.575
16.5538
16.532
16.5095
16.4865
16.4628
16.4385
16.4135
16.3879
16.3616
16.3346
16.3069
16.2785
16.2494
16.2196
16.1891
16.1578
16.1258
16.093
16.0594
16.025
15.9898
15.9537
15.9169
15.8792
15.8406
15.8011
15.7607
15.7195
15.6773
15.6341
15.59
15.5449
15.4989
15.4518
15.4037
15.3545
15.3043
15.2531
15.2007
15.1472
15.0926
15.0368
14.9798
14.9217
14.8623
14.8018
14.7399
14.6769
14.6125
14.5468
14.4798
14.4114
14.3416
14.2705
14.1979
14.1239
14.0484
13.9715
13.893
13.813
13.7314
13.6483
13.5636
13.4772
13.3892
13.2995
13.2081
13.115
13.0201
12.9235
16.8795
16.8714
16.8642
16.855
16.845
16.8342
16.8226
16.8103
16.7974
16.7839
16.7697
16.755
16.7396
16.7237
16.7072
16.6901
16.6724
16.6541
16.6353
16.6158
16.5958
16.5752
16.554
16.5321
16.5097
16.4866
16.4629
16.4386
16.4136
16.3879
16.3616
16.3346
16.3069
16.2785
16.2494
16.2196
16.1891
16.1578
16.1257
16.0929
16.0593
16.0249
15.9897
15.9536
15.9168
15.879
15.8404
15.801
15.7606
15.7193
15.6771
15.634
15.5899
15.5448
15.4987
15.4516
15.4035
15.3544
15.3042
15.2529
15.2005
15.147
15.0924
15.0366
14.9797
14.9215
14.8622
14.8016
14.7398
14.6767
14.6123
14.5466
14.4796
14.4112
14.3414
14.2703
14.1977
14.1237
14.0482
13.9713
13.8928
13.8128
13.7313
13.6481
13.5634
13.477
13.389
13.2993
13.2079
13.1148
13.02
12.9233
16.8798
16.8718
16.8645
16.8553
16.8453
16.8345
16.8229
16.8107
16.7978
16.7842
16.77
16.7553
16.7399
16.724
16.7074
16.6903
16.6726
16.6544
16.6355
16.6161
16.596
16.5754
16.5542
16.5323
16.5098
16.4868
16.463
16.4387
16.4137
16.388
16.3617
16.3347
16.307
16.2786
16.2495
16.2196
16.1891
16.1578
16.1257
16.0929
16.0592
16.0248
15.9896
15.9535
15.9167
15.8789
15.8403
15.8008
15.7605
15.7192
15.677
15.6338
15.5897
15.5446
15.4985
15.4515
15.4034
15.3542
15.304
15.2527
15.2003
15.1468
15.0922
15.0364
14.9795
14.9214
14.862
14.8014
14.7396
14.6765
14.6121
14.5464
14.4794
14.411
14.3413
14.2701
14.1976
14.1236
14.0481
13.9711
13.8927
13.8127
13.7311
13.648
13.5633
13.4769
13.3889
13.2992
13.2078
13.1147
13.0198
12.9232
16.8801
16.8721
16.8648
16.8556
16.8456
16.8348
16.8232
16.8109
16.798
16.7845
16.7703
16.7555
16.7401
16.7242
16.7077
16.6905
16.6728
16.6546
16.6357
16.6162
16.5962
16.5756
16.5543
16.5325
16.51
16.4869
16.4632
16.4388
16.4138
16.3881
16.3617
16.3347
16.307
16.2786
16.2495
16.2196
16.1891
16.1577
16.1257
16.0928
16.0592
16.0248
15.9895
15.9535
15.9166
15.8788
15.8402
15.8008
15.7604
15.7191
15.6769
15.6337
15.5896
15.5445
15.4984
15.4513
15.4032
15.3541
15.3039
15.2526
15.2002
15.1467
15.0921
15.0363
14.9793
14.9212
14.8619
14.8013
14.7395
14.6764
14.612
14.5463
14.4793
14.4109
14.3411
14.27
14.1974
14.1234
14.048
13.971
13.8925
13.8125
13.731
13.6479
13.5631
13.4768
13.3888
13.2991
13.2077
13.1146
13.0197
12.923
16.8804
16.8723
16.865
16.8558
16.8458
16.835
16.8234
16.8112
16.7982
16.7847
16.7705
16.7557
16.7404
16.7244
16.7079
16.6907
16.673
16.6547
16.6359
16.6164
16.5964
16.5757
16.5545
16.5326
16.5101
16.487
16.4633
16.4389
16.4138
16.3882
16.3618
16.3348
16.3071
16.2786
16.2495
16.2197
16.1891
16.1577
16.1257
16.0928
16.0592
16.0247
15.9895
15.9534
15.9165
15.8788
15.8402
15.8007
15.7603
15.719
15.6768
15.6336
15.5895
15.5444
15.4983
15.4512
15.4031
15.3539
15.3037
15.2524
15.2001
15.1466
15.0919
15.0362
14.9792
14.9211
14.8617
14.8012
14.7393
14.6762
14.6119
14.5462
14.4791
14.4108
14.341
14.2699
14.1973
14.1233
14.0478
13.9709
13.8924
13.8124
13.7309
13.6477
13.563
13.4766
13.3886
13.2989
16.8806
16.8725
16.8652
16.856
16.846
16.8352
16.8236
16.8114
16.7984
16.7849
16.7707
16.7559
16.7405
16.7246
16.708
16.6909
16.6732
16.6549
16.636
16.6166
16.5965
16.5758
16.5546
16.5327
16.5102
16.4871
16.4634
16.439
16.4139
16.3882
16.3619
16.3348
16.3071
16.2787
16.2495
16.2197
16.1891
16.1577
16.1257
16.0928
16.0591
16.0247
15.9895
15.9534
15.9165
15.8787
15.8401
15.8006
15.7602
15.7189
15.6767
15.6335
15.5894
15.5443
15.4982
15.4511
15.403
15.3538
15.3036
15.2523
15.1999
15.1464
15.0918
15.036
14.9791
14.921
14.8616
14.801
14.7392
14.6761
14.6117
14.546
14.479
14.4106
14.3409
14.2698
14.1972
14.1232
14.0477
13.9708
13.8923
13.8123
13.7308
13.6476
13.5629
13.4765
13.3885
13.2988
16.8808
16.8727
16.8654
16.8562
16.8462
16.8354
16.8238
16.8116
16.7986
16.7851
16.7709
16.7561
16.7407
16.7247
16.7082
16.6911
16.6733
16.6551
16.6362
16.6167
16.5966
16.576
16.5547
16.5328
16.5103
16.4872
16.4634
16.4391
16.414
16.3883
16.3619
16.3349
16.3072
16.2787
16.2496
16.2197
16.1891
16.1578
16.1257
16.0928
16.0591
16.0247
15.9894
15.9534
15.9165
15.8787
15.8401
15.8006
15.7602
15.7189
15.6766
15.6334
15.5893
15.5442
15.4981
15.451
15.4029
15.3538
15.3035
15.2522
15.1999
15.1463
15.0917
15.0359
14.979
14.9208
14.8615
14.8009
14.7391
14.676
14.6116
14.5459
14.4789
14.4105
14.3408
14.2696
14.1971
14.1231
14.0476
13.9707
13.8922
13.8122
13.7307
13.6475
13.5628
13.4764
13.3884
13.2987
16.8809
16.8729
16.8656
16.8564
16.8464
16.8356
16.824
16.8117
16.7988
16.7852
16.771
16.7562
16.7409
16.7249
16.7083
16.6912
16.6735
16.6552
16.6363
16.6168
16.5967
16.5761
16.5548
16.5329
16.5104
16.4873
16.4635
16.4391
16.4141
16.3884
16.362
16.335
16.3072
16.2788
16.2496
16.2197
16.1891
16.1578
16.1257
16.0928
16.0591
16.0247
15.9894
15.9534
15.9164
15.8787
15.84
15.8005
15.7601
15.7188
15.6766
15.6334
15.5893
15.5442
15.4981
15.451
15.4028
15.3537
15.3035
15.2522
15.1998
15.1463
15.0916
15.0358
14.9789
14.9208
14.8614
14.8008
14.739
14.6759
14.6115
14.5458
14.4788
14.4104
14.3407
14.2696
14.197
14.123
14.0475
13.9706
13.8921
13.8121
13.7306
13.6474
13.5627
16.8811
16.873
16.8657
16.8565
16.8465
16.8357
16.8241
16.8119
16.7989
16.7853
16.7712
16.7564
16.741
16.725
16.7085
16.6913
16.6736
16.6553
16.6364
16.6169
16.5969
16.5762
16.5549
16.533
16.5105
16.4874
16.4636
16.4392
16.4142
16.3885
16.3621
16.335
16.3073
16.2788
16.2497
16.2198
16.1892
16.1578
16.1257
16.0928
16.0592
16.0247
15.9894
15.9534
15.9164
15.8787
15.84
15.8005
15.7601
15.7188
15.6765
15.6334
15.5892
15.5441
15.498
15.4509
15.4028
15.3536
15.3034
15.2521
15.1997
15.1462
15.0916
15.0358
14.9788
14.9207
14.8613
14.8008
14.7389
14.6758
14.6115
14.5458
14.4787
14.4104
14.3406
14.2695
14.1969
14.1229
14.0474
13.9705
13.892
13.812
13.7305
13.6473
13.5626
16.8812
16.8732
16.8658
16.8567
16.8467
16.8358
16.8243
16.812
16.799
16.7855
16.7713
16.7565
16.7411
16.7251
16.7086
16.6914
16.6737
16.6554
16.6365
16.617
16.597
16.5763
16.555
16.5331
16.5106
16.4875
16.4637
16.4393
16.4142
16.3885
16.3621
16.3351
16.3073
16.2789
16.2497
16.2198
16.1892
16.1579
16.1257
16.0929
16.0592
16.0247
15.9895
15.9534
15.9164
15.8787
15.84
15.8005
15.7601
15.7188
15.6765
15.6333
15.5892
15.5441
15.498
15.4509
15.4027
15.3536
15.3033
15.252
15.1997
15.1461
15.0915
15.0357
14.9788
14.9206
14.8613
14.8007
14.7389
14.6758
14.6114
14.5457
14.4787
14.4103
14.3406
14.2694
14.1968
14.1228
14.0474
13.9704
13.892
13.812
13.7304
13.6473
13.5625
16.8813
16.8733
16.866
16.8568
16.8468
16.836
16.8244
16.8121
16.7992
16.7856
16.7714
16.7566
16.7412
16.7252
16.7087
16.6915
16.6738
16.6555
16.6366
16.6171
16.5971
16.5764
16.5551
16.5332
16.5107
16.4876
16.4638
16.4394
16.4143
16.3886
16.3622
16.3351
16.3074
16.2789
16.2498
16.2199
16.1893
16.1579
16.1258
16.0929
16.0592
16.0247
15.9895
15.9534
15.9164
15.8787
15.84
15.8005
15.7601
15.7188
15.6765
15.6333
15.5892
15.5441
15.498
15.4508
15.4027
15.3535
15.3033
15.252
15.1996
15.1461
15.0915
15.0357
14.9787
14.9206
14.8612
14.8006
14.7388
14.6757
14.6113
14.5456
14.4786
14.4102
14.3405
14.2694
14.1968
14.1228
14.0473
13.9704
13.8919
13.8119
13.7304
13.6472
13.5625
16.8814
16.8734
16.8661
16.8569
16.8469
16.8361
16.8245
16.8122
16.7993
16.7857
16.7715
16.7567
16.7413
16.7254
16.7088
16.6916
16.6739
16.6556
16.6367
16.6172
16.5971
16.5765
16.5552
16.5333
16.5108
16.4876
16.4639
16.4395
16.4144
16.3887
16.3623
16.3352
16.3074
16.279
16.2498
16.2199
16.1893
16.1579
16.1258
16.0929
16.0592
16.0248
15.9895
15.9534
15.9165
15.8787
15.84
15.8005
15.7601
15.7188
15.6765
15.6333
15.5892
15.5441
15.4979
15.4508
15.4027
15.3535
15.3033
15.252
15.1996
15.1461
15.0914
15.0356
14.9787
14.9205
14.8612
14.8006
14.7388
14.6757
14.6113
14.5456
14.4786
14.4102
14.3405
14.2693
14.1967
14.1227
14.0473
13.9703
13.8919
13.8119
13.7303
13.6472
13.5625
16.8816
16.8736
16.8662
16.857
16.847
16.8362
16.8246
16.8123
16.7994
16.7858
16.7716
16.7568
16.7414
16.7255
16.7089
16.6917
16.674
16.6557
16.6368
16.6173
16.5972
16.5766
16.5553
16.5334
16.5109
16.4877
16.4639
16.4395
16.4145
16.3887
16.3623
16.3353
16.3075
16.2791
16.2499
16.22
16.1894
16.158
16.1259
16.093
16.0593
16.0248
15.9895
15.9534
15.9165
15.8787
15.8401
15.8005
15.7601
15.7188
15.6765
15.6333
15.5892
15.5441
15.4979
15.4508
15.4027
15.3535
15.3033
15.252
15.1996
15.1461
15.0914
15.0356
14.9787
14.9205
14.8612
14.8006
14.7388
14.6757
14.6113
14.5456
14.4786
14.4102
14.3404
14.2693
14.1967
14.1227
14.0472
13.9703
13.8918
13.8118
13.7303
13.6472
13.5624
16.8817
16.8737
16.8663
16.8571
16.8471
16.8363
16.8247
16.8124
16.7995
16.7859
16.7717
16.7569
16.7415
16.7256
16.709
16.6918
16.6741
16.6558
16.6369
16.6174
16.5973
16.5766
16.5554
16.5335
16.5109
16.4878
16.464
16.4396
16.4145
16.3888
16.3624
16.3353
16.3076
16.2791
16.2499
16.22
16.1894
16.158
16.1259
16.093
16.0593
16.0249
15.9896
15.9535
15.9165
15.8787
15.8401
15.8006
15.7601
15.7188
15.6765
15.6334
15.5892
15.5441
15.498
15.4508
15.4027
15.3535
15.3033
15.252
15.1996
15.1461
15.0914
15.0356
14.9787
14.9205
14.8612
14.8006
14.7387
14.6756
14.6113
14.5456
14.4785
14.4102
14.3404
14.2693
14.1967
14.1227
14.0472
13.9703
13.8918
13.8118
13.7303
13.6471
13.5624
16.8818
16.8738
16.8664
16.8572
16.8472
16.8364
16.8248
16.8125
16.7996
16.786
16.7718
16.757
16.7416
16.7257
16.7091
16.6919
16.6742
16.6559
16.637
16.6175
16.5974
16.5767
16.5555
16.5336
16.511
16.4879
16.4641
16.4397
16.4146
16.3889
16.3625
16.3354
16.3077
16.2792
16.25
16.2201
16.1895
16.1581
16.126
16.0931
16.0594
16.0249
15.9896
15.9535
15.9166
15.8788
15.8401
15.8006
15.7602
15.7188
15.6766
15.6334
15.5892
15.5441
15.498
15.4509
15.4027
15.3535
15.3033
15.252
15.1996
15.1461
15.0914
15.0356
14.9787
14.9205
14.8612
14.8006
14.7387
14.6756
14.6113
14.5456
14.4785
14.4102
14.3404
14.2693
14.1967
14.1227
14.0472
13.9703
13.8918
13.8118
13.7303
13.6471
13.5624
16.8819
16.8739
16.8665
16.8573
16.8473
16.8365
16.8249
16.8126
16.7997
16.7861
16.7719
16.7571
16.7417
16.7258
16.7092
16.692
16.6743
16.656
16.6371
16.6176
16.5975
16.5768
16.5555
16.5336
16.5111
16.488
16.4642
16.4398
16.4147
16.389
16.3626
16.3355
16.3077
16.2793
16.2501
16.2202
16.1896
16.1582
16.126
16.0931
16.0595
16.025
15.9897
15.9536
15.9166
15.8788
15.8402
15.8007
15.7602
15.7189
15.6766
15.6334
15.5893
15.5441
15.498
15.4509
15.4028
15.3536
15.3033
15.252
15.1996
15.1461
15.0914
15.0357
14.9787
14.9205
14.8612
14.8006
14.7388
14.6757
14.6113
14.5456
14.4785
14.4102
14.3404
14.2693
14.1967
14.1227
14.0472
13.9703
13.8918
13.8118
13.7303
13.6471
13.5624
16.882
16.874
16.8666
16.8574
16.8474
16.8366
16.825
16.8127
16.7998
16.7862
16.772
16.7572
16.7418
16.7259
16.7093
16.6921
16.6744
16.6561
16.6372
16.6177
16.5976
16.5769
16.5556
16.5337
16.5112
16.4881
16.4643
16.4399
16.4148
16.3891
16.3627
16.3356
16.3078
16.2793
16.2502
16.2203
16.1896
16.1583
16.1261
16.0932
16.0595
16.0251
15.9898
15.9537
15.9167
15.8789
15.8403
15.8007
15.7603
15.7189
15.6767
15.6335
15.5893
15.5442
15.4981
15.4509
15.4028
15.3536
15.3034
15.2521
15.1997
15.1461
15.0915
15.0357
14.9787
14.9206
14.8612
14.8006
14.7388
14.6757
14.6113
14.5456
14.4786
14.4102
14.3404
14.2693
14.1967
14.1227
14.0473
13.9703
13.8918
13.8118
13.7303
13.6472
13.5624
16.8821
16.8741
16.8667
16.8576
16.8475
16.8367
16.8251
16.8128
16.7999
16.7863
16.7721
16.7573
16.7419
16.726
16.7094
16.6922
16.6745
16.6562
16.6373
16.6178
16.5977
16.577
16.5557
16.5338
16.5113
16.4882
16.4644
16.44
16.4149
16.3892
16.3628
16.3357
16.3079
16.2794
16.2503
16.2204
16.1897
16.1583
16.1262
16.0933
16.0596
16.0251
15.9898
15.9537
15.9168
15.879
15.8403
15.8008
15.7603
15.719
15.6767
15.6335
15.5894
15.5442
15.4981
15.451
15.4029
15.3537
15.3034
15.2521
15.1997
15.1462
15.0915
15.0357
14.9788
14.9206
14.8612
14.8007
14.7388
14.6757
14.6113
14.5456
14.4786
14.4102
14.3405
14.2693
14.1968
14.1228
14.0473
13.9703
13.8919
13.8119
13.7303
13.6472
13.5625
16.8822
16.8743
16.8668
16.8577
16.8477
16.8368
16.8252
16.813
16.8
16.7864
16.7722
16.7574
16.7421
16.7261
16.7095
16.6924
16.6746
16.6563
16.6374
16.6179
16.5978
16.5771
16.5558
16.5339
16.5114
16.4883
16.4645
16.4401
16.415
16.3893
16.3629
16.3358
16.308
16.2795
16.2504
16.2204
16.1898
16.1584
16.1263
16.0934
16.0597
16.0252
15.9899
15.9538
15.9169
15.8791
15.8404
15.8009
15.7604
15.7191
15.6768
15.6336
15.5894
15.5443
15.4982
15.4511
15.4029
15.3537
15.3035
15.2522
15.1998
15.1462
15.0916
15.0358
14.9788
14.9207
14.8613
14.8007
14.7389
14.6758
14.6114
14.5457
14.4787
14.4103
14.3405
14.2694
14.1968
14.1228
14.0473
13.9704
13.8919
13.8119
13.7304
13.6472
13.5625
16.8823
16.8744
16.8669
16.8578
16.8478
16.8369
16.8254
16.8131
16.8001
16.7866
16.7724
16.7576
16.7422
16.7262
16.7096
16.6925
16.6747
16.6564
16.6375
16.618
16.5979
16.5772
16.556
16.534
16.5115
16.4884
16.4646
16.4402
16.4151
16.3894
16.363
16.3359
16.3081
16.2796
16.2505
16.2205
16.1899
16.1585
16.1264
16.0935
16.0598
16.0253
15.99
15.9539
15.9169
15.8791
15.8405
15.8009
15.7605
15.7192
15.6769
15.6337
15.5895
15.5444
15.4983
15.4511
15.403
15.3538
15.3036
15.2522
15.1998
15.1463
15.0917
15.0359
14.9789
14.9207
14.8614
14.8008
14.7389
14.6758
14.6114
14.5457
14.4787
14.4103
14.3406
14.2694
14.1969
14.1229
14.0474
13.9704
13.892
13.812
13.7304
13.6473
13.5626
16.8824
16.8745
16.867
16.8579
16.8479
16.8371
16.8255
16.8132
16.8003
16.7867
16.7725
16.7577
16.7423
16.7263
16.7097
16.6926
16.6749
16.6565
16.6376
16.6181
16.5981
16.5774
16.5561
16.5342
16.5116
16.4885
16.4647
16.4403
16.4152
16.3895
16.3631
16.336
16.3082
16.2797
16.2506
16.2207
16.19
16.1586
16.1265
16.0936
16.0599
16.0254
15.9901
15.954
15.917
15.8792
15.8406
15.801
15.7606
15.7193
15.677
15.6338
15.5896
15.5445
15.4984
15.4512
15.4031
15.3539
15.3036
15.2523
15.1999
15.1464
15.0917
15.0359
14.979
14.9208
14.8614
14.8009
14.739
14.6759
14.6115
14.5458
14.4788
14.4104
14.3406
14.2695
14.1969
14.1229
14.0475
13.9705
13.892
13.812
13.7305
13.6474
13.5626
16.8826
16.8747
16.8672
16.858
16.848
16.8372
16.8256
16.8133
16.8004
16.7868
16.7726
16.7578
16.7424
16.7264
16.7099
16.6927
16.675
16.6567
16.6378
16.6183
16.5982
16.5775
16.5562
16.5343
16.5118
16.4886
16.4648
16.4404
16.4153
16.3896
16.3632
16.3361
16.3083
16.2799
16.2507
16.2208
16.1901
16.1587
16.1266
16.0937
16.06
16.0255
15.9902
15.9541
15.9172
15.8794
15.8407
15.8011
15.7607
15.7194
15.6771
15.6339
15.5897
15.5446
15.4985
15.4513
15.4032
15.354
15.3037
15.2524
15.2
15.1465
15.0918
15.036
14.979
14.9209
14.8615
14.8009
14.7391
14.676
14.6116
14.5459
14.4789
14.4105
14.3407
14.2696
14.197
14.123
14.0475
13.9706
13.8921
13.8121
13.7306
13.6474
13.5627
16.8827
16.8748
16.8673
16.8582
16.8482
16.8373
16.8257
16.8135
16.8005
16.7869
16.7727
16.7579
16.7426
16.7266
16.71
16.6929
16.6751
16.6568
16.6379
16.6184
16.5983
16.5776
16.5563
16.5344
16.5119
16.4887
16.465
16.4405
16.4155
16.3897
16.3633
16.3362
16.3085
16.28
16.2508
16.2209
16.1903
16.1589
16.1267
16.0938
16.0601
16.0256
15.9903
15.9542
15.9173
15.8795
15.8408
15.8013
15.7608
15.7195
15.6772
15.634
15.5898
15.5447
15.4986
15.4514
15.4033
15.3541
15.3038
15.2525
15.2001
15.1466
15.0919
15.0361
14.9791
14.921
14.8616
14.801
14.7392
14.6761
14.6117
14.546
14.479
14.4106
14.3408
14.2697
14.1971
14.1231
14.0476
13.9707
13.8922
13.8122
13.7307
13.6475
13.5628
16.8829
16.875
16.8674
16.8583
16.8483
16.8375
16.8259
16.8136
16.8007
16.7871
16.7729
16.7581
16.7427
16.7267
16.7101
16.693
16.6753
16.6569
16.638
16.6185
16.5985
16.5778
16.5565
16.5346
16.512
16.4889
16.4651
16.4407
16.4156
16.3899
16.3635
16.3364
16.3086
16.2801
16.2509
16.221
16.1904
16.159
16.1269
16.0939
16.0603
16.0258
15.9905
15.9544
15.9174
15.8796
15.8409
15.8014
15.7609
15.7196
15.6773
15.6341
15.5899
15.5448
15.4987
15.4516
15.4034
15.3542
15.304
15.2526
15.2002
15.1467
15.092
15.0362
14.9793
14.9211
14.8617
14.8011
14.7393
14.6762
14.6118
14.5461
14.4791
14.4107
14.3409
14.2698
14.1972
14.1232
14.0477
13.9708
13.8923
13.8123
13.7308
13.6476
16.883
16.8751
16.8676
16.8585
16.8485
16.8376
16.826
16.8138
16.8008
16.7872
16.773
16.7582
16.7428
16.7269
16.7103
16.6931
16.6754
16.6571
16.6382
16.6187
16.5986
16.5779
16.5566
16.5347
16.5122
16.489
16.4652
16.4408
16.4157
16.39
16.3636
16.3365
16.3087
16.2803
16.2511
16.2212
16.1905
16.1591
16.127
16.0941
16.0604
16.0259
15.9906
15.9545
15.9175
15.8797
15.8411
15.8015
15.7611
15.7197
15.6775
15.6342
15.5901
15.5449
15.4988
15.4517
15.4035
15.3543
15.3041
15.2528
15.2003
15.1468
15.0922
15.0364
14.9794
14.9212
14.8619
14.8013
14.7394
14.6763
14.6119
14.5462
14.4792
14.4108
14.341
14.2699
14.1973
14.1233
14.0478
13.9709
13.8924
13.8124
13.7309
13.6477
16.8832
16.8753
16.8677
16.8586
16.8486
16.8378
16.8262
16.8139
16.801
16.7874
16.7732
16.7584
16.743
16.727
16.7105
16.6933
16.6756
16.6573
16.6383
16.6188
16.5988
16.5781
16.5568
16.5349
16.5123
16.4892
16.4654
16.441
16.4159
16.3902
16.3637
16.3367
16.3089
16.2804
16.2512
16.2213
16.1907
16.1593
16.1271
16.0942
16.0605
16.026
15.9908
15.9546
15.9177
15.8799
15.8412
15.8017
15.7612
15.7199
15.6776
15.6344
15.5902
15.5451
15.4989
15.4518
15.4037
15.3545
15.3042
15.2529
15.2005
15.1469
15.0923
15.0365
14.9795
14.9213
14.862
14.8014
14.7395
14.6764
14.612
14.5463
14.4793
14.4109
14.3412
14.27
14.1974
14.1234
14.048
13.971
13.8925
13.8125
13.731
13.6479
16.8833
16.8755
16.8679
16.8588
16.8488
16.838
16.8264
16.8141
16.8011
16.7876
16.7734
16.7586
16.7432
16.7272
16.7106
16.6935
16.6757
16.6574
16.6385
16.619
16.5989
16.5782
16.5569
16.535
16.5125
16.4893
16.4656
16.4411
16.4161
16.3903
16.3639
16.3368
16.309
16.2806
16.2514
16.2215
16.1908
16.1594
16.1273
16.0944
16.0607
16.0262
15.9909
15.9548
15.9178
15.88
15.8414
15.8018
15.7614
15.72
15.6777
15.6345
15.5904
15.5452
15.4991
15.452
15.4038
15.3546
15.3044
15.253
15.2006
15.1471
15.0924
15.0366
14.9796
14.9215
14.8621
14.8015
14.7397
14.6766
14.6122
14.5465
14.4794
14.4111
14.3413
14.2701
14.1976
14.1236
14.0481
13.9711
13.8927
13.8127
13.7311
13.648
16.8835
16.8757
16.8681
16.859
16.849
16.8381
16.8266
16.8143
16.8013
16.7877
16.7736
16.7588
16.7434
16.7274
16.7108
16.6936
16.6759
16.6576
16.6387
16.6192
16.5991
16.5784
16.5571
16.5352
16.5127
16.4895
16.4657
16.4413
16.4162
16.3905
16.3641
16.337
16.3092
16.2807
16.2516
16.2216
16.191
16.1596
16.1275
16.0946
16.0609
16.0264
15.9911
15.9549
15.918
15.8802
15.8415
15.802
15.7615
15.7202
15.6779
15.6347
15.5905
15.5454
15.4993
15.4521
15.404
15.3548
15.3045
15.2532
15.2008
15.1472
15.0926
15.0368
14.9798
14.9216
14.8623
14.8017
14.7398
14.6767
14.6123
14.5466
14.4796
14.4112
14.3414
14.2703
14.1977
14.1237
14.0482
13.9713
13.8928
13.8128
13.7313
13.6481
16.8837
16.8759
16.8683
16.8592
16.8492
16.8383
16.8267
16.8145
16.8015
16.7879
16.7737
16.7589
16.7435
16.7276
16.711
16.6938
16.6761
16.6578
16.6389
16.6194
16.5993
16.5786
16.5573
16.5354
16.5129
16.4897
16.4659
16.4415
16.4164
16.3907
16.3643
16.3372
16.3094
16.2809
16.2517
16.2218
16.1912
16.1598
16.1276
16.0947
16.061
16.0265
15.9912
15.9551
15.9182
15.8804
15.8417
15.8021
15.7617
15.7203
15.6781
15.6349
15.5907
15.5455
15.4994
15.4523
15.4041
15.3549
15.3047
15.2534
15.2009
15.1474
15.0927
15.0369
14.98
14.9218
14.8624
14.8018
14.74
14.6769
14.6125
14.5468
14.4797
14.4114
14.3416
14.2704
14.1979
14.1239
14.0484
13.9714
13.893
13.813
13.7314
13.6483
16.8839
16.8761
16.8685
16.8594
16.8494
16.8385
16.8269
16.8147
16.8017
16.7881
16.7739
16.7591
16.7437
16.7278
16.7112
16.694
16.6763
16.658
16.6391
16.6196
16.5995
16.5788
16.5575
16.5356
16.513
16.4899
16.4661
16.4417
16.4166
16.3909
16.3644
16.3374
16.3096
16.2811
16.2519
16.222
16.1914
16.16
16.1278
16.0949
16.0612
16.0267
15.9914
15.9553
15.9183
15.8805
15.8419
15.8023
15.7619
15.7205
15.6783
15.635
15.5909
15.5457
15.4996
15.4525
15.4043
15.3551
15.3049
15.2535
15.2011
15.1476
15.0929
15.0371
14.9801
14.922
14.8626
14.802
14.7402
14.677
14.6127
14.5469
14.4799
14.4115
14.3418
14.2706
14.198
14.124
14.0486
13.9716
13.8931
13.8131
13.7316
13.6484
16.8841
16.8763
16.8687
16.8596
16.8496
16.8387
16.8271
16.8149
16.8019
16.7883
16.7741
16.7593
16.7439
16.728
16.7114
16.6942
16.6765
16.6582
16.6393
16.6198
16.5997
16.579
16.5577
16.5358
16.5132
16.4901
16.4663
16.4419
16.4168
16.3911
16.3646
16.3376
16.3098
16.2813