/*--------------------------------*- C++ -*----------------------------------*\
  =========                 |
  \\      /  F ield         | OpenFOAM: The Open Source CFD Toolbox
   \\    /   O peration     | Website:  https://openfoam.org
    \\  /    A nd           | Version:  10
     \\/     M anipulation  |
\*---------------------------------------------------------------------------*/
FoamFile
{
    format      ascii;
    class       surfaceScalarField;
    location    "18000";
    object      phi;
}
// * * * * * * * * * * * * * * * * * * * * * * * * * * * * * * * * * * * * * //

dimensions      [0 3 -1 0 0 0 0];

internalField   nonuniform List<scalar> 
35320
(
2.53417e-08
1.3924e-05
-1.39493e-05
4.01234e-08
1.25752e-05
-1.259e-05
4.78287e-08
1.2089e-05
-1.20967e-05
5.18587e-08
1.18136e-05
-1.18176e-05
5.37251e-08
1.16422e-05
-1.1644e-05
5.42751e-08
1.15348e-05
-1.15353e-05
5.4021e-08
1.14704e-05
-1.14701e-05
5.32755e-08
1.14367e-05
-1.14359e-05
5.22416e-08
1.1426e-05
-1.1425e-05
5.10245e-08
1.14333e-05
-1.14321e-05
4.97119e-08
1.14551e-05
-1.14538e-05
4.8337e-08
1.14888e-05
-1.14874e-05
4.69401e-08
1.15325e-05
-1.15311e-05
4.55365e-08
1.15848e-05
-1.15834e-05
4.41353e-08
1.16445e-05
-1.16431e-05
4.27458e-08
1.17109e-05
-1.17095e-05
4.13725e-08
1.17831e-05
-1.17818e-05
4.00225e-08
1.18607e-05
-1.18594e-05
3.86951e-08
1.19431e-05
-1.19418e-05
3.73832e-08
1.20299e-05
-1.20286e-05
3.60947e-08
1.21209e-05
-1.21196e-05
3.48366e-08
1.22157e-05
-1.22144e-05
3.35944e-08
1.2314e-05
-1.23128e-05
3.23822e-08
1.24158e-05
-1.24145e-05
3.11874e-08
1.25207e-05
-1.25195e-05
3.00193e-08
1.26287e-05
-1.26275e-05
2.88747e-08
1.27396e-05
-1.27384e-05
2.77512e-08
1.28533e-05
-1.28521e-05
2.66548e-08
1.29696e-05
-1.29685e-05
2.5576e-08
1.30886e-05
-1.30875e-05
2.45209e-08
1.321e-05
-1.3209e-05
2.3489e-08
1.33339e-05
-1.33329e-05
2.24819e-08
1.34602e-05
-1.34591e-05
2.14967e-08
1.35887e-05
-1.35877e-05
2.05306e-08
1.37195e-05
-1.37185e-05
1.95874e-08
1.38524e-05
-1.38515e-05
1.86667e-08
1.39875e-05
-1.39866e-05
1.77674e-08
1.41247e-05
-1.41238e-05
1.68869e-08
1.42639e-05
-1.4263e-05
1.6029e-08
1.44052e-05
-1.44043e-05
1.51907e-08
1.45484e-05
-1.45475e-05
1.43757e-08
1.46935e-05
-1.46927e-05
1.3579e-08
1.48406e-05
-1.48398e-05
1.2802e-08
1.49895e-05
-1.49888e-05
1.20482e-08
1.51403e-05
-1.51396e-05
1.13107e-08
1.52929e-05
-1.52922e-05
1.05932e-08
1.54473e-05
-1.54466e-05
9.89642e-09
1.56034e-05
-1.56027e-05
9.21813e-09
1.57613e-05
-1.57606e-05
8.55929e-09
1.59208e-05
-1.59202e-05
7.91935e-09
1.6082e-05
-1.60814e-05
7.29561e-09
1.62449e-05
-1.62443e-05
6.69315e-09
1.64093e-05
-1.64087e-05
6.10732e-09
1.65754e-05
-1.65748e-05
5.53939e-09
1.67429e-05
-1.67424e-05
4.99044e-09
1.6912e-05
-1.69115e-05
4.45787e-09
1.70826e-05
-1.70821e-05
3.94293e-09
1.72546e-05
-1.72541e-05
3.44651e-09
1.74281e-05
-1.74276e-05
2.96453e-09
1.76029e-05
-1.76024e-05
2.49963e-09
1.77791e-05
-1.77786e-05
2.0512e-09
1.79565e-05
-1.79561e-05
1.6203e-09
1.81353e-05
-1.81349e-05
1.20269e-09
1.83153e-05
-1.83148e-05
8.08034e-10
1.84964e-05
-1.8496e-05
4.23575e-10
1.86787e-05
-1.86783e-05
5.72948e-11
1.88621e-05
-1.88617e-05
-2.93304e-10
1.90465e-05
-1.90461e-05
-6.30474e-10
1.92319e-05
-1.92316e-05
-9.48458e-10
1.94182e-05
-1.94179e-05
-1.25251e-09
1.96055e-05
-1.96052e-05
-1.54019e-09
1.97935e-05
-1.97932e-05
-1.81362e-09
1.99824e-05
-1.99821e-05
-2.07019e-09
2.01719e-05
-2.01716e-05
-2.30892e-09
2.0362e-05
-2.03618e-05
-2.53511e-09
2.05528e-05
-2.05525e-05
-2.7445e-09
2.0744e-05
-2.07438e-05
-2.93601e-09
2.09356e-05
-2.09354e-05
-3.1134e-09
2.11276e-05
-2.11274e-05
-3.27377e-09
2.13198e-05
-2.13197e-05
-3.41465e-09
2.15122e-05
-2.15121e-05
-3.53965e-09
2.17047e-05
-2.17046e-05
-3.65038e-09
2.18972e-05
-2.18971e-05
-3.74142e-09
2.20895e-05
-2.20894e-05
-3.81437e-09
2.22817e-05
-2.22816e-05
-3.86821e-09
2.24734e-05
-2.24734e-05
-3.90328e-09
2.26648e-05
-2.26647e-05
-3.92109e-09
2.28556e-05
-2.28555e-05
-3.9163e-09
2.30456e-05
-2.30457e-05
-3.89449e-09
2.32349e-05
-2.32349e-05
-3.84762e-09
2.34232e-05
-2.34233e-05
2.36104e-05
-2.36105e-05
2.5754e-09
1.39214e-05
6.38411e-09
1.25714e-05
1.16544e-08
1.20837e-05
1.71574e-08
1.18081e-05
2.19527e-08
1.16374e-05
2.59099e-08
1.15308e-05
2.90645e-08
1.14672e-05
3.14875e-08
1.14342e-05
3.32753e-08
1.14242e-05
3.45415e-08
1.14321e-05
3.53591e-08
1.14543e-05
3.58273e-08
1.14883e-05
3.6005e-08
1.15323e-05
3.59483e-08
1.15848e-05
3.57055e-08
1.16448e-05
3.53136e-08
1.17113e-05
3.48025e-08
1.17837e-05
3.41941e-08
1.18613e-05
3.351e-08
1.19438e-05
3.27734e-08
1.20307e-05
3.19871e-08
1.21217e-05
3.11662e-08
1.22165e-05
3.03185e-08
1.23149e-05
2.94484e-08
1.24166e-05
2.85686e-08
1.25216e-05
2.76759e-08
1.26296e-05
2.67812e-08
1.27405e-05
2.58848e-08
1.28542e-05
2.49848e-08
1.29705e-05
2.40895e-08
1.30895e-05
2.32007e-08
1.32109e-05
2.23217e-08
1.33348e-05
2.14446e-08
1.3461e-05
2.05811e-08
1.35895e-05
1.97277e-08
1.37203e-05
1.88845e-08
1.38533e-05
1.80518e-08
1.39883e-05
1.72364e-08
1.41255e-05
1.64299e-08
1.42647e-05
1.56383e-08
1.4406e-05
1.4864e-08
1.45492e-05
1.41004e-08
1.46943e-05
1.33534e-08
1.48414e-05
1.26231e-08
1.49903e-05
1.1905e-08
1.5141e-05
1.12046e-08
1.52936e-05
1.05196e-08
1.5448e-05
9.84977e-09
1.56041e-05
9.1964e-09
1.57619e-05
8.5552e-09
1.59215e-05
7.93543e-09
1.60826e-05
7.33069e-09
1.62455e-05
6.74029e-09
1.64099e-05
6.16786e-09
1.65759e-05
5.60875e-09
1.67435e-05
5.06617e-09
1.69126e-05
4.54134e-09
1.70831e-05
4.03001e-09
1.72552e-05
3.53516e-09
1.74286e-05
3.05622e-09
1.76034e-05
2.59435e-09
1.77795e-05
2.14865e-09
1.7957e-05
1.71692e-09
1.81357e-05
1.30364e-09
1.83157e-05
9.01335e-10
1.84968e-05
5.17903e-10
1.86791e-05
1.49059e-10
1.88624e-05
-2.05507e-10
1.90468e-05
-5.41764e-10
1.92322e-05
-8.66707e-10
1.94186e-05
-1.17298e-09
1.96058e-05
-1.46416e-09
1.97938e-05
-1.73968e-09
1.99826e-05
-1.99974e-09
2.01721e-05
-2.24497e-09
2.03623e-05
-2.47126e-09
2.0553e-05
-2.6839e-09
2.07442e-05
-2.88174e-09
2.09358e-05
-3.05922e-09
2.11278e-05
-3.22288e-09
2.132e-05
-3.37022e-09
2.15124e-05
-3.49701e-09
2.17049e-05
-3.60823e-09
2.18973e-05
-3.69981e-09
2.20896e-05
-3.77513e-09
2.22817e-05
-3.83148e-09
2.24735e-05
-3.86771e-09
2.26648e-05
-3.88415e-09
2.28556e-05
-3.88254e-09
2.30456e-05
-3.85741e-09
2.32349e-05
-3.81191e-09
2.34232e-05
2.36104e-05
3.31447e-09
1.39181e-05
6.37415e-09
1.25684e-05
9.32859e-09
1.20808e-05
1.21554e-08
1.18053e-05
1.47733e-08
1.16347e-05
1.7217e-08
1.15284e-05
1.94539e-08
1.1465e-05
2.14516e-08
1.14322e-05
2.31896e-08
1.14225e-05
2.46571e-08
1.14306e-05
2.58707e-08
1.14531e-05
2.6833e-08
1.14873e-05
2.75678e-08
1.15315e-05
2.80986e-08
1.15843e-05
2.84435e-08
1.16444e-05
2.86262e-08
1.17111e-05
2.86663e-08
1.17836e-05
2.85792e-08
1.18614e-05
2.83889e-08
1.1944e-05
2.80973e-08
1.2031e-05
2.7732e-08
1.2122e-05
2.72921e-08
1.22169e-05
2.68021e-08
1.23154e-05
2.62585e-08
1.24172e-05
2.56732e-08
1.25222e-05
2.50551e-08
1.26302e-05
2.44097e-08
1.27411e-05
2.37394e-08
1.28548e-05
2.30505e-08
1.29712e-05
2.23489e-08
1.30902e-05
2.16348e-08
1.32116e-05
2.09115e-08
1.33355e-05
2.01829e-08
1.34618e-05
1.94534e-08
1.35903e-05
1.87199e-08
1.3721e-05
1.79881e-08
1.3854e-05
1.72613e-08
1.39891e-05
1.65322e-08
1.41262e-05
1.58139e-08
1.42654e-05
1.5103e-08
1.44067e-05
1.43934e-08
1.45499e-05
1.36961e-08
1.4695e-05
1.30074e-08
1.4842e-05
1.2327e-08
1.4991e-05
1.16575e-08
1.51417e-05
1.10005e-08
1.52943e-05
1.03541e-08
1.54486e-05
9.72024e-09
1.56047e-05
9.09477e-09
1.57625e-05
8.48715e-09
1.59221e-05
7.88937e-09
1.60832e-05
7.30482e-09
1.62461e-05
6.73356e-09
1.64105e-05
6.17647e-09
1.65765e-05
5.63553e-09
1.6744e-05
5.10448e-09
1.69131e-05
4.59017e-09
1.70837e-05
4.0885e-09
1.72557e-05
3.60081e-09
1.74291e-05
3.1301e-09
1.76039e-05
2.67213e-09
1.778e-05
2.23004e-09
1.79574e-05
1.79969e-09
1.81361e-05
1.38564e-09
1.83161e-05
9.89077e-10
1.84972e-05
6.04096e-10
1.86795e-05
2.33553e-10
1.88628e-05
-1.18153e-10
1.90472e-05
-4.58206e-10
1.92326e-05
-7.80794e-10
1.94189e-05
-1.09137e-09
1.96061e-05
-1.38401e-09
1.97941e-05
-1.66406e-09
1.99829e-05
-1.92598e-09
2.01724e-05
-2.17332e-09
2.03625e-05
-2.40498e-09
2.05532e-05
-2.61856e-09
2.07444e-05
-2.81773e-09
2.0936e-05
-2.99972e-09
2.1128e-05
-3.16389e-09
2.13202e-05
-3.31181e-09
2.15125e-05
-3.44417e-09
2.1705e-05
-3.55532e-09
2.18974e-05
-3.65172e-09
2.20897e-05
-3.72773e-09
2.22818e-05
-3.78393e-09
2.24736e-05
-3.82195e-09
2.26649e-05
-3.83787e-09
2.28556e-05
-3.83352e-09
2.30456e-05
-3.80915e-09
2.32349e-05
-3.76366e-09
2.34231e-05
2.36103e-05
2.59864e-09
1.39155e-05
4.94722e-09
1.2566e-05
7.42981e-09
1.20783e-05
9.65054e-09
1.18031e-05
1.16273e-08
1.16328e-05
1.34127e-08
1.15266e-05
1.50188e-08
1.14634e-05
1.64792e-08
1.14308e-05
1.78009e-08
1.14212e-05
1.89856e-08
1.14294e-05
2.00389e-08
1.1452e-05
2.09523e-08
1.14864e-05
2.17325e-08
1.15308e-05
2.23843e-08
1.15836e-05
2.29073e-08
1.16439e-05
2.33119e-08
1.17107e-05
2.36016e-08
1.17833e-05
2.37839e-08
1.18612e-05
2.3871e-08
1.19439e-05
2.38679e-08
1.2031e-05
2.37846e-08
1.21221e-05
2.36259e-08
1.22171e-05
2.33964e-08
1.23156e-05
2.31143e-08
1.24175e-05
2.2774e-08
1.25225e-05
2.23881e-08
1.26306e-05
2.19571e-08
1.27416e-05
2.14924e-08
1.28553e-05
2.09984e-08
1.29717e-05
2.04743e-08
1.30907e-05
1.9926e-08
1.32122e-05
1.93607e-08
1.33361e-05
1.87766e-08
1.34623e-05
1.81786e-08
1.35909e-05
1.7571e-08
1.37216e-05
1.69556e-08
1.38546e-05
1.63319e-08
1.39897e-05
1.57053e-08
1.41269e-05
1.50733e-08
1.42661e-05
1.4443e-08
1.44073e-05
1.38134e-08
1.45505e-05
1.31849e-08
1.46956e-05
1.25585e-08
1.48427e-05
1.19366e-08
1.49916e-05
1.13217e-08
1.51423e-05
1.07119e-08
1.52949e-05
1.01078e-08
1.54492e-05
9.51323e-09
1.56053e-05
8.93015e-09
1.57631e-05
8.35086e-09
1.59226e-05
7.78108e-09
1.60838e-05
7.22455e-09
1.62466e-05
6.67911e-09
1.6411e-05
6.14086e-09
1.6577e-05
5.61692e-09
1.67446e-05
5.1049e-09
1.69136e-05
4.603e-09
1.70842e-05
4.11616e-09
1.72561e-05
3.64026e-09
1.74295e-05
3.17672e-09
1.76043e-05
2.72859e-09
1.77804e-05
2.29178e-09
1.79579e-05
1.86747e-09
1.81366e-05
1.45897e-09
1.83165e-05
1.06008e-09
1.84976e-05
6.8078e-10
1.86798e-05
3.13617e-10
1.88632e-05
-4.04808e-11
1.90475e-05
-3.78485e-10
1.92329e-05
-7.04623e-10
1.94192e-05
-1.01102e-09
1.96064e-05
-1.30669e-09
1.97944e-05
-1.58383e-09
1.99832e-05
-1.84804e-09
2.01727e-05
-2.09668e-09
2.03628e-05
-2.33049e-09
2.05535e-05
-2.54656e-09
2.07446e-05
-2.74723e-09
2.09362e-05
-2.92992e-09
2.11282e-05
-3.09817e-09
2.13203e-05
-3.24647e-09
2.15127e-05
-3.37827e-09
2.17051e-05
-3.49421e-09
2.18975e-05
-3.58852e-09
2.20898e-05
-3.6648e-09
2.22819e-05
-3.72331e-09
2.24736e-05
-3.76015e-09
2.26649e-05
-3.77739e-09
2.28556e-05
-3.77503e-09
2.30456e-05
-3.74937e-09
2.32348e-05
-3.70232e-09
2.34231e-05
2.36102e-05
1.52336e-09
1.3914e-05
2.76082e-09
1.25648e-05
4.38905e-09
1.20767e-05
6.03009e-09
1.18014e-05
7.63909e-09
1.16312e-05
9.15569e-09
1.15251e-05
1.05766e-08
1.14619e-05
1.18992e-08
1.14295e-05
1.31197e-08
1.14199e-05
1.4243e-08
1.14283e-05
1.52653e-08
1.1451e-05
1.61884e-08
1.14855e-05
1.70095e-08
1.15299e-05
1.77293e-08
1.15829e-05
1.83543e-08
1.16433e-05
1.8883e-08
1.17102e-05
1.93164e-08
1.17829e-05
1.96667e-08
1.18609e-05
1.99302e-08
1.19436e-05
2.01108e-08
1.20308e-05
2.02152e-08
1.2122e-05
2.02519e-08
1.2217e-05
2.02212e-08
1.23156e-05
2.01267e-08
1.24176e-05
1.99802e-08
1.25227e-05
1.97765e-08
1.26308e-05
1.95311e-08
1.27418e-05
1.92383e-08
1.28556e-05
1.89068e-08
1.2972e-05
1.85441e-08
1.30911e-05
1.81488e-08
1.32126e-05
1.77197e-08
1.33365e-05
1.72749e-08
1.34628e-05
1.68033e-08
1.35913e-05
1.63141e-08
1.37221e-05
1.5807e-08
1.38551e-05
1.52904e-08
1.39902e-05
1.47615e-08
1.41274e-05
1.4224e-08
1.42666e-05
1.3675e-08
1.44078e-05
1.31261e-08
1.4551e-05
1.257e-08
1.46962e-05
1.2012e-08
1.48432e-05
1.14544e-08
1.49921e-05
1.0896e-08
1.51429e-05
1.03375e-08
1.52954e-05
9.78514e-09
1.54498e-05
9.23339e-09
1.56059e-05
8.68833e-09
1.57637e-05
8.14835e-09
1.59232e-05
7.61726e-09
1.60843e-05
7.08929e-09
1.62472e-05
6.56839e-09
1.64116e-05
6.06008e-09
1.65775e-05
5.55664e-09
1.67451e-05
5.06369e-09
1.69141e-05
4.58246e-09
1.70846e-05
4.10915e-09
1.72566e-05
3.64724e-09
1.743e-05
3.19785e-09
1.76048e-05
2.75737e-09
1.77809e-05
2.33063e-09
1.79583e-05
1.91695e-09
1.8137e-05
1.51402e-09
1.83169e-05
1.12504e-09
1.8498e-05
7.47533e-10
1.86802e-05
3.84622e-10
1.88635e-05
3.56226e-11
1.90479e-05
-3.03647e-10
1.92332e-05
-6.23259e-10
1.94195e-05
-9.32469e-10
1.96067e-05
-1.22684e-09
1.97947e-05
-1.50544e-09
1.99835e-05
-1.77026e-09
2.01729e-05
-2.01884e-09
2.0363e-05
-2.25009e-09
2.05537e-05
-2.4679e-09
2.07449e-05
-2.66962e-09
2.09364e-05
-2.85429e-09
2.11283e-05
-3.02092e-09
2.13205e-05
-3.17461e-09
2.15128e-05
-3.30679e-09
2.17053e-05
-3.4179e-09
2.18976e-05
-3.51596e-09
2.20899e-05
-3.5927e-09
2.2282e-05
-3.6498e-09
2.24737e-05
-3.68785e-09
2.26649e-05
-3.70435e-09
2.28556e-05
-3.70121e-09
2.30456e-05
-3.6761e-09
2.32348e-05
-3.62672e-09
2.3423e-05
2.36102e-05
1.00352e-09
1.39129e-05
1.78812e-09
1.2564e-05
2.83789e-09
1.20756e-05
3.9614e-09
1.18003e-05
5.14354e-09
1.163e-05
6.31364e-09
1.15239e-05
7.45436e-09
1.14608e-05
8.55529e-09
1.14284e-05
9.60986e-09
1.14189e-05
1.06105e-08
1.14273e-05
1.15443e-08
1.145e-05
1.242e-08
1.14846e-05
1.32222e-08
1.15291e-05
1.3956e-08
1.15822e-05
1.46168e-08
1.16426e-05
1.51984e-08
1.17096e-05
1.57131e-08
1.17824e-05
1.61537e-08
1.18604e-05
1.65166e-08
1.19433e-05
1.68176e-08
1.20305e-05
1.70488e-08
1.21218e-05
1.72152e-08
1.22169e-05
1.73233e-08
1.23155e-05
1.73712e-08
1.24175e-05
1.73616e-08
1.25227e-05
1.73088e-08
1.26308e-05
1.71993e-08
1.27419e-05
1.70474e-08
1.28557e-05
1.68535e-08
1.29722e-05
1.66224e-08
1.30913e-05
1.63543e-08
1.32129e-05
1.60607e-08
1.33368e-05
1.57284e-08
1.34631e-05
1.53726e-08
1.35917e-05
1.49955e-08
1.37225e-05
1.45966e-08
1.38555e-05
1.41758e-08
1.39906e-05
1.3741e-08
1.41278e-05
1.32916e-08
1.42671e-05
1.28309e-08
1.44083e-05
1.23561e-08
1.45515e-05
1.18745e-08
1.46967e-05
1.1385e-08
1.48437e-05
1.08928e-08
1.49926e-05
1.03941e-08
1.51434e-05
9.89412e-09
1.52959e-05
9.39121e-09
1.54503e-05
8.88968e-09
1.56064e-05
8.38834e-09
1.57642e-05
7.88898e-09
1.59237e-05
7.39193e-09
1.60848e-05
6.89769e-09
1.62476e-05
6.41183e-09
1.6412e-05
5.9285e-09
1.6578e-05
5.45357e-09
1.67455e-05
4.98508e-09
1.69146e-05
4.52268e-09
1.70851e-05
4.06829e-09
1.72571e-05
3.62678e-09
1.74304e-05
3.19102e-09
1.76052e-05
2.76582e-09
1.77813e-05
2.3506e-09
1.79587e-05
1.94541e-09
1.81374e-05
1.5548e-09
1.83173e-05
1.17304e-09
1.84984e-05
8.01579e-10
1.86806e-05
4.46451e-10
1.88639e-05
9.88227e-11
1.90482e-05
-2.29997e-10
1.92336e-05
-5.50886e-10
1.94199e-05
-8.5601e-10
1.9607e-05
-1.14736e-09
1.9795e-05
-1.42569e-09
1.99837e-05
-1.68685e-09
2.01732e-05
-1.93463e-09
2.03633e-05
-2.16805e-09
2.05539e-05
-2.38447e-09
2.07451e-05
-2.58608e-09
2.09366e-05
-2.77188e-09
2.11285e-05
-2.93779e-09
2.13207e-05
-3.08608e-09
2.1513e-05
-3.22172e-09
2.17054e-05
-3.33758e-09
2.18978e-05
-3.43297e-09
2.209e-05
-3.51099e-09
2.2282e-05
-3.56659e-09
2.24737e-05
-3.60329e-09
2.2665e-05
-3.62118e-09
2.28556e-05
-3.61265e-09
2.30456e-05
-3.58667e-09
2.32348e-05
-3.53821e-09
2.3423e-05
2.36101e-05
7.70024e-10
1.39122e-05
1.41815e-09
1.25633e-05
2.18531e-09
1.20748e-05
3.03652e-09
1.17995e-05
3.93291e-09
1.16291e-05
4.82179e-09
1.1523e-05
5.70731e-09
1.14599e-05
6.56844e-09
1.14275e-05
7.41242e-09
1.1418e-05
8.22742e-09
1.14265e-05
9.01402e-09
1.14493e-05
9.76081e-09
1.14839e-05
1.04687e-08
1.15284e-05
1.11276e-08
1.15815e-05
1.17438e-08
1.1642e-05
1.23096e-08
1.1709e-05
1.28221e-08
1.17819e-05
1.32771e-08
1.186e-05
1.36809e-08
1.19429e-05
1.4033e-08
1.20301e-05
1.43254e-08
1.21215e-05
1.45705e-08
1.22166e-05
1.47567e-08
1.23153e-05
1.48969e-08
1.24174e-05
1.49898e-08
1.25226e-05
1.50273e-08
1.26308e-05
1.50291e-08
1.27419e-05
1.49831e-08
1.28558e-05
1.48978e-08
1.29723e-05
1.47724e-08
1.30914e-05
1.46133e-08
1.3213e-05
1.44176e-08
1.3337e-05
1.41937e-08
1.34633e-05
1.39409e-08
1.3592e-05
1.36566e-08
1.37228e-05
1.33512e-08
1.38558e-05
1.30254e-08
1.39909e-05
1.26729e-08
1.41282e-05
1.23073e-08
1.42674e-05
1.19257e-08
1.44087e-05
1.15271e-08
1.45519e-05
1.11168e-08
1.46971e-05
1.06996e-08
1.48441e-05
1.02664e-08
1.49931e-05
9.8284e-09
1.51438e-05
9.38568e-09
1.52964e-05
8.93702e-09
1.54507e-05
8.48146e-09
1.56068e-05
8.02666e-09
1.57646e-05
7.57126e-09
1.59241e-05
7.11206e-09
1.60853e-05
6.66023e-09
1.62481e-05
6.20487e-09
1.64125e-05
5.75536e-09
1.65785e-05
5.30816e-09
1.6746e-05
4.86474e-09
1.6915e-05
4.42742e-09
1.70855e-05
3.99926e-09
1.72575e-05
3.57493e-09
1.74309e-05
3.15577e-09
1.76056e-05
2.74871e-09
1.77817e-05
2.34819e-09
1.79591e-05
1.95915e-09
1.81378e-05
1.57569e-09
1.83177e-05
1.20467e-09
1.84987e-05
8.45525e-10
1.86809e-05
4.94259e-10
1.88642e-05
1.57128e-10
1.90486e-05
-1.69618e-10
1.92339e-05
-4.8164e-10
1.94202e-05
-7.82837e-10
1.96073e-05
-1.07046e-09
1.97953e-05
-1.34507e-09
1.9984e-05
-1.60571e-09
2.01735e-05
-1.84972e-09
2.03635e-05
-2.0825e-09
2.05542e-05
-2.29673e-09
2.07453e-05
-2.49481e-09
2.09368e-05
-2.68029e-09
2.11287e-05
-2.84757e-09
2.13208e-05
-2.99871e-09
2.15131e-05
-3.12838e-09
2.17055e-05
-3.24315e-09
2.18979e-05
-3.33873e-09
2.20901e-05
-3.41459e-09
2.22821e-05
-3.4712e-09
2.24738e-05
-3.50748e-09
2.2665e-05
-3.52004e-09
2.28557e-05
-3.51512e-09
2.30456e-05
-3.48471e-09
2.32348e-05
-3.43402e-09
2.34229e-05
2.361e-05
6.33067e-10
1.39115e-05
1.15592e-09
1.25628e-05
1.73161e-09
1.20743e-05
2.39156e-09
1.17988e-05
3.08913e-09
1.16284e-05
3.7985e-09
1.15223e-05
4.4938e-09
1.14592e-05
5.18755e-09
1.14268e-05
5.86476e-09
1.14174e-05
6.52886e-09
1.14258e-05
7.17619e-09
1.14486e-05
7.80531e-09
1.14832e-05
8.4067e-09
1.15278e-05
8.98418e-09
1.15809e-05
9.52413e-09
1.16415e-05
1.00408e-08
1.17085e-05
1.05131e-08
1.17814e-05
1.09515e-08
1.18595e-05
1.13555e-08
1.19425e-05
1.17088e-08
1.20298e-05
1.20296e-08
1.21212e-05
1.23017e-08
1.22164e-05
1.25369e-08
1.23151e-05
1.27272e-08
1.24172e-05
1.28749e-08
1.25224e-05
1.29868e-08
1.26307e-05
1.30541e-08
1.27418e-05
1.30841e-08
1.28558e-05
1.30775e-08
1.29723e-05
1.30325e-08
1.30915e-05
1.29548e-08
1.32131e-05
1.28447e-08
1.33371e-05
1.27036e-08
1.34635e-05
1.25304e-08
1.35921e-05
1.23325e-08
1.3723e-05
1.21107e-08
1.3856e-05
1.186e-08
1.39912e-05
1.15918e-08
1.41284e-05
1.12987e-08
1.42677e-05
1.09882e-08
1.4409e-05
1.06607e-08
1.45522e-05
1.03197e-08
1.46974e-05
9.96157e-09
1.48445e-05
9.59513e-09
1.49934e-05
9.2131e-09
1.51442e-05
8.82634e-09
1.52968e-05
8.42914e-09
1.54511e-05
8.02792e-09
1.56072e-05
7.61929e-09
1.5765e-05
7.20767e-09
1.59245e-05
6.79303e-09
1.60857e-05
6.37399e-09
1.62485e-05
5.95807e-09
1.64129e-05
5.54023e-09
1.65789e-05
5.1236e-09
1.67464e-05
4.71255e-09
1.69154e-05
4.30094e-09
1.7086e-05
3.89456e-09
1.72579e-05
3.49113e-09
1.74313e-05
3.09628e-09
1.7606e-05
2.70577e-09
1.77821e-05
2.32341e-09
1.79595e-05
1.94807e-09
1.81382e-05
1.58181e-09
1.8318e-05
1.22229e-09
1.84991e-05
8.73864e-10
1.86813e-05
5.31437e-10
1.88646e-05
2.04682e-10
1.90489e-05
-1.14132e-10
1.92342e-05
-4.20182e-10
1.94205e-05
-7.15352e-10
1.96076e-05
-9.95976e-10
1.97956e-05
-1.26566e-09
1.99843e-05
-1.51997e-09
2.01737e-05
-1.76306e-09
2.03638e-05
-1.98902e-09
2.05544e-05
-2.20321e-09
2.07455e-05
-2.40146e-09
2.0937e-05
-2.58152e-09
2.11289e-05
-2.74834e-09
2.1321e-05
-2.89531e-09
2.15133e-05
-3.02706e-09
2.17056e-05
-3.13986e-09
2.1898e-05
-3.233e-09
2.20902e-05
-3.30818e-09
2.22822e-05
-3.36192e-09
2.24738e-05
-3.39607e-09
2.2665e-05
-3.41017e-09
2.28557e-05
-3.40025e-09
2.30456e-05
-3.37048e-09
2.32347e-05
-3.31718e-09
2.34229e-05
2.36099e-05
5.08678e-10
1.3911e-05
9.11803e-10
1.25624e-05
1.33713e-09
1.20738e-05
1.84559e-09
1.17983e-05
2.3962e-09
1.16278e-05
2.95899e-09
1.15217e-05
3.52377e-09
1.14587e-05
4.08485e-09
1.14262e-05
4.64527e-09
1.14168e-05
5.19345e-09
1.14253e-05
5.73265e-09
1.14481e-05
6.25979e-09
1.14827e-05
6.77694e-09
1.15273e-05
7.27283e-09
1.15804e-05
7.75435e-09
1.1641e-05
8.20581e-09
1.17081e-05
8.64169e-09
1.1781e-05
9.0466e-09
1.18591e-05
9.42077e-09
1.19421e-05
9.77122e-09
1.20294e-05
1.00867e-08
1.21209e-05
1.03699e-08
1.22161e-05
1.06197e-08
1.23148e-05
1.08345e-08
1.2417e-05
1.10158e-08
1.25222e-05
1.11629e-08
1.26305e-05
1.12774e-08
1.27417e-05
1.13614e-08
1.28557e-05
1.14073e-08
1.29723e-05
1.14248e-08
1.30915e-05
1.14089e-08
1.32131e-05
1.13624e-08
1.33372e-05
1.12854e-08
1.34636e-05
1.1183e-08
1.35922e-05
1.10531e-08
1.37231e-05
1.08941e-08
1.38562e-05
1.07154e-08
1.39914e-05
1.05108e-08
1.41286e-05
1.02876e-08
1.42679e-05
1.00419e-08
1.44092e-05
9.77888e-09
1.45525e-05
9.49831e-09
1.46977e-05
9.20165e-09
1.48448e-05
8.89112e-09
1.49937e-05
8.56896e-09
1.51445e-05
8.23015e-09
1.52971e-05
7.88483e-09
1.54515e-05
7.53139e-09
1.56076e-05
7.16822e-09
1.57654e-05
6.79947e-09
1.59249e-05
6.42937e-09
1.60861e-05
6.05219e-09
1.62489e-05
5.67011e-09
1.64133e-05
5.28877e-09
1.65793e-05
4.90667e-09
1.67468e-05
4.52335e-09
1.69158e-05
4.14104e-09
1.70863e-05
3.76115e-09
1.72583e-05
3.38384e-09
1.74317e-05
3.01022e-09
1.76064e-05
2.64253e-09
1.77825e-05
2.27613e-09
1.79599e-05
1.91862e-09
1.81385e-05
1.56557e-09
1.83184e-05
1.22371e-09
1.84994e-05
8.87479e-10
1.86816e-05
5.63024e-10
1.88649e-05
2.43061e-10
1.90492e-05
-6.41081e-11
1.92345e-05
-3.62571e-10
1.94208e-05
-6.48393e-10
1.96079e-05
-9.22993e-10
1.97958e-05
-1.18751e-09
1.99846e-05
-1.43769e-09
2.0174e-05
-1.67553e-09
2.0364e-05
-1.89876e-09
2.05546e-05
-2.10784e-09
2.07457e-05
-2.30197e-09
2.09372e-05
-2.48014e-09
2.11291e-05
-2.64312e-09
2.13212e-05
-2.78822e-09
2.15134e-05
-2.91637e-09
2.17058e-05
-3.02647e-09
2.18981e-05
-3.11781e-09
2.20903e-05
-3.18947e-09
2.22823e-05
-3.24326e-09
2.24739e-05
-3.27597e-09
2.26651e-05
-3.28361e-09
2.28557e-05
-3.27465e-09
2.30456e-05
-3.23983e-09
2.32347e-05
-3.18337e-09
2.34228e-05
2.36099e-05
4.01585e-10
1.39106e-05
7.19488e-10
1.25621e-05
1.04324e-09
1.20735e-05
1.43699e-09
1.17979e-05
1.87178e-09
1.16274e-05
2.32377e-09
1.15213e-05
2.78235e-09
1.14582e-05
3.24135e-09
1.14258e-05
3.69978e-09
1.14163e-05
4.15615e-09
1.14248e-05
4.61039e-09
1.14476e-05
5.0525e-09
1.14823e-05
5.49032e-09
1.15269e-05
5.91854e-09
1.158e-05
6.33188e-09
1.16406e-05
6.73442e-09
1.17076e-05
7.1142e-09
1.17806e-05
7.48315e-09
1.18588e-05
7.826e-09
1.19417e-05
8.1511e-09
1.20291e-05
8.45036e-09
1.21206e-05
8.72481e-09
1.22158e-05
8.9772e-09
1.23146e-05
9.19861e-09
1.24167e-05
9.3972e-09
1.2522e-05
9.56678e-09
1.26304e-05
9.70607e-09
1.27416e-05
9.81681e-09
1.28556e-05
9.90294e-09
1.29722e-05
9.95641e-09
1.30914e-05
9.98594e-09
1.32131e-05
9.98688e-09
1.33372e-05
9.96332e-09
1.34636e-05
9.91239e-09
1.35923e-05
9.83459e-09
1.37232e-05
9.73196e-09
1.38563e-05
9.60657e-09
1.39915e-05
9.46081e-09
1.41288e-05
9.29262e-09
1.42681e-05
9.10229e-09
1.44094e-05
8.89429e-09
1.45527e-05
8.66893e-09
1.46979e-05
8.4282e-09
1.4845e-05
8.17057e-09
1.4994e-05
7.89832e-09
1.51448e-05
7.61559e-09
1.52974e-05
7.31877e-09
1.54518e-05
7.00987e-09
1.56079e-05
6.69527e-09
1.57657e-05
6.36908e-09
1.59252e-05
6.03532e-09
1.60864e-05
5.69609e-09
1.62492e-05
5.35523e-09
1.64136e-05
5.00698e-09
1.65796e-05
4.65689e-09
1.67471e-05
4.30347e-09
1.69162e-05
3.95186e-09
1.70867e-05
3.59834e-09
1.72586e-05
3.24816e-09
1.7432e-05
2.89927e-09
1.76067e-05
2.55134e-09
1.77828e-05
2.21132e-09
1.79602e-05
1.87173e-09
1.81389e-05
1.53944e-09
1.83187e-05
1.21164e-09
1.84998e-05
8.90237e-10
1.86819e-05
5.76362e-10
1.88652e-05
2.71355e-10
1.90495e-05
-2.4171e-11
1.92348e-05
-3.12011e-10
1.94211e-05
-5.89549e-10
1.96082e-05
-8.57494e-10
1.97961e-05
-1.10983e-09
1.99848e-05
-1.3555e-09
2.01742e-05
-1.58359e-09
2.03642e-05
-1.8029e-09
2.05548e-05
-2.00793e-09
2.07459e-05
-2.19601e-09
2.09374e-05
-2.3711e-09
2.11292e-05
-2.52923e-09
2.13213e-05
-2.67237e-09
2.15136e-05
-2.7982e-09
2.17059e-05
-2.906e-09
2.18982e-05
-2.99464e-09
2.20904e-05
-3.06359e-09
2.22823e-05
-3.11327e-09
2.24739e-05
-3.1386e-09
2.26651e-05
-3.14787e-09
2.28557e-05
-3.13045e-09
2.30456e-05
-3.09513e-09
2.32347e-05
-3.03583e-09
2.34228e-05
2.36098e-05
3.33308e-10
1.39103e-05
5.93037e-10
1.25618e-05
8.40948e-10
1.20733e-05
1.14776e-09
1.17976e-05
1.49057e-09
1.16271e-05
1.85495e-09
1.15209e-05
2.22843e-09
1.14578e-05
2.61264e-09
1.14254e-05
2.98723e-09
1.1416e-05
3.36373e-09
1.14244e-05
3.73849e-09
1.14472e-05
4.11387e-09
1.14819e-05
4.48066e-09
1.15265e-05
4.84166e-09
1.15797e-05
5.19656e-09
1.16402e-05
5.54402e-09
1.17073e-05
5.88051e-09
1.17802e-05
6.2013e-09
1.18584e-05
6.51181e-09
1.19414e-05
6.80218e-09
1.20288e-05
7.0798e-09
1.21203e-05
7.33775e-09
1.22155e-05
7.57387e-09
1.23144e-05
7.79632e-09
1.24165e-05
7.99331e-09
1.25219e-05
8.16818e-09
1.26302e-05
8.31964e-09
1.27414e-05
8.44838e-09
1.28554e-05
8.55308e-09
1.29721e-05
8.63774e-09
1.30913e-05
8.69614e-09
1.3213e-05
8.7281e-09
1.33371e-05
8.739e-09
1.34636e-05
8.72644e-09
1.35923e-05
8.69191e-09
1.37232e-05
8.63496e-09
1.38564e-05
8.55495e-09
1.39916e-05
8.45423e-09
1.41289e-05
8.3301e-09
1.42682e-05
8.19083e-09
1.44096e-05
8.03412e-09
1.45529e-05
7.85396e-09
1.46981e-05
7.65838e-09
1.48452e-05
7.44935e-09
1.49942e-05
7.22483e-09
1.5145e-05
6.98474e-09
1.52976e-05
6.73325e-09
1.5452e-05
6.47029e-09
1.56082e-05
6.19579e-09
1.5766e-05
5.91154e-09
1.59255e-05
5.61982e-09
1.60867e-05
5.31856e-09
1.62495e-05
5.01126e-09
1.64139e-05
4.69988e-09
1.65799e-05
4.38264e-09
1.67475e-05
4.06437e-09
1.69165e-05
3.74185e-09
1.7087e-05
3.41813e-09
1.7259e-05
3.09312e-09
1.74323e-05
2.77031e-09
1.76071e-05
2.44737e-09
1.77831e-05
2.12584e-09
1.79605e-05
1.80695e-09
1.81392e-05
1.49376e-09
1.8319e-05
1.18446e-09
1.85001e-05
8.7838e-10
1.86823e-05
5.81655e-10
1.88655e-05
2.90408e-10
1.90498e-05
7.54555e-12
1.92351e-05
-2.69173e-10
1.94213e-05
-5.35364e-10
1.96084e-05
-7.90242e-10
1.97964e-05
-1.03756e-09
1.99851e-05
-1.27128e-09
2.01744e-05
-1.49604e-09
2.03645e-05
-1.70712e-09
2.0555e-05
-1.90231e-09
2.07461e-05
-2.08874e-09
2.09376e-05
-2.2574e-09
2.11294e-05
-2.41221e-09
2.13215e-05
-2.54964e-09
2.15137e-05
-2.67137e-09
2.1706e-05
-2.77388e-09
2.18983e-05
-2.85897e-09
2.20905e-05
-2.92448e-09
2.22824e-05
-2.96962e-09
2.2474e-05
-2.99371e-09
2.26651e-05
-2.99602e-09
2.28557e-05
-2.97533e-09
2.30456e-05
-2.93331e-09
2.32346e-05
-2.87174e-09
2.34227e-05
2.36097e-05
2.7282e-10
1.391e-05
4.85544e-10
1.25616e-05
6.84401e-10
1.20731e-05
9.2495e-10
1.17973e-05
1.19799e-09
1.16268e-05
1.48954e-09
1.15206e-05
1.80035e-09
1.14575e-05
2.10856e-09
1.14251e-05
2.42201e-09
1.14157e-05
2.73573e-09
1.14241e-05
3.04764e-09
1.14469e-05
3.35953e-09
1.14816e-05
3.66644e-09
1.15262e-05
3.97476e-09
1.15793e-05
4.27999e-09
1.16399e-05
4.57418e-09
1.1707e-05
4.86358e-09
1.17799e-05
5.14565e-09
1.18582e-05
5.4179e-09
1.19412e-05
5.68095e-09
1.20286e-05
5.92788e-09
1.212e-05
6.16577e-09
1.22153e-05
6.38606e-09
1.23141e-05
6.59329e-09
1.24163e-05
6.78141e-09
1.25217e-05
6.95288e-09
1.263e-05
7.1066e-09
1.27413e-05
7.24514e-09
1.28553e-05
7.36022e-09
1.2972e-05
7.45708e-09
1.30912e-05
7.53058e-09
1.32129e-05
7.58777e-09
1.33371e-05
7.62343e-09
1.34635e-05
7.63894e-09
1.35923e-05
7.63311e-09
1.37232e-05
7.60946e-09
1.38564e-05
7.56532e-09
1.39916e-05
7.4998e-09
1.4129e-05
7.41891e-09
1.42683e-05
7.31737e-09
1.44097e-05
7.1955e-09
1.4553e-05
7.06257e-09
1.46982e-05
6.90824e-09
1.48454e-05
6.73619e-09
1.49944e-05
6.55622e-09
1.51452e-05
6.35592e-09
1.52978e-05
6.14693e-09
1.54522e-05
5.92348e-09
1.56084e-05
5.68685e-09
1.57662e-05
5.44101e-09
1.59258e-05
5.18546e-09
1.6087e-05
4.92587e-09
1.62498e-05
4.65242e-09
1.64142e-05
4.37285e-09
1.65802e-05
4.09187e-09
1.67477e-05
3.80215e-09
1.69168e-05
3.5107e-09
1.70873e-05
3.21537e-09
1.72593e-05
2.91769e-09
1.74326e-05
2.6189e-09
1.76074e-05
2.32049e-09
1.77834e-05
2.0223e-09
1.79608e-05
1.72711e-09
1.81395e-05
1.43447e-09
1.83193e-05
1.14391e-09
1.85004e-05
8.60024e-10
1.86825e-05
5.75493e-10
1.88658e-05
3.01385e-10
1.90501e-05
3.07111e-11
1.92354e-05
-2.29004e-10
1.94216e-05
-4.83624e-10
1.96087e-05
-7.30042e-10
1.97966e-05
-9.64471e-10
1.99853e-05
-1.19088e-09
2.01747e-05
-1.40501e-09
2.03647e-05
-1.60782e-09
2.05552e-05
-1.79849e-09
2.07463e-05
-1.9743e-09
2.09378e-05
-2.138e-09
2.11296e-05
-2.28702e-09
2.13216e-05
-2.42046e-09
2.15139e-05
-2.5362e-09
2.17061e-05
-2.63468e-09
2.18984e-05
-2.71505e-09
2.20905e-05
-2.77512e-09
2.22824e-05
-2.81538e-09
2.2474e-05
-2.83365e-09
2.26651e-05
-2.83069e-09
2.28557e-05
-2.80557e-09
2.30455e-05
-2.75787e-09
2.32346e-05
-2.68903e-09
2.34226e-05
2.36096e-05
2.24472e-10
1.39098e-05
4.02861e-10
1.25614e-05
5.53464e-10
1.20729e-05
7.38362e-10
1.17972e-05
9.57382e-10
1.16266e-05
1.20043e-09
1.15204e-05
1.44806e-09
1.14573e-05
1.7027e-09
1.14248e-05
1.96327e-09
1.14154e-05
2.22669e-09
1.14238e-05
2.48868e-09
1.14467e-05
2.74783e-09
1.14813e-05
3.01015e-09
1.15259e-05
3.26672e-09
1.15791e-05
3.52322e-09
1.16396e-05
3.77591e-09
1.17068e-05
4.02687e-09
1.17797e-05
4.26997e-09
1.18579e-05
4.50796e-09
1.19409e-05
4.73592e-09
1.20283e-05
4.95958e-09
1.21198e-05
5.17219e-09
1.22151e-05
5.37384e-09
1.23139e-05
5.56247e-09
1.24161e-05
5.73899e-09
1.25215e-05
5.90144e-09
1.26299e-05
6.05225e-09
1.27411e-05
6.18573e-09
1.28552e-05
6.30441e-09
1.29719e-05
6.40462e-09
1.30911e-05
6.49382e-09
1.32129e-05
6.56164e-09
1.3337e-05
6.6136e-09
1.34635e-05
6.64778e-09
1.35922e-05
6.66806e-09
1.37232e-05
6.66443e-09
1.38564e-05
6.64651e-09
1.39916e-05
6.61114e-09
1.4129e-05
6.55753e-09
1.42684e-05
6.48916e-09
1.44097e-05
6.40287e-09
1.45531e-05
6.30032e-09
1.46983e-05
6.18228e-09
1.48455e-05
6.05086e-09
1.49945e-05
5.89887e-09
1.51454e-05
5.74205e-09
1.5298e-05
5.56603e-09
1.54524e-05
5.37796e-09
1.56086e-05
5.17946e-09
1.57664e-05
4.97011e-09
1.5926e-05
4.74952e-09
1.60872e-05
4.51883e-09
1.625e-05
4.2821e-09
1.64145e-05
4.03811e-09
1.65805e-05
3.78486e-09
1.6748e-05
3.52783e-09
1.6917e-05
3.26418e-09
1.70876e-05
2.99566e-09
1.72595e-05
2.72704e-09
1.74329e-05
2.45641e-09
1.76076e-05
2.18105e-09
1.77837e-05
1.90759e-09
1.79611e-05
1.63548e-09
1.81397e-05
1.36101e-09
1.83196e-05
1.09011e-09
1.85006e-05
8.22268e-10
1.86828e-05
5.61934e-10
1.88661e-05
3.02092e-10
1.90503e-05
4.9766e-11
1.92356e-05
-1.98874e-10
1.94218e-05
-4.37435e-10
1.96089e-05
-6.70747e-10
1.97968e-05
-8.95748e-10
1.99855e-05