/*--------------------------------*- C++ -*----------------------------------*\
  =========                 |
  \\      /  F ield         | OpenFOAM: The Open Source CFD Toolbox
   \\    /   O peration     | Website:  https://openfoam.org
    \\  /    A nd           | Version:  10
     \\/     M anipulation  |
\*---------------------------------------------------------------------------*/
FoamFile
{
    format      ascii;
    class       volScalarField;
    location    "7000";
    object      Co;
}
// * * * * * * * * * * * * * * * * * * * * * * * * * * * * * * * * * * * * * //

dimensions      [0 0 0 0 0 0 0];

internalField   nonuniform List<scalar> 
17981
(
3.41406
3.53306
3.49665
3.45324
3.40042
3.33769
3.2648
3.18159
3.08799
2.9841
2.87001
2.74585
2.61174
2.46783
2.31421
2.151
2.01598
2.13672
2.48928
2.85037
3.21998
3.59812
3.98482
4.38017
4.78426
5.19723
5.61925
6.0505
6.49122
6.94165
7.40207
7.87278
8.35412
8.84643
9.35008
9.86548
10.393
10.9332
11.4864
12.0531
12.6339
13.2291
13.8395
14.4655
15.1077
15.7666
16.443
17.1373
5.19804
5.20646
5.19329
5.16562
5.12431
5.06975
5.00225
4.92205
4.8294
4.72452
4.60766
4.47905
4.33893
4.18753
4.02507
3.85174
3.66772
3.47314
3.26812
3.05276
2.82715
2.8149
3.12739
3.54751
3.97685
4.41561
4.86398
5.32221
5.79054
6.26928
6.75873
7.25922
7.77112
8.29481
8.83068
9.37917
9.94069
10.5157
11.1047
11.7082
12.3267
12.9607
13.6108
14.2774
14.9613
15.663
16.3832
17.1222
6.40419
6.44251
6.4619
6.46338
6.44777
6.41555
6.36726
6.3033
6.22417
6.13035
6.02229
5.9004
5.76507
5.61664
5.45543
5.2817
5.09571
4.89766
4.68774
4.46607
4.23277
3.98791
3.73153
3.46365
3.51856
3.94659
4.41666
4.89752
5.38947
5.89283
6.40794
6.93517
7.47489
8.02751
8.59345
9.17315
9.76706
10.3757
10.9995
11.6389
12.2946
12.9671
13.6568
14.3645
15.0906
15.8358
16.6006
17.3861
7.39031
7.36959
7.33369
7.28088
7.21166
7.12644
7.02565
6.90967
6.77886
6.63354
6.47401
6.30054
6.11338
5.91272
5.69876
5.47165
5.2315
4.97842
4.71247
4.43368
4.14206
4.10696
4.47186
4.97609
5.49234
6.02096
6.56232
7.1168
7.68481
8.26675
8.86307
9.47423
10.1007
10.743
11.4015
12.0769
12.7697
13.4803
14.2095
14.9577
15.7256
16.5138
17.3229
18.1555
8.0597
8.05771
8.03728
7.999
7.9432
7.87024
7.78044
7.67412
7.55159
7.41314
7.25904
7.08956
6.90492
6.70534
6.49101
6.26209
6.01872
5.761
5.48903
5.20284
4.90248
4.64663
4.80016
5.32573
5.8642
6.41592
6.98127
7.56064
8.15443
8.76308
9.38701
10.0267
10.6825
11.3551
12.0448
12.7523
13.4779
14.2222
14.9859
15.7694
16.5734
17.3982
18.2457
19.1221
8.50916
8.52169
8.516
8.49163
8.44878
8.38768
8.30857
8.21171
8.09736
7.96577
7.8172
7.65189
7.47007
7.27196
7.05774
6.82758
6.58165
6.32006
6.04292
5.75029
5.44223
5.2164
5.41547
5.96249
6.52312
7.09773
7.68672
8.29049
8.90948
9.54411
10.1948
10.8621
11.5464
12.2482
12.9681
13.7065
14.4639
15.2409
16.038
16.8559
17.6949
18.5565
19.4452
20.3687
8.82279
8.83209
8.82326
8.79494
8.74726
8.68033
8.59435
8.48956
8.36619
8.22447
8.06465
7.88693
7.69155
7.47871
7.24858
7.00134
6.73713
6.45607
6.15826
5.84377
5.81231
6.22503
6.79352
7.37627
7.97367
8.58616
9.21416
9.85813
10.5185
11.1958
11.8905
12.6031
13.3341
14.084
14.8534
15.6428
16.4528
17.2839
18.1368
19.0122
19.9129
20.8452
21.814
9.01601
9.00302
8.96915
8.91497
8.84052
8.74596
8.63144
8.49715
8.3433
8.1701
7.97776
7.7665
7.53652
7.28802
7.02116
6.7361
6.43296
6.31782
6.64324
7.22022
7.81162
8.41784
9.03931
9.67647
10.3297
10.9996
11.6866
12.3911
13.1136
13.8548
14.615
15.3949
16.1949
17.0158
17.8579
18.722
19.6085
20.5187
21.4567
22.4273
23.4323
9.09429
9.07832
9.04027
8.9806
8.89934
8.7965
8.67231
8.52698
8.36072
8.17377
7.96634
7.73865
7.49093
7.22338
6.9362
6.82553
7.15129
7.73572
8.33463
8.94844
9.57755
10.2224
10.8834
11.561
12.2557
12.9679
13.6982
14.447
15.2149
16.0025
16.8101
17.6384
18.488
19.3594
20.2533
21.1702
22.1117
23.0813
24.0821
25.1144
9.06902
9.02807
8.96367
8.87667
8.76704
8.63473
8.47987
8.30256
8.10306
7.88164
7.63857
7.3741
7.3277
7.71051
8.29983
8.90365
9.52233
10.1563
10.8058
11.4715
12.1536
12.8527
13.5691
14.3034
15.0561
15.8276
16.6185
17.4292
18.2603
19.1124
19.9861
20.8818
21.8002
22.742
23.7082
24.7011
25.723
26.7741
8.79513
8.68111
8.54404
8.38287
8.19784
7.98925
7.75738
7.81384
8.28573
8.87502
9.47874
10.0972
10.7308
11.38
12.045
12.7263
13.4243
14.1394
14.872
15.6227
16.3918
17.1799
17.9874
18.8148
19.6627
20.5316
21.422
22.3345
23.2696
24.228
25.2103
26.218
27.2525
28.3146
8.75227
8.66793
8.5566
8.41976
8.2576
8.09462
8.2957
8.86452
9.44726
10.0443
10.6559
11.2824
11.9243
12.5817
13.2552
13.9451
14.6518
15.3758
16.1173
16.8769
17.655
18.4521
19.2686
20.105
20.9619
21.8396
22.7389
23.6601
24.6039
25.5708
26.5615
27.5768
28.6178
29.6854
8.62612
8.57787
8.50185
8.39905
8.48444
8.90326
9.45848
10.0273
10.6102
11.2074
11.8192
12.4461
13.0882
13.7462
14.4201
15.1106
15.8179
16.5425
17.2848
18.0452
18.8241
19.622
20.4394
21.2768
22.1345
23.0133
23.9135
24.8357
25.7805
26.7485
27.7402
28.7564
29.7979
30.8655
8.39075
8.38825
8.57739
9.0354
9.55758
10.0926
10.6409
11.2028
11.7786
12.3687
12.9734
13.5931
14.2282
14.879
15.5459
16.2293
16.9296
17.6472
18.3825
19.1358
19.9078
20.6988
21.5092
22.3396
23.1905
24.0623
24.9556
25.871
26.809
27.7701
28.7551
29.7645
30.7989
31.8591
9.30245
9.78777
10.285
10.7945
11.3168
11.8523
12.4012
12.964
13.541
14.1325
14.739
15.3609
15.9984
16.652
17.322
18.0089
18.7131
19.435
20.1749
20.9334
21.7109
22.5079
23.3248
24.1621
25.0204
25.9001
26.8018
27.7261
28.6736
29.6448
30.6403
31.661
32.7072
10.6215
11.0914
11.5728
12.0664
12.5724
13.0915
13.6239
14.1701
14.7303
15.305
15.8946
16.4994
17.1198
17.7562
18.4089
19.0785
19.7652
20.4696
21.1919
21.9327
22.6924
23.4714
24.2703
25.0896
25.9297
26.7911
27.6745
28.5804
29.5092
30.4618
31.4386
32.4403
33.4675
11.9646
12.4184
12.8829
13.3594
13.8483
14.3499
14.8647
15.3931
15.9354
16.4921
17.0635
17.65
18.2519
18.8697
19.5038
20.1545
20.8222
21.5073
22.2103
22.9316
23.6716
24.4309
25.2098
26.0088
26.8285
27.6695
28.5321
29.4171
30.3249
31.2562
32.2116
33.1917
34.1972
13.7402
14.189
14.6497
15.1225
15.6078
16.106
16.6176
17.143
17.6825
18.2365
18.8055
19.3898
19.9897
20.6057
21.2381
21.8874
22.5539
23.238
23.9403
24.661
25.4008
26.16
26.9391
27.7387
28.5592
29.4011
30.2651
31.1517
32.0614
32.995
33.953
34.9362
15.0271
15.4622
15.9097
16.3688
16.8402
17.3243
17.8214
18.332
18.8566
19.3954
19.949
20.5176
21.1017
21.7016
22.3178
22.9505
23.6003
24.2676
24.9527
25.6561
26.3782
27.1195
27.8805
28.6617
29.4635
30.2864
31.131
31.9978
32.8875
33.8006
34.7376
35.6994
16.2442
16.6689
17.1059
17.5543
18.0146
18.4873
18.9728
19.4715
19.9839
20.5103
21.0511
21.6068
22.1776
22.7641
23.3664
23.9852
24.6207
25.2734
25.9437
26.6321
27.3389
28.0648
28.81
29.5751
30.3605
31.1668
31.9945
32.8441
33.7161
34.6112
35.5298
36.4727
17.3597
17.7766
18.2061
18.6468
19.0991
19.5635
20.0404
20.5303
21.0335
21.5504
22.0814
22.6268
23.1871
23.7625
24.3535
24.9605
25.5839
26.2242
26.8817
27.5569
28.2503
28.9622
29.6933
30.4439
31.2145
32.0057
32.8179
33.6517
34.5076
35.3862
36.2881
37.2138
18.3472
18.7583
19.1826
19.6179
20.0646
20.5233
20.9943
21.4778
21.9744
22.4842
23.0076
23.545
24.0967
24.663
25.2443
25.8411
26.4536
27.0823
27.7277
28.3902
29.0702
29.7682
30.4847
31.2201
31.975
32.7499
33.5452
34.3616
35.1996
36.0597
36.9425
37.8487
19.1914
19.5978
20.0178
20.4489
20.8916
21.3463
21.8132
22.2926
22.7847
23.2897
23.808
24.3398
24.8853
25.4448
26.0187
26.6073
27.2109
27.8299
28.4648
29.116
29.7839
30.4689
31.1715
31.8923
32.6317
33.3902
34.1684
34.9667
35.7859
36.6264
37.4889
38.374
19.886
20.2871
20.7019
21.1284
21.5671
22.0182
22.4818
22.9582
23.4475
23.9497
24.465
24.9935
25.5354
26.0909
26.6601
27.2434
27.8411
28.4534
29.0808
29.7236
30.3822
31.0571
31.7487
32.4576
33.1841
33.9288
34.6923
35.4751
36.2779
37.101
37.9453
38.8113
20.433
20.8255
21.2319
21.6513
22.0841
22.5303
22.99
23.4632
23.9498
24.4499
24.9633
25.49
26.0301
26.5836
27.1505
27.7311
28.3254
28.9338
29.5565
30.1939
30.8462
31.514
32.1975
32.8974
33.6139
34.3478
35.0994
35.8694
36.6583
37.4668
38.2955
39.145
20.8411
21.2194
21.6125
22.0205
22.4435
22.8817
23.335
23.8032
24.2859
24.7831
25.2943
25.8195
26.3585
26.911
27.477
28.0564
28.6493
29.2558
29.8761
30.5104
31.1589
31.822
32.5
33.1934
33.9025
34.6279
35.3701
36.1296
36.9071
37.7031
38.5183
39.3532
21.1246
21.4816
21.8552
22.2459
22.6541
23.0797
23.5225
23.9822
24.4582
24.9501
25.4575
25.9798
26.5168
27.0679
27.633
28.2117
28.804
29.4097
30.0288
30.6614
31.3077
31.9679
32.6422
33.331
34.0346
34.7535
35.4881
36.239
37.0068
37.792
38.5953
39.4173
21.294
21.6228
21.9706
22.3382
22.726
23.1341
23.5619
24.0089
24.4745
24.9579
25.4586
25.9757
26.5088
27.0571
27.6202
28.1976
28.7889
29.3938
30.0121
30.6437
31.2886
31.9469
32.6186
33.3039
34.0033
34.717
35.4454
36.189
36.9484
37.724
38.5166
39.3268
21.3607
21.6552
21.9715
22.3106
22.673
23.0587
23.467
23.8973
24.3486
24.82
25.3108
25.8199
26.3466
26.8901
27.4494
28.0241
28.6133
29.2167
29.8338
30.4643
31.1079
31.7645
32.4341
33.1167
33.8126
34.5219
35.2449
35.9822
36.734
37.501
38.2837
39.0828
21.595
21.8746
22.1803
22.5125
22.8711
23.2556
23.665
24.0984
24.5544
25.0321
25.5304
26.0481
26.5843
27.1379
27.7081
28.2939
28.8947
29.5097
30.1384
30.7804
31.4353
32.1029
32.7831
33.4759
34.1813
34.8996
35.6311
36.376
37.135
37.9085
38.697
21.4599
21.698
21.9655
22.2626
22.5898
22.9465
23.3315
23.7436
24.1813
24.6433
25.1282
25.6347
26.1616
26.7078
27.2719
27.853
28.45
29.0622
29.6886
30.3285
30.9816
31.6472
32.325
33.015
33.7169
34.4309
35.1571
35.8958
36.6472
37.4119
38.1904
21.2745
21.4666
21.6908
21.948
22.2391
22.5637
22.9205
23.308
23.7244
24.1681
24.6373
25.1307
25.6466
26.1837
26.7406
27.3159
27.9084
28.517
29.1407
29.7784
30.4295
31.0932
31.769
32.4565
33.1554
33.8656
34.5871
35.32
36.0644
36.8209
37.5896
21.0729
21.2132
21.3877
21.5986
21.848
22.1353
22.4594
22.8182
23.2098
23.6322
24.0833
24.5613
25.0646
25.5913
26.1398
26.7086
27.2961
27.9009
28.5218
29.1575
29.8069
30.4691
31.1434
31.8291
32.5256
33.2327
33.9501
34.6779
35.416
36.1647
36.9243
21.2441
21.4433
21.688
21.9739
22.2993
22.6619
23.0594
23.4895
23.95
24.4388
24.9539
25.4933
26.055
26.6374
27.2386
27.8571
28.4913
29.1399
29.8015
30.4752
31.1601
31.8553
32.5603
33.2747
33.9983
34.7309
35.4727
36.2236
20.8979
21.0411
21.2361
21.4782
21.7654
22.0953
22.4649
22.8717
23.3129
23.7861
24.2889
24.8189
25.374
25.9518
26.5503
27.1675
27.8015
28.4507
29.1133
29.7881
30.4738
31.1693
31.8738
32.5867
33.3074
34.0357
34.7715
35.5147
20.5487
20.6343
20.7775
20.9733
21.2201
21.5152
21.8554
22.2377
22.6589
23.1162
23.6069
24.1282
24.6774
25.252
25.8495
26.4676
27.1038
27.756
28.4223
29.1007
29.7898
30.4881
31.1944
31.9078
32.6276
33.3533
34.0845
34.8211
20.1767
20.2094
20.3029
20.4533
20.6599
20.92
21.2306
21.5883
21.9897
22.4316
22.9111
23.425
23.9703
24.5441
25.4056
26.6267
27.8702
28.9969
30.0094
30.9118
31.7091
32.4076
33.0138
33.5344
33.9765
34.3468
34.6517
34.8975
19.8006
19.7817
19.8252
19.929
20.0934
20.3167
20.5959
20.9275
21.3082
21.7344
22.2029
22.7103
23.4773
24.8629
26.5695
28.1516
29.6054
30.93
32.127
33.1998
34.1538
34.9952
35.7313
36.3698
36.9187
37.386
37.7793
38.1059
19.46
19.3836
19.3707
19.4212
19.5371
19.7177
19.9604
20.2618
20.6184
21.0265
21.4824
22.1711
23.6831
25.7626
27.72
29.5452
31.2315
32.7758
34.1781
35.4409
36.5691
37.5693
38.4493
39.2177
39.8837
40.4563
40.9449
41.3579
19.1727
19.0314
18.9538
18.9423
19.0012
19.1311
19.33
19.5949
19.922
20.3077
20.7479
21.9387
24.1084
26.4633
28.6943
30.7867
32.7303
34.5188
36.1499
37.6246
38.9472
40.124
41.1634
42.075
42.8691
43.5563
44.1473
44.6523
18.9099
18.7054
18.5611
18.4836
18.4799
18.5527
18.7015
18.9236
19.2155
19.5737
19.9941
21.57
24.2886
26.9397
29.4683
31.8545
34.0829
36.1432
38.03
39.742
41.282
42.656
43.8727
44.9425
45.8771
46.6887
47.3899
47.9928
18.6291
18.3735
18.1699
18.0293
17.9625
17.9756
18.07
18.2443
18.4959
18.8213
19.3095
21.1445
24.1959
27.1631
30.0143
32.7225
35.2663
37.63
39.8035
41.7824
43.5671
45.1627
46.5776
47.8232
48.9125
49.8598
50.6796
51.3863
18.3273
18.0333
17.7797
17.5817
17.454
17.4062
17.4426
17.5642
17.7694
18.0557
18.4867
20.4296
23.7944
27.0962
30.2948
33.3553
36.2485
38.9515
41.4481
43.729
45.7913
47.6379
49.2766
50.7193
51.9806
53.0768
54.0249
54.8421
18.0423
17.7163
17.4186
17.1676
16.9801
16.8694
16.8433
16.9056
17.0567
17.2954
17.6201
19.4908
23.0365
26.6881
30.2582
33.7026
36.9824
40.0658
42.9284
45.5538
47.9338
50.0679
51.9624
53.6291
55.0838
56.3454
57.4337
58.3694
17.8191
17.4621
17.1232
16.8214
16.5745
16.3983
16.3047
16.3003
16.3883
16.5693
16.843
18.4229
21.8623
25.8734
29.8363
33.6958
37.4021
40.912
44.1904
47.2113
49.9588
52.4266
54.6177
56.5429
58.2191
59.6674
60.9115
61.9758
17.6628
17.2802
16.9057
16.5586
16.2559
16.0156
15.8524
15.7768
15.7947
15.9091
16.1213
17.1444
20.2066
24.5763
28.9454
33.2474
37.4197
41.4057
45.1566
48.6337
51.8096
54.6693
57.2098
59.439
61.3739
63.0379
64.4587
65.6657
17.5315
17.138
16.7418
16.3625
16.0163
15.7215
15.4954
15.3514
15.2987
15.3426
15.4865
15.7331
18.097
22.7185
27.4934
32.2548
36.9268
41.4375
45.7218
49.7241
53.4016
56.7258
59.6838
62.2773
64.5213
66.4409
68.0679
69.4378
17.3663
16.9811
16.5835
16.1934
15.8254
15.4968
15.2254
15.0268
14.9127
14.891
14.9673
15.1463
16.4747
20.2364
25.3931
30.6116
35.8026
40.8782
45.7544
50.3556
54.618
58.4941
61.9551
64.9916
67.6128
69.8431
71.7183
73.2806
17.1139
16.7564
16.3815
16.0077
15.6469
15.3138
15.0245
14.7949
14.6384
14.5649
14.5819
14.6963
14.9147
17.4047
22.5781
28.2238
33.9294
39.5916
45.1071
50.3771
55.3125
59.8399
63.907
67.4858
70.5733
73.1893
75.3713
77.1685
16.7772
16.4606
16.1274
15.7932
15.4665
15.158
14.8802
14.6476
14.4734
14.3684
14.3417
14.4013
14.5564
15.3814
19.0278
25.0338
31.2168
37.4588
43.6387
49.6337
55.3257
60.6094
65.4001
69.6411
73.3077
76.4074
78.9754
81.0666
16.389
16.1193
15.9652
15.8016
15.575
15.2555
14.8023
14.5732
14.4069
14.2937
14.2428
14.2629
14.3639
14.5582
16.2453
21.0343
27.6165
34.3941
41.2305
47.9812
54.4986
60.6404
66.2812
71.3235
75.7077
79.4171
82.4758
84.9407
16.1655
16.1542
16.2537
16.3166
16.2664
16.0417
15.5568
15.1224
14.5037
14.318
14.2678
14.2701
14.3342
14.473
14.7034
17.2082
23.1249
30.3462
37.7867
45.2853
52.6679
59.7547
66.3728
72.3718
77.6406
82.1204
85.8093
88.7575
16.2725
16.5405
16.7856
16.9888
17.1182
17.1272
16.9473
16.4847
15.619
14.9351
14.3843
14.3991
14.4542
14.5608
14.7357
15.0014
18.2736
25.2999
33.2326
41.4146
49.6536
57.737
65.4435
72.5606
78.9079
84.361
88.8682
92.4543
16.7876
17.1236
17.4383
17.7109
17.9075
17.9776
17.8478
17.4156
16.552
15.4536
14.6076
14.6919
14.8031
14.9554
15.1701
15.4765
19.4479
27.5468
36.2706
45.2822
54.3488
63.2079
71.5841
79.2143
85.8825
91.4537
95.8956
16.8607
17.2663
17.6684
18.0534
18.3963
18.6604
18.7934
18.7179
18.3262
17.4792
16.0457
15.2004
15.1436
15.3191
15.5263
15.7914
16.2462
20.8426
29.8702
39.4734
49.4119
59.4008
69.1128
78.2009
86.3381
93.2684
98.8552
17.7088
18.1818
18.6289
19.0338
19.3595
19.5517
19.5314
19.1857
18.3672
16.9055
15.8774
15.7276
15.9764
16.2487
16.5762
17.2469
22.4348
32.3389
42.9219
53.8962
64.9083
75.5449
85.3658
93.9641
101.044
17.5607
18.0934
18.6174
19.1243
19.5876
19.9699
20.2181
20.2506
19.9519
19.1679
17.7176
16.5552
16.3831
16.7077
17.0501
17.4488
18.3686
24.2207
35.1024
46.7845
58.9173
71.0569
82.6739
93.2058
102.15
17.8258
18.4076
18.9801
19.5343
20.0437
20.4727
20.767
20.8459
20.5874
19.8358
18.3976
17.1678
17.0258
17.4199
17.831
18.3079
19.6405
26.3757
38.3622
51.287
64.7182
78.0878
90.7088
101.858
17.415
18.0301
18.6463
19.2581
19.8478
20.3903
20.8502
21.178
21.2873
21.0585
20.3302
18.8973
17.6512
17.574
18.029
18.51
19.0797
21.1076
29.0779
42.3304
56.674
71.5632
86.2557
99.8443
16.8869
17.5261
18.1705
18.8172
19.4552
20.068
20.6303
21.1099
21.4542
21.5793
21.3665
20.6484
19.2078
17.9788
17.9882
18.5007
19.0618
19.7532
22.841
32.497
47.2251
63.2075
79.7355
95.8112
16.9346
17.5989
18.2615
18.9239
19.5755
20.1995
20.7725
21.2609
21.6113
21.7429
21.5356
20.8161
19.3538
18.1618
18.2789
18.8555
19.5198
20.3793
24.9443
36.8122
53.2905
71.1862
89.5412
16.2837
16.9597
17.6325
18.3078
18.9791
19.6368
20.2653
20.8416
21.332
21.6843
21.8181
21.6109
20.8825
19.3854
18.2463
18.509
19.173
19.9855
21.0895
27.5632
42.205
60.7874
80.923
16.2844
16.9727
17.6542
18.3348
19.0091
19.6679
20.2965
20.8725
21.363
21.7167
21.8526
21.6452
20.9042
19.3616
18.3049
18.8013
19.6112
20.6622
22.145
30.9112
48.8526
69.9809
15.5945
16.2956
16.9868
17.6768
18.3619
19.0378
19.6966
20.3248
20.9011
21.3933
21.7503
21.8906
21.6836
20.9264
19.3261
18.47
19.3247
20.3862
21.8234
24.553
35.9871
57.0656
14.8939
15.6191
16.3333
17.0373
17.7345
18.4239
19.1019
19.7618
20.391
20.9686
21.4625
21.8214
21.9614
21.7447
20.9513
19.3115
19.0647
20.1673
21.6032
23.6049
28.4257
43.1455
14.9755
15.7129
16.4359
17.1536
17.8631
18.5614
19.2447
19.9071
20.5363
21.1113
21.5989
21.9456
22.0621
21.7983
20.9089
19.5052
19.8189
21.2293
23.155
25.9414
33.7633
14.3215
15.103
15.8762
16.6362
17.3808
18.1097
18.8211
19.5117
20.1746
20.7974
21.3583
21.8209
22.1261
22.175
21.7976
20.7147
19.6042
20.6042
22.3843
24.9793
28.9521
13.6796
14.5319
15.3691
16.1897
16.9906
17.7702
18.5271
19.2583
19.9585
20.6192
21.2275
21.7597
22.1746
22.4054
22.3351
21.7643
20.3641
19.8683
21.4247
23.7464
27.4404
14.0062
14.9247
15.8256
16.7079
17.5658
18.3954
19.1928
19.9527
20.6676
21.3268
21.9147
22.4036
22.7481
22.8661
22.62
21.764
20.1941
20.5153
22.5036
25.8365
13.6299
14.6008
15.5815
16.5605
17.5248
18.4621
19.3613
20.2132
21.0096
21.7414
22.3961
22.9555
23.3897
23.6426
23.6175
23.1376
21.8887
20.4262
21.502
24.4052
13.6432
14.5893
15.6046
16.661
17.7303
18.7889
19.8176
20.8005
21.7224
22.5699
23.329
23.9832
24.5091
24.8692
24.9971
24.7667
23.9456
22.104
20.8314
23.2635
14.361
15.2153
16.1885
17.259
18.3979
19.5745
20.7505
21.8917
22.9696
23.963
24.8547
25.6269
26.2599
26.7245
26.973
26.9174
26.3843
25.0386
22.3428
22.4888
16.2009
17.0664
17.9549
18.9165
19.9859
21.1493
22.3785
23.6386
24.8785
26.0571
27.1461
28.1114
28.9189
29.5344
29.9162
29.9971
29.652
28.6159
26.3264
23.2147
20.5308
20.2296
20.3505
20.9409
21.9231
23.2277
24.7346
26.3477
27.9638
29.4991
30.9041
32.1346
33.1475
33.9026
34.3651
34.4829
34.1667
33.2151
31.1418
26.9132
28.383
30.0504
31.0696
31.62
31.9025
32.1254
32.4782
33.037
33.8142
34.8187
35.995
37.2348
38.4327
39.4692
40.2376
40.625
40.507
39.694
37.7586
33.6959
21.263
20.8856
21.1848
22.1343
23.7663
25.9904
28.7445
31.8463
35.0472
38.2471
41.2871
44.0226
46.3577
48.2173
49.5617
50.3167
50.3567
49.4899
47.2943
42.6807
38.6108
41.1966
43.3795
44.9952
46.0719
46.6863
47.0465
47.3328
47.6972
48.4071
49.51
51.0819
53.0436
55.2265
57.4157
59.3319
60.6392
60.9756
59.7623
55.6168
24.6686
23.4064
22.5836
22.3577
22.9498
24.4503
27.0967
30.3394
33.9637
38.3403
42.9471
47.731
52.5956
57.4965
62.3812
67.1289
71.4152
74.7941
76.1819
73.5777
18.6752
23.1656
27.1218
30.4179
32.9861
34.8514
36.3733
37.3101
38.1672
39.6537
41.5954
44.3067
48.0134
52.8814
58.9866
66.3654
74.6933
83.714
90.7824
91.73
20.8729
18.7727
17.0314
15.5707
14.3329
13.3662
12.7201
12.4645
13.0089
14.3024
16.2176
18.8683
22.4874
27.4604
34.3479
44.118
57.9346
78.8725
111.087
167.606
214.906
211.883
208.962
206.143
203.425
200.809
198.292
195.869
193.533
191.275
189.087
186.961
184.891
182.87
180.894
178.961
177.066
175.199
173.35
171.516
169.693
167.881
166.085
164.306
162.546
160.802
159.069
157.34
155.608
153.866
152.103
150.309
148.471
146.574
144.6
142.529
140.333
137.981
135.434
132.643
129.545
127.007
126.555
127.398
128.049
128.375
128.203
127.398
126.582
132.511
173.624
286.564
455.141
556.864
409.034
209.415
206.49
203.664
200.939
198.313
195.789
193.363
191.03
188.783
186.614
184.514
182.475
180.49
178.553
176.659
174.803
172.982
171.189
169.418
167.666
165.925
164.194
162.475
160.774
159.089
157.419
155.758
154.102
152.442
150.771
149.079
147.355
145.586
143.756
141.846
139.833
137.688
135.376
132.852
130.06
126.94
126.108
127.886
129.886
132.18
134.923
138.467
143.911
156.171
194.094
286.592
413.032
480.988
370.254
138.289
204.031
201.198
198.464
195.827
193.29
190.853
188.514
186.267
184.105
182.02
180.003
178.046
176.142
174.285
172.471
170.695
168.955
167.244
165.556
163.884
162.226
160.579
158.945
157.325
155.719
154.126
152.543
150.963
149.38
147.787
146.174
144.53
142.843
141.097
139.273
137.349
135.296
133.08
130.657
127.97
125.902
126.397
128.903
131.879
135.522
140.222
146.896
158.407
185.254
250.891
352.32
422.297
371.017
189.551
58.7714
198.779
196.038
193.393
190.845
188.396
186.046
183.793
181.632
179.556
177.555
175.621
173.747
171.924
170.148
168.414
166.717
165.052
163.415
161.801
160.204
158.625
157.059
155.508
153.971
152.449
150.939
149.438
147.942
146.445
144.94
143.418
141.871
140.285
138.647
136.94
135.142
133.229
131.168
128.92
126.436
124.96
126.207
129.336
133.171
138.056
144.695
154.83
173.608
214.914
291.325
363.388
362.164
241.836
87.7297
41.4641
193.654
191.003
188.447
185.987
183.625
181.361
179.193
177.117
175.125
173.208
171.357
169.563
167.82
166.121
164.461
162.837
161.244
159.678
158.136
156.615
155.113
153.628
152.16
150.708
149.272
147.848
146.435
145.029
143.625
142.217
140.799
139.361
137.894
136.386
134.821
133.183
131.451
129.598
127.593
125.396
124.002
125.369
128.973
133.497
139.441
147.854
161.205
185.818
233.85
300.643
334.656
282.568
148.861
48.4701
30.9977
188.652
186.089
183.62
181.246
178.97
176.791
174.708
172.716
170.806
168.97
167.198
165.482
163.814
162.188
160.599
159.044
157.521
156.026
154.556
153.11
151.686
150.282
148.896
147.529
146.179
144.844
143.522
142.211
140.906
139.603
138.296
136.979
135.643
134.28
132.877
131.422
129.9
128.29
126.572
124.719
122.942
123.848
127.761
132.756
139.465
149.175
164.663
191.818
237.802
286.428
290.464
212.794
97.9693
38.0855
25.4245
183.769
181.292
178.909
176.62
174.427
172.332
170.332
168.421
166.591
164.834
163.139
161.497
159.9
158.342
156.821
155.335
153.88
152.455
151.058
149.686
148.338
147.013
145.709
144.426
143.163
141.918
140.69
139.476
138.274
137.08
135.891
134.7
133.504
132.294
131.065
129.806
128.508
127.16
125.751
124.267
122.701
122.694
125.772
131.04
138.208
148.633
164.872
191.374
230.884
264.045
248.996
165.314
75.359
36.2936
24.1161
179.001
176.609
174.31
172.104
169.993
167.979
166.059
164.227
162.475
160.792
159.17
157.598
156.069
154.578
153.124
151.704
150.317
148.961
147.635
146.335
145.063
143.815
142.592
141.392
140.215
139.06
137.926
136.81
135.712
134.629
133.558
132.497
131.443
130.39
129.337
128.277
127.207
126.124
125.025
123.913
122.798
121.706
123.273
128.437
135.722
146.187
161.817
185.398
216.954
238.321
213.043
135.221
66.1515
36.4013
25.1738
174.344
172.035
169.817
167.691
165.66
163.725
161.883
160.127
158.449
156.839
155.286
153.781
152.317
150.891
149.502
148.148
146.827
145.539
144.281
143.053
141.854
140.682
139.537
138.419
137.326
136.259
135.217
134.198
133.203
132.229
131.276
130.343
129.428
128.53
127.648
126.782
125.933
125.105
124.304
123.546
122.858
122.295
122.086
125.064
132.128
142.023
156.069
175.682
199.631
213.062
184.864
116.998
62.5608
37.001
26.1645
169.793
167.564
165.425
163.378
161.424
159.565
157.798
156.116
154.51
152.969
151.483
150.042
148.641
147.278
145.951
144.661
143.405
142.182
140.991
139.832
138.704
137.605
136.536
135.497
134.486
133.504
132.551
131.626
130.729
129.861
129.022
128.211
127.429
126.677
125.958
125.274
124.631
124.038
123.51
123.073
122.771
122.677
122.93
123.784
127.949
136.668
148.722
164.403
182.152
191.48
169.333
113.288
63.8179
38.3919
27.534
165.343
163.191
161.129
159.157
157.279
155.493
153.799
152.188
150.65
149.177
147.754
146.374
145.034
143.731
142.467
141.238
140.044
138.885
137.759
136.666
135.606
134.578
133.581
132.617
131.684
130.783
129.915
129.079
128.277
127.508
126.775
126.078
125.42
124.804
124.234
123.715
123.258
122.876
122.591
122.436
122.467
122.774
123.513
124.958
127.585
132.147
140.461
152.807
169.934
185.169
170.434
120.614
69.8176
40.3414
29.2839
160.988
158.912
156.924
155.025
153.219
151.505
149.881
148.339
146.868
145.458
144.096
142.774
141.493
140.249
139.043
137.873
136.74
135.641
134.578
133.549
132.553
131.592
130.664
129.771
128.911
128.087
127.298
126.545
125.83
125.154
124.519
123.927
123.382
122.887
122.45
122.078
121.784
121.586
121.509
121.594
121.902
122.532
123.649
125.523
128.584
133.447
140.961
152.175
167.467
181.232
171.021
129.163
81.0882
47.0135
31.2902
156.725
154.721
152.805
150.977
149.241
147.596
146.04
144.564
143.158
141.808
140.503
139.238
138.013
136.825
135.675
134.563
133.486
132.446
131.442
130.473
129.539
128.64
127.777
126.95
126.159
125.406
124.69
124.014
123.379
122.787
122.24
121.742
121.297
120.91
120.59
120.345
120.191
120.148
120.245
120.524
121.053
121.93
123.318
125.466
128.738
133.613
140.697
150.652
163.587
175.695
170.254
137.406
93.6388
55.6207
34.2322
152.549
150.615
148.767
147.008
145.34
143.763
142.273
140.861
139.516
138.224
136.972
135.761
134.589
133.455
132.359
131.301
130.279
129.294
128.345
127.432
126.556
125.716
124.913
124.148
123.42
122.731
122.083
121.476
120.913
120.396
119.928
119.513
119.156
118.863
118.643
118.506
118.47
118.555
118.792
119.225
119.921
120.977
122.541
124.833
128.147
132.843
139.342
148.042
158.873
169.226
167.654
143.913
106.115
69.2092
41.7501
148.456
146.589
144.808
143.115
141.513
140.001
138.575
137.225
135.938
134.698
133.499
132.339
131.218
130.135
129.09
128.083
127.112
126.179
125.282
124.422
123.6
122.814
122.066
121.357
120.687
120.057
119.469
118.925
118.426
117.976
117.577
117.234
116.952
116.739
116.604
116.558
116.617
116.806
117.153
117.704
118.521
119.694
121.357
123.692
126.931
131.335
137.189
144.711
153.735
162.419
163.36
147.611
117.076
83.1378
53.2405
144.441
142.639
140.923
139.294
137.756
136.307
134.943
133.653
132.419
131.229
130.079
128.967
127.895
126.86
125.863
124.904
123.981
123.096
122.248
121.437
120.664
119.928
119.231
118.573
117.955
117.378
116.844
116.355
115.912
115.52
115.181
114.9
114.683
114.538
114.472
114.5
114.638
114.908
115.339
115.975
116.873
118.115
119.814
122.121
125.208
129.263
134.468
140.931
148.442
155.694
158.067
148.458
125.404
96.0443
67.4386
140.501
138.762
137.108
135.542
134.065
132.678
131.373
130.139
128.955
127.812
126.708
125.642
124.615
123.626
122.674
121.76
120.882
120.042
119.239
118.473
117.745
117.055
116.403
115.791
115.22
114.69
114.204
113.763
113.37
113.028
112.74
112.512
112.349
112.259
112.251
112.339
112.537
112.868
113.361
114.053
114.998
116.266
117.952
120.173
123.055
126.725
131.292
136.788
142.999
148.997
151.991
146.754
130.442
106.554
80.7418
136.633
134.955
133.361
131.855
130.438
129.11
127.863
126.68
125.542
124.443
123.383
122.361
121.377
120.43
119.52
118.647
117.811
117.012
116.251
115.526
114.839
114.189
113.579
113.008
112.478
111.99
111.545
111.147
110.796
110.497
110.253
110.069
109.951
109.906
109.945
110.078
110.323
110.698
111.232
111.957
112.921
114.184
115.822
117.921
120.572
123.856
127.83
132.48
137.604
142.538
145.535
143.089
132.198
113.834
91.8083
132.835
131.215
129.679
128.231
126.873
125.601
124.408
123.272
122.177
121.12
120.1
119.119
118.175
117.267
116.397
115.562
114.765
114.004
113.279
112.592
111.942
111.33
110.756
110.222
109.728
109.276
108.868
108.506
108.192
107.929
107.721
107.574
107.492
107.484
107.559
107.727
108.005
108.411
108.968
109.708
110.671
111.906
113.472
115.435
117.854
120.779
124.232
128.172
132.417
136.475
139.19
138.319
131.369
117.914
100.043
129.101
127.538
126.059
124.668
123.366
122.149
121.005
119.912
118.856
117.838
116.858
115.914
115.007
114.136
113.301
112.503
111.74
111.013
110.323
109.669
109.053
108.473
107.932
107.43
106.968
106.548
106.171
105.84
105.557
105.324
105.147
105.029
104.977
104.997
105.099
105.293
105.593
106.016
106.584
107.323
108.268
109.458
110.939
112.758
114.955
117.555
120.56
123.914
127.458
130.816
133.196
133.159
128.871
119.386
105.515
125.431
123.922
122.498
121.161
119.913
118.749
117.649
116.594
115.577
114.596
113.651
112.742
111.87
111.033
110.231
109.465
108.734
108.039
107.379
106.756
106.169
105.618
105.106
104.632
104.198
103.805
103.455
103.15
102.892
102.685
102.532
102.438
102.409
102.45
102.571
102.781
103.094
103.524
104.091
104.817
105.73
106.863
108.249
109.923
111.908
114.217
116.836
119.708
122.693
125.502
127.579
127.975
125.42
118.935
108.576
121.821
120.365
118.993
117.71
116.513
115.397
114.339
113.32
112.337
111.39
110.478
109.602
108.761
107.955
107.184
106.447
105.745
105.078
104.446
103.85
103.289
102.764
102.277
101.827
101.417
101.047
100.72
100.437
100.2
100.013
99.8798
99.804
99.791
99.8473
99.9805
100.2
100.517
100.945
101.5
102.202
103.073
104.139
105.425
106.954
108.74
110.785
113.07
115.539
118.072
120.446
122.263
122.884
121.441
117.119
109.631
118.27
116.864
115.544
114.312
113.165
112.092
111.07
110.084
109.134
108.218
107.337
106.491
105.679
104.901
104.158
103.448
102.772
102.13
101.522
100.95
100.412
99.9098
99.4441
99.0157
98.6257
98.2755
97.9668
97.7015
97.482
97.3112
97.1925
97.13
97.1285
97.194
97.3333
97.5549
97.8687
98.2864
98.8218
99.491
100.312
101.304
102.486
103.873
105.471
107.277
109.268
111.394
113.554
115.576
117.171
117.899
117.166
114.354
109.085
114.773
113.417
112.146
110.963
109.863
108.83
107.84
106.885
105.965
105.078
104.226
103.407
102.622
101.87
101.151
100.465
99.8123
99.193
98.6072
98.0553
97.5378
97.0551
96.608
96.1975
95.8246
95.4906
95.1972
94.9462
94.74
94.5813
94.4732
94.4195
94.4248
94.4944
94.6345
94.8525
95.1569
95.5577
96.0665
96.6961
97.4607
98.3747
99.451
100.699
102.12
103.708
105.44
107.269
109.116
110.844
112.243
113.005
112.721
110.941
107.31
111.331
110.022
108.799
107.662
106.606
105.608
104.647
103.721
102.828
101.969
101.142
100.349
99.5874
98.8586
98.1621
97.4979
96.866
96.2666
95.7
95.1664
94.6663
94.2002
93.769
93.3734
93.0146
92.6938
92.4125
92.1727
91.9763
91.8261
91.7249
91.6762
91.6841
91.7534
91.8895
92.0989
92.3888
92.7675
93.2443
93.8295
94.5336
95.3672
96.3385
97.4526
98.7087
100.097
101.597
103.168
104.744
106.22
107.441
108.188
108.176
107.084
104.623
107.941
106.679
105.502
104.41
103.392
102.425
101.491
100.591
99.7236
98.8886