/*--------------------------------*- C++ -*----------------------------------*\
  =========                 |
  \\      /  F ield         | OpenFOAM: The Open Source CFD Toolbox
   \\    /   O peration     | Website:  https://openfoam.org
    \\  /    A nd           | Version:  10
     \\/     M anipulation  |
\*---------------------------------------------------------------------------*/
FoamFile
{
    format      ascii;
    class       volScalarField;
    location    "7000";
    object      yPlus;
}
// * * * * * * * * * * * * * * * * * * * * * * * * * * * * * * * * * * * * * //

dimensions      [0 0 0 0 0 0 0];

internalField   uniform 0;

boundaryField
{
    right
    {
        type            cyclic;
    }
    left
    {
        type            cyclic;
    }
    outerWall
    {
        type            calculated;
        value           nonuniform List<scalar> 0();
    }
    stirrerWall
    {
        type            calculated;
        value           nonuniform List<scalar> 
98
(
0.0067491
0.00681599
0.00685151
0.00687956
0.00691314
0.00698522
0.00716262
0.00747189
0.00811751
0.00916016
0.0105886
0.0125282
0.0151691
0.0187648
0.0236516
0.0304322
0.0399075
0.0552313
0.0859132
0.185204
1.49864
1.08739
0.905966
0.773571
0.685908
0.625656
0.581182
0.5466
0.518719
0.495673
0.476281
0.459752
0.445534
0.433214
0.422494
0.413123
0.404951
0.397942
0.391778
0.3863
0.381475
0.377361
0.374002
0.371098
0.368652
0.366818
0.365662
0.365173
0.365322
0.366087
0.367354
0.3691
0.371585
0.378536
0.390151
0.408476
0.429912
0.494008
0.475592
0.405702
0.155948
0.166049
0.176773
0.188158
0.200277
0.213171
0.226876
0.241435
0.256903
0.273302
0.290658
0.308991
0.328327
0.348704
0.370155
0.392744
0.416569
0.44175
0.468468
0.496945
0.527352
0.559935
0.595166
0.63372
0.676434
0.723822
0.77634
0.834878
0.901409
0.978494
1.07055
1.18652
1.34589
1.56293
1.84798
2.22455
2.72678
3.54659
)
;
    }
    top
    {
        type            empty;
    }
    bottom
    {
        type            empty;
    }
    procBoundary0to1
    {
        type            processor;
        value           uniform 0;
    }
    procBoundary0to3
    {
        type            processor;
        value           uniform 0;
    }
}


// ************************************************************************* //
