/*--------------------------------*- C++ -*----------------------------------*\
  =========                 |
  \\      /  F ield         | OpenFOAM: The Open Source CFD Toolbox
   \\    /   O peration     | Website:  https://openfoam.org
    \\  /    A nd           | Version:  10
     \\/     M anipulation  |
\*---------------------------------------------------------------------------*/
FoamFile
{
    format      ascii;
    class       volVectorField;
    location    "56000";
    object      Urel;
}
// * * * * * * * * * * * * * * * * * * * * * * * * * * * * * * * * * * * * * //

dimensions      [0 1 -1 0 0 0 0];

internalField   nonuniform List<vector> 
17969
(
(0.132248 -0.14695 0)
(-0.0224023 -0.108251 0)
(-0.000752497 -0.0986233 -5.39434e-18)
(0.00106713 -0.0861286 6.4057e-18)
(0.00293643 -0.0716108 -2.2821e-18)
(0.00653263 -0.0537408 -1.96385e-18)
(0.0126828 -0.0304334 1.74618e-18)
(0.0221296 0.000899507 0)
(0.0361923 0.0442312 9.57391e-20)
(0.0558577 0.102319 0)
(0.0805339 0.172716 0)
(0.108871 0.249659 0)
(0.139072 0.326637 0)
(0.169108 0.397973 -7.22495e-19)
(0.197342 0.459849 6.60912e-19)
(0.222709 0.510664 0)
(0.244237 0.549981 -4.69725e-19)
(0.262073 0.579361 4.26862e-19)
(0.276691 0.600782 -3.90775e-19)
(0.288309 0.615885 3.61384e-19)
(0.297459 0.62626 0)
(0.304706 0.633123 0)
(0.310492 0.637399 -3.5294e-20)
(0.315184 0.639789 0)
(0.31907 0.64081 0)
(0.322374 0.640811 2.19297e-19)
(0.325255 0.64002 -4.05936e-19)
(0.327829 0.638578 1.88375e-19)
(0.330172 0.63657 1.7385e-19)
(0.332336 0.634051 -2.13441e-20)
(0.33435 0.631054 -1.90301e-19)
(0.336235 0.627602 0)
(0.338002 0.62371 1.33495e-19)
(0.339658 0.619391 -2.84602e-19)
(0.341207 0.614651 8.89319e-22)
(0.342652 0.609497 2.27362e-19)
(0.343993 0.603932 -1.08641e-19)
(0.345229 0.597958 -1.28677e-19)
(0.346358 0.591578 7.43841e-20)
(0.34738 0.584791 0)
(0.348291 0.577597 2.2735e-20)
(0.349089 0.569996 2.1847e-20)
(0.349771 0.561985 1.66857e-19)
(0.350333 0.553564 -1.62412e-19)
(0.350772 0.544729 -1.5495e-19)
(0.351084 0.535478 -3.59919e-20)
(0.351266 0.525808 1.46173e-19)
(0.351313 0.515713 1.39617e-19)
(0.351222 0.505191 -1.7636e-21)
(0.350987 0.494235 -1.32471e-19)
(0.350605 0.48284 -1.58504e-19)
(0.350071 0.470999 1.55369e-19)
(0.349378 0.458706 0)
(0.348523 0.445953 0)
(0.347499 0.432732 2.82377e-20)
(0.346301 0.419032 1.62962e-19)
(0.344922 0.404846 -1.06863e-19)
(0.343356 0.390161 0)
(0.341596 0.374966 0)
(0.339635 0.359248 4.70681e-20)
(0.337465 0.342996 -9.47768e-20)
(0.33508 0.326193 0)
(0.332471 0.308826 0)
(0.32963 0.290877 -4.28621e-20)
(0.32655 0.272329 -8.14653e-20)
(0.323222 0.253165 4.25983e-20)
(0.319638 0.233364 7.86155e-20)
(0.31579 0.212906 0)
(0.311671 0.191769 0)
(0.307273 0.169932 0)
(0.30259 0.14737 6.57909e-20)
(0.297615 0.12406 -4.71325e-21)
(0.292342 0.099978 -1.2733e-19)
(0.286767 0.0751016 0)
(0.280968 0.0497775 5.65973e-20)
(0.275119 0.0247279 5.31581e-20)
(0.269315 0.000318284 -4.95734e-20)
(0.263568 -0.0234501 0)
(0.257896 -0.0466071 0)
(0.252291 -0.0692135 0)
(0.246761 -0.0913184 0)
(0.241325 -0.112923 0)
(0.235982 -0.134025 6.09619e-20)
(0.230733 -0.154622 -1.01891e-19)
(0.225576 -0.17472 6.91318e-20)
(0.220507 -0.194328 -1.23421e-20)
(0.215525 -0.213451 0)
(0.210638 -0.232065 0)
(0.205875 -0.250089 0)
(0.201269 -0.267385 -2.1261e-20)
(0.196857 -0.283851 2.80857e-20)
(0.192581 -0.299602 2.16117e-20)
(0.18838 -0.314797 -2.13367e-20)
(0.184252 -0.329479 1.56186e-20)
(0.180188 -0.343675 -3.00627e-20)
(0.176185 -0.357416 1.12085e-20)
(0.172243 -0.370732 0)
(0.168361 -0.383657 -5.33783e-21)
(0.164537 -0.396221 5.24744e-21)
(0.160771 -0.408456 2.78647e-22)
(0.141758 -0.140133 0)
(-0.0229171 -0.100351 -2.39833e-17)
(0.00146013 -0.099425 1.3982e-17)
(0.00206638 -0.0938962 2.52509e-19)
(0.00255592 -0.0863448 1.08938e-17)
(0.00398844 -0.0768584 -1.72381e-17)
(0.00652592 -0.0644233 7.6469e-18)
(0.0105109 -0.0478406 7.0501e-18)
(0.0166472 -0.0262465 -6.60409e-18)
(0.0254685 0.00129985 -6.10053e-18)
(0.0379575 0.0374292 1.1537e-20)
(0.0551774 0.0850364 5.08063e-18)
(0.0770571 0.143745 0)
(0.102831 0.210352 0)
(0.131251 0.280102 -3.40666e-18)
(0.160771 0.348244 2.98642e-18)
(0.189739 0.410766 0)
(0.216856 0.464933 -2.17626e-18)
(0.24126 0.509632 1.97164e-18)
(0.262181 0.544673 0)
(0.279763 0.571296 -1.54924e-18)
(0.294395 0.590999 1.35172e-18)
(0.306243 0.605078 4.1654e-20)
(0.315753 0.614824 0)
(0.323405 0.621239 1.14921e-18)
(0.329592 0.625111 -7.25822e-20)
(0.334647 0.62707 -1.98392e-18)
(0.338845 0.627594 9.22603e-19)
(0.342402 0.627033 -5.34677e-20)
(0.345486 0.625624 8.15028e-19)
(0.348217 0.623524 -6.93722e-19)
(0.350681 0.620829 0)
(0.352937 0.617603 5.59693e-19)
(0.35502 0.613885 -4.91099e-19)
(0.356956 0.6097 0)
(0.35876 0.605067 6.68018e-20)
(0.36044 0.599996 -6.31287e-20)
(0.362003 0.594497 -4.45529e-19)
(0.363452 0.588575 9.34833e-19)
(0.364787 0.582233 -5.79255e-20)
(0.366009 0.575474 -4.39231e-19)
(0.367116 0.568299 -4.65449e-19)
(0.368107 0.560707 7.53543e-19)
(0.368979 0.552698 -8.1329e-19)
(0.369729 0.54427 6.94078e-19)
(0.370353 0.535421 -2.94024e-19)
(0.370848 0.526148 3.1941e-19)
(0.37121 0.516448 -6.9698e-19)
(0.371433 0.506317 5.97399e-19)
(0.371514 0.49575 -5.76723e-19)
(0.371447 0.484743 2.45343e-19)
(0.371227 0.473288 -3.35485e-20)
(0.370848 0.461381 0)
(0.370305 0.449013 0)
(0.36959 0.436177 -3.03799e-20)
(0.368698 0.422864 -5.88223e-20)
(0.367621 0.409066 2.26586e-19)
(0.366351 0.394771 -3.34859e-19)
(0.364882 0.379969 -4.24725e-19)
(0.363205 0.364647 6.06405e-20)
(0.361311 0.348794 4.07082e-19)
(0.359191 0.332393 4.83094e-19)
(0.356837 0.315432 -4.76963e-19)
(0.354239 0.297893 4.54567e-20)
(0.351388 0.279759 0)
(0.348275 0.261012 4.33738e-20)
(0.344888 0.241631 3.25134e-19)
(0.34122 0.221596 -3.24486e-19)
(0.33726 0.200885 -1.54867e-19)
(0.333 0.179473 -1.41915e-19)
(0.328431 0.157337 2.91992e-19)
(0.323546 0.134453 2.06913e-19)
(0.318336 0.110794 2.58162e-19)
(0.312796 0.0863381 -2.59111e-19)
(0.307003 0.0614257 -5.94561e-20)
(0.301133 0.0367697 -5.58839e-20)
(0.295282 0.0127352 5.22191e-20)
(0.28947 -0.0106669 9.81356e-20)
(0.283714 -0.0334701 2.67171e-19)
(0.278003 -0.0557449 -1.07934e-20)
(0.272354 -0.0775333 -1.63853e-19)
(0.266784 -0.0988346 -3.72482e-20)
(0.261293 -0.119645 0)
(0.255886 -0.13996 1.62478e-20)
(0.250565 -0.159776 -1.44e-20)
(0.24533 -0.179093 1.31664e-20)
(0.240176 -0.197918 0)
(0.235101 -0.216255 0)
(0.230109 -0.234087 -1.48402e-19)
(0.225219 -0.251345 5.92886e-21)
(0.220465 -0.267893 1.25428e-19)
(0.215885 -0.283606 0)
(0.211445 -0.298569 0)
(0.20708 -0.312958 6.84931e-20)
(0.202778 -0.326856 -1.22291e-19)
(0.19854 -0.340297 6.06136e-20)
(0.194364 -0.353311 0)
(0.19025 -0.365931 0)
(0.186199 -0.378189 -1.3631e-20)
(0.182212 -0.390119 7.71228e-21)
(0.148084 -0.13389 4.14506e-17)
(-0.0225443 -0.0934208 -5.4923e-17)
(0.00389445 -0.0962211 7.22277e-17)
(0.00388603 -0.0950782 -2.18627e-17)
(0.00362416 -0.0917404 4.21262e-19)
(0.00395218 -0.087125 0)
(0.00488067 -0.0808949 2.76126e-19)
(0.0065512 -0.0722489 0)
(0.00923784 -0.0603937 0)
(0.0132 -0.0448618 4.29788e-19)
(0.0189618 -0.0252888 1.95662e-19)
(0.0270557 -0.00107004 0)
(0.0380957 0.0293898 0)
(0.052982 0.0683957 2.97319e-19)
(0.0722176 0.117048 -4.31338e-18)
(0.0954003 0.174041 3.47503e-18)
(0.121783 0.236293 -3.131e-18)
(0.150182 0.299909 2.91552e-18)
(0.179226 0.361198 -7.91939e-20)
(0.207519 0.417093 -2.35833e-18)
(0.23398 0.465491 1.8398e-18)
(0.257862 0.505561 2.16641e-19)
(0.278537 0.537287 9.76153e-20)
(0.296141 0.561689 0)
(0.311012 0.579924 0)
(0.323216 0.593062 1.32497e-18)
(0.33323 0.602185 -1.02522e-18)
(0.341393 0.608134 -1.36798e-19)
(0.348075 0.611588 -8.25557e-19)
(0.353588 0.613112 9.54998e-19)
(0.358187 0.613157 0)
(0.362083 0.612062 0)
(0.365446 0.610069 9.65677e-20)
(0.368404 0.607341 1.35204e-18)
(0.37105 0.603985 -2.70891e-18)
(0.37345 0.600071 1.19539e-18)
(0.375649 0.595643 7.43652e-20)
(0.377674 0.590732 -1.40775e-19)
(0.379547 0.585357 1.32858e-19)
(0.381278 0.579531 6.24906e-20)
(0.382876 0.573265 0)
(0.384346 0.566565 5.62845e-20)
(0.385688 0.559434 1.07808e-19)
(0.386905 0.551874 -7.13756e-19)
(0.387994 0.543886 8.40291e-21)
(0.388955 0.53547 8.48511e-19)
(0.389783 0.526624 0)
(0.390476 0.517346 -5.72916e-22)
(0.391029 0.507634 -1.66436e-19)
(0.391439 0.497483 0)
(0.391699 0.486889 7.65631e-20)
(0.391805 0.475848 -5.88078e-19)
(0.391751 0.464354 5.75651e-19)
(0.391529 0.452399 0)
(0.391133 0.439978 1.33656e-19)
(0.390556 0.427082 0)
(0.389791 0.413702 -1.24812e-19)
(0.388827 0.39983 -4.76981e-19)
(0.387658 0.385453 4.69332e-19)
(0.386274 0.370562 1.12851e-19)
(0.384664 0.355143 0)
(0.38282 0.339182 -5.19808e-19)
(0.38073 0.322666 1.11779e-18)
(0.378383 0.305577 -1.03247e-20)
(0.37577 0.287899 -2.01351e-19)
(0.372877 0.269613 -1.02034e-19)
(0.369694 0.250699 -7.08099e-19)
(0.36621 0.231135 1.14172e-20)
(0.362413 0.210898 6.64947e-19)
(0.358292 0.189964 1.87644e-21)
(0.353836 0.168308 0)
(0.349035 0.145903 4.28854e-19)
(0.34388 0.122723 1.15345e-19)
(0.338363 0.0987435 -5.5284e-19)
(0.33256 0.0742977 0)
(0.326648 0.0500868 0)
(0.320727 0.0264744 -1.13424e-19)
(0.314825 0.00348077 3.0242e-19)
(0.308957 -0.0189223 -8.78086e-19)
(0.303113 -0.0408146 7.32855e-19)
(0.29731 -0.0622367 -4.41042e-19)
(0.29157 -0.0831862 -2.69764e-19)
(0.285894 -0.103658 3.0822e-19)
(0.280286 -0.123648 -2.99481e-19)
(0.274752 -0.143149 5.07431e-19)
(0.269295 -0.162155 -2.41839e-19)
(0.263914 -0.180663 2.02678e-19)
(0.258608 -0.198673 -3.83204e-19)
(0.253374 -0.216188 1.65788e-20)
(0.248212 -0.233191 1.57701e-20)
(0.243134 -0.249622 1.57691e-19)
(0.23817 -0.265359 0)
(0.233356 -0.280278 9.04139e-20)
(0.228677 -0.294439 -1.63572e-19)
(0.22407 -0.308027 2.97813e-21)
(0.219525 -0.321157 7.79203e-21)
(0.215049 -0.333863 5.01604e-21)
(0.210643 -0.346177 5.9301e-21)
(0.206307 -0.358129 2.32497e-20)
(0.202043 -0.369756 7.40078e-22)
(0.152149 -0.128299 -1.3265e-18)
(-0.0217039 -0.0882708 -1.17017e-16)
(0.00594324 -0.091824 1.11522e-19)
(0.00573985 -0.0927695 1.67117e-18)
(0.00510519 -0.0916818 3.20164e-17)
(0.00485323 -0.0897055 2.32483e-17)
(0.00489354 -0.0868767 -3.36771e-19)
(0.00532552 -0.0828492 -1.78773e-17)
(0.00627686 -0.0770566 0)
(0.00797976 -0.0689308 1.55502e-17)
(0.0106242 -0.0579878 -1.43743e-17)
(0.0144486 -0.0438228 0)
(0.019788 -0.0261647 0)
(0.0271798 -0.00473632 -3.36566e-19)
(0.0369756 0.0213229 3.04457e-19)
(0.0498822 0.053697 2.81309e-19)
(0.0666984 0.0941083 8.0433e-18)
(0.0873724 0.142418 -7.52564e-18)
(0.111499 0.196991 0)
(0.138329 0.255035 1.83374e-19)
(0.166748 0.313318 5.63526e-18)
(0.195518 0.368876 -9.23096e-18)
(0.223424 0.419283 3.90255e-18)
(0.249535 0.462894 2.23578e-19)
(0.273217 0.499094 3.18305e-18)
(0.293877 0.527997 -2.90365e-18)
(0.311712 0.550443 -2.84624e-18)
(0.326944 0.567344 2.83583e-18)
(0.339683 0.579605 6.65039e-22)
(0.350252 0.588128 -2.20838e-18)
(0.359003 0.593623 2.08623e-18)
(0.366253 0.596676 0)
(0.372283 0.597792 0)
(0.377339 0.597391 -1.71256e-18)
(0.381628 0.595797 1.81951e-18)
(0.38532 0.593252 -1.5063e-18)
(0.388549 0.589925 1.42441e-18)
(0.391417 0.585929 -1.16134e-18)
(0.393997 0.581341 -1.45816e-19)
(0.396339 0.576213 1.02187e-20)
(0.398477 0.57058 2.22728e-18)
(0.400437 0.564463 -2.10504e-18)
(0.402233 0.55788 8.77308e-19)
(0.403875 0.550841 0)
(0.405369 0.543353 0)
(0.406718 0.535421 -1.06645e-19)
(0.407923 0.527047 -8.1172e-19)
(0.408985 0.518232 6.86166e-19)
(0.409899 0.508975 -5.55713e-19)
(0.410664 0.499274 8.99178e-19)
(0.411275 0.489127 8.53426e-19)
(0.411727 0.478531 -8.28806e-19)
(0.412015 0.467479 0)
(0.412132 0.455969 -4.51585e-19)
(0.412071 0.443992 5.92678e-19)
(0.411824 0.431543 0)
(0.411384 0.418613 1.35672e-19)
(0.410741 0.405194 1.3084e-19)
(0.409886 0.391276 -2.54743e-19)
(0.408807 0.376848 -1.21807e-19)
(0.407496 0.361899 2.37381e-19)
(0.405939 0.346415 9.01521e-19)
(0.404125 0.330381 -1.11046e-18)
(0.402042 0.313783 8.38954e-19)
(0.399677 0.296603 -1.23047e-18)
(0.397016 0.278822 8.03117e-19)
(0.394046 0.26042 -9.4359e-19)
(0.390753 0.241375 9.33311e-19)
(0.387124 0.221663 -1.76264e-19)
(0.383144 0.20126 -8.3956e-19)
(0.378801 0.180137 6.70106e-19)
(0.374081 0.158269 0)
(0.368973 0.135627 -1.50474e-19)
(0.363466 0.112184 0)
(0.357634 0.0882637 0)
(0.351658 0.064553 0)
(0.345641 0.0414122 5.90902e-19)
(0.339617 0.0188714 -4.65559e-19)
(0.333606 -0.00308285 -2.13115e-19)
(0.327596 -0.0245384 -2.00407e-19)
(0.321603 -0.0455406 9.24273e-20)
(0.315652 -0.0660857 -8.80508e-20)
(0.309746 -0.0861676 -3.13565e-19)
(0.303892 -0.105781 3.12295e-19)
(0.298095 -0.124918 2.67496e-19)
(0.292359 -0.143571 -2.04175e-20)
(0.286689 -0.161732 -6.88858e-19)
(0.281086 -0.179394 3.76708e-20)
(0.275549 -0.196554 3.97639e-19)
(0.270075 -0.213206 -4.2872e-20)
(0.264666 -0.229336 1.94206e-20)
(0.259329 -0.244889 -2.42285e-19)
(0.254085 -0.259759 2.3307e-19)
(0.248973 -0.273836 -1.16635e-20)
(0.243983 -0.287184 9.3167e-21)
(0.239067 -0.300009 1.04862e-19)
(0.23422 -0.312415 -1.92975e-19)
(0.229459 -0.324431 9.10031e-20)
(0.224781 -0.336088 4.21034e-20)
(0.220184 -0.347421 -6.32035e-20)
(0.215671 -0.35847 2.30211e-20)
(0.211243 -0.369277 -2.0634e-21)
(0.206905 -0.379887 -3.17676e-20)
(0.20266 -0.390344 3.0815e-20)
(0.155148 -0.123029 8.93977e-17)
(-0.0207722 -0.0840187 0)
(0.00756538 -0.0871601 9.35254e-17)
(0.00735627 -0.0890289 8.41358e-19)
(0.00658912 -0.0890406 -7.49308e-17)
(0.00608761 -0.0883685 5.33485e-17)
(0.00573559 -0.0872177 -2.03844e-17)
(0.00553693 -0.0855075 0)
(0.00558394 -0.0829935 1.77794e-17)
(0.00600641 -0.0792897 -3.342e-17)
(0.00693808 -0.073956 1.5677e-17)
(0.00857603 -0.0665607 -4.77893e-19)
(0.0111107 -0.0566724 1.41488e-17)
(0.0147443 -0.0439237 -2.59643e-17)
(0.0197017 -0.0280859 1.14628e-17)
(0.026384 -0.0090607 -6.6071e-19)
(0.0352018 0.0137295 9.45324e-18)
(0.0465628 0.0412959 -8.1118e-18)
(0.0611676 0.075028 0)
(0.0794966 0.11574 7.33772e-18)
(0.101335 0.162833 -7.47508e-18)
(0.126255 0.214589 -3.69989e-19)
(0.153487 0.268524 0)
(0.181986 0.321948 -5.80224e-19)
(0.210627 0.372457 0)
(0.238327 0.4181 3.43506e-18)
(0.264295 0.457574 1.89414e-19)
(0.28789 0.490429 -3.34034e-18)
(0.308705 0.516873 -1.6912e-19)
(0.326868 0.537588 0)
(0.34255 0.55328 0)
(0.355849 0.564736 0)
(0.367035 0.572696 -1.83705e-18)
(0.376413 0.577752 1.9939e-18)
(0.384269 0.580413 -2.33504e-19)
(0.390858 0.581134 1.75819e-18)
(0.396411 0.580301 -1.46008e-18)
(0.401131 0.578227 1.55914e-18)
(0.40519 0.575148 -1.48022e-18)
(0.408726 0.571237 0)
(0.411846 0.566614 1.63133e-18)
(0.41463 0.561363 -1.24034e-18)
(0.417135 0.555542 8.67782e-19)
(0.4194 0.549189 -8.31188e-19)
(0.421454 0.542331 2.61729e-19)
(0.423315 0.534988 -2.48167e-19)
(0.424997 0.527171 0)
(0.426506 0.51889 -1.58232e-21)
(0.427846 0.510149 0)
(0.429021 0.50095 1.41079e-18)
(0.430027 0.491296 -1.75439e-18)
(0.430864 0.481185 1.84718e-19)
(0.431528 0.470615 -1.41007e-18)
(0.432013 0.459584 1.20282e-18)
(0.432314 0.448086 -1.627e-19)
(0.432422 0.436116 0)
(0.432329 0.423669 0)
(0.432027 0.410737 -1.14978e-18)
(0.431506 0.39731 2.99943e-19)
(0.430753 0.38338 1.08664e-18)
(0.429757 0.368936 7.66893e-19)
(0.428505 0.353964 -1.00955e-18)
(0.426985 0.338452 0)
(0.425181 0.322384 0)
(0.423079 0.305743 -2.22083e-19)
(0.420664 0.288511 0)
(0.417919 0.270668 -2.1092e-19)
(0.414828 0.252191 5.86725e-19)
(0.411374 0.233056 -7.81606e-19)
(0.407541 0.213237 3.71931e-19)
(0.403312 0.192707 3.57564e-19)
(0.39867 0.171436 3.4344e-19)
(0.393601 0.149394 0)
(0.38809 0.126551 2.93985e-19)
(0.38221 0.10322 -3.0945e-19)
(0.376143 0.0800692 5.43407e-19)
(0.370001 0.0574525 -2.74543e-19)
(0.363821 0.0354102 9.5401e-19)
(0.357631 0.0139542 -5.88887e-20)
(0.351419 -0.00700919 1.60821e-19)
(0.345194 -0.0275354 -8.39538e-19)
(0.338987 -0.0476207 6.39017e-19)
(0.332804 -0.0672575 -5.56486e-19)
(0.32665 -0.086439 0)
(0.320534 -0.105157 7.73332e-20)
(0.314461 -0.123404 5.40312e-19)
(0.308436 -0.141171 -1.07843e-19)
(0.302465 -0.158448 -4.1056e-20)
(0.296549 -0.175226 -4.39912e-19)
(0.29069 -0.191497 -1.32312e-21)
(0.284889 -0.207251 2.30386e-19)
(0.279148 -0.22247 -3.04981e-19)
(0.273472 -0.237108 2.30744e-19)
(0.267873 -0.251077 -2.34871e-19)
(0.262408 -0.264289 1.56832e-19)
(0.257059 -0.276867 -1.44046e-19)
(0.251783 -0.289 0)
(0.246605 -0.300743 0)
(0.241527 -0.312123 5.38555e-20)
(0.236543 -0.323176 -4.64673e-20)
(0.231653 -0.333946 9.25095e-22)
(0.226859 -0.344477 -2.7699e-22)
(0.222166 -0.354821 -2.95257e-20)
(0.217579 -0.365027 2.8583e-20)
(0.157639 -0.117915 -4.07449e-18)
(-0.0199183 -0.0801754 2.67713e-16)
(0.0088854 -0.0825898 -2.04172e-16)
(0.00876404 -0.0849366 6.36878e-17)
(0.00799745 -0.0855139 0)
(0.00743946 -0.0854804 0)
(0.00695205 -0.0851149 -1.40183e-18)
(0.00652121 -0.0844509 -1.88246e-17)
(0.00618695 -0.0834252 3.34563e-17)
(0.0059917 -0.0818898 -1.62137e-17)
(0.00604734 -0.0796008 0)
(0.00645274 -0.0762378 4.81474e-23)
(0.00733771 -0.0714408 -4.80611e-19)
(0.00888306 -0.0648179 0)
(0.0112697 -0.05598 8.60207e-19)
(0.0146656 -0.0445803 7.926e-19)
(0.0192794 -0.0303741 -7.24192e-19)
(0.0253663 -0.0132723 -6.52881e-19)
(0.0333493 0.00692245 0)
(0.0435024 0.030818 0)
(0.0563272 0.05942 4.81909e-19)
(0.0724679 0.0937423 -4.67115e-22)
(0.0920696 0.133913 4.09575e-19)
(0.114893 0.179191 -6.30476e-22)
(0.140478 0.227903 0)
(0.168046 0.277868 -2.96543e-19)
(0.196621 0.326833 -7.90755e-19)
(0.225167 0.372821 -2.36697e-19)
(0.252729 0.414229 0)
(0.278619 0.450043 0)
(0.302209 0.479941 -3.46393e-19)
(0.323206 0.504187 3.19773e-19)
(0.341749 0.523309 1.78609e-18)
(0.357921 0.537857 -2.97257e-19)
(0.371808 0.548539 -2.81374e-19)
(0.383639 0.555941 -2.27129e-18)
(0.393674 0.560548 -1.89403e-18)
(0.402166 0.562807 2.2569e-18)
(0.409347 0.563126 -1.69375e-18)
(0.415432 0.561864 1.61408e-18)
(0.420618 0.559318 -3.78587e-19)
(0.425075 0.555718 0)
(0.428946 0.551237 3.03814e-18)
(0.432341 0.546 -2.57534e-18)
(0.435345 0.540097 -3.02261e-19)
(0.438021 0.53359 2.86094e-19)
(0.440414 0.526523 2.72955e-19)
(0.442558 0.518927 -1.53553e-18)
(0.444473 0.510823 1.97113e-18)
(0.446177 0.502227 0)
(0.447677 0.493148 -4.44937e-19)
(0.448979 0.483592 0)
(0.450086 0.473563 0)
(0.450996 0.463062 -3.86564e-19)
(0.451706 0.452089 0)
(0.452211 0.440643 -3.53948e-19)
(0.452504 0.428718 3.39179e-19)
(0.452577 0.41631 -1.28303e-18)
(0.45242 0.403412 1.56703e-18)
(0.452021 0.390016 1.18122e-18)
(0.451367 0.376113 -1.44713e-18)
(0.450446 0.361692 5.54059e-19)
(0.449242 0.346739 5.14236e-19)
(0.44774 0.331242 -1.0322e-18)
(0.445922 0.315183 9.67219e-19)
(0.44377 0.298545 -9.56492e-19)
(0.441267 0.281308 4.50837e-19)
(0.438392 0.263449 8.58031e-19)
(0.435126 0.244945 -8.52771e-19)
(0.431448 0.225768 -4.00102e-19)
(0.427337 0.20589 -7.73461e-19)
(0.422774 0.18528 3.57653e-19)
(0.417737 0.163905 1.02002e-18)
(0.412209 0.141733 -3.69699e-19)
(0.40626 0.119061 9.33303e-19)
(0.400074 0.0965356 -1.24704e-18)
(0.393774 0.0745013 4.86761e-21)
(0.387395 0.0530035 -7.69712e-19)
(0.380986 0.0320893 1.27923e-18)
(0.374539 0.0116738 0)
(0.368037 -0.0083151 0)
(0.361524 -0.0278791 2.06896e-19)
(0.355007 -0.0470101 -9.48382e-19)
(0.348494 -0.0657003 7.53582e-19)
(0.341994 -0.0839411 5.65688e-19)
(0.335516 -0.101724 -4.87997e-19)
(0.329067 -0.11904 4.71393e-19)
(0.322651 -0.13588 -4.73674e-19)
(0.316277 -0.152234 -5.90766e-20)
(0.309949 -0.168092 5.12971e-20)
(0.303674 -0.183444 4.52863e-20)
(0.297459 -0.198276 0)
(0.291309 -0.212572 0)
(0.285222 -0.22629 2.84799e-20)
(0.279237 -0.239357 2.45323e-20)
(0.27339 -0.251768 1.42719e-19)
(0.267652 -0.263677 -2.65981e-20)
(0.262005 -0.275178 -1.22963e-19)
(0.256474 -0.286299 5.90996e-20)
(0.251044 -0.297081 -6.0347e-20)
(0.245716 -0.307574 -1.25423e-20)
(0.240492 -0.317832 1.21552e-20)
(0.23538 -0.327914 -2.58111e-20)
(0.23039 -0.337876 -1.77832e-20)
(0.159842 -0.112936 -9.01529e-17)
(-0.0191903 -0.0766324 1.40396e-16)
(0.0100183 -0.078297 -2.19662e-16)
(0.0100476 -0.0809759 7.1552e-17)
(0.00935643 -0.0818967 1.43444e-18)
(0.00884376 -0.0822066 -3.1707e-17)
(0.00836321 -0.0822291 4.87681e-17)
(0.00789007 -0.0820448 -1.96154e-17)
(0.00744553 -0.0816595 1.75433e-17)
(0.00705477 -0.081038 -1.56129e-17)
(0.00675131 -0.0800963 0)
(0.00657596 -0.0786867 4.62616e-19)
(0.00663018 -0.0766034 -1.52432e-17)
(0.00700049 -0.0735853 1.47551e-17)
(0.00783268 -0.0693113 -9.11118e-19)
(0.00925758 -0.0634232 -1.41424e-17)
(0.0114675 -0.0555595 1.42424e-17)
(0.0146369 -0.0453886 1.31913e-17)
(0.0189291 -0.0326538 -2.88115e-20)
(0.0245543 -0.0172365 -1.04061e-17)
(0.0317937 0.00085191 -5.80067e-19)
(0.0410424 0.021991 5.18715e-19)
(0.0524863 0.0467278 -1.40477e-18)
(0.0666623 0.0758676 -4.33536e-19)
(0.0841483 0.110112 -7.21369e-18)
(0.104827 0.149211 6.62041e-18)
(0.128457 0.192313 -1.2936e-21)
(0.154553 0.237879 5.97407e-19)
(0.182349 0.284011 -5.37288e-19)
(0.21094 0.328823 4.82223e-19)
(0.23937 0.370673 3.88739e-18)
(0.266791 0.408214 -3.5268e-18)
(0.292622 0.440678 3.53348e-19)
(0.316216 0.467859 -1.50078e-21)
(0.337414 0.490054 3.00578e-19)
(0.35637 0.507647 2.82918e-19)
(0.373052 0.5211 -4.5394e-18)
(0.387547 0.53101 3.36517e-20)
(0.400047 0.537834 4.34443e-18)
(0.410768 0.541973 0)
(0.419922 0.543815 0)
(0.427719 0.543728 0)
(0.434361 0.542043 -3.48244e-18)
(0.440037 0.539037 2.96155e-18)
(0.444915 0.534932 0)
(0.449137 0.529898 0)
(0.452818 0.524062 -2.80551e-18)
(0.456046 0.517519 2.09486e-18)
(0.458891 0.510336 2.24195e-18)
(0.461403 0.502562 -2.15467e-18)
(0.46362 0.494232 5.06637e-19)
(0.465568 0.485371 0)
(0.467264 0.475997 0)
(0.46872 0.466121 8.77141e-19)
(0.46994 0.455753 1.65954e-18)
(0.470926 0.444895 -1.21234e-18)
(0.471677 0.433552 -3.79612e-19)
(0.472187 0.421721 0)
(0.472449 0.4094 -1.72974e-18)
(0.472452 0.396584 2.69146e-20)
(0.472184 0.383267 1.61325e-18)
(0.471632 0.369439 -1.22851e-18)
(0.470781 0.35509 5.86009e-19)
(0.469612 0.340207 0)
(0.468108 0.324776 0)
(0.466247 0.308779 5.03079e-19)
(0.46401 0.292197 -2.99706e-20)
(0.461373 0.27501 -3.06527e-20)
(0.458313 0.257192 -4.73333e-19)
(0.454804 0.238717 0)
(0.450822 0.219556 8.47876e-19)
(0.446341 0.199675 8.183e-19)
(0.441335 0.179039 -1.16916e-18)
(0.435781 0.157614 -7.3463e-19)
(0.429745 0.135679 0)
(0.423414 0.113855 -1.9606e-18)
(0.41692 0.0924707 1.60146e-18)
(0.410295 0.071565 5.35892e-21)
(0.403619 0.0512158 -2.76989e-19)
(0.396884 0.0314061 2.60855e-19)
(0.390055 0.0120262 2.46392e-19)
(0.383175 -0.0069461 0)
(0.376261 -0.0255039 0)
(0.369322 -0.0436372 0)
(0.362368 -0.0613362 -7.1581e-19)
(0.35541 -0.0785913 -1.16579e-19)
(0.348456 -0.0953939 1.4114e-18)
(0.341515 -0.111737 -6.66558e-19)
(0.334598 -0.127614 -4.28938e-19)
(0.327717 -0.143021 4.83423e-19)
(0.320887 -0.157949 0)
(0.314125 -0.17239 3.35826e-19)
(0.307446 -0.186326 -3.24581e-19)
(0.300845 -0.199737 0)
(0.294342 -0.21258 -5.36501e-20)
(0.287986 -0.224832 -1.60563e-19)
(0.281735 -0.23655 1.5637e-19)
(0.275571 -0.247818 -9.84038e-20)
(0.26952 -0.258674 9.50263e-20)
(0.26357 -0.269175 0)
(0.257723 -0.279381 -2.30095e-20)
(0.251989 -0.28936 1.82402e-20)
(0.246381 -0.29918 2.17175e-20)
(0.240914 -0.308909 -6.20297e-20)
(0.235603 -0.318612 4.26599e-20)
(0.161818 -0.108131 2.87103e-18)
(-0.0185734 -0.0734797 0)
(0.0110602 -0.0744986 -1.10872e-16)
(0.0112923 -0.0774715 7.69065e-17)
(0.0107319 -0.078636 -1.04739e-22)
(0.0103266 -0.0791459 -1.07361e-18)
(0.00993113 -0.0793664 0)
(0.00951872 -0.0794055 -2.00156e-17)
(0.00910445 -0.079296 1.80806e-17)
(0.00870008 -0.0790407 0)
(0.00831852 -0.0786218 8.94663e-19)
(0.00798006 -0.0779972 0)
(0.00771559 -0.0770858 8.65733e-23)
(0.0075732 -0.0757559 -1.36297e-17)
(0.00760938 -0.073835 2.75659e-17)
(0.00795833 -0.0711096 -1.38735e-17)
(0.00870722 -0.0672988 1.38204e-17)
(0.0100095 -0.0620787 -2.88839e-17)
(0.0120449 -0.055112 1.30234e-17)
(0.0149728 -0.0460767 7.61568e-19)
(0.0189639 -0.0347057 -7.04418e-19)
(0.0241939 -0.0208285 -9.01918e-18)
(0.0308565 -0.00444788 1.04588e-17)
(0.0392685 0.014434 1.03883e-18)
(0.0497058 0.0362521 9.31749e-19)
(0.0624067 0.0615402 -8.45773e-19)
(0.0778662 0.0908647 7.81422e-19)
(0.0964576 0.124513 0)
(0.118027 0.162112 -1.19439e-21)
(0.142287 0.202796 1.31803e-21)
(0.16873 0.245166 -5.43221e-19)
(0.196626 0.287573 0)
(0.225136 0.328435 0)
(0.253379 0.366391 6.76885e-18)
(0.280626 0.400287 -5.09226e-18)
(0.306326 0.429586 0)
(0.32992 0.454226 -4.85913e-18)
(0.35135 0.474458 7.99617e-18)
(0.370708 0.490555 -4.86988e-18)
(0.3879 0.502964 0)
(0.403004 0.512109 -4.34685e-18)
(0.416175 0.518339 3.6978e-18)
(0.427583 0.521992 8.74491e-19)
(0.437405 0.523407 -3.72227e-18)
(0.445825 0.522915 2.77821e-18)
(0.453033 0.520814 0)
(0.459209 0.51736 2.83609e-18)
(0.464516 0.512764 -3.40399e-18)
(0.469096 0.507191 2.55829e-18)
(0.473064 0.500769 -1.84642e-18)
(0.476515 0.493598 -2.89192e-18)
(0.479522 0.485751 2.22386e-18)
(0.48214 0.477281 -5.27513e-19)
(0.48441 0.46823 1.4869e-18)
(0.486361 0.458625 -2.94688e-20)
(0.48801 0.448489 -1.82895e-18)
(0.48937 0.437835 0)
(0.490444 0.426673 -2.46557e-18)
(0.491233 0.415009 2.36061e-18)
(0.49173 0.402843 -1.52133e-18)
(0.491929 0.390174 0)
(0.491817 0.376997 6.85359e-19)
(0.49138 0.363306 1.96697e-18)
(0.4906 0.349092 6.04131e-19)
(0.489459 0.334342 -3.16601e-20)
(0.487933 0.319039 -5.99184e-19)
(0.486001 0.303169 2.1887e-18)
(0.483638 0.28671 -2.16211e-18)
(0.480814 0.26964 -1.01984e-18)
(0.4775 0.251932 1.9178e-18)
(0.473666 0.233555 -1.42775e-18)
(0.469281 0.214477 -1.78863e-18)
(0.464313 0.19466 2.5185e-18)
(0.458732 0.174064 -8.45435e-19)
(0.452597 0.152955 0)
(0.446096 0.13192 -6.96113e-19)
(0.43937 0.111269 7.28278e-19)
(0.432459 0.0910305 -2.21915e-18)
(0.425432 0.0712836 1.54236e-18)
(0.41832 0.0521111 -5.67112e-19)
(0.411111 0.0333998 -1.30024e-18)
(0.403804 0.0150878 6.4528e-20)
(0.396424 -0.00282748 6.28641e-20)
(0.388986 -0.0203356 9.11039e-19)
(0.381502 -0.037424 9.94636e-19)
(0.373981 -0.0540818 -5.72371e-20)
(0.366437 -0.0703021 -5.44015e-19)
(0.358885 -0.0860837 1.59697e-19)
(0.351346 -0.10143 -5.4301e-19)
(0.343844 -0.116348 6.61023e-19)
(0.336404 -0.130843 0)
(0.329055 -0.144907 3.70132e-19)
(0.321812 -0.158518 -6.30673e-19)
(0.314668 -0.171639 3.03668e-19)
(0.307649 -0.184222 2.49474e-19)
(0.300746 -0.196248 -2.13053e-19)
(0.293901 -0.207726 2.05929e-20)
(0.287136 -0.218709 -9.62839e-20)
(0.280465 -0.229259 9.61538e-20)
(0.27389 -0.239445 8.62222e-21)
(0.267424 -0.249346 4.39605e-21)
(0.261085 -0.25904 0)
(0.254896 -0.26861 7.02429e-22)
(0.248877 -0.278133 -1.93466e-21)
(0.243051 -0.28768 -3.02546e-21)
(0.237439 -0.297311 1.32983e-19)
(0.232057 -0.307074 -1.3914e-19)
(0.163572 -0.103554 -9.35562e-17)
(-0.0180223 -0.0708421 0)
(0.0120915 -0.0713685 1.24061e-16)
(0.012558 -0.0746376 -8.17464e-17)
(0.0121667 -0.0760001 -1.66554e-18)
(0.0119065 -0.0766395 2.30521e-18)
(0.0116403 -0.0769649 2.75482e-17)
(0.0113437 -0.0771073 -2.26517e-17)
(0.011031 -0.0771143 -1.14627e-18)
(0.0107107 -0.0770043 -1.69103e-17)
(0.010388 -0.0767799 1.43104e-17)
(0.01007 -0.0764323 8.26526e-19)
(0.00976781 -0.0759398 6.33306e-23)
(0.00949991 -0.0752613 7.71537e-19)
(0.00929413 -0.0743255 7.74861e-19)
(0.00919391 -0.0730215 1.26004e-17)
(0.00925512 -0.0712064 -2.88547e-20)
(0.00957645 -0.0687006 -1.2233e-17)
(0.0102604 -0.0652663 0)
(0.0114588 -0.0606161 -8.13357e-19)
(0.0133043 -0.0544372 -1.09841e-17)
(0.0160016 -0.0464234 1.0437e-17)
(0.0197066 -0.0363053 1.10967e-17)
(0.0245766 -0.0238872 -1.02632e-17)
(0.0307757 -0.00908343 0)
(0.0385064 0.00806265 1.04326e-18)
(0.0480604 0.0276158 0)
(0.0596575 0.049955 8.38636e-19)
(0.0735309 0.0754847 1.52766e-18)
(0.0901188 0.104562 -7.05546e-19)
(0.109641 0.137206 6.50926e-19)
(0.131912 0.172978 -1.19462e-18)
(0.156606 0.211049 1.08837e-18)
(0.183212 0.250169 -8.86092e-18)
(0.211044 0.288906 7.18103e-18)
(0.23932 0.325929 0)
(0.267254 0.360094 5.8816e-18)
(0.294243 0.39049 -4.05734e-18)
(0.319675 0.416786 0)
(0.343221 0.439031 0)
(0.364891 0.457366 5.41192e-19)
(0.384589 0.472045 0)
(0.402255 0.483433 -4.8594e-19)
(0.417944 0.491803 0)
(0.43176 0.497421 -3.06895e-18)
(0.443828 0.50057 3.37253e-18)
(0.454293 0.501546 -8.01557e-19)
(0.463322 0.500641 7.57779e-19)
(0.471091 0.498122 0)
(0.477769 0.494222 -6.86836e-19)
(0.483512 0.48914 6.53809e-19)
(0.488458 0.483039 6.27488e-19)
(0.492723 0.47605 -5.03631e-21)
(0.496401 0.468275 0)
(0.499566 0.459791 1.59936e-18)
(0.502276 0.45066 -3.28395e-20)
(0.504571 0.440924 -1.97525e-18)
(0.506481 0.430618 9.29304e-19)
(0.508022 0.419763 -8.78515e-19)
(0.509205 0.408376 8.62027e-19)
(0.51003 0.396466 -1.60625e-18)
(0.510496 0.384036 2.32095e-18)
(0.510593 0.371091 -2.23495e-18)
(0.510307 0.357625 -2.10285e-18)
(0.509617 0.343631 1.37151e-18)
(0.508505 0.329093 -6.51704e-19)
(0.50695 0.314 -2.44137e-18)
(0.504922 0.298338 1.2134e-18)
(0.502389 0.282086 -5.24695e-19)
(0.499317 0.265217 3.29673e-18)
(0.495671 0.247703 1.55011e-20)
(0.491412 0.229509 -1.53615e-20)
(0.486502 0.210597 -1.84526e-18)
(0.480904 0.190925 1.79231e-18)
(0.474669 0.170741 -2.59953e-18)
(0.467982 0.150599 -1.56446e-18)
(0.460987 0.13079 2.31557e-18)
(0.453737 0.111327 -1.39527e-18)
(0.446275 0.0922637 3.33881e-18)
(0.438692 0.0737176 -9.75933e-19)
(0.431008 0.0557051 1.13425e-18)
(0.423192 0.0381243 -1.13481e-18)
(0.415275 0.0209234 -1.25858e-18)
(0.407263 0.00411111 7.52165e-19)
(0.399165 -0.0122948 6.41359e-19)
(0.390999 -0.0282846 -1.06508e-18)
(0.38279 -0.0438581 -1.86568e-19)
(0.374568 -0.0590277 3.1518e-19)
(0.366368 -0.0738141 -1.39709e-18)
(0.358227 -0.0882319 5.83604e-19)
(0.350172 -0.102293 1.24379e-19)
(0.342223 -0.116005 0)
(0.334378 -0.129327 -4.52131e-20)
(0.326629 -0.142169 2.93199e-19)
(0.318989 -0.154427 -3.16208e-19)
(0.311395 -0.166091 -1.74354e-19)
(0.30382 -0.177204 3.62332e-19)
(0.296316 -0.187819 -1.59143e-19)
(0.288897 -0.19801 1.06871e-19)
(0.28158 -0.207859 -9.9827e-20)
(0.274393 -0.217453 -6.86489e-20)
(0.267364 -0.226885 4.5888e-20)
(0.260524 -0.236246 -1.26773e-20)
(0.2539 -0.245619 2.7872e-20)
(0.247522 -0.255082 0)
(0.241412 -0.264695 3.86826e-21)
(0.23559 -0.274506 0)
(0.230069 -0.284549 -5.48563e-21)
(0.165083 -0.0992272 9.51128e-17)
(-0.0174897 -0.0687925 -3.18231e-16)
(0.0131631 -0.0689863 -3.74683e-18)
(0.01387 -0.0725525 8.58106e-17)
(0.0136633 -0.074084 0)
(0.0135611 -0.0748176 -1.222e-18)
(0.0134397 -0.0752047 -2.92092e-17)