/*--------------------------------*- C++ -*----------------------------------*\
  =========                 |
  \\      /  F ield         | OpenFOAM: The Open Source CFD Toolbox
   \\    /   O peration     | Website:  https://openfoam.org
    \\  /    A nd           | Version:  10
     \\/     M anipulation  |
\*---------------------------------------------------------------------------*/
FoamFile
{
    format      ascii;
    class       volScalarField;
    location    "79000";
    object      yPlus;
}
// * * * * * * * * * * * * * * * * * * * * * * * * * * * * * * * * * * * * * //

dimensions      [0 0 0 0 0 0 0];

internalField   uniform 0;

boundaryField
{
    right
    {
        type            cyclic;
    }
    left
    {
        type            cyclic;
    }
    outerWall
    {
        type            calculated;
        value           nonuniform List<scalar> 
200
(
17.0541
17.0467
17.0449
17.0441
17.0441
17.0449
17.0464
17.0482
17.0502
17.0523
17.0545
17.0566
17.0587
17.0607
17.0626
17.0644
17.0661
17.0677
17.0692
17.0706
17.0719
17.0731
17.0743
17.0753
17.0763
17.0773
17.0782
17.079
17.0798
17.0805
17.0813
17.082
17.0827
17.0833
17.0839
17.0846
17.0852
17.0858
17.0863
17.0869
17.0875
17.088
17.0885
17.089
17.0896
17.09
17.0905
17.091
17.0915
17.0919
17.0923
17.0927
17.0931
17.0935
17.0938
17.0942
17.0945
17.0947
17.095
17.0952
17.0953
17.0954
17.0955
17.0955
17.0955
17.0954
17.0953
17.095
17.0931
17.09
17.0865
17.0821
17.0787
17.072
17.0696
17.0702
17.0719
17.0737
17.0751
17.0748
17.0288
17.0312
17.0389
17.0472
17.0558
17.0647
17.0737
17.0824
17.0908
17.0988
17.1062
17.1132
17.1196
17.1255
17.1308
17.1356
17.1399
17.1437
17.1469
17.1496
17.1518
17.1535
17.1548
17.1555
17.1558
17.1555
17.1548
17.1536
17.1519
17.1496
17.1468
17.1434
17.1394
17.1346
17.1291
17.1225
17.1147
17.1052
17.0932
17.0746
17.0761
17.0803
17.0827
17.0841
17.0851
17.0856
17.0855
17.0822
17.0777
17.0738
17.0711
17.0697
17.0692
17.0696
17.0712
17.0732
17.0752
17.0771
17.0787
17.0802
17.0814
17.0825
17.0835
17.0843
17.0849
17.0855
17.086
17.0865
17.0868
17.0871
17.0874
17.0876
17.0878
17.0879
17.088
17.088
17.0881
17.0881
17.0881
17.088
17.088
17.0879
17.0878
17.0877
17.0875
17.0874
17.0872
17.087
17.0868
17.0866
17.0863
17.086
17.0857
17.0854
17.0851
17.0848
17.0844
17.084
17.0836
17.0831
17.0826
17.0821
17.0816
17.081
17.0803
17.0796
17.0788
17.078
17.077
17.076
17.0748
17.0735
17.072
17.0702
17.0681
17.0655
17.0623
17.0579
17.0518
17.0394
)
;
    }
    stirrerWall
    {
        type            calculated;
        value           nonuniform List<scalar> 0();
    }
    top
    {
        type            empty;
    }
    bottom
    {
        type            empty;
    }
    procBoundary2to3
    {
        type            processor;
        value           uniform 0;
    }
}


// ************************************************************************* //
