/*--------------------------------*- C++ -*----------------------------------*\
  =========                 |
  \\      /  F ield         | OpenFOAM: The Open Source CFD Toolbox
   \\    /   O peration     | Website:  https://openfoam.org
    \\  /    A nd           | Version:  10
     \\/     M anipulation  |
\*---------------------------------------------------------------------------*/
FoamFile
{
    format      ascii;
    class       volScalarField;
    location    "700";
    object      k;
}
// * * * * * * * * * * * * * * * * * * * * * * * * * * * * * * * * * * * * * //

dimensions      [0 2 -2 0 0 0 0];

internalField   nonuniform List<scalar> 
2000
(
8.89863e-06
0.000266537
0.00173548
0.0052694
0.010558
0.0166493
0.0226936
0.0283928
0.0341683
0.0409115
0.0501435
0.0654687
0.094037
0.13696
0.153956
0.144481
0.116377
0.0888461
0.0710662
0.0643753
7.22655e-06
0.000211714
0.00141558
0.0043737
0.00887813
0.0140895
0.0192767
0.0241914
0.0292452
0.035385
0.044419
0.0608151
0.0929937
0.138822
0.15767
0.13886
0.105697
0.0779588
0.0603793
0.0524638
5.09967e-06
0.000157625
0.00107998
0.00342048
0.00708532
0.0114363
0.0158862
0.0201876
0.024662
0.0303003
0.0392956
0.056737
0.091378
0.137758
0.158862
0.135673
0.10105
0.0732774
0.0557225
0.0463804
3.50097e-06
0.000109583
0.000768437
0.00249487
0.00532295
0.0088604
0.01267
0.0165049
0.0205725
0.0258564
0.0348717
0.0530305
0.0878375
0.131655
0.153146
0.133302
0.100503
0.0730039
0.0551211
0.0440145
2.29641e-06
7.22959e-05
0.000516153
0.00171211
0.0037787
0.00654438
0.00973798
0.0131669
0.0169655
0.0220535
0.0311262
0.0495587
0.0826471
0.121942
0.141513
0.130788
0.10402
0.0769706
0.0581473
0.0448679
1.46575e-06
4.59067e-05
0.000331081
0.00111736
0.00255239
0.00462279
0.00722116
0.0102476
0.0138242
0.0188214
0.0279599
0.0460446
0.0758418
0.109702
0.127271
0.123425
0.107701
0.0837254
0.0637315
0.0481579
9.53722e-07
2.89295e-05
0.000206384
0.00070172
0.00165689
0.00314744
0.00519211
0.00780301
0.0111548
0.0161111
0.0252466
0.042419
0.0684754
0.0969189
0.112252
0.113234
0.108429
0.0898338
0.0701791
0.0529911
6.94018e-07
1.93879e-05
0.000130636
0.000435777
0.00105322
0.0020941
0.00365633
0.00585712
0.00896619
0.0138826
0.0228976
0.0387607
0.061166
0.0850354
0.0986797
0.101454
0.103012
0.0930315
0.0759965
0.0583261
6.38257e-07
1.58016e-05
9.32967e-05
0.000287236
0.000685318
0.00140194
0.00257491
0.00439991
0.00724964
0.0120762
0.0208317
0.0352213
0.0542683
0.0742402
0.0870321
0.0914437
0.0954132
0.0927222
0.0798945
0.0630146
7.57305e-07
1.73394e-05
8.81581e-05
0.000229674
0.000499731
0.00100029
0.00188202
0.00338907
0.00597984
0.0106435
0.0190356
0.0319389
0.0481672
0.0649477
0.0769343
0.0826078
0.0890535
0.0914006
0.081898
0.0662481
1.02792e-06
2.24763e-05
0.000107676
0.00024541
0.000454745
0.000827504
0.00151172
0.00277387
0.00512104
0.00954882
0.0174913
0.0290998
0.0430051
0.0572993
0.068414
0.0749432
0.0827712
0.0877412
0.0809917
0.0672302
1.48124e-06
2.96139e-05
0.000137089
0.000301406
0.0005177
0.000834871
0.00141003
0.00251277
0.00466021
0.00882494
0.0162503
0.0268399
0.0389126
0.0513134
0.0613021
0.067988
0.075987
0.0820291
0.0774311
0.0660341
2.08709e-06
3.90757e-05
0.000165228
0.000360719
0.000631764
0.000976133
0.00153776
0.00259235
0.00464199
0.00860391
0.0155402
0.0255003
0.0363381
0.0472344
0.0561385
0.0622785
0.0686052
0.074167
0.0721846
0.063296
2.77161e-06
4.97451e-05
0.000190423
0.000402477
0.000732612
0.00118885
0.00185754
0.00301633
0.00517298
0.00915025
0.0157975
0.0252637
0.0356833
0.0455963
0.0537454
0.0590337
0.0640331
0.0684902
0.0678565
0.0600526
3.27951e-06
5.67642e-05
0.000203797
0.00043496
0.000797866
0.00138003
0.0023182
0.00372169
0.00626489
0.0106884
0.0175292
0.0268036
0.0368217
0.0460758
0.0536949
0.0587332
0.0631551
0.0662333
0.0642355
0.0555323
3.24428e-06
5.44276e-05
0.000188075
0.000421031
0.000828406
0.00152929
0.00270319
0.00458574
0.00762424
0.0128026
0.0201207
0.0295303
0.0392668
0.0478814
0.0548369
0.0595261
0.062874
0.0632099
0.0572612
0.0459139
2.47146e-06
3.97875e-05
0.000134486
0.000324218
0.000706028
0.00143235
0.00273666
0.00494491
0.00840832
0.0133995
0.0200537
0.0276152
0.0365433
0.044198
0.0493285
0.0516118
0.0510469
0.0474432
0.0354288
0.0275738
1.24175e-06
1.79159e-05
5.96404e-05
0.000154745
0.000371694
0.000826657
0.00169431
0.00319974
0.00553815
0.00876875
0.0124733
0.0161333
0.0200115
0.0234939
0.0249193
0.0238181
0.0212168
0.017533
0.0138004
0.0133024
3.37829e-07
3.52814e-06
1.05917e-05
2.76951e-05
6.78332e-05
0.000154871
0.000327837
0.000641843
0.00116675
0.00196985
0.00294815
0.00387628
0.00483449
0.00549831
0.00570762
0.00582871
0.00592051
0.00513876
0.00392057
0.00434243
1.4657e-08
1.44675e-07
3.70971e-07
9.57486e-07
2.34362e-06
5.43685e-06
1.18652e-05
2.41624e-05
4.58171e-05
8.11597e-05
0.00014394
0.000224976
0.000305644
0.000339108
0.000312626
0.000272109
0.000292835
0.000280511
0.000215271
0.000384143
0.0706939
0.0977755
0.163934
0.297756
0.528315
0.864256
1.28274
1.74898
2.23148
2.70838
3.19118
3.74448
4.5051
5.74353
8.1952
13.5003
26.629
60.6936
166.625
651.098
0.0557351
0.0779358
0.138194
0.267277
0.496963
0.836062
1.25941
1.73072
2.21814
2.69879
3.1836
3.73636
4.49638
5.72884
8.17615
13.4788
26.6711
60.9308
165.278
634.271
0.046538
0.0640264
0.118682
0.243549
0.4731
0.81574
1.24377
1.7198
2.21181
2.69575
3.18195
3.73332
4.49237
5.71855
8.16167
13.4605
26.724
61.3199
164.811
618.815
0.0409506
0.0538912
0.103412
0.224857
0.455203
0.801814
1.23437
1.7146
2.21046
2.69674
3.18348
3.73257
4.49028
5.70966
8.14818
13.4417
26.7727
61.7938
165.281
607.079
0.0386071
0.0474562
0.092742
0.211975
0.444142
0.794764
1.23109
1.71456
2.21335
2.70115
3.18773
3.73396
4.49042
5.70349
8.13848
13.4282
26.8227
62.3629
166.744
602.013
0.0390191
0.0445516
0.0865707
0.205242
0.440508
0.79547
1.23516
1.72101
2.2217
2.71009
3.19595
3.73918
4.4947
5.70219
8.13464
13.4223
26.8752
62.9822
169.027
603.169
0.0413177
0.0438319
0.0836942
0.203922
0.444579
0.804756
1.24702
1.73379
2.23494
2.72275
3.20703
3.74637
4.50063
5.70218
8.13369
13.416
26.9311
63.6329
171.493
597.877
0.0447543
0.0449105
0.0840678
0.208628
0.457215
0.822857
1.26593
1.75142
2.25115
2.73695
3.21869
3.75358
4.50655
5.70264
8.13409
13.4093
26.979
64.3282
174.634
586.669
0.0484599
0.0471922
0.0876004
0.219988
0.479042
0.849738
1.29132
1.7733
2.27002
2.75288
3.23182
3.76244
4.51445
5.70559
8.13795
13.4047
27.0186
65.0753
179.816
589.412
0.0515887
0.0501429
0.0945946
0.239261
0.510996
0.885201
1.32218
1.79819
2.29039
2.76944
3.24518
3.77153
4.5227
5.70939
8.14296
13.4005
27.044
65.6829
185.362
562.75
0.0534539
0.053402
0.105785
0.267817
0.552866
0.926908
1.35495
1.82214
2.30828
2.78285
3.25555
3.77829
4.52896
5.71218
8.14674
13.3951
27.0543
66.0835
192.152
648.61
0.0538452
0.0569672
0.122477
0.306662
0.602895
0.971155
1.38583
1.84276
2.3232
2.79405
3.26437
3.7843
4.53443
5.71519
8.1498
13.3899
27.0539
66.3083
196.971
778.339
0.0529023
0.061362
0.146649
0.355606
0.657308
1.01305
1.41058
1.85639
2.3316
2.79977
3.26876
3.78731
4.53735
5.71739
8.15085
13.3845
27.0438
66.405
196.682
776.287
0.0508174
0.0674672
0.179242
0.410162
0.708213
1.04484
1.42379
1.86019
2.33228
2.79973
3.26876
3.78733
4.53731
5.71835
8.14876
13.3782
27.0241
66.5231
196.325
769.851
0.0467054
0.076081
0.2172
0.462167
0.748192
1.06192
1.42384
1.85395
2.32547
2.79434
3.26468
3.78454
4.53419
5.71797
8.14257
13.3707
26.989
66.6694
196.311
762.97
0.0395965
0.0857851
0.249899
0.501513
0.770293
1.06048
1.40926
1.83752
2.31109
2.78255
3.25579
3.77838
4.52729
5.71578
8.13113
13.3615
26.9313
66.8327
196.75
755.677
0.0359778
0.0892675
0.268635
0.524993
0.773897
1.04379
1.38613
1.81579
2.29312
2.76752
3.24272
3.76924
4.51668
5.71157
8.11349
13.3505
26.8322
67.0077
197.13
748.195
0.0248397
0.0845741
0.285592
0.535612
0.762243
1.01753
1.35686
1.78994
2.2724
2.75048
3.22661
3.75762
4.50264
5.70534
8.08917
13.3387
26.6743
67.2019
197.023
740.511
0.0131007
0.0786571
0.304842
0.542888
0.744157
0.988055
1.32518
1.76243
2.25061
2.73289
3.20947
3.74418
4.48574
5.69716
8.05729
13.3258
26.4469
67.433
196.4
732.667
0.00564029
0.0797185
0.333583
0.548421
0.725419
0.960454
1.2966
1.73843
2.23222
2.71827
3.19431
3.73059
4.46762
5.68532
8.02002
13.2657
26.1718
67.2311
195.765
724.731
0.00508963
0.107885
0.386436
0.560741
0.720553
0.951435
1.28811
1.73333
2.2295
2.7168
3.18994
3.72484
4.454
5.67402
7.98241
13.1844
25.8649
66.522
191.669
715.25
0.00512914
0.113136
0.388031
0.552823
0.70766
0.936436
1.27355
1.72172
2.22197
2.71216
3.18564
3.71863
4.44363
5.65922
7.95954
13.14
25.7977
66.2748
191.364
713.698
0.0053005
0.116254
0.37878
0.532683
0.68128
0.90783
1.24682
1.70138
2.20967
2.70566
3.18035
3.7102
4.42878
5.63689
7.92751
13.0823
25.7356
66.0188
191.235
711.413
0.00554
0.118718
0.366174
0.509962
0.652972
0.878118
1.21999
1.68188
2.19915
2.70116
3.17718
3.70354
4.41508
5.61492
7.89589
13.0245
25.6773
65.7459
191.065
708.249
0.00580698
0.120422
0.351487
0.486197
0.624709
0.84942
1.19515
1.66486
2.19136
2.69959
3.17674
3.6994
4.40351
5.59449
7.86614
12.9682
25.6222
65.453
190.756
703.957
0.00609258
0.121275
0.335381
0.462161
0.597493
0.822823
1.17333
1.65115
2.18678
2.70114
3.17943
3.69815
4.39454
5.5762
7.83899
12.9144
25.5702
65.1404
190.266
698.398
0.00640401
0.121256
0.318434
0.438513
0.57216
0.799227
1.15537
1.64137
2.18581
2.70598
3.18531
3.70008
4.3885
5.56063
7.81463
12.8644
25.5214
64.8081
189.574
691.487
0.00676015
0.120428
0.301259
0.41595
0.549553
0.779529
1.1421
1.63612
2.18876
2.71427
3.19448
3.70525
4.38563
5.5484
7.79336
12.8192
25.4761
64.4559
188.667
683.197
0.00719217
0.118937
0.284521
0.395236
0.530554
0.764649
1.13432
1.63595
2.19588
2.72607
3.20695
3.71374
4.38613
5.53983
7.77573
12.7797
25.4346
64.0839
187.541
673.566
0.00774737
0.117016
0.268947
0.377215
0.516084
0.755517
1.13278
1.64139
2.20736
2.74135
3.22264
3.72556
4.39017
5.53507
7.76234
12.747
25.3973
63.693
186.206
662.728
0.00849578
0.114997
0.255321
0.362804
0.507087
0.753049
1.13821
1.65283
2.2233
2.75999
3.24139
3.74062
4.39781
5.53433
7.75368
12.7219
25.365
63.2851
184.685
650.935
0.00954038
0.113329
0.244489
0.352981
0.504504
0.758105
1.15118
1.67057
2.24365
2.78175
3.2629
3.75874
4.40905
5.53774
7.75018
12.7054
25.338
62.8632
183.021
638.581
0.0110319
0.112591
0.237352
0.348772
0.509233
0.771437
1.1721
1.69471
2.26823
2.80625
3.28677
3.77961
4.42377
5.54539
7.75217
12.6982
25.3172
62.4321
181.275
626.212
0.0131901
0.113508
0.234864
0.351222
0.522085
0.79362
1.20118
1.72513
2.29665
2.83294
3.31242
3.8028
4.44176
5.55724
7.75991
12.7009
25.3032
61.9981
179.533
614.506
0.0163333
0.116964
0.23802
0.361345
0.543703
0.82497
1.23829
1.76145
2.32834
2.86111
3.33915
3.82775
4.46267
5.57315
7.77352
12.7125
25.298
61.57
177.899
604.233
0.0209193
0.124006
0.247828
0.380049
0.574468
0.865447
1.28292
1.80293
2.36247
2.88989
3.36609
3.85371
4.48604
5.59286
7.79296
12.7321
25.3033
61.1582
176.498
596.178
0.0275979
0.135824
0.265249
0.408014
0.614369
0.914528
1.33417
1.84853
2.39797
2.9182
3.39221
3.87982
4.51123
5.61591
7.81802
12.7593
25.3203
60.7747
175.462
591.029
0.0372779
0.153685
0.291098
0.44555
0.662839
0.971132
1.39118
1.89718
2.43359
2.94483
3.41638
3.90504
4.5375
5.64171
7.84826
12.7934
25.35
60.4301
174.918
589.238
0.0512066
0.178802
0.325844
0.492248
0.718387
1.03377
1.45208
1.94735
2.46833
2.96851
3.43743
3.92828
4.56393
5.66949
7.88302
12.8335
25.3934
60.1376
174.975
590.902
0.0710592
0.212071
0.369027
0.546085
0.779104
1.10018
1.51474
1.99744
2.50113
2.9887
3.45426
3.94842
4.58944
5.69827
7.92128
12.8788
25.4529
59.9264
175.738
595.746
0.10935
0.267473
0.430707
0.616725
0.85418
1.17799
1.58516
2.0521
2.53553
3.0077
3.46812
3.96563
4.61445
5.72885
7.96333
12.9279
25.526
59.7606
177.424
604.07
0.255599
0.356224
0.480453
0.651749
0.891864
1.21788
1.62672
2.08789
2.55975
3.01807
3.47053
3.96522
4.62319
5.74844
8.01581
12.9659
25.4431
59.8624
172.125
610.396
0.306562
0.388495
0.508291
0.680419
0.922385
1.24844
1.65281
2.10527
2.56732
3.01819
3.46755
3.96223
4.63039
5.76876
8.05757
13.0264
25.5552
60.1819
170.486
616.83
0.315846
0.400437
0.523063
0.698092
0.942627
1.26883
1.67045
2.11722
2.57303
3.01873
3.46508
3.95945
4.63736
5.78908
8.09609
13.0893
25.6737
60.555
171.815
628.208
0.319206
0.404146
0.528002
0.704766
0.951188
1.27798
1.67714
2.11886
2.57004
3.01331
3.4584
3.95391
4.64185
5.80666
8.131
13.148
25.7817
60.9849
175.121
646.674
0.317406
0.402594
0.526896
0.704801
0.952641
1.28005
1.67745
2.11575
2.56402
3.00533
3.44902
3.94686
4.64448
5.82186
8.16297
13.2027
25.8749
61.3725
178.638
663.68
0.31155
0.396173
0.519989
0.698072
0.946675
1.27469
1.67105
2.10728
2.5537
2.99365
3.43655
3.93865
4.64539
5.83493
8.19151
13.2539
25.953
61.6943
181.937
679.525
0.302756
0.386076
0.508395
0.685574
0.934373
1.26296
1.65893
2.09422
2.53965
2.97857
3.42099
3.92936
4.64438
5.84455
8.21667
13.3035
26.0174
61.9527
185.237
698.787
0.291847
0.37251
0.492611
0.668475
0.916782
1.24522
1.64167
2.07699
2.52194
2.96033
3.40485
3.91886
4.64156
5.85122
8.23763
13.3491
26.0734
62.149
189.446
744.4
0.279808
0.357184
0.474417
0.648574
0.896013
1.22398
1.62
2.05539
2.50082
2.94089
3.38849
3.90741
4.63657
5.85485
8.25432
13.39
26.1216
62.0961
191.379
779.247
0.266787
0.340422
0.454455
0.626381
0.872851
1.2006
1.59674
2.03257
2.47911
2.92094
3.37146
3.89501
4.62948
5.85531
8.26619
13.425
26.1676
61.8189
189.303
772.326
0.252781
0.32251
0.432993
0.602283
0.847641
1.17538
1.57205
2.0088
2.45693
2.90073
3.35396
3.88182
4.62081
5.85292
8.27325
13.4527
26.2072
61.5626
186.988
762.343
0.237844
0.303535
0.410073
0.576573
0.820682
1.14864
1.54623
1.98447
2.43464
2.88068
3.33656
3.86828
4.61118
5.84822
8.27621
13.4742
26.245
61.3495
184.669
751.783
0.221948
0.283343
0.385831
0.549494
0.792394
1.1208
1.51973
1.95994
2.4125
2.86101
3.31963
3.85481
4.60101
5.84165
8.27582
13.4907
26.2849
61.1842
182.472
741.417
0.204876
0.261928
0.360496
0.521249
0.763069
1.09208
1.49264
1.93525
2.39049
2.8416
3.30295
3.84124
4.59018
5.83317
8.27225
13.5027
26.3274
61.0606
180.24
731.285
0.186456
0.23946
0.334072
0.491853
0.73266
1.06243
1.46481
1.90996
2.36809
2.82205
3.28619
3.82733
4.57852
5.82273
8.26574
13.5106
26.3717
60.9758
177.91
720.413
0.166699
0.215813
0.306329
0.461174
0.700991
1.03158
1.43599
1.8839
2.34534
2.80255
3.26963
3.81331
4.56645
5.81102
8.25743
13.5159
26.4148
60.8672
175.917
709.106
0.145707
0.190806
0.277177
0.428895
0.66756
0.999289
1.40612
1.85737
2.32266
2.78352
3.25365
3.79968
4.55481
5.79924
8.24872
13.5207
26.4701
60.8142
173.92
697.908
0.123489
0.164096
0.245845
0.393765
0.631086
0.964682
1.37471
1.83004
2.29963
2.76453
3.23799
3.78644
4.5436
5.78736
8.23966
13.5253
26.5392
60.8003
171.82
685.768
0.099713
0.13471
0.210733
0.354012
0.589818
0.925574
1.33972
1.79932
2.27363
2.74299
3.22024
3.77137
4.53098
5.77354
8.22778
13.5274
26.6154
60.8422
169.58
670.755
0.026905
0.15556
0.223725
0.236519
0.240752
0.241315
0.239384
0.235358
0.230689
0.225419
0.21953
0.212907
0.205221
0.196105
0.185207
0.172152
0.15639
0.137562
0.115606
0.0900448
0.0116472
0.100627
0.165101
0.180186
0.183582
0.184767
0.18472
0.184012
0.183604
0.183317
0.182905
0.18208
0.180479
0.177612
0.172832
0.165328
0.154048
0.138249
0.117902
0.0936712
0.00570284
0.0687309
0.129873
0.144762
0.146103
0.146112
0.146065
0.146336
0.147686
0.149882
0.152666
0.155783
0.158919
0.161678
0.163455
0.163252
0.159454
0.149893
0.133445
0.110848
0.00293697
0.0495698
0.108812
0.124016
0.123308
0.121229
0.119983
0.11961
0.120631
0.122981
0.126454
0.13088
0.136166
0.142243
0.14886
0.155425
0.160544
0.160864
0.153107
0.135915
0.00171235
0.0373814
0.0954179
0.113102
0.111341
0.107352
0.10446
0.102792
0.102293
0.103247
0.105552
0.10905
0.113762
0.119762
0.127193
0.136241
0.14659
0.156304
0.159904
0.153505
0.00111176
0.0284374
0.0854938
0.108063
0.107026
0.10199
0.0977409
0.0947848
0.0928107
0.0918117
0.0921201
0.0937095
0.0966424
0.100981
0.106918
0.114673
0.124016
0.135023
0.145438
0.150388
0.00079272
0.0207495
0.0759644
0.105441
0.107328
0.102305
0.0974863
0.0938199
0.0908683
0.0881283
0.0862842
0.0854849
0.0862566
0.0887911
0.0930582
0.0982242
0.103437
0.109845
0.121359
0.132863
0.0005687
0.0150956
0.0631608
0.100807
0.109318
0.105841
0.101113
0.0969578
0.0931988
0.0893179
0.085855
0.0836887
0.0830971
0.0844271
0.08746
0.0904309
0.0924585
0.0939424
0.0970578
0.0972726
0.000402741
0.0108737
0.0500034
0.0899204
0.108507
0.110344
0.107186
0.103494
0.0998011
0.0958899
0.0921092
0.0894225
0.0891101
0.0910825
0.0933304
0.0937214
0.0908003
0.0854614
0.0795007
0.0729105
0.000277657
0.00762553
0.0376657
0.0744749
0.0992949
0.109329
0.111465
0.110503
0.108548
0.106136
0.103652
0.102108
0.103096
0.104236
0.101534
0.0942875
0.0851616
0.0756302
0.0666541
0.0584053
0.000185151
0.00517959
0.0271619
0.057778
0.0833438
0.0989802
0.106755
0.110116
0.111219
0.110844
0.109345
0.107306
0.105398
0.102127
0.0953871
0.0860884
0.0758909
0.066001
0.0569706
0.0488244
0.000118699
0.00338082
0.0186313
0.0422852
0.0650199
0.0820072
0.0930637
0.0997626
0.103456
0.10481
0.104115
0.101663
0.0978679
0.0923798
0.0845848
0.0754639
0.0660285
0.0570326
0.0488193
0.0413933
7.25043e-05
0.00209831
0.0120734
0.0291461
0.0474549
0.0630372
0.0746098
0.0824601
0.0873329
0.0896686
0.0896691
0.0875341
0.0836197
0.0781123
0.0710888
0.0633106
0.0554452
0.0479095
0.0409691
0.0346475
4.16871e-05
0.00122268
0.00731385
0.0187712
0.0323264
0.0450227
0.0553658
0.0629065
0.0678485
0.0704401
0.0708678
0.0693378
0.0661523
0.0616492
0.0562125
0.0502904
0.0442832
0.0384232
0.0328812
0.0277273
2.21266e-05
0.000656087
0.00406626
0.0110886
0.020223
0.0295697
0.03781
0.0442328
0.0486428
0.0511015
0.0517598
0.0508338
0.0485906
0.0453373
0.0415274
0.0373629
0.0330281
0.0286785
0.0244583
0.0204784
1.04492e-05
0.000312605
0.00200197
0.00580296
0.0112376
0.0173066
0.0230993
0.0279739
0.0315752
0.0337676
0.0345814
0.0341696
0.0327612
0.0306075
0.0280661
0.0252119
0.0221631
0.0190479
0.0160155
0.0131961
4.07117e-06
0.000122868
0.000814921
0.00252682
0.00524267
0.00857144
0.012021
0.0151569
0.0176581
0.0193267
0.020088
0.0199863
0.0191522
0.0177597
0.0160768
0.0141936
0.0122183
0.0102477
0.00839659
0.00674631
1.08325e-06
3.28115e-05
0.000230353
0.000796937
0.00182212
0.00322924
0.00481726
0.00634956
0.00761849
0.00847457
0.00884001
0.00871199
0.00815304
0.0072701
0.006333
0.00538866
0.0044756
0.0036299
0.00289462
0.00227818
1.72832e-07
5.16621e-06
3.43963e-05
0.000127183
0.000348962
0.000701601
0.0011165
0.00151863
0.00183586
0.00201653
0.00203899
0.00191219
0.00167201
0.00138219
0.00114054
0.0009308
0.000746187
0.000586984
0.000457693
0.000354135
1.50168e-08
3.65377e-07
1.73049e-06
5.54545e-06
1.39461e-05
2.91189e-05
5.03423e-05
7.05303e-05
8.43091e-05
8.88591e-05
8.45134e-05
7.36474e-05
5.98109e-05
4.73199e-05
3.88357e-05
3.1651e-05
2.53373e-05
1.99014e-05
1.54365e-05
1.17903e-05
)
;

boundaryField
{
    right
    {
        type            cyclic;
    }
    left
    {
        type            cyclic;
    }
    outerWall
    {
        type            kqRWallFunction;
        value           nonuniform List<scalar> 
60
(
651.098
634.271
618.815
607.079
602.013
603.169
597.877
586.669
589.412
562.75
648.61
778.339
776.287
769.851
762.97
755.677
748.195
740.511
732.667
724.731
715.25
713.698
711.413
708.249
703.957
698.398
691.487
683.197
673.566
662.728
650.935
638.581
626.212
614.506
604.233
596.178
591.029
589.238
590.902
595.746
604.07
610.396
616.83
628.208
646.674
663.68
679.525
698.787
744.4
779.247
772.326
762.343
751.783
741.417
731.285
720.413
709.106
697.908
685.768
670.755
)
;
    }
    stirrerWall
    {
        type            kqRWallFunction;
        value           nonuniform List<scalar> 
100
(
8.89863e-06
7.22655e-06
5.09967e-06
3.50097e-06
2.29641e-06
1.46575e-06
9.53722e-07
6.94018e-07
6.38257e-07
7.57305e-07
1.02792e-06
1.48124e-06
2.08709e-06
2.77161e-06
3.27951e-06
3.24428e-06
2.47146e-06
1.24175e-06
3.37829e-07
1.4657e-08
1.4657e-08
1.44675e-07
3.70971e-07
9.57486e-07
2.34362e-06
5.43685e-06
1.18652e-05
2.41624e-05
4.58171e-05
8.11597e-05
0.00014394
0.000224976
0.000305644
0.000339108
0.000312626
0.000272109
0.000292835
0.000280511
0.000215271
0.000384143
0.00508963
0.00512914
0.0053005
0.00554
0.00580698
0.00609258
0.00640401
0.00676015
0.00719217
0.00774737
0.00849578
0.00954038
0.0110319
0.0131901
0.0163333
0.0209193
0.0275979
0.0372779
0.0512066
0.0710592
0.026905
0.0116472
0.00570284
0.00293697
0.00171235
0.00111176
0.00079272
0.0005687
0.000402741
0.000277657
0.000185151
0.000118699
7.25043e-05
4.16871e-05
2.21266e-05
1.04492e-05
4.07117e-06
1.08325e-06
1.72832e-07
1.50168e-08
1.50168e-08
3.65377e-07
1.73049e-06
5.54545e-06
1.39461e-05
2.91189e-05
5.03423e-05
7.05303e-05
8.43091e-05
8.88591e-05
8.45134e-05
7.36474e-05
5.98109e-05
4.73199e-05
3.88357e-05
3.1651e-05
2.53373e-05
1.99014e-05
1.54365e-05
1.17903e-05
)
;
    }
    top
    {
        type            empty;
    }
    bottom
    {
        type            empty;
    }
}


// ************************************************************************* //
