/*--------------------------------*- C++ -*----------------------------------*\
  =========                 |
  \\      /  F ield         | OpenFOAM: The Open Source CFD Toolbox
   \\    /   O peration     | Website:  https://openfoam.org
    \\  /    A nd           | Version:  10
     \\/     M anipulation  |
\*---------------------------------------------------------------------------*/
FoamFile
{
    format      ascii;
    class       volScalarField;
    location    "700";
    object      k;
}
// * * * * * * * * * * * * * * * * * * * * * * * * * * * * * * * * * * * * * //

dimensions      [0 2 -2 0 0 0 0];

internalField   nonuniform List<scalar> 
420
(
2.22045e-16
2.22045e-16
2.22045e-16
2.22045e-16
2.22045e-16
2.22045e-16
2.22045e-16
2.22045e-16
2.22045e-16
2.22045e-16
2.22045e-16
2.22045e-16
2.22045e-16
2.22045e-16
2.22045e-16
2.22045e-16
2.22045e-16
2.22045e-16
2.22045e-16
2.22045e-16
2.22045e-16
2.22045e-16
2.22045e-16
2.22045e-16
2.22045e-16
2.22045e-16
2.22045e-16
2.22045e-16
2.22045e-16
2.22045e-16
2.22045e-16
2.22045e-16
2.22045e-16
2.22045e-16
2.22045e-16
2.22045e-16
2.22045e-16
2.22045e-16
2.22045e-16
2.22045e-16
2.22045e-16
2.22045e-16
2.22045e-16
2.22045e-16
2.22045e-16
2.22045e-16
2.22045e-16
2.22045e-16
2.22045e-16
2.22045e-16
2.22045e-16
2.22045e-16
2.22045e-16
2.22045e-16
2.22045e-16
2.22045e-16
2.22045e-16
2.22045e-16
2.22045e-16
2.22045e-16
2.22045e-16
2.22045e-16
2.22045e-16
2.22045e-16
2.22045e-16
2.22045e-16
2.22045e-16
2.22045e-16
2.22045e-16
2.22045e-16
2.22045e-16
2.22045e-16
2.22045e-16
2.22045e-16
2.22045e-16
2.22045e-16
2.22045e-16
2.22045e-16
2.22045e-16
2.22045e-16
2.22045e-16
2.22045e-16
2.22045e-16
2.22045e-16
2.22045e-16
2.22045e-16
2.22045e-16
2.22045e-16
2.22045e-16
2.22045e-16
2.22045e-16
2.22045e-16
2.22045e-16
2.22045e-16
2.22045e-16
2.22045e-16
2.22045e-16
2.22045e-16
2.22045e-16
2.22045e-16
2.22045e-16
2.51552e-16
3.61752e-16
5.48326e-16
6.58844e-16
5.90021e-16
3.8743e-16
2.34216e-16
2.5503e-16
3.29014e-16
2.22045e-16
2.50044e-16
3.70697e-16
5.60733e-16
6.57617e-16
5.76184e-16
3.73746e-16
2.30243e-16
2.49746e-16
3.29133e-16
2.22045e-16
2.49332e-16
3.79082e-16
5.69248e-16
6.5328e-16
5.63395e-16
3.63564e-16
2.28929e-16
2.48998e-16
3.31389e-16
2.22045e-16
2.45553e-16
3.84979e-16
5.74539e-16
6.46479e-16
5.52333e-16
3.55667e-16
2.28483e-16
2.50218e-16
3.33816e-16
2.22045e-16
2.37499e-16
3.88932e-16
5.77439e-16
6.38603e-16
5.43478e-16
3.50006e-16
2.29884e-16
2.53023e-16
3.36837e-16
2.22045e-16
2.25314e-16
3.91743e-16
5.78134e-16
6.31849e-16
5.36713e-16
3.47174e-16
2.32948e-16
2.5666e-16
3.40118e-16
2.22045e-16
2.22045e-16
3.94906e-16
5.79504e-16
6.27651e-16
5.32405e-16
3.47485e-16
2.37504e-16
2.61098e-16
3.43431e-16
2.22045e-16
2.22045e-16
3.9972e-16
5.80478e-16
6.24666e-16
5.31003e-16
3.50755e-16
2.43558e-16
2.66549e-16
3.4651e-16
2.22045e-16
2.22045e-16
4.08316e-16
5.80854e-16
6.23318e-16
5.33348e-16
3.57285e-16
2.51053e-16
2.73219e-16
3.49146e-16
2.22045e-16
2.22045e-16
4.24626e-16
5.81263e-16
6.24355e-16
5.39777e-16
3.66677e-16
2.59685e-16
2.80847e-16
3.51249e-16
2.22045e-16
2.22045e-16
4.50968e-16
5.79606e-16
6.25258e-16
5.49264e-16
3.78575e-16
2.67724e-16
2.86244e-16
3.52885e-16
2.22045e-16
2.59941e-16
4.60952e-16
5.6802e-16
6.17678e-16
5.50873e-16
3.8742e-16
2.69943e-16
2.91108e-16
3.5602e-16
2.22045e-16
3.29854e-16
4.5583e-16
5.48232e-16
6.03433e-16
5.47184e-16
3.96062e-16
2.73499e-16
3.00489e-16
3.58708e-16
2.61847e-16
3.53634e-16
4.28878e-16
5.22081e-16
5.93578e-16
5.53195e-16
4.11854e-16
2.83791e-16
3.09324e-16
3.56708e-16
2.86462e-16
3.32771e-16
3.99272e-16
5.01244e-16
5.9022e-16
5.64109e-16
4.2931e-16
2.92754e-16
3.11349e-16
3.5176e-16
2.69008e-16
3.04436e-16
3.71153e-16
4.82273e-16
5.87304e-16
5.75267e-16
4.46407e-16
3.00033e-16
3.13369e-16
3.45468e-16
2.49214e-16
2.80336e-16
3.47138e-16
4.66826e-16
5.86611e-16
5.8723e-16
4.61661e-16
3.05718e-16
3.14143e-16
3.37749e-16
2.35253e-16
2.62154e-16
3.28365e-16
4.5645e-16
5.90143e-16
6.00943e-16
4.73732e-16
3.0878e-16
3.11917e-16
3.27563e-16
2.28463e-16
2.50414e-16
3.16774e-16
4.54888e-16
6.00861e-16
6.16856e-16
4.80693e-16
3.08832e-16
3.07241e-16
3.17288e-16
2.27493e-16
2.45402e-16
3.13914e-16
4.64394e-16
6.21121e-16
6.35536e-16
4.82172e-16
3.0533e-16
3.03376e-16
3.11774e-16
2.29466e-16
2.44635e-16
3.18084e-16
4.8364e-16
6.49278e-16
6.55495e-16
4.78468e-16
2.98085e-16
3.03301e-16
3.11307e-16
2.28345e-16
2.40685e-16
3.20095e-16
4.98429e-16
6.66413e-16
6.59866e-16
4.59252e-16
2.88503e-16
2.97652e-16
3.13796e-16
2.22045e-16
2.22045e-16
2.42259e-16
2.49405e-16
2.35182e-16
2.22769e-16
2.22045e-16
2.22045e-16
2.24536e-16
2.26641e-16
2.22045e-16
2.22045e-16
2.22045e-16
2.22045e-16
2.22045e-16
2.22045e-16
2.22045e-16
2.22045e-16
2.22045e-16
2.23789e-16
2.22045e-16
2.22045e-16
2.22045e-16
2.22045e-16
2.22045e-16
2.22045e-16
2.22045e-16
2.22045e-16
2.22045e-16
2.22045e-16
2.22045e-16
2.22045e-16
2.22045e-16
2.22045e-16
2.22045e-16
2.22045e-16
2.22045e-16
2.22045e-16
2.22045e-16
2.22045e-16
2.22045e-16
2.22045e-16
2.22045e-16
2.22045e-16
2.22045e-16
2.22045e-16
2.22045e-16
2.22045e-16
2.22045e-16
2.22045e-16
2.22045e-16
2.22045e-16
2.22045e-16
2.22045e-16
2.22045e-16
2.22045e-16
2.22045e-16
2.22045e-16
2.22045e-16
2.22045e-16
2.22045e-16
2.22045e-16
2.22045e-16
2.22045e-16
2.22045e-16
2.22045e-16
2.22045e-16
2.22045e-16
2.22045e-16
2.22045e-16
2.22045e-16
2.22045e-16
2.22045e-16
2.22045e-16
2.22045e-16
2.22045e-16
2.22045e-16
2.22045e-16
2.22045e-16
2.22045e-16
2.22045e-16
2.22045e-16
2.22045e-16
2.22045e-16
2.22045e-16
2.22045e-16
2.22045e-16
2.22045e-16
2.22045e-16
2.22045e-16
2.22045e-16
2.22045e-16
2.22045e-16
2.22045e-16
2.22045e-16
2.22045e-16
2.22045e-16
2.22045e-16
2.22045e-16
2.22045e-16
)
;

boundaryField
{
    right
    {
        type            cyclic;
    }
    left
    {
        type            cyclic;
    }
    outerWall
    {
        type            kqRWallFunction;
        value           nonuniform List<scalar> 
22
(
3.29014e-16
3.29133e-16
3.31389e-16
3.33816e-16
3.36837e-16
3.40118e-16
3.43431e-16
3.4651e-16
3.49146e-16
3.51249e-16
3.52885e-16
3.5602e-16
3.58708e-16
3.56708e-16
3.5176e-16
3.45468e-16
3.37749e-16
3.27563e-16
3.17288e-16
3.11774e-16
3.11307e-16
3.13796e-16
)
;
    }
    stirrerWall
    {
        type            kqRWallFunction;
        value           uniform 2.22045e-16;
    }
    top
    {
        type            empty;
    }
    bottom
    {
        type            empty;
    }
}


// ************************************************************************* //
