/*--------------------------------*- C++ -*----------------------------------*\
  =========                 |
  \\      /  F ield         | OpenFOAM: The Open Source CFD Toolbox
   \\    /   O peration     | Website:  https://openfoam.org
    \\  /    A nd           | Version:  10
     \\/     M anipulation  |
\*---------------------------------------------------------------------------*/
FoamFile
{
    format      ascii;
    class       volScalarField;
    location    "700";
    object      nut;
}
// * * * * * * * * * * * * * * * * * * * * * * * * * * * * * * * * * * * * * //

dimensions      [0 2 -1 0 0 0 0];

internalField   nonuniform List<scalar> 
420
(
1.04478e-20
5.37374e-20
1.39582e-19
2.58371e-19
3.93748e-19
5.26452e-19
6.36363e-19
6.91988e-19
6.62539e-19
5.72302e-19
1.04473e-20
5.53669e-20
1.43669e-19
2.61636e-19
3.94149e-19
5.24634e-19
6.28335e-19
6.63707e-19
6.06788e-19
5.0797e-19
1.04471e-20
5.85116e-20
1.53817e-19
2.75774e-19
4.08451e-19
5.36998e-19
6.28179e-19
6.32473e-19
5.45413e-19
4.44686e-19
1.04472e-20
6.17013e-20
1.67322e-19
2.96942e-19
4.30541e-19
5.52785e-19
6.21809e-19
5.86071e-19
4.77977e-19
3.85663e-19
1.04476e-20
6.42129e-20
1.78609e-19
3.11781e-19
4.38369e-19
5.43974e-19
5.8644e-19
5.22259e-19
4.13466e-19
3.26736e-19
1.04483e-20
6.40237e-20
1.71592e-19
2.87479e-19
3.88089e-19
4.6817e-19
4.96351e-19
4.44402e-19
3.47888e-19
2.66029e-19
1.04493e-20
6.08838e-20
1.38502e-19
2.05056e-19
2.63287e-19
3.1666e-19
3.50896e-19
3.37865e-19
2.75398e-19
2.02332e-19
1.04506e-20
4.78662e-20
7.96744e-20
1.03882e-19
1.2831e-19
1.54844e-19
1.81033e-19
1.96608e-19
1.84096e-19
1.35218e-19
1.04522e-20
2.14523e-20
2.79208e-20
3.45694e-20
4.19351e-20
5.02062e-20
5.91786e-20
6.79761e-20
7.34628e-20
6.72098e-20
2.82342e-21
3.6643e-21
4.61494e-21
5.67535e-21
6.84552e-21
8.12545e-21
9.51514e-21
1.10146e-20
1.26238e-20
1.43428e-20
4.89309e-19
5.15761e-19
8.14682e-19
1.55779e-18
2.31723e-18
1.87133e-18
1.10217e-18
4.70055e-19
2.60796e-19
8.59014e-20
4.36843e-19
4.7511e-19
8.18078e-19
1.62213e-18
2.35193e-18
1.91409e-18
1.11865e-18
4.45481e-19
2.48989e-19
8.74892e-20
3.87664e-19
4.36203e-19
8.16295e-19
1.66821e-18
2.36032e-18
1.91343e-18
1.09208e-18
4.3002e-19
2.40167e-19
8.74233e-20
3.37932e-19
3.88999e-19
8.04953e-19
1.70424e-18
2.35726e-18
1.94903e-18
1.06087e-18
4.21928e-19
2.35046e-19
8.73158e-20
2.8502e-19
3.32425e-19
7.84016e-19
1.61102e-18
2.14468e-18
1.97473e-18
1.04082e-18
4.19169e-19
2.32425e-19
8.70728e-20
2.28519e-19
2.69821e-19
7.55341e-19
1.55666e-18
2.04827e-18
1.99331e-18
1.03466e-18
4.22366e-19
2.32617e-19
8.68585e-20
1.70105e-19
2.19169e-19
7.24191e-19
1.62609e-18
2.06664e-18
1.98904e-18
1.04378e-18
4.31551e-19
2.34922e-19
8.65872e-20
1.14109e-19
1.73892e-19
6.97762e-19
1.72234e-18
2.12219e-18
1.99868e-18
1.06775e-18
4.46491e-19
2.38949e-19
8.62892e-20
6.60418e-20
1.33389e-19
6.88006e-19
1.79139e-18
2.27421e-18
2.02455e-18
1.10917e-18
4.67797e-19
2.44037e-19
8.59417e-20
3.04602e-20
1.00884e-19
7.20047e-19
1.81021e-18
2.29771e-18
2.06231e-18
1.16533e-18
4.95814e-19
2.48245e-19
8.54371e-20
1.03958e-20
8.32967e-20
8.53147e-19
1.67832e-18
2.24824e-18
2.09728e-18
1.2295e-18
5.27605e-19
2.51942e-19
8.53762e-20
1.03958e-20
1.24357e-19
9.73427e-19
1.37401e-18
1.74681e-18
1.85912e-18
1.26919e-18
5.64845e-19
2.69542e-19
8.594e-20
6.63568e-20
4.39043e-19
9.94584e-19
1.3977e-18
1.82729e-18
2.02743e-18
1.30433e-18
6.02722e-19
2.78482e-19
8.58922e-20
3.45957e-19
7.74218e-19
1.0706e-18
1.53412e-18
2.1198e-18
2.12007e-18
1.37459e-18
6.30609e-19
2.56283e-19
8.44543e-20
6.92131e-19
8.27192e-19
1.06092e-18
1.52225e-18
2.07262e-18
2.15148e-18
1.44261e-18
6.69297e-19
2.6433e-19
8.31994e-20
7.73957e-19
8.52793e-19
1.04361e-18
1.46913e-18
2.02467e-18
2.17404e-18
1.49758e-18
7.03773e-19
2.68354e-19
8.19131e-20
8.23626e-19
8.58066e-19
9.90096e-19
1.38317e-18
1.98493e-18
2.19378e-18
1.38902e-18
7.25077e-19
2.66979e-19
7.99086e-20
7.80575e-19
7.76079e-19
9.01182e-19
1.31304e-18
1.96272e-18
2.21791e-18
1.28618e-18
7.33431e-19
2.71034e-19
7.80667e-20
7.26476e-19
7.03433e-19
8.29351e-19
1.27103e-18
1.97153e-18
2.25076e-18
1.24869e-18
7.25558e-19
2.90099e-19
7.79973e-20
6.76282e-19
6.42056e-19
7.79167e-19
1.26585e-18
2.02499e-18
2.29827e-18
1.31168e-18
6.99494e-19
3.3343e-19
7.95329e-20
6.24451e-19
5.87876e-19
7.48659e-19
1.30119e-18
2.1309e-18
2.03059e-18
1.10058e-18
6.56958e-19
3.2198e-19
8.438e-20
5.63138e-19
5.30522e-19
7.25338e-19
1.35804e-18
2.25341e-18
1.79997e-18
9.94456e-19
6.04163e-19
3.12724e-19
8.56524e-20
1.43428e-20
1.15104e-19
4.53101e-19
7.71951e-19
8.3691e-19
8.0865e-19
7.89366e-19
7.52003e-19
7.08289e-19
6.55476e-19
1.26238e-20
8.44693e-20
2.90177e-19
5.69776e-19
7.46594e-19
8.06454e-19
8.11676e-19
7.92372e-19
7.58987e-19
7.1126e-19
1.10146e-20
6.30683e-20
1.90694e-19
4.00713e-19
5.90748e-19
7.01561e-19
7.4145e-19
7.48657e-19
7.37215e-19
7.1951e-19
9.51514e-21
5.04573e-20
1.33385e-19
2.57864e-19
3.97986e-19
5.23579e-19
6.04847e-19
6.43975e-19
6.50799e-19
6.46456e-19
8.12545e-21
4.31538e-20
1.07226e-19
1.93396e-19
2.9104e-19
3.86096e-19
4.68492e-19
5.19121e-19
5.3512e-19
5.32907e-19
6.84552e-21
3.75199e-20
9.32231e-20
1.62921e-19
2.3802e-19
3.10044e-19
3.69857e-19
4.03528e-19
4.09379e-19
4.01465e-19
5.67535e-21
3.21458e-20
8.25165e-20
1.43121e-19
2.02176e-19
2.50941e-19
2.80648e-19
2.87398e-19
2.78681e-19
2.65929e-19
4.61494e-21
2.66116e-20
6.9265e-20
1.14535e-19
1.47341e-19
1.64378e-19
1.66578e-19
1.60816e-19
1.52274e-19
1.44092e-19
3.6643e-21
2.06662e-20
4.39206e-20
5.64498e-20
6.09484e-20
6.16274e-20
6.09446e-20
5.97858e-20
5.81621e-20
5.58535e-20
2.82342e-21
1.04522e-20
1.04506e-20
1.04493e-20
1.04483e-20
1.04476e-20
1.04472e-20
1.04471e-20
1.04473e-20
1.04478e-20
)
;

boundaryField
{
    right
    {
        type            cyclic;
    }
    left
    {
        type            cyclic;
    }
    outerWall
    {
        type            nutkWallFunction;
        Cmu             0.09;
        kappa           0.41;
        E               9.8;
        value           uniform 0;
    }
    stirrerWall
    {
        type            nutkWallFunction;
        Cmu             0.09;
        kappa           0.41;
        E               9.8;
        value           uniform 0;
    }
    top
    {
        type            empty;
    }
    bottom
    {
        type            empty;
    }
}


// ************************************************************************* //
