/*--------------------------------*- C++ -*----------------------------------*\
  =========                 |
  \\      /  F ield         | OpenFOAM: The Open Source CFD Toolbox
   \\    /   O peration     | Website:  https://openfoam.org
    \\  /    A nd           | Version:  10
     \\/     M anipulation  |
\*---------------------------------------------------------------------------*/
FoamFile
{
    format      ascii;
    class       volScalarField;
    location    "700";
    object      nut;
}
// * * * * * * * * * * * * * * * * * * * * * * * * * * * * * * * * * * * * * //

dimensions      [0 2 -1 0 0 0 0];

internalField   nonuniform List<scalar> 
2000
(
1.02501e-10
1.59519e-08
2.47355e-07
1.25377e-06
3.43737e-06
6.61506e-06
1.04208e-05
1.46554e-05
1.92912e-05
2.43986e-05
3.03383e-05
3.87569e-05
5.4467e-05
8.22574e-05
9.5528e-05
8.8392e-05
7.1199e-05
5.54177e-05
4.53362e-05
4.15758e-05
8.32385e-11
1.31638e-08
2.15032e-07
1.08203e-06
2.92908e-06
5.60147e-06
8.81233e-06
1.24078e-05
1.64195e-05
2.10647e-05
2.70096e-05
3.6515e-05
5.4843e-05
8.32833e-05
9.53125e-05
8.30621e-05
6.33889e-05
4.77641e-05
3.79267e-05
3.33253e-05
5.87387e-11
9.38054e-09
1.57808e-07
8.2925e-07
2.30799e-06
4.50966e-06
7.22072e-06
1.03119e-05
1.3835e-05
1.81149e-05
2.41354e-05
3.46662e-05
5.48494e-05
8.24492e-05
9.41767e-05
7.92493e-05
5.91879e-05
4.41196e-05
3.45119e-05
2.90182e-05
4.03239e-11
6.20431e-09
1.04125e-07
5.68652e-07
1.66388e-06
3.4057e-06
5.66674e-06
8.34283e-06
1.14856e-05
1.54903e-05
2.16156e-05
3.2943e-05
5.37084e-05
7.94405e-05
9.08754e-05
7.68856e-05
5.7702e-05
4.33103e-05
3.37241e-05
2.71576e-05
2.64496e-11
3.98745e-09
6.56145e-08
3.63256e-07
1.11473e-06
2.41622e-06
4.24051e-06
6.53628e-06
9.36621e-06
1.31683e-05
1.93979e-05
3.118e-05
5.14248e-05
7.46998e-05
8.52114e-05
7.59418e-05
5.89476e-05
4.50536e-05
3.51338e-05
2.72852e-05
1.68822e-11
2.52687e-09
4.06338e-08
2.23628e-07
7.10097e-07
1.62779e-06
3.03626e-06
4.95903e-06
7.49733e-06
1.11332e-05
1.74259e-05
2.92311e-05
4.80345e-05
6.86683e-05
7.8408e-05
7.30632e-05
6.10935e-05
4.84186e-05
3.79625e-05
2.87821e-05
1.09848e-11
1.62164e-09
2.53053e-08
1.36294e-07
4.41189e-07
1.06108e-06
2.10446e-06
3.66739e-06
5.91524e-06
9.38945e-06
1.56482e-05
2.70621e-05
4.40505e-05
6.20815e-05
7.1201e-05
6.91201e-05
6.21209e-05
5.16407e-05
4.12146e-05
3.10297e-05
7.99368e-12
1.12783e-09
1.65615e-08
8.51005e-08
2.75801e-07
6.8712e-07
1.44012e-06
2.68108e-06
4.64662e-06
7.94476e-06
1.40445e-05
2.47353e-05
3.98029e-05
5.55384e-05
6.42622e-05
6.4563e-05
6.15929e-05
5.39259e-05
4.41751e-05
3.34034e-05
7.35158e-12
9.65213e-10
1.26271e-08
5.86197e-08
1.82793e-07
4.5995e-07
1.00328e-06
1.98218e-06
3.69103e-06
6.7931e-06
1.26064e-05
2.23739e-05
3.55363e-05
4.91939e-05
5.77281e-05
5.98774e-05
5.94547e-05
5.47733e-05
4.61325e-05
3.52009e-05
8.72302e-12
1.10826e-09
1.3055e-08
5.08334e-08
1.40938e-07
3.38828e-07
7.43567e-07
1.52923e-06
3.02415e-06
5.91229e-06
1.13587e-05
2.0118e-05
3.15302e-05
4.33547e-05
5.15887e-05
5.50247e-05
5.66504e-05
5.43889e-05
4.67517e-05
3.58705e-05
1.18405e-11
1.49233e-09
1.7473e-08
6.05605e-08
1.39559e-07
2.97146e-07
6.19723e-07
1.27741e-06
2.60908e-06
5.28838e-06
1.03338e-05
1.81361e-05
2.79577e-05
3.81853e-05
4.59328e-05
5.01434e-05
5.30525e-05
5.22562e-05
4.545e-05
3.4908e-05
1.70629e-11
1.99037e-09
2.39767e-08
8.09043e-08
1.70764e-07
3.16824e-07
6.02216e-07
1.19059e-06
2.41519e-06
4.91627e-06
9.55637e-06
1.65432e-05
2.49942e-05
3.38253e-05
4.08266e-05
4.5207e-05
4.48302e-05
4.37637e-05
4.20494e-05
3.22034e-05
2.40431e-11
2.6614e-09
2.98845e-08
9.83913e-08
2.06277e-07
3.6794e-07
6.59502e-07
1.23992e-06
2.42819e-06
4.8112e-06
9.08585e-06
1.54649e-05
2.28459e-05
3.04356e-05
3.66145e-05
4.06091e-05
3.23173e-05
3.01755e-05
3.68476e-05
2.80368e-05
3.19305e-11
3.44174e-09
3.39054e-08
1.01166e-07
2.13218e-07
3.98441e-07
7.36629e-07
1.38323e-06
2.64482e-06
5.0244e-06
8.80759e-06
1.2465e-05
1.78806e-05
2.29906e-05
2.73105e-05
3.18751e-05
2.63541e-05
2.35856e-05
2.71852e-05
2.30526e-05
3.77841e-11
3.95362e-09
3.37223e-08
9.30123e-08
1.90531e-07
3.73452e-07
7.60533e-07
1.5134e-06
2.96713e-06
5.50673e-06
7.96842e-06
1.05421e-05
1.40062e-05
1.7621e-05
2.11879e-05
2.47491e-05
2.2467e-05
2.02086e-05
1.95542e-05
1.74613e-05
3.73808e-11
3.71729e-09
2.64239e-08
7.03515e-08
1.51984e-07
3.15457e-07
6.59177e-07
1.416e-06
2.96393e-06
5.63144e-06
8.50691e-06
1.00757e-05
1.23292e-05
1.48292e-05
1.73377e-05
1.94282e-05
1.88236e-05
1.63031e-05
1.32761e-05
1.12033e-05
2.84785e-11
2.48214e-09
1.38906e-08
3.75442e-08
8.92905e-08
2.03419e-07
4.5376e-07
1.00527e-06
2.17996e-06
4.03978e-06
6.43431e-06
9.02187e-06
1.17691e-05
1.31529e-05
1.44457e-05
1.51425e-05
1.43917e-05
1.15911e-05
7.93942e-06
4.91902e-06
1.43098e-11
8.17874e-10
3.53284e-09
1.00688e-08
2.65243e-08
6.56822e-08
1.53836e-07
3.43555e-07
7.15578e-07
1.32161e-06
2.03883e-06
2.76185e-06
3.61705e-06
4.5318e-06
5.09551e-06
5.11722e-06
4.5467e-06
3.41177e-06
2.2105e-06
1.58477e-06
3.89344e-12
6.85244e-11
2.34528e-10
6.82009e-10
1.84691e-09
4.65408e-09
1.09345e-08
2.39995e-08
4.96231e-08
9.4411e-08
1.54089e-07
2.18135e-07
2.94342e-07
3.64879e-07
4.14756e-07
4.66911e-07
5.18342e-07
4.66469e-07
3.36059e-07
2.79182e-07
4.33533e-14
4.92035e-13
1.43751e-12
4.19378e-12
1.1521e-11
2.9809e-11
7.21472e-11
1.62112e-10
3.37625e-10
6.54114e-10
1.26396e-09
2.14483e-09
3.15335e-09
3.77476e-09
3.74425e-09
3.49741e-09
4.02946e-09
4.12304e-09
3.37272e-09
6.40266e-09
4.55224e-05
6.25746e-05
0.000107244
0.000213479
0.000458979
0.000987713
0.00193559
0.00326485
0.00481304
0.00644219
0.00800548
0.00930822
0.0101619
0.0106227
0.0111932
0.0123676
0.0149999
0.0197391
0.028029
0.0416255
3.50679e-05
4.81865e-05
8.64165e-05
0.000182273
0.000412295
0.000922568
0.00185614
0.00317856
0.00472777
0.00636915
0.00795431
0.00928075
0.0101538
0.0106191
0.0111914
0.0123627
0.015006
0.0197715
0.0279837
0.0405601
2.86357e-05
3.82555e-05
7.09469e-05
0.000158045
0.000375227
0.000870441
0.00179253
0.00310899
0.00465844
0.00631034
0.00791479
0.00926148
0.0101517
0.0106198
0.011193
0.0123595
0.0150141
0.0198154
0.0280484
0.039523
2.46598e-05
3.11201e-05
5.90986e-05
0.000138932
0.000345637
0.000828653
0.00174135
0.00305184
0.00459985
0.00625983
0.00788094
0.00924506
0.0101509
0.0106205
0.0111947
0.0123559
0.0150209
0.0198538
0.0281865
0.0387664
2.27339e-05
2.64681e-05
5.06775e-05
0.000124882
0.000323648
0.000797455
0.00170271
0.00300679
0.00455143
0.00621715
0.00785244
0.00923127
0.0101514
0.0106224
0.0111982
0.0123544
0.015029
0.0198883
0.0283489
0.0384966
2.24005e-05
2.39607e-05
4.52333e-05
0.000115507
0.000309119
0.000777816
0.00167926
0.00297704
0.00451582
0.00618452
0.00783106
0.00922209
0.0101553
0.0106271
0.0112047
0.0123559
0.0150405
0.0199234
0.0284619
0.0386268
2.30485e-05
2.26627e-05
4.17304e-05
0.00010974
0.000301866
0.00077187
0.00167496
0.00296567
0.00449458
0.006163
0.00781779
0.00921704
0.0101604
0.0106317
0.0112116
0.0123571
0.0150566
0.0199897
0.0284976
0.0382752
2.41452e-05
2.22073e-05
3.98694e-05
0.000107509
0.000302464
0.000781245
0.00169117
0.00297222
0.00448625
0.00615017
0.00781005
0.00921412
0.0101651
0.0106355
0.0112182
0.0123572
0.015073
0.0200995
0.02844
0.037564
2.51148e-05
2.21498e-05
3.93381e-05
0.000108813
0.000311713
0.000807775
0.00172879
0.00299595
0.00449015
0.00614596
0.0078089
0.00921524
0.0101719
0.0106405
0.0112262
0.012357
0.0150869
0.0202602
0.0282503
0.0378941
2.54229e-05
2.21006e-05
3.99852e-05
0.000114038
0.000331196
0.000853836
0.00178756
0.00303428
0.00450431
0.00614933
0.00781233
0.00921868
0.0101789
0.0106451
0.0112337
0.012356
0.0150927
0.0204331
0.028264
0.0342392
2.46681e-05
2.17781e-05
4.17989e-05
0.000123855
0.000362909
0.000920869
0.00186357
0.00308079
0.00452307
0.00615531
0.00781538
0.00922111
0.0101832
0.0106475
0.0112393
0.0123536
0.0150886
0.0205976
0.0299144
0.0395003
2.27458e-05
2.10823e-05
4.49422e-05
0.000139256
0.000409238
0.0010086
0.0019499
0.00312904
0.0045437
0.00616391
0.00781908
0.00922368
0.0101864
0.0106493
0.0112436
0.012351
0.0150753
0.0206837
0.0315927
0.0500855
1.98142e-05
2.01003e-05
4.97624e-05
0.000161545
0.000472536
0.00111336
0.00203607
0.00317067
0.0045602
0.00617045
0.00782037
0.00922298
0.0101862
0.0106496
0.011246
0.0123488
0.0150556
0.020682
0.0316245
0.0500279
1.62067e-05
1.90088e-05
5.64057e-05
0.000191417
0.00055254
0.00119347
0.00189874
0.00286528
0.00417387
0.00605265
0.00781807
0.00921827
0.0101822
0.0106483
0.0112458
0.0123469
0.0150325
0.0206729
0.0316013
0.0497034
1.21018e-05
1.78696e-05
6.40117e-05
0.000227799
0.000644327
0.00113122
0.0017949
0.00269681
0.00390822
0.00563456
0.00781063
0.00920916
0.0101741
0.0106453
0.0112427
0.0123455
0.0150057
0.0206613
0.0316045
0.0493633
7.87725e-06
1.6378e-05
6.97032e-05
0.000266574
0.00068161
0.00113342
0.00175643
0.00262055
0.00377678
0.00541355
0.00756209
0.00919549
0.0101615
0.0106407
0.0112362
0.0123446
0.0149743
0.0206461
0.0316394
0.0490039
5.17311e-06
1.37713e-05
7.04966e-05
0.000300212
0.000751834
0.00116712
0.00176594
0.00260457
0.00372136
0.00530147
0.00731597
0.00917703
0.0101443
0.0106342
0.0112258
0.0123443
0.0149347
0.0206271
0.0316498
0.0486348
2.42288e-06
1.03045e-05
6.99919e-05
0.000319354
0.000819026
0.00122993
0.00181192
0.00264146
0.00373517
0.00528312
0.00720744
0.00915375
0.0101227
0.0106262
0.0112115
0.0123448
0.0148839
0.0206063
0.0315911
0.0482733
7.63362e-07
7.22527e-06
6.86493e-05
0.000334084
0.000821378
0.00135251
0.00202068
0.00287433
0.00397066
0.00549966
0.00737844
0.00912601
0.0100974
0.0106167
0.0111931
0.0123459
0.0148207
0.0205865
0.031464
0.0479417
1.64966e-07
5.29065e-06
6.98186e-05
0.000350277
0.00081381
0.00131204
0.0019963
0.00301644
0.00439508
0.00602013
0.00767386
0.00909623
0.0100707
0.0106059
0.0111715
0.0123318
0.0147502
0.0204916
0.0313117
0.0471766
5.93871e-08
5.42424e-06
8.38347e-05
0.000378602
0.000812458
0.00128331
0.00195732
0.00297729
0.00436103
0.00599368
0.0076498
0.00907563
0.0100501
0.0105966
0.0111501
0.012309
0.0146763
0.0203157
0.0308388
0.0462225
5.98926e-08
5.59493e-06
8.37355e-05
0.000371517
0.000793324
0.00125753
0.00192833
0.00294852
0.00433566
0.00597263
0.00763197
0.00905959
0.0100355
0.0105835
0.011134
0.012288
0.0146543
0.0202704
0.0308095
0.0460651
6.19344e-08
5.74153e-06
8.01171e-05
0.000350623
0.000755175
0.00121225
0.00188088
0.00290535
0.00430094
0.00594629
0.00760992
0.0090368
0.0100108
0.0105582
0.0111052
0.012254
0.0146291
0.0202276
0.0308106
0.0457822
6.47703e-08
5.87986e-06
7.57339e-05
0.000327741
0.00071495
0.00116603
0.0018343
0.00286528
0.00427171
0.00592548
0.0075929
0.00901713
0.0099868
0.0105316
0.0110748
0.0122184
0.0146046
0.0201837
0.0308113
0.0454388
6.79253e-08
5.97956e-06
7.10778e-05
0.000305015
0.000675701
0.00112217
0.00179223
0.00283184
0.00425076
0.00591377
0.00758323
0.00900267
0.00996514
0.0105052
0.0110442
0.0121824
0.0145813
0.020138
0.0307999
0.0450144
7.12954e-08
6.02818e-06
6.64027e-05
0.000283439
0.000638908
0.00108229
0.00175641
0.00280679
0.00423955
0.00591208
0.00758262
0.00899457
0.00994685
0.0104799
0.0110142
0.0121467
0.0145593
0.0200907
0.0307715
0.0444998
7.49645e-08
6.02478e-06
6.18979e-05
0.00026366
0.000605663
0.00104766
0.0017282
0.00279141
0.00423924
0.00592128
0.00759169
0.00899388
0.00993275
0.0104565
0.0109853
0.0121121
0.0145389
0.020042
0.0307232
0.0438894
7.91529e-08
5.97643e-06
5.77282e-05
0.000246202
0.000576952
0.0010195
0.0017089
0.00278689
0.00425077
0.00594213
0.00761103
0.00900115
0.00992364
0.0104357
0.0109583
0.0120793
0.0145204
0.019992
0.0306533
0.0431802
8.42253e-08
5.89628e-06
5.40462e-05
0.00023154
0.000553739
0.000999049
0.00169982
0.00279442
0.00427497
0.00597516
0.00764109
0.00901685
0.00992016
0.0104184
0.0109337
0.012049
0.014504
0.0199409
0.0305605
0.0423702
9.07346e-08
5.80258e-06
5.10024e-05
0.000220154
0.000536999
0.000987581
0.00170228
0.00281512
0.00431257
0.0060207
0.00768205
0.0090413
0.00992283
0.0104051
0.0109122
0.0120218
0.01449
0.0198891
0.0304447
0.041466
9.94997e-08
5.71926e-06
4.87615e-05
0.00021258
0.000527738
0.000986392
0.00171756
0.00285004
0.00436412
0.00607886
0.00773383
0.00907456
0.00993202
0.0103965
0.0108944
0.0119987
0.0144789
0.0198369
0.030307
0.0404944
1.11724e-07
5.67717e-06
4.7524e-05
0.000209467
0.000527021
0.000996784
0.00174688
0.00290008
0.00442994
0.00614946
0.00779605
0.00911644
0.00994791
0.0103929
0.0108809
0.0119803
0.0144709
0.0197853
0.0301504
0.0394872
1.2917e-07
5.71705e-06
4.75578e-05
0.000211656
0.000535978
0.00102003
0.00162327
0.00276284
0.00441781
0.00623199
0.00786801
0.00916647
0.00997049
0.0103948
0.0108723
0.0119672
0.0144666
0.0197352
0.0299802
0.0384789
1.54401e-07
5.89429e-06
4.92481e-05
0.00022025
0.000555802
0.000971607
0.00145053
0.00249264
0.00401876
0.00608065
0.00794859
0.00922383
0.00999949
0.0104022
0.010869
0.0119601
0.0144664
0.0196881
0.0298043
0.0375176
1.91133e-07
6.28849e-06
5.31779e-05
0.000236703
0.000517962
0.00086367
0.00131845
0.00226871
0.00366693
0.00558297
0.00803628
0.00928736
0.0100344
0.0104151
0.0108713
0.0119588
0.014471
0.019646
0.0296333
0.0366592
2.44697e-07
7.02229e-06
6.02639e-05
0.000262881
0.000457852
0.000786077
0.00121795
0.00208372
0.00336057
0.00512993
0.0076177
0.00935552
0.0100744
0.0104333
0.0108793
0.0119632
0.0144809
0.0196113
0.0294804
0.0359582
3.22658e-07
8.30105e-06
7.19871e-05
0.000301045
0.000420077
0.00073258
0.0011445
0.00193451
0.00309362
0.0047274
0.00701026
0.00942635
0.0101184
0.0104563
0.0108929
0.0119732
0.0144968
0.019587
0.0293604
0.0354576
4.35579e-07
1.05079e-05
9.07865e-05
0.000313574
0.000388124
0.000690874
0.00109609
0.00182803
0.00287421
0.00438369
0.00652911
0.00888446
0.0101649
0.0104832
0.0109118
0.0119885
0.0145193
0.0195761
0.0292882
0.0352131
5.97936e-07
1.44746e-05
0.000120698
0.000248772
0.000346156
0.000650518
0.00107964
0.00179468
0.00274941
0.00410958
0.00611031
0.00843206
0.0102122
0.010513
0.0109353
0.0120085
0.0145488
0.0195821
0.0292764
0.0354247
8.29137e-07
2.24859e-05
0.000118815
0.000224216
0.000358479
0.000701673
0.00121643
0.00203744
0.00301654
0.00422677
0.00584716
0.00797226
0.010258
0.0105442
0.0109624
0.0120327
0.0145861
0.0196115
0.0293356
0.0370263
5.3603e-06
5.95427e-05
0.00019653
0.000381975
0.000646858
0.00113299
0.00179055
0.00267756
0.00367713
0.0047551
0.00615943
0.00821439
0.0103045
0.0105785
0.0109942
0.0120614
0.0146331
0.0196641
0.0294884
0.0388741
7.33145e-05
0.000178147
0.000322822
0.000580601
0.00095503
0.0014518
0.00204996
0.00280613
0.00384624
0.00516976
0.00689207
0.00937036
0.0103151
0.0105852
0.0110187
0.0120797
0.0146035
0.0196837
0.0291647
0.0388502
0.000129129
0.000217149
0.000358091
0.000587578
0.000974545
0.00154062
0.00226296
0.00320222
0.00445249
0.00594265
0.00767191
0.00974345
0.010321
0.0105943
0.0110388
0.012106
0.0146297
0.0197113
0.0292412
0.0392753
0.00018243
0.000255194
0.000387019
0.000608898
0.000972909
0.00150491
0.00220833
0.00316443
0.00446443
0.00602244
0.00784006
0.00975058
0.0103254
0.0106043
0.0110578
0.0121338
0.01466
0.01972
0.0295822
0.0400864
0.000205866
0.000290358
0.000434471
0.000677741
0.00107036
0.00163981
0.00238485
0.0033903
0.00473729
0.00633188
0.00822536
0.00974931
0.0103265
0.0106131
0.0110758
0.0121609
0.0146904
0.0197201
0.0300342
0.0413339
0.000222759
0.000310784
0.000462935
0.000720195
0.00113182
0.00172354
0.00249946
0.00355086
0.00494732
0.00660539
0.00865886
0.00974175
0.010325
0.0106212
0.0110933
0.0121873
0.0147217
0.019721
0.0304666
0.04246
0.000236984
0.000330024
0.000489883
0.000763095
0.00120092
0.00182382
0.00264469
0.00375295
0.00520505
0.0069616
0.00875285
0.00972982
0.0103215
0.0106285
0.01111
0.0122129
0.0147537
0.0197295
0.0307996
0.0434394
0.00025096
0.000352218
0.000526351
0.000795551
0.00124548
0.00195705
0.00283594
0.00402018
0.00556431
0.00741948
0.0087293
0.00971408
0.0103166
0.0106345
0.0111254
0.0122379
0.0147855
0.019753
0.0309624
0.0446381
0.000264707
0.000353909
0.000503762
0.000760799
0.00120383
0.00193469
0.00301406
0.00438412
0.00589572
0.00738568
0.00869973
0.00969561
0.0103109
0.0106398
0.0111395
0.0122609
0.0148158
0.0197969
0.0308299
0.047642
0.000248138
0.000331327
0.000473301
0.000721022
0.00115473
0.00187991
0.00295972
0.00433322
0.0058471
0.00734152
0.00866425
0.00967486
0.010304
0.0106443
0.0111521
0.0122816
0.0148415
0.019813
0.0305923
0.0499511
0.000230266
0.000306875
0.000440132
0.000677036
0.00109941
0.00181675
0.00289541
0.00427137
0.00578845
0.0072885
0.00862201
0.00965194
0.010296
0.0106478
0.0111628
0.0122995
0.0148636
0.019791
0.0303284
0.0494683
0.000211621
0.000281476
0.000405488
0.00063034
0.00103925
0.00174615
0.00282166
0.00419927
0.00571992
0.00722726
0.00857511
0.00962711
0.0102871
0.0106503
0.0111717
0.0123141
0.0148822
0.019773
0.0300639
0.0487889
0.000192787
0.000255946
0.000370435
0.000582539
0.000976261
0.00167013
0.00274002
0.00411821
0.0056428
0.0071593
0.00852537
0.00960087
0.010278
0.0106523
0.0111793
0.0123262
0.0148984
0.0197628
0.0298039
0.0481561
0.000174058
0.000230615
0.000335644
0.000534722
0.000912152
0.00159088
0.00265288
0.00403039
0.00555898
0.00708619
0.0084735
0.00957364
0.010269
0.0106539
0.0111859
0.0123363
0.0149131
0.0197596
0.0295615
0.0475362
0.000155471
0.000205684
0.000301596
0.000487605
0.000848101
0.00151002
0.0025621
0.00393765
0.00547016
0.0070098
0.0084193
0.00954517
0.0102595
0.0106548
0.0111914
0.0123447
0.0149264
0.0197615
0.0293219
0.0467105
0.000137003
0.000181351
0.000268497
0.000441573
0.000784722
0.00142853
0.00246885
0.0038409
0.0053768
0.00693006
0.00836251
0.00951506
0.0102492
0.0106546
0.0111959
0.0123517
0.0149384
0.0197663
0.029085
0.0459125
0.000118696
0.000157614
0.000236346
0.00039679
0.000722359
0.00134691
0.0023739
0.00374112
0.0052803
0.00684751
0.00830357
0.00948346
0.0102382
0.0106536
0.0111997
0.0123579
0.014949
0.0197623
0.0288922
0.0452774
0.00010065
0.000134443
0.000205169
0.000353215
0.000660933
0.00126546
0.00227792
0.00363942
0.00518176
0.00676306
0.00824313
0.00945082
0.0102271
0.0106526
0.0112036
0.0123642
0.0149623
0.0197634
0.0287041
0.0445952
8.29301e-05
0.000111668
0.000174488
0.000309916
0.000599393
0.00118356
0.00218077
0.00353606
0.005081
0.00667639
0.00818093
0.00941698
0.0102157
0.0106511
0.0112074
0.0123707
0.0149795
0.019767
0.0285115
0.043767
6.52667e-05
8.85861e-05
0.000143268
0.000265763
0.000536464
0.00109918
0.00208008
0.00342772
0.00497442
0.0065839
0.00811376
0.00937917
0.0102015
0.0106471
0.011209
0.0123764
0.0149991
0.0197761
0.0283121
0.0427676
4.48436e-07
2.41825e-05
8.77665e-05
0.000127225
0.000147096
0.000162957
0.000176291
0.00018779
0.000204014
0.000194999
0.000184933
0.000173963
0.000162329
0.000150103
0.000137241
0.000123631
0.000109055
9.3406e-05
7.67302e-05
5.87138e-05
1.82481e-07
1.28671e-05
7.84806e-05
9.60417e-05
0.000113085
0.000128
0.000141004
0.000151915
0.000161459
0.00015755
0.000152986
0.000147552
0.000141303
0.000134209
0.00012608
0.000116601
0.000105356
9.20832e-05
7.69101e-05
6.02194e-05
8.3822e-08
7.50679e-06
5.7301e-05
8.12614e-05
9.52951e-05
0.000109049
0.000121971
0.000132719
0.000131508
0.00013039
0.00012918
0.000127536
0.000125353
0.000122564
0.000118952
0.000114096
0.000107327
9.77688e-05
8.50576e-05
6.96516e-05
4.04132e-08
4.7083e-06
4.13853e-05
7.53977e-05
8.66531e-05
9.90374e-05
0.000112019
0.000110954
0.000110235
0.000110057
0.00011029
0.000110633
0.000110939
0.000111179
0.000111206
0.000110674
0.000108923
0.000104587
9.63876e-05
8.38989e-05
2.20088e-08
3.14395e-06
3.14245e-05
7.36744e-05
8.25075e-05
9.18718e-05
9.90631e-05
9.74337e-05
9.60565e-05
9.542e-05
9.55136e-05
9.61223e-05
9.71051e-05
9.84625e-05
0.000100188
0.000102201
0.000104192
0.000105199
0.00010298
9.59284e-05
1.33153e-08
2.10734e-06
2.43193e-05
6.94235e-05
8.12745e-05
8.56096e-05
9.17004e-05
9.08692e-05
8.86074e-05
8.67361e-05
8.56464e-05
8.52708e-05
8.54683e-05
8.62185e-05
8.75794e-05
8.95749e-05
9.2093e-05
9.5113e-05
9.74921e-05
9.65297e-05
8.82411e-09
1.32288e-06
1.83173e-05
6.09875e-05
8.24019e-05
8.5569e-05
8.73104e-05
8.82699e-05
8.722e-05
8.40725e-05
8.14016e-05
7.93317e-05
7.79174e-05
7.71186e-05
7.68158e-05
7.65231e-05
7.58119e-05
7.5819e-05
7.81191e-05
8.07111e-05
5.86731e-09
8.38387e-07
1.187e-05
4.91647e-05
8.35313e-05
8.84786e-05
8.97124e-05
9.19123e-05
8.97924e-05
8.60614e-05
8.2221e-05
7.89383e-05
7.62379e-05
7.41039e-05
7.22192e-05
6.96877e-05
6.61604e-05
6.24794e-05
5.9399e-05
5.64879e-05
3.83958e-09
5.37856e-07
7.43616e-06
3.30648e-05
7.15128e-05
8.53167e-05
8.59718e-05
8.62741e-05
8.80443e-05
9.18672e-05
8.8123e-05
8.4458e-05
8.16793e-05
7.94026e-05
7.64858e-05
7.17141e-05
6.4343e-05
5.6613e-05
4.9845e-05
4.3843e-05
2.43814e-09
3.38511e-07
4.55099e-06
2.01796e-05
4.98698e-05
7.89273e-05
8.66847e-05
8.31595e-05
7.93079e-05
7.70322e-05
7.76043e-05
8.31034e-05
8.79666e-05
8.28752e-05
8.23365e-05
7.26959e-05
6.19895e-05
5.20271e-05
4.35762e-05
3.64518e-05
1.49224e-09
2.0977e-07
2.78336e-06
1.19556e-05
3.04518e-05
5.4505e-05
7.53496e-05
8.8392e-05
8.55592e-05
8.32277e-05
8.45717e-05
9.18037e-05
9.05867e-05
8.67831e-05
7.82335e-05
6.71158e-05
5.57337e-05
4.56262e-05
3.72544e-05
3.03323e-05
8.7469e-10
1.26286e-07
1.67592e-06
7.03221e-06
1.77011e-05
3.29429e-05
4.95894e-05
6.40729e-05
7.44316e-05
8.04904e-05
8.28498e-05
8.22417e-05
7.92833e-05
7.39594e-05
6.53919e-05
5.54012e-05
4.56897e-05
3.72197e-05
3.02032e-05
2.43752e-05
4.86453e-10
7.2685e-08
9.83152e-07
4.1092e-06
1.01874e-05
1.89842e-05
2.93355e-05
3.96171e-05
4.83949e-05
5.47227e-05
5.82063e-05
5.88971e-05
5.71356e-05
5.32507e-05
4.72297e-05
4.04352e-05
3.38394e-05
2.79381e-05
2.28774e-05
1.85484e-05
2.53481e-10
3.9257e-08
5.52198e-07
2.35786e-06
5.83863e-06
1.0817e-05
1.67447e-05
2.28565e-05
2.84052e-05
3.27586e-05
3.54916e-05
3.64518e-05
3.5741e-05
3.36271e-05
3.04477e-05
2.6758e-05
2.29832e-05
1.93707e-05
1.60614e-05
1.31101e-05
1.21315e-10
1.9406e-08
2.88259e-07
1.28938e-06
3.26023e-06
6.08148e-06
9.4349e-06
1.29078e-05
1.60974e-05
1.86643e-05
2.03699e-05
2.1113e-05
2.09278e-05
1.9952e-05
1.8461e-05
1.65964e-05
1.45026e-05
1.23189e-05
1.02023e-05
8.30317e-06
5.1367e-11
8.42134e-09
1.32848e-07
6.36301e-07
1.6853e-06
3.23351e-06
5.10338e-06
7.06321e-06
8.88256e-06
1.03651e-05
1.13756e-05
1.18576e-05
1.18299e-05
1.13568e-05
1.05535e-05
9.44639e-06
8.12512e-06
6.72474e-06
5.41221e-06
4.32794e-06
1.78317e-11
2.96296e-09
4.94926e-08
2.58221e-07
7.35761e-07
1.48788e-06
2.43352e-06
3.44877e-06
4.4015e-06
5.175e-06
5.68617e-06
5.89709e-06
5.81216e-06
5.45704e-06
4.86449e-06
4.12055e-06
3.33352e-06
2.60243e-06
2.00554e-06
1.5773e-06
4.1976e-12
6.94288e-10
1.21365e-08
7.0132e-08
2.17045e-07
4.65685e-07
7.8676e-07
1.12656e-06
1.42796e-06
1.64405e-06
1.74622e-06
1.72762e-06
1.60068e-06
1.38427e-06
1.13217e-06
8.89775e-07
6.79283e-07
5.10076e-07
3.87873e-07
3.08946e-07
5.87797e-13
9.55884e-11
1.29341e-09
6.35542e-09
2.08095e-08
4.65731e-08
7.74529e-08
1.07347e-07
1.30517e-07
1.42986e-07
1.43334e-07
1.32645e-07
1.13949e-07
9.15796e-08
7.25262e-08
5.65365e-08
4.33263e-08
3.27843e-08
2.52698e-08
2.03483e-08
4.44176e-14
4.21094e-12
1.99419e-11
6.38998e-11
1.60688e-10
3.35487e-10
5.79971e-10
8.12503e-10
9.71187e-10
1.02356e-09
9.73468e-10
8.48285e-10
6.88901e-10
5.45023e-10
4.47302e-10
3.64551e-10
2.91833e-10
2.29227e-10
1.77804e-10
1.3581e-10
)
;

boundaryField
{
    right
    {
        type            cyclic;
    }
    left
    {
        type            cyclic;
    }
    outerWall
    {
        type            nutkWallFunction;
        Cmu             0.09;
        kappa           0.41;
        E               9.8;
        value           nonuniform List<scalar> 
60
(
0
0
0
0
0
0
0
0
0
0
0
1.24445e-05
1.88322e-06
0
0
0
0
0
0
0
0
0
0
0
0
0
0
0
0
0
0
0
0
0
0
0
0
0
0
0
0
0
0
0
0
0
0
0
0
1.71791e-05
0
0
0
0
0
0
0
0
0
0
)
;
    }
    stirrerWall
    {
        type            nutkWallFunction;
        Cmu             0.09;
        kappa           0.41;
        E               9.8;
        value           uniform 0;
    }
    top
    {
        type            empty;
    }
    bottom
    {
        type            empty;
    }
}


// ************************************************************************* //
