/*--------------------------------*- C++ -*----------------------------------*\
  =========                 |
  \\      /  F ield         | OpenFOAM: The Open Source CFD Toolbox
   \\    /   O peration     | Website:  https://openfoam.org
    \\  /    A nd           | Version:  10
     \\/     M anipulation  |
\*---------------------------------------------------------------------------*/
FoamFile
{
    format      ascii;
    class       volScalarField;
    location    "700";
    object      omega;
}
// * * * * * * * * * * * * * * * * * * * * * * * * * * * * * * * * * * * * * //

dimensions      [0 0 -1 0 0 0 0];

internalField   nonuniform List<scalar> 
2000
(
86814.7
16708.8
7016.17
4202.83
3071.54
2516.88
2177.72
1937.35
1771.18
1676.79
1652.81
1689.22
1726.5
1665.02
1611.64
1634.55
1634.53
1603.21
1567.54
1548.38
86817.5
16083.1
6583.13
4042.12
3031.03
2515.33
2187.47
1949.7
1781.12
1679.83
1644.56
1665.49
1695.63
1666.86
1654.24
1671.76
1667.43
1632.16
1592
1574.29
86819.6
16803.4
6843.63
4124.78
3069.91
2535.95
2200.09
1957.71
1782.58
1672.67
1628.13
1636.67
1665.98
1670.82
1686.85
1711.97
1707.27
1660.88
1614.59
1598.32
86821.1
17662.4
7379.93
4387.33
3199.11
2601.64
2235.85
1978.33
1791.15
1669.2
1613.27
1609.76
1635.45
1657.28
1685.24
1733.77
1741.76
1685.6
1634.47
1620.71
86821.9
18130.9
7866.45
4713.23
3389.8
2708.52
2296.41
2014.44
1811.36
1674.75
1604.61
1589.44
1607.15
1632.42
1660.72
1722.21
1764.62
1708.42
1655.02
1644.4
86822.2
18167.4
8147.91
4996.51
3594.42
2839.91
2378.31
2066.45
1843.88
1690.56
1604.5
1575.19
1578.9
1597.56
1623.19
1689.29
1762.89
1729.2
1678.8
1673.19
86821.8
17839.6
8155.74
5148.58
3755.51
2966.27
2467.2
2127.67
1885.77
1715.87
1613.39
1567.47
1554.48
1561.16
1576.56
1638.22
1745.45
1739.59
1702.77
1707.75
86820.7
17190.4
7887.92
5120.73
3818.78
3047.65
2538.9
2184.61
1929.62
1747.39
1630.36
1567.02
1536.72
1531.11
1535.58
1571.4
1672.47
1725.17
1720.34
1746.11
86819.1
16371.1
7388.62
4899.99
3749.15
3048.03
2566.5
2219.74
1964.12
1777.72
1652.47
1574.21
1527.12
1509.14
1507.62
1527.18
1604.81
1692.83
1731.85
1790.14
86816.8
15645.6
6752.84
4518.17
3545.75
2952.22
2531.07
2216.19
1977.36
1800.23
1675.86
1587.58
1527.65
1498.05
1491.3
1501.28
1571.98
1680.5
1751.77
1846.87
86813.9
15061.2
6162.43
4052.31
3258.44
2784.84
2439.35
2171.47
1962.77
1805.62
1692.63
1604.52
1538.22
1500.56
1489.44
1494.58
1560.17
1679.06
1781.99
1925.93
86810.3
14878.6
5717.58
3725.47
3031.67
2635.12
2341.4
2110.52
1929.54
1795.05
1700.47
1622.41
1556.87
1517.01
1501.52
1503.93
1568.97
1701.8
1841.43
2050.53
86806.2
14682.4
5528.87
3666.17
3062.7
2652.97
2331.7
2090.73
1911.71
1788.31
1710.38
1648.92
1590.57
1551.94
1533.23
1533.61
1601.73
1759.64
1959.01
2257.6
86801.4
14453.5
5616.32
3978.38
3435.97
2983.75
2521.68
2180.65
1955.89
1821.16
1751.84
1708.76
1662.99
1628.97
1611.15
1610.23
1683.83
1885.39
2183.67
2605.02
86796
14357.5
6043.4
4676.37
4187.6
3695.34
3048.13
2459.16
2111.43
1940.96
1879.31
1859.54
1831.7
1807.35
1795.75
1804.8
1905.52
2177.24
2600.72
3180.3
86790.1
14641.7
7117.6
5984.68
5450.61
4847.85
4100.85
3238.53
2572.35
2273.42
2200.2
2210.15
2204.01
2191.99
2196.33
2237.6
2394.72
2745.11
3319.55
4098.27
86783.5
16029.5
9681.79
8635.65
7907.09
7041.39
6031.07
4918.99
3857.1
3316.9
3116.68
3060.92
3035.23
2996.89
2989.99
3033.49
3202.38
3594.2
4462.4
5605.55
86776.4
21905.5
16881.7
15368.8
14013.3
12585.7
11013.8
9313.62
7739.42
6634.88
6117.88
5841.47
5532.54
5184.22
4890.44
4654.5
4666.42
5138.97
6243.13
8393.89
86768.7
51487.3
45162
40608
36728
33276.3
29981.8
26744.1
23512.2
20864.6
19132.8
17770.1
16424.7
15068.9
13761.4
12483.5
11422
11016.3
11666.3
15554.1
338081
294034
258064
228311
203421
182390
164459
149047
135704
124076
113880
104892
96926.8
89835.7
83495.2
77802.9
72673.5
68035.1
63826.9
59997.5
1552.95
1562.54
1528.61
1394.78
1151.06
875.007
662.712
535.699
463.633
420.413
398.624
402.277
443.331
540.687
732.157
1091.59
1775.28
3074.79
5944.74
14006
1589.35
1617.38
1599.16
1466.36
1205.36
906.233
678.508
544.5
469.172
423.729
400.236
402.593
442.827
539.483
730.572
1090.27
1777.37
3081.75
5906.23
14005.7
1625.18
1673.65
1672.82
1541.01
1260.84
937.158
693.862
553.172
474.797
427.196
402.027
403.102
442.523
538.48
729.173
1089.08
1779.92
3094.55
5875.94
14005.5
1660.62
1731.72
1749.83
1618.46
1317
967.611
708.855
561.826
480.55
430.801
403.946
403.737
442.354
537.605
727.858
1087.88
1782.37
3112.45
5863.84
14005.4
1698.22
1792.96
1830.04
1697.4
1372.3
996.625
723.019
570.229
486.298
434.467
405.954
404.49
442.346
536.932
726.766
1086.92
1784.73
3135.66
5881.85
14005.3
1741.88
1859.36
1913.87
1776.87
1425.04
1022.7
735.537
578.095
491.98
438.205
408.112
405.459
442.599
536.572
726.002
1086.31
1786.86
3161.22
5938.72
14005.3
1792.65
1934.1
2005.59
1858.23
1472.77
1042.61
744.508
584.621
497.251
441.79
410.222
406.462
442.959
536.337
725.47
1085.69
1788.66
3183.28
6017.79
14005.4
1853.55
2022.33
2108.58
1940.56
1511.63
1053.26
748.55
589.262
501.789
445.021
412.122
407.373
443.335
536.191
725.077
1085.15
1789.88
3200.49
6140.45
14005.6
1929.54
2130.59
2226.86
2021.72
1536.8
1051.95
746.948
591.9
505.554
447.917
413.864
408.284
443.816
536.217
724.909
1084.78
1790.87
3211.98
6365.1
14005.8
2029.22
2268.85
2365.74
2098.08
1542.88
1036.73
739.656
592.626
508.489
450.364
415.392
409.118
444.323
536.342
724.868
1084.54
1791.86
3214.53
6558.23
16435.8
2166.93
2452.09
2530.8
2162.34
1523.43
1006.56
727.074
591.452
510.335
452.106
416.557
409.744
444.747
536.479
724.843
1084.31
1793.03
3208.31
6423.41
16420.4
2367.26
2702.13
2725.22
2202.14
1473.21
962.877
710.718
588.921
511.301
453.291
417.488
410.281
445.147
536.672
724.838
1084.11
1794.58
3205.83
6234.7
14006.9
2669.91
3052.79
2946.98
2201.29
1391.02
909.906
692.794
585.488
511.294
453.738
417.98
410.639
445.442
536.863
724.781
1083.87
1796.27
3210.76
6219.27
14007.5
3135.59
3549.25
3177.73
2142.77
1281.74
853.85
676.006
581.923
510.644
453.629
418.103
410.851
445.614
537.023
724.606
1083.53
1797.71
3217.89
6212.57
14008.1
3859.39
4257.57
3393.13
2028.84
1161.2
804.621
662.962
578.944
509.762
453.226
417.979
410.954
445.658
537.134
724.254
1083.05
1798.59
3226.78
6211.49
14008.7
5026.69
5237.83
3585.19
1881.33
1052.67
768.2
653.907
576.474
508.701
452.609
417.643
410.895
445.532
537.164
723.657
1082.37
1798.51
3237.06
6218.5
14009.5
6954.76
6482.13
3810.62
1748.74
974.909
745.744
648.647
574.823
507.785
451.999
417.216
410.726
445.244
537.094
722.757
1081.51
1796.63
3248.52
6228.46
14010.3
10252.1
8207.52
4080.37
1677.18
930.67
734.389
646.32
574.031
507.162
451.507
416.775
410.5
444.806
536.914
721.508
1080.51
1792.16
3261.23
6236.66
14011.1
17161.8
10886.4
4440.57
1625
905.986
730.535
646.467
574.31
507.043
451.265
416.401
410.276
444.247
536.621
719.845
1079.37
1784.46
3275.59
6242.05
14012.1
34190.7
15067.8
4777.85
1565.68
891.386
732.029
649.504
576.318
507.89
451.53
416.258
410.125
443.624
536.051
717.9
1075.73
1774.33
3280.91
6252.13
14013.1
85702.6
19889.4
4609.49
1481.08
886.88
741.392
658.097
582.185
511.233
453.277
416.997
410.422
443.181
535.458
715.906
1071.12
1762.36
3274.42
6215.21
14005.5
85639
20221.1
4634.01
1488.01
892.019
744.665
660.44
583.927
512.486
454.098
417.407
410.463
442.791
534.719
714.883
1069.34
1760.42
3269.54
6211.19
13999.8
85582.4
20248
4727.82
1519.25
902.149
748.879
662.895
585.602
513.765
455.017
417.922
410.565
442.398
533.888
713.853
1067.59
1759.2
3263.79
6206.79
13994.6
85533
20190.6
4835.01
1555.99
913.312
753.083
665.1
586.986
514.816
455.855
418.441
410.723
442.092
533.151
712.959
1065.98
1758.16
3257.37
6201.12
13990.2
85490.7
20138.9
4945.1
1594.01
924.535
756.946
666.851
587.909
515.521
456.492
418.917
410.923
441.892
532.545
712.242
1064.51
1757.2
3250.22
6193.39
13986.4
85455.4
20118
5050.71
1630.55
935.178
760.263
668.027
588.27
515.806
456.884
419.304
411.154
441.803
532.086
711.719
1063.2
1756.28
3242.31
6183.21
13983.2
85427.3
20126.3
5144.51
1663.17
944.684
762.87
668.543
588.009
515.614
456.993
419.579
411.4
441.821
531.789
711.37
1062.11
1755.38
3233.61
6170.39
13980.6
85406.1
20150.6
5218.57
1689.46
952.511
764.62
668.326
587.077
514.909
456.785
419.717
411.642
441.937
531.673
711.185
1061.25
1754.5
3224.09
6154.86
13978.7
85392
20171.6
5264.41
1706.99
958.129
765.377
667.314
585.436
513.659
456.234
419.697
411.866
442.143
531.735
711.173
1060.65
1753.63
3213.69
6136.72
13977.4
85385
20166.1
5273.22
1713.41
961.052
765.017
665.451
583.06
511.844
455.321
419.503
412.06
442.431
531.955
711.347
1060.32
1752.75
3202.42
6116.21
13976.8
85385
20107
5236.13
1706.67
960.869
763.438
662.691
579.932
509.449
454.031
419.118
412.209
442.791
532.326
711.713
1060.27
1751.86
3190.26
6093.83
13976.8
85392
19962.3
5144.55
1685.13
957.274
760.551
658.991
576.042
506.474
452.357
418.533
412.303
443.213
532.837
712.271
1060.53
1750.96
3177.27
6070.27
13977.4
85406.1
19693.9
4990.81
1647.83
950.101
756.29
654.317
571.391
502.922
450.297
417.738
412.33
443.686
533.478
713.018
1061.08
1750.04
3163.48
6046.49
13978.7
85427.3
19257.2
4769
1594.65
939.337
750.61
648.641
565.989
498.811
447.857
416.731
412.281
444.198
534.238
713.948
1061.94
1749.1
3149.01
6023.71
13980.6
85455.4
18599.7
4475.92
1526.57
925.141
743.484
641.945
559.858
494.164
445.05
415.51
412.146
444.738
535.102
715.051
1063.03
1748.19
3133.97
6003.34
13983.2
85490.7
17659
4112.38
1445.71
907.826
734.914
634.23
553.03
489.018
441.896
414.079
411.919
445.291
536.057
716.314
1064.27
1747.36
3118.52
5986.95
13986.4
85533
16362.3
3684.68
1355.33
887.853
724.927
625.505
545.548
483.417
438.422
412.446
411.593
445.846
537.086
717.719
1065.65
1746.61
3102.8
5976.14
13990.2
85582.4
14625.7
3206.4
1259.77
865.788
713.581
615.835
537.49
477.416
434.662
410.624
411.165
446.39
538.168
719.247
1067.14
1745.95
3086.94
5972.32
13994.6
85639
12352.8
2699.66
1163.72
842
700.928
605.353
528.996
471.106
430.66
408.636
410.638
446.912
539.285
720.877
1068.69
1745.4
3071.05
5976.66
13999.8
85702.6
9431.29
2194.43
1070.51
816.143
686.96
594.306
520.308
464.651
426.488
406.503
410.017
447.399
540.419
722.584
1070.32
1745.01
3055.67
5990.6
14005.5
20400.1
4492.12
1596.92
963.432
784.663
670.503
582.158
511.122
457.849
422.002
404.099
409.221
447.81
541.557
724.319
1071.84
1744.4
3039.08
6016.74
14013.1
3201.66
1517.32
1042.92
866.073
751.409
652.882
568.562
500.314
449.282
415.751
400.312
407.588
448.195
543.065
727.476
1073.36
1742.26
3041.22
5901.82
14012.1
1333.34
1090.92
955.025
847.303
743.243
645.01
560.049
492.229
442.784
411.281
397.787
406.656
448.637
544.514
729.93
1076.02
1746.8
3053.16
5830.33
14011.1
1098.66
1020.39
934.176
839.362
738.332
639.976
554.165
486.555
438.291
408.247
396.058
406.073
449.121
545.919
732.159
1078.75
1751.28
3070.73
5808.06
14010.3
1063.22
1004.27
927.907
836.437
735.482
635.644
548.837
481.62
434.599
405.773
394.622
405.558
449.51
547.12
734.122
1081.17
1755
3092.52
5830.72
14009.5
1058.97
1005.51
931.861
840.309
737.023
634.237
545.527
478.055
431.821
403.907
393.523
405.149
449.828
548.133
735.846
1083.32
1757.6
3112.03
5863.41
14008.7
1066.27
1015.13
942.091
848.887
741.968
635.139
543.726
475.564
429.781
402.476
392.621
404.802
450.071
548.991
737.311
1085.24
1759.08
3127.01
5907.11
14008.1
1081.58
1031.42
957.739
861.76
750.21
638.306
543.453
474.143
428.434
401.452
391.897
404.502
450.186
549.585
738.55
1087.08
1759.65
3136.38
5982.65
14007.5
1102.53
1052.56
977.864
878.649
761.552
643.629
544.67
473.753
427.758
400.82
391.374
404.19
450.161
549.936
739.5
1088.75
1759.83
3139.34
6144.89
14006.9
1127.63
1078.04
1002.36
899.521
775.948
651.083
547.348
474.333
427.703
400.583
391.089
403.872
449.977
550.045
740.161
1090.25
1760.04
3134.1
6255.77
14006.5
1158.6
1109.32
1032.54
925.181
793.926
660.849
551.473
475.858
428.286
400.76
391.029
403.547
449.641
549.91
740.513
1091.51
1760.51
3123.58
6241.76
14006.1
1194.5
1145.78
1067.83
955.489
815.625
673.127
557.135
478.368
429.538
401.359
391.127
403.218
449.184
549.552
740.553
1092.47
1760.97
3113.47
6219.67
14005.8
1233.71
1185.93
1107
989.76
840.639
687.757
564.313
481.876
431.459
402.369
391.368
402.91
448.643
549.008
740.318
1093.14
1761.6
3104.29
6196.14
14005.6
1275.14
1228.64
1149.53
1027.63
868.707
704.515
572.859
486.291
433.982
403.744
391.766
402.648
448.05
548.31
739.847
1093.58
1762.54
3096.43
6172.62
14005.4
1317.77
1273.45
1195.3
1069
899.738
723.219
582.587
491.474
437.005
405.375
392.306
402.428
447.407
547.468
739.16
1093.8
1763.81
3089.87
6146.92
14005.3
1360.97
1320.42
1244.23
1113.87
933.656
743.723
593.318
497.269
440.428
407.218
392.967
402.239
446.72
546.499
738.285
1093.83
1765.36
3084.84
6116.9
14005.3
1404.42
1369.25
1296.1
1162.26
970.419
765.883
604.908
503.567
444.169
409.28
393.762
402.101
446.022
545.451
737.289
1093.71
1766.99
3079.96
6088.76
14005.4
1447.66
1419.23
1350.96
1214.26
1010.03
789.667
617.284
510.347
448.238
411.577
394.71
402.048
445.365
544.397
736.253
1093.54
1769.12
3077.12
6059.08
14005.5
1489.07
1469.5
1408.95
1270.55
1052.88
815.068
630.379
517.538
452.594
414.076
395.797
402.086
444.766
543.357
735.201
1093.33
1771.7
3075.85
6026.33
14005.7
1527.78
1520.67
1470.91
1332.06
1099.45
842.058
644.071
524.932
457.063
416.621
396.886
402.1
444.148
542.263
734.036
1092.99
1774.47
3076.55
5989.65
14006
59997.5
6432.76
1686.95
1172.95
1102.23
1089.93
1094.88
1109.58
1130.75
1156
1187.08
1223.87
1264.23
1306.47
1349.5
1392.47
1434.04
1472.73
1506.65
1533.62
63826.9
7820.48
1953.86
1232.21
1121.76
1099.87
1101.69
1115.67
1137.15
1163.55
1195.56
1234.01
1277.25
1323.4
1370.81
1417.89
1462.16
1501.35
1532.99
1555.5
68035.1
9155.83
2266.51
1287.34
1127.31
1093.69
1090.95
1102.6
1123.02
1149.48
1181.81
1221.49
1267.77
1319.14
1374.13
1430.84
1485.69
1533.14
1568.88
1591.47
72673.5
10528.2
2629.23
1352.36
1129.74
1080.61
1071.1
1078.01
1094.31
1117.42
1146.56
1183.01
1227.4
1279.41
1338.6
1404.35
1473.92
1538.09
1588.45
1619.99
77802.9
11889.9
3036.42
1438.64
1139.5
1071.91
1054.48
1055
1064.92
1082.03
1105.1
1134.49
1171.54
1216.32
1269.54
1333.06
1406.92
1485.79
1552.76
1600.2
83495.2
13494.5
3515.47
1556.58
1163.37
1073.71
1048.21
1043.09
1047.44
1058.52
1075.59
1098.96
1130.74
1171.23
1220.81
1280.19
1346.64
1419.61
1491.79
1557.95
89835.7
15685.1
4147.14
1728.89
1206.78
1084.58
1050.35
1041.19
1041.83
1048.24
1059.98
1077.56
1107.03
1151.36
1211.45
1283.59
1364.4
1448.78
1553.51
1646.15
96926.8
18005.5
5321.03
2050.39
1292.3
1109.47
1059.22
1042.92
1037.94
1037.84
1044.2
1060.18
1089.97
1139.31
1211.04
1297.66
1397.49
1503.57
1634
1722.01
104892
20216.8
6724.36
2719.52
1517.32
1178.19
1088.26
1059.67
1048.65
1043.79
1045.24
1058.78
1090.97
1147.1
1220.23
1306.87
1411.19
1509.57
1594.96
1662.99
113880
22526.7
8276.37
3690.6
1991.08
1385.18
1179.96
1109.97
1085.56
1077.24
1078.73
1093.46
1126.94
1180.19
1233.15
1297.01
1373.81
1453.67
1529.6
1602.26
124076
24691.7
9758.65
4832.72
2736.91
1815.99
1416.79
1245.77
1172.41
1140.77
1129.24
1131.56
1148.27
1176.8
1219.26
1282.68
1361.67
1446.56
1529.23
1609.65
135704
26771.2
11117
6013.08
3673.21
2489.37
1876.69
1557.02
1389.94
1302.15
1256.67
1236.15
1234.41
1249.06
1293.51
1362.14
1445.15
1532.32
1616.36
1698.17
149047
28868.6
12280.3
7092.89
4658.21
3320.5
2543.33
2081.43
1804.59
1638.6
1540.54
1486.22
1463.53
1466.88
1505.17
1565.73
1638.48
1714.85
1790.81
1867.95
164459
31145.6
13245
7961.12
5536.65
4162.21
3306.46
2752.24
2388.6
2150.28
1996.75
1902.18
1850.88
1833.32
1846.2
1879.46
1926.77
1983.57
2047.21
2114.95
182390
33808.5
14106.2
8599.95
6202.94
4862.25
4007.46
3426.83
3021.77
2737.93
2541
2407.7
2321.82
2272.32
2249.47
2251.26
2277.39
2328.02
2397.33
2466.34
203421
37120.5
15069.6
9119.83
6668
5352.28
4526.28
3960.5
3554.74
3257.83
3039.97
2881.66
2769.35
2695.09
2659.42
2668.94
2727.73
2832.51
2959.14
3049.04
228311
41467.8
16465.5
9785.51
7125.5
5760.84
4939.74
4394.86
4011.84
3734.63
3532.77
3389.17
3295.19
3254.45
3304.93
3444.59
3665.29
3937.76
4186.7
4277.13
258064
47259.2
18980.1
11363.4
8395.15
6934.39
6122.9
5636.25
5335.22
5154.69
5062.38
5042.78
5093.48
5251.94
5593.71
6056.21
6588.72
7116.39
7462.79
7374.04
294034
54046.5
26593.5
20011.8
16769.3
15064.5
14415.2
14146.9
14066
14103
14225.5
14415.9
14673.3
15092.8
15725.9
16463.7
17222.5
17904.4
18112.3
17403.7
338081
86768.7
86776.4
86783.5
86790.1
86796
86801.4
86806.2
86810.3
86813.9
86816.8
86819.1
86820.7
86821.8
86822.2
86821.9
86821.1
86819.6
86817.5
86814.7
)
;

boundaryField
{
    right
    {
        type            cyclic;
    }
    left
    {
        type            cyclic;
    }
    outerWall
    {
        beta1           0.075;
        blended         0;
        type            omegaWallFunction;
        value           nonuniform List<scalar> 
60
(
14006
14005.7
14005.5
14005.4
14005.3
14005.3
14005.4
14005.6
14005.8
16435.8
16420.4
14006.9
14007.5
14008.1
14008.7
14009.5
14010.3
14011.1
14012.1
14013.1
14005.5
13999.8
13994.6
13990.2
13986.4
13983.2
13980.6
13978.7
13977.4
13976.8
13976.8
13977.4
13978.7
13980.6
13983.2
13986.4
13990.2
13994.6
13999.8
14005.5
14013.1
14012.1
14011.1
14010.3
14009.5
14008.7
14008.1
14007.5
14006.9
14006.5
14006.1
14005.8
14005.6
14005.4
14005.3
14005.3
14005.4
14005.5
14005.7
14006
)
;
    }
    stirrerWall
    {
        beta1           0.075;
        blended         0;
        type            omegaWallFunction;
        value           nonuniform List<scalar> 
100
(
86814.7
86817.5
86819.6
86821.1
86821.9
86822.2
86821.8
86820.7
86819.1
86816.8
86813.9
86810.3
86806.2
86801.4
86796
86790.1
86783.5
86776.4
86768.7
338081
338081
294034
258064
228311
203421
182390
164459
149047
135704
124076
113880
104892
96926.8
89835.7
83495.2
77802.9
72673.5
68035.1
63826.9
59997.5
85702.6
85639
85582.4
85533
85490.7
85455.4
85427.3
85406.1
85392
85385
85385
85392
85406.1
85427.3
85455.4
85490.7
85533
85582.4
85639
85702.6
59997.5
63826.9
68035.1
72673.5
77802.9
83495.2
89835.7
96926.8
104892
113880
124076
135704
149047
164459
182390
203421
228311
258064
294034
338081
338081
86768.7
86776.4
86783.5
86790.1
86796
86801.4
86806.2
86810.3
86813.9
86816.8
86819.1
86820.7
86821.8
86822.2
86821.9
86821.1
86819.6
86817.5
86814.7
)
;
    }
    top
    {
        type            empty;
    }
    bottom
    {
        type            empty;
    }
}


// ************************************************************************* //
