/*--------------------------------*- C++ -*----------------------------------*\
  =========                 |
  \\      /  F ield         | OpenFOAM: The Open Source CFD Toolbox
   \\    /   O peration     | Website:  https://openfoam.org
    \\  /    A nd           | Version:  10
     \\/     M anipulation  |
\*---------------------------------------------------------------------------*/
FoamFile
{
    format      ascii;
    class       volScalarField;
    location    "700";
    object      omega;
}
// * * * * * * * * * * * * * * * * * * * * * * * * * * * * * * * * * * * * * //

dimensions      [0 0 -1 0 0 0 0];

internalField   nonuniform List<scalar> 
420
(
21252.7
4132.03
1590.78
859.404
563.926
421.776
348.928
320.879
335.142
387.985
21253.7
4010.42
1545.53
848.678
563.352
423.237
353.386
334.552
365.934
437.122
21254.2
3794.88
1443.57
805.168
543.626
413.493
353.473
351.074
407.112
499.329
21254
3598.7
1327.05
747.772
515.733
401.684
357.094
378.87
464.551
575.748
21253.2
3457.94
1243.19
712.181
506.524
408.19
378.631
425.162
537.032
679.583
21251.7
3468.16
1294.02
772.385
572.149
474.282
447.354
499.648
638.265
834.663
21249.7
3647.02
1603.19
1082.85
843.356
701.207
632.793
657.199
806.269
1097.43
21247.1
4638.86
2786.9
2137.48
1730.53
1433.99
1226.54
1129.38
1206.14
1642.13
21243.8
10350.6
7952.67
6423.15
5294.96
4422.65
3752.11
3266.51
3022.54
3303.75
78643.9
60596.7
48114.3
39124.4
32436.5
27327.1
23335.9
20159.1
17589.3
15481.3
453.792
487.73
444.041
351.99
284.324
271.589
324.965
498.275
977.891
3581.27
508.294
526.287
453.132
345.677
279.607
271.018
329.01
516.841
1003.04
3581.17
572.776
571.597
464.393
341.232
276.776
271.204
332.91
532.369
1036.77
3581.13
657.07
631.243
478.263
337.123
274.25
270.92
335.259
541.522
1064.55
3581.18
779.05
714.445
496.076
333.713
272.256
270.328
336.278
548.426
1088.62
3581.3
971.669
835.05
518.631
331.027
270.768
269.257
335.545
551.531
1103.36
3581.49
1305.34
1013.12
545.307
328.857
269.835
267.669
332.911
550.349
1111.42
3581.76
1945.9
1276.91
572.859
326.724
269.489
265.677
328.501
545.495
1115.5
3582.1
3362.18
1664.64
593.477
324.248
269.939
263.439
322.119
536.671
1119.58
3582.51
7289.66
2200.99
589.719
321.102
271.729
261.734
314.655
523.754
1129.8
3582.99
21359.1
2665.71
528.593
316.761
275.118
261.893
307.911
507.434
1136.15
3575.63
21359.1
2090.27
450.18
313.917
277.058
262.363
305.251
477.906
1080.01
3575.63
3346.22
751.302
365.544
310.951
277.574
261.888
303.652
453.773
1023.45
3582.99
756.876
394.273
334.995
313.197
280.016
260.932
299.62
450.028
1023.41
3582.51
370.268
331.111
334.013
320.052
284.771
262.196
297.592
437.405
989.294
3582.1
306.189
322.5
340.522
328.27
290.074
264.607
297.797
426.321
941.694
3581.76
296.886
326.707
350.61
337.506
295.533
267.679
299.521
421.635
903.764
3581.49
301.384
337.793
364.372
347.628
300.676
270.951
302.333
421.007
881.306
3581.3
314.481
355.989
381.954
357.888
304.768
274.066
306.084
425.648
866.157
3581.18
336.388
382.212
402.884
366.864
306.728
276.528
311.043
436.501
867.217
3581.13
367.469
416.133
424.871
371.692
304.696
277.617
317.679
453.735
893.571
3581.17
405.487
453.676
441.304
367.021
295.736
275.099
323.014
477.525
940.938
3581.27
15481.3
1929.08
534.67
321.789
281.012
275.482
281.295
295.271
317.012
345.765
17589.3
2628.7
765.204
389.705
297.41
275.334
273.563
280.228
292.554
309.187
20159.1
3520.7
1164.41
554.123
375.87
316.501
299.474
296.591
301.194
308.605
23335.9
4400.65
1664.68
861.092
557.92
424.09
367.109
344.803
341.188
343.48
27327.1
5145.42
2070.81
1148.14
762.935
575.102
473.956
427.732
414.943
416.667
32436.5
5918.06
2381.86
1362.89
932.883
716.172
600.353
550.258
542.394
553.086
39124.4
6907.43
2690.91
1551.45
1098.27
884.849
791.187
772.603
796.77
834.977
48114.3
8343.91
3205.72
1938.67
1507.01
1350.82
1332.97
1380.73
1458.19
1540.99
60596.7
10744.3
5055.59
3933.49
3643.16
3603.01
3643.38
3714
3817.69
3975.48
78643.9
21243.8
21247.1
21249.7
21251.7
21253.2
21254
21254.2
21253.7
21252.7
)
;

boundaryField
{
    right
    {
        type            cyclic;
    }
    left
    {
        type            cyclic;
    }
    outerWall
    {
        beta1           0.075;
        blended         0;
        type            omegaWallFunction;
        value           nonuniform List<scalar> 
22
(
3581.27
3581.17
3581.13
3581.18
3581.3
3581.49
3581.76
3582.1
3582.51
3582.99
3575.63
3575.63
3582.99
3582.51
3582.1
3581.76
3581.49
3581.3
3581.18
3581.13
3581.17
3581.27
)
;
    }
    stirrerWall
    {
        beta1           0.075;
        blended         0;
        type            omegaWallFunction;
        value           nonuniform List<scalar> 
42
(
21252.7
21253.7
21254.2
21254
21253.2
21251.7
21249.7
21247.1
21243.8
78643.9
78643.9
60596.7
48114.3
39124.4
32436.5
27327.1
23335.9
20159.1
17589.3
15481.3
21359.1
21359.1
15481.3
17589.3
20159.1
23335.9
27327.1
32436.5
39124.4
48114.3
60596.7
78643.9
78643.9
21243.8
21247.1
21249.7
21251.7
21253.2
21254
21254.2
21253.7
21252.7
)
;
    }
    top
    {
        type            empty;
    }
    bottom
    {
        type            empty;
    }
}


// ************************************************************************* //
