/*--------------------------------*- C++ -*----------------------------------*\
  =========                 |
  \\      /  F ield         | OpenFOAM: The Open Source CFD Toolbox
   \\    /   O peration     | Website:  https://openfoam.org
    \\  /    A nd           | Version:  10
     \\/     M anipulation  |
\*---------------------------------------------------------------------------*/
FoamFile
{
    format      ascii;
    class       volScalarField;
    location    "700";
    object      p;
}
// * * * * * * * * * * * * * * * * * * * * * * * * * * * * * * * * * * * * * //

dimensions      [0 2 -2 0 0 0 0];

internalField   nonuniform List<scalar> 
2000
(
0.0232185
175.888
341.666
534.63
748.003
978.305
1225.56
1487.77
1760.75
2039.98
2321.15
2600.16
2874.81
3146.24
3414.27
3677.22
3934.81
4185.3
4426.28
4658.69
-4.52551
170.102
331.657
518.554
724.849
948.015
1189.15
1447.22
1718.7
1999.06
2283.66
2568.41
2851.56
3133.45
3410.85
3680.67
3942.54
4194.56
4435.36
4667.63
-11.2303
164.182
323.008
505.044
705.182
921.209
1155.15
1407.67
1676.32
1957
2244.94
2536.16
2829.76
3123.95
3410.24
3684.54
3948.34
4201.44
4443.33
4675.79
-17.9232
157.855
314.547
492.795
688.432
899.267
1126.75
1373.25
1638.14
1918.19
2209.02
2507.32
2812.57
3117.98
3410.33
3687.2
3952.86
4207.37
4450.12
4682.67
-23.6615
151.045
305.254
480.065
671.957
879.456
1102.82
1344.55
1605.85
1884.89
2178.16
2483.82
2799.97
3113.7
3409.9
3689
3956.42
4211.82
4455.69
4688.63
-28.1973
144.335
295.294
466.387
654.579
859.375
1080.67
1319.83
1578.91
1857.4
2153.31
2466.11
2791.01
3110.11
3408.19
3688.76
3958.06
4215.05
4460
4693.17
-31.6162
138.199
285.392
452.136
636.26
838.225
1058.2
1296.61
1555.27
1834.58
2134.08
2453.2
2783.96
3105.71
3404.42
3686.66
3957.77
4216.19
4462.8
4697.08
-34.0737
132.882
276.061
437.885
617.385
816.139
1034.5
1272.82
1532.4
1814.12
2118.01
2442.25
2775.95
3098.07
3397.29
3681.77
3955.57
4216.29
4464.67
4699.8
-35.7584
128.548
267.723
424.375
598.612
793.512
1009.62
1247.49
1508.28
1793.19
2101.61
2429.63
2764.83
3086.33
3385.93
3673.25
3949.96
4213.35
4464.07
4700.8
-36.7562
125.293
260.688
412.364
580.841
771.065
984.261
1220.77
1482.05
1769.7
2082.08
2412.76
2748.1
3068.86
3369.18
3659.08
3939.81
4207.56
4461.26
4699.48
-37.0306
123.323
255.414
402.453
565.067
749.759
959.279
1193.47
1454.05
1742.95
2057.64
2389.65
2724.24
3044.54
3346.45
3639.75
3924.73
4196.56
4453.32
4693.87
-36.5466
122.875
252.667
395.52
552.389
730.838
935.845
1166.8
1425.28
1713.35
2028.21
2359.94
2693.57
3014.05
3317.53
3613.51
3902.88
4180.16
4441.09
4684.37
-35.4253
124.059
253.146
392.896
544.317
716.244
915.503
1142.23
1397.13
1682.12
1994.96
2325.17
2657.05
2976.99
3282.11
3581.23
3875.35
4157.81
4422.46
4669.04
-33.9082
126.822
257.059
395.441
542.567
708.488
900.775
1121.64
1371.15
1651.17
1959.76
2286.86
2616.55
2935.75
3241.49
3542.02
3839.71
4127.19
4396.55
4648.37
-32.2451
130.85
264.115
403.299
548.153
709.059
894.495
1107.66
1349.69
1623
1925.71
2247.99
2573.78
2890.65
3195.48
3495.97
3796.33
4088.61
4362.97
4622.01
-30.7814
135.465
273.445
415.945
561.66
718.919
898.416
1103.99
1337.24
1602.12
1897.33
2212.77
2532.29
2843.78
3145.08
3443.13
3743.18
4039.84
4323.86
4595.66
-30.0091
139.856
283.569
431.54
582.109
739.894
914.7
1113.65
1339.49
1595.78
1880.4
2184.27
2492.78
2795.57
3092.47
3388.16
3687.1
3988.76
4286.01
4575.3
-30.3166
143.51
292.804
447.037
605.275
769.315
944.41
1139.13
1358.4
1605.85
1875.87
2161.21
2454.27
2748.18
3041.7
3336.26
3635.18
3940.88
4249.26
4556.49
-32.0281
146.741
299.872
459.078
625.088
798.211
980.079
1175.8
1390.83
1628.66
1884.69
2151.76
2426.98
2708.47
2994.28
3285.4
3584.55
3892.98
4209.35
4530.36
-34.6904
150.379
303.062
464.519
635.86
816.94
1008.22
1210.83
1427.21
1657.58
1901.62
2156.04
2418.37
2688.19
2967.05
3257
3559.85
3873.53
4192.47
4510.93
4887.04
5119.13
5360.21
5611.87
5876.5
6156.53
6453.68
6769.18
7104.24
7460.36
7839.39
8243.36
8674.81
9136.24
9629.82
10161.9
10722.4
11364.6
11920.5
13006.6
4895.83
5127.34
5367.67
5618.62
5882.35
6161.47
6457.87
6772.78
7107.4
7463.17
7841.88
8245.55
8676.79
9137.95
9631.39
10163.2
10723.5
11365.1
11921.3
13003.5
4903.42
5134.38
5374.31
5624.76
5887.86
6166.31
6462.13
6776.55
7110.78
7466.17
7844.56
8247.93
8678.94
9139.8
9633.04
10164.5
10724.6
11366
11922
13001.4
4910.11
5140.75
5380.36
5630.47
5893.13
6171.11
6466.47
6780.51
7114.41
7469.47
7847.52
8250.56
8681.33
9141.85
9634.91
10166
10725.8
11367.1
11922.8
13000.2
4915.77
5146.14
5385.7
5635.78
5898.23
6175.9
6470.96
6784.71
7118.31
7473.06
7850.8
8253.52
8684.02
9144.18
9637.01
10167.7
10727.2
11368.4
11923.6
12999.9
4920.37
5150.91
5390.65
5640.78
5903.11
6180.58
6475.41
6788.92
7122.28
7476.74
7854.17
8256.55
8686.73
9146.5
9639.07
10169.4
10728.6
11369.8
11924.5
12999.9
4924.59
5155.08
5394.95
5645.23
5907.56
6184.89
6479.58
6792.94
7126.11
7480.32
7857.45
8259.51
8689.38
9148.76
9641.11
10171.1
10729.9
11371.2
11925.6
12999.6
4927.39
5158.1
5398.43
5649.06
5911.51
6188.83
6483.53
6796.86
7129.93
7483.93
7860.79
8262.54
8692.07
9151.09
9643.19
10172.7
10731.2
11372.5
11926.7
12999.4
4929.04
5160.14
5401.06
5652.16
5914.87
6192.36
6487.27
6800.69
7133.71
7487.52
7864.06
8265.48
8694.61
9153.3
9645.11
10174.1
10732.3
11373.8
11927.7
12998.6
4928.3
5160.11
5402.3
5654.28
5917.41
6195.2
6490.47
6804.12
7137.15
7490.8
7867.05
8268.18
8696.92
9155.34
9646.82
10175.3
10733.5
11375.2
11928.9
12996.9
4924.37
5158.03
5402.29
5655.39
5919.05
6197.3
6493.08
6807.09
7140.28
7493.88
7869.88
8270.72
8699.03
9157.24
9648.31
10176.4
10735.2
11376.6
11929.9
12994.5
4917.15
5153.7
5400.87
5655.32
5919.72
6198.73
6495.16
6809.58
7142.89
7496.47
7872.27
8272.91
8700.8
9158.86
9649.45
10177.5
10736.9
11377.3
11930.5
12991.6
4905.85
5147.35
5398.3
5654.03
5919.32
6199.35
6496.62
6811.63
7145.16
7498.72
7874.31
8274.72
8702.14
9160.13
9650.11
10178.3
10738.1
11376.8
11930.3
12987.5
4891.73
5140.15
5394.99
5651.69
5918.02
6199.33
6497.48
6813.14
7146.95
7500.55
7875.92
8276.09
8703
9160.98
9650.24
10178.7
10738.6
11374.5
11929.6
12982.1
4875.99
5133.71
5391.72
5648.97
5916.31
6199.03
6498.02
6814.29
7148.3
7501.91
7877.03
8276.95
8703.33
9161.36
9649.72
10178.6
10738.1
11370.7
11929.4
12976.1
4864.72
5130.98
5389.13
5646.51
5914.52
6198.62
6498.36
6815.21
7149.37
7502.95
7877.78
8277.46
8703.31
9161.37
9648.51
10178.1
10736.6
11366.2
11931.3
12970.8
4860.72
5130.66
5385.27
5643.84
5912.61
6198.21
6498.63
6816.03
7150.27
7503.8
7878.35
8277.81
8703.2
9161.31
9646.96
10177
10733
11360.2
11935.3
12965.8
4859.18
5129.03
5379.02
5641.21
5911.3
6198.35
6499.1
6816.81
7150.94
7504.35
7878.62
8277.93
8703.02
9161.24
9645.71
10176.3
10728.8
11353.1
11944.5
12951.7
4854.98
5127.82
5376.11
5641.35
5911.96
6199.31
6499.82
6817.37
7151.2
7504.34
7878.39
8277.53
8702.59
9160.79
9645.48
10177.5
10729
11350.4
11968.4
12907.8
4849.24
5140.17
5378.86
5645.31
5913.21
6200.77
6500.54
6818.03
7151.5
7504.45
7878.2
8277.35
8702.21
9161.17
9645.43
10181.1
10730.1
11368.1
11991.8
12865.5
4813.06
5165.92
5364.18
5650.14
5908.93
6202.39
6499.86
6819.28
7152.2
7505.77
7878.65
8278.81
8701.26
9165.17
9641.44
10194.5
10711.8
11419.1
11921.3
12963.1
4800.94
5168.33
5358.11
5648.74
5905.79
6200.81
6497.88
6817.88
7150.81
7504.64
7877.36
8277.79
8699.72
9164.81
9639.32
10196.6
10706.6
11430.7
11903.9
12988.3
4790.13
5168.59
5352.29
5647.09
5902.75
6199.22
6496.03
6816.56
7149.56
7503.63
7876.21
8276.87
8698.35
9164.49
9637.39
10198.6
10702.9
11440.4
11889.5
13008.4
4780.28
5167.89
5346.74
5645.32
5899.84
6197.66
6494.31
6815.35
7148.43
7502.72
7875.15
8276.01
8697.07
9164.16
9635.58
10200.6
10699.2
11449
11876.1
13027
4771.13
5166.51
5341.4
5643.4
5897.07
6196.15
6492.77
6814.28
7147.45
7501.91
7874.19
8275.2
8695.84
9163.8
9633.85
10202.4
10695.4
11457.1
11863.2
13045.2
4762.6
5164.53
5336.31
5641.36
5894.45
6194.73
6491.42
6813.35
7146.62
7501.2
7873.31
8274.41
8694.66
9163.38
9632.19
10204
10691.5
11464.9
11850.6
13062.9
4754.57
5162.06
5331.49
5639.25
5892.05
6193.44
6490.3
6812.59
7145.93
7500.58
7872.49
8273.62
8693.5
9162.89
9630.59
10205.4
10687.7
11472.3
11838.2
13080.3
4746.86
5159.14
5326.99
5637.12
5889.91
6192.33
6489.42
6811.99
7145.37
7500.02
7871.7
8272.82
8692.33
9162.28
9629.03
10206.4
10683.9
11479.4
11825.8
13097.4
4739.35
5155.82
5322.89
5635.06
5888.08
6191.41
6488.78
6811.53
7144.9
7499.47
7870.92
8271.96
8691.12
9161.53
9627.46
10207.2
10680
11486
11813.4
13114.2
4731.97
5152.2
5319.29
5633.13
5886.63
6190.69
6488.35
6811.17
7144.46
7498.89
7870.08
8271
8689.84
9160.61
9625.85
10207.9
10676.1
11492.3
11800.8
13130.7
4724.75
5148.42
5316.33
5631.45
5885.55
6190.16
6488.06
6810.84
7143.96
7498.2
7869.14
8269.91
8688.46
9159.5
9624.12
10208.5
10672.6
11498.2
11787.7
13146.8
4717.82
5144.66
5314.11
5630.08
5884.86
6189.73
6487.83
6810.41
7143.32
7497.31
7868.03
8268.64
8686.95
9158.19
9622.26
10208.8
10669.4
11503.8
11773.9
13162.4
4711.49
5141.12
5312.72
5629.06
5884.48
6189.32
6487.5
6809.77
7142.41
7496.15
7866.69
8267.16
8685.31
9156.67
9620.26
10208.6
10666.4
11509.2
11759.3
13177.6
4706.22
5138
5312.2
5628.33
5884.32
6188.78
6486.94
6808.76
7141.12
7494.62
7865.07
8265.44
8683.55
9154.99
9618.17
10207.9
10663.6
11514.2
11743.9
13192
4702.62
5135.43
5312.54
5627.74
5884.2
6187.93
6485.94
6807.23
7139.33
7492.65
7863.14
8263.49
8681.71
9153.18
9616.13
10206.7
10661.2
11518.7
11728
13205.2
4701.19
5133.5
5313.55
5627.01
5883.86
6186.5
6484.3
6805.03
7136.95
7490.19
7860.87
8261.31
8679.83
9151.3
9614.23
10205.3
10659
11522.7
11711.7
13217.1
4701.84
5132.22
5314.78
5625.85
5882.92
6184.27
6481.79
6802.01
7133.87
7487.19
7858.27
8258.95
8677.92
9149.52
9612.43
10204.2
10656.1
11527.3
11693.6
13229
4704.19
5131.34
5315.81
5624
5881.16
6181.12
6478.38
6798.23
7130.18
7483.78
7855.44
8256.6
8676.14
9148.11
9610.8
10204
10651.5
11534.9
11671.3
13243.6
4710.92
5129.93
5317.44
5621.24
5878.86
6177.17
6474.35
6793.92
7126.17
7480.22
7852.71
8254.51
8674.95
9147.14
9610.19
10203.9
10647.2
11542.3
11648.5
13257.3
4730.3
5126.24
5321.67
5617.7
5877.08
6173.04
6470.55
6789.76
7122.52
7477
7850.54
8252.82
8674.78
9145.97
9612.13
10200.2
10651.1
11533.1
11650.5
13247.8
4845.95
5101.92
5338.87
5602.51
5872.08
6159.44
6459.72
6777.42
7112.33
7467.53
7844.22
8246.46
8674.45
9137.22
9623.56
10168.5
10702.6
11405.9
11831.9
13089.7
4853.62
5089.87
5336.5
5595.26
5866.98
6153.18
6454.48
6772.33
7108.22
7464.12
7842.05
8244.7
8674.54
9135.24
9627.2
10160.1
10718.2
11363.7
11900.1
13033.9
4839.61
5079.04
5327.79
5587.29
5859.69
6146.14
6447.94
6766.35
7103.06
7459.86
7838.79
8242.32
8673.09
9134.11
9627.17
10159
10721
11358.7
11924.3
13009.5
4826.96
5068.53
5318.58
5579.19
5852.28
6139.32
6441.69
6760.76
7098.18
7455.73
7835.43
8239.73
8671.19
9132.86
9626.42
10159.1
10721.5
11361
11932.5
12999.3
4817.8
5059.57
5310.18
5571.37
5844.93
6132.45
6435.34
6755.03
7093.12
7451.36
7831.78
8236.82
8668.97
9131.28
9625.4
10158.8
10721.6
11362.4
11935.7
12995.2
4811.56
5052.7
5303.22
5564.53
5838.24
6125.99
6429.27
6749.5
7088.19
7447.04
7828.11
8233.82
8666.59
9129.5
9624.16
10158.1
10721.2
11362.7
11937.2
12993.8
4807.65
5047.82
5297.89
5558.93
5832.47
6120.22
6423.75
6744.42
7083.6
7442.99
7824.65
8230.98
8664.29
9127.69
9622.82
10157.2
10720.5
11362.5
11937.7
12993.1
4805.76
5044.92
5294.28
5554.73
5827.83
6115.4
6419.03
6739.99
7079.57
7439.42
7821.61
8228.44
8662.2
9126.02
9621.51
10156.1
10719.5
11362.2
11937.2
12991.7
4805.85
5043.92
5292.33
5551.95
5824.43
6111.69
6415.31
6736.44
7076.31
7436.54
7819.14
8226.35
8660.46
9124.61
9620.33
10155.1
10718.5
11361.8
11935.3
12990.3
4807.67
5044.58
5291.91
5550.59
5822.35
6109.2
6412.68
6733.89
7073.96
7434.46
7817.34
8224.82
8659.19
9123.57
9619.41
10154.1
10717.6
11361.1
11932.1
12991.5
4811.01
5046.77
5292.95
5550.59
5821.56
6107.92
6411.2
6732.42
7072.62
7433.29
7816.33
8224
8658.52
9123.02
9618.87
10153.6
10717.1
11360.4
11929.5
12995.7
4815.8
5050.4
5295.38
5551.95
5822.09
6107.93
6410.98
6732.16
7072.39
7433.12
7816.24
8223.97
8658.55
9123.05
9618.84
10153.5
10717
11359.9
11928.9
12999.7
4821.89
5055.35
5299.15
5554.66
5823.98
6109.31
6412.13
6733.19
7073.35
7434.02
7817.09
8224.77
8659.27
9123.67
9619.33
10154
10717.2
11359.4
11929.2
13004.1
4829.12
5061.53
5304.23
5558.72
5827.25
6112.1
6414.64
6735.49
7075.45
7435.93
7818.82
8226.3
8660.61
9124.79
9620.28
10154.8
10717.6
11359.8
11931.8
13005.6
4837.4
5068.89
5310.55
5564.08
5831.89
6116.29
6418.48
6739.01
7078.63
7438.78
7821.33
8228.46
8662.45
9126.31
9621.56
10155.9
10718.3
11361.3
11934.2
13002.2
4846.44
5077.17
5317.94
5570.67
5837.89
6121.88
6423.67
6743.71
7082.81
7442.45
7824.5
8231.15
8664.7
9128.14
9623.09
10157.1
10719.1
11362.8
11931.7
13003
4855.48
5085.9
5326.2
5578.48
5845.32
6128.88
6430.1
6749.44
7087.79
7446.71
7828.09
8234.12
8667.17
9130.14
9624.73
10158.3
10719.7
11363.1
11929.3
13004.9
4863.37
5094.44
5335.05
5587.44
5854.05
6137.03
6437.39
6755.73
7093.09
7451.1
7831.68
8237.02
8669.53
9132.01
9626.24
10159.3
10720.4
11363.7
11927.2
13005.4
4870.09
5102.5
5344
5596.85
5863.25
6145.34
6444.55
6761.72
7098.05
7455.12
7834.88
8239.53
8671.52
9133.54
9627.48
10160.2
10721
11364.2
11924.4
13006.5
4878.51
5111.11
5352.6
5605.02
5870.69
6151.64
6449.63
6765.78
7101.39
7457.93
7837.25
8241.46
8673.1
9134.83
9628.66
10161.1
10721.8
11364.5
11921.6
13007.8
4652.48
4622.27
4599.11
4586.23
4578.8
4574.64
4572.58
4572.16
4573.52
4576.67
4581.19
4587.05
4594.14
4602.29
4611.35
4620.92
4629.99
4636.91
4641.71
4649.71
4362.6
4352.1
4342.79
4337.4
4335.27
4335.21
4336.34
4338.14
4341.03
4345.61
4351.37
4358.3
4366.31
4375.24
4384.81
4394.48
4403.23
4408.87
4410.77
4416.75
4037.93
4057.7
4070.1
4078.04
4085.01
4091.37
4097.07
4102.09
4107.09
4113.2
4120.27
4128.2
4136.94
4146.32
4155.88
4164.99
4172.62
4176.29
4174.34
4176.12
3713.03
3755.85
3787.99
3810.78
3828.82
3843.35
3855.11
3864.5
3872.43
3880.46
3888.98
3897.75
3906.67
3915.64
3924.2
3931.74
3937.44
3938.68
3932.71
3928.85
3398.25
3453.68
3502.14
3538.87
3568.28
3591.86
3610.79
3625.73
3637.61
3648.09
3658.13
3667.24
3675.6
3683.35
3690.02
3695.13
3698.14
3696.54
3687.13
3677.57
3093.09
3154.58
3216.19
3264.92
3304.81
3337.44
3363.99
3385.18
3401.69
3414.91
3426.42
3435.78
3443.59
3450.03
3454.49
3456.54
3455.82
3450.31
3437.44
3422.48
2800.04
2862.32
2932.95
2990.55
3039.41
3080.27
3114.01
3141.38
3162.74
3179.06
3192.41
3202.61
3210.01
3214.77
3216.5
3214.92
3209.54
3199.22
3182.57
3162.73
2521.5
2579.49
2653.58
2717.55
2773.24
2820.67
2860.41
2893.08
2918.98
2938.53
2953.32
2964.16
2970.87
2973.67
2972.59
2967.36
2957.37
2942.39
2922.3
2898.69
2256.8
2307.03
2380.76
2448.29
2507.72
2559.57
2603.62
2640.21
2669.62
2691.97
2708.02
2718.88
2724.4
2725.06
2721.21
2712.57
2698.77
2680.14
2657.04
2629.94
2005.29
2047.06
2115.13
2182.62
2243.96
2298.08
2344.74
2383.85
2415.52
2439.83
2456.93
2467.75
2472.24
2470.86
2464.32
2452.65
2435.65
2413.46
2386.67
2355.61
1766.65
1799.83
1858.05
1921.54
1982.1
2036.95
2084.49
2124.55
2157.17
2182.29
2199.88
2210.43
2214.01
2210.83
2201.63
2186.82
2166.64
2141.29
2111.49
2077.55
1540.44
1565.72
1611.87
1667.71
1723.83
1776.41
1823.19
1862.6
1894.74
1919.37
1936.41
1946.15
1948.64
1943.96
1932.77
1915.73
1893.37
1866.23
1834.76
1799.47
1326.44
1345.16
1379.09
1423.99
1472.45
1519.74
1562.71
1599.59
1629.7
1652.78
1668.53
1677.09
1678.45
1672.7
1660.37
1642.23
1619.05
1591.59
1560.24
1525.53
1124.32
1137.87
1161.14
1193.85
1231.57
1270.23
1307.03
1339.68
1366.28
1386.29
1399.84
1406.84
1407.07
1400.67
1388.09
1370.15
1347.71
1321.49
1292.16
1260.12
933.486
942.989
957.838
979.352
1005.3
1033.22
1060.94
1086.51
1108.26
1124.88
1135.64
1140.43
1139.4
1132.74
1120.82
1104.32
1084.07
1060.78
1035.28
1007.75
753.285
759.352
767.594
779.842
795.046
812.098
829.891
847.062
862.12
873.768
881.152
883.892
881.895
875.236
864.436
850.234
833.271
814.212
793.655
771.528
583.297
585.856
588.167
592.491
598.921
607.04
616.256
625.688
634.203
640.685
644.32
644.646
641.485
634.922
625.404
613.486
599.711
584.713
568.858
551.975
424.472
423.029
419.179
416.05
415.151
416.664
419.829
423.595
426.944
429.048
429.321
427.426
423.282
417.044
408.982
399.466
388.882
377.557
365.642
353.251
277.793
270.21
260.483
252.446
247.823
246.425
246.901
247.745
247.926
246.926
244.542
240.816
235.98
230.21
223.517
216.064
208.111
199.788
191.322
183.254
129.785
110.618
93.905
83.5541
77.4832
73.8661
71.5042
69.5352
67.1728
63.8844
59.4786
54.0218
47.7563
40.9734
33.9975
27.206
20.9798
15.7188
11.5207
6.76529
)
;

boundaryField
{
    right
    {
        type            cyclic;
    }
    left
    {
        type            cyclic;
    }
    outerWall
    {
        type            zeroGradient;
    }
    stirrerWall
    {
        type            zeroGradient;
    }
    top
    {
        type            empty;
    }
    bottom
    {
        type            empty;
    }
}


// ************************************************************************* //
