/*--------------------------------*- C++ -*----------------------------------*\
  =========                 |
  \\      /  F ield         | OpenFOAM: The Open Source CFD Toolbox
   \\    /   O peration     | Website:  https://openfoam.org
    \\  /    A nd           | Version:  10
     \\/     M anipulation  |
\*---------------------------------------------------------------------------*/
FoamFile
{
    format      ascii;
    class       surfaceScalarField;
    location    "700";
    object      phi;
}
// * * * * * * * * * * * * * * * * * * * * * * * * * * * * * * * * * * * * * //

dimensions      [0 3 -1 0 0 0 0];

internalField   nonuniform List<scalar> 
3880
(
7.06406e-07
-1.87114e-05
3.28731e-06
2.49352e-05
7.48195e-06
4.18258e-05
1.30699e-05
5.44653e-05
1.95676e-05
6.37199e-05
2.60849e-05
6.93355e-05
3.16442e-05
7.21625e-05
3.53297e-05
7.21553e-05
3.60596e-05
6.88015e-05
3.33521e-05
6.23478e-05
2.69948e-05
5.37919e-05
1.68697e-05
4.50846e-05
3.89472e-06
3.84805e-05
-8.01276e-06
3.25208e-05
-1.57683e-05
1.6079e-05
-2.0702e-05
-7.20827e-06
-2.36001e-05
-3.42287e-05
-2.43834e-05
-6.18183e-05
-2.33632e-05
-8.7498e-05
-0.000109854
-2.10289e-05
-3.65558e-07
-1.83184e-05
-1.83776e-08
2.45394e-05
2.27328e-06
3.95579e-05
7.11506e-06
4.95663e-05
1.39043e-05
5.69238e-05
2.10348e-05
6.21849e-05
2.72231e-05
6.59272e-05
3.1462e-05
6.79332e-05
3.28477e-05
6.74376e-05
3.09808e-05
6.42186e-05
2.58372e-05
5.89366e-05
1.74162e-05
5.34093e-05
6.45772e-06
4.93368e-05
-3.96187e-06
4.28754e-05
-1.2384e-05
2.44371e-05
-1.82179e-05
-1.44109e-06
-2.11362e-05
-3.13617e-05
-2.17366e-05
-6.1262e-05
-2.06316e-05
-8.86042e-05
-0.000112121
-1.83963e-05
1.41838e-06
-1.97252e-05
3.6252e-06
2.23067e-05
6.48757e-06
3.67225e-05
1.10618e-05
4.49478e-05
1.69609e-05
5.10393e-05
2.31692e-05
5.59824e-05
2.87689e-05
6.0296e-05
3.28754e-05
6.3867e-05
3.45629e-05
6.58283e-05
3.32647e-05
6.55071e-05
2.87388e-05
6.33843e-05
2.11491e-05
6.08539e-05
1.12884e-05
5.90955e-05
1.38632e-06
5.27587e-05
-7.27476e-06
3.31258e-05
-1.42161e-05
5.51095e-06
-1.74345e-05
-2.81723e-05
-1.82055e-05
-6.05389e-05
-1.72691e-05
-8.96106e-05
-0.000114372
-1.50755e-05
2.37088e-06
-2.20551e-05
6.09882e-06
1.85838e-05
1.01806e-05
3.27068e-05
1.50767e-05
4.00328e-05
2.05631e-05
4.55736e-05
2.61373e-05
5.04344e-05
3.1275e-05
5.51518e-05
3.53208e-05
5.9856e-05
3.73594e-05
6.38522e-05
3.66606e-05
6.61823e-05
3.27749e-05
6.71568e-05
2.59433e-05
6.7575e-05
1.72174e-05
6.78175e-05
8.52606e-06
6.14967e-05
1.56324e-07
4.15165e-05
-7.84225e-06
1.34737e-05
-1.17608e-05
-2.42804e-05
-1.30297e-05
-5.9311e-05
-1.24089e-05
-9.02628e-05
-0.000116452
-1.0341e-05
2.65455e-06
-2.47164e-05
7.19825e-06
1.3946e-05
1.23541e-05
2.76283e-05
1.78077e-05
3.46083e-05
2.33196e-05
4.00337e-05
2.87073e-05
4.50476e-05
3.36944e-05
5.02181e-05
3.78042e-05
5.57977e-05
4.02898e-05
6.13361e-05
4.03532e-05
6.60712e-05
3.75214e-05
6.99764e-05
3.20264e-05
7.31062e-05
2.50544e-05
7.4829e-05
1.79029e-05
6.8641e-05
1.02727e-05
4.91044e-05
1.91986e-06
2.17725e-05
-3.15012e-06
-1.92085e-05
-5.28097e-06
-5.71403e-05
-5.30964e-06
-9.02246e-05
-0.00011806
-3.73317e-06
2.55469e-06
-2.72085e-05
7.42239e-06
9.11324e-06
1.33743e-05
2.1697e-05
1.93839e-05
2.85391e-05
2.51377e-05
3.42821e-05
3.06166e-05
3.96442e-05
3.56529e-05
4.52236e-05
3.99708e-05
5.14836e-05
4.30614e-05
5.82148e-05
4.41141e-05
6.50376e-05
4.26845e-05
7.1437e-05
3.89787e-05
7.6846e-05
3.43517e-05
7.94793e-05
2.96823e-05
7.32718e-05
2.36082e-05
5.51146e-05
1.58061e-05
2.95589e-05
8.98414e-06
-1.24171e-05
5.50538e-06
-5.36592e-05
4.37923e-06
-8.91029e-05
-0.000118757
5.05572e-06
2.17774e-06
-2.93532e-05
6.94292e-06
4.36022e-06
1.34832e-05
1.52254e-05
2.00553e-05
2.19834e-05
2.61282e-05
2.81939e-05
3.17057e-05
3.40809e-05
3.68935e-05
4.00442e-05
4.15876e-05
4.67953e-05
4.5396e-05
5.44253e-05
4.76641e-05
6.28607e-05
4.79371e-05
7.12259e-05
4.61987e-05
7.85471e-05
4.37969e-05
8.17885e-05
4.14201e-05
7.55632e-05
3.81382e-05
5.83408e-05
3.31692e-05
3.45167e-05
2.44319e-05
-3.67782e-06
1.94371e-05
-4.86291e-05
1.69092e-05
-8.65663e-05
-0.000118078
1.62048e-05
1.6073e-06
-3.09414e-05
5.97628e-06
-2.63819e-08
1.28682e-05
8.38196e-06
1.98748e-05
1.5069e-05
2.62708e-05
2.17798e-05
3.20165e-05
2.82941e-05
3.73874e-05
3.46894e-05
4.24851e-05
4.17406e-05
4.70677e-05
4.98764e-05
5.06376e-05
5.9297e-05
5.2743e-05
6.90792e-05
5.31102e-05
7.81112e-05
5.28825e-05
8.19498e-05
5.21625e-05
7.62526e-05
5.10921e-05
5.94101e-05
4.91943e-05
3.64392e-05
4.11817e-05
4.3623e-06
3.56137e-05
-4.30297e-05
3.18752e-05
-8.28467e-05
-0.000115731
2.94805e-05
1.03541e-06
-3.19451e-05
4.72438e-06
-3.67415e-06
1.15022e-05
1.59591e-06
1.87994e-05
7.86128e-06
2.54635e-05
1.51329e-05
3.14889e-05
2.22266e-05
3.71151e-05
2.9058e-05
4.25458e-05
3.63058e-05
4.77884e-05
4.46532e-05
5.26257e-05
5.44423e-05
5.66231e-05
6.50156e-05
5.92484e-05
7.54311e-05
6.18789e-05
7.93094e-05
6.3313e-05
7.48361e-05
6.41747e-05
5.85605e-05
6.40961e-05
3.65317e-05
5.86615e-05
9.80753e-06
5.30036e-05
-3.73803e-05
4.80831e-05
-7.79807e-05
-0.000111465
4.37557e-05
5.24696e-07
-3.24401e-05
3.52123e-06
-6.5701e-06
9.63227e-06
-4.54611e-06
1.68268e-05
6.77558e-07
2.36101e-05
8.38127e-06
2.99602e-05
1.58506e-05
3.58866e-05
2.31235e-05
4.16212e-05
3.0546e-05
4.74112e-05
3.88524e-05
5.33114e-05
4.84995e-05
5.89943e-05
5.92811e-05
6.38131e-05
7.06028e-05
6.8735e-05
7.4432e-05
7.22585e-05
7.13419e-05
7.493e-05
5.58631e-05
7.66297e-05
3.48146e-05
7.43401e-05
1.21093e-05
6.93297e-05
-3.23625e-05
6.36582e-05
-7.23337e-05
-0.000105386
5.75463e-05
-8.60405e-08
-3.23481e-05
2.33238e-06
-8.89529e-06
7.52108e-06
-9.73883e-06
1.4101e-05
-5.95912e-06
2.06348e-05
1.87003e-06
2.72106e-05
9.25029e-06
3.34709e-05
1.68286e-05
3.95269e-05
2.44544e-05
4.57224e-05
3.26301e-05
5.24307e-05
4.17557e-05
5.9515e-05
5.21986e-05
6.64701e-05
6.36819e-05
7.30028e-05
6.79259e-05
7.85472e-05
6.57653e-05
8.22823e-05
5.20908e-05
8.4651e-05
3.24743e-05
8.45471e-05
1.22377e-05
8.12037e-05
-2.90285e-05
7.59323e-05
-6.70898e-05
-9.81831e-05
6.86899e-05
-7.80695e-07
-3.1577e-05
8.32574e-07
-1.04655e-05
4.86371e-06
-1.37376e-05
1.04046e-05
-1.15729e-05
1.66222e-05
-4.36082e-06
2.3045e-05
2.79784e-06
2.95267e-05
1.02993e-05
3.58903e-05
1.80643e-05
4.23566e-05
2.61415e-05
4.96247e-05
3.44704e-05
5.79461e-05
4.38923e-05
6.67605e-05
5.48722e-05
7.46886e-05
5.99606e-05
8.21868e-05
5.82112e-05
8.73663e-05
4.69114e-05
9.05891e-05
2.92727e-05
9.18586e-05
1.09287e-05
8.96779e-05
-2.69463e-05
8.47428e-05
-6.22286e-05
-8.94222e-05
7.59557e-05
-1.51257e-06
-3.00716e-05
-1.01711e-06
-1.09849e-05
1.37808e-06
-1.60913e-05
5.55579e-06
-1.58023e-05
1.14816e-05
-1.03342e-05
1.73487e-05
-3.1043e-06
2.36528e-05
3.95539e-06
3.01113e-05
1.15794e-05
3.66706e-05
1.95382e-05
4.41586e-05
2.69485e-05
5.32026e-05
3.4836e-05
6.35149e-05
4.45225e-05
7.30908e-05
5.03274e-05
8.21312e-05
4.91695e-05
8.89542e-05
4.0108e-05
9.31386e-05
2.50299e-05
9.5528e-05
8.47122e-06
9.40747e-05
-2.54885e-05
8.82169e-05
-5.63241e-05
-7.79486e-05
7.67761e-05
-2.29159e-06
-2.77819e-05
-3.13613e-06
-1.02176e-05
-2.6923e-06
-1.6508e-05
-2.42125e-07
-1.8268e-05
4.73852e-06
-1.53637e-05
1.00357e-05
-8.46396e-06
1.54021e-05
-1.47441e-06
2.14059e-05
5.5143e-06
2.78091e-05
1.30723e-05
3.51631e-05
1.95709e-05
4.43883e-05
2.56126e-05
5.56877e-05
3.32169e-05
6.70162e-05
3.89965e-05
7.74583e-05
3.87542e-05
8.60123e-05
3.15651e-05
9.1654e-05
1.93687e-05
9.51084e-05
5.01915e-06
9.30591e-05
-2.34307e-05
8.43929e-05
-4.77224e-05
-6.27294e-05
6.90371e-05
-3.12474e-06
-2.46565e-05
-5.33773e-06
-8.07861e-06
-6.93294e-06
-1.48934e-05
-6.94415e-06
-1.82582e-05
-4.15676e-06
-1.81917e-05
5.84585e-07
-1.32859e-05
5.12501e-06
-6.12944e-06
9.61351e-06
9.50833e-07
1.51829e-05
7.52443e-06
2.17784e-05
1.30544e-05
3.04989e-05
1.69326e-05
4.20671e-05
2.16469e-05
5.46493e-05
2.64173e-05
6.64295e-05
2.69427e-05
7.6261e-05
2.1723e-05
8.2941e-05
1.27219e-05
8.65812e-05
1.45766e-06
8.23399e-05
-1.91303e-05
6.91543e-05
-3.45242e-05
-4.21233e-05
4.84803e-05
-3.86667e-06
-2.07839e-05
-7.1777e-06
-4.78131e-06
-1.05746e-05
-1.14633e-05
-1.34639e-05
-1.53829e-05
-1.45006e-05
-1.72202e-05
-1.19221e-05
-1.58988e-05
-6.98277e-06
-1.11123e-05
-2.75616e-06
-3.30287e-06
4.31179e-07
4.35604e-06
4.30944e-06
9.19857e-06
1.08907e-05
1.03583e-05
2.14229e-05
1.11765e-05
3.41369e-05
1.38025e-05
4.64038e-05
1.47076e-05
5.65124e-05
1.16655e-05
6.29366e-05
6.33711e-06
6.43164e-05
-1.87635e-08
5.47295e-05
-9.69676e-06
3.54535e-05
-1.5294e-05
-1.89115e-05
1.22867e-05
-4.50394e-06
-1.62654e-05
-8.20887e-06
-1.02929e-06
-1.2536e-05
-7.08004e-06
-1.75203e-05
-1.03685e-05
-2.23305e-05
-1.24637e-05
-2.53102e-05
-1.29695e-05
-2.51343e-05
-1.13524e-05
-2.13916e-05
-7.03682e-06
-1.61345e-05
-8.15675e-07
-1.22584e-05
5.39506e-06
-9.84075e-06
7.93199e-06
-3.92163e-06
5.23525e-06
6.20702e-06
3.67578e-06
1.64913e-05
4.50738e-06
2.42279e-05
4.0579e-06
2.71912e-05
3.54678e-06
2.26218e-05
4.57947e-06
6.93869e-06
5.84238e-06
-1.57256e-05
7.27795e-06
-7.20173e-06
-2.73678e-05
-5.08041e-06
-1.11605e-05
-8.10837e-06
2.07077e-06
-1.20566e-05
-3.07625e-06
-1.73994e-05
-4.95007e-06
-2.36954e-05
-6.15911e-06
-2.99238e-05
-6.75644e-06
-3.48813e-05
-6.44584e-06
-3.73998e-05
-4.52807e-06
-3.66423e-05
-1.53501e-06
-3.21727e-05
1.02797e-06
-2.64049e-05
2.28435e-06
-2.26382e-05
1.45271e-06
-2.05139e-05
1.36251e-06
-1.80546e-05
1.81621e-06
-1.66985e-05
2.45171e-06
-1.88254e-05
5.63127e-06
-2.62841e-05
1.22217e-05
-3.50549e-05
1.47228e-05
-3.8469e-05
1.0651e-05
-1.48229e-05
-3.09046e-05
-5.90563e-06
-5.21863e-06
-6.61797e-06
2.88964e-06
-9.15576e-06
-5.06472e-07
-1.28202e-05
-1.22156e-06
-1.7096e-05
-1.91703e-06
-2.14098e-05
-2.51052e-06
-2.51467e-05
-2.74516e-06
-2.71688e-05
-2.47618e-06
-2.73296e-05
-1.35363e-06
-2.60614e-05
-2.12987e-07
-2.55541e-05
1.86894e-06
-2.82041e-05
4.19521e-06
-3.25714e-05
5.82679e-06
-3.65159e-05
5.76549e-06
-3.86283e-05
4.33991e-06
-3.60454e-05
2.72491e-06
-2.84012e-05
4.63129e-06
-1.99373e-05
6.55964e-06
-1.4277e-05
5.20278e-06
-9.73984e-06
-1.92219e-05
-5.18704e-06
-2.2324e-06
-2.71423e-06
-3.93985e-06
-5.90661e-06
-8.44194e-06
-1.11612e-05
-1.35921e-05
-1.49292e-05
-1.5182e-05
-1.34292e-05
-9.41488e-06
-3.68824e-06
2.10352e-06
6.56296e-06
9.32678e-06
1.3929e-05
2.04884e-05
2.57186e-05
1.60403e-05
-1.83162e-05
-0.000130178
-1.56502e-05
-0.000152663
-1.36182e-05
-0.000174754
-1.20877e-05
-0.000198135
-1.06923e-05
-0.0002232
-9.40174e-06
-0.000249009
-8.23142e-06
-0.000276219
-7.21433e-06
-0.000306355
-6.27355e-06
-0.0003402
-5.37064e-06
-0.000377814
-4.52884e-06
-0.000419239
-3.78443e-06
-0.000464552
-3.14296e-06
-0.000514461
-2.59867e-06
-0.00056906
-2.12515e-06
-0.000629329
-1.70685e-06
-0.000696781
-1.39671e-06
-0.000761582
-6.15593e-07
-0.000866357
7.67863e-07
-0.000859221
-0.00119677
-1.56887e-05
-0.000132932
-1.31477e-05
-0.000155258
-1.13148e-05
-0.000176646
-9.9663e-06
-0.000199523
-8.70401e-06
-0.000224464
-7.56494e-06
-0.000250147
-6.61951e-06
-0.000277176
-5.81076e-06
-0.000307167
-5.06623e-06
-0.00034091
-4.34625e-06
-0.000378446
-3.67363e-06
-0.000419798
-3.07115e-06
-0.000465038
-2.56682e-06
-0.000514862
-2.1137e-06
-0.000569405
-1.76127e-06
-0.000629546
-1.38899e-06
-0.000697013
-1.14302e-06
-0.000761685
-3.68484e-07
-0.000867006
9.30107e-07
-0.000860443
-0.00119581
-1.23305e-05
-0.000135738
-9.81697e-06
-0.00015784
-8.12584e-06
-0.000178379
-6.98213e-06
-0.000200671
-5.94771e-06
-0.000225469
-5.08196e-06
-0.000250975
-4.43371e-06
-0.000277794
-3.91826e-06
-0.000307664
-3.45166e-06
-0.000341372
-2.99435e-06
-0.000378907
-2.56367e-06
-0.000420248
-2.1643e-06
-0.000465473
-1.84141e-06
-0.000515254
-1.50668e-06
-0.000569836
-1.31001e-06
-0.000629856
-9.85429e-07
-0.000697445
-9.05773e-07
-0.000761848
-3.14101e-07
-0.000867654
1.32814e-06
-0.000862096
-0.00119446
-7.67875e-06
-0.000138437
-5.35713e-06
-0.000160223
-4.01908e-06
-0.000179758
-3.29775e-06
-0.000201414
-2.69308e-06
-0.000226105
-2.25809e-06
-0.000251474
-2.01163e-06
-0.000278133
-1.86032e-06
-0.00030792
-1.715e-06
-0.000341618
-1.54236e-06
-0.000379176
-1.36954e-06
-0.000420541
-1.19038e-06
-0.000465798
-1.06145e-06
-0.00051553
-8.39799e-07
-0.000570177
-7.9038e-07
-0.000629997
-4.87192e-07
-0.000697832
-5.72463e-07
-0.000761867
-2.55615e-08
-0.000868309
2.27082e-06
-0.000864458
-0.00119225
-1.46909e-06
-0.000140763
3.81679e-07
-0.00016215
1.08545e-06
-0.000180536
1.12776e-06
-0.00020154
1.09292e-06
-0.000226168
9.41107e-07
-0.000251408
6.77319e-07
-0.000277906
3.91528e-07
-0.00030762
1.59441e-07
-0.000341339
4.97251e-09
-0.000378959
-1.00558e-07
-0.000420366
-1.41861e-07
-0.00046567
-2.05591e-07
-0.000515351
-1.00104e-07
-0.000570154
-2.22337e-07
-0.000629762
4.60545e-08
-0.000698048
-2.33414e-07
-0.000761607
2.20401e-07
-0.000868834
3.06769e-06
-0.000867285
-0.00118924
6.49952e-06
-0.000142249
7.42513e-06
-0.000163132
7.10933e-06
-0.000180274
6.21364e-06
-0.000200666
5.36559e-06
-0.000225295
4.49616e-06
-0.000250478
3.60817e-06
-0.000276942
2.79099e-06
-0.000306723
2.12515e-06
-0.000340581
1.6236e-06
-0.000378356
1.22877e-06
-0.000419892
9.45124e-07
-0.000465347
6.53333e-07
-0.000515043
6.20721e-07
-0.000570105
2.95592e-07
-0.000629436
5.37071e-07
-0.000698288
8.23184e-08
-0.000761131
5.77965e-07
-0.000869341
3.50324e-06
-0.000870186
-0.00118576
1.62553e-05
-0.000142325
1.56726e-05
-0.000162555
1.39205e-05
-0.000178507
1.18353e-05
-0.000198544
9.9766e-06
-0.000223406
8.22372e-06
-0.000248741
6.60116e-06
-0.00027539
5.19503e-06
-0.000305423
4.06432e-06
-0.000339565
3.19126e-06
-0.000377607
2.48838e-06
-0.000419353
1.95806e-06
-0.000465024
1.44244e-06
-0.000514739
1.29159e-06
-0.000570093
7.88075e-07
-0.000629044
1.02371e-06
-0.000698608
3.5199e-07
-0.000760487
8.21855e-07
-0.000869847
3.2867e-06
-0.000872713
-0.00118252
2.74988e-05
-0.000140379
2.47242e-05
-0.000159807
2.10353e-05
-0.000174851
1.74779e-05
-0.000195029
1.44505e-05
-0.000220437
1.17424e-05
-0.000246104
9.38161e-06
-0.000273104
7.40943e-06
-0.000303523
5.8361e-06
-0.000338042
4.60886e-06
-0.000376405
3.62238e-06
-0.000418378
2.88497e-06
-0.000464276
2.19745e-06
-0.000514016
1.93601e-06
-0.000569758
1.27318e-06
-0.000628294
1.53249e-06
-0.000698831
6.37404e-07
-0.000759575
1.14999e-06
-0.000870397
3.54347e-06
-0.000875187
-0.00117905
3.93364e-05
-0.000136011
3.38532e-05
-0.00015436
2.78479e-05
-0.000168862
2.27027e-05
-0.000189867
1.85078e-05
-0.000216197
1.48703e-05
-0.000242386
1.18215e-05
-0.000269941
9.34053e-06
-0.000300926
7.38043e-06
-0.000335965
5.85046e-06
-0.000374762
4.61874e-06
-0.000417057
3.68815e-06
-0.000463271
2.84988e-06
-0.000513076
2.48125e-06
-0.000569299
1.66082e-06
-0.000627372
1.96605e-06
-0.000699096
8.53752e-07
-0.000758446
1.46472e-06
-0.000871055
3.78691e-06
-0.000877571
-0.00117531
5.04775e-05
-0.000128949
4.19155e-05
-0.000145765
3.3477e-05
-0.000160368
2.69045e-05
-0.000183237
2.17232e-05
-0.000210985
1.72905e-05
-0.000237946
1.36719e-05
-0.000266317
1.07908e-05
-0.000298087
8.53069e-06
-0.00033382
6.76599e-06
-0.000373161
5.3517e-06
-0.000415826
4.28049e-06
-0.00046238
3.31834e-06
-0.000512227
2.86588e-06
-0.000568937
1.90856e-06
-0.000626452
2.25637e-06
-0.0006995
9.10529e-07
-0.000757131
1.53139e-06
-0.000871741
2.60275e-06
-0.000878688
-0.00117273
5.90628e-05
-0.000119339
4.73634e-05
-0.000134051
3.68602e-05
-0.000149842
2.93917e-05
-0.000175749
2.36091e-05
-0.000205203
1.86625e-05
-0.000233044
1.46715e-05
-0.000262372
1.15506e-05
-0.00029493
9.1518e-06
-0.000331295
7.29348e-06
-0.000371154
5.79985e-06
-0.000414215
4.67019e-06
-0.000461175
3.62821e-06
-0.000511137
3.11516e-06
-0.000568417
2.05274e-06
-0.000625375
2.41078e-06
-0.000699884
8.7591e-07
-0.000755605
1.43126e-06
-0.00087234
1.50937e-06
-0.000878779
-0.00117124
6.33562e-05
-0.000106712
4.86749e-05
-0.000119312
3.71446e-05
-0.000138223
2.96952e-05
-0.000168175
2.38476e-05
-0.00019923
1.88187e-05
-0.000227915
1.48168e-05
-0.000258358
1.16817e-05
-0.000291844
9.26662e-06
-0.00032893
7.39542e-06
-0.00036932
5.89178e-06
-0.000412736
4.77156e-06
-0.000460045
3.71236e-06
-0.000510068
3.18323e-06
-0.000567879
2.08918e-06
-0.000624243
2.44096e-06
-0.000700228
8.02291e-07
-0.000753954
1.5872e-06
-0.000873143
1.46792e-06
-0.000878658
-0.00116978
6.08676e-05
-9.08103e-05
4.42564e-05
-0.000102779
3.37354e-05
-0.000127845
2.74814e-05
-0.000162083
2.21854e-05
-0.000194112
1.75207e-05
-0.00022341
1.3876e-05
-0.000254828
1.10234e-05
-0.000289067
8.81021e-06
-0.000326766
7.07249e-06
-0.000367633
5.66299e-06
-0.000411366
4.62122e-06
-0.000458997
3.60287e-06
-0.000509071
3.08805e-06
-0.000567374
2.04592e-06
-0.000623165
2.41514e-06
-0.000700589
6.62712e-07
-0.000752205
1.76678e-06
-0.000874268
1.1874e-06
-0.000878076
-0.00116861
4.92442e-05
-7.11084e-05
3.33741e-05
-8.68711e-05
2.67545e-05
-0.000121096
2.28163e-05
-0.000157994
1.87346e-05
-0.000189921
1.49678e-05
-0.000219585
1.20258e-05
-0.000251806
9.67856e-06
-0.0002866
7.83934e-06
-0.000324775
6.36456e-06
-0.000366047
5.13757e-06
-0.000410066
4.22839e-06
-0.000458006
3.31177e-06
-0.000508147
2.83338e-06
-0.000566897
1.91388e-06
-0.000622207
2.27152e-06
-0.000700944
4.31268e-07
-0.000750384
1.88541e-06
-0.000875748
7.05219e-07
-0.000876856
-0.00116789
2.73506e-05
-5.0096e-05
1.82129e-05
-7.7818e-05
1.78153e-05
-0.0001207
1.6458e-05
-0.000156595
1.39587e-05
-0.000187427
1.14865e-05
-0.00021717
9.49208e-06
-0.000249889
7.78547e-06
-0.000284987
6.41292e-06
-0.00032343
5.28909e-06
-0.000364933
4.31542e-06
-0.000409111
3.58396e-06
-0.000457259
2.83645e-06
-0.000507419
2.42075e-06
-0.000566507
1.6926e-06
-0.000621469
1.98075e-06
-0.000701257
1.12809e-07
-0.000748532
1.88925e-06
-0.000877554
3.4789e-08
-0.000874956
-0.00116782
1.99137e-07
-3.79383e-05
3.82767e-06
-8.13569e-05
8.85308e-06
-0.000125658
9.41236e-06
-0.000157073
8.56208e-06
-0.000186498
7.50755e-06
-0.000216002
6.53875e-06
-0.000248816
5.55761e-06
-0.00028399
4.70784e-06
-0.000322558
3.97567e-06
-0.0003642
3.28951e-06
-0.000408475
2.75331e-06
-0.000456765
2.20641e-06
-0.000506923
1.87011e-06
-0.000566221
1.40389e-06
-0.000621028
1.56961e-06
-0.000701478
-2.56371e-07
-0.000746698
1.79578e-06
-0.000879596
-1.05983e-06
-0.000872117
-0.00116887
-1.94743e-05
-4.57216e-05
-5.87107e-06
-9.48327e-05
1.02641e-06
-0.000132546
2.86849e-06
-0.00015897
3.45611e-06
-0.000187168
3.60167e-06
-0.000216176
3.47788e-06
-0.000248697
3.16815e-06
-0.000283717
2.82588e-06
-0.000322219
2.48646e-06
-0.000363872
2.10509e-06
-0.000408156
1.78057e-06
-0.000456506
1.43692e-06
-0.000506649
1.16258e-06
-0.000565993
1.01548e-06
-0.000620871
1.02982e-06
-0.000701519
-6.04585e-07
-0.000745069
1.55135e-06
-0.000881721
-2.84147e-06
-0.00086776
-0.00117173
-1.95245e-05
-5.71159e-05
-8.8235e-06
-0.000105473
-3.97213e-06
-0.000137351
-1.64656e-06
-0.000161227
-4.11393e-07
-0.000188374
3.5339e-07
-0.000216921
6.92737e-07
-0.00024905
8.5013e-07
-0.000283907
8.99359e-07
-0.000322283
9.01393e-07
-0.000363902
8.13306e-07
-0.000408141
6.9298e-07
-0.000456436
5.87184e-07
-0.000506589
2.73751e-07
-0.000565718
4.56371e-07
-0.000621036
3.04772e-08
-0.000701086
-6.51346e-07
-0.000744429
5.9428e-07
-0.000882965
-4.35151e-06
-0.000862836
-0.00117612
-1.09542e-05
-6.54156e-05
-6.45816e-06
-0.000110048
-4.14664e-06
-0.000139735
-3.42787e-06
-0.000161888
-2.52426e-06
-0.000189254
-1.87879e-06
-0.000217525
-1.35676e-06
-0.000249543
-1.02442e-06
-0.000284192
-7.87404e-07
-0.000322502
-6.20867e-07
-0.000364057
-4.69881e-07
-0.000408336
-4.9646e-07
-0.000456436
-2.6282e-07
-0.000506796
-8.17258e-07
-0.000565133
-1.46805e-07
-0.000621724
-2.49492e-06
-0.000698748
-4.82838e-07
-0.000746481
-3.41587e-06
-0.000880011
-4.76952e-06
-0.000861479
-0.00118094
8.59907e-06
-5.79636e-05
3.69527e-06
-0.000105071
-1.97679e-07
-0.000135863
-7.59784e-07
-0.000161237
-6.90417e-07
-0.000189338
-3.03435e-07
-0.000217878
-3.30697e-07
-0.000249481
-4.94728e-07
-0.000283943
-8.17564e-07
-0.000322214
-1.08255e-06
-0.000363808
-1.13227e-06
-0.000408258
-1.24077e-06
-0.000456302
-9.99686e-07
-0.000507041
-1.56209e-06
-0.00056453
-7.85859e-07
-0.000622539
-3.64115e-06
-0.000695899
-8.26163e-07
-0.000749368
-6.7011e-06
-0.00087414
-1.16567e-05
-0.000856501
-0.00119262
2.30834e-06
-6.02869e-05
8.52123e-07
-0.000103594
1.02461e-06
-0.000136029
5.77121e-07
-0.000160764
5.82972e-07
-0.000189338
3.36151e-07
-0.000217607
1.35899e-07
-0.000249267
-1.63163e-07
-0.000283621
-4.0493e-07
-0.000321967
-6.08702e-07
-0.000363605
-6.83972e-07
-0.000408168
-7.61964e-07
-0.000456204
-6.34618e-07
-0.000507182
-7.95949e-07
-0.000564366
-3.56997e-07
-0.000622965
-1.06596e-06
-0.000695166
2.67733e-07
-0.000750718
-1.79595e-06
-0.000872099
2.00768e-06
-0.000860297
-0.00119062
2.47958e-06
-6.27665e-05
9.53225e-07
-0.000102053
1.17949e-06
-0.000136258
7.56252e-07
-0.000160335
7.88429e-07
-0.000189366
5.49989e-07
-0.00021736
3.48565e-07
-0.000249066
4.33625e-08
-0.000283311
-2.09592e-07
-0.000321714
-4.28286e-07
-0.000363384
-5.20688e-07
-0.000408075
-6.18224e-07
-0.000456105
-5.08713e-07
-0.000507292
-6.91959e-07
-0.000564179
-2.69544e-07
-0.000623394
-1.03751e-06
-0.000694395
2.95441e-07
-0.000752048
-1.85819e-06
-0.000869944
1.90085e-06
-0.000864054
-0.00118872
2.37219e-06
-6.51398e-05
1.11455e-06
-0.000100782
1.35261e-06
-0.000136497
1.00491e-06
-0.000159982
1.0448e-06
-0.000189402
8.15398e-07
-0.000217123
6.0046e-07
-0.000248853
2.85554e-07
-0.000282991
1.53792e-08
-0.000321446
-2.22116e-07
-0.000363146
-3.37766e-07
-0.000407958
-4.56792e-07
-0.000455984
-3.7419e-07
-0.000507377
-5.75229e-07
-0.000563974
-1.87665e-07
-0.000623788
-9.69419e-07
-0.000693608
3.23531e-07
-0.000753339
-1.84949e-06
-0.000867769
1.72349e-06
-0.000867624
-0.001187
2.2738e-06
-6.74152e-05
1.31389e-06
-9.98084e-05
1.57587e-06
-0.000136759
1.29966e-06
-0.000159702
1.33516e-06
-0.000189435
1.10599e-06
-0.000216887
8.71911e-07
-0.000248621
5.4499e-07
-0.000282659
2.56324e-07
-0.00032116
-1.60833e-09
-0.000362887
-1.4298e-07
-0.000407815
-2.8568e-07
-0.000455838
-2.32704e-07
-0.000507434
-4.52651e-07
-0.00056375
-1.03017e-07
-0.000624144
-8.94734e-07
-0.00069281
3.68786e-07
-0.000754601
-1.82811e-06
-0.00086557
1.58093e-06
-0.000871027
-0.00118542
2.2046e-06
-6.96215e-05
1.53447e-06
-9.91241e-05
1.82192e-06
-0.000137048
1.61036e-06
-0.000159487
1.63321e-06
-0.000189456
1.39826e-06
-0.000216647
1.14324e-06
-0.000248368
8.0519e-07
-0.000282317
5.0003e-07
-0.000320855
2.22963e-07
-0.000362608
5.5756e-08
-0.000407648
-1.1082e-07
-0.000455669
-8.85708e-08
-0.000507462
-3.27126e-07
-0.000563507
-1.72938e-08
-0.000624459
-8.13115e-07
-0.000692008
4.2391e-07
-0.000755836
-1.80306e-06
-0.000863342
1.46784e-06
-0.00087429
-0.00118395
2.17187e-06
-7.17956e-05
1.77352e-06
-9.87119e-05
2.08444e-06
-0.000137364
1.92961e-06
-0.000159332
1.93276e-06
-0.00018946
1.68644e-06
-0.000216397
1.40954e-06
-0.000248094
1.06196e-06
-0.000281966
7.43083e-07
-0.000320535
4.48895e-07
-0.000362311
2.56379e-07
-0.000407456
6.62082e-08
-0.000455476
5.70618e-08
-0.000507459
-1.99498e-07
-0.000563245
6.97837e-08
-0.000624734
-7.26482e-07
-0.000691204
4.82903e-07
-0.000757043
-1.77822e-06
-0.000861081
1.38444e-06
-0.000877444
-0.00118257
2.17555e-06
-7.39748e-05
2.02933e-06
-9.85527e-05
2.36012e-06
-0.000137703
2.25234e-06
-0.000159226
2.22893e-06
-0.000189439
1.96574e-06
-0.000216134
1.66659e-06
-0.000247796
1.31164e-06
-0.00028161
9.82483e-07
-0.000320202
6.7373e-07
-0.000361998
4.56941e-07
-0.000407242
2.43851e-07
-0.000455261
2.03032e-07
-0.000507425
-7.066e-08
-0.000562966
1.57601e-07
-0.000624968
-6.36717e-07
-0.000690404
5.43609e-07
-0.000758221
-1.75635e-06
-0.000858781
1.32889e-06
-0.000880519
-0.00118124
2.21303e-06
-7.6194e-05
2.29953e-06
-9.86279e-05
2.64648e-06
-0.000138062
2.57478e-06
-0.000159159
2.51657e-06
-0.000189385
2.2311e-06
-0.00021585
1.90997e-06
-0.000247475
1.55047e-06
-0.00028125
1.21503e-06
-0.000319861
8.94803e-07
-0.000361672
6.5537e-07
-0.000407006
4.20474e-07
-0.000455024
3.48094e-07
-0.000507359
5.83212e-08
-0.00056267
2.45358e-07
-0.000625161
-5.44559e-07
-0.000689609
6.05235e-07
-0.000759367
-1.7374e-06
-0.000856438
1.30233e-06
-0.00088355
-0.00117994
2.27972e-06
-7.84829e-05
2.57962e-06
-9.89187e-05
2.93899e-06
-0.000138437
2.8906e-06
-0.000159119
2.78986e-06
-0.00018929
2.47728e-06
-0.000215542
2.13522e-06
-0.000247132
1.77462e-06
-0.00028089
1.43743e-06
-0.000319517
1.10933e-06
-0.000361337
8.49423e-07
-0.000406751
5.9433e-07
-0.000454768
4.90977e-07
-0.000507262
1.8644e-07
-0.00056236
3.32235e-07
-0.000625313
-4.50363e-07
-0.000688823
6.67123e-07
-0.000760482
-1.72141e-06
-0.000854049
1.30657e-06
-0.00088657
-0.00117863
2.37398e-06
-8.08685e-05
2.86747e-06
-9.94056e-05
3.23229e-06
-0.000138816
3.19298e-06
-0.000159091
3.04238e-06
-0.000189144
2.69892e-06
-0.000215204
2.33786e-06
-0.000246768
1.98028e-06
-0.000280535
1.64639e-06
-0.000319177
1.3145e-06
-0.000360997
1.03686e-06
-0.00040648
7.63609e-07
-0.000454493
6.30296e-07
-0.000507136
3.12771e-07
-0.000562037
4.17612e-07
-0.000625424
-3.5394e-07
-0.000688049
7.2868e-07
-0.000761562
-1.70789e-06
-0.00085161
1.34568e-06
-0.000889616
-0.00117728
2.49359e-06
-8.33749e-05
3.15989e-06
-0.000100068
3.52037e-06
-0.000139189
3.47475e-06
-0.000159058
3.26732e-06
-0.00018894
2.89063e-06
-0.000214835
2.51357e-06
-0.000246388
2.16382e-06
-0.000280189
1.83865e-06
-0.000318847
1.50748e-06
-0.000360659
1.21542e-06
-0.000406194
9.26463e-07
-0.000454203
7.64642e-07
-0.000506981
4.36297e-07
-0.000561705
5.0368e-07
-0.000625497
-2.52644e-07
-0.000687292
7.89299e-07
-0.000762601
-1.69582e-06
-0.000849121
1.42514e-06
-0.000892731
-0.00117585
2.63854e-06
-8.60258e-05
3.45287e-06
-0.000100882
3.79621e-06
-0.000139539
3.72829e-06
-0.000159006
3.45756e-06
-0.00018867
3.04722e-06
-0.000214434
2.65834e-06
-0.000245996
2.32185e-06
-0.000279856
2.01114e-06
-0.000318534
1.68549e-06
-0.000360327
1.3828e-06
-0.000405898
1.08106e-06
-0.000453901
8.92722e-07
-0.000506801
5.56661e-07
-0.000561367
5.90386e-07
-0.000625536
-1.43611e-07
-0.000686558
8.53083e-07
-0.000763596
-1.68458e-06
-0.000846579
1.54747e-06
-0.000895958
-0.00117431
2.80642e-06
-8.88425e-05
3.7403e-06
-0.000101818
4.0506e-06
-0.000139851
3.94426e-06
-0.000158917
3.60585e-06
-0.000188331
3.16399e-06
-0.000214002
2.76875e-06
-0.000245596
2.45135e-06
-0.000279543
2.16095e-06
-0.000318243
1.84589e-06
-0.000360006
1.53678e-06
-0.000405595
1.22561e-06
-0.000453588
1.0132e-06
-0.000506596
6.73027e-07
-0.000561026
6.74657e-07
-0.000625541
-3.07996e-08
-0.000685853
9.18816e-07
-0.000764545
-1.6737e-06
-0.000843982
1.71636e-06
-0.000899344
-0.00117259
2.99678e-06
-9.18466e-05
4.0162e-06
-0.000102842
4.27304e-06
-0.000140106
4.11279e-06
-0.000158777
3.70533e-06
-0.000187922
3.23696e-06
-0.000213545
2.84212e-06
-0.000245197
2.54993e-06
-0.000279254
2.28557e-06
-0.00031798
1.98624e-06
-0.000359703
1.67532e-06
-0.00040529
1.35841e-06
-0.00045327
1.12483e-06
-0.000506371
7.84367e-07
-0.000560688
7.54881e-07
-0.000625515
8.0926e-08
-0.000685178
9.82777e-07
-0.000765447
-1.66295e-06
-0.000841334
1.93586e-06
-0.000902939
-0.00117066
3.21058e-06
-9.50616e-05
4.27424e-06
-0.000103912
4.45249e-06
-0.000140281
4.22437e-06
-0.000158569
3.75003e-06
-0.000187446
3.26321e-06
-0.000213071
2.87679e-06
-0.000244807
2.61595e-06
-0.000278996
2.38302e-06
-0.00031775
2.10443e-06
-0.000359422
1.79652e-06
-0.000404988
1.47789e-06
-0.00045295
1.22653e-06
-0.000506128
8.89401e-07
-0.000560354
8.25434e-07
-0.000625453
1.86364e-07
-0.000684537
1.04475e-06
-0.000766307
-1.65348e-06
-0.000838637
2.20968e-06
-0.000906798
-0.00116845
3.44884e-06
-9.85131e-05
4.50674e-06
-0.000104977
4.5747e-06
-0.000140347
4.26791e-06
-0.000158282
3.7354e-06
-0.000186914
3.24122e-06
-0.00021259
2.87205e-06
-0.000244433
2.64854e-06
-0.000278775
2.45187e-06
-0.000317558
2.19875e-06
-0.000359167
1.89885e-06
-0.000404693
1.58276e-06
-0.000452632
1.31736e-06
-0.00050587
9.86001e-07
-0.000560028
8.88971e-07
-0.000625358
2.91907e-07
-0.000683938
1.10357e-06
-0.00076712
-1.64611e-06
-0.000835892
2.54022e-06
-0.000910982
-0.00116591
3.71346e-06
-0.000102228
4.70558e-06
-0.000105974
4.6269e-06
-0.000140267
4.23769e-06
-0.000157911
3.65914e-06
-0.000186337
3.17081e-06
-0.000212114
2.82763e-06
-0.000244086
2.64717e-06
-0.000278597
2.49114e-06
-0.000317407
2.26789e-06
-0.000358943
1.98095e-06
-0.000404411
1.67199e-06
-0.000452322
1.39636e-06
-0.000505601
1.07441e-06
-0.000559712
9.43869e-07
-0.000625231
3.98708e-07
-0.000683391
1.15012e-06
-0.000767873
-1.64116e-06
-0.000833108
2.92643e-06
-0.000915549
-0.00116298
4.01209e-06
-0.000106241
4.86429e-06
-0.000106829
4.60204e-06
-0.000140001
4.13203e-06
-0.000157454
3.51982e-06
-0.000185727
3.05294e-06
-0.00021166
2.74498e-06
-0.000243774
2.61186e-06
-0.000278466
2.49967e-06
-0.0003173
2.31077e-06
-0.000358753
2.04158e-06
-0.000404146
1.74465e-06
-0.000452026
1.46246e-06
-0.000505324
1.15506e-06
-0.000559409
9.88295e-07
-0.000625067
4.9988e-07
-0.000682903
1.15897e-06
-0.000768531
-1.63958e-06
-0.000830318
3.36431e-06
-0.000920555
-0.00115962
4.36263e-06
-0.000110601
4.97143e-06
-0.000107439
4.48032e-06
-0.000139504
3.92988e-06
-0.000156911
3.30724e-06
-0.000185107
2.88636e-06
-0.000211249
2.62884e-06
-0.000243514
2.54587e-06
-0.000278386
2.47722e-06
-0.000317235
2.32578e-06
-0.0003586
2.07977e-06
-0.000403905
1.79908e-06
-0.000451747
1.51503e-06
-0.000505043
1.22494e-06
-0.000559121
1.02382e-06
-0.00062487
5.93825e-07
-0.000682476
1.16305e-06
-0.000769098
-1.63152e-06
-0.00082753
3.855e-06
-0.000926047
-0.00115576
4.49228e-06
-0.000115089
4.90888e-06
-0.000107865
4.12719e-06
-0.000138718
3.56827e-06
-0.00015635
2.99684e-06
-0.000184536
2.6826e-06
-0.000210941
2.50344e-06
-0.000243332
2.47324e-06
-0.000278358
2.43851e-06
-0.000317203
2.31999e-06
-0.000358479
2.09798e-06
-0.000403689
1.8383e-06
-0.000451495
1.55126e-06
-0.000504755
1.28331e-06
-0.000558847
1.03837e-06
-0.000624632
6.92938e-07
-0.000682144
1.11934e-06
-0.000769516
-1.49985e-06
-0.000824901
4.10452e-06
-0.000931668
-0.00115166
1.06323e-05
-8.21512e-05
-4.3562e-05
9.81245e-06
-0.000107015
2.91927e-06
-0.000131754
4.51388e-06
-0.000157998
5.08411e-06
-0.000185084
7.94241e-06
-0.000213845
9.83978e-06
-0.000245208
1.14167e-05
-0.000279906
1.17826e-05
-0.000317571
1.14416e-05