/*--------------------------------*- C++ -*----------------------------------*\
  =========                 |
  \\      /  F ield         | OpenFOAM: The Open Source CFD Toolbox
   \\    /   O peration     | Website:  https://openfoam.org
    \\  /    A nd           | Version:  10
     \\/     M anipulation  |
\*---------------------------------------------------------------------------*/
FoamFile
{
    format      ascii;
    class       surfaceScalarField;
    location    "700";
    object      phi;
}
// * * * * * * * * * * * * * * * * * * * * * * * * * * * * * * * * * * * * * //

dimensions      [0 3 -1 0 0 0 0];

internalField   nonuniform List<scalar> 
788
(
3.16461e-06
-4.31174e-06
4.38488e-06
2.00665e-06
6.18965e-06
8.6964e-06
8.26444e-06
1.00766e-05
1.01552e-05
7.54467e-06
1.14485e-05
1.79234e-06
1.16567e-05
-6.46408e-06
1.08249e-05
-1.58565e-05
9.31871e-06
-2.60512e-05
-3.81785e-05
7.38183e-06
2.43833e-06
-6.74714e-06
3.82463e-06
6.51051e-07
5.58558e-06
6.96192e-06
7.4236e-06
8.26787e-06
8.86313e-06
6.1081e-06
9.49557e-06
1.15438e-06
8.85423e-06
-5.82438e-06
7.01042e-06
-1.40057e-05
4.27845e-06
-2.32992e-05
-3.52768e-05
1.44517e-06
1.42613e-06
-8.16935e-06
2.69835e-06
-6.05485e-07
4.52476e-06
5.14015e-06
6.25567e-06
6.5459e-06
7.34503e-06
5.00859e-06
7.33727e-06
1.153e-06
5.80242e-06
-4.29335e-06
2.77254e-06
-1.09824e-05
-1.0568e-06
-1.94655e-05
-3.19856e-05
-4.306e-06
6.4577e-07
-8.81298e-06
1.3981e-06
-1.34548e-06
3.03827e-06
3.49511e-06
4.54175e-06
5.03282e-06
5.22117e-06
4.29382e-06
4.54884e-06
1.77871e-06
2.17129e-06
-1.97087e-06
-1.79755e-06
-7.07651e-06
-6.27354e-06
-1.50366e-05
-2.88252e-05
-9.43529e-06
-5.72613e-08
-8.75676e-06
7.7111e-08
-1.47124e-06
1.30819e-06
2.24934e-06
2.45915e-06
3.84756e-06
2.74083e-06
3.93988e-06
1.57593e-06
2.83937e-06
-1.31681e-06
7.86947e-07
-5.69904e-06
-2.84923e-06
-1.02427e-05
-1.06312e-05
-2.6149e-05
-1.30037e-05
-7.42941e-07
-8.01764e-06
-1.14162e-06
-1.06853e-06
-3.79109e-07
1.46138e-06
4.29982e-07
2.97408e-06
5.12708e-07
3.73625e-06
-7.24086e-07
3.89377e-06
-3.52539e-06
3.34183e-06
-7.60408e-06
9.40146e-07
-1.17743e-05
-6.73562e-06
-2.36273e-05
-1.44889e-05
-1.37789e-06
-6.64347e-06
-2.13221e-06
-3.11384e-07
-1.73977e-06
1.03449e-06
-1.10353e-06
2.24085e-06
-8.46665e-07
3.29855e-06
-1.50446e-06
4.27048e-06
-3.46578e-06
4.91944e-06
-6.69488e-06
3.72398e-06
-1.0777e-05
-3.07183e-06
-2.04317e-05
-1.42605e-05
-1.94239e-06
-4.70163e-06
-2.77727e-06
5.31216e-07
-2.49572e-06
7.11998e-07
-1.80152e-06
1.41756e-06
-1.02623e-06
2.28019e-06
-4.848e-07
3.34898e-06
-6.57855e-07
4.58124e-06
-2.28066e-06
4.7727e-06
-6.41016e-06
5.37084e-07
-1.53021e-05
-1.19064e-05
-2.34772e-06
-2.3491e-06
-2.66542e-06
8.62175e-07
-2.34419e-06
3.41394e-07
-1.5996e-06
5.19071e-07
-4.04979e-07
8.07026e-07
1.31549e-06
1.21436e-06
3.54729e-06
1.81754e-06
5.41272e-06
2.33466e-06
3.31655e-06
2.14026e-06
-5.86215e-06
-6.44101e-06
-2.34137e-06
-1.49448e-06
-1.20878e-06
-7.96801e-07
-1.55442e-07
8.40888e-07
2.41017e-06
4.49987e-06
6.46825e-06
5.52723e-07
5.4867e-06
-5.46539e-05
4.19262e-06
-8.47965e-05
3.90408e-06
-0.000129729
3.67828e-06
-0.000189479
2.99933e-06
-0.0002604
2.18683e-06
-0.000341973
1.61195e-06
-0.000449106
3.49508e-06
-0.000589782
7.53724e-06
-0.000544785
-0.00124995
-4.93078e-07
-5.25592e-05
-1.00619e-06
-8.40302e-05
-3.7246e-07
-0.000130081
-1.23225e-08
-0.000189704
-3.45542e-07
-0.000260216
-6.28209e-07
-0.000341765
-1.31762e-06
-0.000448184
-5.08839e-06
-0.000586128
1.52649e-06
-0.000551488
-0.00124845
-5.86469e-06
-5.08861e-05
-5.57352e-06
-8.41259e-05
-4.39472e-06
-0.000131058
-3.95578e-06
-0.00019014
-4.44744e-06
-0.000260112
-4.91203e-06
-0.000341517
-5.96283e-06
-0.000446901
-1.3362e-05
-0.000579196
-2.86225e-06
-0.000561481
-0.00125137
-1.03199e-05
-4.99295e-05
-9.24003e-06
-8.50623e-05
-7.76863e-06
-0.000132384
-7.35249e-06
-0.000190583
-7.82801e-06
-0.000259981
-8.28618e-06
-0.000341218
-9.15863e-06
-0.000445712
-1.59047e-05
-0.000572816
-4.90257e-06
-0.000572234
-0.00125637
-1.33357e-05
-4.96032e-05
-1.18289e-05
-8.65106e-05
-1.0454e-05
-0.000133712
-1.02778e-05
-0.000190867
-1.08356e-05
-0.000259744
-1.1348e-05
-0.000340863
-1.22988e-05
-0.000444688
-1.93999e-05
-0.000565983
-7.8368e-06
-0.000583677
-0.00126432
-1.4675e-05
-4.94993e-05
-1.31618e-05
-8.80328e-05
-1.22557e-05
-0.000134641
-1.25125e-05
-0.000190766
-1.3314e-05
-0.000259203
-1.39591e-05
-0.00034029
-1.52194e-05
-0.000443522
-2.24054e-05
-0.000559016
-9.68959e-06
-0.000596259
-0.00127411
-1.43753e-05
-4.95151e-05
-1.32173e-05
-8.92267e-05
-1.29958e-05
-0.000134909
-1.37739e-05
-0.000190146
-1.48706e-05
-0.00025828
-1.56239e-05
-0.000339481
-1.73328e-05
-0.000441945
-2.39714e-05
-0.000552564
-1.04538e-05
-0.000609585
-0.00128464
-1.23311e-05
-4.92694e-05
-1.20254e-05
-8.96087e-05
-1.27245e-05
-0.000134302
-1.41525e-05
-0.000188902
-1.57665e-05
-0.00025679
-1.7029e-05
-0.00033807
-1.95548e-05
-0.000439543
-2.50429e-05
-0.000547264
-9.92983e-06
-0.000624454
-0.00129458
-7.92854e-06
-4.78872e-05
-8.83846e-06
-8.87247e-05
-1.05308e-05
-0.000132696
-1.26482e-05
-0.000186986
-1.48813e-05
-0.000254674
-1.67359e-05
-0.000336037
-1.96153e-05
-0.00043678
-2.50497e-05
-0.000542054
-7.51225e-06
-0.000641853
-0.00130184
6.50562e-07
-4.79886e-05
-2.61548e-06
-8.53935e-05
-5.56397e-06
-0.000129784
-7.88201e-06
-0.000184896
-1.01564e-05
-0.000252614
-1.27469e-05
-0.00033341
-1.73053e-05
-0.000432246
-2.21879e-05
-0.000537015
-6.44617e-06
-0.000657922
-0.00130817
8.72598e-07
-4.88188e-05
-1.08701e-06
-8.34071e-05
-2.44352e-06
-0.000128527
-3.03187e-06
-0.000184587
-2.96943e-06
-0.00025282
-2.23798e-06
-0.00033398
-4.05309e-06
-0.000430541
-2.02172e-05
-0.000520674
-1.99437e-05
-0.000658329
-0.00132808
1.73234e-06
-5.04995e-05
6.91784e-07
-8.23297e-05
-3.57578e-07
-0.000127622
-7.81349e-07
-0.00018445
-6.47092e-07
-0.000253031
3.73027e-07
-0.000334733
-7.55896e-07
-0.000429629
-1.35711e-05
-0.000507888
-1.84632e-05
-0.000653417
-0.00134642
-4.67358e-06
-4.45381e-05
-1.20762e-06
-5.98717e-06
-8.09685e-05
-7.6772e-06
-0.000126092
-9.64119e-06
-0.000182825
-1.14019e-05
-0.000251483
-1.23331e-05
-0.000333704
-1.28355e-05
-0.000429344
-2.06434e-06
-0.000518468
-1.83702e-06
-0.000653707
-0.00134828
-6.05088e-06
-4.77041e-05
9.30194e-06
-5.18268e-06
-8.19202e-05
-5.23797e-06
-0.000126278
-6.0029e-06
-0.000182524
-6.83754e-06
-0.000250858
-6.94161e-06
-0.000333353
-7.27006e-06
-0.000429254
-8.05479e-06
-0.000517636
-7.27867e-06
-0.000654185
-0.00135559
-4.0135e-06
-5.13984e-05
7.6866e-06
-2.25563e-06
-8.37145e-05
-1.6341e-06
-0.000127129
-1.76138e-06
-0.00018285
-2.06739e-06
-0.000250736
-1.9595e-06
-0.000333112
-2.08105e-06
-0.000429173
-4.47359e-06
-0.000515362
-8.97189e-06
-0.000649441
-0.0013646
1.61427e-07
-5.42683e-05
2.71749e-06
1.75901e-06
-8.52555e-05
2.42456e-06
-0.000127996
2.58261e-06
-0.000183413
2.72134e-06
-0.000251032
3.17257e-06
-0.000333262
4.26607e-06
-0.000430364
4.17804e-06
-0.00051536
-4.51172e-06
-0.000640438
-0.00136915
5.80332e-06
-5.6267e-05
-3.73144e-06
6.92344e-06
-8.62455e-05
7.41934e-06
-0.000128658
7.75799e-06
-0.000184097
8.32433e-06
-0.000251659
9.14251e-06
-0.000333679
1.12272e-05
-0.000432522
1.34853e-05
-0.000517701
2.4268e-07
-0.00062684
-0.00136893
1.18372e-05
-5.74085e-05
-1.0572e-05
1.25331e-05
-8.67243e-05
1.2868e-05
-0.000129113
1.33774e-05
-0.000184909
1.43396e-05
-0.000252632
1.54923e-05
-0.000334368
1.84417e-05
-0.000435517
2.53035e-05
-0.00052466
7.31222e-06
-0.000608477
-0.00136167
1.71365e-05
-5.79012e-05
-1.64614e-05
1.78288e-05
-8.71137e-05
1.83553e-05
-0.000129718
1.9355e-05
-0.00018618
2.104e-05
-0.000254307
2.28975e-05
-0.000335741
2.60596e-05
-0.000438731
3.56534e-05
-0.000534385
1.44364e-05
-0.000586956
-0.00134735
2.0578e-05
-5.82456e-05
-1.99967e-05
2.16637e-05
-8.7867e-05
2.28125e-05
-0.000130919
2.48381e-05
-0.000188445
2.78411e-05
-0.000257274
3.10651e-05
-0.000338466
3.41117e-05
-0.000441911
4.41794e-05
-0.000544755
2.39459e-05
-0.000566588
-0.00132357
2.08995e-05
-5.84562e-05
-2.04305e-05
2.18401e-05
-8.84984e-05
2.31558e-05
-0.000132268
2.56271e-05
-0.000191094
2.94632e-05
-0.000260974
3.39243e-05
-0.000342352
3.89726e-05
-0.000447296
6.10855e-05
-0.000568061
4.9658e-05
-0.000555363
-0.00127302
1.34267e-05
-1.46316e-05
1.20949e-05
1.09575e-05
1.02601e-05
1.01541e-05
9.31153e-06
9.85531e-06
2.94065e-05
1.63859e-05
-1.5602e-05
1.44603e-05
-2.44964e-05
1.82095e-05
-2.99505e-05
1.30891e-05
-3.36842e-05
6.49263e-06
-3.64383e-05
-8.21275e-07
-3.83702e-05
-8.36046e-06
-3.96664e-05
-1.47706e-05
-4.06465e-05
-1.85884e-05
-4.1294e-05
-1.93882e-05
-1.52725e-05
-2.88934e-06
1.73444e-05
-7.83837e-06
2.30305e-05
-1.26503e-05
1.7714e-05
-1.63847e-05
1.01436e-05
-1.94543e-05
2.24778e-06
-2.21149e-05
-5.63721e-06
-2.44433e-05
-1.2335e-05
-2.63987e-05
-1.6515e-05
-2.78451e-05
-1.78467e-05
-1.53597e-05
2.45762e-06
1.48143e-05
2.64121e-06
2.26252e-05
4.47226e-07
1.9687e-05
-2.36945e-06
1.28287e-05
-5.27699e-06
5.08416e-06
-8.34496e-06
-2.58712e-06
-1.14499e-05
-9.19628e-06
-1.41484e-05
-1.37533e-05
-1.62352e-05
-1.5688e-05
-1.47581e-05
4.34998e-06
1.03839e-05
8.4671e-06
1.83337e-05
9.64576e-06
1.8371e-05
9.05187e-06
1.33415e-05
7.35003e-06
6.74276e-06
4.73794e-06
2.0603e-08
1.49344e-06
-5.91527e-06
-1.85078e-06
-1.03554e-05
-4.68654e-06
-1.27883e-05
-1.30572e-05
3.99777e-06
6.33599e-06
9.94609e-06
1.23065e-05
1.38543e-05
1.4444e-05
1.5438e-05
1.1756e-05
1.52473e-05
6.94997e-06
1.37143e-05
1.59252e-06
1.12229e-05
-3.36364e-06
8.20738e-06
-7.27958e-06
5.28163e-06
-9.80273e-06
-1.06923e-05
3.01549e-06
3.30766e-06
8.63384e-06
6.69309e-06
1.37674e-05
9.38747e-06
1.70309e-05
8.55367e-06
1.83718e-05
5.67601e-06
1.80675e-05
1.97421e-06
1.65352e-05
-1.74623e-06
1.42074e-05
-4.87542e-06
1.1621e-05
-7.15117e-06
-8.24951e-06
2.05633e-06
1.26653e-06
6.35647e-06
2.4603e-06
1.13093e-05
4.56849e-06
1.5207e-05
4.75717e-06
1.75204e-05
3.46105e-06
1.82597e-05
1.33483e-06
1.76983e-05
-1.08615e-06
1.6179e-05
-3.26769e-06
1.40869e-05
-4.98546e-06
-5.97813e-06
1.43416e-06
-1.40737e-07
4.26421e-06
-2.6844e-07
8.03185e-06
9.49634e-07
1.14349e-05
1.4722e-06
1.38307e-05
1.17696e-06
1.49713e-05
3.02791e-07
1.48806e-05
-8.9244e-07
1.3816e-05
-2.10959e-06
1.21341e-05
-3.22418e-06
-3.99831e-06
8.40665e-07
-9.56965e-07
2.17374e-06
-1.4999e-06
4.24001e-06
-1.00175e-06
6.25943e-06
-4.46505e-07
7.7412e-06
-2.09397e-07
8.39105e-06
-2.5695e-07
8.06875e-06
-4.88371e-07
6.84411e-06
-8.15317e-07
4.94083e-06
-1.27027e-06
-2.03118e-06
-9.42259e-07
-2.38527e-06
-3.34148e-06
-3.74613e-06
-3.91629e-06
-4.13724e-06
-4.59369e-06
-5.38049e-06
-6.622e-06
)
;

boundaryField
{
    right
    {
        type            cyclic;
        value           nonuniform List<scalar> 
20
(
0.00125649
0.000542686
0.000586394
0.000447917
0.000341867
0.000260817
0.000190055
0.000130605
8.65599e-05
5.68452e-05
4.03515e-05
2.77335e-05
1.68189e-05
6.33011e-06
-3.03075e-06
-9.32675e-06
-1.19677e-05
-1.03023e-05
-2.96492e-06
8.52142e-06
)
;
    }
    left
    {
        type            cyclic;
        value           nonuniform List<scalar> 
20
(
-0.00125649
-0.000542686
-0.000586394
-0.000447917
-0.000341867
-0.000260817
-0.000190055
-0.000130605
-8.65599e-05
-5.68452e-05
-4.03515e-05
-2.77335e-05
-1.68189e-05
-6.33011e-06
3.03075e-06
9.32675e-06
1.19677e-05
1.03023e-05
2.96492e-06
-8.52142e-06
)
;
    }
    outerWall
    {
        type            calculated;
        value           uniform 0;
    }
    stirrerWall
    {
        type            calculated;
        value           uniform 0;
    }
    top
    {
        type            empty;
        value           nonuniform List<scalar> 0();
    }
    bottom
    {
        type            empty;
        value           nonuniform List<scalar> 0();
    }
}


// ************************************************************************* //
