/*--------------------------------*- C++ -*----------------------------------*\
  =========                 |
  \\      /  F ield         | OpenFOAM: The Open Source CFD Toolbox
   \\    /   O peration     | Website:  https://openfoam.org
    \\  /    A nd           | Version:  10
     \\/     M anipulation  |
\*---------------------------------------------------------------------------*/
FoamFile
{
    format      ascii;
    class       volVectorField;
    location    "700";
    object      U;
}
// * * * * * * * * * * * * * * * * * * * * * * * * * * * * * * * * * * * * * //

dimensions      [0 1 -1 0 0 0 0];

internalField   nonuniform List<vector> 
2000
(
(4.38211 40.487 -7.96647e-18)
(-1.64918 50.993 4.20343e-17)
(0.766339 57.1333 -2.58816e-17)
(1.70984 62.5742 0)
(2.87171 67.345 0)
(4.14849 71.4199 5.34207e-16)
(5.24192 74.929 -6.03657e-16)
(5.92901 77.8627 -6.88931e-16)
(6.04025 80.19 8.07549e-16)
(5.50291 81.9463 9.82218e-16)
(4.33011 83.3157 1.25189e-15)
(2.56958 84.6489 0)
(0.15812 86.4618 2.36864e-15)
(-1.92326 88.8013 2.79814e-15)
(-3.61949 89.3415 3.02014e-15)
(-4.55712 88.773 2.64365e-15)
(-5.11941 87.5974 -2.15683e-15)
(-5.28611 86.3691 8.94369e-16)
(-5.09122 85.4104 7.90763e-16)
(-4.70176 84.9389 3.01175e-15)
(2.97167 40.5995 -4.01668e-17)
(-4.2238 50.5329 4.40073e-17)
(-2.59938 56.4314 -3.96941e-16)
(-2.17899 61.4452 -1.21509e-15)
(-1.04727 65.9693 2.14752e-16)
(0.302778 70.0553 -2.34286e-15)
(1.46293 73.8121 1.22617e-15)
(2.19447 77.1847 2.14839e-15)
(2.3482 80.0385 8.09237e-16)
(1.87932 82.3633 9.6731e-16)
(0.810027 84.2952 -2.37713e-15)
(-0.800131 86.15 -1.50403e-15)
(-2.68951 88.3292 -1.9729e-15)
(-4.46815 90.4059 -2.18999e-15)
(-6.47024 90.6285 -7.94958e-15)
(-7.62985 89.5685 -2.97801e-15)
(-8.0282 87.9665 6.383e-15)
(-8.09961 86.3016 -5.31047e-15)
(-7.86178 85.0144 0)
(-7.47081 84.3435 -4.42432e-15)
(1.46485 40.6358 3.65478e-17)
(-4.98513 50.3365 -2.94675e-16)
(-3.54776 56.141 4.2784e-16)
(-3.2841 60.8578 1.14967e-15)
(-2.53919 65.2074 2.01006e-15)
(-1.62044 69.2959 5.28197e-16)
(-0.828544 73.1868 1.30462e-15)
(-0.341653 76.8433 -2.1272e-15)
(-0.322689 80.1117 -1.64967e-15)
(-0.853878 82.9124 -1.92606e-15)
(-1.94461 85.3439 2.33484e-15)
(-3.621 87.7011 0)
(-5.18748 90.2903 -6.73307e-15)
(-7.0629 92.2157 0)
(-9.21225 91.8722 0)
(-10.4025 90.3386 0)
(-10.7354 88.1302 4.47671e-15)
(-10.7606 86.0602 -6.95526e-15)
(-10.5128 84.5173 0)
(-10.114 83.6782 2.91377e-15)
(-0.127403 40.3242 -4.78837e-17)
(-6.16035 49.6477 7.51331e-16)
(-4.6524 55.4399 0)
(-4.34359 59.969 2.11525e-15)
(-3.85196 64.2024 6.93423e-16)
(-3.28207 68.2968 2.51736e-16)
(-2.83745 72.3029 -1.1896e-17)
(-2.61372 76.208 4.26749e-15)
(-2.7518 79.8643 0)
(-3.37192 83.1175 1.72767e-15)
(-4.54032 86.0331 2.05985e-15)
(-6.2372 88.8124 5.24314e-15)
(-7.65146 91.6846 5.9346e-15)
(-9.69909 93.4715 1.37524e-14)
(-11.6325 92.9588 -8.55023e-15)
(-12.7762 91.2177 -3.6871e-16)
(-13.1597 88.3374 1.69838e-14)
(-13.1596 85.8523 7.08407e-15)
(-12.929 84.0179 6.24579e-15)
(-12.5254 82.9664 5.77613e-15)
(-1.71168 39.8365 0)
(-7.68128 48.698 -1.36992e-15)
(-6.11718 54.5066 -7.58356e-16)
(-5.70807 58.973 -2.64099e-15)
(-5.36022 63.1561 -3.25669e-15)
(-5.0098 67.2584 1.06908e-15)
(-4.80792 71.3495 -2.68933e-15)
(-4.82173 75.4382 -4.27468e-15)
(-5.12317 79.4108 -1.49478e-15)
(-5.82576 83.0891 2.11773e-16)
(-7.07886 86.4858 -3.84751e-15)
(-8.68476 89.7076 -4.72647e-15)
(-10.0599 92.8098 -5.3361e-15)
(-12.0586 94.5152 -6.42938e-15)
(-13.7137 94.0087 0)
(-14.7182 92.3165 3.54462e-16)
(-15.1603 88.7341 2.34087e-16)
(-15.1812 85.77 -7.14452e-15)
(-15.0021 83.5878 -1.89398e-14)
(-14.6378 82.2765 5.52117e-15)
(-3.23996 39.2907 0)
(-9.3659 47.5792 7.14868e-16)
(-7.80631 53.3567 0)
(-7.31156 57.8484 1.71635e-15)
(-7.06027 62.0587 4.10295e-15)
(-6.86555 66.1916 0)
(-6.82671 70.3437 5.27086e-15)
(-7.04375 74.5554 8.66529e-15)
(-7.47229 78.7631 0)
(-8.25769 82.8299 -3.13757e-15)
(-9.55114 86.6728 7.90915e-15)
(-11.0562 90.2951 4.53235e-16)
(-12.4156 93.5806 5.44654e-15)
(-14.1067 95.3625 -6.02899e-15)
(-15.3564 95.017 0)
(-16.1815 93.4915 -2.6473e-14)
(-16.6685 89.4459 -9.62957e-15)
(-16.7782 85.9365 0)
(-16.7105 83.3404 1.28413e-14)
(-16.4289 81.7203 -2.28103e-14)
(-4.71883 38.7425 2.35884e-17)
(-11.1518 46.398 1.69803e-16)
(-9.6505 52.0246 -1.69045e-15)
(-9.08724 56.5448 -7.08686e-16)
(-8.87504 60.8518 -1.67022e-16)
(-8.84075 65.052 -2.67439e-15)
(-8.96945 69.2472 5.1329e-15)
(-9.31709 73.5353 -8.40659e-15)
(-9.84458 77.9146 -9.23523e-15)
(-10.6983 82.2984 6.11433e-15)
(-11.9678 86.523 -3.72057e-15)
(-13.4028 90.4992 -3.95861e-15)
(-14.7341 93.8836 4.1158e-15)
(-16.0908 95.7257 -1.12997e-14)
(-16.9678 95.8507 0)
(-17.3836 94.7867 5.64536e-14)
(-17.8104 90.6164 -4.37435e-14)
(-17.9933 86.4465 1.51174e-14)
(-18.0599 83.3902 1.3229e-14)
(-17.9032 81.418 2.49886e-16)
(-6.17348 38.2116 2.24253e-17)
(-12.9623 45.1596 -5.73379e-16)
(-11.5668 50.4996 2.4047e-15)
(-10.9964 55.0548 -2.76404e-15)
(-10.7978 59.4903 -4.32906e-15)
(-10.9134 63.7954 0)
(-11.2061 68.0396 -5.35087e-15)
(-11.6773 72.3703 0)
(-12.2743 76.8542 5.94889e-15)
(-13.1722 81.4548 0)
(-14.3874 85.9843 0)
(-15.765 90.2822 -4.96774e-16)
(-17.0093 93.7958 1.52975e-14)
(-18.1079 95.6644 1.02092e-14)
(-18.6652 95.8206 7.43504e-16)
(-18.7199 95.1957 -2.27113e-14)
(-19.23 92.397 0)
(-19.0947 87.4287 0)
(-19.1847 83.8362 1.36772e-14)
(-19.1548 81.4861 2.43081e-14)
(-7.62837 37.7108 -2.12388e-17)
(-14.683 43.9053 -1.18412e-15)
(-13.5299 48.7973 1.26735e-15)
(-13.0383 53.3807 -1.37193e-15)
(-12.8561 57.953 -2.45913e-15)
(-13.0793 62.3807 2.12953e-15)
(-13.5264 66.6899 2.84766e-15)
(-14.1091 71.0437 -2.50894e-15)
(-14.8067 75.569 0)
(-15.7242 80.2833 -6.1291e-15)
(-16.8767 85.027 5.52007e-15)
(-18.1655 89.627 -6.21392e-15)
(-19.2354 93.3326 0)
(-20.0246 95.427 2.59343e-16)
(-20.3249 95.6673 6.58636e-16)
(-20.0446 95.0126 1.77372e-14)
(-20.554 93.1626 -4.37869e-14)
(-20.075 88.3194 1.50822e-14)
(-20.2101 84.4958 -1.27115e-14)
(-20.3492 81.884 -1.11409e-14)
(-9.09438 37.2343 0)
(-16.319 42.7304 1.81399e-17)
(-15.3772 47.0643 -2.74045e-15)
(-15.2183 51.5137 1.89339e-16)
(-15.0498 56.198 0)
(-15.3574 60.7527 0)
(-15.9296 65.1493 -7.84016e-15)
(-16.6421 69.5272 2.45956e-15)
(-17.4416 74.048 -1.11146e-14)
(-18.3838 78.7803 -7.14508e-16)
(-19.4916 83.642 1.08789e-14)
(-20.6615 88.5595 -5.25322e-15)
(-21.5714 92.2211 5.0679e-16)
(-22.1085 94.717 7.50686e-16)
(-22.2723 95.1683 -9.36781e-15)
(-21.8842 94.8309 0)
(-22.1793 93.7391 -1.89337e-14)
(-21.365 89.1819 5.40298e-14)
(-21.4636 85.2848 -2.18489e-14)
(-21.7516 82.5741 1.00286e-14)
(-10.5753 36.7831 8.01751e-17)
(-17.9605 41.5919 1.29012e-15)
(-17.1252 45.3848 2.58992e-15)
(-17.3588 49.4967 1.68912e-15)
(-17.4341 54.2555 2.01363e-15)
(-17.774 58.8721 0)
(-18.4445 63.3576 2.49375e-15)
(-19.2794 67.7753 2.43034e-15)
(-20.1913 72.2676 -5.33311e-15)
(-21.1771 76.9416 1.03891e-14)
(-22.2362 81.8275 5.5173e-15)
(-23.264 86.8612 -5.31831e-15)
(-24.0601 90.6334 1.10163e-14)
(-24.4167 93.4881 6.44734e-15)
(-24.4785 94.2051 8.94542e-15)
(-24.1653 94.021 1.03476e-15)
(-24.4618 93.4256 -1.47796e-14)
(-23.3702 89.5708 -3.17056e-16)
(-23.3116 85.9386 -2.08346e-14)
(-23.6748 83.353 -1.02746e-14)
(-12.0939 36.3744 0)
(-19.6113 40.4715 -9.96686e-16)
(-19.0093 43.7584 9.24673e-16)
(-19.5253 47.4805 -2.07231e-15)
(-20.001 52.1497 4.88783e-15)
(-20.3365 56.7241 -2.2911e-15)
(-21.1229 61.2528 0)
(-22.0598 65.718 0)
(-23.0887 70.1859 5.39361e-15)
(-24.1412 74.7474 0)
(-25.1536 79.5646 1.21154e-16)
(-26.0406 84.6974 -9.45199e-15)
(-26.7447 88.6769 4.9588e-15)
(-26.9618 91.6982 -6.18208e-15)
(-26.9186 92.8761 0)
(-26.6809 93.0147 9.68776e-15)
(-26.998 92.8028 0)
(-25.8356 89.5329 -1.07538e-14)
(-25.6657 86.3025 -1.90671e-14)
(-26.2076 84.0573 1.69831e-14)
(-13.6369 36.0073 3.83296e-17)
(-21.296 39.4015 -1.39307e-15)
(-21.0422 42.2317 0)
(-21.9517 45.502 -3.34154e-15)
(-22.6569 49.7937 -1.98912e-15)
(-23.0797 54.3535 -2.48054e-15)
(-24.0218 58.7956 0)
(-25.0608 63.278 0)
(-26.2204 67.7283 5.08652e-15)
(-27.3587 72.1446 0)
(-28.3566 76.7903 4.98656e-15)
(-29.1175 81.8992 -4.29335e-15)
(-29.7212 86.165 -4.51054e-15)
(-29.833 89.3084 7.05273e-16)
(-29.7163 91.0403 -2.09624e-14)
(-29.5409 91.5884 7.64296e-15)
(-29.8636 91.6824 -1.12708e-14)
(-28.7825 88.9943 0)
(-28.6159 86.3077 -8.41108e-15)
(-29.7806 84.5986 2.52234e-14)
(-15.2139 35.695 -2.17437e-16)
(-23.0622 38.4282 2.6888e-15)
(-23.214 40.8195 -8.50742e-16)
(-24.521 43.5629 3.2292e-15)
(-25.5703 47.343 4.62837e-15)
(-26.1104 51.8605 -6.76485e-15)
(-27.2138 56.0052 1.25417e-14)
(-28.3966 60.3822 -1.17853e-14)
(-29.7108 64.7918 -5.66975e-16)
(-30.9463 69.0565 -5.45434e-15)
(-31.9546 73.443 1.36515e-14)
(-32.5991 78.3581 -8.67106e-15)
(-33.0652 82.8383 4.86145e-15)
(-33.1129 86.2682 0)
(-32.9248 88.4039 0)
(-32.7496 89.4859 0)
(-33.0321 89.9606 1.18233e-14)
(-32.2357 87.9651 3.12298e-16)
(-32.5994 85.9428 -7.57822e-15)
(-34.5213 84.8988 -8.35595e-15)
(-16.8239 35.4495 8.61906e-18)
(-24.9358 37.5702 -2.83263e-15)
(-25.519 39.5957 -1.27516e-15)
(-27.1881 41.7373 1.22951e-15)
(-28.7185 44.774 2.23611e-15)
(-29.6929 49.0448 -2.74665e-15)
(-30.7592 53.1833 0)
(-32.1246 57.1771 0)
(-33.6459 61.3693 0)
(-35.0342 65.4334 0)
(-36.0896 69.4732 -1.06067e-14)
(-36.6495 74.0429 1.48417e-14)
(-36.9654 78.5884 -4.46322e-15)
(-36.9489 82.2929 0)
(-36.7409 84.8338 0)
(-36.6205 86.4593 0)
(-36.9674 87.3261 1.87274e-14)
(-36.7805 86.1893 2.53024e-16)
(-38.0966 85.036 9.86296e-16)
(-41.0475 84.6991 0)
(-18.4735 35.2905 0)
(-26.8647 36.8381 5.90041e-15)
(-27.8269 38.6261 -1.30092e-15)
(-29.9027 40.2943 6.912e-15)
(-31.967 42.4961 -7.24121e-15)
(-33.7405 45.6414 0)
(-34.7947 49.8599 0)
(-35.9464 54.2071 1.74312e-14)
(-37.8435 57.9901 0)
(-39.5786 61.501 0)
(-40.8213 64.913 -1.21974e-14)
(-41.3774 68.8707 1.66853e-14)
(-41.5769 73.2251 -4.97445e-15)
(-41.5423 77.0905 -2.30708e-14)
(-41.4253 79.9871 -1.71983e-15)
(-41.5225 82.084 -1.849e-15)
(-42.2484 83.3466 3.36973e-14)
(-43.2378 83.2827 1.63596e-14)
(-46.1112 83.2201 0)
(-50.2647 83.6774 -2.09273e-14)
(-20.2063 35.1276 0)
(-28.7545 36.1936 -3.09002e-15)
(-29.9581 37.9196 4.67022e-15)
(-32.3504 39.3789 -4.11357e-15)
(-34.9356 41.065 5.35992e-15)
(-37.5665 43.2178 0)
(-39.7588 46.1521 0)
(-41.1795 49.8856 3.10035e-16)
(-42.4501 53.8821 -9.24809e-15)
(-43.9272 57.7134 8.83945e-15)
(-45.4663 60.6662 1.76159e-14)
(-46.5249 63.574 -1.52226e-14)
(-46.9294 67.2975 -2.86013e-14)
(-47.0967 71.0161 2.63058e-14)
(-47.3666 74.043 1.4372e-14)
(-48.1614 76.406 -1.88908e-14)
(-50.0222 78.4102 -1.43825e-15)
(-53.0285 79.8726 -2.06901e-14)
(-57.3 81.0562 -2.59872e-14)
(-61.3738 81.7849 6.66791e-14)
(-22.0868 34.9239 0)
(-30.4809 35.5626 3.26261e-15)
(-31.7311 37.4193 -5.01743e-15)
(-34.2267 38.9698 4.76675e-15)
(-37.0573 40.5331 1.7106e-15)
(-40.115 42.2731 0)
(-43.1994 44.4042 0)
(-45.9054 47.271 -5.66613e-15)
(-48.0823 50.3978 -7.36219e-16)
(-49.6665 53.6702 8.01186e-15)
(-50.4807 56.8131 0)
(-50.5174 59.3063 0)
(-51.439 61.9517 2.19548e-14)
(-53.1121 65.2334 -1.1755e-15)
(-54.7808 68.3936 2.55207e-14)
(-57.1258 71.3047 -2.59449e-14)
(-60.1408 74.1836 0)
(-63.6129 76.1795 0)
(-66.0999 78.6171 0)
(-65.0966 78.6211 0)
(-24.186 34.4987 2.62982e-16)
(-31.8225 34.8186 -6.99696e-15)
(-33.0092 36.9871 7.4419e-15)
(-35.3656 38.8382 -9.22981e-15)
(-37.9088 40.6081 -5.21003e-15)
(-40.5154 42.371 1.5579e-14)
(-43.1356 44.2514 0)
(-45.6034 46.4369 -1.26831e-14)
(-47.7407 49.1147 -7.96728e-15)
(-49.5018 51.7999 8.38007e-15)
(-51.2872 54.5932 3.09938e-14)
(-53.3555 57.3592 -3.34994e-14)
(-55.4113 59.6551 5.1293e-14)
(-57.3127 61.4473 -2.7131e-14)
(-59.413 63.4965 3.67528e-14)
(-61.713 66.3201 -7.9463e-14)
(-63.9104 70.5079 4.35681e-14)
(-65.4506 74.7208 -4.09005e-14)
(-66.0518 77.4172 0)
(-65.1178 75.9054 0)
(-26.9192 33.6996 0)
(-32.3722 34.4554 1.69551e-15)
(-33.4371 36.8528 -3.64271e-15)
(-35.5593 39.0495 0)
(-37.8976 41.1285 0)
(-40.4296 43.2561 -9.48547e-15)
(-43.2393 45.5906 -6.22233e-15)
(-46.2696 48.2718 5.96516e-15)
(-49.3932 51.3501 0)
(-52.4109 54.7725 0)
(-55.2867 58.3249 -1.94144e-14)
(-57.6094 61.9299 0)
(-59.3848 65.465 -2.87045e-14)
(-60.818 68.7892 -3.73607e-14)
(-62.1867 71.6584 7.57971e-14)
(-63.4384 73.9824 3.97961e-14)
(-64.5383 75.8471 0)
(-64.9957 77.5203 4.219e-14)
(-65.3646 79.0971 4.40883e-14)
(-66.7938 79.4155 -4.92151e-14)
(-4.23573 85.07 -1.37478e-15)
(-3.76055 85.8021 -2.31119e-17)
(-3.39076 86.9954 1.20759e-15)
(-3.18882 88.4536 -1.18508e-15)
(-3.0347 90.1549 1.08147e-15)
(-2.86223 92.2061 -1.06803e-15)
(-2.7093 94.5193 9.727e-16)
(-2.60213 96.9428 9.58358e-16)
(-2.5255 99.4284 -8.66659e-16)
(-2.46516 102.015 -1.67653e-15)
(-2.4109 104.745 -3.21593e-15)
(-2.37984 107.653 1.47831e-15)
(-2.35575 110.717 0)
(-2.35628 113.978 0)
(-2.40101 117.397 -2.66986e-15)
(-2.26432 120.915 0)
(-2.92979 125.324 0)
(-0.813343 127.582 1.15987e-15)
(-8.26752 138.33 -1.1213e-15)
(12.5345 127.012 3.71804e-15)
(-7.01606 84.415 -2.82927e-15)
(-6.57655 85.2132 -1.39609e-15)
(-6.28244 86.547 -4.79484e-17)
(-6.18517 88.0977 -2.32387e-15)
(-6.13129 89.8239 -4.48924e-15)
(-6.05346 91.8962 4.10573e-15)
(-6.01732 94.2388 7.84605e-17)
(-6.0287 96.6818 -3.67768e-15)
(-6.07185 99.1783 -3.54952e-15)
(-6.13128 101.774 -1.75349e-15)
(-6.19919 104.513 4.69632e-15)
(-6.29568 107.429 2.9613e-15)
(-6.39579 110.502 8.62752e-15)
(-6.5381 113.767 0)
(-6.70434 117.192 8.00912e-15)
(-6.73161 120.715 -5.23608e-15)
(-7.52645 125.105 9.68791e-15)
(-5.5498 127.404 4.63813e-15)
(-13.3268 137.833 -4.48662e-15)
(7.76037 127.437 -1.547e-19)
(-9.66768 83.6929 -5.61235e-15)
(-9.26006 84.5579 5.0877e-15)
(-9.03974 86.0304 1.23616e-14)
(-9.05487 87.6644 -2.23529e-15)
(-9.11146 89.4099 0)
(-9.14893 91.5064 -8.00966e-17)
(-9.2435 93.8755 3.89518e-15)
(-9.38785 96.3339 0)
(-9.56067 98.8365 3.5512e-15)
(-9.74968 101.433 -6.86803e-15)
(-9.94828 104.172 6.22216e-15)
(-10.1797 107.088 -6.05966e-15)
(-10.4095 110.161 1.44005e-16)
(-10.6984 113.419 -5.42927e-15)
(-10.9872 116.848 -5.33827e-15)
(-11.1831 120.36 0)
(-12.1071 124.737 -4.90543e-15)
(-10.2765 127.066 0)
(-18.3988 137.153 -9.1842e-15)
(3.0592 127.715 0)
(-12.1004 82.9012 9.68807e-17)
(-11.7534 83.8388 -5.07539e-15)
(-11.6452 85.4682 -9.82704e-15)
(-11.8104 87.1891 0)
(-12.0068 88.9473 -9.01016e-15)
(-12.1837 91.0601 4.04531e-15)
(-12.4259 93.4444 3.99154e-15)
(-12.7131 95.9046 7.55804e-15)
(-13.0215 98.3985 -7.13194e-15)
(-13.3432 100.982 6.88257e-15)
(-13.6738 103.709 2.9219e-16)
(-14.0411 106.612 -5.92834e-15)
(-14.4018 109.678 0)
(-14.8374 112.917 1.11459e-14)
(-15.2478 116.349 -1.09625e-14)
(-15.6128 119.833 -2.6772e-16)
(-16.6621 124.203 -1.00926e-14)
(-14.9791 126.552 9.0094e-15)
(-23.4112 136.246 9.77767e-15)
(-1.59036 127.864 3.15238e-16)
(-14.277 82.1083 2.20295e-14)
(-14.037 83.1242 -1.55416e-14)
(-14.0942 84.9217 4.75085e-15)
(-14.4543 86.7181 0)
(-14.8195 88.4672 0)
(-15.1583 90.5794 -8.62531e-15)
(-15.5648 92.9632 1.59001e-14)
(-16.0046 95.4115 -1.53325e-14)
(-16.4547 97.884 6.68644e-15)
(-16.9125 100.444 1.32042e-14)
(-17.377 103.148 1.30798e-14)
(-17.8796 106.027 -1.21597e-14)
(-18.3712 109.08 1.13498e-14)
(-18.9519 112.288 1.2735e-17)
(-19.4852 115.72 1.09769e-14)
(-20.0195 119.153 2.5726e-16)
(-21.1938 123.52 -1.0102e-14)
(-19.664 125.867 1.78696e-14)
(-28.3534 135.12 -1.83464e-14)
(-6.33128 127.89 -1.51016e-14)
(-16.181 81.4176 5.67467e-15)
(-16.1167 82.5016 -4.83167e-15)
(-16.4138 84.4579 1.91451e-16)
(-17.0141 86.302 0)
(-17.57 88.0145 0)
(-18.0878 90.1032 -1.73888e-14)
(-18.6714 92.4625 1.58508e-14)
(-19.2721 94.8763 3.08666e-14)
(-19.8678 97.3074 -2.12552e-14)
(-20.462 99.8257 -1.38619e-14)
(-21.0592 102.493 2.5654e-14)
(-21.6955 105.335 -4.8774e-14)
(-22.32 108.364 1.10975e-14)
(-23.0435 111.523 1.09085e-14)
(-23.7033 114.954 1.09935e-14)
(-24.4028 118.314 -9.96953e-15)
(-25.7021 122.689 0)
(-24.3321 125.01 1.85254e-14)
(-33.187 133.794 1.94785e-14)
(-11.213 127.771 1.57448e-14)
(-17.8368 80.9429 -1.1087e-14)
(-18.0362 82.0724 0)
(-18.6527 84.1513 2.07492e-14)
(-19.5289 85.9903 -1.88501e-14)
(-20.2907 87.6211 0)
(-21.0025 89.646 0)
(-21.771 91.9409 -8.15648e-15)
(-22.5334 94.2867 -3.07539e-14)
(-23.2719 96.6509 1.44669e-14)
(-23.9992 99.1077 0)
(-24.7267 101.723 0)
(-25.4928 104.511 1.22167e-14)
(-26.2492 107.508 -1.16694e-14)
(-27.1081 110.607 -1.11792e-14)
(-27.8966 114.038 -2.20233e-14)
(-28.7515 117.31 1.99503e-14)
(-30.1821 121.707 5.35488e-16)
(-28.9749 123.977 5.1034e-16)
(-37.9759 132.312 -1.82755e-14)
(-16.1399 127.455 -1.51608e-14)
(-19.3303 80.8081 -1.0868e-14)
(-19.892 81.939 -2.12741e-14)
(-20.9089 84.0518 -7.8747e-16)
(-22.0831 85.7936 2.8047e-14)
(-23.0533 87.2828 0)
(-23.96 89.1987 1.70752e-14)
(-24.9045 91.3905 -1.65735e-14)
(-25.8162 93.6387 1.46866e-14)
(-26.6854 95.9139 1.41535e-14)
(-27.5364 98.2931 -1.39398e-14)
(-28.3872 100.844 1.25955e-14)
(-29.2745 103.571 0)
(-30.1583 106.528 -2.39645e-14)
(-31.1412 109.556 4.48047e-14)
(-32.0637 112.988 -4.25098e-14)
(-33.0585 116.148 0)
(-34.6284 120.578 -1.76749e-17)
(-33.5741 122.77 -1.80996e-14)
(-42.7265 130.676 3.7312e-14)
(-20.9056 126.987 -4.51198e-14)
(-20.8297 81.0489 -4.01903e-16)
(-21.8363 82.1494 2.9835e-14)
(-23.3061 84.1894 -1.8998e-14)
(-24.7673 85.7181 -9.28525e-15)
(-25.9171 86.9987 1.76309e-14)
(-26.9983 88.7643 -3.41783e-14)
(-28.0975 90.8176 1.57939e-14)
(-29.1384 92.9404 0)
(-30.1207 95.1062 3.22927e-16)
(-31.0807 97.3926 -1.33087e-14)
(-32.0437 99.8665 -2.63626e-14)
(-33.0425 102.522 2.39106e-14)
(-34.0513 105.43 -2.39723e-14)
(-35.1449 108.376 2.23955e-14)
(-36.21 111.803 2.26138e-14)
(-37.3232 114.828 -1.99555e-14)
(-39.0455 119.301 5.98426e-14)
(-38.1218 121.391 -1.75875e-14)
(-47.3861 128.867 -3.63487e-14)
(-25.7761 126.323 -2.38782e-17)
(-22.5746 81.6581 -9.68838e-15)
(-24.0838 82.7188 3.8371e-14)
(-26.0136 84.5578 7.88259e-16)
(-27.6898 85.7281 -3.64351e-14)
(-28.9477 86.7308 -1.81982e-14)
(-30.1602 88.3074 3.3192e-14)
(-31.3764 90.1864 0)
(-32.5158 92.1556 1.55814e-14)
(-33.5861 94.1918 -2.84958e-14)
(-34.6362 96.3707 0)
(-35.6973 98.7579 -2.57665e-14)
(-36.7943 101.333 2.44928e-14)
(-37.9238 104.187 0)
(-39.1135 107.045 4.48066e-14)
(-40.3323 110.464 -2.15798e-14)
(-41.5373 113.342 0)
(-43.4358 117.872 -5.99609e-14)
(-42.6152 119.836 5.45293e-14)
(-51.959 126.942 3.68458e-14)
(-30.9658 125.307 5.98462e-14)
(-24.8488 82.5175 1.78412e-14)
(-26.8899 83.5645 9.55821e-15)
(-29.208 85.0477 -1.8173e-14)
(-30.9411 85.7099 -1.84167e-14)
(-32.1973 86.3928 3.46418e-14)
(-33.4793 87.7614 -3.31087e-14)
(-34.7615 89.4448 1.60077e-14)
(-35.9634 91.249 -3.11517e-14)
(-37.0927 93.1514 4.25818e-14)
(-38.2088 95.2208 2.78504e-14)
(-39.3493 97.5181 -2.51926e-14)
(-40.528 100.009 5.92168e-16)
(-41.7712 102.802 -2.28762e-14)
(-43.0403 105.569 -6.77959e-14)
(-44.4254 108.973 4.31917e-14)
(-45.6892 111.697 1.03932e-15)
(-47.7967 116.295 4.02127e-14)
(-47.0411 118.118 0)
(-56.541 124.935 -3.59878e-14)
(-35.9735 124.045 2.9858e-14)
(-27.8811 83.4946 0)
(-30.4907 84.5329 0)
(-33.0073 85.4583 -1.89821e-14)
(-34.548 85.5069 -8.36086e-16)
(-35.6802 85.8917 5.18682e-14)
(-36.9645 87.0664 -1.63608e-14)
(-38.2463 88.5538 1.67501e-14)
(-39.4657 90.1959 -2.9824e-14)
(-40.6255 91.9687 0)
(-41.7898 93.931 2.72625e-14)
(-42.9972 96.1393 2.58123e-14)
(-44.2449 98.5467 0)
(-45.5951 101.275 -2.40431e-14)
(-46.9259 103.951 4.43042e-14)
(-48.488 107.329 4.38175e-14)
(-49.7683 109.907 -1.8922e-14)
(-52.1234 114.549 -7.85471e-14)
(-51.3877 116.238 0)
(-61.0566 122.785 0)
(-40.7227 122.653 3.19633e-18)
(-31.9946 84.4208 -1.68386e-14)
(-35.1239 85.3332 0)
(-37.4174 85.4558 6.04485e-16)
(-38.4548 84.9041 1.89026e-14)
(-39.3675 85.0969 -3.44361e-14)
(-40.5991 86.1247 0)
(-41.8207 87.4417 1.60859e-14)
(-43.0158 88.9429 0)
(-44.1735 90.6023 0)
(-45.3635 92.4687 -2.73337e-14)
(-46.6229 94.5964 0)
(-47.9276 96.9269 2.51622e-14)
(-49.3807 99.5899 -7.0549e-14)
(-50.7584 102.185 4.49102e-14)
(-52.5091 105.524 -2.11386e-14)
(-53.764 107.975 8.18518e-14)
(-56.4119 112.642 0)
(-55.6475 114.18 -3.6118e-14)
(-65.4945 120.491 0)
(-45.4444 121.054 5.99227e-14)
(-37.5563 85.0641 0)
(-40.8997 85.5549 7.47006e-16)
(-42.2385 84.6707 1.35974e-15)
(-42.5329 83.7438 -5.52487e-14)
(-43.1942 83.9294 1.71691e-14)
(-44.3261 84.8806 -1.69504e-14)
(-45.4363 86.0797 -1.62579e-14)
(-46.5826 87.4797 3.15381e-14)
(-47.7188 89.0524 -2.83975e-14)
(-48.9186 90.8383 -5.55109e-14)
(-50.2177 92.8935 2.53324e-14)
(-51.5689 95.1523 2.46349e-14)
(-53.1194 97.7476 2.35553e-14)
(-54.5304 100.271 2.24859e-14)
(-56.4794 103.55 0)
(-57.6701 105.905 1.05254e-15)
(-60.6651 110.563 -7.89756e-14)
(-59.8079 111.943 -8.16357e-16)
(-69.8554 118.076 3.52777e-14)
(-50.1403 119.223 -6.00038e-14)
(-44.9488 85.0777 1.98184e-14)
(-47.389 84.6366 2.18261e-14)
(-46.8945 82.837 2.0471e-14)
(-46.5704 81.9881 -1.99418e-14)
(-47.0408 82.3576 1.70438e-14)
(-48.0557 83.2969 3.54146e-14)
(-49.0276 84.4411 -1.56003e-14)
(-50.1193 85.7824 -6.28843e-14)
(-51.2286 87.2985 -1.41068e-15)
(-52.4329 89.024 -1.31141e-15)
(-53.7662 91.0191 2.54173e-14)
(-55.1572 93.2154 -4.93918e-14)
(-56.801 95.7427 0)
(-58.2347 98.2076 2.36262e-14)
(-60.3873 101.403 -8.70291e-14)
(-61.4825 103.704 3.98805e-14)
(-64.8849 108.305 4.00825e-14)
(-63.8527 109.545 0)
(-74.1512 115.552 -3.61767e-14)
(-54.8003 117.148 0)
(-53.6334 83.8873 7.21438e-16)
(-53.1967 81.9444 8.34462e-16)
(-50.7589 80.0167 2.12318e-14)
(-50.4143 79.7227 -5.94312e-14)
(-50.7638 80.3887 5.41835e-14)
(-51.6853 81.3665 1.75915e-14)
(-52.5297 82.5241 -1.66634e-14)
(-53.5796 83.8465 3.06841e-14)
(-54.665 85.3364 2.88496e-14)
(-55.8757 87.0213 3.9038e-18)
(-57.2435 88.9685 0)
(-58.6733 91.1132 -5.97434e-16)
(-60.4097 93.5728 2.30907e-14)
(-61.8623 95.996 4.61973e-14)
(-64.2179 99.0764 2.18813e-15)
(-65.1959 101.378 -8.08186e-14)
(-69.0645 105.854 4.12701e-14)
(-67.7552 107.011 -7.08617e-14)
(-78.4002 112.896 3.62322e-14)
(-59.4156 114.816 0)
(-60.4829 80.3709 0)
(-56.7312 77.4239 -2.77527e-14)
(-53.7312 76.721 -2.20654e-14)
(-53.9865 77.1125 0)
(-54.2194 78.0969 5.75823e-14)
(-55.1223 79.143 -5.27104e-14)
(-55.889 80.3688 -6.84229e-14)
(-56.9308 81.6969 -8.32244e-16)
(-58.0072 83.1826 0)
(-59.2321 84.841 -5.64276e-19)
(-60.6375 86.7493 2.63009e-14)
(-62.1059 88.8518 0)
(-63.9341 91.242 4.86004e-14)
(-65.4086 93.6398 -9.03121e-14)
(-67.9609 96.5719 4.25304e-14)
(-68.8124 98.9334 -4.76318e-18)
(-73.1905 103.192 -4.02557e-14)
(-71.4827 104.354 3.58374e-14)
(-82.6316 110.097 -3.78032e-14)
(-63.9593 112.201 5.87344e-14)
(-61.7123 75.7911 0)
(-58.5165 73.1238 0)
(-56.2179 73.7496 -4.59845e-14)
(-57.1742 74.4266 8.23572e-14)
(-57.3471 75.6762 -7.61339e-14)
(-58.3264 76.7499 1.82608e-14)
(-59.0739 78.0459 6.86118e-14)
(-60.1433 79.372 3.30095e-14)
(-61.2341 80.8584 -2.94044e-14)
(-62.4864 82.4972 2.82188e-14)
(-63.9369 84.3713 -5.35666e-14)
(-65.4472 86.4412 2.43315e-14)
(-67.3665 88.7595 4.87084e-14)
(-68.871 91.1481 4.74414e-14)
(-71.6115 93.8987 -4.25432e-14)
(-72.352 96.3841 3.99437e-14)
(-77.2747 100.298 8.06746e-14)
(-75.0149 101.623 -3.48063e-14)
(-86.8885 107.211 0)
(-68.3726 109.228 0)
(-62.1822 73.7202 0)
(-60.2575 70.2431 2.5957e-14)
(-58.5263 71.6164 -2.16251e-14)
(-59.9623 71.9136 -4.33028e-14)
(-60.1965 73.3089 1.74893e-14)
(-61.2852 74.2857 3.60496e-14)
(-62.0644 75.6271 6.20274e-18)
(-63.1806 76.9229 0)
(-64.3142 78.3967 0)
(-65.6089 80.0032 5.71454e-14)
(-67.1191 81.8402 1.27369e-15)
(-68.682 83.8856 -4.9202e-14)
(-70.6979 86.1284 0)
(-72.2463 88.5289 -9.03386e-14)
(-75.1607 91.0688 4.4648e-14)
(-75.8432 93.7572 -1.21834e-13)
(-81.3874 97.0737 4.02192e-14)
(-78.373 98.9677 3.66352e-14)
(-91.3307 104.145 -7.36773e-14)
(-72.5606 105.696 5.823e-14)
(-61.6876 75.4325 -8.13285e-16)
(-61.7957 68.0442 -2.37105e-14)
(-60.227 69.952 -2.16214e-14)
(-62.2485 69.537 2.0687e-14)
(-62.4488 71.0624 3.91874e-14)
(-63.7411 71.9534 -3.47424e-14)
(-64.6836 73.3561 -3.33517e-14)
(-65.9336 74.5885 3.19452e-14)
(-67.1778 75.9945 -2.83522e-14)
(-68.5719 77.5182 -2.78651e-14)
(-70.1747 79.272 5.11405e-14)
(-71.8131 81.2739 5.82412e-16)
(-73.9312 83.4071 -4.7224e-14)
(-75.5527 85.8462 4.2938e-14)
(-78.5947 88.1185 0)
(-79.3266 91.1309 4.01271e-14)
(-85.2318 93.6022 1.15579e-15)
(-81.6629 96.6072 -3.40738e-14)
(-96.1352 100.632 0)
(-76.5648 101.377 -5.68814e-14)
(-59.8483 76.0673 2.38194e-14)
(-63.2533 68.5437 -4.5238e-17)
(-60.6831 70.1551 1.82081e-14)
(-62.7675 69.5925 -3.448e-14)
(-62.9162 70.8197 -5.15444e-16)
(-64.3553 71.5309 1.56295e-14)
(-65.4253 72.6926 4.55811e-16)
(-66.8981 73.7471 2.11441e-17)
(-68.333 74.9614 -2.51234e-14)
(-69.8974 76.3348 -2.3432e-14)
(-71.625 77.9383 6.7528e-16)
(-73.3716 79.8596 -2.07427e-14)
(-75.5498 81.8522 0)
(-77.2791 84.3282 7.53005e-14)
(-80.3378 86.3613 0)
(-81.2769 89.671 -3.48052e-14)
(-87.0361 91.4154 3.35558e-14)
(-83.7319 95.6519 3.0224e-14)
(-98.2465 97.7179 -4.70593e-16)
(-79.1241 100.052 3.4011e-16)
(-59.9607 75.5775 0)
(-63.6781 68.4376 1.59851e-14)
(-60.9221 69.9155 0)
(-63.0473 69.4265 1.40189e-14)
(-63.1462 70.6228 0)
(-64.6052 71.3625 -2.51858e-14)
(-65.6845 72.5151 3.8093e-16)
(-67.1742 73.5671 -3.396e-16)
(-68.6172 74.7601 2.07944e-14)
(-70.1923 76.1135 1.9362e-14)
(-71.9292 77.6901 -1.84332e-14)
(-73.6934 79.5964 3.46562e-14)
(-75.8781 81.5571 0)
(-77.6419 84.0408 -3.20747e-14)
(-80.686 86.0164 5.00295e-16)
(-81.7007 89.3907 2.55463e-17)
(-87.4239 90.9651 -4.3845e-16)
(-84.2106 95.437 -2.62177e-14)
(-98.6328 97.0462 -2.32751e-14)
(-79.646 99.7429 -1.87253e-14)
(-60.2173 74.8293 2.81071e-16)
(-64.0881 68.3292 -2.40793e-16)
(-61.1289 69.6716 0)
(-63.2638 69.286 1.45222e-14)
(-63.3191 70.4485 1.28117e-14)
(-64.8033 71.2156 2.48449e-14)
(-65.8991 72.3491 7.44402e-16)
(-67.4122 73.3955 1.77818e-17)
(-68.8693 74.5651 -3.17229e-16)
(-70.461 75.8969 -3.87803e-14)
(-72.2102 77.4436 8.56746e-18)
(-73.9957 79.3319 -3.46848e-14)
(-76.1879 81.2586 2.51947e-16)
(-77.9911 83.7456 -5.13166e-16)
(-81.0173 85.664 -3.06844e-14)
(-82.1222 89.0997 3.00274e-14)
(-87.7543 90.514 4.6298e-16)
(-84.7029 95.2206 -3.91414e-16)
(-98.9669 96.3643 2.35734e-14)
(-80.1881 99.4807 3.75578e-14)
(-60.5121 74.0553 0)
(-64.4369 68.2335 0)
(-61.3083 69.46 1.45714e-14)
(-63.4353 69.1832 -1.40949e-14)
(-63.4699 70.3031 -1.28022e-14)
(-64.9817 71.0902 -3.88118e-16)
(-66.1018 72.1977 -2.34826e-14)
(-67.6391 73.2355 -7.0026e-16)
(-69.1118 74.3804 3.17825e-16)
(-70.7211 75.6895 1.94216e-14)
(-72.4841 77.2052 3.63474e-14)
(-74.2926 79.073 7.11296e-18)
(-76.493 80.9652 1.65182e-14)
(-78.3382 83.452 0)
(-81.3445 85.3165 3.06608e-14)
(-82.5443 88.804 4.56869e-16)
(-88.0754 90.0735 2.8644e-14)
(-85.1951 95.0094 2.59724e-14)
(-99.2934 95.7014 3.84289e-16)
(-80.7054 99.2215 -1.88215e-14)
(-60.8034 73.2998 1.65571e-14)
(-64.7243 68.1285 -1.74072e-17)
(-61.4709 69.2573 2.21927e-16)
(-63.582 69.0909 -4.52379e-16)
(-63.615 70.1645 -1.28331e-14)
(-65.157 70.968 -1.26724e-14)
(-66.3067 72.0472 2.35308e-14)
(-67.8666 73.0759 3.41898e-16)
(-69.3542 74.1975 2.0899e-14)
(-70.9799 75.4847 0)
(-72.7562 76.9699 -1.81923e-14)
(-74.5881 78.816 3.44506e-14)
(-76.7959 80.6745 -1.65277e-14)
(-78.6845 83.1575 0)
(-81.6684 84.9725 -4.99942e-16)
(-82.9674 88.5031 -2.96384e-14)
(-88.3865 89.6437 -2.86229e-14)
(-85.6893 94.7933 -2.56115e-14)
(-99.6149 95.0527 -3.59493e-16)
(-81.1971 98.966 2.95981e-16)
(-61.0739 72.5732 -3.33692e-14)
(-64.956 68.0169 1.61756e-14)
(-61.6219 69.0618 -1.47735e-17)
(-63.7118 69.0047 2.13951e-16)
(-63.7604 70.03 2.64957e-14)
(-65.3348 70.8462 1.22796e-14)
(-66.5182 71.895 -2.31841e-14)
(-68.0983 72.9143 -3.42383e-16)
(-69.5992 74.0145 -2.09397e-14)
(-71.2396 75.2812 -3.11433e-16)
(-73.0282 76.737 2.77574e-16)
(-74.8836 78.5604 -1.7239e-14)
(-77.0979 80.3862 -1.62599e-14)
(-79.0311 82.8623 -2.44591e-16)
(-81.9899 84.6323 3.11352e-14)
(-83.3915 88.1978 3.01349e-14)
(-88.6886 89.2211 2.90296e-14)
(-86.189 94.5693 -3.9381e-16)
(-99.9308 94.4161 -2.36391e-14)
(-81.6646 98.7188 2.82464e-16)
(-61.3165 71.8736 1.62663e-14)
(-65.1367 67.8991 -1.62279e-14)
(-61.7618 68.8724 -2.90472e-14)
(-63.8301 68.922 0)
(-63.9097 69.8972 -4.2912e-18)
(-65.519 70.7215 -4.12322e-16)
(-66.739 71.7382 2.43418e-14)
(-68.3364 72.7479 3.60789e-16)
(-69.8487 73.8293 -3.19165e-16)
(-71.5017 75.0773 0)
(-73.3013 76.505 0)
(-75.18 78.3051 1.7243e-14)
(-77.3998 80.0997 1.65353e-14)
(-79.3782 82.5657 3.21345e-14)
(-82.3094 84.2952 -6.27785e-14)
(-83.8163 87.8874 4.58351e-16)
(-88.983 88.8044 -2.85481e-14)
(-86.6953 94.3378 0)
(-100.241 93.7867 2.78243e-17)
(-82.1082 98.483 -1.91731e-14)
(-61.5285 71.1958 1.60846e-14)
(-65.2714 67.7758 1.67454e-14)
(-61.8932 68.6878 1.45036e-14)
(-63.9388 68.8408 1.41702e-14)
(-64.0672 69.7633 -2.69547e-14)
(-65.7137 70.5909 -1.19306e-14)
(-66.9723 71.5738 1.91969e-17)
(-68.5834 72.5738 -2.28962e-14)
(-70.1044 73.6394 0)
(-71.7676 74.871 1.94939e-14)
(-73.5768 76.2725 -2.91529e-16)
(-75.4782 78.0492 -1.67184e-14)
(-77.7023 79.8141 -2.52213e-16)
(-79.7262 82.267 -8.96423e-18)
(-82.6276 83.961 3.11454e-14)
(-84.2415 87.5713 0)
(-89.2706 88.3932 0)
(-87.2085 94.0988 -2.62503e-14)
(-100.545 93.1633 2.69019e-17)
(-82.5278 98.262 -4.93313e-17)
(-61.7078 70.5338 -3.23997e-14)
(-65.3648 67.6432 -1.65007e-14)
(-62.0191 68.5063 -1.44666e-14)
(-64.0446 68.7583 -1.41766e-14)
(-64.2376 69.6252 2.65434e-14)
(-65.9235 70.4508 0)
(-67.2211 71.3986 0)
(-68.8416 72.3891 2.12705e-18)
(-70.3682 73.4421 0)
(-72.039 74.6603 -1.95015e-14)
(-73.8559 76.038 -1.79247e-14)
(-75.7793 77.7914 -1.75166e-14)
(-78.0062 79.5287 -1.68002e-14)
(-80.0758 81.9657 -6.41085e-14)
(-82.9448 83.6292 0)
(-84.6677 87.2492 0)
(-89.5512 87.9874 0)
(-87.7291 93.8521 2.63086e-14)
(-100.841 92.544 4.6096e-14)
(-82.9223 98.0594 1.94016e-14)
(-61.8527 69.8825 1.60417e-14)
(-65.4206 67.5047 0)
(-62.1435 68.3253 1.44448e-14)
(-64.1541 68.6709 4.53546e-16)
(-64.4265 69.4791 -1.36849e-14)
(-66.1528 70.2975 0)
(-67.4882 71.2095 0)
(-69.1132 72.1908 2.26057e-14)
(-70.6415 73.2349 3.36068e-16)
(-72.3172 74.443 -6.09046e-16)
(-74.14 75.7998 1.84931e-14)
(-76.084 77.5304 1.7256e-14)
(-78.3126 79.2424 1.65387e-14)
(-80.4271 81.661 3.16813e-14)
(-83.2618 83.2993 -2.52516e-17)
(-85.0953 86.9222 4.59855e-16)
(-89.8254 87.5872 0)
(-88.2575 93.5974 0)
(-101.127 91.9274 -2.29995e-14)
(-83.2902 97.8807 0)
(-61.9594 69.2381 1.57991e-14)
(-65.4426 67.361 0)