/*--------------------------------*- C++ -*----------------------------------*\
  =========                 |
  \\      /  F ield         | OpenFOAM: The Open Source CFD Toolbox
   \\    /   O peration     | Website:  https://openfoam.org
    \\  /    A nd           | Version:  10
     \\/     M anipulation  |
\*---------------------------------------------------------------------------*/
FoamFile
{
    format      ascii;
    class       volVectorField;
    location    "700";
    object      U;
}
// * * * * * * * * * * * * * * * * * * * * * * * * * * * * * * * * * * * * * //

dimensions      [0 1 -1 0 0 0 0];

internalField   nonuniform List<vector> 
420
(
(0.809828 8.50402 7.34352e-18)
(0.0781599 10.4384 -4.95041e-17)
(0.192436 12.3203 -2.2811e-16)
(0.317271 13.7184 6.22602e-17)
(0.411036 14.7634 -4.24103e-16)
(0.468157 15.5169 0)
(0.445622 16.0319 0)
(0.281987 16.4434 3.55199e-16)
(0.116874 16.7863 -3.85203e-16)
(-0.0475943 16.996 0)
(0.119115 8.60922 2.33992e-17)
(-0.802572 10.3546 -1.18373e-16)
(-0.77299 12.1658 7.02937e-16)
(-0.753996 13.543 -9.9412e-16)
(-0.766963 14.6058 3.16383e-16)
(-0.818673 15.405 7.96054e-18)
(-0.947913 15.997 2.51418e-15)
(-1.22055 16.4716 -5.44583e-16)
(-1.47742 16.8827 8.16784e-16)
(-1.71121 17.1265 0)
(-0.647549 8.43595 3.37422e-17)
(-1.71788 10.1289 -5.93135e-16)
(-1.76468 11.8979 7.06785e-16)
(-1.8342 13.2673 1.14415e-15)
(-1.94756 14.3553 -7.69036e-16)
(-2.11096 15.2136 3.56127e-15)
(-2.36684 15.906 1.46378e-15)
(-2.76181 16.4764 3.22903e-15)
(-3.1297 16.9433 -1.35414e-15)
(-3.40322 17.1559 -3.1163e-15)
(-1.36345 8.23187 1.0338e-17)
(-2.60342 9.84322 5.50174e-16)
(-2.76153 11.5471 -9.23584e-16)
(-2.94025 12.9159 7.9316e-16)
(-3.16744 14.0448 -1.57613e-15)
(-3.45782 14.9806 1.55845e-15)
(-3.8516 15.7743 -8.87028e-15)
(-4.36355 16.4344 0)
(-4.81466 16.9217 -3.23113e-15)
(-5.08198 17.0415 3.15811e-15)
(-2.04012 8.04975 0)
(-3.46308 9.53192 4.19593e-16)
(-3.74561 11.1331 -3.89598e-16)
(-4.05277 12.4854 0)
(-4.40447 13.6558 -2.33976e-16)
(-4.82732 14.6739 -3.04853e-16)
(-5.34812 15.5681 3.20292e-15)
(-5.9547 16.3119 -3.37465e-15)
(-6.44313 16.7958 0)
(-6.65423 16.7744 -1.43437e-14)
(-2.69804 7.87766 6.40706e-18)
(-4.29927 9.20387 0)
(-4.69589 10.6775 0)
(-5.13388 11.9931 1.5428e-15)
(-5.60522 13.1945 -2.32656e-15)
(-6.14721 14.2899 2.69508e-15)
(-6.76346 15.2813 6.23057e-16)
(-7.42283 16.1002 8.4683e-15)
(-7.90203 16.5632 -1.12041e-14)
(-8.05176 16.3846 7.11026e-15)
(-3.35809 7.71461 0)
(-5.09996 8.85605 -4.62865e-16)
(-5.59533 10.1921 -2.60291e-15)
(-6.14008 11.4526 -9.64026e-16)
(-6.70831 12.6669 -4.47335e-15)
(-7.33313 13.8249 2.85548e-15)
(-8.00217 14.9105 -7.31106e-15)
(-8.67608 15.8097 6.54905e-16)
(-9.16001 16.2784 -3.57722e-15)
(-9.32078 15.9787 -1.0713e-14)
(-4.03118 7.54336 -2.37124e-17)
(-5.84977 8.48151 4.72241e-16)
(-6.41986 9.69341 3.32634e-15)
(-7.04051 10.8881 5.45449e-16)
(-7.66838 12.0832 2.67962e-15)
(-8.32939 13.2766 0)
(-9.01374 14.4478 7.52309e-15)
(-9.66824 15.4733 8.91285e-15)
(-10.2003 16.0578 9.64028e-15)
(-10.4736 15.6902 7.87765e-15)
(-4.72438 7.32739 -2.61664e-17)
(-6.47191 8.05956 4.84416e-16)
(-7.07233 9.13951 -5.11307e-16)
(-7.73744 10.2294 -2.10219e-15)
(-8.39898 11.3334 7.23538e-15)
(-9.04131 12.4571 1.00704e-14)
(-9.66899 13.6165 -3.55422e-15)
(-10.2466 14.7609 0)
(-10.7904 15.6906 0)
(-11.4313 15.5546 -8.44465e-15)
(-5.53183 7.01812 -7.0133e-17)
(-7.0074 7.70683 6.91006e-16)
(-7.66684 8.72668 0)
(-8.45072 9.76164 0)
(-9.25183 10.7987 -3.52418e-15)
(-10.0435 11.8532 -7.33447e-18)
(-10.8047 12.9299 6.50654e-15)
(-11.501 14.0128 -1.42387e-14)
(-12.1197 14.9792 1.67873e-14)
(-12.6641 15.1427 1.22305e-15)
(-0.179144 16.9407 0)
(-0.290368 16.5141 0)
(-0.373709 15.6244 0)
(-0.379932 14.4878 -7.37689e-16)
(-0.302269 13.5306 0)
(-0.286752 12.886 0)
(-1.28884 11.9394 7.56358e-16)
(1.91022 10.8513 0)
(-2.03782 17.5355 0)
(-0.0497844 -1.19347 0)
(-1.84265 17.0403 1.32554e-15)
(-1.87279 16.5223 2.37482e-15)
(-1.80605 15.5521 1.31445e-16)
(-1.66276 14.4097 8.24372e-16)
(-1.48676 13.4683 4.81499e-17)
(-1.41699 12.8201 9.96538e-16)
(-2.11255 11.8193 8.27051e-17)
(0.636699 10.845 7.79646e-17)
(-3.47675 16.971 -2.84772e-15)
(-0.140169 -0.935344 -4.53066e-16)
(-3.48776 16.9591 1.23751e-15)
(-3.40806 16.3105 0)
(-3.18743 15.2816 -1.9298e-15)
(-2.92899 14.1838 -1.61022e-15)
(-2.68553 13.2887 4.78362e-15)
(-2.58411 12.6494 -9.86999e-16)
(-3.05669 11.6674 1.59107e-15)
(-0.526494 11.0967 0)
(-5.1342 16.3431 3.2282e-15)
(0.145979 -0.942676 -1.3099e-17)
(-5.07102 16.6855 2.94275e-15)
(-4.85292 15.9067 7.41619e-15)
(-4.48236 14.8728 -7.52484e-15)
(-4.13917 13.8549 2.90313e-15)
(-3.83636 13.0158 1.19356e-17)
(-3.68844 12.3945 0)
(-3.97169 11.4557 -1.60736e-15)
(-1.5474 11.2316 -3.16403e-15)
(-6.43306 15.4304 -3.21745e-15)
(0.337413 -1.028 2.16807e-15)
(-6.52395 16.2361 2.771e-15)
(-6.16664 15.3515 -2.45767e-15)
(-5.67749 14.3633 7.77485e-15)
(-5.2887 13.4382 -3.01752e-15)
(-4.94065 12.6524 2.55496e-15)
(-4.75301 12.0469 -4.0218e-15)
(-4.84462 11.1711 3.61689e-15)
(-2.59741 11.2725 3.46302e-15)
(-7.76646 14.4183 0)
(0.678094 -1.13753 -4.39395e-15)
(-7.8251 15.6719 3.28603e-15)
(-7.32635 14.7095 -1.41512e-14)
(-6.76607 13.8003 -4.0608e-15)
(-6.36737 12.9601 9.29502e-15)
(-5.98779 12.2185 7.99294e-15)
(-5.76608 11.6252 2.99691e-16)
(-5.67466 10.8087 1.9404e-16)
(-3.67617 11.2501 -3.19815e-15)
(-8.93759 13.2735 -2.43619e-15)
(1.11542 -1.26293 4.79528e-15)
(-8.9918 15.0502 3.16081e-15)
(-8.34702 14.0249 4.78987e-15)
(-7.75354 13.2166 0)
(-7.36745 12.4438 -3.02609e-15)
(-6.96401 11.7382 -4.90199e-15)
(-6.70796 11.1489 3.50146e-16)
(-6.45958 10.4236 -1.08274e-14)
(-4.71214 11.1444 -3.45758e-15)
(-9.91065 12.0073 5.76922e-15)
(1.60878 -1.35662 -2.59384e-15)
(-10.0161 14.4074 1.17078e-14)
(-9.25288 13.3423 -4.2312e-15)
(-8.6582 12.6335 0)
(-8.29737 11.9064 -2.09607e-16)
(-7.88319 11.2226 2.04263e-14)
(-7.60427 10.6289 -8.60572e-15)
(-7.23545 10.01 -8.1805e-15)
(-5.73166 10.9164 6.80939e-15)
(-10.6958 10.6882 -6.644e-15)
(2.12614 -1.38194 0)
(-10.7998 13.853 2.64779e-16)
(-10.085 12.7343 -4.18487e-15)
(-9.49265 12.1214 0)
(-9.13839 11.4085 6.354e-15)
(-8.72078 10.7318 -1.51494e-14)
(-8.42853 10.1273 8.82627e-15)
(-7.96385 9.61878 3.79383e-15)
(-6.60607 10.6374 0)
(-11.3434 9.36026 -1.26081e-16)
(2.61567 -1.3043 2.23407e-15)
(-11.0409 13.6794 3.57692e-16)
(-10.9048 12.2729 2.28352e-17)
(-10.2594 11.6888 0)
(-9.83717 10.9629 -1.244e-14)
(-9.38412 10.2916 4.65714e-15)
(-9.07796 9.68484 -4.93444e-15)
(-8.58588 9.24008 4.2888e-15)
(-7.22104 10.3839 1.76036e-16)
(-11.7843 7.65935 -4.93356e-16)
(3.013 -0.955814 -2.15898e-15)
(-11.0264 13.7121 2.89443e-15)
(-11.5588 11.8852 -4.86992e-15)
(-10.8904 11.27 0)
(-10.3157 10.5787 0)
(-9.74683 9.97706 0)
(-9.32307 9.47203 -2.46332e-15)
(-8.84267 9.19486 1.01449e-14)
(-8.15774 10.5864 0)
(-12.9092 5.7967 0)
(3.53727 -1.04739 0)
(-11.743 13.0173 -2.85262e-15)
(-12.2165 11.4973 -4.90364e-15)
(-11.5419 10.8179 0)
(-10.8835 10.1131 3.36797e-15)
(-10.2701 9.51254 -2.58432e-15)
(-9.79862 9.01683 2.48627e-15)
(-9.2839 8.89611 4.1063e-15)
(-8.77386 10.6679 -2.65546e-17)
(-13.0395 5.58309 1.65316e-15)
(3.92395 -1.43198 0)
(-13.7468 11.254 3.44573e-16)
(-13.0937 10.6375 -5.38114e-18)
(-12.3696 9.93876 0)
(-11.6492 9.24756 2.5096e-16)
(-11.0345 8.62111 5.67643e-15)
(-10.5826 8.05356 -3.98994e-15)
(-9.9967 8.08207 -1.19564e-14)
(-9.41549 10.2487 -7.60633e-15)
(-12.6384 6.11668 1.2104e-14)
(4.26611 -1.52516 1.9246e-15)
(-14.6308 10.1045 -1.16777e-14)
(-13.8392 9.63532 4.36401e-15)
(-13.0395 9.10688 0)
(-12.2437 8.53501 -6.44093e-15)
(-11.5593 7.98337 -5.41432e-15)
(-11.0291 7.43681 8.98107e-15)
(-10.3858 7.52277 4.01927e-15)
(-9.89319 9.47168 0)
(-13.1361 4.50144 -4.6162e-15)
(4.60834 -1.10301 5.24956e-16)
(-15.0065 8.96197 -2.50777e-16)
(-14.3247 8.65135 4.34701e-15)
(-13.5375 8.25771 0)
(-12.7233 7.78885 1.26887e-14)
(-12.0114 7.32111 -8.98694e-18)
(-11.46 6.78457 -2.17121e-16)
(-10.8413 6.89417 8.5307e-15)
(-10.4016 9.09313 -7.32671e-15)
(-13.6584 3.33012 -5.31859e-15)
(5.02121 -0.723711 0)
(-15.253 7.95895 -2.74744e-15)
(-14.6939 7.73054 9.30546e-15)
(-13.9484 7.41067 7.92413e-15)
(-13.1322 7.01526 -9.16605e-15)
(-12.402 6.62453 -1.58989e-14)
(-11.8339 6.10509 -3.99283e-16)
(-11.235 6.17438 -4.13985e-15)
(-10.8409 8.78729 -3.86045e-15)
(-14.0878 2.62879 -3.94556e-15)
(5.32135 -0.381453 -1.08893e-15)
(-15.462 7.0772 -8.8866e-15)
(-15.0061 6.88739 4.75351e-15)
(-14.2959 6.60319 -3.60058e-15)
(-13.4735 6.25987 -9.63885e-15)
(-12.7234 5.94452 7.56741e-15)
(-12.1401 5.45167 -3.40311e-16)
(-11.5612 5.38591 7.6258e-15)
(-11.2029 8.51828 3.68299e-15)
(-14.4705 1.89484 1.13369e-15)
(5.47694 0.0680585 -5.19531e-16)
(-15.6834 6.24968 2.73086e-15)
(-15.3071 6.08037 -2.4907e-15)
(-14.6114 5.8121 -1.38314e-16)
(-13.7663 5.50743 9.73578e-15)
(-12.9905 5.26893 -1.34012e-14)
(-12.3938 4.82401 4.27675e-15)
(-11.8122 4.5307 -4.13294e-15)
(-11.4274 8.23859 1.1276e-14)
(-15.0385 1.24328 0)
(5.4336 0.99701 -8.96821e-17)
(-15.945 5.38864 3.14983e-15)
(-15.6019 5.2463 2.55528e-15)
(-14.891 5.00139 4.23942e-15)
(-13.9993 4.74511 -6.6122e-15)
(-13.1895 4.6005 2.64653e-15)
(-12.5764 4.24579 0)
(-11.9476 3.67593 -1.84296e-15)
(-11.5126 7.79214 -7.54907e-15)
(-15.8134 0.74221 1.62167e-16)
(5.03134 1.84149 1.75657e-15)
(-16.2296 4.40089 1.31778e-15)
(-15.8554 4.30328 0)
(-15.1121 4.1048 2.01796e-15)
(-14.1574 3.93092 1.72059e-15)
(-13.3069 3.90329 8.40035e-17)
(-12.6734 3.68859 -1.0509e-15)
(-12.0274 2.95632 1.78041e-15)
(-11.5952 6.93457 0)
(-16.3474 0.816537 2.464e-15)
(4.12611 1.86079 1.95772e-15)
(-16.5183 3.21686 1.34765e-15)
(-16.1005 3.13745 -2.34524e-15)
(-15.3103 2.98031 -1.24731e-16)
(-14.2779 2.88087 6.66642e-16)
(-13.3968 2.95088 -5.16003e-17)
(-12.7314 2.88606 9.81369e-16)
(-11.9818 2.00137 -1.7355e-15)
(-11.7069 6.18742 -9.01685e-17)
(-16.6993 1.67116 2.31439e-15)
(3.46474 1.37152 -1.52726e-15)
(-16.7307 1.5628 1.8225e-29)
(-16.3064 1.41499 0)
(-15.4812 1.21261 0)
(-14.373 1.0487 -7.38429e-16)
(-13.4258 1.04672 0)
(-12.822 1.00205 0)
(-12.0235 -0.217182 7.69585e-16)
(-10.6151 3.6172 0)
(-17.1089 0.57075 0)
(0.523048 -1.701 -6.44296e-30)
(-14.8324 12.337 1.01797e-15)
(-15.4777 10.2111 -6.50741e-15)
(-15.6705 8.93702 6.48139e-15)
(-15.78 7.91572 -9.13322e-15)
(-15.8891 7.0486 6.39873e-15)
(-16.0141 6.25209 -1.41268e-14)
(-16.1848 5.42175 3.6389e-15)
(-16.3985 4.44844 -3.45047e-15)
(-16.6419 3.26114 0)
(-16.8265 1.67086 -3.31587e-16)
(-15.3679 11.763 1.33979e-14)
(-15.8404 9.72784 0)
(-16.0311 8.6506 6.70187e-15)
(-16.0786 7.73537 -2.70377e-15)
(-16.1334 6.9325 -9.96369e-15)
(-16.1844 6.18618 0)
(-16.2496 5.38534 -4.27049e-15)
(-16.375 4.42244 -1.60755e-15)
(-16.5256 3.25506 9.3422e-16)
(-16.6674 1.76123 -3.59169e-16)
(-14.9415 10.9694 -1.09437e-14)
(-15.6348 9.12787 0)
(-16.0189 8.20978 5.79893e-15)
(-16.1029 7.42158 7.21785e-16)
(-16.1464 6.69915 8.52051e-15)
(-16.1597 6.00136 -4.24967e-15)
(-16.1362 5.23269 0)
(-16.1987 4.31008 4.52042e-15)
(-16.2578 3.18555 -6.22436e-16)
(-16.3558 1.8211 4.41941e-16)
(-13.7742 10.25 5.04004e-15)
(-14.9223 8.63325 -1.74028e-15)
(-15.6109 7.74224 4.25731e-15)
(-15.8837 7.03758 -4.4834e-15)
(-16.0155 6.38849 5.54413e-16)
(-16.0669 5.72154 2.9856e-15)
(-16.0443 4.97628 -9.81808e-15)
(-16.0338 4.10643 1.56721e-15)
(-16.003 3.06005 2.48434e-15)
(-16.0131 1.83705 6.95258e-17)
(-12.4493 9.56391 -7.53248e-15)
(-13.7049 8.19905 4.88461e-15)
(-14.7238 7.30654 0)
(-15.2141 6.60374 1.75361e-15)
(-15.4881 5.97626 1.93811e-15)
(-15.6242 5.3253 -2.90732e-16)
(-15.6658 4.6016 1.55249e-15)
(-15.6658 3.77601 3.43844e-15)
(-15.6193 2.81467 6.07352e-18)
(-15.5695 1.70581 3.12649e-16)
(-11.1712 8.8711 -3.02413e-15)
(-12.2919 7.77489 3.51104e-15)
(-13.4213 6.89522 1.54305e-15)
(-14.0991 6.18019 -2.47116e-15)
(-14.5328 5.54883 -1.60528e-15)
(-14.7812 4.90429 -2.12599e-16)
(-14.9007 4.20209 -3.0485e-15)
(-14.9422 3.41634 9.3335e-16)
(-14.914 2.52965 2.94205e-16)
(-14.8532 1.52296 -3.24066e-16)
(-9.9834 8.16331 0)
(-10.8695 7.31522 -1.17856e-15)
(-11.9235 6.49799 4.12829e-16)
(-12.6883 5.78417 -6.04375e-16)
(-13.2235 5.13465 9.48508e-16)
(-13.5762 4.48693 0)
(-13.772 3.8024 6.86475e-16)
(-13.8748 3.05555 1.04787e-15)
(-13.8785 2.23423 -9.21248e-16)
(-13.8242 1.31858 -2.75891e-17)
(-8.86672 7.44573 0)
(-9.53765 6.8059 -2.01239e-16)
(-10.4061 6.09002 1.83814e-15)
(-11.1229 5.40556 -1.34545e-15)
(-11.679 4.74925 0)
(-12.0778 4.09155 -2.35019e-16)
(-12.3233 3.40929 -7.37762e-16)
(-12.4517 2.68171 5.84653e-16)
(-12.479 1.9075 6.35437e-16)
(-12.4295 1.07939 -2.54947e-16)
(-7.78897 6.67316 -7.10665e-16)
(-8.31978 6.1708 2.06785e-16)
(-8.97629 5.5229 2.12393e-16)
(-9.56201 4.85226 -2.23513e-16)
(-10.0379 4.18466 0)
(-10.3886 3.50771 2.56548e-16)
(-10.6088 2.81635 3.64168e-16)
(-10.7019 2.1122 -4.01284e-16)
(-10.6886 1.40936 -1.02311e-16)
(-10.5757 0.713322 7.1036e-18)
(-6.36432 6.25478 -1.0972e-16)
(-6.53851 6.03144 -8.334e-18)
(-6.89574 5.51624 -1.90169e-17)
(-7.26888 4.91535 0)
(-7.61583 4.30872 1.11271e-17)
(-7.9087 3.70559 0)
(-8.13673 3.09476 3.69437e-17)
(-8.28963 2.47246 1.8436e-17)
(-8.36285 1.85929 2.38516e-17)
(-8.33493 1.28678 -5.68538e-18)
)
;

boundaryField
{
    right
    {
        type            cyclic;
    }
    left
    {
        type            cyclic;
    }
    outerWall
    {
        type            calculated;
        value           nonuniform List<vector> 
22
(
(-1.55201 41.8305 0)
(-4.64749 41.6006 0)
(-7.71741 41.1419 0)
(-10.7449 40.4569 0)
(-13.7132 39.5492 0)
(-16.6061 38.424 0)
(-19.4075 37.0874 0)
(-22.1022 35.5467 0)
(-24.6752 33.8104 0)
(-27.1124 31.8882 0)
(-28.9573 30.2506 0)
(-30.2506 28.9573 0)
(-31.8882 27.1124 0)
(-33.8104 24.6752 0)
(-35.5467 22.1022 0)
(-37.0874 19.4075 0)
(-38.424 16.6061 0)
(-39.5492 13.7132 0)
(-40.4569 10.7449 0)
(-41.1419 7.71741 0)
(-41.6006 4.64749 0)
(-41.8305 1.55201 0)
)
;
    }
    stirrerWall
    {
        type            calculated;
        value           nonuniform List<vector> 
42
(
(-0.310178 8.3662 0)
(-0.928834 8.32046 0)
(-1.54239 8.22894 0)
(-2.14746 8.09214 0)
(-2.74072 7.91082 0)
(-3.31888 7.68598 0)
(-3.87877 7.41885 0)
(-4.41729 7.11092 0)
(-4.93148 6.76387 0)
(-5.4185 6.37963 0)
(-6.07951 6.64185 0)
(-6.92878 7.56862 0)
(-7.77806 8.49539 0)
(-8.62734 9.42216 0)
(-9.47661 10.3489 0)
(-10.3259 11.2757 0)
(-11.1752 12.2025 0)
(-12.0244 13.1292 0)
(-12.8737 14.056 0)
(-13.723 14.9828 0)
(-14.4723 15.1215 0)
(-15.1215 14.4723 0)
(-14.9828 13.723 0)
(-14.056 12.8737 0)
(-13.1292 12.0244 0)
(-12.2025 11.1752 0)
(-11.2757 10.3259 0)
(-10.3489 9.47661 0)
(-9.42216 8.62734 0)
(-8.49539 7.77806 0)
(-7.56862 6.92878 0)
(-6.64185 6.07951 0)
(-6.37963 5.4185 0)
(-6.76387 4.93148 0)
(-7.11092 4.41729 0)
(-7.41885 3.87877 0)
(-7.68598 3.31888 0)
(-7.91082 2.74072 0)
(-8.09214 2.14746 0)
(-8.22894 1.54239 0)
(-8.32046 0.928834 0)
(-8.3662 0.310178 0)
)
;
    }
    top
    {
        type            empty;
    }
    bottom
    {
        type            empty;
    }
}


// ************************************************************************* //
