/*--------------------------------*- C++ -*----------------------------------*\
  =========                 |
  \\      /  F ield         | OpenFOAM: The Open Source CFD Toolbox
   \\    /   O peration     | Website:  https://openfoam.org
    \\  /    A nd           | Version:  10
     \\/     M anipulation  |
\*---------------------------------------------------------------------------*/
FoamFile
{
    format      ascii;
    class       volVectorField;
    location    "700";
    object      Urel;
}
// * * * * * * * * * * * * * * * * * * * * * * * * * * * * * * * * * * * * * //

dimensions      [0 1 -1 0 0 0 0];

internalField   nonuniform List<vector> 
420
(
(1.14383 -0.504233 7.34352e-18)
(0.458661 0.177047 -4.95041e-17)
(0.619451 0.805505 -2.2811e-16)
(0.790812 0.949789 6.22602e-17)
(0.93111 0.740866 -4.24103e-16)
(1.03477 0.240256 0)
(1.05878 -0.499028 0)
(0.941688 -1.34186 3.55199e-16)
(0.823124 -2.25334 -3.85203e-16)
(0.705207 -3.29814 0)
(1.11929 -0.349744 2.33992e-17)
(0.336851 0.149477 -1.18373e-16)
(0.505721 0.714092 7.02937e-16)
(0.664034 0.844413 -9.9412e-16)
(0.790409 0.660244 3.16383e-16)
(0.878058 0.212262 7.96054e-18)
(0.888191 -0.443054 2.51418e-15)
(0.75494 -1.21583 -5.44583e-16)
(0.637457 -2.0522 8.16784e-16)
(0.54306 -3.05595 0)
(1.01331 -0.424439 3.37422e-17)
(0.174203 0.0360908 -5.93135e-16)
(0.358707 0.572264 7.06785e-16)
(0.520535 0.708652 1.14415e-15)
(0.638554 0.563342 -7.69036e-16)
(0.706568 0.18824 3.56127e-15)
(0.682122 -0.352913 1.46378e-15)
(0.518607 -1.0161 3.22903e-15)
(0.382181 -1.78287 -1.35414e-15)
(0.340135 -2.80404 -3.1163e-15)
(0.948959 -0.481207 1.0338e-17)
(0.0309302 -0.0817429 5.50174e-16)
(0.194853 0.409818 -9.23584e-16)
(0.338245 0.566143 7.9316e-16)
(0.433207 0.482344 -1.57613e-15)
(0.465025 0.205185 1.55845e-15)
(0.393472 -0.214121 -8.87028e-15)
(0.203777 -0.767085 0)
(0.0749349 -1.49287 -3.23113e-15)
(0.129902 -2.58632 3.15811e-15)
(0.91112 -0.468083 0)
(-0.100958 -0.170631 4.19593e-16)
(0.0275195 0.245485 -3.89598e-16)
(0.131459 0.41243 0)
(0.190927 0.397253 -2.33976e-16)
(0.17929 0.229669 -3.04853e-16)
(0.0697405 -0.0618883 3.20292e-15)
(-0.125558 -0.503971 -3.37465e-15)
(-0.202676 -1.20603 0)
(-0.00244528 -2.41344 -1.43437e-14)
(0.875788 -0.398072 6.40706e-18)
(-0.227873 -0.222912 0)
(-0.126759 0.0993142 0)
(-0.066917 0.263225 1.5428e-15)
(-0.0403327 0.312836 -2.32656e-15)
(-0.0843495 0.25624 2.69508e-15)
(-0.202571 0.0955375 6.23057e-16)
(-0.363878 -0.237739 8.4683e-15)
(-0.344986 -0.927008 -1.12041e-14)
(0.00339336 -2.25789 7.11026e-15)
(0.81865 -0.273507 0)
(-0.341682 -0.243128 -4.62865e-16)
(-0.255328 -0.0185186 -2.60291e-15)
(-0.218231 0.13037 -9.64026e-16)
(-0.204523 0.232797 -4.47335e-15)
(-0.247321 0.278897 2.85548e-15)
(-0.334298 0.252449 -7.31106e-15)
(-0.426098 0.0394809 6.54905e-16)
(-0.327876 -0.604066 -3.57722e-15)
(0.0935195 -2.01607 -1.0713e-14)
(0.725466 -0.113211 -2.37124e-17)
(-0.430801 -0.240041 4.72241e-16)
(-0.338359 -0.0934418 3.32634e-15)
(-0.296338 0.0356619 5.45449e-16)
(-0.26143 0.165056 2.67962e-15)
(-0.259581 0.292625 0)
(-0.281009 0.397948 7.52309e-15)
(-0.272536 0.357396 8.91285e-15)
(-0.14161 -0.124143 9.64028e-15)
(0.248195 -1.55789 7.87765e-15)
(0.585982 0.0444659 -2.61664e-17)
(-0.422065 -0.236407 4.84416e-16)
(-0.282788 -0.169811 -5.11307e-16)
(-0.208021 -0.0935302 -2.10219e-15)
(-0.129581 -0.00328933 7.23538e-15)
(-0.0318283 0.106564 1.00704e-14)
(0.0806376 0.252049 -3.55422e-15)
(0.243242 0.382426 0)
(0.439686 0.297997 0)
(0.539037 -0.852132 -8.44465e-15)
(0.303014 0.148903 -7.0133e-17)
(-0.359982 -0.117936 6.91006e-16)
(-0.206587 -0.0539371 0)
(-0.177455 0.0249646 0)
(-0.165432 0.105809 -3.52418e-15)
(-0.143842 0.204023 -7.33447e-18)
(-0.0917452 0.324296 6.50654e-15)
(0.0253623 0.450731 -1.42387e-14)
(0.220009 0.460577 1.67873e-14)
(0.489073 -0.332507 1.22305e-15)
(0.620463 -4.61456 0)
(0.558848 -6.37792 0)
(0.530432 -8.74777 0)
(0.585023 -11.5231 -7.37689e-16)
(0.730018 -14.2947 0)
(0.820083 -16.9482 0)
(-0.0994624 -20.119 7.56358e-16)
(3.19098 -23.6697 0)
(-0.655881 -19.712 0)
(1.44418 -41.4599 0)
(0.551768 -4.39636 1.32554e-15)
(0.670184 -6.24389 2.37482e-15)
(0.9014 -8.68603 1.31445e-16)
(1.22679 -11.4581 8.24372e-16)
(1.60441 -14.204 4.81499e-17)
(1.89742 -16.8501 9.96538e-16)
(1.44902 -20.0629 8.27051e-17)
(4.47193 -23.4863 7.79646e-17)
(0.661471 -20.0719 -2.84772e-15)
(4.33352 -40.9805 -4.53066e-16)
(0.488313 -4.24125 1.23751e-15)
(0.814683 -6.20468 0)
(1.30844 -8.68925 -1.9298e-15)
(1.86927 -11.3989 -1.61022e-15)
(2.44754 -14.0785 4.78362e-15)
(2.91966 -16.6936 -9.86999e-16)
(2.8575 -19.8633 1.59107e-15)
(5.84212 -22.8561 0)
(1.73755 -20.2914 3.2282e-15)
(7.57478 -40.5463 -1.3099e-17)
(0.464858 -4.16201 2.94275e-15)
(1.0264 -6.23369 7.41619e-15)
(1.77722 -8.69909 -7.52484e-15)
(2.54143 -11.302 2.90313e-15)
(3.31039 -13.8959 1.19356e-17)
(3.97442 -16.4601 0)
(4.2626 -19.55 -1.60736e-15)
(7.31958 -22.1559 -3.16403e-15)
(3.1344 -20.5941 -3.21745e-15)
(10.6805 -39.9722 2.16807e-15)
(0.541338 -4.14407 2.771e-15)
(1.33696 -6.29261 -2.45767e-15)
(2.31142 -8.68009 7.77485e-15)
(3.23753 -11.1545 -3.01752e-15)
(4.18049 -13.6558 2.55496e-15)
(5.02682 -16.1605 -4.0218e-15)
(5.66448 -19.1393 3.61689e-15)
(8.71915 -21.3661 3.46302e-15)
(4.44409 -20.7981 0)
(13.8785 -39.208 -4.39395e-15)
(0.730794 -4.12897 3.28603e-15)
(1.76032 -6.31927 -1.41512e-14)
(2.90826 -8.58802 -4.0608e-15)
(3.95762 -10.9334 9.29502e-15)
(5.0576 -13.3416 7.99294e-15)
(6.07693 -15.7801 2.99691e-16)
(7.05146 -18.6396 1.9404e-16)
(10.0277 -20.46 -3.19815e-15)
(5.84887 -20.941 -2.43619e-15)
(17.1005 -38.2503 4.79528e-15)
(1.00773 -4.06268 3.16081e-15)
(2.2728 -6.27308 4.78987e-15)
(3.55307 -8.39351 0)
(4.69956 -10.6191 -3.02609e-15)
(5.94492 -12.9333 -4.90199e-15)
(7.13312 -15.3034 3.50146e-16)
(8.41357 -18.0006 -1.08274e-14)
(11.3037 -19.4629 -3.45758e-15)
(7.37036 -21.0172 5.76922e-15)
(20.2906 -37.0574 -2.59384e-15)
(1.37211 -3.91238 1.17078e-14)
(2.84177 -6.11334 -4.2312e-15)
(4.21857 -8.07966 0)
(5.44536 -10.1991 -2.09607e-16)
(6.81831 -12.4246 2.04263e-14)
(8.15878 -14.7251 -8.60572e-15)
(9.70293 -17.2339 -8.1805e-15)
(12.508 -18.4198 6.80939e-15)
(8.98469 -20.9646 -6.644e-15)
(23.4018 -35.5997 0)
(1.9146 -3.57306 2.64779e-16)
(3.41805 -5.77208 -4.18487e-15)
(4.88352 -7.58098 0)
(6.20452 -9.61818 6.354e-15)
(7.69249 -11.7611 -1.51494e-14)
(9.16981 -13.989 8.82627e-15)
(10.9466 -16.2949 3.79383e-15)
(13.7571 -17.2663 0)
(10.6283 -20.7468 -1.26081e-16)
(26.3682 -33.8508 2.23407e-15)
(2.92987 -2.75723 3.57692e-16)
(3.93246 -5.18251 2.28352e-17)
(5.53719 -6.89462 0)
(7.0216 -8.86932 -1.244e-14)
(8.65068 -10.9234 4.65714e-15)
(10.2589 -13.0611 -4.93444e-15)
(12.1926 -15.2009 4.2888e-15)
(15.1536 -15.9339 1.76036e-16)
(12.3576 -20.7363 -4.93356e-16)
(29.1116 -31.6521 -2.15898e-15)
(3.8893 -1.87234 2.89443e-15)
(4.28268 -4.66624 -4.86992e-15)
(5.97619 -6.35203 0)
(7.68582 -8.22873 0)
(9.51121 -10.1428 0)
(11.3262 -12.1009 -2.46332e-15)
(13.347 -13.987 1.01449e-14)
(15.7374 -14.3768 0)
(12.8743 -21.1387 0)
(31.4114 -30.1664 0)
(3.84144 -1.89839 -2.85262e-15)
(4.33492 -4.34422 -4.90364e-15)
(6.0801 -6.04869 0)
(7.92395 -7.88835 3.36797e-15)
(9.84977 -9.7455 -2.58432e-15)
(11.7744 -11.6325 2.48627e-15)
(13.8979 -13.2936 4.1063e-15)
(16.1893 -13.2273 -2.65546e-17)
(13.8959 -20.2004 1.65316e-15)
(33.043 -29.3061 0)
(2.68982 -2.71683 3.44573e-16)
(4.36175 -4.19972 -5.38114e-18)
(6.21382 -5.85785 0)
(8.18305 -7.61121 2.5096e-16)
(10.1805 -9.41369 5.67643e-15)
(12.1633 -11.2833 -3.98994e-15)
(14.4443 -12.6965 -1.19564e-14)
(16.9023 -12.126 -7.60633e-15)
(15.7573 -18.0252 1.2104e-14)
(34.9624 -27.6238 1.9246e-15)
(2.79531 -2.60996 -1.16777e-14)
(4.6671 -3.86772 4.36401e-15)
(6.66288 -5.2693 0)
(8.78297 -6.8079 -6.44093e-15)
(10.9336 -8.4299 -5.41432e-15)
(13.0872 -10.1615 8.98107e-15)
(15.5279 -11.3877 4.01927e-15)
(18.0105 -10.8915 0)
(16.9709 -17.4702 -4.6162e-15)
(37.1549 -24.8555 5.24956e-16)
(3.31327 -2.42627 -2.50777e-16)
(5.13094 -3.44329 4.34701e-15)
(7.17564 -4.61906 0)
(9.38221 -5.95387 1.26887e-14)
(11.6357 -7.38039 -8.98694e-18)
(13.8941 -8.97848 -2.17121e-16)
(16.4025 -10.0442 8.5307e-15)
(18.9346 -9.14655 -7.32671e-15)
(17.9945 -16.3504 -5.31859e-15)
(39.239 -21.9994 0)
(3.85985 -2.04057 -2.74744e-15)
(5.60406 -2.88928 9.30546e-15)
(7.66172 -3.89594 7.92413e-15)
(9.93071 -5.05176 -9.16605e-15)
(12.2695 -6.2844 -1.58989e-14)
(14.6184 -7.736 -3.99283e-16)
(17.1892 -8.69877 -4.13985e-15)
(19.7665 -7.22855 -3.86045e-15)
(18.9367 -14.6522 -3.94556e-15)
(41.0221 -19.0632 -1.08893e-15)
(4.3389 -1.4787 -8.8866e-15)
(6.02269 -2.19927 4.75351e-15)
(8.09239 -3.07115 -3.60058e-15)
(10.42 -4.06512 -9.63885e-15)
(12.8367 -5.10087 7.56741e-15)
(15.2652 -6.39134 -3.40311e-16)
(17.887 -7.34022 7.6258e-15)
(20.5073 -5.18561 3.68299e-15)
(19.7441 -12.8916 1.13369e-15)
(42.4643 -15.917 -5.19531e-16)
(4.69678 -0.815606 2.73086e-15)
(6.33697 -1.42324 -2.4907e-15)
(8.43206 -2.17681 -1.38314e-16)
(10.8265 -3.01879 9.73578e-15)
(13.3177 -3.85221 -1.34012e-14)
(15.8137 -4.95581 4.27675e-15)
(18.4981 -5.97841 -4.13294e-15)
(21.2112 -3.07796 1.1276e-14)
(20.1779 -10.9673 0)
(43.5041 -12.2034 -8.96821e-17)
(4.90254 -0.147244 3.14983e-15)
(6.53848 -0.633024 2.55528e-15)
(8.6809 -1.25819 4.23942e-15)
(11.1576 -1.93549 -6.6122e-15)
(13.7222 -2.54625 2.64653e-15)
(16.2782 -3.41708 0)
(19.0582 -4.55836 -1.84296e-15)
(21.8749 -1.07484 -7.54907e-15)
(20.2111 -8.82526 1.62167e-16)
(43.9755 -8.50154 1.75657e-15)
(4.9707 0.424823 1.31778e-15)
(6.65974 0.0805344 0)
(8.85879 -0.391069 2.01796e-15)
(11.4253 -0.867347 1.72059e-15)
(14.0604 -1.22978 8.40035e-17)
(16.6697 -1.81518 -1.0509e-15)
(19.5032 -2.95788 1.78041e-15)
(22.3576 0.565957 0)
(20.2871 -6.05521 2.464e-15)
(43.7297 -5.56801 1.95772e-15)
(4.91838 0.822445 1.34765e-15)
(6.66563 0.594484 -2.34524e-15)
(8.92785 0.272868 -1.24731e-16)
(11.59 -0.00868237 6.66642e-16)
(14.2755 -0.140299 -5.16003e-17)
(16.9388 -0.42835 9.81369e-16)
(19.9005 -1.5602 -1.7355e-15)
(22.6244 2.35218 -9.01685e-17)
(20.3436 -2.46707 2.31439e-15)
(43.5099 -3.10217 -1.52726e-15)
(4.82453 0.763192 1.8225e-29)
(6.5857 0.565776 0)
(8.89099 0.308469 0)
(11.6379 0.0837467 -7.38429e-16)
(14.3995 0.0144363 0)
(17.0122 -0.104788 0)
(20.035 -1.40656 7.69585e-16)
(23.906 2.33644 0)
(20.1386 -0.811192 0)
(40.7894 -3.19497 -6.44296e-30)
(0.642848 -0.816243 1.01797e-15)
(0.929045 -1.75925 -6.50741e-15)
(1.5776 -1.78474 6.48139e-15)
(2.21471 -1.49859 -9.13322e-15)
(2.75342 -1.00655 6.39873e-15)
(3.17372 -0.399692 -1.41268e-14)
(3.44304 0.209867 3.6389e-15)
(3.56146 0.705084 -3.45047e-15)
(3.54056 1.00686 0)
(3.46763 0.918064 -3.31587e-16)
(-0.849296 -0.576728 1.33979e-14)
(-0.447805 -1.50223 0)
(0.150918 -1.40812 6.70187e-15)
(0.803861 -1.09676 -2.70377e-15)
(1.35678 -0.624545 -9.96369e-15)
(1.81745 -0.0542753 0)
(2.16501 0.495749 -4.27049e-15)
(2.35116 0.91056 -1.60755e-15)
(2.40933 1.14019 9.3422e-16)
(2.37224 1.05498 -3.59169e-16)
(-1.37935 -0.556882 -1.09437e-14)
(-1.25631 -1.36196 0)
(-0.902993 -1.18593 5.79893e-15)
(-0.332623 -0.828401 7.21785e-16)
(0.191528 -0.359805 8.52051e-15)
(0.656213 0.172214 -4.24967e-15)
(1.06529 0.665369 0)
(1.29385 1.02966 4.52042e-15)
(1.42969 1.21007 -6.22436e-16)
(1.4295 1.1614 4.41941e-16)
(-1.16863 -0.462975 5.04004e-15)
(-1.55788 -1.11638 -1.74028e-15)
(-1.561 -0.990498 4.25731e-15)
(-1.22561 -0.630293 -4.4834e-15)
(-0.82974 -0.172404 5.54413e-16)
(-0.43688 0.303673 2.9856e-15)
(-0.0559143 0.731209 -9.81808e-15)
(0.225078 1.05747 1.56721e-15)
(0.437058 1.22394 2.48434e-15)
(0.517822 1.2239 6.95258e-17)
(-0.800088 -0.335728 -7.53248e-15)
(-1.35439 -0.810427 4.88461e-15)
(-1.73991 -0.763271 0)
(-1.66807 -0.482067 1.75361e-15)
(-1.4544 -0.0866083 1.93811e-15)
(-1.17999 0.318686 -2.90732e-16)
(-0.890384 0.678751 1.55249e-15)
(-0.640415 0.958481 3.43844e-15)
(-0.426487 1.11794 6.07352e-18)
(-0.292814 1.13919 3.12649e-16)
(-0.478302 -0.215303 -3.02413e-15)
(-0.955293 -0.494507 3.51104e-15)
(-1.5032 -0.511732 1.54305e-15)
(-1.66507 -0.323598 -2.47116e-15)
(-1.65113 -0.0160572 -1.60528e-15)
(-1.52268 0.308894 -2.12599e-16)
(-1.33817 0.601439 -3.0485e-15)
(-1.15023 0.830225 9.3335e-16)
(-0.968471 0.972278 2.94205e-16)
(-0.830605 1.00289 -3.24066e-16)
(-0.246728 -0.109951 0)
(-0.546566 -0.214195 -1.17856e-15)
(-1.07113 -0.246178 4.12829e-16)
(-1.36603 -0.137676 -6.04375e-16)
(-1.4936 0.06768 9.48508e-16)
(-1.50324 0.302698 0)
(-1.42221 0.523911 6.86475e-16)
(-1.31613 0.700823 1.04787e-15)
(-1.18 0.816196 -9.21248e-16)
(-1.05559 0.845035 -2.75891e-17)
(-0.0861026 -0.014522 0)
(-0.228332 0.0163501 -2.01239e-16)
(-0.619224 0.0085273 1.83814e-15)
(-0.912317 0.0655596 -1.34545e-15)
(-1.10082 0.180122 0)
(-1.1902 0.31842 -2.35019e-16)
(-1.18606 0.45291 -7.37762e-16)
(-1.12614 0.558324 5.84653e-16)
(-1.02726 0.628785 6.35437e-16)
(-0.914619 0.652376 -2.54947e-16)
(0.0358023 0.0257378 -7.10665e-16)
(-0.0238154 0.120961 2.06785e-16)
(-0.254744 0.10393 2.12393e-16)
(-0.462829 0.093986 -2.23513e-16)
(-0.611072 0.113258 0)
(-0.68605 0.145584 2.56548e-16)
(-0.683805 0.181999 3.64168e-16)
(-0.609085 0.22011 -4.01284e-16)
(-0.483461 0.269933 -1.02311e-16)
(-0.314318 0.332821 7.1036e-18)
(0.504901 0.419937 -1.0972e-16)
(0.74441 0.721077 -8.334e-18)
(0.760835 0.759588 -1.90169e-17)
(0.719242 0.738614 0)
(0.659907 0.734894 1.11271e-17)
(0.609128 0.754346 0)
(0.576346 0.782345 3.69437e-17)
(0.570761 0.811601 1.8436e-17)
(0.596109 0.859118 2.38516e-17)
(0.673324 0.952776 -5.68538e-18)
)
;

boundaryField
{
    right
    {
        type            cyclic;
    }
    left
    {
        type            cyclic;
    }
    outerWall
    {
        type            noSlip;
    }
    stirrerWall
    {
        type            noSlip;
    }
    top
    {
        type            empty;
    }
    bottom
    {
        type            empty;
    }
}


// ************************************************************************* //
