/*--------------------------------*- C++ -*----------------------------------*\
  =========                 |
  \\      /  F ield         | OpenFOAM: The Open Source CFD Toolbox
   \\    /   O peration     | Website:  https://openfoam.org
    \\  /    A nd           | Version:  10
     \\/     M anipulation  |
\*---------------------------------------------------------------------------*/
FoamFile
{
    format      ascii;
    class       volVectorField;
    location    "700";
    object      Urel;
}
// * * * * * * * * * * * * * * * * * * * * * * * * * * * * * * * * * * * * * //

dimensions      [0 1 -1 0 0 0 0];

internalField   nonuniform List<vector> 
2000
(
(5.18756 -2.97599 -7.96647e-18)
(-0.785509 4.39073 4.20343e-17)
(1.68824 7.39166 -2.58816e-17)
(2.68997 9.69311 0)
(3.91007 11.3242 0)
(5.24509 12.2595 5.34207e-16)
(6.39675 12.6288 -6.03657e-16)
(7.14208 12.4227 -6.88931e-16)
(7.31156 11.61 8.07549e-16)
(6.83246 10.2264 9.82218e-16)
(5.7179 8.45577 1.25189e-15)
(4.01561 6.64893 0)
(1.66239 5.32172 2.36864e-15)
(-0.360749 4.5211 2.79814e-15)
(-1.99873 1.92123 3.02014e-15)
(-2.87812 -1.78748 2.64365e-15)
(-3.38217 -6.10318 -2.15683e-15)
(-3.49062 -10.4718 8.94369e-16)
(-3.23749 -14.5706 7.90763e-16)
(-2.78979 -18.1824 3.01175e-15)
(5.38691 -2.80443 -4.01668e-17)
(-1.63396 3.99411 4.40073e-17)
(0.165066 6.75765 -3.96941e-16)
(0.760065 8.63628 -1.21509e-15)
(2.0664 10.0252 2.14752e-16)
(3.59108 10.9758 -2.34286e-15)
(4.92586 11.5972 1.22617e-15)
(5.83203 11.8343 2.14839e-15)
(6.1604 11.5526 8.09237e-16)
(5.86615 10.7418 9.6731e-16)
(4.9715 9.53807 -2.37713e-15)
(3.53598 8.25715 -1.50403e-15)
(1.82124 7.30072 -1.9729e-15)
(0.217252 6.24168 -2.18999e-15)
(-1.61019 3.32851 -7.94958e-15)
(-2.59515 -0.867305 -2.97801e-15)
(-2.81886 -5.60511 6.383e-15)
(-2.71561 -10.4058 -5.31047e-15)
(-2.30313 -14.8288 0)
(-1.73751 -18.6356 -4.42432e-15)
(5.48659 -2.64928 3.65478e-17)
(-0.672666 3.92526 -2.94675e-16)
(1.05545 6.6034 4.2784e-16)
(1.60986 8.19372 1.14967e-15)
(2.64553 9.41672 2.01006e-15)
(3.85505 10.3786 5.28197e-16)
(4.93772 11.1428 1.30462e-15)
(5.7154 11.6725 -2.1272e-15)
(6.02515 11.814 -1.64967e-15)
(5.78476 11.4878 -1.92606e-15)
(4.98482 10.7923 2.33484e-15)
(3.59923 10.0225 0)
(2.32356 9.48469 -6.73307e-15)
(0.738949 8.28299 0)
(-1.11959 4.81238 0)
(-2.01898 0.151676 0)
(-2.0611 -5.18385 4.47671e-15)
(-1.79552 -10.381 -6.95526e-15)
(-1.25685 -15.0511 0)
(-0.567293 -19.0174 2.91377e-15)
(5.49532 -2.78255 -4.78837e-17)
(-0.131174 3.4278 7.51331e-16)
(1.78324 6.10655 0)
(2.49855 7.52215 2.11525e-15)
(3.39668 8.64195 6.93423e-16)
(4.37309 9.62266 2.51736e-16)
(5.22424 10.5149 -1.1896e-17)
(5.8545 11.3062 4.26749e-15)
(6.12297 11.8487 0)
(5.9094 11.9879 1.72767e-15)
(5.14755 11.7895 2.05985e-15)
(3.85724 11.4547 5.24314e-15)
(2.84955 11.2129 5.9346e-15)
(1.20849 9.88572 1.37524e-14)
(-0.318393 6.25885 -8.55023e-15)
(-1.05543 1.40362 -3.6871e-16)
(-1.0324 -4.59089 1.69838e-14)
(-0.625674 -10.1902 7.08407e-15)
(0.0114741 -15.1388 6.24579e-15)
(0.821664 -19.3045 5.77613e-15)
(5.5043 -3.03253 0)
(0.0563189 2.733 -1.36992e-15)
(2.14207 5.44547 -7.58356e-16)
(3.07285 6.81553 -2.64099e-15)
(3.94239 7.90228 -3.25669e-15)
(4.81452 8.90812 1.06908e-15)
(5.53811 9.90269 -2.68933e-15)
(6.04604 10.8948 -4.27468e-15)
(6.26634 11.7707 -1.49478e-15)
(6.08549 12.3522 2.11773e-16)
(5.35415 12.6522 -3.84751e-15)
(4.27002 12.7772 -4.72647e-15)
(3.41663 12.7826 -5.3361e-15)
(1.93968 11.3911 -6.42938e-15)
(0.806353 7.78775 0)
(0.323727 2.99856 3.54462e-16)
(0.403338 -3.68076 2.34087e-16)
(0.90425 -9.74184 -7.14452e-15)
(1.60514 -15.021 -1.89398e-14)
(2.4912 -19.4293 5.52117e-15)
(5.55934 -3.28167 0)
(0.069485 1.93236 7.14868e-16)
(2.26518 4.63519 0)
(3.39607 6.05204 1.71635e-15)
(4.28352 7.18745 4.10295e-15)
(5.11442 8.2454 0)
(5.78946 9.32244 5.27086e-15)
(6.20862 10.459 8.66529e-15)
(6.41631 11.5915 0)
(6.26714 12.5831 -3.13757e-15)
(5.60992 13.3507 7.90915e-15)
(4.7411 13.8976 4.53235e-16)
(4.01795 14.1078 5.44654e-15)
(2.96313 12.8144 -6.02899e-15)
(2.34971 9.39342 0)
(2.16086 4.79252 -2.6473e-14)
(2.31016 -2.32856 -9.62957e-15)
(2.83675 -8.91344 0)
(3.54066 -14.585 1.28413e-14)
(4.4586 -19.2807 -2.28103e-14)
(5.6517 -3.47463 2.35884e-17)
(-0.0316417 1.13204 1.69803e-16)
(2.21939 3.70973 -1.69045e-15)
(3.53237 5.18086 -7.08686e-16)
(4.49434 6.43859 -1.67022e-16)
(5.2784 7.58948 -2.67439e-15)
(5.8995 8.73532 5.1329e-15)
(6.30167 9.97408 -8.40659e-15)
(6.52401 11.3038 -9.23523e-15)
(6.42015 12.6381 6.11433e-15)
(5.90053 13.8131 -3.72057e-15)
(5.21532 14.7397 -3.95861e-15)
(4.63391 15.0745 4.1158e-15)
(4.02707 13.8668 -1.12997e-14)
(3.89997 10.9422 0)
(4.23407 6.8285 5.64536e-14)
(4.55717 -0.391576 -4.37435e-14)
(5.12409 -7.61123 1.51174e-14)
(5.80744 -13.7174 1.3229e-14)
(6.714 -18.7394 2.49886e-16)
(5.754 -3.59223 2.24253e-17)
(-0.172645 0.336835 -5.73379e-16)
(2.08516 2.65779 2.4047e-15)
(3.5179 4.19379 -2.76404e-15)
(4.57876 5.60994 -4.32906e-15)
(5.32557 6.89571 0)
(5.89521 8.12043 -5.35087e-15)
(6.28635 9.43151 0)
(6.55176 10.8958 5.94889e-15)
(6.51631 12.4767 0)
(6.16353 13.9866 0)
(5.64841 15.2648 -4.96774e-16)
(5.26653 15.7587 1.52975e-14)
(5.03036 14.6074 1.02092e-14)
(5.33555 11.7438 7.43504e-16)
(6.14333 8.09904 -2.27113e-14)
(6.49576 2.28051 0)
(7.49347 -5.7077 0)
(8.26603 -12.32 1.36772e-14)
(9.15842 -17.6901 2.43081e-14)
(5.83965 -3.62221 -2.12388e-17)
(-0.241353 -0.412526 -1.18412e-15)
(1.88534 1.49442 1.26735e-15)
(3.35062 3.09263 -1.37193e-15)
(4.50654 4.67958 -2.45913e-15)
(5.25707 6.12197 2.12953e-15)
(5.78378 7.44567 2.84766e-15)
(6.17482 8.81397 -2.50894e-15)
(6.45106 10.3537 0)
(6.50738 12.0824 -6.1291e-15)
(6.32868 13.8405 5.52007e-15)
(6.01366 15.4547 -6.21392e-15)
(5.91768 16.1746 0)
(6.10236 15.2832 2.59343e-16)
(6.77591 12.5378 6.58636e-16)
(8.03012 8.89723 1.77372e-14)
(8.49453 4.06137 -4.37869e-14)
(9.94743 -3.76766 1.50822e-14)
(10.7863 -10.5771 -1.27115e-14)
(11.621 -16.1748 -1.11409e-14)
(5.89564 -3.57097 0)
(-0.245385 -1.02164 1.81399e-17)
(1.78015 0.365316 -2.74045e-15)
(3.0227 1.86769 1.89339e-16)
(4.27504 3.60478 0)
(5.05124 5.2122 0)
(5.5628 6.66154 -7.84016e-15)
(5.93418 8.09206 2.45956e-15)
(6.21849 9.66543 -1.11146e-14)
(6.36018 11.4502 -7.14508e-16)
(6.33632 13.3643 1.08789e-14)
(6.25033 15.3343 -5.25322e-15)
(6.42435 16.0483 5.0679e-16)
(6.97115 15.5965 7.50686e-16)
(7.89134 13.1002 -9.36781e-15)
(9.36332 9.81512 0)
(10.1522 5.77567 -1.89337e-14)
(12.0504 -1.72924 5.40298e-14)
(13.0358 -8.57407 -2.18489e-14)
(13.8319 -14.2325 1.00286e-14)
(5.91613 -3.43831 8.01751e-17)
(-0.276928 -1.53415 1.29012e-15)
(1.75059 -0.646068 2.58992e-15)
(2.70932 0.560958 1.68912e-15)
(3.82634 2.41482 2.01363e-15)
(4.67875 4.12635 0)
(5.20062 5.70662 2.49375e-15)
(5.5582 7.21916 2.43034e-15)
(5.83876 8.80617 -5.33311e-15)
(6.04533 10.5748 1.03891e-14)
(6.17878 12.5554 5.5173e-15)
(6.34348 14.6837 -5.31831e-15)
(6.73986 15.5505 1.10163e-14)
(7.57576 15.4997 6.44734e-15)
(8.70646 13.3112 8.94542e-15)
(10.2122 10.2216 1.03476e-15)
(11.1083 6.72073 -1.47796e-14)
(13.3924 -0.0396187 -3.17056e-16)
(14.6436 -6.57734 -2.08346e-14)
(15.4729 -12.0685 -1.02746e-14)
(5.87612 -3.20791 0)
(-0.3422 -1.9692 -9.96686e-16)
(1.55904 -1.54092 9.24673e-16)
(2.3422 -0.677621 -2.07231e-15)
(3.16576 1.13278 4.88783e-15)
(4.12957 2.84826 -2.2911e-15)
(4.64251 4.51792 0)
(5.00493 6.1241 0)
(5.27542 7.7329 5.39361e-15)
(5.52234 9.43518 0)
(5.80937 11.3932 1.21154e-16)
(6.22176 13.6668 -9.45199e-15)
(6.81711 14.787 4.9588e-15)
(7.89944 14.949 -6.18208e-15)
(9.24219 13.2676 0)
(10.7794 10.5468 9.68776e-15)
(11.7617 7.47563 0)
(14.2236 1.3463 -1.07538e-14)
(15.693 -4.74348 -1.90671e-14)
(16.4507 -9.84805 1.69831e-14)
(5.78704 -2.88134 3.83296e-17)
(-0.467814 -2.2955 -1.39307e-15)
(1.19029 -2.27384 0)
(1.68517 -1.81221 -3.34154e-15)
(2.38435 -0.329282 -1.98912e-15)
(3.36599 1.42169 -2.48054e-15)
(3.82834 3.05481 0)
(4.19385 4.72827 0)
(4.43884 6.36953 5.08652e-15)
(4.7051 7.97675 0)
(5.11177 9.81337 4.98656e-15)
(5.75549 12.113 -4.29335e-15)
(6.55645 13.5697 -4.51054e-15)
(7.84923 13.9038 7.05273e-16)
(9.37054 12.8265 -2.09624e-14)
(10.9507 10.5654 7.64296e-15)
(12.0326 7.85018 -1.12708e-14)
(14.5183 2.35273 0)
(16.0897 -3.14321 -8.41108e-15)
(16.3296 -7.66161 2.52234e-14)
(5.63721 -2.44648 -2.17437e-16)
(-0.70368 -2.4678 2.6888e-15)
(0.652024 -2.83111 -8.50742e-16)
(0.852691 -2.84245 3.2292e-15)
(1.31098 -1.81722 4.62837e-15)
(2.27856 -0.0545573 -6.76485e-15)
(2.68287 1.33513 1.25417e-14)
(3.00785 2.95711 -1.17853e-14)
(3.2014 4.61162 -5.66975e-16)
(3.4737 6.1212 -5.45434e-15)
(3.97325 7.75248 1.36515e-14)
(4.83655 9.91237 -8.67106e-15)
(5.87833 11.6373 4.86145e-15)
(7.33851 12.312 0)
(9.03449 11.6924 0)
(10.7176 10.0191 0)
(11.943 7.73846 1.18233e-14)
(14.2473 2.98756 3.12298e-16)
(15.3915 -1.79008 -7.57822e-15)
(14.9775 -5.58943 -8.35595e-15)
(5.42566 -1.89248 8.61906e-18)
(-1.07764 -2.46856 -2.83263e-15)
(-0.0521475 -3.13991 -1.27516e-15)
(-0.112504 -3.69538 1.22951e-15)
(-0.0341781 -3.35581 2.23611e-15)
(0.600268 -1.78219 -2.74665e-15)
(1.14288 -0.340927 0)
(1.38639 0.955556 0)
(1.47403 2.4504 0)
(1.69471 3.81703 0)
(2.24828 5.15938 -1.06067e-14)
(3.29741 7.03157 1.48417e-14)
(4.59056 8.87955 -4.46322e-15)
(6.2161 9.88656 0)
(8.03317 9.72989 0)
(9.76268 8.65777 0)
(11.0248 6.82705 1.87274e-14)
(12.8209 2.99257 2.53024e-16)
(13.1139 -0.858307 9.86296e-16)
(11.7721 -3.89287 0)
(5.1438 -1.20048 0)
(-1.53982 -2.28828 5.90041e-15)
(-0.794401 -3.13582 -1.30092e-15)
(-1.16249 -4.10319 6.912e-15)
(-1.51908 -4.53713 -7.24121e-15)
(-1.58475 -4.02754 0)
(-0.931113 -2.44495 0)
(-0.374924 -0.733585 1.74312e-14)
(-0.564055 0.413447 0)
(-0.5913 1.28831 0)
(-0.126013 2.0643 -1.21974e-14)
(1.0259 3.38592 1.66853e-14)
(2.53443 5.10422 -4.97445e-15)
(4.27708 6.33358 -2.30708e-14)
(6.10204 6.59404 -1.71983e-15)
(7.71296 6.05479 -1.849e-15)
(8.6951 4.68121 3.36973e-14)
(9.41373 1.98108 1.63596e-14)
(8.24845 -0.717746 0)
(5.80306 -2.89665 -2.09273e-14)
(4.74626 -0.462294 0)
(-1.99773 -1.96664 -3.09002e-15)
(-1.39712 -2.81104 4.67022e-15)
(-1.98509 -3.92239 -4.11357e-15)
(-2.7659 -4.80695 5.35992e-15)
(-3.59244 -5.22484 0)
(-3.98027 -4.86142 0)
(-3.59645 -3.69878 3.10035e-16)
(-3.06252 -2.27313 -9.24809e-15)
(-2.73504 -1.01283 8.83945e-15)
(-2.46955 -0.631008 1.76159e-14)
(-1.7235 -0.294222 -1.52226e-14)
(-0.323383 0.858247 -2.86013e-14)
(1.31398 2.00576 2.63058e-14)
(2.84878 2.46159 1.4372e-14)
(3.85868 2.25348 -1.88908e-14)
(3.80257 1.68648 -1.43825e-15)
(2.60098 0.577762 -2.06901e-14)
(0.134181 -0.809755 -2.59872e-14)
(-2.13485 -2.65229 6.66791e-14)
(4.16671 0.284118 0)
(-2.32917 -1.57904 3.26261e-15)
(-1.68095 -2.22419 -5.01743e-15)
(-2.27811 -3.17567 4.76675e-15)
(-3.21021 -4.11457 1.7106e-15)
(-4.36926 -4.87665 0)
(-5.55513 -5.24788 0)
(-6.36239 -4.88329 -5.66613e-15)
(-6.64061 -4.25891 -7.36219e-16)
(-6.32608 -3.48889 8.01186e-15)
(-5.2415 -2.8484 0)
(-3.37946 -2.85765 0)
(-2.40225 -2.71471 2.19548e-14)
(-2.17651 -1.93549 -1.1755e-15)
(-1.94636 -1.27776 2.55207e-14)
(-2.3925 -0.869223 -2.59449e-14)
(-3.50869 -0.492922 0)
(-5.08185 -0.999546 0)
(-5.67 -1.06452 0)
(-2.76782 -3.56321 0)
(3.33224 0.856624 2.62982e-16)
(-2.31445 -1.2533 -6.99696e-15)
(-1.51125 -1.51472 7.4419e-15)
(-1.87769 -2.09366 -9.22981e-15)
(-2.43082 -2.7538 -5.21003e-15)
(-3.04728 -3.4211 1.5579e-14)
(-3.67729 -3.97093 0)
(-4.15486 -4.21571 -1.26831e-14)
(-4.30188 -3.96826 -7.96728e-15)
(-4.07271 -3.71348 8.38007e-15)
(-3.86777 -3.35059 3.09938e-14)
(-3.94575 -3.01496 -3.34994e-14)
(-4.01126 -3.14955 5.1293e-14)
(-3.92221 -3.78782 -2.7131e-14)
(-4.03216 -4.16912 3.67528e-14)
(-4.34168 -3.77608 -7.9463e-14)
(-4.54873 -2.01884 4.35681e-14)
(-4.09844 -0.236464 -4.09005e-14)
(-2.70917 0.0293129 0)
(0.21528 -3.91309 0)
(1.82577 1.1015 0)
(-1.5486 -0.497209 1.69551e-15)
(-0.534715 -0.454407 -3.64271e-15)
(-0.578062 -0.612398 0)
(-0.837529 -0.888107 0)
(-1.2906 -1.11534 -9.48547e-15)
(-2.02125 -1.13575 -6.22233e-15)
(-2.97256 -0.809557 5.96516e-15)
(-4.01707 -0.0862446 0)
(-4.95566 0.98118 0)
(-5.75224 2.17849 -1.94144e-14)
(-5.99577 3.42843 0)
(-5.69203 4.6084 -2.87045e-14)
(-5.04597 5.57744 -3.73607e-14)
(-4.33547 6.09147 7.57971e-14)
(-3.50786 6.06027 3.97961e-14)
(-2.52851 5.56985 0)
(-0.9067 4.88778 4.219e-14)
(0.803756 4.10939 4.40883e-14)
(1.45385 2.07251 -4.92151e-14)
(-2.26508 -21.2144 -1.37478e-15)
(-1.72933 -23.7473 -2.31119e-17)
(-1.29599 -25.9805 1.20759e-15)
(-1.02735 -28.1179 -1.18508e-15)
(-0.803252 -30.1899 1.08147e-15)
(-0.557326 -32.0985 -1.06803e-15)
(-0.327324 -33.9406 9.727e-16)
(-0.139266 -35.8779 9.58358e-16)
(0.0222391 -37.9685 -8.66659e-16)
(0.17166 -40.1837 -1.67653e-15)
(0.319391 -42.4936 -3.21593e-15)
(0.448544 -44.8744 1.47831e-15)
(0.575571 -47.3603 0)
(0.683077 -49.9228 0)
(0.751709 -52.6162 -2.66986e-15)
(1.00736 -55.5114 0)
(0.466741 -57.833 0)
(2.7142 -62.6384 1.15987e-15)
(-4.60249 -59.3029 -1.1213e-15)
(16.3438 -78.3992 3.71804e-15)
(-1.10682 -21.7229 -2.82927e-15)
(-0.485707 -24.1853 -1.39609e-15)
(-0.00102379 -26.2732 -4.79484e-17)
(0.296231 -28.3133 -2.32387e-15)
(0.559988 -30.3552 -4.48924e-15)
(0.858054 -32.2373 4.10573e-15)
(1.12532 -34.0444 7.84605e-17)
(1.35648 -35.9562 -3.67768e-15)
(1.56786 -38.0296 -3.54952e-15)
(1.77552 -40.2295 -1.75349e-15)
(1.98792 -42.5237 4.69632e-15)
(2.18558 -44.8883 2.9613e-15)
(2.39415 -47.3581 8.62752e-15)
(2.57577 -49.9088 0)
(2.74947 -52.5872 8.00912e-15)
(3.07893 -55.4694 -5.23608e-15)
(2.65846 -57.8008 9.68791e-15)
(5.02796 -62.5552 4.63813e-15)
(-2.33676 -59.5283 -4.48662e-15)
(19.183 -77.6922 -1.547e-19)
(0.172018 -22.1527 -5.61235e-15)
(0.882027 -24.5394 5.0877e-15)
(1.41968 -26.4792 1.23616e-14)
(1.73756 -28.426 -2.23529e-15)
(2.03044 -30.4384 0)
(2.3597 -32.2854 -8.00966e-17)
(2.64998 -34.0546 3.89518e-15)
(2.90949 -35.939 0)
(3.1605 -37.9938 3.5512e-15)
(3.41625 -40.1794 -6.86803e-15)
(3.68439 -42.4593 6.22216e-15)
(3.94273 -44.8106 -6.05966e-15)
(4.22692 -47.2647 1.44005e-16)
(4.47745 -49.8067 -5.42927e-15)
(4.75474 -52.4648 -5.33827e-15)
(5.15279 -55.3401 0)
(4.8522 -57.666 -4.90543e-15)
(7.33693 -62.371 0)
(-0.0989159 -59.6655 -9.1842e-15)
(22.0795 -76.8501 0)
(1.65622 -22.5068 9.68807e-17)
(2.42596 -24.8073 -5.07539e-15)
(2.97784 -26.5762 -9.82704e-15)
(3.27819 -28.4214 0)
(3.5704 -30.4054 -9.01016e-15)
(3.90622 -32.2198 4.04531e-15)
(4.20202 -33.9568 3.99154e-15)
(4.47954 -35.8214 7.55804e-15)
(4.76361 -37.8661 -7.13194e-15)
(5.06378 -40.0449 6.88257e-15)
(5.38567 -42.3163 2.9219e-16)
(5.70317 -44.659 -5.92834e-15)
(6.06106 -47.0966 0)
(6.37955 -49.6335 1.11459e-14)
(6.76058 -52.2636 -1.09625e-14)
(7.22601 -55.1407 -2.6772e-16)
(7.04823 -57.4458 -1.00926e-14)
(9.64585 -62.1022 9.0094e-15)
(2.17342 -59.7592 9.77767e-15)
(25.0015 -75.856 3.15238e-16)
(3.37762 -22.7172 2.20295e-14)
(4.16023 -24.9216 -1.55416e-14)
(4.67236 -26.5035 4.75085e-15)
(4.90976 -28.2535 0)
(5.1716 -30.226 0)
(5.49078 -32.0193 -8.62531e-15)
(5.77478 -33.734 1.59001e-14)
(6.05965 -35.5866 -1.53325e-14)
(6.37001 -37.6276 6.68644e-15)
(6.71017 -39.8045 1.32042e-14)
(7.08308 -42.0706 1.30798e-14)
(7.45929 -44.4077 -1.21597e-14)
(7.8899 -46.828 1.13498e-14)
(8.27707 -49.3651 1.2735e-17)
(8.75931 -51.9609 1.09769e-14)
(9.29088 -54.8537 2.5726e-16)
(9.23501 -57.1249 -1.0102e-14)
(11.9385 -61.7444 1.78696e-14)
(4.4808 -59.8019 -1.83464e-14)
(27.7955 -74.7036 -1.51016e-14)
(5.34738 -22.6814 5.67467e-15)
(6.07328 -24.7954 -4.83167e-15)
(6.47057 -26.195 1.91451e-16)
(6.59878 -27.8728 0)
(6.80755 -29.856 0)
(7.09211 -31.6457 -1.73888e-14)
(7.35053 -33.3564 1.58508e-14)
(7.63344 -35.2138 3.08666e-14)
(7.96502 -37.2648 -2.12552e-14)
(8.3439 -39.4502 -1.38619e-14)
(8.76788 -41.7184 2.5654e-14)
(9.20317 -44.0569 -4.8774e-14)
(9.7033 -46.4633 1.10975e-14)
(10.16 -49.0092 1.09085e-14)
(10.7386 -51.5647 1.09935e-14)
(11.3388 -54.4859 -9.96953e-15)
(11.4033 -56.7037 0)
(14.2045 -61.3009 1.85254e-14)
(6.85161 -59.7765 1.94785e-14)
(30.4017 -73.4183 1.57448e-14)
(7.53578 -22.2866 -1.1087e-14)
(8.11619 -24.3283 0)
(8.31795 -25.5773 2.07492e-14)
(8.30038 -27.2306 -1.88501e-14)
(8.43971 -29.2647 0)
(8.67358 -31.0858 0)
(8.89745 -32.8269 -8.15648e-15)
(9.17639 -34.7166 -3.07539e-14)
(9.53084 -36.7971 1.44669e-14)
(9.95038 -39.0045 0)
(10.4264 -41.2844 0)
(10.9233 -43.6321 1.22167e-14)
(11.4922 -46.0261 -1.16694e-14)
(12.0242 -48.5841 -1.11792e-14)
(12.6953 -51.0884 -2.20233e-14)
(13.372 -54.0463 1.99503e-14)
(13.5488 -56.1866 5.35488e-16)
(16.4428 -60.7768 5.1034e-16)
(9.21199 -59.6409 -1.82755e-14)
(32.9056 -72.0527 -1.51608e-14)
(9.8517 -21.4101 -1.0868e-14)
(10.1868 -23.4193 -2.12741e-14)
(10.111 -24.6018 -7.8747e-16)
(9.92442 -26.318 2.8047e-14)
(9.99053 -28.4578 0)
(10.1715 -30.3502 1.70752e-14)
(10.3683 -32.1547 -1.65735e-14)
(10.6543 -34.1004 1.46866e-14)
(11.0421 -36.2263 1.41535e-14)
(11.5101 -38.4656 -1.39398e-14)
(12.0435 -40.7619 1.25955e-14)
(12.6088 -43.1207 0)
(13.2493 -45.5015 -2.39645e-14)
(13.8661 -48.0743 4.48047e-14)
(14.6223 -50.5202 -4.25098e-14)
(15.3891 -53.5287 0)
(15.6679 -55.5718 -1.76749e-17)
(18.6622 -60.1728 -1.80996e-14)
(11.5458 -59.3952 3.7312e-14)
(35.503 -70.5651 -4.51198e-14)
(12.1216 -20.0176 -4.01903e-16)
(12.1275 -22.0218 2.9835e-14)
(11.7204 -23.2398 -1.8998e-14)
(11.3743 -25.1302 -9.28525e-15)
(11.3948 -27.4376 1.76309e-14)
(11.5417 -29.4372 -3.41783e-14)
(11.7313 -31.3351 1.57939e-14)
(12.0427 -33.3589 0)
(12.4797 -35.5445 3.22927e-16)
(13.0091 -37.8245 -1.33087e-14)
(13.609 -40.1426 -2.63626e-14)
(14.2504 -42.5161 2.39106e-14)
(14.9628 -44.8853 -2.39723e-14)
(15.6755 -47.4776 2.23955e-14)
(16.5059 -49.8621 2.26138e-14)
(17.3819 -52.9355 -1.99555e-14)
(17.747 -54.8624 5.98426e-14)
(20.8612 -59.4893 -1.75875e-14)
(13.8958 -59.0613 -3.63487e-14)
(37.9182 -69.0012 -2.38782e-17)
(14.1007 -18.1179 -9.68838e-15)
(13.7185 -20.1221 3.8371e-14)
(12.9715 -21.4995 7.88259e-16)
(12.5364 -23.7044 -3.64351e-14)
(12.5809 -26.2438 -1.81982e-14)
(12.7353 -28.3843 3.3192e-14)
(12.9535 -30.4061 0)
(13.3193 -32.5304 1.55814e-14)
(13.8287 -34.7899 -2.84958e-14)
(14.4362 -37.1189 0)
(15.1147 -39.4625 -2.57665e-14)
(15.8432 -41.8515 2.44928e-14)
(16.6294 -44.2076 0)
(17.4501 -46.8169 4.48066e-14)
(18.341 -49.1348 -2.15798e-14)
(19.3499 -52.278 0)
(19.7747 -54.0654 -5.99609e-14)
(23.0335 -58.7323 5.45293e-14)
(16.2482 -58.584 3.68458e-14)
(39.9264 -67.5208 5.98462e-14)
(15.5001 -15.8308 1.78412e-14)
(14.6989 -17.8047 9.55821e-15)
(13.682 -19.4919 -1.8173e-14)
(13.3143 -22.1566 -1.84167e-14)
(13.4911 -24.965 3.46418e-14)
(13.7128 -27.2602 -3.31087e-14)
(14.0087 -29.4215 1.60077e-14)
(14.4627 -31.6521 -3.11517e-14)
(15.0713 -33.9839 4.25818e-14)
(15.7788 -36.3578 2.78504e-14)
(16.5521 -38.7234 -2.51926e-14)
(17.3817 -41.1254 5.92168e-16)
(18.2461 -43.4676 -2.28762e-14)
(19.1887 -46.0897 -6.77959e-14)
(20.1245 -48.3406 4.31917e-14)
(21.2965 -51.5506 1.03932e-15)
(21.7449 -53.1808 4.02127e-14)
(25.1828 -57.8933 0)
(18.4977 -57.9339 -3.59878e-14)
(42.0191 -66.0208 2.9858e-14)
(16.0861 -13.291 0)
(14.8276 -15.2256 0)
(13.7287 -17.42 -1.89821e-14)
(13.676 -20.6452 -8.36086e-16)
(14.1052 -23.6961 5.18682e-14)
(14.4593 -26.1269 -1.63608e-14)
(14.897 -28.423 1.67501e-14)
(15.4821 -30.7515 -2.9824e-14)
(16.216 -33.1454 0)
(17.0388 -35.5557 2.72625e-14)
(17.9168 -37.936 2.58123e-14)
(18.8575 -40.3439 0)
(19.8037 -42.6694 -2.40431e-14)
(20.8829 -45.2956 4.43042e-14)
(21.8498 -47.4826 4.38175e-14)
(23.2235 -50.7444 -1.8922e-14)
(23.6536 -52.2307 -7.85471e-14)
(27.3121 -56.9731 0)
(20.7103 -57.1754 0)
(44.2629 -64.3896 3.19633e-18)
(15.5305 -10.6691 -1.68386e-14)
(13.8615 -12.6774 0)
(13.1005 -15.6198 6.04485e-16)
(13.6714 -19.3879 1.89026e-14)
(14.4463 -22.5704 -3.44361e-14)
(14.9858 -25.0847 0)
(15.6228 -27.4849 1.60859e-14)
(16.3782 -29.8845 0)
(17.2672 -32.3186 0)
(18.2252 -34.748 -2.73337e-14)
(19.2199 -37.1284 0)
(20.2805 -39.5287 2.51622e-14)
(21.3097 -41.8302 -7.0549e-14)
(22.5369 -44.4449 4.49102e-14)
(23.5199 -46.5734 -2.11386e-14)
(25.1337 -49.8592 8.18518e-14)
(25.4963 -51.213 0)
(29.4198 -55.9936 -3.6118e-14)
(22.8881 -56.3135 0)
(46.4173 -62.7081 5.99227e-14)
(13.4614 -8.19941 0)
(11.6856 -10.5731 7.47006e-16)
(11.9919 -14.4632 1.35974e-15)
(13.4239 -18.5447 -5.52487e-14)
(14.5743 -21.6695 1.71691e-14)
(15.3436 -24.1922 -1.69504e-14)
(16.2285 -26.6387 -1.62579e-14)
(17.1759 -29.0644 3.15381e-14)
(18.2369 -31.5065 -2.83975e-14)
(19.3428 -33.9336 -5.55109e-14)
(20.4633 -36.2996 2.53324e-14)
(21.6513 -38.6806 2.46349e-14)
(22.7654 -40.9542 2.35553e-14)
(24.1507 -43.5407 2.24859e-14)
(25.1362 -45.623 0)
(27.0248 -48.8951 1.05254e-15)
(27.2614 -50.1421 -7.89756e-14)
(31.5099 -54.9584 -8.16357e-16)
(25.0212 -55.3283 3.52777e-14)
(48.471 -61.0054 -6.00038e-14)
(9.49141 -6.23135 1.98184e-14)
(8.72401 -9.47671 2.18261e-14)
(10.9739 -14.2192 2.0471e-14)
(13.1402 -18.1564 -1.99418e-14)
(14.6029 -21.0276 1.70438e-14)
(15.6166 -23.4893 3.54146e-14)
(16.7737 -25.9141 -1.56003e-14)
(17.916 -28.3181 -6.28843e-14)
(19.1512 -30.7324 -1.41068e-15)
(20.4073 -33.1315 -1.31141e-15)
(21.6559 -35.4648 2.54173e-14)
(22.9743 -37.8108 -4.93918e-14)
(24.1738 -40.0501 0)
(25.7239 -42.5873 2.36262e-14)
(26.7025 -44.6416 -8.70291e-14)
(28.8933 -47.8488 3.98805e-14)
(28.9391 -49.029 4.00825e-14)
(33.5899 -53.8551 0)
(27.0889 -54.2144 -3.61767e-14)
(50.4249 -59.2991 0)
(4.15466 -5.34184 7.21438e-16)
(6.36695 -10.0249 8.34462e-16)
(10.668 -14.8283 2.12318e-14)
(12.968 -18.14 -5.94312e-14)
(14.6704 -20.6409 5.41835e-14)
(15.9023 -22.9863 1.75915e-14)
(17.3176 -25.3163 -1.66634e-14)
(18.6392 -27.6536 3.06841e-14)
(20.0423 -30.0044 2.88496e-14)
(21.4431 -32.3499 3.9038e-18)
(22.8158 -34.6322 0)
(24.2621 -36.926 -5.97434e-16)
(25.5437 -39.1242 2.30907e-14)
(27.2583 -41.589 4.61973e-14)
(28.2263 -43.638 2.18813e-15)
(30.7362 -46.7188 -8.08186e-14)
(30.5279 -47.8918 4.12701e-14)
(35.6782 -52.6627 -7.08617e-14)
(29.064 -52.9991 3.62322e-14)
(52.2786 -57.6067 0)
(0.573673 -6.65574 0)
(6.20123 -12.2751 -2.77527e-14)
(11.1699 -15.7825 -2.20654e-14)
(12.9804 -18.3341 0)
(14.9155 -20.4381 5.75823e-14)
(16.2877 -22.633 -5.27104e-14)
(17.9085 -24.8085 -6.84229e-14)
(19.3721 -27.0496 -8.32244e-16)
(20.9248 -29.3095 0)
(22.4591 -31.5817 -5.64276e-19)
(23.9491 -33.7983 2.63009e-14)
(25.5193 -36.0244 0)
(26.8797 -38.1768 4.86004e-14)
(28.7514 -40.546 -9.03121e-14)
(29.7107 -42.6163 4.25304e-14)
(32.5442 -45.5045 -4.76318e-18)
(32.0331 -46.7548 -4.02557e-14)
(37.7991 -51.3746 3.58374e-14)
(30.9089 -51.6981 -3.78032e-14)
(54.0503 -55.9603 5.87344e-14)
(2.52884 -8.91345 0)
(7.69835 -14.1817 0)
(12.0682 -16.2853 -4.59845e-14)
(13.2854 -18.4726 8.23572e-14)
(15.3934 -20.2288 -7.61339e-14)
(16.8078 -22.3095 1.82608e-14)
(18.5721 -24.3237 6.86118e-14)
(20.1388 -26.4713 3.30095e-14)
(21.8142 -28.6303 -2.94044e-14)
(23.4649 -30.817 2.82188e-14)
(25.0607 -32.9574 -5.35666e-14)
(26.7473 -35.1003 2.43315e-14)
(28.1828 -37.2031 4.87084e-14)
(30.199 -39.4538 4.74414e-14)
(31.1529 -41.5719 -4.25432e-14)
(34.2895 -44.1958 3.99437e-14)
(33.4355 -45.6438 8.06746e-14)
(39.9649 -49.9456 -3.48063e-14)
(32.5719 -50.2616 0)
(55.7898 -54.4406 0)
(5.15542 -8.54589 0)
(9.14881 -14.5488 2.5957e-14)
(13.051 -15.8262 -2.16251e-14)
(13.8932 -18.3106 -4.33028e-14)
(16.0498 -19.8344 1.74893e-14)
(17.4699 -21.9208 3.60496e-14)
(19.3237 -23.7941 6.20274e-18)
(20.9704 -25.8717 0)
(22.7362 -27.9381 0)
(24.4843 -30.0467 5.71454e-14)
(26.1671 -32.1083 1.27369e-15)
(27.955 -34.1541 -4.9202e-14)
(29.4555 -36.2047 0)
(31.5973 -38.3098 -9.03386e-14)
(32.5553 -40.4979 4.4648e-14)
(35.9365 -42.7712 -1.21834e-13)
(34.6569 -44.6617 4.02192e-14)
(42.1466 -48.2318 3.66352e-14)
(33.8853 -48.7886 -7.36773e-14)
(57.5838 -53.2548 5.823e-14)
(8.654 -4.28209 -8.13285e-16)
(10.7068 -14.1178 -2.37105e-14)
(14.5432 -14.7781 -2.16214e-14)
(14.9015 -17.8882 2.0687e-14)
(17.1984 -19.1911 3.91874e-14)
(18.5269 -21.2681 -3.47424e-14)
(20.3345 -22.98 -3.33517e-14)
(21.9706 -25.0162 3.19452e-14)
(23.755 -27.0402 -2.83522e-14)
(25.5393 -29.116 -2.78651e-14)
(27.2718 -31.1396 5.11405e-14)
(29.1336 -33.1017 5.82412e-16)
(30.6885 -35.1283 -4.7224e-14)
(32.9216 -37.0546 4.2938e-14)
(33.9246 -39.3634 0)
(37.4376 -41.1584 4.01271e-14)
(35.9871 -43.7321 1.15579e-15)
(44.2306 -46.0213 -3.40738e-14)
(34.664 -47.5519 0)
(59.3824 -52.6375 -5.68814e-14)
(12.1366 -2.17919 2.38194e-14)
(10.9434 -12.1053 -4.5238e-17)
(15.8346 -13.0153 1.82081e-14)
(16.1859 -16.2237 -3.448e-14)
(18.5933 -17.7731 -5.15444e-16)
(19.8366 -19.9757 1.56295e-14)
(21.5814 -21.8718 4.55811e-16)
(23.0626 -24.0261 2.11441e-17)
(24.7276 -26.1792 -2.51234e-14)
(26.4163 -28.3396 -2.3432e-14)
(28.1024 -30.4445 6.7528e-16)
(29.9384 -32.4148 -2.07427e-14)
(31.5197 -34.506 0)
(33.7356 -36.3156 7.53005e-14)
(34.8171 -38.78 0)
(38.2227 -40.1899 -3.48052e-14)
(37.0229 -43.3983 3.35558e-14)
(45.1117 -44.3592 3.0224e-14)
(35.6183 -47.7475 -4.70593e-16)
(60.0098 -51.1369 3.4011e-16)
(12.3542 -2.33984 0)
(10.8594 -11.8732 1.59851e-14)
(15.9479 -12.9069 0)
(16.2704 -16.0317 1.40189e-14)
(18.7402 -17.6015 0)
(19.9767 -19.7644 -2.51858e-14)
(21.7261 -21.6579 3.8093e-16)
(23.205 -23.8025 -3.396e-16)
(24.8772 -25.964 2.07944e-14)
(26.5712 -28.1309 1.9362e-14)
(28.2649 -30.2485 -1.84332e-14)
(30.1008 -32.2189 3.46562e-14)
(31.6942 -34.3265 0)
(33.895 -36.1121 -3.20747e-14)
(35.0114 -38.6167 5.00295e-16)
(38.3629 -39.944 2.55463e-17)
(37.2215 -43.3035 -4.3845e-16)
(45.2431 -44.0093 -2.62177e-14)
(35.8666 -47.8335 -2.32751e-14)
(60.1486 -50.8388 -1.87253e-14)
(12.4275 -2.75888 2.81071e-16)
(10.7902 -11.6431 -2.40793e-16)
(16.0931 -12.8026 0)
(16.4179 -15.8138 1.45222e-14)
(18.9437 -17.4066 1.28117e-14)
(20.1681 -19.5309 2.48449e-14)
(21.9148 -21.4317 7.44402e-16)
(23.3847 -23.5695 1.77818e-17)
(25.0579 -25.7414 -3.17229e-16)
(26.7512 -27.9163 -3.87803e-14)
(28.4493 -30.0495 8.56746e-18)
(30.2815 -32.0229 -3.46848e-14)
(31.8856 -34.1488 2.51947e-16)
(34.0663 -35.9145 -5.13166e-16)
(35.2209 -38.459 -3.06844e-14)
(38.5034 -39.7067 3.00274e-14)
(37.4754 -43.2071 4.6298e-16)
(45.3584 -43.6581 -3.91414e-16)
(36.1647 -47.9269 2.35734e-14)
(60.2644 -50.4903 3.75578e-14)
(12.4626 -3.20365 0)
(10.7819 -11.4002 0)
(16.2656 -12.6658 1.45714e-14)
(16.6099 -15.5578 -1.40949e-14)
(19.1689 -17.1824 -1.28022e-14)
(20.3787 -19.2754 -3.88118e-16)
(22.1148 -21.1902 -2.34826e-14)
(23.5747 -23.3241 -7.0026e-16)
(25.2474 -25.5077 3.17825e-16)
(26.9388 -27.6914 1.94216e-14)
(28.6396 -29.8412 3.63474e-14)
(30.4661 -31.8199 7.11296e-18)
(32.0802 -33.9643 1.65182e-14)
(34.2381 -35.7136 0)
(35.4326 -38.2943 3.06608e-14)
(38.6413 -39.4719 4.56869e-16)
(37.7363 -43.0979 2.8644e-14)
(45.4714 -43.2992 2.59724e-14)
(36.4678 -47.9984 3.84289e-16)
(60.4021 -50.1359 -1.88215e-14)
(12.5012 -3.62981 1.65571e-14)
(10.835 -11.1665 -1.74072e-17)
(16.4546 -12.5199 2.21927e-16)
(16.8266 -15.2911 -4.52379e-16)
(19.3993 -16.951 -1.28331e-14)
(20.5918 -19.0161 -1.26724e-14)
(22.3118 -20.9472 2.35308e-14)
(23.7633 -23.0775 3.41898e-16)
(25.436 -25.2711 2.0899e-14)
(27.1266 -27.4628 0)
(28.8306 -29.6284 -1.81923e-14)
(30.6508 -31.6136 3.44506e-14)
(32.2756 -33.7755 -1.65277e-14)
(34.409 -35.5116 0)
(35.6458 -38.1242 -4.99942e-16)
(38.776 -39.2401 -2.96384e-14)
(38.005 -42.9755 -2.86229e-14)
(45.58 -42.9427 -2.56115e-14)
(36.7731 -48.0529 -3.59493e-16)
(60.5626 -49.7747 2.95981e-16)
(12.5605 -4.02714 -3.33692e-14)
(10.9436 -10.9392 1.61756e-14)
(16.655 -12.3664 -1.47735e-17)
(17.0597 -15.0178 2.13951e-16)
(19.6291 -16.7149 2.64957e-14)
(20.8019 -18.7558 1.22796e-14)
(22.5016 -20.7051 -2.31841e-14)
(23.947 -22.8321 -3.42383e-16)
(25.621 -25.0336 -2.09397e-14)
(27.3125 -27.2317 -3.11433e-16)
(29.0203 -29.412 2.77574e-16)
(30.8341 -31.4043 -1.7239e-14)
(32.4703 -33.5827 -1.62599e-14)
(34.5779 -35.3087 -2.44591e-16)
(35.8595 -37.9485 3.11352e-14)
(38.9078 -39.0105 3.01349e-14)
(38.2805 -42.8434 2.90296e-14)
(45.6806 -42.5914 -3.9381e-16)
(37.0814 -48.0925 -2.36391e-14)
(60.7443 -49.4021 2.82464e-16)
(12.6475 -4.39733 1.62663e-14)
(11.1031 -10.718 -1.62279e-14)
(16.8661 -12.2066 -2.90472e-14)
(17.304 -14.7407 0)
(19.8544 -16.4768 -4.2912e-18)
(21.0051 -18.4977 -4.12322e-16)
(22.6814 -20.4669 2.43418e-14)
(24.1234 -22.5906 3.60789e-16)
(25.8006 -24.7973 -3.19165e-16)
(27.4949 -27 0)
(29.2078 -29.1934 0)
(31.0152 -31.1933 1.7243e-14)
(32.6637 -33.3866 1.65353e-14)
(34.7446 -35.1055 3.21345e-14)
(36.0733 -37.7675 -6.27785e-14)
(39.0369 -38.7839 4.58351e-16)
(38.5613 -42.7033 -2.85481e-14)
(45.7722 -42.2451 0)
(37.3926 -48.1222 2.78243e-17)
(60.9471 -49.0151 -1.91731e-14)
(12.7653 -4.74574 1.60846e-14)
(11.3084 -10.502 1.67454e-14)
(17.0856 -12.0418 1.45036e-14)
(17.5576 -14.4617 1.41702e-14)
(20.0711 -16.2393 -2.69547e-14)
(21.1971 -18.245 -1.19306e-14)
(22.848 -20.2356 1.91969e-17)
(24.2901 -22.3559 -2.28962e-14)
(25.9731 -24.5648 0)
(27.6723 -26.7695 1.94939e-14)
(29.3916 -28.9741 -2.91529e-16)
(31.1931 -30.9816 -1.67184e-14)
(32.8548 -33.1879 -2.52213e-16)
(34.9086 -34.9025 -8.96423e-18)
(36.2866 -37.5818 3.11454e-14)
(39.1633 -38.5609 0)
(38.8469 -42.5552 0)
(45.8543 -41.9037 -2.62503e-14)
(37.7074 -48.1431 2.69019e-17)
(61.1711 -48.6103 -4.93313e-17)
(12.9156 -5.07829 -3.23997e-14)
(11.5549 -10.2954 -1.65007e-14)
(17.3103 -11.8736 -1.44666e-14)
(17.8137 -14.1837 -1.41766e-14)
(20.2745 -16.0054 2.65434e-14)
(21.3734 -18.0012 0)
(22.9984 -20.0143 0)
(24.4448 -22.131 2.12705e-18)
(26.1366 -24.3387 0)
(27.8432 -26.5423 -1.95015e-14)
(29.5706 -28.7554 -1.79247e-14)
(31.3667 -30.7704 -1.75166e-14)
(33.043 -32.9875 -1.68002e-14)
(35.0695 -34.7004 -6.41085e-14)
(36.4989 -37.3917 0)
(39.2869 -38.3417 0)
(39.1371 -42.3994 0)
(45.9267 -41.5675 2.63086e-14)
(38.0274 -48.1571 4.6096e-14)
(61.4171 -48.1841 1.94016e-14)
(13.1003 -5.40002 1.60417e-14)
(11.8388 -10.0944 0)
(17.5363 -11.7047 1.44448e-14)
(18.0658 -13.9102 4.53546e-16)
(20.4589 -15.7791 -1.36849e-14)
(21.5298 -17.7701 0)
(23.1298 -19.8064 0)
(24.5853 -21.9189 2.26057e-14)
(26.2896 -24.1215 3.36068e-16)
(28.0062 -26.3206 -6.09046e-16)
(29.7434 -28.5393 1.84931e-14)
(31.5353 -30.5608 1.7256e-14)
(33.2272 -32.7863 1.65387e-14)
(35.2268 -34.4999 3.16813e-14)
(36.7096 -37.1978 -2.52516e-17)
(39.4069 -38.1254 4.59855e-16)
(39.4313 -42.2357 0)
(45.9888 -41.2367 0)
(38.3549 -48.1657 -2.29995e-14)
(61.6869 -47.7311 0)