/*--------------------------------*- C++ -*----------------------------------*\
  =========                 |
  \\      /  F ield         | OpenFOAM: The Open Source CFD Toolbox
   \\    /   O peration     | Website:  https://openfoam.org
    \\  /    A nd           | Version:  10
     \\/     M anipulation  |
\*---------------------------------------------------------------------------*/
FoamFile
{
    format      ascii;
    class       volVectorField;
    location    "31000";
    object      Urel;
}
// * * * * * * * * * * * * * * * * * * * * * * * * * * * * * * * * * * * * * //

dimensions      [0 1 -1 0 0 0 0];

internalField   nonuniform List<vector> 
17808
(
(4.06694 -4.45852 -7.51727e-18)
(3.69263 -4.04428 -8.40653e-19)
(3.52649 -3.86153 5.43691e-18)
(3.41173 -3.73924 5.82826e-18)
(3.32524 -3.64476 -1.36434e-18)
(3.25513 -3.56846 -9.58738e-18)
(3.19624 -3.50414 4.80289e-18)
(3.14529 -3.44839 -5.08748e-18)
(3.10026 -3.39904 8.54434e-18)
(3.05981 -3.35465 -2.16028e-21)
(3.02298 -3.31421 -3.84531e-18)
(2.98911 -3.27696 2.74433e-18)
(2.95768 -3.24238 -3.93254e-18)
(2.92829 -3.21003 4.17855e-19)
(2.90064 -3.17959 0)
(2.8745 -3.15079 3.84664e-19)
(2.84966 -3.12342 -7.40132e-19)
(2.82597 -3.09729 -7.13115e-19)
(2.80328 -3.07228 -3.09496e-18)
(2.78149 -3.04824 2.8274e-21)
(2.76049 -3.02509 2.57383e-18)
(2.74022 -3.00272 0)
(2.7206 -2.98107 2.41374e-18)
(2.70156 -2.96006 -2.34512e-18)
(2.68306 -2.93964 2.27486e-18)
(2.66505 -2.91975 -2.76736e-18)
(2.64748 -2.90036 -5.38102e-19)
(2.63032 -2.88142 0)
(2.61353 -2.8629 -5.10307e-19)
(2.5971 -2.84475 -4.9735e-19)
(2.58098 -2.82696 1.93866e-18)
(2.56516 -2.8095 -1.42129e-18)
(2.54961 -2.79234 0)
(2.53431 -2.77546 0)
(2.51926 -2.75884 4.40771e-19)
(2.50442 -2.74247 2.15244e-18)
(2.48978 -2.72632 -1.26502e-18)
(2.47534 -2.71039 0)
(2.46107 -2.69465 -1.60998e-18)
(2.44697 -2.67909 3.10431e-21)
(2.43301 -2.66371 2.31619e-18)
(2.41921 -2.64848 2.26401e-18)
(2.40553 -2.63341 -1.48027e-18)
(2.39198 -2.61847 7.2388e-19)
(2.37855 -2.60367 0)
(2.36522 -2.58898 -6.94222e-19)
(2.35199 -2.57441 2.03828e-18)
(2.33886 -2.55994 -2.66567e-18)
(2.32581 -2.54557 6.524e-19)
(2.31284 -2.53128 0)
(2.29994 -2.51708 0)
(2.28711 -2.50296 1.83804e-18)
(2.27434 -2.48891 -6.02339e-19)
(2.26163 -2.47493 0)
(2.24897 -2.461 5.76298e-19)
(2.23635 -2.44713 5.64451e-19)
(2.22378 -2.4333 -5.52788e-19)
(2.21125 -2.41952 -5.41301e-19)
(2.19875 -2.40578 -5.30014e-19)
(2.18627 -2.39207 1.03613e-18)
(2.17383 -2.3784 -1.67597e-21)
(2.1614 -2.36475 9.92672e-19)
(2.14899 -2.35112 -9.74823e-19)
(2.1366 -2.33751 -9.52187e-19)
(2.12421 -2.32391 -1.86133e-18)
(2.11183 -2.31032 9.11125e-19)
(2.09946 -2.29674 -1.7838e-18)
(2.08708 -2.28316 1.74244e-18)
(2.0747 -2.26958 0)
(2.06232 -2.25599 8.32362e-19)
(2.04992 -2.2424 1.62486e-18)
(2.03752 -2.22879 -7.97954e-19)
(2.02509 -2.21517 -7.77676e-19)
(2.01265 -2.20153 7.57647e-19)
(2.00018 -2.18787 -1.72978e-21)
(1.98769 -2.17418 -2.16524e-18)
(1.97518 -2.16047 1.41006e-18)
(1.96263 -2.14673 0)
(1.95005 -2.13295 -6.7144e-19)
(1.93743 -2.11913 -1.96024e-18)
(1.92477 -2.10527 0)
(1.91208 -2.09137 0)
(1.89933 -2.07742 1.20733e-18)
(1.88654 -2.06343 0)
(1.8737 -2.04938 1.14416e-18)
(1.86081 -2.03527 0)
(1.84786 -2.0211 -2.4731e-23)
(1.83485 -2.00687 0)
(1.82177 -1.99258 0)
(1.80864 -1.97822 9.94777e-19)
(1.79543 -1.96378 1.93281e-18)
(1.78215 -1.94927 1.87704e-18)
(4.05371 -4.45933 -8.40185e-19)
(3.68374 -4.04509 8.31874e-19)
(3.51719 -3.86515 0)
(3.40403 -3.74278 0)
(3.31821 -3.64876 1.35816e-18)
(3.24842 -3.57296 -6.34992e-19)
(3.18969 -3.50906 4.76439e-18)
(3.13881 -3.45367 -3.92364e-18)
(3.09381 -3.40461 -5.28955e-19)
(3.05335 -3.36044 4.00332e-18)
(3.01651 -3.32017 -4.27793e-18)
(2.98261 -3.28307 9.0466e-19)
(2.95116 -3.24859 4.31594e-19)
(2.92175 -3.21632 -4.12753e-19)
(2.89409 -3.18594 0)
(2.86794 -3.15717 -3.79797e-19)
(2.8431 -3.12982 3.65305e-19)
(2.8194 -3.10371 3.51932e-19)
(2.79671 -3.0787 0)
(2.77492 -3.05466 0)
(2.75393 -3.0315 0)
(2.73367 -3.00912 -6.14611e-19)
(2.71405 -2.98745 0)
(2.69503 -2.96642 -5.78257e-19)
(2.67654 -2.94598 0)
(2.65854 -2.92608 5.46041e-19)
(2.64099 -2.90666 5.31291e-19)
(2.62384 -2.88769 0)
(2.60708 -2.86914 -2.01423e-18)
(2.59066 -2.85096 4.94196e-19)
(2.57456 -2.83315 1.43893e-18)
(2.55876 -2.81565 -4.67604e-19)
(2.54323 -2.79846 1.82479e-18)
(2.52796 -2.78155 -4.01379e-18)
(2.51292 -2.76491 1.30891e-18)
(2.4981 -2.7485 -4.2602e-19)
(2.48349 -2.73232 -8.3323e-19)
(2.46907 -2.71636 0)
(2.45482 -2.70058 0)
(2.44074 -2.685 1.94976e-18)
(2.42682 -2.66958 -1.5297e-18)
(2.41304 -2.65432 -4.00389e-23)
(2.39939 -2.63922 -7.3267e-19)
(2.38586 -2.62425 -1.43519e-18)
(2.37245 -2.60941 -7.01381e-19)
(2.35915 -2.59469 2.06761e-18)
(2.34595 -2.58009 -1.34791e-18)
(2.33284 -2.56559 1.98508e-18)
(2.31981 -2.55118 -1.94201e-18)
(2.30687 -2.53687 1.27138e-18)
(2.294 -2.52264 -1.24272e-18)
(2.2812 -2.50848 1.22105e-18)
(2.26846 -2.4944 -5.97508e-19)
(2.25577 -2.48038 0)
(2.24314 -2.46642 -5.73751e-19)
(2.23055 -2.45252 0)
(2.21801 -2.43866 0)
(2.2055 -2.42485 5.39635e-19)
(2.19303 -2.41108 1.68202e-21)
(2.18059 -2.39734 1.03725e-18)
(2.16817 -2.38363 -1.0142e-18)
(2.15577 -2.36995 9.93163e-19)
(2.14339 -2.35629 0)
(2.13103 -2.34265 0)
(2.11867 -2.32902 1.86187e-18)
(2.10632 -2.3154 -9.11889e-19)
(2.09398 -2.30179 1.7862e-18)
(2.08163 -2.28818 -1.73816e-21)
(2.06928 -2.27456 -8.55419e-19)
(2.05693 -2.26095 0)
(2.04456 -2.24732 -1.63052e-18)
(2.03219 -2.23368 3.19077e-18)
(2.01979 -2.22003 -3.48044e-21)
(2.00738 -2.20636 -3.48443e-21)
(1.99495 -2.19267 -1.73372e-21)
(1.98249 -2.17895 7.24508e-19)
(1.97 -2.16521 -1.41965e-18)
(1.95749 -2.15143 6.91876e-19)
(1.94494 -2.13762 1.34832e-18)
(1.93235 -2.12377 -6.60143e-19)
(1.91973 -2.10988 6.40245e-19)
(1.90706 -2.09595 -1.87915e-18)
(1.89435 -2.08197 1.82778e-18)
(1.88159 -2.06794 -3.48007e-21)
(1.86879 -2.05386 -1.1572e-18)
(1.85592 -2.03972 5.65053e-19)
(1.84301 -2.02552 -2.19307e-18)
(1.83003 -2.01126 0)
(1.81699 -1.99694 0)
(1.80389 -1.98254 -2.01801e-18)
(1.79071 -1.96807 -1.46944e-18)
(1.77747 -1.95353 -9.4959e-19)
(4.04129 -4.46554 1.67955e-18)
(3.67149 -4.0514 1.32778e-17)
(3.5051 -3.87175 -2.47909e-17)
(3.39338 -3.7485 1.15757e-17)
(3.30817 -3.65458 -6.74389e-19)
(3.23899 -3.57881 0)
(3.18078 -3.51494 0)
(3.13032 -3.45961 0)
(3.08565 -3.41063 -7.84673e-18)
(3.04546 -3.36655 7.9223e-18)
(3.00882 -3.32635 4.69511e-19)
(2.97509 -3.28932 9.55998e-23)
(2.94376 -3.2549 6.81423e-18)
(2.91446 -3.22268 -1.34411e-17)
(2.88689 -3.19233 6.2461e-18)
(2.8608 -3.1636 5.61576e-18)
(2.83601 -3.13627 -5.40572e-18)
(2.81236 -3.11018 0)
(2.78971 -3.08517 0)
(2.76796 -3.06114 0)
(2.74701 -3.03797 0)
(2.72677 -3.01559 1.21155e-18)
(2.70719 -2.99391 0)
(2.68819 -2.97287 5.69949e-19)
(2.66973 -2.95241 0)
(2.65175 -2.93249 -5.38234e-19)
(2.63423 -2.91305 0)
(2.61711 -2.89406 2.03811e-18)
(2.60037 -2.87548 -1.98864e-18)
(2.58397 -2.85729 4.84349e-19)
(2.5679 -2.83944 -4.7249e-19)
(2.55212 -2.82192 2.30443e-18)
(2.53662 -2.8047 -2.92364e-21)
(2.52137 -2.78777 -1.32136e-18)
(2.50636 -2.77109 1.28856e-18)
(2.49157 -2.75466 -1.26277e-18)
(2.47698 -2.73845 4.11231e-19)
(2.46259 -2.72245 0)
(2.44837 -2.70665 0)
(2.43431 -2.69103 -2.3112e-18)
(2.42041 -2.67558 3.04554e-21)
(2.40666 -2.6603 3.02954e-21)
(2.39303 -2.64516 2.17394e-18)
(2.37954 -2.63016 -1.4173e-18)
(2.36615 -2.61529 6.96679e-19)
(2.35288 -2.60054 0)
(2.3397 -2.5859 0)
(2.32662 -2.57137 0)
(2.31363 -2.55693 1.59456e-21)
(2.30071 -2.54259 6.30359e-19)
(2.28787 -2.52833 0)
(2.2751 -2.51414 6.042e-19)
(2.26238 -2.50003 -1.18297e-18)
(2.24973 -2.48598 1.74346e-18)
(2.23712 -2.47199 1.13664e-18)
(2.22457 -2.45805 -1.11737e-18)
(2.21205 -2.44416 -1.09191e-18)
(2.19958 -2.43032 5.37538e-19)
(2.18713 -2.41651 -5.2515e-19)
(2.17472 -2.40275 5.14565e-19)
(2.16233 -2.38901 1.00833e-18)
(2.14997 -2.37529 -9.87795e-19)
(2.13762 -2.3616 0)
(2.12528 -2.34793 0)
(2.11296 -2.33426 -2.19738e-23)
(2.10064 -2.32061 -1.81511e-18)
(2.08832 -2.30697 8.90917e-19)
(2.07601 -2.29333 -8.68523e-19)
(2.06369 -2.27968 2.55455e-18)
(2.05137 -2.26603 -1.73392e-21)
(2.03904 -2.25238 8.14749e-19)
(2.02669 -2.23871 -7.96718e-19)
(2.01433 -2.22502 0)
(2.00195 -2.21132 0)
(1.98955 -2.1976 0)
(1.97712 -2.18385 7.24919e-19)
(1.96467 -2.17007 -7.11416e-19)
(1.95218 -2.15626 -6.92919e-19)
(1.93967 -2.14242 0)
(1.92712 -2.12854 0)
(1.91452 -2.11462 -1.92976e-18)
(1.90189 -2.10066 3.14127e-18)
(1.88921 -2.08664 -2.40496e-23)
(1.87649 -2.07258 0)
(1.86372 -2.05847 -5.79609e-19)
(1.85089 -2.0443 3.48744e-21)
(1.838 -2.03006 5.53155e-19)
(1.82506 -2.01577 -1.07347e-18)
(1.81206 -2.00141 -1.0446e-18)
(1.79899 -1.98698 1.52254e-18)
(1.78585 -1.97248 -3.45412e-21)
(1.77265 -1.9579 4.78601e-19)
(4.0304 -4.47465 1.17525e-17)
(3.66039 -4.06038 1.24111e-17)
(3.49455 -3.87983 -1.31096e-17)
(3.38347 -3.75596 7.18773e-19)
(3.2984 -3.66198 0)
(3.22954 -3.58599 0)
(3.1716 -3.52197 0)
(3.12139 -3.46653 8.78431e-18)
(3.07695 -3.41746 -1.65588e-17)
(3.03696 -3.37332 1.56529e-17)
(3.00052 -3.33308 -7.42384e-18)
(2.96695 -3.29601 6.61267e-18)
(2.93577 -3.26157 -6.73026e-18)
(2.9066 -3.22934 4.01791e-19)
(2.87914 -3.19898 6.53958e-18)
(2.85315 -3.17024 -5.54267e-18)
(2.82845 -3.14291 5.67864e-18)
(2.80487 -3.11681 -3.4751e-19)
(2.78229 -3.0918 -5.28046e-18)
(2.7606 -3.06776 -3.18628e-19)
(2.7397 -3.04458 0)
(2.71952 -3.02218 -1.19372e-18)
(2.69998 -3.00049 0)
(2.68103 -2.97944 0)
(2.6626 -2.95896 -4.90635e-18)
(2.64467 -2.93902 4.2453e-18)
(2.62717 -2.91956 0)
(2.61009 -2.90055 0)
(2.59338 -2.88195 0)
(2.57702 -2.86373 -9.54785e-19)
(2.56098 -2.84586 4.65764e-19)
(2.54523 -2.82832 0)
(2.52976 -2.81107 0)
(2.51454 -2.79411 0)
(2.49956 -2.77741 -2.54175e-18)
(2.4848 -2.76094 3.73559e-18)
(2.47024 -2.74471 0)
(2.45587 -2.72868 0)
(2.44169 -2.71285 0)
(2.42766 -2.6972 3.4218e-18)
(2.41379 -2.68173 -6.01268e-21)
(2.40006 -2.66641 -7.30152e-18)
(2.38647 -2.65124 5.0077e-18)
(2.373 -2.63621 -2.10617e-18)
(2.35965 -2.62131 0)
(2.3464 -2.60653 6.73494e-19)
(2.33326 -2.59186 2.63792e-18)
(2.3202 -2.5773 -2.59244e-18)
(2.30724 -2.56283 -6.34714e-19)
(2.29435 -2.54845 3.10862e-18)
(2.28154 -2.53416 -1.2253e-18)
(2.2688 -2.51994 -1.20006e-18)
(2.25611 -2.50579 -1.17525e-18)
(2.24349 -2.49171 -1.61828e-21)
(2.23092 -2.47769 -1.69438e-18)
(2.21839 -2.46372 0)
(2.20591 -2.4498 5.40832e-19)
(2.19346 -2.43593 -1.06531e-18)
(2.18105 -2.42209 -1.56247e-18)
(2.16867 -2.40829 5.12724e-19)
(2.15631 -2.39452 1.00183e-18)
(2.14397 -2.38077 1.66746e-21)
(2.13166 -2.36705 3.36485e-21)
(2.11935 -2.35334 9.44272e-19)
(2.10706 -2.33965 -9.23367e-19)
(2.09477 -2.32596 9.04361e-19)
(2.08249 -2.31229 0)
(2.07021 -2.29861 -8.65387e-19)
(2.05792 -2.28494 -8.4538e-19)
(2.04563 -2.27126 1.71123e-21)
(2.03333 -2.25757 -1.624e-18)
(2.02102 -2.24387 1.59213e-18)
(2.00869 -2.23015 0)
(1.99634 -2.21641 -1.73527e-21)
(1.98397 -2.20266 -1.48864e-18)
(1.97158 -2.18888 7.26592e-19)
(1.95916 -2.17507 7.09949e-19)
(1.94671 -2.16123 6.93475e-19)
(1.93423 -2.14735 0)
(1.92171 -2.13344 0)
(1.90915 -2.11948 1.29055e-18)
(1.89656 -2.10549 -2.51836e-18)
(1.88391 -2.09144 -1.22823e-18)
(1.87122 -2.07735 1.19764e-18)
(1.85848 -2.0632 1.74945e-18)
(1.84569 -2.04899 5.67097e-19)
(1.83284 -2.03473 1.10837e-18)
(1.81994 -2.0204 5.37973e-19)
(1.80697 -2.00601 1.04739e-18)
(1.79393 -1.99154 -5.13114e-19)
(1.78083 -1.97701 4.95784e-19)
(1.76766 -1.9624 -3.49039e-21)
(4.01902 -4.48424 1.42531e-17)
(3.6493 -4.06985 -1.32027e-17)
(3.48431 -3.88827 -1.15024e-17)
(3.37361 -3.76408 2.14165e-17)
(3.28874 -3.66993 -9.96792e-18)
(3.22015 -3.5937 1.05239e-17)
(3.16241 -3.52952 -1.85261e-17)
(3.11238 -3.47395 5.83348e-21)
(3.06809 -3.42477 8.18583e-18)
(3.02825 -3.38054 0)
(2.99194 -3.34022 0)
(2.9585 -3.3031 -4.35251e-19)
(2.92744 -3.2686 -4.14798e-19)
(2.89838 -3.23633 3.96275e-19)
(2.87102 -3.20593 3.48673e-23)
(2.84513 -3.17716 -3.64043e-19)
(2.82051 -3.1498 -6.99854e-19)
(2.79702 -3.12367 -1.90861e-23)
(2.77451 -3.09864 0)
(2.75289 -3.07458 3.13866e-19)
(2.73206 -3.05138 4.85415e-18)
(2.71193 -3.02896 -4.11795e-18)
(2.69245 -3.00725 0)
(2.67355 -2.98617 4.97491e-18)
(2.65517 -2.96568 -3.7635e-18)
(2.63728 -2.94571 -4.17599e-18)
(2.61984 -2.92623 4.06898e-18)
(2.60279 -2.9072 4.94963e-19)
(2.58613 -2.88858 0)
(2.5698 -2.87033 4.70356e-19)
(2.5538 -2.85244 0)
(2.53809 -2.83486 0)
(2.52265 -2.81759 -3.49824e-18)
(2.50747 -2.8006 2.99659e-18)
(2.49252 -2.78387 -8.36257e-19)
(2.47779 -2.76738 -3.26876e-18)
(2.46327 -2.75112 2.80382e-18)
(2.44893 -2.73506 -3.91627e-19)
(2.43477 -2.7192 -3.06451e-18)
(2.42078 -2.70352 3.007e-18)
(2.40694 -2.68802 -2.93975e-18)
(2.39325 -2.67267 3.60712e-18)
(2.37969 -2.65747 -2.82265e-18)
(2.36625 -2.64241 6.03675e-21)
(2.35293 -2.62748 4.75164e-18)
(2.33971 -2.61267 -3.33083e-18)
(2.3266 -2.59797 0)
(2.31358 -2.58337 2.55705e-18)
(2.30064 -2.56887 -2.51402e-18)
(2.28779 -2.55446 0)
(2.27501 -2.54014 -6.03913e-19)
(2.26229 -2.52589 1.18478e-18)
(2.24964 -2.51171 -2.32114e-18)
(2.23705 -2.49759 5.12991e-18)
(2.22451 -2.48354 -1.6805e-18)
(2.21201 -2.46954 -5.48392e-19)
(2.19956 -2.45559 2.68614e-18)
(2.18715 -2.44168 1.04852e-18)
(2.17477 -2.42781 5.1078e-19)
(2.16242 -2.41398 -6.5941e-21)
(2.15009 -2.40017 -5.96882e-18)
(2.13779 -2.38639 -9.68651e-19)
(2.1255 -2.37264 6.68663e-21)
(2.11323 -2.3589 1.87746e-18)
(2.10097 -2.34517 -2.75152e-18)
(2.08872 -2.33146 -1.7928e-18)
(2.07647 -2.31775 5.10393e-21)
(2.06422 -2.30404 8.65123e-19)
(2.05197 -2.29033 -8.43843e-19)
(2.03971 -2.27661 1.65751e-18)
(2.02744 -2.26289 0)
(2.01516 -2.24916 -1.58465e-18)
(2.00287 -2.23541 7.7785e-19)
(1.99056 -2.22164 1.74709e-21)
(1.97822 -2.20785 1.48685e-18)
(1.96587 -2.19404 -7.26056e-19)
(1.95348 -2.18019 0)
(1.94107 -2.16632 -1.38718e-18)
(1.92862 -2.15241 0)
(1.91613 -2.13846 -1.32371e-18)
(1.90361 -2.12448 0)
(1.89105 -2.11045 6.32634e-19)
(1.87844 -2.09637 6.17394e-19)
(1.86579 -2.08224 -1.80005e-18)
(1.85309 -2.06805 -5.84001e-19)
(1.84033 -2.05381 -1.7115e-18)
(1.82752 -2.03952 -5.54843e-19)
(1.81465 -2.02515 1.08466e-18)
(1.80172 -2.01072 -5.26482e-19)
(1.78872 -1.99623 1.03219e-18)
(1.77566 -1.98166 -4.98898e-19)
(1.76252 -1.96701 -1.46324e-18)
(4.00697 -4.49409 0)
(3.63773 -4.07945 0)
(3.47362 -3.89694 1.14418e-17)
(3.3632 -3.77255 -6.04812e-21)
(3.27862 -3.67815 -1.12034e-17)
(3.21032 -3.6017 9.19778e-18)
(3.1528 -3.53738 -8.59658e-18)
(3.10295 -3.48168 0)
(3.05884 -3.43239 -5.05365e-19)
(3.01916 -3.38807 -8.10784e-18)
(2.98299 -3.34767 7.23356e-18)
(2.94969 -3.31048 8.58698e-19)
(2.91874 -3.27592 4.08998e-19)
(2.88979 -3.24359 -7.0286e-18)
(2.86254 -3.21315 5.61169e-18)
(2.83674 -3.18433 3.58672e-19)
(2.81222 -3.15693 3.44714e-19)
(2.78881 -3.13077 5.9713e-18)
(2.76639 -3.1057 -5.46472e-21)
(2.74484 -3.08161 -9.89082e-18)
(2.72407 -3.05838 4.78527e-18)
(2.70402 -3.03593 0)
(2.6846 -3.01419 -4.48645e-18)
(2.66575 -2.99309 5.46373e-21)
(2.64743 -2.97257 4.2346e-18)
(2.6296 -2.95258 5.14327e-19)
(2.6122 -2.93307 4.00117e-18)
(2.59521 -2.91401 -8.77336e-18)
(2.57858 -2.89536 7.6002e-18)
(2.56231 -2.87709 -5.54083e-21)
(2.54634 -2.85917 -4.07116e-18)
(2.53067 -2.84157 0)
(2.51528 -2.82427 0)
(2.50013 -2.80725 4.21418e-19)
(2.48522 -2.79049 4.12068e-19)
(2.47053 -2.77397 -8.06175e-19)
(2.45605 -2.75768 9.98679e-24)
(2.44175 -2.74159 3.86151e-19)
(2.42762 -2.7257 0)
(2.41367 -2.71 -3.33057e-18)
(2.39986 -2.69446 2.18033e-18)
(2.3862 -2.67908 -2.84224e-18)
(2.37267 -2.66385 3.48912e-18)
(2.35927 -2.64876 2.73133e-18)
(2.34598 -2.6338 -2.68418e-18)
(2.3328 -2.61895 0)
(2.31972 -2.60422 0)
(2.30673 -2.58959 0)
(2.29383 -2.57506 0)
(2.28101 -2.56062 -6.0879e-19)
(2.26826 -2.54626 -1.78886e-18)
(2.25558 -2.53198 1.7614e-18)
(2.24296 -2.51777 0)
(2.2304 -2.50362 -5.64282e-19)
(2.21789 -2.48954 -2.21156e-18)
(2.20543 -2.4755 2.71954e-18)
(2.19301 -2.46152 5.3302e-19)
(2.18063 -2.44758 -1.26741e-23)
(2.16828 -2.43368 5.13021e-19)
(2.15597 -2.41981 0)
(2.14368 -2.40597 9.8725e-19)
(2.13141 -2.39216 0)
(2.11915 -2.37837 0)
(2.10692 -2.3646 -2.78961e-18)
(2.09469 -2.35084 4.56358e-18)
(2.08247 -2.33709 -8.98018e-19)
(2.07026 -2.32335 8.76844e-19)
(2.05804 -2.3096 0)
(2.04582 -2.29586 8.41777e-19)
(2.0336 -2.28211 8.2112e-19)
(2.02137 -2.26836 -3.23005e-18)
(2.00912 -2.25459 1.58476e-18)
(1.99686 -2.24081 0)
(1.98459 -2.22701 0)
(1.97229 -2.21318 7.4116e-19)
(1.95997 -2.19933 0)
(1.94762 -2.18546 7.09037e-19)
(1.93524 -2.17155 -6.89726e-19)
(1.92283 -2.1576 1.3587e-18)
(1.91038 -2.14362 -6.60354e-19)
(1.89789 -2.1296 1.94226e-18)
(1.88537 -2.11553 0)
(1.8728 -2.10142 -6.14994e-19)
(1.86018 -2.08726 6.03738e-19)
(1.84751 -2.07304 0)
(1.8348 -2.05876 -5.74693e-19)
(1.82202 -2.04443 1.67428e-18)
(1.80919 -2.03003 0)
(1.7963 -2.01557 0)
(1.78334 -2.00103 -1.54925e-18)
(1.77031 -1.98643 2.51915e-18)
(1.75722 -1.97175 9.80298e-19)
(3.99454 -4.50444 0)
(3.62589 -4.08936 -8.1973e-19)
(3.4626 -3.90602 7.58674e-19)
(3.35242 -3.78142 7.03799e-19)
(3.26815 -3.68674 9.79481e-18)
(3.2001 -3.61009 -9.72136e-18)
(3.14279 -3.54561 9.68095e-23)
(3.09315 -3.48977 -8.49065e-18)
(3.04921 -3.44036 8.48778e-18)
(3.00968 -3.39593 -7.53242e-18)
(2.97366 -3.35544 1.42678e-17)
(2.94049 -3.31816 -4.29071e-19)
(2.90967 -3.28354 -5.62867e-21)
(2.88084 -3.25114 -6.16232e-18)
(2.85369 -3.22064 0)
(2.828 -3.19177 0)
(2.80357 -3.16432 5.42916e-18)
(2.78025 -3.13811 -1.07845e-17)
(2.75791 -3.113 5.04437e-18)
(2.73645 -3.08886 -4.86579e-18)
(2.71576 -3.0656 4.71052e-18)
(2.69577 -3.04312 0)
(2.67642 -3.02134 -4.41596e-18)
(2.65764 -3.0002 3.21868e-18)
(2.63938 -2.97965 4.16266e-18)
(2.6216 -2.95963 -4.55896e-18)
(2.60426 -2.94009 0)
(2.58732 -2.921 4.79804e-19)
(2.57075 -2.90232 0)
(2.55452 -2.88402 0)
(2.53861 -2.86607 4.45097e-19)
(2.52299 -2.84844 -3.47426e-18)
(2.50763 -2.83111 3.39984e-18)
(2.49253 -2.81406 -2.90277e-18)
(2.47767 -2.79727 3.2502e-18)
(2.46302 -2.78073 7.9429e-19)
(2.44857 -2.7644 -2.71808e-18)
(2.43431 -2.74829 5.70865e-18)
(2.42022 -2.73237 -2.9848e-18)
(2.4063 -2.71663 3.65187e-19)
(2.39254 -2.70106 1.43149e-18)
(2.37891 -2.68565 -2.80343e-18)
(2.36542 -2.67039 2.06649e-18)
(2.35205 -2.65527 0)
(2.3388 -2.64027 1.3232e-18)
(2.32565 -2.6254 0)
(2.31261 -2.61063 1.9072e-18)
(2.29966 -2.59597 -6.30791e-19)
(2.28679 -2.58141 -2.45538e-18)
(2.274 -2.56694 6.0168e-19)
(2.26129 -2.55254 0)
(2.24864 -2.53823 0)
(2.23606 -2.52399 0)
(2.22353 -2.50981 5.58353e-19)
(2.21106 -2.49569 -2.18896e-18)
(2.19863 -2.48162 4.30311e-18)
(2.18625 -2.4676 -4.75131e-18)
(2.1739 -2.45363 -5.11714e-19)
(2.16159 -2.43969 1.02014e-18)
(2.14931 -2.42579 -1.99256e-18)
(2.13705 -2.41192 6.51975e-21)
(2.12482 -2.39808 1.9246e-18)
(2.1126 -2.38425 9.42405e-19)
(2.1004 -2.37044 9.2441e-19)
(2.08821 -2.35665 0)
(2.07602 -2.34287 2.66373e-18)
(2.06384 -2.32909 -6.72035e-21)
(2.05166 -2.31532 -1.71233e-18)
(2.03948 -2.30154 -8.37506e-19)
(2.02729 -2.28776 0)
(2.0151 -2.27397 0)
(2.00289 -2.26016 -7.87623e-19)
(1.99067 -2.24635 0)
(1.97843 -2.23251 -7.55237e-19)
(1.96616 -2.21865 -2.21443e-18)
(1.95388 -2.20477 7.3046e-19)
(1.94157 -2.19086 -7.00924e-19)
(1.92922 -2.17691 1.38834e-18)
(1.91685 -2.16293 -6.77111e-19)
(1.90444 -2.14892 1.32395e-18)
(1.89199 -2.13486 -1.29396e-18)
(1.8795 -2.12076 0)
(1.86697 -2.10661 0)
(1.85439 -2.09241 1.2059e-18)
(1.84176 -2.07816 0)
(1.82908 -2.06384 1.14884e-18)
(1.81635 -2.04947 -2.24156e-18)
(1.80356 -2.03504 0)
(1.7907 -2.02054 1.06568e-18)
(1.77778 -2.00597 0)
(1.7648 -1.99133 -1.01198e-18)
(1.75175 -1.97661 0)
(3.98174 -4.51529 1.42071e-17)
(3.61383 -4.09961 1.46983e-17)
(3.45133 -3.91552 -2.41391e-17)
(3.34139 -3.79068 5.95195e-21)
(3.25743 -3.6957 1.16556e-17)
(3.18962 -3.61886 -1.02184e-17)
(3.13251 -3.55421 -5.54435e-19)
(3.08305 -3.49821 8.39525e-18)
(3.03927 -3.44868 8.37479e-18)
(2.9999 -3.40413 -1.44065e-17)
(2.96401 -3.36354 4.45482e-19)
(2.93097 -3.32616 6.26408e-18)
(2.90027 -3.29145 0)
(2.87155 -3.25898 3.79242e-19)
(2.84451 -3.22841 3.6286e-19)
(2.81892 -3.19947 0)
(2.79459 -3.17196 5.345e-18)
(2.77136 -3.1457 -5.39562e-21)
(2.74911 -3.12054 -4.65467e-18)
(2.72772 -3.09635 2.9946e-19)
(2.70712 -3.07304 0)
(2.6872 -3.05052 -3.92198e-18)
(2.66792 -3.0287 3.80699e-18)
(2.64921 -3.00753 -1.61258e-23)
(2.63102 -2.98694 -4.09586e-18)
(2.6133 -2.96688 4.48591e-18)
(2.59602 -2.94731 0)
(2.57914 -2.92818 0)
(2.56262 -2.90947 -3.21873e-18)
(2.54645 -2.89113 5.3938e-21)
(2.53059 -2.87315 3.50746e-18)
(2.51501 -2.85549 0)
(2.49971 -2.83813 -3.34163e-18)
(2.48466 -2.82105 2.86355e-18)
(2.46983 -2.80423 -2.79534e-18)
(2.45523 -2.78765 2.74071e-18)
(2.44082 -2.77129 -3.8288e-19)
(2.42661 -2.75515 -2.62176e-18)
(2.41256 -2.73919 2.94109e-18)
(2.39869 -2.72342 0)
(2.38496 -2.70782 2.81922e-18)
(2.37137 -2.69238 -2.76969e-18)
(2.35792 -2.67709 0)
(2.34459 -2.66193 0)
(2.33138 -2.64691 -3.26063e-18)
(2.31827 -2.632 1.92424e-18)
(2.30526 -2.6172 3.13944e-18)
(2.29235 -2.60251 -4.31775e-18)
(2.27952 -2.58791 2.42479e-18)
(2.26677 -2.57341 0)
(2.25409 -2.55898 0)
(2.24148 -2.54464 2.86107e-18)
(2.22893 -2.53036 -2.25267e-18)
(2.21644 -2.51615 -5.5217e-19)
(2.204 -2.50199 0)
(2.19161 -2.48789 -2.65824e-18)
(2.17927 -2.47384 6.30814e-21)
(2.16696 -2.45983 1.54231e-18)
(2.15468 -2.44586 3.01875e-18)
(2.14243 -2.43193 -2.47524e-18)
(2.13021 -2.41802 9.70568e-19)
(2.11801 -2.40414 0)
(2.10583 -2.39028 -1.84843e-23)
(2.09367 -2.37644 0)
(2.08151 -2.36262 8.9999e-19)
(2.06937 -2.3488 8.79553e-19)
(2.05722 -2.33498 -1.73529e-18)
(2.04508 -2.32117 8.49246e-19)
(2.03294 -2.30736 8.32703e-19)
(2.02079 -2.29355 8.16335e-19)
(2.00863 -2.27972 -1.59688e-18)
(1.99646 -2.26588 2.35574e-18)
(1.98427 -2.25203 0)
(1.97207 -2.23816 7.52521e-19)
(1.95984 -2.22426 -7.36944e-19)
(1.94759 -2.21034 -1.44307e-18)
(1.93532 -2.1964 -7.06265e-19)
(1.92302 -2.18242 0)
(1.91068 -2.1684 6.76188e-19)
(1.89831 -2.15435 0)
(1.8859 -2.14026 1.29335e-18)
(1.87345 -2.12612 0)
(1.86096 -2.11193 0)
(1.84842 -2.0977 -1.20354e-18)
(1.83583 -2.08341 3.5447e-21)
(1.82319 -2.06906 1.15101e-18)
(1.81049 -2.05465 1.788e-23)
(1.79774 -2.04018 -1.09619e-18)
(1.78493 -2.02564 -1.06927e-18)
(1.77205 -2.01103 -2.08171e-18)
(1.75911 -1.99635 1.01989e-18)
(1.74609 -1.98159 0)
(3.96851 -4.52653 -1.41846e-17)
(3.60147 -4.11015 1.22078e-17)
(3.43973 -3.92536 0)
(3.33006 -3.80025 1.10875e-17)
(3.24642 -3.70498 -1.15485e-17)
(3.17884 -3.62794 -5.99769e-23)
(3.12194 -3.56311 8.30814e-18)
(3.07265 -3.50697 -5.87333e-21)
(3.02904 -3.45729 -8.75858e-18)
(2.98981 -3.41263 0)
(2.95406 -3.37193 -4.33552e-19)
(2.92114 -3.33446 -6.57927e-18)
(2.89056 -3.29965 6.26622e-18)
(2.86195 -3.2671 0)
(2.83502 -3.23645 -3.57242e-19)
(2.80953 -3.20744 -3.42474e-19)
(2.78529 -3.17987 0)
(2.76215 -3.15354 -4.74561e-18)
(2.73999 -3.12833 9.45945e-18)
(2.71868 -3.10409 -9.72194e-18)
(2.69815 -3.08073 9.11481e-18)
(2.67832 -3.05815 -5.56779e-19)
(2.65911 -3.03629 -3.74477e-18)
(2.64047 -3.01507 5.18757e-19)
(2.62235 -2.99444 0)
(2.60469 -2.97434 -4.89986e-19)
(2.58748 -2.95473 0)
(2.57065 -2.93556 4.17755e-18)
(2.5542 -2.91681 -4.07728e-18)
(2.53808 -2.89844 3.53028e-18)
(2.52227 -2.88042 -6.89685e-18)
(2.50675 -2.86273 3.79165e-18)
(2.4915 -2.84533 0)
(2.47649 -2.82822 3.21526e-18)
(2.46172 -2.81136 -7.08258e-18)
(2.44716 -2.79475 3.08329e-18)
(2.43281 -2.77836 2.68971e-24)
(2.41863 -2.76218 0)
(2.40464 -2.7462 -3.25306e-18)
(2.3908 -2.73039 5.58082e-21)
(2.37712 -2.71476 2.08827e-18)
(2.36358 -2.69929 0)
(2.35016 -2.68396 -2.67163e-18)
(2.33688 -2.66877 3.28262e-18)
(2.3237 -2.65371 0)
(2.31063 -2.63877 1.10508e-23)
(2.29767 -2.62394 -2.47726e-18)
(2.28479 -2.60921 4.26087e-18)
(2.272 -2.59458 -2.99106e-18)
(2.25929 -2.58004 0)
(2.24665 -2.56558 5.76224e-19)
(2.23408 -2.5512 -5.65884e-19)
(2.22157 -2.53689 0)
(2.20912 -2.52264 -2.18009e-18)
(2.19672 -2.50846 2.1472e-18)
(2.18436 -2.49432 5.2645e-19)
(2.17205 -2.48024 0)
(2.15978 -2.46619 1.0155e-18)
(2.14754 -2.45219 -4.98626e-19)
(2.13534 -2.43822 9.34709e-24)
(2.12315 -2.42428 9.58311e-19)
(2.11099 -2.41036 -1.89129e-18)
(2.09885 -2.39647 -9.2679e-19)
(2.08672 -2.38259 -9.09731e-19)
(2.0746 -2.36873 -8.92911e-19)
(2.06249 -2.35488 0)
(2.05039 -2.34103 8.59803e-19)
(2.03829 -2.32718 -8.43544e-19)
(2.02618 -2.31334 -1.65487e-18)
(2.01407 -2.29948 -8.11508e-19)
(2.00195 -2.28562 -1.58806e-18)
(1.98981 -2.27175 2.3437e-18)
(1.97767 -2.25786 -1.52585e-18)
(1.9655 -2.24395 7.52739e-19)
(1.95332 -2.23002 2.19895e-18)
(1.94111 -2.21607 -7.22536e-19)
(1.92887 -2.20208 7.04198e-19)
(1.91661 -2.18807 -1.37537e-18)
(1.90431 -2.17401 1.35309e-18)
(1.89198 -2.15993 0)
(1.87961 -2.14579 -2.58381e-18)
(1.8672 -2.13162 -1.26345e-18)
(1.85475 -2.1174 1.23528e-18)
(1.84225 -2.10312 -2.41479e-18)
(1.8297 -2.08879 1.17978e-18)
(1.8171 -2.07441 -2.30132e-18)
(1.80445 -2.05996 2.2543e-18)
(1.79174 -2.04545 1.66419e-23)
(1.77897 -2.03088 1.06855e-18)
(1.76613 -2.01623 -3.55172e-21)
(1.75323 -2.00151 -1.02004e-18)
(1.74026 -1.98671 9.90903e-19)
(3.95483 -4.53816 -1.33334e-17)
(3.58878 -4.12095 -1.29655e-17)
(3.42777 -3.93552 5.57376e-21)
(3.3184 -3.81011 2.20037e-17)
(3.23508 -3.71456 -9.53341e-18)
(3.16773 -3.6373 1.00044e-17)
(3.11104 -3.5723 -8.21714e-18)
(3.06193 -3.516 0)
(3.01848 -3.46619 4.79972e-19)
(2.9794 -3.4214 6.77852e-18)
(2.94379 -3.38059 -6.41307e-18)
(2.91099 -3.34302 8.10602e-19)
(2.88053 -3.30813 3.85555e-19)
(2.85203 -3.27548 -5.51344e-18)
(2.8252 -3.24476 5.98061e-18)
(2.79981 -3.21568 5.72641e-18)
(2.77567 -3.18803 -5.18097e-18)
(2.75262 -3.16164 4.97981e-18)
(2.73054 -3.13636 -4.80486e-18)
(2.70932 -3.11206 -2.89752e-19)
(2.68887 -3.08865 -4.47927e-18)
(2.66911 -3.06602 4.34137e-18)
(2.64998 -3.04411 5.25691e-19)
(2.63141 -3.02284 -5.10118e-19)
(2.61336 -3.00216 0)
(2.59577 -2.98201 -3.85195e-18)
(2.57862 -2.96236 3.75396e-18)
(2.56186 -2.94316 -4.56747e-19)
(2.54547 -2.92436 0)
(2.52941 -2.90595 3.90638e-18)
(2.51366 -2.88789 -3.81842e-18)
(2.49819 -2.87016 -4.13859e-18)
(2.48299 -2.85273 3.24049e-18)
(2.46804 -2.83558 -3.16342e-18)
(2.45332 -2.81869 3.48729e-18)
(2.43882 -2.80204 0)
(2.42451 -2.78561 3.71069e-19)
(2.41038 -2.7694 3.63481e-19)
(2.39643 -2.75338 -2.13432e-18)
(2.38265 -2.73754 5.58614e-18)
(2.36901 -2.72187 -6.902e-19)
(2.35551 -2.70636 -4.7006e-18)
(2.34214 -2.691 2.63791e-18)
(2.3289 -2.67578 1.29003e-18)
(2.31577 -2.66068 -2.54061e-18)
(2.30274 -2.64571 6.22796e-19)
(2.28982 -2.63084 2.44291e-18)
(2.27698 -2.61608 -1.20369e-18)
(2.26423 -2.60142 2.94518e-18)
(2.25156 -2.58684 -1.74022e-18)
(2.23896 -2.57235 -9.48401e-24)
(2.22643 -2.55794 0)
(2.21396 -2.54359 -2.1925e-18)
(2.20155 -2.52931 2.69906e-18)
(2.18919 -2.51508 0)
(2.17688 -2.50091 0)
(2.16461 -2.48679 2.04188e-18)
(2.15237 -2.47271 -1.01068e-18)
(2.14017 -2.45868 -2.46994e-18)
(2.12801 -2.44467 -1.45072e-18)
(2.11586 -2.43069 1.90722e-18)
(2.10374 -2.41674 -9.3503e-19)
(2.09164 -2.40281 9.15058e-19)
(2.07955 -2.3889 -9.0492e-19)
(2.06747 -2.375 -1.76743e-18)
(2.0554 -2.36111 1.7416e-18)
(2.04333 -2.34723 -1.70635e-18)
(2.03127 -2.33335 0)
(2.0192 -2.31946 3.28343e-18)
(2.00713 -2.30557 -1.61571e-18)
(1.99505 -2.29168 -1.57831e-18)
(1.98296 -2.27777 7.78998e-19)
(1.97085 -2.26384 0)
(1.95873 -2.2499 7.45649e-19)
(1.94658 -2.23593 0)
(1.93441 -2.22194 7.16186e-19)
(1.92222 -2.20791 6.98204e-19)
(1.90999 -2.19386 -1.37797e-18)
(1.89774 -2.17977 0)
(1.88545 -2.16564 6.58819e-19)
(1.87312 -2.15148 2.57918e-18)
(1.86075 -2.13726 1.26179e-18)
(1.84834 -2.123 -1.23423e-18)
(1.83589 -2.10869 1.73696e-23)
(1.82338 -2.09432 0)
(1.81082 -2.0799 -1.15307e-18)
(1.79821 -2.06541 -3.55435e-21)
(1.78554 -2.05086 -3.55104e-21)
(1.77282 -2.03625 0)
(1.76002 -2.02156 -1.04853e-18)
(1.74717 -2.0068 2.0426e-18)
(1.73424 -1.99196 -3.58225e-21)
(3.94069 -4.55015 -1.33131e-17)
(3.57573 -4.13205 -1.29134e-17)
(3.41544 -3.946 2.36905e-17)
(3.30639 -3.82027 -1.09144e-17)
(3.22338 -3.72443 0)
(3.15628 -3.64696 0)
(3.0998 -3.58177 0)
(3.05088 -3.52532 8.07823e-18)
(3.00759 -3.47537 -7.57893e-18)
(2.96866 -3.43046 4.45695e-19)
(2.93318 -3.38953 6.73488e-18)
(2.90051 -3.35186 -4.04649e-19)
(2.87017 -3.31687 -1.25265e-17)
(2.84178 -3.28413 5.43202e-18)
(2.81506 -3.25332 -6.92029e-19)
(2.78976 -3.22417 5.6335e-18)
(2.76572 -3.19645 3.13115e-19)
(2.74276 -3.16999 -5.2087e-18)
(2.72077 -3.14464 0)
(2.69964 -3.12028 5.12521e-18)
(2.67927 -3.0968 -4.4088e-18)
(2.65959 -3.07412 5.33173e-19)
(2.64053 -3.05215 -5.16748e-19)
(2.62204 -3.03083 5.0143e-19)
(2.60405 -3.0101 0)
(2.58654 -2.98991 3.78648e-18)
(2.56945 -2.97021 -3.69026e-18)
(2.55276 -2.95096 4.4902e-19)
(2.53643 -2.93212 4.37727e-19)
(2.52043 -2.91367 -8.54053e-19)
(2.50474 -2.89557 3.74926e-18)
(2.48933 -2.8778 -6.10828e-18)
(2.47419 -2.86032 3.18677e-18)
(2.4593 -2.84313 2.72206e-18)
(2.44463 -2.8262 -6.09352e-18)
(2.43018 -2.80952 2.98508e-18)
(2.41592 -2.79305 3.65092e-19)
(2.40185 -2.7768 -3.5768e-19)
(2.38795 -2.76074 2.80166e-18)
(2.37421 -2.74487 -2.40839e-18)
(2.36062 -2.72917 -1.3454e-18)
(2.34717 -2.71362 1.98644e-18)
(2.33385 -2.69822 -6.48815e-19)
(2.32065 -2.68296 2.54434e-18)
(2.30756 -2.66783 -2.50319e-18)
(2.29458 -2.65282 3.06591e-18)
(2.2817 -2.63792 -5.6764e-21)
(2.26891 -2.62313 -5.9767e-19)
(2.2562 -2.60843 -2.32871e-18)
(2.24357 -2.59382 -5.71225e-19)
(2.23102 -2.57929 1.68071e-18)
(2.21853 -2.56484 -2.20863e-18)
(2.2061 -2.55046 -5.41833e-19)
(2.19373 -2.53614 0)
(2.18141 -2.52188 -5.23217e-19)
(2.16914 -2.50767 -2.05363e-18)
(2.15691 -2.49352 2.52939e-18)
(2.14472 -2.4794 2.97603e-18)
(2.13256 -2.46533 -9.78893e-19)
(2.12043 -2.45128 0)
(2.10833 -2.43727 9.42099e-19)
(2.09625 -2.42329 2.77365e-18)
(2.08419 -2.40932 -1.82179e-18)
(2.07214 -2.39537 8.93224e-19)
(2.0601 -2.38144 -1.75145e-18)
(2.04807 -2.36751 6.48128e-21)
(2.03605 -2.35359 3.38759e-18)
(2.02403 -2.33967 0)
(2.012 -2.32575 -1.24037e-23)
(1.99997 -2.31182 1.59751e-18)
(1.98793 -2.29789 -1.57432e-18)
(1.97588 -2.28394 0)
(1.96381 -2.26997 2.26476e-18)
(1.95173 -2.25599 -6.78322e-21)
(1.93963 -2.24199 -1.45764e-18)
(1.9275 -2.22796 7.09405e-19)
(1.91535 -2.2139 -7.02111e-19)
(1.90317 -2.1998 0)
(1.89095 -2.18568 0)
(1.87871 -2.17151 -9.1223e-24)
(1.86642 -2.1573 -1.77557e-23)
(1.8541 -2.14305 1.25926e-18)
(1.84173 -2.12875 -1.23233e-18)
(1.82932 -2.1144 3.54432e-21)
(1.81685 -2.09999 7.08222e-21)
(1.80434 -2.08553 3.46236e-18)
(1.79177 -2.071 1.12695e-18)