/*--------------------------------*- C++ -*----------------------------------*\
  =========                 |
  \\      /  F ield         | OpenFOAM: The Open Source CFD Toolbox
   \\    /   O peration     | Website:  https://openfoam.org
    \\  /    A nd           | Version:  10
     \\/     M anipulation  |
\*---------------------------------------------------------------------------*/
FoamFile
{
    format      ascii;
    class       volScalarField;
    location    "31000";
    object      yPlus;
}
// * * * * * * * * * * * * * * * * * * * * * * * * * * * * * * * * * * * * * //

dimensions      [0 0 0 0 0 0 0];

internalField   uniform 0;

boundaryField
{
    right
    {
        type            cyclic;
    }
    left
    {
        type            cyclic;
    }
    outerWall
    {
        type            calculated;
        value           nonuniform List<scalar> 
200
(
22.3729
22.3684
22.3697
22.3714
22.3733
22.3758
22.3785
22.3812
22.3838
22.3862
22.3884
22.3905
22.3923
22.394
22.3955
22.3969
22.3981
22.3992
22.4002
22.4012
22.402
22.4028
22.4035
22.4042
22.4048
22.4054
22.406
22.4066
22.4071
22.4077
22.4082
22.4087
22.4092
22.4097
22.4102
22.4106
22.4111
22.4116
22.4121
22.4125
22.413
22.4134
22.4139
22.4143
22.4148
22.4152
22.4157
22.4161
22.4165
22.417
22.4174
22.4178
22.4182
22.4186
22.4189
22.4193
22.4197
22.42
22.4203
22.4206
22.4209
22.4212
22.4214
22.4216
22.4218
22.4219
22.422
22.4221
22.4221
22.4221
22.4221
22.4215
22.4195
22.4164
22.4142
22.4084
22.4072
22.4085
22.4102
22.4106
22.3666
22.371
22.3806
22.39
22.3992
22.4082
22.4169
22.425
22.4324
22.4392
22.4454
22.4509
22.4558
22.4602
22.4639
22.4672
22.4699
22.4721
22.4739
22.4752
22.4761
22.4766
22.4767
22.4763
22.4756
22.4745
22.473
22.471
22.4687
22.466
22.4627
22.4591
22.4549
22.45
22.4446
22.4382
22.4308
22.4218
22.4105
22.3926
22.4122
22.416
22.4179
22.4191
22.4194
22.4166
22.4136
22.4117
22.4111
22.4112
22.4126
22.4145
22.4162
22.4177
22.4189
22.4198
22.4205
22.4211
22.4216
22.4219
22.4222
22.4224
22.4226
22.4227
22.4228
22.4229
22.4229
22.4229
22.4229
22.4229
22.4228
22.4228
22.4227
22.4226
22.4225
22.4224
22.4223
22.4221
22.422
22.4218
22.4217
22.4215
22.4213
22.4211
22.4209
22.4206
22.4204
22.4201
22.4199
22.4196
22.4193
22.419
22.4187
22.4184
22.4181
22.4177
22.4174
22.417
22.4166
22.4162
22.4157
22.4153
22.4148
22.4142
22.4137
22.4131
22.4124
22.4117
22.4109
22.41
22.409
22.4079
22.4067
22.4052
22.4034
22.4012
22.3984
22.3944
22.3889
22.377
)
;
    }
    stirrerWall
    {
        type            calculated;
        value           nonuniform List<scalar> 0();
    }
    top
    {
        type            empty;
    }
    bottom
    {
        type            empty;
    }
    procBoundary2to3
    {
        type            processor;
        value           uniform 0;
    }
}


// ************************************************************************* //
