/*--------------------------------*- C++ -*----------------------------------*\
  =========                 |
  \\      /  F ield         | OpenFOAM: The Open Source CFD Toolbox
   \\    /   O peration     | Website:  https://openfoam.org
    \\  /    A nd           | Version:  10
     \\/     M anipulation  |
\*---------------------------------------------------------------------------*/
FoamFile
{
    format      ascii;
    class       volScalarField;
    location    "79000";
    object      p;
}
// * * * * * * * * * * * * * * * * * * * * * * * * * * * * * * * * * * * * * //

dimensions      [0 2 -2 0 0 0 0];

internalField   nonuniform List<scalar> 
17922
(
6.69476
6.65322
6.61089
6.56776
6.52382
6.47905
6.43344
6.38698
6.33965
6.29144
6.24234
6.19233
6.14139
6.08951
6.03668
5.98288
5.92809
5.8723
5.81549
5.75764
5.69874
5.63876
5.57769
5.51551
5.45219
5.38773
5.32208
5.25524
5.18777
5.12083
5.05501
4.99028
4.92662
4.86402
4.80244
4.74188
4.6823
4.6237
4.56605
4.50933
4.45353
4.39862
4.34459
4.29141
4.23907
4.18756
4.13685
4.08693
4.03778
3.98938
3.94171
3.89477
3.84853
3.80297
3.75809
3.71387
3.67028
3.62732
3.58498
3.54323
3.50206
3.46146
3.42142
3.38193
3.34297
3.30452
3.26659
3.22916
3.19221
3.15575
3.11976
3.08423
3.04915
3.01452
2.98034
2.94658
2.91324
2.88033
2.84783
2.81573
2.78403
2.75273
2.72182
2.69129
2.66114
2.63137
2.60197
2.57294
2.54427
2.51597
2.48803
2.46044
2.43321
6.6948
6.65326
6.61093
6.56781
6.52387
6.47911
6.4335
6.38704
6.33972
6.29152
6.24242
6.19241
6.14148
6.0896
6.03678
5.98298
5.9282
5.87241
5.8156
5.75776
5.69886
5.63888
5.57782
5.51564
5.45233
5.38787
5.32223
5.25539
5.18792
5.12099
5.05517
4.99045
4.92679
4.86419
4.80262
4.74206
4.68249
4.62389
4.56624
4.50952
4.45372
4.39881
4.34478
4.29161
4.23927
4.18776
4.13705
4.08713
4.03797
3.98957
3.94191
3.89496
3.84872
3.80316
3.75828
3.71405
3.67046
3.6275
3.58516
3.54341
3.50224
3.46164
3.4216
3.38211
3.34315
3.30471
3.26678
3.22935
3.19241
3.15595
3.11997
3.08444
3.04937
3.01475
2.98057
2.94682
2.9135
2.8806
2.84811
2.81602
2.78434
2.75305
2.72215
2.69164
2.66151
2.63176
2.60238
2.57338
2.54474
2.51646
2.48855
2.46099
2.43379
6.69477
6.65323
6.61091
6.56778
6.52385
6.47908
6.43348
6.38702
6.3397
6.2915
6.2424
6.19239
6.14146
6.08959
6.03676
5.98296
5.92818
5.87239
5.81558
5.75774
5.69884
5.63886
5.5778
5.51562
5.45231
5.38784
5.3222
5.25536
5.18789
5.12096
5.05514
4.99041
4.92675
4.86414
4.80257
4.742
4.68243
4.62382
4.56617
4.50945
4.45364
4.39873
4.34469
4.29151
4.23917
4.18765
4.13693
4.087
4.03784
3.98943
3.94176
3.89481
3.84856
3.80299
3.7581
3.71386
3.67027
3.6273
3.58494
3.54318
3.50201
3.4614
3.42136
3.38186
3.34289
3.30444
3.26651
3.22907
3.19213
3.15567
3.11968
3.08416
3.04909
3.01447
2.98028
2.94654
2.91321
2.88031
2.84782
2.81574
2.78407
2.75278
2.72189
2.69139
2.66127
2.63153
2.60217
2.57317
2.54455
2.51629
2.4884
2.46087
2.43369
6.69471
6.65317
6.61085
6.56772
6.52378
6.47902
6.43342
6.38696
6.33963
6.29143
6.24233
6.19232
6.14139
6.08951
6.03668
5.98288
5.9281
5.87231
5.8155
5.75765
5.69875
5.63877
5.5777
5.51552
5.4522
5.38773
5.32209
5.25524
5.18777
5.12083
5.05501
4.99027
4.92661
4.864
4.80242
4.74185
4.68227
4.62366
4.566
4.50927
4.45346
4.39854
4.34449
4.2913
4.23895
4.18742
4.1367
4.08676
4.03759
3.98917
3.94149
3.89453
3.84827
3.80269
3.75779
3.71355
3.66994
3.62696
3.5846
3.54283
3.50164
3.46103
3.42098
3.38147
3.34249
3.30404
3.2661
3.22866
3.19172
3.15525
3.11926
3.08373
3.04866
3.01404
2.97986
2.94612
2.9128
2.8799
2.84741
2.81534
2.78367
2.75239
2.72151
2.69102
2.66091
2.63119
2.60184
2.57286
2.54426
2.51602
2.48815
2.46065
2.4335
6.69466
6.65312
6.6108
6.56767
6.52374
6.47897
6.43337
6.38691
6.33958
6.29138
6.24228
6.19227
6.14133
6.08946
6.03663
5.98282
5.92804
5.87224
5.81543
5.75758
5.69868
5.6387
5.57762
5.51544
5.45212
5.38765
5.322
5.25515
5.18767
5.12073
5.0549
4.99016
4.9265
4.86388
4.80229
4.74172
4.68213
4.62351
4.56585
4.50912
4.4533
4.39837
4.34432
4.29112
4.23876
4.18723
4.1365
4.08655
4.03737
3.98895
3.94126
3.89428
3.84801
3.80243
3.75752
3.71327
3.66965
3.62667
3.58429
3.54251
3.50132
3.4607
3.42064
3.38113
3.34214
3.30369
3.26574
3.2283
3.19135
3.15489
3.11889
3.08337
3.04829
3.01367
2.9795
2.94575
2.91244
2.87954
2.84706
2.815
2.78333
2.75207
2.7212
2.69072
2.66063
2.63092
2.60158
2.57263
2.54404
2.51583
2.48799
2.46051
2.43339
6.69462
6.65308
6.61076
6.56763
6.5237
6.47893
6.43333
6.38687
6.33954
6.29134
6.24223
6.19222
6.14129
6.08941
6.03658
5.98278
5.92799
5.87219
5.81538
5.75753
5.69862
5.63864
5.57756
5.51537
5.45205
5.38758
5.32192
5.25507
5.18759
5.12064
5.05481
4.99007
4.92639
4.86377
4.80218
4.7416
4.68201
4.62339
4.56571
4.50898
4.45315
4.39821
4.34416
4.29095
4.23859
4.18705
4.13631
4.08635
4.03717
3.98873
3.94103
3.89405
3.84778
3.80218
3.75726
3.713
3.66938
3.62638
3.584
3.54222
3.50102
3.46039
3.42032
3.3808
3.34181
3.30335
3.2654
3.22796
3.19101
3.15454
3.11854
3.08302
3.04795
3.01333
2.97915
2.94541
2.9121
2.87921
2.84674
2.81468
2.78302
2.75177
2.72091
2.69044
2.66036
2.63067
2.60135
2.57242
2.54386
2.51567
2.48785
2.46039
2.43331
6.69458
6.65304
6.61072
6.56759
6.52366
6.47889
6.43329
6.38683
6.3395
6.2913
6.24219
6.19218
6.14124
6.08937
6.03653
5.98273
5.92794
5.87214
5.81533
5.75747
5.69856
5.63858
5.5775
5.51531
5.45198
5.3875
5.32185
5.25499
5.18751
5.12055
5.05472
4.98997
4.92629
4.86367
4.80207
4.74148
4.68188
4.62326
4.56558
4.50883
4.453
4.39806
4.344
4.29079
4.23842
4.18687
4.13612
4.08616
4.03696
3.98852
3.94081
3.89382
3.84754
3.80194
3.75701
3.71274
3.66911
3.6261
3.58371
3.54192
3.50071
3.46008
3.42
3.38048
3.34149
3.30302
3.26507
3.22762
3.19066
3.15419
3.1182
3.08267
3.0476
3.01299
2.97881
2.94507
2.91177
2.87888
2.84642
2.81437
2.78272
2.75148
2.72063
2.69018
2.66011
2.63044
2.60114
2.57222
2.54368
2.51552
2.48772
2.4603
2.43324
6.69454
6.653
6.61068
6.56756
6.52362
6.47886
6.43325
6.38679
6.33947
6.29126
6.24215
6.19214
6.1412
6.08932
6.03649
5.98268
5.92789
5.87209
5.81527
5.75742
5.69851
5.63852
5.57744
5.51524
5.45192
5.38743
5.32177
5.25491
5.18742
5.12047
5.05463
4.98987
4.92619
4.86356
4.80196
4.74137
4.68176
4.62313
4.56545
4.5087
4.45286
4.39791
4.34384
4.29062
4.23824
4.18668
4.13593
4.08596
4.03676
3.98831
3.94059
3.8936
3.8473
3.80169
3.75676
3.71248
3.66884
3.62583
3.58343
3.54163
3.50041
3.45977
3.41969
3.38016
3.34116
3.30269
3.26474
3.22729
3.19033
3.15386
3.11786
3.08234
3.04727
3.01265
2.97848
2.94475
2.91145
2.87857
2.84612
2.81407
2.78244
2.7512
2.72037
2.68993
2.65988
2.63022
2.60095
2.57205
2.54353
2.51539
2.48762
2.46022
2.4332
6.6945
6.65297
6.61065
6.56752
6.52359
6.47882
6.43322
6.38676
6.33943
6.29122
6.24212
6.1921
6.14116
6.08928
6.03645
5.98264
5.92785
5.87205
5.81523
5.75737
5.69845
5.63846
5.57738
5.51518
5.45185
5.38737
5.3217
5.25484
5.18734
5.12039
5.05454
4.98978
4.92609
4.86346
4.80185
4.74125
4.68165
4.62301
4.56532
4.50856
4.45271
4.39776
4.34368
4.29046
4.23807
4.18651
4.13574
4.08577
4.03656
3.9881
3.94038
3.89337
3.84707
3.80145
3.75651
3.71222
3.66857
3.62555
3.58315
3.54134
3.50012
3.45947
3.41939
3.37985
3.34085
3.30238
3.26442
3.22696
3.19001
3.15353
3.11754
3.08201
3.04695
3.01234
2.97817
2.94444
2.91115
2.87828
2.84583
2.81379
2.78217
2.75095
2.72013
2.6897
2.65967
2.63003
2.60077
2.5719
2.5434
2.51528
2.48754
2.46017
2.43318
6.69447
6.65294
6.61061
6.56749
6.52355
6.47879
6.43318
6.38673
6.3394
6.29119
6.24208
6.19207
6.14113
6.08925
6.03641
5.9826
5.9278
5.872
5.81518
5.75732
5.6984
5.63841
5.57733
5.51513
5.45179
5.3873
5.32164
5.25477
5.18727
5.12031
5.05445
4.98969
4.926
4.86336
4.80175
4.74114
4.68153
4.62288
4.56519
4.50843
4.45257
4.39761
4.34353
4.2903
4.23791
4.18633
4.13556
4.08558
4.03636
3.98789
3.94016
3.89315
3.84684
3.80122
3.75626
3.71197
3.66831
3.62529
3.58287
3.54106
3.49984
3.45918
3.41909
3.37955
3.34055
3.30207
3.26411
3.22665
3.18969
3.15322
3.11723
3.0817
3.04664
3.01203
2.97787
2.94414
2.91086
2.87799
2.84555
2.81353
2.78191
2.75071
2.7199
2.68949
2.65948
2.62985
2.60062
2.57176
2.54329
2.5152
2.48748
2.46014
2.43317
6.69444
6.65291
6.61059
6.56746
6.52353
6.47876
6.43316
6.3867
6.33937
6.29116
6.24205
6.19204
6.1411
6.08921
6.03637
5.98256
5.92777
5.87196
5.81514
5.75728
5.69836
5.63836
5.57727
5.51507
5.45173
5.38724
5.32157
5.2547
5.1872
5.12023
5.05437
4.9896
4.92591
4.86326
4.80164
4.74104
4.68142
4.62277
4.56507
4.5083
4.45244
4.39747
4.34338
4.29014
4.23774
4.18616
4.13538
4.08539
4.03617
3.98769
3.93996
3.89293
3.84662
3.80098
3.75603
3.71172
3.66806
3.62503
3.58261
3.54079
3.49956
3.4589
3.4188
3.37926
3.34025
3.30177
3.26381
3.22635
3.18939
3.15292
3.11692
3.0814
3.04634
3.01174
2.97758
2.94386
2.91058
2.87773
2.8453
2.81328
2.78168
2.75049
2.71969
2.6893
2.6593
2.6297
2.60048
2.57165
2.5432
2.51514
2.48745
2.46013
2.43319
6.69441
6.65288
6.61056
6.56744
6.5235
6.47874
6.43313
6.38667
6.33934
6.29113
6.24203
6.19201
6.14107
6.08918
6.03634
5.98253
5.92773
5.87193
5.8151
5.75724
5.69831
5.63832
5.57722
5.51502
5.45168
5.38718
5.32151
5.25463
5.18713
5.12015
5.05429
4.98952
4.92582
4.86317
4.80155
4.74093
4.68131
4.62265
4.56494
4.50817
4.4523
4.39733
4.34323
4.28999
4.23758
4.18599
4.13521
4.08521
4.03598
3.9875
3.93975
3.89272
3.8464
3.80076
3.75579
3.71148
3.66781
3.62477
3.58235
3.54052
3.49929
3.45862
3.41852
3.37897
3.33996
3.30148
3.26352
3.22606
3.1891
3.15263
3.11664
3.08112
3.04606
3.01146
2.97731
2.9436
2.91032
2.87748
2.84506
2.81305
2.78146
2.75028
2.71951
2.68913
2.65915
2.62957
2.60037
2.57156
2.54314
2.51509
2.48743
2.46015
2.43324
6.69439
6.65286
6.61054
6.56741
6.52348
6.47871
6.43311
6.38665
6.33932
6.29111
6.242
6.19198
6.14104
6.08915
6.03631
5.9825
5.9277
5.87189
5.81506
5.7572
5.69827
5.63827
5.57718
5.51497
5.45163
5.38713
5.32145
5.25457
5.18706
5.12008
5.05421
4.98944
4.92573
4.86308
4.80145
4.74083
4.6812
4.62254
4.56483
4.50804
4.45217
4.39719
4.34309
4.28984
4.23742
4.18583
4.13504
4.08503
4.03579
3.98731
3.93955
3.89252
3.84618
3.80054
3.75557
3.71125
3.66757
3.62453
3.5821
3.54027
3.49902
3.45836
3.41825
3.3787
3.33969
3.3012
3.26324
3.22578
3.18882
3.15235
3.11636
3.08084
3.04579
3.0112
2.97705
2.94335
2.91008
2.87724
2.84483
2.81284
2.78127
2.7501
2.71934
2.68898
2.65902
2.62945
2.60028
2.57149
2.54309
2.51507
2.48744
2.46018
2.4333
6.69437
6.65283
6.61051
6.56739
6.52346
6.47869
6.43309
6.38663
6.3393
6.29109
6.24198
6.19196
6.14101
6.08913
6.03629
5.98247
5.92767
5.87186
5.81503
5.75716
5.69823
5.63823
5.57714
5.51492
5.45158
5.38707
5.32139
5.25451
5.18699
5.12001
5.05414
4.98936
4.92565
4.86299
4.80136
4.74073
4.6811
4.62243
4.56471
4.50792
4.45204
4.39706
4.34295
4.28969
4.23727
4.18567
4.13487
4.08486
4.03562
3.98712
3.93936
3.89232
3.84598
3.80033
3.75535
3.71102
3.66734
3.62429
3.58185
3.54002
3.49877
3.4581
3.41799
3.37844
3.33942
3.30094
3.26297
3.22551
3.18855
3.15209
3.1161
3.08059
3.04554
3.01095
2.97681
2.94311
2.90986
2.87703
2.84463
2.81265
2.78109
2.74994
2.71919
2.68885
2.65891
2.62936
2.6002
2.57144
2.54306
2.51507
2.48746
2.46023
2.43338
6.69435
6.65282
6.6105
6.56738
6.52344
6.47868
6.43307
6.38661
6.33928
6.29107
6.24196
6.19194
6.14099
6.08911
6.03626
5.98245
5.92764
5.87183
5.815
5.75713
5.6982
5.63819
5.57709
5.51488
5.45153
5.38703
5.32134
5.25445
5.18693
5.11995
5.05407
4.98929
4.92557
4.8629
4.80127
4.74064
4.68099
4.62232
4.5646
4.5078
4.45192
4.39693
4.34281
4.28955
4.23712
4.18552
4.13471
4.08469
4.03544
3.98694
3.93917
3.89212
3.84578
3.80012
3.75513
3.71081
3.66712
3.62406
3.58162
3.53978
3.49853
3.45786
3.41775
3.37819
3.33917
3.30068
3.26272
3.22526
3.1883
3.15184
3.11586
3.08035
3.0453
3.01072
2.97659
2.9429
2.90965
2.87683
2.84445
2.81248
2.78093
2.74979
2.71906
2.68874
2.65881
2.62929
2.60015
2.57141
2.54306
2.51509
2.48751
2.4603
2.43348
6.69433
6.6528
6.61048
6.56736
6.52343
6.47866
6.43306
6.38659
6.33926
6.29105
6.24194
6.19192
6.14097
6.08909
6.03624
5.98242
5.92762
5.87181
5.81497
5.7571
5.69817
5.63816
5.57706
5.51484
5.45149
5.38698
5.32129
5.2544
5.18687
5.11988
5.054
4.98921
4.92549
4.86282
4.80118
4.74054
4.6809
4.62222
4.56449
4.50769
4.4518
4.39681
4.34268
4.28941
4.23698
4.18537
4.13456
4.08453
4.03527
3.98677
3.93899
3.89194
3.84559
3.79992
3.75493
3.7106
3.66691
3.62384
3.5814
3.53955
3.4983
3.45762
3.41751
3.37795
3.33893
3.30045
3.26248
3.22502
3.18807
3.15161
3.11563
3.08012
3.04508
3.01051
2.97638
2.9427
2.90946
2.87666
2.84428
2.81233
2.78079
2.74967
2.71896
2.68865
2.65874
2.62924
2.60012
2.5714
2.54307
2.51513
2.48757
2.46039
2.43359
6.85279
6.8143
6.77506
6.73507
6.69432
6.65279
6.61047
6.56735
6.52342
6.47865
6.43304
6.38658
6.33925
6.29104
6.24193
6.19191
6.14096
6.08907
6.03622
5.9824
5.9276
5.87178
5.81495
5.75707
5.69814
5.63813
5.57702
5.5148
5.45145
5.38693
5.32124
5.25435
5.18682
5.11982
5.05394
4.98915
4.92542
4.86274
4.8011
4.74046
4.68081
4.62212
4.56439
4.50758
4.45169
4.39669
4.34256
4.28928
4.23684
4.18523
4.13441
4.08438
4.03511
3.9866
3.93882
3.89176
3.8454
3.79973
3.75474
3.7104
3.6667
3.62364
3.58119
3.53934
3.49808
3.4574
3.41729
3.37773
3.33871
3.30022
3.26226
3.2248
3.18785
3.15139
3.11542
3.07992
3.04488
3.01031
2.9762
2.94253
2.9093
2.8765
2.84414
2.8122
2.78068
2.74957
2.71887
2.68858
2.6587
2.62921
2.60012
2.57142
2.54311
2.51519
2.48766
2.4605
2.43373
6.85277
6.81428
6.77504
6.73506
6.69431
6.65278
6.61046
6.56734
6.52341
6.47864
6.43304
6.38658
6.33924
6.29103
6.24192
6.1919
6.14095
6.08906
6.03621
5.98239
5.92758
5.87176
5.81492
5.75705
5.69811
5.6381
5.57699
5.51477
5.45141
5.38689
5.3212
5.2543
5.18677
5.11977
5.05388
4.98908
4.92535
4.86267
4.80102
4.74037
4.68072
4.62203
4.56429
4.50748
4.45158
4.39657
4.34244
4.28916
4.23671
4.18509
4.13427
4.08423
4.03496
3.98644
3.93865
3.89159
3.84523
3.79955
3.75455
3.71021
3.66651
3.62344
3.58099
3.53914
3.49788
3.45719
3.41708
3.37752
3.3385
3.30001
3.26205
3.2246
3.18765
3.15119
3.11522
3.07973
3.0447
3.01014
2.97603
2.94237
2.90915
2.87637
2.84402
2.81209
2.78058
2.74949
2.71881
2.68854
2.65867
2.6292
2.60013
2.57146
2.54317
2.51527
2.48776
2.46064
2.43389
6.85277
6.81427
6.77504
6.73505
6.69431
6.65278
6.61046
6.56734
6.52341
6.47864
6.43303
6.38657
6.33924
6.29102
6.24191
6.19189
6.14094
6.08905
6.0362
5.98237
5.92756
5.87175
5.81491
5.75703
5.69809
5.63807
5.57696
5.51474
5.45138
5.38686
5.32116
5.25425
5.18672
5.11972
5.05382
4.98902
4.92529
4.8626
4.80094
4.74029
4.68063
4.62194
4.56419
4.50738
4.45147
4.39646
4.34232
4.28904
4.23659
4.18496
4.13413
4.08409
4.03481
3.98629
3.9385
3.89143
3.84506
3.79938
3.75438
3.71003
3.66633
3.62325
3.5808
3.53895
3.49768
3.457
3.41688
3.37732
3.33831
3.29982
3.26186
3.22441
3.18746
3.15101
3.11505
3.07956
3.04454
3.00999
2.97589
2.94224
2.90903
2.87626
2.84392
2.812
2.78051
2.74944
2.71877
2.68852
2.65867
2.62922
2.60017
2.57151
2.54325
2.51538
2.48789
2.46079
2.43406
6.96392
6.92758
6.89054
6.85277
6.81428
6.77505
6.73506
6.69431
6.65278
6.61046
6.56734
6.52341
6.47864
6.43303
6.38657
6.33924
6.29102
6.24191
6.19188
6.14093
6.08904
6.03619
5.98236
5.92755
5.87173
5.81489
5.75701
5.69807
5.63805
5.57694
5.51471
5.45134
5.38682
5.32112
5.25421
5.18667
5.11967
5.05377
4.98896
4.92522
4.86253
4.80087
4.74022
4.68055
4.62185
4.5641
4.50729
4.45138
4.39636
4.34221
4.28892
4.23647
4.18483
4.134
4.08395
4.03467
3.98615
3.93835
3.89128
3.84491
3.79922
3.75421
3.70986
3.66616
3.62308
3.58062
3.53877
3.49751
3.45682
3.41671
3.37715
3.33813
3.29965
3.26169
3.22424
3.1873
3.15085
3.11489
3.07941
3.0444
3.00986
2.97577
2.94212
2.90893
2.87617
2.84384
2.81194
2.78046
2.7494
2.71876
2.68852
2.65869
2.62926
2.60023
2.57159
2.54335
2.5155
2.48804
2.46096
2.43426
6.96393
6.92759
6.89054
6.85278
6.81429
6.77506
6.73507
6.69432
6.65279
6.61047
6.56735
6.52341
6.47864
6.43304
6.38657
6.33924
6.29102
6.24191
6.19188
6.14093
6.08903
6.03618
5.98236
5.92754
5.87172
5.81488
5.75699
5.69805
5.63803
5.57692
5.51468
5.45132
5.38679
5.32108
5.25417
5.18663
5.11962
5.05372
4.98891
4.92517
4.86247
4.80081
4.74015
4.68048
4.62178
4.56402
4.5072
4.45128
4.39626
4.34211
4.28882
4.23636
4.18472
4.13388
4.08383
4.03455
3.98601
3.93821
3.89114
3.84476
3.79908
3.75406
3.70971
3.666
3.62292
3.58046
3.53861
3.49735
3.45666
3.41655
3.37699
3.33797
3.29949
3.26154
3.22409
3.18716
3.15072
3.11476
3.07929
3.04429
3.00975
2.97567
2.94204
2.90885
2.8761
2.84379
2.8119
2.78044
2.74939
2.71876
2.68854
2.65873
2.62932
2.60031
2.5717
2.54348
2.51565
2.4882
2.46114
2.43447
6.96394
6.9276
6.89056
6.8528
6.8143
6.77507
6.73508
6.69433
6.6528
6.61048
6.56736
6.52342
6.47865
6.43304
6.38658
6.33924
6.29103
6.24191
6.19188
6.14093
6.08903
6.03618
5.98235
5.92754
5.87171
5.81487
5.75698
5.69804
5.63801
5.5769
5.51466
5.45129
5.38676
5.32105
5.25414
5.18659
5.11958
5.05368
4.98886
4.92511
4.86242
4.80075
4.74008
4.68041
4.6217
4.56394
4.50712
4.4512
4.39617
4.34202
4.28872
4.23625
4.18461
4.13377
4.08371
4.03443
3.98589
3.93809
3.89101
3.84463
3.79894
3.75393
3.70957
3.66586
3.62278
3.58032
3.53846
3.4972
3.45652
3.4164
3.37685
3.33783
3.29936
3.2614
3.22397
3.18703
3.1506
3.11465
3.07919
3.04419
3.00966
2.97559
2.94197
2.9088
2.87606
2.84376
2.81189
2.78044
2.74941
2.7188
2.6886
2.6588
2.62941
2.60042
2.57182
2.54362
2.51581
2.48839
2.46136
2.4347
6.96397
6.92763
6.89058
6.85282
6.81433
6.77509
6.7351
6.69435
6.65282
6.6105
6.56737
6.52343
6.47866
6.43305
6.38659
6.33925
6.29103
6.24192
6.19189
6.14093
6.08904
6.03618
5.98235
5.92753
5.87171
5.81486
5.75697
5.69803
5.638
5.57688
5.51465
5.45127
5.38674
5.32103
5.25411
5.18656
5.11954
5.05363
4.98882
4.92507
4.86236
4.80069
4.74002
4.68034
4.62163
4.56387
4.50704
4.45112
4.39609
4.34193
4.28863
4.23616
4.18451
4.13367
4.08361
4.03432
3.98578
3.93797
3.89089
3.84451
3.79882
3.7538
3.70944
3.66573
3.62265
3.58019
3.53834
3.49707
3.45639
3.41628
3.37672
3.33771
3.29924
3.26129
3.22386
3.18693
3.15051
3.11457
3.07911
3.04412
3.0096
2.97554
2.94193
2.90877
2.87605
2.84376
2.8119
2.78047
2.74945
2.71886
2.68867
2.65889
2.62952
2.60055
2.57197
2.54379
2.516
2.4886
2.46159
2.43495
6.964
6.92766
6.89061
6.85285
6.81435
6.77512
6.73513
6.69437
6.65284
6.61052
6.56739
6.52345
6.47868
6.43307
6.3866
6.33926
6.29104
6.24193
6.1919
6.14094
6.08904
6.03618
5.98235
5.92753
5.87171
5.81486
5.75697
5.69802
5.63799
5.57687
5.51463
5.45125
5.38672
5.321
5.25408
5.18653
5.11951
5.0536
4.98878
4.92502
4.86232
4.80064
4.73997
4.68029
4.62157
4.56381
4.50697
4.45105
4.39601
4.34185
4.28854
4.23608
4.18443
4.13358
4.08352
4.03422
3.98568
3.93787
3.89079
3.8444
3.79871
3.75369
3.70933
3.66562
3.62254
3.58008
3.53823
3.49697
3.45629
3.41618
3.37662
3.33762
3.29915
3.2612
3.22378
3.18686
3.15044
3.1145
3.07905
3.04408
3.00957
2.97552
2.94192
2.90877
2.87606
2.84378
2.81194
2.78052
2.74952
2.71894
2.68877
2.65901
2.62966
2.6007
2.57215
2.54399
2.51622
2.48884
2.46184
2.43523
6.96404
6.9277
6.89065
6.85288
6.81439
6.77515
6.73516
6.6944
6.65287
6.61054
6.56741
6.52347
6.4787
6.43309
6.38662
6.33928
6.29106
6.24194
6.19191
6.14095
6.08905
6.03619
5.98236
5.92754
5.87171
5.81486
5.75697
5.69802
5.63799
5.57686
5.51462
5.45124
5.3867
5.32099
5.25406
5.18651
5.11948
5.05357
4.98874
4.92499
4.86228
4.8006
4.73992
4.68024
4.62152
4.56375
4.50691
4.45098
4.39595
4.34178
4.28847
4.236
4.18435
4.1335
4.08343
4.03414
3.98559
3.93778
3.89069
3.84431
3.79862
3.7536
3.70924
3.66553
3.62245
3.57999
3.53814
3.49688
3.4562
3.41609
3.37654
3.33754
3.29908
3.26114
3.22372
3.18681
3.15039
3.11447
3.07903
3.04406
3.00956
2.97552
2.94193
2.90879
2.8761
2.84384
2.81201
2.7806
2.74962
2.71905
2.6889
2.65916
2.62982
2.60089
2.57235
2.54421
2.51645
2.48909
2.46212
2.43552
6.96409
6.92774
6.89069
6.85292
6.81442
6.77518
6.73519
6.69443
6.6529
6.61057
6.56744
6.5235
6.47873
6.43311
6.38664
6.3393
6.29108
6.24196
6.19192
6.14096
6.08906
6.0362
5.98237
5.92755
5.87172
5.81486
5.75697
5.69802
5.63798
5.57686
5.51461
5.45123
5.38669
5.32097
5.25405
5.18649
5.11946
5.05354
4.98871
4.92495
4.86224
4.80056
4.73988
4.68019
4.62147
4.5637
4.50686
4.45093
4.39589
4.34172
4.28841
4.23594
4.18428
4.13343
4.08336
4.03406
3.98552
3.93771
3.89062
3.84424
3.79854
3.75352
3.70916
3.66545
3.62238
3.57992
3.53807
3.49681
3.45614
3.41603
3.37649
3.33749
3.29903
3.2611
3.22368
3.18678
3.15037
3.11446
3.07902
3.04407
3.00958
2.97555
2.94197
2.90885
2.87616
2.84392
2.8121
2.78071
2.74974
2.7192
2.68906
2.65933
2.63001
2.6011
2.57258
2.54445
2.51672
2.48938
2.46242
2.43584
6.96414
6.92779
6.89074
6.85297
6.81447
6.77522
6.73523
6.69447
6.65293
6.6106
6.56747
6.52353
6.47875
6.43314
6.38667
6.33933
6.2911
6.24198
6.19194
6.14098
6.08908
6.03622
5.98238
5.92756
5.87172
5.81487
5.75697
5.69802
5.63799
5.57686
5.51461
5.45123
5.38668
5.32096
5.25403
5.18647
5.11944
5.05352
4.98869
4.92493
4.86221
4.80053
4.73985
4.68016
4.62143
4.56366
4.50682
4.45088
4.39584
4.34167
4.28836
4.23588
4.18423
4.13337
4.0833
4.034
3.98546
3.93765
3.89056
3.84417
3.79848
3.75346
3.70911
3.6654
3.62232
3.57987
3.53802
3.49676
3.45609
3.41599
3.37645
3.33746
3.29901
3.26108
3.22368
3.18678
3.15038
3.11448
3.07905
3.04411
3.00963
2.97561
2.94205
2.90893
2.87626
2.84403
2.81223
2.78085
2.7499
2.71937
2.68925
2.65954
2.63023
2.60133
2.57283
2.54473
2.51701
2.48968
2.46274
2.43618
6.9642
6.92785
6.89079
6.85302
6.81452
6.77527
6.73527
6.69451
6.65297
6.61064
6.56751
6.52356
6.47879
6.43317
6.3867
6.33935
6.29113
6.242
6.19197
6.141
6.0891
6.03624
5.9824
5.92757
5.87174
5.81488
5.75698
5.69803
5.63799
5.57686
5.51461
5.45123
5.38668
5.32096
5.25403
5.18646
5.11943
5.05351
4.98867
4.92491
4.86219
4.8005
4.73982
4.68013
4.6214
4.56363
4.50678
4.45085
4.3958
4.34163
4.28832
4.23584
4.18418
4.13333
4.08326
4.03396
3.98541
3.9376
3.89051
3.84413
3.79844
3.75342
3.70907
3.66536
3.62229
3.57983
3.53799
3.49674
3.45607
3.41598
3.37645
3.33746
3.29902
3.2611
3.2237
3.18681
3.15042
3.11452
3.07911
3.04417
3.00971
2.9757
2.94215
2.90905
2.87639
2.84417
2.81238
2.78102
2.75009
2.71957
2.68947
2.65977
2.63049
2.6016
2.57312
2.54503
2.51733
2.49002
2.4631
2.43655
6.96427
6.92791
6.89085
6.85308
6.81457
6.77532
6.73532
6.69456
6.65302
6.61069
6.56755
6.5236
6.47882
6.43321
6.38673
6.33939
6.29116
6.24203
6.19199
6.14103
6.08912
6.03626
5.98242
5.92759
5.87175
5.8149
5.757
5.69804
5.638
5.57687
5.51462
5.45123
5.38668
5.32096
5.25402
5.18646
5.11942
5.0535
4.98866
4.92489
4.86218
4.80049
4.7398
4.68011
4.62138
4.5636
4.50676
4.45082
4.39578
4.3416
4.28829
4.23581
4.18415
4.1333
4.08323
4.03393
3.98539
3.93758
3.89049
3.84411
3.79842
3.7534
3.70905
3.66534
3.62227
3.57983
3.53799
3.49674
3.45608
3.41599
3.37647
3.33749
3.29905
3.26114
3.22375
3.18687
3.15049
3.1146
3.0792
3.04427
3.00982
2.97582
2.94229
2.9092
2.87655
2.84435
2.81258
2.78123
2.75031
2.71981
2.68972
2.66004
2.63077
2.60191
2.57344
2.54536
2.51768
2.49039
2.46348
2.43696
6.96434
6.92798
6.89092
6.85314
6.81463
6.77538
6.73538
6.69461
6.65307
6.61073
6.5676
6.52365
6.47887
6.43324
6.38677
6.33942
6.29119
6.24206
6.19202
6.14106
6.08915
6.03628
5.98244
5.92761
5.87178
5.81491
5.75701
5.69805
5.63801
5.57688
5.51463
5.45124
5.38669
5.32096
5.25403
5.18646
5.11942
5.05349
4.98866
4.92489
4.86217
4.80048
4.73979
4.6801
4.62137
4.56359
4.50674
4.45081
4.39576
4.34159
4.28827
4.2358
4.18414
4.13328
4.08322
4.03392
3.98537
3.93757
3.89048
3.8441
3.79841
3.7534
3.70905
3.66535
3.62229
3.57984
3.53801
3.49677
3.45611
3.41603
3.37651
3.33754
3.29911
3.26121
3.22383
3.18696
3.15059
3.11471
3.07932
3.04441
3.00996
2.97598
2.94246
2.90938
2.87675
2.84456
2.8128
2.78147
2.75057
2.72008
2.69001
2.66035
2.63109
2.60224
2.57379
2.54573
2.51807
2.49079
2.4639
2.43739
6.96441
6.92805
6.89099
6.8532
6.81469
6.77544
6.73544
6.69467
6.65312
6.61079
6.56765
6.52369
6.47891
6.43329
6.38681
6.33946
6.29123
6.2421
6.19206
6.14109
6.08918
6.03631
5.98247
5.92764
5.8718
5.81494
5.75703
5.69807
5.63803
5.5769
5.51464
5.45125
5.3867
5.32097
5.25403
5.18646
5.11943
5.0535
4.98866
4.92489
4.86217
4.80048
4.73979
4.68009
4.62137
4.56359
4.50674
4.4508
4.39576
4.34159
4.28827
4.23579
4.18414
4.13329
4.08322
4.03392
3.98538
3.93757
3.89049
3.84411
3.79843
3.75342
3.70908
3.66538
3.62232
3.57988
3.53805
3.49682
3.45617
3.4161
3.37659
3.33763
3.2992
3.26131
3.22394
3.18708
3.15072
3.11486
3.07948
3.04458
3.01015
2.97618
2.94267
2.9096
2.87699
2.84481
2.81307
2.78175
2.75086
2.72039
2.69033
2.66069
2.63145
2.60262
2.57418
2.54614
2.51849
2.49123
2.46436
2.43786
6.96449
6.92813
6.89106
6.85328
6.81476
6.77551
6.7355
6.69473
6.65318
6.61084
6.5677
6.52375
6.47896
6.43334
6.38685
6.3395
6.29127
6.24214
6.1921
6.14113
6.08921
6.03634
5.9825
5.92767
5.87183
5.81496
5.75706
5.6981
5.63805
5.57692
5.51466
5.45127
5.38672
5.32099
5.25405
5.18648
5.11944
5.05351
4.98867
4.9249
4.86218
4.80048
4.7398
4.6801
4.62138
4.5636
4.50675
4.45081
4.39577
4.3416
4.28828
4.23581
4.18415
4.1333
4.08324
4.03394
3.9854
3.9376
3.89052
3.84415
3.79847
3.75346
3.70912
3.66543
3.62238
3.57995
3.53812
3.4969
3.45626
3.41619
3.37669
3.33774
3.29933
3.26145
3.22409
3.18724
3.1509
3.11504
3.07968
3.04479
3.01037
2.97641
2.94291
2.90987
2.87726
2.8451
2.81337
2.78207
2.7512
2.72074
2.6907
2.66107
2.63185
2.60303
2.57461
2.54659
2.51896
2.49171
2.46485
2.43837
6.96458
6.92821
6.89114
6.85335
6.81483
6.77558
6.73557
6.69479
6.65324
6.6109
6.56776
6.5238
6.47901
6.43339
6.3869
6.33955
6.29132
6.24218
6.19214
6.14117
6.08925
6.03638
5.98254
5.9277
5.87186
5.81499
5.75709
5.69812
5.63808
5.57694
5.51469
5.45129
5.38674
5.32101
5.25407
5.1865
5.11946
5.05353
4.98869
4.92492
4.86219
4.8005
4.73982
4.68012
4.62139
4.56362
4.50677
4.45083
4.39579
4.34162
4.28831
4.23584
4.18418
4.13334
4.08327
4.03398
3.98545
3.93765
3.89057
3.8442
3.79853
3.75353
3.70919
3.66551
3.62246
3.58004
3.53822
3.497
3.45637
3.41632
3.37683
3.33788
3.29949
3.26162
3.22427
3.18744
3.1511
3.11526
3.07991
3.04503
3.01063
2.97669
2.9432
2.91017
2.87758
2.84543
2.81372
2.78243
2.75158
2.72114
2.69111
2.6615
2.63229
2.60349
2.57509
2.54708
2.51946
2.49223
2.46539
2.43892
6.96467
6.9283
6.89122
6.85343
6.81491
6.77565
6.73564
6.69486
6.65331
6.61096
6.56782
6.52386
6.47907
6.43344
6.38696
6.3396
6.29136
6.24223
6.19218
6.14121
6.08929
6.03642
5.98257
5.92774
5.8719
5.81503
5.75712
5.69816
5.63811
5.57697
5.51471
5.45132
5.38677
5.32103
5.25409
5.18652
5.11948
5.05355
4.98871
4.92494
4.86222
4.80053
4.73984
4.68015
4.62142
4.56365
4.5068
4.45087
4.39583
4.34166
4.28835
4.23588
4.18423
4.13339
4.08333
4.03404
3.98551
3.93771
3.89064
3.84428
3.79861
3.75362
3.70929
3.66561
3.62257
3.58015
3.53835
3.49714
3.45652
3.41647
3.37699
3.33806
3.29968
3.26182
3.22449
3.18767
3.15135
3.11553
3.08019
3.04533
3.01093
2.97701
2.94354
2.91052
2.87794
2.84581
2.81411
2.78284
2.752
2.72158
2.69157
2.66197
2.63278
2.604
2.57561
2.54762
2.52002
2.49281
2.46597
2.43952
6.96476
6.92839
6.89131
6.85351
6.81499
6.77573
6.73571
6.69493
6.65338
6.61103
6.56788
6.52392
6.47913
6.4335
6.38701
6.33966
6.29142
6.24228
6.19223
6.14126
6.08934
6.03646
5.98262
5.92778
5.87194
5.81507
5.75716
5.69819
5.63815
5.57701
5.51475
5.45135
5.3868
5.32107
5.25413
5.18655
5.11951
5.05359
4.98875
4.92498
4.86226
4.80057
4.73988
4.68019
4.62147
4.56369
4.50685
4.45092
4.39588
4.34172
4.28841
4.23594
4.1843
4.13346
4.0834
4.03412
3.98559
3.9378
3.89074
3.84438
3.79872
3.75373
3.70941
3.66574
3.62271
3.5803
3.5385
3.4973
3.45669
3.41666
3.37719
3.33827
3.2999
3.26206
3.22475
3.18794
3.15164
3.11583
3.08051
3.04566
3.01129
2.97737
2.94392
2.91091
2.87836
2.84624
2.81456
2.7833
2.75248
2.72207
2.69208
2.6625
2.63333
2.60456
2.57619
2.54821
2.52063
2.49343
2.46661
2.44018
7.00054
6.96485
6.92848
6.8914
6.8536
6.81507
6.77581
6.73579
6.69501
6.65345
6.6111
6.56795
6.52399
6.47919
6.43356
6.38707
6.33971
6.29147
6.24233
6.19228
6.14131
6.08939
6.03651
5.98266
5.92782
5.87198
5.81511
5.7572
5.69823
5.63819
5.57705
5.51479
5.45139
5.38684
5.3211
5.25417
5.18659
5.11955
5.05363
4.98879
4.92502
4.8623
4.80061
4.73993
4.68024
4.62152
4.56375
4.50691
4.45098
4.39594
4.34179
4.28848
4.23602
4.18438
4.13354
4.0835
4.03422
3.9857
3.93791
3.89085
3.8445
3.79885
3.75387
3.70956
3.66589
3.62287
3.58047
3.53868
3.4975
3.4569
3.41687
3.37742
3.33852
3.30016
3.26234
3.22505
3.18826
3.15198
3.11619
3.08088
3.04605
3.01169
2.97779
2.94435
2.91136
2.87882
2.84672
2.81505
2.78381
2.753
2.72261
2.69264
2.66308
2.63392
2.60517
2.57682
2.54886
2.52129
2.49411
2.46731
2.44089
7.00063
6.96495
6.92857
6.89149
6.85369
6.81516
6.77589
6.73587
6.69508
6.65352
6.61117
6.56802
6.52405
6.47926
6.43362
6.38713
6.33977
6.29153
6.24239
6.19234
6.14136
6.08944
6.03656
5.98271
5.92787
5.87203
5.81516
5.75725
5.69828
5.63823
5.57709
5.51483
5.45144
5.38688
5.32115
5.25421
5.18664
5.1196
5.05368
4.98884
4.92507
4.86236
4.80067
4.73999
4.6803
4.62158
4.56382
4.50698
4.45106
4.39603
4.34187
4.28857
4.23612
4.18448
4.13365
4.08361
4.03434
3.98582
3.93805
3.89099
3.84465
3.799
3.75403
3.70973
3.66607
3.62306
3.58067
3.53889
3.49772
3.45713
3.41712
3.37768
3.33879
3.30045
3.26266
3.22539
3.18863
3.15237
3.1166
3.08131
3.04649
3.01215
2.97826
2.94484
2.91186
2.87934
2.84725
2.8156
2.78438
2.75359
2.72322
2.69326
2.66372
2.63458
2.60585
2.57751
2.54957
2.52202
2.49486
2.46807
2.44166
7.00074
6.96505
6.92867
6.89158
6.85378
6.81524
6.77597
6.73595
6.69516
6.6536
6.61125
6.56809
6.52412
6.47933
6.43369
6.3872
6.33983
6.29159
6.24245
6.19239
6.14142
6.08949
6.03662
5.98276
5.92792
5.87208
5.81521
5.7573
5.69833
5.63828
5.57714
5.51488
5.45149
5.38693
5.3212
5.25426
5.18669
5.11966
5.05373
4.9889
4.92513
4.86242
4.80074
4.74006
4.68038
4.62166
4.5639
4.50707
4.45115
4.39612
4.34197
4.28868
4.23623
4.1846
4.13378
4.08374
4.03448
3.98597
3.9382
3.89116
3.84482
3.79918
3.75422
3.70993
3.66628
3.62328
3.5809
3.53913
3.49797
3.45739
3.41739
3.37796
3.33909
3.30076
3.263
3.22577
3.18906
3.15284
3.11709
3.0818
3.047
3.01266
2.97879
2.94538
2.91242
2.87991
2.84784
2.81621
2.78501
2.75423
2.72388
2.69394
2.66442
2.6353
2.60658
2.57827
2.55035
2.52281
2.49567
2.4689
7.00084
6.96515
6.92876
6.89167
6.85387
6.81533
6.77606
6.73603
6.69524
6.65368
6.61132
6.56817
6.52419
6.4794
6.43376
6.38726
6.3399
6.29165
6.24251
6.19245
6.14147
6.08955
6.03667
5.98282
5.92798
5.87213
5.81526
5.75735
5.69838
5.63833
5.57719
5.51493
5.45154
5.38699
5.32126
5.25432
5.18675