/*--------------------------------*- C++ -*----------------------------------*\
  =========                 |
  \\      /  F ield         | OpenFOAM: The Open Source CFD Toolbox
   \\    /   O peration     | Website:  https://openfoam.org
    \\  /    A nd           | Version:  10
     \\/     M anipulation  |
\*---------------------------------------------------------------------------*/
FoamFile
{
    format      ascii;
    class       volScalarField;
    location    "12000";
    object      k;
}
// * * * * * * * * * * * * * * * * * * * * * * * * * * * * * * * * * * * * * //

dimensions      [0 2 -2 0 0 0 0];

internalField   nonuniform List<scalar> 
17808
(
0.164694
0.190082
0.17488
0.169233
0.166751
0.165405
0.164562
0.163968
0.163505
0.163113
0.162757
0.162418
0.162085
0.16175
0.161407
0.161055
0.16069
0.160312
0.15992
0.159514
0.159093
0.158658
0.158208
0.157744
0.157266
0.156774
0.156269
0.15575
0.155219
0.154676
0.15412
0.153552
0.152973
0.152383
0.151782
0.15117
0.150548
0.149916
0.149274
0.148622
0.147962
0.147293
0.146615
0.145928
0.145234
0.144531
0.143821
0.143104
0.14238
0.141648
0.14091
0.140165
0.139414
0.138658
0.137895
0.137126
0.136353
0.135573
0.134789
0.134
0.133207
0.132408
0.131606
0.130799
0.129988
0.129173
0.128355
0.127533
0.126707
0.125879
0.125047
0.124212
0.123374
0.122533
0.12169
0.120844
0.119996
0.119145
0.118292
0.117437
0.116579
0.11572
0.114859
0.113995
0.11313
0.112263
0.111394
0.110524
0.109651
0.108777
0.107901
0.107024
0.164677
0.190055
0.174857
0.16928
0.166825
0.165491
0.164651
0.164056
0.163589
0.163192
0.162831
0.162487
0.162149
0.161809
0.161463
0.161106
0.160738
0.160357
0.159962
0.159553
0.159129
0.158692
0.15824
0.157774
0.157294
0.1568
0.156294
0.155774
0.155241
0.154697
0.15414
0.153571
0.152991
0.1524
0.151797
0.151185
0.150562
0.149929
0.149286
0.148634
0.147973
0.147303
0.146625
0.145938
0.145243
0.14454
0.14383
0.143112
0.142387
0.141655
0.140917
0.140172
0.139421
0.138663
0.1379
0.137132
0.136358
0.135578
0.134794
0.134004
0.13321
0.132412
0.131609
0.130802
0.129991
0.129176
0.128357
0.127535
0.126709
0.125881
0.125048
0.124213
0.123375
0.122534
0.121691
0.120845
0.119996
0.119145
0.118292
0.117436
0.116579
0.115719
0.114858
0.113994
0.113129
0.112261
0.111392
0.110522
0.109649
0.108775
0.107898
0.107021
0.164718
0.189989
0.174789
0.169254
0.166824
0.165509
0.164681
0.164092
0.16363
0.163235
0.162876
0.162532
0.162194
0.161853
0.161505
0.161147
0.160777
0.160395
0.159998
0.159587
0.159162
0.158723
0.15827
0.157802
0.157321
0.156826
0.156318
0.155797
0.155264
0.154718
0.15416
0.15359
0.153009
0.152417
0.151814
0.1512
0.150576
0.149943
0.1493
0.148647
0.147985
0.147315
0.146636
0.145948
0.145253
0.144549
0.143839
0.14312
0.142395
0.141663
0.140924
0.140179
0.139427
0.13867
0.137906
0.137137
0.136363
0.135583
0.134798
0.134009
0.133215
0.132416
0.131613
0.130806
0.129994
0.129179
0.12836
0.127538
0.126712
0.125883
0.12505
0.124215
0.123377
0.122536
0.121692
0.120846
0.119997
0.119146
0.118292
0.117437
0.116579
0.115719
0.114857
0.113993
0.113128
0.11226
0.111391
0.11052
0.109647
0.108772
0.107896
0.107018
0.164754
0.189942
0.174743
0.169224
0.166812
0.165512
0.164694
0.164112
0.163654
0.163263
0.162905
0.162563
0.162225
0.161885
0.161537
0.161179
0.160809
0.160425
0.160028
0.159617
0.159191
0.158751
0.158296
0.157828
0.157346
0.15685
0.156341
0.155819
0.155285
0.154738
0.154179
0.153609
0.153027
0.152434
0.15183
0.151216
0.150591
0.149957
0.149313
0.14866
0.147998
0.147326
0.146647
0.145959
0.145263
0.144559
0.143848
0.143129
0.142403
0.141671
0.140931
0.140186
0.139434
0.138676
0.137912
0.137143
0.136368
0.135588
0.134803
0.134014
0.133219
0.13242
0.131617
0.130809
0.129998
0.129182
0.128363
0.127541
0.126714
0.125885
0.125053
0.124217
0.123378
0.122537
0.121693
0.120847
0.119998
0.119146
0.118293
0.117437
0.116579
0.115719
0.114857
0.113993
0.113127
0.112259
0.11139
0.110518
0.109645
0.10877
0.107894
0.107015
0.164787
0.189906
0.174705
0.169191
0.166795
0.165509
0.1647
0.164125
0.163671
0.163282
0.162926
0.162586
0.162249
0.161909
0.161562
0.161204
0.160834
0.160451
0.160053
0.159642
0.159215
0.158775
0.15832
0.157851
0.157368
0.156872
0.156362
0.15584
0.155305
0.154757
0.154198
0.153626
0.153044
0.15245
0.151846
0.151231
0.150606
0.149971
0.149327
0.148673
0.14801
0.147338
0.146658
0.14597
0.145273
0.144569
0.143857
0.143138
0.142412
0.141679
0.140939
0.140193
0.139441
0.138683
0.137919
0.137149
0.136374
0.135594
0.134809
0.134019
0.133224
0.132425
0.131621
0.130813
0.130001
0.129186
0.128366
0.127544
0.126717
0.125888
0.125055
0.124219
0.123381
0.122539
0.121695
0.120848
0.119999
0.119147
0.118294
0.117438
0.116579
0.115719
0.114857
0.113993
0.113127
0.112259
0.111389
0.110517
0.109644
0.108769
0.107892
0.107013
0.164822
0.189878
0.17467
0.169157
0.166774
0.165498
0.164698
0.164129
0.16368
0.163294
0.16294
0.162601
0.162266
0.161927
0.16158
0.161223
0.160854
0.160471
0.160073
0.159662
0.159236
0.158795
0.15834
0.157871
0.157388
0.156892
0.156382
0.155859
0.155323
0.154775
0.154215
0.153643
0.15306
0.152466
0.151861
0.151246
0.15062
0.149985
0.14934
0.148686
0.148022
0.14735
0.14667
0.145981
0.145284
0.144579
0.143867
0.143147
0.142421
0.141687
0.140947
0.140201
0.139448
0.13869
0.137925
0.137156
0.13638
0.1356
0.134814
0.134024
0.133229
0.132429
0.131625
0.130817
0.130005
0.12919
0.12837
0.127547
0.12672
0.125891
0.125058
0.124222
0.123383
0.122541
0.121697
0.12085
0.12
0.119149
0.118295
0.117438
0.11658
0.11572
0.114857
0.113993
0.113126
0.112258
0.111388
0.110516
0.109643
0.108767
0.10789
0.107011
0.164855
0.189857
0.17464
0.169125
0.16675
0.165483
0.16469
0.164127
0.163682
0.163299
0.162948
0.162611
0.162277
0.161939
0.161594
0.161237
0.160868
0.160486
0.160089
0.159678
0.159253
0.158812
0.158357
0.157888
0.157405
0.156909
0.156399
0.155876
0.15534
0.154791
0.154231
0.153659
0.153076
0.152481
0.151876
0.15126
0.150634
0.149998
0.149353
0.148698
0.148034
0.147362
0.146681
0.145992
0.145294
0.144589
0.143877
0.143157
0.14243
0.141696
0.140956
0.140209
0.139456
0.138697
0.137932
0.137162
0.136387
0.135606
0.13482
0.134029
0.133234
0.132434
0.13163
0.130822
0.13001
0.129194
0.128374
0.12755
0.126724
0.125894
0.125061
0.124224
0.123385
0.122543
0.121699
0.120852
0.120002
0.11915
0.118296
0.11744
0.116581
0.11572
0.114858
0.113993
0.113127
0.112258
0.111388
0.110516
0.109642
0.108767
0.107889
0.10701
0.164883
0.18984
0.174615
0.169098
0.166727
0.165466
0.16468
0.164122
0.163681
0.163301
0.162953
0.162617
0.162285
0.161948
0.161603
0.161248
0.16088
0.160498
0.160102
0.159691
0.159266
0.158826
0.158372
0.157903
0.15742
0.156924
0.156414
0.15589
0.155355
0.154806
0.154246
0.153674
0.15309
0.152495
0.15189
0.151274
0.150647
0.150011
0.149366
0.148711
0.148046
0.147373
0.146692
0.146002
0.145305
0.144599
0.143886
0.143166
0.142439
0.141705
0.140964
0.140217
0.139464
0.138705
0.13794
0.137169
0.136393
0.135612
0.134826
0.134035
0.133239
0.132439
0.131635
0.130827
0.130014
0.129198
0.128378
0.127554
0.126727
0.125897
0.125064
0.124227
0.123388
0.122546
0.121701
0.120854
0.120004
0.119152
0.118298
0.117441
0.116582
0.115721
0.114859
0.113994
0.113127
0.112258
0.111388
0.110516
0.109642
0.108766
0.107888
0.107009
0.164908
0.189828
0.174594
0.169075
0.166705
0.165449
0.164668
0.164115
0.163678
0.163301
0.162955
0.162621
0.16229
0.161954
0.161611
0.161256
0.160889
0.160507
0.160112
0.159702
0.159277
0.158838
0.158384
0.157915
0.157433
0.156936
0.156426
0.155904
0.155368
0.154819
0.154259
0.153687
0.153103
0.152508
0.151903
0.151286
0.15066
0.150024
0.149378
0.148722
0.148058
0.147385
0.146703
0.146013
0.145315
0.144609
0.143896
0.143176
0.142448
0.141714
0.140973
0.140225
0.139472
0.138712
0.137947
0.137176
0.1364
0.135619
0.134832
0.134041
0.133245
0.132445
0.13164
0.130832
0.130019
0.129202
0.128382
0.127558
0.126731
0.125901
0.125067
0.124231
0.123391
0.122549
0.121704
0.120856
0.120006
0.119154
0.1183
0.117443
0.116584
0.115723
0.11486
0.113995
0.113128
0.112259
0.111388
0.110516
0.109642
0.108766
0.107888
0.107008
0.16493
0.189818
0.174577
0.169055
0.166686
0.165432
0.164655
0.164106
0.163673
0.163299
0.162954
0.162623
0.162293
0.161958
0.161616
0.161262
0.160895
0.160515
0.16012
0.15971
0.159286
0.158847
0.158393
0.157925
0.157443
0.156947
0.156438
0.155915
0.155379
0.154831
0.154271
0.153699
0.153115
0.15252
0.151914
0.151298
0.150672
0.150035
0.149389
0.148733
0.148069
0.147395
0.146714
0.146023
0.145325
0.144619
0.143906
0.143185
0.142457
0.141722
0.140981
0.140233
0.13948
0.13872
0.137954
0.137183
0.136407
0.135625
0.134839
0.134047
0.133251
0.132451
0.131646
0.130837
0.130024
0.129207
0.128387
0.127563
0.126735
0.125905
0.125071
0.124234
0.123394
0.122552
0.121707
0.120859
0.120009
0.119157
0.118302
0.117445
0.116586
0.115724
0.114861
0.113996
0.113129
0.11226
0.111389
0.110517
0.109642
0.108766
0.107888
0.107008
0.164949
0.18981
0.174563
0.169039
0.166669
0.165416
0.164642
0.164097
0.163666
0.163295
0.162953
0.162622
0.162294
0.161961
0.161619
0.161266
0.1609
0.16052
0.160126
0.159717
0.159293
0.158855
0.158402
0.157934
0.157452
0.156957
0.156447
0.155925
0.15539
0.154842
0.154281
0.153709
0.153126
0.152531
0.151925
0.151309
0.150682
0.150046
0.1494
0.148744
0.148079
0.147406
0.146724
0.146033
0.145335
0.144629
0.143915
0.143194
0.142466
0.141731
0.14099
0.140242
0.139488
0.138728
0.137962
0.137191
0.136414
0.135632
0.134845
0.134053
0.133257
0.132456
0.131651
0.130842
0.130029
0.129212
0.128391
0.127567
0.12674
0.125909
0.125075
0.124238
0.123398
0.122555
0.12171
0.120862
0.120012
0.119159
0.118304
0.117447
0.116588
0.115726
0.114863
0.113998
0.113131
0.112261
0.11139
0.110518
0.109643
0.108767
0.107888
0.107008
0.164964
0.189805
0.174552
0.169025
0.166653
0.165402
0.16463
0.164086
0.163659
0.16329
0.16295
0.162621
0.162294
0.161962
0.161621
0.161269
0.160904
0.160524
0.160131
0.159722
0.159299
0.158861
0.158408
0.157941
0.15746
0.156965
0.156456
0.155934
0.155398
0.154851
0.154291
0.153719
0.153136
0.152541
0.151935
0.151319
0.150692
0.150056
0.14941
0.148754
0.148089
0.147416
0.146733
0.146043
0.145344
0.144638
0.143924
0.143203
0.142475
0.14174
0.140998
0.14025
0.139496
0.138735
0.137969
0.137198
0.136421
0.135639
0.134852
0.13406
0.133263
0.132462
0.131657
0.130848
0.130034
0.129217
0.128396
0.127572
0.126744
0.125913
0.125079
0.124242
0.123402
0.122559
0.121714
0.120866
0.120015
0.119162
0.118307
0.11745
0.11659
0.115729
0.114865
0.114
0.113132
0.112263
0.111392
0.110519
0.109644
0.108768
0.107889
0.107009
0.164978
0.1898
0.174544
0.169014
0.16664
0.165388
0.164617
0.164076
0.163651
0.163284
0.162946
0.162619
0.162293
0.161962
0.161622
0.16127
0.160906
0.160527
0.160134
0.159727
0.159304
0.158866
0.158414
0.157947
0.157466
0.156971
0.156463
0.155941
0.155406
0.154859
0.154299
0.153728
0.153144
0.15255
0.151944
0.151328
0.150702
0.150065
0.149419
0.148763
0.148099
0.147425
0.146743
0.146052
0.145354
0.144647
0.143933
0.143212
0.142483
0.141748
0.141006
0.140258
0.139504
0.138743
0.137977
0.137205
0.136428
0.135646
0.134859
0.134067
0.13327
0.132469
0.131663
0.130854
0.13004
0.129223
0.128402
0.127577
0.126749
0.125918
0.125084
0.124246
0.123406
0.122563
0.121718
0.120869
0.120019
0.119166
0.11831
0.117453
0.116593
0.115732
0.114868
0.114002
0.113135
0.112265
0.111394
0.110521
0.109646
0.108769
0.10789
0.10701
0.164989
0.189797
0.174537
0.169005
0.166629
0.165376
0.164606
0.164066
0.163642
0.163277
0.162941
0.162615
0.162291
0.161961
0.161622
0.161271
0.160907
0.16053
0.160137
0.15973
0.159308
0.158871
0.158419
0.157952
0.157472
0.156977
0.156469
0.155948
0.155413
0.154866
0.154307
0.153735
0.153152
0.152558
0.151953
0.151337
0.15071
0.150074
0.149428
0.148772
0.148107
0.147434
0.146752
0.146061
0.145362
0.144656
0.143942
0.14322
0.142492
0.141756
0.141014
0.140266
0.139511
0.138751
0.137985
0.137213
0.136435
0.135653
0.134866
0.134073
0.133276
0.132475
0.131669
0.13086
0.130046
0.129228
0.128407
0.127582
0.126754
0.125923
0.125088
0.124251
0.123411
0.122567
0.121722
0.120873
0.120023
0.119169
0.118314
0.117456
0.116597
0.115735
0.114871
0.114005
0.113137
0.112268
0.111396
0.110523
0.109648
0.108771
0.107892
0.107012
0.164999
0.189795
0.174532
0.168998
0.166619
0.165366
0.164596
0.164056
0.163634
0.16327
0.162935
0.162611
0.162288
0.161959
0.161621
0.161271
0.160908
0.160531
0.160139
0.159732
0.159311
0.158874
0.158423
0.157957
0.157477
0.156982
0.156475
0.155953
0.155419
0.154873
0.154313
0.153742
0.15316
0.152565
0.15196
0.151344
0.150718
0.150082
0.149436
0.14878
0.148116
0.147442
0.14676
0.146069
0.145371
0.144664
0.14395
0.143229
0.1425
0.141765
0.141022
0.140274
0.139519
0.138759
0.137992
0.13722
0.136443
0.13566
0.134873
0.13408
0.133283
0.132482
0.131676
0.130866
0.130052
0.129234
0.128413
0.127588
0.12676
0.125928
0.125094
0.124256
0.123415
0.122572
0.121726
0.120878
0.120027
0.119174
0.118318
0.11746
0.1166
0.115738
0.114874
0.114008
0.11314
0.112271
0.111399
0.110525
0.10965
0.108773
0.107894
0.107014
0.165007
0.189793
0.174528
0.168992
0.166611
0.165356
0.164586
0.164047
0.163626
0.163263
0.16293
0.162607
0.162285
0.161957
0.16162
0.161271
0.160908
0.160532
0.16014
0.159734
0.159313
0.158877
0.158426
0.15796
0.157481
0.156987
0.156479
0.155959
0.155425
0.154878
0.154319
0.153749
0.153166
0.152572
0.151967
0.151352
0.150726
0.150089
0.149444
0.148788
0.148124
0.14745
0.146768
0.146077
0.145379
0.144672
0.143958
0.143237
0.142508
0.141772
0.14103
0.140282
0.139527
0.138766
0.138
0.137228
0.13645
0.135667
0.13488
0.134087
0.13329
0.132488
0.131682
0.130872
0.130058
0.12924
0.128419
0.127594
0.126765
0.125934
0.125099
0.124261
0.12342
0.122577
0.121731
0.120882
0.120031
0.119178
0.118322
0.117464
0.116604
0.115742
0.114878
0.114012
0.113144
0.112274
0.111402
0.110528
0.109653
0.108775
0.107896
0.107016
0.165014
0.189792
0.174526
0.168987
0.166605
0.165348
0.164577
0.164039
0.163618
0.163256
0.162924
0.162602
0.162281
0.161954
0.161618
0.16127
0.160908
0.160532
0.160141
0.159735
0.159315
0.158879
0.158428
0.157963
0.157484
0.156991
0.156483
0.155963
0.15543
0.154883
0.154325
0.153754
0.153172
0.152578
0.151974
0.151358
0.150732
0.150097
0.149451
0.148796
0.148131
0.147458
0.146776
0.146085
0.145386
0.14468
0.143966
0.143244
0.142516
0.14178
0.141038
0.140289
0.139535
0.138774
0.138007
0.137235
0.136457
0.135675
0.134887
0.134094
0.133297
0.132495
0.131689
0.130879
0.130065
0.129247
0.128425
0.1276
0.126771
0.125939
0.125105
0.124267
0.123426
0.122582
0.121736
0.120887
0.120036
0.119183
0.118327
0.117469
0.116609
0.115747
0.114882
0.114016
0.113148
0.112278
0.111406
0.110531
0.165021
0.189791
0.174524
0.168984
0.1666
0.165342
0.16457
0.164031
0.16361
0.16325
0.162918
0.162597
0.162277
0.161951
0.161615
0.161268
0.160907
0.160531
0.160141
0.159736
0.159316
0.158881
0.15843
0.157966
0.157487
0.156994
0.156487
0.155967
0.155434
0.154888
0.15433
0.153759
0.153177
0.152584
0.15198
0.151364
0.150739
0.150103
0.149457
0.148802
0.148138
0.147465
0.146783
0.146092
0.145394
0.144687
0.143973
0.143252
0.142523
0.141788
0.141046
0.140297
0.139542
0.138781
0.138015
0.137242
0.136465
0.135682
0.134894
0.134101
0.133304
0.132502
0.131696
0.130885
0.130071
0.129253
0.128431
0.127606
0.126777
0.125945
0.12511
0.124272
0.123432
0.122588
0.121742
0.120893
0.120042
0.119188
0.118332
0.117474
0.116614
0.115751
0.114887
0.114021
0.113152
0.112282
0.111409
0.110535
0.165026
0.189791
0.174523
0.168981
0.166595
0.165336
0.164563
0.164024
0.163603
0.163243
0.162912
0.162592
0.162272
0.161947
0.161613
0.161266
0.160905
0.160531
0.160141
0.159736
0.159317
0.158882
0.158432
0.157968
0.157489
0.156997
0.15649
0.155971
0.155438
0.154892
0.154334
0.153764
0.153182
0.152589
0.151985
0.15137
0.150745
0.150109
0.149464
0.148809
0.148145
0.147472
0.14679
0.146099
0.145401
0.144695
0.143981
0.143259
0.142531
0.141795
0.141053
0.140304
0.13955
0.138789
0.138022
0.13725
0.136472
0.135689
0.134901
0.134108
0.133311
0.132509
0.131703
0.130892
0.130078
0.12926
0.128438
0.127613
0.126784
0.125952
0.125117
0.124279
0.123438
0.122594
0.121747
0.120899
0.120047
0.119193
0.118337
0.117479
0.116619
0.115756
0.114892
0.114025
0.113157
0.112286
0.111414
0.110539
0.165031
0.18979
0.174522
0.168979
0.166592
0.165331
0.164557
0.164017
0.163597
0.163237
0.162906
0.162586
0.162268
0.161943
0.161609
0.161263
0.160904
0.16053
0.16014
0.159736
0.159317
0.158883
0.158433
0.15797
0.157491
0.156999
0.156493
0.155974
0.155441
0.154896
0.154338
0.153769
0.153187
0.152594
0.15199
0.151376
0.15075
0.150115
0.14947
0.148815
0.148151
0.147478
0.146796
0.146106
0.145408
0.144702
0.143988
0.143266
0.142538
0.141802
0.14106
0.140312
0.139557
0.138796
0.138029
0.137257
0.136479
0.135696
0.134908
0.134115
0.133318
0.132516
0.13171
0.130899
0.130085
0.129267
0.128445
0.127619
0.12679
0.125958
0.125123
0.124285
0.123444
0.1226
0.121754
0.120905
0.120053
0.119199
0.118343
0.117485
0.116625
0.115762
0.114897
0.114031
0.113162
0.165036
0.18979
0.174521
0.168978
0.166589
0.165327
0.164552
0.164012
0.163591
0.163231
0.1629
0.162581
0.162263
0.161939
0.161606
0.161261
0.160902
0.160528
0.16014
0.159736
0.159317
0.158883
0.158434
0.157971
0.157493
0.157001
0.156496
0.155976
0.155444
0.154899
0.154342
0.153773
0.153191
0.152599
0.151995
0.151381
0.150756
0.150121
0.149476
0.148821
0.148157
0.147484
0.146803
0.146113
0.145415
0.144708
0.143995
0.143273
0.142545
0.14181
0.141068
0.140319
0.139564
0.138803
0.138037
0.137264
0.136487
0.135704
0.134916
0.134123
0.133325
0.132523
0.131717
0.130906
0.130092
0.129274
0.128452
0.127626
0.126797
0.125965
0.12513
0.124292
0.12345
0.122607
0.12176
0.120911
0.12006
0.119206
0.11835
0.117491
0.116631
0.115768
0.114903
0.114037
0.113168
0.16504
0.18979
0.174521
0.168977
0.166587
0.165324
0.164548
0.164007
0.163585
0.163225
0.162895
0.162576
0.162259
0.161935
0.161603
0.161258
0.160899
0.160526
0.160138
0.159735
0.159317
0.158883
0.158435
0.157972
0.157495
0.157003
0.156498
0.155979
0.155447
0.154903
0.154345
0.153776
0.153195
0.152603
0.152
0.151385
0.150761
0.150126
0.149481
0.148827
0.148163
0.14749
0.146809
0.146119
0.145421
0.144715
0.144001
0.14328
0.142552
0.141817
0.141075
0.140326
0.139571
0.138811
0.138044
0.137272
0.136494
0.135711
0.134923
0.13413
0.133333
0.132531
0.131724
0.130914
0.130099
0.129281
0.128459
0.127633
0.126804
0.125972
0.125137
0.124299
0.123457
0.122613
0.121767
0.120918
0.120066
0.119212
0.118356
0.117498
0.116637
0.115775
0.11491
0.114043
0.113174
0.165044
0.189791
0.174521
0.168977
0.166586
0.165321
0.164544
0.164002
0.16358
0.16322
0.16289
0.162571
0.162254
0.161931
0.161599
0.161255
0.160897
0.160524
0.160137
0.159734
0.159316
0.158883
0.158435
0.157973
0.157496
0.157005
0.1565
0.155981
0.15545
0.154905
0.154349
0.15378
0.153199
0.152607
0.152004
0.15139
0.150766
0.150131
0.149486
0.148832
0.148169
0.147496
0.146815
0.146125
0.145427
0.144721
0.144008
0.143287
0.142559
0.141824
0.141082
0.140333
0.139579
0.138818
0.138051
0.137279
0.136501
0.135718
0.13493
0.134137
0.13334
0.132538
0.131732
0.130921
0.130107
0.129288
0.128466
0.127641
0.126812
0.12598
0.125144
0.124306
0.123465
0.122621
0.121774
0.120925
0.120073
0.11922
0.118363
0.117505
0.116644
0.115782
0.114917
0.11405
0.113181
0.165048
0.189791
0.174522
0.168976
0.166585
0.165319
0.164541
0.163999
0.163576
0.163215
0.162885
0.162567
0.16225
0.161927
0.161595
0.161251
0.160894
0.160522
0.160135
0.159733
0.159315
0.158883
0.158435
0.157973
0.157497
0.157006
0.156501
0.155983
0.155452
0.154908
0.154352
0.153783
0.153203
0.152611
0.152008
0.151394
0.15077
0.150136
0.149491
0.148837
0.148174
0.147502
0.146821
0.146131
0.145434
0.144728
0.144014
0.143294
0.142565
0.14183
0.141089
0.14034
0.139586
0.138825
0.138058
0.137286
0.136509
0.135726
0.134938
0.134145
0.133348
0.132546
0.131739
0.130929
0.130114
0.129296
0.128474
0.127648
0.126819
0.125987
0.125152
0.124313
0.123472
0.122628
0.121782
0.120933
0.120081
0.119227
0.118371
0.117513
0.116652
0.115789
0.114924
0.114057
0.113188
0.165052
0.189791
0.174522
0.168976
0.166584
0.165318
0.164539
0.163995
0.163572
0.163211
0.162881
0.162562
0.162245
0.161923
0.161592
0.161248
0.160891
0.16052
0.160133
0.159731
0.159314
0.158882
0.158435
0.157973
0.157497
0.157007
0.156503
0.155985
0.155454
0.15491
0.154354
0.153786
0.153206
0.152615
0.152012
0.151398
0.150775
0.15014
0.149496
0.148842
0.148179
0.147507
0.146827
0.146137
0.14544
0.144734
0.144021
0.1433
0.142572
0.141837
0.141095
0.140347
0.139593
0.138832
0.138066
0.137294
0.136516
0.135733
0.134945
0.134153
0.133355
0.132553
0.131747
0.130936
0.130122
0.129304
0.128482
0.127656
0.126827
0.125995
0.12516
0.124321
0.12348
0.122636
0.12179
0.120941
0.120089
0.119235
0.118379
0.117521
0.11666
0.115797
0.114932
0.114065
0.113196
0.165055
0.189791
0.174522
0.168976
0.166584
0.165317
0.164537
0.163993
0.163569
0.163207
0.162877
0.162558
0.162241
0.161919
0.161588
0.161245
0.160888
0.160517
0.160131
0.15973
0.159313
0.158882
0.158435
0.157974
0.157498
0.157008
0.156504
0.155986
0.155456
0.154913
0.154357
0.153789
0.153209
0.152618
0.152016
0.151402
0.150779
0.150145
0.149501
0.148847
0.148185
0.147513
0.146832
0.146143
0.145446
0.14474
0.144027
0.143307
0.142579
0.141844
0.141102
0.140354
0.1396
0.138839
0.138073
0.137301
0.136524
0.135741
0.134953
0.13416
0.133363
0.132561
0.131755
0.130944
0.13013
0.129312
0.12849
0.127664
0.126835
0.126003
0.125168
0.12433
0.123489
0.122645
0.121798
0.120949
0.120098
0.119244
0.118387
0.117529
0.116668
0.115806
0.114941
0.114073
0.113204
0.165058
0.189791
0.174522
0.168976
0.166583
0.165316
0.164535
0.163991
0.163566
0.163204
0.162873
0.162555
0.162238
0.161916
0.161585
0.161242
0.160885
0.160515
0.160129
0.159728
0.159312
0.158881
0.158434
0.157973
0.157498
0.157008
0.156505
0.155988
0.155458
0.154915
0.154359
0.153792
0.153212
0.152621
0.152019
0.151406
0.150783
0.150149
0.149506
0.148852
0.14819
0.147518
0.146838
0.146149
0.145451
0.144746
0.144033
0.143313
0.142585
0.141851
0.141109
0.140361
0.139607
0.138847
0.13808
0.137309
0.136531
0.135749
0.134961
0.134168
0.133371
0.132569
0.131763
0.130953
0.130138
0.12932
0.128498
0.127673
0.126844
0.126012
0.125177
0.124338
0.123497
0.122653
0.121807
0.120958
0.120106
0.119253
0.118396
0.117538
0.116677
0.115815
0.11495
0.114082
0.113213
0.165062
0.189791
0.174522
0.168976
0.166583
0.165315
0.164534
0.163989
0.163564
0.163201
0.16287
0.162551
0.162234
0.161912
0.161581
0.161239
0.160883
0.160512
0.160127
0.159726
0.159311
0.15888
0.158434
0.157973
0.157498
0.157009
0.156506
0.155989
0.155459
0.154917
0.154362
0.153794
0.153215
0.152624
0.152023
0.15141
0.150787
0.150153
0.14951
0.148857
0.148195
0.147523
0.146843
0.146154
0.145457
0.144752
0.14404
0.143319
0.142592
0.141857
0.141116
0.140368
0.139614
0.138854
0.138088
0.137316
0.136539
0.135756
0.134969
0.134176
0.133379
0.132577
0.131771
0.130961
0.130147
0.129329
0.128507
0.127681
0.126853
0.126021
0.125185
0.124347
0.123506
0.122662
0.121816
0.120967
0.120116
0.119262
0.118406
0.117547
0.116687
0.115824
0.114959
0.114092
0.113222
0.165065
0.189792
0.174523
0.168976
0.166583
0.165315
0.164533
0.163987
0.163562
0.163199
0.162867
0.162548
0.162231
0.161909
0.161578
0.161236
0.16088
0.16051
0.160124
0.159724
0.159309
0.158878
0.158433
0.157973
0.157498
0.157009
0.156506
0.15599
0.155461
0.154918
0.154364
0.153797
0.153218
0.152628
0.152026
0.151414
0.150791
0.150158
0.149514
0.148862
0.1482
0.147528
0.146848
0.14616
0.145463
0.144758
0.144046
0.143326
0.142598
0.141864
0.141123
0.140375
0.139621
0.138861
0.138095
0.137324
0.136547
0.135764
0.134977
0.134184
0.133387
0.132586
0.13178
0.13097
0.130155
0.129337
0.128516
0.12769
0.126862
0.12603
0.125195
0.124357
0.123516
0.122672
0.121826
0.120977
0.120125
0.119272
0.118416
0.117557
0.116697
0.115834
0.114969
0.114102
0.113232
0.165068
0.189792
0.174523
0.168977
0.166583
0.165314
0.164533
0.163986
0.16356
0.163197
0.162864
0.162545
0.162228
0.161906
0.161575
0.161233
0.160877
0.160507
0.160122
0.159722
0.159307
0.158877
0.158432
0.157972
0.157498
0.157009
0.156507
0.155991
0.155462
0.15492
0.154366
0.153799
0.15322
0.15263
0.152029
0.151417
0.150795
0.150162
0.149519
0.148866
0.148204
0.147534
0.146854
0.146165
0.145469
0.144764
0.144052
0.143332
0.142605
0.141871
0.14113
0.140383
0.139629
0.138869
0.138103
0.137332
0.136555
0.135772
0.134985
0.134193
0.133396
0.132594
0.131788
0.130978
0.130164
0.129346
0.128525
0.1277
0.126871
0.126039
0.125204
0.124366
0.123525
0.122682
0.121836
0.120987
0.120136
0.119282
0.118426
0.117568
0.116707
0.115844
0.114979
0.114112
0.113243
0.165072
0.189792
0.174523
0.168977
0.166583
0.165314
0.164532
0.163985
0.163559
0.163195
0.162862
0.162543
0.162225
0.161903
0.161572
0.16123
0.160874
0.160505
0.16012
0.15972
0.159306
0.158876
0.158431
0.157972
0.157498
0.157009
0.156507
0.155992
0.155463
0.154922
0.154367
0.153801
0.153223
0.152633
0.152032
0.151421
0.150798
0.150166
0.149523
0.148871
0.148209
0.147539
0.146859
0.146171
0.145475
0.14477
0.144058
0.143339
0.142612
0.141878
0.141137
0.14039
0.139636
0.138876
0.138111
0.137339
0.136563
0.13578
0.134993
0.134201
0.133404
0.132603
0.131797
0.130987
0.130173
0.129356
0.128534
0.127709
0.126881
0.126049
0.125214
0.124376
0.123536
0.122692
0.121846
0.120997
0.120146
0.119293
0.118437
0.117579
0.116718
0.115855
0.11499
0.114123
0.113254
0.165075
0.189792
0.174523
0.168977
0.166583
0.165314
0.164532
0.163984
0.163557
0.163193
0.16286
0.16254
0.162223
0.161901
0.16157
0.161227
0.160872
0.160502
0.160118
0.159719
0.159304
0.158875
0.15843
0.157971
0.157497
0.157009
0.156508
0.155993
0.155464
0.154923
0.154369
0.153803
0.153225
0.152636
0.152035
0.151424
0.150802
0.15017
0.149527
0.148875
0.148214
0.147544
0.146864
0.146177
0.14548
0.144776
0.144064
0.143345
0.142618
0.141885
0.141144
0.140397
0.139644
0.138884
0.138119
0.137347
0.136571
0.135789
0.135002
0.13421
0.133413
0.132612
0.131806
0.130997
0.130183
0.129365
0.128544
0.127719
0.126891
0.126059
0.125224
0.124387
0.123546
0.122703
0.121857
0.121008
0.120157
0.119304
0.118448
0.11759
0.116729
0.115867
0.115002
0.114135
0.113266
0.165078
0.189793
0.174523
0.168977
0.166583
0.165314
0.164531
0.163984
0.163556
0.163192
0.162859
0.162539
0.162221
0.161898
0.161567
0.161225
0.160869
0.1605
0.160116
0.159717
0.159302
0.158873
0.158429
0.15797
0.157497
0.157009
0.156508
0.155993
0.155465
0.154924
0.154371
0.153805
0.153228
0.152639
0.152038
0.151427
0.150805
0.150173
0.149531
0.14888
0.148219
0.147549
0.14687
0.146182
0.145486
0.144782
0.144071
0.143351
0.142625
0.141891
0.141151
0.140404
0.139651
0.138892
0.138126
0.137355
0.136579
0.135797
0.13501
0.134219
0.133422
0.132621
0.131816
0.131006
0.130193
0.129375
0.128554
0.127729
0.126901
0.12607
0.125235
0.124398
0.123557
0.122714
0.121868
0.12102
0.120169
0.119315
0.11846
0.117602
0.116741
0.115879
0.115014
0.114147
0.113278
0.165081
0.189793
0.174523
0.168977
0.166583
0.165314
0.164531
0.163983
0.163556
0.163191
0.162857
0.162537
0.162219
0.161896
0.161565
0.161223
0.160867
0.160498
0.160114
0.159715
0.159301
0.158872
0.158428
0.157969
0.157496
0.157009
0.156508
0.155994
0.155466
0.154925
0.154372
0.153807
0.15323
0.152641
0.152041
0.15143
0.150809
0.150177
0.149536
0.148884
0.148223
0.147554
0.146875
0.146187
0.145492
0.144788
0.144077
0.143358
0.142632
0.141898
0.141158
0.140412
0.139659
0.1389
0.138135
0.137364
0.136587
0.135806
0.135019
0.134228
0.133431
0.132631
0.131825
0.131016
0.130202
0.129385
0.128564
0.12774
0.126912
0.12608
0.125246
0.124409
0.123569
0.122726
0.12188
0.121032
0.120181
0.119328
0.118472
0.117614
0.116754
0.115891
0.115027
0.11416
0.113291
0.165085
0.189793
0.174523
0.168977
0.166583
0.165314
0.164531
0.163983
0.163555
0.16319
0.162856
0.162535
0.162217
0.161894
0.161563
0.161221
0.160865
0.160496
0.160112
0.159713
0.159299
0.15887
0.158427
0.157969
0.157496
0.157009
0.156508
0.155994
0.155467
0.154926
0.154374
0.153809
0.153232
0.152644
0.152044
0.151433
0.150812
0.150181
0.14954
0.148889
0.148228
0.147558
0.14688
0.146193
0.145498
0.144794
0.144083
0.143364
0.142638
0.141905
0.141166
0.140419
0.139666
0.138908
0.138143
0.137372
0.136596
0.135815
0.135028
0.134237
0.133441
0.13264
0.131835
0.131026
0.130213
0.129396
0.128575
0.12775
0.126923
0.126092
0.125258
0.12442
0.12358
0.122737
0.121892
0.121044
0.120193
0.11934
0.118485
0.117627
0.116767
0.115904
0.11504
0.114173
0.113304
0.165088
0.189794
0.174523
0.168977
0.166583
0.165314
0.164531
0.163983
0.163555
0.163189
0.162855
0.162534
0.162216
0.161893
0.161561
0.161219
0.160863
0.160494
0.16011
0.159711
0.159298
0.158869
0.158426
0.157968
0.157495
0.157009
0.156508
0.155994
0.155467
0.154928
0.154375
0.15381
0.153234
0.152646
0.152047
0.151436
0.150816
0.150185
0.149544
0.148893
0.148233
0.147563
0.146885
0.146198
0.145503
0.1448
0.144089
0.143371
0.142645
0.141913
0.141173
0.140427
0.139674
0.138916
0.138151
0.137381
0.136605
0.135824
0.135037
0.134246
0.13345
0.13265
0.131845
0.131036
0.130223
0.129406
0.128586
0.127762
0.126934
0.126103
0.125269
0.124432
0.123592
0.12275
0.121904
0.121056
0.120206
0.119353
0.118498
0.11764
0.11678
0.115918
0.115053
0.114186
0.165092
0.189794
0.174523
0.168977
0.166583
0.165314
0.164531
0.163982
0.163554
0.163189
0.162854
0.162533
0.162214
0.161891
0.16156
0.161217
0.160862
0.160492
0.160109
0.15971
0.159296
0.158868
0.158425
0.157967
0.157495
0.157008
0.156508
0.155995
0.155468
0.154929
0.154376
0.153812
0.153236
0.152648
0.152049
0.151439
0.150819
0.150188
0.149548
0.148897
0.148237
0.147568
0.14689
0.146204
0.145509
0.144806
0.144096
0.143378
0.142652
0.14192
0.14118
0.140434
0.139682
0.138924
0.138159
0.137389
0.136614
0.135833
0.135047
0.134256
0.13346
0.13266
0.131856
0.131047
0.130234
0.129417
0.128597
0.127773
0.126946
0.126115
0.125281
0.124445
0.123605
0.122762
0.121917
0.121069
0.120219
0.119366
0.118511
0.117654
0.116794
0.115932
0.115067
0.114201
0.165095
0.189795
0.174523
0.168977
0.166583
0.165314
0.164531
0.163982
0.163554
0.163188
0.162854
0.162532
0.162213
0.16189
0.161559
0.161216
0.16086
0.160491
0.160107
0.159709
0.159295
0.158867
0.158424
0.157966
0.157494
0.157008
0.156508
0.155995
0.155469
0.154929
0.154378
0.153814
0.153238
0.15265
0.152052