/*--------------------------------*- C++ -*----------------------------------*\
  =========                 |
  \\      /  F ield         | OpenFOAM: The Open Source CFD Toolbox
   \\    /   O peration     | Website:  https://openfoam.org
    \\  /    A nd           | Version:  10
     \\/     M anipulation  |
\*---------------------------------------------------------------------------*/
FoamFile
{
    format      ascii;
    class       volScalarField;
    location    "2000";
    object      k;
}
// * * * * * * * * * * * * * * * * * * * * * * * * * * * * * * * * * * * * * //

dimensions      [0 2 -2 0 0 0 0];

internalField   nonuniform List<scalar> 
420
(
2.22045e-16
2.22045e-16
2.22045e-16
2.22045e-16
2.22045e-16
2.22045e-16
2.22045e-16
2.22045e-16
2.22045e-16
2.22045e-16
2.22045e-16
2.22045e-16
2.22045e-16
2.22045e-16
2.22045e-16
2.22045e-16
2.22045e-16
2.22045e-16
2.22045e-16
2.22045e-16
2.22045e-16
2.22045e-16
2.22045e-16
2.22045e-16
2.22045e-16
2.22045e-16
2.22045e-16
2.22045e-16
2.22045e-16
2.22045e-16
2.22045e-16
2.22045e-16
2.22045e-16
2.22045e-16
2.22045e-16
2.22045e-16
2.22045e-16
2.22045e-16
2.22045e-16
2.22045e-16
2.22045e-16
2.22045e-16
2.22045e-16
2.22045e-16
2.22045e-16
2.22045e-16
2.22045e-16
2.22045e-16
2.22045e-16
2.22045e-16
2.22045e-16
2.22045e-16
2.22045e-16
2.22045e-16
2.22045e-16
2.22045e-16
2.22045e-16
2.22045e-16
2.22045e-16
2.22045e-16
2.22045e-16
2.22045e-16
2.22045e-16
2.22045e-16
2.22045e-16
2.22045e-16
2.22045e-16
2.22045e-16
2.22045e-16
2.22045e-16
2.22045e-16
2.22045e-16
2.22045e-16
2.22045e-16
2.22045e-16
2.22045e-16
2.22045e-16
2.22045e-16
2.22045e-16
2.22045e-16
2.22045e-16
2.22045e-16
2.22045e-16
2.22045e-16
2.22045e-16
2.22045e-16
2.22045e-16
2.22045e-16
2.22045e-16
2.22045e-16
2.22045e-16
2.22045e-16
2.22045e-16
2.22045e-16
2.22045e-16
2.22045e-16
2.22045e-16
2.22045e-16
2.22045e-16
2.22045e-16
2.22045e-16
2.22045e-16
2.22045e-16
2.22045e-16
2.41996e-16
2.79285e-16
2.91103e-16
2.33003e-16
3.0093e-16
8.83105e-16
2.22045e-16
2.22045e-16
2.22045e-16
2.22045e-16
2.4042e-16
2.78465e-16
2.9501e-16
2.35018e-16
3.03129e-16
8.77696e-16
2.22045e-16
2.22045e-16
2.22045e-16
2.22045e-16
2.388e-16
2.75545e-16
2.96187e-16
2.35212e-16
3.02412e-16
8.7137e-16
2.22045e-16
2.22045e-16
2.22045e-16
2.22045e-16
2.39665e-16
2.74277e-16
2.96673e-16
2.35115e-16
3.02371e-16
8.64133e-16
2.22045e-16
2.22045e-16
2.22045e-16
2.22045e-16
2.43171e-16
2.73943e-16
2.9614e-16
2.34447e-16
3.00905e-16
8.55045e-16
2.22045e-16
2.22045e-16
2.22045e-16
2.22045e-16
2.49239e-16
2.74332e-16
2.95103e-16
2.3316e-16
2.98453e-16
8.4273e-16
2.22045e-16
2.22045e-16
2.22045e-16
2.22045e-16
2.57702e-16
2.75357e-16
2.93615e-16
2.31262e-16
2.9502e-16
8.28634e-16
2.22045e-16
2.22045e-16
2.22045e-16
2.29318e-16
2.6807e-16
2.7677e-16
2.91624e-16
2.28876e-16
2.90778e-16
8.12952e-16
2.22045e-16
2.22045e-16
2.22045e-16
2.43649e-16
2.79516e-16
2.79336e-16
2.89392e-16
2.26161e-16
2.86273e-16
7.96214e-16
2.22045e-16
2.22045e-16
2.22045e-16
2.6065e-16
2.90564e-16
2.82189e-16
2.87094e-16
2.23219e-16
2.81756e-16
7.78701e-16
2.22045e-16
2.22045e-16
2.3325e-16
2.77996e-16
2.97498e-16
2.8504e-16
2.8571e-16
2.22045e-16
2.76933e-16
7.59308e-16
2.22045e-16
2.22045e-16
2.47754e-16
2.8681e-16
3.02073e-16
2.8794e-16
2.83959e-16
2.22045e-16
2.69956e-16
7.46399e-16
2.22045e-16
2.24979e-16
2.64431e-16
2.95177e-16
3.0712e-16
2.91331e-16
2.81503e-16
2.22045e-16
2.65237e-16
7.37912e-16
2.23255e-16
2.6071e-16
2.83065e-16
3.00038e-16
3.08883e-16
2.93046e-16
2.76978e-16
2.22045e-16
2.64043e-16
7.34175e-16
2.61295e-16
2.7542e-16
2.85318e-16
2.9835e-16
3.07459e-16
2.93639e-16
2.72264e-16
2.22045e-16
2.65009e-16
7.29416e-16
2.6329e-16
2.72413e-16
2.81321e-16
2.94486e-16
3.05196e-16
2.93536e-16
2.67763e-16
2.22045e-16
2.68961e-16
7.2997e-16
2.57822e-16
2.65845e-16
2.74863e-16
2.88681e-16
3.01824e-16
2.92664e-16
2.63886e-16
2.22045e-16
2.74252e-16
7.36598e-16
2.50823e-16
2.57504e-16
2.66208e-16
2.8059e-16
2.9608e-16
2.90509e-16
2.60554e-16
2.23215e-16
2.80115e-16
7.48868e-16
2.42873e-16
2.47611e-16
2.55074e-16
2.68601e-16
2.85835e-16
2.8618e-16
2.57652e-16
2.26346e-16
2.86772e-16
7.65826e-16
2.32703e-16
2.3392e-16
2.38213e-16
2.50468e-16
2.7221e-16
2.78826e-16
2.55001e-16
2.2945e-16
2.95993e-16
7.83896e-16
2.22045e-16
2.22045e-16
2.22045e-16
2.30683e-16
2.58196e-16
2.71036e-16
2.53605e-16
2.31707e-16
3.08195e-16
7.96109e-16
2.22045e-16
2.22045e-16
2.22045e-16
2.22506e-16
2.5431e-16
2.69292e-16
2.54631e-16
2.34417e-16
3.20537e-16
8.04957e-16
2.22045e-16
2.22045e-16
2.24595e-16
2.44405e-16
2.46546e-16
2.45549e-16
2.44146e-16
2.40463e-16
2.25058e-16
2.22045e-16
2.22045e-16
2.22045e-16
2.22045e-16
2.22045e-16
2.33374e-16
2.3645e-16
2.38721e-16
2.40755e-16
2.27384e-16
2.22045e-16
2.22045e-16
2.22045e-16
2.22045e-16
2.22045e-16
2.22045e-16
2.22045e-16
2.24173e-16
2.29953e-16
2.25391e-16
2.22045e-16
2.22045e-16
2.22045e-16
2.22045e-16
2.22045e-16
2.22045e-16
2.22045e-16
2.22045e-16
2.22045e-16
2.22045e-16
2.22045e-16
2.22045e-16
2.22045e-16
2.22045e-16
2.22045e-16
2.22045e-16
2.22045e-16
2.22045e-16
2.22045e-16
2.22045e-16
2.22045e-16
2.22045e-16
2.22045e-16
2.22045e-16
2.22045e-16
2.22045e-16
2.22045e-16
2.22045e-16
2.22045e-16
2.22045e-16
2.22045e-16
2.22045e-16
2.22045e-16
2.22045e-16
2.22045e-16
2.22045e-16
2.22045e-16
2.22045e-16
2.22045e-16
2.22045e-16
2.22045e-16
2.22045e-16
2.22045e-16
2.22045e-16
2.22045e-16
2.22045e-16
2.22045e-16
2.22045e-16
2.22045e-16
2.22045e-16
2.22045e-16
2.22045e-16
2.22045e-16
2.22045e-16
2.22045e-16
2.22045e-16
2.22045e-16
2.22045e-16
2.22045e-16
2.22045e-16
2.22045e-16
2.22045e-16
2.22045e-16
2.22045e-16
2.22045e-16
2.22045e-16
2.22045e-16
2.22045e-16
2.22045e-16
2.22045e-16
2.22045e-16
)
;

boundaryField
{
    right
    {
        type            cyclic;
    }
    left
    {
        type            cyclic;
    }
    outerWall
    {
        type            kqRWallFunction;
        value           nonuniform List<scalar> 
22
(
8.83105e-16
8.77696e-16
8.7137e-16
8.64133e-16
8.55045e-16
8.4273e-16
8.28634e-16
8.12952e-16
7.96214e-16
7.78701e-16
7.59308e-16
7.46399e-16
7.37912e-16
7.34175e-16
7.29416e-16
7.2997e-16
7.36598e-16
7.48868e-16
7.65826e-16
7.83896e-16
7.96109e-16
8.04957e-16
)
;
    }
    stirrerWall
    {
        type            kqRWallFunction;
        value           uniform 2.22045e-16;
    }
    top
    {
        type            empty;
    }
    bottom
    {
        type            empty;
    }
}


// ************************************************************************* //
