/*--------------------------------*- C++ -*----------------------------------*\
  =========                 |
  \\      /  F ield         | OpenFOAM: The Open Source CFD Toolbox
   \\    /   O peration     | Website:  https://openfoam.org
    \\  /    A nd           | Version:  10
     \\/     M anipulation  |
\*---------------------------------------------------------------------------*/
FoamFile
{
    format      ascii;
    class       volScalarField;
    location    "2000";
    object      nut;
}
// * * * * * * * * * * * * * * * * * * * * * * * * * * * * * * * * * * * * * //

dimensions      [0 2 -1 0 0 0 0];

internalField   nonuniform List<scalar> 
420
(
1.04478e-20
6.49602e-20
1.95148e-19
3.83305e-19
5.68183e-19
7.02283e-19
7.54205e-19
7.43558e-19
6.95318e-19
6.00203e-19
1.04473e-20
6.38318e-20
1.89273e-19
3.66592e-19
5.50904e-19
6.93409e-19
7.57994e-19
7.45282e-19
6.42856e-19
5.70567e-19
1.04471e-20
6.1991e-20
1.72574e-19
3.3621e-19
5.19664e-19
6.73443e-19
7.50027e-19
7.12096e-19
5.77759e-19
5.34616e-19
1.04472e-20
5.91934e-20
1.57927e-19
3.05527e-19
4.81187e-19
6.40242e-19
7.2856e-19
7.18411e-19
5.64286e-19
4.83358e-19
1.04476e-20
5.79727e-20
1.48646e-19
2.78463e-19
4.34665e-19
5.84238e-19
6.77929e-19
6.74596e-19
5.60102e-19
4.0678e-19
1.04483e-20
5.81536e-20
1.41684e-19
2.47742e-19
3.67943e-19
4.84533e-19
5.63456e-19
5.60793e-19
4.42885e-19
3.0818e-19
1.04493e-20
5.78715e-20
1.25176e-19
1.92539e-19
2.61051e-19
3.2625e-19
3.70539e-19
3.65071e-19
2.84636e-19
2.04434e-19
1.04506e-20
4.78162e-20
7.98349e-20
1.05264e-19
1.30819e-19
1.5559e-19
1.73303e-19
1.71488e-19
1.45232e-19
1.17272e-19
1.04522e-20
2.16705e-20
2.82819e-20
3.49015e-20
4.21069e-20
4.95721e-20
5.63739e-20
5.83893e-20
5.79618e-20
5.44451e-20
2.82342e-21
3.6643e-21
4.61494e-21
5.67535e-21
6.84552e-21
8.12545e-21
9.51514e-21
1.10146e-20
1.26238e-20
1.43428e-20
5.11242e-19
4.4888e-19
4.31165e-19
4.67881e-19
6.03701e-19
7.66544e-19
6.15597e-19
5.00987e-19
3.58137e-19
2.0454e-19
4.71848e-19
4.06597e-19
3.93998e-19
4.40137e-19
5.85554e-19
7.63975e-19
5.76813e-19
5.0864e-19
3.64354e-19
2.06648e-19
4.26452e-19
3.6361e-19
3.60447e-19
4.18655e-19
5.74065e-19
7.58615e-19
5.70411e-19
5.11171e-19
3.70062e-19
2.07363e-19
3.7099e-19
3.18002e-19
3.28836e-19
4.01622e-19
5.73097e-19
7.57663e-19
5.55544e-19
5.10934e-19
3.72254e-19
2.07801e-19
3.05002e-19
2.7084e-19
3.00187e-19
3.90917e-19
5.85235e-19
7.60754e-19
5.45396e-19
5.077e-19
3.71764e-19
2.0644e-19
2.33653e-19
2.24849e-19
2.76433e-19
3.89168e-19
6.12292e-19
7.67085e-19
5.35594e-19
5.01712e-19
3.68249e-19
2.04594e-19
1.65197e-19
1.83474e-19
2.60471e-19
4.0032e-19
6.55517e-19
7.60123e-19
5.25153e-19
4.934e-19
3.6267e-19
2.02294e-19
1.06787e-19
1.49638e-19
2.56173e-19
4.42878e-19
7.12395e-19
7.13285e-19
5.18853e-19
4.83447e-19
3.55461e-19
1.99564e-19
6.11365e-20
1.24112e-19
2.67602e-19
5.22836e-19
7.28178e-19
7.17032e-19
5.18318e-19
4.72452e-19
3.4758e-19
1.96121e-19
2.85079e-20
1.04407e-19
3.00404e-19
6.31654e-19
7.19201e-19
7.4464e-19
5.55509e-19
4.60915e-19
3.39776e-19
1.91568e-19
1.03958e-20
9.54833e-20
3.94613e-19
6.76099e-19
7.12129e-19
7.39664e-19
5.25879e-19
4.51808e-19
3.32056e-19
1.87682e-19
1.03958e-20
1.24679e-19
5.15782e-19
7.21114e-19
7.31018e-19
7.44917e-19
4.96861e-19
4.48007e-19
3.25847e-19
1.87071e-19
6.91339e-20
3.05447e-19
6.8131e-19
7.28184e-19
7.19837e-19
7.30908e-19
5.12213e-19
4.44993e-19
3.17809e-19
1.85894e-19
2.94e-19
5.65699e-19
6.66618e-19
6.85209e-19
6.77541e-19
7.16976e-19
5.22466e-19
4.38795e-19
3.1152e-19
1.83344e-19
5.36392e-19
5.98052e-19
6.58748e-19
6.72532e-19
6.65017e-19
7.27004e-19
5.25511e-19
4.3259e-19
3.07794e-19
1.81467e-19
6.16705e-19
6.21195e-19
6.56668e-19
6.67014e-19
6.68301e-19
7.72894e-19
5.39794e-19
4.27611e-19
3.06354e-19
1.80258e-19
6.53123e-19
6.28287e-19
6.47506e-19
6.62005e-19
7.15796e-19
7.7043e-19
5.5644e-19
4.25215e-19
3.08544e-19
1.79888e-19
6.6195e-19
6.26507e-19
6.44902e-19
7.01833e-19
8.15976e-19
7.6832e-19
5.71811e-19
4.278e-19
3.14705e-19
1.80682e-19
6.43139e-19
6.34723e-19
6.55834e-19
7.10842e-19
7.87596e-19
7.64901e-19
5.70015e-19
4.36856e-19
3.24356e-19
1.83411e-19
6.13007e-19
5.82904e-19
5.84741e-19
6.42866e-19
7.49036e-19
7.58824e-19
5.71701e-19
4.48927e-19
3.35135e-19
1.86241e-19
5.65419e-19
5.25338e-19
5.13163e-19
5.65652e-19
7.04037e-19
7.53658e-19
6.19977e-19
4.64337e-19
3.44839e-19
1.93577e-19
5.39057e-19
4.8603e-19
4.68598e-19
5.06442e-19
6.7137e-19
7.55118e-19
6.34266e-19
4.87624e-19
3.54602e-19
1.92962e-19
1.43428e-20
1.1376e-19
4.13905e-19
6.25408e-19
6.90823e-19
7.1886e-19
7.0635e-19
6.64601e-19
6.29093e-19
6.11123e-19
1.26238e-20
8.26797e-20
2.95177e-19
5.65745e-19
7.2136e-19
7.53953e-19
7.50202e-19
6.88124e-19
6.84649e-19
6.82034e-19
1.10146e-20
5.81123e-20
2.0305e-19
4.40255e-19
6.292e-19
7.11582e-19
7.38307e-19
7.49164e-19
7.27572e-19
7.29256e-19
9.51514e-21
4.69779e-20
1.38082e-19
2.93624e-19
4.75599e-19
6.17529e-19
6.97172e-19
7.30079e-19
7.42245e-19
7.49074e-19
8.12545e-21
4.04803e-20
1.08757e-19
2.13665e-19
3.45036e-19
4.75559e-19
5.79817e-19
6.49725e-19
6.90241e-19
7.03404e-19
6.84552e-21
3.53091e-20
9.14129e-20
1.69553e-19
2.6219e-19
3.58408e-19
4.45013e-19
5.12807e-19
5.57415e-19
5.71514e-19
5.67535e-21
3.05889e-20
7.8196e-20
1.39596e-19
2.05811e-19
2.69121e-19
3.223e-19
3.60969e-19
3.83849e-19
3.88556e-19
4.61494e-21
2.5929e-20
6.52291e-20
1.09363e-19
1.46685e-19
1.73184e-19
1.89274e-19
1.97321e-19
2.00104e-19
1.99038e-19
3.6643e-21
2.11125e-20
4.56462e-20
5.92939e-20
6.41209e-20
6.57005e-20
6.59949e-20
6.57513e-20
6.54893e-20
6.539e-20
2.82342e-21
1.04522e-20
1.04506e-20
1.04493e-20
1.04483e-20
1.04476e-20
1.04472e-20
1.04471e-20
1.04473e-20
1.04478e-20
)
;

boundaryField
{
    right
    {
        type            cyclic;
    }
    left
    {
        type            cyclic;
    }
    outerWall
    {
        type            nutkWallFunction;
        Cmu             0.09;
        kappa           0.41;
        E               9.8;
        value           uniform 0;
    }
    stirrerWall
    {
        type            nutkWallFunction;
        Cmu             0.09;
        kappa           0.41;
        E               9.8;
        value           uniform 0;
    }
    top
    {
        type            empty;
    }
    bottom
    {
        type            empty;
    }
}


// ************************************************************************* //
