/*--------------------------------*- C++ -*----------------------------------*\
  =========                 |
  \\      /  F ield         | OpenFOAM: The Open Source CFD Toolbox
   \\    /   O peration     | Website:  https://openfoam.org
    \\  /    A nd           | Version:  10
     \\/     M anipulation  |
\*---------------------------------------------------------------------------*/
FoamFile
{
    format      ascii;
    class       volScalarField;
    location    "2000";
    object      omega;
}
// * * * * * * * * * * * * * * * * * * * * * * * * * * * * * * * * * * * * * //

dimensions      [0 0 -1 0 0 0 0];

internalField   nonuniform List<scalar> 
420
(
21252.7
3418.16
1137.83
579.29
390.798
316.175
294.409
298.624
319.342
369.949
21253.7
3478.59
1173.15
605.7
403.055
320.221
292.937
297.934
329.244
389.165
21254.2
3581.88
1286.66
660.433
427.285
329.716
296.049
302.307
340.32
415.335
21254
3751.17
1405.99
726.76
461.452
346.814
304.772
309.077
356.352
459.379
21253.2
3830.16
1493.79
797.395
510.84
380.058
327.534
329.152
396.436
545.859
21251.7
3818.25
1567.18
896.272
603.475
458.265
394.076
395.947
501.36
720.503
21249.7
3836.86
1773.86
1153.24
850.581
680.596
599.248
608.223
780.1
1086.14
21247.1
4643.71
2781.3
2109.42
1697.34
1427.11
1281.25
1294.81
1528.9
1893.42
21243.8
10246.4
7851.11
6362.03
5273.36
4479.23
3938.78
3802.83
3830.88
4078.32
78643.9
60596.7
48114.3
39124.4
32436.5
27327.1
23335.9
20159.1
17589.3
15481.3
434.324
494.664
514.988
474.575
400.854
364.343
401.646
465.089
840.265
3581.27
470.585
546.105
563.568
504.49
410.585
364.495
402.346
462.051
831.963
3581.17
520.68
610.668
616.026
530.375
415.981
363.221
403.181
460.143
817.194
3581.13
598.52
698.249
675.245
552.87
418.193
362.004
405.02
460.167
812.269
3581.18
728.011
819.838
739.688
568.009
415.51
360.095
407.358
461.782
809.397
3581.3
950.319
987.527
803.249
570.562
407.059
357.629
410.22
464.729
810.465
3581.49
1344.12
1210.23
852.473
554.668
393.128
355.243
413.439
468.711
813.468
3581.76
2079.33
1483.88
866.776
517.79
376.294
353.936
416.827
473.425
818.031
3582.1
3631.95
1789.07
829.758
466.014
361.186
354.558
420.387
478.696
823.619
3582.51
7788.89
2126.72
739.154
412.646
351.883
357.445
424.177
484.294
829.24
3582.99
21359.1
2325.48
591.086
372.616
349.426
362.274
429.731
491.458
833.995
3575.63
21359.1
1780.94
480.346
356.994
350.692
365.889
431.997
495.627
828.473
3575.63
3211.8
736.556
388.121
350.08
353.644
369.708
432.94
498.984
834.58
3582.99
759.37
412.337
353.644
351.217
357.884
374.593
434.155
506.033
847.595
3582.51
396.27
354.727
351.313
354.836
360.547
378.053
434.975
513.291
860.996
3582.1
345.233
350.83
356.63
358.945
362.019
379.788
434.229
519.268
877.94
3581.76
343.99
357.902
364.6
363.678
362.707
379.871
432.183
522.193
888.859
3581.49
352.632
368.878
375.005
369.624
362.853
378.109
428.873
521.774
890.089
3581.3
365.174
383.412
388.93
377.864
362.921
374.141
424.389
518.125
884.13
3581.18
379.609
401.301
407.382
389.611
363.413
367.444
417.822
511.109
883.207
3581.13
392.708
422.67
432.698
407.818
366.736
359.627
409.055
499.005
893.735
3581.17
411.913
456.854
473.849
439.352
378.793
356.622
401.459
480.733
903.935
3581.27
15481.3
1951.86
542.624
351.159
326.701
329.556
339.145
350.836
357.75
363.339
17589.3
2685.6
752.243
392.482
323.52
313.614
318.21
327.826
332.118
325.562
20159.1
3820.95
1093.54
504.355
352.9
312.043
303.631
306.946
309.785
304.481
23335.9
4726.58
1608.07
756.221
466.874
359.569
318.493
304.138
299.153
296.425
27327.1
5485.25
2041.65
1039.22
643.541
466.913
382.956
341.752
321.691
315.671
32436.5
6288.59
2429.03
1309.59
846.885
619.531
498.963
432.998
398.347
388.52
39124.4
7259
2839.59
1590.62
1078.88
825.073
688.938
615.134
578.468
571.461
48114.3
8563.58
3404.07
2030.35
1513.75
1282.13
1173.14
1125.3
1109.64
1115.59
60596.7
10517.2
4864.48
3744.81
3462.91
3379.65
3364.57
3377.04
3390.55
3395.7
78643.9
21243.8
21247.1
21249.7
21251.7
21253.2
21254
21254.2
21253.7
21252.7
)
;

boundaryField
{
    right
    {
        type            cyclic;
    }
    left
    {
        type            cyclic;
    }
    outerWall
    {
        beta1           0.075;
        blended         0;
        type            omegaWallFunction;
        value           nonuniform List<scalar> 
22
(
3581.27
3581.17
3581.13
3581.18
3581.3
3581.49
3581.76
3582.1
3582.51
3582.99
3575.63
3575.63
3582.99
3582.51
3582.1
3581.76
3581.49
3581.3
3581.18
3581.13
3581.17
3581.27
)
;
    }
    stirrerWall
    {
        beta1           0.075;
        blended         0;
        type            omegaWallFunction;
        value           nonuniform List<scalar> 
42
(
21252.7
21253.7
21254.2
21254
21253.2
21251.7
21249.7
21247.1
21243.8
78643.9
78643.9
60596.7
48114.3
39124.4
32436.5
27327.1
23335.9
20159.1
17589.3
15481.3
21359.1
21359.1
15481.3
17589.3
20159.1
23335.9
27327.1
32436.5
39124.4
48114.3
60596.7
78643.9
78643.9
21243.8
21247.1
21249.7
21251.7
21253.2
21254
21254.2
21253.7
21252.7
)
;
    }
    top
    {
        type            empty;
    }
    bottom
    {
        type            empty;
    }
}


// ************************************************************************* //
