/*--------------------------------*- C++ -*----------------------------------*\
  =========                 |
  \\      /  F ield         | OpenFOAM: The Open Source CFD Toolbox
   \\    /   O peration     | Website:  https://openfoam.org
    \\  /    A nd           | Version:  10
     \\/     M anipulation  |
\*---------------------------------------------------------------------------*/
FoamFile
{
    format      ascii;
    class       volScalarField;
    location    "2000";
    object      p;
}
// * * * * * * * * * * * * * * * * * * * * * * * * * * * * * * * * * * * * * //

dimensions      [0 2 -2 0 0 0 0];

internalField   nonuniform List<scalar> 
420
(
0.913733
16.765
32.0585
49.6383
68.8537
89.1094
109.953
130.841
151.355
171.164
2.14321
16.3236
31.03
48.2272
67.2802
87.661
108.92
130.425
151.515
171.813
2.53958
16.0903
30.359
47.2118
66.123
86.646
108.298
130.317
151.894
172.605
2.61702
15.9934
30.0363
46.6539
65.4431
86.0238
107.917
130.321
152.341
173.447
2.5828
16.017
29.972
46.4147
65.0635
85.6022
107.602
130.282
152.716
174.248
2.51321
16.1533
30.1005
46.3744
64.8198
85.2013
107.166
130.03
152.869
174.879
2.42355
16.3834
30.3715
46.4543
64.5967
84.6617
106.397
129.302
152.534
175.16
2.30477
16.6817
30.7297
46.561
64.2773
83.8364
105.11
127.809
151.346
174.719
2.12298
17.0483
31.1258
46.6386
63.8457
82.7391
103.278
125.341
148.664
172.49
1.79729
17.4519
31.3919
46.5557
63.2386
81.3864
100.992
122.057
144.416
167.893
189.969
208.174
225.738
242.083
256.846
269.69
280.171
295.332
284.369
309.606
190.936
209.261
226.868
243.293
258.248
271.376
282.02
296.78
287.803
316.899
191.993
210.421
228.027
244.515
259.684
273.174
284.068
299.219
290.998
319.465
193.093
211.602
229.178
245.719
261.095
274.927
286.213
302.569
294.944
315.624
194.163
212.733
230.253
246.84
262.387
276.509
288.266
305.892
298.584
310.675
195.11
213.723
231.195
247.85
263.529
277.909
290.059
308.159
300.24
309.802
195.886
214.46
231.854
248.637
264.46
279.094
291.514
309.383
299.971
309.298
196.303
214.732
231.978
249.03
265.112
280.025
292.588
309.893
299.493
306.318
195.796
214.747
231.842
249.143
265.553
280.802
293.645
310.76
300.373
302.046
194.06
215.241
232.101
249.226
265.788
281.404
295.01
313.207
300.955
297.885
193.59
215.433
232.346
249.23
265.626
281.256
294.78
316.434
295.31
292.588
194.612
215.229
232.265
248.834
264.879
280.183
293.253
313.539
289.802
288.469
199.273
215.444
232.057
248.399
264.014
278.725
291.135
305.379
287.338
288.091
198.658
214.602
231.057
247.304
262.594
276.729
288.194
300.172
284.052
284.475
196.732
213.145
229.702
245.864
260.823
274.33
284.905
295.82
280.547
282.599
194.923
211.573
228.262
244.351
258.998
271.929
281.773
291.8
277.284
282.033
193.409
210.171
226.944
242.949
257.297
269.716
279.076
288.545
274.794
282.848
192.124
209.016
225.86
241.777
255.873
267.937
277.036
286.186
273.803
288.14
191.049
208.14
225.073
240.933
254.896
266.79
275.576
284.311
275.285
303.23
190.175
207.522
224.571
240.45
254.481
266.437
274.908
283.01
278.168
321.705
189.506
207.163
224.363
240.333
254.566
266.871
275.912
285.294
279.669
318.713
189.391
207.353
224.775
240.955
255.485
268.088
278.383
292.582
283.476
299.357
184.444
181.515
179.37
177.697
176.293
174.984
173.723
172.518
171.421
170.938
160.19
159.789
159.498
158.804
157.915
156.83
155.526
154.051
152.519
151.592
134.151
136.033
137.721
138.329
138.214
137.564
136.423
134.868
133.06
131.65
110.298
112.596
115.178
116.678
117.279
117.117
116.291
114.901
113.1
111.347
88.9426
90.6747
93.1112
94.8231
95.7268
95.8807
95.3629
94.2637
92.6784
90.8454
69.5998
70.6123
72.3545
73.7451
74.5665
74.7903
74.4375
73.5815
72.2726
70.6065
52.1151
52.5158
53.3879
54.1599
54.6276
54.7059
54.385
53.6877
52.6152
51.2
36.4861
36.4249
36.5185
36.5854
36.5572
36.3676
35.9724
35.3433
34.4475
33.3029
22.7894
22.2794
21.7887
21.325
20.9004
20.4619
19.9532
19.3264
18.537
17.642
10.2421
8.94176
7.76415
6.91221
6.25102
5.65511
5.04454
4.35923
3.54174
2.55701
)
;

boundaryField
{
    right
    {
        type            cyclic;
    }
    left
    {
        type            cyclic;
    }
    outerWall
    {
        type            zeroGradient;
    }
    stirrerWall
    {
        type            zeroGradient;
    }
    top
    {
        type            empty;
    }
    bottom
    {
        type            empty;
    }
}


// ************************************************************************* //
