/*--------------------------------*- C++ -*----------------------------------*\
  =========                 |
  \\      /  F ield         | OpenFOAM: The Open Source CFD Toolbox
   \\    /   O peration     | Website:  https://openfoam.org
    \\  /    A nd           | Version:  10
     \\/     M anipulation  |
\*---------------------------------------------------------------------------*/
FoamFile
{
    format      ascii;
    class       surfaceScalarField;
    location    "2000";
    object      phi;
}
// * * * * * * * * * * * * * * * * * * * * * * * * * * * * * * * * * * * * * //

dimensions      [0 3 -1 0 0 0 0];

internalField   nonuniform List<scalar> 
788
(
-3.27966e-06
-2.20826e-06
-1.71673e-06
2.2255e-05
-3.07941e-07
2.8088e-05
2.96972e-07
3.13924e-05
2.64937e-07
3.28087e-05
-3.19251e-07
3.21421e-05
-1.45992e-06
2.76599e-05
-1.96496e-06
1.53622e-05
-3.25091e-07
-4.01304e-06
-2.69337e-05
3.01769e-06
-1.5131e-06
-6.57443e-07
-6.93255e-09
2.07754e-05
2.09425e-06
2.60147e-05
3.96927e-06
2.95597e-05
5.14498e-06
3.16755e-05
5.28596e-06
3.20726e-05
5.01837e-06
2.79765e-05
5.51175e-06
1.4868e-05
7.87982e-06
-6.42973e-06
-2.9962e-05
1.08569e-05
2.62541e-07
-8.99861e-07
2.53263e-06
1.85507e-05
5.06079e-06
2.35311e-05
7.4048e-06
2.72707e-05
8.79247e-06
3.03146e-05
9.35018e-06
3.15358e-05
9.97949e-06
2.73364e-05
1.14721e-05
1.33211e-05
1.38909e-05
-8.90856e-06
-3.253e-05
1.64604e-05
9.05356e-07
-1.80462e-06
3.66932e-06
1.58079e-05
6.60622e-06
2.05847e-05
9.37348e-06
2.45144e-05
1.15588e-05
2.81472e-05
1.34401e-05
2.97006e-05
1.55718e-05
2.52594e-05
1.78699e-05
1.10751e-05
1.99566e-05
-1.09216e-05
-3.42592e-05
2.18299e-05
1.01304e-06
-2.83581e-06
3.9407e-06
1.28657e-05
7.34897e-06
1.71202e-05
1.08642e-05
2.09996e-05
1.43672e-05
2.47106e-05
1.80228e-05
2.6176e-05
2.17256e-05
2.17148e-05
2.42999e-05
8.66308e-06
2.57362e-05
-1.21679e-05
-3.47399e-05
2.64536e-05
8.15659e-07
-3.67697e-06
3.71778e-06
9.92952e-06
7.61953e-06
1.31417e-05
1.22981e-05
1.63352e-05
1.76438e-05
1.94828e-05
2.33154e-05
2.06878e-05
2.85705e-05
1.66545e-05
3.14817e-05
5.9347e-06
3.1367e-05
-1.18498e-05
-3.29999e-05
2.98188e-05
2.92833e-07
-3.99654e-06
3.03096e-06
7.13199e-06
7.208e-06
8.86623e-06
1.26307e-05
1.09295e-05
1.91058e-05
1.31432e-05
2.60558e-05
1.39264e-05
3.21583e-05
1.07278e-05
3.56554e-05
2.56559e-06
3.47324e-05
-1.08376e-05
-2.8907e-05
3.06966e-05
-5.90587e-07
-3.44129e-06
1.84831e-06
4.59111e-06
5.79209e-06
4.79764e-06
1.10739e-05
5.66722e-06
1.76583e-05
6.71278e-06
2.49374e-05
6.85864e-06
3.11637e-05
4.69799e-06
3.44778e-05
-6.10348e-07
3.22095e-05
-8.52216e-06
-2.17063e-05
2.50186e-05
-1.94873e-06
-1.54631e-06
3.99863e-07
2.11439e-06
3.34623e-06
1.76588e-06
6.99159e-06
2.10714e-06
1.16042e-05
2.31107e-06
1.66963e-05
2.01427e-06
2.08287e-05
7.79526e-07
2.19469e-05
-1.58547e-06
1.81221e-05
-4.6594e-06
-1.33827e-05
9.76229e-06
-1.6009e-06
4.72238e-07
2.28333e-06
4.50262e-06
6.95219e-06
9.09062e-06
9.94157e-06
8.3427e-06
3.60422e-06
-9.8576e-06
7.12032e-06
-5.15035e-05
1.16315e-05
-8.50953e-05
1.58148e-05
-0.000127114
1.9107e-05
-0.000181
2.05805e-05
-0.000252174
1.85613e-05
-0.000348733
1.21553e-05
-0.000485431
1.18084e-05
-0.000674826
-2.60524e-06
-0.000874851
-0.0011687
1.39412e-05
-5.45796e-05
1.70677e-05
-8.80898e-05
1.96741e-05
-0.000129481
2.10557e-05
-0.000182178
2.06386e-05
-0.000251728
1.72474e-05
-0.000345329
1.03363e-05
-0.000478461
8.80513e-06
-0.000673143
-4.73579e-06
-0.000861548
-0.00117356
1.85959e-05
-5.6633e-05
2.04876e-05
-8.98314e-05
2.20322e-05
-0.000130909
2.25771e-05
-0.000182775
2.17675e-05
-0.000251016
1.88479e-05
-0.000342082
1.21597e-05
-0.000471613
1.22595e-05
-0.000673705
-1.46247e-06
-0.000847788
-0.00117495
2.28311e-05
-5.742e-05
2.3617e-05
-9.03608e-05
2.41701e-05
-0.000131302
2.39356e-05
-0.000182595
2.28328e-05
-0.000249906
2.02645e-05
-0.000339138
1.36484e-05
-0.000465048
1.42014e-05
-0.000674097
-9.55135e-07
-0.000832607
-0.00117586
2.59557e-05
-5.66317e-05
2.54608e-05
-8.9556e-05
2.49814e-05
-0.000130651
2.39803e-05
-0.000181642
2.25733e-05
-0.000248394
2.02959e-05
-0.000336463
1.41039e-05
-0.00045909
1.46748e-05
-0.000674429
8.45505e-07
-0.000818849
-0.00117502
2.74784e-05
-5.40644e-05
2.59275e-05
-8.77855e-05
2.46771e-05
-0.000129345
2.31344e-05
-0.000180245
2.15617e-05
-0.000246813
1.96167e-05
-0.000334361
1.40963e-05
-0.000453886
1.42302e-05
-0.000674371
2.87207e-06
-0.00080765
-0.00117215
2.6571e-05
-4.9824e-05
2.4397e-05
-8.54588e-05
2.27493e-05
-0.000127665
2.0986e-05
-0.000178581
1.94691e-05
-0.000245255
1.78554e-05
-0.000332723
1.30758e-05
-0.00044938
1.28534e-05
-0.000673945
4.04927e-06
-0.000799007
-0.00116811
2.10051e-05
-4.57304e-05
1.98956e-05
-8.42166e-05
1.88015e-05
-0.000126559
1.73941e-05
-0.000177228
1.62574e-05
-0.000244018
1.51924e-05
-0.000331654
1.12056e-05
-0.000445587
9.87221e-06
-0.000672363
5.15963e-06
-0.000794394
-0.00116305
1.12306e-05
-4.72023e-05
1.35698e-05
-8.65325e-05
1.36006e-05
-0.000126662
1.27937e-05
-0.000176477
1.22415e-05
-0.000243317
1.19511e-05
-0.000331308
8.73124e-06
-0.000442523
5.71981e-06
-0.000669196
6.17354e-06
-0.000794824
-0.00115702
4.72218e-06
-6.1768e-05
7.82639e-06
-8.97256e-05
7.17458e-06
-0.000126045
6.27868e-06
-0.000175595
6.34607e-06
-0.000243303
7.95768e-06
-0.000332978
5.79944e-06
-0.00044038
1.90312e-06
-0.000665222
5.60828e-06
-0.000798518
-0.00115134
-1.02542e-06
-6.08131e-05
-6.46163e-07
-9.01394e-05
-1.07415e-06
-0.000125643
-1.66404e-06
-0.000175039
-1.46292e-06
-0.000243421
4.8809e-07
-0.000334973
7.06266e-06
-0.000446996
1.11752e-05
-0.000669379
-2.12234e-06
-0.000785245
-0.00115351
-8.12471e-07
-6.00013e-05
-1.79701e-07
-9.07221e-05
-5.40345e-07
-0.000125363
-9.04623e-07
-0.000174781
-3.11648e-07
-0.000243902
1.67929e-06
-0.000336956
7.43822e-06
-0.000452815
1.40058e-05
-0.000675872
2.71815e-06
-0.000773961
-0.00115091
-5.82951e-07
-5.54158e-05
-3.96739e-06
-4.6846e-06
-8.67359e-05
-6.64843e-06
-0.000123323
-7.31703e-06
-0.000174145
-5.94884e-06
-0.000245159
-2.42037e-06
-0.000340539
-8.54298e-07
-0.000454324
4.65337e-06
-0.000681406
1.5621e-05
-0.00078505
-0.00113523
-7.8654e-06
-5.08144e-05
3.12301e-06
-1.18044e-05
-8.26737e-05
-1.34139e-05
-0.000121608
-1.35802e-05
-0.000174022
-1.19612e-05
-0.000246662
-8.19625e-06
-0.000344392
-3.17025e-06
-0.000459274
-3.21508e-06
-0.000681499
2.53307e-06
-0.000790961
-0.00113263
-1.66812e-05
-4.96667e-05
1.55597e-05
-1.85199e-05
-8.05355e-05
-1.97285e-05
-0.000120321
-1.97324e-05
-0.000174036
-1.82089e-05
-0.000248068
-1.45992e-05
-0.000348104
-7.19938e-06
-0.000466797
-5.68646e-06
-0.000682864
3.84047e-07
-0.00079713
-0.00113215
-2.17014e-05
-4.85986e-05
2.08138e-05
-2.29437e-05
-7.90425e-05
-2.38173e-05
-0.000119374
-2.37802e-05
-0.000174114
-2.25601e-05
-0.000249208
-1.95298e-05
-0.000351114
-1.15153e-05
-0.000474917
-1.11858e-05
-0.000683042
-2.67359e-06
-0.000805689
-0.0011347
-2.45316e-05
-4.73979e-05
2.34539e-05
-2.56982e-05
-7.77221e-05
-2.6416e-05
-0.000118604
-2.64577e-05
-0.000174171
-2.56072e-05
-0.000250042
-2.3397e-05
-0.000353308
-1.50054e-05
-0.000483376
-1.59773e-05
-0.000681886
-5.99194e-06
-0.000815672
-0.00114058
-2.56762e-05
-4.60775e-05
2.44039e-05
-2.6849e-05
-7.64722e-05
-2.75512e-05
-0.000117928
-2.77852e-05
-0.000174088
-2.73889e-05
-0.000250404
-2.59387e-05
-0.000354683
-1.73939e-05
-0.000491954
-1.8669e-05
-0.000680424
-7.95577e-06
-0.000826409
-0.0011485
-2.52169e-05
-4.47765e-05
2.39368e-05
-2.64361e-05
-7.52946e-05
-2.7296e-05
-0.000117184
-2.79801e-05
-0.000173557
-2.85311e-05
-0.000249734
-2.84023e-05
-0.000354656
-2.12144e-05
-0.00049921
-1.98608e-05
-0.000681683
-5.59011e-06
-0.000840822
-0.00115406
-2.514e-05
-4.34933e-05
2.38241e-05
-2.63459e-05
-7.42681e-05
-2.72636e-05
-0.000116416
-2.82368e-05
-0.000172652
-2.93691e-05
-0.000248358
-3.07373e-05
-0.000353123
-2.69202e-05
-0.000503264
-2.25029e-05
-0.000686183
-9.23249e-07
-0.000862572
-0.00115477
-2.5434e-05
-4.32724e-05
2.51056e-05
-2.50227e-05
-7.49193e-05
-2.41937e-05
-0.000117333
-2.32625e-05
-0.000173494
-2.23751e-05
-0.000248932
-2.33493e-05
-0.000352234
-2.9106e-05
-0.000498259
-2.96121e-05
-0.000685778
8.80286e-06
-0.000899967
-0.00114608
-9.62108e-06
1.34127e-05
-4.07088e-06
1.91821e-06
6.83447e-06
9.10812e-06
7.21727e-06
3.1694e-07
-9.45306e-06
-1.98774e-05
-2.34507e-05
1.94819e-05
-2.8439e-05
8.20118e-06
-3.03836e-05
1.77134e-05
-3.0355e-05
2.10305e-05
-2.92214e-05
2.25118e-05
-2.74765e-05
2.2745e-05
-2.55232e-05
2.19255e-05
-2.33098e-05
2.14244e-05
-2.15135e-05
2.31009e-05
1.50786e-05
-5.51761e-06
2.4917e-05
-1.14987e-05
1.41165e-05
-1.41177e-05
2.05369e-05
-1.44012e-05
2.15534e-05
-1.32906e-05
2.1552e-05
-1.13773e-05
2.08656e-05
-9.01564e-06
1.95172e-05
-6.05564e-06
1.83769e-05
-2.66178e-06
1.95917e-05
1.44131e-05
3.53329e-06
2.13464e-05
4.80624e-08
1.77996e-05
-1.46602e-06
2.24377e-05
-1.01751e-06
2.13683e-05
4.94814e-07
2.01909e-05
2.6511e-06
1.87734e-05
5.24608e-06
1.69347e-05
8.38799e-06
1.52163e-05
1.2274e-05
1.5611e-05
1.15719e-05
5.86217e-06
1.55418e-05
5.99528e-06
1.79478e-05
7.29658e-06
2.14522e-05
8.55817e-06
2.03234e-05
1.02874e-05
1.86022e-05
1.24732e-05
1.66756e-05
1.5189e-05
1.42777e-05
1.83365e-05
1.21054e-05
2.24892e-05
1.14076e-05
7.55683e-06
5.50416e-06
1.01057e-05
7.67343e-06
1.59774e-05
1.09417e-05
1.83805e-05
1.36128e-05
1.77939e-05
1.63853e-05
1.59208e-05
1.92072e-05
1.39246e-05
2.19527e-05
1.15958e-05
2.47211e-05
9.39286e-06
2.82465e-05
7.88803e-06
4.48053e-06
4.56547e-06
5.57618e-06
7.87193e-06
1.27866e-05
1.2199e-05
1.41343e-05
1.62806e-05
1.37631e-05
1.98207e-05
1.24022e-05
2.29439e-05
1.08232e-05
2.56231e-05
8.94309e-06
2.80608e-05
6.98537e-06
3.06698e-05
5.2923e-06
2.61507e-06
3.36932e-06
2.21699e-06
7.4364e-06
8.76483e-06
1.22043e-05
9.35924e-06
1.67448e-05
9.19552e-06
2.06177e-05
8.49697e-06
2.39379e-05
7.48622e-06
2.67259e-05
6.14306e-06
2.90712e-05
4.62615e-06
3.10862e-05
3.26323e-06
1.73324e-06
2.29119e-06
-7.60726e-08
6.89669e-06
4.14567e-06
1.16445e-05
4.54844e-06
1.59815e-05
4.77873e-06
1.97217e-05
4.68453e-06
2.29539e-05
4.19558e-06
2.56713e-05
3.36171e-06
2.7844e-05
2.375e-06
2.93527e-05
1.69512e-06
1.43531e-06
8.84102e-07
-9.65541e-07
4.74467e-06
2.54102e-07
8.68338e-06
5.6015e-07
1.22557e-05
1.13276e-06
1.53518e-05
1.52152e-06
1.79787e-05
1.51401e-06
2.01527e-05
1.12638e-06
2.19212e-05
5.22501e-07
2.33394e-05
1.83223e-07
8.18709e-07
-9.68584e-07
-7.47857e-07
-2.31661e-07
8.57094e-07
2.34509e-06
3.83553e-06
4.93414e-06
5.41265e-06
5.50693e-06
)
;

boundaryField
{
    right
    {
        type            cyclic;
        value           nonuniform List<scalar> 
20
(
0.00116671
0.000888999
0.000675839
0.000491321
0.000350129
0.000250503
0.000177791
0.000123003
8.05142e-05
4.71487e-05
2.32362e-05
1.97992e-06
-1.51889e-05
-2.66076e-05
-3.13586e-05
-3.25093e-05
-3.20175e-05
-3.0049e-05
-2.46554e-05
-6.50146e-06
)
;
    }
    left
    {
        type            cyclic;
        value           nonuniform List<scalar> 
20
(
-0.00116671
-0.000888999
-0.000675839
-0.000491321
-0.000350129
-0.000250503
-0.000177791
-0.000123003
-8.05142e-05
-4.71487e-05
-2.32362e-05
-1.97992e-06
1.51889e-05
2.66076e-05
3.13586e-05
3.25093e-05
3.20175e-05
3.0049e-05
2.46554e-05
6.50146e-06
)
;
    }
    outerWall
    {
        type            calculated;
        value           uniform 0;
    }
    stirrerWall
    {
        type            calculated;
        value           uniform 0;
    }
    top
    {
        type            empty;
        value           nonuniform List<scalar> 0();
    }
    bottom
    {
        type            empty;
        value           nonuniform List<scalar> 0();
    }
}


// ************************************************************************* //
