/*--------------------------------*- C++ -*----------------------------------*\
  =========                 |
  \\      /  F ield         | OpenFOAM: The Open Source CFD Toolbox
   \\    /   O peration     | Website:  https://openfoam.org
    \\  /    A nd           | Version:  10
     \\/     M anipulation  |
\*---------------------------------------------------------------------------*/
FoamFile
{
    format      ascii;
    class       volVectorField;
    location    "2000";
    object      U;
}
// * * * * * * * * * * * * * * * * * * * * * * * * * * * * * * * * * * * * * //

dimensions      [0 1 -1 0 0 0 0];

internalField   nonuniform List<vector> 
420
(
(-0.258736 9.19729 -1.25081e-18)
(-1.04777 12.2724 -1.61231e-17)
(-0.552736 13.9194 -1.64103e-16)
(-0.532195 15.3524 5.29122e-17)
(-0.558769 16.6661 -4.40284e-16)
(-0.611623 17.8421 0)
(-0.667084 18.7472 0)
(-0.79072 19.0371 4.46331e-16)
(-0.79269 18.7939 -5.28322e-16)
(-0.605836 18.1887 0)
(-0.773616 8.8367 1.11498e-17)
(-1.67002 11.9525 -2.48834e-17)
(-1.35028 13.6669 4.04762e-16)
(-1.32211 15.189 -8.30232e-16)
(-1.34627 16.5956 2.46381e-16)
(-1.40894 17.8872 1.00476e-17)
(-1.53103 18.8395 2.2895e-15)
(-1.60949 19.0656 -5.35151e-16)
(-1.58453 18.5772 1.25483e-15)
(-1.36386 17.8763 0)
(-1.11824 8.88261 -3.99424e-17)
(-2.24298 11.7056 2.64658e-17)
(-2.05006 13.4918 3.55494e-16)
(-2.09719 15.0861 9.18721e-16)
(-2.21107 16.5812 -5.58838e-16)
(-2.38917 17.9143 2.94782e-15)
(-2.53062 18.8035 1.32883e-15)
(-2.55684 18.8841 3.90485e-15)
(-2.48557 18.269 -2.06021e-15)
(-2.24167 17.5745 -4.33847e-15)
(-1.57268 8.77653 4.81314e-17)
(-2.94731 11.3177 1.24638e-17)
(-2.85358 13.1093 -4.1758e-16)
(-2.9819 14.7341 5.99439e-16)
(-3.16728 16.2919 -1.06647e-15)
(-3.36326 17.6552 1.54045e-15)
(-3.46937 18.5258 -7.85548e-15)
(-3.40939 18.5747 0)
(-3.33351 17.9587 -5.75515e-15)
(-3.09383 17.2846 4.65162e-15)
(-2.08407 8.60311 0)
(-3.69776 10.8402 7.60262e-17)
(-3.68417 12.6052 -6.90254e-17)
(-3.87088 14.2462 0)
(-4.08754 15.8462 -3.71377e-16)
(-4.26541 17.2503 -3.60665e-16)
(-4.30827 18.1602 2.8959e-15)
(-4.21963 18.2843 -4.22395e-15)
(-4.19916 17.7049 0)
(-3.97914 17.0549 -1.9786e-14)
(-2.63451 8.37384 -3.64682e-17)
(-4.436 10.2896 0)
(-4.49524 11.9934 0)
(-4.69741 13.6238 8.22958e-16)
(-4.88959 15.2422 -1.74384e-15)
(-5.02212 16.6856 1.99818e-15)
(-5.03911 17.6608 6.91925e-16)
(-4.9815 17.9714 8.36477e-15)
(-5.02355 17.5381 -1.45672e-14)
(-4.93894 16.8949 8.45501e-15)
(-3.22888 8.10735 0)
(-5.15198 9.67455 -5.46263e-18)
(-5.26902 11.2651 -7.33393e-16)
(-5.49107 12.8244 -5.76383e-16)
(-5.69229 14.3993 -2.47551e-15)
(-5.82387 15.8481 1.83619e-15)
(-5.87 16.8898 -4.46196e-15)
(-5.89346 17.4181 8.10598e-16)
(-6.01594 17.267 -3.46052e-15)
(-6.08879 16.7639 -1.11859e-14)
(-3.87514 7.8172 9.94706e-17)
(-5.84155 9.00209 -3.20802e-17)
(-6.02553 10.4414 9.96985e-16)
(-6.30377 11.858 6.13786e-16)
(-6.55266 13.3079 1.66016e-15)
(-6.73094 14.6937 0)
(-6.85658 15.8162 4.45848e-15)
(-7.01694 16.506 5.69158e-15)
(-7.33617 16.7481 7.74225e-15)
(-7.71341 16.4954 7.41415e-15)
(-4.64214 7.52268 1.09954e-16)
(-6.56014 8.38972 -6.33556e-17)
(-6.89783 9.72887 6.47383e-17)
(-7.38658 11.0362 -9.99458e-16)
(-7.86737 12.3547 3.04517e-15)
(-8.28974 13.6341 4.99754e-15)
(-8.67744 14.7636 -1.80566e-15)
(-9.12656 15.6053 0)
(-9.75221 16.113 0)
(-10.2227 16.0087 -7.59888e-15)
(-5.46543 7.05324 1.10048e-18)
(-6.79167 7.72183 7.15973e-16)
(-7.24812 8.73781 0)
(-7.77527 9.72083 0)
(-8.29308 10.6604 -3.01965e-15)
(-8.81321 11.5508 -7.49528e-17)
(-9.37864 12.3728 4.7728e-15)
(-10.0852 13.115 -1.00609e-14)
(-11.0394 13.791 1.21366e-14)
(-12.107 14.2131 1.13184e-15)
(-0.363822 17.4445 0)
(-0.0606949 16.6759 0)
(0.220496 15.9199 0)
(0.447295 15.0814 -8.4699e-16)
(0.542018 14.0229 0)
(0.389966 12.5278 0)
(-0.377118 10.2237 6.57043e-16)
(1.91611 7.24741 0)
(-0.356387 5.23959 0)
(-3.61572 1.54372 0)
(-1.17065 17.1341 1.64131e-15)
(-0.91039 16.4121 2.78e-15)
(-0.67126 15.7426 1.01725e-16)
(-0.513366 15.0048 9.3294e-16)
(-0.44243 14.0375 8.12776e-18)
(-0.554416 12.6568 9.89743e-16)
(-1.40238 10.3812 4.32199e-17)
(1.41164 7.48314 3.72191e-17)
(-0.841409 5.39414 -1.44757e-15)
(-3.73567 1.24011 -2.29966e-16)
(-2.07995 16.8585 1.642e-15)
(-1.87308 16.1863 0)
(-1.66206 15.5681 -2.37209e-15)
(-1.52181 14.8965 -1.93642e-15)
(-1.42236 14.0109 5.70128e-15)
(-1.40389 12.769 -1.04731e-15)
(-2.3269 10.5537 1.49663e-15)
(1.07812 7.62052 0)
(-1.13289 5.93424 1.98981e-15)
(-3.67989 0.825138 -9.35641e-17)
(-3.0052 16.6216 3.85766e-15)
(-2.84826 15.9758 9.33812e-15)
(-2.6617 15.3798 -9.71554e-15)
(-2.53933 14.751 3.75923e-15)
(-2.41616 13.9259 2.52286e-17)
(-2.27538 12.8018 0)
(-3.26027 10.6178 -1.5314e-15)
(0.669915 7.69519 -2.61214e-15)
(-1.42106 6.40427 -1.99663e-15)
(-4.09351 0.446636 1.96247e-15)
(-4.0009 16.4398 3.56825e-15)
(-3.90796 15.7821 -3.01361e-15)
(-3.74129 15.1761 9.59068e-15)
(-3.62847 14.5632 -3.74763e-15)
(-3.48331 13.7747 2.95555e-15)
(-3.23118 12.7406 -4.4732e-15)
(-4.1986 10.5936 3.43791e-15)
(0.135776 7.72249 2.8604e-15)
(-1.8271 6.89085 0)
(-4.30307 0.0669624 -4.01963e-15)
(-5.1175 16.2822 3.77792e-15)
(-5.06874 15.559 -1.68241e-14)
(-4.88947 14.9202 -4.73056e-15)
(-4.7641 14.3062 1.08879e-14)
(-4.58504 13.5338 8.80299e-15)
(-4.23147 12.5697 2.72357e-17)
(-5.09108 10.4702 -1.32987e-17)
(-0.507641 7.67519 -2.96007e-15)
(-2.27693 7.25217 -1.90788e-15)
(-4.44711 -0.239997 5.15459e-15)
(-6.46278 16.0912 3.58444e-15)
(-6.37548 15.2318 5.42847e-15)
(-6.12055 14.5592 0)
(-5.95535 13.9438 -3.50374e-15)
(-5.72514 13.1754 -5.50186e-15)
(-5.25327 12.2719 6.47479e-17)
(-6.00502 10.2319 -9.91974e-15)
(-1.19576 7.56385 -2.78836e-15)
(-2.81399 7.46713 4.46123e-15)
(-4.54571 -0.50398 -2.82262e-15)
(-8.20461 15.6671 1.2614e-14)
(-7.85466 14.6597 -4.96391e-15)
(-7.42047 14.0194 0)
(-7.1836 13.436 -2.31791e-16)
(-6.88455 12.6796 2.17391e-14)
(-6.2836 11.8357 -8.6357e-15)
(-6.89437 9.8627 -7.10382e-15)
(-1.92766 7.35655 5.22898e-15)
(-3.40171 7.53723 -5.3945e-15)
(-4.61496 -0.748424 0)
(-10.156 14.6876 3.39275e-16)
(-9.30205 13.7206 -4.7215e-15)
(-8.69359 13.2681 0)
(-8.39167 12.765 6.42933e-15)
(-8.02531 12.0424 -1.57032e-14)
(-7.3076 11.2805 8.60763e-15)
(-7.75955 9.43716 3.31887e-15)
(-2.73231 7.10063 0)
(-3.91243 7.34764 -2.78991e-17)
(-4.70151 -0.960427 2.62941e-15)
(-11.1353 12.847 5.5291e-16)
(-10.4896 12.5676 -1.33157e-16)
(-9.9627 12.401 0)
(-9.63196 11.9545 -1.2478e-14)
(-9.18952 11.2409 4.84747e-15)
(-8.33356 10.5531 -4.39119e-15)
(-8.63687 8.98391 3.90707e-15)
(-3.61892 7.03672 1.05921e-15)
(-4.43579 6.85436 5.6314e-16)
(-4.82846 -1.09966 -2.59257e-15)
(-10.9738 12.3299 2.73569e-15)
(-11.155 11.6855 -4.83329e-15)
(-10.9367 11.5344 0)
(-10.5837 11.1261 0)
(-10.0447 10.4243 0)
(-9.0384 9.74948 -2.17554e-15)
(-8.87397 8.3807 8.385e-15)
(-3.62274 7.07559 0)
(-4.90448 6.86089 0)
(-4.57782 -1.3804 0)
(-11.8643 11.5289 -2.53481e-15)
(-11.7315 11.0906 -4.53201e-15)
(-11.6161 10.9272 0)
(-11.2575 10.5221 3.25416e-15)
(-10.6223 9.83495 -2.51204e-15)
(-9.49054 9.16514 2.12799e-15)
(-9.09772 7.75003 3.1247e-15)
(-3.93582 6.4281 -2.65923e-16)
(-5.11095 7.36061 1.24446e-15)
(-4.62812 -1.56216 0)
(-12.7717 11.0865 -7.25953e-18)
(-12.5141 10.4281 6.22045e-17)
(-12.3939 10.1791 0)
(-12.0143 9.72714 2.10603e-16)
(-11.262 9.06033 5.15787e-15)
(-10.0067 8.4321 -3.82873e-15)
(-9.53323 6.97306 -9.54261e-15)
(-4.68293 5.38916 -5.64082e-15)
(-5.54272 7.2635 9.61482e-15)
(-5.00434 -1.71888 2.19469e-15)
(-14.221 9.65954 -9.77616e-15)
(-13.7954 9.31843 4.08523e-15)
(-13.4432 8.98586 0)
(-12.9039 8.51991 -6.04538e-15)
(-12 7.87597 -5.00784e-15)
(-10.6043 7.29293 7.91065e-15)
(-9.93266 6.12947 3.1027e-15)
(-5.13713 4.78959 0)
(-6.12327 5.97708 -4.56983e-15)
(-4.96484 -1.92698 4.34573e-16)
(-15.3987 8.19934 -1.48473e-16)
(-14.8611 7.98046 4.22151e-15)
(-14.3618 7.68841 0)
(-13.6873 7.25502 1.22529e-14)
(-12.6531 6.66216 3.85215e-17)
(-11.1261 6.11592 -1.28125e-16)
(-10.179 5.11387 6.24423e-15)
(-5.60695 4.10781 -4.49364e-15)
(-6.40963 5.3519 -4.74919e-15)
(-4.80229 -2.21793 0)
(-16.2022 6.82075 -2.67877e-15)
(-15.6599 6.6608 9.02965e-15)
(-15.0727 6.40648 7.81811e-15)
(-14.2849 6.0175 -9.10152e-15)
(-13.1383 5.49164 -1.47835e-14)
(-11.5112 4.9679 -8.1338e-17)
(-10.2473 4.10963 -3.00289e-15)
(-6.02942 3.34908 -2.09646e-15)
(-6.67144 4.48926 -3.32896e-15)
(-4.50653 -2.41338 -9.83789e-16)
(-16.8086 5.49617 -8.09881e-15)
(-16.273 5.36483 4.5273e-15)
(-15.6206 5.14272 -3.61303e-15)
(-14.7412 4.80278 -9.31035e-15)
(-13.5066 4.35972 7.21984e-15)
(-11.806 3.86386 -2.82489e-17)
(-10.2015 3.14365 5.86311e-15)
(-6.38413 2.65298 2.17673e-15)
(-6.79087 3.50757 9.91221e-16)
(-4.04778 -2.55515 -3.28175e-16)
(-17.291 4.22558 2.36078e-15)
(-16.7477 4.10994 -2.21933e-15)
(-16.0324 3.91874 -1.04569e-16)
(-15.0795 3.63023 8.89667e-15)
(-13.7769 3.27205 -1.17175e-14)
(-12.0215 2.81926 3.62657e-15)
(-10.0447 2.24204 -2.7095e-15)
(-6.70137 2.01445 5.69401e-15)
(-6.77317 2.56218 0)
(-3.48826 -2.50155 7.59925e-17)
(-17.6639 3.00713 2.54752e-15)
(-17.0935 2.90683 2.16179e-15)
(-16.3225 2.74621 3.70178e-15)
(-15.3234 2.50757 -5.79036e-15)
(-13.991 2.2284 2.23751e-15)
(-12.1851 1.78184 0)
(-9.82621 1.36325 -1.27945e-15)
(-6.92125 1.18934 -3.4242e-15)
(-6.55763 1.92724 1.70081e-16)
(-3.01991 -2.24119 9.83553e-16)
(-17.913 1.71576 1.19955e-15)
(-17.324 1.64488 0)
(-16.5135 1.53653 1.85273e-15)
(-15.4902 1.36551 1.48481e-15)
(-14.1581 1.17465 2.64345e-19)
(-12.3253 0.796226 -8.32965e-16)
(-9.62939 0.424835 1.21095e-15)
(-6.85913 0.331074 0)
(-6.04999 1.32221 1.26879e-15)
(-2.73653 -1.96985 7.17524e-16)
(-18.1228 0.336549 1.31614e-15)
(-17.515 0.395651 -2.2902e-15)
(-16.6909 0.445174 -8.21074e-17)
(-15.6613 0.461632 7.00527e-16)
(-14.3045 0.439029 1.57156e-17)
(-12.4059 0.245393 8.47184e-16)
(-9.5429 -0.15377 -1.06223e-15)
(-6.7079 -0.216122 1.09664e-16)
(-5.03033 0.372386 9.30003e-16)
(-1.79803 -1.80165 -5.94649e-16)
(-17.9635 -0.138981 1.97338e-29)
(-17.1815 0.201588 0)
(-16.3134 0.572125 0)
(-15.338 0.871798 -7.53079e-16)
(-14.1166 0.993544 0)
(-12.4426 0.781427 0)
(-10.0102 0.0283616 5.65871e-16)
(-7.13853 1.58984 0)
(-4.25529 -0.528603 0)
(-2.96472 -4.75171 -1.90403e-30)
(-14.5203 11.3869 6.24432e-16)
(-14.762 10.2826 -6.19613e-15)
(-15.7258 8.37195 6.45559e-15)
(-16.4365 6.92724 -9.14653e-15)
(-17.0047 5.57311 5.84711e-15)
(-17.5105 4.29717 -1.15311e-14)
(-17.9373 3.07271 2.81495e-15)
(-18.2451 1.78058 -3.064e-15)
(-18.5293 0.339335 0)
(-18.5945 -0.33991 -3.67043e-16)
(-15.0676 10.8136 1.64822e-14)
(-15.3123 10.2506 0)
(-15.8978 8.22467 7.79678e-15)
(-16.5517 6.87125 -3.06609e-15)
(-17.0779 5.58727 -9.28462e-15)
(-17.576 4.36102 0)
(-18.0237 3.16898 -3.17318e-15)
(-18.3741 1.91821 -1.48638e-15)
(-18.72 0.472617 9.72823e-16)
(-18.9852 -0.398039 -4.10249e-16)
(-14.7766 10.1094 -1.38681e-14)
(-15.388 9.79872 0)
(-15.8017 7.8809 8.03705e-15)
(-16.4353 6.68094 3.49519e-16)
(-16.9616 5.52676 7.76324e-15)
(-17.4657 4.40394 -3.4707e-15)
(-17.9253 3.27852 0)
(-18.3053 2.09713 3.93942e-15)
(-18.647 0.701433 -7.03383e-16)
(-18.9893 -0.355044 5.55396e-16)
(-13.7193 9.54952 6.30879e-15)
(-14.8866 8.97009 -3.41895e-15)
(-15.4008 7.39759 7.17901e-15)
(-15.9866 6.46144 -7.52992e-15)
(-16.52 5.39871 6.89097e-16)
(-17.021 4.32844 3.88876e-15)
(-17.484 3.27111 -1.13987e-14)
(-17.9119 2.16281 2.01247e-15)
(-18.2469 0.843724 3.62971e-15)
(-18.5602 -0.0898488 1.02828e-16)
(-12.4504 9.03066 -9.55028e-15)
(-13.8928 8.20898 9.62375e-15)
(-14.5663 6.89365 0)
(-15.2399 5.98529 2.66456e-15)
(-15.7813 5.13931 2.63338e-15)
(-16.2767 4.24189 -3.37804e-16)
(-16.7403 3.33348 1.8498e-15)
(-17.1853 2.33176 4.26332e-15)
(-17.5156 1.1707 -2.92417e-18)
(-17.6976 0.169818 4.14519e-16)
(-11.2149 8.51842 -3.81126e-15)
(-12.7249 7.50435 7.11155e-15)
(-13.4692 6.44189 2.45018e-15)
(-14.197 5.62868 -4.11032e-15)
(-14.8254 4.85858 -2.24627e-15)
(-15.3442 4.0198 -3.06392e-16)
(-15.8048 3.15373 -3.51599e-15)
(-16.2166 2.25141 1.1193e-15)
(-16.5126 1.24617 3.28817e-16)
(-16.6072 0.328499 -3.93924e-16)
(-10.0266 7.98312 0)
(-11.4447 6.87775 -2.22777e-15)
(-12.2099 6.07127 6.52532e-16)
(-12.958 5.35642 -8.58024e-16)
(-13.6125 4.62804 1.38975e-15)
(-14.1636 3.84059 0)
(-14.6315 3.01992 7.76606e-16)
(-15.0332 2.15816 1.16187e-15)
(-15.3129 1.23388 -1.04979e-15)
(-15.3762 0.350292 -3.89733e-17)
(-8.88633 7.39447 0)
(-10.095 6.36837 -4.25919e-16)
(-10.8741 5.76631 3.08837e-15)
(-11.6028 5.13302 -2.21317e-15)
(-12.2524 4.44215 0)
(-12.8037 3.70095 -2.47269e-16)
(-13.2665 2.9361 -6.99689e-16)
(-13.6519 2.14661 5.92224e-16)
(-13.8904 1.28888 5.53506e-16)
(-13.9901 0.376654 -2.22644e-16)
(-7.77829 6.69163 -1.07627e-15)
(-8.67904 5.85429 4.08253e-16)
(-9.40313 5.351 3.80029e-16)
(-10.0815 4.74332 -3.3654e-16)
(-10.678 4.07969 0)
(-11.1688 3.3954 2.58601e-16)
(-11.5718 2.70225 2.02983e-16)
(-11.9042 1.98246 -1.85324e-16)
(-12.0914 1.1581 -4.37405e-17)
(-12.2796 0.210614 -2.37813e-18)
(-6.38877 6.2651 -3.98802e-16)
(-6.6344 5.97836 7.12345e-17)
(-7.15307 5.46687 5.11667e-17)
(-7.64959 4.85868 0)
(-8.11973 4.25436 -1.023e-17)
(-8.54487 3.66492 0)
(-8.899 3.07936 1.33016e-17)
(-9.17385 2.47243 3.69002e-17)
(-9.32461 1.78872 2.21528e-17)
(-9.56696 0.890561 -3.11643e-18)
)
;

boundaryField
{
    right
    {
        type            cyclic;
    }
    left
    {
        type            cyclic;
    }
    outerWall
    {
        type            calculated;
        value           nonuniform List<vector> 
22
(
(-1.55201 41.8305 0)
(-4.64749 41.6006 0)
(-7.71741 41.1419 0)
(-10.7449 40.4569 0)
(-13.7132 39.5492 0)
(-16.6061 38.424 0)
(-19.4075 37.0874 0)
(-22.1022 35.5467 0)
(-24.6752 33.8104 0)
(-27.1124 31.8882 0)
(-28.9573 30.2506 0)
(-30.2506 28.9573 0)
(-31.8882 27.1124 0)
(-33.8104 24.6752 0)
(-35.5467 22.1022 0)
(-37.0874 19.4075 0)
(-38.424 16.6061 0)
(-39.5492 13.7132 0)
(-40.4569 10.7449 0)
(-41.1419 7.71741 0)
(-41.6006 4.64749 0)
(-41.8305 1.55201 0)
)
;
    }
    stirrerWall
    {
        type            calculated;
        value           nonuniform List<vector> 
42
(
(-0.310178 8.3662 0)
(-0.928834 8.32046 0)
(-1.54239 8.22894 0)
(-2.14746 8.09214 0)
(-2.74072 7.91082 0)
(-3.31888 7.68598 0)
(-3.87877 7.41885 0)
(-4.41729 7.11092 0)
(-4.93148 6.76387 0)
(-5.4185 6.37963 0)
(-6.07951 6.64185 0)
(-6.92878 7.56862 0)
(-7.77806 8.49539 0)
(-8.62734 9.42216 0)
(-9.47661 10.3489 0)
(-10.3259 11.2757 0)
(-11.1752 12.2025 0)
(-12.0244 13.1292 0)
(-12.8737 14.056 0)
(-13.723 14.9828 0)
(-14.4723 15.1215 0)
(-15.1215 14.4723 0)
(-14.9828 13.723 0)
(-14.056 12.8737 0)
(-13.1292 12.0244 0)
(-12.2025 11.1752 0)
(-11.2757 10.3259 0)
(-10.3489 9.47661 0)
(-9.42216 8.62734 0)
(-8.49539 7.77806 0)
(-7.56862 6.92878 0)
(-6.64185 6.07951 0)
(-6.37963 5.4185 0)
(-6.76387 4.93148 0)
(-7.11092 4.41729 0)
(-7.41885 3.87877 0)
(-7.68598 3.31888 0)
(-7.91082 2.74072 0)
(-8.09214 2.14746 0)
(-8.22894 1.54239 0)
(-8.32046 0.928834 0)
(-8.3662 0.310178 0)
)
;
    }
    top
    {
        type            empty;
    }
    bottom
    {
        type            empty;
    }
}


// ************************************************************************* //
