/*--------------------------------*- C++ -*----------------------------------*\
  =========                 |
  \\      /  F ield         | OpenFOAM: The Open Source CFD Toolbox
   \\    /   O peration     | Website:  https://openfoam.org
    \\  /    A nd           | Version:  10
     \\/     M anipulation  |
\*---------------------------------------------------------------------------*/
FoamFile
{
    format      ascii;
    class       volVectorField;
    location    "2000";
    object      Urel;
}
// * * * * * * * * * * * * * * * * * * * * * * * * * * * * * * * * * * * * * //

dimensions      [0 1 -1 0 0 0 0];

internalField   nonuniform List<vector> 
420
(
(0.0752637 0.189042 -1.25081e-18)
(-0.667264 2.01102 -1.61231e-17)
(-0.125721 2.40451 -1.64103e-16)
(-0.0586543 2.5838 5.29122e-17)
(-0.0386954 2.64348 -4.40284e-16)
(-0.045011 2.56542 0)
(-0.053929 2.2163 0)
(-0.131019 1.25183 4.46331e-16)
(-0.08644 -0.245757 -5.28322e-16)
(0.146965 -2.10538 0)
(0.226561 -0.122258 1.11498e-17)
(-0.530598 1.74735 -2.48834e-17)
(-0.0715683 2.21517 4.04762e-16)
(0.0959181 2.4905 -8.30232e-16)
(0.211099 2.64998 2.46381e-16)
(0.287791 2.69446 1.00476e-17)
(0.305072 2.39942 2.2895e-15)
(0.365992 1.37813 -5.35151e-16)
(0.530344 -0.35775 1.25483e-15)
(0.890415 -2.30614 0)
(0.542622 0.0222277 -3.99424e-17)
(-0.350896 1.61277 2.64658e-17)
(0.073326 2.16622 3.55494e-16)
(0.257542 2.5274 9.18721e-16)
(0.375044 2.78922 -5.58838e-16)
(0.428361 2.88897 2.94782e-15)
(0.518341 2.54458 1.32883e-15)
(0.723579 1.39164 3.90485e-15)
(1.02631 -0.457232 -2.06021e-15)
(1.50169 -2.38546 -4.33847e-15)
(0.739732 0.0634533 4.81314e-17)
(-0.312956 1.39272 1.24638e-17)
(0.102806 1.97211 -4.1758e-16)
(0.296589 2.38436 5.99439e-16)
(0.433365 2.72942 -1.06647e-15)
(0.559586 2.87985 1.54045e-15)
(0.775704 2.53738 -7.85548e-15)
(1.15794 1.37328 0)
(1.55608 -0.455858 -5.75515e-15)
(2.11805 -2.3432 4.65162e-15)
(0.867169 0.0852802 0)
(-0.335639 1.13761 7.60262e-17)
(0.0889659 1.71759 -6.90254e-17)
(0.313352 2.17319 0)
(0.50786 2.58765 -3.71377e-16)
(0.741203 2.80607 -3.60665e-16)
(1.1096 2.53021 2.8959e-15)
(1.60951 1.46843 -4.22395e-15)
(2.04129 -0.296957 0)
(2.67264 -2.13295 -1.9786e-14)
(0.93932 0.0981036 -3.64682e-17)
(-0.364605 0.862804 0)
(0.0738863 1.41523 0)
(0.369561 1.89393 8.22958e-16)
(0.6753 2.36046 -1.74384e-15)
(1.04075 2.65188 1.99818e-15)
(1.52177 2.47506 6.91925e-16)
(2.07745 1.63348 8.36477e-15)
(2.53349 0.0479405 -1.45672e-14)
(3.11622 -1.74759 8.45501e-15)
(0.947853 0.119224 0)
(-0.393705 0.575366 -5.46263e-18)
(0.0709766 1.05452 -7.33393e-16)
(0.430778 1.50214 -5.76383e-16)
(0.811504 1.96525 -2.47551e-15)
(1.26194 2.30207 1.83619e-15)
(1.79787 2.23172 -4.46196e-15)
(2.35653 1.64786 8.10598e-16)
(2.81619 0.384526 -3.46052e-15)
(3.32551 -1.23081 -1.11859e-14)
(0.881503 0.160621 9.94706e-17)
(-0.42258 0.280541 -3.20802e-17)
(0.0559656 0.65459 9.96985e-16)
(0.4404 1.00565 6.13786e-16)
(0.854288 1.38979 1.66016e-15)
(1.33888 1.70981 0)
(1.87616 1.76636 4.45848e-15)
(2.37876 1.39015 5.69158e-15)
(2.72255 0.5661 7.74225e-15)
(3.00835 -0.752754 7.41415e-15)
(0.668227 0.239756 1.09954e-16)
(-0.510302 0.093759 -6.33556e-17)
(-0.108284 0.419553 6.47383e-17)
(0.142837 0.713302 -9.99458e-16)
(0.402028 1.01808 3.04517e-15)
(0.719739 1.28364 4.99754e-15)
(1.07218 1.39916 -1.80566e-15)
(1.36326 1.22684 0)
(1.47786 0.720436 0)
(1.74762 -0.398027 -7.59888e-15)
(0.369406 0.184022 1.10048e-18)
(-0.14425 -0.102941 7.15973e-16)
(0.21213 -0.042809 0)
(0.497989 -0.0158364 0)
(0.793321 -0.0324384 -3.01965e-15)
(1.08643 -0.0984079 -7.49528e-17)
(1.33432 -0.232832 4.7728e-15)
(1.44108 -0.447102 -1.00609e-14)
(1.30038 -0.727692 1.21366e-14)
(1.04626 -1.26213 1.13184e-15)
(0.435785 -4.11074 0)
(0.788521 -6.21613 0)
(1.12464 -8.45228 0)
(1.41225 -10.9295 -8.4699e-16)
(1.5743 -13.8024 0)
(1.4968 -17.3064 0)
(0.812257 -21.8347 6.57043e-16)
(3.19688 -27.2736 0)
(1.02556 -32.008 0)
(-2.12175 -38.7227 0)
(1.22377 -4.30259 1.64131e-15)
(1.63258 -6.35404 2.78e-15)
(2.03618 -8.49555 1.01725e-16)
(2.37618 -10.8631 9.3294e-16)
(2.64875 -13.6348 8.12776e-18)
(2.76 -17.0134 9.89743e-16)
(2.15919 -21.501 4.32199e-17)
(5.24687 -26.8482 3.72191e-17)
(3.29681 -31.6488 -1.44757e-15)
(0.738016 -38.805 -2.29966e-16)
(1.89612 -4.34181 1.642e-15)
(2.34967 -6.32881 0)
(2.8338 -8.40275 -2.37209e-15)
(3.27645 -10.6862 -1.93642e-15)
(3.71071 -13.3563 5.70128e-15)
(4.09988 -16.5741 -1.04731e-15)
(3.5873 -20.977 1.49663e-15)
(7.44674 -26.3322 0)
(5.73885 -30.7002 1.98981e-15)
(3.74891 -38.7785 -9.35641e-17)
(2.53068 -4.22594 3.85766e-15)
(3.03106 -6.16463 9.33812e-15)
(3.59788 -8.1921 -9.71554e-15)
(4.14128 -10.4059 3.75923e-15)
(4.73059 -12.9857 2.52286e-17)
(5.38748 -16.0528 0)
(4.97402 -20.388 -1.5314e-15)
(9.53689 -25.6923 -2.61214e-15)
(8.1464 -29.6202 -1.99663e-15)
(6.24953 -38.4975 1.96247e-15)
(3.06439 -3.94042 3.56825e-15)
(3.59565 -5.86201 -3.01361e-15)
(4.24762 -7.86733 9.59068e-15)
(4.89775 -10.0296 -3.74763e-15)
(5.63783 -12.5334 2.95555e-15)
(6.54864 -15.4669 -4.4732e-15)
(6.3105 -19.7167 3.43791e-15)
(11.4523 -24.9161 2.8604e-15)
(10.3835 -28.3255 0)
(8.89729 -38.0035 -4.01963e-15)
(3.4384 -3.51876 3.77792e-15)
(4.01793 -5.46978 -1.68241e-14)
(4.78487 -7.46808 -4.73056e-15)
(5.56089 -9.58734 1.08879e-14)
(6.46035 -12.0263 8.80299e-15)
(7.61155 -14.8356 2.72357e-17)
(7.63504 -18.978 -1.32987e-17)
(13.1962 -24.035 -2.96007e-15)
(12.5095 -26.9624 -1.90788e-15)
(11.5379 -37.2274 5.15459e-15)
(3.53674 -3.02165 3.58444e-15)
(4.24434 -5.06621 5.42847e-15)
(5.18606 -7.05087 0)
(6.11167 -9.1191 -3.50374e-15)
(7.18379 -11.4961 -5.50186e-15)
(8.58781 -14.1805 6.47479e-17)
(8.86813 -18.1923 -9.91974e-15)
(14.8201 -23.0435 -2.78836e-15)
(14.467 -25.5574 4.46123e-15)
(14.1361 -36.2048 -2.82262e-15)
(3.18363 -2.65264 1.2614e-14)
(4.23999 -4.79594 -4.96391e-15)
(5.45629 -6.69382 0)
(6.55912 -8.66953 -2.31791e-16)
(7.81695 -10.9675 2.17391e-14)
(9.47945 -13.5184 -8.6357e-15)
(10.044 -17.3811 -7.10382e-15)
(16.312 -21.9797 5.22898e-15)
(16.2788 -24.1156 -5.3945e-15)
(16.6607 -34.9662 0)
(2.55846 -2.73846 3.39275e-16)
(4.20098 -4.78579 -4.7215e-15)
(5.68258 -6.43434 0)
(6.95124 -8.26168 6.42933e-15)
(8.38795 -10.4505 -1.57032e-14)
(10.2907 -12.8358 8.60763e-15)
(11.1509 -16.4765 3.31887e-15)
(17.6309 -20.8031 0)
(18.0592 -22.7594 -2.78991e-17)
(19.051 -33.507 2.62941e-15)
(2.83555 -3.58963 5.5291e-16)
(4.34765 -4.88783 -1.33157e-16)
(5.8339 -6.18234 0)
(7.22682 -7.87777 -1.2478e-14)
(8.84528 -9.97407 4.84747e-15)
(11.0033 -12.1929 -4.39119e-15)
(12.1417 -15.4571 3.90707e-15)
(18.7558 -19.281 1.05921e-15)
(19.7061 -21.5413 5.6314e-16)
(21.2701 -31.7959 -2.59257e-15)
(3.94186 -3.25459 2.73569e-15)
(4.68649 -4.86591 -4.83329e-15)
(5.92984 -6.08766 0)
(7.41781 -7.68132 0)
(9.21336 -9.69557 0)
(11.6109 -11.8235 -2.17554e-15)
(13.3157 -14.8011 8.385e-15)
(20.2724 -17.8876 0)
(20.879 -20.0745 0)
(23.2963 -30.4994 0)
(3.72012 -3.38681 -2.53481e-15)
(4.81992 -4.75094 -4.53201e-15)
(6.0059 -5.93936 0)
(7.54994 -7.47934 3.25416e-15)
(9.49751 -9.42309 -2.51204e-15)
(12.0824 -11.4842 2.12799e-15)
(14.0841 -14.4396 3.1247e-15)
(21.0273 -17.4671 -2.65923e-16)
(21.8244 -18.4228 1.24446e-15)
(24.4909 -29.4363 0)
(3.66493 -2.88428 -7.25953e-18)
(4.94126 -4.40913 6.22045e-17)
(6.18949 -5.61747 0)
(7.81793 -7.13164 2.10603e-16)
(9.953 -8.97447 5.15787e-15)
(12.7392 -10.9048 -3.82873e-15)
(14.9078 -13.8055 -9.54261e-15)
(21.6348 -16.9855 -5.64082e-15)
(22.8529 -16.8784 9.61482e-15)
(25.6919 -27.8175 2.19469e-15)
(3.20504 -3.05489 -9.77616e-15)
(4.71093 -4.18461 4.08523e-15)
(6.25923 -5.39032 0)
(8.12277 -6.823 -6.04538e-15)
(10.4929 -8.5373 -5.00784e-15)
(13.512 -10.3054 7.91065e-15)
(15.981 -12.781 3.1027e-15)
(22.7666 -15.5736 0)
(23.9838 -15.9946 -4.56983e-15)
(27.5817 -25.6795 4.34573e-16)
(2.92105 -3.1889 -1.48473e-16)
(4.59455 -4.11418 4.22151e-15)
(6.35141 -5.18836 0)
(8.41823 -6.48771 1.22529e-14)
(10.9941 -8.03934 3.85215e-17)
(14.228 -9.64713 -1.28125e-16)
(17.0648 -11.8245 6.24423e-15)
(23.7293 -14.1319 -4.49364e-15)
(25.2432 -14.3286 -4.74919e-15)
(29.4155 -23.4936 0)
(2.91068 -3.17878 -2.67877e-15)
(4.63805 -3.95902 9.02965e-15)
(6.53736 -4.90013 7.81811e-15)
(8.77799 -6.04952 -9.10152e-15)
(11.5332 -7.41729 -1.47835e-14)
(14.9412 -8.87319 -8.1338e-17)
(18.1768 -10.7635 -3.00289e-15)
(24.5779 -12.6668 -2.09646e-15)
(26.3531 -12.7918 -3.32896e-15)
(31.1942 -21.0952 -9.83789e-16)
(2.99235 -3.05972 -8.09881e-15)
(4.75578 -3.72184 4.5273e-15)
(6.76769 -4.53161 -3.61303e-15)
(9.15228 -5.52221 -9.31035e-15)
(12.0535 -6.68567 7.21984e-15)
(15.5992 -7.97915 -2.82489e-17)
(19.2467 -9.58248 5.86311e-15)
(25.326 -11.0509 2.17673e-15)
(27.4237 -11.2789 9.91221e-16)
(32.9396 -18.5402 -3.28175e-16)
(3.08916 -2.8397 2.36078e-15)
(4.8964 -3.39367 -2.21933e-15)
(7.01101 -4.07016 -1.04569e-16)
(9.51327 -4.896 8.89667e-15)
(12.5313 -5.84909 -1.17175e-14)
(16.186 -6.96056 3.62657e-15)
(20.2656 -8.26706 -2.7095e-15)
(25.9372 -9.3021 5.69401e-15)
(28.4432 -9.64837 0)
(34.5822 -15.7019 7.59925e-17)
(3.18361 -2.52875 2.54752e-15)
(5.04689 -2.9725 2.16179e-15)
(7.24937 -3.51338 3.70178e-15)
(9.83344 -4.17303 -5.79036e-15)
(12.9207 -4.91835 2.23751e-15)
(16.6694 -5.88102 0)
(21.1795 -6.87104 -1.27945e-15)
(26.4662 -7.67764 -3.4242e-15)
(29.4669 -7.64022 1.70081e-16)
(35.9243 -12.5842 9.83553e-16)
(3.28737 -2.26031 1.19955e-15)
(5.19111 -2.57786 0)
(7.45741 -2.95934 1.85273e-15)
(10.0925 -3.43276 1.48481e-15)
(13.2091 -3.95843 2.64345e-19)
(17.0177 -4.70754 -8.32965e-16)
(21.9013 -5.48936 1.21095e-15)
(27.0936 -6.03754 0)
(30.5845 -5.54954 1.26879e-15)
(36.8671 -9.39864 7.17524e-16)
(3.31384 -2.05787 1.31614e-15)
(5.25118 -2.14732 -2.2902e-15)
(7.54722 -2.26227 -8.21074e-17)
(10.2066 -2.42792 7.00527e-16)
(13.3679 -2.65215 1.57156e-17)
(17.2643 -3.06902 8.47184e-16)
(22.3393 -3.71535 -1.06223e-15)
(27.6234 -4.05136 1.09664e-16)
(32.0126 -3.76584 9.30003e-16)
(38.2471 -6.27533 -5.94649e-16)
(3.59173 -0.938589 1.97338e-29)
(5.71061 -0.647628 0)
(8.05876 -0.332017 0)
(10.6729 -0.093157 -7.53079e-16)
(13.7087 -0.0387428 0)
(17.3916 -0.325408 0)
(22.0482 -1.16101 5.65871e-16)
(27.3825 0.309074 0)
(32.9923 -1.91055 0)
(37.3017 -6.24568 -1.90403e-30)
(0.954929 -1.76628 6.24432e-16)
(1.64475 -1.6877 -6.19613e-15)
(1.52233 -2.34981 6.45559e-15)
(1.55821 -2.48706 -9.14653e-15)
(1.63779 -2.48204 5.84711e-15)
(1.67741 -2.35461 -1.15311e-14)
(1.69051 -2.13917 2.81495e-15)
(1.71481 -1.96277 -3.064e-15)
(1.65313 -1.91494 0)
(1.69959 -1.09271 -3.67043e-16)
(-0.548974 -1.52614 1.64822e-14)
(0.0802796 -0.979467 0)
(0.28414 -1.83405 7.79678e-15)
(0.330743 -1.96088 -3.06609e-15)
(0.412272 -1.96978 -9.28462e-15)
(0.425841 -1.87944 0)
(0.39092 -1.72061 -3.17318e-15)
(0.352143 -1.59367 -1.48638e-15)
(0.214903 -1.64226 9.72823e-16)
(0.0544678 -1.10429 -4.10249e-16)
(-1.21449 -1.41692 -1.38681e-14)
(-1.00955 -0.691103 0)
(-0.685781 -1.51481 8.03705e-15)
(-0.665029 -1.56904 3.49519e-16)
(-0.623612 -1.53219 7.76324e-15)
(-0.649789 -1.4252 -3.4707e-15)
(-0.723821 -1.2888 0)
(-0.812755 -1.18328 3.93942e-15)
(-0.959531 -1.27405 -7.03383e-16)
(-1.20405 -1.01475 5.55396e-16)
(-1.11365 -1.16344 6.30879e-15)
(-1.5221 -0.779538 -3.41895e-15)
(-1.35089 -1.33514 7.17901e-15)
(-1.32849 -1.20643 -7.52992e-15)
(-1.33427 -1.16218 6.89097e-16)
(-1.39095 -1.08942 3.88876e-15)
(-1.49561 -0.973965 -1.13987e-14)
(-1.65297 -0.886157 2.01247e-15)
(-1.80686 -0.992379 3.62971e-15)
(-2.02928 -0.703004 1.02828e-16)
(-0.801213 -0.868982 -9.55028e-15)
(-1.54231 -0.8005 9.62375e-15)
(-1.58232 -1.17616 0)
(-1.69387 -1.10051 2.66456e-15)
(-1.74758 -0.923558 2.63338e-15)
(-1.83246 -0.764719 -3.37804e-16)
(-1.96488 -0.589366 1.8498e-15)
(-2.15992 -0.485774 4.26332e-15)
(-2.32285 -0.52603 -2.92417e-18)
(-2.42091 -0.396794 4.14519e-16)
(-0.522044 -0.567978 -3.81126e-15)
(-1.38824 -0.765054 7.11155e-15)
(-1.55113 -0.965059 2.45018e-15)
(-1.76295 -0.875109 -4.11032e-15)
(-1.9437 -0.706307 -2.24627e-15)
(-2.0857 -0.575597 -3.06392e-16)
(-2.24225 -0.446915 -3.51599e-15)
(-2.42468 -0.334702 1.1193e-15)
(-2.56705 -0.311205 3.28817e-16)
(-2.58467 -0.191574 -3.93924e-16)
(-0.289968 -0.29014 0)
(-1.12185 -0.651665 -2.22777e-15)
(-1.35749 -0.672905 6.52532e-16)
(-1.63574 -0.565431 -8.58024e-16)
(-1.88269 -0.438924 1.38975e-15)
(-2.09064 -0.343641 0)
(-2.28169 -0.25857 7.76606e-16)
(-2.47455 -0.196567 1.16187e-15)
(-2.61434 -0.184152 -1.04979e-15)
(-2.60761 -0.123249 -3.89733e-17)
(-0.105717 -0.0657779 0)
(-0.785725 -0.421173 -4.25919e-16)
(-1.08721 -0.315191 3.08837e-15)
(-1.39226 -0.206979 -2.21317e-15)
(-1.67419 -0.126981 0)
(-1.91605 -0.0721766 -2.47269e-16)
(-2.12922 -0.0202835 -6.99689e-16)
(-2.3263 0.0232281 5.92224e-16)
(-2.43874 0.0101693 5.53506e-16)
(-2.47526 -0.0503621 -2.22644e-16)
(0.046476 0.0442068 -1.07627e-15)
(-0.383081 -0.195556 4.08253e-16)
(-0.681583 -0.0679668 3.80029e-16)
(-0.982366 -0.014953 -3.3654e-16)
(-1.25122 0.00829016 0)
(-1.46627 0.0332817 2.58601e-16)
(-1.64681 0.0679049 2.02983e-16)
(-1.81136 0.0903724 -1.85324e-16)
(-1.88631 0.0186763 -4.37405e-17)
(-2.01826 -0.169887 -2.37813e-18)
(0.480455 0.430256 -3.98802e-16)
(0.648521 0.667998 7.12345e-17)
(0.503505 0.710222 5.11667e-17)
(0.338534 0.681946 0)
(0.156001 0.680529 -1.023e-17)
(-0.0270447 0.71368 0)
(-0.185928 0.766949 1.33016e-17)
(-0.313466 0.811572 3.69002e-17)
(-0.365648 0.788545 2.21528e-17)
(-0.558708 0.556561 -3.11643e-18)
)
;

boundaryField
{
    right
    {
        type            cyclic;
    }
    left
    {
        type            cyclic;
    }
    outerWall
    {
        type            noSlip;
    }
    stirrerWall
    {
        type            noSlip;
    }
    top
    {
        type            empty;
    }
    bottom
    {
        type            empty;
    }
}


// ************************************************************************* //
