/*--------------------------------*- C++ -*----------------------------------*\
  =========                 |
  \\      /  F ield         | OpenFOAM: The Open Source CFD Toolbox
   \\    /   O peration     | Website:  https://openfoam.org
    \\  /    A nd           | Version:  10
     \\/     M anipulation  |
\*---------------------------------------------------------------------------*/
FoamFile
{
    format      ascii;
    class       volVectorField;
    location    "11000";
    object      U;
}
// * * * * * * * * * * * * * * * * * * * * * * * * * * * * * * * * * * * * * //

dimensions      [0 1 -1 0 0 0 0];

internalField   nonuniform List<vector> 
17808
(
(-2.05024 2.23706 -1.27331e-17)
(-2.51855 2.75137 -1.41624e-18)
(-2.71976 2.97278 9.06805e-18)
(-2.85631 3.11946 9.54461e-18)
(-2.95866 3.23124 -2.20255e-18)
(-3.04066 3.32069 -1.52352e-17)
(-3.10888 3.39526 7.5382e-18)
(-3.16726 3.45917 -7.8971e-18)
(-3.2183 3.51509 1.31431e-17)
(-3.26363 3.56483 -4.58808e-21)
(-3.30442 3.60961 -5.83033e-18)
(-3.3415 3.65034 4.13677e-18)
(-3.37549 3.6877 -5.9008e-18)
(-3.40686 3.72221 6.2446e-19)
(-3.436 3.75427 0)
(-3.46319 3.7842 5.71382e-19)
(-3.48868 3.81227 -1.09691e-18)
(-3.51266 3.83869 -1.05499e-18)
(-3.5353 3.86363 -4.57218e-18)
(-3.55673 3.88725 4.69549e-21)
(-3.57706 3.90966 3.7963e-18)
(-3.5964 3.93099 0)
(-3.61482 3.95131 3.55775e-18)
(-3.63241 3.97072 -3.45738e-18)
(-3.64922 3.98927 3.35439e-18)
(-3.66531 4.00703 -4.08312e-18)
(-3.68072 4.02406 -7.94466e-19)
(-3.69551 4.04039 0)
(-3.70971 4.05607 -7.54787e-19)
(-3.72336 4.07114 -7.36488e-19)
(-3.73647 4.08563 2.87422e-18)
(-3.74909 4.09958 -2.11042e-18)
(-3.76123 4.113 0)
(-3.77292 4.12592 0)
(-3.78417 4.13836 6.57563e-19)
(-3.79501 4.15035 3.21656e-18)
(-3.80545 4.16189 -1.89423e-18)
(-3.8155 4.17302 0)
(-3.82519 4.18373 -2.41986e-18)
(-3.83451 4.19405 5.05737e-21)
(-3.84349 4.20398 3.49644e-18)
(-3.85213 4.21354 3.4248e-18)
(-3.86043 4.22273 -2.24454e-18)
(-3.86842 4.23158 1.10007e-18)
(-3.87609 4.24007 0)
(-3.88346 4.24823 -1.05999e-18)
(-3.89053 4.25606 3.11951e-18)
(-3.8973 4.26356 -4.09021e-18)
(-3.90378 4.27074 1.00349e-18)
(-3.90998 4.27761 0)
(-3.9159 4.28417 0)
(-3.92154 4.29042 2.84874e-18)
(-3.92691 4.29637 -9.36258e-19)
(-3.93201 4.30202 0)
(-3.93684 4.30737 9.00342e-19)
(-3.9414 4.31244 8.84186e-19)
(-3.94571 4.31721 -8.68248e-19)
(-3.94975 4.32169 -8.52514e-19)
(-3.95353 4.32588 -8.37011e-19)
(-3.95705 4.32979 1.64053e-18)
(-3.96031 4.33341 -2.8807e-21)
(-3.96332 4.33675 1.58037e-18)
(-3.96607 4.33981 -1.55667e-18)
(-3.96857 4.34258 -1.52451e-18)
(-3.97081 4.34507 -2.98813e-18)
(-3.9728 4.34728 1.46686e-18)
(-3.97453 4.3492 -2.88002e-18)
(-3.976 4.35084 2.82083e-18)
(-3.97722 4.3522 0)
(-3.97818 4.35327 1.35499e-18)
(-3.97888 4.35405 2.65219e-18)
(-3.97933 4.35455 -1.30666e-18)
(-3.97951 4.35476 -1.27675e-18)
(-3.97943 4.35467 1.24706e-18)
(-3.97909 4.3543 -3.096e-21)
(-3.97849 4.35364 -3.58353e-18)
(-3.97762 4.35267 2.34032e-18)
(-3.97649 4.35142 0)
(-3.97508 4.34986 -1.12061e-18)
(-3.97341 4.348 -3.27996e-18)
(-3.97146 4.34584 0)
(-3.96923 4.34337 0)
(-3.96673 4.34059 2.03627e-18)
(-3.96395 4.33749 0)
(-3.96088 4.33409 1.93994e-18)
(-3.95753 4.33036 0)
(-3.9539 4.32631 -4.60521e-23)
(-3.94997 4.32194 0)
(-3.94575 4.31724 0)
(-3.94123 4.31221 1.70847e-18)
(-3.93641 4.30684 3.32781e-18)
(-3.93129 4.30113 3.23982e-18)
(-2.04662 2.24953 -1.41818e-18)
(-2.51128 2.76401 1.40891e-18)
(-2.71268 2.98325 0)
(-2.84778 3.13011 0)
(-2.94949 3.24155 2.18235e-18)
(-3.03116 3.33063 -1.00606e-18)
(-3.09919 3.40488 7.45311e-18)
(-3.15747 3.46853 -6.07379e-18)
(-3.20845 3.52425 -8.11161e-19)
(-3.25375 3.57382 6.09204e-18)
(-3.29453 3.61848 -6.46817e-18)
(-3.3316 3.65912 1.36009e-18)
(-3.36558 3.69642 6.45848e-19)
(-3.39696 3.73088 -6.1523e-19)
(-3.42609 3.76291 0)
(-3.45328 3.79283 -5.62748e-19)
(-3.47876 3.82089 5.40101e-19)
(-3.50274 3.84731 5.19435e-19)
(-3.52537 3.87226 0)
(-3.54678 3.89589 0)
(-3.5671 3.91832 0)
(-3.58643 3.93967 -9.04199e-19)
(-3.60484 3.96001 0)
(-3.62241 3.97944 -8.50758e-19)
(-3.63921 3.99802 0)
(-3.65529 4.0158 8.04088e-19)
(-3.67069 4.03285 7.82909e-19)
(-3.68547 4.04921 0)
(-3.69965 4.06491 -2.97378e-18)
(-3.71328 4.08001 7.3092e-19)
(-3.72638 4.09453 2.13007e-18)
(-3.73898 4.10849 -6.93132e-19)
(-3.75111 4.12194 2.70883e-18)
(-3.76278 4.13488 -5.96852e-18)
(-3.77402 4.14735 1.94992e-18)
(-3.78485 4.15936 -6.35756e-19)
(-3.79527 4.17093 -1.24579e-18)
(-3.80532 4.18208 0)
(-3.81499 4.19281 0)
(-3.8243 4.20315 2.93296e-18)
(-3.83326 4.2131 -2.30642e-18)
(-3.84188 4.22268 -3.51479e-23)
(-3.85018 4.2319 -1.1096e-18)
(-3.85816 4.24076 -2.17866e-18)
(-3.86582 4.24928 -1.06706e-18)
(-3.87318 4.25745 3.15403e-18)
(-3.88023 4.2653 -2.06094e-18)
(-3.88699 4.27282 3.04328e-18)
(-3.89347 4.28002 -2.98446e-18)
(-3.89966 4.2869 1.95922e-18)
(-3.90557 4.29347 -1.91965e-18)
(-3.9112 4.29974 1.89155e-18)
(-3.91656 4.3057 -9.27976e-19)
(-3.92165 4.31137 0)
(-3.92647 4.31674 -8.959e-19)
(-3.93103 4.32181 0)
(-3.93532 4.32659 0)
(-3.93936 4.33109 8.49596e-19)
(-3.94313 4.33529 2.86917e-21)
(-3.94665 4.33921 1.64237e-18)
(-3.94991 4.34284 -1.61017e-18)
(-3.95292 4.34619 1.5812e-18)
(-3.95566 4.34925 0)
(-3.95816 4.35204 0)
(-3.9604 4.35453 2.98919e-18)
(-3.96238 4.35675 -1.46827e-18)
(-3.96411 4.35867 2.88442e-18)
(-3.96558 4.36032 -3.04439e-21)
(-3.9668 4.36168 -1.38933e-18)
(-3.96776 4.36275 0)
(-3.96846 4.36354 -2.66253e-18)
(-3.96891 4.36404 5.22549e-18)
(-3.96909 4.36425 -6.19598e-21)
(-3.96902 4.36417 -6.22225e-21)
(-3.96868 4.3638 -3.10565e-21)
(-3.96809 4.36314 1.19967e-18)
(-3.96722 4.36218 -2.35801e-18)
(-3.96609 4.36092 1.15226e-18)
(-3.96469 4.35936 2.25148e-18)
(-3.96302 4.3575 -1.10575e-18)
(-3.96108 4.35533 1.07486e-18)
(-3.95886 4.35286 -3.16439e-18)
(-3.95637 4.35007 3.08574e-18)
(-3.9536 4.34698 -6.40785e-21)
(-3.95054 4.34356 -1.96432e-18)
(-3.9472 4.33983 9.61977e-19)
(-3.94358 4.33578 -3.74245e-18)
(-3.93966 4.3314 0)
(-3.93546 4.32669 0)
(-3.93095 4.32165 -3.47057e-18)
(-3.92615 4.31627 -2.53332e-18)
(-3.92104 4.31055 -1.64086e-18)
(-2.04183 2.25765 2.83239e-18)
(-2.50632 2.77209 2.24459e-17)
(-2.70728 2.99153 -4.10673e-17)
(-2.84117 3.13918 1.88386e-17)
(-2.94229 3.25064 -1.08046e-18)
(-3.0234 3.33976 0)
(-3.09095 3.41403 0)
(-3.14885 3.47768 0)
(-3.19953 3.53338 -1.19951e-17)
(-3.24459 3.58292 1.20194e-17)
(-3.28517 3.62755 7.07734e-19)
(-3.32208 3.66816 5.14716e-23)
(-3.35594 3.70544 1.0167e-17)
(-3.38721 3.73988 -1.99786e-17)
(-3.41626 3.7719 9.25512e-18)
(-3.44338 3.80181 8.29833e-18)
(-3.4688 3.82987 -7.97224e-18)
(-3.49273 3.85629 0)
(-3.51531 3.88124 0)
(-3.53669 3.90488 0)
(-3.55698 3.92732 0)
(-3.57627 3.94868 1.77822e-18)
(-3.59465 3.96904 0)
(-3.6122 3.98848 8.36643e-19)
(-3.62897 4.00708 0)
(-3.64502 4.02488 -7.90874e-19)
(-3.6604 4.04195 0)
(-3.67516 4.05833 2.99973e-18)
(-3.68932 4.07406 -2.93049e-18)
(-3.70293 4.08917 7.14576e-19)
(-3.71601 4.10371 -6.98022e-19)
(-3.72859 4.1177 3.40917e-18)
(-3.7407 4.13117 -4.71481e-21)
(-3.75236 4.14413 -1.9615e-18)
(-3.76358 4.15662 1.91582e-18)
(-3.77439 4.16865 -1.88137e-18)
(-3.7848 4.18024 6.13799e-19)
(-3.79482 4.19141 0)
(-3.80448 4.20217 0)
(-3.81377 4.21252 -3.47122e-18)
(-3.82272 4.2225 4.96253e-21)
(-3.83133 4.2321 4.96955e-21)
(-3.83961 4.24133 3.2878e-18)
(-3.84758 4.25021 -2.1483e-18)
(-3.85523 4.25875 1.05886e-18)
(-3.86257 4.26694 0)
(-3.86961 4.2748 0)
(-3.87637 4.28234 0)
(-3.88283 4.28955 2.64291e-21)
(-3.88901 4.29645 9.70361e-19)
(-3.89491 4.30304 0)
(-3.90053 4.30932 9.34886e-19)
(-3.90588 4.3153 -1.83518e-18)
(-3.91096 4.32098 2.71258e-18)
(-3.91578 4.32636 1.77299e-18)
(-3.92033 4.33144 -1.74819e-18)
(-3.92461 4.33624 -1.71271e-18)
(-3.92864 4.34074 8.45839e-19)
(-3.93241 4.34496 -8.28475e-19)
(-3.93592 4.34889 8.14088e-19)
(-3.93918 4.35253 1.59981e-18)
(-3.94218 4.35589 -1.57171e-18)
(-3.94492 4.35896 0)
(-3.94741 4.36175 0)
(-3.94965 4.36425 -3.04962e-23)
(-3.95163 4.36647 -2.92123e-18)
(-3.95336 4.3684 1.43831e-18)
(-3.95483 4.37006 -1.40575e-18)
(-3.95604 4.37142 4.14727e-18)
(-3.95701 4.3725 -3.05607e-21)
(-3.95771 4.37329 1.33036e-18)
(-3.95816 4.37379 -1.30466e-18)
(-3.95835 4.37401 0)
(-3.95827 4.37393 0)
(-3.95794 4.37356 0)
(-3.95735 4.37289 1.20048e-18)
(-3.95649 4.37193 -1.18195e-18)
(-3.95536 4.37067 -1.15424e-18)
(-3.95397 4.36911 0)
(-3.95231 4.36725 0)
(-3.95037 4.36508 -3.24139e-18)
(-3.94816 4.3626 5.29165e-18)
(-3.94568 4.35981 -4.50253e-23)
(-3.94292 4.35671 0)
(-3.93987 4.35329 -9.84131e-19)
(-3.93654 4.34956 6.46417e-21)
(-3.93293 4.3455 9.44802e-19)
(-3.92903 4.34111 -1.83785e-18)
(-3.92483 4.33639 -1.79313e-18)
(-3.92034 4.33134 2.62013e-18)
(-3.91556 4.32595 -6.49925e-21)
(-3.91047 4.32022 8.27674e-19)
(-2.03546 2.26382 1.98005e-17)
(-2.49992 2.77843 2.09508e-17)
(-2.70008 2.999 -2.16701e-17)
(-2.83345 3.14719 1.16664e-18)
(-2.93434 3.25883 0)
(-3.01513 3.34819 0)
(-3.08241 3.42264 0)
(-3.14006 3.48642 1.35086e-17)
(-3.19052 3.54223 -2.52359e-17)
(-3.23538 3.59185 2.36734e-17)
(-3.27579 3.63655 -1.11561e-17)
(-3.31255 3.67721 9.88233e-18)
(-3.34627 3.71453 -1.00136e-17)
(-3.37742 3.749 5.95543e-19)
(-3.40636 3.78105 9.66186e-18)
(-3.43339 3.81098 -8.16907e-18)
(-3.45873 3.83906 8.35141e-18)
(-3.48258 3.8655 -5.1121e-19)
(-3.5051 3.89047 -7.74503e-18)
(-3.52642 3.91413 -4.66911e-19)
(-3.54665 3.93659 0)
(-3.5659 3.95796 -1.74791e-18)
(-3.58424 3.97834 0)
(-3.60174 3.9978 0)
(-3.61848 4.01642 -7.18871e-18)
(-3.6345 4.03424 6.22489e-18)
(-3.64985 4.05133 0)
(-3.66457 4.06773 0)
(-3.6787 4.08348 0)
(-3.69229 4.09861 -1.40578e-18)
(-3.70534 4.11317 6.8672e-19)
(-3.7179 4.12718 0)
(-3.72999 4.14067 0)
(-3.74162 4.15366 0)
(-3.75282 4.16617 -3.77223e-18)
(-3.76361 4.17822 5.55547e-18)
(-3.774 4.18983 0)
(-3.78401 4.20101 0)
(-3.79364 4.21179 0)
(-3.80292 4.22217 5.13083e-18)
(-3.81186 4.23216 -9.78409e-21)
(-3.82045 4.24178 -1.09993e-17)
(-3.82872 4.25103 7.5617e-18)
(-3.83667 4.25993 -3.18845e-18)
(-3.8443 4.26848 0)
(-3.85163 4.27669 1.02455e-18)
(-3.85866 4.28457 4.02279e-18)
(-3.8654 4.29212 -3.96447e-18)
(-3.87185 4.29935 -9.73088e-19)
(-3.87802 4.30626 4.7782e-18)
(-3.88391 4.31287 -1.88922e-18)
(-3.88952 4.31916 -1.85516e-18)
(-3.89486 4.32515 -1.82163e-18)
(-3.89993 4.33085 -2.71736e-21)
(-3.90474 4.33624 -2.64087e-18)
(-3.90928 4.34134 0)
(-3.91356 4.34614 8.47453e-19)
(-3.91758 4.35066 -1.67468e-18)
(-3.92135 4.35489 -2.46276e-18)
(-3.92485 4.35882 8.10773e-19)
(-3.9281 4.36248 1.58837e-18)
(-3.9311 4.36584 2.87244e-21)
(-3.93384 4.36892 5.80469e-21)
(-3.93632 4.37172 1.51048e-18)
(-3.93856 4.37423 -1.48115e-18)
(-3.94054 4.37646 1.45491e-18)
(-3.94226 4.3784 0)
(-3.94373 4.38005 -1.40016e-18)
(-3.94495 4.38142 -1.37157e-18)
(-3.94591 4.38251 3.01986e-21)
(-3.94662 4.3833 -2.65096e-18)
(-3.94706 4.38381 2.60701e-18)
(-3.94725 4.38402 0)
(-3.94718 4.38395 -3.10006e-21)
(-3.94686 4.38358 -2.45893e-18)
(-3.94626 4.38291 1.20355e-18)
(-3.94541 4.38195 1.17938e-18)
(-3.94429 4.38069 1.15532e-18)
(-3.9429 4.37913 0)
(-3.94125 4.37726 0)
(-3.93932 4.37509 2.1685e-18)
(-3.93712 4.37261 -4.24353e-18)
(-3.93465 4.36982 -2.07542e-18)
(-3.93189 4.36671 2.02937e-18)
(-3.92886 4.36329 2.97236e-18)
(-3.92554 4.35954 9.65976e-19)
(-3.92194 4.35547 1.89362e-18)
(-3.91805 4.35108 9.21334e-19)
(-3.91387 4.34635 1.79854e-18)
(-3.9094 4.34129 -8.83974e-19)
(-3.90462 4.3359 8.55828e-19)
(-3.89955 4.33016 -6.5936e-21)
(-2.02912 2.26999 2.39984e-17)
(-2.49305 2.78489 -2.22567e-17)
(-2.69221 3.00659 -1.89726e-17)
(-2.82524 3.1551 3.4676e-17)
(-2.92584 3.267 -1.5875e-17)
(-3.00634 3.3566 1.65154e-17)
(-3.0734 3.43123 -2.87107e-17)
(-3.13086 3.49516 1.00261e-20)
(-3.18115 3.55109 1.24382e-17)
(-3.22586 3.60083 0)
(-3.26612 3.64561 0)
(-3.30275 3.68635 -6.48567e-19)
(-3.33636 3.72373 -6.15319e-19)
(-3.3674 3.75826 5.85655e-19)
(-3.39624 3.79035 1.39257e-23)
(-3.42318 3.82033 -5.3504e-19)
(-3.44843 3.84844 -1.02658e-18)
(-3.47221 3.87491 -5.36292e-24)
(-3.49465 3.89992 0)
(-3.51591 3.9236 4.588e-19)
(-3.53608 3.94609 7.09171e-18)
(-3.55527 3.96749 -6.01569e-18)
(-3.57356 3.98789 0)
(-3.59102 4.00738 7.26917e-18)
(-3.60771 4.02602 -5.50252e-18)
(-3.62369 4.04386 -6.10899e-18)
(-3.639 4.06097 5.95832e-18)
(-3.65369 4.07739 7.2548e-19)
(-3.66779 4.09316 0)
(-3.68134 4.10832 6.91121e-19)
(-3.69437 4.1229 0)
(-3.7069 4.13693 0)
(-3.71896 4.15044 -5.16369e-18)
(-3.73056 4.16345 4.43167e-18)
(-3.74174 4.17598 -1.23893e-18)
(-3.75251 4.18805 -4.85175e-18)
(-3.76288 4.19968 4.17076e-18)
(-3.77286 4.21089 -5.83728e-19)
(-3.78248 4.22168 -4.57723e-18)
(-3.79174 4.23208 4.50211e-18)
(-3.80065 4.24209 -4.41081e-18)
(-3.80923 4.25172 5.4257e-18)
(-3.81748 4.261 -4.25532e-18)
(-3.82541 4.26991 9.87073e-21)
(-3.83303 4.27848 7.19969e-18)
(-3.84035 4.28671 -5.06016e-18)
(-3.84737 4.2946 0)
(-3.85409 4.30217 3.90435e-18)
(-3.86053 4.30942 -3.84967e-18)
(-3.86668 4.31635 0)
(-3.87256 4.32296 -9.29718e-19)
(-3.87816 4.32927 1.829e-18)
(-3.88349 4.33528 -3.59289e-18)
(-3.88856 4.34098 7.96387e-18)
(-3.89335 4.34639 -2.61671e-18)
(-3.89789 4.3515 -8.56221e-19)
(-3.90216 4.35632 4.20563e-18)
(-3.90617 4.36085 1.64575e-18)
(-3.90993 4.36508 8.0362e-19)
(-3.91343 4.36903 -1.12639e-20)
(-3.91667 4.37269 -9.45608e-18)
(-3.91966 4.37607 -1.53825e-18)
(-3.9224 4.37916 1.15286e-20)
(-3.92488 4.38196 3.00135e-18)
(-3.92711 4.38448 -4.41065e-18)
(-3.92909 4.38671 -2.88179e-18)
(-3.93081 4.38866 8.90888e-21)
(-3.93228 4.39032 1.39959e-18)
(-3.9335 4.39169 -1.36879e-18)
(-3.93446 4.39278 2.69733e-18)
(-3.93517 4.39358 0)
(-3.93561 4.39409 -2.59368e-18)
(-3.93581 4.3943 1.27729e-18)
(-3.93574 4.39423 3.11829e-21)
(-3.93542 4.39386 2.45579e-18)
(-3.93483 4.3932 -1.20262e-18)
(-3.93398 4.39223 0)
(-3.93286 4.39097 -2.31119e-18)
(-3.93148 4.38941 0)
(-3.92984 4.38754 -2.21829e-18)
(-3.92792 4.38537 0)
(-3.92573 4.38288 1.06655e-18)
(-3.92326 4.38008 1.04383e-18)
(-3.92052 4.37697 -3.05096e-18)
(-3.91749 4.37354 -9.92453e-19)
(-3.91419 4.36979 -2.91715e-18)
(-3.9106 4.36572 -9.48133e-19)
(-3.90672 4.36131 1.85912e-18)
(-3.90256 4.35658 -9.0458e-19)
(-3.8981 4.35151 1.77932e-18)
(-3.89334 4.3461 -8.61772e-19)
(-3.88829 4.34035 -2.53528e-18)
(-2.02285 2.27626 0)
(-2.48603 2.79166 0)
(-2.68423 3.01433 1.88305e-17)
(-2.81695 3.16313 -1.06786e-20)
(-2.9172 3.27534 -1.77918e-17)
(-2.99741 3.36517 1.43915e-17)
(-3.06423 3.43997 -1.32827e-17)
(-3.12149 3.50404 0)
(-3.17158 3.5601 -7.65479e-19)
(-3.21613 3.60994 -1.21881e-17)
(-3.25625 3.65482 1.08055e-17)
(-3.29274 3.69564 1.27584e-18)
(-3.32622 3.73309 6.05014e-19)
(-3.35715 3.76769 -1.03581e-17)
(-3.38589 3.79984 8.24586e-18)
(-3.41273 3.82987 5.25744e-19)
(-3.4379 3.85803 5.04308e-19)
(-3.46159 3.88454 8.72225e-18)
(-3.48396 3.90959 -8.76111e-21)
(-3.50514 3.93331 -1.44216e-17)
(-3.52525 3.95583 6.97471e-18)
(-3.54438 3.97726 0)
(-3.56261 3.99769 -6.53811e-18)
(-3.58002 4.01721 8.69587e-21)
(-3.59666 4.03587 6.17719e-18)
(-3.61259 4.05374 7.50767e-19)
(-3.62786 4.07088 5.84551e-18)
(-3.64251 4.08732 -1.28319e-17)
(-3.65657 4.10312 1.11295e-17)
(-3.67008 4.1183 -8.84534e-21)
(-3.68307 4.1329 -5.97882e-18)
(-3.69557 4.14696 0)
(-3.7076 4.16049 0)
(-3.71918 4.17351 6.21996e-19)
(-3.73033 4.18607 6.09344e-19)
(-3.74107 4.19816 -1.19449e-18)
(-3.75142 4.20981 1.1183e-23)
(-3.76138 4.22103 5.74548e-19)
(-3.77097 4.23185 0)
(-3.78021 4.24226 -4.97738e-18)
(-3.7891 4.25229 3.26661e-18)
(-3.79766 4.26195 -4.26765e-18)
(-3.8059 4.27124 5.2526e-18)
(-3.81381 4.28017 4.12143e-18)
(-3.82141 4.28876 -4.06136e-18)
(-3.82871 4.297 0)
(-3.83571 4.30492 0)
(-3.84243 4.3125 0)
(-3.84885 4.31976 0)
(-3.85499 4.32671 -9.33442e-19)
(-3.86086 4.33334 -2.75005e-18)
(-3.86645 4.33966 2.71623e-18)
(-3.87177 4.34568 0)
(-3.87682 4.3514 -8.75016e-19)
(-3.8816 4.35682 -3.43889e-18)
(-3.88613 4.36194 4.242e-18)
(-3.89039 4.36677 8.33777e-19)
(-3.8944 4.37131 -1.53508e-23)
(-3.89815 4.37555 8.07247e-19)
(-3.90164 4.37951 0)
(-3.90488 4.38318 1.56274e-18)
(-3.90786 4.38657 0)
(-3.9106 4.38966 0)
(-3.91307 4.39247 -4.45535e-18)
(-3.9153 4.395 7.31136e-18)
(-3.91728 4.39724 -1.44353e-18)
(-3.919 4.39919 1.41333e-18)
(-3.92046 4.40086 0)
(-3.92168 4.40224 1.36505e-18)
(-3.92264 4.40333 1.33513e-18)
(-3.92335 4.40413 -5.26974e-18)
(-3.9238 4.40464 2.59379e-18)
(-3.92399 4.40486 0)
(-3.92393 4.40479 0)
(-3.92361 4.40442 1.22385e-18)
(-3.92303 4.40376 0)
(-3.92218 4.40279 1.17782e-18)
(-3.92107 4.40153 -1.14866e-18)
(-3.9197 4.39996 2.27096e-18)
(-3.91806 4.39809 -1.10648e-18)
(-3.91615 4.39592 3.265e-18)
(-3.91396 4.39343 0)
(-3.91151 4.39063 -1.03951e-18)
(-3.90878 4.38751 1.02394e-18)
(-3.90576 4.38407 0)
(-3.90247 4.38032 -9.80256e-19)
(-3.8989 4.37623 2.86283e-18)
(-3.89503 4.37182 0)
(-3.89088 4.36708 0)
(-3.88644 4.362 -2.67106e-18)
(-3.8817 4.35658 4.35575e-18)
(-3.87666 4.35082 1.69943e-18)
(-2.01641 2.28245 0)
(-2.47867 2.79859 -1.37742e-18)
(-2.67599 3.02211 1.24591e-18)
(-2.8084 3.17122 1.13362e-18)
(-2.9083 3.28375 1.55095e-17)
(-2.98824 3.37381 -1.51664e-17)
(-3.05482 3.44879 4.8306e-23)
(-3.11187 3.51303 -1.29383e-17)
(-3.16178 3.56922 1.28184e-17)
(-3.20616 3.61918 -1.12888e-17)
(-3.24613 3.66417 2.12487e-17)
(-3.28249 3.70508 -6.3645e-19)
(-3.31584 3.74262 -9.07871e-21)
(-3.34665 3.77729 -9.05643e-18)
(-3.37528 3.80951 0)
(-3.40202 3.8396 0)
(-3.4271 3.86782 7.92092e-18)
(-3.4507 3.89438 -1.57123e-17)
(-3.47299 3.91947 7.34206e-18)
(-3.4941 3.94324 -7.07653e-18)
(-3.51414 3.9658 6.8488e-18)
(-3.5332 3.98727 0)
(-3.55137 4.00774 -6.42014e-18)
(-3.56872 4.02729 4.68186e-18)
(-3.58531 4.04598 6.05768e-18)
(-3.60119 4.06388 -6.64026e-18)
(-3.61641 4.08105 0)
(-3.63101 4.09752 7.00249e-19)
(-3.64503 4.11334 0)
(-3.6585 4.12855 0)
(-3.67146 4.14317 6.5229e-19)
(-3.68392 4.15725 -5.09943e-18)
(-3.69591 4.1708 4.99954e-18)
(-3.70746 4.18386 -4.27577e-18)
(-3.71858 4.19643 4.79748e-18)
(-3.72929 4.20854 1.17469e-18)
(-3.73961 4.22022 -4.0279e-18)
(-3.74954 4.23146 8.47867e-18)
(-3.75911 4.2423 -4.44341e-18)
(-3.76833 4.25273 5.44857e-19)
(-3.7772 4.26278 2.14084e-18)
(-3.78574 4.27246 -4.20246e-18)
(-3.79395 4.28176 3.10609e-18)
(-3.80184 4.29071 0)
(-3.80943 4.29932 1.99883e-18)
(-3.81671 4.30758 0)
(-3.8237 4.31551 2.89596e-18)
(-3.83039 4.32311 -9.61288e-19)
(-3.8368 4.33038 -3.7496e-18)
(-3.84293 4.33734 9.2129e-19)
(-3.84878 4.34399 0)
(-3.85436 4.35033 0)
(-3.85966 4.35636 0)
(-3.86471 4.36209 8.64785e-19)
(-3.86948 4.36752 -3.39983e-18)
(-3.874 4.37266 6.70401e-18)
(-3.87825 4.3775 -7.42429e-18)
(-3.88225 4.38205 -8.01165e-19)
(-3.88599 4.38631 1.60405e-18)
(-3.88948 4.39027 -3.1413e-18)
(-3.89271 4.39395 1.11542e-20)
(-3.89569 4.39735 3.05348e-18)
(-3.89841 4.40045 1.49955e-18)
(-3.90089 4.40327 1.47542e-18)
(-3.90311 4.4058 0)
(-3.90508 4.40805 4.27726e-18)
(-3.9068 4.41001 -1.17224e-20)
(-3.90827 4.41168 -2.76727e-18)
(-3.90948 4.41306 -1.35742e-18)
(-3.91045 4.41416 0)
(-3.91115 4.41496 0)
(-3.91161 4.41548 -1.2884e-18)
(-3.9118 4.4157 0)
(-3.91174 4.41563 -1.24302e-18)
(-3.91142 4.41526 -3.6553e-18)
(-3.91084 4.4146 1.21057e-18)
(-3.91001 4.41363 -1.16322e-18)
(-3.9089 4.41237 2.31345e-18)
(-3.90754 4.4108 -1.13146e-18)
(-3.9059 4.40893 2.21897e-18)
(-3.904 4.40675 -2.17519e-18)
(-3.90183 4.40425 0)
(-3.89938 4.40145 0)
(-3.89666 4.39832 2.04513e-18)
(-3.89366 4.39488 0)
(-3.89038 4.39112 1.95966e-18)
(-3.88682 4.38703 -3.83454e-18)
(-3.88297 4.38261 0)
(-3.87883 4.37786 1.83333e-18)
(-3.8744 4.37277 0)
(-3.86968 4.36734 -1.75061e-18)
(-3.86466 4.36156 0)
(-2.00976 2.28861 2.38723e-17)
(-2.47094 2.80566 2.46612e-17)
(-2.66741 3.02995 -3.95489e-17)
(-2.79948 3.17941 1.04744e-20)
(-2.89904 3.29226 1.84043e-17)
(-2.97871 3.38256 -1.58936e-17)
(-3.04506 3.45774 -8.50689e-19)
(-3.10191 3.52214 1.27549e-17)
(-3.15165 3.57848 1.26086e-17)
(-3.19587 3.62857 -2.1527e-17)
(-3.23569 3.67367 6.62198e-19)
(-3.27192 3.71469 9.253e-18)
(-3.30515 3.75232 0)
(-3.33585 3.78707 5.55777e-19)
(-3.36437 3.81937 5.30193e-19)
(-3.39101 3.84952 0)
(-3.41599 3.87781 7.77736e-18)
(-3.43951 3.90443 -8.53342e-21)
(-3.46172 3.92958 -6.7575e-18)
(-3.48275 3.95339 4.34436e-19)
(-3.50271 3.976 0)
(-3.52171 3.99752 -5.68731e-18)
(-3.53981 4.01802 5.5223e-18)
(-3.5571 4.03761 -9.28069e-25)
(-3.57363 4.05634 -5.94684e-18)
(-3.58946 4.07428 6.51916e-18)
(-3.60462 4.09147 0)
(-3.61918 4.10797 0)
(-3.63315 4.12383 -4.69306e-18)
(-3.64658 4.13906 8.5482e-21)
(-3.65949 4.15372 5.12995e-18)
(-3.67192 4.16782 0)
(-3.68388 4.1814 -4.90351e-18)
(-3.69539 4.19448 4.21045e-18)
(-3.70648 4.20707 -4.11755e-18)
(-3.71715 4.21921 4.04601e-18)
(-3.72744 4.2309 -5.66386e-19)
(-3.73735 4.24217 -3.88653e-18)
(-3.74689 4.25303 4.37056e-18)
(-3.75608 4.26348 0)
(-3.76493 4.27355 4.20869e-18)
(-3.77344 4.28324 -4.14562e-18)
(-3.78163 4.29257 0)
(-3.7895 4.30154 0)
(-3.79707 4.31016 -4.91742e-18)
(-3.80433 4.31844 2.91029e-18)
(-3.8113 4.32639 4.76013e-18)
(-3.81798 4.334 -6.56524e-18)
(-3.82437 4.3413 3.6976e-18)
(-3.83048 4.34827 0)
(-3.83632 4.35493 0)
(-3.84188 4.36128 4.39957e-18)
(-3.84718 4.36733 -3.47481e-18)
(-3.85221 4.37307 -8.54154e-19)
(-3.85697 4.37852 0)
(-3.86148 4.38367 -4.13621e-18)
(-3.86572 4.38852 1.06472e-20)
(-3.86971 4.39308 2.415e-18)
(-3.87344 4.39735 4.74006e-18)
(-3.87692 4.40132 -3.89931e-18)
(-3.88015 4.40501 1.53351e-18)
(-3.88312 4.40841 0)
(-3.88584 4.41153 -2.44132e-23)
(-3.88831 4.41435 0)
(-3.89053 4.41689 1.43975e-18)
(-3.8925 4.41915 1.41102e-18)
(-3.89422 4.42111 -2.79385e-18)
(-3.89568 4.42279 1.37137e-18)
(-3.8969 4.42417 1.34886e-18)
(-3.89786 4.42527 1.32648e-18)
(-3.89856 4.42608 -2.60246e-18)
(-3.89902 4.4266 3.85234e-18)
(-3.89922 4.42682 0)
(-3.89916 4.42675 1.23813e-18)
(-3.89885 4.42639 -1.21627e-18)
(-3.89827 4.42572 -2.38905e-18)
(-3.89744 4.42476 -1.17286e-18)
(-3.89634 4.42349 0)
(-3.89498 4.42192 1.12982e-18)
(-3.89335 4.42005 0)
(-3.89146 4.41786 2.17418e-18)
(-3.8893 4.41536 0)
(-3.88686 4.41255 0)
(-3.88415 4.40943 -2.04091e-18)
(-3.88116 4.40598 6.56188e-21)
(-3.8779 4.40221 1.96385e-18)
(-3.87435 4.39811 3.26308e-23)
(-3.87051 4.39368 -1.88117e-18)
(-3.86639 4.38892 -1.84021e-18)
(-3.86198 4.38382 -3.59222e-18)
(-3.85728 4.37838 1.7657e-18)
(-3.85227 4.37259 0)
(-2.00294 2.29484 -2.38184e-17)
(-2.46289 2.81292 2.04519e-17)
(-2.65854 3.03793 0)
(-2.79024 3.18776 1.77633e-17)
(-2.88945 3.30094 -1.81832e-17)
(-2.96885 3.39148 -2.69552e-23)
(-3.03497 3.46686 1.27199e-17)
(-3.09162 3.53143 -9.64668e-21)
(-3.14118 3.58792 -1.31474e-17)
(-3.18524 3.63814 0)
(-3.22492 3.68336 -6.41886e-19)
(-3.26101 3.72449 -9.68952e-18)
(-3.29412 3.76221 9.18963e-18)
(-3.32471 3.79706 0)
(-3.35313 3.82943 -5.20574e-19)
(-3.37967 3.85966 -4.97892e-19)
(-3.40456 3.88802 0)
(-3.42799 3.91471 -6.87769e-18)
(-3.45011 3.93991 1.36971e-17)
(-3.47106 3.96378 -1.40688e-17)
(-3.49096 3.98644 1.31864e-17)
(-3.50988 4.008 -8.06146e-19)
(-3.52792 4.02856 -5.4191e-18)
(-3.54514 4.04818 7.51017e-19)
(-3.56161 4.06695 0)
(-3.57738 4.08493 -7.10443e-19)
(-3.59249 4.10216 0)
(-3.607 4.1187 6.07009e-18)
(-3.62092 4.13458 -5.93291e-18)
(-3.63431 4.14985 5.14384e-18)
(-3.64718 4.16453 -1.00657e-17)
(-3.65956 4.17866 5.54348e-18)
(-3.67148 4.19227 0)
(-3.68295 4.20537 4.7176e-18)
(-3.694 4.218 -1.04134e-17)
(-3.70465 4.23016 4.54307e-18)
(-3.7149 4.24187 6.6801e-24)
(-3.72478 4.25316 0)
(-3.73429 4.26404 -4.82474e-18)
(-3.74345 4.27452 8.97651e-21)
(-3.75227 4.28461 3.11268e-18)
(-3.76076 4.29432 0)
(-3.76893 4.30367 -4.00156e-18)
(-3.77678 4.31266 4.93028e-18)
(-3.78432 4.3213 0)
(-3.79157 4.32959 1.46425e-23)
(-3.79851 4.33756 -3.75028e-18)
(-3.80517 4.34519 6.46904e-18)
(-3.81155 4.3525 -4.55435e-18)
(-3.81764 4.35949 0)
(-3.82347 4.36616 8.82377e-19)
(-3.82901 4.37253 -8.69074e-19)
(-3.8343 4.37859 0)
(-3.83931 4.38435 -3.36768e-18)
(-3.84407 4.38981 3.32761e-18)
(-3.84856 4.39497 8.18241e-19)
(-3.85279 4.39983 0)
(-3.85677 4.4044 1.58804e-18)
(-3.8605 4.40868 -7.82162e-19)
(-3.86397 4.41267 1.20906e-23)
(-3.86719 4.41637 1.51221e-18)
(-3.87015 4.41978 -2.99505e-18)
(-3.87287 4.4229 -1.47207e-18)
(-3.87533 4.42573 -1.44954e-18)
(-3.87755 4.42828 -1.42724e-18)
(-3.87951 4.43054 0)
(-3.88123 4.43251 1.38306e-18)
(-3.88269 4.43419 -1.36121e-18)
(-3.8839 4.43558 -2.67893e-18)
(-3.88486 4.43668 -1.31785e-18)
(-3.88557 4.43749 -2.58667e-18)
(-3.88603 4.43801 3.83074e-18)
(-3.88623 4.43824 -2.5011e-18)
(-3.88617 4.43817 1.23847e-18)
(-3.88586 4.4378 3.62743e-18)
(-3.88529 4.43714 -1.19631e-18)
(-3.88446 4.43618 1.16912e-18)
(-3.88337 4.43491 -2.29006e-18)
(-3.88202 4.43334 2.26096e-18)
(-3.8804 4.43146 0)
(-3.87852 4.42927 -4.34321e-18)
(-3.87636 4.42677 -2.13029e-18)
(-3.87394 4.42395 2.08913e-18)
(-3.87124 4.42082 -4.0963e-18)
(-3.86826 4.41736 2.00732e-18)
(-3.86501 4.41358 -3.92668e-18)
(-3.86148 4.40948 3.85891e-18)
(-3.85766 4.40504 3.03668e-23)
(-3.85355 4.40027 1.83903e-18)
(-3.84916 4.39516 -6.68577e-21)
(-3.84447 4.38971 -1.76614e-18)
(-3.83948 4.38391 1.71995e-18)
(-1.99593 2.30116 -2.23754e-17)
(-2.45453 2.82038 -2.16861e-17)
(-2.64939 3.04608 9.80771e-21)
(-2.78067 3.1963 3.5159e-17)
(-2.87954 3.3098 -1.49673e-17)
(-2.95866 3.40059 1.54685e-17)
(-3.02455 3.47618 -1.25431e-17)
(-3.08099 3.54093 0)
(-3.13037 3.59757 7.18309e-19)
(-3.17427 3.64792 1.00681e-17)
(-3.21381 3.69326 -9.4668e-18)
(-3.24977 3.7345 1.19039e-18)
(-3.28275 3.77232 5.63783e-19)
(-3.31322 3.80726 -8.03407e-18)
(-3.34154 3.83972 8.69107e-18)
(-3.36798 3.87003 8.30257e-18)
(-3.39277 3.89845 -7.49942e-18)
(-3.41611 3.92521 7.19837e-18)
(-3.43815 3.95048 -6.93991e-18)
(-3.45903 3.97441 -4.18247e-19)
(-3.47884 3.99712 -6.46392e-18)
(-3.4977 4.01874 6.26574e-18)
(-3.51567 4.03934 7.58874e-19)
(-3.53283 4.05901 -7.36765e-19)
(-3.54923 4.07783 0)
(-3.56494 4.09584 -5.57207e-18)
(-3.58 4.11311 5.43671e-18)
(-3.59445 4.12969 -6.62262e-19)
(-3.60833 4.14561 0)
(-3.62166 4.16091 5.67988e-18)
(-3.63448 4.17563 -5.56158e-18)
(-3.64682 4.18979 -6.03768e-18)
(-3.6587 4.20342 4.73671e-18)
(-3.67013 4.21655 -4.63237e-18)
(-3.68115 4.2292 5.11766e-18)
(-3.69176 4.24139 0)
(-3.70198 4.25313 5.46864e-19)
(-3.71182 4.26445 5.36893e-19)
(-3.7213 4.27535 -3.15964e-18)
(-3.73043 4.28585 8.29045e-18)
(-3.73923 4.29596 -1.02753e-18)
(-3.74769 4.30569 -7.01112e-18)
(-3.75583 4.31506 3.94506e-18)
(-3.76365 4.32407 1.93385e-18)
(-3.77118 4.33273 -3.8198e-18)
(-3.7784 4.34104 9.38848e-19)
(-3.78532 4.34902 3.6925e-18)
(-3.79196 4.35667 -1.82505e-18)
(-3.79832 4.364 4.47706e-18)
(-3.8044 4.371 -2.6536e-18)
(-3.8102 4.3777 -1.26832e-23)
(-3.81574 4.38408 0)
(-3.821 4.39015 -3.3722e-18)
(-3.826 4.39592 4.1647e-18)
(-3.83075 4.40139 0)
(-3.83523 4.40656 0)
(-3.83945 4.41144 3.17908e-18)
(-3.84342 4.41602 -1.57945e-18)
(-3.84713 4.42031 -3.87046e-18)
(-3.8506 4.42431 -2.27984e-18)
(-3.85381 4.42802 3.00765e-18)
(-3.85677 4.43144 -1.47901e-18)
(-3.85948 4.43457 1.45161e-18)
(-3.86194 4.43741 -1.44096e-18)
(-3.86415 4.43996 -2.82215e-18)
(-3.86611 4.44223 2.79071e-18)
(-3.86782 4.4442 -2.74259e-18)
(-3.86928 4.44589 0)
(-3.87049 4.44729 5.31105e-18)
(-3.87145 4.44839 -2.62257e-18)
(-3.87216 4.44921 -2.56921e-18)
(-3.87262 4.44973 1.27285e-18)
(-3.87282 4.44996 0)
(-3.87277 4.44989 1.22575e-18)
(-3.87246 4.44952 0)
(-3.8719 4.44886 1.18486e-18)
(-3.87107 4.44789 1.1583e-18)
(-3.86999 4.44662 -2.29475e-18)
(-3.86864 4.44505 0)
(-3.86703 4.44317 1.10383e-18)
(-3.86516 4.44098 4.33485e-18)
(-3.86301 4.43847 2.12731e-18)
(-3.8606 4.43565 -2.08729e-18)
(-3.85791 4.43251 2.97608e-23)
(-3.85495 4.42905 0)
(-3.85171 4.42526 -1.96794e-18)
(-3.84819 4.42115 -6.62589e-21)
(-3.84438 4.4167 -6.64295e-21)
(-3.8403 4.41192 0)
(-3.83592 4.4068 -1.81086e-18)
(-3.83125 4.40133 3.53731e-18)
(-3.82628 4.39552 -6.78965e-21)
(-1.98871 2.30759 -2.23267e-17)
(-2.44587 2.82805 -2.15647e-17)
(-2.63994 3.05441 3.85493e-17)
(-2.77078 3.20504 -1.73933e-17)
(-2.86929 3.31886 0)
(-2.94813 3.4099 0)
(-3.01378 3.4857 0)
(-3.07001 3.55063 1.21611e-17)
(-3.11921 3.60743 -1.13081e-17)
(-3.16295 3.65792 6.60054e-19)
(-3.20233 3.70338 9.91192e-18)
(-3.23816 3.74473 -5.93175e-19)
(-3.27102 3.78266 -1.82655e-17)
(-3.30137 3.81769 7.89397e-18)
(-3.32958 3.85024 -1.00288e-18)
(-3.35592 3.88063 8.14591e-18)
(-3.38062 3.90913 4.51405e-19)
(-3.40387 3.93596 -7.51042e-18)
(-3.42582 3.96129 0)
(-3.44662 3.98528 7.37946e-18)
(-3.46636 4.00806 -6.34724e-18)
(-3.48514 4.02973 7.67606e-19)
(-3.50304 4.05038 -7.44224e-19)
(-3.52013 4.07011 7.22555e-19)
(-3.53647 4.08897 0)
(-3.55212 4.10703 5.46504e-18)
(-3.56713 4.12434 -5.3326e-18)
(-3.58152 4.14095 6.49626e-19)
(-3.59534 4.15691 6.34172e-19)
(-3.60863 4.17225 -1.23924e-18)
(-3.6214 4.187 5.4489e-18)
(-3.6337 4.20119 -8.89343e-18)
(-3.64553 4.21486 4.6488e-18)
(-3.65692 4.22802 3.97812e-18)
(-3.6679 4.2407 -8.92432e-18)
(-3.67847 4.25291 4.38151e-18)
(-3.68865 4.26468 5.37033e-19)
(-3.69846 4.27602 -5.27344e-19)
(-3.70791 4.28695 4.14007e-18)
(-3.71701 4.29747 -3.5682e-18)
(-3.72577 4.30761 -1.99777e-18)
(-3.7342 4.31736 2.95801e-18)
(-3.74232 4.32675 -9.6857e-19)
(-3.75012 4.33578 3.80807e-18)
(-3.75761 4.34446 -3.75733e-18)
(-3.76481 4.35279 4.61395e-18)
(-3.77172 4.36079 -9.25876e-21)
(-3.77833 4.36846 -9.05308e-19)
(-3.78467 4.3758 -3.53518e-18)
(-3.79073 4.38282 -8.69618e-19)
(-3.79652 4.38953 2.56589e-18)
(-3.80203 4.39593 -3.38278e-18)
(-3.80729 4.40202 -8.32304e-19)
(-3.81227 4.4078 0)
(-3.817 4.41328 -8.08646e-19)
(-3.82147 4.41847 -3.18342e-18)
(-3.82568 4.42336 3.93403e-18)
(-3.82964 4.42795 4.64244e-18)
(-3.83334 4.43225 -1.53238e-18)
(-3.83679 4.43626 0)
(-3.84 4.43998 1.48384e-18)
(-3.84295 4.4434 4.38223e-18)
(-3.84565 4.44654 -2.88831e-18)
(-3.84811 4.44939 1.42053e-18)
(-3.85031 4.45195 -2.79401e-18)
(-3.85227 4.45422 1.12339e-20)
(-3.85398 4.4562 5.44063e-18)
(-3.85544 4.4579 0)
(-3.85665 4.4593 -1.77232e-23)
(-3.85761 4.46041 2.59025e-18)
(-3.85831 4.46123 -2.56189e-18)
(-3.85877 4.46175 0)
(-3.85898 4.46198 3.70842e-18)
(-3.85893 4.46191 -1.20891e-20)
(-3.85863 4.46155 -2.40315e-18)
(-3.85807 4.46088 1.17264e-18)
(-3.85725 4.45992 -1.16531e-18)
(-3.85617 4.45865 0)
(-3.85483 4.45707 0)
(-3.85323 4.45518 -1.4684e-23)
(-3.85136 4.45299 -2.89257e-23)
(-3.84923 4.45048 2.12271e-18)
(-3.84682 4.44765 -2.08385e-18)
(-3.84415 4.4445 6.53865e-21)
(-3.8412 4.44104 1.31141e-20)
(-3.83797 4.43724 5.91001e-18)
(-3.83447 4.43312 1.92934e-18)