/*--------------------------------*- C++ -*----------------------------------*\
  =========                 |
  \\      /  F ield         | OpenFOAM: The Open Source CFD Toolbox
   \\    /   O peration     | Website:  https://openfoam.org
    \\  /    A nd           | Version:  10
     \\/     M anipulation  |
\*---------------------------------------------------------------------------*/
FoamFile
{
    format      ascii;
    class       volScalarField;
    location    "80000";
    object      k;
}
// * * * * * * * * * * * * * * * * * * * * * * * * * * * * * * * * * * * * * //

dimensions      [0 2 -2 0 0 0 0];

internalField   nonuniform List<scalar> 
17981
(
0.0547926
0.0560095
0.0574046
0.0589805
0.0607367
0.0626687
0.0647685
0.0670247
0.0694229
0.0719465
0.0745773
0.0772961
0.0800835
0.0829204
0.0857884
0.0886704
0.0915505
0.0944146
0.0972499
0.100045
0.102792
0.105481
0.108106
0.110662
0.113144
0.11555
0.117877
0.120124
0.12229
0.124374
0.126378
0.128302
0.130147
0.131914
0.133606
0.135224
0.136771
0.138248
0.139659
0.141005
0.142289
0.143512
0.144676
0.145783
0.146837
0.147839
0.148791
0.149697
0.054377
0.0556698
0.0571527
0.0588292
0.0606984
0.0627556
0.064992
0.0673947
0.0699481
0.0726336
0.0754312
0.0783199
0.0812784
0.084286
0.0873229
0.0903706
0.0934121
0.0964325
0.0994182
0.102358
0.105241
0.10806
0.110808
0.113479
0.11607
0.118577
0.120998
0.123331
0.125577
0.127735
0.129806
0.131791
0.133691
0.135508
0.137245
0.138903
0.140484
0.141992
0.14343
0.144799
0.146101
0.147339
0.148515
0.149632
0.150692
0.151698
0.152652
0.153556
0.0540321
0.0554192
0.0570097
0.058807
0.0608104
0.0630141
0.0654081
0.067978
0.0707062
0.073572
0.0765534
0.0796272
0.0827704
0.0859604
0.089176
0.0923975
0.0956068
0.0987882
0.101928
0.105013
0.108034
0.110983
0.113852
0.116636
0.119331
0.121935
0.124445
0.12686
0.12918
0.131405
0.133536
0.135575
0.137524
0.139383
0.141157
0.142847
0.144455
0.145986
0.147442
0.148826
0.150138
0.151383
0.152563
0.153681
0.154739
0.155741
0.156688
0.157584
0.0610885
0.0634615
0.0660354
0.0687938
0.0717167
0.0747811
0.0779626
0.0812358
0.0845758
0.0879582
0.0913605
0.0947617
0.098143
0.101488
0.104782
0.108012
0.111169
0.114245
0.117231
0.120123
0.122918
0.125612
0.128204
0.130693
0.133079
0.135363
0.137546
0.139631
0.141618
0.143511
0.145312
0.147024
0.148651
0.150195
0.15166
0.153048
0.154362
0.155605
0.156779
0.157888
0.158936
0.159924
0.160856
0.161735
0.061553
0.0641193
0.066896
0.0698644
0.0730014
0.0762817
0.0796782
0.0831633
0.0867101
0.0902926
0.0938869
0.0974712
0.101026
0.104534
0.10798
0.111353
0.114641
0.117837
0.120934
0.123927
0.126813
0.129588
0.132253
0.134806
0.137249
0.139582
0.141807
0.143926
0.145941
0.147857
0.149675
0.151399
0.153033
0.15458
0.156043
0.157424
0.158728
0.159958
0.161116
0.162207
0.163233
0.164198
0.165105
0.165957
0.0622283
0.0650121
0.0680142
0.0712127
0.0745818
0.0780931
0.0817169
0.0854234
0.0891838
0.0929707
0.0967591
0.100526
0.104252
0.107919
0.111513
0.115021
0.118433
0.121742
0.12494
0.128023
0.130989
0.133835
0.136561
0.139167
0.141654
0.144023
0.146277
0.148418
0.15045
0.152376
0.154198
0.155922
0.157551
0.159089
0.160537
0.161901
0.163184
0.164389
0.16552
0.166581
0.167575
0.168507
0.169378
0.170192
0.0661645
0.0694126
0.0728591
0.076475
0.0802288
0.0840885
0.0880219
0.0919987
0.0959902
0.0999705
0.103916
0.107808
0.111627
0.115359
0.118993
0.122518
0.125926
0.129213
0.132375
0.135408
0.138311
0.141084
0.143729
0.146246
0.148637
0.150906
0.153056
0.15509
0.157012
0.158827
0.160538
0.162148
0.163663
0.165084
0.166417
0.167666
0.168834
0.169926
0.170946
0.171897
0.172783
0.173607
0.174374
0.0748139
0.078687
0.0826906
0.0867899
0.0909511
0.0951423
0.099334
0.1035
0.107616
0.111663
0.115622
0.119481
0.123226
0.12685
0.130345
0.133706
0.136929
0.140014
0.142958
0.145763
0.148431
0.150962
0.153361
0.15563
0.157773
0.159795
0.161699
0.163491
0.165174
0.166752
0.168229
0.16961
0.170899
0.1721
0.173219
0.17426
0.175226
0.176121
0.176951
0.177718
0.178425
0.0812083
0.0854635
0.0898011
0.0941858
0.0985846
0.102967
0.107307
0.111581
0.115769
0.119854
0.123823
0.127664
0.13137
0.134933
0.138351
0.141619
0.144737
0.147705
0.150525
0.153198
0.155727
0.158116
0.160369
0.16249
0.164483
0.166355
0.168109
0.169748
0.171278
0.172704
0.17403
0.175261
0.176403
0.17746
0.178436
0.179337
0.180166
0.180928
0.181626
0.182264
0.0930831
0.0976818
0.102276
0.106836
0.111335
0.115749
0.120061
0.124253
0.128313
0.13223
0.135998
0.139611
0.143065
0.146359
0.149492
0.152465
0.155281
0.157942
0.160451
0.162814
0.165034
0.167116
0.169067
0.17089
0.172589
0.174169
0.175637
0.176997
0.178255
0.179416
0.180485
0.181467
0.182368
0.183192
0.183943
0.184626
0.185245
0.185805
0.115506
0.120041
0.124455
0.128732
0.132862
0.136834
0.140643
0.144283
0.147753
0.151052
0.15418
0.15714
0.159933
0.162563
0.165036
0.167355
0.169526
0.171555
0.173446
0.175203
0.176833
0.17834
0.179732
0.181014
0.182191
0.183269
0.184254
0.185151
0.185965
0.186702
0.187365
0.187961
0.188492
0.188964
0.119732
0.124364
0.128855
0.133194
0.137369
0.141373
0.1452
0.148846
0.152311
0.155594
0.158697
0.161623
0.164375
0.166957
0.169376
0.171636
0.173743
0.175702
0.177517
0.179195
0.180742
0.182164
0.183467
0.184658
0.185744
0.186729
0.187619
0.188421
0.18914
0.189781
0.190348
0.190848
0.191284
0.191661
0.123906
0.128607
0.133151
0.137526
0.141722
0.145732
0.149554
0.153184
0.156622
0.159869
0.162928
0.165802
0.168496
0.171015
0.173364
0.175551
0.177578
0.179452
0.181178
0.182765
0.184217
0.185543
0.186748
0.187839
0.188823
0.189707
0.190495
0.191194
0.19181
0.192348
0.192814
0.193212
0.193548
0.193825
0.127914
0.132656
0.137224
0.141609
0.1458
0.149795
0.153588
0.157181
0.160572
0.163765
0.166762
0.169569
0.17219
0.174631
0.176899
0.178997
0.180932
0.18271
0.184337
0.185822
0.187171
0.188392
0.189491
0.190476
0.191353
0.192128
0.192808
0.1934
0.193908
0.19434
0.1947
0.194993
0.195225
0.195399
0.13639
0.140956
0.145325
0.149488
0.153444
0.157189
0.160725
0.164052
0.167174
0.170096
0.172821
0.175358
0.177711
0.179884
0.181883
0.183716
0.185389
0.186911
0.188288
0.189528
0.190638
0.191627
0.1925
0.193266
0.19393
0.1945
0.194982
0.195381
0.195704
0.195957
0.196144
0.196272
0.196344
0.139694
0.144233
0.148562
0.152676
0.156573
0.160252
0.163714
0.166963
0.170002
0.172836
0.175471
0.177914
0.180167
0.182237
0.184131
0.185856
0.18742
0.188832
0.190098
0.191226
0.192225
0.193101
0.193863
0.194517
0.195071
0.19553
0.195903
0.196194
0.19641
0.196558
0.196641
0.196666
0.196638
0.142464
0.146951
0.151219
0.155265
0.159087
0.162685
0.166062
0.169221
0.172167
0.174907
0.177445
0.179786
0.181934
0.183897
0.185683
0.187299
0.188753
0.190054
0.191209
0.192227
0.193116
0.193882
0.194535
0.19508
0.195526
0.195879
0.196146
0.196334
0.196448
0.196494
0.196479
0.196407
0.196283
0.149027
0.153217
0.157179
0.160912
0.164418
0.167701
0.170763
0.173612
0.176253
0.178689
0.180925
0.182967
0.184824
0.186502
0.188011
0.189358
0.190553
0.191602
0.192514
0.193297
0.193959
0.194508
0.194951
0.195296
0.195549
0.195718
0.195808
0.195827
0.19578
0.195673
0.195511
0.1953
0.150397
0.154495
0.158362
0.161997
0.165405
0.168587
0.171551
0.174301
0.176841
0.179174
0.181306
0.183245
0.184999
0.186576
0.187984
0.189231
0.190325
0.191275
0.19209
0.192776
0.193343
0.193798
0.194148
0.194401
0.194564
0.194644
0.194647
0.194581
0.19445
0.194262
0.19402
0.193731
0.151022
0.155018
0.158782
0.162315
0.16562
0.168702
0.171567
0.174218
0.176659
0.178893
0.180927
0.18277
0.18443
0.185913
0.187229
0.188386
0.189391
0.190253
0.19098
0.191582
0.192064
0.192436
0.192706
0.192879
0.192965
0.192969
0.192898
0.192759
0.192557
0.192299
0.19199
0.191635
0.150889
0.154776
0.158433
0.16186
0.165063
0.168047
0.170816
0.173373
0.175719
0.177862
0.179808
0.181566
0.183141
0.184542
0.185777
0.186855
0.187783
0.188571
0.189226
0.189757
0.190171
0.190476
0.190679
0.190789
0.190811
0.190754
0.190623
0.190426
0.190167
0.189853
0.18949
0.189082
0.150008
0.153782
0.15733
0.160653
0.163757
0.166646
0.169324
0.171793
0.174056
0.176117
0.177985
0.179667
0.18117
0.182502
0.183672
0.184688
0.185557
0.186287
0.186887
0.187364
0.187726
0.187981
0.188135
0.188197
0.188173
0.188071
0.187896
0.187655
0.187355
0.187
0.186597
0.186151
0.148411
0.15207
0.155509
0.15873
0.161739
0.164541
0.167136
0.169525
0.171711
0.173702
0.175504
0.177126
0.178574
0.179855
0.180978
0.181949
0.182776
0.183468
0.184031
0.184473
0.184801
0.185024
0.185147
0.185179
0.185127
0.184996
0.184794
0.184527
0.184201
0.183821
0.183394
0.182924
0.146144
0.149688
0.153021
0.156145
0.159065
0.161784
0.164302
0.166619
0.168743
0.170678
0.172432
0.17401
0.17542
0.176669
0.177762
0.178708
0.179514
0.180186
0.180731
0.181158
0.181472
0.181682
0.181794
0.181814
0.181751
0.18161
0.181398
0.181121
0.180785
0.180396
0.17996
0.179482
0.14327
0.1467
0.149929
0.152959
0.155792
0.158434
0.160885
0.163146
0.165221
0.167116
0.168837
0.17039
0.171781
0.173015
0.1741
0.17504
0.175843
0.176516
0.177064
0.177495
0.177815
0.178031
0.17815
0.178178
0.178122
0.177989
0.177784
0.177514
0.177185
0.176802
0.176372
0.175899
0.139858
0.143175
0.1463
0.149238
0.151991
0.154566
0.156961
0.159177
0.161218
0.163089
0.164795
0.16634
0.167729
0.168968
0.170062
0.171017
0.171838
0.172531
0.173102
0.173557
0.173903
0.174145
0.17429
0.174344
0.174313
0.174205
0.174024
0.173777
0.17347
0.173109
0.172699
0.172246
0.135981
0.139183
0.142207
0.145057
0.147737
0.150253
0.152604
0.154787
0.156808
0.158669
0.160375
0.161928
0.163334
0.164596
0.165719
0.166708
0.167566
0.168299
0.168913
0.169412
0.169802
0.170089
0.170278
0.170376
0.170389
0.170322
0.170181
0.169973
0.169704
0.169378
0.169002
0.168581
0.131714
0.134802
0.137727
0.140494
0.143107
0.14557
0.147884
0.150047
0.15206
0.153925
0.155645
0.157223
0.158662
0.159965
0.161134
0.162174
0.163089
0.163881
0.164555
0.165117
0.16557
0.16592
0.166172
0.166331
0.166403
0.166394
0.166309
0.166155
0.165937
0.16566
0.16533
0.164953
0.127135
0.130108
0.132936
0.135623
0.138173
0.140589
0.142874
0.145025
0.147039
0.14892
0.150668
0.152284
0.153771
0.15513
0.156363
0.157472
0.158459
0.159328
0.160082
0.160724
0.161257
0.161687
0.162018
0.162255
0.162403
0.162466
0.162452
0.162364
0.16221
0.161994
0.161722
0.1614
0.125175
0.127907
0.130516
0.133006
0.135379
0.137637
0.139781
0.141807
0.143713
0.145499
0.147166
0.148714
0.150143
0.151454
0.152647
0.153724
0.154685
0.155534
0.156272
0.156903
0.157429
0.157855
0.158184
0.158422
0.158572
0.158641
0.158633
0.158555
0.158411
0.158207
0.157949
0.120073
0.122708
0.12524
0.127671
0.130003
0.132238
0.134376
0.136416
0.138354
0.140187
0.141914
0.143534
0.145045
0.146446
0.147737
0.148917
0.149987
0.150945
0.151795
0.152538
0.153175
0.15371
0.154145
0.154486
0.154736
0.154901
0.154984
0.154992
0.15493
0.154803
0.154618
0.114875
0.117407
0.119858
0.122229
0.12452
0.126732
0.128865
0.130918
0.13289
0.134776
0.13657
0.138269
0.139871
0.141374
0.142774
0.144069
0.145258
0.14634
0.147315
0.148183
0.148944
0.149601
0.150156
0.150613
0.150974
0.151245
0.15143
0.151534
0.151563
0.151522
0.151417
0.109638
0.112063
0.114427
0.116733
0.118981
0.12117
0.123298
0.125364
0.127366
0.129302
0.131166
0.13295
0.13465
0.136261
0.137779
0.139199
0.140519
0.141736
0.142847
0.143852
0.14475
0.145541
0.146227
0.146811
0.147294
0.147682
0.147978
0.148187
0.148315
0.148366
0.148348
0.111239
0.113435
0.115594
0.117714
0.119792
0.121824
0.123806
0.125734
0.127602
0.129403
0.131128
0.13277
0.134323
0.135783
0.137143
0.138401
0.139553
0.140598
0.141534
0.142362
0.143083
0.143698
0.144212
0.144628
0.14495
0.145183
0.145334
0.145408
0.105795
0.107931
0.11005
0.112152
0.114234
0.116291
0.118319
0.120309
0.122255
0.124151
0.125989
0.127759
0.12945
0.131055
0.132567
0.13398
0.135289
0.13649
0.13758
0.138559
0.139427
0.140183
0.140832
0.141375
0.141817
0.142164
0.14242
0.142592
0.100438
0.102504
0.104574
0.106648
0.108723
0.110795
0.112859
0.114907
0.11693
0.118919
0.120864
0.122756
0.124585
0.12634
0.128009
0.129583
0.131056
0.132421
0.133675
0.134814
0.135836
0.136742
0.137533
0.138212
0.138781
0.139247
0.139614
0.139888
0.0952043
0.0971888
0.0991981
0.101232
0.103289
0.105364
0.107452
0.109546
0.111636
0.113713
0.115764
0.117776
0.119738
0.12164
0.123467
0.125208
0.12685
0.128387
0.129811
0.131118
0.132303
0.133367
0.134308
0.135128
0.135831
0.136422
0.136905
0.137286
0.0901248
0.0920149
0.0939495
0.0959292
0.0979529
0.100017
0.102117
0.104245
0.106391
0.108544
0.110692
0.112821
0.114915
0.116959
0.118941
0.120848
0.122665
0.124379
0.12598
0.127461
0.128817
0.130045
0.131143
0.132113
0.132956
0.133677
0.134281
0.134774
0.0852233
0.0870071
0.0888531
0.0907636
0.0927387
0.0947763
0.0968717
0.099018
0.101206
0.103423
0.105656
0.107891
0.11011
0.112297
0.114434
0.116504
0.118494
0.120388
0.122171
0.123833
0.125366
0.126766
0.128028
0.129153
0.130143
0.131
0.13173
0.132339
0.0805203
0.0821873
0.0839316
0.0857576
0.0876674
0.0896604
0.0917336
0.0938809
0.0960935
0.0983597
0.100665
0.102994
0.105328
0.107649
0.109936
0.112171
0.114332
0.116405
0.118374
0.120223
0.121939
0.123517
0.124951
0.126238
0.12738
0.128379
0.12924
0.12997
0.0760381
0.0775773
0.0792067
0.0809329
0.0827601
0.08469
0.0867213
0.0888499
0.0910679
0.0933647
0.0957261
0.0981351
0.100572
0.103017
0.105447
0.107839
0.110173
0.112426
0.11458
0.116619
0.118525
0.120288
0.121899
0.123355
0.124656
0.125803
0.1268
0.127654
0.0717881
0.0731919
0.0746955
0.0763079
0.078036
0.079884
0.0818533
0.0839418
0.086144
0.0884504
0.0908479
0.0933194
0.095845
0.0984017
0.100965
0.10351
0.10601
0.108442
0.110783
0.113013
0.115113
0.117066
0.118862
0.120494
0.12196
0.123261
0.124399
0.125382
0.0677779
0.0690422
0.070412
0.071899
0.0735129
0.0752611
0.077148
0.0791745
0.0813379
0.083631
0.0860423
0.0885557
0.0911511
0.0938046
0.0964895
0.0991775
0.10184
0.104447
0.106974
0.109397
0.111693
0.113843
0.115829
0.117644
0.119281
0.120742
0.122028
0.123145
0.064018
0.0651398
0.0663693
0.0677209
0.0692072
0.0708389
0.0726236
0.0745661
0.0766668
0.078922
0.0813226
0.0838545
0.0864983
0.08923
0.0920213
0.0948414
0.0976575
0.100437
0.103148
0.105763
0.108257
0.110607
0.112791
0.114795
0.116611
0.118238
0.119677
0.120933
0.0605103
0.0614893
0.0625752
0.0637843
0.0651322
0.0666327
0.0682972
0.0701343
0.0721486
0.0743403
0.076704
0.0792285
0.0818964
0.0846843
0.0875635
0.0905009
0.0934605
0.0964053
0.0992987
0.102107
0.104799
0.107351
0.109738
0.111938
0.113941
0.115741
0.117339
0.11874
0.0572502
0.0580894
0.0590319
0.0600952
0.0612973
0.062655
0.0641837
0.065896
0.067801
0.0699037
0.0722033
0.0746926
0.0773576
0.0801768
0.0831218
0.0861584
0.0892478
0.0923488
0.0954195
0.0984198
0.101313
0.104069
0.106663
0.109067
0.111263
0.113243
0.115007
0.116558
0.0542301
0.0549336
0.055737
0.0566553
0.057708
0.0589152
0.0602957
0.0618664
0.0636412
0.0656303
0.0678383
0.0702636
0.0728964
0.0757189
0.0787044
0.0818186
0.0850208
0.0882659
0.0915068
0.0946969
0.0977928
0.100757
0.103559
0.106173
0.10857
0.110739
0.112676
0.114384
0.0514429
0.0520183
0.0526871
0.0534632
0.0543667
0.0554192
0.0566429
0.0580585
0.059685
0.0615378
0.0636279
0.0659597
0.0685298
0.071325
0.0743224
0.077489
0.0807833
0.084157
0.087558
0.0909332
0.0942316
0.0974075
0.100423
0.103249
0.105857
0.108222
0.11034
0.112212
0.0488772
0.0493308
0.0498714
0.0505116
0.0512696
0.0521678
0.0532304
0.054482
0.0559458
0.0576429
0.0595906
0.0618005
0.0642764
0.0670119
0.0699896
0.0731798
0.0765416
0.0800248
0.0835726
0.0871255
0.0906244
0.0940147
0.0972497
0.100295
0.103117
0.105688
0.107995
0.110037
0.0465226
0.0468581
0.0472773
0.0477889
0.0484087
0.049157
0.0500592
0.0511424
0.0524339
0.0539599
0.0557441
0.0578056
0.0601565
0.062799
0.0657229
0.0689042
0.0723049
0.0758744
0.0795523
0.0832725
0.0869678
0.0905739
0.0940343
0.097304
0.100347
0.103132
0.105637
0.107858
0.0443714
0.0445895
0.0448911
0.0452817
0.0457717
0.0463784
0.0471254
0.0480409
0.0491556
0.0505001
0.0521041
0.0539941
0.0561911
0.0587071
0.0615416
0.0646786
0.0680856
0.0717137
0.0755004
0.0793741
0.0832588
0.08708
0.0907698
0.094272
0.0975453
0.100551
0.103264
0.105671
0.0424069
0.0425168
0.0427015
0.0429758
0.0433447
0.0438197
0.0444205
0.0451742
0.046113
0.0472712
0.0486834
0.0503834
0.052401
0.0547588
0.0574676
0.0605225
0.0638991
0.0675535
0.0714234
0.0754324
0.0794965
0.0835299
0.0874523
0.0911947
0.0947069
0.0979438
0.100871
0.103475
0.040605
0.0406233
0.0407023
0.0408611
0.0411134
0.0414662
0.0419321
0.0425341
0.0433032
0.0442759
0.045491
0.0469881
0.0488054
0.0509764
0.0535245
0.056458
0.0597644
0.0634082
0.0673302
0.0714519
0.0756815
0.0799219
0.0840789
0.0880692
0.091828
0.0953045
0.0984571
0.101265
0.0388843
0.0388744
0.038929
0.0390666
0.0393027
0.0396449
0.0401078
0.0407183
0.0415122
0.042531
0.0438189
0.0454212
0.0473815
0.0497365
0.0525095
0.0557036
0.0592953
0.063233
0.067439
0.0718154
0.0762536
0.0806448
0.0848889
0.0889047
0.0926322
0.0960215
0.0990429
0.0372774
0.0371936
0.0371614
0.0371961
0.0373178
0.0375428
0.0378796
0.0383458
0.0389728
0.0398022
0.0408813
0.0422609
0.0439931
0.0461273
0.0487031
0.0517415
0.055236
0.0591475
0.0634032
0.0679021
0.072525
0.0771469
0.0816496
0.0859325
0.0899235
0.0935615
0.0968066
0.0355344
0.0354843
0.0355037
0.0356141
0.0358329
0.0361695
0.0366455
0.0372982
0.0381756
0.039332
0.0408263
0.0427187
0.0450647
0.0479052
0.0512551
0.0550931
0.0593574
0.063948
0.0687372
0.0735834
0.0783476
0.0829075
0.0871742
0.0910733
0.0945536
0.0340271
0.0339074
0.0338433
0.0338515
0.0339549
0.0341721
0.0345139
0.0350071
0.0356961
0.0366363
0.0378909
0.0395286
0.0416188
0.0442229
0.0473801
0.0510931
0.0553181
0.0599623
0.0648929
0.0699527
0.0749799
0.079827
0.0843802
0.0885524
0.092281
0.0324449
0.0323128
0.0322382
0.0322388
0.0323393
0.0325596
0.0329124
0.0334314
0.0341692
0.0351906
0.0365696
0.0383868
0.0407221
0.0436406
0.0471744
0.0513056
0.055957
0.0609963
0.0662527
0.0715404
0.0766827
0.0815366
0.0859968
0.0899872
0.0310793
0.030892
0.0307505
0.0306685
0.0306649
0.0307667
0.0309948
0.0313651
0.0319201
0.0327223
0.033848
0.0353848
0.0374276
0.0400667
0.0433671
0.0473448
0.0519481
0.0570543
0.062483
0.068024
0.073468
0.0786369
0.083402
0.0876687
0.0297959
0.0295636
0.0293682
0.02922
0.0291333
0.0291289
0.0292361
0.029477
0.0298726
0.0304761
0.0313623
0.0326219
0.0343599
0.0366876
0.0397037
0.043465
0.0479568
0.0530774
0.058645
0.0644263
0.0701756
0.0756742
0.080762
0.0853209
0.0283131
0.0280741
0.0278729
0.0277202
0.0276315
0.0276295
0.0277464
0.0280059
0.0284362
0.0291043
0.0300999
0.0315325
0.0335285
0.0362171
0.0396993
0.0440092
0.0490808
0.0547426
0.0607432
0.0667978
0.07264
0.0780697
0.0829383
0.0271281
0.0268538
0.02661
0.0264048
0.0262497
0.0261614
0.0261654
0.0262968
0.0265813
0.0270587
0.0278122
0.0289508
0.0306086
0.032938
0.0360838
0.0401371
0.045085
0.0507833
0.0569718
0.0633263
0.0695247
0.0753164
0.0805138
0.0256948
0.0254168
0.0251697
0.0249623
0.0248066
0.0247211
0.0247349
0.0248862
0.025204
0.0257445
0.0266112
0.0279385
0.0298925
0.0326548
0.0363776
0.0411172
0.0467792
0.053111
0.0597525
0.0663185
0.072492
0.0780384
0.0245863
0.0242807
0.0240003
0.0237513
0.0235429
0.0233884
0.0233083
0.0233363
0.0235138
0.0238758
0.0245012
0.0255191
0.0270987
0.0294462
0.0327711
0.0372117
0.0427489
0.0491624
0.0560667
0.0630082
0.0695849
0.0755027
0.0235185
0.0231908
0.0228836
0.0226018
0.0223519
0.0221437
0.0219921
0.0219202
0.0219675
0.0221791
0.0226006
0.023341
0.024564
0.0264856
0.0293596
0.0334101
0.038719
0.0451321
0.0522589
0.0595762
0.0665804
0.0728974
0.0221367
0.0218084
0.0215004
0.021218
0.0209681
0.0207614
0.0206143
0.0205537
0.0206262
0.020882
0.0213853
0.0222842
0.0237904
0.0261822
0.0297604
0.0347269
0.0410345
0.0483228
0.0560058
0.0634615
0.070209
0.0211087
0.0207637
0.0204353
0.0201273
0.0198449
0.0195958
0.0193917
0.0192512
0.019206
0.0193114
0.019625
0.0202435
0.0213649
0.0232698
0.0263131
0.030821
0.0368951
0.0442566
0.0522794
0.060208
0.067421
0.0200968
0.0197391
0.0193949
0.0190671
0.0187594
0.0184777
0.0182302
0.01803
0.0178989
0.0178754
0.0180242
0.0184162
0.0191994
0.0206403
0.0231159
0.0270594
0.0327532
0.0400667
0.0483796
0.0567964
0.0645137
0.0187237
0.0183677
0.0180248
0.0176979
0.0173912
0.0171107
0.0168658
0.0166715
0.0165534
0.0165605
0.0167675
0.0172713
0.0182949
0.0202062
0.0235062
0.0286648
0.0357726
0.0442913
0.0531993
0.061463
0.0177055
0.0173412
0.0169875
0.0166464
0.0163212
0.0160161
0.0157379
0.0154971
0.0153109
0.0152107
0.0152587
0.0155452
0.0162166
0.0176035
0.0202231
0.0247026
0.0314123
0.0400064
0.0493859
0.0582391
0.0166713
0.0163017
0.0159408
0.0155901
0.0152517
0.0149291
0.0146269
0.0143525
0.0141178
0.0139433
0.0138675
0.0139712
0.0143709
0.0153041
0.0172582
0.0209509
0.0270492
0.0355305
0.045324
0.0548064
0.0156049
0.0152329
0.0148681
0.0145116
0.0141651
0.0138309
0.0135125
0.0132151
0.0129469
0.0127216
0.0125641
0.0125256
0.0127102
0.0132823
0.0146357
0.0174945
0.0227741
0.0308931
0.0409849
0.0511232
0.0144865
0.0141146
0.0137489
0.0133903
0.01304
0.0126998
0.0123722
0.0120609
0.0117716
0.0115136
0.0113029
0.0111713
0.0111898
0.0114931
0.0123482
0.0144013
0.0187013
0.0261593
0.0363517
0.0471433
0.0132904
0.0129208
0.0125568
0.0121994
0.0118495
0.0115086
0.0111786
0.0108621
0.0105631
0.0102877
0.0100463
0.00985855
0.00976502
0.00986434
0.0103521
0.0117012
0.0149496
0.0214345
0.0314306
0.0428193
0.0119807
0.0116156
0.0112561
0.010903
0.0105577
0.0102215
0.00989595
0.00958309
0.00928559
0.00900748
0.00875529
0.00854081
0.00838769
0.00835174
0.00857698
0.00937812
0.0116159
0.0168574
0.0262411
0.0380973
0.0105046
0.0101467
0.00979469
0.00944989
0.00911392
0.00878845
0.00847516
0.00817583
0.00789238
0.0076273
0.00738429
0.00716987
0.00699722
0.00689693
0.00695349
0.00737655
0.00875478
0.0125959
0.0208349
0.0328846
0.00877645
0.00843031
0.00809099
0.00776057
0.00744143
0.00713587
0.00684594
0.00657343
0.00631991
0.00608687
0.00587599
0.00569002
0.00553478
0.00542474
0.0053999
0.00558656
0.00634633
0.00881552
0.0153256
0.0269946
0.00664858
0.00632589
0.00601221
0.00571062
0.00542468
0.00515746
0.00491115
0.00468725
0.00448677
0.00431032
0.00415822
0.00403048
0.00392706
0.0038501
0.00380672
0.00385725
0.00421707
0.00561714
0.0102006
0.0208483
0.00388329
0.00362642
0.00338302
0.00315665
0.00295098
0.00276799
0.00260799
0.00247074
0.002356
0.00226359
0.00219291
0.0021387
0.00208839
0.00204573
0.00203345
0.00207548
0.00226714
0.00297346
0.00579394
0.0150351
0.000737586
0.000645515
0.000562116
0.000488365
0.000425016
0.000372268
0.000329581
0.00029598
0.000270399
0.0002519
0.000239881
0.000237783
0.000256061
0.000286341
0.000329743
0.000391731
0.000491351
0.000703492
0.00169323
0.00939206
0.138537
0.1391
0.139656
0.140207
0.140755
0.1413
0.141842
0.142382
0.14292
0.143457
0.143992
0.144525
0.145055
0.145582
0.146104
0.14662
0.14713
0.14763
0.148119
0.148595
0.149055
0.149496
0.149915
0.150307
0.150669
0.150996
0.151282
0.151521
0.151706
0.15183
0.151884
0.151857
0.151737
0.151512
0.151166
0.15068
0.150032
0.149197
0.148144
0.146836
0.145228
0.143267
0.140887
0.138015
0.134561
0.130428
0.125504
0.11967
0.112789
0.104693
0.0951463
0.0837467
0.0697213
0.0517404
0.0288197
0.138486
0.139045
0.139599
0.140146
0.14069
0.14123
0.141767
0.142301
0.142833
0.143362
0.143889
0.144413
0.144933
0.145448
0.145958
0.146461
0.146955
0.14744
0.147912
0.148369
0.148809
0.149229
0.149625
0.149993
0.150329
0.150629
0.150886
0.151095
0.151249
0.15134
0.151358
0.151294
0.151135
0.150869
0.150478
0.149944
0.149245
0.148355
0.147242
0.145867
0.144187
0.142147
0.139683
0.13672
0.133173
0.128945
0.12393
0.11801
0.111052
0.102889
0.0932849
0.081855
0.0679495
0.0507905
0.030661
0.138434
0.13899
0.13954
0.140084
0.140623
0.141158
0.14169
0.142218
0.142743
0.143264
0.143782
0.144296
0.144805
0.145309
0.145806
0.146295
0.146774
0.147242
0.147696
0.148135
0.148554
0.148952
0.149325
0.149668
0.149978
0.15025
0.150479
0.150657
0.150779
0.150835
0.150817
0.150715
0.150516
0.150206
0.14977
0.149187
0.148435
0.147487
0.146311
0.144869
0.143115
0.140994
0.138445
0.135393
0.131754
0.127437
0.122338
0.116345
0.109331
0.101138
0.0915495
0.0802424
0.0667631
0.0510724
0.0343429
0.13838
0.138933
0.139479
0.140019
0.140553
0.141084
0.141609
0.142131
0.142648
0.143162
0.143671
0.144175
0.144673
0.145164
0.145648
0.146122
0.146586
0.147037
0.147473
0.147891
0.14829
0.148665
0.149014
0.149333
0.149616
0.14986
0.150059
0.150206
0.150294
0.150316
0.150261
0.150119
0.149879
0.149525
0.149041
0.148407
0.1476
0.146593
0.145353
0.143841
0.142012
0.139811
0.137177
0.134038
0.130313
0.125913
0.120743
0.114698
0.107659
0.0994891
0.0900107
0.0789957
0.0662401
0.0524743
0.0389949
0.138325
0.138874
0.139416
0.139952
0.140482
0.141006
0.141526
0.14204
0.14255
0.143055
0.143555
0.144048
0.144535
0.145013
0.145483
0.145943
0.14639
0.146823
0.14724
0.147639
0.148016
0.148369
0.148693
0.148986
0.149242
0.149458
0.149626
0.149741
0.149795
0.149781
0.149688
0.149506
0.149223
0.148824
0.148291
0.147604
0.146741
0.145673
0.144367
0.142784
0.14088
0.138599
0.135883
0.132661
0.128856
0.124386
0.119162
0.11309
0.106068
0.0979852
0.0887189
0.0781499
0.0664698
0.0548174
0.0438454
0.138268
0.138813
0.139351
0.139882
0.140407
0.140926
0.141439
0.141946
0.142448
0.142944
0.143433
0.143916
0.14439
0.144856
0.145311
0.145755
0.146186
0.146601
0.146999
0.147377
0.147732
0.148061
0.148361
0.148627
0.148856
0.149042
0.149179
0.149261
0.149281
0.149229
0.149098
0.148875
0.148548
0.148101
0.147518
0.146778
0.145857
0.144727
0.143354
0.1417
0.13972
0.137362
0.134567
0.131268
0.127394
0.122869
0.117612
0.111545
0.104588
0.0966634
0.087709
0.0777745
0.0674323
0.057716
0.0484478
0.138209
0.138751
0.139284
0.13981
0.140329
0.140842
0.141348
0.141848
0.142341
0.142828
0.143307
0.143777
0.144239
0.144691
0.145132
0.14556
0.145973
0.14637
0.146748
0.147105
0.147437
0.147742
0.148017
0.148256
0.148456
0.148612
0.148717
0.148766
0.14875
0.148661
0.14849
0.148224
0.147852
0.147357
0.146723
0.145928
0.144947
0.143754
0.142314
0.14059
0.138536
0.136103
0.133234
0.129867
0.125937
0.121374
0.116113
0.110089
0.103249
0.0955521
0.0870181
0.0779311
0.0689956
0.0608036
0.0526215
0.138148
0.138686
0.139214
0.139735
0.140249
0.140755
0.141253
0.141745
0.142229
0.142706
0.143174
0.143633
0.144082
0.144519
0.144945
0.145356
0.145751
0.146129
0.146487
0.146822
0.147131
0.147412
0.14766
0.147872
0.148043
0.148168
0.148241
0.148255
0.148202
0.148075
0.147863
0.147554
0.147135
0.146591
0.145904
0.145053
0.144013
0.142756
0.141249
0.139455
0.13733
0.134827
0.131892
0.128468
0.124497
0.11992
0.114685
0.108745
0.102073
0.0946768
0.0867078
0.0786065
0.0709409
0.0638565
0.0563786
0.138085
0.138618
0.139142
0.139657
0.140164
0.140663
0.141154
0.141638
0.142112
0.142578
0.143035
0.143481
0.143917
0.14434
0.144749
0.145143
0.14552
0.145878
0.146215
0.146527
0.146813
0.147069
0.14729
0.147474
0.147615
0.147708
0.147748
0.147727
0.147637
0.14747
0.147216
0.146863
0.146397
0.145803
0.145062
0.144154
0.143053
0.141733
0.140161
0.1383
0.136108
0.133541
0.130549
0.127082
0.12309
0.118524
0.113347
0.107532
0.101081
0.0940828
0.0868124
0.0796998
0.0730748
0.0667701
0.0597898
0.13802
0.138548
0.139066
0.139576
0.140076
0.140568
0.141051
0.141525
0.14199
0.142445
0.142889
0.143323
0.143744
0.144151
0.144544
0.144921
0.145279
0.145616
0.145931
0.146221
0.146483
0.146712
0.146907
0.147062
0.147172
0.147233
0.147239
0.147181
0.147054
0.146846
0.146549
0.146151
0.145636
0.144991
0.144196
0.143231
0.142071
0.140688
0.139052
0.137127
0.134874
0.132252
0.129216
0.125722
0.121729
0.117202
0.112115
0.106466
0.100307
0.0938156
0.0873018
0.0810796
0.0752673
0.0695154
0.0629295
0.137952
0.138475
0.138988
0.139491
0.139984
0.140468
0.140942
0.141406
0.141861
0.142304
0.142736
0.143156
0.143563
0.143954
0.14433
0.144688
0.145027
0.145344
0.145636
0.145903
0.146139
0.146342
0.146509
0.146634
0.146714
0.146742
0.146712
0.146618
0.146451
0.146203
0.145862
0.145417
0.144854
0.144157
0.143308
0.142285
0.141066
0.139624
0.137927
0.135943
0.133637
0.130969
0.127903
0.1244
0.12043
0.115967
0.111005
0.105574
0.0997925
0.0938815
0.0881002
0.0826337
0.0774433
0.0720992
0.0658549
0.137881
0.138399
0.138905
0.139401
0.139887
0.140363
0.140828
0.141282
0.141725
0.142157
0.142576
0.142981
0.143373
0.143748
0.144106
0.144445
0.144764
0.145059
0.145329
0.145571
0.145782
0.145958
0.146096
0.146191
0.146239
0.146233
0.146168
0.146036
0.145829
0.145539
0.145154
0.144662
0.144049
0.143301
0.142397
0.141319
0.140043
0.138543
0.13679
0.134755
0.132403
0.129703
0.126621
0.123129
0.119204
0.114834
0.110038
0.104893
0.0995603
0.0942439
0.0891251
0.0842802
0.0795658
0.0745408
0.0686089
0.137808
0.138319
0.138819
0.139308
0.139785
0.140252
0.140708
0.141151
0.141583
0.142002
0.142407
0.142798
0.143173
0.143532
0.143872
0.144191
0.144489
0.144762
0.145009
0.145226
0.145411
0.145559
0.145668
0.145732
0.145747
0.145706
0.145605
0.145435
0.145188
0.144855
0.144425
0.143886
0.143224
0.142424
0.141467
0.140335
0.139004
0.137451
0.135648
0.133568
0.131183
0.128463
0.125383
0.12192
0.118064
0.113821
0.109244
0.10445
0.0995987
0.0948477
0.090306
0.0859652
0.0816212
0.0768622
0.0712244
0.13773
0.138235
0.138728
0.139209
0.139678
0.140136
0.140581
0.141014
0.141433
0.141839
0.14223
0.142606
0.142964
0.143305
0.143626
0.143926
0.144202
0.144452
0.144675
0.144867
0.145024
0.145145
0.145223
0.145256
0.145237
0.145162
0.145023
0.144814
0.144526
0.14415
0.143675
0.143089
0.142378
0.141527
0.14052
0.139335
0.137954
0.136352
0.134507
0.132392
0.129984
0.127259
0.124197
0.120785
0.117025
0.112953
0.108652
0.104249
0.099874
0.0956383
0.0915886
0.0876555
0.0836084
0.0790839
0.0737271
0.137649
0.138147
0.138633
0.139106
0.139566
0.140013
0.140448
0.140869
0.141275
0.141667
0.142044
0.142403
0.142745
0.143067
0.143369
0.143648
0.143902
0.144129
0.144327
0.144493
0.144623
0.144714
0.144762
0.144762
0.14471
0.144599
0.144423
0.144174
0.143845
0.143426
0.142906
0.142273
0.141514
0.140614
0.139557
0.138325
0.136897
0.135254
0.133374
0.131235
0.128817
0.126101
0.123075
0.119737
0.116111
0.112257
0.108274
0.10427
0.100347
0.0965684
0.0929339
0.0893331
0.0855329
0.0812239
0.0761374
0.137564
0.138055
0.138532
0.138996