/*--------------------------------*- C++ -*----------------------------------*\
  =========                 |
  \\      /  F ield         | OpenFOAM: The Open Source CFD Toolbox
   \\    /   O peration     | Website:  https://openfoam.org
    \\  /    A nd           | Version:  10
     \\/     M anipulation  |
\*---------------------------------------------------------------------------*/
FoamFile
{
    format      ascii;
    class       volScalarField;
    location    "37000";
    object      nut;
}
// * * * * * * * * * * * * * * * * * * * * * * * * * * * * * * * * * * * * * //

dimensions      [0 2 -1 0 0 0 0];

internalField   nonuniform List<scalar> 
17981
(
0.00102447
0.00102448
0.00102661
0.00103087
0.0010372
0.00104548
0.00105557
0.00106729
0.00108044
0.00109483
0.00111024
0.00112649
0.00114338
0.00116074
0.00117843
0.0011963
0.00121424
0.00123214
0.00124991
0.00126747
0.00128478
0.00130177
0.00131842
0.00133468
0.00135053
0.00136597
0.00138098
0.00139554
0.00140968
0.00142337
0.00143664
0.00144949
0.00146192
0.00147395
0.00148557
0.00149681
0.00150767
0.00151815
0.00152828
0.00153807
0.00154752
0.00155664
0.00156546
0.00157397
0.00158219
0.00159013
0.0015978
0.00160521
0.000991738
0.000992984
0.00099636
0.00100186
0.00100941
0.00101891
0.0010302
0.00104309
0.00105739
0.00107287
0.00108932
0.00110655
0.00112437
0.0011426
0.00116108
0.00117967
0.00119827
0.00121675
0.00123505
0.00125308
0.00127078
0.00128812
0.00130506
0.00132156
0.00133762
0.00135321
0.00136833
0.00138297
0.00139715
0.00141086
0.00142412
0.00143693
0.0014493
0.00146125
0.00147278
0.0014839
0.00149463
0.00150498
0.00151497
0.0015246
0.00153388
0.00154284
0.00155148
0.00155982
0.00156786
0.00157562
0.00158311
0.00159034
0.000959216
0.000961981
0.000966857
0.000973833
0.00098284
0.000993757
0.00100642
0.00102064
0.0010362
0.00105288
0.00107046
0.00108874
0.00110753
0.00112664
0.00114592
0.00116524
0.00118447
0.00120352
0.0012223
0.00124074
0.0012588
0.00127643
0.0012936
0.00131029
0.00132647
0.00134215
0.00135732
0.00137197
0.00138613
0.00139979
0.00141296
0.00142567
0.00143791
0.00144971
0.00146108
0.00147203
0.00148257
0.00149273
0.00150251
0.00151192
0.00152099
0.00152973
0.00153815
0.00154626
0.00155407
0.0015616
0.00156887
0.00157587
0.000957723
0.000970235
0.00098443
0.0010001
0.00101704
0.001035
0.00105377
0.00107314
0.00109291
0.00111291
0.00113298
0.00115299
0.00117282
0.00119238
0.00121159
0.0012304
0.00124874
0.00126659
0.00128392
0.0013007
0.00131694
0.00133263
0.00134776
0.00136235
0.0013764
0.00138992
0.00140294
0.00141546
0.00142751
0.0014391
0.00145023
0.00146094
0.00147123
0.00148112
0.00149063
0.00149977
0.00150857
0.00151702
0.00152516
0.00153299
0.00154053
0.00154779
0.00155477
0.00156151
0.00093425
0.000948521
0.000964384
0.000981624
0.00100001
0.00101932
0.00103931
0.00105978
0.00108053
0.00110139
0.00112221
0.00114286
0.00116323
0.00118324
0.00120281
0.00122188
0.00124042
0.0012584
0.0012758
0.0012926
0.0013088
0.0013244
0.0013394
0.00135383
0.00136769
0.001381
0.00139377
0.00140603
0.0014178
0.00142909
0.00143992
0.0014503
0.00146027
0.00146983
0.00147901
0.00148781
0.00149627
0.00150439
0.00151219
0.00151969
0.0015269
0.00153383
0.00154049
0.00154691
0.000912636
0.000928799
0.000946435
0.000965319
0.000985213
0.00100588
0.0010271
0.00104865
0.00107034
0.00109201
0.00111352
0.00113473
0.00115556
0.00117592
0.00119575
0.001215
0.00123364
0.00125164
0.001269
0.00128571
0.00130176
0.00131717
0.00133195
0.00134612
0.00135969
0.00137269
0.00138513
0.00139703
0.00140843
0.00141934
0.00142978
0.00143977
0.00144934
0.0014585
0.00146727
0.00147568
0.00148373
0.00149146
0.00149887
0.00150598
0.0015128
0.00151936
0.00152566
0.00153171
0.000911234
0.000930711
0.000951277
0.000972691
0.000994713
0.00101712
0.0010397
0.00106226
0.00108466
0.00110676
0.00112844
0.00114962
0.00117022
0.00119019
0.0012095
0.00122811
0.00124602
0.00126323
0.00127972
0.00129552
0.00131063
0.00132508
0.00133888
0.00135206
0.00136464
0.00137665
0.00138811
0.00139906
0.0014095
0.00141947
0.00142899
0.00143809
0.00144678
0.00145508
0.00146302
0.00147062
0.00147789
0.00148485
0.00149152
0.00149792
0.00150405
0.00150994
0.00151559
0.000939518
0.00096242
0.000985742
0.00100926
0.00103278
0.00105612
0.00107914
0.00110171
0.00112373
0.00114513
0.00116584
0.00118582
0.00120505
0.00122351
0.0012412
0.00125812
0.00127428
0.0012897
0.0013044
0.0013184
0.00133172
0.00134441
0.00135648
0.00136796
0.00137889
0.00138929
0.00139919
0.00140862
0.00141759
0.00142614
0.00143429
0.00144206
0.00144948
0.00145656
0.00146332
0.00146979
0.00147597
0.00148189
0.00148756
0.00149299
0.00149821
0.00095426
0.000978794
0.00100333
0.00102767
0.00105165
0.00107515
0.00109805
0.00112027
0.00114173
0.00116241
0.00118226
0.00120127
0.00121944
0.00123678
0.00125329
0.00126899
0.00128391
0.00129807
0.00131151
0.00132425
0.00133634
0.0013478
0.00135867
0.00136897
0.00137875
0.00138802
0.00139682
0.00140518
0.00141312
0.00142067
0.00142785
0.00143468
0.00144119
0.0014474
0.00145332
0.00145897
0.00146437
0.00146954
0.00147449
0.00147923
0.000998994
0.00102401
0.00104849
0.00107231
0.00109538
0.00111763
0.00113902
0.0011595
0.00117907
0.00119772
0.00121546
0.0012323
0.00124826
0.00126338
0.00127768
0.0012912
0.00130397
0.00131603
0.00132742
0.00133817
0.00134834
0.00135794
0.00136701
0.00137559
0.0013837
0.00139138
0.00139865
0.00140554
0.00141207
0.00141828
0.00142417
0.00142978
0.00143512
0.0014402
0.00144506
0.00144969
0.00145412
0.00145836
0.00109326
0.00111538
0.00113651
0.00115665
0.00117578
0.00119392
0.00121108
0.00122729
0.00124259
0.001257
0.00127056
0.00128333
0.00129532
0.0013066
0.00131721
0.00132718
0.00133656
0.00134539
0.00135369
0.00136151
0.00136888
0.00137582
0.00138237
0.00138856
0.00139441
0.00139995
0.0014052
0.00141017
0.0014149
0.00141939
0.00142367
0.00142776
0.00143165
0.00143538
0.00109118
0.001113
0.00113372
0.00115334
0.00117189
0.00118937
0.00120582
0.00122128
0.00123578
0.00124938
0.0012621
0.00127401
0.00128514
0.00129556
0.00130531
0.00131443
0.00132296
0.00133095
0.00133843
0.00134544
0.00135202
0.00135819
0.00136399
0.00136944
0.00137458
0.00137942
0.00138399
0.00138832
0.00139242
0.00139631
0.0014
0.00140352
0.00140688
0.00141008
0.00108866
0.00110999
0.00113013
0.00114909
0.0011669
0.00118359
0.00119921
0.00121379
0.00122739
0.00124006
0.00125185
0.00126282
0.00127302
0.0012825
0.00129133
0.00129953
0.00130717
0.00131427
0.00132089
0.00132706
0.00133281
0.00133818
0.00134321
0.00134791
0.00135231
0.00135645
0.00136035
0.00136402
0.00136749
0.00137077
0.00137388
0.00137684
0.00137966
0.00138235
0.00108517
0.00110584
0.00112524
0.00114339
0.00116033
0.0011761
0.00119077
0.00120437
0.00121698
0.00122864
0.00123942
0.00124938
0.00125858
0.00126708
0.00127494
0.00128219
0.0012889
0.00129509
0.00130083
0.00130613
0.00131105
0.00131561
0.00131985
0.0013238
0.00132748
0.00133092
0.00133414
0.00133716
0.00134001
0.0013427
0.00134525
0.00134766
0.00134996
0.00135216
0.00110004
0.00111855
0.00113576
0.00115172
0.00116647
0.00118009
0.00119264
0.00120417
0.00121476
0.00122447
0.00123338
0.00124155
0.00124904
0.0012559
0.00126219
0.00126795
0.00127323
0.00127807
0.00128252
0.0012866
0.00129037
0.00129383
0.00129704
0.00130001
0.00130277
0.00130534
0.00130774
0.00130999
0.00131212
0.00131412
0.00131602
0.00131783
0.00131957
0.0010921
0.00110961
0.00112578
0.00114066
0.00115433
0.00116684
0.00117827
0.00118868
0.00119816
0.00120678
0.00121462
0.00122175
0.00122821
0.00123408
0.0012394
0.00124422
0.0012486
0.00125257
0.00125617
0.00125945
0.00126244
0.00126516
0.00126766
0.00126995
0.00127206
0.00127402
0.00127583
0.00127753
0.00127912
0.00128063
0.00128206
0.00128342
0.00128474
0.0010816
0.00109803
0.00111309
0.00112685
0.00113938
0.00115075
0.00116104
0.00117032
0.00117868
0.00118621
0.00119299
0.00119908
0.00120454
0.00120943
0.00121381
0.00121772
0.00122122
0.00122435
0.00122716
0.00122967
0.00123192
0.00123394
0.00123577
0.00123743
0.00123895
0.00124033
0.00124161
0.0012428
0.00124392
0.00124498
0.00124598
0.00124695
0.00124789
0.00108349
0.00109695
0.00110943
0.0011214
0.00113164
0.00114079
0.00114896
0.00115624
0.00116272
0.00116847
0.00117356
0.00117806
0.00118201
0.00118549
0.00118854
0.00119122
0.00119356
0.00119561
0.0011974
0.00119898
0.00120036
0.00120158
0.00120267
0.00120364
0.00120452
0.00120532
0.00120607
0.00120676
0.00120743
0.00120807
0.0012087
0.00120933
0.00104007
0.00105076
0.00106099
0.00107095
0.00108073
0.00109027
0.00109945
0.00110815
0.0011165
0.00112478
0.00113327
0.00114194
0.00114988
0.00115451
0.00115677
0.00115869
0.00116031
0.00116168
0.00116283
0.00116379
0.00116461
0.0011653
0.00116588
0.00116638
0.00116682
0.00116722
0.00116758
0.00116793
0.00116827
0.00116862
0.00116898
0.00116935
0.00100219
0.00101015
0.00101797
0.00102585
0.00103393
0.0010422
0.00105041
0.00105829
0.00106579
0.00107297
0.00107997
0.00108691
0.00109378
0.00110048
0.00110698
0.00111333
0.00111942
0.00112439
0.00112616
0.00112661
0.00112693
0.00112717
0.00112734
0.00112745
0.00112754
0.00112761
0.00112767
0.00112774
0.00112784
0.00112796
0.00112811
0.00112831
0.00097039
0.000975335
0.000980343
0.000985764
0.000991817
0.000998531
0.00100563
0.00101277
0.00101981
0.00102669
0.00103341
0.00103992
0.00104614
0.00105203
0.00105762
0.001063
0.00106828
0.00107346
0.00107842
0.00108291
0.00108637
0.00108766
0.00108749
0.0010873
0.00108711
0.00108692
0.00108676
0.00108664
0.00108655
0.00108651
0.00108653
0.00108661
0.000944121
0.000945788
0.000947615
0.000950128
0.000953678
0.00095837
0.000963913
0.000969898
0.000976086
0.000982328
0.000988538
0.000994662
0.00100065
0.00100646
0.00101205
0.0010174
0.00102247
0.00102727
0.00103178
0.00103601
0.00103991
0.00104327
0.00104569
0.00104645
0.00104605
0.00104568
0.00104536
0.0010451
0.0010449
0.00104477
0.00104471
0.00104474
0.000921236
0.00091954
0.000917971
0.000917295
0.000918036
0.000920418
0.000924211
0.000928947
0.000934253
0.000939886
0.000945676
0.000951497
0.00095725
0.000962863
0.000968288
0.000973499
0.000978478
0.000983214
0.000987685
0.000991861
0.00099569
0.000999099
0.00100195
0.001004
0.00100482
0.00100433
0.00100391
0.00100357
0.00100331
0.00100314
0.00100306
0.00100308
0.000900908
0.000896106
0.000891119
0.00088703
0.000884633
0.000884337
0.000886038
0.000889275
0.000893571
0.000898573
0.000904005
0.000909652
0.000915342
0.000920947
0.000926373
0.000931562
0.000936481
0.000941117
0.000945463
0.000949512
0.00095324
0.000956592
0.000959472
0.000961724
0.000963101
0.000963221
0.000962746
0.00096237
0.000962096
0.00096193
0.000961873
0.000961927
0.000883502
0.00087565
0.000867286
0.00085967
0.000853854
0.000850483
0.00084972
0.000851188
0.000854306
0.000858596
0.000863662
0.000869174
0.000874872
0.000880553
0.00088607
0.000891328
0.000896272
0.000900877
0.000905138
0.000909054
0.000912617
0.000915797
0.000918532
0.00092071
0.000922155
0.000922593
0.000922109
0.000921741
0.000921494
0.00092137
0.000921372
0.000921499
0.00087072
0.000859648
0.00084752
0.000836024
0.000826382
0.000819472
0.000815736
0.000814995
0.000816647
0.000820061
0.000824692
0.000830076
0.000835835
0.00084167
0.000847363
0.000852766
0.000857795
0.000862412
0.000866611
0.0008704
0.000873784
0.000876751
0.000879254
0.000881198
0.00088242
0.000882629
0.000882172
0.000881848
0.000881661
0.000881614
0.000881706
0.000881937
0.000857845
0.000847673
0.000832626
0.00081699
0.000802984
0.000791937
0.000784586
0.000781053
0.000780809
0.000783061
0.000787096
0.000792291
0.000798119
0.00080416
0.0008101
0.000815723
0.000820902
0.000825578
0.000829743
0.000833412
0.000836602
0.000839316
0.000841525
0.000843144
0.00084395
0.000843464
0.000843063
0.000842812
0.000842714
0.00084277
0.000842979
0.000843341
0.00082881
0.00083085
0.000820307
0.000802629
0.000784348
0.000768618
0.000756937
0.000749821
0.000747003
0.000747658
0.000750839
0.000755715
0.000761577
0.000767852
0.0007741
0.000780016
0.000785412
0.0007902
0.000794364
0.000797924
0.000800916
0.000803357
0.000805195
0.000806182
0.000805676
0.000805193
0.000804873
0.00080472
0.000804735
0.000804917
0.000805265
0.000805778
0.000799248
0.00080045
0.000800906
0.000789367
0.000769719
0.000749829
0.000733403
0.000721954
0.000715741
0.000714127
0.000716017
0.000720323
0.000726108
0.000732602
0.000739203
0.000745483
0.000751169
0.000756125
0.000760315
0.000763772
0.000766548
0.00076861
0.000769609
0.000768863
0.000768289
0.000767891
0.000767674
0.000767638
0.000767784
0.000768111
0.000768616
0.000769298
0.000770183
0.000769903
0.000769037
0.000755701
0.000734594
0.000714092
0.000697985
0.000687602
0.00068288
0.000682849
0.000686182
0.000691671
0.000698302
0.000705268
0.000711975
0.000718032
0.000723227
0.00072749
0.00073083
0.000733162
0.000733939
0.000733077
0.0007324
0.000731913
0.00073162
0.000731522
0.00073162
0.000731913
0.0007324
0.000733077
0.000733942
0.000740273
0.000739289
0.000737781
0.000735839
0.000720022
0.000698004
0.000677884
0.000663072
0.000654479
0.000651693
0.000653471
0.000658309
0.000664903
0.000672194
0.000679372
0.000685879
0.000691382
0.000695701
0.000698615
0.000699372
0.000698377
0.000697582
0.000696991
0.000696607
0.000696432
0.000696468
0.000696713
0.000697167
0.000697826
0.000698686
0.000699744
0.000710956
0.000709281
0.000707149
0.000704645
0.000701851
0.000683065
0.000660861
0.000642085
0.000629353
0.000623068
0.000622489
0.000626153
0.00063242
0.000639921
0.000647574
0.000654581
0.00066038
0.000664479
0.000665971
0.000664825
0.000663892
0.000663178
0.000662687
0.00066242
0.000662377
0.000662559
0.000662962
0.000663585
0.000664424
0.000665475
0.000666733
0.000682415
0.000680062
0.000677314
0.000674257
0.000670969
0.00066534
0.000645468
0.000624246
0.000607584
0.00059744
0.000593755
0.000595474
0.000600947
0.000608422
0.000616458
0.000623934
0.000629957
0.000633479
0.000632482
0.000631388
0.00063053
0.000629911
0.000629533
0.000629394
0.000629493
0.000629829
0.000630399
0.000631198
0.000632223
0.000633469
0.000634929
0.00064484
0.000641052
0.000637166
0.000627965
0.000608092
0.000588779
0.000574906
0.000567752
0.000566816
0.000570773
0.000577821
0.00058608
0.000593902
0.000599701
0.000601413
0.000600127
0.000599097
0.000598325
0.000597812
0.000597556
0.000597555
0.000597805
0.000598303
0.000599045
0.000600026
0.00060124
0.000602683
0.000604348
0.000616535
0.000612237
0.000607898
0.000603582
0.000590974
0.000571758
0.000555071
0.000544503
0.000540583
0.000542367
0.000548281
0.000556341
0.000564352
0.000569965
0.000570172
0.00056893
0.000567971
0.000567294
0.000566894
0.000566769
0.000566913
0.00056732
0.000567986
0.000568905
0.000570071
0.000571478
0.00057312
0.000574989
0.000589471
0.000584645
0.000579833
0.0005751
0.000570504
0.00055495
0.000537156
0.0005237
0.000516725
0.000516016
0.00052022
0.000527446
0.000535311
0.000540814
0.000540095
0.000538899
0.000538014
0.000537435
0.000537154
0.000537165
0.000537459
0.000538029
0.000538867
0.000539967
0.000541321
0.000542923
0.000544764
0.00054684
0.000563766
0.000558386
0.000553073
0.000547893
0.000542905
0.000536563
0.000520325
0.000505011
0.000495142
0.0004917
0.000493831
0.000499743
0.000506992
0.000512309
0.000511179
0.000510027
0.000509216
0.000508736
0.000508576
0.000508726
0.000509173
0.000509908
0.000510922
0.000512205
0.000513749
0.000515546
0.000517589
0.00051987
0.000539513
0.00053355
0.000527703
0.000522039
0.00051662
0.000511496
0.000502368
0.000487619
0.00047563
0.00046947
0.000469238
0.000473464
0.000479734
0.000484636
0.000483413
0.000482296
0.000481556
0.000481174
0.000481134
0.000481422
0.000482024
0.000482925
0.000484115
0.000485582
0.000487317
0.000489311
0.000491554
0.000494041
0.000516784
0.000510214
0.000503799
0.000497613
0.00049172
0.000486176
0.000481026
0.000469973
0.000457378
0.000449024
0.000446426
0.000448734
0.000453748
0.000458057
0.000456736
0.000455689
0.000455013
0.000454719
0.000454795
0.000455218
0.000455972
0.000457039
0.000458405
0.000460056
0.00046198
0.000464169
0.000466612
0.000469302
0.000495659
0.000488452
0.000481434
0.000474684
0.000468271
0.000462257
0.000456693
0.00045158
0.000439801
0.000429986
0.000425217
0.000425505
0.000429038
0.00043247
0.000431087
0.000430118
0.000429536
0.000429333
0.000429516
0.00043007
0.000430973
0.000432204
0.000433743
0.000435576
0.000437689
0.000440071
0.000442712
0.000445603
0.000476193
0.000468322
0.000460667
0.000453309
0.000446326
0.000439787
0.000433751
0.000428261
0.000421672
0.000412063
0.000405587
0.000403829
0.000405649
0.00040786
0.000406468
0.000405542
0.000405051
0.00040496
0.000405254
0.000405933
0.000406981
0.000408372
0.000410083
0.000412096
0.000414395
0.000416968
0.000419803
0.000422892
0.000458427
0.000449869
0.000441544
0.000433538
0.000425935
0.000418814
0.000412241
0.000406272
0.000400944
0.00039404
0.000387016
0.000383578
0.000383633
0.000384313
0.000382871
0.000381955
0.000381526
0.000381542
0.00038196
0.000382765
0.000383953
0.000385499
0.000387379
0.000389569
0.000392051
0.000394811
0.000397837
0.00040112
0.00044241
0.000433138
0.000424112
0.000415419
0.000407147
0.000399386
0.000392214
0.000385695
0.000379879
0.000374795
0.000368904
0.000364473
0.00036291
0.000361822
0.00036029
0.000359349
0.00035895
0.000359047
0.000359588
0.000360524
0.000361847
0.000363546
0.000365589
0.000367952
0.000370613
0.000373556
0.000376768
0.000380241
0.000428181
0.000418162
0.000408405
0.000398989
0.000390005
0.000381548
0.000373711
0.000366572
0.000360191
0.000354609
0.000349845
0.000345902
0.000342759
0.000340379
0.000338714
0.000337711
0.000337313
0.000337462
0.000338101
0.000339174
0.000340637
0.000342478
0.000344678
0.000347207
0.00035004
0.000353161
0.000356554
0.00036021
0.000415766
0.000404957
0.00039444
0.000384271
0.000374536
0.000365337
0.000356774
0.000348943
0.000341918
0.000335755
0.000330485
0.000326113
0.000322624
0.000319983
0.000318141
0.000317037
0.000316606
0.000316779
0.000317491
0.000318677
0.000320276
0.000322259
0.000324606
0.000327294
0.000330294
0.000333585
0.000337153
0.000340987
0.000405214
0.000393545
0.000382224
0.000371273
0.000360758
0.000350775
0.000341436
0.000332847
0.000325104
0.000318278
0.000312417
0.000307537
0.00030363
0.000300664
0.000298586
0.000297331
0.000296824
0.000296987
0.000297741
0.000299014
0.000300737
0.00030285
0.000305338
0.000308177
0.000311336
0.000314791
0.000318527
0.000322532
0.000396622
0.000383966
0.00037177
0.000359998
0.000348674
0.000337878
0.00032772
0.000318319
0.00030979
0.000302225
0.000295689
0.000290217
0.000285811
0.000282443
0.000280062
0.000278597
0.000277964
0.000278073
0.000278837
0.000280168
0.000281989
0.00028423
0.00028685
0.000289829
0.000293137
0.000296747
0.000300643
0.000304813
0.000390125
0.000376293
0.000363096
0.000350436
0.000338273
0.000326641
0.000315635
0.000305381
0.000296007
0.00028763
0.000280338
0.000274186
0.000269192
0.000265339
0.000262578
0.000260835
0.000260019
0.000260028
0.000260762
0.000262122
0.000264017
0.000266367
0.000269106
0.000272214
0.000275662
0.000279421
0.00028347
0.000287796
0.00038594
0.000370669
0.000356266
0.000342597
0.000329538
0.000317047
0.000305175
0.000294037
0.000283773
0.00027452
0.000266393
0.000259474
0.000253801
0.000249372
0.000246146
0.000244049
0.000242984
0.00024284
0.000243502
0.000244855
0.000246796
0.000249232
0.000252083
0.00025531
0.000258887
0.000262784
0.000266977
0.000271453
0.00038434
0.000367341
0.000351433
0.000336534
0.00032246
0.000309065
0.000296313
0.000284277
0.000273092
0.000262914
0.000253883
0.00024611
0.000239664
0.000234563
0.000230779
0.000228245
0.000226859
0.000226502
0.000227042
0.00022835
0.000230308
0.000232806
0.000235754
0.000239088
0.000242781
0.000246807
0.000251136
0.000255754
0.000385482
0.000366618
0.000348856
0.000332394
0.000317079
0.000302673
0.00028901
0.00027607
0.000263953
0.000252816
0.000242825
0.000234124
0.000226813
0.000220941
0.000216501
0.000213437
0.000211649
0.000211008
0.000211372
0.000212593
0.000214533
0.000217068
0.000220093
0.000223521
0.000227321
0.000231465
0.000235922
0.000240674
0.000388324
0.000368661
0.00034889
0.000330455
0.000313533
0.000297889
0.000283225
0.000269367
0.000256319
0.000244213
0.000233227
0.000223535
0.000215276
0.000208536
0.000203338
0.000199645
0.000197363
0.000196362
0.000196486
0.00019757
0.000199456
0.000202
0.00020508
0.000208595
0.00021249
0.000216738
0.000221311
0.000226189
0.000391184
0.000372232
0.000351711
0.000331127
0.000312118
0.000294842
0.000278958
0.000264113
0.000250137
0.000237072
0.000225079
0.000214356
0.00020508
0.000197382
0.000191322
0.000186894
0.000184021
0.000182573
0.000182385
0.000183277
0.000185066
0.000187587
0.000190698
0.000194282
0.00019826
0.000202602
0.00020728
0.000212275
0.000375565
0.000355888
0.000334596
0.000313299
0.000293836
0.000276317
0.000260285
0.000245339
0.000231331
0.000218346
0.000206579
0.00019624
0.000187505
0.000180487
0.000175216
0.000171645
0.000169654
0.000169074
0.000169707
0.000171351
0.000173814
0.00017693
0.000180562
0.00018461
0.000189035
0.000193808
0.000198909
0.000378171
0.000359583
0.000339254
0.00031728
0.00029539
0.000275606
0.000257964
0.000241876
0.000226913
0.000212968
0.000200173
0.000188753
0.000178927
0.000170863
0.000164645
0.000160265
0.000157626
0.000156563
0.000156865
0.000158306
0.00016067
0.000163761
0.00016742
0.000171527
0.000176023
0.000180879
0.000186073
0.000343191
0.000322299
0.000299746
0.0002774
0.000257444
0.000239798
0.000223748
0.000208859
0.00019508
0.000182595
0.000171653
0.000162478
0.000155217
0.000149917
0.000146517
0.000144868
0.000144755
0.00014593
0.000148146
0.000151179
0.000154842
0.000158991
0.000163544
0.00016847
0.000173746
0.000345996
0.000326371
0.000305013
0.000281994
0.000259344
0.000239376
0.000221846
0.000205928
0.000191208
0.000177709
0.000165664
0.000155343
0.000146962
0.000140635
0.000136359
0.000134014
0.00013339
0.000134223
0.000136237
0.000139172
0.000142811
0.000146982
0.000151579
0.000156562
0.00016191
0.000329109
0.000309117
0.000287403
0.000264038
0.000241253
0.00022144
0.000204144
0.000188451
0.000174004
0.00016091
0.000149448
0.000139898
0.000132455
0.000127189
0.00012403
0.000122788
0.000123194
0.00012494
0.000127733
0.000131316
0.000135487
0.000140111
0.000145139
0.000150546
0.000330278
0.000311686
0.000291443
0.00026949
0.00024591
0.000223173
0.000203688
0.000186736
0.000171361
0.000157302
0.00014475
0.000134024
0.000125401
0.000119041
0.000114948
0.000112974
0.000112853
0.000114259
0.000116856
0.000120347
0.000124494
0.00012913
0.000134187
0.00013964
0.000329653
0.000312478
0.000293749
0.000273379
0.000251312
0.000227657
0.000205168
0.000186177
0.000169673
0.000154715
0.000141168
0.000129309
0.000119483
0.000111948
0.000106806
0.000103976
0.00010322
0.000104198
0.000106539
0.000109897
0.000113992
0.000118622
0.00012369
0.000129173
0.000311271
0.000294075
0.000275339
0.000254973
0.000232923
0.000209346
0.000187315
0.000168976
0.000153012
0.000138577
0.000125683
0.000114682
0.000105928
9.96374e-05
9.58289e-05
9.4318e-05
9.47705e-05
9.67825e-05
9.99591e-05
0.000103969
0.00010857
0.000113632
0.00011913
0.000307875
0.000292203
0.000275121
0.000256514
0.000236287
0.000214388
0.00019106
0.000169707
0.000152155
0.00013682
0.000123024
0.000110939
0.000100975
9.34694e-05
8.85681e-05
8.61765e-05
8.59923e-05
8.75918e-05
9.05295e-05
9.44163e-05
9.89625e-05
0.000104001
0.000109496
0.00028796
0.00027252
0.000255691
0.00023735
0.000217396
0.000195779
0.000172901
0.000152448
0.000135791
0.000121172
0.000108151
9.70495e-05
8.83107e-05
8.22258e-05
7.88289e-05
7.78869e-05
7.89776e-05
8.16094e-05
8.53297e-05
8.97912e-05
9.47835e-05
0.000100258
0.000281223
0.000267382
0.000252312
0.000235875
0.000217937
0.000198387
0.000177175
0.000154989
0.00013565
0.000119967
0.000106156
9.40651e-05
8.41412e-05
7.68231e-05
7.23094e-05
7.04828e-05
7.09559e-05
7.32038e-05
7.67068e-05
8.10501e-05
8.59718e-05
9.1404e-05
0.000271936
0.000259621
0.000246256
0.000231696
0.000215789
0.000198385
0.000179364
0.00015867
0.000137454
0.000119428
0.000104769
9.18774e-05
8.08972e-05
7.2359e-05
6.66475e-05
6.38119e-05
6.3548e-05
6.53219e-05
6.85485e-05
7.27358e-05
7.7561e-05
8.29229e-05
0.000249226
0.000237477
0.000224726
0.000210814
0.000195573
0.000178834
0.000160462
0.000140396
0.00012044
0.00010389
9.02913e-05
7.84582e-05
6.87958e-05
6.18582e-05
5.79064e-05
5.67802e-05
5.79774e-05
6.08582e-05
6.48453e-05
6.95436e-05
7.4805e-05
0.000236267
0.000226018
0.000214967
0.000202964
0.000189838
0.000175399
0.000159461
0.000141867
0.000122555
0.000104099
8.91279e-05
7.66396e-05
6.60424e-05
5.79288e-05
5.27918e-05
5.06824e-05
5.11894e-05
5.36433e-05
5.73774e-05
6.19108e-05
6.70411e-05
0.0002209
0.000212012
0.000202519
0.00019229
0.000181167
0.000168963
0.00015547
0.000140478
0.000123817
0.000105433
8.85897e-05
7.52128e-05
6.39365e-05
5.48008e-05
4.84765e-05
4.5284e-05
4.49823e-05
4.69171e-05
5.03375e-05
5.46625e-05
5.96261e-05
0.000195687
0.000187587
0.000178958
0.000169667
0.000159545
0.00014839
0.000135974
0.000122065
0.000106484
8.92717e-05
7.40651e-05
6.22371e-05
5.23492e-05
4.49363e-05
4.06078e-05
3.93844e-05
4.06986e-05
4.37361e-05
4.78038e-05
5.25581e-05
0.000177358
0.000170478
0.000163255
0.000155585
0.00014733
0.000138309
0.000128299
0.00011704
0.000104261
8.9748e-05
7.40874e-05
6.07114e-05
5.03773e-05
4.20988e-05
3.66591e-05
3.44236e-05
3.50114e-05
3.75886e-05
4.13448e-05
4.58404e-05
0.000157416
0.000151594
0.000145582
0.000139309
0.000132673
0.00012553
0.000117685
0.000108885
9.88236e-05
8.71648e-05
7.36348e-05
5.99266e-05
4.86658e-05
3.98306e-05
3.34101e-05
3.01198e-05
2.98814e-05
3.19157e-05
3.53024e-05
3.94833e-05
0.000136304
0.0001314
0.000126425
0.000121337
0.000116071
0.000110525
0.000104554
9.79519e-05
9.04389e-05
8.16669e-05
7.12583e-05
5.89379e-05
4.71558e-05
3.78983e-05
3.07681e-05
2.647e-05
2.53322e-05
2.67428e-05
2.9702e-05
3.35082e-05
0.000114503
0.000110411
0.00010633
0.000102243
9.81153e-05
9.38888e-05
8.94695e-05
8.4713e-05
7.94064e-05
7.32528e-05
6.58743e-05
5.68724e-05
4.60343e-05
3.59599e-05
2.85386e-05
2.34279e-05
2.13764e-05
2.20964e-05
2.45771e-05
2.79518e-05
9.25158e-05
8.91619e-05
8.58724e-05
8.2645e-05
7.94678e-05
7.6314e-05
7.31343e-05
6.98436e-05
6.63022e-05
6.22898e-05
5.74759e-05
5.14072e-05
4.35694e-05
3.44773e-05
2.64785e-05
2.08961e-05
1.80053e-05
1.7996e-05
1.9963e-05
2.28692e-05
7.08725e-05
6.82163e-05
6.56535e-05
6.31894e-05
6.08244e-05
5.85516e-05
5.63522e-05
5.41874e-05
5.19845e-05
4.96132e-05
4.68492e-05
4.33283e-05
3.85177e-05
3.18135e-05
2.44714e-05
1.87073e-05
1.517e-05
1.44404e-05
1.5881e-05
1.83091e-05
5.01689e-05
4.81915e-05
4.63182e-05
4.45558e-05
4.29091e-05
4.13798e-05
3.99655e-05
3.86553e-05
3.74229e-05
3.62127e-05
3.49137e-05
3.33181e-05
3.1062e-05
2.75912e-05
2.2319e-05
1.65203e-05
1.27402e-05
1.13925e-05
1.23248e-05
1.43209e-05
3.11683e-05
2.98567e-05
2.86431e-05
2.75321e-05
2.6528e-05
2.56342e-05
2.48539e-05
2.41883e-05
2.36341e-05
2.31767e-05
2.27777e-05
2.2353e-05
2.1723e-05
2.05406e-05
1.81916e-05
1.43582e-05
1.04734e-05
8.7536e-06
9.22514e-06
1.0549e-05
1.50589e-05
1.43732e-05
1.37593e-05
1.32185e-05
1.27527e-05
1.23647e-05
1.20581e-05
1.18376e-05
1.17078e-05
1.16656e-05
1.16941e-05
1.17677e-05
1.17858e-05
1.16659e-05
1.12522e-05
1.00856e-05
7.91101e-06
6.29711e-06
6.5043e-06
6.968e-06
3.97619e-06
3.77497e-06
3.60049e-06
3.45236e-06
3.33095e-06
3.23742e-06
3.17399e-06
3.14432e-06
3.15274e-06
3.18647e-06
3.20229e-06
3.2119e-06
3.2532e-06
3.33704e-06
3.45986e-06
3.61391e-06
3.80629e-06
3.96659e-06
4.19706e-06
4.59785e-06
1.02828e-07
9.35889e-08
8.55991e-08
7.87518e-08
7.29565e-08
6.81411e-08
6.42566e-08
6.12805e-08
5.92425e-08
5.90535e-08
6.26826e-08
6.84804e-08
7.67774e-08
8.85117e-08
1.04829e-07
1.28019e-07
1.70063e-07
2.74853e-07
8.46745e-07
2.80085e-06
0.00268819
0.00265448
0.00261966
0.0025836
0.00254617
0.00250725
0.0024667
0.00242443
0.00238033
0.00233433
0.00228635
0.00223634
0.00218429
0.00213019
0.00207406
0.00201593
0.00195589
0.00189403
0.00183047
0.00176536
0.00169887
0.0016312
0.00156254
0.00149314
0.00142324
0.00135309
0.00128297
0.00121313
0.00114386
0.0010754
0.00100804
0.000942013
0.00087756
0.0008149
0.000754231
0.00069573
0.000639545
0.000585796
0.00053457
0.000485919
0.000439858
0.000396361
0.000355359
0.000316737
0.00028033
0.000245923
0.00021325
0.000182
0.000151833
0.000122415
9.35141e-05
6.52382e-05
3.86666e-05
1.72518e-05
6.13779e-06
0.00268571
0.00265158
0.00261631
0.00257978
0.00254185
0.0025024
0.00246133
0.00241851
0.00237387
0.00232732
0.00227881
0.00222829
0.00217575
0.00212118
0.00206462
0.00200613
0.00194577
0.00188364
0.00181989
0.00175465
0.0016881
0.00162044
0.00155189
0.00148266
0.001413
0.00134317
0.00127343
0.00120404
0.00113526
0.00106736
0.00100058
0.000935161
0.000871337
0.000809316
0.000749283
0.000691404
0.000635818
0.000582631
0.000531922
0.000483733
0.000438069
0.000394895
0.000354135
0.000315666
0.000279321
0.000244882
0.000212086
0.000180631
0.000150199
0.000120506
9.1429e-05
6.33011e-05
3.75688e-05
1.76693e-05
7.4744e-06
0.00268308
0.00264851
0.00261279
0.00257577
0.00253733
0.00249736
0.00245575
0.00241239
0.0023672
0.00232011
0.00227106
0.00222003
0.002167
0.00211199
0.00205502
0.00199616
0.0019355
0.00187313
0.00180919
0.00174385
0.00167727
0.00160965
0.0015412
0.00147216
0.00140277
0.00133327
0.00126393
0.00119499
0.00112672
0.00105936
0.000993167
0.000928362
0.000865166
0.000803777
0.000744372
0.000687105
0.000632103
0.000579465
0.000529257
0.000481512
0.000436227
0.000393359
0.000352824
0.000314496
0.000278204
0.000243733
0.000210826
0.000179203
0.000148585
0.000118767
8.97657e-05
6.21266e-05
3.74443e-05
1.92739e-05
9.71469e-06
0.00268031
0.0026453
0.0026091
0.00257158
0.00253263
0.00249213
0.00244997
0.00240606
0.00236032
0.00231269
0.00226312
0.00221158
0.00215807
0.00210262
0.00204525
0.00198605
0.00192509
0.0018625
0.0017984
0.00173297
0.00166637
0.00159881
0.0015305
0.00146166
0.00139255
0.0013234
0.00125446
0.00118598
0.00111823
0.00105142
0.000985816
0.000921622
0.000859048
0.000798285
0.000739498
0.000682831
0.000628401
0.000576296
0.000526574
0.000479257
0.000434334
0.000391756
0.000351434
0.000313238
0.000276997
0.000242502
0.000209513
0.000177779
0.000147076
0.000117291