/*--------------------------------*- C++ -*----------------------------------*\
  =========                 |
  \\      /  F ield         | OpenFOAM: The Open Source CFD Toolbox
   \\    /   O peration     | Website:  https://openfoam.org
    \\  /    A nd           | Version:  10
     \\/     M anipulation  |
\*---------------------------------------------------------------------------*/
FoamFile
{
    format      ascii;
    class       volScalarField;
    location    "37000";
    object      yPlus;
}
// * * * * * * * * * * * * * * * * * * * * * * * * * * * * * * * * * * * * * //

dimensions      [0 0 0 0 0 0 0];

internalField   uniform 0;

boundaryField
{
    right
    {
        type            cyclic;
    }
    left
    {
        type            cyclic;
    }
    outerWall
    {
        type            calculated;
        value           nonuniform List<scalar> 0();
    }
    stirrerWall
    {
        type            calculated;
        value           nonuniform List<scalar> 
98
(
1.57095
1.49871
1.43331
1.37479
1.32324
1.27882
1.24184
1.21274
1.1924
1.1905
1.22653
1.282
1.35745
1.45749
1.58616
1.75284
2.02027
2.56836
4.50798
11.0594
16.5515
11.098
8.88553
9.68687
10.3032
10.475
10.3906
10.1727
9.87098
9.6047
9.39153
9.21647
9.08376
8.9851
8.9152
8.86877
8.84282
8.83574
8.8463
8.87347
8.91644
8.97458
9.04751
9.13503
9.23713
9.35408
9.48617
9.63424
9.79894
9.9811
10.1818
10.4023
10.6441
10.9088
11.1932
11.4832
11.4618
11.3
11.4242
11.5976
16.6438
16.8549
17.0695
17.2878
17.5101
17.7368
17.9682
18.2046
18.4463
18.6937
18.9474
19.2078
19.4755
19.7513
20.0354
20.3283
20.6316
20.9477
21.2782
21.6232
21.9837
22.3526
22.7448
23.1583
23.6166
24.0864
24.5814
25.1239
25.7177
26.3552
27.0199
27.7489
28.5955
29.6025
30.7823
32.0196
33.3692
35.1886
)
;
    }
    top
    {
        type            empty;
    }
    bottom
    {
        type            empty;
    }
    procBoundary0to1
    {
        type            processor;
        value           uniform 0;
    }
    procBoundary0to3
    {
        type            processor;
        value           uniform 0;
    }
}


// ************************************************************************* //
