/*--------------------------------*- C++ -*----------------------------------*\
  =========                 |
  \\      /  F ield         | OpenFOAM: The Open Source CFD Toolbox
   \\    /   O peration     | Website:  https://openfoam.org
    \\  /    A nd           | Version:  10
     \\/     M anipulation  |
\*---------------------------------------------------------------------------*/
FoamFile
{
    format      ascii;
    class       volScalarField;
    location    "48000";
    object      omega;
}
// * * * * * * * * * * * * * * * * * * * * * * * * * * * * * * * * * * * * * //

dimensions      [0 0 -1 0 0 0 0];

internalField   nonuniform List<scalar> 
17808
(
10445.9
4208.72
2406.55
1653.33
1247.86
996.836
826.857
704.393
612.073
540.039
482.296
434.991
395.54
362.144
333.514
308.702
286.995
267.847
250.833
235.617
221.929
209.553
198.31
188.051
178.655
170.017
162.051
154.683
147.847
141.49
135.563
130.025
124.84
119.975
115.404
111.099
107.04
103.207
99.5817
96.1484
92.8928
89.802
86.8643
84.0692
81.4071
78.8691
76.4473
74.1344
71.9236
69.8088
67.7843
65.8449
63.9858
62.2025
60.4908
58.847
57.2675
55.7491
54.2885
52.883
51.5299
50.2266
48.9709
47.7605
46.5936
45.4682
44.3825
43.3348
42.3236
41.3472
40.4043
39.4936
38.6138
37.7637
36.9422
36.1483
35.381
34.6393
33.9224
33.2294
32.5596
31.9122
31.2865
30.6818
30.0976
29.5332
28.9881
28.4618
27.9537
27.4635
26.9907
26.5349
10442.6
4209.33
2407.93
1654.61
1248.91
997.667
827.517
704.922
612.501
540.39
482.586
435.233
395.743
362.316
333.66
308.827
287.102
267.939
250.913
235.687
221.991
209.607
198.357
188.093
178.692
170.05
162.08
154.708
147.87
141.51
135.581
130.042
124.855
119.989
115.416
111.11
107.05
103.216
99.5899
96.1558
92.8995
89.8081
86.8699
84.0743
81.4117
78.8734
76.4512
74.138
71.9269
69.8118
67.7871
65.8475
63.9881
62.2046
60.4928
58.8489
57.2693
55.7507
54.29
52.8844
51.5312
50.2278
48.972
47.7616
46.5946
45.4692
44.3834
43.3357
42.3244
41.348
40.4051
39.4943
38.6144
37.7643
36.9428
36.1489
35.3815
34.6399
33.9229
33.2299
32.5601
31.9127
31.2869
30.6823
30.098
29.5336
28.9885
28.4622
27.9541
27.4639
26.9911
26.5352
10442.4
4209.07
2408.75
1655.33
1249.46
998.117
827.888
705.233
612.766
540.618
482.783
435.404
395.893
362.446
333.775
308.927
287.19
268.017
250.982
235.748
222.045
209.655
198.4
188.131
178.726
170.08
162.108
154.733
147.892
141.53
135.599
130.058
124.869
120.002
115.428
111.121
107.06
103.225
99.5979
96.1631
92.9061
89.8141
86.8754
84.0793
81.4163
78.8776
76.4551
74.1415
71.9301
69.8148
67.7898
65.85
63.9904
62.2067
60.4948
58.8507
57.2709
55.7522
54.2914
52.8857
51.5324
50.229
48.9731
47.7627
46.5956
45.4701
44.3843
43.3365
42.3252
41.3487
40.4057
39.4949
38.6151
37.7649
36.9434
36.1494
35.3821
34.6403
33.9234
33.2304
32.5605
31.9131
31.2873
30.6827
30.0984
29.534
28.9889
28.4625
27.9545
27.4642
26.9914
26.5356
10442.6
4208.63
2409.36
1655.86
1249.88
998.457
828.163
705.46
612.959
540.784
482.928
435.532
396.006
362.547
333.865
309.008
287.263
268.082
251.04
235.8
222.092
209.697
198.438
188.165
178.757
170.108
162.133
154.756
147.913
141.549
135.616
130.073
124.883
120.015
115.439
111.132
107.07
103.234
99.6059
96.1703
92.9127
89.8202
86.8809
84.0844
81.4209
78.8818
76.459
74.1451
71.9334
69.8178
67.7926
65.8525
63.9928
62.2089
60.4968
58.8525
57.2726
55.7538
54.2929
52.8871
51.5336
50.2301
48.9742
47.7637
46.5966
45.471
44.3852
43.3373
42.3259
41.3494
40.4064
39.4956
38.6157
37.7655
36.9439
36.15
35.3826
34.6408
33.9239
33.2308
32.561
31.9135
31.2878
30.6831
30.0988
29.5344
28.9892
28.4629
27.9548
27.4646
26.9917
26.5359
10443.1
4207.81
2409.63
1656.15
1250.16
998.697
828.365
705.63
613.104
540.911
483.04
435.632
396.095
362.628
333.937
309.074
287.322
268.136
251.089
235.844
222.132
209.734
198.471
188.196
178.784
170.134
162.156
154.777
147.932
141.566
135.632
130.088
124.897
120.027
115.45
111.142
107.079
103.242
99.6137
96.1775
92.9193
89.8262
86.8864
84.0894
81.4256
78.8861
76.4629
74.1487
71.9367
69.8209
67.7954
65.8551
63.9952
62.2111
60.4988
58.8544
57.2744
55.7554
54.2944
52.8885
51.5349
50.2314
48.9754
47.7648
46.5976
45.472
44.3861
43.3382
42.3267
41.3502
40.4071
39.4963
38.6163
37.7661
36.9445
36.1505
35.3831
34.6413
33.9243
33.2313
32.5614
31.9139
31.2882
30.6835
30.0992
29.5347
28.9896
28.4632
27.9551
27.4649
26.992
26.5362
10444
4206.84
2409.68
1656.29
1250.32
998.854
828.502
705.75
613.209
541.004
483.124
435.708
396.164
362.691
333.995
309.126
287.371
268.181
251.13
235.882
222.167
209.766
198.5
188.222
178.809
170.156
162.177
154.796
147.949
141.582
135.647
130.101
124.909
120.038
115.461
111.151
107.088
103.25
99.6212
96.1844
92.9257
89.8321
86.8918
84.0944
81.4302
78.8903
76.4668
74.1523
71.94
69.8239
67.7982
65.8577
63.9976
62.2134
60.5009
58.8564
57.2762
55.7571
54.2959
52.8899
51.5363
50.2326
48.9765
47.7659
46.5987
45.473
44.387
43.3391
42.3275
41.3509
40.4079
39.4969
38.617
37.7667
36.9451
36.1511
35.3836
34.6418
33.9248
33.2318
32.5618
31.9144
31.2886
30.6839
30.0996
29.5351
28.99
28.4636
27.9555
27.4652
26.9924
26.5365
10445.1
4205.91
2409.64
1656.35
1250.43
998.964
828.602
705.838
613.287
541.073
483.187
435.765
396.217
362.74
334.041
309.169
287.41
268.217
251.164
235.913
222.196
209.793
198.525
188.246
178.831
170.176
162.195
154.813
147.965
141.597
135.661
130.114
124.921
120.049
115.471
111.161
107.096
103.258
99.6285
96.1911
92.9319
89.8378
86.8971
84.0993
81.4347
78.8945
76.4707
74.1559
71.9434
69.827
67.8011
65.8604
64.0001
62.2157
60.503
58.8583
57.278
55.7587
54.2975
52.8913
51.5376
50.2339
48.9777
47.767
46.5997
45.474
44.3879
43.3399
42.3284
41.3517
40.4086
39.4976
38.6176
37.7673
36.9457
36.1516
35.3842
34.6423
33.9253
33.2322
32.5623
31.9148
31.289
30.6843
30.1
29.5355
28.9903
28.4639
27.9558
27.4656
26.9927
26.5368
10446.3
4205.05
2409.52
1656.37
1250.51
999.045
828.677
705.905
613.347
541.127
483.236
435.81
396.259
362.779
334.077
309.203
287.442
268.247
251.192
235.94
222.221
209.816
198.547
188.266
178.849
170.194
162.212
154.828
147.98
141.61
135.673
130.125
124.931
120.059
115.48
111.169
107.104
103.266
99.6354
96.1975
92.9378
89.8433
86.9023
84.1041
81.4391
78.8986
76.4745
74.1594
71.9467
69.8301
67.8039
65.863
64.0025
62.2179
60.5051
58.8603
57.2798
55.7605
54.2991
52.8928
51.539
50.2352
48.9789
47.7682
46.6008
45.475
44.3889
43.3409
42.3292
41.3525
40.4093
39.4984
38.6183
37.768
36.9463
36.1522
35.3847
34.6429
33.9258
33.2327
32.5628
31.9152
31.2894
30.6847
30.1004
29.5359
28.9907
28.4643
27.9562
27.4659
26.993
26.5372
10447.5
4204.26
2409.36
1656.36
1250.56
999.103
828.735
705.958
613.394
541.169
483.274
435.846
396.293
362.81
334.107
309.231
287.468
268.272
251.215
235.962
222.241
209.836
198.565
188.283
178.866
170.209
162.226
154.842
147.992
141.622
135.684
130.136
124.941
120.068
115.489
111.177
107.112
103.273
99.6419
96.2036
92.9435
89.8486
86.9072
84.1087
81.4434
78.9026
76.4782
74.1629
71.9499
69.8331
67.8067
65.8656
64.0049
62.2202
60.5072
58.8623
57.2817
55.7622
54.3007
52.8943
51.5404
50.2365
48.9802
47.7693
46.6019
45.476
44.3899
43.3418
42.3301
41.3533
40.4101
39.4991
38.619
37.7686
36.9469
36.1528
35.3853
34.6434
33.9263
33.2332
32.5632
31.9157
31.2899
30.6851
30.1008
29.5363
28.9911
28.4647
27.9565
27.4663
26.9934
26.5375
10448.7
4203.53
2409.16
1656.33
1250.58
999.142
828.778
705.998
613.43
541.203
483.305
435.875
396.319
362.836
334.131
309.254
287.49
268.293
251.235
235.98
222.259
209.852
198.581
188.298
178.88
170.223
162.239
154.854
148.004
141.633
135.694
130.145
124.95
120.077
115.496
111.185
107.119
103.279
99.648
96.2093
92.9489
89.8536
86.9119
84.1131
81.4475
78.9064
76.4818
74.1662
71.953
69.836
67.8095
65.8682
64.0073
62.2224
60.5093
58.8642
57.2835
55.7639
54.3023
52.8958
51.5418
50.2378
48.9814
47.7705
46.603
45.4771
44.3909
43.3427
42.331
41.3542
40.4109
39.4998
38.6197
37.7693
36.9475
36.1534
35.3858
34.6439
33.9268
33.2337
32.5637
31.9161
31.2903
30.6855
30.1012
29.5367
28.9915
28.465
27.9569
27.4666
26.9937
26.5378
10449.9
4202.88
2408.94
1656.27
1250.59
999.168
828.809
706.029
613.459
541.229
483.33
435.898
396.341
362.856
334.15
309.272
287.508
268.31
251.251
235.996
222.274
209.866
198.595
188.311
178.892
170.234
162.25
154.864
148.013
141.642
135.703
130.154
124.958
120.084
115.504
111.191
107.125
103.285
99.6536
96.2147
92.9539
89.8583
86.9163
84.1173
81.4515
78.9101
76.4853
74.1695
71.9561
69.8389
67.8122
65.8707
64.0097
62.2246
60.5114
58.8661
57.2853
55.7656
54.3039
52.8973
51.5432
50.2391
48.9827
47.7717
46.6042
45.4782
44.3919
43.3436
42.3319
41.355
40.4117
39.5006
38.6204
37.7699
36.9482
36.154
35.3864
34.6445
33.9274
33.2342
32.5642
31.9166
31.2907
30.6859
30.1016
29.5371
28.9918
28.4654
27.9573
27.467
26.994
26.5381
10451
4202.29
2408.71
1656.21
1250.58
999.182
828.831
706.052
613.481
541.25
483.349
435.916
396.358
362.873
334.166
309.288
287.523
268.324
251.265
236.009
222.287
209.879
198.606
188.322
178.903
170.244
162.26
154.874
148.022
141.651
135.711
130.161
124.965
120.091
115.51
111.197
107.131
103.291
99.6589
96.2196
92.9586
89.8628
86.9205
84.1212
81.4552
78.9136
76.4886
74.1726
71.959
69.8416
67.8147
65.8732
64.012
62.2268
60.5134
58.8681
57.2871
55.7673
54.3054
52.8988
51.5446
50.2405
48.9839
47.7729
46.6053
45.4792
44.3929
43.3446
42.3327
41.3559
40.4125
39.5013
38.6211
37.7706
36.9488
36.1546
35.387
34.645
33.9279
33.2347
32.5647
31.9171
31.2912
30.6864
30.102
29.5375
28.9922
28.4658
27.9576
27.4673
26.9944
26.5385
10452.1
4201.76
2408.47
1656.14
1250.56
999.188
828.845
706.069
613.499
541.267
483.365
435.931
396.373
362.886
334.179
309.3
287.535
268.336
251.277
236.02
222.297
209.889
198.616
188.332
178.912
170.253
162.268
154.882
148.03
141.658
135.718
130.168
124.972
120.097
115.516
111.203
107.136
103.296
99.6637
96.2242
92.9629
89.8669
86.9244
84.1249
81.4587
78.917
76.4917
74.1756
71.9618
69.8443
67.8172
65.8755
64.0142
62.2289
60.5154
58.8699
57.2889
55.7689
54.307
52.9003
51.546
50.2418
48.9852
47.7741
46.6064
45.4803
44.3939
43.3455
42.3336
41.3567
40.4133
39.5021
38.6218
37.7713
36.9495
36.1552
35.3876
34.6456
33.9284
33.2352
32.5652
31.9175
31.2916
30.6868
30.1024
29.5379
28.9926
28.4662
27.958
27.4677
26.9947
26.5388
10453
4201.3
2408.24
1656.06
1250.54
999.186
828.853
706.081
613.511
541.279
483.377
435.942
396.384
362.898
334.19
309.311
287.545
268.346
251.286
236.03
222.307
209.898
198.625
188.34
178.92
170.261
162.275
154.889
148.037
141.665
135.724
130.174
124.978
120.103
115.521
111.208
107.141
103.3
99.6681
96.2284
92.9669
89.8707
86.9281
84.1284
81.462
78.9201
76.4947
74.1784
71.9645
69.8468
67.8196
65.8778
64.0164
62.2309
60.5173
58.8717
57.2906
55.7705
54.3085
52.9017
51.5474
50.2431
48.9864
47.7752
46.6075
45.4813
44.3949
43.3465
42.3345
41.3575
40.4141
39.5028
38.6225
37.772
36.9501
36.1558
35.3882
34.6462
33.929
33.2357
32.5657
31.918
31.2921
30.6872
30.1028
29.5383
28.993
28.4666
27.9584
27.468
26.9951
26.5391
10453.9
4200.89
2408.01
1655.97
1250.51
999.179
828.856
706.089
613.521
541.289
483.386
435.952
396.393
362.906
334.199
309.32
287.554
268.354
251.295
236.038
222.314
209.905
198.632
188.347
178.927
170.268
162.282
154.895
148.043
141.671
135.73
130.18
124.983
120.108
115.526
111.213
107.146
103.305
99.6722
96.2323
92.9707
89.8743
86.9315
84.1316
81.4651
78.923
76.4975
74.181
71.967
69.8492
67.8219
65.88
64.0184
62.2329
60.5192
58.8735
57.2922
55.7721
54.31
52.9031
51.5487
50.2443
48.9876
47.7764
46.6086
45.4824
44.3959
43.3474
42.3354
41.3584
40.4149
39.5036
38.6233
37.7727
36.9508
36.1565
35.3888
34.6467
33.9295
33.2362
32.5662
31.9185
31.2926
30.6877
30.1033
29.5387
28.9934
28.4669
27.9588
27.4684
26.9954
26.5395
10454.7
4200.52
2407.79
1655.89
1250.47
999.167
828.855
706.092
613.526
541.295
483.393
435.959
396.4
362.913
334.206
309.327
287.561
268.361
251.302
236.045
222.321
209.912
198.639
188.354
178.933
170.274
162.288
154.901
148.048
141.676
135.735
130.184
124.988
120.112
115.53
111.217
107.15
103.309
99.6759
96.2359
92.9741
89.8775
86.9346
84.1346
81.4679
78.9258
76.5001
74.1835
71.9694
69.8515
67.8241
65.882
64.0204
62.2348
60.521
58.8752
57.2938
55.7736
54.3115
52.9045
51.55
50.2456
48.9888
47.7775
46.6097
45.4834
44.3969
43.3484
42.3363
41.3592
40.4157
39.5044
38.624
37.7734
36.9514
36.1571
35.3894
34.6473
33.9301
33.2368
32.5667
31.919
31.293
30.6881
30.1037
29.5391
28.9938
28.4674
27.9592
27.4688
26.9958
26.5399
10455.5
4200.19
2407.58
1655.8
1250.44
999.151
828.85
706.093
613.53
541.3
483.398
435.964
396.405
362.919
334.212
309.332
287.567
268.367
251.307
236.05
222.327
209.918
198.644
188.359
178.938
170.279
162.293
154.905
148.053
141.68
135.739
130.189
124.992
120.116
115.534
111.221
107.153
103.312
99.6793
96.2391
92.9772
89.8806
86.9375
84.1374
81.4706
78.9283
76.5025
74.1859
71.9716
69.8536
67.8262
65.884
64.0223
62.2365
60.5227
58.8768
57.2954
55.7751
54.3129
52.9058
51.5513
50.2468
48.99
47.7786
46.6108
45.4844
44.3978
43.3493
42.3372
41.3601
40.4165
39.5051
38.6247
37.7741
36.9521
36.1577
35.39
34.6479
33.9306
33.2373
32.5672
31.9195
31.2935
30.6886
30.1041
29.5395
28.9943
28.4678
10456.2
4199.91
2407.39
1655.71
1250.4
999.133
828.843
706.091
613.531
541.302
483.401
435.968
396.409
362.923
334.216
309.337
287.571
268.372
251.312
236.055
222.331
209.922
198.649
188.364
178.943
170.283
162.297
154.91
148.057
141.684
135.743
130.193
124.995
120.12
115.538
111.224
107.157
103.315
99.6824
96.2421
92.9801
89.8833
86.9402
84.14
81.4731
78.9307
76.5048
74.1881
71.9738
69.8557
67.8281
65.8858
64.024
62.2382
60.5243
58.8784
57.2969
55.7765
54.3142
52.9071
51.5526
50.248
48.9911
47.7797
46.6118
45.4854
44.3988
43.3502
42.3381
41.3609
40.4173
39.5059
38.6254
37.7747
36.9527
36.1583
35.3906
34.6485
33.9312
33.2378
32.5677
31.9199
31.294
30.689
30.1046
29.54
28.9947
28.4682
10456.8
4199.65
2407.2
1655.63
1250.35
999.113
828.833
706.087
613.529
541.303
483.403
435.97
396.412
362.926
334.219
309.34
287.575
268.376
251.316
236.059
222.336
209.926
198.653
188.368
178.947
170.287
162.301
154.913
148.061
141.688
135.747
130.196
124.999
120.123
115.541
111.227
107.16
103.318
99.6852
96.2448
92.9827
89.8859
86.9426
84.1423
81.4754
78.9329
76.5069
74.1901
71.9757
69.8575
67.8299
65.8876
64.0257
62.2399
60.5258
58.8798
57.2983
55.7779
54.3155
52.9084
51.5538
50.2491
48.9922
47.7808
46.6128
45.4864
44.3997
43.3511
42.3389
41.3617
40.4181
39.5066
38.6261
37.7754
36.9534
36.159
35.3911
34.649
33.9317
33.2383
32.5682
31.9204
31.2944
30.6895
30.105
29.5405
28.9952
28.4687
10457.3
4199.42
2407.03
1655.54
1250.31
999.091
828.821
706.081
613.526
541.302
483.403
435.971
396.414
362.928
334.222
309.343
287.578
268.379
251.319
236.063
222.339
209.93
198.656
188.371
178.95
170.29
162.304
154.917
148.064
141.691
135.75
130.199
125.002
120.126
115.544
111.23
107.162
103.321
99.6877
96.2473
92.9851
89.8882
86.9449
84.1445
81.4775
78.9349
76.5089
74.192
71.9776
69.8593
67.8316
65.8892
64.0273
62.2414
60.5273
58.8812
57.2996
55.7792
54.3168
52.9096
51.5549
50.2503
48.9933
47.7818
46.6138
45.4874
44.4006
43.352
42.3398
41.3625
40.4188
39.5073
38.6268
37.7761
36.954
36.1596
35.3917
34.6496
33.9322
33.2389
32.5687
31.9209
31.2949
30.69
30.1056
10457.8
4199.22
2406.87
1655.46
1250.27
999.068
828.808
706.073
613.522
541.299
483.402
435.971
396.414
362.929
334.223
309.345
287.58
268.381
251.322
236.065
222.342
209.933
198.659
188.374
178.953
170.293
162.307
154.92
148.067
141.694
135.753
130.202
125.004
120.129
115.546
111.232
107.165
103.323
99.69
96.2495
92.9873
89.8903
86.9469
84.1465
81.4794
78.9368
76.5107
74.1938
71.9793
69.861
67.8332
65.8908
64.0288
62.2428
60.5287
58.8826
57.3009
55.7804
54.318
52.9107
51.556
50.2513
48.9943
47.7828
46.6148
45.4883
44.4015
43.3528
42.3406
41.3633
40.4196
39.5081
38.6275
37.7768
36.9547
36.1602
35.3923
34.6502
33.9328
33.2394
32.5692
31.9214
31.2954
30.6905
30.1061
10458.3
4199.04
2406.72
1655.38
1250.23
999.045
828.794
706.064
613.516
541.296
483.4
435.969
396.414
362.929
334.224
309.346
287.581
268.383
251.324
236.067
222.344
209.935
198.662
188.376
178.956
170.296
162.31
154.922
148.069
141.696
135.755
130.204
125.007
120.131
115.549
111.235
107.167
103.325
99.6921
96.2515
92.9892
89.8922
86.9488
84.1483
81.4812
78.9386
76.5124
74.1954
71.9809
69.8625
67.8347
65.8922
64.0302
62.2442
60.53
58.8838
57.3021
55.7816
54.3191
52.9118
51.5571
50.2523
48.9953
47.7838
46.6157
45.4892
44.4024
43.3536
42.3414
41.3641
40.4203
39.5088
38.6282
37.7774
36.9553
36.1608
35.3929
34.6507
33.9333
33.2399
32.5697
31.9219
31.2959
30.691
30.1065
10458.7
4198.88
2406.58
1655.31
1250.19
999.021
828.78
706.054
613.51
541.291
483.397
435.967
396.412
362.929
334.224
309.346
287.582
268.384
251.325
236.069
222.346
209.937
198.664
188.378
178.958
170.298
162.312
154.924
148.072
141.699
135.757
130.206
125.009
120.133
115.551
111.237
107.169
103.327
99.694
96.2534
92.991
89.894
86.9505
84.15
81.4828
78.9402
76.514
74.1969
71.9823
69.8639
67.8361
65.8936
64.0315
62.2454
60.5312
58.885
57.3033
55.7827
54.3202
52.9129
51.5581
50.2533
48.9962
47.7847
46.6166
45.49
44.4032
43.3544
42.3421
41.3648
40.421
39.5095
38.6289
37.778
36.9559
36.1614
35.3935
34.6513
33.9339
33.2404
32.5702
31.9224
31.2964
30.6914
30.107
10459.1
4198.73
2406.46
1655.23
1250.15
998.998
828.764
706.044
613.502
541.286
483.393
435.965
396.41
362.928
334.223
309.346
287.582
268.384
251.326
236.07
222.347
209.938
198.665
188.38
178.959
170.3
162.314
154.926
148.073
141.7
135.759
130.208
125.011
120.135
115.552
111.238
107.171
103.329
99.6957
96.2551
92.9927
89.8956
86.9521
84.1516
81.4843
78.9416
76.5154
74.1983
71.9837
69.8653
67.8374
65.8948
64.0327
62.2466
60.5324
58.8861
57.3044
55.7837
54.3212
52.9139
51.559
50.2542
48.9971
47.7856
46.6174
45.4908
44.404
43.3552
42.3429
41.3655
40.4217
39.5101
38.6295
37.7787
36.9565
36.1619
35.394
34.6518
33.9344
33.2409
32.5707
31.9229
31.2969
30.6919
30.1075
10459.5
4198.59
2406.34
1655.17
1250.11
998.974
828.749
706.033
613.494
541.28
483.388
435.961
396.408
362.926
334.222
309.345
287.582
268.385
251.326
236.071
222.348
209.939
198.666
188.381
178.961
170.301
162.315
154.928
148.075
141.702
135.761
130.21
125.012
120.137
115.554
111.24
107.172
103.33
99.6972
96.2566
92.9942
89.8971
86.9535
84.153
81.4857
78.943
76.5167
74.1996
71.9849
69.8665
67.8386
65.896
64.0338
62.2477
60.5334
58.8872
57.3054
55.7847
54.3222
52.9148
51.5599
50.2551
48.998
47.7864
46.6182
45.4916
44.4048
43.356
42.3436
41.3662
40.4224
39.5108
38.6301
37.7793
36.9571
36.1625
35.3946
34.6523
33.9349
33.2414
32.5712
31.9234
31.2973
30.6924
30.1079
10459.8
4198.47
2406.23
1655.1
1250.07
998.952
828.734
706.022
613.486
541.273
483.383
435.957
396.405
362.923
334.22
309.344
287.581
268.384
251.326
236.071
222.348
209.94
198.667
188.382
178.962
170.302
162.316
154.929
148.076
141.703
135.762
130.211
125.014
120.138
115.556
111.241
107.173
103.332
99.6986
96.2579
92.9955
89.8984
86.9548
84.1542
81.487
78.9442
76.5179
74.2008
71.9861
69.8676
67.8397
65.8971
64.0349
62.2487
60.5344
58.8881
57.3063
55.7857
54.3231
52.9157
51.5608
50.256
48.9988
47.7872
46.619
45.4924
44.4055
43.3567
42.3443
41.3669
40.423
39.5114
38.6307
37.7799
36.9576
36.1631
35.3951
34.6529
33.9354
33.2419
32.5717
31.9239
31.2978
30.6928
30.1084
10460.1
4198.35
2406.13
1655.04
1250.04
998.93
828.719
706.011
613.477
541.266
483.377
435.952
396.401
362.92
334.218
309.343
287.58
268.383
251.326
236.071
222.348
209.94
198.668
188.383
178.963
170.303
162.317
154.93
148.078
141.705
135.763
130.212
125.015
120.139
115.557
111.243
107.175
103.333
99.6998
96.2591
92.9967
89.8996
86.956
84.1554
81.4881
78.9453
76.519
74.2019
71.9872
69.8687
67.8407
65.8981
64.0359
62.2497
60.5354
58.8891
57.3072
55.7865
54.3239
52.9165
51.5616
50.2568
48.9996
47.7879
46.6198
45.4931
44.4062
43.3574
42.345
41.3675
40.4237
39.512
38.6313
37.7804
36.9582
36.1636
35.3956
34.6534
33.9359
33.2424
32.5722
31.9243
31.2983
30.6933
30.1088
10460.4
4198.25
2406.04
1654.98
1250
998.908
828.704
706
613.468
541.259
483.371
435.947
396.397
362.917
334.215
309.34
287.579
268.382
251.325
236.07
222.348
209.941
198.668
188.384
178.963
170.304
162.318
154.931
148.079
141.706
135.764
130.213
125.016
120.14
115.558
111.244
107.176
103.334
99.7009
96.2602
92.9978
89.9006
86.9571
84.1565
81.4891
78.9464
76.52
74.2029
71.9881
69.8696
67.8416
65.899
64.0368
62.2506
60.5362
58.8899
57.308
55.7873
54.3247
52.9173
51.5624
50.2575
49.0003
47.7887
46.6205
45.4938
44.4069
43.358
42.3456
41.3682
40.4243
39.5126
38.6319
37.781
36.9587
36.1641
35.3961
34.6539
33.9364
33.2429
32.5726
31.9248
31.2987
30.6937
30.1092
10460.7
4198.15
2405.96
1654.93
1249.97
998.888
828.69
705.989
613.459
541.251
483.364
435.942
396.392
362.913
334.212
309.338
287.577
268.381
251.324
236.07
222.348
209.94
198.668
188.384
178.964
170.305
162.319
154.932
148.079
141.706
135.765
130.214
125.017
120.141
115.559
111.245
107.177
103.335
99.7019
96.2612
92.9988
89.9016
86.958
84.1574
81.4901
78.9473
76.521
74.2038
71.989
69.8705
67.8425
65.8998
64.0376
62.2514
60.537
58.8907
57.3088
55.7881
54.3254
52.918
51.5631
50.2582
49.001
47.7893
46.6211
45.4944
44.4075
43.3586
42.3462
41.3688
40.4248
39.5132
38.6324
37.7815
36.9593
36.1646
35.3966
34.6543
33.9369
33.2434
32.5731
31.9252
31.2992
30.6942
30.1096
10460.9
4198.05
2405.88
1654.88
1249.94
998.869
828.676
705.978
613.45
541.243
483.358
435.936
396.387
362.909
334.208
309.335
287.574
268.379
251.323
236.069
222.347
209.94
198.668
188.384
178.964
170.305
162.319
154.932
148.08
141.707
135.766
130.215
125.018
120.142
115.56
111.246
107.178
103.336
99.7027
96.2621
92.9996
89.9025
86.9589
84.1583
81.4909
78.9481
76.5218
74.2046
71.9898
69.8713
67.8433
65.9006
64.0384
62.2521
60.5378
58.8914
57.3095
55.7888
54.3261
52.9187
51.5638
50.2589
49.0017
47.79
46.6217
45.4951
44.4081
43.3592
42.3468
41.3693
40.4254
39.5137
38.633
37.782
36.9598
36.1651
35.3971
34.6548
33.9373
33.2438
32.5735
31.9257
31.2996
30.6946
30.11
10461.2
4197.95
2405.81
1654.83
1249.91
998.85
828.663
705.968
613.441
541.236
483.351
435.93
396.382
362.904
334.205
309.332
287.572
268.377
251.321
236.067
222.346
209.939
198.668
188.383
178.964
170.305
162.319
154.932
148.08
141.708
135.767
130.216
125.018
120.143
115.56
111.246
107.178
103.337
99.7035
96.2628
93.0004
89.9032
86.9597
84.159
81.4917
78.9489
76.5225
74.2054
71.9906
69.872
67.844
65.9013
64.0391
62.2528
60.5385
58.8921
57.3102
55.7895
54.3268
52.9193
51.5644
50.2595
49.0023
47.7906
46.6223
45.4956
44.4087
43.3598
42.3473
41.3699
40.4259
39.5142
38.6335
37.7825
36.9602
36.1656
35.3976
34.6553
33.9378
33.2443
32.574
31.9261
31.3
30.695
30.1104
10461.4
4197.87
2405.74
1654.79
1249.88
998.833
828.651
705.958
613.433
541.228
483.344
435.924
396.377
362.9
334.201
309.328
287.569
268.374
251.319
236.066
222.345
209.938
198.667
188.383
178.963
170.305
162.319
154.933
148.08
141.708
135.767
130.216
125.019
120.143
115.561
111.247
107.179
103.337
99.7041
96.2635
93.0011
89.9039
86.9603
84.1597
81.4924
78.9496
76.5232
74.206
71.9912
69.8727
67.8447
65.902
64.0397
62.2535
60.5391
58.8927
57.3108
55.7901
54.3274
52.9199
51.565
50.2601
49.0028
47.7911
46.6229
45.4962
44.4092
43.3603
42.3479
41.3704
40.4264
39.5147
38.634
37.783
36.9607
36.1661
35.398
34.6557
33.9382
33.2447
32.5744
31.9265
31.3004
30.6954
30.1108
10461.6
4197.78
2405.67
1654.74
1249.86
998.816
828.639
705.948
613.425
541.22
483.337
435.918
396.371
362.895
334.196
309.325
287.566
268.372
251.317
236.064
222.343
209.937
198.666
188.382
178.963
170.304
162.319
154.933
148.081
141.708
135.767
130.216
125.019
120.144
115.561
111.247
107.18
103.338
99.7047
96.2641
93.0016
89.9045
86.9609
84.1603
81.493
78.9502
76.5238
74.2066
71.9918
69.8733
67.8453
65.9026
64.0403
62.2541
60.5397
58.8933
57.3114
55.7906
54.3279
52.9205
51.5655
50.2606
49.0034
47.7917
46.6234
45.4967
44.4097
43.3608
42.3484
41.3709
40.4269
39.5152
38.6344
37.7834
36.9612
36.1665
35.3985
34.6561
33.9386
33.2451
32.5748
31.9269
31.3008
30.6958
30.1112
10461.8
4197.69
2405.61
1654.7
1249.83
998.8
828.628
705.939
613.417
541.213
483.33
435.911
396.365
362.89
334.192
309.321
287.562
268.369
251.314
236.062
222.342
209.936
198.665
188.381
178.962
170.304
162.319
154.932
148.08
141.708
135.767
130.217
125.019
120.144
115.562
111.248
107.18
103.338
99.7051
96.2645
93.0021
89.905
86.9614
84.1608
81.4935
78.9507
76.5244
74.2072
71.9924
69.8738
67.8458
65.9031
64.0408
62.2546
60.5402
58.8938
57.3119
55.7911
54.3284
52.921
51.566
50.2611
49.0039
47.7922
46.6239
45.4972
44.4102
43.3613
42.3488
41.3713
40.4274
39.5156
38.6349
37.7839
36.9616
36.1669
35.3989
34.6566
33.939
33.2455
32.5752
31.9273
31.3012
30.6962
30.1116
10462
4197.61
2405.55
1654.66
1249.81
998.786
828.617
705.931
613.409
541.206
483.324
435.905
396.36
362.884
334.187
309.316
287.558
268.365
251.311
236.059
222.34
209.934
198.663
188.38
178.961
170.303
162.318
154.932
148.08
141.708
135.767
130.217
125.02
120.144
115.562
111.248
107.18
103.339
99.7055
96.2649
93.0025
89.9054
86.9619
84.1613
81.494
78.9511
76.5248
74.2076
71.9929
69.8743
67.8463
65.9036
64.0413
62.2551
60.5407
58.8943
57.3124
55.7916
54.3289
52.9214
51.5665
50.2616
49.0043
47.7926
46.6243
45.4976
44.4107
43.3617
42.3493
41.3717
40.4278
39.516
38.6353
37.7843
36.962
36.1673
35.3993
34.6569
33.9394
33.2459
32.5756
31.9277
31.3016
30.6965
30.1119
10462.2
4197.52
2405.49
1654.63
1249.79
998.771
828.608
705.923
613.402
541.2
483.318
435.899
396.354
362.879
334.182
309.312
287.555
268.362
251.308
236.057
222.337
209.932
198.662
188.379
178.96
170.302
162.318
154.931
148.08
141.708
135.767
130.217
125.02
120.144
115.562
111.248
107.18
103.339
99.7058
96.2652
93.0029
89.9058
86.9622
84.1616
81.4943
78.9515
76.5252
74.208
71.9933
69.8747
67.8467
65.904
64.0417
62.2555
60.5411
58.8947
57.3128
55.792
54.3293
52.9218
51.5669
50.262
49.0047
47.793
46.6248
45.498
44.4111
43.3621
42.3497
41.3721
40.4282
39.5164
38.6357
37.7847
36.9624
36.1677
35.3997
34.6573
33.9398
33.2463
32.576
31.9281
31.302
30.697
10462.4
4197.44
2405.44
1654.59
1249.76
998.758
828.598
705.916
613.396
541.193
483.311
435.893
396.348
362.874
334.177
309.308
287.551
268.359
251.305
236.054
222.335
209.93
198.66
188.378
178.959
170.301
162.317
154.931
148.079
141.707
135.767
130.216
125.019
120.144
115.562
111.248
107.181
103.339
99.706
96.2654
93.0031
89.906
86.9625
84.1619
81.4947
78.9519
76.5256
74.2084
71.9936
69.8751
67.8471
65.9044
64.0421
62.2558
60.5414
58.8951
57.3132
55.7924
54.3297
52.9222
51.5673
50.2624
49.0051
47.7934
46.6251
45.4984
44.4114
43.3625
42.35
41.3725
40.4285
39.5168
38.636
37.785
36.9627
36.1681
35.4
34.6577
33.9402
33.2466
32.5763
31.9284
31.3023
30.6973
10462.6
4197.35
2405.38
1654.55
1249.74
998.745
828.59
705.909
613.39
541.188
483.306
435.887
396.343
362.868
334.172
309.303
287.546
268.355
251.302
236.051
222.333
209.928
198.658
188.376
178.958
170.3
162.316
154.93
148.079
141.707
135.766
130.216
125.019
120.144
115.562
111.248
107.181
103.339
99.7061
96.2656
93.0033
89.9062
86.9627
84.1622
81.4949
78.9521
76.5258
74.2087
71.9939
69.8754
67.8474
65.9047
64.0424
62.2562
60.5418
58.8954
57.3135
55.7927
54.33
52.9226
51.5676
50.2627
49.0055
47.7938
46.6255
45.4988
44.4118
43.3629
42.3504
41.3729
40.4289
39.5171
38.6364
37.7854
36.9631
36.1684
35.4004
34.658
33.9405
33.247
32.5767
31.9288
31.3027
30.6976
10462.8
4197.26
2405.33
1654.52
1249.72
998.732
828.581
705.903
613.384
541.182
483.3
435.882
396.337
362.863
334.167
309.298
287.542
268.351
251.299
236.048
222.33
209.925
198.656
188.374
178.956
170.299
162.315
154.929
148.078
141.706
135.766
130.216
125.019
120.144
115.562
111.248
107.18
103.339
99.7061
96.2656
93.0034
89.9063
86.9629
84.1623
81.4951
78.9523
76.5261
74.2089
71.9942
69.8756
67.8476
65.9049
64.0427
62.2564
60.5421
58.8957
57.3138
55.793
54.3303
52.9229
51.5679
50.263
49.0058
47.7941
46.6258
45.4991
44.4121
43.3632
42.3507
41.3732
40.4292
39.5175
38.6367
37.7857
36.9634
36.1687
35.4007
34.6583
33.9408
33.2473
32.577
31.9291
31.303
30.6979
10463
4197.18
2405.27
1654.49
1249.7
998.72
828.574
705.897
613.379
541.177
483.295
435.876
396.332
362.858
334.162
309.294
287.538
268.347
251.295
236.045
222.327
209.923
198.654
188.372
178.954
170.297
162.313
154.928
148.077
141.705
135.765
130.215
125.018
120.143
115.561
111.248
107.18
103.339
99.706
96.2656
93.0034
89.9064
86.963
84.1624
81.4952
78.9525
76.5262
74.2091
71.9943
69.8758
67.8478
65.9052
64.0429
62.2567
60.5423
58.8959
57.314
55.7933
54.3306
52.9231
51.5682
50.2633
49.0061
47.7944
46.6261
45.4994
44.4124
43.3635
42.351
41.3735
40.4295
39.5178
38.637
37.786
36.9637
36.169
35.401
34.6586
33.9411
33.2476
32.5773
31.9294
31.3033
30.6982
10463.1
4197.09
2405.22
1654.45
1249.68
998.708
828.566
705.892
613.374
541.172
483.29
435.871
396.327
362.853
334.157
309.289
287.533
268.343
251.291
236.041
222.324
209.92
198.651
188.37
178.953
170.296
162.312
154.927
148.076
141.704
135.764
130.214
125.018
120.143
115.561
111.248
107.18
103.339
99.7059
96.2655
93.0033
89.9064
86.963
84.1625
81.4953
78.9526
76.5263
74.2092
71.9945
69.876
67.848
65.9053
64.0431
62.2569
60.5425
58.8961
57.3142
55.7935
54.3308
52.9234
51.5684
50.2635
49.0063
47.7946
46.6263
45.4996
44.4127
43.3637
42.3513
41.3737
40.4298
39.518
38.6373
37.7863
36.964
36.1693
35.4013
34.6589
33.9414
33.2479
32.5776
31.9297
31.3036
30.6985
10463.3
4197
2405.16
1654.42
1249.66
998.696
828.559
705.887
613.37
541.168
483.285
435.867
396.322
362.848
334.152
309.284
287.529
268.339
251.287
236.038
222.321
209.917
198.649
188.368
178.951
170.294
162.31
154.925
148.075
141.703
135.763
130.214
125.017
120.142
115.561
111.247
107.18
103.339
99.7057
96.2654
93.0032
89.9063
86.9629
84.1625
81.4953
78.9526
76.5264
74.2093
71.9946
69.8761
67.8481
65.9054
64.0432
62.257
60.5426
58.8963
57.3144
55.7937
54.331
52.9236
51.5686
50.2637
49.0065
47.7948
46.6266
45.4999
44.4129
43.364
42.3515
41.374
40.43
39.5183
38.6375
37.7865
36.9642
36.1695
35.4015
34.6592
33.9417
33.2482
32.5778
31.93
31.3038
30.6988
10463.5
4196.9
2405.11
1654.38
1249.64
998.684
828.552
705.882
613.366
541.164
483.281
435.862
396.317
362.843
334.148
309.28
287.524
268.334
251.283
236.034
222.317
209.914
198.646
188.365
178.948
170.292
162.309
154.924
148.073
141.702
135.762
130.213
125.016
120.142