/*--------------------------------*- C++ -*----------------------------------*\
  =========                 |
  \\      /  F ield         | OpenFOAM: The Open Source CFD Toolbox
   \\    /   O peration     | Website:  https://openfoam.org
    \\  /    A nd           | Version:  10
     \\/     M anipulation  |
\*---------------------------------------------------------------------------*/
FoamFile
{
    format      ascii;
    class       volScalarField;
    location    "4000";
    object      k;
}
// * * * * * * * * * * * * * * * * * * * * * * * * * * * * * * * * * * * * * //

dimensions      [0 2 -2 0 0 0 0];

internalField   nonuniform List<scalar> 
17922
(
0.0126755
0.0123213
0.0119781
0.0116454
0.0113227
0.0110094
0.0107049
0.0104089
0.010121
0.00984085
0.00956806
0.00930231
0.00904331
0.00879074
0.00854433
0.00830382
0.00806895
0.00783952
0.00761529
0.00739606
0.00718164
0.00697183
0.00676644
0.00656532
0.0063683
0.0061752
0.00598578
0.0057997
0.00561787
0.00544243
0.00527426
0.00511276
0.00495742
0.00480778
0.00466344
0.00452402
0.0043892
0.00425868
0.00413218
0.00400947
0.00389031
0.00377452
0.0036619
0.00355229
0.00344554
0.0033415
0.00324006
0.00314109
0.0030445
0.00295019
0.00285808
0.00276811
0.00268021
0.00259433
0.00251042
0.00242844
0.00234837
0.00227018
0.00219386
0.0021194
0.0020468
0.00197606
0.00190719
0.0018402
0.0017751
0.0017119
0.00165063
0.00159128
0.00153388
0.00147841
0.00142488
0.00137328
0.00132359
0.00127578
0.00122984
0.00118572
0.00114338
0.00110279
0.00106389
0.00102665
0.000991014
0.000956926
0.000924337
0.000893192
0.000863436
0.000835013
0.000807867
0.000781936
0.000757163
0.000733482
0.000710832
0.000689147
0.000668376
0.012662
0.0123081
0.011965
0.0116323
0.0113096
0.0109963
0.010692
0.010396
0.0101081
0.0098279
0.00955502
0.00928917
0.00903004
0.00877733
0.00853076
0.00829008
0.00805505
0.00782544
0.00760104
0.00738165
0.00716707
0.0069571
0.00675158
0.00655034
0.00635321
0.00616002
0.00597052
0.00578438
0.00560249
0.005427
0.00525879
0.00509726
0.00494191
0.00479227
0.00464793
0.00450854
0.00437375
0.00424326
0.00411681
0.00399416
0.00387507
0.00375936
0.00364682
0.0035373
0.00343064
0.00332671
0.00322537
0.00312651
0.00303004
0.00293585
0.00284387
0.00275403
0.00266627
0.00258052
0.00249675
0.00241492
0.002335
0.00225696
0.0021808
0.0021065
0.00203406
0.00196349
0.00189478
0.00182796
0.00176304
0.00170002
0.00163893
0.00157977
0.00152255
0.00146728
0.00141394
0.00136253
0.00131302
0.0012654
0.00121964
0.0011757
0.00113354
0.00109312
0.0010544
0.00101732
0.000981841
0.000947907
0.000915466
0.000884463
0.000854845
0.000826554
0.000799534
0.000773727
0.000749071
0.000725505
0.000702967
0.000681391
0.000660733
0.0126497
0.0122958
0.0119528
0.0116201
0.0112974
0.010984
0.0106797
0.0103838
0.0100959
0.00981562
0.00954266
0.00927669
0.00901742
0.00876456
0.00851783
0.00827698
0.00804177
0.00781199
0.00758742
0.00736785
0.00715311
0.006943
0.00673734
0.00653596
0.00633872
0.00614544
0.00595586
0.00576966
0.00558771
0.00541216
0.0052439
0.00508234
0.00492696
0.00477731
0.00463298
0.0044936
0.00435883
0.00422839
0.00410198
0.00397938
0.00386036
0.00374471
0.00363225
0.00352281
0.00341624
0.0033124
0.00321116
0.00311241
0.00301605
0.00292198
0.00283012
0.0027404
0.00265275
0.00256714
0.0024835
0.0024018
0.00232201
0.00224411
0.00216809
0.00209393
0.00202163
0.0019512
0.00188265
0.00181598
0.00175121
0.00168835
0.00162741
0.00156841
0.00151135
0.00145624
0.00140306
0.0013518
0.00130245
0.00125499
0.00120938
0.00116558
0.00112356
0.00108328
0.00104469
0.00100773
0.000972374
0.000938554
0.000906222
0.000875322
0.0008458
0.000817601
0.000790667
0.00076494
0.00074036
0.000716869
0.000694404
0.000672905
0.00065233
0.0126379
0.0122842
0.0119411
0.0116084
0.0112856
0.0109722
0.0106677
0.0103718
0.0100839
0.00980363
0.00953059
0.00926452
0.00900512
0.0087521
0.00850521
0.00826419
0.0080288
0.00779884
0.00757409
0.00735436
0.00713945
0.00692918
0.00672338
0.00652188
0.00632453
0.00613115
0.0059415
0.00575524
0.00557322
0.00539761
0.0052293
0.0050677
0.0049123
0.00476264
0.00461831
0.00447894
0.0043442
0.00421378
0.00408742
0.00396487
0.00384591
0.00373033
0.00361795
0.00350859
0.00340211
0.00329836
0.00319722
0.00309857
0.00300232
0.00290836
0.00281661
0.00272701
0.00263949
0.002554
0.00247049
0.00238892
0.00230927
0.0022315
0.00215562
0.0020816
0.00200944
0.00193916
0.00187075
0.00180423
0.00173961
0.00167691
0.00161613
0.00155729
0.0015004
0.00144544
0.00139243
0.00134134
0.00129215
0.00124485
0.00119939
0.00115575
0.00111388
0.00107374
0.00103529
0.000998473
0.000963242
0.000929547
0.000897332
0.000866545
0.00083713
0.000809031
0.000782193
0.000756557
0.000732067
0.000708662
0.000686285
0.000664876
0.000644398
0.0126268
0.012273
0.01193
0.0115972
0.0112743
0.0109608
0.0106562
0.0103601
0.0100722
0.00979188
0.00951878
0.00925261
0.00899309
0.00873992
0.00849287
0.00825167
0.00801611
0.00778597
0.00756105
0.00734115
0.00712608
0.00691566
0.00670971
0.00650809
0.00631062
0.00611715
0.00592742
0.00574109
0.00555901
0.00538334
0.00521497
0.00505333
0.0048979
0.00474823
0.0046039
0.00446454
0.00432982
0.00419943
0.00407311
0.00395061
0.00383171
0.00371619
0.00360388
0.00349461
0.00338821
0.00328455
0.00318351
0.00308496
0.00298881
0.00289496
0.00280333
0.00271384
0.00262644
0.00254107
0.00245769
0.00237625
0.00229672
0.00221909
0.00214334
0.00206946
0.00199744
0.0019273
0.00185904
0.00179267
0.0017282
0.00166565
0.00160503
0.00154635
0.00148962
0.00143483
0.00138198
0.00133105
0.00128203
0.00123488
0.00118958
0.00114609
0.00110438
0.00106438
0.00102607
0.000989385
0.00095428
0.000920704
0.000888602
0.000857921
0.000828605
0.000800599
0.00077385
0.000748302
0.000723897
0.000700577
0.000678288
0.000656973
0.000636594
0.0126161
0.0122623
0.0119192
0.0115864
0.0112634
0.0109497
0.010645
0.0103488
0.0100607
0.00978033
0.00950719
0.00924094
0.0089813
0.008728
0.00848079
0.00823943
0.0080037
0.00777338
0.00754829
0.00732821
0.00711298
0.00690241
0.00669633
0.00649457
0.006297
0.00610343
0.00591362
0.00572722
0.00554508
0.00536933
0.00520091
0.00503923
0.00488377
0.00473407
0.00458974
0.00445038
0.00431568
0.00418532
0.00405904
0.00393659
0.00381774
0.00370228
0.00359004
0.00348084
0.00337453
0.00327096
0.00317001
0.00307156
0.0029755
0.00288176
0.00279024
0.00270086
0.00261358
0.00252833
0.00244506
0.00236375
0.00228435
0.00220685
0.00213122
0.00205747
0.00198559
0.00191559
0.00184747
0.00178124
0.00171692
0.00165453
0.00159406
0.00153554
0.00147897
0.00142434
0.00137165
0.00132088
0.00127202
0.00122503
0.00117988
0.00113654
0.00109496
0.00105511
0.00101692
0.000980359
0.000945369
0.0009119
0.000879899
0.000849311
0.000820084
0.000792163
0.000765499
0.000740036
0.000715719
0.00069249
0.000670295
0.00064908
0.000628806
0.0126059
0.0122521
0.0119089
0.011576
0.0112529
0.0109391
0.0106342
0.0103378
0.0100495
0.00976898
0.00949578
0.00922948
0.00896974
0.00871632
0.00846896
0.00822744
0.00799154
0.00776106
0.00753579
0.00731555
0.00710016
0.00688944
0.00668321
0.00648133
0.00628365
0.00608999
0.0059001
0.00571363
0.00553141
0.0053556
0.00518712
0.00502539
0.00486989
0.00472017
0.00457583
0.00443647
0.00430178
0.00417145
0.0040452
0.00392279
0.00380399
0.00368859
0.00357641
0.00346728
0.00336105
0.00325756
0.0031567
0.00305834
0.00296239
0.00286874
0.00277732
0.00268806
0.00260089
0.00251575
0.0024326
0.0023514
0.00227212
0.00219474
0.00211925
0.00204562
0.00197387
0.001904
0.00183602
0.00176993
0.00170576
0.00164351
0.0015832
0.00152483
0.00146841
0.00141394
0.0013614
0.00131079
0.00126208
0.00121524
0.00117024
0.00112704
0.00108559
0.00104586
0.0010078
0.000971348
0.000936463
0.000903092
0.000871184
0.000840688
0.000811552
0.000783724
0.000757156
0.000731797
0.000707588
0.000684471
0.000662388
0.000641286
0.000621126
0.0125961
0.0122422
0.0118991
0.011566
0.0112428
0.0109288
0.0106237
0.0103272
0.0100387
0.00975792
0.00948454
0.00921816
0.00895836
0.00870484
0.00845736
0.00821569
0.00797964
0.00774899
0.00752356
0.00730316
0.00708761
0.00687674
0.00667037
0.00646837
0.00627058
0.00607682
0.00588685
0.00570031
0.00551802
0.00534214
0.00517359
0.00501181
0.00485627
0.00470652
0.00456216
0.0044228
0.00428812
0.0041578
0.00403158
0.0039092
0.00379045
0.00367511
0.00356299
0.00345393
0.00334776
0.00324435
0.00314357
0.0030453
0.00294944
0.00285589
0.00276457
0.00267541
0.00258834
0.00250331
0.00242028
0.00233919
0.00226003
0.00218276
0.00210739
0.00203388
0.00196226
0.00189251
0.00182466
0.00175871
0.00169467
0.00163257
0.0015724
0.00151418
0.00145792
0.0014036
0.00135121
0.00130075
0.00125219
0.00120549
0.00116063
0.00111756
0.00107624
0.00103663
0.000998674
0.000962331
0.000927549
0.000894281
0.000862478
0.000832094
0.000803079
0.000775379
0.000748943
0.000723721
0.000699653
0.000676669
0.000654709
0.00063372
0.000613669
0.0125867
0.0122328
0.0118896
0.0115564
0.011233
0.0109189
0.0106136
0.0103168
0.0100281
0.00974716
0.00947357
0.00920701
0.00894714
0.00869354
0.00844595
0.00820416
0.00796796
0.00773716
0.00751158
0.00729102
0.00707532
0.0068643
0.00665781
0.00645568
0.00625778
0.00606393
0.00587387
0.00568725
0.00550489
0.00532894
0.00516033
0.00499848
0.0048429
0.00469312
0.00454873
0.00440936
0.00427468
0.00414438
0.00401818
0.00389583
0.00377711
0.00366182
0.00354975
0.00344075
0.00333465
0.00323132
0.00313061
0.00303243
0.00293665
0.00284319
0.00275197
0.0026629
0.00257593
0.00249101
0.00240807
0.00232709
0.00224804
0.00217088
0.00209562
0.00202223
0.00195072
0.0018811
0.00181337
0.00174755
0.00168365
0.00162168
0.00156166
0.00150358
0.00144746
0.00139329
0.00134105
0.00129073
0.00124231
0.00119575
0.00115102
0.00110808
0.00106688
0.00102739
0.000989555
0.000953332
0.000918677
0.000885546
0.000853894
0.000823674
0.000794836
0.000767313
0.000741042
0.000715981
0.000692057
0.000669187
0.000647322
0.000626419
0.000606451
0.0125778
0.0122238
0.0118804
0.0115472
0.0112236
0.0109093
0.0106038
0.0103068
0.0100179
0.00973671
0.00946288
0.0091961
0.00893605
0.00868238
0.00843472
0.00819283
0.0079565
0.00772557
0.00749983
0.00727913
0.00706329
0.00685213
0.0066455
0.00644326
0.00624525
0.0060513
0.00586116
0.00567447
0.00549203
0.00531601
0.00514732
0.00498541
0.00482977
0.00467995
0.00453554
0.00439615
0.00426146
0.00413116
0.00400498
0.00388265
0.00376397
0.00364871
0.0035367
0.00342775
0.00332171
0.00321844
0.00311781
0.0030197
0.002924
0.00283062
0.00273948
0.00265051
0.00256363
0.0024788
0.00239597
0.00231509
0.00223613
0.00215908
0.00208392
0.00201064
0.00193925
0.00186974
0.00180213
0.00173643
0.00167266
0.00161082
0.00155093
0.001493
0.00143702
0.00138299
0.00133089
0.00128071
0.00123243
0.00118601
0.00114141
0.00109861
0.00105755
0.00101819
0.000980509
0.000944449
0.000909976
0.000877047
0.000845613
0.000815613
0.000786986
0.000759633
0.000733491
0.000708524
0.000684674
0.000661879
0.000640091
0.000619265
0.000599373
0.0125692
0.0122151
0.0118716
0.0115382
0.0112145
0.0109
0.0105943
0.0102971
0.010008
0.00972654
0.00945248
0.00918546
0.00892518
0.00867135
0.00842362
0.00818166
0.00794523
0.00771418
0.00748832
0.00726748
0.0070515
0.00684021
0.00663346
0.0064311
0.00623299
0.00603894
0.00584871
0.00566194
0.00547943
0.00530333
0.00513456
0.00497259
0.00481689
0.00466702
0.00452257
0.00438316
0.00424846
0.00411816
0.00399198
0.00386967
0.00375101
0.00363578
0.00352381
0.00341491
0.00330892
0.00320571
0.00310514
0.00300709
0.00291147
0.00281817
0.00272711
0.00263822
0.00255143
0.00246668
0.00238394
0.00230315
0.00222429
0.00214734
0.00207227
0.0019991
0.0019278
0.0018584
0.00179091
0.00172533
0.00166168
0.00159997
0.00154021
0.00148241
0.00142657
0.00137268
0.00132073
0.00127069
0.00122256
0.00117628
0.00113184
0.00108919
0.0010483
0.00100914
0.000971658
0.000935828
0.000901605
0.000868943
0.000837739
0.000807891
0.000779364
0.000752099
0.000726045
0.000701155
0.000677376
0.000654655
0.00063294
0.000612188
0.00059237
0.0125609
0.0122068
0.0118632
0.0115296
0.0112057
0.010891
0.0105851
0.0102877
0.00999833
0.00971666
0.00944236
0.0091751
0.00891458
0.00866052
0.00841264
0.00817062
0.00793413
0.00770298
0.00747701
0.00725606
0.00703995
0.00682854
0.00662167
0.0064192
0.00622098
0.00602685
0.00583653
0.00564967
0.00546709
0.00529091
0.00512206
0.00496
0.00480424
0.00465432
0.00450983
0.00437039
0.00423566
0.00410535
0.00397916
0.00385686
0.00373822
0.00362302
0.00351107
0.00340221
0.00329627
0.00319311
0.00309259
0.00299461
0.00289905
0.00280581
0.00271483
0.00262601
0.0025393
0.00245463
0.00237197
0.00229127
0.00221249
0.00213563
0.00206065
0.00198757
0.00191637
0.00184707
0.00177968
0.00171422
0.00165068
0.0015891
0.00152947
0.00147181
0.00141611
0.00136237
0.00131057
0.00126069
0.00121272
0.00116662
0.00112236
0.00107992
0.00103925
0.00100033
0.000963125
0.000927593
0.000893624
0.00086111
0.000830004
0.000800256
0.000771818
0.000744638
0.000718667
0.000693854
0.000670149
0.0006475
0.000625857
0.000605176
0.000585429
0.012553
0.0121987
0.011855
0.0115213
0.0111972
0.0108823
0.0105762
0.0102786
0.00998896
0.00970704
0.0094325
0.009165
0.00890424
0.00864995
0.00840184
0.00815968
0.00792315
0.00769194
0.00746589
0.00724484
0.00702863
0.0068171
0.00661013
0.00640755
0.00620923
0.006015
0.0058246
0.00563766
0.005455
0.00527874
0.0051098
0.00494766
0.00479183
0.00464185
0.0044973
0.00435782
0.00422306
0.00409272
0.00396653
0.00384423
0.00372559
0.0036104
0.00349848
0.00338964
0.00328374
0.00318062
0.00308015
0.00298222
0.00288671
0.00279354
0.00270261
0.00261386
0.00252722
0.00244263
0.00236004
0.00227941
0.00220072
0.00212393
0.00204904
0.00197604
0.00190493
0.00183573
0.00176844
0.00170308
0.00163967
0.00157821
0.00151872
0.0014612
0.00140565
0.00135206
0.00130043
0.00125074
0.00120297
0.00115708
0.00111306
0.00107086
0.00103048
0.000991879
0.000954958
0.000919607
0.00088575
0.000853341
0.000822335
0.000792681
0.000764332
0.000737237
0.000711347
0.00068661
0.000662978
0.0006404
0.000618828
0.000598216
0.000578539
0.0125452
0.012191
0.0118471
0.0115133
0.011189
0.0108739
0.0105676
0.0102697
0.00997985
0.00969769
0.0094229
0.00915515
0.00889416
0.00863963
0.0083913
0.00814892
0.00791227
0.00768103
0.00745493
0.0072338
0.0070175
0.00680589
0.00659881
0.00639614
0.00619773
0.00600341
0.00581292
0.00562589
0.00544315
0.00526682
0.00509778
0.00493555
0.00477964
0.00462959
0.00448498
0.00434544
0.00421065
0.00408028
0.00395406
0.00383175
0.0037131
0.00359792
0.00348601
0.00337719
0.00327132
0.00316823
0.0030678
0.0029699
0.00287445
0.00278132
0.00269045
0.00260176
0.00251518
0.00243065
0.00234813
0.00226757
0.00218894
0.00211222
0.00203741
0.00196449
0.00189347
0.00182436
0.00175717
0.00169192
0.00162862
0.0015673
0.00150795
0.00145058
0.0013952
0.0013418
0.00129037
0.00124089
0.00119335
0.00114772
0.00110398
0.0010621
0.00102204
0.000983693
0.000946915
0.000911676
0.000877927
0.000845622
0.000814714
0.000785154
0.000756893
0.000729881
0.000704071
0.000679411
0.000655852
0.000633345
0.000611842
0.000591299
0.000571689
0.0125377
0.0121834
0.0118395
0.0115055
0.0111811
0.0108658
0.0105592
0.0102611
0.00997099
0.00968858
0.00941354
0.00914555
0.00888432
0.00862956
0.008381
0.00813841
0.00790156
0.00767022
0.00744409
0.00722292
0.00700656
0.00679487
0.00658771
0.00638495
0.00618646
0.00599205
0.00580148
0.00561436
0.00543155
0.00525513
0.00508599
0.00492367
0.00476767
0.00461753
0.00447286
0.00433326
0.00419841
0.004068
0.00394175
0.00381941
0.00370075
0.00358556
0.00347366
0.00336485
0.00325899
0.00315592
0.00305551
0.00295766
0.00286223
0.00276915
0.00267833
0.00258968
0.00250315
0.00241868
0.00233621
0.00225571
0.00217715
0.0021005
0.00202575
0.0019529
0.00188197
0.00181294
0.00174586
0.00168072
0.00161755
0.00155637
0.00149717
0.00143998
0.00138479
0.0013316
0.0012804
0.00123118
0.00118392
0.00113859
0.00109518
0.00105362
0.00101378
0.000975559
0.000938904
0.000903779
0.000870139
0.000837938
0.000807127
0.000777659
0.000749486
0.000722559
0.000696828
0.000672244
0.000648758
0.000626322
0.000604889
0.000584414
0.000564871
0.0125304
0.0121762
0.0118322
0.0114981
0.0111734
0.0108579
0.0105511
0.0102527
0.00996237
0.00967972
0.00940443
0.00913619
0.00887472
0.00861972
0.00837095
0.00812815
0.00789109
0.00765955
0.00743335
0.00721217
0.00699578
0.00678404
0.00657681
0.00637398
0.00617541
0.00598092
0.00579027
0.00560306
0.00542017
0.00524367
0.00507443
0.00491201
0.00475591
0.00460569
0.00446093
0.00432126
0.00418635
0.00405588
0.00392959
0.00380721
0.00368853
0.00357332
0.0034614
0.00335259
0.00324673
0.00314368
0.00304329
0.00294545
0.00285006
0.00275701
0.00266622
0.00257761
0.00249112
0.00240669
0.00232428
0.00224383
0.00216532
0.00208873
0.00201405
0.00194127
0.00187041
0.00180148
0.0017345
0.00166949
0.00160646
0.00154543
0.00148641
0.00142942
0.00137445
0.0013215
0.00127057
0.00122164
0.00117469
0.00112972
0.00108662
0.00104526
0.00100555
0.000967448
0.000930913
0.000895903
0.000862371
0.000830273
0.00079956
0.000770185
0.000742101
0.000715257
0.000689606
0.0006651
0.000641688
0.000619324
0.00059796
0.000577553
0.000558077
0.0140612
0.0136584
0.013268
0.0128897
0.0125242
0.0121696
0.0118253
0.0114909
0.011166
0.0108502
0.0105432
0.0102446
0.00995399
0.00967108
0.00939554
0.00912706
0.00886534
0.00861012
0.00836112
0.00811811
0.00788085
0.00764913
0.00742275
0.00720151
0.00698513
0.00677336
0.00656609
0.0063632
0.00616456
0.00597001
0.00577927
0.00559198
0.00540901
0.00523243
0.00506308
0.00490055
0.00474435
0.00459403
0.00444918
0.00430943
0.00417444
0.00404391
0.00391756
0.00379514
0.00367641
0.00356117
0.00344923
0.00334041
0.00323454
0.00313148
0.0030311
0.00293328
0.0028379
0.00274487
0.00265411
0.00256553
0.00247908
0.00239468
0.00231231
0.0022319
0.00215344
0.00207691
0.00200229
0.00192958
0.00185881
0.00178997
0.00172311
0.00165822
0.00159534
0.00153449
0.00147567
0.00141891
0.00136419
0.00131152
0.00126088
0.00121228
0.00116569
0.00112103
0.00107812
0.0010369
0.000997317
0.000959341
0.000922927
0.000888031
0.000854608
0.000822614
0.000792
0.000762719
0.000734724
0.000707966
0.000682397
0.000657968
0.000634632
0.000612341
0.000591048
0.00057071
0.000551301
0.0140548
0.0136526
0.0132625
0.0128845
0.0125184
0.0121633
0.0118187
0.011484
0.0111589
0.0108428
0.0105356
0.0102367
0.00994583
0.00966266
0.00938687
0.00911814
0.00885619
0.00860073
0.00835152
0.0081083
0.00787084
0.00763894
0.00741238
0.00719099
0.00697455
0.00676281
0.00655553
0.0063526
0.00615391
0.00595929
0.00576848
0.0055811
0.00539806
0.0052214
0.00505194
0.0048893
0.00473299
0.00458256
0.00443761
0.00429777
0.00416269
0.00403208
0.00390566
0.00378317
0.00366439
0.00354911
0.00343713
0.00332828
0.0032224
0.00311933
0.00301894
0.00292111
0.00282574
0.00273272
0.00264197
0.00255342
0.00246699
0.00238263
0.00230029
0.00221992
0.00214151
0.00206502
0.00199046
0.00191783
0.00184714
0.00177841
0.00171166
0.00164693
0.00158422
0.00152356
0.00146497
0.00140845
0.00135402
0.00130165
0.00125136
0.00120312
0.00115685
0.00111237
0.00106961
0.00102852
0.000989072
0.000951223
0.000914929
0.000880149
0.000846837
0.000814948
0.000784435
0.00075525
0.000727346
0.000700676
0.00067519
0.000650841
0.000627582
0.000605365
0.000584145
0.000563878
0.000544538
0.0140489
0.0136471
0.0132573
0.0128793
0.0125128
0.0121574
0.0118124
0.0114774
0.011152
0.0108357
0.0105281
0.010229
0.00993788
0.00965445
0.00937841
0.00910944
0.00884725
0.00859156
0.00834213
0.0080987
0.00786105
0.00762897
0.00740224
0.00718069
0.00696411
0.00675233
0.00654508
0.00634215
0.00614342
0.00594875
0.00575788
0.00557041
0.0053873
0.00521057
0.00504099
0.00487824
0.00472181
0.00457127
0.0044262
0.00428625
0.00415107
0.00402037
0.00389386
0.0037713
0.00365246
0.00353712
0.00342509
0.0033162
0.00321028
0.00310719
0.00300678
0.00290894
0.00281357
0.00272055
0.00262981
0.00254127
0.00245486
0.00237052
0.0022882
0.00220787
0.0021295
0.00205306
0.00197856
0.00190601
0.00183541
0.00176679
0.00170018
0.0016356
0.00157309
0.00151265
0.00145431
0.00139807
0.00134395
0.00129192
0.001242
0.00119409
0.00114801
0.00110368
0.00106106
0.00102011
0.000980799
0.000943077
0.000906907
0.000872244
0.000839045
0.000807264
0.000776853
0.000747767
0.000719957
0.000693377
0.000667977
0.000643711
0.000620532
0.000598392
0.000577247
0.000557052
0.000537784
0.0153318
0.0148886
0.0144592
0.0140444
0.0136423
0.0132523
0.0128742
0.0125074
0.0121517
0.0118064
0.0114711
0.0111453
0.0108287
0.0105209
0.0102215
0.00993013
0.00964645
0.00937015
0.00910093
0.0088385
0.00858259
0.00833294
0.00808931
0.00785147
0.00761921
0.00739232
0.00717061
0.00695389
0.00674199
0.00653471
0.00633181
0.00613308
0.00593837
0.00574744
0.0055599
0.00537672
0.00519993
0.00503023
0.00486735
0.0047108
0.00456013
0.00441495
0.00427488
0.00413959
0.00400878
0.00388217
0.00375952
0.00364059
0.00352518
0.00341309
0.00330415
0.00319818
0.00309505
0.00299461
0.00289675
0.00280136
0.00270834
0.00261759
0.00252905
0.00244265
0.00235833
0.00227604
0.00219574
0.00211741
0.00204102
0.00196658
0.0018941
0.0018236
0.00175511
0.00168865
0.00162425
0.00156195
0.00150175
0.00144369
0.00138776
0.00133398
0.00128233
0.00123274
0.00118505
0.00113913
0.00109495
0.00105247
0.00101166
0.000972482
0.00093489
0.000898845
0.000864303
0.00083122
0.000799549
0.000769245
0.00074026
0.000712548
0.000686061
0.000660751
0.000636572
0.000613476
0.000591416
0.000570349
0.000550231
0.000531037
0.0153269
0.0148843
0.0144554
0.0140401
0.0136377
0.0132476
0.0128692
0.0125022
0.0121461
0.0118005
0.0114649
0.0111389
0.010822
0.0105139
0.0102142
0.00992257
0.00963863
0.00936208
0.00909261
0.00882995
0.00857381
0.00832395
0.00808012
0.00784209
0.00760965
0.00738259
0.00716073
0.00694387
0.00673184
0.00652446
0.00632154
0.00612284
0.00592812
0.00573714
0.00554953
0.0053663
0.00518946
0.00501965
0.00485664
0.00469996
0.00454916
0.00440384
0.00426364
0.00412822
0.00399729
0.00387057
0.00374781
0.00362879
0.00351329
0.00340112
0.00329211
0.00318608
0.0030829
0.00298242
0.00288453
0.00278911
0.00269607
0.00260531
0.00251677
0.00243037
0.00234606
0.00226379
0.00218352
0.00210522
0.00202888
0.00195451
0.00188212
0.00181172
0.00174336
0.00167707
0.00161287
0.0015508
0.00149087
0.00143311
0.00137752
0.00132411
0.00127283
0.00122348
0.00117595
0.00113018
0.00108614
0.00104381
0.00100315
0.000964106
0.000926648
0.000890732
0.000856314
0.00082335
0.000791794
0.0007616
0.000732721
0.00070511
0.000678721
0.000653505
0.000629416
0.000606408
0.000584434
0.000563449
0.000543412
0.000524296
0.0153226
0.0148802
0.0144514
0.014036
0.0136334
0.013243
0.0128644
0.0124972
0.0121408
0.0117949
0.011459
0.0111326
0.0108155
0.0105071
0.0102071
0.0099152
0.00963099
0.00935418
0.00908447
0.00882158
0.00856522
0.00831514
0.00807111
0.00783289
0.00760028
0.00737306
0.00715105
0.00693406
0.0067219
0.0065144
0.00631139
0.00611267
0.00591796
0.00572696
0.00553927
0.00535603
0.00517915
0.00500921
0.00484608
0.00468926
0.00453832
0.00439286
0.00425252
0.00411696
0.00398589
0.00385904
0.00373616
0.00361702
0.00350142
0.00338916
0.00328007
0.00317397
0.00307072
0.00297019
0.00287225
0.0027768
0.00268372
0.00259295
0.0025044
0.002418
0.00233369
0.00225143
0.00217119
0.00209293
0.00201664
0.00194234
0.00187003
0.00179975
0.00173154
0.00166543
0.00160145
0.00153963
0.00148
0.00142257
0.00136735
0.00131433
0.00126331
0.00121413
0.00116675
0.00112114
0.00107726
0.00103508
0.000994558
0.000955658
0.000918338
0.000882554
0.000848265
0.000815425
0.000783988
0.000753909
0.000725141
0.000697637
0.000671351
0.000646234
0.000622241
0.000599325
0.000577441
0.000556544
0.000536592
0.00051756
0.0153185
0.0148762
0.0144475
0.014032
0.0136292
0.0132386
0.0128598
0.0124923
0.0121356
0.0117894
0.0114532
0.0111266
0.0108091
0.0105004
0.0102002
0.00990799
0.00962352
0.00934646
0.0090765
0.00881337
0.00855679
0.00830651
0.00806228
0.00782388
0.00759109
0.00736372
0.00714156
0.00692443
0.00671215
0.00650453
0.00630141
0.00610259
0.00590786
0.00571687
0.00552915
0.00534588
0.00516895
0.00499891
0.00483566
0.0046787
0.00452761
0.004382
0.0042415
0.00410579
0.00397457
0.00384757
0.00372456
0.00360529
0.00348957
0.00337721
0.00326801
0.00316183
0.00305851
0.00295791
0.00285991
0.00276441
0.0026713
0.00258049
0.00249192
0.00240551
0.00232121
0.00223896
0.00215874
0.00208051
0.00200428
0.00193005
0.00185784
0.00178769
0.00171964
0.00165372
0.00158998
0.00152845
0.00146914
0.00141207
0.00135726
0.00130453
0.00125369
0.00120467
0.00115745
0.001112
0.00106828
0.00102625
0.000985879
0.000947125
0.000909946
0.000874301
0.000840145
0.000807434
0.000776123
0.000746165
0.000717513
0.000690122
0.000663944
0.000638933
0.000615042
0.000592225
0.000570437
0.000549633
0.000529772
0.00051083
0.0153148
0.0148724
0.0144437
0.0140281
0.0136251
0.0132343
0.0128553
0.0124875
0.0121306
0.0117841
0.0114476
0.0111207
0.0108029
0.010494
0.0101934
0.00990095
0.00961621
0.00933889
0.00906869
0.00880533
0.00854852
0.00829803
0.00805361
0.00781502
0.00758207
0.00735454
0.00713224
0.00691497
0.00670257
0.00649484
0.0062916
0.00609267
0.00589784
0.00570683
0.00551911
0.00533582
0.00515885
0.00498872
0.00482535
0.00466826
0.00451702
0.00437124
0.00423058
0.0040947
0.00396331
0.00383615
0.00371298
0.00359358
0.00347772
0.00336523
0.00325593
0.00314964
0.00304623
0.00294555
0.00284749
0.00275192
0.00265877
0.00256793
0.00247933
0.00239291
0.0023086
0.00222636
0.00214616
0.00206797
0.00199179
0.00191763
0.00184553
0.00177552
0.00170764
0.00164194
0.00157847
0.00151724
0.00145829
0.00140163
0.00134714
0.00129461
0.00124394
0.00119509
0.00114804
0.00110275
0.00105918
0.00101731
0.000977097
0.000938494
0.000901463
0.000865962
0.000831946
0.00079937
0.00076819
0.000738359
0.000709831
0.000682559
0.000656497
0.000631597
0.000607815
0.000585104
0.000563418
0.000542714
0.000522952
0.000504105
0.0153112
0.0148688
0.01444
0.0140242
0.0136211
0.0132302
0.0128509
0.0124829
0.0121257
0.011779
0.0114422
0.0111149
0.0107969
0.0104876
0.0101868
0.00989405
0.00960904
0.00933147
0.00906103
0.00879743
0.0085404
0.0082897
0.00804509
0.00780632
0.0075732
0.00734552
0.00712307
0.00690568
0.00669315
0.0064853
0.00628195
0.0060829
0.00588794
0.00569684
0.00550911
0.00532582
0.00514882
0.00497862
0.00481514
0.00465791
0.00450652
0.00436058
0.00421973
0.00408367
0.00395211
0.00382477
0.00370143
0.00358186
0.00346586
0.00335323
0.00324379
0.00313739
0.00303388
0.00293311
0.00283496
0.00273933
0.00264612
0.00255524
0.00246661
0.00238016
0.00229584
0.00221361
0.00213343
0.00205527
0.00197915
0.00190508
0.00183308
0.00176322
0.00169554
0.00163008
0.0015669
0.00150601
0.00144745
0.00139116
0.00133691
0.00128455
0.00123404
0.00118536
0.00113848
0.00109336
0.00104996
0.00100825
0.000968199
0.000929753
0.000892877
0.000857525
0.000823656
0.000791223
0.000760182
0.000730486
0.000702088
0.000674943
0.000649004
0.000624224
0.000600558
0.00057796
0.000556384
0.000535788
0.000516131
0.000497387
0.015308
0.0148654
0.0144364
0.0140206
0.0136173
0.0132261
0.0128466
0.0124784
0.012121
0.0117739
0.0114368
0.0111093
0.010791
0.0104814
0.0101803
0.00988729
0.00960201
0.00932418
0.00905349
0.00878966
0.00853242
0.00828151
0.0080367
0.00779776
0.00756447
0.00733663
0.00711405
0.00689652
0.00668386
0.0064759
0.00627243
0.00607326
0.00587817
0.00568692
0.00549913
0.00531586
0.00513883
0.00496859
0.00480501
0.00464765
0.0044961
0.00434999
0.00420896
0.0040727
0.00394094
0.00381341
0.00368988
0.00357014
0.00345396
0.00334118
0.0032316
0.00312507
0.00302144
0.00292056
0.00282233
0.00272662
0.00263334
0.0025424
0.00245373
0.00236726
0.00228293
0.0022007
0.00212053
0.00204242
0.00196635
0.00189236
0.00182049
0.0017508
0.00168332
0.00161813
0.00155527
0.00149474
0.00143659
0.00138058
0.00132651
0.00127432
0.00122399
0.00117548
0.00112877
0.00108382
0.0010406
0.000999061
0.000959172
0.000920892
0.000884176
0.000848983
0.000815268
0.000782986
0.000752091
0.000722538
0.000694279
0.000667269
0.000641462
0.00061681
0.000593268
0.000570791
0.000549335
0.000528854
0.00050931
0.000490676
0.0153049
0.0148622
0.0144331
0.014017
0.0136136
0.0132222
0.0128425
0.012474
0.0121163
0.011769
0.0114316
0.0111038
0.0107852
0.0104753
0.010174
0.00988065
0.00959511
0.00931702
0.00904609
0.00878202
0.00852456
0.00827345
0.00802845
0.00778933
0.00755587
0.00732788
0.00710515
0.00688749
0.00667471
0.00646662
0.00626303
0.00606374
0.00586852
0.00567711
0.00548919
0.00530588
0.00512887
0.00495861
0.00479494
0.00463745
0.00448575
0.00433945
0.00419823
0.00406177
0.0039298
0.00380206
0.00367833
0.00355838
0.00344203
0.00332907
0.00321933
0.00311266
0.00300889
0.0029079
0.00280956
0.00271376
0.00262041
0.00252941
0.0024407
0.00235419
0.00226985
0.00218761
0.00210746
0.00202938
0.00195337
0.00187948
0.00180774
0.00173822
0.00167099
0.00160609
0.00154357
0.00148345
0.00142562
0.00136981
0.00131591
0.0012639
0.00121375
0.00116542
0.00111889
0.00107413
0.00103108
0.00098972
0.000950007
0.000911898
0.000875352
0.000840325
0.000806773
0.00077465
0.000743911
0.000714509
0.000686399
0.000659533
0.000633866
0.000609351
0.000585943
0.000563597
0.000542267
0.000521911
0.000502488
0.000483973
0.0153021
0.0148592
0.0144299
0.0140136
0.01361
0.0132184
0.0128385
0.0124697
0.0121118
0.0117642
0.0114265
0.0110984
0.0107795
0.0104694
0.0101677
0.00987412
0.00958831
0.00930997
0.00903879
0.00877449
0.00851681
0.00826549
0.0080203
0.007781
0.00754738
0.00731923
0.00709636
0.00687857
0.00666566
0.00645745
0.00625374
0.00605432
0.00585895
0.00566738
0.00547927
0.00529587
0.00511891
0.00494865
0.0047849
0.0046273
0.00447544
0.00432896
0.00418753
0.00405086
0.00391866
0.0037907
0.00366675
0.00354659
0.00343003
0.00331688
0.00320697
0.00310014
0.00299623
0.00289511
0.00279665
0.00270075
0.00260731
0.00251625
0.00242748
0.00234093
0.00225657
0.00217433
0.00209419
0.00201614
0.0019402
0.00186641
0.00179481
0.00172549
0.00165851
0.00159394
0.0015318
0.00147206
0.00141447
0.00135883
0.00130511
0.00125328
0.00120332
0.00115518
0.00110884
0.00106425
0.0010214
0.00098022
0.00094069
0.000902762
0.000866395
0.000831543
0.000798163
0.000766209
0.000735634
0.000706394
0.000678442
0.00065173
0.000626213
0.000601845
0.000578581
0.000556374
0.000535181
0.000514959
0.000495666
0.000477278
0.0152995
0.0148564
0.0144269