/*--------------------------------*- C++ -*----------------------------------*\
  =========                 |
  \\      /  F ield         | OpenFOAM: The Open Source CFD Toolbox
   \\    /   O peration     | Website:  https://openfoam.org
    \\  /    A nd           | Version:  10
     \\/     M anipulation  |
\*---------------------------------------------------------------------------*/
FoamFile
{
    format      ascii;
    class       volScalarField;
    location    "44000";
    object      nut;
}
// * * * * * * * * * * * * * * * * * * * * * * * * * * * * * * * * * * * * * //

dimensions      [0 2 -1 0 0 0 0];

internalField   nonuniform List<scalar> 
17808
(
2.93496e-06
2.15783e-05
3.75954e-05
5.31814e-05
6.96171e-05
8.6631e-05
0.000104105
0.000121978
0.000140217
0.000158803
0.000177723
0.000196971
0.000216544
0.000236438
0.000256654
0.000277194
0.000298057
0.000319248
0.000340768
0.000362621
0.000384811
0.000407341
0.000430216
0.00045344
0.000477017
0.000500952
0.000525251
0.000549917
0.000574957
0.000600375
0.000626176
0.000652367
0.000678951
0.000705936
0.000733326
0.000761127
0.000789346
0.000817987
0.000847056
0.00087656
0.000906504
0.000936894
0.000967735
0.000999035
0.0010308
0.00106303
0.00109574
0.00112893
0.0011626
0.00119677
0.00123143
0.0012666
0.00130227
0.00133846
0.00137516
0.00141239
0.00145014
0.00148843
0.00152724
0.0015666
0.0016065
0.00164694
0.00168794
0.00172948
0.00177157
0.0018142
0.00185739
0.00190112
0.0019454
0.00199022
0.00203559
0.00208149
0.00212793
0.0021749
0.00222239
0.0022704
0.00231891
0.00236791
0.0024174
0.00246736
0.00251778
0.00256863
0.0026199
0.00267157
0.00272361
0.00277601
0.00282872
0.00288173
0.002935
0.00298849
0.00304217
0.00309598
2.92548e-06
2.1868e-05
3.7578e-05
5.31654e-05
6.95977e-05
8.66084e-05
0.000104079
0.00012195
0.000140187
0.000158771
0.00017769
0.000196937
0.000216509
0.000236403
0.000256619
0.000277158
0.000298022
0.000319213
0.000340734
0.000362587
0.000384777
0.000407308
0.000430184
0.000453408
0.000476986
0.000500922
0.000525222
0.000549889
0.000574929
0.000600347
0.000626149
0.00065234
0.000678926
0.000705911
0.000733302
0.000761104
0.000789323
0.000817964
0.000847034
0.000876538
0.000906483
0.000936873
0.000967716
0.000999016
0.00103078
0.00106301
0.00109572
0.00112891
0.00116258
0.00119675
0.00123142
0.00126658
0.00130226
0.00133844
0.00137515
0.00141238
0.00145013
0.00148841
0.00152723
0.00156659
0.00160649
0.00164694
0.00168793
0.00172947
0.00177156
0.0018142
0.00185738
0.00190111
0.00194539
0.00199022
0.00203558
0.00208149
0.00212793
0.0021749
0.00222239
0.0022704
0.00231891
0.00236791
0.0024174
0.00246736
0.00251778
0.00256863
0.0026199
0.00267157
0.00272362
0.00277601
0.00282873
0.00288174
0.00293501
0.0029885
0.00304217
0.00309599
2.92089e-06
2.19344e-05
3.75564e-05
5.31449e-05
6.95753e-05
8.65848e-05
0.000104054
0.000121924
0.00014016
0.000158744
0.000177662
0.000196909
0.000216481
0.000236375
0.000256591
0.00027713
0.000297994
0.000319185
0.000340706
0.00036256
0.000384751
0.000407282
0.000430158
0.000453383
0.000476961
0.000500898
0.000525198
0.000549865
0.000574906
0.000600325
0.000626128
0.000652319
0.000678905
0.000705891
0.000733282
0.000761084
0.000789304
0.000817946
0.000847016
0.000876521
0.000906466
0.000936857
0.0009677
0.000999001
0.00103076
0.001063
0.00109571
0.0011289
0.00116257
0.00119674
0.0012314
0.00126657
0.00130225
0.00133843
0.00137514
0.00141237
0.00145012
0.00148841
0.00152723
0.00156658
0.00160649
0.00164693
0.00168792
0.00172946
0.00177155
0.00181419
0.00185738
0.00190111
0.00194539
0.00199022
0.00203558
0.00208149
0.00212793
0.0021749
0.00222239
0.0022704
0.00231891
0.00236792
0.00241741
0.00246737
0.00251778
0.00256864
0.00261991
0.00267158
0.00272362
0.00277602
0.00282874
0.00288175
0.00293502
0.00298851
0.00304219
0.00309601
2.92019e-06
2.19155e-05
3.75411e-05
5.31273e-05
6.95557e-05
8.65641e-05
0.000104033
0.000121901
0.000140137
0.000158719
0.000177638
0.000196884
0.000216456
0.00023635
0.000256566
0.000277106
0.00029797
0.000319161
0.000340683
0.000362537
0.000384728
0.00040726
0.000430136
0.000453361
0.00047694
0.000500877
0.000525177
0.000549845
0.000574886
0.000600306
0.000626109
0.000652301
0.000678887
0.000705873
0.000733265
0.000761068
0.000789287
0.00081793
0.000847001
0.000876506
0.000906451
0.000936843
0.000967686
0.000998987
0.00103075
0.00106299
0.00109569
0.00112888
0.00116256
0.00119673
0.00123139
0.00126656
0.00130224
0.00133842
0.00137513
0.00141236
0.00145011
0.0014884
0.00152722
0.00156658
0.00160648
0.00164693
0.00168792
0.00172946
0.00177155
0.00181419
0.00185737
0.00190111
0.00194539
0.00199021
0.00203558
0.00208149
0.00212793
0.0021749
0.00222239
0.0022704
0.00231891
0.00236792
0.00241741
0.00246737
0.00251779
0.00256864
0.00261992
0.00267159
0.00272363
0.00277603
0.00282875
0.00288176
0.00293503
0.00298852
0.0030422
0.00309602
2.91999e-06
2.19073e-05
3.75322e-05
5.31152e-05
6.95425e-05
8.655e-05
0.000104017
0.000121885
0.000140119
0.000158701
0.000177618
0.000196865
0.000216435
0.000236329
0.000256545
0.000277085
0.000297949
0.000319141
0.000340662
0.000362517
0.000384708
0.00040724
0.000430117
0.000453342
0.000476922
0.000500859
0.000525159
0.000549828
0.000574869
0.000600289
0.000626092
0.000652284
0.000678871
0.000705858
0.00073325
0.000761053
0.000789273
0.000817916
0.000846987
0.000876493
0.000906438
0.00093683
0.000967674
0.000998975
0.00103074
0.00106297
0.00109568
0.00112887
0.00116255
0.00119672
0.00123138
0.00126655
0.00130223
0.00133842
0.00137512
0.00141235
0.00145011
0.00148839
0.00152721
0.00156657
0.00160648
0.00164692
0.00168791
0.00172946
0.00177155
0.00181418
0.00185737
0.00190111
0.00194539
0.00199021
0.00203558
0.00208149
0.00212793
0.0021749
0.0022224
0.0022704
0.00231892
0.00236793
0.00241742
0.00246738
0.0025178
0.00256865
0.00261992
0.00267159
0.00272364
0.00277604
0.00282876
0.00288177
0.00293504
0.00298853
0.00304221
0.00309603
2.91971e-06
2.19043e-05
3.75262e-05
5.31058e-05
6.95324e-05
8.65391e-05
0.000104006
0.000121872
0.000140106
0.000158687
0.000177603
0.000196849
0.000216419
0.000236312
0.000256528
0.000277067
0.000297932
0.000319123
0.000340645
0.000362499
0.000384691
0.000407223
0.0004301
0.000453326
0.000476905
0.000500843
0.000525144
0.000549812
0.000574854
0.000600274
0.000626078
0.00065227
0.000678857
0.000705844
0.000733236
0.00076104
0.00078926
0.000817904
0.000846975
0.000876481
0.000906427
0.000936819
0.000967663
0.000998965
0.00103073
0.00106296
0.00109567
0.00112886
0.00116254
0.00119671
0.00123138
0.00126654
0.00130222
0.00133841
0.00137512
0.00141235
0.0014501
0.00148839
0.00152721
0.00156657
0.00160647
0.00164692
0.00168791
0.00172945
0.00177154
0.00181418
0.00185737
0.0019011
0.00194539
0.00199021
0.00203558
0.00208149
0.00212793
0.0021749
0.0022224
0.00227041
0.00231892
0.00236793
0.00241742
0.00246738
0.0025178
0.00256866
0.00261993
0.0026716
0.00272365
0.00277605
0.00282877
0.00288178
0.00293505
0.00298854
0.00304222
0.00309604
2.9197e-06
2.19002e-05
3.75219e-05
5.30981e-05
6.95238e-05
8.65295e-05
0.000103996
0.000121861
0.000140094
0.000158674
0.00017759
0.000196835
0.000216404
0.000236297
0.000256513
0.000277052
0.000297916
0.000319107
0.000340629
0.000362484
0.000384675
0.000407208
0.000430085
0.000453311
0.000476891
0.000500829
0.00052513
0.000549799
0.000574841
0.000600261
0.000626065
0.000652258
0.000678845
0.000705832
0.000733225
0.000761029
0.000789249
0.000817893
0.000846965
0.000876471
0.000906417
0.00093681
0.000967654
0.000998956
0.00103072
0.00106296
0.00109567
0.00112886
0.00116253
0.0011967
0.00123137
0.00126654
0.00130221
0.0013384
0.00137511
0.00141234
0.0014501
0.00148838
0.00152721
0.00156657
0.00160647
0.00164691
0.00168791
0.00172945
0.00177154
0.00181418
0.00185737
0.0019011
0.00194538
0.00199021
0.00203558
0.00208149
0.00212793
0.00217491
0.0022224
0.00227041
0.00231892
0.00236793
0.00241743
0.00246739
0.00251781
0.00256866
0.00261994
0.00267161
0.00272366
0.00277606
0.00282878
0.00288179
0.00293506
0.00298856
0.00304223
0.00309606
2.91994e-06
2.18967e-05
3.75191e-05
5.30918e-05
6.95163e-05
8.65213e-05
0.000103987
0.000121852
0.000140084
0.000158663
0.000177579
0.000196823
0.000216392
0.000236284
0.000256499
0.000277038
0.000297902
0.000319093
0.000340615
0.00036247
0.000384661
0.000407194
0.000430071
0.000453298
0.000476878
0.000500816
0.000525117
0.000549786
0.000574829
0.000600249
0.000626053
0.000652247
0.000678834
0.000705821
0.000733214
0.000761018
0.000789239
0.000817883
0.000846955
0.000876462
0.000906408
0.000936801
0.000967646
0.000998948
0.00103071
0.00106295
0.00109566
0.00112885
0.00116253
0.0011967
0.00123136
0.00126653
0.00130221
0.0013384
0.00137511
0.00141234
0.00145009
0.00148838
0.0015272
0.00156656
0.00160647
0.00164691
0.00168791
0.00172945
0.00177154
0.00181418
0.00185737
0.0019011
0.00194538
0.00199021
0.00203558
0.00208149
0.00212793
0.00217491
0.0022224
0.00227041
0.00231893
0.00236794
0.00241743
0.0024674
0.00251781
0.00256867
0.00261994
0.00267162
0.00272367
0.00277606
0.00282879
0.0028818
0.00293507
0.00298857
0.00304225
0.00309607
2.92027e-06
2.18947e-05
3.75174e-05
5.3087e-05
6.95101e-05
8.65142e-05
0.000103979
0.000121844
0.000140076
0.000158654
0.000177569
0.000196812
0.000216381
0.000236273
0.000256487
0.000277026
0.00029789
0.000319081
0.000340602
0.000362457
0.000384649
0.000407181
0.000430059
0.000453285
0.000476866
0.000500804
0.000525105
0.000549775
0.000574818
0.000600238
0.000626043
0.000652236
0.000678824
0.000705812
0.000733205
0.000761009
0.000789231
0.000817875
0.000846947
0.000876454
0.000906401
0.000936794
0.000967638
0.000998941
0.00103071
0.00106294
0.00109565
0.00112884
0.00116252
0.00119669
0.00123136
0.00126653
0.0013022
0.00133839
0.0013751
0.00141233
0.00145009
0.00148838
0.0015272
0.00156656
0.00160646
0.00164691
0.0016879
0.00172945
0.00177154
0.00181418
0.00185736
0.0019011
0.00194538
0.00199021
0.00203558
0.00208149
0.00212794
0.00217491
0.00222241
0.00227042
0.00231893
0.00236794
0.00241744
0.0024674
0.00251782
0.00256868
0.00261995
0.00267163
0.00272367
0.00277607
0.0028288
0.00288181
0.00293508
0.00298858
0.00304226
0.00309608
2.92063e-06
2.18935e-05
3.75167e-05
5.30834e-05
6.95049e-05
8.65081e-05
0.000103973
0.000121837
0.000140068
0.000158646
0.00017756
0.000196803
0.000216371
0.000236263
0.000256477
0.000277015
0.000297879
0.00031907
0.000340591
0.000362446
0.000384638
0.00040717
0.000430048
0.000453274
0.000476855
0.000500793
0.000525095
0.000549765
0.000574807
0.000600229
0.000626033
0.000652227
0.000678815
0.000705803
0.000733196
0.000761001
0.000789223
0.000817867
0.00084694
0.000876447
0.000906394
0.000936787
0.000967632
0.000998935
0.0010307
0.00106294
0.00109565
0.00112884
0.00116252
0.00119669
0.00123135
0.00126652
0.0013022
0.00133839
0.0013751
0.00141233
0.00145009
0.00148837
0.0015272
0.00156656
0.00160646
0.00164691
0.0016879
0.00172945
0.00177154
0.00181418
0.00185736
0.0019011
0.00194538
0.00199021
0.00203558
0.00208149
0.00212794
0.00217491
0.00222241
0.00227042
0.00231894
0.00236795
0.00241744
0.00246741
0.00251783
0.00256868
0.00261996
0.00267163
0.00272368
0.00277608
0.00282881
0.00288182
0.00293509
0.00298859
0.00304227
0.00309609
2.92101e-06
2.18927e-05
3.75167e-05
5.30808e-05
6.95005e-05
8.65028e-05
0.000103967
0.000121831
0.000140062
0.000158639
0.000177553
0.000196795
0.000216363
0.000236254
0.000256468
0.000277005
0.000297869
0.00031906
0.000340581
0.000362435
0.000384627
0.00040716
0.000430037
0.000453264
0.000476844
0.000500783
0.000525085
0.000549755
0.000574798
0.000600219
0.000626024
0.000652218
0.000678807
0.000705795
0.000733188
0.000760993
0.000789215
0.00081786
0.000846933
0.00087644
0.000906388
0.000936781
0.000967626
0.000998929
0.0010307
0.00106293
0.00109564
0.00112883
0.00116251
0.00119668
0.00123135
0.00126652
0.0013022
0.00133839
0.0013751
0.00141233
0.00145008
0.00148837
0.0015272
0.00156656
0.00160646
0.00164691
0.0016879
0.00172944
0.00177154
0.00181418
0.00185736
0.0019011
0.00194539
0.00199021
0.00203559
0.0020815
0.00212794
0.00217492
0.00222241
0.00227042
0.00231894
0.00236795
0.00241745
0.00246741
0.00251783
0.00256869
0.00261997
0.00267164
0.00272369
0.00277609
0.00282882
0.00288183
0.0029351
0.0029886
0.00304228
0.00309611
2.92139e-06
2.18924e-05
3.75174e-05
5.3079e-05
6.94969e-05
8.64983e-05
0.000103962
0.000121825
0.000140056
0.000158633
0.000177546
0.000196788
0.000216355
0.000236246
0.000256459
0.000276997
0.00029786
0.00031905
0.000340571
0.000362426
0.000384618
0.00040715
0.000430028
0.000453255
0.000476835
0.000500774
0.000525076
0.000549746
0.000574789
0.000600211
0.000626016
0.00065221
0.000678799
0.000705787
0.000733181
0.000760986
0.000789209
0.000817853
0.000846927
0.000876434
0.000906382
0.000936776
0.000967621
0.000998924
0.00103069
0.00106293
0.00109564
0.00112883
0.00116251
0.00119668
0.00123135
0.00126652
0.0013022
0.00133839
0.00137509
0.00141233
0.00145008
0.00148837
0.0015272
0.00156656
0.00160646
0.00164691
0.0016879
0.00172944
0.00177154
0.00181418
0.00185737
0.0019011
0.00194539
0.00199022
0.00203559
0.0020815
0.00212795
0.00217492
0.00222242
0.00227043
0.00231895
0.00236796
0.00241746
0.00246742
0.00251784
0.0025687
0.00261998
0.00267165
0.0027237
0.0027761
0.00282883
0.00288184
0.00293512
0.00298861
0.0030423
0.00309612
2.92175e-06
2.18925e-05
3.75186e-05
5.30781e-05
6.94941e-05
8.64944e-05
0.000103957
0.00012182
0.000140051
0.000158628
0.00017754
0.000196782
0.000216349
0.000236239
0.000256452
0.000276989
0.000297852
0.000319042
0.000340563
0.000362418
0.000384609
0.000407142
0.000430019
0.000453246
0.000476827
0.000500766
0.000525068
0.000549738
0.000574781
0.000600203
0.000626009
0.000652203
0.000678792
0.00070578
0.000733174
0.00076098
0.000789202
0.000817847
0.000846921
0.000876429
0.000906377
0.000936771
0.000967617
0.00099892
0.00103069
0.00106292
0.00109564
0.00112883
0.00116251
0.00119668
0.00123134
0.00126651
0.00130219
0.00133838
0.00137509
0.00141232
0.00145008
0.00148837
0.0015272
0.00156656
0.00160646
0.00164691
0.0016879
0.00172945
0.00177154
0.00181418
0.00185737
0.0019011
0.00194539
0.00199022
0.00203559
0.0020815
0.00212795
0.00217492
0.00222242
0.00227043
0.00231895
0.00236797
0.00241746
0.00246743
0.00251785
0.00256871
0.00261998
0.00267166
0.00272371
0.00277611
0.00282884
0.00288185
0.00293513
0.00298863
0.00304231
0.00309613
2.9221e-06
2.18928e-05
3.75203e-05
5.30777e-05
6.9492e-05
8.64911e-05
0.000103953
0.000121816
0.000140046
0.000158623
0.000177535
0.000196776
0.000216343
0.000236232
0.000256445
0.000276982
0.000297845
0.000319035
0.000340556
0.00036241
0.000384601
0.000407134
0.000430012
0.000453238
0.000476819
0.000500758
0.00052506
0.000549731
0.000574774
0.000600196
0.000626001
0.000652196
0.000678785
0.000705774
0.000733168
0.000760974
0.000789197
0.000817842
0.000846916
0.000876424
0.000906372
0.000936766
0.000967612
0.000998916
0.00103068
0.00106292
0.00109563
0.00112882
0.0011625
0.00119667
0.00123134
0.00126651
0.00130219
0.00133838
0.00137509
0.00141232
0.00145008
0.00148837
0.0015272
0.00156656
0.00160646
0.00164691
0.0016879
0.00172945
0.00177154
0.00181418
0.00185737
0.00190111
0.00194539
0.00199022
0.00203559
0.00208151
0.00212795
0.00217493
0.00222243
0.00227044
0.00231896
0.00236797
0.00241747
0.00246744
0.00251786
0.00256872
0.00261999
0.00267167
0.00272372
0.00277612
0.00282885
0.00288186
0.00293514
0.00298864
0.00304232
0.00309615
2.92243e-06
2.18933e-05
3.75222e-05
5.3078e-05
6.94905e-05
8.64884e-05
0.00010395
0.000121812
0.000140042
0.000158618
0.000177531
0.000196771
0.000216337
0.000236227
0.000256439
0.000276976
0.000297838
0.000319028
0.000340549
0.000362403
0.000384594
0.000407127
0.000430004
0.000453231
0.000476812
0.000500751
0.000525053
0.000549724
0.000574767
0.000600189
0.000625995
0.00065219
0.000678779
0.000705768
0.000733162
0.000760968
0.000789191
0.000817837
0.000846911
0.000876419
0.000906368
0.000936762
0.000967608
0.000998913
0.00103068
0.00106292
0.00109563
0.00112882
0.0011625
0.00119667
0.00123134
0.00126651
0.00130219
0.00133838
0.00137509
0.00141232
0.00145008
0.00148837
0.0015272
0.00156656
0.00160646
0.00164691
0.00168791
0.00172945
0.00177154
0.00181418
0.00185737
0.00190111
0.00194539
0.00199023
0.0020356
0.00208151
0.00212796
0.00217493
0.00222243
0.00227045
0.00231896
0.00236798
0.00241748
0.00246744
0.00251786
0.00256872
0.00262
0.00267168
0.00272373
0.00277613
0.00282886
0.00288188
0.00293515
0.00298865
0.00304233
0.00309616
2.92272e-06
2.18939e-05
3.75243e-05
5.30788e-05
6.94897e-05
8.64862e-05
0.000103947
0.000121809
0.000140038
0.000158614
0.000177526
0.000196767
0.000216333
0.000236222
0.000256434
0.00027697
0.000297832
0.000319022
0.000340542
0.000362397
0.000384588
0.00040712
0.000429998
0.000453225
0.000476805
0.000500744
0.000525047
0.000549717
0.000574761
0.000600183
0.000625989
0.000652184
0.000678773
0.000705762
0.000733157
0.000760963
0.000789186
0.000817832
0.000846906
0.000876415
0.000906363
0.000936758
0.000967605
0.000998909
0.00103068
0.00106291
0.00109563
0.00112882
0.0011625
0.00119667
0.00123134
0.00126651
0.00130219
0.00133838
0.00137509
0.00141232
0.00145008
0.00148837
0.0015272
0.00156656
0.00160646
0.00164691
0.00168791
0.00172945
0.00177154
0.00181418
0.00185737
0.00190111
0.0019454
0.00199023
0.0020356
0.00208152
0.00212796
0.00217494
0.00222244
0.00227045
0.00231897
0.00236799
0.00241748
0.00246745
0.00251787
0.00256873
0.00262001
0.00267169
0.00272374
0.00277615
0.00282887
0.00288189
0.00293516
0.00298866
0.00304234
0.00309617
2.923e-06
2.18947e-05
3.75267e-05
5.308e-05
6.94893e-05
8.64846e-05
0.000103944
0.000121806
0.000140034
0.000158611
0.000177522
0.000196763
0.000216328
0.000236217
0.000256429
0.000276965
0.000297827
0.000319017
0.000340537
0.000362391
0.000384582
0.000407114
0.000429992
0.000453219
0.000476799
0.000500738
0.000525041
0.000549711
0.000574755
0.000600177
0.000625983
0.000652178
0.000678768
0.000705757
0.000733152
0.000760958
0.000789182
0.000817827
0.000846902
0.000876411
0.00090636
0.000936755
0.000967602
0.000998906
0.00103067
0.00106291
0.00109562
0.00112882
0.0011625
0.00119667
0.00123134
0.00126651
0.00130219
0.00133838
0.00137509
0.00141232
0.00145008
0.00148837
0.0015272
0.00156656
0.00160647
0.00164692
0.00168791
0.00172945
0.00177154
0.00181419
0.00185738
0.00190111
0.0019454
0.00199023
0.00203561
0.00208152
0.00212797
0.00217495
0.00222244
0.00227046
0.00231898
0.00236799
0.00241749
0.00246746
0.00251788
0.00256874
0.00262002
0.0026717
0.00272375
0.00277616
0.00282888
0.0028819
2.92325e-06
2.18956e-05
3.75291e-05
5.30816e-05
6.94895e-05
8.64835e-05
0.000103942
0.000121803
0.000140031
0.000158607
0.000177519
0.000196759
0.000216324
0.000236213
0.000256425
0.000276961
0.000297822
0.000319012
0.000340532
0.000362385
0.000384577
0.000407109
0.000429986
0.000453213
0.000476794
0.000500733
0.000525035
0.000549706
0.00057475
0.000600172
0.000625978
0.000652173
0.000678763
0.000705752
0.000733147
0.000760954
0.000789177
0.000817823
0.000846898
0.000876407
0.000906356
0.000936752
0.000967599
0.000998904
0.00103067
0.00106291
0.00109562
0.00112882
0.0011625
0.00119667
0.00123134
0.00126651
0.00130219
0.00133838
0.00137509
0.00141233
0.00145008
0.00148838
0.0015272
0.00156656
0.00160647
0.00164692
0.00168791
0.00172946
0.00177155
0.00181419
0.00185738
0.00190112
0.0019454
0.00199024
0.00203561
0.00208153
0.00212797
0.00217495
0.00222245
0.00227047
0.00231899
0.002368
0.0024175
0.00246747
0.00251789
0.00256875
0.00262003
0.00267171
0.00272377
0.00277617
0.00282889
0.00288191
2.92348e-06
2.18966e-05
3.75317e-05
5.30835e-05
6.94901e-05
8.64829e-05
0.000103941
0.000121801
0.000140029
0.000158604
0.000177516
0.000196756
0.000216321
0.000236209
0.000256421
0.000276956
0.000297818
0.000319007
0.000340527
0.000362381
0.000384572
0.000407104
0.000429981
0.000453208
0.000476789
0.000500728
0.00052503
0.000549701
0.000574745
0.000600167
0.000625973
0.000652168
0.000678758
0.000705748
0.000733143
0.00076095
0.000789173
0.00081782
0.000846895
0.000876404
0.000906353
0.000936749
0.000967596
0.000998901
0.00103067
0.00106291
0.00109562
0.00112881
0.0011625
0.00119667
0.00123134
0.00126651
0.00130219
0.00133838
0.00137509
0.00141233
0.00145009
0.00148838
0.0015272
0.00156657
0.00160647
0.00164692
0.00168792
0.00172946
0.00177155
0.00181419
0.00185738
0.00190112
0.00194541
0.00199024
0.00203562
0.00208153
0.00212798
0.00217496
0.00222246
0.00227047
0.00231899
0.00236801
0.00241751
0.00246748
0.0025179
0.00256876
0.00262005
0.00267172
0.00272378
0.00277618
0.0028289
0.00288192
2.92369e-06
2.18977e-05
3.75343e-05
5.30857e-05
6.94911e-05
8.64827e-05
0.000103939
0.000121799
0.000140026
0.000158602
0.000177513
0.000196753
0.000216317
0.000236206
0.000256417
0.000276953
0.000297814
0.000319003
0.000340523
0.000362376
0.000384567
0.000407099
0.000429977
0.000453203
0.000476784
0.000500723
0.000525026
0.000549696
0.00057474
0.000600163
0.000625969
0.000652164
0.000678754
0.000705744
0.000733139
0.000760946
0.00078917
0.000817816
0.000846891
0.000876401
0.00090635
0.000936746
0.000967594
0.000998899
0.00103067
0.00106291
0.00109562
0.00112881
0.00116249
0.00119667
0.00123134
0.00126651
0.00130219
0.00133838
0.00137509
0.00141233
0.00145009
0.00148838
0.0015272
0.00156657
0.00160647
0.00164692
0.00168792
0.00172946
0.00177155
0.0018142
0.00185739
0.00190113
0.00194541
0.00199025
0.00203562
0.00208154
0.00212799
0.00217496
0.00222247
0.00227048
0.002319
0.00236802
0.00241752
0.00246749
0.00251791
0.00256878
0.00262006
0.00267174
0.00272379
2.92388e-06
2.18988e-05
3.75369e-05
5.30881e-05
6.94925e-05
8.64829e-05
0.000103939
0.000121797
0.000140024
0.000158599
0.00017751
0.00019675
0.000216314
0.000236203
0.000256414
0.000276949
0.00029781
0.000318999
0.000340519
0.000362372
0.000384563
0.000407095
0.000429972
0.000453199
0.00047678
0.000500719
0.000525021
0.000549692
0.000574736
0.000600159
0.000625965
0.00065216
0.00067875
0.00070574
0.000733136
0.000760943
0.000789166
0.000817813
0.000846888
0.000876398
0.000906348
0.000936744
0.000967591
0.000998897
0.00103067
0.0010629
0.00109562
0.00112881
0.00116249
0.00119667
0.00123134
0.00126651
0.00130219
0.00133838
0.0013751
0.00141233
0.00145009
0.00148838
0.00152721
0.00156657
0.00160648
0.00164693
0.00168792
0.00172947
0.00177156
0.0018142
0.00185739
0.00190113
0.00194542
0.00199025
0.00203563
0.00208154
0.00212799
0.00217497
0.00222247
0.00227049
0.00231901
0.00236803
0.00241753
0.0024675
0.00251792
0.00256879
0.00262007
0.00267175
0.0027238
2.92405e-06
2.18999e-05
3.75395e-05
5.30906e-05
6.94942e-05
8.64836e-05
0.000103938
0.000121796
0.000140023
0.000158597
0.000177508
0.000196747
0.000216312
0.0002362
0.000256411
0.000276946
0.000297807
0.000318996
0.000340515
0.000362368
0.000384559
0.000407091
0.000429968
0.000453195
0.000476776
0.000500715
0.000525018
0.000549688
0.000574732
0.000600155
0.000625961
0.000652157
0.000678747
0.000705737
0.000733132
0.000760939
0.000789163
0.00081781
0.000846886
0.000876395
0.000906345
0.000936741
0.000967589
0.000998895
0.00103066
0.0010629
0.00109562
0.00112881
0.00116249
0.00119667
0.00123134
0.00126651
0.00130219
0.00133838
0.0013751
0.00141233
0.00145009
0.00148838
0.00152721
0.00156657
0.00160648
0.00164693
0.00168793
0.00172947
0.00177156
0.0018142
0.0018574
0.00190114
0.00194542
0.00199026
0.00203563
0.00208155
0.002128
0.00217498
0.00222248
0.0022705
0.00231902
0.00236804
0.00241754
0.00246751
0.00251793
0.0025688
0.00262008
0.00267176
0.00272381
2.92421e-06
2.19011e-05
3.7542e-05
5.30934e-05
6.94962e-05
8.64846e-05
0.000103938
0.000121795
0.000140021
0.000158595
0.000177506
0.000196745
0.000216309
0.000236197
0.000256408
0.000276943
0.000297804
0.000318992
0.000340512
0.000362365
0.000384556
0.000407088
0.000429965
0.000453192
0.000476772
0.000500711
0.000525014
0.000549685
0.000574729
0.000600152
0.000625958
0.000652153
0.000678744
0.000705734
0.000733129
0.000760937
0.000789161
0.000817808
0.000846883
0.000876393
0.000906343
0.000936739
0.000967588
0.000998894
0.00103066
0.0010629
0.00109562
0.00112881
0.00116249
0.00119667
0.00123134
0.00126651
0.00130219
0.00133839
0.0013751
0.00141233
0.00145009
0.00148839
0.00152721
0.00156658
0.00160648
0.00164693
0.00168793
0.00172947
0.00177157
0.00181421
0.0018574
0.00190114
0.00194543
0.00199026
0.00203564
0.00208156
0.00212801
0.00217499
0.00222249
0.00227051
0.00231903
0.00236805
0.00241755
0.00246752
0.00251795
0.00256881
0.00262009
0.00267177
0.00272382
2.92435e-06
2.19023e-05
3.75446e-05
5.30962e-05
6.94985e-05
8.64859e-05
0.000103939
0.000121795
0.00014002
0.000158594
0.000177504
0.000196743
0.000216307
0.000236195
0.000256405
0.00027694
0.000297801
0.000318989
0.000340509
0.000362362
0.000384553
0.000407084
0.000429962
0.000453188
0.000476769
0.000500708
0.000525011
0.000549682
0.000574726
0.000600148
0.000625955
0.000652151
0.000678741
0.000705731
0.000733127
0.000760934
0.000789158
0.000817805
0.000846881
0.000876391
0.000906341
0.000936738
0.000967586
0.000998892
0.00103066
0.0010629
0.00109562
0.00112881
0.00116249
0.00119667
0.00123134
0.00126651
0.00130219
0.00133839
0.0013751
0.00141233
0.0014501
0.00148839
0.00152721
0.00156658
0.00160649
0.00164694
0.00168793
0.00172948
0.00177157
0.00181421
0.0018574
0.00190115
0.00194543
0.00199027
0.00203565
0.00208156
0.00212801
0.00217499
0.0022225
0.00227052
0.00231904
0.00236806
0.00241756
0.00246753
0.00251796
0.00256882
0.00262011
0.00267178
0.00272383
2.92449e-06
2.19036e-05
3.75471e-05
5.30991e-05
6.95009e-05
8.64875e-05
0.000103939
0.000121795
0.00014002
0.000158593
0.000177502
0.000196741
0.000216305
0.000236193
0.000256403
0.000276938
0.000297798
0.000318987
0.000340506
0.000362359
0.00038455
0.000407081
0.000429959
0.000453185
0.000476766
0.000500705
0.000525008
0.000549679
0.000574723
0.000600146
0.000625952
0.000652148
0.000678738
0.000705728
0.000733124
0.000760932
0.000789156
0.000817803
0.000846879
0.000876389
0.00090634
0.000936736
0.000967585
0.000998891
0.00103066
0.0010629
0.00109562
0.00112881
0.00116249
0.00119667
0.00123134
0.00126651
0.00130219
0.00133839
0.0013751
0.00141234
0.0014501
0.00148839
0.00152722
0.00156658
0.00160649
0.00164694
0.00168794
0.00172948
0.00177157
0.00181422
0.00185741
0.00190115
0.00194544
0.00199028
0.00203565
0.00208157
0.00212802
0.002175
0.00222251
0.00227053
0.00231905
0.00236807
0.00241757
0.00246754
0.00251797
0.00256884
0.00262012
0.0026718
0.00272385
2.92461e-06
2.19048e-05
3.75495e-05
5.3102e-05
6.95036e-05
8.64895e-05
0.000103941
0.000121795
0.000140019
0.000158592
0.000177501
0.00019674
0.000216303
0.000236191
0.000256401
0.000276936
0.000297796
0.000318984
0.000340503
0.000362356
0.000384547
0.000407079
0.000429956
0.000453182
0.000476763
0.000500702
0.000525005
0.000549676
0.00057472
0.000600143
0.00062595
0.000652145
0.000678736
0.000705726
0.000733122
0.00076093
0.000789154
0.000817802
0.000846878
0.000876388
0.000906339
0.000936735
0.000967584
0.00099889
0.00103066
0.0010629
0.00109561
0.00112881
0.00116249
0.00119667
0.00123134
0.00126651
0.00130219
0.00133839
0.0013751
0.00141234
0.0014501
0.00148839
0.00152722
0.00156659
0.00160649
0.00164694
0.00168794
0.00172949
0.00177158
0.00181422
0.00185742
0.00190116
0.00194545
0.00199028
0.00203566
0.00208158
0.00212803
0.00217501
0.00222252
0.00227053
0.00231906
0.00236808
0.00241758
0.00246756
0.00251798
0.00256885
0.00262013
0.00267181
0.00272386
2.92473e-06
2.19061e-05
3.75519e-05
5.3105e-05
6.95064e-05
8.64917e-05
0.000103942
0.000121796
0.000140019
0.000158591
0.0001775
0.000196738
0.000216302
0.000236189
0.000256399
0.000276934
0.000297794
0.000318982
0.000340501
0.000362354
0.000384545
0.000407076
0.000429953
0.00045318
0.000476761
0.0005007
0.000525003
0.000549674
0.000574718
0.000600141
0.000625947
0.000652143
0.000678734
0.000705724
0.00073312
0.000760928
0.000789153
0.0008178
0.000846876
0.000876387
0.000906337
0.000936734
0.000967583
0.00099889
0.00103066
0.0010629
0.00109562
0.00112881
0.00116249
0.00119667
0.00123134
0.00126651
0.0013022
0.00133839
0.00137511
0.00141234
0.0014501
0.0014884
0.00152722
0.00156659
0.0016065
0.00164695
0.00168795
0.00172949
0.00177158
0.00181423
0.00185742
0.00190116
0.00194545
0.00199029
0.00203567
0.00208159
0.00212804
0.00217502
0.00222253
0.00227055
0.00231907
0.00236809
0.0024176
0.00246757
0.002518
0.00256886
0.00262014
0.00267182
0.00272387
2.92484e-06
2.19073e-05
3.75541e-05
5.3108e-05
6.95093e-05
8.64941e-05
0.000103944
0.000121797
0.00014002
0.000158591
0.000177499
0.000196737
0.000216301
0.000236187
0.000256398
0.000276932
0.000297792
0.00031898
0.000340499
0.000362352
0.000384542
0.000407074
0.000429951
0.000453178
0.000476758
0.000500698
0.000525
0.000549671
0.000574716
0.000600139
0.000625945
0.000652141
0.000678732
0.000705722
0.000733119
0.000760926
0.000789151
0.000817799
0.000846875
0.000876386
0.000906337
0.000936734
0.000967583
0.00099889
0.00103066
0.0010629
0.00109562
0.00112881
0.00116249
0.00119667
0.00123134
0.00126652
0.0013022
0.00133839
0.00137511
0.00141234
0.00145011
0.0014884
0.00152723
0.00156659
0.0016065
0.00164695
0.00168795
0.00172949
0.00177159
0.00181423
0.00185743
0.00190117
0.00194546
0.0019903
0.00203567
0.00208159
0.00212805
0.00217503
0.00222254
0.00227056
0.00231908
0.0023681
0.00241761
0.00246758
0.00251801
0.00256888
0.00262016
0.00267184
0.00272389
2.92495e-06
2.19086e-05
3.75564e-05
5.31109e-05
6.95123e-05
8.64966e-05
0.000103946
0.000121798
0.00014002
0.000158591
0.000177499
0.000196737
0.000216299
0.000236186
0.000256396
0.00027693
0.00029779
0.000318978
0.000340497
0.00036235
0.00038454
0.000407072
0.000429949
0.000453176
0.000476756
0.000500695
0.000524998
0.000549669
0.000574714
0.000600137
0.000625944
0.00065214
0.00067873
0.000705721
0.000733117
0.000760925
0.00078915
0.000817798
0.000846874
0.000876385
0.000906336
0.000936733
0.000967582
0.000998889
0.00103066
0.0010629
0.00109562
0.00112881
0.00116249
0.00119667
0.00123134
0.00126652
0.0013022
0.0013384
0.00137511
0.00141235
0.00145011
0.0014884
0.00152723
0.0015666
0.00160651
0.00164696
0.00168795
0.0017295
0.00177159
0.00181424
0.00185743
0.00190118
0.00194547
0.0019903
0.00203568
0.0020816
0.00212806
0.00217504
0.00222255