/*--------------------------------*- C++ -*----------------------------------*\
  =========                 |
  \\      /  F ield         | OpenFOAM: The Open Source CFD Toolbox
   \\    /   O peration     | Website:  https://openfoam.org
    \\  /    A nd           | Version:  10
     \\/     M anipulation  |
\*---------------------------------------------------------------------------*/
FoamFile
{
    format      ascii;
    class       volVectorField;
    location    "44000";
    object      Urel;
}
// * * * * * * * * * * * * * * * * * * * * * * * * * * * * * * * * * * * * * //

dimensions      [0 1 -1 0 0 0 0];

internalField   nonuniform List<vector> 
17808
(
(4.25585 -4.66631 -5.9867e-18)
(3.92165 -4.29514 -6.7285e-19)
(3.77157 -4.12998 4.35563e-18)
(3.66731 -4.01944 4.7032e-18)
(3.5889 -3.93376 -1.10667e-18)
(3.52522 -3.86458 -7.82982e-18)
(3.47173 -3.80617 3.94262e-18)
(3.42541 -3.7555 -4.19647e-18)
(3.38445 -3.7106 7.07618e-18)
(3.34762 -3.67017 -1.30175e-21)
(3.31407 -3.6333 -3.20599e-18)
(3.28317 -3.59931 2.29478e-18)
(3.25447 -3.56771 -3.29601e-18)
(3.22761 -3.53813 3.50993e-19)
(3.20233 -3.51025 0)
(3.17839 -3.48385 3.24272e-19)
(3.15561 -3.45873 -6.24868e-19)
(3.13387 -3.43473 -6.02839e-19)
(3.11302 -3.41172 -2.61943e-18)
(3.09297 -3.38958 2.18138e-21)
(3.07364 -3.36823 2.18222e-18)
(3.05495 -3.34759 0)
(3.03683 -3.32757 2.04954e-18)
(3.01923 -3.30813 -1.99219e-18)
(3.0021 -3.28921 1.93359e-18)
(2.98541 -3.27076 -2.35294e-18)
(2.9691 -3.25274 -4.57673e-19)
(2.95315 -3.23512 0)
(2.93753 -3.21786 -4.34243e-19)
(2.92222 -3.20093 -4.23267e-19)
(2.90717 -3.18431 1.65014e-18)
(2.89238 -3.16797 -1.20969e-18)
(2.87783 -3.15189 0)
(2.86349 -3.13606 0)
(2.84936 -3.12044 3.75149e-19)
(2.8354 -3.10503 1.83192e-18)
(2.82162 -3.08981 -1.07641e-18)
(2.80799 -3.07477 0)
(2.79451 -3.05989 -1.36969e-18)
(2.78117 -3.04516 2.49065e-21)
(2.76794 -3.03057 1.96957e-18)
(2.75484 -3.01611 1.92492e-18)
(2.74183 -3.00176 -1.25816e-18)
(2.72892 -2.98753 6.15146e-19)
(2.7161 -2.97339 0)
(2.70336 -2.95935 -5.89639e-19)
(2.6907 -2.94539 1.73084e-18)
(2.6781 -2.93151 -2.26279e-18)
(2.66556 -2.91769 5.53664e-19)
(2.65308 -2.90394 0)
(2.64064 -2.89025 0)
(2.62825 -2.8766 1.55859e-18)
(2.61589 -2.863 -5.10516e-19)
(2.60356 -2.84944 0)
(2.59127 -2.83591 4.88234e-19)
(2.57899 -2.82242 4.78065e-19)
(2.56674 -2.80894 -4.68057e-19)
(2.55449 -2.79548 -4.58203e-19)
(2.54226 -2.78203 -4.4853e-19)
(2.53003 -2.7686 8.76688e-19)
(2.51781 -2.75517 -1.33856e-21)
(2.50558 -2.74173 8.39506e-19)
(2.49334 -2.7283 -8.24063e-19)
(2.4811 -2.71485 -8.04826e-19)
(2.46884 -2.7014 -1.57302e-18)
(2.45656 -2.68792 7.69806e-19)
(2.44426 -2.67443 -1.50677e-18)
(2.43194 -2.66091 1.47167e-18)
(2.41959 -2.64737 0)
(2.40721 -2.63379 7.0281e-19)
(2.39479 -2.62018 1.37188e-18)
(2.38234 -2.60653 -6.73446e-19)
(2.36984 -2.59284 -6.56355e-19)
(2.35731 -2.5791 6.3949e-19)
(2.34472 -2.56532 -1.37785e-21)
(2.33209 -2.55148 -1.82745e-18)
(2.3194 -2.53758 1.19e-18)
(2.30665 -2.52362 0)
(2.29384 -2.5096 -5.66648e-19)
(2.28097 -2.49552 -1.65458e-18)
(2.26804 -2.48136 0)
(2.25503 -2.46713 0)
(2.24195 -2.45282 1.0195e-18)
(2.2288 -2.43843 0)
(2.21557 -2.42395 9.66546e-19)
(2.20225 -2.40939 0)
(2.18885 -2.39473 -1.85281e-23)
(2.17536 -2.37998 0)
(2.16177 -2.36513 0)
(2.14809 -2.35018 8.41646e-19)
(2.13431 -2.33512 1.63595e-18)
(2.12043 -2.31995 1.58947e-18)
(4.2418 -4.66702 -6.70576e-19)
(3.91222 -4.29593 6.63226e-19)
(3.76163 -4.13384 0)
(3.65902 -4.02327 0)
(3.58129 -3.93811 1.10431e-18)
(3.51793 -3.86948 -5.19216e-19)
(3.46459 -3.81154 3.91669e-18)
(3.41832 -3.76127 -3.23996e-18)
(3.37737 -3.71669 -4.38645e-19)
(3.34051 -3.67652 3.33157e-18)
(3.30692 -3.63985 -3.57092e-18)
(3.27599 -3.60602 7.57299e-19)
(3.24725 -3.57455 3.62166e-19)
(3.22037 -3.54505 -3.471e-19)
(3.19505 -3.51725 0)
(3.17109 -3.4909 -3.2052e-19)
(3.1483 -3.46581 3.0874e-19)
(3.12654 -3.44184 2.97818e-19)
(3.10568 -3.41884 0)
(3.08563 -3.39671 0)
(3.0663 -3.37536 0)
(3.04761 -3.35471 -5.22006e-19)
(3.02949 -3.33469 0)
(3.0119 -3.31523 -4.91699e-19)
(2.99478 -3.29629 0)
(2.97809 -3.27783 4.64685e-19)
(2.9618 -3.25979 4.5228e-19)
(2.94586 -3.24214 0)
(2.93025 -3.22486 -1.71545e-18)
(2.91495 -3.20791 4.20768e-19)
(2.89992 -3.19126 1.2256e-18)
(2.88515 -3.1749 -3.98316e-19)
(2.87061 -3.15879 1.55448e-18)
(2.85629 -3.14293 -3.4189e-18)
(2.84217 -3.12728 1.11475e-18)
(2.82824 -3.11185 -3.6281e-19)
(2.81447 -3.0966 -7.09513e-19)
(2.80087 -3.08153 0)
(2.78741 -3.06662 0)
(2.77408 -3.05186 1.65943e-18)
(2.76088 -3.03724 -1.3015e-18)
(2.74779 -3.02274 -4.38216e-23)
(2.73481 -3.00837 -6.23108e-19)
(2.72193 -2.9941 -1.22025e-18)
(2.70913 -2.97994 -5.96249e-19)
(2.69641 -2.96586 1.75689e-18)
(2.68377 -2.95187 -1.14513e-18)
(2.6712 -2.93796 1.68576e-18)
(2.65868 -2.92412 -1.64882e-18)
(2.64622 -2.91033 1.07898e-18)
(2.63381 -2.89661 -1.05448e-18)
(2.62144 -2.88293 1.03561e-18)
(2.60911 -2.8693 -5.06648e-19)
(2.59682 -2.85571 0)
(2.58455 -2.84215 -4.862e-19)
(2.5723 -2.82862 0)
(2.56007 -2.81512 0)
(2.54785 -2.80163 4.56874e-19)
(2.53565 -2.78815 1.3461e-21)
(2.52345 -2.77468 8.77582e-19)
(2.51125 -2.76122 -8.57921e-19)
(2.49905 -2.74776 8.39897e-19)
(2.48684 -2.73429 0)
(2.47462 -2.72081 0)
(2.46239 -2.70733 1.57345e-18)
(2.45015 -2.69382 -7.7042e-19)
(2.43788 -2.6803 1.50869e-18)
(2.42559 -2.66675 -1.38725e-21)
(2.41327 -2.65318 -7.22208e-19)
(2.40092 -2.63957 0)
(2.38853 -2.62593 -1.37642e-18)
(2.37611 -2.61225 2.69301e-18)
(2.36364 -2.59852 -2.77224e-21)
(2.35114 -2.58475 -2.77469e-21)
(2.33858 -2.57093 -1.3804e-21)
(2.32598 -2.55706 6.11374e-19)
(2.31332 -2.54313 -1.19769e-18)
(2.30061 -2.52914 5.83744e-19)
(2.28783 -2.51509 1.1377e-18)
(2.275 -2.50097 -5.56924e-19)
(2.26209 -2.48678 5.40344e-19)
(2.24912 -2.47252 -1.58577e-18)
(2.23608 -2.45818 1.54279e-18)
(2.22296 -2.44376 -2.76645e-21)
(2.20976 -2.42925 -9.77047e-19)
(2.19647 -2.41465 4.77104e-19)
(2.18311 -2.39996 -1.85253e-18)
(2.16965 -2.38518 0)
(2.1561 -2.3703 0)
(2.14246 -2.35531 -1.70629e-18)
(2.12871 -2.34022 -1.24303e-18)
(2.11487 -2.32501 -8.03741e-19)
(4.22858 -4.6734 1.34111e-18)
(3.89918 -4.30245 1.05952e-17)
(3.74864 -4.14086 -1.99281e-17)
(3.64756 -4.02937 9.36739e-18)
(3.57044 -3.94436 -5.49013e-19)
(3.50771 -3.87578 0)
(3.45491 -3.81791 0)
(3.40907 -3.76773 0)
(3.36845 -3.72326 -6.51601e-18)
(3.33186 -3.6832 6.60147e-18)
(3.29848 -3.64662 3.92441e-19)
(3.26771 -3.61288 1.1689e-22)
(3.2391 -3.58149 5.72559e-18)
(3.21231 -3.55206 -1.13171e-17)
(3.18707 -3.52431 5.26861e-18)
(3.16317 -3.49801 4.74508e-18)
(3.14043 -3.47296 -4.57371e-18)
(3.11871 -3.44901 0)
(3.09789 -3.42603 0)
(3.07787 -3.40391 0)
(3.05856 -3.38257 0)
(3.03989 -3.36192 1.0301e-18)
(3.0218 -3.34189 0)
(3.00423 -3.32243 4.85137e-19)
(2.98713 -3.30348 0)
(2.97047 -3.285 -4.585e-19)
(2.95419 -3.26695 0)
(2.93828 -3.24929 1.73712e-18)
(2.92269 -3.23198 -1.69507e-18)
(2.9074 -3.21501 4.12911e-19)
(2.8924 -3.19834 -4.02825e-19)
(2.87764 -3.18196 1.96479e-18)
(2.86313 -3.16583 -2.33787e-21)
(2.84883 -3.14994 -1.12639e-18)
(2.83473 -3.13427 1.09848e-18)
(2.82082 -3.1188 -1.07621e-18)
(2.80708 -3.10353 3.50452e-19)
(2.7935 -3.08843 0)
(2.78006 -3.07349 0)
(2.76676 -3.0587 -1.9685e-18)
(2.75358 -3.04405 2.44481e-21)
(2.74052 -3.02953 2.42303e-21)
(2.72756 -3.01513 1.85003e-18)
(2.7147 -3.00083 -1.20591e-18)
(2.70193 -2.98664 5.92482e-19)
(2.68924 -2.97253 0)
(2.67662 -2.95851 0)
(2.66407 -2.94457 0)
(2.65158 -2.9307 1.28056e-21)
(2.63915 -2.91688 5.35227e-19)
(2.62677 -2.90313 0)
(2.61442 -2.88942 5.12743e-19)
(2.60212 -2.87576 -1.00365e-18)
(2.58985 -2.86214 1.47849e-18)
(2.57761 -2.84855 9.63702e-19)
(2.56539 -2.83499 -9.46903e-19)
(2.55319 -2.82145 -9.25173e-19)
(2.541 -2.80793 4.55197e-19)
(2.52882 -2.79442 -4.44642e-19)
(2.51665 -2.78092 4.35544e-19)
(2.50448 -2.76743 8.53226e-19)
(2.49231 -2.75394 -8.35608e-19)
(2.48014 -2.74044 0)
(2.46795 -2.72693 0)
(2.45575 -2.71341 -1.96993e-23)
(2.44353 -2.69988 -1.53392e-18)
(2.43129 -2.68632 7.52602e-19)
(2.41903 -2.67274 -7.33684e-19)
(2.40674 -2.65914 2.15728e-18)
(2.39442 -2.6455 -1.3827e-21)
(2.38207 -2.63182 6.878e-19)
(2.36968 -2.61811 -6.72476e-19)
(2.35725 -2.60435 0)
(2.34477 -2.59055 0)
(2.33225 -2.5767 0)
(2.31968 -2.5628 6.11709e-19)
(2.30706 -2.54884 -6.00121e-19)
(2.29438 -2.53482 -5.84583e-19)
(2.28164 -2.52073 0)
(2.26883 -2.50658 0)
(2.25596 -2.49236 -1.62827e-18)
(2.24302 -2.47806 2.65048e-18)
(2.23001 -2.46369 -1.75274e-23)
(2.21693 -2.44923 0)
(2.20376 -2.43469 -4.89356e-19)
(2.19052 -2.42006 2.77137e-21)
(2.17719 -2.40534 4.67051e-19)
(2.16377 -2.39052 -9.06788e-19)
(2.15025 -2.3756 -8.82665e-19)
(2.13664 -2.36058 1.28704e-18)
(2.12294 -2.34545 -2.74539e-21)
(2.10913 -2.33021 4.04954e-19)
(4.21708 -4.68292 9.38909e-18)
(3.88739 -4.31186 9.90906e-18)
(3.73727 -4.14949 -1.05471e-17)
(3.63688 -4.03733 5.82298e-19)
(3.55986 -3.95231 0)
(3.49744 -3.88353 0)
(3.4449 -3.82552 0)
(3.39932 -3.77524 7.27504e-18)
(3.35893 -3.7307 -1.37688e-17)
(3.32255 -3.69059 1.30615e-17)
(3.28935 -3.65399 -6.21377e-18)
(3.25875 -3.62023 5.55025e-18)
(3.23028 -3.58883 -5.66195e-18)
(3.20362 -3.5594 3.3872e-19)
(3.17849 -3.53165 5.52353e-18)
(3.15469 -3.50535 -4.68867e-18)
(3.13203 -3.48031 4.81085e-18)
(3.11039 -3.45636 -2.94374e-19)
(3.08963 -3.43338 -4.48343e-18)
(3.06967 -3.41127 -2.708e-19)
(3.05041 -3.38992 0)
(3.03179 -3.36927 -1.01605e-18)
(3.01374 -3.34924 0)
(2.99621 -3.32976 0)
(2.97914 -3.31081 -4.18247e-18)
(2.96251 -3.29231 3.61985e-18)
(2.94627 -3.27425 0)
(2.93038 -3.25657 0)
(2.91482 -3.23925 0)
(2.89957 -3.22226 -8.14729e-19)
(2.88459 -3.20557 3.97461e-19)
(2.86986 -3.18916 0)
(2.85537 -3.17301 0)
(2.8411 -3.1571 0)
(2.82703 -3.1414 -2.16866e-18)
(2.81314 -3.12591 3.18643e-18)
(2.79943 -3.11061 0)
(2.78587 -3.09549 0)
(2.77246 -3.08052 0)
(2.75918 -3.06571 2.91668e-18)
(2.74603 -3.05103 -4.82932e-21)
(2.73299 -3.03648 -6.22008e-18)
(2.72006 -3.02205 4.26477e-18)
(2.70723 -3.00772 -1.79302e-18)
(2.69449 -2.9935 0)
(2.68182 -2.97937 5.73039e-19)
(2.66923 -2.96532 2.24387e-18)
(2.65671 -2.95134 -2.20415e-18)
(2.64425 -2.93744 -5.39501e-19)
(2.63185 -2.9236 2.64152e-18)
(2.61949 -2.90981 -1.04054e-18)
(2.60718 -2.89608 -1.01881e-18)
(2.5949 -2.88238 -9.97468e-19)
(2.58266 -2.86873 -1.29792e-21)
(2.57045 -2.85511 -1.43708e-18)
(2.55826 -2.84152 0)
(2.54609 -2.82795 4.58488e-19)
(2.53393 -2.8144 -9.0257e-19)
(2.52178 -2.80086 -1.32353e-18)
(2.50964 -2.78733 4.34071e-19)
(2.4975 -2.7738 8.48021e-19)
(2.48536 -2.76028 1.33197e-21)
(2.47321 -2.74675 2.68956e-21)
(2.46106 -2.73321 7.98497e-19)
(2.44889 -2.71966 -7.80677e-19)
(2.4367 -2.70609 7.64401e-19)
(2.4245 -2.6925 0)
(2.41227 -2.67889 -7.31177e-19)
(2.40001 -2.66525 -7.14195e-19)
(2.38773 -2.65158 1.36386e-21)
(2.3754 -2.63787 -1.37121e-18)
(2.36305 -2.62413 1.34391e-18)
(2.35065 -2.61034 0)
(2.33821 -2.59651 -1.38176e-21)
(2.32572 -2.58262 -1.25603e-18)
(2.31318 -2.56869 6.13043e-19)
(2.30059 -2.55469 5.98958e-19)
(2.28795 -2.54064 5.85033e-19)
(2.27524 -2.52652 0)
(2.26247 -2.51234 0)
(2.24964 -2.49808 1.08875e-18)
(2.23673 -2.48375 -2.1247e-18)
(2.22376 -2.46934 -1.03633e-18)
(2.21071 -2.45485 1.01063e-18)
(2.19758 -2.44028 1.47659e-18)
(2.18437 -2.42561 4.78792e-19)
(2.17108 -2.41085 9.35802e-19)
(2.15769 -2.396 4.54412e-19)
(2.14422 -2.38105 8.84959e-19)
(2.13065 -2.36599 -4.33505e-19)
(2.11698 -2.35083 4.19187e-19)
(2.10321 -2.33555 -2.77198e-21)
(4.20511 -4.69296 1.13897e-17)
(3.87562 -4.32184 -1.05462e-17)
(3.72627 -4.15851 -9.26165e-18)
(3.62629 -4.04602 1.73663e-17)
(3.54941 -3.96088 -8.13536e-18)
(3.48726 -3.89186 8.64073e-18)
(3.4349 -3.83371 -1.52911e-17)
(3.38948 -3.78332 4.42678e-21)
(3.34924 -3.73868 6.81517e-18)
(3.313 -3.69848 0)
(3.27993 -3.66181 0)
(3.24945 -3.628 -3.65792e-19)
(3.2211 -3.59656 -3.49427e-19)
(3.19454 -3.5671 3.34514e-19)
(3.16951 -3.53932 4.52549e-23)
(3.1458 -3.513 -3.0835e-19)
(3.12323 -3.48793 -5.93596e-19)
(3.10166 -3.46397 -2.59526e-23)
(3.08097 -3.44098 0)
(3.06108 -3.41885 2.67054e-19)
(3.04188 -3.39749 4.13361e-18)
(3.02331 -3.37682 -3.50873e-18)
(3.00531 -3.35677 0)
(2.98783 -3.33729 4.24368e-18)
(2.97081 -3.31831 -3.2113e-18)
(2.95422 -3.2998 -3.56473e-18)
(2.93802 -3.28172 3.47393e-18)
(2.92217 -3.26402 4.22676e-19)
(2.90665 -3.24668 0)
(2.89143 -3.22967 4.01744e-19)
(2.87648 -3.21296 0)
(2.86179 -3.19653 0)
(2.84733 -3.18036 -2.98794e-18)
(2.83309 -3.16442 2.55895e-18)
(2.81905 -3.14871 -7.14077e-19)
(2.80519 -3.13319 -2.79089e-18)
(2.79151 -3.11787 2.39321e-18)
(2.77798 -3.10271 -3.34223e-19)
(2.7646 -3.08772 -2.61486e-18)
(2.75135 -3.07288 2.56485e-18)
(2.73823 -3.05818 -2.50709e-18)
(2.72522 -3.0436 3.07503e-18)
(2.71232 -3.02914 -2.4058e-18)
(2.69951 -3.01478 4.85234e-21)
(2.6868 -3.00053 4.04705e-18)
(2.67417 -2.98637 -2.83582e-18)
(2.66161 -2.97229 0)
(2.64911 -2.95829 2.17576e-18)
(2.63668 -2.94435 -2.13807e-18)
(2.62431 -2.93048 0)
(2.61198 -2.91666 -5.13259e-19)
(2.5997 -2.9029 1.00656e-18)
(2.58745 -2.88917 -1.9714e-18)
(2.57524 -2.87549 4.35499e-18)
(2.56306 -2.86184 -1.42596e-18)
(2.5509 -2.84821 -4.65206e-19)
(2.53876 -2.83461 2.278e-18)
(2.52663 -2.82103 8.8913e-19)
(2.51451 -2.80746 4.33136e-19)
(2.5024 -2.7939 -5.27813e-21)
(2.4903 -2.78034 -5.05441e-18)
(2.47819 -2.76678 -8.20292e-19)
(2.46607 -2.75322 5.34597e-21)
(2.45395 -2.73965 1.58813e-18)
(2.44181 -2.72607 -2.32717e-18)
(2.42966 -2.71247 -1.51608e-18)
(2.41749 -2.69885 4.07491e-21)
(2.40529 -2.6852 7.3096e-19)
(2.39307 -2.67153 -7.12963e-19)
(2.38081 -2.65783 1.39986e-18)
(2.36853 -2.64409 0)
(2.3562 -2.63031 -1.33794e-18)
(2.34384 -2.61649 6.56508e-19)
(2.33143 -2.60262 1.39139e-21)
(2.31898 -2.5887 1.25461e-18)
(2.30648 -2.57473 -6.12617e-19)
(2.29392 -2.5607 0)
(2.28131 -2.54662 -1.17026e-18)
(2.26864 -2.53246 0)
(2.25591 -2.51824 -1.11664e-18)
(2.24311 -2.50395 0)
(2.23024 -2.48959 5.33607e-19)
(2.21731 -2.47515 5.20785e-19)
(2.20429 -2.46062 -1.51886e-18)
(2.1912 -2.44601 -4.92893e-19)
(2.17803 -2.43131 -1.44456e-18)
(2.16477 -2.41652 -4.68455e-19)
(2.15143 -2.40163 9.15815e-19)
(2.13799 -2.38664 -4.4473e-19)
(2.12446 -2.37155 8.71825e-19)
(2.11083 -2.35635 -4.21704e-19)
(2.0971 -2.34104 -1.23694e-18)
(4.19244 -4.70327 0)
(3.86333 -4.33199 0)
(3.71479 -4.16776 9.22095e-18)
(3.6151 -4.0551 -4.58983e-21)
(3.53848 -3.96974 -9.1543e-18)
(3.47661 -3.90052 7.56118e-18)
(3.42445 -3.84224 -7.10427e-18)
(3.37921 -3.79173 0)
(3.33914 -3.74699 -4.21327e-19)
(3.30305 -3.70671 -6.78347e-18)
(3.27012 -3.66997 6.07037e-18)
(3.23976 -3.6361 7.22581e-19)
(3.21152 -3.60461 3.44966e-19)
(3.18507 -3.5751 -5.94075e-18)
(3.16014 -3.54728 4.75136e-18)
(3.13652 -3.52092 3.04164e-19)
(3.11403 -3.49583 2.92727e-19)
(3.09254 -3.47183 5.07705e-18)
(3.07194 -3.44882 -4.3243e-21)
(3.05211 -3.42666 -8.42546e-18)
(3.03298 -3.40528 4.07927e-18)
(3.01447 -3.38459 0)
(2.99653 -3.36452 -3.82941e-18)
(2.9791 -3.34501 4.36248e-21)
(2.96214 -3.32602 3.61714e-18)
(2.9456 -3.30749 4.39483e-19)
(2.92944 -3.28938 3.41984e-18)
(2.91364 -3.27166 -7.49958e-18)
(2.89816 -3.2543 6.49746e-18)
(2.88298 -3.23727 -4.44077e-21)
(2.86807 -3.22054 -3.48054e-18)
(2.85342 -3.20408 0)
(2.839 -3.18789 0)
(2.82479 -3.17193 3.60218e-19)
(2.81078 -3.15618 3.52176e-19)
(2.79696 -3.14064 -6.8888e-19)
(2.78331 -3.12529 9.70354e-24)
(2.76982 -3.11011 3.29827e-19)
(2.75647 -3.0951 0)
(2.74325 -3.08023 -2.84343e-18)
(2.73016 -3.06549 1.86065e-18)
(2.71719 -3.05089 -2.4251e-18)
(2.70432 -3.0364 2.97576e-18)
(2.69154 -3.02202 2.32894e-18)
(2.67886 -3.00773 -2.28766e-18)
(2.66625 -2.99354 0)
(2.65373 -2.97943 0)
(2.64126 -2.9654 0)
(2.62886 -2.95144 0)
(2.61652 -2.93753 -5.17922e-19)
(2.60422 -2.92369 -1.52141e-18)
(2.59197 -2.90989 1.49718e-18)
(2.57976 -2.89613 0)
(2.56758 -2.88242 -4.79307e-19)
(2.55543 -2.86874 -1.87793e-18)
(2.5433 -2.85508 2.30806e-18)
(2.53119 -2.84145 4.52224e-19)
(2.5191 -2.82783 -1.19975e-23)
(2.50701 -2.81423 4.34926e-19)
(2.49494 -2.80064 0)
(2.48286 -2.78705 8.36351e-19)
(2.47078 -2.77345 0)
(2.4587 -2.75986 0)
(2.44661 -2.74626 -2.36092e-18)
(2.43451 -2.73264 3.86076e-18)
(2.42239 -2.71901 -7.59321e-19)
(2.41025 -2.70535 7.4135e-19)
(2.39809 -2.69168 0)
(2.3859 -2.67797 7.11305e-19)
(2.37368 -2.66423 6.93835e-19)
(2.36143 -2.65046 -2.72806e-18)
(2.34914 -2.63665 1.33801e-18)
(2.33681 -2.62279 0)
(2.32444 -2.60889 0)
(2.31202 -2.59494 6.25498e-19)
(2.29956 -2.58093 0)
(2.28704 -2.56687 5.98235e-19)
(2.27446 -2.55275 -5.82057e-19)
(2.26183 -2.53856 1.14602e-18)
(2.24913 -2.52431 -5.57134e-19)
(2.23637 -2.50998 1.6383e-18)
(2.22355 -2.49558 0)
(2.21065 -2.4811 -5.18892e-19)
(2.19767 -2.46654 5.09259e-19)
(2.18462 -2.4519 0)
(2.17148 -2.43716 -4.84873e-19)
(2.15827 -2.42233 1.41318e-18)
(2.14496 -2.40741 0)
(2.13156 -2.39238 0)
(2.11807 -2.37725 -1.3086e-18)
(2.10448 -2.36201 2.12829e-18)
(2.09079 -2.34666 8.28525e-19)
(4.17938 -4.71408 0)
(3.85074 -4.34246 -6.55649e-19)
(3.70298 -4.17744 6.1191e-19)
(3.6035 -4.0646 5.7187e-19)
(3.52716 -3.97899 8.01295e-18)
(3.46553 -3.90958 -8.00113e-18)
(3.41357 -3.85116 1.19616e-22)
(3.36852 -3.80052 -7.05913e-18)
(3.32861 -3.75567 7.08524e-18)
(3.29267 -3.7153 -6.31042e-18)
(3.25988 -3.67848 1.19896e-17)
(3.22965 -3.64453 -3.612e-19)
(3.20153 -3.61297 -4.43704e-21)
(3.17519 -3.58341 -5.21493e-18)
(3.15037 -3.55554 0)
(3.12684 -3.52914 0)
(3.10445 -3.504 4.61628e-18)
(3.08305 -3.47997 -9.18019e-18)
(3.06252 -3.45691 4.29816e-18)
(3.04276 -3.43472 -4.1499e-18)
(3.02371 -3.41331 4.02016e-18)
(3.00527 -3.39259 0)
(2.98739 -3.37249 -3.77343e-18)
(2.97002 -3.35296 2.7513e-18)
(2.95312 -3.33394 3.5598e-18)
(2.93663 -3.31538 -3.89948e-18)
(2.92053 -3.29725 0)
(2.90477 -3.27951 4.10558e-19)
(2.88934 -3.26212 0)
(2.87421 -3.24506 0)
(2.85934 -3.2283 3.80909e-19)
(2.84473 -3.21183 -2.97322e-18)
(2.83035 -3.1956 2.909e-18)
(2.81619 -3.17962 -2.48364e-18)
(2.80222 -3.16385 2.78016e-18)
(2.78844 -3.14828 6.79326e-19)
(2.77482 -3.1329 -2.32431e-18)
(2.76137 -3.1177 4.88013e-18)
(2.74805 -3.10265 -2.55079e-18)
(2.73487 -3.08775 3.12014e-19)
(2.72182 -3.07299 1.22268e-18)
(2.70888 -3.05836 -2.39387e-18)
(2.69604 -3.04384 1.76375e-18)
(2.6833 -3.02943 0)
(2.67065 -3.01512 1.12863e-18)
(2.65808 -3.0009 0)
(2.64558 -2.98676 1.62568e-18)
(2.63316 -2.97269 -5.37134e-19)
(2.62079 -2.9587 -2.09095e-18)
(2.60848 -2.94476 5.1221e-19)
(2.59621 -2.93089 0)
(2.584 -2.91706 0)
(2.57181 -2.90327 0)
(2.55967 -2.88952 4.74547e-19)
(2.54755 -2.87581 -1.85979e-18)
(2.53545 -2.86212 3.65423e-18)
(2.52338 -2.84846 -4.03321e-18)
(2.51132 -2.83481 -4.34501e-19)
(2.49927 -2.82117 8.65118e-19)
(2.48723 -2.80755 -1.68955e-18)
(2.47519 -2.79392 5.22013e-21)
(2.46314 -2.7803 1.63037e-18)
(2.4511 -2.76667 7.98116e-19)
(2.43904 -2.75304 7.82596e-19)
(2.42697 -2.73939 0)
(2.41489 -2.72572 2.25371e-18)
(2.40278 -2.71203 -5.36714e-21)
(2.39066 -2.69832 -1.44758e-18)
(2.3785 -2.68458 -7.07887e-19)
(2.36632 -2.67081 0)
(2.3541 -2.657 0)
(2.34185 -2.64315 -6.65205e-19)
(2.32956 -2.62926 0)
(2.31722 -2.61533 -6.3758e-19)
(2.30484 -2.60134 -1.86927e-18)
(2.29241 -2.5873 6.16116e-19)
(2.27993 -2.5732 -5.91776e-19)
(2.2674 -2.55905 1.17118e-18)
(2.2548 -2.54482 -5.71231e-19)
(2.24214 -2.53053 1.11685e-18)
(2.22942 -2.51617 -1.09151e-18)
(2.21663 -2.50173 0)
(2.20377 -2.48722 0)
(2.19084 -2.47262 1.01729e-18)
(2.17782 -2.45794 0)
(2.16473 -2.44317 9.6934e-19)
(2.15155 -2.4283 -1.89161e-18)
(2.13829 -2.41334 0)
(2.12493 -2.39827 8.99673e-19)
(2.11148 -2.3831 0)
(2.09793 -2.36783 -8.5481e-19)
(2.08428 -2.35244 0)
(4.16595 -4.72541 1.1363e-17)
(3.8379 -4.35332 1.17628e-17)
(3.6909 -4.18757 -1.94876e-17)
(3.59162 -4.07453 4.51684e-21)
(3.51558 -3.98864 9.54589e-18)
(3.45417 -3.91905 -8.42083e-18)
(3.40239 -3.86047 -4.59658e-19)
(3.35751 -3.80969 6.98859e-18)
(3.31775 -3.76473 7.00045e-18)
(3.28195 -3.72425 -1.20849e-17)
(3.24929 -3.68734 3.74557e-19)
(3.21918 -3.65331 5.28479e-18)
(3.19118 -3.62167 0)
(3.16495 -3.59204 3.21349e-19)
(3.14022 -3.56411 3.08025e-19)
(3.1168 -3.53765 0)
(3.09449 -3.51245 4.55031e-18)
(3.07318 -3.48838 -4.30942e-21)
(3.05273 -3.46528 -3.97083e-18)
(3.03306 -3.44305 2.55696e-19)
(3.01407 -3.42159 0)
(2.99571 -3.40084 -3.35337e-18)
(2.9779 -3.3807 3.25643e-18)
(2.96059 -3.36114 -2.40195e-23)
(2.94375 -3.34208 -3.50647e-18)
(2.92732 -3.3235 3.8411e-18)
(2.91127 -3.30533 0)
(2.89557 -3.28756 0)
(2.88019 -3.27015 -2.7574e-18)
(2.86511 -3.25306 4.34271e-21)
(2.8503 -3.23627 3.00446e-18)
(2.83573 -3.21977 0)
(2.8214 -3.20352 -2.86218e-18)
(2.80728 -3.1875 2.45209e-18)
(2.79335 -3.1717 -2.39353e-18)
(2.77961 -3.15611 2.346e-18)
(2.76604 -3.1407 -3.27681e-19)
(2.75262 -3.12547 -2.24334e-18)
(2.73934 -3.11039 2.51558e-18)
(2.7262 -3.09547 0)
(2.71319 -3.08068 2.41011e-18)
(2.70028 -3.06601 -2.36669e-18)
(2.68748 -3.05147 0)
(2.67478 -3.03703 0)
(2.66216 -3.02268 -2.78343e-18)
(2.64963 -3.00843 1.64176e-18)
(2.63717 -2.99426 2.67787e-18)
(2.62478 -2.98017 -3.68124e-18)
(2.61244 -2.96614 2.06633e-18)
(2.60017 -2.95218 0)
(2.58794 -2.93827 0)
(2.57576 -2.92441 2.43533e-18)
(2.56361 -2.91059 -1.91639e-18)
(2.5515 -2.89681 -4.69574e-19)
(2.53941 -2.88306 0)
(2.52735 -2.86934 -2.25883e-18)
(2.51531 -2.85564 5.06151e-21)
(2.50329 -2.84196 1.30923e-18)
(2.49127 -2.82829 2.56191e-18)
(2.47927 -2.81463 -2.09951e-18)
(2.46726 -2.80098 8.22967e-19)
(2.45525 -2.78732 0)
(2.44324 -2.77366 -1.63605e-23)
(2.43122 -2.75999 0)
(2.41919 -2.7463 7.61952e-19)
(2.40714 -2.7326 7.44542e-19)
(2.39507 -2.71888 -1.46795e-18)
(2.38298 -2.70514 7.18252e-19)
(2.37087 -2.69136 7.04039e-19)
(2.35872 -2.67755 6.89994e-19)
(2.34654 -2.66371 -1.34952e-18)
(2.33433 -2.64983 1.9899e-18)
(2.32207 -2.6359 0)
(2.30978 -2.62193 6.35407e-19)
(2.29743 -2.60791 -6.22126e-19)
(2.28504 -2.59383 -1.21801e-18)
(2.2726 -2.5797 -5.96021e-19)
(2.2601 -2.56551 0)
(2.24755 -2.55125 5.70495e-19)
(2.23493 -2.53692 0)
(2.22225 -2.52252 1.09103e-18)
(2.2095 -2.50805 0)
(2.19668 -2.49349 0)
(2.18378 -2.47886 -1.01543e-18)
(2.17081 -2.46414 2.81418e-21)
(2.15776 -2.44933 9.71092e-19)
(2.14462 -2.43442 1.27668e-23)
(2.1314 -2.41942 -9.25108e-19)
(2.11809 -2.40432 -9.02563e-19)
(2.10468 -2.38911 -1.75776e-18)
(2.09117 -2.3738 8.61146e-19)
(2.07757 -2.35837 0)
(4.15208 -4.73717 -1.13481e-17)
(3.82476 -4.36448 9.77514e-18)
(3.67849 -4.19806 0)
(3.57943 -4.0848 9.0284e-18)
(3.50368 -3.99864 -9.46898e-18)
(3.44249 -3.92887 -7.54001e-23)
(3.3909 -3.87013 6.89253e-18)
(3.34618 -3.81921 -4.60462e-21)
(3.30657 -3.77412 -7.33053e-18)
(3.2709 -3.73353 0)
(3.23837 -3.69652 -3.65275e-19)
(3.20837 -3.6624 -5.55826e-18)
(3.18048 -3.63068 5.30577e-18)
(3.15436 -3.60098 0)
(3.12973 -3.57298 -3.03626e-19)
(3.1064 -3.54645 -2.91527e-19)
(3.08418 -3.5212 0)
(3.06295 -3.49707 -4.04958e-18)
(3.04259 -3.47392 8.07965e-18)
(3.02299 -3.45164 -8.31076e-18)
(3.00409 -3.43014 7.79727e-18)
(2.98579 -3.40934 -4.76301e-19)
(2.96805 -3.38917 -3.20682e-18)
(2.95081 -3.36956 4.44426e-19)
(2.93403 -3.35047 0)
(2.91767 -3.33185 -4.20015e-19)
(2.90168 -3.31365 0)
(2.88604 -3.29584 3.58219e-18)
(2.87071 -3.2784 -3.49615e-18)
(2.85568 -3.26128 3.02739e-18)
(2.84092 -3.24446 -5.91389e-18)
(2.8264 -3.22792 3.25085e-18)
(2.81212 -3.21164 0)
(2.79805 -3.19559 2.75615e-18)
(2.78417 -3.17977 -6.06979e-18)
(2.77047 -3.16414 2.64167e-18)
(2.75694 -3.1487 6.84161e-25)
(2.74357 -3.13344 0)
(2.73033 -3.11833 -2.78512e-18)
(2.71723 -3.10338 4.50454e-21)
(2.70426 -3.08856 1.78649e-18)
(2.69139 -3.07386 0)
(2.67863 -3.05929 -2.2842e-18)
(2.66597 -3.04481 2.8052e-18)
(2.65339 -3.03044 0)
(2.64089 -3.01616 9.47941e-24)
(2.62847 -3.00196 -2.11464e-18)
(2.61612 -2.98783 3.63539e-18)
(2.60382 -2.97377 -2.55074e-18)
(2.59158 -2.95978 0)
(2.57939 -2.94583 4.90994e-19)
(2.56724 -2.93194 -4.81969e-19)
(2.55514 -2.91809 0)
(2.54306 -2.90428 -1.85529e-18)
(2.53101 -2.8905 1.8262e-18)
(2.51899 -2.87675 4.47583e-19)
(2.50699 -2.86301 0)
(2.495 -2.8493 8.62604e-19)
(2.48302 -2.8356 -4.23368e-19)
(2.47105 -2.8219 8.27909e-24)
(2.45908 -2.80821 8.13127e-19)
(2.44711 -2.79452 -1.60365e-18)
(2.43514 -2.78083 -7.85588e-19)
(2.42315 -2.76712 -7.7082e-19)
(2.41116 -2.7534 -7.56274e-19)
(2.39915 -2.73967 0)
(2.38712 -2.72591 7.27692e-19)
(2.37506 -2.71213 -7.13682e-19)
(2.36298 -2.69832 -1.39964e-18)
(2.35088 -2.68447 -6.86126e-19)
(2.33874 -2.6706 -1.34245e-18)
(2.32656 -2.65668 1.98026e-18)
(2.31435 -2.64272 -1.28915e-18)
(2.30209 -2.62871 6.35568e-19)
(2.28979 -2.61465 1.85688e-18)
(2.27743 -2.60054 -6.09792e-19)
(2.26503 -2.58637 5.94367e-19)
(2.25257 -2.57213 -1.16084e-18)
(2.24006 -2.55784 1.14154e-18)
(2.22748 -2.54347 0)
(2.21484 -2.52904 -2.17976e-18)
(2.20213 -2.51452 -1.06582e-18)
(2.18935 -2.49993 1.04203e-18)
(2.1765 -2.48526 -2.03701e-18)
(2.16357 -2.4705 9.95248e-19)
(2.15056 -2.45565 -1.94167e-18)
(2.13747 -2.44071 1.90185e-18)
(2.12429 -2.42567 1.17683e-23)
(2.11102 -2.41052 9.02036e-19)
(2.09766 -2.39528 -2.81942e-21)
(2.0842 -2.37992 -8.61316e-19)
(2.07064 -2.36445 8.37136e-19)
(4.13774 -4.74931 -1.06697e-17)
(3.81126 -4.37595 -1.03883e-17)
(3.66568 -4.2089 4.2697e-21)
(3.56688 -4.09539 1.79358e-17)
(3.49143 -4.00896 -7.8258e-18)
(3.43044 -3.939 8.26464e-18)
(3.37905 -3.88009 -6.82545e-18)
(3.3345 -3.82903 0)
(3.29503 -3.78382 4.0224e-19)
(3.2595 -3.74312 5.70123e-18)
(3.22709 -3.70601 -5.4102e-18)
(3.19722 -3.6718 6.8568e-19)
(3.16944 -3.63999 3.26896e-19)
(3.14341 -3.61021 -4.684e-18)
(3.11888 -3.58214 5.08942e-18)
(3.09564 -3.55554 4.88066e-18)
(3.07352 -3.53023 -4.42124e-18)
(3.05238 -3.50603 4.25459e-18)
(3.03209 -3.48283 -4.10877e-18)
(3.01258 -3.4605 -2.47988e-19)
(2.99374 -3.43895 -3.83636e-18)
(2.97552 -3.4181 3.72015e-18)
(2.95785 -3.39788 4.50703e-19)
(2.94068 -3.37823 -4.37519e-19)
(2.92397 -3.3591 0)
(2.90767 -3.34044 -3.3056e-18)
(2.89174 -3.3222 3.22177e-18)
(2.87616 -3.30436 -3.92045e-19)
(2.86089 -3.28687 0)
(2.84592 -3.26972 3.35329e-18)
(2.83121 -3.25287 -3.27734e-18)
(2.81675 -3.23629 -3.55207e-18)
(2.80251 -3.21998 2.78063e-18)
(2.78849 -3.2039 -2.71429e-18)
(2.77466 -3.18804 2.99129e-18)
(2.76101 -3.17238 0)
(2.74753 -3.15691 3.18145e-19)
(2.7342 -3.14162 3.11552e-19)
(2.72101 -3.12648 -1.82896e-18)
(2.70795 -3.11149 4.78498e-18)
(2.69502 -3.09664 -5.90738e-19)
(2.6822 -3.08191 -4.02354e-18)
(2.66948 -3.0673 2.25696e-18)
(2.65686 -3.0528 1.10349e-18)
(2.64432 -3.03839 -2.17194e-18)
(2.63187 -3.02408 5.3223e-19)
(2.61948 -3.00985 2.08691e-18)
(2.60717 -2.99569 -1.02762e-18)
(2.59491 -2.9816 2.51373e-18)
(2.58271 -2.96757 -1.48439e-18)
(2.57056 -2.95359 -8.02439e-24)
(2.55845 -2.93967 0)
(2.54638 -2.92578 -1.86792e-18)
(2.53434 -2.91194 2.29811e-18)
(2.52233 -2.89812 0)
(2.51035 -2.88434 0)
(2.49838 -2.87057 1.7364e-18)
(2.48643 -2.85682 -8.58717e-19)
(2.47449 -2.84309 -2.09818e-18)
(2.46256 -2.82936 -1.23205e-18)
(2.45063 -2.81563 1.61867e-18)
(2.4387 -2.80191 -7.93294e-19)
(2.42676 -2.78817 7.76169e-19)
(2.41482 -2.77443 -7.66947e-19)
(2.40286 -2.76068 -1.49779e-18)
(2.39089 -2.74691 1.47501e-18)
(2.3789 -2.73312 -1.44474e-18)
(2.36689 -2.7193 0)
(2.35485 -2.70545 2.77817e-18)
(2.34278 -2.69157 -1.36638e-18)
(2.33068 -2.67766 -1.33463e-18)
(2.31854 -2.6637 6.58285e-19)
(2.30637 -2.6497 0)
(2.29415 -2.63566 6.29903e-19)
(2.28189 -2.62156 0)
(2.26958 -2.60741 6.04723e-19)
(2.25722 -2.5932 5.89584e-19)
(2.2448 -2.57893 -1.16289e-18)
(2.23233 -2.5646 0)
(2.21979 -2.5502 5.55905e-19)
(2.2072 -2.53572 2.17606e-18)
(2.19453 -2.52117 1.06449e-18)
(2.18179 -2.50654 -1.04119e-18)
(2.16899 -2.49183 1.25561e-23)
(2.1561 -2.47703 0)
(2.14313 -2.46214 -9.72761e-19)
(2.13009 -2.44715 -2.82234e-21)
(2.11695 -2.43207 -2.81902e-21)
(2.10373 -2.41689 0)
(2.09041 -2.4016 -8.8505e-19)
(2.07699 -2.3862 1.72471e-18)
(2.06348 -2.37069 -2.84164e-21)
(4.12293 -4.76184 -1.06563e-17)
(3.79738 -4.38771 -1.03527e-17)
(3.65248 -4.22007 1.91759e-17)
(3.55395 -4.10629 -8.90587e-18)
(3.4788 -4.01959 0)
(3.41803 -3.94944 0)
(3.36683 -3.89037 0)
(3.32245 -3.83916 6.7512e-18)
(3.28313 -3.79382 -6.35987e-18)
(3.24774 -3.75301 3.75339e-19)
(3.21546 -3.71579 5.68944e-18)
(3.1857 -3.68149 -3.42466e-19)
(3.15803 -3.6496 -1.06342e-17)
(3.13211 -3.61973 4.62047e-18)
(3.10768 -3.59158 -5.89664e-19)
(3.08453 -3.56492 4.80744e-18)
(3.0625 -3.53953 2.67795e-19)
(3.04144 -3.51528 -4.45525e-18)
(3.02124 -3.49201 0)
(3.0018 -3.46963 4.39171e-18)
(2.98304 -3.44802 -3.78013e-18)
(2.9649 -3.42712 4.57422e-19)
(2.9473 -3.40685 -4.43524e-19)
(2.9302 -3.38716 4.30535e-19)
(2.91355 -3.36798 0)
(2.89731 -3.34927 3.25291e-18)
(2.88145 -3.33099 -3.17046e-18)
(2.86593 -3.31311 3.85824e-19)
(2.85072 -3.29559 3.7613e-19)
(2.83581 -3.27839 -7.33848e-19)
(2.82115 -3.2615 3.22147e-18)
(2.80675 -3.24489 -5.2476e-18)
(2.79257 -3.22854 2.7372e-18)
(2.7786 -3.21243 2.33785e-18)
(2.76482 -3.19653 -5.23201e-18)
(2.75122 -3.18084 2.56228e-18)
(2.73779 -3.16534 3.13311e-19)
(2.72451 -3.15001 -3.06854e-19)
(2.71137 -3.13484 2.40291e-18)
(2.69836 -3.11981 -2.06465e-18)
(2.68547 -3.10493 -1.15316e-18)
(2.67269 -3.09017 1.70163e-18)
(2.66002 -3.07552 -5.55613e-19)
(2.64744 -3.06099 2.17807e-18)
(2.63494 -3.04655 -2.14167e-18)
(2.62253 -3.0322 2.62228e-18)
(2.61019 -3.01793 -4.58309e-21)
(2.59792 -3.00374 -5.1043e-19)
(2.5857 -2.98962 -1.9888e-18)
(2.57354 -2.97556 -4.87651e-19)
(2.56143 -2.96155 1.43427e-18)
(2.54937 -2.94759 -1.88357e-18)
(2.53734 -2.93367 -4.61901e-19)
(2.52534 -2.91979 0)
(2.51337 -2.90594 -4.45602e-19)
(2.50143 -2.89212 -1.7483e-18)
(2.4895 -2.87832 2.15197e-18)
(2.47759 -2.86454 2.53108e-18)
(2.46569 -2.85076 -8.31951e-19)
(2.4538 -2.837 0)
(2.44191 -2.82324 8.00077e-19)
(2.43002 -2.80948 2.3546e-18)
(2.41812 -2.79571 -1.54561e-18)
(2.40622 -2.78193 7.57555e-19)
(2.3943 -2.76814 -1.48494e-18)
(2.38237 -2.75434 5.186e-21)
(2.37042 -2.74051 2.86932e-18)
(2.35845 -2.72665 0)
(2.34645 -2.71277 -1.00051e-23)
(2.33442 -2.69885 1.3518e-18)
(2.32236 -2.6849 -1.3314e-18)
(2.31027 -2.67091 0)
(2.29813 -2.65687 1.91447e-18)
(2.28596 -2.64279 -5.40703e-21)
(2.27374 -2.62865 -1.23122e-18)
(2.26147 -2.61446 5.99307e-19)
(2.24915 -2.60022 -5.9268e-19)
(2.23678 -2.58591 0)
(2.22435 -2.57153 0)
(2.21186 -2.55709 -6.7477e-24)
(2.1993 -2.54258 -1.30336e-23)
(2.18668 -2.52799 1.06246e-18)
(2.17399 -2.51332 -1.03967e-18)
(2.16123 -2.49856 2.81479e-21)
(2.14839 -2.48372 5.62408e-21)
(2.13547 -2.46879 2.92081e-18)
(2.12246 -2.45377 9.50796e-19)
(2.10938 -2.43865 9.29147e-19)