/*--------------------------------*- C++ -*----------------------------------*\
  =========                 |
  \\      /  F ield         | OpenFOAM: The Open Source CFD Toolbox
   \\    /   O peration     | Website:  https://openfoam.org
    \\  /    A nd           | Version:  10
     \\/     M anipulation  |
\*---------------------------------------------------------------------------*/
FoamFile
{
    format      ascii;
    class       volScalarField;
    location    "16000";
    object      k;
}
// * * * * * * * * * * * * * * * * * * * * * * * * * * * * * * * * * * * * * //

dimensions      [0 2 -2 0 0 0 0];

internalField   nonuniform List<scalar> 
17981
(
0.0155056
0.0158636
0.0162251
0.0165893
0.0169553
0.0173224
0.0176897
0.0180568
0.018423
0.0187878
0.0191509
0.019512
0.0198705
0.0202264
0.0205793
0.0209291
0.0212755
0.0216185
0.0219577
0.0222932
0.0226247
0.0229521
0.0232755
0.0235946
0.0239093
0.0242198
0.0245258
0.0248273
0.0251244
0.025417
0.0257051
0.0259887
0.026268
0.0265428
0.0268134
0.0270797
0.0273419
0.0276001
0.0278543
0.0281047
0.0283514
0.0285945
0.0288341
0.0290704
0.0293043
0.0295469
0.0298145
0.030115
0.0150439
0.0154117
0.0157838
0.0161591
0.0165368
0.0169158
0.0172953
0.0176745
0.0180529
0.0184299
0.0188049
0.0191777
0.0195477
0.0199147
0.0202786
0.020639
0.0209959
0.0213489
0.0216981
0.0220433
0.0223844
0.0227213
0.0230538
0.0233819
0.0237056
0.0240248
0.0243393
0.0246492
0.0249544
0.0252549
0.0255507
0.0258417
0.0261281
0.0264098
0.0266869
0.0269594
0.0272275
0.0274912
0.0277506
0.0280058
0.0282569
0.0285042
0.0287477
0.0289875
0.0292237
0.0294636
0.0297218
0.030009
0.0145689
0.014946
0.0153286
0.0157152
0.0161048
0.0164964
0.0168887
0.017281
0.0176726
0.0180626
0.0184505
0.0188359
0.0192183
0.0195974
0.0199729
0.0203447
0.0207126
0.0210764
0.021436
0.0217913
0.0221423
0.0224889
0.0228309
0.0231683
0.0235011
0.0238292
0.0241525
0.024471
0.0247847
0.0250934
0.0253972
0.0256961
0.0259901
0.0262793
0.0265635
0.0268429
0.0271175
0.0273874
0.0276526
0.0279134
0.0281697
0.0284218
0.0286697
0.0289136
0.0291537
0.029393
0.0296435
0.0299188
0.0156581
0.0160627
0.0164686
0.0168747
0.0172802
0.0176842
0.018086
0.0184851
0.0188809
0.0192731
0.0196614
0.0200455
0.0204252
0.0208005
0.0211712
0.0215373
0.0218988
0.0222555
0.0226075
0.0229546
0.023297
0.0236345
0.023967
0.0242943
0.024616
0.0249324
0.0252435
0.0255494
0.0258503
0.0261463
0.0264375
0.026724
0.0270059
0.0272829
0.027555
0.0278222
0.0280846
0.0283423
0.0285956
0.0288444
0.0290891
0.0293295
0.0295748
0.0298402
0.0151981
0.0156155
0.016035
0.0164553
0.0168752
0.0172938
0.0177103
0.018124
0.0185342
0.0189404
0.0193424
0.0197398
0.0201324
0.0205201
0.0209028
0.0212804
0.021653
0.0220206
0.0223832
0.0227407
0.0230932
0.0234406
0.0237822
0.0241179
0.0244477
0.0247717
0.02509
0.0254029
0.0257104
0.0260126
0.0263098
0.0266019
0.0268893
0.0271719
0.0274499
0.0277235
0.0279927
0.0282572
0.0285168
0.0287715
0.0290216
0.029267
0.0295129
0.0297714
0.0147241
0.015154
0.0155869
0.0160214
0.0164561
0.0168898
0.0173216
0.0177505
0.0181759
0.0185971
0.0190136
0.0194252
0.0198315
0.0202325
0.0206279
0.0210179
0.0214023
0.0217811
0.0221546
0.0225228
0.0228858
0.0232431
0.023594
0.0239385
0.0242767
0.0246086
0.0249346
0.0252547
0.025569
0.0258777
0.026181
0.026479
0.0267718
0.0270596
0.0273426
0.0276208
0.0278944
0.0281636
0.0284284
0.0286891
0.0289455
0.0291972
0.0294462
0.0297028
0.0146782
0.0151243
0.0155729
0.0160224
0.0164715
0.0169189
0.0173635
0.0178046
0.0182413
0.0186731
0.0190995
0.0195202
0.0199351
0.020344
0.020747
0.021144
0.0215353
0.0219208
0.0223009
0.0226752
0.0230431
0.023404
0.0237579
0.0241051
0.0244456
0.0247797
0.0251075
0.0254291
0.0257447
0.0260545
0.0263587
0.0266574
0.0269508
0.027239
0.0275222
0.0278005
0.0280742
0.0283432
0.0286079
0.0288682
0.0291244
0.0293775
0.0296354
0.0151101
0.0155744
0.016039
0.0165024
0.0169633
0.0174207
0.0178736
0.0183215
0.0187636
0.0191996
0.0196294
0.0200526
0.0204694
0.0208798
0.021284
0.0216821
0.0220745
0.0224606
0.0228396
0.023211
0.023575
0.0239316
0.0242812
0.0246238
0.0249597
0.025289
0.0256118
0.0259285
0.0262392
0.026544
0.0268431
0.0271368
0.0274251
0.0277083
0.0279865
0.0282599
0.0285286
0.0287927
0.0290525
0.0293081
0.0295679
0.0151134
0.0155934
0.0160729
0.0165504
0.0170246
0.0174944
0.0179589
0.0184175
0.0188697
0.0193151
0.0197535
0.0201849
0.0206093
0.021027
0.0214382
0.0218433
0.0222417
0.0226324
0.0230149
0.0233894
0.0237561
0.0241152
0.0244668
0.0248111
0.0251484
0.0254788
0.0258026
0.02612
0.0264311
0.0267362
0.0270354
0.027329
0.0276171
0.0278999
0.0281776
0.0284503
0.0287183
0.0289816
0.0292404
0.0295018
0.0156302
0.0161245
0.0166158
0.017103
0.0175849
0.0180608
0.0185299
0.0189917
0.0194461
0.0198929
0.0203321
0.0207639
0.0211887
0.021607
0.0220183
0.0224213
0.0228156
0.0232012
0.0235785
0.0239476
0.0243086
0.0246619
0.0250077
0.0253461
0.0256775
0.0260019
0.0263198
0.0266312
0.0269363
0.0272355
0.0275289
0.0278166
0.0280989
0.028376
0.028648
0.0289151
0.0291775
0.0294412
0.0171984
0.0176923
0.0181792
0.0186584
0.0191296
0.0195926
0.0200473
0.020494
0.0209331
0.021365
0.0217896
0.0222057
0.0226123
0.0230097
0.0233981
0.0237778
0.0241489
0.0245117
0.0248664
0.0252133
0.0255527
0.0258848
0.0262098
0.026528
0.0268396
0.0271449
0.027444
0.0277373
0.0280248
0.0283068
0.0285835
0.0288552
0.0291218
0.0293886
0.0168005
0.0173127
0.0178177
0.0183148
0.0188034
0.0192832
0.0197542
0.0202164
0.0206702
0.0211162
0.0215547
0.0219843
0.0224038
0.0228135
0.0232135
0.0236042
0.0239858
0.0243584
0.0247225
0.0250782
0.0254257
0.0257655
0.0260978
0.0264228
0.0267409
0.0270523
0.0273573
0.0276559
0.0279486
0.0282354
0.0285167
0.0287926
0.0290633
0.0293333
0.0163893
0.0169202
0.0174439
0.0179595
0.0184662
0.0189636
0.0194515
0.0199299
0.0203992
0.0208598
0.0213124
0.021756
0.0221889
0.0226113
0.0230234
0.0234254
0.0238178
0.0242007
0.0245744
0.0249392
0.0252955
0.0256435
0.0259835
0.0263159
0.0266409
0.0269587
0.0272697
0.0275741
0.0278721
0.0281641
0.0284501
0.0287305
0.0290054
0.0292797
0.0159643
0.0165141
0.0170569
0.0175914
0.0181168
0.0186324
0.0191379
0.0196332
0.0201185
0.0205944
0.0210619
0.02152
0.0219671
0.0224029
0.0228277
0.0232418
0.0236455
0.0240391
0.0244229
0.0247973
0.0251626
0.0255191
0.0258671
0.0262069
0.026539
0.0268635
0.0271807
0.027491
0.0277946
0.0280917
0.0283827
0.0286677
0.028947
0.0292259
0.0160936
0.0166558
0.0172098
0.0177545
0.0182891
0.0188129
0.0193259
0.0198282
0.0203202
0.0208029
0.021276
0.0217378
0.0221877
0.0226258
0.0230525
0.023468
0.0238728
0.0242671
0.0246514
0.025026
0.0253912
0.0257475
0.0260951
0.0264344
0.0267658
0.0270894
0.0274058
0.0277151
0.0280176
0.0283136
0.0286033
0.0288872
0.0291712
0.0156587
0.0162404
0.0168142
0.0173786
0.0179326
0.0184756
0.0190071
0.019527
0.0200358
0.0205344
0.0210232
0.0215005
0.021965
0.022417
0.0228568
0.0232847
0.0237011
0.0241064
0.0245009
0.0248851
0.0252594
0.0256241
0.0259797
0.0263264
0.0266647
0.026995
0.0273175
0.0276325
0.0279404
0.0282415
0.0285361
0.0288256
0.0291163
0.0152083
0.0158093
0.0164029
0.0169874
0.0175615
0.0181242
0.018675
0.0192135
0.0197401
0.0202553
0.0207605
0.0212541
0.0217341
0.0222007
0.0226543
0.0230951
0.0235236
0.0239403
0.0243455
0.0247397
0.0251233
0.0254967
0.0258604
0.0262149
0.0265603
0.0268973
0.0272261
0.027547
0.0278605
0.0281668
0.0284662
0.0287616
0.0290592
0.0153613
0.0159745
0.0165791
0.0171735
0.0177565
0.0183273
0.0188853
0.0194307
0.019964
0.0204863
0.0209969
0.0214936
0.021976
0.0224442
0.0228988
0.0233401
0.0237687
0.0241851
0.0245896
0.0249829
0.0253653
0.0257374
0.0260997
0.0264525
0.0267963
0.0271315
0.0274584
0.0277775
0.0280891
0.0283935
0.0286948
0.0289995
0.0148967
0.0155284
0.0161523
0.0167664
0.0173693
0.0179599
0.0185376
0.0191021
0.0196544
0.0201961
0.0207268
0.021243
0.0217428
0.022227
0.0226964
0.0231513
0.0235925
0.0240204
0.0244356
0.0248387
0.0252303
0.0256109
0.0259811
0.0263412
0.0266919
0.0270334
0.0273663
0.027691
0.0280078
0.028318
0.0286262
0.028938
0.0144171
0.0150658
0.0157076
0.0163401
0.0169615
0.0175705
0.0181662
0.0187483
0.0193186
0.0198793
0.0204316
0.0209721
0.0214964
0.0220029
0.0224908
0.0229605
0.0234141
0.0238534
0.0242791
0.0246921
0.0250927
0.0254817
0.0258596
0.026227
0.0265844
0.0269322
0.027271
0.0276011
0.027923
0.0282394
0.0285551
0.0288736
0.0139256
0.0145903
0.0152491
0.0158994
0.016539
0.0171663
0.0177801
0.0183797
0.0189665
0.0195433
0.0201123
0.0206726
0.0212199
0.0217507
0.0222631
0.0227561
0.0232293
0.0236835
0.0241205
0.0245429
0.0249524
0.0253496
0.0257351
0.0261096
0.0264736
0.0268276
0.0271721
0.0275075
0.0278351
0.028158
0.0284806
0.0288051
0.0134247
0.0141041
0.0147792
0.0154467
0.0161041
0.0167496
0.0173816
0.0179991
0.0186022
0.0191938
0.0197773
0.0203543
0.0209215
0.0214739
0.0220093
0.0225257
0.0230219
0.0234975
0.0239528
0.0243892
0.0248086
0.0252138
0.0256069
0.0259883
0.0263588
0.0267189
0.0270691
0.02741
0.0277435
0.0280731
0.0284019
0.0287315
0.0129159
0.0136089
0.0142993
0.0149834
0.0156584
0.0163218
0.0169719
0.0176075
0.0182278
0.0188344
0.0194311
0.0200218
0.0206053
0.0211771
0.0217337
0.0222724
0.0227913
0.0232891
0.0237653
0.0242204
0.0246557
0.025073
0.0254744
0.0258627
0.0262397
0.0266058
0.0269616
0.0273082
0.0276478
0.0279837
0.0283178
0.0286514
0.0124006
0.0131058
0.0138104
0.0145104
0.0152023
0.0158834
0.0165517
0.0172054
0.0178437
0.0184661
0.0190759
0.0196785
0.0202756
0.0208642
0.0214397
0.0219992
0.0225399
0.0230597
0.0235574
0.0240326
0.0244861
0.0249191
0.0253335
0.0257315
0.0261154
0.0264875
0.026849
0.0272014
0.0275472
0.0278886
0.0282273
0.0285643
0.0118798
0.0125954
0.0133129
0.0140278
0.014736
0.0154344
0.0161205
0.0167923
0.0174485
0.0180884
0.018713
0.019327
0.019936
0.0205388
0.0211307
0.0217087
0.0222697
0.0228108
0.02333
0.0238259
0.0242986
0.0247489
0.0251783
0.0255888
0.0259828
0.0263627
0.0267307
0.0270894
0.0274408
0.027787
0.0281295
0.0284692
0.0113542
0.0120783
0.0128073
0.0135359
0.0142596
0.0149748
0.0156785
0.0163683
0.0170426
0.0177005
0.0183414
0.0189685
0.0195879
0.0202022
0.0208086
0.0214031
0.0219827
0.0225439
0.0230839
0.0236007
0.0240934
0.024562
0.0250077
0.0254324
0.0258384
0.0262281
0.0266045
0.0269699
0.0273269
0.0276776
0.0280236
0.0283656
0.0108247
0.0115551
0.0122937
0.0130346
0.0137729
0.0145042
0.015225
0.0159327
0.0166251
0.017301
0.0179596
0.0186014
0.0192317
0.0198568
0.0204758
0.0210849
0.0216811
0.0222608
0.0228207
0.0233578
0.0238705
0.0243582
0.0248214
0.0252615
0.0256808
0.0260818
0.0264674
0.0268405
0.0272036
0.027559
0.0279084
0.0282527
0.0102922
0.0110262
0.0117723
0.012524
0.0132756
0.0140221
0.0147595
0.0154847
0.0161951
0.0168891
0.0175655
0.018224
0.0188675
0.0195031
0.0201333
0.0207552
0.0213662
0.0219628
0.0225412
0.023098
0.0236305
0.0241375
0.0246187
0.0250752
0.0255089
0.0259222
0.0263182
0.0266996
0.0270693
0.0274298
0.0277829
0.0281297
0.00975774
0.0104924
0.0112436
0.0120041
0.0127675
0.0135282
0.0142816
0.0150239
0.0157523
0.0164645
0.0171591
0.0178355
0.0184939
0.0191401
0.0197805
0.0204144
0.0210389
0.0216509
0.0222466
0.022822
0.0233739
0.0239
0.0243996
0.0248731
0.0253219
0.0257484
0.0261555
0.026546
0.026923
0.0272891
0.0276463
0.027996
0.0099543
0.0107078
0.0114749
0.0122483
0.0130219
0.0137903
0.0145492
0.0152952
0.0160255
0.0167383
0.0174327
0.0181083
0.018768
0.0194189
0.0200637
0.0207002
0.0213262
0.0219378
0.0225307
0.0231011
0.0236462
0.0241642
0.024655
0.0251195
0.0255599
0.0259787
0.026379
0.0267639
0.027136
0.0274978
0.0278508
0.00941339
0.010166
0.0109369
0.0117183
0.0125031
0.0132854
0.0140602
0.0148234
0.0155717
0.016303
0.0170158
0.0177093
0.0183841
0.0190466
0.0197022
0.0203502
0.0209889
0.0216152
0.0222246
0.0228129
0.0233764
0.0239127
0.0244209
0.0249016
0.0253562
0.0257874
0.0261981
0.0265913
0.0269701
0.027337
0.0276936
0.0088708
0.00961872
0.0103904
0.0111772
0.0119714
0.0127663
0.013556
0.0143358
0.015102
0.0158518
0.0165832
0.0172951
0.0179874
0.0186636
0.0193297
0.0199886
0.0206393
0.0212792
0.0219041
0.0225094
0.0230908
0.0236453
0.0241711
0.0246681
0.0251374
0.0255814
0.0260029
0.0264051
0.026791
0.0271634
0.0275243
0.00832826
0.00906734
0.00983614
0.0106255
0.0114268
0.0122325
0.0130359
0.0138317
0.0146154
0.0153837
0.016134
0.0168647
0.0175755
0.018267
0.0189452
0.0196154
0.0202775
0.0209301
0.0215696
0.0221911
0.02279
0.0233623
0.0239057
0.0244192
0.0249036
0.0253608
0.0257935
0.026205
0.0265985
0.0269769
0.0273425
0.0100636
0.0108694
0.0116838
0.0124995
0.0133103
0.014111
0.0148975
0.0156667
0.0164167
0.0171462
0.0178555
0.0185485
0.0192302
0.0199033
0.0205679
0.0212211
0.0218581
0.0224739
0.0230639
0.0236249
0.0241552
0.024655
0.0251258
0.0255702
0.0259914
0.0263927
0.0267775
0.0271483
0.00949326
0.0103001
0.0111206
0.0119467
0.0127711
0.013588
0.0143925
0.0151808
0.0159504
0.0166996
0.017428
0.0181367
0.018831
0.0195159
0.0201923
0.0208586
0.0215105
0.0221427
0.0227502
0.0233289
0.0238763
0.0243919
0.0248767
0.0253331
0.0257644
0.0261741
0.0265657
0.0269425
0.00891565
0.00971959
0.0105432
0.0113772
0.0122136
0.0130455
0.0138674
0.0146747
0.0154641
0.0162333
0.0169813
0.0177084
0.0184182
0.0191155
0.0198034
0.0204821
0.0211483
0.0217965
0.0224212
0.0230176
0.0235825
0.0241143
0.0246138
0.0250829
0.0255248
0.0259433
0.0263426
0.0267272
0.00833284
0.00912939
0.00995223
0.0107913
0.0116375
0.0124831
0.0133215
0.0141475
0.0149568
0.0157466
0.0165151
0.017262
0.0179891
0.0187004
0.0194004
0.0200915
0.0207714
0.0214351
0.0220769
0.0226911
0.0232737
0.0238225
0.0243373
0.0248199
0.0252733
0.0257017
0.0261097
0.0265028
0.00774766
0.00853157
0.00934923
0.0101897
0.0110431
0.0119004
0.0127542
0.0135981
0.0144274
0.0152381
0.0160279
0.0167956
0.0175421
0.0182697
0.018983
0.0196864
0.0203796
0.0210585
0.021717
0.0223492
0.02295
0.0235163
0.0240473
0.0245442
0.0250101
0.0254493
0.0258671
0.0262695
0.00716369
0.00792899
0.00873622
0.00957383
0.0104309
0.0112974
0.0121649
0.0130259
0.0138747
0.0147066
0.0155183
0.0163078
0.017075
0.0178214
0.0185501
0.0192666
0.019973
0.0206666
0.0213417
0.0219918
0.0226111
0.0231955
0.0237435
0.0242557
0.0247351
0.0251861
0.0256146
0.0260274
0.00658531
0.00732534
0.00811607
0.00894558
0.0098021
0.0106747
0.0115535
0.0124302
0.0132978
0.0141507
0.0149847
0.0157969
0.0165861
0.0173538
0.0181009
0.0188315
0.0195512
0.0202592
0.0209506
0.0216187
0.0222568
0.0228601
0.0234259
0.0239545
0.0244483
0.0249122
0.0253524
0.0257763
0.00601765
0.00672517
0.00749253
0.00830783
0.00915872
0.0100333
0.0109205
0.0118109
0.0126962
0.0135698
0.0144264
0.0152621
0.0160749
0.0168648
0.0176322
0.0183798
0.0191138
0.0198363
0.0205438
0.0212297
0.021887
0.0225097
0.0230944
0.0236403
0.0241498
0.0246275
0.0250804
0.0255161
0.00546653
0.00613396
0.00687032
0.00766435
0.00850346
0.00937495
0.0102668
0.0111681
0.0120693
0.0129627
0.0138416
0.0147014
0.0155386
0.0163519
0.017143
0.0179112
0.0186606
0.0193977
0.0201211
0.0208248
0.0215015
0.0221443
0.0227486
0.023313
0.0238392
0.0243319
0.0247984
0.0252468
0.00493827
0.00555802
0.00625523
0.00702
0.00784013
0.00870245
0.00959395
0.0105025
0.0114173
0.012329
0.0132299
0.0141139
0.0149766
0.0158155
0.0166308
0.0174217
0.01819
0.0189429
0.0196823
0.0204038
0.0211
0.0217634
0.0223883
0.0229724
0.0235165
0.0240252
0.0245061
0.0249681
0.00443928
0.00500428
0.00565399
0.00638081
0.00717366
0.00801947
0.00890456
0.00981563
0.0107405
0.0116683
0.0125901
0.0134982
0.0143869
0.0152525
0.0160933
0.0169101
0.0177014
0.0184716
0.0192274
0.0199666
0.0206825
0.0213669
0.0220133
0.022618
0.0231812
0.0237071
0.0242035
0.0246799
0.00397566
0.00448
0.00507419
0.00575393
0.00651028
0.00733101
0.00820227
0.00910987
0.0100403
0.0109811
0.0119218
0.0128532
0.0137682
0.0146614
0.0155297
0.0163739
0.0171913
0.0179827
0.018756
0.0195132
0.0202487
0.0209546
0.0216232
0.0222497
0.0228331
0.0233773
0.0238904
0.0243821
0.00355256
0.00399221
0.0045239
0.00514758
0.00585754
0.00664347
0.00749208
0.00838875
0.00931878
0.0102684
0.0112252
0.0121785
0.0131194
0.0140411
0.0149388
0.0158109
0.0166569
0.0174741
0.0182671
0.0190429
0.0197985
0.0205261
0.0212176
0.0218669
0.0224718
0.0230356
0.0235665
0.0240748
0.0031736
0.00354701
0.00401112
0.00457065
0.00522425
0.00596474
0.0067805
0.00765718
0.00857939
0.00953197
0.0105008
0.0114735
0.0124392
0.0133894
0.0143174
0.0152195
0.016096
0.016943
0.0177602
0.0185559
0.0193317
0.0200814
0.0207964
0.0214693
0.022097
0.0226818
0.0232318
0.0237577
0.0028404
0.00314892
0.00354303
0.00403216
0.00462013
0.00530419
0.00607573
0.00692177
0.00782691
0.00877502
0.00975041
0.0107387
0.0117272
0.0127053
0.0136646
0.0145991
0.0155068
0.016386
0.0172322
0.0180504
0.0188476
0.0196198
0.0203591
0.0210566
0.0217083
0.0223155
0.0228859
0.0234306
0.00255234
0.00280016
0.00312508
0.00354042
0.00405526
0.00467239
0.00538767
0.00619097
0.00706798
0.00800222
0.00897674
0.00997532
0.0109832
0.0119876
0.0129778
0.0139458
0.0148867
0.0157998
0.0166801
0.0175263
0.0183462
0.0191415
0.0199053
0.0206283
0.0213052
0.0219363
0.0225285
0.0230934
0.00230673
0.00250036
0.00276023
0.00310195
0.00353916
0.00408052
0.00472775
0.00547523
0.00631127
0.00722017
0.00818433
0.00918594
0.0102082
0.0112359
0.0122561
0.0132582
0.0142349
0.0151835
0.0161005
0.0169795
0.0178255
0.0186453
0.0194346
0.0201841
0.0208874
0.0215438
0.0221593
0.0227457
0.0020993
0.0022467
0.00244843
0.00272055
0.00307955
0.00353939
0.0041083
0.0047868
0.00556772
0.00643774
0.00737969
0.00837478
0.00940426
0.0104506
0.0114983
0.0125341
0.0135478
0.0145333
0.0154881
0.0164063
0.0172851
0.0181314
0.0189467
0.0197233
0.0204543
0.0211374
0.0217778
0.0223871
0.00192492
0.00203448
0.00218674
0.00239654
0.00268115
0.00305803
0.00354146
0.00413916
0.00485039
0.0056663
0.00657183
0.00754824
0.00857541
0.00963358
0.0107045
0.0117721
0.0128231
0.0138479
0.0148431
0.015803
0.0167198
0.0175971
0.0184406
0.0192455
0.0200053
0.0207165
0.0213834
0.0220172
0.00177855
0.00185792
0.0019699
0.00212684
0.00234473
0.00264217
0.00303768
0.0035459
0.00417395
0.00491971
0.00577249
0.00671534
0.00772781
0.00878835
0.00987606
0.0109719
0.0120593
0.0131253
0.0141617
0.0151642
0.0161253
0.0170405
0.0179151
0.0187497
0.0195395
0.0202805
0.0209755
0.0216355
0.00171132
0.00179148
0.00190558
0.00206706
0.00229313
0.00260387
0.003019
0.0035535
0.00421382
0.00499627
0.00588815
0.00687041
0.00792072
0.00901592
0.0101338
0.0112546
0.0123612
0.0134411
0.0144892
0.0154973
0.0164566
0.0173684
0.0182352
0.0190563
0.0198284
0.0205534
0.0212413
0.00158883
0.00164496
0.00172566
0.00184163
0.00200752
0.00224195
0.00256665
0.00300264
0.0035653
0.00426023
0.00508198
0.00601555
0.0070396
0.00812966
0.00926081
0.0104095
0.011555
0.0126803
0.0137745
0.0148309
0.0158401
0.016796
0.0176995
0.0185544
0.0193594
0.0201163
0.020834
0.00157932
0.00166038
0.00177806
0.00194834
0.00219145
0.00253101
0.00298949
0.00358263
0.00431502
0.00517914
0.00615742
0.00722585
0.00835758
0.00952571
0.0107052
0.0118746
0.013017
0.0141244
0.0151864
0.0161931
0.0171408
0.0180326
0.0188725
0.0196633
0.0204128
0.00145915
0.00151455
0.00159573
0.00171499
0.00188971
0.00214201
0.00249763
0.00298068
0.00360717
0.00438046
0.00529057
0.00631695
0.00743257
0.0086079
0.00981382
0.0110238
0.0122156
0.0133747
0.0144908
0.0155527
0.0165522
0.0174884
0.0183665
0.0191935
0.0199767
0.00139576
0.00145054
0.00153172
0.00165249
0.00183186
0.00209408
0.00246735
0.00297755
0.0036409
0.00445917
0.00541946
0.00649773
0.00766352
0.00888421
0.0101283
0.0113676
0.0125799
0.013753
0.0148736
0.0159296
0.0169164
0.0178392
0.0187058
0.0195246
0.00129723
0.00133338
0.00138737
0.00146842
0.00159071
0.00177506
0.0020482
0.00244114
0.00298169
0.00368613
0.00455418
0.00556945
0.0067038
0.00792282
0.00919041
0.0104724
0.0117393
0.0129713
0.0141535
0.0152717
0.0163149
0.0172873
0.0181972
0.0190545
0.00121337
0.00123682
0.00127194
0.00132504
0.00140588
0.0015298
0.00171962
0.002005
0.00242016
0.00299501
0.00374562
0.00466907
0.00574475
0.00693976
0.00821506
0.00953069
0.0108497
0.0121422
0.0133898
0.0145751
0.0156812
0.0167086
0.017666
0.0185648
0.00115496
0.00117742
0.00121143
0.00126357
0.00134418
0.00146991
0.00166591
0.00196526
0.00240586
0.00301984
0.00382271
0.00480812
0.00595035
0.00721081
0.00854509
0.00990881
0.0112623
0.0125784
0.0138353
0.0150116
0.0161001
0.0171098
0.0180538
0.0010833
0.00109763
0.00111905
0.00115189
0.001203
0.00128342
0.00141127
0.00161441
0.00192996
0.00240004
0.00305912
0.00392152
0.00497653
0.00619213
0.00752294
0.00891833
0.0103291
0.0117142
0.0130462
0.0143011
0.0154581
0.0165258
0.0175191
0.00102783
0.0010413
0.00106165
0.00109329
0.00114336
0.00122367
0.00135411
0.00156567
0.0019003
0.00240497
0.00311643
0.00404704
0.00518036
0.00647658
0.0078821
0.00933894
0.0107928
0.0122049
0.0135439
0.014778
0.0159105
0.016958
0.000965882
0.000973362
0.000985913
0.0010052
0.00103561
0.00108467
0.00116504
0.00129869
0.00152039
0.00187782
0.00242349
0.00319625
0.00420534
0.00542686
0.0068113
0.00829518
0.00981215
0.0113044
0.0127314
0.014054
0.01526
0.0163674
0.000910316
0.000913122
0.000919781
0.000931391
0.00094963
0.000978833
0.00102693
0.00110763
0.00124534
0.00147944
0.00186445
0.00245916
0.00330407
0.00440365
0.00572418
0.00720389
0.00876706
0.010338
0.011859
0.0132807
0.0145696
0.0157437
0.000858965
0.000861179
0.000867013
0.000877665
0.000894887
0.000922909
0.000970144
0.00105152
0.00119446
0.00144391
0.00186267
0.00251654
0.00344682
0.00465089
0.00608201
0.00766274
0.00930255
0.0109183
0.0124481
0.0138326
0.0150819
0.00080887
0.000808336
0.000809969
0.000814963
0.000824652
0.000840888
0.000867777
0.000914291
0.000996829
0.00114653
0.00141523
0.00187575
0.00260151
0.00363325
0.0049579
0.00651123
0.00819555
0.00990316
0.0115459
0.0130418
0.0143768
0.000761267
0.000759086
0.000758218
0.000759306
0.000763475
0.000772218
0.000787496
0.000813321
0.000859302
0.000943645
0.00110216
0.0013953
0.00190799
0.00272179
0.00387443
0.00533746
0.00702255
0.00880534
0.0105643
0.0121883
0.0136215
0.000711916
0.000709594
0.000708424
0.000709
0.000712373
0.000720192
0.000734516
0.000759379
0.000805078
0.000892068
0.0010621
0.00138674
0.00196538
0.00288776
0.00418479
0.00580518
0.00762672
0.00949189
0.0112591
0.012807
0.000665734
0.000662613
0.000660167
0.000658721
0.000658822
0.000661449
0.000668364
0.000681722
0.000705772
0.00075155
0.000842419
0.00102772
0.0013934
0.00205624
0.00311334
0.00458236
0.00637685
0.00832594
0.0102374
0.0119219
0.000619526
0.000616063
0.000612983
0.000610458
0.000608783
0.000608467
0.000610428
0.000616472
0.000628882
0.000652306
0.000698636
0.000795051
0.00100089
0.00142082
0.00219223
0.0034172
0.0050887
0.00706428
0.00910785
0.010953
0.00057232
0.000568848
0.000565573
0.000562584
0.000560035
0.000558192
0.000557528
0.00055892
0.000564132
0.000575665
0.000598683
0.000646183
0.000750451
0.000984412
0.00147706
0.00238981
0.00382369
0.0057248
0.00785833
0.00988461
0.000523073
0.000519817
0.000516659
0.00051363
0.0005108
0.0005083
0.000506368
0.000505443
0.000506355
0.000510801
0.000521567
0.000544457
0.000593985
0.000709485
0.000982721
0.00157453
0.00267317
0.00436352
0.00649706
0.00869241
0.000470417
0.000467563
0.000464753
0.000461991
0.000459297
0.000456725
0.000454381
0.000452473
0.000451401
0.000451943
0.000455723
0.000465871
0.000488968
0.000541819
0.000673779
0.00100347
0.00173375
0.00307949
0.00506886
0.00735763
0.000412439
0.000410115
0.000407829
0.000405565
0.000403317
0.000401092
0.000398923
0.000396893
0.000395175
0.000394121
0.000394456
0.000397737
0.000407512
0.000431248
0.000489523
0.000646491
0.00106007
0.00198828
0.00365598
0.00590399
0.000345891
0.000344244
0.000342647
0.000341082
0.000339533
0.000337986
0.000336437
0.0003349
0.00033343
0.000332159
0.000331388
0.000331786
0.000334897
0.000344721
0.000369979
0.000437365
0.000634431
0.00117825
0.00239449
0.00441493
0.000264683
0.000263892
0.000263194
0.000262565
0.000261986
0.000261438
0.000260905
0.000260375
0.00025985
0.000259357
0.000258987
0.000258983
0.000259964
0.000263546
0.000274249
0.000303043
0.000387055
0.000655336
0.00142029
0.00305973
0.000156654
0.000157001
0.000157505
0.000158152
0.000158927
0.000159812
0.000160793
0.000161861
0.000163012
0.00016425
0.000165593
0.000167101
0.000168956
0.000171707
0.000177078
0.000190552
0.000227998
0.000348121
0.000773587
0.00198703
3.73062e-05
3.81357e-05
3.89957e-05
3.99333e-05
4.09889e-05
4.21842e-05
4.35452e-05
4.51041e-05
4.69006e-05
4.89822e-05
5.14048e-05
5.42371e-05
5.75792e-05
6.16277e-05
6.69217e-05
7.51557e-05
9.21981e-05
0.000140599
0.000321514
0.00112174
1.36828e-06
1.40155e-06
1.45584e-06
1.52001e-06
1.59097e-06
1.67137e-06
1.76593e-06
1.88173e-06
2.02861e-06
2.22004e-06
2.47481e-06
2.82011e-06
3.2967e-06
3.96999e-06
4.95579e-06
6.56296e-06
9.72893e-06
1.78739e-05
5.13528e-05
0.00030342
0.059063
0.0586215
0.0581889
0.0577588
0.0573312
0.0569056
0.0564818
0.0560596
0.0556384
0.0552181
0.0547982
0.0543781
0.0539575
0.0535358
0.0531125
0.0526869
0.0522583
0.0518261
0.0513894
0.0509475
0.0504993
0.050044
0.0495804
0.0491074
0.0486237
0.048128
0.0476188
0.0470945
0.0465534
0.0459935
0.0454127
0.0448088
0.0441791
0.0435209
0.0428311
0.0421062
0.0413422
0.0405347
0.0396788
0.0387686
0.0377974
0.0367573
0.0356388
0.0344309
0.0331198
0.0316879
0.0301122
0.0283615
0.0263913
0.024134
0.0214779
0.0182184
0.0139478
0.00827929
0.00161513
0.059017
0.0585741
0.0581391
0.0577065
0.057276
0.0568475
0.0564206
0.055995
0.0555704
0.0551464
0.0547226
0.0542985
0.0538736
0.0534474
0.0530194
0.0525889
0.0521552
0.0517177
0.0512755
0.0508278
0.0503737
0.0499122
0.0494422
0.0489626
0.0484722
0.0479696
0.0474533
0.0469217
0.0463732
0.0458057
0.0452172
0.0446055
0.043968
0.043302
0.0426042
0.0418714
0.0410995
0.0402843
0.0394207
0.0385028
0.0375241
0.0364765
0.0353504
0.0341347
0.0328154
0.0313746
0.0297883
0.0280239
0.0260345
0.0237477
0.0210441
0.0177133
0.0133915
0.00800903
0.0020832
0.0589714
0.0585269
0.0580894
0.0576541
0.0572208
0.0567892
0.056359
0.05593
0.0555018
0.0550739
0.0546461
0.0542177
0.0537885
0.0533577
0.0529248
0.0524893
0.0520504
0.0516074
0.0511596
0.050706
0.0502459
0.0497781
0.0493017
0.0488155
0.0483183
0.0478086
0.0472852
0.0467463
0.0461903
0.0456152
0.0450191
0.0443996
0.0437543
0.0430804
0.0423748
0.0416341
0.0408545
0.0400316
0.0391603
0.038235
0.037249
0.0361942
0.0350612
0.0338383
0.0325117
0.0310631
0.0294682
0.0276938
0.0256921
0.0233904
0.0206728
0.0173488
0.0131439
0.00828419
0.00312727
0.058926
0.0584798
0.0580396
0.0576014
0.0571651
0.0567302
0.0562967
0.0558641
0.0554321
0.0550003
0.0545684
0.0541357
0.0537019
0.0532664
0.0528286
0.0523879
0.0519437
0.0514952
0.0510416
0.0505821
0.0501158
0.0496417
0.0491588
0.0486659
0.0481617
0.0476451
0.0471144
0.0465682
0.0460047
0.0454221
0.0448183
0.0441911
0.0435381
0.0428564
0.0421431
0.0413947
0.0406075
0.0397771
0.0388985
0.0379661
0.0369732
0.0359119
0.0347727
0.0335439
0.0322115
0.0307572
0.0291571
0.0273782
0.0253736
0.0230746
0.0203766
0.0171226
0.0131569
0.00886801
0.00466746
0.0588806
0.0584326
0.0579895
0.0575483
0.0571088
0.0566707
0.0562336
0.0557973
0.0553614
0.0549256
0.0544893
0.0540522
0.0536138
0.0531734
0.0527306
0.0522847
0.051835
0.0513808
0.0509214
0.0504559
0.0499834
0.0495029
0.0490134
0.0485137
0.0480027
0.0474789
0.0469411
0.0463875
0.0458166
0.0452265
0.0446151
0.0439803
0.0433196
0.0426303
0.0419094
0.0411536
0.040359
0.0395215
0.038636
0.037697
0.0366979
0.0356307
0.0344863
0.0332531
0.031917
0.0304598
0.0288584
0.0270811
0.025084
0.0228048
0.0201548
0.0170117
0.0133537
0.00967333
0.00638231
0.0588351
0.0583852
0.0579391
0.0574948
0.0570519
0.0566103
0.0561696
0.0557295
0.0552896
0.0548496
0.0544089
0.0539673
0.053524
0.0530787
0.0526307
0.0521795
0.0517243
0.0512644
0.050799
0.0503274
0.0498486
0.0493617
0.0488655
0.0483591
0.0478411
0.0473103
0.0467652
0.0462044
0.0456261
0.0450285
0.0444097
0.0437674
0.0430992
0.0424025
0.0416743
0.0409113
0.0401097
0.0392654
0.0383735
0.0374285
0.0364238
0.0353519
0.0342034
0.0329672
0.0316296
0.030173
0.028575
0.0268061
0.0248264
0.0225822
0.0200024
0.0170107
0.0137188
0.010607
0.00797382
0.0587896
0.0583376
0.0578882
0.0574406
0.0569943
0.0565491
0.0561046
0.0556605
0.0552165
0.0547722
0.054327
0.0538807
0.0534326
0.0529822
0.052529
0.0520723
0.0516114
0.0511457
0.0506744
0.0501966
0.0497115
0.049218
0.0487152
0.048202
0.0476771
0.0471392
0.046587
0.046019
0.0454334
0.0448285
0.0442023
0.0435527
0.0428772
0.0421733
0.0414381
0.0406682
0.0398601
0.0390095
0.0381118
0.0371615
0.0361521
0.0350764
0.0339252
0.0326878
0.031351
0.0298982
0.0283086
0.0265553
0.0246039
0.0224107
0.0199242
0.0171258
0.0142096
0.0115705
0.00936257
0.0587438
0.0582893
0.0578367
0.0573857
0.0569358
0.0564869
0.0560385
0.0555903
0.0551421
0.0546933
0.0542436
0.0537924
0.0533393
0.0528838
0.0524252
0.051963
0.0514965
0.0510249
0.0505475
0.0500635
0.049572
0.049072
0.0485626
0.0480426
0.0475108
0.0469659
0.0464066
0.0458314
0.0452386
0.0446265
0.0439932
0.0433364
0.0426539
0.0419432
0.0412012
0.0404249
0.0396107
0.0387544
0.0378515
0.0368967
0.0358837
0.0348054
0.0336531
0.0324166
0.0310835
0.0296384
0.0280625
0.0263327
0.0244206
0.0222934
0.0199201
0.017341
0.014777
0.0125039
0.0105673
0.0586977
0.0582403
0.0577845
0.0573299
0.0568764
0.0564236
0.0559712
0.0555188
0.0550662
0.0546129
0.0541584
0.0537024
0.0532442
0.0527834
0.0523194
0.0518516
0.0513793
0.0509018
0.0504184
0.0499281
0.0494302
0.0489237
0.0484076
0.0478808
0.0473422
0.0467904
0.0462241
0.0456419
0.045042
0.0444229
0.0437826
0.0431189
0.0424297
0.0417124
0.0409641
0.0401818
0.039362
0.0385007
0.0375934
0.0366351
0.0356196
0.0345402
0.0333887
0.0321556
0.0308293
0.0293962
0.02784
0.0261414
0.0242787
0.0222299
0.019987
0.0176348
0.0153763
0.0133789
0.0116262
0.0586512
0.0581906
0.0577313
0.0572732
0.0568158
0.0563591
0.0559025
0.0554459
0.0549888
0.0545308
0.0540715
0.0536105
0.0531472
0.0526811
0.0522116
0.0517381
0.05126
0.0507765
0.0502869
0.0497904
0.0492861
0.0487731
0.0482504
0.0477169
0.0471714
0.0466128
0.0460396
0.0454505
0.0448438
0.0442179
0.0435708
0.0429005
0.0422049
0.0414814
0.0407273
0.0399395
0.0391148
0.0382492
0.0373384
0.0363776
0.035361
0.0342822
0.0331336
0.0319065
0.0305906
0.0291741
0.0276433