/*--------------------------------*- C++ -*----------------------------------*\
  =========                 |
  \\      /  F ield         | OpenFOAM: The Open Source CFD Toolbox
   \\    /   O peration     | Website:  https://openfoam.org
    \\  /    A nd           | Version:  10
     \\/     M anipulation  |
\*---------------------------------------------------------------------------*/
FoamFile
{
    format      ascii;
    class       volVectorField;
    location    "16000";
    object      Urel;
}
// * * * * * * * * * * * * * * * * * * * * * * * * * * * * * * * * * * * * * //

dimensions      [0 1 -1 0 0 0 0];

internalField   nonuniform List<vector> 
17981
(
(0.0103425 -0.128443 1.37152e-21)
(0.00982518 -0.133707 -1.32389e-21)
(0.00937141 -0.138881 0)
(0.00895445 -0.143959 -8.1771e-21)
(0.00857114 -0.148937 1.78311e-20)
(0.0082216 -0.153812 -9.58032e-21)
(0.00790495 -0.158581 0)
(0.00761983 -0.163243 8.3e-22)
(0.00736478 -0.167797 0)
(0.00713826 -0.172241 0)
(0.00693868 -0.176577 -1.00961e-21)
(0.00676447 -0.180804 1.85636e-20)
(0.006614 -0.184923 -1.68044e-20)
(0.00648571 -0.188937 0)
(0.00637803 -0.192845 0)
(0.00628947 -0.196652 0)
(0.00621855 -0.200359 0)
(0.00616388 -0.203967 -1.93244e-20)
(0.00612413 -0.207481 1.85543e-20)
(0.00609802 -0.210903 3.87422e-20)
(0.00608435 -0.214236 -3.66188e-20)
(0.00608198 -0.217482 -5.90311e-22)
(0.00608986 -0.220645 0)
(0.00610699 -0.223729 0)
(0.00613243 -0.226735 3.75188e-20)
(0.00616532 -0.229667 -3.55024e-20)
(0.00620486 -0.232527 3.6636e-20)
(0.00625031 -0.23532 -3.52413e-20)
(0.00630097 -0.238048 -5.49702e-22)
(0.00635622 -0.240714 0)
(0.00641548 -0.24332 2.66446e-22)
(0.00647821 -0.245869 -2.62005e-22)
(0.00654392 -0.248364 -2.57442e-22)
(0.00661218 -0.250808 3.24144e-20)
(0.00668257 -0.253203 -3.12268e-20)
(0.00675474 -0.255551 -2.43263e-22)
(0.00682833 -0.257855 0)
(0.00690307 -0.260116 0)
(0.00697867 -0.262338 2.28736e-22)
(0.00705488 -0.264522 -2.90938e-20)
(0.00713148 -0.266669 -1.66761e-22)
(0.00720826 -0.268783 2.70337e-20)
(0.00728522 -0.270865 1.04728e-22)
(0.0073626 -0.272916 0)
(0.00743855 -0.274945 0)
(0.00751302 -0.277033 0)
(0.00758638 -0.279297 0)
(0.00765709 -0.281792 -3.50832e-20)
(0.0157225 -0.125532 -6.12556e-21)
(0.0152566 -0.13088 0)
(0.0148291 -0.136146 -2.48532e-20)
(0.0144387 -0.141324 5.9983e-20)
(0.0140846 -0.146408 -3.34744e-20)
(0.0137659 -0.151394 4.93383e-20)
(0.0134814 -0.156279 -4.73726e-20)
(0.0132296 -0.161059 8.83331e-22)
(0.0130092 -0.165733 1.91959e-21)
(0.0128184 -0.170299 -6.88037e-20)
(0.0126557 -0.174756 1.36971e-19)
(0.0125194 -0.179104 -7.02298e-20)
(0.0124079 -0.183344 0)
(0.0123193 -0.187476 2.3821e-21)
(0.0122522 -0.191501 -8.01211e-20)
(0.0122049 -0.195422 7.6859e-20)
(0.0121759 -0.19924 8.18549e-20)
(0.0121636 -0.202958 -7.85397e-20)
(0.0121668 -0.206577 1.26043e-21)
(0.012184 -0.210101 0)
(0.012214 -0.213533 -6.30068e-22)
(0.0122556 -0.216874 8.23458e-20)
(0.0123077 -0.220129 -7.72314e-20)
(0.0123692 -0.2233 8.16607e-20)
(0.0124391 -0.226391 -1.56862e-19)
(0.0125165 -0.229404 7.58817e-20)
(0.0126006 -0.232342 -7.76426e-20)
(0.0126906 -0.235209 7.46491e-20)
(0.0127857 -0.238007 5.82229e-22)
(0.0128854 -0.240739 0)
(0.012989 -0.243409 2.81646e-22)
(0.0130959 -0.246019 2.77116e-22)
(0.0132057 -0.248572 -7.00685e-20)
(0.0133178 -0.25107 6.79957e-20)
(0.0134319 -0.253516 -7.85789e-22)
(0.0135476 -0.255913 6.65571e-20)
(0.0136645 -0.258262 -6.38843e-20)
(0.0137823 -0.260567 0)
(0.0139008 -0.26283 6.19652e-20)
(0.0140196 -0.265052 -1.2012e-19)
(0.0141386 -0.267236 5.79909e-20)
(0.0142575 -0.269384 -5.79292e-20)
(0.0143762 -0.271498 -1.04638e-21)
(0.014495 -0.273579 5.46234e-20)
(0.0146131 -0.275629 0)
(0.0147307 -0.277703 0)
(0.0148507 -0.279907 2.42154e-22)
(0.0149733 -0.282318 -1.3588e-22)
(0.0208854 -0.122141 0)
(0.0204481 -0.127569 1.73047e-20)
(0.0200491 -0.132925 -1.80504e-20)
(0.0196878 -0.138201 3.70908e-20)
(0.019364 -0.143391 -3.81656e-20)
(0.0190766 -0.148488 -2.99978e-21)
(0.0188246 -0.15349 0)
(0.0186067 -0.15839 -1.89904e-21)
(0.0184213 -0.163187 -6.15875e-21)
(0.0182669 -0.167878 0)
(0.0181416 -0.172461 2.30706e-21)
(0.0180438 -0.176935 4.79752e-21)
(0.0179716 -0.1813 0)
(0.0179235 -0.185556 -3.83176e-24)
(0.0178975 -0.189704 2.59367e-21)
(0.0178921 -0.193746 0)
(0.0179057 -0.197682 1.74585e-19)
(0.0179365 -0.201516 -1.6475e-19)
(0.0179833 -0.205248 -1.77037e-19)
(0.0180445 -0.208881 1.6854e-19)
(0.0181189 -0.212418 -2.68039e-21)
(0.018205 -0.215863 0)
(0.0183019 -0.219216 1.32442e-21)
(0.0184083 -0.222483 -1.31538e-21)
(0.0185232 -0.225665 1.30134e-21)
(0.0186457 -0.228766 -1.6576e-19)
(0.0187748 -0.231788 1.60486e-19)
(0.0189098 -0.234735 -1.25258e-21)
(0.0190499 -0.237611 0)
(0.0191944 -0.240417 1.56028e-19)
(0.0193426 -0.243157 3.89812e-21)
(0.0194941 -0.245833 -1.49811e-19)
(0.0196482 -0.248449 0)
(0.0198045 -0.251008 0)
(0.0199626 -0.253511 -1.43632e-19)
(0.020122 -0.255962 1.38858e-19)
(0.0202824 -0.258364 -5.31465e-22)
(0.0204436 -0.260717 0)
(0.0206051 -0.263026 5.09077e-22)
(0.0207668 -0.265292 -4.98189e-22)
(0.0209284 -0.267517 -1.25525e-19)
(0.0210898 -0.269703 1.21046e-19)
(0.0212506 -0.271853 2.3259e-22)
(0.0214111 -0.273969 -2.26961e-22)
(0.0215713 -0.276051 -4.46815e-22)
(0.0217305 -0.278127 0)
(0.0218927 -0.280283 -2.4245e-22)
(0.0220615 -0.282618 -1.39003e-19)
(0.0244116 -0.139917 -2.6668e-21)
(0.0241563 -0.145122 3.22141e-21)
(0.0239376 -0.150236 1.26374e-19)
(0.0237542 -0.155255 -2.5957e-19)
(0.0236045 -0.160175 1.37061e-19)
(0.023487 -0.164991 -4.67818e-21)
(0.0233999 -0.169701 1.59828e-19)
(0.0233413 -0.174304 -1.63032e-19)
(0.0233095 -0.178797 0)
(0.0233027 -0.183182 -2.72283e-21)
(0.0233189 -0.187457 1.80001e-19)
(0.0233564 -0.191625 -1.75153e-19)
(0.0234136 -0.195684 -1.8074e-19)
(0.0234887 -0.199639 -1.42532e-20)
(0.0235802 -0.203489 1.79469e-19)
(0.0236866 -0.207238 -1.87135e-19)
(0.0238064 -0.210887 1.79456e-19)
(0.0239382 -0.21444 0)
(0.0240809 -0.217899 1.80918e-19)
(0.0242333 -0.221267 -3.58258e-19)
(0.0243942 -0.224546 1.70474e-19)
(0.0245626 -0.227741 1.76242e-19)
(0.0247377 -0.230854 -1.67848e-19)
(0.0249184 -0.233888 -1.3295e-21)
(0.0251042 -0.236846 -1.69744e-19)
(0.0252941 -0.239732 -1.17004e-21)
(0.0254876 -0.242548 -6.03801e-21)
(0.025684 -0.245297 1.60082e-19)
(0.0258829 -0.247982 1.57783e-19)
(0.0260837 -0.250607 -3.06442e-19)
(0.0262859 -0.253173 1.4999e-19)
(0.0264892 -0.255684 -1.48333e-19)
(0.0266933 -0.258142 1.43369e-19)
(0.0268977 -0.260549 -1.41991e-19)
(0.0271022 -0.262909 -3.67882e-21)
(0.0273066 -0.265224 1.33766e-19)
(0.0275107 -0.267495 1.54301e-21)
(0.0277141 -0.269725 -1.29008e-19)
(0.0279169 -0.271916 1.24383e-19)
(0.0281188 -0.274071 4.79479e-22)
(0.0283201 -0.27619 4.68077e-22)
(0.0285197 -0.278277 1.19546e-19)
(0.0287215 -0.2804 -1.24254e-19)
(0.0289331 -0.282672 0)
(0.0291965 -0.136024 -7.50569e-20)
(0.0289728 -0.141329 -6.83994e-21)
(0.0287872 -0.146552 0)
(0.0286381 -0.151687 1.48126e-19)
(0.0285243 -0.156728 -1.42006e-19)
(0.0284439 -0.16167 1.00344e-20)
(0.0283954 -0.166509 1.05609e-20)
(0.0283767 -0.171242 0)
(0.0283859 -0.175868 0)
(0.0284212 -0.180385 -5.81714e-21)
(0.0284807 -0.184792 0)
(0.0285623 -0.18909 0)
(0.0286644 -0.193279 -6.07879e-21)
(0.0287851 -0.19736 3.05637e-21)
(0.0289227 -0.201334 -2.00194e-19)
(0.0290756 -0.205204 1.91838e-19)
(0.0292424 -0.208972 -1.95837e-19)
(0.0294214 -0.21264 1.90659e-19)
(0.0296115 -0.21621 3.00869e-21)
(0.0298114 -0.219686 0)
(0.0300198 -0.22307 -1.91585e-19)
(0.0302357 -0.226365 -8.15072e-21)
(0.0304581 -0.229574 -7.76556e-21)
(0.030686 -0.2327 1.81726e-19)
(0.0309187 -0.235747 -1.80438e-19)
(0.0311553 -0.238718 -5.35594e-21)
(0.0313952 -0.241615 1.74386e-19)
(0.0316377 -0.244442 -1.72099e-19)
(0.0318822 -0.247202 1.64173e-19)
(0.0321283 -0.249897 0)
(0.0323754 -0.252531 1.60631e-19)
(0.0326232 -0.255106 -1.56979e-19)
(0.0328713 -0.257626 0)
(0.0331193 -0.260092 1.16527e-21)
(0.033367 -0.262507 1.14001e-21)
(0.033614 -0.264875 1.1135e-21)
(0.0338603 -0.267196 1.39163e-19)
(0.0341055 -0.269474 -2.73682e-19)
(0.0343495 -0.27171 1.33547e-19)
(0.0345922 -0.273908 0)
(0.0348336 -0.276068 0)
(0.0350738 -0.278193 1.26057e-19)
(0.0353148 -0.280323 -1.27082e-19)
(0.0355652 -0.282551 0)
(0.0337116 -0.131739 -8.60735e-20)
(0.033519 -0.137137 -1.21414e-19)
(0.033366 -0.142463 2.68403e-19)
(0.0332512 -0.147709 -1.38884e-19)
(0.0331732 -0.152868 -1.70646e-19)
(0.0331303 -0.157934 1.58093e-19)
(0.0331207 -0.162902 -5.66924e-21)
(0.0331425 -0.167767 0)
(0.0331936 -0.172526 -2.01755e-19)
(0.033272 -0.177178 4.05521e-19)
(0.0333756 -0.18172 1.21264e-20)
(0.0335024 -0.186152 -2.00501e-19)
(0.0336505 -0.190475 -6.49497e-21)
(0.033818 -0.194687 -2.14003e-19)
(0.034003 -0.198791 2.04922e-19)
(0.0342038 -0.202788 -2.13514e-19)
(0.0344188 -0.20668 -7.93013e-21)
(0.0346464 -0.210469 2.03556e-19)
(0.0348852 -0.214156 -9.63551e-21)
(0.0351338 -0.217746 0)
(0.035391 -0.221239 3.02575e-24)
(0.0356556 -0.22464 3.10586e-21)
(0.0359266 -0.227951 1.98492e-19)
(0.0362029 -0.231176 4.86863e-21)
(0.0364836 -0.234317 -3.79497e-19)
(0.036768 -0.237378 1.81442e-19)
(0.0370552 -0.240361 -5.72194e-21)
(0.0373447 -0.24327 0)
(0.0376359 -0.246109 -3.55739e-19)
(0.0379281 -0.248879 3.4193e-19)
(0.0382209 -0.251584 0)
(0.0385138 -0.254227 1.29261e-21)
(0.0388065 -0.25681 3.26243e-19)
(0.0390987 -0.259337 -3.15165e-19)
(0.03939 -0.26181 0)
(0.0396801 -0.264231 -1.18059e-21)
(0.0399689 -0.266604 1.15232e-21)
(0.0402562 -0.26893 1.12576e-21)
(0.0405417 -0.271212 -2.84094e-19)
(0.0408253 -0.273452 2.72736e-19)
(0.041107 -0.275652 -1.04539e-21)
(0.0413869 -0.277814 -2.65165e-19)
(0.0416662 -0.279961 2.63602e-19)
(0.041954 -0.282174 0)
(0.0377779 -0.132579 -7.81032e-21)
(0.0376567 -0.138 -8.94992e-21)
(0.0375757 -0.143351 0)
(0.0375332 -0.148625 -1.07915e-20)
(0.0375276 -0.153812 -1.15163e-20)
(0.0375572 -0.158906 0)
(0.0376197 -0.163902 -2.10479e-19)
(0.0377132 -0.168796 2.01399e-19)
(0.0378353 -0.173585 0)
(0.037984 -0.178265 -4.49154e-19)
(0.038157 -0.182835 4.36613e-19)
(0.0383523 -0.187295 6.96978e-21)
(0.0385678 -0.191643 0)
(0.0388015 -0.195882 0)
(0.0390516 -0.200011 -6.99105e-21)
(0.0393164 -0.204032 0)
(0.0395941 -0.207947 4.50961e-19)
(0.0398831 -0.211757 -8.78593e-19)
(0.0401822 -0.215466 8.69588e-19)
(0.0404897 -0.219075 -4.19869e-19)
(0.0408047 -0.222588 0)
(0.0411257 -0.226007 4.20048e-19)
(0.041452 -0.229335 -4.05975e-19)
(0.0417824 -0.232576 0)
(0.0421161 -0.235732 4.04766e-19)
(0.0424523 -0.238808 -7.76519e-19)
(0.0427903 -0.241804 3.75339e-19)
(0.0431296 -0.244727 -3.78322e-19)
(0.0434694 -0.247577 3.60614e-19)
(0.0438094 -0.250358 -3.62377e-19)
(0.0441491 -0.253073 3.48366e-19)
(0.044488 -0.255726 0)
(0.0448258 -0.258318 3.35841e-19)
(0.0451622 -0.260853 -3.25655e-19)
(0.045497 -0.263334 0)
(0.04583 -0.265762 -3.16255e-19)
(0.0461608 -0.268141 3.0455e-19)
(0.0464895 -0.270473 -1.16358e-21)
(0.0468157 -0.272759 -2.92441e-19)
(0.0471396 -0.275004 5.66958e-19)
(0.0474611 -0.277207 -2.74288e-19)
(0.0477804 -0.27938 2.78952e-19)
(0.0481069 -0.281592 3.03441e-21)
(0.0416064 -0.138641 -1.06573e-20)
(0.0415992 -0.144022 5.78292e-23)
(0.0416312 -0.149325 1.24148e-20)
(0.0417001 -0.154544 0)
(0.041804 -0.15967 -4.65665e-19)
(0.0419406 -0.164698 8.83252e-19)
(0.0421075 -0.169624 3.0208e-20)
(0.0423024 -0.174443 2.8104e-20)
(0.042523 -0.179153 -4.83126e-19)
(0.0427671 -0.183753 -7.45989e-21)
(0.0430324 -0.188242 0)
(0.0433167 -0.192619 -4.90981e-19)
(0.0436181 -0.196885 -1.20982e-20)
(0.0439347 -0.20104 4.7562e-19)
(0.0442646 -0.205086 0)
(0.0446062 -0.209025 8.9474e-24)
(0.0449579 -0.212858 7.25698e-21)
(0.0453181 -0.216588 -7.1676e-21)
(0.0456856 -0.220218 0)
(0.0460591 -0.22375 4.48327e-19)
(0.0464375 -0.227188 -4.33082e-19)
(0.0468198 -0.230534 0)
(0.047205 -0.233791 3.30536e-21)
(0.0475923 -0.236963 4.19758e-19)
(0.047981 -0.240053 -3.96503e-19)
(0.0483703 -0.243064 0)
(0.0487598 -0.245999 3.94069e-19)
(0.0491488 -0.248861 -3.78558e-19)
(0.0495369 -0.251654 2.91734e-21)
(0.0499236 -0.25438 0)
(0.0503087 -0.257043 2.78815e-21)
(0.0506918 -0.259644 0)
(0.0510727 -0.262188 -3.42635e-19)
(0.0514511 -0.264676 6.64044e-19)
(0.0518268 -0.267112 -6.47911e-19)
(0.0521997 -0.269497 3.1646e-19)
(0.0525697 -0.271835 0)
(0.0529366 -0.274127 1.17395e-21)
(0.0533006 -0.276376 -2.94506e-19)
(0.0536613 -0.278585 5.79441e-19)
(0.054028 -0.280815 -3.02261e-19)
(0.0453616 -0.139092 -4.09782e-19)
(0.0454305 -0.144506 3.90913e-19)
(0.0455388 -0.149844 0)
(0.0456842 -0.155097 1.46212e-20)
(0.0458643 -0.160258 4.63544e-23)
(0.0460768 -0.165321 0)
(0.046319 -0.17028 0)
(0.0465886 -0.175133 3.18037e-20)
(0.046883 -0.179876 8.02174e-21)
(0.0471998 -0.184507 8.03762e-21)
(0.0475368 -0.189027 0)
(0.0478917 -0.193433 -5.24433e-19)
(0.0482624 -0.197727 4.93508e-19)
(0.048647 -0.20191 5.16644e-19)
(0.0490436 -0.205982 -4.86417e-19)
(0.0494504 -0.209945 -7.77193e-21)
(0.0498659 -0.213802 7.67194e-21)
(0.0502885 -0.217555 0)
(0.0507171 -0.221206 7.44478e-21)
(0.0511502 -0.224758 4.7424e-19)
(0.0515869 -0.228215 -4.54497e-19)
(0.0520262 -0.231579 -4.637e-19)
(0.0524671 -0.234853 4.41377e-19)
(0.0529088 -0.238041 -6.77832e-21)
(0.0533506 -0.241146 0)
(0.0537919 -0.244171 6.49527e-21)
(0.0542322 -0.247119 4.13401e-19)
(0.0546708 -0.249994 -3.97144e-19)
(0.0551075 -0.252798 3.91531e-19)
(0.0555419 -0.255535 -7.58584e-19)
(0.0559736 -0.258208 3.67525e-19)
(0.0564023 -0.260819 -3.64013e-19)
(0.0568278 -0.263371 3.50181e-19)
(0.0572501 -0.265867 -1.34391e-21)
(0.0576688 -0.26831 -8.33003e-25)
(0.0580839 -0.270702 1.27675e-21)
(0.0584952 -0.273046 0)
(0.0589028 -0.275344 -1.21265e-21)
(0.0593068 -0.277598 0)
(0.0597159 -0.279862 1.24323e-21)
(0.0490682 -0.144831 0)
(0.0492552 -0.150206 1.56672e-20)
(0.0494794 -0.155497 1.62242e-20)
(0.0497381 -0.160696 0)
(0.0500287 -0.165795 -5.56564e-19)
(0.0503485 -0.170791 5.14455e-19)
(0.0506949 -0.175679 -1.71949e-20)
(0.0510651 -0.180457 -8.64526e-21)
(0.0514568 -0.185122 -5.64996e-19)
(0.0518674 -0.189673 -2.26591e-20)
(0.0522946 -0.19411 5.46154e-19)
(0.0527363 -0.198434 0)
(0.0531904 -0.202644 -5.4755e-19)
(0.053655 -0.206743 -1.69368e-20)
(0.0541284 -0.210732 1.0583e-18)
(0.0546089 -0.214613 -5.09978e-19)
(0.0550951 -0.218388 -5.15858e-19)
(0.0555857 -0.222061 9.92819e-19)
(0.0560794 -0.225633 -4.92999e-19)
(0.0565753 -0.229109 -3.75962e-21)
(0.0570722 -0.232491 -3.69175e-21)
(0.0575694 -0.235782 -4.60191e-19)
(0.0580661 -0.238986 -8.94161e-21)
(0.0585616 -0.242106 4.35293e-19)
(0.0590553 -0.245145 -3.38427e-21)
(0.0595467 -0.248107 0)
(0.0600354 -0.250994 -3.22755e-21)
(0.0605209 -0.25381 0)
(0.061003 -0.256557 0)
(0.0614814 -0.25924 0)
(0.0619558 -0.26186 2.92641e-21)
(0.0624261 -0.264421 0)
(0.0628921 -0.266925 -1.39165e-21)
(0.0633538 -0.269375 -8.5634e-25)
(0.0638109 -0.271774 -1.32067e-21)
(0.0642636 -0.274124 3.33898e-19)
(0.064712 -0.276427 -3.22841e-19)
(0.0651642 -0.278729 3.36281e-19)
(0.0534237 -0.161013 5.98697e-19)
(0.0537952 -0.166152 -5.53115e-19)
(0.0541954 -0.171187 1.85214e-20)
(0.0546211 -0.176113 0)
(0.0550696 -0.180927 -6.06751e-19)
(0.0555382 -0.185627 5.7939e-19)
(0.0560244 -0.190211 -1.47191e-23)
(0.0565257 -0.19468 9.10418e-21)
(0.05704 -0.199034 0)
(0.0575651 -0.203272 -8.90055e-21)
(0.0580991 -0.207398 -8.78864e-21)
(0.0586402 -0.211412 -5.61436e-19)
(0.0591869 -0.215317 5.37128e-19)
(0.0597376 -0.219115 8.36138e-21)
(0.0602912 -0.222809 8.06977e-24)
(0.0608463 -0.226401 5.28626e-19)
(0.0614019 -0.229896 -4.98737e-19)
(0.0619572 -0.233296 -3.85819e-21)
(0.0625112 -0.236604 -3.77142e-21)
(0.0630632 -0.239823 0)
(0.0636127 -0.242958 4.65605e-19)
(0.064159 -0.246011 -4.46847e-19)
(0.0647017 -0.248985 4.43669e-19)
(0.0652404 -0.251884 -4.29432e-19)
(0.0657747 -0.254711 -4.22122e-19)
(0.0663044 -0.25747 4.08842e-19)
(0.0668293 -0.260162 -3.11328e-21)
(0.0673491 -0.262791 -3.87832e-19)
(0.0678637 -0.26536 3.73009e-19)
(0.068373 -0.267872 -3.6944e-19)
(0.068877 -0.27033 3.59756e-19)
(0.0693756 -0.272735 3.50281e-19)
(0.0698689 -0.275091 -3.43186e-19)
(0.0703648 -0.277437 -1.37506e-21)
(0.056504 -0.155958 0)
(0.0569281 -0.16124 -5.10824e-23)
(0.0573831 -0.166422 6.53266e-19)
(0.0578656 -0.171497 -6.43128e-19)
(0.0583725 -0.176461 0)
(0.058901 -0.181312 -1.98382e-20)
(0.0594481 -0.186047 9.83857e-21)
(0.0600113 -0.190665 6.36982e-19)
(0.0605881 -0.195165 2.10451e-20)
(0.0611761 -0.199549 -5.91662e-19)
(0.0617734 -0.203816 -6.01915e-19)
(0.0623778 -0.207969 5.84317e-19)
(0.0629877 -0.212008 5.90534e-19)
(0.0636013 -0.215936 -5.55912e-19)
(0.0642174 -0.219756 5.76791e-19)
(0.0648345 -0.223471 -5.52296e-19)
(0.0654515 -0.227083 -8.41189e-21)
(0.0660674 -0.230595 5.32529e-19)
(0.0666813 -0.234012 -1.01873e-18)
(0.0672924 -0.237335 -1.34485e-20)
(0.0679 -0.240569 4.87602e-19)
(0.0685035 -0.243717 -4.84536e-19)
(0.0691024 -0.246783 4.68638e-19)
(0.0696962 -0.249768 -4.57395e-19)
(0.0702847 -0.252678 8.92049e-19)
(0.0708675 -0.255514 -4.31686e-19)
(0.0714444 -0.258281 0)
(0.0720151 -0.260981 -3.22693e-21)
(0.0725797 -0.263617 3.14341e-21)
(0.0731379 -0.266192 -6.12087e-21)
(0.0736897 -0.268709 -3.85174e-19)
(0.074235 -0.271171 3.7216e-19)
(0.074774 -0.27358 2.84798e-21)
(0.0753148 -0.275973 0)
(0.0592701 -0.150647 -6.53026e-19)
(0.0597465 -0.15607 6.79078e-19)
(0.0602565 -0.161398 -1.39231e-18)
(0.0607964 -0.166623 6.91921e-19)
(0.0613628 -0.17174 -2.14147e-20)
(0.0619524 -0.176744 -6.7577e-19)
(0.0625622 -0.181632 6.4376e-19)
(0.0631892 -0.186403 6.73472e-19)
(0.0638308 -0.191055 -6.63151e-19)
(0.0644843 -0.195588 6.55613e-19)
(0.0651474 -0.200002 -6.45946e-19)
(0.0658178 -0.204297 0)
(0.0664936 -0.208476 -9.74464e-21)
(0.0671731 -0.21254 6.10675e-19)
(0.0678546 -0.216491 -1.20088e-18)
(0.0685367 -0.220333 5.81411e-19)
(0.069218 -0.224068 8.27349e-24)
(0.0698976 -0.227698 0)
(0.0705743 -0.231228 -1.71996e-20)
(0.0712473 -0.23466 5.46964e-19)
(0.0719159 -0.237998 -1.04996e-18)
(0.0725794 -0.241246 5.07928e-19)
(0.0732373 -0.244406 0)
(0.0738891 -0.247482 0)
(0.0745344 -0.250478 -4.78699e-19)
(0.0751729 -0.253396 9.22392e-19)
(0.0758044 -0.256241 -4.47954e-19)
(0.0764286 -0.259015 4.42271e-19)
(0.0770456 -0.261721 -4.25103e-19)
(0.0776551 -0.264362 1.9946e-24)
(0.0782571 -0.266942 -4.07831e-19)
(0.0788515 -0.269463 3.89284e-19)
(0.0794386 -0.271928 -1.51359e-21)
(0.0800279 -0.274375 -3.97387e-19)
(0.0617238 -0.145097 2.266e-20)
(0.0622518 -0.150659 0)
(0.0628167 -0.156132 2.3102e-20)
(0.0634142 -0.161507 0)
(0.0640408 -0.166777 7.7782e-19)
(0.0646929 -0.171937 -7.4217e-19)
(0.065367 -0.176982 0)
(0.0660598 -0.181909 2.25363e-20)
(0.0667684 -0.186717 7.365e-19)
(0.0674898 -0.191403 -6.81038e-19)
(0.0682214 -0.195968 -1.08141e-20)
(0.0689608 -0.200412 1.06333e-20)
(0.0697057 -0.204736 6.882e-19)
(0.0704541 -0.208941 -1.31187e-18)
(0.0712043 -0.213029 6.34974e-19)
(0.0719546 -0.217003 6.5627e-19)
(0.0727037 -0.220865 -5.99323e-19)
(0.0734502 -0.224618 -6.08207e-19)
(0.074193 -0.228267 1.19456e-18)
(0.0749313 -0.231812 -5.68808e-19)
(0.0756641 -0.235259 0)
(0.0763907 -0.238611 0)
(0.0771106 -0.241871 0)
(0.0778233 -0.245042 0)
(0.0785283 -0.248128 3.95472e-21)
(0.0792253 -0.251132 0)
(0.0799141 -0.254058 -3.75188e-21)
(0.0805945 -0.25691 4.74497e-19)
(0.0812663 -0.259689 -4.52398e-19)
(0.0819296 -0.2624 2.08265e-24)
(0.0825841 -0.265046 -4.33722e-19)
(0.0832299 -0.267629 4.17133e-19)
(0.0838673 -0.270153 3.21825e-21)
(0.0845078 -0.272661 0)
(0.0644441 -0.145023 7.69072e-19)
(0.0650633 -0.150638 -8.16762e-19)
(0.0657189 -0.156163 1.59372e-18)
(0.0664064 -0.161588 -7.52267e-19)
(0.067122 -0.166905 2.473e-20)
(0.0678618 -0.172109 0)
(0.0686223 -0.177197 -4.0115e-23)
(0.0694001 -0.182164 -2.39283e-20)
(0.070192 -0.187009 7.67561e-19)
(0.070995 -0.191731 -7.08848e-19)
(0.0718064 -0.196328 -1.41149e-23)
(0.0726237 -0.200802 1.11967e-20)
(0.0734446 -0.205154 0)
(0.074267 -0.209384 6.96901e-19)
(0.0750893 -0.213496 -6.76526e-19)
(0.0759097 -0.217491 6.66095e-19)
(0.0767269 -0.221374 -1.28763e-18)
(0.0775396 -0.225145 6.12635e-19)
(0.0783467 -0.22881 9.58435e-21)
(0.0791473 -0.232371 0)
(0.0799406 -0.235831 0)
(0.0807259 -0.239195 -5.73665e-19)
(0.0815027 -0.242465 5.49987e-19)
(0.0822706 -0.245646 -4.21999e-21)
(0.0830291 -0.24874 0)
(0.0837781 -0.251752 4.00029e-21)
(0.0845174 -0.254684 -3.89335e-21)
(0.0852467 -0.257541 0)
(0.0859662 -0.260325 4.74533e-19)
(0.0866755 -0.26304 -9.13967e-19)
(0.0873747 -0.265689 4.43711e-19)
(0.0880648 -0.268275 4.3773e-19)
(0.0887597 -0.270848 -4.43055e-19)
(0.0663281 -0.139179 8.52099e-19)
(0.0670011 -0.144933 -8.35973e-19)
(0.0677141 -0.150605 2.68174e-20)
(0.0684625 -0.156184 8.75994e-19)
(0.069242 -0.16166 -8.07058e-19)
(0.0700485 -0.167026 -2.63545e-20)
(0.070878 -0.172277 8.2405e-19)
(0.0717268 -0.177408 5.41539e-20)
(0.0725913 -0.182417 -7.98596e-19)
(0.0734684 -0.187301 -3.74176e-20)
(0.0743548 -0.192058 -2.45061e-20)
(0.0752479 -0.196689 -7.91756e-19)
(0.0761448 -0.201193 1.50758e-18)
(0.0770435 -0.205572 -1.47583e-18)
(0.0779416 -0.209828 7.02123e-19)
(0.0788375 -0.213963 -7.13187e-19)
(0.0797294 -0.21798 6.81763e-19)
(0.080616 -0.221881 1.05037e-20)
(0.0814959 -0.225669 -6.62337e-19)
(0.0823681 -0.229349 6.33946e-19)
(0.0832318 -0.232923 9.73939e-21)
(0.0840861 -0.236395 0)
(0.0849306 -0.239768 0)
(0.0857646 -0.243047 -5.80464e-19)
(0.0865878 -0.246235 5.56687e-19)
(0.0874 -0.249336 5.45221e-19)
(0.0882008 -0.252353 -5.27364e-19)
(0.0889903 -0.255289 0)
(0.0897683 -0.258149 7.84748e-21)
(0.0905347 -0.260935 -4.9125e-19)
(0.0912895 -0.263652 4.76898e-19)
(0.092037 -0.266311 4.72287e-19)
(0.0927924 -0.268964 -4.82167e-19)
(0.0679133 -0.133144 9.24993e-19)
(0.0686383 -0.139031 0)
(0.0694075 -0.144846 -2.90088e-20)
(0.0702159 -0.150575 -6.46241e-23)
(0.0710588 -0.156209 -2.8712e-20)
(0.0719318 -0.161738 9.55694e-19)
(0.0728306 -0.167156 -1.79756e-18)
(0.0737512 -0.172456 8.98895e-19)
(0.0746897 -0.177634 0)
(0.0756428 -0.182687 8.71255e-19)
(0.076607 -0.187612 -7.90687e-19)
(0.0775791 -0.192407 0)
(0.078556 -0.197072 8.31831e-19)
(0.079535 -0.201608 -1.5826e-18)
(0.0805135 -0.206015 1.55924e-18)
(0.0814893 -0.210296 1.66806e-20)
(0.0824606 -0.214454 -1.47541e-18)
(0.0834255 -0.21849 7.12526e-19)
(0.0843826 -0.222408 -8.56091e-24)
(0.0853308 -0.226211 6.90252e-19)
(0.086269 -0.229903 -6.81456e-19)
(0.0871963 -0.233488 0)
(0.0881122 -0.236969 0)
(0.089016 -0.240351 -6.24394e-19)
(0.0899073 -0.243636 -8.69623e-21)
(0.0907859 -0.246829 5.82499e-19)
(0.0916515 -0.249933 0)
(0.0925041 -0.252953 0)
(0.0933435 -0.255891 -4.18132e-21)
(0.0941697 -0.258751 -4.06438e-21)
(0.0949829 -0.261538 -7.93328e-21)
(0.0957908 -0.264273 5.09864e-19)
(0.09661 -0.267012 -1.0353e-18)
(0.0699851 -0.132947 9.74851e-19)
(0.0708094 -0.138896 1.02592e-18)
(0.0716771 -0.14477 -1.00578e-18)
(0.0725829 -0.150558 -9.80248e-19)
(0.0735218 -0.156248 9.3037e-19)
(0.0744893 -0.161832 0)
(0.0754812 -0.167303 -2.98549e-20)
(0.0764933 -0.172656 9.54647e-19)
(0.0775226 -0.177887 5.72006e-20)
(0.0785661 -0.18299 -1.83906e-18)
(0.0796205 -0.187961 8.61112e-19)
(0.080682 -0.192798 8.65933e-19)
(0.0817467 -0.197501 -8.38613e-19)
(0.0828112 -0.202069 0)
(0.0838725 -0.206505 -8.18897e-19)
(0.0849282 -0.210811 1.58054e-18)
(0.0859764 -0.214989 -7.74962e-19)
(0.0870154 -0.219042 -1.17405e-20)
(0.0880438 -0.222975 0)
(0.0890606 -0.22679 1.11376e-20)
(0.0900648 -0.230492 0)
(0.0910556 -0.234085 0)
(0.0920325 -0.237572 -6.5652e-19)
(0.0929951 -0.240958 6.38999e-19)
(0.0939431 -0.244246 0)
(0.0948763 -0.247441 0)
(0.0957945 -0.250547 -4.58315e-21)
(0.0966978 -0.253566 -5.78229e-19)
(0.097586 -0.256504 5.50845e-19)
(0.0984599 -0.259363 2.12608e-24)
(0.0993312 -0.262178 -5.46348e-19)
(0.100218 -0.265005 5.5437e-19)
(0.0710504 -0.126714 1.11203e-18)
(0.07193 -0.132785 -1.02181e-18)
(0.0728571 -0.138793 1.06854e-18)
(0.0738256 -0.144723 -1.11321e-18)
(0.0748301 -0.150565 -1.04588e-18)
(0.0758654 -0.156307 9.92371e-19)
(0.0769264 -0.161943 0)
(0.078009 -0.167467 0)
(0.0791123 -0.172879 -1.01128e-18)
(0.080235 -0.178178 9.63879e-19)
(0.0813732 -0.183352 4.48716e-20)
(0.0825212 -0.188384 1.45972e-20)
(0.0836741 -0.193268 1.42428e-20)
(0.0848289 -0.198007 -9.00524e-19)
(0.0859822 -0.202606 -1.92658e-20)
(0.0871295 -0.207066 8.38065e-19)
(0.0882676 -0.211392 8.33814e-19)
(0.0893942 -0.215586 -7.96516e-19)
(0.0905079 -0.219653 0)
(0.0916077 -0.223595 0)
(0.0926927 -0.227418 -7.47831e-19)
(0.0937621 -0.231126 7.26948e-19)
(0.0948156 -0.234722 7.0687e-19)
(0.0958525 -0.238212 -1.36937e-18)
(0.0968727 -0.241598 6.58277e-19)
(0.097876 -0.244886 -6.48509e-19)
(0.0988624 -0.248079 1.25671e-18)
(0.0998317 -0.251182 -5.99549e-19)
(0.100784 -0.254198 0)
(0.101723 -0.257139 5.88453e-19)
(0.102663 -0.260045 -1.1582e-18)
(0.10362 -0.262962 5.8512e-19)
(0.0718223 -0.120373 -1.14061e-18)
(0.0727558 -0.126555 -3.66404e-20)
(0.0737416 -0.132685 3.64551e-20)
(0.0747726 -0.138747 1.18041e-18)
(0.0758425 -0.144726 -1.08439e-18)
(0.0769452 -0.150611 7.04737e-20)
(0.0780746 -0.156392 -1.12981e-18)
(0.0792269 -0.162063 -3.59297e-20)
(0.0804024 -0.167634 1.0283e-18)
(0.0816029 -0.173115 3.32226e-20)
(0.082826 -0.178497 -3.27026e-20)
(0.0840665 -0.183759 -1.60043e-20)
(0.0853171 -0.188881 -1.55955e-20)
(0.0865703 -0.193845 -1.51274e-20)
(0.087819 -0.198642 0)
(0.0890582 -0.203269 0)
(0.090287 -0.207743 -1.38211e-20)
(0.0915049 -0.212077 0)
(0.092709 -0.216278 -8.59133e-19)
(0.093897 -0.220349 -2.69714e-20)
(0.0950675 -0.224294 1.57423e-18)
(0.0962201 -0.228118 -1.55472e-18)
(0.0973542 -0.231825 7.4404e-19)
(0.0984696 -0.235419 -1.13814e-20)
(0.0995659 -0.238906 -5.52907e-21)
(0.100643 -0.242288 0)
(0.101701 -0.245571 6.72176e-19)
(0.10274 -0.248758 -1.29716e-18)
(0.103759 -0.251854 6.28435e-19)
(0.104769 -0.254882 0)
(0.105783 -0.257885 6.30746e-19)
(0.106814 -0.260894 -6.26959e-19)
(0.0722905 -0.113952 -1.30386e-18)
(0.073275 -0.120236 2.49603e-18)
(0.0743177 -0.126481 -1.23183e-18)
(0.0754108 -0.132669 3.91047e-20)
(0.0765474 -0.138781 -1.299e-18)
(0.0777205 -0.144805 -4.57284e-20)
(0.0789237 -0.15073 2.43531e-18)
(0.0801517 -0.156544 -1.19668e-18)
(0.081403 -0.162255 1.18065e-18)
(0.0826808 -0.167881 -1.16745e-18)
(0.0839852 -0.173428 0)
(0.0853126 -0.178883 0)
(0.0866566 -0.184223 -1.70398e-20)
(0.0880096 -0.189426 1.09212e-18)
(0.0893635 -0.194471 -1.01957e-18)
(0.0907108 -0.199342 -1.55671e-20)
(0.0920447 -0.204031 -9.71494e-19)
(0.0933606 -0.208541 9.19624e-19)
(0.094657 -0.212884 -8.79179e-19)
(0.0959352 -0.217083 8.79199e-19)
(0.0971952 -0.221151 8.69213e-19)
(0.0984353 -0.225092 1.31657e-20)
(0.0996544 -0.22891 -7.95465e-19)
(0.100852 -0.232611 1.21698e-20)
(0.102029 -0.236198 -7.5562e-19)
(0.103183 -0.239676 7.23662e-19)
(0.104317 -0.24305 -5.56851e-21)
(0.105428 -0.246323 0)
(0.106521 -0.249505 -6.80954e-19)
(0.107607 -0.252626 -7.62765e-21)
(0.108698 -0.255723 -1.25356e-20)
(0.109804 -0.25882 6.75488e-19)
(0.0724716 -0.107462 1.45605e-18)
(0.0735042 -0.113839 -1.29596e-18)
(0.0746019 -0.120193 4.26216e-20)
(0.0757564 -0.126501 4.22346e-20)
(0.0769599 -0.132744 4.17292e-20)
(0.0782049 -0.138906 1.3009e-18)
(0.0794843 -0.144974 -2.63162e-18)
(0.0807917 -0.150936 1.29113e-18)
(0.0821228 -0.156787 3.91308e-20)
(0.0834799 -0.162547 0)
(0.0848668 -0.168237 -1.27658e-18)
(0.0862824 -0.173855 -3.16228e-20)
(0.087721 -0.179383 1.18907e-18)
(0.0891746 -0.184798 0)
(0.0906344 -0.190073 -1.14143e-18)
(0.0920913 -0.195187 1.09922e-18)
(0.0935372 -0.200122 3.29939e-20)
(0.0949654 -0.204868 1.02641e-18)
(0.0963708 -0.209423 2.67701e-21)
(0.0977499 -0.213795 -9.18923e-19)
(0.0991027 -0.217999 0)
(0.100432 -0.222059 -8.89808e-19)
(0.101739 -0.225991 -1.31085e-20)
(0.103023 -0.229799 8.39369e-19)
(0.104282 -0.233489 -8.01202e-19)
(0.105518 -0.237065 7.853e-19)
(0.10673 -0.240531 5.94899e-21)
(0.107918 -0.243892 0)
(0.109089 -0.247165 0)
(0.110255 -0.250383 5.60686e-21)
(0.111425 -0.253573 5.58357e-21)
(0.112605 -0.256751 0)
(0.0723856 -0.10092 1.57867e-18)
(0.0734633 -0.107381 -1.4046e-18)
(0.0746143 -0.113836 1.46785e-18)
(0.0758294 -0.120259 -1.47927e-18)
(0.0771001 -0.12663 -8.92431e-23)
(0.0784181 -0.132929 0)
(0.0797756 -0.139141 0)
(0.0811651 -0.145251 1.39717e-18)
(0.0825808 -0.15125 -2.73864e-18)
(0.0840203 -0.157143 1.30748e-18)
(0.0854893 -0.16296 4.10123e-20)
(0.0869906 -0.168717 0)
(0.0885219 -0.174409 -1.29674e-18)
(0.090076 -0.180012 -2.97308e-20)
(0.0916434 -0.1855 2.46028e-18)
(0.0932136 -0.190844 -1.20187e-18)
(0.0947762 -0.19602 1.16872e-18)
(0.0963222 -0.201009 -1.08678e-18)
(0.0978444 -0.2058 0)
(0.0993379 -0.210393 -3.21486e-20)
(0.1008 -0.214792 1.54337e-20)
(0.102229 -0.219012 9.58498e-19)
(0.103628 -0.223069 -8.97111e-19)
(0.104999 -0.226988 -1.39146e-20)
(0.106345 -0.230783 -2.69994e-20)
(0.107665 -0.234459 -8.43923e-19)
(0.108958 -0.23802 8.08532e-19)
(0.110227 -0.241475 7.97698e-19)
(0.11148 -0.244845 1.53231e-20)
(0.112727 -0.248158 -7.70235e-19)
(0.113976 -0.251435 -7.79341e-19)
(0.11523 -0.25469 -8.11372e-21)
(0.072051 -0.0943425 -9.32337e-19)
(0.0731699 -0.100876 7.36145e-19)
(0.0743714 -0.107424 8.20804e-19)
(0.0756455 -0.113958 -7.7651e-19)
(0.0769827 -0.120452 1.5497e-18)
(0.0783739 -0.126887 -1.5131e-18)
(0.0798103 -0.133242 0)
(0.081284 -0.139503 4.63942e-20)
(0.0827872 -0.145657 1.47757e-18)
(0.0843139 -0.151693 -1.40519e-18)
(0.0858666 -0.157634 0)
(0.0874534 -0.163516 4.34742e-20)
(0.0890752 -0.169346 4.30269e-20)
(0.0907275 -0.175113 0)
(0.0924014 -0.18079 0)
(0.0940857 -0.186348 2.03581e-20)
(0.0957685 -0.191755 -3.9506e-20)
(0.097438 -0.196985 1.21353e-18)
(0.0990844 -0.202018 -1.14499e-18)
(0.1007 -0.206845 1.03489e-23)
(0.10228 -0.211464 -3.37278e-20)
(0.103823 -0.215882 0)
(0.105328 -0.220112 9.85681e-19)
(0.106796 -0.224172 -9.49892e-19)
(0.108231 -0.228082 1.44538e-20)
(0.109637 -0.231861 -7.00003e-21)
(0.111014 -0.235521 0)
(0.112368 -0.239073 -6.63228e-21)
(0.113706 -0.242543 -2.41937e-24)
(0.115036 -0.245949 -8.199e-19)
(0.116363 -0.249311 8.08817e-19)
(0.117689 -0.252637 0)
(0.0714852 -0.0877447 -1.09527e-19)
(0.0726407 -0.0943391 8.98092e-19)
(0.073889 -0.100971 -9.03537e-19)
(0.0752194 -0.107607 9.33244e-19)
(0.0766213 -0.11422 -7.78545e-19)
(0.0780846 -0.120786 -8.51096e-19)
(0.0795998 -0.127284 8.05254e-19)
(0.0811579 -0.133695 -9.17386e-19)
(0.0827502 -0.140005 8.72107e-19)
(0.0843698 -0.1462 4.80336e-20)