/*--------------------------------*- C++ -*----------------------------------*\
  =========                 |
  \\      /  F ield         | OpenFOAM: The Open Source CFD Toolbox
   \\    /   O peration     | Website:  https://openfoam.org
    \\  /    A nd           | Version:  10
     \\/     M anipulation  |
\*---------------------------------------------------------------------------*/
FoamFile
{
    format      ascii;
    class       volScalarField;
    location    "66000";
    object      k;
}
// * * * * * * * * * * * * * * * * * * * * * * * * * * * * * * * * * * * * * //

dimensions      [0 2 -2 0 0 0 0];

internalField   nonuniform List<scalar> 
17969
(
5.37962e-05
0.00109027
0.00251415
0.00422551
0.00608764
0.00830896
0.0110174
0.0139353
0.0165394
0.0184923
0.0197353
0.0203908
0.0206524
0.020718
0.0207514
0.0208355
0.0210489
0.0214572
0.022069
0.0228637
0.0238066
0.0248589
0.0259824
0.0271439
0.0283173
0.0294827
0.0306267
0.0317405
0.0328188
0.0338587
0.034859
0.0358191
0.0367396
0.037621
0.0384639
0.0392692
0.0400376
0.0407695
0.0414657
0.0421266
0.0427525
0.0433439
0.0439009
0.0444239
0.0449132
0.045369
0.0457916
0.0461813
0.0465387
0.046864
0.0471579
0.0474209
0.0476538
0.0478573
0.0480325
0.0481802
0.0483017
0.0483982
0.048471
0.0485215
0.0485514
0.0485621
0.0485555
0.0485331
0.0484967
0.048448
0.0483885
0.0483198
0.048243
0.0481593
0.0480693
0.0479733
0.0478711
0.0477618
0.047646
0.047525
0.0473987
0.0472639
0.0471208
0.0469684
0.0468072
0.0466393
0.0464679
0.0462965
0.0461294
0.0459712
0.045827
0.0457028
0.0456057
0.0455443
0.0455279
0.0455667
0.0456735
0.0458596
0.0461372
0.0465184
0.047016
0.0476402
0.0483975
0.0492973
2.22393e-05
0.000514208
0.00131439
0.00235759
0.0035128
0.00486391
0.00653799
0.00864801
0.0112429
0.0141057
0.0168293
0.0190403
0.020607
0.0215579
0.0220244
0.0221725
0.0221651
0.0221357
0.0221509
0.022281
0.0225841
0.0230726
0.0237336
0.0245405
0.0254616
0.0264653
0.027522
0.0286058
0.0296958
0.0307761
0.0318356
0.0328665
0.0338639
0.0348249
0.0357478
0.0366318
0.0374769
0.0382831
0.0390509
0.0397807
0.040473
0.0411284
0.0417473
0.0423302
0.0428775
0.0433898
0.0438674
0.0443108
0.0447205
0.0450969
0.0454408
0.0457527
0.0460334
0.0462835
0.0465042
0.0466962
0.0468608
0.0469991
0.0471124
0.0472021
0.0472696
0.0473166
0.0473446
0.0473552
0.0473502
0.0473312
0.0472998
0.0472574
0.0472052
0.0471445
0.0470759
0.0469997
0.0469159
0.0468238
0.0467238
0.0466173
0.0465047
0.0463826
0.046251
0.0461086
0.0459568
0.045798
0.0456354
0.0454729
0.045315
0.045167
0.0450348
0.0449248
0.0448444
0.0448014
0.0448046
0.0448634
0.0449883
0.0451945
0.045495
0.0459028
0.0464318
0.0470929
0.0478942
0.0488472
9.40595e-06
0.000234209
0.000662536
0.00127549
0.00194448
0.0027156
0.00367386
0.00489267
0.00646119
0.00848027
0.0109928
0.0137777
0.0165344
0.0189934
0.0209208
0.0222528
0.0230421
0.0234101
0.0234987
0.0234463
0.0233676
0.0233205
0.0233738
0.0235814
0.0239593
0.0245007
0.0251856
0.0259877
0.0268793
0.0278337
0.0288271
0.0298384
0.0308507
0.0318506
0.0328285
0.0337777
0.0346938
0.0355739
0.0364163
0.0372202
0.0379854
0.0387118
0.0393998
0.0400497
0.040662
0.0412371
0.0417757
0.0422783
0.0427454
0.0431777
0.0435757
0.0439403
0.0442721
0.0445719
0.0448407
0.0450794
0.0452891
0.0454709
0.0456262
0.0457563
0.0458626
0.0459466
0.0460098
0.046054
0.0460807
0.0460916
0.0460882
0.046072
0.0460443
0.0460063
0.0459587
0.0459021
0.0458366
0.0457616
0.0456775
0.0455859
0.0454869
0.0453802
0.0452625
0.0451333
0.0449942
0.0448481
0.0446983
0.0445488
0.0444043
0.0442705
0.0441536
0.0440612
0.0440013
0.0439828
0.0440147
0.0441059
0.0442652
0.0445039
0.0448392
0.0452861
0.0458594
0.0465709
0.0474307
0.0484525
5.12951e-06
0.000130874
0.00038407
0.000770634
0.0011812
0.00162116
0.00215051
0.00282587
0.00369448
0.00483337
0.00631145
0.0082011
0.0105822
0.0132506
0.0159749
0.0185822
0.0208133
0.0225274
0.0236947
0.0243724
0.0246684
0.0247065
0.0246097
0.0244812
0.024371
0.0243526
0.0244757
0.0247573
0.0251944
0.0257712
0.0264652
0.0272518
0.0281066
0.0290073
0.0299341
0.0308699
0.0318011
0.0327169
0.0336092
0.0344723
0.0353022
0.0360966
0.0368537
0.0375729
0.0382539
0.0388965
0.039501
0.0400678
0.0405974
0.0410903
0.0415472
0.0419687
0.0423556
0.0427087
0.043029
0.0433174
0.0435749
0.0438027
0.0440021
0.0441744
0.0443209
0.0444432
0.0445428
0.0446213
0.0446803
0.0447214
0.0447463
0.0447564
0.0447531
0.0447376
0.0447109
0.0446738
0.0446264
0.0445687
0.0445015
0.044426
0.0443433
0.0442535
0.0441524
0.0440395
0.0439169
0.0437876
0.043655
0.0435233
0.0433973
0.0432829
0.0431867
0.0431168
0.0430821
0.0430927
0.0431589
0.0432911
0.0434979
0.0437872
0.0441712
0.0446703
0.0453017
0.0460782
0.0470121
0.0481195
0.0494143
0.050906
0.0525999
0.0544967
3.71476e-06
9.50884e-05
0.000276055
0.000557338
0.000844075
0.00112667
0.00143572
0.00181155
0.00228786
0.00290814
0.00372709
0.00480239
0.00619114
0.00795336
0.0101687
0.0127115
0.0153765
0.0180202
0.0204582
0.0224936
0.0240306
0.025057
0.0256312
0.025853
0.0258356
0.0256917
0.0255158
0.0253493
0.0252694
0.0253198
0.0255168
0.0258593
0.0263347
0.0269239
0.0276054
0.0283572
0.0291591
0.0299925
0.0308414
0.0316924
0.0325346
0.0333593
0.0341599
0.0349314
0.0356706
0.036375
0.0370432
0.0376743
0.038268
0.0388241
0.039343
0.039825
0.0402707
0.0406807
0.0410559
0.0413972
0.0417057
0.0419823
0.0422283
0.042445
0.0426337
0.0427961
0.0429334
0.0430474
0.0431397
0.0432118
0.0432655
0.0433022
0.0433235
0.0433307
0.0433251
0.0433076
0.0432789
0.0432395
0.0431903
0.0431331
0.043069
0.0429992
0.0429183
0.0428254
0.0427235
0.0426156
0.0425052
0.0423967
0.0422951
0.0422063
0.0421376
0.0420971
0.0420947
0.042141
0.0422478
0.0424268
0.042689
0.0430424
0.0434937
0.0440587
0.0447627
0.04562
0.0466452
0.0478569
0.0492696
0.0508931
0.0527328
0.0547885
3.18075e-06
8.11561e-05
0.000231375
0.000464301
0.000693641
0.000904145
0.00111484
0.00134631
0.00162406
0.00196979
0.00241097
0.00299746
0.00377788
0.00479893
0.00611274
0.00777128
0.00983888
0.0122778
0.0148913
0.0174961
0.020027
0.0222896
0.0241377
0.0255029
0.0263894
0.026859
0.027007
0.0269373
0.0267521
0.026533
0.02632
0.0261846
0.0261652
0.0262779
0.0265239
0.026894
0.0273729
0.0279424
0.0285837
0.0292783
0.0300095
0.0307621
0.0315231
0.0322816
0.0330288
0.0337575
0.034462
0.0351382
0.0357829
0.036394
0.03697
0.0375102
0.0380141
0.0384817
0.0389133
0.0393095
0.039671
0.0399987
0.0402936
0.040557
0.0407901
0.0409944
0.0411712
0.0413223
0.0414491
0.0415534
0.0416369
0.0417011
0.0417479
0.0417787
0.0417951
0.0417985
0.04179
0.0417707
0.0417418
0.0417052
0.0416625
0.0416147
0.0415589
0.0414909
0.0414146
0.0413333
0.0412508
0.0411717
0.0411011
0.0410454
0.041012
0.0410095
0.0410481
0.0411391
0.0412951
0.041529
0.0418532
0.0422776
0.0428085
0.0434573
0.0442491
0.0452044
0.0463404
0.0476774
0.0492304
0.0510093
0.0530185
0.0552567
2.90469e-06
7.40095e-05
0.000208371
0.000416615
0.000617892
0.000794312
0.000959874
0.00112759
0.0013101
0.00152322
0.00178326
0.00210671
0.00252222
0.00307363
0.00381384
0.00478052
0.00602052
0.00758022
0.00950935
0.0118332
0.0143993
0.0170004
0.019556
0.0219615
0.0240509
0.0257213
0.0269294
0.0276929
0.0280757
0.028166
0.0280572
0.0278387
0.0275768
0.0273165
0.0271206
0.027024
0.0270441
0.0271853
0.0274419
0.0278028
0.0282531
0.028777
0.0293579
0.0299803
0.0306298
0.0312936
0.0319609
0.0326225
0.0332708
0.0338997
0.0345045
0.0350814
0.0356278
0.0361417
0.036622
0.0370679
0.0374793
0.0378563
0.0381996
0.0385097
0.0387877
0.0390349
0.0392524
0.0394418
0.0396046
0.0397426
0.0398574
0.0399508
0.0400246
0.0400808
0.0401212
0.0401475
0.0401616
0.040165
0.0401592
0.0401463
0.0401279
0.0401052
0.0400793
0.0400411
0.0399955
0.0399464
0.039898
0.0398551
0.0398231
0.0398088
0.0398196
0.0398646
0.0399541
0.0401001
0.0403156
0.0406143
0.0410096
0.0415127
0.0421306
0.0428754
0.0437722
0.0448447
0.0461136
0.0475996
0.0493174
0.0512765
0.0534801
0.0559246
0.0585999
2.73057e-06
6.95873e-05
0.000194354
0.000388311
0.000574981
0.000734585
0.000878469
0.00101642
0.00115624
0.00130572
0.00147451
0.001676
0.00192026
0.00222197
0.00261156
0.00312613
0.00381231
0.00471886
0.0058805
0.0073424
0.00914766
0.0113529
0.0138424
0.016436
0.0189995
0.0214749
0.0237429
0.0256748
0.027196
0.0282825
0.0289585
0.0292839
0.0293373
0.029201
0.0289527
0.0286435
0.0283285
0.0280637
0.0278816
0.0278019
0.0278319
0.0279699
0.0282082
0.0285354
0.0289378
0.0294006
0.0299094
0.0304504
0.031011
0.0315804
0.0321489
0.0327089
0.0332538
0.0337785
0.0342789
0.0347521
0.0351958
0.0356088
0.03599
0.0363393
0.0366568
0.0369429
0.0371986
0.0374249
0.037623
0.0377945
0.0379411
0.0380645
0.0381667
0.0382498
0.0383158
0.0383669
0.0384055
0.0384336
0.0384532
0.0384664
0.0384755
0.0384825
0.0384897
0.038487
0.038477
0.0384658
0.038458
0.0384587
0.0384737
0.0385096
0.0385742
0.0386766
0.0388274
0.0390389
0.0393245
0.0396986
0.0401749
0.0407654
0.0414782
0.04233
0.0433509
0.0445622
0.0459873
0.0476462
0.0495536
0.0517174
0.0541388
0.0568117
0.0597226
0.0628518
0.066174
2.61732e-06
6.68353e-05
0.000185788
0.000371334
0.000550632
0.000702194
0.000835765
0.000959621
0.00107962
0.0012006
0.00132745
0.00146613
0.001625
0.00181403
0.00204105
0.00232079
0.00268096
0.00315495
0.00378477
0.00462113
0.00569646
0.00705606
0.00874092
0.0108006
0.0131882
0.0157517
0.018317
0.0208165
0.023194
0.0253331
0.0271367
0.0285479
0.0295526
0.0301753
0.0304687
0.0305011
0.0303451
0.0300696
0.0297094
0.0293359
0.0289977
0.0287281
0.028548
0.0284667
0.0284858
0.0286009
0.0288031
0.0290811
0.0294219
0.0298119
0.0302381
0.0306884
0.0311519
0.0316192
0.0320821
0.0325341
0.0329699
0.0333853
0.0337772
0.0341432
0.034482
0.0347926
0.0350748
0.0353289
0.0355552
0.0357549
0.0359292
0.0360797
0.0362081
0.0363165
0.0364072
0.0364826
0.0365453
0.036598
0.036643
0.0366826
0.03672
0.0367575
0.036797
0.0368392
0.0368739
0.0369077
0.036948
0.0370003
0.0370707
0.0371657
0.0372934
0.0374629
0.037685
0.0379718
0.0383373
0.0387962
0.0393625
0.0400479
0.0408669
0.0418453
0.0430087
0.0443796
0.0459823
0.0478366
0.0499557
0.0523462
0.0550062
0.0579263
0.0610892
0.064471
0.0680427
0.0717721
2.57047e-06
6.57745e-05
0.000182217
0.000363657
0.000540123
0.000688595
0.000817808
0.000935324
0.00104618
0.00115406
0.0012621
0.00137344
0.00149182
0.00162221
0.00177186
0.00194847
0.00215839
0.00241542
0.00274408
0.0031745
0.00374508
0.00449903
0.00547299
0.00671144
0.00825567
0.0101495
0.0124121
0.0149038
0.017461
0.0199909
0.0224251
0.0247114
0.0267462
0.0284535
0.0297887
0.0307417
0.0313344
0.0316129
0.0316349
0.0314648
0.0311503
0.0307504
0.0303266
0.0299232
0.0295733
0.0292983
0.0291101
0.0290131
0.0290059
0.0290821
0.0292325
0.0294459
0.0297101
0.0300133
0.030344
0.0306918
0.0310475
0.0314035
0.0317531
0.032091
0.0324131
0.0327163
0.0329984
0.0332578
0.0334937
0.0337061
0.0338953
0.0340621
0.0342078
0.0343342
0.0344435
0.034538
0.0346205
0.0346941
0.0347612
0.0348246
0.0348882
0.0349556
0.0350303
0.0351171
0.0352055
0.0352957
0.0353925
0.0355041
0.0356373
0.0357994
0.0359983
0.0362431
0.0365447
0.0369148
0.0373667
0.037915
0.0385779
0.0393723
0.0403163
0.0414367
0.0427591
0.0443073
0.0461063
0.0481752
0.050526
0.0531622
0.0560786
0.0592613
0.0626885
0.0663318
0.0701585
0.0741326
0.0782172
0.0823761
2.59466e-06
6.64834e-05
0.000183613
0.000364539
0.0005414
0.000689856
0.000818052
0.000933255
0.0010402
0.00114213
0.00124152
0.00134052
0.00144127
0.00154619
0.00165833
0.00178188
0.00192306
0.00208849
0.00228313
0.00251857
0.00281637
0.00320335
0.0037126
0.00437842
0.00524349
0.00635221
0.00774705
0.00946731
0.0115674
0.0139514
0.0164706
0.0190123
0.021506
0.0238813
0.0260858
0.0280346
0.0296658
0.0309438
0.03186
0.0324345
0.0327064
0.032727
0.0325431
0.0322054
0.0317791
0.0313158
0.0308579
0.0304374
0.0300764
0.0297886
0.0295805
0.0294529
0.029402
0.0294208
0.0295002
0.0296303
0.0298006
0.0300011
0.0302224
0.0304558
0.0306943
0.0309318
0.0311634
0.0313848
0.0315931
0.0317864
0.0319633
0.0321232
0.0322663
0.0323936
0.0325068
0.0326079
0.0326992
0.032784
0.0328649
0.0329449
0.0330281
0.0331188
0.0332212
0.0333399
0.0334812
0.0336334
0.0337985
0.0339821
0.0341904
0.0344301
0.0347083
0.0350332
0.035415
0.0358679
0.0364077
0.0370523
0.0378226
0.0387403
0.0398252
0.0411011
0.0425966
0.044338
0.0463506
0.0486525
0.051253
0.0541519
0.0573394
0.0607963
0.0644958
0.0684048
0.0724863
0.0767013
0.0810107
0.0853763
0.0897627
0.0941372
0.098471
0.102739
2.69331e-06
6.90381e-05
0.000190068
0.000373584
0.000553271
0.000703754
0.000832935
0.000948032
0.00105373
0.00115315
0.00124855
0.00134173
0.00143425
0.00152765
0.0016236
0.00172409
0.00183168
0.00194994
0.00208414
0.00224058
0.00242311
0.00264059
0.00291078
0.00325546
0.00370254
0.00428631
0.00504699
0.00602859
0.0072758
0.00882811
0.0107324
0.0129767
0.0154354
0.0179464
0.020464
0.0229191
0.0252404
0.0273676
0.0292387
0.0308019
0.032028
0.0329131
0.0334741
0.0337438
0.0337541
0.0335568
0.0332124
0.0327748
0.0322903
0.0317965
0.0313229
0.0308909
0.0305152
0.030204
0.0299604
0.0297832
0.0296684
0.0296095
0.0295988
0.0296284
0.0296899
0.0297756
0.0298781
0.029991
0.0301088
0.0302273
0.0303429
0.0304528
0.0305556
0.030651
0.0307396
0.0308223
0.0309009
0.030978
0.0310562
0.0311383
0.0312282
0.0313303
0.0314489
0.0315889
0.0317567
0.031957
0.0321811
0.0324319
0.0327139
0.033033
0.0333959
0.0338108
0.0342876
0.0348391
0.0354804
0.0362304
0.0371137
0.0381571
0.0393869
0.0408293
0.0425117
0.044462
0.0467049
0.0492563
0.0521221
0.0552972
0.0587659
0.0625034
0.0664772
0.0706496
0.0749796
0.0794255
0.0839462
0.0885027
0.093059
0.0975829
0.102046
0.106424
2.86551e-06
7.34281e-05
0.000201513
0.000390273
0.000574601
0.000728503
0.000859931
0.000976201
0.00108209
0.00118076
0.00127443
0.00136477
0.00145319
0.00154091
0.00162905
0.00171889
0.00181182
0.00190953
0.00201422
0.00212889
0.00225792
0.00240737
0.00258032
0.00278214
0.00302785
0.00333617
0.00373101
0.00424262
0.00490765
0.0057678
0.00686713
0.00824646
0.00994382
0.0120161
0.0143581
0.0168368
0.0193471
0.0218386
0.024249
0.0265137
0.0285661
0.0303547
0.0318449
0.0330126
0.0338528
0.0343741
0.0346142
0.0346191
0.0344367
0.0341137
0.0336934
0.033214
0.0327086
0.0322039
0.0317207
0.031274
0.0308737
0.030525
0.0302296
0.0299866
0.0297922
0.0296421
0.0295303
0.0294509
0.029398
0.0293663
0.0293509
0.0293472
0.0293521
0.0293632
0.0293793
0.0294
0.0294264
0.029461
0.0295061
0.0295642
0.0296382
0.0297317
0.0298486
0.029993
0.0301699
0.0303861
0.0306478
0.0309488
0.0312918
0.0316813
0.0321233
0.0326249
0.0331954
0.0338465
0.0345938
0.0354572
0.0364615
0.0376362
0.0390133
0.0406261
0.0425051
0.0446761
0.0471616
0.0499745
0.0531157
0.056574
0.0603273
0.0643444
0.0685872
0.0730132
0.0775782
0.0822381
0.0869506
0.0916763
0.0963796
0.101029
0.105597
0.11006
3.11406e-06
7.9689e-05
0.000217881
0.000414076
0.000604314
0.000762517
0.000897002
0.00101517
0.00112203
0.00122085
0.0013139
0.00140286
0.00148906
0.00157361
0.00165753
0.00174175
0.00182726
0.0019151
0.00200646
0.00210282
0.00220604
0.00231867
0.00244432
0.00258838
0.00275436
0.0029455
0.00317294
0.00345281
0.00380529
0.00425636
0.0048385
0.00559034
0.00655503
0.00777714
0.0092944
0.0111538
0.013337
0.0157326
0.0181946
0.020673
0.0231074
0.0254354
0.0276022
0.0295514
0.0312332
0.0326166
0.0336923
0.0344692
0.034969
0.0352215
0.0352616
0.0351261
0.0348521
0.0344747
0.0340262
0.0335351
0.0330254
0.0325165
0.0320235
0.0315575
0.0311254
0.030731
0.0303766
0.0300613
0.0297835
0.0295407
0.0293289
0.029145
0.0289859
0.0288489
0.028732
0.0286337
0.0285546
0.0284967
0.0284631
0.0284561
0.028478
0.0285309
0.0286175
0.0287407
0.0289042
0.0291123
0.0293707
0.029688
0.0300645
0.030499
0.0309969
0.0315647
0.032211
0.0329473
0.0337892
0.0347573
0.0358782
0.037184
0.038711
0.0404968
0.0425758
0.0449732
0.0477072
0.0507867
0.0542063
0.0579475
0.0619809
0.0662685
0.0707668
0.0754291
0.0802084
0.085059
0.089938
0.0948064
0.0996293
0.104376
0.109022
0.113544
3.44301e-06
8.78735e-05
0.000239146
0.000444523
0.000641462
0.000804267
0.000941913
0.00106229
0.00117054
0.00127003
0.00136311
0.0014515
0.00153653
0.00161931
0.00170076
0.00178175
0.00186307
0.00194552
0.00202995
0.00211726
0.00220852
0.002305
0.00240832
0.00252067
0.00264503
0.00278583
0.00294764
0.00313257
0.00334741
0.00360628
0.00392608
0.00432881
0.00484244
0.00550127
0.00634472
0.00741489
0.00874971
0.0103839
0.0123721
0.0146188
0.0170014
0.0194231
0.0218309
0.0241663
0.0263711
0.0283939
0.0301923
0.0317363
0.0330127
0.0340203
0.0347678
0.0352725
0.0355573
0.035649
0.0355761
0.0353679
0.0350527
0.0346571
0.034205
0.0337173
0.0332118
0.0327024
0.0322008
0.0317152
0.0312518
0.0308145
0.0304048
0.0300233
0.0296707
0.0293477
0.029054
0.0287902
0.0285564
0.0283545
0.0281907
0.0280702
0.0279944
0.027963
0.0279777
0.0280407
0.0281544
0.0283221
0.0285477
0.0288362
0.0291929
0.0296254
0.0301371
0.030733
0.0314197
0.0322085
0.0331161
0.0341646
0.0353831
0.0368067
0.0384752
0.0404293
0.0427067
0.0453313
0.048315
0.0516603
0.0553544
0.0593706
0.0636715
0.0682126
0.0729452
0.0778192
0.0827855
0.0877978
0.0928133
0.097794
0.102706
0.107522
0.112216
0.11677
0.121166
3.8562e-06
9.80114e-05
0.000265205
0.000480554
0.000684443
0.000852231
0.000993359
0.00111613
0.00122593
0.00132632
0.00141974
0.00150798
0.00159241
0.00167413
0.00175407
0.00183305
0.00191179
0.00199102
0.00207141
0.00215367
0.00223854
0.00232684
0.00241951
0.00251769
0.00262277
0.00273661
0.00286173
0.00300172
0.0031617
0.00334377
0.00355118
0.00379557
0.00409132
0.00445674
0.00491535
0.00549649
0.00623505
0.0071703
0.00834308
0.00978521
0.0115372
0.0135835
0.0158265
0.0181343
0.0204564
0.0227345
0.0249146
0.0269501
0.0288046
0.0304518
0.0318735
0.0330615
0.0340169
0.0347463
0.0352633
0.0355854
0.0357331
0.0357283
0.035594
0.0353523
0.0350245
0.0346305
0.0341877
0.0337117
0.0332154
0.03271
0.0322039
0.031704
0.0312161
0.030745
0.0302942
0.0298672
0.0294679
0.029101
0.0287787
0.0285116
0.028299
0.0281421
0.0280423
0.0280012
0.0280212
0.0281051
0.0282565
0.0284793
0.0287785
0.0291597
0.0296292
0.0301949
0.0308677
0.0316606
0.0325915
0.0336846
0.0349717
0.0364914
0.0382864
0.0404
0.0428697
0.0457177
0.0489482
0.0525535
0.0565117
0.0607874
0.0653355
0.0701053
0.0750438
0.0800984
0.0852191
0.0903596
0.0954781
0.100538
0.105508
0.110361
0.115075
0.119632
0.124018
4.36057e-06
0.000110148
0.000295215
0.000521579
0.000732968
0.000905722
0.00105023
0.00117532
0.00128668
0.00138804
0.00148194
0.00157026
0.0016544
0.00173548
0.00181444
0.00189209
0.00196914
0.00204627
0.0021241
0.00220325
0.00228433
0.00236799
0.00245488
0.00254575
0.00264142
0.0027429
0.0028514
0.00296853
0.00309641
0.00323804
0.00339786
0.00357935
0.00378408
0.00401957
0.00429865
0.00463647
0.00505265
0.00557178
0.00622369
0.00704214
0.00806295
0.00931673
0.010829
0.0126434
0.0146797
0.0168349
0.0190217
0.0211923
0.0232965
0.0252937
0.0271508
0.0288412
0.0303473
0.0316569
0.0327642
0.0336707
0.0343823
0.0349087
0.0352633
0.0354615
0.0355202
0.0354568
0.0352885
0.0350319
0.0347027
0.0343151
0.0338819
0.0334148
0.0329239
0.0324183
0.0319058
0.0313934
0.0308882
0.0303985
0.0299429
0.0295375
0.0291863
0.0288923
0.0286585
0.0284881
0.0283845
0.0283514
0.0283929
0.0285137
0.0287191
0.0290151
0.0294089
0.0299096
0.0305292
0.0312837
0.0321951
0.0332927
0.0346141
0.0362033
0.0381078
0.0403718
0.0430296
0.0460984
0.049571
0.0534253
0.0576302
0.0621412
0.0669074
0.0718733
0.0769825
0.0821811
0.087419
0.0926509
0.0978366
0.102941
0.107936
0.112796
0.117501
0.122036
0.126388
4.96216e-06
0.000124425
0.000328496
0.00056723
0.000786166
0.000963672
0.00111138
0.00123866
0.00135152
0.00145384
0.0015483
0.00163681
0.00172083
0.00180151
0.0018798
0.00195651
0.00203237
0.00210803
0.00218409
0.00226116
0.00233979
0.00242054
0.00250397
0.00259066
0.0026812
0.00277624
0.00287652
0.0029829
0.00309645
0.00321852
0.00335095
0.00349622
0.00365792
0.00384086
0.00404637
0.00427779
0.0045464
0.00486492
0.00524947
0.00572006
0.00630094
0.00702009
0.00790801
0.00899566
0.0103032
0.0118569
0.0136454
0.0155928
0.0175986
0.0196145
0.021599
0.0235109
0.0253186
0.0269981
0.0285292
0.0298985
0.031098
0.0321237
0.0329764
0.0336608
0.0341843
0.0345562
0.0347883
0.0348928
0.0348825
0.0347704
0.0345689
0.0342902
0.033946
0.0335474
0.0331042
0.0326258
0.0321216
0.0316021
0.0310898
0.0306068
0.0301626
0.0297643
0.0294183
0.0291309
0.028908
0.0287555
0.0286794
0.0286862
0.0287827
0.0289765
0.0292766
0.0296938
0.0302425
0.030942
0.0318186
0.0329071
0.0342508
0.0358993
0.0379036
0.0403086
0.0431449
0.0464221
0.0501209
0.0542094
0.0586445
0.063368
0.068322
0.0734466
0.0786853
0.0839857
0.0893005
0.0945852
0.0998018
0.104918
0.109906
0.114744
0.119414
0.123903
0.1282
0.132298
5.66419e-06
0.000140797
0.000364657
0.000616565
0.000842936
0.00102498
0.00117571
0.00130507
0.00141937
0.00152264
0.00161767
0.00170644
0.00179044
0.00187086
0.00194865
0.00202465
0.00209958
0.00217411
0.00224885
0.00232438
0.00240125
0.00248001
0.00256117
0.00264524
0.00273273
0.00282414
0.00292
0.00302085
0.00312734
0.0032402
0.00336035
0.00348897
0.00362763
0.00377848
0.00394451
0.00413028
0.00433858
0.00457056
0.00483395
0.00514011
0.005502
0.00593584
0.00646091
0.00709958
0.00787568
0.00881334
0.00993087
0.0112394
0.0127644
0.0144603
0.016262
0.0180905
0.0199145
0.0217
0.0234142
0.0250319
0.0265342
0.0279067
0.0291384
0.0302231
0.0311582
0.0319438
0.0325828
0.0330803
0.0334431
0.0336788
0.0337961
0.0338043
0.0337131
0.0335324
0.0332714
0.0329397
0.0325468
0.0321038
0.0316331
0.0311602
0.0306998
0.0302638
0.0298626
0.0295063
0.029204
0.0289647
0.0287971
0.0287102
0.0287133
0.0288164
0.0290307
0.0293699
0.0298515
0.0304993
0.0313446
0.0324281
0.033799
0.035512
0.0376204
0.0401673
0.0431777
0.0466488
0.0505499
0.0548381
0.0594616
0.0643585
0.0694645
0.0747166
0.0800555
0.0854268
0.0907826
0.096084
0.101298
0.106393
0.111346
0.116136
0.120748
0.125171
0.129394
0.133413
6.46695e-06
0.000159125
0.000403496
0.000668736
0.000902346
0.00108873
0.00124235
0.00137371
0.00148939
0.0015936
0.00168921
0.00177826
0.00186229
0.0019425
0.00201988
0.00209527
0.0021694
0.00224296
0.00231657
0.00239082
0.0024663
0.00254352
0.00262302
0.00270529
0.00279081
0.00288002
0.00297335
0.00307124
0.00317412
0.00328245
0.00339675
0.00351766
0.00364596
0.00378268
0.00392922
0.00408744
0.0042599
0.00445023
0.00466309
0.00489927
0.00516197
0.00546154
0.00580847
0.00621558
0.00669771
0.00727165
0.00795527
0.00876652
0.0097226
0.0108309
0.0120963
0.013531
0.0150871
0.0167135
0.0183496
0.0199712
0.021552
0.0230661
0.024493
0.0258171
0.0270271
0.0281147
0.0290741
0.0299025
0.0305995
0.0311665
0.0316062
0.031923
0.0321225
0.0322108
0.0321943
0.0320804
0.0318772
0.0315945
0.0312508
0.0308711
0.0304743
0.0300758
0.0296899
0.0293297
0.0290077
0.0287362
0.0285257
0.0283882
0.0283356
0.028381
0.028539
0.0288259
0.0292635
0.0298805
0.0307139
0.0318107
0.0332263
0.0350191
0.0372429
0.0399365
0.0431168
0.046766
0.0508427
0.0552979
0.0600713
0.0650961
0.0703055
0.0756353
0.0810271
0.0864286
0.0917939
0.0970839
0.102265
0.107313
0.112206
0.116926
0.12146
0.125799
0.129934
0.133863
7.37561e-06
0.000179473
0.000445243
0.00072336
0.00096377
0.00115427
0.00131063
0.0014439
0.00156092
0.00166604
0.00176221
0.00185153
0.00193558
0.0020156
0.0020926
0.00216739
0.00224073
0.00231333
0.00238587
0.00245894
0.00253314
0.00260903
0.00268715
0.00276802
0.00285212
0.00293989
0.00303172
0.003128
0.00322907
0.00333526
0.00344689
0.00356435
0.00368805
0.00381853
0.0039565
0.00410286
0.00425886
0.00442616
0.00460702
0.00480445
0.00502309
0.0052654
0.00553191
0.00582972
0.00616806
0.00655661
0.0070068
0.00753098
0.00814229
0.00885326
0.00967541
0.0106182
0.0116814
0.0128636
0.0141693
0.0155596
0.0169972
0.0184357
0.0198515
0.0212254
0.0225385
0.0237726
0.0249149
0.0259555
0.0268871
0.0277051
0.0284061
0.0289886
0.029453
0.0298009
0.0300349
0.030159
0.0301783
0.0300995
0.029935
0.0297061
0.0294332
0.0291341
0.0288253
0.0285222
0.0282395
0.0279914
0.0277919
0.0276547
0.0275934
0.0276236
0.0277633
0.0280332
0.0284594
0.0290755
0.0299251
0.0310613
0.0325447
0.0344361
0.0367871
0.0396306
0.0429716
0.0467783
0.0510012
0.0555862
0.0604667
0.065573
0.0708372
0.0761963
0.0815937
0.0869794
0.0923109
0.097552
0.102673
0.107648
0.112459
0.11709
0.121529
0.12577
0.129807
0.133636
8.39514e-06
0.000201757
0.000488748
0.000779756
0.00102662
0.00122102
0.00138002
0.00151517
0.00163351
0.00173953
0.00183627
0.00192586
0.0020099
0.00208965
0.00216611
0.00224017
0.00231262
0.00238419
0.00245557
0.00252745
0.00260036
0.00267493
0.00275176
0.00283141
0.00291435
0.00300107
0.00309195
0.00318738
0.00328763
0.003393
0.0035037
0.00361997
0.00374205
0.00387022
0.00400484
0.00414637
0.00429544
0.00445292
0.00461992
0.00479797
0.00498908
0.00519583
0.00542174
0.00567145
0.00594535
0.00624544
0.00658035
0.00695744
0.00738519
0.00787263
0.00842881
0.00906261
0.0097812
0.0105902
0.0114932
0.0124853
0.0135588
0.0147144
0.0159273
0.0171692
0.0184129
0.0196244
0.0207916
0.0219009
0.0229391
0.0238939
0.0247562
0.0255196
0.0261793
0.0267322
0.027177
0.0275136
0.0277433
0.0278696
0.0278977
0.0278431
0.0277252
0.0275621
0.027371
0.0271684
0.0269698
0.0267907
0.0266463
0.0265521
0.0265242
0.0265799
0.0267396
0.027028
0.0274758
0.0281224
0.0290174
0.0302196
0.0317932
0.0337994
0.0362857
0.0392771
0.0427608
0.0466955
0.0510311
0.0557051
0.0606476
0.0657878
0.0710591
0.0764003
0.0817579
0.0870852
0.0923429
0.0974982
0.102524
0.107399
0.112105
0.116629
0.12096
0.125091
0.129019
0.132742
9.51829e-06
0.000225762
0.000533364
0.000837084
0.0010901
0.00128823
0.00144978
0.00158674
0.00170638
0.00181331
0.0019106
0.00200043
0.00208444
0.00216388
0.00223979
0.00231307
0.00238454
0.00245493
0.00252497
0.00259536
0.00266677
0.00273988
0.00281535
0.00289385
0.00297574
0.00306157
0.00315181
0.0032468
0.00334683
0.00345213
0.0035629
0.00367928
0.0038014
0.00392939
0.00406344
0.00420375
0.00435065
0.00450456
0.0046661
0.00483605
0.00501549
0.0052058
0.00540877
0.00562671
0.00586241
0.00612005
0.00640239
0.00670901
0.0070445
0.00741581
0.00782856
0.00828942
0.00880454
0.00937947
0.010019
0.0107258
0.0115005
0.012343
0.0132467
0.0142017
0.0151972
0.0162309
0.0172779
0.0183179
0.019332
0.0202979
0.0212045
0.0220432
0.0228051
0.0234817
0.0240675
0.0245586
0.0249529
0.0252502
0.0254497
0.0255594
0.0255965
0.0255779
0.0255201
0.0254388
0.0253491
0.0252666
0.025207
0.0251865
0.0252224
0.0253339
0.025544
0.0258804
0.0263785
0.027083
0.0280488
0.0293394
0.0310206
0.0331515
0.0357738
0.0388989
0.0425002
0.0465321
0.0509413
0.0556605
0.0606185
0.0657457
0.0709776
0.0762565
0.081532
0.0867615
0.0919091
0.0969454
0.101847
0.106593
0.111171
0.115569
0.119777
0.123789
0.1276
0.131211
1.07335e-05
0.000251173
0.000578457
0.000894606
0.00115352
0.00135523
0.00151924
0.00165798
0.00177889
0.00188667
0.00198447
0.00207448
0.00215836
0.00223738
0.00231262
0.00238498
0.00245531
0.00252438
0.00259297
0.00266181
0.00273164
0.00280318
0.00287714
0.00295416
0.00303486
0.00311982
0.00320957
0.0033044
0.00340451
0.00351021
0.00362165
0.0037389
0.00386202
0.00399108
0.00412612
0.00426721
0.00441448
0.00456814
0.00472849
0.00489595
0.00507111
0.00525476
0.00544788
0.00565177
0.00586802
0.00609863
0.00634593
0.00661266
0.00690334
0.00721869
0.00755783
0.00792675
0.00832991
0.00877104
0.00925461
0.00978385
0.010361
0.0109876
0.0116631
0.0123848
0.0131485
0.0139499
0.0147794
0.0156256
0.0164781
0.0173318
0.0181721
0.0189833
0.0197509
0.020458
0.0211002
0.0216702
0.022163
0.0225752
0.0229004
0.0231401
0.0233075
0.0234178
0.0234854
0.0235244
0.0235491
0.023573
0.0236113
0.0236804
0.0237979
0.0239846
0.0242652
0.0246706
0.0252402
0.0260232
0.0270789
0.0284734
0.0302722
0.0325299
0.03528
0.0385159
0.0422028
0.046297
0.0507387
0.0554588
0.0603872
0.0654565
0.0706058
0.0757812
0.0809366
0.0860332
0.0910387
0.0959271
0.100678
0.105274
0.109703
0.113955
0.118025
0.121906
0.125593
0.129086
1.20277e-05
0.000277635
0.000623443
0.000951651
0.00121621
0.00142137
0.00158777
0.00172823
0.00185036
0.00195894
0.00205716
0.00214724
0.00223086
0.00230931
0.00238368
0.00245491
0.00252388
0.00259142
0.00265834
0.00272545
0.00279356
0.00286344
0.00293585
0.00301152
0.0030911
0.00317518
0.00326427
0.00335878
0.00345906
0.00356541
0.00367793
0.00379648
0.00392117
0.00405203
0.00418895
0.00433195
0.00448105
0.00463628
0.00479776
0.00496573
0.00514047
0.00532244
0.00551222
0.00571054
0.00591836
0.00613682
0.00636732
0.00661152
0.0068715
0.0071493
0.00744713
0.00776901
0.00811442
0.00848208
0.00887732
0.00930239
0.00975896
0.0102493
0.0107743
0.0113335
0.0119254
0.0125478
0.0131963
0.013865
0.0145478
0.0152387
0.0159295
0.0166115
0.0172786
0.0179296
0.0185502
0.0191221
0.0196406
0.0201009
0.0204937
0.0208154
0.0210748
0.0212835
0.0214529
0.0215952
0.021723
0.0218486
0.0219846
0.0221464
0.0223521
0.0226227
0.0229847
0.0234717
0.0241262
0.0250012
0.0261586
0.0276653
0.0295838
0.031963
0.0348202
0.038137
0.0418785
0.0459969
0.0504295
0.0551077
0.0599637
0.0649339
0.0699615
0.0749971
0.0799988
0.0849317
0.0897676
0.0944835
0.0990616
0.103488
0.107752
0.111846
0.115764
0.119504
0.123062
0.126434
1.33809e-05
0.000304726
0.000667685
0.00100749
0.00127747
0.00148595
0.00165468
0.00179681
0.0019201
0.00202939
0.00212792
0.00221794
0.00230111
0.00237878
0.00245205
0.0025219
0.00258925
0.00265498
0.00271999
0.00278514
0.00285132
0.00291938
0.00299015
0.00306443
0.00314292
0.00322624
0.00331494
0.00340942
0.00351001
0.00361694
0.00373033
0.00385026
0.0039768
0.00410996
0.00424926
0.00439479
0.00454653
0.00470434
0.00486826
0.00503838
0.00521482
0.00539781
0.00558769
0.0057849
0.00598999
0.00620366
0.00642675
0.00666026
0.00690536
0.00716335
0.0074357
0.00772418
0.00803024
0.00835503
0.00870146
0.0090685
0.00945402
0.0098614
0.0102919
0.010745
0.0112204
0.011717
0.0122322
0.0127626
0.0133045
0.0138536
0.0144051
0.0149536
0.015495
0.0160263
0.0165439
0.0170521
0.0175353
0.0179825
0.0183852
0.0187376
0.0190447
0.0193146
0.0195556
0.0197767
0.0199878
0.0202
0.0204237
0.0206727
0.0209642
0.0213197
0.0217668
0.022341
0.0230873
0.024061
0.0253252
0.0269448
0.0289774
0.0314635
0.0344029
0.0377695
0.0415314
0.0456358
0.0500196
0.0546161
0.0593612