/*--------------------------------*- C++ -*----------------------------------*\
  =========                 |
  \\      /  F ield         | OpenFOAM: The Open Source CFD Toolbox
   \\    /   O peration     | Website:  https://openfoam.org
    \\  /    A nd           | Version:  10
     \\/     M anipulation  |
\*---------------------------------------------------------------------------*/
FoamFile
{
    format      ascii;
    class       volScalarField;
    location    "66000";
    object      yPlus;
}
// * * * * * * * * * * * * * * * * * * * * * * * * * * * * * * * * * * * * * //

dimensions      [0 0 0 0 0 0 0];

internalField   uniform 0;

boundaryField
{
    right
    {
        type            cyclic;
    }
    left
    {
        type            cyclic;
    }
    outerWall
    {
        type            calculated;
        value           nonuniform List<scalar> 0();
    }
    stirrerWall
    {
        type            calculated;
        value           nonuniform List<scalar> 
398
(
0.48179
0.30977
0.201455
0.148769
0.126602
0.117149
0.11195
0.108542
0.106268
0.105313
0.105807
0.1078
0.111194
0.115916
0.121885
0.128993
0.13717
0.146327
0.156337
0.16705
0.178401
0.190334
0.202668
0.215218
0.227827
0.240302
0.252447
0.264063
0.274883
0.284574
0.292858
0.299893
0.305473
0.309536
0.312139
0.313494
0.313797
0.313027
0.311464
0.309528
0.306906
0.301662
0.293502
0.284006
0.274134
0.263361
0.252372
0.24156
0.230728
0.22012
0.209692
0.1996
0.189902
0.180581
0.171598
0.162892
0.154329
0.145997
0.138007
0.130399
0.123174
0.116304
0.109762
0.103484
0.0975404
0.0916967
0.0860431
0.0805411
0.0751318
0.0699309
0.0649165
0.060284
0.0563153
0.053132
0.0505528
0.0479836
0.0442954
0.037996
0.0276289
0.00798007
0.00798007
0.021278
0.00914682
0.013007
0.0165441
0.0216113
0.0266931
0.0311602
0.0344358
0.0366667
0.037983
0.0385071
0.0383791
0.0377325
0.0366813
0.03532
0.033726
0.0319063
0.0300948
0.0282297
0.026488
0.0248993
0.0234123
0.0220094
0.0206913
0.0194707
0.0183834
0.0174755
0.0168065
0.016461
0.016562
0.0174038
0.0192664
0.0221544
0.0259422
0.030335
0.0350012
0.0396869
0.0443026
0.0488784
0.0534957
0.0581647
0.0629007
0.0677614
0.0728183
0.0781693
0.0837017
0.0899494
0.0981075
0.108982
0.122107
0.138563
0.158028
0.180423
0.206743
0.237771
0.273237
0.313034
0.357122
0.405492
0.458129
0.515285
0.5776
0.646049
0.721743
0.805786
0.899761
1.00628
1.12894
1.27229
1.44096
1.639
1.86829
2.1285
2.41572
2.71435
3.0055
3.28046
3.53359
3.77038
3.98068
4.16595
4.32826
4.4697
4.59324
4.7027
4.80121
4.89297
4.98186
5.07048
5.15994
5.25026
5.34189
5.43338
5.51735
5.58619
5.64599
5.69901
5.73951
5.76757
5.78052
5.78539
5.78331
5.77401
5.75713
5.7325
5.70161
5.66235
5.6141
5.55684
5.49049
5.41488
5.32974
5.2348
5.12986
5.01443
4.8878
4.75758
4.62225
4.47961
4.3287
4.16943
4.00222
3.82774
3.64699
3.4614
3.27273
3.0834
0.0321936
0.0395303
0.0255179
0.026725
0.0503744
0.106004
0.194558
0.282562
0.353185
0.400947
0.427117
0.434602
0.426189
0.40207
0.366134
0.326139
0.29721
0.269354
0.240382
0.210932
0.182452
0.156058
0.132347
0.111482
0.093302
0.0777126
0.0650083
0.0554352
0.0481699
0.0460121
0.0627554
0.135364
0.284315
0.414189
0.480785
0.505002
0.497605
0.482773
0.490658
0.52075
0.564169
0.61481
0.673934
0.740154
0.799573
0.850327
0.919687
1.05904
1.31168
2.10796
4.0776
6.96893
9.73435
11.0276
10.0993
9.63398
10.748
11.1876
11.7735
12.0738
12.5979
12.7656
11.4283
12.5008
10.8691
11.1427
11.6744
13.2426
11.4106
11.6316
11.6303
11.9207
12.2126
12.5062
12.7997
13.0857
13.3595
13.6229
13.8765
14.1214
14.3586
14.5888
14.813
15.0318
15.2461
15.4569
15.6654
15.8735
16.0805
16.2864
16.4916
16.6964
16.9013
17.1064
17.3123
17.5191
17.7271
17.9366
18.148
18.362
18.5787
18.7979
19.02
19.2453
19.4743
19.7071
19.9442
20.1859
20.4327
20.6849
0.0321936
0.0956566
0.147913
0.20546
0.21089
0.201972
0.192633
0.179226
0.209377
0.255102
0.314517
0.388295
0.477216
0.581555
0.700329
0.831818
0.974109
1.12522
1.28276
1.44439
1.60813
1.77254
1.93711
2.10195
2.26863
2.44164
2.61825
2.78648
2.9471
3.10167
3.2517
3.3957
3.53482
3.67019
3.80974
3.95373
4.09984
4.24686
4.41704
4.56519
4.67645
4.81258
4.96854
5.15405
5.37731
5.64819
5.9928
6.44837
7.07039
7.94439
8.88949
9.94669
11.1726
10.8091
11.7119
11.2032
10.9947
11.0395
11.2083
11.4415
12.4234
12.7198
12.7623
12.7524
12.7435
12.1565
11.971
11.6478
10.4496
10.1165
12.1259
11.8488
11.1345
9.2016
8.90857
4.58225
1.4576
0.837325
0.760403
0.661423
)
;
    }
    top
    {
        type            empty;
    }
    bottom
    {
        type            empty;
    }
    procBoundary1to0
    {
        type            processor;
        value           uniform 0;
    }
}


// ************************************************************************* //
