/*--------------------------------*- C++ -*----------------------------------*\
  =========                 |
  \\      /  F ield         | OpenFOAM: The Open Source CFD Toolbox
   \\    /   O peration     | Website:  https://openfoam.org
    \\  /    A nd           | Version:  10
     \\/     M anipulation  |
\*---------------------------------------------------------------------------*/
FoamFile
{
    format      ascii;
    class       volScalarField;
    location    "21000";
    object      yPlus;
}
// * * * * * * * * * * * * * * * * * * * * * * * * * * * * * * * * * * * * * //

dimensions      [0 0 0 0 0 0 0];

internalField   uniform 0;

boundaryField
{
    right
    {
        type            cyclic;
    }
    left
    {
        type            cyclic;
    }
    outerWall
    {
        type            calculated;
        value           nonuniform List<scalar> 0();
    }
    stirrerWall
    {
        type            calculated;
        value           nonuniform List<scalar> 
98
(
0.598528
0.583888
0.569491
0.555457
0.541936
0.529123
0.517258
0.506709
0.500631
0.501614
0.508475
0.522825
0.54621
0.5811
0.630817
0.70046
0.810985
1.05841
1.9211
5.23639
12.5304
11.1154
9.17593
7.93366
7.33438
6.97418
6.70796
6.50044
6.33594
6.20115
6.08857
5.99374
5.91319
5.84417
5.78453
5.73262
5.68718
5.64721
5.61196
5.58083
5.55339
5.52929
5.50829
5.49019
5.47484
5.46217
5.4521
5.4446
5.43965
5.43727
5.43746
5.44023
5.44556
5.45334
5.46326
5.47464
5.48563
5.49241
5.48917
5.39435
11.713
11.5879
11.7496
11.9179
12.0899
12.2651
12.4435
12.6252
12.8106
12.9998
13.1932
13.3911
13.5939
13.802
14.0159
14.2361
14.4631
14.6977
14.9408
15.1934
15.4568
15.7332
16.0246
16.3307
16.6505
16.991
17.3562
17.7704
18.2095
18.6895
19.2216
19.8209
20.5106
21.3014
22.2013
23.2514
24.3956
25.8907
)
;
    }
    top
    {
        type            empty;
    }
    bottom
    {
        type            empty;
    }
    procBoundary0to1
    {
        type            processor;
        value           uniform 0;
    }
    procBoundary0to3
    {
        type            processor;
        value           uniform 0;
    }
}


// ************************************************************************* //
