/*--------------------------------*- C++ -*----------------------------------*\
  =========                 |
  \\      /  F ield         | OpenFOAM: The Open Source CFD Toolbox
   \\    /   O peration     | Website:  https://openfoam.org
    \\  /    A nd           | Version:  10
     \\/     M anipulation  |
\*---------------------------------------------------------------------------*/
FoamFile
{
    format      ascii;
    class       volScalarField;
    location    "2700";
    object      k;
}
// * * * * * * * * * * * * * * * * * * * * * * * * * * * * * * * * * * * * * //

dimensions      [0 2 -2 0 0 0 0];

internalField   nonuniform List<scalar> 
420
(
2.22045e-16
2.22045e-16
2.22045e-16
2.22045e-16
2.22045e-16
2.22045e-16
2.22045e-16
2.22045e-16
2.22045e-16
2.22045e-16
2.22045e-16
2.22045e-16
2.22045e-16
2.22045e-16
2.22045e-16
2.22045e-16
2.22045e-16
2.22045e-16
2.22045e-16
2.22045e-16
2.22045e-16
2.22045e-16
2.22045e-16
2.22045e-16
2.22045e-16
2.22045e-16
2.22045e-16
2.22045e-16
2.22045e-16
2.22045e-16
2.22045e-16
2.22045e-16
2.22045e-16
2.22045e-16
2.22045e-16
2.22045e-16
2.22045e-16
2.22045e-16
2.22045e-16
2.22045e-16
2.22045e-16
2.22045e-16
2.22045e-16
2.22045e-16
2.22045e-16
2.22045e-16
2.22045e-16
2.22045e-16
2.22045e-16
2.22045e-16
2.22045e-16
2.22045e-16
2.22045e-16
2.22045e-16
2.22045e-16
2.22045e-16
2.22045e-16
2.22045e-16
2.22045e-16
2.22045e-16
2.22045e-16
2.22045e-16
2.22045e-16
2.22045e-16
2.22045e-16
2.22045e-16
2.22045e-16
2.22045e-16
2.22045e-16
2.22045e-16
2.22045e-16
2.22045e-16
2.22045e-16
2.22045e-16
2.22045e-16
2.22045e-16
2.22045e-16
2.22045e-16
2.22045e-16
2.22045e-16
2.22045e-16
2.22045e-16
2.22045e-16
2.22045e-16
2.22045e-16
2.22045e-16
2.22045e-16
2.22045e-16
2.22045e-16
2.22045e-16
2.22045e-16
2.22045e-16
2.22045e-16
2.22045e-16
2.22045e-16
2.22045e-16
2.22045e-16
2.22045e-16
2.22045e-16
2.22045e-16
2.22045e-16
2.22045e-16
2.22675e-16
2.35395e-16
2.69007e-16
2.89609e-16
2.61144e-16
2.40069e-16
3.49454e-16
4.59266e-16
2.22045e-16
2.22045e-16
2.22045e-16
2.38931e-16
2.76352e-16
2.91854e-16
2.53362e-16
2.22045e-16
3.24441e-16
4.20629e-16
2.22045e-16
2.22045e-16
2.22045e-16
2.44085e-16
2.84538e-16
2.93236e-16
2.43725e-16
2.22045e-16
3.03618e-16
3.94766e-16
2.22045e-16
2.22045e-16
2.22045e-16
2.51068e-16
2.92614e-16
2.92193e-16
2.31934e-16
2.22045e-16
2.88031e-16
3.8261e-16
2.22045e-16
2.22045e-16
2.22045e-16
2.60279e-16
2.99168e-16
2.88025e-16
2.22045e-16
2.22045e-16
2.77357e-16
3.7832e-16
2.22045e-16
2.22045e-16
2.22045e-16
2.70865e-16
3.03503e-16
2.81975e-16
2.22045e-16
2.22045e-16
2.67508e-16
3.77985e-16
2.22045e-16
2.22045e-16
2.26934e-16
2.81321e-16
3.04588e-16
2.74785e-16
2.22045e-16
2.22045e-16
2.62611e-16
3.83403e-16
2.22045e-16
2.22045e-16
2.34246e-16
2.90157e-16
3.0266e-16
2.67873e-16
2.22045e-16
2.22045e-16
2.64365e-16
3.92162e-16
2.22045e-16
2.22045e-16
2.43062e-16
2.96708e-16
2.98176e-16
2.60897e-16
2.22045e-16
2.22045e-16
2.7029e-16
4.02287e-16
2.22045e-16
2.22045e-16
2.54853e-16
3.00077e-16
2.93929e-16
2.55722e-16
2.22045e-16
2.22045e-16
2.77556e-16
4.1338e-16
2.22045e-16
2.22045e-16
2.73073e-16
3.05283e-16
2.95496e-16
2.56248e-16
2.22045e-16
2.25438e-16
2.84172e-16
4.26661e-16
2.22045e-16
2.22045e-16
2.85632e-16
3.06852e-16
2.94731e-16
2.55986e-16
2.22045e-16
2.29994e-16
2.91337e-16
4.45221e-16
2.22045e-16
2.4649e-16
2.93605e-16
3.00789e-16
2.87855e-16
2.5259e-16
2.22045e-16
2.34965e-16
3.0292e-16
4.68956e-16
2.29667e-16
2.74597e-16
2.84965e-16
2.86047e-16
2.75737e-16
2.47789e-16
2.23437e-16
2.44534e-16
3.19189e-16
4.97519e-16
2.50334e-16
2.67081e-16
2.71019e-16
2.73304e-16
2.67055e-16
2.43669e-16
2.26241e-16
2.54107e-16
3.34866e-16
5.24315e-16
2.43515e-16
2.53811e-16
2.57146e-16
2.61459e-16
2.59857e-16
2.41041e-16
2.28638e-16
2.63434e-16
3.51235e-16
5.51044e-16
2.31125e-16
2.39594e-16
2.42854e-16
2.49107e-16
2.52797e-16
2.38871e-16
2.29768e-16
2.71314e-16
3.67794e-16
5.76656e-16
2.22045e-16
2.26551e-16
2.29402e-16
2.36996e-16
2.46322e-16
2.37635e-16
2.2968e-16
2.75869e-16
3.83999e-16
5.97107e-16
2.22045e-16
2.22045e-16
2.22045e-16
2.26002e-16
2.40544e-16
2.37999e-16
2.28424e-16
2.73942e-16
3.99062e-16
6.05539e-16
2.22045e-16
2.22045e-16
2.22045e-16
2.22045e-16
2.37045e-16
2.4084e-16
2.273e-16
2.65248e-16
4.11077e-16
5.91628e-16
2.22045e-16
2.22045e-16
2.22045e-16
2.22045e-16
2.38203e-16
2.46341e-16
2.29071e-16
2.56541e-16
4.19842e-16
5.54357e-16
2.22045e-16
2.22045e-16
2.22045e-16
2.22045e-16
2.47421e-16
2.55982e-16
2.34265e-16
2.53716e-16
4.3085e-16
5.14365e-16
2.22045e-16
2.22045e-16
2.25496e-16
2.35507e-16
2.28285e-16
2.22045e-16
2.22045e-16
2.22045e-16
2.22045e-16
2.22045e-16
2.22045e-16
2.22045e-16
2.22045e-16
2.22045e-16
2.22045e-16
2.22045e-16
2.22045e-16
2.22045e-16
2.22045e-16
2.22045e-16
2.22045e-16
2.22045e-16
2.22045e-16
2.22045e-16
2.22045e-16
2.22045e-16
2.22045e-16
2.22045e-16
2.22045e-16
2.22045e-16
2.22045e-16
2.22045e-16
2.22045e-16
2.22045e-16
2.22045e-16
2.22045e-16
2.22045e-16
2.22045e-16
2.22045e-16
2.22045e-16
2.22045e-16
2.22045e-16
2.22045e-16
2.22045e-16
2.22045e-16
2.22045e-16
2.22045e-16
2.22045e-16
2.22045e-16
2.22045e-16
2.22045e-16
2.22045e-16
2.22045e-16
2.22045e-16
2.22045e-16
2.22045e-16
2.22045e-16
2.22045e-16
2.22045e-16
2.22045e-16
2.22045e-16
2.22045e-16
2.22045e-16
2.22045e-16
2.22045e-16
2.22045e-16
2.22045e-16
2.22045e-16
2.22045e-16
2.22045e-16
2.22045e-16
2.22045e-16
2.22045e-16
2.22045e-16
2.22045e-16
2.22045e-16
2.22045e-16
2.22045e-16
2.22045e-16
2.22045e-16
2.22045e-16
2.22045e-16
2.22045e-16
2.22045e-16
2.22045e-16
2.22045e-16
2.22045e-16
2.22045e-16
2.22045e-16
2.22045e-16
2.22045e-16
2.22045e-16
2.22045e-16
2.22045e-16
2.22045e-16
2.22045e-16
2.22045e-16
2.22045e-16
2.22045e-16
2.22045e-16
)
;

boundaryField
{
    right
    {
        type            cyclic;
    }
    left
    {
        type            cyclic;
    }
    outerWall
    {
        type            kqRWallFunction;
        value           nonuniform List<scalar> 
22
(
4.59266e-16
4.20629e-16
3.94766e-16
3.8261e-16
3.7832e-16
3.77985e-16
3.83403e-16
3.92162e-16
4.02287e-16
4.1338e-16
4.26661e-16
4.45221e-16
4.68956e-16
4.97519e-16
5.24315e-16
5.51044e-16
5.76656e-16
5.97107e-16
6.05539e-16
5.91628e-16
5.54357e-16
5.14365e-16
)
;
    }
    stirrerWall
    {
        type            kqRWallFunction;
        value           uniform 2.22045e-16;
    }
    top
    {
        type            empty;
    }
    bottom
    {
        type            empty;
    }
}


// ************************************************************************* //
