/*--------------------------------*- C++ -*----------------------------------*\
  =========                 |
  \\      /  F ield         | OpenFOAM: The Open Source CFD Toolbox
   \\    /   O peration     | Website:  https://openfoam.org
    \\  /    A nd           | Version:  10
     \\/     M anipulation  |
\*---------------------------------------------------------------------------*/
FoamFile
{
    format      ascii;
    class       volScalarField;
    location    "2700";
    object      nut;
}
// * * * * * * * * * * * * * * * * * * * * * * * * * * * * * * * * * * * * * //

dimensions      [0 2 -1 0 0 0 0];

internalField   nonuniform List<scalar> 
420
(
1.04478e-20
4.79854e-20
1.32112e-19
2.59615e-19
4.06615e-19
5.52378e-19
6.76983e-19
7.49889e-19
7.54286e-19
6.81003e-19
1.04473e-20
4.99834e-20
1.28557e-19
2.42544e-19
3.76639e-19
5.12546e-19
6.27878e-19
6.934e-19
6.83389e-19
5.96542e-19
1.04471e-20
5.25272e-20
1.30441e-19
2.36376e-19
3.5956e-19
4.86056e-19
5.93417e-19
6.46147e-19
6.08962e-19
5.06872e-19
1.04472e-20
5.52068e-20
1.36773e-19
2.41047e-19
3.57973e-19
4.76165e-19
5.70458e-19
5.9539e-19
5.25929e-19
4.17856e-19
1.04476e-20
5.80838e-20
1.45615e-19
2.499e-19
3.58659e-19
4.61369e-19
5.29388e-19
5.17577e-19
4.31401e-19
3.35026e-19
1.04483e-20
6.0753e-20
1.50695e-19
2.43859e-19
3.29026e-19
4.00009e-19
4.32699e-19
4.02591e-19
3.30978e-19
2.60603e-19
1.04493e-20
5.95357e-20
1.32375e-19
1.90051e-19
2.37117e-19
2.741e-19
2.87869e-19
2.70982e-19
2.33567e-19
1.9227e-19
1.04506e-20
4.75872e-20
7.85744e-20
1.00813e-19
1.21288e-19
1.39226e-19
1.50566e-19
1.52651e-19
1.44651e-19
1.27085e-19
1.04522e-20
2.1466e-20
2.78452e-20
3.42956e-20
4.12959e-20
4.87811e-20
5.54409e-20
6.11388e-20
6.52907e-20
6.27843e-20
2.82342e-21
3.6643e-21
4.61494e-21
5.67535e-21
6.84552e-21
8.12545e-21
9.51514e-21
1.10146e-20
1.26238e-20
1.43428e-20
5.64511e-19
4.71712e-19
4.4648e-19
5.11984e-19
6.74798e-19
6.62723e-19
4.48743e-19
2.6347e-19
2.24388e-19
9.19542e-20
4.84482e-19
4.12459e-19
4.11797e-19
5.09294e-19
6.98278e-19
7.17523e-19
4.56347e-19
3.13307e-19
2.32898e-19
9.01259e-20
4.0699e-19
3.6113e-19
3.89136e-19
5.2329e-19
7.34919e-19
7.47137e-19
4.50203e-19
3.98386e-19
2.41225e-19
9.00177e-20
3.36701e-19
3.18384e-19
3.76379e-19
5.53133e-19
7.76722e-19
7.56545e-19
4.60878e-19
3.77432e-19
2.44849e-19
8.94615e-20
2.75037e-19
2.82816e-19
3.71877e-19
5.97876e-19
8.14224e-19
7.52985e-19
4.8482e-19
3.55459e-19
2.34855e-19
8.84197e-20
2.20323e-19
2.51189e-19
3.72448e-19
6.51979e-19
8.21887e-19
7.20905e-19
4.63546e-19
3.35385e-19
2.28064e-19
8.83682e-20
1.69168e-19
2.20018e-19
3.82837e-19
6.48168e-19
7.62098e-19
6.85171e-19
4.43264e-19
3.17392e-19
2.24358e-19
8.92096e-20
1.17568e-19
1.86972e-19
3.9938e-19
6.7099e-19
7.44397e-19
6.53241e-19
4.26462e-19
3.04069e-19
2.1925e-19
9.01038e-20
6.81914e-20
1.51824e-19
4.23502e-19
7.10283e-19
7.37463e-19
6.26137e-19
4.13285e-19
2.93326e-19
2.18245e-19
9.11671e-20
3.05668e-20
1.18459e-19
4.62907e-19
8.51265e-19
8.30243e-19
6.10063e-19
4.04957e-19
2.84835e-19
2.19351e-19
9.20601e-20
1.03958e-20
9.79373e-20
5.45279e-19
8.88317e-19
8.3618e-19
6.10102e-19
4.00393e-19
2.81433e-19
2.20625e-19
9.39832e-20
1.03958e-20
1.26725e-19
6.33877e-19
7.3034e-19
7.54759e-19
6.05459e-19
3.96052e-19
2.84048e-19
2.22828e-19
9.8304e-20
7.37239e-20
3.57141e-19
6.0195e-19
6.69483e-19
6.90049e-19
5.95346e-19
3.92509e-19
2.87837e-19
2.2847e-19
1.02582e-19
3.27749e-19
5.42113e-19
6.21298e-19
6.81487e-19
6.99563e-19
5.92677e-19
3.95624e-19
2.94482e-19
2.3941e-19
1.05185e-19
6.3394e-19
6.17799e-19
6.71103e-19
7.2961e-19
7.51772e-19
6.01468e-19
4.08714e-19
3.04787e-19
2.41991e-19
1.08854e-19
7.28287e-19
6.56534e-19
6.87374e-19
7.47246e-19
7.68574e-19
6.19622e-19
4.28638e-19
3.19393e-19
2.47756e-19
1.12841e-19
7.75362e-19
6.85571e-19
7.08361e-19
7.44226e-19
7.57429e-19
6.44522e-19
4.56597e-19
3.39628e-19
2.56568e-19
1.15951e-19
7.54005e-19
6.94316e-19
6.63879e-19
6.88937e-19
7.38879e-19
6.7311e-19
4.93997e-19
3.66676e-19
2.68234e-19
1.16879e-19
7.53962e-19
6.63994e-19
6.15163e-19
6.29352e-19
7.09979e-19
6.9913e-19
5.38287e-19
3.99163e-19
2.77263e-19
1.14488e-19
7.3905e-19
6.37016e-19
5.80829e-19
5.84624e-19
6.76002e-19
7.15538e-19
5.80533e-19
4.35611e-19
2.87848e-19
1.09169e-19
7.06428e-19
5.97392e-19
5.40152e-19
5.47211e-19
6.47516e-19
7.19579e-19
6.09078e-19
4.52212e-19
2.61436e-19
1.0628e-19
6.49428e-19
5.40919e-19
4.90637e-19
5.05832e-19
6.3491e-19
7.20962e-19
6.20614e-19
3.10864e-19
2.51334e-19
1.0627e-19
1.43428e-20
1.21124e-19
4.45291e-19
7.3788e-19
8.07599e-19
8.21953e-19
8.42165e-19
8.40398e-19
8.1673e-19
7.66488e-19
1.26238e-20
8.5863e-20
3.04741e-19
5.92411e-19
7.62045e-19
8.41756e-19
8.84804e-19
8.90776e-19
8.72875e-19
8.30169e-19
1.10146e-20
6.10737e-20
1.93938e-19
4.15114e-19
6.20797e-19
7.49895e-19
8.22404e-19
8.43001e-19
8.36379e-19
8.07857e-19
9.51514e-21
4.86085e-20
1.32615e-19
2.65449e-19
4.19026e-19
5.52114e-19
6.47064e-19
6.98246e-19
7.16671e-19
7.10914e-19
8.12545e-21
4.14177e-20
1.03616e-19
1.90124e-19
2.9039e-19
3.88838e-19
4.72742e-19
5.33951e-19
5.6586e-19
5.72445e-19
6.84552e-21
3.59381e-20
8.76659e-20
1.53257e-19
2.25348e-19
2.96445e-19
3.5885e-19
4.04723e-19
4.25238e-19
4.25204e-19
5.67535e-21
3.09323e-20
7.65015e-20
1.31229e-19
1.86617e-19
2.36364e-19
2.74214e-19
2.92412e-19
2.89718e-19
2.77458e-19
4.61494e-21
2.59131e-20
6.51013e-20
1.07426e-19
1.41126e-19
1.6244e-19
1.71157e-19
1.65966e-19
1.53913e-19
1.42584e-19
3.6643e-21
2.07955e-20
4.51542e-20
5.8472e-20
6.30124e-20
6.38667e-20
6.27719e-20
5.93449e-20
5.5499e-20
5.19234e-20
2.82342e-21
1.04522e-20
1.04506e-20
1.04493e-20
1.04483e-20
1.04476e-20
1.04472e-20
1.04471e-20
1.04473e-20
1.04478e-20
)
;

boundaryField
{
    right
    {
        type            cyclic;
    }
    left
    {
        type            cyclic;
    }
    outerWall
    {
        type            nutkWallFunction;
        Cmu             0.09;
        kappa           0.41;
        E               9.8;
        value           uniform 0;
    }
    stirrerWall
    {
        type            nutkWallFunction;
        Cmu             0.09;
        kappa           0.41;
        E               9.8;
        value           uniform 0;
    }
    top
    {
        type            empty;
    }
    bottom
    {
        type            empty;
    }
}


// ************************************************************************* //
