/*--------------------------------*- C++ -*----------------------------------*\
  =========                 |
  \\      /  F ield         | OpenFOAM: The Open Source CFD Toolbox
   \\    /   O peration     | Website:  https://openfoam.org
    \\  /    A nd           | Version:  10
     \\/     M anipulation  |
\*---------------------------------------------------------------------------*/
FoamFile
{
    format      ascii;
    class       volScalarField;
    location    "2700";
    object      omega;
}
// * * * * * * * * * * * * * * * * * * * * * * * * * * * * * * * * * * * * * //

dimensions      [0 0 -1 0 0 0 0];

internalField   nonuniform List<scalar> 
420
(
21252.7
4627.33
1680.73
855.283
546.08
401.979
327.991
296.103
294.377
326.055
21253.7
4442.37
1727.21
915.482
589.543
433.219
353.643
320.226
324.917
372.219
21254.2
4227.23
1702.25
939.369
617.546
456.83
374.18
343.644
364.628
438.069
21254
4022.05
1623.46
921.167
620.283
466.318
389.239
372.94
422.195
531.39
21253.2
3822.83
1524.87
888.534
619.096
481.273
419.436
429.008
514.706
662.768
21251.7
3654.87
1473.47
910.544
674.854
555.099
513.162
551.539
670.874
852.043
21249.7
3729.6
1677.39
1168.34
936.433
810.086
771.339
819.406
950.667
1154.86
21247.1
4666.06
2825.92
2202.55
1830.73
1594.85
1474.73
1454.59
1535.03
1747.21
21243.8
10344
7974.24
6474.43
5376.91
4551.85
4005.07
3631.81
3400.86
3536.63
78643.9
60596.7
48114.3
39124.4
32436.5
27327.1
23335.9
20159.1
17589.3
15481.3
393.34
470.72
498.735
459.769
398.648
368.468
398.859
527.93
1033.01
3581.27
458.313
538.343
539.209
469.141
395.762
369.633
408.817
536.24
1007.87
3581.17
545.578
614.861
570.609
466.443
387.169
371.673
422.909
557.36
1025.99
3581.13
659.472
697.411
589.949
453.901
376.729
375.974
439.487
588.304
1063.37
3581.18
807.325
785.121
597.092
435.34
367.427
382.51
457.994
624.67
1107.71
3581.3
1007.81
883.975
596.176
415.451
361.267
391.14
479.014
662.059
1142.01
3581.49
1312.57
1009.21
592.77
397.618
358.588
401.046
500.931
699.592
1170.5
3581.76
1888.65
1187.58
586.526
381.962
357.607
410.068
520.667
730.243
1205.77
3582.1
3256.2
1462.51
573.934
366.483
356.342
416.678
537.267
756.989
1238.47
3582.51
7264.23
1874.44
550.548
352.508
354.028
419.173
548.316
779.556
1265.35
3582.99
21359.1
2267.21
500.794
343.664
353.388
420.008
554.567
801.035
1288.03
3575.63
21359.1
1752.17
433.863
340.225
355.149
422.797
560.645
809.7
1307.45
3575.63
3011.84
690.176
366.94
336.987
355.937
424.275
565.705
816.312
1325.86
3582.99
700.742
386.641
335.75
332.353
351.406
418.084
564.771
830.385
1333.23
3582.51
363.419
331.412
328.709
329.619
344.293
405.124
553.542
833.718
1348.9
3582.1
309.566
322.115
329.96
330.365
338.102
389.012
533.406
824.797
1360.49
3581.76
298.086
322.227
335.478
334.719
333.757
370.618
503.218
798.856
1357.65
3581.49
294.487
326.293
345.548
344.002
333.373
353.041
464.942
752.349
1340.9
3581.3
294.504
334.408
360.952
359.102
338.805
340.421
424.353
686.29
1305.31
3581.18
300.446
348.57
382.289
379.807
350.657
336.586
391.536
608.911
1242.22
3581.13
314.32
371.69
411.078
405.775
367.871
342.34
376.094
545.88
1164.57
3581.17
341.908
410.495
452.564
438.969
389.695
355.056
377.473
516.091
1138.8
3581.27
15481.3
1833.2
506.4
319.167
282.671
270.143
263.659
264.214
271.87
289.691
17589.3
2586.03
728.634
374.815
291.38
263.787
250.953
249.271
254.383
267.469
20159.1
3635.68
1144.92
534.9
357.676
296.101
269.995
263.398
265.483
274.856
23335.9
4568.02
1674.36
836.488
529.907
402.171
343.157
318.003
309.828
312.337
27327.1
5361.1
2142.95
1167.89
764.644
571.046
469.695
415.852
392.402
387.888
32436.5
6178.54
2532.85
1448.84
985.342
749.024
618.767
548.634
522.165
522.207
39124.4
7178.4
2902.49
1692.03
1189.84
939.418
809.75
759.356
766.415
800.283
48114.3
8568.83
3410.75
2066.95
1573.38
1366.93
1297.32
1337.89
1442.66
1557.29
60596.7
10677.5
4917.48
3797.45
3523.82
3476.69
3537.33
3741.6
4000.87
4276.39
78643.9
21243.8
21247.1
21249.7
21251.7
21253.2
21254
21254.2
21253.7
21252.7
)
;

boundaryField
{
    right
    {
        type            cyclic;
    }
    left
    {
        type            cyclic;
    }
    outerWall
    {
        beta1           0.075;
        blended         0;
        type            omegaWallFunction;
        value           nonuniform List<scalar> 
22
(
3581.27
3581.17
3581.13
3581.18
3581.3
3581.49
3581.76
3582.1
3582.51
3582.99
3575.63
3575.63
3582.99
3582.51
3582.1
3581.76
3581.49
3581.3
3581.18
3581.13
3581.17
3581.27
)
;
    }
    stirrerWall
    {
        beta1           0.075;
        blended         0;
        type            omegaWallFunction;
        value           nonuniform List<scalar> 
42
(
21252.7
21253.7
21254.2
21254
21253.2
21251.7
21249.7
21247.1
21243.8
78643.9
78643.9
60596.7
48114.3
39124.4
32436.5
27327.1
23335.9
20159.1
17589.3
15481.3
21359.1
21359.1
15481.3
17589.3
20159.1
23335.9
27327.1
32436.5
39124.4
48114.3
60596.7
78643.9
78643.9
21243.8
21247.1
21249.7
21251.7
21253.2
21254
21254.2
21253.7
21252.7
)
;
    }
    top
    {
        type            empty;
    }
    bottom
    {
        type            empty;
    }
}


// ************************************************************************* //
