/*--------------------------------*- C++ -*----------------------------------*\
  =========                 |
  \\      /  F ield         | OpenFOAM: The Open Source CFD Toolbox
   \\    /   O peration     | Website:  https://openfoam.org
    \\  /    A nd           | Version:  10
     \\/     M anipulation  |
\*---------------------------------------------------------------------------*/
FoamFile
{
    format      ascii;
    class       volScalarField;
    location    "2700";
    object      p;
}
// * * * * * * * * * * * * * * * * * * * * * * * * * * * * * * * * * * * * * //

dimensions      [0 2 -2 0 0 0 0];

internalField   nonuniform List<scalar> 
420
(
-0.78917
14.4935
30.9755
49.7145
69.8489
90.8089
112.251
133.744
154.889
175.282
-1.50449
13.8761
30.108
48.5694
68.4944
89.3906
110.973
132.828
154.434
175.326
-2.0726
13.3128
29.3001
47.4655
67.1655
88.0057
109.75
131.945
153.993
175.339
-2.44569
12.8694
28.6043
46.4536
65.9058
86.6593
108.532
131.056
153.533
175.295
-2.60166
12.5926
28.0606
45.5681
64.7326
85.344
107.278
130.091
152.982
175.154
-2.62511
12.4824
27.6894
44.8342
63.6626
84.0563
105.947
128.966
152.27
174.884
-2.58534
12.5206
27.4902
44.2519
62.6908
82.7722
104.486
127.59
151.306
174.496
-2.53002
12.6874
27.4539
43.8103
61.8073
81.4738
102.849
125.834
149.883
173.786
-2.53405
12.9811
27.5657
43.5081
61.0506
80.2299
101.086
123.586
147.465
171.763
-2.69556
13.3471
27.6377
43.2101
60.3838
79.1334
99.4402
121.22
144.213
167.95
194.486
212.815
230.25
246.458
261.505
276.012
290.277
304.851
314.28
442.031
194.971
213.583
231.13
247.372
262.481
277.152
291.65
306.539
315.105
441.772
195.351
214.151
231.701
247.901
263.005
277.696
292.106
307.274
314.479
432.622
195.608
214.5
231.938
247.992
262.947
277.408
291.338
306.83
312.917
415.673
195.711
214.592
231.811
247.634
262.294
276.326
289.547
304.489
309.683
399.399
195.684
214.469
231.415
246.976
261.225
274.67
287.01
300.358
303.741
390.293
195.693
214.233
230.814
246.122
259.912
272.678
283.996
295.272
296.219
383.187
195.725
213.842
229.924
245.063
258.458
270.533
280.75
290.011
289.642
374.67
195.214
213.562
229.122
244.043
257.08
268.481
277.69
285.753
285.858
367.456
193.766
214.128
229.171
243.484
256.018
266.743
275.066
282.562
283
364.868
194.199
214.59
229.48
243.313
255.253
265.284
272.599
279.118
270.661
368.836
195.222
214.31
229.333
242.736
254.163
263.545
269.925
274.728
263.38
366.04
198.847
214.307
228.994
242.141
253.158
261.864
267.274
269.726
265.013
357.373
197.839
213.45
228.288
241.58
252.573
261.003
265.829
267.399
265.817
353.692
196.183
212.411
227.64
241.267
252.525
261.066
266.04
267.955
267.974
355.517
194.978
211.596
227.28
241.384
253.14
262.151
267.664
270.112
271.848
360.306
194.324
211.249
227.364
241.997
254.395
264.198
270.74
274.039
277.507
366.28
194.107
211.313
227.808
242.957
256.074
266.941
274.923
279.146
284.579
375.538
194.17
211.623
228.433
244.045
257.9
269.971
279.422
284.295
293.168
393.448
194.295
211.952
228.998
244.967
259.456
272.569
283.124
288.299
301.77
419.663
194.275
212.103
229.305
245.479
260.374
274.113
285.685
291.719
304.535
438.933
194.231
212.286
229.602
245.791
260.744
274.844
287.905
298.896
310.244
440.453
183.373
180.241
178.352
177.219
176.554
176.197
176.049
175.95
175.713
175.397
158.012
157.836
157.835
157.631
157.396
157.143
156.871
156.534
156.021
155.411
130.789
133.309
135.422
136.521
137.005
137.086
136.843
136.338
135.57
134.657
105.898
109.11
112.32
114.403
115.581
116.079
116.024
115.504
114.617
113.487
83.7986
86.515
89.6891
92.1247
93.6594
94.4308
94.5739
94.1662
93.3141
92.1495
64.0666
65.9871
68.4572
70.6016
72.0997
72.9281
73.1603
72.8681
72.1359
71.0923
46.496
47.6377
49.1422
50.584
51.6744
52.2969
52.4638
52.2215
51.6203
50.76
30.9442
31.4195
31.9958
32.5699
33.0181
33.2456
33.2155
32.9335
32.4313
31.7719
17.3575
17.1838
17.0088
16.8699
16.7418
16.5641
16.3
15.9471
15.524
15.0523
4.90503
3.7321
2.67969
1.95446
1.41397
0.942373
0.487293
0.058711
-0.282325
-0.57016
)
;

boundaryField
{
    right
    {
        type            cyclic;
    }
    left
    {
        type            cyclic;
    }
    outerWall
    {
        type            zeroGradient;
    }
    stirrerWall
    {
        type            zeroGradient;
    }
    top
    {
        type            empty;
    }
    bottom
    {
        type            empty;
    }
}


// ************************************************************************* //
