/*--------------------------------*- C++ -*----------------------------------*\
  =========                 |
  \\      /  F ield         | OpenFOAM: The Open Source CFD Toolbox
   \\    /   O peration     | Website:  https://openfoam.org
    \\  /    A nd           | Version:  10
     \\/     M anipulation  |
\*---------------------------------------------------------------------------*/
FoamFile
{
    format      ascii;
    class       surfaceScalarField;
    location    "2700";
    object      phi;
}
// * * * * * * * * * * * * * * * * * * * * * * * * * * * * * * * * * * * * * //

dimensions      [0 3 -1 0 0 0 0];

internalField   nonuniform List<scalar> 
788
(
4.73795e-06
1.70948e-06
5.23532e-06
1.16084e-05
7.17138e-06
1.73267e-05
9.77475e-06
1.79602e-05
1.26823e-05
1.57858e-05
1.57678e-05
1.14024e-05
1.88377e-05
4.67303e-06
2.19617e-05
-5.02652e-06
2.56252e-05
-1.78221e-05
-3.10979e-05
2.92922e-05
3.04796e-06
-1.35798e-06
5.08541e-06
9.53306e-06
7.72992e-06
1.46566e-05
1.07069e-05
1.49432e-05
1.37028e-05
1.2672e-05
1.6564e-05
8.33062e-06
1.92578e-05
1.71976e-06
2.19907e-05
-7.98706e-06
2.47031e-05
-2.06156e-05
-3.32638e-05
2.69799e-05
2.23094e-06
-3.60433e-06
4.9118e-06
6.83852e-06
8.07432e-06
1.14588e-05
1.12305e-05
1.17157e-05
1.40788e-05
9.7e-06
1.63016e-05
5.93176e-06
1.78467e-05
-1.78184e-08
1.90149e-05
-9.30979e-06
2.01454e-05
-2.18178e-05
-3.46605e-05
2.15553e-05
1.61815e-06
-5.23231e-06
4.07085e-06
4.37365e-06
7.15823e-06
8.33818e-06
1.01241e-05
8.68173e-06
1.25819e-05
7.14244e-06
1.42126e-05
4.1833e-06
1.4956e-05
-8.62757e-07
1.48733e-05
-9.2665e-06
1.45234e-05
-2.14344e-05
-3.50672e-05
1.49859e-05
1.03227e-06
-6.26899e-06
2.97009e-06
2.43245e-06
5.72294e-06
5.5712e-06
8.41056e-06
5.94713e-06
1.05673e-05
4.90863e-06
1.1854e-05
2.80915e-06
1.2105e-05
-1.16924e-06
1.1217e-05
-8.35275e-06
9.53959e-06
-1.96585e-05
-3.38397e-05
8.38937e-06
3.52703e-07
-6.62041e-06
1.62737e-06
1.17151e-06
3.93845e-06
3.27297e-06
6.31048e-06
3.55882e-06
8.2508e-06
2.92658e-06
9.42941e-06
1.58466e-06
9.52056e-06
-1.26856e-06
8.34409e-06
-7.10455e-06
5.63326e-06
-1.68253e-05
-3.07447e-05
2.59808e-06
-4.78277e-07
-6.13214e-06
6.67833e-08
6.6775e-07
1.83192e-06
1.55885e-06
3.78157e-06
1.63387e-06
5.4599e-06
1.24439e-06
6.57264e-06
4.54971e-07
6.64013e-06
-1.32725e-06
5.1724e-06
-5.56464e-06
1.74893e-06
-1.32998e-05
-2.62298e-05
-2.73729e-06
-1.4656e-06
-4.64388e-06
-1.58938e-06
8.69142e-07
-5.34186e-07
6.02289e-07
7.03733e-07
4.65089e-07
1.78016e-06
1.86142e-07
2.50212e-06
-2.94986e-07
2.39292e-06
-1.24404e-06
3.64333e-07
-3.50363e-06
-4.33141e-06
-8.5262e-06
-1.9997e-05
-1.05308e-05
-2.56574e-06
-2.04106e-06
-2.93839e-06
1.34593e-06
-2.82448e-06
6.12048e-07
-2.82387e-06
5.41531e-07
-3.0319e-06
3.86516e-07
-3.47209e-06
6.29707e-08
-4.32769e-06
-4.68931e-07
-6.4588e-06
-1.35522e-06
-1.15122e-05
-3.33794e-06
-1.18329e-05
-1.95407e-05
-2.00332e-06
-5.91665e-07
5.93353e-08
5.85742e-07
9.06942e-07
9.05728e-07
4.42076e-07
-8.18752e-07
-4.04664e-06
-1.58707e-05
3.29636e-05
-4.93868e-05
3.76748e-05
-8.14309e-05
4.4447e-05
-0.000126327
5.38942e-05
-0.000183251
6.67489e-05
-0.000252307
8.45482e-05
-0.000339804
0.000105852
-0.000452496
0.000101678
-0.00055874
-5.5843e-06
-0.000700062
-0.00158235
2.92091e-05
-5.14131e-05
3.24744e-05
-8.44994e-05
3.76307e-05
-0.000131378
4.47397e-05
-0.000190389
5.38773e-05
-0.000261527
6.53374e-05
-0.000351221
7.91764e-05
-0.000466392
9.10142e-05
-0.000570675
2.64362e-05
-0.000635511
-0.00155608
2.30861e-05
-5.29333e-05
2.55643e-05
-8.69979e-05
2.94992e-05
-0.000135328
3.45995e-05
-0.000195456
4.06048e-05
-0.000267496
4.76105e-05
-0.000358303
5.81572e-05
-0.000476834
7.5331e-05
-0.000587863
4.39127e-05
-0.000604336
-0.00151225
1.58041e-05
-5.37559e-05
1.75662e-05
-8.88149e-05
2.03755e-05
-0.000138158
2.36453e-05
-0.000198669
2.70647e-05
-0.000270883
3.09972e-05
-0.000362387
3.8754e-05
-0.000484925
5.21099e-05
-0.000601105
5.01775e-05
-0.000602299
-0.00146219
8.25591e-06
-5.36449e-05
9.58824e-06
-9.02132e-05
1.16411e-05
-0.000140203
1.34821e-05
-0.000200459
1.48185e-05
-0.000272307
1.59754e-05
-0.000363515
1.76966e-05
-0.000486756
2.26651e-05
-0.000606084
4.54626e-05
-0.000624907
-0.00141685
1.39788e-06
-5.25099e-05
2.55105e-06
-9.14457e-05
3.95414e-06
-0.000141533
4.57873e-06
-0.00020095
4.37546e-06
-0.00027226
3.86606e-06
-0.000363037
3.33776e-06
-0.000486139
3.2048e-06
-0.000606148
2.79619e-05
-0.000649554
-0.00138899
-4.60231e-06
-5.07371e-05
-3.77538e-06
-9.23542e-05
-3.44466e-06
-0.000141754
-4.21872e-06
-0.000200008
-5.8532e-06
-0.000270824
-7.77917e-06
-0.000361296
-9.52442e-06
-0.000484226
-1.25837e-05
-0.000603366
6.38948e-06
-0.000668495
-0.00138265
-1.10138e-05
-5.03206e-05
-1.00521e-05
-9.33667e-05
-1.05253e-05
-0.000141123
-1.24751e-05
-0.00019786
-1.52057e-05
-0.000268285
-1.79817e-05
-0.000358786
-1.95871e-05
-0.00048242
-2.12459e-05
-0.00060191
-3.6441e-06
-0.000686091
-0.00138627
-1.70589e-05
-5.28316e-05
-1.56358e-05
-9.48403e-05
-1.76451e-05
-0.000138903
-2.11905e-05
-0.000194058
-2.54464e-05
-0.00026417
-2.98042e-05
-0.000354675
-3.29035e-05
-0.000479091
-2.99817e-05
-0.00060482
-6.49149e-06
-0.000709642
-0.00139277
-1.24336e-05
-5.63622e-05
-1.58194e-05
-9.15164e-05
-2.1421e-05
-0.000133192
-2.69776e-05
-0.00018829
-3.24904e-05
-0.000258632
-3.80222e-05
-0.000349134
-4.17565e-05
-0.000475302
-3.33751e-05
-0.000613227
-6.96184e-06
-0.00073599
-0.00139971
-3.1843e-06
-5.32578e-05
-7.3298e-06
-8.74246e-05
-1.0601e-05
-0.00012976
-1.35596e-05
-0.000185075
-1.66987e-05
-0.000255517
-1.94685e-05
-0.000346395
-2.20179e-05
-0.000472693
-2.75555e-05
-0.000607709
-1.63185e-06
-0.000761924
-0.00140134
-2.25163e-06
-5.10924e-05
-4.79156e-06
-8.49925e-05
-7.36445e-06
-0.000127038
-9.78944e-06
-0.000182427
-1.27913e-05
-0.000252625
-1.608e-05
-0.000343197
-1.95663e-05
-0.000469148
-2.5246e-05
-0.000601999
-4.57792e-06
-0.000782579
-0.00140592
-1.19366e-05
-4.48874e-05
5.60212e-06
-1.69388e-05
-7.99022e-05
-2.13121e-05
-0.000122572
-2.56611e-05
-0.000177933
-3.05177e-05
-0.000247881
-3.60247e-05
-0.000337741
-4.13011e-05
-0.000463894
-3.38234e-05
-0.000609543
-1.80853e-05
-0.000798323
-0.00142395
-2.04032e-05
-4.30214e-05
1.85856e-05
-2.38524e-05
-7.6397e-05
-2.78265e-05
-0.000118541
-3.23917e-05
-0.000173233
-3.79202e-05
-0.000242508
-4.37927e-05
-0.000331999
-4.9364e-05
-0.00045834
-4.45854e-05
-0.00061435
-1.06827e-05
-0.000832214
-0.00143456
-2.20414e-05
-4.26097e-05
2.17047e-05
-2.45446e-05
-7.38831e-05
-2.79508e-05
-0.000115116
-3.21513e-05
-0.000168949
-3.75739e-05
-0.000237202
-4.38404e-05
-0.000325812
-5.16618e-05
-0.000450519
-5.03782e-05
-0.000615487
-1.02066e-05
-0.000872345
-0.00144469
-2.09637e-05
-4.19111e-05
2.0288e-05
-2.29969e-05
-7.19048e-05
-2.58737e-05
-0.000112234
-2.97855e-05
-0.000164964
-3.5241e-05
-0.000231788
-4.24196e-05
-0.000318572
-5.27664e-05
-0.00044008
-5.5151e-05
-0.000612942
-1.42673e-05
-0.000913227
-0.00145892
-1.74256e-05
-4.09843e-05
1.64818e-05
-1.9251e-05
-7.01693e-05
-2.17433e-05
-0.000109714
-2.53345e-05
-0.000161259
-3.05758e-05
-0.0002265
-3.8181e-05
-0.000310835
-5.06313e-05
-0.000427524
-5.76265e-05
-0.000605858
-1.68242e-05
-0.000954128
-0.0014757
-1.15747e-05
-4.01437e-05
1.06906e-05
-1.31448e-05
-6.86878e-05
-1.51617e-05
-0.00010763
-1.81466e-05
-0.000158112
-2.26537e-05
-0.000221868
-2.97068e-05
-0.000303636
-4.28055e-05
-0.000414446
-5.30176e-05
-0.000595686
-2.02912e-05
-0.000987028
-0.00149587
-4.07781e-06
-3.96618e-05
3.54171e-06
-5.05539e-06
-6.77691e-05
-6.14554e-06
-0.000106417
-7.91097e-06
-0.00015615
-1.09644e-05
-0.000218681
-1.60566e-05
-0.000298464
-2.68564e-05
-0.000403833
-4.03404e-05
-0.00058225
-2.5206e-05
-0.00100225
-0.00152086
4.5653e-06
-3.96767e-05
-4.59975e-06
4.53659e-06
-6.77429e-05
4.83722e-06
-0.000106567
4.89731e-06
-0.000156072
4.01895e-06
-0.000217778
1.56853e-06
-0.000296043
-4.9379e-06
-0.000397518
-1.75189e-05
-0.000569371
-2.19698e-05
-0.000997689
-0.00154315
1.31627e-05
-4.08857e-05
-1.19781e-05
1.5719e-05
-7.02697e-05
1.95863e-05
-0.000110395
2.42725e-05
-0.000160865
2.86239e-05
-0.000222293
3.2617e-05
-0.000300121
3.85385e-05
-0.000403655
4.51134e-05
-0.000575649
3.81646e-06
-0.000956071
-0.00153927
2.98623e-05
-2.49298e-05
3.66963e-05
4.6133e-05
5.87621e-05
7.52176e-05
9.69913e-05
0.000124948
0.000111696
-3.7163e-05
-1.63275e-05
2.19158e-05
-2.25702e-05
2.49255e-05
-2.51718e-05
2.43783e-05
-2.54793e-05
2.05946e-05
-2.47581e-05
1.57169e-05
-2.37738e-05
9.63278e-06
-2.29499e-05
2.64589e-06
-2.25686e-05
-5.04042e-06
-2.30107e-05
-1.16446e-05
-2.10042e-05
-2.4312e-06
2.44362e-05
-7.0263e-06
2.9721e-05
-1.00397e-05
2.75556e-05
-1.09732e-05
2.16022e-05
-1.05911e-05
1.53458e-05
-9.70461e-06
8.70723e-06
-8.97497e-06
1.84994e-06
-8.87704e-06
-5.21328e-06
-9.62706e-06
-1.10476e-05
-1.78099e-05
3.71472e-06
2.0807e-05
3.33459e-06
3.02373e-05
2.51729e-06
2.84723e-05
2.14679e-06
2.20124e-05
2.62417e-06
1.48603e-05
3.39564e-06
7.87706e-06
3.61587e-06
1.51955e-06
2.9709e-06
-4.7412e-06
1.88438e-06
-1.02571e-05
-1.56387e-05
5.63319e-06
1.52194e-05
9.22716e-06
2.67048e-05
1.1146e-05
2.65801e-05
1.20122e-05
2.11479e-05
1.25996e-05
1.4241e-05
1.30657e-05
7.33032e-06
1.32983e-05
1.14811e-06
1.27522e-05
-4.39847e-06
1.1432e-05
-9.21396e-06
-1.32311e-05
5.27989e-06
9.95123e-06
1.1413e-05
2.05602e-05
1.63365e-05
2.16043e-05
1.93251e-05
1.81201e-05
2.07454e-05
1.27691e-05
2.10958e-05
6.89841e-06
2.08128e-05
1.31007e-06
1.97457e-05
-3.49198e-06
1.78933e-05
-7.55194e-06
-1.06457e-05
4.24822e-06
5.68619e-06
1.08615e-05
1.38869e-05
1.7033e-05
1.534e-05
2.15566e-05
1.35373e-05
2.41909e-05
1.00782e-05
2.51933e-05
5.82724e-06
2.49515e-05
1.46159e-06
2.37578e-05
-2.41277e-06
2.17131e-05
-5.62682e-06
-8.06337e-06
3.08709e-06
2.56849e-06
8.99576e-06
7.89781e-06
1.51653e-05
9.08625e-06
2.0199e-05
8.45613e-06
2.35963e-05
6.63847e-06
2.53361e-05
4.03932e-06
2.56078e-05
1.13167e-06
2.47731e-05
-1.64884e-06
2.30885e-05
-4.00719e-06
-5.8346e-06
2.20296e-06
3.38908e-07
6.99866e-06
3.03751e-06
1.22644e-05
3.7851e-06
1.68356e-05
3.86659e-06
2.02268e-05
3.2277e-06
2.22435e-05
1.99754e-06
2.29319e-05
4.1222e-07
2.25172e-05
-1.27264e-06
2.13074e-05
-2.8466e-06
-4.14379e-06
1.14854e-06
-8.23289e-07
4.45225e-06
-2.93038e-07
8.17584e-06
6.15298e-08
1.14956e-05
5.40297e-07
1.40223e-05
6.89282e-07
1.55314e-05
4.71673e-07
1.59647e-05
-4.08795e-08
1.54141e-05
-7.47299e-07
1.4056e-05
-1.5481e-06
-2.62359e-06
-8.25569e-07
-1.11333e-06
-1.0528e-06
-5.16521e-07
1.66866e-07
6.29673e-07
5.75844e-07
-1.88235e-07
-1.76078e-06
)
;

boundaryField
{
    right
    {
        type            cyclic;
        value           nonuniform List<scalar> 
20
(
0.00157688
0.000807147
0.000562271
0.000431849
0.000322047
0.0002387
0.000173126
0.000119184
7.65078e-05
4.54873e-05
2.7209e-05
1.34972e-05
1.16989e-06
-8.31449e-06
-1.48916e-05
-1.89676e-05
-2.07539e-05
-1.94531e-05
-1.22904e-05
4.34614e-06
)
;
    }
    left
    {
        type            cyclic;
        value           nonuniform List<scalar> 
20
(
-0.00157688
-0.000807147
-0.000562271
-0.000431849
-0.000322047
-0.0002387
-0.000173126
-0.000119184
-7.65078e-05
-4.54873e-05
-2.7209e-05
-1.34972e-05
-1.16989e-06
8.31449e-06
1.48916e-05
1.89676e-05
2.07539e-05
1.94531e-05
1.22904e-05
-4.34614e-06
)
;
    }
    outerWall
    {
        type            calculated;
        value           uniform 0;
    }
    stirrerWall
    {
        type            calculated;
        value           uniform 0;
    }
    top
    {
        type            empty;
        value           nonuniform List<scalar> 0();
    }
    bottom
    {
        type            empty;
        value           nonuniform List<scalar> 0();
    }
}


// ************************************************************************* //
