/*--------------------------------*- C++ -*----------------------------------*\
  =========                 |
  \\      /  F ield         | OpenFOAM: The Open Source CFD Toolbox
   \\    /   O peration     | Website:  https://openfoam.org
    \\  /    A nd           | Version:  10
     \\/     M anipulation  |
\*---------------------------------------------------------------------------*/
FoamFile
{
    format      ascii;
    class       volVectorField;
    location    "2700";
    object      U;
}
// * * * * * * * * * * * * * * * * * * * * * * * * * * * * * * * * * * * * * //

dimensions      [0 1 -1 0 0 0 0];

internalField   nonuniform List<vector> 
420
(
(0.808852 8.93631 2.57136e-18)
(0.309471 11.2637 -2.57829e-17)
(0.284754 13.0832 -1.74539e-16)
(0.412923 14.4213 4.95356e-17)
(0.555559 15.5085 -3.79922e-16)
(0.698383 16.4 0)
(0.884598 17.085 0)
(1.00648 17.5439 4.34169e-16)
(1.17202 17.7581 -6.64086e-16)
(1.34799 17.9083 0)
(0.0823317 9.08578 1.42537e-17)
(-0.72325 11.1223 -5.33887e-17)
(-0.6343 12.8499 5.06784e-16)
(-0.538264 14.1539 -8.41954e-16)
(-0.460637 15.2303 2.56528e-16)
(-0.405854 16.1289 -1.38333e-18)
(-0.314732 16.8466 2.30185e-15)
(-0.223682 17.3047 -5.92601e-16)
(-0.132066 17.5179 1.42848e-15)
(-0.0593844 17.7133 0)
(-0.607771 8.85381 -7.52437e-17)
(-1.62541 10.841 -2.47447e-16)
(-1.52388 12.5453 5.61859e-16)
(-1.48837 13.8483 1.0047e-15)
(-1.49988 14.9389 -6.69176e-16)
(-1.54569 15.8635 3.24089e-15)
(-1.58602 16.6064 1.44322e-15)
(-1.62617 17.0716 4.16939e-15)
(-1.71357 17.2602 -2.01131e-15)
(-1.70435 17.4658 -4.66289e-15)
(-1.27269 8.61099 8.61074e-17)
(-2.49775 10.4495 2.58888e-16)
(-2.48508 12.1183 -6.97621e-16)
(-2.55321 13.4245 7.12744e-16)
(-2.67122 14.5397 -1.40554e-15)
(-2.83401 15.5091 1.57746e-15)
(-2.97717 16.3004 -8.3462e-15)
(-3.11171 16.8004 0)
(-3.37456 16.9628 -4.81125e-15)
(-3.40951 17.0995 4.3525e-15)
(-1.92179 8.36377 0)
(-3.33541 10.0106 2.82667e-16)
(-3.44683 11.6147 -2.65006e-16)
(-3.63042 12.9134 0)
(-3.85453 14.0535 -2.9819e-16)
(-4.12062 15.0705 -2.81154e-16)
(-4.36539 15.9165 2.92075e-15)
(-4.57984 16.489 -3.87902e-15)
(-4.95318 16.6456 0)
(-5.09164 16.6707 -1.74527e-14)
(-2.56375 8.11673 -2.11823e-17)
(-4.16189 9.5433 0)
(-4.39518 11.0501 0)
(-4.69282 12.3217 1.33781e-15)
(-5.01926 13.4753 -2.14957e-15)
(-5.37984 14.5334 2.40757e-15)
(-5.71984 15.4421 6.69926e-16)
(-6.01487 16.0895 8.76098e-15)
(-6.43159 16.3119 -1.35291e-14)
(-6.71795 16.2659 8.40596e-15)
(-3.21527 7.87459 0)
(-4.98644 9.05428 -3.39357e-16)
(-5.32854 10.4317 -2.11919e-15)
(-5.73755 11.6517 -8.50208e-16)
(-6.16697 12.7966 -3.9204e-15)
(-6.62069 13.8766 2.49887e-15)
(-7.05637 14.846 -6.14266e-15)
(-7.45816 15.5629 7.51102e-16)
(-7.9399 15.909 -3.9413e-15)
(-8.32268 15.8715 -1.25425e-14)
(-3.90703 7.63908 3.02824e-17)
(-5.80125 8.55184 3.62455e-16)
(-6.24659 9.77863 2.91421e-15)
(-6.77447 10.9195 6.17703e-16)
(-7.32256 12.0195 2.42642e-15)
(-7.88459 13.0823 0)
(-8.43466 14.0795 6.49061e-15)
(-8.97601 14.8896 7.95279e-15)
(-9.58923 15.361 1.01092e-14)
(-10.1095 15.3356 9.22434e-15)
(-4.66818 7.39258 2.84671e-17)
(-6.57067 8.06096 3.76414e-16)
(-7.1368 9.14396 -3.96416e-16)
(-7.82072 10.1811 -2.03387e-15)
(-8.53241 11.1953 6.54824e-15)
(-9.25202 12.1936 9.13685e-15)
(-9.95921 13.1784 -3.18811e-15)
(-10.6722 14.0805 0)
(-11.4187 14.6903 0)
(-12.0116 14.6868 -9.95529e-15)
(-5.50191 7.04021 -1.09242e-16)
(-6.91015 7.72943 6.50836e-16)
(-7.4972 8.73822 0)
(-8.21972 9.73006 0)
(-8.97338 10.6834 -3.32242e-15)
(-9.73341 11.6013 -2.95307e-17)
(-10.4979 12.4831 5.8432e-15)
(-11.2743 13.3244 -1.27006e-14)
(-12.0938 14.0642 1.5255e-14)
(-12.8777 14.2017 1.22554e-15)
(1.40028 17.6838 0)
(1.48365 17.048 0)
(1.69912 16.1502 0)
(2.0716 15.217 -9.34121e-16)
(2.47742 14.3819 0)
(2.88946 13.4539 0)
(3.98399 12.2698 9.33008e-16)
(7.14764 12.1134 0)
(-5.95961 9.85031 0)
(8.55808 -11.527 0)
(-0.100316 17.4968 1.93581e-15)
(-0.0465102 16.8127 3.08224e-15)
(0.186835 15.8226 1.15525e-16)
(0.563968 14.8119 9.41281e-16)
(0.914211 13.9096 2.54493e-17)
(1.17756 12.9114 1.18427e-15)
(1.91352 11.7847 1.41463e-16)
(5.54439 12.5017 -2.61591e-16)
(-6.24878 12.5405 -1.42576e-15)
(10.045 -10.639 -3.71819e-16)
(-1.74864 17.244 1.68074e-15)
(-1.65641 16.5041 0)
(-1.35746 15.4344 -2.29764e-15)
(-0.947133 14.3741 -1.88565e-15)
(-0.611608 13.4359 5.70213e-15)
(-0.415032 12.3877 -1.10783e-15)
(0.0767163 11.1343 2.02453e-15)
(3.90134 12.0035 0)
(-6.51431 14.0145 2.34466e-15)
(9.65927 -8.88769 -1.00525e-16)
(-3.43325 16.8554 3.65838e-15)
(-3.28946 16.0566 8.6979e-15)
(-2.90845 14.9393 -8.80202e-15)
(-2.46009 13.8757 3.43464e-15)
(-2.12112 12.944 1.29407e-16)
(-1.92138 11.8782 0)
(-1.55122 10.4534 -1.94475e-15)
(2.08553 11.2863 -4.16796e-15)
(-6.93911 14.2332 -2.46886e-15)
(8.45639 -6.81348 2.13324e-15)
(-5.10646 16.3583 3.22885e-15)
(-4.88597 15.4966 -2.77049e-15)
(-4.39761 14.3731 8.96616e-15)
(-3.90776 13.3457 -3.522e-15)
(-3.55929 12.4446 3.05371e-15)
(-3.3396 11.3827 -4.75205e-15)
(-2.91277 9.89655 4.5583e-15)
(-0.160653 10.6137 4.49008e-15)
(-7.8634 13.1046 0)
(8.03799 -4.72787 -4.54026e-15)
(-6.73488 15.8063 3.91104e-15)
(-6.38102 14.835 -1.65725e-14)
(-5.77819 13.741 -4.66142e-15)
(-5.26463 12.777 1.08928e-14)
(-4.90099 11.9155 9.39039e-15)
(-4.65014 10.8729 4.10578e-16)
(-4.08029 9.43429 2.48557e-16)
(-1.82765 10.1108 -4.10395e-15)
(-9.00907 11.1828 -3.00418e-15)
(7.85335 -2.88011 5.82418e-15)
(-8.31771 15.1984 3.90338e-15)
(-7.76867 14.0702 5.6812e-15)
(-7.08224 13.043 0)
(-6.58381 12.1518 -3.55059e-15)
(-6.21097 11.3249 -5.74174e-15)
(-5.92708 10.3008 4.33086e-16)
(-5.20624 8.93963 -1.29948e-14)
(-3.25493 9.65708 -4.31774e-15)
(-10.3228 9.39926 6.70152e-15)
(7.9973 -1.8895 -3.08673e-15)
(-9.92815 14.4042 1.4645e-14)
(-9.07812 13.1579 -5.1365e-15)
(-8.31635 12.2895 0)
(-7.85881 11.4825 -3.10337e-16)
(-7.46522 10.684 2.40064e-14)
(-7.11636 9.67179 -9.94741e-15)
(-6.22857 8.37283 -9.37492e-15)
(-4.4886 9.12965 8.05982e-15)
(-10.9933 7.82532 -6.51154e-15)
(8.38299 -1.18253 0)
(-11.2658 13.1952 3.64965e-16)
(-10.236 12.1699 -5.06504e-15)
(-9.53825 11.5089 0)
(-9.1449 10.7702 7.29434e-15)
(-8.74267 9.97705 -1.77704e-14)
(-8.33646 8.96632 1.01169e-14)
(-7.3389 7.70438 4.4229e-15)
(-5.82272 8.41038 0)
(-11.3327 6.42287 3.34117e-16)
(8.92852 -0.428638 3.50481e-15)
(-11.6344 12.4362 4.59641e-16)
(-11.1776 11.4822 -9.37592e-17)
(-10.7308 10.9615 0)
(-10.3885 10.1944 -1.48028e-14)
(-9.9563 9.37792 5.70559e-15)
(-9.4899 8.37026 -5.56454e-15)
(-8.40234 7.10077 4.9384e-15)
(-6.61436 7.56348 4.33789e-17)
(-11.5294 5.03941 -1.6818e-16)
(9.53726 0.427936 -3.51267e-15)
(-11.1905 12.8224 2.88195e-15)
(-11.5668 11.2938 -5.4735e-15)
(-11.2352 10.6588 0)
(-10.7906 9.89077 0)
(-10.2604 9.07364 0)
(-9.69459 8.05072 -2.54296e-15)
(-8.48325 6.76979 1.04922e-14)
(-7.00563 6.828 0)
(-10.9636 2.9227 0)
(10.0189 1.62802 0)
(-12.04 12.246 -2.78384e-15)
(-12.2561 10.9784 -5.12832e-15)
(-11.8835 10.3283 0)
(-11.3582 9.58157 3.61973e-15)
(-10.7585 8.79553 -2.79562e-15)
(-10.1426 7.77302 2.40696e-15)
(-8.89863 6.47832 3.60187e-15)
(-7.48213 6.56568 1.02443e-16)
(-10.4235 1.81867 1.28506e-15)
(10.1994 1.75248 0)
(-14.0161 11.0571 1.54295e-16)
(-13.4516 10.2334 1.7162e-16)
(-12.9773 9.57114 0)
(-12.3898 8.86046 3.06844e-16)
(-11.729 8.15574 5.49979e-15)
(-11.0494 7.23626 -4.06523e-15)
(-9.74821 6.03936 -1.07842e-14)
(-8.32484 6.0041 -5.29447e-15)
(-10.188 1.61083 7.78913e-15)
(10.1035 1.96607 2.96345e-15)
(-15.3277 9.46949 -1.27506e-14)
(-14.6103 8.99746 4.90323e-15)
(-14.0182 8.37887 0)
(-13.3405 7.72094 -6.25038e-15)
(-12.6151 7.04424 -5.24109e-15)
(-11.8244 6.18674 8.0744e-15)
(-10.3992 5.03126 2.92144e-15)
(-8.90307 4.37224 0)
(-8.9528 0.427163 -4.5913e-15)
(10.4878 2.60323 -4.36796e-16)
(-16.0367 8.29276 -2.8454e-16)
(-15.4324 7.92347 4.53599e-15)
(-14.8244 7.43001 0)
(-14.1116 6.87108 1.20938e-14)
(-13.3554 6.27175 1.03605e-16)
(-12.4993 5.48762 -1.40818e-16)
(-11.0253 4.39919 4.65864e-15)
(-9.36411 3.18347 -4.23587e-15)
(-7.77725 -0.943246 -2.61522e-15)
(10.7627 3.78263 0)
(-16.6096 7.20771 -2.70249e-15)
(-16.0919 6.91136 8.72356e-15)
(-15.4742 6.50477 7.19644e-15)
(-14.7461 6.03629 -8.24709e-15)
(-13.9872 5.51123 -1.31526e-14)
(-13.1067 4.81265 2.25747e-16)
(-11.6691 3.77018 -2.19305e-15)
(-9.79707 2.09019 -1.29317e-15)
(-6.37727 -2.10753 -2.3877e-15)
(10.9168 4.44455 -2.77728e-15)
(-17.0738 6.2256 -7.85218e-15)
(-16.6047 5.96117 4.15475e-15)
(-15.9915 5.62316 -3.25683e-15)
(-15.2738 5.23958 -7.98436e-15)
(-14.5358 4.78953 6.42625e-15)
(-13.6684 4.21062 3.22854e-16)
(-12.3281 3.24521 4.38008e-15)
(-10.2184 1.15173 1.12177e-15)
(-4.74323 -2.98175 1.10132e-15)
(11.003 4.91897 8.18449e-16)
(-17.4418 5.33695 2.33285e-15)
(-17.005 5.09925 -2.14179e-15)
(-16.4023 4.82292 -3.67805e-17)
(-15.7059 4.52356 7.92291e-15)
(-14.995 4.15461 -1.0011e-14)
(-14.1614 3.72582 3.03011e-15)
(-12.9487 2.89543 -1.37455e-15)
(-10.5905 0.466806 2.61744e-15)
(-2.89695 -3.48913 0)
(11.1032 5.15259 1.03913e-16)
(-17.7445 4.50491 2.69792e-15)
(-17.3297 4.31142 2.19748e-15)
(-16.7307 4.10466 3.54043e-15)
(-16.0557 3.90458 -5.35525e-15)
(-15.3743 3.6421 2.02467e-15)
(-14.5891 3.38134 0)
(-13.5215 2.7908 -8.7191e-16)
(-10.9184 0.199484 -6.10641e-16)
(-1.70919 -3.76044 5.23574e-16)
(11.3912 5.80164 1.58909e-15)
(-17.9355 3.69499 1.32224e-15)
(-17.5092 3.5594 0)
(-16.8768 3.42721 1.87522e-15)
(-16.1901 3.33728 1.4259e-15)
(-15.5197 3.2008 -4.15238e-17)
(-14.7661 3.12312 -7.78541e-16)
(-13.7915 2.78345 8.72549e-16)
(-11.2368 0.368705 0)
(-1.33686 -3.89592 -4.7001e-16)
(11.5545 7.69092 1.2982e-15)
(-18.1084 2.83007 1.64155e-15)
(-17.6681 2.84239 -2.69444e-15)
(-17.0352 2.8981 -8.78282e-17)
(-16.3884 3.04493 7.62507e-16)
(-15.7933 3.17955 3.14359e-17)
(-15.1346 3.31957 9.03461e-16)
(-14.2427 3.61981 -6.92027e-16)
(-11.095 2.10197 6.93747e-16)
(0.0775514 -3.19877 -1.86028e-16)
(12.3921 9.90331 -5.74541e-16)
(-17.9232 2.45344 2.90783e-29)
(-17.331 2.65013 0)
(-16.5176 2.94828 0)
(-15.6829 3.41353 -9.34297e-16)
(-14.9617 3.93608 0)
(-14.1918 4.57622 0)
(-13.1978 5.74609 6.6563e-16)
(-11.8486 7.35648 0)
(-6.43255 -4.12273 0)
(11.2326 5.81046 -1.88239e-30)
(-14.9788 11.5844 8.67457e-16)
(-15.8977 9.83854 -7.37631e-15)
(-16.2971 8.28595 6.63495e-15)
(-16.7443 7.17087 -8.70561e-15)
(-17.148 6.18815 5.66105e-15)
(-17.512 5.31741 -1.18522e-14)
(-17.8234 4.507 3.06846e-15)
(-18.0523 3.73802 -3.58668e-15)
(-18.2544 2.89111 0)
(-18.126 2.32877 -5.60475e-16)
(-15.48 11.1159 1.47321e-14)
(-16.2361 9.50508 0)
(-16.454 8.01952 7.0041e-15)
(-16.7735 7.04166 -2.67047e-15)
(-17.0903 6.13994 -8.88018e-15)
(-17.4249 5.31573 0)
(-17.7237 4.53004 -3.555e-15)
(-17.9549 3.76294 -1.7672e-15)
(-18.106 2.90417 1.33199e-15)
(-18.0123 2.14579 -5.98631e-16)
(-15.0913 10.4709 -1.21289e-14)
(-16.1322 8.82388 0)
(-16.4245 7.5713 6.45495e-15)
(-16.7013 6.76062 5.17234e-16)
(-16.9721 5.99701 7.58907e-15)
(-17.271 5.26174 -3.64409e-15)
(-17.5364 4.50904 0)
(-17.7213 3.73492 4.95471e-15)
(-17.8199 2.85767 -8.1583e-16)
(-17.7764 2.01796 5.70563e-16)
(-13.9976 9.83283 5.54966e-15)
(-15.4644 8.22944 -2.07698e-15)
(-15.9967 7.17331 4.87908e-15)
(-16.3185 6.4974 -5.07309e-15)
(-16.5613 5.88803 5.81204e-16)
(-16.8028 5.2505 2.93336e-15)
(-17.0623 4.50786 -8.94618e-15)
(-17.2632 3.72236 1.60226e-15)
(-17.3816 2.86259 2.66477e-15)
(-17.3194 1.93384 7.69211e-17)
(-12.6627 9.24066 -8.21047e-15)
(-14.3053 7.70757 5.71834e-15)
(-15.1898 6.79796 0)
(-15.7081 6.1684 1.84859e-15)
(-16.0516 5.59978 1.93256e-15)
(-16.2883 4.99162 -2.99207e-16)
(-16.4791 4.3232 1.47275e-15)
(-16.6213 3.55118 3.38475e-15)
(-16.6909 2.69403 6.96388e-18)
(-16.6219 1.7397 3.03465e-16)
(-11.3656 8.64296 -3.25957e-15)
(-12.9133 7.26077 3.73634e-15)
(-13.9376 6.45636 1.62784e-15)
(-14.6226 5.83457 -2.52197e-15)
(-15.1132 5.26419 -1.58429e-15)
(-15.4186 4.66615 -2.47295e-16)
(-15.6238 4.01177 -2.64892e-15)
(-15.7448 3.26104 8.94342e-16)
(-15.7817 2.431 2.60085e-16)
(-15.7029 1.52203 -3.00482e-16)
(-10.1395 8.03162 0)
(-11.4258 6.8486 -1.19817e-15)
(-12.4505 6.14626 5.33091e-16)
(-13.2171 5.53615 -5.60592e-16)
(-13.7967 4.94886 8.21816e-16)
(-14.1952 4.33799 0)
(-14.4572 3.68558 5.8131e-16)
(-14.5965 2.96518 9.24076e-16)
(-14.6496 2.17351 -8.11304e-16)
(-14.5848 1.31514 -2.99576e-17)
(-8.97127 7.39488 0)
(-9.97497 6.44553 -6.7526e-17)
(-10.891 5.85268 1.39684e-15)
(-11.6415 5.25725 -9.83142e-16)
(-12.2506 4.65069 0)
(-12.6969 4.02182 -9.1295e-17)
(-12.9985 3.36347 -4.59156e-16)
(-13.1754 2.6624 3.91201e-16)
(-13.2476 1.91112 4.29086e-16)
(-13.2061 1.11634 -1.833e-16)
(-7.83685 6.67699 -7.55069e-16)
(-8.5818 5.9517 6.89087e-17)
(-9.3343 5.42758 7.52875e-17)
(-9.99968 4.82592 -8.12825e-17)
(-10.5464 4.20279 0)
(-10.9565 3.56221 9.80282e-17)
(-11.2329 2.90469 1.79052e-17)
(-11.3858 2.23183 2.76279e-17)
(-11.4286 1.54813 -2.42907e-17)
(-11.3672 0.864312 -1.6719e-18)
(-6.3853 6.26246 -1.52018e-16)
(-6.60521 6.01272 -5.25348e-17)
(-7.06295 5.52295 -6.54256e-17)
(-7.51264 4.93534 0)
(-7.92993 4.34069 3.92246e-17)
(-8.28218 3.75099 0)
(-8.55053 3.1603 1.92494e-16)
(-8.72198 2.56126 -1.32823e-16)
(-8.78821 1.94498 1.2301e-17)
(-8.71466 1.34377 -3.51243e-19)
)
;

boundaryField
{
    right
    {
        type            cyclic;
    }
    left
    {
        type            cyclic;
    }
    outerWall
    {
        type            calculated;
        value           nonuniform List<vector> 
22
(
(-1.55201 41.8305 0)
(-4.64749 41.6006 0)
(-7.71741 41.1419 0)
(-10.7449 40.4569 0)
(-13.7132 39.5492 0)
(-16.6061 38.424 0)
(-19.4075 37.0874 0)
(-22.1022 35.5467 0)
(-24.6752 33.8104 0)
(-27.1124 31.8882 0)
(-28.9573 30.2506 0)
(-30.2506 28.9573 0)
(-31.8882 27.1124 0)
(-33.8104 24.6752 0)
(-35.5467 22.1022 0)
(-37.0874 19.4075 0)
(-38.424 16.6061 0)
(-39.5492 13.7132 0)
(-40.4569 10.7449 0)
(-41.1419 7.71741 0)
(-41.6006 4.64749 0)
(-41.8305 1.55201 0)
)
;
    }
    stirrerWall
    {
        type            calculated;
        value           nonuniform List<vector> 
42
(
(-0.310178 8.3662 0)
(-0.928834 8.32046 0)
(-1.54239 8.22894 0)
(-2.14746 8.09214 0)
(-2.74072 7.91082 0)
(-3.31888 7.68598 0)
(-3.87877 7.41885 0)
(-4.41729 7.11092 0)
(-4.93148 6.76387 0)
(-5.4185 6.37963 0)
(-6.07951 6.64185 0)
(-6.92878 7.56862 0)
(-7.77806 8.49539 0)
(-8.62734 9.42216 0)
(-9.47661 10.3489 0)
(-10.3259 11.2757 0)
(-11.1752 12.2025 0)
(-12.0244 13.1292 0)
(-12.8737 14.056 0)
(-13.723 14.9828 0)
(-14.4723 15.1215 0)
(-15.1215 14.4723 0)
(-14.9828 13.723 0)
(-14.056 12.8737 0)
(-13.1292 12.0244 0)
(-12.2025 11.1752 0)
(-11.2757 10.3259 0)
(-10.3489 9.47661 0)
(-9.42216 8.62734 0)
(-8.49539 7.77806 0)
(-7.56862 6.92878 0)
(-6.64185 6.07951 0)
(-6.37963 5.4185 0)
(-6.76387 4.93148 0)
(-7.11092 4.41729 0)
(-7.41885 3.87877 0)
(-7.68598 3.31888 0)
(-7.91082 2.74072 0)
(-8.09214 2.14746 0)
(-8.22894 1.54239 0)
(-8.32046 0.928834 0)
(-8.3662 0.310178 0)
)
;
    }
    top
    {
        type            empty;
    }
    bottom
    {
        type            empty;
    }
}


// ************************************************************************* //
