/*--------------------------------*- C++ -*----------------------------------*\
  =========                 |
  \\      /  F ield         | OpenFOAM: The Open Source CFD Toolbox
   \\    /   O peration     | Website:  https://openfoam.org
    \\  /    A nd           | Version:  10
     \\/     M anipulation  |
\*---------------------------------------------------------------------------*/
FoamFile
{
    format      ascii;
    class       volVectorField;
    location    "2700";
    object      Urel;
}
// * * * * * * * * * * * * * * * * * * * * * * * * * * * * * * * * * * * * * //

dimensions      [0 1 -1 0 0 0 0];

internalField   nonuniform List<vector> 
420
(
(1.14285 -0.0719372 2.57136e-18)
(0.689972 1.00237 -2.57829e-17)
(0.71177 1.56833 -1.74539e-16)
(0.886464 1.6527 4.95356e-17)
(1.07563 1.48588 -3.79922e-16)
(1.265 1.12333 0)
(1.49775 0.554063 0)
(1.66618 -0.241309 4.34169e-16)
(1.87827 -1.28156 -6.64086e-16)
(2.10079 -2.38579 0)
(1.08251 0.126823 1.42537e-17)
(0.416173 0.917184 -5.33887e-17)
(0.644411 1.39822 5.06784e-16)
(0.879767 1.45541 -8.41954e-16)
(1.09674 1.28476 2.56528e-16)
(1.29088 0.936121 -1.38333e-18)
(1.52137 0.40655 2.30185e-15)
(1.7518 -0.38277 -5.92601e-16)
(1.98281 -1.41707 1.42848e-15)
(2.19489 -2.46913 0)
(1.05309 -0.00657938 -7.52437e-17)
(0.26668 0.74816 -2.47447e-16)
(0.599501 1.21974 5.61859e-16)
(0.866365 1.28967 1.0047e-15)
(1.08624 1.14693 -6.69176e-16)
(1.27184 0.838113 3.24089e-15)
(1.46295 0.34756 1.44322e-15)
(1.65425 -0.420936 4.16939e-15)
(1.79831 -1.46598 -2.01131e-15)
(2.039 -2.49414 -4.66289e-15)
(1.03972 -0.102087 8.61074e-17)
(0.136603 0.524532 2.58888e-16)
(0.471302 0.981088 -6.97621e-16)
(0.725279 1.07475 7.12744e-16)
(0.92943 0.977159 -1.40554e-15)
(1.08884 0.733763 1.57746e-15)
(1.2679 0.312017 -8.3462e-15)
(1.45561 -0.4011 0)
(1.51503 -1.4518 -4.81125e-15)
(1.80237 -2.52832 4.3525e-15)
(1.02946 -0.154064 0)
(0.0267169 0.30801 2.82667e-16)
(0.326297 0.727093 -2.65006e-16)
(0.553814 0.840458 0)
(0.74086 0.794954 -2.9819e-16)
(0.88599 0.626319 -2.81154e-16)
(1.05247 0.286489 2.92075e-15)
(1.24931 -0.326924 -3.87902e-15)
(1.28728 -1.35625 0)
(1.56014 -2.51712 -1.74527e-14)
(1.01007 -0.15901 -2.11823e-17)
(-0.0904907 0.116512 0)
(0.173952 0.471859 0)
(0.37415 0.591881 1.33781e-15)
(0.545629 0.593554 -2.14957e-15)
(0.683026 0.499703 2.40757e-15)
(0.841049 0.256321 6.69926e-16)
(1.04408 -0.248483 8.76098e-15)
(1.12545 -1.17834 -1.35291e-14)
(1.33721 -2.37661 8.40596e-15)
(0.961466 -0.113536 0)
(-0.228162 -0.044904 -3.39357e-16)
(0.01146 0.221156 -2.11919e-15)
(0.184298 0.329441 -8.50208e-16)
(0.336817 0.362545 -3.9204e-15)
(0.465114 0.330611 2.49887e-15)
(0.611508 0.187931 -6.14266e-15)
(0.791829 -0.207334 7.51102e-16)
(0.892231 -0.973413 -3.9413e-15)
(1.09162 -2.12322 -1.25425e-14)
(0.849619 -0.0174996 3.02824e-17)
(-0.382277 -0.169712 3.62455e-16)
(-0.165095 -0.00822299 2.91421e-15)
(-0.030302 0.0671422 6.17703e-16)
(0.0843966 0.101436 2.42642e-15)
(0.185222 0.098347 0)
(0.298073 0.0296139 6.49061e-15)
(0.419699 -0.22631 7.95279e-15)
(0.46949 -0.820936 1.01092e-14)
(0.612241 -1.91255 9.22434e-15)
(0.642183 0.109663 2.84671e-17)
(-0.520832 -0.234999 3.76414e-16)
(-0.347249 -0.165364 -3.96416e-16)
(-0.291308 -0.141756 -2.03387e-15)
(-0.263005 -0.141292 6.54824e-15)
(-0.242544 -0.156951 9.13685e-15)
(-0.20959 -0.186104 -3.18811e-15)
(-0.182409 -0.298039 0)
(-0.188596 -0.702328 0)
(-0.0412731 -1.71995 -9.95529e-15)
(0.332932 0.170992 -1.09242e-16)
(-0.262736 -0.0953373 6.50836e-16)
(-0.0369536 -0.0423903 0)
(0.0535438 -0.00660725 0)
(0.11302 -0.00949253 -3.32242e-15)
(0.166229 -0.0478838 -2.95307e-17)
(0.21509 -0.122552 5.8432e-15)
(0.252025 -0.237676 -1.27006e-14)
(0.245991 -0.454471 1.5255e-14)
(0.275548 -1.27353 1.22554e-15)
(2.19989 -3.87149 0)
(2.33287 -5.84405 0)
(2.60326 -8.22195 0)
(3.03656 -10.7939 -9.34121e-16)
(3.5097 -13.4434 0)
(3.99629 -16.3803 0)
(5.17337 -19.7887 9.33008e-16)
(8.4284 -22.4077 0)
(-4.57767 -27.3973 0)
(10.052 -51.7934 0)
(2.2941 -3.93984 1.93581e-15)
(2.49646 -5.95345 3.08224e-15)
(2.89428 -8.41551 1.15525e-16)
(3.45352 -11.056 9.41281e-16)
(4.00539 -13.7628 2.54493e-17)
(4.49197 -16.7588 1.18427e-15)
(5.47509 -20.0975 1.41463e-16)
(9.37962 -21.8296 -2.61591e-16)
(-2.11056 -24.5024 -1.42576e-15)
(14.5187 -50.6841 -3.71819e-16)
(2.22743 -3.9563 1.68074e-15)
(2.56634 -6.01103 0)
(3.13841 -8.53651 -2.29764e-15)
(3.85113 -11.2085 -1.88565e-15)
(4.52146 -13.9313 5.70213e-15)
(5.08874 -16.9553 -1.10783e-15)
(5.99091 -20.3964 2.02453e-15)
(10.27 -21.9493 0)
(0.357431 -22.62 2.34466e-15)
(17.0881 -48.4913 -1.00525e-16)
(2.10263 -3.99216 3.65838e-15)
(2.58986 -6.08386 8.6979e-15)
(3.35113 -8.6326 -8.80202e-15)
(4.22051 -11.2811 3.43464e-15)
(5.02563 -13.9677 1.29407e-16)
(5.74148 -16.9764 0)
(6.68307 -20.5523 -1.94475e-15)
(10.9525 -22.1012 -4.16796e-15)
(2.62835 -21.7914 -2.46886e-15)
(18.7994 -45.7577 2.13324e-15)
(1.95883 -4.02192 3.22885e-15)
(2.61764 -6.14748 -2.77049e-15)
(3.5913 -8.67033 8.96616e-15)
(4.61847 -11.2471 -3.522e-15)
(5.56185 -13.8636 3.05371e-15)
(6.44022 -16.8248 -4.75205e-15)
(7.59633 -20.4138 4.5583e-15)
(11.1559 -22.0249 4.49008e-15)
(4.34715 -22.1118 0)
(21.2384 -42.7984 -4.54026e-15)
(1.82102 -3.9946 3.91104e-15)
(2.70565 -6.19377 -1.65725e-14)
(3.89614 -8.64726 -4.66142e-15)
(5.06036 -11.1165 1.08928e-14)
(6.14441 -13.6446 9.39039e-15)
(7.19287 -16.5324 4.10578e-16)
(8.64584 -20.0139 2.48557e-16)
(11.8762 -21.5994 -4.10395e-15)
(5.77739 -23.0318 -3.00418e-15)
(23.8384 -39.8675 5.82418e-15)
(1.68181 -3.91446 3.90338e-15)
(2.85115 -6.22777 5.6812e-15)
(4.22437 -8.56712 0)
(5.48321 -10.9111 -3.55059e-15)
(6.69796 -13.3466 -5.74174e-15)
(7.914 -16.1515 4.33086e-16)
(9.66691 -19.4846 -1.29948e-14)
(12.7609 -20.9503 -4.31774e-15)
(6.95819 -23.6253 6.70152e-15)
(26.6791 -37.5903 -3.08673e-15)
(1.46009 -3.91558 1.4645e-14)
(3.01652 -6.29768 -5.1365e-15)
(4.56042 -8.42365 0)
(5.88392 -10.623 -3.10337e-16)
(7.23628 -12.9631 2.40064e-14)
(8.64669 -15.6822 -9.94741e-15)
(10.7098 -18.871 -9.37492e-15)
(13.7511 -20.2066 8.05982e-15)
(8.68716 -23.8275 -6.51154e-15)
(29.6587 -35.4003 0)
(1.44863 -4.23086 3.64965e-16)
(3.267 -6.33645 -5.06504e-15)
(4.83793 -8.19348 0)
(6.19801 -10.2565 7.29434e-15)
(7.67059 -12.5159 -1.77704e-14)
(9.26188 -15.15 1.01169e-14)
(11.5715 -18.2093 4.4229e-15)
(14.5405 -19.4933 0)
(10.639 -23.6842 3.34117e-16)
(32.681 -32.9752 3.50481e-15)
(2.3364 -4.00041 4.59641e-16)
(3.65965 -5.97316 -9.37592e-17)
(5.06579 -7.62185 0)
(6.47029 -9.63787 -1.48028e-14)
(8.0785 -11.8371 5.70559e-15)
(9.84698 -14.3757 -5.56454e-15)
(12.3762 -17.3402 4.9384e-15)
(15.7603 -18.7543 4.33789e-17)
(12.6125 -23.3562 -1.6818e-16)
(35.6359 -30.2683 -3.51267e-15)
(3.72525 -2.7621 2.88195e-15)
(4.27472 -5.25766 -5.4735e-15)
(5.63137 -6.96321 0)
(7.2109 -8.91665 0)
(8.99762 -11.0462 0)
(10.9547 -13.5222 -2.54296e-15)
(13.7064 -16.412 1.04922e-14)
(16.8895 -18.1352 0)
(14.8199 -24.0127 0)
(37.893 -27.491 0)
(3.54446 -2.66966 -2.78384e-15)
(4.29534 -4.86314 -5.12832e-15)
(5.73855 -6.53828 0)
(7.44924 -8.4199 3.61973e-15)
(9.36133 -10.4625 -2.79562e-15)
(11.4304 -12.8763 2.40696e-15)
(14.2832 -15.7114 3.60187e-15)
(17.481 -17.3295 1.02443e-16)
(16.5118 -23.9648 1.28506e-15)
(39.3184 -26.1216 0)
(2.42053 -2.91373 1.54295e-16)
(4.0038 -4.6039 1.7162e-16)
(5.60612 -6.22547 0)
(7.44248 -7.99832 3.06844e-16)
(9.48601 -9.87906 5.49979e-15)
(11.6965 -12.1006 -4.06523e-15)
(14.6928 -14.7392 -1.07842e-14)
(17.9929 -16.3706 -5.29447e-15)
(18.2076 -22.5311 7.78913e-15)
(40.7997 -24.1325 2.96345e-15)
(2.09835 -3.24494 -1.27506e-14)
(3.89609 -4.50558 4.90323e-15)
(5.6842 -5.99731 0)
(7.68619 -7.62197 -6.25038e-15)
(9.87776 -9.36902 -5.24109e-15)
(12.2919 -11.4116 8.0744e-15)
(15.5145 -13.8792 2.92144e-15)
(19.0006 -15.991 0)
(21.1542 -21.5445 -4.5913e-15)
(43.0343 -21.1493 -4.36796e-16)
(2.28305 -3.09548 -2.8454e-16)
(4.02322 -4.17117 4.53599e-15)
(5.88879 -5.44675 0)
(7.99394 -6.87164 1.20938e-14)
(10.2918 -8.42975 1.03605e-16)
(12.8547 -10.2754 -1.40818e-16)
(16.2185 -12.5392 4.65864e-15)
(19.9721 -15.0562 -4.23587e-15)
(23.8756 -20.6237 -2.61522e-15)
(44.9805 -17.4931 0)
(2.50328 -2.79181 -2.70249e-15)
(4.20607 -3.70846 8.72356e-15)
(6.13589 -4.80184 7.19644e-15)
(8.31676 -6.03072 -8.24709e-15)
(10.6842 -7.3977 -1.31526e-14)
(13.3457 -9.02843 2.25747e-16)
(16.7551 -11.103 -2.19305e-15)
(20.8103 -13.9257 -1.29317e-15)
(26.6473 -19.3885 -2.3877e-15)
(46.6175 -14.2372 -2.77728e-15)
(2.72712 -2.3303 -7.85218e-15)
(4.42404 -3.1255 4.15475e-15)
(6.39678 -4.05117 -3.25683e-15)
(8.61967 -5.08541 -7.98436e-15)
(11.0242 -6.25586 6.42625e-15)
(13.7369 -7.63239 3.22854e-16)
(17.1202 -9.48091 4.38008e-15)
(21.4918 -12.5522 1.12177e-15)
(29.4713 -17.7682 1.10132e-15)
(47.9903 -11.0661 8.18449e-16)
(2.93842 -1.72833 2.33285e-15)
(4.6391 -2.40435 -2.14179e-15)
(6.64115 -3.16598 -3.67805e-17)
(8.88682 -4.00267 7.92291e-15)
(11.3132 -4.96654 -1.0011e-14)
(14.0461 -6.054 3.03011e-15)
(17.3616 -7.61367 -1.37455e-15)
(22.048 -10.8498 2.61744e-15)
(32.3194 -15.6997 0)
(49.1737 -8.04778 1.03913e-16)
(3.10299 -1.03098 2.69792e-15)
(4.81068 -1.56791 2.19748e-15)
(6.84117 -2.15492 3.54043e-15)
(9.10112 -2.77602 -5.35525e-15)
(11.5373 -3.50465 2.02467e-15)
(14.2655 -4.28152 0)
(17.4843 -5.44349 -8.7191e-16)
(22.4691 -8.66749 -6.10641e-16)
(34.3153 -13.3279 5.23574e-16)
(50.3354 -4.5414 1.58909e-15)
(3.26479 -0.281082 1.32224e-15)
(5.00598 -0.66335 0)
(7.09406 -1.06866 1.87522e-15)
(9.39255 -1.46099 1.4259e-15)
(11.8475 -1.93227 -4.15238e-17)
(14.5769 -2.38065 -7.78541e-16)
(17.7391 -3.13075 8.72549e-16)
(22.7159 -5.99991 0)
(35.2976 -10.7677 -4.7001e-16)
(51.1581 0.26212 1.2982e-15)
(3.32826 0.43565 1.64155e-15)
(5.09801 0.299418 -2.69444e-15)
(7.2029 0.190652 -8.78282e-17)
(9.47944 0.155382 7.62507e-16)
(11.879 0.088377 3.14359e-17)
(14.5356 0.00515869 9.03461e-16)
(17.6395 0.058231 -6.92027e-16)
(23.2363 -1.73327 6.93747e-16)
(37.1205 -7.33699 -1.86028e-16)
(52.4373 5.42962 -5.74541e-16)
(3.63205 1.65384 2.90783e-29)
(5.56111 1.80092 0)
(7.85455 2.04414 0)
(10.328 2.44857 -9.34297e-16)
(12.8636 2.9038 0)
(15.6424 3.46938 0)
(18.8606 4.55671 6.6563e-16)
(22.6724 6.07572 0)
(30.815 -5.50467 0)
(51.499 4.31649 -1.88239e-30)
(0.49646 -1.56884 8.67457e-16)
(0.509032 -2.13181 -7.37631e-15)
(0.950981 -2.43581 6.63495e-15)
(1.25044 -2.24344 -8.70561e-15)
(1.4945 -1.86701 5.66105e-15)
(1.67583 -1.33438 -1.18522e-14)
(1.80445 -0.704878 3.06846e-15)
(1.90771 -0.00533456 -3.58668e-15)
(1.92802 0.636837 0)
(2.16809 1.57597 -5.60475e-16)
(-0.9614 -1.22389 1.47321e-14)
(-0.843509 -1.72499 0)
(-0.272007 -2.0392 7.0041e-15)
(0.10892 -1.79047 -2.67047e-15)
(0.399856 -1.41711 -8.88018e-15)
(0.576945 -0.924726 0)
(0.690899 -0.359551 -3.555e-15)
(0.771275 0.251055 -1.7672e-15)
(0.828894 0.789291 1.33199e-15)
(1.02734 1.43954 -5.98631e-16)
(-1.52923 -1.05545 -1.21289e-14)
(-1.75372 -1.66595 0)
(-1.30864 -1.8244 6.45495e-15)
(-0.93108 -1.48936 5.17234e-16)
(-0.634105 -1.06194 7.58907e-15)
(-0.45512 -0.567404 -3.64409e-15)
(-0.33495 -0.0582842 0)
(-0.228748 0.454503 4.95471e-15)
(-0.132447 0.882189 -8.1583e-16)
(0.00887508 1.35826 5.70563e-16)
(-1.39196 -0.880123 5.54966e-15)
(-2.0999 -1.52018 -2.07698e-15)
(-1.94685 -1.55943 4.87908e-15)
(-1.66041 -1.17047 -5.07309e-15)
(-1.37555 -0.672855 5.81204e-16)
(-1.17282 -0.167365 2.93336e-15)
(-1.07397 0.262791 -8.94618e-15)
(-1.00429 0.673394 1.60226e-15)
(-0.941505 1.02649 2.66477e-15)
(-0.788428 1.32068 7.69211e-17)
(-1.01347 -0.658985 -8.21047e-15)
(-1.95482 -1.30191 5.71834e-15)
(-2.20591 -1.27185 0)
(-2.16211 -0.917403 1.84859e-15)
(-2.01794 -0.463088 1.93256e-15)
(-1.84407 -0.0149859 -2.99207e-16)
(-1.70374 0.400356 1.47275e-15)
(-1.59599 0.733652 3.38475e-15)
(-1.49815 0.997297 6.96388e-18)
(-1.3452 1.17309 3.03465e-16)
(-0.672697 -0.443444 -3.25957e-15)
(-1.57667 -1.00863 3.73634e-15)
(-2.01952 -0.950589 1.62784e-15)
(-2.18852 -0.66922 -2.52197e-15)
(-2.23147 -0.300693 -1.58429e-15)
(-2.16008 0.0707531 -2.47295e-16)
(-2.06127 0.411123 -2.64892e-15)
(-1.95288 0.67492 8.94342e-16)
(-1.83609 0.873626 2.60085e-16)
(-1.68035 1.00196 -3.00482e-16)
(-0.402792 -0.24164 0)
(-1.10294 -0.680815 -1.19817e-15)
(-1.5981 -0.597912 5.33091e-16)
(-1.89489 -0.385699 -5.60592e-16)
(-2.06682 -0.118111 8.21816e-16)
(-2.12216 0.153757 0)
(-2.10747 0.407088 5.8131e-16)
(-2.03781 0.610446 9.24076e-16)
(-1.95108 0.75548 -8.11304e-16)
(-1.81624 0.841595 -2.99576e-17)
(-0.190656 -0.0653685 0)
(-0.665645 -0.344014 -6.7526e-17)
(-1.10413 -0.228815 1.39684e-15)
(-1.43089 -0.0827509 -9.83142e-16)
(-1.67238 0.0815596 0)
(-1.8093 0.248687 -9.1295e-17)
(-1.8613 0.407087 -4.59156e-16)
(-1.84983 0.539017 3.91201e-16)
(-1.79591 0.632413 4.29086e-16)
(-1.69128 0.689327 -1.833e-16)
(-0.0120823 0.0295673 -7.55069e-16)
(-0.285841 -0.0981435 6.89087e-17)
(-0.61275 0.00861475 7.52875e-17)
(-0.900502 0.0676394 -8.12825e-17)
(-1.11961 0.13139 0)
(-1.25392 0.200084 9.80282e-17)
(-1.30793 0.270344 1.79052e-17)
(-1.29301 0.33974 2.76279e-17)
(-1.22344 0.408712 -2.42907e-17)
(-1.10588 0.483812 -1.6719e-18)
(0.483917 0.427618 -1.52018e-16)
(0.677707 0.702349 -5.25348e-17)
(0.593622 0.766298 -6.54256e-17)
(0.475482 0.758603 0)
(0.345803 0.766864 3.92246e-17)
(0.235653 0.799747 0)
(0.162546 0.847884 1.92494e-16)
(0.13841 0.900399 -1.32823e-16)
(0.170752 0.944803 1.2301e-17)
(0.29359 1.00977 -3.51243e-19)
)
;

boundaryField
{
    right
    {
        type            cyclic;
    }
    left
    {
        type            cyclic;
    }
    outerWall
    {
        type            noSlip;
    }
    stirrerWall
    {
        type            noSlip;
    }
    top
    {
        type            empty;
    }
    bottom
    {
        type            empty;
    }
}


// ************************************************************************* //
