/*--------------------------------*- C++ -*----------------------------------*\
  =========                 |
  \\      /  F ield         | OpenFOAM: The Open Source CFD Toolbox
   \\    /   O peration     | Website:  https://openfoam.org
    \\  /    A nd           | Version:  10
     \\/     M anipulation  |
\*---------------------------------------------------------------------------*/
FoamFile
{
    format      ascii;
    class       volVectorField;
    location    "2000";
    object      Urel;
}
// * * * * * * * * * * * * * * * * * * * * * * * * * * * * * * * * * * * * * //

dimensions      [0 1 -1 0 0 0 0];

internalField   nonuniform List<vector> 
17981
(
(-0.0170749 0.00439854 1.59355e-20)
(-0.017228 0.00442167 -1.52763e-20)
(-0.0171129 0.00439513 0)
(-0.0170071 0.00433829 -9.52713e-20)
(-0.0169067 0.00425506 2.08849e-19)
(-0.0168103 0.00414741 -1.12878e-19)
(-0.016716 0.00401776 0)
(-0.0166232 0.00386929 9.97865e-21)
(-0.0165317 0.0037055 0)
(-0.0164418 0.00352977 0)
(-0.0163536 0.00334501 -1.24319e-20)
(-0.0162673 0.00315365 2.30011e-19)
(-0.0161829 0.00295763 -2.09866e-19)
(-0.0161006 0.00275852 0)
(-0.0160206 0.0025576 0)
(-0.0159429 0.00235595 0)
(-0.0158676 0.00215445 0)
(-0.0157948 0.00195389 -2.5244e-19)
(-0.0157245 0.00175493 2.44241e-19)
(-0.0156568 0.00155816 5.1456e-19)
(-0.0155916 0.00136409 -4.89878e-19)
(-0.0155288 0.00117317 -7.97413e-21)
(-0.0154686 0.000985802 0)
(-0.0154109 0.000802326 0)
(-0.0153556 0.000623052 5.1716e-19)
(-0.0153027 0.000448251 -4.92285e-19)
(-0.0152521 0.000278163 5.11533e-19)
(-0.0152038 0.000113003 -4.9473e-19)
(-0.0151577 -4.704e-05 -7.77328e-21)
(-0.0151137 -0.000201795 0)
(-0.0150719 -0.000351107 3.80704e-21)
(-0.015032 -0.000494837 -3.76129e-21)
(-0.0149941 -0.000632857 -3.71219e-21)
(-0.014958 -0.000765051 4.68897e-19)
(-0.0149238 -0.000891308 -4.53253e-19)
(-0.0148913 -0.00101152 -3.54852e-21)
(-0.0148605 -0.00112559 0)
(-0.0148313 -0.00123341 0)
(-0.0148036 -0.00133489 3.36698e-21)
(-0.0147774 -0.00142993 -4.28956e-19)
(-0.0147526 -0.00151844 -2.6265e-21)
(-0.0147292 -0.00160033 4.00108e-19)
(-0.0147071 -0.00167548 1.55467e-21)
(-0.0146862 -0.00174382 0)
(-0.0146666 -0.00180524 0)
(-0.0146481 -0.00185967 0)
(-0.0146307 -0.001907 0)
(-0.0146145 -0.00194714 -3.6119e-19)
(-0.0195572 0.00368508 -5.65309e-20)
(-0.0194219 0.00369001 0)
(-0.0192741 0.00365708 -2.74504e-19)
(-0.0191231 0.00359341 6.64582e-19)
(-0.0189714 0.00350232 -3.72268e-19)
(-0.0188204 0.00338769 5.50014e-19)
(-0.0186714 0.00325339 -5.32271e-19)
(-0.0185254 0.00310317 1.01473e-20)
(-0.0183832 0.00294042 2.20112e-20)
(-0.0182454 0.00276811 -7.92671e-19)
(-0.0181125 0.00258873 1.59269e-18)
(-0.0179847 0.00240433 -8.244e-19)
(-0.0178621 0.0022166 0)
(-0.0177447 0.0020269 2.85982e-20)
(-0.0176326 0.00183641 -9.68941e-19)
(-0.0175258 0.00164607 9.3801e-19)
(-0.017424 0.0014567 1.00909e-18)
(-0.0173272 0.00126899 -9.76769e-19)
(-0.0172353 0.00108353 1.58552e-20)
(-0.0171482 0.000900835 0)
(-0.0170657 0.000721337 -8.03692e-21)
(-0.0169876 0.000545412 1.06123e-18)
(-0.0169138 0.000373384 -1.00283e-18)
(-0.0168441 0.000205532 1.06928e-18)
(-0.0167784 4.20984e-05 -2.06879e-18)
(-0.0167164 -0.000116704 1.00771e-18)
(-0.0166581 -0.000270694 -1.0387e-18)
(-0.0166033 -0.000419713 1.00467e-18)
(-0.0165518 -0.000563618 7.87659e-21)
(-0.0165034 -0.000702282 0)
(-0.0164581 -0.000835588 3.87335e-21)
(-0.0164156 -0.000963434 3.81157e-21)
(-0.0163759 -0.00108572 -9.69819e-19)
(-0.0163387 -0.00120236 9.44979e-19)
(-0.016304 -0.00131325 -1.09741e-20)
(-0.0162717 -0.00141833 9.32952e-19)
(-0.0162415 -0.0015175 -8.98355e-19)
(-0.0162135 -0.00161068 0)
(-0.0161875 -0.0016978 8.77265e-19)
(-0.0161633 -0.00177876 -1.7049e-18)
(-0.016141 -0.00185348 8.2494e-19)
(-0.0161203 -0.00192187 -8.26178e-19)
(-0.0161013 -0.00198386 -1.52411e-20)
(-0.0160838 -0.00203935 7.81521e-19)
(-0.0160678 -0.00208824 0)
(-0.0160531 -0.00213046 0)
(-0.0160398 -0.00216592 2.88457e-21)
(-0.0160279 -0.00219452 -1.42678e-21)
(-0.0210905 0.00290678 0)
(-0.0208965 0.00285214 1.91437e-19)
(-0.0207007 0.00277744 -2.00315e-19)
(-0.0205062 0.00268498 3.94907e-19)
(-0.0203145 0.00257624 -4.09756e-19)
(-0.0201272 0.00245369 -3.23855e-20)
(-0.0199453 0.00231913 0)
(-0.0197697 0.00217461 -2.05026e-20)
(-0.019601 0.00202205 -6.75105e-20)
(-0.0194395 0.00186322 0)
(-0.0192855 0.00169967 2.56395e-20)
(-0.0191388 0.00153276 5.42281e-20)
(-0.0189994 0.00136369 0)
(-0.0188672 0.00119348 1.18009e-22)
(-0.018742 0.00102303 3.02123e-20)
(-0.0186236 0.000853113 0)
(-0.0185118 0.000684407 2.0701e-18)
(-0.0184063 0.000517493 -1.9722e-18)
(-0.0183068 0.000352876 -2.14071e-18)
(-0.0182131 0.000190991 2.05655e-18)
(-0.018125 3.22128e-05 -3.30771e-20)
(-0.0180422 -0.000123133 0)
(-0.0179644 -0.000274763 1.66856e-20)
(-0.0178914 -0.000422432 -1.65979e-20)
(-0.017823 -0.000565927 1.66048e-20)
(-0.017759 -0.000705066 -2.12819e-18)
(-0.0176991 -0.000839684 2.07465e-18)
(-0.0176431 -0.000969635 -1.6333e-20)
(-0.0175908 -0.00109479 0)
(-0.0175421 -0.00121503 2.05804e-18)
(-0.0174967 -0.00133026 5.2586e-20)
(-0.0174544 -0.00144037 -1.9979e-18)
(-0.0174152 -0.00154527 0)
(-0.0173788 -0.00164487 0)
(-0.0173451 -0.00173908 -1.94441e-18)
(-0.0173139 -0.00182783 1.88694e-18)
(-0.0172851 -0.00191103 -7.26035e-21)
(-0.0172587 -0.00198859 0)
(-0.0172344 -0.00206043 7.00154e-21)
(-0.0172121 -0.00212647 -6.85597e-21)
(-0.0171918 -0.00218661 -1.73421e-18)
(-0.0171734 -0.00224077 1.6756e-18)
(-0.0171566 -0.00228886 3.22332e-21)
(-0.0171416 -0.00233079 -3.16468e-21)
(-0.0171281 -0.00236645 -6.1794e-21)
(-0.0171161 -0.00239578 0)
(-0.0171056 -0.00241866 -2.94556e-21)
(-0.0170966 -0.00243504 -1.50304e-18)
(-0.021013 0.0015898 -2.85856e-20)
(-0.0208087 0.00147409 3.3241e-20)
(-0.0206135 0.00134944 1.31596e-18)
(-0.0204262 0.00121831 -2.72667e-18)
(-0.0202469 0.00108187 1.45291e-18)
(-0.0200759 0.000941264 -5.02056e-20)
(-0.0199131 0.000797576 1.7234e-18)
(-0.0197585 0.000651821 -1.7779e-18)
(-0.019612 0.000504912 0)
(-0.0194734 0.000357661 -3.02335e-20)
(-0.0193425 0.000210778 2.02578e-18)
(-0.019219 6.48818e-05 -1.99251e-18)
(-0.0191027 -7.949e-05 -2.07757e-18)
(-0.0189934 -0.000221876 -1.65744e-19)
(-0.0188906 -0.000361876 2.10562e-18)
(-0.0187942 -0.000499143 -2.21774e-18)
(-0.0187039 -0.000633376 2.14667e-18)
(-0.0186194 -0.000764318 0)
(-0.0185404 -0.000891746 2.20493e-18)
(-0.0184667 -0.00101547 -4.40355e-18)
(-0.0183979 -0.00113532 2.11255e-18)
(-0.0183338 -0.00125114 2.20236e-18)
(-0.0182743 -0.00136281 -2.11278e-18)
(-0.018219 -0.00147021 -1.69364e-20)
(-0.0181677 -0.00157323 -2.16796e-18)
(-0.0181202 -0.00167177 -1.57906e-20)
(-0.0180763 -0.00176574 -7.88361e-20)
(-0.0180359 -0.00185504 2.08205e-18)
(-0.0179986 -0.00193958 2.06413e-18)
(-0.0179644 -0.00201929 -4.02875e-18)
(-0.0179331 -0.00209409 1.98097e-18)
(-0.0179044 -0.0021639 -1.96844e-18)
(-0.0178784 -0.00222863 1.90973e-18)
(-0.0178547 -0.00228821 -1.89913e-18)
(-0.0178334 -0.00234255 -4.99902e-20)
(-0.0178142 -0.00239158 1.80017e-18)
(-0.0177971 -0.0024352 2.08344e-20)
(-0.0177819 -0.00247333 -1.74572e-18)
(-0.0177686 -0.00250587 1.68616e-18)
(-0.0177569 -0.00253274 6.50558e-21)
(-0.017747 -0.00255384 6.36055e-21)
(-0.0177386 -0.00256907 1.59542e-18)
(-0.0177317 -0.00257836 -1.54668e-18)
(-0.0177264 -0.00258161 0)
(-0.0212755 0.000597159 -7.75016e-19)
(-0.0210637 0.000494491 -7.01133e-20)
(-0.0208613 0.000385842 0)
(-0.0206684 0.00027308 1.51285e-18)
(-0.0204847 0.000157027 -1.46752e-18)
(-0.0203103 3.84748e-05 1.04412e-19)
(-0.020145 -8.18062e-05 1.10963e-19)
(-0.0199887 -0.000203096 0)
(-0.0198411 -0.000324741 0)
(-0.0197019 -0.000446154 -6.32922e-20)
(-0.0195709 -0.000566816 0)
(-0.0194478 -0.000686273 0)
(-0.0193322 -0.000804125 -6.79819e-20)
(-0.0192239 -0.000920022 3.45541e-20)
(-0.0191224 -0.00103366 -2.29226e-18)
(-0.0190276 -0.00114477 2.21933e-18)
(-0.018939 -0.00125311 -2.28848e-18)
(-0.0188564 -0.00135846 2.24941e-18)
(-0.0187795 -0.00146065 3.58979e-20)
(-0.018708 -0.00155952 0)
(-0.0186415 -0.00165493 -2.32297e-18)
(-0.0185799 -0.00174676 -1.0023e-19)
(-0.0185228 -0.00183491 -9.62077e-20)
(-0.0184701 -0.00191927 2.2561e-18)
(-0.0184214 -0.00199975 -2.25694e-18)
(-0.0183766 -0.00207625 -6.80478e-20)
(-0.0183354 -0.00214868 2.20978e-18)
(-0.0182976 -0.00221697 -2.19468e-18)
(-0.0182632 -0.00228103 2.10497e-18)
(-0.0182317 -0.0023408 0)
(-0.0182032 -0.0023962 2.08153e-18)
(-0.0181774 -0.00244714 -2.043e-18)
(-0.0181542 -0.00249355 0)
(-0.0181334 -0.00253536 1.53109e-20)
(-0.0181149 -0.00257247 1.49961e-20)
(-0.0180985 -0.00260481 1.47299e-20)
(-0.0180842 -0.00263228 1.84431e-18)
(-0.0180719 -0.00265481 -3.63579e-18)
(-0.0180614 -0.0026723 1.77782e-18)
(-0.0180526 -0.00268466 0)
(-0.0180455 -0.00269181 0)
(-0.0180399 -0.00269364 1.66749e-18)
(-0.0180358 -0.00269008 -1.6036e-18)
(-0.0180333 -0.00268105 0)
(-0.0211987 -0.000345671 -8.78374e-19)
(-0.0209821 -0.000431125 -1.2055e-18)
(-0.0207774 -0.000520396 2.6816e-18)
(-0.0205829 -0.000612344 -1.39814e-18)
(-0.0203983 -0.000706312 -1.71865e-18)
(-0.0202235 -0.00080168 1.61294e-18)
(-0.0200582 -0.000897859 -5.80344e-20)
(-0.0199022 -0.000994305 0)
(-0.0197551 -0.00109053 -2.11602e-18)
(-0.0196168 -0.0011861 4.30405e-18)
(-0.0194869 -0.00128063 1.27952e-19)
(-0.019365 -0.00137377 -2.17758e-18)
(-0.0192508 -0.00146525 -7.1482e-20)
(-0.019144 -0.00155479 -2.37518e-18)
(-0.0190442 -0.00164217 2.30014e-18)
(-0.0189511 -0.00172718 -2.4216e-18)
(-0.0188644 -0.00180963 -9.05942e-20)
(-0.0187837 -0.0018894 2.35661e-18)
(-0.0187088 -0.00196634 -1.12709e-19)
(-0.0186393 -0.00204035 0)
(-0.0185749 -0.00211132 -8.77199e-23)
(-0.0185154 -0.00217916 3.72483e-20)
(-0.0184604 -0.00224377 2.40436e-18)
(-0.0184098 -0.00230506 5.98584e-20)
(-0.0183633 -0.00236296 -4.6679e-18)
(-0.0183207 -0.00241738 2.24741e-18)
(-0.0182817 -0.00246828 -7.13613e-20)
(-0.0182462 -0.00251557 0)
(-0.0182139 -0.00255918 -4.49188e-18)
(-0.0181847 -0.00259906 4.34047e-18)
(-0.0181584 -0.00263513 0)
(-0.0181348 -0.00266732 1.65541e-20)
(-0.0181137 -0.00269556 4.2024e-18)
(-0.0180951 -0.00271977 -4.07508e-18)
(-0.0180788 -0.00273989 0)
(-0.0180646 -0.00275582 -1.53565e-20)
(-0.0180525 -0.0027675 1.50687e-20)
(-0.0180423 -0.00277483 1.47263e-20)
(-0.0180339 -0.00277774 -3.72959e-18)
(-0.0180272 -0.00277615 3.58659e-18)
(-0.0180222 -0.00276997 -1.3787e-20)
(-0.0180186 -0.00275912 -3.47747e-18)
(-0.0180166 -0.00274351 3.34332e-18)
(-0.0180161 -0.0027231 0)
(-0.0206546 -0.00131279 -7.77451e-20)
(-0.0204468 -0.00138011 -8.87032e-20)
(-0.0202518 -0.00144999 0)
(-0.0200674 -0.00152041 -1.07595e-19)
(-0.0198932 -0.00159136 -1.15642e-19)
(-0.0197289 -0.00166241 0)
(-0.0195742 -0.00173319 -2.14221e-18)
(-0.0194286 -0.00180339 2.07756e-18)
(-0.019292 -0.00187269 0)
(-0.0191639 -0.00194082 -4.73116e-18)
(-0.0190439 -0.00200756 4.65878e-18)
(-0.0189317 -0.00207268 7.5005e-20)
(-0.0188269 -0.00213602 0)
(-0.0187291 -0.0021974 0)
(-0.018638 -0.00225668 -7.81625e-20)
(-0.0185532 -0.00231376 0)
(-0.0184745 -0.00236854 5.13888e-18)
(-0.0184014 -0.00242092 -1.01152e-17)
(-0.0183338 -0.00247081 1.01098e-17)
(-0.0182712 -0.00251812 -4.9278e-18)
(-0.0182134 -0.00256277 0)
(-0.0181601 -0.00260469 5.01799e-18)
(-0.0181112 -0.00264382 -4.88972e-18)
(-0.0180663 -0.00268007 0)
(-0.0180252 -0.0027134 4.9506e-18)
(-0.0179877 -0.00274373 -9.56381e-18)
(-0.0179535 -0.00277102 4.65293e-18)
(-0.0179226 -0.00279519 -4.71999e-18)
(-0.0178947 -0.00281619 4.5243e-18)
(-0.0178696 -0.00283395 -4.572e-18)
(-0.0178473 -0.00284841 4.41632e-18)
(-0.0178274 -0.00285951 0)
(-0.0178099 -0.00286718 4.29624e-18)
(-0.0177947 -0.00287135 -4.18106e-18)
(-0.0177815 -0.00287196 0)
(-0.0177704 -0.00286893 -4.08807e-18)
(-0.0177612 -0.0028622 3.94667e-18)
(-0.0177537 -0.00285168 -1.51333e-20)
(-0.0177479 -0.0028373 -3.80745e-18)
(-0.0177437 -0.00281899 7.3932e-18)
(-0.017741 -0.00279669 -3.57447e-18)
(-0.0177397 -0.00277031 3.55541e-18)
(-0.01774 -0.00273982 3.70873e-20)
(-0.0197329 -0.00222903 -1.04315e-19)
(-0.0195466 -0.00227527 -6.09543e-22)
(-0.0193726 -0.002322 1.21633e-19)
(-0.0192088 -0.00236828 0)
(-0.0190547 -0.00241392 -4.66311e-18)
(-0.01891 -0.00245875 8.95551e-18)
(-0.0187744 -0.00250259 2.98887e-19)
(-0.0186473 -0.00254527 2.82569e-19)
(-0.0185284 -0.00258665 -5.07769e-18)
(-0.0184173 -0.00262659 -7.94736e-20)
(-0.0183135 -0.00266495 0)
(-0.0182167 -0.00270165 -5.33999e-18)
(-0.0181266 -0.00273657 -1.29964e-19)
(-0.0180428 -0.00276964 5.29487e-18)
(-0.0179649 -0.00280077 0)
(-0.0178926 -0.00282989 -1.89488e-22)
(-0.0178256 -0.00285694 8.35042e-20)
(-0.0177637 -0.00288185 -8.32872e-20)
(-0.0177065 -0.00290457 0)
(-0.0176538 -0.00292505 5.29817e-18)
(-0.0176052 -0.00294322 -5.16269e-18)
(-0.0175607 -0.00295904 0)
(-0.0175199 -0.00297245 4.00923e-20)
(-0.0174827 -0.00298341 5.12234e-18)
(-0.0174488 -0.00299187 -4.87173e-18)
(-0.0174181 -0.00299777 0)
(-0.0173903 -0.00300106 4.90373e-18)
(-0.0173653 -0.00300168 -4.73686e-18)
(-0.0173429 -0.00299959 3.67428e-20)
(-0.017323 -0.00299472 0)
(-0.0173054 -0.00298702 3.53604e-20)
(-0.01729 -0.00297643 0)
(-0.0172767 -0.0029629 -4.38445e-18)
(-0.0172654 -0.00294634 8.52418e-18)
(-0.0172559 -0.00292672 -8.34104e-18)
(-0.0172482 -0.00290396 4.08384e-18)
(-0.017242 -0.00287799 0)
(-0.0172375 -0.00284875 1.51949e-20)
(-0.0172343 -0.00281619 -3.82178e-18)
(-0.0172327 -0.00278024 7.40029e-18)
(-0.0172325 -0.00274088 -3.64766e-18)
(-0.0188837 -0.00299391 -3.93439e-18)
(-0.0187081 -0.00301561 3.80812e-18)
(-0.0185433 -0.00303682 0)
(-0.0183888 -0.00305739 1.44034e-19)
(-0.0182439 -0.00307713 -5.30183e-22)
(-0.0181081 -0.003096 0)
(-0.0179811 -0.00311392 0)
(-0.0178624 -0.00313079 3.29566e-19)
(-0.0177515 -0.00314651 8.39554e-20)
(-0.0176479 -0.003161 8.55563e-20)
(-0.0175513 -0.00317418 0)
(-0.0174614 -0.00318598 -5.7032e-18)
(-0.0173777 -0.00319632 5.43433e-18)
(-0.0172998 -0.00320514 5.75037e-18)
(-0.0172275 -0.00321241 -5.47709e-18)
(-0.0171605 -0.00321806 -8.82874e-20)
(-0.0170984 -0.00322204 8.80633e-20)
(-0.0170409 -0.00322432 0)
(-0.0169878 -0.00322484 8.71451e-20)
(-0.0169389 -0.00322356 5.60985e-18)
(-0.0168938 -0.00322045 -5.42338e-18)
(-0.0168525 -0.00321545 -5.57861e-18)
(-0.0168146 -0.00320854 5.35143e-18)
(-0.0167799 -0.00319966 -8.27853e-20)
(-0.0167483 -0.00318877 0)
(-0.0167196 -0.00317583 8.03893e-20)
(-0.0166937 -0.00316079 5.14758e-18)
(-0.0166703 -0.00314362 -4.97198e-18)
(-0.0166493 -0.00312425 4.92754e-18)
(-0.0166305 -0.00310264 -9.59124e-18)
(-0.016614 -0.00307875 4.66636e-18)
(-0.0165994 -0.00305251 -4.64038e-18)
(-0.0165868 -0.00302389 4.47871e-18)
(-0.0165759 -0.00299282 -1.72243e-20)
(-0.0165667 -0.00295925 2.36649e-23)
(-0.0165592 -0.00292313 1.6478e-20)
(-0.0165531 -0.0028844 0)
(-0.0165484 -0.00284301 -1.5704e-20)
(-0.0165452 -0.00279892 0)
(-0.0165434 -0.00275211 1.51484e-20)
(-0.0177499 -0.00366337 0)
(-0.0175953 -0.00365884 1.53345e-19)
(-0.0174502 -0.00365388 1.59471e-19)
(-0.0173146 -0.0036484 0)
(-0.0171877 -0.00364226 -5.61663e-18)
(-0.0170691 -0.0036356 5.27206e-18)
(-0.0169583 -0.00362826 -1.78675e-19)
(-0.0168547 -0.0036202 -9.05802e-20)
(-0.0167581 -0.00361132 -6.00493e-18)
(-0.016668 -0.00360156 -2.37614e-19)
(-0.016584 -0.00359086 5.95696e-18)
(-0.0165058 -0.00357915 0)
(-0.016433 -0.00356638 -6.11017e-18)
(-0.0163653 -0.00355251 -1.88227e-19)
(-0.0163024 -0.00353748 1.20788e-17)
(-0.0162441 -0.00352126 -5.88299e-18)
(-0.01619 -0.0035038 -6.00935e-18)
(-0.01614 -0.00348506 1.16787e-17)
(-0.0160937 -0.003465 -5.85317e-18)
(-0.0160511 -0.00344358 -4.51936e-20)
(-0.0160118 -0.00342077 -4.45187e-20)
(-0.0159756 -0.00339652 -5.59961e-18)
(-0.0159425 -0.0033708 -1.09674e-19)
(-0.0159121 -0.00334357 5.37189e-18)
(-0.0158845 -0.00331478 -4.1984e-20)
(-0.0158593 -0.0032844 0)
(-0.0158364 -0.00325239 -4.05854e-20)
(-0.0158158 -0.0032187 0)
(-0.0157973 -0.00318329 0)
(-0.0157807 -0.00314612 0)
(-0.015766 -0.00310714 3.74399e-20)
(-0.015753 -0.00306631 0)
(-0.0157417 -0.00302358 -1.78785e-20)
(-0.0157319 -0.0029789 2.24514e-23)
(-0.0157236 -0.00293224 -1.70757e-20)
(-0.0157167 -0.00288355 4.32067e-18)
(-0.0157111 -0.0028328 -4.13461e-18)
(-0.0157069 -0.00277997 4.13258e-18)
(-0.0162973 -0.00414899 5.96018e-18)
(-0.0161787 -0.00412009 -5.59589e-18)
(-0.0160674 -0.00409117 1.89216e-19)
(-0.0159635 -0.00406211 0)
(-0.0158664 -0.00403282 -6.37747e-18)
(-0.0157758 -0.00400319 6.17984e-18)
(-0.0156911 -0.00397316 1.96749e-22)
(-0.0156122 -0.00394265 9.97349e-20)
(-0.0155385 -0.00391161 0)
(-0.0154699 -0.00387996 -9.98947e-20)
(-0.0154059 -0.00384765 -9.94921e-20)
(-0.0153464 -0.00381465 -6.43553e-18)
(-0.0152911 -0.00378091 6.22581e-18)
(-0.0152397 -0.00374638 9.7769e-20)
(-0.0151919 -0.00371102 -1.49286e-22)
(-0.0151476 -0.00367481 6.30786e-18)
(-0.0151066 -0.00363771 -6.00472e-18)
(-0.0150687 -0.00359968 -4.67815e-20)
(-0.0150336 -0.00356068 -4.61923e-20)
(-0.0150013 -0.00352068 0)
(-0.0149716 -0.00347965 5.7775e-18)
(-0.0149442 -0.00343755 -5.57984e-18)
(-0.0149192 -0.00339434 5.57287e-18)
(-0.0148963 -0.00334999 -5.42293e-18)
(-0.0148754 -0.00330447 -5.35727e-18)
(-0.0148564 -0.00325774 5.21144e-18)
(-0.0148392 -0.00320976 -3.98068e-20)
(-0.0148237 -0.0031605 -4.98159e-18)
(-0.0148098 -0.00310991 4.80554e-18)
(-0.0147974 -0.00305796 -4.77303e-18)
(-0.0147864 -0.00300462 4.65789e-18)
(-0.0147767 -0.00294985 4.54437e-18)
(-0.0147684 -0.00289364 -4.41631e-18)
(-0.0147615 -0.00283597 -1.70723e-20)
(-0.0153126 -0.00461689 0)
(-0.0151965 -0.00456663 4.55799e-22)
(-0.0150863 -0.00451698 6.58241e-18)
(-0.0149831 -0.00446802 -6.58968e-18)
(-0.0148864 -0.00441961 0)
(-0.0147958 -0.00437162 -2.09286e-19)
(-0.014711 -0.00432392 1.05604e-19)
(-0.0146317 -0.00427642 6.89153e-18)
(-0.0145575 -0.00422901 2.24556e-19)
(-0.0144882 -0.00418162 -6.57679e-18)
(-0.0144234 -0.00413417 -6.76954e-18)
(-0.0143629 -0.0040866 6.65536e-18)
(-0.0143064 -0.00403883 6.80089e-18)
(-0.0142537 -0.00399083 -6.47584e-18)
(-0.0142045 -0.00394252 6.78788e-18)
(-0.0141587 -0.00389388 -6.56699e-18)
(-0.0141161 -0.00384486 -1.01071e-19)
(-0.0140764 -0.0037954 6.44841e-18)
(-0.0140395 -0.00374547 -1.2441e-17)
(-0.0140052 -0.00369504 -1.65161e-19)
(-0.0139734 -0.00364406 6.04662e-18)
(-0.0139439 -0.0035925 -6.04985e-18)
(-0.0139166 -0.00354032 5.88863e-18)
(-0.0138914 -0.00348748 -5.78133e-18)
(-0.0138681 -0.00343396 1.13356e-17)
(-0.0138467 -0.00337971 -5.51213e-18)
(-0.013827 -0.00332471 0)
(-0.0138089 -0.00326891 -4.15129e-20)
(-0.0137923 -0.0032123 4.05792e-20)
(-0.0137773 -0.00315484 -7.93222e-20)
(-0.0137635 -0.00309649 -5.0048e-18)
(-0.0137511 -0.00303722 4.84547e-18)
(-0.0137399 -0.00297703 3.68331e-20)
(-0.0137301 -0.00291592 0)
(-0.0142958 -0.00506592 -6.28537e-18)
(-0.0141768 -0.00499871 6.60908e-18)
(-0.0140643 -0.00493204 -1.37814e-17)
(-0.0139588 -0.00486614 6.9626e-18)
(-0.01386 -0.00480102 -2.18989e-19)
(-0.0137675 -0.00473663 -6.99732e-18)
(-0.0136808 -0.00467293 6.77785e-18)
(-0.0135998 -0.00460986 7.18497e-18)
(-0.0135239 -0.00454737 -7.18527e-18)
(-0.013453 -0.00448538 7.19552e-18)
(-0.0133866 -0.00442385 -7.19184e-18)
(-0.0133246 -0.00436272 0)
(-0.0132666 -0.00430193 -1.11396e-19)
(-0.0132123 -0.00424142 7.05489e-18)
(-0.0131616 -0.00418115 -1.40358e-17)
(-0.0131142 -0.00412105 6.87068e-18)
(-0.0130699 -0.0040611 -1.31117e-22)
(-0.0130285 -0.00400123 0)
(-0.0129899 -0.00394139 -2.09257e-19)
(-0.0129538 -0.00388156 6.71198e-18)
(-0.0129201 -0.00382168 -1.29899e-17)
(-0.0128886 -0.00376171 6.33172e-18)
(-0.0128593 -0.00370161 0)
(-0.012832 -0.00364135 0)
(-0.0128065 -0.00358089 -6.08409e-18)
(-0.0127829 -0.0035202 1.17869e-17)
(-0.0127608 -0.00345924 -5.75225e-18)
(-0.0127404 -0.00339798 5.70471e-18)
(-0.0127214 -0.00333639 -5.50441e-18)
(-0.0127038 -0.00327443 -4.09997e-23)
(-0.0126875 -0.00321209 -5.31517e-18)
(-0.0126725 -0.00314933 5.08571e-18)
(-0.0126587 -0.00308615 -1.96271e-20)
(-0.0126462 -0.00302257 -4.9958e-18)
(-0.0132907 -0.00552255 2.12371e-19)
(-0.0131522 -0.00543082 0)
(-0.0130247 -0.00534092 2.22475e-19)
(-0.012907 -0.00525309 0)
(-0.012798 -0.00516725 7.74882e-18)
(-0.0126973 -0.0050833 -7.53218e-18)
(-0.012604 -0.00500119 0)
(-0.0125175 -0.00492081 2.36258e-19)
(-0.0124373 -0.00484206 7.82459e-18)
(-0.0123628 -0.00476485 -7.35395e-18)
(-0.0122936 -0.00468906 -1.18575e-19)
(-0.0122293 -0.00461461 1.18247e-19)
(-0.0121694 -0.00454137 7.74593e-18)
(-0.0121135 -0.00446926 -1.49647e-17)
(-0.0120615 -0.00439817 7.33599e-18)
(-0.0120129 -0.00432802 7.66942e-18)
(-0.0119675 -0.0042587 -7.08625e-18)
(-0.011925 -0.00419013 -7.26639e-18)
(-0.0118853 -0.00412222 1.44189e-17)
(-0.0118482 -0.0040549 -6.93214e-18)
(-0.0118135 -0.00398809 0)
(-0.0117809 -0.00392172 0)
(-0.0117504 -0.00385573 0)
(-0.0117219 -0.00379006 0)
(-0.0116951 -0.00372467 5.01494e-20)
(-0.01167 -0.00365948 0)
(-0.0116465 -0.00359447 -4.8136e-20)
(-0.0116245 -0.0035296 6.11411e-18)
(-0.0116039 -0.00346481 -5.85555e-18)
(-0.0115846 -0.00340008 -3.90702e-23)
(-0.0115666 -0.00333538 -5.65673e-18)
(-0.0115497 -0.00327067 5.4565e-18)
(-0.0115339 -0.00320594 4.18295e-20)
(-0.0115195 -0.00314123 0)
(-0.0121061 -0.00603357 7.08783e-18)
(-0.0119681 -0.00590006 -7.62197e-18)
(-0.0118418 -0.00577217 1.5152e-17)
(-0.011725 -0.00564892 -7.2867e-18)
(-0.0116172 -0.00553037 2.42995e-19)
(-0.0115179 -0.00541645 0)
(-0.0114264 -0.0053069 3.25698e-22)
(-0.011342 -0.00520141 -2.48119e-19)
(-0.011264 -0.00509971 8.07319e-18)
(-0.0111918 -0.00500152 -7.58304e-18)
(-0.011125 -0.00490661 1.41104e-22)
(-0.011063 -0.00481472 1.23513e-19)
(-0.0110053 -0.00472564 0)
(-0.0109517 -0.00463911 7.89423e-18)
(-0.0109018 -0.00455494 -7.76804e-18)
(-0.0108552 -0.00447292 7.74078e-18)
(-0.0108116 -0.00439286 -1.51449e-17)
(-0.0107709 -0.00431456 7.28822e-18)
(-0.0107327 -0.00423787 1.15315e-19)
(-0.010697 -0.00416263 0)
(-0.0106634 -0.00408869 0)
(-0.0106319 -0.00401592 -7.09294e-18)
(-0.0106023 -0.00394422 6.85675e-18)
(-0.0105745 -0.00387347 -5.29692e-20)
(-0.0105484 -0.00380358 0)
(-0.0105238 -0.00373446 5.08928e-20)
(-0.0105006 -0.00366605 -4.98244e-20)
(-0.0104788 -0.00359826 0)
(-0.0104583 -0.00353105 6.13881e-18)
(-0.0104389 -0.00346435 -1.18738e-17)
(-0.0104207 -0.00339812 5.78541e-18)
(-0.0104036 -0.00333233 5.66341e-18)
(-0.0103876 -0.003267 -5.5411e-18)
(-0.0106826 -0.00650164 8.10849e-18)
(-0.0105732 -0.00633386 -7.83835e-18)
(-0.0104765 -0.00617949 2.49157e-19)
(-0.0103885 -0.00603427 8.18332e-18)
(-0.0103059 -0.00589393 -7.6884e-18)
(-0.0102285 -0.00575869 -2.55529e-19)
(-0.0101561 -0.00562855 8.11009e-18)
(-0.0100882 -0.00550335 5.29253e-19)
(-0.0100248 -0.005383 -8.14435e-18)
(-0.00996557 -0.00526738 -3.87834e-19)
(-0.0099101 -0.00515632 -2.58044e-19)
(-0.00985812 -0.00504954 -8.46561e-18)
(-0.00980934 -0.0049468 1.63736e-17)
(-0.00976351 -0.00484781 -1.62655e-17)
(-0.00972039 -0.00475228 7.85026e-18)
(-0.00967979 -0.00465996 -8.07831e-18)
(-0.00964151 -0.00457057 7.82618e-18)
(-0.00960538 -0.00448387 1.22141e-19)
(-0.00957126 -0.00439963 -7.78495e-18)
(-0.00953901 -0.00431762 7.53645e-18)
(-0.00950851 -0.00423765 1.17073e-19)
(-0.00947964 -0.00415951 0)
(-0.00945231 -0.00408306 0)
(-0.00942643 -0.00400814 -7.16845e-18)
(-0.00940191 -0.00393461 6.931e-18)
(-0.00937868 -0.00386236 6.8388e-18)
(-0.00935666 -0.00379128 -6.66084e-18)
(-0.00933579 -0.00372129 0)
(-0.009316 -0.00365231 1.00321e-19)
(-0.00929721 -0.00358427 -6.31316e-18)
(-0.00927937 -0.0035171 6.1436e-18)
(-0.0092625 -0.00345078 6.01721e-18)
(-0.00924669 -0.00338532 -5.93727e-18)
(-0.00964689 -0.00696612 8.51175e-18)
(-0.00953649 -0.00675824 0)
(-0.00943205 -0.00656214 -2.71671e-19)
(-0.00933379 -0.0063784 3.28569e-22)
(-0.00924279 -0.00620676 -2.71331e-19)
(-0.0091588 -0.00604644 9.06881e-18)
(-0.00908109 -0.00589607 -1.71913e-17)
(-0.00900882 -0.00575366 8.70486e-18)
(-0.00894125 -0.00561747 0)
(-0.00887808 -0.0054869 8.69689e-18)
(-0.0088191 -0.00536188 -8.03233e-18)
(-0.00876404 -0.0052422 0)
(-0.00871263 -0.00512759 8.71185e-18)
(-0.00866459 -0.00501775 -1.68337e-17)
(-0.00861969 -0.00491239 1.68295e-17)
(-0.00857768 -0.00481119 1.78074e-19)
(-0.00853832 -0.00471385 -1.63726e-17)
(-0.00850141 -0.00462008 8.01272e-18)
(-0.00846673 -0.00452957 8.94498e-23)
(-0.00843409 -0.00444205 7.95167e-18)
(-0.00840332 -0.00435725 -7.94227e-18)
(-0.00837428 -0.00427491 0)
(-0.00834684 -0.00419482 0)
(-0.00832087 -0.00411677 -7.5029e-18)
(-0.00829629 -0.00404057 -1.04773e-19)
(-0.008273 -0.00396609 7.12448e-18)
(-0.00825093 -0.0038932 0)
(-0.00823002 -0.0038218 0)
(-0.00821019 -0.00375179 -5.2257e-20)
(-0.00819138 -0.00368312 -5.11169e-20)
(-0.00817351 -0.0036157 -9.99648e-20)
(-0.00815659 -0.00354948 6.333e-18)
(-0.00814071 -0.00348447 -1.24277e-17)
(-0.00888696 -0.00765397 1.17423e-17)
(-0.00870295 -0.00740526 1.23838e-17)
(-0.00853517 -0.00716524 -1.22311e-17)
(-0.00838307 -0.0069345 -1.18993e-17)
(-0.00824609 -0.00671414 1.13148e-17)
(-0.00812327 -0.00650481 0)
(-0.00801352 -0.00630663 -3.59996e-19)
(-0.00791566 -0.00611911 1.14809e-17)
(-0.00782844 -0.00594155 6.70206e-19)
(-0.00775064 -0.00577334 -2.20284e-17)
(-0.00768115 -0.00561396 1.03008e-17)
(-0.00761898 -0.00546298 1.03299e-17)
(-0.00756327 -0.00531996 -9.99583e-18)
(-0.00751323 -0.00518449 0)
(-0.00746816 -0.00505617 -9.71967e-18)
(-0.00742744 -0.00493463 1.87304e-17)
(-0.0073905 -0.0048195 -9.16805e-18)
(-0.00735685 -0.00471042 -1.38503e-19)
(-0.00732603 -0.00460698 0)
(-0.00729765 -0.00450876 1.31039e-19)
(-0.00727137 -0.00441529 0)
(-0.00724691 -0.00432607 0)
(-0.00722402 -0.00424062 -7.74435e-18)
(-0.00720251 -0.00415846 7.56098e-18)
(-0.00718222 -0.00407915 0)
(-0.00716302 -0.0040023 0)
(-0.0071448 -0.00392761 -5.51172e-20)
(-0.00712746 -0.00385479 -7.00091e-18)
(-0.00711088 -0.00378373 6.71861e-18)
(-0.00709496 -0.00371441 -2.61518e-23)
(-0.00707969 -0.00364683 -6.54979e-18)
(-0.00706518 -0.00358101 6.42325e-18)
(-0.00761527 -0.00865789 1.61208e-17)
(-0.00742063 -0.00832694 -1.48194e-17)
(-0.00724925 -0.00800816 1.53623e-17)
(-0.00709922 -0.00770273 -1.59809e-17)
(-0.00696787 -0.00741174 -1.48876e-17)
(-0.00685282 -0.00713587 1.40744e-17)
(-0.00675204 -0.00687539 0)
(-0.00666372 -0.00663012 0)
(-0.00658628 -0.00639956 -1.39918e-17)
(-0.0065183 -0.00618308 1.32478e-17)
(-0.00645852 -0.00597991 6.12933e-19)
(-0.00640584 -0.00578925 1.98759e-19)
(-0.00635931 -0.00561028 1.93207e-19)
(-0.0063181 -0.00544221 -1.21461e-17)
(-0.0062815 -0.00528429 -2.50624e-19)
(-0.00624891 -0.00513581 1.12064e-17)
(-0.0062198 -0.00499616 1.10915e-17)
(-0.0061937 -0.00486479 -1.05494e-17)
(-0.00617022 -0.00474121 0)
(-0.00614898 -0.00462498 0)
(-0.00612966 -0.00451566 -9.74371e-18)
(-0.00611196 -0.00441282 9.42128e-18)
(-0.00609562 -0.00431598 9.10991e-18)
(-0.00608039 -0.00422467 -1.75628e-17)
(-0.00606606 -0.0041384 8.40761e-18)
(-0.00605244 -0.00405665 -8.25484e-18)
(-0.00603937 -0.00397894 1.59633e-17)
(-0.00602671 -0.00390478 -7.60933e-18)
(-0.00601436 -0.00383371 0)
(-0.00600223 -0.00376535 7.38993e-18)
(-0.00599034 -0.00369943 -1.41938e-17)
(-0.00597886 -0.00363568 6.92421e-18)
(-0.00617536 -0.00949692 -1.61043e-17)
(-0.00602304 -0.00911198 -5.20125e-19)
(-0.00588762 -0.00873949 5.22836e-19)
(-0.00576541 -0.00837985 1.70923e-17)
(-0.00565534 -0.00803415 -1.58888e-17)
(-0.00555674 -0.00770347 1.03786e-18)
(-0.00546895 -0.00738867 -1.66936e-17)
(-0.00539128 -0.00709029 -4.99692e-19)
(-0.005323 -0.00680853 1.51624e-17)
(-0.00526333 -0.00654328 4.8632e-19)
(-0.00521147 -0.00629423 -4.74635e-19)
(-0.00516661 -0.00606085 -2.31262e-19)
(-0.00512798 -0.00584247 -2.24967e-19)
(-0.00509484 -0.00563833 -2.18651e-19)
(-0.00506651 -0.00544758 0)
(-0.00504237 -0.00526935 0)
(-0.00502186 -0.00510279 -1.99214e-19)
(-0.00500446 -0.0049471 0)
(-0.00498974 -0.00480157 -1.22232e-17)
(-0.00497729 -0.00466555 -3.77027e-19)
(-0.00496673 -0.00453847 2.20755e-17)
(-0.00495774 -0.00441983 -2.16183e-17)
(-0.00494998 -0.00430918 1.02512e-17)
(-0.00494317 -0.00420611 -1.55279e-19)
(-0.004937 -0.00411021 -7.46185e-20)
(-0.00493122 -0.00402106 0)
(-0.0049256 -0.00393819 8.86436e-18)
(-0.00491991 -0.00386109 -1.69234e-17)
(-0.00491402 -0.00378919 8.08817e-18)
(-0.00490779 -0.00372187 0)
(-0.00490124 -0.00365857 7.65794e-18)
(-0.00489458 -0.0035987 -7.3216e-18)
(-0.00546148 -0.0106217 -1.85286e-17)
(-0.00526018 -0.0101986 3.67036e-17)
(-0.00507814 -0.00978166 -1.86688e-17)
(-0.00491013 -0.00937056 6.05066e-19)
(-0.0047572 -0.00896759 -2.05164e-17)
(-0.00461964 -0.0085749 -6.79134e-19)
(-0.00449727 -0.00819448 3.96905e-17)
(-0.00438958 -0.00782814 -1.96803e-17)
(-0.00429585 -0.00747739 1.93896e-17)
(-0.00421512 -0.00714343 -1.90925e-17)
(-0.00414635 -0.00682708 0)
(-0.00408842 -0.00652877 0)
(-0.00404016 -0.00624863 -2.71361e-19)
(-0.00400046 -0.00598643 1.72716e-17)
(-0.00396825 -0.00574169 -1.60838e-17)
(-0.0039425 -0.00551372 -2.45197e-19)
(-0.00392233 -0.00530165 -1.52696e-17)
(-0.00390689 -0.00510455 1.4424e-17)
(-0.00389547 -0.00492147 -1.36938e-17)
(-0.00388742 -0.00475149 1.35579e-17)
(-0.00388216 -0.00459378 1.32346e-17)
(-0.00387916 -0.00444761 1.94182e-19)
(-0.00387794 -0.00431234 -1.1784e-17)
(-0.00387803 -0.00418747 1.77309e-19)
(-0.00387901 -0.00407258 -1.08175e-17)
(-0.00388043 -0.00396727 1.01576e-17)
(-0.00388189 -0.00387118 -7.65086e-20)
(-0.00388305 -0.00378383 0)
(-0.00388359 -0.00370465 -8.85939e-18)
(-0.00388329 -0.00363295 -9.47538e-20)
(-0.00388208 -0.00356793 -1.48705e-19)
(-0.00388013 -0.0035087 7.64926e-18)
(-0.00470994 -0.0120855 2.29943e-17)
(-0.00445189 -0.0116238 -2.11676e-17)
(-0.00422034 -0.0111581 7.13763e-19)
(-0.00401187 -0.0106904 7.24614e-19)
(-0.00382597 -0.0102243 7.31652e-19)
(-0.00366155 -0.00976304 2.31841e-17)
(-0.00351735 -0.00930964 -4.77358e-17)
(-0.00339212 -0.00886688 2.37458e-17)
(-0.00328453 -0.00843724 7.22917e-19)
(-0.00319321 -0.00802293 0)
(-0.0031168 -0.00762582 -2.33532e-17)
(-0.00305389 -0.0072474 -5.42791e-19)
(-0.00300312 -0.00688879 2.13177e-17)
(-0.00296311 -0.0065507 0)
(-0.00293254 -0.00623346 -2.00811e-17)
(-0.00291017 -0.00593697 1.92329e-17)
(-0.00289482 -0.00566082 5.74195e-19)
(-0.00288543 -0.00540431 1.77799e-17)
(-0.00288105 -0.00516652 3.72547e-20)
(-0.00288082 -0.00494642 -1.57321e-17)
(-0.00288401 -0.00474298 0)
(-0.00288994 -0.00455518 -1.47979e-17)
(-0.00289798 -0.00438214 -2.09831e-19)