/*--------------------------------*- C++ -*----------------------------------*\
  =========                 |
  \\      /  F ield         | OpenFOAM: The Open Source CFD Toolbox
   \\    /   O peration     | Website:  https://openfoam.org
    \\  /    A nd           | Version:  10
     \\/     M anipulation  |
\*---------------------------------------------------------------------------*/
FoamFile
{
    format      ascii;
    class       volScalarField;
    location    "1200";
    object      nut;
}
// * * * * * * * * * * * * * * * * * * * * * * * * * * * * * * * * * * * * * //

dimensions      [0 2 -1 0 0 0 0];

internalField   nonuniform List<scalar> 
420
(
1.04478e-20
5.25405e-20
1.51468e-19
3.06735e-19
4.90831e-19
6.70486e-19
8.04764e-19
8.53747e-19
8.06212e-19
6.89197e-19
1.04473e-20
5.49213e-20
1.49612e-19
2.93308e-19
4.65534e-19
6.33917e-19
7.57799e-19
8.00502e-19
7.46476e-19
6.23904e-19
1.04471e-20
5.7238e-20
1.50418e-19
2.83152e-19
4.39166e-19
5.92041e-19
7.05162e-19
7.39618e-19
6.74375e-19
5.4753e-19
1.04472e-20
5.91006e-20
1.53343e-19
2.78672e-19
4.1942e-19
5.5471e-19
6.52226e-19
6.70012e-19
5.90914e-19
4.64954e-19
1.04476e-20
6.09313e-20
1.57522e-19
2.76059e-19
3.99313e-19
5.11409e-19
5.85604e-19
5.82177e-19
4.95865e-19
3.79684e-19
1.04483e-20
6.24871e-20
1.57175e-19
2.58094e-19
3.50986e-19
4.2904e-19
4.76679e-19
4.65345e-19
3.91149e-19
2.94753e-19
1.04493e-20
5.99384e-20
1.34527e-19
1.96007e-19
2.47232e-19
2.90889e-19
3.22119e-19
3.2513e-19
2.81954e-19
2.12082e-19
1.04506e-20
4.77074e-20
7.96624e-20
1.02902e-19
1.24484e-19
1.45902e-19
1.66365e-19
1.82058e-19
1.7275e-19
1.34427e-19
1.04522e-20
2.15125e-20
2.79463e-20
3.44975e-20
4.15618e-20
4.91919e-20
5.73704e-20
6.58673e-20
7.27757e-20
6.40846e-20
2.82342e-21
3.6643e-21
4.61494e-21
5.67535e-21
6.84552e-21
8.12545e-21
9.51514e-21
1.10146e-20
1.26238e-20
1.43428e-20
5.64491e-19
4.87969e-19
5.00741e-19
7.24848e-19
1.10456e-18
1.07307e-18
8.04999e-19
5.26121e-19
2.14171e-19
6.20016e-20
5.03709e-19
4.42097e-19
4.7602e-19
7.28193e-19
1.12253e-18
1.05284e-18
7.89881e-19
5.15728e-19
1.96248e-19
6.20034e-20
4.37281e-19
3.95177e-19
4.53724e-19
7.40156e-19
1.14221e-18
1.03531e-18
7.93098e-19
5.08041e-19
1.91061e-19
6.2004e-20
3.6945e-19
3.49314e-19
4.34785e-19
7.59274e-19
1.08718e-18
1.03332e-18
8.01505e-19
5.00642e-19
1.88153e-19
6.20033e-20
3.02362e-19
3.04882e-19
4.18733e-19
7.84659e-19
9.26012e-19
1.04126e-18
8.16499e-19
4.93521e-19
1.91586e-19
6.20012e-20
2.37404e-19
2.61797e-19
4.0469e-19
7.68969e-19
8.87616e-19
1.05303e-18
8.28485e-19
4.92128e-19
1.93565e-19
6.19978e-20
1.7569e-19
2.19778e-19
3.91491e-19
7.95897e-19
9.03194e-19
1.05975e-18
8.46855e-19
4.94941e-19
1.97217e-19
6.19932e-20
1.17388e-19
1.78685e-19
3.80886e-19
8.43178e-19
9.35312e-19
1.0818e-18
8.51732e-19
5.01172e-19
2.01826e-19
6.19873e-20
6.70389e-20
1.40521e-19
3.80776e-19
8.89118e-19
9.72437e-19
1.11445e-18
8.57474e-19
5.10154e-19
2.07242e-19
6.19801e-20
3.06321e-20
1.08699e-19
4.13224e-19
9.05668e-19
1.01345e-18
1.14628e-18
8.6543e-19
5.17657e-19
2.1273e-19
6.19718e-20
1.03958e-20
9.03143e-20
5.03651e-19
8.63451e-19
9.89788e-19
1.14688e-18
8.75699e-19
5.25073e-19
2.20167e-19
6.20994e-20
1.03958e-20
1.14258e-19
6.22471e-19
7.85555e-19
9.03798e-19
1.00824e-18
8.04586e-19
5.20832e-19
2.18309e-19
6.20994e-20
6.67529e-20
2.99247e-19
6.36173e-19
7.78027e-19
9.1565e-19
1.05633e-18
7.98895e-19
5.15503e-19
2.14164e-19
6.19718e-20
2.93309e-19
5.41517e-19
6.6189e-19
8.1107e-19
9.89208e-19
1.13782e-18
8.68786e-19
5.25912e-19
2.18043e-19
6.19801e-20
5.53478e-19
5.96445e-19
6.77422e-19
8.23582e-19
1.01989e-18
1.14008e-18
8.72006e-19
5.36693e-19
2.25021e-19
6.19873e-20
6.32152e-19
6.36219e-19
6.96465e-19
8.48834e-19
1.06926e-18
1.1424e-18
8.94962e-19
5.49242e-19
2.33166e-19
6.19932e-20
6.75504e-19
6.64166e-19
7.08116e-19
8.51998e-19
1.09939e-18
1.14454e-18
9.24288e-19
5.60386e-19
2.41441e-19
6.19978e-20
7.05528e-19
6.60092e-19
6.58744e-19
8.09039e-19
1.08226e-18
1.14619e-18
9.69944e-19
5.71897e-19
2.52199e-19
6.20012e-20
7.1596e-19
6.35208e-19
6.16018e-19
7.71882e-19
1.06581e-18
1.14676e-18
9.91229e-19
5.77714e-19
2.56906e-19
6.20033e-20
6.93646e-19
6.05376e-19
5.82261e-19
7.42841e-19
1.05624e-18
1.15008e-18
9.97715e-19
5.76375e-19
2.41801e-19
6.2004e-20
6.61171e-19
5.69998e-19
5.52305e-19
7.22711e-19
1.056e-18
1.15469e-18
9.65614e-19
4.94944e-19
2.37697e-19
6.20034e-20
6.18406e-19
5.30044e-19
5.22843e-19
7.09312e-19
1.06242e-18
1.01471e-18
9.18081e-19
5.50237e-19
2.09351e-19
6.20016e-20
1.43428e-20
1.16303e-19
4.18003e-19
6.85519e-19
7.50743e-19
7.88842e-19
8.11611e-19
8.02495e-19
7.80048e-19
7.44342e-19
1.26238e-20
8.51649e-20
2.96852e-19
5.81373e-19
7.60622e-19
8.46062e-19
8.87592e-19
8.94459e-19
8.82326e-19
8.45284e-19
1.10146e-20
6.46546e-20
2.00292e-19
4.22213e-19
6.3818e-19
7.83733e-19
8.68579e-19
9.02236e-19
9.03854e-19
8.91591e-19
9.51514e-21
5.21289e-20
1.41738e-19
2.81663e-19
4.47851e-19
6.00145e-19
7.15042e-19
7.86085e-19
8.14643e-19
8.23115e-19
8.12545e-21
4.41875e-20
1.12184e-19
2.07599e-19
3.21233e-19
4.36989e-19
5.38219e-19
6.13829e-19
6.55197e-19
6.75181e-19
6.84552e-21
3.79278e-20
9.48865e-20
1.68521e-19
2.51083e-19
3.33875e-19
4.06796e-19
4.60239e-19
4.86593e-19
4.96641e-19
5.67535e-21
3.21865e-20
8.1818e-20
1.42772e-19
2.04712e-19
2.59653e-19
3.0056e-19
3.21366e-19
3.22362e-19
3.16798e-19
4.61494e-21
2.65556e-20
6.8026e-20
1.13207e-19
1.48229e-19
1.69414e-19
1.77944e-19
1.75086e-19
1.66793e-19
1.58951e-19
3.6643e-21
2.07139e-20
4.44363e-20
5.82725e-20
6.29808e-20
6.39796e-20
6.30476e-20
6.10012e-20
5.87171e-20
5.59733e-20
2.82342e-21
1.04522e-20
1.04506e-20
1.04493e-20
1.04483e-20
1.04476e-20
1.04472e-20
1.04471e-20
1.04473e-20
1.04478e-20
)
;

boundaryField
{
    right
    {
        type            cyclic;
    }
    left
    {
        type            cyclic;
    }
    outerWall
    {
        type            nutkWallFunction;
        Cmu             0.09;
        kappa           0.41;
        E               9.8;
        value           uniform 0;
    }
    stirrerWall
    {
        type            nutkWallFunction;
        Cmu             0.09;
        kappa           0.41;
        E               9.8;
        value           uniform 0;
    }
    top
    {
        type            empty;
    }
    bottom
    {
        type            empty;
    }
}


// ************************************************************************* //
