/*--------------------------------*- C++ -*----------------------------------*\
  =========                 |
  \\      /  F ield         | OpenFOAM: The Open Source CFD Toolbox
   \\    /   O peration     | Website:  https://openfoam.org
    \\  /    A nd           | Version:  10
     \\/     M anipulation  |
\*---------------------------------------------------------------------------*/
FoamFile
{
    format      ascii;
    class       volScalarField;
    location    "1200";
    object      omega;
}
// * * * * * * * * * * * * * * * * * * * * * * * * * * * * * * * * * * * * * //

dimensions      [0 0 -1 0 0 0 0];

internalField   nonuniform List<scalar> 
420
(
21252.7
4226.16
1465.95
723.898
452.385
331.17
275.913
260.082
275.417
322.179
21253.7
4042.96
1484.13
757.036
476.967
350.274
293.013
277.382
297.457
355.895
21254.2
3879.32
1476.19
784.188
505.605
375.049
314.885
300.215
329.26
405.538
21254
3757.06
1448.03
796.795
529.409
400.29
340.441
331.404
375.765
477.562
21253.2
3644.18
1409.61
804.339
556.067
434.182
379.172
381.404
447.793
584.815
21251.7
3553.45
1412.73
860.326
632.631
517.538
465.815
477.161
567.673
753.323
21249.7
3704.55
1650.56
1132.84
898.124
763.331
689.325
682.942
787.521
1046.98
21247.1
4654.3
2787.32
2157.82
1783.72
1521.87
1334.68
1219.63
1285.35
1651.79
21243.8
10321.7
7945.4
6436.53
5342.51
4513.84
3870.37
3371.09
3051.08
3464.87
78643.9
60596.7
48114.3
39124.4
32436.5
27327.1
23335.9
20159.1
17589.3
15481.3
393.353
455.039
443.432
362.321
288.235
245.212
282.157
422.041
1049.28
3581.27
440.819
502.253
466.461
363.676
285.031
243.746
283.492
430.546
1091.64
3581.17
507.785
561.887
489.383
361.796
280.28
242.335
284.745
437.06
1126.84
3581.13
601.014
635.66
510.7
356.725
274.801
241.224
286.07
443.519
1155.51
3581.18
734.368
728.298
530.277
349.428
269.431
240.594
287.43
449.919
1158.98
3581.3
935.303
848.155
548.678
341.122
264.781
240.52
288.495
451.193
1147.13
3581.49
1263.85
1010.31
567.177
333.05
261.299
240.464
288.684
448.628
1125.89
3581.76
1891.54
1242.66
582.969
324.869
258.588
240.247
288.223
443.051
1100.18
3582.1
3312.17
1580.15
589.422
315.922
256.78
239.916
287.185
435.251
1071.43
3582.51
7248.76
2042.74
572.103
306.365
256.037
239.604
286.35
428.941
1043.79
3582.99
21359.1
2458.58
505.961
296.93
256.454
239.603
285.913
422.883
1008.53
3575.63
21359.1
1943.36
426.761
292.191
256.855
239.593
286.251
426.327
1017.11
3575.63
3326.37
745.996
349.982
288.962
256.778
239.233
286.336
430.734
1036.8
3582.99
757.032
391.634
318.955
290.013
257.99
237.658
283.009
422.209
1018.35
3582.51
374.308
329.037
317.415
295.027
260.824
236.888
279.829
413.727
986.772
3582.1
313.605
322.03
324.067
302.111
264.661
236.531
276.417
404.275
952.304
3581.76
304.001
326.92
334.509
310.949
269.504
236.988
273.628
396.235
920.391
3581.49
304.705
336.384
347.791
321.143
275.111
238.53
271.91
391.455
897.287
3581.3
310.136
349.562
363.403
332.031
281.016
241.394
272.107
392.618
891.894
3581.18
320.112
366.788
381.349
343.261
286.587
244.317
274.136
398.408
910.167
3581.13
335.836
389.553
402.033
353.904
290.64
246.465
276.815
405.81
943.385
3581.17
359.059
418.917
424.687
362.409
292.148
246.827
279.031
412.287
1007.09
3581.27
15481.3
1909.19
531.203
327.103
287.6
276.553
273.585
276.693
284.655
298.31
17589.3
2607.23
747.996
381.931
291.925
262.445
250.165
248.245
251.658
259.404
20159.1
3434.32
1108.6
525.907
347.934
283.317
255.641
246.105
245.664
249.043
23335.9
4259.53
1566.58
788.333
495.801
369.985
310.534
282.469
272.567
269.761
27327.1
5025.05
1979.29
1069.58
691.227
508.123
412.554
361.737
338.898
328.867
32436.5
5854.4
2340.11
1317.61
884.348
665.054
545.838
482.455
456.325
447.093
39124.4
6898.69
2713.88
1555.23
1084.67
855.159
738.77
690.941
688.806
700.903
48114.3
8361.51
3264.12
1961.41
1497.99
1310.66
1247.83
1268.2
1331.26
1396.94
60596.7
10719.6
4996.92
3810.45
3525.59
3470.55
3521.86
3640
3781.6
3966.98
78643.9
21243.8
21247.1
21249.7
21251.7
21253.2
21254
21254.2
21253.7
21252.7
)
;

boundaryField
{
    right
    {
        type            cyclic;
    }
    left
    {
        type            cyclic;
    }
    outerWall
    {
        beta1           0.075;
        blended         0;
        type            omegaWallFunction;
        value           nonuniform List<scalar> 
22
(
3581.27
3581.17
3581.13
3581.18
3581.3
3581.49
3581.76
3582.1
3582.51
3582.99
3575.63
3575.63
3582.99
3582.51
3582.1
3581.76
3581.49
3581.3
3581.18
3581.13
3581.17
3581.27
)
;
    }
    stirrerWall
    {
        beta1           0.075;
        blended         0;
        type            omegaWallFunction;
        value           nonuniform List<scalar> 
42
(
21252.7
21253.7
21254.2
21254
21253.2
21251.7
21249.7
21247.1
21243.8
78643.9
78643.9
60596.7
48114.3
39124.4
32436.5
27327.1
23335.9
20159.1
17589.3
15481.3
21359.1
21359.1
15481.3
17589.3
20159.1
23335.9
27327.1
32436.5
39124.4
48114.3
60596.7
78643.9
78643.9
21243.8
21247.1
21249.7
21251.7
21253.2
21254
21254.2
21253.7
21252.7
)
;
    }
    top
    {
        type            empty;
    }
    bottom
    {
        type            empty;
    }
}


// ************************************************************************* //
