/*--------------------------------*- C++ -*----------------------------------*\
  =========                 |
  \\      /  F ield         | OpenFOAM: The Open Source CFD Toolbox
   \\    /   O peration     | Website:  https://openfoam.org
    \\  /    A nd           | Version:  10
     \\/     M anipulation  |
\*---------------------------------------------------------------------------*/
FoamFile
{
    format      ascii;
    class       volScalarField;
    location    "1200";
    object      p;
}
// * * * * * * * * * * * * * * * * * * * * * * * * * * * * * * * * * * * * * //

dimensions      [0 2 -2 0 0 0 0];

internalField   nonuniform List<scalar> 
420
(
-0.443942
15.5302
31.8972
50.5016
70.6097
91.6838
113.262
134.757
155.716
175.606
-0.0445757
15.3754
31.4105
49.7236
69.6272
90.6234
112.274
133.98
155.178
175.328
-0.108843
15.1275
30.8898
48.8993
68.5682
89.4625
111.157
133.028
154.473
174.936
-0.34531
14.8196
30.3511
48.0557
67.4585
88.1895
109.86
131.873
153.606
174.452
-0.5402
14.5445
29.8431
47.2137
66.2922
86.7834
108.37
130.517
152.582
173.885
-0.664078
14.3625
29.4194
46.4165
65.1008
85.271
106.699
128.961
151.399
173.248
-0.734099
14.3023
29.1212
45.7053
63.9303
83.6938
104.871
127.193
150.054
172.596
-0.771284
14.3763
28.9798
45.1199
62.8378
82.1157
102.929
125.169
148.427
171.806
-0.83633
14.6077
29.0137
44.7085
61.9302
80.6921
101.015
122.887
146.115
169.959
-1.02025
14.9506
29.0412
44.3464
61.1889
79.5446
99.4062
120.714
143.21
166.493
194.034
211.522
228.226
243.731
257.778
270.721
280.174
289.299
293.662
313.285
193.999
211.657
228.431
243.961
258.053
271.122
281.044
291.087
298.189
319.444
193.915
211.803
228.705
244.363
258.679
272.092
282.664
293.793
303.398
325.329
193.813
211.968
229.015
244.863
259.494
273.356
284.662
297.022
308.594
330.069
193.684
212.119
229.321
245.405
260.39
274.751
286.809
300.281
313.272
334.267
193.551
212.234
229.586
245.947
261.28
276.117
288.829
303.147
317.362
338.351
193.528
212.309
229.753
246.449
262.135
277.402
290.602
305.558
320.85
341.855
193.654
212.352
229.761
246.875
262.965
278.623
292.181
307.84
324.455
344.868
193.386
212.596
229.892
247.324
263.792
279.768
293.652
310.494
329.21
347.975
192.129
213.583
230.691
247.993
264.626
280.797
294.937
313.407
333.612
350.959
191.777
214.295
231.607
248.801
265.361
281.62
295.224
314.816
332.968
351.428
192.848
214.451
232.135
249.176
265.612
281.78
295.295
314.56
330.686
350.384
197.422
215.061
232.624
249.646
266.031
282.043
296.001
313.611
330.463
351.154
197.088
214.792
232.43
249.576
266.004
281.97
295.914
313.186
331.193
351.02
196.027
214.118
231.903
249.132
265.592
281.548
295.557
313.003
330.874
349.621
195.207
213.364
231.209
248.442
264.86
280.736
294.679
311.949
329.125
346.833
194.672
212.72
230.475
247.59
263.86
279.619
293.533
310.379
326.09
342.406
194.338
212.196
229.743
246.62
262.636
278.267
292.179
308.313
322.519
339.23
194.138
211.78
229.053
245.603
261.248
276.581
290.013
304.783
319.292
341.142
194.02
211.48
228.496
244.699
259.852
274.455
286.237
298.244
313.52
343.535
193.977
211.346
228.187
244.089
258.698
272.35
281.879
290.613
302.621
321.451
194.036
211.435
228.167
243.801
258.022
271.12
280.11
288.433
294.327
301.259
180.367
178.083
176.835
176.246
175.97
175.861
175.841
175.846
175.824
175.773
154.847
155.2
155.53
155.78
155.989
156.172
156.314
156.38
156.301
156.08
128.374
130.859
132.887
134.184
135.014
135.543
135.84
135.925
135.751
135.341
104.251
107.123
109.991
112.056
113.435
114.294
114.741
114.84
114.6
114.052
82.692
85.0604
87.8282
90.1142
91.7477
92.7938
93.3368
93.4429
93.1693
92.5598
63.3117
65.0021
67.1625
69.1413
70.6606
71.6709
72.2017
72.2958
72.02
71.4359
45.9274
46.9941
48.355
49.703
50.8037
51.5486
51.9213
51.9469
51.6765
51.1767
30.4674
30.9808
31.5514
32.1351
32.632
32.9599
33.0773
32.9868
32.7246
32.3552
16.9461
16.8507
16.7386
16.6762
16.6412
16.5789
16.4502
16.2524
16.0049
15.7576
4.52558
3.40204
2.41445
1.7723
1.32898
0.96414
0.624946
0.318369
0.0872172
-0.107127
)
;

boundaryField
{
    right
    {
        type            cyclic;
    }
    left
    {
        type            cyclic;
    }
    outerWall
    {
        type            zeroGradient;
    }
    stirrerWall
    {
        type            zeroGradient;
    }
    top
    {
        type            empty;
    }
    bottom
    {
        type            empty;
    }
}


// ************************************************************************* //
