/*--------------------------------*- C++ -*----------------------------------*\
  =========                 |
  \\      /  F ield         | OpenFOAM: The Open Source CFD Toolbox
   \\    /   O peration     | Website:  https://openfoam.org
    \\  /    A nd           | Version:  10
     \\/     M anipulation  |
\*---------------------------------------------------------------------------*/
FoamFile
{
    format      ascii;
    class       surfaceScalarField;
    location    "1200";
    object      phi;
}
// * * * * * * * * * * * * * * * * * * * * * * * * * * * * * * * * * * * * * //

dimensions      [0 3 -1 0 0 0 0];

internalField   nonuniform List<scalar> 
788
(
3.04137e-06
-2.22773e-06
2.98264e-06
1.15516e-05
4.28048e-06
1.65954e-05
6.17335e-06
1.79992e-05
8.20774e-06
1.63779e-05
1.01104e-05
1.18032e-05
1.17647e-05
4.04231e-06
1.32295e-05
-6.43704e-06
1.41787e-05
-1.91134e-05
-3.31742e-05
1.40935e-05
1.57689e-06
-3.79345e-06
2.74489e-06
1.03954e-05
4.43765e-06
1.49138e-05
6.52205e-06
1.59514e-05
8.76766e-06
1.41741e-05
1.09961e-05
9.59544e-06
1.29385e-05
2.09879e-06
1.41561e-05
-7.66467e-06
1.4236e-05
-1.92052e-05
-3.23131e-05
1.33724e-05
1.13571e-06
-4.92616e-06
2.96377e-06
8.59828e-06
5.24835e-06
1.26763e-05
7.77581e-06
1.34667e-05
1.02377e-05
1.17334e-05
1.23317e-05
7.49477e-06
1.36217e-05
7.80254e-07
1.37609e-05
-7.83946e-06
1.27886e-05
-1.8263e-05
-3.08095e-05
1.12638e-05
8.61658e-07
-5.7786e-06
2.80203e-06
6.70104e-06
5.34086e-06
1.01914e-05
8.03381e-06
1.08069e-05
1.04503e-05
9.32123e-06
1.21755e-05
5.75251e-06
1.27753e-05
1.52354e-07
1.20851e-05
-7.17967e-06
1.03617e-05
-1.65607e-05
-2.88001e-05
8.34995e-06
5.2152e-07
-6.28502e-06
2.24439e-06
5.02514e-06
4.73405e-06
7.7525e-06
7.35534e-06
8.2118e-06
9.59412e-06
7.0831e-06
1.09696e-05
4.36239e-06
1.10731e-05
2.63116e-08
9.82103e-06
-5.95399e-06
7.51128e-06
-1.42692e-05
-2.62908e-05
5.0058e-06
2.93598e-08
-6.29677e-06
1.37952e-06
3.72227e-06
3.66304e-06
5.51649e-06
6.09885e-06
5.80137e-06
8.13781e-06
5.05177e-06
9.27051e-06
3.22914e-06
9.06427e-06
2.26397e-07
7.39433e-06
-4.29659e-06
4.49696e-06
-1.138e-05
-2.31522e-05
1.37082e-06
-6.02098e-07
-5.67614e-06
3.4206e-07
2.82611e-06
2.34229e-06
3.56562e-06
4.52999e-06
3.64714e-06
6.37612e-06
3.23019e-06
7.37942e-06
2.24822e-06
7.02871e-06
5.94702e-07
5.00828e-06
-2.26936e-06
1.43395e-06
-7.80191e-06
-1.92809e-05
-2.41899e-06
-1.36153e-06
-4.29552e-06
-7.0476e-07
2.22029e-06
9.84107e-07
1.93269e-06
2.82328e-06
1.85463e-06
4.41762e-06
1.6802e-06
5.36922e-06
1.34276e-06
5.17015e-06
8.37993e-07
3.21609e-06
-2.79296e-07
-8.89253e-07
-3.66472e-06
-1.43532e-05
-5.78088e-06
-2.21909e-06
-2.05657e-06
-1.42562e-06
1.47787e-06
-1.35554e-07
6.92638e-07
1.16605e-06
5.95923e-07
2.36847e-06
5.24444e-07
3.28369e-06
4.84681e-07
3.63759e-06
5.49041e-07
2.78638e-06
6.33324e-07
-7.61473e-07
-7.08141e-08
-7.27936e-06
-7.81643e-06
-2.04095e-06
-5.4227e-07
1.67047e-07
7.83392e-07
1.33768e-06
1.85971e-06
2.44404e-06
3.10178e-06
3.03784e-06
-4.2582e-06
1.31864e-05
-5.02977e-05
1.21919e-05
-7.96729e-05
1.18999e-05
-0.000121794
1.23506e-05
-0.00017539
1.35379e-05
-0.000241109
1.65629e-05
-0.000331126
2.18398e-05
-0.000408699
2.15552e-05
-0.000560729
2.51503e-05
-0.000754371
-0.000180561
1.21195e-05
-4.90467e-05
1.12082e-05
-7.8764e-05
1.10391e-05
-0.000121614
1.12337e-05
-0.000175554
1.15783e-05
-0.000241413
1.26229e-05
-0.000332118
1.49877e-05
-0.000411221
1.34061e-05
-0.000559214
9.64995e-06
-0.000750434
-0.000170995
9.83448e-06
-4.76353e-05
9.1468e-06
-7.81112e-05
9.08855e-06
-0.000121636
8.95991e-06
-0.000175533
8.63488e-06
-0.000241105
8.20795e-06
-0.000331635
9.14014e-06
-0.000412059
6.13654e-06
-0.000556409
-2.21836e-06
-0.000742192
-0.000173187
6.83403e-06
-4.61034e-05
6.45634e-06
-7.77266e-05
6.50786e-06
-0.000121753
6.11511e-06
-0.000175268
5.33181e-06
-0.000240307
3.80368e-06
-0.000330121
3.60615e-06
-0.00041185
1.07758e-07
-0.000552942
-1.04014e-05
-0.000731871
-0.000183518
3.43771e-06
-4.45055e-05
3.46677e-06
-7.77257e-05
3.65707e-06
-0.000121975
3.12333e-06
-0.000174818
2.08889e-06
-0.000239217
-1.5194e-07
-0.000327892
-1.1236e-06
-0.000410902
-4.82089e-06
-0.00054916
-1.57996e-05
-0.000721079
-0.000199249
-5.55223e-08
-4.30411e-05
5.23812e-07
-7.82653e-05
8.40241e-07
-0.000122303
2.38389e-07
-0.000174245
-8.58762e-07
-0.000238027
-3.46591e-06
-0.000325299
-4.74798e-06
-0.000409658
-8.88212e-06
-0.000544919
-1.85642e-05
-0.000711566
-0.00021775
-3.17683e-06
-4.22416e-05
-2.02774e-06
-7.93681e-05
-1.70544e-06
-0.000122614
-2.36003e-06
-0.000173569
-3.44136e-06
-0.000236821
-6.27639e-06
-0.000322496
-7.69765e-06
-0.000408288
-1.19164e-05
-0.000540601
-1.93451e-05
-0.000704293
-0.000237043
-5.26743e-06
-4.27152e-05
-3.87066e-06
-8.07363e-05
-3.72156e-06
-0.000122761
-4.42841e-06
-0.00017283
-5.48327e-06
-0.000235638
-8.54855e-06
-0.000319496
-1.03617e-05
-0.000406552
-1.4083e-05
-0.000536795
-1.93248e-05
-0.000699193
-0.000256342
-5.69713e-06
-4.48527e-05
-4.51153e-06
-8.19641e-05
-4.85168e-06
-0.000122455
-5.73411e-06
-0.000171943
-6.71035e-06
-0.000234564
-9.7145e-06
-0.000316592
-1.1241e-05
-0.000405124
-1.27451e-05
-0.000535227
-1.80648e-05
-0.000693967
-0.00027444
-1.55774e-06
-4.75874e-05
-2.93335e-06
-8.06681e-05
-5.0622e-06
-0.000120422
-6.41014e-06
-0.000170649
-7.13391e-06
-0.000233795
-9.70016e-06
-0.0003141
-1.16737e-05
-0.000403167
-1.3003e-05
-0.000533982
-1.84519e-05
-0.000688665
-0.000292822
-5.82758e-07
-4.70546e-05
-2.68208e-06
-7.86519e-05
-4.21967e-06
-0.000118984
-5.00455e-06
-0.000169886
-5.01514e-06
-0.000233728
-5.31761e-06
-0.000313918
-6.17921e-06
-0.000402357
-1.96921e-06
-0.000538206
-2.72862e-06
-0.000688016
-0.000295538
5.04245e-07
-4.75924e-05
-1.13149e-06
-7.7075e-05
-2.41756e-06
-0.000117776
-2.89362e-06
-0.000169407
-2.96739e-06
-0.000233593
-3.57545e-06
-0.000313453
-4.33752e-06
-0.000401682
-1.02407e-06
-0.00054146
-1.45427e-06
-0.000687624
-0.000297039
-5.68487e-06
-4.05557e-05
-1.39048e-06
-8.011e-06
-7.4592e-05
-9.77686e-06
-0.000116081
-1.10906e-05
-0.000168149
-1.21912e-05
-0.000232483
-1.44105e-05
-0.000311331
-1.45908e-05
-0.000401532
-1.48538e-05
-0.00054124
-1.57661e-05
-0.000686751
-0.000312821
-1.09549e-05
-4.29347e-05
1.34198e-05
-1.05012e-05
-7.49423e-05
-1.07467e-05
-0.000115965
-1.1152e-05
-0.000167811
-1.1599e-05
-0.000232002
-1.31251e-05
-0.000309908
-1.5293e-05
-0.000399408
-1.42116e-05
-0.000542424
-1.72495e-05
-0.000683744
-0.000330102
-1.24518e-05
-4.55501e-05
1.51656e-05
-1.1084e-05
-7.62637e-05
-1.06268e-05
-0.000116588
-1.0549e-05
-0.000167954
-1.07298e-05
-0.000231769
-1.18995e-05
-0.00030882
-1.51084e-05
-0.000396215
-1.4826e-05
-0.000542751
-1.65458e-05
-0.000682059
-0.000346685
-1.10504e-05
-4.76237e-05
1.32018e-05
-9.72746e-06
-7.76448e-05
-9.05284e-06
-0.000117442
-8.71487e-06
-0.000168335
-8.69221e-06
-0.000231708
-9.38728e-06
-0.000308169
-1.27814e-05
-0.000392864
-1.31586e-05
-0.000542424
-1.44083e-05
-0.000680857
-0.000361123
-7.94281e-06
-4.92439e-05
9.56815e-06
-6.89033e-06
-7.88479e-05
-6.18252e-06
-0.000118311
-5.66308e-06
-0.000168865
-5.37705e-06
-0.000231892
-5.57689e-06
-0.000308015
-9.11603e-06
-0.000389383
-9.48199e-06
-0.000542112
-1.08904e-05
-0.000679493
-0.000372023
-3.70063e-06
-5.0447e-05
4.83547e-06
-2.93909e-06
-7.97979e-05
-2.22807e-06
-0.000119153
-1.45829e-06
-0.000169597
-6.93589e-07
-0.00023252
-1.84817e-08
-0.000308742
-3.0446e-06
-0.000386416
-3.08019e-06
-0.000542117
-5.33883e-06
-0.000677249
-0.000377368
1.05229e-06
-5.11848e-05
-4.15608e-07
1.57367e-06
-8.051e-05
2.36321e-06
-0.000120042
3.57884e-06
-0.000170722
5.09775e-06
-0.000233868
7.27779e-06
-0.000310983
6.87932e-06
-0.000386074
9.19037e-06
-0.00054444
5.69014e-06
-0.000673733
-0.000371758
5.75093e-06
-5.14704e-05
-5.57599e-06
6.0838e-06
-8.10173e-05
6.99954e-06
-0.000121026
8.71975e-06
-0.000172308
1.10362e-05
-0.000236007
1.53932e-05
-0.000315457
1.98837e-05
-0.000390658
2.96445e-05
-0.000554221
3.37977e-05
-0.000677955
-0.000338067
9.98087e-06
-5.14861e-05
-1.00757e-05
9.9683e-06
-8.11397e-05
1.07764e-05
-0.000121876
1.26228e-05
-0.000174021
1.50262e-05
-0.000238338
2.09117e-05
-0.000321734
3.0063e-05
-0.000400181
4.13333e-05
-0.000565344
6.51844e-05
-0.000701878
-0.000272632
1.28867e-05
-1.33072e-05
1.20933e-05
1.18942e-05
1.25527e-05
1.40027e-05
2.00162e-05
2.3311e-05
1.90171e-05
6.7241e-05
-1.3553e-05
1.22016e-05
-2.16284e-05
2.16381e-05
-2.55145e-05
1.91834e-05
-2.79496e-05
1.56458e-05
-2.97124e-05
1.12512e-05
-3.10572e-05
6.04289e-06
-3.19933e-05
3.537e-07
-3.24937e-05
-5.24595e-06
-3.28873e-05
-9.8254e-06
-1.29698e-05
-2.52887e-06
1.4812e-05
-6.63034e-06
2.59293e-05
-9.84283e-06
2.2583e-05
-1.19261e-05
1.78583e-05
-1.3356e-05
1.27615e-05
-1.45004e-05
7.22474e-06
-1.54855e-05
1.36089e-06
-1.63085e-05
-4.38554e-06
-1.71569e-05
-8.9222e-06
-1.18685e-05
1.85792e-06
1.30319e-05
2.47272e-06
2.54863e-05
1.63936e-06
2.35702e-05
6.63615e-07
1.89481e-05
-1.25252e-07
1.36277e-05
-8.87984e-07
8.04096e-06
-1.7799e-06
2.30525e-06
-2.84651e-06
-3.25927e-06
-3.87072e-06
-7.84927e-06
-1.06615e-05
3.37612e-06
9.71322e-06
7.3992e-06
2.15653e-05
9.34203e-06
2.16749e-05
1.01423e-05
1.81788e-05
1.0394e-05
1.33937e-05
1.02382e-05
8.2133e-06
9.6389e-06
2.93348e-06
8.53598e-06
-2.12656e-06
7.16206e-06
-6.4514e-06
-9.0745e-06
3.29839e-06
6.43685e-06
8.9396e-06
1.59206e-05
1.31104e-05
1.74293e-05
1.57316e-05
1.54963e-05
1.72145e-05
1.18628e-05
1.78518e-05
7.54735e-06
1.77385e-05
3.04274e-06
1.68796e-05
-1.26364e-06
1.54179e-05
-4.97433e-06
-7.22532e-06
2.69006e-06
3.73704e-06
8.3403e-06
1.0182e-05
1.3517e-05
1.20996e-05
1.74873e-05
1.14128e-05
2.01577e-05
9.11074e-06
2.16419e-05
6.01346e-06
2.20603e-05
2.60571e-06
2.1531e-05
-7.35015e-07
2.01758e-05
-3.60452e-06
-5.33724e-06
2.00262e-06
1.70867e-06
6.84436e-06
5.2071e-06
1.1964e-05
6.79732e-06
1.63633e-05
6.89026e-06
1.96148e-05
5.77523e-06
2.16814e-05
3.89701e-06
2.26076e-05
1.6579e-06
2.24749e-05
-6.06345e-07
2.14197e-05
-2.54511e-06
-3.70647e-06
1.52215e-06
1.57823e-07
5.21125e-06
1.37854e-06
9.4406e-06
2.39211e-06
1.33827e-05
2.83611e-06
1.65294e-05
2.55262e-06
1.86619e-05
1.71712e-06
1.97235e-05
5.70283e-07
1.97819e-05
-6.77499e-07
1.90054e-05
-1.77643e-06
-2.49781e-06
9.60156e-07
-8.27036e-07
3.22107e-06
-1.00444e-06
6.02092e-06
-5.3942e-07
8.76881e-06
3.60939e-09
1.10398e-05
2.25105e-07
1.25784e-05
1.41716e-07
1.32593e-05
-1.35567e-07
1.30818e-05
-5.16967e-07
1.22787e-05
-9.76009e-07
-1.62448e-06
-8.44511e-07
-1.91122e-06
-2.48892e-06
-2.51041e-06
-2.30175e-06
-2.17182e-06
-2.31769e-06
-2.84127e-06
-3.80826e-06
)
;

boundaryField
{
    right
    {
        type            cyclic;
        value           nonuniform List<scalar> 
20
(
0.000205408
0.000750635
0.000561338
0.000403145
0.000327524
0.000239493
0.000174521
0.000121725
8.04497e-05
5.11258e-05
3.32771e-05
1.81936e-05
5.01667e-06
-5.64197e-06
-1.36405e-05
-1.83425e-05
-1.98254e-05
-1.78368e-05
-1.14475e-05
5.38867e-06
)
;
    }
    left
    {
        type            cyclic;
        value           nonuniform List<scalar> 
20
(
-0.000205408
-0.000750635
-0.000561338
-0.000403145
-0.000327524
-0.000239493
-0.000174521
-0.000121725
-8.04497e-05
-5.11258e-05
-3.32771e-05
-1.81936e-05
-5.01667e-06
5.64197e-06
1.36405e-05
1.83425e-05
1.98254e-05
1.78368e-05
1.14475e-05
-5.38867e-06
)
;
    }
    outerWall
    {
        type            calculated;
        value           uniform 0;
    }
    stirrerWall
    {
        type            calculated;
        value           uniform 0;
    }
    top
    {
        type            empty;
        value           nonuniform List<scalar> 0();
    }
    bottom
    {
        type            empty;
        value           nonuniform List<scalar> 0();
    }
}


// ************************************************************************* //
