/*--------------------------------*- C++ -*----------------------------------*\
  =========                 |
  \\      /  F ield         | OpenFOAM: The Open Source CFD Toolbox
   \\    /   O peration     | Website:  https://openfoam.org
    \\  /    A nd           | Version:  10
     \\/     M anipulation  |
\*---------------------------------------------------------------------------*/
FoamFile
{
    format      ascii;
    class       volVectorField;
    location    "1200";
    object      U;
}
// * * * * * * * * * * * * * * * * * * * * * * * * * * * * * * * * * * * * * //

dimensions      [0 1 -1 0 0 0 0];

internalField   nonuniform List<vector> 
420
(
(0.633715 8.73857 3.15022e-18)
(-0.011697 11.2368 -2.87455e-17)
(-0.0140029 12.9765 -1.87266e-16)
(0.0632732 14.379 5.33789e-17)
(0.169853 15.508 -4.07993e-16)
(0.280295 16.379 0)
(0.361857 16.9759 0)
(0.377629 17.339 4.77713e-16)
(0.387408 17.4974 -4.9667e-16)
(0.343097 17.5319 0)
(-0.0666758 8.81078 1.71482e-17)
(-1.03221 11.1487 -5.59513e-17)
(-0.960295 12.8262 5.33757e-16)
(-0.954799 14.1914 -8.98171e-16)
(-0.91694 15.3156 2.78825e-16)
(-0.856581 16.1973 6.78807e-18)
(-0.803054 16.8101 2.51311e-15)
(-0.796458 17.2006 -6.73161e-16)
(-0.869103 17.429 1.01084e-15)
(-0.980282 17.5489 0)
(-0.71621 8.65551 -4.76094e-17)
(-1.87307 10.8991 -2.02334e-16)
(-1.81415 12.5543 5.39819e-16)
(-1.846 13.9008 1.02925e-15)
(-1.86751 15.0192 -6.82799e-16)
(-1.88427 15.9084 3.30979e-15)
(-1.93461 16.5608 1.45178e-15)
(-2.04778 17.0322 3.97406e-15)
(-2.23739 17.3463 -1.57119e-15)
(-2.41556 17.5121 -3.50606e-15)
(-1.35283 8.50489 6.57396e-17)
(-2.68225 10.5664 2.14325e-16)
(-2.69259 12.1855 -6.63992e-16)
(-2.78904 13.5149 6.90706e-16)
(-2.89168 14.6418 -1.34525e-15)
(-3.01118 15.5648 1.44882e-15)
(-3.18111 16.2823 -8.59838e-15)
(-3.40904 16.8333 0)
(-3.69062 17.2083 -3.59339e-15)
(-3.91829 17.3856 3.3906e-15)
(-1.98893 8.31603 0)
(-3.47998 10.1713 2.25954e-16)
(-3.59103 11.732 -2.14289e-16)
(-3.77629 13.0388 0)
(-3.97635 14.1781 -2.37377e-16)
(-4.20618 15.1465 -3.08649e-16)
(-4.49128 15.9383 2.98754e-15)
(-4.82196 16.5666 -3.59992e-15)
(-5.18056 16.9912 0)
(-5.45111 17.1579 -1.45369e-14)
(-2.62622 8.10478 -2.35279e-17)
(-4.27431 9.72853 0)
(-4.48741 11.2055 0)
(-4.77104 12.4804 1.15034e-15)
(-5.07445 13.629 -1.94853e-15)
(-5.41461 14.6435 2.27224e-15)
(-5.81032 15.5091 6.03719e-16)
(-6.24257 16.2113 8.33573e-15)
(-6.67905 16.6832 -1.08057e-14)
(-6.99579 16.8288 7.42844e-15)
(-3.27421 7.88411 0)
(-5.056 9.24481 -2.32979e-16)
(-5.36029 10.6173 -1.65806e-15)
(-5.74232 11.8477 -7.56585e-16)
(-6.15006 12.995 -3.39996e-15)
(-6.59912 14.0473 2.314e-15)
(-7.10562 14.9837 -5.8287e-15)
(-7.65087 15.7649 7.30416e-16)
(-8.18152 16.3027 -3.35821e-15)
(-8.5523 16.4345 -1.19677e-14)
(-3.9523 7.65564 4.39623e-17)
(-5.80825 8.72683 2.38237e-16)
(-6.18834 9.98414 2.26713e-15)
(-6.66754 11.1557 5.59546e-16)
(-7.18273 12.2809 2.13564e-15)
(-7.74123 13.3505 0)
(-8.35774 14.3508 6.04106e-15)
(-9.02142 15.2355 7.64749e-15)
(-9.65482 15.8925 9.31931e-15)
(-10.098 16.0283 9.48178e-15)
(-4.68238 7.3974 4.34785e-17)
(-6.4891 8.19258 2.42804e-16)
(-6.95597 9.34844 -2.58587e-16)
(-7.54509 10.4502 -1.63845e-15)
(-8.16994 11.518 5.3917e-15)
(-8.82149 12.5532 7.77437e-15)
(-9.50698 13.5591 -2.77031e-15)
(-10.2233 14.5182 0)
(-10.9225 15.3182 0)
(-11.4992 15.4726 -9.64651e-15)
(-5.51244 7.03964 -5.77645e-17)
(-6.92371 7.7468 6.90164e-16)
(-7.50378 8.76228 0)
(-8.23588 9.77327 0)
(-9.01302 10.7707 -3.39683e-15)
(-9.80966 11.7706 -3.10846e-17)
(-10.6144 12.7801 6.2616e-15)
(-11.4017 13.7977 -1.38413e-14)
(-12.1492 14.7375 1.65675e-14)
(-12.7918 15.0395 1.35325e-15)
(0.262368 17.3859 0)
(0.144081 16.9508 0)
(0.0685486 16.2065 0)
(0.0916401 15.4052 -8.25559e-16)
(-0.0343771 14.6506 0)
(0.233228 13.5345 0)
(1.10765 13.9295 8.85572e-16)
(-1.28222 11.836 0)
(1.4413 9.86548 0)
(0.769488 33.7973 0)
(-1.08669 17.4452 1.51002e-15)
(-1.18557 16.977 2.6179e-15)
(-1.18883 16.1668 1.21163e-16)
(-1.09654 15.3306 8.93597e-16)
(-1.18212 14.549 3.45682e-17)
(-0.934327 13.3745 1.0681e-15)
(-0.139193 13.7793 -5.75696e-17)
(-2.44463 11.6781 -9.8226e-17)
(0.267663 9.83695 -1.91007e-15)
(-2.07259 34.7598 -1.94366e-15)
(-2.53279 17.4052 1.37713e-15)
(-2.59089 16.8765 0)
(-2.49968 16.0168 -2.11037e-15)
(-2.33775 15.1822 -1.75416e-15)
(-2.37355 14.4016 5.24087e-15)
(-2.12895 13.2206 -1.04213e-15)
(-1.38083 13.6139 1.85159e-15)
(-3.52599 11.5261 0)
(-0.828425 10.0189 2.01674e-15)
(-4.99714 34.2995 -1.32069e-16)
(-4.03323 17.242 3.127e-15)
(-4.02832 16.6313 7.92224e-15)
(-3.82566 15.7461 -8.24108e-15)
(-3.59844 14.9408 3.23963e-15)
(-3.57729 14.1823 2.40871e-17)
(-3.32109 13.0239 0)
(-2.62755 13.3989 -1.86853e-15)
(-4.54067 11.3195 -2.59618e-15)
(-1.83085 10.1949 -2.01345e-15)
(-8.02798 33.5054 7.69697e-15)
(-5.55743 16.9442 2.88317e-15)
(-5.45865 16.233 -2.6193e-15)
(-5.13347 15.3544 8.47556e-15)
(-4.85087 14.6015 -3.3352e-15)
(-4.76817 13.8809 2.75118e-15)
(-4.48493 12.7682 -4.25845e-15)
(-3.84915 13.113 3.87996e-15)
(-5.50244 11.055 2.65277e-15)
(-2.84005 10.3693 0)
(-10.7946 32.2766 -1.53265e-14)
(-7.08132 16.5037 3.66367e-15)
(-6.83894 15.6817 -1.58562e-14)
(-6.39312 14.8525 -4.50342e-15)
(-6.07487 14.1684 1.03356e-14)
(-5.92881 13.4942 8.59862e-15)
(-5.60522 12.4496 2.35656e-16)
(-5.02871 12.7468 1.75938e-16)
(-6.41795 10.72 -2.78641e-15)
(-3.80531 10.4596 -3.01593e-15)
(-13.2567 30.6853 1.53453e-14)
(-8.57342 15.9136 3.80771e-15)
(-8.12258 14.9854 5.61503e-15)
(-7.57869 14.2525 0)
(-7.25109 13.6449 -3.45684e-15)
(-7.04582 13.0205 -5.51931e-15)
(-6.67801 12.0638 2.64943e-16)
(-6.17298 12.2928 -1.22349e-14)
(-7.31251 10.3683 -2.89853e-15)
(-4.69376 10.4204 5.67172e-15)
(-15.4725 28.9095 -7.28745e-15)
(-9.95552 15.1595 1.48106e-14)
(-9.27457 14.1687 -5.09728e-15)
(-8.67358 13.5787 0)
(-8.35937 13.0435 -1.85751e-16)
(-8.10379 12.4696 2.30305e-14)
(-7.70133 11.6127 -9.19697e-15)
(-7.27391 11.7585 -8.63843e-15)
(-8.16024 9.92571 6.0679e-15)
(-5.5249 10.2572 -5.59836e-15)
(-17.4708 26.9928 0)
(-10.9961 14.245 3.26818e-16)
(-10.3052 13.3026 -5.0356e-15)
(-9.68814 12.8749 0)
(-9.38603 12.3842 7.42161e-15)
(-9.08537 11.8534 -1.74196e-14)
(-8.65615 11.1055 9.48319e-15)
(-8.29458 11.1329 4.2451e-15)
(-8.83467 9.49128 0)
(-6.24329 10.0249 -2.6076e-16)
(-19.3034 24.9555 8.19877e-15)
(-11.2775 13.4726 4.35684e-16)
(-11.217 12.5119 6.54911e-17)
(-10.661 12.1699 0)
(-10.3304 11.6686 -1.45326e-14)
(-9.97321 11.1505 5.48345e-15)
(-9.51568 10.5393 -5.10064e-15)
(-9.20348 10.4407 4.27054e-15)
(-9.43399 8.92362 6.235e-16)
(-7.08036 9.71671 2.61534e-16)
(-20.9294 22.7183 -8.24289e-15)
(-11.1887 13.7809 3.11943e-15)
(-11.9482 12.0437 -5.52348e-15)
(-11.4783 11.6332 0)
(-11.0681 11.1285 0)
(-10.6335 10.6224 0)
(-10.1153 10.1215 -2.55584e-15)
(-9.83856 10.0912 1.08735e-14)
(-9.72317 8.54323 0)
(-7.34162 9.85674 0)
(-22.1513 21.0517 0)
(-11.9379 13.0912 -3.08014e-15)
(-12.5817 11.657 -5.56519e-15)
(-12.144 11.142 0)
(-11.6518 10.6267 3.85951e-15)
(-11.1546 10.127 -2.94526e-15)
(-10.6388 9.62964 2.60347e-15)
(-10.3469 9.61983 4.59209e-15)
(-9.97591 7.98665 -1.87859e-16)
(-7.74213 9.50526 1.51614e-15)
(-23.037 20.2031 0)
(-13.9458 11.4274 3.50215e-16)
(-13.4872 10.8041 -2.51194e-17)
(-12.9427 10.2608 0)
(-12.3768 9.75125 2.43924e-16)
(-11.8284 9.27271 6.53594e-15)
(-11.3244 8.79738 -4.64977e-15)
(-11.0709 8.63174 -1.32592e-14)
(-10.461 7.17423 -7.71182e-15)
(-8.60622 8.54942 1.29727e-14)
(-23.9819 18.5831 8.45516e-15)
(-15.1161 10.0703 -1.36707e-14)
(-14.4485 9.66669 5.12606e-15)
(-13.7893 9.25806 0)
(-13.1463 8.83216 -7.66822e-15)
(-12.5411 8.42604 -6.35284e-15)
(-11.9921 8.08809 1.0166e-14)
(-11.8045 7.80627 4.57493e-15)
(-10.9556 6.39077 0)
(-9.27909 8.08846 -7.21161e-15)
(-24.9761 16.1809 -5.03262e-16)
(-15.6763 8.72824 -2.92879e-16)
(-15.0758 8.47369 4.98557e-15)
(-14.4138 8.18983 0)
(-13.7517 7.85002 1.48733e-14)
(-13.1278 7.50402 -1.88429e-17)
(-12.5627 7.28397 -1.9743e-16)
(-12.4505 6.97922 9.46342e-15)
(-11.4025 5.48496 -7.16787e-15)
(-9.82721 7.55821 -7.03433e-15)
(-25.73 13.7993 0)
(-16.0554 7.54309 -3.02257e-15)
(-15.5267 7.36272 1.03157e-14)
(-14.8919 7.15282 9.00703e-15)
(-14.2363 6.88284 -1.05754e-14)
(-13.6149 6.58806 -1.84833e-14)
(-13.0374 6.47544 -4.14727e-16)
(-13.0143 6.18733 -4.69359e-15)
(-11.7765 4.64831 -3.67893e-15)
(-10.2838 7.02772 -7.65641e-15)
(-26.2924 11.4438 -8.61537e-15)
(-16.3434 6.4649 -9.30578e-15)
(-15.8641 6.32185 5.08629e-15)
(-15.2582 6.15932 -3.95673e-15)
(-14.6163 5.94436 -1.08787e-14)
(-14.0062 5.68901 8.58283e-15)
(-13.4205 5.68446 -3.99822e-16)
(-13.51 5.43401 8.80081e-15)
(-12.0864 3.81897 4.08729e-15)
(-10.6897 6.53051 4.32292e-15)
(-26.7003 9.15098 5.44976e-16)
(-16.5716 5.46405 2.7336e-15)
(-16.1271 5.3412 -2.56211e-15)
(-15.5402 5.20902 -1.37115e-16)
(-14.9054 5.03987 1.0703e-14)
(-14.3004 4.81652 -1.49685e-14)
(-13.704 4.9278 4.82633e-15)
(-13.9281 4.7491 -4.48137e-15)
(-12.3135 3.04503 1.03995e-14)
(-11.0917 6.09617 0)
(-27.0515 7.01066 2.42866e-16)
(-16.7684 4.50231 3.10013e-15)
(-16.3419 4.39262 2.598e-15)
(-15.7564 4.28121 4.43085e-15)
(-15.1125 4.15838 -7.05588e-15)
(-14.4949 3.97121 2.89657e-15)
(-13.8672 4.20178 0)
(-14.2246 4.12302 -2.04894e-15)
(-12.3913 2.42293 -6.87928e-15)
(-11.4808 5.8662 -4.06867e-17)
(-27.6254 5.23202 7.21569e-15)
(-16.9534 3.54096 1.45417e-15)
(-16.5192 3.44276 0)
(-15.9165 3.34867 2.21752e-15)
(-15.2462 3.27594 1.89581e-15)
(-14.6049 3.12538 1.10835e-16)
(-13.8992 3.48941 -1.15275e-15)
(-14.2347 3.46525 2.01309e-15)
(-12.1729 1.98952 0)
(-11.7477 6.07483 2.92457e-15)
(-28.2297 3.97092 5.7445e-15)
(-17.1489 2.55717 1.6653e-15)
(-16.6822 2.45727 -2.77989e-15)
(-16.0359 2.37322 -1.31048e-16)
(-15.3246 2.34003 7.73462e-16)
(-14.6502 2.19032 -5.83297e-17)
(-13.8854 2.69767 1.09671e-15)
(-14.1386 2.79453 -1.72998e-15)
(-11.4348 1.26225 3.79523e-17)
(-11.3802 6.0811 2.01271e-15)
(-27.5322 1.92882 -3.99182e-15)
(-17.2672 1.49822 2.21839e-29)
(-16.8299 1.38209 0)
(-16.14 1.2685 0)
(-15.3816 1.23589 -8.39694e-16)
(-14.6856 1.05399 0)
(-13.6184 1.40017 0)
(-13.9992 2.30741 9.03829e-16)
(-11.9741 -0.633218 0)
(-10.4327 2.95684 0)
(-34.6943 4.37493 -1.80996e-29)
(-14.8041 12.4354 1.04128e-15)
(-15.8176 10.1516 -7.56971e-15)
(-16.1831 8.7094 7.19811e-15)
(-16.4689 7.51009 -9.76499e-15)
(-16.7131 6.44511 6.53105e-15)
(-16.9099 5.46597 -1.37156e-14)
(-17.0762 4.5348 3.45828e-15)
(-17.2342 3.60706 -3.82186e-15)
(-17.4176 2.6277 0)
(-17.4805 1.55647 -4.21781e-16)
(-15.1814 11.8143 1.47513e-14)
(-16.0346 9.59788 0)
(-16.3832 8.4127 7.37311e-15)
(-16.6279 7.33081 -2.83615e-15)
(-16.8606 6.33884 -9.89487e-15)
(-17.0546 5.41361 0)
(-17.2102 4.53043 -3.87607e-15)
(-17.3418 3.64631 -1.80811e-15)
(-17.4886 2.67922 1.27374e-15)
(-17.5243 1.58927 -4.81474e-16)
(-14.703 11.0114 -1.21618e-14)
(-15.7318 8.91317 0)
(-16.2401 7.92305 6.58296e-15)
(-16.5205 6.99669 7.25102e-16)
(-16.7643 6.11054 8.23938e-15)
(-16.9679 5.25234 -3.85458e-15)
(-17.1249 4.41514 0)
(-17.2334 3.57219 5.11801e-15)
(-17.3284 2.64806 -8.68537e-16)
(-17.3971 1.57724 6.29178e-16)
(-13.6106 10.2544 5.52232e-15)
(-14.9615 8.37366 -2.0663e-15)
(-15.6992 7.46605 4.87725e-15)
(-16.1145 6.65018 -4.98319e-15)
(-16.4197 5.86471 6.09697e-16)
(-16.6593 5.07975 2.95792e-15)
(-16.8376 4.28931 -9.08537e-15)
(-16.9479 3.47424 1.66909e-15)
(-17.0092 2.58891 2.89596e-15)
(-17.0394 1.54633 8.26541e-17)
(-12.3918 9.54584 -8.12207e-15)
(-13.7982 7.89383 5.70399e-15)
(-14.7844 7.02512 0)
(-15.3648 6.25747 1.89607e-15)
(-15.7681 5.54057 2.00329e-15)
(-16.0669 4.81654 -3.10167e-16)
(-16.2805 4.06631 1.49645e-15)
(-16.4102 3.27331 3.52235e-15)
(-16.4659 2.4118 5.18039e-18)
(-16.4637 1.40644 3.27913e-16)
(-11.1854 8.84226 -3.20164e-15)
(-12.4672 7.45575 3.80895e-15)
(-13.5327 6.63263 1.66536e-15)
(-14.2454 5.89267 -2.61145e-15)
(-14.7702 5.20657 -1.65608e-15)
(-15.1513 4.51353 -2.40117e-16)
(-15.4091 3.79201 -2.81316e-15)
(-15.5655 3.02445 9.36565e-16)
(-15.6278 2.1899 2.78793e-16)
(-15.6084 1.22787 -3.2315e-16)
(-10.0288 8.13251 0)
(-11.0847 7.03015 -1.21769e-15)
(-12.1029 6.28036 4.84798e-16)
(-12.8727 5.56954 -6.01067e-16)
(-13.4649 4.89695 9.07644e-16)
(-13.9031 4.22102 0)
(-14.2131 3.51787 6.34865e-16)
(-14.4047 2.77206 9.98339e-16)
(-14.4839 1.96378 -8.77915e-16)
(-14.4756 1.04803 -3.15882e-17)
(-8.91241 7.42056 0)
(-9.73082 6.60015 -1.39876e-16)
(-10.61 5.94307 1.63311e-15)
(-11.3425 5.27577 -1.18327e-15)
(-11.9392 4.61818 0)
(-12.3999 3.95153 -1.61401e-16)
(-12.7306 3.25993 -5.72332e-16)
(-12.9361 2.53159 4.85672e-16)
(-13.0346 1.74938 4.97592e-16)
(-13.042 0.890702 -2.05511e-16)
(-7.82041 6.65715 -7.63008e-16)
(-8.45146 6.06256 1.42711e-16)
(-9.1562 5.45621 1.48666e-16)
(-9.78556 4.80608 -1.56666e-16)
(-10.3107 4.15023 0)
(-10.721 3.4815 1.74507e-16)
(-11.0135 2.79003 1.52477e-16)
(-11.1857 2.0755 -1.35937e-16)
(-11.2563 1.34832 -4.53735e-17)
(-11.2485 0.621329 -2.75422e-19)
(-6.37294 6.25155 -1.5757e-16)
(-6.56728 6.03262 -1.86454e-17)
(-6.94568 5.53804 -3.09643e-17)
(-7.34444 4.95577 0)
(-7.71817 4.36643 2.07628e-17)
(-8.03824 3.77837 0)
(-8.29136 3.1809 1.14453e-16)
(-8.47156 2.56291 -5.78455e-17)
(-8.59192 1.91848 1.71585e-17)
(-8.5854 1.27596 -2.10912e-18)
)
;

boundaryField
{
    right
    {
        type            cyclic;
    }
    left
    {
        type            cyclic;
    }
    outerWall
    {
        type            calculated;
        value           nonuniform List<vector> 
22
(
(-1.55201 41.8305 0)
(-4.64749 41.6006 0)
(-7.71741 41.1419 0)
(-10.7449 40.4569 0)
(-13.7132 39.5492 0)
(-16.6061 38.424 0)
(-19.4075 37.0874 0)
(-22.1022 35.5467 0)
(-24.6752 33.8104 0)
(-27.1124 31.8882 0)
(-28.9573 30.2506 0)
(-30.2506 28.9573 0)
(-31.8882 27.1124 0)
(-33.8104 24.6752 0)
(-35.5467 22.1022 0)
(-37.0874 19.4075 0)
(-38.424 16.6061 0)
(-39.5492 13.7132 0)
(-40.4569 10.7449 0)
(-41.1419 7.71741 0)
(-41.6006 4.64749 0)
(-41.8305 1.55201 0)
)
;
    }
    stirrerWall
    {
        type            calculated;
        value           nonuniform List<vector> 
42
(
(-0.310178 8.3662 0)
(-0.928834 8.32046 0)
(-1.54239 8.22894 0)
(-2.14746 8.09214 0)
(-2.74072 7.91082 0)
(-3.31888 7.68598 0)
(-3.87877 7.41885 0)
(-4.41729 7.11092 0)
(-4.93148 6.76387 0)
(-5.4185 6.37963 0)
(-6.07951 6.64185 0)
(-6.92878 7.56862 0)
(-7.77806 8.49539 0)
(-8.62734 9.42216 0)
(-9.47661 10.3489 0)
(-10.3259 11.2757 0)
(-11.1752 12.2025 0)
(-12.0244 13.1292 0)
(-12.8737 14.056 0)
(-13.723 14.9828 0)
(-14.4723 15.1215 0)
(-15.1215 14.4723 0)
(-14.9828 13.723 0)
(-14.056 12.8737 0)
(-13.1292 12.0244 0)
(-12.2025 11.1752 0)
(-11.2757 10.3259 0)
(-10.3489 9.47661 0)
(-9.42216 8.62734 0)
(-8.49539 7.77806 0)
(-7.56862 6.92878 0)
(-6.64185 6.07951 0)
(-6.37963 5.4185 0)
(-6.76387 4.93148 0)
(-7.11092 4.41729 0)
(-7.41885 3.87877 0)
(-7.68598 3.31888 0)
(-7.91082 2.74072 0)
(-8.09214 2.14746 0)
(-8.22894 1.54239 0)
(-8.32046 0.928834 0)
(-8.3662 0.310178 0)
)
;
    }
    top
    {
        type            empty;
    }
    bottom
    {
        type            empty;
    }
}


// ************************************************************************* //
