/*--------------------------------*- C++ -*----------------------------------*\
  =========                 |
  \\      /  F ield         | OpenFOAM: The Open Source CFD Toolbox
   \\    /   O peration     | Website:  https://openfoam.org
    \\  /    A nd           | Version:  10
     \\/     M anipulation  |
\*---------------------------------------------------------------------------*/
FoamFile
{
    format      ascii;
    class       volVectorField;
    location    "1200";
    object      Urel;
}
// * * * * * * * * * * * * * * * * * * * * * * * * * * * * * * * * * * * * * //

dimensions      [0 1 -1 0 0 0 0];

internalField   nonuniform List<vector> 
420
(
(0.967715 -0.269679 3.15022e-18)
(0.368804 0.975445 -2.87455e-17)
(0.413013 1.46163 -1.87266e-16)
(0.536814 1.61038 5.33789e-17)
(0.689927 1.48541 -4.07993e-16)
(0.846907 1.10229 0)
(0.975012 0.445003 0)
(1.03733 -0.44627 4.77713e-16)
(1.09366 -1.54223 -4.9667e-16)
(1.0959 -2.76221 0)
(0.933501 -0.148184 1.71482e-17)
(0.107214 0.943573 -5.59513e-17)
(0.318417 1.37454 5.33757e-16)
(0.463232 1.49288 -8.98171e-16)
(0.640433 1.37 2.78825e-16)
(0.840151 1.0045 6.78807e-18)
(1.03305 0.370029 2.51311e-15)
(1.17903 -0.486911 -6.73161e-16)
(1.24577 -1.50592 1.01084e-15)
(1.27399 -2.63353 0)
(0.944652 -0.204876 -4.76094e-17)
(0.0190209 0.806302 -2.02334e-16)
(0.309237 1.22871 5.39819e-16)
(0.50873 1.34216 1.02925e-15)
(0.718602 1.22724 -6.82799e-16)
(0.933264 0.883047 3.30979e-15)
(1.11435 0.301934 1.45178e-15)
(1.23264 -0.460359 3.97406e-15)
(1.27449 -1.37987 -1.57119e-15)
(1.3278 -2.44782 -3.50606e-15)
(0.95958 -0.208187 6.57396e-17)
(-0.0478978 0.641388 2.14325e-16)
(0.263797 1.04828 -6.63992e-16)
(0.48945 1.16511 6.90706e-16)
(0.708971 1.07927 -1.34525e-15)
(0.91167 0.789372 1.44882e-15)
(1.06396 0.293912 -8.59838e-15)
(1.15829 -0.36817 0)
(1.19897 -1.20628 -3.59339e-15)
(1.29359 -2.24221 3.3906e-15)
(0.962313 -0.201803 0)
(-0.117854 0.468794 2.25954e-16)
(0.182097 0.844326 -2.14289e-16)
(0.407945 0.965776 0)
(0.61905 0.919555 -2.37377e-16)
(0.800434 0.70225 -3.08649e-16)
(0.926583 0.308241 2.98754e-15)
(1.00719 -0.249256 -3.59992e-15)
(1.0599 -1.01063 0)
(1.20067 -2.02991 -1.45369e-14)
(0.947608 -0.17096 -2.35279e-17)
(-0.202914 0.301742 0)
(0.0817206 0.627345 0)
(0.295931 0.75054 1.15034e-15)
(0.490431 0.747258 -1.94853e-15)
(0.648257 0.609844 2.27224e-15)
(0.750573 0.32335 6.03719e-16)
(0.816382 -0.126625 8.33573e-15)
(0.877991 -0.806949 -1.08057e-14)
(1.05937 -1.8137 7.42844e-15)
(0.90253 -0.104014 0)
(-0.297727 0.145632 -2.32979e-16)
(-0.0202956 0.406696 -1.65806e-15)
(0.179529 0.525463 -7.56585e-16)
(0.353732 0.560951 -3.39996e-15)
(0.486684 0.501232 2.314e-15)
(0.562254 0.325645 -5.8287e-15)
(0.599109 -0.00532763 7.30416e-16)
(0.65061 -0.5798 -3.35821e-15)
(0.861998 -1.56026 -1.19677e-14)
(0.804348 -0.000931561 4.39623e-17)
(-0.389282 0.00528553 2.38237e-16)
(-0.106841 0.197282 2.26713e-15)
(0.0766282 0.303355 5.59546e-16)
(0.224223 0.362755 2.13564e-15)
(0.328587 0.366604 0)
(0.374998 0.300954 6.04106e-15)
(0.37429 0.119602 7.64749e-15)
(0.403898 -0.289468 9.31931e-15)
(0.623727 -1.21985 9.48178e-15)
(0.627985 0.11448 4.34785e-17)
(-0.43926 -0.103383 2.42804e-16)
(-0.166426 0.0391212 -2.58587e-16)
(-0.0156707 0.127335 -1.63845e-15)
(0.0994654 0.181309 5.3917e-15)
(0.187987 0.202654 7.77437e-15)
(0.242647 0.19468 -2.77031e-15)
(0.266482 0.139723 0)
(0.307597 -0.0744233 0)
(0.471115 -0.934179 -9.64651e-15)
(0.322403 0.170419 -5.77645e-17)
(-0.276289 -0.0779645 6.90164e-16)
(-0.0435316 -0.0183345 0)
(0.0373794 0.0366011 0)
(0.0733784 0.0778169 -3.39683e-15)
(0.0899797 0.121372 -3.10846e-17)
(0.0985797 0.174435 6.2616e-15)
(0.124601 0.235584 -1.38413e-14)
(0.19058 0.218807 1.65675e-14)
(0.361437 -0.435758 1.35325e-15)
(1.06198 -4.16935 0)
(0.993297 -5.94128 0)
(0.97269 -8.16564 0)
(1.0566 -10.6057 -8.25559e-16)
(0.99791 -13.1748 0)
(1.34006 -16.2997 0)
(2.29703 -18.1289 8.85572e-16)
(-0.00145697 -22.6851 0)
(2.82324 -27.3821 0)
(2.26346 -6.46911 0)
(1.30773 -3.99143 1.51002e-15)
(1.3574 -5.78909 2.6179e-15)
(1.51862 -8.0713 1.21163e-16)
(1.79301 -10.5372 8.93597e-16)
(1.90906 -13.1234 3.45682e-17)
(2.38009 -16.2957 1.0681e-15)
(3.42238 -18.1029 -5.75696e-17)
(1.3906 -22.6532 -9.8226e-17)
(4.40589 -27.206 -1.91007e-15)
(2.4011 -5.28537 -1.94366e-15)
(1.44328 -3.79516 1.37713e-15)
(1.63186 -5.63865 0)
(1.99619 -7.95412 -2.11037e-15)
(2.46051 -10.4005 -1.75416e-15)
(2.75952 -12.9657 5.24087e-15)
(3.37482 -16.1225 -1.04213e-15)
(4.53337 -17.9168 1.85159e-15)
(2.84263 -22.4266 0)
(6.04332 -26.6155 2.01674e-15)
(2.43166 -5.30407 -1.32069e-16)
(1.50265 -3.60555 3.127e-15)
(1.85101 -5.50912 7.92224e-15)
(2.43392 -7.82577 -8.24108e-15)
(3.08216 -10.216 3.23963e-15)
(3.56946 -12.7293 2.40871e-17)
(4.34177 -15.8307 0)
(5.60674 -17.6068 -1.86853e-15)
(4.3263 -22.068 -2.59618e-15)
(7.73662 -25.8296 -2.01345e-15)
(2.31506 -5.43873 7.69697e-15)
(1.50786 -3.43597 2.88317e-15)
(2.04496 -5.41104 -2.6193e-15)
(2.85544 -7.689 8.47556e-15)
(3.67535 -9.99128 -3.3352e-15)
(4.35297 -12.4273 2.75118e-15)
(5.29489 -15.4392 -4.25845e-15)
(6.65996 -17.1973 3.87996e-15)
(5.81411 -21.5836 2.65277e-15)
(9.3705 -24.8471 0)
(2.40577 -5.79391 -1.53265e-14)
(1.47458 -3.29724 3.66367e-15)
(2.24773 -5.34705 -1.58562e-14)
(3.28122 -7.5358 -4.50342e-15)
(4.25012 -9.72507 1.03356e-14)
(5.11659 -12.0658 8.59862e-15)
(6.23779 -14.9556 2.35656e-16)
(7.69741 -16.7014 1.75938e-16)
(7.28594 -20.9901 -2.78641e-15)
(10.9811 -23.7549 -3.01593e-15)
(2.72841 -6.30211 1.53453e-14)
(1.4261 -3.19926 3.80771e-15)
(2.49724 -5.31254 5.61503e-15)
(3.72792 -7.35763 0)
(4.81592 -9.41803 -3.45684e-15)
(5.86311 -11.6509 -5.51931e-15)
(7.16308 -14.3886 2.64943e-16)
(8.70017 -16.1313 -1.22349e-14)
(8.70333 -20.239 -2.89853e-15)
(12.5872 -22.6041 5.67172e-15)
(3.20931 -6.79125 -7.28745e-15)
(1.43273 -3.16026 1.48106e-14)
(2.82008 -5.28692 -5.09728e-15)
(4.20319 -7.13445 0)
(5.38335 -9.06207 -1.85751e-16)
(6.59771 -11.1775 2.30305e-14)
(8.06172 -13.7413 -9.19697e-15)
(9.66447 -15.4853 -8.63843e-15)
(10.0795 -19.4105 6.0679e-15)
(14.1556 -21.3956 -5.59836e-15)
(3.8049 -7.22493 0)
(1.71832 -3.18105 3.26818e-16)
(3.19788 -5.20375 -5.0356e-15)
(4.68804 -6.82751 0)
(5.95688 -8.64245 7.42161e-15)
(7.32789 -10.6395 -1.74196e-14)
(8.94219 -13.0108 9.48319e-15)
(10.6159 -14.7808 4.2451e-15)
(11.5285 -18.4124 0)
(15.7284 -20.0821 -2.6076e-16)
(4.4491 -7.59101 8.19877e-15)
(2.69333 -2.96408 4.35684e-16)
(3.62026 -4.94347 6.54911e-17)
(5.13558 -6.4135 0)
(6.52839 -8.1637 -1.45326e-14)
(8.06159 -10.0645 5.48345e-15)
(9.8212 -12.2067 -5.10064e-15)
(11.575 -14.0003 4.27054e-15)
(12.9407 -17.3941 6.235e-16)
(17.0616 -18.6789 2.61534e-16)
(5.16916 -7.978 -8.24289e-15)
(3.727 -1.80354 3.11943e-15)
(3.89333 -4.50773 -5.52348e-15)
(5.38821 -5.98882 0)
(6.93338 -7.67894 0)
(8.62456 -9.49742 0)
(10.534 -11.4515 -2.55584e-15)
(12.3511 -13.0906 1.08735e-14)
(14.172 -16.4199 0)
(18.4418 -17.0786 0)
(5.72279 -8.06736 0)
(3.6466 -1.82446 -3.08014e-15)
(3.96972 -4.1845 -5.56519e-15)
(5.47808 -5.72455 0)
(7.15558 -7.37473 3.85951e-15)
(8.96529 -9.13103 -2.94526e-15)
(10.9342 -11.0197 2.60347e-15)
(12.8349 -12.5698 4.59209e-15)
(14.9872 -15.9085 -1.87859e-16)
(19.1933 -16.2782 1.51614e-15)
(6.08199 -7.67101 0)
(2.4908 -2.54341 3.50215e-16)
(3.9682 -4.03315 -2.51194e-17)
(5.64067 -5.53577 0)
(7.45545 -7.10753 2.43924e-16)
(9.38665 -8.76209 6.53594e-15)
(11.4216 -10.5395 -4.64977e-15)
(13.3702 -12.1468 -1.32592e-14)
(15.8567 -15.2005 -7.71182e-15)
(19.7894 -15.5925 1.29727e-14)
(6.71435 -7.5155 8.45516e-15)
(2.30997 -2.64415 -1.36707e-14)
(4.05788 -3.83634 5.12606e-15)
(5.91311 -5.11811 0)
(7.88043 -6.51075 -7.66822e-15)
(9.95177 -7.98723 -6.35284e-15)
(12.1242 -9.51025 1.0166e-14)
(14.1092 -11.1042 4.57493e-15)
(16.9481 -13.9724 0)
(20.8279 -13.8832 -7.21161e-15)
(7.5704 -7.57164 -5.03262e-16)
(2.64345 -2.66001 -2.92879e-16)
(4.37982 -3.62096 4.98557e-15)
(6.2994 -4.68694 0)
(8.35388 -5.8927 1.48733e-14)
(10.5194 -7.19749 -1.88429e-17)
(12.7913 -8.47908 -1.9743e-16)
(14.7933 -9.95916 9.46342e-15)
(17.9337 -12.7547 -7.16787e-15)
(21.8256 -12.1223 -7.03433e-15)
(8.48778 -7.4764 0)
(3.05741 -2.45643 -3.02257e-15)
(4.77124 -3.2571 1.03157e-14)
(6.71825 -4.15379 9.00703e-15)
(8.82663 -5.18417 -1.05754e-14)
(11.0565 -6.32087 -1.84833e-14)
(13.415 -7.36564 -4.14727e-16)
(15.4098 -8.68582 -4.69359e-15)
(18.8309 -11.3675 -3.67893e-15)
(22.7407 -10.2533 -7.65641e-15)
(9.40834 -7.23802 -8.61537e-15)
(3.45746 -2.091 -9.30578e-15)
(5.16466 -2.76482 5.08629e-15)
(7.13007 -3.51502 -3.95673e-15)
(9.27719 -4.38063 -1.08787e-14)
(11.5539 -5.35638 8.58283e-15)
(13.9847 -6.15855 -3.99822e-16)
(15.9382 -7.29212 8.80081e-15)
(19.6238 -9.88493 4.08729e-15)
(23.5249 -8.25595 4.32292e-15)
(10.2871 -6.83408 5.44976e-16)
(3.80864 -1.60124 2.7336e-15)
(5.51699 -2.16241 -2.56211e-15)
(7.50321 -2.77988 -1.37115e-16)
(9.68738 -3.48636 1.0703e-14)
(12.0078 -4.30462 -1.49685e-14)
(14.5034 -4.85202 4.82633e-15)
(16.3822 -5.76001 -4.48137e-15)
(20.3251 -8.27152 1.03995e-14)
(24.1247 -6.11438 0)
(11.019 -6.18971 2.42866e-16)
(4.07914 -1.03358 3.10013e-15)
(5.79849 -1.48671 2.598e-15)
(7.81549 -1.97837 4.43085e-15)
(10.0443 -2.52223 -7.05588e-15)
(12.4168 -3.17553 2.89657e-15)
(14.9873 -3.46108 0)
(16.7811 -4.11127 -2.04894e-15)
(20.9962 -6.44405 -6.87928e-15)
(24.5437 -3.70126 -4.06867e-17)
(11.3188 -5.11102 7.21569e-15)
(4.24691 -0.435105 1.45417e-15)
(5.99597 -0.779985 0)
(8.05441 -1.14719 2.21752e-15)
(10.3364 -1.52232 1.89581e-15)
(12.7623 -2.00769 1.10835e-16)
(15.4439 -2.01436 -1.15275e-15)
(17.296 -2.44894 2.01309e-15)
(21.7798 -4.3791 0)
(24.8867 -0.796917 2.92457e-15)
(11.3739 -3.45787 5.7445e-15)
(4.28776 0.162756 1.6653e-15)
(6.08398 -0.0856979 -2.77989e-15)
(8.20225 -0.334223 -1.31048e-16)
(10.5433 -0.549519 7.73462e-16)
(13.0222 -0.900855 -5.83297e-17)
(15.7848 -0.616741 1.09671e-15)
(17.7436 -0.767048 -1.72998e-15)
(22.8965 -2.57298 3.79523e-17)
(25.6627 1.94288 2.01271e-15)
(12.5129 -2.54487 -3.99182e-15)
(4.28808 0.698617 2.21839e-29)
(6.06218 0.532873 0)
(8.23216 0.36436 0)
(10.6293 0.270939 -8.39694e-16)
(13.1397 0.0217042 0)
(16.2158 0.293335 0)
(18.0592 1.11804 9.03829e-16)
(22.547 -1.91398 0)
(26.8149 1.57489 0)
(5.57206 2.88096 -1.80996e-29)
(0.671163 -0.717787 1.04128e-15)
(0.589174 -1.81877 -7.56971e-15)
(1.06497 -2.01236 7.19811e-15)
(1.52578 -1.90421 -9.76499e-15)
(1.92939 -1.61005 6.53105e-15)
(2.27796 -1.18582 -1.37156e-14)
(2.55161 -0.677077 3.45828e-15)
(2.72576 -0.136295 -3.82186e-15)
(2.76486 0.37343 0)
(2.81361 0.803668 -4.21781e-16)
(-0.662806 -0.525499 1.47513e-14)
(-0.642028 -1.63219 0)
(-0.20124 -1.64602 7.37311e-15)
(0.254548 -1.50132 -2.83615e-15)
(0.6296 -1.2182 -9.89487e-15)
(0.947277 -0.826846 0)
(1.20436 -0.359167 -3.87607e-15)
(1.38442 0.134434 -1.80811e-15)
(1.44637 0.564347 1.27374e-15)
(1.51536 0.883017 -4.81474e-16)
(-1.14091 -0.514974 -1.21618e-14)
(-1.35333 -1.57666 0)
(-1.12423 -1.47265 6.58296e-15)
(-0.750252 -1.25329 7.25102e-16)
(-0.426325 -0.948409 8.23938e-15)
(-0.151982 -0.576804 -3.85458e-15)
(0.0765407 -0.152182 0)
(0.259133 0.291776 5.11801e-15)
(0.359066 0.67257 -8.68537e-16)
(0.388181 0.917537 6.29178e-16)
(-1.00503 -0.458568 5.52232e-15)
(-1.59703 -1.37596 -2.0663e-15)
(-1.64937 -1.26668 4.87725e-15)
(-1.45637 -1.01769 -4.98319e-15)
(-1.23396 -0.696177 6.09697e-16)
(-1.02933 -0.338109 2.95792e-15)
(-0.849238 0.0442393 -9.08537e-15)
(-0.689009 0.425279 1.66909e-15)
(-0.569149 0.752804 2.89596e-15)
(-0.508512 0.933172 8.26541e-17)
(-0.742643 -0.353805 -8.12207e-15)
(-1.44772 -1.11565 5.70399e-15)
(-1.80047 -1.0447 0)
(-1.81881 -0.828339 1.89607e-15)
(-1.73444 -0.522297 2.00329e-15)
(-1.62266 -0.190065 -3.10167e-16)
(-1.5051 0.143465 1.49645e-15)
(-1.38481 0.455785 3.52235e-15)
(-1.27314 0.715071 5.18039e-18)
(-1.18706 0.839825 3.27913e-16)
(-0.492499 -0.244143 -3.20164e-15)
(-1.13052 -0.813648 3.80895e-15)
(-1.61458 -0.774326 1.66536e-15)
(-1.81138 -0.61112 -2.61145e-15)
(-1.8885 -0.358312 -1.65608e-15)
(-1.89274 -0.0818697 -2.40117e-16)
(-1.84657 0.191357 -2.81316e-15)
(-1.77356 0.438333 9.36565e-16)
(-1.68219 0.632526 2.78793e-16)
(-1.58578 0.707801 -3.2315e-16)
(-0.292144 -0.140749 0)
(-0.761768 -0.499263 -1.21769e-15)
(-1.25047 -0.463815 4.84798e-16)
(-1.55048 -0.352304 -6.01067e-16)
(-1.73501 -0.17002 9.07644e-16)
(-1.8301 0.0367908 0)
(-1.86331 0.239376 6.34865e-16)
(-1.84606 0.41733 9.98339e-16)
(-1.78531 0.54575 -8.77915e-16)
(-1.70704 0.574485 -3.15882e-17)
(-0.1318 -0.0396868 0)
(-0.421497 -0.1894 -1.39876e-16)
(-0.823193 -0.138432 1.63311e-15)
(-1.13196 -0.0642241 -1.18327e-15)
(-1.36104 0.0490491 0)
(-1.51228 0.178401 -1.61401e-16)
(-1.59332 0.303544 -5.72332e-16)
(-1.61045 0.408204 4.85672e-16)
(-1.58289 0.47067 4.97592e-16)
(-1.52715 0.463686 -2.05511e-16)
(0.00435833 0.00973263 -7.63008e-16)
(-0.155496 0.0127147 1.42711e-16)
(-0.434652 0.0372456 1.48666e-16)
(-0.686381 0.0478046 -1.56666e-16)
(-0.883939 0.0788339 0)
(-1.01844 0.119379 1.74507e-16)
(-1.08858 0.155684 1.52477e-16)
(-1.09289 0.183413 -1.35937e-16)
(-1.05115 0.208893 -4.53735e-17)
(-0.987149 0.240829 -2.75422e-19)
(0.496281 0.416714 -1.5757e-16)
(0.715638 0.722251 -1.86454e-17)
(0.710892 0.781388 -3.09643e-17)
(0.64368 0.779034 0)
(0.557563 0.792601 2.07628e-17)
(0.47959 0.827127 0)
(0.421716 0.86849 1.14453e-16)
(0.388823 0.902053 -5.78455e-17)
(0.367045 0.918303 1.71585e-17)
(0.422852 0.941961 -2.10912e-18)
)
;

boundaryField
{
    right
    {
        type            cyclic;
    }
    left
    {
        type            cyclic;
    }
    outerWall
    {
        type            noSlip;
    }
    stirrerWall
    {
        type            noSlip;
    }
    top
    {
        type            empty;
    }
    bottom
    {
        type            empty;
    }
}


// ************************************************************************* //
