/*--------------------------------*- C++ -*----------------------------------*\
  =========                 |
  \\      /  F ield         | OpenFOAM: The Open Source CFD Toolbox
   \\    /   O peration     | Website:  https://openfoam.org
    \\  /    A nd           | Version:  10
     \\/     M anipulation  |
\*---------------------------------------------------------------------------*/
FoamFile
{
    format      ascii;
    class       volScalarField;
    location    "17000";
    object      k;
}
// * * * * * * * * * * * * * * * * * * * * * * * * * * * * * * * * * * * * * //

dimensions      [0 2 -2 0 0 0 0];

internalField   nonuniform List<scalar> 
17808
(
0.144801
0.166596
0.153513
0.1487
0.146622
0.145531
0.144879
0.144446
0.144131
0.14388
0.143664
0.143466
0.143276
0.143087
0.142895
0.142698
0.142494
0.142282
0.14206
0.14183
0.14159
0.14134
0.141081
0.140813
0.140536
0.14025
0.139955
0.139651
0.13934
0.13902
0.138692
0.138357
0.138015
0.137665
0.137308
0.136945
0.136574
0.136198
0.135815
0.135427
0.135033
0.134633
0.134228
0.133817
0.133402
0.132981
0.132556
0.132127
0.131693
0.131255
0.130813
0.130367
0.129917
0.129463
0.129007
0.128547
0.128083
0.127617
0.127148
0.126676
0.126201
0.125724
0.125244
0.124763
0.124279
0.123792
0.123304
0.122814
0.122323
0.121829
0.121334
0.120838
0.12034
0.119841
0.119341
0.118839
0.118337
0.117833
0.117329
0.116823
0.116317
0.11581
0.115302
0.114793
0.114284
0.113774
0.113264
0.112753
0.112241
0.111728
0.111215
0.110702
0.144773
0.166574
0.153501
0.148749
0.146693
0.14561
0.144959
0.144523
0.144204
0.143948
0.143727
0.143525
0.14333
0.143138
0.142942
0.142742
0.142534
0.142319
0.142095
0.141862
0.14162
0.141368
0.141108
0.140838
0.140559
0.140271
0.139975
0.139671
0.139358
0.139037
0.138708
0.138372
0.138029
0.137678
0.137321
0.136956
0.136586
0.136209
0.135826
0.135437
0.135042
0.134641
0.134236
0.133825
0.133409
0.132988
0.132563
0.132133
0.131699
0.13126
0.130818
0.130372
0.129922
0.129468
0.129011
0.128551
0.128087
0.127621
0.127152
0.126679
0.126205
0.125727
0.125248
0.124766
0.124282
0.123795
0.123307
0.122817
0.122325
0.121832
0.121337
0.12084
0.120343
0.119843
0.119343
0.118841
0.118339
0.117835
0.11733
0.116825
0.116319
0.115811
0.115304
0.114795
0.114286
0.113776
0.113265
0.112754
0.112242
0.11173
0.111216
0.110703
0.144804
0.166517
0.153446
0.148733
0.146697
0.145629
0.144987
0.144557
0.14424
0.143986
0.143766
0.143563
0.143368
0.143175
0.142978
0.142776
0.142568
0.142351
0.142125
0.141891
0.141647
0.141395
0.141133
0.140861
0.140581
0.140293
0.139995
0.13969
0.139376
0.139054
0.138725
0.138388
0.138043
0.137692
0.137334
0.136969
0.136597
0.13622
0.135836
0.135446
0.135051
0.13465
0.134244
0.133833
0.133417
0.132996
0.13257
0.13214
0.131705
0.131266
0.130824
0.130377
0.129927
0.129473
0.129016
0.128555
0.128092
0.127625
0.127156
0.126683
0.126208
0.125731
0.125251
0.124769
0.124285
0.123798
0.12331
0.12282
0.122328
0.121835
0.121339
0.120843
0.120345
0.119846
0.119345
0.118844
0.118341
0.117837
0.117332
0.116827
0.11632
0.115813
0.115305
0.114796
0.114287
0.113777
0.113266
0.112755
0.112243
0.111731
0.111217
0.110704
0.144834
0.166475
0.153408
0.148712
0.146692
0.145636
0.145001
0.144575
0.144262
0.14401
0.143791
0.143589
0.143395
0.143201
0.143005
0.142803
0.142594
0.142377
0.142151
0.141916
0.141671
0.141418
0.141155
0.140883
0.140602
0.140312
0.140014
0.139708
0.139393
0.139071
0.13874
0.138403
0.138058
0.137706
0.137347
0.136981
0.136609
0.136231
0.135847
0.135457
0.135061
0.13466
0.134253
0.133841
0.133425
0.133003
0.132577
0.132146
0.131712
0.131273
0.13083
0.130383
0.129932
0.129478
0.129021
0.12856
0.128096
0.127629
0.12716
0.126687
0.126212
0.125735
0.125255
0.124772
0.124288
0.123802
0.123313
0.122823
0.122331
0.121837
0.121342
0.120845
0.120347
0.119848
0.119347
0.118846
0.118343
0.117839
0.117334
0.116829
0.116322
0.115815
0.115307
0.114798
0.114289
0.113778
0.113268
0.112756
0.112244
0.111732
0.111219
0.110705
0.144863
0.166443
0.153377
0.148688
0.146682
0.145637
0.14501
0.144589
0.144278
0.144027
0.14381
0.143609
0.143415
0.143222
0.143026
0.142824
0.142615
0.142398
0.142172
0.141936
0.141692
0.141438
0.141174
0.140902
0.140621
0.140331
0.140032
0.139725
0.139409
0.139086
0.138755
0.138417
0.138072
0.137719
0.13736
0.136993
0.136621
0.136242
0.135857
0.135467
0.135071
0.134669
0.134262
0.13385
0.133433
0.133011
0.132584
0.132154
0.131718
0.131279
0.130836
0.130389
0.129938
0.129484
0.129026
0.128565
0.128101
0.127634
0.127164
0.126691
0.126216
0.125738
0.125258
0.124776
0.124291
0.123805
0.123316
0.122826
0.122334
0.12184
0.121345
0.120848
0.12035
0.11985
0.11935
0.118848
0.118345
0.117841
0.117336
0.116831
0.116324
0.115817
0.115309
0.1148
0.11429
0.11378
0.113269
0.112758
0.112246
0.111733
0.11122
0.110706
0.144895
0.166417
0.153347
0.14866
0.146667
0.145632
0.145011
0.144594
0.144287
0.144038
0.143822
0.143622
0.14343
0.143237
0.143042
0.14284
0.142632
0.142415
0.142189
0.141953
0.141709
0.141455
0.141191
0.140919
0.140637
0.140347
0.140048
0.13974
0.139424
0.139101
0.13877
0.138431
0.138085
0.137732
0.137372
0.137005
0.136632
0.136253
0.135868
0.135477
0.13508
0.134678
0.134271
0.133858
0.133441
0.133019
0.132592
0.132161
0.131725
0.131286
0.130842
0.130395
0.129944
0.129489
0.129031
0.12857
0.128106
0.127639
0.127169
0.126696
0.12622
0.125742
0.125262
0.12478
0.124295
0.123808
0.12332
0.122829
0.122337
0.121843
0.121348
0.120851
0.120352
0.119853
0.119352
0.11885
0.118347
0.117843
0.117338
0.116833
0.116326
0.115819
0.11531
0.114801
0.114292
0.113782
0.113271
0.112759
0.112247
0.111734
0.111221
0.110707
0.144927
0.166397
0.15332
0.148635
0.14665
0.145622
0.145007
0.144595
0.14429
0.144044
0.14383
0.143631
0.143439
0.143248
0.143053
0.142852
0.142644
0.142427
0.142202
0.141967
0.141723
0.141469
0.141205
0.140933
0.140651
0.140361
0.140061
0.139754
0.139438
0.139114
0.138783
0.138444
0.138097
0.137744
0.137384
0.137017
0.136643
0.136264
0.135878
0.135487
0.13509
0.134688
0.13428
0.133867
0.133449
0.133027
0.1326
0.132168
0.131732
0.131292
0.130849
0.130401
0.12995
0.129495
0.129037
0.128575
0.128111
0.127644
0.127173
0.1267
0.126225
0.125747
0.125266
0.124783
0.124299
0.123812
0.123323
0.122832
0.12234
0.121846
0.12135
0.120854
0.120355
0.119856
0.119355
0.118853
0.11835
0.117846
0.117341
0.116835
0.116328
0.11582
0.115312
0.114803
0.114293
0.113783
0.113272
0.112761
0.112248
0.111735
0.111222
0.110708
0.144956
0.166381
0.153298
0.148612
0.146632
0.14561
0.145001
0.144593
0.144292
0.144047
0.143834
0.143637
0.143446
0.143255
0.143061
0.142861
0.142654
0.142437
0.142212
0.141978
0.141734
0.14148
0.141217
0.140945
0.140663
0.140373
0.140074
0.139766
0.13945
0.139126
0.138795
0.138455
0.138109
0.137755
0.137395
0.137028
0.136654
0.136274
0.135888
0.135497
0.135099
0.134697
0.134289
0.133875
0.133457
0.133035
0.132607
0.132175
0.131739
0.131299
0.130855
0.130407
0.129956
0.129501
0.129042
0.128581
0.128116
0.127648
0.127178
0.126705
0.126229
0.125751
0.12527
0.124787
0.124302
0.123815
0.123326
0.122836
0.122343
0.121849
0.121353
0.120856
0.120358
0.119858
0.119357
0.118855
0.118352
0.117848
0.117343
0.116837
0.11633
0.115822
0.115314
0.114805
0.114295
0.113785
0.113274
0.112762
0.11225
0.111737
0.111223
0.110709
0.144982
0.166369
0.153279
0.148592
0.146615
0.145598
0.144993
0.144589
0.144291
0.144048
0.143837
0.143641
0.143451
0.143261
0.143067
0.142868
0.142661
0.142445
0.142221
0.141986
0.141743
0.14149
0.141227
0.140955
0.140673
0.140383
0.140084
0.139777
0.139461
0.139137
0.138805
0.138466
0.138119
0.137765
0.137405
0.137038
0.136664
0.136284
0.135898
0.135506
0.135108
0.134705
0.134297
0.133884
0.133465
0.133042
0.132615
0.132183
0.131746
0.131306
0.130862
0.130414
0.129962
0.129507
0.129048
0.128586
0.128121
0.127654
0.127183
0.126709
0.126234
0.125755
0.125274
0.124791
0.124306
0.123819
0.12333
0.122839
0.122346
0.121852
0.121357
0.120859
0.120361
0.119861
0.11936
0.118858
0.118354
0.11785
0.117345
0.116839
0.116332
0.115824
0.115316
0.114807
0.114297
0.113786
0.113275
0.112764
0.112251
0.111738
0.111225
0.11071
0.145005
0.16636
0.153263
0.148574
0.146599
0.145585
0.144985
0.144584
0.144288
0.144048
0.143838
0.143643
0.143454
0.143264
0.143072
0.142873
0.142666
0.142451
0.142227
0.141993
0.14175
0.141497
0.141235
0.140963
0.140682
0.140392
0.140093
0.139786
0.13947
0.139146
0.138815
0.138475
0.138129
0.137775
0.137414
0.137047
0.136673
0.136293
0.135907
0.135515
0.135117
0.134714
0.134305
0.133892
0.133473
0.13305
0.132622
0.13219
0.131753
0.131313
0.130868
0.13042
0.129968
0.129513
0.129054
0.128592
0.128127
0.127659
0.127188
0.126714
0.126238
0.12576
0.125279
0.124795
0.12431
0.123823
0.123334
0.122843
0.12235
0.121856
0.12136
0.120862
0.120364
0.119864
0.119363
0.11886
0.118357
0.117853
0.117347
0.116841
0.116334
0.115827
0.115318
0.114809
0.114299
0.113788
0.113277
0.112765
0.112253
0.11174
0.111226
0.110712
0.145025
0.166353
0.153249
0.148559
0.146585
0.145573
0.144975
0.144578
0.144284
0.144046
0.143837
0.143643
0.143455
0.143267
0.143074
0.142876
0.14267
0.142456
0.142232
0.141999
0.141756
0.141503
0.141241
0.14097
0.140689
0.1404
0.140101
0.139794
0.139478
0.139154
0.138823
0.138484
0.138137
0.137783
0.137423
0.137055
0.136681
0.136301
0.135915
0.135523
0.135125
0.134722
0.134313
0.133899
0.133481
0.133057
0.132629
0.132197
0.13176
0.131319
0.130875
0.130426
0.129974
0.129518
0.129059
0.128597
0.128132
0.127664
0.127193
0.126719
0.126243
0.125764
0.125283
0.1248
0.124314
0.123827
0.123337
0.122846
0.122353
0.121859
0.121363
0.120866
0.120367
0.119867
0.119365
0.118863
0.11836
0.117855
0.11735
0.116844
0.116337
0.115829
0.11532
0.114811
0.114301
0.11379
0.113279
0.112767
0.112254
0.111741
0.111227
0.110713
0.145042
0.166347
0.153239
0.148547
0.146572
0.145561
0.144966
0.144571
0.144279
0.144043
0.143836
0.143643
0.143456
0.143268
0.143076
0.142879
0.142673
0.142459
0.142236
0.142003
0.141761
0.141508
0.141247
0.140976
0.140695
0.140406
0.140108
0.139801
0.139485
0.139162
0.13883
0.138491
0.138145
0.137791
0.13743
0.137063
0.136689
0.136309
0.135923
0.13553
0.135133
0.134729
0.13432
0.133907
0.133488
0.133064
0.132636
0.132204
0.131767
0.131326
0.130881
0.130432
0.12998
0.129524
0.129065
0.128603
0.128137
0.127669
0.127198
0.126724
0.126247
0.125769
0.125287
0.124804
0.124318
0.123831
0.123341
0.12285
0.122357
0.121862
0.121366
0.120869
0.12037
0.11987
0.119368
0.118866
0.118362
0.117858
0.117352
0.116846
0.116339
0.115831
0.115322
0.114813
0.114303
0.113792
0.113281
0.112769
0.112256
0.111743
0.111229
0.110715
0.145058
0.166343
0.15323
0.148537
0.14656
0.14555
0.144956
0.144563
0.144274
0.144039
0.143833
0.143642
0.143455
0.143268
0.143077
0.14288
0.142675
0.142461
0.142239
0.142006
0.141764
0.141512
0.141251
0.14098
0.1407
0.140411
0.140113
0.139806
0.139491
0.139168
0.138837
0.138498
0.138152
0.137798
0.137437
0.13707
0.136696
0.136316
0.13593
0.135537
0.13514
0.134736
0.134327
0.133913
0.133495
0.133071
0.132643
0.13221
0.131773
0.131332
0.130887
0.130438
0.129986
0.12953
0.129071
0.128608
0.128143
0.127674
0.127203
0.126729
0.126252
0.125773
0.125292
0.124808
0.124322
0.123835
0.123345
0.122854
0.122361
0.121866
0.12137
0.120872
0.120373
0.119873
0.119371
0.118869
0.118365
0.117861
0.117355
0.116849
0.116341
0.115833
0.115325
0.114815
0.114305
0.113794
0.113283
0.112771
0.112258
0.111745
0.111231
0.110716
0.145071
0.16634
0.153224
0.148528
0.14655
0.14554
0.144947
0.144556
0.144268
0.144035
0.14383
0.14364
0.143454
0.143268
0.143077
0.142881
0.142676
0.142463
0.142241
0.142009
0.141767
0.141516
0.141255
0.140984
0.140705
0.140416
0.140118
0.139811
0.139497
0.139173
0.138842
0.138504
0.138158
0.137804
0.137444
0.137076
0.136703
0.136323
0.135936
0.135544
0.135146
0.134743
0.134334
0.13392
0.133501
0.133077
0.132649
0.132216
0.131779
0.131338
0.130893
0.130444
0.129992
0.129536
0.129076
0.128614
0.128148
0.127679
0.127208
0.126734
0.126257
0.125778
0.125296
0.124812
0.124327
0.123839
0.123349
0.122858
0.122364
0.12187
0.121373
0.120875
0.120376
0.119876
0.119374
0.118872
0.118368
0.117863
0.117358
0.116851
0.116344
0.115836
0.115327
0.114818
0.114307
0.113796
0.113285
0.112773
0.11226
0.111747
0.111233
0.110718
0.145082
0.166338
0.153219
0.148521
0.146541
0.145531
0.144939
0.144548
0.144262
0.14403
0.143827
0.143637
0.143452
0.143267
0.143077
0.142881
0.142677
0.142464
0.142242
0.14201
0.141769
0.141518
0.141258
0.140987
0.140708
0.140419
0.140122
0.139816
0.139501
0.139178
0.138847
0.138509
0.138163
0.13781
0.137449
0.137082
0.136709
0.136328
0.135942
0.13555
0.135152
0.134749
0.13434
0.133926
0.133507
0.133083
0.132655
0.132222
0.131785
0.131344
0.130899
0.13045
0.129997
0.129541
0.129082
0.128619
0.128153
0.127684
0.127213
0.126738
0.126262
0.125782
0.125301
0.124817
0.124331
0.123843
0.123353
0.122861
0.122368
0.121873
0.121377
0.120879
0.12038
0.119879
0.119378
0.118875
0.118371
0.117866
0.117361
0.116854
0.116347
0.115838
0.11533
0.11482
0.11431
0.113799
0.113287
0.112775
0.112262
0.111749
0.111234
0.11072
0.145092
0.166336
0.153215
0.148515
0.146534
0.145523
0.144931
0.144541
0.144255
0.144025
0.143823
0.143634
0.14345
0.143265
0.143076
0.142881
0.142677
0.142465
0.142243
0.142012
0.141771
0.14152
0.14126
0.14099
0.140711
0.140423
0.140125
0.139819
0.139505
0.139182
0.138852
0.138514
0.138168
0.137815
0.137454
0.137087
0.136714
0.136334
0.135948
0.135556
0.135158
0.134754
0.134346
0.133932
0.133513
0.133089
0.132661
0.132228
0.131791
0.13135
0.130904
0.130455
0.130003
0.129546
0.129087
0.128624
0.128158
0.127689
0.127218
0.126743
0.126266
0.125787
0.125305
0.124821
0.124335
0.123847
0.123357
0.122865
0.122372
0.121877
0.12138
0.120882
0.120383
0.119883
0.119381
0.118878
0.118374
0.117869
0.117364
0.116857
0.116349
0.115841
0.115332
0.114823
0.114312
0.113801
0.11329
0.112777
0.112264
0.111751
0.111237
0.110722
0.145101
0.166336
0.153212
0.148511
0.146528
0.145516
0.144923
0.144534
0.144249
0.144019
0.143818
0.143631
0.143448
0.143263
0.143075
0.14288
0.142677
0.142465
0.142243
0.142012
0.141772
0.141522
0.141262
0.140992
0.140713
0.140425
0.140128
0.139823
0.139508
0.139186
0.138856
0.138518
0.138172
0.137819
0.137459
0.137092
0.136719
0.136339
0.135953
0.135561
0.135163
0.13476
0.134351
0.133937
0.133518
0.133095
0.132666
0.132233
0.131796
0.131355
0.13091
0.130461
0.130008
0.129552
0.129092
0.128629
0.128163
0.127694
0.127222
0.126748
0.126271
0.125791
0.12531
0.124826
0.124339
0.123851
0.123361
0.122869
0.122376
0.121881
0.121384
0.120886
0.120387
0.119886
0.119384
0.118881
0.118377
0.117872
0.117367
0.11686
0.116352
0.115844
0.115335
0.114825
0.114315
0.113804
0.113292
0.11278
0.145108
0.166335
0.153211
0.148508
0.146523
0.145509
0.144917
0.144527
0.144243
0.144014
0.143814
0.143627
0.143445
0.143261
0.143073
0.142878
0.142676
0.142464
0.142243
0.142013
0.141773
0.141523
0.141263
0.140994
0.140715
0.140427
0.140131
0.139825
0.139511
0.139189
0.138859
0.138521
0.138176
0.137823
0.137463
0.137096
0.136723
0.136343
0.135957
0.135566
0.135168
0.134765
0.134356
0.133942
0.133523
0.1331
0.132671
0.132238
0.131801
0.13136
0.130915
0.130466
0.130013
0.129557
0.129097
0.128634
0.128168
0.127699
0.127227
0.126753
0.126275
0.125796
0.125314
0.12483
0.124344
0.123855
0.123365
0.122873
0.12238
0.121885
0.121388
0.12089
0.12039
0.11989
0.119388
0.118885
0.118381
0.117876
0.11737
0.116863
0.116355
0.115847
0.115338
0.114828
0.114318
0.113806
0.113295
0.112782
0.145115
0.166335
0.153209
0.148505
0.146519
0.145504
0.144911
0.144521
0.144237
0.144009
0.143809
0.143623
0.143441
0.143258
0.143071
0.142877
0.142675
0.142463
0.142243
0.142013
0.141773
0.141523
0.141264
0.140995
0.140717
0.140429
0.140133
0.139828
0.139514
0.139192
0.138862
0.138524
0.138179
0.137826
0.137467
0.1371
0.136727
0.136348
0.135962
0.13557
0.135172
0.134769
0.134361
0.133947
0.133528
0.133104
0.132676
0.132243
0.131806
0.131365
0.13092
0.130471
0.130018
0.129561
0.129102
0.128639
0.128173
0.127704
0.127232
0.126757
0.12628
0.1258
0.125318
0.124834
0.124348
0.12386
0.123369
0.122877
0.122384
0.121888
0.121392
0.120893
0.120394
0.119893
0.119391
0.118888
0.118384
0.117879
0.117373
0.116866
0.116358
0.11585
0.115341
0.114831
0.114321
0.113809
0.113297
0.112785
0.145121
0.166335
0.153209
0.148503
0.146516
0.1455
0.144905
0.144516
0.144232
0.144004
0.143804
0.143619
0.143438
0.143255
0.143069
0.142875
0.142673
0.142462
0.142242
0.142012
0.141773
0.141523
0.141264
0.140996
0.140718
0.140431
0.140134
0.139829
0.139516
0.139194
0.138865
0.138527
0.138182
0.13783
0.13747
0.137104
0.136731
0.136351
0.135966
0.135574
0.135177
0.134773
0.134365
0.133951
0.133533
0.133109
0.132681
0.132248
0.131811
0.13137
0.130924
0.130475
0.130022
0.129566
0.129106
0.128643
0.128177
0.127708
0.127236
0.126762
0.126284
0.125805
0.125323
0.124838
0.124352
0.123864
0.123373
0.122881
0.122388
0.121892
0.121395
0.120897
0.120398
0.119897
0.119395
0.118892
0.118387
0.117882
0.117376
0.116869
0.116362
0.115853
0.115344
0.114834
0.114324
0.145126
0.166335
0.153209
0.148502
0.146513
0.145496
0.144901
0.144511
0.144226
0.143999
0.1438
0.143615
0.143434
0.143252
0.143066
0.142873
0.142671
0.142461
0.142241
0.142012
0.141773
0.141523
0.141265
0.140996
0.140719
0.140432
0.140136
0.139831
0.139518
0.139196
0.138867
0.13853
0.138185
0.137832
0.137473
0.137107
0.136734
0.136355
0.135969
0.135578
0.13518
0.134777
0.134369
0.133955
0.133537
0.133113
0.132685
0.132252
0.131815
0.131374
0.130929
0.13048
0.130027
0.129571
0.129111
0.128648
0.128182
0.127713
0.127241
0.126766
0.126289
0.125809
0.125327
0.124843
0.124356
0.123868
0.123378
0.122885
0.122392
0.121896
0.121399
0.120901
0.120401
0.1199
0.119398
0.118895
0.118391
0.117886
0.11738
0.116873
0.116365
0.115857
0.115347
0.114838
0.114327
0.145131
0.166336
0.153209
0.148501
0.146511
0.145493
0.144897
0.144506
0.144222
0.143994
0.143795
0.14361
0.14343
0.143249
0.143063
0.14287
0.142669
0.142459
0.14224
0.142011
0.141772
0.141523
0.141265
0.140997
0.140719
0.140432
0.140137
0.139832
0.139519
0.139198
0.138869
0.138532
0.138187
0.137835
0.137476
0.13711
0.136737
0.136358
0.135973
0.135581
0.135184
0.134781
0.134373
0.133959
0.133541
0.133117
0.132689
0.132257
0.13182
0.131378
0.130933
0.130484
0.130031
0.129575
0.129115
0.128652
0.128186
0.127717
0.127245
0.12677
0.126293
0.125813
0.125331
0.124847
0.12436
0.123872
0.123382
0.122889
0.122396
0.1219
0.121403
0.120905
0.120405
0.119904
0.119402
0.118899
0.118395
0.117889
0.117383
0.116876
0.116369
0.11586
0.115351
0.114841
0.11433
0.145136
0.166336
0.153209
0.148501
0.14651
0.145491
0.144893
0.144502
0.144217
0.143989
0.143791
0.143606
0.143426
0.143245
0.14306
0.142868
0.142667
0.142458
0.142239
0.14201
0.141771
0.141523
0.141265
0.140997
0.14072
0.140433
0.140138
0.139833
0.139521
0.1392
0.138871
0.138534
0.138189
0.137837
0.137478
0.137112
0.13674
0.136361
0.135976
0.135584
0.135187
0.134785
0.134376
0.133963
0.133544
0.133121
0.132693
0.13226
0.131824
0.131382
0.130937
0.130488
0.130035
0.129579
0.129119
0.128656
0.12819
0.127721
0.127249
0.126775
0.126297
0.125818
0.125335
0.124851
0.124365
0.123876
0.123386
0.122894
0.1224
0.121904
0.121407
0.120909
0.120409
0.119908
0.119406
0.118903
0.118398
0.117893
0.117387
0.11688
0.116372
0.115864
0.115354
0.114844
0.114334
0.14514
0.166336
0.15321
0.148501
0.146509
0.145489
0.144891
0.144498
0.144213
0.143985
0.143787
0.143602
0.143423
0.143242
0.143057
0.142865
0.142665
0.142456
0.142237
0.142008
0.14177
0.141522
0.141264
0.140997
0.14072
0.140433
0.140138
0.139834
0.139522
0.139201
0.138872
0.138535
0.138191
0.137839
0.137481
0.137115
0.136743
0.136364
0.135979
0.135587
0.13519
0.134788
0.13438
0.133966
0.133548
0.133125
0.132697
0.132264
0.131827
0.131386
0.130941
0.130492
0.13004
0.129583
0.129124
0.128661
0.128194
0.127725
0.127253
0.126779
0.126301
0.125822
0.12534
0.124855
0.124369
0.12388
0.12339
0.122898
0.122404
0.121908
0.121411
0.120913
0.120413
0.119912
0.11941
0.118907
0.118402
0.117897
0.117391
0.116884
0.116376
0.115868
0.115358
0.114848
0.114337
0.145144
0.166337
0.15321
0.148501
0.146509
0.145487
0.144888
0.144495
0.14421
0.143981
0.143783
0.143598
0.143419
0.143238
0.143054
0.142862
0.142662
0.142453
0.142235
0.142007
0.141769
0.141521
0.141263
0.140996
0.14072
0.140434
0.140139
0.139835
0.139523
0.139202
0.138873
0.138537
0.138193
0.137841
0.137483
0.137117
0.136745
0.136366
0.135981
0.13559
0.135193
0.134791
0.134383
0.13397
0.133551
0.133128
0.1327
0.132268
0.131831
0.13139
0.130945
0.130496
0.130043
0.129587
0.129128
0.128665
0.128199
0.127729
0.127258
0.126783
0.126306
0.125826
0.125344
0.124859
0.124373
0.123884
0.123394
0.122902
0.122408
0.121912
0.121415
0.120917
0.120417
0.119916
0.119414
0.11891
0.118406
0.117901
0.117395
0.116888
0.11638
0.115871
0.115362
0.114852
0.114341
0.145148
0.166337
0.153211
0.148502
0.146508
0.145486
0.144886
0.144493
0.144207
0.143978
0.143779
0.143595
0.143415
0.143235
0.14305
0.142859
0.142659
0.142451
0.142233
0.142005
0.141767
0.14152
0.141263
0.140996
0.140719
0.140434
0.140139
0.139835
0.139523
0.139203
0.138874
0.138538
0.138194
0.137843
0.137484
0.137119
0.136747
0.136368
0.135984
0.135593
0.135196
0.134794
0.134386
0.133973
0.133555
0.133132
0.132704
0.132271
0.131835
0.131394
0.130949
0.1305
0.130047
0.129591
0.129131
0.128669
0.128203
0.127733
0.127262
0.126787
0.12631
0.12583
0.125348
0.124863
0.124377
0.123888
0.123398
0.122906
0.122412
0.121916
0.121419
0.120921
0.120421
0.11992
0.119418
0.118915
0.11841
0.117905
0.117399
0.116892
0.116384
0.115875
0.115366
0.114856
0.114345
0.145152
0.166338
0.153211
0.148502
0.146508
0.145485
0.144885
0.144491
0.144204
0.143975
0.143776
0.143591
0.143412
0.143232
0.143047
0.142856
0.142657
0.142449
0.142231
0.142003
0.141766
0.141519
0.141262
0.140995
0.140719
0.140433
0.140139
0.139836
0.139524
0.139204
0.138875
0.138539
0.138195
0.137844
0.137486
0.137121
0.136749
0.136371
0.135986
0.135595
0.135199
0.134796
0.134389
0.133976
0.133558
0.133135
0.132707
0.132275
0.131838
0.131397
0.130952
0.130503
0.130051
0.129595
0.129135
0.128672
0.128206
0.127737
0.127265
0.126791
0.126314
0.125834
0.125352
0.124867
0.124381
0.123892
0.123402
0.12291
0.122416
0.12192
0.121423
0.120925
0.120425
0.119924
0.119422
0.118919
0.118414
0.117909
0.117403
0.116896
0.116388
0.115879
0.11537
0.11486
0.114349
0.145155
0.166338
0.153212
0.148503
0.146508
0.145485
0.144884
0.144489
0.144201
0.143972
0.143772
0.143588
0.143408
0.143228
0.143044
0.142853
0.142654
0.142446
0.142229
0.142001
0.141764
0.141517
0.14126
0.140994
0.140718
0.140433
0.140139
0.139836
0.139524
0.139204
0.138876
0.13854
0.138197
0.137846
0.137488
0.137123
0.136751
0.136373
0.135988
0.135598
0.135201
0.134799
0.134391
0.133979
0.133561
0.133138
0.13271
0.132278
0.131841
0.131401
0.130956
0.130507
0.130055
0.129598
0.129139
0.128676
0.12821
0.127741
0.127269
0.126795
0.126318
0.125838
0.125356
0.124872
0.124385
0.123897
0.123406
0.122914
0.12242
0.121925
0.121428
0.120929
0.120429
0.119928
0.119426
0.118923
0.118419
0.117913
0.117407
0.1169
0.116392
0.115884
0.115374
0.114864
0.114353
0.145159
0.166338
0.153212
0.148503
0.146509
0.145485
0.144883
0.144487
0.144199
0.143969
0.143769
0.143585
0.143405
0.143225
0.143041
0.14285
0.142651
0.142443
0.142226
0.141999
0.141762
0.141516
0.141259
0.140993
0.140717
0.140432
0.140138
0.139836
0.139524
0.139204
0.138877
0.138541
0.138198
0.137847
0.137489
0.137124
0.136753
0.136375
0.13599
0.1356
0.135203
0.134801
0.134394
0.133981
0.133563
0.133141
0.132713
0.132281
0.131845
0.131404
0.130959
0.13051
0.130058
0.129602
0.129143
0.12868
0.128214
0.127745
0.127273
0.126799
0.126322
0.125842
0.12536
0.124876
0.124389
0.123901
0.12341
0.122918
0.122424
0.121929
0.121432
0.120933
0.120434
0.119933
0.119431
0.118927
0.118423
0.117918
0.117412
0.116905
0.116397
0.115888
0.115378
0.114868
0.114357
0.145162
0.166338
0.153213
0.148504
0.146509
0.145485
0.144882
0.144486
0.144198
0.143967
0.143767
0.143582
0.143402
0.143222
0.143038
0.142847
0.142648
0.142441
0.142224
0.141997
0.14176
0.141514
0.141258
0.140992
0.140716
0.140432
0.140138
0.139835
0.139524
0.139205
0.138877
0.138542
0.138198
0.137848
0.13749
0.137126
0.136754
0.136376
0.135992
0.135602
0.135206
0.134804
0.134396
0.133984
0.133566
0.133143
0.132716
0.132284
0.131848
0.131407
0.130962
0.130514
0.130061
0.129606
0.129146
0.128683
0.128218
0.127749
0.127277
0.126803
0.126325
0.125846
0.125364
0.12488
0.124393
0.123905
0.123414
0.122922
0.122428
0.121933
0.121436
0.120938
0.120438
0.119937
0.119435
0.118932
0.118428
0.117922
0.117416
0.116909
0.116401
0.115892
0.115383
0.114872
0.114361
0.145165
0.166338
0.153213
0.148504
0.146509
0.145485
0.144882
0.144485
0.144196
0.143965
0.143765
0.143579
0.143399
0.143219
0.143035
0.142844
0.142645
0.142438
0.142221
0.141995
0.141758
0.141512
0.141256
0.14099
0.140715
0.140431
0.140137
0.139835
0.139524
0.139205
0.138877
0.138542
0.138199
0.137849
0.137491
0.137127
0.136756
0.136378
0.135994
0.135604
0.135208
0.134806
0.134399
0.133986
0.133569
0.133146
0.132719
0.132287
0.131851
0.13141
0.130966
0.130517
0.130065
0.129609
0.12915
0.128687
0.128221
0.127753
0.127281
0.126806
0.126329
0.12585
0.125368
0.124884
0.124397
0.123909
0.123419
0.122927
0.122433
0.121937
0.12144
0.120942
0.120442
0.119942
0.119439
0.118936
0.118432
0.117927
0.117421
0.116914
0.116406
0.115897
0.115387
0.114877
0.114366
0.145168
0.166338
0.153213
0.148504
0.14651
0.145485
0.144882
0.144484
0.144195
0.143963
0.143762
0.143577
0.143396
0.143216
0.143032
0.142841
0.142643
0.142435
0.142219
0.141992
0.141756
0.14151
0.141254
0.140989
0.140714
0.14043
0.140137
0.139834
0.139524
0.139205
0.138877
0.138542
0.1382
0.13785
0.137492
0.137128
0.136757
0.136379
0.135995
0.135605
0.13521
0.134808
0.134401
0.133989
0.133571
0.133149
0.132722
0.13229
0.131854
0.131413
0.130969
0.13052
0.130068
0.129612
0.129153
0.128691
0.128225
0.127756
0.127285
0.12681
0.126333
0.125854
0.125372
0.124888
0.124401
0.123913
0.123423
0.122931
0.122437
0.121942
0.121445
0.120947
0.120447
0.119946
0.119444
0.118941
0.118437
0.117932
0.117425
0.116918
0.116411
0.115902
0.115392
0.114882
0.11437
0.145172
0.166338
0.153213
0.148505
0.14651
0.145485
0.144882
0.144484
0.144194
0.143962
0.143761
0.143574
0.143394
0.143213
0.143029
0.142838
0.14264
0.142433
0.142216
0.14199
0.141754
0.141508
0.141253
0.140987
0.140713
0.140429
0.140136
0.139834
0.139523
0.139204
0.138877
0.138543
0.1382
0.13785
0.137493
0.137129
0.136758
0.136381
0.135997
0.135607
0.135211
0.13481
0.134403
0.133991
0.133574
0.133151
0.132724
0.132293
0.131856
0.131416
0.130972
0.130523
0.130071
0.129616
0.129157
0.128694
0.128229
0.12776
0.127288
0.126814
0.126337
0.125858
0.125376
0.124892
0.124406
0.123917
0.123427
0.122935
0.122441
0.121946
0.121449
0.120951
0.120452
0.119951
0.119449
0.118946
0.118442
0.117936
0.11743
0.116923
0.116415
0.115907
0.115397
0.114887
0.114375
0.145175
0.166338
0.153214
0.148505
0.14651
0.145485
0.144881
0.144483
0.144193
0.143961
0.143759
0.143572
0.143392
0.143211
0.143026
0.142836
0.142637
0.14243
0.142214
0.141988
0.141752
0.141506
0.141251
0.140986
0.140711
0.140427
0.140135
0.139833
0.139523
0.139204
0.138877
0.138543
0.1382
0.137851
0.137494
0.13713
0.136759
0.136382
0.135998
0.135609
0.135213
0.134812
0.134405
0.133993
0.133576
0.133154
0.132727
0.132295
0.131859
0.131419
0.130975
0.130527
0.130075
0.129619
0.12916
0.128698
0.128232
0.127764
0.127292
0.126818
0.126341
0.125862
0.12538
0.124896
0.12441
0.123921
0.123431
0.122939
0.122446
0.121951
0.121454
0.120956
0.120456
0.119955
0.119454
0.118951
0.118446
0.117941
0.117435
0.116928
0.11642
0.115912
0.115402
0.114892
0.11438
0.145178
0.166338
0.153213
0.148505
0.146511
0.145485
0.144881
0.144483
0.144192
0.143959
0.143757
0.143571
0.14339
0.143209
0.143024
0.142833
0.142635
0.142428
0.142211
0.141985
0.141749
0.141504
0.141249
0.140984
0.14071
0.140426
0.140134
0.139832
0.139522
0.139204
0.138877
0.138543
0.138201
0.137851
0.137494
0.137131
0.13676
0.136383
0.136
0.13561
0.135215
0.134814
0.134407
0.133995
0.133578
0.133156
0.132729
0.132298
0.131862
0.131422
0.130978
0.13053
0.130078
0.129622
0.129163
0.128701
0.128236
0.127767
0.127296
0.126822
0.126345
0.125866
0.125384
0.1249
0.124414
0.123926
0.123436
0.122944
0.12245
0.121955
0.121459
0.12096
0.120461
0.11996
0.119458
0.118955
0.118451
0.117946
0.11744
0.116933
0.116426
0.115917
0.115407
0.114897
0.114385
0.145181
0.166338
0.153213
0.148505
0.146511
0.145486
0.144881
0.144483
0.144192
0.143959
0.143756
0.143569
0.143388
0.143207
0.143022
0.142831
0.142632
0.142425
0.142209
0.141983
0.141747
0.141502
0.141247
0.140982
0.140708
0.140425
0.140132
0.139831
0.139521
0.139203
0.138877
0.138543
0.138201
0.137851
0.137495
0.137131
0.136761
0.136384
0.136001
0.135612
0.135216
0.134815
0.134409
0.133997
0.13358
0.133158
0.132732
0.1323
0.131865
0.131425
0.130981
0.130533
0.130081
0.129626
0.129167
0.128705
0.128239
0.127771
0.127299
0.126825
0.126349
0.12587
0.125388
0.124904
0.124418
0.12393
0.12344
0.122948
0.122455
0.12196
0.121463
0.120965
0.120466
0.119965
0.119463
0.11896
0.118456
0.117951
0.117446
0.116939
0.116431
0.115922
0.115413
0.114902
0.145184
0.166338
0.153213
0.148505
0.146511
0.145486
0.144881
0.144483
0.144191
0.143958
0.143755
0.143568
0.143386
0.143205
0.14302
0.142829
0.14263
0.142423
0.142206
0.14198
0.141745
0.1415
0.141245
0.14098
0.140706
0.140423
0.140131
0.13983
0.13952
0.139202
0.138876
0.138542
0.138201
0.137851
0.137495
0.137132
0.136762
0.136385
0.136002
0.135613
0.135218
0.134817
0.134411
0.133999
0.133582
0.133161
0.132734
0.132303
0.131867
0.131427
0.130984
0.130536
0.130084
0.129629
0.12917
0.128708
0.128243
0.127774
0.127303
0.126829
0.126353
0.125874
0.125392
0.124908
0.124422
0.123934
0.123445
0.122953
0.12246
0.121965
0.121468
0.12097
0.120471
0.11997
0.119469
0.118966
0.118462
0.117957
0.117451
0.116944
0.116436
0.115928
0.115418
0.114908
0.145187
0.166338
0.153213
0.148505
0.146511
0.145486
0.144881
0.144482
0.144191
0.143957
0.143754
0.143566
0.143385
0.143203
0.143018
0.142826
0.142628
0.14242
0.142204
0.141978
0.141743
0.141498
0.141243
0.140978
0.140705
0.140422
0.14013
0.139829
0.139519
0.139202
0.138876
0.138542