/*--------------------------------*- C++ -*----------------------------------*\
  =========                 |
  \\      /  F ield         | OpenFOAM: The Open Source CFD Toolbox
   \\    /   O peration     | Website:  https://openfoam.org
    \\  /    A nd           | Version:  10
     \\/     M anipulation  |
\*---------------------------------------------------------------------------*/
FoamFile
{
    format      ascii;
    class       volScalarField;
    location    "17000";
    object      p;
}
// * * * * * * * * * * * * * * * * * * * * * * * * * * * * * * * * * * * * * //

dimensions      [0 2 -2 0 0 0 0];

internalField   nonuniform List<scalar> 
17808
(
17.1584
17.178
17.1874
17.1881
17.1864
17.1817
17.175
17.1666
17.1567
17.1456
17.1335
17.1204
17.1064
17.0916
17.0759
17.0596
17.0425
17.0246
17.0061
16.9869
16.967
16.9465
16.9252
16.9033
16.8807
16.8574
16.8334
16.8087
16.7834
16.7573
16.7305
16.703
16.6748
16.6458
16.616
16.5856
16.5543
16.5223
16.4895
16.4558
16.4214
16.3861
16.35
16.313
16.2752
16.2365
16.1969
16.1564
16.115
16.0726
16.0293
15.985
15.9397
15.8934
15.8461
15.7978
15.7484
15.6979
15.6464
15.5938
15.54
15.4851
15.429
15.3718
15.3133
15.2537
15.1927
15.1306
15.0671
15.0024
14.9363
14.8689
14.8002
14.73
14.6585
14.5855
14.511
14.4351
14.3577
14.2787
14.1983
14.1162
14.0326
13.9473
13.8604
13.7718
13.6816
13.5896
13.4959
13.4004
13.3031
13.204
17.2196
17.2187
17.2101
17.2023
17.1951
17.1869
17.1778
17.1679
17.157
17.1453
17.1327
17.1193
17.1051
17.0902
17.0745
17.0581
17.041
17.0232
17.0047
16.9855
16.9656
16.9451
16.9239
16.902
16.8794
16.8562
16.8322
16.8076
16.7823
16.7562
16.7295
16.702
16.6738
16.6449
16.6152
16.5847
16.5535
16.5215
16.4887
16.4551
16.4207
16.3854
16.3493
16.3124
16.2746
16.2359
16.1963
16.1558
16.1144
16.0721
16.0288
15.9845
15.9392
15.893
15.8457
15.7974
15.748
15.6975
15.646
15.5934
15.5396
15.4847
15.4287
15.3714
15.313
15.2533
15.1924
15.1303
15.0668
15.0021
14.936
14.8686
14.7999
14.7297
14.6582
14.5852
14.5107
14.4348
14.3574
14.2785
14.198
14.1159
14.0323
13.947
13.8601
13.7716
13.6813
13.5893
13.4956
13.4001
13.3029
13.2038
17.2463
17.24
17.229
17.2194
17.2091
17.1981
17.1866
17.1747
17.1622
17.1491
17.1355
17.1213
17.1065
17.0911
17.075
17.0583
17.041
17.023
17.0043
16.9851
16.9651
16.9445
16.9233
16.9014
16.8788
16.8555
16.8316
16.8069
16.7816
16.7556
16.7288
16.7014
16.6732
16.6442
16.6145
16.5841
16.5529
16.5209
16.4881
16.4545
16.4201
16.3849
16.3488
16.3119
16.2741
16.2354
16.1959
16.1554
16.114
16.0716
16.0283
15.9841
15.9388
15.8926
15.8453
15.797
15.7476
15.6972
15.6457
15.593
15.5393
15.4844
15.4283
15.3711
15.3127
15.253
15.1921
15.13
15.0665
15.0018
14.9357
14.8683
14.7996
14.7294
14.6579
14.5849
14.5104
14.4345
14.3571
14.2782
14.1977
14.1156
14.032
13.9467
13.8598
13.7713
13.681
13.589
13.4953
13.3998
13.3026
13.2035
17.2464
17.24
17.2312
17.2226
17.2127
17.2018
17.1903
17.1781
17.1653
17.1519
17.1379
17.1233
17.1082
17.0924
17.0761
17.0591
17.0415
17.0234
17.0046
16.9852
16.9651
16.9444
16.9231
16.9011
16.8785
16.8551
16.8312
16.8065
16.7811
16.7551
16.7283
16.7009
16.6727
16.6437
16.614
16.5836
16.5524
16.5204
16.4876
16.4541
16.4197
16.3844
16.3484
16.3115
16.2737
16.235
16.1954
16.155
16.1136
16.0712
16.0279
15.9837
15.9384
15.8922
15.8449
15.7966
15.7473
15.6968
15.6453
15.5927
15.5389
15.4841
15.428
15.3708
15.3123
15.2527
15.1918
15.1296
15.0662
15.0015
14.9354
14.868
14.7993
14.7291
14.6576
14.5846
14.5102
14.4342
14.3568
14.2779
14.1974
14.1154
14.0317
13.9465
13.8595
13.771
13.6807
13.5887
13.495
13.3995
13.3023
13.2032
17.2472
17.2403
17.2321
17.2235
17.2136
17.2029
17.1915
17.1794
17.1666
17.1532
17.1391
17.1244
17.1092
17.0933
17.0768
17.0597
17.042
17.0237
17.0048
16.9853
16.9652
16.9444
16.923
16.9009
16.8782
16.8549
16.8309
16.8062
16.7808
16.7547
16.7279
16.7004
16.6722
16.6433
16.6136
16.5832
16.5519
16.52
16.4872
16.4536
16.4192
16.384
16.3479
16.311
16.2732
16.2346
16.195
16.1546
16.1132
16.0708
16.0276
15.9833
15.9381
15.8918
15.8446
15.7963
15.7469
15.6965
15.645
15.5924
15.5386
15.4837
15.4277
15.3705
15.312
15.2524
15.1915
15.1294
15.0659
15.0012
14.9352
14.8678
14.799
14.7289
14.6573
14.5843
14.5099
14.434
14.3566
14.2776
14.1971
14.1151
14.0314
13.9462
13.8593
13.7707
13.6805
13.5885
13.4948
13.3993
13.302
13.2029
17.2506
17.2432
17.2352
17.2262
17.216
17.2051
17.1935
17.1812
17.1682
17.1546
17.1404
17.1256
17.1102
17.0942
17.0776
17.0604
17.0426
17.0242
17.0052
16.9856
16.9654
16.9445
16.923
16.9009
16.8782
16.8548
16.8307
16.806
16.7806
16.7545
16.7276
16.7001
16.6719
16.6429
16.6132
16.5828
16.5516
16.5196
16.4868
16.4532
16.4188
16.3836
16.3475
16.3106
16.2729
16.2342
16.1947
16.1542
16.1128
16.0705
16.0272
15.983
15.9377
15.8915
15.8442
15.7959
15.7466
15.6962
15.6447
15.5921
15.5383
15.4834
15.4274
15.3702
15.3117
15.2521
15.1912
15.1291
15.0657
15.0009
14.9349
14.8675
14.7987
14.7286
14.657
14.5841
14.5096
14.4337
14.3563
14.2774
14.1969
14.1148
14.0312
13.9459
13.859
13.7705
13.6802
13.5882
13.4945
13.399
13.3017
13.2026
17.2531
17.2454
17.2375
17.2283
17.2181
17.2071
17.1954
17.1829
17.1698
17.1561
17.1417
17.1268
17.1113
17.0951
17.0784
17.0611
17.0432
17.0247
17.0056
16.986
16.9657
16.9447
16.9232
16.901
16.8782
16.8548
16.8307
16.8059
16.7804
16.7543
16.7275
16.6999
16.6717
16.6427
16.613
16.5825
16.5513
16.5193
16.4865
16.4529
16.4185
16.3833
16.3472
16.3103
16.2725
16.2339
16.1943
16.1539
16.1125
16.0701
16.0269
15.9826
15.9374
15.8912
15.8439
15.7956
15.7463
15.6959
15.6444
15.5918
15.538
15.4831
15.4271
15.3699
15.3115
15.2518
15.1909
15.1288
15.0654
15.0007
14.9346
14.8672
14.7985
14.7283
14.6568
14.5838
14.5094
14.4335
14.3561
14.2771
14.1966
14.1146
14.0309
13.9457
13.8588
13.7702
13.68
13.588
13.4943
13.3988
13.3015
13.2024
17.2544
17.2465
17.2388
17.2296
17.2193
17.2083
17.1965
17.1841
17.1709
17.1571
17.1427
17.1277
17.1121
17.0959
17.0792
17.0618
17.0438
17.0253
17.0061
16.9863
16.966
16.945
16.9234
16.9012
16.8783
16.8548
16.8307
16.8059
16.7804
16.7542
16.7273
16.6998
16.6715
16.6425
16.6127
16.5823
16.551
16.519
16.4862
16.4526
16.4182
16.383
16.3469
16.31
16.2722
16.2336
16.194
16.1535
16.1122
16.0698
16.0266
15.9823
15.9371
15.8909
15.8436
15.7953
15.746
15.6956
15.6441
15.5915
15.5377
15.4829
15.4268
15.3696
15.3112
15.2516
15.1907
15.1285
15.0651
15.0004
14.9344
14.867
14.7982
14.7281
14.6565
14.5836
14.5091
14.4332
14.3558
14.2769
14.1964
14.1144
14.0307
13.9455
13.8586
13.77
13.6797
13.5877
13.494
13.3985
13.3013
13.2022
17.2554
17.2474
17.2398
17.2305
17.2203
17.2092
17.1974
17.1849
17.1718
17.1579
17.1435
17.1285
17.1128
17.0966
17.0798
17.0623
17.0443
17.0257
17.0065
16.9867
16.9663
16.9453
16.9236
16.9014
16.8785
16.8549
16.8307
16.8059
16.7804
16.7542
16.7273
16.6997
16.6714
16.6423
16.6126
16.5821
16.5508
16.5188
16.486
16.4524
16.418
16.3827
16.3466
16.3097
16.2719
16.2333
16.1937
16.1533
16.1119
16.0696
16.0263
15.982
15.9368
15.8906
15.8433
15.795
15.7457
15.6953
15.6438
15.5912
15.5375
15.4826
15.4266
15.3694
15.3109
15.2513
15.1904
15.1283
15.0649
15.0002
14.9341
14.8667
14.798
14.7279
14.6563
14.5833
14.5089
14.433
14.3556
14.2767
14.1962
14.1141
14.0305
13.9452
13.8583
13.7698
13.6795
13.5875
13.4938
13.3983
13.301
13.2019
17.2563
17.2483
17.2407
17.2313
17.2211
17.21
17.1982
17.1857
17.1725
17.1587
17.1442
17.1291
17.1134
17.0972
17.0803
17.0628
17.0448
17.0261
17.0069
16.987
16.9666
16.9455
16.9239
16.9016
16.8786
16.855
16.8308
16.8059
16.7804
16.7541
16.7272
16.6996
16.6713
16.6422
16.6125
16.5819
16.5507
16.5186
16.4858
16.4522
16.4178
16.3825
16.3464
16.3095
16.2717
16.233
16.1935
16.153
16.1116
16.0693
16.026
15.9818
15.9366
15.8903
15.8431
15.7948
15.7455
15.695
15.6436
15.591
15.5372
15.4824
15.4263
15.3691
15.3107
15.2511
15.1902
15.1281
15.0647
14.9999
14.9339
14.8665
14.7978
14.7276
14.6561
14.5831
14.5087
14.4328
14.3554
14.2765
14.196
14.1139
14.0303
13.945
13.8581
13.7696
13.6793
13.5873
13.4936
13.3981
13.3008
13.2017
17.2571
17.2489
17.2414
17.232
17.2218
17.2107
17.1989
17.1863
17.1731
17.1592
17.1448
17.1297
17.114
17.0977
17.0808
17.0633
17.0452
17.0265
17.0072
16.9874
16.9669
16.9458
16.9241
16.9017
16.8788
16.8552
16.8309
16.806
16.7804
16.7542
16.7272
16.6996
16.6712
16.6422
16.6124
16.5818
16.5506
16.5185
16.4857
16.452
16.4176
16.3823
16.3462
16.3093
16.2715
16.2328
16.1933
16.1528
16.1114
16.0691
16.0258
15.9815
15.9363
15.8901
15.8428
15.7946
15.7452
15.6948
15.6433
15.5907
15.537
15.4821
15.4261
15.3689
15.3105
15.2509
15.19
15.1279
15.0644
14.9997
14.9337
14.8663
14.7976
14.7274
14.6559
14.5829
14.5085
14.4326
14.3552
14.2763
14.1958
14.1137
14.0301
13.9448
13.8579
13.7694
13.6791
13.5871
13.4934
13.3979
13.3006
13.2015
17.2577
17.2495
17.242
17.2325
17.2223
17.2112
17.1994
17.1868
17.1736
17.1597
17.1452
17.1301
17.1144
17.0981
17.0811
17.0636
17.0455
17.0268
17.0075
16.9876
16.9671
16.946
16.9243
16.9019
16.8789
16.8553
16.831
16.8061
16.7805
16.7542
16.7273
16.6996
16.6712
16.6421
16.6123
16.5818
16.5505
16.5184
16.4855
16.4519
16.4174
16.3822
16.3461
16.3091
16.2713
16.2326
16.1931
16.1526
16.1112
16.0689
16.0256
15.9813
15.9361
15.8899
15.8426
15.7943
15.745
15.6946
15.6431
15.5905
15.5368
15.4819
15.4259
15.3687
15.3103
15.2506
15.1898
15.1276
15.0642
14.9995
14.9335
14.8661
14.7974
14.7272
14.6557
14.5827
14.5083
14.4324
14.355
14.2761
14.1956
14.1135
14.0299
13.9447
13.8578
13.7692
13.6789
13.5869
13.4932
13.3977
13.3005
13.2014
17.2581
17.2499
17.2424
17.233
17.2228
17.2117
17.1998
17.1873
17.174
17.1601
17.1456
17.1305
17.1148
17.0984
17.0815
17.064
17.0458
17.0271
17.0078
16.9879
16.9674
16.9462
16.9245
16.9021
16.8791
16.8554
16.8311
16.8062
16.7806
16.7543
16.7273
16.6996
16.6712
16.6421
16.6123
16.5817
16.5504
16.5183
16.4855
16.4518
16.4173
16.3821
16.3459
16.309
16.2712
16.2325
16.1929
16.1524
16.111
16.0687
16.0254
15.9812
15.9359
15.8897
15.8424
15.7941
15.7448
15.6944
15.6429
15.5903
15.5366
15.4817
15.4257
15.3685
15.3101
15.2504
15.1896
15.1275
15.064
14.9993
14.9333
14.8659
14.7972
14.7271
14.6555
14.5825
14.5081
14.4322
14.3548
14.2759
14.1954
14.1134
14.0297
13.9445
13.8576
13.769
13.6788
13.5868
13.4931
13.3976
13.3003
13.2012
17.2585
17.2503
17.2428
17.2334
17.2231
17.212
17.2002
17.1876
17.1744
17.1605
17.1459
17.1308
17.1151
17.0987
17.0818
17.0642
17.0461
17.0274
17.008
16.9881
16.9676
16.9464
16.9247
16.9023
16.8792
16.8556
16.8313
16.8063
16.7807
16.7543
16.7273
16.6997
16.6713
16.6421
16.6123
16.5817
16.5504
16.5183
16.4854
16.4517
16.4173
16.382
16.3458
16.3089
16.2711
16.2324
16.1928
16.1523
16.1109
16.0685
16.0252
15.981
15.9358
15.8895
15.8423
15.794
15.7446
15.6942
15.6427
15.5901
15.5364
15.4815
15.4255
15.3683
15.3099
15.2503
15.1894
15.1273
15.0639
14.9992
14.9331
14.8658
14.797
14.7269
14.6553
14.5824
14.508
14.4321
14.3547
14.2757
14.1953
14.1132
14.0296
13.9443
13.8574
13.7689
13.6786
13.5866
13.4929
13.3974
13.3001
13.201
17.2589
17.2506
17.2431
17.2337
17.2234
17.2123
17.2005
17.1879
17.1747
17.1608
17.1462
17.1311
17.1153
17.099
17.082
17.0645
17.0463
17.0276
17.0082
16.9883
16.9678
16.9466
16.9248
16.9024
16.8794
16.8557
16.8314
16.8064
16.7807
16.7544
16.7274
16.6997
16.6713
16.6422
16.6123
16.5817
16.5504
16.5182
16.4853
16.4517
16.4172
16.3819
16.3458
16.3088
16.271
16.2323
16.1927
16.1522
16.1108
16.0684
16.0251
15.9809
15.9356
15.8894
15.8421
15.7938
15.7445
15.6941
15.6426
15.59
15.5362
15.4814
15.4253
15.3681
15.3097
15.2501
15.1892
15.1271
15.0637
14.999
14.933
14.8656
14.7969
14.7267
14.6552
14.5822
14.5078
14.4319
14.3545
14.2756
14.1951
14.1131
14.0294
13.9442
13.8573
13.7687
13.6785
13.5865
13.4928
13.3973
13.3
13.2009
17.2591
17.2509
17.2434
17.234
17.2237
17.2126
17.2007
17.1882
17.1749
17.161
17.1465
17.1313
17.1156
17.0992
17.0822
17.0647
17.0465
17.0278
17.0084
16.9885
16.9679
16.9467
16.925
16.9025
16.8795
16.8558
16.8315
16.8065
16.7808
16.7545
16.7275
16.6997
16.6713
16.6422
16.6123
16.5817
16.5503
16.5182
16.4853
16.4516
16.4171
16.3818
16.3457
16.3087
16.2709
16.2322
16.1926
16.1521
16.1106
16.0683
16.025
15.9807
15.9355
15.8892
15.842
15.7937
15.7443
15.6939
15.6424
15.5898
15.5361
15.4812
15.4252
15.368
15.3096
15.25
15.1891
15.127
15.0636
14.9989
14.9328
14.8654
14.7967
14.7266
14.655
14.5821
14.5077
14.4318
14.3544
14.2754
14.195
14.1129
14.0293
13.944
13.8571
13.7686
13.6783
13.5864
13.4926
13.3971
13.2999
13.2008
17.2594
17.2511
17.2436
17.2342
17.2239
17.2128
17.201
17.1884
17.1751
17.1612
17.1467
17.1315
17.1158
17.0994
17.0824
17.0649
17.0467
17.0279
17.0086
16.9886
16.9681
16.9469
16.9251
16.9027
16.8796
16.8559
16.8316
16.8066
16.7809
16.7545
16.7275
16.6998
16.6714
16.6422
16.6123
16.5817
16.5503
16.5182
16.4853
16.4516
16.4171
16.3818
16.3456
16.3087
16.2708
16.2321
16.1925
16.152
16.1106
16.0682
16.0249
15.9806
15.9354
15.8891
15.8419
15.7936
15.7442
15.6938
15.6423
15.5897
15.536
15.4811
15.4251
15.3679
15.3094
15.2498
15.189
15.1268
15.0634
14.9987
14.9327
14.8653
14.7966
14.7264
14.6549
14.5819
14.5075
14.4316
14.3542
14.2753
14.1948
14.1128
14.0292
13.9439
13.857
13.7685
13.6782
13.5862
17.2596
17.2513
17.2438
17.2344
17.2241
17.213
17.2012
17.1886
17.1753
17.1614
17.1469
17.1317
17.1159
17.0996
17.0826
17.065
17.0469
17.0281
17.0087
16.9888
16.9682
16.947
16.9252
16.9028
16.8797
16.856
16.8316
16.8066
16.781
16.7546
16.7276
16.6998
16.6714
16.6422
16.6124
16.5817
16.5504
16.5182
16.4853
16.4516
16.4171
16.3818
16.3456
16.3086
16.2708
16.232
16.1924
16.1519
16.1105
16.0681
16.0248
15.9805
15.9353
15.889
15.8418
15.7935
15.7441
15.6937
15.6422
15.5896
15.5358
15.481
15.4249
15.3677
15.3093
15.2497
15.1888
15.1267
15.0633
14.9986
14.9326
14.8652
14.7965
14.7263
14.6548
14.5818
14.5074
14.4315
14.3541
14.2752
14.1947
14.1127
14.0291
13.9438
13.8569
13.7684
13.6781
13.5861
17.2597
17.2515
17.244
17.2346
17.2243
17.2132
17.2013
17.1887
17.1755
17.1616
17.147
17.1318
17.1161
17.0997
17.0827
17.0652
17.047
17.0282
17.0089
16.9889
16.9683
16.9471
16.9253
16.9029
16.8798
16.8561
16.8317
16.8067
16.781
16.7547
16.7276
16.6999
16.6714
16.6423
16.6124
16.5818
16.5504
16.5182
16.4853
16.4516
16.4171
16.3817
16.3456
16.3086
16.2707
16.232
16.1924
16.1519
16.1104
16.0681
16.0247
15.9805
15.9352
15.8889
15.8417
15.7934
15.744
15.6936
15.6421
15.5895
15.5358
15.4809
15.4248
15.3676
15.3092
15.2496
15.1887
15.1266
15.0632
14.9985
14.9325
14.8651
14.7963
14.7262
14.6547
14.5817
14.5073
14.4314
14.354
14.2751
14.1946
14.1126
14.029
13.9437
13.8568
13.7683
13.678
13.586
17.2599
17.2516
17.2441
17.2347
17.2244
17.2133
17.2015
17.1889
17.1756
17.1617
17.1471
17.132
17.1162
17.0998
17.0829
17.0653
17.0471
17.0283
17.009
16.989
16.9684
16.9472
16.9254
16.903
16.8799
16.8562
16.8318
16.8068
16.7811
16.7547
16.7277
16.6999
16.6715
16.6423
16.6124
16.5818
16.5504
16.5182
16.4853
16.4516
16.4171
16.3817
16.3456
16.3086
16.2707
16.232
16.1923
16.1518
16.1104
16.068
16.0247
15.9804
15.9351
15.8889
15.8416
15.7933
15.7439
15.6935
15.642
15.5894
15.5357
15.4808
15.4248
15.3676
15.3091
15.2495
15.1886
15.1265
15.0631
14.9984
14.9324
14.865
14.7963
14.7261
14.6546
14.5816
14.5072
14.4313
14.3539
14.275
14.1945
14.1125
14.0289
13.9436
13.8567
17.26
17.2518
17.2443
17.2348
17.2246
17.2135
17.2016
17.189
17.1757
17.1618
17.1473
17.1321
17.1163
17.1
17.083
17.0654
17.0472
17.0285
17.0091
16.9891
16.9685
16.9473
16.9255
16.9031
16.88
16.8563
16.8319
16.8069
16.7812
16.7548
16.7277
16.7
16.6715
16.6424
16.6125
16.5818
16.5504
16.5183
16.4853
16.4516
16.4171
16.3817
16.3456
16.3086
16.2707
16.232
16.1923
16.1518
16.1104
16.068
16.0247
15.9804
15.9351
15.8888
15.8416
15.7932
15.7439
15.6935
15.642
15.5893
15.5356
15.4807
15.4247
15.3675
15.3091
15.2494
15.1886
15.1264
15.063
14.9983
14.9323
14.8649
14.7962
14.7261
14.6545
14.5816
14.5071
14.4312
14.3538
14.2749
14.1945
14.1124
14.0288
13.9435
13.8566
17.2602
17.2519
17.2444
17.235
17.2247
17.2136
17.2017
17.1891
17.1759
17.1619
17.1474
17.1322
17.1164
17.1001
17.0831
17.0655
17.0473
17.0286
17.0092
16.9892
16.9686
16.9474
16.9256
16.9031
16.8801
16.8563
16.832
16.8069
16.7812
16.7549
16.7278
16.7
16.6716
16.6424
16.6125
16.5819
16.5505
16.5183
16.4854
16.4516
16.4171
16.3818
16.3456
16.3086
16.2707
16.232
16.1923
16.1518
16.1103
16.068
16.0246
15.9803
15.9351
15.8888
15.8415
15.7932
15.7438
15.6934
15.6419
15.5893
15.5356
15.4807
15.4246
15.3674
15.309
15.2494
15.1885
15.1264
15.063
14.9983
14.9322
14.8649
14.7961
14.726
14.6545
14.5815
14.5071
14.4312
14.3538
14.2749
14.1944
14.1124
14.0287
13.9435
13.8566
17.2603
17.252
17.2445
17.2351
17.2248
17.2137
17.2018
17.1892
17.176
17.162
17.1475
17.1323
17.1165
17.1002
17.0832
17.0656
17.0474
17.0287
17.0093
16.9893
16.9687
16.9475
16.9257
16.9032
16.8801
16.8564
16.832
16.807
16.7813
16.7549
16.7279
16.7001
16.6716
16.6425
16.6125
16.5819
16.5505
16.5183
16.4854
16.4517
16.4171
16.3818
16.3456
16.3086
16.2707
16.232
16.1923
16.1518
16.1103
16.068
16.0246
15.9803
15.9351
15.8888
15.8415
15.7932
15.7438
15.6934
15.6419
15.5893
15.5355
15.4806
15.4246
15.3674
15.309
15.2493
15.1885
15.1263
15.0629
14.9982
14.9322
14.8648
14.7961
14.7259
14.6544
14.5814
14.507
14.4311
14.3537
14.2748
14.1943
14.1123
14.0287
13.9434
13.8565
17.2604
17.2522
17.2446
17.2352
17.2249
17.2138
17.2019
17.1893
17.1761
17.1622
17.1476
17.1324
17.1166
17.1003
17.0833
17.0657
17.0475
17.0287
17.0094
16.9894
16.9688
16.9476
16.9258
16.9033
16.8802
16.8565
16.8321
16.8071
16.7814
16.755
16.7279
16.7002
16.6717
16.6425
16.6126
16.5819
16.5505
16.5184
16.4854
16.4517
16.4172
16.3818
16.3456
16.3086
16.2707
16.232
16.1923
16.1518
16.1103
16.068
16.0246
15.9803
15.9351
15.8888
15.8415
15.7932
15.7438
15.6934
15.6419
15.5892
15.5355
15.4806
15.4246
15.3673
15.3089
15.2493
15.1884
15.1263
15.0629
14.9982
14.9321
14.8648
14.796
14.7259
14.6544
14.5814
14.507
14.4311
14.3537
14.2748
14.1943
14.1123
14.0286
13.9434
13.8565
17.2605
17.2523
17.2447
17.2353
17.225
17.2139
17.202
17.1894
17.1762
17.1623
17.1477
17.1325
17.1167
17.1004
17.0834
17.0658
17.0476
17.0288
17.0095
16.9895
16.9689
16.9477
16.9258
16.9034
16.8803
16.8566
16.8322
16.8071
16.7814
16.7551
16.728
16.7002
16.6718
16.6426
16.6127
16.582
16.5506
16.5184
16.4855
16.4517
16.4172
16.3818
16.3457
16.3086
16.2708
16.232
16.1924
16.1518
16.1104
16.068
16.0246
15.9803
15.9351
15.8888
15.8415
15.7932
15.7438
15.6934
15.6418
15.5892
15.5355
15.4806
15.4246
15.3673
15.3089
15.2493
15.1884
15.1263
15.0629
14.9981
14.9321
14.8647
14.796
14.7259
14.6543
14.5814
14.5069
14.4311
14.3537
14.2747
14.1943
14.1122
14.0286
13.9434
13.8565
17.2606
17.2524
17.2448
17.2354
17.2251
17.214
17.2021
17.1895
17.1763
17.1624
17.1478
17.1326
17.1168
17.1005
17.0835
17.0659
17.0477
17.0289
17.0095
16.9896
16.969
16.9478
16.9259
16.9035
16.8804
16.8566
16.8323
16.8072
16.7815
16.7551
16.7281
16.7003
16.6718
16.6426
16.6127
16.5821
16.5506
16.5185
16.4855
16.4518
16.4172
16.3819
16.3457
16.3087
16.2708
16.232
16.1924
16.1518
16.1104
16.068
16.0247
15.9804
15.9351
15.8888
15.8415
15.7932
15.7438
15.6934
15.6418
15.5892
15.5355
15.4806
15.4245
15.3673
15.3089
15.2493
15.1884
15.1263
15.0628
14.9981
14.9321
14.8647
14.796
14.7259
14.6543
14.5814
14.5069
14.431
14.3536
14.2747
14.1943
14.1122
14.0286
13.9433
13.8564
17.2607
17.2525
17.2449
17.2355
17.2252
17.2141
17.2022
17.1896
17.1764
17.1624
17.1479
17.1327
17.1169
17.1006
17.0836
17.066
17.0478
17.029
17.0096
16.9896
16.9691
16.9478
16.926
16.9036
16.8805
16.8567
16.8323
16.8073
16.7816
16.7552
16.7281
16.7004
16.6719
16.6427
16.6128
16.5821
16.5507
16.5185
16.4856
16.4518
16.4173
16.3819
16.3458
16.3087
16.2708
16.2321
16.1924
16.1519
16.1104
16.068
16.0247
15.9804
15.9351
15.8888
15.8415
15.7932
15.7438
15.6934
15.6419
15.5892
15.5355
15.4806
15.4246
15.3673
15.3089
15.2493
15.1884
15.1263
15.0629
14.9981
14.9321
14.8647
14.796
14.7259
14.6543
14.5814
14.5069
14.431
14.3536
14.2747
14.1943
14.1122
14.0286
13.9433
13.8564
17.2608
17.2526
17.245
17.2356
17.2253
17.2142
17.2023
17.1897
17.1765
17.1625
17.148
17.1328
17.117
17.1006
17.0837
17.0661
17.0479
17.0291
17.0097
16.9897
16.9691
16.9479
16.9261
16.9036
16.8805
16.8568
16.8324
16.8074
16.7817
16.7553
16.7282
16.7004
16.672
16.6428
16.6129
16.5822
16.5508
16.5186
16.4856
16.4519
16.4174
16.382
16.3458
16.3088
16.2709
16.2321
16.1925
16.1519
16.1105
16.0681
16.0247
15.9804
15.9351
15.8889
15.8416
15.7932
15.7439
15.6934
15.6419
15.5893
15.5355
15.4806
15.4246
15.3674
15.3089
15.2493
15.1884
15.1263
15.0629
14.9982
14.9321
14.8647
14.796
14.7259
14.6543
14.5814
14.5069
14.4311
14.3537
14.2747
14.1943
14.1122
14.0286
13.9434
13.8565
17.2609
17.2527
17.2451
17.2357
17.2254
17.2143
17.2024
17.1898
17.1766
17.1627
17.1481
17.1329
17.1171
17.1007
17.0838
17.0662
17.048
17.0292
17.0098
16.9898
16.9692
16.948
16.9262
16.9037
16.8806
16.8569
16.8325
16.8075
16.7818
16.7554
16.7283
16.7005
16.6721
16.6429
16.6129
16.5823
16.5509
16.5187
16.4857
16.452
16.4174
16.3821
16.3459
16.3088
16.271
16.2322
16.1925
16.152
16.1105
16.0681
16.0248
15.9805
15.9352
15.8889
15.8416
15.7933
15.7439
15.6935
15.6419
15.5893
15.5356
15.4807
15.4246
15.3674
15.309
15.2493
15.1885
15.1263
15.0629
14.9982
14.9321
14.8648
14.796
14.7259
14.6544
14.5814
14.507
14.4311
14.3537
14.2748
14.1943
14.1123
14.0286
13.9434
13.8565
17.261
17.2528
17.2452
17.2358
17.2255
17.2144
17.2026
17.19
17.1767
17.1628
17.1482
17.133
17.1172
17.1009
17.0839
17.0663
17.0481
17.0293
17.0099
16.9899
16.9693
16.9481
16.9263
16.9038
16.8807
16.857
16.8326
16.8076
16.7819
16.7555
16.7284
16.7006
16.6721
16.6429
16.613
16.5824
16.5509
16.5188
16.4858
16.4521
16.4175
16.3821
16.346
16.3089
16.271
16.2323
16.1926
16.1521
16.1106
16.0682
16.0249
15.9805
15.9353
15.889
15.8417
15.7933
15.744
15.6935
15.642
15.5894
15.5356
15.4807
15.4247
15.3674
15.309
15.2494
15.1885
15.1264
15.0629
14.9982
14.9322
14.8648
14.7961
14.7259
14.6544
14.5814
14.507
14.4311
14.3537
14.2748
14.1943
14.1123
14.0287
13.9434
13.8565
17.2611
17.253
17.2453
17.2359
17.2257
17.2145
17.2027
17.1901
17.1768
17.1629
17.1483
17.1331
17.1174
17.101
17.084
17.0664
17.0482
17.0294
17.01
16.99
16.9694
16.9482
16.9264
16.9039
16.8808
16.8571
16.8327
16.8077
16.782
16.7556
16.7285
16.7007
16.6722
16.643
16.6131
16.5825
16.551
16.5189
16.4859
16.4521
16.4176
16.3822
16.346
16.309
16.2711
16.2323
16.1927
16.1521
16.1107
16.0683
16.0249
15.9806
15.9353
15.889
15.8417
15.7934
15.744
15.6936
15.6421
15.5894
15.5357
15.4808
15.4247
15.3675
15.3091
15.2494
15.1885
15.1264
15.063
14.9983
14.9322
14.8649
14.7961
14.726
14.6544
14.5815
14.5071
14.4312
14.3538
14.2748
14.1944
14.1123
14.0287
13.9435
13.8566
17.2612
17.2531
17.2454
17.2361
17.2258
17.2147
17.2028
17.1902
17.1769
17.163
17.1484
17.1333
17.1175
17.1011
17.0841
17.0665
17.0483
17.0295
17.0101
16.9902
16.9696
16.9483
16.9265
16.904
16.8809
16.8572
16.8328
16.8078
16.7821
16.7557
16.7286
16.7008
16.6723
16.6431
16.6132
16.5826
16.5511
16.519
16.486
16.4522
16.4177
16.3823
16.3461
16.3091
16.2712
16.2324
16.1928
16.1522
16.1108
16.0684
16.025
15.9807
15.9354
15.8891
15.8418
15.7935
15.7441
15.6937
15.6421
15.5895
15.5357
15.4809
15.4248
15.3676
15.3091
15.2495
15.1886
15.1265
15.0631
14.9983
14.9323
14.8649
14.7962
14.726
14.6545
14.5815
14.5071
14.4312
14.3538
14.2749
14.1944
14.1124
14.0288
13.9435
13.8566
17.2614
17.2532
17.2455
17.2362
17.2259
17.2148
17.2029
17.1903
17.177
17.1631
17.1486
17.1334
17.1176
17.1012
17.0842
17.0666
17.0484
17.0297
17.0103
16.9903
16.9697
16.9485
16.9266
16.9042
16.8811
16.8573
16.8329
16.8079
16.7822
16.7558
16.7287
16.7009
16.6725
16.6433
16.6133
16.5827
16.5512
16.5191
16.4861
16.4523
16.4178
16.3824
16.3462
16.3092
16.2713
16.2325
16.1929
16.1523
16.1109
16.0685
16.0251
15.9808
15.9355
15.8892
15.8419
15.7936
15.7442
15.6937
15.6422
15.5896
15.5358
15.4809
15.4249
15.3677
15.3092
15.2496
15.1887
15.1266
15.0631
14.9984
14.9324
14.865
14.7963
14.7261
14.6546
14.5816
14.5072
14.4313
14.3539
14.275
14.1945
14.1125
14.0288
13.9436
13.8567
17.2615
17.2534
17.2457
17.2363
17.226
17.2149
17.203
17.1904
17.1772
17.1632
17.1487
17.1335
17.1177
17.1013
17.0843
17.0668
17.0486
17.0298
17.0104
16.9904
16.9698
16.9486
16.9268
16.9043
16.8812
16.8575
16.8331
16.808
16.7823
16.7559
16.7288
16.7011
16.6726
16.6434
16.6134
16.5828
16.5514
16.5192
16.4862
16.4525
16.4179
16.3825
16.3463
16.3093
16.2714
16.2326
16.193
16.1524
16.111
16.0686
16.0252
15.9809
15.9356
15.8893
15.842
15.7937
15.7443
15.6938
15.6423
15.5897
15.5359
15.481
15.425
15.3677
15.3093
15.2497
15.1888
15.1266
15.0632
14.9985
14.9325
14.8651
14.7963
14.7262
14.6547
14.5817
14.5073
14.4314
14.354
14.2751
14.1946
14.1126
14.0289
13.9437
13.8568
17.2616
17.2535
17.2458
17.2365
17.2262
17.2151
17.2032
17.1906
17.1773
17.1634
17.1488
17.1336
17.1179
17.1015
17.0845
17.0669
17.0487
17.0299
17.0105
16.9905
16.9699
16.9487
16.9269
16.9044
16.8813
16.8576
16.8332
16.8081
16.7824
16.756
16.729
16.7012
16.6727
16.6435
16.6136
16.5829
16.5515
16.5193
16.4863
16.4526
16.418
16.3827
16.3465
16.3094
16.2715
16.2328
16.1931
16.1526
16.1111
16.0687
16.0253
15.981
15.9357
15.8894
15.8421
15.7938
15.7444
15.694
15.6424
15.5898
15.536
15.4811
15.4251
15.3678
15.3094
15.2498
15.1889
15.1267
15.0633
14.9986
14.9326
14.8652
14.7964
14.7263
14.6548
14.5818
14.5074
14.4315
14.3541
14.2752
14.1947
14.1126
14.029
13.9438
13.8569
17.2618
17.2537
17.2459
17.2366
17.2263
17.2152
17.2033
17.1907
17.1775
17.1635
17.149
17.1338
17.118
17.1016
17.0846
17.067
17.0489
17.0301
17.0107
16.9907
16.9701
16.9489
16.927
16.9046
16.8815
16.8577
16.8333
16.8083
16.7826
16.7562
16.7291
16.7013
16.6728
16.6436
16.6137
16.583
16.5516
16.5194
16.4865
16.4527
16.4182
16.3828
16.3466
16.3096
16.2717
16.2329
16.1932
16.1527
16.1112
16.0688
16.0255
15.9811
15.9358
15.8896
15.8422
15.7939
15.7445
15.6941
15.6425
15.5899
15.5361
15.4813
15.4252
15.368
15.3095
15.2499
15.189
15.1269
15.0634
14.9987
14.9327
14.8653
14.7965
14.7264
14.6549
14.5819
14.5075
14.4316
14.3542
14.2753
14.1948
14.1128
14.0291
13.9439
17.2619
17.2538
17.2461
17.2368
17.2265
17.2154
17.2035
17.1909
17.1776
17.1637
17.1491
17.134
17.1182
17.1018
17.0848
17.0672
17.049
17.0302
17.0108
16.9908
16.9702
16.949
16.9272
16.9047
16.8816
16.8579
16.8335
16.8084
16.7827
16.7563
16.7292
16.7015
16.673
16.6438
16.6139
16.5832
16.5518
16.5196
16.4866
16.4529
16.4183
16.3829
16.3467
16.3097
16.2718
16.233
16.1934
16.1528
16.1113
16.0689
16.0256
15.9813
15.936
15.8897
15.8424
15.794
15.7447
15.6942
15.6427
15.59
15.5363
15.4814
15.4253
15.3681
15.3097
15.25
15.1891
15.127
15.0636
14.9988
14.9328
14.8654
14.7967
14.7265
14.655
14.582
14.5076
14.4317
14.3543
14.2754
14.1949
14.1129
14.0292
13.944
17.2621
17.254
17.2463
17.2369
17.2266
17.2155
17.2037
17.1911
17.1778
17.1639
17.1493
17.1341
17.1183
17.1019
17.0849
17.0674
17.0492
17.0304
17.011
16.991
16.9704
16.9492
16.9273
16.9049
16.8818
16.858
16.8336
16.8086
16.7829
16.7565
16.7294
16.7016
16.6731
16.6439
16.614
16.5833
16.5519
16.5197
16.4868
16.453
16.4185
16.3831
16.3469
16.3099
16.272
16.2332
16.1935
16.153
16.1115
16.0691
16.0257
15.9814
15.9361
15.8898
15.8425
15.7942
15.7448
15.6943
15.6428
15.5902
15.5364
15.4815
15.4255
15.3682
15.3098
15.2501
15.1893
15.1271
15.0637
14.999
14.9329
14.8655
14.7968
14.7267
14.6551
14.5821
14.5077
14.4318
14.3544
14.2755
14.195
14.113
14.0294
13.9441
17.2623
17.2542
17.2464
17.2371
17.2268
17.2157
17.2038
17.1912
17.178
17.164
17.1495
17.1343
17.1185
17.1021
17.0851
17.0675
17.0493
17.0306
17.0112
16.9912
16.9706
16.9494
16.9275
16.905
16.8819
16.8582
16.8338
16.8088
16.783
16.7566
16.7296
16.7018
16.6733
16.6441
16.6142
16.5835
16.5521
16.5199
16.4869
16.4532
16.4186
16.3833
16.3471
16.31
16.2721
16.2333
16.1937
16.1531
16.1117
16.0692
16.0259
15.9816
15.9363
15.89
15.8427
15.7943
15.7449
15.6945
15.643
15.5903
15.5366
15.4817
15.4256
15.3684
15.3099
15.2503
15.1894
15.1273
15.0638
14.9991
14.9331
14.8657
14.7969
14.7268
14.6553
14.5823
14.5079
14.432
14.3546
14.2756
14.1952
14.1131
14.0295
13.9442
17.2625
17.2544
17.2466
17.2373
17.227
17.2159
17.204
17.1914
17.1781
17.1642
17.1497
17.1345
17.1187
17.1023
17.0853
17.0677
17.0495
17.0307
17.0113
16.9914
16.9708
16.9495
16.9277
16.9052
16.8821
16.8584
16.834
16.8089
16.7832
16.7568
16.7297
16.702
16.6735
16.6443
16.6144
16.5837
16.5523
16.5201
16.4871
16.4534
16.4188
16.3834
16.3472
16.3102
16.2723
16.2335
16.1939
16.1533
16.1118
16.0694
16.0261
15.9817
15.9364
15.8901
15.8428
15.7945
15.7451
15.6947
15.6431
15.5905
15.5367
15.4818
15.4258
15.3685
15.3101
15.2504
15.1896
15.1274
15.064
14.9993
14.9332
14.8658
14.7971
14.727
14.6554
14.5824
14.508
14.4321
14.3547
14.2758
14.1953
14.1133
14.0296
13.9444
17.2627
17.2546
17.2468
17.2375
17.2272
17.2161
17.2042
17.1916
17.1783
17.1644
17.1498
17.1347
17.1189
17.1025
17.0855
17.0679
17.0497
17.0309
17.0115
16.9915
16.9709
16.9497
16.9279
16.9054
16.8823
16.8586
16.8342
16.8091
16.7834
16.757
16.7299
16.7022
16.6737
16.6445
16.6145
16.5839
16.5524
16.5203
16.4873
16.4535
16.419
16.3836
16.3474
16.3104
16.2725
16.2337
16.194
16.1535
16.112
16.0696
16.0262
15.9819
15.9366
15.8903
15.843
15.7947
15.7453
15.6948
15.6433
15.5907
15.5369
15.482
15.4259
15.3687
15.3103
15.2506
15.1897
15.1276
15.0642
14.9994
14.9334
14.866
14.7973
14.7271
14.6556
14.5826
14.5082
14.4323
14.3549
14.2759
14.1955
14.1134
14.0298
13.9445
17.2629
17.2548
17.247
17.2377
17.2274
17.2163
17.2044
17.1918
17.1785
17.1646
17.1501
17.1349
17.1191
17.1027
17.0857
17.0681
17.0499
17.0311
17.0117
16.9917
16.9711
16.9499
16.9281
16.9056
16.8825
16.8588
16.8344
16.8093
16.7836
16.7572
16.7301
16.7024
16.6739
16.6447
16.6147
16.5841
16.5526
16.5204
16.4875
16.4537
16.4192
16.3838
16.3476
16.3106
16.2726
16.2339
16.1942
16.1537
16.1122
16.0698
16.0264
15.9821
15.9368
15.8905
15.8432
15.7949
15.7455
15.695
15.6435
15.5908
15.5371
15.4822
15.4261
15.3689
15.3104
15.2508
15.1899
15.1278
15.0643
14.9996
14.9336
14.8662
14.7974
14.7273
14.6557
14.5828
14.5083
14.4324
14.355
14.2761
14.1956
14.1136
14.03
13.9447
17.2631
17.2551
17.2472
17.2379
17.2276
17.2165
17.2046
17.192
17.1788
17.1648
17.1503
17.1351
17.1193
17.1029
17.0859
17.0683
17.0501
17.0313
17.012
16.992
16.9714
16.9501
16.9283
16.9058
16.8827
16.859
16.8346
16.8095
16.7838
16.7574