/*--------------------------------*- C++ -*----------------------------------*\
  =========                 |
  \\      /  F ield         | OpenFOAM: The Open Source CFD Toolbox
   \\    /   O peration     | Website:  https://openfoam.org
    \\  /    A nd           | Version:  10
     \\/     M anipulation  |
\*---------------------------------------------------------------------------*/
FoamFile
{
    format      ascii;
    class       volScalarField;
    location    "3000";
    object      nut;
}
// * * * * * * * * * * * * * * * * * * * * * * * * * * * * * * * * * * * * * //

dimensions      [0 2 -1 0 0 0 0];

internalField   nonuniform List<scalar> 
17981
(
5.74407e-05
0.000112752
0.000112969
0.000113232
0.000113518
0.000113816
0.000114119
0.000114423
0.000114727
0.000115029
0.00011533
0.000115629
0.000115926
0.000116222
0.000116517
0.00011681
0.000117102
0.000117393
0.000117684
0.000117975
0.000118265
0.000118556
0.000118847
0.000119139
0.000119432
0.000119726
0.000120021
0.000120318
0.000120616
0.000120916
0.000121218
0.000121521
0.000121828
0.000122136
0.000122447
0.00012276
0.000123076
0.000123394
0.000123715
0.000124039
0.000124365
0.000124694
0.000125025
0.000125359
0.000125696
0.000126034
0.000126375
0.000126719
0.00011535
0.000115677
0.000116016
0.000116358
0.000116701
0.00011704
0.000117377
0.00011771
0.000118039
0.000118365
0.000118688
0.000119009
0.000119327
0.000119643
0.000119958
0.000120271
0.000120583
0.000120894
0.000121206
0.000121517
0.000121828
0.000122139
0.000122451
0.000122764
0.000123077
0.000123392
0.000123707
0.000124024
0.000124343
0.000124663
0.000124984
0.000125307
0.000125632
0.000125959
0.000126287
0.000126617
0.000126948
0.000127282
0.000127616
0.000127953
0.000128291
0.00012863
0.000128971
0.000129312
0.000129655
0.000129998
0.000130342
0.000130687
0.000117709
0.000118085
0.000118457
0.000118825
0.000119188
0.000119545
0.000119898
0.000120246
0.00012059
0.000120931
0.000121269
0.000121604
0.000121937
0.000122269
0.000122599
0.000122929
0.000123258
0.000123586
0.000123914
0.000124243
0.000124571
0.0001249
0.00012523
0.000125561
0.000125892
0.000126224
0.000126557
0.000126892
0.000127227
0.000127564
0.000127901
0.00012824
0.00012858
0.000128921
0.000129263
0.000129605
0.000129949
0.000130293
0.000130638
0.000130984
0.000131329
0.000131675
0.000132021
0.000132366
0.000132711
0.000133056
0.000133399
0.000133741
0.000120998
0.000121364
0.000121724
0.000122081
0.000122433
0.000122782
0.000123129
0.000123475
0.000123818
0.000124161
0.000124502
0.000124844
0.000125185
0.000125526
0.000125867
0.000126209
0.000126551
0.000126894
0.000127237
0.000127581
0.000127926
0.000128272
0.000128619
0.000128966
0.000129314
0.000129663
0.000130013
0.000130363
0.000130714
0.000131065
0.000131416
0.000131768
0.000132119
0.000132471
0.000132822
0.000133172
0.000133522
0.000133871
0.000134218
0.000134564
0.000134909
0.000135251
0.00013559
0.000135927
0.000122184
0.000122551
0.000122913
0.000123272
0.000123627
0.00012398
0.000124331
0.000124681
0.00012503
0.000125379
0.000125727
0.000126075
0.000126424
0.000126773
0.000127122
0.000127472
0.000127822
0.000128173
0.000128525
0.000128878
0.000129231
0.000129586
0.00012994
0.000130296
0.000130652
0.000131008
0.000131365
0.000131722
0.000132079
0.000132435
0.000132792
0.000133148
0.000133503
0.000133858
0.000134211
0.000134563
0.000134913
0.000135261
0.000135607
0.000135951
0.000136291
0.000136628
0.000136961
0.00013729
0.000122794
0.000123155
0.000123513
0.000123869
0.000124221
0.000124572
0.000124922
0.000125272
0.00012562
0.000125969
0.000126318
0.000126668
0.000127017
0.000127368
0.000127719
0.000128072
0.000128425
0.000128779
0.000129134
0.00012949
0.000129846
0.000130203
0.000130561
0.000130919
0.000131278
0.000131637
0.000131996
0.000132354
0.000132713
0.000133071
0.000133428
0.000133785
0.00013414
0.000134494
0.000134845
0.000135195
0.000135543
0.000135887
0.000136229
0.000136567
0.000136901
0.00013723
0.000137555
0.000137874
0.000123212
0.000123562
0.000123909
0.000124255
0.0001246
0.000124944
0.000125287
0.00012563
0.000125973
0.000126317
0.000126661
0.000127006
0.000127353
0.0001277
0.000128048
0.000128398
0.000128748
0.0001291
0.000129452
0.000129805
0.000130159
0.000130514
0.000130869
0.000131225
0.00013158
0.000131936
0.000132291
0.000132646
0.000133
0.000133353
0.000133705
0.000134056
0.000134404
0.000134751
0.000135094
0.000135435
0.000135773
0.000136106
0.000136435
0.00013676
0.000137079
0.000137393
0.0001377
0.00012343
0.000123765
0.000124098
0.000124429
0.00012476
0.000125091
0.000125423
0.000125755
0.000126088
0.000126422
0.000126757
0.000127093
0.000127431
0.00012777
0.00012811
0.000128451
0.000128794
0.000129137
0.000129482
0.000129827
0.000130172
0.000130519
0.000130865
0.000131211
0.000131557
0.000131903
0.000132248
0.000132592
0.000132934
0.000133275
0.000133614
0.00013395
0.000134283
0.000134613
0.00013494
0.000135262
0.000135579
0.000135891
0.000136196
0.000136496
0.000136788
0.00012279
0.000123104
0.000123418
0.000123731
0.000124044
0.000124357
0.000124671
0.000124986
0.000125303
0.00012562
0.000125939
0.000126259
0.000126581
0.000126904
0.000127229
0.000127555
0.000127882
0.00012821
0.00012854
0.00012887
0.0001292
0.000129532
0.000129863
0.000130194
0.000130525
0.000130855
0.000131184
0.000131512
0.000131838
0.000132162
0.000132483
0.000132801
0.000133116
0.000133427
0.000133733
0.000134034
0.000134329
0.000134617
0.000134899
0.000135172
0.000121946
0.000122238
0.000122529
0.00012282
0.000123111
0.000123404
0.000123697
0.000123992
0.000124288
0.000124586
0.000124885
0.000125186
0.000125488
0.000125792
0.000126097
0.000126403
0.000126711
0.000127019
0.000127329
0.000127639
0.000127949
0.000128259
0.00012857
0.000128879
0.000129188
0.000129496
0.000129802
0.000130106
0.000130407
0.000130705
0.000130999
0.000131289
0.000131575
0.000131855
0.000132128
0.000132395
0.000132653
0.000132904
0.000121117
0.000121388
0.000121659
0.000121929
0.0001222
0.000122472
0.000122745
0.000123019
0.000123294
0.000123571
0.00012385
0.000124129
0.00012441
0.000124692
0.000124975
0.000125259
0.000125543
0.000125828
0.000126112
0.000126396
0.00012668
0.000126962
0.000127242
0.00012752
0.000127796
0.000128068
0.000128337
0.000128601
0.00012886
0.000129113
0.000129359
0.000129598
0.000129828
0.00013005
0.000118776
0.000119018
0.00011926
0.000119501
0.000119743
0.000119986
0.00012023
0.000120475
0.00012072
0.000120968
0.000121216
0.000121466
0.000121717
0.000121969
0.000122222
0.000122475
0.000122729
0.000122983
0.000123237
0.000123491
0.000123744
0.000123995
0.000124245
0.000124493
0.000124737
0.000124978
0.000125215
0.000125447
0.000125674
0.000125894
0.000126107
0.000126312
0.000126507
0.000126693
0.000116101
0.000116317
0.000116532
0.000116747
0.000116962
0.000117177
0.000117392
0.000117608
0.000117824
0.000118042
0.000118261
0.00011848
0.0001187
0.000118921
0.000119142
0.000119364
0.000119586
0.000119808
0.000120029
0.000120249
0.000120468
0.000120685
0.000120901
0.000121113
0.000121322
0.000121527
0.000121727
0.000121921
0.000122109
0.00012229
0.000122463
0.000122627
0.00012278
0.000122922
0.000113093
0.000113289
0.000113483
0.000113677
0.00011387
0.000114063
0.000114255
0.000114447
0.000114639
0.000114831
0.000115023
0.000115215
0.000115407
0.000115599
0.000115791
0.000115982
0.000116172
0.000116361
0.000116549
0.000116735
0.000116919
0.0001171
0.000117278
0.000117452
0.000117622
0.000117787
0.000117946
0.000118098
0.000118242
0.000118378
0.000118504
0.00011862
0.000118724
0.000118815
0.000109886
0.00011007
0.000110253
0.000110434
0.000110614
0.000110792
0.000110969
0.000111145
0.000111319
0.000111493
0.000111665
0.000111835
0.000112004
0.000112172
0.000112337
0.0001125
0.000112661
0.000112818
0.000112973
0.000113123
0.00011327
0.000113411
0.000113547
0.000113676
0.000113799
0.000113914
0.00011402
0.000114117
0.000114203
0.000114278
0.00011434
0.000114388
0.000114421
0.000106026
0.000106208
0.000106389
0.000106567
0.000106744
0.000106919
0.000107092
0.000107262
0.00010743
0.000107595
0.000107758
0.000107917
0.000108073
0.000108226
0.000108374
0.000108519
0.000108658
0.000108793
0.000108921
0.000109044
0.00010916
0.000109269
0.000109369
0.000109461
0.000109543
0.000109614
0.000109674
0.000109722
0.000109757
0.000109777
0.000109781
0.000109769
0.000109739
0.000101567
0.000101753
0.000101939
0.000102123
0.000102307
0.000102488
0.000102667
0.000102843
0.000103016
0.000103185
0.00010335
0.00010351
0.000103664
0.000103813
0.000103956
0.000104092
0.00010422
0.000104341
0.000104454
0.000104557
0.000104651
0.000104735
0.000104808
0.000104868
0.000104916
0.00010495
0.00010497
0.000104974
0.000104961
0.00010493
0.000104879
0.000104809
0.000104717
9.65569e-05
9.67486e-05
9.69415e-05
9.71347e-05
9.73271e-05
9.75181e-05
9.77068e-05
9.78922e-05
9.80736e-05
9.82501e-05
9.84208e-05
9.85851e-05
9.87423e-05
9.88917e-05
9.90325e-05
9.91638e-05
9.92848e-05
9.93946e-05
9.94923e-05
9.95769e-05
9.96477e-05
9.97037e-05
9.97438e-05
9.97672e-05
9.97728e-05
9.97596e-05
9.97266e-05
9.96728e-05
9.9597e-05
9.94983e-05
9.93754e-05
9.92272e-05
9.05431e-05
9.07282e-05
9.09181e-05
9.11106e-05
9.13044e-05
9.14984e-05
9.12054e-05
9.06467e-05
9.02044e-05
8.99e-05
8.96995e-05
8.95904e-05
8.95627e-05
8.96036e-05
8.9701e-05
8.9846e-05
9.00306e-05
9.02484e-05
9.0493e-05
9.07591e-05
9.10446e-05
9.13456e-05
9.16579e-05
9.19802e-05
9.23099e-05
9.2642e-05
9.29768e-05
9.33178e-05
9.35539e-05
9.34229e-05
9.32643e-05
9.30771e-05
8.31998e-05
8.10359e-05
7.94678e-05
7.8431e-05
7.76123e-05
7.70583e-05
7.67283e-05
7.6568e-05
7.65349e-05
7.66091e-05
7.67816e-05
7.70404e-05
7.73703e-05
7.7759e-05
7.81938e-05
7.86645e-05
7.91632e-05
7.96828e-05
8.02184e-05
8.07662e-05
8.13237e-05
8.18874e-05
8.24576e-05
8.30347e-05
8.36163e-05
8.42019e-05
8.47867e-05
8.53675e-05
8.59692e-05
8.65374e-05
8.63679e-05
8.61674e-05
7.11301e-05
6.9232e-05
6.79869e-05
6.72404e-05
6.66963e-05
6.63786e-05
6.62479e-05
6.62603e-05
6.63833e-05
6.65957e-05
6.68829e-05
6.72345e-05
6.76429e-05
6.81003e-05
6.86004e-05
6.91358e-05
6.97009e-05
7.02892e-05
7.08979e-05
7.15233e-05
7.21629e-05
7.28155e-05
7.34791e-05
7.41533e-05
7.48403e-05
7.5539e-05
7.62457e-05
7.69532e-05
7.76821e-05
7.8433e-05
7.87626e-05
7.85709e-05
6.35612e-05
6.19555e-05
6.07805e-05
5.99968e-05
5.93596e-05
5.88752e-05
5.85241e-05
5.82906e-05
5.81644e-05
5.8137e-05
5.82013e-05
5.83503e-05
5.85776e-05
5.88776e-05
5.9245e-05
5.96726e-05
6.01551e-05
6.0686e-05
6.12589e-05
6.18682e-05
6.25095e-05
6.31797e-05
6.38754e-05
6.45943e-05
6.53348e-05
6.60979e-05
6.68836e-05
6.76798e-05
6.8482e-05
6.93642e-05
7.03292e-05
7.05618e-05
5.92116e-05
5.7306e-05
5.59576e-05
5.49139e-05
5.39794e-05
5.31951e-05
5.25509e-05
5.20349e-05
5.16367e-05
5.13448e-05
5.11499e-05
5.10456e-05
5.10274e-05
5.10903e-05
5.12308e-05
5.1446e-05
5.17321e-05
5.20858e-05
5.2503e-05
5.29796e-05
5.351e-05
5.40904e-05
5.47172e-05
5.53857e-05
5.60938e-05
5.68385e-05
5.76182e-05
5.84258e-05
5.92511e-05
6.01423e-05
6.11714e-05
6.20144e-05
5.70206e-05
5.53969e-05
5.33981e-05
5.17658e-05
5.04683e-05
4.94271e-05
4.85331e-05
4.77481e-05
4.70695e-05
4.64937e-05
4.60119e-05
4.56158e-05
4.53001e-05
4.50619e-05
4.49e-05
4.48145e-05
4.48055e-05
4.48729e-05
4.50157e-05
4.5235e-05
4.55322e-05
4.59066e-05
4.63561e-05
4.68779e-05
4.74683e-05
4.81242e-05
4.88415e-05
4.96125e-05
5.0429e-05
5.13278e-05
5.23574e-05
5.32618e-05
5.27776e-05
5.24341e-05
5.21102e-05
5.0854e-05
4.90211e-05
4.74127e-05
4.61146e-05
4.5011e-05
4.40255e-05
4.31432e-05
4.2363e-05
4.16776e-05
4.10824e-05
4.05774e-05
4.01603e-05
3.98272e-05
3.9574e-05
3.94018e-05
3.93149e-05
3.93128e-05
3.93924e-05
3.95553e-05
3.98047e-05
4.01432e-05
4.05723e-05
4.10926e-05
4.17033e-05
4.23974e-05
4.31666e-05
4.40432e-05
4.50651e-05
4.59981e-05
4.97633e-05
4.93605e-05
4.89724e-05
4.85984e-05
4.82399e-05
4.67344e-05
4.50042e-05
4.34956e-05
4.22107e-05
4.1077e-05
4.00732e-05
3.92031e-05
3.84538e-05
3.78031e-05
3.72392e-05
3.67585e-05
3.63572e-05
3.60317e-05
3.57794e-05
3.56005e-05
3.54984e-05
3.54775e-05
3.55435e-05
3.57021e-05
3.59592e-05
3.63213e-05
3.67927e-05
3.73735e-05
3.80622e-05
3.88861e-05
3.98739e-05
4.08258e-05
4.78449e-05
4.73938e-05
4.69539e-05
4.65245e-05
4.61058e-05
4.56983e-05
4.50436e-05
4.36493e-05
4.2219e-05
4.09282e-05
3.97877e-05
3.87724e-05
3.78447e-05
3.69946e-05
3.6232e-05
3.55594e-05
3.4979e-05
3.44874e-05
3.40796e-05
3.37532e-05
3.35086e-05
3.33476e-05
3.32735e-05
3.32928e-05
3.34127e-05
3.3642e-05
3.39899e-05
3.44614e-05
3.50565e-05
3.58019e-05
3.67547e-05
3.77778e-05
4.68004e-05
4.63122e-05
4.58326e-05
4.53609e-05
4.4897e-05
4.44412e-05
4.39934e-05
4.35542e-05
4.31246e-05
4.26858e-05
4.1444e-05
4.01667e-05
3.8994e-05
3.79108e-05
3.69247e-05
3.60295e-05
3.52156e-05
3.44879e-05
3.38535e-05
3.33232e-05
3.28978e-05
3.25766e-05
3.2361e-05
3.22549e-05
3.22652e-05
3.2399e-05
3.26632e-05
3.30568e-05
3.35825e-05
3.43114e-05
3.52911e-05
3.58332e-05
4.63953e-05
4.5881e-05
4.53729e-05
4.48706e-05
4.43738e-05
4.38825e-05
4.33968e-05
4.29171e-05
4.24438e-05
4.19774e-05
4.15181e-05
4.10668e-05
4.06245e-05
4.01923e-05
3.9349e-05
3.81819e-05
3.71056e-05
3.61137e-05
3.51601e-05
3.42878e-05
3.35529e-05
3.29663e-05
3.2523e-05
3.22256e-05
3.20853e-05
3.21123e-05
3.2305e-05
3.26609e-05
3.32252e-05
3.39838e-05
3.42093e-05
3.39761e-05
4.58639e-05
4.53395e-05
4.48182e-05
4.42998e-05
4.37844e-05
4.32722e-05
4.27636e-05
4.22591e-05
4.17591e-05
4.12643e-05
4.07752e-05
4.02923e-05
3.98162e-05
3.93474e-05
3.88865e-05
3.84341e-05
3.7991e-05
3.75579e-05
3.69431e-05
3.59061e-05
3.49426e-05
3.41327e-05
3.34856e-05
3.3017e-05
3.2761e-05
3.27732e-05
3.31234e-05
3.36802e-05
3.34435e-05
3.31602e-05
3.28929e-05
4.60807e-05
4.55438e-05
4.50093e-05
4.44767e-05
4.39458e-05
4.34167e-05
4.28896e-05
4.23648e-05
4.18428e-05
4.13239e-05
4.08089e-05
4.02982e-05
3.97926e-05
3.92927e-05
3.87992e-05
3.83129e-05
3.78342e-05
3.7364e-05
3.69026e-05
3.64507e-05
3.6009e-05
3.55782e-05
3.51592e-05
3.47527e-05
3.43595e-05
3.39807e-05
3.3617e-05
3.32692e-05
3.29383e-05
3.2625e-05
3.23305e-05
4.63758e-05
4.58307e-05
4.52877e-05
4.47465e-05
4.42067e-05
4.36684e-05
4.31313e-05
4.25957e-05
4.20615e-05
4.15293e-05
4.09994e-05
4.04723e-05
3.99488e-05
3.94295e-05
3.89151e-05
3.84066e-05
3.79048e-05
3.74106e-05
3.69248e-05
3.64483e-05
3.5982e-05
3.55267e-05
3.50833e-05
3.46527e-05
3.42358e-05
3.38334e-05
3.34466e-05
3.30764e-05
3.27238e-05
3.23902e-05
3.20767e-05
4.66602e-05
4.6105e-05
4.55522e-05
4.5004e-05
4.44584e-05
4.39151e-05
4.33734e-05
4.28329e-05
4.22937e-05
4.17556e-05
4.12191e-05
4.06843e-05
4.01519e-05
3.96225e-05
3.90968e-05
3.85756e-05
3.80598e-05
3.75505e-05
3.70485e-05
3.65549e-05
3.60708e-05
3.55972e-05
3.51352e-05
3.46858e-05
3.425e-05
3.3829e-05
3.34239e-05
3.30359e-05
3.26663e-05
3.23163e-05
3.19875e-05
4.51882e-05
4.46415e-05
4.40961e-05
4.35519e-05
4.30088e-05
4.24668e-05
4.1926e-05
4.13865e-05
4.08485e-05
4.03124e-05
3.97786e-05
3.92477e-05
3.87204e-05
3.81975e-05
3.76799e-05
3.71686e-05
3.66646e-05
3.61692e-05
3.56835e-05
3.52087e-05
3.47459e-05
3.42965e-05
3.38616e-05
3.34426e-05
3.30409e-05
3.26577e-05
3.22947e-05
3.19534e-05
4.53151e-05
4.4758e-05
4.42038e-05
4.36519e-05
4.31021e-05
4.25543e-05
4.20085e-05
4.14647e-05
4.09229e-05
4.03835e-05
3.98465e-05
3.93125e-05
3.87818e-05
3.82551e-05
3.77332e-05
3.72168e-05
3.67071e-05
3.62051e-05
3.57119e-05
3.52288e-05
3.47571e-05
3.42982e-05
3.38534e-05
3.34242e-05
3.30119e-05
3.26183e-05
3.22448e-05
3.18932e-05
4.53666e-05
4.47979e-05
4.42324e-05
4.36698e-05
4.31098e-05
4.25526e-05
4.19981e-05
4.14465e-05
4.08978e-05
4.03521e-05
3.98097e-05
3.92708e-05
3.87358e-05
3.8205e-05
3.7679e-05
3.71585e-05
3.66444e-05
3.61376e-05
3.56392e-05
3.51503e-05
3.46722e-05
3.42062e-05
3.37539e-05
3.33167e-05
3.28962e-05
3.24939e-05
3.21117e-05
3.17514e-05
4.53477e-05
4.47664e-05
4.41883e-05
4.3613e-05
4.30405e-05
4.24709e-05
4.19045e-05
4.13415e-05
4.0782e-05
4.02264e-05
3.96747e-05
3.91272e-05
3.85843e-05
3.80464e-05
3.75138e-05
3.69871e-05
3.6467e-05
3.59543e-05
3.545e-05
3.4955e-05
3.44705e-05
3.39979e-05
3.35386e-05
3.3094e-05
3.26658e-05
3.22556e-05
3.18653e-05
3.14967e-05
4.52614e-05
4.46678e-05
4.40768e-05
4.34883e-05
4.29022e-05
4.2319e-05
4.17389e-05
4.11622e-05
4.05893e-05
4.00206e-05
3.94563e-05
3.88967e-05
3.83424e-05
3.77936e-05
3.72507e-05
3.67144e-05
3.61851e-05
3.56635e-05
3.51506e-05
3.46472e-05
3.41544e-05
3.36735e-05
3.32057e-05
3.27526e-05
3.23157e-05
3.18968e-05
3.14977e-05
3.11204e-05
4.51066e-05
4.45015e-05
4.38985e-05
4.32973e-05
4.26981e-05
4.21013e-05
4.15072e-05
4.09163e-05
4.03291e-05
3.9746e-05
3.91675e-05
3.85939e-05
3.80257e-05
3.74634e-05
3.69075e-05
3.63585e-05
3.5817e-05
3.52836e-05
3.47591e-05
3.42444e-05
3.37406e-05
3.32487e-05
3.27701e-05
3.23063e-05
3.18588e-05
3.14293e-05
3.10199e-05
3.06325e-05
4.48783e-05
4.42632e-05
4.36495e-05
4.30369e-05
4.24258e-05
4.18165e-05
4.12095e-05
4.06053e-05
4.00044e-05
3.94073e-05
3.88146e-05
3.82268e-05
3.76444e-05
3.70679e-05
3.64979e-05
3.59349e-05
3.53796e-05
3.48326e-05
3.42947e-05
3.37668e-05
3.32498e-05
3.2745e-05
3.22536e-05
3.1777e-05
3.1317e-05
3.08753e-05
3.04538e-05
3.00549e-05
4.45698e-05
4.3946e-05
4.33231e-05
4.27008e-05
4.20794e-05
4.14593e-05
4.08411e-05
4.02252e-05
3.96123e-05
3.90029e-05
3.83975e-05
3.77968e-05
3.72013e-05
3.66116e-05
3.60282e-05
3.54518e-05
3.48831e-05
3.43226e-05
3.37712e-05
3.32298e-05
3.26993e-05
3.2181e-05
3.16761e-05
3.11861e-05
3.07127e-05
3.02579e-05
2.98236e-05
2.94125e-05
4.41738e-05
4.35425e-05
4.29118e-05
4.22812e-05
4.16513e-05
4.10223e-05
4.03948e-05
3.97693e-05
3.91465e-05
3.8527e-05
3.79112e-05
3.72999e-05
3.66936e-05
3.60928e-05
3.54983e-05
3.49106e-05
3.43303e-05
3.37582e-05
3.3195e-05
3.26416e-05
3.2099e-05
3.15683e-05
3.1051e-05
3.05484e-05
3.00624e-05
2.95951e-05
2.91486e-05
2.87256e-05
4.36832e-05
4.30454e-05
4.2408e-05
4.17706e-05
4.11337e-05
4.04975e-05
3.98627e-05
3.92299e-05
3.85995e-05
3.79723e-05
3.73488e-05
3.67295e-05
3.61152e-05
3.55064e-05
3.49036e-05
3.43075e-05
3.37187e-05
3.31379e-05
3.25658e-05
3.20033e-05
3.14513e-05
3.0911e-05
3.03838e-05
2.98711e-05
2.93748e-05
2.8897e-05
2.84402e-05
2.80071e-05
4.30915e-05
4.2448e-05
4.1805e-05
4.1162e-05
4.05194e-05
3.98778e-05
3.92376e-05
3.85993e-05
3.79637e-05
3.73313e-05
3.67026e-05
3.60784e-05
3.54591e-05
3.48453e-05
3.42376e-05
3.36365e-05
3.30427e-05
3.24568e-05
3.18795e-05
3.13115e-05
3.07539e-05
3.02076e-05
2.96741e-05
2.91547e-05
2.86515e-05
2.81665e-05
2.77024e-05
2.72621e-05
4.23933e-05
4.17448e-05
4.1097e-05
4.04494e-05
3.98026e-05
3.91569e-05
3.8513e-05
3.78713e-05
3.72326e-05
3.65974e-05
3.59662e-05
3.53397e-05
3.47184e-05
3.41029e-05
3.34936e-05
3.28912e-05
3.22961e-05
3.17089e-05
3.11303e-05
3.05609e-05
3.00017e-05
2.94536e-05
2.89179e-05
2.83961e-05
2.78899e-05
2.74017e-05
2.6934e-05
2.649e-05
4.15842e-05
4.09313e-05
4.02794e-05
3.96284e-05
3.89784e-05
3.83302e-05
3.76841e-05
3.70409e-05
3.64011e-05
3.57654e-05
3.51342e-05
3.45082e-05
3.38879e-05
3.32737e-05
3.26662e-05
3.20659e-05
3.14732e-05
3.08886e-05
3.03126e-05
2.9746e-05
2.91893e-05
2.86437e-05
2.81102e-05
2.75901e-05
2.70854e-05
2.6598e-05
2.61308e-05
2.56869e-05
4.06609e-05
4.00042e-05
3.93492e-05
3.86957e-05
3.80438e-05
3.73944e-05
3.67479e-05
3.61049e-05
3.54661e-05
3.48321e-05
3.42033e-05
3.35805e-05
3.29639e-05
3.23542e-05
3.17517e-05
3.11569e-05
3.05701e-05
2.99918e-05
2.94224e-05
2.88624e-05
2.83125e-05
2.77734e-05
2.72462e-05
2.67322e-05
2.62331e-05
2.57508e-05
2.52881e-05
2.48482e-05
3.96214e-05
3.89618e-05
3.83047e-05
3.76497e-05
3.69974e-05
3.63482e-05
3.57029e-05
3.5062e-05
3.44263e-05
3.37962e-05
3.31724e-05
3.25554e-05
3.19455e-05
3.13432e-05
3.07489e-05
3.01628e-05
2.95854e-05
2.90168e-05
2.84575e-05
2.79079e-05
2.73684e-05
2.68398e-05
2.63229e-05
2.58188e-05
2.53291e-05
2.48557e-05
2.44012e-05
2.39688e-05
3.84649e-05
3.78035e-05
3.71455e-05
3.64906e-05
3.58392e-05
3.51921e-05
3.45498e-05
3.39132e-05
3.32828e-05
3.26593e-05
3.20432e-05
3.1435e-05
3.08348e-05
3.02431e-05
2.96599e-05
2.90857e-05
2.85207e-05
2.7965e-05
2.7419e-05
2.6883e-05
2.63573e-05
2.58424e-05
2.5339e-05
2.48481e-05
2.4371e-05
2.39096e-05
2.34663e-05
2.30441e-05
3.71922e-05
3.65305e-05
3.58731e-05
3.52199e-05
3.45714e-05
3.39283e-05
3.32916e-05
3.26618e-05
3.20398e-05
3.14261e-05
3.07707e-05
3.00628e-05
2.93751e-05
2.87081e-05
2.80607e-05
2.74345e-05
2.68292e-05
2.62444e-05
2.56791e-05
2.51324e-05
2.4605e-05
2.40974e-05
2.36105e-05
2.31469e-05
2.27159e-05
2.23092e-05
2.18811e-05
2.15701e-05
3.58056e-05
3.51453e-05
3.44904e-05
3.3841e-05
3.31977e-05
3.25614e-05
3.19333e-05
3.1289e-05
3.05157e-05
2.97695e-05
2.90512e-05
2.83582e-05
2.7692e-05
2.70515e-05
2.64342e-05
2.58377e-05
2.52599e-05
2.46987e-05
2.41526e-05
2.36209e-05
2.31031e-05
2.26006e-05
2.21148e-05
2.16489e-05
2.12114e-05
2.07957e-05
2.03611e-05
2.00388e-05
3.4309e-05
3.3652e-05
3.30019e-05
3.23587e-05
3.17233e-05
3.1097e-05
3.03531e-05
2.95355e-05
2.87551e-05
2.80141e-05
2.73122e-05
2.66507e-05
2.60258e-05
2.54308e-05
2.4861e-05
2.43127e-05
2.37824e-05
2.32675e-05
2.27654e-05
2.2275e-05
2.17953e-05
2.13268e-05
2.08696e-05
2.04261e-05
2.00037e-05
1.95966e-05
1.91655e-05
1.88326e-05
3.2707e-05
3.20564e-05
3.1413e-05
3.07788e-05
3.01543e-05
2.94808e-05
2.86095e-05
2.77843e-05
2.70163e-05
2.62968e-05
2.56249e-05
2.49963e-05
2.44046e-05
2.38431e-05
2.33072e-05
2.27932e-05
2.22979e-05
2.18184e-05
2.13524e-05
2.08984e-05
2.04557e-05
2.00244e-05
1.96046e-05
1.91979e-05
1.88104e-05
1.84358e-05
1.80367e-05
1.77263e-05
3.0361e-05
2.97303e-05
2.91093e-05
2.8499e-05
2.77667e-05
2.68981e-05
2.60868e-05
2.53339e-05
2.46313e-05
2.39798e-05
2.33749e-05
2.2809e-05
2.22761e-05
2.17713e-05
2.12898e-05
2.08277e-05
2.03816e-05
1.9949e-05
1.95279e-05
1.91172e-05
1.87173e-05
1.83283e-05
1.79517e-05
1.75925e-05
1.72455e-05
1.68754e-05
1.65872e-05
2.8595e-05
2.79732e-05
2.73657e-05
2.67702e-05
2.60808e-05
2.52386e-05
2.44478e-05
2.3709e-05
2.30162e-05
2.23737e-05
2.17793e-05
2.12277e-05
2.07145e-05
2.02348e-05
1.97832e-05
1.93544e-05
1.89441e-05
1.85487e-05
1.81652e-05
1.77917e-05
1.74271e-05
1.70717e-05
1.67261e-05
1.63953e-05
1.60747e-05
1.57309e-05
1.54601e-05
2.55496e-05
2.49776e-05
2.44189e-05
2.36261e-05
2.28652e-05
2.21437e-05
2.14628e-05
2.08271e-05
2.02367e-05
1.96891e-05
1.9183e-05
1.87157e-05
1.82821e-05
1.78774e-05
1.74973e-05
1.71371e-05
1.67922e-05
1.6459e-05
1.61352e-05
1.58193e-05
1.55112e-05
1.52152e-05
1.49264e-05
1.46133e-05
1.43629e-05
2.37017e-05
2.31519e-05
2.2616e-05
2.19789e-05
2.12767e-05
2.05949e-05
1.99451e-05
1.933e-05
1.87508e-05
1.82086e-05
1.77063e-05
1.72434e-05
1.68173e-05
1.64255e-05
1.6065e-05
1.57312e-05
1.5419e-05
1.5123e-05
1.48395e-05
1.45655e-05
1.4299e-05
1.4042e-05
1.3789e-05
1.35105e-05
1.32841e-05
2.12939e-05
2.07894e-05
2.03e-05
1.96711e-05
1.9044e-05
1.84396e-05
1.78625e-05
1.73101e-05
1.67858e-05
1.62957e-05
1.58406e-05
1.54198e-05
1.50335e-05
1.46814e-05
1.43612e-05
1.40694e-05
1.38012e-05
1.35515e-05
1.33153e-05
1.30889e-05
1.28719e-05
1.2658e-05
1.24188e-05
1.2222e-05
1.9439e-05
1.89668e-05
1.85107e-05
1.80441e-05
1.7481e-05
1.69319e-05
1.64046e-05
1.58971e-05
1.54108e-05
1.49489e-05
1.45121e-05
1.41018e-05
1.37219e-05
1.33749e-05
1.30608e-05
1.27783e-05
1.25247e-05
1.22962e-05
1.20881e-05
1.18955e-05
1.17163e-05
1.15422e-05
1.1345e-05
1.11815e-05
1.7596e-05
1.71625e-05
1.67439e-05
1.63414e-05
1.59085e-05
1.54202e-05
1.49491e-05
1.44948e-05
1.40581e-05
1.36405e-05
1.324e-05
1.28579e-05
1.24981e-05
1.21639e-05
1.18574e-05
1.15805e-05
1.13339e-05
1.11163e-05
1.09245e-05
1.0754e-05
1.06015e-05
1.04584e-05
1.02975e-05
1.01658e-05
1.53948e-05
1.50198e-05
1.46601e-05
1.4315e-05
1.39175e-05
1.34988e-05
1.30987e-05
1.27194e-05
1.23574e-05
1.20075e-05
1.16699e-05
1.13469e-05
1.10405e-05
1.07537e-05
1.04899e-05
1.02516e-05
1.00402e-05
9.8555e-06
9.6956e-06
9.55867e-06
9.43708e-06
9.3054e-06
9.20131e-06
1.37006e-05
1.33693e-05
1.30519e-05
1.27495e-05
1.24448e-05
1.20814e-05
1.17359e-05
1.14102e-05
1.1103e-05
1.08091e-05
1.05265e-05
1.02539e-05
9.98994e-06
9.73674e-06
9.49814e-06
9.27787e-06
9.07907e-06
8.90363e-06
8.75202e-06
8.62439e-06
8.515e-06
8.40161e-06
8.31546e-06
1.18033e-05
1.15325e-05
1.12747e-05
1.10293e-05
1.07285e-05
1.04365e-05
1.0162e-05
9.90554e-06
9.66501e-06
9.43791e-06
9.22021e-06
9.00862e-06
8.80264e-06
8.60357e-06
8.41386e-06
8.23686e-06
8.07606e-06
7.93398e-06
7.81314e-06
7.71081e-06
7.60868e-06
7.534e-06
1.03518e-05
1.01251e-05
9.91012e-06
9.70616e-06
9.47373e-06
9.2366e-06
9.01502e-06
8.80801e-06
8.61547e-06
8.4369e-06
8.26837e-06
8.10674e-06
7.94998e-06
7.79657e-06
7.64651e-06
7.50136e-06
7.36382e-06
7.23735e-06
7.12597e-06
7.02939e-06
6.93309e-06
6.86219e-06
9.01927e-06
8.83708e-06
8.66347e-06
8.49924e-06
8.34385e-06
8.16474e-06
7.99605e-06
7.83969e-06
7.69487e-06
7.56002e-06
7.4334e-06
7.31384e-06
7.19954e-06
7.08789e-06
6.97671e-06
6.86545e-06
6.75482e-06
6.6468e-06
6.54564e-06
6.45273e-06
6.35757e-06
6.28523e-06
7.67242e-06
7.539e-06
7.41226e-06
7.29204e-06
7.17839e-06
7.07163e-06
6.97202e-06
6.87982e-06
6.7952e-06
6.71819e-06
6.63731e-06
6.55374e-06
6.47333e-06
6.39448e-06
6.31524e-06
6.23371e-06
6.14882e-06
6.06197e-06
5.97352e-06
5.87507e-06
5.79282e-06
6.63879e-06
6.53958e-06
6.44488e-06
6.3546e-06
6.26894e-06
6.18827e-06
6.11304e-06
6.04372e-06
5.98071e-06
5.9243e-06
5.8746e-06
5.83151e-06
5.7947e-06
5.76354e-06
5.73719e-06
5.71467e-06
5.69431e-06
5.62421e-06
5.54493e-06
5.44508e-06
5.35044e-06
5.72071e-06
5.6514e-06
5.58364e-06
5.51826e-06
5.45549e-06
5.39581e-06
5.33984e-06
5.28823e-06
5.24163e-06
5.20059e-06
5.16549e-06
5.1365e-06
5.1136e-06
5.0964e-06
5.08409e-06
5.07522e-06
5.06927e-06
5.06552e-06
5.06336e-06
5.00679e-06
4.90588e-06
4.85586e-06
4.81004e-06
4.76427e-06
4.71906e-06
4.67515e-06
4.63335e-06
4.59449e-06
4.55942e-06
4.52886e-06
4.50308e-06
4.4822e-06
4.46711e-06
4.45834e-06
4.45619e-06
4.46088e-06
4.47115e-06
4.48557e-06
4.50272e-06
4.52123e-06
4.46765e-06
4.13149e-06
4.10016e-06
4.06762e-06
4.03448e-06
4.0015e-06
3.96912e-06
3.93806e-06
3.90966e-06
3.88531e-06
3.86671e-06
3.85552e-06
3.85219e-06
3.85697e-06
3.86979e-06
3.89016e-06
3.91706e-06
3.94909e-06
3.98457e-06
4.02166e-06
4.03395e-06
3.4501e-06
3.42702e-06
3.40169e-06
3.37497e-06
3.34802e-06
3.32252e-06
3.29991e-06
3.28116e-06
3.2674e-06
3.25985e-06
3.25971e-06
3.26794e-06
3.28517e-06
3.31159e-06
3.34681e-06
3.38985e-06
3.43915e-06
3.49267e-06
3.54793e-06
3.60199e-06
2.78156e-06
2.76489e-06
2.74639e-06
2.72703e-06
2.70798e-06
2.69053e-06
2.67601e-06
2.6657e-06
2.66091e-06
2.66289e-06
2.67289e-06
2.69202e-06
2.72114e-06
2.76067e-06
2.81047e-06
2.86966e-06
2.93652e-06
3.00848e-06
3.08202e-06
3.11791e-06
2.12397e-06
2.11164e-06
2.09756e-06
2.08292e-06
2.0691e-06
2.05751e-06
2.04951e-06
2.04643e-06
2.04959e-06
2.06028e-06
2.07975e-06
2.10918e-06
2.1496e-06
2.20168e-06
2.26554e-06
2.34047e-06
2.42467e-06
2.51495e-06
2.60638e-06
2.51413e-06
1.47089e-06
1.46358e-06
1.4545e-06
1.4448e-06
1.43604e-06
1.42966e-06
1.42714e-06
1.42999e-06
1.43958e-06
1.45721e-06
1.48412e-06
1.52152e-06
1.5706e-06
1.63237e-06
1.70736e-06
1.79523e-06
1.89419e-06
1.99997e-06
1.90047e-06
1.81251e-06
8.69634e-07
8.69835e-07
8.67004e-07
8.62319e-07
8.57459e-07
8.54066e-07
8.5388e-07
8.58714e-07
8.70145e-07
8.8958e-07
9.18294e-07
9.57479e-07
1.00841e-06
1.07239e-06
1.15036e-06
1.24214e-06
1.33551e-06
1.26402e-06
1.20634e-06
1.17216e-06
4.00304e-07
4.06098e-07
4.08114e-07
4.07304e-07
4.04914e-07
4.0259e-07
4.02071e-07
4.0503e-07
4.1296e-07
4.27257e-07
4.49089e-07
4.79622e-07
5.20201e-07
5.72421e-07
6.37907e-07
7.17385e-07
7.36469e-07
7.14584e-07
7.01477e-07
6.99152e-07
1.28559e-07
1.32001e-07
1.32663e-07
1.31324e-07
1.28261e-07
1.25209e-07
1.23601e-07
1.23813e-07
1.26624e-07
1.33002e-07
1.43644e-07
1.59299e-07
1.80956e-07
2.09931e-07
2.47973e-07
2.97098e-07
3.58742e-07
4.03085e-07
3.84717e-07
3.69078e-07
1.70482e-08
1.78422e-08
1.84106e-08
1.86343e-08
1.8647e-08
1.85822e-08
1.86118e-08
1.90541e-08
2.01889e-08
2.21918e-08
2.52096e-08
2.94577e-08
3.53527e-08
4.34733e-08
5.46552e-08
7.00983e-08
9.14726e-08
1.20826e-07
1.59353e-07
1.49954e-07
1.10206e-09
1.21596e-09
1.27161e-09
1.25496e-09
1.1637e-09
1.083e-09
1.02989e-09
1.01058e-09
1.04606e-09
1.1656e-09
1.39423e-09
1.73938e-09
2.27127e-09
3.07241e-09
4.26137e-09
6.02183e-09
8.65239e-09
1.2609e-08
1.85847e-08
2.69803e-08
8.15172e-12
8.03415e-12
7.77229e-12
7.27239e-12
6.94703e-12
6.64649e-12
6.45545e-12
6.45064e-12
6.72956e-12
7.47526e-12
8.99044e-12
1.20759e-11
1.71358e-11
2.53335e-11
3.87223e-11
6.08583e-11
9.86124e-11
1.64016e-10
2.94246e-10
7.0432e-10
2.78477e-06
2.66591e-06
2.58198e-06
2.52724e-06
2.50465e-06
2.51671e-06
2.54385e-06
2.60682e-06
2.727e-06
2.88942e-06
3.07377e-06
3.24757e-06
3.39001e-06
3.46255e-06
3.44793e-06
3.41912e-06
3.41663e-06
3.44554e-06
3.50925e-06
3.61281e-06
3.75769e-06
3.95119e-06
4.24931e-06
4.67876e-06
5.19831e-06
5.78919e-06
5.6709e-06
5.54695e-06
5.41997e-06
5.29075e-06
5.15863e-06
5.02188e-06
4.87781e-06
4.72266e-06
4.5514e-06
4.35756e-06
4.13215e-06
3.86417e-06
3.45041e-06
2.9094e-06
2.45925e-06
2.13756e-06
1.57657e-06
1.02944e-06
7.31019e-07
5.30818e-07
3.19193e-07
1.73654e-07
9.62835e-08
4.765e-08
2.27124e-08
1.47596e-08
9.73437e-09
7.07029e-09
3.92969e-09
4.22284e-06
3.86432e-06
3.66411e-06
3.58363e-06
3.59784e-06
3.68273e-06
3.8152e-06
3.98249e-06
4.18037e-06
4.40731e-06
4.66094e-06
4.93473e-06
5.10157e-06
5.15189e-06
5.55816e-06
5.87426e-06
6.07932e-06
6.19688e-06
6.22945e-06
6.2091e-06
6.14493e-06
6.04821e-06
5.93039e-06
5.80005e-06
5.66388e-06
5.5283e-06
5.39567e-06
4.94798e-06
4.49898e-06
4.11637e-06
3.79727e-06
3.54065e-06
3.33215e-06
3.15569e-06
3.00541e-06
2.87858e-06
2.76e-06
2.64203e-06
2.52376e-06
2.38881e-06
2.08277e-06
1.55783e-06
1.04368e-06
4.46966e-07
2.28976e-07
1.532e-07
1.04274e-07
6.84156e-08
4.40422e-08
2.71953e-08
1.79435e-08
1.44987e-08
1.29458e-08
2.00853e-08
2.45263e-08
4.42119e-06
4.02019e-06
3.79516e-06
3.7001e-06
3.70373e-06
3.78126e-06
3.91323e-06
4.0892e-06
4.30618e-06
4.56343e-06
4.85716e-06
5.17725e-06
5.5083e-06
5.81213e-06
6.0525e-06
6.21705e-06
6.30144e-06
6.30883e-06
6.24929e-06
6.13703e-06
5.98801e-06
5.81771e-06
5.63942e-06
5.46287e-06
5.29395e-06
5.13613e-06