/*--------------------------------*- C++ -*----------------------------------*\
  =========                 |
  \\      /  F ield         | OpenFOAM: The Open Source CFD Toolbox
   \\    /   O peration     | Website:  https://openfoam.org
    \\  /    A nd           | Version:  10
     \\/     M anipulation  |
\*---------------------------------------------------------------------------*/
FoamFile
{
    format      ascii;
    class       volScalarField;
    location    "3800";
    object      k;
}
// * * * * * * * * * * * * * * * * * * * * * * * * * * * * * * * * * * * * * //

dimensions      [0 2 -2 0 0 0 0];

internalField   nonuniform List<scalar> 
420
(
2.22045e-16
2.22045e-16
2.22045e-16
2.22045e-16
2.22045e-16
2.22045e-16
2.22045e-16
2.22045e-16
2.22045e-16
2.22045e-16
2.22045e-16
2.22045e-16
2.22045e-16
2.22045e-16
2.22045e-16
2.22045e-16
2.22045e-16
2.22045e-16
2.22045e-16
2.22045e-16
2.22045e-16
2.22045e-16
2.22045e-16
2.22045e-16
2.22045e-16
2.22045e-16
2.22045e-16
2.22045e-16
2.22045e-16
2.22045e-16
2.22045e-16
2.22045e-16
2.22045e-16
2.22045e-16
2.22045e-16
2.22045e-16
2.22045e-16
2.22045e-16
2.22045e-16
2.22045e-16
2.22045e-16
2.22045e-16
2.22045e-16
2.22045e-16
2.22045e-16
2.22045e-16
2.22045e-16
2.22045e-16
2.22045e-16
2.22045e-16
2.22045e-16
2.22045e-16
2.22045e-16
2.22045e-16
2.22045e-16
2.22045e-16
2.22045e-16
2.22045e-16
2.22045e-16
2.22045e-16
2.22045e-16
2.22045e-16
2.22045e-16
2.22045e-16
2.22045e-16
2.22045e-16
2.22045e-16
2.22045e-16
2.22045e-16
2.22045e-16
2.22045e-16
2.22045e-16
2.22045e-16
2.22045e-16
2.22045e-16
2.22045e-16
2.22045e-16
2.22045e-16
2.22045e-16
2.22045e-16
2.22045e-16
2.22045e-16
2.22045e-16
2.22045e-16
2.22045e-16
2.22045e-16
2.22045e-16
2.22045e-16
2.22045e-16
2.22045e-16
2.22045e-16
2.22045e-16
2.22045e-16
2.22045e-16
2.22045e-16
2.22045e-16
2.22045e-16
2.22045e-16
2.22045e-16
2.22045e-16
2.22045e-16
2.22045e-16
2.22045e-16
2.60196e-16
3.05818e-16
2.9453e-16
2.23566e-16
2.28778e-16
2.90656e-16
2.9674e-16
2.22045e-16
2.22045e-16
2.22045e-16
2.5542e-16
3.02639e-16
2.93165e-16
2.23208e-16
2.22812e-16
2.84653e-16
2.93595e-16
2.22045e-16
2.22045e-16
2.22045e-16
2.52045e-16
3.00444e-16
2.92302e-16
2.22045e-16
2.22045e-16
2.75467e-16
2.89076e-16
2.22045e-16
2.22045e-16
2.22045e-16
2.50459e-16
2.99168e-16
2.91447e-16
2.22045e-16
2.22045e-16
2.64827e-16
2.84248e-16
2.22045e-16
2.22045e-16
2.22045e-16
2.51178e-16
2.99289e-16
2.91171e-16
2.22045e-16
2.22045e-16
2.55069e-16
2.79516e-16
2.22045e-16
2.22045e-16
2.22045e-16
2.54366e-16
3.01065e-16
2.91719e-16
2.22045e-16
2.22045e-16
2.45996e-16
2.74462e-16
2.22045e-16
2.22045e-16
2.22045e-16
2.60133e-16
3.04189e-16
2.92639e-16
2.22045e-16
2.22045e-16
2.37792e-16
2.6983e-16
2.22045e-16
2.22045e-16
2.22045e-16
2.68139e-16
3.07921e-16
2.93497e-16
2.22045e-16
2.22045e-16
2.308e-16
2.66044e-16
2.22045e-16
2.22045e-16
2.22045e-16
2.7736e-16
3.10873e-16
2.93358e-16
2.22045e-16
2.22045e-16
2.25961e-16
2.63268e-16
2.22045e-16
2.22045e-16
2.22045e-16
2.84778e-16
3.09785e-16
2.89383e-16
2.22045e-16
2.22045e-16
2.23203e-16
2.6066e-16
2.22045e-16
2.22045e-16
2.30651e-16
2.90145e-16
3.12168e-16
2.90986e-16
2.22045e-16
2.22045e-16
2.22045e-16
2.55509e-16
2.22045e-16
2.22045e-16
2.44047e-16
2.9617e-16
3.17058e-16
2.94534e-16
2.22045e-16
2.22045e-16
2.22045e-16
2.53014e-16
2.22045e-16
2.22045e-16
2.60663e-16
3.04582e-16
3.22904e-16
2.97236e-16
2.22045e-16
2.22045e-16
2.22045e-16
2.53534e-16
2.22045e-16
2.44187e-16
2.76307e-16
3.09195e-16
3.2453e-16
2.95024e-16
2.22045e-16
2.22045e-16
2.22045e-16
2.56798e-16
2.33888e-16
2.52066e-16
2.74872e-16
3.06496e-16
3.20843e-16
2.8906e-16
2.22045e-16
2.22045e-16
2.22152e-16
2.61995e-16
2.34437e-16
2.48481e-16
2.71054e-16
3.03641e-16
3.17914e-16
2.84636e-16
2.22045e-16
2.22045e-16
2.30718e-16
2.66063e-16
2.30234e-16
2.43631e-16
2.66158e-16
2.99757e-16
3.1446e-16
2.80256e-16
2.22045e-16
2.22045e-16
2.40241e-16
2.69905e-16
2.25828e-16
2.38125e-16
2.59909e-16
2.94813e-16
3.10638e-16
2.76182e-16
2.22045e-16
2.23653e-16
2.50377e-16
2.7315e-16
2.22045e-16
2.31594e-16
2.51752e-16
2.88295e-16
3.05898e-16
2.72645e-16
2.23384e-16
2.32489e-16
2.63956e-16
2.76195e-16
2.22045e-16
2.23215e-16
2.39848e-16
2.78674e-16
2.99285e-16
2.70332e-16
2.24365e-16
2.42236e-16
2.82184e-16
2.76263e-16
2.22045e-16
2.22045e-16
2.26861e-16
2.68402e-16
2.95802e-16
2.70885e-16
2.25076e-16
2.52394e-16
3.00745e-16
2.65272e-16
2.22045e-16
2.22045e-16
2.22045e-16
2.67333e-16
2.98621e-16
2.7551e-16
2.26209e-16
2.59703e-16
3.18038e-16
2.58995e-16
2.22045e-16
2.22045e-16
2.22045e-16
2.22045e-16
2.22045e-16
2.22045e-16
2.22045e-16
2.22045e-16
2.22045e-16
2.22045e-16
2.22045e-16
2.22045e-16
2.22045e-16
2.22045e-16
2.22045e-16
2.22045e-16
2.22045e-16
2.22045e-16
2.22045e-16
2.22045e-16
2.22045e-16
2.22045e-16
2.22045e-16
2.22045e-16
2.22045e-16
2.22045e-16
2.22045e-16
2.22045e-16
2.22045e-16
2.22045e-16
2.22045e-16
2.22045e-16
2.22045e-16
2.22045e-16
2.22045e-16
2.22045e-16
2.22045e-16
2.22045e-16
2.22045e-16
2.22045e-16
2.22045e-16
2.22045e-16
2.22045e-16
2.22045e-16
2.22045e-16
2.22045e-16
2.22045e-16
2.22045e-16
2.22045e-16
2.22045e-16
2.22045e-16
2.22045e-16
2.22045e-16
2.22045e-16
2.22045e-16
2.22045e-16
2.22045e-16
2.22045e-16
2.22045e-16
2.22045e-16
2.22045e-16
2.22045e-16
2.22045e-16
2.22045e-16
2.22045e-16
2.22045e-16
2.22045e-16
2.22045e-16
2.22045e-16
2.22045e-16
2.22045e-16
2.22045e-16
2.22045e-16
2.22045e-16
2.22045e-16
2.22045e-16
2.22045e-16
2.22045e-16
2.22045e-16
2.22045e-16
2.22045e-16
2.22045e-16
2.22045e-16
2.22045e-16
2.22045e-16
2.22045e-16
2.22045e-16
2.22045e-16
2.22045e-16
2.22045e-16
2.22045e-16
2.22045e-16
2.22045e-16
2.22045e-16
2.22045e-16
2.22045e-16
2.22045e-16
2.22045e-16
2.22045e-16
2.22045e-16
)
;

boundaryField
{
    right
    {
        type            cyclic;
    }
    left
    {
        type            cyclic;
    }
    outerWall
    {
        type            kqRWallFunction;
        value           nonuniform List<scalar> 
22
(
2.9674e-16
2.93595e-16
2.89076e-16
2.84248e-16
2.79516e-16
2.74462e-16
2.6983e-16
2.66044e-16
2.63268e-16
2.6066e-16
2.55509e-16
2.53014e-16
2.53534e-16
2.56798e-16
2.61995e-16
2.66063e-16
2.69905e-16
2.7315e-16
2.76195e-16
2.76263e-16
2.65272e-16
2.58995e-16
)
;
    }
    stirrerWall
    {
        type            kqRWallFunction;
        value           uniform 2.22045e-16;
    }
    top
    {
        type            empty;
    }
    bottom
    {
        type            empty;
    }
}


// ************************************************************************* //
