/*--------------------------------*- C++ -*----------------------------------*\
  =========                 |
  \\      /  F ield         | OpenFOAM: The Open Source CFD Toolbox
   \\    /   O peration     | Website:  https://openfoam.org
    \\  /    A nd           | Version:  10
     \\/     M anipulation  |
\*---------------------------------------------------------------------------*/
FoamFile
{
    format      ascii;
    class       volScalarField;
    location    "3800";
    object      nut;
}
// * * * * * * * * * * * * * * * * * * * * * * * * * * * * * * * * * * * * * //

dimensions      [0 2 -1 0 0 0 0];

internalField   nonuniform List<scalar> 
420
(
1.04478e-20
6.22537e-20
1.66321e-19
3.0413e-19
4.51787e-19
5.95719e-19
7.17026e-19
7.70863e-19
7.06476e-19
5.76947e-19
1.04473e-20
6.18643e-20
1.68112e-19
3.09843e-19
4.64483e-19
6.16145e-19
7.35769e-19
7.62053e-19
6.58323e-19
5.20592e-19
1.04471e-20
6.24335e-20
1.73809e-19
3.24314e-19
4.88548e-19
6.464e-19
7.5639e-19
7.42106e-19
6.09602e-19
4.67684e-19
1.04472e-20
6.32982e-20
1.79778e-19
3.37932e-19
5.07592e-19
6.64598e-19
7.59785e-19
7.1441e-19
5.59142e-19
4.12331e-19
1.04476e-20
6.35916e-20
1.81559e-19
3.35867e-19
4.94708e-19
6.3755e-19
7.18307e-19
6.61988e-19
4.95429e-19
3.49709e-19
1.04483e-20
6.31489e-20
1.71521e-19
2.96888e-19
4.17121e-19
5.27299e-19
5.95608e-19
5.54468e-19
4.06904e-19
2.77068e-19
1.04493e-20
6.0176e-20
1.38474e-19
2.08834e-19
2.7344e-19
3.37923e-19
3.87425e-19
3.7905e-19
2.89558e-19
1.97725e-19
1.04506e-20
4.77928e-20
8.01333e-20
1.0482e-19
1.29715e-19
1.56781e-19
1.81747e-19
1.90453e-19
1.627e-19
1.1993e-19
1.04522e-20
2.15389e-20
2.80002e-20
3.45989e-20
4.19049e-20
4.99461e-20
5.82672e-20
6.52212e-20
6.55172e-20
5.54364e-20
2.82342e-21
3.6643e-21
4.61494e-21
5.67535e-21
6.84552e-21
8.12545e-21
9.51514e-21
1.10146e-20
1.26238e-20
1.43428e-20
4.74494e-19
4.30888e-19
4.6248e-19
6.81805e-19
1.02742e-18
9.11909e-19
7.70569e-19
3.24209e-19
2.01088e-19
7.23209e-20
4.21917e-19
3.86939e-19
4.3023e-19
6.51263e-19
1.01521e-18
9.35594e-19
7.65665e-19
3.37941e-19
2.06217e-19
7.22123e-20
3.72407e-19
3.45594e-19
4.01139e-19
6.30304e-19
1.01155e-18
9.45464e-19
7.53292e-19
3.57232e-19
2.00563e-19
7.1571e-20
3.21415e-19
3.04514e-19
3.73258e-19
6.16796e-19
1.01245e-18
9.71912e-19
7.42625e-19
3.73038e-19
1.96623e-19
7.09581e-20
2.67857e-19
2.6347e-19
3.46773e-19
6.12446e-19
1.01913e-18
1.00742e-18
7.2971e-19
3.88054e-19
1.93268e-19
6.99763e-20
2.12063e-19
2.23058e-19
3.22226e-19
6.18678e-19
1.03262e-18
1.0261e-18
7.1531e-19
4.0113e-19
1.90481e-19
6.91473e-20
1.56281e-19
1.84061e-19
3.00691e-19
6.38896e-19
1.04544e-18
1.01215e-18
6.99849e-19
4.12318e-19
1.88385e-19
6.84768e-20
1.04214e-19
1.47974e-19
2.85069e-19
6.78354e-19
1.02756e-18
9.75001e-19
6.83508e-19
4.23174e-19
1.8854e-19
6.79902e-20
6.0519e-20
1.16733e-19
2.80049e-19
7.41052e-19
9.35182e-19
8.62376e-19
6.66707e-19
4.10954e-19
1.88386e-19
6.76155e-20
2.90737e-20
9.08705e-20
2.90684e-19
8.18147e-19
9.96103e-19
9.24781e-19
6.50796e-19
3.96289e-19
1.77423e-19
6.63074e-20
1.03958e-20
7.26053e-20
3.35762e-19
8.78069e-19
1.12665e-18
1.03205e-18
6.39479e-19
3.8214e-19
1.72973e-19
6.49386e-20
1.03958e-20
8.61155e-20
4.14773e-19
9.15511e-19
1.13689e-18
1.03397e-18
6.29949e-19
3.77239e-19
1.8223e-19
6.55242e-20
5.39981e-20
2.05975e-19
6.0974e-19
8.0906e-19
9.68059e-19
9.05575e-19
6.16093e-19
3.68959e-19
1.93584e-19
6.69011e-20
2.61853e-19
5.50181e-19
6.25465e-19
7.28022e-19
8.49201e-19
7.89752e-19
5.97582e-19
3.53304e-19
1.8516e-19
6.78528e-20
5.64176e-19
6.08671e-19
6.47322e-19
7.45173e-19
8.70986e-19
8.16663e-19
5.84395e-19
3.37701e-19
1.77111e-19
6.81024e-20
6.73688e-19
6.433e-19
6.558e-19
7.46356e-19
8.68306e-19
8.31916e-19
5.79599e-19
3.27656e-19
1.75906e-19
6.83542e-20
7.18607e-19
6.50876e-19
6.5645e-19
7.49154e-19
8.78255e-19
8.82267e-19
5.83911e-19
3.23017e-19
1.74317e-19
6.82533e-20
6.99521e-19
6.424e-19
6.55431e-19
7.67924e-19
9.31373e-19
9.11726e-19
6.0001e-19
3.28656e-19
1.74909e-19
6.82778e-20
6.57822e-19
6.37618e-19
7.05273e-19
8.66056e-19
1.07915e-18
9.43265e-19
6.32768e-19
3.55938e-19
1.79839e-19
6.70477e-20
6.23141e-19
5.79369e-19
6.38453e-19
8.56231e-19
1.08438e-18
1.014e-18
6.79026e-19
4.01246e-19
1.84963e-19
6.37561e-20
5.82657e-19
5.33862e-19
5.63269e-19
7.89355e-19
1.05911e-18
1.04003e-18
7.33915e-19
4.63286e-19
1.83087e-19
6.55825e-20
5.33747e-19
4.83434e-19
5.05084e-19
7.40865e-19
1.03794e-18
1.05881e-18
7.79415e-19
4.54158e-19
2.27222e-19
6.79602e-20
1.43428e-20
1.16949e-19
4.31247e-19
6.98604e-19
7.65695e-19
7.62036e-19
7.40649e-19
7.13056e-19
6.78817e-19
6.34245e-19
1.26238e-20
8.70887e-20
3.14519e-19
6.1162e-19
7.62096e-19
8.03836e-19
8.05991e-19
7.95995e-19
7.77534e-19
7.47855e-19
1.10146e-20
6.5709e-20
2.20927e-19
4.59076e-19
6.48123e-19
7.46271e-19
7.85805e-19
7.99486e-19
7.98753e-19
7.84773e-19
9.51514e-21
5.10875e-20
1.47079e-19
2.98949e-19
4.61804e-19
5.90068e-19
6.70501e-19
7.10371e-19
7.25006e-19
7.19391e-19
8.12545e-21
4.34283e-20
1.13845e-19
2.13517e-19
3.26876e-19
4.33792e-19
5.19839e-19
5.74145e-19
5.9829e-19
5.97482e-19
6.84552e-21
3.7522e-20
9.61722e-20
1.72312e-19
2.55111e-19
3.34004e-19
4.00422e-19
4.43539e-19
4.60713e-19
4.56816e-19
5.67535e-21
3.20271e-20
8.25567e-20
1.45167e-19
2.07644e-19
2.60829e-19
2.988e-19
3.17645e-19
3.19242e-19
3.10426e-19
4.61494e-21
2.65274e-20
6.77006e-20
1.12697e-19
1.47713e-19
1.68655e-19
1.78112e-19
1.78901e-19
1.74621e-19
1.69066e-19
3.6643e-21
2.07497e-20
4.37397e-20
5.70343e-20
6.26518e-20
6.40443e-20
6.40597e-20
6.34574e-20
6.25954e-20
6.20335e-20
2.82342e-21
1.04522e-20
1.04506e-20
1.04493e-20
1.04483e-20
1.04476e-20
1.04472e-20
1.04471e-20
1.04473e-20
1.04478e-20
)
;

boundaryField
{
    right
    {
        type            cyclic;
    }
    left
    {
        type            cyclic;
    }
    outerWall
    {
        type            nutkWallFunction;
        Cmu             0.09;
        kappa           0.41;
        E               9.8;
        value           uniform 0;
    }
    stirrerWall
    {
        type            nutkWallFunction;
        Cmu             0.09;
        kappa           0.41;
        E               9.8;
        value           uniform 0;
    }
    top
    {
        type            empty;
    }
    bottom
    {
        type            empty;
    }
}


// ************************************************************************* //
