/*--------------------------------*- C++ -*----------------------------------*\
  =========                 |
  \\      /  F ield         | OpenFOAM: The Open Source CFD Toolbox
   \\    /   O peration     | Website:  https://openfoam.org
    \\  /    A nd           | Version:  10
     \\/     M anipulation  |
\*---------------------------------------------------------------------------*/
FoamFile
{
    format      ascii;
    class       volScalarField;
    location    "3800";
    object      omega;
}
// * * * * * * * * * * * * * * * * * * * * * * * * * * * * * * * * * * * * * //

dimensions      [0 0 -1 0 0 0 0];

internalField   nonuniform List<scalar> 
420
(
21252.7
3566.77
1335.04
730.097
491.48
372.734
309.674
288.047
314.299
384.861
21253.7
3589.22
1320.82
716.636
478.047
360.377
301.786
291.377
337.288
426.523
21254.2
3556.5
1277.52
684.659
454.499
343.51
293.558
299.209
364.245
474.775
21254
3507.92
1235.1
657.069
437.447
334.104
292.247
310.808
397.117
538.51
21253.2
3491.73
1222.99
661.108
448.84
348.278
309.122
335.421
448.187
634.94
21251.7
3516.21
1294.56
747.907
532.326
421.098
372.803
400.464
545.693
801.407
21249.7
3689.92
1603.51
1063.26
812.042
657.086
573.129
585.792
766.84
1122.99
21247.1
4645.98
2770.94
2118.35
1711.79
1416.27
1221.73
1165.88
1364.75
1851.45
21243.8
10309
7930.12
6417.68
5298.78
4445.68
3810.8
3404.49
3389.11
4005.39
78643.9
60596.7
48114.3
39124.4
32436.5
27327.1
23335.9
20159.1
17589.3
15481.3
467.961
515.319
480.118
381.628
297.655
265.799
290.131
480.682
1166.04
3581.27
526.275
573.85
516.107
392.192
298.106
265.982
291.522
471.287
1045.92
3581.17
596.242
642.502
553.535
399.879
297.015
266.57
294.765
473.663
1047.91
3581.13
690.834
729.176
594.883
406.065
295.49
267.622
299
479.841
1047.19
3581.18
828.966
842.771
640.317
410.123
293.67
269.193
304.292
487.228
1045.4
3581.3
1047.07
995.458
689.096
411.144
291.555
271.219
310.417
496.737
1046.4
3581.49
1420.81
1206.37
738.448
407.161
288.737
273.519
317.275
508.726
1052.11
3581.76
2130.65
1500.57
778.914
395.278
285.135
276.046
324.86
523.233
1063.32
3582.1
3669.01
1902.16
792.878
374.278
281.192
278.636
333.047
540.316
1082.8
3582.51
7637.3
2443.53
763.869
348.077
277.535
280.312
341.189
560.31
1111.02
3582.99
21359.1
3058.24
686.946
330.436
277.076
281.949
347.227
581.055
1132.08
3575.63
21359.1
2578.45
588.386
323.502
278.882
284.857
352.48
588.604
1136.34
3575.63
4112.08
1078.02
427.498
311.779
280.31
288.672
360.408
601.813
1147.02
3582.99
847.976
434.176
335.256
303.683
280.629
291.724
371.572
628.481
1199.2
3582.51
376.366
333.584
323.269
302.59
279.825
292.051
379.956
657.517
1254.31
3582.1
314.478
325.727
326.218
303.902
279.012
290.685
383.101
677.676
1311.6
3581.76
312.773
333.391
333.205
306.383
277.829
286.992
380.271
687.409
1378.19
3581.49
322.833
346.223
343.269
310.39
276.618
281.235
370.068
680.509
1431.47
3581.3
337.545
363.218
356.957
316.441
275.837
274.206
353.027
653.173
1467.74
3581.18
356.331
385.272
375.67
325.466
275.995
266.599
330.421
603.708
1466.01
3581.13
381.09
415.921
402.758
340.027
279.294
260.459
306.679
544.791
1405.04
3581.17
416.011
459.307
439.62
360.839
287.704
260.207
290.23
499.964
1329.68
3581.27
15481.3
1898.64
514.889
317.84
289.991
291.383
299.797
311.398
327.105
350.093
17589.3
2549.64
705.981
363.044
291.36
276.231
275.493
278.952
285.575
296.909
20159.1
3379.21
1005.06
483.677
342.596
297.539
282.57
277.734
277.989
282.941
23335.9
4346.36
1509.69
742.75
480.82
376.303
331.162
312.576
306.266
308.656
27327.1
5112.9
1950.4
1039.94
679.294
511.868
427.141
386.74
371.132
371.634
32436.5
5917.72
2308.82
1288.62
870.385
664.796
554.526
500.621
481.959
486.071
39124.4
6933.03
2689.6
1529.58
1069.35
851.303
743.12
699.034
695.536
715.289
48114.3
8370.37
3279.8
1970.28
1503.22
1316.56
1246.66
1241.16
1271.58
1313.36
60596.7
10701.1
5076.5
3893.17
3544.11
3467.05
3466.21
3499.11
3547.3
3579.43
78643.9
21243.8
21247.1
21249.7
21251.7
21253.2
21254
21254.2
21253.7
21252.7
)
;

boundaryField
{
    right
    {
        type            cyclic;
    }
    left
    {
        type            cyclic;
    }
    outerWall
    {
        beta1           0.075;
        blended         0;
        type            omegaWallFunction;
        value           nonuniform List<scalar> 
22
(
3581.27
3581.17
3581.13
3581.18
3581.3
3581.49
3581.76
3582.1
3582.51
3582.99
3575.63
3575.63
3582.99
3582.51
3582.1
3581.76
3581.49
3581.3
3581.18
3581.13
3581.17
3581.27
)
;
    }
    stirrerWall
    {
        beta1           0.075;
        blended         0;
        type            omegaWallFunction;
        value           nonuniform List<scalar> 
42
(
21252.7
21253.7
21254.2
21254
21253.2
21251.7
21249.7
21247.1
21243.8
78643.9
78643.9
60596.7
48114.3
39124.4
32436.5
27327.1
23335.9
20159.1
17589.3
15481.3
21359.1
21359.1
15481.3
17589.3
20159.1
23335.9
27327.1
32436.5
39124.4
48114.3
60596.7
78643.9
78643.9
21243.8
21247.1
21249.7
21251.7
21253.2
21254
21254.2
21253.7
21252.7
)
;
    }
    top
    {
        type            empty;
    }
    bottom
    {
        type            empty;
    }
}


// ************************************************************************* //
