/*--------------------------------*- C++ -*----------------------------------*\
  =========                 |
  \\      /  F ield         | OpenFOAM: The Open Source CFD Toolbox
   \\    /   O peration     | Website:  https://openfoam.org
    \\  /    A nd           | Version:  10
     \\/     M anipulation  |
\*---------------------------------------------------------------------------*/
FoamFile
{
    format      ascii;
    class       surfaceScalarField;
    location    "3800";
    object      phi;
}
// * * * * * * * * * * * * * * * * * * * * * * * * * * * * * * * * * * * * * //

dimensions      [0 3 -1 0 0 0 0];

internalField   nonuniform List<scalar> 
788
(
4.15654e-07
-4.7187e-06
2.13986e-06
6.73914e-06
3.89347e-06
1.1022e-05
5.55332e-06
1.21827e-05
6.60156e-06
1.14304e-05
6.49742e-06
9.3112e-06
5.07098e-06
5.98596e-06
2.62536e-06
5.20036e-07
9.41478e-07
-8.97598e-06
-2.44161e-05
7.58003e-07
5.38487e-07
-5.26682e-06
1.81441e-06
5.43971e-06
3.41629e-06
9.38354e-06
4.79117e-06
1.0776e-05
5.26119e-06
1.09404e-05
4.35334e-06
1.02125e-05
2.22288e-06
8.10335e-06
1.14841e-07
2.58785e-06
-6.04555e-07
-8.29713e-06
-2.49168e-05
-7.67675e-08
2.73707e-07
-5.55744e-06
9.97181e-07
4.6382e-06
2.14415e-06
8.12139e-06
3.10275e-06
9.74438e-06
3.27508e-06
1.07633e-05
2.32657e-06
1.12115e-05
3.40843e-07
1.01403e-05
-1.42175e-06
4.34819e-06
-1.28753e-06
-8.49196e-06
-2.57831e-05
-4.84143e-07
5.01598e-08
-5.64296e-06
4.07245e-07
4.14915e-06
1.26292e-06
7.10112e-06
2.07564e-06
8.84447e-06
2.35904e-06
1.04851e-05
1.83482e-06
1.1798e-05
5.45351e-07
1.14832e-05
-8.36104e-07
5.72247e-06
-3.09258e-07
-9.09084e-06
-2.64161e-05
2.30482e-07
-1.37249e-07
-5.55952e-06
3.94138e-08
3.79638e-06
8.44171e-07
6.09773e-06
1.83263e-06
7.75781e-06
2.57394e-06
9.74559e-06
2.73837e-06
1.16828e-05
2.39873e-06
1.18459e-05
1.81909e-06
6.25095e-06
1.75145e-06
-9.15127e-06
-2.61191e-05
1.32215e-06
-3.45619e-07
-5.28453e-06
-2.18682e-07
3.45456e-06
7.08187e-07
4.93895e-06
2.07591e-06
6.27101e-06
3.53267e-06
8.27362e-06
4.69647e-06
1.05547e-05
5.31324e-06
1.12474e-05
5.32269e-06
6.19044e-06
4.23823e-06
-8.19701e-06
-2.48891e-05
2.90713e-06
-6.66691e-07
-4.70444e-06
-5.21333e-07
3.05921e-06
5.8464e-07
3.56596e-06
2.34823e-06
4.3599e-06
4.60265e-06
5.99067e-06
7.12603e-06
8.0849e-06
9.45783e-06
8.98572e-06
1.05013e-05
5.16691e-06
8.36952e-06
-6.10365e-06
-2.18633e-05
5.33408e-06
-1.18191e-06
-3.62264e-06
-9.31919e-07
2.52992e-06
2.6029e-07
2.07292e-06
2.12587e-06
2.32377e-06
4.80963e-06
3.29492e-06
8.31481e-06
4.70431e-06
1.20831e-05
5.39366e-06
1.43523e-05
3.01834e-06
1.23954e-05
-4.13027e-06
-1.68413e-05
7.34049e-06
-1.93169e-06
-1.80165e-06
-1.21813e-06
1.54071e-06
-2.4513e-07
8.30278e-07
1.00934e-06
9.51984e-07
3.04057e-06
1.34354e-06
6.10528e-06
1.87638e-06
9.56346e-06
2.19204e-06
1.1281e-05
1.42045e-06
8.61185e-06
-1.55078e-06
-1.09203e-05
2.50769e-06
-1.8936e-06
-4.79334e-07
3.00419e-07
1.30643e-06
2.7864e-06
4.80121e-06
7.04616e-06
8.39896e-06
6.68846e-06
-4.36222e-06
2.1071e-06
-4.53793e-05
5.05811e-06
-7.78138e-05
9.05499e-06
-0.000120164
1.32978e-05
-0.00017307
1.7299e-05
-0.00023908
2.09113e-05
-0.000323708
2.24123e-05
-0.000422755
1.74109e-05
-0.000502161
-3.2931e-05
-0.000556901
-0.00139569
1.672e-06
-4.70256e-05
4.68012e-06
-8.06835e-05
8.41267e-06
-0.000123797
1.21025e-05
-0.000176755
1.52509e-05
-0.000242298
1.80946e-05
-0.000326643
2.22378e-05
-0.00042704
2.4714e-05
-0.00050464
-1.53173e-07
-0.000531994
-0.00139596
1.12914e-06
-4.86582e-05
3.76193e-06
-8.32958e-05
6.95434e-06
-0.000126966
9.95813e-06
-0.000179757
1.23296e-05
-0.000244625
1.44037e-05
-0.000328624
1.76267e-05
-0.000430471
1.83997e-05
-0.000505106
1.62643e-05
-0.000530151
-0.00137979
1.20238e-06
-4.96731e-05
3.30979e-06
-8.54001e-05
5.92157e-06
-0.000129599
8.1947e-06
-0.00018212
9.83441e-06
-0.000246247
1.11701e-05
-0.000329714
1.32628e-05
-0.000432854
1.36273e-05
-0.000505416
1.90786e-05
-0.000535737
-0.0013607
1.40314e-06
-4.979e-05
3.03829e-06
-8.69953e-05
5.12039e-06
-0.000131683
6.88122e-06
-0.000184029
8.36825e-06
-0.000247842
9.77862e-06
-0.000330944
1.18609e-05
-0.000434971
1.29596e-05
-0.000506506
2.16188e-05
-0.000544406
-0.00133903
2.21368e-06
-4.90711e-05
3.39849e-06
-8.80601e-05
5.0557e-06
-0.00013329
6.52648e-06
-0.000185653
7.91558e-06
-0.000249371
9.26539e-06
-0.000332163
1.16136e-05
-0.00043722
1.34415e-05
-0.000508276
2.3232e-05
-0.000554162
-0.00131573
3.97285e-06
-4.76249e-05
4.68077e-06
-8.85929e-05
5.68162e-06
-0.000134225
6.61244e-06
-0.000186783
7.7491e-06
-0.00025071
9.00219e-06
-0.000333334
1.15092e-05
-0.000439629
1.34313e-05
-0.000510137
2.30356e-05
-0.000563738
-0.00129266
5.7806e-06
-4.60542e-05
5.97921e-06
-8.86536e-05
6.19856e-06
-0.000134401
6.48272e-06
-0.000187311
7.28217e-06
-0.000251786
8.43921e-06
-0.000334463
1.11609e-05
-0.000442303
1.32066e-05
-0.000512156
2.13885e-05
-0.000571922
-0.00127128
4.91802e-06
-4.85447e-05
5.54365e-06
-8.92077e-05
5.17511e-06
-0.000134035
4.68599e-06
-0.000187091
4.98576e-06
-0.000252398
6.20143e-06
-0.000335691
9.23473e-06
-0.000445336
1.29116e-05
-0.000515885
2.15382e-05
-0.000580605
-0.00124977
2.85447e-06
-5.57385e-05
3.15716e-06
-8.95739e-05
8.0439e-07
-0.000131691
-1.44425e-06
-0.000185007
-3.04566e-06
-0.000251042
-5.14893e-06
-0.000333739
-4.60494e-06
-0.000445999
6.16895e-06
-0.000526634
1.99261e-05
-0.000594379
-0.00122981
2.24652e-06
-5.80401e-05
1.97665e-06
-8.92792e-05
5.94141e-07
-0.000130295
-8.09649e-07
-0.000183774
-1.87153e-06
-0.000250205
-2.27928e-06
-0.000333399
-2.62756e-06
-0.000445691
-6.27103e-06
-0.000522996
1.79025e-05
-0.000618615
-0.00121185
4.96436e-06
-6.30255e-05
6.59821e-06
-9.08482e-05
6.22567e-06
-0.000129837
5.6581e-06
-0.000183327
5.21136e-06
-0.000249884
5.2429e-06
-0.000333378
4.72758e-06
-0.00044516
-1.32385e-06
-0.000516954
1.55486e-05
-0.000635455
-0.0011963
1.19633e-05
-5.75031e-05
-1.75005e-05
9.98298e-06
-8.89516e-05
9.04632e-06
-0.00012877
8.50219e-06
-0.000182737
8.83165e-06
-0.000250193
8.87164e-06
-0.000333372
1.01078e-05
-0.000446336
1.32562e-05
-0.000520027
3.76572e-06
-0.000625931
-0.0011924
4.18798e-06
-5.68194e-05
-4.95659e-06
2.41697e-06
-8.70857e-05
9.75935e-07
-0.00012708
-4.5271e-07
-0.000181194
-1.344e-06
-0.000249253
-2.10457e-06
-0.000332548
-2.16359e-06
-0.000446188
3.14518e-06
-0.000525192
1.29971e-05
-0.000635841
-0.00117929
-1.86276e-06
-5.70657e-05
2.10738e-06
-3.03577e-06
-8.57015e-05
-4.61239e-06
-0.000125161
-6.37147e-06
-0.000179282
-7.79456e-06
-0.000247757
-9.06617e-06
-0.000331202
-1.10075e-05
-0.000444299
-1.05125e-05
-0.000525525
7.72495e-06
-0.000654126
-0.00117147
-5.54098e-06
-5.61341e-05
4.66397e-06
-7.02829e-06
-8.38484e-05
-8.94371e-06
-0.000122905
-1.11235e-05
-0.000176976
-1.31556e-05
-0.000245687
-1.50408e-05
-0.000329282
-1.79311e-05
-0.000441449
-1.886e-05
-0.000524474
6.95564e-07
-0.000673784
-0.00117067
-8.04392e-06
-5.39326e-05
6.01189e-06
-1.01119e-05
-8.13696e-05
-1.23984e-05
-0.000120383
-1.49262e-05
-0.000174398
-1.7501e-05
-0.00024311
-1.99999e-05
-0.000326807
-2.45856e-05
-0.000436937
-2.74744e-05
-0.000521483
-6.90821e-06
-0.000694483
-0.00117744
-9.34495e-06
-5.09828e-05
6.62337e-06
-1.18892e-05
-7.85333e-05
-1.44152e-05
-0.000117764
-1.71665e-05
-0.000171684
-2.00989e-05
-0.000240203
-2.28554e-05
-0.000324106
-2.87483e-05
-0.000431162
-3.39839e-05
-0.000516135
-1.42646e-05
-0.000714363
-0.00119155
-9.68338e-06
-4.79e-05
6.76215e-06
-1.26101e-05
-7.55026e-05
-1.55483e-05
-0.000114871
-1.86864e-05
-0.000168638
-2.20993e-05
-0.000236795
-2.5133e-05
-0.000321123
-3.0858e-05
-0.000425603
-3.73924e-05
-0.00050951
-2.76544e-05
-0.000724385
-0.00121903
-9.20913e-06
-4.50692e-05
6.42896e-06
-1.21037e-05
-7.26651e-05
-1.50238e-05
-0.00011209
-1.8373e-05
-0.000165367
-2.21793e-05
-0.000232918
-2.59521e-05
-0.000317402
-2.99725e-05
-0.000421836
-3.23326e-05
-0.000507105
-4.22349e-05
-0.000714857
-0.00126094
-6.96792e-06
-4.32081e-05
5.07231e-06
-8.14247e-06
-7.16353e-05
-9.04273e-06
-0.000111352
-1.08069e-05
-0.000163645
-1.4107e-05
-0.000229594
-1.76562e-05
-0.000314198
-1.93706e-05
-0.000420613
-1.48177e-05
-0.000511077
-3.80491e-05
-0.000690789
-0.00129981
-1.9537e-08
7.08969e-07
3.09084e-06
7.84456e-06
1.30074e-05
1.8491e-05
2.4156e-05
2.46118e-05
2.12645e-05
-6.30465e-05
-2.55718e-05
8.05731e-06
-3.4579e-05
4.09512e-06
-3.88221e-05
6.50394e-06
-3.98592e-05
5.98735e-06
-3.85463e-05
5.00371e-06
-3.57905e-05
4.07622e-06
-3.23407e-05
3.37529e-06
-2.88035e-05
2.81061e-06
-2.5686e-05
1.74067e-06
-7.28116e-07
-6.96959e-06
1.49631e-05
-1.66583e-05
1.37296e-05
-2.25121e-05
1.22608e-05
-2.50669e-05
8.49919e-06
-2.48793e-05
4.82684e-06
-2.29287e-05
2.17182e-06
-1.99402e-05
4.22279e-07
-1.65056e-05
-6.35251e-07
-1.28806e-05
-1.92161e-06
-3.32927e-06
1.37557e-06
1.35457e-05
-3.34838e-06
1.83191e-05
-7.52376e-06
1.62771e-05
-1.04264e-05
1.13301e-05
-1.13567e-05
5.76318e-06
-1.05909e-05
1.43548e-06
-8.80979e-06
-1.36924e-06
-6.49567e-06
-3.01566e-06
-3.96985e-06
-4.5107e-06
-5.73331e-06
3.92275e-06
9.56466e-06
5.13884e-06
1.69575e-05
5.04741e-06
1.62825e-05
4.49118e-06
1.18776e-05
3.60625e-06
6.69182e-06
2.96487e-06
2.11228e-06
2.89437e-06
-1.32459e-06
3.4052e-06
-3.59731e-06
4.03979e-06
-5.20034e-06
-6.5289e-06
3.75596e-06
5.76314e-06
7.80965e-06
1.28513e-05
1.07554e-05
1.33922e-05
1.18324e-05
1.08792e-05
1.17776e-05
6.82823e-06
1.12973e-05
2.6412e-06
1.06966e-05
-7.28218e-07
1.01674e-05
-3.10232e-06
9.67362e-06
-4.74528e-06
-6.15765e-06
2.90456e-06
2.84677e-06
7.35821e-06
8.4645e-06
1.19264e-05
9.0248e-06
1.49647e-05
7.99753e-06
1.63422e-05
5.56745e-06
1.64281e-05
2.63123e-06
1.57391e-05
-4.33732e-09
1.47136e-05
-2.06687e-06
1.35704e-05
-3.61183e-06
-4.94417e-06
1.98117e-06
8.86323e-07
6.05653e-06
4.56398e-06
1.06096e-05
4.77439e-06
1.43261e-05
4.48673e-06
1.65926e-05
3.44699e-06
1.74651e-05
1.85973e-06
1.72865e-05
2.41507e-07
1.63953e-05
-1.12784e-06
1.51395e-05
-2.3172e-06
-3.36405e-06
1.39617e-06
-4.69123e-07
5.02379e-06
1.17246e-06
8.76747e-06
1.36381e-06
1.19356e-05
1.54221e-06
1.41663e-05
1.38356e-06
1.53116e-05
8.40112e-07
1.55065e-05
1.43954e-07
1.49948e-05
-5.32461e-07
1.40182e-05
-1.25246e-06
-1.83816e-06
7.55541e-07
-1.1807e-06
3.54258e-06
-1.38583e-06
6.16506e-06
-9.94446e-07
8.28464e-06
-3.90371e-07
9.81221e-06
-4.94574e-10
1.06551e-05
1.09465e-07
1.08571e-05
3.44588e-08
1.05364e-05
-1.28021e-07
9.70157e-06
-3.39368e-07
-4.70427e-07
-1.14612e-06
-2.4094e-06
-3.3191e-06
-3.64478e-06
-3.59512e-06
-3.44512e-06
-3.37387e-06
-3.46674e-06
-3.7826e-06
)
;

boundaryField
{
    right
    {
        type            cyclic;
        value           nonuniform List<scalar> 
20
(
0.00136265
0.000606128
0.000508042
0.00042168
0.000320268
0.000234928
0.000168442
0.000115756
7.4514e-05
4.38739e-05
2.46055e-05
1.05755e-05
1.80991e-06
-4.7107e-06
-9.32285e-06
-1.2483e-05
-1.37166e-05
-1.25693e-05
-8.22045e-06
4.30257e-06
)
;
    }
    left
    {
        type            cyclic;
        value           nonuniform List<scalar> 
20
(
-0.00136265
-0.000606128
-0.000508042
-0.00042168
-0.000320268
-0.000234928
-0.000168442
-0.000115756
-7.4514e-05
-4.38739e-05
-2.46055e-05
-1.05755e-05
-1.80991e-06
4.7107e-06
9.32285e-06
1.2483e-05
1.37166e-05
1.25693e-05
8.22045e-06
-4.30257e-06
)
;
    }
    outerWall
    {
        type            calculated;
        value           uniform 0;
    }
    stirrerWall
    {
        type            calculated;
        value           uniform 0;
    }
    top
    {
        type            empty;
        value           nonuniform List<scalar> 0();
    }
    bottom
    {
        type            empty;
        value           nonuniform List<scalar> 0();
    }
}


// ************************************************************************* //
