/*--------------------------------*- C++ -*----------------------------------*\
  =========                 |
  \\      /  F ield         | OpenFOAM: The Open Source CFD Toolbox
   \\    /   O peration     | Website:  https://openfoam.org
    \\  /    A nd           | Version:  10
     \\/     M anipulation  |
\*---------------------------------------------------------------------------*/
FoamFile
{
    format      ascii;
    class       volVectorField;
    location    "3800";
    object      U;
}
// * * * * * * * * * * * * * * * * * * * * * * * * * * * * * * * * * * * * * //

dimensions      [0 1 -1 0 0 0 0];

internalField   nonuniform List<vector> 
420
(
(0.427634 8.65353 6.75598e-18)
(-0.346903 10.8561 -4.87336e-17)
(-0.0939037 12.4905 -2.12455e-16)
(0.0489482 13.8446 5.94318e-17)
(0.0980068 15.0129 -3.94173e-16)
(0.0347714 16.038 0)
(-0.106714 16.9539 0)
(-0.348441 17.7232 3.98911e-16)
(-0.490391 18.2562 -4.8501e-16)
(-0.586954 18.3052 0)
(-0.20917 8.62575 2.13856e-17)
(-1.15166 10.6997 -1.03411e-16)
(-1.05356 12.3101 6.30155e-16)
(-1.03187 13.6783 -8.92532e-16)
(-1.12056 14.9014 2.89452e-16)
(-1.3335 16.0236 9.00091e-18)
(-1.61789 17.0415 2.66016e-15)
(-1.86992 17.8431 -6.03837e-16)
(-1.97733 18.2719 1.12457e-15)
(-2.01692 18.1872 0)
(-0.861373 8.55758 2.12708e-17)
(-2.01365 10.5045 -4.38502e-16)
(-2.07113 12.0793 5.99483e-16)
(-2.20404 13.455 1.04859e-15)
(-2.42283 14.7444 -6.96683e-16)
(-2.73942 15.9631 3.43917e-15)
(-3.07613 17.0656 1.61157e-15)
(-3.31108 17.8209 4.36643e-15)
(-3.39651 18.0959 -1.54021e-15)
(-3.39587 17.9175 -3.79652e-15)
(-1.49368 8.44672 1.369e-17)
(-2.83892 10.2612 3.96136e-16)
(-3.0327 11.7886 -7.73624e-16)
(-3.3008 13.1656 7.21906e-16)
(-3.62371 14.5025 -1.4273e-15)
(-4.01353 15.7885 1.68323e-15)
(-4.36427 16.9629 -8.65479e-15)
(-4.58161 17.7273 0)
(-4.68621 17.7676 -4.31008e-15)
(-4.63719 17.5448 3.89166e-15)
(-2.10898 8.31301 0)
(-3.6265 9.97061 2.92001e-16)
(-3.92797 11.4359 -2.87076e-16)
(-4.29527 12.7994 0)
(-4.69415 14.165 -3.17345e-16)
(-5.13822 15.5 -2.78992e-16)
(-5.50314 16.7127 2.88601e-15)
(-5.68297 17.4773 -3.74854e-15)
(-5.82777 17.3623 0)
(-5.81375 17.1529 -1.71009e-14)
(-2.71595 8.14844 -9.32361e-18)
(-4.3835 9.62617 0)
(-4.76024 11.0139 0)
(-5.19707 12.3441 1.29811e-15)
(-5.648 13.7173 -2.08436e-15)
(-6.12272 15.0906 2.31462e-15)
(-6.51157 16.3252 7.35646e-16)
(-6.7007 17.1019 8.94958e-15)
(-6.90596 16.9619 -1.60468e-14)
(-6.93987 16.7771 9.10929e-15)
(-3.32861 7.95183 0)
(-5.11695 9.21777 -2.93243e-16)
(-5.54094 10.5131 -1.91168e-15)
(-6.02617 11.7861 -7.81757e-16)
(-6.5137 13.1343 -3.62921e-15)
(-6.99886 14.5236 2.24775e-15)
(-7.40381 15.8239 -5.57942e-15)
(-7.62841 16.6959 7.56015e-16)
(-7.88394 16.7567 -4.38022e-15)
(-8.0168 16.5099 -1.44313e-14)
(-3.96961 7.72285 2.71007e-17)
(-5.82135 8.7412 2.93698e-16)
(-6.27636 9.93819 2.50913e-15)
(-6.81124 11.13 5.69958e-16)
(-7.34322 12.4033 2.12359e-15)
(-7.84477 13.7445 0)
(-8.26521 15.0398 5.38295e-15)
(-8.57764 16.0177 6.54373e-15)
(-8.87804 16.4359 9.48602e-15)
(-9.17315 16.3493 9.72393e-15)
(-4.68168 7.45388 3.19194e-17)
(-6.47584 8.23489 2.95558e-16)
(-6.9763 9.3446 -3.15501e-16)
(-7.60571 10.4407 -1.74005e-15)
(-8.24897 11.5933 5.53019e-15)
(-8.85454 12.8187 7.51137e-15)
(-9.39714 14.0528 -2.48676e-15)
(-9.90082 15.0976 0)
(-10.4007 15.702 0)
(-10.747 15.6972 -8.96628e-15)
(-5.49864 7.04668 -8.42532e-17)
(-6.89901 7.73548 6.54137e-16)
(-7.48837 8.75093 0)
(-8.1936 9.76222 0)
(-8.88535 10.7598 -3.22822e-15)
(-9.52389 11.7441 -2.4911e-17)
(-10.1176 12.7033 5.48033e-15)
(-10.7118 13.6081 -1.16321e-14)
(-11.4209 14.4241 1.37357e-14)
(-12.2187 14.8386 1.23883e-15)
(-0.585703 17.9367 0)
(-0.446356 17.2783 0)
(-0.214405 16.4967 0)
(0.0200102 15.7008 -8.07294e-16)
(0.145199 14.8976 0)
(0.253635 13.9783 0)
(1.08151 13.3401 9.67522e-16)
(1.17143 14.3795 0)
(-6.65465 16.2872 0)
(9.90505 -4.69648 0)
(-1.95618 17.6848 1.52275e-15)
(-1.74148 16.9368 2.59547e-15)
(-1.44013 16.1363 1.84221e-16)
(-1.15891 15.3796 9.6414e-16)
(-1.01198 14.6239 1.26361e-16)
(-0.894064 13.7259 1.4016e-15)
(-0.10507 13.1026 2.91704e-16)
(1.01005 14.344 3.8017e-18)
(-7.56583 17.0927 -3.77774e-15)
(10.2728 -4.87257 -9.89174e-16)
(-3.28456 17.3347 1.40593e-15)
(-3.00856 16.5369 0)
(-2.65611 15.7352 -2.26994e-15)
(-2.34256 15.0197 -2.08537e-15)
(-2.17484 14.3194 6.14349e-15)
(-2.04454 13.448 -1.29432e-15)
(-1.29507 12.8251 2.5379e-15)
(0.0731017 14.2772 0)
(-8.84292 16.5508 4.13867e-15)
(10.7286 -3.49862 -5.0745e-17)
(-4.52603 16.9153 3.35229e-15)
(-4.19728 16.0825 8.5094e-15)
(-3.80134 15.2892 -9.12252e-15)
(-3.47224 14.6237 3.67633e-15)
(-3.29028 13.9848 1.50791e-16)
(-3.15597 13.1452 0)
(-2.37844 12.5239 -2.58267e-15)
(-1.21802 14.2327 -5.26439e-15)
(-9.91279 15.7451 -3.99304e-15)
(10.7602 -2.26952 3.99621e-15)
(-5.73234 16.4832 3.12987e-15)
(-5.33562 15.589 -2.80057e-15)
(-4.89519 14.7977 9.80627e-15)
(-4.55469 14.1758 -4.00199e-15)
(-4.3449 13.5959 3.68774e-15)
(-4.17515 12.8014 -5.6338e-15)
(-3.32383 12.2211 5.80746e-15)
(-2.43028 14.0464 5.53798e-15)
(-10.7764 14.7962 0)
(10.7437 -0.839526 -8.18902e-15)
(-6.89237 16.0495 4.00383e-15)
(-6.40741 15.0629 -1.76639e-14)
(-5.9204 14.2808 -5.2409e-15)
(-5.56088 13.7006 1.24001e-14)
(-5.31533 13.157 1.10885e-14)
(-5.11566 12.3899 7.19135e-16)
(-4.20446 11.8402 3.38308e-16)
(-3.54027 13.7299 -4.98693e-15)
(-11.569 13.7152 -4.35548e-15)
(10.599 0.733569 8.26269e-15)
(-8.02708 15.6337 4.04695e-15)
(-7.4044 14.5394 6.02897e-15)
(-6.86976 13.7575 0)
(-6.50946 13.1816 -3.9385e-15)
(-6.23332 12.658 -6.41386e-15)
(-6.0056 11.9167 6.61142e-16)
(-5.04484 11.3914 -1.54113e-14)
(-4.60796 13.3037 -5.01873e-15)
(-12.2949 12.549 8.33895e-15)
(10.269 2.23755 -4.04208e-15)
(-9.17314 15.1948 1.44476e-14)
(-8.39277 13.9691 -5.1817e-15)
(-7.78985 13.1994 0)
(-7.43078 12.6125 -3.87673e-16)
(-7.12128 12.0903 2.63903e-14)
(-6.86013 11.3644 -1.09692e-14)
(-5.85042 10.8587 -1.05255e-14)
(-5.6351 12.7945 8.90842e-15)
(-12.9349 11.3063 -7.07859e-15)
(9.768 3.70715 0)
(-10.3364 14.4274 3.64578e-16)
(-9.47176 13.2471 -4.986e-15)
(-8.77585 12.5773 0)
(-8.40394 11.9753 7.68904e-15)
(-8.05254 11.4391 -1.88202e-14)
(-7.74523 10.716 1.07984e-14)
(-6.6547 10.1903 4.86101e-15)
(-6.64844 12.1645 0)
(-13.5175 10.3052 5.04665e-16)
(9.18926 4.96142 4.36375e-15)
(-11.1761 13.0942 5.11019e-16)
(-10.5436 12.4175 -4.1858e-17)
(-9.95505 11.8527 0)
(-9.57391 11.2362 -1.47598e-14)
(-9.21162 10.653 5.73356e-15)
(-8.92056 9.92815 -5.64485e-15)
(-7.94506 9.33578 4.95601e-15)
(-7.98697 11.064 -1.1145e-16)
(-14.1377 9.24096 -1.70503e-16)
(8.64154 6.28888 -4.33532e-15)
(-10.6462 13.1353 3.05205e-15)
(-11.0042 11.8948 -5.76211e-15)
(-10.57 11.4034 0)
(-10.1254 10.7812 0)
(-9.68467 10.1741 0)
(-9.33532 9.42549 -2.68531e-15)
(-8.20669 8.83081 1.11272e-14)
(-8.58112 10.1049 0)
(-14.0218 7.12668 0)
(8.22557 8.28615 0)
(-11.1846 12.3416 -2.97166e-15)
(-11.3439 11.5718 -5.52611e-15)
(-10.9632 11.148 0)
(-10.4512 10.5532 3.76847e-15)
(-9.92656 9.98427 -2.92324e-15)
(-9.529 9.23219 2.51014e-15)
(-8.34252 8.70805 3.82082e-15)
(-8.89503 10.0644 1.36028e-16)
(-13.8868 6.06395 1.30516e-15)
(7.81792 8.76462 0)
(-12.0259 11.5417 3.3867e-17)
(-11.8938 11.0647 1.34742e-16)
(-11.6213 10.6147 0)
(-11.1003 10.0438 2.92473e-16)
(-10.5016 9.56136 5.424e-15)
(-10.0759 8.85736 -4.03287e-15)
(-8.92476 8.38005 -1.0943e-14)
(-9.5404 10.0395 -5.50294e-15)
(-14.3482 5.30256 8.46958e-15)
(6.82525 9.34988 4.13999e-15)
(-13.4577 10.0352 -1.19683e-14)
(-13.0309 9.85154 4.78941e-15)
(-12.6527 9.38808 0)
(-12.0697 8.80363 -6.0971e-15)
(-11.3927 8.31178 -5.1682e-15)
(-10.9033 7.64398 7.99113e-15)
(-9.71952 7.10257 2.98536e-15)
(-10.4735 8.32893 0)
(-14.1796 4.97342 -5.20344e-15)
(5.51197 9.50053 -7.61487e-16)
(-14.3873 8.72336 -2.83722e-16)
(-13.9975 8.62158 4.66921e-15)
(-13.5839 8.21729 0)
(-12.9456 7.67634 1.22541e-14)
(-12.2027 7.21574 9.36944e-17)
(-11.6423 6.5969 -1.35536e-16)
(-10.4904 6.09048 5.1987e-15)
(-11.313 6.89899 -4.63839e-15)
(-13.9329 3.36543 -3.26475e-15)
(4.46967 10.0867 0)
(-15.1016 7.48687 -2.85313e-15)
(-14.8133 7.4047 8.89302e-15)
(-14.3945 7.04057 7.39535e-15)
(-13.711 6.53888 -8.5023e-15)
(-12.9163 6.10793 -1.36459e-14)
(-12.288 5.53598 1.36409e-16)
(-11.113 5.0913 -2.49325e-15)
(-12.0859 5.51606 -1.81012e-15)
(-13.6155 1.96346 -3.84746e-15)
(3.67508 10.6355 -4.97791e-15)
(-15.7896 6.30292 -7.89891e-15)
(-15.5481 6.18908 4.22951e-15)
(-15.106 5.84622 -3.34227e-15)
(-14.3784 5.38812 -8.35295e-15)
(-13.5432 4.9882 6.72272e-15)
(-12.8477 4.48166 1.79734e-16)
(-11.7083 4.11174 4.92821e-15)
(-12.7971 4.06286 1.70081e-15)
(-13.1098 0.535335 2.48513e-15)
(3.14493 11.1642 1.13478e-15)
(-16.4473 5.14632 2.38569e-15)
(-16.2008 4.98986 -2.14742e-15)
(-15.71 4.66548 -1.52611e-17)
(-14.9364 4.25742 8.38839e-15)
(-14.0728 3.89223 -1.07785e-14)
(-13.3123 3.47007 3.29633e-15)
(-12.2597 3.21542 -2.09296e-15)
(-13.4336 2.63518 4.94074e-15)
(-12.4715 -0.74938 0)
(2.77573 11.6715 -2.60794e-16)
(-17.0429 3.98331 2.59137e-15)
(-16.7636 3.79181 2.17572e-15)
(-16.2172 3.47953 3.52987e-15)
(-15.4077 3.11805 -5.36204e-15)
(-14.526 2.78673 2.08524e-15)
(-13.6939 2.4308 0)
(-12.7501 2.324 -1.1225e-15)
(-13.9381 1.26229 -2.89799e-15)
(-11.7803 -1.84995 7.63026e-17)
(2.66172 11.6871 4.92614e-15)
(-17.5382 2.79048 1.17943e-15)
(-17.229 2.59448 0)
(-16.6354 2.33386 1.73938e-15)
(-15.8021 2.03086 1.38121e-15)
(-14.9155 1.74087 1.2081e-17)
(-14.0185 1.45692 -7.83336e-16)
(-13.0882 1.38137 1.08766e-15)
(-14.1703 0.226389 0)
(-11.5715 -3.17944 1.02215e-15)
(2.06559 13.0046 5.96144e-15)
(-17.7998 1.60194 1.29139e-15)
(-17.4261 1.49522 -2.19029e-15)
(-16.7552 1.38434 -1.04394e-16)
(-15.8768 1.2314 6.19334e-16)
(-14.9526 1.04691 -8.80885e-18)
(-13.9684 0.773865 7.90034e-16)
(-12.8563 0.835449 -1.06998e-15)
(-13.5842 -0.0177599 1.68616e-16)
(-11.1893 -5.18932 1.8927e-15)
(3.55896 16.105 -3.57129e-15)
(-18.0172 0.632354 1.93881e-29)
(-17.5089 0.734884 0)
(-16.8013 0.944808 0)
(-16.0224 1.16577 -7.11228e-16)
(-15.2192 1.30036 0)
(-14.2899 1.49669 0)
(-13.5065 2.18931 6.47445e-16)
(-14.4194 1.10001 0)
(-14.262 -4.34094 0)
(5.25264 9.03424 -1.39946e-29)
(-13.8174 12.0125 7.76575e-16)
(-14.2879 10.5177 -7.64047e-15)
(-14.7248 8.80798 7.14689e-15)
(-15.2014 7.53478 -9.28277e-15)
(-15.7469 6.38409 5.67278e-15)
(-16.3549 5.27413 -1.11547e-14)
(-16.9569 4.13767 2.77468e-15)
(-17.5134 2.96673 -2.93313e-15)
(-17.8829 1.77335 0)
(-18.2341 0.701764 -3.56893e-16)
(-14.5674 11.4577 1.56099e-14)
(-15.07 10.2955 0)
(-15.047 8.54712 8.3142e-15)
(-15.3182 7.38228 -3.28749e-15)
(-15.6844 6.33649 -9.43647e-15)
(-16.1687 5.32278 0)
(-16.7026 4.25984 -2.83653e-15)
(-17.2333 3.13264 -1.21697e-15)
(-17.6424 1.98561 8.67215e-16)
(-18.057 0.852967 -3.8386e-16)
(-14.4118 10.7358 -1.30534e-14)
(-15.282 9.58061 0)
(-15.2469 8.16182 8.0962e-15)
(-15.4 7.18432 2.97956e-16)
(-15.6361 6.28574 8.27896e-15)
(-15.9581 5.35515 -3.48609e-15)
(-16.3817 4.37189 0)
(-16.8167 3.28617 3.21192e-15)
(-17.1753 2.16855 -5.38664e-16)
(-17.4882 0.999617 4.36132e-16)
(-13.3693 10.0259 5.95127e-15)
(-14.8345 8.90641 -3.1191e-15)
(-15.1242 7.75029 6.78215e-15)
(-15.4058 6.97772 -7.75162e-15)
(-15.6767 6.27976 6.67492e-16)
(-15.888 5.42473 4.00381e-15)
(-16.1373 4.46931 -1.03586e-14)
(-16.4247 3.42478 1.7398e-15)
(-16.6708 2.33022 2.53637e-15)
(-16.8282 1.19187 6.70511e-17)
(-12.1047 9.35154 -8.98418e-15)
(-13.7513 8.32126 9.10375e-15)
(-14.413 7.31868 0)
(-14.869 6.59021 2.63148e-15)
(-15.166 5.898 2.76002e-15)
(-15.4048 5.16387 -2.30544e-16)
(-15.594 4.29897 1.89423e-15)
(-15.7916 3.33534 3.84797e-15)
(-15.9412 2.29007 -3.80088e-17)
(-16.0189 1.21592 3.19205e-16)
(-10.8815 8.69289 -3.61064e-15)
(-12.4425 7.77854 7.53018e-15)
(-13.211 6.90284 2.45491e-15)
(-13.8872 6.20868 -4.24111e-15)
(-14.3237 5.53965 -2.33188e-15)
(-14.6382 4.84274 -3.16e-16)
(-14.8249 4.03422 -3.67494e-15)
(-14.9697 3.13372 1.09285e-15)
(-15.0557 2.16247 3.08209e-16)
(-15.0711 1.16797 -3.39828e-16)
(-9.75917 8.03595 0)
(-11.0978 7.23065 -2.5416e-15)
(-11.8278 6.48883 5.53824e-16)
(-12.5713 5.83128 -9.38118e-16)
(-13.1202 5.15746 1.62554e-15)
(-13.5017 4.45283 0)
(-13.7533 3.67974 8.46447e-16)
(-13.9004 2.83154 1.16007e-15)
(-13.965 1.93342 -1.0321e-15)
(-13.9453 1.0187 -2.6348e-17)
(-8.72195 7.37556 0)
(-9.78555 6.69788 -7.07433e-16)
(-10.4562 6.06438 4.11323e-15)
(-11.1458 5.43569 -2.99223e-15)
(-11.7041 4.75497 0)
(-12.1173 4.03968 -4.58921e-16)
(-12.3976 3.27717 -1.0097e-15)
(-12.5672 2.46453 8.33283e-16)
(-12.6397 1.63127 7.73754e-16)
(-12.6068 0.787566 -2.83982e-16)
(-7.70233 6.65964 -9.55533e-16)
(-8.47905 6.13728 6.80355e-16)
(-9.10398 5.54509 6.42035e-16)
(-9.712 4.89726 -5.90277e-16)
(-10.2055 4.20328 0)
(-10.579 3.48983 4.959e-16)
(-10.8366 2.757 6.72905e-16)
(-10.9934 2.00665 -7.84327e-16)
(-11.0516 1.25245 -1.45786e-16)
(-11.0031 0.464074 1.012e-17)
(-6.34958 6.25245 -2.82658e-16)
(-6.55107 6.00767 1.33195e-16)
(-6.93571 5.44586 1.12525e-16)
(-7.32968 4.80001 0)
(-7.69473 4.15769 -4.19231e-17)
(-8.01168 3.52736 0)
(-8.27032 2.90054 -1.41479e-16)
(-8.46305 2.27285 1.80976e-16)
(-8.57862 1.64595 3.15148e-17)
(-8.64084 1.02829 -8.23318e-18)
)
;

boundaryField
{
    right
    {
        type            cyclic;
    }
    left
    {
        type            cyclic;
    }
    outerWall
    {
        type            calculated;
        value           nonuniform List<vector> 
22
(
(-1.55201 41.8305 0)
(-4.64749 41.6006 0)
(-7.71741 41.1419 0)
(-10.7449 40.4569 0)
(-13.7132 39.5492 0)
(-16.6061 38.424 0)
(-19.4075 37.0874 0)
(-22.1022 35.5467 0)
(-24.6752 33.8104 0)
(-27.1124 31.8882 0)
(-28.9573 30.2506 0)
(-30.2506 28.9573 0)
(-31.8882 27.1124 0)
(-33.8104 24.6752 0)
(-35.5467 22.1022 0)
(-37.0874 19.4075 0)
(-38.424 16.6061 0)
(-39.5492 13.7132 0)
(-40.4569 10.7449 0)
(-41.1419 7.71741 0)
(-41.6006 4.64749 0)
(-41.8305 1.55201 0)
)
;
    }
    stirrerWall
    {
        type            calculated;
        value           nonuniform List<vector> 
42
(
(-0.310178 8.3662 0)
(-0.928834 8.32046 0)
(-1.54239 8.22894 0)
(-2.14746 8.09214 0)
(-2.74072 7.91082 0)
(-3.31888 7.68598 0)
(-3.87877 7.41885 0)
(-4.41729 7.11092 0)
(-4.93148 6.76387 0)
(-5.4185 6.37963 0)
(-6.07951 6.64185 0)
(-6.92878 7.56862 0)
(-7.77806 8.49539 0)
(-8.62734 9.42216 0)
(-9.47661 10.3489 0)
(-10.3259 11.2757 0)
(-11.1752 12.2025 0)
(-12.0244 13.1292 0)
(-12.8737 14.056 0)
(-13.723 14.9828 0)
(-14.4723 15.1215 0)
(-15.1215 14.4723 0)
(-14.9828 13.723 0)
(-14.056 12.8737 0)
(-13.1292 12.0244 0)
(-12.2025 11.1752 0)
(-11.2757 10.3259 0)
(-10.3489 9.47661 0)
(-9.42216 8.62734 0)
(-8.49539 7.77806 0)
(-7.56862 6.92878 0)
(-6.64185 6.07951 0)
(-6.37963 5.4185 0)
(-6.76387 4.93148 0)
(-7.11092 4.41729 0)
(-7.41885 3.87877 0)
(-7.68598 3.31888 0)
(-7.91082 2.74072 0)
(-8.09214 2.14746 0)
(-8.22894 1.54239 0)
(-8.32046 0.928834 0)
(-8.3662 0.310178 0)
)
;
    }
    top
    {
        type            empty;
    }
    bottom
    {
        type            empty;
    }
}


// ************************************************************************* //
