/*--------------------------------*- C++ -*----------------------------------*\
  =========                 |
  \\      /  F ield         | OpenFOAM: The Open Source CFD Toolbox
   \\    /   O peration     | Website:  https://openfoam.org
    \\  /    A nd           | Version:  10
     \\/     M anipulation  |
\*---------------------------------------------------------------------------*/
FoamFile
{
    format      ascii;
    class       volVectorField;
    location    "3800";
    object      Urel;
}
// * * * * * * * * * * * * * * * * * * * * * * * * * * * * * * * * * * * * * //

dimensions      [0 1 -1 0 0 0 0];

internalField   nonuniform List<vector> 
420
(
(0.761634 -0.354722 6.75598e-18)
(0.0335972 0.594782 -4.87336e-17)
(0.333112 0.975687 -2.12455e-16)
(0.522489 1.07604 5.94318e-17)
(0.618081 0.990321 -3.94173e-16)
(0.601384 0.761261 0)
(0.506441 0.422981 0)
(0.31126 -0.0621012 3.98911e-16)
(0.215859 -0.783504 -4.8501e-16)
(0.165848 -1.9889 0)
(0.791007 -0.333212 2.13856e-17)
(-0.0122398 0.494535 -1.03411e-16)
(0.225152 0.858429 6.30155e-16)
(0.38616 0.979722 -8.92532e-16)
(0.436815 0.955788 2.89452e-16)
(0.363236 0.830823 9.00091e-18)
(0.21821 0.60147 2.66016e-15)
(0.105564 0.155641 -6.03837e-16)
(0.137541 -0.663086 1.12457e-15)
(0.237351 -1.99531 0)
(0.799489 -0.302807 2.12708e-17)
(-0.121565 0.411698 -4.38502e-16)
(0.0522566 0.753669 5.99483e-16)
(0.150687 0.896359 1.04859e-15)
(0.163282 0.952431 -6.96683e-16)
(0.0781062 0.937726 3.43917e-15)
(-0.0271662 0.806684 1.61157e-15)
(-0.0306694 0.328357 4.36643e-15)
(0.115372 -0.630278 -1.54021e-15)
(0.347491 -2.04249 -3.79652e-15)
(0.818733 -0.266357 1.369e-17)
(-0.20457 0.336233 3.96136e-16)
(-0.0763165 0.651343 -7.73624e-16)
(-0.0223085 0.815829 7.21906e-16)
(-0.0230581 0.939997 -1.4273e-15)
(-0.0906838 1.01315 1.68323e-15)
(-0.119192 0.974478 -8.65479e-15)
(-0.0142823 0.525815 0)
(0.203387 -0.647042 -4.31008e-15)
(0.574691 -2.08304 3.89166e-15)
(0.842265 -0.20482 0)
(-0.264378 0.268058 2.92001e-16)
(-0.154843 0.548254 -2.87076e-16)
(-0.111036 0.726362 0)
(-0.0987541 0.906453 -3.17345e-16)
(-0.131606 1.05577 -2.78992e-16)
(-0.08528 1.08273 2.88601e-15)
(0.146179 0.661417 -3.74854e-15)
(0.412689 -0.639526 0)
(0.838036 -2.03492 -1.71009e-14)
(0.857879 -0.12729 -9.32361e-18)
(-0.312103 0.199385 0)
(-0.191114 0.435744 0)
(-0.130106 0.614206 1.29811e-15)
(-0.0831141 0.835571 -2.08436e-15)
(-0.05986 1.05693 2.31462e-15)
(0.0493203 1.13944 7.35646e-16)
(0.358252 0.763937 8.94958e-15)
(0.651086 -0.528276 -1.60468e-14)
(1.11529 -1.86544 9.10929e-15)
(0.848124 -0.0362924 0)
(-0.358674 0.118592 -2.93243e-16)
(-0.200942 0.302544 -1.91168e-15)
(-0.104319 0.463845 -7.81757e-16)
(-0.00990986 0.700279 -3.62921e-15)
(0.086942 0.977572 2.24775e-15)
(0.26406 1.16577 -5.57942e-15)
(0.621569 0.925653 7.56015e-16)
(0.948186 -0.125729 -4.38022e-15)
(1.39751 -1.48483 -1.44313e-14)
(0.787036 0.0662734 2.71007e-17)
(-0.402385 0.0196516 2.93698e-16)
(-0.194864 0.151337 2.50913e-15)
(-0.0670659 0.2776 5.69958e-16)
(0.0637303 0.485224 2.12359e-15)
(0.225046 0.760531 0)
(0.467529 0.989951 5.38295e-15)
(0.818068 0.901775 6.54373e-15)
(1.18068 0.253915 9.48602e-15)
(1.54861 -0.898786 9.72393e-15)
(0.628685 0.170954 3.19194e-17)
(-0.425999 -0.0610735 2.95558e-16)
(-0.186752 0.0352818 -3.15501e-16)
(-0.0762953 0.117775 -1.74005e-15)
(0.0204336 0.256619 5.53019e-15)
(0.154937 0.468243 7.51137e-15)
(0.352483 0.688288 -2.48676e-15)
(0.589009 0.719119 0)
(0.829338 0.30942 0)
(1.22338 -0.709536 -8.96628e-15)
(0.336202 0.17746 -8.42532e-17)
(-0.251595 -0.0892855 6.54137e-16)
(-0.0281235 -0.029687 0)
(0.0796589 0.0255469 0)
(0.201048 0.0669095 -3.22822e-15)
(0.375756 0.0948752 -2.4911e-17)
(0.595318 0.0976894 5.48033e-15)
(0.814519 0.0460271 -1.16321e-14)
(0.918844 -0.0945924 1.37357e-14)
(0.934548 -0.636668 1.23883e-15)
(0.213904 -3.61854 0)
(0.40286 -5.61375 0)
(0.689736 -7.87544 0)
(0.984965 -10.3101 -8.07294e-16)
(1.17749 -12.9277 0)
(1.36047 -15.8559 0)
(2.27088 -18.7183 9.67522e-16)
(2.45219 -20.1416 0)
(-5.27271 -20.9604 0)
(11.399 -44.9629 0)
(0.438235 -3.7519 1.52275e-15)
(0.801487 -5.82936 2.59547e-15)
(1.26731 -8.10178 1.84221e-16)
(1.73064 -10.4883 9.6414e-16)
(2.0792 -13.0485 1.26361e-16)
(2.42035 -15.9443 1.4016e-15)
(3.45651 -18.7796 2.91704e-16)
(4.84528 -19.9873 3.8017e-18)
(-3.4276 -19.9502 -3.77774e-15)
(14.7465 -44.9177 -9.89174e-16)
(0.691509 -3.86566 1.40593e-15)
(1.21419 -5.97822 0)
(1.83975 -8.23568 -2.26994e-15)
(2.4557 -10.563 -2.08537e-15)
(2.95824 -13.0478 6.14349e-15)
(3.45923 -15.895 -1.29432e-15)
(4.61913 -18.7056 2.5379e-15)
(6.44172 -19.6756 0)
(-1.97118 -20.0837 4.13867e-15)
(18.1574 -43.1022 -5.0745e-17)
(1.00985 -3.93223 3.35229e-15)
(1.68205 -6.05793 8.5094e-15)
(2.45825 -8.28272 -9.12252e-15)
(3.20837 -10.5331 3.67633e-15)
(3.85647 -12.9269 1.50791e-16)
(4.50689 -15.7094 0)
(5.85585 -18.4818 -2.58267e-15)
(7.64895 -19.1548 -5.26439e-15)
(-0.345327 -20.2794 -3.99304e-15)
(21.1033 -41.2137 3.99621e-15)
(1.33295 -3.89696 3.12987e-15)
(2.16799 -6.05509 -2.80057e-15)
(3.09372 -8.24574 9.80627e-15)
(3.97154 -10.4169 -4.00199e-15)
(4.77624 -12.7122 3.68774e-15)
(5.60468 -15.4061 -5.6338e-15)
(7.18527 -18.0892 5.80746e-15)
(8.88628 -18.5922 5.53798e-15)
(1.43417 -20.4202 0)
(23.9441 -38.91 -8.18902e-15)
(1.66353 -3.75143 4.00383e-15)
(2.67926 -5.96585 -1.76639e-14)
(3.75394 -8.10752 -5.2409e-15)
(4.76411 -10.1929 1.24001e-14)
(5.73007 -12.4031 1.10885e-14)
(6.72735 -15.0153 7.19135e-16)
(8.52166 -17.6081 3.38308e-16)
(10.1636 -17.9803 -4.98693e-15)
(3.21749 -20.4993 -4.35548e-15)
(26.5841 -36.2538 8.26269e-15)
(1.97244 -3.47915 4.04695e-15)
(3.21542 -5.75853 6.02897e-15)
(4.43685 -7.85259 0)
(5.55756 -9.88132 -3.9385e-15)
(6.67561 -12.0135 -6.41386e-15)
(7.83549 -14.5357 6.61142e-16)
(9.82831 -17.0328 -1.54113e-14)
(11.4079 -17.3036 -5.01873e-15)
(4.98607 -20.4755 8.33895e-15)
(28.9507 -33.4632 -4.04208e-15)
(2.21511 -3.12496 1.44476e-14)
(3.70187 -5.48649 -5.1817e-15)
(5.08691 -7.51383 0)
(6.31195 -9.49303 -3.87673e-16)
(7.58023 -11.5569 2.63903e-14)
(8.90292 -13.9897 -1.09692e-14)
(11.088 -16.3851 -1.05255e-14)
(12.6046 -16.5417 8.90842e-15)
(6.74555 -20.3465 -7.07859e-15)
(31.0437 -30.5106 0)
(2.37803 -2.99866 3.64578e-16)
(4.03127 -5.25924 -4.986e-15)
(5.60032 -7.12507 0)
(6.93897 -9.05141 7.68904e-15)
(8.36073 -11.0538 -1.88202e-14)
(9.85312 -13.4003 1.07984e-14)
(12.2557 -15.7234 4.86101e-15)
(13.7148 -15.7392 0)
(8.45415 -19.8018 5.04665e-16)
(32.9418 -27.5851 4.36375e-15)
(2.79469 -3.34243 5.11019e-16)
(4.29364 -5.03786 -4.1858e-17)
(5.84155 -6.73065 0)
(7.28487 -8.59606 -1.47598e-14)
(8.82318 -10.562 5.73356e-15)
(10.4163 -12.8178 -5.64485e-15)
(12.8335 -15.1052 4.95601e-15)
(14.3877 -15.2537 -1.1145e-16)
(10.0043 -19.1547 -1.70503e-16)
(34.7401 -24.4074 -4.33532e-15)
(4.26952 -2.44915 3.05205e-15)
(4.83732 -4.65664 -5.76211e-15)
(6.2966 -6.21866 0)
(7.87608 -8.02618 0)
(9.57337 -9.94576 0)
(11.314 -12.1475 -2.68531e-15)
(13.983 -14.351 1.11272e-14)
(15.314 -14.8583 0)
(11.7616 -19.8087 0)
(36.0997 -20.8329 0)
(4.39985 -2.57411 -2.97166e-15)
(5.20757 -4.26974 -5.52611e-15)
(6.65883 -5.71856 0)
(8.35621 -7.44831 3.76847e-15)
(10.1933 -9.27376 -2.92324e-15)
(12.044 -11.4171 2.51014e-15)
(14.8393 -13.4816 3.82082e-15)
(16.0681 -13.8308 1.36028e-16)
(13.0486 -19.7195 1.30516e-15)
(36.9369 -19.1095 0)
(4.41076 -2.42912 3.3867e-17)
(5.56159 -3.77252 1.34742e-16)
(6.96206 -5.18194 0)
(8.73198 -6.81495 2.92473e-16)
(10.7134 -8.47344 5.424e-15)
(12.6701 -10.4795 -4.03287e-15)
(15.5163 -12.3985 -1.0943e-14)
(16.7774 -12.3352 -5.50294e-15)
(14.0474 -18.8394 8.46958e-15)
(37.5215 -16.7487 4.13999e-15)
(3.96839 -2.67921 -1.19683e-14)
(5.47547 -3.6515 4.78941e-15)
(7.04972 -4.9881 0)
(8.95697 -6.53928 -6.0971e-15)
(11.1002 -8.10149 -5.1682e-15)
(13.213 -9.95437 7.99113e-15)
(16.1942 -11.8079 2.98536e-15)
(17.4302 -12.0343 0)
(15.9275 -16.9982 -5.20344e-15)
(38.0585 -14.252 -7.61487e-16)
(3.93253 -2.66488 -2.83722e-16)
(5.45807 -3.47306 4.66921e-15)
(7.12928 -4.65947 0)
(9.15997 -6.06639 1.22541e-14)
(11.4445 -7.48576 9.36944e-17)
(13.7118 -9.16615 -1.35536e-16)
(16.7535 -10.8479 5.1987e-15)
(18.0232 -11.3407 -4.63839e-15)
(17.7199 -16.315 -3.26475e-15)
(38.6874 -11.1889 0)
(4.01128 -2.51266 -2.85313e-15)
(5.48463 -3.21512 8.89302e-15)
(7.21566 -4.26604 7.39535e-15)
(9.3519 -5.52813 -8.5023e-15)
(11.7551 -6.801 -1.36459e-14)
(14.1643 -8.30511 1.36409e-16)
(17.3112 -9.78185 -2.49325e-15)
(18.5215 -10.4998 -1.81012e-15)
(19.4091 -15.3175 -3.84746e-15)
(39.3759 -8.0463 -4.97791e-15)
(4.01129 -2.25298 -7.89891e-15)
(5.48068 -2.89759 4.22951e-15)
(7.28224 -3.82812 -3.34227e-15)
(9.51514 -4.93687 -8.35295e-15)
(12.0169 -6.0572 6.72272e-15)
(14.5576 -7.36135 1.79734e-16)
(17.7399 -8.61438 4.92821e-15)
(18.9131 -9.64103 1.70081e-15)
(21.1048 -14.2511 2.48513e-15)
(40.1323 -4.82084 1.13478e-15)
(3.93293 -1.91897 2.38569e-15)
(5.44326 -2.51375 -2.14742e-15)
(7.33342 -3.32342 -1.52611e-17)
(9.6564 -4.2688 8.38839e-15)
(12.2353 -5.22891 -1.07785e-14)
(14.8952 -6.30976 3.29633e-15)
(18.0507 -7.29368 -2.09296e-15)
(19.205 -8.68138 4.94074e-15)
(22.7449 -12.9599 0)
(40.8462 -1.52885 -2.60794e-16)
(3.80461 -1.55258 2.59137e-15)
(5.37678 -2.08751 2.17572e-15)
(7.35467 -2.78005 3.52987e-15)
(9.74918 -3.56255 -5.36204e-15)
(12.3857 -4.36002 2.08524e-15)
(15.1607 -5.23207 0)
(18.2556 -5.91029 -1.1225e-15)
(19.4494 -7.60469 -2.89799e-15)
(24.2442 -11.4174 7.63026e-17)
(41.6059 1.34407 4.92614e-15)
(3.66214 -1.18559 1.17943e-15)
(5.2861 -1.62826 0)
(7.33547 -2.16201 1.73938e-15)
(9.78061 -2.7674 1.38121e-15)
(12.4518 -3.39221 1.2081e-17)
(15.3246 -4.04685 -7.83336e-16)
(18.4424 -4.53282 1.08766e-15)
(19.7824 -6.14223 0)
(25.0629 -10.0512 1.02215e-15)
(41.6692 5.57578 5.96144e-15)
(3.63691 -0.792479 1.29139e-15)
(5.34007 -1.04775 -2.19029e-15)
(7.48291 -1.3231 -1.04394e-16)
(9.99109 -1.65815 6.19334e-16)
(12.7198 -2.04427 -8.80885e-18)
(15.7018 -2.54055 7.90034e-16)
(19.0259 -2.72613 -1.06998e-15)
(20.7471 -3.85299 1.68616e-16)
(25.8536 -9.32754 1.8927e-15)
(43.6041 11.6313 -3.57129e-15)
(3.53805 -0.167254 1.93881e-29)
(5.38319 -0.114332 0)
(7.5709 0.0406665 0)
(9.98855 0.200816 -7.11228e-16)
(12.6061 0.268077 0)
(15.5443 0.389849 0)
(18.5519 0.999934 6.47445e-16)
(20.1017 -0.180756 0)
(22.9856 -5.72288 0)
(45.519 7.54027 -1.39946e-29)
(1.65781 -1.14068 7.76575e-16)
(2.1188 -1.45265 -7.64047e-15)
(2.52331 -1.91378 7.14689e-15)
(2.79337 -1.87952 -9.28277e-15)
(2.89562 -1.67107 5.67278e-15)
(2.833 -1.37766 -1.11547e-14)
(2.67088 -1.07421 2.77468e-15)
(2.4466 -0.776622 -2.93313e-15)
(2.29953 -0.480922 0)
(2.06002 -0.0510368 -3.56893e-16)
(-0.0487647 -0.882065 1.56099e-14)
(0.322597 -0.93458 0)
(1.13495 -1.5116 8.3142e-15)
(1.5643 -1.44985 -3.28749e-15)
(1.80575 -1.22055 -9.43647e-15)
(1.83312 -0.917671 0)
(1.71197 -0.629755 -2.83653e-15)
(1.49287 -0.379245 -1.21697e-15)
(1.29252 -0.129267 8.67215e-16)
(0.98264 0.146717 -3.8386e-16)
(-0.849694 -0.790499 -1.30534e-14)
(-0.90354 -0.909212 0)
(-0.130992 -1.23388 8.0962e-15)
(0.370281 -1.06567 2.97956e-16)
(0.701806 -0.773211 8.27896e-15)
(0.857756 -0.473995 -3.48609e-15)
(0.81976 -0.195435 0)
(0.675813 0.00574987 3.21192e-15)
(0.512215 0.193068 -5.38664e-16)
(0.297016 0.339916 4.36132e-16)
(-0.763726 -0.687057 5.95127e-15)
(-1.47006 -0.843217 -3.1191e-15)
(-1.07435 -0.982444 6.78215e-15)
(-0.747681 -0.690149 -7.75162e-15)
(-0.490882 -0.281128 6.67492e-16)
(-0.257961 0.00687194 4.00381e-15)
(-0.148906 0.224235 -1.03586e-14)
(-0.165832 0.375817 1.7398e-15)
(-0.2307 0.494114 2.53637e-15)
(-0.297252 0.578711 6.70511e-17)
(-0.455484 -0.548104 -8.98418e-15)
(-1.40083 -0.688219 9.10375e-15)
(-1.42908 -0.751131 0)
(-1.32297 -0.495593 2.63148e-15)
(-1.13232 -0.164864 2.76002e-15)
(-0.960553 0.157257 -2.30544e-16)
(-0.818582 0.37612 1.89423e-15)
(-0.766259 0.517815 3.84797e-15)
(-0.74848 0.59334 -3.80088e-17)
(-0.742178 0.649305 3.19205e-16)
(-0.188603 -0.393513 -3.61064e-15)
(-1.10589 -0.49086 7.53018e-15)
(-1.29291 -0.504108 2.45491e-15)
(-1.45314 -0.295114 -4.24111e-15)
(-1.44196 -0.0252313 -2.33188e-15)
(-1.37964 0.247341 -3.16e-16)
(-1.26244 0.433576 -3.67494e-15)
(-1.17775 0.547609 1.09285e-15)
(-1.11014 0.605097 3.08209e-16)
(-1.04855 0.6479 -3.39828e-16)
(-0.0224985 -0.237312 0)
(-0.774894 -0.298762 -2.5416e-15)
(-0.975373 -0.255346 5.53824e-16)
(-1.24904 -0.0905713 -9.38118e-16)
(-1.39033 0.0904896 1.62554e-15)
(-1.42874 0.268601 0)
(-1.4035 0.401246 8.46447e-16)
(-1.34172 0.476812 1.16007e-15)
(-1.26644 0.515392 -1.0321e-15)
(-1.17667 0.545162 -2.6348e-17)
(0.0586683 -0.0846902 0)
(-0.476226 -0.0916661 -7.07433e-16)
(-0.669318 -0.0171158 4.11323e-15)
(-0.935166 0.0956921 -2.99223e-15)
(-1.12586 0.185842 0)
(-1.22962 0.266546 -4.58921e-16)
(-1.26034 0.320789 -1.0097e-15)
(-1.24157 0.341148 8.33283e-16)
(-1.18798 0.352558 7.73754e-16)
(-1.09194 0.360551 -2.83982e-16)
(0.122437 0.0122181 -9.55533e-16)
(-0.183084 0.0874371 6.80355e-16)
(-0.382435 0.126117 6.42035e-16)
(-0.612816 0.138983 -5.90277e-16)
(-0.778725 0.131883 0)
(-0.876407 0.127705 4.959e-16)
(-0.911681 0.122655 6.72905e-16)
(-0.900585 0.114567 -7.84327e-16)
(-0.846437 0.113027 -1.45786e-16)
(-0.741746 0.0835737 1.012e-17)
(0.519643 0.417611 -2.82658e-16)
(0.731852 0.697301 1.33195e-16)
(0.720865 0.689212 1.12525e-16)
(0.658444 0.623277 0)
(0.581001 0.58386 -4.19231e-17)
(0.506152 0.576115 0)
(0.442752 0.588128 -1.41479e-16)
(0.397336 0.611988 1.80976e-16)
(0.380338 0.645771 3.15148e-17)
(0.36741 0.694286 -8.23318e-18)
)
;

boundaryField
{
    right
    {
        type            cyclic;
    }
    left
    {
        type            cyclic;
    }
    outerWall
    {
        type            noSlip;
    }
    stirrerWall
    {
        type            noSlip;
    }
    top
    {
        type            empty;
    }
    bottom
    {
        type            empty;
    }
}


// ************************************************************************* //
