/*--------------------------------*- C++ -*----------------------------------*\
  =========                 |
  \\      /  F ield         | OpenFOAM: The Open Source CFD Toolbox
   \\    /   O peration     | Website:  https://openfoam.org
    \\  /    A nd           | Version:  10
     \\/     M anipulation  |
\*---------------------------------------------------------------------------*/
FoamFile
{
    format      ascii;
    class       volScalarField;
    location    "28000";
    object      Co;
}
// * * * * * * * * * * * * * * * * * * * * * * * * * * * * * * * * * * * * * //

dimensions      [0 0 0 0 0 0 0];

internalField   nonuniform List<scalar> 
17981
(
144.488
146.179
147.833
149.448
151.028
152.578
154.101
155.601
157.08
158.542
159.989
161.424
162.848
164.265
165.676
167.083
168.488
169.893
171.3
172.711
174.127
175.549
176.98
178.422
179.875
181.341
182.822
184.32
185.835
187.37
188.926
190.504
192.106
193.733
195.388
197.07
198.783
200.527
202.303
204.114
205.961
207.846
209.769
211.733
213.739
215.789
217.884
220.026
150.916
152.6
154.243
155.85
157.426
158.975
160.501
162.008
163.499
164.976
166.442
167.9
169.352
170.8
172.246
173.691
175.138
176.588
178.044
179.505
180.975
182.455
183.946
185.45
186.968
188.503
190.054
191.625
193.215
194.828
196.464
198.124
199.811
201.525
203.269
205.043
206.85
208.691
210.566
212.479
214.43
216.421
218.453
220.529
222.649
224.816
227.032
229.297
156.725
158.373
159.983
161.56
163.11
164.637
166.145
167.639
169.121
170.594
172.06
173.522
174.983
176.443
177.905
179.371
180.841
182.318
183.803
185.298
186.804
188.323
189.855
191.403
192.967
194.55
196.152
197.775
199.421
201.09
202.784
204.505
206.255
208.033
209.843
211.685
213.561
215.473
217.422
219.409
221.436
223.506
225.618
227.776
229.98
232.233
234.536
236.89
168.103
169.589
171.061
172.522
173.977
175.427
176.876
178.326
179.777
181.233
182.695
184.164
185.642
187.129
188.628
190.14
191.665
193.206
194.763
196.338
197.931
199.545
201.18
202.838
204.52
206.227
207.96
209.722
211.513
213.335
215.189
217.076
218.998
220.957
222.954
224.99
227.068
229.188
231.352
233.562
235.82
238.127
240.485
242.896
172.39
173.813
175.227
176.637
178.044
179.453
180.865
182.282
183.707
185.141
186.585
188.04
189.509
190.991
192.487
194
195.53
197.077
198.644
200.23
201.838
203.468
205.121
206.798
208.501
210.23
211.987
213.774
215.591
217.439
219.32
221.236
223.187
225.175
227.202
229.269
231.377
233.528
235.724
237.966
240.256
242.595
244.986
247.43
175.98
177.319
178.655
179.991
181.33
182.677
184.033
185.4
186.78
188.174
189.583
191.009
192.452
193.913
195.393
196.892
198.412
199.952
201.515
203.1
204.708
206.34
207.998
209.681
211.392
213.131
214.898
216.696
218.525
220.386
222.281
224.211
226.176
228.179
230.221
232.303
234.427
236.593
238.804
241.061
243.366
245.721
248.126
250.584
180.091
181.321
182.559
183.807
185.069
186.348
187.644
188.959
190.295
191.653
193.032
194.434
195.858
197.306
198.777
200.272
201.792
203.336
204.906
206.501
208.123
209.772
211.449
213.154
214.888
216.652
218.447
220.274
222.134
224.027
225.956
227.921
229.923
231.963
234.043
236.165
238.329
240.537
242.791
245.091
247.44
249.839
252.291
184.307
185.44
186.595
187.774
188.98
190.212
191.473
192.762
194.079
195.425
196.799
198.201
199.631
201.089
202.575
204.089
205.631
207.202
208.8
210.428
212.084
213.77
215.486
217.233
219.011
220.82
222.663
224.539
226.45
228.396
230.379
232.4
234.459
236.558
238.699
240.882
243.109
245.382
247.701
250.068
252.486
186.15
187.178
188.242
189.341
190.477
191.649
192.857
194.101
195.38
196.693
198.039
199.418
200.829
202.272
203.746
205.251
206.786
208.352
209.947
211.573
213.229
214.915
216.633
218.381
220.161
221.973
223.818
225.697
227.609
229.557
231.541
233.562
235.621
237.719
239.858
242.038
244.26
246.527
248.84
251.2
187.682
188.666
189.697
190.774
191.896
193.06
194.267
195.514
196.8
198.123
199.483
200.877
202.306
203.768
205.262
206.788
208.345
209.934
211.552
213.202
214.881
216.592
218.333
220.105
221.908
223.744
225.612
227.512
229.447
231.416
233.421
235.462
237.54
239.657
241.814
244.011
246.25
248.532
189.854
190.937
192.07
193.25
194.473
195.739
197.045
198.39
199.772
201.189
202.64
204.124
205.64
207.188
208.767
210.375
212.014
213.682
215.38
217.107
218.863
220.649
222.466
224.312
226.19
228.099
230.04
232.014
234.022
236.064
238.142
240.256
242.408
244.599
186.732
187.737
188.797
189.911
191.074
192.285
193.54
194.837
196.173
197.548
198.959
200.403
201.881
203.39
204.929
206.498
208.095
209.721
211.373
213.054
214.761
216.495
218.257
220.045
221.861
223.705
225.577
227.478
229.408
231.369
233.36
235.383
237.439
239.528
182.568
183.502
184.499
185.555
186.667
187.83
189.041
190.297
191.595
192.932
194.306
195.715
197.157
198.63
200.133
201.664
203.223
204.807
206.417
208.052
209.711
211.394
213.1
214.83
216.584
218.361
220.162
221.987
223.836
225.711
227.611
229.537
231.491
233.472
177.377
178.249
179.192
180.2
181.268
182.392
183.567
184.791
186.058
187.367
188.713
190.095
191.51
192.956
194.43
195.932
197.459
199.009
200.583
202.179
203.795
205.432
207.088
208.764
210.458
212.172
213.904
215.655
217.425
219.214
221.023
222.852
224.701
226.572
172.046
172.948
173.921
174.958
176.056
177.208
178.411
179.661
180.953
182.284
183.651
185.051
186.481
187.939
189.422
190.928
192.456
194.003
195.57
197.153
198.753
200.368
201.997
203.64
205.297
206.967
208.65
210.346
212.054
213.776
215.511
217.259
219.02
164.984
165.863
166.817
167.84
168.926
170.071
171.269
172.516
173.807
175.138
176.504
177.904
179.333
180.788
182.267
183.767
185.286
186.821
188.372
189.935
191.51
193.096
194.691
196.295
197.906
199.524
201.148
202.779
204.415
206.057
207.705
209.359
211.018
157.179
158.053
159.007
160.033
161.126
162.28
163.49
164.752
166.059
167.407
168.792
170.21
171.656
173.128
174.621
176.132
177.659
179.199
180.75
182.309
183.876
185.447
187.023
188.601
190.18
191.76
193.339
194.918
196.494
198.069
199.642
201.212
202.78
149.666
150.641
151.691
152.813
153.999
155.244
156.542
157.888
159.276
160.701
162.158
163.641
165.148
166.673
168.213
169.765
171.327
172.894
174.466
176.039
177.612
179.183
180.75
182.312
183.869
185.418
186.958
188.49
190.012
191.523
193.024
194.517
140.914
141.941
143.041
144.209
145.444
146.739
148.09
149.491
150.935
152.416
153.928
155.465
157.021
158.593
160.177
161.767
163.363
164.96
166.555
168.146
169.731
171.308
172.876
174.431
175.974
177.503
179.018
180.519
182.007
183.484
184.954
186.426
131.871
132.963
134.127
135.36
136.657
138.012
139.422
140.879
142.379
143.915
145.479
147.066
148.672
150.29
151.917
153.549
155.183
156.815
158.442
160.062
161.672
163.271
164.856
166.426
167.981
169.519
171.042
172.551
174.048
175.538
177.029
178.53
122.324
123.478
124.703
126
127.363
128.787
130.266
131.793
133.362
134.966
136.597
138.25
139.92
141.602
143.291
144.984
146.677
148.366
150.048
151.721
153.383
155.031
156.665
158.282
159.883
161.468
163.038
164.594
166.139
167.679
169.219
171.138
112.262
113.516
114.84
116.235
117.699
119.228
120.816
122.457
124.141
125.861
127.608
129.375
131.158
132.951
134.749
136.548
138.344
140.133
141.913
143.679
145.431
147.166
148.883
150.581
153.91
158.876
163.713
168.391
172.913
177.286
181.513
185.603
102.221
103.634
105.121
106.679
108.306
109.999
111.752
113.559
115.409
117.293
119.203
121.131
123.071
125.016
126.963
128.906
130.842
132.766
134.676
137.777
143.013
149.084
154.967
160.667
166.186
171.529
176.699
181.703
186.544
191.228
195.763
200.153
92.7064
94.3261
96.0167
97.7774
99.6066
101.501
103.455
105.461
107.511
109.592
111.697
113.815
115.941
118.068
120.191
122.304
126.094
132.426
139.493
146.355
153.013
159.471
165.732
171.8
177.678
183.37
188.883
194.22
199.387
204.391
209.238
213.936
83.9157
85.7703
87.6903
89.6767
91.7291
93.845
96.0199
98.2464
100.515
102.814
105.133
107.463
109.795
112.124
116.954
124.67
132.601
140.313
147.806
155.084
162.149
169.003
175.65
182.094
188.339
194.39
200.251
205.929
211.43
216.759
221.925
226.936
75.8955
78.0056
80.1723
82.3993
84.6883
87.0389
89.4477
91.9081
94.4104
96.9427
99.4932
102.051
106.07
113.285
122.132
130.751
139.141
147.301
155.233
162.939
170.42
177.681
184.724
191.554
198.176
204.593
210.813
216.84
222.681
228.343
233.835
239.165
68.6137
70.9973
73.4276
75.9101
78.4495
81.0475
83.7027
86.4098
89.1597
91.9401
94.738
99.5934
107.897
117.466
126.803
135.904
144.766
153.388
161.77
169.915
177.825
185.503
192.954
200.18
207.188
213.982
220.568
226.952
233.142
239.145
244.969
250.623
62.0051
64.6903
67.4075
70.1659
72.9735
75.8352
78.7521
81.7209
84.7334
87.7778
92.2029
100.293
110.596
120.674
130.515
140.111
149.458
158.555
167.401
175.999
184.35
192.459
200.328
207.962
215.367
222.548
229.511
236.263
242.811
249.163
255.327
261.313
56.0253
59.0529
62.0922
65.1547
68.2532
71.3973
74.5922
77.8374
81.1271
84.45
91.0359
101.454
112.276
122.875
133.233
143.339
153.187
162.774
172.1
181.165
189.973
198.526
206.829
214.886
222.702
230.283
237.635
244.766
251.684
258.395
264.909
271.235
54.1113
57.4983
60.8939
64.3079
67.7535
71.2411
74.775
78.3525
82.2079
90.0192
101.544
112.892
124.024
134.914
145.547
155.914
166.011
175.835
185.388
194.671
203.688
212.442
220.938
229.181
237.179
244.936
252.461
259.761
266.845
273.721
280.398
49.9528
53.6771
57.4118
61.1567
64.9187
68.7104
72.5409
76.4123
80.4382
88.508
100.531
112.407
124.083
135.523
146.704
157.613
168.242
178.588
188.651
198.432
207.934
217.161
226.118
234.81
243.243
251.424
259.36
267.06
274.532
281.784
288.826
46.6417
50.685
54.7413
58.8095
62.8894
66.9888
71.1188
75.2854
79.4869
86.8654
98.4004
110.802
123.033
135.04
146.792
158.267
169.454
180.349
190.949
201.255
211.269
220.995
230.438
239.602
248.493
257.12
265.489
273.608
281.487
289.133
296.555
44.1767
48.5316
52.8951
57.2686
61.653
66.0524
70.4764
74.9332
79.4248
85.1949
95.1656
108.078
120.866
133.457
145.802
157.871
169.647
181.121
192.289
203.151
213.708
223.963
233.919
243.583
252.96
262.057
270.883
279.444
287.75
295.809
303.63
56.5116
61.1852
65.8694
70.5731
75.3073
80.0772
84.8794
92.4158
104.256
117.592
130.775
143.735
156.427
168.824
180.912
192.684
204.137
215.271
226.088
236.592
246.787
256.68
266.276
275.585
284.613
293.371
301.865
310.106
56.4832
61.434
66.3895
71.3568
76.3493
81.379
86.4472
91.5445
100.19
113.241
127.014
140.605
153.947
166.998
179.737
192.15
204.233
215.983
227.402
238.49
249.253
259.696
269.824
279.646
289.17
298.405
307.36
316.044
57.1101
62.3259
67.5407
72.7599
77.9938
83.2603
88.5716
93.9237
99.3003
108.499
122.205
136.432
150.445
164.183
177.611
190.707
203.463
215.873
227.935
239.651
251.022
262.053
272.749
283.119
293.171
302.913
312.356
321.507
58.31
63.7781
69.238
74.6965
80.1612
85.6467
91.1755
96.7568
102.379
108.019
117.325
131.248
145.945
160.398
174.553
188.376
201.851
214.967
227.722
240.111
252.136
263.799
275.104
286.06
296.674
306.956
316.916
326.562
59.9954
65.7035
71.3944
77.0763
82.7578
88.4492
94.1752
99.9597
105.8
111.679
117.566
126.655
140.479
155.667
170.583
185.176
199.418
213.292
226.791
239.906
252.636
264.98
276.94
288.524
299.739
310.596
321.105
331.277
62.0694
68.0054
73.9139
79.8045
85.6875
91.5735
97.4814
103.442
109.471
115.559
121.682
127.807
136.483
150.023
165.726
181.128
196.185
210.871
225.169
239.068
252.56
265.64
278.308
290.567
302.426
313.896
324.99
335.718
64.4336
70.5856
76.6983
82.7834
88.8536
94.9227
101.005
107.123
113.309
119.576
125.906
132.267
138.623
146.812
160.006
176.249
192.165
207.715
222.871
237.616
251.934
265.814
279.247
292.236
304.787
316.912
328.627
339.946
66.9979
73.3553
79.6604
85.9264
92.1685
98.4032
104.648
110.92
117.247
123.66
130.166
136.736
143.334
149.922
157.657
170.553
187.366
203.829
219.901
235.557
250.77
265.521
279.79
293.569
306.865
319.692
332.069
344.014
69.6744
76.2296
82.7178
89.1536
95.5541
101.938
108.327
114.741
121.2
127.741
134.393
141.143
147.957
154.795
161.625
169.045
181.797
199.216
216.26
232.889
249.071
264.772
279.957
294.602
308.704
322.283
335.366
347.976
74.7696
79.1225
85.7861
92.3822
98.9295
105.449
111.965
118.502
125.082
131.739
138.51
145.409
152.411
159.477
166.57
173.661
181.02
193.895
211.959
229.62
246.838
263.564
279.747
295.348
310.342
324.739
338.578
351.895
83.1944
81.9526
88.7848
95.5331
102.217
108.861
115.49
122.134
128.822
135.584
142.455
149.471
156.629
163.897
171.234
178.606
185.993
193.645
207.006
225.757
244.073
261.891
279.147
295.787
311.77
327.08
341.744
355.819
92.2592
85.5965
91.6473
98.5435
105.358
112.117
118.849
125.585
132.363
139.215
146.179
153.29
160.572
168.011
175.567
183.204
190.895
198.63
207.006
221.293
240.773
259.752
278.153
295.909
312.968
329.293
344.88
359.782
100.713
92.2687
94.3145
101.357
108.302
115.172
122
128.82
135.672
142.596
149.634
156.826
164.206
171.784
179.53
187.408
195.389
203.462
211.648
221.25
236.922
257.135
276.759
295.713
313.931
331.363
347.979
363.803
108.406
100.759
96.7321
103.921
110.996
117.979
124.902
131.802
138.72
145.703
152.797
160.049
167.501
175.184
183.088
191.177
199.428
207.841
216.445
225.262
236.573
254.028
274.96
295.203
314.672
333.303
351.049
367.9
115.216
108.41
101.258
106.187
113.39
120.486
127.504
134.482
141.464
148.498
155.636
162.93
170.429
178.175
186.184
194.447
202.956
211.718
220.749
230.05
239.602
253.096
272.776
294.402
315.218
335.141
354.113
372.095
121.059
115.11
108.223
108.112
115.44
122.644
129.752
136.8
143.835
150.907
158.074
165.394
172.923
180.712
188.797
197.205
205.95
215.042
224.482
234.261
244.358
254.737
270.934
293.301
315.564
336.878
357.168
376.379
125.896
120.8
114.808
110.166
117.126
124.43
131.62
138.731
145.807
152.903
160.08
167.407
174.951
182.776
190.939
199.485
208.445
217.838
227.668
237.923
248.576
259.589
272.441
291.803
315.625
338.445
360.164
380.715
129.732
125.463
120.355
114.301
118.459
125.859
133.128
140.299
147.414
154.529
161.709
169.032
176.577
184.424
192.649
201.316
210.471
220.145
230.349
241.074
252.291
263.958
276.016
292.454
315.306
339.76
363.034
385.041
132.609
129.124
124.868
119.733
119.468
126.958
134.305
141.537
148.693
155.827
163.007
170.317
177.848
185.696
193.956
202.71
212.028
221.953
232.508
243.691
255.475
267.813
280.641
294.187
314.533
340.761
365.726
389.317
134.595
131.838
128.387
124.133
120.64
127.765
135.188
142.481
149.681
156.836
164.015
171.303
178.802
186.623
194.88
203.68
213.113
223.247
234.12
245.741
258.087
271.111
284.741
298.887
316.854
341.396
368.203
393.521
133.686
130.977
127.55
123.284
128.326
135.819
143.173
150.418
157.596
164.772
172.032
179.482
187.246
195.457
204.249
213.741
224.027
235.169
247.192
260.085
273.799
288.258
303.36
318.99
341.617
370.43
397.627
134.775
132.731
130.063
126.649
128.694
136.248
143.658
150.947
158.15
165.324
172.551
179.937
187.615
195.737
204.462
213.943
224.308
235.653
248.026
261.431
275.827
291.133
307.236
323.994
344.901
372.38
401.629
131.768
129.133
128.923
136.526
143.986
151.315
158.542
165.715
172.906
180.218
187.788
195.779
204.376
213.769
224.128
235.589
248.239
262.104
277.157
293.316
310.458
328.42
347.708
374.008
405.506
132.787
130.839
129.15
136.71
144.206
151.569
158.818
165.989
173.145
180.379
187.823
195.648
204.06
213.284
223.539
235.015
247.846
262.097
277.762
294.767
312.979
332.216
352.256
377.59
409.206
131.895
129.987
136.852
144.373
151.759
159.022
166.189
173.311
180.465
187.775
195.408
203.584
212.56
222.607
233.978
246.87
261.406
277.615
295.439
314.741
335.318
356.915
381.45
412.679
132.451
131.126
137.004
144.535
151.93
159.198
166.356
173.441
180.517
187.689
195.117
203.018
211.675
221.406
232.536
245.346
260.033
276.684
295.272
315.666
337.643
360.907
385.108
416.194
132.664
131.804
137.209
144.736
152.127
159.386
166.524
173.568
180.566
187.604
194.819
202.422
210.701
220.015
230.763
243.321
257.99
274.942
294.206
315.666
339.088
364.134
390.388
421.66
132.177
137.508
145.014
152.385
159.622
166.728
173.722
180.639
187.544
194.55
201.844
209.706
218.518
228.74
240.861
255.307
272.374
292.177
314.644
339.537
366.477
394.97
426.74
132.375
137.934
145.399
152.734
159.932
166.993
173.926
180.754
187.526
194.328
201.315
208.743
216.99
226.561
238.05
252.036
268.979
289.13
312.497
338.859
367.798
398.734
431.359
138.509
145.918
153.196
160.338
167.338
174.196
180.926
187.56
194.162
200.852
207.846
215.496
224.319
234.991
248.258
264.788
285.028
309.124
336.908
367.938
401.537
436.85
139.248
146.584
153.789
160.855
167.774
174.541
181.16
187.648
194.051
200.455
207.03
214.078
222.095
231.799
244.083
259.863
279.858
304.432
333.53
366.714
403.209
441.97
140.156
147.404
154.517
161.489
168.307
174.965
181.456
187.788
193.986
200.111
206.286
212.754
219.949
228.58
239.644
254.31
273.647
298.345
328.564
363.921
403.551
446.186
148.375
155.381
162.238
168.936
175.462
181.807
187.968
193.953
199.8
205.593
211.51
217.906
225.422
235.085
248.276
266.471
290.825
321.852
359.328
402.333
449.332
149.491
156.371
163.094
169.65
176.023
182.2
188.169
193.928
199.492
204.913
210.312
215.954
222.373
230.536
241.945
258.477
281.89
313.261
352.691
399.281
451.211
150.739
157.473
164.043
170.433
176.629
182.614
188.37
193.884
199.153
204.202
209.107
214.05
219.434
226.091
235.508
249.873
271.639
302.699
343.749
394.078
451.589
158.67
165.063
171.265
177.258
183.023
188.538
193.784
198.743
203.413
207.834
212.12
216.552
221.777
229.127
240.917
260.265
290.148
332.251
386.355
450.179
159.942
166.135
172.121
177.881
183.396
188.64
193.587
198.211
202.49
206.428
210.084
213.638
217.549
222.891
231.864
248.059
275.702
317.981
375.695
446.632
161.266
167.232
172.973
178.47
183.699
188.635
193.247
197.501
201.365
204.813
207.856
210.588
213.307
216.796
222.922
235.386
259.604
300.814
361.638
440.518
162.615
168.325
173.79
178.989
183.896
188.482
192.716
196.558
199.966
202.9
205.332
207.285
208.918
210.745
214.181
222.614
242.255
280.771
343.719
431.295
163.948
169.375
174.532
179.395
183.938
188.131
191.938
195.319
198.225
200.602
202.399
203.584
204.208
204.556
205.581
210.021
224.183
258.098
321.522
418.288
165.198
170.311
175.124
179.614
183.75
187.502
190.831
193.695
196.044
197.816
198.941
199.348
199.002
198.014
196.945
197.732
205.973
233.316
294.775
400.65
166.231
170.992
175.423
179.497
183.18
186.438
189.231
191.517
193.244
194.35
194.758
194.379
193.12
190.953
188.115
185.777
188.235
207.327
263.559
377.349
166.75
171.105
175.099
178.7
181.869
184.571
186.765
188.408
189.45
189.832
189.48
188.308
186.21
183.085
178.93
174.245
171.76
181.795
228.861
347.317
166.016
169.86
173.304
176.314
178.859
180.905
182.414
183.345
183.655
183.292
182.195
180.293
177.502
173.707
169.249
165.614
159.22
158.499
192.407
309.945
161.705
164.712
167.277
169.388
171.026
172.173
172.812
172.926
172.503
171.513
169.923
167.696
165.836
164.696
163.645
163.81
159.369
148.119
154.461
265.986
143.545
144.558
145.112
145.241
144.982
144.387
143.517
142.438
141.219
139.9
139.577
139.554
140.979
144.408
148.96
154.454
160.248
156.502
136.699
221.68
64.4182
62.5139
60.5982
58.749
57.0469
55.5778
54.4356
53.7251
53.5691
54.1174
56.6336
60.619
66.5218
75.014
87.0536
103.606
126.843
154.511
164.899
169.457
1826.84
1816.54
1806.32
1796.16
1786.05
1776
1766
1756.03
1746.1
1736.21
1726.33
1716.46
1706.59
1696.72
1686.83
1676.91
1666.95
1656.94
1646.86
1636.69
1626.42
1616.03
1605.5
1594.8
1583.92
1572.83
1561.5
1549.89
1537.98
1525.72
1513.06
1499.98
1486.4
1472.29
1457.7
1442.86
1427.67
1411.91
1395.55
1378.54
1360.85
1342.46
1323.32
1303.4
1282.65
1261.03
1238.46
1214.78
1189.75
1162.88
1133.15
1098.21
1051.83
969.667
734.645
1774.8
1764.81
1754.89
1745.02
1735.21
1725.46
1715.74
1706.07
1696.42
1686.81
1677.21
1667.62
1658.03
1648.44
1638.82
1629.18
1619.49
1609.75
1599.94
1590.05
1580.06
1569.94
1559.69
1549.29
1538.69
1527.9
1516.86
1505.56
1493.96
1482.03
1469.72
1456.99
1443.79
1430.12
1416.26
1402.2
1387.64
1372.55
1356.91
1340.67
1323.8
1306.28
1288.07
1269.13
1249.41
1228.86
1207.35
1184.72
1160.63
1134.44
1104.82
1068.59
1017.1
920.177
665.889
1724.26
1714.57
1704.93
1695.36
1685.83
1676.36
1666.93
1657.53
1648.16
1638.82
1629.5
1620.18
1610.86
1601.54
1592.19
1582.81
1573.39
1563.92
1554.38
1544.75
1535.03
1525.19
1515.21
1505.08
1494.77
1484.26
1473.52
1462.53
1451.24
1439.63
1427.65
1415.28
1402.45
1389.4
1376.26
1362.76
1348.8
1334.35
1319.38
1303.85
1287.75
1271.02
1253.63
1235.55
1216.7
1196.99
1176.27
1154.3
1130.62
1104.38
1073.79
1034.75
976.514
867.001
617.319
1675.16
1665.76
1656.41
1647.11
1637.87
1628.67
1619.51
1610.38
1601.29
1592.21
1583.15
1574.1
1565.05
1555.98
1546.89
1537.78
1528.62
1519.4
1510.12
1500.76
1491.3
1481.72
1472.02
1462.16
1452.12
1441.89
1431.44
1420.74
1409.76
1398.46
1386.82
1374.78
1362.43
1350.01
1337.46
1324.5
1311.12
1297.27
1282.94
1268.08
1252.68
1236.68
1220.05
1202.73
1184.63
1165.65
1145.58
1124.1
1100.62
1074.07
1042.2
1000.01
935.163
816.927
586.005
1627.47
1618.34
1609.27
1600.25
1591.27
1582.34
1573.45
1564.59
1555.75
1546.94
1538.14
1529.34
1520.54
1511.73
1502.9
1494.03
1485.13
1476.17
1467.14
1458.03
1448.82
1439.51
1430.06
1420.47
1410.7
1400.75
1390.58
1380.17
1369.48
1358.5
1347.17
1335.48
1323.68
1311.9
1299.84
1287.4
1274.57
1261.3
1247.57
1233.35
1218.6
1203.28
1187.35
1170.72
1153.31
1134.96
1115.44
1094.32
1070.89
1043.8
1010.37
964.781
894.134
772.32
567.396
1581.15
1572.29
1563.48
1554.72
1546.01
1537.34
1528.71
1520.1
1511.52
1502.96
1494.41
1485.86
1477.31
1468.75
1460.16
1451.54
1442.88
1434.17
1425.39
1416.53
1407.57
1398.51
1389.32
1379.98
1370.48
1360.79
1350.9
1340.77
1330.38
1319.69
1308.69
1297.42
1286.19
1274.94
1263.36
1251.42
1239.11
1226.39
1213.24
1199.62
1185.49
1170.82
1155.53
1139.55
1122.76
1104.96
1085.87
1064.97
1041.4
1013.53
978.247
929.236
854.292
734.023
556.429
1536.15
1527.55
1519
1510.5
1502.05
1493.63
1485.24
1476.89
1468.55
1460.24
1451.93
1443.63
1435.32
1426.99
1418.65
1410.27
1401.85
1393.37
1384.83
1376.22
1367.51
1358.69
1349.75
1340.66
1331.42
1321.99
1312.37
1302.51
1292.41
1282.02
1271.32
1260.56
1249.91
1239.1
1227.98
1216.53
1204.72
1192.53
1179.93
1166.88
1153.34
1139.27
1124.58
1109.18
1092.93
1075.59
1056.8
1035.96
1012.02
983.13
945.818
893.735
816.508
701.729
549.254
1492.43
1484.09
1475.79
1467.54
1459.34
1451.16
1443.02
1434.91
1426.82
1418.74
1410.67
1402.6
1394.53
1386.44
1378.32
1370.18
1361.99
1353.75
1345.45
1337.06
1328.59
1320.01
1311.31
1302.48
1293.48
1284.32
1274.95
1265.37
1255.54
1245.44
1235.08
1224.84
1214.73
1204.34
1193.67
1182.68
1171.36
1159.68
1147.6
1135.09
1122.1
1108.58
1094.43
1079.55
1063.74
1046.74
1028.11
1007.14
982.63
952.513
913.173
858.767
781.415
674.822
543.942
1449.97
1441.87
1433.82
1425.82
1417.85
1409.92
1402.01
1394.13
1386.27
1378.43
1370.59
1362.75
1354.9
1347.04
1339.16
1331.24
1323.28
1315.27
1307.19
1299.04
1290.8
1282.45
1273.99
1265.39
1256.64
1247.73
1238.62
1229.3
1219.74
1209.92
1200.04
1190.33
1180.61
1170.64
1160.39
1149.85
1138.99
1127.79
1116.2
1104.2
1091.71
1078.69
1065.01
1050.55
1035.08
1018.29
999.657
978.378
953.12
921.681
880.558
824.865
749.297
651.673
538.778
1408.72
1400.86
1393.05
1385.28
1377.55
1369.85
1362.17
1354.52
1346.89
1339.27
1331.66
1324.04
1316.42
1308.78
1301.11
1293.41
1285.68
1277.89
1270.03
1262.1
1254.09
1245.97
1237.74
1229.38
1220.87
1212.2
1203.34
1194.27
1184.98
1175.44
1166.03
1156.86
1147.52
1137.94
1128.1
1117.99
1107.57
1096.81
1085.68
1074.13
1062.1
1049.5
1036.22
1022.08
1006.84
990.119
971.337
949.597
923.474
890.76
848.327
792.477
720.359
631.697
533.372
1368.65
1361.02
1353.44
1345.9
1338.4
1330.92
1323.47
1316.04
1308.63
1301.23
1293.83
1286.44
1279.03
1271.6
1264.16
1256.67
1249.15
1241.58
1233.94
1226.23
1218.43
1210.54
1202.54
1194.4
1186.13
1177.69
1169.08
1160.27
1151.23
1142.08
1133.15
1124.38
1115.4
1106.2
1096.75
1087.04
1077.02
1066.68
1055.96
1044.82
1033.18
1020.94
1007.97
994.058
978.927
962.149
943.088
920.778
893.762
859.971
816.852
761.871
694.977
614.89
527.645
1329.72
1322.32
1314.97
1307.65
1300.37
1293.11
1285.88
1278.67
1271.47
1264.28
1257.1
1249.91
1242.71
1235.5
1228.26
1220.99
1213.67
1206.31
1198.88
1191.39
1183.81
1176.13
1168.35
1160.44
1152.39
1144.19
1135.82
1127.25
1118.47
1109.74
1101.29
1092.86
1084.22
1075.38
1066.3
1056.95
1047.31
1037.34
1026.99
1016.2
1004.89
992.932
980.176
966.395
951.267
934.325
914.888
891.955
864.116
829.58
786.434
733.245
671.788
599.582
521.578
1291.91
1284.73
1277.59
1270.49
1263.42
1256.38
1249.36
1242.36
1235.37
1228.39
1221.41
1214.42
1207.43
1200.42
1193.39
1186.32
1179.21
1172.05
1164.84
1157.55
1150.18
1142.71
1135.14
1127.46
1119.63
1111.66
1103.52
1095.2
1086.67
1078.36
1070.36
1062.24
1053.94
1045.43
1036.68
1027.67
1018.37
1008.73
998.702
988.206
977.149
965.4
952.779
939.036
923.819
906.63
886.757
863.211
834.714
799.836
757.263
708.139
652.175
585.495
515.178
1255.17
1248.21
1241.29
1234.39
1227.53
1220.7
1213.88
1207.08
1200.3
1193.52
1186.74
1179.96
1173.16
1166.35
1159.52
1152.65
1145.74
1138.78
1131.77
1124.68
1117.52
1110.26
1102.9
1095.43
1087.82
1080.08
1072.17
1064.08
1055.88
1047.97
1040.32
1032.5
1024.5
1016.29
1007.85
999.15
990.147
980.794
971.029
960.768
949.904
938.291
925.728
911.945
896.567
879.072
858.746
834.663
805.746
770.941
730.376
685.489
633.95
572.409
508.467
1219.49
1212.73
1206.01
1199.33
1192.67
1186.03
1179.42
1172.82
1166.23
1159.64
1153.06
1146.47
1139.87
1133.26
1126.62
1119.94
1113.23
1106.47
1099.65
1092.76
1085.8
1078.74
1071.59
1064.33
1056.94
1049.41
1041.73
1033.88
1026.03
1018.5
1011.12
1003.58
995.859
987.929
979.766
971.332
962.587
953.473
943.921
933.839
923.106
911.562
898.991
885.106
869.513
851.684
830.934
806.448
777.387
743.148
706.16
665.472
616.953
560.148
501.473
1184.82
1178.27
1171.75
1165.26
1158.8
1152.36
1145.93
1139.53
1133.13
1126.74
1120.34
1113.95
1107.54
1101.11
1094.66
1088.17
1081.65
1075.08
1068.45
1061.76
1054.99
1048.14
1041.19
1034.13
1026.96
1019.65
1012.19
1004.56
997.044
989.854
982.73
975.443
967.973
960.293
952.372
944.17
935.641
926.721
917.333
907.375
896.717
885.185
872.552
858.515
842.676
824.516
803.414
778.704
749.776
718.726
685.457
646.592
601.039
548.577
494.226
1151.14
1144.78
1138.46
1132.16
1125.89
1119.64
1113.41
1107.19
1100.98
1094.77
1088.56
1082.35
1076.13
1069.88
1063.61
1057.32
1050.98
1044.59
1038.16
1031.65
1025.08
1018.42
1011.67
1004.82
997.85
990.752
983.511
976.115
968.886
961.99
955.098
948.042
940.798
933.338
925.627
917.621
909.266
900.496
891.226
881.345
870.712
859.145
846.406
832.186
816.09
797.636
776.293
751.553
725.19
697.479
665.74
628.766
586.073
537.586
486.759
1118.42
1112.25
1106.12
1100.01
1093.92
1087.86
1081.81
1075.77
1069.74
1063.72
1057.69
1051.66
1045.61
1039.55
1033.46
1027.34
1021.19
1014.99
1008.73
1002.42
996.032
989.567
983.013
976.359
969.593
962.705
955.681
948.508
941.526
934.87
928.189
921.339
914.295
907.025
899.49
891.643
883.427
874.767
865.571
855.722
845.073
833.433
820.557
806.139
789.8
771.118
749.669
727.159
703.865
677.45
646.97
611.905
571.943
527.09
479.102
1086.63
1080.65
1074.7
1068.77
1062.87
1056.98
1051.11
1045.25
1039.4
1033.55
1027.7
1021.84
1015.97
1010.08
1004.17
998.232
992.253
986.231
980.158
974.026
967.826
961.55
955.188
948.73
942.166
935.484
928.672
921.719
914.934
908.459
901.966
895.297
888.426
881.316
873.926
866.205
858.09
849.503
840.344
830.492
819.793
808.05
795.02
780.404
763.861
745.079
725.84
706.151
683.789
658.262
629.099
595.925
558.547
517.018
471.665
1055.75
1049.95
1044.18
1038.43
1032.7
1026.99
1021.29
1015.6
1009.92
1004.25
998.567
992.88
987.181
981.464
975.725
969.956
964.152
958.305
952.409
946.456
940.438
934.347
928.174
921.91
915.543
909.065
902.463
895.726
889.081
882.719
876.392
869.881
863.155
856.177
848.903
841.276
833.23
824.682
815.529
805.644
794.867
783.003
769.813
755.019
738.879
722.487
705.375
686.166
664.47
639.891
612.072
580.748
545.804
507.316
465.565
1025.75
1020.12
1014.52
1008.94
1003.39
997.845
992.317
986.799
981.287
975.777
970.265
964.745
959.213
953.664
948.093
942.493
936.859
931.184
925.462
919.685
913.846
907.937
901.95
895.875
889.704
883.425
877.03
870.505
863.939
857.619
851.435
845.058
838.453
831.581
824.393
816.832
808.826
800.289
791.114
781.171
770.299
758.304
744.961
731.18
717.305
702.265
685.557
666.875
645.895
622.306
595.836
566.302
533.641
497.94
459.439
996.6
991.142
985.71
980.299
974.908
969.532
964.169
958.816
953.467
948.12
942.771
937.414
932.046
926.66
921.254
915.819
910.352
904.846
899.294
893.69
888.027
882.297
876.492
870.605
864.625
858.543
852.35
846.034
839.585
833.234
827.066
820.798
814.29
807.499
800.373
792.851
784.86
776.31
767.091
757.071
746.092
734.549
722.906
710.688
697.344
682.658
666.387
648.272
628.049
605.472
580.339
552.524
522
488.857
453.297
968.278
962.985
957.717
952.469
947.24
942.025
936.823
931.629
926.44
921.252
916.062
910.864
905.655
900.43
895.185
889.913
884.609
879.268
873.884
868.45
862.959
857.405
851.78
846.076
840.285
834.397
828.402
822.292
816.053
809.674
803.336
797.076
790.643
783.909
776.821
769.317
761.318
752.735
743.455
733.876
724.186
713.945
702.934
691.002
677.977
663.667
647.863
630.348
610.908
589.35
565.528
539.355
510.83
480.036
447.148
940.761
935.628
930.519
925.43
920.358
915.3
910.254
905.215
900.182
895.15
890.114
885.073
880.02
874.952
869.864
864.751
859.608
854.429
849.209
843.942
838.621
833.24
827.792
822.268
816.662
810.964
805.165
799.255
793.224
787.058
780.745
774.269
767.612
760.796
753.72
746.342
738.708
730.749
722.402
713.6
704.26
694.279
683.538
671.897
659.204
645.291
629.98
613.089
594.446
573.904
551.355
526.745
500.085
471.455
441.002
914.024
909.047
904.092
899.157
894.239
889.334
884.439
879.553
874.671
869.791
864.907
860.018
855.118
850.203
845.27
840.312
835.327
830.307
825.249
820.146
814.992
809.78
804.506
799.16
793.735
788.224
782.616
776.903
771.074
765.117
759.018
752.761
746.33
739.703
732.856
725.758
718.374
710.659
702.557
694.001
684.909
675.182
664.711
653.371
641.025
627.528
612.728
596.476
578.636
559.095
537.775
514.644
489.725
463.091
434.866
888.044
883.218
878.414
873.629
868.86
864.104
859.358
854.62
849.886
845.153
840.419
835.678
830.927
826.163
821.381