/*--------------------------------*- C++ -*----------------------------------*\
  =========                 |
  \\      /  F ield         | OpenFOAM: The Open Source CFD Toolbox
   \\    /   O peration     | Website:  https://openfoam.org
    \\  /    A nd           | Version:  10
     \\/     M anipulation  |
\*---------------------------------------------------------------------------*/
FoamFile
{
    format      ascii;
    class       volScalarField;
    location    "28000";
    object      k;
}
// * * * * * * * * * * * * * * * * * * * * * * * * * * * * * * * * * * * * * //

dimensions      [0 2 -2 0 0 0 0];

internalField   nonuniform List<scalar> 
17981
(
0.0296594
0.0304894
0.0313751
0.0323119
0.0332942
0.0343161
0.0353711
0.0364526
0.0375541
0.0386691
0.0397917
0.040916
0.042037
0.04315
0.0442509
0.045336
0.0464024
0.0474475
0.0484694
0.0494662
0.050437
0.0513809
0.0522973
0.0531862
0.0540477
0.0548822
0.0556903
0.0564728
0.0572288
0.0579578
0.0586602
0.0593368
0.0599885
0.060616
0.0612201
0.0618017
0.0623616
0.0629006
0.0634196
0.0639193
0.0644007
0.0648644
0.0653112
0.0657418
0.0661571
0.0665576
0.066944
0.067317
0.028986
0.0298313
0.0307372
0.031699
0.0327111
0.0337672
0.0348603
0.0359836
0.0371297
0.0382918
0.0394631
0.0406375
0.0418093
0.0429732
0.0441248
0.04526
0.0463755
0.0474685
0.0485368
0.0495784
0.0505921
0.0515768
0.0525321
0.0534578
0.0543537
0.0552205
0.0560586
0.0568689
0.0576516
0.0584059
0.0591319
0.0598304
0.0605024
0.0611487
0.0617701
0.0623676
0.0629422
0.0634946
0.0640258
0.0645368
0.0650283
0.0655012
0.0659563
0.0663945
0.0668165
0.067223
0.0676148
0.0679926
0.028351
0.0292136
0.0301416
0.0311305
0.0321744
0.0332666
0.0343998
0.0355666
0.0367591
0.0379699
0.0391916
0.0404174
0.0416411
0.042857
0.0440601
0.0452461
0.0464113
0.0475525
0.0486673
0.0497537
0.0508101
0.0518357
0.0528295
0.0537915
0.0547215
0.05562
0.0564876
0.057325
0.0581332
0.0589116
0.05966
0.0603792
0.0610702
0.0617339
0.0623713
0.0629833
0.0635711
0.0641355
0.0646775
0.0651982
0.0656984
0.066179
0.066641
0.0670853
0.0675126
0.0679237
0.0683195
0.0687007
0.0316865
0.0328173
0.0339929
0.0352054
0.0364463
0.0377075
0.0389811
0.0402597
0.0415364
0.0428052
0.0440605
0.0452977
0.0465127
0.0477022
0.0488634
0.0499942
0.051093
0.0521586
0.0531903
0.0541878
0.055151
0.0560803
0.0569763
0.0578399
0.0586722
0.0594732
0.0602424
0.0609807
0.0616891
0.0623686
0.0630203
0.0636452
0.0642445
0.0648192
0.0653704
0.0658991
0.0664063
0.0668931
0.0673604
0.0678091
0.0682402
0.0686544
0.0690527
0.0694357
0.0312498
0.0324218
0.0336424
0.0349029
0.0361943
0.0375078
0.0388349
0.0401675
0.0414984
0.0428208
0.0441288
0.0454174
0.0466822
0.0479196
0.0491267
0.0503013
0.0514415
0.0525462
0.0536146
0.0546463
0.0556414
0.0566002
0.0575233
0.0584116
0.0592663
0.0600879
0.0608762
0.0616317
0.0623556
0.0630491
0.0637132
0.0643491
0.064958
0.0655411
0.0660996
0.0666345
0.0671469
0.067638
0.0681088
0.0685601
0.0689931
0.0694087
0.0698077
0.070191
0.0308649
0.0320812
0.0333496
0.0346607
0.0360049
0.0373727
0.0387549
0.0401429
0.0415287
0.0429052
0.0442662
0.0456061
0.0469203
0.0482051
0.0494573
0.0506745
0.0518549
0.0529973
0.0541008
0.0551652
0.0561904
0.0571768
0.0581252
0.0590364
0.0599119
0.0607522
0.0615576
0.0623283
0.0630657
0.063771
0.0644454
0.0650902
0.0657067
0.0662962
0.0668598
0.0673988
0.0679145
0.0684079
0.0688801
0.0693323
0.0697654
0.0701805
0.0705785
0.0709604
0.0317967
0.033116
0.0344804
0.0358797
0.0373037
0.0387425
0.0401869
0.0416283
0.0430593
0.044473
0.0458638
0.0472267
0.0485578
0.0498537
0.0511121
0.052331
0.0535093
0.054646
0.055741
0.0567943
0.0578064
0.058778
0.0597104
0.0606048
0.0614621
0.0622822
0.063066
0.0638145
0.0645294
0.0652118
0.0658632
0.066485
0.0670785
0.0676451
0.0681861
0.0687026
0.0691961
0.0696677
0.0701185
0.0705496
0.0709622
0.0713571
0.0717355
0.0343627
0.0358193
0.037301
0.0387975
0.0402989
0.0417962
0.0432813
0.0447473
0.046188
0.0475984
0.0489743
0.0503124
0.0516101
0.0528655
0.0540774
0.0552451
0.0563684
0.0574474
0.0584827
0.0594752
0.0604262
0.0613372
0.0622089
0.0630412
0.0638353
0.0645925
0.0653143
0.0660022
0.0666577
0.0672822
0.0678773
0.0684444
0.0689848
0.0695
0.0699913
0.0704599
0.0709071
0.071334
0.0717419
0.0721317
0.0725044
0.0358221
0.0373625
0.0389172
0.0404756
0.0420283
0.0435668
0.0450839
0.0465731
0.0480292
0.049448
0.050826
0.0521607
0.0534502
0.0546932
0.0558892
0.057038
0.0581399
0.0591956
0.0602062
0.061173
0.0620979
0.0629811
0.0638228
0.0646243
0.0653873
0.0661133
0.0668039
0.0674607
0.0680854
0.0686795
0.0692445
0.0697819
0.0702933
0.0707799
0.0712433
0.0716846
0.0721051
0.072506
0.0728886
0.0732537
0.0390951
0.04071
0.0423171
0.0439077
0.0454742
0.04701
0.0485097
0.0499689
0.0513843
0.0527532
0.0540739
0.0553451
0.0565664
0.0577378
0.0588595
0.0599326
0.0609583
0.061938
0.0628735
0.0637651
0.0646131
0.0654192
0.066185
0.0669123
0.0676028
0.0682582
0.0688803
0.0694707
0.0700311
0.070563
0.0710681
0.0715478
0.0720035
0.0724367
0.0728487
0.0732407
0.0736139
0.0739694
0.0459069
0.0474871
0.0490279
0.0505249
0.0519747
0.0533748
0.0547235
0.0560197
0.057263
0.0584535
0.0595919
0.0606792
0.0617167
0.0627062
0.0636492
0.0645459
0.0653971
0.0662046
0.0669703
0.067696
0.0683836
0.0690349
0.0696517
0.0702358
0.0707891
0.0713131
0.0718095
0.07228
0.072726
0.073149
0.0735503
0.0739314
0.0742934
0.0746375
0.0463716
0.0479928
0.0495713
0.0511025
0.0525833
0.054011
0.0553841
0.0567017
0.0579635
0.0591698
0.0603213
0.0614193
0.0624654
0.0634615
0.0644087
0.0653073
0.0661586
0.0669646
0.0677272
0.0684484
0.0691302
0.0697746
0.0703836
0.070959
0.0715027
0.0720165
0.0725021
0.0729612
0.0733954
0.0738062
0.0741951
0.0745634
0.0749126
0.0752437
0.046852
0.0485109
0.0501235
0.0516854
0.0531933
0.054645
0.0560389
0.0573743
0.058651
0.0598694
0.0610306
0.0621359
0.0631872
0.0641867
0.0651349
0.0660322
0.0668805
0.067682
0.0684387
0.0691528
0.0698264
0.0704615
0.0710603
0.0716247
0.0721568
0.0726583
0.0731311
0.073577
0.0739976
0.0743945
0.0747693
0.0751234
0.0754582
0.0757748
0.0473312
0.0490239
0.0506667
0.0522553
0.0537867
0.0552585
0.0566694
0.0580188
0.0593068
0.060534
0.0617016
0.0628112
0.0638649
0.0648645
0.0658104
0.0667036
0.0675462
0.0683405
0.0690887
0.0697932
0.0704561
0.0710796
0.071666
0.0722174
0.0727357
0.0732231
0.0736813
0.0741123
0.0745178
0.0748994
0.0752587
0.0755972
0.0759163
0.0762175
0.0495112
0.0511804
0.0527921
0.054343
0.0558313
0.0572557
0.0586157
0.0599116
0.0611444
0.0623153
0.0634263
0.0644797
0.0654765
0.0664173
0.0673036
0.068138
0.0689227
0.0696601
0.0703527
0.0710028
0.0716128
0.0721849
0.0727214
0.0732245
0.0736962
0.0741384
0.0745532
0.0749423
0.0753075
0.0756503
0.0759723
0.0762751
0.0765599
0.0499524
0.0516438
0.0532745
0.0548414
0.0563426
0.0577771
0.0591446
0.0604456
0.0616811
0.0628527
0.0639626
0.065013
0.0660045
0.0669378
0.0678151
0.0686391
0.0694122
0.070137
0.0708159
0.0714516
0.0720465
0.072603
0.0731233
0.0736099
0.0740648
0.0744901
0.0748878
0.0752597
0.0756078
0.0759335
0.0762386
0.0765246
0.0767928
0.0503234
0.0520331
0.0536791
0.0552587
0.0567699
0.0582118
0.0595842
0.0608879
0.062124
0.0632944
0.0644014
0.0654468
0.0664308
0.067355
0.0682218
0.069034
0.0697942
0.070505
0.0711692
0.0717895
0.0723683
0.0729082
0.0734117
0.0738811
0.0743187
0.0747266
0.0751068
0.0754614
0.0757921
0.0761007
0.0763889
0.0766581
0.0769099
0.0523226
0.0539808
0.0555703
0.0570891
0.0585365
0.0599124
0.0612174
0.062453
0.0636211
0.0647245
0.0657639
0.0667397
0.067654
0.0685096
0.0693094
0.0700561
0.0707526
0.0714016
0.072006
0.0725685
0.0730917
0.0735782
0.0740304
0.0744506
0.0748412
0.0752041
0.0755415
0.0758552
0.0761471
0.0764188
0.0766718
0.0769078
0.0524886
0.0541553
0.055752
0.0572767
0.0587286
0.0601075
0.0614139
0.0626492
0.0638156
0.0649155
0.0659491
0.066917
0.067822
0.0686669
0.0694546
0.0701882
0.0708706
0.0715048
0.0720938
0.0726403
0.0731472
0.0736171
0.0740525
0.074456
0.0748297
0.075176
0.0754969
0.0757944
0.0760702
0.0763262
0.0765642
0.0767861
0.0525037
0.0541724
0.0557712
0.0573002
0.0587575
0.060142
0.0614532
0.062692
0.0638599
0.0649586
0.0659883
0.0669501
0.067847
0.0686822
0.0694589
0.0701802
0.0708494
0.0714697
0.072044
0.0725754
0.0730668
0.0735211
0.0739408
0.0743285
0.0746868
0.0750178
0.0753239
0.0756071
0.0758693
0.0761125
0.0763382
0.0765483
0.05235
0.0540253
0.0556313
0.0571659
0.0586279
0.0600162
0.0613306
0.0625715
0.0637404
0.0648383
0.065865
0.0668218
0.0677122
0.0685393
0.0693067
0.0700177
0.0706758
0.0712842
0.0718461
0.0723648
0.0728433
0.0732844
0.0736909
0.0740655
0.0744107
0.074729
0.0750224
0.0752933
0.0755435
0.0757749
0.0759893
0.0761882
0.0520492
0.0537229
0.0553298
0.0568668
0.0583317
0.059723
0.06104
0.0622828
0.0634529
0.0645505
0.0655752
0.0665287
0.0674142
0.0682353
0.0689955
0.0696985
0.0703478
0.0709468
0.0714989
0.0720075
0.0724755
0.0729061
0.073302
0.0736661
0.0740009
0.0743088
0.074592
0.0748529
0.0750932
0.0753149
0.0755197
0.0757091
0.0515899
0.0532564
0.0548592
0.056395
0.0578607
0.0592541
0.060574
0.0618198
0.0629925
0.064092
0.0651175
0.0660704
0.0669543
0.0677725
0.0685289
0.0692271
0.0698709
0.0704638
0.0710094
0.0715109
0.0719717
0.0723948
0.072783
0.0731394
0.0734663
0.0737665
0.0740421
0.0742954
0.0745283
0.0747426
0.0749399
0.0751218
0.0509682
0.052624
0.0542199
0.0557524
0.0572181
0.058614
0.059938
0.0611887
0.0623664
0.0634707
0.0645006
0.0654568
0.0663427
0.0671618
0.0679181
0.0686152
0.0692572
0.0698475
0.0703897
0.0708874
0.071344
0.0717627
0.0721464
0.0724981
0.0728204
0.0731158
0.0733866
0.0736351
0.073863
0.0740724
0.0742646
0.0744412
0.0501931
0.0518352
0.0534218
0.0549495
0.0564143
0.0578129
0.059142
0.0603995
0.0615846
0.0626971
0.063735
0.0646983
0.0655902
0.0664142
0.0671742
0.0678739
0.0685172
0.0691082
0.0696506
0.0701481
0.070604
0.0710217
0.0714043
0.0717545
0.0720753
0.0723689
0.0726379
0.0728843
0.0731101
0.0733171
0.0735067
0.0736803
0.0492783
0.0509031
0.0524772
0.0539975
0.05546
0.0568606
0.0581954
0.0594611
0.0606557
0.0617792
0.0628287
0.063803
0.0647049
0.0655375
0.0663047
0.0670105
0.0676593
0.0682549
0.0688014
0.0693023
0.0697613
0.0701816
0.0705665
0.0709188
0.0712412
0.0715364
0.0718066
0.072054
0.0722804
0.0724878
0.0726774
0.0728507
0.04824
0.0498421
0.0513988
0.0529077
0.0543649
0.0557659
0.0571059
0.0583806
0.0595867
0.0607228
0.0617868
0.0627762
0.0636919
0.0645371
0.0653157
0.0660322
0.0666906
0.0672951
0.0678496
0.0683581
0.0688241
0.0692509
0.0696419
0.0699998
0.0703275
0.0706276
0.0709023
0.0711538
0.071384
0.0715947
0.0717873
0.071963
0.0470904
0.0486639
0.0501975
0.0516896
0.0531372
0.0545354
0.055879
0.0571625
0.0583813
0.0595323
0.0606138
0.0616221
0.0625558
0.0634181
0.064213
0.0649447
0.0656174
0.0662353
0.0668025
0.0673229
0.0678001
0.0682376
0.0686386
0.0690061
0.0693428
0.0696514
0.0699342
0.0701933
0.0704305
0.0706477
0.0708462
0.0710274
0.0458449
0.0473811
0.0488839
0.0503528
0.051785
0.0531763
0.0545208
0.0558121
0.0570441
0.0582121
0.0593136
0.0603441
0.0613007
0.0621855
0.0630018
0.0637539
0.064446
0.0650824
0.065667
0.066204
0.0666971
0.0671496
0.067565
0.0679462
0.068296
0.068617
0.0689116
0.0691817
0.0694295
0.0696564
0.0698641
0.0700537
0.0460122
0.0474754
0.0489117
0.0503209
0.0516991
0.0530402
0.0543369
0.0555818
0.0567682
0.0578914
0.0589473
0.0599321
0.0608447
0.0616881
0.0624662
0.0631832
0.0638433
0.0644506
0.0650093
0.065523
0.0659953
0.0664296
0.0668288
0.0671959
0.0675333
0.0678434
0.0681284
0.0683901
0.0686303
0.0688504
0.0690516
0.0445579
0.0459878
0.0473866
0.0487635
0.0501198
0.0514506
0.0527482
0.0540037
0.0552086
0.0563557
0.0574396
0.0584563
0.0594023
0.0602786
0.0610886
0.0618362
0.0625256
0.0631611
0.0637466
0.0642861
0.064783
0.0652408
0.0656626
0.0660511
0.066409
0.0667386
0.0670421
0.0673214
0.0675781
0.0678138
0.0680297
0.0430115
0.0444162
0.045788
0.0471322
0.0484585
0.04977
0.0510613
0.0523228
0.0535441
0.0547157
0.0558292
0.0568808
0.0578654
0.0587803
0.059628
0.0604122
0.0611368
0.0618059
0.0624238
0.0629941
0.0635207
0.0640068
0.0644555
0.0648698
0.0652523
0.0656053
0.065931
0.0662313
0.0665079
0.0667624
0.066996
0.0413852
0.0427617
0.0441115
0.0454337
0.0467325
0.0480181
0.0492944
0.0505547
0.051788
0.0529824
0.0541272
0.0552146
0.0562402
0.0571994
0.058091
0.0589177
0.0596834
0.060392
0.0610477
0.0616543
0.0622154
0.0627346
0.0632149
0.0636593
0.0640704
0.0644506
0.0648021
0.0651269
0.0654267
0.065703
0.0659572
0.0436661
0.0449478
0.0462111
0.0474665
0.0487172
0.0499553
0.0511682
0.0523429
0.0534678
0.054536
0.0555427
0.0564837
0.057359
0.0581716
0.0589255
0.0596246
0.0602727
0.0608736
0.0614306
0.0619471
0.0624258
0.0628695
0.0632807
0.0636616
0.0640142
0.0643403
0.0646414
0.064919
0.0418387
0.0431059
0.0443559
0.0455932
0.0468284
0.0480631
0.0492875
0.0504875
0.0516494
0.0527613
0.053817
0.0548115
0.0557409
0.0566065
0.0574114
0.0581595
0.0588545
0.0595002
0.0601
0.0606571
0.0611744
0.0616548
0.0621007
0.0625144
0.062898
0.0632534
0.0635821
0.0638857
0.0399648
0.041214
0.0424536
0.0436814
0.0449026
0.0461277
0.0473557
0.0485746
0.049769
0.0509246
0.0520298
0.0530793
0.0540677
0.0549917
0.0558533
0.0566561
0.0574035
0.0580991
0.0587466
0.0593489
0.0599092
0.0604301
0.0609144
0.0613643
0.061782
0.0621695
0.0625286
0.0628606
0.0380596
0.0392862
0.0405114
0.0417329
0.042948
0.0441629
0.0453878
0.0466179
0.0478388
0.049034
0.0501894
0.0512938
0.0523423
0.0533299
0.0542539
0.0551168
0.055922
0.056673
0.057373
0.0580252
0.0586327
0.0591983
0.0597245
0.060214
0.0606688
0.0610913
0.0614831
0.0618459
0.0361384
0.0373368
0.0385424
0.0397531
0.040966
0.042178
0.0433966
0.0446303
0.0458701
0.0470996
0.0483015
0.0494619
0.0505707
0.0516231
0.0526145
0.0535432
0.0544117
0.0552231
0.0559808
0.0566877
0.0573469
0.0579611
0.058533
0.0590652
0.0595602
0.0600201
0.0604471
0.060843
0.0342172
0.0353807
0.0365603
0.0377541
0.0389593
0.0401725
0.0413919
0.0426246
0.043875
0.045131
0.0463744
0.0475877
0.0487577
0.0498754
0.050936
0.0519354
0.0528724
0.0537496
0.0545701
0.0553366
0.056052
0.056719
0.0573404
0.0579188
0.0584567
0.0589568
0.0594213
0.0598521
0.0323129
0.0334339
0.0345801
0.03575
0.036941
0.0381499
0.0393724
0.0406083
0.041864
0.0431382
0.0444158
0.0456777
0.0469066
0.0480899
0.0492203
0.0502927
0.0513032
0.0522514
0.0531398
0.053971
0.0547475
0.0554718
0.0561466
0.0567746
0.0573586
0.0579013
0.0584054
0.0588731
0.0304402
0.0315114
0.0326164
0.0337544
0.0349236
0.0361209
0.0373425
0.0385832
0.039844
0.04113
0.042434
0.0437379
0.0450219
0.0462693
0.0474691
0.0486154
0.0497024
0.0507265
0.0516879
0.0525889
0.0534316
0.054218
0.0549506
0.0556319
0.0562649
0.0568528
0.0573987
0.0579053
0.0286177
0.0296302
0.0306848
0.0317818
0.03292
0.0340971
0.0353095
0.0365525
0.0378197
0.0391134
0.0404361
0.0417743
0.0431077
0.0444163
0.0456849
0.0469036
0.0480683
0.0491721
0.0502113
0.051187
0.052101
0.0529549
0.0537503
0.0544892
0.0551746
0.0558104
0.0564002
0.0569473
0.0268571
0.0278036
0.0287994
0.0298459
0.0309431
0.0320898
0.0332832
0.034519
0.0357912
0.0370943
0.0384293
0.0397933
0.0411685
0.0425334
0.0438688
0.0451606
0.0464004
0.0475844
0.0487057
0.0497609
0.0507514
0.0516782
0.052542
0.0533438
0.0540859
0.0547723
0.0554082
0.0559979
0.025175
0.0260476
0.0269756
0.0279617
0.0290073
0.0301126
0.0312759
0.0324938
0.0337611
0.0350706
0.0364174
0.0377999
0.0392086
0.0406228
0.0420207
0.0433842
0.0447007
0.0459634
0.0471679
0.0483072
0.0493794
0.0503845
0.0513215
0.052191
0.052995
0.0537367
0.0544214
0.0550554
0.0235823
0.0243739
0.0252265
0.026143
0.0271266
0.0281789
0.0293001
0.0304881
0.0317388
0.0330459
0.0344007
0.0357976
0.0372318
0.0386874
0.0401417
0.0415736
0.0429662
0.0443085
0.0455956
0.0468227
0.0479822
0.0490704
0.0500855
0.0510275
0.0518979
0.0526999
0.0534379
0.0541186
0.0220868
0.0227929
0.0235642
0.0244032
0.0253148
0.0263028
0.0273692
0.0285139
0.0297346
0.0310262
0.0323811
0.0337887
0.0352415
0.0367299
0.0382334
0.0397287
0.0411954
0.0426184
0.043989
0.0453042
0.0465558
0.0477322
0.0488306
0.0498501
0.0507918
0.0516585
0.0524543
0.0531857
0.0206962
0.021316
0.0220008
0.0227554
0.0235862
0.0244989
0.0254977
0.026585
0.0277607
0.0290218
0.0303621
0.0317723
0.0332398
0.034753
0.036297
0.037849
0.0393859
0.0408892
0.0423473
0.0437527
0.0450966
0.0463666
0.0475537
0.048656
0.0496739
0.05061
0.0514682
0.0522543
0.0194123
0.0199463
0.0205421
0.021209
0.0219529
0.0227814
0.0237012
0.0247173
0.0258324
0.0270461
0.0283549
0.029751
0.0312233
0.0327567
0.0343336
0.0359336
0.0375357
0.0391197
0.0406678
0.0421658
0.0436041
0.0449707
0.0462517
0.0474422
0.0485414
0.0495514
0.0504762
0.0513215
0.0182356
0.0186875
0.0191964
0.0197736
0.0204262
0.0211638
0.021995
0.0229276
0.0239672
0.0251167
0.0263755
0.0277388
0.0291972
0.0307367
0.0323396
0.0339847
0.0356496
0.0373113
0.0389482
0.0405412
0.0420756
0.0435399
0.0449203
0.0462048
0.047391
0.0484802
0.0494762
0.0503848
0.0171623
0.0175378
0.017964
0.0184526
0.0190131
0.0196561
0.0203922
0.0212316
0.022183
0.023253
0.0244445
0.0257566
0.0271829
0.0287119
0.0303268
0.0320064
0.0337264
0.0354611
0.0371847
0.0388735
0.0405074
0.0420735
0.0435563
0.0449406
0.0462196
0.0473934
0.0484655
0.0494417
0.0161864
0.0164927
0.0168421
0.017246
0.0177171
0.0182653
0.018903
0.0196427
0.0204959
0.0214729
0.022581
0.0238236
0.0251988
0.0266985
0.0283082
0.0300075
0.0317713
0.0335711
0.0353774
0.0371616
0.0388984
0.0405682
0.0421562
0.0436457
0.0450239
0.0462882
0.0474415
0.0484898
0.0153009
0.0155455
0.0158262
0.0161532
0.0165391
0.0169949
0.0175343
0.018171
0.0189193
0.0197928
0.0208032
0.0219588
0.023263
0.0247126
0.0262971
0.0279982
0.0297908
0.0316447
0.0335269
0.0354037
0.0372441
0.0390218
0.0407198
0.0423188
0.0438024
0.0451632
0.0464032
0.0475282
0.0144983
0.0146881
0.014908
0.0151665
0.0154744
0.0158438
0.0162882
0.0168227
0.0174633
0.0182263
0.0191275
0.0201803
0.0213942
0.0227721
0.0243089
0.0259905
0.0277935
0.0296872
0.0316354
0.0335999
0.0355434
0.0374328
0.039244
0.0409565
0.0425508
0.0440151
0.0453477
0.0465546
0.0139122
0.0140785
0.0142768
0.0145158
0.0148071
0.0151632
0.0155998
0.0161337
0.0167835
0.0175679
0.0185053
0.0196113
0.0208958
0.0223611
0.0239991
0.0257904
0.0277055
0.0297065
0.0317506
0.0337943
0.035797
0.0377255
0.039557
0.0412681
0.0428423
0.0442736
0.0455673
0.0132123
0.0133294
0.0134751
0.0136547
0.0138773
0.014154
0.0144998
0.0149319
0.0154698
0.0161346
0.0169482
0.0179319
0.0191034
0.0204731
0.0220413
0.0237954
0.0257094
0.0277456
0.0298578
0.031996
0.0341115
0.0361618
0.0381182
0.0399526
0.0416422
0.0431789
0.044565
0.0127519
0.0128798
0.0130433
0.0132512
0.0135161
0.0138547
0.0142863
0.0148332
0.0155198
0.0163718
0.0174138
0.0186655
0.0201371
0.0218256
0.0237119
0.0257611
0.0279255
0.0301494
0.0323758
0.0345517
0.0366366
0.0385995
0.0404128
0.0420628
0.0435477
0.0121021
0.0121816
0.0122939
0.0124432
0.0126388
0.0128946
0.0132292
0.0136646
0.0142263
0.0149427
0.0158442
0.0169588
0.0183081
0.019901
0.0217291
0.0237641
0.0259596
0.0282558
0.030587
0.0328895
0.0351093
0.0372086
0.0391541
0.0409241
0.0425147
0.0115552
0.0116194
0.0117181
0.0118554
0.0120409
0.0122903
0.0126244
0.0130683
0.0136516
0.0144077
0.0153719
0.0165767
0.0180446
0.0197814
0.02177
0.0239695
0.026319
0.0287452
0.0311724
0.0335321
0.0357761
0.0378622
0.0397606
0.0414646
0.010994
0.0110155
0.0110666
0.0111533
0.0112805
0.0114582
0.011704
0.0120414
0.0124994
0.0131124
0.0139202
0.0149641
0.0162805
0.0178921
0.019798
0.0219686
0.0243462
0.0268523
0.0293993
0.031903
0.0342974
0.0365321
0.038569
0.040395
0.0104855
0.0104737
0.0104836
0.0105233
0.0105998
0.0107187
0.0108909
0.0111361
0.0114813
0.01196
0.0126131
0.0134877
0.0146322
0.016087
0.0178717
0.0199744
0.0223474
0.0249113
0.0275679
0.030216
0.0327681
0.0351613
0.0373475
0.039303
0.00998146
0.00995983
0.00995977
0.00998959
0.0100576
0.0101703
0.0103393
0.0105873
0.0109454
0.0114531
0.0121593
0.0131203
0.0143923
0.0160179
0.0180095
0.0203375
0.0229287
0.0256778
0.028466
0.0311823
0.0337453
0.0360918
0.0381865
0.00952836
0.00948261
0.00945262
0.00944412
0.00946571
0.0095268
0.00963511
0.00980351
0.0100583
0.0104358
0.0109831
0.0117593
0.012832
0.0142655
0.0161012
0.0183369
0.0209158
0.023732
0.0266507
0.0295348
0.032278
0.0347968
0.0370416
0.00904174
0.00898911
0.00895212
0.00893658
0.00895139
0.00900719
0.00911303
0.00928368
0.00954998
0.00995494
0.0105557
0.0114246
0.0126424
0.0142803
0.0163719
0.0188894
0.0217371
0.0247693
0.0278221
0.0307529
0.0334557
0.0358641
0.00862941
0.00855945
0.00850106
0.00845821
0.00843683
0.00844621
0.00849832
0.00860377
0.00878001
0.00906377
0.00950694
0.0101799
0.0111719
0.0125788
0.0144741
0.0168721
0.0197032
0.0228207
0.0260353
0.0291627
0.0320644
0.0346502
0.00823911
0.00815584
0.00808124
0.00801808
0.00797039
0.00794427
0.00794955
0.0079996
0.00810697
0.00829292
0.00860193
0.00909783
0.00986893
0.0110258
0.0126788
0.0148943
0.0176479
0.0208089
0.0241686
0.0274986
0.0306154
0.0333938
0.00777195
0.00768505
0.00760667
0.00753961
0.00748795
0.00745809
0.00746054
0.0075103
0.00762231
0.0078233
0.00816813
0.00873713
0.00964288
0.0110216
0.0129935
0.0155978
0.0187443
0.0222199
0.0257519
0.0290991
0.0320875
0.00740259
0.00730627
0.00721642
0.00713496
0.0070647
0.00700986
0.0069772
0.00697814
0.00702958
0.00714962
0.00737286
0.00776843
0.00844
0.00953271
0.0112107
0.0135886
0.0166456
0.0201908
0.0239144
0.0275048
0.0307221
0.00704282
0.0069394
0.00684094
0.00674879
0.00666488
0.00659206
0.00653476
0.00650021
0.00650111
0.0065566
0.00668912
0.00694484
0.00741305
0.00823093
0.0095858
0.0116643
0.0145421
0.0180893
0.0219808
0.0258204
0.0292856
0.00657928
0.00647449
0.00637448
0.00628059
0.00619478
0.00612001
0.00606096
0.00602551
0.00602811
0.0060907
0.00624197
0.00654526
0.00711944
0.00814973
0.00987297
0.0124741
0.0159299
0.0199404
0.0240322
0.0277694
0.00622083
0.00611153
0.00600589
0.00590485
0.00580975
0.0057226
0.00564648
0.00558643
0.00555125
0.00555775
0.00563164
0.00581102
0.00618519
0.00691775
0.00826077
0.0104952
0.0137445
0.0177955
0.0221256
0.0261579
0.00585836
0.00574609
0.00563669
0.00553078
0.00542929
0.00533357
0.00524571
0.00516898
0.00510887
0.00507539
0.00508866
0.00517989
0.0054023
0.005885
0.00686064
0.00866526
0.0115827
0.0155611
0.0200888
0.0244337
0.00548531
0.00537142
0.00525983
0.00515096
0.00504545
0.00494422
0.00484867
0.00476095
0.00468459
0.0046257
0.00459584
0.00461967
0.00473724
0.00502767
0.00568296
0.00703932
0.00951117
0.013271
0.017917
0.0225783
0.00509356
0.00497921
0.00486681
0.00475665
0.00464918
0.004545
0.00444507
0.0043508
0.00426449
0.00418996
0.00413409
0.00411066
0.0041508
0.00430906
0.00471187
0.00565226
0.00760482
0.0109836
0.0156206
0.0205763
0.00467235
0.00455861
0.00444665
0.00433672
0.00422913
0.00412433
0.00402295
0.00392592
0.00383472
0.00375176
0.00368122
0.00363114
0.00361902
0.00368555
0.0039108
0.00450757
0.00592997
0.00878067
0.0132361
0.0184252
0.00420643
0.00409438
0.00398414
0.00387594
0.0037701
0.00366696
0.00356699
0.00347082
0.00337938
0.00329415
0.00321763
0.00315452
0.00311464
0.0031221
0.00323151
0.00357583
0.0045226
0.00675164
0.0108234
0.0161469
0.00367244
0.00356346
0.00345651
0.00335192
0.00325001
0.00315117
0.00305582
0.00296445
0.00287768
0.00279638
0.00272195
0.00265691
0.00260655
0.00258324
0.00262093
0.00280305
0.00337482
0.00497157
0.00847059
0.0137972
0.00303118
0.00292776
0.00282693
0.00272909
0.00263468
0.00254413
0.0024579
0.00237647
0.00230035
0.00223008
0.00216632
0.00211007
0.00206349
0.00203226
0.0020322
0.00211356
0.00243058
0.00346949
0.00625686
0.0114355
0.00221224
0.00212054
0.00203241
0.00194831
0.00186867
0.00179397
0.00172466
0.00166122
0.0016041
0.00155369
0.00151001
0.0014727
0.00143996
0.00141248
0.00139949
0.00142864
0.00158358
0.00217682
0.00417019
0.00896511
0.00112215
0.00106012
0.00100214
0.000948432
0.000899183
0.000854626
0.000815042
0.00078079
0.000752264
0.000729433
0.000708375
0.000689412
0.000676369
0.000672988
0.000680752
0.000708915
0.000801271
0.00113043
0.00244424
0.00689702
8.89137e-05
8.12616e-05
7.44453e-05
6.84276e-05
6.31715e-05
5.86452e-05
5.48267e-05
5.17089e-05
4.93048e-05
4.77359e-05
4.97858e-05
5.38033e-05
5.98488e-05
6.87779e-05
8.17307e-05
0.000100495
0.000136264
0.000237486
0.000890594
0.0055808
0.0866293
0.0865922
0.0865566
0.0865221
0.0864883
0.0864547
0.0864209
0.0863861
0.0863498
0.0863112
0.0862695
0.0862239
0.0861733
0.0861167
0.0860529
0.0859807
0.0858987
0.0858053
0.0856989
0.0855777
0.0854396
0.0852824
0.0851037
0.0849008
0.0846707
0.0844103
0.0841157
0.0837831
0.0834079
0.0829852
0.0825096
0.0819749
0.0813743
0.0807004
0.0799448
0.0790981
0.0781501
0.0770893
0.075903
0.0745772
0.0730961
0.0714424
0.0695964
0.0675361
0.065236
0.0626665
0.0597912
0.056564
0.0529228
0.0487776
0.0439874
0.0383143
0.0313412
0.0226533
0.0135401
0.0866016
0.0865608
0.0865212
0.0864823
0.0864438
0.0864052
0.0863658
0.0863252
0.0862825
0.0862371
0.0861881
0.0861346
0.0860757
0.0860102
0.085937
0.0858548
0.0857622
0.0856577
0.0855395
0.0854058
0.0852545
0.0850836
0.0848904
0.0846723
0.0844263
0.0841491
0.0838371
0.0834863
0.0830922
0.0826499
0.0821539
0.0815981
0.0809758
0.0802796
0.0795011
0.0786312
0.0776597
0.0765753
0.0753655
0.0740165
0.0725127
0.070837
0.0689701
0.06689
0.0645713
0.0619841
0.0590916
0.0558464
0.0521841
0.0480109
0.0431811
0.0374567
0.030476
0.0220815
0.0131486
0.0865726
0.0865279
0.0864841
0.0864408
0.0863973
0.0863534
0.0863083
0.0862615
0.0862122
0.0861597
0.0861031
0.0860416
0.085974
0.0858994
0.0858166
0.0857241
0.0856206
0.0855046
0.0853743
0.0852278
0.0850632
0.0848781
0.0846701
0.0844365
0.0841743
0.0838801
0.0835505
0.0831812
0.0827679
0.0823057
0.081789
0.081212
0.0805678
0.0798491
0.0790477
0.0781545
0.0771596
0.0760516
0.0748185
0.0734464
0.0719203
0.0702231
0.0683358
0.0662368
0.0639007
0.0612976
0.0583906
0.055132
0.0514569
0.0472726
0.0424392
0.0367454
0.0299234
0.0222039
0.0143708
0.0865421
0.0864934
0.0864452
0.0863971
0.0863486
0.0862991
0.086248
0.0861948
0.0861386
0.0860788
0.0860144
0.0859445
0.0858681
0.0857841
0.0856913
0.0855883
0.0854736
0.0853458
0.0852031
0.0850436
0.0848653
0.0846658
0.0844427
0.0841933
0.0839146
0.0836032
0.0832555
0.0828676
0.0824348
0.0819525
0.0814151
0.0808166
0.0801504
0.0794092
0.0785848
0.0776685
0.0766501
0.0755189
0.0742628
0.0728682
0.0713204
0.0696027
0.0676964
0.0655801
0.0632289
0.0606134
0.057697
0.0544331
0.050759
0.0465878
0.0417968
0.0362225
0.0297406
0.0229194
0.016392
0.08651
0.0864571
0.0864043
0.0863512
0.0862974
0.0862421
0.0861849
0.086125
0.0860617
0.0859943
0.0859218
0.0858433
0.0857578
0.0856641
0.0855609
0.0854471
0.085321
0.0851811
0.0850257
0.0848529
0.0846605
0.0844463
0.0842079
0.0839424
0.0836469
0.083318
0.0829521
0.0825452
0.0820929
0.0815903
0.0810319
0.0804119
0.0797236
0.0789599
0.0781128
0.0771734
0.0761321
0.074978
0.0736995
0.0722833
0.0707149
0.068978
0.0670545
0.0649234
0.0625606
0.0599373
0.0570185
0.0537598
0.0501036
0.0459741
0.0412735
0.035894
0.0299279
0.0240877
0.0186866
0.0864761
0.0864188
0.0863612
0.086303
0.0862435
0.0861822
0.0861186
0.0860518
0.0859811
0.0859058
0.085825
0.0857376
0.0856426
0.085539
0.0854253
0.0853003
0.0851625
0.0850103
0.0848419
0.0846554
0.0844487
0.0842196
0.0839655
0.0836837
0.0833711
0.0830245
0.0826402
0.0822142
0.0817421
0.081219
0.0806397
0.0799981
0.0792878
0.0785017
0.077632
0.0766699
0.075606
0.0744298
0.0731297
0.0716929
0.0701053
0.0683512
0.0664128
0.0642701
0.0618998
0.0592747
0.0563621
0.0531216
0.0495033
0.0454464
0.0408829
0.035784
0.0304443
0.0255106
0.0209303
0.0864403
0.0863783
0.0863158
0.0862521
0.0861868
0.0861193
0.086049
0.085975
0.0858967
0.0858133
0.0857238
0.0856272
0.0855226
0.0854086
0.0852841
0.0851477
0.0849978
0.084833
0.0846513
0.0844509
0.0842297
0.0839853
0.0837153
0.0834169
0.0830871
0.0827225
0.0823196
0.0818743
0.0813823
0.0808388
0.0802384
0.0795753
0.0788431
0.0780349
0.0771429
0.0761586
0.0750728
0.0738752
0.0725546
0.0710986
0.0694936
0.0677245
0.0657742
0.0636237
0.0612513
0.0586317
0.0557355
0.052528
0.0489693
0.0450158
0.0406323
0.0359036
0.0312238
0.0270217
0.0229983
0.0864024
0.0863356
0.0862678
0.0861985
0.0861272
0.0860531
0.0859758
0.0858944
0.0858083
0.0857164
0.085618
0.085512
0.0853973
0.0852728
0.0851371
0.084989
0.0848268
0.084649
0.0844538
0.0842392
0.0840032
0.0837433
0.0834571
0.0831419
0.0827946
0.0824119
0.0819903
0.0815256
0.0810136
0.0804496
0.0798282
0.0791437
0.0783899
0.0775598
0.076646
0.0756402
0.0745332
0.0733153
0.0719756
0.0705021
0.0688818
0.0671004
0.0651418
0.0629883
0.06062
0.0580144
0.0551464
0.0519881
0.0485108
0.0446891
0.0405349
0.0362389
0.0321711
0.0285193
0.0248781
0.0863622
0.0862904
0.0862171
0.0861419
0.0860643
0.0859835
0.0858989
0.0858099
0.0857155
0.085615
0.0855073
0.0853916
0.0852666
0.0851312
0.0849842
0.084824
0.0846493
0.0844583
0.0842492
0.0840202
0.083769
0.0834934
0.0831909
0.0828587
0.0824937
0.0820928
0.0816522
0.0811681
0.0806361
0.0800516
0.0794093
0.0787037
0.0779285
0.0770771
0.0761421
0.0751154
0.0739884
0.0727514
0.0713942
0.0699053
0.0682723
0.0664819
0.0645193
0.0623683
0.0600113
0.0574293
0.0546021
0.0515095
0.048134
0.044471
0.0405976
0.0367537
0.0332009
0.0299535
0.0265904
0.0863196
0.0862425
0.0861635
0.0860822
0.0859979
0.0859101
0.0858181
0.085721
0.0856182
0.0855087
0.0853916
0.0852658
0.0851302
0.0849837
0.084825
0.0846526
0.0844649
0.0842604
0.0840373
0.0837935
0.0835271
0.0832355
0.0829164
0.082567
0.0821842
0.0817649
0.0813054
0.0808018
0.0802499
0.0796451
0.0789821
0.0782556
0.0774596
0.0765874
0.0756319
0.0745854
0.0734395
0.0721851
0.0708123
0.0693104
0.0676679
0.0658724
0.0639107
0.0617685
0.0594309
0.0568827
0.0541091
0.0510976
0.0478419
0.0443692
0.0408136
0.0373953
0.034255
0.0313076
0.0281659
0.0862744
0.0861917
0.0861067
0.086019
0.0859279
0.0858328
0.085733
0.0856277
0.0855162
0.0853974
0.0852705
0.0851344
0.084988
0.0848301
0.0846593
0.0844743
0.0842736
0.0840554
0.0838179
0.0835592
0.0832772
0.0829695
0.0826336
0.0822669
0.0818662
0.0814284
0.08095
0.080427
0.0798553
0.0792302
0.078547
0.0778
0.0769836
0.0760914
0.0751165
0.0740514
0.0728881
0.0716181
0.070232
0.06872
0.0670716
0.0652755
0.0633202
0.0611937
0.0588841
0.05638
0.0536722
0.0507552
0.0476381
0.0443881
0.041161