/*--------------------------------*- C++ -*----------------------------------*\
  =========                 |
  \\      /  F ield         | OpenFOAM: The Open Source CFD Toolbox
   \\    /   O peration     | Website:  https://openfoam.org
    \\  /    A nd           | Version:  10
     \\/     M anipulation  |
\*---------------------------------------------------------------------------*/
FoamFile
{
    format      ascii;
    class       surfaceScalarField;
    location    "28000";
    object      phi;
}
// * * * * * * * * * * * * * * * * * * * * * * * * * * * * * * * * * * * * * //

dimensions      [0 3 -1 0 0 0 0];

internalField   nonuniform List<scalar> 
35585
(
3.17143e-06
-2.24166e-06
3.09281e-06
-2.25672e-06
3.0147e-06
-2.26901e-06
2.93732e-06
-2.27869e-06
2.86084e-06
-2.28591e-06
2.78547e-06
-2.29077e-06
2.71136e-06
-2.29337e-06
2.63867e-06
-2.29379e-06
2.56752e-06
-2.29211e-06
2.49803e-06
-2.2884e-06
2.4303e-06
-2.28271e-06
2.3644e-06
-2.27512e-06
2.3004e-06
-2.26569e-06
2.23834e-06
-2.25449e-06
2.17826e-06
-2.2416e-06
2.12016e-06
-2.22709e-06
2.06407e-06
-2.21103e-06
2.00996e-06
-2.19352e-06
1.95784e-06
-2.17462e-06
1.90767e-06
-2.15443e-06
1.85944e-06
-2.13303e-06
1.8131e-06
-2.1105e-06
1.76861e-06
-2.08693e-06
1.72594e-06
-2.06239e-06
1.68503e-06
-2.03698e-06
1.64584e-06
-2.01076e-06
1.60831e-06
-1.98383e-06
1.5724e-06
-1.95624e-06
1.53804e-06
-1.92809e-06
1.50519e-06
-1.89942e-06
1.47379e-06
-1.87033e-06
1.44378e-06
-1.84086e-06
1.41511e-06
-1.81109e-06
1.38773e-06
-1.78106e-06
1.36159e-06
-1.75085e-06
1.33663e-06
-1.72049e-06
1.3128e-06
-1.69004e-06
1.29006e-06
-1.65956e-06
1.26835e-06
-1.62907e-06
1.24764e-06
-1.59862e-06
1.22787e-06
-1.56826e-06
1.209e-06
-1.53802e-06
1.191e-06
-1.50792e-06
1.17381e-06
-1.47801e-06
1.15741e-06
-1.44831e-06
1.14175e-06
-1.41884e-06
1.1268e-06
-1.38963e-06
-1.36071e-06
1.11253e-06
3.33014e-06
-2.1582e-06
3.24706e-06
-2.17364e-06
3.16456e-06
-2.18651e-06
3.08286e-06
-2.19699e-06
3.00214e-06
-2.20519e-06
2.92261e-06
-2.21123e-06
2.84442e-06
-2.21518e-06
2.76773e-06
-2.21711e-06
2.69268e-06
-2.21707e-06
2.6194e-06
-2.21511e-06
2.54796e-06
-2.21128e-06
2.47847e-06
-2.20562e-06
2.41098e-06
-2.1982e-06
2.34554e-06
-2.18905e-06
2.28218e-06
-2.17824e-06
2.22091e-06
-2.16582e-06
2.16175e-06
-2.15188e-06
2.1047e-06
-2.13646e-06
2.04973e-06
-2.11965e-06
1.99682e-06
-2.10153e-06
1.94594e-06
-2.08216e-06
1.89706e-06
-2.06162e-06
1.85013e-06
-2.04e-06
1.80512e-06
-2.01738e-06
1.76196e-06
-1.99382e-06
1.72061e-06
-1.96941e-06
1.68101e-06
-1.94423e-06
1.6431e-06
-1.91834e-06
1.60684e-06
-1.89182e-06
1.57216e-06
-1.86475e-06
1.53901e-06
-1.83718e-06
1.50733e-06
-1.80918e-06
1.47705e-06
-1.78082e-06
1.44814e-06
-1.75215e-06
1.42052e-06
-1.72323e-06
1.39415e-06
-1.69412e-06
1.36897e-06
-1.66487e-06
1.34494e-06
-1.63552e-06
1.32199e-06
-1.60612e-06
1.30009e-06
-1.57672e-06
1.27919e-06
-1.54736e-06
1.25923e-06
-1.51806e-06
1.24019e-06
-1.48887e-06
1.222e-06
-1.45982e-06
1.20464e-06
-1.43095e-06
1.18807e-06
-1.40226e-06
1.17224e-06
-1.37381e-06
-1.34559e-06
1.15713e-06
3.46182e-06
3.37425e-06
3.28734e-06
3.20132e-06
3.11637e-06
-2.12025e-06
3.0327e-06
-2.12756e-06
2.95048e-06
-2.13296e-06
2.86987e-06
-2.13649e-06
2.791e-06
-2.1382e-06
2.714e-06
-2.13811e-06
2.63898e-06
-2.13625e-06
2.566e-06
-2.13265e-06
2.49514e-06
-2.12734e-06
2.42644e-06
-2.12035e-06
2.35994e-06
-2.11174e-06
2.29565e-06
-2.10154e-06
2.23358e-06
-2.08981e-06
2.17373e-06
-2.07661e-06
2.11607e-06
-2.06199e-06
2.06058e-06
-2.04604e-06
2.00723e-06
-2.02881e-06
1.95598e-06
-2.01037e-06
1.90678e-06
-1.99081e-06
1.85959e-06
-1.97019e-06
1.81436e-06
-1.94858e-06
1.77102e-06
-1.92607e-06
1.72952e-06
-1.90273e-06
1.6898e-06
-1.87863e-06
1.65181e-06
-1.85383e-06
1.61548e-06
-1.82841e-06
1.58075e-06
-1.80245e-06
1.54756e-06
-1.77599e-06
1.51585e-06
-1.74911e-06
1.48557e-06
-1.72186e-06
1.45664e-06
-1.69431e-06
1.42903e-06
-1.6665e-06
1.40266e-06
-1.6385e-06
1.37749e-06
-1.61035e-06
1.35347e-06
-1.5821e-06
1.33054e-06
-1.55379e-06
1.30866e-06
-1.52547e-06
1.28777e-06
-1.49717e-06
1.26783e-06
-1.46893e-06
1.24879e-06
-1.44079e-06
1.23062e-06
-1.41278e-06
1.21328e-06
-1.38492e-06
1.19671e-06
-1.35724e-06
-1.32977e-06
1.18089e-06
3.20666e-06
-2.03111e-06
3.11891e-06
-2.03981e-06
3.03273e-06
-2.04677e-06
2.94826e-06
-2.05203e-06
2.86566e-06
-2.0556e-06
2.78505e-06
-2.0575e-06
2.70653e-06
-2.05773e-06
2.63018e-06
-2.0563e-06
2.55607e-06
-2.05322e-06
2.48424e-06
-2.04853e-06
2.41474e-06
-2.04223e-06
2.34757e-06
-2.03437e-06
2.28273e-06
-2.02497e-06
2.22023e-06
-2.0141e-06
2.16003e-06
-2.0018e-06
2.10212e-06
-1.98813e-06
2.04646e-06
-1.97314e-06
1.993e-06
-1.95691e-06
1.94169e-06
-1.9395e-06
1.89249e-06
-1.92099e-06
1.84534e-06
-1.90143e-06
1.80018e-06
-1.88091e-06
1.75694e-06
-1.8595e-06
1.71557e-06
-1.83726e-06
1.67601e-06
-1.81426e-06
1.63818e-06
-1.79059e-06
1.60202e-06
-1.76629e-06
1.56748e-06
-1.74144e-06
1.53449e-06
-1.71611e-06
1.50298e-06
-1.69035e-06
1.47289e-06
-1.66422e-06
1.44417e-06
-1.63778e-06
1.41675e-06
-1.61109e-06
1.39058e-06
-1.58419e-06
1.36561e-06
-1.55713e-06
1.34178e-06
-1.52996e-06
1.31903e-06
-1.50273e-06
1.29733e-06
-1.47547e-06
1.27661e-06
-1.44822e-06
1.25684e-06
-1.42102e-06
1.23797e-06
-1.39391e-06
1.21996e-06
-1.3669e-06
1.20276e-06
-1.34004e-06
-1.31335e-06
1.18634e-06
3.2747e-06
-1.93778e-06
3.18287e-06
-1.94798e-06
3.09273e-06
-1.95663e-06
3.00443e-06
-1.96374e-06
2.91813e-06
-1.9693e-06
2.83395e-06
-1.97332e-06
2.75199e-06
-1.97577e-06
2.67234e-06
-1.97665e-06
2.59507e-06
-1.97595e-06
2.52022e-06
-1.97367e-06
2.44782e-06
-1.96983e-06
2.37789e-06
-1.96443e-06
2.31042e-06
-1.95751e-06
2.24541e-06
-1.94909e-06
2.18284e-06
-1.93923e-06
2.12266e-06
-1.92795e-06
2.06485e-06
-1.91533e-06
2.00936e-06
-1.90142e-06
1.95613e-06
-1.88627e-06
1.90511e-06
-1.86996e-06
1.85623e-06
-1.85256e-06
1.80944e-06
-1.83412e-06
1.76467e-06
-1.81472e-06
1.72184e-06
-1.79443e-06
1.68091e-06
-1.77332e-06
1.64178e-06
-1.75146e-06
1.60441e-06
-1.72892e-06
1.56871e-06
-1.70575e-06
1.53463e-06
-1.68203e-06
1.5021e-06
-1.65782e-06
1.47105e-06
-1.63317e-06
1.44142e-06
-1.60815e-06
1.41315e-06
-1.58282e-06
1.38618e-06
-1.55721e-06
1.36045e-06
-1.5314e-06
1.33591e-06
-1.50542e-06
1.31249e-06
-1.47931e-06
1.29016e-06
-1.45313e-06
1.26885e-06
-1.42691e-06
1.24852e-06
-1.40069e-06
1.22912e-06
-1.37451e-06
1.21061e-06
-1.34839e-06
1.19295e-06
-1.32238e-06
-1.2965e-06
1.17609e-06
3.32296e-06
3.22701e-06
-1.85203e-06
3.13287e-06
-1.86249e-06
3.04073e-06
-1.87159e-06
2.95072e-06
-1.87929e-06
2.86298e-06
-1.88557e-06
2.77761e-06
-1.8904e-06
2.6947e-06
-1.89374e-06
2.61433e-06
-1.89557e-06
2.53652e-06
-1.89587e-06
2.46132e-06
-1.89463e-06
2.38873e-06
-1.89184e-06
2.31875e-06
-1.88753e-06
2.25137e-06
-1.88171e-06
2.18655e-06
-1.87441e-06
2.12427e-06
-1.86567e-06
2.06448e-06
-1.85554e-06
2.00712e-06
-1.84406e-06
1.95214e-06
-1.83129e-06
1.89947e-06
-1.8173e-06
1.84906e-06
-1.80214e-06
1.80083e-06
-1.78589e-06
1.75471e-06
-1.7686e-06
1.71063e-06
-1.75035e-06
1.66852e-06
-1.73121e-06
1.6283e-06
-1.71125e-06
1.58991e-06
-1.69052e-06
1.55327e-06
-1.66911e-06
1.51831e-06
-1.64707e-06
1.48495e-06
-1.62447e-06
1.45315e-06
-1.60136e-06
1.42281e-06
-1.57782e-06
1.39389e-06
-1.55389e-06
1.36632e-06
-1.52964e-06
1.34003e-06
-1.50511e-06
1.31497e-06
-1.48035e-06
1.29108e-06
-1.45542e-06
1.2683e-06
-1.43035e-06
1.24659e-06
-1.4052e-06
1.22589e-06
-1.37999e-06
1.20615e-06
-1.35477e-06
1.18733e-06
-1.32957e-06
1.16938e-06
-1.30443e-06
-1.27938e-06
1.15226e-06
3.25286e-06
3.15459e-06
3.05848e-06
-1.77548e-06
2.96468e-06
-1.78549e-06
2.87331e-06
-1.79421e-06
2.78451e-06
-1.80159e-06
2.69834e-06
-1.80758e-06
2.61487e-06
-1.81211e-06
2.53416e-06
-1.81515e-06
2.45621e-06
-1.81668e-06
2.38104e-06
-1.81668e-06
2.30865e-06
-1.81514e-06
2.23901e-06
-1.81206e-06
2.17208e-06
-1.80748e-06
2.10782e-06
-1.80142e-06
2.04619e-06
-1.79391e-06
1.98712e-06
-1.78499e-06
1.93055e-06
-1.77473e-06
1.87642e-06
-1.76316e-06
1.82464e-06
-1.75037e-06
1.77515e-06
-1.7364e-06
1.72787e-06
-1.72132e-06
1.68271e-06
-1.7052e-06
1.63962e-06
-1.68812e-06
1.59849e-06
-1.67013e-06
1.55927e-06
-1.6513e-06
1.52187e-06
-1.63171e-06
1.48621e-06
-1.61141e-06
1.45223e-06
-1.59048e-06
1.41985e-06
-1.56898e-06
1.38899e-06
-1.54697e-06
1.3596e-06
-1.5245e-06
1.3316e-06
-1.50164e-06
1.30493e-06
-1.47844e-06
1.27953e-06
-1.45495e-06
1.25534e-06
-1.43123e-06
1.2323e-06
-1.40731e-06
1.21035e-06
-1.38325e-06
1.18944e-06
-1.35908e-06
1.16952e-06
-1.33485e-06
1.15055e-06
-1.3106e-06
1.13247e-06
-1.28635e-06
-1.26215e-06
1.11524e-06
3.05883e-06
2.96112e-06
-1.68778e-06
2.86607e-06
-1.69916e-06
2.77378e-06
-1.70931e-06
2.68435e-06
-1.71814e-06
2.59783e-06
-1.72558e-06
2.51425e-06
-1.73158e-06
2.43364e-06
-1.73607e-06
2.35599e-06
-1.73903e-06
2.28129e-06
-1.74044e-06
2.20951e-06
-1.74028e-06
2.14061e-06
-1.73858e-06
2.07453e-06
-1.73534e-06
2.01121e-06
-1.73059e-06
1.95059e-06
-1.72437e-06
1.8926e-06
-1.71673e-06
1.83716e-06
-1.70772e-06
1.78419e-06
-1.69739e-06
1.7336e-06
-1.68581e-06
1.68533e-06
-1.67304e-06
1.63927e-06
-1.65915e-06
1.59536e-06
-1.6442e-06
1.55349e-06
-1.62826e-06
1.5136e-06
-1.61141e-06
1.47561e-06
-1.59371e-06
1.43942e-06
-1.57522e-06
1.40496e-06
-1.55602e-06
1.37215e-06
-1.53618e-06
1.34093e-06
-1.51574e-06
1.31121e-06
-1.49478e-06
1.28293e-06
-1.47336e-06
1.25602e-06
-1.45153e-06
1.23042e-06
-1.42935e-06
1.20605e-06
-1.40686e-06
1.18287e-06
-1.38413e-06
1.16081e-06
-1.36119e-06
1.13981e-06
-1.33809e-06
1.11983e-06
-1.31487e-06
1.10082e-06
-1.29158e-06
1.08272e-06
-1.26825e-06
-1.24491e-06
1.06548e-06
2.94015e-06
2.84142e-06
2.74572e-06
-1.6136e-06
2.6531e-06
-1.62553e-06
2.56363e-06
-1.63611e-06
2.47733e-06
-1.64527e-06
2.3942e-06
-1.65294e-06
2.31423e-06
-1.65906e-06
2.2374e-06
-1.66361e-06
2.16366e-06
-1.66655e-06
2.09297e-06
-1.66788e-06
2.02526e-06
-1.66762e-06
1.96045e-06
-1.66578e-06
1.89848e-06
-1.6624e-06
1.83926e-06
-1.65752e-06
1.78271e-06
-1.65117e-06
1.72875e-06
-1.64343e-06
1.67727e-06
-1.63434e-06
1.62819e-06
-1.62397e-06
1.58143e-06
-1.61238e-06
1.53688e-06
-1.59965e-06
1.49447e-06
-1.58585e-06
1.45409e-06
-1.57104e-06
1.41568e-06
-1.55529e-06
1.37913e-06
-1.53867e-06
1.34436e-06
-1.52126e-06
1.3113e-06
-1.50312e-06
1.27987e-06
-1.48431e-06
1.24999e-06
-1.4649e-06
1.22158e-06
-1.44495e-06
1.19458e-06
-1.42453e-06
1.16891e-06
-1.40368e-06
1.14451e-06
-1.38247e-06
1.12133e-06
-1.36094e-06
1.09928e-06
-1.33915e-06
1.07833e-06
-1.31714e-06
1.05841e-06
-1.29496e-06
1.03947e-06
-1.27264e-06
1.02147e-06
-1.25024e-06
-1.22779e-06
1.00434e-06
2.70058e-06
2.60503e-06
2.51286e-06
2.42408e-06
2.33869e-06
-1.56755e-06
2.25667e-06
-1.57704e-06
2.17797e-06
-1.58491e-06
2.10254e-06
-1.59112e-06
2.03032e-06
-1.59566e-06
1.96123e-06
-1.59853e-06
1.89519e-06
-1.59975e-06
1.83212e-06
-1.59933e-06
1.77193e-06
-1.59732e-06
1.71451e-06
-1.59376e-06
1.65978e-06
-1.5887e-06
1.60764e-06
-1.58219e-06
1.55799e-06
-1.57431e-06
1.51073e-06
-1.56512e-06
1.46576e-06
-1.55469e-06
1.423e-06
-1.54309e-06
1.38235e-06
-1.53038e-06
1.34371e-06
-1.51665e-06
1.30699e-06
-1.50196e-06
1.27211e-06
-1.48638e-06
1.23897e-06
-1.46999e-06
1.20751e-06
-1.45284e-06
1.17763e-06
-1.43502e-06
1.14926e-06
-1.41659e-06
1.12233e-06
-1.3976e-06
1.09676e-06
-1.37811e-06
1.07249e-06
-1.35819e-06
1.04944e-06
-1.3379e-06
1.02757e-06
-1.31727e-06
1.00679e-06
-1.29637e-06
9.87072e-07
-1.27523e-06
9.68343e-07
-1.25392e-06
9.50556e-07
-1.23245e-06
-1.21089e-06
9.33662e-07
2.26818e-06
-1.48022e-06
2.1844e-06
-1.49327e-06
2.10414e-06
-1.50464e-06
2.02732e-06
-1.5143e-06
1.95386e-06
-1.52221e-06
1.88368e-06
-1.52836e-06
1.81669e-06
-1.53276e-06
1.7528e-06
-1.53543e-06
1.69189e-06
-1.53641e-06
1.63387e-06
-1.53574e-06
1.57864e-06
-1.53346e-06
1.52609e-06
-1.52964e-06
1.47612e-06
-1.52434e-06
1.42861e-06
-1.51762e-06
1.38348e-06
-1.50956e-06
1.3406e-06
-1.50021e-06
1.2999e-06
-1.48967e-06
1.26126e-06
-1.47801e-06
1.22459e-06
-1.46529e-06
1.1898e-06
-1.45159e-06
1.1568e-06
-1.43698e-06
1.1255e-06
-1.42155e-06
1.09582e-06
-1.40534e-06
1.06767e-06
-1.38844e-06
1.04099e-06
-1.37091e-06
1.01569e-06
-1.35281e-06
9.91709e-07
-1.33421e-06
9.6897e-07
-1.31516e-06
9.47412e-07
-1.29571e-06
9.26973e-07
-1.27593e-06
9.07592e-07
-1.25585e-06
8.89214e-07
-1.23554e-06
8.71785e-07
-1.21503e-06
-1.19436e-06
8.55253e-07
2.18409e-06
-1.39127e-06
2.0989e-06
-1.40807e-06
2.01739e-06
-1.42314e-06
1.93949e-06
-1.4364e-06
1.86511e-06
-1.44782e-06
1.79415e-06
-1.4574e-06
1.72652e-06
-1.46512e-06
1.6621e-06
-1.47102e-06
1.60078e-06
-1.4751e-06
1.54246e-06
-1.47742e-06
1.48702e-06
-1.47802e-06
1.43434e-06
-1.47696e-06
1.38431e-06
-1.47431e-06
1.33682e-06
-1.47013e-06
1.29176e-06
-1.4645e-06
1.24902e-06
-1.45748e-06
1.2085e-06
-1.44915e-06
1.17009e-06
-1.43959e-06
1.13369e-06
-1.42889e-06
1.0992e-06
-1.4171e-06
1.06653e-06
-1.40432e-06
1.0356e-06
-1.39061e-06
1.0063e-06
-1.37605e-06
9.78567e-07
-1.36071e-06
9.5231e-07
-1.34466e-06
9.27453e-07
-1.32796e-06
9.03923e-07
-1.31068e-06
8.81648e-07
-1.29288e-06
8.60564e-07
-1.27463e-06
8.40603e-07
-1.25597e-06
8.21706e-07
-1.23696e-06
8.03816e-07
-1.21765e-06
7.86875e-07
-1.19808e-06
-1.17832e-06
7.70833e-07
2.08843e-06
-1.30113e-06
2.00222e-06
-1.32186e-06
1.91986e-06
-1.34078e-06
1.84125e-06
-1.3578e-06
1.76631e-06
-1.37288e-06
1.69491e-06
-1.386e-06
1.62695e-06
-1.39717e-06
1.56231e-06
-1.40637e-06
1.50087e-06
-1.41366e-06
1.44251e-06
-1.41906e-06
1.38711e-06
-1.42262e-06
1.33454e-06
-1.4244e-06
1.2847e-06
-1.42447e-06
1.23745e-06
-1.42289e-06
1.19269e-06
-1.41973e-06
1.1503e-06
-1.41508e-06
1.11017e-06
-1.40902e-06
1.07219e-06
-1.40161e-06
1.03625e-06
-1.39295e-06
1.00226e-06
-1.38311e-06
9.70117e-07
-1.37217e-06
9.39724e-07
-1.36022e-06
9.10992e-07
-1.34732e-06
8.83833e-07
-1.33355e-06
8.58165e-07
-1.31899e-06
8.33907e-07
-1.3037e-06
8.10983e-07
-1.28776e-06
7.8932e-07
-1.27122e-06
7.68849e-07
-1.25416e-06
7.49503e-07
-1.23662e-06
7.31221e-07
-1.21867e-06
7.13942e-07
-1.20037e-06
6.97609e-07
-1.18175e-06
-1.16288e-06
6.82171e-07
1.98252e-06
1.89567e-06
-1.23501e-06
1.81281e-06
-1.25792e-06
1.73384e-06
-1.27883e-06
1.65865e-06
-1.29769e-06
1.58713e-06
-1.31448e-06
1.51915e-06
-1.32918e-06
1.45459e-06
-1.34181e-06
1.39331e-06
-1.35238e-06
1.3352e-06
-1.36094e-06
1.28012e-06
-1.36754e-06
1.22795e-06
-1.37222e-06
1.17855e-06
-1.37507e-06
1.13181e-06
-1.37614e-06
1.08759e-06
-1.37552e-06
1.04579e-06
-1.37328e-06
1.00629e-06
-1.36951e-06
9.68964e-07
-1.36429e-06
9.33712e-07
-1.3577e-06
9.00427e-07
-1.34983e-06
8.69006e-07
-1.34075e-06
8.39351e-07
-1.33056e-06
8.11366e-07
-1.31933e-06
7.84964e-07
-1.30715e-06
7.60056e-07
-1.29408e-06
7.36561e-07
-1.2802e-06
7.14398e-07
-1.26559e-06
6.93496e-07
-1.25032e-06
6.73781e-07
-1.23444e-06
6.55185e-07
-1.21803e-06
6.37646e-07
-1.20113e-06
6.21102e-07
-1.18382e-06
6.05496e-07
-1.16615e-06
-1.14816e-06
5.90772e-07
1.78135e-06
-1.14789e-06
1.69836e-06
-1.17492e-06
1.61938e-06
-1.19984e-06
1.54428e-06
-1.2226e-06
1.47295e-06
-1.24315e-06
1.40525e-06
-1.26149e-06
1.34106e-06
-1.27762e-06
1.28023e-06
-1.29156e-06
1.22264e-06
-1.30335e-06
1.16814e-06
-1.31304e-06
1.11661e-06
-1.32069e-06
1.06791e-06
-1.32637e-06
1.02191e-06
-1.33014e-06
9.78481e-07
-1.33209e-06
9.37496e-07
-1.3323e-06
8.98834e-07
-1.33085e-06
8.62377e-07
-1.32783e-06
8.2801e-07
-1.32333e-06
7.95624e-07
-1.31744e-06
7.65113e-07
-1.31024e-06
7.36374e-07
-1.30182e-06
7.09309e-07
-1.29227e-06
6.83825e-07
-1.28166e-06
6.59834e-07
-1.27009e-06
6.3725e-07
-1.25762e-06
6.15993e-07
-1.24434e-06
5.95985e-07
-1.23031e-06
5.77155e-07
-1.21561e-06
5.59431e-07
-1.2003e-06
5.42751e-07
-1.18445e-06
5.2705e-07
-1.16812e-06
5.12272e-07
-1.15137e-06
-1.13424e-06
4.9836e-07
1.66158e-06
-1.06092e-06
1.57882e-06
-1.09216e-06
1.50014e-06
-1.12117e-06
1.42544e-06
-1.1479e-06
1.35459e-06
-1.1723e-06
1.28745e-06
-1.19435e-06
1.22388e-06
-1.21405e-06
1.16376e-06
-1.23143e-06
1.10693e-06
-1.24652e-06
1.05325e-06
-1.25937e-06
1.00259e-06
-1.27003e-06
9.54807e-07
-1.27858e-06
9.0976e-07
-1.28509e-06
8.67317e-07
-1.28965e-06
8.27346e-07
-1.29233e-06
7.8972e-07
-1.29322e-06
7.54316e-07
-1.29243e-06
7.21013e-07
-1.29003e-06
6.89699e-07
-1.28613e-06
6.60262e-07
-1.2808e-06
6.32597e-07
-1.27416e-06
6.06604e-07
-1.26627e-06
5.82186e-07
-1.25724e-06
5.5925e-07
-1.24715e-06
5.3771e-07
-1.23608e-06
5.17483e-07
-1.22411e-06
4.9849e-07
-1.21132e-06
4.80657e-07
-1.19778e-06
4.63913e-07
-1.18356e-06
4.48191e-07
-1.16873e-06
4.33429e-07
-1.15336e-06
4.19568e-07
-1.13751e-06
-1.12123e-06
4.06551e-07
1.53878e-06
1.45657e-06
-1.00994e-06
1.3785e-06
-1.0431e-06
1.30445e-06
-1.07386e-06
1.23432e-06
-1.10216e-06
1.16797e-06
-1.12799e-06
1.10525e-06
-1.15134e-06
1.04604e-06
-1.17222e-06
9.90176e-07
-1.19066e-06
9.37524e-07
-1.20672e-06
8.87933e-07
-1.22044e-06
8.41256e-07
-1.23191e-06
7.9735e-07
-1.24119e-06
7.56073e-07
-1.24837e-06
7.1729e-07
-1.25354e-06
6.80865e-07
-1.2568e-06
6.46671e-07
-1.25823e-06
6.14585e-07
-1.25794e-06
5.84486e-07
-1.25603e-06
5.56262e-07
-1.25258e-06
5.29803e-07
-1.2477e-06
5.05005e-07
-1.24148e-06
4.8177e-07
-1.23401e-06
4.60004e-07
-1.22539e-06
4.39616e-07
-1.21569e-06
4.20522e-07
-1.20502e-06
4.02643e-07
-1.19344e-06
3.85902e-07
-1.18103e-06
3.70227e-07
-1.16788e-06
3.5555e-07
-1.15406e-06
3.41809e-07
-1.13962e-06
3.28942e-07
-1.12464e-06
-1.10918e-06
3.16892e-07
1.33421e-06
-9.28611e-07
1.25704e-06
-9.65924e-07
1.18391e-06
-1.00073e-06
1.11474e-06
-1.03299e-06
1.04939e-06
-1.06264e-06
9.87728e-07
-1.08968e-06
9.29617e-07
-1.11411e-06
8.74907e-07
-1.13595e-06
8.23443e-07
-1.15525e-06
7.75074e-07
-1.17207e-06
7.29644e-07
-1.18648e-06
6.87005e-07
-1.19855e-06
6.47011e-07
-1.20838e-06
6.09518e-07
-1.21605e-06
5.7439e-07
-1.22167e-06
5.41495e-07
-1.22534e-06
5.10705e-07
-1.22715e-06
4.81899e-07
-1.22722e-06
4.5496e-07
-1.22564e-06
4.29776e-07
-1.22251e-06
4.06241e-07
-1.21794e-06
3.84255e-07
-1.21202e-06
3.63721e-07
-1.20485e-06
3.44547e-07
-1.19652e-06
3.26649e-07
-1.18712e-06
3.09943e-07
-1.17673e-06
2.94352e-07
-1.16544e-06
2.79803e-07
-1.15333e-06
2.66225e-07
-1.14048e-06
2.53552e-07
-1.12695e-06
2.41728e-07
-1.11281e-06
-1.09817e-06
2.30721e-07
1.21508e-06
-8.48633e-07
1.13914e-06
-8.89976e-07
1.06714e-06
-9.28734e-07
9.99024e-07
-9.64875e-07
9.34727e-07
-9.98342e-07
8.74141e-07
-1.02909e-06
8.17145e-07
-1.05711e-06
7.63596e-07
-1.0824e-06
7.1334e-07
-1.105e-06
6.66212e-07
-1.12494e-06
6.22049e-07
-1.14231e-06
5.80692e-07
-1.15719e-06
5.41986e-07
-1.16967e-06
5.05787e-07
-1.17985e-06
4.71954e-07
-1.18784e-06
4.40351e-07
-1.19374e-06
4.1085e-07
-1.19765e-06
3.83325e-07
-1.1997e-06
3.57659e-07
-1.19997e-06
3.33736e-07
-1.19859e-06
3.11449e-07
-1.19566e-06
2.90695e-07
-1.19127e-06
2.71376e-07
-1.18553e-06
2.53401e-07
-1.17854e-06
2.36683e-07
-1.1704e-06
2.21143e-07
-1.16119e-06
2.06708e-07
-1.15101e-06
1.93311e-07
-1.13994e-06
1.80896e-07
-1.12806e-06
1.69414e-07
-1.11546e-06
1.58829e-07
-1.10223e-06
-1.08846e-06
1.49119e-07
1.09988e-06
-7.70135e-07
1.02531e-06
-8.15409e-07
9.54595e-07
-8.5802e-07
8.87665e-07
-8.97944e-07
8.24453e-07
-9.35129e-07
7.64886e-07
-9.69526e-07
7.08875e-07
-1.0011e-06
6.56308e-07
-1.02983e-06
6.07051e-07
-1.05574e-06
5.60953e-07
-1.07885e-06
5.17854e-07
-1.09922e-06
4.77595e-07
-1.11693e-06
4.40019e-07
-1.1321e-06
4.04978e-07
-1.14481e-06
3.72326e-07
-1.15519e-06
3.41927e-07
-1.16334e-06
3.13648e-07
-1.16937e-06
2.87362e-07
-1.17341e-06
2.62948e-07
-1.17556e-06
2.4029e-07
-1.17593e-06
2.19278e-07
-1.17464e-06
1.99809e-07
-1.1718e-06
1.81783e-07
-1.16751e-06
1.65107e-07
-1.16187e-06
1.49697e-07
-1.15499e-06
1.35471e-07
-1.14697e-06
1.22361e-07
-1.1379e-06
1.10301e-07
-1.12788e-06
9.92414e-08
-1.117e-06
8.9142e-08
-1.10536e-06
7.99719e-08
-1.09306e-06
-1.08018e-06
7.16927e-08
9.85405e-07
-6.93105e-07
9.12157e-07
-7.42161e-07
8.42696e-07
-7.88559e-07
7.76969e-07
-8.32218e-07
7.14914e-07
-8.73074e-07
6.5646e-07
-9.11072e-07
6.0153e-07
-9.46169e-07
5.50025e-07
-9.7833e-07
5.01831e-07
-1.00755e-06
4.56813e-07
-1.03383e-06
4.14826e-07
-1.05723e-06
3.75716e-07
-1.07782e-06
3.3933e-07
-1.09571e-06
3.05516e-07
-1.111e-06
2.74126e-07
-1.1238e-06
2.4502e-07
-1.13423e-06
2.18061e-07
-1.14241e-06
1.93119e-07
-1.14847e-06
1.70071e-07
-1.15251e-06
1.488e-07
-1.15466e-06
1.29193e-07
-1.15504e-06
1.11144e-07
-1.15375e-06
9.45562e-08
-1.15092e-06
7.93338e-08
-1.14665e-06
6.53899e-08
-1.14105e-06
5.26438e-08
-1.13422e-06
4.10213e-08
-1.12628e-06
3.0455e-08
-1.11731e-06
2.08856e-08
-1.10743e-06
1.22604e-08
-1.09674e-06
4.53275e-09
-1.08533e-06
-1.07331e-06
-2.34051e-09
8.71757e-07
-6.18226e-07
8.00417e-07
-6.70821e-07
7.32664e-07
-7.20806e-07
6.68521e-07
-7.68075e-07
6.07978e-07
-8.12531e-07
5.50997e-07
-8.54092e-07
4.97517e-07
-8.92688e-07
4.47449e-07
-9.28263e-07
4.00688e-07
-9.60784e-07
3.57104e-07
-9.90244e-07
3.16556e-07
-1.01668e-06
2.78895e-07
-1.04016e-06
2.43968e-07
-1.06078e-06
2.11624e-07
-1.07865e-06
1.81713e-07
-1.09389e-06
1.54092e-07
-1.10661e-06
1.28621e-07
-1.11694e-06
1.0517e-07
-1.12502e-06
8.36109e-08
-1.13095e-06
6.38261e-08
-1.13488e-06
4.57012e-08
-1.13691e-06
2.913e-08
-1.13718e-06
1.40116e-08
-1.1358e-06
2.5281e-10
-1.13289e-06
-1.2234e-08
-1.12856e-06
-2.35301e-08
-1.12292e-06
-3.37096e-08
-1.1161e-06
-4.28393e-08
-1.10818e-06
-5.0982e-08
-1.09929e-06
-5.81933e-08
-1.08953e-06
-6.45254e-08
-1.079e-06
-1.06781e-06
-7.00275e-08
7.65751e-07
-5.46198e-07
6.97037e-07
-6.02108e-07
6.3168e-07
-6.5545e-07
5.69721e-07
-7.06116e-07
5.11184e-07
-7.53993e-07
4.56067e-07
-7.98975e-07
4.0434e-07
-8.40961e-07
3.55946e-07
-8.79869e-07
3.10797e-07
-9.15634e-07
2.68782e-07
-9.48229e-07
2.2977e-07
-9.77669e-07
1.93621e-07
-1.00401e-06
1.60184e-07
-1.02735e-06
1.29314e-07
-1.04778e-06
1.00861e-07
-1.06543e-06
7.46827e-08
-1.08043e-06
5.06417e-08
-1.0929e-06
2.86057e-08
-1.10298e-06
8.44834e-09
-1.1108e-06
-9.95e-09
-1.11648e-06
-2.67015e-08
-1.12016e-06
-4.19138e-08
-1.12197e-06
-5.56867e-08
-1.12203e-06
-6.81138e-08
-1.12046e-06
-7.92829e-08
-1.11739e-06
-8.92742e-08
-1.11293e-06
-9.81629e-08
-1.10721e-06
-1.06018e-07
-1.10033e-06
-1.12903e-07
-1.09241e-06
-1.18876e-07
-1.08356e-06
-1.23992e-07
-1.07388e-06
-1.06349e-06
-1.28303e-07
6.72913e-07
-4.774e-07
6.07136e-07
-5.3633e-07
5.44426e-07
-5.9274e-07
4.84842e-07
-6.46531e-07
4.28437e-07
-6.97588e-07
3.75247e-07
-7.45785e-07
3.25282e-07
-7.90996e-07
2.7852e-07
-8.33106e-07
2.34905e-07
-8.7202e-07
1.94352e-07
-9.07676e-07
1.56748e-07
-9.40065e-07
1.21962e-07
-9.69226e-07
8.9855e-08
-9.9524e-07
6.02829e-08
-1.01821e-06
3.31029e-08
-1.03825e-06
8.17463e-09
-1.0555e-06
-1.46377e-08
-1.07009e-06
-3.54651e-08
-1.08215e-06
-5.44322e-08
-1.09183e-06
-7.16576e-08
-1.09925e-06
-8.72537e-08
-1.10456e-06
-1.01326e-07
-1.1079e-06
-1.13974e-07
-1.10938e-06
-1.25291e-07
-1.10914e-06
-1.35363e-07
-1.10732e-06
-1.44271e-07
-1.10402e-06
-1.5209e-07
-1.09939e-06
-1.58888e-07
-1.09353e-06
-1.64731e-07
-1.08656e-06
-1.69679e-07
-1.07861e-06
-1.73788e-07
-1.06977e-06
-1.06017e-06
-1.77112e-07
5.94421e-07
-4.11954e-07
5.31652e-07
-4.73562e-07
4.71616e-07
-5.32703e-07
4.14389e-07
-5.89304e-07
3.60056e-07
-6.43255e-07
3.08691e-07
-6.9442e-07
2.60346e-07
-7.42651e-07
2.15041e-07
-7.87802e-07
1.72761e-07
-8.2974e-07
1.33453e-07
-8.68369e-07
9.70284e-08
-9.0364e-07
6.33732e-08
-9.35571e-07
3.23589e-08
-9.64225e-07
3.84946e-09
-9.897e-07
-2.2293e-08
-1.01211e-06
-4.62051e-08
-1.03159e-06
-6.80199e-08
-1.04828e-06
-8.78667e-08
-1.06231e-06
-1.05868e-07
-1.07383e-06
-1.22143e-07
-1.08298e-06
-1.36801e-07
-1.08991e-06
-1.49949e-07
-1.09475e-06
-1.61685e-07
-1.09764e-06
-1.72101e-07
-1.09873e-06
-1.81283e-07
-1.09814e-06
-1.89311e-07
-1.096e-06
-1.96261e-07
-1.09244e-06
-2.02203e-07
-1.08759e-06
-2.072e-07
-1.08157e-06
-2.11316e-07
-1.07449e-06
-2.14608e-07
-1.06648e-06
-1.05764e-06
-2.17134e-07
5.2959e-07
-3.49913e-07
4.69843e-07
-4.13815e-07
4.12455e-07
-4.75315e-07
3.57525e-07
-5.34373e-07
3.05166e-07
-5.90897e-07
2.55494e-07
-6.44748e-07
2.08605e-07
-6.95762e-07
1.64566e-07
-7.43763e-07
1.23406e-07
-7.88581e-07
8.51137e-08
-8.30076e-07
4.96311e-08
-8.68158e-07
1.68669e-08
-9.02807e-07
-1.32931e-08
-9.34065e-07
-4.09759e-08
-9.62017e-07
-6.63127e-08
-9.86775e-07
-8.94366e-08
-1.00847e-06
-1.10478e-07
-1.02723e-06
-1.29563e-07
-1.04322e-06
-1.46816e-07
-1.05657e-06
-1.62352e-07
-1.06744e-06
-1.76281e-07
-1.07598e-06
-1.88708e-07
-1.08232e-06
-1.99732e-07
-1.08662e-06
-2.09443e-07
-1.08902e-06
-2.17928e-07
-1.08965e-06
-2.25267e-07
-1.08866e-06
-2.31535e-07
-1.08617e-06
-2.36802e-07
-1.08232e-06
-2.41134e-07
-1.07723e-06
-2.44594e-07
-1.07103e-06
-2.47243e-07
-1.06383e-06
-1.05575e-06
-2.49139e-07
4.76848e-07
-2.91326e-07
4.20173e-07
-3.5714e-07
3.65469e-07
-4.20611e-07
3.12841e-07
-4.81745e-07
2.62426e-07
-5.40482e-07
2.14376e-07
-5.96698e-07
1.68834e-07
-6.5022e-07
1.25917e-07
-7.00846e-07
8.5706e-08
-7.4837e-07
4.82342e-08
-7.92604e-07
1.3486e-08
-8.33409e-07
-1.86009e-08
-8.7072e-07
-4.81224e-08
-9.04544e-07
-7.51924e-08
-9.34947e-07
-9.99352e-08
-9.62032e-07
-1.22479e-07
-9.85924e-07
-1.42951e-07
-1.00676e-06
-1.61477e-07
-1.02469e-06
-1.78178e-07
-1.03987e-06
-1.93168e-07
-1.05245e-06
-2.06558e-07
-1.06259e-06
-2.18451e-07
-1.07043e-06
-2.28945e-07
-1.07613e-06
-2.38131e-07
-1.07983e-06
-2.46094e-07
-1.08169e-06
-2.52916e-07
-1.08184e-06
-2.58671e-07
-1.08042e-06
-2.63429e-07
-1.07756e-06
-2.67259e-07
-1.0734e-06
-2.70224e-07
-1.06807e-06
-2.72386e-07
-1.06167e-06
-1.05433e-06
-2.73804e-07
4.3435e-07
-2.36431e-07
3.80939e-07
-3.03728e-07
3.29074e-07
-3.68747e-07
2.78871e-07
-4.31541e-07
2.30482e-07
-4.92093e-07
1.84089e-07
-5.50305e-07
1.39878e-07
-6.0601e-07
9.80208e-08
-6.58989e-07
5.86525e-08
-7.09001e-07
2.1862e-08
-7.55813e-07
-1.23174e-08
-7.9923e-07
-4.39087e-08
-8.39128e-07
-7.29808e-08
-8.75472e-07
-9.96307e-08
-9.08297e-07
-1.23973e-07
-9.3769e-07
-1.46129e-07
-9.63767e-07
-1.66224e-07
-9.86668e-07
-1.84379e-07
-1.00654e-06
-2.00714e-07
-1.02354e-06
-2.15343e-07
-1.03782e-06
-2.28373e-07
-1.04956e-06
-2.39909e-07
-1.05889e-06
-2.50047e-07
-1.06599e-06
-2.58877e-07
-1.071e-06
-2.66487e-07
-1.07408e-06
-2.72954e-07
-1.07537e-06
-2.78355e-07
-1.07501e-06
-2.82763e-07
-1.07315e-06
-2.86244e-07
-1.06992e-06
-2.88863e-07
-1.06545e-06
-2.90684e-07
-1.05985e-06
-1.05325e-06
-2.91766e-07
4.00431e-07
3.50682e-07
-2.53979e-07
3.01992e-07
-3.20057e-07
2.54469e-07
-3.84018e-07
2.08292e-07
-4.45917e-07
1.63679e-07
-5.05692e-07
1.20861e-07
-5.63192e-07
8.00638e-08
-6.18191e-07
4.14836e-08
-6.70421e-07
5.27191e-09
-7.19602e-07
-2.84783e-08
-7.6548e-07
-5.97385e-08
-8.07868e-07
-8.854e-08
-8.4667e-07
-1.14957e-07
-8.8188e-07
-1.39089e-07
-9.13558e-07
-1.6105e-07
-9.41807e-07
-1.80957e-07
-9.66761e-07
-1.9893e-07
-9.88567e-07
-2.15085e-07
-1.00738e-06
-2.29533e-07
-1.02338e-06
-2.42384e-07
-1.03671e-06
-2.53736e-07
-1.04754e-06
-2.63688e-07
-1.05604e-06
-2.72331e-07
-1.06236e-06
-2.79747e-07
-1.06666e-06
-2.86019e-07
-1.0691e-06
-2.91223e-07
-1.06981e-06
-2.95429e-07
-1.06895e-06
-2.98708e-07
-1.06664e-06
-3.01125e-07
-1.06303e-06
-3.02742e-07
-1.05823e-06
-1.05237e-06
-3.03623e-07
3.28449e-07
-2.07865e-07
2.8322e-07
-2.74828e-07
2.38717e-07
-3.39514e-07
1.95032e-07
-4.02232e-07
1.52396e-07
-4.63056e-07
1.11088e-07
-5.21884e-07
7.13949e-08
-5.78498e-07
3.3582e-08
-6.32608e-07
-2.12916e-09
-6.83891e-07
-3.55759e-08
-7.32033e-07
-6.66663e-08
-7.76778e-07
-9.53807e-08
-8.17956e-07
-1.21759e-07
-8.55501e-07
-1.45881e-07
-8.89436e-07
-1.67846e-07
-9.19842e-07
-1.87765e-07
-9.46842e-07
-2.0575e-07
-9.70581e-07
-2.21916e-07
-9.91218e-07
-2.36373e-07
-1.00892e-06
-2.49225e-07
-1.02385e-06
-2.60573e-07
-1.03619e-06
-2.70511e-07
-1.0461e-06
-2.79131e-07
-1.05374e-06
-2.86517e-07
-1.05927e-06
-2.9275e-07
-1.06286e-06
-2.97907e-07
-1.06465e-06
-3.02061e-07
-1.06479e-06
-3.05279e-07
-1.06343e-06
-3.07629e-07
-1.06068e-06
-3.09176e-07
-1.05669e-06
-1.05156e-06
-3.09981e-07
3.14363e-07
-1.6461e-07
2.72183e-07
-2.32648e-07
2.3075e-07
-2.98081e-07
1.89805e-07
-3.61287e-07
1.4939e-07
-4.22641e-07
1.09768e-07
-4.82261e-07
7.1273e-08
-5.40004e-07
3.42447e-08
-5.9558e-07
-1.01564e-09
-6.4863e-07
-3.42662e-08
-6.98783e-07
-6.53394e-08
-7.45705e-07
-9.41501e-08
-7.89145e-07
-1.20691e-07
-8.28961e-07
-1.45009e-07
-8.65118e-07
-1.67186e-07
-8.97665e-07
-1.87322e-07
-9.26706e-07
-2.05522e-07
-9.5238e-07
-2.21897e-07
-9.74844e-07
-2.36552e-07
-9.94265e-07
-2.4959e-07
-1.01082e-06
-2.6111e-07
-1.02467e-06
-2.71207e-07
-1.036e-06
-2.79969e-07
-1.04498e-06
-2.87484e-07
-1.05176e-06
-2.93831e-07
-1.05652e-06
-2.99087e-07
-1.0594e-06
-3.03326e-07
-1.06056e-06
-3.06619e-07
-1.06013e-06
-3.09032e-07
-1.05827e-06
-3.10631e-07
-1.05509e-06
-1.05071e-06
-3.1148e-07
3.08998e-07
-1.23648e-07
2.69037e-07
-1.92687e-07
2.30043e-07
-2.59087e-07
1.91678e-07
-3.22923e-07
1.53621e-07
-3.84585e-07
1.15879e-07
-4.44518e-07
7.87352e-08
-5.0286e-07
4.25707e-08
-5.59416e-07
7.76426e-09
-6.13824e-07
-2.53554e-08
-6.65663e-07
-5.65346e-08
-7.14525e-07
-8.56085e-08
-7.60071e-07
-1.12503e-07
-8.02067e-07
-1.37221e-07
-8.404e-07
-1.59818e-07
-8.75068e-07
-1.80376e-07
-9.06148e-07
-1.98993e-07
-9.33763e-07
-2.15771e-07
-9.58066e-07
-2.30812e-07
-9.79223e-07
-2.44218e-07
-9.97411e-07
-2.56085e-07
-1.0128e-06
-2.66506e-07
-1.02558e-06
-2.7557e-07
-1.03591e-06
-2.83364e-07
-1.04397e-06
-2.89969e-07
-1.04991e-06
-2.95462e-07
-1.0539e-06
-2.99919e-07
-1.0561e-06
-3.03409e-07
-1.05664e-06
-3.06003e-07
-1.05567e-06
-3.07766e-07
-1.05332e-06
-1.04972e-06
-3.08763e-07
3.12048e-07
2.73889e-07
2.3657e-07
2.0009e-07
-2.86442e-07
1.64125e-07
-3.4862e-07
1.28323e-07
-4.08716e-07
9.2681e-08
-4.67218e-07
5.75092e-08
-5.24244e-07
2.32224e-08
-5.79537e-07
-9.77132e-09
-6.32669e-07
-4.11279e-08
-6.83169e-07
-7.05926e-08
-7.30607e-07
-9.80095e-08
-7.7465e-07
-1.23318e-07
-8.15091e-07
-1.46533e-07
-8.51854e-07
-1.67713e-07
-8.84968e-07
-1.86941e-07
-9.14535e-07
-2.04312e-07
-9.40695e-07
-2.19923e-07
-9.63612e-07
-2.33871e-07
-9.83463e-07
-2.4625e-07
-1.00042e-06
-2.57153e-07
-1.01468e-06
-2.66669e-07
-1.0264e-06
-2.74883e-07
-1.03575e-06
-2.81878e-07
-1.04292e-06
-2.87734e-07
-1.04805e-06
-2.92525e-07
-1.05131e-06
-2.96325e-07
-1.05284e-06
-2.99204e-07
-1.05279e-06
-3.0123e-07
-1.0513e-06
-1.04848e-06
-3.02468e-07
2.14835e-07
-2.51182e-07
1.80288e-07
-3.14073e-07
1.46133e-07
-3.74561e-07
1.12014e-07