/*--------------------------------*- C++ -*----------------------------------*\
  =========                 |
  \\      /  F ield         | OpenFOAM: The Open Source CFD Toolbox
   \\    /   O peration     | Website:  https://openfoam.org
    \\  /    A nd           | Version:  10
     \\/     M anipulation  |
\*---------------------------------------------------------------------------*/
FoamFile
{
    format      ascii;
    class       volScalarField;
    location    "3500";
    object      k;
}
// * * * * * * * * * * * * * * * * * * * * * * * * * * * * * * * * * * * * * //

dimensions      [0 2 -2 0 0 0 0];

internalField   nonuniform List<scalar> 
420
(
2.22045e-16
2.22045e-16
2.22045e-16
2.22045e-16
2.22045e-16
2.22045e-16
2.22045e-16
2.22045e-16
2.22045e-16
2.22045e-16
2.22045e-16
2.22045e-16
2.22045e-16
2.22045e-16
2.22045e-16
2.22045e-16
2.22045e-16
2.22045e-16
2.22045e-16
2.22045e-16
2.22045e-16
2.22045e-16
2.22045e-16
2.22045e-16
2.22045e-16
2.22045e-16
2.22045e-16
2.22045e-16
2.22045e-16
2.22045e-16
2.22045e-16
2.22045e-16
2.22045e-16
2.22045e-16
2.22045e-16
2.22045e-16
2.22045e-16
2.22045e-16
2.22045e-16
2.22045e-16
2.22045e-16
2.22045e-16
2.22045e-16
2.22045e-16
2.22045e-16
2.22045e-16
2.22045e-16
2.22045e-16
2.22045e-16
2.22045e-16
2.22045e-16
2.22045e-16
2.22045e-16
2.22045e-16
2.22045e-16
2.22045e-16
2.22045e-16
2.22045e-16
2.22045e-16
2.22045e-16
2.22045e-16
2.22045e-16
2.22045e-16
2.22045e-16
2.22045e-16
2.22045e-16
2.22045e-16
2.22045e-16
2.22045e-16
2.22045e-16
2.22045e-16
2.22045e-16
2.22045e-16
2.22045e-16
2.22045e-16
2.22045e-16
2.22045e-16
2.22045e-16
2.22045e-16
2.22045e-16
2.22045e-16
2.22045e-16
2.22045e-16
2.22045e-16
2.22045e-16
2.22045e-16
2.22045e-16
2.22045e-16
2.22045e-16
2.22045e-16
2.22045e-16
2.22045e-16
2.22045e-16
2.22045e-16
2.22045e-16
2.22045e-16
2.22045e-16
2.22045e-16
2.22045e-16
2.22045e-16
2.22045e-16
2.22045e-16
2.41149e-16
2.87675e-16
3.18319e-16
3.17188e-16
3.09116e-16
2.25553e-16
2.78925e-16
3.12653e-16
2.22045e-16
2.22045e-16
2.37394e-16
2.86011e-16
3.15645e-16
3.15397e-16
3.08328e-16
2.23821e-16
2.81529e-16
3.11893e-16
2.22045e-16
2.22045e-16
2.28399e-16
2.78254e-16
3.06565e-16
3.09241e-16
3.0649e-16
2.23603e-16
2.81748e-16
3.16796e-16
2.22045e-16
2.22045e-16
2.22045e-16
2.68401e-16
2.96275e-16
3.02878e-16
3.04828e-16
2.25392e-16
2.81462e-16
3.253e-16
2.22045e-16
2.22045e-16
2.22045e-16
2.58164e-16
2.8593e-16
2.96675e-16
3.04126e-16
2.28015e-16
2.80557e-16
3.34313e-16
2.22045e-16
2.22045e-16
2.22045e-16
2.51036e-16
2.77493e-16
2.9061e-16
3.04137e-16
2.31123e-16
2.79366e-16
3.45346e-16
2.22045e-16
2.22045e-16
2.22045e-16
2.46844e-16
2.7212e-16
2.8507e-16
3.04609e-16
2.3449e-16
2.7759e-16
3.59464e-16
2.22045e-16
2.22045e-16
2.22045e-16
2.44245e-16
2.68284e-16
2.80892e-16
3.05261e-16
2.3802e-16
2.75285e-16
3.74426e-16
2.22045e-16
2.22045e-16
2.22045e-16
2.43129e-16
2.65407e-16
2.7805e-16
3.0562e-16
2.41659e-16
2.72656e-16
3.90396e-16
2.22045e-16
2.22045e-16
2.22045e-16
2.43015e-16
2.62812e-16
2.75608e-16
3.05543e-16
2.45257e-16
2.69823e-16
4.07054e-16
2.22045e-16
2.22045e-16
2.22045e-16
2.40865e-16
2.59752e-16
2.73085e-16
3.05021e-16
2.48893e-16
2.65306e-16
4.19633e-16
2.22045e-16
2.22045e-16
2.22045e-16
2.37552e-16
2.58349e-16
2.7187e-16
3.05737e-16
2.50946e-16
2.638e-16
4.16942e-16
2.22045e-16
2.22045e-16
2.22045e-16
2.3691e-16
2.59361e-16
2.7244e-16
3.06174e-16
2.52159e-16
2.63969e-16
4.13731e-16
2.22045e-16
2.22045e-16
2.27341e-16
2.37993e-16
2.62003e-16
2.74123e-16
3.04688e-16
2.528e-16
2.61265e-16
4.22366e-16
2.22045e-16
2.22209e-16
2.25907e-16
2.38089e-16
2.64616e-16
2.76047e-16
3.03118e-16
2.52654e-16
2.57491e-16
4.27898e-16
2.22045e-16
2.22045e-16
2.25191e-16
2.39984e-16
2.68938e-16
2.79102e-16
3.02189e-16
2.51387e-16
2.54221e-16
4.30451e-16
2.22045e-16
2.22045e-16
2.25993e-16
2.44381e-16
2.75379e-16
2.83908e-16
3.0191e-16
2.49573e-16
2.51726e-16
4.30583e-16
2.22045e-16
2.22045e-16
2.2833e-16
2.50872e-16
2.83745e-16
2.90361e-16
3.0251e-16
2.47268e-16
2.50186e-16
4.29417e-16
2.22045e-16
2.22695e-16
2.32093e-16
2.58931e-16
2.93168e-16
2.97898e-16
3.04004e-16
2.44525e-16
2.49349e-16
4.28642e-16
2.26815e-16
2.25766e-16
2.36246e-16
2.66653e-16
3.01355e-16
3.04422e-16
3.05873e-16
2.41257e-16
2.47119e-16
4.33625e-16
2.31196e-16
2.27064e-16
2.38153e-16
2.70907e-16
3.05452e-16
3.07219e-16
3.06944e-16
2.37369e-16
2.44776e-16
4.59821e-16
2.27798e-16
2.24468e-16
2.37948e-16
2.73627e-16
3.06672e-16
3.0778e-16
3.0631e-16
2.34309e-16
2.48986e-16
4.68743e-16
2.22045e-16
2.22045e-16
2.22045e-16
2.22045e-16
2.22045e-16
2.22045e-16
2.22045e-16
2.24614e-16
2.32338e-16
2.31553e-16
2.22045e-16
2.22045e-16
2.22045e-16
2.22045e-16
2.22045e-16
2.22045e-16
2.22045e-16
2.22045e-16
2.22045e-16
2.25564e-16
2.22045e-16
2.22045e-16
2.22045e-16
2.22045e-16
2.22045e-16
2.22045e-16
2.22045e-16
2.22045e-16
2.22045e-16
2.22045e-16
2.22045e-16
2.22045e-16
2.22045e-16
2.22045e-16
2.22045e-16
2.22045e-16
2.22045e-16
2.22045e-16
2.22045e-16
2.22045e-16
2.22045e-16
2.22045e-16
2.22045e-16
2.22045e-16
2.22045e-16
2.22045e-16
2.22045e-16
2.22045e-16
2.22045e-16
2.22045e-16
2.22045e-16
2.22045e-16
2.22045e-16
2.22045e-16
2.22045e-16
2.22045e-16
2.22045e-16
2.22045e-16
2.22045e-16
2.22045e-16
2.22045e-16
2.22045e-16
2.22045e-16
2.22045e-16
2.22045e-16
2.22045e-16
2.22045e-16
2.22045e-16
2.22045e-16
2.22045e-16
2.22045e-16
2.22045e-16
2.22045e-16
2.22045e-16
2.22045e-16
2.22045e-16
2.22045e-16
2.22045e-16
2.22045e-16
2.22045e-16
2.22045e-16
2.22045e-16
2.22045e-16
2.22045e-16
2.22045e-16
2.22045e-16
2.22045e-16
2.22045e-16
2.22045e-16
2.22045e-16
2.22045e-16
2.22045e-16
2.22045e-16
2.22045e-16
2.22045e-16
2.22045e-16
2.22045e-16
2.22045e-16
2.22045e-16
2.22045e-16
)
;

boundaryField
{
    right
    {
        type            cyclic;
    }
    left
    {
        type            cyclic;
    }
    outerWall
    {
        type            kqRWallFunction;
        value           nonuniform List<scalar> 
22
(
3.12653e-16
3.11893e-16
3.16796e-16
3.253e-16
3.34313e-16
3.45346e-16
3.59464e-16
3.74426e-16
3.90396e-16
4.07054e-16
4.19633e-16
4.16942e-16
4.13731e-16
4.22366e-16
4.27898e-16
4.30451e-16
4.30583e-16
4.29417e-16
4.28642e-16
4.33625e-16
4.59821e-16
4.68743e-16
)
;
    }
    stirrerWall
    {
        type            kqRWallFunction;
        value           uniform 2.22045e-16;
    }
    top
    {
        type            empty;
    }
    bottom
    {
        type            empty;
    }
}


// ************************************************************************* //
