/*--------------------------------*- C++ -*----------------------------------*\
  =========                 |
  \\      /  F ield         | OpenFOAM: The Open Source CFD Toolbox
   \\    /   O peration     | Website:  https://openfoam.org
    \\  /    A nd           | Version:  10
     \\/     M anipulation  |
\*---------------------------------------------------------------------------*/
FoamFile
{
    format      ascii;
    class       volScalarField;
    location    "3500";
    object      nut;
}
// * * * * * * * * * * * * * * * * * * * * * * * * * * * * * * * * * * * * * //

dimensions      [0 2 -1 0 0 0 0];

internalField   nonuniform List<scalar> 
420
(
1.04478e-20
5.73468e-20
1.45442e-19
2.54542e-19
3.64711e-19
4.675e-19
5.53145e-19
6.01044e-19
5.8816e-19
5.24387e-19
1.04473e-20
6.25561e-20
1.64574e-19
2.84819e-19
4.01072e-19
5.0523e-19
5.78905e-19
5.83941e-19
5.42861e-19
4.64225e-19
1.04471e-20
6.42948e-20
1.86224e-19
3.38071e-19
4.68551e-19
5.67277e-19
6.0611e-19
5.65945e-19
4.83047e-19
4.02314e-19
1.04472e-20
6.57588e-20
1.99356e-19
3.75332e-19
5.19102e-19
5.95764e-19
5.84975e-19
5.10098e-19
4.17601e-19
3.39506e-19
1.04476e-20
6.65318e-20
2.01688e-19
3.7688e-19
5.15558e-19
5.72737e-19
5.37735e-19
4.49965e-19
3.55046e-19
2.79425e-19
1.04483e-20
6.59827e-20
1.87022e-19
3.25516e-19
4.4104e-19
5.00857e-19
4.77502e-19
3.93825e-19
2.9737e-19
2.22664e-19
1.04493e-20
6.18871e-20
1.44136e-19
2.19254e-19
2.9313e-19
3.57128e-19
3.74434e-19
3.25397e-19
2.38292e-19
1.68172e-19
1.04506e-20
4.81642e-20
8.03417e-20
1.05898e-19
1.36369e-19
1.72431e-19
2.00221e-19
2.01605e-19
1.61321e-19
1.13635e-19
1.04522e-20
2.14589e-20
2.78594e-20
3.44828e-20
4.2606e-20
5.21117e-20
6.17607e-20
6.87223e-20
6.8014e-20
5.82364e-20
2.82342e-21
3.6643e-21
4.61494e-21
5.67535e-21
6.84552e-21
8.12545e-21
9.51514e-21
1.10146e-20
1.26238e-20
1.43428e-20
4.68789e-19
4.58592e-19
5.60929e-19
8.14044e-19
1.00424e-18
9.7059e-19
6.83604e-19
4.8623e-19
2.53668e-19
8.73023e-20
4.11984e-19
4.10315e-19
5.20451e-19
8.02856e-19
1.00055e-18
8.92807e-19
6.40486e-19
4.76994e-19
2.41154e-19
8.70925e-20
3.55028e-19
3.63106e-19
4.71179e-19
7.77462e-19
9.80618e-19
8.97546e-19
6.31382e-19
4.71525e-19
2.39817e-19
8.84626e-20
2.97934e-19
3.1492e-19
4.27872e-19
7.46572e-19
9.56281e-19
9.08108e-19
6.32243e-19
4.69934e-19
2.39233e-19
9.08362e-20
2.41359e-19
2.66457e-19
3.96151e-19
7.14372e-19
8.80343e-19
9.22011e-19
6.36875e-19
4.73027e-19
2.41646e-19
9.33496e-20
1.87289e-19
2.19748e-19
3.64276e-19
6.91036e-19
7.91421e-19
9.35161e-19
6.42307e-19
4.80091e-19
2.44729e-19
9.64252e-20
1.37492e-19
1.76941e-19
3.34765e-19
6.77559e-19
7.92038e-19
9.01425e-19
6.47838e-19
4.90105e-19
2.49483e-19
1.0036e-19
9.33264e-20
1.39523e-19
3.10475e-19
6.71999e-19
8.15389e-19
8.77962e-19
6.52168e-19
5.02017e-19
2.55811e-19
1.04527e-19
5.60609e-20
1.0824e-19
2.95022e-19
6.7623e-19
8.10543e-19
8.71738e-19
6.57927e-19
5.15129e-19
2.64294e-19
1.08973e-19
2.73738e-20
8.42801e-20
3.00915e-19
6.99024e-19
7.38683e-19
8.171e-19
6.54122e-19
5.29119e-19
2.65689e-19
1.13607e-19
1.03958e-20
7.94338e-20
3.8239e-19
6.84878e-19
7.4796e-19
8.65038e-19
6.77142e-19
5.4242e-19
2.64521e-19
1.17359e-19
1.03958e-20
1.01246e-19
4.51511e-19
7.51079e-19
8.52387e-19
8.93939e-19
6.95786e-19
5.45934e-19
2.77516e-19
1.16607e-19
5.66879e-20
2.31192e-19
5.64766e-19
7.60251e-19
8.21229e-19
8.95287e-19
6.48203e-19
5.46939e-19
2.74225e-19
1.15471e-19
2.78549e-19
5.4204e-19
6.60854e-19
7.2201e-19
7.56278e-19
8.95452e-19
6.61992e-19
5.56635e-19
2.77641e-19
1.17897e-19
5.9991e-19
6.80545e-19
6.96632e-19
7.52961e-19
7.74594e-19
8.96546e-19
6.79677e-19
5.62223e-19
2.79436e-19
1.19454e-19
7.23154e-19
7.15154e-19
7.08645e-19
7.59271e-19
8.03662e-19
8.99956e-19
7.08259e-19
5.6262e-19
2.80958e-19
1.20179e-19
7.22396e-19
6.94476e-19
6.90502e-19
7.58878e-19
8.57177e-19
9.07471e-19
7.38163e-19
5.64458e-19
2.81761e-19
1.20225e-19
6.95474e-19
6.64306e-19
6.73655e-19
7.63872e-19
8.89613e-19
9.19079e-19
7.77085e-19
5.58921e-19
2.81326e-19
1.19905e-19
6.60223e-19
6.32048e-19
6.59005e-19
7.73531e-19
9.11381e-19
9.33536e-19
8.05549e-19
5.49143e-19
2.77229e-19
1.19693e-19
6.33775e-19
6.03823e-19
6.45216e-19
7.8467e-19
9.3283e-19
9.46706e-19
7.87914e-19
5.36987e-19
2.69088e-19
1.21086e-19
6.00856e-19
5.69826e-19
6.27649e-19
7.89859e-19
9.46908e-19
9.52779e-19
6.88332e-19
5.23235e-19
2.5848e-19
1.284e-19
5.48248e-19
5.25415e-19
6.00702e-19
7.89808e-19
9.56398e-19
9.54411e-19
6.73974e-19
5.12084e-19
2.36878e-19
1.30887e-19
1.43428e-20
1.20652e-19
4.393e-19
6.81984e-19
7.30507e-19
7.20679e-19
6.96075e-19
6.7263e-19
6.55785e-19
6.11873e-19
1.26238e-20
8.69432e-20
3.08623e-19
5.66787e-19
6.75452e-19
6.90605e-19
6.83249e-19
6.68589e-19
6.4841e-19
6.35037e-19
1.10146e-20
6.06635e-20
2.06431e-19
4.10171e-19
5.50417e-19
6.00027e-19
6.13851e-19
6.15838e-19
6.12973e-19
6.07214e-19
9.51514e-21
4.73341e-20
1.29503e-19
2.53789e-19
3.80999e-19
4.7047e-19
5.14793e-19
5.35496e-19
5.42205e-19
5.42839e-19
8.12545e-21
4.03556e-20
9.94436e-20
1.78848e-19
2.64917e-19
3.4453e-19
4.05311e-19
4.41052e-19
4.54346e-19
4.55047e-19
6.84552e-21
3.56206e-20
8.6352e-20
1.4833e-19
2.13388e-19
2.74646e-19
3.23875e-19
3.51859e-19
3.58559e-19
3.54613e-19
5.67535e-21
3.12946e-20
7.86302e-20
1.3397e-19
1.86884e-19
2.30026e-19
2.55426e-19
2.61549e-19
2.54074e-19
2.45911e-19
4.61494e-21
2.64498e-20
6.80405e-20
1.11865e-19
1.43131e-19
1.57865e-19
1.59163e-19
1.5248e-19
1.42125e-19
1.37806e-19
3.6643e-21
2.06747e-20
4.2958e-20
5.51713e-20
6.01526e-20
6.12341e-20
6.02228e-20
5.77527e-20
5.43349e-20
5.41292e-20
2.82342e-21
1.04522e-20
1.04506e-20
1.04493e-20
1.04483e-20
1.04476e-20
1.04472e-20
1.04471e-20
1.04473e-20
1.04478e-20
)
;

boundaryField
{
    right
    {
        type            cyclic;
    }
    left
    {
        type            cyclic;
    }
    outerWall
    {
        type            nutkWallFunction;
        Cmu             0.09;
        kappa           0.41;
        E               9.8;
        value           uniform 0;
    }
    stirrerWall
    {
        type            nutkWallFunction;
        Cmu             0.09;
        kappa           0.41;
        E               9.8;
        value           uniform 0;
    }
    top
    {
        type            empty;
    }
    bottom
    {
        type            empty;
    }
}


// ************************************************************************* //
