/*--------------------------------*- C++ -*----------------------------------*\
  =========                 |
  \\      /  F ield         | OpenFOAM: The Open Source CFD Toolbox
   \\    /   O peration     | Website:  https://openfoam.org
    \\  /    A nd           | Version:  10
     \\/     M anipulation  |
\*---------------------------------------------------------------------------*/
FoamFile
{
    format      ascii;
    class       volScalarField;
    location    "3500";
    object      omega;
}
// * * * * * * * * * * * * * * * * * * * * * * * * * * * * * * * * * * * * * //

dimensions      [0 0 -1 0 0 0 0];

internalField   nonuniform List<scalar> 
420
(
21252.7
3871.96
1526.69
872.329
608.823
474.962
401.422
369.432
377.524
423.437
21253.7
3549.53
1349.21
779.599
553.628
439.492
383.56
372.843
409.026
478.312
21254.2
3453.54
1192.35
656.8
473.896
391.422
366.344
392.343
459.675
551.918
21254
3376.65
1113.81
591.595
427.747
372.706
379.58
435.298
531.715
654.022
21253.2
3337.42
1100.93
589.166
430.688
387.69
412.926
493.471
625.397
794.65
21251.7
3365.19
1187.27
682.131
503.457
443.33
465.013
563.815
746.694
997.216
21249.7
3587.9
1540.53
1012.73
757.495
621.751
593.014
682.381
931.816
1320.34
21247.1
4610.16
2763.75
2096.77
1628.27
1287.73
1109
1101.38
1376.41
1954.01
21243.8
10347.4
7970.18
6439.29
5211.58
4260.93
3595.24
3231.04
3264.69
3812.81
78643.9
60596.7
48114.3
39124.4
32436.5
27327.1
23335.9
20159.1
17589.3
15481.3
473.656
484.188
429.909
353.39
316.976
319.374
377.503
463.881
1030.03
3581.27
538.964
541.156
456.131
356.241
315.47
318.95
379.045
469.232
1061.92
3581.17
625.429
611.514
484.739
357.901
312.625
317.195
379.344
474.212
1085.83
3581.13
745.28
705.083
518.951
359.511
309.819
315.213
378.974
479.624
1096.18
3581.18
919.976
833.324
560.505
361.386
307.385
313.021
377.743
482.034
1091.09
3581.3
1185.57
1010.45
609.551
363.275
305.485
310.76
375.925
481.415
1079.46
3581.49
1614.96
1254.91
663.286
364.314
304.204
308.758
373.709
478.449
1060.38
3581.76
2379.23
1591.45
715.177
363.46
303.624
307.263
371.364
474.128
1036.03
3582.1
3960.78
2051.4
752.637
359.535
303.789
306.471
369.123
469.124
1009.78
3582.51
8111.56
2634.6
737.897
346.736
303.869
306.205
367.269
463.52
980.208
3582.99
21359.1
2795.34
580.675
322.911
303.178
305.558
365.54
458.856
943.921
3575.63
21359.1
2193.12
491.782
316.28
303.089
304.126
363.39
459.663
950.575
3575.63
3916.97
960.433
393.162
311.62
304.182
304.304
362.166
461.038
962.601
3582.99
797.146
409.646
322.169
308.665
307.097
306.128
360.699
454.158
941.016
3582.51
361.918
317.029
312.568
311.204
309.652
307.9
359.983
449.385
921.464
3582.1
307.05
310.485
317.777
316.071
312.557
310.129
360.016
444.853
904.838
3581.76
307.373
319.73
327.288
322.029
315.763
312.857
361.517
442.147
893.401
3581.49
319.271
334.251
338.942
328.421
318.953
315.927
364.104
442.403
889.311
3581.3
336.317
352.339
352.186
334.739
321.674
319.107
367.879
445.284
899.434
3581.18
357.88
373.895
366.151
339.829
323.054
321.559
372.521
449.28
918.357
3581.13
384.778
398.48
379.437
342.981
322.579
322.445
376.672
453.657
946.984
3581.17
415.502
427.221
396.116
346.447
320.653
322.482
378.296
457.561
992.466
3581.27
15481.3
1840.38
505.451
325.586
303.96
308.105
318.995
333.934
354.289
378.433
17589.3
2553.91
719.469
391.76
328.735
321.522
324.983
332.109
342.445
355.199
20159.1
3660.27
1075.64
541.346
403.411
370.058
361.724
360.557
362.242
365.678
23335.9
4691
1714.59
874.919
582.797
471.964
431.328
414.652
409.522
409.043
27327.1
5502.2
2232.87
1241.53
838.165
644.486
547.838
503.444
488.712
487.959
32436.5
6233.61
2571.39
1496.96
1040.57
808.477
685.588
631.061
619.27
626.16
39124.4
7095.29
2823.91
1657.42
1188.14
965.3
869.31
848.96
873.937
902.948
48114.3
8394.95
3263.42
1984.94
1551.34
1406.55
1395.08
1456.22
1562.31
1611.28
60596.7
10739.9
5168.88
4024.64
3691.36
3626.16
3687.05
3844.75
4086.59
4102.12
78643.9
21243.8
21247.1
21249.7
21251.7
21253.2
21254
21254.2
21253.7
21252.7
)
;

boundaryField
{
    right
    {
        type            cyclic;
    }
    left
    {
        type            cyclic;
    }
    outerWall
    {
        beta1           0.075;
        blended         0;
        type            omegaWallFunction;
        value           nonuniform List<scalar> 
22
(
3581.27
3581.17
3581.13
3581.18
3581.3
3581.49
3581.76
3582.1
3582.51
3582.99
3575.63
3575.63
3582.99
3582.51
3582.1
3581.76
3581.49
3581.3
3581.18
3581.13
3581.17
3581.27
)
;
    }
    stirrerWall
    {
        beta1           0.075;
        blended         0;
        type            omegaWallFunction;
        value           nonuniform List<scalar> 
42
(
21252.7
21253.7
21254.2
21254
21253.2
21251.7
21249.7
21247.1
21243.8
78643.9
78643.9
60596.7
48114.3
39124.4
32436.5
27327.1
23335.9
20159.1
17589.3
15481.3
21359.1
21359.1
15481.3
17589.3
20159.1
23335.9
27327.1
32436.5
39124.4
48114.3
60596.7
78643.9
78643.9
21243.8
21247.1
21249.7
21251.7
21253.2
21254
21254.2
21253.7
21252.7
)
;
    }
    top
    {
        type            empty;
    }
    bottom
    {
        type            empty;
    }
}


// ************************************************************************* //
