/*--------------------------------*- C++ -*----------------------------------*\
  =========                 |
  \\      /  F ield         | OpenFOAM: The Open Source CFD Toolbox
   \\    /   O peration     | Website:  https://openfoam.org
    \\  /    A nd           | Version:  10
     \\/     M anipulation  |
\*---------------------------------------------------------------------------*/
FoamFile
{
    format      ascii;
    class       volScalarField;
    location    "3500";
    object      p;
}
// * * * * * * * * * * * * * * * * * * * * * * * * * * * * * * * * * * * * * //

dimensions      [0 2 -2 0 0 0 0];

internalField   nonuniform List<scalar> 
420
(
-0.0205868
14.4597
30.1686
48.7521
69.3981
91.3226
113.818
135.797
156.399
175.351
0.347613
14.4582
29.7903
48.0233
68.3569
90.0758
112.476
134.517
155.301
174.495
0.709439
14.5736
29.5633
47.4129
67.3779
88.8198
111.05
133.071
154.007
173.546
1.13207
14.7279
29.3592
46.7586
66.2687
87.3211
109.305
131.332
152.577
172.612
1.63096
14.987
29.2236
46.0864
65.0449
85.6252
107.353
129.467
151.149
171.825
2.18021
15.4423
29.3445
45.645
64.0043
84.0712
105.503
127.729
149.928
171.305
2.72215
16.1274
29.868
45.7283
63.5366
83.0923
104.183
126.411
149.039
171.131
3.18257
16.9863
30.7649
46.3548
63.749
82.8395
103.49
125.472
148.352
171.22
3.45926
17.8696
31.8007
47.2377
64.3391
83.005
103.121
124.562
147.15
170.31
3.64971
18.773
32.7972
48.2193
65.2354
83.6479
103.287
124.025
145.564
167.726
192.746
209.555
226.23
242.029
256.018
267.472
272.984
276.377
268.677
273.158
192.151
209.198
225.989
241.682
255.424
266.595
271.735
274.935
271.259
282.616
191.608
209.018
225.986
241.643
255.288
266.434
271.579
275.405
275.263
290.292
191.214
209.049
226.182
241.845
255.526
266.823
272.265
277.472
280.785
294.808
191.059
209.301
226.548
242.238
256.013
267.535
273.452
280.402
286.681
298.098
191.168
209.749
227.062
242.802
256.698
268.515
274.952
283.382
291.962
301.907
191.67
210.381
227.649
243.509
257.578
269.74
276.64
286.026
296.034
306.417
192.601
211.16
228.236
244.33
258.687
271.241
278.585
288.577
300.068
310.125
193.317
212.3
229.112
245.39
260.082
273.081
281.08
292.027
305.405
313.097
193.138
214.351
230.816
246.897
261.835
275.345
284.316
297.253
311.335
315.451
193.915
216.091
232.682
248.669
263.826
278.109
287.413
302.633
314.151
315.123
195.719
216.827
233.774
249.76
265.098
279.89
290.071
305.678
314.774
314.03
199.706
217.401
234.454
250.766
266.416
281.528
293.19
307.127
316.028
317.104
199.391
216.977
234.222
250.927
266.947
282.472
294.773
308.57
318.137
318.56
198.426
216.145
233.559
250.515
266.815
282.678
295.551
309.673
319.032
318.924
197.634
215.195
232.604
249.627
266.008
281.951
295.079
309.248
318.212
317.882
196.915
214.19
231.456
248.367
264.593
280.35
293.477
307.383
315.516
315.25
196.148
213.16
230.208
246.858
262.691
277.97
290.705
303.87
311.207
313.188
195.35
212.184
229.013
245.327
260.611
275.074
286.546
297.787
305.328
315.948
194.602
211.37
228.046
244.074
258.851
272.3
281.532
289.071
295.923
315.591
193.955
210.728
227.343
243.238
257.752
270.453
277.838
281.853
280.999
285.04
193.351
210.063
226.685
242.571
256.818
268.836
275.47
279.226
270.774
258.592
181.587
179.873
179.324
179.152
178.989
178.626
178.055
177.338
176.611
176.056
153.92
155.829
157.608
158.792
159.506
159.733
159.479
158.809
157.91
157.19
125.543
130.112
134.096
136.805
138.493
139.365
139.479
138.925
137.871
136.801
100.467
105.323
110.117
113.745
116.158
117.54
117.984
117.568
116.461
115.091
78.7477
82.716
87.0918
90.7432
93.3296
94.8954
95.511
95.2188
94.1663
92.7144
59.7899
62.5323
65.8454
68.8762
71.1483
72.5578
73.1374
72.9121
71.9928
70.6786
43.1296
44.6873
46.7005
48.7364
50.3671
51.3921
51.7827
51.5586
50.801
49.745
28.4325
29.023
29.8457
30.7825
31.5936
32.1117
32.2691
32.0537
31.5051
30.7768
15.5339
15.3233
15.2483
15.3261
15.4652
15.5541
15.5191
15.3289
15.0048
14.6404
3.74526
2.35547
1.31552
0.704245
0.34831
0.0959233
-0.131969
-0.35815
-0.501721
-0.450922
)
;

boundaryField
{
    right
    {
        type            cyclic;
    }
    left
    {
        type            cyclic;
    }
    outerWall
    {
        type            zeroGradient;
    }
    stirrerWall
    {
        type            zeroGradient;
    }
    top
    {
        type            empty;
    }
    bottom
    {
        type            empty;
    }
}


// ************************************************************************* //
