/*--------------------------------*- C++ -*----------------------------------*\
  =========                 |
  \\      /  F ield         | OpenFOAM: The Open Source CFD Toolbox
   \\    /   O peration     | Website:  https://openfoam.org
    \\  /    A nd           | Version:  10
     \\/     M anipulation  |
\*---------------------------------------------------------------------------*/
FoamFile
{
    format      ascii;
    class       surfaceScalarField;
    location    "3500";
    object      phi;
}
// * * * * * * * * * * * * * * * * * * * * * * * * * * * * * * * * * * * * * //

dimensions      [0 3 -1 0 0 0 0];

internalField   nonuniform List<scalar> 
788
(
1.31145e-06
-1.50139e-05
4.20054e-06
-5.02744e-06
7.23579e-06
2.37657e-06
1.04933e-05
6.10943e-06
1.3393e-05
6.258e-06
1.4852e-05
2.75224e-06
1.40859e-05
-3.55149e-06
9.76124e-06
-1.137e-05
3.8037e-06
-1.87622e-05
-3.02053e-05
-1.92692e-06
-2.12484e-07
-1.48506e-05
1.89133e-06
-7.26109e-06
4.76316e-06
-6.2954e-07
7.48986e-06
3.28559e-06
9.2553e-06
4.39497e-06
9.16815e-06
2.81968e-06
6.68113e-06
-9.79296e-07
1.683e-06
-6.36989e-06
-3.58235e-06
-1.35961e-05
-2.62851e-05
-7.59959e-06
-1.37527e-06
-1.35191e-05
-1.03881e-06
-7.60761e-06
5.87507e-08
-1.80492e-06
1.26477e-06
2.00594e-06
1.65951e-06
4.01837e-06
4.80488e-07
4.09825e-06
-2.58676e-06
2.16304e-06
-7.22022e-06
-1.7652e-06
-1.12265e-05
-9.63904e-06
-2.47867e-05
-1.26984e-05
-1.85824e-06
-1.16799e-05
-2.77949e-06
-6.74677e-06
-3.14706e-06
-1.49812e-06
-3.50119e-06
2.38764e-06
-4.55139e-06
5.16776e-06
-7.10173e-06
6.74461e-06
-1.09899e-05
6.07791e-06
-1.50578e-05
2.2852e-06
-1.68822e-05
-7.79323e-06
-2.58396e-05
-1.57289e-05
-2.17858e-06
-9.51443e-06
-3.81949e-06
-5.08546e-06
-4.63163e-06
-6.57023e-07
-5.70658e-06
3.46986e-06
-7.74476e-06
7.25662e-06
-1.1186e-05
1.02891e-05
-1.54833e-05
1.04842e-05
-1.83734e-05
5.23246e-06
-1.83294e-05
-7.80886e-06
-2.79983e-05
-1.60788e-05
-2.33972e-06
-7.18203e-06
-4.47881e-06
-2.91194e-06
-5.59379e-06
5.00737e-07
-6.41951e-06
4.27727e-06
-7.7437e-06
8.64004e-06
-1.03447e-05
1.30372e-05
-1.37839e-05
1.40651e-05
-1.59501e-05
7.43305e-06
-1.53249e-05
-8.43854e-06
-2.97363e-05
-1.34956e-05
-2.14528e-06
-5.03209e-06
-4.0688e-06
-9.52744e-07
-4.90642e-06
1.39948e-06
-5.09563e-06
4.46026e-06
-5.30685e-06
8.91216e-06
-5.95907e-06
1.38032e-05
-7.05461e-06
1.52315e-05
-8.53559e-06
8.90333e-06
-8.47004e-06
-8.5041e-06
-2.94253e-05
-8.67088e-06
-1.69865e-06
-3.30562e-06
-2.96815e-06
3.6415e-07
-2.9994e-06
1.49602e-06
-2.14992e-06
3.59994e-06
-3.43954e-07
7.10007e-06
2.57317e-06
1.09096e-05
5.48867e-06
1.23399e-05
5.98186e-06
8.41346e-06
2.93613e-06
-5.41263e-06
-2.3896e-05
-2.47289e-06
-1.07026e-06
-2.18787e-06
-1.25173e-06
5.89723e-07
-8.36568e-07
1.11442e-06
3.12035e-07
2.38032e-06
3.28638e-06
4.04056e-06
8.68246e-06
5.51837e-06
1.51879e-05
5.906e-06
1.95719e-05
4.0582e-06
1.57901e-05
-1.63475e-06
-1.19475e-05
3.92494e-06
-2.14178e-06
-1.56828e-06
-5.17218e-07
1.81296e-06
5.86895e-06
1.14422e-05
1.73586e-05
2.13739e-05
1.97657e-05
7.92249e-06
-5.64845e-06
-4.79817e-05
-6.47874e-06
-7.92198e-05
-4.68971e-06
-0.0001224
-1.44957e-06
-0.00017979
2.45079e-06
-0.000254949
5.83976e-06
-0.000353428
1.20372e-05
-0.000478559
2.15364e-05
-0.00066388
1.98293e-05
-0.000820944
-0.000358723
-8.87887e-06
-4.6702e-05
-7.71212e-06
-8.03872e-05
-5.31825e-06
-0.000124815
-2.60615e-06
-0.000182565
1.04016e-07
-0.000257701
2.18228e-06
-0.000355407
5.14799e-06
-0.000481583
1.09125e-05
-0.000669688
8.64507e-06
-0.000818642
-0.000350205
-1.1554e-05
-4.78448e-05
-9.13806e-06
-8.29102e-05
-6.36007e-06
-0.000127602
-3.95079e-06
-0.00018495
-2.14067e-06
-0.000259584
-1.29775e-06
-0.000356163
-8.30517e-07
-0.000482116
1.89134e-06
-0.000672412
-3.30779e-06
-0.000813575
-0.000353553
-1.30101e-05
-5.05154e-05
-9.87793e-06
-8.61147e-05
-7.05297e-06
-0.000130418
-4.96819e-06
-0.00018698
-3.84276e-06
-0.000260719
-3.84625e-06
-0.000356017
-5.15927e-06
-0.00048083
-4.47273e-06
-0.000673203
-8.34472e-06
-0.000809775
-0.000361875
-1.27444e-05
-5.37546e-05
-9.62744e-06
-8.92325e-05
-7.07587e-06
-0.00013292
-5.34523e-06
-0.00018858
-4.77723e-06
-0.000261242
-5.51129e-06
-0.000355373
-8.10917e-06
-0.000478198
-8.66483e-06
-0.000672623
-1.04866e-05
-0.000808016
-0.000372328
-1.07883e-05
-5.63195e-05
-8.26974e-06
-9.17258e-05
-6.22758e-06
-0.000134947
-4.99173e-06
-0.000189733
-5.02189e-06
-0.000261157
-6.23178e-06
-0.000354138
-9.99405e-06
-0.000474449
-1.16346e-05
-0.000670948
-1.25945e-05
-0.000807172
-0.000384877
-7.40903e-06
-5.74395e-05
-5.81579e-06
-9.33053e-05
-4.38051e-06
-0.000136321
-3.68718e-06
-0.000190275
-4.39528e-06
-0.000260467
-6.00255e-06
-0.000352466
-1.06745e-05
-0.000469844
-1.33372e-05
-0.000668265
-1.37794e-05
-0.000806886
-0.000398652
-2.96354e-06
-5.68596e-05
-2.23138e-06
-9.40757e-05
-1.41328e-06
-0.000137073
-1.34338e-06
-0.000190154
-2.77155e-06
-0.00025904
-4.79956e-06
-0.000350379
-1.02155e-05
-0.000464594
-1.43284e-05
-0.000664121
-1.38006e-05
-0.000807349
-0.000412515
2.88256e-06
-5.57142e-05
2.68224e-06
-9.38883e-05
2.585e-06
-0.000136748
1.69872e-06
-0.000189115
-6.21653e-07
-0.000256879
-3.14548e-06
-0.000347844
-9.09988e-06
-0.00045864
-1.51486e-05
-0.000658032
-1.44125e-05
-0.000807975
-0.000426962
1.07798e-05
-5.85251e-05
8.14117e-06
-9.11694e-05
5.8029e-06
-0.000134291
3.36399e-06
-0.000186683
-6.32445e-08
-0.000253558
-2.63188e-06
-0.000345254
-7.50993e-06
-0.000453772
-1.42077e-05
-0.000651432
-1.53148e-05
-0.000806806
-0.000442272
1.56168e-06
-6.0005e-05
7.43307e-07
-9.03833e-05
-7.73998e-07
-0.000132821
-2.07836e-06
-0.000185451
-3.20319e-06
-0.000252335
-4.78844e-06
-0.000343647
-7.94914e-06
-0.000450744
-3.46869e-06
-0.00065599
3.43982e-06
-0.000813578
-0.000438845
2.18395e-06
-6.22951e-05
3.10439e-06
-9.1407e-05
2.6858e-06
-0.000132221
2.0587e-06
-0.000184918
1.40112e-06
-0.00025175
2.41495e-07
-0.00034252
-4.22639e-06
-0.000446226
-2.0432e-06
-0.000658187
4.4983e-06
-0.000820128
-0.000434373
9.43771e-06
-6.01704e-05
-1.18671e-05
1.03304e-05
-9.19325e-05
9.77572e-06
-0.000131621
7.66243e-06
-0.000183057
4.51221e-06
-0.000248617
2.26159e-06
-0.000340275
-4.41204e-06
-0.000439541
-1.47148e-05
-0.000647993
-1.2428e-05
-0.000822467
-0.000446823
8.06523e-06
-6.26723e-05
-5.38681e-06
8.75825e-06
-9.25581e-05
8.54252e-06
-0.00013137
6.8481e-06
-0.000181529
4.2355e-06
-0.000246014
1.78896e-06
-0.000337864
-2.96661e-06
-0.000434826
-1.10638e-05
-0.000640023
-1.05042e-05
-0.000823114
-0.000457328
5.70671e-06
-6.61611e-05
-2.26821e-06
7.11122e-06
-9.38974e-05
7.16067e-06
-0.000131245
5.88922e-06
-0.000180355
3.82003e-06
-0.000243969
1.46841e-06
-0.000335589
-2.5429e-06
-0.000430808
-9.69928e-06
-0.000632863
-9.46067e-06
-0.000823457
-0.000466809
5.71881e-06
-6.80106e-05
-3.90407e-06
6.65297e-06
-9.46869e-05
6.64325e-06
-0.000131106
5.61215e-06
-0.000179449
4.18241e-06
-0.000242493
2.47499e-06
-0.000333985
-2.39083e-07
-0.00042813
-6.56638e-06
-0.000626521
-7.75881e-06
-0.000822407
-0.00047459
6.24932e-06
-6.83325e-05
-5.89656e-06
6.50714e-06
-9.48534e-05
6.24557e-06
-0.000130763
5.31382e-06
-0.000178718
4.54962e-06
-0.000241689
3.74214e-06
-0.000333224
2.31804e-06
-0.000426828
-2.52791e-06
-0.000621684
-5.44951e-06
-0.000819618
-0.00048002
6.69755e-06
-6.76097e-05
-7.43946e-06
6.29723e-06
-9.43689e-05
5.73252e-06
-0.000130071
4.98195e-06
-0.000178116
5.14398e-06
-0.000241904
5.7326e-06
-0.000333883
6.283e-06
-0.000427531
3.46837e-06
-0.000618842
-1.44287e-06
-0.000814796
-0.000481401
6.90485e-06
-6.59759e-05
-8.56939e-06
5.71526e-06
-9.30725e-05
4.45915e-06
-0.000128755
3.70284e-06
-0.000177517
4.9884e-06
-0.00024322
7.49633e-06
-0.00033637
1.14282e-05
-0.000431545
1.26971e-05
-0.000620025
6.8702e-06
-0.000809174
-0.000474608
6.45231e-06
-6.30853e-05
-9.29152e-06
3.37249e-06
-8.99439e-05
4.84728e-07
-0.000125864
-6.97599e-07
-0.000176428
1.26391e-06
-0.000245005
5.98353e-06
-0.000340944
1.64655e-05
-0.000442317
2.49758e-05
-0.000628524
2.49648e-05
-0.000809112
-0.000449698
3.82774e-06
-5.77259e-05
-9.16337e-06
-2.10335e-06
-8.41173e-05
-6.12474e-06
-0.000121485
-7.08678e-06
-0.000175405
-4.44046e-06
-0.000247946
1.36972e-06
-0.000346724
1.8429e-05
-0.000459247
2.98872e-05
-0.000640039
2.89003e-05
-0.000808066
-0.000420743
-2.41342e-06
-3.43753e-06
-6.4582e-06
-7.31999e-06
-6.50311e-06
-3.46867e-06
3.07874e-07
1.34683e-05
2.76171e-05
4.23093e-05
-2.77428e-05
1.59906e-05
-3.93353e-05
6.25239e-06
-4.66016e-05
5.11319e-06
-5.06458e-05
2.61925e-07
-5.18248e-05
-4.61398e-06
-5.13721e-05
-7.85745e-06
-4.94283e-05
-1.04058e-05
-4.63332e-05
-1.22753e-05
-4.17596e-05
-1.37546e-05
-9.59299e-06
-5.77967e-06
2.18748e-05
-1.75837e-05
1.82489e-05
-2.64063e-05
1.41139e-05
-3.22545e-05
6.28824e-06
-3.50895e-05
-1.63913e-06
-3.55415e-05
-7.2521e-06
-3.43961e-05
-1.13831e-05
-3.21476e-05
-1.44867e-05
-2.92243e-05
-1.66956e-05
-1.46741e-05
3.22159e-06
1.88147e-05
-7.47923e-07
2.22871e-05
-6.32272e-06
1.97891e-05
-1.15932e-05
1.17141e-05
-1.58543e-05
2.68684e-06
-1.77291e-05
-5.30975e-06
-1.83772e-05
-1.06593e-05
-1.81694e-05
-1.47231e-05
-1.78411e-05
-1.71074e-05
-1.6992e-05
5.91898e-06
1.28587e-05
8.7748e-06
1.94055e-05
8.24992e-06
2.03783e-05
5.97341e-06
1.39836e-05
3.29846e-06
5.26333e-06
1.38863e-06
-3.45659e-06
-9.69392e-08
-9.18734e-06
-1.59445e-06
-1.32086e-05
-3.50445e-06
-1.52178e-05
-1.61392e-05
5.77945e-06
7.01826e-06
1.23352e-05
1.29181e-05
1.65536e-05
1.62479e-05
1.77212e-05
1.27307e-05
1.67581e-05
6.11235e-06
1.44007e-05
-1.12933e-06
1.18782e-05
-6.61788e-06
9.13209e-06
-1.04031e-05
6.45224e-06
-1.25243e-05
-1.39138e-05
4.30567e-06
2.75715e-06
1.09508e-05
6.39955e-06
1.7448e-05
9.75783e-06
2.12109e-05
8.86955e-06
2.23155e-05
4.96361e-06
2.12028e-05
2.15399e-08
1.89009e-05
-4.23432e-06
1.57658e-05
-7.23969e-06
1.24978e-05
-9.22269e-06
-1.07773e-05
2.57087e-06
2.64612e-07
7.40038e-06
1.60846e-06
1.33913e-05
3.60542e-06
1.81103e-05
4.06594e-06
2.04552e-05
2.62633e-06
2.04856e-05
5.78179e-08
1.87983e-05
-2.4964e-06
1.60246e-05
-4.46857e-06
1.30153e-05
-6.17403e-06
-7.64845e-06
1.30228e-06
-1.02765e-06
4.12285e-06
-1.3235e-06
7.85697e-06
-2.92294e-07
1.14039e-05
5.29511e-07
1.36387e-05
4.77057e-07
1.41446e-05
-3.62004e-07
1.30959e-05
-1.44287e-06
1.11399e-05
-2.51611e-06
8.9691e-06
-3.99291e-06
-4.91857e-06
5.1797e-07
-1.58895e-06
1.9474e-06
-2.91846e-06
3.54921e-06
-1.99741e-06
5.11793e-06
-1.02429e-06
6.13467e-06
-4.73692e-07
6.18707e-06
-3.65155e-07
5.28088e-06
-5.45891e-07
3.73043e-06
-9.77702e-07
1.65956e-06
-1.96139e-06
-2.03472e-06
-1.61708e-06
-4.55975e-06
-6.53618e-06
-7.52611e-06
-7.97908e-06
-8.34271e-06
-8.88453e-06
-9.88225e-06
-1.18357e-05
)
;

boundaryField
{
    right
    {
        type            cyclic;
        value           nonuniform List<scalar> 
20
(
0.000378471
0.000822766
0.000654428
0.000472129
0.000350452
0.000251085
0.000176222
0.000120454
8.02555e-05
5.20476e-05
3.5639e-05
2.43264e-05
1.55821e-05
4.4431e-06
-4.0299e-06
-8.99805e-06
-9.33933e-06
-5.5334e-06
2.20867e-06
1.38931e-05
)
;
    }
    left
    {
        type            cyclic;
        value           nonuniform List<scalar> 
20
(
-0.000378471
-0.000822766
-0.000654428
-0.000472129
-0.000350452
-0.000251085
-0.000176222
-0.000120454
-8.02555e-05
-5.20476e-05
-3.5639e-05
-2.43264e-05
-1.55821e-05
-4.4431e-06
4.0299e-06
8.99805e-06
9.33933e-06
5.5334e-06
-2.20867e-06
-1.38931e-05
)
;
    }
    outerWall
    {
        type            calculated;
        value           uniform 0;
    }
    stirrerWall
    {
        type            calculated;
        value           uniform 0;
    }
    top
    {
        type            empty;
        value           nonuniform List<scalar> 0();
    }
    bottom
    {
        type            empty;
        value           nonuniform List<scalar> 0();
    }
}


// ************************************************************************* //
