/*--------------------------------*- C++ -*----------------------------------*\
  =========                 |
  \\      /  F ield         | OpenFOAM: The Open Source CFD Toolbox
   \\    /   O peration     | Website:  https://openfoam.org
    \\  /    A nd           | Version:  10
     \\/     M anipulation  |
\*---------------------------------------------------------------------------*/
FoamFile
{
    format      ascii;
    class       volVectorField;
    location    "3500";
    object      U;
}
// * * * * * * * * * * * * * * * * * * * * * * * * * * * * * * * * * * * * * //

dimensions      [0 1 -1 0 0 0 0];

internalField   nonuniform List<vector> 
420
(
(0.066633 7.79837 3.39135e-18)
(-0.0727563 9.93245 -1.09989e-17)
(0.244205 11.8458 -5.30776e-17)
(0.556735 13.4321 1.89938e-17)
(0.742855 14.7037 -1.55592e-16)
(0.806285 15.6154 0)
(0.746417 16.2438 0)
(0.334177 16.6847 1.58337e-16)
(-0.188315 17.2515 -1.94449e-16)
(-0.64907 17.5375 0)
(-0.688968 7.71257 1.23659e-17)
(-1.13472 9.64341 -6.50502e-18)
(-0.852213 11.5304 8.63868e-17)
(-0.70587 13.1572 -2.47244e-16)
(-0.673582 14.4576 9.17779e-17)
(-0.783443 15.4738 4.5511e-17)
(-1.05046 16.2511 1.11436e-15)
(-1.58481 16.8974 -2.37473e-16)
(-2.09216 17.4951 4.35861e-16)
(-2.39796 17.7684 0)
(-1.38078 7.70606 3.9328e-17)
(-2.13865 9.3792 5.45265e-17)
(-2.10707 11.1516 -7.96654e-18)
(-2.24382 12.7118 2.9325e-16)
(-2.41087 14.0842 -1.74064e-16)
(-2.68622 15.2235 1.24521e-15)
(-3.07657 16.1759 4.90215e-16)
(-3.62076 16.9716 1.57063e-15)
(-4.02341 17.6 -6.18159e-16)
(-4.14278 17.7616 -1.87077e-15)
(-2.01124 7.7011 -1.05454e-17)
(-2.97442 9.19205 -4.8624e-17)
(-3.22575 10.8684 3.53179e-18)
(-3.60069 12.3463 1.38854e-16)
(-4.00399 13.7096 -2.28844e-16)
(-4.47537 14.9363 5.6954e-16)
(-5.02934 16.0011 -3.27477e-15)
(-5.57997 16.9096 0)
(-5.83398 17.4498 -1.7677e-15)
(-5.6979 17.3679 1.98633e-15)
(-2.61473 7.69516 0)
(-3.75512 9.03859 -1.38439e-17)
(-4.25389 10.6054 1.65436e-17)
(-4.71927 12.0784 0)
(-5.35906 13.4534 -1.6824e-16)
(-6.02247 14.7513 -2.16423e-16)
(-6.6762 15.8513 1.33327e-15)
(-7.16688 16.689 -1.89474e-15)
(-7.2518 17.0351 0)
(-6.99461 16.7744 -8.27549e-15)
(-3.199 7.67831 1.2356e-17)
(-4.50523 8.89798 0)
(-5.22321 10.3444 0)
(-5.82031 11.8209 3.35091e-16)
(-6.48798 13.2621 -7.33073e-16)
(-7.24251 14.6938 8.21446e-16)
(-7.92495 15.9031 5.68681e-16)
(-8.34103 16.5595 4.3769e-15)
(-8.31333 16.5857 -5.70156e-15)
(-7.99589 16.1032 4.05942e-15)
(-3.76368 7.63796 0)
(-5.18883 8.74654 -7.54158e-17)
(-5.992 10.0757 -6.56823e-16)
(-6.68665 11.5412 -1.52721e-16)
(-7.42334 13.0717 -1.7426e-15)
(-8.19717 14.5862 9.13696e-16)
(-8.81234 15.8006 -3.19428e-15)
(-9.10963 16.3212 2.65794e-16)
(-9.01321 16.1073 -1.93963e-15)
(-8.78395 15.5451 -6.77102e-15)
(-4.29082 7.54393 -3.50414e-17)
(-5.80473 8.51132 1.45298e-16)
(-6.60274 9.7529 9.60627e-16)
(-7.30708 11.151 3.13084e-16)
(-8.04817 12.6598 8.5421e-16)
(-8.71038 14.2054 0)
(-9.16628 15.5146 3.2127e-15)
(-9.42464 16.2707 4.29176e-15)
(-9.36708 16.0254 6.56642e-15)
(-9.52737 15.3311 5.57438e-15)
(-4.80163 7.34493 -3.76249e-17)
(-6.22804 8.124 2.13302e-16)
(-6.92437 9.15031 -2.17461e-16)
(-7.58798 10.2955 -1.15141e-15)
(-8.25345 11.5743 4.03716e-15)
(-8.7997 12.9993 5.88965e-15)
(-9.21917 14.4073 -2.07379e-15)
(-9.51622 15.5141 0)
(-9.72655 15.9511 0)
(-10.3788 15.4569 -6.5846e-15)
(-5.54195 7.01035 1.44867e-16)
(-7.03451 7.73146 8.53482e-16)
(-7.76558 8.85133 0)
(-8.49241 10.0427 0)
(-9.11693 11.2728 -3.42561e-15)
(-9.57617 12.497 4.27999e-17)
(-9.9298 13.6161 5.68979e-15)
(-10.2844 14.5984 -1.15176e-14)
(-10.8286 15.2743 1.31896e-14)
(-11.8759 15.3931 1.08404e-15)
(-0.904636 17.4446 0)
(-0.947783 16.9846 0)
(-0.895287 16.2104 0)
(-0.760145 15.1842 -5.63358e-16)
(-0.499358 13.9243 0)
(-0.179233 12.389 0)
(0.0414331 10.8112 5.3453e-16)
(-0.239334 7.83311 0)
(0.193398 7.2542 0)
(2.72368 28.1792 0)
(-2.46863 17.5328 8.21558e-16)
(-2.32432 16.8351 1.67392e-15)
(-2.14295 15.9399 1.60932e-16)
(-1.91266 14.8848 6.54099e-16)
(-1.59794 13.658 4.26964e-17)
(-1.19245 12.1977 6.89214e-16)
(-1.02052 10.4974 -9.92745e-17)
(-1.21349 7.45538 -1.01732e-16)
(-0.569289 7.27019 -1.01907e-15)
(0.154738 29.0059 -1.42009e-15)
(-3.987 17.2771 7.34656e-16)
(-3.67796 16.4614 0)
(-3.37697 15.5538 -1.42711e-15)
(-3.0471 14.5452 -1.22495e-15)
(-2.66872 13.3728 3.48159e-15)
(-2.18083 12.0066 -6.82252e-16)
(-2.06971 10.2745 1.00854e-15)
(-2.03555 7.12175 0)
(-1.32809 7.34322 9.52993e-16)
(-2.6091 28.7566 -6.91682e-17)
(-5.36296 16.7489 1.89151e-15)
(-4.92199 15.9092 5.07197e-15)
(-4.52377 15.0537 -5.3793e-15)
(-4.12004 14.1342 2.11228e-15)
(-3.69528 13.0392 6.00574e-18)
(-3.12375 11.7795 0)
(-3.04972 10.0533 -9.94825e-16)
(-2.74033 6.83322 -1.22888e-15)
(-1.99817 7.36039 -9.5209e-16)
(-5.00106 28.2046 5.19045e-15)
(-6.53269 16.0581 1.57577e-15)
(-6.01759 15.252 -1.58595e-15)
(-5.55905 14.4993 5.53882e-15)
(-5.12222 13.6815 -2.15193e-15)
(-4.66924 12.6742 1.74242e-15)
(-4.02532 11.522 -2.66525e-15)
(-3.96157 9.83154 1.84861e-15)
(-3.37417 6.5625 1.12937e-15)
(-2.55969 7.28202 0)
(-7.23304 27.2746 -1.02614e-14)
(-7.50149 15.3085 2.05463e-15)
(-6.96229 14.5903 -9.77655e-15)
(-6.488 13.9333 -2.89535e-15)
(-6.05655 13.1998 6.68286e-15)
(-5.59398 12.2789 5.38367e-15)
(-4.88525 11.2336 -1.20826e-17)
(-4.81747 9.60565 -2.75111e-17)
(-3.97372 6.2885 -1.30136e-15)
(-3.02507 7.13784 -1.83286e-15)
(-9.52057 26.1897 9.8028e-15)
(-8.34644 14.6586 2.02505e-15)
(-7.7953 13.9704 3.51113e-15)
(-7.32697 13.3746 0)
(-6.92227 12.7066 -2.2223e-15)
(-6.46564 11.866 -3.49101e-15)
(-5.7014 10.9235 -5.32802e-18)
(-5.62668 9.37441 -6.13423e-15)
(-4.53835 6.01065 -1.28607e-15)
(-3.43625 6.96153 3.09128e-15)
(-11.5509 24.8543 -4.45013e-15)
(-9.161 14.1381 8.66009e-15)
(-8.56162 13.3952 -3.22175e-15)
(-8.08661 12.8328 0)
(-7.71786 12.2172 -2.46247e-17)
(-7.28476 11.4459 1.43737e-14)
(-6.47388 10.5926 -5.59941e-15)
(-6.39442 9.13585 -3.99111e-15)
(-5.09185 5.73246 2.87643e-15)
(-3.80992 6.8082 -2.75643e-15)
(-13.3837 23.3721 0)
(-9.84687 13.741 1.37918e-16)
(-9.31518 12.8367 -3.43677e-15)
(-8.78841 12.3163 0)
(-8.45694 11.7339 4.88447e-15)
(-8.07013 11.0041 -1.10141e-14)
(-7.21374 10.2166 5.76117e-15)
(-7.13789 8.86882 2.11313e-15)
(-5.65664 5.49169 0)
(-4.16659 6.53321 -1.80357e-16)
(-15.0371 21.7832 5.50212e-15)
(-9.98452 13.371 3.1422e-16)
(-10.1685 12.3049 1.59837e-16)
(-9.58369 11.8319 0)
(-9.27416 11.2444 -9.75443e-15)
(-8.93898 10.5245 3.64534e-15)
(-8.01927 9.76393 -2.94375e-15)
(-7.87576 8.52709 1.94741e-15)
(-6.20616 5.29404 2.41843e-16)
(-4.52106 6.28119 2.54921e-16)
(-16.4076 19.9668 -5.59621e-15)
(-10.4624 13.2452 3.11741e-15)
(-11.166 11.7657 -4.42567e-15)
(-10.6346 11.2212 0)
(-10.216 10.6501 0)
(-9.79506 9.98478 0)
(-8.79955 9.31461 -1.51925e-15)
(-8.58663 8.18453 5.69069e-15)
(-6.5049 5.03907 0)
(-4.45498 6.4599 0)
(-17.3488 19.0146 0)
(-11.3049 12.2113 -3.10021e-15)
(-11.5935 11.3195 -4.62955e-15)
(-11.1357 10.7891 0)
(-10.6448 10.2784 2.63867e-15)
(-10.1988 9.64302 -1.98077e-15)
(-9.15335 9.05397 1.59188e-15)
(-8.92393 8.08332 2.55633e-15)
(-6.67822 4.60853 -7.42552e-17)
(-4.52011 6.1002 7.49916e-16)
(-18.3076 18.4157 0)
(-12.0893 11.3572 1.02187e-16)
(-11.8156 10.8191 -1.72239e-17)
(-11.4363 10.4469 0)
(-10.9909 9.94648 6.11873e-17)
(-10.5935 9.26824 4.23961e-15)
(-9.55259 8.65515 -3.12834e-15)
(-9.33135 7.8777 -7.45212e-15)
(-7.01588 4.09178 -3.95816e-15)
(-4.98866 5.15361 6.98977e-15)
(-19.493 16.9176 5.93561e-15)
(-13.0589 10.0011 -1.09902e-14)
(-12.6362 9.85832 4.29375e-15)
(-12.2538 9.5536 0)
(-11.8315 9.14357 -5.24857e-15)
(-11.4272 8.55156 -4.16288e-15)
(-10.3347 7.96729 6.64683e-15)
(-10.0828 7.42995 2.78119e-15)
(-7.66233 3.95778 0)
(-5.31577 4.94324 -4.27638e-15)
(-20.4384 15.0452 -6.57386e-16)
(-13.6368 8.74594 -1.99822e-16)
(-13.314 8.77203 4.09174e-15)
(-12.9778 8.54986 0)
(-12.5691 8.23103 1.02615e-14)
(-12.1487 7.71254 -5.71666e-17)
(-11.02 7.18644 -9.65412e-17)
(-10.6921 6.83865 5.93082e-15)
(-8.15876 3.51735 -4.06746e-15)
(-5.61142 4.5776 -3.99113e-15)
(-21.274 13.2342 0)
(-14.051 7.65787 -2.4795e-15)
(-13.8634 7.70684 7.47544e-15)
(-13.5954 7.549 6.17501e-15)
(-13.212 7.28963 -7.20603e-15)
(-12.776 6.84062 -1.22717e-14)
(-11.6198 6.38644 -3.09592e-16)
(-11.2435 6.23991 -3.08948e-15)
(-8.60389 3.14328 -2.18861e-15)
(-5.89939 4.2245 -4.79621e-15)
(-21.9613 11.4232 -6.72979e-15)
(-14.4637 6.62701 -6.37023e-15)
(-14.3572 6.65877 3.36311e-15)
(-14.1344 6.51399 -2.62257e-15)
(-13.7656 6.28897 -7.10729e-15)
(-13.3023 5.89939 5.64769e-15)
(-12.1171 5.5294 -3.31433e-16)
(-11.6987 5.55755 5.78316e-15)
(-8.96461 2.73845 2.41972e-15)
(-6.22177 3.88583 2.85251e-15)
(-22.521 9.63037 5.98474e-16)
(-14.9091 5.61923 1.79454e-15)
(-14.819 5.58489 -1.54907e-15)
(-14.6115 5.44123 -4.38258e-17)
(-14.2365 5.23729 6.82647e-15)
(-13.7142 4.90405 -9.67223e-15)
(-12.483 4.64044 3.09957e-15)
(-12.0444 4.84003 -3.02749e-15)
(-9.22081 2.35715 6.41267e-15)
(-6.59147 3.61225 0)
(-23.0441 7.9343 1.46328e-16)
(-15.3675 4.58056 1.74665e-15)
(-15.258 4.47837 1.5058e-15)
(-15.0509 4.31206 2.63222e-15)
(-14.6397 4.1014 -4.34212e-15)
(-14.0023 3.82355 1.82267e-15)
(-12.7073 3.68875 0)
(-12.2116 4.05247 -1.35625e-15)
(-9.32954 1.96928 -4.30305e-15)
(-6.97287 3.50887 -1.1668e-17)
(-23.7648 6.55223 5.76052e-15)
(-15.8421 3.49406 7.37966e-16)
(-15.7072 3.28173 0)
(-15.4808 3.02145 1.26918e-15)
(-14.9884 2.7733 1.18225e-15)
(-14.1994 2.58307 8.54226e-17)
(-12.8203 2.5142 -7.35936e-16)
(-12.1614 3.18465 1.34124e-15)
(-9.1464 1.47707 0)
(-7.24438 3.6529 1.7678e-15)
(-24.3433 5.46776 4.78009e-15)
(-16.3066 2.25876 7.53151e-16)
(-16.2198 1.89315 -1.41793e-15)
(-15.9978 1.5451 -1.28603e-16)
(-15.3523 1.30952 4.51531e-16)
(-14.3569 1.23528 -5.95788e-17)
(-12.8117 1.24308 7.10394e-16)
(-11.9032 2.22979 -1.19663e-15)
(-8.82803 0.91854 4.89073e-17)
(-6.9536 2.95003 1.27708e-15)
(-24.1074 3.74873 -3.26687e-15)
(-17.0798 0.640409 1.04538e-29)
(-16.8599 0.386009 0)
(-16.3144 0.235549 0)
(-15.3569 0.19571 -5.66782e-16)
(-14.0973 0.164161 0)
(-12.4783 0.445094 0)
(-10.9089 0.904964 6.04971e-16)
(-8.32769 0.446684 0)
(-7.69626 1.04677 0)
(-28.169 5.88553 -1.40967e-29)
(-14.219 11.7449 9.43632e-16)
(-14.0859 10.3666 -6.00146e-15)
(-14.1564 8.70967 5.82849e-15)
(-14.2876 7.62538 -8.22427e-15)
(-14.5473 6.65108 4.88112e-15)
(-14.9101 5.70058 -8.5286e-15)
(-15.3594 4.7344 1.92636e-15)
(-15.8585 3.71854 -1.75395e-15)
(-16.3584 2.61417 0)
(-17.0847 1.03041 -1.80347e-16)
(-15.1628 11.2582 1.3702e-14)
(-15.2806 10.1493 0)
(-14.8942 8.45951 6.19193e-15)
(-14.7497 7.42643 -2.73561e-15)
(-14.7997 6.60646 -8.62633e-15)
(-15.0071 5.71569 0)
(-15.3545 4.84464 -2.00664e-15)
(-15.7578 3.91659 -7.00205e-16)
(-16.2191 2.94189 4.74707e-16)
(-16.7753 1.52406 -2.03037e-16)
(-14.8474 10.4232 -1.13304e-14)
(-15.7751 9.44783 0)
(-15.5329 8.10936 5.659e-15)
(-15.322 7.31357 3.21944e-16)
(-15.2341 6.65131 7.6351e-15)
(-15.2863 5.8677 -3.20095e-15)
(-15.4693 5.01418 0)
(-15.7232 4.09813 2.17244e-15)
(-15.9981 3.11478 -2.97157e-16)
(-16.3221 1.86961 2.40421e-16)
(-13.6803 9.78298 5.27923e-15)
(-15.3159 8.8154 -1.94825e-15)
(-15.6598 7.58316 4.18903e-15)
(-15.6919 6.89883 -4.70487e-15)
(-15.6285 6.39111 4.41804e-16)
(-15.6846 5.93509 2.97276e-15)
(-15.7465 5.16641 -7.57992e-15)
(-15.916 4.32214 1.2981e-15)
(-16.005 3.27765 1.61061e-15)
(-16.1206 2.11903 4.24653e-17)
(-12.2689 9.22331 -7.99099e-15)
(-14.1369 8.40116 5.95506e-15)
(-15.0357 7.23518 0)
(-15.4391 6.59198 1.70766e-15)
(-15.5794 6.09795 1.7869e-15)
(-15.6417 5.63133 -1.5515e-16)
(-15.6196 4.91522 1.31561e-15)
(-15.6541 4.07401 2.3312e-15)
(-15.6343 3.07945 -4.94781e-17)
(-15.6349 2.03103 1.67252e-16)
(-10.9006 8.6516 -3.24161e-15)
(-12.5826 8.02506 5.14161e-15)
(-13.6891 6.95968 1.64772e-15)
(-14.4207 6.29914 -2.79598e-15)
(-14.7891 5.7822 -1.56185e-15)
(-14.9835 5.27394 -2.51245e-16)
(-15.0312 4.61108 -2.31927e-15)
(-15.0245 3.79309 7.01928e-16)
(-14.9443 2.84803 1.32272e-16)
(-14.8509 1.87281 -1.8031e-16)
(-9.65872 8.02583 0)
(-11.0001 7.57637 -1.82883e-15)
(-11.9598 6.65141 4.2185e-16)
(-12.8435 5.97219 -6.32515e-16)
(-13.3888 5.38379 1.07635e-15)
(-13.7034 4.80886 0)
(-13.8375 4.13275 5.45546e-16)
(-13.8558 3.33301 6.68606e-16)
(-13.7749 2.4661 -5.51159e-16)
(-13.6567 1.59638 -1.74938e-17)
(-8.57388 7.35805 0)
(-9.57241 7.00852 -5.06586e-16)
(-10.2694 6.2242 2.88917e-15)
(-11.041 5.54099 -2.03827e-15)
(-11.6191 4.8776 0)
(-11.996 4.22126 -2.63743e-16)
(-12.1946 3.50409 -5.53672e-16)
(-12.2524 2.72138 4.90371e-16)
(-12.2246 1.95191 3.56937e-16)
(-12.0988 1.19102 -1.20625e-16)
(-7.57294 6.64814 -7.99718e-16)
(-8.25153 6.40757 4.95735e-16)
(-8.81294 5.66565 4.52527e-16)
(-9.41333 4.94902 -3.93839e-16)
(-9.88638 4.23966 0)
(-10.213 3.545 3.00681e-16)
(-10.3909 2.84869 3.20724e-16)
(-10.4429 2.16028 -3.71821e-16)
(-10.4097 1.5633 -6.3171e-17)
(-10.2306 0.852146 2.93876e-18)
(-6.29989 6.2302 -1.84447e-16)
(-6.47158 5.9648 7.9032e-17)
(-6.77231 5.26575 5.61422e-17)
(-7.12496 4.54781 0)
(-7.45126 3.85422 -1.48504e-17)
(-7.72448 3.18964 0)
(-7.92012 2.54777 -3.57509e-17)
(-8.02182 1.94301 7.00371e-17)
(-8.02119 1.4089 1.86663e-17)
(-7.90031 0.713878 -4.0266e-18)
)
;

boundaryField
{
    right
    {
        type            cyclic;
    }
    left
    {
        type            cyclic;
    }
    outerWall
    {
        type            calculated;
        value           nonuniform List<vector> 
22
(
(-1.55201 41.8305 0)
(-4.64749 41.6006 0)
(-7.71741 41.1419 0)
(-10.7449 40.4569 0)
(-13.7132 39.5492 0)
(-16.6061 38.424 0)
(-19.4075 37.0874 0)
(-22.1022 35.5467 0)
(-24.6752 33.8104 0)
(-27.1124 31.8882 0)
(-28.9573 30.2506 0)
(-30.2506 28.9573 0)
(-31.8882 27.1124 0)
(-33.8104 24.6752 0)
(-35.5467 22.1022 0)
(-37.0874 19.4075 0)
(-38.424 16.6061 0)
(-39.5492 13.7132 0)
(-40.4569 10.7449 0)
(-41.1419 7.71741 0)
(-41.6006 4.64749 0)
(-41.8305 1.55201 0)
)
;
    }
    stirrerWall
    {
        type            calculated;
        value           nonuniform List<vector> 
42
(
(-0.310178 8.3662 0)
(-0.928834 8.32046 0)
(-1.54239 8.22894 0)
(-2.14746 8.09214 0)
(-2.74072 7.91082 0)
(-3.31888 7.68598 0)
(-3.87877 7.41885 0)
(-4.41729 7.11092 0)
(-4.93148 6.76387 0)
(-5.4185 6.37963 0)
(-6.07951 6.64185 0)
(-6.92878 7.56862 0)
(-7.77806 8.49539 0)
(-8.62734 9.42216 0)
(-9.47661 10.3489 0)
(-10.3259 11.2757 0)
(-11.1752 12.2025 0)
(-12.0244 13.1292 0)
(-12.8737 14.056 0)
(-13.723 14.9828 0)
(-14.4723 15.1215 0)
(-15.1215 14.4723 0)
(-14.9828 13.723 0)
(-14.056 12.8737 0)
(-13.1292 12.0244 0)
(-12.2025 11.1752 0)
(-11.2757 10.3259 0)
(-10.3489 9.47661 0)
(-9.42216 8.62734 0)
(-8.49539 7.77806 0)
(-7.56862 6.92878 0)
(-6.64185 6.07951 0)
(-6.37963 5.4185 0)
(-6.76387 4.93148 0)
(-7.11092 4.41729 0)
(-7.41885 3.87877 0)
(-7.68598 3.31888 0)
(-7.91082 2.74072 0)
(-8.09214 2.14746 0)
(-8.22894 1.54239 0)
(-8.32046 0.928834 0)
(-8.3662 0.310178 0)
)
;
    }
    top
    {
        type            empty;
    }
    bottom
    {
        type            empty;
    }
}


// ************************************************************************* //
