/*--------------------------------*- C++ -*----------------------------------*\
  =========                 |
  \\      /  F ield         | OpenFOAM: The Open Source CFD Toolbox
   \\    /   O peration     | Website:  https://openfoam.org
    \\  /    A nd           | Version:  10
     \\/     M anipulation  |
\*---------------------------------------------------------------------------*/
FoamFile
{
    format      ascii;
    class       volVectorField;
    location    "3500";
    object      Urel;
}
// * * * * * * * * * * * * * * * * * * * * * * * * * * * * * * * * * * * * * //

dimensions      [0 1 -1 0 0 0 0];

internalField   nonuniform List<vector> 
420
(
(0.400633 -1.20988 3.39135e-18)
(0.307744 -0.328902 -1.09989e-17)
(0.671221 0.330992 -5.30776e-17)
(1.03028 0.663448 1.89938e-17)
(1.26293 0.681122 -1.55592e-16)
(1.3729 0.338702 0)
(1.35957 -0.28716 0)
(0.993878 -1.10052 1.58337e-16)
(0.517936 -1.7882 -1.94449e-16)
(0.103731 -2.75658 0)
(0.311209 -1.24639 1.23659e-17)
(0.00470446 -0.561726 -6.50502e-18)
(0.426498 0.0787042 8.63868e-17)
(0.712161 0.458709 -2.47244e-16)
(0.88379 0.511985 9.17779e-17)
(0.913289 0.281057 4.5511e-17)
(0.785644 -0.188962 1.11436e-15)
(0.390677 -0.790027 -2.37473e-16)
(0.0227183 -1.43982 4.35861e-16)
(-0.143684 -2.41403 0)
(0.280077 -1.15433 3.9328e-17)
(-0.24656 -0.713604 5.45265e-17)
(0.0163179 -0.173963 -7.96654e-18)
(0.110916 0.153169 2.9325e-16)
(0.175246 0.292268 -1.74064e-16)
(0.131307 0.198136 1.24521e-15)
(-0.0276068 -0.0829668 4.90215e-16)
(-0.340348 -0.520912 1.57063e-15)
(-0.511534 -1.12624 -6.18159e-16)
(-0.399426 -2.19835 -1.87077e-15)
(0.301175 -1.01197 -1.05454e-17)
(-0.340071 -0.732913 -4.8624e-17)
(-0.269368 -0.268815 3.53179e-18)
(-0.322204 -0.00345548 1.38854e-16)
(-0.403345 0.147124 -2.28844e-16)
(-0.552523 0.160935 5.6954e-16)
(-0.784268 0.0127353 -3.27477e-15)
(-1.01265 -0.291812 0)
(-0.944387 -0.964826 -1.7677e-15)
(-0.486017 -2.25988 1.98633e-15)
(0.336507 -0.822667 0)
(-0.392999 -0.663958 -1.38439e-17)
(-0.480756 -0.282289 1.65436e-17)
(-0.535038 0.00541131 0)
(-0.76367 0.194917 -1.6824e-16)
(-1.01586 0.307048 -2.16423e-16)
(-1.25833 0.221285 1.33327e-15)
(-1.33774 -0.126917 -1.89474e-15)
(-1.01134 -0.966755 0)
(-0.342829 -2.41346 -8.27549e-15)
(0.374828 -0.597426 1.2356e-17)
(-0.433832 -0.5288 0)
(-0.654084 -0.233832 0)
(-0.753339 0.091077 3.35091e-16)
(-0.923096 0.38043 -7.33073e-16)
(-1.17965 0.6601 8.21446e-16)
(-1.36407 0.717296 5.68681e-16)
(-1.28208 0.22155 4.3769e-15)
(-0.756291 -0.904455 -5.70156e-15)
(0.0592638 -2.53926 4.05942e-15)
(0.413059 -0.350165 0)
(-0.430551 -0.352644 -7.54158e-17)
(-0.652004 -0.134892 -6.56823e-16)
(-0.764802 0.218938 -1.52721e-16)
(-0.919548 0.63759 -1.7426e-15)
(-1.11137 1.04012 9.13696e-16)
(-1.14447 1.1425 -3.19428e-15)
(-0.859646 0.550932 2.65794e-16)
(-0.181084 -0.775184 -1.93963e-15)
(0.630354 -2.4496 -6.77102e-15)
(0.465827 -0.112649 -3.50414e-17)
(-0.385762 -0.210223 1.45298e-16)
(-0.521242 -0.0339524 9.60627e-16)
(-0.562904 0.2986 3.13084e-16)
(-0.641222 0.741658 8.5421e-16)
(-0.640569 1.22145 0)
(-0.433541 1.46469 3.2127e-15)
(-0.0289353 1.15476 4.29176e-15)
(0.691636 -0.156543 6.56642e-15)
(1.19439 -1.91705 5.57438e-15)
(0.50874 0.0620033 -3.76249e-17)
(-0.178195 -0.17196 2.13302e-16)
(-0.13482 -0.159006 -2.17461e-16)
(-0.0585646 -0.0273547 -1.15141e-15)
(0.0159557 0.237624 4.03716e-15)
(0.209781 0.64876 5.88965e-15)
(0.530456 1.04285 -2.07379e-15)
(0.973605 1.13556 0)
(1.50352 0.558458 0)
(1.59158 -0.949804 -6.5846e-15)
(0.292891 0.141132 1.44867e-16)
(-0.387094 -0.0933119 8.53482e-16)
(-0.305331 0.0707128 0)
(-0.219147 0.306049 0)
(-0.0305275 0.579889 -3.42561e-15)
(0.323466 0.847802 4.27999e-17)
(0.783159 1.01046 5.68979e-15)
(1.24189 1.03625 -1.15176e-14)
(1.51111 0.755685 1.31896e-14)
(1.27731 -0.0820953 1.08404e-15)
(-0.105028 -4.11068 0)
(-0.0985671 -5.90743 0)
(0.00885439 -8.16178 0)
(0.204809 -10.8267 -5.63358e-16)
(0.532929 -13.901 0)
(0.927603 -17.4452 0)
(1.23081 -21.2472 5.3453e-16)
(1.04143 -26.6879 0)
(1.57534 -29.9934 0)
(4.21765 -12.0872 0)
(-0.0742094 -3.90388 8.21558e-16)
(0.218646 -5.93102 1.67392e-15)
(0.564495 -8.29825 1.60932e-16)
(0.976892 -10.9831 6.54099e-16)
(1.49323 -14.0144 4.26964e-17)
(2.12196 -17.4725 6.89214e-16)
(2.54106 -21.3848 -9.92745e-17)
(2.62174 -26.8759 -1.01732e-16)
(3.56893 -29.7727 -1.01907e-15)
(4.62842 -11.0392 -1.42009e-15)
(-0.0109254 -3.92323 7.34656e-16)
(0.544791 -6.0537 0)
(1.11889 -8.41706 -1.42711e-15)
(1.75117 -11.0374 -1.22495e-15)
(2.46435 -13.9945 3.48159e-15)
(3.32294 -17.3365 -6.82252e-16)
(3.84449 -21.2561 1.00854e-15)
(4.33306 -26.831 0)
(5.54365 -29.2913 9.52993e-16)
(4.8197 -10.847 -6.91682e-17)
(0.172917 -4.0986 1.89151e-15)
(0.957338 -6.23123 5.07197e-15)
(1.73582 -8.51824 -5.3793e-15)
(2.56056 -11.0226 2.11228e-15)
(3.45147 -13.8724 6.00574e-18)
(4.53911 -17.0751 0)
(5.18458 -20.9525 -9.94825e-16)
(6.12664 -26.5543 -1.22888e-15)
(7.56929 -28.6641 -9.5209e-16)
(5.34198 -10.7396 5.19045e-15)
(0.532599 -4.32204 1.57577e-15)
(1.48602 -6.39203 -1.58595e-15)
(2.42985 -8.54407 5.53882e-15)
(3.404 -10.9112 -2.15193e-15)
(4.4519 -13.634 1.74242e-15)
(5.7545 -16.6855 -2.66525e-15)
(6.54754 -20.4788 1.84861e-15)
(7.94238 -26.0761 1.12937e-15)
(9.65087 -27.9344 0)
(5.96733 -10.7959 -1.02614e-14)
(1.05441 -4.49236 2.05463e-15)
(2.12438 -6.43847 -9.77655e-15)
(3.18634 -8.45499 -2.89535e-15)
(4.26844 -10.6937 6.68286e-15)
(5.45141 -13.2811 5.38367e-15)
(6.95776 -16.1716 -1.20826e-17)
(7.90865 -19.8426 -2.75111e-17)
(9.73017 -25.4217 -1.30136e-15)
(11.7614 -27.0767 -1.83286e-15)
(6.46449 -10.7976 9.8028e-15)
(1.65308 -4.45428 2.02505e-15)
(2.82452 -6.32757 3.51113e-15)
(3.97964 -8.23547 0)
(5.14474 -10.3563 -2.2223e-15)
(6.44329 -12.8054 -3.49101e-15)
(8.13968 -15.5289 -5.32802e-18)
(9.24647 -19.0498 -6.13423e-15)
(11.4775 -24.5967 -1.28607e-15)
(13.8448 -26.063 3.09128e-15)
(7.13085 -10.8465 -4.45013e-15)
(2.22725 -4.18169 8.66009e-15)
(3.53302 -6.06042 -3.22175e-15)
(4.79016 -7.88038 0)
(6.02486 -9.88834 -2.46247e-17)
(7.41674 -12.2012 1.43737e-14)
(9.28917 -14.7614 -5.59941e-15)
(10.544 -18.108 -3.99111e-15)
(13.1478 -23.6037 2.87643e-15)
(15.8706 -24.8446 -2.75643e-15)
(7.89194 -10.8457 0)
(2.86756 -3.68506 1.37918e-16)
(4.18786 -5.66964 -3.43677e-15)
(5.58777 -7.3861 0)
(6.88597 -9.29283 4.88447e-15)
(8.34313 -11.4888 -1.10141e-14)
(10.3846 -13.8997 5.76117e-15)
(11.7726 -17.0449 2.11313e-15)
(14.7066 -22.412 0)
(17.8051 -23.5738 -1.80357e-16)
(8.71544 -10.7633 5.50212e-15)
(3.98629 -3.06566 3.1422e-16)
(4.66872 -5.15051 1.59837e-16)
(6.21292 -6.7515 0)
(7.58462 -8.58791 -9.75443e-15)
(9.09582 -10.6905 3.64534e-15)
(11.3176 -12.982 -2.94375e-15)
(12.9028 -15.9139 1.94741e-15)
(16.1685 -21.0237 2.41843e-16)
(19.6209 -22.1145 2.54921e-16)
(9.691 -10.7294 -5.59621e-15)
(4.45332 -2.33928 3.11741e-15)
(4.67547 -4.78574 -4.42567e-15)
(6.23197 -6.40088 0)
(7.7855 -8.1573 0)
(9.46298 -10.1351 0)
(11.8497 -12.2584 -1.51925e-15)
(13.603 -14.9973 5.69069e-15)
(17.3903 -19.9241 0)
(21.3285 -20.4755 0)
(10.5254 -10.1044 0)
(4.27951 -2.70445 -3.10021e-15)
(4.95793 -4.52205 -4.62955e-15)
(6.48632 -6.07741 0)
(8.1626 -7.72311 2.63867e-15)
(9.92108 -9.61502 -1.98077e-15)
(12.4196 -11.5953 1.59188e-15)
(14.2579 -14.1064 2.55633e-15)
(18.2849 -19.2866 -7.42552e-17)
(22.4153 -19.6832 7.49916e-16)
(10.8114 -9.45842 0)
(4.34729 -2.6136 1.02187e-16)
(5.63978 -4.01817 -1.72239e-17)
(7.14708 -5.34972 0)
(8.84131 -6.91229 6.11873e-17)
(10.6215 -8.76656 4.23961e-15)
(13.1934 -10.6817 -3.12834e-15)
(15.1097 -12.9008 -7.45212e-15)
(19.3019 -18.2829 -3.95816e-15)
(23.407 -18.9883 6.98977e-15)
(11.2033 -9.18101 5.93561e-15)
(4.36716 -2.71337 -1.09902e-14)
(5.87016 -3.64472 4.29375e-15)
(7.44865 -4.82258 0)
(9.19523 -6.19934 -5.24857e-15)
(11.0658 -7.86171 -4.16288e-15)
(13.7816 -9.63105 6.64683e-15)
(15.8309 -11.4805 2.78119e-15)
(20.2414 -16.4054 0)
(24.7913 -17.0284 -4.27638e-15)
(12.1081 -8.70729 -6.57386e-16)
(4.68298 -2.6423 -1.99822e-16)
(6.1416 -3.32261 4.09174e-15)
(7.73535 -4.32691 0)
(9.53647 -5.5117 1.02615e-14)
(11.4985 -6.98896 -5.71666e-17)
(14.3341 -8.57661 -9.65412e-17)
(16.5517 -10.0997 5.93082e-15)
(21.1774 -14.7223 -4.06746e-15)
(26.0414 -15.1029 -3.99113e-15)
(12.9438 -8.04146 0)
(5.06189 -2.34165 -2.4795e-15)
(6.43457 -2.91298 7.47544e-15)
(8.01476 -3.75761 6.17501e-15)
(9.85092 -4.77738 -7.20603e-15)
(11.8954 -6.06831 -1.22717e-14)
(14.8325 -7.45464 -3.09592e-16)
(17.1807 -8.63324 -3.08948e-15)
(22.0035 -12.8726 -2.18861e-15)
(27.1251 -13.0565 -4.79621e-15)
(13.7395 -7.25857 -6.72979e-15)
(5.33718 -1.92889 -6.37023e-15)
(6.67158 -2.4279 3.36311e-15)
(8.25386 -3.16035 -2.62257e-15)
(10.1279 -4.03602 -7.10729e-15)
(12.2578 -5.146 5.64769e-15)
(15.2881 -6.31361 -3.31433e-16)
(17.7495 -7.16857 5.78316e-15)
(22.7456 -10.9654 2.41972e-15)
(27.9928 -10.9006 2.85251e-15)
(14.4663 -6.35469 5.98474e-16)
(5.47108 -1.44606 1.79454e-15)
(6.82509 -1.91872 -1.54907e-15)
(8.43191 -2.54768 -4.38258e-17)
(10.3563 -3.28893 6.82647e-15)
(12.594 -4.21709 -9.67223e-15)
(15.7245 -5.13939 3.09957e-15)
(18.2659 -5.66907 -3.02749e-15)
(23.4178 -8.95941 6.41267e-15)
(28.6249 -8.5983 0)
(15.0264 -5.26607 1.46328e-16)
(5.47998 -0.955319 1.74665e-15)
(6.88239 -1.40095 1.5058e-15)
(8.52097 -1.94752 2.63222e-15)
(10.5172 -2.5792 -4.34212e-15)
(12.9094 -3.3232 1.82267e-15)
(16.1472 -3.97411 0)
(18.7941 -4.18182 -1.35625e-15)
(24.058 -6.89769 -4.30305e-15)
(29.0516 -6.0586 -1.1668e-17)
(15.1794 -3.79081 5.76052e-15)
(5.35819 -0.48201 7.37966e-16)
(6.80795 -0.94102 0)
(8.49003 -1.47442 1.26918e-15)
(10.5943 -2.02497 1.18225e-15)
(13.1679 -2.55 8.54226e-17)
(16.5228 -2.98957 -7.35936e-16)
(19.3692 -2.72955 1.34124e-15)
(24.8064 -4.89155 0)
(29.3901 -3.21884 1.7678e-15)
(15.2603 -1.96104 4.78009e-15)
(5.13003 -0.135653 7.53151e-16)
(6.54633 -0.649816 -1.41793e-15)
(8.24034 -1.16235 -1.28603e-16)
(10.5156 -1.58003 4.51531e-16)
(13.3154 -1.8559 -5.95788e-17)
(16.8585 -2.07134 7.10394e-16)
(19.979 -1.33178 -1.19663e-15)
(25.5033 -2.91669 4.89073e-17)
(30.0893 -1.18819 1.27708e-15)
(15.9378 -0.724953 -3.26687e-15)
(4.4755 -0.159199 1.04538e-29)
(6.03215 -0.463206 0)
(8.05773 -0.668593 0)
(10.654 -0.769245 -5.66782e-16)
(13.728 -0.868125 0)
(17.3559 -0.661741 0)
(21.1495 -0.284411 6.04971e-16)
(26.1933 -0.834077 0)
(29.5513 -0.335173 0)
(12.0974 4.39157 -1.40967e-29)
(1.25621 -1.40833 9.43632e-16)
(2.32085 -1.6037 -6.00146e-15)
(3.09167 -2.01209 5.82849e-15)
(3.70717 -1.78892 -8.22427e-15)
(4.09524 -1.40408 4.88112e-15)
(4.27778 -0.9512 -8.5286e-15)
(4.26846 -0.477477 1.92636e-15)
(4.10151 -0.0248134 -1.75395e-15)
(3.82411 0.359898 0)
(3.2094 0.277613 -1.80347e-16)
(-0.644123 -1.0816 1.3702e-14)
(0.112023 -1.08074 0)
(1.28782 -1.59921 6.19193e-15)
(2.1328 -1.4057 -2.73561e-15)
(2.6905 -0.950583 -8.62633e-15)
(2.99475 -0.524761 0)
(3.06008 -0.0449541 -2.00664e-15)
(2.96838 0.404708 -7.00205e-16)
(2.71588 0.827017 4.74707e-16)
(2.2644 0.817812 -2.03037e-16)
(-1.28534 -1.10317 -1.13304e-14)
(-1.39656 -1.042 0)
(-0.417006 -1.28635 5.659e-15)
(0.448282 -0.93641 3.21944e-16)
(1.10389 -0.407642 7.6351e-15)
(1.52963 0.0385518 -3.20095e-15)
(1.7322 0.446857 0)
(1.76931 0.817714 2.17244e-15)
(1.68939 1.1393 -2.97157e-16)
(1.4632 1.20991 2.40421e-16)
(-1.07466 -0.929974 5.27923e-15)
(-1.95144 -0.93422 -1.94825e-15)
(-1.60988 -1.14957 4.18903e-15)
(-1.03378 -0.769047 -4.70487e-15)
(-0.442776 -0.169781 4.41804e-16)
(-0.0545941 0.517228 2.97276e-15)
(0.24189 0.921336 -7.57992e-15)
(0.342839 1.27318 1.2981e-15)
(0.435107 1.44155 1.61061e-15)
(0.410311 1.50588 4.24653e-17)
(-0.619675 -0.676332 -7.99099e-15)
(-1.7864 -0.608323 5.95506e-15)
(-2.05174 -0.834631 0)
(-1.89303 -0.493825 1.70766e-15)
(-1.54574 0.0350831 1.7869e-15)
(-1.19748 0.624716 -1.5515e-16)
(-0.844242 0.992376 1.31561e-15)
(-0.628767 1.25648 2.3312e-15)
(-0.441515 1.38272 -4.94781e-17)
(-0.358223 1.46442 1.67252e-16)
(-0.207728 -0.434806 -3.24161e-15)
(-1.24593 -0.24434 5.14161e-15)
(-1.77097 -0.447272 1.64772e-15)
(-1.98667 -0.204653 -2.79598e-15)
(-1.90745 0.217315 -1.56185e-15)
(-1.72501 0.678548 -2.51245e-16)
(-1.46867 1.01043 -2.31927e-15)
(-1.23258 1.20698 7.01928e-16)
(-0.998763 1.29066 1.32272e-16)
(-0.828349 1.35274 -1.8031e-16)
(0.0779516 -0.247429 0)
(-0.677249 0.046959 -1.82883e-15)
(-1.1074 -0.092762 4.2185e-16)
(-1.52128 0.0503389 -6.32515e-16)
(-1.65896 0.31682 1.07635e-15)
(-1.63042 0.624629 0)
(-1.48777 0.854264 5.45546e-16)
(-1.29709 0.978281 6.68606e-16)
(-1.07635 1.04807 -5.51159e-16)
(-0.888114 1.12284 -1.74938e-17)
(0.206735 -0.102198 0)
(-0.263092 0.218971 -5.06586e-16)
(-0.482548 0.142698 2.88917e-15)
(-0.830404 0.200996 -2.03827e-15)
(-1.04089 0.308473 0)
(-1.10838 0.448126 -2.63743e-16)
(-1.05734 0.547708 -5.53672e-16)
(-0.926794 0.597999 4.90371e-16)
(-0.772926 0.673194 3.56937e-16)
(-0.583921 0.764005 -1.20625e-16)
(0.251827 0.000720748 -7.99718e-16)
(0.0444371 0.357725 4.95735e-16)
(-0.0913917 0.246685 4.52527e-16)
(-0.314151 0.190739 -3.93839e-16)
(-0.459596 0.168265 0)
(-0.510465 0.182882 3.00681e-16)
(-0.465937 0.214341 3.20724e-16)
(-0.350148 0.26819 -3.71821e-16)
(-0.204524 0.423874 -6.3171e-17)
(0.0307565 0.471645 2.93876e-18)
(0.569333 0.395357 -1.84447e-16)
(0.811344 0.654429 7.9032e-17)
(0.884269 0.509105 5.61422e-17)
(0.863162 0.37108 0)
(0.824475 0.280397 -1.48504e-17)
(0.793349 0.238397 0)
(0.792957 0.235355 -3.57509e-17)
(0.838568 0.282152 7.00371e-17)
(0.937768 0.408723 1.86663e-17)
(1.10794 0.379878 -4.0266e-18)
)
;

boundaryField
{
    right
    {
        type            cyclic;
    }
    left
    {
        type            cyclic;
    }
    outerWall
    {
        type            noSlip;
    }
    stirrerWall
    {
        type            noSlip;
    }
    top
    {
        type            empty;
    }
    bottom
    {
        type            empty;
    }
}


// ************************************************************************* //
