/*--------------------------------*- C++ -*----------------------------------*\
  =========                 |
  \\      /  F ield         | OpenFOAM: The Open Source CFD Toolbox
   \\    /   O peration     | Website:  https://openfoam.org
    \\  /    A nd           | Version:  10
     \\/     M anipulation  |
\*---------------------------------------------------------------------------*/
FoamFile
{
    format      ascii;
    class       volScalarField;
    location    "3300";
    object      k;
}
// * * * * * * * * * * * * * * * * * * * * * * * * * * * * * * * * * * * * * //

dimensions      [0 2 -2 0 0 0 0];

internalField   nonuniform List<scalar> 
420
(
2.22045e-16
2.22045e-16
2.22045e-16
2.22045e-16
2.22045e-16
2.22045e-16
2.22045e-16
2.22045e-16
2.22045e-16
2.22045e-16
2.22045e-16
2.22045e-16
2.22045e-16
2.22045e-16
2.22045e-16
2.22045e-16
2.22045e-16
2.22045e-16
2.22045e-16
2.22045e-16
2.22045e-16
2.22045e-16
2.22045e-16
2.22045e-16
2.22045e-16
2.22045e-16
2.22045e-16
2.22045e-16
2.22045e-16
2.22045e-16
2.22045e-16
2.22045e-16
2.22045e-16
2.22045e-16
2.22045e-16
2.22045e-16
2.22045e-16
2.22045e-16
2.22045e-16
2.22045e-16
2.22045e-16
2.22045e-16
2.22045e-16
2.22045e-16
2.22045e-16
2.22045e-16
2.22045e-16
2.22045e-16
2.22045e-16
2.22045e-16
2.22045e-16
2.22045e-16
2.22045e-16
2.22045e-16
2.22045e-16
2.22045e-16
2.22045e-16
2.22045e-16
2.22045e-16
2.22045e-16
2.22045e-16
2.22045e-16
2.22045e-16
2.22045e-16
2.22045e-16
2.22045e-16
2.22045e-16
2.22045e-16
2.22045e-16
2.22045e-16
2.22045e-16
2.22045e-16
2.22045e-16
2.22045e-16
2.22045e-16
2.22045e-16
2.22045e-16
2.22045e-16
2.22045e-16
2.22045e-16
2.22045e-16
2.22045e-16
2.22045e-16
2.22045e-16
2.22045e-16
2.22045e-16
2.22045e-16
2.22045e-16
2.22045e-16
2.22045e-16
2.22045e-16
2.22045e-16
2.22045e-16
2.22045e-16
2.22045e-16
2.22045e-16
2.22045e-16
2.22045e-16
2.22045e-16
2.22045e-16
2.22045e-16
2.22045e-16
2.22045e-16
2.27519e-16
2.74738e-16
2.73553e-16
2.864e-16
2.2774e-16
2.22045e-16
2.91083e-16
2.22045e-16
2.22045e-16
2.22045e-16
2.30399e-16
2.78958e-16
2.75006e-16
2.83904e-16
2.25406e-16
2.22045e-16
2.89558e-16
2.22045e-16
2.22045e-16
2.22045e-16
2.34968e-16
2.84781e-16
2.77452e-16
2.80251e-16
2.22339e-16
2.22045e-16
2.90123e-16
2.22045e-16
2.22045e-16
2.22045e-16
2.4083e-16
2.90973e-16
2.79933e-16
2.76334e-16
2.22045e-16
2.22045e-16
2.90883e-16
2.22045e-16
2.22045e-16
2.22045e-16
2.47926e-16
2.96458e-16
2.82282e-16
2.72469e-16
2.22045e-16
2.22045e-16
2.92552e-16
2.22045e-16
2.22045e-16
2.22045e-16
2.55741e-16
3.00458e-16
2.84173e-16
2.69025e-16
2.22045e-16
2.22045e-16
2.93288e-16
2.22045e-16
2.22045e-16
2.22045e-16
2.63462e-16
3.02104e-16
2.8557e-16
2.66278e-16
2.22045e-16
2.22045e-16
2.93948e-16
2.22045e-16
2.22045e-16
2.22045e-16
2.70324e-16
3.02381e-16
2.8641e-16
2.64312e-16
2.22045e-16
2.22045e-16
2.95134e-16
2.22045e-16
2.22045e-16
2.22045e-16
2.76345e-16
3.01494e-16
2.86543e-16
2.63173e-16
2.22045e-16
2.22045e-16
2.97239e-16
2.22045e-16
2.22045e-16
2.27282e-16
2.81766e-16
2.99965e-16
2.86419e-16
2.63066e-16
2.22045e-16
2.22045e-16
3.00222e-16
2.22045e-16
2.22045e-16
2.45117e-16
2.85504e-16
2.97586e-16
2.85813e-16
2.6394e-16
2.22045e-16
2.22045e-16
3.03265e-16
2.22045e-16
2.22045e-16
2.58488e-16
2.85337e-16
2.94824e-16
2.84832e-16
2.6515e-16
2.22045e-16
2.22045e-16
3.02846e-16
2.22045e-16
2.23067e-16
2.68595e-16
2.81426e-16
2.89973e-16
2.82448e-16
2.65851e-16
2.22045e-16
2.22045e-16
3.02965e-16
2.22045e-16
2.55465e-16
2.64653e-16
2.71876e-16
2.83088e-16
2.78681e-16
2.67247e-16
2.22045e-16
2.22045e-16
3.08804e-16
2.46448e-16
2.54242e-16
2.54727e-16
2.62621e-16
2.77821e-16
2.76003e-16
2.69568e-16
2.22045e-16
2.22045e-16
3.1407e-16
2.46614e-16
2.44497e-16
2.43665e-16
2.53261e-16
2.73212e-16
2.73552e-16
2.72535e-16
2.22045e-16
2.22045e-16
3.18526e-16
2.39729e-16
2.34353e-16
2.3338e-16
2.4442e-16
2.69509e-16
2.7127e-16
2.75883e-16
2.2265e-16
2.22045e-16
3.22275e-16
2.32429e-16
2.25706e-16
2.24543e-16
2.36579e-16
2.66852e-16
2.69566e-16
2.79247e-16
2.25603e-16
2.22045e-16
3.24646e-16
2.2632e-16
2.22045e-16
2.22045e-16
2.30182e-16
2.64747e-16
2.69476e-16
2.82429e-16
2.28957e-16
2.22045e-16
3.25133e-16
2.22045e-16
2.22045e-16
2.22045e-16
2.26126e-16
2.64567e-16
2.71418e-16
2.86008e-16
2.32831e-16
2.22045e-16
3.23791e-16
2.22045e-16
2.22045e-16
2.22045e-16
2.24574e-16
2.66055e-16
2.74692e-16
2.89574e-16
2.35293e-16
2.22045e-16
3.27177e-16
2.22045e-16
2.22045e-16
2.22045e-16
2.23374e-16
2.66187e-16
2.75058e-16
2.9067e-16
2.29232e-16
2.22045e-16
3.46372e-16
2.22045e-16
2.22045e-16
2.22045e-16
2.39111e-16
2.40175e-16
2.36336e-16
2.31738e-16
2.27416e-16
2.23581e-16
2.22231e-16
2.22045e-16
2.22045e-16
2.22045e-16
2.22045e-16
2.22626e-16
2.24972e-16
2.2485e-16
2.24607e-16
2.24657e-16
2.24624e-16
2.22045e-16
2.22045e-16
2.22045e-16
2.22045e-16
2.22045e-16
2.22045e-16
2.22045e-16
2.22045e-16
2.22045e-16
2.22045e-16
2.22045e-16
2.22045e-16
2.22045e-16
2.22045e-16
2.22045e-16
2.22045e-16
2.22045e-16
2.22045e-16
2.22045e-16
2.22045e-16
2.22045e-16
2.22045e-16
2.22045e-16
2.22045e-16
2.22045e-16
2.22045e-16
2.22045e-16
2.22045e-16
2.22045e-16
2.22045e-16
2.22045e-16
2.22045e-16
2.22045e-16
2.22045e-16
2.22045e-16
2.22045e-16
2.22045e-16
2.22045e-16
2.22045e-16
2.22045e-16
2.22045e-16
2.22045e-16
2.22045e-16
2.22045e-16
2.22045e-16
2.22045e-16
2.22045e-16
2.22045e-16
2.22045e-16
2.22045e-16
2.22045e-16
2.22045e-16
2.22045e-16
2.22045e-16
2.22045e-16
2.22045e-16
2.22045e-16
2.22045e-16
2.22045e-16
2.22045e-16
2.22045e-16
2.22045e-16
2.22045e-16
2.22045e-16
2.22045e-16
2.22045e-16
2.22045e-16
2.22045e-16
2.22045e-16
2.22045e-16
2.22045e-16
2.22045e-16
2.22045e-16
2.22045e-16
2.22045e-16
2.22045e-16
2.22045e-16
2.22045e-16
2.22045e-16
2.22045e-16
)
;

boundaryField
{
    right
    {
        type            cyclic;
    }
    left
    {
        type            cyclic;
    }
    outerWall
    {
        type            kqRWallFunction;
        value           nonuniform List<scalar> 
22
(
2.91083e-16
2.89558e-16
2.90123e-16
2.90883e-16
2.92552e-16
2.93288e-16
2.93948e-16
2.95134e-16
2.97239e-16
3.00222e-16
3.03265e-16
3.02846e-16
3.02965e-16
3.08804e-16
3.1407e-16
3.18526e-16
3.22275e-16
3.24646e-16
3.25133e-16
3.23791e-16
3.27177e-16
3.46372e-16
)
;
    }
    stirrerWall
    {
        type            kqRWallFunction;
        value           uniform 2.22045e-16;
    }
    top
    {
        type            empty;
    }
    bottom
    {
        type            empty;
    }
}


// ************************************************************************* //
