/*--------------------------------*- C++ -*----------------------------------*\
  =========                 |
  \\      /  F ield         | OpenFOAM: The Open Source CFD Toolbox
   \\    /   O peration     | Website:  https://openfoam.org
    \\  /    A nd           | Version:  10
     \\/     M anipulation  |
\*---------------------------------------------------------------------------*/
FoamFile
{
    format      ascii;
    class       volScalarField;
    location    "3300";
    object      nut;
}
// * * * * * * * * * * * * * * * * * * * * * * * * * * * * * * * * * * * * * //

dimensions      [0 2 -1 0 0 0 0];

internalField   nonuniform List<scalar> 
420
(
1.04478e-20
6.19946e-20
1.77902e-19
3.54428e-19
5.58659e-19
7.44247e-19
8.51328e-19
8.56901e-19
7.61905e-19
6.82959e-19
1.04473e-20
5.95725e-20
1.66518e-19
3.28979e-19
5.2257e-19
7.02969e-19
8.14789e-19
8.32256e-19
7.64647e-19
6.48001e-19
1.04471e-20
5.71102e-20
1.51803e-19
2.90879e-19
4.58791e-19
6.23188e-19
7.3797e-19
7.66048e-19
7.04613e-19
5.88463e-19
1.04472e-20
5.63849e-20
1.43456e-19
2.63009e-19
4.03613e-19
5.43535e-19
6.47794e-19
6.77805e-19
6.20604e-19
5.10996e-19
1.04476e-20
5.73646e-20
1.4206e-19
2.48054e-19
3.64217e-19
4.75803e-19
5.57404e-19
5.74319e-19
5.17155e-19
4.21492e-19
1.04483e-20
5.94621e-20
1.42894e-19
2.33071e-19
3.19947e-19
3.95585e-19
4.44242e-19
4.44713e-19
3.99619e-19
3.28085e-19
1.04493e-20
5.9234e-20
1.28471e-19
1.86153e-19
2.33892e-19
2.71806e-19
2.9283e-19
2.99153e-19
2.82938e-19
2.38297e-19
1.04506e-20
4.75443e-20
7.90448e-20
1.01379e-19
1.20495e-19
1.37203e-19
1.5107e-19
1.68688e-19
1.76537e-19
1.5224e-19
1.04522e-20
2.15021e-20
2.78992e-20
3.43045e-20
4.05251e-20
4.65679e-20
5.42666e-20
6.56054e-20
7.6243e-20
7.1091e-20
2.82342e-21
3.6643e-21
4.61494e-21
5.67535e-21
6.84552e-21
8.12545e-21
9.51514e-21
1.10146e-20
1.26238e-20
1.43428e-20
5.71803e-19
4.95791e-19
4.94833e-19
5.98525e-19
8.86915e-19
9.90688e-19
6.17663e-19
4.52661e-19
2.64703e-19
8.12792e-20
5.30433e-19
4.57108e-19
4.68742e-19
5.97615e-19
9.03396e-19
9.96046e-19
6.06303e-19
4.47514e-19
2.57087e-19
8.08559e-20
4.75163e-19
4.13338e-19
4.4333e-19
6.04828e-19
9.28052e-19
1.00315e-18
6.03797e-19
4.52136e-19
2.5006e-19
8.10143e-20
4.10084e-19
3.66659e-19
4.20488e-19
6.21853e-19
9.58651e-19
1.00998e-18
6.02966e-19
4.6388e-19
2.4277e-19
8.12255e-20
3.39464e-19
3.19385e-19
4.01898e-19
6.50434e-19
9.34328e-19
1.01525e-18
6.08304e-19
4.83584e-19
2.39399e-19
8.16888e-20
2.67698e-19
2.73379e-19
3.88624e-19
6.89957e-19
8.27916e-19
1.01769e-18
6.16762e-19
5.02308e-19
2.37633e-19
8.189e-20
1.9773e-19
2.29226e-19
3.79934e-19
6.9816e-19
8.0646e-19
9.89895e-19
6.28105e-19
5.0603e-19
2.37136e-19
8.2068e-20
1.31767e-19
1.86214e-19
3.72732e-19
7.40634e-19
8.12098e-19
9.42739e-19
6.38913e-19
5.1006e-19
2.37906e-19
8.23914e-20
7.34815e-20
1.44934e-19
3.68791e-19
7.97972e-19
8.31512e-19
9.32806e-19
6.62447e-19
5.16099e-19
2.40004e-19
8.29693e-20
3.20519e-20
1.09763e-19
3.86146e-19
8.32314e-19
8.50442e-19
9.2283e-19
6.99695e-19
5.23429e-19
2.43994e-19
8.37908e-20
1.03958e-20
8.9118e-20
4.66467e-19
8.10142e-19
8.40185e-19
8.77943e-19
7.06116e-19
5.29819e-19
2.45839e-19
8.48144e-20
1.03958e-20
1.11757e-19
5.84769e-19
7.26233e-19
7.77011e-19
7.99698e-19
6.4243e-19
5.29189e-19
2.47158e-19
8.4697e-20
6.87309e-20
2.95112e-19
6.15917e-19
7.12269e-19
7.78006e-19
8.02037e-19
6.34623e-19
5.29169e-19
2.48814e-19
8.45564e-20
2.93271e-19
5.40477e-19
6.55158e-19
7.49765e-19
8.29495e-19
8.51156e-19
6.67302e-19
5.39671e-19
2.50587e-19
8.61975e-20
5.64764e-19
6.00726e-19
6.72235e-19
7.57061e-19
8.50332e-19
8.66852e-19
6.74675e-19
5.46605e-19
2.58246e-19
8.76776e-20
6.30529e-19
6.32991e-19
6.85575e-19
7.70481e-19
8.82063e-19
9.19348e-19
6.92465e-19
5.5272e-19
2.69679e-19
8.893e-20
6.47127e-19
6.45656e-19
6.79351e-19
7.53303e-19
9.22049e-19
9.88791e-19
7.10171e-19
5.5736e-19
2.83121e-19
8.99835e-20
6.44524e-19
6.41237e-19
6.27325e-19
7.05786e-19
8.97145e-19
9.82511e-19
7.30298e-19
5.62285e-19
2.93308e-19
9.06503e-20
6.45051e-19
6.05738e-19
5.92818e-19
6.63615e-19
8.72745e-19
9.77775e-19
7.49779e-19
5.63479e-19
2.96781e-19
9.07895e-20
6.40167e-19
5.78469e-19
5.64857e-19
6.29055e-19
8.55402e-19
9.78543e-19
7.42562e-19
5.62496e-19
2.92725e-19
9.04158e-20
6.19015e-19
5.49442e-19
5.36256e-19
6.03788e-19
8.47593e-19
9.8521e-19
6.4166e-19
4.16022e-19
2.8494e-19
9.13606e-20
5.93667e-19
5.18819e-19
5.0899e-19
5.84869e-19
8.44847e-19
9.89444e-19
6.18821e-19
3.64529e-19
2.72784e-19
9.67175e-20
1.43428e-20
1.1732e-19
4.14868e-19
7.01099e-19
7.33009e-19
7.17272e-19
6.92305e-19
6.9319e-19
7.11576e-19
6.96793e-19
1.26238e-20
8.57705e-20
2.9932e-19
5.73109e-19
7.22502e-19
7.79474e-19
7.9416e-19
7.80239e-19
7.64954e-19
7.34264e-19
1.10146e-20
6.62341e-20
2.05791e-19
4.30604e-19
6.34217e-19
7.49685e-19
8.05645e-19
8.36716e-19
8.56297e-19
8.26761e-19
9.51514e-21
5.31386e-20
1.45848e-19
2.92121e-19
4.63605e-19
6.12456e-19
7.17946e-19
7.87126e-19
8.29971e-19
8.52442e-19
8.12545e-21
4.45668e-20
1.14077e-19
2.13066e-19
3.32063e-19
4.53196e-19
5.59633e-19
6.42519e-19
6.99511e-19
7.35873e-19
6.84552e-21
3.79577e-20
9.49959e-20
1.6933e-19
2.53908e-19
3.40421e-19
4.1959e-19
4.83478e-19
5.28173e-19
5.55317e-19
5.67535e-21
3.2079e-20
8.0931e-20
1.40889e-19
2.0294e-19
2.60122e-19
3.0664e-19
3.38915e-19
3.57098e-19
3.62719e-19
4.61494e-21
2.64338e-20
6.70599e-20
1.11317e-19
1.4687e-19
1.70295e-19
1.83079e-19
1.88231e-19
1.88988e-19
1.85746e-19
3.6643e-21
2.06904e-20
4.46011e-20
5.83247e-20
6.33067e-20
6.47493e-20
6.48957e-20
6.46396e-20
6.44611e-20
6.39924e-20
2.82342e-21
1.04522e-20
1.04506e-20
1.04493e-20
1.04483e-20
1.04476e-20
1.04472e-20
1.04471e-20
1.04473e-20
1.04478e-20
)
;

boundaryField
{
    right
    {
        type            cyclic;
    }
    left
    {
        type            cyclic;
    }
    outerWall
    {
        type            nutkWallFunction;
        Cmu             0.09;
        kappa           0.41;
        E               9.8;
        value           uniform 0;
    }
    stirrerWall
    {
        type            nutkWallFunction;
        Cmu             0.09;
        kappa           0.41;
        E               9.8;
        value           uniform 0;
    }
    top
    {
        type            empty;
    }
    bottom
    {
        type            empty;
    }
}


// ************************************************************************* //
