/*--------------------------------*- C++ -*----------------------------------*\
  =========                 |
  \\      /  F ield         | OpenFOAM: The Open Source CFD Toolbox
   \\    /   O peration     | Website:  https://openfoam.org
    \\  /    A nd           | Version:  10
     \\/     M anipulation  |
\*---------------------------------------------------------------------------*/
FoamFile
{
    format      ascii;
    class       volScalarField;
    location    "3300";
    object      omega;
}
// * * * * * * * * * * * * * * * * * * * * * * * * * * * * * * * * * * * * * //

dimensions      [0 0 -1 0 0 0 0];

internalField   nonuniform List<scalar> 
420
(
21252.7
3581.68
1248.13
626.487
397.46
298.348
260.822
258.395
280.771
325.122
21253.7
3727.3
1333.46
674.951
424.909
315.867
272.518
266.798
290.388
342.661
21254.2
3888
1462.72
763.356
483.978
356.304
300.886
289.857
315.13
377.33
21254
3938.02
1547.83
844.248
550.142
408.519
342.77
327.594
357.788
434.533
21253.2
3870.76
1563.04
895.146
609.649
466.674
398.355
386.623
429.358
526.807
21251.7
3734.22
1553.91
952.691
694.004
561.306
499.828
499.299
555.64
676.79
21249.7
3748.6
1728.37
1192.81
949.345
816.924
758.272
742.245
784.781
931.797
21247.1
4670.27
2809.1
2190.25
1842.77
1618.36
1469.81
1316.3
1257.78
1458.51
21243.8
10326.7
7958.81
6472.75
5479.18
4768.19
4091.73
3384.55
2912.33
3123.38
78643.9
60596.7
48114.3
39124.4
32436.5
27327.1
23335.9
20159.1
17589.3
15481.3
388.324
447.859
448.726
380.132
309.768
276.124
335.864
427.473
838.846
3581.27
418.61
485.76
473.703
385.531
308.788
276.097
336.178
431.667
863.695
3581.17
467.302
537.199
500.856
388.487
306.859
276.582
335.893
435.473
887.964
3581.13
541.461
605.588
528.065
387.278
303.523
277.166
335.369
439.549
914.629
3581.18
654.104
695.225
552.49
381.17
299.141
278.041
334.564
441.279
927.508
3581.3
829.46
812.222
571.361
370.662
294.548
279.232
333.755
440.833
934.401
3581.49
1122.97
968.671
584.43
357.749
290.5
280.422
332.842
438.798
936.36
3581.76
1685.13
1192.42
595.721
345.743
287.421
281.414
331.935
435.33
933.329
3582.1
3021.78
1532.04
602.087
334.242
285.047
282.092
330.994
430.236
925.17
3582.51
6927.65
2022.94
588.59
322.881
283.745
282.562
330.372
424.211
910.041
3582.99
21359.1
2491.58
525.477
312.053
283.562
282.869
330.599
419.095
903.211
3575.63
21359.1
1986.85
442.034
306.434
283.627
282.33
330.457
419.594
898.39
3575.63
3230.64
755.873
358.643
302.569
283.231
281.252
329.739
419.61
892.414
3582.99
757.131
399.439
325.373
302.884
283.352
278.885
327.436
411.444
886.098
3582.51
384.813
337.559
324.163
307.894
285.198
277.055
326.169
406.225
859.819
3582.1
329.356
332.799
331.88
315.233
288.16
275.395
325.019
401.73
823.367
3581.76
324.943
340.251
343.533
324.464
292.293
274.345
324.592
399.473
784.274
3581.49
329.965
351.985
357.938
335.2
297.445
274.364
325.063
401.226
757.036
3581.3
337.618
366.569
374.558
346.861
303.35
275.602
326.927
406.328
748.178
3581.18
346.854
383.849
393.099
359.469
309.29
277.37
330.105
413.925
758.544
3581.13
358.707
404.127
414.064
371.943
313.895
278.815
334.166
422.837
779.267
3581.17
374.022
427.981
436.245
381.921
315.071
277.992
336.204
427.253
813.995
3581.27
15481.3
1892.64
535.218
341.052
310.189
307.016
308.891
311.332
314.205
318.933
17589.3
2588.82
741.83
387.439
308.133
288.62
283.129
280.635
278.493
278.749
20159.1
3352.42
1078.98
515.659
350.108
296.184
275.611
265.376
259.308
257.097
23335.9
4178.59
1522.44
760.112
478.952
362.548
309.278
282.095
267.533
260.481
27327.1
4982.29
1946.44
1042.14
668.682
489.953
396.768
345.585
317.428
301.743
32436.5
5849.8
2337.41
1311.32
874.507
652.264
529.194
459.265
420.401
399.852
39124.4
6921.8
2743.63
1576.03
1094.14
853.617
724.122
655.164
621.803
612.166
48114.3
8400.04
3311.14
1994.71
1511.84
1303.89
1212.83
1179.64
1174.92
1195.42
60596.7
10731.7
4978.45
3807.04
3507.44
3429.3
3421.56
3435.12
3444.63
3469.86
78643.9
21243.8
21247.1
21249.7
21251.7
21253.2
21254
21254.2
21253.7
21252.7
)
;

boundaryField
{
    right
    {
        type            cyclic;
    }
    left
    {
        type            cyclic;
    }
    outerWall
    {
        beta1           0.075;
        blended         0;
        type            omegaWallFunction;
        value           nonuniform List<scalar> 
22
(
3581.27
3581.17
3581.13
3581.18
3581.3
3581.49
3581.76
3582.1
3582.51
3582.99
3575.63
3575.63
3582.99
3582.51
3582.1
3581.76
3581.49
3581.3
3581.18
3581.13
3581.17
3581.27
)
;
    }
    stirrerWall
    {
        beta1           0.075;
        blended         0;
        type            omegaWallFunction;
        value           nonuniform List<scalar> 
42
(
21252.7
21253.7
21254.2
21254
21253.2
21251.7
21249.7
21247.1
21243.8
78643.9
78643.9
60596.7
48114.3
39124.4
32436.5
27327.1
23335.9
20159.1
17589.3
15481.3
21359.1
21359.1
15481.3
17589.3
20159.1
23335.9
27327.1
32436.5
39124.4
48114.3
60596.7
78643.9
78643.9
21243.8
21247.1
21249.7
21251.7
21253.2
21254
21254.2
21253.7
21252.7
)
;
    }
    top
    {
        type            empty;
    }
    bottom
    {
        type            empty;
    }
}


// ************************************************************************* //
