/*--------------------------------*- C++ -*----------------------------------*\
  =========                 |
  \\      /  F ield         | OpenFOAM: The Open Source CFD Toolbox
   \\    /   O peration     | Website:  https://openfoam.org
    \\  /    A nd           | Version:  10
     \\/     M anipulation  |
\*---------------------------------------------------------------------------*/
FoamFile
{
    format      ascii;
    class       volScalarField;
    location    "3300";
    object      p;
}
// * * * * * * * * * * * * * * * * * * * * * * * * * * * * * * * * * * * * * //

dimensions      [0 2 -2 0 0 0 0];

internalField   nonuniform List<scalar> 
420
(
-0.0233782
15.6265
31.7771
50.1602
70.197
91.3914
113.259
135.101
156.413
176.664
-0.323414
15.0253
30.9539
49.1476
69.123
90.4454
112.629
134.899
156.575
177.071
-0.713468
14.4753
30.1761
48.1715
68.0718
89.5098
111.983
134.602
156.587
177.326
-1.06555
14.0108
29.5169
47.3221
67.1179
88.5725
111.183
134.041
156.313
177.338
-1.3485
13.6708
28.9946
46.5749
66.1726
87.4971
110.084
133.082
155.639
177.024
-1.52966
13.4849
28.6198
45.9029
65.1679
86.1913
108.581
131.626
154.479
176.334
-1.618
13.4568
28.4004
45.301
64.0897
84.6281
106.634
129.609
152.787
175.312
-1.65653
13.5728
28.3392
44.7887
62.9877
82.8806
104.32
127.035
150.527
173.932
-1.73639
13.8328
28.4359
44.4203
62.0224
81.2173
101.946
124.116
147.525
171.473
-2.01938
14.1536
28.4742
44.0351
61.1358
79.721
99.7624
121.208
143.841
167.326
195.355
213.086
230.165
246.295
261.323
275.198
284.864
297.32
299.914
311.796
195.862
213.572
230.558
246.596
261.587
275.504
285.612
298.86
303.767
315.449
196.275
214.035
230.977
246.995
262.047
276.11
286.779
301.09
307.792
317.584
196.522
214.406
231.362
247.431
262.62
276.924
288.169
303.414
311.517
319.875
196.553
214.652
231.696
247.901
263.293
277.903
289.778
305.743
314.514
322.586
196.356
214.742
231.942
248.374
264.011
278.943
291.333
307.796
317.217
325.667
196.039
214.642
231.991
248.768
264.725
280.016
292.824
309.705
319.635
327.868
195.719
214.377
231.767
249.028
265.438
281.128
294.311
311.756
322.331
328.979
194.956
214.202
231.561
249.263
266.19
282.331
296.021
314.545
326.254
329.651
193.161
214.652
231.923
249.666
266.955
283.527
297.865
318.087
329.711
329.482
192.251
214.791
232.379
250.155
267.527
284.341
298.446
320.705
327.687
325.41
192.724
214.561
232.622
250.318
267.598
284.36
298.384
319.978
323.802
321.452
197.382
215.026
232.973
250.666
267.824
284.359
298.666
316.996
321.804
321.264
197.095
214.764
232.764
250.553
267.691
284.063
298.192
315.659
321.062
319.347
195.993
214.113
232.25
250.065
267.151
283.377
297.322
314.636
319.725
316.976
195.122
213.366
231.557
249.318
266.271
282.276
295.899
312.834
317.322
314.216
194.545
212.726
230.827
248.428
265.162
280.912
294.22
310.586
314.239
311.74
194.192
212.237
230.16
247.522
263.983
279.515
292.566
308.155
311.349
312.475
194.026
211.938
229.663
246.756
262.905
278.14
290.545
304.932
309.902
320.53
194.053
211.885
229.45
246.291
262.083
276.724
287.619
299.916
307.419
331.995
194.309
212.122
229.562
246.171
261.572
275.517
284.659
295.589
301.754
319.677
194.831
212.591
229.844
246.198
261.339
275.146
284.092
295.956
300.187
299.42
180.868
178.414
176.968
176.246
175.872
175.687
175.624
175.669
175.845
176.239
156.036
155.922
155.894
155.932
156
156.067
156.11
156.119
156.108
156.222
130.101
131.971
133.508
134.506
135.153
135.538
135.706
135.677
135.472
135.26
106.207
108.527
110.856
112.533
113.664
114.348
114.653
114.626
114.304
113.821
84.674
86.651
88.9339
90.7864
92.104
92.9255
93.3015
93.2805
92.9039
92.2419
65.2399
66.6883
68.4706
70.0496
71.2292
71.9777
72.31
72.2601
71.8656
71.1525
47.7801
48.7132
49.8185
50.8509
51.6443
52.1328
52.3053
52.1743
51.7595
51.0742
32.2552
32.6974
33.114
33.489
33.7647
33.8935
33.8433
33.6043
33.1756
32.5704
18.6917
18.5612
18.3674
18.1928
18.0333
17.8496
17.601
17.2638
16.8184
16.2868
6.17862
5.08685
4.08014
3.39664
2.89186
2.44619
1.99324
1.498
0.936579
0.416371
)
;

boundaryField
{
    right
    {
        type            cyclic;
    }
    left
    {
        type            cyclic;
    }
    outerWall
    {
        type            zeroGradient;
    }
    stirrerWall
    {
        type            zeroGradient;
    }
    top
    {
        type            empty;
    }
    bottom
    {
        type            empty;
    }
}


// ************************************************************************* //
