/*--------------------------------*- C++ -*----------------------------------*\
  =========                 |
  \\      /  F ield         | OpenFOAM: The Open Source CFD Toolbox
   \\    /   O peration     | Website:  https://openfoam.org
    \\  /    A nd           | Version:  10
     \\/     M anipulation  |
\*---------------------------------------------------------------------------*/
FoamFile
{
    format      ascii;
    class       surfaceScalarField;
    location    "3300";
    object      phi;
}
// * * * * * * * * * * * * * * * * * * * * * * * * * * * * * * * * * * * * * //

dimensions      [0 3 -1 0 0 0 0];

internalField   nonuniform List<scalar> 
788
(
5.49899e-07
1.28084e-07
1.07187e-06
1.61709e-05
1.93481e-06
2.15315e-05
3.15151e-06
2.41449e-05
4.62493e-06
2.42592e-05
6.35982e-06
2.15127e-05
8.32941e-06
1.38631e-05
1.01219e-05
-4.59177e-08
1.15214e-05
-1.82621e-05
-3.67993e-05
1.18535e-05
1.1146e-06
-9.75261e-07
1.99917e-06
1.53006e-05
3.17637e-06
2.03211e-05
4.8365e-06
2.23919e-05
7.01027e-06
2.20291e-05
9.97789e-06
1.85724e-05
1.34378e-05
1.0418e-05
1.599e-05
-2.63569e-06
1.66337e-05
-1.89547e-05
-3.60452e-05
1.57915e-05
1.77782e-06
-2.71628e-06
4.00839e-06
1.30193e-05
6.54722e-06
1.7631e-05
9.54136e-06
1.92884e-05
1.28264e-05
1.87224e-05
1.63123e-05
1.50648e-05
1.91891e-05
7.46949e-06
2.03857e-05
-3.88129e-06
1.98908e-05
-1.8423e-05
-3.43364e-05
1.8214e-05
1.81003e-06
-4.55747e-06
4.69977e-06
1.00158e-05
8.10306e-06
1.41177e-05
1.1876e-05
1.54414e-05
1.56983e-05
1.48402e-05
1.92026e-05
1.14818e-05
2.17277e-05
4.85178e-06
2.23509e-05
-4.55175e-06
2.13229e-05
-1.73595e-05
-3.19079e-05
1.89274e-05
1.4023e-06
-5.9901e-06
4.29289e-06
7.01744e-06
7.97271e-06
1.03286e-05
1.20193e-05
1.13146e-05
1.60569e-05
1.0732e-05
1.95419e-05
7.93059e-06
2.19077e-05
2.44319e-06
2.23353e-05
-4.98081e-06
2.08129e-05
-1.58348e-05
-2.86349e-05
1.74937e-05
6.71244e-07
-6.68784e-06
3.0951e-06
4.50717e-06
6.59508e-06
6.73866e-06
1.05331e-05
7.32826e-06
1.44751e-05
6.76258e-06
1.7832e-05
4.54051e-06
1.9856e-05
3.79436e-07
1.99253e-05
-5.09299e-06
1.75459e-05
-1.35146e-05
-2.41278e-05
1.29641e-05
-3.26623e-07
-6.38675e-06
1.34101e-06
2.79067e-06
4.30073e-06
3.73731e-06
7.72949e-06
3.88992e-06
1.11606e-05
3.31612e-06
1.39458e-05
1.7074e-06
1.52267e-05
-9.62615e-07
1.44511e-05
-4.36295e-06
1.0737e-05
-9.81096e-06
-1.82846e-05
4.91475e-06
-1.49987e-06
-4.90592e-06
-6.61263e-07
1.93425e-06
1.47442e-06
1.5864e-06
3.97725e-06
1.38963e-06
6.40037e-06
8.89176e-07
8.12887e-06
-3.87633e-08
8.38038e-06
-1.21615e-06
6.50518e-06
-2.43405e-06
1.48781e-06
-4.67738e-06
-1.1794e-05
-4.85745e-06
-2.94918e-06
-1.96683e-06
-2.59863e-06
1.57888e-06
-1.47835e-06
4.80225e-07
-1.62717e-07
1.07618e-07
1.12307e-06
-3.45839e-07
1.98772e-06
-8.3203e-07
1.8873e-06
-1.02784e-06
5.20823e-08
-4.76673e-07
-4.84946e-06
3.75091e-07
-5.08588e-06
-1.14325e-05
-1.9723e-06
-3.8301e-07
1.29471e-07
2.80581e-07
-2.11589e-08
-8.19807e-07
-1.81754e-06
-2.26483e-06
-1.87979e-06
-6.93746e-06
1.11203e-05
-5.65258e-05
9.8815e-06
-8.68243e-05
8.81276e-06
-0.000127382
7.88973e-06
-0.000178
7.17784e-06
-0.000241973
7.89368e-06
-0.000328708
8.1594e-06
-0.000408679
6.2045e-06
-0.000624868
1.67209e-05
-0.000771026
-0.000616684
1.38349e-05
-5.47137e-05
1.1427e-05
-8.44943e-05
9.43926e-06
-0.000125448
7.86956e-06
-0.000176429
6.61999e-06
-0.000240575
6.21162e-06
-0.000328434
6.2775e-06
-0.000408767
3.42645e-06
-0.000621974
4.24151e-06
-0.00077204
-0.000612478
1.55022e-05
-5.20103e-05
1.23429e-05
-8.13668e-05
9.71043e-06
-0.00012289
7.57208e-06
-0.000174301
5.7619e-06
-0.000238679
4.57624e-06
-0.000327399
4.52139e-06
-0.000408847
5.42866e-07
-0.000617907
-2.40169e-07
-0.000771343
-0.000612693
1.54524e-05
-4.85452e-05
1.1835e-05
-7.77826e-05
8.92655e-06
-0.000120051
6.39878e-06
-0.000171833
4.10349e-06
-0.000236439
2.4133e-06
-0.000325642
2.16521e-06
-0.000408722
-3.26854e-06
-0.000612463
-5.83643e-06
-0.000768682
-0.000618533
1.32585e-05
-4.43921e-05
9.73251e-06
-7.43078e-05
7.08007e-06
-0.000117466
4.51691e-06
-0.000169359
2.25526e-06
-0.000234064
1.43451e-07
-0.000323703
1.96519e-07
-0.000408638
-6.00392e-06
-0.000606313
-8.58837e-06
-0.000766027
-0.000627178
8.39366e-06
-3.98785e-05
6.0023e-06
-7.18993e-05
4.27087e-06
-0.000115746
2.06244e-06
-0.000167252
1.04361e-07
-0.000231888
-2.12927e-06
-0.000321724
-1.63573e-06
-0.000409079
-7.72088e-06
-0.000600288
-1.0642e-05
-0.000763068
-0.00063788
1.48966e-06
-3.63876e-05
1.37821e-06
-7.16845e-05
8.74829e-07
-0.000115232
-6.96871e-07
-0.000165722
-2.24646e-06
-0.000230212
-4.30236e-06
-0.000319855
-3.20377e-06
-0.000410154
-8.9637e-06
-0.000594556
-1.23126e-05
-0.000759691
-0.000650213
-4.97911e-06
-3.60893e-05
-2.77682e-06
-7.37149e-05
-2.46109e-06
-0.000115546
-3.45344e-06
-0.000164687
-4.59471e-06
-0.000229012
-6.41718e-06
-0.000318142
-4.90666e-06
-0.000411592
-1.0464e-05
-0.000588955
-1.36513e-05
-0.000756556
-0.000663881
-7.81651e-06
-3.95691e-05
-4.86931e-06
-7.64573e-05
-4.71288e-06
-0.000115676
-5.62413e-06
-0.000163738
-6.66386e-06
-0.000227929
-8.52287e-06
-0.000316276
-6.45888e-06
-0.00041362
-1.08937e-05
-0.000584508
-1.50129e-05
-0.000752577
-0.000678845
-2.89944e-06
-4.33599e-05
-3.29201e-06
-7.60993e-05
-5.13585e-06
-0.000113785
-6.39495e-06
-0.000162355
-7.24618e-06
-0.000227056
-8.9899e-06
-0.000314546
-6.81089e-06
-0.000415896
-9.69073e-06
-0.000581578
-1.15875e-05
-0.000750905
-0.000690425
-5.77947e-07
-4.27946e-05
-2.70593e-06
-7.39091e-05
-4.09976e-06
-0.000112334
-4.8057e-06
-0.000161561
-5.33936e-06
-0.000226622
-6.3365e-06
-0.000313594
-4.01317e-06
-0.00041822
1.23401e-07
-0.00058558
-7.31069e-06
-0.000743596
-0.000697729
5.10507e-07
-4.33354e-05
-1.29432e-06
-7.20495e-05
-2.43362e-06
-0.000111139
-2.75695e-06
-0.000161242
-3.03929e-06
-0.000226443
-3.81806e-06
-0.000312821
-2.35014e-06
-0.000419731
-1.94897e-07
-0.000587681
-7.35797e-06
-0.000736559
-0.000705096
-7.26927e-06
-3.59984e-05
-8.98921e-08
-9.83138e-06
-6.94905e-05
-1.10672e-05
-0.000109812
-1.14501e-05
-0.00016076
-1.15536e-05
-0.000226423
-1.20506e-05
-0.000312369
-1.1238e-05
-0.000420569
-1.35558e-05
-0.000585194
-1.03968e-05
-0.000739831
-0.000715529
-1.40788e-05
-3.90936e-05
1.71217e-05
-1.2743e-05
-7.07449e-05
-1.18086e-05
-0.000110683
-1.10675e-05
-0.000161427
-1.087e-05
-0.000226729
-1.15032e-05
-0.000311663
-1.03688e-05
-0.000421683
-9.23604e-06
-0.000586275
-1.49358e-05
-0.000734153
-0.000730508
-1.53542e-05
-4.23776e-05
1.86826e-05
-1.30544e-05
-7.31057e-05
-1.12205e-05
-0.000112449
-9.83451e-06
-0.000162748
-9.28694e-06
-0.000227358
-9.93443e-06
-0.0003109
-1.06133e-05
-0.000420999
-8.66064e-06
-0.000588233
-1.58493e-05
-0.000726979
-0.000746402
-1.40302e-05
-4.52986e-05
1.68699e-05
-1.15528e-05
-7.56442e-05
-9.31741e-06
-0.000114587
-7.55111e-06
-0.000164463
-6.61609e-06
-0.000228365
-6.96967e-06
-0.000310609
-8.717e-06
-0.000419167
-7.27993e-06
-0.000589701
-1.43191e-05
-0.000719917
-0.000760719
-1.1449e-05
-4.79107e-05
1.39517e-05
-8.92058e-06
-7.81172e-05
-6.51909e-06
-0.000116916
-4.47454e-06
-0.000166457
-3.13688e-06
-0.000229684
-3.03719e-06
-0.000310769
-5.43038e-06
-0.000416712
-2.92806e-06
-0.000592202
-9.21925e-06
-0.000713523
-0.000769923
-8.07023e-06
-5.02848e-05
1.04307e-05
-5.60621e-06
-8.05141e-05
-3.06663e-06
-0.000119398
-6.76004e-07
-0.000168803
1.1856e-06
-0.000231592
2.11284e-06
-0.000311706
-7.76041e-07
-0.000413686
2.45993e-06
-0.000595377
-3.82159e-06
-0.000707139
-0.000773841
-4.4139e-06
-5.25143e-05
6.6473e-06
-1.99106e-06
-8.29504e-05
7.82174e-07
-0.000122119
3.6963e-06
-0.000171661
6.44482e-06
-0.000234419
8.96883e-06
-0.000314214
6.81969e-06
-0.000411362
1.08306e-05
-0.000599367
5.1524e-06
-0.000701371
-0.000768765
-5.7986e-07
-5.45972e-05
2.61899e-06
1.95609e-06
-8.55295e-05
5.10487e-06
-0.000125167
8.59294e-06
-0.000175116
1.23985e-05
-0.000238412
1.73341e-05
-0.000319248
1.78075e-05
-0.000411602
2.75988e-05
-0.00060912
2.67686e-05
-0.000700499
-0.000741621
3.82154e-06
-5.67356e-05
-1.77403e-06
6.48584e-06
-8.81473e-05
9.67093e-06
-0.000128216
1.28425e-05
-0.000178255
1.61196e-05
-0.000241772
2.21177e-05
-0.000325361
2.47095e-05
-0.000414082
4.03711e-05
-0.000624753
6.55202e-05
-0.000725711
-0.000676433
8.23495e-06
-7.72687e-06
8.18461e-06
8.32015e-06
8.4731e-06
8.83112e-06
1.19182e-05
6.45851e-06
7.99661e-06
4.29768e-05
-1.13536e-05
1.13117e-05
-1.92026e-05
2.50322e-05
-2.3048e-05
2.24647e-05
-2.57017e-05
1.94745e-05
-2.78368e-05
1.60831e-05
-2.97432e-05
1.23523e-05
-3.15941e-05
8.49148e-06
-3.33422e-05
4.33629e-06
-3.49702e-05
-5.5967e-08
-6.18558e-06
-2.63419e-06
1.38903e-05
-5.58344e-06
2.79913e-05
-8.37691e-06
2.52105e-05
-1.02732e-05
2.12689e-05
-1.15068e-05
1.72973e-05
-1.24386e-05
1.33334e-05
-1.337e-05
9.42097e-06
-1.43397e-05
5.1893e-06
-1.50614e-05
5.43002e-07
-4.61203e-06
1.27395e-06
1.26466e-05
2.4359e-06
2.6848e-05
2.00386e-06
2.56402e-05
1.4239e-06
2.19015e-05
1.12145e-06
1.77458e-05
1.04742e-06
1.35379e-05
1.20878e-06
9.29117e-06
1.69245e-06
4.65625e-06
2.38055e-06
-2.10659e-07
-3.97667e-06
2.87554e-06
9.83114e-06
7.00051e-06
2.27581e-05
9.33297e-06
2.33775e-05
1.08418e-05
2.05351e-05
1.2156e-05
1.66051e-05
1.34267e-05
1.23826e-05
1.46491e-05
8.10527e-06
1.56625e-05
3.66146e-06
1.60987e-05
-6.24289e-07
-3.35009e-06
3.07161e-06
6.78547e-06
8.63248e-06
1.72116e-05
1.31558e-05
1.89388e-05
1.65215e-05
1.73101e-05
1.90703e-05
1.4186e-05
2.10315e-05
1.05015e-05
2.25089e-05
6.6748e-06
2.34509e-05
2.78409e-06
2.36064e-05
-7.17979e-07
-2.6691e-06
2.67066e-06
4.10433e-06
8.48188e-06
1.14303e-05
1.40749e-05
1.34719e-05
1.86299e-05
1.28723e-05
2.20717e-05
1.0817e-05
2.4535e-05
8.08047e-06
2.61475e-05
5.09947e-06
2.68824e-05
2.08034e-06
2.66524e-05
-4.70278e-07
-1.83734e-06
2.1017e-06
1.99363e-06
7.3683e-06
6.25045e-06
1.30035e-05
7.98329e-06
1.78939e-05
8.03671e-06
2.17325e-05
6.98988e-06
2.44866e-05
5.32424e-06
2.62104e-05
3.37109e-06
2.68815e-05
1.35945e-06
2.65323e-05
-1.67836e-07
-1.04034e-06
1.66604e-06
3.46368e-07
5.92256e-06
2.10963e-06
1.07437e-05
3.22812e-06
1.51257e-05
3.62271e-06
1.87123e-05
3.36427e-06
2.13356e-05
2.65309e-06
2.29505e-05
1.69314e-06
2.35293e-05
6.90752e-07
2.32316e-05
5.13055e-08
-4.37606e-07
1.07461e-06
-6.98872e-07
3.8965e-06
-6.47416e-07
7.31143e-06
-2.15458e-07
1.05942e-05
2.89435e-07
1.33801e-05
5.20674e-07
1.54475e-05
5.05601e-07
1.6709e-05
3.38912e-07
1.71705e-05
1.84598e-07
1.6937e-05
2.34851e-07
-6.68276e-08
-6.85046e-07
-1.34646e-06
-1.59352e-06
-1.33453e-06
-8.46083e-07
-3.74088e-07
-5.90407e-08
1.26583e-07
3.19574e-07
)
;

boundaryField
{
    right
    {
        type            cyclic;
        value           nonuniform List<scalar> 
20
(
0.000633463
0.00076053
0.000626569
0.000409025
0.00032788
0.000242138
0.000178709
0.000128759
8.85597e-05
5.75088e-05
3.62976e-05
1.66286e-05
-1.80805e-06
-1.56494e-05
-2.30755e-05
-2.58083e-05
-2.56471e-05
-2.27167e-05
-1.69764e-05
-3.7097e-07
)
;
    }
    left
    {
        type            cyclic;
        value           nonuniform List<scalar> 
20
(
-0.000633463
-0.00076053
-0.000626569
-0.000409025
-0.00032788
-0.000242138
-0.000178709
-0.000128759
-8.85597e-05
-5.75088e-05
-3.62976e-05
-1.66286e-05
1.80805e-06
1.56494e-05
2.30755e-05
2.58083e-05
2.56471e-05
2.27167e-05
1.69764e-05
3.7097e-07
)
;
    }
    outerWall
    {
        type            calculated;
        value           uniform 0;
    }
    stirrerWall
    {
        type            calculated;
        value           uniform 0;
    }
    top
    {
        type            empty;
        value           nonuniform List<scalar> 0();
    }
    bottom
    {
        type            empty;
        value           nonuniform List<scalar> 0();
    }
}


// ************************************************************************* //
