/*--------------------------------*- C++ -*----------------------------------*\
  =========                 |
  \\      /  F ield         | OpenFOAM: The Open Source CFD Toolbox
   \\    /   O peration     | Website:  https://openfoam.org
    \\  /    A nd           | Version:  10
     \\/     M anipulation  |
\*---------------------------------------------------------------------------*/
FoamFile
{
    format      ascii;
    class       volVectorField;
    location    "3300";
    object      U;
}
// * * * * * * * * * * * * * * * * * * * * * * * * * * * * * * * * * * * * * //

dimensions      [0 1 -1 0 0 0 0];

internalField   nonuniform List<vector> 
420
(
(0.742933 9.0942 8.43013e-18)
(-0.459605 11.6616 -6.3128e-17)
(-0.291577 13.3895 -3.11068e-16)
(-0.261161 14.8851 8.51074e-17)
(-0.202563 16.1597 -5.72407e-16)
(-0.0802132 17.1917 0)
(0.07167 17.8059 0)
(0.0944628 17.8697 6.88221e-16)
(0.194907 17.5734 -8.05704e-16)
(0.175032 17.2429 0)
(0.154731 9.06168 2.99227e-17)
(-1.21197 11.5372 -1.40141e-16)
(-1.14731 13.2378 9.16173e-16)
(-1.18944 14.6816 -1.29646e-15)
(-1.17832 15.9244 4.01934e-16)
(-1.07717 16.9313 6.97556e-18)
(-0.868083 17.5438 3.08583e-15)
(-0.722956 17.6883 -9.63201e-16)
(-0.663903 17.5195 1.52707e-15)
(-0.798235 17.2747 0)
(-0.470938 8.92097 1.5373e-17)
(-1.84921 11.3021 -5.78494e-16)
(-1.77052 13.0092 8.43548e-16)
(-1.79237 14.4417 1.41702e-15)
(-1.78441 15.6785 -9.15719e-16)
(-1.71647 16.6622 4.08892e-15)
(-1.59394 17.2853 1.74282e-15)
(-1.60286 17.5238 5.28073e-15)
(-1.69912 17.4737 -2.25877e-15)
(-1.90789 17.3041 -4.39266e-15)
(-1.1249 8.70827 2.86543e-17)
(-2.58795 10.9214 5.3472e-16)
(-2.52538 12.616 -1.06708e-15)
(-2.56621 14.0338 9.29726e-16)
(-2.59796 15.277 -1.74856e-15)
(-2.60025 16.2649 1.69743e-15)
(-2.58679 16.9597 -9.89374e-15)
(-2.7097 17.3252 0)
(-2.88908 17.3895 -4.68183e-15)
(-3.15281 17.2936 3.98309e-15)
(-1.78633 8.44756 0)
(-3.37884 10.4365 3.96719e-16)
(-3.38359 12.0904 -3.74178e-16)
(-3.48414 13.4857 0)
(-3.58094 14.73 -2.58444e-16)
(-3.66256 15.7628 -3.4052e-16)
(-3.75196 16.5158 3.33144e-15)
(-3.9651 17.0251 -4.25165e-15)
(-4.2182 17.2093 0)
(-4.55347 17.2009 -1.57612e-14)
(-2.4515 8.17346 -1.65793e-17)
(-4.19285 9.88443 0)
(-4.2949 11.4561 0)
(-4.48189 12.8102 1.52062e-15)
(-4.66234 14.0434 -2.35323e-15)
(-4.83161 15.1034 2.61793e-15)
(-5.03861 15.9332 5.91525e-16)
(-5.35972 16.563 9.20196e-15)
(-5.71903 16.8836 -1.15704e-14)
(-6.16789 16.9831 7.55224e-15)
(-3.12786 7.90477 0)
(-5.019 9.2939 -3.94588e-16)
(-5.22689 10.7417 -2.36707e-15)
(-5.52136 12.029 -9.9057e-16)
(-5.81065 13.2289 -4.06591e-15)
(-6.10084 14.3002 2.65087e-15)
(-6.45454 15.1946 -6.20302e-15)
(-6.93003 15.9268 7.68364e-16)
(-7.44906 16.3959 -3.36059e-15)
(-8.04165 16.6219 -1.16048e-14)
(-3.84568 7.65536 2.97442e-17)
(-5.83153 8.68555 3.9498e-16)
(-6.14839 9.9753 3.24204e-15)
(-6.5644 11.1663 6.33143e-16)
(-6.99079 12.3004 2.60515e-15)
(-7.4406 13.3513 0)
(-7.9783 14.2938 6.73489e-15)
(-8.64507 15.1368 8.06216e-15)
(-9.3823 15.8156 8.9554e-15)
(-10.108 16.1653 9.28252e-15)
(-4.64692 7.40336 2.88837e-17)
(-6.64519 8.11139 4.00217e-16)
(-7.10081 9.27389 -4.18874e-16)
(-7.67156 10.379 -2.08384e-15)
(-8.25331 11.4378 6.56772e-15)
(-8.84912 12.4423 9.00156e-15)
(-9.51113 13.39 -3.19432e-15)
(-10.2747 14.3077 0)
(-11.1263 15.1569 0)
(-11.9413 15.5277 -1.09945e-14)
(-5.49944 7.04524 -8.7051e-17)
(-6.87859 7.73038 6.88126e-16)
(-7.43678 8.70543 0)
(-8.17369 9.66789 0)
(-8.98398 10.6119 -3.45149e-15)
(-9.86034 11.5606 -4.68775e-17)
(-10.7994 12.5416 6.44378e-15)
(-11.748 13.5893 -1.44641e-14)
(-12.5926 14.619 1.76728e-14)
(-13.0989 14.9845 1.3421e-15)
(0.0860801 16.848 0)
(-0.00862959 16.3585 0)
(-0.0821733 15.7633 0)
(-0.113251 15.1877 -9.8749e-16)
(-0.257857 14.5537 0)
(0.195806 13.5986 0)
(-0.28153 13.7368 1.00277e-15)
(-1.18856 9.22717 0)
(3.24172 9.42055 0)
(-5.71535 19.3557 0)
(-0.958988 16.9646 1.88858e-15)
(-1.1133 16.4887 3.10965e-15)
(-1.20985 15.832 1.04901e-16)
(-1.23033 15.2012 1.0502e-15)
(-1.35634 14.5236 4.85079e-17)
(-0.905968 13.5275 1.27795e-15)
(-1.32636 13.7112 -7.732e-17)
(-2.02001 9.14576 -1.24878e-17)
(2.31598 9.37785 -2.32305e-15)
(-7.43777 19.3773 -8.75223e-16)
(-2.10425 17.0518 1.68754e-15)
(-2.29231 16.5731 0)
(-2.38169 15.8524 -2.44192e-15)
(-2.37575 15.1791 -2.03373e-15)
(-2.47358 14.4697 6.17258e-15)
(-2.02153 13.4406 -1.25748e-15)
(-2.35989 13.5601 2.03123e-15)
(-2.81615 9.08744 0)
(1.41186 9.48867 2.57645e-15)
(-8.73122 18.7707 -5.3888e-17)
(-3.39068 17.0989 3.52657e-15)
(-3.59972 16.5963 8.89375e-15)
(-3.63929 15.8008 -9.44874e-15)
(-3.58013 15.086 3.77064e-15)
(-3.6333 14.3414 -1.28865e-17)
(-3.16757 13.286 0)
(-3.41825 13.3366 -2.05025e-15)
(-3.61955 9.01256 -2.62127e-15)
(0.497621 9.57898 -2.58229e-15)
(-10.2461 17.9753 4.07223e-15)
(-4.84807 17.0553 3.18581e-15)
(-5.04379 16.4943 -2.91413e-15)
(-4.9718 15.6309 9.4774e-15)
(-4.83048 14.8939 -3.83063e-15)
(-4.80942 14.1271 3.14464e-15)
(-4.31111 13.055 -4.92828e-15)
(-4.47054 13.0254 4.08523e-15)
(-4.37215 8.94153 2.61213e-15)
(-0.480839 9.59372 0)
(-11.299 16.9994 -8.26825e-15)
(-6.51857 16.8542 3.78666e-15)
(-6.60476 16.1827 -1.72744e-14)
(-6.3427 15.2905 -4.96814e-15)
(-6.10252 14.5725 1.15718e-14)
(-5.98909 13.8068 9.61517e-15)
(-5.43467 12.7327 1.47112e-16)
(-5.52122 12.6073 6.97765e-17)
(-5.0706 8.83921 -2.84126e-15)
(-1.45828 9.52425 -2.81238e-15)
(-12.1862 15.8896 8.93672e-15)
(-8.36855 16.4227 4.01034e-15)
(-8.17269 15.5809 6.11631e-15)
(-7.67632 14.7474 0)
(-7.35687 14.1042 -3.89119e-15)
(-7.14653 13.3663 -6.21511e-15)
(-6.52712 12.3172 1.6993e-16)
(-6.53753 12.0725 -1.2784e-14)
(-5.73002 8.69079 -2.79624e-15)
(-2.40533 9.38891 5.62269e-15)
(-13.0223 14.67 -4.5348e-15)
(-10.1786 15.6848 1.6058e-14)
(-9.56135 14.6777 -5.8079e-15)
(-8.8941 14.029 0)
(-8.55094 13.499 -1.931e-16)
(-8.25382 12.8054 2.56583e-14)
(-7.57747 11.806 -1.02395e-14)
(-7.505 11.4277 -8.81759e-15)
(-6.38395 8.49026 5.84113e-15)
(-3.33384 9.18368 -6.05336e-15)
(-13.7762 13.3299 0)
(-11.4494 14.6003 3.80575e-16)
(-10.6629 13.6353 -5.85582e-15)
(-9.97642 13.2516 0)
(-9.65237 12.8092 8.26173e-15)
(-9.28846 12.1569 -1.94976e-14)
(-8.57953 11.2134 1.05597e-14)
(-8.43746 10.6835 4.41503e-15)
(-6.99669 8.29948 0)
(-4.20203 8.91078 -2.66741e-16)
(-14.5164 11.8942 4.80386e-15)
(-11.6537 13.7534 4.65057e-16)
(-11.52 12.7655 1.91884e-18)
(-10.9672 12.5166 0)
(-10.6364 12.0802 -1.64827e-14)
(-10.1972 11.4438 6.22624e-15)
(-9.443 10.578 -5.53025e-15)
(-9.20967 9.83987 4.46958e-15)
(-7.51455 7.98629 6.75763e-16)
(-4.87852 8.65676 3.57644e-16)
(-15.073 10.4382 -4.90507e-15)
(-11.3977 13.9742 3.25393e-15)
(-12.1684 12.2547 -6.13861e-15)
(-11.7739 11.9397 0)
(-11.3817 11.5164 0)
(-10.8867 10.9124 0)
(-10.1155 10.1343 -2.77914e-15)
(-9.72603 9.28556 1.12633e-14)
(-7.74753 7.79845 0)
(-5.54142 8.61544 0)
(-15.3278 9.30419 0)
(-12.1121 13.3542 -3.16276e-15)
(-12.8578 11.8654 -6.05094e-15)
(-12.4678 11.4455 0)
(-11.988 11.0057 4.39008e-15)
(-11.4187 10.4227 -3.3431e-15)
(-10.6313 9.67727 2.85242e-15)
(-10.0793 8.79671 4.6936e-15)
(-8.00585 7.31075 -2.08631e-16)
(-6.18672 8.36773 1.58026e-15)
(-15.5866 8.56684 0)
(-14.3273 11.602 3.75394e-16)
(-13.8874 10.9743 -5.75144e-18)
(-13.349 10.4858 0)
(-12.751 10.0531 2.65265e-16)
(-12.0779 9.53661 7.35232e-15)
(-11.2627 8.8419 -5.25428e-15)
(-10.6107 7.91065 -1.36788e-14)
(-8.46377 6.66959 -7.55389e-15)
(-6.87791 7.73013 1.32253e-14)
(-15.9517 7.39416 4.94567e-15)
(-15.5297 10.1326 -1.56779e-14)
(-14.8461 9.74384 5.75521e-15)
(-14.165 9.41927 0)
(-13.4843 9.08817 -8.77439e-15)
(-12.7519 8.66812 -7.17186e-15)
(-11.9138 8.0747 1.12216e-14)
(-11.2201 7.0214 4.72381e-15)
(-8.81933 6.34398 0)
(-7.56896 7.15329 -6.49944e-15)
(-16.1515 5.75566 2.36927e-16)
(-16.0368 8.73236 -2.95972e-16)
(-15.4027 8.48942 5.60035e-15)
(-14.7302 8.29994 0)
(-14.0388 8.06841 1.70078e-14)
(-13.2944 7.74775 1.98402e-17)
(-12.4422 7.29372 -1.76027e-16)
(-11.724 6.12099 9.77291e-15)
(-9.14371 5.69873 -7.15601e-15)
(-8.28997 6.66934 -6.93736e-15)
(-16.1439 4.16881 0)
(-16.3601 7.47662 -3.40578e-15)
(-15.7806 7.31579 1.17908e-14)
(-15.1367 7.21003 1.03467e-14)
(-14.4614 7.05748 -1.22045e-14)
(-13.7321 6.82753 -2.10384e-14)
(-12.884 6.52645 -3.45542e-16)
(-12.1793 5.2996 -4.74809e-15)
(-9.43157 5.08728 -3.73948e-15)
(-9.00518 6.24863 -6.64829e-15)
(-15.9986 2.6214 -4.47086e-15)
(-16.5922 6.30255 -1.07079e-14)
(-16.0396 6.19646 5.89482e-15)
(-15.424 6.15132 -4.61758e-15)
(-14.7762 6.06233 -1.26666e-14)
(-14.0776 5.90914 9.89743e-15)
(-13.2413 5.76787 -3.30911e-16)
(-12.5857 4.52629 9.09559e-15)
(-9.66857 4.44374 4.07555e-15)
(-9.46402 5.95247 3.32724e-15)
(-15.804 1.15941 -2.40758e-16)
(-16.747 5.18287 3.16338e-15)
(-16.2106 5.12254 -2.99044e-15)
(-15.6144 5.12246 -1.79054e-16)
(-14.9926 5.08709 1.25064e-14)
(-14.328 4.99854 -1.73795e-14)
(-13.5135 5.03504 5.48503e-15)
(-12.9423 3.80451 -4.66404e-15)
(-9.83501 3.79022 1.08356e-14)
(-10.0026 5.66661 0)
(-15.6352 -0.108938 9.38887e-17)
(-16.8378 4.09047 3.55935e-15)
(-16.3076 4.07742 2.99737e-15)
(-15.7185 4.11518 5.17603e-15)
(-15.1118 4.13184 -8.31749e-15)
(-14.4702 4.10203 3.36304e-15)
(-13.6732 4.34509 0)
(-13.2388 3.14301 -2.17279e-15)
(-9.86492 3.21416 -7.3483e-15)
(-10.5171 5.44119 -9.32691e-17)
(-15.6409 -0.999498 4.28131e-15)
(-16.8788 3.02385 1.67003e-15)
(-16.3408 3.06598 0)
(-15.7551 3.1451 2.59488e-15)
(-15.1525 3.21379 2.24948e-15)
(-14.5124 3.23226 1.12607e-16)
(-13.6903 3.68853 -1.38403e-15)
(-13.3941 2.50972 2.17875e-15)
(-9.79539 2.86633 0)
(-10.7655 5.53956 3.14261e-15)
(-16.0063 -1.30708 3.64863e-15)
(-16.8779 2.01678 1.87201e-15)
(-16.3168 2.10551 -3.20126e-15)
(-15.7325 2.21867 -1.38664e-16)
(-15.147 2.30656 9.44186e-16)
(-14.5129 2.3001 -7.78841e-17)
(-13.691 2.92608 1.31563e-15)
(-13.3815 1.64678 -1.98284e-15)
(-9.24192 2.31618 -5.32394e-17)
(-10.9643 6.19271 2.372e-15)
(-15.2897 -2.47028 -2.63073e-15)
(-16.7782 1.10563 2.87648e-29)
(-16.2359 1.06626 0)
(-15.6406 1.02839 0)
(-15.0744 1.0161 -1.01199e-15)
(-14.4606 0.876928 0)
(-13.4902 1.41348 0)
(-13.7435 0.619907 1.01486e-15)
(-9.17726 -0.351981 0)
(-9.53782 4.77658 0)
(-20.712 -4.67511 -1.03397e-29)
(-14.9052 12.5801 1.0283e-15)
(-16.0884 10.0226 -8.94381e-15)
(-16.5066 8.63378 8.19457e-15)
(-16.7738 7.38122 -1.11023e-14)
(-17.0076 6.22933 7.49005e-15)
(-17.1833 5.12464 -1.57895e-14)
(-17.2965 4.04174 3.94828e-15)
(-17.3534 2.98838 -4.32637e-15)
(-17.38 1.96449 0)
(-17.2725 1.1116 -5.65716e-16)
(-15.1921 11.8817 1.57179e-14)
(-16.1121 9.38622 0)
(-16.6145 8.28968 8.38649e-15)
(-16.8801 7.15497 -3.25883e-15)
(-17.1422 6.07804 -1.13526e-14)
(-17.3702 5.03101 0)
(-17.5479 3.99046 -4.50926e-15)
(-17.6705 2.96812 -2.17262e-15)
(-17.7603 1.9661 1.41947e-15)
(-17.6956 1.07712 -6.74322e-16)
(-14.6832 11.074 -1.30407e-14)
(-15.7053 8.72375 0)
(-16.3628 7.77832 7.69461e-15)
(-16.6872 6.79873 7.92628e-16)
(-16.9839 5.82971 9.40265e-15)
(-17.2512 4.85113 -4.40995e-15)
(-17.4829 3.86392 0)
(-17.6952 2.91386 5.50025e-15)
(-17.9066 1.99896 -9.55896e-16)
(-17.9814 1.00382 7.4955e-16)
(-13.6382 10.2944 5.87854e-15)
(-14.9161 8.21483 -2.65939e-15)
(-15.7763 7.31317 6.17908e-15)
(-16.2513 6.44228 -6.23232e-15)
(-16.645 5.59879 6.42907e-16)
(-16.9924 4.74778 3.61081e-15)
(-17.3013 3.88252 -1.0707e-14)
(-17.5623 3.01711 1.80607e-15)
(-17.7813 2.12814 3.14413e-15)
(-17.8746 1.09182 8.96351e-17)
(-12.4663 9.57717 -8.65483e-15)
(-13.7905 7.74251 7.26729e-15)
(-14.8512 6.89087 0)
(-15.4822 6.09524 2.49384e-15)
(-15.9715 5.33863 2.61272e-15)
(-16.3741 4.56468 -3.54748e-16)
(-16.7052 3.75649 1.74705e-15)
(-16.9614 2.92425 4.30793e-15)
(-17.1575 2.03932 2.06566e-17)
(-17.2376 0.979404 4.27734e-16)
(-11.2793 8.87075 -3.41771e-15)
(-12.5034 7.31135 5.24327e-15)
(-13.6379 6.52193 2.22766e-15)
(-14.3857 5.77599 -3.63305e-15)
(-14.9635 5.06751 -2.2121e-15)
(-15.4168 4.34052 -2.37523e-16)
(-15.7673 3.57166 -3.89803e-15)
(-16.0161 2.76155 1.20562e-15)
(-16.1794 1.87805 4.16281e-16)
(-16.2183 0.837907 -4.52161e-16)
(-10.1185 8.15959 0)
(-11.1432 6.90833 -1.71781e-15)
(-12.2418 6.19705 5.03259e-16)
(-13.0329 5.49327 -8.75952e-16)
(-13.6616 4.8127 1.405e-15)
(-14.1549 4.11053 0)
(-14.5262 3.36733 9.05447e-16)
(-14.7781 2.57847 1.41637e-15)
(-14.9276 1.70941 -1.29826e-15)
(-14.9487 0.722226 -3.80943e-17)
(-8.98514 7.44401 0)
(-9.79066 6.5093 -3.96471e-16)
(-10.7538 5.89165 2.92458e-15)
(-11.5075 5.23936 -2.16101e-15)
(-12.1315 4.5802 0)
(-12.6302 3.89424 -3.91387e-16)
(-13.0038 3.16995 -1.05434e-15)
(-13.2553 2.40251 8.4755e-16)
(-13.395 1.54497 9.17274e-16)
(-13.4353 0.622075 -3.6028e-16)
(-7.87312 6.66955 -9.06653e-16)
(-8.50623 5.99267 4.07984e-16)
(-9.28559 5.42113 4.09879e-16)
(-9.94872 4.78048 -4.12812e-16)
(-10.5122 4.1208 0)
(-10.9655 3.43128 4.20602e-16)
(-11.3041 2.70392 6.02462e-16)
(-11.5294 1.93383 -6.81481e-16)
(-11.6516 1.10962 -1.49803e-16)
(-11.6773 0.29429 9.80284e-18)
(-6.38857 6.25637 -2.57592e-16)
(-6.59165 6.04433 7.09454e-17)
(-6.99013 5.5864 5.95825e-17)
(-7.40483 5.02862 0)
(-7.79685 4.45964 -2.38071e-17)
(-8.1422 3.88833 0)
(-8.43307 3.30137 -8.18954e-17)
(-8.66993 2.67866 1.38516e-16)
(-8.86427 1.99936 3.5809e-17)
(-9.00151 1.38419 -9.25961e-18)
)
;

boundaryField
{
    right
    {
        type            cyclic;
    }
    left
    {
        type            cyclic;
    }
    outerWall
    {
        type            calculated;
        value           nonuniform List<vector> 
22
(
(-1.55201 41.8305 0)
(-4.64749 41.6006 0)
(-7.71741 41.1419 0)
(-10.7449 40.4569 0)
(-13.7132 39.5492 0)
(-16.6061 38.424 0)
(-19.4075 37.0874 0)
(-22.1022 35.5467 0)
(-24.6752 33.8104 0)
(-27.1124 31.8882 0)
(-28.9573 30.2506 0)
(-30.2506 28.9573 0)
(-31.8882 27.1124 0)
(-33.8104 24.6752 0)
(-35.5467 22.1022 0)
(-37.0874 19.4075 0)
(-38.424 16.6061 0)
(-39.5492 13.7132 0)
(-40.4569 10.7449 0)
(-41.1419 7.71741 0)
(-41.6006 4.64749 0)
(-41.8305 1.55201 0)
)
;
    }
    stirrerWall
    {
        type            calculated;
        value           nonuniform List<vector> 
42
(
(-0.310178 8.3662 0)
(-0.928834 8.32046 0)
(-1.54239 8.22894 0)
(-2.14746 8.09214 0)
(-2.74072 7.91082 0)
(-3.31888 7.68598 0)
(-3.87877 7.41885 0)
(-4.41729 7.11092 0)
(-4.93148 6.76387 0)
(-5.4185 6.37963 0)
(-6.07951 6.64185 0)
(-6.92878 7.56862 0)
(-7.77806 8.49539 0)
(-8.62734 9.42216 0)
(-9.47661 10.3489 0)
(-10.3259 11.2757 0)
(-11.1752 12.2025 0)
(-12.0244 13.1292 0)
(-12.8737 14.056 0)
(-13.723 14.9828 0)
(-14.4723 15.1215 0)
(-15.1215 14.4723 0)
(-14.9828 13.723 0)
(-14.056 12.8737 0)
(-13.1292 12.0244 0)
(-12.2025 11.1752 0)
(-11.2757 10.3259 0)
(-10.3489 9.47661 0)
(-9.42216 8.62734 0)
(-8.49539 7.77806 0)
(-7.56862 6.92878 0)
(-6.64185 6.07951 0)
(-6.37963 5.4185 0)
(-6.76387 4.93148 0)
(-7.11092 4.41729 0)
(-7.41885 3.87877 0)
(-7.68598 3.31888 0)
(-7.91082 2.74072 0)
(-8.09214 2.14746 0)
(-8.22894 1.54239 0)
(-8.32046 0.928834 0)
(-8.3662 0.310178 0)
)
;
    }
    top
    {
        type            empty;
    }
    bottom
    {
        type            empty;
    }
}


// ************************************************************************* //
