/*--------------------------------*- C++ -*----------------------------------*\
  =========                 |
  \\      /  F ield         | OpenFOAM: The Open Source CFD Toolbox
   \\    /   O peration     | Website:  https://openfoam.org
    \\  /    A nd           | Version:  10
     \\/     M anipulation  |
\*---------------------------------------------------------------------------*/
FoamFile
{
    format      ascii;
    class       volVectorField;
    location    "3300";
    object      Urel;
}
// * * * * * * * * * * * * * * * * * * * * * * * * * * * * * * * * * * * * * //

dimensions      [0 1 -1 0 0 0 0];

internalField   nonuniform List<vector> 
420
(
(1.07693 0.0859548 8.43013e-18)
(-0.0791042 1.40028 -6.3128e-17)
(0.135439 1.87463 -3.11068e-16)
(0.21238 2.11652 8.51074e-17)
(0.317511 2.13717 -5.72407e-16)
(0.486399 1.91501 0)
(0.684825 1.27499 0)
(0.754164 0.0844186 6.88221e-16)
(0.901157 -1.46627 -8.05704e-16)
(0.927833 -3.05126 0)
(1.15491 0.10272 2.99227e-17)
(-0.0725486 1.33203 -1.40141e-16)
(0.131402 1.78612 9.16173e-16)
(0.228595 1.98307 -1.29646e-15)
(0.37905 1.97879 4.01934e-16)
(0.619565 1.73853 6.97556e-18)
(0.96802 1.10373 3.08583e-15)
(1.25253 0.000862713 -9.63201e-16)
(1.45097 -1.41548 1.52707e-15)
(1.45604 -2.90772 0)
(1.18992 0.0605869 1.5373e-17)
(0.0428747 1.20926 -5.78494e-16)
(0.352868 1.68362 8.43548e-16)
(0.562361 1.88308 1.41702e-15)
(0.801709 1.8866 -9.15719e-16)
(1.10106 1.63686 4.08892e-15)
(1.45502 1.02638 1.74282e-15)
(1.67755 0.0312858 5.28073e-15)
(1.81276 -1.25254 -2.25877e-15)
(1.83547 -2.65588 -4.39266e-15)
(1.18752 -0.00480052 2.86543e-17)
(0.0463964 0.996483 5.3472e-16)
(0.431003 1.4788 -1.06708e-15)
(0.712278 1.68407 9.29726e-16)
(1.00269 1.71451 -1.74856e-15)
(1.3226 1.48948 1.69743e-15)
(1.65828 0.97137 -9.89374e-15)
(1.85762 0.123708 0)
(2.00051 -1.0251 -4.68183e-15)
(2.05907 -2.3342 3.98309e-15)
(1.16492 -0.0702688 0)
(-0.016716 0.733972 3.96719e-16)
(0.389542 1.20275 -3.74178e-16)
(0.700089 1.4127 0)
(1.01445 1.47144 -2.58444e-16)
(1.34405 1.31856 -3.4052e-16)
(1.6659 0.885837 3.33144e-15)
(1.86405 0.209227 -4.25165e-15)
(2.02226 -0.792551 0)
(2.09831 -1.987 -1.57612e-14)
(1.12233 -0.102271 -1.65793e-17)
(-0.121449 0.457644 0)
(0.274233 0.877908 0)
(0.585078 1.08032 1.52062e-15)
(0.90255 1.16166 -2.35323e-15)
(1.23125 1.0697 2.61793e-15)
(1.52228 0.747392 5.91525e-16)
(1.69923 0.225086 9.20196e-15)
(1.83801 -0.606627 -1.15704e-14)
(1.88726 -1.65937 7.55224e-15)
(1.04888 -0.0833486 0)
(-0.260721 0.194719 -3.94588e-16)
(0.11311 0.531099 -2.36707e-15)
(0.400493 0.70675 -9.9057e-16)
(0.693143 0.794834 -4.06591e-15)
(0.984963 0.754127 2.65087e-15)
(1.21333 0.53654 -6.20302e-15)
(1.31995 0.156517 7.68364e-16)
(1.38307 -0.486511 -3.36059e-15)
(1.37265 -1.37285 -1.16048e-14)
(0.910967 -0.0012155 2.97442e-17)
(-0.412564 -0.0359965 3.9498e-16)
(-0.06689 0.188446 3.24204e-15)
(0.179767 0.313915 6.33143e-16)
(0.416166 0.382293 2.60515e-15)
(0.629216 0.367408 0)
(0.754439 0.243946 6.73489e-15)
(0.750637 0.0209157 8.06216e-15)
(0.676421 -0.366391 8.9554e-15)
(0.613724 -1.08281 9.28252e-15)
(0.663451 0.120442 2.88837e-17)
(-0.595349 -0.184576 4.00217e-16)
(-0.311265 -0.0354328 -4.18874e-16)
(-0.142143 0.0561186 -2.08384e-15)
(0.0160889 0.101133 6.56772e-15)
(0.160354 0.0917681 9.00156e-15)
(0.238499 0.0255118 -3.19432e-15)
(0.215111 -0.0707729 0)
(0.103723 -0.235675 0)
(0.0290046 -0.879016 -1.09945e-14)
(0.335401 0.176016 -8.7051e-17)
(-0.231176 -0.0943895 6.88126e-16)
(0.0234714 -0.0751896 0)
(0.0995747 -0.0687845 0)
(0.102418 -0.0809804 -3.45149e-15)
(0.0393035 -0.0886475 -4.68775e-17)
(-0.0864431 -0.0640259 6.44378e-15)
(-0.221633 0.0271577 -1.44641e-14)
(-0.252844 0.100313 1.76728e-14)
(0.0542926 -0.490705 1.3421e-15)
(0.885688 -4.70726 0)
(0.840586 -6.53356 0)
(0.821968 -8.60882 0)
(0.851704 -10.8232 -9.8749e-16)
(0.774429 -13.2716 0)
(1.30264 -16.2356 0)
(0.907845 -18.3216 1.00277e-15)
(0.0922021 -25.2939 0)
(4.62367 -27.827 0)
(-4.22138 -20.9107 0)
(1.43543 -4.47206 1.88858e-15)
(1.42967 -6.27746 3.10965e-15)
(1.49759 -8.40613 1.04901e-16)
(1.65922 -10.6667 1.0502e-15)
(1.73484 -13.1487 4.85079e-17)
(2.40844 -16.1427 1.27795e-15)
(2.23522 -18.1711 -7.732e-17)
(1.81523 -25.1855 -1.24878e-17)
(6.4542 -27.6651 -2.32305e-15)
(-2.96409 -20.6679 -8.75223e-16)
(1.87182 -4.14852 1.68754e-15)
(1.93044 -5.942 0)
(2.11418 -8.11844 -2.44192e-15)
(2.42251 -10.4036 -2.03373e-15)
(2.65949 -12.8975 6.17258e-15)
(3.48224 -15.9025 -1.25748e-15)
(3.5543 -17.9706 2.03123e-15)
(3.55247 -24.8653 0)
(8.28361 -27.1458 2.57645e-15)
(-1.30243 -20.8329 -5.3888e-17)
(2.1452 -3.7486 3.52657e-15)
(2.27961 -5.54415 8.89375e-15)
(2.6203 -7.77114 -9.44874e-15)
(3.10048 -10.0708 3.77064e-15)
(3.51345 -12.5703 -1.28865e-17)
(4.49529 -15.5686 0)
(4.81604 -17.6691 -2.05025e-15)
(5.24742 -24.3749 -2.62127e-15)
(10.0651 -26.4455 -2.58229e-15)
(0.0969642 -20.9689 4.07223e-15)
(2.21721 -3.32489 3.18581e-15)
(2.45982 -5.14973 -2.91413e-15)
(3.01711 -7.41252 9.4774e-15)
(3.69575 -9.69888 -3.83063e-15)
(4.31172 -12.1811 3.14464e-15)
(5.46871 -15.1524 -4.92828e-15)
(6.03856 -17.2849 4.08523e-15)
(6.9444 -23.6971 2.61213e-15)
(11.7297 -25.6227 0)
(1.9014 -21.0711 -8.26825e-15)
(2.03733 -2.94675 3.78666e-15)
(2.48191 -4.84611 -1.72744e-14)
(3.33164 -7.09775 -4.96814e-15)
(4.22247 -9.32097 1.15718e-14)
(5.0563 -11.7533 9.61517e-15)
(6.40834 -14.6726 1.47112e-16)
(7.2049 -16.8409 6.97765e-17)
(8.63329 -22.871 -2.84126e-15)
(13.3282 -24.6903 -2.81238e-15)
(3.79888 -21.0978 8.93672e-15)
(1.63098 -2.69012 4.01034e-15)
(2.44713 -4.71709 6.11631e-15)
(3.63029 -6.86273 0)
(4.71015 -8.95866 -3.89119e-15)
(5.7624 -11.3051 -6.21511e-15)
(7.31397 -14.1352 1.6993e-16)
(8.33562 -16.3517 -1.2784e-14)
(10.2858 -21.9166 -2.79624e-15)
(14.8757 -23.6356 5.62269e-15)
(5.65945 -21.0308 -4.5348e-15)
(1.2096 -2.63494 1.6058e-14)
(2.53329 -4.77787 -5.8079e-15)
(3.98267 -6.68421 0)
(5.19178 -8.60653 -1.931e-16)
(6.44768 -10.8418 2.56583e-14)
(8.18558 -13.548 -1.02395e-14)
(9.43338 -15.8161 -8.81759e-15)
(11.8557 -20.8459 5.84113e-15)
(16.3466 -22.4692 -6.05336e-15)
(7.49953 -20.8878 0)
(1.26507 -2.82577 3.80575e-16)
(2.84017 -4.87108 -5.85582e-15)
(4.39975 -6.45084 0)
(5.69054 -8.21752 8.26173e-15)
(7.1248 -10.336 -1.94976e-14)
(9.01881 -12.9029 1.05597e-14)
(10.473 -15.2302 4.41503e-15)
(13.3665 -19.6042 0)
(17.7696 -21.1963 -2.66741e-16)
(9.23607 -20.6523 4.80386e-15)
(2.31711 -2.68321 4.65057e-16)
(3.31726 -4.6899 1.91884e-18)
(4.82941 -6.06673 0)
(6.22239 -7.75206 -1.64827e-14)
(7.83763 -9.77117 6.22624e-15)
(9.89388 -12.1679 -5.53025e-15)
(11.5689 -14.6011 4.46958e-15)
(14.8601 -18.3315 6.75763e-16)
(19.2634 -19.7389 3.57644e-16)
(11.0256 -20.2581 -4.90507e-15)
(3.51799 -1.6102 3.25393e-15)
(3.67306 -4.29669 -6.13861e-15)
(5.09267 -5.68232 0)
(6.61982 -7.29105 0)
(8.37133 -9.20744 0)
(10.5338 -11.4387 -2.77914e-15)
(12.4636 -13.8963 1.12633e-14)
(16.1476 -17.1647 0)
(20.242 -18.32 0)
(12.5463 -19.8148 0)
(3.47233 -1.56151 -3.16276e-15)
(3.69358 -3.97612 -6.05094e-15)
(5.15422 -5.42108 0)
(6.81941 -6.99581 4.39008e-15)
(8.70113 -8.83534 -3.3431e-15)
(10.9416 -10.972 2.85242e-15)
(13.1025 -13.393 4.6936e-15)
(16.9573 -16.5844 -2.08631e-16)
(20.7487 -17.4157 1.58026e-15)
(13.5324 -19.3073 0)
(2.10931 -2.36878 3.75394e-16)
(3.56805 -3.86299 -5.75144e-18)
(5.23435 -5.3108 0)
(7.08123 -6.80564 2.65265e-16)
(9.1371 -8.49819 7.35232e-15)
(11.4832 -10.495 -5.25428e-15)
(13.8303 -12.8679 -1.36788e-14)
(17.854 -15.7051 -7.55389e-15)
(21.5177 -16.4118 1.32253e-14)
(14.7446 -18.7044 4.94567e-15)
(1.8964 -2.58186 -1.56779e-14)
(3.66024 -3.7592 5.75521e-15)
(5.53737 -4.95691 0)
(7.54242 -6.25474 -8.77439e-15)
(9.74101 -7.74514 -7.17186e-15)
(12.2025 -9.52365 1.12216e-14)
(14.6936 -11.889 4.72381e-15)
(19.0844 -14.0192 0)
(22.5381 -14.8184 -6.49944e-15)
(16.395 -17.9968 2.36927e-16)
(2.28296 -2.65588 -2.95972e-16)
(4.05295 -3.60522 5.60035e-15)
(5.98297 -4.57683 0)
(8.0668 -5.67431 1.70078e-14)
(10.3527 -6.95376 1.98402e-17)
(12.9118 -8.46933 -1.76027e-16)
(15.5198 -10.8174 9.77291e-15)
(20.1925 -12.541 -7.15601e-15)
(23.3629 -13.0111 -6.93736e-15)
(18.0739 -17.1069 0)
(2.75276 -2.5229 -3.40578e-15)
(4.51741 -3.30403 1.17908e-14)
(6.47336 -4.09658 1.03467e-14)
(8.6015 -5.00953 -1.22045e-14)
(10.9393 -6.0814 -2.10384e-14)
(13.5684 -7.31463 -3.45542e-16)
(16.2449 -9.57355 -4.74809e-15)
(21.1758 -10.9286 -3.73948e-15)
(24.0193 -11.0324 -6.64829e-15)
(19.7022 -16.0604 -4.47086e-15)
(3.20868 -2.25335 -1.07079e-14)
(4.98918 -2.89021 5.89482e-15)
(6.96426 -3.52302 -4.61758e-15)
(9.11725 -4.26266 -1.26666e-14)
(11.4825 -5.13625 9.89743e-15)
(14.164 -6.07514 -3.30911e-16)
(16.8626 -8.19983 9.09559e-15)
(22.0416 -9.26015 4.07555e-15)
(24.7505 -8.83399 3.32724e-15)
(21.1834 -14.8256 -2.40758e-16)
(3.63321 -1.88242 3.16338e-15)
(5.43345 -2.38106 -2.99044e-15)
(7.429 -2.86644 -1.79054e-16)
(9.60014 -3.43914 1.25064e-14)
(11.9802 -4.1226 -1.73795e-14)
(14.6939 -4.74478 5.48503e-15)
(17.368 -6.70459 -4.66404e-15)
(22.8036 -7.52634 1.08356e-14)
(25.2138 -6.54395 0)
(22.4353 -13.3093 9.38887e-17)
(4.00977 -1.44541 3.55935e-15)
(5.8328 -1.80191 2.99737e-15)
(7.8534 -2.1444 5.17603e-15)
(10.045 -2.54876 -8.31749e-15)
(12.4415 -3.04472 3.36304e-15)
(15.1814 -3.31777 0)
(17.7669 -5.09128 -2.17279e-15)
(23.5226 -5.65281 -7.3483e-15)
(25.5075 -4.12628 -9.32691e-17)
(23.3032 -11.3425 4.28131e-15)
(4.32151 -0.952223 1.67003e-15)
(6.17432 -1.15677 0)
(8.21583 -1.35077 2.59488e-15)
(10.4301 -1.58447 2.24948e-15)
(12.8548 -1.90082 1.12607e-16)
(15.6528 -1.81524 -1.38403e-15)
(18.1366 -3.40447 2.17875e-15)
(24.1574 -3.50229 0)
(25.869 -1.33219 3.14261e-15)
(23.5973 -8.73588 3.64863e-15)
(4.55881 -0.377635 1.87201e-15)
(6.44937 -0.437455 -3.20126e-15)
(8.50563 -0.488779 -1.38664e-16)
(10.7209 -0.582988 9.44186e-16)
(13.1595 -0.791073 -7.78841e-17)
(15.9792 -0.388337 1.31563e-15)
(18.5007 -1.9148 -1.98284e-15)
(25.0894 -1.51905 -5.32394e-17)
(26.0786 2.05449 2.372e-15)
(24.7555 -6.94397 -2.63073e-15)
(4.77707 0.306019 2.87648e-29)
(6.65612 0.217042 0)
(8.73161 0.124248 0)
(10.9365 0.0511443 -1.01199e-15)
(13.3648 -0.155359 0)
(16.344 0.306645 0)
(18.3149 -0.569468 1.01486e-15)
(25.3438 -1.63274 0)
(27.7098 3.39464 0)
(19.5543 -6.16908 -1.03397e-29)
(0.569999 -0.573123 1.0283e-15)
(0.318292 -1.94776 -8.94381e-15)
(0.741551 -2.08798 8.19457e-15)
(1.2209 -2.03308 -1.11023e-14)
(1.63485 -1.82583 7.49005e-15)
(2.00459 -1.52714 -1.57895e-14)
(2.33131 -1.17014 3.94828e-15)
(2.60659 -0.754975 -4.32637e-15)
(2.80249 -0.289785 0)
(3.02162 0.358794 -5.65716e-16)
(-0.673487 -0.458064 1.57179e-14)
(-0.719471 -1.84385 0)
(-0.432555 -1.76904 8.38649e-15)
(0.00239399 -1.67716 -3.25883e-15)
(0.348012 -1.479 -1.13526e-14)
(0.631673 -1.20944 0)
(0.866735 -0.899139 -4.50926e-15)
(1.05569 -0.543759 -2.17262e-15)
(1.17467 -0.148772 1.41947e-15)
(1.34405 0.37087 -6.74322e-16)
(-1.12105 -0.452332 -1.30407e-14)
(-1.32681 -1.76607 0)
(-1.24689 -1.61739 7.69461e-15)
(-0.916957 -1.45126 7.92628e-16)
(-0.645992 -1.22924 9.40265e-15)
(-0.435294 -0.97802 -4.40995e-15)
(-0.281487 -0.703409 0)
(-0.202683 -0.366558 5.50025e-15)
(-0.219089 0.0234714 -9.55896e-16)
(-0.19616 0.344122 7.4955e-16)
(-1.03259 -0.418587 5.87854e-15)
(-1.55159 -1.5348 -2.65939e-15)
(-1.72641 -1.41957 6.17908e-15)
(-1.59316 -1.2256 -6.23232e-15)
(-1.45924 -0.962097 6.42907e-16)
(-1.3624 -0.670086 3.61081e-15)
(-1.3129 -0.362556 -1.0707e-14)
(-1.30343 -0.0318576 1.80607e-15)
(-1.34126 0.292038 3.14413e-15)
(-1.34368 0.478667 8.96351e-17)
(-0.817071 -0.322467 -8.65483e-15)
(-1.43998 -1.26697 7.26729e-15)
(-1.86727 -1.17894 0)
(-1.93619 -0.990568 2.49384e-15)
(-1.93778 -0.724235 2.61272e-15)
(-1.92993 -0.44193 -3.54748e-16)
(-1.92985 -0.166358 1.74705e-15)
(-1.93606 0.106719 4.30793e-15)
(-1.96472 0.342589 2.06566e-17)
(-1.96093 0.412792 4.27734e-16)
(-0.586393 -0.215648 -3.41771e-15)
(-1.16677 -0.958053 5.24327e-15)
(-1.71985 -0.885023 2.22766e-15)
(-1.95168 -0.727798 -3.63305e-15)
(-2.08175 -0.497374 -2.2121e-15)
(-2.15831 -0.254878 -2.37523e-16)
(-2.20477 -0.0289894 -3.89803e-15)
(-2.22414 0.175434 1.20562e-15)
(-2.23387 0.320681 4.16281e-16)
(-2.1957 0.317833 -4.52161e-16)
(-0.381816 -0.113673 0)
(-0.82034 -0.621085 -1.71781e-15)
(-1.38939 -0.547126 5.03259e-16)
(-1.71069 -0.428578 -8.75952e-16)
(-1.9318 -0.254263 1.405e-15)
(-2.0819 -0.0737029 0)
(-2.17647 0.0888414 9.05447e-16)
(-2.21942 0.223737 1.41637e-15)
(-2.22909 0.291375 -1.29826e-15)
(-2.18008 0.248685 -3.80943e-17)
(-0.204522 -0.0162375 0)
(-0.481336 -0.280246 -3.96471e-16)
(-0.966935 -0.189846 2.92458e-15)
(-1.29694 -0.100637 -2.16101e-15)
(-1.55336 0.0110691 0)
(-1.74257 0.121107 -3.91387e-16)
(-1.86654 0.21356 -1.05434e-15)
(-1.92974 0.279122 8.4755e-16)
(-1.94328 0.26626 9.17274e-16)
(-1.92049 0.19506 -3.6028e-16)
(-0.0483478 0.0221335 -9.06653e-16)
(-0.210266 -0.0571716 4.07984e-16)
(-0.564043 0.00215796 4.09879e-16)
(-0.849541 0.0222081 -4.12812e-16)
(-1.08542 0.0493969 0)
(-1.26297 0.069162 4.20602e-16)
(-1.37918 0.0695691 6.02462e-16)
(-1.43662 0.0417414 -6.81481e-16)
(-1.4465 -0.0298038 -1.49803e-16)
(-1.41599 -0.0862102 9.80284e-18)
(0.480654 0.421531 -2.57592e-16)
(0.691273 0.733965 7.09454e-17)
(0.666447 0.829755 5.95825e-17)
(0.583288 0.851881 0)
(0.478886 0.885811 -2.38071e-17)
(0.375632 0.937085 0)
(0.28 0.988954 -8.18954e-17)
(0.190454 1.0178 1.38516e-16)
(0.0946886 0.999182 3.5809e-17)
(0.00674478 1.05019 -9.25961e-18)
)
;

boundaryField
{
    right
    {
        type            cyclic;
    }
    left
    {
        type            cyclic;
    }
    outerWall
    {
        type            noSlip;
    }
    stirrerWall
    {
        type            noSlip;
    }
    top
    {
        type            empty;
    }
    bottom
    {
        type            empty;
    }
}


// ************************************************************************* //
