/*--------------------------------*- C++ -*----------------------------------*\
  =========                 |
  \\      /  F ield         | OpenFOAM: The Open Source CFD Toolbox
   \\    /   O peration     | Website:  https://openfoam.org
    \\  /    A nd           | Version:  10
     \\/     M anipulation  |
\*---------------------------------------------------------------------------*/
FoamFile
{
    format      ascii;
    class       volScalarField;
    location    "71000";
    object      k;
}
// * * * * * * * * * * * * * * * * * * * * * * * * * * * * * * * * * * * * * //

dimensions      [0 2 -2 0 0 0 0];

internalField   nonuniform List<scalar> 
17969
(
8.91253e-05
0.00155681
0.00338066
0.0054969
0.00784842
0.0106889
0.0137894
0.016546
0.0185756
0.019837
0.020507
0.020812
0.0209564
0.0210922
0.0212899
0.0216073
0.0221117
0.0228139
0.0236958
0.0247243
0.0258609
0.0270671
0.0283091
0.02956
0.0308002
0.0320158
0.0331979
0.0343413
0.035443
0.036502
0.037518
0.0384914
0.0394229
0.0403136
0.0411641
0.0419753
0.042748
0.0434828
0.0441803
0.044841
0.0454653
0.0460538
0.0466066
0.0471241
0.0476067
0.0480548
0.0484685
0.0488484
0.0491949
0.0495086
0.0497899
0.0500396
0.0502585
0.0504474
0.0506074
0.0507396
0.0508452
0.0509256
0.0509822
0.0510165
0.0510303
0.0510251
0.0510029
0.0509652
0.050914
0.0508509
0.0507775
0.0506953
0.0506056
0.0505093
0.0504071
0.0502991
0.0501849
0.0500637
0.0499357
0.0498024
0.0496637
0.0495161
0.04936
0.0491945
0.0490197
0.0488376
0.0486514
0.0484645
0.0482812
0.0481061
0.0479441
0.0478014
0.0476851
0.047604
0.0475676
0.0475864
0.0476726
0.0478376
0.0480934
0.0484522
0.0489268
0.0495295
0.0502668
0.0511455
3.71064e-05
0.000768031
0.00180437
0.0030868
0.00450978
0.00622922
0.00835316
0.0110016
0.0139665
0.0167706
0.0190403
0.0206694
0.0217052
0.0222778
0.0225389
0.0226358
0.0226946
0.0227852
0.0229718
0.0233277
0.0238733
0.024599
0.0254786
0.0264788
0.0275652
0.0287054
0.0298711
0.03104
0.0321956
0.0333262
0.034424
0.0354844
0.0365044
0.0374826
0.0384185
0.0393123
0.0401642
0.040975
0.0417453
0.0424759
0.0431674
0.0438205
0.044436
0.0450142
0.0455559
0.0460614
0.0465313
0.0469661
0.0473663
0.0477324
0.048065
0.0483648
0.0486326
0.0488692
0.0490756
0.0492528
0.049402
0.0495246
0.049622
0.0496955
0.0497469
0.0497777
0.0497898
0.0497847
0.0497643
0.0497303
0.0496842
0.0496276
0.0495617
0.0494876
0.0494059
0.0493169
0.0492203
0.0491155
0.0490028
0.0488837
0.0487585
0.0486232
0.0484784
0.0483229
0.0481576
0.0479846
0.0478072
0.0476292
0.0474551
0.0472902
0.0471403
0.0470119
0.0469122
0.0468493
0.0468321
0.0468702
0.0469747
0.0471602
0.0474393
0.0478253
0.0483319
0.0489718
0.049753
0.050685
1.22391e-05
0.000302583
0.000837793
0.00158688
0.00241148
0.00337075
0.00455061
0.00604616
0.00797055
0.0104491
0.0132654
0.0161287
0.0187404
0.0208496
0.0223765
0.0233484
0.0238665
0.0240643
0.0240826
0.0240478
0.0240301
0.0241099
0.0243536
0.0247815
0.0253864
0.0261456
0.0270295
0.0280069
0.0290479
0.0301261
0.0312188
0.0323077
0.0333793
0.0344238
0.0354348
0.0364081
0.0373411
0.0382326
0.0390823
0.0398902
0.0406568
0.0413826
0.0420683
0.0427147
0.0433223
0.043892
0.0444242
0.0449195
0.0453785
0.0458018
0.04619
0.0465438
0.046864
0.0471513
0.0474068
0.0476314
0.0478263
0.0479929
0.0481324
0.0482464
0.0483363
0.0484039
0.0484509
0.0484788
0.0484895
0.0484847
0.0484659
0.0484348
0.0483925
0.0483402
0.0482788
0.0482085
0.0481294
0.048041
0.0479437
0.0478391
0.0477277
0.0476073
0.0474763
0.0473339
0.0471813
0.047021
0.0468565
0.0466915
0.0465308
0.0463799
0.0462453
0.0461344
0.0460553
0.0460168
0.0460279
0.0460978
0.0462355
0.0464526
0.0467667
0.047192
0.0477433
0.0484337
0.0492733
0.0502742
5.66088e-06
0.000148364
0.000443354
0.000899935
0.00140028
0.00194429
0.00260183
0.00343005
0.00449229
0.00587652
0.00766389
0.0099618
0.0126298
0.0154505
0.0182315
0.0207005
0.0226623
0.0240478
0.0248903
0.0252924
0.0253881
0.0253172
0.0252011
0.0250993
0.0251024
0.0252645
0.0256024
0.02611
0.0267673
0.027548
0.0284235
0.0293667
0.0303527
0.0313602
0.0323712
0.0333714
0.0343503
0.0353001
0.0362158
0.0370943
0.0379335
0.0387328
0.0394917
0.0402104
0.0408892
0.0415284
0.0421286
0.0426902
0.0432136
0.0436996
0.0441485
0.044561
0.0449379
0.0452799
0.045588
0.0458632
0.0461067
0.0463196
0.0465034
0.0466596
0.0467897
0.0468952
0.046978
0.0470398
0.0470822
0.0471069
0.0471157
0.0471101
0.0470914
0.0470608
0.0470194
0.0469677
0.0469059
0.046834
0.0467526
0.0466635
0.0465674
0.0464642
0.0463501
0.046224
0.0460879
0.0459445
0.0457973
0.0456502
0.0455081
0.0453765
0.0452624
0.0451738
0.0451196
0.0451098
0.0451548
0.0452649
0.0454491
0.0457154
0.0460767
0.0465538
0.047163
0.0479182
0.0488316
0.0499181
0.0511927
0.0526657
0.0543435
0.0562279
4.10892e-06
0.000107075
0.000314472
0.000635378
0.000971081
0.00131104
0.00169316
0.00216471
0.00276502
0.00354369
0.00456907
0.00590102
0.00760126
0.00974784
0.0123014
0.0150716
0.0178754
0.0205272
0.0227833
0.0245107
0.0256741
0.0263273
0.0265813
0.0265677
0.0264192
0.0262426
0.0260878
0.0260421
0.0261471
0.0264148
0.0268391
0.0274023
0.028081
0.0288503
0.029686
0.0305661
0.0314717
0.0323866
0.0332977
0.0341948
0.0350699
0.0359174
0.0367332
0.0375145
0.0382594
0.0389668
0.0396359
0.0402664
0.040858
0.0414109
0.0419251
0.0424011
0.0428393
0.0432404
0.0436053
0.0439348
0.0442302
0.0444926
0.0447234
0.0449241
0.0450963
0.0452416
0.0453618
0.0454585
0.0455335
0.0455886
0.0456254
0.0456456
0.0456506
0.0456419
0.0456206
0.0455876
0.0455435
0.0454888
0.0454245
0.0453528
0.0452748
0.0451913
0.0450971
0.044991
0.0448755
0.0447536
0.0446287
0.044505
0.0443874
0.0442816
0.0441949
0.0441354
0.0441128
0.044138
0.0442227
0.0443787
0.0446168
0.0449454
0.0453723
0.0459141
0.0465951
0.0474303
0.0484342
0.0496247
0.0510172
0.0526226
0.054447
0.0564917
3.71221e-06
9.5128e-05
0.000270479
0.000532394
0.000790778
0.00103332
0.00128362
0.00156888
0.00192102
0.00236953
0.00295295
0.00372616
0.00474304
0.00605737
0.00772151
0.00979065
0.0122884
0.0150248
0.0177811
0.0204726
0.0228919
0.0248648
0.0263056
0.0272185
0.0276795
0.0278032
0.0277121
0.0275218
0.0273177
0.0271429
0.0270649
0.0271169
0.0273082
0.0276351
0.0280846
0.0286387
0.029278
0.0299833
0.0307367
0.0315222
0.0323257
0.0331352
0.0339407
0.0347338
0.0355078
0.0362571
0.0369776
0.0376658
0.0383194
0.0389364
0.0395156
0.0400564
0.0405583
0.0410216
0.0414465
0.0418338
0.0421843
0.0424993
0.04278
0.043028
0.0432447
0.0434318
0.0435912
0.0437244
0.0438335
0.04392
0.0439858
0.0440327
0.0440623
0.0440761
0.0440757
0.0440624
0.0440374
0.0440015
0.0439564
0.0439044
0.0438473
0.0437866
0.043716
0.0436342
0.043544
0.0434486
0.0433517
0.0432575
0.0431711
0.0430987
0.0430474
0.0430257
0.0430437
0.0431128
0.0432455
0.0434549
0.0437536
0.0441518
0.044656
0.0452789
0.0460462
0.0469781
0.0480914
0.0494063
0.0509388
0.0526998
0.0546949
0.056924
3.48306e-06
8.80776e-05
0.000244965
0.000475649
0.000695196
0.000890637
0.00107924
0.00127717
0.00150162
0.0017744
0.00211281
0.0025416
0.00310677
0.0038628
0.00487072
0.0061671
0.00779896
0.0098102
0.0122534
0.0149688
0.017722
0.0204032
0.022916
0.0250715
0.0267624
0.0279522
0.0286758
0.0290173
0.0290806
0.0289678
0.02877
0.0285562
0.0283513
0.028214
0.028176
0.0282507
0.0284412
0.0287422
0.0291435
0.0296318
0.030193
0.0308121
0.0314747
0.0321671
0.0328766
0.0335922
0.0343039
0.0350035
0.0356839
0.0363393
0.0369652
0.0375581
0.0381156
0.038636
0.0391183
0.0395622
0.0399681
0.0403365
0.0406685
0.0409652
0.0412281
0.0414589
0.0416591
0.0418307
0.0419753
0.042095
0.0421914
0.0422666
0.0423224
0.0423606
0.042383
0.0423915
0.0423876
0.0423732
0.04235
0.0423204
0.0422863
0.0422488
0.0422082
0.0421563
0.0420968
0.0420337
0.0419708
0.041913
0.0418655
0.0418346
0.0418277
0.0418536
0.0419223
0.0420457
0.042237
0.0425099
0.0428781
0.0433531
0.0439424
0.0446586
0.0455288
0.0465761
0.0478199
0.049282
0.0509784
0.0529195
0.0551098
0.0575473
0.0602232
3.23431e-06
8.13988e-05
0.00022422
0.000434671
0.000632222
0.000802386
0.000958806
0.00111279
0.00127407
0.00145339
0.00166542
0.00192271
0.00224036
0.00264783
0.00318469
0.00389734
0.00484264
0.00609108
0.00766215
0.00959847
0.0119476
0.014593
0.0173328
0.0200194
0.0225812
0.0249013
0.026848
0.0283544
0.0294129
0.0300652
0.0303826
0.030447
0.0303367
0.0301234
0.0298624
0.0295796
0.0293347
0.0291637
0.0290891
0.0291224
0.0292657
0.0295148
0.0298604
0.0302902
0.0307896
0.0313433
0.031936
0.0325535
0.0331828
0.0338126
0.0344333
0.0350369
0.0356171
0.0361691
0.0366893
0.0371752
0.0376254
0.0380392
0.0384166
0.0387582
0.0390648
0.0393376
0.0395781
0.0397879
0.0399686
0.0401223
0.0402506
0.0403556
0.0404393
0.0405038
0.0405512
0.0405837
0.0406035
0.0406128
0.0406139
0.0406095
0.040602
0.0405933
0.0405856
0.040569
0.0405447
0.040519
0.0404965
0.0404821
0.0404815
0.0405009
0.0405479
0.0406313
0.0407614
0.0409502
0.0412113
0.0415589
0.0420072
0.0425685
0.0432513
0.0440727
0.0450636
0.0462461
0.047643
0.0492757
0.05116
0.0533052
0.0557142
0.0583823
0.0612977
0.0644418
0.0677908
2.9963e-06
7.56474e-05
0.000208054
0.000405655
0.000591799
0.000749415
0.000889797
0.00102192
0.00115238
0.00128705
0.00143246
0.00159726
0.0017932
0.00202867
0.00231749
0.00268854
0.00317661
0.00382434
0.00468307
0.00581647
0.00726022
0.00904868
0.0112364
0.0137603
0.0164424
0.0191102
0.0216979
0.0241497
0.0263437
0.0281856
0.0296292
0.0306692
0.0313335
0.0316722
0.0317473
0.031623
0.031363
0.0310068
0.0306149
0.0302466
0.0299439
0.0297354
0.0296368
0.0296535
0.0297829
0.030016
0.0303395
0.0307376
0.0311934
0.0316907
0.032214
0.0327498
0.0332866
0.0338147
0.0343267
0.0348164
0.0352797
0.0357135
0.0361159
0.0364858
0.0368229
0.0371274
0.0374001
0.037642
0.0378543
0.0380387
0.0381967
0.0383302
0.0384411
0.0385317
0.0386042
0.0386611
0.0387051
0.0387389
0.0387651
0.0387868
0.0388072
0.0388291
0.0388557
0.0388815
0.0389006
0.0389191
0.038944
0.0389808
0.0390352
0.0391136
0.0392238
0.0393745
0.0395764
0.0398413
0.0401829
0.040616
0.0411549
0.0418116
0.0426
0.0435453
0.0446754
0.0460135
0.0475842
0.0494089
0.0515027
0.0538736
0.056522
0.0594399
0.0626118
0.0660151
0.0696219
0.0734002
2.83404e-06
7.19708e-05
0.000198028
0.000388611
0.000570287
0.000723114
0.000856822
0.000979301
0.00109588
0.0012106
0.00132717
0.00144956
0.00158282
0.00173405
0.0019125
0.00212448
0.00238171
0.00270914
0.00313696
0.00370326
0.00445526
0.00544182
0.00669835
0.00827399
0.0102243
0.0125543
0.015116
0.0177363
0.0203421
0.0228694
0.0252557
0.0273968
0.0292142
0.0306625
0.0317258
0.0324156
0.0327675
0.0328327
0.0326734
0.0323412
0.0318999
0.0314248
0.0309728
0.0305869
0.0302946
0.0301111
0.030041
0.0300806
0.0302198
0.0304449
0.03074
0.0310888
0.0314755
0.0318862
0.0323084
0.0327319
0.0331482
0.0335508
0.0339347
0.0342964
0.0346333
0.0349439
0.0352273
0.0354835
0.0357127
0.0359158
0.0360937
0.0362476
0.0363792
0.0364906
0.036584
0.0366619
0.0367272
0.036783
0.0368322
0.0368782
0.0369249
0.0369762
0.0370359
0.0371082
0.0371807
0.0372545
0.0373354
0.0374309
0.037548
0.0376939
0.037876
0.0381031
0.0383859
0.0387359
0.0391657
0.0396902
0.0403274
0.0410947
0.0420086
0.0430938
0.0443797
0.0458908
0.0476534
0.0496888
0.0520113
0.0546268
0.0575323
0.0607159
0.0641574
0.0678299
0.0717011
0.0757352
0.0798952
0.0841437
2.7763e-06
7.08433e-05
0.000194832
0.00038309
0.000564696
0.00071715
0.000849181
0.000968211
0.0010791
0.00118526
0.00128939
0.00139396
0.00150155
0.00161522
0.00173902
0.00187877
0.00204243
0.00223488
0.00246483
0.00275303
0.00312526
0.00361469
0.00425414
0.00508546
0.00615444
0.00750656
0.00918925
0.0112747
0.0136638
0.0162224
0.0188255
0.0214107
0.0239152
0.0262742
0.028396
0.0302062
0.0316543
0.0327161
0.0333984
0.0337333
0.033773
0.0335707
0.0331922
0.0327188
0.0322152
0.0317332
0.0313098
0.0309692
0.0307239
0.0305771
0.0305249
0.0305584
0.0306657
0.0308334
0.0310484
0.0312977
0.0315699
0.0318549
0.0321444
0.0324315
0.0327106
0.0329777
0.0332292
0.0334633
0.0336784
0.0338737
0.0340489
0.0342041
0.0343403
0.0344588
0.0345615
0.0346505
0.0347287
0.0347992
0.0348651
0.0349296
0.0349974
0.0350733
0.0351621
0.0352699
0.0353961
0.0355329
0.0356828
0.0358512
0.0360441
0.0362676
0.0365301
0.0368388
0.0372026
0.0376371
0.0381571
0.0387801
0.0395265
0.040418
0.0414746
0.0427172
0.0441729
0.0458729
0.0478444
0.0501084
0.0526775
0.0555546
0.0587323
0.062194
0.0659143
0.0698613
0.0739983
0.0782861
0.0826847
0.0871547
0.0916592
0.0961638
0.100638
0.105054
2.82635e-06
7.23072e-05
0.000198427
0.000388156
0.000572521
0.000727045
0.000859925
0.000978471
0.00108745
0.00119009
0.00128877
0.00138543
0.00148186
0.00157985
0.00168142
0.00178909
0.0019062
0.00203761
0.00219036
0.00236884
0.00257913
0.00283696
0.00316315
0.00358358
0.0041303
0.00484149
0.00576037
0.00693298
0.00840267
0.0102248
0.0124198
0.014882
0.0174761
0.0201138
0.0227228
0.0252254
0.0275632
0.0296511
0.0314162
0.0328126
0.0338221
0.0344571
0.0347555
0.0347604
0.0345366
0.0341583
0.0336913
0.0331909
0.0326998
0.0322489
0.0318584
0.0315395
0.0312961
0.0311268
0.0310262
0.0309867
0.0309994
0.0310549
0.0311441
0.0312586
0.0313907
0.0315338
0.0316818
0.0318303
0.0319755
0.0321143
0.0322444
0.0323643
0.0324736
0.0325722
0.0326607
0.0327405
0.0328138
0.0328836
0.0329526
0.033024
0.0331025
0.0331929
0.0333003
0.0334306
0.0335921
0.0337803
0.0339923
0.0342314
0.0345019
0.0348091
0.0351603
0.0355631
0.0360259
0.0365606
0.0371821
0.0379119
0.0387732
0.0397919
0.0409943
0.0424042
0.0440458
0.0459509
0.0481483
0.050658
0.0534899
0.0566425
0.0601036
0.0638507
0.0678531
0.0720738
0.0764719
0.0810047
0.08563
0.090307
0.0949979
0.0996683
0.104288
0.10883
2.97616e-06
7.61982e-05
0.000208466
0.00040275
0.000591761
0.000749737
0.000884753
0.00100422
0.00111302
0.00121438
0.00131062
0.00140355
0.00149467
0.00158533
0.00167686
0.0017707
0.00186856
0.00197257
0.00208558
0.00221163
0.00235673
0.0025252
0.00272113
0.00295669
0.00324992
0.0036232
0.00410494
0.00473013
0.00553981
0.00657932
0.0078937
0.00952515
0.0115317
0.0138817
0.016464
0.019121
0.0218
0.0244291
0.0269243
0.029203
0.0312003
0.0328619
0.0341549
0.0350739
0.0356368
0.0358763
0.0358561
0.0356373
0.035278
0.0348296
0.0343353
0.0338295
0.0333387
0.0328815
0.0324699
0.0321106
0.0318061
0.0315557
0.0313564
0.0312036
0.0310921
0.0310156
0.030969
0.0309462
0.0309423
0.0309523
0.0309718
0.0309978
0.0310275
0.0310592
0.0310918
0.0311252
0.0311608
0.0312012
0.0312485
0.0313055
0.0313759
0.0314644
0.0315755
0.0317141
0.0318866
0.0321024
0.0323586
0.0326538
0.0329913
0.0333757
0.0338129
0.0343098
0.0348746
0.0355179
0.0362543
0.037103
0.0380874
0.0392363
0.0405836
0.0421615
0.0439979
0.0461209
0.0485576
0.051326
0.0544318
0.0578685
0.0616178
0.065651
0.0699316
0.0744178
0.0790648
0.0838271
0.0886607
0.093524
0.0983788
0.103191
0.107932
0.112575
3.22003e-06
8.23769e-05
0.000224517
0.000425843
0.000620666
0.000782868
0.000920727
0.0010418
0.00115121
0.00125232
0.0013475
0.00143852
0.00152679
0.00161352
0.0016998
0.0017867
0.00187533
0.00196692
0.00206294
0.00216525
0.00227631
0.00239959
0.00254022
0.00270296
0.00289087
0.00311282
0.00338484
0.00372675
0.0041641
0.00472916
0.00546094
0.00640382
0.00760462
0.00910496
0.0109432
0.0131755
0.0156977
0.0183735
0.0210876
0.0237714
0.0263509
0.0287566
0.0309156
0.0327649
0.0342677
0.0354114
0.0362104
0.0366954
0.0369074
0.0368922
0.0366961
0.0363633
0.0359339
0.0354428
0.0349193
0.0343869
0.0338641
0.0333645
0.0328976
0.0324694
0.0320829
0.0317389
0.0314366
0.0311745
0.0309486
0.0307554
0.0305915
0.0304529
0.0303362
0.0302384
0.0301571
0.0300909
0.0300403
0.0300059
0.0299905
0.0299974
0.030029
0.0300884
0.0301788
0.0303042
0.0304694
0.0306806
0.0309463
0.0312699
0.0316488
0.032087
0.0325896
0.0331626
0.0338138
0.0345534
0.0353951
0.0363579
0.0374665
0.0387517
0.0402491
0.0419964
0.0440292
0.0463758
0.0490582
0.0520911
0.0554752
0.0591973
0.0632322
0.0675445
0.0720921
0.0768283
0.0817051
0.0866749
0.0916924
0.096716
0.101708
0.106635
0.11147
0.116187
3.55634e-06
9.07548e-05
0.000246216
0.000456514
0.000657683
0.000824269
0.000965075
0.00108809
0.00119857
0.00130002
0.00139489
0.00148497
0.00157168
0.00165618
0.00173947
0.00182247
0.00190606
0.00199115
0.0020787
0.00216982
0.00226581
0.00236834
0.0024796
0.00260264
0.0027419
0.00290256
0.00308714
0.00330182
0.00356094
0.00388227
0.00428888
0.0048104
0.0054836
0.00635149
0.00746095
0.0088587
0.0105809
0.0126691
0.0150959
0.0177292
0.0204139
0.023087
0.0256771
0.0281121
0.0303303
0.0322778
0.03392
0.0352451
0.0362563
0.0369713
0.0374163
0.0376231
0.0376267
0.0374623
0.037164
0.0367637
0.0362902
0.0357686
0.0352204
0.0346633
0.0341115
0.0335762
0.0330654
0.0325851
0.032138
0.0317248
0.0313469
0.0310035
0.0306937
0.0304154
0.0301669
0.0299474
0.0297559
0.0295932
0.0294649
0.0293756
0.0293251
0.0293148
0.0293467
0.0294235
0.029549
0.0297274
0.0299644
0.030266
0.0306407
0.0310914
0.0316211
0.0322338
0.0329373
0.0337419
0.0346618
0.0357166
0.0369322
0.0383414
0.0399827
0.0418973
0.0441249
0.0466944
0.0496234
0.0529208
0.0565808
0.0605823
0.0648926
0.0694694
0.074265
0.0792286
0.0843096
0.0894589
0.0946311
0.0997848
0.104884
0.109896
0.114794
0.119557
0.124165
3.98655e-06
0.000101277
0.000273121
0.000492857
0.000701001
0.000872331
0.00101631
0.0011414
0.00125316
0.00135523
0.00145018
0.00153986
0.00162571
0.00170887
0.00179032
0.00187092
0.00195148
0.00203274
0.00211549
0.00220052
0.00228872
0.00238109
0.00247883
0.00258346
0.00269696
0.00282203
0.00296259
0.003124
0.00330873
0.00352079
0.00377269
0.00408042
0.00446464
0.00495212
0.00557656
0.00637823
0.00740155
0.00869128
0.0102839
0.0122085
0.0144917
0.0170097
0.0196061
0.0221998
0.0247242
0.027116
0.0293204
0.0312976
0.0330186
0.0344674
0.0356422
0.0365498
0.0372054
0.0376298
0.0378474
0.0378845
0.037768
0.0375245
0.0371791
0.0367554
0.0362744
0.035755
0.0352132
0.0346624
0.0341134
0.0335742
0.0330517
0.0325507
0.0320746
0.0316258
0.0312053
0.030815
0.0304565
0.0301326
0.0298535
0.0296252
0.0294482
0.0293231
0.0292509
0.029234
0.0292752
0.0293785
0.0295485
0.0297905
0.0301107
0.0305153
0.0310117
0.031608
0.0323121
0.0331345
0.0340903
0.0352
0.0364913
0.0380001
0.0397683
0.0418396
0.0442547
0.0470429
0.050216
0.0537729
0.0577001
0.0619683
0.0665364
0.0713556
0.076373
0.0815349
0.0867885
0.0920846
0.0973781
0.102629
0.107801
0.112867
0.117799
0.122578
0.127188
4.51417e-06
0.000114007
0.000303685
0.000534674
0.00075009
0.000926055
0.00107311
0.00120025
0.00131333
0.00141618
0.00151144
0.00160103
0.00168641
0.00176876
0.00184904
0.00192809
0.00200667
0.00208549
0.00216523
0.00224658
0.00233023
0.00241692
0.00250748
0.00260283
0.00270408
0.00281263
0.00293027
0.00305943
0.00320357
0.00336781
0.00355516
0.00376809
0.00401662
0.00431518
0.00468193
0.00514026
0.0057197
0.00645588
0.00738872
0.00855925
0.0100043
0.0117479
0.0138268
0.0161546
0.0185931
0.021038
0.0234322
0.0257194
0.0278565
0.0298081
0.0315508
0.033069
0.0343551
0.0354106
0.0362432
0.0368643
0.0372898
0.037538
0.0376287
0.0375821
0.0374183
0.0371567
0.0368157
0.036412
0.0359607
0.035475
0.0349667
0.0344453
0.0339189
0.0333941
0.0328766
0.0323713
0.0318833
0.0314182
0.0309913
0.030616
0.0302949
0.0300297
0.0298226
0.0296765
0.0295951
0.0295827
0.0296444
0.029786
0.0300137
0.0303346
0.0307565
0.0312883
0.0319407
0.0327275
0.033667
0.0347846
0.0361135
0.0376932
0.0395685
0.0417845
0.0443804
0.0473831
0.0507951
0.0546022
0.0587819
0.0632968
0.0680977
0.0731299
0.0783365
0.0836614
0.0890515
0.0944579
0.0998365
0.105149
0.110362
0.115449
0.120385
0.125154
0.129739
5.12946e-06
0.000128663
0.000337714
0.000581045
0.000803733
0.000984158
0.00113416
0.00126331
0.00137773
0.00148143
0.00157714
0.00166684
0.00175203
0.00183388
0.00191338
0.00199137
0.0020686
0.00214574
0.00222346
0.00230238
0.00238313
0.00246633
0.00255263
0.00264274
0.0027374
0.00283747
0.00294398
0.00305819
0.00318173
0.00331678
0.00346637
0.00363499
0.00382673
0.00404314
0.00429098
0.00458336
0.00493572
0.00536792
0.00590473
0.00657615
0.00741631
0.00846083
0.00974359
0.0112853
0.013111
0.0151872
0.0174041
0.0196415
0.0218536
0.0239926
0.0260181
0.0279017
0.0296205
0.031159
0.0325096
0.0336685
0.0346372
0.0354217
0.0360311
0.0364762
0.0367699
0.0369263
0.03696
0.0368853
0.036716
0.0364659
0.0361476
0.0357725
0.0353508
0.0348916
0.0344033
0.0338937
0.0333704
0.0328421
0.0323288
0.0318506
0.0314149
0.0310269
0.0306917
0.030415
0.0302024
0.0300604
0.0299957
0.0300155
0.0301276
0.0303404
0.0306633
0.0311067
0.0316836
0.0324108
0.0333106
0.0344128
0.0357557
0.0373849
0.0393498
0.0416973
0.0444646
0.0476722
0.0513119
0.0553595
0.0597786
0.0645156
0.0695174
0.0747249
0.0800798
0.0855269
0.0910133
0.0964908
0.101917
0.107256
0.112477
0.117554
0.122466
0.127197
0.131735
0.136071
5.84585e-06
0.000145215
0.000374635
0.00063095
0.000860823
0.00104556
0.00119841
0.00132953
0.00144531
0.00154991
0.00164616
0.00173609
0.00182123
0.00190279
0.00198175
0.00205897
0.00213519
0.0022111
0.00228734
0.00236452
0.00244324
0.00252409
0.00260766
0.00269452
0.0027853
0.00288061
0.00298115
0.0030877
0.00320118
0.00332271
0.00345375
0.00359624
0.00375282
0.00392728
0.00412466
0.00434632
0.00459565
0.00488417
0.00522489
0.00563413
0.00613196
0.00674236
0.00749263
0.00841096
0.00952419
0.0108497
0.0123987
0.0141853
0.0161271
0.0181295
0.0201279
0.0220873
0.0239721
0.0257538
0.0274121
0.0289329
0.0303051
0.0315228
0.0325839
0.033489
0.0342411
0.0348459
0.0353104
0.0356425
0.0358511
0.0359457
0.0359362
0.0358321
0.0356426
0.0353763
0.0350418
0.0346475
0.0342021
0.0337158
0.0332102
0.0327101
0.0322283
0.0317748
0.031359
0.03099
0.0306769
0.0304288
0.0302552
0.0301657
0.0301702
0.0302797
0.0305052
0.0308597
0.0313591
0.0320238
0.0328806
0.0339649
0.0353206
0.036999
0.0390528
0.0415291
0.0444607
0.0478601
0.0517069
0.0559626
0.0605837
0.0655127
0.0706868
0.0760419
0.0815156
0.0870496
0.0925935
0.0981036
0.103542
0.108873
0.11407
0.119109
0.123971
0.128643
0.133113
0.137374
6.66597e-06
0.000163882
0.00041374
0.000683529
0.000920466
0.00110939
0.00126502
0.00139807
0.00151521
0.00162075
0.00171759
0.00180782
0.00189301
0.00197438
0.00205293
0.00212954
0.00220494
0.00227983
0.00235487
0.00243066
0.00250782
0.00258693
0.00266855
0.00275324
0.00284154
0.00293399
0.00303113
0.00313352
0.00324176
0.00335652
0.00347862
0.00360904
0.00374908
0.00390045
0.00406546
0.00424732
0.00445094
0.00467881
0.00493205
0.00521909
0.00555124
0.00594142
0.0064054
0.00696129
0.00762943
0.00843064
0.00938475
0.010508
0.0118047
0.0132875
0.0149311
0.0166739
0.0184428
0.0201998
0.0219189
0.0235741
0.0251435
0.0266111
0.0279651
0.0291979
0.030303
0.0312771
0.0321191
0.0328295
0.0334102
0.0338646
0.0341971
0.0344128
0.034517
0.0345158
0.0344156
0.0342235
0.0339472
0.0335962
0.0331905
0.0327557
0.0323095
0.0318662
0.0314394
0.0310417
0.0306856
0.0303834
0.0301473
0.0299895
0.0299221
0.0299589
0.0301137
0.0304021
0.0308437
0.0314633
0.0322928
0.0333738
0.0347564
0.0364965
0.0386493
0.0412596
0.0443542
0.0479319
0.0519609
0.0563953
0.0611826
0.066259
0.0715573
0.0770113
0.0825589
0.0881432
0.0937139
0.0992269
0.104645
0.10994
0.115085
0.120061
0.124852
0.129444
0.13383
0.138003
7.5947e-06
0.00018457
0.000455734
0.000738434
0.000982075
0.00117501
0.00133333
0.00146828
0.00158677
0.00169326
0.00179072
0.00188128
0.00196655
0.00204776
0.00212594
0.002202
0.00227665
0.00235059
0.00242452
0.00249907
0.00257487
0.00265252
0.0027326
0.00281565
0.00290223
0.00299283
0.00308794
0.00318801
0.0032935
0.00340486
0.0035226
0.00364728
0.00377958
0.00392039
0.00407084
0.00423243
0.00440723
0.00459794
0.00480851
0.00504339
0.00530302
0.00559115
0.0059181
0.00629383
0.00673032
0.00724093
0.00784015
0.0085429
0.00936286
0.0103122
0.0113953
0.0126101
0.0139652
0.0154307
0.0169638
0.0185166
0.020054
0.0215583
0.0230106
0.0243929
0.0256904
0.0268923
0.0279899
0.0289771
0.029849
0.0306021
0.0312347
0.0317465
0.0321382
0.0324116
0.0325697
0.0326168
0.0325578
0.0324002
0.0321591
0.0318576
0.0315163
0.0311526
0.030783
0.0304231
0.0300878
0.029792
0.0295502
0.0293771
0.0292866
0.0292951
0.0294194
0.0296777
0.0300941
0.0306979
0.0315273
0.0326298
0.0340617
0.0358827
0.0381478
0.040898
0.044152
0.0478924
0.052077
0.0566565
0.0615698
0.0667484
0.072123
0.0776273
0.0832002
0.0887871
0.0943403
0.0998187
0.105188
0.110419
0.11549
0.120382
0.125082
0.129579
0.133866
0.137939
8.63369e-06
0.000207167
0.000499473
0.000794973
0.00104496
0.00124175
0.00140272
0.00153956
0.00165945
0.00176692
0.00186504
0.00195598
0.00204134
0.00212239
0.00220017
0.00227555
0.00234934
0.00242225
0.00249501
0.00256829
0.00264282
0.00271909
0.00279776
0.00287943
0.00296467
0.00305397
0.0031478
0.00324657
0.00335069
0.00346048
0.0035763
0.00369849
0.00382744
0.00396362
0.00410762
0.0042602
0.00442238
0.00459551
0.00478139
0.00498239
0.00520167
0.00544407
0.00571144
0.00600406
0.00632946
0.00669603
0.00711241
0.00758853
0.00813449
0.0087605
0.00947573
0.0102877
0.0112025
0.0122189
0.0133305
0.0145363
0.0158227
0.017158
0.0185134
0.0198554
0.021164
0.022426
0.0236274
0.0247547
0.0257956
0.0267408
0.0275832
0.0283171
0.0289388
0.0294453
0.0298357
0.0301103
0.0302714
0.0303234
0.0302746
0.0301432
0.0299495
0.0297127
0.0294508
0.0291808
0.0289192
0.0286823
0.0284861
0.028347
0.0282811
0.0283055
0.0284399
0.0287068
0.0291332
0.029754
0.0306133
0.0317651
0.0332703
0.0351908
0.0375799
0.0404723
0.0438743
0.0477545
0.0520646
0.0567509
0.0617465
0.0669804
0.072383
0.0778893
0.0834406
0.0889852
0.0944786
0.099883
0.105167
0.110306
0.115277
0.120066
0.124659
0.129047
0.133225
0.13719
9.77397e-06
0.000231444
0.000544249
0.000852375
0.00110845
0.00130896
0.0014725
0.00161123
0.00173249
0.00184096
0.00193974
0.00203104
0.00211648
0.00219734
0.00227468
0.00234938
0.00242227
0.00249409
0.00256559
0.00263748
0.00271045
0.00278519
0.0028624
0.00294275
0.00302686
0.00311512
0.00320806
0.00330613
0.00340966
0.00351893
0.00363422
0.00375575
0.00388374
0.00401844
0.00416015
0.00430925
0.00446628
0.00463192
0.0048071
0.00499306
0.00519141
0.00540427
0.00563424
0.00588489
0.00616063
0.0064614
0.00678901
0.00715163
0.00755546
0.00800751
0.00851507
0.00908483
0.00972312
0.0104346
0.0112219
0.0120866
0.0130259
0.0140317
0.0150941
0.0162093
0.0173596
0.0185215
0.0196747
0.0207979
0.0218691
0.0228792
0.0238176
0.0246739
0.0254379
0.0261031
0.0266644
0.0271187
0.0274652
0.0277049
0.0278392
0.0278797
0.0278455
0.0277554
0.0276271
0.0274772
0.0273227
0.0271803
0.0270663
0.0269979
0.0269925
0.0270688
0.0272481
0.0275557
0.0280232
0.0286904
0.0296073
0.030833
0.0324319
0.0344661
0.0369847
0.0400147
0.0435441
0.047533
0.051934
0.0566857
0.0617181
0.0669599
0.0723429
0.0778047
0.0832897
0.0887499
0.0941443
0.0994388
0.104605
0.109621
0.114468
0.119133
0.123604
0.127871
0.131931
0.135782
1.10043e-05
0.000257078
0.000589436
0.000909944
0.00117189
0.00137599
0.00154205
0.00168263
0.00180526
0.00191469
0.00201409
0.00210569
0.00219113
0.0022717
0.00234847
0.00242237
0.00249422
0.00256482
0.00263494
0.00270533
0.00277676
0.00284997
0.00292567
0.00300458
0.00308733
0.00317452
0.00326673
0.00336448
0.00346787
0.00357723
0.00369282
0.00381476
0.00394316
0.00407815
0.00421987
0.00436848
0.00452424
0.00468749
0.00485873
0.00503861
0.00522802
0.00542809
0.00564028
0.00586642
0.00610883
0.0063702
0.00665445
0.00696429
0.00729883
0.00766178
0.0080595
0.00849628
0.00897725
0.00950708
0.0100894
0.0107271
0.0114219
0.012173
0.012978
0.0138338
0.0147332
0.0156655
0.0166192
0.0175846
0.0185541
0.0195073
0.0204279
0.021301
0.0221065
0.022839
0.0234912
0.0240556
0.0245281
0.0249065
0.0251863
0.0253726
0.025482
0.0255312
0.0255366
0.0255142
0.0254796
0.025448
0.0254356
0.0254593
0.0255368
0.0256879
0.0259356
0.0263079
0.02684
0.0275767
0.0285726
0.0298908
0.0315974
0.0337522
0.0363984
0.0395484
0.0431775
0.0472438
0.0516964
0.0564697
0.0614929
0.0666962
0.072014
0.0773875
0.0827651
0.0881025
0.0933628
0.0985153
0.103535
0.108403
0.113103
0.117623
0.121955
0.126091
0.130026
0.133757
1.23162e-05
0.000283732
0.000634453
0.000966974
0.00123458
0.00144216
0.00161069
0.00175308
0.00187704
0.00198739
0.00208734
0.00217914
0.00226445
0.00234458
0.00242062
0.0024935
0.0025641
0.00263326
0.0027018
0.00277053
0.00284028
0.00291184
0.00298602
0.00306355
0.00314515
0.00323143
0.00332295
0.00342019
0.00352349
0.0036332
0.00374964
0.00387261
0.0040022
0.00413854
0.00428158
0.00443137
0.00458802
0.00475166
0.00492252
0.00510096
0.00528746
0.00548267
0.00568742
0.00590277
0.00613004
0.00637084
0.00662714
0.00690117
0.00719533
0.00751355
0.00785698
0.00822423
0.00861945
0.00904693
0.00950902
0.0100088
0.0105487
0.0111296
0.0117518
0.0124146
0.013115
0.0138484
0.0146088
0.0153895
0.016183
0.0169783
0.0177646
0.0185323
0.0192796
0.019991
0.0206527
0.0212485
0.0217752
0.0222283
0.0225997
0.0228886
0.0231072
0.0232695
0.0233896
0.0234823
0.0235613
0.0236403
0.023733
0.0238555
0.0240254
0.0242628
0.024592
0.0250434
0.0256556
0.0264771
0.0275663
0.0289886
0.0308091
0.0330829
0.0358455
0.0390914
0.0427881
0.0468966
0.0513601
0.0561116
0.0610814
0.0662026
0.0714133
0.0766589
0.0818921
0.0870728
0.092168
0.0971507
0.101999
0.106697
0.11123
0.11559
0.119768
0.12376
0.127562
0.131169
1.36821e-05
0.000310971
0.000678727
0.00102279
0.00129583
0.0015068
0.00167773
0.00182189
0.00194712
0.00205832
0.00215872
0.00225058
0.0023356
0.0024151
0.00249017
0.0025618
0.0026309
0.00269836
0.00276507
0.0028319
0.00289976
0.00296953
0.00304207
0.0031182
0.00319866
0.00328414
0.00337521
0.00347233
0.00357587
0.0036861
0.0038032
0.00392727
0.00405839
0.00419673
0.00434186
0.00449376
0.00465252
0.0048181
0.00499055
0.00517008
0.00535691
0.0055514
0.00575406
0.00596551
0.00618654
0.00641813
0.00666144
0.00691782
0.00718887
0.00747645
0.00778245
0.00810853
0.00845775
0.00883062
0.00922523
0.00964421
0.0100904
0.0105643
0.0110672
0.0115993
0.0121591
0.0127444
0.013352
0.0139778
0.0146157
0.015259
0.0159015
0.0165366
0.0171588
0.0177611
0.0183398
0.0188954
0.0194096
0.0198726
0.0202759
0.0206156
0.0208999
0.0211398
0.0213462
0.0215306
0.0217048
0.0218812
0.0220708
0.022288
0.0225493
0.0228751
0.0232905
0.0238276
0.024528
0.0254429
0.0266331
0.0281638
0.0300973
0.0324831
0.0353395
0.0386501
0.042384
0.0464979
0.0509323
0.0556208
0.0604965
0.0654962
0.0705626
0.0756455