/*--------------------------------*- C++ -*----------------------------------*\
  =========                 |
  \\      /  F ield         | OpenFOAM: The Open Source CFD Toolbox
   \\    /   O peration     | Website:  https://openfoam.org
    \\  /    A nd           | Version:  10
     \\/     M anipulation  |
\*---------------------------------------------------------------------------*/
FoamFile
{
    format      ascii;
    class       volVectorField;
    location    "23000";
    object      Urel;
}
// * * * * * * * * * * * * * * * * * * * * * * * * * * * * * * * * * * * * * //

dimensions      [0 1 -1 0 0 0 0];

internalField   nonuniform List<vector> 
17922
(
(1.50313 -1.6434 0)
(1.49015 -1.62922 5.00603e-19)
(1.47711 -1.61497 -1.94983e-18)
(1.46401 -1.60066 5.08409e-24)
(1.45084 -1.58629 4.5617e-19)
(1.43761 -1.57185 8.8775e-19)
(1.42432 -1.55733 2.37058e-23)
(1.41095 -1.54275 4.14341e-19)
(1.39751 -1.52808 -3.78724e-21)
(1.38399 -1.51334 -3.91668e-19)
(1.37039 -1.49851 -3.01596e-18)
(1.35671 -1.48359 0)
(1.34294 -1.46858 0)
(1.32908 -1.45348 -3.38516e-19)
(1.31512 -1.43828 3.30543e-19)
(1.30106 -1.42298 -3.15518e-19)
(1.28691 -1.40757 3.08114e-19)
(1.27265 -1.39204 -1.18215e-18)
(1.25827 -1.37641 -2.83272e-19)
(1.24379 -1.36065 -1.09582e-18)
(1.22918 -1.34477 -7.92964e-19)
(1.21445 -1.32876 2.53515e-19)
(1.1996 -1.31262 -1.23109e-18)
(1.18461 -1.29634 9.47054e-19)
(1.16948 -1.27991 -9.11691e-19)
(1.15421 -1.26333 0)
(1.13878 -1.24659 0)
(1.12321 -1.22969 0)
(1.1076 -1.21276 1.58299e-18)
(1.09224 -1.1961 1.94255e-19)
(1.07724 -1.17983 5.8031e-19)
(1.06259 -1.16394 1.53752e-18)
(1.04827 -1.14843 -6.6769e-19)
(1.03428 -1.13326 6.60861e-19)
(1.0206 -1.11844 -7.50576e-19)
(1.00723 -1.10395 0)
(0.994151 -1.08977 9.18285e-20)
(0.981355 -1.07591 -9.20453e-19)
(0.968832 -1.06234 -5.493e-19)
(0.956574 -1.04906 -9.11036e-19)
(0.944572 -1.03606 9.14238e-20)
(0.932818 -1.02332 -8.9541e-20)
(0.921303 -1.01085 -6.2916e-19)
(0.91002 -0.998632 -8.89535e-20)
(0.898961 -0.986655 7.16674e-19)
(0.888119 -0.974915 -1.24826e-18)
(0.877485 -0.9634 -1.41786e-21)
(0.867049 -0.952096 -7.13721e-19)
(0.856798 -0.940988 6.23287e-19)
(0.846724 -0.930071 0)
(0.836824 -0.919341 3.57603e-19)
(0.827092 -0.908795 3.58069e-19)
(0.817526 -0.898429 -4.47492e-19)
(0.808121 -0.88824 4.49534e-19)
(0.798874 -0.878223 0)
(0.78978 -0.868375 2.70791e-19)
(0.780836 -0.858691 9.08627e-20)
(0.772037 -0.849168 3.61274e-19)
(0.763379 -0.839801 0)
(0.754859 -0.830585 -3.62672e-19)
(0.746473 -0.821518 0)
(0.738217 -0.812596 9.03552e-20)
(0.730087 -0.803814 -4.5696e-19)
(0.72208 -0.795169 -3.65865e-19)
(0.714193 -0.786658 3.66765e-19)
(0.706423 -0.778278 -3.67636e-19)
(0.698768 -0.770026 2.7708e-19)
(0.691224 -0.7619 -1.84681e-19)
(0.683789 -0.753896 -4.63562e-19)
(0.67646 -0.746011 0)
(0.669233 -0.738242 1.86269e-19)
(0.662102 -0.730583 1.86946e-19)
(0.655063 -0.723028 -1.85813e-23)
(0.648111 -0.715574 2.82302e-19)
(0.641242 -0.708216 -2.84955e-19)
(0.634458 -0.700954 1.90129e-19)
(0.627767 -0.693796 1.90225e-19)
(0.621184 -0.686755 -3.78836e-19)
(0.614734 -0.679853 9.30911e-20)
(0.608441 -0.673114 -9.30193e-20)
(0.602318 -0.666553 2.718e-19)
(0.59636 -0.660161 -1.79451e-19)
(0.59053 -0.653897 1.29486e-21)
(0.5848 -0.647732 9.05101e-20)
(0.579167 -0.641663 4.49791e-19)
(0.573631 -0.63569 -2.04304e-25)
(0.568188 -0.629811 2.72247e-19)
(0.562837 -0.624024 0)
(0.557576 -0.618328 -9.04879e-20)
(0.552403 -0.612721 9.21085e-20)
(0.547315 -0.607201 -1.83079e-19)
(0.54231 -0.601766 9.35554e-20)
(0.537388 -0.596414 1.85547e-19)
(1.49918 -1.647 -5.28528e-19)
(1.48622 -1.63278 5.0918e-19)
(1.47322 -1.6185 -4.98058e-19)
(1.46015 -1.60416 1.92512e-18)
(1.44702 -1.58975 -1.98815e-23)
(1.43383 -1.57528 -4.50514e-19)
(1.42057 -1.56073 1.31743e-18)
(1.40723 -1.54611 0)
(1.39383 -1.53142 -2.05478e-18)
(1.38034 -1.51664 4.00118e-19)
(1.36678 -1.50177 1.54132e-18)
(1.35313 -1.48682 -1.49093e-18)
(1.33939 -1.47178 0)
(1.32557 -1.45664 0)
(1.31165 -1.44141 0)
(1.29763 -1.42607 1.62412e-18)
(1.28351 -1.41062 1.25233e-18)
(1.26928 -1.39507 9.07495e-19)
(1.25495 -1.3794 2.90655e-19)
(1.2405 -1.3636 8.44587e-19)
(1.22593 -1.34769 3.01897e-23)
(1.21124 -1.33164 0)
(1.19643 -1.31546 2.50973e-19)
(1.18147 -1.29914 -1.21906e-18)
(1.16639 -1.28268 9.37854e-19)
(1.15115 -1.26606 0)
(1.13577 -1.24928 0)
(1.12024 -1.23234 0)
(1.10467 -1.21537 -5.36073e-23)
(1.08935 -1.19867 0)
(1.07439 -1.18237 1.98094e-19)
(1.05977 -1.16645 -1.99576e-19)
(1.0455 -1.15089 1.56958e-18)
(1.03154 -1.13569 5.85447e-19)
(1.0179 -1.12084 1.94751e-19)
(1.00457 -1.10631 0)
(0.991522 -1.09211 -7.62297e-19)
(0.978759 -1.07821 7.57774e-19)
(0.966269 -1.06461 8.47027e-19)
(0.954043 -1.0513 6.55258e-19)
(0.942073 -1.03827 -6.53714e-19)
(0.930349 -1.02551 6.49447e-19)
(0.918865 -1.01301 0)
(0.907611 -1.00076 -9.14508e-20)
(0.896581 -0.98876 -7.33657e-19)
(0.885766 -0.976993 1.55839e-18)
(0.875161 -0.965454 9.07185e-20)
(0.864752 -0.954125 5.48759e-19)
(0.854528 -0.942994 -6.40143e-19)
(0.84448 -0.932054 4.57592e-19)
(0.834604 -0.921302 1.83548e-19)
(0.824896 -0.910733 -2.74953e-19)
(0.815353 -0.900345 3.67989e-19)
(0.805971 -0.890134 0)
(0.796746 -0.880096 -9.14967e-20)
(0.787673 -0.870227 9.30469e-20)
(0.778749 -0.860523 3.6982e-19)
(0.769971 -0.85098 -3.70389e-19)
(0.761333 -0.841593 0)
(0.752832 -0.832358 -9.21933e-20)
(0.744464 -0.823273 9.37862e-20)
(0.736225 -0.814331 -9.25486e-20)
(0.728113 -0.805531 7.48995e-19)
(0.720122 -0.796868 4.68935e-19)
(0.712252 -0.78834 0)
(0.704498 -0.779942 0)
(0.696858 -0.771674 -9.35386e-20)
(0.689329 -0.763531 4.72953e-19)
(0.681909 -0.75551 7.57301e-19)
(0.674594 -0.74761 0)
(0.66738 -0.739824 0)
(0.660263 -0.732148 -2.87233e-19)
(0.653237 -0.724578 -1.93211e-19)
(0.646297 -0.717108 -9.70307e-20)
(0.63944 -0.709734 1.93464e-19)
(0.632669 -0.702458 -1.94011e-19)
(0.625991 -0.695286 -1.93976e-19)
(0.619422 -0.688233 9.72307e-20)
(0.612987 -0.68132 1.92413e-19)
(0.60671 -0.674571 1.89433e-19)
(0.600603 -0.668001 1.32223e-21)
(0.594661 -0.6616 -9.06203e-20)
(0.588846 -0.655328 1.03297e-23)
(0.583132 -0.649154 -2.73503e-19)
(0.577515 -0.643077 -9.09e-20)
(0.571994 -0.637095 -2.74553e-19)
(0.566567 -0.631206 -9.13069e-20)
(0.561231 -0.62541 0)
(0.555984 -0.619705 0)
(0.550826 -0.614088 2.77777e-19)
(0.545753 -0.608559 -9.31742e-20)
(0.540763 -0.603115 6.41734e-22)
(0.535856 -0.597754 0)
(1.4951 -1.6507 5.29144e-19)
(1.48218 -1.63644 -5.17932e-19)
(1.46921 -1.62213 2.00373e-18)
(1.45618 -1.60776 -1.9448e-18)
(1.44308 -1.59332 -9.4347e-19)
(1.42992 -1.57881 -4.55535e-19)
(1.4167 -1.56423 1.3327e-18)
(1.4034 -1.54957 1.71958e-18)
(1.39003 -1.53484 1.25145e-18)
(1.37658 -1.52003 -1.20809e-18)
(1.36305 -1.50513 0)
(1.34944 -1.49015 1.88752e-18)
(1.33574 -1.47507 -3.67478e-19)
(1.32195 -1.4599 -3.51601e-19)
(1.30807 -1.44463 3.43628e-19)
(1.29409 -1.42925 1.3209e-18)
(1.28001 -1.41377 -2.55198e-18)
(1.26582 -1.39818 0)
(1.25152 -1.38247 -8.93895e-19)
(1.23711 -1.36664 -3.68234e-21)
(1.22259 -1.35069 2.21069e-18)
(1.20794 -1.3346 -5.33832e-19)
(1.19316 -1.31839 1.03286e-18)
(1.17825 -1.30203 3.59193e-21)
(1.1632 -1.28552 -9.51935e-19)
(1.14801 -1.26887 2.31832e-19)
(1.13267 -1.25205 0)
(1.11718 -1.23507 2.11323e-19)
(1.10166 -1.21806 -1.87262e-18)
(1.08637 -1.20132 -2.04049e-19)
(1.07145 -1.18498 1.02024e-18)
(1.05688 -1.16902 -8.07262e-19)
(1.04264 -1.15343 -9.98612e-19)
(1.02873 -1.1382 -3.96859e-19)
(1.01513 -1.12331 -3.93825e-19)
(1.00183 -1.10875 9.79189e-19)
(0.988817 -1.09451 9.69609e-19)
(0.976089 -1.08059 -1.94629e-19)
(0.963633 -1.06696 0)
(0.951441 -1.05362 -9.53283e-19)
(0.939503 -1.04055 7.63281e-19)
(0.927811 -1.02776 1.90733e-19)
(0.916358 -1.01524 -6.60268e-19)
(0.905134 -1.00296 -8.4555e-19)
(0.894134 -0.990931 8.41225e-19)
(0.883349 -0.979139 -9.32648e-19)
(0.872773 -0.967573 -6.50525e-19)
(0.862392 -0.956221 0)
(0.852195 -0.945066 6.52527e-19)
(0.842174 -0.934102 -6.51807e-19)
(0.832323 -0.923326 -4.65893e-19)
(0.822641 -0.912735 9.41524e-20)
(0.813122 -0.902324 0)
(0.803763 -0.892091 0)
(0.79456 -0.882031 -3.74787e-19)
(0.78551 -0.872141 0)
(0.776608 -0.862416 -3.75669e-19)
(0.76785 -0.852852 0)
(0.759232 -0.843445 3.76658e-19)
(0.750751 -0.834191 0)
(0.742402 -0.825086 0)
(0.734182 -0.816126 0)
(0.726088 -0.807307 -3.79246e-19)
(0.718115 -0.798626 0)
(0.710262 -0.790079 -9.44519e-20)
(0.702525 -0.781664 1.90704e-19)
(0.694901 -0.773378 -1.9107e-19)
(0.687388 -0.765218 -2.86435e-19)
(0.679983 -0.757181 -3.83696e-19)
(0.672683 -0.749263 0)
(0.665484 -0.741461 -1.92797e-19)
(0.65838 -0.733769 1.93444e-19)
(0.651367 -0.726182 1.94168e-19)
(0.64444 -0.718696 0)
(0.637597 -0.711307 0)
(0.630839 -0.704015 9.73947e-20)
(0.624175 -0.696829 -9.87405e-20)
(0.617622 -0.689763 0)
(0.611203 -0.68284 -9.57953e-20)
(0.604942 -0.676081 -9.4276e-20)
(0.598852 -0.6695 0)
(0.592927 -0.66309 3.68444e-19)
(0.58713 -0.656809 1.84095e-19)
(0.581433 -0.650627 -1.84296e-19)
(0.575833 -0.644541 0)
(0.570329 -0.638549 9.30974e-20)
(0.564917 -0.632652 9.3301e-20)
(0.559597 -0.626846 1.85755e-19)
(0.554367 -0.621132 1.85643e-19)
(0.549225 -0.615506 -2.80359e-19)
(0.544168 -0.609967 9.38035e-20)
(0.539194 -0.604513 -1.29075e-21)
(0.534303 -0.599142 -9.52868e-20)
(1.49089 -1.65449 5.37532e-19)
(1.47801 -1.6402 -5.18345e-19)
(1.46507 -1.62586 -1.00696e-18)
(1.45208 -1.61145 1.47462e-18)
(1.43902 -1.59697 4.74463e-19)
(1.4259 -1.58243 -9.24676e-19)
(1.41271 -1.56782 -1.4772e-23)
(1.39945 -1.55313 -4.36855e-19)
(1.38611 -1.53836 4.1947e-19)
(1.3727 -1.52351 1.22307e-18)
(1.35921 -1.50858 0)
(1.34563 -1.49356 0)
(1.33197 -1.47845 -1.48225e-18)
(1.31822 -1.46324 1.43399e-18)
(1.30438 -1.44793 0)
(1.29044 -1.43252 -1.67396e-18)
(1.27639 -1.417 1.62144e-18)
(1.26225 -1.40137 -1.25159e-18)
(1.24799 -1.38562 2.41732e-18)
(1.23362 -1.36976 -2.89821e-19)
(1.21913 -1.35377 -8.42622e-19)
(1.20452 -1.33765 0)
(1.18979 -1.32139 -1.04744e-18)
(1.17492 -1.30499 -1.00976e-18)
(1.15991 -1.28845 1.21461e-18)
(1.14477 -1.27175 -4.68755e-19)
(1.12947 -1.25489 2.27524e-19)
(1.11402 -1.23787 0)
(1.09854 -1.22083 0)
(1.08331 -1.20405 0)
(1.06843 -1.18767 -8.30687e-19)
(1.0539 -1.17167 0)
(1.0397 -1.15604 -8.15563e-19)
(1.02582 -1.14077 -1.00938e-18)
(1.01226 -1.12585 4.01308e-19)
(0.998998 -1.11126 -9.97719e-19)
(0.986026 -1.09699 0)
(0.973334 -1.08302 0)
(0.960914 -1.06936 0)
(0.948756 -1.05599 1.92886e-19)
(0.936851 -1.0429 5.78923e-19)
(0.925193 -1.03008 -1.91062e-19)
(0.913771 -1.01752 9.60601e-19)
(0.902579 -1.00522 7.64274e-19)
(0.891609 -0.993161 7.61508e-19)
(0.880854 -0.981341 7.59028e-19)
(0.870308 -0.96975 4.70262e-23)
(0.859956 -0.958372 0)
(0.849787 -0.947192 -9.39676e-20)
(0.839793 -0.936205 8.53595e-19)
(0.82997 -0.925405 -2.85286e-19)
(0.820312 -0.914789 -4.75396e-19)
(0.810818 -0.904355 0)
(0.801484 -0.894099 -9.43452e-20)
(0.792304 -0.884017 4.76588e-19)
(0.783277 -0.874105 9.45143e-20)
(0.774397 -0.864358 1.90682e-19)
(0.765661 -0.854773 5.727e-19)
(0.757064 -0.845346 -5.73426e-19)
(0.748603 -0.836071 4.79198e-19)
(0.740274 -0.826946 -9.51029e-20)
(0.732073 -0.817966 9.67128e-20)
(0.723998 -0.809128 3.84542e-19)
(0.716043 -0.800428 -9.55727e-20)
(0.708208 -0.791862 4.83037e-19)
(0.700488 -0.783429 -3.86503e-19)
(0.692881 -0.775125 0)
(0.685384 -0.766947 3.87868e-19)
(0.677995 -0.758892 9.64194e-20)
(0.670711 -0.750957 -2.92752e-19)
(0.663526 -0.743137 2.93493e-19)
(0.656437 -0.735428 9.86086e-20)
(0.649438 -0.727824 -4.90483e-19)
(0.642525 -0.720321 9.93455e-20)
(0.635695 -0.712916 0)
(0.628951 -0.705609 1.98335e-19)
(0.622302 -0.698408 3.96258e-19)
(0.615764 -0.691329 0)
(0.609363 -0.684393 -2.91433e-19)
(0.60312 -0.677624 1.91609e-19)
(0.597048 -0.671033 -2.83013e-19)
(0.591141 -0.664613 -2.78035e-19)
(0.585363 -0.658323 1.31807e-21)
(0.579684 -0.652131 4.64967e-19)
(0.574102 -0.646035 0)
(0.568614 -0.640034 -9.37843e-20)
(0.56322 -0.634127 9.26342e-20)
(0.557918 -0.628312 -2.8116e-19)
(0.552704 -0.622587 -2.81245e-19)
(0.547579 -0.616951 9.40353e-20)
(0.542539 -0.611403 -9.43558e-20)
(0.537582 -0.605939 9.53862e-20)
(0.532708 -0.600558 0)
(1.48655 -1.65839 1.62058e-18)
(1.4737 -1.64406 -5.22485e-19)
(1.4608 -1.62968 5.11821e-19)
(1.44784 -1.61524 -9.90509e-19)
(1.43482 -1.60073 0)
(1.42174 -1.58615 0)
(1.40859 -1.5715 9.06213e-19)
(1.39536 -1.55678 -1.7582e-18)
(1.38207 -1.54197 -4.24217e-19)
(1.36869 -1.52709 4.15142e-19)
(1.35524 -1.51212 1.60127e-18)
(1.34171 -1.49706 1.93675e-18)
(1.32809 -1.48191 1.12434e-18)
(1.31437 -1.46667 -2.90694e-18)
(1.30057 -1.45132 -1.40622e-18)
(1.28667 -1.43587 -3.38064e-19)
(1.27267 -1.42032 3.30646e-19)
(1.25856 -1.40465 9.54982e-19)
(1.24434 -1.38886 -1.84143e-18)
(1.23002 -1.37296 -2.98287e-19)
(1.21557 -1.35693 -2.84235e-19)
(1.201 -1.34077 2.78007e-19)
(1.18631 -1.32447 1.33006e-18)
(1.17148 -1.30803 2.05144e-18)
(1.15652 -1.29145 -4.9532e-19)
(1.14142 -1.27471 4.77359e-19)
(1.12617 -1.25781 -3.66201e-21)
(1.11076 -1.24075 -2.23168e-19)
(1.09533 -1.22366 -2.14192e-19)
(1.08014 -1.20684 1.07068e-18)
(1.06531 -1.19042 0)
(1.05082 -1.17439 -6.30523e-19)
(1.03666 -1.15872 4.15477e-19)
(1.02283 -1.14342 1.03168e-18)
(1.0093 -1.12846 0)
(0.99608 -1.11383 -1.01276e-18)
(0.983145 -1.09952 2.03154e-19)
(0.970491 -1.08553 0)
(0.958107 -1.07183 7.96138e-19)
(0.945984 -1.05843 0)
(0.934115 -1.04531 -5.9242e-19)
(0.922489 -1.03246 5.86405e-19)
(0.911101 -1.01987 -1.93571e-19)
(0.899941 -1.00754 7.8052e-19)
(0.889003 -0.99545 -5.79354e-19)
(0.878279 -0.983602 -9.63288e-19)
(0.867763 -0.971984 7.72642e-19)
(0.857442 -0.96058 1.93827e-19)
(0.847302 -0.949375 -1.53926e-18)
(0.837336 -0.938362 -3.8514e-19)
(0.827539 -0.927537 2.39612e-23)
(0.817908 -0.916897 4.81379e-19)
(0.80844 -0.906439 -9.72407e-20)
(0.79913 -0.896159 0)
(0.789975 -0.886054 0)
(0.780971 -0.876119 -9.59278e-20)
(0.772114 -0.86635 -2.8953e-19)
(0.7634 -0.856743 -3.8738e-19)
(0.754825 -0.847294 0)
(0.746385 -0.837998 -2.79989e-23)
(0.738076 -0.828852 0)
(0.729896 -0.819852 0)
(0.721839 -0.810994 -7.79503e-19)
(0.713904 -0.802274 -3.90308e-19)
(0.706087 -0.793689 -3.90918e-19)
(0.698385 -0.785236 9.7166e-20)
(0.690795 -0.776913 -9.87496e-20)
(0.683316 -0.768717 2.95212e-19)
(0.675943 -0.760643 -2.9423e-19)
(0.668674 -0.75269 1.9703e-19)
(0.661505 -0.744853 -3.94948e-19)
(0.654431 -0.737126 9.97385e-20)
(0.647447 -0.729504 2.98789e-19)
(0.640548 -0.721984 0)
(0.633732 -0.714561 0)
(0.627003 -0.707238 -2.00383e-19)
(0.620369 -0.700022 -4.00109e-19)
(0.613849 -0.692929 0)
(0.607466 -0.685982 1.96434e-19)
(0.601242 -0.679201 9.5908e-20)
(0.59519 -0.6726 1.88398e-19)
(0.589303 -0.666169 -2.81516e-19)
(0.583543 -0.659869 -1.86898e-19)
(0.577883 -0.653668 -1.87028e-19)
(0.57232 -0.647562 -1.87194e-19)
(0.566851 -0.641551 0)
(0.561475 -0.635633 -3.75493e-19)
(0.556191 -0.629808 1.88127e-19)
(0.550995 -0.624073 0)
(0.545888 -0.618427 9.45514e-20)
(0.540866 -0.612868 0)
(0.535928 -0.607394 -9.52111e-20)
(0.531072 -0.602004 -9.56221e-20)
(1.48207 -1.66239 -1.62755e-18)
(1.46926 -1.64803 2.1135e-18)
(1.4564 -1.63361 -4.11618e-21)
(1.44348 -1.61913 4.97332e-19)
(1.43049 -1.60459 0)
(1.41745 -1.58997 -9.42496e-19)
(1.40433 -1.57529 -9.15073e-19)
(1.39115 -1.56052 -2.21816e-18)
(1.37789 -1.54568 4.32808e-19)
(1.36456 -1.53076 -1.67104e-18)
(1.35115 -1.51576 -2.02292e-18)
(1.33765 -1.50066 -1.17534e-18)
(1.32407 -1.48547 0)
(1.3104 -1.47019 -3.66069e-19)
(1.29664 -1.4548 2.13774e-18)
(1.28278 -1.43932 -3.46698e-19)
(1.26882 -1.42372 1.33367e-18)
(1.25475 -1.40801 0)
(1.24058 -1.39219 3.29995e-23)
(1.2263 -1.37625 -1.204e-18)
(1.21189 -1.36018 1.16279e-18)
(1.19737 -1.34397 -1.12259e-18)
(1.18272 -1.32764 1.0834e-18)
(1.16794 -1.31116 -1.04524e-18)
(1.15302 -1.29453 0)
(1.13797 -1.27775 0)
(1.12276 -1.26081 7.04315e-19)
(1.1074 -1.24371 2.27322e-19)
(1.09202 -1.22658 0)
(1.07687 -1.20971 -8.71121e-19)
(1.06208 -1.19325 0)
(1.04764 -1.17718 8.53911e-19)
(1.03353 -1.16147 -2.09794e-19)
(1.01973 -1.14613 -8.35531e-19)
(1.00625 -1.13113 4.16172e-19)
(0.993068 -1.11647 6.1794e-19)
(0.980173 -1.10213 0)
(0.967557 -1.0881 1.01717e-18)
(0.95521 -1.07437 -8.13461e-19)
(0.943124 -1.06093 -3.27314e-21)
(0.93129 -1.04778 7.98057e-19)
(0.9197 -1.0349 -8.00642e-19)
(0.908345 -1.02228 -3.96885e-19)
(0.897219 -1.00991 -5.91246e-19)
(0.886313 -0.997799 1.95252e-19)
(0.875621 -0.985922 -3.92228e-19)
(0.865136 -0.974276 -5.84871e-19)
(0.854846 -0.962846 -1.938e-19)
(0.844736 -0.951614 1.76041e-18)
(0.834799 -0.940575 0)
(0.82503 -0.929725 3.91366e-19)
(0.815427 -0.91906 0)
(0.805985 -0.908577 3.91722e-19)
(0.7967 -0.898273 0)
(0.78757 -0.888144 0)
(0.778591 -0.878185 -5.86887e-19)
(0.769757 -0.868393 5.90274e-19)
(0.761066 -0.858764 9.74398e-20)
(0.752513 -0.849292 -1.50958e-21)
(0.744095 -0.839975 -4.92597e-19)
(0.735808 -0.830807 -3.93855e-19)
(0.727648 -0.821785 0)
(0.719612 -0.812906 2.84315e-23)
(0.711696 -0.804166 3.9529e-19)
(0.703898 -0.795561 9.81976e-20)
(0.696214 -0.787088 2.96476e-19)
(0.688643 -0.778746 0)
(0.681181 -0.77053 -2.9872e-19)
(0.673826 -0.762437 2.97661e-19)
(0.666574 -0.754465 -9.88885e-20)
(0.659421 -0.746609 1.00588e-19)
(0.652362 -0.738864 -1.00841e-19)
(0.645393 -0.731224 -1.01145e-19)
(0.638509 -0.723685 0)
(0.631709 -0.716244 0)
(0.624995 -0.708904 1.00406e-19)
(0.618378 -0.701673 2.00399e-19)
(0.611876 -0.694566 -1.44869e-21)
(0.605512 -0.687606 -1.99431e-19)
(0.599309 -0.680814 -1.39747e-21)
(0.593277 -0.674202 -1.91118e-19)
(0.587411 -0.667761 4.72037e-19)
(0.581672 -0.66145 1.88136e-19)
(0.576032 -0.655238 0)
(0.570488 -0.649122 1.88329e-19)
(0.565039 -0.643101 0)
(0.559682 -0.637173 1.59251e-23)
(0.554417 -0.631337 0)
(0.54924 -0.625592 9.4095e-20)
(0.544152 -0.619935 -1.31213e-21)
(0.539149 -0.614366 -9.5289e-20)
(0.53423 -0.608881 9.62863e-20)
(0.529393 -0.60348 1.91383e-19)
(1.47744 -1.66649 1.09309e-18)
(1.46467 -1.6521 -1.59362e-18)
(1.45185 -1.63764 5.19513e-19)
(1.43897 -1.62313 0)
(1.42603 -1.60854 0)
(1.41302 -1.59389 9.50649e-19)
(1.39995 -1.57917 0)
(1.3868 -1.56437 1.79324e-18)
(1.37359 -1.54949 1.7405e-18)
(1.3603 -1.53453 3.79754e-18)
(1.34692 -1.51949 -4.11482e-19)
(1.33347 -1.50435 0)
(1.31993 -1.48913 0)
(1.3063 -1.4738 1.49068e-18)
(1.29258 -1.45838 1.44349e-18)
(1.27876 -1.44285 3.47328e-19)
(1.26485 -1.42722 -1.69207e-18)
(1.25083 -1.41147 0)
(1.2367 -1.3956 3.17173e-23)
(1.22246 -1.37962 3.1406e-23)
(1.2081 -1.36351 -1.18083e-18)
(1.19362 -1.34726 2.832e-19)
(1.17902 -1.33088 -1.37829e-18)
(1.16428 -1.31436 2.63743e-19)
(1.14941 -1.29769 -3.83127e-21)
(1.1344 -1.28087 -2.49108e-19)
(1.11924 -1.26389 -9.53348e-19)
(1.10393 -1.24674 -1.83651e-18)
(1.0886 -1.22957 -1.79258e-18)
(1.0735 -1.21266 0)
(1.05876 -1.19616 2.17634e-19)
(1.04436 -1.18004 -2.19127e-19)
(1.03029 -1.1643 0)
(1.01654 -1.14891 8.5396e-19)
(1.0031 -1.13388 -6.37017e-19)
(0.98996 -1.11918 -4.20319e-19)
(0.977105 -1.1048 4.17337e-19)
(0.964528 -1.09073 -1.03813e-18)
(0.95222 -1.07697 -8.23961e-19)
(0.940172 -1.0635 0)
(0.928375 -1.05031 -1.83152e-18)
(0.916821 -1.0374 2.04291e-19)
(0.905501 -1.02475 -2.00069e-19)
(0.894409 -1.01236 2.02419e-19)
(0.883537 -1.00021 -6.01525e-19)
(0.872878 -0.988304 -2.00806e-19)
(0.862425 -0.97663 1.3913e-18)
(0.852167 -0.965171 1.99927e-19)
(0.842088 -0.953913 -7.93602e-19)
(0.83218 -0.942847 0)
(0.822441 -0.93197 3.97146e-19)
(0.812865 -0.921279 -3.97278e-19)
(0.80345 -0.910771 -3.97405e-19)
(0.794192 -0.900442 -1.97192e-19)
(0.785088 -0.890288 2.00338e-19)
(0.776133 -0.880305 3.97718e-19)
(0.767324 -0.870489 -2.0048e-19)
(0.758657 -0.860836 -5.98598e-19)
(0.750128 -0.851341 5.95887e-19)
(0.741732 -0.842001 1.97745e-19)
(0.733467 -0.832811 3.98903e-19)
(0.725328 -0.823767 1.98105e-19)
(0.717313 -0.814867 1.98318e-19)
(0.709417 -0.806105 -1.98509e-19)
(0.701639 -0.797479 -1.98706e-19)
(0.693975 -0.788986 0)
(0.686422 -0.780623 -9.95683e-20)
(0.678978 -0.772387 -3.00516e-19)
(0.671641 -0.764275 4.02169e-19)
(0.664406 -0.756283 -9.99444e-20)
(0.65727 -0.748407 2.03256e-19)
(0.650228 -0.740642 1.01864e-19)
(0.643275 -0.732983 -1.00664e-19)
(0.636407 -0.725426 1.48866e-21)
(0.629622 -0.717967 4.0785e-19)
(0.622925 -0.710609 -1.02772e-19)
(0.616326 -0.703362 0)
(0.609843 -0.696241 -1.00267e-19)
(0.6035 -0.689268 -9.8973e-20)
(0.597318 -0.682464 0)
(0.591309 -0.675841 1.92331e-19)
(0.585464 -0.669389 -1.89717e-19)
(0.579746 -0.663067 -9.39355e-20)
(0.574128 -0.656844 9.52793e-20)
(0.568605 -0.650717 1.89299e-19)
(0.563176 -0.644685 0)
(0.557839 -0.638746 1.89672e-19)
(0.552594 -0.6329 9.56277e-20)
(0.547438 -0.627143 6.63156e-22)
(0.54237 -0.621476 -6.55325e-22)
(0.537387 -0.615896 -2.86943e-19)
(0.532488 -0.6104 9.72835e-20)
(0.527672 -0.604989 9.69961e-20)
(1.47267 -1.6707 -2.19819e-18)
(1.45994 -1.65627 0)
(1.44716 -1.64178 0)
(1.43432 -1.62723 1.00924e-18)
(1.42142 -1.61261 -9.89778e-19)
(1.40845 -1.59792 -4.81183e-19)
(1.39542 -1.58315 -9.31224e-19)
(1.38232 -1.56832 9.04641e-19)
(1.36914 -1.5534 -2.63545e-18)
(1.35589 -1.5384 -1.70138e-18)
(1.34256 -1.52332 8.27426e-19)
(1.32915 -1.50814 -4.03326e-19)
(1.31566 -1.49288 -1.55625e-18)
(1.30207 -1.47751 1.88333e-18)
(1.28839 -1.46205 -1.82861e-18)
(1.27462 -1.44648 1.76687e-18)
(1.26075 -1.4308 -3.44491e-19)
(1.24677 -1.41502 1.32563e-18)
(1.23269 -1.39911 1.28232e-18)
(1.21849 -1.38308 3.00611e-23)
(1.20418 -1.36693 0)
(1.18975 -1.35064 8.70489e-19)
(1.17519 -1.33422 -8.36876e-19)
(1.16051 -1.31765 0)
(1.14569 -1.30094 0)
(1.13072 -1.28408 2.49465e-19)
(1.11561 -1.26705 -2.44408e-19)
(1.10035 -1.24985 2.31774e-19)
(1.08507 -1.23263 1.36853e-18)
(1.07002 -1.21568 2.2758e-19)
(1.05532 -1.19914 0)
(1.04097 -1.18298 0)
(1.02695 -1.1672 -6.59088e-19)
(1.01325 -1.15177 -2.18978e-19)
(0.999851 -1.1367 1.07526e-18)
(0.986752 -1.12196 -4.27485e-19)
(0.973939 -1.10754 -8.45288e-19)
(0.961403 -1.09344 1.2645e-18)
(0.949135 -1.07964 1.46416e-18)
(0.937126 -1.06614 0)
(0.925366 -1.05292 8.27986e-19)
(0.913849 -1.03997 -8.23605e-19)
(0.902566 -1.02729 -2.03242e-19)
(0.891509 -1.01486 2.0559e-19)
(0.880671 -1.00268 8.12312e-19)
(0.870046 -0.990748 0)
(0.859627 -0.979045 -1.00601e-18)
(0.849402 -0.967558 1.20772e-18)
(0.839354 -0.956271 -2.02892e-19)
(0.829477 -0.945178 2.0294e-19)
(0.819767 -0.934274 -8.02475e-19)
(0.810221 -0.923556 6.05914e-19)
(0.800834 -0.913021 1.99876e-19)
(0.791603 -0.902666 -2.0303e-19)
(0.782526 -0.892486 1.999e-19)
(0.773597 -0.882478 -2.03047e-19)
(0.764813 -0.872638 0)
(0.75617 -0.86296 4.0316e-19)
(0.747665 -0.853442 -4.03309e-19)
(0.739293 -0.844078 -2.56382e-23)
(0.73105 -0.834865 -4.03712e-19)
(0.722934 -0.825799 0)
(0.71494 -0.816876 -2.00614e-19)
(0.707065 -0.808092 4.04612e-19)
(0.699307 -0.799444 4.04936e-19)
(0.691663 -0.79093 4.05253e-19)
(0.68413 -0.782546 -2.04305e-19)
(0.676706 -0.774289 4.05925e-19)
(0.669387 -0.766156 -6.1096e-19)
(0.662171 -0.758144 -1.51477e-21)
(0.655052 -0.750248 0)
(0.648027 -0.742463 2.04159e-19)
(0.641091 -0.734784 -2.0469e-19)
(0.634239 -0.727206 2.05243e-19)
(0.627472 -0.719728 -4.11337e-19)
(0.620792 -0.712353 -3.07789e-19)
(0.614212 -0.705089 1.03254e-19)
(0.607749 -0.697953 2.03361e-19)
(0.601428 -0.690967 2.00649e-19)
(0.595269 -0.684152 0)
(0.589283 -0.677517 -9.74014e-20)
(0.583461 -0.671053 -1.9072e-19)
(0.577766 -0.66472 9.57581e-20)
(0.57217 -0.658486 0)
(0.566668 -0.652347 -3.80312e-19)
(0.561261 -0.646304 1.90246e-19)
(0.555946 -0.640354 9.45437e-20)
(0.550722 -0.634496 -1.91992e-19)
(0.545588 -0.628729 -6.58215e-22)
(0.540541 -0.623051 1.91379e-19)
(0.535579 -0.617459 0)
(0.530702 -0.611953 -9.62351e-20)
(0.525907 -0.606531 9.59342e-20)
(1.46774 -1.67503 1.10437e-18)
(1.45505 -1.66056 1.07163e-18)
(1.44231 -1.64603 -1.05183e-18)
(1.42952 -1.63143 1.01561e-18)
(1.41666 -1.61677 -9.9652e-19)
(1.40373 -1.60204 1.92628e-18)
(1.39074 -1.58724 -4.1849e-21)
(1.37769 -1.57237 1.82431e-18)
(1.36455 -1.55741 8.82044e-19)
(1.35135 -1.54237 -8.3079e-24)
(1.33806 -1.52725 8.35309e-24)
(1.3247 -1.51203 1.20998e-18)
(1.31124 -1.49672 1.1777e-18)
(1.2977 -1.48132 -2.67123e-18)
(1.28407 -1.46581 -1.84998e-18)
(1.27035 -1.4502 -1.43236e-18)
(1.25652 -1.43449 0)
(1.24259 -1.41865 -1.67673e-18)
(1.22855 -1.40271 4.04976e-21)
(1.2144 -1.38664 2.83086e-18)
(1.20014 -1.37044 0)
(1.18576 -1.35411 -2.91799e-19)
(1.17125 -1.33764 2.85914e-19)
(1.15661 -1.32103 -2.72228e-19)
(1.14184 -1.30427 3.9581e-21)
(1.12693 -1.28736 2.57531e-19)
(1.11187 -1.27029 -9.86313e-19)
(1.09666 -1.25305 1.90145e-18)
(1.08143 -1.23578 -2.30117e-19)
(1.06643 -1.21879 2.31528e-19)
(1.05178 -1.2022 1.13406e-18)
(1.03748 -1.186 -1.1265e-18)
(1.0235 -1.17017 1.78254e-18)
(1.00985 -1.15471 -8.83362e-19)
(0.996496 -1.13959 -1.09319e-18)
(0.983441 -1.12481 8.72679e-19)
(0.970671 -1.11036 1.29406e-18)
(0.958178 -1.09622 -1.07264e-18)
(0.945951 -1.08239 -8.51108e-19)
(0.933981 -1.06885 0)
(0.922261 -1.05559 0)
(0.910782 -1.04261 8.36417e-19)
(0.899536 -1.02989 -6.25756e-19)
(0.888516 -1.01743 -2.08698e-19)
(0.877714 -1.00522 -8.24381e-19)
(0.867124 -0.993257 -6.17297e-19)
(0.856739 -0.981522 -4.0887e-19)
(0.846547 -0.970006 -6.10879e-19)
(0.836532 -0.958691 0)
(0.826687 -0.947569 -2.05778e-19)
(0.817008 -0.936637 8.1346e-19)
(0.807491 -0.925892 -4.08315e-19)
(0.798133 -0.91533 2.05726e-19)
(0.788931 -0.904947 0)
(0.779881 -0.894741 -2.05633e-19)
(0.770979 -0.884707 -6.13664e-19)
(0.762221 -0.874841 0)
(0.753604 -0.865139 -6.10503e-19)
(0.745123 -0.855595 6.13731e-19)
(0.736775 -0.846207 -4.08232e-19)
(0.728556 -0.83697 4.08375e-19)
(0.720462 -0.827881 -2.02716e-19)
(0.712491 -0.818934 2.05923e-19)
(0.704638 -0.810127 -4.08956e-19)
(0.696902 -0.801457 -8.1839e-19)
(0.689278 -0.792921 2.06234e-19)
(0.681766 -0.784515 2.06354e-19)
(0.674361 -0.776236 2.0341e-19)
(0.667062 -0.768082 2.03577e-19)
(0.659864 -0.760049 -1.41231e-23)
(0.652764 -0.752132 -2.05571e-19)
(0.645757 -0.744326 -2.05975e-19)
(0.638838 -0.736626 2.04944e-19)
(0.632004 -0.729028 -6.20807e-19)
(0.625254 -0.72153 8.29059e-19)
(0.618593 -0.714136 -4.14349e-19)
(0.612033 -0.706855 2.99274e-21)
(0.605592 -0.699704 -2.20134e-24)
(0.599294 -0.692705 -2.03169e-19)
(0.593159 -0.685877 9.83177e-20)
(0.587198 -0.679231 9.64479e-20)
(0.581401 -0.672755 9.51056e-20)
(0.575729 -0.66641 1.89613e-19)
(0.570156 -0.660164 -9.61148e-20)
(0.564678 -0.654014 1.90874e-19)
(0.559293 -0.647959 -3.81833e-19)
(0.554001 -0.641997 0)
(0.5488 -0.636128 1.91221e-19)
(0.543687 -0.630349 9.57477e-20)
(0.538663 -0.62466 -1.91205e-19)
(0.533724 -0.619057 9.61631e-20)
(0.528869 -0.61354 -9.6437e-20)
(0.524097 -0.608106 6.61978e-22)
(1.46265 -1.67946 -2.222e-18)
(1.45001 -1.66495 0)
(1.43731 -1.65038 0)
(1.42456 -1.63575 -1.02554e-18)
(1.41174 -1.62105 -9.98414e-19)
(1.39886 -1.60628 0)
(1.38592 -1.59144 -9.45218e-19)
(1.37291 -1.57652 -1.8383e-18)
(1.35982 -1.56152 -8.89233e-19)
(1.34666 -1.54644 -3.46406e-18)
(1.33342 -1.53128 2.5337e-18)
(1.3201 -1.51602 -3.27447e-18)
(1.30669 -1.50067 2.3792e-18)
(1.2932 -1.48523 2.30799e-18)
(1.27961 -1.46968 2.84723e-23)
(1.26593 -1.45403 0)
(1.25215 -1.43826 0)
(1.23827 -1.42239 0)
(1.22428 -1.4064 0)
(1.21018 -1.39028 -9.57672e-19)
(1.19597 -1.37404 -3.10199e-19)
(1.18163 -1.35767 0)
(1.16718 -1.34115 1.15235e-18)
(1.15259 -1.3245 2.76364e-19)
(1.13787 -1.30769 -2.70915e-19)
(1.12301 -1.29074 1.03862e-18)
(1.108 -1.27362 1.00256e-18)
(1.09285 -1.25633 -1.93337e-18)
(1.07767 -1.23902 2.34019e-19)
(1.06272 -1.22197 6.9851e-19)
(1.04813 -1.20534 -2.71201e-23)
(1.03387 -1.18909 6.8792e-19)
(1.01995 -1.17322 4.52953e-19)
(1.00634 -1.15772 6.71525e-19)
(0.993034 -1.14256 8.9021e-19)
(0.980024 -1.12774 -1.10203e-18)
(0.967299 -1.11325 2.20893e-19)
(0.954848 -1.09907 0)
(0.942663 -1.0852 0)
(0.930735 -1.07162 0)
(0.919056 -1.05833 0)
(0.907616 -1.04531 1.0594e-18)
(0.896408 -1.03256 6.31621e-19)
(0.885426 -1.02007 1.04852e-18)
(0.874661 -1.00783 -2.10692e-19)
(0.864107 -0.99583 8.32501e-19)
(0.853758 -0.984065 0)
(0.8436 -0.972518 -2.0531e-19)
(0.833619 -0.961173 2.08521e-19)
(0.823807 -0.950022 2.05234e-19)
(0.814159 -0.939061 -6.22166e-19)
(0.804673 -0.928287 -4.1357e-19)
(0.795345 -0.917697 0)
(0.786172 -0.907287 -2.05023e-19)
(0.77715 -0.897053 6.2128e-19)
(0.768276 -0.886993 2.08095e-19)
(0.759545 -0.8771 6.20858e-19)
(0.750954 -0.867372 2.3153e-23)
(0.742499 -0.857803 -1.03025e-18)
(0.734176 -0.84839 6.20678e-19)
(0.725981 -0.839128 2.04817e-19)
(0.717911 -0.830014 -6.2086e-19)
(0.709963 -0.821043 2.0492e-19)
(0.702133 -0.812213 4.09986e-19)
(0.694419 -0.803519 1.42781e-23)
(0.686817 -0.79496 -1.44621e-23)
(0.679326 -0.786531 -1.16467e-23)
(0.671942 -0.77823 3.08749e-21)
(0.664663 -0.770054 4.15335e-19)
(0.657485 -0.761998 -2.07063e-19)
(0.650404 -0.754059 2.07303e-19)
(0.643416 -0.746231 0)
(0.636516 -0.73851 6.22642e-19)
(0.6297 -0.730891 -3.0516e-21)
(0.622969 -0.723373 -6.27657e-19)
(0.616328 -0.715959 -2.06979e-19)
(0.609788 -0.708661 2.09068e-19)
(0.603371 -0.701494 2.05624e-19)
(0.597097 -0.694482 2.01155e-19)
(0.590988 -0.687642 -2.017e-19)
(0.585053 -0.680984 -3.9146e-19)
(0.579282 -0.674497 -1.92265e-19)
(0.573635 -0.668139 -1.47551e-23)
(0.568087 -0.66188 0)
(0.562632 -0.655717 -1.90088e-19)
(0.557272 -0.64965 3.84227e-19)
(0.552003 -0.643677 0)
(0.546825 -0.637795 -1.91665e-19)
(0.541736 -0.632005 -1.91889e-19)
(0.536735 -0.626304 -9.61013e-20)
(0.53182 -0.62069 1.91966e-19)
(0.526988 -0.615162 -1.93803e-19)
(0.52224 -0.609717 5.27173e-24)
(1.4574 -1.68401 4.24378e-21)
(1.4448 -1.66946 -1.07655e-18)
(1.43215 -1.65485 2.11533e-18)
(1.41944 -1.64018 1.02638e-18)
(1.40667 -1.62544 1.00387e-18)
(1.39384 -1.61063 -9.73189e-19)
(1.38094 -1.59575 -9.42844e-19)
(1.36797 -1.58079 9.29788e-19)
(1.35493 -1.56575 -1.80024e-18)
(1.34182 -1.55062 3.5002e-18)
(1.32862 -1.53542 2.54675e-18)
(1.31535 -1.52012 8.21781e-19)
(1.30199 -1.50472 7.97764e-19)
(1.28854 -1.48923 -2.33945e-18)
(1.27501 -1.47364 3.02084e-18)
(1.26138 -1.45795 -7.28215e-19)
(1.24765 -1.44214 7.1417e-19)
(1.23381 -1.42622 1.37599e-18)
(1.21987 -1.41018 -6.62269e-19)
(1.20583 -1.39402 6.49406e-19)
(1.19166 -1.37774 -1.24905e-18)
(1.17738 -1.36131 0)
(1.16297 -1.34476 8.78583e-19)
(1.14844 -1.32805 2.84509e-19)
(1.13377 -1.3112 -1.09185e-18)
(1.11896 -1.2942 -1.05477e-18)
(1.10401 -1.27703 1.01852e-18)
(1.08891 -1.25969 2.20858e-18)
(1.07379 -1.24233 -2.41882e-19)
(1.05889 -1.22524 2.35311e-19)