/*--------------------------------*- C++ -*----------------------------------*\
  =========                 |
  \\      /  F ield         | OpenFOAM: The Open Source CFD Toolbox
   \\    /   O peration     | Website:  https://openfoam.org
    \\  /    A nd           | Version:  10
     \\/     M anipulation  |
\*---------------------------------------------------------------------------*/
FoamFile
{
    format      ascii;
    class       volVectorField;
    location    "17000";
    object      Urel;
}
// * * * * * * * * * * * * * * * * * * * * * * * * * * * * * * * * * * * * * //

dimensions      [0 1 -1 0 0 0 0];

internalField   nonuniform List<vector> 
17981
(
(0.0146459 -0.140411 1.30642e-21)
(0.0139923 -0.146239 -1.26502e-21)
(0.0133826 -0.151982 0)
(0.0128116 -0.157635 -7.84736e-21)
(0.0122792 -0.163192 1.71328e-20)
(0.0117848 -0.168647 -9.21512e-21)
(0.0113274 -0.173998 0)
(0.0109062 -0.17924 7.99202e-22)
(0.0105198 -0.184372 0)
(0.0101669 -0.18939 0)
(0.00984601 -0.194294 -9.73995e-22)
(0.00955556 -0.199083 1.79211e-20)
(0.00929398 -0.203758 -1.62301e-20)
(0.00905964 -0.208317 0)
(0.00885095 -0.212764 0)
(0.0086663 -0.217097 0)
(0.00850412 -0.221321 0)
(0.0083629 -0.225435 -1.86764e-20)
(0.00824113 -0.229443 1.79345e-20)
(0.00813742 -0.233347 3.74436e-20)
(0.00805038 -0.23715 -3.53937e-20)
(0.00797872 -0.240854 -5.70421e-22)
(0.00792121 -0.244462 0)
(0.00787667 -0.247978 0)
(0.007844 -0.251404 3.62439e-20)
(0.00782217 -0.254743 -3.42937e-20)
(0.00781019 -0.257999 3.53792e-20)
(0.00780717 -0.261174 -3.40288e-20)
(0.00781224 -0.264272 -5.30621e-22)
(0.00782463 -0.267296 0)
(0.0078436 -0.270248 2.57089e-22)
(0.00786847 -0.273132 -2.52749e-22)
(0.00789861 -0.275951 -2.48293e-22)
(0.00793345 -0.278707 3.12558e-20)
(0.00797244 -0.281403 -3.01063e-20)
(0.00801509 -0.284041 -2.34464e-22)
(0.00806096 -0.286625 0)
(0.00810963 -0.289157 0)
(0.00816072 -0.291638 2.20334e-22)
(0.00821388 -0.294073 -2.80205e-20)
(0.00826879 -0.296462 -1.5892e-22)
(0.00832515 -0.298808 2.60305e-20)
(0.00838274 -0.301113 1.00824e-22)
(0.00844164 -0.303379 0)
(0.0085012 -0.305608 0)
(0.00856021 -0.307858 0)
(0.00861879 -0.310235 0)
(0.00867531 -0.312816 -3.14728e-20)
(0.0207393 -0.136727 -5.98405e-21)
(0.0201253 -0.14262 0)
(0.0195506 -0.148441 -2.37512e-20)
(0.0190153 -0.154182 5.74411e-20)
(0.0185192 -0.159836 -3.2117e-20)
(0.0180618 -0.165396 4.74402e-20)
(0.0176424 -0.170858 -4.56018e-20)
(0.0172599 -0.176218 8.49843e-22)
(0.0169131 -0.18147 1.85094e-21)
(0.0166008 -0.186613 -6.64305e-20)
(0.0163213 -0.191643 1.32337e-19)
(0.0160731 -0.196561 -6.78932e-20)
(0.0158545 -0.201363 0)
(0.015664 -0.206052 2.30418e-21)
(0.0154998 -0.210625 -7.75433e-20)
(0.0153602 -0.215086 7.44107e-20)
(0.0152437 -0.219433 7.92579e-20)
(0.0151486 -0.22367 -7.60656e-20)
(0.0150734 -0.227798 1.22061e-21)
(0.0150166 -0.231819 0)
(0.0149767 -0.235736 -6.10408e-22)
(0.0149525 -0.239551 7.97632e-20)
(0.0149425 -0.243267 -7.48132e-20)
(0.0149457 -0.246886 7.90926e-20)
(0.0149608 -0.250413 -1.51922e-19)
(0.0149867 -0.253849 7.34873e-20)
(0.0150225 -0.257198 -7.51772e-20)
(0.0150672 -0.260463 7.22744e-20)
(0.0151199 -0.263647 5.63639e-22)
(0.0151798 -0.266753 0)
(0.0152461 -0.269785 2.72493e-22)
(0.0153181 -0.272744 2.68127e-22)
(0.0153953 -0.275634 -6.77768e-20)
(0.0154769 -0.278459 6.57638e-20)
(0.0155624 -0.28122 -7.59805e-22)
(0.0156514 -0.283921 6.43425e-20)
(0.0157434 -0.286564 -6.175e-20)
(0.0158379 -0.289152 0)
(0.0159345 -0.291687 5.9867e-20)
(0.016033 -0.294172 -1.16034e-19)
(0.016133 -0.296609 5.60094e-20)
(0.0162342 -0.299 -5.5937e-20)
(0.0163363 -0.301347 -1.0072e-21)
(0.0164393 -0.303654 5.27323e-20)
(0.0165431 -0.305921 0)
(0.0166468 -0.308174 0)
(0.016752 -0.310502 2.20112e-22)
(0.0168599 -0.313003 -1.22013e-22)
(0.026527 -0.132579 0)
(0.0259492 -0.138527 1.63449e-20)
(0.0254106 -0.144415 -1.70911e-20)
(0.0249115 -0.150235 3.54569e-20)
(0.0244519 -0.155978 -3.65421e-20)
(0.0240317 -0.161638 -2.87834e-21)
(0.0236504 -0.167207 0)
(0.0233069 -0.172681 -1.83134e-21)
(0.0230002 -0.178053 -5.94186e-21)
(0.0227289 -0.18332 0)
(0.0224914 -0.188478 2.23146e-21)
(0.0222862 -0.193525 4.64024e-21)
(0.0221116 -0.198459 0)
(0.0219659 -0.203279 -5.10811e-24)
(0.0218473 -0.207985 2.51289e-21)
(0.021754 -0.212576 0)
(0.0216843 -0.217054 1.693e-19)
(0.0216366 -0.221418 -1.59807e-19)
(0.0216093 -0.225672 -1.71749e-19)
(0.0216007 -0.229816 1.63538e-19)
(0.0216094 -0.233853 -2.60063e-21)
(0.0216339 -0.237786 0)
(0.0216729 -0.241616 1.28484e-21)
(0.021725 -0.245346 -1.27668e-21)
(0.0217892 -0.248979 1.26274e-21)
(0.0218641 -0.252519 -1.60846e-19)
(0.0219488 -0.255968 1.55727e-19)
(0.0220423 -0.259329 -1.21518e-21)
(0.0221437 -0.262606 0)
(0.022252 -0.265801 1.51346e-19)
(0.0223666 -0.268917 3.77104e-21)
(0.0224867 -0.271958 -1.4529e-19)
(0.0226116 -0.274927 0)
(0.0227407 -0.277827 0)
(0.0228735 -0.280659 -1.3923e-19)
(0.0230094 -0.283429 1.3459e-19)
(0.023148 -0.286137 -5.15002e-22)
(0.0232889 -0.288787 0)
(0.0234315 -0.291381 4.93142e-22)
(0.0235757 -0.293922 -4.82552e-22)
(0.0237211 -0.296412 -1.21555e-19)
(0.0238674 -0.298854 1.17203e-19)
(0.0240142 -0.30125 2.25167e-22)
(0.0241615 -0.303602 -2.1965e-22)
(0.0243094 -0.305912 -4.29173e-22)
(0.0244568 -0.308182 0)
(0.024606 -0.310482 -2.22408e-22)
(0.0247619 -0.312923 -1.25493e-19)
(0.0300703 -0.151645 -2.53904e-21)
(0.0296879 -0.157396 3.09246e-21)
(0.0293455 -0.163067 1.21534e-19)
(0.0290419 -0.16865 -2.50028e-19)
(0.0287762 -0.174139 1.32212e-19)
(0.0285471 -0.179528 -4.51716e-21)
(0.028353 -0.184813 1.54595e-19)
(0.0281923 -0.189991 -1.57815e-19)
(0.0280632 -0.195057 0)
(0.0279639 -0.200011 -2.64045e-21)
(0.0278925 -0.204852 1.74602e-19)
(0.0278473 -0.209577 -1.69973e-19)
(0.0278265 -0.214188 -1.75465e-19)
(0.0278281 -0.218685 -1.38399e-20)
(0.0278506 -0.223069 1.74331e-19)
(0.0278922 -0.227342 -1.8181e-19)
(0.0279514 -0.231504 1.74384e-19)
(0.0280266 -0.235559 0)
(0.0281163 -0.239509 1.75832e-19)
(0.0282193 -0.243355 -3.4821e-19)
(0.0283343 -0.247101 1.65699e-19)
(0.0284599 -0.25075 1.71294e-19)
(0.0285952 -0.254305 -1.6314e-19)
(0.0287391 -0.257768 -1.29174e-21)
(0.0288906 -0.261142 -1.64956e-19)
(0.0290489 -0.264432 -1.12812e-21)
(0.029213 -0.267639 -5.85822e-21)
(0.0293824 -0.270767 1.55538e-19)
(0.0295562 -0.27382 1.53282e-19)
(0.0297338 -0.276799 -2.97681e-19)
(0.0299148 -0.279709 1.45692e-19)
(0.0300984 -0.282551 -1.4406e-19)
(0.0302844 -0.285329 1.39232e-19)
(0.0304722 -0.288046 -1.37871e-19)
(0.0306614 -0.290704 -3.56478e-21)
(0.0308518 -0.293306 1.2986e-19)
(0.0310429 -0.295855 1.49769e-21)
(0.0312346 -0.298352 -1.252e-19)
(0.0314265 -0.3008 1.20699e-19)
(0.0316184 -0.303202 4.65214e-22)
(0.0318103 -0.305559 4.5408e-22)
(0.0320023 -0.307874 1.14782e-19)
(0.0321955 -0.310187 -1.16197e-19)
(0.0323957 -0.31259 0)
(0.0353424 -0.146895 -7.14198e-20)
(0.0349977 -0.152726 -6.53917e-21)
(0.034694 -0.15849 0)
(0.0344305 -0.164176 1.42597e-19)
(0.0342062 -0.169777 -1.36884e-19)
(0.0340199 -0.175286 9.69101e-21)
(0.03387 -0.180696 1.02134e-20)
(0.0337548 -0.186004 0)
(0.0336725 -0.191204 0)
(0.0336211 -0.196294 -5.64026e-21)
(0.0335987 -0.201271 0)
(0.0336034 -0.206134 0)
(0.0336331 -0.210883 -5.90743e-21)
(0.0336861 -0.215516 2.97133e-21)
(0.0337605 -0.220035 -1.94649e-19)
(0.0338545 -0.224441 1.86573e-19)
(0.0339663 -0.228735 -1.90504e-19)
(0.0340944 -0.232917 1.85503e-19)
(0.0342373 -0.236992 2.92728e-21)
(0.0343934 -0.24096 0)
(0.0345614 -0.244825 -1.86456e-19)
(0.03474 -0.248589 -7.92619e-21)
(0.034928 -0.252254 -7.55161e-21)
(0.0351244 -0.255825 1.76877e-19)
(0.0353281 -0.259303 -1.75612e-19)
(0.0355381 -0.262692 -5.20515e-21)
(0.0357537 -0.265996 1.69715e-19)
(0.035974 -0.269216 -1.67473e-19)
(0.0361983 -0.272358 1.59757e-19)
(0.0364259 -0.275422 0)
(0.0366563 -0.278414 1.5628e-19)
(0.0368889 -0.281334 -1.52723e-19)
(0.0371232 -0.284188 0)
(0.0373588 -0.286977 1.1334e-21)
(0.0375953 -0.289704 1.10886e-21)
(0.0378322 -0.292371 1.08287e-21)
(0.0380694 -0.294983 1.35328e-19)
(0.0383065 -0.29754 -2.66123e-19)
(0.0385433 -0.300047 1.29848e-19)
(0.0387796 -0.302504 0)
(0.0390151 -0.304914 0)
(0.0392501 -0.30728 1.21444e-19)
(0.0394842 -0.309613 -1.19622e-19)
(0.0397239 -0.31199 0)
(0.0402608 -0.141763 -8.16017e-20)
(0.0399526 -0.147663 -1.16029e-19)
(0.0396874 -0.153509 2.57187e-19)
(0.0394641 -0.159291 -1.33393e-19)
(0.0392817 -0.164998 -1.64438e-19)
(0.0391389 -0.170621 1.52533e-19)
(0.0390341 -0.176154 -5.48315e-21)
(0.0389655 -0.181589 0)
(0.0389311 -0.186922 -1.95554e-19)
(0.0389289 -0.192148 3.93389e-19)
(0.0389568 -0.197264 1.18046e-20)
(0.0390128 -0.202267 -1.94782e-19)
(0.0390948 -0.207156 -6.31213e-21)
(0.0392008 -0.21193 -2.0814e-19)
(0.0393287 -0.216588 1.99378e-19)
(0.0394768 -0.221131 -2.07819e-19)
(0.0396431 -0.225559 -7.72507e-21)
(0.0398259 -0.229875 1.98229e-19)
(0.0400235 -0.23408 -9.38479e-21)
(0.0402344 -0.238175 0)
(0.0404572 -0.242163 3.74691e-24)
(0.0406905 -0.246046 3.02673e-21)
(0.0409329 -0.249828 1.93422e-19)
(0.0411834 -0.25351 4.7394e-21)
(0.0414408 -0.257097 -3.69831e-19)
(0.0417041 -0.26059 1.76826e-19)
(0.0419725 -0.263994 -5.57619e-21)
(0.0422451 -0.267311 0)
(0.0425211 -0.270545 -3.46654e-19)
(0.0427998 -0.273698 3.33198e-19)
(0.0430807 -0.276773 0)
(0.0433631 -0.279775 1.25954e-21)
(0.0436466 -0.282705 3.17851e-19)
(0.0439306 -0.285567 -3.07053e-19)
(0.0442148 -0.288363 0)
(0.0444989 -0.291097 -1.1501e-21)
(0.0447824 -0.293772 1.12238e-21)
(0.0450651 -0.296388 1.09655e-21)
(0.0453467 -0.298951 -2.76688e-19)
(0.0456271 -0.301461 2.65621e-19)
(0.045906 -0.303921 -1.01799e-21)
(0.0461833 -0.306334 -2.56668e-19)
(0.046459 -0.308702 2.50867e-19)
(0.0467401 -0.311093 0)
(0.0445481 -0.142249 -7.4254e-21)
(0.0443199 -0.148168 -8.54809e-21)
(0.0441357 -0.154037 0)
(0.0439943 -0.159842 -1.03741e-20)
(0.0438943 -0.165574 -1.10972e-20)
(0.0438341 -0.171225 0)
(0.0438118 -0.176785 -2.03691e-19)
(0.0438254 -0.182249 1.95089e-19)
(0.0438728 -0.18761 0)
(0.0439516 -0.192864 -4.36119e-19)
(0.0440598 -0.198008 4.24199e-19)
(0.044195 -0.203039 6.77862e-21)
(0.0443551 -0.207955 0)
(0.044538 -0.212755 0)
(0.0447415 -0.217439 -6.80646e-21)
(0.0449638 -0.222007 0)
(0.0452029 -0.22646 4.39447e-19)
(0.045457 -0.230799 -8.56375e-19)
(0.0457246 -0.235026 8.47796e-19)
(0.046004 -0.239142 -4.09423e-19)
(0.0462937 -0.24315 0)
(0.0465924 -0.247053 4.09707e-19)
(0.0468989 -0.250853 -3.96021e-19)
(0.0472119 -0.254552 0)
(0.0475305 -0.258155 3.94881e-19)
(0.0478536 -0.261664 -7.57588e-19)
(0.0481804 -0.265082 3.66201e-19)
(0.04851 -0.268413 -3.69104e-19)
(0.0488419 -0.271659 3.51838e-19)
(0.0491752 -0.274824 -3.53543e-19)
(0.0495095 -0.27791 3.39878e-19)
(0.0498441 -0.280922 0)
(0.0501787 -0.283861 3.27632e-19)
(0.0505128 -0.286732 -3.17697e-19)
(0.0508461 -0.289536 0)
(0.0511782 -0.292277 -3.08495e-19)
(0.0515088 -0.294957 2.97078e-19)
(0.0518378 -0.297579 -1.13493e-21)
(0.0521649 -0.300146 -2.85238e-19)
(0.0524898 -0.30266 5.52986e-19)
(0.0528125 -0.305124 -2.67019e-19)
(0.0531332 -0.30754 2.69045e-19)
(0.053459 -0.309965 2.87301e-21)
(0.0484488 -0.148441 -1.01931e-20)
(0.0483467 -0.154335 7.05111e-23)
(0.0482885 -0.160168 1.19603e-20)
(0.0482722 -0.16593 0)
(0.048296 -0.171611 -4.50288e-19)
(0.0483577 -0.177202 8.5521e-19)
(0.048455 -0.182697 2.94448e-20)
(0.0485856 -0.18809 2.74078e-20)
(0.048747 -0.193375 -4.69302e-19)
(0.0489368 -0.198549 -7.25118e-21)
(0.0491526 -0.203609 0)
(0.0493922 -0.208554 -4.78002e-19)
(0.0496533 -0.213382 -1.18291e-20)
(0.0499337 -0.218093 4.63433e-19)
(0.0502315 -0.222687 0)
(0.0505446 -0.227164 1.09732e-23)
(0.0508713 -0.231527 7.07747e-21)
(0.0512099 -0.235776 -6.99213e-21)
(0.0515587 -0.239914 0)
(0.0519163 -0.243943 4.37576e-19)
(0.0522814 -0.247865 -4.22751e-19)
(0.0526527 -0.251683 0)
(0.053029 -0.2554 3.22686e-21)
(0.0534095 -0.259019 4.09855e-19)
(0.0537931 -0.262543 -3.87177e-19)
(0.0541789 -0.265976 0)
(0.0545663 -0.26932 3.84821e-19)
(0.0549546 -0.272578 -3.69691e-19)
(0.055343 -0.275755 2.84882e-21)
(0.0557312 -0.278852 0)
(0.0561186 -0.281874 2.72301e-21)
(0.0565048 -0.284823 0)
(0.0568893 -0.287701 -3.34603e-19)
(0.057272 -0.290513 6.48482e-19)
(0.0576526 -0.293261 -6.3272e-19)
(0.0580307 -0.295948 3.09041e-19)
(0.0584062 -0.298576 0)
(0.0587789 -0.301148 1.14644e-21)
(0.0591486 -0.303667 -2.87584e-19)
(0.0595155 -0.306134 5.63086e-19)
(0.0598872 -0.308602 -2.89739e-19)
(0.0523246 -0.148517 -3.92944e-19)
(0.0523075 -0.154442 3.75529e-19)
(0.0523351 -0.160307 0)
(0.0524052 -0.166103 1.41252e-20)
(0.0525157 -0.171818 5.65482e-23)
(0.0526641 -0.177444 0)
(0.0528478 -0.182973 0)
(0.0530642 -0.188399 3.08842e-20)
(0.0533106 -0.193718 7.79901e-21)
(0.0535845 -0.198924 7.81658e-21)
(0.0538833 -0.204016 0)
(0.0542045 -0.208991 -5.10806e-19)
(0.0545459 -0.213848 4.80867e-19)
(0.0549052 -0.218587 5.03688e-19)
(0.0552803 -0.223207 -4.74369e-19)
(0.0556692 -0.22771 -7.58356e-21)
(0.0560701 -0.232098 7.48824e-21)
(0.0564812 -0.23637 0)
(0.0569009 -0.240529 7.2698e-21)
(0.0573277 -0.244579 4.63125e-19)
(0.0577605 -0.24852 -4.43905e-19)
(0.0581978 -0.252357 -4.52955e-19)
(0.0586386 -0.256091 4.31193e-19)
(0.059082 -0.259726 -6.62249e-21)
(0.059527 -0.263266 0)
(0.0599729 -0.266713 6.34673e-21)
(0.0604188 -0.27007 4.03961e-19)
(0.0608642 -0.273341 -3.88095e-19)
(0.0613085 -0.276529 3.82611e-19)
(0.0617512 -0.279637 -7.4132e-19)
(0.0621919 -0.282669 3.59168e-19)
(0.0626302 -0.285627 -3.55728e-19)
(0.0630657 -0.288514 3.42219e-19)
(0.0634983 -0.291334 -1.31339e-21)
(0.0639275 -0.294089 -9.26631e-25)
(0.0643534 -0.296781 1.24762e-21)
(0.0647756 -0.299415 0)
(0.065194 -0.301992 -1.18496e-21)
(0.0656088 -0.304515 0)
(0.0660276 -0.307029 1.1985e-21)
(0.0560238 -0.154393 0)
(0.0561408 -0.160296 1.51005e-20)
(0.0563009 -0.166129 1.56825e-20)
(0.0565014 -0.171882 0)
(0.0567396 -0.177545 -5.39568e-19)
(0.0570125 -0.183111 4.99156e-19)
(0.0573175 -0.188573 -1.66997e-20)
(0.0576516 -0.193927 -8.40804e-21)
(0.0580121 -0.199167 -5.49833e-19)
(0.0583962 -0.204291 -2.21543e-20)
(0.0588013 -0.209297 5.32063e-19)
(0.0592251 -0.214184 0)
(0.0596651 -0.218951 -5.34009e-19)
(0.0601193 -0.223599 -1.65659e-20)
(0.0605856 -0.228128 1.0329e-18)
(0.0610621 -0.232539 -4.97879e-19)
(0.061547 -0.236834 -5.03774e-19)
(0.0620388 -0.241015 9.6976e-19)
(0.062536 -0.245085 -4.81634e-19)
(0.0630373 -0.249045 -3.67253e-21)
(0.0635416 -0.2529 -3.6081e-21)
(0.0640477 -0.256651 -4.49778e-19)
(0.0645547 -0.260302 -8.74044e-21)
(0.0650618 -0.263856 4.2552e-19)
(0.0655681 -0.267317 -3.30873e-21)
(0.066073 -0.270688 0)
(0.066576 -0.273971 -3.1554e-21)
(0.0670765 -0.27717 0)
(0.067574 -0.280289 0)
(0.0680681 -0.28333 0)
(0.0685587 -0.286296 2.86125e-21)
(0.0690452 -0.289191 0)
(0.0695277 -0.292018 -1.36079e-21)
(0.0700057 -0.29478 -9.45439e-25)
(0.0704793 -0.297478 -1.29125e-21)
(0.0709481 -0.300117 3.26463e-19)
(0.0714125 -0.302698 -3.15032e-19)
(0.0718804 -0.305265 3.2593e-19)
(0.0602625 -0.171836 5.79835e-19)
(0.0605931 -0.17754 -5.36191e-19)
(0.0609582 -0.183145 1.79844e-20)
(0.0613543 -0.188645 0)
(0.0617784 -0.194035 -5.9017e-19)
(0.0622275 -0.19931 5.63852e-19)
(0.0626988 -0.204468 -1.76871e-23)
(0.0631897 -0.209505 8.8704e-21)
(0.0636974 -0.214422 0)
(0.0642198 -0.219218 -8.68102e-21)
(0.0647544 -0.223893 -8.57805e-21)
(0.0652993 -0.228447 -5.48133e-19)
(0.0658526 -0.232882 5.24533e-19)
(0.0664124 -0.237199 8.16869e-21)
(0.0669773 -0.241401 9.51485e-24)
(0.0675457 -0.245491 5.16626e-19)
(0.0681164 -0.24947 -4.87492e-19)
(0.0686883 -0.253341 -3.77216e-21)
(0.0692603 -0.257109 -3.68724e-21)
(0.0698314 -0.260775 0)
(0.0704009 -0.264344 4.55347e-19)
(0.070968 -0.267818 -4.3704e-19)
(0.0715321 -0.2712 4.33964e-19)
(0.0720927 -0.274495 -4.20066e-19)
(0.0726493 -0.277705 -4.12932e-19)
(0.0732015 -0.280833 3.99963e-19)
(0.073749 -0.283884 -3.0459e-21)
(0.0742914 -0.286859 -3.79427e-19)
(0.0748287 -0.289762 3.64938e-19)
(0.0753605 -0.292596 -3.61444e-19)
(0.0758868 -0.295364 3.51979e-19)
(0.0764073 -0.298069 3.42703e-19)
(0.0769224 -0.300714 -3.35618e-19)
(0.0774406 -0.30334 -1.34039e-21)
(0.0634207 -0.165872 0)
(0.0638092 -0.171711 -6.07331e-23)
(0.0642346 -0.177457 6.33668e-19)
(0.0646935 -0.183104 -6.24313e-19)
(0.0651824 -0.188643 0)
(0.0656981 -0.19407 -1.92923e-20)
(0.0662374 -0.199381 9.57148e-21)
(0.0667973 -0.204572 6.20493e-19)
(0.0673751 -0.209642 2.06004e-20)
(0.0679681 -0.214589 -5.76924e-19)
(0.0685738 -0.219413 -5.87293e-19)
(0.06919 -0.224114 5.70318e-19)
(0.0698145 -0.228693 5.76652e-19)
(0.0704453 -0.233151 -5.42985e-19)
(0.0710809 -0.23749 5.63577e-19)
(0.0717194 -0.241713 -5.39756e-19)
(0.0723596 -0.245821 -8.22229e-21)
(0.0730002 -0.249817 5.20685e-19)
(0.0736401 -0.253705 -9.96239e-19)
(0.0742781 -0.257487 -1.3161e-20)
(0.0749135 -0.261167 4.76981e-19)
(0.0755455 -0.264748 -4.74045e-19)
(0.0761733 -0.268233 4.58541e-19)
(0.0767965 -0.271626 -4.47583e-19)
(0.0774145 -0.274929 8.72989e-19)
(0.0780268 -0.278147 -4.22496e-19)
(0.0786332 -0.281283 0)
(0.0792334 -0.28434 -3.15873e-21)
(0.0798271 -0.28732 3.07711e-21)
(0.0804141 -0.290228 -5.99178e-21)
(0.0809944 -0.293067 -3.7706e-19)
(0.0815675 -0.295838 3.64336e-19)
(0.0821341 -0.298545 2.79122e-21)
(0.0827046 -0.301234 0)
(0.0662156 -0.159674 -6.3033e-19)
(0.0666609 -0.165644 6.56996e-19)
(0.0671465 -0.171529 -1.34869e-18)
(0.0676684 -0.177321 6.70974e-19)
(0.0682229 -0.18301 -2.07883e-20)
(0.0688062 -0.18859 -6.56855e-19)
(0.069415 -0.194055 6.26095e-19)
(0.070046 -0.199403 6.55624e-19)
(0.070696 -0.204628 -6.45887e-19)
(0.0713621 -0.209731 6.39047e-19)
(0.0720415 -0.214708 -6.29903e-19)
(0.0727318 -0.219561 0)
(0.0734304 -0.224288 -9.51131e-21)
(0.0741354 -0.228891 5.96374e-19)
(0.0748448 -0.233372 -1.17312e-18)
(0.0755568 -0.237732 5.68136e-19)
(0.0762698 -0.241973 9.58006e-24)
(0.0769824 -0.246099 0)
(0.0776935 -0.250112 -1.68203e-20)
(0.0784018 -0.254014 5.3502e-19)
(0.0791064 -0.25781 -1.02721e-18)
(0.0798065 -0.261502 4.97005e-19)
(0.0805013 -0.265093 0)
(0.0811902 -0.268588 0)
(0.0818727 -0.27199 -4.68602e-19)
(0.0825483 -0.275301 9.03035e-19)
(0.0832167 -0.278526 -4.38598e-19)
(0.0838776 -0.281667 4.3307e-19)
(0.0845306 -0.284728 -4.16294e-19)
(0.0851758 -0.287713 2.18204e-24)
(0.0858128 -0.290624 -3.99428e-19)
(0.0864413 -0.293464 3.81604e-19)
(0.0870637 -0.296241 -1.48958e-21)
(0.0876931 -0.299007 -3.9272e-19)
(0.0686492 -0.153265 2.18337e-20)
(0.0691508 -0.15936 0)
(0.0696963 -0.165381 2.23528e-20)
(0.0702815 -0.171316 0)
(0.0709022 -0.177154 7.54518e-19)
(0.0715544 -0.182887 -7.20454e-19)
(0.0722343 -0.18851 0)
(0.0729381 -0.194015 2.1915e-20)
(0.0736625 -0.1994 7.16914e-19)
(0.0744042 -0.20466 -6.63258e-19)
(0.0751602 -0.209795 -1.05382e-20)
(0.0759275 -0.214803 1.03683e-20)
(0.0767036 -0.219684 6.71515e-19)
(0.077486 -0.224437 -1.28057e-18)
(0.0782727 -0.229064 6.20054e-19)
(0.0790616 -0.233567 6.41135e-19)
(0.0798511 -0.237947 -5.85662e-19)
(0.0806395 -0.242206 -5.94561e-19)
(0.0814254 -0.246348 1.16806e-18)
(0.0822077 -0.250376 -5.56323e-19)
(0.0829853 -0.254292 0)
(0.0837571 -0.258099 0)
(0.0845225 -0.261801 0)
(0.0852807 -0.265402 0)
(0.0860311 -0.268905 3.87167e-21)
(0.0867733 -0.272313 0)
(0.0875069 -0.27563 -3.67417e-21)
(0.0882316 -0.278859 4.64746e-19)
(0.0889471 -0.282004 -4.43152e-19)
(0.0896533 -0.285068 2.267e-24)
(0.0903498 -0.288054 -4.24939e-19)
(0.0910367 -0.290966 4.10304e-19)
(0.0917204 -0.293825 3.19556e-21)
(0.0924161 -0.296688 0)
(0.0712853 -0.152883 7.41121e-19)
(0.0718901 -0.159034 -7.88997e-19)
(0.0725386 -0.165109 1.54157e-18)
(0.0732259 -0.171095 -7.28487e-19)
(0.0739479 -0.176981 2.39862e-20)
(0.0747001 -0.182761 0)
(0.0754785 -0.188426 -4.66967e-23)
(0.0762793 -0.193972 -2.32646e-20)
(0.0770989 -0.199395 7.4702e-19)
(0.077934 -0.204691 -6.90246e-19)
(0.0787813 -0.209859 -1.63751e-23)
(0.079638 -0.214898 1.09164e-20)
(0.0805013 -0.219806 0)
(0.0813689 -0.224585 6.80235e-19)
(0.0822386 -0.229236 -6.60574e-19)
(0.0831084 -0.23376 6.50694e-19)
(0.0839766 -0.238159 -1.25827e-18)
(0.0848415 -0.242436 5.98851e-19)
(0.0857018 -0.246594 9.3713e-21)
(0.0865564 -0.250635 0)
(0.0874041 -0.254563 0)
(0.088244 -0.258381 -5.61399e-19)
(0.0890755 -0.262093 5.38337e-19)
(0.0898978 -0.265701 -4.1317e-21)
(0.0907104 -0.269211 0)
(0.0915129 -0.272624 3.91802e-21)
(0.0923049 -0.275945 -3.81389e-21)
(0.0930864 -0.279177 0)
(0.0938569 -0.282325 4.64965e-19)
(0.094616 -0.28539 -8.95653e-19)
(0.0953647 -0.288377 4.37928e-19)
(0.0961144 -0.291323 4.38557e-19)
(0.0968822 -0.294289 -4.47173e-19)
(0.0730762 -0.146235 8.20013e-19)
(0.0737393 -0.15251 -8.05601e-19)
(0.0744504 -0.158719 2.58905e-20)
(0.0752043 -0.164849 8.47359e-19)
(0.0759962 -0.170887 -7.81389e-19)
(0.0768213 -0.176823 -2.55461e-20)
(0.0776753 -0.182649 7.9983e-19)
(0.0785539 -0.188359 5.28062e-20)
(0.0794532 -0.193947 -7.76279e-19)
(0.0803694 -0.199409 -3.64031e-20)
(0.0812991 -0.204741 -2.38604e-20)
(0.0822391 -0.209943 -7.71465e-19)
(0.0831864 -0.215013 1.4697e-18)
(0.0841383 -0.21995 -1.43952e-18)
(0.0850923 -0.224755 6.85149e-19)
(0.0860464 -0.22943 -6.96322e-19)
(0.0869984 -0.233975 6.65867e-19)
(0.0879466 -0.238393 1.02625e-20)
(0.0888894 -0.242687 -6.47419e-19)
(0.0898254 -0.246859 6.19844e-19)
(0.0907533 -0.250913 9.52543e-21)
(0.0916722 -0.254852 0)
(0.0925811 -0.258679 0)
(0.0934793 -0.262398 -5.68209e-19)
(0.0943663 -0.266012 5.45052e-19)
(0.0952414 -0.269526 5.3395e-19)
(0.0961045 -0.272942 -5.16561e-19)
(0.0969552 -0.276265 0)
(0.0977931 -0.279498 7.68954e-21)
(0.098618 -0.282644 -4.82618e-19)
(0.0994355 -0.28572 4.73861e-19)
(0.10026 -0.288773 4.76854e-19)
(0.101106 -0.291851 -4.89783e-19)
(0.0745358 -0.139437 8.87449e-19)
(0.0752558 -0.145827 0)
(0.0760287 -0.152164 -2.79657e-20)
(0.0768486 -0.158432 -7.394e-23)
(0.0777103 -0.164618 -2.77656e-20)
(0.0786086 -0.170708 9.25357e-19)
(0.0795387 -0.176695 -1.74216e-18)
(0.0804959 -0.182568 8.71942e-19)
(0.0814759 -0.188323 0)
(0.0824746 -0.193954 8.46849e-19)
(0.0834884 -0.199456 -7.6901e-19)
(0.0845136 -0.204826 0)
(0.0855473 -0.210064 8.10308e-19)
(0.0865863 -0.215166 -1.54247e-18)
(0.0876281 -0.220134 1.52052e-18)
(0.0886703 -0.224968 1.63452e-20)
(0.0897107 -0.229668 -1.44017e-18)
(0.090747 -0.234236 6.95786e-19)
(0.0917773 -0.238674 -9.58833e-24)
(0.0927999 -0.242984 6.74611e-19)
(0.0938132 -0.247171 -6.6622e-19)
(0.094816 -0.251236 0)
(0.0958073 -0.255184 0)
(0.0967861 -0.259018 -6.11032e-19)
(0.0977519 -0.262742 -8.52601e-21)
(0.098704 -0.26636 5.70325e-19)
(0.099642 -0.269875 0)
(0.100566 -0.273292 0)
(0.101474 -0.276615 -4.09685e-21)
(0.10237 -0.279846 -4.0066e-21)
(0.103262 -0.28302 -7.95196e-21)
(0.104169 -0.28619 5.19139e-19)
(0.105099 -0.289385 -1.05687e-18)
(0.0764503 -0.139011 9.35187e-19)
(0.0772844 -0.145467 9.86946e-19)
(0.0781705 -0.151866 -9.68863e-19)
(0.0791025 -0.158192 -9.46266e-19)
(0.0800748 -0.164432 8.99013e-19)
(0.0810819 -0.170574 0)
(0.0821187 -0.176609 -2.89278e-20)
(0.0831804 -0.182529 9.2594e-19)
(0.0842627 -0.188328 5.57332e-20)
(0.0853615 -0.194001 -1.78683e-18)
(0.0864731 -0.199545 8.37294e-19)
(0.087594 -0.204956 8.4277e-19)
(0.0887211 -0.210232 -8.16612e-19)
(0.0898521 -0.215374 0)
(0.0909849 -0.220379 -7.98458e-19)
(0.0921175 -0.225246 1.5418e-18)
(0.0932475 -0.229976 -7.56288e-19)
(0.094372 -0.234569 -1.14636e-20)
(0.0954882 -0.239027 0)
(0.0965936 -0.243354 1.08835e-20)
(0.0976866 -0.247552 0)
(0.0987657 -0.251627 0)
(0.0998301 -0.25558 -6.42209e-19)
(0.100879 -0.259418 6.2525e-19)
(0.101912 -0.263143 0)
(0.102929 -0.26676 0)
(0.103928 -0.270274 -4.48834e-21)
(0.104912 -0.273687 -5.68303e-19)
(0.105886 -0.277022 5.48668e-19)
(0.106865 -0.280318 2.22891e-24)
(0.10786 -0.283609 -5.60079e-19)
(0.108874 -0.286913 5.66632e-19)
(0.0773282 -0.132098 1.06466e-18)
(0.078223 -0.138662 -9.79941e-19)
(0.0791754 -0.145182 1.02751e-18)
(0.0801784 -0.151641 -1.07186e-18)
(0.0812256 -0.158023 -1.00908e-18)
(0.0823111 -0.164315 9.58432e-19)
(0.0834289 -0.170505 0)
(0.0845737 -0.176584 0)
(0.0857405 -0.182546 -9.77949e-19)
(0.0869247 -0.188384 9.31313e-19)
(0.0881221 -0.194095 4.34163e-20)
(0.0893285 -0.199675 1.41629e-20)
(0.0905414 -0.205122 1.3865e-20)
(0.0917613 -0.210442 -8.80117e-19)
(0.0929887 -0.215638 -1.90082e-20)
(0.0942208 -0.220704 8.23393e-19)
(0.0954522 -0.225628 8.18982e-19)
(0.0966774 -0.230403 -7.80669e-19)
(0.0978919 -0.235024 0)
(0.0990937 -0.239497 0)
(0.100282 -0.243832 -7.30594e-19)
(0.101455 -0.248036 7.10423e-19)
(0.102611 -0.252112 6.91083e-19)
(0.103749 -0.256065 -1.33924e-18)
(0.104867 -0.259899 6.44002e-19)
(0.105966 -0.263619 -6.34673e-19)
(0.107047 -0.267229 1.23308e-18)
(0.108113 -0.270747 -5.9382e-19)
(0.109177 -0.274201 0)
(0.110248 -0.277621 6.01649e-19)
(0.111331 -0.281027 -1.18899e-18)
(0.11243 -0.284433 5.9695e-19)
(0.0778833 -0.125117 -1.08785e-18)
(0.0788362 -0.131781 -3.50584e-20)
(0.0798528 -0.138416 3.49594e-20)
(0.0809256 -0.145002 1.1343e-18)
(0.0820473 -0.151519 -1.04333e-18)
(0.083211 -0.157954 6.79258e-20)
(0.0844102 -0.164293 -1.09047e-18)
(0.0856387 -0.170525 -3.49641e-20)
(0.0868909 -0.176641 9.87487e-19)
(0.0881613 -0.182635 3.17376e-20)
(0.0894448 -0.188502 -3.11402e-20)
(0.0907372 -0.194235 -1.52526e-20)
(0.092039 -0.199844 -1.4967e-20)
(0.0933522 -0.205339 -1.46897e-20)
(0.0946774 -0.210724 0)
(0.0960111 -0.215988 0)
(0.0973476 -0.22112 -1.37867e-20)
(0.0986808 -0.226106 0)
(0.100005 -0.230935 -8.5435e-19)
(0.101315 -0.235603 -2.67773e-20)
(0.102607 -0.24011 1.5517e-18)
(0.103878 -0.244461 -1.52612e-18)
(0.105128 -0.248664 7.28245e-19)
(0.106355 -0.252729 -1.11268e-20)
(0.107562 -0.256668 -5.40809e-21)
(0.108749 -0.26049 0)
(0.109919 -0.26421 6.64071e-19)
(0.111081 -0.267846 -1.29762e-18)
(0.112239 -0.271419 6.3782e-19)
(0.113401 -0.274952 0)
(0.114571 -0.27846 6.44971e-19)
(0.115752 -0.281956 -6.36449e-19)
(0.0781185 -0.118084 -1.24042e-18)
(0.0791251 -0.12484 2.38034e-18)
(0.0802025 -0.131582 -1.17725e-18)
(0.0813425 -0.138288 3.7471e-20)
(0.0825369 -0.144937 -1.24716e-18)
(0.0837782 -0.151512 -4.44695e-20)
(0.0850589 -0.157997 2.34501e-18)
(0.0863723 -0.16438 -1.15214e-18)
(0.0877119 -0.17065 1.13269e-18)
(0.0890719 -0.176799 -1.1116e-18)
(0.0904466 -0.182821 0)
(0.0918315 -0.188709 0)
(0.0932268 -0.194472 -1.60859e-20)
(0.0946366 -0.20013 1.04161e-18)
(0.0960621 -0.205688 -9.86321e-19)
(0.0975001 -0.21114 -1.52943e-20)
(0.0989449 -0.21647 -9.67864e-19)
(0.100389 -0.221663 9.24981e-19)
(0.101826 -0.226701 -8.87351e-19)
(0.103248 -0.231576 8.85032e-19)
(0.104651 -0.236281 8.70418e-19)
(0.106031 -0.240816 1.31677e-20)
(0.107386 -0.245186 -7.87659e-19)
(0.108716 -0.249401 1.20061e-20)
(0.110021 -0.253473 -7.44575e-19)
(0.111306 -0.257419 7.14756e-19)
(0.112573 -0.261257 -5.53786e-21)
(0.113829 -0.265006 0)
(0.11508 -0.268688 -6.91957e-19)
(0.116332 -0.272322 -7.78779e-21)
(0.117588 -0.275923 -1.27466e-20)
(0.118849 -0.279501 6.81903e-19)
(0.0780551 -0.11101 1.38029e-18)
(0.0791113 -0.117846 -1.2313e-18)
(0.0802468 -0.124688 4.06129e-20)
(0.0814521 -0.131508 4.03389e-20)
(0.0827184 -0.138284 3.99388e-20)
(0.0840372 -0.144995 1.2478e-18)
(0.0854005 -0.151625 -2.52776e-18)
(0.0868006 -0.158158 1.2413e-18)
(0.0882306 -0.164583 3.75592e-20)
(0.0896837 -0.170888 0)
(0.0911539 -0.177067 -1.20443e-18)
(0.0926361 -0.183112 -2.98138e-20)
(0.0941288 -0.189029 1.11007e-18)
(0.0956369 -0.19484 0)
(0.0971638 -0.200561 -1.08632e-18)
(0.0987084 -0.20619 1.06263e-18)
(0.100265 -0.211713 3.24218e-20)
(0.101826 -0.21711 1.02364e-18)
(0.103382 -0.222361 2.80095e-21)
(0.104925 -0.227449 -9.33148e-19)
(0.106449 -0.232363 0)
(0.107947 -0.237098 -8.99762e-19)
(0.109417 -0.241655 -1.32309e-20)
(0.110857 -0.246042 8.38612e-19)
(0.11227 -0.250272 -7.98165e-19)
(0.113659 -0.254362 7.82776e-19)
(0.115027 -0.258331 5.96061e-21)
(0.11638 -0.262201 0)
(0.117725 -0.265994 0)
(0.119066 -0.269728 5.6903e-21)
(0.120407 -0.273418 5.64395e-21)
(0.12175 -0.277074 0)
(0.0777147 -0.10391 1.49097e-18)
(0.0788169 -0.110817 -1.32987e-18)
(0.0800077 -0.117749 1.39487e-18)
(0.0812768 -0.124678 -1.40838e-18)
(0.0826145 -0.131576 -9.76595e-23)
(0.0840114 -0.138421 0)
(0.0854586 -0.145193 0)
(0.0869478 -0.151877 1.34093e-18)
(0.088471 -0.158457 -2.6281e-18)
(0.0900211 -0.164921 1.24874e-18)
(0.0915913 -0.171261 3.87864e-20)
(0.0931753 -0.177468 0)
(0.0947693 -0.183539 -1.2026e-18)
(0.0963776 -0.189497 -2.78215e-20)
(0.0980073 -0.19537 2.30712e-18)
(0.0996593 -0.201163 -1.14371e-18)
(0.101329 -0.206866 1.13135e-18)
(0.103008 -0.212459 -1.06978e-18)
(0.104688 -0.217919 0)
(0.106358 -0.223224 -3.25028e-20)
(0.108008 -0.228356 1.57216e-20)
(0.109633 -0.233304 9.79262e-19)
(0.111227 -0.238064 -9.14597e-19)
(0.112788 -0.242642 -1.41117e-20)
(0.114317 -0.247047 -2.72524e-20)
(0.115817 -0.251297 -8.50564e-19)
(0.117291 -0.255412 8.16511e-19)
(0.118746 -0.259412 8.08149e-19)
(0.120187 -0.263321 1.55551e-20)
(0.12162 -0.267158 -7.79072e-19)
(0.123047 -0.270937 -7.84733e-19)
(0.12447 -0.27467 -8.13137e-21)
(0.0771181 -0.0967995 -8.77149e-19)
(0.0782619 -0.103766 6.94428e-19)
(0.0795046 -0.110779 7.7738e-19)
(0.0808351 -0.117809 -7.3695e-19)
(0.082243 -0.124824 1.4752e-18)
(0.0837177 -0.1318 -1.44269e-18)
(0.0852494 -0.138714 0)
(0.0868289 -0.145548 4.44021e-20)
(0.0884474 -0.152284 1.41672e-18)
(0.0900969 -0.158909 -1.34518e-18)
(0.0917698 -0.165412 0)
(0.0934591 -0.171784 4.07532e-20)
(0.0951594 -0.178017 3.98511e-20)
(0.0968721 -0.184126 0)
(0.098606 -0.190145 0)
(0.100366 -0.196092 1.9101e-20)
(0.102149 -0.201963 -3.76726e-20)
(0.103948 -0.207741 1.17805e-18)
(0.105753 -0.213402 -1.13063e-18)
(0.107554 -0.21892 1.14837e-23)
(0.109337 -0.224271 -3.42018e-20)
(0.111096 -0.229438 0)
(0.112822 -0.234413 1.01092e-18)
(0.114512 -0.239194 -9.74247e-19)
(0.116165 -0.24379 1.47886e-20)
(0.117783 -0.248215 -7.1423e-21)
(0.11937 -0.252487 0)
(0.120931 -0.256628 -6.74673e-21)
(0.122472 -0.26066 -2.7265e-24)
(0.123998 -0.264604 -8.2829e-19)
(0.125513 -0.268476 8.13016e-19)
(0.127019 -0.272287 0)
(0.0762843 -0.0896937 -1.02563e-19)
(0.0774641 -0.0967058 8.44813e-19)
(0.0787544 -0.103791 -8.5214e-19)
(0.0801432 -0.110913 8.83388e-19)
(0.081619 -0.11804 -7.38433e-19)
(0.0831703 -0.125144 -8.09575e-19)
(0.0847862 -0.132197 7.67177e-19)
(0.0864566 -0.13918 -8.75984e-19)
(0.0881716 -0.146073 8.33863e-19)
(0.0899224 -0.152861 4.59617e-20)
(0.0917007 -0.159531 4.49339e-20)
(0.0934986 -0.166071 -8.7816e-20)