/*--------------------------------*- C++ -*----------------------------------*\
  =========                 |
  \\      /  F ield         | OpenFOAM: The Open Source CFD Toolbox
   \\    /   O peration     | Website:  https://openfoam.org
    \\  /    A nd           | Version:  10
     \\/     M anipulation  |
\*---------------------------------------------------------------------------*/
FoamFile
{
    format      ascii;
    class       surfaceScalarField;
    location    "55000";
    object      phi;
}
// * * * * * * * * * * * * * * * * * * * * * * * * * * * * * * * * * * * * * //

dimensions      [0 3 -1 0 0 0 0];

internalField   nonuniform List<scalar> 
35585
(
6.18813e-06
-3.75508e-06
6.06263e-06
-3.75081e-06
5.9374e-06
-3.74199e-06
5.81263e-06
-3.72919e-06
5.68853e-06
-3.71295e-06
5.56532e-06
-3.69372e-06
5.44321e-06
-3.67188e-06
5.32243e-06
-3.64777e-06
5.20318e-06
-3.62166e-06
5.08569e-06
-3.59378e-06
4.97013e-06
-3.56431e-06
4.8567e-06
-3.53341e-06
4.74553e-06
-3.50118e-06
4.63679e-06
-3.46775e-06
4.53057e-06
-3.43317e-06
4.42699e-06
-3.39754e-06
4.32611e-06
-3.36091e-06
4.228e-06
-3.32333e-06
4.1327e-06
-3.28486e-06
4.04023e-06
-3.24555e-06
3.9506e-06
-3.20545e-06
3.86382e-06
-3.16461e-06
3.77985e-06
-3.12307e-06
3.69869e-06
-3.08091e-06
3.62029e-06
-3.03815e-06
3.54461e-06
-2.99486e-06
3.47161e-06
-2.9511e-06
3.40122e-06
-2.90691e-06
3.33339e-06
-2.86235e-06
3.26806e-06
-2.81747e-06
3.20516e-06
-2.77233e-06
3.14461e-06
-2.72698e-06
3.08637e-06
-2.68148e-06
3.03034e-06
-2.63587e-06
2.97647e-06
-2.5902e-06
2.92468e-06
-2.54453e-06
2.87489e-06
-2.49889e-06
2.82705e-06
-2.45334e-06
2.78108e-06
-2.40792e-06
2.73691e-06
-2.36267e-06
2.69448e-06
-2.31763e-06
2.65372e-06
-2.27284e-06
2.61457e-06
-2.22833e-06
2.57697e-06
-2.18413e-06
2.54084e-06
-2.14028e-06
2.50615e-06
-2.09681e-06
2.47282e-06
-2.05374e-06
-2.0111e-06
2.44081e-06
6.48349e-06
-3.61663e-06
6.34541e-06
-3.61273e-06
6.20788e-06
-3.60446e-06
6.0711e-06
-3.59242e-06
5.9353e-06
-3.57715e-06
5.8007e-06
-3.55912e-06
5.66754e-06
-3.53872e-06
5.53604e-06
-3.51628e-06
5.40645e-06
-3.49207e-06
5.27897e-06
-3.4663e-06
5.1538e-06
-3.43915e-06
5.03114e-06
-3.41074e-06
4.91113e-06
-3.38117e-06
4.79392e-06
-3.35053e-06
4.67962e-06
-3.31888e-06
4.56833e-06
-3.28625e-06
4.46012e-06
-3.25269e-06
4.35504e-06
-3.21825e-06
4.25312e-06
-3.18294e-06
4.15437e-06
-3.1468e-06
4.0588e-06
-3.10988e-06
3.9664e-06
-3.0722e-06
3.87712e-06
-3.0338e-06
3.79094e-06
-2.99473e-06
3.70781e-06
-2.95502e-06
3.62768e-06
-2.91473e-06
3.55047e-06
-2.87389e-06
3.47613e-06
-2.83256e-06
3.40458e-06
-2.7908e-06
3.33575e-06
-2.74864e-06
3.26956e-06
-2.70614e-06
3.20593e-06
-2.66336e-06
3.14479e-06
-2.62033e-06
3.08605e-06
-2.57712e-06
3.02963e-06
-2.53378e-06
2.97546e-06
-2.49035e-06
2.92344e-06
-2.44688e-06
2.87351e-06
-2.40341e-06
2.82558e-06
-2.36e-06
2.77959e-06
-2.31668e-06
2.73545e-06
-2.27349e-06
2.69309e-06
-2.23048e-06
2.65245e-06
-2.18768e-06
2.61345e-06
-2.14513e-06
2.57603e-06
-2.10286e-06
2.54012e-06
-2.0609e-06
2.50567e-06
-2.01929e-06
-1.97804e-06
2.4726e-06
6.73519e-06
6.58418e-06
6.43401e-06
6.2849e-06
6.13708e-06
-3.42933e-06
5.99079e-06
-3.41284e-06
5.84629e-06
-3.39422e-06
5.70383e-06
-3.37382e-06
5.56365e-06
-3.35189e-06
5.42598e-06
-3.32863e-06
5.29103e-06
-3.3042e-06
5.15899e-06
-3.2787e-06
5.03003e-06
-3.25222e-06
4.90429e-06
-3.22479e-06
4.78187e-06
-3.19646e-06
4.66288e-06
-3.16725e-06
4.54736e-06
-3.13718e-06
4.43537e-06
-3.10625e-06
4.32692e-06
-3.07449e-06
4.22202e-06
-3.0419e-06
4.12065e-06
-3.00851e-06
4.02278e-06
-2.97433e-06
3.92837e-06
-2.93939e-06
3.83737e-06
-2.90373e-06
3.74971e-06
-2.86737e-06
3.66534e-06
-2.83035e-06
3.58416e-06
-2.79271e-06
3.5061e-06
-2.75451e-06
3.43109e-06
-2.71578e-06
3.35901e-06
-2.67657e-06
3.2898e-06
-2.63693e-06
3.22336e-06
-2.59691e-06
3.15959e-06
-2.55657e-06
3.09841e-06
-2.51594e-06
3.03971e-06
-2.47509e-06
2.98343e-06
-2.43406e-06
2.92945e-06
-2.3929e-06
2.8777e-06
-2.35166e-06
2.8281e-06
-2.31039e-06
2.78054e-06
-2.26912e-06
2.73496e-06
-2.22791e-06
2.69127e-06
-2.1868e-06
2.6494e-06
-2.14581e-06
2.60927e-06
-2.105e-06
2.57081e-06
-2.0644e-06
2.53395e-06
-2.02404e-06
2.49862e-06
-1.98395e-06
-1.94417e-06
2.46475e-06
6.29689e-06
-3.26917e-06
6.1386e-06
-3.25455e-06
5.98246e-06
-3.23808e-06
5.82875e-06
-3.22011e-06
5.67773e-06
-3.20087e-06
5.52965e-06
-3.18055e-06
5.38474e-06
-3.15929e-06
5.2432e-06
-3.13716e-06
5.10519e-06
-3.11421e-06
4.97086e-06
-3.09046e-06
4.84032e-06
-3.06592e-06
4.71364e-06
-3.04058e-06
4.59089e-06
-3.01442e-06
4.47208e-06
-2.98744e-06
4.35722e-06
-2.95963e-06
4.24631e-06
-2.93099e-06
4.13931e-06
-2.9015e-06
4.03617e-06
-2.87119e-06
3.93684e-06
-2.84006e-06
3.84124e-06
-2.80813e-06
3.74931e-06
-2.77543e-06
3.66094e-06
-2.74198e-06
3.57606e-06
-2.70783e-06
3.49456e-06
-2.67301e-06
3.41634e-06
-2.63756e-06
3.34131e-06
-2.60154e-06
3.26936e-06
-2.56498e-06
3.20038e-06
-2.52793e-06
3.13427e-06
-2.49046e-06
3.07093e-06
-2.4526e-06
3.01025e-06
-2.41441e-06
2.95214e-06
-2.37595e-06
2.89649e-06
-2.33725e-06
2.8432e-06
-2.29838e-06
2.79219e-06
-2.25937e-06
2.74335e-06
-2.22029e-06
2.6966e-06
-2.18116e-06
2.65185e-06
-2.14205e-06
2.60902e-06
-2.10298e-06
2.56802e-06
-2.064e-06
2.52877e-06
-2.02515e-06
2.4912e-06
-1.98647e-06
2.45523e-06
-1.94799e-06
-1.90974e-06
2.4208e-06
6.41581e-06
-3.09619e-06
6.24504e-06
-3.08378e-06
6.07682e-06
-3.06986e-06
5.91145e-06
-3.05474e-06
5.74924e-06
-3.03865e-06
5.59045e-06
-3.02177e-06
5.43535e-06
-3.00418e-06
5.28412e-06
-2.98594e-06
5.13696e-06
-2.96705e-06
4.99399e-06
-2.94749e-06
4.85532e-06
-2.92725e-06
4.72101e-06
-2.90627e-06
4.59111e-06
-2.88452e-06
4.46562e-06
-2.86195e-06
4.34453e-06
-2.83855e-06
4.22781e-06
-2.81427e-06
4.11541e-06
-2.7891e-06
4.00726e-06
-2.76304e-06
3.90329e-06
-2.73608e-06
3.80339e-06
-2.70824e-06
3.70748e-06
-2.67952e-06
3.61545e-06
-2.64995e-06
3.52719e-06
-2.61957e-06
3.44259e-06
-2.5884e-06
3.36152e-06
-2.5565e-06
3.28387e-06
-2.52389e-06
3.20953e-06
-2.49063e-06
3.13836e-06
-2.45677e-06
3.07027e-06
-2.42236e-06
3.00512e-06
-2.38745e-06
2.9428e-06
-2.3521e-06
2.88321e-06
-2.31635e-06
2.82622e-06
-2.28027e-06
2.77174e-06
-2.24389e-06
2.71965e-06
-2.20729e-06
2.66986e-06
-2.1705e-06
2.62226e-06
-2.13357e-06
2.57677e-06
-2.09655e-06
2.53328e-06
-2.05949e-06
2.49171e-06
-2.02243e-06
2.45198e-06
-1.98542e-06
2.41399e-06
-1.94849e-06
2.37768e-06
-1.91167e-06
-1.87502e-06
2.34296e-06
6.49475e-06
6.3109e-06
-2.89993e-06
6.13004e-06
-2.889e-06
5.95255e-06
-2.87724e-06
5.77877e-06
-2.86487e-06
5.60899e-06
-2.852e-06
5.44349e-06
-2.83868e-06
5.28248e-06
-2.82493e-06
5.12613e-06
-2.81069e-06
4.97456e-06
-2.79593e-06
4.82787e-06
-2.78055e-06
4.68609e-06
-2.76449e-06
4.54926e-06
-2.74768e-06
4.41734e-06
-2.73004e-06
4.29032e-06
-2.71152e-06
4.16812e-06
-2.69207e-06
4.05067e-06
-2.67165e-06
3.93788e-06
-2.65025e-06
3.82964e-06
-2.62785e-06
3.72585e-06
-2.60444e-06
3.62637e-06
-2.58004e-06
3.53109e-06
-2.55467e-06
3.43986e-06
-2.52835e-06
3.35257e-06
-2.50111e-06
3.26907e-06
-2.47299e-06
3.18922e-06
-2.44404e-06
3.1129e-06
-2.41431e-06
3.03997e-06
-2.38384e-06
2.97029e-06
-2.35268e-06
2.90373e-06
-2.3209e-06
2.84017e-06
-2.28854e-06
2.77948e-06
-2.25566e-06
2.72154e-06
-2.22233e-06
2.66623e-06
-2.18859e-06
2.61344e-06
-2.15449e-06
2.56305e-06
-2.12011e-06
2.51496e-06
-2.08548e-06
2.46906e-06
-2.05065e-06
2.42526e-06
-2.01569e-06
2.38345e-06
-1.98063e-06
2.34355e-06
-1.94552e-06
2.30547e-06
-1.9104e-06
2.26911e-06
-1.87532e-06
-1.84031e-06
2.2344e-06
6.33445e-06
6.14038e-06
5.95033e-06
-2.68719e-06
5.76467e-06
-2.67922e-06
5.58374e-06
-2.67107e-06
5.4078e-06
-2.66274e-06
5.23706e-06
-2.65418e-06
5.07167e-06
-2.6453e-06
4.91174e-06
-2.63599e-06
4.75733e-06
-2.62614e-06
4.60845e-06
-2.61561e-06
4.46509e-06
-2.60432e-06
4.32719e-06
-2.59215e-06
4.1947e-06
-2.57903e-06
4.06752e-06
-2.56489e-06
3.94554e-06
-2.54967e-06
3.82863e-06
-2.53335e-06
3.71667e-06
-2.51589e-06
3.60951e-06
-2.49728e-06
3.50701e-06
-2.47754e-06
3.40901e-06
-2.45667e-06
3.31537e-06
-2.4347e-06
3.22592e-06
-2.41166e-06
3.14051e-06
-2.38758e-06
3.05898e-06
-2.36252e-06
2.9812e-06
-2.33652e-06
2.90699e-06
-2.30963e-06
2.83622e-06
-2.28191e-06
2.76874e-06
-2.25341e-06
2.70441e-06
-2.22421e-06
2.64309e-06
-2.19434e-06
2.58465e-06
-2.16388e-06
2.52895e-06
-2.13289e-06
2.47588e-06
-2.10142e-06
2.42531e-06
-2.06954e-06
2.37713e-06
-2.0373e-06
2.33123e-06
-2.00475e-06
2.28749e-06
-1.97195e-06
2.24582e-06
-1.93895e-06
2.20611e-06
-1.90581e-06
2.16828e-06
-1.87256e-06
2.13222e-06
-1.83926e-06
-1.80595e-06
2.09786e-06
5.90173e-06
5.70428e-06
-2.48176e-06
5.51241e-06
-2.4792e-06
5.32637e-06
-2.4767e-06
5.14634e-06
-2.47416e-06
4.97244e-06
-2.47141e-06
4.80474e-06
-2.46829e-06
4.64325e-06
-2.46465e-06
4.48795e-06
-2.46031e-06
4.33877e-06
-2.45514e-06
4.19563e-06
-2.44901e-06
4.05842e-06
-2.44182e-06
3.927e-06
-2.43347e-06
3.80123e-06
-2.4239e-06
3.68095e-06
-2.41307e-06
3.566e-06
-2.40093e-06
3.4562e-06
-2.38749e-06
3.35139e-06
-2.37273e-06
3.25138e-06
-2.35666e-06
3.15599e-06
-2.33931e-06
3.06505e-06
-2.32072e-06
2.97838e-06
-2.30091e-06
2.89581e-06
-2.27995e-06
2.81716e-06
-2.25787e-06
2.74227e-06
-2.23474e-06
2.67098e-06
-2.21062e-06
2.60312e-06
-2.18556e-06
2.53855e-06
-2.15963e-06
2.47711e-06
-2.1329e-06
2.41866e-06
-2.10543e-06
2.36306e-06
-2.07729e-06
2.31018e-06
-2.04854e-06
2.25988e-06
-2.01924e-06
2.21205e-06
-1.98946e-06
2.16656e-06
-1.95926e-06
2.1233e-06
-1.92869e-06
2.08216e-06
-1.89781e-06
2.04303e-06
-1.86668e-06
2.00581e-06
-1.83535e-06
1.97042e-06
-1.80387e-06
-1.77228e-06
1.93675e-06
5.59411e-06
5.39211e-06
5.19688e-06
-2.28147e-06
5.00853e-06
-2.28581e-06
4.82714e-06
-2.29002e-06
4.6527e-06
-2.29386e-06
4.48519e-06
-2.29713e-06
4.32451e-06
-2.29963e-06
4.17056e-06
-2.30119e-06
4.0232e-06
-2.30165e-06
3.88226e-06
-2.30088e-06
3.74759e-06
-2.2988e-06
3.61899e-06
-2.2953e-06
3.49627e-06
-2.29035e-06
3.37923e-06
-2.28389e-06
3.26767e-06
-2.27593e-06
3.16139e-06
-2.26644e-06
3.06017e-06
-2.25545e-06
2.96383e-06
-2.24297e-06
2.87216e-06
-2.22905e-06
2.78497e-06
-2.21372e-06
2.70205e-06
-2.19703e-06
2.62323e-06
-2.17905e-06
2.54833e-06
-2.15984e-06
2.47716e-06
-2.13945e-06
2.40955e-06
-2.11796e-06
2.34535e-06
-2.09543e-06
2.28438e-06
-2.07194e-06
2.2265e-06
-2.04755e-06
2.17155e-06
-2.02234e-06
2.11939e-06
-1.99638e-06
2.06987e-06
-1.96973e-06
2.02288e-06
-1.94247e-06
1.97828e-06
-1.91466e-06
1.93595e-06
-1.88636e-06
1.89578e-06
-1.85764e-06
1.85766e-06
-1.82855e-06
1.82147e-06
-1.79916e-06
1.78712e-06
-1.76952e-06
-1.73968e-06
1.75452e-06
5.01814e-06
4.82302e-06
4.63566e-06
4.45599e-06
4.28391e-06
-2.12505e-06
4.11928e-06
-2.135e-06
3.96193e-06
-2.14384e-06
3.81167e-06
-2.15139e-06
3.6683e-06
-2.15751e-06
3.5316e-06
-2.16209e-06
3.40135e-06
-2.16505e-06
3.27731e-06
-2.16631e-06
3.15925e-06
-2.16584e-06
3.04696e-06
-2.16363e-06
2.94019e-06
-2.15967e-06
2.83872e-06
-2.15398e-06
2.74233e-06
-2.14658e-06
2.6508e-06
-2.13752e-06
2.56392e-06
-2.12684e-06
2.48148e-06
-2.11459e-06
2.40327e-06
-2.10085e-06
2.3291e-06
-2.08567e-06
2.25878e-06
-2.06912e-06
2.19211e-06
-2.05129e-06
2.12893e-06
-2.03224e-06
2.06905e-06
-2.01206e-06
2.01232e-06
-1.99082e-06
1.95858e-06
-1.9686e-06
1.90768e-06
-1.94547e-06
1.85947e-06
-1.92152e-06
1.81381e-06
-1.89681e-06
1.77057e-06
-1.87142e-06
1.72962e-06
-1.84542e-06
1.69085e-06
-1.81887e-06
1.65414e-06
-1.79184e-06
1.61938e-06
-1.7644e-06
1.58646e-06
-1.7366e-06
-1.70851e-06
1.55529e-06
4.04249e-06
-1.95024e-06
3.87566e-06
-1.96818e-06
3.7166e-06
-1.98477e-06
3.56505e-06
-1.99984e-06
3.42076e-06
-2.01323e-06
3.28349e-06
-2.02482e-06
3.15296e-06
-2.03452e-06
3.02892e-06
-2.04227e-06
2.91111e-06
-2.04803e-06
2.79927e-06
-2.05179e-06
2.69315e-06
-2.05355e-06
2.59249e-06
-2.05332e-06
2.49706e-06
-2.05115e-06
2.40661e-06
-2.04707e-06
2.32093e-06
-2.04115e-06
2.23977e-06
-2.03344e-06
2.16294e-06
-2.02401e-06
2.09021e-06
-2.01294e-06
2.0214e-06
-2.00031e-06
1.9563e-06
-1.98619e-06
1.89473e-06
-1.97067e-06
1.83651e-06
-1.95385e-06
1.78148e-06
-1.93579e-06
1.72946e-06
-1.91658e-06
1.6803e-06
-1.89632e-06
1.63385e-06
-1.87507e-06
1.58997e-06
-1.85293e-06
1.54852e-06
-1.82997e-06
1.50937e-06
-1.80626e-06
1.47239e-06
-1.78189e-06
1.43746e-06
-1.75692e-06
1.40448e-06
-1.73142e-06
1.37334e-06
-1.70546e-06
-1.6791e-06
1.34392e-06
3.76485e-06
-1.77465e-06
3.59766e-06
-1.80099e-06
3.4386e-06
-1.82571e-06
3.28739e-06
-1.84862e-06
3.14372e-06
-1.86956e-06
3.00731e-06
-1.88841e-06
2.87786e-06
-1.90507e-06
2.75508e-06
-1.9195e-06
2.6387e-06
-1.93165e-06
2.52843e-06
-1.94152e-06
2.42399e-06
-1.94911e-06
2.32513e-06
-1.95446e-06
2.23158e-06
-1.9576e-06
2.1431e-06
-1.95859e-06
2.05945e-06
-1.95749e-06
1.98038e-06
-1.95437e-06
1.90568e-06
-1.94931e-06
1.83514e-06
-1.94239e-06
1.76853e-06
-1.9337e-06
1.70567e-06
-1.92333e-06
1.64635e-06
-1.91136e-06
1.5904e-06
-1.89789e-06
1.53764e-06
-1.88302e-06
1.48789e-06
-1.86684e-06
1.441e-06
-1.84943e-06
1.39682e-06
-1.83089e-06
1.35518e-06
-1.8113e-06
1.31597e-06
-1.79075e-06
1.27903e-06
-1.76933e-06
1.24424e-06
-1.7471e-06
1.21149e-06
-1.72417e-06
1.18066e-06
-1.70058e-06
1.15163e-06
-1.67643e-06
-1.65178e-06
1.12431e-06
3.45736e-06
-1.60035e-06
3.29175e-06
-1.63538e-06
3.13451e-06
-1.66848e-06
2.98531e-06
-1.69943e-06
2.84383e-06
-1.72808e-06
2.70975e-06
-1.75432e-06
2.58274e-06
-1.77806e-06
2.4625e-06
-1.79926e-06
2.34873e-06
-1.81788e-06
2.24114e-06
-1.83392e-06
2.13943e-06
-1.84741e-06
2.04334e-06
-1.85837e-06
1.9526e-06
-1.86686e-06
1.86695e-06
-1.87294e-06
1.78614e-06
-1.87668e-06
1.70993e-06
-1.87816e-06
1.63809e-06
-1.87747e-06
1.5704e-06
-1.8747e-06
1.50664e-06
-1.86994e-06
1.44661e-06
-1.86329e-06
1.39011e-06
-1.85486e-06
1.33696e-06
-1.84474e-06
1.28696e-06
-1.83303e-06
1.23996e-06
-1.81983e-06
1.19578e-06
-1.80525e-06
1.15427e-06
-1.78938e-06
1.11528e-06
-1.77231e-06
1.07867e-06
-1.75414e-06
1.0443e-06
-1.73495e-06
1.01204e-06
-1.71485e-06
9.81772e-07
-1.6939e-06
9.53378e-07
-1.67219e-06
9.26748e-07
-1.6498e-06
-1.62681e-06
9.01779e-07
3.1275e-06
2.9654e-06
-1.47329e-06
2.81176e-06
-1.51484e-06
2.66623e-06
-1.5539e-06
2.52846e-06
-1.59031e-06
2.39812e-06
-1.62397e-06
2.27486e-06
-1.6548e-06
2.15837e-06
-1.68277e-06
2.04834e-06
-1.70785e-06
1.94446e-06
-1.73005e-06
1.84646e-06
-1.7494e-06
1.75403e-06
-1.76595e-06
1.66692e-06
-1.77975e-06
1.58487e-06
-1.79089e-06
1.50761e-06
-1.79943e-06
1.43491e-06
-1.80546e-06
1.36653e-06
-1.8091e-06
1.30226e-06
-1.81042e-06
1.24186e-06
-1.80955e-06
1.18515e-06
-1.80658e-06
1.13191e-06
-1.80163e-06
1.08197e-06
-1.79479e-06
1.03514e-06
-1.7862e-06
9.91241e-07
-1.77594e-06
9.50116e-07
-1.76413e-06
9.11605e-07
-1.75087e-06
8.75557e-07
-1.73626e-06
8.41832e-07
-1.72041e-06
8.10292e-07
-1.70341e-06
7.80807e-07
-1.68536e-06
7.53256e-07
-1.66635e-06
7.27522e-07
-1.64646e-06
7.03495e-07
-1.62578e-06
-1.60438e-06
6.81071e-07
2.62701e-06
-1.31646e-06
2.47859e-06
-1.36641e-06
2.3382e-06
-1.41351e-06
2.20549e-06
-1.4576e-06
2.08011e-06
-1.49859e-06
1.96173e-06
-1.53642e-06
1.85002e-06
-1.57106e-06
1.74467e-06
-1.6025e-06
1.64539e-06
-1.63076e-06
1.55187e-06
-1.65589e-06
1.46385e-06
-1.67792e-06
1.38104e-06
-1.69695e-06
1.3032e-06
-1.71304e-06
1.23007e-06
-1.72629e-06
1.1614e-06
-1.7368e-06
1.09698e-06
-1.74467e-06
1.03657e-06
-1.75001e-06
9.79955e-07
-1.75294e-06
9.2694e-07
-1.75357e-06
8.77325e-07
-1.75201e-06
8.30922e-07
-1.74839e-06
7.87551e-07
-1.74282e-06
7.47039e-07
-1.73543e-06
7.09224e-07
-1.72631e-06
6.73948e-07
-1.71559e-06
6.41063e-07
-1.70338e-06
6.10426e-07
-1.68977e-06
5.81902e-07
-1.67489e-06
5.55364e-07
-1.65882e-06
5.30689e-07
-1.64167e-06
5.07762e-07
-1.62353e-06
4.86473e-07
-1.60449e-06
-1.58463e-06
4.66719e-07
2.28568e-06
-1.1664e-06
2.14381e-06
-1.22455e-06
2.00978e-06
-1.27948e-06
1.88323e-06
-1.33105e-06
1.76382e-06
-1.37918e-06
1.65122e-06
-1.42382e-06
1.54511e-06
-1.46496e-06
1.4452e-06
-1.50258e-06
1.35118e-06
-1.53674e-06
1.26277e-06
-1.56748e-06
1.1797e-06
-1.59485e-06
1.1017e-06
-1.61895e-06
1.02852e-06
-1.63987e-06
9.59926e-07
-1.65769e-06
8.95668e-07
-1.67254e-06
8.35524e-07
-1.68453e-06
7.79277e-07
-1.69376e-06
7.26717e-07
-1.70038e-06
6.77644e-07
-1.70449e-06
6.31865e-07
-1.70623e-06
5.89196e-07
-1.70572e-06
5.49462e-07
-1.70309e-06
5.12491e-07
-1.69846e-06
4.78124e-07
-1.69194e-06
4.46207e-07
-1.68367e-06
4.16591e-07
-1.67376e-06
3.89139e-07
-1.66232e-06
3.63717e-07
-1.64947e-06
3.40198e-07
-1.6353e-06
3.18462e-07
-1.61994e-06
2.98396e-07
-1.60346e-06
2.79892e-07
-1.58598e-06
-1.56758e-06
2.62847e-07
1.9504e-06
1.81609e-06
-1.09024e-06
1.68931e-06
-1.15269e-06
1.56971e-06
-1.21145e-06
1.45698e-06
-1.26645e-06
1.35079e-06
-1.31764e-06
1.25086e-06
-1.36502e-06
1.15688e-06
-1.40861e-06
1.06858e-06
-1.44844e-06
9.85672e-07
-1.48457e-06
9.07907e-07
-1.51709e-06
8.35029e-07
-1.54608e-06
7.66791e-07
-1.57163e-06
7.0296e-07
-1.59386e-06
6.43309e-07
-1.61289e-06
5.87619e-07
-1.62884e-06
5.35681e-07
-1.64183e-06
4.87293e-07
-1.65199e-06
4.42261e-07
-1.65946e-06
4.00398e-07
-1.66437e-06
3.61527e-07
-1.66685e-06
3.25475e-07
-1.66704e-06
2.92078e-07
-1.66506e-06
2.61181e-07
-1.66105e-06
2.32631e-07
-1.65512e-06
2.06287e-07
-1.64742e-06
1.82012e-07
-1.63805e-06
1.59676e-07
-1.62713e-06
1.39154e-07
-1.61478e-06
1.20331e-07
-1.60111e-06
1.03094e-07
-1.58623e-06
8.73372e-08
-1.57023e-06
-1.55321e-06
7.29607e-08
1.50354e-06
-9.64075e-07
1.38452e-06
-1.03367e-06
1.27234e-06
-1.09927e-06
1.16669e-06
-1.16081e-06
1.0673e-06
-1.21824e-06
9.73855e-07
-1.27158e-06
8.86089e-07
-1.32084e-06
8.03732e-07
-1.36608e-06
7.26525e-07
-1.40737e-06
6.54218e-07
-1.44478e-06
5.86571e-07
-1.47843e-06
5.23353e-07
-1.50841e-06
4.64341e-07
-1.53485e-06
4.09321e-07
-1.55787e-06
3.58087e-07
-1.5776e-06
3.10438e-07
-1.59418e-06
2.66183e-07
-1.60774e-06
2.25138e-07
-1.61842e-06
1.87124e-07
-1.62636e-06
1.5197e-07
-1.6317e-06
1.19514e-07
-1.63458e-06
8.95956e-08
-1.63514e-06
6.2064e-08
-1.63351e-06
3.67754e-08
-1.62984e-06
1.35907e-08
-1.62423e-06
-7.62268e-09
-1.61683e-06
-2.69908e-08
-1.60776e-06
-4.46335e-08
-1.59714e-06
-6.06658e-08
-1.58508e-06
-7.51958e-08
-1.5717e-06
-8.83272e-08
-1.55709e-06
-1.54138e-06
-1.00156e-07
1.2131e-06
-8.46232e-07
1.10199e-06
-9.22563e-07
9.97366e-07
-9.94644e-07
8.98942e-07
-1.06238e-06
8.06435e-07
-1.12574e-06
7.19567e-07
-1.18471e-06
6.38072e-07
-1.23935e-06
5.61691e-07
-1.2897e-06
4.90176e-07
-1.33585e-06
4.23288e-07
-1.37789e-06
3.60803e-07
-1.41594e-06
3.02506e-07
-1.45011e-06
2.48189e-07
-1.48053e-06
1.97654e-07
-1.50734e-06
1.5071e-07
-1.53066e-06
1.07172e-07
-1.55064e-06
6.68599e-08
-1.56742e-06
2.96018e-08
-1.58116e-06
-4.76876e-09
-1.59199e-06
-3.64135e-08
-1.60005e-06
-6.54884e-08
-1.60551e-06
-9.21428e-08
-1.60849e-06
-1.16521e-07
-1.60914e-06
-1.38762e-07
-1.60759e-06
-1.58999e-07
-1.604e-06
-1.7736e-07
-1.59847e-06
-1.93965e-07
-1.59116e-06
-2.08933e-07
-1.58217e-06
-2.22372e-07
-1.57164e-06
-2.3439e-07
-1.55968e-06
-2.45087e-07
-1.5464e-06
-1.53191e-06
-2.54556e-07
9.50879e-07
-7.36407e-07
8.47384e-07
-8.19069e-07
7.50106e-07
-8.97366e-07
6.58793e-07
-9.7107e-07
5.73094e-07
-1.04004e-06
4.92681e-07
-1.1043e-06
4.17291e-07
-1.16396e-06
3.46678e-07
-1.21909e-06
2.80606e-07
-1.26978e-06
2.18858e-07
-1.31615e-06
1.61231e-07
-1.35832e-06
1.0753e-07
-1.39641e-06
5.75717e-08
-1.43058e-06
1.11764e-08
-1.46094e-06
-3.18269e-08
-1.48765e-06
-7.16067e-08
-1.51086e-06
-1.08325e-07
-1.53071e-06
-1.42141e-07
-1.54734e-06
-1.73209e-07
-1.56092e-06
-2.0168e-07
-1.57158e-06
-2.27698e-07
-1.57949e-06
-2.51406e-07
-1.58478e-06
-2.72941e-07
-1.5876e-06
-2.92436e-07
-1.5881e-06
-3.10016e-07
-1.58641e-06
-3.25806e-07
-1.58268e-06
-3.39923e-07
-1.57704e-06
-3.5248e-07
-1.56962e-06
-3.63585e-07
-1.56054e-06
-3.7334e-07
-1.54992e-06
-3.81843e-07
-1.53789e-06
-1.52456e-06
-3.89187e-07
7.21502e-07
-6.34061e-07
6.24812e-07
-7.22379e-07
5.3386e-07
-8.06414e-07
4.48633e-07
-8.85844e-07
3.68979e-07
-9.60383e-07
2.94602e-07
-1.02992e-06
2.25117e-07
-1.09447e-06
1.60116e-07
-1.15408e-06
9.92607e-08
-1.20892e-06
4.23361e-08
-1.25922e-06
-1.08077e-08
-1.30517e-06
-6.03202e-08
-1.3469e-06
-1.06348e-07
-1.38455e-06
-1.49038e-07
-1.41825e-06
-1.88535e-07
-1.44816e-06
-2.24984e-07
-1.47441e-06
-2.58528e-07
-1.49716e-06
-2.89311e-07
-1.51656e-06
-3.17473e-07
-1.53276e-06
-3.43152e-07
-1.5459e-06
-3.66484e-07
-1.55615e-06
-3.87604e-07
-1.56366e-06
-4.0664e-07
-1.56857e-06
-4.2372e-07
-1.57102e-06
-4.38965e-07
-1.57117e-06
-4.52493e-07
-1.56916e-06
-4.6442e-07
-1.56511e-06
-4.74855e-07
-1.55918e-06
-4.83902e-07
-1.55149e-06
-4.91663e-07
-1.54216e-06
-4.98233e-07
-1.53133e-06
-1.51909e-06
-5.03703e-07
5.25501e-07
-5.39326e-07
4.35445e-07
-6.32323e-07
3.50235e-07
-7.21203e-07
2.70068e-07
-8.05676e-07
1.95097e-07
-8.85413e-07
1.25299e-07
-9.60122e-07
6.04372e-08
-1.02961e-06
1.55135e-10
-1.0938e-06
-5.59591e-08
-1.15281e-06
-1.08308e-07
-1.20687e-06
-1.57195e-07
-1.25629e-06
-2.02778e-07
-1.30132e-06
-2.45156e-07
-1.34217e-06
-2.84434e-07
-1.37897e-06
-3.20727e-07
-1.41187e-06
-3.54151e-07
-1.44099e-06
-3.84829e-07
-1.46648e-06
-4.12886e-07
-1.4885e-06
-4.38446e-07
-1.5072e-06
-4.61635e-07
-1.52271e-06
-4.8258e-07
-1.53521e-06
-5.01403e-07
-1.54483e-06
-5.18229e-07
-1.55174e-06
-5.33176e-07
-1.55607e-06
-5.46362e-07
-1.55798e-06
-5.57901e-07
-1.55762e-06
-5.67904e-07
-1.55511e-06
-5.76475e-07
-1.55061e-06
-5.8372e-07
-1.54424e-06
-5.89735e-07
-1.53615e-06
-5.94614e-07
-1.52645e-06
-1.51526e-06
-5.98447e-07
3.6077e-07
-4.52679e-07
2.77837e-07
-5.4939e-07
1.98826e-07
-6.42192e-07
1.23979e-07
-7.3083e-07
5.35178e-08
-8.14952e-07
-1.24131e-08
-8.94191e-07
-7.37717e-08
-9.6825e-07
-1.3063e-07
-1.03694e-06
-1.83214e-07
-1.10022e-06
-2.31909e-07
-1.15818e-06
-2.77146e-07
-1.21105e-06
-3.19255e-07
-1.25921e-06
-3.58402e-07
-1.30302e-06
-3.94662e-07
-1.34271e-06
-4.28124e-07
-1.3784e-06
-4.58884e-07
-1.41023e-06
-4.87046e-07
-1.43832e-06
-5.12718e-07
-1.46283e-06
-5.3601e-07
-1.4839e-06
-5.57039e-07
-1.50169e-06
-5.75916e-07
-1.51633e-06
-5.92761e-07
-1.52799e-06
-6.07686e-07
-1.53681e-06
-6.20806e-07
-1.54295e-06
-6.32233e-07
-1.54656e-06
-6.42075e-07
-1.54777e-06
-6.50439e-07
-1.54675e-06
-6.5743e-07
-1.54362e-06
-6.63146e-07
-1.53853e-06
-6.67684e-07
-1.53161e-06
-6.71134e-07
-1.523e-06
-1.51281e-06
-6.73585e-07
2.27928e-07
-3.74191e-07
1.52298e-07
-4.7376e-07
7.96753e-08
-5.69569e-07
1.0353e-08
-6.61508e-07
-5.53629e-08
-7.49235e-07
-1.1723e-07
-8.32323e-07
-1.75109e-07
-9.10371e-07
-2.28967e-07
-9.83087e-07
-2.78873e-07
-1.05032e-06
-3.25e-07
-1.11205e-06
-3.67629e-07
-1.16842e-06
-4.07125e-07
-1.21971e-06
-4.43767e-07
-1.26638e-06
-4.77677e-07
-1.3088e-06
-5.0893e-07
-1.34715e-06
-5.37609e-07
-1.38155e-06
-5.63803e-07
-1.41213e-06
-5.87611e-07
-1.43902e-06
-6.09133e-07
-1.46238e-06
-6.28475e-07
-1.48234e-06
-6.45743e-07
-1.49906e-06
-6.61046e-07
-1.51269e-06
-6.74493e-07
-1.52337e-06
-6.86192e-07
-1.53125e-06
-6.9625e-07
-1.5365e-06
-7.04774e-07
-1.53925e-06
-7.11867e-07
-1.53965e-06
-7.17628e-07
-1.53786e-06
-7.22156e-07
-1.534e-06
-7.25544e-07
-1.52822e-06
-7.27883e-07
-1.52066e-06
-1.51143e-06
-7.29259e-07
1.27249e-07
-3.03398e-07
5.88668e-08
-4.05378e-07
-7.34325e-09
-5.03359e-07
-7.11774e-08
-5.97674e-07
-1.32272e-07
-6.88141e-07
-1.90265e-07
-7.74331e-07
-2.44882e-07
-8.55754e-07
-2.95974e-07
-9.31995e-07
-3.43518e-07
-1.00277e-06
-3.87594e-07
-1.06797e-06
-4.28369e-07
-1.12764e-06
-4.66077e-07
-1.18201e-06
-5.00993e-07
-1.23147e-06
-5.33284e-07
-1.27651e-06
-5.63017e-07
-1.31742e-06
-5.90266e-07
-1.3543e-06
-6.15114e-07
-1.38728e-06
-6.37651e-07
-1.41649e-06
-6.57968e-07
-1.44206e-06
-6.76165e-07
-1.46415e-06
-6.92342e-07
-1.48289e-06
-7.06602e-07
-1.49843e-06
-7.19048e-07
-1.51092e-06
-7.29785e-07
-1.52052e-06
-7.38917e-07
-1.52737e-06
-7.46545e-07
-1.53162e-06
-7.52772e-07
-1.53343e-06
-7.57695e-07
-1.53293e-06
-7.6141e-07
-1.53029e-06
-7.6401e-07
-1.52562e-06
-7.65584e-07
-1.51908e-06
-1.5108e-06
-7.66218e-07
5.72453e-08
-2.39161e-07
-4.60695e-09
-3.43526e-07
-6.46084e-08
-4.43358e-07
-1.23002e-07
-5.39281e-07
-1.79535e-07
-6.31608e-07
-2.33794e-07
-7.20071e-07
-2.85387e-07
-8.04161e-07
-3.3403e-07
-8.83351e-07
-3.79577e-07
-9.57227e-07
-4.22006e-07
-1.02554e-06
-4.61399e-07
-1.08825e-06
-4.97912e-07
-1.14549e-06
-5.3175e-07
-1.19763e-06
-5.63054e-07
-1.24521e-06
-5.91882e-07
-1.28859e-06
-6.18301e-07
-1.32788e-06
-6.42385e-07
-1.36319e-06
-6.64213e-07
-1.39466e-06
-6.83873e-07
-1.4224e-06
-7.01454e-07
-1.44657e-06
-7.17052e-07
-1.46729e-06
-7.30762e-07
-1.48472e-06
-7.42685e-07
-1.499e-06
-7.52919e-07
-1.51028e-06
-7.61567e-07
-1.51872e-06
-7.68726e-07
-1.52446e-06
-7.74495e-07
-1.52766e-06
-7.78973e-07
-1.52846e-06
-7.82252e-07
-1.52701e-06
-7.84425e-07
-1.52345e-06
-7.85582e-07
-1.51793e-06
-1.51058e-06
-7.85807e-07
1.61747e-08
-1.80477e-07
-4.03928e-08
-2.86958e-07
-9.50417e-08
-3.88709e-07
-1.48314e-07
-4.86008e-07
-2.00429e-07
-5.79493e-07
-2.5109e-07
-6.6941e-07
-2.99852e-07
-7.554e-07
-3.46312e-07
-8.36891e-07
-3.90195e-07
-9.13344e-07
-4.31363e-07
-9.84377e-07
-4.69803e-07
-1.04981e-06
-5.05589e-07
-1.10971e-06
-5.38848e-07
-1.16437e-06
-5.6967e-07
-1.21439e-06
-5.98102e-07
-1.26016e-06
-6.24199e-07
-1.30178e-06
-6.48022e-07
-1.33937e-06
-6.69642e-07
-1.37304e-06
-6.89132e-07
-1.40291e-06
-7.06576e-07
-1.42912e-06
-7.22061e-07
-1.4518e-06
-7.35675e-07
-1.4711e-06
-7.47514e-07
-1.48716e-06
-7.57672e-07
-1.50012e-06
-7.66245e-07
-1.51015e-06
-7.73331e-07
-1.51738e-06
-7.79025e-07
-1.52196e-06
-7.83424e-07
-1.52406e-06
-7.8662e-07
-1.52381e-06
-7.88705e-07
-1.52136e-06
-7.89768e-07
-1.51686e-06
-1.51045e-06
-7.89893e-07
1.34101e-09
-1.2669e-07
-5.08858e-08
-2.34732e-07
-1.01424e-07
-3.38171e-07
-1.5046e-07
-4.36972e-07
-1.98516e-07
-5.31438e-07
-2.45759e-07
-6.22166e-07
-2.91859e-07
-7.093e-07
-3.36354e-07
-7.92396e-07
-3.78847e-07
-8.70851e-07
-4.19079e-07
-9.44145e-07
-4.56927e-07
-1.01196e-06
-4.92374e-07
-1.07426e-06
-5.2546e-07
-1.13128e-06
-5.56222e-07
-1.18362e-06
-5.84686e-07
-1.23169e-06
-6.10892e-07
-1.27558e-06
-6.34886e-07
-1.31538e-06
-6.56724e-07
-1.3512e-06
-6.7647e-07
-1.38317e-06
-6.94195e-07
-1.4114e-06
-7.09975e-07
-1.43603e-06
-7.23894e-07
-1.45718e-06
-7.36038e-07
-1.47502e-06
-7.46496e-07
-1.48967e-06
-7.55362e-07
-1.50128e-06
-7.62727e-07
-1.51001e-06
-7.68687e-07
-1.516e-06
-7.73333e-07
-1.51941e-06
-7.76761e-07
-1.52038e-06
-7.79058e-07
-1.51907e-06
-7.80314e-07
-1.51561e-06
-1.51015e-06
-7.80615e-07
9.3501e-09
-3.91005e-08
-1.86281e-07
-8.63901e-08
-2.90882e-07
-1.32373e-07
-3.90988e-07
-1.77224e-07
-4.86587e-07
-2.21411e-07
-5.7798e-07
-2.65037e-07
-6.65674e-07
-3.07738e-07
-7.49695e-07
-3.49054e-07
-8.29535e-07
-3.88609e-07
-9.0459e-07
-4.26161e-07
-9.74412e-07
-4.61588e-07
-1.03883e-06
-4.94835e-07
-1.09804e-06
-5.25882e-07
-1.15258e-06
-5.54734e-07
-1.20284e-06
-5.8141e-07
-1.2489e-06
-6.0594e-07
-1.29085e-06
-6.28362e-07
-1.32878e-06
-6.48727e-07
-1.3628e-06
-6.67092e-07
-1.39303e-06
-6.83523e-07
-1.41959e-06
-6.98093e-07
-1.44261e-06
-7.10881e-07
-1.46223e-06
-7.21969e-07
-1.47858e-06
-7.31445e-07
-1.49181e-06
-7.39397e-07
-1.50206e-06
-7.45916e-07
-1.50948e-06
-7.51094e-07
-1.51423e-06
-7.55023e-07
-1.51645e-06
-7.57792e-07
-1.5163e-06
-7.5949e-07
-1.51391e-06
-1.50943e-06
-7.60204e-07
-8.5317e-09
-1.41142e-07
-5.30441e-08
-2.4637e-07
-9.67454e-08
-3.47287e-07
-1.39478e-07
-4.43854e-07
-1.81389e-07
-5.3607e-07
-2.22867e-07
-6.24196e-07
-2.63946e-07
-7.08616e-07
-3.04241e-07
-7.8924e-07
-3.43304e-07
-8.65527e-07
-3.80781e-07
-9.36935e-07
-4.16439e-07
-1.00317e-06
-4.50114e-07
-1.06436e-06
-4.81725e-07
-1.12097e-06
-5.11256e-07
-1.17331e-06
-5.38703e-07
-1.22145e-06
-5.64076e-07
-1.26547e-06
-5.87393e-07
-1.30546e-06
-6.08688e-07
-1.34151e-06
-6.28003e-07
-1.37372e-06
-6.4539e-07
-1.40221e-06
-6.60911e-07
-1.42709e-06
-6.74634e-07
-1.44851e-06
-6.86634e-07
-1.46658e-06
-6.96993e-07
-1.48145e-06
-7.05795e-07
-1.49326e-06
-7.13126e-07
-1.50215e-06
-7.19077e-07
-1.50828e-06
-7.23736e-07
-1.5118e-06
-7.27193e-07
-1.51284e-06
-7.2954e-07
-1.51156e-06
-1.50811e-06
-7.3086e-07
3.7308e-08
-9.89671e-08
-4.77981e-09
-2.04282e-07
-4.65716e-08
-3.05495e-07
-8.78613e-08
-4.02564e-07
-1.28476e-07
-4.95456e-07
-1.68508e-07
-5.84164e-07
-2.08247e-07
-6.68877e-07
-2.4766e-07
-7.49827e-07
-2.86358e-07
-8.26829e-07
-3.2391e-07
-8.99382e-07
-3.59971e-07
-9.67114e-07
-3.94271e-07
-1.03006e-06
-4.26664e-07
-1.08857e-06
-4.57108e-07
-1.14286e-06
-4.85575e-07
-1.19299e-06
-5.12046e-07
-1.239e-06
-5.36522e-07
-1.28099e-06
-5.59012e-07
-1.31902e-06
-5.79541e-07
-1.35319e-06
-5.98145e-07
-1.3836e-06
-6.14871e-07
-1.41037e-06
-6.29779e-07
-1.4336e-06
-6.42932e-07
-1.45342e-06
-6.54404e-07
-1.46997e-06
-6.64274e-07
-1.48339e-06
-6.72626e-07
-1.4938e-06
-6.79546e-07
-1.50136e-06
-6.85123e-07
-1.50622e-06
-6.89446e-07
-1.50852e-06
-6.92605e-07
-1.5084e-06
-1.50603e-06
-6.94688e-07
9.49259e-08
-5.95267e-08
5.50405e-08
-1.64396e-07
1.49351e-08
-2.6539e-07
-2.5166e-08
-3.62463e-07
-6.50409e-08
-4.55581e-07
-1.04492e-07
-5.44713e-07
-1.43534e-07
-6.29835e-07
-1.82306e-07
-7.11055e-07
-2.20721e-07
-7.88415e-07
-2.5843e-07
-8.61674e-07
-2.94996e-07
-9.30547e-07
-3.30048e-07
-9.95011e-07
-3.63385e-07
-1.05524e-06
-3.94931e-07
-1.11132e-06
-4.24623e-07
-1.16329e-06
-4.52414e-07
-1.21121e-06
-4.78273e-07
-1.25513e-06
-5.02186e-07
-1.2951e-06
-5.24155e-07
-1.33122e-06
-5.44197e-07
-1.36356e-06
-5.62346e-07
-1.39222e-06
-5.78643e-07
-1.4173e-06
-5.93145e-07
-1.43892e-06
-6.05918e-07
-1.4572e-06
-6.17033e-07
-1.47227e-06
-6.26571e-07
-1.48426e-06
-6.34615e-07
-1.49332e-06
-6.41252e-07
-1.49958e-06
-6.46573e-07
-1.5032e-06
-6.50667e-07
-1.50431e-06
-1.50307e-06
-6.53625e-07
1.60859e-07
1.23066e-07
8.4555e-08
4.55614e-08
-3.2347e-07
6.32011e-09
-4.16339e-07
-3.29406e-08
-5.05452e-07
-7.19992e-08
-5.90776e-07
-1.10772e-07
-6.72281e-07
-1.49239e-07
-7.49948e-07
-1.87198e-07
-8.23715e-07
-2.24274e-07
-8.93471e-07
-2.6011e-07
-9.59175e-07
-2.94488e-07
-1.02086e-06
-3.27273e-07
-1.07853e-06
-3.58351e-07
-1.13222e-06
-3.87632e-07
-1.18193e-06
-4.15052e-07
-1.22771e-06
-4.40564e-07
-1.26959e-06
-4.64147e-07
-1.30764e-06
-4.85797e-07
-1.34191e-06
-5.05527e-07
-1.37249e-06
-5.23368e-07
-1.39946e-06
-5.39364e-07
-1.42293e-06
-5.5357e-07
-1.443e-06
-5.66056e-07
-1.45979e-06
-5.76894e-07
-1.47343e-06
-5.86168e-07
-1.48405e-06
-5.93963e-07