/*--------------------------------*- C++ -*----------------------------------*\
  =========                 |
  \\      /  F ield         | OpenFOAM: The Open Source CFD Toolbox
   \\    /   O peration     | Website:  https://openfoam.org
    \\  /    A nd           | Version:  10
     \\/     M anipulation  |
\*---------------------------------------------------------------------------*/
FoamFile
{
    format      ascii;
    class       volVectorField;
    location    "55000";
    object      Urel;
}
// * * * * * * * * * * * * * * * * * * * * * * * * * * * * * * * * * * * * * //

dimensions      [0 1 -1 0 0 0 0];

internalField   nonuniform List<vector> 
17981
(
(0.155355 -0.41621 9.53581e-22)
(0.151714 -0.427835 -9.56752e-22)
(0.148141 -0.439241 0)
(0.14463 -0.450461 -6.04953e-21)
(0.141183 -0.461521 1.33215e-20)
(0.137802 -0.472449 -7.21652e-21)
(0.134491 -0.483266 0)
(0.131251 -0.493991 6.24064e-22)
(0.128086 -0.504638 0)
(0.124998 -0.515218 0)
(0.12199 -0.525738 -7.63887e-22)
(0.119063 -0.536204 1.40949e-20)
(0.11622 -0.546617 -1.27546e-20)
(0.113461 -0.556976 0)
(0.110787 -0.56728 0)
(0.108199 -0.577523 0)
(0.105698 -0.587703 0)
(0.103281 -0.597812 -1.43697e-20)
(0.10095 -0.607845 1.37613e-20)
(0.0987029 -0.617795 2.85676e-20)
(0.0965384 -0.627657 -2.69357e-20)
(0.0944554 -0.637422 -4.31505e-22)
(0.0924521 -0.647086 0)
(0.0905268 -0.656642 0)
(0.0886774 -0.666085 2.71546e-20)
(0.086902 -0.675409 -2.56536e-20)
(0.0851984 -0.68461 2.63574e-20)
(0.0835644 -0.693682 -2.53225e-20)
(0.0819977 -0.702623 -3.93555e-22)
(0.0804962 -0.711429 0)
(0.0790575 -0.720096 1.89987e-22)
(0.0776794 -0.728622 -1.86495e-22)
(0.0763596 -0.737005 -1.82962e-22)
(0.075096 -0.745242 2.29911e-20)
(0.0738863 -0.753334 -2.21478e-20)
(0.0727283 -0.761278 -1.72246e-22)
(0.0716201 -0.769074 0)
(0.0705596 -0.776721 0)
(0.0695448 -0.78422 1.61565e-22)
(0.0685737 -0.79157 -2.05211e-20)
(0.0676445 -0.798772 -9.62811e-23)
(0.0667554 -0.805826 1.90709e-20)
(0.0659047 -0.812734 7.38487e-23)
(0.0650907 -0.819497 0)
(0.0643118 -0.826116 0)
(0.0635663 -0.832592 0)
(0.062853 -0.838926 0)
(0.0621702 -0.845122 -1.70615e-20)
(0.176388 -0.397656 -5.79902e-21)
(0.172549 -0.408986 0)
(0.168779 -0.420106 -1.67206e-20)
(0.16508 -0.431052 4.11599e-20)
(0.161455 -0.441855 -2.33924e-20)
(0.157907 -0.452543 3.53102e-20)
(0.15444 -0.463143 -3.41183e-20)
(0.151057 -0.473674 6.21737e-22)
(0.147762 -0.484153 1.38902e-21)
(0.144556 -0.494593 -5.03657e-20)
(0.141444 -0.505001 1.0034e-19)
(0.138426 -0.515382 -5.14248e-20)
(0.135506 -0.525737 0)
(0.132683 -0.536065 1.72979e-21)
(0.129958 -0.546363 -5.82314e-20)
(0.127332 -0.556626 5.57229e-20)
(0.124804 -0.566847 5.90779e-20)
(0.122373 -0.577019 -5.65339e-20)
(0.120038 -0.587134 9.01476e-22)
(0.117798 -0.597185 0)
(0.11565 -0.607163 -4.49146e-22)
(0.113593 -0.617059 5.8371e-20)
(0.111624 -0.626867 -5.46371e-20)
(0.109742 -0.636579 5.75297e-20)
(0.107943 -0.646187 -1.10273e-19)
(0.106224 -0.655686 5.32436e-20)
(0.104584 -0.665068 -5.42915e-20)
(0.103019 -0.67433 5.21545e-20)
(0.101526 -0.683464 4.06006e-22)
(0.100103 -0.692468 0)
(0.0987476 -0.701337 1.95587e-22)
(0.097456 -0.710068 1.92386e-22)
(0.0962261 -0.718657 -4.85578e-20)
(0.0950552 -0.727103 4.71346e-20)
(0.0939407 -0.735403 -5.44074e-22)
(0.0928802 -0.743556 4.60304e-20)
(0.0918711 -0.75156 -4.4211e-20)
(0.0909113 -0.759415 0)
(0.0899983 -0.767119 4.2818e-20)
(0.08913 -0.774674 -8.30393e-20)
(0.0883043 -0.782079 4.01101e-20)
(0.0875192 -0.789333 -4.0032e-20)
(0.0867727 -0.796439 -6.8633e-22)
(0.086063 -0.803397 3.77998e-20)
(0.0853882 -0.810208 0)
(0.0847467 -0.816873 0)
(0.0841368 -0.823394 1.39045e-22)
(0.0835569 -0.829772 -6.88272e-23)
(0.195774 -0.377095 0)
(0.19168 -0.388136 9.17335e-21)
(0.187663 -0.398979 -9.78829e-21)
(0.183729 -0.40966 2.38539e-20)
(0.17988 -0.420216 -2.47377e-20)
(0.176122 -0.430678 -1.98618e-21)
(0.172458 -0.441076 0)
(0.168893 -0.451431 -1.32981e-21)
(0.165431 -0.461764 -4.28291e-21)
(0.162075 -0.472086 0)
(0.158827 -0.482406 1.63043e-21)
(0.155692 -0.49273 3.35079e-21)
(0.152669 -0.503058 0)
(0.14976 -0.513387 -1.7987e-23)
(0.146966 -0.523713 1.80674e-21)
(0.144285 -0.534028 0)
(0.141716 -0.544326 1.21372e-19)
(0.139259 -0.554597 -1.14222e-19)
(0.136912 -0.564831 -1.22302e-19)
(0.134672 -0.575018 1.16142e-19)
(0.132536 -0.585148 -1.83807e-21)
(0.130501 -0.595212 0)
(0.128566 -0.6052 9.01585e-22)
(0.126725 -0.615103 -8.97758e-22)
(0.124977 -0.624912 8.84607e-22)
(0.123318 -0.634619 -1.12527e-19)
(0.121744 -0.644218 1.08878e-19)
(0.120252 -0.6537 -8.47865e-22)
(0.118839 -0.663061 0)
(0.1175 -0.672295 1.05409e-19)
(0.116234 -0.681397 2.53224e-21)
(0.115036 -0.690362 -1.01193e-19)
(0.113903 -0.699187 0)
(0.112833 -0.707869 0)
(0.111822 -0.716405 -9.68855e-20)
(0.110868 -0.724793 9.37685e-20)
(0.109967 -0.733031 -3.58911e-22)
(0.109117 -0.741119 0)
(0.108315 -0.749054 3.44113e-22)
(0.107559 -0.756836 -3.36682e-22)
(0.106846 -0.764466 -8.48771e-20)
(0.106175 -0.771943 8.19781e-20)
(0.105542 -0.779268 1.5749e-22)
(0.104946 -0.786441 -1.54145e-22)
(0.104386 -0.793464 -3.01131e-22)
(0.103858 -0.800338 0)
(0.103361 -0.807063 -1.43622e-22)
(0.102893 -0.813641 -7.32463e-20)
(0.19639 -0.396669 -1.50123e-21)
(0.192377 -0.406918 2.0778e-21)
(0.188475 -0.41713 8.24619e-20)
(0.184689 -0.42733 -1.707e-19)
(0.181023 -0.437538 9.06934e-20)
(0.177483 -0.447769 -3.09981e-21)
(0.174072 -0.458033 1.0741e-19)
(0.170792 -0.468332 -1.09343e-19)
(0.167645 -0.478667 0)
(0.16463 -0.489033 -1.83544e-21)
(0.161749 -0.499426 1.20682e-19)
(0.159 -0.509834 -1.17082e-19)
(0.156381 -0.520249 -1.20635e-19)
(0.15389 -0.530659 -9.52212e-21)
(0.151524 -0.541053 1.19163e-19)
(0.14928 -0.551417 -1.23965e-19)
(0.147154 -0.561741 1.18644e-19)
(0.145142 -0.572012 0)
(0.143241 -0.58222 1.19118e-19)
(0.141446 -0.592353 -2.35579e-19)
(0.139754 -0.602401 1.11991e-19)
(0.138159 -0.612354 1.15593e-19)
(0.136658 -0.622205 -1.10079e-19)
(0.135246 -0.631946 -8.69982e-22)
(0.13392 -0.641568 -1.11153e-19)
(0.132675 -0.651065 -6.8349e-22)
(0.131507 -0.660433 -3.872e-21)
(0.130413 -0.669664 1.04944e-19)
(0.129388 -0.678756 1.03403e-19)
(0.128429 -0.687704 -2.01036e-19)
(0.127533 -0.696506 9.85155e-20)
(0.126695 -0.705157 -9.74337e-20)
(0.125914 -0.713656 9.43465e-20)
(0.125185 -0.722002 -9.3465e-20)
(0.124505 -0.730193 -2.35029e-21)
(0.123873 -0.738227 8.83379e-20)
(0.123285 -0.746106 1.02013e-21)
(0.122739 -0.753828 -8.53517e-20)
(0.122231 -0.761394 8.24723e-20)
(0.121761 -0.768804 3.1806e-22)
(0.121325 -0.776059 3.10933e-22)
(0.120922 -0.78316 7.79297e-20)
(0.120549 -0.790108 -7.56698e-20)
(0.120204 -0.796905 0)
(0.210876 -0.371285 -4.06713e-20)
(0.20656 -0.381337 -3.96045e-21)
(0.202373 -0.391383 0)
(0.198324 -0.401452 9.27419e-20)
(0.194418 -0.411566 -8.88503e-20)
(0.19066 -0.42174 6.36732e-21)
(0.187055 -0.431984 6.73554e-21)
(0.183606 -0.442299 0)
(0.180312 -0.452685 0)
(0.177176 -0.463135 -3.7081e-21)
(0.174195 -0.47364 0)
(0.171367 -0.484189 0)
(0.16869 -0.49477 -3.89154e-21)
(0.166161 -0.505368 1.95278e-21)
(0.163775 -0.515969 -1.27418e-19)
(0.161528 -0.526559 1.21844e-19)
(0.159415 -0.537123 -1.24265e-19)
(0.157431 -0.547648 1.20822e-19)
(0.155571 -0.55812 1.90274e-21)
(0.15383 -0.568527 0)
(0.152202 -0.578857 -1.21171e-19)
(0.150682 -0.589099 -5.11576e-21)
(0.149265 -0.599243 -4.86716e-21)
(0.147946 -0.60928 1.15025e-19)
(0.146719 -0.619201 -1.14221e-19)
(0.145581 -0.628999 -3.3323e-21)
(0.144525 -0.638668 1.10646e-19)
(0.143549 -0.6482 -1.09256e-19)
(0.142646 -0.657592 1.04427e-19)
(0.141813 -0.666838 0)
(0.141045 -0.675935 1.02414e-19)
(0.14034 -0.684879 -1.00324e-19)
(0.139693 -0.693668 0)
(0.1391 -0.7023 7.4752e-22)
(0.138558 -0.710773 7.32075e-22)
(0.138065 -0.719086 7.17198e-22)
(0.137616 -0.727237 8.97344e-20)
(0.137209 -0.735228 -1.76905e-19)
(0.136841 -0.743057 8.65349e-20)
(0.13651 -0.750725 0)
(0.136214 -0.758234 0)
(0.135949 -0.765582 8.12103e-20)
(0.135713 -0.772773 -7.82639e-20)
(0.135506 -0.779807 0)
(0.223224 -0.344105 -4.22534e-20)
(0.218551 -0.353978 -6.8126e-20)
(0.214032 -0.363883 1.53132e-19)
(0.209676 -0.373852 -8.0263e-20)
(0.205491 -0.383909 -1.02115e-19)
(0.201484 -0.39407 9.42768e-20)
(0.197659 -0.404341 -3.45222e-21)
(0.194019 -0.414723 0)
(0.190564 -0.425213 -1.2306e-19)
(0.187293 -0.435801 2.46993e-19)
(0.184205 -0.446476 7.81792e-21)
(0.181296 -0.457223 -1.21947e-19)
(0.178562 -0.468025 -3.94161e-21)
(0.175997 -0.478867 -1.3031e-19)
(0.173597 -0.489731 1.24508e-19)
(0.171354 -0.5006 -1.29823e-19)
(0.169264 -0.511457 -4.92038e-21)
(0.167319 -0.522287 1.23607e-19)
(0.165513 -0.533073 -5.85117e-21)
(0.163839 -0.543803 0)
(0.162291 -0.554461 5.10076e-24)
(0.160862 -0.565036 1.89168e-21)
(0.159546 -0.575517 1.20937e-19)
(0.158336 -0.585892 2.94662e-21)
(0.157227 -0.596152 -2.31902e-19)
(0.156213 -0.60629 1.11088e-19)
(0.155289 -0.616297 -3.50947e-21)
(0.154448 -0.626166 0)
(0.153685 -0.635892 -2.19061e-19)
(0.152997 -0.645469 2.11154e-19)
(0.152377 -0.654893 0)
(0.151822 -0.664161 8.01748e-22)
(0.151328 -0.673269 2.02882e-19)
(0.150889 -0.682215 -1.96634e-19)
(0.150503 -0.690997 0)
(0.150166 -0.699613 -7.39999e-22)
(0.149873 -0.708063 7.2515e-22)
(0.149623 -0.716345 7.09523e-22)
(0.149413 -0.724461 -1.79609e-19)
(0.149238 -0.732409 1.73026e-19)
(0.149096 -0.740191 -6.65384e-22)
(0.148986 -0.747807 -1.68049e-19)
(0.148904 -0.755259 1.61997e-19)
(0.148848 -0.762548 0)
(0.228161 -0.324883 -3.84951e-21)
(0.22326 -0.334684 -4.65985e-21)
(0.218556 -0.3446 0)
(0.21406 -0.354653 -5.94974e-21)
(0.209778 -0.364858 -6.44726e-21)
(0.205715 -0.375219 0)
(0.201872 -0.385735 -1.21283e-19)
(0.198248 -0.396396 1.15545e-19)
(0.194842 -0.40719 0)
(0.19165 -0.418102 -2.60259e-19)
(0.188666 -0.429112 2.52147e-19)
(0.185884 -0.440203 4.04852e-21)
(0.183297 -0.451352 0)
(0.180897 -0.462541 0)
(0.178677 -0.47375 -4.0465e-21)
(0.176628 -0.484958 0)
(0.174742 -0.496148 2.62165e-19)
(0.17301 -0.507303 -5.11124e-19)
(0.171426 -0.518406 5.06654e-19)
(0.16998 -0.529442 -2.45001e-19)
(0.168665 -0.540398 0)
(0.167473 -0.55126 2.46221e-19)
(0.166397 -0.562017 -2.38519e-19)
(0.16543 -0.572659 0)
(0.164564 -0.583175 2.39086e-19)
(0.163794 -0.593558 -4.60047e-19)
(0.163113 -0.6038 2.23081e-19)
(0.162515 -0.613895 -2.25506e-19)
(0.161994 -0.623837 2.15732e-19)
(0.161545 -0.63362 -2.17433e-19)
(0.161164 -0.643242 2.09834e-19)
(0.160844 -0.652698 0)
(0.160582 -0.661986 2.03616e-19)
(0.160373 -0.671103 -1.98246e-19)
(0.160213 -0.680048 0)
(0.160099 -0.68882 -1.93799e-19)
(0.160026 -0.697417 1.87399e-19)
(0.159992 -0.705841 -7.18878e-22)
(0.159993 -0.71409 -1.81124e-19)
(0.160026 -0.722166 3.52483e-19)
(0.160089 -0.730069 -1.70849e-19)
(0.160178 -0.737801 1.70204e-19)
(0.160292 -0.745362 1.64266e-21)
(0.22473 -0.31379 -5.34063e-21)
(0.219904 -0.323913 1.83868e-22)
(0.215338 -0.33424 6.65102e-21)
(0.211035 -0.344771 0)
(0.206994 -0.3555 -2.52934e-19)
(0.203213 -0.366412 4.79945e-19)
(0.199687 -0.377492 1.83302e-20)
(0.196409 -0.388718 1.692e-20)
(0.193372 -0.400068 -2.64249e-19)
(0.190566 -0.411518 -4.08478e-21)
(0.187982 -0.423046 0)
(0.185611 -0.434626 -2.71125e-19)
(0.183442 -0.446238 -7.29417e-21)
(0.181464 -0.457858 2.63075e-19)
(0.179668 -0.469467 0)
(0.178043 -0.481045 1.54216e-23)
(0.176579 -0.492575 4.04422e-21)
(0.175267 -0.504039 -4.00722e-21)
(0.174097 -0.515423 0)
(0.173061 -0.526712 2.52598e-19)
(0.172149 -0.537893 -2.44788e-19)
(0.171353 -0.548957 0)
(0.170667 -0.559892 1.88277e-21)
(0.170081 -0.570689 2.40096e-19)
(0.169588 -0.58134 -2.27746e-19)
(0.169183 -0.591837 0)
(0.168858 -0.602176 2.28259e-19)
(0.168608 -0.612349 -2.20287e-19)
(0.168426 -0.622354 1.70564e-21)
(0.168308 -0.632186 0)
(0.168248 -0.641842 1.64314e-21)
(0.168241 -0.651319 0)
(0.168283 -0.660617 -2.03781e-19)
(0.168371 -0.669734 3.96773e-19)
(0.168498 -0.678668 -3.88834e-19)
(0.168664 -0.687421 1.90794e-19)
(0.168862 -0.695991 0)
(0.169091 -0.704379 7.13118e-22)
(0.169348 -0.712587 -1.79742e-19)
(0.169629 -0.720615 3.49231e-19)
(0.169933 -0.728465 -1.72798e-19)
(0.222784 -0.291897 -2.01949e-19)
(0.217951 -0.302442 1.91301e-19)
(0.213431 -0.313238 0)
(0.209221 -0.324273 7.47316e-21)
(0.205314 -0.335528 1.23635e-22)
(0.201703 -0.346981 0)
(0.198378 -0.358605 0)
(0.195327 -0.370374 1.64865e-20)
(0.192538 -0.38226 4.18779e-21)
(0.19 -0.394237 4.18328e-21)
(0.187698 -0.406277 0)
(0.185622 -0.418356 -2.76045e-19)
(0.183756 -0.43045 2.5996e-19)
(0.182091 -0.442535 2.73814e-19)
(0.180612 -0.454591 -2.58303e-19)
(0.179309 -0.466598 -4.15277e-21)
(0.17817 -0.478538 4.11651e-21)
(0.177184 -0.490395 0)
(0.176341 -0.502154 4.03061e-21)
(0.175631 -0.513801 2.57945e-19)
(0.175043 -0.525324 -2.48319e-19)
(0.174571 -0.536712 -2.54757e-19)
(0.174204 -0.547956 2.437e-19)
(0.173934 -0.559046 -3.76298e-21)
(0.173754 -0.569976 0)
(0.173658 -0.580739 3.64493e-21)
(0.173637 -0.591329 2.33238e-19)
(0.173687 -0.601743 -2.2532e-19)
(0.1738 -0.611975 2.23302e-19)
(0.173972 -0.622023 -4.35043e-19)
(0.174196 -0.631884 2.11945e-19)
(0.174469 -0.641557 -2.10975e-19)
(0.174784 -0.651039 2.04111e-19)
(0.175139 -0.66033 -7.86742e-22)
(0.175529 -0.669429 6.62207e-25)
(0.17595 -0.678338 7.56268e-22)
(0.1764 -0.687055 0)
(0.176873 -0.695583 -7.2553e-22)
(0.177369 -0.703923 0)
(0.177883 -0.712075 7.0536e-22)
(0.212762 -0.280948 0)
(0.208437 -0.292387 7.37616e-21)
(0.204462 -0.304077 7.83096e-21)
(0.200824 -0.315989 0)
(0.197508 -0.328092 -2.71901e-19)
(0.194501 -0.340357 2.50678e-19)
(0.191786 -0.35275 -8.42671e-21)
(0.189349 -0.365243 -4.28795e-21)
(0.187172 -0.377806 -2.81401e-19)
(0.185242 -0.390411 -1.23439e-20)
(0.183542 -0.403032 2.73801e-19)
(0.182058 -0.415644 0)
(0.180776 -0.428226 -2.7825e-19)
(0.179682 -0.440756 -9.16257e-21)
(0.178763 -0.453215 5.43456e-19)
(0.178007 -0.465586 -2.63293e-19)
(0.177402 -0.477852 -2.68303e-19)
(0.176936 -0.49 5.1935e-19)
(0.176599 -0.502018 -2.59445e-19)
(0.176381 -0.513893 -1.99105e-21)
(0.176274 -0.525616 -1.96894e-21)
(0.176267 -0.537178 -2.47067e-19)
(0.176352 -0.54857 -4.88197e-21)
(0.176521 -0.559786 2.36742e-19)
(0.176766 -0.57082 -1.85232e-21)
(0.177081 -0.581666 0)
(0.17746 -0.592322 -1.79105e-21)
(0.177895 -0.602783 0)
(0.178381 -0.613046 0)
(0.178913 -0.623111 0)
(0.179486 -0.632975 1.66598e-21)
(0.180095 -0.642638 0)
(0.180737 -0.6521 -8.00842e-22)
(0.181407 -0.661361 7.1501e-25)
(0.182101 -0.670421 -7.70165e-22)
(0.182816 -0.679281 1.95629e-19)
(0.183549 -0.687943 -1.88125e-19)
(0.184297 -0.696409 1.88801e-19)
(0.193853 -0.297574 2.75266e-19)
(0.190963 -0.310402 -2.53889e-19)
(0.188395 -0.323367 8.63709e-21)
(0.186128 -0.336435 0)
(0.184144 -0.349574 -2.86632e-19)
(0.182425 -0.362755 2.74288e-19)
(0.180953 -0.37595 -2.54287e-23)
(0.179712 -0.389133 4.37332e-21)
(0.178685 -0.40228 0)
(0.177857 -0.415371 -4.34062e-21)
(0.177213 -0.428384 -4.32822e-21)
(0.176739 -0.441301 -2.78556e-19)
(0.176422 -0.454108 2.68138e-19)
(0.17625 -0.466788 4.2118e-21)
(0.176211 -0.479328 7.08301e-24)
(0.176294 -0.491715 2.70468e-19)
(0.176487 -0.50394 -2.57005e-19)
(0.176782 -0.515993 -2.00446e-21)
(0.177169 -0.527867 -1.97502e-21)
(0.177639 -0.539553 0)
(0.178186 -0.551047 2.47652e-19)
(0.1788 -0.562342 -2.39475e-19)
(0.179475 -0.573436 2.39601e-19)
(0.180205 -0.584324 -2.33668e-19)
(0.180984 -0.595005 -2.31383e-19)
(0.181805 -0.605475 2.25779e-19)
(0.182664 -0.615735 -1.73045e-21)
(0.183556 -0.625782 -2.1721e-19)
(0.184475 -0.635618 2.10419e-19)
(0.185419 -0.645241 -2.09767e-19)
(0.186383 -0.654654 2.05704e-19)
(0.187363 -0.663857 2.01529e-19)
(0.188356 -0.672851 -1.96917e-19)
(0.18936 -0.681638 -7.65062e-22)
(0.187526 -0.267456 0)
(0.184837 -0.280906 -1.04958e-22)
(0.182494 -0.294493 2.87582e-19)
(0.180474 -0.308183 -2.83542e-19)
(0.178754 -0.321941 0)
(0.177316 -0.335737 -8.91645e-21)
(0.176138 -0.349541 4.44374e-21)
(0.175203 -0.363327 2.92819e-19)
(0.174491 -0.37707 1.06906e-20)
(0.173985 -0.390748 -2.76069e-19)
(0.173671 -0.404339 -2.8423e-19)
(0.173531 -0.417826 2.77863e-19)
(0.173553 -0.43119 2.83999e-19)
(0.173721 -0.444418 -2.69419e-19)
(0.174024 -0.457495 2.82554e-19)
(0.17445 -0.47041 -2.72776e-19)
(0.174988 -0.483152 -4.19483e-21)
(0.175626 -0.495712 2.68169e-19)
(0.176356 -0.50808 -5.17549e-19)
(0.177167 -0.520251 -7.01043e-21)
(0.178052 -0.532218 2.52192e-19)
(0.179002 -0.543975 -2.52913e-19)
(0.18001 -0.555519 2.46719e-19)
(0.181069 -0.566846 -2.42915e-19)
(0.182173 -0.577954 4.77776e-19)
(0.183314 -0.58884 -2.33152e-19)
(0.184489 -0.599503 0)
(0.185692 -0.609944 -1.77027e-21)
(0.186917 -0.620161 1.73801e-21)
(0.188162 -0.630155 -3.41263e-21)
(0.189421 -0.639927 -2.16346e-19)
(0.190691 -0.649477 2.10642e-19)
(0.191969 -0.658809 1.60967e-21)
(0.193251 -0.667924 0)
(0.178752 -0.238126 -2.61288e-19)
(0.176354 -0.252236 2.78969e-19)
(0.174322 -0.26648 -5.75752e-19)
(0.172628 -0.280822 2.8839e-19)
(0.17125 -0.295226 -9.03577e-21)
(0.170164 -0.309661 -2.90196e-19)
(0.169349 -0.324097 2.77932e-19)
(0.168783 -0.338505 2.95484e-19)
(0.168448 -0.352861 -2.92967e-19)
(0.168324 -0.367142 2.93926e-19)
(0.168394 -0.381327 -2.91912e-19)
(0.168643 -0.395397 0)
(0.169053 -0.409334 -4.50475e-21)
(0.169612 -0.423124 2.8593e-19)
(0.170305 -0.436752 -5.6795e-19)
(0.17112 -0.450207 2.77796e-19)
(0.172045 -0.463476 6.22671e-24)
(0.173068 -0.476552 0)
(0.17418 -0.489424 -8.49017e-21)
(0.17537 -0.502087 2.72908e-19)
(0.17663 -0.514533 -5.29123e-19)
(0.17795 -0.526759 2.58519e-19)
(0.179324 -0.538758 0)
(0.180744 -0.550529 0)
(0.182202 -0.562069 -2.50953e-19)
(0.183694 -0.573375 4.88101e-19)
(0.185213 -0.584446 -2.39242e-19)
(0.186753 -0.595283 2.38335e-19)
(0.18831 -0.605884 -2.31138e-19)
(0.18988 -0.616251 -1.06952e-24)
(0.191458 -0.626384 -2.25518e-19)
(0.193041 -0.636286 2.17086e-19)
(0.194624 -0.645956 -8.42683e-22)
(0.196206 -0.655399 -2.15784e-19)
(0.167833 -0.209961 8.51173e-21)
(0.165819 -0.22475 0)
(0.164184 -0.239667 9.05492e-21)
(0.162899 -0.254674 0)
(0.161938 -0.269735 3.13535e-19)
(0.161276 -0.284817 -3.01033e-19)
(0.160891 -0.29989 0)
(0.160759 -0.314926 9.40114e-21)
(0.16086 -0.3299 3.12674e-19)
(0.161174 -0.344788 -2.91708e-19)
(0.161683 -0.359569 -4.69554e-21)
(0.16237 -0.374224 4.67819e-21)
(0.163218 -0.388736 3.07424e-19)
(0.164213 -0.403089 -5.92804e-19)
(0.165339 -0.417269 2.90296e-19)
(0.166585 -0.431264 3.04301e-19)
(0.167936 -0.445062 -2.80925e-19)
(0.169382 -0.458654 -2.8893e-19)
(0.170911 -0.472031 5.73978e-19)
(0.172514 -0.485187 -2.76431e-19)
(0.17418 -0.498114 0)
(0.175903 -0.510808 0)
(0.177672 -0.523264 0)
(0.17948 -0.535479 0)
(0.181322 -0.54745 2.03352e-21)
(0.183189 -0.559176 0)
(0.185077 -0.570656 -1.96987e-21)
(0.186979 -0.581888 2.51543e-19)
(0.188892 -0.592874 -2.42191e-19)
(0.190809 -0.603613 -8.16901e-25)
(0.192727 -0.614107 -2.36587e-19)
(0.194642 -0.624357 2.29648e-19)
(0.196551 -0.634366 1.77111e-21)
(0.198451 -0.644135 0)
(0.153604 -0.198746 2.75969e-19)
(0.152447 -0.214332 -3.02722e-19)
(0.151645 -0.229999 5.97359e-19)
(0.151172 -0.24571 -2.85376e-19)
(0.151 -0.261432 9.61009e-21)
(0.151105 -0.277135 0)
(0.151464 -0.292791 -6.09984e-23)
(0.152055 -0.308374 -9.69506e-21)
(0.152858 -0.323861 3.17068e-19)
(0.153853 -0.339231 -2.9602e-19)
(0.155024 -0.354464 -1.80767e-23)
(0.156353 -0.369543 4.82053e-21)
(0.157823 -0.384452 0)
(0.159422 -0.399178 3.09461e-19)
(0.161133 -0.413707 -3.04076e-19)
(0.162946 -0.428027 3.04077e-19)
(0.164847 -0.442131 -5.95409e-19)
(0.166826 -0.456007 2.86937e-19)
(0.168872 -0.46965 4.55032e-21)
(0.170975 -0.483053 0)
(0.173126 -0.496211 0)
(0.175317 -0.509119 -2.8301e-19)
(0.17754 -0.521774 2.74506e-19)
(0.179788 -0.534173 -2.13133e-21)
(0.182054 -0.546315 0)
(0.184333 -0.558199 2.06694e-21)
(0.186618 -0.569823 -2.03391e-21)
(0.188905 -0.581189 0)
(0.191189 -0.592296 2.53308e-19)
(0.193466 -0.603146 -4.92891e-19)
(0.195731 -0.613742 2.41667e-19)
(0.197982 -0.624084 2.38035e-19)
(0.200215 -0.634175 -2.34522e-19)
(0.140134 -0.174449 2.92802e-19)
(0.139526 -0.190681 -2.8885e-19)
(0.139273 -0.206984 9.48561e-21)
(0.139346 -0.223323 3.18895e-19)
(0.139719 -0.239663 -2.96655e-19)
(0.140367 -0.255975 -9.88434e-21)
(0.141265 -0.27223 3.16596e-19)
(0.142391 -0.288403 2.29403e-20)
(0.143725 -0.304471 -3.15941e-19)
(0.145248 -0.320411 -1.50877e-20)
(0.146939 -0.336206 -1.00548e-20)
(0.148783 -0.351837 -3.30824e-19)
(0.150764 -0.367288 6.39273e-19)
(0.152865 -0.382544 -6.35925e-19)
(0.155074 -0.397594 3.07011e-19)
(0.157376 -0.412425 -3.17329e-19)
(0.15976 -0.427028 3.07457e-19)
(0.162214 -0.441393 4.80983e-21)
(0.164727 -0.455513 -3.08031e-19)
(0.167289 -0.469382 2.98739e-19)
(0.169891 -0.482995 4.65571e-21)
(0.172525 -0.496346 0)
(0.175183 -0.509433 0)
(0.177857 -0.522252 -2.88876e-19)
(0.180541 -0.534802 2.80469e-19)
(0.183228 -0.547082 2.78188e-19)
(0.185913 -0.559091 -2.72279e-19)
(0.188591 -0.57083 0)
(0.191256 -0.582299 4.1466e-21)
(0.193906 -0.593499 -2.62472e-19)
(0.196535 -0.604433 2.57001e-19)
(0.199141 -0.615102 2.53269e-19)
(0.20172 -0.625509 -2.51609e-19)
(0.125858 -0.151996 2.94402e-19)
(0.125853 -0.168835 0)
(0.126199 -0.185738 -9.82648e-21)
(0.126866 -0.202669 -9.94935e-23)
(0.127827 -0.219594 -1.01558e-20)
(0.129056 -0.236482 3.45491e-19)
(0.130531 -0.253306 -6.6063e-19)
(0.132227 -0.270041 3.35981e-19)
(0.134124 -0.286662 0)
(0.136203 -0.303148 3.40446e-19)
(0.138444 -0.31948 -3.13412e-19)
(0.140831 -0.33564 0)
(0.143346 -0.351611 3.43315e-19)
(0.145974 -0.367379 -6.63907e-19)
(0.148702 -0.38293 6.65611e-19)
(0.151515 -0.398254 7.91993e-21)
(0.154401 -0.41334 -6.51444e-19)
(0.157349 -0.428178 3.1953e-19)
(0.160347 -0.442762 -7.39324e-24)
(0.163386 -0.457084 3.19897e-19)
(0.166456 -0.471138 -3.20337e-19)
(0.169548 -0.484921 0)
(0.172655 -0.498427 0)
(0.175769 -0.511656 -3.06782e-19)
(0.178883 -0.524604 -4.45993e-21)
(0.181991 -0.537271 2.93947e-19)
(0.185088 -0.549656 0)
(0.188168 -0.561758 0)
(0.191226 -0.57358 -2.19158e-21)
(0.194259 -0.585122 -2.15583e-21)
(0.197261 -0.596386 -4.23928e-21)
(0.200231 -0.607374 2.70181e-19)
(0.203165 -0.618089 -5.33554e-19)
(0.111857 -0.148822 3.01606e-19)
(0.112834 -0.166278 3.31341e-19)
(0.114125 -0.183757 -3.28893e-19)
(0.115703 -0.201226 -3.32359e-19)
(0.117542 -0.218653 3.19762e-19)
(0.119618 -0.23601 0)
(0.121908 -0.253271 -1.08154e-20)
(0.12439 -0.270412 3.53727e-19)
(0.127046 -0.287413 2.34203e-20)
(0.129855 -0.304253 -7.08853e-19)
(0.132801 -0.320913 3.38102e-19)
(0.135867 -0.337378 3.48192e-19)
(0.139037 -0.353633 -3.4277e-19)
(0.142297 -0.369663 0)
(0.145633 -0.385458 -3.48549e-19)
(0.149034 -0.401007 6.84338e-19)
(0.152486 -0.4163 -3.41277e-19)
(0.15598 -0.431329 -5.26761e-21)
(0.159506 -0.446087 0)
(0.163052 -0.460568 5.16628e-21)
(0.166612 -0.474767 0)
(0.170177 -0.488681 0)
(0.173738 -0.502306 -3.19205e-19)
(0.177291 -0.515641 3.15142e-19)
(0.180828 -0.528683 0)
(0.184343 -0.541432 0)
(0.187831 -0.553889 -2.35774e-21)
(0.191289 -0.566054 -3.01394e-19)
(0.19471 -0.577927 2.90752e-19)
(0.198092 -0.589512 4.38201e-25)
(0.201431 -0.60081 -2.86596e-19)
(0.204725 -0.611824 2.82701e-19)
(0.0979299 -0.130584 3.32707e-19)
(0.0995552 -0.148545 -3.09569e-19)
(0.101487 -0.166529 3.3829e-19)
(0.103698 -0.1845 -3.5775e-19)
(0.106161 -0.202424 -3.48811e-19)
(0.108852 -0.220274 3.36399e-19)
(0.111747 -0.238022 0)
(0.114826 -0.255647 0)
(0.118068 -0.273126 -3.70442e-19)
(0.121453 -0.290439 3.58805e-19)
(0.124965 -0.307567 1.71248e-20)
(0.128587 -0.324496 5.70135e-21)
(0.132304 -0.341208 5.69353e-21)
(0.136101 -0.357691 -3.68689e-19)
(0.139965 -0.373932 -8.95615e-21)
(0.143883 -0.38992 3.56286e-19)
(0.147844 -0.405646 3.62133e-19)
(0.151836 -0.4211 -3.51857e-19)
(0.155851 -0.436276 0)
(0.159877 -0.451168 0)
(0.163906 -0.465769 -3.48776e-19)
(0.167931 -0.480075 3.44371e-19)
(0.171943 -0.494084 3.40593e-19)
(0.175936 -0.507792 -6.70004e-19)
(0.179904 -0.521198 3.26955e-19)
(0.18384 -0.534301 -3.27068e-19)
(0.187739 -0.547102 6.42879e-19)
(0.191597 -0.559599 -3.10987e-19)
(0.19541 -0.571796 0)
(0.199173 -0.583692 3.0976e-19)
(0.202883 -0.595292 -6.01194e-19)
(0.206537 -0.606597 2.95865e-19)
(0.0844353 -0.113977 -3.18339e-19)
(0.0867044 -0.132398 -1.07374e-20)
(0.0892761 -0.150848 1.10209e-20)
(0.0921233 -0.169283 3.68713e-19)
(0.0952162 -0.187667 -3.44607e-19)
(0.0985275 -0.205972 2.31675e-20)
(0.102031 -0.224172 -3.83123e-19)
(0.105706 -0.242242 -1.50919e-20)
(0.109531 -0.26016 3.62169e-19)
(0.113488 -0.277909 1.19402e-20)
(0.11756 -0.295469 -1.2026e-20)
(0.121732 -0.312826 -6.01894e-21)
(0.125989 -0.329964 -6.01569e-21)
(0.130316 -0.34687 -5.98616e-21)
(0.1347 -0.36353 0)
(0.13913 -0.379933 0)
(0.143593 -0.396069 -5.90648e-21)
(0.148079 -0.411929 0)
(0.152577 -0.427505 -3.82467e-19)
(0.157079 -0.44279 -1.27323e-20)
(0.161575 -0.457777 7.26698e-19)
(0.166056 -0.472462 -7.30549e-19)
(0.170516 -0.486841 3.55552e-19)
(0.174947 -0.500912 -5.53153e-21)
(0.179343 -0.514671 -2.73143e-21)
(0.183698 -0.528119 0)
(0.188007 -0.541253 3.42715e-19)
(0.192264 -0.554075 -6.71141e-19)
(0.196466 -0.566586 3.28561e-19)
(0.200609 -0.578786 0)
(0.204689 -0.590679 3.24463e-19)
(0.208703 -0.602267 -3.15259e-19)
(0.0716663 -0.0987714 -3.55618e-19)
(0.0745563 -0.117614 7.00215e-19)
(0.0777502 -0.136533 -3.55023e-19)
(0.0812136 -0.155442 1.17696e-20)
(0.0849123 -0.174264 -4.03538e-19)
(0.0888214 -0.192974 -1.85221e-20)
(0.0929201 -0.21157 7.98024e-19)
(0.0971827 -0.230032 -4.01489e-19)
(0.101584 -0.248341 4.08059e-19)
(0.106102 -0.26648 -4.08528e-19)
(0.110723 -0.284433 0)
(0.11543 -0.302182 0)
(0.120213 -0.319713 -6.3256e-21)
(0.125057 -0.337012 4.16826e-19)
(0.129949 -0.354065 -3.98932e-19)
(0.134879 -0.37086 -6.28134e-21)
(0.139834 -0.387387 -4.05058e-19)
(0.144804 -0.403634 3.93986e-19)
(0.149778 -0.419594 -3.87061e-19)
(0.154747 -0.435258 3.94759e-19)
(0.159702 -0.450619 3.98497e-19)
(0.164635 -0.465671 6.57757e-21)
(0.169537 -0.480412 -3.78088e-19)
(0.174402 -0.494835 5.89295e-21)
(0.179222 -0.508939 -3.72257e-19)
(0.183993 -0.522723 3.62302e-19)
(0.188707 -0.536185 -2.83335e-21)
(0.193361 -0.549324 0)
(0.19795 -0.562143 -3.54742e-19)
(0.20247 -0.574641 -4.01813e-21)
(0.206917 -0.586821 -6.45068e-21)
(0.211289 -0.598686 3.39294e-19)
(0.0597371 -0.084775 3.83154e-19)
(0.0632176 -0.103907 -3.48971e-19)
(0.0669962 -0.123185 1.20423e-20)
(0.0710476 -0.142533 1.23876e-20)
(0.0753421 -0.161863 1.26514e-20)
(0.0798451 -0.181091 4.09507e-19)
(0.0845219 -0.200149 -8.46044e-19)
(0.0893403 -0.218995 4.23981e-19)
(0.09428 -0.237629 1.32269e-20)
(0.0993304 -0.256082 0)
(0.104478 -0.274361 -4.47077e-19)
(0.109707 -0.292449 -1.32152e-20)
(0.115 -0.310329 4.2913e-19)
(0.120348 -0.327984 0)
(0.125737 -0.345399 -4.33414e-19)
(0.131156 -0.362561 4.28327e-19)
(0.136594 -0.379455 1.32838e-20)
(0.14204 -0.396071 4.27467e-19)
(0.147484 -0.412397 1.92728e-21)
(0.152914 -0.428426 -4.06858e-19)
(0.158324 -0.444148 0)
(0.163702 -0.459558 -4.13835e-19)
(0.169043 -0.474649 -6.6374e-21)
(0.174337 -0.489417 4.05132e-19)
(0.179578 -0.503859 -3.9413e-19)
(0.184761 -0.517971 3.92892e-19)
(0.189878 -0.531754 3.02936e-21)
(0.194926 -0.545205 0)
(0.199898 -0.558326 0)
(0.204792 -0.571116 2.89931e-21)
(0.209604 -0.583579 2.85471e-21)
(0.214331 -0.595715 0)
(0.0487646 -0.072073 3.99084e-19)
(0.05281 -0.0913333 -3.65059e-19)
(0.0571453 -0.11081 4.07847e-19)
(0.0617501 -0.130433 -4.21884e-19)
(0.0665968 -0.150116 -1.11739e-22)
(0.071653 -0.169765 0)
(0.0768846 -0.189293 0)
(0.0822585 -0.208629 4.57112e-19)
(0.0877441 -0.22772 -9.12482e-19)
(0.0933165 -0.246547 4.42092e-19)
(0.0989629 -0.265127 1.41397e-20)
(0.10468 -0.283505 0)
(0.110461 -0.30169 -4.60783e-19)
(0.116291 -0.319665 -1.24772e-20)
(0.122159 -0.337411 9.08753e-19)
(0.128052 -0.354911 -4.55125e-19)
(0.133959 -0.372149 4.57314e-19)
(0.139869 -0.389112 -4.38353e-19)
(0.14577 -0.405788 0)
(0.151653 -0.422166 -1.39048e-20)
(0.157508 -0.438237 6.89403e-21)
(0.163325 -0.453991 4.41783e-19)
(0.169096 -0.469423 -4.23596e-19)
(0.174813 -0.484526 -6.71724e-21)
(0.180469 -0.499297 -1.32771e-20)
(0.186057 -0.513731 -4.22878e-19)
(0.191572 -0.527828 4.1189e-19)
(0.197007 -0.541584 4.11852e-19)
(0.202359 -0.555001 8.09293e-21)
(0.207622 -0.568078 -3.98479e-19)
(0.212794 -0.580817 -3.99972e-19)
(0.21787 -0.59322 -4.1714e-21)
(0.0389326 -0.0605728 -2.25683e-19)
(0.0435119 -0.0798385 1.83708e-19)
(0.0483739 -0.0993893 2.20587e-19)
(0.0535042 -0.119169 -2.15199e-19)
(0.058878 -0.139088 4.54958e-19)
(0.0644621 -0.159043 -4.54928e-19)
(0.0702194 -0.178932 0)
(0.0761142 -0.198667 1.48754e-20)
(0.0821139 -0.21818 4.89045e-19)
(0.0881915 -0.237425 -4.71538e-19)
(0.0943257 -0.256384 0)
(0.100507 -0.275072 1.50019e-20)
(0.106739 -0.293542 1.50424e-20)
(0.113021 -0.311817 0)
(0.11934 -0.329874 0)
(0.125682 -0.347695 7.55954e-21)
(0.132036 -0.365262 -1.5062e-20)
(0.138389 -0.382559 4.78022e-19)
(0.14473 -0.399573 -4.65692e-19)
(0.151047 -0.416289 1.70252e-23)
(0.157331 -0.432698 -1.4753e-20)
(0.163572 -0.448789 0)
(0.169761 -0.464555 4.60927e-19)
(0.175888 -0.479987 -4.56253e-19)
(0.181948 -0.495081 7.11599e-21)
(0.187932 -0.509833 -3.51207e-21)
(0.193834 -0.524238 0)
(0.199648 -0.538296 -3.42523e-21)
(0.205369 -0.552005 -4.54416e-24)
(0.210993 -0.565365 -4.25778e-19)
(0.216516 -0.578377 4.17868e-19)
(0.221934 -0.591044 0)
(0.0304122 -0.0501659 -2.49523e-20)
(0.0354783 -0.0693299 2.19869e-19)
(0.0408177 -0.0888141 -2.29319e-19)
(0.0464222 -0.108607 2.54163e-19)
(0.0522732 -0.128635 -2.19053e-19)
(0.0583404 -0.148789 -2.53209e-19)
(0.0645854 -0.168952 2.45602e-19)
(0.0709682 -0.189014 -2.91572e-19)
(0.077451 -0.208884 2.82767e-19)
(0.0840012 -0.228499 1.59868e-20)
(0.090595 -0.24782 1.59897e-20)
(0.0972198 -0.266847 -3.20532e-20)
(0.103878 -0.285618 -1.6083e-20)
(0.110579 -0.304182 -5.22034e-19)
(0.117318 -0.322543 1.03913e-18)
(0.124081 -0.340677 -5.17166e-19)
(0.130856 -0.358565 -5.12697e-19)
(0.137628 -0.37619 -1.12852e-20)
(0.144386 -0.393535 4.97985e-19)
(0.151118 -0.410586 7.95742e-21)
(0.157813 -0.427329 7.90725e-21)
(0.16446 -0.443754 0)
(0.17105 -0.45985 -7.76863e-21)
(0.177573 -0.475609 0)
(0.184021 -0.491025 -7.62008e-21)
(0.190388 -0.506092 4.97524e-19)
(0.196665 -0.520806 -9.54113e-19)
(0.202846 -0.535165 4.67992e-19)
(0.208926 -0.549165 4.6399e-19)
(0.2149 -0.562808 -4.5907e-19)
(0.220764 -0.576093 3.52893e-21)
(0.226514 -0.589021 -3.51936e-21)
(0.0232376 -0.0406171 2.2706e-19)
(0.0287623 -0.0597054 0)
(0.0345241 -0.079034 -2.39714e-19)