/*--------------------------------*- C++ -*----------------------------------*\
  =========                 |
  \\      /  F ield         | OpenFOAM: The Open Source CFD Toolbox
   \\    /   O peration     | Website:  https://openfoam.org
    \\  /    A nd           | Version:  10
     \\/     M anipulation  |
\*---------------------------------------------------------------------------*/
FoamFile
{
    format      ascii;
    class       volScalarField;
    location    "36000";
    object      yPlus;
}
// * * * * * * * * * * * * * * * * * * * * * * * * * * * * * * * * * * * * * //

dimensions      [0 0 0 0 0 0 0];

internalField   uniform 0;

boundaryField
{
    right
    {
        type            cyclic;
    }
    left
    {
        type            cyclic;
    }
    outerWall
    {
        type            calculated;
        value           nonuniform List<scalar> 0();
    }
    stirrerWall
    {
        type            calculated;
        value           nonuniform List<scalar> 
98
(
1.53234
1.46262
1.39937
1.34267
1.29264
1.24949
1.21352
1.1852
1.16546
1.16549
1.20159
1.25666
1.33186
1.43162
1.55985
1.72684
1.99862
2.57767
4.63733
10.2332
16.3896
11.3303
8.72728
9.48531
10.0834
10.2611
10.189
9.94074
9.63401
9.38415
9.17994
9.01579
8.89076
8.79719
8.73092
8.68651
8.66145
8.65429
8.66381
8.68898
8.72897
8.78317
8.85118
8.9327
9.02787
9.13679
9.25966
9.39709
9.54978
9.71847
9.9041
10.1078
10.331
10.5749
10.8412
11.1278
11.4219
11.5295
11.4759
11.4685
16.4251
16.6343
16.8467
17.0628
17.2829
17.5073
17.7362
17.9701
18.2092
18.4539
18.7048
18.9623
19.227
19.4997
19.7807
20.0705
20.3704
20.6828
21.0097
21.3513
21.7079
22.0719
22.4581
22.8663
23.3196
23.7867
24.2758
24.8102
25.3954
26.026
26.6877
27.4109
28.2482
29.2438
30.4118
31.6443
32.9822
34.7859
)
;
    }
    top
    {
        type            empty;
    }
    bottom
    {
        type            empty;
    }
    procBoundary0to1
    {
        type            processor;
        value           uniform 0;
    }
    procBoundary0to3
    {
        type            processor;
        value           uniform 0;
    }
}


// ************************************************************************* //
