/*--------------------------------*- C++ -*----------------------------------*\
  =========                 |
  \\      /  F ield         | OpenFOAM: The Open Source CFD Toolbox
   \\    /   O peration     | Website:  https://openfoam.org
    \\  /    A nd           | Version:  10
     \\/     M anipulation  |
\*---------------------------------------------------------------------------*/
FoamFile
{
    format      ascii;
    class       volScalarField;
    location    "13000";
    object      Co;
}
// * * * * * * * * * * * * * * * * * * * * * * * * * * * * * * * * * * * * * //

dimensions      [0 0 0 0 0 0 0];

internalField   nonuniform List<scalar> 
17922
(
1926.15
1910.91
1895.7
1880.52
1865.35
1850.17
1834.96
1819.73
1804.47
1789.17
1773.83
1758.44
1743
1727.5
1711.93
1696.28
1680.55
1664.74
1648.82
1632.81
1616.68
1600.42
1584.04
1567.51
1550.84
1534
1517
1499.83
1482.64
1465.72
1449.13
1432.84
1416.85
1401.14
1385.71
1370.54
1355.63
1340.96
1326.53
1312.32
1298.34
1284.55
1270.97
1257.57
1244.35
1231.29
1218.4
1205.65
1193.05
1180.58
1168.25
1156.04
1143.96
1132
1120.16
1108.44
1096.84
1085.36
1073.99
1062.74
1051.6
1040.58
1029.68
1018.9
1008.23
997.677
987.239
976.918
966.711
956.619
946.642
936.778
927.029
917.392
907.868
898.456
889.153
879.958
870.869
861.884
852.999
844.213
835.524
826.93
818.431
810.029
801.724
793.515
785.404
777.39
769.48
761.69
754.052
1870.76
1855.96
1841.2
1826.47
1811.73
1796.98
1782.21
1767.42
1752.59
1737.73
1722.83
1707.88
1692.88
1677.82
1662.69
1647.5
1632.22
1616.86
1601.4
1585.84
1570.17
1554.38
1538.46
1522.41
1506.22
1489.87
1473.36
1456.68
1439.99
1423.55
1407.44
1391.62
1376.09
1360.83
1345.84
1331.11
1316.63
1302.38
1288.37
1274.57
1260.99
1247.6
1234.41
1221.4
1208.56
1195.89
1183.37
1170.99
1158.76
1146.66
1134.68
1122.84
1111.11
1099.5
1088.01
1076.64
1065.38
1054.23
1043.2
1032.28
1021.47
1010.78
1000.21
989.741
979.389
969.15
959.023
949.009
939.106
929.315
919.636
910.067
900.609
891.262
882.023
872.893
863.869
854.951
846.136
837.422
828.805
820.285
811.86
803.527
795.289
787.144
779.094
771.139
763.278
755.514
747.852
740.31
732.919
1816.95
1802.6
1788.28
1773.98
1759.66
1745.33
1730.98
1716.61
1702.21
1687.77
1673.29
1658.77
1644.2
1629.57
1614.88
1600.11
1585.27
1570.35
1555.33
1540.22
1525
1509.66
1494.2
1478.61
1462.88
1447
1430.97
1414.77
1398.57
1382.6
1366.95
1351.59
1336.5
1321.68
1307.12
1292.81
1278.75
1264.91
1251.3
1237.9
1224.71
1211.71
1198.9
1186.27
1173.8
1161.49
1149.34
1137.32
1125.45
1113.7
1102.08
1090.58
1079.19
1067.93
1056.78
1045.74
1034.81
1023.99
1013.29
1002.69
992.205
981.831
971.566
961.412
951.368
941.433
931.607
921.891
912.284
902.785
893.394
884.111
874.936
865.868
856.907
848.05
839.297
830.647
822.098
813.646
805.29
797.028
788.858
780.779
772.792
764.897
757.095
749.385
741.769
734.246
726.826
719.523
712.372
1764.7
1750.78
1736.89
1722.99
1709.08
1695.16
1681.22
1667.26
1653.27
1639.25
1625.18
1611.08
1596.92
1582.71
1568.44
1554.09
1539.68
1525.18
1510.6
1495.91
1481.13
1466.23
1451.21
1436.07
1420.79
1405.37
1389.8
1374.07
1358.33
1342.83
1327.62
1312.7
1298.05
1283.66
1269.51
1255.62
1241.95
1228.51
1215.29
1202.28
1189.47
1176.85
1164.41
1152.14
1140.03
1128.08
1116.28
1104.62
1093.09
1081.68
1070.4
1059.24
1048.19
1037.26
1026.43
1015.72
1005.11
994.614
984.224
973.942
963.767
953.7
943.74
933.887
924.141
914.501
904.967
895.54
886.219
877.003
867.893
858.887
849.987
841.19
832.496
823.905
815.416
807.026
798.733
790.536
782.432
774.42
766.498
758.665
750.922
743.269
735.707
728.235
720.854
713.567
706.38
699.311
692.393
1713.97
1700.46
1686.97
1673.47
1659.96
1646.44
1632.9
1619.33
1605.74
1592.12
1578.46
1564.75
1551
1537.2
1523.33
1509.4
1495.39
1481.31
1467.14
1452.88
1438.52
1424.05
1409.46
1394.75
1379.91
1364.93
1349.81
1334.53
1319.25
1304.19
1289.43
1274.93
1260.7
1246.72
1232.98
1219.48
1206.21
1193.16
1180.32
1167.68
1155.24
1142.98
1130.9
1118.99
1107.24
1095.63
1084.17
1072.85
1061.65
1050.58
1039.63
1028.8
1018.07
1007.46
996.953
986.553
976.26
966.072
955.989
946.011
936.137
926.368
916.703
907.141
897.684
888.331
879.081
869.934
860.89
851.949
843.11
834.374
825.739
817.205
808.772
800.438
792.203
784.065
776.022
768.072
760.212
752.442
744.761
737.166
729.659
722.24
714.91
707.669
700.518
693.458
686.498
679.656
672.964
1664.71
1651.6
1638.49
1625.38
1612.25
1599.12
1585.96
1572.78
1559.58
1546.35
1533.08
1519.76
1506.4
1492.99
1479.52
1465.99
1452.38
1438.7
1424.94
1411.09
1397.13
1383.08
1368.91
1354.62
1340.21
1325.66
1310.97
1296.14
1281.3
1266.67
1252.33
1238.25
1224.43
1210.85
1197.5
1184.39
1171.5
1158.82
1146.35
1134.08
1121.99
1110.09
1098.36
1086.79
1075.38
1064.11
1052.98
1041.99
1031.12
1020.37
1009.74
999.222
988.812
978.51
968.313
958.22
948.23
938.342
928.557
918.873
909.291
899.81
890.431
881.153
871.977
862.901
853.925
845.05
836.276
827.601
819.025
810.549
802.172
793.893
785.712
777.629
769.64
761.746
753.945
746.234
738.611
731.076
723.627
716.263
708.985
701.793
694.689
687.671
680.742
673.903
667.163
660.541
654.069
1616.87
1604.14
1591.4
1578.66
1565.92
1553.15
1540.37
1527.57
1514.75
1501.89
1489
1476.06
1463.09
1450.06
1436.97
1423.83
1410.61
1397.32
1383.95
1370.49
1356.94
1343.29
1329.52
1315.65
1301.65
1287.52
1273.25
1258.84
1244.43
1230.23
1216.3
1202.62
1189.19
1176
1163.04
1150.3
1137.78
1125.47
1113.36
1101.44
1089.7
1078.14
1066.75
1055.51
1044.43
1033.49
1022.68
1012.01
1001.46
991.023
980.702
970.491
960.387
950.387
940.489
930.692
920.996
911.4
901.903
892.505
883.206
874.006
864.904
855.901
846.996
838.189
829.48
820.869
812.355
803.938
795.618
787.394
779.267
771.236
763.299
755.457
747.708
740.05
732.483
725.004
717.611
710.303
703.079
695.939
688.882
681.911
675.024
668.223
661.509
654.885
648.359
641.952
635.694
1570.41
1558.04
1545.67
1533.3
1520.91
1508.51
1496.1
1483.66
1471.2
1458.71
1446.19
1433.62
1421.02
1408.36
1395.65
1382.88
1370.04
1357.13
1344.14
1331.07
1317.9
1304.64
1291.27
1277.79
1264.19
1250.47
1236.61
1222.62
1208.63
1194.83
1181.3
1168.02
1154.97
1142.16
1129.57
1117.2
1105.03
1093.07
1081.31
1069.73
1058.33
1047.1
1036.04
1025.13
1014.37
1003.74
993.252
982.887
972.642
962.512
952.493
942.58
932.771
923.064
913.457
903.948
894.537
885.223
876.006
866.885
857.86
848.932
840.099
831.362
822.721
814.175
805.724
797.368
789.107
780.94
772.868
764.889
757.004
749.212
741.513
733.905
726.388
718.959
711.619
704.364
697.193
690.106
683.1
676.176
669.335
662.576
655.901
649.31
642.804
636.388
630.071
623.872
617.822
1525.29
1513.27
1501.26
1489.23
1477.2
1465.16
1453.1
1441.02
1428.91
1416.78
1404.61
1392.4
1380.16
1367.86
1355.51
1343.1
1330.63
1318.09
1305.47
1292.77
1279.98
1267.1
1254.12
1241.02
1227.82
1214.49
1201.03
1187.44
1173.85
1160.45
1147.31
1134.4
1121.73
1109.29
1097.06
1085.04
1073.23
1061.61
1050.18
1038.93
1027.86
1016.96
1006.21
995.616
985.164
974.848
964.661
954.597
944.65
934.815
925.088
915.465
905.943
896.52
887.194
877.964
868.83
859.79
850.844
841.992
833.233
824.568
815.996
807.517
799.131
790.838
782.638
774.529
766.513
758.589
750.756
743.015
735.365
727.805
720.335
712.954
705.661
698.455
691.334
684.297
677.342
670.467
663.673
656.959
650.325
643.773
637.302
630.915
624.612
618.398
612.283
606.286
600.439
1481.47
1469.79
1458.12
1446.44
1434.75
1423.05
1411.33
1399.59
1387.83
1376.05
1364.23
1352.37
1340.47
1328.52
1316.53
1304.47
1292.36
1280.18
1267.92
1255.58
1243.16
1230.64
1218.03
1205.31
1192.48
1179.54
1166.47
1153.28
1140.07
1127.06
1114.29
1101.76
1089.45
1077.36
1065.48
1053.81
1042.33
1031.04
1019.94
1009.02
998.266
987.675
977.237
966.948
956.797
946.78
936.888
927.116
917.458
907.908
898.464
889.122
879.878
870.731
861.678
852.719
843.853
835.078
826.395
817.803
809.303
800.893
792.574
784.345
776.207
768.159
760.201
752.333
744.554
736.865
729.265
721.754
714.331
706.996
699.749
692.588
685.512
678.521
671.613
664.786
658.039
651.371
644.782
638.27
631.838
625.485
619.213
613.023
606.917
600.899
594.98
589.18
583.531
1438.9
1427.56
1416.22
1404.87
1393.52
1382.15
1370.77
1359.36
1347.94
1336.49
1325
1313.49
1301.93
1290.32
1278.67
1266.96
1255.19
1243.35
1231.44
1219.46
1207.39
1195.24
1182.98
1170.63
1158.17
1145.6
1132.91
1120.09
1107.27
1094.63
1082.23
1070.05
1058.1
1046.35
1034.81
1023.47
1012.32
1001.36
990.575
979.964
969.519
959.231
949.094
939.1
929.243
919.514
909.908
900.419
891.041
881.77
872.6
863.53
854.556
845.676
836.888
828.191
819.585
811.068
802.64
794.3
786.05
777.888
769.814
761.828
753.929
746.119
738.396
730.761
723.212
715.751
708.376
701.087
693.885
686.768
679.736
672.788
665.923
659.14
652.438
645.815
639.27
632.802
626.41
620.095
613.858
607.699
601.619
595.62
589.704
583.876
578.148
572.539
567.082
1397.56
1386.54
1375.52
1364.5
1353.47
1342.43
1331.37
1320.29
1309.19
1298.07
1286.91
1275.72
1264.49
1253.22
1241.89
1230.52
1219.08
1207.59
1196.02
1184.38
1172.66
1160.85
1148.94
1136.95
1124.84
1112.63
1100.31
1087.86
1075.41
1063.13
1051.08
1039.26
1027.64
1016.23
1005.02
994.002
983.172
972.523
962.048
951.741
941.595
931.602
921.756
912.05
902.476
893.028
883.7
874.485
865.379
856.376
847.473
838.667
829.955
821.334
812.803
804.36
796.006
787.738
779.557
771.463
763.454
755.532
747.696
739.945
732.279
724.699
717.204
709.794
702.468
695.228
688.071
680.998
674.009
667.103
660.28
653.538
646.878
640.296
633.794
627.368
621.018
614.743
608.544
602.419
596.37
590.398
584.504
578.69
572.959
567.316
561.773
556.351
551.081
1357.41
1346.71
1336
1325.29
1314.57
1303.85
1293.1
1282.34
1271.56
1260.75
1249.91
1239.04
1228.13
1217.18
1206.18
1195.13
1184.02
1172.85
1161.61
1150.3
1138.92
1127.45
1115.88
1104.23
1092.47
1080.61
1068.64
1056.56
1044.46
1032.54
1020.83
1009.35
998.062
986.977
976.085
965.382
954.861
944.515
934.34
924.327
914.471
904.765
895.201
885.774
876.475
867.3
858.24
849.292
840.449
831.707
823.063
814.512
806.053
797.684
789.402
781.206
773.095
765.07
757.128
749.271
741.498
733.808
726.202
718.679
711.239
703.882
696.607
689.416
682.306
675.279
668.334
661.47
654.688
647.986
641.365
634.823
628.36
621.974
615.664
609.429
603.269
597.181
591.167
585.226
579.359
573.569
567.855
562.22
556.668
551.205
545.842
540.601
535.513
1318.41
1308.01
1297.61
1287.21
1276.8
1266.38
1255.94
1245.48
1235.01
1224.51
1213.98
1203.42
1192.82
1182.18
1171.49
1160.76
1149.96
1139.11
1128.2
1117.21
1106.15
1095.01
1083.78
1072.45
1061.04
1049.52
1037.89
1026.15
1014.4
1002.82
991.455
980.294
969.332
958.563
947.981
937.583
927.361
917.311
907.426
897.699
888.125
878.696
869.407
860.25
851.218
842.306
833.508
824.818
816.23
807.741
799.348
791.046
782.832
774.706
766.665
758.708
750.835
743.044
735.335
727.707
720.162
712.697
705.314
698.011
690.79
683.649
676.589
669.609
662.708
655.888
649.148
642.486
635.904
629.401
622.975
616.627
610.355
604.158
598.035
591.985
586.007
580.1
574.265
568.502
562.812
557.197
551.658
546.197
540.819
535.53
530.342
525.278
520.366
1280.54
1270.44
1260.33
1250.22
1240.11
1229.98
1219.84
1209.69
1199.51
1189.31
1179.08
1168.82
1158.52
1148.18
1137.8
1127.37
1116.89
1106.35
1095.74
1085.07
1074.32
1063.5
1052.59
1041.59
1030.5
1019.31
1008.02
996.621
985.212
973.961
962.92
952.078
941.428
930.965
920.685
910.582
900.651
890.887
881.284
871.834
862.534
853.374
844.351
835.456
826.683
818.027
809.482
801.042
792.703
784.459
776.308
768.247
760.272
752.382
744.575
736.849
729.205
721.641
714.157
706.753
699.428
692.182
685.014
677.926
670.916
663.985
657.131
650.356
643.659
637.039
630.497
624.032
617.643
611.331
605.095
598.934
592.847
586.833
580.89
575.019
569.218
563.487
557.825
552.234
546.715
541.269
535.899
530.607
525.397
520.277
515.26
510.367
505.628
1243.75
1233.94
1224.12
1214.3
1204.47
1194.64
1184.79
1174.92
1165.03
1155.12
1145.18
1135.21
1125.21
1115.17
1105.08
1094.95
1084.76
1074.52
1064.22
1053.85
1043.41
1032.9
1022.3
1011.62
1000.85
989.98
979.014
967.94
956.859
945.931
935.205
924.672
914.325
904.16
894.172
884.356
874.708
865.222
855.891
846.711
837.675
828.778
820.012
811.371
802.85
794.442
786.142
777.945
769.846
761.84
753.925
746.096
738.353
730.691
723.111
715.61
708.188
700.845
693.579
686.39
679.279
672.244
665.287
658.405
651.601
644.872
638.219
631.642
625.141
618.716
612.366
606.09
599.89
593.763
587.71
581.73
575.822
569.985
564.217
558.519
552.889
547.327
541.833
536.409
531.055
525.773
520.566
515.437
510.391
505.436
500.585
495.859
491.286
1246.24
1236.67
1227.12
1217.57
1208.02
1198.49
1188.95
1179.41
1169.86
1160.31
1150.74
1141.15
1131.54
1121.92
1112.26
1102.58
1092.86
1083.1
1073.3
1063.46
1053.56
1043.61
1033.61
1023.53
1013.39
1003.18
992.884
982.508
972.044
961.489
950.839
940.084
929.32
918.706
908.287
898.053
888.001
878.125
868.42
858.883
849.509
840.292
831.227
822.308
813.529
804.885
796.369
787.975
779.698
771.531
763.469
755.507
747.641
739.866
732.179
724.576
717.056
709.617
702.256
694.973
687.767
680.637
673.582
666.603
659.698
652.869
646.114
639.433
632.827
626.295
619.837
613.452
607.141
600.903
594.739
588.647
582.628
576.681
570.806
565.001
559.266
553.6
548.001
542.47
537.005
531.607
526.275
521.012
515.818
510.695
505.647
500.676
495.789
490.993
486.303
481.739
477.33
1210.45
1201.15
1191.87
1182.59
1173.32
1164.06
1154.79
1145.52
1136.25
1126.96
1117.66
1108.35
1099.02
1089.67
1080.28
1070.88
1061.43
1051.95
1042.44
1032.87
1023.26
1013.59
1003.87
994.085
984.234
974.311
964.312
954.234
944.07
933.819
923.475
913.029
902.574
892.264
882.142
872.2
862.433
852.837
843.408
834.142
825.033
816.078
807.27
798.604
790.075
781.677
773.404
765.249
757.208
749.274
741.443
733.71
726.069
718.517
711.052
703.668
696.365
689.141
681.993
674.921
667.924
661
654.15
647.374
640.67
634.039
627.48
620.994
614.58
608.238
601.968
595.77
589.643
583.587
577.602
571.689
565.845
560.072
554.368
548.733
543.165
537.664
532.229
526.86
521.555
516.315
511.14
506.032
500.992
496.023
491.128
486.311
481.577
476.937
472.404
467.998
463.746
1175.68
1166.65
1157.63
1148.62
1139.62
1130.62
1121.61
1112.61
1103.6
1094.58
1085.54
1076.5
1067.43
1058.34
1049.23
1040.09
1030.91
1021.71
1012.46
1003.17
993.827
984.437
974.991
965.485
955.915
946.276
936.563
926.773
916.901
906.944
896.897
886.751
876.596
866.582
856.749
847.09
837.6
828.276
819.114
810.11
801.26
792.558
784
775.58
767.293
759.133
751.095
743.173
735.361
727.653
720.046
712.534
705.112
697.777
690.526
683.355
676.262
669.246
662.305
655.437
648.642
641.919
635.267
628.687
622.177
615.738
609.37
603.072
596.844
590.687
584.599
578.58
572.631
566.752
560.941
555.2
549.527
543.921
538.383
532.912
527.506
522.165
516.888
511.675
506.524
501.437
496.413
491.456
486.565
481.745
476.998
472.33
467.747
463.257
458.877
454.625
450.526
1168.31
1159.49
1150.7
1141.91
1133.14
1124.38
1115.63
1106.88
1098.14
1089.39
1080.64
1071.89
1063.12
1054.35
1045.56
1036.75
1027.92
1019.07
1010.19
1001.27
992.326
983.342
974.315
965.242
956.119
946.943
937.708
928.411
919.047
909.612
900.102
890.513
880.842
871.083
861.229
851.366
841.638
832.085
822.701
813.48
804.421
795.518
786.769
778.168
769.713
761.397
753.215
745.163
737.235
729.425
721.728
714.138
706.65
699.26
691.962
684.752
677.627
670.584
663.619
656.73
649.916
643.174
636.504
629.905
623.376
616.917
610.526
604.205
597.953
591.769
585.653
579.605
573.626
567.714
561.87
556.094
550.385
544.743
539.168
533.659
528.216
522.838
517.525
512.276
507.09
501.965
496.903
491.901
486.962
482.085
477.272
472.526
467.85
463.247
458.723
454.285
449.943
445.711
441.609
437.658
1134.75
1126.19
1117.65
1109.12
1100.6
1092.09
1083.58
1075.09
1066.59
1058.09
1049.59
1041.09
1032.57
1024.05
1015.51
1006.95
998.372
989.771
981.142
972.484
963.792
955.063
946.293
937.478
928.616
919.701
910.729
901.697
892.601
883.436
874.198
864.884
855.49
846.012
836.441
826.86
817.411
808.131
799.013
790.054
781.25
772.599
764.097
755.74
747.523
739.442
731.492
723.667
715.963
708.374
700.896
693.521
686.246
679.066
671.976
664.972
658.051
651.209
644.444
637.752
631.134
624.586
618.108
611.698
605.357
599.084
592.878
586.739
580.667
574.661
568.722
562.849
557.042
551.301
545.626
540.016
534.472
528.993
523.579
518.229
512.943
507.721
502.561
497.463
492.426
487.449
482.532
477.674
472.877
468.142
463.469
458.863
454.326
449.863
445.479
441.182
436.983
432.895
428.937
425.129
1102.16
1093.85
1085.55
1077.26
1068.99
1060.72
1052.46
1044.2
1035.95
1027.69
1019.44
1011.17
1002.9
994.619
986.322
978.008
969.674
961.317
952.935
944.522
936.078
927.597
919.077
910.514
901.903
893.242
884.527
875.753
866.916
858.013
849.04
839.993
830.868
821.662
812.365
803.059
793.88
784.864
776.006
767.3
758.745
750.339
742.076
733.954
725.969
718.116
710.39
702.787
695.301
687.926
680.659
673.494
666.425
659.449
652.561
645.756
639.032
632.385
625.813
619.313
612.884
606.524
600.231
594.006
587.847
581.754
575.726
569.763
563.866
558.033
552.264
546.56
540.921
535.345
529.833
524.384
519
513.678
508.42
503.224
498.09
493.018
488.006
483.054
478.161
473.327
468.55
463.832
459.172
454.573
450.036
445.565
441.163
436.835
432.587
428.428
424.367
420.42
416.603
412.932
1070.51
1062.43
1054.37
1046.32
1038.29
1030.25
1022.23
1014.21
1006.19
998.17
990.147
982.119
974.083
966.036
957.975
949.898
941.801
933.682
925.538
917.365
909.161
900.921
892.644
884.324
875.959
867.545
859.078
850.554
841.97
833.321
824.605
815.817
806.953
798.012
788.981
779.943
771.026
762.267
753.659
745.2
736.887
728.717
720.687
712.794
705.034
697.402
689.894
682.505
675.229
668.063
661.001
654.038
647.17
640.391
633.698
627.087
620.554
614.097
607.712
601.397
595.152
588.973
582.861
576.813
570.831
564.912
559.057
553.265
547.537
541.871
536.268
530.727
525.249
519.833
514.479
509.187
503.956
498.787
493.679
488.632
483.645
478.718
473.849
469.038
464.284
459.587
454.946
450.362
445.836
441.368
436.963
432.622
428.35
424.153
420.038
416.012
412.087
408.277
404.596
401.057
1039.77
1031.92
1024.09
1016.27
1008.47
1000.66
992.868
985.075
977.285
969.494
961.7
953.9
946.093
938.274
930.443
922.595
914.729
906.841
898.928
890.988
883.017
875.012
866.97
858.888
850.761
842.586
834.361
826.08
817.741
809.34
800.873
792.336
783.727
775.041
766.27
757.49
748.828
740.319
731.955
723.735
715.656
707.716
699.912
692.241
684.699
677.282
669.985
662.803
655.733
648.768
641.905
635.139
628.464
621.877
615.374
608.95
602.602
596.328
590.124
583.99
577.922
571.919
565.981
560.106
554.294
548.544
542.857
537.23
531.665
526.161
520.718
515.336
510.014
504.752
499.551
494.41
489.329
484.307
479.345
474.441
469.596
464.809
460.078
455.403
450.784
446.22
441.71
437.255
432.857
428.517
424.238
420.023
415.878
411.809
407.821
403.926
400.132
396.454
392.904
389.491
1009.91
1002.29
994.681
987.087
979.501
971.922
964.349
956.779
949.211
941.642
934.07
926.492
918.907
911.311
903.702
896.078
888.435
880.772
873.084
865.37
857.626
849.849
842.035
834.183
826.287
818.346
810.355
802.31
794.209
786.048
777.823
769.531
761.168
752.731
744.211
735.683
727.269
719.001
710.875
702.887
695.035
687.319
679.734
672.278
664.947
657.738
650.646
643.666
636.794
630.025
623.355
616.779
610.292
603.891
597.571
591.329
585.161
579.064
573.036
567.075
561.18
555.348
549.578
543.87
538.224
532.638
527.112
521.645
516.239
510.891
505.603
500.373
495.203
490.091
485.037
480.042
475.105
470.226
465.405
460.64
455.932
451.28
446.682
442.139
437.65
433.213
428.83
424.5
420.226
416.009
411.852
407.76
403.738
399.791
395.929
392.16
388.495
384.945
381.521
378.223
980.902
973.501
966.114
958.737
951.368
944.007
936.65
929.296
921.943
914.59
907.233
899.871
892.502
885.122
877.73
870.322
862.897
855.452
847.983
840.488
832.964
825.408
817.817
810.188
802.517
794.802
787.039
779.224
771.354
763.426
755.436
747.381
739.258
731.063
722.787
714.503
706.329
698.296
690.4
682.637
675.007
667.507
660.134
652.887
645.762
638.754
631.861
625.076
618.397
611.818
605.335
598.943
592.639
586.418
580.276
574.209
568.215
562.29
556.433
550.641
544.912
539.245
533.639
528.093
522.606
517.178
511.809
506.497
501.244
496.048
490.909
485.828
480.804
475.836
470.926
466.072
461.274
456.533
451.847
447.217
442.641
438.12
433.651
429.235
424.87
420.557
416.296
412.087
407.932
403.834
399.795
395.822
391.919
388.093
384.352
380.706
377.166
373.741
370.436
367.244
952.732
945.543
938.367
931.201
924.044
916.892
909.745
902.602
895.459
888.315
881.168
874.015
866.856
859.686
852.504
845.307
838.093
830.859
823.603
816.321
809.011
801.67
794.295
786.883
779.431
771.936
764.393
756.801
749.156
741.455
733.693
725.869
717.978
710.017
701.978
693.932
685.991
678.187
670.514
662.97
655.553
648.263
641.097
634.053
627.127
620.315
613.614
607.019
600.526
594.131
587.83
581.617
575.489
569.443
563.473
557.577
551.751
545.993
540.301
534.672
529.104
523.597
518.149
512.76
507.428
502.154
496.936
491.774
486.669
481.62
476.626
471.688
466.805
461.978
457.205
452.488
447.825
443.217
438.662
434.162
429.714
425.318
420.974
416.68
412.436
408.243
404.099
400.006
395.966
391.983
388.059
384.2
380.413
376.703
373.081
369.555
366.135
362.829
359.638
356.542
925.37
918.387
911.417
904.456
897.503
890.556
883.614
876.674
869.735
862.794
855.851
848.902
841.946
834.98
828.003
821.01
814.002
806.973
799.923
792.849
785.747
778.615
771.449
764.248
757.008
749.726
742.399
735.024
727.597
720.115
712.575
704.974
697.309
689.576
681.767
673.951
666.237
658.655
651.198
643.867
636.659
629.572
622.607
615.759
609.026
602.404
595.889
589.479
583.167
576.95
570.825
564.785
558.829
552.951
547.148
541.417
535.755
530.159
524.626
519.155
513.744
508.392
503.097
497.859
492.678
487.551
482.48
477.464
472.502
467.594
462.741
457.941
453.195
448.503
443.864
439.278
434.746
430.266
425.839
421.463
417.139
412.865
408.641
404.465
400.338
396.259
392.228
388.248
384.32
380.447
376.634
372.886
369.211
365.615
362.109
358.699
355.396
352.204
349.117
346.109
898.794
892.011
885.24
878.479
871.725
864.976
858.232
851.49
844.749
838.007
831.261
824.51
817.752
810.984
804.205
797.412
790.602
783.774
776.924
770.051
763.151
756.222
749.26
742.264
735.23
728.156
721.037
713.872
706.657
699.389
692.065
684.681
677.235
669.722
662.137
654.545
647.051
639.684
632.438
625.313
618.306
611.418
604.647
597.99
591.444
585.006
578.673
572.44
566.304
560.26
554.305
548.434
542.644
536.93
531.289
525.718
520.213
514.773
509.396
504.078
498.818
493.616
488.47
483.378
478.342
473.359
468.43
463.554
458.731
453.96
449.242
444.577
439.963
435.401
430.892
426.433
422.027
417.671
413.367
409.112
404.907
400.75
396.642
392.58
388.565
384.597
380.676
376.803
372.983
369.217
365.511
361.872
358.306
354.821
351.426
348.13
344.94
341.857
338.864
335.937
872.98
866.391
859.815
853.247
846.686
840.131
833.579
827.03
820.481
813.931
807.377
800.819
794.253
787.678
781.091
774.491
767.875
761.241
754.586
747.908
741.204
734.472
727.709
720.912
714.078
707.205
700.29
693.329
686.319
679.259
672.144
664.971
657.737
650.439
643.071
635.696
628.416
621.258
614.217
607.291
600.481
593.785
587.202
580.73
574.366
568.107
561.949
555.89
549.924
544.048
538.258
532.55
526.92
521.365
515.881
510.464
505.113
499.825
494.597
489.427
484.315
479.257
474.255
469.306
464.409
459.566
454.774
450.033
445.345
440.707
436.12
431.584
427.098
422.662
418.277
413.943
409.657
405.422
401.236
397.098
393.008
388.965
384.968
381.016
377.109
373.247
369.432
365.664
361.947
358.285
354.683
351.149
347.689
344.312
341.027
337.842
334.759
331.777
328.87
326.018
847.908
841.508
835.119
828.739
822.366
815.998
809.634
803.271
796.909
790.546
784.179
777.807
771.428
765.04
758.641
752.229
745.801
739.356
732.89
726.402
719.888
713.348
706.777
700.173
693.534
686.857
680.138
673.376
666.566
659.707
652.795
645.827
638.8
631.71
624.552
617.388
610.316
603.361
596.519
589.788
583.168
576.658
570.258
563.965
557.778
551.692
545.705
539.813
534.012
528.298
522.668
517.118
511.644
506.243
500.911
495.645
490.442
485.301
480.218
475.192
470.221
465.304
460.441
455.629
450.869
446.159
441.5
436.891
432.332
427.823
423.362
418.951
414.589
410.276
406.012
401.796
397.628
393.509
389.437
385.411
381.432
377.499
373.609
369.763
365.961
362.202
358.488
354.821
351.204
347.643
344.142
340.71
337.353
334.082
330.904
327.824
324.845
321.954
319.125
316.347
823.555
817.338
811.132
804.935
798.744
792.558
786.375
780.195
774.014
767.832
761.647
755.456
749.259
743.053
736.836
730.606
724.361
718.099
711.817
705.513
699.185
692.83
686.446
680.031
673.58
667.093
660.566
653.996
647.381
640.718
634.003
627.234
620.407
613.519
606.566
599.607
592.736
585.978
579.329
572.787
566.351
560.023
553.8
547.682
541.665
535.747
529.925
524.196
518.555
512.999
507.524
502.127
496.805
491.552
486.367
481.247
476.188
471.189
466.246
461.359
456.526
451.745
447.016
442.337
437.708
433.129
428.599
424.117
419.683
415.298
410.96
406.67
402.427
398.232
394.084
389.983
385.929
381.921
377.96
374.043
370.172
366.343
362.558
358.814
355.112
351.452
347.836
344.266
340.746
337.282
333.879
330.546
327.291
324.122
321.047
318.07
315.188
312.38
309.623
306.915
799.901
793.862
787.834
781.814
775.8
769.79
763.784
757.78
751.776
745.77
739.761
733.747
727.726
721.697
715.656
709.604
703.536
697.452
691.349
685.224
679.076
672.902
666.7
660.467
654.2
647.897
641.556
635.174
628.747
622.274
615.751
609.175
602.543
595.851
589.096
582.336
575.661
569.095
562.633
556.274
550.018
543.865
537.815
531.865
526.014
520.26
514.598
509.026
503.54
498.137
492.813
487.564
482.388
477.28
472.238
467.258
462.338
457.477
452.67
447.918
443.218
438.568
433.969
429.419
424.918
420.464
416.058
411.699
407.387
403.122
398.902
394.729
390.602
386.521
382.485
378.496
374.551
370.652
366.796
362.985
359.217
355.49
351.804
348.159
344.554
340.989
337.468
333.991
330.565
327.195
323.887
320.651
317.495
314.426
311.452
308.573
305.779
303.047
300.359
297.718
776.926
771.06
765.204
759.356
753.514
747.676
741.842
736.009
730.176
724.341
718.503
712.661
706.811
700.953
695.085
689.204
683.31
677.398
671.468
665.518
659.545
653.546
647.52
641.465
635.376
629.253
623.093
616.892
610.649
604.36
598.023
591.634
585.191
578.691
572.128
565.561
559.076
552.697
546.417
540.236
534.154
528.171
522.288
516.502
510.812
505.216
499.709
494.29
488.955
483.7
478.521
473.417
468.382
463.414
458.51
453.667
448.882
444.154
439.479
434.857
430.285
425.764
421.291
416.865
412.487
408.155
403.869
399.629
395.434
391.285
387.18
383.12
379.104
375.133
371.206
367.324
363.485
359.69
355.938
352.228
348.559
344.93
341.341
337.79
334.278
330.806
327.375
323.989
320.654
317.375
314.16
311.018
307.958
304.987
302.11
299.324
296.61
293.946
291.326
288.75
754.61
748.912
743.223
737.542
731.867
726.196
720.528
714.862
709.195
703.527
697.856
692.179
686.497
680.805
675.104
669.391
663.663
657.92
652.159
646.378
640.574
634.747
628.892
623.009
617.094
611.145
605.16
599.136
593.071
586.961
580.805
574.598
568.339
562.023
555.647
549.267
542.968
536.769
530.666
524.658
518.745
512.928
507.207
501.58
496.046
490.603
485.247
479.976
474.786
469.675
464.638
459.673
454.775
449.943
445.173
440.462
435.808
431.208
426.661
422.165
417.719
413.32
408.969
404.664
400.405
396.191
392.021
387.896
383.815
379.777
375.783
371.832
367.924
364.06
360.238
356.459
352.723
349.028
345.375
341.763
338.19
334.656
331.159
327.7
324.278
320.894
317.551
314.253
311.005
307.814
304.69
301.641
298.674
295.798
293.014
290.313
287.672
285.074
282.518
280.005
738.482
732.935
727.399
721.873
716.354
710.841
705.332
699.826
694.321
688.816
683.31
677.8
672.286
666.765
661.235
655.696
650.146
644.581
639.001
633.404
627.787
622.149
616.487
610.799
605.083
599.336
593.557
587.742
581.89
575.997
570.062
564.081
558.051
551.97
545.834
539.639
533.441
527.322
521.299
515.368
509.527
503.778
498.122
492.558
487.086
481.703
476.408
471.199
466.072
461.023
456.051
451.151
446.321
441.557
436.856
432.215
427.632
423.105
418.63
414.207
409.833
405.507
401.228
396.994
392.806
388.662
384.562
380.505
376.491
372.519
368.59
364.703
360.858
357.054
353.292
349.572
345.893
342.255
338.658
335.101
331.583
328.103
324.659
321.252
317.881
314.545
311.246
307.988
304.774
301.611
298.507
295.471
292.511
289.637
286.852
284.157
281.533
278.958
276.424
273.93
271.477
717.268
711.88
706.503
701.135
695.774
690.418
685.066
679.718
674.37
669.022
663.673
658.32
652.963
647.599
642.227
636.846
631.453
626.047
620.625
615.187
609.73
604.252
598.751
593.225
587.671
582.088
576.474
570.825
565.139
559.414
553.648
547.837
541.979
536.071
530.11
524.091
518.07
512.124
506.273
500.508
494.831
489.241
483.741
478.33
473.007
467.771
462.621
457.553
452.565
447.654
442.816
438.049
433.35
428.715
424.141
419.626
415.167
410.762
406.409
402.105
397.849
393.64
389.477
385.357
381.282
377.249
373.259
369.311
365.404
361.539
357.714
353.931
350.187
346.484
342.822
339.2
335.617
332.075
328.571
325.107
321.679
318.289
314.933
311.612
308.325
305.072
301.856
298.679
295.547
292.466
289.446
286.496
283.625
280.84
278.144
275.531
272.977
270.464
267.991
265.557
263.162
696.663
691.429
686.206
680.991
675.783
670.581
665.382
660.186
654.991
649.795
644.598
639.398
634.194
628.983
623.764
618.535
613.296
608.044
602.777
597.493
592.191
586.869
581.525
576.156
570.76
565.336
559.881
554.393
548.869
543.308
537.706
532.06
526.369
520.629
514.837
508.989
503.139
497.363
491.678
486.076
480.557
475.122
469.773
464.51
459.332
454.239
449.228
444.298
439.445
434.667
429.96
425.322
420.749
416.239
411.789
407.396
403.057
398.77
394.534
390.346
386.205
382.109
378.057
374.048
370.082
366.157
362.273
358.43
354.628
350.865
347.141
343.457
339.813
336.207
332.641
329.113
325.624
322.173
318.76
315.385
312.045
308.741
305.47
302.232
299.026
295.853
292.716
289.617
286.564
283.564
280.626
277.76
274.976
272.278
269.666
267.127
264.636
262.184
259.769
257.393
676.648
671.564
666.491
661.425
656.366
651.312
646.262
641.214
636.167
631.12
626.071
621.019
615.963
610.9
605.83
600.751
595.66
590.557
585.44
580.307
575.156
569.985
564.793
559.576
554.334
549.065
543.765
538.433
533.067
527.664
522.221
516.737
511.207
505.631
500.003
494.321
488.637
483.026
477.501
472.057