/*--------------------------------*- C++ -*----------------------------------*\
  =========                 |
  \\      /  F ield         | OpenFOAM: The Open Source CFD Toolbox
   \\    /   O peration     | Website:  https://openfoam.org
    \\  /    A nd           | Version:  10
     \\/     M anipulation  |
\*---------------------------------------------------------------------------*/
FoamFile
{
    format      ascii;
    class       volScalarField;
    location    "43000";
    object      yPlus;
}
// * * * * * * * * * * * * * * * * * * * * * * * * * * * * * * * * * * * * * //

dimensions      [0 0 0 0 0 0 0];

internalField   uniform 0;

boundaryField
{
    right
    {
        type            cyclic;
    }
    left
    {
        type            cyclic;
    }
    outerWall
    {
        type            calculated;
        value           nonuniform List<scalar> 
200
(
20.2543
20.2486
20.2487
20.2495
20.2507
20.2527
20.2551
20.2576
20.2601
20.2625
20.2648
20.267
20.269
20.2709
20.2727
20.2743
20.2757
20.277
20.2783
20.2794
20.2804
20.2814
20.2823
20.2831
20.2839
20.2846
20.2853
20.286
20.2866
20.2872
20.2879
20.2884
20.289
20.2896
20.2901
20.2907
20.2912
20.2917
20.2922
20.2928
20.2933
20.2938
20.2943
20.2947
20.2952
20.2957
20.2962
20.2966
20.2971
20.2975
20.298
20.2984
20.2988
20.2992
20.2996
20.2999
20.3003
20.3006
20.3009
20.3012
20.3014
20.3016
20.3018
20.302
20.3021
20.3021
20.3022
20.3021
20.302
20.3021
20.3009
20.2984
20.295
20.2921
20.2869
20.2839
20.2842
20.2857
20.2873
20.2875
20.2411
20.2448
20.2537
20.2629
20.2719
20.2811
20.29
20.2985
20.3064
20.3137
20.3205
20.3266
20.3322
20.3372
20.3416
20.3454
20.3488
20.3516
20.3539
20.3557
20.3571
20.358
20.3585
20.3585
20.3581
20.3572
20.356
20.3543
20.3521
20.3495
20.3463
20.3427
20.3385
20.3336
20.328
20.3215
20.3139
20.3046
20.2929
20.2745
20.2889
20.2929
20.2949
20.2961
20.297
20.2958
20.2924
20.289
20.2867
20.2857
20.2856
20.2866
20.2884
20.2902
20.2919
20.2933
20.2945
20.2954
20.2962
20.2968
20.2973
20.2978
20.2981
20.2984
20.2986
20.2988
20.2989
20.299
20.2991
20.2991
20.2991
20.2991
20.2991
20.2991
20.299
20.2989
20.2988
20.2987
20.2986
20.2985
20.2983
20.2982
20.298
20.2978
20.2976
20.2974
20.2972
20.2969
20.2967
20.2964
20.2961
20.2959
20.2956
20.2952
20.2949
20.2946
20.2942
20.2938
20.2934
20.293
20.2925
20.292
20.2915
20.2909
20.2903
20.2897
20.289
20.2882
20.2874
20.2864
20.2854
20.2842
20.2828
20.2812
20.2793
20.2769
20.2739
20.2698
20.2639
20.2518
)
;
    }
    stirrerWall
    {
        type            calculated;
        value           nonuniform List<scalar> 0();
    }
    top
    {
        type            empty;
    }
    bottom
    {
        type            empty;
    }
    procBoundary2to3
    {
        type            processor;
        value           uniform 0;
    }
}


// ************************************************************************* //
