/*--------------------------------*- C++ -*----------------------------------*\
  =========                 |
  \\      /  F ield         | OpenFOAM: The Open Source CFD Toolbox
   \\    /   O peration     | Website:  https://openfoam.org
    \\  /    A nd           | Version:  10
     \\/     M anipulation  |
\*---------------------------------------------------------------------------*/
FoamFile
{
    format      ascii;
    class       volScalarField;
    location    "78000";
    object      k;
}
// * * * * * * * * * * * * * * * * * * * * * * * * * * * * * * * * * * * * * //

dimensions      [0 2 -2 0 0 0 0];

internalField   nonuniform List<scalar> 
17969
(
8.66821e-05
0.00157889
0.00356
0.00578735
0.00827465
0.0113122
0.0145969
0.0174883
0.0196197
0.0209441
0.0216293
0.0219113
0.0220215
0.0221338
0.0223158
0.0226747
0.0232602
0.0240677
0.0250654
0.0262099
0.0274559
0.0287613
0.0300916
0.0314204
0.0327295
0.0340064
0.0352437
0.036437
0.0375844
0.0386855
0.0397405
0.0407501
0.0417155
0.0426377
0.0435176
0.0443561
0.0451541
0.0459123
0.0466311
0.047311
0.0479526
0.048556
0.0491218
0.0496501
0.0501414
0.0505959
0.0510141
0.0513966
0.0517437
0.0520561
0.0523346
0.0525799
0.052793
0.0529748
0.0531266
0.0532495
0.053345
0.0534144
0.0534594
0.0534817
0.0534829
0.053465
0.0534297
0.0533791
0.0533148
0.0532389
0.0531529
0.0530584
0.0529568
0.0528491
0.0527359
0.0526174
0.0524933
0.0523625
0.0522253
0.0520834
0.0519364
0.0517807
0.0516167
0.0514435
0.051261
0.0510711
0.0508768
0.0506817
0.0504897
0.0503053
0.0501336
0.0499805
0.0498531
0.0497605
0.0497123
0.0497192
0.0497937
0.0499477
0.0501935
0.050544
0.0510126
0.0516127
0.052352
0.0532379
3.92012e-05
0.000824044
0.00196229
0.00337038
0.00493156
0.00679389
0.00910334
0.0119705
0.0151623
0.0181441
0.0205005
0.0221189
0.0230692
0.0235223
0.0236702
0.0236941
0.0237289
0.0238258
0.0240773
0.0245301
0.0251868
0.0260257
0.0270132
0.0281126
0.0292877
0.0305061
0.0317407
0.0329705
0.0341804
0.0353601
0.0365029
0.0376045
0.0386629
0.0396769
0.0406466
0.041572
0.0424537
0.0432923
0.0440885
0.0448429
0.0455563
0.0462291
0.0468619
0.0474552
0.0480096
0.0485256
0.0490037
0.0494445
0.0498486
0.0502166
0.0505494
0.0508476
0.0511123
0.0513445
0.0515451
0.0517155
0.051857
0.0519709
0.0520588
0.0521223
0.0521631
0.0521829
0.0521836
0.0521669
0.0521347
0.0520889
0.052031
0.0519627
0.0518853
0.0517999
0.0517072
0.0516075
0.0515006
0.0513857
0.0512633
0.051135
0.0510011
0.0508573
0.0507041
0.0505405
0.0503672
0.0501863
0.0500009
0.0498149
0.0496327
0.0494596
0.0493012
0.049164
0.049055
0.0489824
0.0489552
0.0489833
0.0490779
0.0492541
0.0495248
0.0499038
0.0504056
0.0510448
0.0518303
0.0527711
1.55277e-05
0.000368853
0.000979824
0.00179993
0.00270317
0.00378027
0.00512311
0.00683906
0.0090477
0.0118275
0.0149278
0.0179652
0.0206072
0.0226254
0.0239817
0.0247623
0.0251155
0.0252008
0.0251706
0.0251423
0.0251613
0.0253158
0.0256515
0.0261762
0.0268756
0.0277231
0.0286875
0.0297373
0.0308435
0.03198
0.0331252
0.034262
0.0353778
0.0364638
0.0375139
0.0385243
0.0394927
0.040418
0.0412996
0.0421375
0.0429319
0.0436833
0.0443921
0.0450589
0.0456843
0.0462691
0.0468137
0.0473189
0.0477854
0.048214
0.0486055
0.0489607
0.0492806
0.0495662
0.0498186
0.050039
0.0502286
0.0503889
0.0505214
0.0506275
0.0507089
0.0507674
0.0508047
0.0508226
0.0508229
0.0508073
0.0507777
0.0507355
0.0506821
0.0506188
0.0505463
0.0504652
0.0503754
0.0502764
0.0501689
0.0500546
0.0499341
0.0498045
0.0496646
0.0495137
0.0493528
0.0491844
0.0490119
0.0488392
0.048671
0.0485128
0.048371
0.048253
0.0481668
0.048121
0.0481247
0.0481873
0.0483178
0.0485282
0.0488363
0.049257
0.0498058
0.0504979
0.0513442
0.0523565
7.56022e-06
0.000188399
0.000533612
0.00102781
0.0015566
0.00214867
0.00288803
0.00384319
0.00508389
0.00670591
0.00879168
0.0114408
0.0144109
0.0174341
0.0202796
0.0226558
0.0244395
0.0256222
0.0262876
0.0265663
0.026598
0.0265176
0.026431
0.0263787
0.0264466
0.0266782
0.0270845
0.0276565
0.0283735
0.0292093
0.0301363
0.0311282
0.032161
0.0332138
0.0342691
0.0353128
0.0363343
0.0373257
0.0382817
0.0391986
0.0400742
0.0409071
0.0416969
0.0424432
0.0431462
0.0438064
0.0444242
0.0450003
0.0455354
0.0460302
0.0464857
0.0469027
0.0472823
0.0476254
0.0479331
0.0482068
0.0484475
0.0486568
0.0488361
0.0489868
0.0491107
0.0492093
0.0492844
0.0493378
0.0493713
0.0493866
0.0493855
0.0493695
0.0493402
0.0492989
0.0492465
0.0491837
0.0491108
0.0490278
0.0489356
0.0488361
0.0487301
0.0486175
0.0484941
0.0483593
0.0482147
0.048063
0.0479078
0.0477532
0.047604
0.047466
0.0473461
0.0472522
0.0471932
0.047179
0.04722
0.0473262
0.0475068
0.04777
0.048129
0.048605
0.0492152
0.0499754
0.0508988
0.0520004
0.053297
0.0548005
0.0565185
0.0584542
4.9582e-06
0.000124743
0.000354824
0.000693414
0.00103936
0.00139498
0.00180496
0.00231878
0.00298716
0.003876
0.00505138
0.00658244
0.00853977
0.0110159
0.0138566
0.0168182
0.0197283
0.0223668
0.0245273
0.0261233
0.0271638
0.0277305
0.0279419
0.0279228
0.0277937
0.0276498
0.0275279
0.0275121
0.0276438
0.0279367
0.0283866
0.0289777
0.0296881
0.0304935
0.0313701
0.0322953
0.0332492
0.0342145
0.0351767
0.0361241
0.0370477
0.0379408
0.0387985
0.0396175
0.0403956
0.0411317
0.0418251
0.0424757
0.0430837
0.0436495
0.0441739
0.0446575
0.0451014
0.0455064
0.0458737
0.0462044
0.0464998
0.0467613
0.0469903
0.0471883
0.0473568
0.0474975
0.0476122
0.0477026
0.0477704
0.0478174
0.0478455
0.0478562
0.0478513
0.0478321
0.0477998
0.0477556
0.0477002
0.0476339
0.0475583
0.0474756
0.0473873
0.047294
0.0471902
0.0470753
0.0469511
0.0468208
0.0466879
0.0465567
0.0464325
0.0463211
0.0462298
0.0461669
0.0461421
0.0461661
0.0462504
0.0464068
0.046646
0.0469762
0.0474053
0.0479509
0.0486376
0.0494824
0.050501
0.0517118
0.0531321
0.0547743
0.0566462
0.0587503
3.93504e-06
9.93077e-05
0.000279333
0.000546182
0.000807827
0.00105517
0.00131297
0.00161006
0.00197801
0.00244755
0.00306601
0.00390303
0.00500679
0.00643979
0.00826509
0.0105609
0.0132761
0.0161831
0.0190751
0.0218575
0.0243094
0.0262834
0.0277209
0.0286419
0.0291244
0.0292751
0.029206
0.0290256
0.0288155
0.0286231
0.0285245
0.0285593
0.0287434
0.0290762
0.0295456
0.0301333
0.030818
0.0315779
0.0323919
0.0332409
0.0341079
0.0349786
0.0358411
0.0366858
0.0375052
0.0382937
0.039047
0.0397624
0.0404379
0.0410724
0.0416655
0.042217
0.0427274
0.0431972
0.0436272
0.0440184
0.0443718
0.0446887
0.0449705
0.0452186
0.0454344
0.0456196
0.045776
0.0459052
0.0460089
0.0460891
0.0461476
0.0461861
0.0462064
0.0462102
0.0461991
0.0461746
0.046138
0.0460904
0.0460336
0.0459703
0.0459026
0.0458319
0.0457518
0.045661
0.0455621
0.0454582
0.0453533
0.045252
0.0451595
0.0450822
0.0450276
0.0450043
0.0450226
0.0450938
0.0452303
0.045445
0.0457503
0.0461558
0.0466681
0.0473002
0.0480797
0.0490276
0.050162
0.0515044
0.0530723
0.0548786
0.0569302
0.0592286
3.4529e-06
8.73541e-05
0.000243338
0.000475675
0.000698198
0.000896406
0.00108696
0.00128591
0.00151061
0.00178353
0.00212288
0.00255558
0.0031317
0.00391068
0.00493744
0.00626691
0.00795572
0.010068
0.0126324
0.015471
0.0183517
0.0211882
0.0238418
0.0261298
0.0279469
0.0292534
0.0300743
0.0304823
0.0305753
0.0304564
0.0302246
0.0299473
0.0296853
0.0295066
0.0294483
0.0295275
0.0297461
0.0300953
0.03056
0.0311216
0.0317605
0.0324572
0.0331936
0.0339534
0.0347225
0.0354892
0.0362437
0.0369781
0.0376863
0.0383636
0.0390067
0.0396131
0.0401813
0.0407103
0.0411999
0.0416501
0.0420614
0.0424345
0.0427704
0.0430703
0.0433354
0.0435672
0.0437673
0.0439373
0.0440791
0.0441944
0.0442852
0.0443534
0.0444009
0.0444298
0.044442
0.0444395
0.0444242
0.0443978
0.0443628
0.0443219
0.0442773
0.0442304
0.0441801
0.0441194
0.0440513
0.0439799
0.0439095
0.0438449
0.0437919
0.0437571
0.0437483
0.0437744
0.043846
0.043975
0.0441743
0.0444575
0.0448381
0.0453269
0.045931
0.0466636
0.047554
0.0486258
0.0498994
0.0513982
0.0531401
0.0551371
0.0573955
0.0599143
0.062686
3.192e-06
8.09879e-05
0.000224183
0.000438641
0.000642589
0.00081824
0.000978584
0.00113487
0.00129679
0.00147495
0.00168379
0.00193721
0.00225056
0.00265287
0.00318697
0.00390555
0.00485515
0.0060841
0.00764528
0.00959278
0.0119988
0.0147392
0.0176091
0.0204528
0.02321
0.0257312
0.0278737
0.029554
0.0307459
0.0314781
0.0318194
0.03186
0.0316959
0.031417
0.0310759
0.0307471
0.0304905
0.0303402
0.0303145
0.0304174
0.0306431
0.0309799
0.0314123
0.0319228
0.032494
0.0331089
0.0337521
0.0344099
0.0350706
0.0357245
0.0363634
0.036981
0.0375723
0.0381334
0.0386617
0.0391551
0.0396125
0.0400332
0.0404173
0.040765
0.041077
0.0413541
0.0415977
0.041809
0.0419897
0.0421415
0.0422663
0.0423661
0.042443
0.0424993
0.0425373
0.0425593
0.0425679
0.0425654
0.0425547
0.0425388
0.0425207
0.0425024
0.0424861
0.0424618
0.0424295
0.0423962
0.0423669
0.0423466
0.0423415
0.0423583
0.0424051
0.042491
0.0426268
0.0428246
0.043098
0.0434611
0.0439276
0.0445089
0.0452139
0.0460607
0.0470815
0.048299
0.0497367
0.051418
0.0533602
0.0555746
0.0580655
0.0608295
0.0638558
0.067126
0.0706161
3.05373e-06
7.76854e-05
0.000214084
0.000418903
0.000614046
0.000779411
0.000926034
0.00106312
0.00119746
0.00133504
0.00148243
0.00164822
0.00184484
0.00208155
0.00237177
0.00274473
0.0032378
0.00389885
0.00477391
0.00590967
0.007358
0.00916833
0.0114006
0.0140197
0.0168634
0.0197177
0.022506
0.0251673
0.0275578
0.0295643
0.0311202
0.0322103
0.0328656
0.0331511
0.0331489
0.0329469
0.0326221
0.0322232
0.0318306
0.0314956
0.031252
0.0311187
0.0311017
0.0311985
0.0314009
0.0316964
0.0320703
0.0325071
0.0329913
0.0335083
0.0340452
0.0345903
0.0351339
0.0356679
0.0361855
0.0366815
0.0371518
0.0375934
0.0380042
0.0383827
0.0387281
0.0390403
0.0393195
0.0395663
0.0397819
0.0399674
0.0401246
0.0402551
0.0403612
0.040445
0.0405093
0.0405566
0.0405898
0.0406122
0.0406267
0.0406369
0.0406467
0.0406593
0.0406788
0.0406974
0.0407102
0.040722
0.0407413
0.0407736
0.0408252
0.0409031
0.0410153
0.0411713
0.041382
0.0416597
0.0420182
0.0424719
0.0430345
0.0437171
0.044535
0.0455162
0.0466873
0.0480725
0.0496975
0.0515851
0.053752
0.0562079
0.0589546
0.0619852
0.0652849
0.0688313
0.072596
0.0765461
3.00627e-06
7.66341e-05
0.000210427
0.000410632
0.000602229
0.000763401
0.000904072
0.00103253
0.00115442
0.00127403
0.00139523
0.00152222
0.00166028
0.00181692
0.0020022
0.00222324
0.00249249
0.00283675
0.00328947
0.00389429
0.00469259
0.00573193
0.00706247
0.00873157
0.0107884
0.0132761
0.0160418
0.0189061
0.0217431
0.0244759
0.0270382
0.0293041
0.0311862
0.0326328
0.0336369
0.034231
0.034475
0.0344428
0.0342124
0.0338371
0.0333902
0.032938
0.0325273
0.0321909
0.031948
0.0318077
0.0317711
0.0318333
0.0319852
0.0322148
0.0325087
0.032853
0.0332345
0.0336406
0.0340603
0.034484
0.0349034
0.0353119
0.0357039
0.0360752
0.0364225
0.0367437
0.037037
0.0373018
0.0375378
0.0377455
0.0379256
0.0380793
0.0382085
0.0383151
0.0384016
0.038471
0.0385264
0.0385712
0.038609
0.0386436
0.0386796
0.0387212
0.0387728
0.038839
0.038907
0.0389776
0.0390554
0.0391489
0.0392656
0.0394133
0.0396002
0.0398358
0.0401311
0.040498
0.0409494
0.0414998
0.0421664
0.0429654
0.0439159
0.0450474
0.0463865
0.0479588
0.0497913
0.0519065
0.0543198
0.0570387
0.0600612
0.0633765
0.0669647
0.0707987
0.0748457
0.0790689
0.0834295
0.0878885
3.04184e-06
7.76243e-05
0.000212441
0.000411823
0.000603256
0.000763655
0.000902348
0.00102725
0.00114356
0.00125492
0.00136422
0.00147409
0.00158733
0.0017073
0.0018385
0.00198754
0.00216281
0.00237002
0.00262029
0.00293751
0.00335179
0.00389959
0.00462053
0.00556271
0.00677668
0.00831142
0.0102111
0.0125339
0.0151955
0.018029
0.0208885
0.0236875
0.026347
0.0288029
0.0309487
0.0327168
0.0340692
0.0350047
0.0355554
0.0357739
0.0357255
0.035467
0.0350585
0.0345735
0.0340677
0.0335852
0.0331578
0.0328068
0.0325438
0.0323733
0.0322934
0.032298
0.0323777
0.0325217
0.0327178
0.0329543
0.0332199
0.0335041
0.0337977
0.0340927
0.0343825
0.0346617
0.0349257
0.0351717
0.0353971
0.0356006
0.0357814
0.0359395
0.0360757
0.0361916
0.0362892
0.036371
0.0364401
0.0365003
0.036555
0.0366083
0.0366654
0.0367314
0.0368119
0.0369142
0.0370352
0.0371691
0.0373174
0.037486
0.0376815
0.0379109
0.038182
0.0385032
0.0388848
0.0393412
0.0398881
0.0405431
0.0413261
0.0422577
0.0433577
0.0446532
0.0461759
0.0479529
0.0500119
0.0523746
0.0550546
0.0580556
0.0613711
0.064985
0.0688722
0.0730002
0.0773316
0.0818258
0.0864411
0.0911364
0.0958725
0.100613
0.105325
0.10998
3.15804e-06
8.05953e-05
0.000219831
0.000421559
0.000615308
0.000777128
0.00091612
0.00104012
0.00115421
0.00126182
0.00136547
0.00146724
0.00156904
0.00167282
0.00178083
0.00189593
0.00202201
0.00216482
0.00233185
0.00252775
0.00276172
0.00305475
0.00343101
0.00392238
0.00456813
0.00541416
0.00651045
0.00790727
0.00964891
0.0117843
0.014314
0.0170901
0.0199258
0.0227597
0.0255059
0.0280846
0.0304309
0.0324646
0.0341314
0.035405
0.0362888
0.0368117
0.0370192
0.0369551
0.0366745
0.0362472
0.0357339
0.0351861
0.0346444
0.0341391
0.0336919
0.0333162
0.0330189
0.0328012
0.0326597
0.0325883
0.0325785
0.0326207
0.0327049
0.0328214
0.0329608
0.0331149
0.0332759
0.033438
0.0335959
0.0337458
0.0338843
0.0340098
0.0341215
0.0342194
0.0343043
0.0343779
0.0344428
0.0345026
0.0345606
0.0346207
0.0346883
0.0347686
0.0348672
0.0349907
0.0351488
0.0353334
0.0355441
0.0357841
0.0360582
0.0363724
0.0367342
0.037152
0.0376359
0.0381989
0.0388563
0.0396266
0.0405328
0.041601
0.0428565
0.0443284
0.0460495
0.048048
0.0503513
0.0529798
0.0559437
0.0592421
0.0628631
0.0667842
0.0709745
0.0753961
0.0800072
0.0847635
0.089621
0.094537
0.0994716
0.104388
0.109255
0.114043
3.35571e-06
8.55608e-05
0.00023249
0.000439246
0.0006372
0.000801942
0.000942657
0.00106728
0.00118093
0.00128703
0.00138801
0.00148574
0.00158181
0.00167767
0.00177479
0.00187478
0.00197959
0.00209162
0.00221427
0.00235253
0.00251329
0.00270036
0.00292016
0.00318988
0.00353129
0.00397228
0.00454806
0.00530109
0.00627924
0.00753245
0.00910683
0.0110434
0.0134017
0.0160633
0.0188687
0.0216951
0.0244878
0.0271697
0.0296643
0.0318986
0.0338238
0.0353982
0.0366023
0.0374392
0.0379283
0.0381006
0.0380182
0.037739
0.0373184
0.036806
0.0362449
0.0356711
0.0351132
0.0345926
0.0341242
0.0337167
0.0333741
0.0330962
0.0328796
0.0327189
0.0326072
0.0325365
0.0324996
0.0324888
0.0324972
0.0325185
0.0325472
0.0325796
0.0326124
0.0326438
0.0326728
0.0326997
0.0327264
0.032756
0.0327916
0.0328365
0.0328956
0.0329735
0.0330753
0.0332066
0.0333743
0.0335891
0.0338446
0.0341414
0.0344835
0.0348757
0.0353245
0.0358374
0.0364238
0.0370958
0.0378686
0.0387617
0.0397994
0.0410103
0.0424263
0.0440821
0.0460115
0.0482436
0.0508042
0.0537113
0.0569706
0.0605754
0.064507
0.0687363
0.0732259
0.0779329
0.0828109
0.0878131
0.0928932
0.0980079
0.103117
0.108185
0.11318
0.118075
3.63571e-06
9.25314e-05
0.000250302
0.000464319
0.000667862
0.000836516
0.000979853
0.00110604
0.00122027
0.00132608
0.00142591
0.0015216
0.00161462
0.00170624
0.00179761
0.00188988
0.00198429
0.0020822
0.00218529
0.00229572
0.00241641
0.00255157
0.00270742
0.00288775
0.00309682
0.00334824
0.00366086
0.0040586
0.0045722
0.00523984
0.00610644
0.0072212
0.0086338
0.0103854
0.0125263
0.0150264
0.0177499
0.0205315
0.0233137
0.0260286
0.0286101
0.0309947
0.0331173
0.034924
0.0363842
0.0374881
0.0382511
0.0387026
0.0388811
0.03883
0.0385941
0.0382171
0.03774
0.0371996
0.0366276
0.0360502
0.035488
0.0349563
0.0344654
0.0340214
0.0336268
0.033281
0.0329817
0.0327256
0.032507
0.032321
0.0321629
0.0320275
0.0319109
0.0318098
0.0317219
0.0316463
0.0315836
0.0315355
0.0315053
0.0314979
0.031516
0.0315634
0.0316437
0.0317612
0.0319211
0.0321301
0.0323977
0.0327245
0.0331091
0.0335562
0.034071
0.0346604
0.0353333
0.0361012
0.0369795
0.0379882
0.0391531
0.0405058
0.0420825
0.0439221
0.0460628
0.0485341
0.0513582
0.0545497
0.0581085
0.0620206
0.0662598
0.0707895
0.0755662
0.0805417
0.0856663
0.0908906
0.0961674
0.101453
0.106708
0.111897
0.116991
0.121963
4.00136e-06
0.000101529
0.000273145
0.000496243
0.000706319
0.000879403
0.00102575
0.00115385
0.0012692
0.00137538
0.0014749
0.00156961
0.00166097
0.00175016
0.00183824
0.00192618
0.00201492
0.00210544
0.00219881
0.00229625
0.00239924
0.00250968
0.00263011
0.0027641
0.00291691
0.00309312
0.00329554
0.0035336
0.00382377
0.00418625
0.0046473
0.00524019
0.00600525
0.00698802
0.00823602
0.00979101
0.0116919
0.0139888
0.0165619
0.019263
0.0219923
0.0246912
0.0272943
0.0297362
0.0319603
0.0339165
0.035572
0.0369151
0.0379473
0.0386832
0.0391463
0.0393661
0.0393759
0.0392108
0.0389058
0.0384943
0.0380069
0.0374709
0.0369094
0.0363414
0.0357818
0.0352416
0.0347285
0.0342475
0.0338002
0.0333862
0.033006
0.0326579
0.0323404
0.0320515
0.0317891
0.0315529
0.0313426
0.0311596
0.0310108
0.0309021
0.0308339
0.0308083
0.0308275
0.0308948
0.0310136
0.0311888
0.031426
0.0317316
0.032113
0.0325727
0.0331137
0.0337417
0.0344652
0.0352959
0.0362498
0.0373483
0.0386195
0.040098
0.0418239
0.0438402
0.0461878
0.0488969
0.0519853
0.0554607
0.0593159
0.0635285
0.0680638
0.0728778
0.0779208
0.0831404
0.0884837
0.0939
0.0993418
0.104766
0.110134
0.115413
0.120574
0.125593
0.130452
4.46144e-06
0.000112635
0.000300918
0.000534117
0.000750991
0.000928914
0.00107862
0.001209
0.00132578
0.00143271
0.0015324
0.00162674
0.0017172
0.00180496
0.00189105
0.00197635
0.00206171
0.00214795
0.00223587
0.00232635
0.00242035
0.00251896
0.00262352
0.00273569
0.00285766
0.00299246
0.00314444
0.00331904
0.0035184
0.00374786
0.00402166
0.00435678
0.00477528
0.00530527
0.00598162
0.00684517
0.0079408
0.00931334
0.0109972
0.0130389
0.0154013
0.0179645
0.0205845
0.0232055
0.0257629
0.0281966
0.0304531
0.0324932
0.0342866
0.035814
0.03707
0.0380575
0.0387878
0.039279
0.0395536
0.0396373
0.0395573
0.039341
0.0390152
0.0386046
0.0381318
0.0376166
0.0370759
0.0365233
0.0359697
0.0354227
0.0348894
0.034374
0.0338801
0.03341
0.0329652
0.0325481
0.0321609
0.0318075
0.0314996
0.0312444
0.0310433
0.0308973
0.0308079
0.0307774
0.0308089
0.0309061
0.0310734
0.031316
0.0316396
0.0320503
0.0325557
0.0331636
0.0338831
0.0347264
0.0357106
0.0368588
0.0382017
0.0397782
0.0416328
0.0438113
0.0463559
0.0492971
0.0526458
0.0563987
0.0605403
0.0650388
0.0698506
0.0749246
0.0802055
0.0856374
0.0911655
0.0967386
0.10231
0.107837
0.113283
0.118617
0.123813
0.128849
0.133707
5.02762e-06
0.000126069
0.000332815
0.000577211
0.000801483
0.000984324
0.0011374
0.0012701
0.00138842
0.00149628
0.00159639
0.0016907
0.00178071
0.00186763
0.00195246
0.00203608
0.00211929
0.00220282
0.00228741
0.00237376
0.00246263
0.00255481
0.00265116
0.00275267
0.00286052
0.00297619
0.00310158
0.00323925
0.00339283
0.00356772
0.00376668
0.0039922
0.00425524
0.00457049
0.00495626
0.00543605
0.00603931
0.00680132
0.00776151
0.00896087
0.010433
0.0122087
0.0143233
0.0166772
0.0191439
0.0216334
0.0240909
0.0264597
0.0286962
0.0307619
0.0326291
0.0342781
0.0356962
0.0368796
0.037832
0.0385614
0.0390817
0.0394102
0.0395666
0.0395715
0.0394461
0.0392112
0.0388863
0.0384895
0.0380367
0.0375424
0.037019
0.0364769
0.0359246
0.0353696
0.0348184
0.0342768
0.0337509
0.0332472
0.0327829
0.0323729
0.0320205
0.0317279
0.0314975
0.0313325
0.0312363
0.0312131
0.0312674
0.0314045
0.0316301
0.0319511
0.0323751
0.0329115
0.0335718
0.0343717
0.0353322
0.0364818
0.0378571
0.0395017
0.041464
0.0437918
0.0465259
0.0496934
0.0532956
0.0573154
0.0617266
0.0664885
0.0715494
0.0768511
0.0823343
0.0879404
0.0936141
0.0993046
0.104966
0.110558
0.116047
0.121402
0.126601
0.131623
0.136454
5.69509e-06
0.000141761
0.00036813
0.000624991
0.000856814
0.00104449
0.00120086
0.00133585
0.00145573
0.00156461
0.00166527
0.00175975
0.00184959
0.00193601
0.00202002
0.00210251
0.00218425
0.00226597
0.00234835
0.00243205
0.00251772
0.00260602
0.00269765
0.0027933
0.00289378
0.00299995
0.00311288
0.00323384
0.00336448
0.00350703
0.0036645
0.00384138
0.00404207
0.00426793
0.0045253
0.00482744
0.00518951
0.00563096
0.00617595
0.0068537
0.00769751
0.00874312
0.0100249
0.0115656
0.013398
0.0154915
0.0177521
0.0200574
0.0223632
0.0246208
0.026785
0.0288214
0.0307022
0.0324058
0.0339188
0.0352325
0.0363436
0.0372554
0.0379746
0.0385111
0.0388779
0.0390896
0.039162
0.0391106
0.0389511
0.0386989
0.0383682
0.037972
0.0375221
0.0370289
0.0365022
0.0359511
0.0353845
0.0348122
0.0342562
0.0337381
0.033266
0.0328456
0.0324823
0.0321818
0.0319496
0.0317916
0.031714
0.0317235
0.0318271
0.0320331
0.0323505
0.0327904
0.0333671
0.0340993
0.0350125
0.0361404
0.0375255
0.0392181
0.0412719
0.0437368
0.0466517
0.0500367
0.0538819
0.0581564
0.0628204
0.0678206
0.0730963
0.0785854
0.0842265
0.0899621
0.0957379
0.101504
0.107215
0.112834
0.11833
0.123674
0.128845
0.133827
0.138605
0.14317
6.47347e-06
0.000159585
0.000406503
0.000676571
0.000915947
0.00110834
0.0012679
0.00140512
0.00152656
0.00163649
0.00173779
0.00183256
0.00192239
0.00200851
0.00209197
0.00217364
0.00225431
0.0023347
0.00241549
0.00249731
0.0025808
0.00266656
0.00275521
0.00284734
0.00294358
0.00304457
0.003151
0.00326364
0.00338341
0.00351142
0.0036491
0.00379835
0.00396174
0.00414294
0.00434728
0.00457644
0.00483291
0.00512785
0.00547416
0.00588772
0.00638815
0.00699897
0.00774729
0.00866179
0.00977106
0.0110947
0.0126456
0.0144554
0.0164515
0.0185505
0.0206696
0.0227723
0.0248191
0.0267741
0.02861
0.0303068
0.0318476
0.0332215
0.034423
0.0354498
0.0363036
0.0369896
0.0375153
0.0378896
0.0381229
0.038227
0.0382135
0.0380943
0.0378805
0.0375828
0.0372115
0.0367768
0.0362888
0.0357588
0.0352105
0.03467
0.034151
0.033664
0.0332185
0.0328236
0.0324882
0.032221
0.0320308
0.0319265
0.0319175
0.0320145
0.0322285
0.0325732
0.033066
0.03373
0.0345954
0.035702
0.0370989
0.0388422
0.0409894
0.0435906
0.0466796
0.050268
0.0543321
0.0588286
0.0637092
0.0689122
0.0743705
0.0800161
0.0857839
0.0916128
0.0974496
0.103249
0.108972
0.114583
0.120051
0.125354
0.130471
0.135387
0.140091
0.144575
7.36043e-06
0.000179545
0.000447925
0.000731286
0.000978054
0.00117499
0.00133763
0.00147701
0.00159999
0.00171099
0.00181297
0.0019081
0.00199799
0.00208392
0.00216695
0.00224797
0.00232777
0.00240709
0.0024866
0.00256695
0.00264877
0.00273268
0.00281925
0.00290906
0.00300266
0.0031006
0.00320341
0.00331165
0.00342591
0.00354685
0.00367523
0.00381204
0.00395851
0.0041163
0.0042877
0.00447578
0.00468522
0.00491964
0.00517991
0.00547289
0.00581034
0.00620502
0.00667268
0.00723161
0.00790264
0.00870773
0.0096689
0.0108069
0.0121295
0.0136463
0.0153568
0.0172002
0.0191073
0.0210175
0.0229016
0.0247284
0.0264685
0.0281
0.0296063
0.0309759
0.0321996
0.0332723
0.0341926
0.0349614
0.0355817
0.0360586
0.0363988
0.0366096
0.0366985
0.036674
0.0365445
0.0363189
0.0360066
0.0356182
0.0351753
0.034705
0.0342257
0.0337523
0.0332984
0.0328767
0.0324993
0.0321781
0.0319245
0.0317504
0.0316673
0.0316889
0.0318292
0.0321048
0.0325373
0.0331543
0.0339919
0.0350963
0.0365233
0.0383341
0.0405882
0.0433334
0.0465966
0.0503755
0.0546338
0.0593199
0.0643765
0.0697351
0.0753241
0.0810738
0.0869189
0.0928001
0.0986648
0.104467
0.110169
0.115739
0.121152
0.126387
0.131425
0.136255
0.140868
0.145256
8.36517e-06
0.000201664
0.000492078
0.000788777
0.00104254
0.00124381
0.00140941
0.00155089
0.00167535
0.00178737
0.00189002
0.00198551
0.00207549
0.00216125
0.00224389
0.00232431
0.00240334
0.00248165
0.00255999
0.00263903
0.00271943
0.00280179
0.00288673
0.00297483
0.00306662
0.00316262
0.00326332
0.00336917
0.00348061
0.00359808
0.00372207
0.00385312
0.00399189
0.00413922
0.00429623
0.00446438
0.00464569
0.00484284
0.0050596
0.00530121
0.00556868
0.00586438
0.0061987
0.00658204
0.00702669
0.00754676
0.00815781
0.00887653
0.00971869
0.0106988
0.0118266
0.013102
0.0145283
0.0160952
0.0177539
0.0194542
0.0211427
0.022798
0.0243963
0.0259148
0.0273346
0.0286421
0.0298274
0.030884
0.0318074
0.0325953
0.0332478
0.0337667
0.034155
0.0344168
0.0345571
0.034582
0.0344981
0.0343138
0.0340455
0.0337177
0.0333515
0.0329649
0.0325745
0.0321958
0.0318435
0.0315319
0.031275
0.031087
0.0309817
0.0309756
0.0310858
0.0313322
0.0317409
0.0323447
0.033186
0.0343178
0.0358017
0.0377028
0.0400805
0.0429775
0.0464124
0.0503652
0.0547888
0.0596284
0.0648176
0.0702831
0.0759515
0.081753
0.0876234
0.0935058
0.0993505
0.105115
0.110763
0.116265
0.121598
0.126741
0.131682
0.136409
0.140916
0.145196
9.49028e-06
0.000225829
0.000537997
0.000848003
0.00110851
0.00131395
0.00148243
0.00162598
0.00175195
0.00186504
0.0019684
0.00206428
0.00215436
0.00223995
0.00232214
0.00240186
0.00247995
0.00255717
0.00263426
0.00271198
0.00279103
0.00287195
0.00295542
0.00304208
0.00313248
0.00322714
0.00332652
0.00343107
0.00354115
0.00365709
0.00377924
0.00390792
0.0040435
0.00418643
0.0043373
0.00449684
0.00466608
0.00484635
0.00503948
0.00524789
0.00547473
0.00572481
0.0060013
0.00630438
0.00664038
0.00701878
0.00744878
0.00794127
0.00850755
0.00915935
0.0099079
0.0107625
0.0117306
0.0128144
0.0140074
0.0153036
0.0166987
0.0181535
0.0196329
0.0210977
0.02252
0.0238842
0.0251744
0.0263758
0.0274754
0.0284647
0.0293378
0.0300906
0.0307213
0.0312291
0.0316148
0.0318804
0.0320296
0.0320677
0.0320039
0.0318573
0.0316492
0.0313989
0.0311246
0.0308432
0.0305709
0.0303236
0.0301169
0.0299667
0.0298893
0.0299023
0.0300264
0.0302854
0.0307093
0.0313364
0.0322157
0.0334062
0.0349745
0.0369876
0.0395021
0.0425542
0.0461489
0.0502513
0.0548078
0.0597595
0.0650343
0.0705565
0.0762525
0.082054
0.0878996
0.0937353
0.0995148
0.105199
0.110755
0.116157
0.121383
0.126416
0.131242
0.135852
0.14024
0.144404
1.0726e-05
0.00025176
0.000585033
0.00090821
0.0011752
0.00138466
0.00155593
0.00170151
0.00182898
0.00194313
0.00204719
0.00214345
0.00223361
0.00231899
0.0024007
0.00247969
0.00255682
0.00263288
0.00270864
0.00278485
0.00286226
0.00294158
0.00302353
0.00310884
0.00319806
0.00329165
0.00339016
0.00349402
0.00360355
0.00371907
0.0038408
0.00396898
0.0041038
0.00424552
0.00439441
0.00455087
0.00471541
0.00488875
0.00507184
0.00526593
0.00547269
0.00569432
0.00593353
0.00619395
0.00648073
0.0067945
0.00713637
0.00751486
0.00793714
0.00841099
0.00894476
0.00954629
0.010223
0.010981
0.0118235
0.012752
0.0137649
0.0148524
0.0160022
0.0172069
0.0184487
0.0196989
0.0209333
0.0221283
0.0232595
0.0243182
0.0252943
0.0261786
0.0269624
0.0276403
0.0282091
0.0286668
0.0290136
0.0292517
0.0293828
0.0294193
0.0293808
0.0292866
0.0291545
0.0290012
0.028843
0.0286963
0.0285775
0.0285033
0.0284915
0.0285616
0.0287362
0.0290427
0.0295156
0.0301986
0.0311463
0.032423
0.0340985
0.0362392
0.0388968
0.0420988
0.0458309
0.0500492
0.0547013
0.0597206
0.0650322
0.0705603
0.0762331
0.081985
0.0877582
0.0935024
0.0991752
0.104741
0.110171
0.115441
0.120533
0.125432
0.130128
0.134608
0.13887
0.142911
1.20622e-05
0.000279141
0.000632562
0.00096866
0.0012419
0.00145524
0.00162922
0.0017768
0.00190572
0.0020209
0.00212562
0.00222218
0.00231233
0.00239739
0.0024785
0.00255662
0.00263264
0.0027074
0.00278169
0.00285633
0.00293211
0.00300979
0.00309015
0.0031739
0.00326173
0.00335426
0.00345208
0.00355566
0.00366511
0.00378082
0.00390299
0.00403175
0.0041672
0.00430948
0.00445869
0.00461502
0.00477871
0.00495012
0.00512977
0.00531834
0.00551675
0.0057262
0.00594823
0.00618479
0.00643838
0.00671188
0.00700935
0.00733437
0.00768635
0.00806852
0.00848812
0.00895012
0.00946031
0.0100241
0.0106455
0.0113281
0.0120735
0.0128807
0.0137466
0.0146664
0.0156318
0.0166297
0.0176465
0.0186705
0.0196935
0.0206934
0.0216532
0.0225583
0.0233906
0.0241434
0.0248116
0.0253884
0.0258706
0.0262568
0.0265427
0.0267339
0.0268474
0.0269004
0.0269093
0.02689
0.0268581
0.0268282
0.0268166
0.0268401
0.0269172
0.0270686
0.027319
0.0276986
0.0282461
0.0290098
0.0300492
0.0314323
0.0332298
0.0355051
0.0383033
0.0416358
0.045475
0.0497753
0.0544807
0.0595206
0.0648199
0.0703044
0.0759055
0.0815614
0.0872184
0.0928305
0.0983592
0.103773
0.109046
0.114157
0.119092
0.123836
0.128382
0.132723
0.136849
0.140762
1.34862e-05
0.000307623
0.000679994
0.00102864
0.0013079
0.00152496
0.00170159
0.0018511
0.00198143
0.00209758
0.00220286
0.00229963
0.00238963
0.00247421
0.00255453
0.00263157
0.00270626
0.00277949
0.00285211
0.00292499
0.00299899
0.00307494
0.00315369
0.003236
0.00332261
0.00341417
0.00351126
0.00361435
0.00372382
0.00384003
0.00396323
0.00409318
0.00423006
0.00437394
0.00452478
0.00468263
0.00484759
0.0050198
0.00519951
0.00538709
0.00558307
0.00578812
0.00600315
0.0062293
0.00646799
0.00672095
0.00699032
0.00727854
0.00758833
0.00792382
0.00828666
0.00867556
0.00909469
0.00954892
0.0100409
0.010574
0.0111508
0.0117721
0.0124378
0.0131467
0.0138948
0.0146765
0.0154844
0.0163109
0.0171472
0.0179816
0.0188022
0.0195994
0.0203705
0.0211031
0.0217848
0.022397
0.0229381
0.0234041
0.0237867
0.0240859
0.024314
0.0244854
0.0246142
0.0247147
0.0248009
0.0248865
0.0249851
0.025113
0.0252887
0.0255334
0.0258735
0.0263418
0.0269803
0.0278412
0.0289875
0.0304888
0.0324142
0.0348216
0.0377472
0.0411836
0.045095
0.0494391
0.0541541
0.0591684
0.0644082
0.069803
0.0752879
0.0808058
0.0863075
0.0917516
0.0971036
0.102336
0.107425
0.112355
0.117112
0.121684
0.126066
0.130252
0.134237
0.138018
1.49725e-05
0.000336716
0.000726627
0.00108736
0.0013724
0.00159308
0.00177227
0.00192367
0.00205534
0.00217237
0.00227812
0.00237494
0.00246461
0.0025485
0.00262778
0.00270349
0.00277659
0.00284801
0.0029187
0.00298958
0.00306158
0.00313565
0.00321268
0.00329352
0.00337896
0.0034697
0.00356632
0.00366931
0.00377906
0.00389583
0.0040198
0.00415108
0.00428978
0.00443597
0.00458915
0.00474944
0.00491688
0.00509139
0.0052731
0.00546219
0.00565891
0.00586366
0.00607699
0.00629956
0.00653225
0.00677611
0.00703241
0.00730264
0.00758853
0.00789214
0.00821553
0.00856064
0.00893079
0.0093265
0.00974578
0.0101915
0.0106667
0.0111717
0.0117076
0.0122745
0.0128703
0.0134919
0.0141355
0.0147966
0.0154685
0.0161433
0.0168143
0.0174744
0.0181181
0.0187388
0.0193316
0.0199011
0.0204305
0.0209069
0.0213225
0.0216739
0.0219696
0.0222207
0.0224382
0.0226332
0.0228175
0.0230038
0.0232037
0.0234313
0.0237045
0.0240448
0.0244797
0.0250438
0.0257818
0.0267487
0.0280092
0.0296324
0.0316837
0.0342144
0.037242
0.0407478
0.0446986
0.0490469
0.0537287
0.0586735
0.0638108
0.0690741
0.0744035
0.0797469
0.0850598
0.0903051
0.0954528
0.100478
0.105363