/*--------------------------------*- C++ -*----------------------------------*\
  =========                 |
  \\      /  F ield         | OpenFOAM: The Open Source CFD Toolbox
   \\    /   O peration     | Website:  https://openfoam.org
    \\  /    A nd           | Version:  10
     \\/     M anipulation  |
\*---------------------------------------------------------------------------*/
FoamFile
{
    format      ascii;
    class       volScalarField;
    location    "78000";
    object      nut;
}
// * * * * * * * * * * * * * * * * * * * * * * * * * * * * * * * * * * * * * //

dimensions      [0 2 -1 0 0 0 0];

internalField   nonuniform List<scalar> 
17969
(
1.55841e-08
1.28985e-06
6.48444e-06
1.31338e-05
1.75733e-05
1.87145e-05
1.77095e-05
1.72002e-05
1.762e-05
1.89895e-05
2.14152e-05
2.51561e-05
3.08452e-05
3.94693e-05
4.66201e-05
5.37532e-05
6.25757e-05
7.33655e-05
8.63496e-05
0.000101693
0.000119464
0.000139616
0.000162006
0.00018643
0.000212656
0.00024044
0.000269542
0.000299741
0.000330843
0.000362679
0.000395113
0.000428033
0.00046135
0.000494995
0.000528914
0.000563063
0.000597409
0.000631922
0.000666577
0.00070135
0.000736216
0.000771151
0.000806129
0.00084112
0.000876093
0.000911014
0.000945847
0.000980551
0.00101508
0.0010494
0.00108345
0.00111719
0.00115056
0.00118351
0.00121597
0.00124789
0.0012792
0.00130984
0.00133974
0.00136881
0.00139699
0.00142419
0.00145032
0.00147529
0.00149899
0.00152132
0.00154214
0.00156132
0.00157871
0.00159415
0.00160744
0.00161838
0.00162674
0.00163227
0.00163467
0.00163388
0.00163012
0.00162336
0.00161391
0.00158467
0.00154744
0.00151283
0.0014807
0.00145037
0.00142148
0.00139452
0.00137225
0.00136024
0.00136402
0.00138047
0.00138374
0.00136187
0.00134026
0.00131904
0.00129834
0.00127833
0.00125918
0.00124111
0.00122491
0.00121103
7.04768e-09
6.61374e-07
4.36901e-06
1.12157e-05
1.73863e-05
2.10847e-05
2.28359e-05
2.40997e-05
2.2956e-05
2.21815e-05
2.22982e-05
2.33529e-05
2.53855e-05
2.85819e-05
3.32558e-05
4.00933e-05
5.00845e-05
5.76477e-05
6.51402e-05
7.42569e-05
8.52553e-05
9.83394e-05
0.000113662
0.00013132
0.000151334
0.000173626
0.000198038
0.000224358
0.000252355
0.000281791
0.000312441
0.000344098
0.000376577
0.000409722
0.000443399
0.000477497
0.000511926
0.000546611
0.00058149
0.000616513
0.000651634
0.000686817
0.000722024
0.000757223
0.00079238
0.00082746
0.00086243
0.000897251
0.000931885
0.000966289
0.00100042
0.00103423
0.00106767
0.00110069
0.00113323
0.00116524
0.00119665
0.00122739
0.00125741
0.00128663
0.00131496
0.00134235
0.00136868
0.00139388
0.00141784
0.00144044
0.00146158
0.00148111
0.00149889
0.00151475
0.00152851
0.00153997
0.00154889
0.00155503
0.00155811
0.00155809
0.00155522
0.00154943
0.00154105
0.00150905
0.0014714
0.00143682
0.00140503
0.00137576
0.00134875
0.00132359
0.00130046
0.00128139
0.001271
0.00127479
0.00129312
0.00130841
0.00128859
0.00126919
0.00125035
0.00123222
0.00121498
0.00119884
0.00118454
0.00117247
2.79158e-09
2.81685e-07
2.44243e-06
7.8558e-06
1.40202e-05
1.85527e-05
2.0978e-05
2.31415e-05
2.56359e-05
2.83228e-05
2.84595e-05
2.75971e-05
2.74469e-05
2.81852e-05
2.98397e-05
3.25115e-05
3.64551e-05
4.2027e-05
4.99455e-05
6.11741e-05
6.8846e-05
7.66096e-05
8.59412e-05
9.7084e-05
0.000110228
0.000125514
0.000143031
0.000162818
0.000184855
0.000209045
0.000235227
0.000263189
0.000292703
0.000323536
0.000355473
0.000388313
0.00042188
0.000456021
0.000490605
0.00052552
0.000560672
0.000595981
0.000631379
0.000666806
0.00070221
0.000737542
0.000772759
0.000807817
0.000842674
0.000877286
0.00091161
0.000945601
0.000979209
0.00101239
0.00104508
0.00107723
0.00110879
0.00113969
0.00116986
0.00119923
0.00122775
0.00125531
0.00128184
0.00130726
0.00133145
0.00135432
0.00137574
0.00139559
0.00141371
0.00142995
0.00144413
0.00145605
0.00146549
0.00147221
0.00147594
0.00147666
0.00147465
0.00146995
0.00146276
0.00143004
0.00139236
0.00135786
0.0013262
0.00129729
0.0012712
0.00124775
0.00122664
0.00120794
0.00119306
0.00118551
0.00119022
0.00120983
0.00123359
0.00121632
0.00119959
0.00118361
0.00116855
0.00115468
0.00114265
0.00113271
1.35917e-09
1.40418e-07
1.37944e-06
5.29165e-06
1.07593e-05
1.55937e-05
1.86518e-05
2.05125e-05
2.28074e-05
2.55074e-05
2.86097e-05
3.2031e-05
3.44639e-05
3.37255e-05
3.33347e-05
3.37383e-05
3.50201e-05
3.72427e-05
4.05565e-05
4.52644e-05
5.17306e-05
6.06749e-05
7.30017e-05
8.03898e-05
8.83684e-05
9.78625e-05
0.000109101
0.00012226
0.000137472
0.000154819
0.000174339
0.000196026
0.000219823
0.000245623
0.000273264
0.000302546
0.000333246
0.000365141
0.000398016
0.000431677
0.000465947
0.000500676
0.00053573
0.000570997
0.000606378
0.000641789
0.000677155
0.000712409
0.000747491
0.000782345
0.000816917
0.000851154
0.000885004
0.000918416
0.000951336
0.000983708
0.00101548
0.00104658
0.00107695
0.00110653
0.00113524
0.00116301
0.00118975
0.00121538
0.0012398
0.00126291
0.00128459
0.00130472
0.00132315
0.00133973
0.00135428
0.00136663
0.00137655
0.00138386
0.00138827
0.00138979
0.00138869
0.00138526
0.00137946
0.00134776
0.00131042
0.00127629
0.00124508
0.00121664
0.00119114
0.00116868
0.00114919
0.00113259
0.00111898
0.00110932
0.00110613
0.00111354
0.00113459
0.00116028
0.00114661
0.00113305
0.00112046
0.00110918
0.00109971
0.00109221
0.00108673
0.00108347
0.00108263
0.00108436
8.91373e-10
9.19635e-08
9.20351e-07
3.8578e-06
8.56621e-06
1.34119e-05
1.71511e-05
1.92861e-05
2.0846e-05
2.28688e-05
2.53789e-05
2.8393e-05
3.18855e-05
3.58094e-05
3.98778e-05
4.06567e-05
4.01243e-05
4.02139e-05
4.11079e-05
4.29063e-05
4.57059e-05
4.96792e-05
5.51553e-05
6.24835e-05
7.23702e-05
8.54808e-05
9.24006e-05
0.00010053
0.000110123
0.000121395
0.000134514
0.000149602
0.000166736
0.00018595
0.000207237
0.000230549
0.000255802
0.000282869
0.000311591
0.000341778
0.000373223
0.000405713
0.000439043
0.000473021
0.000507474
0.000542248
0.00057721
0.000612241
0.00064724
0.000682114
0.000716783
0.000751172
0.000785212
0.000818837
0.000851985
0.000884592
0.000916596
0.000947934
0.00097854
0.00100835
0.00103728
0.00106527
0.00109223
0.00111808
0.00114273
0.00116606
0.00118798
0.00120837
0.00122708
0.00124397
0.00125889
0.00127167
0.00128214
0.00129011
0.00129535
0.00129787
0.00129797
0.00129599
0.00129176
0.00126306
0.00122647
0.00119306
0.00116276
0.00113526
0.00111073
0.00108929
0.00107105
0.00105613
0.00104462
0.00103676
0.00103328
0.00103602
0.00104839
0.00107204
0.00109201
0.00108116
0.00107131
0.00106287
0.00105623
0.00105149
0.0010488
0.00104835
0.00105034
0.00105491
7.0743e-10
7.27706e-08
7.20624e-07
3.12674e-06
7.27793e-06
1.20218e-05
1.63314e-05
1.9479e-05
2.11781e-05
2.22611e-05
2.3753e-05
2.57705e-05
2.83662e-05
3.15457e-05
3.52918e-05
3.95752e-05
4.41967e-05
4.82575e-05
4.78503e-05
4.76672e-05
4.82524e-05
4.96515e-05
5.19797e-05
5.5376e-05
6.00405e-05
6.63083e-05
7.45283e-05
8.53481e-05
9.78847e-05
0.000104934
0.000113154
0.000122784
0.000134031
0.000147051
0.000161959
0.000178823
0.00019767
0.000218487
0.000241224
0.000265799
0.000292099
0.000319986
0.000349299
0.000379857
0.000411471
0.000443946
0.000477092
0.000510725
0.00054468
0.000578802
0.000612955
0.000647015
0.000680873
0.000714429
0.000747592
0.000780277
0.000812405
0.000843897
0.000874679
0.000904675
0.000933808
0.000962
0.000989169
0.00101523
0.00104009
0.00106365
0.00108582
0.00110647
0.00112549
0.00114275
0.00115812
0.00117146
0.00118263
0.00119149
0.00119781
0.00120159
0.00120314
0.00120281
0.00120036
0.00117746
0.00114233
0.00111004
0.00108106
0.00105496
0.00103186
0.0010119
0.000995203
0.000981943
0.000972375
0.000966799
0.000965631
0.000969485
0.000979578
0.000999305
0.00102751
0.00102858
0.00102174
0.00101636
0.00101278
0.00101111
0.00101153
0.00101422
0.00101938
0.00102711
6.20751e-10
6.37683e-08
6.22981e-07
2.73647e-06
6.51261e-06
1.10878e-05
1.56898e-05
1.97066e-05
2.26528e-05
2.42323e-05
2.48743e-05
2.57901e-05
2.7118e-05
2.90333e-05
3.1603e-05
3.48394e-05
3.87308e-05
4.32516e-05
4.83002e-05
5.35274e-05
5.62139e-05
5.61619e-05
5.65196e-05
5.76018e-05
5.95258e-05
6.24242e-05
6.64822e-05
7.19218e-05
7.90347e-05
8.81814e-05
9.99449e-05
0.000110974
0.000118096
0.000126346
0.000135951
0.0001471
0.000159942
0.000174579
0.000191072
0.00020944
0.000229665
0.000251692
0.000275434
0.000300782
0.000327603
0.00035575
0.000385058
0.000415358
0.000446471
0.00047822
0.000510429
0.00054293
0.000575563
0.00060818
0.000640642
0.000672822
0.000704603
0.000735876
0.00076654
0.000796497
0.000825654
0.000853921
0.000881208
0.000907424
0.000932478
0.000956276
0.000978722
0.000999716
0.00101915
0.00103693
0.00105293
0.00106706
0.00107918
0.00108919
0.00109685
0.00110212
0.00110526
0.00110656
0.00110613
0.00109311
0.00106023
0.00102932
0.00100199
0.000977743
0.000956593
0.000938633
0.000923977
0.000912864
0.000905635
0.000902712
0.000904596
0.000911587
0.000923713
0.000943436
0.000971205
0.000976046
0.000972388
0.000970285
0.000970019
0.000971699
0.000975516
0.000981659
0.00099027
0.00100143
0.00101513
5.73848e-10
5.89763e-08
5.68789e-07
2.50583e-06
6.02392e-06
1.04146e-05
1.5087e-05
1.95878e-05
2.35163e-05
2.65023e-05
2.82358e-05
2.88072e-05
2.91415e-05
2.97991e-05
3.09011e-05
3.26206e-05
3.50662e-05
3.82672e-05
4.22207e-05
4.69056e-05
5.23035e-05
5.81041e-05
6.38985e-05
6.55352e-05
6.59351e-05
6.68427e-05
6.84585e-05
7.09597e-05
7.45015e-05
7.92989e-05
8.55856e-05
9.35731e-05
0.000103649
0.000116316
0.000124874
0.000132006
0.000140212
0.000149701
0.000160649
0.000173189
0.000187416
0.000203385
0.000221109
0.000240566
0.000261698
0.000284415
0.000308605
0.000334137
0.000360864
0.00038863
0.000417272
0.000446621
0.00047651
0.000506772
0.000537244
0.000567767
0.000598191
0.000628374
0.000658179
0.000687479
0.000716154
0.00074409
0.000771179
0.000797316
0.000822402
0.000846338
0.000869029
0.000890379
0.000910294
0.000928679
0.000945441
0.000960484
0.000973708
0.000985007
0.000994126
0.00100098
0.0010058
0.00100885
0.00101044
0.00101015
0.000981773
0.000953103
0.000927972
0.000906161
0.000887494
0.000872055
0.000860063
0.000851871
0.000847899
0.000848503
0.000854087
0.000864797
0.000880108
0.000901437
0.000925887
0.000924252
0.00092395
0.00092532
0.00092857
0.000933847
0.000941333
0.000951182
0.000963494
0.0009783
0.00099555
0.00101512
0.0010368
5.48993e-10
5.6505e-08
5.37721e-07
2.36106e-06
5.69429e-06
9.91258e-06
1.45367e-05
1.92366e-05
2.37311e-05
2.77388e-05
3.09663e-05
3.31226e-05
3.39979e-05
3.39432e-05
3.39988e-05
3.43482e-05
3.51455e-05
3.65806e-05
3.88018e-05
4.18708e-05
4.58038e-05
5.05891e-05
5.6208e-05
6.24615e-05
6.8969e-05
7.53181e-05
7.64426e-05
7.73366e-05
7.88248e-05
8.10403e-05
8.41905e-05
8.84567e-05
9.40757e-05
0.000101263
0.00011015
0.000121132
0.000133379
0.000139661
0.000146725
0.00015479
0.000164047
0.000174656
0.000186739
0.000200382
0.000215636
0.000232511
0.000250983
0.000270993
0.000292452
0.000315245
0.00033924
0.00036429
0.000390239
0.000416927
0.000444188
0.000471859
0.000499777
0.000527784
0.000555726
0.000583456
0.00061083
0.000637714
0.00066398
0.000689506
0.000714176
0.00073788
0.000760514
0.000781977
0.000802174
0.000821011
0.000838397
0.000854243
0.000868456
0.000880934
0.000891396
0.000899722
0.000906114
0.000910843
0.000914258
0.000916072
0.000907354
0.000884326
0.000862544
0.000843493
0.000827619
0.000815351
0.000807005
0.00080286
0.000803206
0.000807971
0.000816813
0.000829333
0.000846385
0.000867416
0.000872164
0.000873814
0.000876995
0.000881981
0.000888945
0.000898043
0.000909425
0.000923198
0.000939406
0.000958024
0.000978946
0.001002
0.00102693
0.00105346
5.40461e-10
5.57543e-08
5.22941e-07
2.27564e-06
5.47963e-06
9.55455e-06
1.40842e-05
1.88138e-05
2.35497e-05
2.81053e-05
3.22759e-05
3.58287e-05
3.85046e-05
4.00365e-05
4.03081e-05
3.98442e-05
3.95702e-05
3.95598e-05
3.99751e-05
4.10307e-05
4.29092e-05
4.57117e-05
4.94834e-05
5.42279e-05
5.99268e-05
6.65265e-05
7.36123e-05
8.07739e-05
8.74002e-05
8.89232e-05
9.04684e-05
9.26352e-05
9.55721e-05
9.94944e-05
0.000104619
0.00011117
0.00011928
0.000129129
0.000140996
0.000149146
0.000155347
0.000162258
0.000170076
0.000178973
0.000189091
0.000200544
0.000213411
0.000227738
0.000243536
0.000260779
0.000279409
0.000299337
0.000320451
0.00034262
0.000365698
0.00038953
0.000413956
0.000438815
0.000463944
0.000489184
0.000514382
0.000539389
0.000564059
0.000588256
0.000611852
0.000634722
0.000656751
0.000677827
0.000697848
0.000716715
0.000734337
0.000750623
0.000765482
0.000778817
0.000790323
0.000799845
0.000807561
0.00081371
0.000818561
0.000822446
0.000824836
0.000823325
0.000807197
0.000792909
0.000782063
0.000774784
0.000771137
0.000770888
0.000773656
0.000779545
0.000788361
0.000794911
0.000802977
0.000815225
0.000820057
0.000825107
0.000831894
0.000840647
0.000851517
0.000864637
0.000880109
0.000897979
0.000918229
0.000940766
0.000965423
0.000991969
0.00102012
0.00104956
0.00107994
0.00111095
5.4686e-10
5.65795e-08
5.22454e-07
2.24129e-06
5.36774e-06
9.34331e-06
1.37858e-05
1.84808e-05
2.32844e-05
2.80736e-05
3.27202e-05
3.70764e-05
4.09649e-05
4.41736e-05
4.64583e-05
4.75632e-05
4.74158e-05
4.66088e-05
4.59848e-05
4.55834e-05
4.55609e-05
4.61481e-05
4.75589e-05
4.99447e-05
5.33985e-05
5.79562e-05
6.36142e-05
7.03694e-05
7.79017e-05
8.5752e-05
9.3559e-05
0.000100929
0.000103254
0.000105596
0.000108595
0.000112427
0.000117309
0.000123479
0.000131045
0.000140118
0.000150901
0.000160269
0.000165898
0.00017195
0.000178616
0.000186072
0.000194472
0.000203946
0.000214596
0.000226495
0.000239684
0.000254169
0.000269925
0.000286896
0.000304997
0.000324119
0.000344136
0.000364908
0.000386284
0.000408108
0.000430224
0.000452476
0.000474708
0.000496773
0.00051853
0.000539844
0.000560584
0.000580629
0.000599868
0.000618197
0.000635519
0.000651742
0.000666777
0.000680528
0.000692674
0.000703031
0.000711755
0.000719066
0.000725218
0.00073059
0.000735071
0.000738462
0.000740867
0.000742519
0.000743641
0.000744442
0.000745112
0.000745838
0.000742298
0.000739389
0.0007387
0.000740589
0.000745791
0.000755918
0.000769816
0.000778428
0.00078898
0.000801667
0.00081662
0.000833935
0.000853652
0.000875748
0.000900128
0.000926625
0.000955009
0.000984992
0.00101625
0.00104845
0.00108123
0.00111427
0.00114725
0.0011799
0.00121198
0.00124328
5.67753e-10
5.89533e-08
5.35442e-07
2.25395e-06
5.35208e-06
9.27961e-06
1.36718e-05
1.83331e-05
2.31434e-05
2.80125e-05
3.28572e-05
3.75891e-05
4.2104e-05
4.62745e-05
4.99415e-05
5.29095e-05
5.49448e-05
5.57971e-05
5.5381e-05
5.42693e-05
5.33118e-05
5.25294e-05
5.20553e-05
5.21103e-05
5.29428e-05
5.47662e-05
5.7731e-05
6.19188e-05
6.7353e-05
7.40325e-05
8.18163e-05
9.02294e-05
9.87859e-05
0.000107243
0.000115402
0.000119658
0.000123071
0.000127097
0.000132032
0.000138142
0.000145547
0.000154261
0.000164354
0.000172697
0.000178034
0.000183528
0.00018936
0.000195701
0.000202704
0.000210503
0.000219211
0.000228915
0.000239679
0.000251535
0.000264488
0.000278511
0.000293551
0.000309529
0.000326347
0.000343884
0.000362012
0.000380589
0.000399466
0.000418502
0.000437552
0.000456472
0.000475123
0.000493376
0.000511114
0.000528224
0.000544606
0.000560163
0.000574807
0.000588444
0.000600746
0.000611503
0.000620849
0.000628968
0.000636067
0.000642416
0.000648452
0.000653797
0.000658473
0.000662612
0.00066636
0.000669871
0.000673312
0.000676851
0.000680658
0.000684947
0.000689947
0.00069464
0.000699737
0.000708837
0.000722091
0.000734364
0.000748793
0.000765538
0.000784704
0.00080633
0.000830384
0.00085676
0.000885278
0.00091569
0.0009477
0.000980971
0.00101515
0.00104986
0.00108478
0.00111957
0.00115393
0.00118763
0.00122044
0.00125218
6.03296e-10
6.29106e-08
5.61631e-07
2.31079e-06
5.42626e-06
9.35707e-06
1.37468e-05
1.84074e-05
2.32267e-05
2.8128e-05
3.30493e-05
3.79328e-05
4.27178e-05
4.7334e-05
5.1695e-05
5.56914e-05
5.91825e-05
6.19882e-05
6.3889e-05
6.46398e-05
6.4118e-05
6.27922e-05
6.15605e-05
6.04557e-05
5.956e-05
5.90769e-05
5.9281e-05
6.04358e-05
6.27526e-05
6.63695e-05
7.13529e-05
7.77153e-05
8.54852e-05
9.4222e-05
0.000103417
0.000112674
0.000121793
0.000130617
0.000138426
0.000143342
0.000148728
0.000155101
0.000162623
0.000171415
0.000180279
0.000185777
0.000191074
0.000196326
0.000201685
0.000207298
0.000213302
0.000219824
0.000226974
0.000234846
0.000243513
0.000253024
0.000263406
0.000274659
0.000286756
0.000299651
0.000313272
0.000327529
0.000342322
0.000357536
0.000373044
0.000388721
0.000404433
0.00042006
0.000435486
0.000450597
0.000465289
0.000479463
0.000493038
0.000505924
0.000517798
0.000528432
0.000537931
0.000546445
0.000554131
0.000561177
0.000567843
0.000574564
0.000580987
0.000587117
0.000593066
0.000598957
0.000604927
0.000611123
0.000617707
0.000624866
0.000632813
0.000641792
0.000652083
0.000663983
0.000677779
0.00069373
0.000712066
0.000732914
0.000756332
0.000782293
0.000810677
0.000841281
0.000873831
0.000908002
0.000943429
0.00097973
0.00101653
0.00105345
0.00109015
0.00112633
0.00116173
0.00119611
0.0012293
0.00126116
6.5364e-10
6.8494e-08
6.00799e-07
2.40891e-06
5.58225e-06
9.56261e-06
1.39976e-05
1.87006e-05
2.3557e-05
2.84948e-05
3.34597e-05
3.8407e-05
4.32962e-05
4.80866e-05
5.27335e-05
5.71825e-05
6.13646e-05
6.5189e-05
6.85355e-05
7.12473e-05
7.31237e-05
7.39218e-05
7.34918e-05
7.21132e-05
7.06757e-05
6.93316e-05
6.81116e-05
6.71647e-05
6.6764e-05
6.72079e-05
6.8767e-05
7.16485e-05
7.59845e-05
8.18359e-05
8.92376e-05
9.79722e-05
0.000107534
0.000117418
0.000127332
0.000137059
0.00014647
0.000155465
0.000163991
0.000171981
0.000179398
0.000186245
0.000192578
0.000198482
0.000204061
0.000209431
0.00021471
0.000220017
0.000225471
0.000231181
0.000237249
0.000243763
0.000250798
0.000258409
0.000266634
0.00027549
0.000284975
0.000295063
0.000305717
0.000316878
0.00032847
0.000340409
0.000352607
0.000364969
0.000377397
0.000389791
0.000402062
0.000414125
0.000425909
0.000437336
0.000448105
0.000458
0.000467091
0.000475493
0.000483323
0.00049071
0.000497808
0.000504839
0.000512166
0.000519722
0.000527324
0.000535093
0.000543138
0.000551578
0.000560557
0.000570246
0.000580852
0.000592625
0.000605853
0.000620858
0.000637964
0.000657471
0.000679611
0.000704487
0.00073208
0.000762276
0.000794855
0.000829506
0.000865857
0.000903501
0.000942014
0.000980979
0.00102
0.00105871
0.00109679
0.00113396
0.00116997
0.00120466
0.00123786
0.00126947
7.19386e-10
7.57705e-08
6.52883e-07
2.54586e-06
5.81226e-06
9.88058e-06
1.43991e-05
1.91779e-05
2.41034e-05
2.91e-05
3.41135e-05
3.91031e-05
4.40365e-05
4.88869e-05
5.36299e-05
5.82406e-05
6.26898e-05
6.69401e-05
7.094e-05
7.46178e-05
7.78734e-05
8.05708e-05
8.25291e-05
8.35077e-05
8.33484e-05
8.21228e-05
8.05695e-05
7.90983e-05
7.76866e-05
7.64091e-05
7.54999e-05
7.52699e-05
7.60334e-05
7.80638e-05
8.15596e-05
8.66355e-05
9.33412e-05
0.000101721
0.000111295
0.000121526
0.000132003
0.000142463
0.000152695
0.000162543
0.000171889
0.000180679
0.000188871
0.000196471
0.000203522
0.000210079
0.000216216
0.000222015
0.000227568
0.000232967
0.000238307
0.000243678
0.000249167
0.00025485
0.000260795
0.000267057
0.000273677
0.000280681
0.00028808
0.000295873
0.000304036
0.000312535
0.000321334
0.000330386
0.000339636
0.000349026
0.000358495
0.000367992
0.000377469
0.000386871
0.000395953
0.000404529
0.000412641
0.000420371
0.000427806
0.000435042
0.000442178
0.000449337
0.000456677
0.000464397
0.000472727
0.000481636
0.000491065
0.000501067
0.000511785
0.000523391
0.000536093
0.000550147
0.000565862
0.000583587
0.000603678
0.000626459
0.00065216
0.000680853
0.000712412
0.000746614
0.000783117
0.000821496
0.000861278
0.00090198
0.00094313
0.000984287
0.00102505
0.00106507
0.00110405
0.00114174
0.00117795
0.00121252
0.00124535
0.00127636
0.00130553
8.02109e-10
8.48677e-08
7.18299e-07
2.7157e-06
6.09916e-06
1.02922e-05
1.49345e-05
1.98282e-05
2.48538e-05
2.99321e-05
3.50072e-05
4.00388e-05
4.49981e-05
4.98643e-05
5.4623e-05
5.92637e-05
6.37778e-05
6.81554e-05
7.23827e-05
7.64373e-05
8.02837e-05
8.38665e-05
8.71034e-05
8.98763e-05
9.20244e-05
9.33217e-05
9.35774e-05
9.27071e-05
9.11858e-05
8.97072e-05
8.82377e-05
8.67958e-05
8.55349e-05
8.47489e-05
8.47704e-05
8.59218e-05
8.84706e-05
9.26066e-05
9.84332e-05
0.000106023
0.000115156
0.000125334
0.000136034
0.000146908
0.000157686
0.000168163
0.000178198
0.000187704
0.000196663
0.000205055
0.000212894
0.000220213
0.000227061
0.000233492
0.00023957
0.000245365
0.000250946
0.000256384
0.000261746
0.000267096
0.00027249
0.000277977
0.000283595
0.000289374
0.000295331
0.000301472
0.0003078
0.000314305
0.000320976
0.000327795
0.000334742
0.000341801
0.000348959
0.000356204
0.000363369
0.000370298
0.000377035
0.000383644
0.000390196
0.000396766
0.000403435
0.00041029
0.000417432
0.000424972
0.000433032
0.000441736
0.000451267
0.000461744
0.000473258
0.000485942
0.000499988
0.000515638
0.000533202
0.000553081
0.000575672
0.000601315
0.000630216
0.00066239
0.000697596
0.000735449
0.000775475
0.000817127
0.000859839
0.000903063
0.000946293
0.00098908
0.00103103
0.00107183
0.0011112
0.00114894
0.00118489
0.00121894
0.00125102
0.00128109
0.00130915
9.03912e-10
9.59965e-08
7.95199e-07
2.9181e-06
6.45339e-06
1.08036e-05
1.5598e-05
2.06309e-05
2.57768e-05
3.0952e-05
3.60984e-05
4.11752e-05
4.61548e-05
5.10198e-05
5.5761e-05
6.03759e-05
6.48663e-05
6.92371e-05
7.34936e-05
7.76393e-05
8.16726e-05
8.55831e-05
8.93468e-05
9.29205e-05
9.62346e-05
9.91847e-05
0.000101625
0.000103348
0.000104108
0.000103783
0.000102545
0.000101151
9.97351e-05
9.82908e-05
9.68631e-05
9.56926e-05
9.51036e-05
9.54424e-05
9.70312e-05
0.000100122
0.000104877
0.000111376
0.000119663
0.000129317
0.000139827
0.000150743
0.000161748
0.000172603
0.000183142
0.000193259
0.000202887
0.000212002
0.000220602
0.000228692
0.000236293
0.000243445
0.000250185
0.000256561
0.000262621
0.000268417
0.000273999
0.000279414
0.000284707
0.000289917
0.000295077
0.000300216
0.000305357
0.000310517
0.000315707
0.000320938
0.00032622
0.000331563
0.000336983
0.000342493
0.000347987
0.000353372
0.000358699
0.000364035
0.000369451
0.000375021
0.000380821
0.000386931
0.000393439
0.000400438
0.000408029
0.000416325
0.000425452
0.000435553
0.000446791
0.000459373
0.000473566
0.000489721
0.000508259
0.0005296
0.000554147
0.000582214
0.000613937
0.000649221
0.000687683
0.000728735
0.000771759
0.000816099
0.000861112
0.00090621
0.000950874
0.000994662
0.00103721
0.00107822
0.00111746
0.00115477
0.00119004
0.00122317
0.00125416
0.00128298
0.00130967
1.02393e-09
1.09132e-07
8.81719e-07
3.15332e-06
6.86689e-06
1.13981e-05
1.63649e-05
2.15534e-05
2.68319e-05
3.21125e-05
3.73346e-05
4.24569e-05
4.74525e-05
5.23067e-05
5.70141e-05
6.15775e-05
6.60056e-05
7.03117e-05
7.45119e-05
7.86234e-05
8.26621e-05
8.66407e-05
9.0565e-05
9.44316e-05
9.82228e-05
0.000101902
0.000105405
0.000108638
0.000111463
0.000113691
0.000115046
0.000115397
0.000114696
0.000113467
0.000112202
0.000110878
0.000109467
0.000108112
0.000107106
0.000106789
0.000107509
0.000109563
0.000113175
0.000118473
0.000125531
0.000134184
0.000144013
0.000154545
0.000165416
0.000176349
0.00018714
0.000197651
0.00020779
0.000217494
0.000226731
0.000235507
0.000243816
0.000251672
0.000259094
0.000266114
0.000272762
0.000279071
0.000285075
0.000290807
0.0002963
0.000301585
0.00030669
0.000311641
0.00031646
0.000321168
0.000325786
0.000330337
0.000334848
0.000339349
0.000343771
0.000348063
0.000352295
0.000356545
0.000360894
0.000365425
0.000370222
0.000375375
0.000380978
0.000387128
0.000393932
0.000401509
0.00040999
0.000419533
0.000430333
0.000442637
0.000456766
0.000473125
0.000492191
0.000514466
0.000540404
0.000570308
0.000604242
0.000641982
0.00068298
0.000726481
0.000771732
0.000817981
0.000864523
0.000910741
0.00095612
0.00100024
0.00104276
0.00108343
0.00112205
0.00115849
0.00119267
0.00122455
0.00125414
0.00128145
0.00130654
0.00132946
1.16389e-09
1.24247e-07
9.77349e-07
3.41517e-06
7.32603e-06
1.20552e-05
1.72081e-05
2.25623e-05
2.79796e-05
3.33681e-05
3.86648e-05
4.3828e-05
4.88325e-05
5.36662e-05
5.83276e-05
6.28242e-05
6.71702e-05
7.13852e-05
7.54924e-05
7.95175e-05
8.34863e-05
8.74233e-05
9.135e-05
9.52825e-05
9.92289e-05
0.000103187
0.00010714
0.000111053
0.000114865
0.000118485
0.000121781
0.000124579
0.000126623
0.000127681
0.000127663
0.000126775
0.000125732
0.000124598
0.000123359
0.000122023
0.000120824
0.000120071
0.0001201
0.000121237
0.000123739
0.000127779
0.00013343
0.000140746
0.00014945
0.000159165
0.000169502
0.00018015
0.000190869
0.000201484
0.000211872
0.000221947
0.00023165
0.000240944
0.000249811
0.00025826
0.000266288
0.000273904
0.000281122
0.000287962
0.000294445
0.000300592
0.000306423
0.00031196
0.000317223
0.00032223
0.000327001
0.000331559
0.000335933
0.000340151
0.000344157
0.000347922
0.00035153
0.000355075
0.000358651
0.000362353
0.000366282
0.000370541
0.000375237
0.000380485
0.000386409
0.000393144
0.000400845
0.000409694
0.000419922
0.000431824
0.00044578
0.000462261
0.000481806
0.000504968
0.000532207
0.000563778
0.000599634
0.000639399
0.000682351
0.000727599
0.000774313
0.000821682
0.000868981
0.000915595
0.00096102
0.00100486
0.0010468
0.00108664
0.0011242
0.00115939
0.00119217
0.00122252
0.00125047
0.00127606
0.00129938
0.0013205
1.32338e-09
1.41354e-07
1.08286e-06
3.69751e-06
7.81776e-06
1.27558e-05
1.81028e-05
2.3627e-05
2.9184e-05
3.46781e-05
4.00431e-05
4.52382e-05
5.02407e-05
5.50418e-05
5.96448e-05
6.40619e-05
6.83127e-05
7.24218e-05
7.64187e-05
8.03353e-05
8.42041e-05
8.80568e-05
9.1923e-05
9.5829e-05
9.97958e-05
0.000103838
0.000107961
0.000112159
0.000116414
0.000120686
0.000124917
0.000129014
0.000132852
0.000136262
0.000139017
0.000140793
0.000141535
0.000141233
0.000140443
0.000139554
0.000138589
0.000137464
0.000136299
0.000135363
0.00013496
0.000135403
0.000136966
0.000139849
0.00014418
0.000149996
0.000157261
0.000165731
0.000175101
0.000185051
0.000195316
0.000205685
0.000215999
0.000226144
0.000236039
0.000245622
0.000254853
0.000263705
0.000272162
0.000280229
0.000287901
0.000295182
0.000302075
0.000308588
0.000314731
0.000320514
0.000325948
0.000331047
0.000335829
0.000340314
0.000344437
0.000348172
0.000351613
0.000354868
0.000358041
0.000361244
0.000364589
0.000368194
0.000372184
0.000376692
0.000381859
0.000387847
0.000394837
0.000403046
0.00041275
0.0004243
0.00043814
0.000454808
0.000474905
0.000499007
0.000527549
0.000560695
0.000598254
0.000639666
0.000684048
0.000730444
0.00077797
0.000825795
0.000873198
0.000919585
0.000964483
0.00100753
0.00104845
0.00108706
0.00112324
0.00115691
0.00118805
0.00121667
0.00124281
0.00126656
0.001288
0.00130723
1.50405e-09
1.60521e-07
1.19815e-06
3.9994e-06
8.33515e-06
1.3488e-05
1.90334e-05
2.47279e-05
3.04194e-05
3.60085e-05
4.14298e-05
4.66437e-05
5.163e-05
5.63843e-05
6.09148e-05
6.52406e-05
6.93857e-05
7.3378e-05
7.7254e-05
8.10515e-05
8.48086e-05
8.85611e-05
9.2344e-05
9.61893e-05
0.000100125
0.000104173
0.00010835
0.000112664
0.000117117
0.000121695
0.000126376
0.000131116
0.000135854
0.000140498
0.000144925
0.000148971
0.000152433
0.000155003
0.000156502
0.00015692
0.000156496
0.000155911
0.000155249
0.000154484
0.000153575
0.000152721
0.000152179
0.000152221
0.000153119
0.000155086
0.000158271
0.000162749
0.000168517
0.000175518
0.000183558
0.0001924
0.000201805
0.000211539
0.000221415
0.000231288
0.000241047
0.000250613
0.000259922
0.000268927
0.000277592
0.000285892
0.000293806
0.000301321
0.000308437
0.000315143
0.000321434
0.000327307
0.000332771
0.000337829
0.000342397
0.000346437
0.000350048
0.000353346
0.000356446
0.000359467
0.000362534
0.000365777
0.000369337
0.000373362
0.00037801
0.00038347
0.000389955
0.000397715
0.00040708
0.00041846
0.000432367
0.000449407
0.00047022
0.000495383
0.00052526
0.000559889
0.000598921
0.000641591
0.000686901
0.000733895
0.000781657
0.000829363
0.000876319
0.000921965
0.000965865
0.00100769
0.00104722
0.00108428
0.00111879
0.00115072
0.00118005
0.00120681
0.00123105
0.00125287
0.00127238
0.00128969
1.70637e-09
1.81648e-07
1.32065e-06
4.31681e-06
8.87494e-06
1.42468e-05
1.99909e-05
2.58521e-05
3.16715e-05
3.73464e-05
4.28118e-05
4.80299e-05
5.29844e-05
5.76755e-05
6.21169e-05
6.63322e-05
7.03527e-05
7.42153e-05
7.79609e-05
8.16326e-05
8.5275e-05
8.89212e-05
9.26125e-05
9.63856e-05
0.000100272
0.000104298
0.000108484
0.000112847
0.000117394
0.000122128
0.000127042
0.000132116
0.000137321
0.000142612
0.000147921
0.00015316
0.000158209
0.000162909
0.000167073
0.000170447
0.00017269
0.000173879
0.000174059
0.0001738
0.000173462
0.000173132
0.000172672
0.000172139
0.000171751
0.000171729
0.00017231
0.000173703
0.000176061
0.000179485
0.000184014
0.000189617
0.000196229
0.000203719
0.000211906
0.000220618
0.000229673
0.000238901
0.000248168
0.000257366
0.00026641
0.000275231
0.000283774
0.000291996
0.000299853
0.000307314
0.000314353
0.000320949
0.000327092
0.000332771
0.000337871
0.000342339
0.000346275
0.000349798
0.000353029
0.000356091
0.000359117
0.000362245
0.000365624
0.000369418
0.000373803
0.000378984
0.000385206
0.000392766
0.000402038
0.000413496
0.000427717
0.000445361
0.000467087
0.000493427
0.000524647
0.000560629
0.000600838
0.000644338
0.000690104
0.000737184
0.000784667
0.000831758
0.000877804
0.000922286
0.000964809
0.00100509
0.00104292
0.00107818
0.00111081
0.0011408
0.00116817
0.00119298
0.00121528
0.00123515
0.00125271
0.00126811
1.92858e-09
2.04464e-07
1.44872e-06
4.64549e-06
9.42964e-06
1.50209e-05
2.09597e-05
2.69794e-05
3.29148e-05
3.86609e-05
4.41536e-05
4.93586e-05
5.42642e-05
5.88766e-05
6.32155e-05
6.73109e-05
7.12004e-05
7.49265e-05
7.85347e-05
8.20716e-05
8.55836e-05
8.91152e-05
9.27093e-05
9.64072e-05
0.00010024
0.000104232
0.000108411
0.000112796
0.000117398
0.000122225
0.000127276
0.000132547
0.000138021
0.000143677
0.000149476
0.000155371
0.000161294
0.000167155
0.000172839
0.000178196
0.000183042
0.000187179
0.000190262
0.000192218
0.000193169
0.00019334
0.000193392
0.00019345
0.000193554
0.000193556
0.000193579
0.000193814
0.000194435
0.000195629
0.000197551
0.000200301
0.000203932
0.000208465
0.000213863
0.000220046
0.000226924
0.000234377
0.000242262
0.000250451
0.000258827
0.000267255
0.000275625
0.000283844
0.000291836
0.000299538
0.000306896
0.000313866
0.000320405
0.000326475
0.000331946
0.000336743