/*--------------------------------*- C++ -*----------------------------------*\
  =========                 |
  \\      /  F ield         | OpenFOAM: The Open Source CFD Toolbox
   \\    /   O peration     | Website:  https://openfoam.org
    \\  /    A nd           | Version:  10
     \\/     M anipulation  |
\*---------------------------------------------------------------------------*/
FoamFile
{
    format      ascii;
    class       volVectorField;
    location    "78000";
    object      U;
}
// * * * * * * * * * * * * * * * * * * * * * * * * * * * * * * * * * * * * * //

dimensions      [0 1 -1 0 0 0 0];

internalField   nonuniform List<vector> 
17969
(
(0.0995651 1.52584 0)
(-0.0372634 1.56204 0)
(-0.0193944 1.58984 -4.13658e-18)
(-0.0152439 1.61977 5.27525e-18)
(-0.00949837 1.65472 -2.08245e-18)
(0.00051846 1.69961 -1.869e-18)
(0.0167952 1.76157 1.65758e-18)
(0.0399887 1.84372 0)
(0.0687787 1.94072 7.42572e-20)
(0.101167 2.04332 0)
(0.134677 2.14239 0)
(0.167008 2.23126 0)
(0.196544 2.30653 0)
(0.221941 2.36694 -4.99104e-19)
(0.242971 2.41392 4.72766e-19)
(0.260101 2.45014 0)
(0.273693 2.47803 -3.67117e-19)
(0.284316 2.49982 3.36991e-19)
(0.292667 2.5173 -3.06827e-19)
(0.299319 2.5318 2.8162e-19)
(0.304723 2.54427 0)
(0.30923 2.55538 0)
(0.313103 2.56559 -2.69418e-20)
(0.316528 2.57517 0)
(0.319632 2.5843 0)
(0.322501 2.59308 1.68005e-19)
(0.325188 2.60157 -3.12912e-19)
(0.327724 2.60984 1.46321e-19)
(0.330131 2.6179 1.36169e-19)
(0.33242 2.62578 -1.68889e-20)
(0.334599 2.63351 -1.51777e-19)
(0.33667 2.64111 0)
(0.338636 2.64859 1.08324e-19)
(0.340497 2.65597 -2.32833e-19)
(0.342251 2.66326 7.52583e-22)
(0.343897 2.67047 1.88744e-19)
(0.345432 2.67762 -9.0786e-20)
(0.346854 2.68471 -1.08154e-19)
(0.348158 2.69177 6.28815e-20)
(0.349341 2.69879 0)
(0.3504 2.70579 1.94032e-20)
(0.351329 2.71278 1.87249e-20)
(0.352125 2.71978 1.43553e-19)
(0.352784 2.72678 -1.40269e-19)
(0.353301 2.73381 -1.34232e-19)
(0.353671 2.74087 -3.12425e-20)
(0.353889 2.74797 1.2741e-19)
(0.353951 2.75513 1.21976e-19)
(0.353852 2.76235 -1.58216e-21)
(0.353587 2.76964 -1.16308e-19)
(0.353149 2.77702 -1.39415e-19)
(0.352534 2.78449 1.36957e-19)
(0.351736 2.79206 0)
(0.350748 2.79975 0)
(0.349565 2.80755 2.50142e-20)
(0.348179 2.81549 1.44537e-19)
(0.346584 2.82356 -9.49329e-20)
(0.344773 2.83178 0)
(0.342739 2.84015 0)
(0.340473 2.84869 4.19211e-20)
(0.337969 2.85739 -8.45617e-20)
(0.335217 2.86627 0)
(0.33221 2.87533 0)
(0.328939 2.88458 -3.833e-20)
(0.325395 2.89402 -7.28648e-20)
(0.32157 2.90366 3.81776e-20)
(0.317454 2.9135 7.04264e-20)
(0.31304 2.92354 0)
(0.308319 2.9338 0)
(0.303283 2.94427 0)
(0.297925 2.95495 5.89776e-20)
(0.292236 2.96585 -4.3004e-21)
(0.28621 2.97697 -1.14255e-19)
(0.279842 2.98831 0)
(0.273222 2.99971 5.07826e-20)
(0.266549 3.01088 4.76905e-20)
(0.259937 3.02165 -4.43104e-20)
(0.253391 3.03208 0)
(0.246931 3.04218 0)
(0.240564 3.05193 0)
(0.234282 3.06127 0)
(0.228104 3.07022 0)
(0.222037 3.0788 5.37207e-20)
(0.21608 3.08703 -8.98162e-20)
(0.210228 3.09494 6.09645e-20)
(0.204477 3.10254 -1.0882e-20)
(0.198827 3.10985 0)
(0.193292 3.11694 0)
(0.187907 3.12394 0)
(0.182712 3.13103 -1.87261e-20)
(0.177711 3.13825 2.4908e-20)
(0.172841 3.14549 1.92135e-20)
(0.16806 3.15265 -1.89874e-20)
(0.163362 3.15971 1.38961e-20)
(0.158745 3.16668 -2.67671e-20)
(0.154205 3.17355 9.98977e-21)
(0.14974 3.1803 0)
(0.145347 3.18692 -4.76695e-21)
(0.141024 3.19339 4.6974e-21)
(0.136768 3.19969 2.48832e-22)
(0.0732234 1.53157 0)
(-0.0781087 1.56637 -1.8601e-17)
(-0.0574522 1.581 1.0042e-17)
(-0.0560462 1.59875 1.87662e-19)
(-0.0544054 1.61923 8.65607e-18)
(-0.0509171 1.64385 -1.4554e-17)
(-0.0446442 1.67487 6.6942e-18)
(-0.034872 1.71485 6.16132e-18)
(-0.0203063 1.76785 -5.86233e-18)
(9.7593e-05 1.83702 -5.30958e-18)
(0.0258083 1.91997 1.0578e-20)
(0.0555681 2.01082 3.76572e-18)
(0.0876299 2.10271 0)
(0.119958 2.18953 0)
(0.150768 2.26698 -2.35526e-18)
(0.178849 2.333 2.07456e-18)
(0.203115 2.38687 0)
(0.223436 2.42979 -1.58247e-18)
(0.240228 2.4638 1.50334e-18)
(0.25375 2.49071 0)
(0.264471 2.51228 -1.23659e-18)
(0.272985 2.52992 1.07576e-18)
(0.279791 2.54471 3.2973e-20)
(0.285298 2.55748 0)
(0.289856 2.56885 8.98028e-19)
(0.293679 2.57926 -5.6549e-20)
(0.297007 2.589 -1.53844e-18)
(0.299955 2.59826 7.15114e-19)
(0.302622 2.60717 -4.15136e-20)
(0.305072 2.6158 6.35214e-19)
(0.307346 2.62421 -5.43696e-19)
(0.309466 2.63244 0)
(0.311449 2.6405 4.44679e-19)
(0.313303 2.64844 -3.93246e-19)
(0.315034 2.65627 0)
(0.316644 2.664 5.43098e-20)
(0.318133 2.67165 -5.17018e-20)
(0.3195 2.67924 -3.67403e-19)
(0.320745 2.68678 7.76096e-19)
(0.321863 2.69427 -4.84685e-20)
(0.322852 2.70174 -3.69064e-19)
(0.323708 2.7092 -3.93104e-19)
(0.324426 2.71665 6.39628e-19)
(0.325002 2.72411 -6.93497e-19)
(0.325431 2.73158 5.94332e-19)
(0.325707 2.73909 -2.52786e-19)
(0.325825 2.74663 2.75511e-19)
(0.32578 2.75422 -6.03261e-19)
(0.325565 2.76188 5.18639e-19)
(0.325174 2.7696 -5.02095e-19)
(0.3246 2.77741 2.14181e-19)
(0.323837 2.7853 -2.9351e-20)
(0.322877 2.7933 0)
(0.321714 2.80141 0)
(0.32034 2.80964 -2.67423e-20)
(0.318746 2.818 -5.18694e-20)
(0.316925 2.8265 2.00111e-19)
(0.314868 2.83514 -2.96285e-19)
(0.312565 2.84395 -3.76173e-19)
(0.310007 2.85291 5.39361e-20)
(0.307186 2.86204 3.61577e-19)
(0.304089 2.87136 4.29397e-19)
(0.300709 2.88085 -4.24517e-19)
(0.297033 2.89054 4.04778e-20)
(0.29305 2.90042 0)
(0.288751 2.91051 3.87137e-20)
(0.284124 2.92079 2.90122e-19)
(0.279157 2.93129 -2.89867e-19)
(0.27384 2.94199 -1.3841e-19)
(0.268163 2.95291 -1.2674e-19)
(0.262114 2.96404 2.61183e-19)
(0.255684 2.97539 1.85098e-19)
(0.248864 2.98695 2.30892e-19)
(0.241646 2.99873 -2.31942e-19)
(0.23413 3.01057 -5.31901e-20)
(0.226542 3.02214 -4.9989e-20)
(0.219012 3.0333 4.6582e-20)
(0.211548 3.0441 8.73063e-20)
(0.204176 3.05456 2.36058e-19)
(0.196902 3.06465 -9.59611e-21)
(0.189714 3.07432 -1.43993e-19)
(0.182637 3.08358 -3.27261e-20)
(0.175677 3.09245 0)
(0.168836 3.10098 1.42789e-20)
(0.162114 3.10918 -1.26421e-20)
(0.155508 3.11708 1.15612e-20)
(0.149015 3.1247 0)
(0.14263 3.13206 0)
(0.136364 3.13921 -1.30079e-19)
(0.130242 3.14628 5.26913e-21)
(0.124302 3.15345 1.09995e-19)
(0.118569 3.1608 0)
(0.112981 3.16823 0)
(0.107484 3.17559 6.0818e-20)
(0.102081 3.18285 -1.08672e-19)
(0.0967692 3.19001 5.39087e-20)
(0.0915473 3.19706 0)
(0.0864133 3.20399 0)
(0.0813654 3.21078 -1.21221e-20)
(0.0764027 3.2174 6.92896e-21)
(0.0457463 1.53716 4.06712e-17)
(-0.117075 1.57385 -4.54688e-17)
(-0.0932167 1.57853 5.36064e-17)
(-0.0931721 1.58893 -1.60992e-17)
(-0.093117 1.60177 3.29364e-19)
(-0.0921008 1.61709 0)
(-0.0899334 1.63599 2.35729e-19)
(-0.0862453 1.65974 0)
(-0.0802865 1.68917 0)
(-0.0714399 1.72525 3.55914e-19)
(-0.0587506 1.77067 1.64659e-19)
(-0.0411248 1.82853 0)
(-0.0184589 1.89882 0)
(0.00851169 1.97844 2.29754e-19)
(0.0385928 2.06247 -3.15082e-18)
(0.0702188 2.1458 2.46357e-18)
(0.101661 2.22402 -2.19687e-18)
(0.131444 2.29393 2.0503e-18)
(0.158595 2.35401 -5.5899e-20)
(0.182168 2.40377 -1.68593e-18)
(0.202097 2.44423 1.35942e-18)
(0.218769 2.47698 1.67366e-19)
(0.232361 2.50343 7.79157e-20)
(0.243277 2.52503 0)
(0.252024 2.54296 0)
(0.259056 2.55812 1.06243e-18)
(0.264743 2.57126 -8.18135e-19)
(0.269397 2.58296 -1.08619e-19)
(0.273271 2.59364 -6.52559e-19)
(0.276559 2.60362 7.52631e-19)
(0.279408 2.61311 0)
(0.281923 2.62223 0)
(0.284176 2.63107 7.61488e-20)
(0.286215 2.6397 1.0698e-18)
(0.288069 2.64817 -2.15386e-18)
(0.289758 2.65649 9.55945e-19)
(0.291294 2.6647 5.98355e-20)
(0.292684 2.67282 -1.14017e-19)
(0.293931 2.68087 1.0832e-19)
(0.295038 2.68887 5.12799e-20)
(0.296002 2.69683 0)
(0.296823 2.70476 4.67638e-20)
(0.297497 2.71268 9.00972e-20)
(0.298021 2.72059 -5.99626e-19)
(0.298389 2.72853 7.26167e-21)
(0.298597 2.73648 7.20039e-19)
(0.298639 2.74447 0)
(0.298509 2.75251 -5.01838e-22)
(0.298199 2.76061 -1.42972e-19)
(0.297703 2.76877 0)
(0.297014 2.77702 6.62002e-20)
(0.296124 2.78536 -5.09965e-19)
(0.295025 2.79379 5.00724e-19)
(0.293708 2.80234 0)
(0.292164 2.81101 1.16828e-19)
(0.290384 2.81981 0)
(0.288359 2.82875 -1.09556e-19)
(0.286078 2.83784 -4.19342e-19)
(0.28353 2.84709 4.13447e-19)
(0.280705 2.8565 9.95699e-20)
(0.277591 2.86609 0)
(0.274177 2.87586 -4.59726e-19)
(0.270449 2.88582 9.90032e-19)
(0.266395 2.89597 -9.31539e-21)
(0.262002 2.90633 -1.78916e-19)
(0.257256 2.91688 -9.07901e-20)
(0.252143 2.92765 -6.29598e-19)
(0.246651 2.93863 1.03228e-20)
(0.240765 2.94982 5.92155e-19)
(0.234471 2.96122 1.75253e-21)
(0.227756 2.97284 0)
(0.220607 2.98468 3.82312e-19)
(0.213012 2.99673 1.02603e-19)
(0.204959 3.00899 -4.93506e-19)
(0.19656 3.0213 0)
(0.188066 3.03332 0)
(0.179622 3.04491 -1.01185e-19)
(0.171239 3.0561 2.68056e-19)
(0.162952 3.06695 -7.72926e-19)
(0.154764 3.07741 6.42003e-19)
(0.146661 3.08745 -3.86127e-19)
(0.13867 3.09705 -2.35982e-19)
(0.130801 3.10626 2.69786e-19)
(0.123053 3.11511 -2.61929e-19)
(0.115429 3.12363 4.43968e-19)
(0.107932 3.13184 -2.11687e-19)
(0.10056 3.13978 1.77319e-19)
(0.0933086 3.14747 -3.35452e-19)
(0.0861736 3.15493 1.46197e-20)
(0.0791592 3.16222 1.38894e-20)
(0.0722833 3.16943 1.37825e-19)
(0.0655744 3.17674 0)
(0.0590775 3.18428 7.92888e-20)
(0.0527344 3.19192 -1.4459e-19)
(0.0464844 3.19948 2.70492e-21)
(0.0403443 3.20695 6.97442e-21)
(0.0343126 3.2143 4.51566e-21)
(0.0283865 3.22153 5.33561e-21)
(0.022565 3.22863 2.06845e-20)
(0.0168473 3.23557 6.55873e-22)
(0.0155782 1.54121 -1.31519e-18)
(-0.153803 1.57891 -1.03262e-16)
(-0.127609 1.5801 8.69132e-20)
(-0.128321 1.58578 1.28913e-18)
(-0.129126 1.59428 2.54973e-17)
(-0.129387 1.60433 1.96329e-17)
(-0.129046 1.61636 -2.99166e-19)
(-0.127957 1.63124 -1.60526e-17)
(-0.125805 1.64982 0)
(-0.122319 1.67266 1.3258e-17)
(-0.116931 1.70017 -1.20386e-17)
(-0.109026 1.73292 0)
(-0.0980289 1.77249 0)
(-0.0830188 1.82128 -2.81299e-19)
(-0.063319 1.88087 2.55131e-19)
(-0.0392951 1.95011 2.25615e-19)
(-0.0116413 2.02594 6.1011e-18)
(0.0184937 2.1043 -5.49132e-18)
(0.0496978 2.18114 0)
(0.0804591 2.25301 1.30434e-19)
(0.109517 2.31735 4.02136e-18)
(0.136061 2.37304 -6.61636e-18)
(0.159228 2.41973 2.83399e-18)
(0.179007 2.45836 1.67827e-19)
(0.195754 2.49018 2.48983e-18)
(0.209571 2.51631 -2.33838e-18)
(0.220803 2.53802 -2.31299e-18)
(0.229894 2.55627 2.30453e-18)
(0.237235 2.57187 5.6548e-22)
(0.243173 2.58545 -1.78388e-18)
(0.248001 2.59757 1.67888e-18)
(0.251965 2.60865 0)
(0.255262 2.61899 0)
(0.258048 2.6288 -1.36638e-18)
(0.260437 2.63824 1.451e-18)
(0.26251 2.64739 -1.20183e-18)
(0.264322 2.65634 1.13895e-18)
(0.265912 2.66512 -9.31344e-19)
(0.267303 2.67378 -1.17229e-19)
(0.26851 2.68235 8.46303e-21)
(0.269543 2.69085 1.81202e-18)
(0.270406 2.6993 -1.72217e-18)
(0.271102 2.70772 7.21919e-19)
(0.27163 2.71613 0)
(0.271987 2.72454 0)
(0.272171 2.73297 -8.91879e-20)
(0.272175 2.74143 -6.82232e-19)
(0.271995 2.74993 5.79589e-19)
(0.271624 2.75848 -4.71378e-19)
(0.271055 2.7671 7.66131e-19)
(0.270281 2.7758 7.29824e-19)
(0.269292 2.78459 -7.1151e-19)
(0.26808 2.79349 0)
(0.266636 2.80249 -3.90038e-19)
(0.26495 2.81161 5.13641e-19)
(0.263011 2.82087 0)
(0.260809 2.83027 1.1814e-19)
(0.258332 2.83982 1.14192e-19)
(0.255568 2.84954 -2.22881e-19)
(0.252504 2.85942 -1.06738e-19)
(0.249127 2.86949 2.08474e-19)
(0.245423 2.87974 7.92713e-19)
(0.241378 2.89019 -9.78246e-19)
(0.236976 2.90083 7.39846e-19)
(0.232202 2.91168 -1.08674e-18)
(0.22704 2.92275 7.10307e-19)
(0.221473 2.93403 -8.35128e-19)
(0.215484 2.94552 8.27167e-19)
(0.209057 2.95723 -1.56268e-19)
(0.202174 2.96917 -7.44907e-19)
(0.194819 2.98132 5.95321e-19)
(0.186973 2.99368 0)
(0.178623 3.00627 -1.33754e-19)
(0.169751 3.01907 0)
(0.160479 3.0319 0)
(0.151084 3.04441 0)
(0.141728 3.05645 5.2576e-19)
(0.132423 3.06808 -4.11692e-19)
(0.123213 3.07935 -1.87088e-19)
(0.114099 3.09024 -1.75027e-19)
(0.105066 3.10068 8.05734e-20)
(0.0961427 3.11067 -7.68255e-20)
(0.0873394 3.12026 -2.73362e-19)
(0.0786575 3.12947 2.72455e-19)
(0.0701006 3.13834 2.33206e-19)
(0.0616725 3.1469 -1.79728e-20)
(0.0533748 3.15518 -6.00836e-19)
(0.0452067 3.16322 3.31477e-20)
(0.0371651 3.17103 3.47221e-19)
(0.029246 3.17866 -3.74472e-20)
(0.0214502 3.18614 1.69722e-20)
(0.0137874 3.19357 -2.11352e-19)
(0.00628115 3.2011 2.035e-19)
(-0.00101792 3.20887 -1.02286e-20)
(-0.00815783 3.21672 8.22932e-21)
(-0.0151924 3.22448 9.28812e-20)
(-0.0220924 3.23213 -1.71146e-19)
(-0.0288617 3.23966 8.08155e-20)
(-0.0355052 3.24705 3.72056e-20)
(-0.0420251 3.2543 -5.57615e-20)
(-0.0484227 3.26137 1.97716e-20)
(-0.0546985 3.26824 -1.34986e-21)
(-0.0608514 3.27488 -2.92345e-20)
(-0.0668788 3.28125 2.84579e-20)
(-0.015932 1.5438 8.90089e-17)
(-0.188843 1.58132 0)
(-0.161361 1.58182 7.91369e-17)
(-0.162335 1.58563 6.84823e-19)
(-0.163588 1.59179 -6.15719e-17)
(-0.164509 1.59918 4.56601e-17)
(-0.165178 1.60763 -1.83909e-17)
(-0.165483 1.61752 0)
(-0.165265 1.62945 1.70485e-17)
(-0.164299 1.64407 -3.11006e-17)
(-0.162355 1.66194 1.38876e-17)
(-0.159173 1.68356 -4.07882e-19)
(-0.154397 1.70924 1.18018e-17)
(-0.147463 1.73925 -2.09119e-17)
(-0.137946 1.7745 9.07693e-18)
(-0.125177 1.81668 -5.35723e-19)
(-0.108313 1.86764 7.85331e-18)
(-0.0871999 1.9276 -6.66754e-18)
(-0.062231 1.99511 0)
(-0.0341041 2.06735 5.53489e-18)
(-0.00394467 2.14083 -5.48242e-18)
(0.0269564 2.21228 -2.67846e-19)
(0.0572531 2.27893 0)
(0.0858441 2.33873 -4.20151e-19)
(0.112027 2.39083 0)
(0.134999 2.43505 2.53228e-18)
(0.154786 2.47222 1.43811e-19)
(0.171719 2.50334 -2.64617e-18)
(0.185826 2.52935 -1.37308e-19)
(0.197416 2.55128 0)
(0.20687 2.56997 0)
(0.214539 2.58609 0)
(0.220739 2.60023 -1.49939e-18)
(0.225752 2.61288 1.62291e-18)
(0.229815 2.62446 -1.89474e-19)
(0.233131 2.63525 1.42304e-18)
(0.235861 2.6455 -1.1798e-18)
(0.238129 2.65534 1.25838e-18)
(0.240022 2.6649 -1.19489e-18)
(0.241605 2.67425 0)
(0.242921 2.68345 1.32049e-18)
(0.243997 2.69254 -1.00697e-18)
(0.244852 2.70156 7.0679e-19)
(0.245497 2.71053 -6.79947e-19)
(0.245937 2.71948 2.15065e-19)
(0.246176 2.72842 -2.04884e-19)
(0.246213 2.73739 0)
(0.246043 2.74638 -1.36327e-21)
(0.245665 2.75542 0)
(0.24507 2.76453 1.18661e-18)
(0.244253 2.77371 -1.48242e-18)
(0.243206 2.78297 1.56692e-19)
(0.24192 2.79234 -1.2008e-18)
(0.240385 2.80181 1.02842e-18)
(0.238591 2.81141 -1.39539e-19)
(0.236527 2.82115 0)
(0.234181 2.83103 0)
(0.231541 2.84107 -9.9496e-19)
(0.228593 2.85127 2.60558e-19)
(0.225323 2.86165 9.45316e-19)
(0.221716 2.87221 6.6839e-19)
(0.217756 2.88297 -8.81999e-19)
(0.213427 2.89393 0)
(0.208711 2.90509 0)
(0.20359 2.91647 -1.94951e-19)
(0.198045 2.92807 0)
(0.192056 2.9399 -1.85895e-19)
(0.185604 2.95195 5.17168e-19)
(0.178667 2.96422 -6.90062e-19)
(0.171224 2.97672 3.28748e-19)
(0.163255 2.98945 3.16355e-19)
(0.154737 3.0024 3.04128e-19)
(0.145651 3.01556 0)
(0.135976 3.02895 2.6032e-19)
(0.12584 3.04235 -2.74536e-19)
(0.115547 3.05541 4.81976e-19)
(0.105275 3.06796 -2.43699e-19)
(0.0950434 3.08007 8.40986e-19)
(0.084898 3.0918 -5.22637e-20)
(0.0748423 3.10314 1.39387e-19)
(0.0648599 3.11403 -7.30101e-19)
(0.054977 3.12447 5.55256e-19)
(0.0452098 3.13449 -4.84052e-19)
(0.0355601 3.14411 0)
(0.0260317 3.15338 6.72972e-20)
(0.0166292 3.16233 4.69832e-19)
(0.00735572 3.17099 -9.41999e-20)
(-0.00178681 3.17939 -3.60456e-20)
(-0.0107981 3.18758 -3.83169e-19)
(-0.0196795 3.19559 -1.19039e-21)
(-0.0284327 3.20343 2.00718e-19)
(-0.0370581 3.21117 -2.66091e-19)
(-0.0455508 3.21889 2.01179e-19)
(-0.0538824 3.22672 -2.05471e-19)
(-0.0620121 3.23473 1.37899e-19)
(-0.0699728 3.24275 -1.27571e-19)
(-0.0778005 3.25066 0)
(-0.0854652 3.25845 0)
(-0.0929794 3.26613 4.75701e-20)
(-0.100351 3.27366 -4.11696e-20)
(-0.107583 3.28103 7.9699e-22)
(-0.114676 3.28821 -2.43105e-22)
(-0.121628 3.29515 -2.74022e-20)
(-0.128434 3.30181 2.66234e-20)
(-0.047448 1.54533 -4.06517e-18)
(-0.222624 1.58202 2.47437e-16)
(-0.194418 1.58287 -1.77558e-16)
(-0.195447 1.58582 5.33101e-17)
(-0.196872 1.591 0)
(-0.198099 1.59711 0)
(-0.199219 1.6039 -1.25109e-18)
(-0.200217 1.61145 -1.75949e-17)
(-0.20102 1.61998 3.26537e-17)
(-0.201472 1.62991 -1.61493e-17)
(-0.201419 1.64172 0)
(-0.200674 1.65592 2.50581e-23)
(-0.199017 1.67301 -4.32225e-19)
(-0.196226 1.69344 0)
(-0.192039 1.71753 7.18328e-19)
(-0.186062 1.74539 6.41507e-19)
(-0.177767 1.77757 -5.68797e-19)
(-0.166833 1.81497 -5.13695e-19)
(-0.152526 1.85912 0)
(-0.134158 1.91118 0)
(-0.111924 1.97071 3.91299e-19)
(-0.0862061 2.03609 -6.79947e-22)
(-0.0577267 2.10478 3.09378e-19)
(-0.0275651 2.17386 -7.75019e-22)
(0.00308185 2.24063 0)
(0.0329947 2.30287 -2.17163e-19)
(0.0612147 2.35888 -5.80387e-19)
(0.0870606 2.408 -1.7504e-19)
(0.109879 2.45025 0)
(0.129714 2.48631 0)
(0.146805 2.51694 -2.78009e-19)
(0.16118 2.54296 2.61867e-19)
(0.1731 2.56522 1.47184e-18)
(0.182895 2.58441 -2.45876e-19)
(0.190879 2.6011 -2.32559e-19)
(0.19734 2.61584 -1.87087e-18)
(0.20254 2.62909 -1.55632e-18)
(0.206714 2.64124 1.85068e-18)
(0.210061 2.65258 -1.38572e-18)
(0.212747 2.66334 1.31865e-18)
(0.214898 2.6737 -3.08916e-19)
(0.216611 2.68376 0)
(0.217954 2.69362 2.47935e-18)
(0.218974 2.70335 -2.10453e-18)
(0.219705 2.71298 -2.47419e-19)
(0.220166 2.72256 2.34768e-19)
(0.220371 2.73212 2.24718e-19)
(0.220327 2.74169 -1.26811e-18)
(0.220037 2.75128 1.63437e-18)
(0.2195 2.76091 0)
(0.218713 2.77061 -3.71864e-19)
(0.217671 2.78039 0)
(0.216367 2.79027 0)
(0.214793 2.80025 -3.26927e-19)
(0.212939 2.81035 0)
(0.210795 2.82059 -3.01528e-19)
(0.208348 2.83097 2.89924e-19)
(0.205585 2.84151 -1.09979e-18)
(0.202493 2.85223 1.3477e-18)
(0.199056 2.86312 1.01838e-18)
(0.195257 2.87421 -1.25136e-18)
(0.191079 2.8855 4.80316e-19)
(0.186504 2.89699 4.46384e-19)
(0.181512 2.90871 -8.98687e-19)
(0.176082 2.92065 8.43439e-19)
(0.170191 2.93282 -8.35959e-19)
(0.163818 2.94522 3.9449e-19)
(0.156937 2.95786 7.5204e-19)
(0.149525 2.97074 -7.48881e-19)
(0.141554 2.98386 -3.51631e-19)
(0.133 2.99721 -6.80883e-19)
(0.123836 3.01079 3.15158e-19)
(0.114035 3.0246 8.99561e-19)
(0.103571 3.03862 -3.26742e-19)
(0.0925808 3.05266 8.24713e-19)
(0.0813906 3.06632 -1.10324e-18)
(0.070197 3.07944 4.55646e-21)
(0.0590265 3.09207 -6.78268e-19)
(0.0479259 3.10429 1.119e-18)
(0.0369072 3.11614 0)
(0.0259542 3.12754 0)
(0.0150825 3.13847 1.79321e-19)
(0.00431609 3.14896 -8.22258e-19)
(-0.00634206 3.15906 6.5401e-19)
(-0.016888 3.16878 4.90733e-19)
(-0.0273159 3.17817 -4.23739e-19)
(-0.0376212 3.18726 4.09039e-19)
(-0.0478003 3.19609 -4.11612e-19)
(-0.0578499 3.20469 -5.1376e-20)
(-0.0677668 3.21309 4.45893e-20)
(-0.0775476 3.22133 3.93995e-20)
(-0.0871877 3.22945 0)
(-0.0966862 3.23748 0)
(-0.106045 3.24551 2.48447e-20)
(-0.115197 3.25364 2.15192e-20)
(-0.124141 3.26183 1.25986e-19)
(-0.132926 3.26996 -2.38344e-20)
(-0.141534 3.278 -1.09218e-19)
(-0.149972 3.28594 5.22325e-20)
(-0.158254 3.29376 -5.34974e-20)
(-0.166384 3.30143 -1.05303e-20)
(-0.17436 3.30892 1.01956e-20)
(-0.182178 3.31616 -2.41675e-20)
(-0.18983 3.32312 -1.6209e-20)
(-0.0784675 1.54604 -9.00096e-17)
(-0.255348 1.58151 1.30381e-16)
(-0.226664 1.58298 -1.93048e-16)
(-0.227674 1.58547 6.06279e-17)
(-0.229156 1.59013 1.21007e-18)
(-0.230502 1.59565 -2.71558e-17)
(-0.231823 1.60171 4.28135e-17)
(-0.233128 1.60825 -1.77881e-17)
(-0.234374 1.61533 1.65606e-17)
(-0.235507 1.6231 -1.538e-17)
(-0.236456 1.6318 0)
(-0.237078 1.64177 4.70302e-19)
(-0.237232 1.65342 -1.52719e-17)
(-0.23675 1.6672 1.42871e-17)
(-0.235423 1.68356 -8.35553e-19)
(-0.233047 1.70296 -1.23143e-17)
(-0.229399 1.72569 1.19657e-17)
(-0.224211 1.75189 1.07739e-17)
(-0.217038 1.78166 -2.3674e-20)
(-0.207534 1.81566 -8.08367e-18)
(-0.195255 1.85492 -4.58028e-19)
(-0.179522 1.90053 4.21551e-19)
(-0.159987 1.95291 -1.15837e-18)
(-0.136879 2.01141 -3.4965e-19)
(-0.110623 2.07446 -5.61039e-18)
(-0.0819697 2.1398 5.01781e-18)
(-0.0519352 2.20495 -1.55286e-21)
(-0.0216421 2.26765 4.4209e-19)
(0.00781632 2.32605 -3.97898e-19)
(0.0356133 2.3788 3.58497e-19)
(0.0610584 2.4254 2.91139e-18)
(0.0836755 2.466 -2.6938e-18)
(0.103537 2.50112 2.78619e-19)
(0.120763 2.53134 -1.40008e-21)
(0.135387 2.55742 2.47983e-19)
(0.147631 2.58002 2.34571e-19)
(0.157772 2.59971 -3.77128e-18)
(0.166085 2.617 2.89276e-20)
(0.172825 2.6324 3.60653e-18)
(0.178236 2.64631 0)
(0.182539 2.65912 0)
(0.185932 2.67112 0)
(0.188579 2.68253 -2.87223e-18)
(0.190611 2.69352 2.44087e-18)
(0.192125 2.70423 0)
(0.193197 2.71474 0)
(0.193878 2.72512 -2.31294e-18)
(0.194205 2.73543 1.72979e-18)
(0.194203 2.74571 1.85411e-18)
(0.193888 2.75599 -1.78635e-18)
(0.193267 2.76631 4.21008e-19)
(0.192346 2.77667 0)
(0.191123 2.78712 0)
(0.189596 2.79765 7.35746e-19)
(0.187758 2.8083 1.3964e-18)
(0.185601 2.81908 -1.02388e-18)
(0.183114 2.83 -3.21501e-19)
(0.180287 2.84109 0)
(0.177104 2.85234 -1.47428e-18)
(0.17355 2.86378 2.3375e-20)
(0.169608 2.87542 1.38341e-18)
(0.165259 2.88727 -1.05629e-18)
(0.160483 2.89933 5.05016e-19)
(0.155259 2.91162 0)
(0.149563 2.92415 0)
(0.14337 2.93693 4.36359e-19)
(0.136653 2.94995 -2.64253e-20)
(0.129385 2.96322 -2.7072e-20)
(0.121535 2.97674 -4.13298e-19)
(0.113073 2.99052 0)
(0.103967 3.00455 7.42818e-19)
(0.0941851 3.01882 7.18334e-19)
(0.0836934 3.03333 -1.02755e-18)
(0.0724595 3.04807 -6.46117e-19)
(0.0606247 3.06281 0)
(0.0485377 3.07714 -1.7285e-18)
(0.0364126 3.09088 1.41366e-18)
(0.0242849 3.10409 5.01513e-21)
(0.0121965 3.11685 -2.42344e-19)
(0.000186745 3.12925 2.26361e-19)
(-0.0117575 3.14121 2.13225e-19)
(-0.0236511 3.15269 0)
(-0.0354598 3.16373 0)
(-0.0471764 3.17435 0)
(-0.0587957 3.18459 -6.20038e-19)
(-0.0703102 3.19448 -1.00539e-19)
(-0.0817135 3.20407 1.2241e-18)
(-0.0929992 3.21337 -5.78548e-19)
(-0.104159 3.22243 -3.72246e-19)
(-0.115183 3.23127 4.20125e-19)
(-0.12606 3.23992 0)
(-0.136774 3.24842 2.92269e-19)
(-0.14732 3.2568 -2.83162e-19)
(-0.157709 3.2651 0)
(-0.167877 3.27341 -4.70507e-20)
(-0.177824 3.28175 -1.41839e-19)
(-0.187608 3.29007 1.38956e-19)
(-0.197214 3.29835 -8.72911e-20)
(-0.206647 3.30657 8.45544e-20)
(-0.21592 3.3147 0)
(-0.225034 3.3227 -1.97983e-20)
(-0.233982 3.3305 1.56816e-20)
(-0.242753 3.33806 2.05469e-20)
(-0.251333 3.34531 -5.83358e-20)
(-0.259706 3.35218 4.00001e-20)
(-0.10878 1.54602 2.8679e-18)
(-0.287094 1.57999 0)
(-0.258008 1.5821 -9.77377e-17)
(-0.258959 1.58429 6.53707e-17)
(-0.260447 1.58865 -1.07677e-22)
(-0.261833 1.59386 -9.13571e-19)
(-0.263235 1.59956 0)
(-0.264669 1.60565 -1.7689e-17)
(-0.266111 1.61212 1.64277e-17)
(-0.267537 1.61901 0)
(-0.268915 1.62639 8.76895e-19)
(-0.270194 1.63441 0)
(-0.271311 1.6433 8.87699e-23)
(-0.272127 1.65333 -1.40321e-17)
(-0.272516 1.66485 2.79496e-17)
(-0.272338 1.67826 -1.36453e-17)
(-0.271365 1.694 1.29163e-17)
(-0.26941 1.71248 -2.556e-17)
(-0.266292 1.73403 1.10623e-17)
(-0.261781 1.75883 6.28807e-19)
(-0.255594 1.78689 -5.60941e-19)
(-0.247303 1.8185 -6.97496e-18)
(-0.236671 1.85426 8.06996e-18)
(-0.22321 1.89499 8.18175e-19)
(-0.206296 1.94148 7.54592e-19)
(-0.185855 1.99368 -6.90901e-19)
(-0.162132 2.0509 6.24447e-19)
(-0.135585 2.11161 0)
(-0.106969 2.1738 -1.49296e-21)
(-0.0772354 2.23534 1.54612e-21)
(-0.0474289 2.29435 -4.07172e-19)
(-0.0185198 2.34926 0)
(0.00879324 2.39904 0)
(0.0337875 2.44336 5.14491e-18)
(0.056175 2.48244 -3.96207e-18)
(0.076065 2.51667 0)
(0.0934281 2.54653 -3.99382e-18)
(0.108309 2.57269 6.64347e-18)
(0.120888 2.59566 -4.0626e-18)
(0.13139 2.61591 0)
(0.140041 2.63388 -3.6345e-18)
(0.147067 2.65003 3.09117e-18)
(0.15269 2.66473 7.30282e-19)
(0.157121 2.67835 -3.10413e-18)
(0.160549 2.69116 2.31439e-18)
(0.163134 2.70337 0)
(0.165009 2.71516 2.35762e-18)
(0.166276 2.72666 -2.82927e-18)
(0.167014 2.73797 2.12596e-18)
(0.167281 2.74916 -1.5355e-18)
(0.167119 2.76029 -2.40695e-18)
(0.166556 2.77141 1.85379e-18)
(0.165612 2.78256 -4.40537e-19)
(0.164296 2.79376 1.24388e-18)
(0.162614 2.80505 -2.51194e-20)
(0.160564 2.81644 -1.53766e-18)
(0.158143 2.82797 0)
(0.155343 2.83964 -2.08362e-18)
(0.152151 2.85148 2.00021e-18)
(0.148555 2.86351 -1.29292e-18)
(0.144539 2.87574 0)
(0.140083 2.88818 5.85376e-19)
(0.135168 2.90085 1.68493e-18)
(0.129769 2.91375 5.18649e-19)
(0.123862 2.92691 -2.76198e-20)
(0.117419 2.94032 -5.17443e-19)
(0.110409 2.954 1.89283e-18)
(0.102801 2.96795 -1.8747e-18)
(0.09456 2.98217 -8.85992e-19)
(0.0856504 2.99666 1.66911e-18)
(0.0760336 3.01142 -1.24514e-18)
(0.0656697 3.02644 -1.56305e-18)
(0.0545182 3.04172 2.20404e-18)
(0.042538 3.05724 -7.41359e-19)
(0.0298732 3.07276 0)
(0.0168926 3.08784 -6.11919e-19)
(0.00382554 3.10229 6.41483e-19)
(-0.0092822 3.11615 -1.95393e-18)
(-0.0224 3.12949 1.34804e-18)
(-0.0354446 3.14245 -4.9124e-19)
(-0.0484249 3.15502 -1.12252e-18)
(-0.0613858 3.16713 5.63338e-20)
(-0.0742901 3.17878 5.49161e-20)
(-0.0871236 3.19 7.88768e-19)
(-0.09988 3.20083 8.61384e-19)
(-0.112551 3.2113 -5.00757e-20)
(-0.125126 3.22144 -4.71862e-19)
(-0.137591 3.23128 1.3867e-19)
(-0.149928 3.24085 -4.71153e-19)
(-0.162114 3.25015 5.74367e-19)
(-0.174129 3.25923 0)
(-0.185947 3.26809 3.2203e-19)
(-0.197565 3.27679 -5.49994e-19)
(-0.208995 3.28537 2.65653e-19)
(-0.22018 3.2939 2.19219e-19)
(-0.231184 3.30247 -1.88938e-19)
(-0.242055 3.31104 1.83357e-20)
(-0.252753 3.31963 -8.55891e-20)
(-0.263291 3.32818 8.57907e-20)
(-0.27367 3.33666 7.68095e-21)
(-0.283881 3.345 3.86468e-21)
(-0.293906 3.35314 0)
(-0.303728 3.36101 6.98943e-22)
(-0.313322 3.36852 -1.8281e-21)
(-0.322665 3.37561 -2.83408e-21)
(-0.331733 3.38221 1.24194e-19)
(-0.340505 3.38825 -1.30316e-19)
(-0.138333 1.54531 -9.34965e-17)
(-0.317879 1.57751 0)
(-0.288393 1.58018 1.09462e-16)
(-0.289257 1.58213 -6.95397e-17)
(-0.290715 1.58629 -1.40241e-18)
(-0.292098 1.59132 1.95135e-18)
(-0.293521 1.59683 2.35712e-17)
(-0.295 1.6027 -1.96528e-17)
(-0.296518 1.6089 -1.0123e-18)
(-0.298064 1.61542 -1.52747e-17)
(-0.299624 1.62229 1.33008e-17)
(-0.30118 1.62955 7.95922e-19)
(-0.302702 1.63728 7.46103e-23)
(-0.304142 1.64561 7.97791e-19)
(-0.305454 1.65473 8.10936e-19)
(-0.306486 1.66487 1.31172e-17)
(-0.30716 1.67633 -2.92101e-20)
(-0.307305 1.68947 -1.22138e-17)
(-0.306728 1.70471 0)
(-0.305249 1.72244 -7.33514e-19)
(-0.302673 1.743 -9.49199e-18)
(-0.298814 1.76662 8.71695e-18)
(-0.29346 1.79337 8.94689e-18)
(-0.286308 1.82322 -8.00182e-18)
(-0.276982 1.85654 0)
(-0.265326 1.89385 7.98414e-19)
(-0.250854 1.93573 0)
(-0.233006 1.98268 6.77972e-19)
(-0.211894 2.03437 1.23934e-18)
(-0.187788 2.09007 -5.62153e-19)
(-0.161173 2.14835 5.0792e-19)
(-0.132786 2.20743 -9.18888e-19)
(-0.103513 2.2655 8.29146e-19)
(-0.0743209 2.321 -6.71841e-18)
(-0.0460466 2.37259 5.45429e-18)
(-0.0193181 2.41957 0)
(0.00518711 2.46178 4.54916e-18)
(0.0273442 2.49947 -3.2223e-18)
(0.0472319 2.53291 0)
(0.0647038 2.56256 0)
(0.0798122 2.58891 4.51989e-19)
(0.0926992 2.61234 0)
(0.103531 2.63324 -4.08248e-19)
(0.112488 2.65202 0)
(0.119764 2.66906 -2.58144e-18)
(0.12556 2.68472 2.8362e-18)
(0.130074 2.6993 -6.73676e-19)
(0.133485 2.71308 6.36006e-19)
(0.135951 2.72626 0)
(0.137604 2.739 -5.75593e-19)
(0.138549 2.75146 5.47711e-19)
(0.13887 2.76372 5.25885e-19)
(0.13863 2.77587 -4.45127e-21)
(0.137875 2.78798 0)
(0.136636 2.80009 1.34257e-18)
(0.134933 2.81226 -2.80348e-20)
(0.13278 2.82451 -1.66371e-18)
(0.130178 2.83688 7.83884e-19)
(0.127127 2.8494 -7.42735e-19)
(0.123619 2.8621 7.3035e-19)
(0.119643 2.87498 -1.36383e-18)
(0.115182 2.88807 1.97531e-18)
(0.110219 2.9014 -1.90684e-18)
(0.104732 2.91496 -1.79804e-18)
(0.0986935 2.92879 1.17595e-18)
(0.092073 2.94289 -5.60228e-19)
(0.0848379 2.95728 -2.10243e-18)
(0.0769541 2.97194 1.04746e-18)
(0.0683833 2.98691 -4.53392e-19)
(0.0590828 3.00217 2.85959e-18)
(0.0490072 3.01772 1.43165e-20)
(0.0381089 3.03356 -1.42277e-20)
(0.0263387 3.04968 -1.60984e-18)
(0.0136456 3.06607 1.56697e-18)
(0.000174319 3.08246 -2.27733e-18)
(-0.0136887 3.09839 -1.37148e-18)
(-0.0277011 3.11364 2.03353e-18)
(-0.0418134 3.12825 -1.22647e-18)
(-0.0559862 3.14227 2.93023e-18)
(-0.0701592 3.15581 -8.49303e-19)
(-0.0842867 3.169 9.81987e-19)
(-0.0983762 3.18181 -9.81347e-19)
(-0.112434 3.19414 -1.08869e-18)
(-0.126444 3.20604 6.51317e-19)
(-0.140403 3.21752 5.55642e-19)
(-0.154297 3.22863 -9.24101e-19)
(-0.168105 3.2394 -1.61795e-19)
(-0.181797 3.24982 2.73498e-19)
(-0.195341 3.25992 -1.21423e-18)
(-0.208702 3.2697 5.07861e-19)
(-0.221856 3.27918 1.08339e-19)
(-0.234789 3.28838 0)
(-0.247522 3.29737 -3.94108e-20)
(-0.260035 3.30627 2.5706e-19)
(-0.272371 3.31514 -2.80187e-19)
(-0.284603 3.32406 -1.55011e-19)
(-0.296696 3.33302 3.23179e-19)
(-0.308637 3.34199 -1.42312e-19)
(-0.320422 3.35093 9.53754e-20)
(-0.332037 3.35979 -8.93999e-20)
(-0.343459 3.3685 -6.04736e-20)
(-0.354662 3.37696 4.20504e-20)
(-0.365617 3.38511 -1.54605e-20)
(-0.376291 3.39284 2.74355e-20)
(-0.386654 3.40007 0)
(-0.396676 3.40674 3.62748e-21)
(-0.406331 3.41278 0)
(-0.415598 3.41815 -5.13805e-21)
(-0.167124 1.54397 9.51093e-17)
(-0.347691 1.57409 -2.95989e-16)
(-0.317775 1.57719 -3.31486e-18)
(-0.318536 1.57892 7.3155e-17)
(-0.31994 1.58292 0)
(-0.321294 1.58784 -1.03351e-18)
(-0.322703 1.59325 -2.48909e-17)
(-0.324184 1.59901 3.18008e-20)
(-0.32572 1.60508 1.57241e-17)
(-0.327302 1.61145 9.13212e-19)
(-0.328926 1.61811 1.232e-17)
(-0.330585 1.62508 -2.24118e-20)
(-0.332268 1.63238 -2.25373e-17)
(-0.33396 1.64005 1.00025e-17)
(-0.335634 1.64818 -1.14873e-17)
(-0.337249 1.65688 1.17672e-17)
(-0.338751 1.6663 0)
(-0.340044 1.67664 -1.5354e-18)
(-0.341018 1.68815 1.55632e-18)
(-0.341511 1.70117 -1.54917e-18)
(-0.341387 1.71607 2.40162e-17)
(-0.340409 1.73322 -2.28866e-17)
(-0.338407 1.75297 0)
(-0.335199 1.77558 0)
(-0.330598 1.8012 1.12235e-18)
(-0.324408 1.8298 0)
(-0.316323 1.86134 8.96401e-19)
(-0.306037 1.89621 1.19376e-17)
(-0.293433 1.9348 -1.29481e-17)
(-0.278071 1.97751 1.32133e-18)
(-0.259511 2.0245 1.21906e-18)
(-0.23794 2.07531 1.0017e-17)
(-0.213679 2.12921 -9.16814e-18)
(-0.187228 2.18491 9.21273e-19)
(-0.159294 2.24082 -7.50913e-18)
(-0.130701 2.29546 6.0919e-18)
(-0.102309 2.34754 0)
(-0.0748011 2.39598 4.39315e-18)
(-0.0488739 2.44038 -4.64941e-18)
(-0.0249299 2.48075 -5.40881e-19)
(-0.00300414 2.51723 0)
(0.0167598 2.55009 0)
(0.0342606 2.5797 2.71798e-18)
(0.0495228 2.60637 -3.48536e-18)
(0.0626294 2.63039 -8.2831e-19)
(0.073692 2.65209 -7.89114e-19)
(0.0828545 2.67181 7.46556e-19)
(0.0902873 2.68989 2.12433e-18)
(0.0961735 2.70664 -2.73979e-18)