/*--------------------------------*- C++ -*----------------------------------*\
  =========                 |
  \\      /  F ield         | OpenFOAM: The Open Source CFD Toolbox
   \\    /   O peration     | Website:  https://openfoam.org
    \\  /    A nd           | Version:  10
     \\/     M anipulation  |
\*---------------------------------------------------------------------------*/
FoamFile
{
    format      ascii;
    class       volScalarField;
    location    "27000";
    object      nut;
}
// * * * * * * * * * * * * * * * * * * * * * * * * * * * * * * * * * * * * * //

dimensions      [0 2 -1 0 0 0 0];

internalField   nonuniform List<scalar> 
17808
(
3.30226e-06
2.50852e-05
4.37258e-05
6.17282e-05
8.06837e-05
0.000100277
0.000120371
0.000140894
0.000161807
0.000183088
0.00020472
0.000226696
0.00024901
0.000271659
0.000294642
0.000317957
0.000341606
0.000365591
0.000389912
0.000414573
0.000439576
0.000464925
0.000490623
0.000516673
0.000543079
0.000569846
0.000596977
0.000624476
0.000652349
0.000680599
0.000709232
0.000738251
0.000767661
0.000797468
0.000827676
0.00085829
0.000889316
0.000920757
0.000952619
0.000984907
0.00101763
0.00105078
0.00108438
0.00111842
0.00115292
0.00118787
0.00122328
0.00125916
0.0012955
0.00133233
0.00136963
0.00140742
0.0014457
0.00148447
0.00152374
0.00156351
0.00160379
0.00164457
0.00168587
0.00172768
0.00177001
0.00181286
0.00185623
0.00190013
0.00194455
0.0019895
0.00203497
0.00208096
0.00212748
0.00217452
0.00222208
0.00227016
0.00231874
0.00236784
0.00241744
0.00246754
0.00251813
0.0025692
0.00262074
0.00267274
0.00272519
0.00277808
0.00283138
0.00288509
0.00293918
0.00299363
0.00304843
0.00310353
0.00315893
0.00321458
0.00327046
0.00332653
3.29447e-06
2.53512e-05
4.37051e-05
6.17086e-05
8.06604e-05
0.000100251
0.000120341
0.000140862
0.000161773
0.000183052
0.000204683
0.000226659
0.000248972
0.000271621
0.000294603
0.000317919
0.000341568
0.000365553
0.000389875
0.000414537
0.000439541
0.000464891
0.000490589
0.00051664
0.000543048
0.000569815
0.000596947
0.000624448
0.000652322
0.000680573
0.000709207
0.000738227
0.000767638
0.000797446
0.000827655
0.00085827
0.000889296
0.000920739
0.000952602
0.000984891
0.00101761
0.00105077
0.00108437
0.00111841
0.0011529
0.00118786
0.00122327
0.00125915
0.0012955
0.00133232
0.00136963
0.00140742
0.0014457
0.00148447
0.00152374
0.00156351
0.00160379
0.00164458
0.00168587
0.00172769
0.00177002
0.00181287
0.00185624
0.00190014
0.00194456
0.00198951
0.00203498
0.00208098
0.0021275
0.00217454
0.0022221
0.00227017
0.00231876
0.00236786
0.00241746
0.00246756
0.00251815
0.00256922
0.00262077
0.00267277
0.00272522
0.00277811
0.00283141
0.00288512
0.00293921
0.00299367
0.00304846
0.00310357
0.00315897
0.00321462
0.0032705
0.00332658
3.29118e-06
2.54075e-05
4.36803e-05
6.16836e-05
8.06333e-05
0.000100223
0.000120313
0.000140833
0.000161743
0.000183021
0.000204653
0.000226628
0.000248941
0.00027159
0.000294572
0.000317888
0.000341538
0.000365524
0.000389846
0.000414509
0.000439514
0.000464864
0.000490563
0.000516615
0.000543023
0.000569792
0.000596925
0.000624426
0.000652301
0.000680553
0.000709187
0.000738208
0.000767621
0.000797429
0.000827639
0.000858255
0.000889282
0.000920725
0.000952589
0.000984879
0.0010176
0.00105076
0.00108436
0.0011184
0.0011529
0.00118785
0.00122326
0.00125914
0.00129549
0.00133232
0.00136963
0.00140742
0.0014457
0.00148447
0.00152374
0.00156352
0.0016038
0.00164458
0.00168588
0.0017277
0.00177003
0.00181288
0.00185625
0.00190015
0.00194457
0.00198952
0.002035
0.00208099
0.00212751
0.00217456
0.00222212
0.0022702
0.00231879
0.00236789
0.00241749
0.00246759
0.00251818
0.00256925
0.0026208
0.0026728
0.00272526
0.00277814
0.00283145
0.00288516
0.00293926
0.00299371
0.00304851
0.00310362
0.00315902
0.00321467
0.00327055
0.00332662
3.29109e-06
2.53885e-05
4.36632e-05
6.16624e-05
8.06099e-05
0.000100198
0.000120287
0.000140807
0.000161717
0.000182995
0.000204626
0.000226601
0.000248914
0.000271563
0.000294546
0.000317862
0.000341513
0.000365498
0.000389822
0.000414485
0.00043949
0.000464841
0.000490541
0.000516594
0.000543003
0.000569772
0.000596905
0.000624408
0.000652283
0.000680536
0.000709171
0.000738193
0.000767606
0.000797415
0.000827626
0.000858243
0.000889271
0.000920715
0.000952579
0.00098487
0.00101759
0.00105075
0.00108435
0.0011184
0.00115289
0.00118785
0.00122326
0.00125914
0.00129549
0.00133232
0.00136963
0.00140742
0.0014457
0.00148448
0.00152375
0.00156352
0.0016038
0.00164459
0.00168589
0.0017277
0.00177004
0.00181289
0.00185626
0.00190016
0.00194459
0.00198954
0.00203501
0.00208101
0.00212753
0.00217458
0.00222214
0.00227022
0.00231881
0.00236791
0.00241752
0.00246762
0.00251821
0.00256928
0.00262083
0.00267284
0.00272529
0.00277818
0.00283149
0.0028852
0.00293929
0.00299375
0.00304855
0.00310366
0.00315906
0.00321472
0.0032706
0.00332667
3.29128e-06
2.53802e-05
4.36537e-05
6.16481e-05
8.05939e-05
0.000100181
0.000120269
0.000140788
0.000161697
0.000182975
0.000204605
0.000226579
0.000248892
0.000271541
0.000294524
0.00031784
0.000341491
0.000365477
0.000389801
0.000414464
0.00043947
0.000464822
0.000490522
0.000516575
0.000542985
0.000569755
0.000596889
0.000624392
0.000652268
0.000680522
0.000709157
0.00073818
0.000767594
0.000797404
0.000827616
0.000858233
0.000889262
0.000920706
0.000952572
0.000984863
0.00101759
0.00105074
0.00108435
0.00111839
0.00115289
0.00118784
0.00122326
0.00125914
0.00129549
0.00133232
0.00136963
0.00140742
0.0014457
0.00148448
0.00152375
0.00156353
0.00160381
0.0016446
0.0016859
0.00172771
0.00177005
0.0018129
0.00185628
0.00190018
0.0019446
0.00198955
0.00203503
0.00208103
0.00212755
0.0021746
0.00222216
0.00227024
0.00231883
0.00236794
0.00241754
0.00246765
0.00251824
0.00256931
0.00262086
0.00267287
0.00272532
0.00277822
0.00283153
0.00288524
0.00293933
0.00299379
0.00304859
0.0031037
0.0031591
0.00321476
0.00327065
0.00332672
3.29135e-06
2.53768e-05
4.36478e-05
6.16372e-05
8.05816e-05
0.000100168
0.000120255
0.000140773
0.000161682
0.000182959
0.000204588
0.000226562
0.000248875
0.000271523
0.000294506
0.000317822
0.000341472
0.000365459
0.000389783
0.000414446
0.000439453
0.000464805
0.000490506
0.00051656
0.00054297
0.00056974
0.000596875
0.000624379
0.000652255
0.00068051
0.000709146
0.000738169
0.000767584
0.000797395
0.000827607
0.000858225
0.000889254
0.000920699
0.000952566
0.000984858
0.00101758
0.00105074
0.00108434
0.00111839
0.00115289
0.00118784
0.00122326
0.00125914
0.00129549
0.00133232
0.00136963
0.00140743
0.00144571
0.00148449
0.00152376
0.00156354
0.00160382
0.00164461
0.00168591
0.00172772
0.00177006
0.00181291
0.00185629
0.00190019
0.00194462
0.00198957
0.00203504
0.00208105
0.00212757
0.00217462
0.00222218
0.00227026
0.00231886
0.00236796
0.00241757
0.00246767
0.00251827
0.00256934
0.00262089
0.0026729
0.00272536
0.00277825
0.00283156
0.00288527
0.00293937
0.00299383
0.00304863
0.00310374
0.00315915
0.00321481
0.00327069
0.00332677
3.29161e-06
2.53728e-05
4.36439e-05
6.16286e-05
8.0571e-05
0.000100156
0.000120243
0.00014076
0.000161669
0.000182945
0.000204574
0.000226547
0.000248859
0.000271507
0.00029449
0.000317806
0.000341456
0.000365443
0.000389767
0.000414431
0.000439437
0.00046479
0.000490491
0.000516546
0.000542956
0.000569727
0.000596863
0.000624367
0.000652244
0.000680499
0.000709136
0.00073816
0.000767575
0.000797387
0.0008276
0.000858219
0.000889248
0.000920694
0.000952561
0.000984854
0.00101758
0.00105074
0.00108434
0.00111839
0.00115289
0.00118784
0.00122326
0.00125914
0.0012955
0.00133233
0.00136964
0.00140743
0.00144571
0.00148449
0.00152377
0.00156354
0.00160383
0.00164462
0.00168592
0.00172774
0.00177007
0.00181293
0.0018563
0.00190021
0.00194463
0.00198958
0.00203506
0.00208106
0.00212759
0.00217464
0.0022222
0.00227028
0.00231888
0.00236799
0.00241759
0.0024677
0.0025183
0.00256937
0.00262092
0.00267293
0.00272539
0.00277828
0.0028316
0.00288531
0.00293941
0.00299387
0.00304867
0.00310378
0.00315919
0.00321485
0.00327073
0.00332681
3.29202e-06
2.53698e-05
4.36416e-05
6.1622e-05
8.05622e-05
0.000100146
0.000120232
0.000140749
0.000161657
0.000182933
0.000204562
0.000226534
0.000248846
0.000271494
0.000294476
0.000317792
0.000341442
0.000365428
0.000389752
0.000414417
0.000439424
0.000464776
0.000490478
0.000516533
0.000542944
0.000569716
0.000596852
0.000624357
0.000652235
0.00068049
0.000709128
0.000738152
0.000767568
0.00079738
0.000827594
0.000858213
0.000889244
0.00092069
0.000952558
0.000984852
0.00101758
0.00105074
0.00108434
0.00111839
0.00115289
0.00118784
0.00122326
0.00125915
0.0012955
0.00133233
0.00136964
0.00140744
0.00144572
0.0014845
0.00152377
0.00156355
0.00160383
0.00164463
0.00168593
0.00172775
0.00177008
0.00181294
0.00185632
0.00190022
0.00194465
0.0019896
0.00203508
0.00208108
0.00212761
0.00217466
0.00222222
0.00227031
0.0023189
0.00236801
0.00241762
0.00246773
0.00251832
0.0025694
0.00262095
0.00267296
0.00272542
0.00277832
0.00283163
0.00288535
0.00293945
0.00299391
0.00304871
0.00310383
0.00315923
0.00321489
0.00327078
0.00332685
3.29245e-06
2.53681e-05
4.36407e-05
6.16172e-05
8.0555e-05
0.000100137
0.000120223
0.00014074
0.000161647
0.000182923
0.000204551
0.000226523
0.000248835
0.000271482
0.000294464
0.000317779
0.00034143
0.000365416
0.00038974
0.000414404
0.000439411
0.000464765
0.000490467
0.000516522
0.000542934
0.000569706
0.000596842
0.000624348
0.000652226
0.000680482
0.00070912
0.000738146
0.000767562
0.000797375
0.000827589
0.000858209
0.00088924
0.000920688
0.000952556
0.00098485
0.00101758
0.00105074
0.00108434
0.00111839
0.00115289
0.00118785
0.00122326
0.00125915
0.0012955
0.00133233
0.00136965
0.00140744
0.00144573
0.00148451
0.00152378
0.00156356
0.00160384
0.00164464
0.00168594
0.00172776
0.0017701
0.00181295
0.00185633
0.00190024
0.00194467
0.00198962
0.0020351
0.0020811
0.00212763
0.00217468
0.00222224
0.00227033
0.00231893
0.00236804
0.00241765
0.00246775
0.00251835
0.00256943
0.00262098
0.00267299
0.00272546
0.00277835
0.00283166
0.00288538
0.00293948
0.00299394
0.00304875
0.00310386
0.00315927
0.00321493
0.00327082
0.0033269
3.29285e-06
2.53672e-05
4.36408e-05
6.16139e-05
8.05492e-05
0.00010013
0.000120215
0.000140731
0.000161639
0.000182914
0.000204542
0.000226514
0.000248825
0.000271472
0.000294453
0.000317769
0.000341419
0.000365405
0.000389729
0.000414393
0.000439401
0.000464754
0.000490456
0.000516512
0.000542924
0.000569696
0.000596833
0.000624339
0.000652218
0.000680475
0.000709114
0.00073814
0.000767557
0.00079737
0.000827585
0.000858206
0.000889238
0.000920685
0.000952554
0.000984849
0.00101758
0.00105074
0.00108434
0.00111839
0.00115289
0.00118785
0.00122327
0.00125915
0.00129551
0.00133234
0.00136965
0.00140745
0.00144574
0.00148452
0.00152379
0.00156357
0.00160386
0.00164465
0.00168595
0.00172777
0.00177011
0.00181297
0.00185635
0.00190025
0.00194468
0.00198964
0.00203512
0.00208112
0.00212765
0.0021747
0.00222227
0.00227035
0.00231895
0.00236806
0.00241767
0.00246778
0.00251838
0.00256946
0.00262101
0.00267303
0.00272549
0.00277838
0.0028317
0.00288542
0.00293952
0.00299398
0.00304879
0.0031039
0.00315931
0.00321497
0.00327086
0.00332694
3.29324e-06
2.53667e-05
4.36418e-05
6.16119e-05
8.05447e-05
0.000100124
0.000120208
0.000140724
0.000161631
0.000182906
0.000204534
0.000226506
0.000248816
0.000271463
0.000294444
0.000317759
0.000341409
0.000365395
0.000389719
0.000414383
0.000439391
0.000464744
0.000490447
0.000516503
0.000542915
0.000569688
0.000596826
0.000624332
0.000652211
0.000680469
0.000709108
0.000738134
0.000767552
0.000797366
0.000827582
0.000858203
0.000889235
0.000920684
0.000952553
0.000984849
0.00101758
0.00105074
0.00108434
0.00111839
0.0011529
0.00118785
0.00122327
0.00125916
0.00129552
0.00133235
0.00136966
0.00140746
0.00144574
0.00148452
0.0015238
0.00156358
0.00160387
0.00164466
0.00168597
0.00172779
0.00177013
0.00181298
0.00185637
0.00190027
0.0019447
0.00198965
0.00203513
0.00208114
0.00212767
0.00217472
0.00222229
0.00227038
0.00231898
0.00236809
0.0024177
0.00246781
0.00251841
0.00256949
0.00262104
0.00267306
0.00272552
0.00277842
0.00283173
0.00288545
0.00293955
0.00299402
0.00304882
0.00310394
0.00315935
0.00321501
0.0032709
0.00332698
3.2936e-06
2.53666e-05
4.36433e-05
6.16108e-05
8.05412e-05
0.000100119
0.000120202
0.000140717
0.000161624
0.000182899
0.000204526
0.000226498
0.000248809
0.000271455
0.000294436
0.000317751
0.0003414
0.000365386
0.00038971
0.000414375
0.000439382
0.000464736
0.000490439
0.000516495
0.000542907
0.00056968
0.000596818
0.000624325
0.000652205
0.000680463
0.000709103
0.00073813
0.000767548
0.000797363
0.000827579
0.000858201
0.000889234
0.000920683
0.000952553
0.000984849
0.00101758
0.00105074
0.00108435
0.0011184
0.0011529
0.00118786
0.00122328
0.00125916
0.00129552
0.00133235
0.00136967
0.00140747
0.00144575
0.00148453
0.00152381
0.00156359
0.00160388
0.00164467
0.00168598
0.0017278
0.00177014
0.001813
0.00185638
0.00190029
0.00194472
0.00198967
0.00203515
0.00208116
0.00212769
0.00217474
0.00222231
0.0022704
0.002319
0.00236811
0.00241772
0.00246784
0.00251844
0.00256952
0.00262107
0.00267309
0.00272555
0.00277845
0.00283177
0.00288549
0.00293959
0.00299405
0.00304886
0.00310398
0.00315939
0.00321505
0.00327094
0.00332702
3.29393e-06
2.53669e-05
4.36452e-05
6.16106e-05
8.05387e-05
0.000100115
0.000120196
0.000140711
0.000161618
0.000182892
0.00020452
0.000226491
0.000248802
0.000271448
0.000294428
0.000317743
0.000341393
0.000365378
0.000389702
0.000414367
0.000439374
0.000464728
0.000490431
0.000516487
0.0005429
0.000569674
0.000596812
0.000624319
0.0006522
0.000680458
0.000709098
0.000738125
0.000767544
0.00079736
0.000827576
0.000858199
0.000889232
0.000920682
0.000952553
0.00098485
0.00101758
0.00105074
0.00108435
0.0011184
0.0011529
0.00118786
0.00122328
0.00125917
0.00129553
0.00133236
0.00136968
0.00140747
0.00144576
0.00148454
0.00152382
0.00156361
0.00160389
0.00164469
0.00168599
0.00172782
0.00177016
0.00181302
0.0018564
0.0019003
0.00194474
0.00198969
0.00203517
0.00208118
0.00212771
0.00217476
0.00222233
0.00227042
0.00231902
0.00236814
0.00241775
0.00246786
0.00251846
0.00256955
0.0026211
0.00267312
0.00272558
0.00277848
0.0028318
0.00288552
0.00293962
0.00299409
0.0030489
0.00310402
0.00315943
0.00321509
0.00327098
0.00332706
3.29422e-06
2.53673e-05
4.36475e-05
6.16112e-05
8.05371e-05
0.000100111
0.000120192
0.000140706
0.000161612
0.000182886
0.000204514
0.000226485
0.000248796
0.000271442
0.000294422
0.000317737
0.000341386
0.000365372
0.000389695
0.00041436
0.000439367
0.000464721
0.000490424
0.00051648
0.000542894
0.000569667
0.000596806
0.000624314
0.000652194
0.000680453
0.000709094
0.000738122
0.000767541
0.000797357
0.000827574
0.000858197
0.000889232
0.000920682
0.000952553
0.000984851
0.00101758
0.00105074
0.00108435
0.0011184
0.00115291
0.00118787
0.00122329
0.00125918
0.00129554
0.00133237
0.00136968
0.00140748
0.00144577
0.00148456
0.00152384
0.00156362
0.0016039
0.0016447
0.00168601
0.00172783
0.00177017
0.00181303
0.00185642
0.00190032
0.00194475
0.00198971
0.00203519
0.0020812
0.00212773
0.00217478
0.00222236
0.00227045
0.00231905
0.00236816
0.00241778
0.00246789
0.00251849
0.00256958
0.00262113
0.00267315
0.00272561
0.00277851
0.00283183
0.00288555
0.00293966
0.00299413
0.00304893
0.00310406
0.00315946
0.00321513
0.00327102
0.0033271
3.29448e-06
2.53679e-05
4.365e-05
6.16123e-05
8.05363e-05
0.000100109
0.000120188
0.000140701
0.000161607
0.000182881
0.000204508
0.00022648
0.00024879
0.000271436
0.000294416
0.000317731
0.00034138
0.000365365
0.000389689
0.000414353
0.000439361
0.000464715
0.000490418
0.000516474
0.000542888
0.000569662
0.000596801
0.000624309
0.00065219
0.000680449
0.00070909
0.000738118
0.000767538
0.000797355
0.000827572
0.000858196
0.000889231
0.000920682
0.000952554
0.000984852
0.00101758
0.00105075
0.00108435
0.00111841
0.00115291
0.00118787
0.00122329
0.00125918
0.00129554
0.00133238
0.00136969
0.00140749
0.00144578
0.00148457
0.00152385
0.00156363
0.00160392
0.00164471
0.00168602
0.00172785
0.00177019
0.00181305
0.00185643
0.00190034
0.00194477
0.00198973
0.00203521
0.00208122
0.00212775
0.0021748
0.00222238
0.00227047
0.00231907
0.00236819
0.0024178
0.00246792
0.00251852
0.0025696
0.00262116
0.00267318
0.00272565
0.00277855
0.00283187
0.00288559
0.00293969
0.00299416
0.00304897
0.00310409
0.0031595
0.00321517
0.00327106
0.00332714
3.29471e-06
2.53687e-05
4.36526e-05
6.16139e-05
8.05362e-05
0.000100107
0.000120185
0.000140697
0.000161603
0.000182876
0.000204504
0.000226475
0.000248785
0.000271431
0.000294411
0.000317725
0.000341374
0.00036536
0.000389684
0.000414348
0.000439355
0.000464709
0.000490412
0.000516469
0.000542883
0.000569657
0.000596796
0.000624304
0.000652186
0.000680445
0.000709087
0.000738115
0.000767536
0.000797353
0.000827571
0.000858195
0.000889231
0.000920682
0.000952555
0.000984854
0.00101758
0.00105075
0.00108436
0.00111841
0.00115292
0.00118788
0.0012233
0.00125919
0.00129555
0.00133239
0.0013697
0.0014075
0.00144579
0.00148458
0.00152386
0.00156364
0.00160393
0.00164473
0.00168604
0.00172786
0.0017702
0.00181307
0.00185645
0.00190036
0.00194479
0.00198975
0.00203523
0.00208124
0.00212777
0.00217483
0.0022224
0.00227049
0.0023191
0.00236821
0.00241783
0.00246794
0.00251855
0.00256963
0.00262119
0.00267321
0.00272568
0.00277858
0.0028319
0.00288562
0.00293973
0.0029942
0.00304901
0.00310413
0.00315953
0.0032152
0.00327109
0.00332718
3.29492e-06
2.53695e-05
4.36554e-05
6.16159e-05
8.05367e-05
0.000100106
0.000120183
0.000140694
0.000161599
0.000182872
0.000204499
0.00022647
0.00024878
0.000271426
0.000294406
0.000317721
0.00034137
0.000365355
0.000389678
0.000414343
0.00043935
0.000464704
0.000490408
0.000516464
0.000542878
0.000569652
0.000596792
0.0006243
0.000652182
0.000680442
0.000709084
0.000738113
0.000767534
0.000797351
0.00082757
0.000858194
0.00088923
0.000920682
0.000952556
0.000984855
0.00101759
0.00105075
0.00108436
0.00111842
0.00115292
0.00118788
0.00122331
0.0012592
0.00129556
0.00133239
0.00136971
0.00140751
0.0014458
0.00148459
0.00152387
0.00156365
0.00160394
0.00164474
0.00168605
0.00172788
0.00177022
0.00181308
0.00185647
0.00190038
0.00194481
0.00198977
0.00203525
0.00208126
0.00212779
0.00217485
0.00222242
0.00227052
0.00231912
0.00236824
0.00241785
0.00246797
0.00251858
0.00256966
0.00262122
0.00267324
0.00272571
0.00277861
0.00283193
0.00288566
0.00293976
0.00299423
0.00304904
0.00310416
3.2951e-06
2.53704e-05
4.36581e-05
6.16183e-05
8.05378e-05
0.000100106
0.000120181
0.000140691
0.000161595
0.000182868
0.000204495
0.000226466
0.000248776
0.000271422
0.000294402
0.000317716
0.000341365
0.00036535
0.000389674
0.000414338
0.000439346
0.000464699
0.000490403
0.00051646
0.000542874
0.000569648
0.000596788
0.000624297
0.000652179
0.000680439
0.000709081
0.000738111
0.000767532
0.00079735
0.000827569
0.000858194
0.000889231
0.000920683
0.000952557
0.000984857
0.00101759
0.00105076
0.00108436
0.00111842
0.00115293
0.00118789
0.00122331
0.0012592
0.00129556
0.0013324
0.00136972
0.00140752
0.00144581
0.0014846
0.00152388
0.00156367
0.00160396
0.00164475
0.00168607
0.00172789
0.00177024
0.0018131
0.00185648
0.00190039
0.00194483
0.00198979
0.00203527
0.00208128
0.00212781
0.00217487
0.00222245
0.00227054
0.00231915
0.00236826
0.00241788
0.002468
0.0025186
0.00256969
0.00262125
0.00267327
0.00272574
0.00277864
0.00283197
0.00288569
0.0029398
0.00299427
0.00304907
0.00310419
3.29526e-06
2.53713e-05
4.36608e-05
6.16208e-05
8.05393e-05
0.000100106
0.00012018
0.000140689
0.000161592
0.000182865
0.000204491
0.000226462
0.000248772
0.000271418
0.000294398
0.000317712
0.000341361
0.000365346
0.00038967
0.000414334
0.000439341
0.000464695
0.000490399
0.000516456
0.00054287
0.000569645
0.000596785
0.000624294
0.000652176
0.000680436
0.000709079
0.000738109
0.00076753
0.000797349
0.000827568
0.000858194
0.000889231
0.000920684
0.000952558
0.000984859
0.00101759
0.00105076
0.00108437
0.00111842
0.00115293
0.00118789
0.00122332
0.00125921
0.00129557
0.00133241
0.00136973
0.00140753
0.00144582
0.00148461
0.00152389
0.00156368
0.00160397
0.00164477
0.00168608
0.00172791
0.00177025
0.00181312
0.0018565
0.00190041
0.00194485
0.00198981
0.00203529
0.0020813
0.00212784
0.00217489
0.00222247
0.00227056
0.00231917
0.00236829
0.00241791
0.00246802
0.00251863
0.00256972
0.00262128
0.0026733
0.00272577
0.00277868
0.002832
0.00288573
0.00293983
0.0029943
0.0030491
0.00310422
3.29541e-06
2.53723e-05
4.36635e-05
6.16236e-05
8.05411e-05
0.000100106
0.000120179
0.000140688
0.00016159
0.000182862
0.000204488
0.000226459
0.000248769
0.000271415
0.000294394
0.000317709
0.000341357
0.000365343
0.000389666
0.00041433
0.000439338
0.000464692
0.000490395
0.000516452
0.000542867
0.000569642
0.000596782
0.000624291
0.000652173
0.000680434
0.000709077
0.000738107
0.000767529
0.000797348
0.000827568
0.000858194
0.000889231
0.000920685
0.00095256
0.000984861
0.00101759
0.00105076
0.00108437
0.00111843
0.00115294
0.0011879
0.00122333
0.00125922
0.00129558
0.00133242
0.00136974
0.00140754
0.00144583
0.00148462
0.00152391
0.00156369
0.00160398
0.00164478
0.00168609
0.00172792
0.00177027
0.00181313
0.00185652
0.00190043
0.00194486
0.00198983
0.00203531
0.00208132
0.00212786
0.00217491
0.00222249
0.00227059
0.00231919
0.00236831
0.00241793
0.00246805
0.00251866
0.00256975
0.00262131
0.00267333
0.0027258
0.00277871
0.00283203
0.00288576
0.00293986
3.29554e-06
2.53734e-05
4.36661e-05
6.16264e-05
8.05433e-05
0.000100107
0.000120179
0.000140687
0.000161588
0.00018286
0.000204485
0.000226456
0.000248766
0.000271411
0.000294391
0.000317705
0.000341354
0.000365339
0.000389663
0.000414327
0.000439334
0.000464688
0.000490392
0.000516449
0.000542864
0.000569639
0.000596779
0.000624288
0.000652171
0.000680432
0.000709075
0.000738106
0.000767528
0.000797347
0.000827567
0.000858194
0.000889232
0.000920686
0.000952561
0.000984863
0.0010176
0.00105076
0.00108438
0.00111843
0.00115294
0.00118791
0.00122333
0.00125922
0.00129559
0.00133243
0.00136975
0.00140755
0.00144584
0.00148463
0.00152392
0.0015637
0.001604
0.0016448
0.00168611
0.00172794
0.00177028
0.00181315
0.00185654
0.00190045
0.00194488
0.00198984
0.00203533
0.00208134
0.00212788
0.00217494
0.00222251
0.00227061
0.00231922
0.00236834
0.00241796
0.00246808
0.00251869
0.00256978
0.00262134
0.00267336
0.00272583
0.00277874
0.00283207
0.00288579
0.00293989
3.29566e-06
2.53744e-05
4.36686e-05
6.16294e-05
8.05458e-05
0.000100109
0.00012018
0.000140686
0.000161587
0.000182858
0.000204483
0.000226453
0.000248763
0.000271408
0.000294388
0.000317702
0.000341351
0.000365336
0.00038966
0.000414324
0.000439331
0.000464685
0.000490389
0.000516446
0.000542861
0.000569636
0.000596776
0.000624286
0.000652169
0.00068043
0.000709074
0.000738105
0.000767528
0.000797347
0.000827567
0.000858195
0.000889233
0.000920687
0.000952563
0.000984865
0.0010176
0.00105077
0.00108438
0.00111844
0.00115295
0.00118791
0.00122334
0.00125923
0.00129559
0.00133243
0.00136975
0.00140756
0.00144585
0.00148464
0.00152393
0.00156372
0.00160401
0.00164481
0.00168612
0.00172795
0.0017703
0.00181316
0.00185655
0.00190047
0.0019449
0.00198986
0.00203535
0.00208136
0.0021279
0.00217496
0.00222254
0.00227063
0.00231924
0.00236836
0.00241799
0.00246811
0.00251872
0.00256981
0.00262137
0.00267339
0.00272587
0.00277877
0.0028321
0.00288582
0.00293992
3.29577e-06
2.53754e-05
4.36711e-05
6.16324e-05
8.05485e-05
0.000100111
0.000120181
0.000140686
0.000161586
0.000182856
0.000204481
0.000226451
0.00024876
0.000271406
0.000294385
0.000317699
0.000341348
0.000365333
0.000389657
0.000414321
0.000439329
0.000464683
0.000490387
0.000516444
0.000542858
0.000569634
0.000596774
0.000624284
0.000652167
0.000680429
0.000709073
0.000738104
0.000767527
0.000797347
0.000827568
0.000858195
0.000889234
0.000920689
0.000952565
0.000984867
0.0010176
0.00105077
0.00108438
0.00111844
0.00115295
0.00118792
0.00122334
0.00125924
0.0012956
0.00133244
0.00136976
0.00140757
0.00144586
0.00148465
0.00152394
0.00156373
0.00160402
0.00164482
0.00168614
0.00172797
0.00177031
0.00181318
0.00185657
0.00190048
0.00194492
0.00198988
0.00203537
0.00208138
0.00212792
0.00217498
0.00222256
0.00227066
0.00231927
0.00236839
0.00241801
0.00246813
0.00251874
0.00256984
0.0026214
0.00267342
0.0027259
0.0027788
0.00283213
0.00288585
0.00293995
3.29587e-06
2.53765e-05
4.36734e-05
6.16354e-05
8.05513e-05
0.000100113
0.000120182
0.000140686
0.000161586
0.000182855
0.000204479
0.000226449
0.000248758
0.000271403
0.000294383
0.000317697
0.000341346
0.000365331
0.000389654
0.000414318
0.000439326
0.00046468
0.000490384
0.000516442
0.000542856
0.000569632
0.000596772
0.000624282
0.000652166
0.000680428
0.000709072
0.000738103
0.000767527
0.000797346
0.000827568
0.000858196
0.000889235
0.00092069
0.000952567
0.00098487
0.0010176
0.00105077
0.00108439
0.00111845
0.00115296
0.00118792
0.00122335
0.00125924
0.00129561
0.00133245
0.00136977
0.00140758
0.00144587
0.00148466
0.00152395
0.00156374
0.00160403
0.00164484
0.00168615
0.00172798
0.00177033
0.0018132
0.00185659
0.0019005
0.00194494
0.0019899
0.00203539
0.0020814
0.00212794
0.002175
0.00222258
0.00227068
0.00231929
0.00236841
0.00241804
0.00246816
0.00251877
0.00256986
0.00262143
0.00267345
0.00272593
0.00277884
0.00283216
0.00288588
0.00293998
3.29596e-06
2.53775e-05
4.36757e-05
6.16384e-05
8.05542e-05
0.000100115
0.000120183
0.000140687
0.000161586
0.000182854
0.000204478
0.000226447
0.000248756
0.000271401
0.00029438
0.000317694
0.000341343
0.000365328
0.000389652
0.000414316
0.000439324
0.000464678
0.000490382
0.000516439
0.000542854
0.00056963
0.000596771
0.000624281
0.000652165
0.000680426
0.000709071
0.000738103
0.000767526
0.000797347
0.000827568
0.000858197
0.000889236
0.000920692
0.000952569
0.000984872
0.00101761
0.00105078
0.00108439
0.00111845
0.00115296
0.00118793
0.00122336
0.00125925
0.00129562
0.00133246
0.00136978
0.00140759
0.00144588
0.00148467
0.00152396
0.00156375
0.00160405
0.00164485
0.00168617
0.001728
0.00177034
0.00181321
0.0018566
0.00190052
0.00194496
0.00198992
0.00203541
0.00208142
0.00212796
0.00217502
0.0022226
0.0022707
0.00231932
0.00236844
0.00241806
0.00246819
0.0025188
0.00256989
0.00262146
0.00267348
0.00272596
0.00277887
0.00283219
0.00288591
0.00294001
3.29605e-06
2.53785e-05
4.36779e-05
6.16413e-05
8.05573e-05
0.000100118
0.000120185
0.000140688
0.000161586
0.000182854
0.000204477
0.000226446
0.000248754
0.000271399
0.000294378
0.000317692
0.000341341
0.000365326
0.00038965
0.000414314
0.000439322
0.000464676
0.00049038
0.000516437
0.000542852
0.000569628
0.000596769
0.000624279
0.000652163
0.000680426
0.00070907
0.000738102
0.000767526
0.000797347
0.000827569
0.000858197
0.000889237
0.000920694
0.000952571
0.000984875
0.00101761
0.00105078
0.00108439
0.00111845
0.00115297
0.00118793
0.00122336
0.00125926
0.00129562
0.00133247
0.00136979
0.0014076
0.00144589
0.00148468
0.00152397
0.00156376
0.00160406
0.00164486
0.00168618
0.00172801
0.00177036
0.00181323
0.00185662
0.00190053
0.00194497
0.00198994
0.00203543
0.00208144
0.00212798
0.00217504
0.00222263
0.00227073
0.00231934
0.00236846
0.00241809
0.00246821
0.00251883
0.00256992
0.00262149
0.00267351
0.00272599
0.0027789
0.00283222
0.00288594
0.00294004
3.29613e-06
2.53795e-05
4.36799e-05
6.16442e-05
8.05604e-05
0.000100121
0.000120188
0.00014069
0.000161587
0.000182854
0.000204477
0.000226445
0.000248753
0.000271397
0.000294377
0.00031769
0.000341339
0.000365324
0.000389648
0.000414312
0.00043932
0.000464674
0.000490378
0.000516436
0.000542851
0.000569626
0.000596768
0.000624278
0.000652162
0.000680425
0.00070907
0.000738102
0.000767526
0.000797347
0.000827569
0.000858198
0.000889239
0.000920695
0.000952573
0.000984877
0.00101761
0.00105079
0.0010844
0.00111846
0.00115297
0.00118794
0.00122337
0.00125926
0.00129563
0.00133247
0.0013698
0.00140761
0.0014459
0.00148469
0.00152398
0.00156377
0.00160407
0.00164488
0.00168619
0.00172802
0.00177037
0.00181324
0.00185664
0.00190055
0.00194499
0.00198996
0.00203545
0.00208146
0.002128
0.00217507
0.00222265
0.00227075
0.00231936
0.00236849
0.00241811
0.00246824
0.00251885
0.00256995
0.00262152
0.00267354
0.00272602
0.00277893
0.00283225
0.00288597
0.00294007
3.29621e-06
2.53805e-05
4.36819e-05
6.16471e-05
8.05635e-05
0.000100124
0.00012019
0.000140691
0.000161588
0.000182854
0.000204477
0.000226444
0.000248752
0.000271396
0.000294375
0.000317689
0.000341337
0.000365322
0.000389646
0.00041431
0.000439318
0.000464672
0.000490376
0.000516434
0.000542849
0.000569625
0.000596766
0.000624277
0.000652161
0.000680424
0.000709069
0.000738102
0.000767526
0.000797347
0.00082757
0.000858199
0.00088924
0.000920697
0.000952575
0.00098488
0.00101762
0.00105079
0.0010844
0.00111846
0.00115298
0.00118794
0.00122337
0.00125927
0.00129564
0.00133248
0.00136981
0.00140761
0.00144591
0.0014847
0.00152399
0.00156379
0.00160408
0.00164489
0.00168621
0.00172804
0.00177039
0.00181326
0.00185665
0.00190057
0.00194501
0.00198997
0.00203547
0.00208148
0.00212802
0.00217509
0.00222267
0.00227077
0.00231939
0.00236851
0.00241814
0.00246827
0.00251888
0.00256998
0.00262155
0.00267357
0.00272605
0.00277895
0.00283228
0.002886
0.0029401
3.29628e-06
2.53815e-05
4.36837e-05
6.16498e-05
8.05667e-05
0.000100127
0.000120193
0.000140693
0.000161589
0.000182855
0.000204477
0.000226444
0.000248751
0.000271395
0.000294374
0.000317687
0.000341336
0.000365321
0.000389644
0.000414308
0.000439316
0.00046467
0.000490375
0.000516432
0.000542848
0.000569624
0.000596765
0.000624276
0.000652161
0.000680423
0.000709069
0.000738102
0.000767526
0.000797348
0.000827571
0.0008582
0.000889241
0.000920699
0.000952578
0.000984883
0.00101762
0.00105079
0.00108441
0.00111847
0.00115298
0.00118795
0.00122338
0.00125928
0.00129565
0.00133249
0.00136981
0.00140762
0.00144592
0.00148471
0.00152401
0.0015638
0.00160409
0.0016449
0.00168622
0.00172805
0.0017704
0.00181328
0.00185667
0.00190058
0.00194503
0.00198999
0.00203548
0.0020815
0.00212804
0.00217511
0.00222269
0.00227079
0.00231941
0.00236854
0.00241816
0.00246829
0.00251891
0.00257001
0.00262157
0.0026736
0.00272608
0.00277898
0.00283231