/*--------------------------------*- C++ -*----------------------------------*\
  =========                 |
  \\      /  F ield         | OpenFOAM: The Open Source CFD Toolbox
   \\    /   O peration     | Website:  https://openfoam.org
    \\  /    A nd           | Version:  10
     \\/     M anipulation  |
\*---------------------------------------------------------------------------*/
FoamFile
{
    format      ascii;
    class       volScalarField;
    location    "27000";
    object      omega;
}
// * * * * * * * * * * * * * * * * * * * * * * * * * * * * * * * * * * * * * //

dimensions      [0 0 -1 0 0 0 0];

internalField   nonuniform List<scalar> 
17808
(
12399
4994.91
2851.86
1959.35
1479.3
1182.17
980.985
836.04
726.77
641.506
573.149
517.139
470.417
430.857
396.932
367.522
341.785
319.074
298.888
280.828
264.577
249.878
236.519
224.325
213.153
202.879
193.4
184.628
176.487
168.913
161.849
155.246
149.061
143.256
137.798
132.657
127.807
123.225
118.889
114.78
110.883
107.181
103.661
100.31
97.1167
94.0709
91.1629
88.3841
85.7265
83.1829
80.7465
78.4111
76.1709
74.0208
71.9557
69.9711
68.0629
66.2271
64.4601
62.7583
61.1188
59.5384
58.0144
56.5442
55.1253
53.7554
52.4325
51.1546
49.9197
48.726
47.5719
46.4557
45.3759
44.3311
43.3199
42.3412
41.3936
40.476
39.5874
38.7268
37.8931
37.0855
36.303
35.5449
34.8104
34.0987
33.4091
32.741
32.0937
31.4667
30.8592
30.271
12396.9
4994.94
2853.21
1960.75
1480.51
1183.15
981.772
836.674
727.286
641.929
573.499
517.431
470.663
431.064
397.109
367.674
341.915
319.187
298.986
280.913
264.652
249.944
236.577
224.377
213.198
202.919
193.435
184.66
176.516
168.939
161.872
155.267
149.08
143.273
137.813
132.671
127.819
123.236
118.899
114.79
110.891
107.189
103.668
100.316
97.1225
94.0761
91.1677
88.3885
85.7305
83.1866
80.7499
78.4142
76.1738
74.0234
71.9581
69.9734
68.065
66.2291
64.4619
62.76
61.1204
59.5399
58.0158
56.5455
55.1265
53.7566
52.4337
51.1557
49.9207
48.727
47.5728
46.4565
45.3767
44.3319
43.3207
42.3419
41.3943
40.4768
39.5881
38.7275
37.8938
37.0861
36.3036
35.5455
34.811
34.0993
33.4097
32.7416
32.0943
31.4672
30.8598
30.2715
12397.7
4994.24
2853.95
1961.47
1481.12
1183.67
982.211
837.046
727.603
642.202
573.735
517.636
470.841
431.221
397.246
367.795
342.022
319.281
299.069
280.987
264.718
250.002
236.629
224.423
213.24
202.956
193.469
184.69
176.543
168.963
161.894
155.287
149.098
143.289
137.828
132.684
127.831
123.247
118.909
114.798
110.899
107.196
103.675
100.322
97.128
94.0812
91.1723
88.3927
85.7344
83.1901
80.7531
78.4172
76.1765
74.0259
71.9605
69.9756
68.067
66.2309
64.4636
62.7616
61.1218
59.5412
58.0171
56.5467
55.1276
53.7577
52.4347
51.1566
49.9216
48.7278
47.5736
46.4573
45.3775
44.3326
43.3214
42.3426
41.395
40.4774
39.5887
38.728
37.8943
37.0866
36.3042
35.546
34.8115
34.0998
33.4102
32.7421
32.0948
31.4677
30.8603
30.272
12398.7
4993.48
2854.45
1961.98
1481.56
1184.05
982.532
837.316
727.833
642.4
573.908
517.788
470.977
431.341
397.354
367.891
342.108
319.359
299.139
281.051
264.775
250.053
236.675
224.465
213.277
202.99
193.5
184.717
176.568
168.986
161.915
155.306
149.115
143.305
137.842
132.697
127.843
123.257
118.918
114.807
110.908
107.203
103.681
100.329
97.1337
94.0863
91.177
88.397
85.7384
83.1938
80.7565
78.4202
76.1794
74.0285
71.9629
69.9778
68.0691
66.2328
64.4654
62.7633
61.1233
59.5426
58.0184
56.5479
55.1288
53.7588
52.4357
51.1576
49.9225
48.7287
47.5744
46.4581
45.3782
44.3333
43.3221
42.3432
41.3956
40.478
39.5893
38.7286
37.8949
37.0872
36.3047
35.5466
34.812
34.1003
33.4107
32.7425
32.0952
31.4682
30.8607
30.2724
12399.8
4992.36
2854.56
1962.21
1481.83
1184.31
982.76
837.514
728.005
642.55
574.04
517.906
471.082
431.436
397.44
367.969
342.179
319.423
299.198
281.104
264.823
250.098
236.715
224.502
213.311
203.021
193.528
184.743
176.591
169.007
161.934
155.323
149.131
143.32
137.856
132.709
127.854
123.268
118.928
114.816
110.916
107.211
103.688
100.335
97.1393
94.0915
91.1818
88.4014
85.7424
83.1975
80.7599
78.4234
76.1822
74.0312
71.9653
69.9801
68.0712
66.2348
64.4672
62.7649
61.1249
59.5441
58.0197
56.5492
55.13
53.7599
52.4368
51.1586
49.9235
48.7296
47.5753
46.4589
45.379
44.334
43.3228
42.3439
41.3962
40.4786
39.5899
38.7292
37.8954
37.0877
36.3052
35.5471
34.8125
34.1008
33.4112
32.743
32.0957
31.4686
30.8612
30.2729
12401.1
4991.16
2854.44
1962.26
1481.97
1184.47
982.91
837.65
728.127
642.659
574.138
517.994
471.163
431.51
397.507
368.031
342.236
319.476
299.246
281.149
264.864
250.136
236.75
224.534
213.341
203.048
193.553
184.766
176.613
169.027
161.952
155.34
149.146
143.334
137.868
132.721
127.865
123.278
118.937
114.825
110.923
107.218
103.695
100.341
97.1449
94.0967
91.1865
88.4058
85.7464
83.2012
80.7633
78.4265
76.1852
74.0339
71.9678
69.9824
68.0733
66.2367
64.469
62.7666
61.1265
59.5456
58.0211
56.5504
55.1312
53.761
52.4379
51.1596
49.9244
48.7305
47.5761
46.4597
45.3797
44.3348
43.3235
42.3446
41.3969
40.4792
39.5905
38.7297
37.896
37.0883
36.3057
35.5476
34.813
34.1013
33.4116
32.7435
32.0962
31.4691
30.8617
30.2733
12402.6
4990.06
2854.23
1962.24
1482.04
1184.56
983.012
837.747
728.215
642.739
574.211
518.061
471.224
431.566
397.56
368.08
342.282
319.518
299.286
281.185
264.899
250.168
236.78
224.562
213.367
203.072
193.575
184.787
176.632
169.045
161.969
155.355
149.16
143.347
137.881
132.732
127.876
123.287
118.946
114.833
110.931
107.225
103.701
100.347
97.1504
94.1017
91.1912
88.4101
85.7504
83.2049
80.7667
78.4297
76.1881
74.0366
71.9703
69.9847
68.0755
66.2388
64.4709
62.7684
61.1281
59.5471
58.0225
56.5518
55.1324
53.7622
52.439
51.1607
49.9254
48.7314
47.577
46.4605
45.3805
44.3355
43.3242
42.3453
41.3975
40.4798
39.5911
38.7303
37.8965
37.0888
36.3063
35.5481
34.8135
34.1017
33.4121
32.744
32.0966
31.4695
30.8621
30.2738
12404
4989.09
2853.96
1962.18
1482.07
1184.63
983.085
837.819
728.282
642.8
574.267
518.112
471.271
431.611
397.601
368.119
342.319
319.553
299.318
281.216
264.928
250.195
236.806
224.585
213.389
203.093
193.595
184.805
176.649
169.061
161.984
155.369
149.173
143.359
137.892
132.743
127.885
123.296
118.954
114.84
110.938
107.232
103.707
100.352
97.1557
94.1067
91.1958
88.4144
85.7544
83.2085
80.7701
78.4328
76.191
74.0393
71.9728
69.987
68.0777
66.2408
64.4727
62.7701
61.1297
59.5486
58.0239
56.5531
55.1337
53.7634
52.4401
51.1617
49.9264
48.7324
47.5779
46.4614
45.3813
44.3363
43.3249
42.3459
41.3982
40.4804
39.5917
38.7309
37.8971
37.0893
36.3068
35.5486
34.814
34.1022
33.4126
32.7444
32.0971
31.47
30.8626
30.2742
12405.2
4988.23
2853.66
1962.08
1482.07
1184.66
983.135
837.872
728.333
642.848
574.31
518.153
471.309
431.646
397.635
368.15
342.348
319.581
299.345
281.241
264.952
250.217
236.827
224.606
213.408
203.111
193.612
184.821
176.664
169.075
161.997
155.382
149.185
143.37
137.902
132.752
127.894
123.305
118.962
114.848
110.945
107.238
103.713
100.358
97.1609
94.1115
91.2003
88.4185
85.7583
83.2121
80.7735
78.436
76.1939
74.042
71.9754
69.9894
68.0798
66.2428
64.4746
62.7719
61.1314
59.5501
58.0254
56.5545
55.135
53.7646
52.4412
51.1628
49.9274
48.7333
47.5788
46.4622
45.3821
44.337
43.3256
42.3466
41.3988
40.4811
39.5923
38.7315
37.8977
37.0899
36.3073
35.5491
34.8145
34.1027
33.4131
32.7449
32.0976
31.4704
30.863
30.2747
12406.4
4987.47
2853.34
1961.97
1482.04
1184.67
983.166
837.909
728.37
642.884
574.344
518.184
471.339
431.674
397.661
368.176
342.372
319.604
299.367
281.262
264.972
250.237
236.845
224.623
213.425
203.127
193.627
184.835
176.677
169.087
162.009
155.393
149.196
143.38
137.911
132.761
127.903
123.312
118.969
114.855
110.951
107.244
103.719
100.363
97.1658
94.1161
91.2046
88.4225
85.762
83.2157
80.7767
78.439
76.1968
74.0447
71.9779
69.9917
68.082
66.2449
64.4765
62.7737
61.1331
59.5517
58.0268
56.5558
55.1362
53.7658
52.4424
51.1639
49.9285
48.7343
47.5797
46.4631
45.3829
44.3378
43.3264
42.3473
41.3995
40.4817
39.5929
38.7321
37.8982
37.0904
36.3079
35.5496
34.815
34.1032
33.4136
32.7454
32.098
31.4709
30.8634
30.2751
12407.5
4986.8
2853.01
1961.85
1482
1184.67
983.182
837.934
728.398
642.911
574.37
518.209
471.362
431.696
397.683
368.196
342.392
319.623
299.385
281.28
264.989
250.253
236.861
224.638
213.439
203.14
193.639
184.848
176.689
169.099
162.02
155.403
149.205
143.389
137.92
132.769
127.91
123.32
118.976
114.861
110.957
107.25
103.724
100.368
97.1705
94.1205
91.2087
88.4264
85.7656
83.2191
80.7799
78.442
76.1996
74.0473
71.9803
69.994
68.0842
66.2469
64.4784
62.7754
61.1347
59.5533
58.0283
56.5572
55.1375
53.767
52.4435
51.165
49.9295
48.7353
47.5806
46.464
45.3838
44.3386
43.3271
42.348
41.4002
40.4824
39.5935
38.7327
37.8988
37.091
36.3084
35.5502
34.8155
34.1037
33.414
32.7458
32.0985
31.4713
30.8639
30.2755
12408.5
4986.21
2852.7
1961.72
1481.94
1184.66
983.188
837.949
728.417
642.932
574.39
518.229
471.381
431.714
397.7
368.213
342.408
319.638
299.4
281.294
265.003
250.266
236.874
224.651
213.451
203.152
193.651
184.858
176.699
169.108
162.029
155.412
149.214
143.397
137.928
132.777
127.917
123.326
118.982
114.867
110.963
107.255
103.729
100.373
97.175
94.1247
91.2126
88.4301
85.7691
83.2223
80.783
78.4449
76.2023
74.0499
71.9827
69.9963
68.0863
66.2489
64.4803
62.7772
61.1364
59.5548
58.0297
56.5586
55.1388
53.7683
52.4447
51.1661
49.9305
48.7363
47.5816
46.4649
45.3846
44.3394
43.3279
42.3488
41.4009
40.483
39.5942
38.7333
37.8994
37.0916
36.3089
35.5507
34.816
34.1042
33.4145
32.7463
32.0989
31.4718
30.8643
30.276
12409.3
4985.7
2852.39
1961.59
1481.88
1184.63
983.185
837.956
728.43
642.946
574.405
518.243
471.395
431.728
397.713
368.226
342.421
319.651
299.412
281.306
265.014
250.278
236.885
224.661
213.461
203.162
193.66
184.868
176.708
169.117
162.037
155.42
149.221
143.404
137.935
132.783
127.924
123.332
118.988
114.872
110.968
107.26
103.734
100.377
97.1791
94.1286
91.2164
88.4336
85.7725
83.2255
80.786
78.4477
76.2049
74.0524
71.985
69.9985
68.0884
66.2508
64.4821
62.7789
61.138
59.5563
58.0312
56.5599
55.1401
53.7695
52.4458
51.1672
49.9316
48.7372
47.5825
46.4657
45.3854
44.3402
43.3286
42.3495
41.4015
40.4837
39.5948
38.7339
37.9
37.0921
36.3095
35.5512
34.8165
34.1047
33.415
32.7468
32.0994
31.4723
30.8648
30.2764
12410.1
4985.25
2852.1
1961.45
1481.81
1184.6
983.174
837.957
728.437
642.956
574.416
518.255
471.406
431.739
397.724
368.236
342.431
319.661
299.423
281.316
265.024
250.287
236.894
224.67
213.47
203.171
193.669
184.876
176.716
169.125
162.044
155.427
149.228
143.411
137.941
132.789
127.929
123.338
118.993
114.877
110.973
107.264
103.738
100.381
97.183
94.1323
91.2199
88.437
85.7756
83.2285
80.7888
78.4504
76.2075
74.0547
71.9873
70.0006
68.0904
66.2527
64.4839
62.7806
61.1396
59.5579
58.0326
56.5613
55.1414
53.7707
52.447
51.1683
49.9326
48.7382
47.5834
46.4666
45.3863
44.341
43.3294
42.3502
41.4022
40.4843
39.5954
38.7345
37.9006
37.0927
36.31
35.5517
34.817
34.1052
33.4155
32.7473
32.0999
31.4727
30.8652
30.2768
12410.8
4984.86
2851.83
1961.32
1481.75
1184.57
983.158
837.953
728.439
642.961
574.423
518.263
471.415
431.748
397.733
368.245
342.44
319.67
299.431
281.325
265.032
250.295
236.902
224.678
213.478
203.178
193.676
184.883
176.723
169.131
162.051
155.433
149.234
143.416
137.946
132.794
127.934
123.343
118.998
114.882
110.977
107.269
103.742
100.385
97.1866
94.1358
91.2232
88.4401
85.7786
83.2313
80.7915
78.4529
76.2099
74.057
71.9895
70.0027
68.0923
66.2546
64.4857
62.7823
61.1412
59.5594
58.034
56.5626
55.1427
53.7719
52.4481
51.1694
49.9337
48.7392
47.5844
46.4675
45.3871
44.3418
43.3302
42.3509
41.4029
40.485
39.5961
38.7351
37.9011
37.0933
36.3106
35.5523
34.8176
34.1057
33.416
32.7478
32.1004
31.4732
30.8657
30.2773
12411.4
4984.52
2851.58
1961.19
1481.68
1184.53
983.138
837.944
728.437
642.963
574.428
518.268
471.421
431.754
397.739
368.251
342.446
319.676
299.438
281.331
265.039
250.302
236.909
224.685
213.484
203.184
193.682
184.889
176.729
169.137
162.057
155.438
149.239
143.421
137.951
132.799
127.939
123.347
119.002
114.886
110.981
107.272
103.746
100.389
97.19
94.139
91.2263
88.4431
85.7814
83.234
80.794
78.4554
76.2122
74.0593
71.9916
70.0047
68.0942
66.2564
64.4874
62.7839
61.1427
59.5608
58.0354
56.564
55.144
53.7731
52.4493
51.1704
49.9347
48.7402
47.5853
46.4684
45.388
44.3426
43.3309
42.3517
41.4036
40.4857
39.5967
38.7357
37.9017
37.0938
36.3111
35.5528
34.8181
34.1062
33.4165
32.7483
32.101
31.4738
30.8662
30.2778
12411.9
4984.21
2851.35
1961.06
1481.6
1184.49
983.115
837.932
728.432
642.962
574.429
518.271
471.424
431.758
397.744
368.256
342.452
319.682
299.443
281.337
265.044
250.307
236.914
224.69
213.49
203.19
193.687
184.894
176.734
169.142
162.062
155.443
149.244
143.426
137.956
132.804
127.943
123.351
119.006
114.89
110.985
107.276
103.749
100.392
97.1931
94.142
91.2291
88.4458
85.784
83.2365
80.7965
78.4577
76.2144
74.0614
71.9936
70.0066
68.0961
66.2581
64.4891
62.7855
61.1442
59.5622
58.0368
56.5653
55.1452
53.7743
52.4504
51.1715
49.9357
48.7412
47.5862
46.4693
45.3888
44.3434
43.3317
42.3524
41.4043
40.4864
39.5974
38.7363
37.9023
37.0944
36.3117
35.5534
34.8186
34.1068
33.4171
32.7489
12412.3
4983.95
2851.13
1960.94
1481.54
1184.45
983.09
837.917
728.424
642.959
574.428
518.272
471.426
431.761
397.747
368.26
342.455
319.686
299.447
281.341
265.049
250.312
236.919
224.695
213.494
203.195
193.692
184.899
176.739
169.146
162.066
155.447
149.248
143.43
137.96
132.807
127.947
123.355
119.01
114.893
110.988
107.279
103.752
100.395
97.196
94.1448
91.2318
88.4484
85.7865
83.2389
80.7987
78.4598
76.2165
74.0633
71.9955
70.0084
68.0978
66.2598
64.4907
62.787
61.1457
59.5636
58.0381
56.5665
55.1464
53.7755
52.4515
51.1726
49.9367
48.7421
47.5872
46.4702
45.3897
44.3442
43.3325
42.3531
41.405
40.487
39.598
38.737
37.9029
37.095
36.3123
35.5539
34.8192
34.1073
33.4177
32.7495
12412.7
4983.7
2850.94
1960.83
1481.47
1184.4
983.063
837.901
728.413
642.953
574.425
518.271
471.427
431.762
397.749
368.262
342.458
319.689
299.451
281.345
265.053
250.316
236.923
224.699
213.498
203.198
193.696
184.903
176.742
169.15
162.07
155.451
149.252
143.434
137.963
132.811
127.95
123.358
119.013
114.896
110.991
107.282
103.755
100.398
97.1987
94.1473
91.2343
88.4508
85.7888
83.2411
80.8009
78.4619
76.2185
74.0652
71.9973
70.0101
68.0995
66.2614
64.4922
62.7885
61.1471
59.565
58.0394
56.5678
55.1476
53.7766
52.4526
51.1736
49.9377
48.7431
47.5881
46.471
45.3905
44.345
43.3332
42.3539
41.4057
40.4877
39.5987
38.7376
37.9035
37.0956
36.3128
35.5545
34.8198
34.108
33.4183
32.7501
12413.1
4983.49
2850.76
1960.72
1481.4
1184.36
983.036
837.882
728.402
642.945
574.421
518.268
471.426
431.762
397.75
368.264
342.46
319.691
299.453
281.347
265.055
250.319
236.926
224.702
213.502
203.202
193.699
184.906
176.746
169.154
162.073
155.455
149.255
143.437
137.966
132.814
127.953
123.361
119.016
114.899
110.994
107.285
103.758
100.4
97.2011
94.1497
91.2366
88.453
85.7909
83.2432
80.8029
78.4638
76.2203
74.067
71.999
70.0118
68.1011
66.2629
64.4937
62.7899
61.1484
59.5663
58.0407
56.569
55.1487
53.7777
52.4537
51.1746
49.9387
48.744
47.589
46.4719
45.3913
44.3458
43.334
42.3546
41.4064
40.4884
39.5993
38.7382
37.9042
37.0962
36.3134
35.5551
34.8205
12413.4
4983.3
2850.59
1960.62
1481.34
1184.32
983.007
837.863
728.388
642.936
574.415
518.264
471.423
431.761
397.749
368.264
342.461
319.692
299.455
281.349
265.058
250.321
236.928
224.705
213.504
203.205
193.702
184.909
176.749
169.157
162.076
155.457
149.258
143.44
137.969
132.817
127.956
123.364
119.019
114.902
110.996
107.287
103.76
100.403
97.2034
94.1519
91.2387
88.455
85.7929
83.2451
80.8047
78.4656
76.2221
74.0687
72.0007
70.0134
68.1026
66.2644
64.4951
62.7912
61.1497
59.5675
58.0419
56.5701
55.1499
53.7788
52.4547
51.1756
49.9396
48.745
47.5899
46.4727
45.3921
44.3466
43.3347
42.3553
41.4071
40.489
39.6
38.7389
37.9048
37.0968
36.3141
35.5558
34.8212
12413.7
4983.12
2850.44
1960.52
1481.27
1184.28
982.979
837.843
728.374
642.926
574.408
518.259
471.42
431.759
397.748
368.263
342.461
319.693
299.455
281.351
265.059
250.323
236.93
224.707
213.506
203.207
193.705
184.911
176.751
169.159
162.079
155.46
149.261
143.442
137.972
132.819
127.959
123.366
119.021
114.904
110.999
107.289
103.762
100.405
97.2054
94.1539
91.2406
88.4569
85.7948
83.2469
80.8065
78.4673
76.2237
74.0703
72.0022
70.0149
68.104
66.2657
64.4964
62.7925
61.151
59.5687
58.043
56.5712
55.1509
53.7798
52.4557
51.1766
49.9406
48.7459
47.5907
46.4736
45.3929
44.3473
43.3355
42.356
41.4078
40.4897
39.6006
38.7395
37.9054
37.0974
36.3147
35.5564
34.8218
12414
4982.97
2850.3
1960.43
1481.22
1184.24
982.951
837.823
728.359
642.915
574.4
518.253
471.416
431.756
397.746
368.262
342.46
319.693
299.456
281.351
265.06
250.324
236.932
224.708
213.508
203.209
193.707
184.913
176.753
169.161
162.081
155.462
149.263
143.445
137.974
132.821
127.961
123.368
119.023
114.906
111.001
107.291
103.764
100.407
97.2073
94.1558
91.2425
88.4587
85.7965
83.2486
80.8081
78.4689
76.2252
74.0718
72.0037
70.0163
68.1054
66.2671
64.4977
62.7938
61.1522
59.5699
58.0441
56.5723
55.152
53.7808
52.4567
51.1775
49.9415
48.7467
47.5916
46.4744
45.3937
44.3481
43.3362
42.3567
41.4085
40.4904
39.6013
38.7401
37.906
37.098
36.3153
35.557
34.8224
12414.2
4982.82
2850.17
1960.34
1481.16
1184.2
982.924
837.803
728.344
642.903
574.391
518.247
471.411
431.752
397.743
368.26
342.459
319.692
299.456
281.351
265.061
250.325
236.933
224.71
213.51
203.21
193.708
184.915
176.755
169.163
162.083
155.464
149.265
143.447
137.976
132.823
127.963
123.37
119.025
114.908
111.003
107.293
103.766
100.408
97.2091
94.1575
91.2441
88.4603
85.7981
83.2501
80.8096
78.4704
76.2267
74.0732
72.005
70.0176
68.1067
66.2683
64.4989
62.7949
61.1533
59.571
58.0452
56.5734
55.153
53.7818
52.4576
51.1785
49.9424
48.7476
47.5924
46.4752
45.3945
44.3489
43.3369
42.3574
41.4092
40.491
39.6019
38.7408
37.9067
37.0987
36.3159
35.5576
34.823
12414.4
4982.69
2850.06
1960.26
1481.11
1184.16
982.898
837.783
728.328
642.891
574.381
518.239
471.405
431.747
397.74
368.258
342.457
319.691
299.455
281.351
265.061
250.325
236.933
224.71
213.511
203.212
193.71
184.917
176.757
169.165
162.084
155.466
149.266
143.448
137.978
132.825
127.964
123.372
119.027
114.91
111.004
107.295
103.768
100.41
97.2107
94.159
91.2457
88.4619
85.7996
83.2516
80.811
78.4718
76.228
74.0745
72.0063
70.0188
68.1079
66.2695
64.5
62.7961
61.1544
59.5721
58.0463
56.5744
55.154
53.7828
52.4586
51.1794
49.9433
48.7484
47.5932
46.476
45.3953
44.3496
43.3377
42.3581
41.4099
40.4917
39.6026
38.7414
37.9073
37.0993
36.3166
35.5583
34.8236
12414.6
4982.56
2849.95
1960.18
1481.06
1184.13
982.872
837.763
728.313
642.879
574.371
518.231
471.398
431.742
397.735
368.254
342.455
319.689
299.453
281.35
265.06
250.325
236.934
224.711
213.511
203.212
193.711
184.918
176.758
169.166
162.086
155.467
149.268
143.45
137.979
132.827
127.966
123.374
119.028
114.911
111.006
107.296
103.769
100.412
97.2121
94.1605
91.2471
88.4633
85.801
83.2529
80.8124
78.4731
76.2293
74.0758
72.0075
70.02
68.109
66.2706
64.5011
62.7971
61.1555
59.5731
58.0473
56.5753
55.1549
53.7837
52.4595
51.1802
49.9441
48.7493
47.594
46.4768
45.396
44.3503
43.3384
42.3588
41.4106
40.4924
39.6032
38.7421
37.9079
37.0999
36.3172
35.5588
34.8242
12414.8
4982.44
2849.85
1960.11
1481.01
1184.1
982.847
837.744
728.297
642.866
574.361
518.223
471.391
431.737
397.731
368.251
342.452
319.687
299.452
281.349
265.059
250.325
236.934
224.711
213.512
203.213
193.711
184.919
176.759
169.167
162.087
155.469
149.269
143.451
137.981
132.828
127.967
123.375
119.03
114.913
111.007
107.298
103.771
100.413
97.2135
94.1618
91.2484
88.4646
85.8023
83.2542
80.8136
78.4743
76.2305
74.0769
72.0087
70.0211
68.1101
66.2717
64.5022
62.7982
61.1565
59.5741
58.0482
56.5763
55.1558
53.7846
52.4603
51.1811
49.9449
48.7501
47.5948
46.4775
45.3968
44.351
43.3391
42.3595
41.4112
40.493
39.6039
38.7427
37.9086
37.1006
36.3178
35.5594
34.8247
12415
4982.33
2849.75
1960.05
1480.96
1184.06
982.823
837.725
728.282
642.854
574.35
518.214
471.384
431.73
397.726
368.247
342.448
319.684
299.45
281.347
265.058
250.324
236.933
224.711
213.512
203.213
193.712
184.919
176.76
169.168
162.088
155.47
149.27
143.452
137.982
132.829
127.969
123.376
119.031
114.914
111.009
107.299
103.772
100.414
97.2148
94.1631
91.2497
88.4658
85.8035
83.2554
80.8148
78.4754
76.2316
74.078
72.0097
70.0222
68.1112
66.2727
64.5032
62.7991
61.1574
59.575
58.0491
56.5772
55.1567
53.7854
52.4612
51.1819
49.9457
48.7508
47.5956
46.4783
45.3975
44.3518
43.3398
42.3602
41.4119
40.4937
39.6045
38.7433
37.9092
37.1012
36.3184
35.56
34.8253
12415.1
4982.23
2849.67
1959.98
1480.92
1184.03
982.8
837.707
728.268
642.842
574.34
518.205
471.376
431.724
397.72
368.242
342.445
319.681
299.447
281.346
265.057
250.323
236.932
224.711
213.512
203.213
193.712
184.92
176.76
169.169
162.089
155.47
149.271
143.453
137.983
132.83
127.97
123.377
119.032
114.915
111.01
107.3
103.773
100.415
97.2159
94.1642
91.2508
88.4669
85.8046
83.2565
80.8158
78.4765
76.2327
74.0791
72.0108
70.0232
68.1122
66.2737
64.5041
62.8001
61.1583
59.5759
58.05
56.578
55.1575
53.7862
52.462
51.1827
49.9465
48.7516
47.5963
46.479
45.3982
44.3524
43.3404
42.3609
41.4125
40.4943
39.6051
38.744
37.9098
37.1018
36.319
35.5606
34.8258
12415.3
4982.12
2849.58
1959.92
1480.88
1184
982.779
837.69
728.254
642.83
574.33
518.196
471.369
431.717
397.715
368.237
342.441
319.678
299.445
281.343
265.055
250.322
236.931
224.71
213.511
203.213
193.712
184.92
176.761
169.169
162.089
155.471
149.272
143.454
137.984
132.831
127.971
123.378
119.033
114.916
111.011
107.301
103.774
100.416
97.217
94.1653
91.2518
88.4679
85.8056
83.2575
80.8169
78.4775
76.2337
74.08
72.0117
70.0242
68.1131
66.2746
64.505
62.801
61.1592
59.5767
58.0508
56.5789
55.1584
53.787
52.4627
51.1834
49.9472
48.7523
47.597
46.4797
45.3989
44.3531
43.3411
42.3615
41.4132
40.495
39.6058
38.7446
37.9104
37.1024
36.3196
35.5612
34.8264
12415.4
4982.02
2849.51
1959.87
1480.84
1183.98
982.758
837.674
728.24
642.818
574.319
518.187
471.361
431.711
397.709
368.232
342.436
319.674
299.441
281.341
265.053
250.32
236.93
224.709
213.511
203.213
193.712
184.92
176.761
169.17
162.09
155.472
149.273
143.455
137.984
132.832
127.972
123.379
119.034
114.917
111.012
107.302
103.775
100.417
97.218
94.1663
91.2528
88.4689
85.8066
83.2584
80.8178
78.4784
76.2346
74.081
72.0126
70.025
68.114
66.2755
64.5059
62.8018
61.16
59.5776
58.0516
56.5797
55.1591
53.7878
52.4635
51.1842
49.948
48.753
47.5977
46.4804
45.3996
44.3538
43.3418
42.3622
41.4138
40.4956
39.6064
38.7452
37.911
37.103
36.3202
35.5617
34.8269
12415.6
4981.93
2849.43
1959.81
1480.8
1183.95
982.738
837.658
728.227
642.807
574.309
518.178
471.353
431.704
397.703
368.227
342.432
319.67
299.438
281.338
265.051
250.318
236.929
224.708
213.51
203.212
193.712
184.92
176.761
169.17
162.09
155.472
149.273
143.455
137.985
132.833
127.972
123.38
119.035
114.918
111.013
107.303
103.776
100.418
97.2189
94.1672
91.2537
88.4698
85.8075
83.2593
80.8187
78.4793
76.2355
74.0818
72.0135
70.0259
68.1148
66.2763
64.5067
62.8026
61.1608
59.5784
58.0524
56.5804
55.1599
53.7885
52.4642
51.1849
49.9487
48.7537
47.5984
46.4811
45.4002
44.3545
43.3424
42.3628
41.4145
40.4962
39.607
38.7458
37.9116
37.1036
36.3207
35.5623
34.8275
12415.7
4981.84
2849.36
1959.76
1480.76
1183.92
982.719
837.643
728.214
642.796
574.3
518.17
471.345
431.697
397.697
368.222
342.427
319.666
299.435
281.335
265.048
250.316
236.927
224.706
213.509
203.211
193.711
184.919
176.761
169.17
162.09
155.472
149.273
143.456
137.986
132.833
127.973
123.381
119.036
114.919
111.013
107.304
103.777
100.419
97.2197
94.168
91.2546
88.4707
85.8083
83.2602
80.8195
78.4802
76.2363
74.0827
72.0143
70.0267
68.1156
66.2771
64.5075
62.8034
61.1616
59.5791
58.0532
56.5812
55.1606
53.7893
52.4649
51.1856
49.9494
48.7544
47.5991
46.4817
45.4009
44.3551
43.3431
42.3635
41.4151
40.4969
39.6076
38.7464
37.9122
37.1042
36.3213
35.5628
34.828
12415.8
4981.75
2849.3
1959.71
1480.73
1183.9
982.7
837.628
728.202
642.785
574.291
518.161
471.338
431.69
397.691
368.216
342.422
319.662
299.431
281.332
265.046
250.314
236.925
224.705
213.507
203.21
193.71
184.919
176.76
169.17
162.09
155.472
149.274
143.456
137.986
132.834
127.973
123.381
119.036
114.919
111.014
107.305
103.777
100.42
97.2205
94.1688
91.2554
88.4715
85.8091
83.261
80.8203
78.4809
76.2371
74.0834
72.0151
70.0275
68.1164
66.2779
64.5083
62.8041
61.1623
59.5798
58.0539
56.5819
55.1613
53.79
52.4656
51.1863
49.95
48.7551
47.5997
46.4824
45.4015
44.3557
43.3437
42.3641
41.4157
40.4975
39.6082
38.747
37.9128
37.1047
36.3219
35.5634
34.8285
12415.9
4981.67
2849.23
1959.66
1480.69
1183.87
982.683
837.615
728.191
642.775
574.282
518.153
471.33
431.683
397.684
368.211
342.417
319.657
299.427
281.329
265.043
250.311
236.923
224.703
213.506
203.209
193.709
184.918
176.76
169.169
162.09
155.472
149.274
143.456
137.986
132.834
127.974
123.382
119.037
114.92
111.015
107.305
103.778
100.421
97.2212
94.1695
91.2561
88.4722
85.8098
83.2617
80.8211
78.4817
76.2378
74.0842
72.0158
70.0282
68.1171
66.2786
64.509
62.8049
61.163
59.5805
58.0546
56.5826
55.162
53.7906
52.4663
51.187
49.9507
48.7557
47.6004
46.483
45.4022
44.3564
43.3443
42.3647
41.4163
40.4981
39.6088
38.7476
37.9134
37.1053
36.3224
35.564
34.8291
12416.1
4981.59
2849.17
1959.62
1480.66
1183.85
982.666
837.601
728.18
642.766
574.273
518.145
471.323
431.677
397.678
368.205
342.412
319.653
299.423
281.325
265.04
250.309
236.921
224.701
213.504
203.208
193.708
184.917
176.759
169.169
162.09
155.472
149.274
143.456
137.986
132.835
127.974
123.382
119.037
114.92
111.015
107.306
103.779
100.421
97.2218
94.1702
91.2568
88.4729
85.8105
83.2624
80.8218
78.4824
76.2385
74.0849
72.0165
70.0289
68.1178
66.2793
64.5097
62.8055
61.1637
59.5812
58.0553
56.5832
55.1627
53.7913
52.4669
51.1876
49.9513
48.7564
47.601
46.4836
45.4028
44.357
43.3449
42.3653
41.4169
40.4987
39.6094
38.7482
37.914
37.1059
36.323
35.5646
12416.2
4981.51
2849.11
1959.57
1480.63
1183.83
982.649
837.589
728.169
642.757
574.265
518.138
471.316
431.67
397.672
368.199
342.407
319.648
299.419
281.321
265.036
250.306
236.918
224.699
213.503
203.207
193.707
184.916
176.758
169.168
162.089
155.472
149.274
143.456
137.987
132.835
127.975
123.382
119.038
114.921
111.016
107.306
103.779
100.422
97.2224
94.1708
91.2574
88.4735
85.8112
83.2631
80.8224
78.4831
76.2392
74.0855
72.0172
70.0296
68.1185
66.2799
64.5103
62.8062
61.1644
59.5819
58.0559
56.5839
55.1633
53.7919
52.4676
51.1882
49.952
48.757
47.6016
46.4843
45.4034
44.3576
43.3455
42.3659
41.4175
40.4993
39.61
38.7488
37.9146
37.1065
36.3236
35.5652
12416.3
4981.43
2849.05
1959.53
1480.6
1183.81
982.633
837.576
728.159
642.748
574.257
518.131
471.309
431.664
397.666
368.194
342.402
319.644
299.415
281.318
265.033
250.303
236.916
224.697
213.501
203.205
193.706
184.915
176.758
169.168
162.089
155.472
149.274
143.456
137.987
132.835
127.975
123.383
119.038
114.921
111.016
107.307
103.78
100.422
97.2229
94.1713
91.258
88.4741
85.8118
83.2637
80.8231
78.4837
76.2398
74.0862
72.0178
70.0302
68.1191
66.2806
64.5109
62.8068
61.165
59.5825
58.0565
56.5845
55.1639
53.7925
52.4682
51.1888
49.9526
48.7576
47.6022
46.4848
45.404
44.3582
43.3461
42.3665
41.4181
40.4998
39.6106
38.7494
37.9151
37.107
36.3242
35.5657
12416.4
4981.35
2848.99
1959.49
1480.57
1183.78
982.617
837.564
728.15
642.74
574.249
518.124
471.303
431.657
397.66
368.188
342.397
319.639
299.411
281.314
265.03
250.3
236.913
224.695
213.499
203.203
193.704
184.914
176.757
169.167
162.088
155.471
149.273
143.456
137.987
132.835
127.975
123.383
119.038
114.922
111.016
107.307
103.78
100.423
97.2234
94.1718
91.2585
88.4746
85.8123
83.2643
80.8236
78.4843
76.2404
74.0868
72.0184
70.0308
68.1197
66.2812
64.5116
62.8074
61.1656
59.5831
58.0571
56.5851
55.1645
53.7931
52.4688
51.1894
49.9532
48.7582
47.6028
46.4854
45.4046
44.3588
43.3467
42.3671
41.4187
40.5004
39.6112
38.7499
37.9157
37.1076
36.3247
35.5662
12416.5
4981.27
2848.93
1959.44
1480.54
1183.76
982.602
837.552
728.14
642.732
574.242
518.117
471.296
431.651
397.655
368.183
342.392
319.634
299.406
281.31
265.026
250.297
236.91
224.692
213.497
203.201
193.703
184.913
176.755
169.166
162.087
155.471
149.273
143.456
137.986
132.835
127.975
123.383
119.038
114.922
111.017
107.308
103.781
100.423
97.2239
94.1723
91.259
88.4751
85.8129
83.2648
80.8242
78.4848
76.241
74.0873
72.019
70.0314
68.1203
66.2818
64.5121
62.808
61.1662
59.5837
58.0577
56.5857
55.1651
53.7937
52.4694
51.19
49.9537
48.7587
47.6034
46.486
45.4051
44.3593
43.3472
42.3676
41.4192
40.501
39.6117
38.7505
37.9163
37.1081
36.3252
35.5667
12416.6
4981.2
2848.88
1959.4
1480.51
1183.74
982.586
837.541
728.131
642.724
574.235
518.11
471.29
431.646
397.649
368.178
342.387
319.63
299.402
281.306
265.023
250.294
236.907
224.69
213.494
203.199
193.701
184.911
176.754
169.165
162.086
155.47
149.272
143.455
137.986
132.835
127.975
123.383
119.038
114.922
111.017
107.308
103.781
100.423
97.2242
94.1727
91.2594
88.4756
85.8133
83.2653
80.8247
78.4853
76.2415
74.0879
72.0195
70.0319
68.1208
66.2823
64.5127
62.8086
61.1667
59.5842
58.0583
56.5862
55.1657
53.7943
52.4699
51.1906
49.9543
48.7593
47.6039
46.4866
45.4057
44.3599
43.3478
42.3682
41.4198
40.5015
39.6123
38.751
37.9168
37.1087
36.3257
35.5672
12416.7
4981.13
2848.82
1959.36
1480.48
1183.72
982.571
837.529
728.122
642.716
574.229
518.104
471.285
431.64
397.644
368.173
342.382
319.625
299.398
281.302
265.019
250.29
236.905
224.687
213.492
203.197
193.699
184.91
176.753
169.164
162.086
155.469
149.272
143.455
137.986
132.834
127.975
123.383
119.038
114.922
111.017
107.308
103.781
100.424
97.2246
94.1731
91.2598
88.476
85.8138
83.2657
80.8251
78.4858
76.242
74.0884
72.02
70.0324
68.1214
66.2828
64.5132
62.8091
61.1673
59.5848
58.0588
56.5868
55.1662
53.7948
52.4705
51.1911
49.9548
48.7599
47.6045
46.4871
45.4062
44.3604
43.3483
42.3687
41.4203
40.5021
39.6128
38.7515
37.9173
37.1092
36.3262
35.5677
12416.9
4981.06
2848.77
1959.32
1480.45
1183.7
982.556
837.518
728.113
642.709
574.222
518.098
471.279
431.635
397.639
368.168
342.378
319.621
299.394
281.298
265.015
250.287
236.901
224.684
213.49
203.195
193.697
184.908
176.751
169.162
162.084
155.468
149.271
143.454