/*--------------------------------*- C++ -*----------------------------------*\
  =========                 |
  \\      /  F ield         | OpenFOAM: The Open Source CFD Toolbox
   \\    /   O peration     | Website:  https://openfoam.org
    \\  /    A nd           | Version:  10
     \\/     M anipulation  |
\*---------------------------------------------------------------------------*/
FoamFile
{
    format      ascii;
    class       volScalarField;
    location    "27000";
    object      p;
}
// * * * * * * * * * * * * * * * * * * * * * * * * * * * * * * * * * * * * * //

dimensions      [0 2 -2 0 0 0 0];

internalField   nonuniform List<scalar> 
17808
(
14.0486
14.0735
14.0869
14.0913
14.0932
14.092
14.0887
14.0837
14.0773
14.0697
14.061
14.0515
14.0411
14.03
14.0182
14.0057
13.9926
13.9788
13.9645
13.9496
13.9341
13.918
13.9014
13.8841
13.8664
13.848
13.8291
13.8097
13.7896
13.769
13.7478
13.726
13.7036
13.6806
13.657
13.6328
13.608
13.5826
13.5565
13.5297
13.5024
13.4743
13.4456
13.4161
13.386
13.3552
13.3237
13.2914
13.2584
13.2247
13.1901
13.1549
13.1188
13.0819
13.0442
13.0057
12.9663
12.9261
12.885
12.843
12.8002
12.7564
12.7117
12.6661
12.6195
12.5719
12.5233
12.4738
12.4232
12.3716
12.3189
12.2651
12.2103
12.1543
12.0973
12.0391
11.9797
11.9191
11.8574
11.7944
11.7303
11.6648
11.5981
11.5301
11.4608
11.3901
11.3181
11.2447
11.17
11.0938
11.0162
10.9371
14.1188
14.1207
14.1137
14.1082
14.1037
14.0984
14.0923
14.0855
14.0779
14.0695
14.0604
14.0505
14.0399
14.0286
14.0167
14.0042
13.991
13.9773
13.9629
13.948
13.9326
13.9165
13.8999
13.8827
13.865
13.8467
13.8278
13.8084
13.7884
13.7678
13.7467
13.7249
13.7026
13.6796
13.6561
13.6319
13.6071
13.5817
13.5557
13.529
13.5016
13.4736
13.4449
13.4155
13.3854
13.3546
13.3231
13.2908
13.2579
13.2241
13.1896
13.1544
13.1183
13.0814
13.0438
13.0053
12.9659
12.9257
12.8846
12.8427
12.7998
12.7561
12.7114
12.6657
12.6192
12.5716
12.523
12.4735
12.4229
12.3713
12.3186
12.2649
12.21
12.1541
12.097
12.0388
11.9795
11.9189
11.8572
11.7942
11.73
11.6646
11.5979
11.5299
11.4606
11.3899
11.3179
11.2445
11.1698
11.0936
11.016
10.9369
14.1508
14.1466
14.1366
14.1289
14.1208
14.112
14.1031
14.0939
14.0843
14.0743
14.0639
14.053
14.0417
14.0298
14.0174
14.0045
13.9911
13.9771
13.9626
13.9476
13.932
13.9159
13.8992
13.882
13.8643
13.846
13.8271
13.8076
13.7876
13.7671
13.7459
13.7242
13.7018
13.6789
13.6554
13.6312
13.6065
13.5811
13.555
13.5283
13.501
13.473
13.4443
13.4149
13.3849
13.3541
13.3226
13.2904
13.2574
13.2237
13.1892
13.1539
13.1179
13.081
13.0434
13.0049
12.9655
12.9254
12.8843
12.8423
12.7995
12.7557
12.7111
12.6654
12.6189
12.5713
12.5228
12.4732
12.4226
12.371
12.3184
12.2646
12.2098
12.1538
12.0968
12.0386
11.9792
11.9187
11.8569
11.794
11.7298
11.6644
11.5977
11.5296
11.4603
11.3897
11.3177
11.2443
11.1695
11.0934
11.0157
10.9367
14.1516
14.1471
14.1397
14.1333
14.1254
14.1169
14.1079
14.0984
14.0884
14.0779
14.067
14.0557
14.0438
14.0316
14.0188
14.0056
13.9919
13.9777
13.963
13.9478
13.9321
13.9158
13.8991
13.8818
13.864
13.8456
13.8267
13.8072
13.7872
13.7666
13.7454
13.7237
13.7013
13.6784
13.6549
13.6307
13.6059
13.5805
13.5545
13.5278
13.5005
13.4725
13.4438
13.4145
13.3844
13.3536
13.3221
13.2899
13.257
13.2233
13.1888
13.1536
13.1175
13.0807
13.043
13.0045
12.9652
12.925
12.884
12.842
12.7992
12.7554
12.7108
12.6651
12.6186
12.571
12.5225
12.4729
12.4224
12.3708
12.3181
12.2644
12.2095
12.1536
12.0965
12.0383
11.979
11.9184
11.8567
11.7938
11.7296
11.6641
11.5974
11.5294
11.4601
11.3894
11.3174
11.2441
11.1693
11.0931
11.0155
10.9364
14.1526
14.1476
14.1409
14.1345
14.1267
14.1184
14.1095
14.1001
14.0901
14.0796
14.0686
14.0572
14.0452
14.0328
14.0199
14.0065
13.9927
13.9783
13.9635
13.9481
13.9323
13.916
13.8991
13.8817
13.8638
13.8454
13.8264
13.8069
13.7868
13.7662
13.745
13.7232
13.7009
13.6779
13.6544
13.6302
13.6055
13.5801
13.554
13.5274
13.5
13.472
13.4434
13.414
13.384
13.3532
13.3217
13.2895
13.2566
13.2229
13.1884
13.1532
13.1171
13.0803
13.0427
13.0042
12.9649
12.9247
12.8836
12.8417
12.7989
12.7552
12.7105
12.6649
12.6183
12.5708
12.5222
12.4727
12.4221
12.3705
12.3178
12.2641
12.2093
12.1534
12.0963
12.0381
11.9788
11.9182
11.8565
11.7935
11.7294
11.6639
11.5972
11.5292
11.4599
11.3892
11.3172
11.2439
11.1691
11.0929
11.0153
10.9362
14.1567
14.1513
14.1447
14.1377
14.1297
14.1211
14.112
14.1024
14.0922
14.0815
14.0704
14.0587
14.0466
14.0341
14.021
14.0075
13.9935
13.979
13.964
13.9486
13.9327
13.9162
13.8993
13.8818
13.8639
13.8454
13.8263
13.8068
13.7867
13.766
13.7448
13.723
13.7006
13.6776
13.6541
13.6299
13.6051
13.5797
13.5537
13.527
13.4996
13.4717
13.443
13.4136
13.3836
13.3528
13.3214
13.2892
13.2562
13.2225
13.1881
13.1528
13.1168
13.08
13.0423
13.0039
12.9646
12.9244
12.8833
12.8414
12.7986
12.7549
12.7102
12.6646
12.618
12.5705
12.522
12.4724
12.4219
12.3703
12.3176
12.2639
12.2091
12.1531
12.0961
12.0379
11.9785
11.918
11.8563
11.7933
11.7291
11.6637
11.597
11.529
11.4597
11.389
11.317
11.2436
11.1689
11.0927
11.0151
10.936
14.1599
14.1542
14.1477
14.1406
14.1325
14.1238
14.1145
14.1047
14.0943
14.0835
14.0722
14.0604
14.0481
14.0354
14.0222
14.0085
13.9944
13.9798
13.9647
13.9492
13.9332
13.9166
13.8996
13.8821
13.864
13.8455
13.8264
13.8068
13.7866
13.7659
13.7446
13.7228
13.7004
13.6774
13.6538
13.6296
13.6048
13.5794
13.5534
13.5267
13.4993
13.4713
13.4427
13.4133
13.3832
13.3525
13.321
13.2888
13.2559
13.2222
13.1877
13.1525
13.1165
13.0797
13.042
13.0036
12.9643
12.9241
12.8831
12.8411
12.7983
12.7546
12.7099
12.6643
12.6178
12.5702
12.5217
12.4722
12.4216
12.37
12.3174
12.2637
12.2088
12.1529
12.0959
12.0377
11.9783
11.9178
11.8561
11.7931
11.7289
11.6635
11.5968
11.5288
11.4595
11.3888
11.3168
11.2434
11.1687
11.0925
11.0149
10.9358
14.1617
14.1558
14.1495
14.1423
14.1342
14.1255
14.1161
14.1063
14.0959
14.085
14.0736
14.0617
14.0493
14.0365
14.0232
14.0095
13.9953
13.9806
13.9654
13.9498
13.9337
13.9171
13.9
13.8824
13.8643
13.8457
13.8265
13.8069
13.7866
13.7659
13.7446
13.7227
13.7003
13.6773
13.6536
13.6294
13.6046
13.5792
13.5531
13.5264
13.4991
13.4711
13.4424
13.413
13.383
13.3522
13.3207
13.2885
13.2556
13.2219
13.1874
13.1522
13.1162
13.0794
13.0417
13.0033
12.964
12.9238
12.8828
12.8409
12.7981
12.7543
12.7097
12.6641
12.6175
12.57
12.5215
12.472
12.4214
12.3698
12.3172
12.2634
12.2086
12.1527
12.0957
12.0375
11.9781
11.9176
11.8559
11.7929
11.7287
11.6633
11.5966
11.5286
11.4593
11.3886
11.3166
11.2433
11.1685
11.0923
11.0147
10.9356
14.1631
14.157
14.1509
14.1436
14.1355
14.1267
14.1174
14.1075
14.097
14.0861
14.0747
14.0627
14.0503
14.0375
14.0241
14.0103
13.9961
13.9813
13.9661
13.9504
13.9342
13.9176
13.9004
13.8827
13.8646
13.8459
13.8267
13.807
13.7867
13.766
13.7446
13.7227
13.7002
13.6772
13.6535
13.6293
13.6045
13.579
13.5529
13.5262
13.4989
13.4708
13.4421
13.4128
13.3827
13.3519
13.3205
13.2883
13.2553
13.2216
13.1872
13.152
13.1159
13.0791
13.0415
13.003
12.9637
12.9236
12.8825
12.8406
12.7978
12.7541
12.7095
12.6639
12.6173
12.5698
12.5213
12.4717
12.4212
12.3696
12.3169
12.2632
12.2084
12.1525
12.0955
12.0373
11.9779
11.9174
11.8557
11.7927
11.7286
11.6631
11.5964
11.5284
11.4591
11.3885
11.3165
11.2431
11.1683
11.0921
11.0145
10.9354
14.1644
14.1582
14.1521
14.1447
14.1366
14.1279
14.1185
14.1086
14.0981
14.0871
14.0756
14.0637
14.0512
14.0383
14.0249
14.0111
13.9968
13.982
13.9667
13.951
13.9347
13.918
13.9008
13.8831
13.8649
13.8462
13.827
13.8072
13.7869
13.7661
13.7447
13.7228
13.7003
13.6772
13.6535
13.6292
13.6044
13.5789
13.5528
13.5261
13.4987
13.4707
13.442
13.4126
13.3825
13.3517
13.3203
13.288
13.2551
13.2214
13.1869
13.1517
13.1157
13.0789
13.0413
13.0028
12.9635
12.9233
12.8823
12.8404
12.7976
12.7539
12.7092
12.6636
12.6171
12.5696
12.521
12.4715
12.421
12.3694
12.3167
12.263
12.2082
12.1523
12.0953
12.0371
11.9777
11.9172
11.8555
11.7926
11.7284
11.6629
11.5962
11.5282
11.4589
11.3883
11.3163
11.2429
11.1681
11.092
11.0143
10.9353
14.1655
14.1592
14.1532
14.1457
14.1376
14.1288
14.1194
14.1095
14.099
14.088
14.0765
14.0645
14.052
14.0391
14.0257
14.0118
13.9974
13.9826
13.9673
13.9515
13.9352
13.9185
13.9012
13.8835
13.8652
13.8465
13.8272
13.8074
13.7871
13.7662
13.7448
13.7228
13.7003
13.6772
13.6535
13.6292
13.6043
13.5789
13.5527
13.526
13.4986
13.4705
13.4418
13.4124
13.3823
13.3516
13.3201
13.2879
13.2549
13.2212
13.1867
13.1515
13.1155
13.0787
13.041
13.0026
12.9633
12.9231
12.8821
12.8402
12.7974
12.7537
12.709
12.6634
12.6169
12.5694
12.5208
12.4713
12.4208
12.3692
12.3166
12.2628
12.208
12.1521
12.0951
12.0369
11.9776
11.917
11.8553
11.7924
11.7282
11.6628
11.5961
11.5281
11.4588
11.3881
11.3161
11.2428
11.168
11.0918
11.0142
10.9351
14.1663
14.16
14.154
14.1465
14.1384
14.1296
14.1202
14.1103
14.0997
14.0887
14.0772
14.0652
14.0527
14.0397
14.0263
14.0124
13.998
13.9831
13.9678
13.952
13.9357
13.9189
13.9016
13.8838
13.8655
13.8468
13.8275
13.8076
13.7873
13.7664
13.745
13.723
13.7004
13.6773
13.6536
13.6293
13.6043
13.5788
13.5527
13.5259
13.4985
13.4704
13.4417
13.4123
13.3822
13.3514
13.3199
13.2877
13.2547
13.221
13.1866
13.1513
13.1153
13.0785
13.0409
13.0024
12.9631
12.9229
12.8819
12.84
12.7972
12.7535
12.7088
12.6632
12.6167
12.5692
12.5207
12.4711
12.4206
12.369
12.3164
12.2627
12.2079
12.152
12.0949
12.0367
11.9774
11.9169
11.8552
11.7922
11.728
11.6626
11.5959
11.5279
11.4586
11.388
11.316
11.2426
11.1678
11.0917
11.014
10.935
14.167
14.1606
14.1547
14.1472
14.1391
14.1303
14.1209
14.1109
14.1004
14.0894
14.0778
14.0658
14.0533
14.0403
14.0268
14.0129
13.9985
13.9836
13.9682
13.9524
13.9361
13.9193
13.902
13.8842
13.8659
13.847
13.8277
13.8079
13.7875
13.7666
13.7451
13.7231
13.7005
13.6774
13.6536
13.6293
13.6044
13.5788
13.5527
13.5259
13.4985
13.4704
13.4416
13.4122
13.3821
13.3513
13.3198
13.2876
13.2546
13.2209
13.1864
13.1512
13.1152
13.0783
13.0407
13.0022
12.9629
12.9228
12.8817
12.8398
12.797
12.7533
12.7087
12.6631
12.6165
12.569
12.5205
12.471
12.4204
12.3689
12.3162
12.2625
12.2077
12.1518
12.0948
12.0366
11.9772
11.9167
11.855
11.7921
11.7279
11.6625
11.5958
11.5278
11.4585
11.3878
11.3158
11.2425
11.1677
11.0915
11.0139
10.9348
14.1676
14.1612
14.1553
14.1478
14.1397
14.1309
14.1215
14.1115
14.101
14.0899
14.0784
14.0663
14.0538
14.0408
14.0273
14.0134
13.9989
13.984
13.9686
13.9528
13.9364
13.9196
13.9023
13.8845
13.8661
13.8473
13.828
13.8081
13.7877
13.7668
13.7453
13.7232
13.7006
13.6775
13.6537
13.6294
13.6044
13.5789
13.5527
13.5259
13.4985
13.4704
13.4416
13.4122
13.3821
13.3512
13.3197
13.2875
13.2545
13.2208
13.1863
13.1511
13.115
13.0782
13.0406
13.0021
12.9628
12.9226
12.8816
12.8397
12.7969
12.7531
12.7085
12.6629
12.6164
12.5688
12.5203
12.4708
12.4203
12.3687
12.3161
12.2624
12.2076
12.1516
12.0946
12.0364
11.9771
11.9166
11.8549
11.7919
11.7278
11.6623
11.5956
11.5276
11.4583
11.3877
11.3157
11.2423
11.1676
11.0914
11.0138
10.9347
14.1682
14.1617
14.1558
14.1483
14.1402
14.1314
14.122
14.112
14.1014
14.0904
14.0788
14.0668
14.0542
14.0412
14.0277
14.0138
13.9993
13.9844
13.969
13.9531
13.9368
13.9199
13.9026
13.8848
13.8664
13.8476
13.8282
13.8083
13.7879
13.7669
13.7454
13.7234
13.7008
13.6776
13.6538
13.6295
13.6045
13.5789
13.5527
13.5259
13.4985
13.4704
13.4416
13.4121
13.382
13.3512
13.3197
13.2874
13.2544
13.2207
13.1862
13.151
13.1149
13.0781
13.0404
13.002
12.9626
12.9225
12.8815
12.8395
12.7967
12.753
12.7084
12.6628
12.6162
12.5687
12.5202
12.4707
12.4201
12.3686
12.3159
12.2622
12.2074
12.1515
12.0945
12.0363
11.977
11.9164
11.8547
11.7918
11.7276
11.6622
11.5955
11.5275
11.4582
11.3876
11.3156
11.2422
11.1674
11.0913
11.0136
10.9346
14.1686
14.1622
14.1563
14.1488
14.1407
14.1318
14.1224
14.1124
14.1019
14.0908
14.0792
14.0672
14.0546
14.0416
14.0281
14.0141
13.9997
13.9848
13.9694
13.9535
13.9371
13.9202
13.9029
13.885
13.8667
13.8478
13.8284
13.8085
13.7881
13.7671
13.7456
13.7235
13.7009
13.6777
13.6539
13.6295
13.6046
13.579
13.5528
13.526
13.4985
13.4704
13.4416
13.4121
13.382
13.3512
13.3196
13.2874
13.2544
13.2206
13.1861
13.1509
13.1148
13.078
13.0403
13.0019
12.9625
12.9224
12.8813
12.8394
12.7966
12.7529
12.7082
12.6626
12.6161
12.5686
12.5201
12.4705
12.42
12.3684
12.3158
12.2621
12.2073
12.1514
12.0943
12.0362
11.9768
11.9163
11.8546
11.7917
11.7275
11.6621
11.5954
11.5274
11.4581
11.3874
11.3155
11.2421
11.1673
11.0911
11.0135
10.9345
14.169
14.1626
14.1567
14.1492
14.141
14.1322
14.1228
14.1128
14.1022
14.0912
14.0796
14.0675
14.055
14.042
14.0285
14.0145
14
13.9851
13.9697
13.9538
13.9374
13.9205
13.9032
13.8853
13.8669
13.8481
13.8287
13.8087
13.7883
13.7673
13.7458
13.7237
13.7011
13.6778
13.654
13.6297
13.6047
13.5791
13.5529
13.526
13.4985
13.4704
13.4416
13.4121
13.382
13.3512
13.3196
13.2873
13.2543
13.2206
13.1861
13.1508
13.1148
13.0779
13.0403
13.0018
12.9625
12.9223
12.8812
12.8393
12.7965
12.7528
12.7081
12.6625
12.616
12.5685
12.5199
12.4704
12.4199
12.3683
12.3157
12.262
12.2072
12.1513
12.0942
12.0361
11.9767
11.9162
11.8545
11.7916
11.7274
11.662
11.5953
11.5273
11.458
11.3873
11.3153
11.242
14.1694
14.1629
14.157
14.1495
14.1414
14.1326
14.1231
14.1131
14.1026
14.0915
14.0799
14.0679
14.0553
14.0423
14.0288
14.0148
14.0003
13.9854
13.9699
13.954
13.9376
13.9208
13.9034
13.8855
13.8672
13.8483
13.8289
13.8089
13.7885
13.7675
13.7459
13.7239
13.7012
13.678
13.6542
13.6298
13.6048
13.5792
13.5529
13.5261
13.4986
13.4704
13.4416
13.4122
13.382
13.3512
13.3196
13.2873
13.2543
13.2206
13.1861
13.1508
13.1147
13.0779
13.0402
13.0017
12.9624
12.9222
12.8812
12.8392
12.7964
12.7527
12.708
12.6624
12.6159
12.5684
12.5198
12.4703
12.4198
12.3682
12.3156
12.2619
12.2071
12.1512
12.0941
12.036
11.9766
11.9161
11.8544
11.7915
11.7273
11.6619
11.5952
11.5272
11.4579
11.3872
11.3152
11.2419
14.1697
14.1632
14.1573
14.1498
14.1417
14.1329
14.1234
14.1134
14.1029
14.0918
14.0802
14.0682
14.0556
14.0426
14.029
14.015
14.0006
13.9856
13.9702
13.9543
13.9379
13.921
13.9036
13.8857
13.8674
13.8485
13.8291
13.8091
13.7887
13.7677
13.7461
13.724
13.7013
13.6781
13.6543
13.6299
13.6049
13.5792
13.553
13.5262
13.4987
13.4705
13.4417
13.4122
13.382
13.3512
13.3196
13.2873
13.2543
13.2206
13.186
13.1508
13.1147
13.0778
13.0402
13.0017
12.9623
12.9221
12.8811
12.8392
12.7964
12.7526
12.708
12.6624
12.6158
12.5683
12.5198
12.4702
12.4197
12.3681
12.3155
12.2618
12.207
12.1511
12.094
12.0359
11.9765
11.916
11.8543
11.7914
11.7272
11.6618
11.5951
11.5271
11.4578
11.3872
11.3152
11.2418
14.17
14.1635
14.1576
14.1501
14.142
14.1331
14.1237
14.1137
14.1031
14.0921
14.0805
14.0684
14.0559
14.0428
14.0293
14.0153
14.0008
13.9859
13.9704
13.9545
13.9381
13.9212
13.9038
13.886
13.8676
13.8487
13.8292
13.8093
13.7888
13.7678
13.7463
13.7241
13.7015
13.6782
13.6544
13.63
13.605
13.5793
13.5531
13.5262
13.4987
13.4706
13.4417
13.4123
13.3821
13.3512
13.3196
13.2873
13.2543
13.2206
13.186
13.1507
13.1147
13.0778
13.0401
13.0016
12.9623
12.9221
12.8811
12.8391
12.7963
12.7526
12.7079
12.6623
12.6157
12.5682
12.5197
12.4702
12.4196
12.368
12.3154
12.2617
12.2069
12.151
12.094
12.0358
11.9764
11.9159
11.8542
11.7913
11.7271
11.6617
11.595
11.527
11.4577
14.1702
14.1638
14.1579
14.1504
14.1422
14.1334
14.124
14.1139
14.1034
14.0923
14.0807
14.0687
14.0561
14.043
14.0295
14.0155
14.001
13.9861
13.9706
13.9547
13.9383
13.9214
13.904
13.8861
13.8677
13.8488
13.8294
13.8095
13.789
13.768
13.7464
13.7243
13.7016
13.6784
13.6545
13.6301
13.6051
13.5794
13.5532
13.5263
13.4988
13.4706
13.4418
13.4123
13.3821
13.3513
13.3197
13.2874
13.2543
13.2206
13.186
13.1508
13.1147
13.0778
13.0401
13.0016
12.9623
12.9221
12.881
12.8391
12.7963
12.7525
12.7079
12.6623
12.6157
12.5682
12.5196
12.4701
12.4196
12.368
12.3153
12.2616
12.2068
12.1509
12.0939
12.0357
11.9764
11.9159
11.8542
11.7912
11.7271
11.6616
11.5949
11.5269
11.4576
14.1705
14.164
14.1581
14.1506
14.1425
14.1336
14.1242
14.1142
14.1036
14.0925
14.081
14.0689
14.0563
14.0433
14.0297
14.0157
14.0012
13.9863
13.9708
13.9549
13.9385
13.9216
13.9042
13.8863
13.8679
13.849
13.8296
13.8096
13.7891
13.7681
13.7466
13.7244
13.7017
13.6785
13.6546
13.6302
13.6052
13.5796
13.5533
13.5264
13.4989
13.4707
13.4419
13.4124
13.3822
13.3513
13.3197
13.2874
13.2544
13.2206
13.1861
13.1508
13.1147
13.0778
13.0401
13.0016
12.9623
12.9221
12.881
12.8391
12.7962
12.7525
12.7078
12.6622
12.6157
12.5681
12.5196
12.4701
12.4195
12.3679
12.3153
12.2616
12.2068
12.1509
12.0938
12.0357
11.9763
11.9158
11.8541
11.7912
11.727
11.6616
11.5949
11.5269
11.4576
14.1707
14.1642
14.1583
14.1508
14.1427
14.1338
14.1244
14.1144
14.1038
14.0927
14.0812
14.0691
14.0565
14.0435
14.0299
14.0159
14.0014
13.9865
13.971
13.9551
13.9387
13.9218
13.9044
13.8865
13.8681
13.8492
13.8297
13.8098
13.7893
13.7683
13.7467
13.7246
13.7019
13.6786
13.6548
13.6303
13.6053
13.5797
13.5534
13.5265
13.499
13.4708
13.442
13.4125
13.3823
13.3514
13.3198
13.2875
13.2544
13.2206
13.1861
13.1508
13.1147
13.0778
13.0401
13.0016
12.9623
12.9221
12.881
12.8391
12.7962
12.7525
12.7078
12.6622
12.6156
12.5681
12.5196
12.47
12.4195
12.3679
12.3153
12.2615
12.2067
12.1508
12.0938
12.0356
11.9763
11.9158
11.854
11.7911
11.7269
11.6615
11.5948
11.5268
11.4575
14.1709
14.1644
14.1585
14.151
14.1429
14.134
14.1246
14.1146
14.104
14.0929
14.0814
14.0693
14.0567
14.0436
14.0301
14.0161
14.0016
13.9867
13.9712
13.9553
13.9389
13.922
13.9046
13.8867
13.8683
13.8493
13.8299
13.8099
13.7894
13.7684
13.7468
13.7247
13.702
13.6787
13.6549
13.6304
13.6054
13.5798
13.5535
13.5266
13.4991
13.4709
13.442
13.4125
13.3823
13.3514
13.3198
13.2875
13.2545
13.2207
13.1861
13.1508
13.1147
13.0779
13.0402
13.0016
12.9623
12.9221
12.881
12.8391
12.7962
12.7525
12.7078
12.6622
12.6156
12.5681
12.5196
12.47
12.4195
12.3679
12.3152
12.2615
12.2067
12.1508
12.0938
12.0356
11.9762
11.9157
11.854
11.7911
11.7269
11.6615
11.5948
11.5268
11.4575
14.1711
14.1646
14.1587
14.1512
14.1431
14.1342
14.1248
14.1148
14.1042
14.0931
14.0815
14.0695
14.0569
14.0438
14.0303
14.0163
14.0018
13.9868
13.9714
13.9554
13.939
13.9221
13.9047
13.8868
13.8684
13.8495
13.83
13.8101
13.7896
13.7686
13.747
13.7248
13.7021
13.6789
13.655
13.6306
13.6055
13.5799
13.5536
13.5267
13.4992
13.471
13.4421
13.4126
13.3824
13.3515
13.3199
13.2876
13.2545
13.2207
13.1862
13.1509
13.1148
13.0779
13.0402
13.0017
12.9623
12.9221
12.881
12.8391
12.7962
12.7525
12.7078
12.6622
12.6156
12.5681
12.5195
12.47
12.4195
12.3679
12.3152
12.2615
12.2067
12.1508
12.0937
12.0356
11.9762
11.9157
11.854
11.7911
11.7269
11.6615
11.5948
11.5268
11.4575
14.1713
14.1648
14.1589
14.1514
14.1432
14.1344
14.125
14.1149
14.1044
14.0933
14.0817
14.0696
14.0571
14.044
14.0305
14.0164
14.002
13.987
13.9715
13.9556
13.9392
13.9223
13.9049
13.887
13.8686
13.8496
13.8302
13.8102
13.7897
13.7687
13.7471
13.725
13.7023
13.679
13.6551
13.6307
13.6056
13.58
13.5537
13.5268
13.4993
13.4711
13.4422
13.4127
13.3825
13.3516
13.32
13.2877
13.2546
13.2208
13.1863
13.1509
13.1148
13.0779
13.0402
13.0017
12.9624
12.9221
12.8811
12.8391
12.7963
12.7525
12.7078
12.6622
12.6156
12.5681
12.5196
12.47
12.4195
12.3679
12.3152
12.2615
12.2067
12.1508
12.0937
12.0356
11.9762
11.9157
11.854
11.791
11.7269
11.6614
11.5948
11.5268
11.4575
14.1714
14.165
14.159
14.1516
14.1434
14.1346
14.1251
14.1151
14.1045
14.0935
14.0819
14.0698
14.0572
14.0442
14.0306
14.0166
14.0021
13.9871
13.9717
13.9558
13.9393
13.9224
13.905
13.8871
13.8687
13.8498
13.8303
13.8104
13.7899
13.7688
13.7472
13.7251
13.7024
13.6791
13.6553
13.6308
13.6058
13.5801
13.5538
13.5269
13.4994
13.4712
13.4423
13.4128
13.3826
13.3517
13.3201
13.2877
13.2547
13.2209
13.1863
13.151
13.1149
13.078
13.0403
13.0018
12.9624
12.9222
12.8811
12.8392
12.7963
12.7525
12.7079
12.6622
12.6157
12.5681
12.5196
12.47
12.4195
12.3679
12.3152
12.2615
12.2067
12.1508
12.0937
12.0356
11.9762
11.9157
11.854
11.791
11.7269
11.6614
11.5947
11.5268
11.4574
14.1716
14.1652
14.1592
14.1517
14.1436
14.1347
14.1253
14.1153
14.1047
14.0936
14.082
14.07
14.0574
14.0443
14.0308
14.0168
14.0023
13.9873
13.9719
13.9559
13.9395
13.9226
13.9052
13.8873
13.8688
13.8499
13.8305
13.8105
13.79
13.769
13.7474
13.7252
13.7025
13.6792
13.6554
13.6309
13.6059
13.5802
13.5539
13.527
13.4995
13.4713
13.4424
13.4129
13.3827
13.3518
13.3202
13.2878
13.2548
13.221
13.1864
13.1511
13.115
13.0781
13.0404
13.0018
12.9625
12.9222
12.8812
12.8392
12.7963
12.7526
12.7079
12.6623
12.6157
12.5681
12.5196
12.4701
12.4195
12.3679
12.3152
12.2615
12.2067
12.1508
12.0938
12.0356
11.9762
11.9157
11.854
11.7911
11.7269
11.6615
11.5948
11.5268
11.4575
14.1718
14.1654
14.1593
14.1519
14.1437
14.1349
14.1255
14.1154
14.1049
14.0938
14.0822
14.0701
14.0575
14.0445
14.0309
14.0169
14.0024
13.9875
13.972
13.9561
13.9396
13.9227
13.9053
13.8874
13.869
13.8501
13.8306
13.8106
13.7901
13.7691
13.7475
13.7254
13.7026
13.6794
13.6555
13.631
13.606
13.5803
13.554
13.5271
13.4996
13.4714
13.4425
13.413
13.3828
13.3519
13.3203
13.2879
13.2549
13.2211
13.1865
13.1512
13.115
13.0781
13.0404
13.0019
12.9625
12.9223
12.8812
12.8393
12.7964
12.7526
12.7079
12.6623
12.6157
12.5682
12.5196
12.4701
12.4195
12.3679
12.3153
12.2616
12.2067
12.1508
12.0938
12.0356
11.9763
11.9157
11.854
11.7911
11.7269
11.6615
11.5948
11.5268
11.4575
14.1719
14.1655
14.1595
14.152
14.1439
14.1351
14.1256
14.1156
14.105
14.0939
14.0823
14.0703
14.0577
14.0446
14.0311
14.0171
14.0026
13.9876
13.9722
13.9562
13.9398
13.9229
13.9055
13.8876
13.8691
13.8502
13.8308
13.8108
13.7903
13.7692
13.7476
13.7255
13.7028
13.6795
13.6556
13.6312
13.6061
13.5805
13.5542
13.5273
13.4997
13.4715
13.4426
13.4131
13.3829
13.352
13.3204
13.288
13.255
13.2211
13.1866
13.1512
13.1151
13.0782
13.0405
13.002
12.9626
12.9224
12.8813
12.8393
12.7965
12.7527
12.708
12.6624
12.6158
12.5682
12.5197
12.4701
12.4196
12.368
12.3153
12.2616
12.2068
12.1509
12.0938
12.0356
11.9763
11.9158
11.854
11.7911
11.7269
11.6615
11.5948
11.5268
11.4575
14.1721
14.1657
14.1596
14.1522
14.144
14.1352
14.1258
14.1157
14.1052
14.0941
14.0825
14.0704
14.0578
14.0448
14.0312
14.0172
14.0027
13.9878
13.9723
13.9564
13.9399
13.923
13.9056
13.8877
13.8693
13.8503
13.8309
13.8109
13.7904
13.7694
13.7478
13.7256
13.7029
13.6796
13.6558
13.6313
13.6062
13.5806
13.5543
13.5274
13.4998
13.4716
13.4428
13.4132
13.383
13.3521
13.3205
13.2881
13.2551
13.2212
13.1867
13.1513
13.1152
13.0783
13.0406
13.0021
12.9627
12.9225
12.8814
12.8394
12.7965
12.7528
12.7081
12.6624
12.6159
12.5683
12.5198
12.4702
12.4196
12.368
12.3154
12.2616
12.2068
12.1509
12.0939
12.0357
11.9763
11.9158
11.8541
11.7911
11.727
11.6615
11.5948
11.5268
11.4575
14.1722
14.1658
14.1598
14.1524
14.1442
14.1354
14.1259
14.1159
14.1053
14.0942
14.0827
14.0706
14.058
14.0449
14.0314
14.0174
14.0029
13.9879
13.9724
13.9565
13.9401
13.9232
13.9058
13.8878
13.8694
13.8505
13.831
13.8111
13.7906
13.7695
13.7479
13.7258
13.703
13.6798
13.6559
13.6314
13.6064
13.5807
13.5544
13.5275
13.4999
13.4717
13.4429
13.4133
13.3831
13.3522
13.3206
13.2882
13.2552
13.2213
13.1868
13.1514
13.1153
13.0784
13.0407
13.0021
12.9628
12.9225
12.8815
12.8395
12.7966
12.7528
12.7082
12.6625
12.6159
12.5684
12.5198
12.4703
12.4197
12.3681
12.3154
12.2617
12.2069
12.151
12.0939
12.0357
11.9764
11.9159
11.8541
11.7912
11.727
11.6616
11.5949
11.5269
11.4576
14.1724
14.166
14.1599
14.1525
14.1444
14.1355
14.1261
14.1161
14.1055
14.0944
14.0828
14.0707
14.0581
14.0451
14.0315
14.0175
14.003
13.9881
13.9726
13.9567
13.9402
13.9233
13.9059
13.888
13.8696
13.8506
13.8312
13.8112
13.7907
13.7696
13.748
13.7259
13.7032
13.6799
13.656
13.6316
13.6065
13.5808
13.5545
13.5276
13.5001
13.4719
13.443
13.4135
13.3832
13.3523
13.3207
13.2883
13.2553
13.2215
13.1869
13.1515
13.1154
13.0785
13.0408
13.0022
12.9629
12.9226
12.8815
12.8396
12.7967
12.7529
12.7082
12.6626
12.616
12.5685
12.5199
12.4704
12.4198
12.3682
12.3155
12.2618
12.207
12.151
12.094
12.0358
11.9764
11.9159
11.8542
11.7913
11.7271
11.6616
11.5949
11.5269
11.4576
14.1725
14.1662
14.1601
14.1527
14.1445
14.1357
14.1262
14.1162
14.1056
14.0946
14.083
14.0709
14.0583
14.0452
14.0317
14.0177
14.0032
13.9882
13.9727
13.9568
13.9404
13.9235
13.906
13.8881
13.8697
13.8508
13.8313
13.8113
13.7908
13.7698
13.7482
13.726
13.7033
13.68
13.6562
13.6317
13.6066
13.581
13.5547
13.5278
13.5002
13.472
13.4431
13.4136
13.3834
13.3524
13.3208
13.2885
13.2554
13.2216
13.187
13.1517
13.1155
13.0786
13.0409
13.0024
12.963
12.9227
12.8816
12.8397
12.7968
12.753
12.7083
12.6627
12.6161
12.5685
12.52
12.4704
12.4199
12.3683
12.3156
12.2619
12.207
12.1511
12.0941
12.0359
11.9765
11.916
11.8543
11.7913
11.7271
11.6617
11.595
11.527
11.4577
14.1727
14.1663
14.1603
14.1528
14.1447
14.1358
14.1264
14.1164
14.1058
14.0947
14.0831
14.071
14.0585
14.0454
14.0319
14.0178
14.0033
13.9884
13.9729
13.957
13.9405
13.9236
13.9062
13.8883
13.8699
13.8509
13.8315
13.8115
13.791
13.7699
13.7483
13.7262
13.7035
13.6802
13.6563
13.6318
13.6068
13.5811
13.5548
13.5279
13.5003
13.4721
13.4432
13.4137
13.3835
13.3526
13.3209
13.2886
13.2555
13.2217
13.1871
13.1518
13.1157
13.0787
13.041
13.0025
12.9631
12.9229
12.8818
12.8398
12.7969
12.7531
12.7084
12.6628
12.6162
12.5686
12.5201
12.4705
12.42
12.3683
12.3157
12.262
12.2071
12.1512
12.0941
12.036
11.9766
11.9161
11.8543
11.7914
11.7272
11.6618
11.5951
11.5271
11.4578
14.1729
14.1665
14.1604
14.153
14.1448
14.136
14.1266
14.1165
14.106
14.0949
14.0833
14.0712
14.0586
14.0455
14.032
14.018
14.0035
13.9885
13.9731
13.9571
13.9407
13.9238
13.9063
13.8884
13.87
13.8511
13.8316
13.8116
13.7911
13.7701
13.7485
13.7263
13.7036
13.6803
13.6564
13.632
13.6069
13.5812
13.555
13.528
13.5005
13.4723
13.4434
13.4138
13.3836
13.3527
13.3211
13.2887
13.2556
13.2218
13.1872
13.1519
13.1158
13.0789
13.0411
13.0026
12.9632
12.923
12.8819
12.8399
12.797
12.7532
12.7085
12.6629
12.6163
12.5687
12.5202
12.4706
12.4201
12.3684
12.3158
12.262
12.2072
12.1513
12.0942
12.036
11.9767
11.9162
11.8544
11.7915
11.7273
11.6619
11.5952
11.5272
14.173
14.1667
14.1606
14.1532
14.145
14.1362
14.1267
14.1167
14.1061
14.095
14.0834
14.0714
14.0588
14.0457
14.0322
14.0181
14.0036
13.9887
13.9732
13.9573
13.9408
13.9239
13.9065
13.8886
13.8702
13.8512
13.8318
13.8118
13.7913
13.7702
13.7486
13.7265
13.7038
13.6805
13.6566
13.6321
13.6071
13.5814
13.5551
13.5282
13.5006
13.4724
13.4435
13.414
13.3838
13.3528
13.3212
13.2889
13.2558
13.222
13.1874
13.152
13.1159
13.079
13.0413
13.0027
12.9633
12.9231
12.882
12.84
12.7971
12.7534
12.7087
12.663
12.6164
12.5689
12.5203
12.4707
12.4202
12.3686
12.3159
12.2622
12.2073
12.1514
12.0943
12.0361
11.9768
11.9163
11.8545
11.7916
11.7274
11.662
11.5953
11.5273
14.1732
14.1669
14.1607
14.1533
14.1452
14.1363
14.1269
14.1169
14.1063
14.0952
14.0836
14.0715
14.0589
14.0459
14.0323
14.0183
14.0038
13.9888
13.9734
13.9574
13.941
13.9241
13.9067
13.8887
13.8703
13.8514
13.8319
13.812
13.7914
13.7704
13.7488
13.7266
13.7039
13.6806
13.6567
13.6323
13.6072
13.5815
13.5552
13.5283
13.5008
13.4725
13.4437
13.4141
13.3839
13.353
13.3213
13.289
13.2559
13.2221
13.1875
13.1522
13.116
13.0791
13.0414
13.0028
12.9635
12.9232
12.8821
12.8401
12.7973
12.7535
12.7088
12.6631
12.6165
12.569
12.5204
12.4709
12.4203
12.3687
12.316
12.2623
12.2074
12.1515
12.0945
12.0363
11.9769
11.9164
11.8546
11.7917
11.7275
11.6621
11.5954
11.5274
14.1734
14.167
14.1609
14.1535
14.1453
14.1365
14.127
14.117
14.1065
14.0954
14.0838
14.0717
14.0591
14.046
14.0325
14.0185
14.004
13.989
13.9735
13.9576
13.9412
13.9242
13.9068
13.8889
13.8705
13.8515
13.8321
13.8121
13.7916
13.7705
13.7489
13.7268
13.7041
13.6808
13.6569
13.6324
13.6074
13.5817
13.5554
13.5285
13.5009
13.4727
13.4438
13.4143
13.384
13.3531
13.3215
13.2891
13.2561
13.2222
13.1877
13.1523
13.1162
13.0793
13.0415
13.003
12.9636
12.9234
12.8823
12.8403
12.7974
12.7536
12.7089
12.6633
12.6167
12.5691
12.5205
12.471
12.4204
12.3688
12.3161
12.2624
12.2076
12.1516
12.0946
12.0364
11.977
11.9165
11.8548
11.7918
11.7276
11.6622
11.5955
11.5275
14.1735
14.1672
14.1611
14.1537
14.1455
14.1367
14.1272
14.1172
14.1066
14.0955
14.0839
14.0719
14.0593
14.0462
14.0327
14.0186
14.0041
13.9892
13.9737
13.9578
13.9413
13.9244
13.907
13.8891
13.8707
13.8517
13.8323
13.8123
13.7918
13.7707
13.7491
13.7269
13.7042
13.6809
13.6571
13.6326
13.6075
13.5819
13.5556
13.5286
13.5011
13.4729
13.444
13.4144
13.3842
13.3533
13.3216
13.2893
13.2562
13.2224
13.1878
13.1525
13.1163
13.0794
13.0417
13.0031
12.9637
12.9235
12.8824
12.8404
12.7975
12.7538
12.7091
12.6634
12.6168
12.5692
12.5207
12.4711
12.4205
12.3689
12.3163
12.2625
12.2077
12.1518
12.0947
12.0365
11.9771
11.9166
11.8549
11.7919
11.7277
11.6623
11.5956
11.5276
14.1737
14.1674
14.1612
14.1538
14.1457
14.1368
14.1274
14.1174
14.1068
14.0957
14.0841
14.072
14.0594
14.0464
14.0328
14.0188
14.0043
13.9893
13.9739
13.9579
13.9415
13.9246
13.9072
13.8892
13.8708
13.8519
13.8324
13.8124
13.7919
13.7709
13.7493
13.7271
13.7044
13.6811
13.6572
13.6328
13.6077
13.582
13.5557
13.5288
13.5012
13.473
13.4441
13.4146
13.3844
13.3534
13.3218
13.2894
13.2564
13.2225
13.188
13.1526
13.1165
13.0796
13.0418
13.0033
12.9639
12.9236
12.8825
12.8406
12.7977
12.7539
12.7092
12.6636
12.617
12.5694
12.5208
12.4713
12.4207
12.3691
12.3164
12.2627
12.2078
12.1519
12.0948
12.0366
11.9773
11.9167
11.855
11.7921
11.7279
11.6624
11.5957
11.5277
14.1739
14.1676
14.1614
14.154
14.1459
14.137
14.1276
14.1176
14.107
14.0959
14.0843
14.0722
14.0596
14.0466
14.033
14.019
14.0045
13.9895
13.9741
13.9581
13.9417
13.9248
13.9073
13.8894
13.871
13.8521
13.8326
13.8126
13.7921
13.771
13.7494
13.7273
13.7046
13.6813
13.6574
13.6329
13.6079
13.5822
13.5559
13.529
13.5014
13.4732
13.4443
13.4148
13.3845
13.3536
13.322
13.2896
13.2565
13.2227
13.1881
13.1528
13.1166
13.0797
13.042
13.0034
12.964
12.9238
12.8827
12.8407
12.7978
12.7541
12.7093
12.6637
12.6171
12.5695
12.521
12.4714
12.4208
12.3692
12.3165
12.2628
12.208
12.152
12.095
12.0368
11.9774
11.9169
11.8551
11.7922
11.728
11.6626
11.5959
11.5279
14.1741
14.1678
14.1616
14.1542
14.146
14.1372
14.1278
14.1177
14.1072
14.0961
14.0845
14.0724
14.0598
14.0467
14.0332
14.0192
14.0047
13.9897
13.9742
13.9583
13.9419
13.9249
13.9075
13.8896
13.8712
13.8522
13.8328
13.8128
13.7923
13.7712
13.7496
13.7275
13.7047