/*--------------------------------*- C++ -*----------------------------------*\
  =========                 |
  \\      /  F ield         | OpenFOAM: The Open Source CFD Toolbox
   \\    /   O peration     | Website:  https://openfoam.org
    \\  /    A nd           | Version:  10
     \\/     M anipulation  |
\*---------------------------------------------------------------------------*/
FoamFile
{
    format      ascii;
    class       volScalarField;
    location    "51000";
    object      Co;
}
// * * * * * * * * * * * * * * * * * * * * * * * * * * * * * * * * * * * * * //

dimensions      [0 0 0 0 0 0 0];

internalField   nonuniform List<scalar> 
17922
(
4103.92
4092.44
4080.9
4069.31
4057.64
4045.9
4034.08
4022.16
4010.15
3998.04
3985.81
3973.46
3960.97
3948.35
3935.57
3922.63
3909.51
3896.2
3882.69
3868.97
3855.01
3840.8
3826.33
3811.56
3796.49
3781.08
3765.32
3749.17
3732.76
3716.35
3700.07
3683.9
3667.84
3651.86
3635.97
3620.14
3604.38
3588.67
3573.01
3557.38
3541.78
3526.21
3510.65
3495.1
3479.56
3464
3448.44
3432.85
3417.24
3401.59
3385.9
3370.2
3354.53
3338.84
3323.11
3307.32
3291.47
3275.55
3259.57
3243.52
3227.4
3211.21
3194.95
3178.62
3162.23
3145.77
3129.26
3112.7
3096.09
3079.44
3062.77
3046.08
3029.39
3012.71
2996.05
2979.42
2962.83
2946.3
2929.84
2913.45
2897.16
2880.96
2864.86
2848.88
2833.02
2817.28
2801.68
2786.21
2770.88
2755.68
2740.62
2725.7
2710.91
3986.03
3974.88
3963.68
3952.42
3941.08
3929.68
3918.19
3906.62
3894.96
3883.19
3871.31
3859.31
3847.18
3834.92
3822.51
3809.94
3797.2
3784.27
3771.15
3757.82
3744.26
3730.46
3716.4
3702.06
3687.42
3672.46
3657.15
3641.47
3625.53
3609.59
3593.78
3578.08
3562.48
3546.96
3531.52
3516.16
3500.85
3485.59
3470.38
3455.21
3440.06
3424.94
3409.83
3394.73
3379.63
3364.53
3349.42
3334.28
3319.12
3303.93
3288.69
3273.45
3258.24
3243.01
3227.73
3212.4
3197.01
3181.55
3166.04
3150.45
3134.8
3119.08
3103.29
3087.43
3071.52
3055.54
3039.5
3023.42
3007.29
2991.13
2974.94
2958.74
2942.54
2926.34
2910.16
2894.02
2877.91
2861.86
2845.88
2829.97
2814.14
2798.4
2782.76
2767.24
2751.82
2736.53
2721.36
2706.32
2691.41
2676.63
2661.98
2647.46
2633.06
3871.54
3860.71
3849.82
3838.88
3827.87
3816.8
3805.64
3794.4
3783.07
3771.63
3760.1
3748.44
3736.66
3724.75
3712.7
3700.49
3688.11
3675.56
3662.81
3649.86
3636.7
3623.29
3609.64
3595.71
3581.49
3566.96
3552.09
3536.86
3521.37
3505.9
3490.54
3475.29
3460.14
3445.07
3430.08
3415.16
3400.29
3385.48
3370.71
3355.97
3341.26
3326.58
3311.91
3297.24
3282.58
3267.92
3253.24
3238.54
3223.82
3209.06
3194.27
3179.48
3164.72
3149.93
3135.09
3120.2
3105.26
3090.25
3075.18
3060.05
3044.85
3029.58
3014.25
2998.85
2983.39
2967.88
2952.31
2936.69
2921.03
2905.34
2889.62
2873.89
2858.16
2842.43
2826.73
2811.05
2795.41
2779.83
2764.3
2748.84
2733.47
2718.18
2702.99
2687.9
2672.92
2658.06
2643.31
2628.69
2614.18
2599.81
2585.55
2571.42
2557.42
3760.33
3749.81
3739.24
3728.61
3717.92
3707.15
3696.32
3685.4
3674.39
3663.29
3652.08
3640.76
3629.32
3617.75
3606.04
3594.18
3582.16
3569.96
3557.59
3545.01
3532.22
3519.2
3505.94
3492.41
3478.6
3464.49
3450.04
3435.25
3420.21
3405.19
3390.27
3375.46
3360.75
3346.11
3331.56
3317.06
3302.63
3288.24
3273.9
3259.59
3245.3
3231.04
3216.79
3202.56
3188.32
3174.08
3159.82
3145.55
3131.25
3116.93
3102.56
3088.21
3073.87
3059.52
3045.11
3030.65
3016.13
3001.56
2986.93
2972.23
2957.47
2942.64
2927.76
2912.8
2897.79
2882.72
2867.6
2852.44
2837.23
2822
2806.74
2791.46
2776.19
2760.92
2745.66
2730.44
2715.25
2700.12
2685.04
2670.02
2655.09
2640.24
2625.48
2610.81
2596.25
2581.8
2567.47
2553.24
2539.14
2525.15
2511.29
2497.54
2483.91
3652.31
3642.09
3631.83
3621.5
3611.11
3600.66
3590.14
3579.53
3568.84
3558.05
3547.16
3536.17
3525.06
3513.82
3502.44
3490.92
3479.25
3467.41
3455.38
3443.17
3430.75
3418.1
3405.22
3392.08
3378.67
3364.96
3350.93
3336.56
3321.96
3307.36
3292.88
3278.5
3264.21
3250
3235.86
3221.78
3207.76
3193.79
3179.86
3165.97
3152.1
3138.25
3124.41
3110.59
3096.76
3082.93
3069.09
3055.23
3041.35
3027.43
3013.49
2999.55
2985.64
2971.69
2957.7
2943.66
2929.57
2915.41
2901.2
2886.93
2872.59
2858.2
2843.74
2829.21
2814.64
2800
2785.32
2770.59
2755.83
2741.03
2726.21
2711.38
2696.55
2681.72
2666.91
2652.12
2637.37
2622.67
2608.02
2593.44
2578.93
2564.5
2550.15
2535.9
2521.75
2507.7
2493.76
2479.93
2466.22
2452.61
2439.12
2425.74
2412.47
3547.4
3537.47
3527.5
3517.47
3507.38
3497.23
3487
3476.7
3466.32
3455.84
3445.26
3434.58
3423.79
3412.87
3401.83
3390.64
3379.3
3367.79
3356.12
3344.25
3332.19
3319.9
3307.39
3294.63
3281.6
3268.29
3254.67
3240.71
3226.53
3212.35
3198.29
3184.32
3170.44
3156.64
3142.91
3129.24
3115.63
3102.06
3088.53
3075.04
3061.57
3048.12
3034.68
3021.26
3007.83
2994.4
2980.96
2967.5
2954.02
2940.51
2926.97
2913.44
2899.93
2886.39
2872.8
2859.17
2845.48
2831.73
2817.93
2804.07
2790.15
2776.16
2762.12
2748.02
2733.86
2719.65
2705.39
2691.08
2676.74
2662.37
2647.98
2633.58
2619.17
2604.77
2590.39
2576.03
2561.7
2547.42
2533.19
2519.03
2504.93
2490.9
2476.96
2463.11
2449.36
2435.7
2422.14
2408.69
2395.35
2382.12
2368.99
2355.97
2343.06
3445.5
3435.86
3426.17
3416.43
3406.63
3396.77
3386.83
3376.83
3366.74
3356.56
3346.29
3335.92
3325.43
3314.83
3304.1
3293.23
3282.21
3271.04
3259.7
3248.17
3236.46
3224.53
3212.38
3199.98
3187.33
3174.4
3161.17
3147.61
3133.84
3120.07
3106.41
3092.84
3079.37
3065.96
3052.63
3039.36
3026.13
3012.96
2999.82
2986.72
2973.64
2960.58
2947.53
2934.49
2921.46
2908.41
2895.36
2882.29
2869.2
2856.08
2842.93
2829.8
2816.69
2803.53
2790.34
2777.1
2763.8
2750.45
2737.04
2723.58
2710.06
2696.48
2682.84
2669.14
2655.39
2641.58
2627.73
2613.84
2599.92
2585.96
2571.98
2558
2544
2530.02
2516.05
2502.1
2488.18
2474.31
2460.49
2446.72
2433.02
2419.39
2405.84
2392.38
2379.01
2365.73
2352.55
2339.47
2326.49
2313.62
2300.85
2288.18
2275.62
3346.53
3337.16
3327.75
3318.29
3308.77
3299.19
3289.54
3279.82
3270.02
3260.14
3250.16
3240.08
3229.9
3219.6
3209.18
3198.62
3187.92
3177.07
3166.05
3154.86
3143.48
3131.89
3120.09
3108.05
3095.76
3083.2
3070.35
3057.19
3043.81
3030.44
3017.17
3004
2990.91
2977.89
2964.94
2952.05
2939.21
2926.42
2913.66
2900.93
2888.23
2875.55
2862.88
2850.22
2837.56
2824.9
2812.22
2799.53
2786.82
2774.08
2761.31
2748.56
2735.82
2723.05
2710.24
2697.37
2684.46
2671.49
2658.47
2645.4
2632.26
2619.07
2605.82
2592.51
2579.16
2565.75
2552.3
2538.81
2525.28
2511.72
2498.15
2484.56
2470.97
2457.39
2443.82
2430.27
2416.75
2403.27
2389.84
2376.46
2363.15
2349.91
2336.74
2323.65
2310.65
2297.74
2284.92
2272.2
2259.58
2247.06
2234.63
2222.31
2210.09
3250.4
3241.3
3232.16
3222.97
3213.72
3204.41
3195.04
3185.6
3176.08
3166.48
3156.79
3147
3137.11
3127.11
3116.98
3106.73
3096.34
3085.8
3075.09
3064.22
3053.17
3041.91
3030.45
3018.76
3006.82
2994.62
2982.14
2969.36
2956.37
2943.38
2930.5
2917.7
2904.99
2892.35
2879.77
2867.26
2854.79
2842.36
2829.97
2817.62
2805.28
2792.97
2780.66
2768.37
2756.07
2743.78
2731.47
2719.14
2706.8
2694.43
2682.03
2669.65
2657.28
2644.88
2632.43
2619.93
2607.39
2594.8
2582.15
2569.45
2556.69
2543.87
2531
2518.08
2505.1
2492.08
2479.01
2465.91
2452.77
2439.6
2426.42
2413.22
2400.02
2386.82
2373.64
2360.48
2347.34
2334.25
2321.2
2308.2
2295.26
2282.39
2269.59
2256.86
2244.22
2231.67
2219.21
2206.84
2194.56
2182.38
2170.29
2158.31
2146.41
3157.03
3148.19
3139.31
3130.38
3121.4
3112.36
3103.26
3094.09
3084.84
3075.52
3066.1
3056.59
3046.99
3037.27
3027.43
3017.48
3007.38
2997.14
2986.75
2976.19
2965.45
2954.52
2943.39
2932.03
2920.44
2908.59
2896.47
2884.05
2871.44
2858.82
2846.31
2833.88
2821.54
2809.26
2797.05
2784.89
2772.79
2760.72
2748.69
2736.69
2724.71
2712.75
2700.8
2688.86
2676.93
2664.98
2653.03
2641.07
2629.08
2617.07
2605.03
2593
2580.99
2568.94
2556.85
2544.71
2532.53
2520.3
2508.01
2495.67
2483.28
2470.83
2458.32
2445.77
2433.17
2420.51
2407.82
2395.09
2382.33
2369.54
2356.73
2343.91
2331.08
2318.26
2305.45
2292.67
2279.91
2267.18
2254.5
2241.87
2229.29
2216.78
2204.33
2191.97
2179.68
2167.47
2155.35
2143.32
2131.38
2119.53
2107.78
2096.12
2084.55
3066.34
3057.76
3049.13
3040.46
3031.73
3022.95
3014.11
3005.2
2996.22
2987.16
2978.02
2968.78
2959.45
2950.01
2940.46
2930.79
2920.98
2911.04
2900.94
2890.69
2880.26
2869.64
2858.83
2847.8
2836.54
2825.03
2813.26
2801.2
2788.94
2776.7
2764.54
2752.48
2740.49
2728.56
2716.7
2704.9
2693.14
2681.42
2669.74
2658.09
2646.45
2634.84
2623.24
2611.65
2600.05
2588.46
2576.85
2565.23
2553.59
2541.93
2530.24
2518.55
2506.88
2495.18
2483.44
2471.65
2459.81
2447.93
2435.99
2424
2411.96
2399.87
2387.72
2375.53
2363.28
2350.99
2338.66
2326.29
2313.89
2301.47
2289.02
2276.57
2264.11
2251.65
2239.21
2226.78
2214.38
2202.01
2189.69
2177.41
2165.19
2153.03
2140.93
2128.91
2116.96
2105.09
2093.3
2081.6
2069.99
2058.47
2047.04
2035.7
2024.45
2978.26
2969.92
2961.54
2953.12
2944.64
2936.11
2927.52
2918.87
2910.15
2901.35
2892.46
2883.49
2874.43
2865.26
2855.98
2846.59
2837.06
2827.41
2817.6
2807.64
2797.51
2787.2
2776.69
2765.98
2755.05
2743.87
2732.44
2720.72
2708.82
2696.93
2685.12
2673.4
2661.76
2650.18
2638.67
2627.2
2615.78
2604.4
2593.06
2581.74
2570.44
2559.17
2547.9
2536.64
2525.38
2514.12
2502.85
2491.57
2480.27
2468.94
2457.59
2446.24
2434.9
2423.53
2412.12
2400.67
2389.17
2377.63
2366.03
2354.39
2342.69
2330.94
2319.14
2307.29
2295.39
2283.45
2271.47
2259.45
2247.4
2235.33
2223.24
2211.14
2199.04
2186.93
2174.84
2162.76
2150.71
2138.7
2126.72
2114.78
2102.9
2091.08
2079.32
2067.63
2056.01
2044.47
2033.01
2021.63
2010.34
1999.14
1988.02
1976.99
1966.05
2892.71
2884.61
2876.47
2868.28
2860.05
2851.77
2843.42
2835.02
2826.54
2818
2809.37
2800.66
2791.85
2782.95
2773.93
2764.81
2755.56
2746.18
2736.65
2726.98
2717.14
2707.12
2696.92
2686.52
2675.89
2665.04
2653.94
2642.56
2631
2619.45
2607.99
2596.6
2585.3
2574.05
2562.87
2551.73
2540.64
2529.59
2518.58
2507.59
2496.62
2485.67
2474.73
2463.79
2452.86
2441.92
2430.98
2420.02
2409.05
2398.05
2387.03
2376
2364.98
2353.94
2342.85
2331.73
2320.56
2309.34
2298.07
2286.76
2275.39
2263.98
2252.51
2241
2229.44
2217.83
2206.19
2194.52
2182.81
2171.08
2159.33
2147.57
2135.81
2124.05
2112.3
2100.56
2088.85
2077.17
2065.53
2053.93
2042.38
2030.89
2019.45
2008.09
1996.79
1985.57
1974.43
1963.37
1952.39
1941.49
1930.68
1919.96
1909.32
2809.61
2801.74
2793.83
2785.88
2777.89
2769.84
2761.74
2753.57
2745.34
2737.04
2728.66
2720.2
2711.64
2702.99
2694.24
2685.38
2676.39
2667.28
2658.03
2648.63
2639.07
2629.35
2619.44
2609.33
2599.02
2588.48
2577.69
2566.64
2555.42
2544.2
2533.06
2522.01
2511.03
2500.11
2489.25
2478.43
2467.66
2456.93
2446.23
2435.56
2424.91
2414.28
2403.65
2393.03
2382.42
2371.8
2361.17
2350.53
2339.88
2329.2
2318.49
2307.78
2297.07
2286.34
2275.57
2264.76
2253.9
2243.01
2232.06
2221.06
2210.02
2198.92
2187.78
2176.59
2165.36
2154.09
2142.78
2131.43
2120.06
2108.66
2097.24
2085.82
2074.38
2062.95
2051.53
2040.13
2028.75
2017.39
2006.08
1994.8
1983.57
1972.4
1961.28
1950.23
1939.25
1928.34
1917.51
1906.75
1896.08
1885.48
1874.97
1864.55
1854.21
2728.9
2721.25
2713.57
2705.85
2698.09
2690.27
2682.4
2674.47
2666.47
2658.41
2650.27
2642.05
2633.74
2625.34
2616.84
2608.23
2599.5
2590.65
2581.66
2572.53
2563.25
2553.81
2544.18
2534.37
2524.35
2514.11
2503.63
2492.9
2482
2471.1
2460.29
2449.56
2438.89
2428.29
2417.74
2407.24
2396.78
2386.36
2375.97
2365.61
2355.26
2344.93
2334.62
2324.31
2314
2303.69
2293.37
2283.04
2272.69
2262.32
2251.93
2241.51
2231.09
2220.67
2210.21
2199.7
2189.16
2178.57
2167.93
2157.25
2146.51
2135.73
2124.9
2114.03
2103.12
2092.16
2081.17
2070.14
2059.09
2048.01
2036.92
2025.81
2014.7
2003.59
1992.49
1981.41
1970.34
1959.31
1948.31
1937.35
1926.43
1915.57
1904.76
1894.02
1883.34
1872.73
1862.2
1851.74
1841.36
1831.07
1820.85
1810.72
1800.67
2650.5
2643.08
2635.62
2628.12
2620.57
2612.98
2605.34
2597.63
2589.87
2582.03
2574.13
2566.14
2558.07
2549.91
2541.65
2533.29
2524.81
2516.22
2507.49
2498.62
2489.61
2480.43
2471.09
2461.55
2451.82
2441.88
2431.7
2421.28
2410.69
2400.11
2389.61
2379.19
2368.83
2358.53
2348.28
2338.09
2327.93
2317.81
2307.72
2297.66
2287.61
2277.58
2267.57
2257.55
2247.54
2237.53
2227.51
2217.48
2207.43
2197.36
2187.27
2177.15
2167.02
2156.88
2146.72
2136.51
2126.26
2115.97
2105.63
2095.25
2084.82
2074.34
2063.82
2053.25
2042.64
2032
2021.31
2010.6
1999.85
1989.09
1978.31
1967.51
1956.71
1945.92
1935.13
1924.35
1913.6
1902.87
1892.18
1881.52
1870.91
1860.35
1849.84
1839.4
1829.02
1818.7
1808.46
1798.3
1788.21
1778.2
1768.27
1758.42
1748.66
2602.93
2595.82
2588.69
2581.54
2574.36
2567.15
2559.9
2552.62
2545.29
2537.91
2530.49
2523
2515.46
2507.85
2500.17
2492.42
2484.58
2476.65
2468.63
2460.51
2452.28
2443.93
2435.45
2426.84
2418.08
2409.17
2400.09
2390.83
2381.38
2371.72
2361.84
2351.72
2341.44
2331.16
2320.96
2310.83
2300.78
2290.77
2280.83
2270.92
2261.06
2251.23
2241.43
2231.66
2221.91
2212.17
2202.44
2192.72
2183
2173.27
2163.54
2153.8
2144.04
2134.26
2124.46
2114.64
2104.78
2094.92
2085.04
2075.13
2065.17
2055.16
2045.12
2035.03
2024.89
2014.71
2004.48
1994.21
1983.9
1973.55
1963.16
1952.75
1942.3
1931.84
1921.36
1910.87
1900.37
1889.88
1879.39
1868.92
1858.46
1848.03
1837.63
1827.27
1816.96
1806.69
1796.48
1786.32
1776.23
1766.21
1756.25
1746.37
1736.56
1726.84
1717.19
1707.62
1698.13
2528.15
2521.25
2514.32
2507.38
2500.4
2493.4
2486.36
2479.28
2472.16
2465
2457.79
2450.52
2443.19
2435.8
2428.34
2420.81
2413.2
2405.5
2397.71
2389.82
2381.82
2373.71
2365.48
2357.11
2348.61
2339.95
2331.13
2322.14
2312.96
2303.58
2293.98
2284.15
2274.17
2264.18
2254.28
2244.45
2234.68
2224.97
2215.3
2205.69
2196.11
2186.56
2177.05
2167.56
2158.09
2148.63
2139.18
2129.74
2120.3
2110.86
2101.41
2091.95
2082.47
2072.98
2063.46
2053.92
2044.35
2034.75
2025.13
2015.49
2005.82
1996.1
1986.33
1976.52
1966.67
1956.77
1946.83
1936.85
1926.82
1916.76
1906.67
1896.54
1886.39
1876.22
1866.03
1855.83
1845.63
1835.43
1825.23
1815.05
1804.89
1794.75
1784.64
1774.57
1764.54
1754.56
1744.63
1734.76
1724.95
1715.2
1705.52
1695.92
1686.39
1676.94
1667.56
1658.27
1649.05
2455.52
2448.81
2442.09
2435.34
2428.57
2421.76
2414.93
2408.05
2401.14
2394.18
2387.17
2380.12
2373
2365.82
2358.58
2351.26
2343.86
2336.39
2328.82
2321.15
2313.39
2305.51
2297.51
2289.39
2281.13
2272.72
2264.16
2255.42
2246.51
2237.4
2228.08
2218.53
2208.83
2199.13
2189.52
2179.97
2170.48
2161.05
2151.66
2142.32
2133.02
2123.75
2114.51
2105.3
2096.1
2086.91
2077.74
2068.57
2059.4
2050.24
2041.06
2031.87
2022.67
2013.45
2004.22
1994.95
1985.66
1976.34
1966.98
1957.59
1948.17
1938.71
1929.22
1919.69
1910.11
1900.49
1890.82
1881.12
1871.37
1861.59
1851.78
1841.94
1832.07
1822.18
1812.28
1802.36
1792.44
1782.53
1772.61
1762.71
1752.83
1742.97
1733.15
1723.36
1713.61
1703.9
1694.25
1684.65
1675.12
1665.64
1656.24
1646.91
1637.65
1628.46
1619.35
1610.32
1601.37
2404.42
2397.95
2391.47
2384.97
2378.46
2371.93
2365.37
2358.8
2352.19
2345.55
2338.87
2332.15
2325.4
2318.59
2311.73
2304.82
2297.85
2290.81
2283.7
2276.52
2269.26
2261.91
2254.46
2246.92
2239.27
2231.5
2223.61
2215.59
2207.42
2199.1
2190.62
2181.96
2173.11
2164.06
2154.79
2145.37
2135.95
2126.61
2117.34
2108.12
2098.96
2089.85
2080.78
2071.75
2062.75
2053.77
2044.82
2035.89
2026.97
2018.06
2009.16
2000.26
1991.35
1982.44
1973.52
1964.59
1955.64
1946.67
1937.67
1928.65
1919.6
1910.51
1901.39
1892.24
1883.05
1873.81
1864.54
1855.23
1845.87
1836.48
1827.05
1817.57
1808.06
1798.52
1788.95
1779.34
1769.71
1760.07
1750.41
1740.77
1731.12
1721.49
1711.86
1702.25
1692.67
1683.12
1673.6
1664.12
1654.68
1645.3
1635.97
1626.7
1617.5
1608.36
1599.29
1590.29
1581.37
1572.52
1563.75
1555.06
2335.34
2329.05
2322.76
2316.45
2310.13
2303.78
2297.42
2291.03
2284.61
2278.16
2271.67
2265.15
2258.59
2251.98
2245.32
2238.6
2231.83
2224.99
2218.09
2211.11
2204.06
2196.92
2189.69
2182.36
2174.93
2167.39
2159.72
2151.93
2144
2135.92
2127.68
2119.27
2110.68
2101.88
2092.88
2083.73
2074.59
2065.51
2056.51
2047.56
2038.66
2029.81
2021
2012.23
2003.49
1994.77
1986.08
1977.41
1968.75
1960.1
1951.45
1942.81
1934.16
1925.51
1916.85
1908.17
1899.48
1890.77
1882.03
1873.27
1864.48
1855.67
1846.81
1837.93
1829
1820.04
1811.04
1802
1792.93
1783.81
1774.66
1765.47
1756.24
1746.98
1737.7
1728.38
1719.05
1709.69
1700.32
1690.94
1681.55
1672.15
1662.77
1653.38
1644.01
1634.66
1625.33
1616.05
1606.86
1597.74
1588.67
1579.67
1570.72
1561.84
1553.03
1544.29
1535.62
1527.02
1518.51
1510.07
2268.24
2262.14
2256.02
2249.9
2243.75
2237.59
2231.41
2225.2
2218.97
2212.7
2206.4
2200.07
2193.69
2187.27
2180.8
2174.28
2167.7
2161.07
2154.36
2147.58
2140.73
2133.8
2126.77
2119.66
2112.44
2105.11
2097.67
2090.1
2082.4
2074.55
2066.55
2058.38
2050.03
2041.49
2032.75
2023.86
2014.98
2006.17
1997.42
1988.73
1980.09
1971.5
1962.94
1954.42
1945.93
1937.47
1929.03
1920.61
1912.2
1903.79
1895.4
1887
1878.61
1870.21
1861.79
1853.37
1844.93
1836.47
1827.99
1819.49
1810.95
1802.39
1793.8
1785.17
1776.51
1767.81
1759.08
1750.3
1741.49
1732.65
1723.77
1714.85
1705.9
1696.92
1687.92
1678.89
1669.83
1660.76
1651.67
1642.58
1633.47
1624.37
1615.27
1606.18
1597.1
1588.04
1578.99
1569.98
1560.99
1552.03
1543.12
1534.24
1525.4
1516.67
1508.08
1499.59
1491.17
1482.83
1474.56
1466.36
2203.06
2197.14
2191.2
2185.25
2179.29
2173.3
2167.3
2161.27
2155.21
2149.13
2143.01
2136.86
2130.66
2124.43
2118.14
2111.81
2105.42
2098.97
2092.46
2085.88
2079.22
2072.49
2065.67
2058.75
2051.74
2044.63
2037.4
2030.04
2022.56
2014.94
2007.17
1999.24
1991.13
1982.84
1974.34
1965.71
1957.09
1948.53
1940.03
1931.59
1923.2
1914.86
1906.55
1898.27
1890.03
1881.81
1873.62
1865.43
1857.27
1849.11
1840.95
1832.8
1824.65
1816.49
1808.32
1800.14
1791.95
1783.73
1775.5
1767.24
1758.96
1750.65
1742.3
1733.93
1725.52
1717.08
1708.6
1700.09
1691.54
1682.96
1674.34
1665.69
1657.01
1648.3
1639.56
1630.81
1622.03
1613.23
1604.42
1595.6
1586.78
1577.96
1569.14
1560.33
1551.53
1542.74
1533.98
1525.25
1516.54
1507.86
1499.22
1490.62
1482.06
1473.54
1465.07
1456.64
1448.26
1439.97
1431.86
1423.91
2139.76
2134.01
2128.24
2122.46
2116.67
2110.86
2105.02
2099.17
2093.29
2087.38
2081.44
2075.46
2069.44
2063.39
2057.28
2051.13
2044.93
2038.66
2032.34
2025.94
2019.48
2012.94
2006.31
1999.6
1992.79
1985.88
1978.85
1971.71
1964.45
1957.05
1949.5
1941.79
1933.92
1925.86
1917.62
1909.23
1900.86
1892.54
1884.29
1876.1
1867.95
1859.84
1851.77
1843.74
1835.73
1827.75
1819.79
1811.85
1803.91
1795.99
1788.07
1780.16
1772.24
1764.32
1756.39
1748.44
1740.48
1732.51
1724.51
1716.5
1708.45
1700.38
1692.28
1684.15
1675.99
1667.8
1659.57
1651.31
1643.01
1634.69
1626.33
1617.94
1609.52
1601.07
1592.6
1584.1
1575.59
1567.06
1558.53
1549.98
1541.43
1532.88
1524.33
1515.79
1507.26
1498.75
1490.26
1481.8
1473.36
1464.96
1456.59
1448.25
1439.96
1431.71
1423.5
1415.33
1407.21
1399.14
1391.11
1383.12
2078.28
2072.69
2067.09
2061.48
2055.85
2050.2
2044.54
2038.85
2033.14
2027.4
2021.63
2015.82
2009.98
2004.1
1998.17
1992.2
1986.17
1980.09
1973.94
1967.73
1961.45
1955.1
1948.66
1942.14
1935.53
1928.82
1921.99
1915.06
1908
1900.81
1893.48
1886
1878.35
1870.53
1862.52
1854.38
1846.24
1838.17
1830.15
1822.19
1814.28
1806.41
1798.57
1790.77
1782.99
1775.24
1767.51
1759.8
1752.09
1744.4
1736.71
1729.02
1721.33
1713.64
1705.94
1698.22
1690.5
1682.75
1674.99
1667.21
1659.4
1651.56
1643.7
1635.81
1627.89
1619.93
1611.95
1603.93
1595.88
1587.8
1579.69
1571.55
1563.38
1555.19
1546.98
1538.74
1530.49
1522.22
1513.94
1505.66
1497.37
1489.08
1480.8
1472.53
1464.27
1456.02
1447.8
1439.6
1431.43
1423.28
1415.18
1407.1
1399.07
1391.08
1383.12
1375.21
1367.35
1359.53
1351.75
1344.01
2018.55
2013.13
2007.69
2002.24
1996.78
1991.29
1985.79
1980.27
1974.72
1969.15
1963.54
1957.9
1952.23
1946.51
1940.76
1934.95
1929.1
1923.19
1917.22
1911.19
1905.09
1898.92
1892.67
1886.34
1879.91
1873.39
1866.77
1860.03
1853.18
1846.19
1839.07
1831.8
1824.38
1816.78
1809
1801.09
1793.19
1785.35
1777.57
1769.84
1762.15
1754.5
1746.89
1739.32
1731.77
1724.24
1716.73
1709.24
1701.76
1694.29
1686.82
1679.35
1671.89
1664.42
1656.94
1649.45
1641.94
1634.42
1626.89
1619.33
1611.75
1604.14
1596.51
1588.85
1581.16
1573.44
1565.69
1557.91
1550.1
1542.26
1534.39
1526.49
1518.57
1510.63
1502.66
1494.68
1486.68
1478.66
1470.64
1462.61
1454.58
1446.55
1438.52
1430.51
1422.5
1414.52
1406.55
1398.61
1390.69
1382.81
1374.95
1367.14
1359.35
1351.61
1343.91
1336.25
1328.63
1321.05
1313.52
1306.02
1960.55
1955.28
1950
1944.7
1939.4
1934.07
1928.73
1923.36
1917.98
1912.56
1907.12
1901.64
1896.13
1890.58
1884.99
1879.35
1873.67
1867.93
1862.13
1856.27
1850.35
1844.35
1838.28
1832.13
1825.89
1819.56
1813.13
1806.58
1799.93
1793.14
1786.23
1779.17
1771.96
1764.58
1757.02
1749.34
1741.67
1734.05
1726.49
1718.98
1711.52
1704.09
1696.7
1689.34
1682.01
1674.7
1667.41
1660.13
1652.87
1645.61
1638.36
1631.11
1623.86
1616.6
1609.34
1602.07
1594.78
1587.48
1580.16
1572.82
1565.46
1558.08
1550.67
1543.23
1535.77
1528.28
1520.75
1513.2
1505.63
1498.02
1490.39
1482.73
1475.05
1467.34
1459.62
1451.87
1444.12
1436.35
1428.57
1420.79
1413.01
1405.23
1397.45
1389.69
1381.94
1374.2
1366.49
1358.79
1351.13
1343.49
1335.89
1328.32
1320.78
1313.28
1305.83
1298.41
1291.03
1283.69
1276.39
1269.14
1904.21
1899.09
1893.96
1888.82
1883.66
1878.49
1873.31
1868.1
1862.86
1857.6
1852.32
1847
1841.64
1836.25
1830.82
1825.35
1819.82
1814.25
1808.62
1802.93
1797.18
1791.36
1785.46
1779.48
1773.42
1767.27
1761.02
1754.67
1748.2
1741.62
1734.9
1728.04
1721.04
1713.87
1706.53
1699.07
1691.62
1684.22
1676.88
1669.59
1662.34
1655.13
1647.95
1640.8
1633.68
1626.58
1619.5
1612.43
1605.38
1598.33
1591.29
1584.25
1577.21
1570.16
1563.11
1556.05
1548.97
1541.88
1534.78
1527.65
1520.5
1513.34
1506.14
1498.92
1491.68
1484.41
1477.11
1469.78
1462.43
1455.05
1447.64
1440.21
1432.76
1425.29
1417.8
1410.29
1402.78
1395.25
1387.71
1380.17
1372.63
1365.09
1357.56
1350.04
1342.53
1335.04
1327.57
1320.12
1312.7
1305.3
1297.94
1290.61
1283.31
1276.06
1268.84
1261.65
1254.51
1247.41
1240.34
1233.31
1849.48
1844.51
1839.53
1834.54
1829.53
1824.51
1819.47
1814.41
1809.33
1804.22
1799.09
1793.92
1788.72
1783.49
1778.21
1772.89
1767.53
1762.12
1756.65
1751.12
1745.53
1739.88
1734.15
1728.35
1722.46
1716.49
1710.42
1704.25
1697.97
1691.57
1685.04
1678.39
1671.58
1664.62
1657.49
1650.25
1643.01
1635.83
1628.7
1621.61
1614.57
1607.57
1600.6
1593.66
1586.74
1579.84
1572.97
1566.1
1559.25
1552.41
1545.57
1538.73
1531.89
1525.05
1518.2
1511.34
1504.47
1497.59
1490.69
1483.77
1476.83
1469.87
1462.89
1455.88
1448.85
1441.79
1434.71
1427.6
1420.47
1413.31
1406.12
1398.92
1391.69
1384.44
1377.18
1369.9
1362.62
1355.32
1348.02
1340.71
1333.4
1326.1
1318.81
1311.52
1304.25
1297
1289.76
1282.55
1275.36
1268.21
1261.08
1253.98
1246.92
1239.9
1232.91
1225.96
1219.04
1212.17
1205.33
1198.53
1796.33
1791.5
1786.66
1781.82
1776.96
1772.08
1767.18
1762.27
1757.33
1752.37
1747.39
1742.37
1737.32
1732.23
1727.11
1721.95
1716.74
1711.48
1706.17
1700.8
1695.37
1689.88
1684.32
1678.68
1672.96
1667.16
1661.27
1655.27
1649.17
1642.96
1636.62
1630.15
1623.55
1616.79
1609.86
1602.83
1595.8
1588.82
1581.89
1575.01
1568.18
1561.37
1554.6
1547.86
1541.14
1534.45
1527.77
1521.1
1514.45
1507.8
1501.16
1494.52
1487.88
1481.23
1474.58
1467.92
1461.25
1454.57
1447.87
1441.15
1434.41
1427.66
1420.88
1414.08
1407.25
1400.4
1393.53
1386.63
1379.7
1372.76
1365.79
1358.8
1351.79
1344.76
1337.72
1330.67
1323.6
1316.53
1309.46
1302.38
1295.3
1288.23
1281.16
1274.11
1267.07
1260.04
1253.04
1246.06
1239.1
1232.17
1225.28
1218.41
1211.58
1204.78
1198.01
1191.29
1184.6
1177.94
1171.33
1164.74
1744.7
1740.01
1735.32
1730.61
1725.89
1721.15
1716.4
1711.62
1706.83
1702.01
1697.17
1692.3
1687.39
1682.45
1677.48
1672.46
1667.4
1662.29
1657.13
1651.92
1646.65
1641.32
1635.91
1630.44
1624.89
1619.25
1613.52
1607.7
1601.78
1595.74
1589.59
1583.31
1576.89
1570.32
1563.6
1556.77
1549.94
1543.16
1536.43
1529.75
1523.11
1516.5
1509.93
1503.38
1496.86
1490.35
1483.87
1477.39
1470.93
1464.47
1458.02
1451.58
1445.13
1438.67
1432.21
1425.75
1419.27
1412.78
1406.27
1399.75
1393.21
1386.65
1380.07
1373.46
1366.84
1360.19
1353.52
1346.82
1340.11
1333.37
1326.61
1319.83
1313.03
1306.22
1299.39
1292.55
1285.71
1278.85
1272
1265.14
1258.28
1251.43
1244.59
1237.76
1230.94
1224.15
1217.37
1210.61
1203.88
1197.17
1190.5
1183.85
1177.24
1170.66
1164.12
1157.61
1151.14
1144.7
1138.3
1131.93
1694.56
1690
1685.44
1680.87
1676.28
1671.68
1667.07
1662.43
1657.78
1653.1
1648.39
1643.66
1638.9
1634.1
1629.27
1624.39
1619.48
1614.52
1609.51
1604.45
1599.33
1594.15
1588.9
1583.58
1578.19
1572.71
1567.15
1561.5
1555.74
1549.88
1543.91
1537.81
1531.57
1525.2
1518.67
1512.03
1505.39
1498.81
1492.28
1485.79
1479.34
1472.92
1466.53
1460.18
1453.84
1447.52
1441.22
1434.93
1428.66
1422.39
1416.12
1409.86
1403.6
1397.33
1391.06
1384.78
1378.49
1372.18
1365.87
1359.53
1353.18
1346.81
1340.43
1334.02
1327.58
1321.13
1314.66
1308.16
1301.64
1295.1
1288.55
1281.97
1275.38
1268.77
1262.15
1255.52
1248.89
1242.25
1235.6
1228.96
1222.32
1215.69
1209.06
1202.45
1195.85
1189.27
1182.71
1176.17
1169.66
1163.17
1156.71
1150.28
1143.89
1137.53
1131.2
1124.9
1118.64
1112.42
1106.23
1100.07
1645.85
1641.43
1637
1632.56
1628.11
1623.64
1619.16
1614.65
1610.13
1605.59
1601.02
1596.42
1591.79
1587.14
1582.44
1577.71
1572.94
1568.12
1563.25
1558.34
1553.36
1548.33
1543.23
1538.07
1532.83
1527.52
1522.11
1516.62
1511.03
1505.34
1499.53
1493.61
1487.56
1481.36
1475.02
1468.57
1462.13
1455.74
1449.39
1443.09
1436.82
1430.59
1424.39
1418.21
1412.06
1405.92
1399.8
1393.69
1387.6
1381.51
1375.42
1369.34
1363.26
1357.17
1351.08
1344.98
1338.87
1332.75
1326.62
1320.47
1314.3
1308.12
1301.92
1295.69
1289.45
1283.19
1276.91
1270.6
1264.28
1257.93
1251.57
1245.19
1238.8
1232.39
1225.97
1219.55
1213.11
1206.68
1200.25
1193.81
1187.38
1180.96
1174.55
1168.15
1161.76
1155.39
1149.04
1142.72
1136.41
1130.14
1123.89
1117.68
1111.49
1105.34
1099.22
1093.13
1087.08
1081.06
1075.07
1069.12
1598.54
1594.25
1589.95
1585.64
1581.31
1576.97
1572.62
1568.25
1563.85
1559.44
1555
1550.54
1546.04
1541.52
1536.96
1532.36
1527.73
1523.05
1518.32
1513.55
1508.72
1503.83
1498.88
1493.86
1488.78
1483.61
1478.37
1473.03
1467.6
1462.08
1456.44
1450.68
1444.8
1438.79
1432.63
1426.37
1420.11
1413.9
1407.73
1401.61
1395.53
1389.47
1383.45
1377.45
1371.47
1365.51
1359.57
1353.64
1347.71
1341.8
1335.89
1329.98
1324.08
1318.16
1312.25
1306.32
1300.39
1294.45
1288.49
1282.52
1276.53
1270.53
1264.51
1258.47
1252.41
1246.33
1240.23
1234.11
1227.98
1221.82
1215.65
1209.46
1203.26
1197.04
1190.82
1184.59
1178.36
1172.13
1165.89
1159.66
1153.44
1147.22
1141.01
1134.82
1128.64
1122.48
1116.33
1110.21
1104.12
1098.05
1092.01
1086
1080.01
1074.07
1068.15
1062.27
1056.42
1050.6
1044.81
1039.06
1552.6
1548.43
1544.25
1540.06
1535.86
1531.65
1527.42
1523.17
1518.9
1514.62
1510.31
1505.97
1501.61
1497.21
1492.79
1488.32
1483.82
1479.27
1474.68
1470.05
1465.35
1460.61
1455.8
1450.93
1445.99
1440.97
1435.88
1430.7
1425.42
1420.05
1414.58
1408.99
1403.28
1397.43
1391.45
1385.37
1379.29
1373.26
1367.27
1361.32
1355.41
1349.53
1343.68
1337.85
1332.05
1326.26
1320.49
1314.72
1308.97
1303.23
1297.49
1291.75
1286.01
1280.27
1274.53
1268.77
1263.01
1257.24
1251.45
1245.66
1239.84
1234.01
1228.17
1222.31
1216.42
1210.52
1204.6
1198.67
1192.71
1186.74
1180.75
1174.75
1168.73
1162.7
1156.67
1150.63
1144.59
1138.55
1132.52
1126.48
1120.46
1114.44
1108.43
1102.44
1096.46
1090.5
1084.55
1078.63
1072.74
1066.87
1061.03
1055.22
1049.43
1043.68
1037.97
1032.28
1026.63
1021
1015.41
1009.85
1512.01
1507.97
1503.92
1499.86
1495.79
1491.71
1487.62
1483.51
1479.39
1475.25
1471.08
1466.9
1462.69
1458.45
1454.18
1449.88
1445.54
1441.17
1436.76
1432.3
1427.79
1423.24
1418.63
1413.96
1409.22
1404.42
1399.55
1394.6
1389.57
1384.45
1379.24
1373.92
1368.49
1362.94
1357.27
1351.46
1345.55
1339.65
1333.79
1327.97
1322.2
1316.45
1310.74
1305.05
1299.39
1293.75
1288.13
1282.52
1276.93
1271.34
1265.76
1260.19
1254.61
1249.04
1243.46
1237.88
1232.3
1226.7
1221.09
1215.48
1209.85
1204.2
1198.54
1192.87
1187.18
1181.47
1175.74
1169.99
1164.23
1158.45
1152.66
1146.85
1141.02
1135.19
1129.34
1123.48
1117.63
1111.78
1105.93
1100.09
1094.25
1088.42
1082.59
1076.78
1070.97
1065.19
1059.42
1053.67
1047.95
1042.25
1036.57
1030.93
1025.31
1019.72
1014.16
1008.64
1003.14
997.682
992.251
986.852
981.483
1468.55
1464.62
1460.69
1456.74
1452.79
1448.83
1444.86
1440.87
1436.86
1432.84
1428.8
1424.73
1420.64
1416.53
1412.38
1408.2
1403.99
1399.74
1395.46
1391.13
1386.75
1382.33
1377.85
1373.31
1368.72
1364.06
1359.32
1354.52
1349.64
1344.67
1339.61
1334.45
1329.18
1323.79
1318.29
1312.65
1306.91
1301.18
1295.49
1289.84
1284.23
1278.65
1273.09
1267.57
1262.06
1256.57
1251.1
1245.65
1240.21
1234.79
1229.37
1223.95
1218.54
1213.12
1207.71
1202.29
1196.86
1191.43
1185.98
1180.53
1175.06
1169.58
1164.08
1158.57
1153.05
1147.5
1141.95
1136.37
1130.78
1125.17
1119.55
1113.91
1108.26
1102.6
1096.92
1091.24
1085.57
1079.9
1074.24
1068.58
1062.93
1057.28
1051.64
1046.02
1040.4
1034.81
1029.23
1023.67
1018.13
1012.62
1007.14
1001.68
996.247
990.847
985.477
980.139
974.832
969.556
964.312
959.098
953.914
1426.33
1422.52
1418.7
1414.87
1411.03
1407.18
1403.32
1399.45
1395.56
1391.65
1387.73
1383.78
1379.8
1375.81
1371.78
1367.72
1363.63
1359.51
1355.34
1351.14
1346.9
1342.61
1338.26
1333.86
1329.41
1324.88
1320.29
1315.63
1310.89
1306.06
1301.15
1296.13
1291.02
1285.79
1280.44
1274.96
1269.39
1263.82
1258.29
1252.81
1247.35
1241.93
1236.54
1231.16
1225.81
1220.48
1215.15
1209.84
1204.55
1199.28
1194.01
1188.75
1183.49
1178.24
1172.97
1167.71
1162.44
1157.16
1151.87
1146.57
1141.26
1135.94
1130.61
1125.26
1119.89
1114.51
1109.11
1103.7
1098.28
1092.84
1087.38
1081.91
1076.42
1070.93
1065.43
1059.92
1054.41
1048.92
1043.43
1037.96
1032.49
1027.02
1021.57
1016.12
1010.69
1005.28
999.885
994.509
989.156
983.828
978.525
973.249
968.002
962.785
957.597
952.441
947.316
942.221
937.158
932.125
1385.33
1381.62
1377.91
1374.2
1370.47
1366.73
1362.98
1359.22
1355.44
1351.65
1347.84
1344.01
1340.16
1336.28
1332.37
1328.44
1324.47
1320.47
1316.43
1312.35
1308.23
1304.06
1299.84
1295.57
1291.24
1286.85
1282.39
1277.86
1273.25
1268.57
1263.79
1258.92
1253.95
1248.87
1243.67
1238.35
1232.94
1227.53
1222.16
1216.83