/*--------------------------------*- C++ -*----------------------------------*\
  =========                 |
  \\      /  F ield         | OpenFOAM: The Open Source CFD Toolbox
   \\    /   O peration     | Website:  https://openfoam.org
    \\  /    A nd           | Version:  10
     \\/     M anipulation  |
\*---------------------------------------------------------------------------*/
FoamFile
{
    format      ascii;
    class       surfaceScalarField;
    location    "51000";
    object      phi;
}
// * * * * * * * * * * * * * * * * * * * * * * * * * * * * * * * * * * * * * //

dimensions      [0 3 -1 0 0 0 0];

internalField   nonuniform List<scalar> 
35539
(
6.69949e-09
4.09663e-05
-4.09662e-05
6.6638e-09
4.14215e-05
-4.14215e-05
6.63124e-09
4.18776e-05
-4.18776e-05
6.6091e-09
4.23344e-05
-4.23344e-05
6.59618e-09
4.27916e-05
-4.27916e-05
6.58631e-09
4.32489e-05
-4.32489e-05
6.58678e-09
4.37061e-05
-4.37061e-05
6.59609e-09
4.41629e-05
-4.41629e-05
6.60814e-09
4.46189e-05
-4.4619e-05
6.62554e-09
4.50739e-05
-4.50739e-05
6.65122e-09
4.55275e-05
-4.55275e-05
6.68303e-09
4.59793e-05
-4.59794e-05
6.72147e-09
4.6429e-05
-4.6429e-05
6.76026e-09
4.6876e-05
-4.68761e-05
6.80598e-09
4.73201e-05
-4.73201e-05
6.8543e-09
4.77607e-05
-4.77607e-05
6.90748e-09
4.81973e-05
-4.81973e-05
6.9609e-09
4.86294e-05
-4.86294e-05
7.01642e-09
4.90565e-05
-4.90565e-05
7.07162e-09
4.94779e-05
-4.9478e-05
7.12591e-09
4.98932e-05
-4.98932e-05
7.18003e-09
5.03015e-05
-5.03015e-05
7.22731e-09
5.07022e-05
-5.07023e-05
7.2702e-09
5.10946e-05
-5.10946e-05
7.30533e-09
5.14779e-05
-5.14779e-05
7.33442e-09
5.18511e-05
-5.18512e-05
7.3475e-09
5.22136e-05
-5.22136e-05
7.34553e-09
5.25641e-05
-5.25641e-05
7.32722e-09
5.19905e-05
-5.19905e-05
7.28645e-09
5.05321e-05
-5.0532e-05
7.22723e-09
4.91188e-05
-4.91187e-05
7.14093e-09
4.7749e-05
-4.77489e-05
7.02982e-09
4.64211e-05
-4.6421e-05
6.89131e-09
4.51336e-05
-4.51334e-05
6.72625e-09
4.3885e-05
-4.38849e-05
6.53233e-09
4.2674e-05
-4.26738e-05
6.31114e-09
4.14993e-05
-4.14991e-05
6.05903e-09
4.03596e-05
-4.03593e-05
5.77658e-09
3.92536e-05
-3.92533e-05
5.46619e-09
3.81803e-05
-3.818e-05
5.12536e-09
3.71385e-05
-3.71381e-05
4.7571e-09
3.61271e-05
-3.61267e-05
4.35952e-09
3.51451e-05
-3.51447e-05
3.93727e-09
3.41916e-05
-3.41912e-05
3.49205e-09
3.32655e-05
-3.32651e-05
3.02068e-09
3.2366e-05
-3.23656e-05
2.52312e-09
3.14922e-05
-3.14917e-05
2.0069e-09
3.06432e-05
-3.06427e-05
1.46721e-09
2.98183e-05
-2.98177e-05
9.09623e-10
2.90165e-05
-2.90159e-05
3.28919e-10
2.82372e-05
-2.82366e-05
-2.71185e-10
2.74797e-05
-2.74791e-05
-8.93189e-10
2.67432e-05
-2.67426e-05
-1.53937e-09
2.60271e-05
-2.60264e-05
-2.20221e-09
2.53307e-05
-2.533e-05
-2.88996e-09
2.46534e-05
-2.46527e-05
-3.59791e-09
2.39946e-05
-2.39939e-05
-4.32574e-09
2.33538e-05
-2.33531e-05
-5.0785e-09
2.27304e-05
-2.27297e-05
-5.85321e-09
2.2124e-05
-2.21232e-05
-6.65057e-09
2.15339e-05
-2.15331e-05
-7.47199e-09
2.09597e-05
-2.09589e-05
-8.31479e-09
2.0401e-05
-2.04001e-05
-9.18572e-09
1.98573e-05
-1.98564e-05
-1.00801e-08
1.93282e-05
-1.93273e-05
-1.10052e-08
1.88133e-05
-1.88123e-05
-1.19574e-08
1.83122e-05
-1.83112e-05
-1.29403e-08
1.78246e-05
-1.78236e-05
-1.39609e-08
1.735e-05
-1.7349e-05
-1.50155e-08
1.68883e-05
-1.68873e-05
-1.61099e-08
1.6439e-05
-1.64379e-05
-1.72397e-08
1.60019e-05
-1.60008e-05
-1.84119e-08
1.55766e-05
-1.55754e-05
-1.96214e-08
1.51629e-05
-1.51617e-05
-2.08676e-08
1.47605e-05
-1.47592e-05
-2.21519e-08
1.43691e-05
-1.43678e-05
-2.34661e-08
1.39884e-05
-1.39871e-05
-2.48085e-08
1.36182e-05
-1.36169e-05
-2.61765e-08
1.32583e-05
-1.32569e-05
-2.75647e-08
1.29083e-05
-1.29069e-05
-2.89675e-08
1.25681e-05
-1.25667e-05
-3.038e-08
1.22373e-05
-1.22359e-05
-3.17977e-08
1.19158e-05
-1.19144e-05
-3.32104e-08
1.16033e-05
-1.16019e-05
-3.46164e-08
1.12995e-05
-1.12981e-05
-3.6007e-08
1.10042e-05
-1.10029e-05
-3.73736e-08
1.07173e-05
-1.07159e-05
-3.87113e-08
1.04384e-05
-1.04371e-05
-4.00123e-08
1.01673e-05
-1.0166e-05
-4.12677e-08
9.90389e-06
-9.90263e-06
-4.24736e-08
9.64784e-06
-9.64663e-06
-4.36208e-08
9.39896e-06
-9.39782e-06
9.15705e-06
-9.15596e-06
6.81336e-09
4.09663e-05
6.7718e-09
4.14215e-05
6.73786e-09
4.18777e-05
6.71081e-09
4.23344e-05
6.69314e-09
4.27916e-05
6.68338e-09
4.32489e-05
6.68197e-09
4.37061e-05
6.68271e-09
4.41629e-05
6.69498e-09
4.46189e-05
6.71274e-09
4.50739e-05
6.738e-09
4.55275e-05
6.76686e-09
4.59793e-05
6.79963e-09
4.64289e-05
6.83628e-09
4.6876e-05
6.88119e-09
4.732e-05
6.92772e-09
4.77606e-05
6.97784e-09
4.81972e-05
7.0312e-09
4.86293e-05
7.08323e-09
4.90564e-05
7.13536e-09
4.94779e-05
7.1886e-09
4.98931e-05
7.23632e-09
5.03014e-05
7.28482e-09
5.07022e-05
7.32692e-09
5.10946e-05
7.35863e-09
5.14778e-05
7.38198e-09
5.18511e-05
7.39249e-09
5.22135e-05
7.38889e-09
5.25641e-05
7.36467e-09
5.19905e-05
7.31836e-09
5.05321e-05
7.2519e-09
4.91188e-05
7.16194e-09
4.77491e-05
7.04716e-09
4.64212e-05
6.90627e-09
4.51337e-05
6.73505e-09
4.38852e-05
6.53635e-09
4.26742e-05
6.30457e-09
4.14995e-05
6.04503e-09
4.03598e-05
5.75789e-09
3.92539e-05
5.44047e-09
3.81806e-05
5.09372e-09
3.71388e-05
4.72053e-09
3.61275e-05
4.31731e-09
3.51455e-05
3.89057e-09
3.4192e-05
3.4368e-09
3.3266e-05
2.96258e-09
3.23665e-05
2.46468e-09
3.14927e-05
1.94452e-09
3.06438e-05
1.40638e-09
2.98188e-05
8.45079e-10
2.90171e-05
2.63374e-10
2.82378e-05
-3.38346e-10
2.74803e-05
-9.59166e-10
2.67438e-05
-1.596e-09
2.60277e-05
-2.25558e-09
2.53313e-05
-2.93463e-09
2.46541e-05
-3.63425e-09
2.39953e-05
-4.3541e-09
2.33545e-05
-5.09507e-09
2.27312e-05
-5.85693e-09
2.21247e-05
-6.641e-09
2.15346e-05
-7.44454e-09
2.09605e-05
-8.27434e-09
2.04018e-05
-9.12565e-09
1.98581e-05
-1.00033e-08
1.9329e-05
-1.09082e-08
1.88142e-05
-1.18406e-08
1.83131e-05
-1.28071e-08
1.78255e-05
-1.38056e-08
1.7351e-05
-1.484e-08
1.68893e-05
-1.59111e-08
1.64401e-05
-1.70242e-08
1.6003e-05
-1.81715e-08
1.55778e-05
-1.93575e-08
1.51641e-05
-2.05813e-08
1.47617e-05
-2.18363e-08
1.43703e-05
-2.31236e-08
1.39897e-05
-2.44387e-08
1.36195e-05
-2.57769e-08
1.32596e-05
-2.71329e-08
1.29097e-05
-2.85031e-08
1.25695e-05
-2.98806e-08
1.22387e-05
-3.12596e-08
1.19172e-05
-3.26358e-08
1.16046e-05
-3.40009e-08
1.13009e-05
-3.53497e-08
1.10056e-05
-3.66737e-08
1.07186e-05
-3.79684e-08
1.04397e-05
-3.92241e-08
1.01686e-05
-4.04366e-08
9.9051e-06
-4.15973e-08
9.649e-06
-4.27e-08
9.40007e-06
9.15809e-06
6.91712e-09
4.09664e-05
6.87389e-09
4.14216e-05
6.83937e-09
4.18777e-05
6.81107e-09
4.23344e-05
6.78775e-09
4.27916e-05
6.77893e-09
4.32489e-05
6.77371e-09
4.37061e-05
6.77464e-09
4.41629e-05
6.78437e-09
4.46189e-05
6.7941e-09
4.50739e-05
6.81753e-09
4.55275e-05
6.8458e-09
4.59793e-05
6.87455e-09
4.64289e-05
6.91251e-09
4.6876e-05
6.95515e-09
4.732e-05
6.99779e-09
4.77606e-05
7.04673e-09
4.81972e-05
7.09494e-09
4.86293e-05
7.14623e-09
4.90564e-05
7.19928e-09
4.94778e-05
7.24748e-09
4.98931e-05
7.29539e-09
5.03014e-05
7.33783e-09
5.07021e-05
7.37506e-09
5.10945e-05
7.40497e-09
5.14778e-05
7.42533e-09
5.18511e-05
7.43316e-09
5.22135e-05
7.42565e-09
5.25641e-05
7.39541e-09
5.19906e-05
7.34927e-09
5.05322e-05
7.27821e-09
4.91189e-05
7.18232e-09
4.77492e-05
7.05841e-09
4.64213e-05
6.9089e-09
4.51339e-05
6.73263e-09
4.38854e-05
6.52562e-09
4.26744e-05
6.29235e-09
4.14998e-05
6.02961e-09
4.03601e-05
5.73253e-09
3.92542e-05
5.41008e-09
3.81809e-05
5.05813e-09
3.71392e-05
4.67787e-09
3.61278e-05
4.27235e-09
3.51459e-05
3.83969e-09
3.41925e-05
3.38339e-09
3.32664e-05
2.90628e-09
3.2367e-05
2.40518e-09
3.14932e-05
1.88334e-09
3.06443e-05
1.3416e-09
2.98193e-05
7.80048e-10
2.90176e-05
2.03658e-10
2.82384e-05
-3.94071e-10
2.74809e-05
-1.00976e-09
2.67444e-05
-1.64408e-09
2.60283e-05
-2.29549e-09
2.5332e-05
-2.96765e-09
2.46547e-05
-3.65615e-09
2.3996e-05
-4.36602e-09
2.33553e-05
-5.0932e-09
2.27319e-05
-5.83879e-09
2.21255e-05
-6.60417e-09
2.15354e-05
-7.39225e-09
2.09613e-05
-8.20086e-09
2.04026e-05
-9.03319e-09
1.98589e-05
-9.89171e-09
1.93299e-05
-1.07738e-08
1.8815e-05
-1.16874e-08
1.8314e-05
-1.26293e-08
1.78265e-05
-1.36048e-08
1.7352e-05
-1.46177e-08
1.68904e-05
-1.56664e-08
1.64411e-05
-1.67511e-08
1.60041e-05
-1.78748e-08
1.55789e-05
-1.9035e-08
1.51652e-05
-2.02293e-08
1.47629e-05
-2.1458e-08
1.43715e-05
-2.27141e-08
1.39909e-05
-2.39979e-08
1.36208e-05
-2.53011e-08
1.32609e-05
-2.66217e-08
1.2911e-05
-2.79542e-08
1.25708e-05
-2.92947e-08
1.224e-05
-3.06356e-08
1.19185e-05
-3.19692e-08
1.1606e-05
-3.32929e-08
1.13022e-05
-3.45985e-08
1.10069e-05
-3.588e-08
1.07199e-05
-3.71289e-08
1.04409e-05
-3.83412e-08
1.01698e-05
-3.95096e-08
9.90627e-06
-4.06273e-08
9.65012e-06
-4.16876e-08
9.40113e-06
9.15909e-06
7.02576e-09
4.09664e-05
6.97798e-09
4.14216e-05
6.93813e-09
4.18777e-05
6.90678e-09
4.23345e-05
6.88427e-09
4.27916e-05
6.86661e-09
4.32489e-05
6.85604e-09
4.37061e-05
6.85753e-09
4.41629e-05
6.86234e-09
4.46189e-05
6.87697e-09
4.50739e-05
6.89506e-09
4.55275e-05
6.91654e-09
4.59793e-05
6.94989e-09
4.64289e-05
6.98619e-09
4.68759e-05
7.02095e-09
4.732e-05
7.06477e-09
4.77605e-05
7.11006e-09
4.81971e-05
7.15673e-09
4.86292e-05
7.20544e-09
4.90563e-05
7.25387e-09
4.94778e-05
7.30047e-09
4.9893e-05
7.3458e-09
5.03013e-05
7.38666e-09
5.07021e-05
7.42069e-09
5.10945e-05
7.44811e-09
5.14778e-05
7.46413e-09
5.18511e-05
7.46786e-09
5.22135e-05
7.45222e-09
5.25642e-05
7.41907e-09
5.19906e-05
7.36604e-09
5.05322e-05
7.2893e-09
4.9119e-05
7.1871e-09
4.77493e-05
7.06143e-09
4.64214e-05
6.9075e-09
4.5134e-05
6.72747e-09
4.38856e-05
6.51369e-09
4.26747e-05
6.27285e-09
4.15e-05
6.00284e-09
4.03604e-05
5.70228e-09
3.92545e-05
5.37343e-09
3.81812e-05
5.0157e-09
3.71395e-05
4.63165e-09
3.61282e-05
4.22078e-09
3.51463e-05
3.78509e-09
3.41929e-05
3.32877e-09
3.32669e-05
2.84575e-09
3.23675e-05
2.34554e-09
3.14937e-05
1.82296e-09
3.06448e-05
1.28272e-09
2.98199e-05
7.24038e-10
2.90182e-05
1.46768e-10
2.8239e-05
-4.45689e-10
2.74815e-05
-1.05401e-09
2.6745e-05
-1.68231e-09
2.6029e-05
-2.3255e-09
2.53326e-05
-2.98486e-09
2.46554e-05
-3.66287e-09
2.39967e-05
-4.3553e-09
2.3356e-05
-5.06599e-09
2.27326e-05
-5.79637e-09
2.21262e-05
-6.54266e-09
2.15362e-05
-7.31055e-09
2.0962e-05
-8.09933e-09
2.04034e-05
-8.90877e-09
1.98597e-05
-9.74133e-09
1.93307e-05
-1.06012e-08
1.88159e-05
-1.14887e-08
1.83149e-05
-1.24083e-08
1.78274e-05
-1.3359e-08
1.7353e-05
-1.43435e-08
1.68913e-05
-1.5365e-08
1.64422e-05
-1.64224e-08
1.60051e-05
-1.75176e-08
1.558e-05
-1.86463e-08
1.51664e-05
-1.98101e-08
1.47641e-05
-2.10047e-08
1.43727e-05
-2.22286e-08
1.39922e-05
-2.34741e-08
1.36221e-05
-2.47421e-08
1.32622e-05
-2.60273e-08
1.29123e-05
-2.73208e-08
1.25721e-05
-2.86198e-08
1.22413e-05
-2.9917e-08
1.19198e-05
-3.12115e-08
1.16073e-05
-3.24909e-08
1.13035e-05
-3.37518e-08
1.10082e-05
-3.49884e-08
1.07211e-05
-3.61937e-08
1.04421e-05
-3.73617e-08
1.0171e-05
-3.84848e-08
9.90739e-06
-3.95598e-08
9.65119e-06
-4.05802e-08
9.40215e-06
9.16004e-06
7.1278e-09
4.09665e-05
7.07685e-09
4.14217e-05
7.03334e-09
4.18778e-05
7.00185e-09
4.23345e-05
6.97585e-09
4.27917e-05
6.95536e-09
4.3249e-05
6.94565e-09
4.37061e-05
6.93949e-09
4.41629e-05
6.94154e-09
4.46189e-05
6.95417e-09
4.50739e-05
6.96815e-09
4.55274e-05
6.99225e-09
4.59792e-05
7.01725e-09
4.64289e-05
7.04742e-09
4.68759e-05
7.08658e-09
4.73199e-05
7.12506e-09
4.77605e-05
7.16678e-09
4.81971e-05
7.21303e-09
4.86292e-05
7.25673e-09
4.90563e-05
7.30237e-09
4.94777e-05
7.34695e-09
4.9893e-05
7.38901e-09
5.03013e-05
7.42834e-09
5.0702e-05
7.45725e-09
5.10945e-05
7.48306e-09
5.14777e-05
7.49529e-09
5.18511e-05
7.49097e-09
5.22135e-05
7.47382e-09
5.25642e-05
7.43902e-09
5.19906e-05
7.37895e-09
5.05323e-05
7.29709e-09
4.91191e-05
7.19156e-09
4.77494e-05
7.06048e-09
4.64216e-05
6.89888e-09
4.51342e-05
6.70929e-09
4.38857e-05
6.49586e-09
4.26749e-05
6.24778e-09
4.15003e-05
5.97183e-09
4.03606e-05
5.66799e-09
3.92548e-05
5.33187e-09
3.81816e-05
4.9709e-09
3.71399e-05
4.5828e-09
3.61286e-05
4.16914e-09
3.51468e-05
3.7311e-09
3.41933e-05
3.26711e-09
3.32674e-05
2.78684e-09
3.2368e-05
2.28353e-09
3.14942e-05
1.76362e-09
3.06453e-05
1.22522e-09
2.98204e-05
6.69368e-10
2.90187e-05
9.98568e-11
2.82395e-05
-4.88273e-10
2.74821e-05
-1.09141e-09
2.67456e-05
-1.70621e-09
2.60296e-05
-2.33958e-09
2.53332e-05
-2.98555e-09
2.4656e-05
-3.64652e-09
2.39974e-05
-4.32392e-09
2.33566e-05
-5.01771e-09
2.27333e-05
-5.72674e-09
2.21269e-05
-6.45539e-09
2.15369e-05
-7.19764e-09
2.09628e-05
-7.96106e-09
2.04041e-05
-8.74546e-09
1.98605e-05
-9.55373e-09
1.93315e-05
-1.03875e-08
1.88167e-05
-1.12473e-08
1.83158e-05
-1.21376e-08
1.78283e-05
-1.30588e-08
1.73539e-05
-1.40158e-08
1.68923e-05
-1.50072e-08
1.64432e-05
-1.6033e-08
1.60062e-05
-1.70946e-08
1.5581e-05
-1.8191e-08
1.51675e-05
-1.93205e-08
1.47652e-05
-2.04792e-08
1.43739e-05
-2.16644e-08
1.39934e-05
-2.28756e-08
1.36233e-05
-2.41032e-08
1.32634e-05
-2.53444e-08
1.29135e-05
-2.6598e-08
1.25733e-05
-2.78539e-08
1.22426e-05
-2.91093e-08
1.19211e-05
-3.03566e-08
1.16085e-05
-3.15918e-08
1.13047e-05
-3.28072e-08
1.10094e-05
-3.39983e-08
1.07223e-05
-3.51585e-08
1.04433e-05
-3.62826e-08
1.01721e-05
-3.73642e-08
9.90848e-06
-3.83984e-08
9.65223e-06
-3.93784e-08
9.40313e-06
9.16097e-06
7.22358e-09
4.09666e-05
7.17217e-09
4.14217e-05
7.12401e-09
4.18778e-05
7.08658e-09
4.23345e-05
7.05761e-09
4.27917e-05
7.03696e-09
4.3249e-05
7.02264e-09
4.37061e-05
7.01895e-09
4.41629e-05
7.01676e-09
4.46189e-05
7.02497e-09
4.50739e-05
7.03655e-09
4.55274e-05
7.05325e-09
4.59792e-05
7.07925e-09
4.64288e-05
7.10926e-09
4.68759e-05
7.14254e-09
4.73199e-05
7.18099e-09
4.77605e-05
7.22146e-09
4.8197e-05
7.2603e-09
4.86292e-05
7.30514e-09
4.90562e-05
7.34864e-09
4.94777e-05
7.39064e-09
4.98929e-05
7.42978e-09
5.03013e-05
7.46014e-09
5.0702e-05
7.48925e-09
5.10944e-05
7.50854e-09
5.14777e-05
7.51524e-09
5.18511e-05
7.51156e-09
5.22135e-05
7.49006e-09
5.25642e-05
7.44673e-09
5.19907e-05
7.38293e-09
5.05323e-05
7.29615e-09
4.91192e-05
7.18446e-09
4.77495e-05
7.04427e-09
4.64217e-05
6.88094e-09
4.51343e-05
6.68801e-09
4.38859e-05
6.46293e-09
4.26751e-05
6.21516e-09
4.15005e-05
5.93093e-09
4.03609e-05
5.62222e-09
3.92551e-05
5.28437e-09
3.81819e-05
4.91822e-09
3.71402e-05
4.52653e-09
3.6129e-05
4.11054e-09
3.51472e-05
3.67157e-09
3.41938e-05
3.20975e-09
3.32678e-05
2.72634e-09
3.23684e-05
2.22794e-09
3.14947e-05
1.7078e-09
3.06458e-05
1.17204e-09
2.9821e-05
6.24676e-10
2.90193e-05
5.7596e-11
2.82401e-05
-5.19278e-10
2.74826e-05
-1.11153e-09
2.67462e-05
-1.7186e-09
2.60302e-05
-2.33557e-09
2.53339e-05
-2.96677e-09
2.46567e-05
-3.61191e-09
2.3998e-05
-4.27089e-09
2.33573e-05
-4.94281e-09
2.2734e-05
-5.62898e-09
2.21276e-05
-6.33043e-09
2.15376e-05
-7.05174e-09
2.09635e-05
-7.78745e-09
2.04049e-05
-8.5457e-09
1.98613e-05
-9.32539e-09
1.93323e-05
-1.01271e-08
1.88175e-05
-1.09569e-08
1.83166e-05
-1.18165e-08
1.78291e-05
-1.27076e-08
1.73548e-05
-1.36292e-08
1.68932e-05
-1.45857e-08
1.64441e-05
-1.55783e-08
1.60072e-05
-1.66051e-08
1.55821e-05
-1.76657e-08
1.51685e-05
-1.87555e-08
1.47663e-05
-1.98739e-08
1.4375e-05
-2.10207e-08
1.39945e-05
-2.21883e-08
1.36245e-05
-2.33754e-08
1.32646e-05
-2.45736e-08
1.29147e-05
-2.57809e-08
1.25745e-05
-2.69916e-08
1.22438e-05
-2.82009e-08
1.19223e-05
-2.94028e-08
1.16097e-05
-3.0591e-08
1.13059e-05
-3.17619e-08
1.10105e-05
-3.29087e-08
1.07235e-05
-3.40236e-08
1.04444e-05
-3.51035e-08
1.01732e-05
-3.61438e-08
9.90952e-06
-3.71371e-08
9.65322e-06
-3.8083e-08
9.40407e-06
9.16186e-06
7.31819e-09
4.09666e-05
7.2594e-09
4.14218e-05
7.21141e-09
4.18779e-05
7.16963e-09
4.23346e-05
7.13847e-09
4.27917e-05
7.11581e-09
4.3249e-05
7.09874e-09
4.37062e-05
7.08548e-09
4.41629e-05
7.08645e-09
4.46189e-05
7.08796e-09
4.50739e-05
7.10078e-09
4.55274e-05
7.11976e-09
4.59792e-05
7.1401e-09
4.64288e-05
7.16734e-09
4.68758e-05
7.19659e-09
4.73199e-05
7.22891e-09
4.77604e-05
7.26525e-09
4.8197e-05
7.30662e-09
4.86291e-05
7.34738e-09
4.90562e-05
7.38379e-09
4.94777e-05
7.42247e-09
4.98929e-05
7.45555e-09
5.03012e-05
7.48835e-09
5.0702e-05
7.51473e-09
5.10944e-05
7.5259e-09
5.14777e-05
7.53234e-09
5.18511e-05
7.52275e-09
5.22135e-05
7.495e-09
5.25642e-05
7.44719e-09
5.19907e-05
7.37864e-09
5.05324e-05
7.28695e-09
4.91193e-05
7.16971e-09
4.77496e-05
7.02679e-09
4.64219e-05
6.855e-09
4.51345e-05
6.65612e-09
4.38861e-05
6.43077e-09
4.26753e-05
6.17183e-09
4.15008e-05
5.887e-09
4.03612e-05
5.57328e-09
3.92554e-05
5.23121e-09
3.81823e-05
4.86447e-09
3.71406e-05
4.46934e-09
3.61294e-05
4.05183e-09
3.51476e-05
3.61031e-09
3.41942e-05
3.15087e-09
3.32683e-05
2.66885e-09
3.23689e-05
2.16878e-09
3.14952e-05
1.65534e-09
3.06464e-05
1.12791e-09
2.98215e-05
5.83189e-10
2.90198e-05
2.66589e-11
2.82406e-05
-5.41013e-10
2.74832e-05
-1.12071e-09
2.67468e-05
-1.71173e-09
2.60308e-05
-2.31423e-09
2.53345e-05
-2.93032e-09
2.46573e-05
-3.55335e-09
2.39986e-05
-4.18896e-09
2.33579e-05
-4.83865e-09
2.27346e-05
-5.49916e-09
2.21282e-05
-6.17649e-09
2.15383e-05
-6.86517e-09
2.09642e-05
-7.57437e-09
2.04056e-05
-8.30056e-09
1.9862e-05
-9.0469e-09
1.93331e-05
-9.81819e-09
1.88183e-05
-1.06162e-08
1.83174e-05
-1.14394e-08
1.783e-05
-1.22946e-08
1.73556e-05
-1.31805e-08
1.68941e-05
-1.41004e-08
1.6445e-05
-1.50544e-08
1.60081e-05
-1.60417e-08
1.55831e-05
-1.70597e-08
1.51695e-05
-1.81096e-08
1.47673e-05
-1.91885e-08
1.43761e-05
-2.02907e-08
1.39956e-05
-2.1412e-08
1.36256e-05
-2.25525e-08
1.32658e-05
-2.37073e-08
1.29159e-05
-2.48667e-08
1.25757e-05
-2.6032e-08
1.2245e-05
-2.7194e-08
1.19234e-05
-2.83484e-08
1.16109e-05
-2.94893e-08
1.1307e-05
-3.0614e-08
1.10117e-05
-3.17125e-08
1.07246e-05
-3.27864e-08
1.04455e-05
-3.38241e-08
1.01742e-05
-3.48244e-08
9.91052e-06
-3.57813e-08
9.65418e-06
-3.6691e-08
9.40498e-06
9.16272e-06
7.40144e-09
4.09667e-05
7.34104e-09
4.14219e-05
7.29348e-09
4.18779e-05
7.24892e-09
4.23346e-05
7.2123e-09
4.27918e-05
7.18543e-09
4.3249e-05
7.16584e-09
4.37062e-05
7.15524e-09
4.41629e-05
7.14904e-09
4.46189e-05
7.15065e-09
4.50739e-05
7.15752e-09
4.55274e-05
7.16883e-09
4.59792e-05
7.18802e-09
4.64288e-05
7.21012e-09
4.68758e-05
7.24039e-09
4.73198e-05
7.27291e-09
4.77604e-05
7.3071e-09
4.8197e-05
7.3412e-09
4.86291e-05
7.37581e-09
4.90562e-05
7.41514e-09
4.94776e-05
7.44723e-09
4.98929e-05
7.48186e-09
5.03012e-05
7.50661e-09
5.0702e-05
7.52668e-09
5.10944e-05
7.53948e-09
5.14777e-05
7.53886e-09
5.18511e-05
7.52545e-09
5.22136e-05
7.48914e-09
5.25643e-05
7.43835e-09
5.19908e-05
7.36542e-09
5.05325e-05
7.26602e-09
4.91194e-05
7.14511e-09
4.77497e-05
6.99862e-09
4.6422e-05
6.82285e-09
4.51347e-05
6.61677e-09
4.38863e-05
6.38586e-09
4.26756e-05
6.12573e-09
4.1501e-05
5.83648e-09
4.03615e-05
5.51771e-09
3.92557e-05
5.17485e-09
3.81826e-05
4.8019e-09
3.7141e-05
4.40671e-09
3.61298e-05
3.98708e-09
3.5148e-05
3.54912e-09
3.41946e-05
3.08792e-09
3.32688e-05
2.61145e-09
3.23694e-05
2.11775e-09
3.14957e-05
1.60994e-09
3.06469e-05
1.08609e-09
2.9822e-05
5.51956e-10
2.90204e-05
8.38483e-12
2.82412e-05
-5.49992e-10
2.74838e-05
-1.11502e-09
2.67474e-05
-1.68931e-09
2.60313e-05
-2.27404e-09
2.5335e-05
-2.8664e-09
2.46579e-05
-3.46908e-09
2.39992e-05
-4.08107e-09
2.33585e-05
-4.70288e-09
2.27353e-05
-5.33804e-09
2.21289e-05
-5.98078e-09
2.15389e-05
-6.64165e-09
2.09649e-05
-7.31591e-09
2.04063e-05
-8.00784e-09
1.98627e-05
-8.72089e-09
1.93338e-05
-9.45722e-09
1.8819e-05
-1.02152e-08
1.83182e-05
-1.10022e-08
1.78307e-05
-1.18186e-08
1.73565e-05
-1.26683e-08
1.6895e-05
-1.35471e-08
1.64459e-05
-1.44588e-08
1.6009e-05
-1.54017e-08
1.5584e-05
-1.63778e-08
1.51705e-05
-1.73825e-08
1.47683e-05
-1.84131e-08
1.43771e-05
-1.94686e-08
1.39967e-05
-2.05463e-08
1.36267e-05
-2.16383e-08
1.32668e-05
-2.27411e-08
1.2917e-05
-2.38552e-08
1.25768e-05
-2.49689e-08
1.22461e-05
-2.60825e-08
1.19246e-05
-2.71881e-08
1.1612e-05
-2.82827e-08
1.13081e-05
-2.93598e-08
1.10127e-05
-3.0416e-08
1.07256e-05
-3.14441e-08
1.04465e-05
-3.24411e-08
1.01752e-05
-3.34034e-08
9.91148e-06
-3.43263e-08
9.6551e-06
-3.52069e-08
9.40586e-06
9.16355e-06
7.47764e-09
4.09668e-05
7.41634e-09
4.14219e-05
7.36444e-09
4.1878e-05
7.3194e-09
4.23347e-05
7.28058e-09
4.27918e-05
7.25033e-09
4.32491e-05
7.22789e-09
4.37062e-05
7.21248e-09
4.41629e-05
7.20387e-09
4.46189e-05
7.20325e-09
4.50739e-05
7.20767e-09
4.55274e-05
7.21849e-09
4.59792e-05
7.2347e-09
4.64288e-05
7.25467e-09
4.68758e-05
7.27759e-09
4.73198e-05
7.30646e-09
4.77604e-05
7.33748e-09
4.81969e-05
7.3709e-09
4.86291e-05
7.40305e-09
4.90561e-05
7.43586e-09
4.94776e-05
7.46754e-09
4.98928e-05
7.49507e-09
5.03012e-05
7.51843e-09
5.07019e-05
7.53235e-09
5.10944e-05
7.5412e-09
5.14777e-05
7.534e-09
5.18511e-05
7.51436e-09
5.22136e-05
7.48122e-09
5.25643e-05
7.42218e-09
5.19908e-05
7.34433e-09
5.05326e-05
7.24119e-09
4.91195e-05
7.11236e-09
4.77499e-05
6.95715e-09
4.64222e-05
6.77883e-09
4.51349e-05
6.57223e-09
4.38865e-05
6.33451e-09
4.26758e-05
6.06823e-09
4.15013e-05
5.77621e-09
4.03618e-05
5.45528e-09
3.92561e-05
5.11042e-09
3.8183e-05
4.73763e-09
3.71414e-05
4.34065e-09
3.61302e-05
3.92421e-09
3.51484e-05
3.48628e-09
3.41951e-05
3.03006e-09
3.32692e-05
2.55682e-09
3.23699e-05
2.0682e-09
3.14962e-05
1.56691e-09
3.06474e-05
1.05408e-09
2.98225e-05
5.3103e-10
2.90209e-05
-1.51649e-12
2.82417e-05
-5.41471e-10
2.74843e-05
-1.09124e-09
2.67479e-05
-1.64604e-09
2.60319e-05
-2.20867e-09
2.53356e-05
-2.77751e-09
2.46584e-05
-3.35589e-09
2.39998e-05
-3.94122e-09
2.33591e-05
-4.53292e-09
2.27359e-05
-5.1349e-09
2.21295e-05
-5.74949e-09
2.15395e-05
-6.37431e-09
2.09655e-05
-7.01255e-09
2.04069e-05
-7.6688e-09
1.98634e-05
-8.34404e-09
1.93344e-05
-9.03687e-09
1.88197e-05
-9.75749e-09
1.83189e-05
-1.05038e-08
1.78315e-05
-1.12772e-08
1.73572e-05
-1.20809e-08
1.68958e-05
-1.29173e-08
1.64467e-05
-1.3783e-08
1.60099e-05
-1.46819e-08
1.55849e-05
-1.56104e-08
1.51715e-05
-1.65655e-08
1.47693e-05
-1.75504e-08
1.43781e-05
-1.85536e-08
1.39977e-05
-1.95795e-08
1.36277e-05
-2.06207e-08
1.32679e-05
-2.16759e-08
1.2918e-05
-2.27362e-08
1.25779e-05
-2.3801e-08
1.22471e-05
-2.48632e-08
1.19256e-05
-2.59199e-08
1.1613e-05
-2.69672e-08
1.13092e-05
-2.79969e-08
1.10138e-05
-2.90095e-08
1.07266e-05
-2.99959e-08
1.04475e-05
-3.09559e-08
1.01762e-05
-3.1882e-08
9.91241e-06
-3.27743e-08
9.65599e-06
-3.36262e-08
9.40671e-06
9.16436e-06
7.5504e-09
4.09668e-05
7.48708e-09
4.1422e-05
7.42664e-09
4.1878e-05
7.38039e-09
4.23347e-05
7.34076e-09
4.27918e-05
7.30698e-09
4.32491e-05
7.28126e-09
4.37062e-05
7.26474e-09
4.41629e-05
7.2541e-09
4.46189e-05
7.24897e-09
4.50739e-05
7.24773e-09
4.55274e-05
7.25833e-09
4.59792e-05
7.27031e-09
4.64288e-05
7.28771e-09
4.68758e-05
7.31007e-09
4.73198e-05
7.33408e-09
4.77603e-05
7.36032e-09
4.81969e-05
7.39083e-09
4.8629e-05
7.42146e-09
4.90561e-05
7.44832e-09
4.94776e-05
7.47649e-09
4.98928e-05
7.498e-09
5.03011e-05
7.51746e-09
5.07019e-05
7.5299e-09
5.10944e-05
7.53148e-09
5.14777e-05
7.52447e-09
5.18511e-05
7.49851e-09
5.22136e-05
7.45507e-09
5.25643e-05
7.39488e-09
5.19909e-05
7.3071e-09
5.05326e-05
7.20184e-09
4.91196e-05
7.06882e-09
4.775e-05
6.91303e-09
4.64223e-05
6.72706e-09
4.51351e-05
6.51423e-09
4.38868e-05
6.27325e-09
4.2676e-05
6.005e-09
4.15016e-05
5.7089e-09
4.03621e-05
5.38961e-09
3.92564e-05
5.03949e-09
3.81833e-05
4.66841e-09
3.71417e-05
4.27461e-09
3.61306e-05
3.85875e-09
3.51488e-05
3.4221e-09
3.41955e-05
2.9727e-09
3.32697e-05
2.50385e-09
3.23703e-05
2.02492e-09
3.14967e-05
1.53385e-09
3.06479e-05
1.03364e-09
2.9823e-05
5.23617e-10
2.90214e-05
5.91803e-12
2.82422e-05
-5.16958e-10
2.74848e-05
-1.04608e-09
2.67484e-05
-1.58155e-09
2.60324e-05
-2.12002e-09
2.53362e-05
-2.66454e-09
2.4659e-05
-3.21275e-09
2.40004e-05
-3.76541e-09
2.33597e-05
-4.3276e-09
2.27364e-05
-4.8946e-09
2.21301e-05
-5.47119e-09
2.15401e-05
-6.05876e-09
2.09661e-05
-6.65958e-09
2.04075e-05
-7.27458e-09
1.9864e-05
-7.90616e-09
1.93351e-05
-8.56076e-09
1.88204e-05
-9.23705e-09
1.83196e-05
-9.93752e-09
1.78322e-05
-1.06665e-08
1.7358e-05
-1.14242e-08
1.68965e-05
-1.22104e-08
1.64475e-05
-1.30291e-08
1.60107e-05
-1.38772e-08
1.55857e-05
-1.47524e-08
1.51723e-05
-1.56591e-08
1.47702e-05
-1.65884e-08
1.4379e-05
-1.75425e-08
1.39986e-05
-1.85153e-08
1.36287e-05
-1.95032e-08
1.32689e-05
-2.0503e-08
1.2919e-05
-2.15114e-08
1.25789e-05
-2.25241e-08
1.22482e-05
-2.35365e-08
1.19266e-05
-2.4545e-08
1.1614e-05
-2.55416e-08
1.13102e-05
-2.65274e-08
1.10148e-05
-2.74946e-08
1.07276e-05
-2.84413e-08
1.04485e-05
-2.93645e-08
1.01771e-05
-3.02591e-08
9.9133e-06
-3.11221e-08
9.65686e-06
-3.19509e-08
9.40754e-06
9.16516e-06
7.60868e-09
4.09669e-05
7.54439e-09
4.1422e-05
7.48718e-09
4.18781e-05
7.43449e-09
4.23348e-05
7.39251e-09
4.27919e-05
7.35609e-09
4.32491e-05
7.32845e-09
4.37063e-05
7.30918e-09
4.4163e-05
7.2945e-09
4.4619e-05
7.2857e-09
4.50739e-05
7.286e-09
4.55274e-05
7.28947e-09
4.59792e-05
7.29921e-09
4.64287e-05
7.31326e-09
4.68758e-05
7.33026e-09
4.73198e-05
7.35266e-09
4.77603e-05
7.37574e-09
4.81969e-05
7.3985e-09
4.8629e-05
7.42595e-09
4.90561e-05
7.44987e-09
4.94775e-05
7.47576e-09
4.98928e-05
7.49434e-09
5.03011e-05
7.50881e-09
5.07019e-05
7.51717e-09
5.10943e-05
7.51442e-09
5.14777e-05
7.49807e-09
5.18511e-05
7.47135e-09
5.22136e-05
7.42307e-09
5.25644e-05
7.35428e-09
5.1991e-05
7.26889e-09
5.05327e-05
7.15432e-09
4.91197e-05
7.01848e-09
4.77501e-05
6.85358e-09
4.64225e-05
6.66449e-09
4.51353e-05
6.449e-09
4.3887e-05
6.20442e-09
4.26763e-05
5.93618e-09
4.15018e-05
5.63865e-09
4.03624e-05
5.31324e-09
3.92567e-05
4.96669e-09
3.81836e-05
4.59652e-09
3.71421e-05
4.20319e-09
3.6131e-05
3.79103e-09
3.51493e-05
3.36151e-09
3.4196e-05
2.91571e-09
3.32701e-05
2.45826e-09
3.23708e-05
1.9873e-09
3.14972e-05
1.50724e-09
3.06483e-05
1.02083e-09
2.98235e-05
5.27167e-10
2.90219e-05
2.74166e-11
2.82427e-05
-4.76535e-10
2.74853e-05
-9.81726e-10
2.67489e-05
-1.49175e-09
2.60329e-05
-2.0026e-09
2.53367e-05
-2.51761e-09
2.46595e-05
-3.03564e-09
2.40009e-05
-3.55628e-09
2.33602e-05
-4.08058e-09
2.27369e-05
-4.6101e-09
2.21306e-05
-5.14776e-09
2.15406e-05
-5.69447e-09
2.09666e-05
-6.25234e-09
2.04081e-05
-6.82389e-09
1.98646e-05
-7.41185e-09
1.93357e-05
-8.01902e-09
1.8821e-05
-8.6468e-09
1.83202e-05
-9.3001e-09
1.78328e-05
-9.97843e-09
1.73586e-05
-1.06847e-08
1.68972e-05
-1.14214e-08
1.64483e-05
-1.21871e-08
1.60115e-05
-1.29808e-08
1.55865e-05
-1.38062e-08
1.51732e-05
-1.46543e-08
1.4771e-05
-1.55293e-08
1.43799e-05
-1.64279e-08
1.39995e-05
-1.73437e-08
1.36296e-05
-1.82778e-08
1.32698e-05
-1.9224e-08
1.292e-05
-2.01774e-08
1.25798e-05
-2.11369e-08
1.22491e-05
-2.20975e-08
1.19276e-05
-2.30538e-08
1.1615e-05
-2.4006e-08
1.13111e-05
-2.49458e-08
1.10157e-05
-2.58715e-08
1.07285e-05
-2.67803e-08
1.04494e-05
-2.76689e-08
1.0178e-05
-2.85328e-08
9.91416e-06
-2.93721e-08
9.65769e-06
-3.01819e-08
9.40835e-06
9.16593e-06
7.6614e-09
4.0967e-05
7.58938e-09
4.14221e-05
7.53055e-09
4.18781e-05
7.47974e-09
4.23348e-05
7.43143e-09
4.27919e-05
7.39617e-09
4.32492e-05
7.36584e-09
4.37063e-05
7.33932e-09
4.4163e-05
7.32468e-09
4.4619e-05
7.31346e-09
4.50739e-05
7.31081e-09
4.55274e-05
7.31069e-09
4.59792e-05
7.31805e-09
4.64287e-05
7.32878e-09
4.68758e-05
7.34107e-09
4.73198e-05
7.35922e-09
4.77603e-05
7.37894e-09
4.81969e-05
7.40357e-09
4.8629e-05
7.42299e-09
4.90561e-05
7.44656e-09
4.94775e-05
7.46307e-09
4.98928e-05
7.47951e-09
5.03011e-05
7.49026e-09
5.07019e-05
7.49017e-09
5.10943e-05
7.48438e-09
5.14777e-05
7.46505e-09
5.18511e-05
7.43091e-09
5.22137e-05
7.38079e-09
5.25644e-05
7.30812e-09
5.1991e-05
7.21203e-09
5.05328e-05
7.09618e-09
4.91198e-05
6.95407e-09
4.77503e-05
6.78836e-09
4.64227e-05
6.5943e-09
4.51354e-05
6.37613e-09
4.38872e-05
6.12956e-09
4.26765e-05
5.85578e-09
4.15021e-05
5.55706e-09
4.03627e-05
5.23672e-09
3.9257e-05
4.88794e-09
3.8184e-05
4.51955e-09
3.71425e-05
4.13214e-09
3.61314e-05
3.72362e-09
3.51497e-05
3.3014e-09
3.41964e-05
2.86363e-09
3.32705e-05
2.41475e-09
3.23713e-05
1.95766e-09
3.14976e-05
1.49224e-09
3.06488e-05
1.01898e-09
2.9824e-05
5.43678e-10
2.90224e-05
6.69986e-11
2.82432e-05
-4.13779e-10
2.74858e-05
-8.95028e-10
2.67494e-05
-1.37568e-09
2.60334e-05
-1.85998e-09
2.53371e-05
-2.34003e-09
2.466e-05
-2.82179e-09
2.40014e-05
-3.30545e-09
2.33607e-05
-3.79073e-09
2.27374e-05
-4.28229e-09
2.21311e-05
-4.7776e-09
2.15411e-05
-5.27808e-09
2.09671e-05
-5.7897e-09
2.04086e-05
-6.31315e-09
1.98651e-05
-6.85251e-09
1.93362e-05
-7.40916e-09
1.88216e-05
-7.98737e-09
1.83208e-05
-8.58727e-09
1.78334e-05
-9.21464e-09
1.73593e-05
-9.86651e-09
1.68979e-05
-1.05473e-08
1.6449e-05
-1.12557e-08
1.60122e-05
-1.19934e-08
1.55873e-05
-1.2759e-08
1.51739e-05
-1.35531e-08
1.47718e-05
-1.43692e-08
1.43807e-05
-1.52073e-08
1.40004e-05
-1.60666e-08
1.36304e-05
-1.69429e-08
1.32707e-05
-1.78318e-08
1.29209e-05
-1.87307e-08
1.25807e-05
-1.96359e-08
1.225e-05
-2.05449e-08
1.19285e-05
-2.14516e-08
1.16159e-05
-2.23549e-08
1.1312e-05
-2.32518e-08
1.10166e-05
-2.41382e-08
1.07294e-05
-2.5011e-08
1.04502e-05
-2.5867e-08
1.01788e-05
-2.67066e-08
9.915e-06
-2.75231e-08
9.65851e-06
-2.83181e-08
9.40915e-06
9.1667e-06
7.69848e-09
4.09671e-05
7.63047e-09
4.14222e-05
7.56713e-09
4.18782e-05
7.51189e-09
4.23349e-05
7.46648e-09
4.2792e-05
7.42235e-09
4.32492e-05
7.39221e-09
4.37063e-05
7.36533e-09
4.4163e-05
7.34251e-09
4.4619e-05
7.33083e-09
4.50739e-05
7.32441e-09
4.55274e-05
7.32111e-09
4.59792e-05
7.32376e-09
4.64287e-05
7.3317e-09
4.68757e-05
7.34557e-09
4.73198e-05
7.35614e-09
4.77603e-05
7.37391e-09
4.81969e-05
7.38987e-09
4.8629e-05
7.40931e-09
4.9056e-05
7.42532e-09
4.94775e-05
7.44092e-09
4.98927e-05
7.45204e-09
5.03011e-05
7.45575e-09
5.07019e-05
7.4558e-09
5.10943e-05
7.44355e-09
5.14777e-05
7.42034e-09
5.18511e-05
7.38291e-09
5.22137e-05
7.32419e-09
5.25645e-05
7.24705e-09
5.19911e-05
7.14785e-09
5.05329e-05
7.02514e-09
4.91199e-05
6.88067e-09
4.77504e-05
6.70823e-09
4.64228e-05
6.51417e-09
4.51356e-05
6.2908e-09
4.38874e-05
6.04373e-09
4.26768e-05
5.77112e-09
4.15024e-05
5.47262e-09
4.0363e-05
5.14932e-09
3.92573e-05
4.80615e-09
3.81843e-05
4.4402e-09
3.71428e-05
4.05691e-09
3.61317e-05
3.65713e-09
3.51501e-05
3.24068e-09
3.41968e-05
2.81496e-09
3.3271e-05
2.37955e-09
3.23717e-05
1.93569e-09
3.14981e-05
1.48731e-09
3.06492e-05
1.036e-09
2.98244e-05
5.80594e-10
2.90228e-05
1.24787e-10
2.82437e-05
-3.29646e-10
2.74863e-05
-7.82548e-10
2.67499e-05