/*--------------------------------*- C++ -*----------------------------------*\
  =========                 |
  \\      /  F ield         | OpenFOAM: The Open Source CFD Toolbox
   \\    /   O peration     | Website:  https://openfoam.org
    \\  /    A nd           | Version:  10
     \\/     M anipulation  |
\*---------------------------------------------------------------------------*/
FoamFile
{
    format      ascii;
    class       volScalarField;
    location    "79000";
    object      omega;
}
// * * * * * * * * * * * * * * * * * * * * * * * * * * * * * * * * * * * * * //

dimensions      [0 0 -1 0 0 0 0];

internalField   nonuniform List<scalar> 
17981
(
45.3841
46.7754
48.2427
49.7741
51.3546
52.9678
54.5964
56.2238
57.8342
59.414
60.9516
62.4378
63.8657
65.2306
66.5297
67.7618
68.9269
70.026
71.0609
72.0338
72.9473
73.8041
74.6072
75.3595
76.0637
76.7227
77.3391
77.9155
78.4543
78.9579
79.4283
79.8677
80.2779
80.6608
81.0181
81.3514
81.6622
81.952
82.2222
82.4739
82.7079
82.925
83.1262
83.3125
83.4848
83.644
83.7908
83.9262
46.4727
47.9113
49.4318
51.0212
52.6635
54.3406
56.0342
57.726
59.3994
61.0398
62.6349
64.1752
65.6536
67.0655
68.4082
69.6805
70.8828
72.0163
73.083
74.0853
75.0261
75.9083
76.7349
77.5091
78.2336
78.9116
79.5456
80.1383
80.6923
81.2098
81.6932
82.1445
82.5656
82.9586
83.325
83.6666
83.9849
84.2813
84.5574
84.8143
85.0527
85.2734
85.4777
85.6665
85.8407
86.0013
86.149
86.2848
47.7316
49.2199
50.7956
52.4443
54.1486
55.8892
57.6461
59.3999
61.1329
62.8297
64.4778
66.0673
67.5912
69.045
70.4261
71.734
72.9689
74.1326
75.2273
76.2556
77.2205
78.1252
78.9728
79.7666
80.5095
81.2045
81.8545
82.4621
83.0298
83.5602
84.0554
84.5176
84.9487
85.3508
85.7255
86.0746
86.3996
86.7021
86.9835
87.2447
87.4867
87.7104
87.9169
88.1074
88.2827
88.4439
88.5917
88.727
55.8134
57.6158
59.4332
61.2451
63.033
64.781
66.4761
68.1088
69.6722
71.1621
72.5762
73.9143
75.1771
76.3666
77.4853
78.536
79.5219
80.4463
81.3125
82.1237
82.8829
83.5934
84.2578
84.8789
85.4593
86.0014
86.5075
86.9798
87.4201
87.8306
88.2129
88.5689
88.9
89.2079
89.4938
89.7587
90.0035
90.2294
90.4375
90.629
90.8046
90.9656
91.1127
91.2468
57.662
59.5229
61.3965
63.2611
65.0976
66.8899
68.6252
70.2941
71.8902
73.4096
74.8507
76.2136
77.4994
78.7103
79.849
80.9187
81.9226
82.8641
83.7466
84.5732
85.3472
86.0716
86.7492
87.3828
87.9749
88.528
89.0442
89.5258
89.9748
90.3932
90.7826
91.1449
91.4817
91.7946
92.0845
92.3524
92.5995
92.8269
93.036
93.2276
93.4029
93.5629
93.7086
93.8406
59.6963
61.6108
63.534
65.444
67.3211
69.1495
70.9167
72.6139
74.2352
75.7773
77.2392
78.6213
79.9252
81.1532
82.3084
83.3939
84.4132
85.3695
86.2663
87.1069
87.8942
88.6315
89.3214
89.9667
90.5698
91.1332
91.6592
92.1499
92.6072
93.0332
93.4296
93.7982
94.1406
94.4581
94.7514
95.0218
95.2707
95.4993
95.7087
95.9001
96.0745
96.2329
96.3763
96.5056
63.8756
65.8397
67.7854
69.6933
71.5481
73.338
75.0547
76.6933
78.2512
79.7277
81.1237
82.441
83.6824
84.8508
85.9495
86.9819
87.9513
88.8611
89.7144
90.5144
91.2638
91.9656
92.6222
93.2363
93.81
94.3457
94.8454
95.3112
95.745
96.1486
96.5239
96.8718
97.1932
97.4896
97.7623
98.0127
98.2419
98.4511
98.6416
98.8144
98.9705
99.111
99.2367
70.2695
72.1968
74.067
75.8695
77.597
79.2451
80.812
82.2974
83.7025
85.0295
86.2811
87.4603
88.5703
89.6144
90.5959
91.518
92.3838
93.1961
93.9578
94.6716
95.3399
95.9651
96.5496
97.0955
97.6049
98.0797
98.5219
98.9334
99.3151
99.668
99.9933
100.293
100.567
100.819
101.048
101.257
101.446
101.617
101.77
101.907
102.028
74.8052
76.6797
78.485
80.2147
81.8653
83.4353
84.9249
86.3356
87.6695
88.9293
90.1178
91.2383
92.2937
93.2873
94.2219
95.1005
95.9259
96.7006
97.4272
98.1082
98.7456
99.3419
99.8991
100.419
100.904
101.356
101.776
102.164
102.522
102.851
103.154
103.431
103.683
103.913
104.121
104.308
104.476
104.626
104.758
104.875
81.1503
82.8753
84.5228
86.0917
87.5826
88.9968
90.3363
91.6037
92.8016
93.9329
95.0005
96.0072
96.9557
97.8486
98.6886
99.4781
100.219
100.915
101.566
102.176
102.747
103.279
103.776
104.238
104.666
105.061
105.425
105.759
106.065
106.345
106.599
106.829
107.036
107.221
107.386
107.532
107.66
107.77
90.2401
91.6577
93.0035
94.2797
95.4886
96.6327
97.7147
98.7368
99.7017
100.612
101.469
102.276
103.034
103.747
104.415
105.042
105.628
106.176
106.686
107.159
107.596
108
108.371
108.711
109.021
109.304
109.56
109.79
109.996
110.18
110.342
110.484
110.607
110.711
92.8668
94.29
95.6447
96.9326
98.1558
99.3162
100.416
101.457
102.442
103.373
104.252
105.08
105.859
106.593
107.282
107.928
108.534
109.099
109.623
110.109
110.558
110.972
111.351
111.699
112.015
112.302
112.56
112.792
112.998
113.18
113.34
113.477
113.595
113.692
95.431
96.8642
98.2324
99.537
100.779
101.961
103.084
104.15
105.16
106.117
107.021
107.875
108.681
109.44
110.155
110.826
111.453
112.037
112.579
113.081
113.545
113.971
114.361
114.718
115.042
115.334
115.596
115.83
116.037
116.218
116.375
116.509
116.62
116.711
97.9036
99.3534
100.742
102.07
103.338
104.548
105.7
106.797
107.839
108.827
109.764
110.651
111.489
112.28
113.026
113.725
114.377
114.984
115.548
116.07
116.551
116.992
117.396
117.764
118.097
118.397
118.665
118.902
119.111
119.292
119.446
119.576
119.682
119.766
101.734
103.152
104.511
105.813
107.059
108.249
109.384
110.465
111.493
112.47
113.397
114.275
115.105
115.885
116.616
117.299
117.934
118.523
119.069
119.571
120.032
120.453
120.835
121.18
121.489
121.764
122.007
122.218
122.399
122.552
122.679
122.78
122.856
103.988
105.444
106.844
108.19
109.481
110.717
111.899
113.028
114.104
115.129
116.105
117.031
117.904
118.725
119.494
120.212
120.881
121.502
122.075
122.603
123.087
123.528
123.928
124.288
124.609
124.894
125.143
125.359
125.542
125.695
125.819
125.914
125.984
106.1
107.605
109.057
110.455
111.8
113.092
114.331
115.518
116.652
117.736
118.769
119.748
120.671
121.539
122.353
123.114
123.822
124.48
125.087
125.646
126.158
126.624
127.045
127.423
127.76
128.057
128.316
128.538
128.724
128.878
128.999
129.091
129.153
109.625
111.138
112.6
114.01
115.368
116.674
117.928
119.132
120.284
121.382
122.421
123.402
124.325
125.192
126.002
126.757
127.458
128.106
128.701
129.246
129.741
130.188
130.589
130.945
131.257
131.528
131.758
131.951
132.106
132.227
132.314
132.37
111.497
113.082
114.617
116.102
117.537
118.921
120.254
121.538
122.767
123.935
125.044
126.092
127.079
128.007
128.875
129.685
130.436
131.131
131.77
132.354
132.884
133.363
133.79
134.169
134.5
134.786
135.028
135.228
135.388
135.509
135.594
135.644
113.215
114.881
116.5
118.071
119.593
121.066
122.49
123.862
125.175
126.426
127.614
128.738
129.8
130.798
131.733
132.606
133.417
134.166
134.855
135.484
136.056
136.572
137.032
137.438
137.793
138.098
138.355
138.566
138.732
138.856
138.94
138.985
114.774
116.531
118.243
119.91
121.53
123.103
124.629
126.099
127.507
128.85
130.128
131.34
132.485
133.564
134.575
135.519
136.397
137.21
137.958
138.641
139.262
139.822
140.321
140.762
141.146
141.475
141.75
141.975
142.151
142.28
142.365
142.407
116.167
118.024
119.839
121.611
123.34
125.025
126.662
128.24
129.754
131.201
132.58
133.889
135.129
136.298
137.396
138.424
139.381
140.267
141.083
141.83
142.509
143.121
143.667
144.148
144.567
144.926
145.226
145.469
145.658
145.796
145.883
145.924
117.387
119.351
121.278
123.166
125.014
126.822
128.581
130.278
131.907
133.468
134.96
136.379
137.726
139
140.198
141.321
142.369
143.34
144.236
145.057
145.804
146.477
147.078
147.609
148.07
148.465
148.794
149.061
149.267
149.416
149.509
149.55
118.426
120.505
122.552
124.565
126.542
128.482
130.371
132.196
133.954
135.644
137.262
138.807
140.275
141.667
142.979
144.212
145.364
146.434
147.422
148.329
149.154
149.899
150.565
151.153
151.665
152.102
152.468
152.764
152.992
153.156
153.259
153.302
119.274
121.475
123.649
125.795
127.908
129.987
132.017
133.985
135.887
137.719
139.48
141.164
142.771
144.296
145.738
147.095
148.366
149.549
150.643
151.649
152.566
153.394
154.136
154.792
155.363
155.852
156.26
156.591
156.847
157.031
157.146
157.196
119.92
122.248
124.555
126.838
129.095
131.324
133.509
135.633
137.693
139.685
141.603
143.445
145.205
146.881
148.47
149.969
151.375
152.686
153.902
155.022
156.044
156.97
157.799
158.534
159.175
159.724
160.184
160.557
160.847
161.056
161.187
161.246
120.353
122.811
125.255
127.682
130.091
132.479
134.831
137.127
139.361
141.527
143.621
145.637
147.571
149.416
151.17
152.828
154.388
155.846
157.201
158.45
159.594
160.631
161.562
162.388
163.11
163.73
164.251
164.674
165.004
165.244
165.397
165.468
120.563
123.153
125.738
128.316
130.883
133.438
135.966
138.449
140.873
143.233
145.52
147.73
149.856
151.891
153.83
155.668
157.402
159.026
160.538
161.936
163.218
164.383
165.431
166.363
167.179
167.881
168.472
168.955
169.333
169.61
169.79
169.877
120.539
123.263
125.993
128.727
131.458
134.185
136.9
139.584
142.214
144.784
147.285
149.708
152.047
154.293
156.44
158.481
160.41
162.222
163.913
165.48
166.92
168.231
169.413
170.465
171.389
172.187
172.86
173.412
173.847
174.167
174.379
174.487
123.135
126.012
128.905
131.807
134.713
137.617
140.507
143.362
146.161
148.895
151.554
154.128
156.609
158.987
161.255
163.403
165.427
167.321
169.079
170.698
172.175
173.51
174.701
175.75
176.657
177.425
178.056
178.556
178.929
179.178
179.311
122.76
125.786
128.84
131.917
135.009
138.109
141.209
144.295
147.342
150.33
153.247
156.081
158.822
161.457
163.977
166.372
168.634
170.755
172.729
174.552
176.218
177.727
179.076
180.267
181.299
182.175
182.899
183.475
183.907
184.201
184.364
122.141
125.309
128.525
131.78
135.065
138.37
141.686
145.001
148.303
151.566
154.764
157.884
160.91
163.831
166.632
169.302
171.831
174.208
176.426
178.478
180.359
182.065
183.594
184.946
186.121
187.122
187.951
188.614
189.115
189.461
189.659
121.277
124.583
127.955
131.387
134.869
138.389
141.933
145.488
149.042
152.579
156.078
159.51
162.851
166.087
169.2
172.177
175.004
177.669
180.161
182.472
184.595
186.524
188.257
189.793
191.131
192.273
193.223
193.985
194.565
194.971
195.209
130.736
134.412
138.148
141.931
145.743
149.567
153.384
157.178
160.933
164.618
168.2
171.66
174.978
178.138
181.124
183.924
186.527
188.922
191.104
193.068
194.811
196.333
197.636
198.723
199.598
200.269
200.743
201.028
129.825
133.693
137.644
141.666
145.741
149.852
153.975
158.088
162.167
166.192
170.143
173.985
177.681
181.211
184.557
187.702
190.632
193.334
195.801
198.025
200.003
201.734
203.219
204.46
205.464
206.238
206.789
207.127
128.649
132.701
136.866
141.129
145.472
149.876
154.317
158.772
163.212
167.605
171.928
176.154
180.258
184.202
187.949
191.479
194.776
197.824
200.611
203.128
205.372
207.338
209.028
210.445
211.594
212.483
213.121
213.52
127.204
131.43
135.8
140.301
144.915
149.62
154.392
159.202
164.021
168.817
173.555
178.198
182.718
187.089
191.276
195.238
198.946
202.381
205.528
208.376
210.917
213.149
215.07
216.684
217.996
219.016
219.753
220.219
125.494
129.877
134.439
139.168
144.049
149.058
154.17
159.353
164.572
169.792
174.974
180.079
185.064
189.893
194.533
198.959
203.126
206.994
210.544
213.763
216.64
219.17
221.351
223.187
224.683
225.849
226.695
227.237
123.521
128.039
132.775
137.72
142.858
148.168
153.623
159.189
164.829
170.499
176.156
181.754
187.246
192.589
197.734
202.646
207.298
211.647
215.649
219.284
222.538
225.403
227.877
229.962
231.664
232.994
233.963
234.589
121.292
125.922
130.808
135.948
141.328
146.93
152.726
158.681
164.753
170.897
177.06
183.19
189.23
195.127
200.831
206.294
211.469
216.328
220.83
224.932
228.609
231.851
234.654
237.019
238.952
240.465
241.572
242.29
118.818
123.532
128.542
133.85
139.451
145.327
151.454
157.796
164.31
170.944
177.641
184.338
190.97
197.475
203.789
209.855
215.621
221.04
226.078
230.696
234.848
238.514
241.686
244.366
246.558
248.276
249.536
250.358
116.108
120.88
125.984
131.431
137.223
143.35
149.79
156.51
163.465
170.601
177.853
185.15
192.418
199.581
206.564
213.297
219.714
225.761
231.391
236.569
241.25
245.392
248.98
252.012
254.496
256.444
257.874
258.81
113.172
117.979
123.147
128.699
134.648
140.993
147.72
154.799
162.188
169.828
177.65
185.577
193.521
201.394
209.107
216.573
223.714
230.459
236.751
242.545
247.806
252.483
256.538
259.969
262.78
264.986
266.606
267.669
110.022
114.846
120.049
125.67
131.737
138.261
145.239
152.649
160.451
168.589
176.989
185.567
194.224
202.857
211.361
219.633
227.574
235.099
242.133
248.618
254.514
259.778
264.363
268.243
271.424
273.92
275.754
276.956
106.663
111.495
116.711
122.367
128.509
135.167
142.351
150.051
158.235
166.852
175.827
185.068
194.468
203.909
213.266
222.416
231.241
239.633
247.499
254.763
261.369
267.286
272.46
276.848
280.446
283.268
285.342
286.701
103.089
107.932
113.15
118.813
124.989
131.73
139.067
147.006
155.53
164.592
174.124
184.031
194.195
204.484
214.754
224.859
234.654
244.01
252.807
260.95
268.365
275.002
280.832
285.796
289.865
293.056
295.398
296.931
99.2837
104.15
109.375
115.03
121.206
127.981
135.412
143.529
152.333
161.794
171.85
182.408
193.345
204.515
215.754
226.889
237.748
248.17
258.008
267.141
275.471
282.931
289.487
295.093
299.698
303.308
305.954
307.681
95.2287
100.136
105.386
111.037
117.191
123.955
131.419
139.645
148.66
158.454
168.982
180.159
191.861
203.932
216.188
228.427
240.446
252.045
263.045
273.291
282.659
291.057
298.432
304.754
309.971
314.055
317.044
318.989
90.9129
95.863
101.161
106.832
112.966
119.69
127.132
135.393
144.536
154.583
165.512
177.254
189.693
202.667
215.975
229.387
242.66
255.556
267.85
279.348
289.891
299.358
307.671
314.806
320.704
325.33
328.708
330.898
86.416
91.3086
96.667
102.392
108.535
115.215
122.594
130.821
140.006
150.211
161.449
173.678
186.8
200.656
215.033
229.673
244.296
258.611
272.344
285.249
297.124
307.811
317.204
325.253
331.921
337.164
340.988
343.456
82.0552
86.5666
91.8689
97.6728
103.871
110.541
117.847
125.985
135.125
145.384
156.821
169.435
183.157
197.844
213.281
229.19
245.246
261.105
276.431
290.917
304.3
316.379
327.009
336.113
343.665
349.609
353.939
356.72
78.0601
81.9977
86.8679
92.6249
98.9218
105.643
112.911
120.938
129.961
140.167
151.68
164.552
178.76
194.193
210.65
227.838
245.397
262.923
280.005
296.259
311.354
325.023
337.076
347.398
355.964
362.709
367.614
370.751
74.44
77.8529
82.0811
87.3587
93.6212
100.461
107.765
115.713
124.579
134.639
146.098
159.083
173.632
189.688
207.082
225.526
244.63
263.932
282.937
301.168
318.201
333.691
347.385
359.122
368.842
376.502
382.075
385.619
74.1291
77.7792
82.3381
88.0735
94.9012
102.339
110.297
119.03
128.881
140.166
153.107
167.826
184.342
202.543
222.172
242.828
263.993
285.084
305.511
324.736
342.311
357.897
371.274
382.339
391.064
397.405
401.413
70.8033
73.949
77.8682
82.7985
89.0548
96.515
104.615
113.314
122.964
133.984
146.728
161.429
178.206
197.034
217.719
239.878
262.957
286.282
309.135
330.833
350.794
368.569
383.855
396.493
406.457
413.689
418.228
73.9266
78.1477
83.4995
90.3512
98.5201
107.356
116.909
127.645
140.065
154.558
171.37
190.596
212.144
235.692
260.68
286.356
311.86
336.336
359.029
379.34
396.854
411.337
422.751
431.017
436.169
70.478
74.0898
78.6511
84.4837
92.0191
100.984
110.646
121.197
133.238
147.352
163.961
183.316
205.469
230.211
257.028
285.118
313.482
341.06
366.874
390.128
410.255
426.916
440.012
449.484
455.357
70.5817
74.4694
79.416
85.8014
94.1258
103.987
114.589
126.329
139.959
156.141
175.332
197.771
223.424
251.893
282.382
313.772
344.777
374.144
400.815
424.01
443.247
458.337
469.235
475.952
67.5878
70.9019
75.1001
80.4871
87.5148
96.7524
107.625
119.318
132.502
148.09
166.826
189.192
215.388
245.216
277.978
312.486
347.226
380.613
411.245
438.055
460.354
477.827
490.423
498.13
65.0804
67.906
71.4716
76.0225
81.9179
89.702
99.9983
112.015
125.005
139.975
158.011
179.93
206.231
237.008
271.774
309.377
348.106
386
421.217
452.292
478.247
498.585
513.217
522.097
65.4494
68.4795
72.3287
77.2839
83.7737
92.4627
103.985
117.307
131.88
149.103
170.234
196.164
227.367
263.708
304.218
347.087
389.967
430.464
466.579
496.919
520.722
537.815
548.098
63.5102
66.0864
69.345
73.5164
78.9398
86.1334
95.9215
108.865
123.696
140.26
160.374
185.467
216.496
253.812
296.834
343.829
392.11
438.641
480.709
516.331
544.353
564.447
576.427
64.2683
67.0289
70.5442
75.0841
81.0544
89.0899
100.231
114.831
131.454
150.59
174.47
204.699
242.249
287.147
338.008
391.971
445.312
494.392
536.4
569.602
593.37
607.43
63.0157
65.3559
68.3206
72.1251
77.0886
83.7015
92.7514
105.571
122.135
140.967
163.507
192.367
229.321
275.219
329.368
389.054
449.926
507.22
556.968
596.576
624.894
641.543
62.3333
64.3196
66.8225
70.0142
74.1463
79.5996
86.9728
97.2543
112.156
131.117
152.806
179.936
215.468
261.292
317.786
382.863
451.823
518.63
577.756
625.334
659.404
679.327
63.9323
66.0495
68.7314
72.1776
76.6858
82.7163
91.0118
102.836
120.285
142.22
167.796
201.227
245.811
303.341
372.983
450.249
527.879
598.335
655.89
697.318
721.452
64.2277
66.0248
68.2843
71.1648
74.9013
79.8526
86.5884
96.0598
109.955
130.443
156.035
187.14
229.39
286.38
359.178
444.41
534.012
618.046
688.141
739.095
768.747
65.2653
66.8001
68.7118
71.1262
74.2286
78.3001
83.7818
91.398
102.407
119.163
143.327
173.55
212.743
267.54
341.519
433.581
535.863
635.926
721.795
785.223
822.261
68.465
70.0948
72.1277
74.7086
78.056
82.5095
88.6175
97.3109
110.274
130.825
159.825
196.592
247.759
320.525
417.294
532.112
650.618
756.247
836.172
883.32
71.162
72.5704
74.298
76.4557
79.2107
82.8219
87.7023
94.5376
104.529
119.93
145.344
181.306
228.207
297.233
395.564
521.435
660.298
790.405
892.301
953.613
75.1112
76.3566
77.8507
79.6753
81.9556
84.8866
88.7794
94.1483
101.881
113.609
132.588
164.296
209.821
273.016
369.042
502.763
662.687
822.459
953.674
1035.28
80.6561
81.7968
83.1275
84.7048
86.6174
89.007
92.1038
96.2917
102.235
111.145
125.405
150.231
190.567
249.068
339.046
475.677
655.224
849.635
1019.73
1131.01
88.3509
89.448
90.6868
92.1009
93.7464
95.7178
98.1742
101.388
105.837
112.384
122.677
140.127
172.677
226.704
308.045
441.114
635.586
868.022
1088.74
1243.93
99.1363
100.259
101.482
102.82
104.297
105.963
107.916
110.331
113.531
118.115
125.222
137.148
158.948
202.324
279.082
401.499
602.308
872.545
1157.05
1377.17
114.733
115.967
117.266
118.619
120.021
121.482
123.038
124.78
126.904
129.801
134.264
141.942
156.512
187.317
249.13
359.205
555.098
857.052
1217.52
1533.54
138.626
140.1
141.595
143.069
144.479
145.787
146.975
148.056
149.112
150.355
152.269
155.912
163.652
181.153
224.037
319.355
497.346
815.973
1258.44
1712.64
179.003
180.946
182.827
184.546
185.99
187.057
187.666
187.767
187.356
186.507
185.464
184.838
186.072
192.601
213.412
275.051
435.892
746.429
1262.06
1906.49
259.885
262.772
265.36
267.408
268.628
268.798
267.781
265.501
261.925
257.071
251.062
244.355
237.995
234.029
238.551
268.117
373.64
655.96
1215.54
2078.82
480.318
484.766
488.125
489.72
488.744
484.871
478.128
468.573
456.194
440.906
422.723
403.859
389.102
377.402
368.082
366.597
393.9
536.698
1101.23
2120.88
1530.04
1523.65
1517.47
1511.5
1505.74
1500.16
1494.78
1489.57
1484.54
1479.67
1474.96
1470.4
1466
1461.73
1457.61
1453.61
1449.74
1446
1442.38
1438.87
52.0041
52.6595
53.3401
54.0514
54.7993
55.5907
56.4329
57.3341
58.3033
59.3501
60.4854
61.7208
63.0693
64.5451
66.1637
67.9422
69.8998
72.0573
74.4383
77.0688
79.9779
83.1985
86.7672
90.7254
95.1197
100.003
105.435
111.484
118.225
125.746
134.144
143.529
154.027
165.773
178.922
193.64
210.109
228.52
249.071
271.96
297.378
325.503
356.498
390.524
427.784
468.626
513.759
564.67
624.451
699.54
803.866
970.485
1291.16
2074.79
4308.21
52.0041
52.6646
53.3513
54.0695
54.8256
55.6263
56.479
57.3919
58.3741
59.4353
60.5863
61.8389
63.206
64.7018
66.3417
68.143
70.1246
72.3074
74.7147
77.3725
80.3097
83.5588
87.1562
91.1429
95.5649
100.474
105.93
111.998
118.754
126.282
134.678
144.049
154.514
166.206
179.272
193.871
210.176
228.366
248.628
271.147
296.103
323.667
354
387.279
423.739
463.795
508.262
558.795
618.74
694.929
801.874
973.04
1295.91
2025.27
3442.94
52.005
52.6709
53.3639
54.0895
54.854
55.6642
56.5277
57.4527
58.4482
59.5241
60.6911
61.9612
63.3471
64.863
66.5245
68.3486
70.3542
72.5622
74.9957
77.6805
80.6454
83.9226
87.5481
91.5624
96.011
100.945
106.423
112.509
119.277
126.81
135.201
144.552
154.981
166.614
179.592
194.067
210.201
228.166
248.135
270.284
294.782
321.795
351.488
384.051
419.758
459.089
502.962
553.179
613.284
690.32
798.77
970.393
1280.83
1886.71
2788.14
52.007
52.6786
53.3781
54.1113
54.8845
55.7046
56.5792
57.5165
58.5256
59.6165
60.7998
62.0875
63.4925
65.0287
66.7118
68.5588
70.5884
72.8214
75.281
77.9926
80.9848
84.2895
87.9423
91.9833
96.4574
101.415
106.913
113.015
119.794
127.329
135.71
145.039
155.427
166.996
179.881
194.226
210.185
227.92
247.594
269.373
293.419
319.894
348.967
380.849
415.852
454.518
497.86
547.804
608.023
685.597
794.554
963.964
1254.38
1723.45
2289.6
52.0101
52.6875
53.3939
54.1351
54.9173
55.7475
56.6334
57.5834
58.6064
59.7125
60.9124
62.218
63.6421
65.1988
66.9036
68.7734
70.827
73.085
75.5703
78.3083
81.3274
84.659
88.3384
92.4052
96.9035
101.883
107.4
113.516
120.302
127.836
136.206
145.508
155.85
167.351
180.137
194.348
210.127
227.628
247.006
268.417
292.018
317.968
346.447
377.684
412.03
450.088
492.955
542.65
602.917
680.738
789.427
954.849
1211.31
1567.61
1919.99
52.0144
52.6979
53.4115
54.1608
54.9523
55.793
56.6905
57.6534
58.6906
59.8122
61.0289
62.3525
63.7959
65.3732
67.0997
68.9924
71.0698
73.3526
75.8634
78.6275
81.6728
85.0306
88.7358
92.8273
97.3486
102.349
107.882
114.01
120.801
128.331
136.685
145.957
156.25
167.677
180.361
194.431
210.027
227.292
246.372
267.418
290.582
316.025
343.935
374.564
408.301
445.805
488.244
537.709
597.961
675.799
783.638
940.501
1156.67
1425.45
1647.35
52.0199
52.7098
53.4307
54.1885
54.9896
55.841
56.7505
57.7265
58.7782
59.9155
61.1491
62.491
63.9538
65.5517
67.3
69.2155
71.3167
73.624
76.16
78.9496
82.0207
85.404
89.1339
93.249
97.792
102.811
108.359
114.497
121.29
128.813
137.148
146.386
156.625
167.974
180.549
194.476
209.884
226.91
245.694
266.38
289.117
314.07
341.438
371.497
404.671
441.673
483.733
532.992
593.198
670.908
776.512
918.351
1096.84
1299.21
1442.43
52.0267
52.7233
53.4519
54.2183
55.0292
55.8917
56.8134
57.8029
58.8692
60.0224
61.2732
62.6334
64.1158
65.7344
67.5044
69.4426
71.5673
73.8989
76.4597
79.2744
82.3705
85.7784
89.5322
93.6696
98.2328
103.269
108.83
114.974
121.767
129.28
137.593
146.792
156.973
168.239
180.703
194.481
209.698
226.484
244.973
265.304
287.627
312.109
338.965
368.491
401.152
437.708
479.443
528.543
588.722
665.846
765.725
889.761
1036.23
1188.58
1283.95
52.0348
52.7383
53.4748
54.2503
55.0714
55.9451
56.8793
57.8824
58.9636
60.1329
61.401
62.7797
64.2817
65.921
67.7126
69.6734
71.8215
74.177
76.7621
79.6013
82.7217
86.1534
89.93
94.0884
98.6703
103.721
109.293
115.442
122.232
129.731
138.017
147.174
157.293
168.473
180.82
194.446
209.47
226.016
244.212
264.196
286.117
310.151
336.524
365.561
397.761
433.934
475.42
524.441
584.46
659.268
750.328
857.316
977.245
1092.17
1157.62
52.0444
52.7551
53.4998
54.2845
55.1159
56.0012
56.9481
57.9651
59.0614
60.247
61.5325
62.9298
64.4514
66.1113
67.9245
69.9077
72.0788
74.4579
77.0668
79.9299
83.0738
86.5284
90.3265
94.5046
99.1034
104.168
109.748
115.899
122.682
130.165
138.421
147.532
157.584
168.673
180.899
194.371
209.2
225.506
243.414
263.06
284.595
308.204
334.13
362.724
394.526
430.399
471.737
520.677
579.657
649.866
731.181
823.132
921.096
1008.25
1054.33
52.0554
52.7735
53.5266
54.3209
55.163
56.06
57.0199
58.051
59.1626
60.3645
61.6676
63.0834
64.6247
66.3052
68.1398
70.1451
72.339
74.7412
77.3734
80.2596
83.4262
86.9026
90.721
94.9174
99.5314
104.607
110.193
116.344
123.118
130.581
138.803
147.863
157.845
168.839
180.942
194.256
208.889
224.958
242.583
261.902
283.07
306.283
331.802
360.011
391.493
427.169
468.413
516.812
573.227
637.545
709.649
788.512
868.38
934.987
968.106
52.068
52.7937
53.5556
54.3596
55.2125
56.1216
57.0946
58.14
59.267
60.4855
61.8062
63.2406
64.8015
66.5024
68.3583
70.3854
72.6016
75.0264
77.6813
80.5899
83.7783
87.2753
91.1127
95.3257
99.9532
105.038
110.628
116.775
123.537
130.976
139.161
148.168
158.075
168.971
180.947
194.102
208.54
224.374
241.726
260.731
281.555
304.405
329.568
357.462
388.724
424.279
465.188
512.041
564.697
622.995
686.789
754.245
819.335
870.703
894.89
52.0821
52.8158
53.5865
54.4006
55.2646
56.1859
57.1722
58.2321
59.3746
60.6097
61.948
63.4011
64.9815
66.7027
68.5796
70.6283
72.8664
75.3133
77.9901
80.9203
84.1294
87.6459
91.5008
95.7288
100.368
105.46
111.051
117.192
123.938
131.35
139.495
148.444
158.274
169.068
180.916
193.911
208.156
223.761
240.849
259.56
280.068
302.598
327.468
355.138
386.262
421.575
461.481
505.81
554.309
606.974
663.297
720.841
773.957
813.952
831.835
52.0978
52.8396
53.6196
54.4439
55.3192
56.2529
57.2527
58.3272
59.4854
60.7372
62.0931
63.5648
65.1645
66.9058
68.8034
70.8733
73.1328
75.6011
78.2992
81.25
84.4788
88.0134
91.8845
96.1257
100.774
105.871
111.46
117.592
124.32
131.702
139.803
148.691
158.44
169.131
180.849
193.686
207.742
223.126
239.964
258.404
278.633
300.899
325.555
353.082
384.015
418.64
456.772
498.094
542.55
590.045
639.638
688.633
732.097
763.528
776.878
52.1152
52.8653
53.6547
54.4894
55.3763
56.3226
57.3361
58.4253
59.5992
60.8676
62.2412
63.7313
65.3503
67.1115
69.0294
71.12
73.4004
75.8895
78.608
81.5784
84.8257
88.3771
92.2627
96.5153
101.171
106.27
111.856
117.976
124.682
132.032
140.085
148.909
158.575
169.161
180.749
193.43
207.303
222.479
239.088
257.287
277.284
299.355
323.874
351.245
381.687
415.022
450.899
489.177
529.854
572.596
616.143
657.822
693.521
718.443
728.484
52.1342
52.893
53.6919
54.5373
55.4359
56.3949
57.4222
58.5262
59.7158
61.001
62.3921
63.9005
65.5385
67.3193
69.2572
71.368
73.6687
76.1778
78.9158
81.9048
85.1694
88.7362
92.6346
96.8969
101.558
106.657
112.237
118.342
125.024
132.337
140.34
149.098
158.68
169.16
180.621
193.151
206.85
221.834
238.239
256.24
276.064
298.011
322.403
349.417
378.9
410.498
443.995
479.376
516.54
554.906
593.053
628.513
657.964
677.892
685.486
52.1549
52.9225
53.7312
54.5875
55.4979
56.4698
57.511
58.6298
59.8352
61.137
62.5456
64.0722
65.7289
67.5289
69.4864
71.6169
73.9371
76.4655
79.222
82.2286
85.5091
89.0898
92.9993
97.2692
101.934
107.031
112.601
118.689
125.344
132.618
140.57
149.26
158.756
169.133
180.469
192.856
206.396
221.209
237.447
255.3
275.015
296.861
320.992
347.287
375.409
405.097
436.287
468.953
502.837
537.184
570.542
600.742
625.155
641.213
646.983
52.1773
52.9538
53.7726
54.6398
55.5623
56.5472
57.6023
58.736
59.9572
61.2756
62.7015
64.246
65.9212
67.74
69.7166
71.8661
74.2052
76.7519
79.526
82.5488
85.8439
89.437
93.356
97.6316
102.297
107.39
112.948
119.017
125.642
132.876
140.773
149.395
158.807
169.083
180.302
192.558
205.957
220.631
236.744
254.506
274.143
295.801
319.391
344.612
371.176
398.972
427.983
458.099
488.918
519.59
548.731
574.495
594.831
607.866
612.262
52.2014
52.9871
53.816
54.6944
55.629
56.627
57.6961
58.8446
60.0816
61.4164
62.8594
64.4216
66.1149
67.9521
69.9472
72.1151
74.4723
77.0364
79.8269
82.8648
86.1731
89.7769
93.7036
97.983
102.648
107.733
113.278
119.325
125.919
133.111
140.954
149.508
158.838
169.018
180.13
192.271
205.556
220.128
236.168
253.872
273.377
294.631
317.372
341.31
366.291
392.286
419.245
446.956
474.917
502.251
527.698
549.725
566.747
577.397
580.748
52.2271
53.0222
53.8615
54.7511
55.6979
56.709
57.7921
58.9555
60.2081
61.5592
63.0191
64.5987
66.3097
68.1648
70.1778
72.3634
74.7378
77.3184
80.1242
83.1759
86.496
90.1089
94.0415
98.3228
102.985
108.061
113.591
119.614
126.175
133.324
141.113
149.601
158.855
168.949
179.968
192.016
205.22
219.734
235.734
253.349
272.558
293.143
314.824
337.422
360.882
385.177
410.194
435.636
460.942
485.263
507.488
526.366
540.679
549.433
551.981
52.2546
53.0592
53.9089
54.8099
55.7689
56.7932
57.8903
59.0685
60.3365
61.7038
63.1803
64.7768
66.5051
68.3776
70.4079
72.6104
75.0011
77.5972
80.4172
83.4813
86.8117
90.4322
94.369
98.6504
103.307
108.374
113.886
119.884
126.412
133.518
141.255
149.683
158.867
168.887
179.833
191.818
204.978
219.469
235.413
252.815
271.501
291.212
311.752
333.045
355.066
377.752
400.925
424.228
447.083
468.7
488.118
504.335
516.427
523.661
525.593
52.2836
53.0979
53.9581
54.8706
55.842
56.8794
57.9905
59.1834
60.4667
61.8498
63.3426
64.9558
66.7008
68.5901
70.6369
72.8556
75.2617
77.8721
80.705
83.7804
87.1196
90.7462
94.6855
98.9655
103.616
108.67
114.164
120.137
126.632
133.698
141.386
149.759
158.886
168.848
179.747
191.703
204.852
219.314
235.109
252.107
270.074
288.812
308.224
328.277
348.936
370.093
391.515
412.812
433.415
452.605
469.583
483.551
493.808
499.821
501.28
52.3143
53.1383
54.0092
54.9332
55.9169
56.9675
58.0924
59.2998
60.5982
61.9969
63.5057
65.135
66.8964
68.8018
70.8644
73.0983
75.5189
78.1425
80.9873
84.0724
87.4191
91.0503
94.9908
99.2678
103.911
108.952
114.427
120.375
126.839
133.867
141.514
149.842
158.926
168.854
179.735
191.691
204.832
219.195
234.682
251.093
268.232
285.988
304.32
323.202
342.568
362.266
382.029
401.444
419.98
437.011
451.873
463.937
472.671
477.694
478.792
52.3465
53.1804
54.062
54.9975
55.9936
57.0572
58.1959
59.4176
60.7309
62.1449
63.6692
65.3142
67.0912
69.0121
71.0898
73.3381
75.7721
78.408
81.2633
84.357
87.7099
91.3443
95.2847
99.5576
104.192
109.22
114.677
120.602
127.037
134.034
141.647
149.945
159.006
168.927
179.818
191.781
204.862
218.993
234.005
249.713
265.997
282.806
300.117
317.889
336.02
354.324
372.505
390.166
406.823
421.938
434.967
445.414
452.882
457.096
457.915
52.3802
53.224
54.1163
55.0634
56.0718
57.1484
58.3007
59.5366
60.8644
62.2933
63.8327
65.493
67.285
69.2206
71.3125
73.5744
76.0208
78.6678
81.5326
84.6338
87.9916
91.6282
95.5675
99.8357
104.462
109.477
114.917
120.821
127.234
134.206
141.799
150.084
159.146
169.085
179.995
191.928
204.839
218.588
233.006
247.97
263.42
279.332
295.677
312.39
329.334
346.297
362.984
379.023
393.979
407.397
418.835
427.908
434.316
437.867
438.473
52.4153
53.2691
54.1722
55.1308
56.1514
57.2408
58.4065
59.6563
60.9984
62.4418
63.9959
65.6707
67.4772