/*--------------------------------*- C++ -*----------------------------------*\
  =========                 |
  \\      /  F ield         | OpenFOAM: The Open Source CFD Toolbox
   \\    /   O peration     | Website:  https://openfoam.org
    \\  /    A nd           | Version:  10
     \\/     M anipulation  |
\*---------------------------------------------------------------------------*/
FoamFile
{
    format      ascii;
    class       surfaceScalarField;
    location    "79000";
    object      phi;
}
// * * * * * * * * * * * * * * * * * * * * * * * * * * * * * * * * * * * * * //

dimensions      [0 3 -1 0 0 0 0];

internalField   nonuniform List<scalar> 
35585
(
7.0336e-06
-4.39028e-06
6.90028e-06
-4.38011e-06
6.76695e-06
-4.36444e-06
6.63376e-06
-4.34399e-06
6.50089e-06
-4.31942e-06
6.36854e-06
-4.29132e-06
6.23693e-06
-4.2602e-06
6.10629e-06
-4.22651e-06
5.97684e-06
-4.19063e-06
5.84883e-06
-4.15289e-06
5.72247e-06
-4.11354e-06
5.59799e-06
-4.0728e-06
5.47559e-06
-4.03084e-06
5.35545e-06
-3.9878e-06
5.23773e-06
-3.94378e-06
5.12258e-06
-3.89888e-06
5.01012e-06
-3.85316e-06
4.90044e-06
-3.80668e-06
4.79363e-06
-3.7595e-06
4.68975e-06
-3.71165e-06
4.58883e-06
-3.66319e-06
4.49089e-06
-3.61415e-06
4.39596e-06
-3.56457e-06
4.30401e-06
-3.5145e-06
4.21503e-06
-3.46398e-06
4.129e-06
-3.41305e-06
4.04587e-06
-3.36176e-06
3.9656e-06
-3.31015e-06
3.88814e-06
-3.25827e-06
3.81342e-06
-3.20617e-06
3.7414e-06
-3.15389e-06
3.67199e-06
-3.10149e-06
3.60514e-06
-3.04901e-06
3.54077e-06
-2.99651e-06
3.47881e-06
-2.94402e-06
3.41919e-06
-2.8916e-06
3.36182e-06
-2.83929e-06
3.30664e-06
-2.78713e-06
3.25358e-06
-2.73518e-06
3.20256e-06
-2.68346e-06
3.15351e-06
-2.63202e-06
3.10636e-06
-2.58089e-06
3.06103e-06
-2.53012e-06
3.01747e-06
-2.47973e-06
2.9756e-06
-2.42976e-06
2.93537e-06
-2.38025e-06
2.89669e-06
-2.3312e-06
-2.28266e-06
2.85953e-06
7.39312e-06
-4.24264e-06
7.24559e-06
-4.23258e-06
7.09831e-06
-4.21716e-06
6.95145e-06
-4.19712e-06
6.80519e-06
-4.17316e-06
6.65975e-06
-4.14588e-06
6.51536e-06
-4.11581e-06
6.37228e-06
-4.08342e-06
6.23074e-06
-4.0491e-06
6.09101e-06
-4.01316e-06
5.95333e-06
-3.97586e-06
5.81792e-06
-3.93739e-06
5.685e-06
-3.89792e-06
5.55476e-06
-3.85756e-06
5.42737e-06
-3.81639e-06
5.30297e-06
-3.77448e-06
5.18167e-06
-3.73186e-06
5.06358e-06
-3.68859e-06
4.94877e-06
-3.64468e-06
4.83728e-06
-3.60016e-06
4.72914e-06
-3.55505e-06
4.62437e-06
-3.50938e-06
4.52296e-06
-3.46316e-06
4.42489e-06
-3.41643e-06
4.33013e-06
-3.36922e-06
4.23863e-06
-3.32156e-06
4.15035e-06
-3.27348e-06
4.06523e-06
-3.22502e-06
3.98319e-06
-3.17623e-06
3.90418e-06
-3.12715e-06
3.8281e-06
-3.07782e-06
3.75489e-06
-3.02828e-06
3.68445e-06
-2.97858e-06
3.61672e-06
-2.92878e-06
3.5516e-06
-2.8789e-06
3.48901e-06
-2.82901e-06
3.42887e-06
-2.77915e-06
3.37109e-06
-2.72935e-06
3.31558e-06
-2.67967e-06
3.26227e-06
-2.63015e-06
3.21108e-06
-2.58082e-06
3.16192e-06
-2.53173e-06
3.11472e-06
-2.48292e-06
3.0694e-06
-2.43441e-06
3.02589e-06
-2.38626e-06
2.98411e-06
-2.33847e-06
2.94401e-06
-2.2911e-06
-2.24416e-06
2.90551e-06
7.70418e-06
7.54201e-06
7.38034e-06
7.21935e-06
7.05925e-06
-4.01306e-06
6.90027e-06
-3.9869e-06
6.74267e-06
-3.95821e-06
6.58673e-06
-3.92748e-06
6.43272e-06
-3.89509e-06
6.28091e-06
-3.86135e-06
6.13158e-06
-3.82652e-06
5.98496e-06
-3.79078e-06
5.84129e-06
-3.75425e-06
5.70076e-06
-3.71703e-06
5.56354e-06
-3.67918e-06
5.42979e-06
-3.64072e-06
5.29961e-06
-3.60168e-06
5.17308e-06
-3.56207e-06
5.05029e-06
-3.52188e-06
4.93125e-06
-3.48112e-06
4.81598e-06
-3.43979e-06
4.70449e-06
-3.39788e-06
4.59675e-06
-3.35542e-06
4.49273e-06
-3.31241e-06
4.39237e-06
-3.26886e-06
4.29563e-06
-3.22481e-06
4.20242e-06
-3.18027e-06
4.11269e-06
-3.13528e-06
4.02633e-06
-3.08988e-06
3.94327e-06
-3.04409e-06
3.86342e-06
-2.99796e-06
3.78668e-06
-2.95154e-06
3.71295e-06
-2.90486e-06
3.64215e-06
-2.85797e-06
3.57417e-06
-2.81092e-06
3.50891e-06
-2.76376e-06
3.44629e-06
-2.71652e-06
3.3862e-06
-2.66926e-06
3.32855e-06
-2.62202e-06
3.27325e-06
-2.57485e-06
3.22022e-06
-2.52778e-06
3.16935e-06
-2.48086e-06
3.12056e-06
-2.43414e-06
3.07378e-06
-2.38763e-06
3.02892e-06
-2.34139e-06
2.9859e-06
-2.29545e-06
2.94464e-06
-2.24984e-06
-2.20459e-06
2.90508e-06
7.26599e-06
-3.83862e-06
7.09298e-06
-3.81389e-06
6.92168e-06
-3.78692e-06
6.75242e-06
-3.75822e-06
6.5855e-06
-3.72817e-06
6.42123e-06
-3.69708e-06
6.2599e-06
-3.6652e-06
6.10179e-06
-3.63267e-06
5.94714e-06
-3.59959e-06
5.79615e-06
-3.56604e-06
5.649e-06
-3.53202e-06
5.50582e-06
-3.49755e-06
5.36674e-06
-3.4626e-06
5.23181e-06
-3.42715e-06
5.1011e-06
-3.39117e-06
4.97462e-06
-3.35464e-06
4.85237e-06
-3.31754e-06
4.73433e-06
-3.27985e-06
4.62046e-06
-3.24155e-06
4.51071e-06
-3.20266e-06
4.405e-06
-3.16316e-06
4.30327e-06
-3.12307e-06
4.20541e-06
-3.08242e-06
4.11135e-06
-3.04122e-06
4.02097e-06
-2.9995e-06
3.93417e-06
-2.95729e-06
3.85085e-06
-2.91464e-06
3.77089e-06
-2.87158e-06
3.69419e-06
-2.82816e-06
3.62064e-06
-2.78442e-06
3.55012e-06
-2.7404e-06
3.48252e-06
-2.69616e-06
3.41773e-06
-2.65174e-06
3.35566e-06
-2.60719e-06
3.29618e-06
-2.56255e-06
3.23921e-06
-2.51788e-06
3.18464e-06
-2.47321e-06
3.13237e-06
-2.42859e-06
3.0823e-06
-2.38407e-06
3.03435e-06
-2.33968e-06
2.98843e-06
-2.29547e-06
2.94445e-06
-2.25147e-06
2.90232e-06
-2.20772e-06
-2.16425e-06
2.86197e-06
7.42646e-06
-3.64912e-06
7.23869e-06
-3.62612e-06
7.05301e-06
-3.60124e-06
6.86978e-06
-3.57498e-06
6.68937e-06
-3.54776e-06
6.51213e-06
-3.51985e-06
6.3384e-06
-3.49146e-06
6.16845e-06
-3.46272e-06
6.00256e-06
-3.4337e-06
5.84093e-06
-3.40441e-06
5.68374e-06
-3.37483e-06
5.53111e-06
-3.34492e-06
5.38315e-06
-3.31463e-06
5.23991e-06
-3.28391e-06
5.10142e-06
-3.25268e-06
4.96769e-06
-3.2209e-06
4.83868e-06
-3.18853e-06
4.71435e-06
-3.15552e-06
4.59464e-06
-3.12184e-06
4.47946e-06
-3.08748e-06
4.36874e-06
-3.05243e-06
4.26236e-06
-3.0167e-06
4.16022e-06
-2.98028e-06
4.0622e-06
-2.9432e-06
3.96818e-06
-2.90548e-06
3.87803e-06
-2.86715e-06
3.79164e-06
-2.82825e-06
3.70886e-06
-2.78881e-06
3.62959e-06
-2.74888e-06
3.55368e-06
-2.70851e-06
3.48101e-06
-2.66773e-06
3.41146e-06
-2.62661e-06
3.34491e-06
-2.58519e-06
3.28124e-06
-2.54351e-06
3.22032e-06
-2.50164e-06
3.16205e-06
-2.45961e-06
3.10632e-06
-2.41747e-06
3.05301e-06
-2.37529e-06
3.00203e-06
-2.33309e-06
2.95327e-06
-2.29092e-06
2.90663e-06
-2.24884e-06
2.86203e-06
-2.20687e-06
2.81937e-06
-2.16506e-06
-2.12344e-06
2.77857e-06
7.54148e-06
7.33799e-06
-3.42263e-06
7.13705e-06
-3.40029e-06
6.9391e-06
-3.37703e-06
6.74456e-06
-3.35322e-06
6.55384e-06
-3.32913e-06
6.3673e-06
-3.30492e-06
6.18524e-06
-3.28067e-06
6.00795e-06
-3.2564e-06
5.83561e-06
-3.23208e-06
5.6684e-06
-3.20762e-06
5.50643e-06
-3.18295e-06
5.34977e-06
-3.15797e-06
5.19845e-06
-3.13259e-06
5.05248e-06
-3.10671e-06
4.91181e-06
-3.08024e-06
4.77641e-06
-3.05312e-06
4.64618e-06
-3.02529e-06
4.52105e-06
-2.99671e-06
4.4009e-06
-2.96733e-06
4.28561e-06
-2.93714e-06
4.17505e-06
-2.90614e-06
4.06909e-06
-2.87432e-06
3.9676e-06
-2.8417e-06
3.87041e-06
-2.80829e-06
3.7774e-06
-2.77414e-06
3.68841e-06
-2.73926e-06
3.6033e-06
-2.7037e-06
3.52192e-06
-2.6675e-06
3.44412e-06
-2.63071e-06
3.36977e-06
-2.59339e-06
3.29873e-06
-2.55557e-06
3.23086e-06
-2.51731e-06
3.16602e-06
-2.47868e-06
3.1041e-06
-2.43971e-06
3.04495e-06
-2.40046e-06
2.98847e-06
-2.36099e-06
2.93453e-06
-2.32135e-06
2.88303e-06
-2.28158e-06
2.83384e-06
-2.24174e-06
2.78688e-06
-2.20187e-06
2.74202e-06
-2.16202e-06
2.69919e-06
-2.12222e-06
-2.08253e-06
2.65828e-06
7.38858e-06
7.17146e-06
6.95805e-06
-3.16361e-06
6.74882e-06
-3.14399e-06
6.54424e-06
-3.12454e-06
6.34466e-06
-3.10535e-06
6.15043e-06
-3.08643e-06
5.96177e-06
-3.06775e-06
5.7789e-06
-3.0492e-06
5.60193e-06
-3.03065e-06
5.43095e-06
-3.01197e-06
5.26599e-06
-2.99302e-06
5.10706e-06
-2.97365e-06
4.9541e-06
-2.95375e-06
4.80705e-06
-2.93319e-06
4.66582e-06
-2.91189e-06
4.53029e-06
-2.88977e-06
4.40034e-06
-2.86676e-06
4.27582e-06
-2.84281e-06
4.15659e-06
-2.81791e-06
4.04248e-06
-2.79203e-06
3.93332e-06
-2.76517e-06
3.82897e-06
-2.73734e-06
3.72923e-06
-2.70856e-06
3.63395e-06
-2.67886e-06
3.54297e-06
-2.64827e-06
3.4561e-06
-2.61683e-06
3.37319e-06
-2.58459e-06
3.29408e-06
-2.5516e-06
3.2186e-06
-2.51791e-06
3.14661e-06
-2.48357e-06
3.07794e-06
-2.44865e-06
3.01247e-06
-2.4132e-06
2.95004e-06
-2.37728e-06
2.89051e-06
-2.34094e-06
2.83376e-06
-2.30424e-06
2.77967e-06
-2.26725e-06
2.72809e-06
-2.23001e-06
2.67893e-06
-2.19257e-06
2.63206e-06
-2.155e-06
2.58737e-06
-2.11733e-06
2.54477e-06
-2.07962e-06
-2.04192e-06
2.50415e-06
6.92282e-06
6.69876e-06
-2.91994e-06
6.48035e-06
-2.90613e-06
6.26797e-06
-2.89296e-06
6.0619e-06
-2.88037e-06
5.86237e-06
-2.86822e-06
5.66953e-06
-2.85635e-06
5.48346e-06
-2.84458e-06
5.30419e-06
-2.8327e-06
5.1317e-06
-2.82053e-06
4.96595e-06
-2.8079e-06
4.80683e-06
-2.79463e-06
4.65423e-06
-2.7806e-06
4.50802e-06
-2.76568e-06
4.36804e-06
-2.74978e-06
4.23411e-06
-2.73283e-06
4.10606e-06
-2.71476e-06
3.98371e-06
-2.69555e-06
3.86685e-06
-2.67517e-06
3.7553e-06
-2.65362e-06
3.64887e-06
-2.6309e-06
3.54734e-06
-2.60704e-06
3.45054e-06
-2.58206e-06
3.35828e-06
-2.556e-06
3.27036e-06
-2.52891e-06
3.18659e-06
-2.50083e-06
3.10681e-06
-2.47182e-06
3.03084e-06
-2.44193e-06
2.9585e-06
-2.41124e-06
2.88964e-06
-2.37979e-06
2.8241e-06
-2.34766e-06
2.76171e-06
-2.3149e-06
2.70235e-06
-2.28157e-06
2.64586e-06
-2.24775e-06
2.5921e-06
-2.21349e-06
2.54095e-06
-2.17886e-06
2.49227e-06
-2.1439e-06
2.44596e-06
-2.10868e-06
2.40189e-06
-2.07326e-06
2.35995e-06
-2.03768e-06
-2.002e-06
2.32004e-06
6.59005e-06
6.35856e-06
6.13423e-06
-2.66863e-06
5.91731e-06
-2.66344e-06
5.70795e-06
-2.65886e-06
5.50624e-06
-2.65464e-06
5.3122e-06
-2.65054e-06
5.12579e-06
-2.64629e-06
4.94694e-06
-2.64168e-06
4.77552e-06
-2.63647e-06
4.61138e-06
-2.6305e-06
4.45436e-06
-2.62358e-06
4.30427e-06
-2.61559e-06
4.1609e-06
-2.60641e-06
4.02405e-06
-2.59597e-06
3.89348e-06
-2.5842e-06
3.76899e-06
-2.57106e-06
3.65035e-06
-2.55653e-06
3.53733e-06
-2.5406e-06
3.4297e-06
-2.52328e-06
3.32726e-06
-2.50459e-06
3.22977e-06
-2.48458e-06
3.13704e-06
-2.46327e-06
3.04885e-06
-2.44072e-06
2.965e-06
-2.41698e-06
2.8853e-06
-2.39212e-06
2.80955e-06
-2.36619e-06
2.73758e-06
-2.33927e-06
2.6692e-06
-2.31142e-06
2.60425e-06
-2.2827e-06
2.54256e-06
-2.2532e-06
2.48397e-06
-2.22298e-06
2.42832e-06
-2.19211e-06
2.37548e-06
-2.16065e-06
2.3253e-06
-2.12868e-06
2.27765e-06
-2.09625e-06
2.2324e-06
-2.06343e-06
2.18943e-06
-2.03029e-06
2.14863e-06
-1.99688e-06
-1.96325e-06
2.10988e-06
5.94159e-06
5.71547e-06
5.49796e-06
5.28906e-06
5.0887e-06
-2.45018e-06
4.89677e-06
-2.45437e-06
4.71312e-06
-2.45803e-06
4.53757e-06
-2.46092e-06
4.36991e-06
-2.46283e-06
4.2099e-06
-2.46357e-06
4.05731e-06
-2.463e-06
3.91188e-06
-2.46099e-06
3.77337e-06
-2.45746e-06
3.64152e-06
-2.45235e-06
3.51606e-06
-2.44561e-06
3.39675e-06
-2.43722e-06
3.28333e-06
-2.42718e-06
3.17556e-06
-2.41551e-06
3.07319e-06
-2.40222e-06
2.97599e-06
-2.38737e-06
2.88372e-06
-2.371e-06
2.79615e-06
-2.35315e-06
2.71308e-06
-2.3339e-06
2.63428e-06
-2.31331e-06
2.55954e-06
-2.29146e-06
2.48868e-06
-2.2684e-06
2.4215e-06
-2.24423e-06
2.35782e-06
-2.21902e-06
2.29746e-06
-2.19284e-06
2.24025e-06
-2.16578e-06
2.18605e-06
-2.1379e-06
2.13468e-06
-2.10929e-06
2.08602e-06
-2.08001e-06
2.03991e-06
-2.05014e-06
1.99622e-06
-2.01975e-06
1.95484e-06
-1.9889e-06
1.91562e-06
-1.95766e-06
-1.9261e-06
1.87847e-06
4.81601e-06
-2.24564e-06
4.62063e-06
-2.25899e-06
4.43418e-06
-2.27158e-06
4.25639e-06
-2.28314e-06
4.08701e-06
-2.29345e-06
3.92575e-06
-2.30231e-06
3.77231e-06
-2.30956e-06
3.62641e-06
-2.31509e-06
3.48774e-06
-2.3188e-06
3.35603e-06
-2.32063e-06
3.23096e-06
-2.32054e-06
3.11228e-06
-2.31853e-06
2.99968e-06
-2.31458e-06
2.89291e-06
-2.30873e-06
2.79169e-06
-2.30101e-06
2.69577e-06
-2.29145e-06
2.60489e-06
-2.28012e-06
2.51882e-06
-2.26708e-06
2.43733e-06
-2.25241e-06
2.36019e-06
-2.23617e-06
2.28719e-06
-2.21845e-06
2.21811e-06
-2.19933e-06
2.15278e-06
-2.1789e-06
2.09098e-06
-2.15723e-06
2.03255e-06
-2.13441e-06
1.9773e-06
-2.11053e-06
1.92507e-06
-2.08567e-06
1.87571e-06
-2.05992e-06
1.82905e-06
-2.03335e-06
1.78495e-06
-2.00605e-06
1.74329e-06
-1.97808e-06
1.70391e-06
-1.94953e-06
1.66671e-06
-1.92046e-06
-1.89095e-06
1.63156e-06
4.49818e-06
-2.03927e-06
4.30156e-06
-2.06237e-06
4.11439e-06
-2.0844e-06
3.93634e-06
-2.10509e-06
3.76709e-06
-2.1242e-06
3.6063e-06
-2.14152e-06
3.45365e-06
-2.15691e-06
3.3088e-06
-2.17023e-06
3.17141e-06
-2.18141e-06
3.04118e-06
-2.19039e-06
2.91778e-06
-2.19714e-06
2.8009e-06
-2.20165e-06
2.69025e-06
-2.20393e-06
2.58554e-06
-2.20402e-06
2.48647e-06
-2.20194e-06
2.39279e-06
-2.19777e-06
2.30423e-06
-2.19157e-06
2.22055e-06
-2.1834e-06
2.14149e-06
-2.17335e-06
2.06683e-06
-2.16151e-06
1.99634e-06
-2.14796e-06
1.92981e-06
-2.1328e-06
1.86703e-06
-2.11611e-06
1.8078e-06
-2.098e-06
1.75193e-06
-2.07855e-06
1.69926e-06
-2.05785e-06
1.6496e-06
-2.03601e-06
1.60278e-06
-2.01311e-06
1.55866e-06
-1.98923e-06
1.51709e-06
-1.96447e-06
1.47792e-06
-1.93891e-06
1.44102e-06
-1.91263e-06
1.40626e-06
-1.88571e-06
-1.85821e-06
1.37353e-06
4.1425e-06
-1.83363e-06
3.94703e-06
-1.8669e-06
3.76137e-06
-1.89874e-06
3.58514e-06
-1.92886e-06
3.41796e-06
-1.95702e-06
3.25946e-06
-1.98302e-06
3.10928e-06
-2.00672e-06
2.96704e-06
-2.028e-06
2.8324e-06
-2.04678e-06
2.70502e-06
-2.06301e-06
2.58456e-06
-2.07668e-06
2.47069e-06
-2.08779e-06
2.36312e-06
-2.09635e-06
2.26152e-06
-2.10242e-06
2.16562e-06
-2.10604e-06
2.07513e-06
-2.10728e-06
1.98978e-06
-2.10622e-06
1.90932e-06
-2.10293e-06
1.83348e-06
-2.09752e-06
1.76204e-06
-2.09007e-06
1.69476e-06
-2.08068e-06
1.63142e-06
-2.06946e-06
1.57181e-06
-2.0565e-06
1.51573e-06
-2.04192e-06
1.46299e-06
-2.0258e-06
1.4134e-06
-2.00826e-06
1.36679e-06
-1.9894e-06
1.32299e-06
-1.96931e-06
1.28184e-06
-1.94809e-06
1.2432e-06
-1.92583e-06
1.20692e-06
-1.90263e-06
1.17286e-06
-1.87857e-06
1.1409e-06
-1.85374e-06
-1.82822e-06
1.11091e-06
3.75767e-06
3.56576e-06
-1.675e-06
3.38384e-06
-1.71682e-06
3.21148e-06
-1.7565e-06
3.04828e-06
-1.79382e-06
2.89383e-06
-1.82857e-06
2.74774e-06
-1.86063e-06
2.60963e-06
-1.88989e-06
2.47914e-06
-1.91628e-06
2.35591e-06
-1.93978e-06
2.23959e-06
-1.96036e-06
2.12985e-06
-1.97805e-06
2.02637e-06
-1.99288e-06
1.92886e-06
-2.0049e-06
1.837e-06
-2.01418e-06
1.75051e-06
-2.02079e-06
1.66912e-06
-2.02483e-06
1.59257e-06
-2.02638e-06
1.52061e-06
-2.02555e-06
1.45299e-06
-2.02245e-06
1.38947e-06
-2.01717e-06
1.32985e-06
-2.00984e-06
1.2739e-06
-2.00056e-06
1.22143e-06
-1.98944e-06
1.17223e-06
-1.97661e-06
1.12613e-06
-1.96217e-06
1.08295e-06
-1.94622e-06
1.04252e-06
-1.92888e-06
1.00469e-06
-1.91025e-06
9.69291e-07
-1.89044e-06
9.36192e-07
-1.86953e-06
9.05254e-07
-1.84763e-06
8.76346e-07
-1.82483e-06
-1.80122e-06
8.49345e-07
3.16764e-06
-1.4889e-06
2.9915e-06
-1.54068e-06
2.82488e-06
-1.58988e-06
2.66736e-06
-1.63629e-06
2.51851e-06
-1.67973e-06
2.37794e-06
-1.72006e-06
2.24527e-06
-1.75722e-06
2.12011e-06
-1.79113e-06
2.00212e-06
-1.82178e-06
1.89094e-06
-1.84918e-06
1.78625e-06
-1.87336e-06
1.68773e-06
-1.89436e-06
1.59506e-06
-1.91224e-06
1.50796e-06
-1.92708e-06
1.42615e-06
-1.93898e-06
1.34934e-06
-1.94802e-06
1.27727e-06
-1.95432e-06
1.2097e-06
-1.95798e-06
1.14639e-06
-1.95913e-06
1.08709e-06
-1.95788e-06
1.03161e-06
-1.95435e-06
9.79707e-07
-1.94866e-06
9.31198e-07
-1.94093e-06
8.85887e-07
-1.9313e-06
8.43587e-07
-1.91987e-06
8.04126e-07
-1.90676e-06
7.67334e-07
-1.89209e-06
7.33055e-07
-1.87597e-06
7.01136e-07
-1.85852e-06
6.71435e-07
-1.83983e-06
6.43816e-07
-1.82001e-06
6.18149e-07
-1.79917e-06
-1.77738e-06
5.94313e-07
2.76338e-06
-1.31056e-06
2.59479e-06
-1.37209e-06
2.43551e-06
-1.4306e-06
2.2851e-06
-1.48588e-06
2.14316e-06
-1.53778e-06
2.00928e-06
-1.58619e-06
1.8831e-06
-1.63103e-06
1.76424e-06
-1.67227e-06
1.65236e-06
-1.7099e-06
1.54711e-06
-1.74394e-06
1.44818e-06
-1.77443e-06
1.35525e-06
-1.80143e-06
1.26803e-06
-1.82501e-06
1.18622e-06
-1.84527e-06
1.10954e-06
-1.8623e-06
1.03774e-06
-1.87622e-06
9.70558e-07
-1.88713e-06
9.0774e-07
-1.89517e-06
8.49056e-07
-1.90045e-06
7.94277e-07
-1.9031e-06
7.43188e-07
-1.90326e-06
6.9558e-07
-1.90105e-06
6.51255e-07
-1.89661e-06
6.10022e-07
-1.89006e-06
5.71701e-07
-1.88154e-06
5.36118e-07
-1.87117e-06
5.03109e-07
-1.85908e-06
4.72517e-07
-1.84538e-06
4.44192e-07
-1.83019e-06
4.17993e-07
-1.81363e-06
3.93786e-07
-1.79581e-06
3.71443e-07
-1.77682e-06
-1.75678e-06
3.50844e-07
2.36368e-06
2.20402e-06
-1.21243e-06
2.0533e-06
-1.27988e-06
1.9111e-06
-1.34369e-06
1.77704e-06
-1.40372e-06
1.65072e-06
-1.45988e-06
1.53179e-06
-1.51211e-06
1.41991e-06
-1.56039e-06
1.31474e-06
-1.60473e-06
1.21595e-06
-1.64515e-06
1.12325e-06
-1.68172e-06
1.03633e-06
-1.71451e-06
9.54908e-07
-1.74359e-06
8.78707e-07
-1.76907e-06
8.07461e-07
-1.79106e-06
7.40914e-07
-1.80967e-06
6.78818e-07
-1.82504e-06
6.20937e-07
-1.83729e-06
5.6704e-07
-1.84655e-06
5.1691e-07
-1.85297e-06
4.70335e-07
-1.85668e-06
4.27112e-07
-1.85783e-06
3.87049e-07
-1.85655e-06
3.4996e-07
-1.85298e-06
3.15667e-07
-1.84725e-06
2.84002e-07
-1.83951e-06
2.54803e-07
-1.82988e-06
2.27915e-07
-1.81849e-06
2.03193e-07
-1.80547e-06
1.80497e-07
-1.79094e-06
1.59697e-07
-1.77501e-06
1.40666e-07
-1.75779e-06
-1.7394e-06
1.23285e-07
1.82889e-06
-1.06266e-06
1.68756e-06
-1.13855e-06
1.5543e-06
-1.21042e-06
1.42873e-06
-1.27815e-06
1.3105e-06
-1.34165e-06
1.19929e-06
-1.40089e-06
1.09477e-06
-1.45587e-06
9.96629e-07
-1.50659e-06
9.04577e-07
-1.5531e-06
8.18326e-07
-1.59547e-06
7.37596e-07
-1.63378e-06
6.62119e-07
-1.66811e-06
5.91636e-07
-1.69859e-06
5.25894e-07
-1.72532e-06
4.64653e-07
-1.74843e-06
4.07677e-07
-1.76806e-06
3.54739e-07
-1.78435e-06
3.05622e-07
-1.79743e-06
2.60115e-07
-1.80746e-06
2.18016e-07
-1.81458e-06
1.79129e-07
-1.81894e-06
1.43268e-07
-1.82068e-06
1.10252e-07
-1.81996e-06
7.99106e-08
-1.81691e-06
5.2079e-08
-1.81168e-06
2.65992e-08
-1.8044e-06
3.32179e-09
-1.79522e-06
-1.78959e-08
-1.78425e-06
-3.71903e-08
-1.77164e-06
-5.469e-08
-1.75751e-06
-7.05183e-08
-1.74196e-06
-1.72513e-06
-8.47898e-08
1.47777e-06
-9.23315e-07
1.34628e-06
-1.00706e-06
1.2223e-06
-1.08644e-06
1.10551e-06
-1.16136e-06
9.95598e-07
-1.23174e-06
8.9226e-07
-1.29756e-06
7.95213e-07
-1.35882e-06
7.04178e-07
-1.41555e-06
6.18887e-07
-1.46781e-06
5.39079e-07
-1.51566e-06
4.645e-07
-1.5592e-06
3.94903e-07
-1.59852e-06
3.30049e-07
-1.63373e-06
2.69705e-07
-1.66497e-06
2.13645e-07
-1.69237e-06
1.61649e-07
-1.71607e-06
1.13505e-07
-1.7362e-06
6.90056e-08
-1.75293e-06
2.79528e-08
-1.76641e-06
-9.84698e-09
-1.77678e-06
-4.45804e-08
-1.78421e-06
-7.64261e-08
-1.78884e-06
-1.05557e-07
-1.79083e-06
-1.32139e-07
-1.79033e-06
-1.5633e-07
-1.78749e-06
-1.78285e-07
-1.78245e-06
-1.98147e-07
-1.77535e-06
-2.16055e-07
-1.76634e-06
-2.32142e-07
-1.75555e-06
-2.46534e-07
-1.74311e-06
-2.59349e-07
-1.72915e-06
-1.71378e-06
-2.70702e-07
1.15744e-06
-7.94558e-07
1.03589e-06
-8.85503e-07
9.21238e-07
-9.71793e-07
8.13218e-07
-1.05334e-06
7.11558e-07
-1.13008e-06
6.16001e-07
-1.202e-06
5.26297e-07
-1.26911e-06
4.42203e-07
-1.33146e-06
3.63485e-07
-1.38909e-06
2.89911e-07
-1.44209e-06
2.21253e-07
-1.49054e-06
1.57291e-07
-1.53455e-06
9.7807e-08
-1.57425e-06
4.25895e-08
-1.60976e-06
-8.568e-09
-1.64121e-06
-5.58691e-08
-1.66876e-06
-9.95105e-08
-1.69256e-06
-1.39685e-07
-1.71276e-06
-1.76581e-07
-1.72951e-06
-2.10379e-07
-1.74298e-06
-2.41256e-07
-1.75333e-06
-2.69382e-07
-1.76071e-06
-2.94923e-07
-1.76529e-06
-3.18038e-07
-1.76721e-06
-3.38879e-07
-1.76664e-06
-3.57593e-07
-1.76373e-06
-3.74321e-07
-1.75863e-06
-3.89197e-07
-1.75147e-06
-4.02351e-07
-1.7424e-06
-4.13903e-07
-1.73156e-06
-4.2397e-07
-1.71908e-06
-1.70509e-06
-4.32664e-07
8.72947e-07
-6.76239e-07
7.61135e-07
-7.7369e-07
6.55589e-07
-8.66247e-07
5.5608e-07
-9.53827e-07
4.62388e-07
-1.03638e-06
3.74299e-07
-1.11391e-06
2.91606e-07
-1.18642e-06
2.14105e-07
-1.25396e-06
1.41595e-07
-1.31658e-06
7.38751e-08
-1.37437e-06
1.07507e-08
-1.42742e-06
-4.7973e-08
-1.47583e-06
-1.02488e-07
-1.51973e-06
-1.52983e-07
-1.55926e-06
-1.99645e-07
-1.59455e-06
-2.42659e-07
-1.62575e-06
-2.82204e-07
-1.65302e-06
-3.18459e-07
-1.6765e-06
-3.51599e-07
-1.69637e-06
-3.81791e-07
-1.71279e-06
-4.09204e-07
-1.72592e-06
-4.33998e-07
-1.73592e-06
-4.5633e-07
-1.74296e-06
-4.7635e-07
-1.74719e-06
-4.94207e-07
-1.74879e-06
-5.1004e-07
-1.7479e-06
-5.23986e-07
-1.74468e-06
-5.36175e-07
-1.73928e-06
-5.46731e-07
-1.73185e-06
-5.55772e-07
-1.72252e-06
-5.63413e-07
-1.71144e-06
-1.69874e-06
-5.69759e-07
6.27607e-07
-5.6796e-07
5.25119e-07
-6.71202e-07
4.28238e-07
-7.69366e-07
3.36787e-07
-8.62376e-07
2.50595e-07
-9.50193e-07
1.69496e-07
-1.03281e-06
9.33244e-08
-1.11025e-06
2.19168e-08
-1.18255e-06
-4.48912e-08
-1.24977e-06
-1.07264e-07
-1.312e-06
-1.65367e-07
-1.36931e-06
-2.19365e-07
-1.42183e-06
-2.69423e-07
-1.46968e-06
-3.15706e-07
-1.51298e-06
-3.58379e-07
-1.55188e-06
-3.97607e-07
-1.58652e-06
-4.33553e-07
-1.61707e-06
-4.66379e-07
-1.64368e-06
-4.96244e-07
-1.66651e-06
-5.23305e-07
-1.68573e-06
-5.47718e-07
-1.7015e-06
-5.69635e-07
-1.714e-06
-5.89202e-07
-1.72339e-06
-6.06565e-07
-1.72983e-06
-6.21862e-07
-1.73349e-06
-6.3523e-07
-1.73453e-06
-6.46799e-07
-1.73311e-06
-6.56693e-07
-1.72938e-06
-6.65035e-07
-1.7235e-06
-6.71939e-07
-1.71562e-06
-6.77515e-07
-1.70586e-06
-1.69439e-06
-6.81869e-07
4.23077e-07
-4.6914e-07
3.29329e-07
-5.77454e-07
2.40524e-07
-6.80561e-07
1.56539e-07
-7.7839e-07
7.72507e-08
-8.70905e-07
2.54087e-09
-9.58101e-07
-6.77112e-08
-1.04e-06
-1.33628e-07
-1.11663e-06
-1.95337e-07
-1.18807e-06
-2.52965e-07
-1.25437e-06
-3.06646e-07
-1.31563e-06
-3.56513e-07
-1.37197e-06
-4.02705e-07
-1.42349e-06
-4.4536e-07
-1.47032e-06
-4.84622e-07
-1.51262e-06
-5.20633e-07
-1.55051e-06
-5.53539e-07
-1.58416e-06
-5.83483e-07
-1.61373e-06
-6.10612e-07
-1.63938e-06
-6.3507e-07
-1.66127e-06
-6.56998e-07
-1.67958e-06
-6.7654e-07
-1.69446e-06
-6.93834e-07
-1.7061e-06
-7.09016e-07
-1.71465e-06
-7.22219e-07
-1.72029e-06
-7.33573e-07
-1.72318e-06
-7.43202e-07
-1.72348e-06
-7.51229e-07
-1.72136e-06
-7.5777e-07
-1.71696e-06
-7.62937e-07
-1.71045e-06
-7.66838e-07
-1.70196e-06
-1.69165e-06
-7.69574e-07
2.59484e-07
-3.79089e-07
1.73792e-07
-4.91762e-07
9.23836e-08
-5.99153e-07
1.51867e-08
-7.01193e-07
-5.78706e-08
-7.97848e-07
-1.26862e-07
-8.8911e-07
-1.91863e-07
-9.74997e-07
-2.52957e-07
-1.05554e-06
-3.10228e-07
-1.13079e-06
-3.6377e-07
-1.20083e-06
-4.1368e-07
-1.26572e-06
-4.60062e-07
-1.32558e-06
-5.03024e-07
-1.38052e-06
-5.42681e-07
-1.43067e-06
-5.7915e-07
-1.47615e-06
-6.12552e-07
-1.51711e-06
-6.43014e-07
-1.5537e-06
-6.70661e-07
-1.58609e-06
-6.95625e-07
-1.61442e-06
-7.18036e-07
-1.63886e-06
-7.38024e-07
-1.65959e-06
-7.5572e-07
-1.67676e-06
-7.71255e-07
-1.69056e-06
-7.84756e-07
-1.70115e-06
-7.96349e-07
-1.70869e-06
-8.06159e-07
-1.71337e-06
-8.14306e-07
-1.71533e-06
-8.20907e-07
-1.71476e-06
-8.26075e-07
-1.71179e-06
-8.29918e-07
-1.70661e-06
-8.32542e-07
-1.69934e-06
-1.69014e-06
-8.34047e-07
1.35629e-07
-2.97067e-07
5.72643e-08
-4.13397e-07
-1.74664e-08
-5.24422e-07
-8.85856e-08
-6.30074e-07
-1.56118e-07
-7.30316e-07
-2.2009e-07
-8.25137e-07
-2.80536e-07
-9.14551e-07
-3.37495e-07
-9.98583e-07
-3.91014e-07
-1.07728e-06
-4.41148e-07
-1.15069e-06
-4.8796e-07
-1.21891e-06
-5.31521e-07
-1.28202e-06
-5.71909e-07
-1.34013e-06
-6.09212e-07
-1.39336e-06
-6.43522e-07
-1.44184e-06
-6.74938e-07
-1.48569e-06
-7.03565e-07
-1.52508e-06
-7.29512e-07
-1.56014e-06
-7.52893e-07
-1.59104e-06
-7.73824e-07
-1.61793e-06
-7.92423e-07
-1.64099e-06
-8.0881e-07
-1.66038e-06
-8.23106e-07
-1.67626e-06
-8.35431e-07
-1.68882e-06
-8.45904e-07
-1.69822e-06
-8.54643e-07
-1.70463e-06
-8.61763e-07
-1.70821e-06
-8.67379e-07
-1.70914e-06
-8.71598e-07
-1.70758e-06
-8.74528e-07
-1.70368e-06
-8.76272e-07
-1.6976e-06
-1.68949e-06
-8.76927e-07
4.92373e-08
-2.22333e-07
-2.25274e-08
-3.41632e-07
-9.12956e-08
-4.55654e-07
-1.57043e-07
-5.64327e-07
-2.19748e-07
-6.67611e-07
-2.79394e-07
-7.65491e-07
-3.35971e-07
-8.57973e-07
-3.89478e-07
-9.45076e-07
-4.39921e-07
-1.02683e-06
-4.87317e-07
-1.1033e-06
-5.31694e-07
-1.17453e-06
-5.7309e-07
-1.24063e-06
-6.11552e-07
-1.30167e-06
-6.47138e-07
-1.35778e-06
-6.79916e-07
-1.40906e-06
-7.0996e-07
-1.45565e-06
-7.37355e-07
-1.49768e-06
-7.6219e-07
-1.5353e-06
-7.84561e-07
-1.56866e-06
-8.04571e-07
-1.59792e-06
-8.22324e-07
-1.62324e-06
-8.37928e-07
-1.64477e-06
-8.51495e-07
-1.6627e-06
-8.63137e-07
-1.67718e-06
-8.72966e-07
-1.68839e-06
-8.81094e-07
-1.6965e-06
-8.87632e-07
-1.70168e-06
-8.92688e-07
-1.70408e-06
-8.96371e-07
-1.70389e-06
-8.98784e-07
-1.70126e-06
-9.00027e-07
-1.69635e-06
-1.68932e-06
-9.00198e-07
-2.80376e-09
-1.54178e-07
-6.86588e-08
-2.75777e-07
-1.32143e-07
-3.9217e-07
-1.93186e-07
-5.03283e-07
-2.51724e-07
-6.09073e-07
-3.07698e-07
-7.09517e-07
-3.61057e-07
-8.04614e-07
-4.11758e-07
-8.94375e-07
-4.59767e-07
-9.78824e-07
-5.05063e-07
-1.058e-06
-5.47637e-07
-1.13196e-06
-5.87492e-07
-1.20077e-06
-6.24646e-07
-1.26452e-06
-6.59126e-07
-1.3233e-06
-6.90971e-07
-1.37721e-06
-7.20231e-07
-1.42639e-06
-7.4697e-07
-1.47094e-06
-7.71255e-07
-1.51102e-06
-7.93166e-07
-1.54675e-06
-8.12788e-07
-1.5783e-06
-8.30213e-07
-1.60581e-06
-8.45537e-07
-1.62945e-06
-8.58861e-07
-1.64937e-06
-8.70289e-07
-1.66575e-06
-8.79926e-07
-1.67876e-06
-8.87878e-07
-1.68855e-06
-8.94252e-07
-1.6953e-06
-8.99152e-07
-1.69918e-06
-9.02684e-07
-1.70036e-06
-9.04948e-07
-1.699e-06
-9.06045e-07
-1.69526e-06
-1.68929e-06
-9.0607e-07
-2.41903e-08
-9.19568e-08
-8.4767e-08
-2.152e-07
-1.43585e-07
-3.33352e-07
-2.00533e-07
-4.46335e-07
-2.55505e-07
-5.541e-07
-3.08403e-07
-6.56619e-07
-3.59136e-07
-7.53881e-07
-4.0762e-07
-8.45891e-07
-4.53782e-07
-9.32662e-07
-4.97562e-07
-1.01422e-06
-5.38914e-07
-1.09061e-06
-5.77807e-07
-1.16188e-06
-6.14224e-07
-1.2281e-06
-6.48161e-07
-1.28936e-06
-6.79628e-07
-1.34575e-06
-7.08653e-07
-1.39736e-06
-7.35271e-07
-1.44433e-06
-7.5953e-07
-1.48676e-06
-7.81491e-07
-1.52479e-06
-8.01223e-07
-1.55857e-06
-8.18801e-07
-1.58823e-06
-8.34312e-07
-1.61394e-06
-8.47844e-07
-1.63584e-06
-8.59491e-07
-1.65411e-06
-8.69354e-07
-1.66889e-06
-8.77531e-07
-1.68037e-06
-8.84125e-07
-1.68871e-06
-8.89237e-07
-1.69407e-06
-8.9297e-07
-1.69663e-06
-8.95422e-07
-1.69655e-06
-8.96694e-07
-1.69398e-06
-1.68911e-06
-8.9688e-07
-1.89843e-08
-7.48391e-08
-1.59345e-07
-1.29535e-07
-2.78655e-07
-1.82923e-07
-3.92948e-07
-2.34857e-07
-5.02166e-07
-2.85201e-07
-6.06275e-07
-3.33826e-07
-7.05256e-07
-3.80611e-07
-7.99106e-07
-4.25444e-07
-8.87829e-07
-4.68226e-07
-9.71438e-07
-5.08873e-07
-1.04996e-06
-5.47318e-07
-1.12343e-06
-5.83508e-07
-1.19191e-06
-6.17409e-07
-1.25546e-06
-6.49002e-07
-1.31415e-06
-6.78283e-07
-1.36808e-06
-7.05264e-07
-1.41735e-06
-7.29972e-07
-1.46205e-06
-7.52446e-07
-1.50232e-06
-7.72736e-07
-1.53828e-06
-7.90904e-07
-1.57006e-06
-8.07021e-07
-1.59782e-06
-8.21167e-07
-1.6217e-06
-8.33427e-07
-1.64185e-06
-8.4389e-07
-1.65843e-06
-8.52652e-07
-1.67161e-06
-8.5981e-07
-1.68155e-06
-8.65461e-07
-1.68842e-06
-8.69707e-07
-1.69238e-06
-8.72645e-07
-1.69361e-06
-8.74373e-07
-1.69226e-06
-1.68849e-06
-8.74988e-07
-4.30252e-08
-1.07738e-07
-9.40615e-08
-2.27619e-07
-1.44342e-07
-3.42667e-07
-1.93686e-07
-4.52822e-07
-2.41918e-07
-5.58043e-07
-2.88873e-07
-6.58301e-07
-3.34396e-07
-7.53584e-07
-3.78338e-07
-8.43887e-07
-4.20562e-07
-9.29214e-07
-4.60946e-07
-1.00958e-06
-4.99385e-07
-1.08499e-06
-5.35791e-07
-1.15551e-06
-5.70096e-07
-1.22115e-06
-6.02249e-07
-1.282e-06
-6.32218e-07
-1.33811e-06
-6.59988e-07
-1.38958e-06
-6.8556e-07
-1.43648e-06
-7.08952e-07
-1.47893e-06
-7.30196e-07
-1.51703e-06
-7.49338e-07
-1.55092e-06
-7.66433e-07
-1.58072e-06
-7.81549e-07
-1.60658e-06
-7.94762e-07
-1.62863e-06
-8.06154e-07
-1.64704e-06
-8.15813e-07
-1.66195e-06
-8.23832e-07
-1.67353e-06
-8.30307e-07
-1.68195e-06
-8.35334e-07
-1.68736e-06
-8.39011e-07
-1.68993e-06
-8.41437e-07
-1.68983e-06
-1.68722e-06
-8.42707e-07
6.51047e-09
-5.99915e-08
-4.12418e-08
-1.79867e-07
-8.87828e-08
-2.95126e-07
-1.35898e-07
-4.05707e-07
-1.82377e-07
-5.11563e-07
-2.28019e-07
-6.12659e-07
-2.72633e-07
-7.0897e-07
-3.16037e-07
-8.00483e-07
-3.58059e-07
-8.87192e-07
-3.9854e-07
-9.69095e-07
-4.37337e-07
-1.0462e-06
-4.74325e-07
-1.11852e-06
-5.09401e-07
-1.18608e-06
-5.42481e-07
-1.24892e-06
-5.73501e-07
-1.30709e-06
-6.02418e-07
-1.36066e-06
-6.29207e-07
-1.40969e-06
-6.53864e-07
-1.45427e-06
-6.76399e-07
-1.4945e-06
-6.9684e-07
-1.53048e-06
-7.15228e-07
-1.56234e-06
-7.31618e-07
-1.59019e-06
-7.46074e-07
-1.61418e-06
-7.58671e-07
-1.63444e-06
-7.6949e-07
-1.65113e-06
-7.7862e-07
-1.6644e-06
-7.86153e-07
-1.67441e-06
-7.92184e-07
-1.68132e-06
-7.96811e-07
-1.6853e-06
-8.00131e-07
-1.68651e-06
-1.68511e-06
-8.02241e-07
6.97179e-08
-1.58018e-08
2.49613e-08
-1.3511e-07
-2.01194e-08
-2.50045e-07
-6.52806e-08
-3.60546e-07
-1.10281e-07
-4.66563e-07
-1.54884e-07
-5.68056e-07
-1.98862e-07
-6.64992e-07
-2.41999e-07
-7.57346e-07
-2.84091e-07
-8.451e-07
-3.24945e-07
-9.28241e-07
-3.64381e-07
-1.00676e-06
-4.02239e-07
-1.08066e-06
-4.38377e-07
-1.14994e-06
-4.72677e-07
-1.21462e-06
-5.05041e-07
-1.27473e-06
-5.35397e-07
-1.3303e-06
-5.63693e-07
-1.38139e-06
-5.89897e-07
-1.42807e-06
-6.13999e-07
-1.4704e-06
-6.36007e-07
-1.50847e-06
-6.55946e-07
-1.5424e-06
-6.73857e-07
-1.57228e-06
-6.89793e-07
-1.59824e-06
-7.0382e-07
-1.62041e-06
-7.16013e-07
-1.63894e-06
-7.26455e-07
-1.65396e-06
-7.35235e-07
-1.66563e-06
-7.42446e-07
-1.67411e-06
-7.48186e-07
-1.67956e-06
-7.52552e-07
-1.68214e-06
-1.68202e-06
-7.55644e-07
1.42754e-07
1.00787e-07
5.79724e-08
1.45772e-08
-3.17151e-07
-2.91297e-08
-4.22856e-07
-7.28817e-08
-5.24304e-07
-1.16417e-07
-6.21457e-07
-1.59483e-07
-7.1428e-07
-2.01841e-07
-8.02743e-07
-2.43263e-07
-8.86818e-07
-2.83539e-07
-9.66485e-07
-3.22472e-07
-1.04173e-06
-3.59886e-07
-1.11253e-06
-3.95624e-07
-1.17888e-06
-4.29556e-07
-1.2408e-06
-4.61575e-07
-1.29828e-06
-4.91599e-07
-1.35137e-06
-5.19571e-07
-1.40009e-06
-5.45456e-07
-1.44451e-06
-5.69242e-07
-1.48469e-06
-5.90935e-07
-1.5207e-06
-6.10561e-07
-1.55265e-06
-6.28162e-07
-1.58064e-06
-6.43794e-07
-1.60478e-06
-6.57525e-07
-1.62521e-06
-6.69431e-07
-1.64205e-06
-6.796e-07
-1.65546e-06
-6.88124e-07