/*--------------------------------*- C++ -*----------------------------------*\
  =========                 |
  \\      /  F ield         | OpenFOAM: The Open Source CFD Toolbox
   \\    /   O peration     | Website:  https://openfoam.org
    \\  /    A nd           | Version:  10
     \\/     M anipulation  |
\*---------------------------------------------------------------------------*/
FoamFile
{
    format      ascii;
    class       volScalarField;
    location    "79000";
    object      yPlus;
}
// * * * * * * * * * * * * * * * * * * * * * * * * * * * * * * * * * * * * * //

dimensions      [0 0 0 0 0 0 0];

internalField   uniform 0;

boundaryField
{
    right
    {
        type            cyclic;
    }
    left
    {
        type            cyclic;
    }
    outerWall
    {
        type            calculated;
        value           nonuniform List<scalar> 0();
    }
    stirrerWall
    {
        type            calculated;
        value           nonuniform List<scalar> 
98
(
3.36996
3.15997
2.95589
2.76211
2.58357
2.4246
2.28774
2.17404
2.08367
2.01652
1.97304
1.97397
2.05353
2.17503
2.33771
2.55223
2.86569
3.45016
5.42297
12.7825
19.8901
11.6262
11.898
12.502
13.0357
13.2909
13.4404
13.4525
13.3603
13.1861
12.9834
12.7579
12.494
12.2377
11.997
11.7845
11.6054
12.094
12.1235
11.6298
11.3012
11.38
11.4025
11.3892
11.3719
12.0208
12.1444
12.1786
12.2029
12.2317
12.2672
12.3091
12.3572
12.411
12.4698
12.5334
12.5888
12.6335
12.6651
12.659
21.9416
22.2158
22.4939
22.7731
23.0588
23.3499
23.6472
23.9514
24.2628
24.5819
24.9096
25.2464
25.5924
25.9486
26.3173
26.6993
27.0936
27.4997
27.9228
28.3731
28.8533
29.342
29.8394
30.3374
30.904
31.5341
32.2189
32.9575
33.7233
34.4804
35.2956
36.2315
37.3321
38.6215
40.0414
41.5154
43.1979
45.3764
)
;
    }
    top
    {
        type            empty;
    }
    bottom
    {
        type            empty;
    }
    procBoundary0to1
    {
        type            processor;
        value           uniform 0;
    }
    procBoundary0to3
    {
        type            processor;
        value           uniform 0;
    }
}


// ************************************************************************* //
