/*--------------------------------*- C++ -*----------------------------------*\
  =========                 |
  \\      /  F ield         | OpenFOAM: The Open Source CFD Toolbox
   \\    /   O peration     | Website:  https://openfoam.org
    \\  /    A nd           | Version:  10
     \\/     M anipulation  |
\*---------------------------------------------------------------------------*/
FoamFile
{
    format      ascii;
    class       volScalarField;
    location    "53000";
    object      Co;
}
// * * * * * * * * * * * * * * * * * * * * * * * * * * * * * * * * * * * * * //

dimensions      [0 0 0 0 0 0 0];

internalField   nonuniform List<scalar> 
17981
(
259.502
262.209
264.834
267.377
269.847
272.254
274.607
276.916
279.188
281.433
283.656
285.866
288.069
290.27
292.475
294.69
296.917
299.162
301.429
303.721
306.041
308.392
310.777
313.2
315.662
318.166
320.715
323.311
325.956
328.653
331.404
334.212
337.078
340.005
342.995
346.051
349.175
352.37
355.638
358.981
362.402
365.904
369.489
373.161
376.922
380.774
384.721
388.767
271.602
274.168
276.639
279.026
281.341
283.595
285.798
287.96
290.091
292.201
294.297
296.387
298.478
300.577
302.689
304.818
306.971
309.15
311.359
313.603
315.884
318.205
320.568
322.977
325.433
327.94
330.499
333.112
335.782
338.511
341.301
344.155
347.073
350.059
353.115
356.243
359.445
362.723
366.081
369.52
373.044
376.653
380.353
384.144
388.03
392.014
396.099
400.288
282.649
285.013
287.28
289.461
291.57
293.618
295.619
297.583
299.523
301.447
303.366
305.287
307.219
309.168
311.139
313.138
315.17
317.239
319.348
321.5
323.698
325.946
328.244
330.597
333.005
335.471
337.996
340.583
343.234
345.95
348.734
351.587
354.511
357.508
360.581
363.73
366.96
370.27
373.665
377.146
380.716
384.377
388.132
391.983
395.934
399.986
404.144
408.409
300.484
302.274
304.019
305.732
307.427
309.114
310.805
312.509
314.234
315.986
317.772
319.597
321.465
323.381
325.348
327.367
329.443
331.577
333.772
336.028
338.348
340.733
343.185
345.706
348.296
350.958
353.693
356.503
359.389
362.353
365.397
368.522
371.731
375.025
378.407
381.879
385.442
389.1
392.855
396.709
400.664
404.725
408.892
413.17
307.977
309.446
310.873
312.275
313.666
315.06
316.469
317.902
319.368
320.875
322.429
324.035
325.697
327.418
329.202
331.05
332.964
334.947
336.998
339.121
341.315
343.583
345.924
348.34
350.832
353.402
356.049
358.776
361.584
364.473
367.446
370.504
373.649
376.881
380.204
383.618
387.127
390.731
394.433
398.236
402.142
406.154
410.273
414.503
313.929
315.006
316.047
317.072
318.097
319.138
320.209
321.32
322.48
323.697
324.976
326.322
327.739
329.229
330.795
332.437
334.156
335.955
337.833
339.79
341.828
343.946
346.145
348.425
350.787
353.231
355.757
358.367
361.062
363.841
366.707
369.659
372.701
375.831
379.053
382.368
385.777
389.282
392.886
396.589
400.395
404.306
408.324
412.451
318.729
319.309
319.887
320.484
321.115
321.796
322.537
323.348
324.235
325.204
326.257
327.398
328.628
329.948
331.358
332.858
334.448
336.128
337.896
339.753
341.698
343.73
345.849
348.055
350.348
352.727
355.194
357.746
360.387
363.115
365.931
368.836
371.832
374.918
378.097
381.369
384.736
388.2
391.763
395.425
399.19
403.059
407.034
320.421
320.536
320.713
320.966
321.305
321.738
322.271
322.908
323.65
324.499
325.454
326.514
327.679
328.947
330.316
331.786
333.353
335.016
336.775
338.627
340.571
342.607
344.732
346.947
349.251
351.643
354.123
356.691
359.348
362.093
364.927
367.851
370.865
373.97
377.168
380.459
383.845
387.327
390.908
394.589
398.371
317.921
317.622
317.431
317.357
317.406
317.582
317.885
318.315
318.871
319.552
320.354
321.275
322.311
323.46
324.718
326.082
327.55
329.119
330.786
332.55
334.409
336.359
338.401
340.533
342.754
345.063
347.46
349.944
352.514
355.171
357.915
360.745
363.664
366.67
369.765
372.95
376.227
379.595
383.057
386.614
310.953
310.484
310.168
310.005
309.995
310.134
310.418
310.844
311.406
312.1
312.921
313.864
314.925
316.099
317.383
318.772
320.264
321.855
323.543
325.325
327.199
329.162
331.214
333.352
335.575
337.882
340.272
342.745
345.301
347.938
350.657
353.459
356.343
359.31
362.362
365.498
368.72
372.029
299.224
299.114
299.168
299.38
299.741
300.246
300.887
301.658
302.553
303.567
304.695
305.931
307.271
308.711
310.248
311.877
313.596
315.402
317.293
319.267
321.321
323.455
325.668
327.957
330.322
332.764
335.28
337.872
340.538
343.28
346.096
348.989
351.959
355.005
285.628
285.324
285.2
285.246
285.453
285.811
286.313
286.95
287.716
288.603
289.605
290.716
291.931
293.245
294.653
296.151
297.736
299.404
301.153
302.98
304.883
306.859
308.906
311.024
313.211
315.465
317.787
320.174
322.628
325.146
327.731
330.381
333.096
335.878
269.414
268.988
268.753
268.697
268.808
269.077
269.493
270.047
270.731
271.536
272.455
273.482
274.61
275.834
277.149
278.55
280.033
281.594
283.229
284.936
286.711
288.552
290.457
292.423
294.45
296.535
298.677
300.875
303.129
305.437
307.799
310.216
312.685
315.209
250.888
250.422
250.155
250.071
250.158
250.404
250.797
251.328
251.986
252.763
253.651
254.643
255.731
256.909
258.173
259.516
260.934
262.422
263.977
265.595
267.273
269.007
270.796
272.637
274.528
276.467
278.452
280.482
282.555
284.671
286.829
289.029
291.268
293.548
230.045
229.828
229.795
229.931
230.224
230.661
231.231
231.924
232.73
233.641
234.648
235.746
236.926
238.183
239.512
240.906
242.363
243.876
245.443
247.06
248.723
250.43
252.177
253.964
255.786
257.643
259.533
261.454
263.404
265.384
267.39
269.424
271.483
208.364
208.281
208.377
208.636
209.046
209.594
210.267
211.055
211.948
212.938
214.015
215.174
216.405
217.704
219.065
220.481
221.948
223.462
225.018
226.612
228.242
229.903
231.594
233.31
235.051
236.813
238.595
240.395
242.21
244.041
245.884
247.74
249.607
185.942
186.068
186.364
186.816
187.41
188.131
188.968
189.911
190.949
192.072
193.273
194.543
195.876
197.265
198.703
200.185
201.707
203.263
204.85
206.462
208.097
209.752
211.422
213.106
214.801
216.504
218.212
219.925
221.64
223.355
225.068
226.779
228.486
163.756
164.316
165.021
165.858
166.813
167.873
169.027
170.264
171.574
172.95
174.382
175.863
177.387
178.948
180.54
182.157
183.796
185.453
187.122
188.8
190.485
192.172
193.859
195.544
197.222
199.183
203.559
210.021
216.294
222.381
228.287
234.016
141.894
142.769
143.781
144.916
146.159
147.494
148.911
150.397
151.942
153.538
155.175
156.847
158.547
160.269
162.007
163.758
165.515
167.276
169.037
173.99
182.282
190.532
198.577
206.417
214.056
221.496
228.738
235.787
242.645
249.317
255.806
262.116
121.01
122.223
123.575
125.053
126.636
128.301
130.028
131.807
133.626
135.477
137.352
139.245
141.149
143.061
147.277
155.533
165.407
175.078
184.543
193.8
202.849
211.69
220.324
228.752
236.974
244.995
252.815
260.439
267.87
275.112
282.169
289.045
101.528
103.09
104.777
106.582
108.493
110.49
112.555
114.67
116.81
118.958
121.278
128.122
139.341
150.38
161.231
171.888
182.348
192.605
202.657
212.5
222.135
231.559
240.773
249.777
258.572
267.162
275.547
283.732
291.72
299.514
307.12
314.542
83.5574
85.5141
87.5685
89.7161
91.9498
94.2609
96.6403
99.0715
105.599
117.02
129.087
140.992
152.738
164.317
175.718
186.934
197.958
208.782
219.403
229.815
240.018
250.007
259.784
269.347
278.698
287.837
296.768
305.493
314.015
322.34
330.471
338.413
67.1845
69.5908
72.0742
74.633
77.2597
79.9873
88.0276
101.34
114.425
127.273
139.897
152.327
164.59
176.693
188.63
200.389
211.962
223.338
234.513
245.481
256.236
266.777
277.101
287.207
297.096
306.769
316.227
325.473
334.51
343.343
351.975
360.413
52.7421
55.6436
58.5992
61.6118
68.1499
80.2394
94.283
108.177
121.873
135.343
148.573
161.576
174.383
187.024
199.504
211.813
223.938
235.87
247.6
259.122
270.429
281.519
292.387
303.033
313.454
323.652
333.629
343.386
352.926
362.253
371.373
380.289
40.4652
43.8992
47.3639
55.5498
69.2953
83.8092
98.3113
112.721
126.973
141.024
154.848
168.44
181.816
195.013
208.05
220.919
233.608
246.105
258.4
270.485
282.353
293.997
305.415
316.603
327.56
338.286
348.78
359.046
369.085
378.901
388.5
397.885
30.4342
34.4135
42.4771
55.8337
70.4404
85.2277
100.098
114.953
129.707
144.297
158.683
172.847
186.794
200.556
214.157
227.597
240.86
253.933
266.803
279.462
291.899
304.109
316.086
327.825
339.324
350.583
361.6
372.377
382.916
393.221
403.296
413.147
22.6472
29.192
40.5882
54.9683
69.6403
84.5885
99.7273
114.947
130.141
145.224
160.138
174.849
189.354
203.678
217.848
231.863
245.707
259.364
272.82
286.063
299.081
311.868
324.414
336.715
348.767
360.567
372.115
383.41
394.455
405.252
415.805
426.119
17.025
25.1353
37.8964
52.327
67.018
82.0301
97.3334
112.827
128.391
143.915
159.319
174.551
189.597
204.475
219.211
233.804
248.234
262.483
276.534
290.372
303.984
317.36
330.49
343.366
355.984
368.339
380.428
392.252
403.811
415.107
426.143
436.924
13.4346
21.2081
33.4
47.9265
62.6691
77.705
93.0837
108.757
124.61
140.515
156.365
172.089
187.655
203.077
218.378
233.55
248.571
263.419
278.075
292.521
306.741
320.722
334.451
347.92
361.12
374.046
386.694
399.061
411.147
422.953
434.482
445.738
17.8015
27.613
41.797
56.6407
71.7343
87.151
102.922
118.979
135.195
151.442
167.623
183.688
199.643
215.502
231.254
246.87
262.326
277.599
292.668
307.513
322.118
336.468
350.549
364.353
377.871
391.096
404.025
416.657
428.99
441.027
452.77
18.236
24.7649
34.7122
48.9846
64.1878
79.6752
95.5077
111.693
128.146
144.731
161.329
177.867
194.34
210.753
227.083
243.299
259.373
275.277
290.986
306.477
321.728
336.722
351.442
365.875
380.011
393.84
407.356
420.556
433.438
446.002
458.251
20.1078
27.0967
34.0024
42.4228
55.1299
70.7404
86.6661
102.947
119.567
136.426
153.395
170.378
187.351
204.307
221.213
238.034
254.736
271.287
287.656
303.816
319.741
335.408
350.796
365.89
380.675
395.138
409.272
423.069
436.527
449.644
462.421
23.1895
30.6207
37.9481
45.1723
52.2949
62.0936
76.4865
92.8954
109.655
126.727
144.011
161.405
178.859
196.346
213.824
231.254
248.596
265.812
282.865
299.722
316.351
332.725
348.817
364.608
380.077
395.211
409.996
424.424
438.489
452.188
465.52
50.4372
57.922
65.287
72.5353
83.0553
98.5638
115.843
133.402
151.163
169.066
187.064
205.109
223.152
241.147
259.047
276.809
294.392
311.759
328.875
345.709
362.235
378.429
394.271
409.746
424.841
439.548
453.862
467.779
56.3486
64.1744
71.8609
79.4119
86.8312
94.1224
105.222
121.737
139.852
158.186
176.683
195.289
213.947
232.603
251.202
269.695
288.031
306.167
324.059
341.672
358.971
375.929
392.52
408.724
424.525
439.911
454.874
469.409
62.6677
70.8105
78.7979
86.6361
94.3326
101.895
109.333
116.655
128.563
146.332
165.324
184.489
203.764
223.09
242.404
261.649
280.765
299.701
318.407
336.838
354.953
372.718
390.101
407.078
423.628
439.735
455.387
470.577
69.2272
77.6692
85.9415
94.053
102.014
109.837
117.536
125.123
132.612
140.017
153.237
172.762
192.66
212.666
232.714
252.735
272.663
292.438
311.999
331.293
350.273
368.895
387.121
404.922
422.27
439.146
455.533
471.422
75.8636
84.5888
93.1313
101.502
109.715
117.784
125.728
133.562
141.305
148.972
156.58
165.418
180.727
201.423
222.22
243.042
263.814
284.464
304.925
325.132
345.028
364.561
383.686
402.366
420.567
438.265
455.438
472.075
82.4243
91.4158
100.212
108.826
117.273
125.572
133.743
141.806
149.783
157.694
165.558
173.392
181.211
192.656
211.013
232.657
254.302
275.867
297.27
318.44
339.306
359.808
379.892
399.51
418.623
437.2
455.216
472.653
88.7751
98.015
107.048
115.887
124.551
133.062
141.441
149.714
157.906
166.042
174.144
182.235
190.333
198.451
206.601
221.76
244.205
266.719
289.111
311.293
333.186
354.717
375.821
396.441
416.531
436.05
454.968
473.261
94.8035
104.273
113.525
122.572
131.436
140.139
148.708
157.172
165.559
173.901
182.223
190.554
198.916
207.327
215.801
224.349
236.985
257.079
280.501
303.748
326.725
349.348
371.538
393.229
414.362
434.89
454.776
473.989
100.423
110.104
119.556
128.795
137.841
146.719
155.46
164.095
172.658
181.185
189.709
198.262
206.872
215.562
224.353
233.256
242.277
253.063
271.479
295.841
319.962
343.742
367.088
389.921
412.171
433.781
454.703
474.903
105.571
115.446
125.082
134.495
143.707
152.744
161.638
170.426
179.145
187.838
196.542
205.298
214.139
223.094
232.189
241.441
250.858
260.444
270.194
287.662
312.913
337.918
362.494
386.546
409.991
432.76
454.796
476.054
111.085
120.261
130.065
139.637
148.999
158.179
167.211
176.133
184.991
193.828
202.693
211.63
220.681
229.885
239.27
248.86
258.669
268.702
278.957
289.422
306.721
331.874
357.758
383.111
407.835
431.847
455.078
477.474
118.706
124.535
134.49
144.206
153.705
163.014
172.169
181.21
190.187
199.149
208.152
217.248
226.488
235.917
245.575
255.491
265.684
276.163
286.929
297.969
309.266
327.126
352.864
379.606
405.699
431.045
455.56
479.18
127.321
128.273
138.364
148.21
157.833
167.259
176.523
185.668
194.747
203.815
212.933
222.163
231.566
241.197
251.105
261.328
271.893
282.814
294.093
305.721
317.677
329.932
349.047
376.003
403.563
430.342
456.238
481.175
134.87
131.499
141.709
151.673
161.408
170.938
180.3
189.537
198.702
207.856
217.067
226.406
235.944
245.748
255.878
266.384
277.301
288.652
300.443
312.667
325.301
338.313
351.661
372.664
401.393
429.711
457.095
483.451
141.344
135.209
144.565
154.632
164.467
174.093
183.542
192.858
202.095
211.318
220.6
230.021
239.663
249.607
259.926
270.684
281.928
293.691
305.985
318.806
332.132
345.928
360.145
375.679
399.14
429.114
458.102
485.988
146.76
140.319
146.98
157.137
167.061
176.771
186.299
195.684
204.981
214.256
223.588
233.064
242.779
252.825
263.294
274.266
285.803
297.95
310.73
324.143
338.17
352.772
367.896
383.475
402.132
428.502
459.22
488.76
151.16
145.586
149.014
159.247
169.247
179.033
188.629
198.075
207.421
216.735
226.097
235.602
245.354
255.464
266.039
277.177
288.963
301.458
314.696
328.688
343.417
358.843
374.906
391.532
408.632
430.832
460.402
491.73
154.618
149.863
150.732
161.027
171.092
180.941
190.598
200.095
209.481
218.821
228.195
237.704
247.461
257.591
268.222
279.475
291.456
304.249
317.907
332.453
347.875
364.136
381.168
398.888
417.194
435.971
461.977
494.86
157.244
153.23
152.203
162.546
172.662
182.564
192.27
201.811
211.229
220.583
229.954
239.444
249.173
259.281
269.914
281.219
293.332
306.362
320.387
335.448
351.546
368.642
386.668
405.528
425.105
445.267
468.162
498.108
159.172
155.806
153.495
163.874
174.028
183.969
193.715
203.289
212.729
222.089
231.444
240.894
250.566
260.609
271.188
282.479
294.648
307.84
322.165
337.688
354.425
372.348
391.383
411.425
432.341
453.975
476.159
503.581
157.73
154.82
165.078
175.258
185.227
194.998
204.595
214.048
223.404
232.731
242.125
251.713
261.65
272.12
283.325
295.467
308.732
323.271
339.183
356.51
375.234
395.285
416.547
438.866
462.065
485.945
511.248
159.144
156.389
166.222
176.416
186.4
196.185
205.792
215.246
224.588
233.877
243.201
252.681
262.477
272.785
283.831
295.855
309.091
323.74
339.949
357.793
377.278
398.337
420.847
444.635
469.496
495.194
521.48
167.364
177.561
187.548
197.334
206.937
216.38
225.697
234.937
244.179
253.534
263.158
273.255
284.071
295.883
308.977
323.615
340.003
358.269
378.45
400.493
424.271
449.591
476.214
503.865
532.246
168.559
178.743
188.721
198.497
208.084
217.501
226.779
235.96
245.108
254.323
263.753
273.598
284.118
295.624
308.455
322.942
339.37
357.933
378.719
401.702
426.753
453.662
482.153
511.903
542.557
180.009
189.964
199.718
209.276
218.654
227.879
236.986
246.029
255.093
264.31
273.871
284.041
295.152
307.596
321.781
338.082
356.787
378.055
401.903
428.216
456.764
487.232
519.241
552.365
181.395
191.313
201.03
210.547
219.875
229.031
238.049
246.974
255.876
264.867
274.122
283.897
294.537
306.475
320.196
336.183
354.84
376.428
401.035
428.571
458.796
491.352
525.794
561.613
182.926
192.794
202.459
211.922
221.187
230.263
239.177
247.969
256.696
265.45
274.384
283.734
293.841
305.165
318.261
333.728
352.112
373.816
399.03
427.717
459.64
494.395
531.461
570.228
194.425
204.024
213.418
222.604
231.589
240.386
249.028
257.566
266.074
274.677
283.583
293.114
303.735
316.056
330.787
348.643
370.207
395.824
425.548
459.161
496.223
536.122
578.124
196.215
205.734
215.041
224.134
233.012
241.682
250.162
258.494
266.742
275.008
283.461
292.391
302.246
313.661
327.445
344.491
365.61
391.362
421.95
457.212
496.677
539.635
585.2
207.588
216.793
225.775
234.53
243.059
251.368
259.482
267.456
275.373
283.371
291.691
300.742
311.153
323.798
339.742
360.062
385.609
416.816
453.631
495.577
541.837
591.342
209.581
218.666
227.519
236.133
244.503
252.628
260.518
268.207
275.763
283.301
291.014
299.249
308.594
319.945
334.504
353.635
378.559
410.047
448.248
492.72
542.541
596.419
211.703
220.649
229.354
237.807
245.998
253.921
261.575
268.974
276.163
283.235
290.344
297.77
306.027
315.977
328.904
346.439
370.247
401.568
440.888
487.881
541.53
600.283
222.725
231.261
239.531
247.522
255.222
262.622
269.72
276.54
283.142
289.65
296.284
303.464
311.964
323.071
338.623
360.758
391.341
431.382
480.807
538.551
602.76
224.873
233.217
241.281
249.048
256.502
263.625
270.408
276.849
282.98
288.889
294.747
300.882
307.94
317.121
330.361
350.239
379.381
419.577
471.224
533.312
603.65
227.071
235.197
243.028
250.545
257.725
264.547
270.992
277.043
282.703
288.017
293.11
298.235
303.9
311.137
321.835
338.898
365.783
405.36
458.84
525.465
602.712
237.178
244.747
251.981
258.857
265.347
271.425
277.063
282.246
286.98
291.33
295.478
299.813
305.159
313.213
326.993
350.739
388.693
443.362
514.61
599.663
239.134
246.41
253.329
259.866
265.989
271.666
276.862
281.545
285.695
289.329
292.546
295.619
299.171
304.607
314.804
334.551
369.649
424.528
500.286
594.158
241.042
247.992
254.561
260.72
266.438
271.675
276.392
280.543
284.09
287.005
289.321
291.199
293.082
296.041
302.571
317.613
348.462
402.145
481.97
585.775
242.872
249.461
255.641
261.382
266.648
271.398
275.588
279.166
282.075
284.263
285.701
286.448
286.78
287.465
290.467
300.378
325.555
376.155
459.075
573.963
244.58
250.773
256.524
261.8
266.562
270.77
274.373
277.318
279.539
280.967
281.541
281.239
280.176
278.82
278.581
283.289
301.556
346.719
430.976
557.99
246.088
251.849
257.131
261.894
266.097
269.698
272.647
274.89
276.361
276.984
276.676
275.364
273.041
269.912
266.836
266.662
277.248
314.335
397.057
536.817
247.242
252.533
257.298
261.492
265.073
267.995
270.211
271.67
272.313
272.068
270.848
268.553
265.084
260.441
255.045
250.725
253.696
280.244
357.038
508.979
247.71
252.467
256.644
260.191
263.058
265.203
266.579
267.144
266.85
265.641
263.443
260.164
255.69
249.922
242.948
235.654
232.151
246.804
311.719
472.87
246.644
250.731
254.172
256.903
258.882
260.073
260.441
259.958
258.596
256.323
253.093
248.848
243.505
236.948
229.072
220.923
211.763
214.663
262.02
426.815
241.467
244.445
246.658
248.067
248.667
248.457
247.444
245.644
243.08
239.775
235.719
230.915
225.324
221.526
218.376
215.296
208.102
194.987
210.061
370.813
222.172
222.523
221.877
220.343
218.059
215.16
211.783
208.068
204.15
200.144
196.55
194.634
193.281
195.39
200.129
206.305
212.311
204.424
181.329
310.731
121.066
114.613
108.157
102.011
96.378
91.4232
87.2993
84.1595
82.1645
81.4918
82.7805
87.4939
94.8389
105.614
121.004
142.434
171.923
205.449
214.711
220.647
2746.68
2731.88
2717.2
2702.64
2688.18
2673.82
2659.54
2645.33
2631.17
2617.06
2602.96
2588.87
2574.76
2560.62
2546.41
2532.12
2517.72
2503.18
2488.46
2473.54
2458.37
2442.91
2427.13
2410.97
2394.38
2377.29
2359.65
2341.39
2322.41
2302.64
2281.98
2260.31
2237.53
2213.5
2188.09
2161.14
2132.49
2101.98
2069.44
2034.7
1997.63
1958.08
1915.96
1871.24
1823.94
1774.14
1722
1667.69
1611.32
1552.75
1491.2
1424.3
1345.23
1228.72
953.874
2667.78
2653.37
2639.08
2624.9
2610.81
2596.82
2582.9
2569.05
2555.25
2541.49
2527.76
2514.02
2500.27
2486.48
2472.64
2458.72
2444.68
2430.51
2416.18
2401.65
2386.88
2371.83
2356.47
2340.75
2324.6
2307.99
2290.84
2273.08
2254.65
2235.45
2215.39
2194.37
2172.29
2149.01
2124.41
2098.36
2070.7
2041.28
2009.96
1976.59
1941.04
1903.21
1863.01
1820.43
1775.49
1728.27
1678.89
1627.44
1573.93
1518.01
1458.48
1392.03
1309.18
1178.01
881.393
2591.12
2577.09
2563.17
2549.35
2535.63
2522
2508.44
2494.95
2481.5
2468.09
2454.71
2441.32
2427.93
2414.5
2401.01
2387.45
2373.78
2359.98
2346.03
2331.88
2317.5
2302.87
2287.92
2272.63
2256.93
2240.78
2224.12
2206.87
2188.97
2170.33
2150.87
2130.49
2109.09
2086.55
2062.76
2037.58
2010.89
1982.54
1952.41
1920.37
1886.29
1850.1
1811.73
1771.16
1728.42
1683.55
1636.63
1587.66
1536.46
1482.38
1423.67
1355.78
1266.49
1120.38
822.859
2516.61
2502.96
2489.4
2475.95
2462.59
2449.31
2436.1
2422.96
2409.86
2396.8
2383.76
2370.72
2357.68
2344.6
2331.46
2318.26
2304.95
2291.53
2277.94
2264.18
2250.2
2235.96
2221.43
2206.56
2191.31
2175.62
2159.43
2142.68
2125.3
2107.22
2088.35
2068.6
2047.88
2026.07
2003.07
1978.75
1953.01
1925.71
1896.74
1865.97
1833.33
1798.72
1762.09
1723.44
1682.76
1640.08
1595.4
1548.62
1499.36
1446.61
1387.96
1317.58
1221.06
1063.71
782.004
2444.22
2430.92
2417.73
2404.63
2391.62
2378.69
2365.83
2353.03
2340.27
2327.55
2314.86
2302.16
2289.46
2276.73
2263.95
2251.09
2238.15
2225.08
2211.87
2198.49
2184.89
2171.05
2156.93
2142.49
2127.67
2112.43
2096.71
2080.46
2063.6
2046.07
2027.78
2008.65
1988.59
1967.5
1945.28
1921.82
1897
1870.73
1842.89
1813.38
1782.12
1749.04
1714.09
1677.26
1638.53
1597.88
1555.25
1510.39
1462.69
1410.76
1351.45
1277.79
1174.43
1011.65
755.503
2373.88
2360.94
2348.09
2335.34
2322.67
2310.08
2297.56
2285.1
2272.68
2260.3
2247.94
2235.59
2223.22
2210.83
2198.4
2185.9
2173.31
2160.6
2147.76
2134.75
2121.53
2108.09
2094.37
2080.34
2065.95
2051.16
2035.91
2020.14
2003.8
1986.8
1969.09
1950.57
1931.17
1910.79
1889.33
1866.71
1842.81
1817.55
1790.81
1762.53
1732.62
1701.01
1667.68
1632.58
1595.67
1556.89
1516.07
1472.81
1426.24
1374.52
1313.82
1236.38
1127.57
965.459
738.771
2305.53
2292.93
2280.43
2268.02
2255.69
2243.44
2231.25
2219.12
2207.03
2194.99
2182.96
2170.94
2158.91
2146.86
2134.77
2122.61
2110.37
2098.02
2085.54
2072.9
2060.06
2047
2033.68
2020.06
2006.1
1991.75
1976.96
1961.67
1945.83
1929.37
1912.22
1894.31
1875.55
1855.87
1835.17
1813.37
1790.38
1766.1
1740.45
1713.36
1684.75
1654.57
1622.77
1589.29
1554.06
1516.95
1477.67
1435.65
1389.72
1337.61
1274.96
1193.87
1082.03
925.914
728.057
2239.12
2226.86
2214.7
2202.62
2190.62
2178.7
2166.84
2155.03
2143.28
2131.56
2119.86
2108.17
2096.47
2084.76
2073
2061.18
2049.29
2037.29
2025.17
2012.89
2000.42
1987.75
1974.82
1961.6
1948.06
1934.14
1919.8
1904.99
1889.64
1873.71
1857.12
1839.8
1821.68
1802.69
1782.73
1761.74
1739.63
1716.32
1691.73
1665.79
1638.44
1609.61
1579.25
1547.27
1513.55
1477.87
1439.83
1398.65
1352.88
1299.88
1235.04
1151.18
1039.16
892.561
720.358
2174.59
2162.67
2150.83
2139.08
2127.41
2115.81
2104.27
2092.79
2081.36
2069.96
2058.58
2047.22
2035.85
2024.46
2013.04
2001.56
1990.01
1978.35
1966.58
1954.66
1942.56
1930.26
1917.72
1904.9
1891.77
1878.27
1864.38
1850.03
1835.18
1819.76
1803.72
1786.99
1769.5
1751.18
1731.96
1711.76
1690.51
1668.14
1644.57
1619.74
1593.58
1566.02
1536.98
1506.35
1473.94
1439.45
1402.32
1361.6
1315.56
1261.35
1194.54
1109.27
999.658
864.287
713.93
2111.9
2100.3
2088.79
2077.36
2066.01
2054.72
2043.51
2032.34
2021.23
2010.14
1999.09
1988.04
1977
1965.93
1954.84
1943.69
1932.47
1921.16
1909.73
1898.16
1886.42
1874.49
1862.33
1849.9
1837.17
1824.1
1810.64
1796.75
1782.38
1767.47
1751.96
1735.81
1718.93
1701.28
1682.77
1663.35
1642.94
1621.48
1598.89
1575.11
1550.07
1523.68
1495.83
1466.37
1435.06
1401.48
1364.96
1324.32
1277.69
1222.22
1154.06
1068.92
963.659
839.881
707.842
2051
2039.71
2028.52
2017.4
2006.36
1995.39
1984.49
1973.64
1962.83
1952.06
1941.32
1930.59
1919.86
1909.12
1898.34
1887.52
1876.63
1865.65
1854.56
1843.34
1831.95
1820.38
1808.59
1796.55
1784.21
1771.55
1758.52
1745.08
1731.18
1716.77
1701.8
1686.2
1669.93
1652.92
1635.12
1616.44
1596.84
1576.24
1554.58
1531.78
1507.77
1482.43
1455.64
1427.18
1396.74
1363.82
1327.58
1286.74
1239.37
1182.87
1114.23
1030.6
930.919
818.3
701.61
1991.83
1980.85
1969.97
1959.16
1948.43
1937.77
1927.17
1916.62
1906.12
1895.66
1885.23
1874.81
1864.39
1853.96
1843.5
1832.99
1822.43
1811.78
1801.02
1790.14
1779.1
1767.88
1756.46
1744.79
1732.84
1720.58
1707.98
1694.98
1681.54
1667.61
1653.16
1638.11
1622.43
1606.05
1588.91
1570.95
1552.12
1532.34
1511.54
1489.65
1466.57
1442.16
1416.27
1388.63
1358.84
1326.31
1290.1
1248.87
1200.81
1143.76
1075.51
994.493
901.016
798.735
694.982
1934.34
1923.68
1913.09
1902.59
1892.16
1881.8
1871.5
1861.25
1851.06
1840.9
1830.76
1820.65
1810.53
1800.41
1790.26
1780.07
1769.82
1759.49
1749.06
1738.51
1727.81
1716.94
1705.87
1694.57
1683
1671.14
1658.94
1646.37
1633.38
1619.93
1605.98
1591.47
1576.35
1560.57
1544.08
1526.8
1508.69
1489.68
1469.68
1448.61
1426.35
1402.75
1377.6
1350.58
1321.23
1288.87
1252.5
1210.84
1162.31
1105.26
1038.22
960.578
873.484
780.59
687.825
1878.5
1868.13
1857.85
1847.64
1837.51
1827.44
1817.44
1807.49
1797.58
1787.72
1777.88
1768.06
1758.25
1748.42
1738.58
1728.69
1718.75
1708.74
1698.63
1688.4
1678.03
1667.5
1656.78
1645.84
1634.64
1623.16
1611.37
1599.21
1586.66
1573.67
1560.21
1546.21
1531.63
1516.43
1500.54
1483.92
1466.48
1448.17
1428.89
1408.55
1387
1364.07
1339.5
1312.93
1283.83
1251.46
1214.85
1172.85
1124.2
1067.69
1002.5
928.714
847.899
763.437
680.078
1824.25
1814.18
1804.18
1794.27
1784.42
1774.65
1764.93
1755.27
1745.66
1736.08
1726.53
1717.01
1707.48
1697.96
1688.41
1678.82
1669.18
1659.47
1649.67
1639.76
1629.72
1619.52
1609.14
1598.54
1587.71
1576.6
1565.19
1553.44
1541.32
1528.77
1515.77
1502.26
1488.21
1473.55
1458.24
1442.21
1425.39
1407.72
1389.08
1369.37
1348.43
1326.04
1301.9
1275.61
1246.59
1214.1
1177.27
1135.13
1086.72
1031.25
968.405
898.706
823.899
746.973
671.73
1771.55
1761.77
1752.06
1742.43
1732.87
1723.37
1713.94
1704.56
1695.23
1685.94
1676.68
1667.43
1658.2
1648.96
1639.7
1630.4
1621.06
1611.65
1602.15
1592.55
1582.82
1572.94
1562.89
1552.63
1542.15
1531.4
1520.37
1509.01
1497.29
1485.17
1472.61
1459.58
1446.01
1431.86
1417.08
1401.6
1385.35
1368.24
1350.17
1330.99
1310.54
1288.55
1264.71
1238.55
1209.5
1176.87
1139.93
1097.89
1050.09
996.072
935.889
870.346
801.183
730.983
662.791
1720.36
1710.86
1701.43
1692.07
1682.79
1673.57
1664.42
1655.32
1646.26
1637.25
1628.26
1619.3
1610.34
1601.38
1592.4
1583.39
1574.33
1565.21
1556.01
1546.71
1537.29
1527.72
1517.98
1508.05
1497.91
1487.51
1476.84
1465.85
1454.52
1442.81
1430.68
1418.08
1404.97
1391.3
1377
1362.02
1346.27
1329.66
1312.06
1293.33
1273.25
1251.55
1227.86
1201.73
1172.61
1139.9
1103
1061.33
1014.45
962.192
904.871
843.43
779.511
715.315
653.29
1670.64
1661.4
1652.25
1643.17
1634.15
1625.21
1616.32
1607.49
1598.71
1589.96
1581.25
1572.55
1563.87
1555.18
1546.47
1537.74
1528.96
1520.13
1511.21
1502.2
1493.07
1483.8
1474.37
1464.76
1454.94
1444.88
1434.55
1423.92
1412.96
1401.63
1389.89
1377.71
1365.02
1351.78
1337.93
1323.4
1308.09
1291.9
1274.7
1256.31
1236.5
1214.97
1191.34
1165.18
1136
1103.31
1066.64
1025.57
979.88
929.612
875.245
817.771
758.69
699.861
643.261
1622.33
1613.37
1604.48
1595.66
1586.92
1578.23
1569.61
1561.04
1552.52
1544.04
1535.59
1527.16
1518.74
1510.31
1501.87
1493.41
1484.9
1476.34
1467.7
1458.96
1450.12
1441.14
1432.01
1422.7
1413.19
1403.44
1393.44
1383.16
1372.55
1361.58
1350.21
1338.4
1326.11
1313.26
1299.81
1285.66
1270.73
1254.89
1238
1219.87
1200.23
1178.78
1155.15
1128.96
1099.78
1067.24
1030.97
990.726
946.433
898.298
846.896
793.207
738.569
684.547
632.746
1575.41
1566.71
1558.08
1549.52
1541.03
1532.61
1524.24
1515.93
1507.67
1499.44
1491.24
1483.07
1474.9
1466.74
1458.56
1450.35
1442.1
1433.8
1425.43
1416.96
1408.39
1399.69
1390.84
1381.82
1372.61
1363.17
1353.48
1343.51
1333.23
1322.59
1311.57
1300.11
1288.17
1275.67
1262.56
1248.75
1234.14
1218.58
1201.92
1183.95
1164.4
1142.97
1119.32
1093.12
1064.05
1031.78
996.093
956.851
914.112
868.191
819.709
769.595
719.028
669.321
621.786
1529.83
1521.38
1513.01
1504.7
1496.47
1488.29
1480.18
1472.12
1464.1
1456.12
1448.17
1440.24
1432.33
1424.41
1416.48
1408.52
1400.53
1392.48
1384.36
1376.15
1367.84
1359.41
1350.83
1342.09
1333.15
1324
1314.6
1304.93
1294.95
1284.63
1273.92
1262.77
1251.14
1238.96
1226.15
1212.62
1198.25
1182.91
1166.4
1148.52
1129
1107.55
1083.9
1057.77
1028.88
997.036
962.076
923.979
882.917
840.512
796.244
748.214
699.973
654.151
610.426
1485.55
1477.35
1469.23
1461.17
1453.18
1445.25
1437.37
1429.55
1421.78
1414.04
1406.33
1398.64
1390.96
1383.29
1375.59
1367.88
1360.13
1352.32
1344.45
1336.49
1328.43
1320.25
1311.93
1303.44
1294.77
1285.88
1276.76
1267.36
1257.66
1247.62
1237.19
1226.33
1214.98
1203.06
1190.5
1177.19
1163.02
1147.82
1131.4
1113.55
1094.02
1072.57
1048.95
1022.96
994.376
963.065
928.959
893.175
856.665
818.004
775.916
730.428
683.319
639.016
598.707
1442.54
1434.58
1426.7
1418.88
1411.12
1403.43
1395.79
1388.21
1380.66
1373.16
1365.68
1358.22
1350.78
1343.33
1335.87
1328.38
1320.86
1313.29
1305.65
1297.92
1290.1
1282.16
1274.08
1265.84
1257.41
1248.78
1239.91
1230.77
1221.32
1211.53
1201.36
1190.74
1179.62
1167.93
1155.57
1142.43
1128.39
1113.27
1096.89
1079.03
1059.49
1038.06
1014.54
988.761
960.579
929.913
898.798
867.424
833.485
796.563
756.606
713.675
667.952
624.557
586.669
1400.79
1393.04
1385.38
1377.79
1370.27
1362.81
1355.4
1348.04
1340.72
1333.44
1326.18
1318.95
1311.72
1304.5
1297.26
1289.99
1282.69
1275.34
1267.92
1260.42
1252.82
1245.11
1237.25
1229.24
1221.04
1212.64
1204
1195.09
1185.88
1176.31
1166.36
1155.95
1145.03
1133.52
1121.31
1108.29
1094.32
1079.23
1062.85
1044.98
1025.44
1004.07
980.709
955.228
928.234
901.338
873.816
843.869
811.343
776.143
738.257
697.764
654.839
611.931
574.345
1361.07
1353.27
1345.5
1337.92
1330.58
1323.34
1316.15
1309.01
1301.91
1294.84
1287.8
1280.78
1273.77
1266.75
1259.72
1252.67
1245.58
1238.43
1231.23
1223.94
1216.55
1209.04
1201.4
1193.6
1185.62
1177.42
1168.99
1160.29
1151.28
1141.91
1132.15
1121.92
1111.16
1099.78
1087.67
1074.72
1060.78
1045.69
1029.28
1011.41
991.905
970.645
947.506
924.155
901.126
876.648
850.097
821.321
790.208
756.702
720.817
682.643
642.343
600.147
562.421
1322.63
1315.07
1307.54
1300.05
1292.59
1285.18
1278.01
1271.08
1264.19
1257.33