/*--------------------------------*- C++ -*----------------------------------*\
  =========                 |
  \\      /  F ield         | OpenFOAM: The Open Source CFD Toolbox
   \\    /   O peration     | Website:  https://openfoam.org
    \\  /    A nd           | Version:  10
     \\/     M anipulation  |
\*---------------------------------------------------------------------------*/
FoamFile
{
    format      ascii;
    class       volScalarField;
    location    "53000";
    object      nut;
}
// * * * * * * * * * * * * * * * * * * * * * * * * * * * * * * * * * * * * * //

dimensions      [0 2 -1 0 0 0 0];

internalField   nonuniform List<scalar> 
17981
(
0.00109957
0.00109451
0.00109181
0.00109155
0.00109378
0.00109846
0.00110549
0.00111474
0.00112601
0.00113908
0.00115372
0.00116969
0.00118675
0.00120467
0.00122325
0.00124228
0.0012616
0.00128105
0.0013005
0.00131984
0.00133898
0.00135782
0.00137632
0.00139441
0.00141206
0.00142924
0.00144592
0.00146209
0.00147774
0.00149286
0.00150747
0.00152155
0.00153512
0.00154819
0.00156077
0.00157288
0.00158452
0.00159571
0.00160646
0.0016168
0.00162673
0.00163626
0.00164542
0.00165422
0.00166266
0.00167078
0.00167857
0.00168605
0.0010656
0.00106214
0.00106104
0.0010624
0.00106625
0.00107256
0.00108122
0.00109206
0.0011049
0.0011195
0.0011356
0.00115297
0.00117136
0.00119053
0.00121026
0.00123037
0.00125067
0.00127101
0.00129127
0.00131133
0.0013311
0.00135051
0.00136949
0.001388
0.00140601
0.00142348
0.0014404
0.00145676
0.00147255
0.00148777
0.00150243
0.00151654
0.0015301
0.00154313
0.00155565
0.00156766
0.00157919
0.00159026
0.00160087
0.00161104
0.0016208
0.00163015
0.00163912
0.00164772
0.00165596
0.00166386
0.00167144
0.00167871
0.00103125
0.00102972
0.00103056
0.00103386
0.00103964
0.00104786
0.00105839
0.00107107
0.00108567
0.00110197
0.00111969
0.00113857
0.00115837
0.00117884
0.00119977
0.00122096
0.00124224
0.00126346
0.00128449
0.00130523
0.00132559
0.0013455
0.0013649
0.00138376
0.00140204
0.00141973
0.0014368
0.00145326
0.00146911
0.00148434
0.00149898
0.00151302
0.00152649
0.0015394
0.00155177
0.00156361
0.00157496
0.00158581
0.0015962
0.00160615
0.00161566
0.00162476
0.00163347
0.0016418
0.00164978
0.00165741
0.00166471
0.0016717
0.0010143
0.00102469
0.00103733
0.00105205
0.0010686
0.00108673
0.00110617
0.00112665
0.00114791
0.00116972
0.00119185
0.00121411
0.00123634
0.00125839
0.00128013
0.00130148
0.00132235
0.00134267
0.00136241
0.00138152
0.00139998
0.00141778
0.00143492
0.00145138
0.00146718
0.00148233
0.00149684
0.00151072
0.001524
0.00153669
0.00154882
0.00156041
0.00157148
0.00158204
0.00159213
0.00160176
0.00161096
0.00161973
0.00162811
0.00163611
0.00164374
0.00165104
0.001658
0.00166466
0.000990569
0.00100337
0.00101834
0.00103526
0.0010539
0.00107397
0.0010952
0.00111732
0.00114006
0.00116319
0.00118649
0.00120978
0.00123289
0.00125569
0.00127806
0.00129992
0.00132119
0.00134183
0.00136178
0.00138103
0.00139956
0.00141737
0.00143444
0.00145079
0.00146644
0.00148139
0.00149566
0.00150928
0.00152227
0.00153464
0.00154644
0.00155767
0.00156837
0.00157856
0.00158826
0.00159749
0.00160628
0.00161465
0.00162263
0.00163022
0.00163745
0.00164434
0.00165091
0.00165717
0.00096881
0.000984223
0.00100168
0.00102095
0.00104176
0.00106383
0.00108689
0.00111064
0.00113483
0.00115923
0.00118363
0.00120785
0.00123175
0.00125518
0.00127807
0.00130031
0.00132187
0.00134268
0.00136273
0.00138199
0.00140045
0.00141813
0.00143501
0.00145113
0.0014665
0.00148113
0.00149505
0.00150829
0.00152087
0.00153282
0.00154417
0.00155495
0.00156519
0.0015749
0.00158413
0.00159288
0.00160119
0.00160908
0.00161657
0.00162369
0.00163044
0.00163687
0.00164297
0.00164878
0.000967541
0.0009876
0.00100929
0.00103232
0.0010564
0.00108125
0.00110658
0.00113215
0.00115772
0.00118311
0.00120814
0.00123269
0.00125663
0.00127987
0.00130236
0.00132404
0.00134489
0.00136487
0.00138399
0.00140225
0.00141965
0.00143621
0.00145196
0.00146691
0.0014811
0.00149454
0.00150728
0.00151934
0.00153076
0.00154157
0.0015518
0.00156147
0.00157062
0.00157928
0.00158747
0.00159522
0.00160255
0.00160949
0.00161606
0.00162228
0.00162818
0.00163376
0.00163906
0.00100037
0.0010256
0.00105164
0.0010782
0.00110501
0.00113183
0.00115844
0.00118467
0.00121036
0.00123539
0.00125966
0.0012831
0.00130566
0.0013273
0.00134801
0.00136777
0.00138659
0.00140448
0.00142146
0.00143755
0.00145278
0.00146719
0.0014808
0.00149364
0.00150576
0.00151719
0.00152797
0.00153813
0.0015477
0.00155673
0.00156523
0.00157323
0.00158078
0.00158789
0.0015946
0.00160092
0.00160688
0.0016125
0.00161781
0.00162282
0.00162756
0.0010215
0.00104939
0.00107754
0.00110568
0.00113359
0.00116107
0.00118795
0.0012141
0.00123943
0.00126384
0.00128729
0.00130973
0.00133115
0.00135154
0.0013709
0.00138925
0.00140662
0.00142302
0.00143849
0.00145306
0.00146678
0.00147968
0.0014918
0.00150319
0.00151388
0.00152391
0.00153332
0.00154215
0.00155043
0.00155819
0.00156547
0.0015723
0.00157871
0.00158472
0.00159036
0.00159566
0.00160063
0.00160531
0.0016097
0.00161384
0.00107894
0.00110822
0.00113701
0.00116515
0.00119247
0.00121888
0.00124429
0.00126863
0.00129188
0.001314
0.00133501
0.00135489
0.00137368
0.0013914
0.00140807
0.00142374
0.00143844
0.00145222
0.00146512
0.00147719
0.00148847
0.00149901
0.00150885
0.00151803
0.00152661
0.0015346
0.00154206
0.00154902
0.0015555
0.00156155
0.00156719
0.00157246
0.00157737
0.00158195
0.00158623
0.00159023
0.00159397
0.00159747
0.00119771
0.00122413
0.00124939
0.00127345
0.00129628
0.00131789
0.00133828
0.00135748
0.00137551
0.00139242
0.00140824
0.00142302
0.00143682
0.00144967
0.00146163
0.00147274
0.00148307
0.00149267
0.00150157
0.00150983
0.00151748
0.00152457
0.00153114
0.00153723
0.00154286
0.00154808
0.0015529
0.00155738
0.00156152
0.00156536
0.00156891
0.00157221
0.00157527
0.00157811
0.00120306
0.00122926
0.00125413
0.00127767
0.00129987
0.00132075
0.00134034
0.00135867
0.00137577
0.00139171
0.00140654
0.00142029
0.00143305
0.00144484
0.00145575
0.00146581
0.0014751
0.00148367
0.00149155
0.00149881
0.00150548
0.00151161
0.00151723
0.0015224
0.00152714
0.00153148
0.00153547
0.00153912
0.00154246
0.00154553
0.00154835
0.00155093
0.0015533
0.00155548
0.00120791
0.00123362
0.00125787
0.00128066
0.00130202
0.00132197
0.00134057
0.00135785
0.00137387
0.00138869
0.00140238
0.00141499
0.00142658
0.00143722
0.00144697
0.00145591
0.00146408
0.00147154
0.00147835
0.00148455
0.00149019
0.00149531
0.00149996
0.00150418
0.001508
0.00151145
0.00151457
0.00151739
0.00151994
0.00152223
0.0015243
0.00152617
0.00152785
0.00152937
0.0012116
0.00123657
0.00125995
0.00128178
0.00130209
0.00132094
0.00133837
0.00135445
0.00136924
0.00138282
0.00139525
0.0014066
0.00141693
0.00142633
0.00143487
0.00144261
0.00144961
0.00145593
0.00146162
0.00146673
0.00147132
0.00147541
0.00147907
0.00148233
0.00148522
0.00148778
0.00149004
0.00149203
0.00149379
0.00149532
0.00149666
0.00149783
0.00149885
0.00149973
0.00123748
0.00125978
0.00128044
0.00129952
0.00131709
0.00133321
0.00134796
0.0013614
0.00137363
0.00138471
0.00139471
0.00140373
0.00141185
0.00141912
0.00142563
0.00143143
0.00143658
0.00144114
0.00144515
0.00144867
0.00145175
0.00145442
0.00145672
0.0014587
0.00146038
0.00146181
0.001463
0.00146398
0.00146479
0.00146543
0.00146594
0.00146632
0.0014666
0.00123575
0.00125677
0.0012761
0.0012938
0.00130996
0.00132465
0.00133797
0.00134998
0.00136078
0.00137044
0.00137905
0.00138672
0.00139352
0.00139952
0.00140478
0.00140938
0.00141336
0.00141679
0.00141972
0.0014222
0.00142427
0.00142598
0.00142736
0.00142846
0.00142931
0.00142993
0.00143036
0.00143062
0.00143073
0.00143072
0.00143061
0.00143041
0.00143014
0.00123091
0.00125049
0.00126834
0.00128455
0.0012992
0.00131238
0.00132419
0.00133471
0.00134403
0.00135224
0.00135946
0.00136578
0.00137126
0.00137598
0.00138002
0.00138342
0.00138627
0.0013886
0.00139048
0.00139195
0.00139307
0.00139386
0.00139438
0.00139465
0.00139471
0.00139458
0.00139431
0.0013939
0.00139339
0.00139279
0.00139212
0.00139139
0.00139063
0.0012406
0.00125688
0.00127151
0.00128459
0.00129621
0.00130648
0.00131547
0.00132331
0.00133009
0.00133593
0.0013409
0.00134509
0.00134858
0.00135142
0.00135368
0.00135544
0.00135673
0.00135761
0.00135814
0.00135836
0.0013583
0.00135801
0.00135752
0.00135686
0.00135606
0.00135515
0.00135415
0.00135308
0.00135196
0.0013508
0.00134963
0.00134845
0.00122688
0.00124155
0.00125457
0.00126606
0.00127611
0.00128483
0.00129231
0.00129868
0.00130407
0.00130856
0.00131225
0.0013152
0.0013175
0.00131921
0.0013204
0.00132113
0.00132145
0.00132142
0.00132108
0.00132047
0.00131965
0.00131863
0.00131746
0.00131616
0.00131477
0.0013133
0.00131179
0.00131024
0.00130867
0.00130711
0.00130556
0.00130404
0.00120928
0.00122233
0.00123376
0.00124367
0.00125218
0.00125938
0.00126539
0.00127037
0.00127442
0.00127763
0.00128009
0.00128188
0.00128307
0.00128373
0.00128393
0.00128372
0.00128316
0.0012823
0.00128118
0.00127984
0.00127833
0.00127668
0.00127492
0.00127308
0.00127118
0.00126924
0.00126729
0.00126535
0.00126343
0.00126154
0.0012597
0.00125791
0.00117997
0.00118733
0.00119578
0.00120592
0.00121762
0.00122909
0.00123501
0.00123867
0.00124146
0.00124347
0.0012448
0.00124551
0.00124569
0.0012454
0.0012447
0.00124366
0.00124231
0.00124072
0.00123892
0.00123695
0.00123486
0.00123267
0.00123041
0.00122811
0.00122579
0.00122348
0.00122119
0.00121894
0.00121674
0.00121461
0.00121255
0.00121059
0.00114546
0.00114839
0.00115167
0.00115644
0.00116343
0.00117265
0.00118326
0.00119401
0.00120304
0.00120648
0.00120678
0.00120653
0.00120581
0.00120468
0.0012032
0.00120142
0.0011994
0.00119718
0.0011948
0.00119231
0.00118973
0.00118709
0.00118443
0.00118177
0.00117913
0.00117653
0.00117398
0.00117151
0.00116912
0.00116683
0.00116464
0.00116256
0.00111632
0.00111508
0.00111406
0.00111455
0.00111734
0.00112265
0.00113007
0.00113895
0.00114854
0.00115766
0.00116438
0.00116546
0.00116395
0.00116209
0.00115994
0.00115754
0.00115495
0.00115221
0.00114936
0.00114644
0.00114347
0.00114049
0.00113752
0.00113459
0.00113171
0.00112891
0.0011262
0.00112358
0.00112108
0.00111871
0.00111646
0.00111435
0.00109247
0.00108733
0.00108164
0.00107743
0.00107594
0.00107766
0.00108227
0.00108904
0.00109723
0.00110597
0.00111413
0.00111995
0.00112075
0.00111826
0.00111554
0.00111262
0.00110956
0.0011064
0.00110317
0.0010999
0.00109664
0.0010934
0.00109022
0.0010871
0.00108407
0.00108114
0.00107834
0.00107566
0.00107312
0.00107073
0.00106849
0.00106641
0.00107071
0.0010645
0.00105485
0.00104574
0.00103934
0.0010367
0.00103783
0.00104213
0.00104875
0.00105676
0.001065
0.00107207
0.00107599
0.00107379
0.00107058
0.00106723
0.00106379
0.00106029
0.00105676
0.00105324
0.00104977
0.00104635
0.00104302
0.00103979
0.00103668
0.0010337
0.00103087
0.0010282
0.00102568
0.00102334
0.00102117
0.00101918
0.00104047
0.00104202
0.00103196
0.00101889
0.00100751
0.00100006
0.000997172
0.000998453
0.00100305
0.00100992
0.00101782
0.00102518
0.00102995
0.00102919
0.00102558
0.00102187
0.00101812
0.00101435
0.0010106
0.00100691
0.00100328
0.000999758
0.000996349
0.000993075
0.000989948
0.000986983
0.000984188
0.000981572
0.000979141
0.0009769
0.000974853
0.000973001
0.00100678
0.00100942
0.00100852
0.000995446
0.000980191
0.000967837
0.000960414
0.000958103
0.000960157
0.000965467
0.000972632
0.000979908
0.00098503
0.000984862
0.000980913
0.000976921
0.000972926
0.000968962
0.000965059
0.000961244
0.000957539
0.000953965
0.00095054
0.000947278
0.000944191
0.000941289
0.000938582
0.000936076
0.000933774
0.000931681
0.000929799
0.000928128
0.000972551
0.000974074
0.000974515
0.00097106
0.000955973
0.000939875
0.000927801
0.000921344
0.000920263
0.000923497
0.00092951
0.000936328
0.000941385
0.000941124
0.0009369
0.000932681
0.000928505
0.000924402
0.000920401
0.000916524
0.000912793
0.000909225
0.000905835
0.000902635
0.000899636
0.000896846
0.000894272
0.000891917
0.000889786
0.00088788
0.0008862
0.000884744
0.000938134
0.000938608
0.000938084
0.00093668
0.00093082
0.000914781
0.000899083
0.000888323
0.000883578
0.000884159
0.000888526
0.000894486
0.000899092
0.000898219
0.000893771
0.000889377
0.00088507
0.00088088
0.00087683
0.000872941
0.000869232
0.000865717
0.000862408
0.000859315
0.000856446
0.000853807
0.000851404
0.000849238
0.000847311
0.000845624
0.000844175
0.000842964
0.000903358
0.000901925
0.000899698
0.000896787
0.000889002
0.000873075
0.000858846
0.000850197
0.000847591
0.000849758
0.000854398
0.00085818
0.000856335
0.000851704
0.000847177
0.000842783
0.000838547
0.000834492
0.000830634
0.000826988
0.000823565
0.000820376
0.000817427
0.000814724
0.000812271
0.00081007
0.000808122
0.000806428
0.000804985
0.000803793
0.000802848
0.000868605
0.000866311
0.000863306
0.000859701
0.000855595
0.000846721
0.000831917
0.000819968
0.000813872
0.0008133
0.000816101
0.000818674
0.000815612
0.00081083
0.000806202
0.000801755
0.000797511
0.000793485
0.000789693
0.000786145
0.00078285
0.000779813
0.00077704
0.000774532
0.000772292
0.00077032
0.000768615
0.000767175
0.000765998
0.00076508
0.000764418
0.000834605
0.000831485
0.000827738
0.00082347
0.00081878
0.000813763
0.00080494
0.000792119
0.000782865
0.000779166
0.000779646
0.000780653
0.000776153
0.000771242
0.000766539
0.000762067
0.000757841
0.000753874
0.000750177
0.000746756
0.000743616
0.000740759
0.000738187
0.000735899
0.000733895
0.000732172
0.000730728
0.00072956
0.000728663
0.000728033
0.000727665
0.000801637
0.000797698
0.000793216
0.000788296
0.000783036
0.000777522
0.000771842
0.00076438
0.000754137
0.000747412
0.000744903
0.000743297
0.000738029
0.000733004
0.000728245
0.000723766
0.000719581
0.000715696
0.000712117
0.000708846
0.000705883
0.000703227
0.000700876
0.000698826
0.000697075
0.000695617
0.000694448
0.000693563
0.000692956
0.000692622
0.000692555
0.000754357
0.000748519
0.000742507
0.000736402
0.000730273
0.000724191
0.000717649
0.000712383
0.000706727
0.000701297
0.000696165
0.000691358
0.000686887
0.000682757
0.000678969
0.000675524
0.000672419
0.000669649
0.000667209
0.000665093
0.000663295
0.000661808
0.000660625
0.000659739
0.000659144
0.000658834
0.0006588
0.000659038
0.000721823
0.00071539
0.000708855
0.0007023
0.000695796
0.000689405
0.00068318
0.000677173
0.00067142
0.000665944
0.000660755
0.000655906
0.000651448
0.000647379
0.000643696
0.000640393
0.000637462
0.000634894
0.000632679
0.000630806
0.000629267
0.000628051
0.000627148
0.000626551
0.00062625
0.000626237
0.000626505
0.000627046
0.000690858
0.000683808
0.000676723
0.000669685
0.000662767
0.000656033
0.000649537
0.000643326
0.000637431
0.000631889
0.000626714
0.000621911
0.00061748
0.00061346
0.000609876
0.000606712
0.000603954
0.000601588
0.0005996
0.000597973
0.000596694
0.000595751
0.00059513
0.000594822
0.000594814
0.000595098
0.000595666
0.000596508
0.000661587
0.000653901
0.000646241
0.00063869
0.000631324
0.000624209
0.000617402
0.000610949
0.000604885
0.000599236
0.000594016
0.000589239
0.0005849
0.000580983
0.000577494
0.000574456
0.000571863
0.000569694
0.000567927
0.000566543
0.000565523
0.00056485
0.000564509
0.000564487
0.00056477
0.000565347
0.00056621
0.000567349
0.000634106
0.000625768
0.000617507
0.000609411
0.000601558
0.00059402
0.000586855
0.000580113
0.00057383
0.000568031
0.000562731
0.000557934
0.000553635
0.000549827
0.000546486
0.000543587
0.000541144
0.00053916
0.000537607
0.000536458
0.000535692
0.000535285
0.000535219
0.000535478
0.000536046
0.000536912
0.000538065
0.000539494
0.000608511
0.000599496
0.000590603
0.000581924
0.000573541
0.000565529
0.000557953
0.000550866
0.000544308
0.000538305
0.000532872
0.000528011
0.000523714
0.000519964
0.000516741
0.000514015
0.000511744
0.000509933
0.000508581
0.000507659
0.000507138
0.000506989
0.000507192
0.000507725
0.000508573
0.00050972
0.000511155
0.000512867
0.000584851
0.000575136
0.000565582
0.000556281
0.000547319
0.000538781
0.000530736
0.000523243
0.000516348
0.000510081
0.000504456
0.000499475
0.000495129
0.000491397
0.000488249
0.000485652
0.000483569
0.000481953
0.000480793
0.000480083
0.000479795
0.000479896
0.000480358
0.000481159
0.000482278
0.000483699
0.000485408
0.000487396
0.000563166
0.000552729
0.000542483
0.00053252
0.000522933
0.000513811
0.000505234
0.000497269
0.00048997
0.00048337
0.000477489
0.000472329
0.000467877
0.00046411
0.000460995
0.00045849
0.00045655
0.000455129
0.000454173
0.000453666
0.000453599
0.000453939
0.000454652
0.000455711
0.000457092
0.000458779
0.000460756
0.000463012
0.000543513
0.000532319
0.000521345
0.000510678
0.000500414
0.00049065
0.000481475
0.000472968
0.00046519
0.000458184
0.000451975
0.000446567
0.000441948
0.000438091
0.000434957
0.000432499
0.000430665
0.000429399
0.000428645
0.000428346
0.000428488
0.000429055
0.000430009
0.000431317
0.000432953
0.000434897
0.000437133
0.000439648
0.000525929
0.00051393
0.000502188
0.000490776
0.000479788
0.000469323
0.000459484
0.00045036
0.000442026
0.000434535
0.000427919
0.000422189
0.000417333
0.000413323
0.000410114
0.000407654
0.000405883
0.000404735
0.000404148
0.000404057
0.000404411
0.000405191
0.000406372
0.000407919
0.000409801
0.000411994
0.00041448
0.000417247
0.000510449
0.000497582
0.000485025
0.000472827
0.000461068
0.00044985
0.000439281
0.000429467
0.000420496
0.000412435
0.000405329
0.000399195
0.000394026
0.000389792
0.000386448
0.000383933
0.000382177
0.000381109
0.000380655
0.000380742
0.000381301
0.000382291
0.000383688
0.000385463
0.00038758
0.000390013
0.000392742
0.000395752
0.000497142
0.000483305
0.000469869
0.000456837
0.000444264
0.000432242
0.000420885
0.000410308
0.000400619
0.000391903
0.000384217
0.00037759
0.000372024
0.000367491
0.000363942
0.000361312
0.000359522
0.00035849
0.000358132
0.000358365
0.000359112
0.0003603
0.000361903
0.000363897
0.000366241
0.000368906
0.000371869
0.000375115
0.000486127
0.000471159
0.000456738
0.000442808
0.000429375
0.000416505
0.000404305
0.000392901
0.000382417
0.000372957
0.000364599
0.000357387
0.000351333
0.000346416
0.000342586
0.000339774
0.000337893
0.000336851
0.000336549
0.000336895
0.000337799
0.000339182
0.000340986
0.000343183
0.000345743
0.000348629
0.000351818
0.000355293
0.000477557
0.000461231
0.000445664
0.000430739
0.00041639
0.000402629
0.000389543
0.000377256
0.000365906
0.00035562
0.000346497
0.000338603
0.000331965
0.000326571
0.000322377
0.000319309
0.000317275
0.000316169
0.000315882
0.000316306
0.00031734
0.000318893
0.000320882
0.000323276
0.000326042
0.000329142
0.000332549
0.000336244
0.000471671
0.000453686
0.000436727
0.000420647
0.000405294
0.000390597
0.000376587
0.000363372
0.000351097
0.000339909
0.000329932
0.000321258
0.000313935
0.000307967
0.000303317
0.000299912
0.000297654
0.000296426
0.000296106
0.00029657
0.000297703
0.000299399
0.000301568
0.000304148
0.000307107
0.00031041
0.000314026
0.000317933
0.000468757
0.00044879
0.000430098
0.000412602
0.000396092
0.000380385
0.000365414
0.000351239
0.000337993
0.000325839
0.000314927
0.000305379
0.000297269
0.000290623
0.000285418
0.000281586
0.000279026
0.000277611
0.000277204
0.000277667
0.000278866
0.000280681
0.000283007
0.000285759
0.000288901
0.000292399
0.000296215
0.000300327
0.000468987
0.000446876
0.000426059
0.00040677
0.000388835
0.000371978
0.000355991
0.000340829
0.000326583
0.000313416
0.0003015
0.000290989
0.000281992
0.000274562
0.000268697
0.00026434
0.000261391
0.000259715
0.000259163
0.000259577
0.000260806
0.000262711
0.000265171
0.000268086
0.0002714
0.00027508
0.000279088
0.000283397
0.000471301
0.000448145
0.000424988
0.000403446
0.000383678
0.000365409
0.000348288
0.000332101
0.000316839
0.000302629
0.000289659
0.000278111
0.000268132
0.000259813
0.000253178
0.000248191
0.000244757
0.00024274
0.000241975
0.000242287
0.000243505
0.000245469
0.000248041
0.000251104
0.000254578
0.000258427
0.000262617
0.000267114
0.000473941
0.000451394
0.000427141
0.000403062
0.000380931
0.000360815
0.000342313
0.000325012
0.000308713
0.000293453
0.0002794
0.000266759
0.000255717
0.000246406
0.000238891
0.000233162
0.00022914
0.000226689
0.000225636
0.000225788
0.000226949
0.000228938
0.000231596
0.000234786
0.000238408
0.000242416
0.000246775
0.000251454
0.000476259
0.000454736
0.000431196
0.000405943
0.000381073
0.000358509
0.000338179
0.000319544
0.000302151
0.000285838
0.000270697
0.000256932
0.000244763
0.000234371
0.000225868
0.000219283
0.000214561
0.000211576
0.00021015
0.000210073
0.000211126
0.000213102
0.000215816
0.000219114
0.00022287
0.000227027
0.000231544
0.000236392
0.000457542
0.000435119
0.000410667
0.000384518
0.000359014
0.00033619
0.000315778
0.000297111
0.000279719
0.000263503
0.00024861
0.000235278
0.000223734
0.000214144
0.000206587
0.000201048
0.00019742
0.000195525
0.000195142
0.000196028
0.000197948
0.000200688
0.000204068
0.000207947
0.000212239
0.000216903
0.000221907
0.000459559
0.000438291
0.000415048
0.000389778
0.000362855
0.000336899
0.000313995
0.000293634
0.000275032
0.000257745
0.000241748
0.000227248
0.000214505
0.000203746
0.00019511
0.000188633
0.000184244
0.000181777
0.000181
0.000181652
0.000183465
0.000186195
0.000189634
0.000193616
0.000198029
0.000202828
0.000207979
0.000418461
0.000394501
0.00036852
0.000340967
0.000314762
0.000291963
0.000271778
0.000253342
0.000236271
0.000220631
0.000206679
0.000194694
0.000184885
0.000177354
0.00017208
0.000168924
0.000167657
0.000167997
0.000169646
0.000172326
0.000175794
0.000179857
0.000184378
0.0001893
0.000194587
0.000420637
0.000398039
0.000373474
0.000346903
0.000318883
0.000292656
0.000270145
0.000250254
0.000232086
0.000215355
0.000200222
0.00018699
0.000175937
0.000167246
0.000160963
0.000156995
0.000155127
0.000155067
0.000156487
0.00015907
0.000162535
0.000166657
0.000171269
0.000176302
0.000181713
0.000400112
0.000377027
0.000351983
0.00032495
0.000296655
0.000270651
0.000248601
0.000229113
0.000211319
0.000195067
0.000180609
0.000168278
0.00015834
0.00015093
0.000146021
0.000143432
0.000142872
0.000143988
0.00014642
0.000149845
0.000154
0.00015869
0.000163817
0.000169338
0.000400447
0.000378886
0.000355447
0.000330061
0.000302707
0.000274357
0.000248835
0.0002274
0.000208414
0.000191111
0.000175495
0.000161894
0.000150656
0.000142016
0.000136037
0.000132599
0.000131427
0.00013215
0.000134369
0.000137712
0.000141872
0.000146619
0.000151824
0.000157441
0.000398788
0.000378775
0.000356995
0.000333348
0.000307765
0.000280234
0.000252083
0.000227306
0.000206614
0.000188226
0.000171546
0.000156739
0.000144193
0.000134248
0.000127082
0.000122661
0.000120752
0.000120982
0.000122915
0.000126127
0.000130258
0.000135038
0.000140304
0.000146004
0.00037644
0.000356348
0.000334503
0.000310801
0.000285173
0.000257618
0.00022995
0.000206168
0.000186322
0.000168628
0.000152724
0.000138919
0.000127638
0.000119188
0.000113652
0.000110874
0.000110498
0.000112061
0.000115084
0.000119148
0.000123935
0.000129243
0.000135008
0.000371655
0.000353255
0.000333247
0.000311501
0.000287906
0.000262395
0.000234973
0.000208092
0.000185525
0.000166604
0.000149714
0.00013476
0.000122171
0.000112377
0.000105609
0.000101824
0.000100717
0.000101813
0.000104579
0.000108533
0.000113297
0.000118625
0.000124438
0.000347506
0.000329335
0.000309582
0.000288106
0.00026479
0.000239564
0.000212451
0.000186655
0.000165475
0.000147543
0.000131591
0.000117791
0.000106651
9.85636e-05
9.36384e-05
9.16649e-05
9.21822e-05
9.46149e-05
9.84073e-05
0.000103114
0.000108438
0.000114278
0.000338949
0.000322578
0.000304809
0.000285486
0.000264457
0.000241597
0.000216835
0.000190235
0.000165794
0.000146109
0.000129238
0.000114393
0.000101979
9.25324e-05
8.63521e-05
8.33719e-05
8.31871e-05
8.5195e-05
8.87669e-05
9.3378e-05
9.86724e-05
0.000104512
0.000327498
0.000312855
0.000297017
0.000279823
0.000261104
0.000240694
0.000218457
0.000194323
0.000168523
0.000145677
0.000127526
0.000111812
9.82808e-05
8.75082e-05
7.9995e-05
7.58738e-05
7.48516e-05
7.63297e-05
7.96108e-05
8.40817e-05
8.9315e-05
9.51263e-05
0.000300136
0.000286134
0.000270993
0.000254539
0.000236583
0.000216941
0.000195458
0.00017206
0.000147483
0.000126487
0.000109845
9.5419e-05
8.34447e-05
7.45817e-05
6.92063e-05
6.72059e-05
6.80349e-05
7.09431e-05
7.52205e-05
8.03546e-05
8.61077e-05
0.000284489
0.000272196
0.000258988
0.000244699
0.000229137
0.000212091
0.000193345
0.000172717
0.000150118
0.000127273
0.000108376
9.31985e-05
8.02405e-05
7.00975e-05
6.33989e-05
6.02852e-05
6.03341e-05
6.2774e-05
6.67961e-05
7.17873e-05
7.74475e-05
0.000266082
0.000255347
0.000243919
0.00023165
0.000218363
0.000203844
0.000187855
0.000170148
0.000150509
0.00012884
0.000108103
9.14187e-05
7.77235e-05
6.64784e-05
5.8462e-05
5.41247e-05
5.32568e-05
5.51203e-05
5.88158e-05
6.36141e-05
6.91402e-05
0.00023584
0.000226012
0.000215577
0.000204386
0.000192246
0.000178928
0.000164164
0.00014768
0.000129245
0.000108783
9.02016e-05
7.56407e-05
6.35828e-05
5.43677e-05
4.87514e-05
4.68374e-05
4.80055e-05
5.12926e-05
5.58407e-05
6.11837e-05
0.000214025
0.000205607
0.000196794
0.00018747
0.00017748
0.000166623
0.000154649
0.000141266
0.000126171
0.000109129
9.02389e-05
7.37431e-05
6.11673e-05
5.10265e-05
4.41722e-05
4.11107e-05
4.14594e-05
4.42459e-05
4.84792e-05
5.35807e-05
0.000190338
0.000183149
0.00017574
0.000168032
0.000159913
0.000151225
0.000141753
0.000131217
0.000119275
0.000105553
8.97336e-05
7.30028e-05
5.89835e-05
4.82871e-05
4.03609e-05
3.61058e-05
3.55162e-05
3.77022e-05
4.15492e-05
4.63409e-05
0.00016528
0.000159162
0.000152958
0.000146624
0.000140091
0.00013325
0.000125939
0.000117929
0.000108904
9.84601e-05
8.61408e-05
7.15674e-05
5.72983e-05
4.59342e-05
3.72303e-05
3.18299e-05
3.02094e-05
3.16935e-05
3.508e-05
3.94845e-05
0.000139393
0.000134223
0.000129062
0.000123894
0.000118685
0.000113374
0.000107859
0.000101982
9.55028e-05
8.80836e-05
7.92814e-05
6.8607e-05
5.57319e-05
4.36137e-05
3.45569e-05
2.82363e-05
2.55606e-05
2.62543e-05
2.911e-05
3.30475e-05
0.000113244
0.00010894
0.000104705
0.000100543
9.64451e-05
9.23872e-05
8.8318e-05
8.41466e-05
7.97211e-05
7.47995e-05
6.90174e-05
6.18729e-05
5.27937e-05
4.18967e-05
3.20018e-05
2.52076e-05
2.15686e-05
2.14134e-05
2.3682e-05
2.70887e-05
8.74319e-05
8.39467e-05
8.05667e-05
7.73052e-05
7.41683e-05
7.1153e-05
6.82417e-05
6.53946e-05
6.25342e-05
5.95197e-05
5.61058e-05
5.1885e-05
4.62385e-05
3.84052e-05
2.96483e-05
2.25885e-05
1.81995e-05
1.71826e-05
1.88259e-05
2.16645e-05
6.26206e-05
5.9938e-05
5.73787e-05
5.49587e-05
5.26891e-05
5.0575e-05
4.86152e-05
4.67985e-05
4.50969e-05
4.34512e-05
4.17431e-05
3.97457e-05
3.70508e-05
3.30078e-05
2.68656e-05
1.99817e-05
1.53196e-05
1.35385e-05
1.45432e-05
1.68318e-05
3.96585e-05
3.77786e-05
3.60257e-05
3.44133e-05
3.29492e-05
3.16378e-05
3.04809e-05
2.94778e-05
2.86235e-05
2.79033e-05
2.72793e-05
2.66647e-05
2.58745e-05
2.45301e-05
2.19637e-05
1.75457e-05
1.2669e-05
1.03945e-05
1.07591e-05
1.17701e-05
1.98759e-05
1.87936e-05
1.78214e-05
1.69642e-05
1.62225e-05
1.55958e-05
1.5084e-05
1.46885e-05
1.44117e-05
1.42556e-05
1.42119e-05
1.42488e-05
1.43122e-05
1.42263e-05
1.37458e-05
1.23546e-05
9.69908e-06
7.50395e-06
7.4923e-06
7.5201e-06
5.74037e-06
5.36952e-06
5.05417e-06
4.79051e-06
4.57478e-06
4.40486e-06
4.28052e-06
4.20359e-06
4.17835e-06
4.2102e-06
4.28227e-06
4.32643e-06
4.35784e-06
4.42643e-06
4.54373e-06
4.6898e-06
4.84097e-06
4.83976e-06
4.74212e-06
4.68674e-06
2.28798e-07
2.02745e-07
1.80321e-07
1.61399e-07
1.45681e-07
1.32826e-07
1.22517e-07
1.14495e-07
1.0858e-07
1.04711e-07
1.04425e-07
1.11774e-07
1.23476e-07
1.39962e-07
1.63067e-07
1.95804e-07
2.50923e-07
3.75496e-07
1.00246e-06
2.21973e-06
0.00261024
0.00258433
0.00255754
0.00252969
0.00250062
0.00247015
0.00243811
0.00240433
0.00236865
0.00233092
0.00229101
0.00224879
0.00220417
0.00215707
0.00210745
0.00205529
0.0020006
0.00194345
0.0018839
0.00182209
0.00175816
0.0016923
0.00162475
0.00155573
0.00148554
0.00141447
0.00134283
0.00127097
0.0011992
0.00112788
0.00105734
0.000987921
0.000919933
0.00085368
0.00078944
0.000727464
0.000667973
0.00061115
0.000557139
0.000506039
0.000457902
0.000412722
0.000370439
0.000330925
0.000293983
0.00025934
0.000226642
0.000195457
0.000165285
0.000135587
0.000105876
7.59381e-05
4.64578e-05
2.07171e-05
5.52947e-06
0.0026088
0.00258255
0.00255538
0.00252712
0.0024976
0.00246665
0.0024341
0.00239979
0.00236355
0.00232525
0.00228476
0.00224196
0.00219677
0.00214911
0.00209896
0.0020463
0.00199117
0.00193362
0.00187374
0.00181167
0.00174755
0.0016816
0.00161402
0.00154508
0.00147505
0.00140422
0.00133292
0.00126146
0.00119017
0.00111939
0.00104946
0.000980676
0.000913364
0.000847806
0.00078427
0.000722992
0.000664181
0.000608005
0.000554596
0.000504041
0.000456377
0.000411588
0.000369603
0.000330284
0.000293428
0.000258755
0.000225914
0.000194479
0.000163969
0.00013389
0.000103864
7.3934e-05
4.53028e-05
2.15431e-05
7.73937e-06
0.00260726
0.00258066
0.0025531
0.00252441
0.00249443
0.00246299
0.00242992
0.00239506
0.00235826
0.00231939
0.00227831
0.00223493
0.00218916
0.00214096
0.00209028
0.00203714
0.00198158
0.00192364
0.00186345
0.00180113
0.00173685
0.00167082
0.00160325
0.00153439
0.00146454
0.00139398
0.00132302
0.00125198
0.00118118
0.00111096
0.00104162
0.000973489
0.00090685
0.000841985
0.000779145
0.000718556
0.000660411
0.000604869
0.000552046
0.000502016
0.000454806
0.000410389
0.000368682
0.000329541
0.000292756
0.000258046
0.000225065
0.000193403
0.000162616
0.000132286
0.000102181
7.25948e-05
4.5008e-05
2.33202e-05
1.08041e-05
0.00260563
0.00257865
0.00255069
0.00252156
0.00249111
0.00245916
0.00242556
0.00239015
0.00235278
0.00231332
0.00227166
0.00222769
0.00218136
0.00213261
0.00208142
0.00202781
0.00197182
0.00191353
0.00185304
0.0017905
0.00172607
0.00165997
0.00159242
0.00152368
0.00145403
0.00138374
0.00131314
0.00124254
0.00117224
0.00110258
0.00103385
0.00096636
0.000900394
0.000836215
0.000774064
0.000714154
0.000656664
0.000601739
0.000549486
0.000499964
0.000453189
0.000409125
0.000367679
0.000328701
0.000291977
0.000257231
0.000224126
0.00019228
0.000161302
0.000130873
0.000100922
7.19567e-05
4.57067e-05
2.62855e-05
1.48921e-05
0.00260388
0.00257653
0.00254814
0.00251856