/*--------------------------------*- C++ -*----------------------------------*\
  =========                 |
  \\      /  F ield         | OpenFOAM: The Open Source CFD Toolbox
   \\    /   O peration     | Website:  https://openfoam.org
    \\  /    A nd           | Version:  10
     \\/     M anipulation  |
\*---------------------------------------------------------------------------*/
FoamFile
{
    format      ascii;
    class       surfaceScalarField;
    location    "53000";
    object      phi;
}
// * * * * * * * * * * * * * * * * * * * * * * * * * * * * * * * * * * * * * //

dimensions      [0 3 -1 0 0 0 0];

internalField   nonuniform List<scalar> 
35585
(
6.05807e-06
-3.68249e-06
5.93492e-06
-3.6787e-06
5.81202e-06
-3.67048e-06
5.68957e-06
-3.65839e-06
5.56776e-06
-3.64294e-06
5.44683e-06
-3.62456e-06
5.32698e-06
-3.60363e-06
5.20845e-06
-3.58046e-06
5.09144e-06
-3.55533e-06
4.97615e-06
-3.52844e-06
4.86279e-06
-3.49997e-06
4.75152e-06
-3.47006e-06
4.6425e-06
-3.43884e-06
4.53586e-06
-3.40639e-06
4.43172e-06
-3.3728e-06
4.33017e-06
-3.33813e-06
4.2313e-06
-3.30245e-06
4.13515e-06
-3.26581e-06
4.04177e-06
-3.22827e-06
3.95117e-06
-3.18987e-06
3.86338e-06
-3.15067e-06
3.77837e-06
-3.11072e-06
3.69615e-06
-3.07006e-06
3.61667e-06
-3.02876e-06
3.53991e-06
-2.98686e-06
3.46582e-06
-2.94442e-06
3.39436e-06
-2.90149e-06
3.32547e-06
-2.85813e-06
3.25909e-06
-2.81439e-06
3.19515e-06
-2.77034e-06
3.1336e-06
-2.72601e-06
3.07437e-06
-2.68146e-06
3.01739e-06
-2.63676e-06
2.96259e-06
-2.59194e-06
2.90989e-06
-2.54707e-06
2.85924e-06
-2.50217e-06
2.81055e-06
-2.45732e-06
2.76377e-06
-2.41254e-06
2.71882e-06
-2.36789e-06
2.67564e-06
-2.3234e-06
2.63416e-06
-2.27911e-06
2.59432e-06
-2.23507e-06
2.55605e-06
-2.1913e-06
2.51929e-06
-2.14784e-06
2.48399e-06
-2.10472e-06
2.45008e-06
-2.06197e-06
2.41752e-06
-2.01962e-06
-1.97768e-06
2.38624e-06
6.34501e-06
-3.54675e-06
6.20963e-06
-3.54332e-06
6.07478e-06
-3.53563e-06
5.94068e-06
-3.52428e-06
5.80753e-06
-3.50979e-06
5.67556e-06
-3.49259e-06
5.54501e-06
-3.47308e-06
5.4161e-06
-3.45156e-06
5.28907e-06
-3.4283e-06
5.16412e-06
-3.40349e-06
5.04145e-06
-3.3773e-06
4.92125e-06
-3.34986e-06
4.80366e-06
-3.32125e-06
4.68883e-06
-3.29156e-06
4.57687e-06
-3.26084e-06
4.46786e-06
-3.22913e-06
4.36189e-06
-3.19648e-06
4.25899e-06
-3.16292e-06
4.1592e-06
-3.12848e-06
4.06253e-06
-3.0932e-06
3.96898e-06
-3.05712e-06
3.87854e-06
-3.02027e-06
3.79117e-06
-2.98269e-06
3.70683e-06
-2.94442e-06
3.62549e-06
-2.90552e-06
3.54708e-06
-2.86601e-06
3.47155e-06
-2.82596e-06
3.39883e-06
-2.78541e-06
3.32884e-06
-2.74441e-06
3.26152e-06
-2.70301e-06
3.19678e-06
-2.66127e-06
3.13456e-06
-2.61924e-06
3.07477e-06
-2.57697e-06
3.01733e-06
-2.5345e-06
2.96217e-06
-2.4919e-06
2.9092e-06
-2.44921e-06
2.85835e-06
-2.40647e-06
2.80954e-06
-2.36373e-06
2.76269e-06
-2.32104e-06
2.71773e-06
-2.27844e-06
2.67459e-06
-2.23597e-06
2.6332e-06
-2.19367e-06
2.59348e-06
-2.15158e-06
2.55537e-06
-2.10973e-06
2.5188e-06
-2.06815e-06
2.48372e-06
-2.02689e-06
2.45006e-06
-1.98595e-06
-1.94538e-06
2.41775e-06
6.58878e-06
6.44084e-06
6.29374e-06
6.14767e-06
6.00287e-06
-3.36499e-06
5.85959e-06
-3.34931e-06
5.71807e-06
-3.33156e-06
5.57855e-06
-3.31205e-06
5.44129e-06
-3.29103e-06
5.30649e-06
-3.26869e-06
5.17437e-06
-3.24518e-06
5.04511e-06
-3.2206e-06
4.91888e-06
-3.19502e-06
4.7958e-06
-3.16849e-06
4.676e-06
-3.14103e-06
4.55955e-06
-3.11268e-06
4.44652e-06
-3.08344e-06
4.33694e-06
-3.05334e-06
4.23084e-06
-3.02238e-06
4.12822e-06
-2.99058e-06
4.02906e-06
-2.95796e-06
3.93333e-06
-2.92454e-06
3.841e-06
-2.89035e-06
3.752e-06
-2.85543e-06
3.66628e-06
-2.8198e-06
3.58378e-06
-2.7835e-06
3.50441e-06
-2.74659e-06
3.42809e-06
-2.70909e-06
3.35475e-06
-2.67106e-06
3.28429e-06
-2.63256e-06
3.21663e-06
-2.59361e-06
3.15168e-06
-2.55429e-06
3.08935e-06
-2.51464e-06
3.02955e-06
-2.4747e-06
2.97219e-06
-2.43454e-06
2.91717e-06
-2.3942e-06
2.86443e-06
-2.35372e-06
2.81386e-06
-2.31316e-06
2.76538e-06
-2.27256e-06
2.71891e-06
-2.23197e-06
2.67437e-06
-2.19144e-06
2.63169e-06
-2.15099e-06
2.59078e-06
-2.11067e-06
2.55157e-06
-2.07052e-06
2.514e-06
-2.03058e-06
2.47799e-06
-1.99087e-06
2.44347e-06
-1.95144e-06
-1.9123e-06
2.41039e-06
6.15687e-06
-3.20824e-06
6.00197e-06
-3.19441e-06
5.8492e-06
-3.17878e-06
5.69881e-06
-3.16166e-06
5.55108e-06
-3.14329e-06
5.40624e-06
-3.12385e-06
5.2645e-06
-3.10345e-06
5.12608e-06
-3.08217e-06
4.99112e-06
-3.06006e-06
4.85976e-06
-3.03713e-06
4.73212e-06
-3.01339e-06
4.60826e-06
-2.98882e-06
4.48824e-06
-2.96343e-06
4.37209e-06
-2.93719e-06
4.25981e-06
-2.9101e-06
4.15139e-06
-2.88216e-06
4.04679e-06
-2.85337e-06
3.94598e-06
-2.82373e-06
3.84889e-06
-2.79327e-06
3.75546e-06
-2.762e-06
3.66561e-06
-2.72995e-06
3.57926e-06
-2.69715e-06
3.4963e-06
-2.66363e-06
3.41666e-06
-2.62945e-06
3.34023e-06
-2.59464e-06
3.26692e-06
-2.55924e-06
3.19661e-06
-2.52331e-06
3.12921e-06
-2.4869e-06
3.06462e-06
-2.45005e-06
3.00274e-06
-2.41282e-06
2.94346e-06
-2.37526e-06
2.88668e-06
-2.33742e-06
2.83231e-06
-2.29935e-06
2.78026e-06
-2.26111e-06
2.73042e-06
-2.22273e-06
2.68272e-06
-2.18427e-06
2.63705e-06
-2.14577e-06
2.59334e-06
-2.10728e-06
2.55149e-06
-2.06883e-06
2.51144e-06
-2.03047e-06
2.47311e-06
-1.99224e-06
2.43641e-06
-1.95418e-06
2.40128e-06
-1.91631e-06
-1.87867e-06
2.36765e-06
6.27069e-06
-3.03907e-06
6.10373e-06
-3.02745e-06
5.93927e-06
-3.01433e-06
5.77764e-06
-3.00002e-06
5.6191e-06
-2.98476e-06
5.46393e-06
-2.96868e-06
5.31237e-06
-2.95189e-06
5.16461e-06
-2.93442e-06
5.02083e-06
-2.91628e-06
4.88115e-06
-2.89745e-06
4.74567e-06
-2.87791e-06
4.61446e-06
-2.85761e-06
4.48756e-06
-2.83652e-06
4.36497e-06
-2.8146e-06
4.24668e-06
-2.79181e-06
4.13266e-06
-2.76814e-06
4.02287e-06
-2.74357e-06
3.91722e-06
-2.71809e-06
3.81566e-06
-2.6917e-06
3.71808e-06
-2.66442e-06
3.6244e-06
-2.63627e-06
3.53451e-06
-2.60726e-06
3.4483e-06
-2.57743e-06
3.36567e-06
-2.54681e-06
3.28649e-06
-2.51546e-06
3.21065e-06
-2.4834e-06
3.13804e-06
-2.4507e-06
3.06854e-06
-2.41739e-06
3.00203e-06
-2.38354e-06
2.9384e-06
-2.34919e-06
2.87754e-06
-2.3144e-06
2.81934e-06
-2.27922e-06
2.76368e-06
-2.2437e-06
2.71047e-06
-2.2079e-06
2.65961e-06
-2.17186e-06
2.61098e-06
-2.13564e-06
2.5645e-06
-2.09929e-06
2.52007e-06
-2.06285e-06
2.4776e-06
-2.02636e-06
2.437e-06
-1.98988e-06
2.3982e-06
-1.95344e-06
2.36111e-06
-1.91708e-06
2.32565e-06
-1.88085e-06
-1.84477e-06
2.29175e-06
6.34548e-06
6.16585e-06
-2.84782e-06
5.98919e-06
-2.83766e-06
5.81584e-06
-2.82668e-06
5.64614e-06
-2.81505e-06
5.48037e-06
-2.80291e-06
5.31879e-06
-2.7903e-06
5.16159e-06
-2.77722e-06
5.00895e-06
-2.76364e-06
4.86099e-06
-2.74949e-06
4.71778e-06
-2.7347e-06
4.57938e-06
-2.71921e-06
4.44579e-06
-2.70294e-06
4.31701e-06
-2.68582e-06
4.19301e-06
-2.6678e-06
4.07371e-06
-2.64884e-06
3.95905e-06
-2.62891e-06
3.84893e-06
-2.60798e-06
3.74326e-06
-2.58604e-06
3.64193e-06
-2.56309e-06
3.54481e-06
-2.53915e-06
3.45179e-06
-2.51423e-06
3.36273e-06
-2.48837e-06
3.2775e-06
-2.46159e-06
3.19598e-06
-2.43393e-06
3.11803e-06
-2.40545e-06
3.04351e-06
-2.37618e-06
2.9723e-06
-2.34618e-06
2.90427e-06
-2.31551e-06
2.83929e-06
-2.28421e-06
2.77724e-06
-2.25234e-06
2.71798e-06
-2.21996e-06
2.66142e-06
-2.18713e-06
2.60741e-06
-2.1539e-06
2.55587e-06
-2.12031e-06
2.50667e-06
-2.08644e-06
2.45972e-06
-2.05233e-06
2.4149e-06
-2.01803e-06
2.37213e-06
-1.98359e-06
2.33132e-06
-1.94906e-06
2.29236e-06
-1.91448e-06
2.25517e-06
-1.8799e-06
2.21967e-06
-1.84535e-06
-1.81088e-06
2.18579e-06
6.18693e-06
5.99748e-06
5.81199e-06
-2.64118e-06
5.63081e-06
-2.63388e-06
5.45427e-06
-2.62637e-06
5.2826e-06
-2.61864e-06
5.11602e-06
-2.61064e-06
4.95466e-06
-2.60228e-06
4.79862e-06
-2.59345e-06
4.64797e-06
-2.58405e-06
4.50271e-06
-2.57395e-06
4.36283e-06
-2.56306e-06
4.22829e-06
-2.55128e-06
4.09901e-06
-2.53853e-06
3.97491e-06
-2.52474e-06
3.85588e-06
-2.50988e-06
3.7418e-06
-2.49389e-06
3.63254e-06
-2.47678e-06
3.52797e-06
-2.45851e-06
3.42794e-06
-2.43911e-06
3.3323e-06
-2.41859e-06
3.2409e-06
-2.39697e-06
3.1536e-06
-2.37429e-06
3.07024e-06
-2.35057e-06
2.99068e-06
-2.32588e-06
2.91475e-06
-2.30026e-06
2.84232e-06
-2.27376e-06
2.77325e-06
-2.24643e-06
2.70738e-06
-2.21834e-06
2.64459e-06
-2.18955e-06
2.58473e-06
-2.16011e-06
2.52769e-06
-2.13008e-06
2.47332e-06
-2.09953e-06
2.42151e-06
-2.06851e-06
2.37215e-06
-2.03708e-06
2.32512e-06
-2.0053e-06
2.28031e-06
-1.97322e-06
2.23761e-06
-1.9409e-06
2.19693e-06
-1.90838e-06
2.15816e-06
-1.87572e-06
2.12123e-06
-1.84296e-06
2.08603e-06
-1.81015e-06
-1.77733e-06
2.05248e-06
5.76333e-06
5.57073e-06
-2.44128e-06
5.38359e-06
-2.43923e-06
5.20215e-06
-2.43719e-06
5.02658e-06
-2.43506e-06
4.85698e-06
-2.43268e-06
4.69343e-06
-2.4299e-06
4.53594e-06
-2.42655e-06
4.38447e-06
-2.42248e-06
4.23897e-06
-2.41756e-06
4.09935e-06
-2.41166e-06
3.96551e-06
-2.40468e-06
3.83732e-06
-2.39655e-06
3.71463e-06
-2.38719e-06
3.59729e-06
-2.37656e-06
3.48515e-06
-2.36463e-06
3.37803e-06
-2.3514e-06
3.27577e-06
-2.33685e-06
3.17818e-06
-2.32101e-06
3.08511e-06
-2.3039e-06
2.99638e-06
-2.28555e-06
2.9118e-06
-2.266e-06
2.83123e-06
-2.24531e-06
2.75448e-06
-2.22351e-06
2.6814e-06
-2.20068e-06
2.61182e-06
-2.17686e-06
2.5456e-06
-2.15212e-06
2.48258e-06
-2.12653e-06
2.42262e-06
-2.10015e-06
2.36558e-06
-2.07304e-06
2.31131e-06
-2.04527e-06
2.2597e-06
-2.0169e-06
2.21061e-06
-1.98799e-06
2.16392e-06
-1.95861e-06
2.11952e-06
-1.92882e-06
2.07729e-06
-1.89867e-06
2.03713e-06
-1.86822e-06
1.99894e-06
-1.83752e-06
1.96261e-06
-1.80663e-06
1.92805e-06
-1.7756e-06
-1.74447e-06
1.89519e-06
5.46263e-06
5.26566e-06
5.07529e-06
-2.24682e-06
4.89164e-06
-2.25141e-06
4.71477e-06
-2.25581e-06
4.54468e-06
-2.25981e-06
4.38133e-06
-2.2632e-06
4.22465e-06
-2.2658e-06
4.07451e-06
-2.26743e-06
3.9308e-06
-2.26795e-06
3.79335e-06
-2.26723e-06
3.662e-06
-2.26519e-06
3.53656e-06
-2.26175e-06
3.41685e-06
-2.25685e-06
3.30268e-06
-2.25046e-06
3.19385e-06
-2.24257e-06
3.09016e-06
-2.23316e-06
2.99142e-06
-2.22227e-06
2.89743e-06
-2.20991e-06
2.80799e-06
-2.19611e-06
2.72292e-06
-2.18093e-06
2.64201e-06
-2.16441e-06
2.56511e-06
-2.1466e-06
2.49202e-06
-2.12759e-06
2.42258e-06
-2.10741e-06
2.35661e-06
-2.08615e-06
2.29396e-06
-2.06388e-06
2.23446e-06
-2.04065e-06
2.17797e-06
-2.01655e-06
2.12435e-06
-1.99164e-06
2.07344e-06
-1.96599e-06
2.02512e-06
-1.93967e-06
1.97925e-06
-1.91275e-06
1.93572e-06
-1.88529e-06
1.8944e-06
-1.85735e-06
1.85519e-06
-1.82901e-06
1.81798e-06
-1.80031e-06
1.78265e-06
-1.77131e-06
1.74912e-06
-1.74207e-06
-1.71264e-06
1.7173e-06
4.90098e-06
4.71072e-06
4.52802e-06
4.35282e-06
4.18502e-06
-2.0954e-06
4.02447e-06
-2.10525e-06
3.87101e-06
-2.11397e-06
3.72447e-06
-2.1214e-06
3.58463e-06
-2.1274e-06
3.45129e-06
-2.13186e-06
3.32423e-06
-2.13469e-06
3.20323e-06
-2.13585e-06
3.08807e-06
-2.1353e-06
2.97852e-06
-2.13301e-06
2.87436e-06
-2.129e-06
2.77536e-06
-2.12327e-06
2.68132e-06
-2.11586e-06
2.59202e-06
-2.10681e-06
2.50725e-06
-2.09616e-06
2.42681e-06
-2.08396e-06
2.35049e-06
-2.07029e-06
2.27812e-06
-2.05521e-06
2.20949e-06
-2.03879e-06
2.14444e-06
-2.0211e-06
2.08278e-06
-2.00222e-06
2.02434e-06
-1.98222e-06
1.96898e-06
-1.96118e-06
1.91653e-06
-1.93919e-06
1.86684e-06
-1.9163e-06
1.81978e-06
-1.89261e-06
1.77522e-06
-1.86818e-06
1.73301e-06
-1.84308e-06
1.69304e-06
-1.81738e-06
1.65519e-06
-1.79116e-06
1.61935e-06
-1.76447e-06
1.58541e-06
-1.73737e-06
1.55328e-06
-1.70993e-06
-1.68221e-06
1.52284e-06
3.95e-06
-1.92488e-06
3.78726e-06
-1.94251e-06
3.63209e-06
-1.95879e-06
3.48424e-06
-1.97355e-06
3.34347e-06
-1.98663e-06
3.20954e-06
-1.99792e-06
3.08218e-06
-2.00734e-06
2.96115e-06
-2.01482e-06
2.8462e-06
-2.02034e-06
2.73706e-06
-2.02388e-06
2.6335e-06
-2.02544e-06
2.53527e-06
-2.02505e-06
2.44214e-06
-2.02273e-06
2.35388e-06
-2.01854e-06
2.27025e-06
-2.01253e-06
2.19105e-06
-2.00476e-06
2.11605e-06
-1.9953e-06
2.04507e-06
-1.98423e-06
1.9779e-06
-1.97162e-06
1.91436e-06
-1.95756e-06
1.85426e-06
-1.94212e-06
1.79744e-06
-1.92539e-06
1.74372e-06
-1.90746e-06
1.69294e-06
-1.88841e-06
1.64496e-06
-1.86832e-06
1.59961e-06
-1.84727e-06
1.55678e-06
-1.82534e-06
1.51631e-06
-1.80261e-06
1.47808e-06
-1.77916e-06
1.44198e-06
-1.75505e-06
1.40788e-06
-1.73037e-06
1.37568e-06
-1.70517e-06
1.34527e-06
-1.67952e-06
-1.65348e-06
1.31654e-06
3.68009e-06
-1.7535e-06
3.5169e-06
-1.77933e-06
3.36165e-06
-1.80354e-06
3.21405e-06
-1.82594e-06
3.0738e-06
-1.84639e-06
2.94064e-06
-1.86476e-06
2.81427e-06
-1.88097e-06
2.69442e-06
-1.89497e-06
2.5808e-06
-1.90672e-06
2.47314e-06
-1.91622e-06
2.37119e-06
-1.92348e-06
2.27467e-06
-1.92853e-06
2.18334e-06
-1.9314e-06
2.09696e-06
-1.93216e-06
2.01528e-06
-1.93086e-06
1.93809e-06
-1.92757e-06
1.86516e-06
-1.92237e-06
1.79628e-06
-1.91535e-06
1.73125e-06
-1.90659e-06
1.66988e-06
-1.89618e-06
1.61197e-06
-1.88421e-06
1.55734e-06
-1.87077e-06
1.50582e-06
-1.85595e-06
1.45725e-06
-1.83984e-06
1.41147e-06
-1.82254e-06
1.36833e-06
-1.80412e-06
1.32768e-06
-1.78469e-06
1.28938e-06
-1.76432e-06
1.25331e-06
-1.74309e-06
1.21934e-06
-1.72109e-06
1.18736e-06
-1.69838e-06
1.15724e-06
-1.67505e-06
1.12889e-06
-1.65117e-06
-1.6268e-06
1.10221e-06
3.38145e-06
-1.58324e-06
3.21968e-06
-1.61755e-06
3.06608e-06
-1.64994e-06
2.92033e-06
-1.68019e-06
2.78211e-06
-1.70817e-06
2.65112e-06
-1.73377e-06
2.52704e-06
-1.75689e-06
2.40958e-06
-1.77751e-06
2.29844e-06
-1.79558e-06
2.19333e-06
-1.81112e-06
2.09398e-06
-1.82413e-06
2.00011e-06
-1.83466e-06
1.91147e-06
-1.84276e-06
1.82781e-06
-1.84849e-06
1.74887e-06
-1.85192e-06
1.67443e-06
-1.85313e-06
1.60426e-06
-1.8522e-06
1.53815e-06
-1.84923e-06
1.47587e-06
-1.84432e-06
1.41724e-06
-1.83755e-06
1.36205e-06
-1.82902e-06
1.31013e-06
-1.81885e-06
1.2613e-06
-1.80712e-06
1.21539e-06
-1.79393e-06
1.17224e-06
-1.77939e-06
1.13169e-06
-1.76358e-06
1.09361e-06
-1.7466e-06
1.05785e-06
-1.72855e-06
1.02427e-06
-1.70951e-06
9.9276e-07
-1.68957e-06
9.63192e-07
-1.66881e-06
9.35452e-07
-1.64731e-06
9.09435e-07
-1.62515e-06
-1.6024e-06
8.85039e-07
3.06127e-06
2.90275e-06
-1.45904e-06
2.75251e-06
-1.49969e-06
2.6102e-06
-1.53788e-06
2.47548e-06
-1.57345e-06
2.34802e-06
-1.60631e-06
2.2275e-06
-1.63637e-06
2.1136e-06
-1.66361e-06
2.00602e-06
-1.688e-06
1.90446e-06
-1.70956e-06
1.80865e-06
-1.72831e-06
1.71829e-06
-1.74431e-06
1.63314e-06
-1.75761e-06
1.55293e-06
-1.76828e-06
1.47741e-06
-1.7764e-06
1.40635e-06
-1.78207e-06
1.33952e-06
-1.78537e-06
1.2767e-06
-1.78641e-06
1.21768e-06
-1.78529e-06
1.16226e-06
-1.78212e-06
1.11023e-06
-1.777e-06
1.06143e-06
-1.77004e-06
1.01566e-06
-1.76135e-06
9.72765e-07
-1.75103e-06
9.32577e-07
-1.7392e-06
8.94945e-07
-1.72595e-06
8.59718e-07
-1.71138e-06
8.26761e-07
-1.6956e-06
7.95938e-07
-1.67869e-06
7.67123e-07
-1.66076e-06
7.40196e-07
-1.64189e-06
7.15045e-07
-1.62216e-06
6.9156e-07
-1.60167e-06
-1.58048e-06
6.69641e-07
2.57418e-06
-1.30549e-06
2.42886e-06
-1.35437e-06
2.29141e-06
-1.40043e-06
2.16149e-06
-1.44353e-06
2.03875e-06
-1.48357e-06
1.92287e-06
-1.52049e-06
1.81354e-06
-1.55427e-06
1.71044e-06
-1.5849e-06
1.61327e-06
-1.6124e-06
1.52176e-06
-1.63681e-06
1.43564e-06
-1.65818e-06
1.35462e-06
-1.6766e-06
1.27847e-06
-1.69213e-06
1.20693e-06
-1.70486e-06
1.13976e-06
-1.71491e-06
1.07675e-06
-1.72236e-06
1.01766e-06
-1.72733e-06
9.62299e-07
-1.72993e-06
9.10454e-07
-1.73028e-06
8.61936e-07
-1.72848e-06
8.16561e-07
-1.72466e-06
7.74151e-07
-1.71894e-06
7.34539e-07
-1.71142e-06
6.97564e-07
-1.70222e-06
6.63071e-07
-1.69145e-06
6.30917e-07
-1.67922e-06
6.0096e-07
-1.66564e-06
5.73069e-07
-1.6508e-06
5.47119e-07
-1.63481e-06
5.22989e-07
-1.61776e-06
5.00568e-07
-1.59974e-06
4.79747e-07
-1.58085e-06
-1.56116e-06
4.60426e-07
2.2427e-06
-1.15836e-06
2.10361e-06
-1.21529e-06
1.97222e-06
-1.26904e-06
1.84817e-06
-1.31948e-06
1.73113e-06
-1.36653e-06
1.62078e-06
-1.41014e-06
1.51681e-06
-1.4503e-06
1.41892e-06
-1.487e-06
1.32681e-06
-1.52029e-06
1.24021e-06
-1.55021e-06
1.15885e-06
-1.57682e-06
1.08247e-06
-1.60021e-06
1.01082e-06
-1.62047e-06
9.43652e-07
-1.6377e-06
8.80742e-07
-1.652e-06
8.21865e-07
-1.66348e-06
7.66807e-07
-1.67227e-06
7.15362e-07
-1.67848e-06
6.67333e-07
-1.68225e-06
6.2253e-07
-1.68368e-06
5.80773e-07
-1.68291e-06
5.41888e-07
-1.68006e-06
5.0571e-07
-1.67524e-06
4.7208e-07
-1.66859e-06
4.40847e-07
-1.66022e-06
4.11867e-07
-1.65024e-06
3.85004e-07
-1.63877e-06
3.60126e-07
-1.62592e-06
3.37109e-07
-1.61179e-06
3.15837e-07
-1.59649e-06
2.96198e-07
-1.5801e-06
2.78085e-07
-1.56273e-06
-1.54447e-06
2.61399e-07
1.91707e-06
1.78519e-06
-1.0834e-06
1.66071e-06
-1.14456e-06
1.54331e-06
-1.20208e-06
1.43267e-06
-1.25589e-06
1.32848e-06
-1.30595e-06
1.23044e-06
-1.35226e-06
1.13826e-06
-1.39482e-06
1.05165e-06
-1.43369e-06
9.70362e-07
-1.46892e-06
8.9412e-07
-1.50058e-06
8.22677e-07
-1.52877e-06
7.55792e-07
-1.55359e-06
6.93231e-07
-1.57514e-06
6.34773e-07
-1.59354e-06
5.80202e-07
-1.60891e-06
5.2931e-07
-1.62138e-06
4.819e-07
-1.63107e-06
4.3778e-07
-1.63813e-06
3.96768e-07
-1.64267e-06
3.58686e-07
-1.64483e-06
3.23368e-07
-1.64474e-06
2.90651e-07
-1.64253e-06
2.60382e-07
-1.63832e-06
2.32414e-07
-1.63225e-06
2.06605e-07
-1.62444e-06
1.82823e-07
-1.61499e-06
1.60938e-07
-1.60404e-06
1.4083e-07
-1.59168e-06
1.22385e-07
-1.57804e-06
1.05492e-07
-1.56321e-06
9.00484e-08
-1.54729e-06
-1.53038e-06
7.59551e-08
1.48144e-06
-9.59282e-07
1.36438e-06
-1.0275e-06
1.25409e-06
-1.09179e-06
1.15026e-06
-1.15206e-06
1.0526e-06
-1.2083e-06
9.60821e-07
-1.26048e-06
8.74639e-07
-1.30864e-06
7.93784e-07
-1.35283e-06
7.17999e-07
-1.39313e-06
6.47034e-07
-1.42962e-06
5.80649e-07
-1.46239e-06
5.18617e-07
-1.49156e-06
4.60716e-07
-1.51724e-06
4.06734e-07
-1.53956e-06
3.56468e-07
-1.55864e-06
3.09721e-07
-1.57463e-06
2.66304e-07
-1.58766e-06
2.26036e-07
-1.59786e-06
1.88741e-07
-1.60537e-06
1.54253e-07
-1.61034e-06
1.22408e-07
-1.61289e-06
9.3053e-08
-1.61317e-06
6.60379e-08
-1.61131e-06
4.12219e-08
-1.60744e-06
1.84686e-08
-1.60168e-06
-2.35235e-09
-1.59417e-06
-2.13644e-08
-1.58503e-06
-3.86855e-08
-1.57436e-06
-5.4428e-08
-1.5623e-06
-6.86983e-08
-1.54894e-06
-8.15981e-08
-1.53439e-06
-1.51876e-06
-9.32218e-08
1.19932e-06
-8.43114e-07
1.08984e-06
-9.18019e-07
9.86791e-07
-9.8874e-07
8.89903e-07
-1.05518e-06
7.98884e-07
-1.11728e-06
7.13446e-07
-1.17504e-06
6.33313e-07
-1.22851e-06
5.58226e-07
-1.27775e-06
4.87933e-07
-1.32284e-06
4.22197e-07
-1.36388e-06
3.60792e-07
-1.40098e-06
3.03505e-07
-1.43427e-06
2.5013e-07
-1.46386e-06
2.00471e-07
-1.4899e-06
1.54338e-07
-1.51251e-06
1.1155e-07
-1.53184e-06
7.19297e-08
-1.54804e-06
3.53081e-08
-1.56124e-06
1.5215e-09
-1.57159e-06
-2.95889e-08
-1.57923e-06
-5.81765e-08
-1.5843e-06
-8.43878e-08
-1.58696e-06
-1.08364e-07
-1.58733e-06
-1.30243e-07
-1.58556e-06
-1.50155e-07
-1.58177e-06
-1.68224e-07
-1.5761e-06
-1.8457e-07
-1.56868e-06
-1.99308e-07
-1.55963e-06
-2.12547e-07
-1.54906e-06
-2.2439e-07
-1.5371e-06
-2.34936e-07
-1.52385e-06
-1.50942e-06
-2.44277e-07
9.44912e-07
-7.3445e-07
8.42557e-07
-8.15664e-07
7.46422e-07
-8.92605e-07
6.56298e-07
-9.65053e-07
5.71859e-07
-1.03284e-06
4.92706e-07
-1.09589e-06
4.185e-07
-1.1543e-06
3.48992e-07
-1.20824e-06
2.83955e-07
-1.2578e-06
2.23172e-07
-1.3031e-06
1.66441e-07
-1.34425e-06
1.13573e-07
-1.3814e-06
6.43836e-08
-1.41467e-06
1.86976e-08
-1.44421e-06
-2.36537e-08
-1.47016e-06
-6.28358e-08
-1.49266e-06
-9.90081e-08
-1.51187e-06
-1.32327e-07
-1.52792e-06
-1.62944e-07
-1.54097e-06
-1.91007e-07
-1.55116e-06
-2.16659e-07
-1.55865e-06
-2.40039e-07
-1.56358e-06
-2.61283e-07
-1.56609e-06
-2.8052e-07
-1.56632e-06
-2.97875e-07
-1.56442e-06
-3.13469e-07
-1.56051e-06
-3.27418e-07
-1.55473e-06
-3.39833e-07
-1.54721e-06
-3.5082e-07
-1.53807e-06
-3.6048e-07
-1.52744e-06
-3.68908e-07
-1.51542e-06
-1.50213e-06
-3.76197e-07
7.22637e-07
-6.32906e-07
6.26657e-07
-7.19684e-07
5.36349e-07
-8.02297e-07
4.51743e-07
-8.80447e-07
3.72739e-07
-9.53835e-07
2.99092e-07
-1.02224e-06
2.30437e-07
-1.08564e-06
1.66357e-07
-1.14416e-06
1.06452e-07
-1.19789e-06
5.04245e-08
-1.24707e-06
-1.9025e-09
-1.29193e-06
-5.06715e-08
-1.33263e-06
-9.60237e-08
-1.36932e-06
-1.381e-07
-1.40214e-06
-1.77041e-07
-1.43122e-06
-2.12987e-07
-1.45672e-06
-2.4608e-07
-1.47877e-06
-2.76456e-07
-1.49754e-06
-3.04255e-07
-1.51317e-06
-3.29612e-07
-1.52581e-06
-3.52661e-07
-1.5356e-06
-3.73533e-07
-1.54271e-06
-3.92353e-07
-1.54727e-06
-4.09249e-07
-1.54943e-06
-4.24338e-07
-1.54933e-06
-4.37739e-07
-1.54711e-06
-4.49563e-07
-1.54291e-06
-4.59919e-07
-1.53685e-06
-4.68909e-07
-1.52908e-06
-4.76632e-07
-1.51971e-06
-4.83183e-07
-1.50887e-06
-1.49666e-06
-4.88652e-07
5.31832e-07
-5.38866e-07
4.42379e-07
-6.30231e-07
3.57674e-07
-7.17592e-07
2.77897e-07
-8.0067e-07
2.03204e-07
-8.79141e-07
1.33664e-07
-9.52699e-07
6.91522e-08
-1.02113e-06
9.34481e-09
-1.08435e-06
-4.61609e-08
-1.14239e-06
-9.77877e-08
-1.19544e-06
-1.45912e-07
-1.2438e-06
-1.90779e-07
-1.28776e-06
-2.32514e-07
-1.32759e-06
-2.71218e-07
-1.36343e-06
-3.06996e-07
-1.39544e-06
-3.39961e-07
-1.42375e-06
-3.70232e-07
-1.4485e-06
-3.97928e-07
-1.46985e-06
-4.2317e-07
-1.48793e-06
-4.46082e-07
-1.5029e-06
-4.66786e-07
-1.5149e-06
-4.85404e-07
-1.52409e-06
-5.02057e-07
-1.53062e-06
-5.16861e-07
-1.53462e-06
-5.29931e-07
-1.53626e-06
-5.41381e-07
-1.53566e-06
-5.51318e-07
-1.53297e-06
-5.59847e-07
-1.52833e-06
-5.67069e-07
-1.52186e-06
-5.7308e-07
-1.5137e-06
-5.77974e-07
-1.50397e-06
-1.49279e-06
-5.81838e-07
3.70748e-07
-4.52727e-07
2.88289e-07
-5.47772e-07
2.09716e-07
-6.39019e-07
1.3526e-07
-7.26214e-07
6.51268e-08
-8.09008e-07
-5.38807e-10
-8.87034e-07
-6.16832e-08
-9.59988e-07
-1.18355e-07
-1.02768e-06
-1.70706e-07
-1.09004e-06
-2.19038e-07
-1.14711e-06
-2.63766e-07
-1.19907e-06
-3.05286e-07
-1.24624e-06
-3.43858e-07
-1.28901e-06
-3.79606e-07
-1.32768e-06
-4.12611e-07
-1.36243e-06
-4.42966e-07
-1.39339e-06
-4.7077e-07
-1.4207e-06
-4.96126e-07
-1.44449e-06
-5.19144e-07
-1.46491e-06
-5.39935e-07
-1.4821e-06
-5.58611e-07
-1.49622e-06
-5.75285e-07
-1.50742e-06
-5.90071e-07
-1.51583e-06
-6.03079e-07
-1.52161e-06
-6.1442e-07
-1.52491e-06
-6.242e-07
-1.52588e-06
-6.32526e-07
-1.52464e-06
-6.39499e-07
-1.52135e-06
-6.45216e-07
-1.51614e-06
-6.49772e-07
-1.50914e-06
-6.53258e-07
-1.50049e-06
-1.49029e-06
-6.55759e-07
2.40845e-07
-3.74649e-07
1.6557e-07
-4.72497e-07
9.32684e-08
-5.66717e-07
2.42355e-08
-6.57181e-07
-4.12221e-08
-7.4355e-07
-1.02859e-07
-8.25397e-07
-1.60532e-07
-9.02315e-07
-2.14203e-07
-9.74007e-07
-2.63934e-07
-1.04031e-06
-3.09868e-07
-1.10118e-06
-3.52227e-07
-1.15671e-06
-3.91332e-07
-1.20714e-06
-4.2753e-07
-1.25282e-06
-4.61026e-07
-1.29419e-06
-4.91906e-07
-1.33155e-06
-5.20252e-07
-1.36505e-06
-5.46153e-07
-1.3948e-06
-5.69703e-07
-1.42094e-06
-5.91002e-07
-1.44361e-06
-6.10152e-07
-1.46295e-06
-6.2726e-07
-1.47912e-06
-6.4243e-07
-1.49225e-06
-6.55771e-07
-1.50249e-06
-6.67389e-07
-1.51e-06
-6.7739e-07
-1.51491e-06
-6.85877e-07
-1.51739e-06
-6.92954e-07
-1.51757e-06
-6.98718e-07
-1.51559e-06
-7.03267e-07
-1.51159e-06
-7.06691e-07
-1.50572e-06
-7.09081e-07
-1.4981e-06
-1.48885e-06
-7.10522e-07
1.42197e-07
-3.04272e-07
7.41206e-08
-4.04421e-07
8.16986e-09
-5.00766e-07
-5.54306e-08
-5.93581e-07
-1.16313e-07
-6.82668e-07
-1.74116e-07
-7.67595e-07
-2.2856e-07
-8.47871e-07
-2.79492e-07
-9.23075e-07
-3.2688e-07
-9.92918e-07
-3.70794e-07
-1.05726e-06
-4.11381e-07
-1.11613e-06
-4.48844e-07
-1.16968e-06
-4.83443e-07
-1.21822e-06
-5.15401e-07
-1.26223e-06
-5.44837e-07
-1.30212e-06
-5.71822e-07
-1.33806e-06
-5.96439e-07
-1.37018e-06
-6.18774e-07
-1.3986e-06
-6.38919e-07
-1.42346e-06
-6.56971e-07
-1.4449e-06
-6.73029e-07
-1.46306e-06
-6.87194e-07
-1.47808e-06
-6.99569e-07
-1.49011e-06
-7.10256e-07
-1.49931e-06
-7.19358e-07
-1.50581e-06
-7.26976e-07
-1.50977e-06
-7.3321e-07
-1.51133e-06
-7.38157e-07
-1.51064e-06
-7.4191e-07
-1.50784e-06
-7.44563e-07
-1.50307e-06
-7.46204e-07
-1.49646e-06
-1.48814e-06
-7.46916e-07
7.32881e-08
-2.40515e-07
1.17785e-08
-3.42911e-07
-4.79901e-08
-4.40998e-07
-1.06193e-07
-5.35379e-07
-1.62552e-07
-6.26308e-07
-2.16647e-07
-7.13499e-07
-2.68083e-07
-7.96436e-07
-3.16575e-07
-8.74583e-07
-3.61975e-07
-9.47518e-07
-4.04259e-07
-1.01498e-06
-4.43498e-07
-1.07689e-06
-4.79829e-07
-1.13334e-06
-5.13424e-07
-1.18462e-06
-5.44459e-07
-1.2312e-06
-5.73049e-07
-1.27353e-06
-5.99258e-07
-1.31185e-06
-6.2316e-07
-1.34628e-06
-6.44833e-07
-1.37693e-06
-6.64361e-07
-1.40394e-06
-6.81834e-07
-1.42743e-06
-6.97345e-07
-1.44755e-06
-7.1099e-07
-1.46444e-06
-7.22867e-07
-1.47824e-06
-7.33075e-07
-1.4891e-06
-7.41714e-07
-1.49717e-06
-7.48881e-07
-1.5026e-06
-7.54674e-07
-1.50554e-06
-7.5919e-07
-1.50613e-06
-7.62522e-07
-1.50451e-06
-7.6476e-07
-1.50083e-06
-7.65994e-07
-1.49522e-06
-1.48783e-06
-7.66307e-07
3.23734e-08
-1.8232e-07
-2.37587e-08
-2.86779e-07
-7.81093e-08
-3.86647e-07
-1.31194e-07
-4.82294e-07
-1.8316e-07
-5.74342e-07
-2.33683e-07
-6.62976e-07
-2.82307e-07
-7.47812e-07
-3.28625e-07
-8.28266e-07
-3.72358e-07
-9.03784e-07
-4.13372e-07
-9.73966e-07
-4.51651e-07
-1.03861e-06
-4.87261e-07
-1.09773e-06
-5.20315e-07
-1.15157e-06
-5.50926e-07
-1.20059e-06
-5.79169e-07
-1.24529e-06
-6.05097e-07
-1.28592e-06
-6.28773e-07
-1.3226e-06
-6.50266e-07
-1.35544e-06
-6.6965e-07
-1.38455e-06
-6.87006e-07
-1.41007e-06
-7.02422e-07
-1.43213e-06
-7.15986e-07
-1.45087e-06
-7.27791e-07
-1.46643e-06
-7.37932e-07
-1.47896e-06
-7.46505e-07
-1.4886e-06
-7.53606e-07
-1.4955e-06
-7.59329e-07
-1.49982e-06
-7.63771e-07
-1.50169e-06
-7.67022e-07
-1.50126e-06
-7.69175e-07
-1.49868e-06
-7.70316e-07
-1.49408e-06
-1.48761e-06
-7.70531e-07
1.69316e-08
-1.28988e-07
-3.48252e-08
-2.35023e-07
-8.49434e-08
-3.36529e-07
-1.33701e-07
-4.33536e-07
-1.81592e-07
-5.26452e-07
-2.28707e-07
-6.15862e-07
-2.74681e-07
-7.01838e-07
-3.1904e-07
-7.83907e-07
-3.61382e-07
-8.61441e-07
-4.01449e-07
-9.339e-07
-4.39119e-07
-1.00094e-06
-4.74381e-07
-1.06247e-06
-5.0728e-07
-1.11867e-06
-5.37864e-07
-1.17e-06
-5.66167e-07
-1.21698e-06
-5.92228e-07
-1.25986e-06
-6.16092e-07
-1.29874e-06
-6.37816e-07
-1.33372e-06
-6.57464e-07
-1.3649e-06
-6.75107e-07
-1.39243e-06
-6.90821e-07
-1.41642e-06
-7.04691e-07
-1.437e-06
-7.168e-07
-1.45432e-06
-7.27238e-07
-1.46852e-06
-7.36099e-07
-1.47974e-06
-7.43473e-07
-1.48813e-06
-7.49455e-07
-1.49383e-06
-7.54138e-07
-1.497e-06
-7.57614e-07
-1.49778e-06
-7.59971e-07
-1.49632e-06
-7.61299e-07
-1.49275e-06
-1.48723e-06
-7.61682e-07
2.37272e-08
-2.42681e-08
-1.87027e-07
-7.10794e-08
-2.89718e-07
-1.16632e-07
-3.87983e-07
-1.61201e-07
-4.81883e-07
-2.05225e-07
-5.71838e-07
-2.48721e-07
-6.58342e-07
-2.91289e-07
-7.41339e-07
-3.32454e-07
-8.20277e-07
-3.71833e-07
-8.94521e-07
-4.0919e-07
-9.63584e-07
-4.44416e-07
-1.02725e-06
-4.77483e-07
-1.0856e-06
-5.08374e-07
-1.13911e-06
-5.3708e-07
-1.18828e-06
-5.6362e-07
-1.23332e-06
-5.88024e-07
-1.27434e-06
-6.10332e-07
-1.31141e-06
-6.30594e-07
-1.34464e-06
-6.48868e-07
-1.37415e-06
-6.65223e-07
-1.40006e-06
-6.79729e-07
-1.4225e-06
-6.92466e-07
-1.44159e-06
-7.03519e-07
-1.45747e-06
-7.12972e-07
-1.47029e-06
-7.20916e-07
-1.48019e-06
-7.2744e-07
-1.48731e-06
-7.32637e-07
-1.49181e-06
-7.36596e-07
-1.49382e-06
-7.39409e-07
-1.49351e-06
-7.41161e-07
-1.491e-06
-1.48645e-06
-7.41941e-07
4.57906e-09
-1.42327e-07
-3.94568e-08
-2.45682e-07
-8.26482e-08
-3.44792e-07
-1.24916e-07
-4.39615e-07
-1.66521e-07
-5.30233e-07
-2.07822e-07
-6.17041e-07
-2.48758e-07
-7.00404e-07
-2.889e-07
-7.80134e-07
-3.27785e-07
-8.55636e-07
-3.65057e-07
-9.26313e-07
-4.00499e-07
-9.91804e-07
-4.33997e-07
-1.0521e-06
-4.65466e-07
-1.10764e-06
-4.94856e-07
-1.15889e-06
-5.22165e-07
-1.20602e-06
-5.47402e-07
-1.2491e-06
-5.7059e-07
-1.28822e-06
-5.91762e-07
-1.32347e-06
-6.10963e-07
-1.35495e-06
-6.28248e-07
-1.38278e-06
-6.43677e-07
-1.40707e-06
-6.57321e-07
-1.42794e-06
-6.69256e-07
-1.44553e-06
-6.79563e-07
-1.45998e-06
-6.88327e-07
-1.47142e-06
-6.95635e-07
-1.48e-06
-7.01576e-07
-1.48587e-06
-7.0624e-07
-1.48916e-06
-7.09715e-07
-1.49003e-06
-7.12092e-07
-1.48862e-06
-1.48509e-06
-7.13456e-07
4.83187e-08
-1.00559e-07
6.69183e-09
-2.04055e-07
-3.45874e-08
-3.03513e-07
-7.53165e-08
-3.98886e-07
-1.15409e-07
-4.90141e-07
-1.55088e-07
-5.77362e-07
-1.94619e-07
-6.60873e-07
-2.33867e-07
-7.40887e-07
-2.72388e-07
-8.17115e-07
-3.09735e-07
-8.88966e-07
-3.45576e-07
-9.55962e-07
-3.79704e-07
-1.01798e-06
-4.11963e-07
-1.07538e-06
-4.42261e-07
-1.12859e-06
-4.70573e-07
-1.1777e-06
-4.96886e-07
-1.22279e-06
-5.21201e-07
-1.2639e-06
-5.43534e-07
-1.30114e-06
-5.63912e-07
-1.33458e-06
-5.82373e-07
-1.36432e-06
-5.98968e-07
-1.39047e-06
-6.13756e-07
-1.41315e-06
-6.26803e-07
-1.43249e-06
-6.38184e-07
-1.4486e-06
-6.47979e-07
-1.46163e-06
-6.56272e-07
-1.47171e-06
-6.63148e-07
-1.47899e-06
-6.68697e-07
-1.48361e-06
-6.73008e-07
-1.48572e-06
-6.76169e-07
-1.48546e-06
-1.48299e-06
-6.78269e-07
1.03619e-07
-6.14703e-08
6.4151e-08
-1.64587e-07
2.45293e-08
-2.63891e-07
-1.50203e-08
-3.59337e-07
-5.42749e-08
-4.50886e-07
-9.31286e-08
-5.38509e-07
-1.31733e-07
-6.22269e-07
-1.70253e-07
-7.02367e-07
-2.08501e-07
-7.78867e-07
-2.46029e-07
-8.51438e-07
-2.82406e-07
-9.19586e-07
-3.17299e-07
-9.83082e-07
-3.50487e-07
-1.04219e-06
-3.81858e-07
-1.09722e-06
-4.11355e-07
-1.14821e-06
-4.38938e-07
-1.1952e-06
-4.64586e-07
-1.23826e-06
-4.88287e-07
-1.27744e-06
-5.10051e-07
-1.31281e-06
-5.29897e-07
-1.34447e-06
-5.47861e-07
-1.37251e-06
-5.63989e-07
-1.39703e-06
-5.78339e-07
-1.41814e-06
-5.90977e-07
-1.43596e-06
-6.01975e-07
-1.45063e-06
-6.11415e-07
-1.46227e-06
-6.1938e-07
-1.47102e-06
-6.25956e-07
-1.47703e-06
-6.31234e-07
-1.48044e-06
-6.35302e-07
-1.48139e-06
-1.48004e-06
-6.38251e-07
1.67237e-07
1.29796e-07
9.17042e-08
5.32043e-08
-3.20837e-07
1.45369e-08
-4.12219e-07
-2.40592e-08
-4.99913e-07
-6.24404e-08
-5.83888e-07
-1.00651e-07
-6.64156e-07
-1.38731e-07
-7.40787e-07
-1.76467e-07
-8.13703e-07
-2.13438e-07
-8.82615e-07
-2.49181e-07
-9.4734e-07
-2.83398e-07
-1.00798e-06
-3.15969e-07
-1.06465e-06
-3.46801e-07
-1.11738e-06
-3.75819e-07
-1.16618e-06
-4.02968e-07
-1.21111e-06
-4.28213e-07
-1.25219e-06
-4.51536e-07
-1.28949e-06
-4.72938e-07
-1.32307e-06
-4.92437e-07
-1.35301e-06
-5.10064e-07
-1.3794e-06
-5.25866e-07
-1.40233e-06
-5.399e-07
-1.42193e-06
-5.52234e-07
-1.43829e-06
-5.62941e-07
-1.45156e-06
-5.72105e-07
-1.46186e-06
-5.79812e-07
-1.46933e-06