/*--------------------------------*- C++ -*----------------------------------*\
  =========                 |
  \\      /  F ield         | OpenFOAM: The Open Source CFD Toolbox
   \\    /   O peration     | Website:  https://openfoam.org
    \\  /    A nd           | Version:  10
     \\/     M anipulation  |
\*---------------------------------------------------------------------------*/
FoamFile
{
    format      ascii;
    class       volScalarField;
    location    "6000";
    object      k;
}
// * * * * * * * * * * * * * * * * * * * * * * * * * * * * * * * * * * * * * //

dimensions      [0 2 -2 0 0 0 0];

internalField   nonuniform List<scalar> 
17922
(
0.0467525
0.0453149
0.0439089
0.0425338
0.0411894
0.0398753
0.0385913
0.037337
0.0361121
0.0349161
0.0337488
0.0326097
0.0314985
0.0304148
0.0293582
0.0283284
0.0273252
0.0263481
0.025397
0.0244719
0.0235727
0.022699
0.0218498
0.0210247
0.0202234
0.0194455
0.0186908
0.0179588
0.0172536
0.0165813
0.0159433
0.015337
0.0147601
0.0142105
0.0136865
0.0131864
0.0127088
0.0122522
0.0118156
0.0113979
0.0109981
0.0106154
0.0102489
0.00989786
0.00956175
0.0092399
0.00893175
0.00863672
0.00835423
0.00808372
0.00782463
0.00757642
0.00733858
0.00711064
0.00689213
0.00668262
0.0064817
0.00628899
0.00610411
0.00592673
0.0057565
0.00559312
0.00543629
0.00528571
0.0051411
0.00500221
0.00486877
0.00474053
0.00461726
0.00449874
0.00438474
0.00427505
0.00416948
0.00406782
0.00396991
0.00387554
0.00378456
0.0036968
0.0036121
0.00353031
0.0034513
0.00337492
0.00330106
0.0032296
0.00316043
0.00309343
0.00302852
0.00296557
0.0029045
0.0028452
0.00278759
0.00273168
0.00267759
0.0467006
0.0452637
0.043858
0.0424833
0.0411394
0.0398258
0.0385423
0.0372886
0.0360642
0.0348689
0.0337022
0.0325639
0.0314534
0.0303705
0.0293148
0.028286
0.0272836
0.0263076
0.0253577
0.0244338
0.023536
0.0226635
0.0218152
0.0209911
0.0201907
0.0194138
0.01866
0.0179289
0.0172245
0.016553
0.0159157
0.0153101
0.0147339
0.0141851
0.0136618
0.0131623
0.0126853
0.0122294
0.0117935
0.0113764
0.0109773
0.0105952
0.0102293
0.00987893
0.00954345
0.00922222
0.00891469
0.00862026
0.00833836
0.00806843
0.0078099
0.00756223
0.00732493
0.00709751
0.0068795
0.00667048
0.00647004
0.00627779
0.00609337
0.00591642
0.00574663
0.00558367
0.00542724
0.00527705
0.00513283
0.0049943
0.00486121
0.00473332
0.00461038
0.00449217
0.00437847
0.00426907
0.00416377
0.00406237
0.00396468
0.00387053
0.00377975
0.00369216
0.00360762
0.00352597
0.00344707
0.00337079
0.003297
0.00322559
0.00315645
0.00308947
0.00302455
0.00296159
0.0029005
0.00284116
0.00278351
0.00272756
0.00267344
0.0466538
0.0452171
0.0438118
0.0424375
0.0410939
0.0397808
0.0384978
0.0372446
0.0360208
0.0348261
0.03366
0.0325223
0.0314126
0.0303305
0.0292756
0.0282476
0.0272462
0.0262711
0.0253222
0.0243996
0.023503
0.0226315
0.0217842
0.0209609
0.0201614
0.0193854
0.0186324
0.0179021
0.0171985
0.0165277
0.015891
0.0152861
0.0147105
0.0141622
0.0136395
0.0131407
0.0126642
0.0122089
0.0117736
0.0113571
0.0109585
0.010577
0.0102116
0.00986185
0.00952692
0.00920627
0.00889929
0.00860541
0.00832406
0.00805465
0.00779664
0.00754948
0.00731266
0.00708571
0.00686817
0.00665961
0.00645961
0.00626779
0.00608378
0.00590725
0.00573785
0.00557527
0.00541922
0.0052694
0.00512552
0.00498734
0.00485458
0.004727
0.00460436
0.00448644
0.00437301
0.00426386
0.0041588
0.00405762
0.00396014
0.00386618
0.00377556
0.00368812
0.0036037
0.00352215
0.00344333
0.00336711
0.00329336
0.00322196
0.00315281
0.00308581
0.00302085
0.00295783
0.00289667
0.00283726
0.00277954
0.00272351
0.00266933
0.0466103
0.0451738
0.0437687
0.0423948
0.0410516
0.0397389
0.0384564
0.0372036
0.0359804
0.0347862
0.0336208
0.0324838
0.0313748
0.0302934
0.0292392
0.0282121
0.0272116
0.0262374
0.0252896
0.0243681
0.0234726
0.022602
0.0217556
0.0209332
0.0201345
0.0193593
0.0186072
0.0178776
0.0171746
0.0165045
0.0158684
0.015264
0.014689
0.0141413
0.0136191
0.0131207
0.0126448
0.01219
0.0117552
0.0113392
0.0109412
0.0105602
0.0101954
0.0098461
0.0095117
0.00919157
0.00888512
0.00859176
0.00831091
0.008042
0.00778447
0.00753779
0.00730144
0.00707494
0.00685784
0.0066497
0.00645012
0.00625871
0.00607511
0.00589896
0.00572994
0.00556773
0.00541203
0.00526255
0.00511901
0.00498114
0.00484869
0.0047214
0.00459904
0.00448139
0.00436821
0.0042593
0.00415445
0.00405347
0.00395617
0.00386236
0.00377188
0.00368456
0.00360024
0.00351877
0.00344
0.00336381
0.00329006
0.00321865
0.00314946
0.0030824
0.00301736
0.00295426
0.002893
0.00283349
0.00277566
0.00271954
0.00266527
0.0465698
0.0451335
0.0437287
0.0423551
0.0410123
0.0397
0.0384179
0.0371657
0.035943
0.0347494
0.0335846
0.0324481
0.0313398
0.0302591
0.0292057
0.0281793
0.0271797
0.0262065
0.0252597
0.0243392
0.0234447
0.022575
0.0217295
0.0209079
0.02011
0.0193356
0.0185841
0.0178553
0.0171529
0.0164834
0.0158478
0.0152439
0.0146693
0.0141221
0.0136003
0.0131025
0.012627
0.0121727
0.0117384
0.0113229
0.0109253
0.0105447
0.0101804
0.00983165
0.00949774
0.00917809
0.00887213
0.00857925
0.00829888
0.00803045
0.00777338
0.00752714
0.00729123
0.00706516
0.00684847
0.00664074
0.00644156
0.00625054
0.00606731
0.00589153
0.00572286
0.005561
0.00540563
0.00525648
0.00511325
0.00497568
0.00484352
0.00471651
0.00459441
0.00447699
0.00436404
0.00425534
0.00415069
0.00404988
0.00395274
0.00385907
0.0037687
0.00368147
0.00359722
0.00351579
0.00343705
0.00336085
0.00328708
0.00321562
0.00314636
0.00307921
0.00301407
0.00295085
0.00288947
0.00282982
0.00277187
0.00271563
0.00266126
0.0465323
0.0450962
0.0436917
0.0423184
0.040976
0.0396641
0.0383824
0.0371307
0.0359084
0.0347154
0.0335511
0.0324153
0.0313076
0.0302275
0.0291749
0.0281493
0.0271505
0.0261782
0.0252323
0.0243129
0.0234193
0.0225504
0.0217057
0.0208849
0.0200877
0.019314
0.0185633
0.017835
0.0171332
0.0164642
0.0158291
0.0152256
0.0146515
0.0141047
0.0135833
0.0130859
0.0126108
0.0121569
0.011723
0.0113079
0.0109108
0.0105307
0.0101668
0.00981846
0.009485
0.00916581
0.00886029
0.00856787
0.00828795
0.00801995
0.00776331
0.0075175
0.007282
0.00705633
0.00684005
0.0066327
0.0064339
0.00624324
0.00606037
0.00588494
0.00571661
0.00555507
0.00540002
0.00525117
0.00510824
0.00497095
0.00483905
0.00471229
0.00459043
0.00447324
0.0043605
0.00425198
0.0041475
0.00404684
0.00394983
0.00385627
0.00376599
0.00367882
0.00359461
0.0035132
0.00343445
0.00335822
0.00328439
0.00321285
0.00314349
0.00307622
0.00301094
0.00294758
0.00288604
0.00282625
0.00276815
0.00271178
0.00265732
0.0464977
0.0450619
0.0436577
0.0422847
0.0409426
0.0396311
0.0383498
0.0370985
0.0358767
0.0346841
0.0335204
0.0323852
0.0312781
0.0301987
0.0291468
0.0281219
0.0271238
0.0261524
0.0252074
0.0242889
0.0233962
0.0225281
0.0216841
0.0208641
0.0200676
0.0192946
0.0185445
0.0178168
0.0171155
0.016447
0.0158123
0.0152092
0.0146354
0.0140889
0.0135679
0.0130708
0.0125962
0.0121427
0.0117091
0.0112944
0.0108976
0.0105179
0.0101544
0.00980651
0.00947346
0.00915469
0.00884959
0.00855759
0.00827808
0.0080105
0.00775426
0.00750885
0.00727374
0.00704846
0.00683254
0.00662556
0.00642711
0.0062368
0.00605427
0.00587917
0.00571116
0.00554993
0.00539518
0.00524661
0.00510395
0.00496692
0.00483527
0.00470875
0.0045871
0.00447011
0.00435755
0.0042492
0.00414486
0.00404433
0.00394741
0.00385394
0.00376372
0.00367658
0.00359238
0.00351096
0.00343217
0.00335588
0.00328196
0.00321031
0.00314082
0.0030734
0.00300797
0.00294444
0.00288273
0.00282277
0.00276452
0.00270803
0.00265348
0.046466
0.0450304
0.0436265
0.0422538
0.040912
0.0396008
0.03832
0.0370691
0.0358477
0.0346557
0.0334925
0.0323578
0.0312513
0.0301725
0.0291212
0.0280971
0.0270998
0.0261291
0.0251849
0.0242672
0.0233753
0.022508
0.0216648
0.0208454
0.0200497
0.0192773
0.0185278
0.0178006
0.0170998
0.0164316
0.0157973
0.0151945
0.0146211
0.0140749
0.0135542
0.0130574
0.0125831
0.0121299
0.0116966
0.0112823
0.0108858
0.0105065
0.0101434
0.00979578
0.0094631
0.00914471
0.00884
0.00854838
0.00826927
0.00800206
0.00774621
0.00750117
0.00726643
0.0070415
0.00682594
0.00661931
0.00642119
0.00623121
0.006049
0.0058742
0.00570649
0.00554555
0.00539108
0.00524278
0.00510037
0.00496358
0.00483216
0.00470584
0.00458439
0.00446758
0.00435517
0.00424697
0.00414275
0.00404231
0.00394548
0.00385205
0.00376186
0.00367474
0.00359052
0.00350905
0.00343019
0.00335381
0.00327978
0.00320799
0.00313835
0.00307076
0.00300515
0.00294144
0.00287955
0.00281942
0.00276102
0.00270442
0.00264979
0.0464371
0.0450018
0.0435981
0.0422257
0.0408842
0.0395734
0.0382929
0.0370424
0.0358215
0.0346299
0.0334672
0.032333
0.0312271
0.0301489
0.0290982
0.0280748
0.0270781
0.0261082
0.0251647
0.0242478
0.0233566
0.0224901
0.0216476
0.0208289
0.0200338
0.019262
0.018513
0.0177864
0.0170859
0.0164181
0.0157841
0.0151816
0.0146084
0.0140625
0.013542
0.0130455
0.0125714
0.0121185
0.0116855
0.0112715
0.0108753
0.0104963
0.0101335
0.00978624
0.0094539
0.00913585
0.00883149
0.00854023
0.00826147
0.00799463
0.00773913
0.00749444
0.00726004
0.00703545
0.00682022
0.00661391
0.00641611
0.00622644
0.00604452
0.00587002
0.00570259
0.00554192
0.00538771
0.00523965
0.00509748
0.00496091
0.00482969
0.00470356
0.00458228
0.00446562
0.00435336
0.00424526
0.00414114
0.00404078
0.00394399
0.00385059
0.00376041
0.00367326
0.00358899
0.00350746
0.00342851
0.00335201
0.00327784
0.00320589
0.00313607
0.0030683
0.00300249
0.00293859
0.00287651
0.00281622
0.00275768
0.00270098
0.00264632
0.046411
0.0449759
0.0435724
0.0422003
0.0408592
0.0395487
0.0382685
0.0370184
0.0357979
0.0346067
0.0334445
0.0323108
0.0312054
0.0301278
0.0290777
0.0280549
0.0270589
0.0260896
0.0251468
0.0242305
0.02334
0.0224743
0.0216325
0.0208145
0.02002
0.0192487
0.0185003
0.017774
0.0170739
0.0164064
0.0157727
0.0151704
0.0145974
0.0140516
0.0135314
0.0130351
0.0125612
0.0121085
0.0116758
0.011262
0.0108661
0.0104873
0.0101248
0.00977786
0.00944582
0.00912808
0.00882404
0.00853311
0.00825468
0.00798817
0.007733
0.00748863
0.00725455
0.00703028
0.00681536
0.00660936
0.00641185
0.00622247
0.00604084
0.0058666
0.00569944
0.00553902
0.00538504
0.00523721
0.00509525
0.00495888
0.00482784
0.00470188
0.00458075
0.00446422
0.00435207
0.00424407
0.00414001
0.0040397
0.00394294
0.00384954
0.00375933
0.00367214
0.0035878
0.00350617
0.0034271
0.00335046
0.00327613
0.00320401
0.003134
0.00306602
0.00300002
0.00293592
0.00287366
0.00281321
0.00275455
0.00269777
0.00264309
0.0463875
0.0449526
0.0435494
0.0421776
0.0408368
0.0395266
0.0382468
0.036997
0.0357769
0.0345861
0.0334243
0.0322912
0.0311862
0.0301091
0.0290596
0.0280373
0.027042
0.0260733
0.0251311
0.0242153
0.0233255
0.0224605
0.0216194
0.020802
0.0200081
0.0192374
0.0184894
0.0177634
0.0170637
0.0163965
0.0157629
0.0151608
0.014588
0.0140424
0.0135223
0.0130261
0.0125524
0.0120999
0.0116674
0.0112538
0.0108581
0.0104796
0.0101173
0.00977063
0.00943886
0.00912139
0.00881764
0.008527
0.00824887
0.00798266
0.0077278
0.00748373
0.00724996
0.00702598
0.00681135
0.00660563
0.0064084
0.00621929
0.00603791
0.00586393
0.00569701
0.00553682
0.00538306
0.00523544
0.00509367
0.00495748
0.0048266
0.00470079
0.00457978
0.00446336
0.00435129
0.00424336
0.00413935
0.00403906
0.0039423
0.00384888
0.00375862
0.00367136
0.00358693
0.00350518
0.00342597
0.00334917
0.00327467
0.00320235
0.00313214
0.00306396
0.00299775
0.00293345
0.00287102
0.00281041
0.00275165
0.00269482
0.00264015
0.0463666
0.044932
0.0435291
0.0421575
0.040817
0.0395071
0.0382277
0.0369782
0.0357585
0.0345681
0.0334067
0.0322739
0.0311694
0.0300929
0.0290439
0.0280221
0.0270273
0.0260591
0.0251175
0.0242021
0.0233129
0.0224486
0.0216082
0.0207915
0.0199981
0.0192279
0.0184803
0.0177547
0.0170552
0.0163882
0.0157548
0.0151528
0.0145801
0.0140346
0.0135146
0.0130186
0.012545
0.0120927
0.0116603
0.0112469
0.0108514
0.010473
0.010111
0.00976451
0.00943297
0.00911575
0.00881225
0.00852188
0.00824402
0.00797809
0.0077235
0.00747972
0.00724622
0.00702252
0.00680816
0.0066027
0.00640573
0.00621687
0.00603574
0.00586199
0.00569529
0.00553531
0.00538175
0.00523432
0.00509272
0.00495668
0.00482595
0.00470025
0.00457936
0.00446302
0.00435102
0.00424313
0.00413914
0.00403885
0.00394206
0.0038486
0.00375827
0.00367091
0.00358637
0.00350449
0.00342512
0.00334815
0.00327345
0.00320094
0.00313051
0.00306212
0.0029957
0.0029312
0.0028686
0.00280785
0.00274899
0.00269213
0.00263749
0.0463481
0.0449138
0.0435113
0.04214
0.0407998
0.0394902
0.038211
0.0369619
0.0357425
0.0345525
0.0333914
0.0322591
0.031155
0.0300789
0.0290304
0.0280091
0.0270147
0.0260471
0.0251059
0.024191
0.0233022
0.0224385
0.0215988
0.0207827
0.0199899
0.0192202
0.0184729
0.0177476
0.0170484
0.0163816
0.0157483
0.0151464
0.0145738
0.0140283
0.0135084
0.0130125
0.012539
0.0120867
0.0116545
0.0112412
0.0108459
0.0104677
0.0101058
0.00975949
0.00942815
0.00911114
0.00880786
0.00851772
0.00824011
0.00797443
0.0077201
0.00747657
0.00724333
0.00701988
0.00680577
0.00660055
0.00640382
0.00621519
0.00603428
0.00586075
0.00569425
0.00553447
0.00538109
0.00523382
0.00509237
0.00495647
0.00482586
0.00470027
0.00457945
0.00446318
0.00435122
0.00424335
0.00413936
0.00403905
0.00394222
0.00384869
0.00375827
0.00367081
0.00358613
0.00350409
0.00342456
0.00334739
0.0032725
0.00319976
0.00312912
0.00306051
0.00299387
0.00292918
0.00286641
0.00280553
0.00274659
0.00268971
0.00263512
0.0463318
0.0448981
0.0434959
0.042125
0.0407851
0.0394758
0.0381969
0.0369481
0.0357289
0.0345392
0.0333786
0.0322466
0.0311429
0.0300672
0.029019
0.0279982
0.0270043
0.0260371
0.0250963
0.0241818
0.0232933
0.0224302
0.0215912
0.0207757
0.0199835
0.0192142
0.0184673
0.0177422
0.0170432
0.0163765
0.0157433
0.0151415
0.0145689
0.0140235
0.0135036
0.0130077
0.0125342
0.012082
0.0116499
0.0112367
0.0108415
0.0104634
0.0101017
0.00975554
0.00942436
0.00910753
0.00880445
0.00851451
0.00823712
0.00797166
0.00771756
0.00747427
0.00724126
0.00701804
0.00680416
0.00659917
0.00640266
0.00621424
0.00603354
0.0058602
0.00569388
0.00553427
0.00538106
0.00523393
0.00509262
0.00495684
0.00482632
0.00470081
0.00458006
0.00446383
0.00435189
0.00424403
0.00414002
0.00403966
0.00394277
0.00384915
0.00375863
0.00367103
0.0035862
0.003504
0.00342427
0.00334691
0.0032718
0.00319884
0.00312797
0.00305913
0.00299228
0.00292739
0.00286444
0.00280344
0.00274443
0.00268755
0.00263304
0.0463178
0.0448848
0.0434831
0.0421125
0.0407728
0.0394638
0.0381852
0.0369366
0.0357177
0.0345283
0.0333679
0.0322363
0.0311329
0.0300576
0.0290099
0.0279894
0.0269959
0.0260291
0.0250887
0.0241745
0.0232862
0.0224235
0.0215852
0.0207703
0.0199786
0.0192098
0.0184633
0.0177384
0.0170395
0.016373
0.0157399
0.0151381
0.0145654
0.01402
0.0135001
0.0130042
0.0125308
0.0120786
0.0116465
0.0112333
0.0108382
0.0104603
0.0100986
0.00975264
0.00942159
0.00910491
0.00880199
0.00851223
0.00823502
0.00796977
0.00771587
0.00747279
0.00723999
0.00701699
0.00680331
0.00659853
0.00640222
0.00621399
0.00603348
0.00586031
0.00569417
0.00553471
0.00538163
0.00523464
0.00509344
0.00495776
0.00482732
0.00470187
0.00458116
0.00446496
0.00435302
0.00424514
0.00414109
0.00404068
0.0039437
0.00384998
0.00375933
0.00367158
0.00358659
0.0035042
0.00342428
0.0033467
0.00327135
0.00319816
0.00312705
0.00305798
0.0029909
0.00292581
0.0028627
0.00280158
0.00274251
0.00268564
0.00263123
0.046306
0.0448741
0.0434728
0.0421025
0.040763
0.0394542
0.0381758
0.0369274
0.0357088
0.0345197
0.0333596
0.0322282
0.0311252
0.0300501
0.0290027
0.0279826
0.0269895
0.026023
0.025083
0.024169
0.0232809
0.0224184
0.0215807
0.0207665
0.0199753
0.0192069
0.0184607
0.0177361
0.0170373
0.0163709
0.0157379
0.015136
0.0145633
0.0140179
0.013498
0.013002
0.0125285
0.0120764
0.0116443
0.0112312
0.0108361
0.0104582
0.0100967
0.00975076
0.00941982
0.00910325
0.00880046
0.00851085
0.0082338
0.00796872
0.00771501
0.00747211
0.0072395
0.00701669
0.00680321
0.00659861
0.00640248
0.00621443
0.00603408
0.00586108
0.00569508
0.00553576
0.00538281
0.00523593
0.00509482
0.00495922
0.00482884
0.00470344
0.00458275
0.00446655
0.00435461
0.00424668
0.00414258
0.00404209
0.00394501
0.00385116
0.00376037
0.00367246
0.00358729
0.00350469
0.00342455
0.00334674
0.00327116
0.00319772
0.00312636
0.00305704
0.00298974
0.00292444
0.00286116
0.00279993
0.00274081
0.00268398
0.00262969
0.052369
0.0508013
0.0492661
0.0477642
0.0462994
0.0448666
0.0434653
0.042095
0.0407557
0.039447
0.0381687
0.0369205
0.0357021
0.0345132
0.0333533
0.0322222
0.0311194
0.0300447
0.0289976
0.0279778
0.026985
0.0260188
0.025079
0.0241653
0.0232774
0.022415
0.0215776
0.0207641
0.0199735
0.0192055
0.0184597
0.0177352
0.0170365
0.0163702
0.0157372
0.0151353
0.0145626
0.0140171
0.013497
0.013001
0.0125275
0.0120753
0.0116432
0.0112301
0.0108351
0.0104572
0.0100957
0.00974988
0.00941902
0.00910253
0.00879985
0.00851035
0.00823344
0.0079685
0.00771495
0.00747222
0.00723978
0.00701714
0.00680382
0.00659939
0.00640343
0.00621554
0.00603534
0.00586248
0.00569661
0.00553741
0.00538457
0.00523778
0.00509675
0.0049612
0.00483087
0.0047055
0.00458482
0.00446861
0.00435663
0.00424865
0.00414447
0.00404388
0.00394669
0.0038527
0.00376174
0.00367366
0.00358828
0.00350547
0.0034251
0.00334704
0.0032712
0.0031975
0.00312588
0.00305631
0.00298877
0.00292326
0.00285982
0.00279848
0.00273933
0.00268255
0.00262841
0.0523611
0.0507956
0.0492622
0.0477618
0.0462957
0.0448621
0.0434604
0.04209
0.0407507
0.0394421
0.0381639
0.0369158
0.0356976
0.0345088
0.0333492
0.0322182
0.0311157
0.0300412
0.0289944
0.0279748
0.0269823
0.0260163
0.0250768
0.0241633
0.0232755
0.0224132
0.0215759
0.0207629
0.0199729
0.0192055
0.0184599
0.0177356
0.0170371
0.0163709
0.0157378
0.0151359
0.0145631
0.0140175
0.0134973
0.0130012
0.0125276
0.0120754
0.0116432
0.0112301
0.0108351
0.0104572
0.0100958
0.00974997
0.00941916
0.00910274
0.00880012
0.00851072
0.00823391
0.0079691
0.00771568
0.00747309
0.0072408
0.00701831
0.00680515
0.00660087
0.00640505
0.00621729
0.00603723
0.00586449
0.00569874
0.00553964
0.00538689
0.00524018
0.00509921
0.00496371
0.00483341
0.00470804
0.00458735
0.00447111
0.00435908
0.00425103
0.00414676
0.00404605
0.00394872
0.00385458
0.00376344
0.00367516
0.00358956
0.00350652
0.00342589
0.00334757
0.00327146
0.00319749
0.00312559
0.00305575
0.00298797
0.00292225
0.00285864
0.0027972
0.00273804
0.00268135
0.0026274
0.0523559
0.0507924
0.0492604
0.0477607
0.0462941
0.04486
0.043458
0.0420874
0.040748
0.0394394
0.0381612
0.0369133
0.0356952
0.0345065
0.033347
0.0322163
0.0311139
0.0300396
0.028993
0.0279736
0.0269813
0.0260156
0.0250762
0.0241629
0.0232753
0.022413
0.0215757
0.0207629
0.0199736
0.0192066
0.0184614
0.0177373
0.0170389
0.0163728
0.0157397
0.0151377
0.0145648
0.014019
0.0134988
0.0130025
0.0125289
0.0120765
0.0116443
0.0112312
0.0108361
0.0104583
0.0100968
0.00975102
0.00942023
0.00910385
0.00880127
0.00851193
0.00823521
0.00797049
0.00771718
0.00747471
0.00724255
0.00702019
0.00680716
0.00660301
0.00640732
0.00621969
0.00603974
0.00586711
0.00570145
0.00554245
0.00538977
0.00524311
0.00510219
0.00496672
0.00483643
0.00471105
0.00459034
0.00447405
0.00436195
0.00425381
0.00414943
0.00404859
0.0039511
0.00385678
0.00376545
0.00367695
0.00359111
0.00350782
0.00342692
0.00334832
0.00327192
0.00319765
0.00312547
0.00305536
0.00298732
0.00292139
0.00285762
0.0027961
0.00273695
0.00268037
0.00262665
0.0572508
0.0555855
0.0539526
0.0523564
0.0507925
0.0492608
0.0477614
0.0462946
0.0448602
0.0434578
0.0420871
0.0407475
0.0394388
0.0381607
0.0369128
0.0356947
0.0345062
0.0333468
0.0322162
0.031114
0.0300398
0.0289933
0.0279742
0.026982
0.0260165
0.0250773
0.0241641
0.0232765
0.0224143
0.021577
0.0207642
0.0199752
0.0192088
0.018464
0.01774
0.0170418
0.0163758
0.0157427
0.0151407
0.0145676
0.0140218
0.0135014
0.013005
0.0125312
0.0120787
0.0116464
0.0112332
0.0108381
0.0104603
0.0100988
0.009753
0.00942221
0.00910583
0.00880328
0.00851397
0.0082373
0.00797265
0.00771943
0.00747706
0.00724501
0.00702276
0.00680984
0.0066058
0.00641022
0.0062227
0.00604285
0.00587031
0.00570474
0.0055458
0.00539318
0.00524657
0.00510568
0.00497022
0.00483993
0.00471452
0.00459377
0.00447741
0.00436523
0.00425698
0.00415247
0.00405148
0.00395381
0.0038593
0.00376775
0.003679
0.00359292
0.00350934
0.00342816
0.00334926
0.00327256
0.00319798
0.00312549
0.00305509
0.0029868
0.00292065
0.00285674
0.00279515
0.00273604
0.00267962
0.00262616
0.0572501
0.055587
0.0539563
0.0523593
0.0507951
0.0492634
0.0477641
0.0462971
0.0448625
0.0434599
0.0420889
0.0407492
0.0394404
0.0381622
0.0369143
0.0356963
0.0345078
0.0333484
0.0322179
0.0311158
0.0300418
0.0289954
0.0279764
0.0269844
0.026019
0.0250799
0.0241667
0.0232793
0.0224171
0.0215798
0.0207669
0.0199779
0.0192119
0.0184675
0.0177438
0.0170457
0.0163799
0.0157469
0.0151448
0.0145716
0.0140255
0.013505
0.0130085
0.0125345
0.0120819
0.0116495
0.0112363
0.0108411
0.0104632
0.0101017
0.00975588
0.00942507
0.00910868
0.00880612
0.00851682
0.00824017
0.00797557
0.00772242
0.00748012
0.00724816
0.007026
0.00681318
0.00660924
0.00641375
0.00622632
0.00604655
0.00587409
0.00570859
0.00554971
0.00539713
0.00525055
0.00510967
0.00497421
0.00484389
0.00471844
0.00459763
0.00448119
0.0043689
0.00426053
0.00415586
0.0040547
0.00395684
0.0038621
0.00377031
0.00368131
0.00359495
0.00351108
0.00342959
0.00335037
0.00327333
0.00319843
0.00312563
0.00305493
0.00298638
0.00292002
0.00285597
0.00279434
0.0027353
0.00267908
0.00262594
0.0572523
0.0555905
0.0539609
0.052364
0.0507997
0.049268
0.0477686
0.0463016
0.0448668
0.043464
0.0420928
0.0407529
0.039444
0.0381657
0.0369178
0.0356997
0.0345112
0.0333519
0.0322214
0.0311193
0.0300454
0.0289991
0.0279802
0.0269882
0.0260229
0.0250839
0.0241708
0.0232834
0.0224212
0.0215838
0.0207708
0.0199817
0.0192158
0.0184719
0.0177484
0.0170506
0.0163851
0.015752
0.0151498
0.0145765
0.0140303
0.0135096
0.0130129
0.0125388
0.0120861
0.0116536
0.0112402
0.010845
0.010467
0.0101055
0.00975963
0.0094288
0.00911237
0.00880978
0.00852046
0.00824382
0.00797924
0.00772612
0.00748389
0.00725198
0.0070299
0.00681716
0.0066133
0.00641789
0.00623053
0.00605083
0.00587843
0.00571298
0.00555414
0.00540159
0.00525502
0.00511414
0.00497865
0.00484829
0.00472279
0.0046019
0.00448536
0.00437294
0.00426442
0.00415959
0.00405823
0.00396015
0.00386518
0.00377313
0.00368384
0.00359717
0.00351299
0.00343117
0.0033516
0.00327423
0.00319898
0.00312585
0.00305485
0.00298603
0.00291947
0.0028553
0.00279366
0.00273474
0.00267877
0.00262599
0.0572567
0.0555957
0.0539668
0.0523703
0.0508061
0.0492744
0.0477751
0.046308
0.0448731
0.04347
0.0420986
0.0407586
0.0394495
0.0381711
0.036923
0.0357049
0.0345163
0.033357
0.0322265
0.0311245
0.0300506
0.0290043
0.0279855
0.0269936
0.0260283
0.0250893
0.0241763
0.0232888
0.0224266
0.0215891
0.020776
0.0199867
0.0192207
0.018477
0.0177538
0.0170562
0.0163909
0.0157579
0.0151557
0.0145823
0.014036
0.0135152
0.0130183
0.0125441
0.0120912
0.0116586
0.0112451
0.0108498
0.0104717
0.0101101
0.00976424
0.00943336
0.00911688
0.00881424
0.00852488
0.00824822
0.00798364
0.00773054
0.00748834
0.00725648
0.00703445
0.00682177
0.00661797
0.00642262
0.00623532
0.00605568
0.00588332
0.00571791
0.00555909
0.00540655
0.00525998
0.00511908
0.00498355
0.00485314
0.00472756
0.00460656
0.0044899
0.00437734
0.00426865
0.00416362
0.00406205
0.00396373
0.00386849
0.00377616
0.00368657
0.00359957
0.00351505
0.00343287
0.00335294
0.0032752
0.00319959
0.00312612
0.00305481
0.00298572
0.00291898
0.00285472
0.00279311
0.00273435
0.00267867
0.00262627
0.0572631
0.0556027
0.0539743
0.0523781
0.0508142
0.0492826
0.0477833
0.0463162
0.0448811
0.0434779
0.0421063
0.0407661
0.0394569
0.0381783
0.0369301
0.0357119
0.0345232
0.0333638
0.0322333
0.0311312
0.0300573
0.029011
0.0279922
0.0270003
0.0260351
0.0250961
0.024183
0.0232955
0.0224332
0.0215957
0.0207824
0.0199929
0.0192266
0.0184828
0.0177598
0.0170625
0.0163975
0.0157646
0.0151625
0.014589
0.0140426
0.0135216
0.0130245
0.0125501
0.0120971
0.0116644
0.0112508
0.0108554
0.0104773
0.0101156
0.00976967
0.00943873
0.00912219
0.00881949
0.00853007
0.00825335
0.00798875
0.00773565
0.00749346
0.00726163
0.00703963
0.00682699
0.00662324
0.00642794
0.00624068
0.00606107
0.00588875
0.00572335
0.00556454
0.005412
0.0052654
0.00512446
0.00498889
0.00485839
0.00473271
0.0046116
0.00449479
0.00438207
0.00427319
0.00416794
0.00406613
0.00396755
0.00387202
0.00377938
0.00368945
0.00360211
0.00351721
0.00343465
0.00335434
0.00327621
0.00320023
0.00312641
0.00305478
0.00298544
0.00291853
0.00285421
0.00279267
0.00273414
0.00267883
0.0026269
0.0572715
0.0556115
0.0539835
0.0523877
0.050824
0.0492925
0.0477933
0.0463261
0.0448909
0.0434876
0.0421158
0.0407754
0.039466
0.0381872
0.0369388
0.0357205
0.0345317
0.0333722
0.0322416
0.0311394
0.0300654
0.0290192
0.0280003
0.0270084
0.0260431
0.0251041
0.024191
0.0233034
0.022441
0.0216033
0.0207898
0.0200001
0.0192334
0.0184893
0.0177664
0.0170694
0.0164046
0.015772
0.0151699
0.0145964
0.0140499
0.0135287
0.0130316
0.012557
0.0121039
0.011671
0.0112573
0.0108618
0.0104836
0.0101219
0.0097759
0.0094449
0.00912828
0.0088255
0.008536
0.00825922
0.00799457
0.00774144
0.00749924
0.00726742
0.00704544
0.00683282
0.00662909
0.00643382
0.00624659
0.006067
0.00589469
0.0057293
0.00557048
0.00541791
0.00527128
0.00513028
0.00499463
0.00486404
0.00473825
0.00461699
0.00450002
0.0043871
0.00427801
0.00417252
0.00407044
0.00397157
0.00387573
0.00378275
0.00369246
0.00360474
0.00351945
0.00343649
0.00335577
0.00327723
0.00320086
0.00312667
0.00305473
0.00298515
0.0029181
0.00285376
0.00279235
0.0027341
0.0026792
0.00262769
0.0572816
0.055622
0.0539943
0.0523988
0.0508353
0.049304
0.0478048
0.0463377
0.0449024
0.0434989
0.042127
0.0407864
0.0394767
0.0381978
0.0369492
0.0357306
0.0345417
0.033382
0.0322513
0.031149
0.0300749
0.0290286
0.0280096
0.0270177
0.0260523
0.0251132
0.0242001
0.0233124
0.0224498
0.0216119
0.0207982
0.0200082
0.0192413
0.0184966
0.0177735
0.0170766
0.0164121
0.0157799
0.0151779
0.0146045
0.0140579
0.0135366
0.0130393
0.0125646
0.0121114
0.0116784
0.0112646
0.010869
0.0104907
0.010129
0.00978289
0.00945182
0.00913514
0.00883227
0.00854267
0.0082658
0.00800108
0.0077479
0.00750567
0.00727384
0.00705186
0.00683924
0.00663553
0.00644026
0.00625304
0.00607346
0.00590114
0.00573573
0.00557689
0.00542428
0.00527759
0.00513652
0.00500077
0.00487006
0.00474413
0.00462271
0.00450555
0.00439241
0.00428308
0.00417733
0.00407496
0.00397577
0.00387958
0.00378623
0.00369556
0.00360743
0.00352172
0.00343832
0.00335717
0.00327821
0.00320144
0.00312688
0.00305464
0.00298484
0.00291767
0.00285337
0.00279215
0.00273425
0.00267979
0.00262859
0.0572935
0.0556341
0.0540068
0.0524115
0.0508482
0.0493171
0.0478179
0.0463508
0.0449155
0.0435118
0.0421397
0.0407989
0.0394891
0.0382099
0.0369611
0.0357423
0.0345532
0.0333933
0.0322624
0.03116
0.0300858
0.0290393
0.0280202
0.0270281
0.0260627
0.0251235
0.0242102
0.0233224
0.0224596
0.0216215
0.0208076
0.0200173
0.0192499
0.0185048
0.0177811
0.0170841
0.01642
0.0157882
0.0151864
0.0146131
0.0140665
0.0135451
0.0130477
0.0125729
0.0121195
0.0116864
0.0112725
0.0108769
0.0104986
0.0101367
0.00979061
0.00945949
0.00914273
0.00883977
0.00855007
0.0082731
0.00800828
0.00775503
0.00751275
0.00728088
0.00705888
0.00684625
0.00664252
0.00644725
0.00626002
0.00608042
0.00590808
0.00574264
0.00558375
0.00543108
0.00528432
0.00514315
0.00500728
0.00487643
0.00475034
0.00462872
0.00451135
0.00439798
0.00428837
0.00418233
0.00407963
0.00398009
0.00388353
0.00378978
0.00369869
0.00361013
0.00352397
0.00344012
0.00335851
0.00327911
0.00320192
0.003127
0.00305446
0.00298447
0.00291724
0.00285303
0.00279208
0.0027346
0.00268063
0.00262954
0.0573071
0.0556479
0.0540207
0.0524257
0.0508626
0.0493316
0.0478325
0.0463654
0.04493
0.0435263
0.042154
0.0408129
0.0395029
0.0382235
0.0369744
0.0357554
0.034566
0.0334059
0.0322748
0.0311722
0.0300978
0.0290512
0.0280319
0.0270397
0.0260741
0.0251348
0.0242213
0.0233333
0.0224704
0.021632
0.0208178
0.0200271
0.0192593
0.0185138
0.0177894
0.0170919
0.016428
0.0157967
0.0151953
0.0146221
0.0140755
0.0135542
0.0130567
0.0125818
0.0121283
0.0116951
0.0112811
0.0108854
0.0105071
0.0101452
0.00979903
0.00946786
0.00915104
0.00884799
0.00855818
0.00828108
0.00801615
0.00776281
0.00752046
0.00728853
0.00706649
0.00685383
0.00665007
0.00645477
0.00626751
0.00608788
0.0059155
0.00575001
0.00559105
0.0054383
0.00529144
0.00515015
0.00501414
0.00488313
0.00475684
0.00463501
0.0045174
0.00440375
0.00429385
0.00418748
0.00408443
0.00398451
0.00388755
0.00379337
0.00370183
0.00361279
0.00352615
0.00344182
0.00335973
0.00327987
0.00320226
0.00312699
0.00305417
0.00298403
0.0029168
0.00285276
0.00279214
0.0027351
0.00268156
0.00263048
0.0573222
0.0556632
0.0540362
0.0524413
0.0508784
0.0493475
0.0478485
0.0463813
0.0449459
0.0435421
0.0421696
0.0408284
0.0395181
0.0382384
0.0369891
0.0357698
0.0345802
0.0334198
0.0322885
0.0311856
0.030111
0.0290642
0.0280447
0.0270523
0.0260866
0.025147
0.0242334
0.0233452
0.022482
0.0216433
0.0208288
0.0200377
0.0192695
0.0185233
0.0177984
0.0171001
0.0164361
0.0158055
0.0152044
0.0146314
0.014085
0.0135637
0.0130662
0.0125912
0.0121376
0.0117044
0.0112903
0.0108946
0.0105162
0.0101543
0.00980811
0.00947691
0.00916004
0.0088569
0.00856698
0.00828976
0.0080247
0.00777124
0.00752879
0.00729679
0.00707468
0.00686197
0.00665816
0.00646282
0.0062755
0.00609582
0.00592338
0.00575781
0.00559877
0.00544591
0.00529893
0.00515749
0.00502132
0.00489011
0.00476361
0.00464154
0.00452365
0.0044097
0.00429947
0.00419274
0.00408931
0.00398898
0.00389157
0.00379693
0.00370491
0.00361537
0.00352822
0.00344338
0.0033608
0.00328047
0.00320244
0.00312681
0.00305376
0.00298352
0.00291635
0.00285256
0.00279237
0.00273584
0.00268251
0.00263125
0.0573387
0.0556799
0.0540531
0.0524584
0.0508956
0.0493648
0.0478658
0.0463987
0.0449632
0.0435592
0.0421866
0.0408451
0.0395346
0.0382546
0.037005
0.0357854
0.0345955
0.0334349
0.0323032
0.0312002
0.0301253
0.0290782
0.0280585
0.0270659
0.0260999
0.0251602
0.0242463
0.0233578
0.0224943
0.0216554
0.0208404
0.0200489
0.0192802
0.0185335
0.0178079
0.0171087
0.0164444
0.0158141
0.0152136
0.014641
0.0140947