/*--------------------------------*- C++ -*----------------------------------*\
  =========                 |
  \\      /  F ield         | OpenFOAM: The Open Source CFD Toolbox
   \\    /   O peration     | Website:  https://openfoam.org
    \\  /    A nd           | Version:  10
     \\/     M anipulation  |
\*---------------------------------------------------------------------------*/
FoamFile
{
    format      ascii;
    class       volScalarField;
    location    "6000";
    object      omega;
}
// * * * * * * * * * * * * * * * * * * * * * * * * * * * * * * * * * * * * * //

dimensions      [0 0 -1 0 0 0 0];

internalField   nonuniform List<scalar> 
17922
(
29.161
28.3209
27.5098
26.7269
25.9708
25.2405
24.5349
23.8528
23.1932
22.5553
21.9381
21.3407
20.7624
20.2024
19.6598
19.1342
18.6248
18.1311
17.6525
17.1887
16.7393
16.3039
15.882
15.4733
15.0777
14.6951
14.3254
13.9691
13.6271
13.2991
12.9844
12.6822
12.3914
12.1111
11.8405
11.5791
11.3263
11.0816
10.8447
10.6153
10.3931
10.1781
9.97019
9.76928
9.57545
9.38873
9.20909
9.03645
8.8706
8.7113
8.55827
8.41122
8.26987
8.13396
8.00323
7.87744
7.75636
7.63976
7.52745
7.41922
7.31491
7.21433
7.11732
7.02373
6.9334
6.8462
6.762
6.68067
6.60208
6.52614
6.45274
6.38179
6.3132
6.24691
6.18284
6.12096
6.06122
6.0036
5.94809
5.89469
5.84342
5.79435
5.74751
5.70301
5.66094
5.62143
5.58463
5.55069
5.5198
5.49215
5.46795
5.44748
5.43113
29.162
28.322
27.511
26.7281
25.9721
25.2419
24.5362
23.8541
23.1945
22.5566
21.9393
21.3418
20.7634
20.2033
19.6607
19.1349
18.6254
18.1316
17.653
17.1891
16.7396
16.3042
15.8821
15.4733
15.0776
14.6948
14.3251
13.9687
13.6265
13.2984
12.9836
12.6813
12.3904
12.11
11.8394
11.5779
11.325
11.0803
10.8434
10.6141
10.392
10.177
9.96915
9.76836
9.57467
9.3881
9.20863
9.03616
8.87049
8.71136
8.5585
8.4116
8.27041
8.13464
8.00405
7.87839
7.75742
7.64094
7.52873
7.42061
7.31639
7.21589
7.11896
7.02543
6.93517
6.84802
6.76386
6.68256
6.604
6.52808
6.45468
6.38373
6.31514
6.24883
6.18475
6.12285
6.06309
6.00545
5.94991
5.8965
5.84523
5.79616
5.74935
5.70488
5.66288
5.62347
5.5868
5.55306
5.52241
5.49506
5.47124
5.45124
5.43542
29.1641
28.3242
27.5132
26.7304
25.9744
25.2442
24.5385
23.8564
23.1968
22.5588
21.9415
21.3439
20.7655
20.2052
19.6625
19.1366
18.627
18.1331
17.6544
17.1905
16.741
16.3054
15.8833
15.4743
15.0785
14.6956
14.3257
13.9692
13.6269
13.2987
12.9837
12.6813
12.3902
12.1097
11.839
11.5775
11.3246
11.0798
10.8429
10.6135
10.3914
10.1765
9.96874
9.76804
9.57447
9.38804
9.20873
9.03642
8.87091
8.71194
8.55923
8.41249
8.27143
8.1358
8.00533
7.87979
7.75894
7.64256
7.53045
7.42242
7.31828
7.21786
7.121
7.02753
6.93731
6.85021
6.76608
6.6848
6.60626
6.53034
6.45695
6.38599
6.31738
6.25106
6.18695
6.12502
6.06523
6.00755
5.95199
5.89855
5.84727
5.79819
5.75139
5.70696
5.66502
5.62571
5.58919
5.55563
5.52523
5.4982
5.47478
5.45527
5.44005
29.1669
28.327
27.5161
26.7333
25.9774
25.2472
24.5415
23.8594
23.1998
22.5617
21.9443
21.3468
20.7682
20.2079
19.6651
19.1391
18.6294
18.1354
17.6566
17.1926
16.7431
16.3074
15.8851
15.4761
15.0801
14.6971
14.327
13.9704
13.628
13.2996
12.9845
12.6819
12.3907
12.1101
11.8393
11.5776
11.3246
11.0798
10.8429
10.6135
10.3914
10.1765
9.96876
9.76813
9.57465
9.38835
9.20918
9.03703
8.87168
8.71286
8.5603
8.4137
8.27278
8.13728
8.00693
7.8815
7.76076
7.64449
7.53247
7.42452
7.32046
7.22011
7.12331
7.02989
6.93972
6.85265
6.76855
6.6873
6.60876
6.53285
6.45945
6.38847
6.31984
6.25349
6.18935
6.12738
6.06755
6.00983
5.95424
5.90077
5.84946
5.80038
5.75359
5.70919
5.66731
5.62809
5.5917
5.55834
5.5282
5.5015
5.47849
5.45948
5.44488
29.1703
28.3305
27.5196
26.7369
25.981
25.2508
24.5452
23.863
23.2034
22.5653
21.9479
21.3503
20.7716
20.2112
19.6683
19.1423
18.6325
18.1384
17.6595
17.1955
16.7459
16.31
15.8877
15.4785
15.0824
14.6992
14.329
13.9722
13.6297
13.3011
12.9858
12.6831
12.3918
12.111
11.84
11.5783
11.3252
11.0803
10.8433
10.6139
10.3918
10.1769
9.96917
9.76861
9.57522
9.38902
9.20999
9.03798
8.87277
8.71411
8.56169
8.41523
8.27444
8.13906
8.00884
7.88352
7.76288
7.6467
7.53478
7.42691
7.32292
7.22264
7.12589
7.03253
6.9424
6.85536
6.77128
6.69004
6.61151
6.53559
6.46218
6.39118
6.32253
6.25614
6.19196
6.12995
6.07007
6.01231
5.95667
5.90316
5.85183
5.80273
5.75594
5.71157
5.66974
5.63062
5.59437
5.56121
5.53133
5.50497
5.48239
5.46391
5.44995
29.1743
28.3345
27.5238
26.7411
25.9853
25.2551
24.5495
23.8673
23.2077
22.5696
21.9521
21.3544
20.7757
20.2152
19.6723
19.1461
18.6363
18.1421
17.6631
17.199
16.7493
16.3134
15.8908
15.4815
15.0853
14.702
14.3317
13.9747
13.632
13.3033
12.9878
12.6849
12.3934
12.1125
11.8414
11.5795
11.3263
11.0813
10.8442
10.6147
10.3926
10.1777
9.96998
9.76945
9.57613
9.39004
9.21112
9.03925
8.87418
8.71566
8.56338
8.41705
8.27639
8.14114
8.01102
7.88582
7.76528
7.64919
7.53736
7.42957
7.32566
7.22543
7.12874
7.03543
6.94533
6.85832
6.77426
6.69303
6.6145
6.53857
6.46514
6.39412
6.32543
6.259
6.19477
6.13271
6.07278
6.01496
5.95927
5.90572
5.85435
5.80523
5.75843
5.71408
5.67231
5.63328
5.59718
5.56422
5.53461
5.50861
5.48648
5.46855
5.45524
29.1789
28.3392
27.5286
26.746
25.9902
25.26
24.5544
23.8723
23.2126
22.5745
21.957
21.3592
20.7805
20.2199
19.6769
19.1507
18.6407
18.1464
17.6674
17.2032
16.7534
16.3173
15.8947
15.4852
15.0889
14.7054
14.335
13.9778
13.6349
13.306
12.9904
12.6873
12.3956
12.1145
11.8432
11.5812
11.3279
11.0828
10.8456
10.616
10.3938
10.1789
9.97116
9.77065
9.57739
9.39138
9.21257
9.04081
8.87588
8.71749
8.56535
8.41915
8.27862
8.14348
8.01348
7.88838
7.76794
7.65195
7.5402
7.43249
7.32864
7.22848
7.13184
7.03857
6.94851
6.86152
6.77748
6.69625
6.61771
6.54177
6.46832
6.39726
6.32853
6.26205
6.19777
6.13564
6.07565
6.01777
5.96202
5.90841
5.857
5.80785
5.76105
5.71672
5.675
5.63606
5.60011
5.56736
5.53804
5.5124
5.49074
5.47339
5.46077
29.1841
28.3445
27.5339
26.7514
25.9956
25.2655
24.5599
23.8778
23.2181
22.58
21.9624
21.3647
20.7858
20.2252
19.6821
19.1558
18.6457
18.1514
17.6722
17.2079
16.758
16.3218
15.8991
15.4895
15.093
14.7095
14.3388
13.9815
13.6384
13.3093
12.9935
12.6902
12.3983
12.117
11.8456
11.5834
11.3299
11.0847
10.8473
10.6177
10.3954
10.1804
9.97269
9.7722
9.57897
9.39302
9.2143
9.04266
8.87785
8.71959
8.56757
8.4215
8.28109
8.14607
8.01619
7.89119
7.77085
7.65495
7.54328
7.43565
7.33186
7.23176
7.13517
7.04194
6.95191
6.86494
6.78091
6.69968
6.62113
6.54517
6.47168
6.40059
6.3318
6.26526
6.20092
6.13873
6.07866
6.02071
5.96489
5.91122
5.85976
5.81057
5.76376
5.71944
5.67778
5.63894
5.60315
5.57062
5.54161
5.51637
5.4952
5.47845
5.46655
29.1898
28.3503
27.5398
26.7573
26.0016
25.2716
24.566
23.8839
23.2242
22.5861
21.9685
21.3707
20.7918
20.2311
19.6879
19.1615
18.6514
18.1569
17.6777
17.2133
16.7632
16.3269
15.9041
15.4944
15.0978
14.7141
14.3433
13.9857
13.6425
13.3132
12.9972
12.6936
12.4016
12.1201
11.8484
11.5861
11.3324
11.087
10.8496
10.6197
10.3974
10.1823
9.97457
9.77406
9.58085
9.39495
9.21631
9.04477
8.88007
8.72194
8.57004
8.42409
8.2838
8.1489
8.01912
7.89423
7.77398
7.65817
7.54658
7.43902
7.33531
7.23526
7.13872
7.04552
6.95551
6.86857
6.78454
6.7033
6.62474
6.54874
6.47522
6.40407
6.33523
6.26863
6.20421
6.14194
6.08179
6.02376
5.96786
5.91412
5.8626
5.81338
5.76655
5.72226
5.68065
5.64193
5.60631
5.57403
5.54534
5.52052
5.49988
5.48377
5.47261
29.1961
28.3567
27.5463
26.7638
26.0082
25.2782
24.5726
23.8905
23.2309
22.5927
21.9751
21.3773
20.7983
20.2376
19.6943
19.1679
18.6576
18.1631
17.6837
17.2191
16.769
16.3326
15.9096
15.4998
15.103
14.7192
14.3482
13.9905
13.647
13.3176
13.0013
12.6976
12.4053
12.1236
11.8517
11.5892
11.3353
11.0898
10.8522
10.6222
10.3997
10.1846
9.97677
9.77623
9.58302
9.39715
9.21857
9.04712
8.88253
8.7245
8.57273
8.4269
8.28673
8.15194
8.02227
7.89747
7.77732
7.6616
7.55009
7.4426
7.33895
7.23895
7.14245
7.04929
6.95931
6.87237
6.78834
6.70709
6.62851
6.55248
6.4789
6.4077
6.33879
6.27211
6.20761
6.14525
6.08501
6.0269
5.97091
5.9171
5.86553
5.81627
5.76943
5.72517
5.68364
5.64504
5.60962
5.57761
5.54927
5.52491
5.50483
5.48937
5.47898
29.2029
28.3636
27.5532
26.7709
26.0153
25.2853
24.5798
23.8977
23.2381
22.5999
21.9823
21.3844
20.8054
20.2446
19.7013
19.1747
18.6644
18.1697
17.6902
17.2255
16.7752
16.3387
15.9156
15.5057
15.1088
14.7248
14.3537
13.9957
13.652
13.3224
13.006
12.702
12.4095
12.1275
11.8555
11.5927
11.3387
11.0929
10.8551
10.625
10.4024
10.1872
9.97929
9.7787
9.58546
9.39961
9.22107
9.04969
8.88519
8.72727
8.57561
8.4299
8.28984
8.15516
8.0256
7.9009
7.78085
7.66521
7.55378
7.44636
7.34277
7.24282
7.14636
7.05323
6.96326
6.87633
6.7923
6.71103
6.63241
6.55634
6.48271
6.41145
6.34246
6.2757
6.2111
6.14865
6.08832
6.03011
5.97404
5.92016
5.86853
5.81924
5.77241
5.72819
5.68675
5.64831
5.6131
5.58139
5.55344
5.52956
5.51006
5.4953
5.48569
29.2102
28.3709
27.5606
26.7783
26.0228
25.2929
24.5874
23.9054
23.2458
22.6076
21.9899
21.392
20.813
20.2521
19.7087
19.1821
18.6717
18.1769
17.6972
17.2323
16.7819
16.3453
15.9222
15.5121
15.1151
14.7309
14.3596
14.0014
13.6575
13.3277
13.0111
12.7069
12.4141
12.1319
11.8597
11.5967
11.3424
11.0965
10.8585
10.6282
10.4055
10.1901
9.98211
9.78144
9.58816
9.4023
9.22379
9.05247
8.88805
8.73023
8.57867
8.43307
8.29313
8.15855
8.02909
7.9045
7.78454
7.66898
7.55763
7.45028
7.34674
7.24685
7.15042
7.05731
6.96736
6.88043
6.79638
6.71509
6.63644
6.56032
6.48663
6.41529
6.34622
6.27937
6.21468
6.15213
6.0917
6.03339
5.97725
5.9233
5.87162
5.82231
5.7755
5.73134
5.69002
5.65175
5.6168
5.58541
5.55788
5.53452
5.51563
5.50158
5.49277
29.2179
28.3787
27.5685
26.7863
26.0308
25.301
24.5955
23.9135
23.2539
22.6157
21.9981
21.4001
20.8211
20.2602
19.7167
19.19
18.6794
18.1845
17.7047
17.2397
16.789
16.3524
15.9291
15.519
15.1218
14.7375
14.366
14.0076
13.6635
13.3335
13.0166
12.7122
12.4192
12.1367
11.8642
11.601
11.3465
11.1004
10.8622
10.6318
10.4089
10.1934
9.98521
9.78444
9.5911
9.40521
9.22671
9.05543
8.89108
8.73335
8.58189
8.4364
8.29656
8.16209
8.03274
7.90824
7.78837
7.6729
7.56162
7.45433
7.35085
7.251
7.15461
7.06153
6.97158
6.88465
6.80058
6.71926
6.64057
6.56439
6.49063
6.41922
6.35006
6.28311
6.21833
6.15567
6.09515
6.03676
5.98053
5.92653
5.87482
5.82551
5.77873
5.73466
5.69347
5.65541
5.62073
5.58971
5.56263
5.5398
5.52155
5.50823
5.50024
29.2259
28.3868
27.5767
26.7946
26.0392
25.3094
24.6041
23.9221
23.2625
22.6243
22.0067
21.4087
20.8296
20.2686
19.7251
19.1983
18.6876
18.1926
17.7127
17.2475
16.7966
16.3598
15.9364
15.5262
15.1289
14.7444
14.3728
14.0141
13.6698
13.3396
13.0225
12.7179
12.4246
12.1419
11.8692
11.6057
11.351
11.1046
10.8663
10.6356
10.4125
10.1969
9.98858
9.7877
9.59427
9.40833
9.22982
9.05855
8.89426
8.7366
8.58524
8.43985
8.30011
8.16575
8.0365
7.9121
7.79231
7.67693
7.56572
7.4585
7.35508
7.25527
7.15891
7.06584
6.9759
6.88896
6.80488
6.72352
6.64478
6.56854
6.49471
6.42321
6.35397
6.28693
6.22204
6.15929
6.09868
6.0402
5.98391
5.92986
5.87814
5.82884
5.78213
5.73816
5.69714
5.65932
5.62494
5.5943
5.56769
5.54543
5.52784
5.51527
5.50809
29.2342
28.3952
27.5853
26.8033
26.048
25.3183
24.613
23.9311
23.2715
22.6334
22.0157
21.4177
20.8386
20.2775
19.7339
19.207
18.6963
18.2011
17.721
17.2556
16.8046
16.3676
15.9441
15.5338
15.1363
14.7518
14.3799
14.0209
13.6764
13.3461
13.0288
12.7239
12.4304
12.1475
11.8745
11.6107
11.3558
11.1092
10.8706
10.6398
10.4165
10.2007
9.99221
9.7912
9.59766
9.41164
9.23309
9.06183
8.89758
8.73999
8.58871
8.44341
8.30377
8.16951
8.04036
7.91605
7.79636
7.68105
7.56992
7.46276
7.35939
7.25962
7.16329
7.07024
6.9803
6.89335
6.80924
6.72785
6.64905
6.57275
6.49885
6.42727
6.35794
6.29081
6.22583
6.16299
6.10229
6.04375
5.9874
5.93332
5.8816
5.83234
5.78571
5.74188
5.70105
5.66348
5.62943
5.5992
5.57309
5.55142
5.5345
5.52268
5.51634
29.2427
28.4039
27.5941
26.8123
26.0572
25.3276
24.6224
23.9405
23.2809
22.6428
22.0251
21.4271
20.8479
20.2868
19.7431
19.2162
18.7053
18.21
17.7298
17.2642
16.8129
16.3757
15.9521
15.5417
15.1441
14.7594
14.3873
14.0281
13.6834
13.3529
13.0354
12.7303
12.4365
12.1534
11.8801
11.6161
11.3609
11.1141
10.8753
10.6442
10.4207
10.2047
9.99609
9.79492
9.60125
9.41513
9.23652
9.06524
8.90101
8.74347
8.59226
8.44705
8.30751
8.17335
8.04429
7.92008
7.80047
7.68525
7.57419
7.46709
7.36377
7.26404
7.16774
7.0747
6.98477
6.8978
6.81366
6.73223
6.65339
6.57702
6.50305
6.43139
6.36198
6.29475
6.22969
6.16677
6.106
6.0474
5.99102
5.93692
5.88522
5.83603
5.7895
5.74582
5.70521
5.66792
5.63423
5.60443
5.57883
5.55776
5.54153
5.53049
5.52497
32.9218
31.9538
31.0205
30.1202
29.2517
28.413
27.6035
26.8218
26.0667
25.3372
24.632
23.9502
23.2907
22.6525
22.0349
21.4368
20.8576
20.2965
19.7527
19.2256
18.7147
18.2193
17.7389
17.2731
16.8217
16.3841
15.9603
15.5498
15.1522
14.7673
14.395
14.0355
13.6906
13.36
13.0423
12.7369
12.443
12.1595
11.886
11.6218
11.3664
11.1193
10.8802
10.649
10.4253
10.209
10.0002
9.79886
9.60503
9.41878
9.24008
9.06876
8.90453
8.74703
8.59589
8.45076
8.31131
8.17724
8.04828
7.92416
7.80464
7.68949
7.5785
7.47147
7.3682
7.26851
7.17223
7.07921
6.98927
6.9023
6.81813
6.73666
6.65777
6.58135
6.50731
6.43557
6.36607
6.29877
6.23363
6.17064
6.10981
6.05117
5.99476
5.94068
5.88901
5.8399
5.7935
5.75
5.70963
5.67264
5.63932
5.60997
5.58491
5.56445
5.54893
5.53866
5.53398
32.9312
31.9633
31.03
30.1298
29.2612
28.4226
27.6132
26.8316
26.0766
25.3471
24.642
23.9602
23.3008
22.6626
22.045
21.4469
20.8677
20.3065
19.7626
19.2354
18.7244
18.2288
17.7483
17.2824
16.8307
16.3929
15.9689
15.5582
15.1604
14.7754
14.403
14.0432
13.6981
13.3673
13.0494
12.7439
12.4496
12.166
11.8922
11.6277
11.3721
11.1247
10.8855
10.6539
10.43
10.2136
10.0045
9.803
9.60899
9.42259
9.24378
9.07239
8.90814
8.75066
8.59957
8.45451
8.31515
8.18117
8.0523
7.92827
7.80883
7.69377
7.58285
7.47587
7.37266
7.27301
7.17676
7.08374
6.99381
6.90682
6.82264
6.74113
6.66219
6.58571
6.51161
6.4398
6.37023
6.30286
6.23765
6.17461
6.11373
6.05506
5.99865
5.94459
5.89299
5.84398
5.79772
5.75442
5.7143
5.67764
5.64471
5.61583
5.59132
5.57149
5.55668
5.5472
5.54336
32.9407
31.9728
31.0396
30.1395
29.2709
28.4326
27.6232
26.8417
26.0868
25.3574
24.6523
23.9706
23.3111
22.673
22.0553
21.4573
20.878
20.3167
19.7728
19.2456
18.7344
18.2387
17.758
17.2919
16.8401
16.402
15.9777
15.5667
15.1689
14.7837
14.4111
14.051
13.7057
13.3749
13.0568
12.751
12.4566
12.1727
11.8987
11.6339
11.378
11.1304
10.8909
10.6592
10.435
10.2183
10.0091
9.80734
9.61313
9.42655
9.24759
9.07611
8.91182
8.75434
8.60329
8.45829
8.319
8.18511
8.05632
7.93238
7.81304
7.69805
7.5872
7.48029
7.37712
7.27752
7.18129
7.0883
6.99837
6.91137
6.82717
6.74563
6.66664
6.59012
6.51595
6.44409
6.37446
6.30703
6.24176
6.17867
6.11776
6.05908
6.00269
5.94867
5.89715
5.84825
5.80216
5.75908
5.71924
5.68291
5.65039
5.62199
5.59804
5.57886
5.56477
5.55609
5.55309
36.0777
34.9964
33.9544
32.9506
31.9827
31.0495
30.1494
29.281
28.4428
27.6335
26.8521
26.0973
25.3679
24.6629
23.9812
23.3217
22.6836
22.066
21.4679
20.8885
20.3272
19.7832
19.2559
18.7446
18.2488
17.768
17.3018
16.8497
16.4114
15.9868
15.5755
15.1774
14.7921
14.4193
14.0589
13.7135
13.3826
13.0643
12.7584
12.4637
12.1796
11.9053
11.6404
11.3842
11.1364
10.8966
10.6646
10.4402
10.2233
10.0139
9.81187
9.61744
9.43065
9.25152
9.07991
8.91555
8.75805
8.60702
8.46207
8.32285
8.18904
8.06034
7.93649
7.81722
7.70232
7.59154
7.4847
7.38158
7.28202
7.18583
7.09285
7.00294
6.91593
6.83171
6.75014
6.67112
6.59455
6.52034
6.44843
6.37875
6.31126
6.24596
6.18284
6.12192
6.06324
6.00688
5.95292
5.90149
5.85273
5.80682
5.76397
5.72442
5.68844
5.65634
5.62844
5.60507
5.58655
5.57319
5.5653
5.56315
36.0881
35.0068
33.9648
32.9607
31.9928
31.0596
30.1596
29.2912
28.4531
27.644
26.8627
26.108
25.3787
24.6737
23.992
23.3326
22.6945
22.0768
21.4787
20.8993
20.338
19.7939
19.2665
18.7551
18.2592
17.7782
17.3118
16.8595
16.421
15.9961
15.5845
15.1861
14.8006
14.4276
14.0669
13.7213
13.3904
13.072
12.7659
12.471
12.1867
11.9122
11.647
11.3906
11.1425
10.9025
10.6703
10.4457
10.2285
10.0188
9.81658
9.62191
9.43488
9.25555
9.08379
8.91933
8.76178
8.61076
8.46584
8.32668
8.19294
8.06433
7.94056
7.82138
7.70656
7.59586
7.48908
7.38602
7.28651
7.19035
7.0974
7.00749
6.92049
6.83626
6.75467
6.67563
6.59902
6.52477
6.45281
6.38309
6.31557
6.25024
6.1871
6.12618
6.06753
6.01121
5.95733
5.90601
5.8574
5.81168
5.76908
5.72983
5.69422
5.66255
5.63516
5.61237
5.59452
5.58191
5.57483
5.57351
36.0987
35.0172
33.9751
32.971
32.0031
31.07
30.17
29.3017
28.4637
27.6547
26.8735
26.1188
25.3896
24.6847
24.003
23.3436
22.7055
22.0878
21.4897
20.9103
20.3489
19.8047
19.2772
18.7657
18.2697
17.7886
17.322
16.8695
16.4308
16.0056
15.5937
15.1949
14.8091
14.4359
14.0748
13.7292
13.3984
13.0798
12.7735
12.4784
12.1939
11.9192
11.6537
11.3971
11.1488
10.9086
10.6762
10.4513
10.2339
10.024
9.82147
9.62653
9.43925
9.25968
9.08773
8.92314
8.76553
8.61448
8.46959
8.33048
8.19681
8.06827
7.94459
7.82549
7.71075
7.60013
7.49342
7.39042
7.29096
7.19484
7.10192
7.01203
6.92504
6.8408
6.75921
6.68014
6.60351
6.52923
6.45725
6.3875
6.31995
6.25461
6.19146
6.13056
6.07193
6.01568
5.96188
5.91069
5.86224
5.81673
5.77439
5.73545
5.70022
5.66899
5.64212
5.61993
5.60276
5.59091
5.58463
5.58415
36.1093
35.0278
33.9856
32.9814
32.0136
31.0804
30.1805
29.3123
28.4744
27.6655
26.8844
26.1298
25.4006
24.6958
24.0141
23.3548
22.7167
22.099
21.5008
20.9214
20.3599
19.8157
19.2881
18.7766
18.2804
17.7992
17.3324
16.8797
16.4408
16.0153
15.6031
15.2039
14.8177
14.4442
14.0829
13.7371
13.4062
13.0876
12.7811
12.4859
12.2012
11.9263
11.6606
11.4038
11.1553
10.9149
10.6822
10.4571
10.2395
10.0293
9.82654
9.63132
9.44376
9.26392
9.09174
8.92698
8.76927
8.61818
8.47329
8.33422
8.20061
8.07215
7.94855
7.82954
7.71488
7.60434
7.4977
7.39477
7.29536
7.1993
7.10641
7.01655
6.92957
6.84534
6.76374
6.68466
6.60802
6.53372
6.46171
6.39195
6.32439
6.25904
6.19591
6.13503
6.07645
6.02027
5.96658
5.91551
5.86724
5.82195
5.77987
5.74126
5.7064
5.67564
5.64929
5.62772
5.61124
5.60015
5.59469
5.59505
36.12
35.0384
33.9961
32.9919
32.0241
31.091
30.1911
29.323
28.4852
27.6764
26.8954
26.1409
25.4118
24.707
24.0254
23.366
22.7279
22.1102
21.5121
20.9326
20.3711
19.8268
19.2992
18.7875
18.2912
17.8098
17.3429
16.89
16.4509
16.0252
15.6126
15.2131
14.8264
14.4525
14.0909
13.7448
13.4139
13.0953
12.7887
12.4934
12.2085
11.9335
11.6676
11.4106
11.1619
10.9213
10.6884
10.4631
10.2452
10.0348
9.83177
9.63627
9.4484
9.26826
9.09581
8.93085
8.77301
8.62185
8.47695
8.3379
8.20435
8.07595
7.95243
7.8335
7.71893
7.60847
7.50191
7.39905
7.29971
7.20369
7.11085
7.02102
6.93406
6.84985
6.76826
6.68918
6.61253
6.53822
6.46621
6.39643
6.32888
6.26354
6.20043
6.13959
6.08107
6.02497
5.97139
5.92047
5.87238
5.82731
5.7855
5.74721
5.71275
5.68245
5.65665
5.6357
5.61992
5.60961
5.60497
5.60616
36.1308
35.049
34.0067
33.0025
32.0346
31.1016
30.2018
29.3337
28.4961
27.6874
26.9064
26.152
25.423
24.7182
24.0367
23.3773
22.7393
22.1216
21.5234
20.9439
20.3823
19.838
19.3103
18.7985
18.3021
17.8206
17.3535
16.9004
16.4611
16.0351
15.6222
15.2224
14.8353
14.4608
14.0988
13.7525
13.4215
13.1029
12.7963
12.5009
12.2159
11.9407
11.6747
11.4175
11.1686
10.9278
10.6947
10.4692
10.2511
10.0405
9.83717
9.64138
9.45319
9.27272
9.09997
8.93476
8.77675
8.6255
8.48056
8.34152
8.208
8.07967
7.95622
7.83738
7.72289
7.61251
7.50604
7.40325
7.30397
7.20802
7.11523
7.02544
6.93852
6.85432
6.77275
6.69368
6.61703
6.54273
6.47072
6.40095
6.33341
6.26809
6.20501
6.14421
6.08576
6.02975
5.97629
5.92552
5.87761
5.83277
5.79124
5.75329
5.71922
5.68939
5.66414
5.64383
5.62878
5.61925
5.61544
5.61746
36.1415
35.0597
34.0173
33.0131
32.0452
31.1122
30.2125
29.3445
28.5069
27.6983
26.9175
26.1632
25.4342
24.7295
24.048
23.3887
22.7506
22.1329
21.5347
20.9552
20.3936
19.8492
19.3214
18.8095
18.313
17.8314
17.3641
16.9109
16.4713
16.045
15.6319
15.2317
14.8442
14.4692
14.1067
13.76
13.4289
13.1104
12.8038
12.5083
12.2232
11.9479
11.6818
11.4244
11.1754
10.9344
10.7012
10.4755
10.2572
10.0463
9.84274
9.64665
9.45812
9.2773
9.10421
8.93872
8.78049
8.62911
8.4841
8.34505
8.21156
8.08328
7.9599
7.84114
7.72674
7.61645
7.51006
7.40736
7.30816
7.21227
7.11953
7.0298
6.94291
6.85875
6.7772
6.69815
6.62151
6.54723
6.47522
6.40547
6.33795
6.27266
6.20962
6.14888
6.09051
6.03459
5.98125
5.93063
5.88291
5.8383
5.79705
5.75943
5.72577
5.69642
5.67174
5.65209
5.63777
5.62904
5.62605
5.62889
36.1523
35.0704
34.0279
33.0236
32.0558
31.1228
30.2231
29.3552
28.5177
27.7092
26.9285
26.1742
25.4454
24.7407
24.0593
23.4
22.762
22.1443
21.546
20.9665
20.4049
19.8604
19.3325
18.8205
18.3239
17.8422
17.3748
16.9213
16.4815
16.055
15.6416
15.241
14.8531
14.4777
14.1145
13.7672
13.4361
13.1177
12.8111
12.5156
12.2305
11.9551
11.6889
11.4314
11.1822
10.9411
10.7077
10.4818
10.2634
10.0523
9.84847
9.65209
9.46323
9.28203
9.10856
8.94273
8.78425
8.6327
8.4876
8.34851
8.21502
8.08679
7.96347
7.84479
7.73048
7.62028
7.51398
7.41136
7.31224
7.21642
7.12375
7.03407
6.94723
6.86311
6.78159
6.70257
6.62596
6.5517
6.47972
6.40999
6.34249
6.27724
6.21425
6.15357
6.09528
6.03946
5.98624
5.93577
5.88824
5.84386
5.80288
5.7656
5.73236
5.7035
5.6794
5.66043
5.64686
5.63894
5.63677
5.64044
36.1629
35.081
34.0385
33.0341
32.0663
31.1333
30.2337
29.3658
28.5284
27.72
26.9394
26.1852
25.4564
24.7519
24.0705
23.4112
22.7732
22.1555
21.5573
20.9777
20.4161
19.8716
19.3436
18.8316
18.3348
17.8529
17.3854
16.9318
16.4918
16.065
15.6513
15.2503
14.862
14.4861
14.1223
13.7743
13.443
13.1248
12.8183
12.5228
12.2376
11.9622
11.6959
11.4383
11.1891
10.9478
10.7143
10.4883
10.2697
10.0584
9.85437
9.6577
9.4685
9.28692
9.11304
8.94684
8.78805
8.63627
8.49104
8.35189
8.21839
8.09018
7.96693
7.84832
7.73409
7.62398
7.51777
7.41525
7.31621
7.22047
7.12787
7.03825
6.95147
6.8674
6.78592
6.70694
6.63036
6.55612
6.48417
6.41447
6.34701
6.2818
6.21886
6.15825
6.10003
6.04431
5.99121
5.94089
5.89354
5.84938
5.80868
5.77175
5.73892
5.71057
5.68708
5.6688
5.65601
5.64889
5.64754
5.65203
36.1735
35.0915
34.0489
33.0446
32.0767
31.1438
30.2441
29.3764
28.539
27.7307
26.9502
26.1961
25.4674
24.7629
24.0815
23.4224
22.7844
22.1667
21.5685
20.9889
20.4272
19.8827
19.3546
18.8425
18.3457
17.8636
17.3959
16.9421
16.5019
16.0749
15.6609
15.2596
14.8708
14.4944
14.1301
13.7813
13.4496
13.1316
12.8252
12.5298
12.2446
11.9691
11.7028
11.4452
11.1959
10.9546
10.721
10.4949
10.2761
10.0647
9.86042
9.66349
9.47396
9.29199
9.11768
8.95105
8.7919
8.63986
8.49445
8.3552
8.22167
8.09347
7.97026
7.85172
7.73756
7.62755
7.52143
7.419
7.32005
7.2244
7.13188
7.04233
6.95561
6.87159
6.79016
6.71122
6.63468
6.56047
6.48856
6.4189
6.35148
6.28631
6.22342
6.16287
6.10473
6.0491
5.99612
5.94594
5.89877
5.85483
5.81441
5.77782
5.74542
5.7176
5.69473
5.67717
5.66516
5.65886
5.6583
5.66362
36.1839
35.1019
34.0593
33.0549
32.087
31.1541
30.2545
29.3868
28.5495
27.7412
26.9608
26.2068
25.4782
24.7737
24.0925
23.4333
22.7954
22.1778
21.5795
20.9999
20.4382
19.8936
19.3655
18.8533
18.3564
17.8742
17.4064
16.9524
16.512
16.0847
15.6704
15.2687
14.8795
14.5026
14.1377
13.7881
13.456
13.1382
12.8319
12.5365
12.2514
11.976
11.7097
11.4521
11.2027
10.9614
10.7277
10.5015
10.2827
10.071
9.86663
9.66946
9.47963
9.29726
9.12251
8.95541
8.79585
8.64347
8.49784
8.35845
8.22486
8.09665
7.97346
7.85498
7.7409
7.63097
7.52495
7.42261
7.32375
7.22819
7.13575
7.04628
6.95962
6.87567
6.79429
6.7154
6.6389
6.56474
6.49286
6.42323
6.35585
6.29073
6.22789
6.1674
6.10933
6.05379
6.00091
5.95086
5.90386
5.86013
5.81998
5.78375
5.75179
5.72452
5.70231
5.68549
5.67428
5.66879
5.66901
5.67513
36.1942
35.1121
34.0694
33.065
32.0971
31.1642
30.2646
29.3969
28.5597
27.7516
26.9712
26.2173
25.4887
24.7844
24.1032
23.4441
22.8062
22.1886
21.5904
21.0108
20.449
19.9044
19.3763
18.864
18.3669
17.8847
17.4167
16.9625
16.5219
16.0944
15.6798
15.2777
14.8881
14.5107
14.1452
13.7948
13.4622
13.1444
12.8383
12.543
12.258
11.9826
11.7164
11.4588
11.2095
10.9681
10.7344
10.5082
10.2893
10.0776
9.873
9.67562
9.4855
9.30276
9.12755
8.95997
8.79993
8.64717
8.50124
8.36167
8.22797
8.09973
7.97655
7.85811
7.7441
7.63425
7.52831
7.42607
7.3273
7.23183
7.13948
7.05008
6.9635
6.87961
6.79829
6.71945
6.643
6.56888
6.49704
6.42745
6.36011
6.29502
6.23223
6.17179
6.11378
6.05831
6.00552
5.9556
5.90875
5.86523
5.82536
5.78948
5.75799
5.73129
5.70976
5.69371
5.68331
5.6786
5.6796
5.68648
36.2042
35.1221
34.0793
33.0749
32.107
31.174
30.2745
29.4069
28.5697
27.7616
26.9813
26.2275
25.4991
24.7948
24.1137
23.4547
22.8168
22.1992
21.601
21.0214
20.4597
19.915
19.3868
18.8744
18.3773
17.8949
17.4268
16.9725
16.5317
16.1039
15.689
15.2866
14.8965
14.5186
14.1525
13.8012
13.4682
13.1503
12.8443
12.5492
12.2643
11.989
11.7229
11.4653
11.2161
10.9748
10.7411
10.5149
10.2959
10.0842
9.87951
9.68196
9.49159
9.3085
9.13285
8.96475
8.8042
8.65098
8.5047
8.36489
8.23104
8.10272
7.97953
7.86111
7.74715
7.63737
7.53152
7.42936
7.33069
7.23531
7.14304
7.05373
6.96722
6.8834
6.80214
6.72335
6.64694
6.57286
6.50106
6.4315
6.36419
6.29914
6.23638
6.17598
6.11801
6.0626
6.00989
5.96007
5.91337
5.87005
5.83046
5.79495
5.76395
5.73786
5.71704
5.70179
5.6922
5.68825
5.68998
5.69757
36.214
35.1317
34.089
33.0845
32.1166
31.1836
30.2841
29.4165
28.5794
27.7714
26.9912
26.2375
25.5091
24.8049
24.1239
23.4649
22.8271
22.2096
21.6114
21.0318
20.47
19.9254
19.3971
18.8847
18.3875
17.905
17.4367
16.9823
16.5412
16.1132
15.698
15.2952
14.9048
14.5263
14.1595
13.8074
13.474
13.156
12.8499
12.555
12.2703
11.9952
11.7291
11.4717
11.2226
10.9813
10.7477
10.5216
10.3027
10.0909
9.88616
9.68849
9.4979
9.31451
9.13844
8.96982
8.80871
8.65497
8.50827
8.36814
8.23409
8.10565
7.9824
7.86398
7.75006
7.64034
7.53456
7.43249
7.33391
7.23861
7.14643
7.0572
6.97077
6.88701
6.80581
6.72707
6.6507
6.57666
6.50488
6.43536
6.36807
6.30304
6.2403
6.17991
6.12197
6.0666
6.01395
5.96422
5.91764
5.87453
5.83522
5.80011
5.76962
5.74418
5.72412
5.70966
5.70087
5.69766
5.70008
5.70833
36.2234
35.1411
34.0983
33.0938
32.1258
31.1929
30.2934
29.4259
28.5888
27.7809
27.0007
26.2471
25.5188
24.8147
24.1337
23.4749
22.8371
22.2196
21.6215
21.0419
20.4801
19.9354
19.4072
18.8947
18.3974
17.9148
17.4464
16.9918
16.5505
16.1223
15.7068
15.3037
14.9127
14.5337
14.1664
13.8134
13.4795
13.1616
12.8553
12.5605
12.276
12.001
11.7351
11.4779
11.2289
10.9878
10.7543
10.5283
10.3094
10.0977
9.89294
9.69519
9.50445
9.32079
9.14434
8.97522
8.81353
8.65921
8.51201
8.37149
8.23716
8.10855
7.98521
7.86676
7.75284
7.64316
7.53745
7.43545
7.33694
7.24173
7.14963
7.06047
6.97411
6.89041
6.80927
6.73057
6.65424
6.58023
6.50847
6.43896
6.37168
6.30665
6.24391
6.18353
6.12559
6.07024
6.01762
5.96795
5.9215
5.87858
5.83957
5.80489
5.77496
5.75021
5.73094
5.71731
5.70926
5.70673
5.7098
5.71865
36.2323
35.1499
34.1071
33.1026
32.1347
31.2018
30.3024
29.4349
28.5979
27.79
27.0099
26.2563
25.5281
24.8241
24.1432
23.4845
22.8468
22.2293
21.6313
21.0517
20.4899
19.9452
19.4169
18.9044
18.407
17.9243
17.4558
17.001
16.5595
16.1311
15.7153
15.3118
14.9205
14.5409
14.1729
13.8191
13.4848
13.1668
12.8605
12.5656
12.2812
12.0065
11.7408
11.4838
11.235
10.9941
10.7608
10.5349
10.3162
10.1045
9.89982
9.70206
9.51122
9.32736
9.15057
8.98099
8.81872
8.66378
8.51599
8.375
8.24032
8.11147
7.98798
7.86945
7.75551
7.64584
7.54017
7.43823
7.33979
7.24465
7.15262
7.06353
6.97723
6.89359
6.81249
6.73383
6.65753
6.58352
6.51178
6.44226
6.37497
6.30992
6.24716
6.18675
6.12879
6.07342
6.02082
5.9712
5.92487
5.88215
5.84346
5.80923
5.77992
5.7559
5.73744
5.72462
5.71728
5.71539
5.71905
5.72844
37.3641
36.2408
35.1584
34.1157
33.1112
32.1433
31.2104
30.3109
29.4434
28.6065
27.7987
27.0187
26.2652
25.5371
24.8332
24.1524
23.4936
22.8561
22.2387
21.6406
21.0611
20.4994
19.9546
19.4263
18.9137
18.4163
17.9335
17.4649
17.0099
16.5683
16.1396
15.7235
15.3197
14.9279
14.5479
14.1792
13.8247
13.4897
13.1715
12.8653
12.5704
12.2861
12.0117
11.7462
11.4894
11.2409
11.0002
10.7671
10.5414
10.3229
10.1114
9.90681
9.70909
9.51821
9.33421
9.15716
8.98717
8.82435
8.66876
8.52032
8.37876
8.24363
8.11446
7.99075
7.87209
7.75809
7.6484
7.54274
7.44083
7.34245
7.24736
7.15539
7.06636
6.98011
6.89651
6.81544
6.7368
6.66051
6.58651
6.51475
6.4452
6.37788
6.31278
6.24997
6.1895
6.13149
6.07608
6.02346
5.97388
5.92766
5.88516
5.84682
5.8131
5.78444
5.76121
5.7436
5.73152
5.72483
5.72352
5.72772
5.73758
37.3725
36.249
35.1665
34.1238
33.1193
32.1514
31.2185
30.3191
29.4516
28.6147
27.807
27.027
26.2736
25.5456
24.8418
24.161
23.5024
22.8649
22.2476
21.6496
21.0701
20.5084
19.9637
19.4353
18.9227
18.4252
17.9423
17.4736
17.0185
16.5767
16.1477
15.7314
15.3272
14.935
14.5545
14.1853
13.83
13.4942
13.1758
12.8698
12.5749
12.2906
12.0164
11.7513
11.4948
11.2465
11.0061
10.7733
10.5479
10.3296
10.1183
9.91386
9.71625
9.52541
9.34134
9.1641
8.99377
8.83045
8.67423
8.5251
8.38288
8.2472
8.1176
7.9936
7.87474
7.76061
7.65086
7.54517
7.44328
7.34491
7.24986
7.15793
7.06893
6.98272
6.89914
6.81809
6.73945
6.66315
6.58913
6.51733
6.44773
6.38034
6.31517
6.25226
6.19171
6.13361
6.07812
6.02547
5.97591
5.9298
5.88754
5.84959
5.81644
5.78851
5.7661
5.74931
5.73792
5.73179
5.731
5.73567
5.74593
37.3803
36.2567
35.1741
34.1314
33.1269
32.159
31.2261
30.3267
29.4593
28.6225
27.8148
27.0349
26.2816
25.5536
24.8499
24.1693
23.5107
22.8733
22.2561
21.6581
21.0787
20.517
19.9723
19.4439
18.9313
18.4338
17.9508
17.4819
17.0267
16.5847
16.1555
15.7389
15.3344
14.9418
14.5608
14.191
13.8351
13.4984
13.1797
12.8739
12.5791
12.2949
12.0207
11.7559
11.4998
11.2518
11.0118
10.7793
10.5542
10.3362
10.1252
9.92097
9.72353
9.5328
9.34874
9.1714
9.00081
8.83707
8.68026
8.53043
8.38748
8.25114
8.12101
7.9966
7.87745
7.76313
7.65326
7.5475
7.44557
7.3472
7.25215
7.16023
7.07125
6.98504
6.90147
6.8204
6.74175
6.66541
6.59133
6.51946
6.44978
6.38228
6.31699
6.25396
6.19328
6.13505
6.07946
6.02675
5.9772
5.93121
5.88923
5.85174
5.81922
5.79207
5.77052
5.75447
5.74368
5.73805
5.73768
5.74265
37.3876
36.2639
35.1812
34.1385
33.134
32.1661
31.2333
30.3339
29.4665
28.6297
27.8221
27.0423
26.289
25.5612
24.8575
24.177
23.5186
22.8812
22.2641
21.6662
21.0868
20.5252
19.9805
19.4521
18.9395
18.4419
17.9588
17.4899
17.0345
16.5923
16.163
15.746
15.3413
14.9483
14.5667