/*--------------------------------*- C++ -*----------------------------------*\
  =========                 |
  \\      /  F ield         | OpenFOAM: The Open Source CFD Toolbox
   \\    /   O peration     | Website:  https://openfoam.org
    \\  /    A nd           | Version:  10
     \\/     M anipulation  |
\*---------------------------------------------------------------------------*/
FoamFile
{
    format      ascii;
    class       volScalarField;
    location    "39000";
    object      p;
}
// * * * * * * * * * * * * * * * * * * * * * * * * * * * * * * * * * * * * * //

dimensions      [0 2 -2 0 0 0 0];

internalField   nonuniform List<scalar> 
17922
(
9.12147
9.05628
8.98987
8.92223
8.85334
8.78318
8.71174
8.63899
8.56493
8.48952
8.41275
8.33461
8.25507
8.17411
8.09172
8.00788
7.92256
7.83574
7.74742
7.65755
7.56614
7.47314
7.37855
7.28234
7.18449
7.08498
6.98379
6.88089
6.77717
6.67443
6.57355
6.4745
6.37725
6.28177
6.18802
6.09596
6.00558
5.91683
5.82968
5.7441
5.66007
5.57754
5.4965
5.41691
5.33873
5.26196
5.18654
5.11247
5.0397
4.96821
4.89798
4.82898
4.76118
4.69456
4.62909
4.56475
4.50152
4.43936
4.37826
4.3182
4.25915
4.20109
4.144
4.08786
4.03265
3.97835
3.92494
3.87241
3.82073
3.7699
3.71989
3.67069
3.62228
3.57465
3.52778
3.48166
3.43628
3.39162
3.34768
3.30442
3.26186
3.21997
3.17874
3.13816
3.09822
3.05891
3.02023
2.98215
2.94468
2.9078
2.8715
2.83577
2.80062
9.12136
9.05616
8.98976
8.92212
8.85323
8.78307
8.71163
8.63889
8.56483
8.48942
8.41266
8.33452
8.25498
8.17402
8.09164
8.00779
7.92247
7.83566
7.74733
7.65747
7.56606
7.47307
7.37848
7.28227
7.18443
7.08492
6.98373
6.88083
6.77711
6.67437
6.5735
6.47445
6.37721
6.28173
6.18798
6.09593
6.00554
5.91679
5.82965
5.74408
5.66004
5.57752
5.49648
5.41689
5.33872
5.26194
5.18653
5.11246
5.03969
4.96821
4.89798
4.82898
4.76118
4.69456
4.62909
4.56475
4.50152
4.43936
4.37827
4.3182
4.25915
4.2011
4.14401
4.08787
4.03266
3.97837
3.92497
3.87244
3.82077
3.76994
3.71994
3.67074
3.62234
3.57472
3.52786
3.48175
3.43638
3.39173
3.34779
3.30455
3.26199
3.22011
3.17889
3.13833
3.0984
3.05911
3.02044
2.98238
2.94492
2.90806
2.87178
2.83607
2.80094
9.12119
9.056
8.98959
8.92195
8.85306
8.78291
8.71147
8.63872
8.56466
8.48925
8.41249
8.33435
8.25481
8.17385
8.09146
8.00762
7.9223
7.83548
7.74715
7.65729
7.56587
7.47288
7.37829
7.28208
7.18423
7.08472
6.98353
6.88063
6.77691
6.67417
6.57329
6.47425
6.377
6.28152
6.18776
6.09571
6.00533
5.91657
5.82943
5.74385
5.65982
5.57729
5.49625
5.41665
5.33848
5.2617
5.18629
5.11221
5.03944
4.96795
4.89772
4.82871
4.76091
4.69429
4.62882
4.56448
4.50124
4.43908
4.37798
4.31791
4.25886
4.2008
4.14371
4.08757
4.03236
3.97806
3.92466
3.87213
3.82046
3.76964
3.71963
3.67044
3.62204
3.57442
3.52756
3.48146
3.43609
3.39144
3.3475
3.30427
3.26172
3.21984
3.17863
3.13808
3.09816
3.05888
3.02021
2.98216
2.94472
2.90787
2.8716
2.83591
2.8008
9.12101
9.05582
8.98941
8.92177
8.85288
8.78272
8.71128
8.63854
8.56447
8.48906
8.41229
8.33415
8.25461
8.17365
8.09126
8.00741
7.92209
7.83527
7.74694
7.65708
7.56566
7.47266
7.37807
7.28186
7.184
7.08449
6.98329
6.88039
6.77667
6.67392
6.57304
6.474
6.37674
6.28126
6.1875
6.09545
6.00506
5.9163
5.82915
5.74357
5.65953
5.57701
5.49596
5.41636
5.33819
5.2614
5.18598
5.1119
5.03913
4.96764
4.8974
4.82839
4.76059
4.69396
4.62848
4.56414
4.50089
4.43873
4.37763
4.31756
4.2585
4.20044
4.14335
4.0872
4.03199
3.9777
3.92429
3.87177
3.8201
3.76927
3.71927
3.67007
3.62168
3.57406
3.5272
3.4811
3.43574
3.39109
3.34717
3.30394
3.26139
3.21953
3.17832
3.13777
3.09787
3.05859
3.01994
2.98191
2.94448
2.90764
2.87139
2.83572
2.80062
9.12085
9.05566
8.98925
8.92161
8.85272
8.78256
8.71111
8.63837
8.5643
8.48889
8.41212
8.33398
8.25443
8.17347
8.09108
8.00723
7.9219
7.83508
7.74675
7.65688
7.56546
7.47246
7.37787
7.28165
7.1838
7.08428
6.98308
6.88018
6.77645
6.6737
6.57282
6.47377
6.37651
6.28103
6.18727
6.09521
6.00482
5.91606
5.8289
5.74332
5.65928
5.57675
5.4957
5.4161
5.33792
5.26113
5.18571
5.11162
5.03885
4.96735
4.89711
4.8281
4.76029
4.69366
4.62818
4.56383
4.50058
4.43842
4.37731
4.31724
4.25818
4.20011
4.14302
4.08687
4.03166
3.97736
3.92396
3.87143
3.81976
3.76894
3.71894
3.66975
3.62135
3.57374
3.52689
3.48079
3.43543
3.39079
3.34687
3.30364
3.26111
3.21925
3.17806
3.13752
3.09762
3.05836
3.01972
2.9817
2.94428
2.90746
2.87123
2.83558
2.80049
9.1207
9.0555
8.98909
8.92145
8.85256
8.7824
8.71096
8.63821
8.56414
8.48873
8.41196
8.33381
8.25427
8.17331
8.09091
8.00706
7.92173
7.83491
7.74658
7.65671
7.56528
7.47228
7.37768
7.28147
7.18361
7.08409
6.98289
6.87998
6.77625
6.6735
6.57261
6.47356
6.3763
6.28081
6.18705
6.09499
6.00459
5.91583
5.82867
5.74309
5.65904
5.57651
5.49545
5.41585
5.33767
5.26088
5.18545
5.11136
5.03858
4.96708
4.89684
4.82782
4.76001
4.69337
4.62789
4.56353
4.50028
4.43812
4.377
4.31693
4.25787
4.1998
4.1427
4.08656
4.03134
3.97705
3.92364
3.87111
3.81945
3.76862
3.71862
3.66943
3.62104
3.57343
3.52658
3.48049
3.43513
3.3905
3.34659
3.30337
3.26084
3.21899
3.17781
3.13728
3.09739
3.05814
3.01952
2.98151
2.94411
2.9073
2.87109
2.83545
2.80039
9.12055
9.05536
8.98895
8.9213
8.85241
8.78225
8.71081
8.63806
8.56399
8.48858
8.41181
8.33366
8.25411
8.17315
8.09075
8.0069
7.92157
7.83475
7.74641
7.65654
7.56511
7.47211
7.37751
7.28129
7.18343
7.08391
6.9827
6.87979
6.77605
6.6733
6.57241
6.47336
6.3761
6.2806
6.18684
6.09477
6.00437
5.91561
5.82845
5.74286
5.65881
5.57627
5.49522
5.41561
5.33742
5.26063
5.1852
5.11111
5.03832
4.96682
4.89657
4.82755
4.75973
4.69309
4.62761
4.56325
4.49999
4.43782
4.37671
4.31663
4.25756
4.19949
4.1424
4.08625
4.03104
3.97674
3.92333
3.8708
3.81914
3.76831
3.71832
3.66913
3.62074
3.57313
3.52629
3.4802
3.43485
3.39022
3.34631
3.3031
3.26058
3.21874
3.17756
3.13705
3.09717
3.05793
3.01932
2.98133
2.94394
2.90715
2.87095
2.83534
2.80029
9.12041
9.05522
8.98881
8.92117
8.85227
8.78211
8.71067
8.63792
8.56385
8.48843
8.41166
8.33351
8.25396
8.173
8.0906
8.00674
7.92141
7.83459
7.74625
7.65638
7.56495
7.47194
7.37734
7.28112
7.18325
7.08373
6.98252
6.8796
6.77587
6.67311
6.57222
6.47316
6.3759
6.2804
6.18663
6.09456
6.00416
5.9154
5.82823
5.74264
5.65859
5.57605
5.49499
5.41538
5.33719
5.26039
5.18496
5.11086
5.03807
4.96656
4.89631
4.82729
4.75947
4.69282
4.62733
4.56297
4.49971
4.43754
4.37642
4.31634
4.25727
4.1992
4.1421
4.08595
4.03073
3.97643
3.92303
3.8705
3.81884
3.76801
3.71802
3.66883
3.62045
3.57284
3.526
3.47992
3.43457
3.38995
3.34605
3.30285
3.26034
3.2185
3.17734
3.13683
3.09697
3.05774
3.01914
2.98116
2.94379
2.90702
2.87084
2.83524
2.80021
9.12028
9.05509
8.98868
8.92103
8.85214
8.78198
8.71053
8.63778
8.56371
8.4883
8.41152
8.33337
8.25382
8.17286
8.09046
8.0066
7.92127
7.83444
7.7461
7.65622
7.56479
7.47178
7.37718
7.28095
7.18309
7.08356
6.98235
6.87943
6.77569
6.67294
6.57204
6.47298
6.37571
6.28021
6.18644
6.09437
6.00396
5.91519
5.82803
5.74243
5.65837
5.57583
5.49477
5.41515
5.33696
5.26016
5.18472
5.11062
5.03783
4.96632
4.89606
4.82703
4.75921
4.69256
4.62707
4.5627
4.49944
4.43726
4.37614
4.31605
4.25699
4.19891
4.14181
4.08566
4.03044
3.97614
3.92274
3.87021
3.81854
3.76772
3.71773
3.66855
3.62016
3.57256
3.52573
3.47965
3.43431
3.3897
3.3458
3.30261
3.2601
3.21828
3.17712
3.13662
3.09677
3.05756
3.01898
2.98101
2.94365
2.9069
2.87073
2.83515
2.80015
9.12016
9.05496
8.98855
8.92091
8.85202
8.78185
8.71041
8.63766
8.56358
8.48817
8.41139
8.33324
8.25369
8.17272
8.09032
8.00646
7.92113
7.8343
7.74596
7.65608
7.56465
7.47164
7.37703
7.2808
7.18294
7.08341
6.98219
6.87927
6.77553
6.67277
6.57187
6.4728
6.37553
6.28003
6.18625
6.09418
6.00377
5.915
5.82783
5.74223
5.65817
5.57562
5.49455
5.41494
5.33674
5.25993
5.18449
5.11039
5.03759
4.96608
4.89582
4.82679
4.75896
4.69231
4.62681
4.56244
4.49917
4.43699
4.37587
4.31578
4.25671
4.19863
4.14153
4.08538
4.03016
3.97586
3.92245
3.86993
3.81826
3.76744
3.71745
3.66827
3.61989
3.5723
3.52547
3.47939
3.43406
3.38945
3.34556
3.30238
3.25988
3.21807
3.17692
3.13643
3.0966
3.0574
3.01883
2.98087
2.94353
2.90679
2.87065
2.83508
2.8001
9.12004
9.05484
8.98843
8.92079
8.8519
8.78174
8.71029
8.63754
8.56346
8.48805
8.41127
8.33312
8.25357
8.1726
8.0902
8.00634
7.921
7.83417
7.74583
7.65595
7.56451
7.4715
7.37689
7.28066
7.18279
7.08326
6.98204
6.87912
6.77537
6.67261
6.57171
6.47264
6.37536
6.27986
6.18608
6.094
6.00359
5.91481
5.82764
5.74204
5.65797
5.57542
5.49435
5.41473
5.33653
5.25972
5.18428
5.11017
5.03737
4.96585
4.89558
4.82655
4.75872
4.69206
4.62656
4.56219
4.49892
4.43673
4.37561
4.31552
4.25644
4.19836
4.14126
4.08511
4.02989
3.97559
3.92218
3.86966
3.81799
3.76718
3.71719
3.66801
3.61963
3.57204
3.52521
3.47915
3.43382
3.38922
3.34534
3.30216
3.25967
3.21787
3.17673
3.13626
3.09643
3.05724
3.01869
2.98075
2.94343
2.9067
2.87057
2.83503
2.80006
9.11993
9.05474
8.98832
8.92068
8.85179
8.78163
8.71018
8.63743
8.56335
8.48794
8.41116
8.33301
8.25345
8.17248
8.09008
8.00622
7.92088
7.83405
7.7457
7.65582
7.56438
7.47137
7.37676
7.28053
7.18265
7.08312
6.9819
6.87897
6.77522
6.67246
6.57155
6.47248
6.3752
6.27969
6.18591
6.09383
6.00342
5.91464
5.82746
5.74185
5.65779
5.57523
5.49416
5.41453
5.33633
5.25952
5.18407
5.10995
5.03715
4.96563
4.89536
4.82632
4.75848
4.69183
4.62632
4.56194
4.49867
4.43648
4.37535
4.31526
4.25619
4.19811
4.141
4.08484
4.02963
3.97532
3.92192
3.8694
3.81773
3.76692
3.71693
3.66776
3.61939
3.5718
3.52498
3.47891
3.43359
3.389
3.34512
3.30195
3.25948
3.21768
3.17656
3.13609
3.09628
3.05711
3.01856
2.98064
2.94333
2.90663
2.87052
2.83499
2.80004
9.11983
9.05463
8.98822
8.92058
8.85169
8.78152
8.71008
8.63732
8.56325
8.48783
8.41106
8.3329
8.25335
8.17238
8.08997
8.00611
7.92077
7.83394
7.74559
7.6557
7.56426
7.47125
7.37663
7.2804
7.18253
7.08299
6.98177
6.87884
6.77508
6.67231
6.57141
6.47233
6.37505
6.27954
6.18575
6.09367
6.00325
5.91447
5.82729
5.74168
5.65761
5.57505
5.49397
5.41434
5.33613
5.25932
5.18387
5.10975
5.03694
4.96542
4.89514
4.8261
4.75826
4.6916
4.62609
4.56171
4.49844
4.43624
4.37511
4.31502
4.25594
4.19786
4.14075
4.08459
4.02938
3.97507
3.92167
3.86915
3.81749
3.76667
3.71669
3.66752
3.61915
3.57156
3.52475
3.47869
3.43337
3.38879
3.34492
3.30176
3.25929
3.21751
3.1764
3.13594
3.09614
3.05698
3.01846
2.98055
2.94326
2.90657
2.87047
2.83496
2.80003
9.11973
9.05454
8.98813
8.92048
8.85159
8.78143
8.70998
8.63723
8.56315
8.48774
8.41096
8.3328
8.25325
8.17228
8.08987
8.006
7.92066
7.83383
7.74548
7.65559
7.56415
7.47113
7.37652
7.28028
7.18241
7.08287
6.98164
6.87871
6.77495
6.67218
6.57127
6.47219
6.37491
6.27939
6.18561
6.09352
6.0031
5.91431
5.82712
5.74151
5.65744
5.57488
5.49379
5.41416
5.33595
5.25913
5.18368
5.10956
5.03674
4.96521
4.89494
4.82589
4.75805
4.69138
4.62587
4.56149
4.49821
4.43602
4.37488
4.31478
4.2557
4.19762
4.14051
4.08435
4.02914
3.97483
3.92143
3.86891
3.81725
3.76644
3.71646
3.66729
3.61892
3.57134
3.52453
3.47848
3.43317
3.38859
3.34474
3.30158
3.25913
3.21735
3.17625
3.13581
3.09602
3.05688
3.01836
2.98047
2.94319
2.90652
2.87044
2.83495
2.80004
9.11964
9.05445
8.98804
8.9204
8.8515
8.78134
8.70989
8.63714
8.56306
8.48765
8.41087
8.33271
8.25316
8.17218
8.08977
8.00591
7.92057
7.83373
7.74538
7.65549
7.56405
7.47103
7.37641
7.28017
7.1823
7.08275
6.98153
6.87859
6.77483
6.67206
6.57114
6.47206
6.37478
6.27925
6.18547
6.09337
6.00295
5.91416
5.82697
5.74135
5.65728
5.57471
5.49363
5.41399
5.33578
5.25895
5.18349
5.10937
5.03655
4.96502
4.89474
4.82569
4.75784
4.69117
4.62566
4.56127
4.49799
4.4358
4.37466
4.31456
4.25548
4.19739
4.14028
4.08413
4.02891
3.9746
3.9212
3.86868
3.81702
3.76621
3.71624
3.66707
3.61871
3.57114
3.52433
3.47829
3.43298
3.38841
3.34456
3.30142
3.25897
3.21721
3.17612
3.13569
3.09591
3.05678
3.01828
2.98041
2.94314
2.90649
2.87043
2.83495
2.80006
9.11956
9.05437
8.98796
8.92032
8.85142
8.78126
8.70981
8.63706
8.56298
8.48757
8.41079
8.33263
8.25307
8.1721
8.08969
8.00582
7.92048
7.83364
7.74529
7.6554
7.56396
7.47093
7.37631
7.28007
7.18219
7.08265
6.98142
6.87848
6.77472
6.67194
6.57102
6.47194
6.37465
6.27913
6.18533
6.09324
6.00281
5.91402
5.82683
5.74121
5.65713
5.57456
5.49347
5.41383
5.33561
5.25878
5.18332
5.10919
5.03637
4.96484
4.89455
4.8255
4.75765
4.69098
4.62546
4.56107
4.49779
4.43559
4.37445
4.31435
4.25526
4.19718
4.14006
4.08391
4.02869
3.97439
3.92099
3.86847
3.81681
3.766
3.71603
3.66687
3.61851
3.57094
3.52414
3.4781
3.43281
3.38825
3.3444
3.30127
3.25883
3.21708
3.176
3.13558
3.09582
3.0567
3.01822
2.98035
2.94311
2.90647
2.87042
2.83497
2.80009
9.36846
9.30795
9.2463
9.18348
9.11948
9.05429
8.98788
8.92024
8.85135
8.78119
8.70974
8.63699
8.56291
8.48749
8.41071
8.33255
8.253
8.17202
8.08961
8.00574
7.9204
7.83356
7.74521
7.65532
7.56387
7.47085
7.37622
7.27998
7.1821
7.08255
6.98132
6.87838
6.77461
6.67183
6.57091
6.47183
6.37453
6.27901
6.18521
6.09311
6.00268
5.91388
5.82669
5.74107
5.65698
5.57441
5.49332
5.41367
5.33545
5.25862
5.18316
5.10903
5.0362
4.96466
4.89438
4.82532
4.75747
4.69079
4.62527
4.56088
4.49759
4.43539
4.37425
4.31415
4.25506
4.19697
4.13986
4.0837
4.02848
3.97418
3.92078
3.86826
3.81661
3.76581
3.71583
3.66668
3.61833
3.57076
3.52397
3.47793
3.43265
3.38809
3.34426
3.30113
3.2587
3.21696
3.17589
3.13549
3.09574
3.05664
3.01816
2.98032
2.94309
2.90646
2.87043
2.835
2.80014
9.36839
9.30788
9.24622
9.18341
9.11941
9.05422
8.98782
8.92018
8.85128
8.78112
8.70968
8.63692
8.56284
8.48743
8.41065
8.33249
8.25293
8.17195
8.08954
8.00567
7.92033
7.83349
7.74513
7.65524
7.56379
7.47077
7.37614
7.2799
7.18201
7.08246
6.98123
6.87828
6.77452
6.67173
6.57081
6.47172
6.37443
6.2789
6.1851
6.093
6.00256
5.91376
5.82656
5.74094
5.65685
5.57427
5.49318
5.41353
5.33531
5.25847
5.183
5.10887
5.03604
4.9645
4.89421
4.82515
4.75729
4.69061
4.62509
4.56069
4.49741
4.4352
4.37406
4.31395
4.25487
4.19678
4.13967
4.08351
4.02829
3.97399
3.92059
3.86807
3.81642
3.76562
3.71565
3.6665
3.61815
3.57059
3.52381
3.47778
3.4325
3.38795
3.34413
3.30101
3.25859
3.21686
3.1758
3.13541
3.09568
3.05658
3.01813
2.9803
2.94308
2.90647
2.87046
2.83504
2.8002
9.36832
9.30782
9.24617
9.18335
9.11936
9.05417
8.98776
8.92012
8.85123
8.78107
8.70962
8.63686
8.56279
8.48737
8.41059
8.33243
8.25287
8.17189
8.08948
8.00561
7.92027
7.83342
7.74507
7.65517
7.56372
7.4707
7.37607
7.27982
7.18194
7.08238
6.98115
6.8782
6.77443
6.67164
6.57072
6.47162
6.37433
6.27879
6.18499
6.09289
6.00245
5.91365
5.82645
5.74082
5.65673
5.57415
5.49305
5.4134
5.33517
5.25833
5.18286
5.10872
5.03589
4.96434
4.89405
4.82499
4.75713
4.69045
4.62492
4.56052
4.49723
4.43503
4.37388
4.31378
4.25469
4.1966
4.13948
4.08333
4.02811
3.97381
3.92041
3.8679
3.81625
3.76545
3.71549
3.66634
3.618
3.57044
3.52366
3.47764
3.43237
3.38783
3.34401
3.3009
3.2585
3.21677
3.17573
3.13535
3.09563
3.05655
3.01811
2.98029
2.94309
2.90649
2.8705
2.83509
2.80027
9.54308
9.48591
9.42765
9.36827
9.30777
9.24612
9.1833
9.11931
9.05412
8.98771
8.92007
8.85118
8.78102
8.70957
8.63681
8.56274
8.48732
8.41054
8.33238
8.25282
8.17184
8.08943
8.00556
7.92021
7.83337
7.74501
7.65511
7.56366
7.47063
7.376
7.27976
7.18187
7.08231
6.98107
6.87812
6.77435
6.67156
6.57063
6.47154
6.37424
6.2787
6.1849
6.09279
6.00235
5.91354
5.82634
5.7407
5.65661
5.57403
5.49292
5.41327
5.33504
5.2582
5.18272
5.10858
5.03575
4.9642
4.8939
4.82484
4.75698
4.69029
4.62476
4.56036
4.49707
4.43486
4.37372
4.31361
4.25452
4.19643
4.13932
4.08316
4.02794
3.97364
3.92025
3.86774
3.81609
3.76529
3.71533
3.66619
3.61785
3.5703
3.52353
3.47751
3.43225
3.38772
3.34391
3.30081
3.25841
3.2167
3.17567
3.1353
3.09559
3.05653
3.0181
2.98029
2.94311
2.90653
2.87055
2.83516
2.80035
9.54303
9.48587
9.4276
9.36823
9.30773
9.24608
9.18327
9.11927
9.05408
8.98767
8.92003
8.85114
8.78098
8.70953
8.63677
8.56269
8.48727
8.41049
8.33233
8.25277
8.1718
8.08938
8.00551
7.92016
7.83332
7.74496
7.65506
7.56361
7.47058
7.37595
7.2797
7.18181
7.08225
6.98101
6.87806
6.77428
6.67149
6.57056
6.47146
6.37416
6.27862
6.18481
6.0927
6.00225
5.91344
5.82624
5.7406
5.65651
5.57392
5.49281
5.41316
5.33492
5.25808
5.1826
5.10845
5.03562
4.96407
4.89377
4.8247
4.75683
4.69015
4.62462
4.56022
4.49692
4.43471
4.37356
4.31346
4.25437
4.19627
4.13916
4.08301
4.02779
3.97349
3.9201
3.86759
3.81594
3.76515
3.71519
3.66606
3.61772
3.57018
3.52341
3.4774
3.43215
3.38762
3.34382
3.30074
3.25835
3.21665
3.17563
3.13527
3.09557
3.05652
3.0181
2.98031
2.94314
2.90658
2.87061
2.83524
2.80044
9.543
9.48584
9.42757
9.3682
9.3077
9.24605
9.18323
9.11924
9.05405
8.98764
8.92
8.8511
8.78094
8.70949
8.63674
8.56266
8.48724
8.41046
8.3323
8.25274
8.17176
8.08934
8.00547
7.92012
7.83328
7.74492
7.65502
7.56356
7.47053
7.3759
7.27965
7.18175
7.0822
6.98095
6.878
6.77422
6.67142
6.57049
6.47139
6.37408
6.27854
6.18473
6.09262
6.00217
5.91336
5.82615
5.74051
5.65641
5.57382
5.49271
5.41305
5.33481
5.25797
5.18248
5.10834
5.0355
4.96394
4.89364
4.82457
4.7567
4.69002
4.62448
4.56008
4.49678
4.43457
4.37342
4.31331
4.25422
4.19613
4.13902
4.08286
4.02765
3.97335
3.91996
3.86745
3.81581
3.76502
3.71507
3.66594
3.61761
3.57007
3.52331
3.47731
3.43206
3.38754
3.34375
3.30067
3.2583
3.21661
3.1756
3.13525
3.09557
3.05653
3.01813
2.98035
2.94319
2.90664
2.87069
2.83533
2.80055
9.54298
9.48582
9.42755
9.36818
9.30768
9.24602
9.18321
9.11922
9.05402
8.98761
8.91997
8.85108
8.78092
8.70947
8.63671
8.56263
8.48721
8.41043
8.33227
8.25271
8.17173
8.08931
8.00544
7.92009
7.83324
7.74488
7.65498
7.56353
7.47049
7.37586
7.2796
7.18171
7.08215
6.9809
6.87795
6.77417
6.67137
6.57043
6.47133
6.37402
6.27847
6.18466
6.09254
6.00209
5.91328
5.82607
5.74042
5.65632
5.57373
5.49262
5.41296
5.33472
5.25787
5.18238
5.10823
5.03539
4.96383
4.89353
4.82446
4.75659
4.6899
4.62436
4.55996
4.49666
4.43445
4.3733
4.31319
4.2541
4.19601
4.13889
4.08274
4.02752
3.97323
3.91984
3.86733
3.8157
3.76491
3.71496
3.66583
3.61751
3.56998
3.52322
3.47723
3.43199
3.38748
3.3437
3.30063
3.25826
3.21658
3.17558
3.13525
3.09558
3.05655
3.01816
2.9804
2.94326
2.90672
2.87078
2.83544
2.80067
9.54297
9.4858
9.42754
9.36817
9.30766
9.24601
9.1832
9.1192
9.05401
8.9876
8.91996
8.85106
8.7809
8.70945
8.63669
8.56261
8.48719
8.41041
8.33225
8.25269
8.17171
8.08929
8.00542
7.92006
7.83322
7.74485
7.65495
7.5635
7.47046
7.37583
7.27957
7.18167
7.08211
6.98086
6.8779
6.77412
6.67132
6.57038
6.47128
6.37396
6.27842
6.1846
6.09248
6.00203
5.91321
5.826
5.74035
5.65625
5.57365
5.49254
5.41287
5.33463
5.25778
5.18229
5.10814
5.03529
4.96373
4.89343
4.82435
4.75648
4.68979
4.62425
4.55985
4.49655
4.43433
4.37318
4.31307
4.25398
4.19589
4.13878
4.08263
4.02741
3.97312
3.91973
3.86723
3.8156
3.76481
3.71487
3.66575
3.61743
3.5699
3.52315
3.47717
3.43193
3.38743
3.34366
3.3006
3.25824
3.21658
3.17559
3.13527
3.09561
3.05659
3.01821
2.98047
2.94334
2.90681
2.87089
2.83556
2.80081
9.54297
9.4858
9.42754
9.36816
9.30766
9.24601
9.18319
9.11919
9.054
8.98759
8.91995
8.85105
8.78089
8.70944
8.63668
8.5626
8.48718
8.4104
8.33223
8.25267
8.17169
8.08927
8.0054
7.92005
7.8332
7.74483
7.65493
7.56347
7.47044
7.3758
7.27954
7.18164
7.08208
6.98083
6.87787
6.77409
6.67128
6.57034
6.47123
6.37392
6.27837
6.18455
6.09243
6.00197
5.91315
5.82593
5.74029
5.65618
5.57358
5.49247
5.4128
5.33455
5.2577
5.18221
5.10805
5.03521
4.96365
4.89334
4.82426
4.75639
4.68969
4.62415
4.55975
4.49645
4.43423
4.37308
4.31297
4.25388
4.19579
4.13868
4.08253
4.02732
3.97303
3.91964
3.86714
3.81551
3.76473
3.71479
3.66568
3.61736
3.56984
3.5231
3.47712
3.43189
3.3874
3.34364
3.30059
3.25824
3.21659
3.17561
3.1353
3.09565
3.05665
3.01828
2.98055
2.94343
2.90692
2.87101
2.83569
2.80095
9.54297
9.48581
9.42754
9.36817
9.30766
9.24601
9.18319
9.1192
9.054
8.98759
8.91995
8.85105
8.78089
8.70944
8.63668
8.5626
8.48718
8.41039
8.33223
8.25267
8.17169
8.08927
8.00539
7.92004
7.83319
7.74482
7.65492
7.56346
7.47042
7.37578
7.27953
7.18163
7.08206
6.98081
6.87784
6.77406
6.67125
6.57031
6.4712
6.37388
6.27833
6.18451
6.09238
6.00193
5.9131
5.82588
5.74023
5.65612
5.57353
5.49241
5.41274
5.33449
5.25763
5.18214
5.10798
5.03514
4.96357
4.89326
4.82418
4.75631
4.68961
4.62407
4.55966
4.49636
4.43415
4.373
4.31289
4.2538
4.19571
4.1386
4.08245
4.02724
3.97295
3.91957
3.86707
3.81544
3.76467
3.71473
3.66562
3.61731
3.5698
3.52306
3.47709
3.43187
3.38739
3.34364
3.3006
3.25826
3.21661
3.17564
3.13535
3.09571
3.05672
3.01837
2.98064
2.94354
2.90704
2.87115
2.83584
2.80111
9.54299
9.48582
9.42756
9.36818
9.30767
9.24602
9.1832
9.11921
9.05401
8.9876
8.91996
8.85106
8.7809
8.70944
8.63669
8.56261
8.48718
8.4104
8.33223
8.25267
8.17169
8.08927
8.00539
7.92004
7.83319
7.74482
7.65492
7.56346
7.47042
7.37578
7.27952
7.18161
7.08205
6.98079
6.87783
6.77404
6.67123
6.57029
6.47117
6.37385
6.2783
6.18448
6.09235
6.00189
5.91307
5.82584
5.74019
5.65608
5.57348
5.49236
5.41268
5.33443
5.25758
5.18208
5.10792
5.03508
4.96351
4.8932
4.82412
4.75624
4.68954
4.624
4.55959
4.49629
4.43408
4.37293
4.31282
4.25373
4.19564
4.13853
4.08238
4.02717
3.97289
3.91951
3.86702
3.81539
3.76462
3.71469
3.66558
3.61728
3.56978
3.52305
3.47708
3.43187
3.3874
3.34365
3.30062
3.25829
3.21665
3.1757
3.13541
3.09579
3.05681
3.01847
2.98076
2.94366
2.90718
2.8713
2.836
2.80129
9.54302
9.48585
9.42758
9.3682
9.30769
9.24604
9.18322
9.11922
9.05403
8.98762
8.91997
8.85108
8.78091
8.70946
8.6367
8.56262
8.48719
8.41041
8.33224
8.25268
8.1717
8.08928
8.0054
7.92004
7.83319
7.74482
7.65492
7.56346
7.47042
7.37578
7.27951
7.18161
7.08204
6.98078
6.87782
6.77403
6.67122
6.57027
6.47116
6.37384
6.27828
6.18445
6.09233
6.00187
5.91304
5.82581
5.74016
5.65605
5.57344
5.49232
5.41264
5.33439
5.25753
5.18204
5.10788
5.03503
4.96346
4.89315
4.82406
4.75619
4.68949
4.62395
4.55954
4.49624
4.43402
4.37287
4.31276
4.25368
4.19559
4.13848
4.08233
4.02713
3.97285
3.91947
3.86698
3.81536
3.7646
3.71467
3.66557
3.61727
3.56977
3.52305
3.47709
3.43189
3.38742
3.34368
3.30066
3.25834
3.21672
3.17577
3.1355
3.09588
3.05691
3.01859
2.98089
2.94381
2.90733
2.87146
2.83618
2.80148
9.54305
9.48588
9.42761
9.36823
9.30772
9.24607
9.18325
9.11925
9.05405
8.98764
8.92
8.8511
8.78093
8.70948
8.63672
8.56264
8.48721
8.41043
8.33226
8.2527
8.17171
8.08929
8.00541
7.92006
7.83321
7.74484
7.65493
7.56347
7.47043
7.37578
7.27952
7.18162
7.08205
6.98079
6.87782
6.77403
6.67122
6.57027
6.47115
6.37383
6.27827
6.18444
6.09231
6.00185
5.91302
5.82579
5.74014
5.65602
5.57342
5.49229
5.41262
5.33436
5.2575
5.182
5.10784
5.03499
4.96342
4.89311
4.82403
4.75615
4.68945
4.62391
4.5595
4.4962
4.43398
4.37283
4.31272
4.25364
4.19555
4.13845
4.0823
4.0271
3.97282
3.91945
3.86696
3.81535
3.76459
3.71466
3.66557
3.61728
3.56978
3.52307
3.47712
3.43192
3.38746
3.34374
3.30072
3.25841
3.2168
3.17586
3.1356
3.09599
3.05704
3.01872
2.98103
2.94397
2.90751
2.87165
2.83638
2.80169
9.54309
9.48592
9.42765
9.36827
9.30776
9.2461
9.18329
9.11929
9.05409
8.98767
8.92003
8.85113
8.78096
8.70951
8.63675
8.56267
8.48724
8.41045
8.33229
8.25272
8.17174
8.08932
8.00544
7.92008
7.83323
7.74486
7.65495
7.56349
7.47044
7.3758
7.27954
7.18163
7.08206
6.9808
6.87783
6.77404
6.67122
6.57027
6.47115
6.37383
6.27827
6.18444
6.09231
6.00184
5.91301
5.82578
5.74013
5.65601
5.5734
5.49228
5.4126
5.33435
5.25748
5.18198
5.10782
5.03497
4.9634
4.89308
4.824
4.75612
4.68942
4.62388
4.55947
4.49617
4.43396
4.37281
4.3127
4.25362
4.19553
4.13843
4.08229
4.02709
3.97281
3.91944
3.86696
3.81535
3.76459
3.71468
3.66559
3.6173
3.56981
3.52311
3.47716
3.43198
3.38753
3.34381
3.3008
3.25851
3.2169
3.17597
3.13572
3.09613
3.05718
3.01888
2.9812
2.94414
2.9077
2.87185
2.83659
2.80191
9.54315
9.48597
9.4277
9.36832
9.30781
9.24615
9.18333
9.11933
9.05413
8.98772
8.92007
8.85117
8.781
8.70955
8.63679
8.5627
8.48728
8.41049
8.33232
8.25275
8.17177
8.08935
8.00547
7.92011
7.83326
7.74489
7.65498
7.56351
7.47047
7.37582
7.27956
7.18165
7.08208
6.98082
6.87785
6.77405
6.67124
6.57029
6.47116
6.37384
6.27828
6.18445
6.09232
6.00185
5.91302
5.82579
5.74013
5.65601
5.5734
5.49227
5.4126
5.33434
5.25748
5.18198
5.10781
5.03496
4.96339
4.89308
4.82399
4.75611
4.68941
4.62387
4.55946
4.49616
4.43395
4.3728
4.3127
4.25361
4.19553
4.13843
4.08229
4.0271
3.97282
3.91946
3.86698
3.81537
3.76462
3.71471
3.66563
3.61735
3.56987
3.52317
3.47723
3.43205
3.38761
3.3439
3.30091
3.25862
3.21702
3.17611
3.13586
3.09628
3.05735
3.01905
2.98139
2.94434
2.90791
2.87207
2.83682
2.80215
9.54321
9.48603
9.42776
9.36838
9.30786
9.2462
9.18338
9.11938
9.05418
8.98776
8.92012
8.85122
8.78105
8.70959
8.63683
8.56275
8.48732
8.41053
8.33236
8.2528
8.17181
8.08939
8.00551
7.92015
7.83329
7.74492
7.65501
7.56355
7.4705
7.37586
7.27959
7.18168
7.08211
6.98085
6.87787
6.77408
6.67126
6.57031
6.47119
6.37386
6.2783
6.18447
6.09233
6.00187
5.91303
5.8258
5.74014
5.65602
5.57341
5.49228
5.41261
5.33435
5.25748
5.18198
5.10782
5.03497
4.9634
4.89308
4.824
4.75612
4.68942
4.62388
4.55947
4.49617
4.43396
4.37281
4.31271
4.25363
4.19555
4.13845
4.08232
4.02712
3.97285
3.91949
3.86702
3.81542
3.76467
3.71477
3.66569
3.61742
3.56994
3.52325
3.47732
3.43215
3.38772
3.34402
3.30103
3.25875
3.21717
3.17626
3.13603
3.09646
3.05753
3.01925
2.9816
2.94456
2.90814
2.87231
2.83707
2.80241
9.54327
9.4861
9.42782
9.36844
9.30793
9.24627
9.18344
9.11944
9.05424
8.98782
8.92017
8.85127
8.7811
8.70965
8.63688
8.5628
8.48737
8.41058
8.33241
8.25284
8.17186
8.08943
8.00555
7.92019
7.83334
7.74497
7.65506
7.56359
7.47054
7.3759
7.27963
7.18172
7.08215
6.98088
6.87791
6.77411
6.6713
6.57034
6.47122
6.37389
6.27833
6.1845
6.09236
6.00189
5.91306
5.82583
5.74017
5.65605
5.57344
5.49231
5.41263
5.33437
5.25751
5.182
5.10784
5.03499
4.96342
4.8931
4.82402
4.75614
4.68944
4.6239
4.55949
4.49619
4.43398
4.37284
4.31274
4.25366
4.19558
4.13849
4.08236
4.02717
3.97291
3.91955
3.86708
3.81549
3.76475
3.71485
3.66577
3.61751
3.57004
3.52335
3.47743
3.43227
3.38785
3.34415
3.30118
3.25891
3.21733
3.17644
3.13622
3.09666
3.05774
3.01947
2.98183
2.94481
2.90839
2.87257
2.83735
2.8027
9.54335
9.48617
9.4279
9.36851
9.308
9.24633
9.18351
9.11951
9.0543
8.98789
8.92024
8.85133
8.78116
8.70971
8.63694
8.56286
8.48743
8.41064
8.33247
8.2529
8.17191
8.08949
8.00561
7.92025
7.83339
7.74502
7.65511
7.56364
7.47059
7.37595
7.27968
7.18177
7.08219
6.98093
6.87795
6.77416
6.67134
6.57039
6.47126
6.37393
6.27837
6.18453
6.0924
6.00193
5.9131
5.82586
5.7402
5.65608
5.57347
5.49234
5.41266
5.33441
5.25754
5.18204
5.10788
5.03502
4.96345
4.89314
4.82405
4.75617
4.68948
4.62394
4.55953
4.49624
4.43403
4.37288
4.31279
4.25371
4.19564
4.13855
4.08242
4.02724
3.97298
3.91963
3.86717
3.81558
3.76484
3.71495
3.66588
3.61762
3.57016
3.52348
3.47757
3.43241
3.388
3.34432
3.30135
3.25909
3.21752
3.17664
3.13643
3.09688
3.05798
3.01972
2.98209
2.94507
2.90867
2.87286
2.83765
2.80301
9.54344
9.48625
9.42798
9.36859
9.30807
9.24641
9.18359
9.11958
9.05438
8.98796
8.92031
8.8514
8.78123
8.70978
8.63701
8.56292
8.48749
8.4107
8.33253
8.25296
8.17198
8.08955
8.00567
7.92031
7.83345
7.74508
7.65517
7.5637
7.47065
7.376
7.27974
7.18182
7.08225
6.98098
6.87801
6.77421
6.67139
6.57044
6.47131
6.37398
6.27842
6.18459
6.09245
6.00198
5.91315
5.82591
5.74025
5.65613
5.57352
5.49239
5.41271
5.33445
5.25759
5.18209
5.10792
5.03507
4.9635
4.89319
4.8241
4.75623
4.68953
4.62399
4.55959
4.49629
4.43409
4.37295
4.31285
4.25378
4.19571
4.13862
4.0825
4.02732
3.97307
3.91973
3.86727
3.81569
3.76496
3.71508
3.66601
3.61776
3.57031
3.52364
3.47773
3.43258
3.38818
3.34451
3.30155
3.2593
3.21774
3.17687
3.13667
3.09713
3.05824
3.01999
2.98237
2.94537
2.90897
2.87318
2.83797
2.80334
9.59963
9.54353
9.48634
9.42807
9.36868
9.30816
9.2465
9.18367
9.11966
9.05446
8.98804
8.92039
8.85148
8.78131
8.70985
8.63709
8.563
8.48757
8.41078
8.33261
8.25304
8.17205
8.08962
8.00574
7.92038
7.83352
7.74515
7.65523
7.56377
7.47072
7.37607
7.2798
7.18189
7.08231
6.98105
6.87807
6.77427
6.67146
6.5705
6.47138
6.37405
6.27848
6.18465
6.09251
6.00204
5.91321
5.82598
5.74031
5.65619
5.57358
5.49245
5.41277
5.33452
5.25765
5.18215
5.10799
5.03514
4.96356
4.89325
4.82417
4.75629
4.6896
4.62406
4.55966
4.49637
4.43416
4.37302
4.31293
4.25386
4.1958
4.13872
4.0826
4.02743
3.97319
3.91986
3.86741
3.81583
3.76511
3.71523
3.66617
3.61793
3.57048
3.52382
3.47792
3.43278
3.38839
3.34472
3.30177
3.25953
3.21799
3.17712
3.13693
3.09741
3.05853
3.02029
2.98268
2.94569
2.9093
2.87352
2.83832
2.8037
9.59973
9.54362
9.48644
9.42816
9.36877
9.30825
9.24659
9.18376
9.11975
9.05455
8.98813
8.92047
8.85157
8.78139
8.70993
8.63717
8.56308
8.48765
8.41086
8.33269
8.25311
8.17212
8.0897
8.00581
7.92045
7.8336
7.74522
7.65531
7.56384
7.47079
7.37614
7.27988
7.18196
7.08239
6.98112
6.87815
6.77435
6.67153
6.57057
6.47145
6.37412
6.27855
6.18472
6.09259
6.00212
5.91328
5.82605
5.74039
5.65627
5.57366
5.49253
5.41285
5.33459
5.25773
5.18223
5.10807
5.03522
4.96365
4.89333
4.82425
4.75638
4.68969
4.62415
4.55975
4.49646
4.43426
4.37312
4.31303
4.25397
4.19591
4.13883
4.08272
4.02757
3.97333
3.92001
3.86757
3.816
3.76529
3.71541
3.66636
3.61812
3.57068
3.52403
3.47814
3.43301
3.38862
3.34496
3.30203
3.2598
3.21826
3.17741
3.13723
3.09771
3.05884
3.02062
2.98302
2.94604
2.90967
2.87389
2.83871
2.8041
9.59984
9.54373
9.48655
9.42827
9.36887
9.30835
9.24669
9.18386
9.11985
9.05464
8.98822
8.92056
8.85166
8.78149
8.71002
8.63726
8.56317
8.48774
8.41094
8.33277
8.2532
8.17221
8.08978
8.0059
7.92054
7.83368
7.74531
7.65539
7.56392
7.47087
7.37623
7.27996
7.18205
7.08247
6.9812
6.87823
6.77443
6.67161
6.57066
6.47153
6.3742
6.27864
6.1848
6.09267
6.0022
5.91337
5.82614
5.74048
5.65636
5.57375
5.49262
5.41294
5.33469
5.25782
5.18232
5.10816
5.03531
4.96374
4.89343
4.82435
4.75648
4.68979
4.62425
4.55985
4.49657
4.43437
4.37323
4.31315
4.25409
4.19603
4.13896
4.08286
4.02771
3.97351
3.9202
3.86778
3.81621
3.7655
3.71562
3.66658
3.61835
3.57091
3.52426
3.47838
3.43326
3.38888
3.34524
3.30231
3.26009
3.21856
3.17772
3.13756
3.09805
3.05919
3.02098
2.98339
2.94642
2.91006
2.8743
2.83912
9.59995
9.54384
9.48666
9.42838
9.36898
9.30846
9.24679
9.18396
9.11995
9.05474
8.98832
8.92066
8.85176
8.78158
8.71012
8.63736
8.56326
8.48783
8.41104
8.33287
8.25329
8.1723
8.08988
8.00599
7.92063
7.83377
7.7454
7.65548
7.56401
7.47097
7.37632
7.28005
7.18214