/*--------------------------------*- C++ -*----------------------------------*\
  =========                 |
  \\      /  F ield         | OpenFOAM: The Open Source CFD Toolbox
   \\    /   O peration     | Website:  https://openfoam.org
    \\  /    A nd           | Version:  10
     \\/     M anipulation  |
\*---------------------------------------------------------------------------*/
FoamFile
{
    format      ascii;
    class       volVectorField;
    location    "39000";
    object      Urel;
}
// * * * * * * * * * * * * * * * * * * * * * * * * * * * * * * * * * * * * * //

dimensions      [0 1 -1 0 0 0 0];

internalField   nonuniform List<vector> 
17922
(
(1.98986 -2.17695 0)
(1.97601 -2.16182 3.97354e-19)
(1.96205 -2.14658 -1.54826e-18)
(1.948 -2.13122 1.50739e-24)
(1.93383 -2.11575 3.62856e-19)
(1.91955 -2.10016 7.0651e-19)
(1.90515 -2.08444 1.74164e-23)
(1.89063 -2.06859 3.30453e-19)
(1.87599 -2.05261 -2.80528e-21)
(1.86122 -2.03649 -3.12804e-19)
(1.84631 -2.02022 -2.41227e-18)
(1.83127 -2.00381 0)
(1.81609 -1.98724 0)
(1.80076 -1.97052 -2.71917e-19)
(1.78527 -1.95363 2.65682e-19)
(1.76963 -1.93657 -2.54215e-19)
(1.75383 -1.91934 2.48436e-19)
(1.73786 -1.90192 -9.55267e-19)
(1.72172 -1.88432 -2.29437e-19)
(1.7054 -1.86653 -8.89088e-19)
(1.68889 -1.84853 -6.44647e-19)
(1.67219 -1.83033 2.06621e-19)
(1.6553 -1.81191 -1.00503e-18)
(1.6382 -1.79327 7.75126e-19)
(1.62088 -1.7744 -7.48107e-19)
(1.60335 -1.75528 0)
(1.58558 -1.73592 0)
(1.56758 -1.71629 0)
(1.54949 -1.69657 1.31468e-18)
(1.53162 -1.67708 1.62023e-19)
(1.51411 -1.65799 4.85578e-19)
(1.49696 -1.63928 1.29102e-18)
(1.48014 -1.62093 -5.62713e-19)
(1.46365 -1.60293 5.59217e-19)
(1.44747 -1.58528 -6.37552e-19)
(1.4316 -1.56795 0)
(1.41602 -1.55094 7.86842e-20)
(1.40073 -1.53423 -7.91359e-19)
(1.38572 -1.51782 -4.74231e-19)
(1.37097 -1.50169 -7.89849e-19)
(1.35649 -1.48584 7.95425e-20)
(1.34225 -1.47026 -7.83592e-20)
(1.32825 -1.45494 -5.52673e-19)
(1.3145 -1.43986 -7.85373e-20)
(1.30096 -1.42503 6.35017e-19)
(1.28765 -1.41043 -1.11125e-18)
(1.27455 -1.39606 -1.14615e-21)
(1.26166 -1.38191 -6.39066e-19)
(1.24896 -1.36796 5.59162e-19)
(1.23646 -1.35422 0)
(1.22414 -1.34068 3.21917e-19)
(1.212 -1.32733 3.23036e-19)
(1.20004 -1.31416 -4.04746e-19)
(1.18824 -1.30117 4.07527e-19)
(1.1766 -1.28835 0)
(1.16512 -1.2757 2.46826e-19)
(1.1538 -1.2632 8.30115e-20)
(1.14262 -1.25086 3.31252e-19)
(1.13158 -1.23867 0)
(1.12068 -1.22663 -3.34395e-19)
(1.10992 -1.21473 0)
(1.09929 -1.20296 8.38146e-20)
(1.08878 -1.19133 -4.24583e-19)
(1.07841 -1.17983 -3.40842e-19)
(1.06816 -1.16845 3.4252e-19)
(1.05804 -1.15721 -3.44157e-19)
(1.04803 -1.14609 2.59933e-19)
(1.03815 -1.13509 -1.7368e-19)
(1.02839 -1.12421 -4.36768e-19)
(1.01875 -1.11345 0)
(1.00923 -1.10282 1.76044e-19)
(0.999829 -1.09231 1.76771e-19)
(0.99055 -1.08191 -2.2209e-23)
(0.981392 -1.07164 2.66739e-19)
(0.972355 -1.06149 -2.68916e-19)
(0.96344 -1.05146 1.79542e-19)
(0.954646 -1.04156 1.80194e-19)
(0.945975 -1.03178 -3.61567e-19)
(0.937425 -1.02213 9.008e-20)
(0.928998 -1.01261 -9.15335e-20)
(0.920692 -1.00321 2.73045e-19)
(0.912507 -0.993937 -1.82897e-19)
(0.904441 -0.984796 1.20334e-21)
(0.896495 -0.975783 9.24721e-20)
(0.888667 -0.966899 4.60052e-19)
(0.880955 -0.958144 7.26975e-24)
(0.873358 -0.949518 2.78186e-19)
(0.865873 -0.94102 0)
(0.858499 -0.93265 -9.23446e-20)
(0.851234 -0.924406 9.37335e-20)
(0.844073 -0.916287 -1.86122e-19)
(0.837016 -0.908291 9.47531e-20)
(0.830059 -0.900418 1.87647e-19)
(1.98463 -2.1817 -4.18624e-19)
(1.97082 -2.16653 4.03742e-19)
(1.9569 -2.15126 -3.94955e-19)
(1.94288 -2.13587 1.52804e-18)
(1.92875 -2.12036 -1.13898e-23)
(1.91451 -2.10473 -3.58241e-19)
(1.90015 -2.08898 1.04805e-18)
(1.88567 -2.0731 0)
(1.87106 -2.05708 -1.63802e-18)
(1.85633 -2.04092 3.19165e-19)
(1.84146 -2.02462 1.23128e-18)
(1.82646 -2.00817 -1.19245e-18)
(1.81131 -1.99156 0)
(1.79602 -1.9748 0)
(1.78058 -1.95787 0)
(1.76498 -1.94078 1.30639e-18)
(1.74922 -1.92351 1.00911e-18)
(1.73329 -1.90605 7.32454e-19)
(1.71719 -1.88841 2.35101e-19)
(1.70091 -1.87058 6.8426e-19)
(1.68445 -1.85254 1.52928e-23)
(1.6678 -1.8343 0)
(1.65095 -1.81584 2.04734e-19)
(1.63389 -1.79716 -9.96242e-19)
(1.61662 -1.77824 7.68492e-19)
(1.59913 -1.75909 0)
(1.58142 -1.73968 0)
(1.56346 -1.72001 0)
(1.54542 -1.70024 -2.58461e-23)
(1.5276 -1.68071 0)
(1.51014 -1.66158 1.65608e-19)
(1.49303 -1.64282 -1.67225e-19)
(1.47625 -1.62444 1.32118e-18)
(1.45981 -1.6064 4.9459e-19)
(1.44367 -1.58871 1.65093e-19)
(1.42785 -1.57134 0)
(1.41231 -1.55429 -6.519e-19)
(1.39706 -1.53755 6.50691e-19)
(1.38209 -1.5211 7.30434e-19)
(1.36738 -1.50494 5.67484e-19)
(1.35293 -1.48906 -5.68463e-19)
(1.33874 -1.47344 5.67324e-19)
(1.32478 -1.45809 0)
(1.31106 -1.44298 -8.06525e-20)
(1.29756 -1.42812 -6.49592e-19)
(1.28428 -1.41349 1.38577e-18)
(1.27122 -1.39909 8.10545e-20)
(1.25836 -1.38491 4.90984e-19)
(1.2457 -1.37094 -5.73709e-19)
(1.23323 -1.35717 4.10789e-19)
(1.22094 -1.3436 1.65058e-19)
(1.20883 -1.33022 -2.47841e-19)
(1.1969 -1.31703 3.32413e-19)
(1.18513 -1.30401 0)
(1.17353 -1.29117 -8.31534e-20)
(1.16207 -1.27849 8.46678e-20)
(1.15078 -1.26597 3.37723e-19)
(1.13962 -1.25361 -3.39185e-19)
(1.12861 -1.2414 0)
(1.11774 -1.22934 -8.49576e-20)
(1.107 -1.21741 8.65235e-20)
(1.0964 -1.20563 -8.57312e-20)
(1.08592 -1.19397 6.94898e-19)
(1.07557 -1.18245 4.3614e-19)
(1.06535 -1.17106 0)
(1.05525 -1.1598 0)
(1.04527 -1.14866 -8.76876e-20)
(1.03541 -1.13765 4.43934e-19)
(1.02567 -1.12676 7.12352e-19)
(1.01605 -1.11599 0)
(1.00656 -1.10534 0)
(0.997179 -1.09481 -2.70982e-19)
(0.987921 -1.0844 -1.8214e-19)
(0.978784 -1.07412 -9.1399e-20)
(0.969767 -1.06396 1.82229e-19)
(0.960871 -1.05392 -1.82833e-19)
(0.952097 -1.04401 -1.83404e-19)
(0.943444 -1.03422 9.25776e-20)
(0.934912 -1.02456 1.85669e-19)
(0.926501 -1.01502 1.86157e-19)
(0.91821 -1.00562 1.19972e-21)
(0.91004 -0.996336 -9.23226e-20)
(0.901988 -0.987186 3.04201e-24)
(0.894055 -0.978164 -2.79376e-19)
(0.886239 -0.96927 -9.29085e-20)
(0.878538 -0.960506 -2.80459e-19)
(0.870951 -0.95187 -9.32579e-20)
(0.863476 -0.943362 0)
(0.85611 -0.934981 0)
(0.848853 -0.926726 2.82532e-19)
(0.8417 -0.918596 -9.4567e-20)
(0.834649 -0.910588 5.96012e-22)
(0.827698 -0.902702 0)
(1.97925 -2.18658 4.19101e-19)
(1.96547 -2.17138 -4.10225e-19)
(1.95159 -2.15607 1.58841e-18)
(1.93761 -2.14064 -1.5427e-18)
(1.92351 -2.1251 -7.48927e-19)
(1.90931 -2.10944 -3.61993e-19)
(1.89499 -2.09365 1.05947e-18)
(1.88055 -2.07773 1.36841e-18)
(1.86598 -2.06167 9.96719e-19)
(1.85129 -2.04548 -9.63396e-19)
(1.83646 -2.02914 0)
(1.8215 -2.01265 1.50858e-18)
(1.8064 -1.99601 -2.93938e-19)
(1.79115 -1.97921 -2.81838e-19)
(1.77574 -1.96224 2.75615e-19)
(1.76019 -1.94511 1.0615e-18)
(1.74447 -1.9278 -2.05414e-18)
(1.72859 -1.9103 0)
(1.71253 -1.89262 -7.21943e-19)
(1.6963 -1.87475 -2.74863e-21)
(1.67988 -1.85667 1.79304e-18)
(1.66327 -1.83839 -4.33859e-19)
(1.64646 -1.81988 8.41116e-19)
(1.62946 -1.80116 2.69759e-21)
(1.61224 -1.7822 -7.79539e-19)
(1.59479 -1.763 1.90184e-19)
(1.57713 -1.74355 0)
(1.55922 -1.72384 1.74619e-19)
(1.54123 -1.70403 -1.55141e-18)
(1.52346 -1.68445 -1.69797e-19)
(1.50604 -1.66527 8.51409e-19)
(1.48898 -1.64648 -6.76307e-19)
(1.47225 -1.62805 -8.3994e-19)
(1.45585 -1.60997 -3.35049e-19)
(1.43977 -1.59224 -3.33803e-19)
(1.42398 -1.57484 8.33164e-19)
(1.40849 -1.55775 8.28609e-19)
(1.39329 -1.54097 -1.66868e-19)
(1.37835 -1.52449 0)
(1.36369 -1.50829 -8.2496e-19)
(1.34928 -1.49238 6.63041e-19)
(1.33512 -1.47673 1.66349e-19)
(1.3212 -1.46134 -5.7878e-19)
(1.30752 -1.4462 -7.44537e-19)
(1.29406 -1.43131 7.4421e-19)
(1.28082 -1.41665 -8.28796e-19)
(1.26779 -1.40222 -5.80584e-19)
(1.25497 -1.388 0)
(1.24234 -1.374 5.84423e-19)
(1.2299 -1.36021 -5.84815e-19)
(1.21765 -1.34661 -4.1879e-19)
(1.20558 -1.33321 8.47357e-20)
(1.19367 -1.31999 0)
(1.18194 -1.30695 0)
(1.17036 -1.29408 -3.40134e-19)
(1.15894 -1.28138 0)
(1.14767 -1.26884 -3.42825e-19)
(1.13655 -1.25645 0)
(1.12556 -1.24422 3.45631e-19)
(1.11472 -1.23213 0)
(1.10401 -1.22019 0)
(1.09343 -1.20838 0)
(1.08298 -1.19671 -3.51604e-19)
(1.07266 -1.18517 0)
(1.06246 -1.17376 -8.80487e-20)
(1.05239 -1.16248 1.78049e-19)
(1.04243 -1.15133 -1.78789e-19)
(1.0326 -1.1403 -2.68659e-19)
(1.02288 -1.12939 -3.60486e-19)
(1.01329 -1.1186 0)
(1.00382 -1.10794 -1.81607e-19)
(0.994461 -1.0974 1.82283e-19)
(0.985225 -1.08698 1.82902e-19)
(0.97611 -1.07669 0)
(0.967114 -1.06651 0)
(0.958239 -1.05646 9.17228e-20)
(0.949485 -1.04654 -9.31808e-20)
(0.940851 -1.03674 0)
(0.932337 -1.02707 -9.24835e-20)
(0.923943 -1.01753 -9.26938e-20)
(0.915669 -1.00811 0)
(0.907514 -0.998819 3.74733e-19)
(0.899478 -0.989659 1.87729e-19)
(0.891558 -0.980627 -1.88045e-19)
(0.883755 -0.971724 0)
(0.876067 -0.96295 9.49269e-20)
(0.868491 -0.954304 9.50785e-20)
(0.861027 -0.945785 1.89239e-19)
(0.853671 -0.937393 1.88936e-19)
(0.846423 -0.929127 -2.84765e-19)
(0.839279 -0.920984 9.5085e-20)
(0.832236 -0.912964 -1.18908e-21)
(0.825293 -0.905064 -9.60491e-20)
(1.97369 -2.19159 4.25304e-19)
(1.95995 -2.17635 -4.10552e-19)
(1.94611 -2.16101 -7.98015e-19)
(1.93216 -2.14555 1.16893e-18)
(1.91811 -2.12997 3.76511e-19)
(1.90395 -2.11427 -7.34105e-19)
(1.88966 -2.09844 -1.06615e-23)
(1.87526 -2.08248 -3.47286e-19)
(1.86074 -2.06639 3.34005e-19)
(1.84609 -2.05016 9.74636e-19)
(1.8313 -2.03378 0)
(1.81638 -2.01725 0)
(1.80132 -2.00057 -1.18515e-18)
(1.78611 -1.98373 1.14809e-18)
(1.77076 -1.96673 0)
(1.75524 -1.94955 -1.34423e-18)
(1.73957 -1.9322 1.30391e-18)
(1.72373 -1.91467 -1.00829e-18)
(1.70772 -1.89695 1.95092e-18)
(1.69153 -1.87903 -2.34468e-19)
(1.67516 -1.86091 -6.82847e-19)
(1.6586 -1.84258 0)
(1.64184 -1.82404 -8.52445e-19)
(1.62488 -1.80527 -8.2376e-19)
(1.60771 -1.78627 9.93523e-19)
(1.59032 -1.76702 -3.84419e-19)
(1.5727 -1.74753 1.87001e-19)
(1.55485 -1.72777 0)
(1.53691 -1.70791 0)
(1.51918 -1.68829 0)
(1.50182 -1.66907 -6.92674e-19)
(1.48481 -1.65023 0)
(1.46813 -1.63176 -6.85267e-19)
(1.45177 -1.61364 -8.5155e-19)
(1.43573 -1.59587 3.39851e-19)
(1.42 -1.57843 -8.48204e-19)
(1.40455 -1.5613 0)
(1.38939 -1.54448 0)
(1.3745 -1.52797 0)
(1.35988 -1.51174 1.6689e-19)
(1.34551 -1.49578 5.02822e-19)
(1.33139 -1.4801 -1.66758e-19)
(1.31752 -1.46468 8.41375e-19)
(1.30387 -1.44951 6.7253e-19)
(1.29045 -1.43458 6.73152e-19)
(1.27725 -1.41989 6.74043e-19)
(1.26426 -1.40543 3.78087e-23)
(1.25147 -1.39119 0)
(1.23888 -1.37716 -8.41842e-20)
(1.22647 -1.36333 7.65274e-19)
(1.21426 -1.34971 -2.56184e-19)
(1.20221 -1.33628 -4.27835e-19)
(1.19034 -1.32303 0)
(1.17864 -1.30996 -8.53989e-20)
(1.1671 -1.29707 4.32144e-19)
(1.15571 -1.28434 8.60132e-20)
(1.14447 -1.27178 1.73877e-19)
(1.13337 -1.25937 5.2366e-19)
(1.12242 -1.24711 -5.25744e-19)
(1.1116 -1.235 4.4045e-19)
(1.10092 -1.22303 -8.77178e-20)
(1.09037 -1.21121 8.92902e-20)
(1.07995 -1.19952 3.56154e-19)
(1.06965 -1.18796 -8.87915e-20)
(1.05948 -1.17653 4.49386e-19)
(1.04943 -1.16523 -3.60437e-19)
(1.0395 -1.15406 0)
(1.02969 -1.14301 3.63244e-19)
(1.02 -1.13209 9.0531e-20)
(1.01043 -1.12129 -2.75015e-19)
(1.00098 -1.11061 2.75978e-19)
(0.991652 -1.10006 9.27056e-20)
(0.98244 -1.08962 -4.61328e-19)
(0.973347 -1.07932 9.32799e-20)
(0.964373 -1.06913 0)
(0.955519 -1.05907 1.86364e-19)
(0.946785 -1.04914 3.7369e-19)
(0.93817 -1.03933 0)
(0.929675 -1.02964 -2.80942e-19)
(0.921299 -1.02009 1.88074e-19)
(0.913043 -1.01066 -2.83241e-19)
(0.904904 -1.00136 -2.82525e-19)
(0.896883 -0.99219 1.21549e-21)
(0.888978 -0.983147 4.7392e-19)
(0.881189 -0.974234 0)
(0.873513 -0.965448 -9.55281e-20)
(0.86595 -0.956791 9.44229e-20)
(0.858497 -0.948261 -2.86053e-19)
(0.851152 -0.939857 -2.85811e-19)
(0.843914 -0.931578 9.53976e-20)
(0.83678 -0.923422 -9.55285e-20)
(0.829747 -0.915388 9.62829e-20)
(0.822813 -0.907473 0)
(1.96795 -2.19674 1.28185e-18)
(1.95425 -2.18146 -4.13624e-19)
(1.94045 -2.16608 4.05179e-19)
(1.92655 -2.15058 -7.84817e-19)
(1.91253 -2.13497 0)
(1.89841 -2.11923 0)
(1.88417 -2.10336 7.19577e-19)
(1.86981 -2.08737 -1.39727e-18)
(1.85533 -2.07124 -3.37557e-19)
(1.84072 -2.05496 3.30435e-19)
(1.82598 -2.03855 1.27634e-18)
(1.8111 -2.02198 1.54562e-18)
(1.79608 -2.00526 8.98421e-19)
(1.78092 -1.98838 -2.32556e-18)
(1.76561 -1.97133 -1.12655e-18)
(1.75014 -1.95412 -2.71349e-19)
(1.73451 -1.93672 2.65581e-19)
(1.71872 -1.91915 7.68572e-19)
(1.70275 -1.90138 -1.48487e-18)
(1.68661 -1.88342 -2.40867e-19)
(1.67029 -1.86526 -2.30215e-19)
(1.65378 -1.84689 2.25414e-19)
(1.63707 -1.8283 1.08158e-18)
(1.62016 -1.80949 1.67225e-18)
(1.60304 -1.79044 -4.04732e-19)
(1.5857 -1.77115 3.91104e-19)
(1.56813 -1.75161 -2.76097e-21)
(1.55033 -1.7318 -1.83798e-19)
(1.53244 -1.7119 -1.77249e-19)
(1.51477 -1.69223 8.8851e-19)
(1.49746 -1.67297 0)
(1.4805 -1.65408 -5.27155e-19)
(1.46387 -1.63557 3.48785e-19)
(1.44757 -1.61741 8.69347e-19)
(1.43157 -1.5996 0)
(1.41588 -1.58211 -8.60516e-19)
(1.40048 -1.56495 1.73172e-19)
(1.38537 -1.54809 0)
(1.37052 -1.53154 6.84851e-19)
(1.35594 -1.51527 0)
(1.34162 -1.49928 -5.13889e-19)
(1.32754 -1.48356 5.11172e-19)
(1.31371 -1.46811 -1.69575e-19)
(1.3001 -1.4529 6.86076e-19)
(1.28672 -1.43794 -5.11897e-19)
(1.27356 -1.42322 -8.54968e-19)
(1.26061 -1.40873 6.88454e-19)
(1.24785 -1.39445 1.73028e-19)
(1.2353 -1.38039 -1.37719e-18)
(1.22293 -1.36654 -3.45102e-19)
(1.21075 -1.35289 1.99903e-23)
(1.19874 -1.33943 4.33052e-19)
(1.1869 -1.32615 -8.7601e-20)
(1.17523 -1.31306 0)
(1.16372 -1.30013 0)
(1.15236 -1.28738 -8.72297e-20)
(1.14115 -1.27479 -2.6386e-19)
(1.13009 -1.26236 -3.53903e-19)
(1.11917 -1.25008 0)
(1.10838 -1.23794 -2.61245e-23)
(1.09773 -1.22596 0)
(1.08721 -1.21411 0)
(1.07681 -1.2024 -7.21179e-19)
(1.06654 -1.19082 -3.61933e-19)
(1.0564 -1.17937 -3.63311e-19)
(1.04637 -1.16805 9.05698e-20)
(1.03647 -1.15686 -9.21025e-20)
(1.02669 -1.1458 2.76026e-19)
(1.01703 -1.13486 -2.75731e-19)
(1.00748 -1.12404 1.84858e-19)
(0.998055 -1.11335 -3.70873e-19)
(0.988748 -1.10278 9.36106e-20)
(0.979559 -1.09233 2.80429e-19)
(0.970488 -1.08201 0)
(0.961537 -1.07181 0)
(0.952705 -1.06174 -1.8798e-19)
(0.943991 -1.05179 -3.76777e-19)
(0.935397 -1.04197 0)
(0.926922 -1.03228 1.89119e-19)
(0.918564 -1.02271 9.41092e-20)
(0.910325 -1.01327 1.88524e-19)
(0.902204 -1.00396 -2.85616e-19)
(0.894199 -0.994776 -1.90241e-19)
(0.88631 -0.985723 -1.90475e-19)
(0.878535 -0.976797 -1.90662e-19)
(0.870873 -0.968 0)
(0.863323 -0.959331 -3.82078e-19)
(0.855883 -0.950788 1.91226e-19)
(0.848551 -0.942371 0)
(0.841324 -0.934078 9.58072e-20)
(0.834201 -0.925909 0)
(0.827179 -0.91786 -9.60445e-20)
(0.820255 -0.90993 -9.61967e-20)
(1.96203 -2.20202 -1.28702e-18)
(1.94837 -2.18671 1.67192e-18)
(1.93461 -2.17129 -3.03168e-21)
(1.92075 -2.15575 3.93962e-19)
(1.90678 -2.1401 0)
(1.8927 -2.12432 -7.47375e-19)
(1.8785 -2.10841 -7.26177e-19)
(1.86418 -2.09238 -1.76184e-18)
(1.84975 -2.07621 3.43939e-19)
(1.83518 -2.0599 -1.32965e-18)
(1.82048 -2.04344 -1.61143e-18)
(1.80565 -2.02683 -9.37357e-19)
(1.79068 -2.01007 0)
(1.77556 -1.99315 -2.92759e-19)
(1.76029 -1.97606 1.71126e-18)
(1.74487 -1.9588 -2.77819e-19)
(1.72929 -1.94137 1.07084e-18)
(1.71355 -1.92375 0)
(1.69763 -1.90594 2.23315e-23)
(1.68154 -1.88794 -9.71882e-19)
(1.66526 -1.86973 9.40495e-19)
(1.6488 -1.85131 -9.09905e-19)
(1.63214 -1.83268 8.80111e-19)
(1.61528 -1.81382 -8.51131e-19)
(1.59822 -1.79472 0)
(1.58093 -1.77539 0)
(1.56342 -1.7558 5.78021e-19)
(1.54567 -1.73594 1.87039e-19)
(1.52784 -1.71599 0)
(1.51022 -1.69628 -7.22325e-19)
(1.49297 -1.67697 0)
(1.47605 -1.65804 7.13439e-19)
(1.45948 -1.63948 -1.7609e-19)
(1.44322 -1.62128 -7.03809e-19)
(1.42728 -1.60342 3.51834e-19)
(1.41164 -1.5859 5.24658e-19)
(1.39628 -1.56869 0)
(1.38121 -1.5518 8.70729e-19)
(1.36642 -1.5352 -6.98938e-19)
(1.35188 -1.5189 -2.56704e-21)
(1.3376 -1.50287 6.92178e-19)
(1.32357 -1.48712 -6.96964e-19)
(1.30978 -1.47162 -3.47168e-19)
(1.29621 -1.45639 -5.19657e-19)
(1.28287 -1.44139 1.72485e-19)
(1.26975 -1.42664 -3.47834e-19)
(1.25684 -1.41211 -5.2116e-19)
(1.24412 -1.3978 -1.73167e-19)
(1.2316 -1.38371 1.57396e-18)
(1.21927 -1.36983 0)
(1.20713 -1.35615 3.5106e-19)
(1.19515 -1.34266 0)
(1.18335 -1.32935 3.52899e-19)
(1.17171 -1.31623 0)
(1.16024 -1.30328 0)
(1.14891 -1.2905 -5.3296e-19)
(1.13773 -1.27789 5.37205e-19)
(1.1267 -1.26543 8.90074e-20)
(1.11581 -1.25312 -1.24489e-21)
(1.10505 -1.24097 -4.51898e-19)
(1.09443 -1.22895 -3.62268e-19)
(1.08393 -1.21708 0)
(1.07357 -1.20535 2.75194e-23)
(1.06333 -1.19375 3.66128e-19)
(1.05321 -1.18228 9.12199e-20)
(1.04322 -1.17095 2.75858e-19)
(1.03334 -1.15974 0)
(1.02358 -1.14865 -2.78917e-19)
(1.01395 -1.13769 2.78537e-19)
(1.00443 -1.12686 -9.27024e-20)
(0.995028 -1.11615 9.42339e-20)
(0.985745 -1.10557 -9.44827e-20)
(0.976581 -1.09511 -9.47141e-20)
(0.967534 -1.08477 0)
(0.958606 -1.07456 0)
(0.949796 -1.06447 9.41025e-20)
(0.941104 -1.05451 1.88576e-19)
(0.932531 -1.04468 -1.24125e-21)
(0.924075 -1.03497 -1.91679e-19)
(0.915738 -1.02539 -1.23729e-21)
(0.907517 -1.01594 -1.90927e-19)
(0.899413 -1.00662 4.78453e-19)
(0.891426 -0.997422 1.91324e-19)
(0.883553 -0.988356 0)
(0.875794 -0.979418 1.91627e-19)
(0.868147 -0.970609 0)
(0.860611 -0.961926 1.29005e-23)
(0.853185 -0.95337 0)
(0.845866 -0.944939 9.54618e-20)
(0.838652 -0.936632 -1.20723e-21)
(0.831542 -0.928448 -9.6232e-20)
(0.824531 -0.920383 9.69412e-20)
(0.81762 -0.912438 1.92336e-19)
(1.95592 -2.20744 8.6397e-19)
(1.94231 -2.19209 -1.26024e-18)
(1.92859 -2.17663 4.10881e-19)
(1.91477 -2.16106 0)
(1.90084 -2.14536 0)
(1.8868 -2.12954 7.53435e-19)
(1.87265 -2.1136 0)
(1.85838 -2.09752 1.4234e-18)
(1.84398 -2.08131 1.38274e-18)
(1.82946 -2.06496 3.01991e-18)
(1.81481 -2.04846 -3.27424e-19)
(1.80002 -2.03181 0)
(1.7851 -2.01501 0)
(1.77003 -1.99804 1.19079e-18)
(1.75481 -1.98091 1.15465e-18)
(1.73944 -1.96361 2.7835e-19)
(1.7239 -1.94613 -1.35742e-18)
(1.70821 -1.92847 0)
(1.69234 -1.91062 2.1547e-23)
(1.6763 -1.89257 2.13852e-23)
(1.66008 -1.87431 -9.54259e-19)
(1.64367 -1.85585 2.29464e-19)
(1.62706 -1.83717 -1.11854e-18)
(1.61026 -1.81826 2.14696e-19)
(1.59324 -1.79912 -2.87179e-21)
(1.57601 -1.77974 -2.03586e-19)
(1.55855 -1.7601 -7.81824e-19)
(1.54086 -1.7402 -1.51066e-18)
(1.52309 -1.7202 -1.47953e-18)
(1.50553 -1.70043 0)
(1.48832 -1.68107 1.81103e-19)
(1.47147 -1.6621 -1.82785e-19)
(1.45494 -1.64349 0)
(1.43874 -1.62525 7.18446e-19)
(1.42285 -1.60735 -5.37956e-19)
(1.40725 -1.58978 -3.56487e-19)
(1.39195 -1.57253 3.55422e-19)
(1.37693 -1.5556 -8.87694e-19)
(1.36218 -1.53896 -7.07672e-19)
(1.34769 -1.52262 0)
(1.33346 -1.50656 -1.58687e-18)
(1.31947 -1.49077 1.77641e-19)
(1.30572 -1.47524 -1.75014e-19)
(1.2922 -1.45996 1.77608e-19)
(1.2789 -1.44493 -5.30489e-19)
(1.26582 -1.43014 -1.77825e-19)
(1.25294 -1.41558 1.23849e-18)
(1.24027 -1.40125 1.78263e-19)
(1.22779 -1.38712 -7.09168e-19)
(1.2155 -1.37321 0)
(1.20339 -1.35949 3.56e-19)
(1.19145 -1.34597 -3.56831e-19)
(1.17968 -1.33264 -3.57749e-19)
(1.16808 -1.31949 -1.78085e-19)
(1.15664 -1.30651 1.81115e-19)
(1.14534 -1.2937 3.60779e-19)
(1.1342 -1.28106 -1.82206e-19)
(1.1232 -1.26858 -5.45742e-19)
(1.11234 -1.25625 5.44956e-19)
(1.10161 -1.24407 1.81393e-19)
(1.09102 -1.23203 3.66532e-19)
(1.08056 -1.22013 1.82595e-19)
(1.07022 -1.20838 1.83208e-19)
(1.06001 -1.19676 -1.83784e-19)
(1.04992 -1.18527 -1.84359e-19)
(1.03995 -1.17391 0)
(1.03011 -1.16268 -9.27537e-20)
(1.02038 -1.15158 -2.80329e-19)
(1.01077 -1.1406 3.75671e-19)
(1.00127 -1.12975 -9.35436e-20)
(0.991899 -1.11903 1.90097e-19)
(0.982642 -1.10843 9.52708e-20)
(0.973503 -1.09795 -9.42263e-20)
(0.96448 -1.0876 1.25615e-21)
(0.955576 -1.07737 3.80937e-19)
(0.946789 -1.06727 -9.60285e-20)
(0.93812 -1.0573 0)
(0.929568 -1.04745 -9.50603e-20)
(0.921133 -1.03773 -9.51726e-20)
(0.912816 -1.02814 0)
(0.904615 -1.01867 1.91973e-19)
(0.89653 -1.00934 -1.92134e-19)
(0.88856 -1.00013 -9.55048e-20)
(0.880704 -0.991049 9.67887e-20)
(0.872962 -0.982098 1.92425e-19)
(0.865332 -0.973275 0)
(0.857812 -0.964578 1.92579e-19)
(0.8504 -0.956008 9.69258e-20)
(0.843096 -0.947562 6.08687e-22)
(0.835896 -0.93924 -6.03503e-22)
(0.8288 -0.93104 -2.89426e-19)
(0.821803 -0.92296 9.77626e-20)
(0.814905 -0.914997 9.7264e-20)
(1.94962 -2.213 -1.73681e-18)
(1.93604 -2.19761 0)
(1.92237 -2.18211 0)
(1.90859 -2.1665 7.98736e-19)
(1.89471 -2.15077 -7.83325e-19)
(1.88072 -2.13491 -3.81055e-19)
(1.86661 -2.11892 -7.38191e-19)
(1.85238 -2.10281 7.17671e-19)
(1.83804 -2.08655 -2.09252e-18)
(1.82356 -2.07016 -1.35234e-18)
(1.80896 -2.05362 6.5822e-19)
(1.79422 -2.03692 -3.21071e-19)
(1.77934 -2.02008 -1.24076e-18)
(1.76432 -2.00307 1.50351e-18)
(1.74915 -1.98589 -1.46153e-18)
(1.73383 -1.96855 1.41443e-18)
(1.71834 -1.95102 -2.7605e-19)
(1.7027 -1.93331 1.06446e-18)
(1.68688 -1.91542 1.03147e-18)
(1.67089 -1.89732 2.05235e-23)
(1.65472 -1.87902 0)
(1.63837 -1.86051 7.04213e-19)
(1.62182 -1.84178 -6.78773e-19)
(1.60506 -1.82283 0)
(1.5881 -1.80364 0)
(1.57093 -1.7842 2.03947e-19)
(1.55353 -1.76451 -2.00117e-19)
(1.5359 -1.74456 1.90592e-19)
(1.51818 -1.72451 1.12845e-18)
(1.50068 -1.7047 1.88223e-19)
(1.48353 -1.68529 0)
(1.46673 -1.66627 0)
(1.45026 -1.64761 -5.51703e-19)
(1.43411 -1.62932 -1.83939e-19)
(1.41827 -1.61138 9.07634e-19)
(1.40273 -1.59377 -3.62267e-19)
(1.38748 -1.57648 -7.19574e-19)
(1.3725 -1.5595 1.08058e-18)
(1.3578 -1.54283 1.25668e-18)
(1.34336 -1.52644 0)
(1.32918 -1.51034 7.16799e-19)
(1.31523 -1.49451 -7.16186e-19)
(1.30153 -1.47894 -1.77665e-19)
(1.28805 -1.46363 1.80267e-19)
(1.2748 -1.44857 7.1608e-19)
(1.26176 -1.43374 0)
(1.24892 -1.41915 -8.95177e-19)
(1.23629 -1.40478 1.07702e-18)
(1.22385 -1.39062 -1.81054e-19)
(1.2116 -1.37667 1.8135e-19)
(1.19952 -1.36293 -7.19106e-19)
(1.18763 -1.34938 5.43687e-19)
(1.17589 -1.33601 1.79932e-19)
(1.16433 -1.32283 -1.82933e-19)
(1.15292 -1.30983 1.80846e-19)
(1.14166 -1.29699 -1.83892e-19)
(1.13055 -1.28432 0)
(1.11958 -1.27181 3.67315e-19)
(1.10875 -1.25945 -3.6839e-19)
(1.09806 -1.24724 -2.47525e-23)
(1.0875 -1.23518 -3.70559e-19)
(1.07706 -1.22327 0)
(1.06676 -1.21149 -1.85114e-19)
(1.05658 -1.19984 3.73867e-19)
(1.04652 -1.18833 3.74948e-19)
(1.03658 -1.17695 3.75992e-19)
(1.02676 -1.1657 -1.89779e-19)
(1.01706 -1.15458 3.78019e-19)
(1.00748 -1.14359 -5.697e-19)
(0.998014 -1.13272 -1.27598e-21)
(0.988666 -1.12197 0)
(0.979435 -1.11136 1.90742e-19)
(0.970321 -1.10086 -1.9111e-19)
(0.961324 -1.09049 1.91447e-19)
(0.952444 -1.08025 -3.83518e-19)
(0.943681 -1.07014 -2.87407e-19)
(0.935034 -1.06015 9.67628e-20)
(0.926505 -1.05029 1.92466e-19)
(0.918092 -1.04055 1.92652e-19)
(0.909796 -1.03095 0)
(0.901615 -1.02147 -9.70794e-20)
(0.89355 -1.01212 -1.92977e-19)
(0.885599 -1.0029 9.71382e-20)
(0.877762 -0.993802 0)
(0.870038 -0.984837 -3.86203e-19)
(0.862425 -0.975999 1.93111e-19)
(0.854921 -0.967288 9.59509e-20)
(0.847526 -0.958702 -1.94369e-19)
(0.840238 -0.950241 -6.04819e-22)
(0.833054 -0.941903 1.93218e-19)
(0.825973 -0.933687 0)
(0.818992 -0.92559 -9.67056e-20)
(0.81211 -0.91761 9.61912e-20)
(1.94311 -2.21871 8.72306e-19)
(1.92958 -2.20328 8.46983e-19)
(1.91595 -2.18774 -8.31238e-19)
(1.90222 -2.17209 8.03452e-19)
(1.88839 -2.15631 -7.88321e-19)
(1.87444 -2.14041 1.52544e-18)
(1.86038 -2.12438 -3.07941e-21)
(1.8462 -2.10822 1.44652e-18)
(1.8319 -2.09193 7.00189e-19)
(1.81747 -2.07549 -4.57339e-24)
(1.80292 -2.05891 4.58642e-24)
(1.78823 -2.04217 9.63337e-19)
(1.7734 -2.02528 9.3846e-19)
(1.75843 -2.00823 -2.13079e-18)
(1.74331 -1.99101 -1.47758e-18)
(1.72803 -1.97361 -1.14573e-18)
(1.7126 -1.95604 0)
(1.69701 -1.93829 -1.34549e-18)
(1.68125 -1.92034 3.00396e-21)
(1.66531 -1.9022 2.27933e-18)
(1.6492 -1.88385 0)
(1.6329 -1.86529 -2.36033e-19)
(1.6164 -1.84652 2.31523e-19)
(1.59971 -1.82751 -2.21211e-19)
(1.5828 -1.80827 2.96151e-21)
(1.56569 -1.78879 2.10084e-19)
(1.54835 -1.76905 -8.07353e-19)
(1.53077 -1.74904 1.56111e-18)
(1.51312 -1.72894 -1.89706e-19)
(1.49567 -1.70907 1.91312e-19)
(1.47859 -1.68961 9.41456e-19)
(1.46184 -1.67054 -9.38542e-19)
(1.44543 -1.65184 1.49117e-18)
(1.42933 -1.63351 -7.41924e-19)
(1.41355 -1.61551 -9.22008e-19)
(1.39806 -1.59786 7.38678e-19)
(1.38286 -1.58053 1.10032e-18)
(1.36794 -1.56351 -9.15775e-19)
(1.35329 -1.54679 -7.29871e-19)
(1.33889 -1.53036 0)
(1.32476 -1.51422 0)
(1.31086 -1.49835 7.26812e-19)
(1.2972 -1.48275 -5.46085e-19)
(1.28377 -1.4674 -1.82869e-19)
(1.27056 -1.4523 -7.26248e-19)
(1.25756 -1.43744 -5.46226e-19)
(1.24477 -1.42281 -3.63543e-19)
(1.23218 -1.4084 -5.44571e-19)
(1.21978 -1.39421 0)
(1.20757 -1.38023 -1.83762e-19)
(1.19553 -1.36645 7.28435e-19)
(1.18367 -1.35287 -3.66203e-19)
(1.17198 -1.33947 1.84774e-19)
(1.16045 -1.32626 0)
(1.14908 -1.31323 -1.85597e-19)
(1.13785 -1.30036 -5.5557e-19)
(1.12678 -1.28766 0)
(1.11584 -1.27512 -5.55841e-19)
(1.10505 -1.26274 5.599e-19)
(1.09439 -1.25051 -3.7343e-19)
(1.08386 -1.23842 3.74439e-19)
(1.07346 -1.22648 -1.8643e-19)
(1.06318 -1.21467 1.89506e-19)
(1.05303 -1.203 -3.77421e-19)
(1.043 -1.19147 -7.56813e-19)
(1.0331 -1.18007 1.90949e-19)
(1.02331 -1.1688 1.91416e-19)
(1.01363 -1.15766 1.89288e-19)
(1.00408 -1.14664 1.89724e-19)
(0.994644 -1.13575 -1.45591e-23)
(0.985323 -1.12499 -1.91742e-19)
(0.97612 -1.11436 -1.92095e-19)
(0.967032 -1.10385 1.91133e-19)
(0.958061 -1.09346 -5.78016e-19)
(0.949206 -1.0832 7.71649e-19)
(0.940468 -1.07307 -3.86225e-19)
(0.931846 -1.06307 2.53108e-21)
(0.92334 -1.05319 -3.72619e-24)
(0.91495 -1.04344 -1.94803e-19)
(0.906675 -1.03382 9.61819e-20)
(0.898516 -1.02433 9.62022e-20)
(0.890471 -1.01496 9.62193e-20)
(0.882541 -1.00572 1.92435e-19)
(0.874723 -0.996616 -9.74513e-20)
(0.867018 -0.987636 1.93635e-19)
(0.859423 -0.978783 -3.8717e-19)
(0.851938 -0.970056 0)
(0.844561 -0.961455 1.93495e-19)
(0.83729 -0.952977 9.67346e-20)
(0.830124 -0.944623 -1.92865e-19)
(0.82306 -0.936389 9.67498e-20)
(0.816096 -0.928275 -9.6783e-20)
(0.809231 -0.920277 6.00699e-22)
(1.93639 -2.22457 -1.75438e-18)
(1.92291 -2.2091 0)
(1.90933 -2.19352 0)
(1.89564 -2.17782 -8.10782e-19)
(1.88185 -2.162 -7.89744e-19)
(1.86796 -2.14606 0)
(1.85394 -2.12999 -7.48579e-19)
(1.83981 -2.11379 -1.4569e-18)
(1.82556 -2.09744 -7.05538e-19)
(1.81119 -2.08096 -2.75037e-18)
(1.79668 -2.06433 2.01298e-18)
(1.78204 -2.04755 -2.60447e-18)
(1.76726 -2.03062 1.89472e-18)
(1.75234 -2.01352 1.84021e-18)
(1.73728 -1.99625 1.92931e-23)
(1.72206 -1.97881 0)
(1.70668 -1.96119 0)
(1.69114 -1.94339 0)
(1.67544 -1.9254 0)
(1.65956 -1.90721 -7.70403e-19)
(1.6435 -1.88881 -2.49934e-19)
(1.62725 -1.8702 0)
(1.61081 -1.85137 9.32876e-19)
(1.59418 -1.83232 2.24378e-19)
(1.57733 -1.81303 -2.20234e-19)
(1.56028 -1.79349 8.47037e-19)
(1.543 -1.77369 8.19894e-19)
(1.52549 -1.75364 -1.58584e-18)
(1.50789 -1.73348 1.92743e-19)
(1.49051 -1.71356 5.772e-19)
(1.47348 -1.69405 -1.96551e-23)
(1.45679 -1.67493 5.72585e-19)
(1.44044 -1.65618 3.78595e-19)
(1.4244 -1.6378 5.63669e-19)
(1.40867 -1.61976 7.50091e-19)
(1.39324 -1.60206 -9.32544e-19)
(1.37809 -1.58468 1.8754e-19)
(1.36322 -1.56762 0)
(1.34862 -1.55086 0)
(1.33428 -1.53439 0)
(1.32019 -1.51821 0)
(1.30635 -1.5023 9.20086e-19)
(1.29273 -1.48665 5.51108e-19)
(1.27935 -1.47127 9.18983e-19)
(1.26619 -1.45613 -1.85356e-19)
(1.25323 -1.44123 7.36382e-19)
(1.24049 -1.42656 0)
(1.22794 -1.41212 -1.83004e-19)
(1.21558 -1.3979 1.85839e-19)
(1.20341 -1.38388 1.83431e-19)
(1.19141 -1.37007 -5.56386e-19)
(1.17959 -1.35645 -3.70641e-19)
(1.16794 -1.34303 0)
(1.15644 -1.32978 -1.84714e-19)
(1.14511 -1.31672 5.60552e-19)
(1.13392 -1.30382 1.88138e-19)
(1.12288 -1.29109 5.63023e-19)
(1.11198 -1.27852 2.24187e-23)
(1.10122 -1.26611 -9.39335e-19)
(1.09059 -1.25385 5.67031e-19)
(1.0801 -1.24174 1.87735e-19)
(1.06973 -1.22977 -5.69761e-19)
(1.05949 -1.21794 1.88643e-19)
(1.04937 -1.20625 3.78191e-19)
(1.03937 -1.19469 1.64816e-23)
(1.02949 -1.18327 -1.67724e-23)
(1.01973 -1.17197 -1.02699e-23)
(1.01009 -1.16081 2.58455e-21)
(1.00057 -1.14977 3.86041e-19)
(0.991161 -1.13887 -1.9272e-19)
(0.981869 -1.12808 1.93026e-19)
(0.972693 -1.11743 0)
(0.963633 -1.1069 5.79335e-19)
(0.954688 -1.0965 -2.56042e-21)
(0.94586 -1.08622 -5.83068e-19)
(0.937147 -1.07607 -1.92784e-19)
(0.92855 -1.06605 1.95454e-19)
(0.920068 -1.05616 1.94268e-19)
(0.911702 -1.04639 1.93038e-19)
(0.90345 -1.03676 -1.96829e-19)
(0.895313 -1.02725 -3.89857e-19)
(0.887291 -1.01787 -1.94249e-19)
(0.879382 -1.00862 -1.21265e-23)
(0.871585 -0.999492 0)
(0.8639 -0.990496 -1.92771e-19)
(0.856325 -0.981627 3.89052e-19)
(0.84886 -0.972884 0)
(0.841502 -0.964266 -1.93715e-19)
(0.83425 -0.955772 -1.93632e-19)
(0.827103 -0.9474 -9.67878e-20)
(0.820058 -0.939149 1.92957e-19)
(0.813113 -0.931016 -1.94188e-19)
(0.806266 -0.922999 1.63731e-24)
(1.92946 -2.23058 3.11993e-21)
(1.91602 -2.21507 -8.50635e-19)
(1.90249 -2.19944 1.67112e-18)
(1.88885 -2.1837 8.1142e-19)
(1.87511 -2.16784 7.93781e-19)
(1.86126 -2.15185 -7.70179e-19)
(1.8473 -2.13574 -7.4687e-19)
(1.83322 -2.11949 7.3632e-19)
(1.81902 -2.1031 -1.4272e-18)
(1.8047 -2.08658 2.77719e-18)
(1.79024 -2.0699 2.02278e-18)
(1.77566 -2.05308 6.53516e-19)
(1.76093 -2.03609 6.35112e-19)
(1.74606 -2.01895 -1.86365e-18)
(1.73105 -2.00163 2.4098e-18)
(1.71589 -1.98414 -5.81954e-19)
(1.70057 -1.96648 5.71058e-19)
(1.68508 -1.94863 1.10247e-18)
(1.66943 -1.93058 -5.3176e-19)
(1.65361 -1.91234 5.21849e-19)
(1.63761 -1.89389 -1.00612e-18)
(1.62142 -1.87524 0)
(1.60504 -1.85636 7.10536e-19)
(1.58847 -1.83725 2.30528e-19)
(1.57168 -1.8179 -8.87364e-19)
(1.55469 -1.79831 -8.59447e-19)
(1.53747 -1.77847 8.32199e-19)
(1.52003 -1.75835 1.81006e-18)
(1.50249 -1.73814 -1.98758e-19)
(1.48518 -1.71817 1.94364e-19)
(1.46821 -1.69861 -9.74054e-19)
(1.45159 -1.67943 0)
(1.43529 -1.66064 -7.68705e-19)
(1.41931 -1.6422 9.54472e-19)
(1.40364 -1.62412 5.69484e-19)
(1.38826 -1.60637 0)
(1.37317 -1.58894 -1.87454e-19)
(1.35835 -1.57184 3.76572e-19)
(1.34381 -1.55503 -1.89189e-19)
(1.32952 -1.53852 5.63554e-19)
(1.31548 -1.5223 2.75395e-21)
(1.30168 -1.50635 -7.44541e-19)
(1.28812 -1.49066 3.7327e-19)
(1.27479 -1.47523 -9.33971e-19)
(1.26167 -1.46006 9.30986e-19)
(1.24876 -1.44512 -1.87816e-19)
(1.23606 -1.43042 1.85177e-19)
(1.22355 -1.41594 -1.87968e-19)
(1.21124 -1.40168 7.47094e-19)
(1.19911 -1.38763 -3.73929e-19)
(1.18716 -1.37378 -1.85865e-19)
(1.17538 -1.36013 5.63718e-19)
(1.16376 -1.34667 0)
(1.15231 -1.33339 -1.86748e-19)
(1.14101 -1.32029 1.89737e-19)