/*--------------------------------*- C++ -*----------------------------------*\
  =========                 |
  \\      /  F ield         | OpenFOAM: The Open Source CFD Toolbox
   \\    /   O peration     | Website:  https://openfoam.org
    \\  /    A nd           | Version:  10
     \\/     M anipulation  |
\*---------------------------------------------------------------------------*/
FoamFile
{
    format      ascii;
    class       volVectorField;
    location    "79000";
    object      U;
}
// * * * * * * * * * * * * * * * * * * * * * * * * * * * * * * * * * * * * * //

dimensions      [0 1 -1 0 0 0 0];

internalField   nonuniform List<vector> 
17969
(
(0.0986227 1.525 0)
(-0.0371153 1.56075 0)
(-0.0194697 1.58933 -4.09338e-18)
(-0.0152566 1.61999 5.2527e-18)
(-0.00935586 1.6559 -2.08314e-18)
(0.000980909 1.70236 -1.87382e-18)
(0.0178179 1.76663 1.65228e-18)
(0.0416247 1.85112 0)
(0.0709492 1.94978 7.32969e-20)
(0.1037 2.0531 0)
(0.137339 2.15201 0)
(0.169592 2.24013 0)
(0.198905 2.31438 0)
(0.223938 2.37364 -4.92938e-19)
(0.24461 2.41963 4.68304e-19)
(0.261422 2.45507 0)
(0.274732 2.48237 -3.64071e-19)
(0.28512 2.50374 3.34098e-19)
(0.293318 2.52093 -3.04071e-19)
(0.299863 2.53523 2.7899e-19)
(0.305199 2.54756 0)
(0.30967 2.55858 0)
(0.313529 2.56873 -2.66799e-20)
(0.316953 2.57827 0)
(0.320066 2.58737 0)
(0.322947 2.59612 1.6648e-19)
(0.325648 2.6046 -3.10169e-19)
(0.328199 2.61284 1.45087e-19)
(0.33062 2.62087 1.35063e-19)
(0.332922 2.62873 -1.67579e-20)
(0.335112 2.63644 -1.50639e-19)
(0.337195 2.64401 0)
(0.339172 2.65146 1.07571e-19)
(0.341043 2.65881 -2.31273e-19)
(0.342807 2.66606 7.48434e-22)
(0.344463 2.67324 1.87563e-19)
(0.346008 2.68034 -9.02366e-20)
(0.347439 2.6874 -1.07519e-19)
(0.348753 2.69441 6.25233e-20)
(0.349945 2.70138 0)
(0.351013 2.70834 1.92983e-20)
(0.351951 2.71528 1.86262e-20)
(0.352756 2.72222 1.42814e-19)
(0.353423 2.72918 -1.39564e-19)
(0.353948 2.73615 -1.3357e-19)
(0.354325 2.74315 -3.10903e-20)
(0.354552 2.7502 1.26808e-19)
(0.354621 2.7573 1.21408e-19)
(0.354529 2.76446 -1.57633e-21)
(0.35427 2.77169 -1.15786e-19)
(0.353839 2.779 -1.38797e-19)
(0.353229 2.78641 1.3636e-19)
(0.352436 2.79391 0)
(0.351454 2.80153 0)
(0.350274 2.80926 2.49092e-20)
(0.348892 2.81712 1.43936e-19)
(0.347301 2.82512 -9.45436e-20)
(0.345492 2.83326 0)
(0.343459 2.84156 0)
(0.341194 2.85001 4.17527e-20)
(0.338689 2.85863 -8.42267e-20)
(0.335935 2.86743 0)
(0.332925 2.8764 0)
(0.32965 2.88556 -3.81807e-20)
(0.326102 2.89491 -7.25816e-20)
(0.32227 2.90446 3.80318e-20)
(0.318148 2.91421 7.01564e-20)
(0.313726 2.92416 0)
(0.308997 2.93431 0)
(0.303951 2.94467 0)
(0.298582 2.95525 5.87534e-20)
(0.292883 2.96604 -4.28638e-21)
(0.286846 2.97704 -1.13826e-19)
(0.280467 2.98827 0)
(0.273836 2.99955 5.05927e-20)
(0.267152 3.0106 4.75126e-20)
(0.26053 3.02126 -4.4139e-20)
(0.253976 3.03158 0)
(0.247509 3.04157 0)
(0.241136 3.05121 0)
(0.234848 3.06045 0)
(0.228667 3.06931 0)
(0.222597 3.07779 5.34947e-20)
(0.216637 3.08594 -8.94369e-20)
(0.210783 3.09376 6.07083e-20)
(0.205029 3.10127 -1.08361e-20)
(0.199376 3.1085 0)
(0.193838 3.11552 0)
(0.188451 3.12245 0)
(0.183257 3.12948 -1.86404e-20)
(0.178255 3.13664 2.48091e-20)
(0.173381 3.14381 1.91427e-20)
(0.168598 3.15091 -1.89183e-20)
(0.163897 3.15792 1.38457e-20)
(0.159277 3.16483 -2.66711e-20)
(0.154734 3.17164 9.95446e-21)
(0.150267 3.17834 0)
(0.145871 3.18491 -4.75022e-21)
(0.141545 3.19134 4.68127e-21)
(0.137286 3.19761 2.4791e-22)
(0.0725287 1.53096 0)
(-0.0778682 1.56534 -1.83463e-17)
(-0.0574945 1.58051 9.88798e-18)
(-0.0560733 1.59865 1.85394e-19)
(-0.0544033 1.61957 8.58804e-18)
(-0.0508103 1.64473 -1.44856e-17)
(-0.0443499 1.67649 6.66872e-18)
(-0.0342238 1.71766 6.15328e-18)
(-0.0191567 1.77235 -5.83434e-18)
(0.0017956 1.84331 -5.26214e-18)
(0.0279999 1.92777 1.05288e-20)
(0.0581218 2.01955 3.7159e-18)
(0.0903689 2.11175 0)
(0.122686 2.19832 0)
(0.153339 2.2751 -2.32483e-18)
(0.181165 2.34024 2.04774e-18)
(0.205099 2.39313 0)
(0.225111 2.4352 -1.56823e-18)
(0.241652 2.46852 1.49164e-18)
(0.254945 2.49487 0)
(0.265487 2.51604 -1.22657e-18)
(0.273874 2.53339 1.06676e-18)
(0.280592 2.54798 3.26888e-20)
(0.286043 2.56062 0)
(0.290551 2.57191 8.89959e-19)
(0.294365 2.58227 -5.60409e-20)
(0.297674 2.59198 -1.52461e-18)
(0.300613 2.60122 7.0877e-19)
(0.303275 2.61011 -4.11521e-20)
(0.305722 2.61873 6.2982e-19)
(0.307993 2.62711 -5.39211e-19)
(0.310113 2.63531 0)
(0.312096 2.64335 4.41236e-19)
(0.313951 2.65126 -3.90305e-19)
(0.315684 2.65905 0)
(0.317297 2.66674 5.39303e-20)
(0.31879 2.67435 -5.13528e-20)
(0.320163 2.6819 -3.65004e-19)
(0.321413 2.6894 7.71194e-19)
(0.322538 2.69685 -4.81749e-20)
(0.323534 2.70427 -3.66875e-19)
(0.324397 2.71168 -3.90837e-19)
(0.325122 2.71908 6.36043e-19)
(0.325706 2.72649 -6.89711e-19)
(0.326142 2.73391 5.91168e-19)
(0.326426 2.74136 -2.51474e-19)
(0.326552 2.74884 2.74109e-19)
(0.326514 2.75638 -6.0026e-19)
(0.326307 2.76397 5.1611e-19)
(0.325923 2.77164 -4.99693e-19)
(0.325357 2.77938 2.13175e-19)
(0.324601 2.78721 -2.92154e-20)
(0.323649 2.79514 0)
(0.322492 2.80318 0)
(0.321124 2.81134 -2.66241e-20)
(0.319536 2.81963 -5.16431e-20)
(0.31772 2.82806 1.99247e-19)
(0.315666 2.83663 -2.95023e-19)
(0.313367 2.84535 -3.74582e-19)
(0.310812 2.85424 5.37164e-20)
(0.307991 2.8633 3.60081e-19)
(0.304894 2.87253 4.27628e-19)
(0.301512 2.88194 -4.22786e-19)
(0.297833 2.89154 4.03134e-20)
(0.293847 2.90134 0)
(0.289542 2.91133 3.85587e-20)
(0.284907 2.92152 2.8896e-19)
(0.279932 2.93192 -2.88717e-19)
(0.274606 2.94253 -1.37862e-19)
(0.268918 2.95334 -1.26237e-19)
(0.262858 2.96437 2.60159e-19)
(0.256417 2.9756 1.84372e-19)
(0.249585 2.98705 2.29987e-19)
(0.242354 2.99872 -2.31043e-19)
(0.234825 3.01044 -5.29836e-20)
(0.227226 3.02189 -4.97955e-20)
(0.219686 3.03293 4.63948e-20)
(0.212213 3.04362 8.69565e-20)
(0.204834 3.05397 2.35118e-19)
(0.197554 3.06395 -9.56217e-21)
(0.190361 3.07351 -1.43412e-19)
(0.18328 3.08267 -3.25878e-20)
(0.17632 3.09146 0)
(0.169478 3.09989 1.42151e-20)
(0.162755 3.10801 -1.25853e-20)
(0.156148 3.11583 1.15094e-20)
(0.149654 3.12336 0)
(0.143268 3.13065 0)
(0.137 3.13773 -1.2946e-19)
(0.130878 3.14474 5.24506e-21)
(0.12494 3.15184 1.09473e-19)
(0.119207 3.15914 0)
(0.113617 3.16651 0)
(0.108117 3.17381 6.05906e-20)
(0.102712 3.18101 -1.0827e-19)
(0.0973984 3.18812 5.37117e-20)
(0.0921744 3.19512 0)
(0.0870382 3.202 0)
(0.0819879 3.20875 -1.20763e-20)
(0.0770224 3.21534 6.90702e-21)
(0.0451909 1.53686 4.05715e-17)
(-0.11693 1.57333 -4.48718e-17)
(-0.0933835 1.57825 5.26238e-17)
(-0.093378 1.58891 -1.58293e-17)
(-0.093343 1.60198 3.25735e-19)
(-0.0923221 1.61758 0)
(-0.0901252 1.63685 2.34572e-19)
(-0.086331 1.66108 0)
(-0.0801917 1.69111 0)
(-0.0710692 1.72802 3.53634e-19)
(-0.0579908 1.77461 1.63713e-19)
(-0.0398611 1.83394 0)
(-0.016709 1.90565 0)
(0.0106877 1.98631 2.27106e-19)
(0.0410835 2.07084 -3.112e-18)
(0.0728883 2.15416 2.4332e-18)
(0.104366 2.23194 -2.17044e-18)
(0.134074 2.30112 2.02652e-18)
(0.16108 2.36039 -5.52565e-20)
(0.184433 2.40934 -1.66816e-18)
(0.204142 2.44911 1.34781e-18)
(0.220615 2.48131 1.66096e-19)
(0.234009 2.50733 7.73231e-20)
(0.244748 2.52863 0)
(0.253352 2.54635 0)
(0.260259 2.56137 1.05393e-18)
(0.265841 2.57441 -8.11452e-19)
(0.27041 2.58604 -1.07715e-19)
(0.274215 2.59667 -6.47056e-19)
(0.277448 2.60662 7.46248e-19)
(0.280254 2.61606 0)
(0.282737 2.62515 0)
(0.284966 2.63395 7.55192e-20)
(0.286987 2.64254 1.06113e-18)
(0.288829 2.65096 -2.13683e-18)
(0.29051 2.65924 9.48598e-19)
(0.292042 2.66741 5.93892e-20)
(0.293431 2.67549 -1.13193e-19)
(0.294679 2.68349 1.07562e-19)
(0.295788 2.69144 5.09328e-20)
(0.296757 2.69935 0)
(0.297582 2.70723 4.64669e-20)
(0.298262 2.7151 8.95426e-20)
(0.298791 2.72296 -5.96039e-19)
(0.299166 2.73084 7.22588e-21)
(0.299381 2.73874 7.15974e-19)
(0.29943 2.74668 0)
(0.299308 2.75466 -4.99197e-22)
(0.299006 2.76269 -1.42222e-19)
(0.298519 2.7708 0)
(0.297838 2.77898 6.58674e-20)
(0.296957 2.78725 -5.07448e-19)
(0.295867 2.79562 4.98304e-19)
(0.294558 2.80411 0)
(0.293023 2.81271 1.16281e-19)
(0.291251 2.82144 0)
(0.289234 2.83031 -1.09059e-19)
(0.286959 2.83933 -4.17457e-19)
(0.284417 2.8485 4.11617e-19)
(0.281597 2.85784 9.91333e-20)
(0.278486 2.86735 0)
(0.275072 2.87704 -4.57743e-19)
(0.271344 2.88692 9.85803e-19)
(0.267288 2.89699 -9.28201e-21)
(0.26289 2.90726 -1.78169e-19)
(0.258139 2.91773 -9.04157e-20)
(0.253019 2.92841 -6.26974e-19)
(0.247518 2.93929 1.02862e-20)
(0.241621 2.95038 5.89712e-19)
(0.235315 2.96169 1.74647e-21)
(0.228587 2.9732 0)
(0.221425 2.98493 3.80745e-19)
(0.213816 2.99686 1.02173e-19)
(0.205748 3.00901 -4.91513e-19)
(0.197335 3.0212 0)
(0.188827 3.0331 0)
(0.180372 3.04457 -1.0077e-19)
(0.171979 3.05565 2.66931e-19)
(0.163684 3.06638 -7.69747e-19)
(0.155489 3.07674 6.39443e-19)
(0.147381 3.08666 -3.8455e-19)
(0.139387 3.09617 -2.34964e-19)
(0.131517 3.10528 2.68578e-19)
(0.12377 3.11404 -2.60711e-19)
(0.116148 3.12247 4.4186e-19)
(0.108653 3.1306 -2.10674e-19)
(0.101282 3.13846 1.76468e-19)
(0.0940322 3.14608 -3.33854e-19)
(0.0868979 3.15346 1.45524e-20)
(0.0798841 3.16068 1.38226e-20)
(0.0730097 3.16783 1.37108e-19)
(0.0663046 3.17509 0)
(0.0598092 3.18257 7.89519e-20)
(0.0534645 3.19016 -1.44034e-19)
(0.0472137 3.19766 2.69721e-21)
(0.0410725 3.20507 6.95056e-21)
(0.0350395 3.21238 4.50158e-21)
(0.0291121 3.21957 5.31891e-21)
(0.0232887 3.22662 2.06077e-20)
(0.0175688 3.23353 6.53247e-22)
(0.0154229 1.54127 -1.31502e-18)
(-0.153805 1.57901 -1.02771e-16)
(-0.127772 1.58028 8.61057e-20)
(-0.128517 1.586 1.27576e-18)
(-0.129328 1.59457 2.5279e-17)
(-0.129589 1.60472 1.95147e-17)
(-0.129231 1.6169 -2.98072e-19)
(-0.12809 1.632 -1.59986e-17)
(-0.12587 1.65089 0)
(-0.122268 1.67408 1.31937e-17)
(-0.116696 1.70201 -1.19483e-17)
(-0.108546 1.7353 0)
(-0.0972029 1.77565 0)
(-0.0817246 1.82554 -2.7988e-19)
(-0.0615294 1.88623 2.53107e-19)
(-0.0370269 1.95639 2.23319e-19)
(-0.00895446 2.0328 6.03138e-18)
(0.0214889 2.11137 -5.42661e-18)
(0.0528745 2.18811 0)
(0.0836853 2.25966 1.28947e-19)
(0.11268 2.32355 3.97643e-18)
(0.139079 2.37873 -6.54189e-18)
(0.162008 2.4249 2.80457e-18)
(0.181532 2.46308 1.66427e-19)
(0.198035 2.49453 2.47156e-18)
(0.211595 2.52038 -2.32149e-18)
(0.22259 2.54185 -2.29618e-18)
(0.231474 2.55991 2.28754e-18)
(0.238638 2.57534 5.62341e-22)
(0.244427 2.58878 -1.77012e-18)
(0.249136 2.60079 1.66566e-18)
(0.253006 2.61176 0)
(0.256234 2.62201 0)
(0.258968 2.63175 -1.35523e-18)
(0.261322 2.64111 1.43919e-18)
(0.263371 2.6502 -1.19213e-18)
(0.265169 2.65908 1.1299e-18)
(0.266749 2.66781 -9.24091e-19)
(0.268135 2.67642 -1.16331e-19)
(0.269341 2.68493 8.4078e-21)
(0.270374 2.69338 1.79902e-18)
(0.271239 2.70178 -1.71017e-18)
(0.271937 2.71015 7.17047e-19)
(0.272469 2.7185 0)
(0.272831 2.72686 0)
(0.273019 2.73523 -8.86374e-20)
(0.27303 2.74363 -6.78136e-19)
(0.272858 2.75207 5.76209e-19)
(0.272495 2.76056 -4.68694e-19)
(0.271935 2.76912 7.61886e-19)
(0.27117 2.77776 7.25868e-19)
(0.270192 2.78648 -7.07746e-19)
(0.268992 2.79531 0)
(0.26756 2.80425 -3.88052e-19)
(0.265885 2.8133 5.11082e-19)
(0.263958 2.82249 0)
(0.261766 2.83183 1.1757e-19)
(0.259299 2.84131 1.13649e-19)
(0.256544 2.85095 -2.21837e-19)
(0.253487 2.86077 -1.06244e-19)
(0.250115 2.87076 2.07521e-19)
(0.246414 2.88094 7.89117e-19)
(0.24237 2.89131 -9.73862e-19)
(0.237967 2.90187 7.36547e-19)
(0.233189 2.91265 -1.08194e-18)
(0.228021 2.92362 7.07196e-19)
(0.222445 2.93482 -8.31477e-19)
(0.216446 2.94622 8.23582e-19)
(0.210007 2.95784 -1.55592e-19)
(0.203109 2.96967 -7.41694e-19)
(0.195738 2.98172 5.92775e-19)
(0.187876 2.99398 0)
(0.179509 3.00645 -1.33184e-19)
(0.170619 3.01913 0)
(0.16133 3.03184 0)
(0.151919 3.04423 0)
(0.142549 3.05616 5.23548e-19)
(0.133232 3.06767 -4.09903e-19)
(0.124013 3.07882 -1.86291e-19)
(0.114891 3.08959 -1.74321e-19)
(0.105852 3.09992 8.02416e-20)
(0.0969255 3.10981 -7.6492e-20)
(0.0881217 3.1193 -2.72114e-19)
(0.0794411 3.12841 2.71164e-19)
(0.0708872 3.13719 2.32056e-19)
(0.0624634 3.14567 -1.78869e-20)
(0.0541707 3.15387 -5.97761e-19)
(0.0460076 3.16183 3.2986e-20)
(0.0379704 3.16958 3.45454e-19)
(0.0300549 3.17713 -3.72554e-20)
(0.0222621 3.18455 1.68829e-20)
(0.0146029 3.19192 -2.10204e-19)
(0.00710141 3.19941 2.02443e-19)
(-0.0001943 3.20713 -1.0182e-20)
(-0.007334 3.21493 8.19639e-21)
(-0.0143688 3.22263 9.25173e-20)
(-0.0212687 3.23023 -1.70483e-19)
(-0.0280385 3.23771 8.0506e-20)
(-0.0346833 3.24507 3.70525e-20)
(-0.0412052 3.25228 -5.55241e-20)
(-0.0476058 3.25932 1.9657e-20)
(-0.0538855 3.26617 -1.31816e-21)
(-0.0600433 3.27279 -2.91713e-20)
(-0.0660765 3.27914 2.83992e-20)
(-0.0158366 1.54397 8.91097e-17)
(-0.188863 1.58157 0)
(-0.161381 1.58202 7.91344e-17)
(-0.162304 1.58576 6.83797e-19)
(-0.163525 1.59191 -6.14575e-17)
(-0.164409 1.59932 4.5594e-17)
(-0.165023 1.60783 -1.83815e-17)
(-0.165282 1.61783 0)
(-0.164993 1.62992 1.70045e-17)
(-0.16394 1.64475 -3.0922e-17)
(-0.161884 1.66289 1.37968e-17)
(-0.158568 1.6848 -4.0499e-19)
(-0.153613 1.71082 1.17142e-17)
(-0.146431 1.74122 -2.07083e-17)
(-0.136621 1.77696 9.00333e-18)
(-0.123475 1.8198 -5.32189e-19)
(-0.10615 1.8716 7.7972e-18)
(-0.0846046 1.93237 -6.605e-18)
(-0.0592462 2.00057 0)
(-0.0308076 2.07331 5.47111e-18)
(-0.00044432 2.1471 -5.4185e-18)
(0.0305394 2.21867 -2.64752e-19)
(0.060792 2.28528 0)
(0.0892462 2.34487 -4.15326e-19)
(0.115175 2.39662 0)
(0.137861 2.44048 2.5112e-18)
(0.157372 2.4773 1.42763e-19)
(0.174012 2.50806 -2.6276e-18)
(0.187843 2.53374 -1.36357e-19)
(0.199189 2.55538 0)
(0.208435 2.5738 0)
(0.215933 2.58967 0)
(0.221997 2.6036 -1.48829e-18)
(0.226905 2.61607 1.61066e-18)
(0.230891 2.6275 -1.88018e-19)
(0.234152 2.63818 1.41198e-18)
(0.236845 2.64833 -1.17058e-18)
(0.239087 2.65809 1.24854e-18)
(0.240964 2.66758 -1.18561e-18)
(0.242537 2.67686 0)
(0.243845 2.686 1.3105e-18)
(0.244916 2.69503 -9.99507e-19)
(0.245768 2.70399 7.0166e-19)
(0.246412 2.71291 -6.75142e-19)
(0.246852 2.7218 2.13584e-19)
(0.247093 2.73069 -2.03511e-19)
(0.247132 2.73959 0)
(0.246969 2.74852 -1.35528e-21)
(0.246597 2.7575 0)
(0.246012 2.76654 1.17946e-18)
(0.245206 2.77565 -1.47373e-18)
(0.244171 2.78485 1.55795e-19)
(0.242899 2.79415 -1.19408e-18)
(0.24138 2.80356 1.02281e-18)
(0.239601 2.8131 -1.38792e-19)
(0.237553 2.82277 0)
(0.235223 2.83258 0)
(0.232597 2.84255 -9.89919e-19)
(0.229661 2.85269 2.59273e-19)
(0.226402 2.863 9.40683e-19)
(0.222803 2.87349 6.65146e-19)
(0.218849 2.88418 -8.77783e-19)
(0.214523 2.89507 0)
(0.209806 2.90616 0)
(0.204682 2.91747 -1.94043e-19)
(0.19913 2.92899 0)
(0.193132 2.94073 -1.85045e-19)
(0.186667 2.95269 5.148e-19)
(0.179715 2.96487 -6.86934e-19)
(0.172255 2.97728 3.27263e-19)
(0.164266 2.9899 3.14932e-19)
(0.155728 3.00274 3.02765e-19)
(0.14662 3.0158 0)
(0.136923 3.02906 2.59153e-19)
(0.126766 3.04235 -2.73326e-19)
(0.116453 3.05528 4.79842e-19)
(0.106164 3.06771 -2.42633e-19)
(0.095917 3.0797 8.37131e-19)
(0.0857599 3.09131 -5.20581e-20)
(0.0756946 3.10254 1.38796e-19)
(0.0657042 3.11331 -7.27108e-19)
(0.0558176 3.12364 5.52833e-19)
(0.0460495 3.13354 -4.81845e-19)
(0.0364013 3.14307 0)
(0.0268768 3.15224 6.69598e-20)
(0.0174804 3.1611 4.67383e-19)
(0.00821459 3.16968 -9.37058e-20)
(-0.000919369 3.17802 -3.58585e-20)
(-0.00992195 3.18614 -3.81078e-19)
(-0.0187952 3.19407 -1.18366e-21)
(-0.0275414 3.20186 1.99623e-19)
(-0.0361608 3.20954 -2.64625e-19)
(-0.0446481 3.2172 2.00041e-19)
(-0.052972 3.22499 -2.04395e-19)
(-0.0610975 3.23295 1.37289e-19)
(-0.0690569 3.24092 -1.27071e-19)
(-0.0768824 3.24878 0)
(-0.0845464 3.25653 0)
(-0.0920614 3.26417 4.73697e-20)
(-0.0994353 3.27168 -4.10005e-20)
(-0.106671 3.27902 7.92465e-22)
(-0.113769 3.28618 -2.41906e-22)
(-0.120726 3.2931 -2.73529e-20)
(-0.12754 3.29975 2.65783e-20)
(-0.047363 1.54545 -4.06894e-18)
(-0.222616 1.58211 2.47794e-16)
(-0.19437 1.58286 -1.77603e-16)
(-0.195342 1.58573 5.32507e-17)
(-0.196729 1.59087 0)
(-0.197917 1.59697 0)
(-0.198997 1.60378 -1.24974e-18)
(-0.19995 1.61135 -1.75961e-17)
(-0.200699 1.61995 3.26853e-17)
(-0.20108 1.62998 -1.61655e-17)
(-0.200951 1.64193 0)
(-0.200106 1.6563 1.49904e-23)
(-0.198327 1.67361 -4.29111e-19)
(-0.195393 1.6943 0)
(-0.191043 1.71867 7.12266e-19)
(-0.184855 1.74684 6.35018e-19)
(-0.176332 1.77939 -5.63968e-19)
(-0.165112 1.81735 -5.10144e-19)
(-0.150457 1.86221 0)
(-0.131742 1.91508 0)
(-0.109175 1.97542 3.87384e-19)
(-0.0831647 2.04156 -6.93563e-22)
(-0.0544647 2.11088 3.05918e-19)
(-0.0241731 2.18039 -7.82483e-22)
(0.00649137 2.24736 0)
(0.0363212 2.30955 -2.14752e-19)
(0.0643873 2.36532 -5.73958e-19)
(0.0899878 2.41407 -1.73288e-19)
(0.11255 2.4559 0)
(0.132149 2.49153 0)
(0.148995 2.52173 -2.76108e-19)
(0.163144 2.54735 2.601e-19)
(0.174869 2.56925 1.46184e-18)
(0.184499 2.58811 -2.44204e-19)
(0.192347 2.60453 -2.30949e-19)
(0.198698 2.61905 -1.85758e-18)
(0.203812 2.63212 -1.54508e-18)
(0.207918 2.64413 1.83715e-18)
(0.211212 2.65536 -1.37549e-18)
(0.213857 2.66604 1.30887e-18)
(0.215977 2.67632 -3.06621e-19)
(0.217665 2.68631 0)
(0.218987 2.69611 2.4611e-18)
(0.219992 2.70577 -2.08922e-18)
(0.220709 2.71534 -2.45642e-19)
(0.221162 2.72485 2.3311e-19)
(0.221362 2.73435 2.23163e-19)
(0.221318 2.74384 -1.2595e-18)
(0.221031 2.75336 1.62354e-18)
(0.220501 2.76293 0)
(0.219725 2.77256 -3.69513e-19)
(0.218698 2.78227 0)
(0.217411 2.79207 0)
(0.215856 2.80198 -3.25002e-19)
(0.214023 2.81202 0)
(0.2119 2.82219 -2.9983e-19)
(0.209474 2.83251 2.88324e-19)
(0.206732 2.84299 -1.09383e-18)
(0.203658 2.85364 1.34054e-18)
(0.200237 2.86448 1.01305e-18)
(0.196451 2.8755 -1.24492e-18)
(0.192283 2.88673 4.77876e-19)
(0.187713 2.89816 4.44132e-19)
(0.182722 2.90981 -8.94227e-19)
(0.177289 2.92168 8.39278e-19)
(0.171391 2.93377 -8.31882e-19)
(0.165006 2.9461 3.92573e-19)
(0.15811 2.95866 7.48407e-19)
(0.150679 2.97145 -7.45298e-19)
(0.142687 2.98447 -3.49951e-19)
(0.134109 2.99772 -6.7765e-19)
(0.124918 3.0112 3.13662e-19)
(0.11509 3.0249 8.95306e-19)
(0.104599 3.03881 -3.25228e-19)
(0.0935819 3.05272 8.20854e-19)
(0.082367 3.06625 -1.09813e-18)
(0.0711518 3.07925 4.53802e-21)
(0.059962 3.09176 -6.74994e-19)
(0.0488471 3.10386 1.11386e-18)
(0.0378158 3.11559 0)
(0.0268515 3.12686 0)
(0.0159741 3.13767 1.78547e-19)
(0.00520549 3.14805 -8.18498e-19)
(-0.00545169 3.15804 6.50878e-19)
(-0.0159934 3.16766 4.88254e-19)
(-0.0264141 3.17696 -4.21515e-19)
(-0.0367097 3.18596 4.06795e-19)
(-0.0468773 3.19471 -4.09294e-19)
(-0.0569141 3.20324 -5.10798e-20)
(-0.0668181 3.21158 4.43302e-20)
(-0.0765865 3.21976 3.91709e-20)
(-0.0862155 3.22782 0)
(-0.0957047 3.23579 0)
(-0.105056 3.24378 2.46988e-20)
(-0.114197 3.25188 2.14024e-20)
(-0.123134 3.26002 1.25418e-19)
(-0.131916 3.2681 -2.37511e-20)
(-0.140522 3.2761 -1.08781e-19)
(-0.148961 3.28401 5.20076e-20)
(-0.157245 3.29181 -5.32724e-20)
(-0.16538 3.29946 -1.0452e-20)
(-0.173363 3.30693 1.01181e-20)
(-0.181189 3.31416 -2.41342e-20)
(-0.188851 3.32111 -1.61619e-20)
(-0.0784382 1.54607 -9.0053e-17)
(-0.255315 1.58143 1.30347e-16)
(-0.226591 1.58278 -1.92712e-16)
(-0.227565 1.58521 6.04374e-17)
(-0.229021 1.58984 1.20549e-18)
(-0.230344 1.59534 -2.70531e-17)
(-0.231644 1.6014 4.2673e-17)
(-0.232926 1.60794 -1.77472e-17)
(-0.234146 1.61504 1.65453e-17)
(-0.235255 1.62284 -1.5385e-17)
(-0.236159 1.63159 0)
(-0.236734 1.64164 4.70569e-19)
(-0.236834 1.6534 -1.52617e-17)
(-0.236281 1.66732 1.42329e-17)
(-0.234867 1.68388 -8.30208e-19)
(-0.232394 1.7035 -1.22237e-17)
(-0.228633 1.7265 1.18691e-17)
(-0.223308 1.75301 1.067e-17)
(-0.215966 1.78317 -2.34516e-20)
(-0.206268 1.81767 -8.01291e-18)
(-0.193747 1.85756 -4.54344e-19)
(-0.177713 1.90395 4.18247e-19)
(-0.157862 1.95719 -1.14828e-18)
(-0.134437 2.01657 -3.46333e-19)
(-0.107888 2.08039 -5.55299e-18)
(-0.0790021 2.14629 4.96438e-18)
(-0.048816 2.21175 -1.55357e-21)
(-0.0184664 2.27451 4.37338e-19)
(0.0109645 2.33272 -3.93754e-19)
(0.0386733 2.38512 3.54834e-19)
(0.0639537 2.43127 2.88411e-18)
(0.0863897 2.4714 -2.67299e-18)
(0.106079 2.50605 2.76694e-19)
(0.123118 2.53583 -1.39314e-21)
(0.137561 2.56153 2.46338e-19)
(0.149636 2.5838 2.33018e-19)
(0.159624 2.60321 -3.74619e-18)
(0.167799 2.62028 2.87599e-20)
(0.174417 2.63548 3.58208e-18)
(0.179719 2.64924 0)
(0.183929 2.66193 0)
(0.187243 2.67382 0)
(0.189824 2.68514 -2.85201e-18)
(0.1918 2.69605 2.42365e-18)
(0.19327 2.70667 0)
(0.194307 2.7171 0)
(0.194963 2.7274 -2.29675e-18)
(0.195275 2.73763 1.71782e-18)
(0.195265 2.74782 1.84141e-18)
(0.194951 2.75802 -1.77431e-18)
(0.194338 2.76825 4.18212e-19)
(0.193431 2.77854 0)
(0.192228 2.7889 0)
(0.190725 2.79937 7.31137e-19)
(0.188914 2.80995 1.38782e-18)
(0.186785 2.82066 -1.01774e-18)
(0.184328 2.83153 -3.19607e-19)
(0.181528 2.84255 0)
(0.178371 2.85375 -1.46592e-18)
(0.17484 2.86513 2.32592e-20)
(0.170917 2.87672 1.37584e-18)
(0.166583 2.88851 -1.05059e-18)
(0.161816 2.90052 5.02323e-19)
(0.156596 2.91275 0)
(0.150897 2.92522 0)
(0.144696 2.93793 4.34094e-19)
(0.137966 2.95088 -2.63053e-20)
(0.130679 2.96408 -2.69501e-20)
(0.122806 2.97752 -4.11211e-19)
(0.114318 2.99121 0)
(0.105182 3.00514 7.39099e-19)
(0.0953671 3.01931 7.14762e-19)
(0.0848411 3.03371 -1.02246e-18)
(0.0735725 3.04833 -6.42925e-19)
(0.0617037 3.06294 0)
(0.0495855 3.07715 -1.72004e-18)
(0.0374331 3.09076 1.4068e-18)
(0.0252814 3.10384 4.99305e-21)
(0.0131753 3.11648 -2.41181e-19)
(0.00114901 3.12875 2.25434e-19)
(-0.0108106 3.14058 2.12374e-19)
(-0.022713 3.15194 0)
(-0.0345258 3.16286 0)
(-0.0462424 3.17336 0)
(-0.0578577 3.18349 -6.16922e-19)
(-0.0693645 3.19328 -9.99952e-20)
(-0.0807566 3.20277 1.21735e-18)
(-0.0920279 3.21199 -5.75229e-19)
(-0.103171 3.22097 -3.70024e-19)
(-0.114177 3.22974 4.17565e-19)
(-0.125035 3.23834 0)
(-0.135732 3.24678 2.90472e-19)
(-0.146262 3.25511 -2.81453e-19)
(-0.15664 3.26336 0)
(-0.166793 3.27164 -4.67902e-20)
(-0.176731 3.27995 -1.4119e-19)
(-0.186512 3.28823 1.38397e-19)
(-0.196115 3.29648 -8.69258e-20)
(-0.205549 3.30468 8.42101e-20)
(-0.214826 3.31279 0)
(-0.223947 3.32077 -1.96736e-20)
(-0.232903 3.32857 1.55805e-20)
(-0.241685 3.33612 2.05307e-20)
(-0.250278 3.34336 -5.82642e-20)
(-0.258664 3.35023 3.99403e-20)
(-0.108789 1.54599 2.86842e-18)
(-0.287045 1.57979 0)
(-0.257924 1.58179 -9.74143e-17)
(-0.25886 1.58394 6.50636e-17)
(-0.260333 1.58828 -1.03768e-22)
(-0.26171 1.59348 -9.08709e-19)
(-0.263104 1.59917 0)
(-0.26453 1.60526 -1.76127e-17)
(-0.265964 1.61173 1.63736e-17)
(-0.267383 1.61863 0)
(-0.268751 1.62603 8.76579e-19)
(-0.270023 1.63409 0)
(-0.271116 1.64303 8.62335e-23)
(-0.271913 1.65313 -1.4033e-17)
(-0.272273 1.66475 2.79305e-17)
(-0.272052 1.67831 -1.36052e-17)
(-0.271032 1.69425 1.28478e-17)
(-0.269017 1.71297 -2.53972e-17)
(-0.265826 1.7348 1.09832e-17)
(-0.261222 1.75993 6.23985e-19)
(-0.254911 1.78835 -5.5576e-19)
(-0.246451 1.8204 -6.91012e-18)
(-0.235618 1.85669 7.99492e-18)
(-0.221889 1.89808 8.12138e-19)
(-0.204627 1.94535 7.49223e-19)
(-0.183818 1.99837 -6.85336e-19)
(-0.159724 2.05634 6.18811e-19)
(-0.13283 2.11763 0)
(-0.103928 2.18018 -1.49288e-21)
(-0.0739916 2.24185 1.54466e-21)
(-0.0440759 2.30078 -4.03018e-19)
(-0.0151427 2.35542 0)
(0.01213 2.40484 0)
(0.0370007 2.44874 5.09806e-18)
(0.059235 2.48742 -3.93193e-18)
(0.0789674 2.52127 0)
(0.0961405 2.5508 -3.96756e-18)
(0.110823 2.57667 6.60057e-18)
(0.123207 2.59937 -4.0366e-18)
(0.133522 2.61939 0)
(0.141995 2.63716 -3.61114e-18)
(0.148855 2.65312 3.07117e-18)
(0.154329 2.66767 7.25507e-19)
(0.15863 2.68114 -3.0836e-18)
(0.161948 2.69381 2.29897e-18)
(0.164445 2.7059 0)
(0.166251 2.71757 2.34169e-18)
(0.167468 2.72895 -2.81015e-18)
(0.168173 2.74015 2.11158e-18)
(0.168424 2.75123 -1.52518e-18)
(0.168259 2.76226 -2.39085e-18)
(0.167706 2.77328 1.84153e-18)
(0.166781 2.78433 -4.37657e-19)
(0.165492 2.79545 1.23585e-18)
(0.163843 2.80666 -2.49782e-20)
(0.16183 2.81799 -1.52807e-18)
(0.159447 2.82946 0)
(0.156684 2.84108 -2.07105e-18)
(0.153528 2.85287 1.98835e-18)
(0.149964 2.86485 -1.28539e-18)
(0.145975 2.87703 0)
(0.14154 2.88943 5.8206e-19)
(0.136639 2.90206 1.67551e-18)
(0.131247 2.91492 5.15775e-19)
(0.12534 2.92802 -2.74837e-20)
(0.118888 2.94138 -5.14652e-19)
(0.111863 2.955 1.88264e-18)
(0.104233 2.96888 -1.8647e-18)
(0.0959643 2.98303 -8.81288e-19)
(0.0870216 2.99743 1.66027e-18)
(0.0773672 3.0121 -1.23859e-18)
(0.0669625 3.02703 -1.55486e-18)
(0.0557681 3.04219 2.19252e-18)
(0.0437441 3.0576 -7.37528e-19)
(0.0310363 3.07299 0)
(0.0180162 3.08794 -6.08755e-19)
(0.00491452 3.10226 6.38221e-19)
(-0.00822331 3.11599 -1.94396e-18)
(-0.0213643 3.1292 1.34117e-18)
(-0.0344284 3.14202 -4.8905e-19)
(-0.0474262 3.15447 -1.11797e-18)
(-0.0603999 3.16644 5.61264e-20)
(-0.0733107 3.17796 5.46969e-20)
(-0.0861459 3.18906 7.85087e-19)
(-0.0988995 3.19977 8.57128e-19)
(-0.111563 3.21012 -4.98328e-20)
(-0.124125 3.22016 -4.69292e-19)
(-0.136573 3.2299 1.37873e-19)
(-0.14889 3.23938 -4.68318e-19)
(-0.161053 3.24861 5.70796e-19)
(-0.173043 3.25762 0)
(-0.184838 3.26643 3.19966e-19)
(-0.196436 3.27508 -5.46501e-19)
(-0.207846 3.28363 2.64126e-19)
(-0.219018 3.29213 2.18193e-19)
(-0.230016 3.30066 -1.88171e-19)
(-0.24088 3.30921 1.82609e-20)
(-0.251576 3.31778 -8.52312e-20)
(-0.262116 3.32632 8.54442e-20)
(-0.2725 3.33478 7.6474e-21)
(-0.282719 3.34312 3.84488e-21)
(-0.292755 3.35126 0)
(-0.30259 3.35913 7.00453e-22)
(-0.312199 3.36665 -1.82634e-21)
(-0.321559 3.37374 -2.8296e-21)
(-0.330646 3.38034 1.23965e-19)
(-0.339436 3.38639 -1.30086e-19)
(-0.138361 1.54525 -9.34981e-17)
(-0.317818 1.57724 0)
(-0.288299 1.5798 1.09002e-16)
(-0.28916 1.58173 -6.91543e-17)
(-0.290611 1.58588 -1.39381e-18)
(-0.291992 1.59091 1.93923e-18)
(-0.293413 1.59642 2.34295e-17)
(-0.294891 1.60229 -1.95432e-17)
(-0.296409 1.60849 -1.00736e-18)
(-0.297955 1.61502 -1.52152e-17)
(-0.299515 1.6219 1.32661e-17)
(-0.30107 1.62917 7.95065e-19)
(-0.30259 1.63692 7.45268e-23)
(-0.304027 1.64529 7.98556e-19)
(-0.305329 1.65447 8.11583e-19)
(-0.306348 1.66468 1.31202e-17)
(-0.306998 1.67625 -2.91768e-20)
(-0.307112 1.68956 -1.21823e-17)
(-0.306487 1.705 0)
(-0.304948 1.72297 -7.29058e-19)
(-0.302295 1.74381 -9.42492e-18)
(-0.298336 1.76776 8.64935e-18)
(-0.292857 1.79484 8.86093e-18)
(-0.285531 1.82504 -7.92551e-18)
(-0.275993 1.85878 0)
(-0.264071 1.8966 7.92493e-19)
(-0.249248 1.93909 0)
(-0.230995 1.98671 6.73386e-19)
(-0.209469 2.03907 1.22957e-18)
(-0.184961 2.09533 -5.57133e-19)
(-0.157984 2.15402 5.03023e-19)
(-0.129307 2.21332 -9.09706e-19)
(-0.0998383 2.27145 8.20738e-19)
(-0.0705494 2.32687 -6.65006e-18)
(-0.0422606 2.37825 5.39959e-18)
(-0.0156214 2.42496 0)
(0.00874318 2.4669 4.5139e-18)
(0.0307418 2.5043 -3.2001e-18)
(0.0504271 2.53745 0)
(0.0676722 2.56686 0)
(0.0825425 2.59296 4.49163e-19)
(0.0951905 2.61615 0)
(0.10579 2.63682 -4.05732e-19)
(0.114529 2.65536 0)
(0.121607 2.67218 -2.56538e-18)
(0.127233 2.68762 2.81843e-18)
(0.131605 2.702 -6.69409e-19)
(0.134905 2.71559 6.31933e-19)
(0.137289 2.72859 0)
(0.138888 2.74118 -5.7186e-19)
(0.139804 2.75348 5.44152e-19)
(0.140117 2.76561 5.22473e-19)
(0.139887 2.77765 -4.42337e-21)
(0.139156 2.78965 0)
(0.137952 2.80168 1.33403e-18)
(0.136292 2.81377 -2.78763e-20)
(0.134185 2.82596 -1.65338e-18)
(0.131631 2.83828 7.79075e-19)
(0.128626 2.85076 -7.3824e-19)
(0.125161 2.86341 7.25996e-19)
(0.121221 2.87626 -1.35579e-18)
(0.116789 2.88933 1.96382e-18)
(0.111847 2.90262 -1.89587e-18)
(0.106371 2.91616 -1.78778e-18)
(0.100334 2.92995 1.16931e-18)
(0.0937055 2.94401 -5.57093e-19)
(0.0864534 2.95835 -2.09069e-18)
(0.0785442 2.97296 1.04165e-18)
(0.0699401 2.98786 -4.50859e-19)
(0.0605993 3.00305 2.84387e-18)
(0.0504777 3.01852 1.42617e-20)
(0.0395291 3.03426 -1.41722e-20)
(0.0277056 3.05027 -1.60103e-18)
(0.0149578 3.06654 1.55845e-18)
(0.00143281 3.0828 -2.26501e-18)
(-0.01248 3.0986 -1.36404e-18)
(-0.0265362 3.11371 2.0226e-18)
(-0.0406861 3.12818 -1.21988e-18)
(-0.0548903 3.14206 2.91425e-18)
(-0.0690843 3.15547 -8.44923e-19)
(-0.0832289 3.16853 9.77662e-19)
(-0.0973341 3.18119 -9.77354e-19)
(-0.111401 3.19339 -1.08403e-18)
(-0.125415 3.20514 6.48396e-19)
(-0.139373 3.2165 5.52986e-19)
(-0.15326 3.22748 -9.19455e-19)
(-0.167054 3.23813 -1.60934e-19)
(-0.180728 3.24844 2.71958e-19)
(-0.194248 3.25844 -1.20709e-18)
(-0.207583 3.26813 5.04757e-19)
(-0.220709 3.27753 1.07656e-19)
(-0.233617 3.28668 0)
(-0.246328 3.29564 -3.91579e-20)
(-0.258817 3.30451 2.55544e-19)
(-0.271138 3.31336 -2.789e-19)
(-0.283364 3.32225 -1.54367e-19)
(-0.295449 3.3312 3.21866e-19)
(-0.307388 3.34016 -1.41744e-19)
(-0.319176 3.3491 9.49711e-20)
(-0.330798 3.35796 -8.90282e-20)
(-0.34223 3.36667 -6.01371e-20)
(-0.353447 3.37514 4.19346e-20)
(-0.364419 3.3833 -1.57038e-20)
(-0.375112 3.39104 2.74932e-20)
(-0.385496 3.39829 0)
(-0.395539 3.40497 3.62161e-21)
(-0.405217 3.41102 0)
(-0.414507 3.4164 -5.12853e-21)
(-0.167164 1.54388 9.51002e-17)
(-0.347618 1.57377 -2.95117e-16)
(-0.317669 1.57677 -3.29928e-18)
(-0.318438 1.5785 7.27145e-17)
(-0.319839 1.5825 0)
(-0.321194 1.58743 -1.02652e-18)
(-0.322605 1.59284 -2.47246e-17)
(-0.324089 1.5986 3.15688e-20)
(-0.325628 1.60468 1.5631e-17)
(-0.327213 1.61105 9.08442e-19)
(-0.328839 1.61771 1.22672e-17)
(-0.330499 1.62469 -2.2323e-20)
(-0.332183 1.632 -2.25013e-17)
(-0.333874 1.63969 1.00029e-17)
(-0.335545 1.64785 -1.15025e-17)
(-0.337153 1.65658 1.17878e-17)
(-0.338643 1.66606 0)
(-0.339911 1.67647 -1.53701e-18)
(-0.340853 1.6881 1.55676e-18)
(-0.341299 1.70127 -1.54622e-18)
(-0.341106 1.71636 2.39087e-17)
(-0.340043 1.73374 -2.27477e-17)
(-0.337932 1.75375 0)
(-0.334595 1.77664 0)
(-0.329841 1.80256 1.11074e-18)
(-0.323466 1.83146 0)
(-0.315148 1.86332 8.87434e-19)
(-0.30461 1.89857 1.18278e-17)
(-0.291685 1.93763 -1.28669e-17)
(-0.275923 1.98088 1.31359e-18)
(-0.256956 2.02843 1.21039e-18)
(-0.234988 2.07979 9.93511e-18)
(-0.210359 2.13416 -9.08517e-18)
(-0.1836 2.19021 9.12358e-19)
(-0.155433 2.24635 -7.43392e-18)
(-0.126703 2.3011 6.02988e-18)
(-0.0982711 2.35314 0)
(-0.0708006 2.40147 4.34868e-18)
(-0.0450174 2.44571 -4.60589e-18)
(-0.0212585 2.48589 -5.36777e-19)
(0.000472863 2.52215 0)
(0.0199962 2.55478 0)
(0.0372378 2.58414 2.70117e-18)
(0.0522394 2.61053 -3.46431e-18)
(0.0650915 2.63425 -8.2337e-19)
(0.0759149 2.65564 -7.84425e-19)
(0.0848622 2.67506 7.42101e-19)
(0.0921108 2.69285 2.11157e-18)