/*--------------------------------*- C++ -*----------------------------------*\
  =========                 |
  \\      /  F ield         | OpenFOAM: The Open Source CFD Toolbox
   \\    /   O peration     | Website:  https://openfoam.org
    \\  /    A nd           | Version:  10
     \\/     M anipulation  |
\*---------------------------------------------------------------------------*/
FoamFile
{
    format      ascii;
    class       volScalarField;
    location    "79000";
    object      yPlus;
}
// * * * * * * * * * * * * * * * * * * * * * * * * * * * * * * * * * * * * * //

dimensions      [0 0 0 0 0 0 0];

internalField   uniform 0;

boundaryField
{
    right
    {
        type            cyclic;
    }
    left
    {
        type            cyclic;
    }
    outerWall
    {
        type            calculated;
        value           nonuniform List<scalar> 0();
    }
    stirrerWall
    {
        type            calculated;
        value           nonuniform List<scalar> 
398
(
0.62721
0.4225
0.266776
0.183435
0.146864
0.130801
0.122737
0.118156
0.115638
0.114764
0.115448
0.117616
0.121206
0.126104
0.132217
0.13953
0.148048
0.157496
0.167831
0.178893
0.190635
0.202968
0.215699
0.228669
0.241727
0.254642
0.26722
0.279266
0.2905
0.300542
0.309113
0.316418
0.322287
0.326465
0.329099
0.330351
0.330418
0.329317
0.327597
0.325679
0.322816
0.317249
0.308421
0.297982
0.287389
0.275842
0.264293
0.252848
0.241367
0.230191
0.219209
0.208598
0.198421
0.188666
0.179287
0.170215
0.161304
0.152648
0.144355
0.136461
0.128965
0.121837
0.115046
0.108542
0.102339
0.0963204
0.0904282
0.0847586
0.0790937
0.0736841
0.0684437
0.0635472
0.059287
0.0558301
0.0530117
0.0502388
0.0463396
0.0397318
0.0288715
0.0083322
0.0083322
0.0222135
0.00957712
0.0136414
0.017414
0.0227782
0.0281431
0.0328496
0.0363035
0.0386719
0.040089
0.0406825
0.0405978
0.0399724
0.0389241
0.0375492
0.0359277
0.0340821
0.0322047
0.0302895
0.0284696
0.0268148
0.0252676
0.0238184
0.0224659
0.0212166
0.0201081
0.0191898
0.0185251
0.0182046
0.0183552
0.0192917
0.0212993
0.0243825
0.0284159
0.0331187
0.0381651
0.0432833
0.0484117
0.0535101
0.0586826
0.0638676
0.0691482
0.0744758
0.080181
0.0860225
0.0920661
0.0988275
0.107723
0.119422
0.133586
0.151318
0.172387
0.196659
0.22521
0.259104
0.297948
0.341547
0.389843
0.442791
0.500411
0.563066
0.63158
0.707141
0.791049
0.884725
0.990424
1.11202
1.25458
1.42438
1.62709
1.86708
2.14608
2.4615
2.80541
3.15651
3.49105
3.79955
4.07673
4.32833
4.54648
4.73421
4.89559
5.03404
5.15369
5.25834
5.35152
5.43791
5.52183
5.60628
5.69272
5.78146
5.87311
5.96603
6.0542
6.12855
6.19279
6.24999
6.29672
6.33298
6.35058
6.36036
6.36351
6.35966
6.34834
6.32925
6.30238
6.26844
6.22554
6.173
6.1106
6.03814
5.95531
5.86179
5.75717
5.64117
5.51341
5.37457
5.23255
5.08352
4.92566
4.75825
4.58139
4.39555
4.2014
4
3.79288
3.58203
0.0341507
0.0396657
0.0260719
0.0302808
0.0613608
0.136398
0.241673
0.340595
0.416197
0.46469
0.489055
0.492767
0.479249
0.448788
0.404967
0.360151
0.326452
0.293812
0.260111
0.226225
0.19389
0.164361
0.1382
0.115451
0.0958099
0.0792303
0.0661709
0.0563111
0.0494904
0.0522606
0.0898935
0.209692
0.391636
0.50912
0.558047
0.563048
0.538387
0.520788
0.536384
0.582586
0.651551
0.728582
0.793479
0.833216
0.868607
0.918464
1.04771
1.29975
1.92678
3.67497
6.35742
8.7907
9.26578
10.0987
10.6171
11.006
10.366
11.6764
12.2498
12.5925
12.4542
10.8237
11.6416
11.8405
11.6736
11.3462
11.8309
12.1629
11.6416
11.9409
12.2418
12.5438
12.8472
13.1526
13.4582
13.7559
14.0411
14.3155
14.5797
14.8349
15.0819
15.3219
15.5554
15.7833
16.0065
16.226
16.4432
16.6599
16.8755
17.09
17.3036
17.5169
17.7302
17.9438
18.1582
18.3735
18.5901
18.8083
19.0287
19.2519
19.4776
19.706
19.9374
20.1723
20.4109
20.6536
20.9007
21.1527
21.4099
21.6728
0.0341507
0.102518
0.160497
0.224604
0.230099
0.216799
0.202643
0.192133
0.229882
0.284656
0.356203
0.445447
0.553185
0.679355
0.821923
0.978106
1.14552
1.32115
1.50188
1.68507
1.86878
2.05168
2.2331
2.41346
2.59502
2.78371
2.96809
3.14306
3.31063
3.47211
3.62637
3.77539
3.92074
4.06395
4.21082
4.36591
4.5177
4.67849
4.85523
5.00229
5.14545
5.31388
5.51544
5.76188
6.05851
6.43942
6.94771
7.64664
8.63814
9.66004
10.8039
11.602
11.6382
11.1558
11.0823
11.242
11.451
11.4973
11.5577
10.5376
10.34
10.3018
10.2971
11.8057
10.7307
12.0217
12.1242
12.0082
11.8073
11.6735
12.6765
10.6791
12.3012
11.4966
10.1
7.3132
3.14112
1.1945
0.86979
0.787621
)
;
    }
    top
    {
        type            empty;
    }
    bottom
    {
        type            empty;
    }
    procBoundary1to0
    {
        type            processor;
        value           uniform 0;
    }
}


// ************************************************************************* //
