/*--------------------------------*- C++ -*----------------------------------*\
  =========                 |
  \\      /  F ield         | OpenFOAM: The Open Source CFD Toolbox
   \\    /   O peration     | Website:  https://openfoam.org
    \\  /    A nd           | Version:  10
     \\/     M anipulation  |
\*---------------------------------------------------------------------------*/
FoamFile
{
    format      ascii;
    class       volScalarField;
    location    "50000";
    object      k;
}
// * * * * * * * * * * * * * * * * * * * * * * * * * * * * * * * * * * * * * //

dimensions      [0 2 -2 0 0 0 0];

internalField   nonuniform List<scalar> 
17922
(
0.0810286
0.0811178
0.0812129
0.0813142
0.0814218
0.081536
0.0816569
0.0817848
0.0819198
0.0820623
0.0822125
0.0823706
0.0825368
0.0827116
0.082895
0.0830875
0.0832894
0.0835009
0.0837224
0.0839543
0.0841969
0.0844507
0.0847159
0.0849931
0.0852827
0.0855851
0.0859008
0.0862304
0.0865714
0.0869178
0.0872666
0.0876174
0.0879701
0.0883248
0.0886813
0.0890397
0.0894
0.0897626
0.0901274
0.0904947
0.0908648
0.0912379
0.0916144
0.0919945
0.0923786
0.092767
0.0931599
0.0935576
0.0939604
0.0943684
0.0947817
0.0952005
0.0956248
0.0960545
0.0964896
0.09693
0.0973755
0.0978259
0.098281
0.0987403
0.0992035
0.0996701
0.10014
0.100612
0.101086
0.10156
0.102036
0.10251
0.102984
0.103455
0.103923
0.104388
0.104847
0.105301
0.105748
0.106188
0.106621
0.107046
0.107462
0.107869
0.108268
0.108657
0.109038
0.10941
0.109774
0.110131
0.110479
0.110821
0.111156
0.111486
0.111811
0.112131
0.112447
0.0810297
0.0811189
0.0812141
0.0813154
0.081423
0.0815371
0.081658
0.0817859
0.081921
0.0820635
0.0822136
0.0823717
0.0825379
0.0827127
0.0828961
0.0830886
0.0832904
0.0835019
0.0837235
0.0839553
0.0841979
0.0844516
0.0847169
0.084994
0.0852836
0.085586
0.0859017
0.0862312
0.0865722
0.0869186
0.0872673
0.0876181
0.0879708
0.0883254
0.0886819
0.0890403
0.0894007
0.0897632
0.0901281
0.0904955
0.0908656
0.0912388
0.0916154
0.0919956
0.0923798
0.0927683
0.0931613
0.0935592
0.093962
0.0943702
0.0947836
0.0952025
0.0956269
0.0960567
0.096492
0.0969325
0.097378
0.0978285
0.0982835
0.0987428
0.0992059
0.0996724
0.100142
0.100614
0.101087
0.101561
0.102036
0.10251
0.102983
0.103453
0.10392
0.104383
0.104842
0.105294
0.10574
0.106179
0.10661
0.107033
0.107447
0.107853
0.10825
0.108638
0.109017
0.109388
0.10975
0.110104
0.110451
0.110791
0.111125
0.111452
0.111775
0.112093
0.112407
0.0810308
0.08112
0.0812152
0.0813165
0.0814241
0.0815383
0.0816592
0.081787
0.0819221
0.0820646
0.0822147
0.0823728
0.0825391
0.0827138
0.0828972
0.0830897
0.0832915
0.083503
0.0837245
0.0839563
0.0841989
0.0844526
0.0847178
0.084995
0.0852845
0.0855868
0.0859025
0.0862321
0.086573
0.0869194
0.0872681
0.0876188
0.0879716
0.0883262
0.0886826
0.089041
0.0894014
0.089764
0.0901289
0.0904963
0.0908665
0.0912398
0.0916164
0.0919967
0.0923811
0.0927696
0.0931628
0.0935608
0.0939638
0.094372
0.0947856
0.0952047
0.0956292
0.0960591
0.0964944
0.096935
0.0973806
0.0978311
0.0982861
0.0987454
0.0992084
0.0996748
0.100144
0.100615
0.101089
0.101562
0.102036
0.10251
0.102982
0.103451
0.103917
0.104379
0.104836
0.105287
0.105732
0.106169
0.106598
0.10702
0.107433
0.107837
0.108232
0.108618
0.108996
0.109365
0.109725
0.110078
0.110423
0.110761
0.111092
0.111418
0.111739
0.112054
0.112366
0.0810319
0.0811212
0.0812163
0.0813176
0.0814252
0.0815394
0.0816603
0.0817882
0.0819232
0.0820657
0.0822159
0.0823739
0.0825402
0.0827149
0.0828983
0.0830908
0.0832926
0.0835041
0.0837255
0.0839574
0.0841999
0.0844536
0.0847188
0.0849959
0.0852854
0.0855877
0.0859034
0.0862329
0.0865738
0.0869202
0.0872689
0.0876196
0.0879723
0.0883269
0.0886834
0.0890418
0.0894022
0.0897647
0.0901297
0.0904971
0.0908674
0.0912408
0.0916175
0.0919979
0.0923824
0.0927711
0.0931644
0.0935625
0.0939656
0.094374
0.0947877
0.0952069
0.0956315
0.0960616
0.096497
0.0969376
0.0973833
0.0978338
0.0982888
0.098748
0.099211
0.0996772
0.100146
0.100617
0.10109
0.101563
0.102037
0.102509
0.10298
0.103449
0.103914
0.104375
0.10483
0.10528
0.105723
0.106159
0.106587
0.107006
0.107418
0.10782
0.108213
0.108598
0.108974
0.109341
0.1097
0.110051
0.110394
0.11073
0.11106
0.111383
0.111701
0.112014
0.112323
0.0810331
0.0811223
0.0812174
0.0813187
0.0814264
0.0815405
0.0816614
0.0817893
0.0819244
0.0820668
0.082217
0.082375
0.0825413
0.082716
0.0828994
0.0830919
0.0832937
0.0835051
0.0837266
0.0839584
0.084201
0.0844546
0.0847198
0.0849969
0.0852863
0.0855887
0.0859043
0.0862338
0.0865747
0.086921
0.0872697
0.0876204
0.0879731
0.0883276
0.0886841
0.0890425
0.0894029
0.0897655
0.0901305
0.090498
0.0908684
0.0912418
0.0916186
0.0919992
0.0923837
0.0927726
0.093166
0.0935643
0.0939676
0.0943761
0.0947899
0.0952092
0.095634
0.0960641
0.0964996
0.0969404
0.0973861
0.0978366
0.0982916
0.0987508
0.0992136
0.0996797
0.100148
0.100619
0.101091
0.101564
0.102037
0.102509
0.102979
0.103447
0.10391
0.10437
0.104824
0.105272
0.105714
0.106148
0.106575
0.106993
0.107402
0.107803
0.108195
0.108578
0.108952
0.109317
0.109674
0.110023
0.110364
0.110698
0.111026
0.111347
0.111663
0.111974
0.11228
0.0810342
0.0811234
0.0812186
0.0813199
0.0814275
0.0815417
0.0816626
0.0817905
0.0819255
0.082068
0.0822181
0.0823762
0.0825424
0.0827171
0.0829005
0.083093
0.0832948
0.0835062
0.0837277
0.0839595
0.084202
0.0844556
0.0847208
0.0849978
0.0852873
0.0855896
0.0859052
0.0862347
0.0865755
0.0869219
0.0872705
0.0876212
0.0879739
0.0883284
0.0886849
0.0890433
0.0894037
0.0897664
0.0901314
0.0904989
0.0908693
0.0912429
0.0916198
0.0920005
0.0923851
0.0927741
0.0931677
0.0935661
0.0939695
0.0943782
0.0947922
0.0952116
0.0956365
0.0960668
0.0965024
0.0969432
0.097389
0.0978395
0.0982945
0.0987536
0.0992163
0.0996822
0.100151
0.100621
0.101093
0.101565
0.102037
0.102508
0.102978
0.103444
0.103907
0.104365
0.104818
0.105265
0.105705
0.106138
0.106562
0.106979
0.107387
0.107786
0.108176
0.108557
0.108929
0.109292
0.109648
0.109995
0.110334
0.110666
0.110991
0.111311
0.111624
0.111932
0.112235
0.0810353
0.0811246
0.0812197
0.081321
0.0814287
0.0815428
0.0816637
0.0817916
0.0819267
0.0820691
0.0822193
0.0823773
0.0825435
0.0827182
0.0829016
0.0830941
0.0832959
0.0835073
0.0837287
0.0839605
0.084203
0.0844566
0.0847218
0.0849988
0.0852882
0.0855905
0.0859061
0.0862356
0.0865764
0.0869227
0.0872713
0.087622
0.0879747
0.0883292
0.0886857
0.0890441
0.0894046
0.0897672
0.0901323
0.0904999
0.0908704
0.091244
0.091621
0.0920018
0.0923866
0.0927757
0.0931694
0.093568
0.0939716
0.0943804
0.0947945
0.0952141
0.0956391
0.0960695
0.0965052
0.0969461
0.0973919
0.0978425
0.0982975
0.0987565
0.099219
0.0996847
0.100153
0.100623
0.101094
0.101566
0.102038
0.102508
0.102976
0.103441
0.103903
0.10436
0.104812
0.105257
0.105696
0.106127
0.10655
0.106965
0.107371
0.107768
0.108156
0.108535
0.108906
0.109267
0.109621
0.109966
0.110303
0.110633
0.110956
0.111273
0.111583
0.111888
0.112188
0.0810365
0.0811257
0.0812209
0.0813222
0.0814298
0.081544
0.0816649
0.0817928
0.0819278
0.0820703
0.0822204
0.0823785
0.0825447
0.0827194
0.0829028
0.0830952
0.083297
0.0835084
0.0837298
0.0839616
0.0842041
0.0844577
0.0847228
0.0849998
0.0852892
0.0855915
0.085907
0.0862365
0.0865773
0.0869236
0.0872722
0.0876228
0.0879755
0.08833
0.0886865
0.0890449
0.0894054
0.0897681
0.0901332
0.0905009
0.0908714
0.0912452
0.0916223
0.0920032
0.0923881
0.0927774
0.0931713
0.09357
0.0939737
0.0943827
0.094797
0.0952167
0.0956418
0.0960723
0.0965081
0.0969491
0.097395
0.0978456
0.0983005
0.0987594
0.0992218
0.0996873
0.100155
0.100625
0.101096
0.101567
0.102038
0.102507
0.102974
0.103439
0.103899
0.104355
0.104805
0.105249
0.105686
0.106115
0.106537
0.10695
0.107354
0.10775
0.108136
0.108514
0.108882
0.109242
0.109593
0.109936
0.110271
0.110599
0.11092
0.111234
0.111542
0.111844
0.11214
0.0810377
0.0811269
0.0812221
0.0813234
0.081431
0.0815452
0.0816661
0.0817939
0.081929
0.0820715
0.0822216
0.0823796
0.0825459
0.0827205
0.0829039
0.0830963
0.0832981
0.0835095
0.0837309
0.0839627
0.0842051
0.0844587
0.0847238
0.0850008
0.0852902
0.0855924
0.085908
0.0862374
0.0865782
0.0869245
0.087273
0.0876237
0.0879763
0.0883309
0.0886873
0.0890458
0.0894063
0.089769
0.0901341
0.0905019
0.0908726
0.0912464
0.0916236
0.0920047
0.0923897
0.0927791
0.0931732
0.093572
0.0939759
0.094385
0.0947995
0.0952193
0.0956446
0.0960752
0.0965112
0.0969522
0.0973981
0.0978487
0.0983036
0.0987624
0.0992247
0.0996899
0.100157
0.100627
0.101097
0.101568
0.102038
0.102506
0.102972
0.103436
0.103895
0.104349
0.104798
0.105241
0.105676
0.106104
0.106524
0.106935
0.107338
0.107731
0.108116
0.108491
0.108858
0.109216
0.109565
0.109906
0.110239
0.110564
0.110883
0.111194
0.111499
0.111798
0.112091
0.0810389
0.0811281
0.0812233
0.0813246
0.0814322
0.0815464
0.0816673
0.0817951
0.0819302
0.0820726
0.0822228
0.0823808
0.082547
0.0827217
0.0829051
0.0830975
0.0832992
0.0835106
0.083732
0.0839638
0.0842062
0.0844598
0.0847248
0.0850018
0.0852912
0.0855934
0.0859089
0.0862383
0.0865791
0.0869254
0.0872739
0.0876245
0.0879772
0.0883317
0.0886882
0.0890466
0.0894072
0.0897699
0.0901351
0.090503
0.0908737
0.0912476
0.091625
0.0920062
0.0923914
0.0927809
0.0931751
0.0935741
0.0939782
0.0943875
0.0948021
0.0952221
0.0956475
0.0960783
0.0965143
0.0969554
0.0974014
0.0978519
0.0983068
0.0987655
0.0992276
0.0996926
0.10016
0.100629
0.101098
0.101568
0.102038
0.102505
0.102971
0.103433
0.103891
0.104344
0.104791
0.105232
0.105666
0.106092
0.10651
0.10692
0.10732
0.107712
0.108095
0.108469
0.108833
0.109189
0.109536
0.109875
0.110206
0.110529
0.110844
0.111153
0.111454
0.11175
0.112039
0.0810401
0.0811293
0.0812245
0.0813258
0.0814334
0.0815476
0.0816685
0.0817963
0.0819314
0.0820738
0.082224
0.082382
0.0825482
0.0827229
0.0829062
0.0830986
0.0833004
0.0835118
0.0837331
0.0839649
0.0842073
0.0844609
0.0847259
0.0850029
0.0852922
0.0855944
0.0859099
0.0862393
0.08658
0.0869263
0.0872748
0.0876254
0.087978
0.0883326
0.088689
0.0890475
0.0894081
0.0897709
0.0901361
0.090504
0.0908749
0.0912489
0.0916264
0.0920077
0.0923931
0.0927828
0.0931771
0.0935763
0.0939806
0.09439
0.0948048
0.095225
0.0956505
0.0960814
0.0965175
0.0969587
0.0974047
0.0978553
0.0983101
0.0987687
0.0992306
0.0996953
0.100162
0.100631
0.1011
0.101569
0.102037
0.102504
0.102968
0.103429
0.103886
0.104338
0.104784
0.105223
0.105655
0.10608
0.106496
0.106904
0.107303
0.107693
0.108074
0.108445
0.108808
0.109162
0.109507
0.109843
0.110171
0.110492
0.110804
0.11111
0.111408
0.1117
0.111986
0.0810413
0.0811305
0.0812257
0.081327
0.0814346
0.0815488
0.0816697
0.0817975
0.0819326
0.0820751
0.0822252
0.0823832
0.0825494
0.082724
0.0829074
0.0830998
0.0833015
0.0835129
0.0837343
0.083966
0.0842084
0.0844619
0.084727
0.0850039
0.0852932
0.0855954
0.0859109
0.0862402
0.0865809
0.0869272
0.0872757
0.0876263
0.0879789
0.0883334
0.0886899
0.0890484
0.089409
0.0897719
0.0901372
0.0905052
0.0908761
0.0912502
0.0916279
0.0920093
0.0923948
0.0927847
0.0931792
0.0935786
0.093983
0.0943927
0.0948076
0.0952279
0.0956536
0.0960846
0.0965208
0.0969621
0.0974081
0.0978587
0.0983134
0.0987719
0.0992336
0.0996981
0.100165
0.100632
0.101101
0.10157
0.102037
0.102503
0.102966
0.103426
0.103881
0.104332
0.104776
0.105214
0.105645
0.106067
0.106482
0.106888
0.107285
0.107673
0.108052
0.108422
0.108782
0.109134
0.109476
0.10981
0.110136
0.110454
0.110763
0.111066
0.11136
0.111648
0.111929
0.0810425
0.0811317
0.0812269
0.0813282
0.0814358
0.08155
0.0816709
0.0817988
0.0819338
0.0820763
0.0822264
0.0823844
0.0825506
0.0827252
0.0829086
0.083101
0.0833027
0.0835141
0.0837354
0.0839671
0.0842095
0.084463
0.084728
0.085005
0.0852943
0.0855964
0.0859119
0.0862412
0.0865819
0.0869281
0.0872766
0.0876272
0.0879798
0.0883343
0.0886908
0.0890493
0.0894099
0.0897729
0.0901382
0.0905063
0.0908773
0.0912516
0.0916294
0.092011
0.0923967
0.0927867
0.0931814
0.093581
0.0939856
0.0943954
0.0948105
0.095231
0.0956568
0.0960879
0.0965243
0.0969656
0.0974117
0.0978622
0.0983169
0.0987752
0.0992367
0.0997009
0.100167
0.100634
0.101102
0.10157
0.102037
0.102502
0.102964
0.103422
0.103877
0.104325
0.104768
0.105205
0.105634
0.106055
0.106467
0.106872
0.107267
0.107653
0.10803
0.108397
0.108756
0.109105
0.109445
0.109777
0.110099
0.110414
0.110721
0.111019
0.111311
0.111594
0.111871
0.0810438
0.081133
0.0812282
0.0813295
0.0814371
0.0815513
0.0816722
0.0818
0.0819351
0.0820775
0.0822276
0.0823856
0.0825518
0.0827265
0.0829098
0.0831022
0.0833039
0.0835152
0.0837366
0.0839683
0.0842107
0.0844641
0.0847291
0.0850061
0.0852953
0.0855975
0.0859129
0.0862422
0.0865829
0.0869291
0.0872775
0.0876281
0.0879807
0.0883352
0.0886917
0.0890503
0.0894109
0.0897739
0.0901393
0.0905075
0.0908786
0.091253
0.0916309
0.0920127
0.0923985
0.0927888
0.0931837
0.0935834
0.0939882
0.0943982
0.0948135
0.0952341
0.0956601
0.0960914
0.0965278
0.0969692
0.0974153
0.0978659
0.0983205
0.0987786
0.0992399
0.0997037
0.100169
0.100636
0.101104
0.101571
0.102037
0.1025
0.102961
0.103419
0.103871
0.104319
0.10476
0.105195
0.105622
0.106042
0.106453
0.106855
0.107248
0.107632
0.108007
0.108372
0.108728
0.109075
0.109413
0.109742
0.110062
0.110373
0.110676
0.110971
0.111258
0.111538
0.111809
0.081045
0.0811343
0.0812294
0.0813307
0.0814384
0.0815525
0.0816734
0.0818013
0.0819363
0.0820788
0.0822289
0.0823869
0.0825531
0.0827277
0.082911
0.0831034
0.0833051
0.0835164
0.0837378
0.0839694
0.0842118
0.0844653
0.0847302
0.0850071
0.0852964
0.0855985
0.0859139
0.0862432
0.0865838
0.08693
0.0872785
0.087629
0.0879816
0.0883362
0.0886927
0.0890512
0.0894119
0.089775
0.0901405
0.0905087
0.09088
0.0912545
0.0916326
0.0920145
0.0924005
0.0927909
0.093186
0.0935859
0.0939909
0.0944011
0.0948166
0.0952374
0.0956636
0.096095
0.0965315
0.096973
0.0974191
0.0978696
0.0983241
0.0987821
0.0992432
0.0997066
0.100172
0.100638
0.101105
0.101571
0.102036
0.102499
0.102959
0.103415
0.103866
0.104312
0.104752
0.105185
0.105611
0.106028
0.106437
0.106838
0.107229
0.107611
0.107983
0.108346
0.1087
0.109044
0.109379
0.109705
0.110022
0.11033
0.11063
0.110921
0.111204
0.111479
0.111745
0.0810463
0.0811356
0.0812307
0.081332
0.0814397
0.0815538
0.0816747
0.0818026
0.0819376
0.0820801
0.0822302
0.0823882
0.0825543
0.0827289
0.0829123
0.0831046
0.0833063
0.0835176
0.083739
0.0839706
0.084213
0.0844664
0.0847314
0.0850082
0.0852975
0.0855996
0.085915
0.0862442
0.0865848
0.086931
0.0872794
0.08763
0.0879825
0.0883371
0.0886936
0.0890522
0.089413
0.089776
0.0901416
0.09051
0.0908814
0.091256
0.0916343
0.0920163
0.0924025
0.0927932
0.0931884
0.0935886
0.0939938
0.0944042
0.0948199
0.0952408
0.0956672
0.0960987
0.0965353
0.0969769
0.097423
0.0978735
0.0983279
0.0987857
0.0992465
0.0997096
0.100174
0.10064
0.101106
0.101572
0.102036
0.102497
0.102956
0.103411
0.103861
0.104305
0.104744
0.105175
0.105599
0.106014
0.106422
0.10682
0.107209
0.107589
0.107959
0.10832
0.108671
0.109013
0.109345
0.109668
0.109981
0.110286
0.110582
0.110868
0.111147
0.111416
0.111677
0.0807453
0.0808131
0.080886
0.0809641
0.0810476
0.0811369
0.081232
0.0813333
0.081441
0.0815551
0.081676
0.0818039
0.0819389
0.0820814
0.0822314
0.0823894
0.0825556
0.0827302
0.0829135
0.0831059
0.0833076
0.0835189
0.0837402
0.0839718
0.0842141
0.0844676
0.0847325
0.0850094
0.0852986
0.0856006
0.085916
0.0862452
0.0865858
0.086932
0.0872804
0.0876309
0.0879835
0.088338
0.0886946
0.0890532
0.089414
0.0897772
0.0901429
0.0905113
0.0908828
0.0912576
0.091636
0.0920183
0.0924047
0.0927955
0.093191
0.0935913
0.0939967
0.0944073
0.0948232
0.0952444
0.0956709
0.0961026
0.0965393
0.0969809
0.0974271
0.0978775
0.0983318
0.0987895
0.09925
0.0997127
0.100177
0.100642
0.101107
0.101572
0.102035
0.102496
0.102953
0.103407
0.103855
0.104298
0.104735
0.105164
0.105586
0.106
0.106405
0.106802
0.107189
0.107566
0.107934
0.108292
0.108641
0.10898
0.109309
0.109628
0.109939
0.110239
0.110531
0.110813
0.111087
0.111351
0.111606
0.0807467
0.0808144
0.0808873
0.0809654
0.081049
0.0811382
0.0812334
0.0813347
0.0814423
0.0815565
0.0816774
0.0818052
0.0819402
0.0820827
0.0822328
0.0823908
0.0825569
0.0827315
0.0829148
0.0831072
0.0833088
0.0835201
0.0837414
0.083973
0.0842153
0.0844688
0.0847337
0.0850105
0.0852997
0.0856017
0.0859171
0.0862462
0.0865868
0.086933
0.0872814
0.0876319
0.0879845
0.088339
0.0886956
0.0890542
0.0894151
0.0897783
0.0901441
0.0905127
0.0908843
0.0912593
0.0916378
0.0920203
0.0924069
0.0927979
0.0931936
0.0935942
0.0939998
0.0944107
0.0948267
0.0952481
0.0956748
0.0961066
0.0965434
0.0969851
0.0974313
0.0978817
0.0983359
0.0987933
0.0992535
0.0997159
0.10018
0.100644
0.101109
0.101573
0.102035
0.102494
0.10295
0.103403
0.10385
0.104291
0.104726
0.105154
0.105574
0.105986
0.106389
0.106783
0.107168
0.107543
0.107908
0.108264
0.10861
0.108945
0.109271
0.109587
0.109894
0.110191
0.110478
0.110755
0.111023
0.111282
0.111531
0.080748
0.0808158
0.0808886
0.0809667
0.0810503
0.0811396
0.0812347
0.081336
0.0814437
0.0815578
0.0816787
0.0818066
0.0819416
0.082084
0.0822341
0.0823921
0.0825582
0.0827328
0.0829161
0.0831084
0.0833101
0.0835214
0.0837426
0.0839742
0.0842165
0.0844699
0.0847348
0.0850116
0.0853008
0.0856028
0.0859181
0.0862473
0.0865879
0.086934
0.0872824
0.0876329
0.0879854
0.08834
0.0886966
0.0890553
0.0894162
0.0897795
0.0901454
0.0905141
0.0908859
0.091261
0.0916397
0.0920223
0.0924092
0.0928004
0.0931964
0.0935972
0.0940031
0.0944141
0.0948304
0.095252
0.0956788
0.0961108
0.0965477
0.0969895
0.0974357
0.097886
0.09834
0.0987973
0.0992572
0.0997191
0.100182
0.100646
0.10111
0.101573
0.102034
0.102492
0.102947
0.103398
0.103844
0.104284
0.104717
0.105143
0.105561
0.105971
0.106372
0.106764
0.107146
0.107519
0.107882
0.108234
0.108577
0.10891
0.109232
0.109545
0.109847
0.110139
0.110422
0.110694
0.110956
0.111209
0.111451
0.080575
0.0806285
0.0806866
0.0807494
0.0808171
0.08089
0.0809681
0.0810517
0.0811409
0.0812361
0.0813374
0.081445
0.0815592
0.0816801
0.0818079
0.0819429
0.0820854
0.0822354
0.0823934
0.0825596
0.0827341
0.0829174
0.0831097
0.0833114
0.0835226
0.0837439
0.0839755
0.0842178
0.0844711
0.084736
0.0850128
0.0853019
0.0856039
0.0859192
0.0862484
0.0865889
0.086935
0.0872834
0.0876339
0.0879865
0.088341
0.0886977
0.0890564
0.0894174
0.0897807
0.0901467
0.0905156
0.0908875
0.0912628
0.0916417
0.0920245
0.0924116
0.0928031
0.0931992
0.0936003
0.0940064
0.0944177
0.0948342
0.095256
0.095683
0.0961151
0.0965522
0.096994
0.0974402
0.0978905
0.0983444
0.0988014
0.099261
0.0997225
0.100185
0.100649
0.101111
0.101573
0.102033
0.102491
0.102944
0.103394
0.103838
0.104276
0.104707
0.105131
0.105548
0.105955
0.106354
0.106744
0.107124
0.107494
0.107854
0.108203
0.108543
0.108872
0.109191
0.109499
0.109797
0.110085
0.110362
0.110629
0.110886
0.111132
0.111367
0.0805765
0.08063
0.080688
0.0807508
0.0808185
0.0808913
0.0809695
0.081053
0.0811423
0.0812375
0.0813388
0.0814464
0.0815606
0.0816815
0.0818093
0.0819443
0.0820867
0.0822368
0.0823948
0.0825609
0.0827355
0.0829188
0.0831111
0.0833127
0.0835239
0.0837452
0.0839768
0.084219
0.0844724
0.0847372
0.085014
0.0853031
0.085605
0.0859203
0.0862494
0.08659
0.086936
0.0872844
0.0876349
0.0879875
0.0883421
0.0886987
0.0890575
0.0894186
0.089782
0.0901481
0.0905171
0.0908892
0.0912646
0.0916437
0.0920268
0.0924141
0.0928058
0.0932023
0.0936036
0.0940099
0.0944215
0.0948382
0.0952603
0.0956874
0.0961197
0.0965569
0.0969988
0.097445
0.0978952
0.0983489
0.0988057
0.099265
0.099726
0.100188
0.100651
0.101113
0.101574
0.102033
0.102489
0.102941
0.103389
0.103831
0.104268
0.104697
0.10512
0.105534
0.105939
0.106336
0.106723
0.1071
0.107468
0.107825
0.108171
0.108507
0.108833
0.109148
0.109452
0.109745
0.110028
0.1103
0.110561
0.110811
0.11105
0.111278
0.080578
0.0806314
0.0806894
0.0807522
0.0808199
0.0808927
0.0809708
0.0810544
0.0811437
0.0812389
0.0813402
0.0814479
0.081562
0.0816829
0.0818107
0.0819457
0.0820881
0.0822382
0.0823962
0.0825623
0.0827369
0.0829201
0.0831124
0.083314
0.0835253
0.0837465
0.083978
0.0842203
0.0844736
0.0847384
0.0850152
0.0853043
0.0856062
0.0859214
0.0862505
0.086591
0.0869371
0.0872854
0.0876359
0.0879885
0.0883431
0.0886998
0.0890587
0.0894198
0.0897834
0.0901496
0.0905187
0.0908909
0.0912666
0.0916459
0.0920292
0.0924167
0.0928087
0.0932054
0.093607
0.0940137
0.0944254
0.0948425
0.0952647
0.0956921
0.0961245
0.0965618
0.0970037
0.09745
0.0979001
0.0983537
0.0988102
0.0992691
0.0997297
0.100191
0.100653
0.101114
0.101574
0.102032
0.102487
0.102938
0.103384
0.103825
0.10426
0.104687
0.105108
0.10552
0.105923
0.106317
0.106701
0.107076
0.10744
0.107794
0.108138
0.10847
0.108792
0.109102
0.109402
0.109691
0.109968
0.110234
0.110489
0.110732
0.110964
0.111184
0.0805794
0.0806328
0.0806908
0.0807536
0.0808213
0.0808941
0.0809723
0.0810559
0.0811452
0.0812404
0.0813417
0.0814493
0.0815634
0.0816843
0.0818122
0.0819472
0.0820896
0.0822396
0.0823976
0.0825637
0.0827383
0.0829215
0.0831138
0.0833154
0.0835266
0.0837478
0.0839793
0.0842216
0.0844749
0.0847397
0.0850164
0.0853055
0.0856073
0.0859226
0.0862516
0.0865921
0.0869381
0.0872865
0.087637
0.0879896
0.0883442
0.088701
0.0890599
0.0894211
0.0897847
0.0901511
0.0905204
0.0908928
0.0912686
0.0916482
0.0920317
0.0924195
0.0928118
0.0932088
0.0936106
0.0940175
0.0944296
0.0948469
0.0952694
0.0956969
0.0961296
0.096567
0.097009
0.0974552
0.0979052
0.0983586
0.0988149
0.0992734
0.0997335
0.100194
0.100656
0.101116
0.101575
0.102032
0.102485
0.102935
0.103379
0.103818
0.104251
0.104677
0.105095
0.105505
0.105906
0.106297
0.106679
0.107051
0.107412
0.107762
0.108102
0.108431
0.108748
0.109054
0.109349
0.109632
0.109904
0.110164
0.110412
0.110648
0.110872
0.111084
0.0805809
0.0806343
0.0806923
0.080755
0.0808227
0.0808956
0.0809737
0.0810573
0.0811466
0.0812418
0.0813431
0.0814508
0.0815649
0.0816858
0.0818136
0.0819486
0.082091
0.0822411
0.082399
0.0825651
0.0827397
0.0829229
0.0831152
0.0833168
0.083528
0.0837491
0.0839807
0.0842229
0.0844762
0.0847409
0.0850176
0.0853067
0.0856085
0.0859237
0.0862528
0.0865932
0.0869392
0.0872876
0.0876381
0.0879907
0.0883454
0.0887021
0.0890611
0.0894224
0.0897862
0.0901527
0.0905221
0.0908947
0.0912708
0.0916506
0.0920344
0.0924224
0.092815
0.0932123
0.0936144
0.0940217
0.094434
0.0948515
0.0952743
0.0957021
0.0961348
0.0965724
0.0970144
0.0974606
0.0979106
0.0983638
0.0988198
0.0992779
0.0997375
0.100198
0.100658
0.101118
0.101576
0.102031
0.102483
0.102931
0.103374
0.103812
0.104243
0.104666
0.105082
0.105489
0.105888
0.106277
0.106655
0.107024
0.107382
0.107729
0.108065
0.108389
0.108702
0.109004
0.109293
0.109571
0.109836
0.11009
0.110331
0.110559
0.110775
0.110978
0.0805824
0.0806357
0.0806937
0.0807565
0.0808242
0.080897
0.0809751
0.0810588
0.0811481
0.0812433
0.0813446
0.0814522
0.0815664
0.0816873
0.0818151
0.0819501
0.0820925
0.0822425
0.0824005
0.0825666
0.0827411
0.0829243
0.0831166
0.0833181
0.0835293
0.0837505
0.083982
0.0842242
0.0844775
0.0847422
0.0850189
0.0853079
0.0856097
0.0859249
0.0862539
0.0865944
0.0869404
0.0872887
0.0876392
0.0879918
0.0883465
0.0887034
0.0890624
0.0894238
0.0897877
0.0901544
0.090524
0.0908968
0.0912731
0.0916531
0.0920372
0.0924255
0.0928184
0.093216
0.0936185
0.094026
0.0944386
0.0948565
0.0952794
0.0957075
0.0961404
0.0965781
0.0970202
0.0974664
0.0979163
0.0983693
0.098825
0.0992827
0.0997417
0.100201
0.100661
0.101119
0.101576
0.10203
0.102481
0.102928
0.103369
0.103805
0.104234
0.104655
0.105069
0.105473
0.105869
0.106255
0.106631
0.106996
0.10735
0.107694
0.108025
0.108345
0.108654
0.10895
0.109234
0.109505
0.109765
0.110011
0.110245
0.110465
0.110672
0.110866
0.0805839
0.0806372
0.0806952
0.0807579
0.0808256
0.0808985
0.0809766
0.0810602
0.0811496
0.0812448
0.0813461
0.0814537
0.0815679
0.0816888
0.0818166
0.0819516
0.082094
0.082244
0.082402
0.082568
0.0827426
0.0829258
0.083118
0.0833196
0.0835307
0.0837519
0.0839834
0.0842255
0.0844788
0.0847435
0.0850201
0.0853091
0.0856109
0.0859261
0.0862551
0.0865955
0.0869415
0.0872898
0.0876404
0.087993
0.0883477
0.0887046
0.0890638
0.0894253
0.0897893
0.0901561
0.0905259
0.0908989
0.0912755
0.0916558
0.0920402
0.0924288
0.092822
0.0932199
0.0936227
0.0940306
0.0944435
0.0948617
0.0952849
0.0957132
0.0961463
0.0965841
0.0970263
0.0974725
0.0979222
0.098375
0.0988304
0.0992877
0.0997461
0.100205
0.100664
0.101121
0.101577
0.10203
0.102479
0.102924
0.103364
0.103797
0.104224
0.104643
0.105054
0.105457
0.105849
0.106232
0.106605
0.106967
0.107317
0.107656
0.107984
0.108299
0.108602
0.108893
0.109171
0.109436
0.109688
0.109928
0.110153
0.110365
0.110563
0.110747
0.0805853
0.0806387
0.0806966
0.0807594
0.0808271
0.0808999
0.0809781
0.0810617
0.0811511
0.0812463
0.0813476
0.0814553
0.0815694
0.0816903
0.0818181
0.0819531
0.0820955
0.0822455
0.0824035
0.0825695
0.082744
0.0829273
0.0831195
0.083321
0.0835322
0.0837533
0.0839848
0.0842269
0.0844801
0.0847448
0.0850214
0.0853104
0.0856122
0.0859273
0.0862563
0.0865967
0.0869427
0.087291
0.0876415
0.0879942
0.088349
0.088706
0.0890652
0.0894268
0.089791
0.090158
0.090528
0.0909013
0.0912781
0.0916587
0.0920433
0.0924323
0.0928258
0.0932241
0.0936272
0.0940354
0.0944487
0.0948672
0.0952907
0.0957192
0.0961525
0.0965905
0.0970327
0.0974788
0.0979285
0.0983811
0.0988361
0.099293
0.0997508
0.100209
0.100667
0.101123
0.101578
0.10203
0.102477
0.102921
0.103358
0.10379
0.104214
0.104631
0.10504
0.105439
0.105829
0.106209
0.106578
0.106936
0.107282
0.107617
0.10794
0.10825
0.108548
0.108832
0.109104
0.109363
0.109608
0.109839
0.110056
0.110259
0.110448
0.110622
0.0805868
0.0806401
0.0806981
0.0807608
0.0808286
0.0809014
0.0809796
0.0810632
0.0811526
0.0812478
0.0813492
0.0814568
0.081571
0.0816918
0.0818196
0.0819546
0.082097
0.0822471
0.082405
0.0825711
0.0827456
0.0829288
0.083121
0.0833225
0.0835336
0.0837547
0.0839862
0.0842283
0.0844815
0.0847462
0.0850227
0.0853117
0.0856135
0.0859286
0.0862575
0.0865979
0.0869439
0.0872922
0.0876428
0.0879955
0.0883503
0.0887074
0.0890667
0.0894285
0.0897928
0.09016
0.0905302
0.0909037
0.0912808
0.0916617
0.0920467
0.092436
0.0928299
0.0932285
0.093632
0.0940406
0.0944542
0.094873
0.0952968
0.0957256
0.0961591
0.0965972
0.0970395
0.0974856
0.0979351
0.0983875
0.0988422
0.0992986
0.0997558
0.100213
0.10067
0.101126
0.101579
0.102029
0.102475
0.102917
0.103353
0.103782
0.104204
0.104619
0.105024
0.105421
0.105807
0.106184
0.106549
0.106903
0.107245
0.107575
0.107893
0.108198
0.108489
0.108768
0.109033
0.109284
0.109522
0.109745
0.109953
0.110147
0.110326
0.110489
0.0805883
0.0806416
0.0806996
0.0807623
0.0808301
0.0809029
0.0809811
0.0810648
0.0811541
0.0812494
0.0813507
0.0814584
0.0815725
0.0816934
0.0818212
0.0819562
0.0820986
0.0822486
0.0824065
0.0825726
0.0827471
0.0829303
0.0831225
0.083324
0.0835351
0.0837562
0.0839876
0.0842297
0.0844829
0.0847475
0.0850241
0.085313
0.0856148
0.0859298
0.0862588
0.0865991
0.0869451
0.0872935
0.087644
0.0879968
0.0883517
0.0887089
0.0890683
0.0894302
0.0897947
0.0901621
0.0905326
0.0909063
0.0912837
0.0916649
0.0920503
0.09244
0.0928342
0.0932332
0.0936371
0.0940461
0.0944601
0.0948792
0.0953033
0.0957323
0.0961661
0.0966043
0.0970466
0.0974928
0.0979422
0.0983943
0.0988487
0.0993045
0.0997611
0.100218
0.100674
0.101128
0.10158
0.102029
0.102473
0.102913
0.103347
0.103774
0.104194
0.104605
0.105008
0.105401
0.105784
0.106157
0.106518
0.106868
0.107206
0.107531
0.107843
0.108142
0.108428
0.1087
0.108958
0.109201
0.109431
0.109645
0.109844
0.110028
0.110196
0.110349
0.0805898
0.0806431
0.080701
0.0807638
0.0808316
0.0809044
0.0809826
0.0810663
0.0811557
0.0812509
0.0813523
0.0814599
0.0815741
0.081695
0.0818228
0.0819578
0.0821002
0.0822502
0.0824081
0.0825742
0.0827486
0.0829318
0.083124
0.0833255
0.0835366
0.0837577
0.0839891
0.0842312
0.0844843
0.0847489
0.0850255
0.0853144
0.0856161
0.0859311
0.0862601
0.0866004
0.0869464
0.0872948
0.0876454
0.0879982
0.0883532
0.0887104
0.08907
0.089432
0.0897968
0.0901644
0.0905351
0.0909091
0.0912868
0.0916684
0.0920541
0.0924442
0.0928389
0.0932383
0.0936426
0.0940519
0.0944663
0.0948858
0.0953102
0.0957395
0.0961735
0.0966118
0.0970543
0.0975004
0.0979496
0.0984015
0.0988555
0.0993108
0.0997668
0.100223
0.100678
0.101131
0.101581
0.102029
0.102471
0.102909
0.103341
0.103765
0.104183
0.104591
0.104991
0.105381
0.10576
0.106129
0.106486
0.106831
0.107164
0.107484
0.10779
0.108083
0.108362
0.108627
0.108878
0.109113
0.109334
0.109539
0.109729
0.109902
0.11006
0.110201
0.0805913
0.0806446
0.0807025
0.0807653
0.0808331
0.0809059
0.0809841
0.0810678
0.0811572
0.0812525
0.0813539
0.0814615
0.0815757
0.0816966
0.0818244
0.0819594
0.0821018
0.0822518
0.0824097
0.0825757
0.0827502
0.0829334
0.0831256
0.083327
0.0835381
0.0837592
0.0839906
0.0842326
0.0844858
0.0847504
0.0850269
0.0853157
0.0856174
0.0859325
0.0862614
0.0866018
0.0869477
0.0872961
0.0876468
0.0879997
0.0883547
0.0887121
0.0890718
0.089434
0.089799
0.0901668
0.0905378
0.0909122
0.0912902
0.0916721
0.0920582
0.0924487
0.0928438
0.0932437
0.0936484
0.0940582
0.094473
0.0948928
0.0953176
0.0957472
0.0961813
0.0966199
0.0970624
0.0975084
0.0979575
0.0984092
0.0988628
0.0993175
0.0997728
0.100228
0.100682
0.101134
0.101583
0.102028
0.102469
0.102905
0.103334
0.103756
0.104171
0.104576
0.104973
0.105359
0.105735
0.106099
0.106452
0.106792
0.107119
0.107433
0.107734
0.10802
0.108292
0.10855
0.108792
0.10902
0.109231
0.109427
0.109607
0.10977
0.109916
0.110045
0.0805928
0.0806461
0.080704
0.0807668
0.0808346
0.0809075
0.0809857
0.0810694
0.0811588
0.0812541
0.0813555
0.0814632
0.0815773
0.0816982
0.081826
0.081961
0.0821034
0.0822534
0.0824113
0.0825774
0.0827518
0.082935
0.0831272
0.0833286
0.0835397
0.0837607
0.0839921
0.0842341
0.0844872
0.0847518
0.0850283
0.0853172
0.0856188
0.0859339
0.0862628
0.0866031
0.0869491
0.0872976
0.0876483
0.0880012
0.0883564
0.0887139
0.0890737
0.0894362
0.0898013
0.0901694
0.0905407
0.0909154
0.0912938
0.0916762
0.0920627
0.0924536
0.0928491
0.0932494
0.0936546
0.0940648
0.0944801
0.0949003
0.0953254
0.0957553
0.0961897
0.0966284
0.0970709
0.097517
0.0979659
0.0984173
0.0988705
0.0993247
0.0997793
0.100233
0.100686
0.101137
0.101585
0.102028
0.102467
0.102901
0.103328
0.103747
0.104158
0.104561
0.104954
0.105336
0.105708
0.106067
0.106415
0.10675