/*--------------------------------*- C++ -*----------------------------------*\
  =========                 |
  \\      /  F ield         | OpenFOAM: The Open Source CFD Toolbox
   \\    /   O peration     | Website:  https://openfoam.org
    \\  /    A nd           | Version:  10
     \\/     M anipulation  |
\*---------------------------------------------------------------------------*/
FoamFile
{
    format      ascii;
    class       surfaceScalarField;
    location    "50000";
    object      phi;
}
// * * * * * * * * * * * * * * * * * * * * * * * * * * * * * * * * * * * * * //

dimensions      [0 3 -1 0 0 0 0];

internalField   nonuniform List<scalar> 
35539
(
6.54256e-09
4.06389e-05
-4.06389e-05
6.50865e-09
4.1089e-05
-4.1089e-05
6.47804e-09
4.154e-05
-4.154e-05
6.45799e-09
4.19916e-05
-4.19916e-05
6.44732e-09
4.24436e-05
-4.24436e-05
6.43992e-09
4.28957e-05
-4.28957e-05
6.44302e-09
4.33476e-05
-4.33476e-05
6.45515e-09
4.37991e-05
-4.37991e-05
6.47024e-09
4.42498e-05
-4.42498e-05
6.49092e-09
4.46994e-05
-4.46994e-05
6.52008e-09
4.51476e-05
-4.51476e-05
6.5556e-09
4.5594e-05
-4.5594e-05
6.59798e-09
4.60382e-05
-4.60382e-05
6.64102e-09
4.64798e-05
-4.64799e-05
6.69123e-09
4.69184e-05
-4.69185e-05
6.74433e-09
4.73535e-05
-4.73536e-05
6.80256e-09
4.77847e-05
-4.77848e-05
6.86137e-09
4.82114e-05
-4.82114e-05
6.9226e-09
4.8633e-05
-4.86331e-05
6.98385e-09
4.9049e-05
-4.90491e-05
7.04454e-09
4.94588e-05
-4.94589e-05
7.10542e-09
4.98618e-05
-4.98618e-05
7.15989e-09
5.02571e-05
-5.02572e-05
7.21035e-09
5.06442e-05
-5.06442e-05
7.25348e-09
5.10222e-05
-5.10222e-05
7.29099e-09
5.13902e-05
-5.13903e-05
7.31296e-09
5.17475e-05
-5.17475e-05
7.32037e-09
5.2093e-05
-5.2093e-05
7.31172e-09
5.15225e-05
-5.15225e-05
7.28079e-09
5.00754e-05
-5.00753e-05
7.23151e-09
4.86731e-05
-4.86731e-05
7.15531e-09
4.73141e-05
-4.7314e-05
7.05443e-09
4.59968e-05
-4.59967e-05
6.92629e-09
4.47196e-05
-4.47195e-05
6.7717e-09
4.34811e-05
-4.3481e-05
6.58838e-09
4.228e-05
-4.22798e-05
6.37789e-09
4.11149e-05
-4.11147e-05
6.13662e-09
3.99846e-05
-3.99843e-05
5.86513e-09
3.88878e-05
-3.88875e-05
5.56577e-09
3.78235e-05
-3.78232e-05
5.23605e-09
3.67904e-05
-3.67901e-05
4.87894e-09
3.57877e-05
-3.57873e-05
4.49257e-09
3.48141e-05
-3.48137e-05
4.08154e-09
3.38688e-05
-3.38683e-05
3.64757e-09
3.29507e-05
-3.29503e-05
3.18749e-09
3.2059e-05
-3.20586e-05
2.70128e-09
3.11929e-05
-3.11924e-05
2.19642e-09
3.03514e-05
-3.03509e-05
1.66818e-09
2.95337e-05
-2.95332e-05
1.12209e-09
2.87391e-05
-2.87385e-05
5.53021e-10
2.79667e-05
-2.79662e-05
-3.53414e-11
2.7216e-05
-2.72154e-05
-6.45448e-10
2.64862e-05
-2.64856e-05
-1.27953e-09
2.57765e-05
-2.57759e-05
-1.93013e-09
2.50865e-05
-2.50858e-05
-2.60541e-09
2.44154e-05
-2.44148e-05
-3.30072e-09
2.37627e-05
-2.3762e-05
-4.01577e-09
2.31279e-05
-2.31271e-05
-4.75558e-09
2.25103e-05
-2.25095e-05
-5.5172e-09
2.19094e-05
-2.19087e-05
-6.30134e-09
2.13248e-05
-2.13241e-05
-7.10939e-09
2.07561e-05
-2.07552e-05
-7.93869e-09
2.02026e-05
-2.02018e-05
-8.79596e-09
1.9664e-05
-1.96632e-05
-9.67655e-09
1.914e-05
-1.91391e-05
-1.05877e-08
1.863e-05
-1.86291e-05
-1.15256e-08
1.81337e-05
-1.81327e-05
-1.2494e-08
1.76507e-05
-1.76498e-05
-1.34996e-08
1.71808e-05
-1.71798e-05
-1.45387e-08
1.67235e-05
-1.67224e-05
-1.56172e-08
1.62785e-05
-1.62775e-05
-1.67306e-08
1.58456e-05
-1.58445e-05
-1.78857e-08
1.54245e-05
-1.54233e-05
-1.90776e-08
1.50148e-05
-1.50136e-05
-2.03055e-08
1.46163e-05
-1.46151e-05
-2.1571e-08
1.42287e-05
-1.42274e-05
-2.28658e-08
1.38518e-05
-1.38505e-05
-2.41881e-08
1.34852e-05
-1.34839e-05
-2.55354e-08
1.31288e-05
-1.31274e-05
-2.69025e-08
1.27822e-05
-1.27809e-05
-2.82836e-08
1.24453e-05
-1.2444e-05
-2.96739e-08
1.21178e-05
-1.21164e-05
-3.10691e-08
1.17994e-05
-1.17981e-05
-3.2459e-08
1.149e-05
-1.14886e-05
-3.3842e-08
1.11892e-05
-1.11878e-05
-3.52095e-08
1.08968e-05
-1.08955e-05
-3.6553e-08
1.06127e-05
-1.06113e-05
-3.78679e-08
1.03365e-05
-1.03352e-05
-3.91464e-08
1.00681e-05
-1.00668e-05
-4.03799e-08
9.80724e-06
-9.80601e-06
-4.15647e-08
9.55369e-06
-9.55251e-06
-4.26914e-08
9.30724e-06
-9.30611e-06
9.06768e-06
-9.06661e-06
6.65506e-09
4.0639e-05
6.61536e-09
4.10891e-05
6.58342e-09
4.15401e-05
6.55855e-09
4.19916e-05
6.54322e-09
4.24436e-05
6.53598e-09
4.28957e-05
6.53727e-09
4.33476e-05
6.54095e-09
4.37991e-05
6.55634e-09
4.42498e-05
6.57743e-09
4.46994e-05
6.60625e-09
4.51476e-05
6.63893e-09
4.5594e-05
6.67578e-09
4.60382e-05
6.71678e-09
4.64798e-05
6.76629e-09
4.69184e-05
6.81772e-09
4.73535e-05
6.87303e-09
4.77846e-05
6.93189e-09
4.82113e-05
6.98978e-09
4.86329e-05
7.04813e-09
4.9049e-05
7.10792e-09
4.94588e-05
7.1626e-09
4.98617e-05
7.21843e-09
5.02571e-05
7.26826e-09
5.06441e-05
7.30818e-09
5.10221e-05
7.34016e-09
5.13902e-05
7.35976e-09
5.17474e-05
7.36574e-09
5.20929e-05
7.35142e-09
5.15226e-05
7.31518e-09
5.00754e-05
7.25892e-09
4.86732e-05
7.17927e-09
4.73142e-05
7.07493e-09
4.59969e-05
6.94461e-09
4.47197e-05
6.78409e-09
4.34813e-05
6.59622e-09
4.22802e-05
6.37543e-09
4.11151e-05
6.12697e-09
3.99848e-05
5.851e-09
3.88881e-05
5.54485e-09
3.78238e-05
5.20945e-09
3.67908e-05
4.84764e-09
3.5788e-05
4.45586e-09
3.48145e-05
4.04058e-09
3.38692e-05
3.59832e-09
3.29512e-05
3.13561e-09
3.20595e-05
2.64926e-09
3.11934e-05
2.14071e-09
3.03519e-05
1.6142e-09
2.95342e-05
1.06466e-09
2.87396e-05
4.94824e-10
2.79673e-05
-9.49029e-11
2.72166e-05
-7.03593e-10
2.64868e-05
-1.32817e-09
2.57772e-05
-1.97528e-09
2.50871e-05
-2.64167e-09
2.44161e-05
-3.32847e-09
2.37634e-05
-4.03535e-09
2.31286e-05
-4.76321e-09
2.2511e-05
-5.51183e-09
2.19102e-05
-6.28251e-09
2.13256e-05
-7.07256e-09
2.07568e-05
-7.88869e-09
2.02034e-05
-8.72623e-09
1.96649e-05
-9.5899e-09
1.91408e-05
-1.04807e-08
1.86309e-05
-1.13987e-08
1.81346e-05
-1.23506e-08
1.76517e-05
-1.33339e-08
1.71818e-05
-1.43527e-08
1.67245e-05
-1.54077e-08
1.62796e-05
-1.65041e-08
1.58467e-05
-1.76341e-08
1.54256e-05
-1.88024e-08
1.5016e-05
-2.00078e-08
1.46175e-05
-2.12439e-08
1.42299e-05
-2.25116e-08
1.3853e-05
-2.38065e-08
1.34865e-05
-2.5124e-08
1.31301e-05
-2.64588e-08
1.27836e-05
-2.78073e-08
1.24467e-05
-2.91627e-08
1.21192e-05
-3.05194e-08
1.18008e-05
-3.18729e-08
1.14913e-05
-3.32151e-08
1.11905e-05
-3.45412e-08
1.08982e-05
-3.58424e-08
1.0614e-05
-3.71147e-08
1.03378e-05
-3.83485e-08
1.00693e-05
-3.95396e-08
9.80843e-06
-4.06797e-08
9.55483e-06
-4.17627e-08
9.30832e-06
9.0687e-06
6.75772e-09
4.0639e-05
6.71639e-09
4.10891e-05
6.68391e-09
4.15401e-05
6.65785e-09
4.19917e-05
6.63696e-09
4.24436e-05
6.6307e-09
4.28957e-05
6.62827e-09
4.33476e-05
6.6322e-09
4.3799e-05
6.64513e-09
4.42497e-05
6.65833e-09
4.46994e-05
6.68541e-09
4.51475e-05
6.71758e-09
4.55939e-05
6.75054e-09
4.60381e-05
6.79293e-09
4.64797e-05
6.84028e-09
4.69183e-05
6.88795e-09
4.73535e-05
6.94221e-09
4.77846e-05
6.99608e-09
4.82113e-05
7.05337e-09
4.86329e-05
7.11274e-09
4.90489e-05
7.16767e-09
4.94587e-05
7.22269e-09
4.98616e-05
7.27266e-09
5.0257e-05
7.31783e-09
5.06441e-05
7.35611e-09
5.10221e-05
7.38529e-09
5.13902e-05
7.40242e-09
5.17474e-05
7.40469e-09
5.20929e-05
7.3846e-09
5.15226e-05
7.3487e-09
5.00755e-05
7.28806e-09
4.86732e-05
7.20272e-09
4.73143e-05
7.08952e-09
4.5997e-05
6.95083e-09
4.47199e-05
6.78549e-09
4.34814e-05
6.58956e-09
4.22804e-05
6.36746e-09
4.11153e-05
6.11601e-09
3.99851e-05
5.83037e-09
3.88884e-05
5.51942e-09
3.78241e-05
5.17903e-09
3.67911e-05
4.8104e-09
3.57884e-05
4.41653e-09
3.48149e-05
3.99557e-09
3.38696e-05
3.55101e-09
3.29516e-05
3.08563e-09
3.206e-05
2.59631e-09
3.11939e-05
2.08631e-09
3.03524e-05
1.55645e-09
2.95347e-05
1.00688e-09
2.87402e-05
4.42541e-10
2.79679e-05
-1.42991e-10
2.72172e-05
-7.46343e-10
2.64874e-05
-1.36816e-09
2.57778e-05
-2.00692e-09
2.50878e-05
-2.66622e-09
2.44168e-05
-3.34173e-09
2.37641e-05
-4.03844e-09
2.31293e-05
-4.75236e-09
2.25117e-05
-5.48457e-09
2.19109e-05
-6.23645e-09
2.13264e-05
-7.01088e-09
2.07576e-05
-7.80572e-09
2.02042e-05
-8.62415e-09
1.96657e-05
-9.46858e-09
1.91417e-05
-1.03364e-08
1.86317e-05
-1.12355e-08
1.81355e-05
-1.21625e-08
1.76526e-05
-1.31227e-08
1.71827e-05
-1.41199e-08
1.67255e-05
-1.51523e-08
1.62806e-05
-1.62202e-08
1.58478e-05
-1.73266e-08
1.54267e-05
-1.84688e-08
1.50171e-05
-1.96446e-08
1.46187e-05
-2.08542e-08
1.42311e-05
-2.20907e-08
1.38543e-05
-2.33542e-08
1.34878e-05
-2.46367e-08
1.31314e-05
-2.59361e-08
1.27849e-05
-2.7247e-08
1.2448e-05
-2.85655e-08
1.21205e-05
-2.98842e-08
1.18021e-05
-3.11953e-08
1.14926e-05
-3.24965e-08
1.11918e-05
-3.37796e-08
1.08994e-05
-3.50388e-08
1.06152e-05
-3.62657e-08
1.0339e-05
-3.74565e-08
1.00705e-05
-3.86041e-08
9.80958e-06
-3.97019e-08
9.55593e-06
-4.07432e-08
9.30936e-06
9.06968e-06
6.86542e-09
4.06391e-05
6.81961e-09
4.10892e-05
6.78189e-09
4.15401e-05
6.75284e-09
4.19917e-05
6.7328e-09
4.24436e-05
6.71782e-09
4.28957e-05
6.71014e-09
4.33476e-05
6.71469e-09
4.3799e-05
6.7228e-09
4.42497e-05
6.74093e-09
4.46993e-05
6.76279e-09
4.51475e-05
6.78831e-09
4.55939e-05
6.8259e-09
4.60381e-05
6.86673e-09
4.64797e-05
6.90637e-09
4.69183e-05
6.95532e-09
4.73534e-05
7.00606e-09
4.77845e-05
7.05852e-09
4.82112e-05
7.11336e-09
4.86328e-05
7.16829e-09
4.90489e-05
7.22176e-09
4.94587e-05
7.27437e-09
4.98616e-05
7.32291e-09
5.0257e-05
7.36506e-09
5.0644e-05
7.40104e-09
5.1022e-05
7.42608e-09
5.13901e-05
7.43931e-09
5.17474e-05
7.43369e-09
5.2093e-05
7.41089e-09
5.15226e-05
7.36835e-09
5.00755e-05
7.30225e-09
4.86733e-05
7.21084e-09
4.73144e-05
7.09607e-09
4.59971e-05
6.95318e-09
4.472e-05
6.78429e-09
4.34816e-05
6.58183e-09
4.22806e-05
6.35241e-09
4.11156e-05
6.09393e-09
3.99853e-05
5.80501e-09
3.88887e-05
5.48788e-09
3.78244e-05
5.14195e-09
3.67915e-05
4.76975e-09
3.57888e-05
4.37077e-09
3.48153e-05
3.94701e-09
3.387e-05
3.50261e-09
3.2952e-05
3.03159e-09
3.20604e-05
2.54336e-09
3.11943e-05
2.03283e-09
3.03529e-05
1.50469e-09
2.95353e-05
9.58188e-10
2.87407e-05
3.93212e-10
2.79684e-05
-1.86849e-10
2.72178e-05
-7.82645e-10
2.6488e-05
-1.39823e-09
2.57784e-05
-2.02856e-09
2.50884e-05
-2.67491e-09
2.44174e-05
-3.33975e-09
2.37648e-05
-4.0189e-09
2.31299e-05
-4.7162e-09
2.25124e-05
-5.43305e-09
2.19116e-05
-6.16571e-09
2.13271e-05
-6.91984e-09
2.07584e-05
-7.69472e-09
2.0205e-05
-8.49013e-09
1.96665e-05
-9.30852e-09
1.91425e-05
-1.0154e-08
1.86326e-05
-1.10269e-08
1.81364e-05
-1.19314e-08
1.76535e-05
-1.28668e-08
1.71837e-05
-1.38354e-08
1.67265e-05
-1.48405e-08
1.62816e-05
-1.5881e-08
1.58488e-05
-1.69586e-08
1.54278e-05
-1.80693e-08
1.50182e-05
-1.92145e-08
1.46198e-05
-2.03899e-08
1.42323e-05
-2.15941e-08
1.38555e-05
-2.28194e-08
1.3489e-05
-2.40666e-08
1.31326e-05
-2.53306e-08
1.27861e-05
-2.66026e-08
1.24493e-05
-2.78797e-08
1.21218e-05
-2.9155e-08
1.18034e-05
-3.04272e-08
1.14939e-05
-3.16844e-08
1.11931e-05
-3.29233e-08
1.09007e-05
-3.41379e-08
1.06165e-05
-3.53217e-08
1.03402e-05
-3.64689e-08
1.00717e-05
-3.75718e-08
9.81068e-06
-3.86275e-08
9.55698e-06
-3.96297e-08
9.31036e-06
9.07062e-06
6.96678e-09
4.06391e-05
6.91786e-09
4.10892e-05
6.87656e-09
4.15402e-05
6.84741e-09
4.19917e-05
6.82395e-09
4.24437e-05
6.80623e-09
4.28957e-05
6.79944e-09
4.33476e-05
6.79646e-09
4.3799e-05
6.80189e-09
4.42497e-05
6.81812e-09
4.46993e-05
6.83597e-09
4.51475e-05
6.86416e-09
4.55939e-05
6.89356e-09
4.60381e-05
6.9284e-09
4.64797e-05
6.97249e-09
4.69183e-05
7.01624e-09
4.73534e-05
7.06355e-09
4.77845e-05
7.11571e-09
4.82111e-05
7.1657e-09
4.86328e-05
7.21798e-09
4.90488e-05
7.26959e-09
4.94586e-05
7.31908e-09
4.98615e-05
7.36625e-09
5.02569e-05
7.40348e-09
5.0644e-05
7.43801e-09
5.1022e-05
7.45946e-09
5.13901e-05
7.46487e-09
5.17474e-05
7.45793e-09
5.2093e-05
7.43366e-09
5.15226e-05
7.38431e-09
5.00755e-05
7.31331e-09
4.86734e-05
7.21878e-09
4.73145e-05
7.09882e-09
4.59972e-05
6.9485e-09
4.47201e-05
6.77032e-09
4.34818e-05
6.56837e-09
4.22808e-05
6.33195e-09
4.11158e-05
6.06776e-09
3.99856e-05
5.77576e-09
3.8889e-05
5.4516e-09
3.78247e-05
5.10265e-09
3.67918e-05
4.72661e-09
3.57891e-05
4.32506e-09
3.48157e-05
3.89916e-09
3.38704e-05
3.44737e-09
3.29525e-05
2.97928e-09
3.20609e-05
2.4882e-09
3.11948e-05
1.98053e-09
3.03534e-05
1.45444e-09
2.95358e-05
9.10971e-10
2.87412e-05
3.53922e-10
2.7969e-05
-2.21596e-10
2.72183e-05
-8.11985e-10
2.64886e-05
-1.41392e-09
2.5779e-05
-2.03425e-09
2.5089e-05
-2.66705e-09
2.4418e-05
-3.31472e-09
2.37654e-05
-3.9787e-09
2.31306e-05
-4.65895e-09
2.25131e-05
-5.35434e-09
2.19123e-05
-6.06921e-09
2.13278e-05
-6.79762e-09
2.07591e-05
-7.54706e-09
2.02057e-05
-8.31733e-09
1.96673e-05
-9.11131e-09
1.91433e-05
-9.93056e-09
1.86334e-05
-1.07756e-08
1.81372e-05
-1.16508e-08
1.76544e-05
-1.25565e-08
1.71846e-05
-1.34975e-08
1.67274e-05
-1.44724e-08
1.62826e-05
-1.54811e-08
1.58499e-05
-1.65252e-08
1.54288e-05
-1.76034e-08
1.50193e-05
-1.87143e-08
1.46209e-05
-1.98538e-08
1.42335e-05
-2.10193e-08
1.38566e-05
-2.22102e-08
1.34902e-05
-2.34171e-08
1.31338e-05
-2.46372e-08
1.27874e-05
-2.58694e-08
1.24505e-05
-2.71037e-08
1.2123e-05
-2.83372e-08
1.18046e-05
-2.95627e-08
1.14951e-05
-3.07761e-08
1.11943e-05
-3.19697e-08
1.09019e-05
-3.31394e-08
1.06176e-05
-3.42787e-08
1.03413e-05
-3.53824e-08
1.00728e-05
-3.64446e-08
9.81175e-06
-3.74601e-08
9.558e-06
-3.84226e-08
9.31133e-06
9.07153e-06
7.06217e-09
4.06392e-05
7.01283e-09
4.10893e-05
6.96695e-09
4.15402e-05
6.93196e-09
4.19918e-05
6.9056e-09
4.24437e-05
6.88776e-09
4.28957e-05
6.87646e-09
4.33476e-05
6.87598e-09
4.3799e-05
6.87727e-09
4.42497e-05
6.88918e-09
4.46993e-05
6.90472e-09
4.51475e-05
6.92564e-09
4.55939e-05
6.95611e-09
4.6038e-05
6.99088e-09
4.64796e-05
7.02924e-09
4.69182e-05
7.07305e-09
4.73533e-05
7.11922e-09
4.77844e-05
7.16415e-09
4.82111e-05
7.21538e-09
4.86327e-05
7.26567e-09
4.90487e-05
7.31484e-09
4.94586e-05
7.36157e-09
4.98615e-05
7.39999e-09
5.02569e-05
7.43755e-09
5.0644e-05
7.46577e-09
5.1022e-05
7.48189e-09
5.13901e-05
7.4881e-09
5.17474e-05
7.47701e-09
5.2093e-05
7.44446e-09
5.15227e-05
7.39159e-09
5.00756e-05
7.31588e-09
4.86735e-05
7.21541e-09
4.73146e-05
7.08658e-09
4.59974e-05
6.93473e-09
4.47203e-05
6.7534e-09
4.3482e-05
6.54009e-09
4.2281e-05
6.30414e-09
4.1116e-05
6.03192e-09
3.99859e-05
5.73526e-09
3.88893e-05
5.40956e-09
3.78251e-05
5.05564e-09
3.67922e-05
4.67624e-09
3.57895e-05
4.27257e-09
3.48161e-05
3.84596e-09
3.38709e-05
3.39652e-09
3.29529e-05
2.92552e-09
3.20614e-05
2.43952e-09
3.11953e-05
1.93185e-09
3.03539e-05
1.40861e-09
2.95363e-05
8.73791e-10
2.87418e-05
3.19403e-10
2.79696e-05
-2.44703e-10
2.72189e-05
-8.2403e-10
2.64891e-05
-1.41802e-09
2.57796e-05
-2.02181e-09
2.50896e-05
-2.63969e-09
2.44186e-05
-3.27139e-09
2.3766e-05
-3.91682e-09
2.31313e-05
-4.57511e-09
2.25137e-05
-5.24754e-09
2.1913e-05
-5.93514e-09
2.13285e-05
-6.64247e-09
2.07598e-05
-7.36412e-09
2.02065e-05
-8.10814e-09
1.9668e-05
-8.87346e-09
1.9144e-05
-9.66062e-09
1.86342e-05
-1.04755e-08
1.8138e-05
-1.13199e-08
1.76552e-05
-1.21954e-08
1.71854e-05
-1.31009e-08
1.67283e-05
-1.40409e-08
1.62835e-05
-1.50164e-08
1.58508e-05
-1.60255e-08
1.54299e-05
-1.70679e-08
1.50203e-05
-1.8139e-08
1.4622e-05
-1.92383e-08
1.42346e-05
-2.03654e-08
1.38578e-05
-2.15127e-08
1.34913e-05
-2.26793e-08
1.3135e-05
-2.38565e-08
1.27885e-05
-2.50426e-08
1.24517e-05
-2.62318e-08
1.21242e-05
-2.74196e-08
1.18058e-05
-2.85999e-08
1.14963e-05
-2.97667e-08
1.11955e-05
-3.09163e-08
1.0903e-05
-3.20422e-08
1.06188e-05
-3.31367e-08
1.03424e-05
-3.4197e-08
1.00739e-05
-3.52185e-08
9.81277e-06
-3.61938e-08
9.55897e-06
-3.71229e-08
9.31226e-06
9.0724e-06
7.15664e-09
4.06393e-05
7.10002e-09
4.10893e-05
7.05434e-09
4.15403e-05
7.01507e-09
4.19918e-05
6.98659e-09
4.24437e-05
6.9668e-09
4.28957e-05
6.95283e-09
4.33476e-05
6.94291e-09
4.37991e-05
6.9474e-09
4.42497e-05
6.95272e-09
4.46993e-05
6.96956e-09
4.51475e-05
6.99283e-09
4.55938e-05
7.01777e-09
4.6038e-05
7.04987e-09
4.64796e-05
7.08431e-09
4.69182e-05
7.12215e-09
4.73533e-05
7.16432e-09
4.77844e-05
7.21186e-09
4.82111e-05
7.25915e-09
4.86327e-05
7.30253e-09
4.90487e-05
7.34854e-09
4.94585e-05
7.38939e-09
4.98615e-05
7.43037e-09
5.02568e-05
7.46537e-09
5.06439e-05
7.48567e-09
5.1022e-05
7.50168e-09
5.13901e-05
7.50219e-09
5.17474e-05
7.48506e-09
5.2093e-05
7.44824e-09
5.15227e-05
7.39082e-09
5.00757e-05
7.31041e-09
4.86735e-05
7.20459e-09
4.73147e-05
7.07324e-09
4.59975e-05
6.91316e-09
4.47205e-05
6.72611e-09
4.34822e-05
6.5127e-09
4.22812e-05
6.26585e-09
4.11163e-05
5.99319e-09
3.99861e-05
5.69174e-09
3.88896e-05
5.36203e-09
3.78254e-05
5.00771e-09
3.67925e-05
4.62508e-09
3.57899e-05
4.2201e-09
3.48165e-05
3.79116e-09
3.38713e-05
3.3443e-09
3.29534e-05
2.87489e-09
3.20619e-05
2.38746e-09
3.11958e-05
1.88665e-09
3.03544e-05
1.3719e-09
2.95368e-05
8.39945e-10
2.87423e-05
2.96266e-10
2.79701e-05
-2.58452e-10
2.72195e-05
-8.25058e-10
2.64897e-05
-1.40286e-09
2.57802e-05
-1.99202e-09
2.50902e-05
-2.59462e-09
2.44193e-05
-3.20412e-09
2.37667e-05
-3.82611e-09
2.31319e-05
-4.46205e-09
2.25144e-05
-5.10874e-09
2.19136e-05
-5.77211e-09
2.13292e-05
-6.44677e-09
2.07605e-05
-7.14181e-09
2.02071e-05
-7.85373e-09
1.96687e-05
-8.58564e-09
1.91448e-05
-9.34227e-09
1.86349e-05
-1.01254e-08
1.81388e-05
-1.09333e-08
1.7656e-05
-1.17728e-08
1.71863e-05
-1.26426e-08
1.67292e-05
-1.35458e-08
1.62845e-05
-1.44827e-08
1.58518e-05
-1.54523e-08
1.54308e-05
-1.64521e-08
1.50213e-05
-1.74834e-08
1.4623e-05
-1.85431e-08
1.42356e-05
-1.96256e-08
1.38588e-05
-2.07268e-08
1.34924e-05
-2.18468e-08
1.31361e-05
-2.29808e-08
1.27897e-05
-2.41192e-08
1.24528e-05
-2.52634e-08
1.21253e-05
-2.64042e-08
1.1807e-05
-2.75374e-08
1.14975e-05
-2.86573e-08
1.11966e-05
-2.97612e-08
1.09041e-05
-3.08394e-08
1.06198e-05
-3.18936e-08
1.03435e-05
-3.29122e-08
1.00749e-05
-3.38944e-08
9.81375e-06
-3.4834e-08
9.55991e-06
-3.57277e-08
9.31315e-06
9.07325e-06
7.24009e-09
4.06393e-05
7.18191e-09
4.10894e-05
7.13671e-09
4.15403e-05
7.09472e-09
4.19918e-05
7.06086e-09
4.24437e-05
7.03695e-09
4.28958e-05
7.02053e-09
4.33476e-05
7.01331e-09
4.37991e-05
7.01074e-09
4.42497e-05
7.01623e-09
4.46993e-05
7.02723e-09
4.51475e-05
7.04296e-09
4.55938e-05
7.06684e-09
4.6038e-05
7.09393e-09
4.64796e-05
7.12946e-09
4.69181e-05
7.16759e-09
4.73532e-05
7.20773e-09
4.77844e-05
7.24816e-09
4.8211e-05
7.28947e-09
4.86326e-05
7.33585e-09
4.90487e-05
7.37545e-09
4.94585e-05
7.41796e-09
4.98614e-05
7.45108e-09
5.02568e-05
7.47996e-09
5.06439e-05
7.50203e-09
5.10219e-05
7.51118e-09
5.13901e-05
7.50805e-09
5.17474e-05
7.4826e-09
5.2093e-05
7.44296e-09
5.15227e-05
7.38137e-09
5.00757e-05
7.29347e-09
4.86736e-05
7.18418e-09
4.73148e-05
7.04944e-09
4.59976e-05
6.88559e-09
4.47206e-05
6.69157e-09
4.34824e-05
6.47281e-09
4.22814e-05
6.22494e-09
4.11165e-05
5.94807e-09
3.99864e-05
5.64179e-09
3.88899e-05
5.31146e-09
3.78257e-05
4.95115e-09
3.67929e-05
4.56866e-09
3.57903e-05
4.16178e-09
3.48169e-05
3.73657e-09
3.38717e-05
3.28817e-09
3.29538e-05
2.82449e-09
3.20623e-05
2.3436e-09
3.11963e-05
1.8486e-09
3.03549e-05
1.33763e-09
2.95373e-05
8.16419e-10
2.87428e-05
2.85841e-10
2.79706e-05
-2.59388e-10
2.722e-05
-8.11171e-10
2.64903e-05
-1.3721e-09
2.57807e-05
-1.94335e-09
2.50908e-05
-2.52214e-09
2.44198e-05
-3.11118e-09
2.37672e-05
-3.70944e-09
2.31325e-05
-4.31745e-09
2.2515e-05
-4.93869e-09
2.19143e-05
-5.56746e-09
2.13298e-05
-6.21423e-09
2.07611e-05
-6.87428e-09
2.02078e-05
-7.5519e-09
1.96694e-05
-8.25045e-09
1.91455e-05
-8.97208e-09
1.86357e-05
-9.71509e-09
1.81396e-05
-1.04868e-08
1.76568e-05
-1.12875e-08
1.71871e-05
-1.21209e-08
1.673e-05
-1.29831e-08
1.62853e-05
-1.38777e-08
1.58527e-05
-1.48028e-08
1.54317e-05
-1.57608e-08
1.50223e-05
-1.67469e-08
1.4624e-05
-1.77584e-08
1.42366e-05
-1.87943e-08
1.38599e-05
-1.9852e-08
1.34935e-05
-2.09238e-08
1.31372e-05
-2.20059e-08
1.27908e-05
-2.30994e-08
1.24539e-05
-2.41922e-08
1.21264e-05
-2.52849e-08
1.18081e-05
-2.63699e-08
1.14985e-05
-2.74439e-08
1.11977e-05
-2.85007e-08
1.09052e-05
-2.95372e-08
1.06209e-05
-3.05462e-08
1.03445e-05
-3.15248e-08
1.00758e-05
-3.24696e-08
9.8147e-06
-3.33761e-08
9.56082e-06
-3.42413e-08
9.31402e-06
9.07407e-06
7.31684e-09
4.06394e-05
7.2578e-09
4.10894e-05
7.20833e-09
4.15403e-05
7.1659e-09
4.19919e-05
7.12991e-09
4.24438e-05
7.10268e-09
4.28958e-05
7.08348e-09
4.33477e-05
7.07154e-09
4.37991e-05
7.06665e-09
4.42497e-05
7.06998e-09
4.46993e-05
7.07862e-09
4.51474e-05
7.09394e-09
4.55938e-05
7.11493e-09
4.6038e-05
7.13999e-09
4.64796e-05
7.16832e-09
4.69181e-05
7.20292e-09
4.73532e-05
7.24001e-09
4.77843e-05
7.27986e-09
4.8211e-05
7.31884e-09
4.86326e-05
7.35887e-09
4.90486e-05
7.39818e-09
4.94584e-05
7.43377e-09
4.98614e-05
7.46563e-09
5.02568e-05
7.48854e-09
5.06439e-05
7.50683e-09
5.10219e-05
7.5096e-09
5.13901e-05
7.50043e-09
5.17474e-05
7.47826e-09
5.2093e-05
7.43061e-09
5.15228e-05
7.36429e-09
5.00758e-05
7.27283e-09
4.86737e-05
7.15586e-09
4.73149e-05
7.01264e-09
4.59978e-05
6.8464e-09
4.47208e-05
6.65203e-09
4.34825e-05
6.42668e-09
4.22816e-05
6.17288e-09
4.11168e-05
5.89342e-09
3.99867e-05
5.58516e-09
3.88902e-05
5.25303e-09
3.78261e-05
4.89305e-09
3.67932e-05
4.50897e-09
3.57907e-05
4.10545e-09
3.48173e-05
3.68048e-09
3.38721e-05
3.23723e-09
3.29543e-05
2.77697e-09
3.20628e-05
2.30134e-09
3.11968e-05
1.81305e-09
3.03554e-05
1.31324e-09
2.95378e-05
8.03267e-10
2.87433e-05
2.83884e-10
2.79711e-05
-2.42809e-10
2.72205e-05
-7.79175e-10
2.64908e-05
-1.32049e-09
2.57813e-05
-1.86953e-09
2.50913e-05
-2.42473e-09
2.44204e-05
-2.98937e-09
2.37678e-05
-3.56091e-09
2.3133e-05
-4.13875e-09
2.25156e-05
-4.72678e-09
2.19148e-05
-5.32731e-09
2.13304e-05
-5.938e-09
2.07617e-05
-6.562e-09
2.02084e-05
-7.2039e-09
1.967e-05
-7.86462e-09
1.91461e-05
-8.54276e-09
1.86363e-05
-9.24837e-09
1.81403e-05
-9.97938e-09
1.76575e-05
-1.0737e-08
1.71878e-05
-1.15246e-08
1.67308e-05
-1.23443e-08
1.62861e-05
-1.31928e-08
1.58535e-05
-1.4074e-08
1.54326e-05
-1.49845e-08
1.50232e-05
-1.5921e-08
1.4625e-05
-1.68869e-08
1.42376e-05
-1.78707e-08
1.38609e-05
-1.88769e-08
1.34945e-05
-1.98979e-08
1.31382e-05
-2.09328e-08
1.27918e-05
-2.19728e-08
1.2455e-05
-2.30171e-08
1.21275e-05
-2.40589e-08
1.18091e-05
-2.50953e-08
1.14996e-05
-2.61226e-08
1.11987e-05
-2.71327e-08
1.09062e-05
-2.81261e-08
1.06219e-05
-2.90941e-08
1.03455e-05
-3.00364e-08
1.00768e-05
-3.09457e-08
9.8156e-06
-3.18223e-08
9.5617e-06
-3.26596e-08
9.31485e-06
9.07486e-06
7.39045e-09
4.06395e-05
7.32945e-09
4.10895e-05
7.27155e-09
4.15404e-05
7.22796e-09
4.19919e-05
7.19121e-09
4.24438e-05
7.16052e-09
4.28958e-05
7.13811e-09
4.33477e-05
7.12513e-09
4.37991e-05
7.11827e-09
4.42497e-05
7.11719e-09
4.46993e-05
7.12029e-09
4.51474e-05
7.13545e-09
4.55938e-05
7.15232e-09
4.6038e-05
7.17491e-09
4.64795e-05
7.20277e-09
4.69181e-05
7.23263e-09
4.73532e-05
7.26507e-09
4.77843e-05
7.30214e-09
4.82109e-05
7.33971e-09
4.86326e-05
7.37394e-09
4.90486e-05
7.40988e-09
4.94584e-05
7.43963e-09
4.98614e-05
7.46774e-09
5.02568e-05
7.4893e-09
5.06439e-05
7.5005e-09
5.10219e-05
7.5036e-09
5.13901e-05
7.48829e-09
5.17474e-05
7.45606e-09
5.20931e-05
7.40741e-09
5.15228e-05
7.33139e-09
5.00759e-05
7.23798e-09
4.86738e-05
7.117e-09
4.7315e-05
6.97335e-09
4.59979e-05
6.79969e-09
4.4721e-05
6.5993e-09
4.34827e-05
6.37087e-09
4.22819e-05
6.11528e-09
4.1117e-05
5.83194e-09
3.9987e-05
5.52546e-09
3.88905e-05
5.18828e-09
3.78264e-05
4.83018e-09
3.67936e-05
4.44944e-09
3.5791e-05
4.0467e-09
3.48177e-05
3.6232e-09
3.38726e-05
3.18692e-09
3.29547e-05
2.73125e-09
3.20632e-05
2.26544e-09
3.11972e-05
1.78752e-09
3.03559e-05
1.30047e-09
2.95383e-05
8.03668e-10
2.87438e-05
2.99275e-10
2.79717e-05
-2.10204e-10
2.7221e-05
-7.25817e-10
2.64913e-05
-1.24766e-09
2.57818e-05
-1.77246e-09
2.50919e-05
-2.30324e-09
2.44209e-05
-2.83767e-09
2.37683e-05
-3.37652e-09
2.31336e-05
-3.92479e-09
2.25161e-05
-4.47781e-09
2.19154e-05
-5.04033e-09
2.1331e-05
-5.61375e-09
2.07623e-05
-6.20031e-09
2.0209e-05
-6.80096e-09
1.96706e-05
-7.41805e-09
1.91468e-05
-8.05792e-09
1.8637e-05
-8.71922e-09
1.81409e-05
-9.40435e-09
1.76582e-05
-1.01176e-08
1.71885e-05
-1.08591e-08
1.67315e-05
-1.16287e-08
1.62869e-05
-1.24303e-08
1.58543e-05
-1.32609e-08
1.54335e-05
-1.41181e-08
1.50241e-05
-1.50063e-08
1.46258e-05
-1.59168e-08
1.42385e-05
-1.68517e-08
1.38618e-05
-1.78049e-08
1.34954e-05
-1.8773e-08
1.31392e-05
-1.97529e-08
1.27928e-05
-2.07412e-08
1.2456e-05
-2.17339e-08
1.21285e-05
-2.27263e-08
1.18101e-05
-2.3715e-08
1.15006e-05
-2.46922e-08
1.11997e-05
-2.56589e-08
1.09072e-05
-2.66077e-08
1.06228e-05
-2.75366e-08
1.03464e-05
-2.84428e-08
1.00777e-05
-2.93214e-08
9.81648e-06
-3.01693e-08
9.56255e-06
-3.09842e-08
9.31567e-06
9.07565e-06
7.45002e-09
4.06395e-05
7.38809e-09
4.10896e-05
7.33342e-09
4.15405e-05
7.28348e-09
4.1992e-05
7.24443e-09
4.24439e-05
7.21117e-09
4.28959e-05
7.18691e-09
4.33477e-05
7.17125e-09
4.37991e-05
7.16044e-09
4.42497e-05
7.15578e-09
4.46993e-05
7.16046e-09
4.51474e-05
7.16862e-09
4.55938e-05
7.18334e-09
4.60379e-05
7.20269e-09
4.64795e-05
7.22531e-09
4.69181e-05
7.25365e-09
4.73531e-05
7.28305e-09
4.77843e-05
7.31252e-09
4.82109e-05
7.34703e-09
4.86325e-05
7.37846e-09
4.90486e-05
7.41224e-09
4.94584e-05
7.43919e-09
4.98613e-05
7.46247e-09
5.02567e-05
7.48011e-09
5.06438e-05
7.48714e-09
5.10219e-05
7.48109e-09
5.13901e-05
7.46517e-09
5.17474e-05
7.42827e-09
5.20931e-05
7.37123e-09
5.15229e-05
7.2977e-09
5.00759e-05
7.19521e-09
4.86739e-05
7.07157e-09
4.73151e-05
6.91904e-09
4.59981e-05
6.74245e-09
4.47211e-05
6.53956e-09
4.34829e-05
6.30773e-09
4.22821e-05
6.05229e-09
4.11173e-05
5.76769e-09
3.99873e-05
5.4553e-09
3.88908e-05
5.12182e-09
3.78267e-05
4.76481e-09
3.6794e-05
4.38471e-09
3.57914e-05
3.98584e-09
3.48181e-05
3.56962e-09
3.3873e-05
3.13713e-09
3.29552e-05
2.69298e-09
3.20637e-05
2.23532e-09
3.11977e-05
1.76855e-09
3.03563e-05
1.29543e-09
2.95388e-05
8.15102e-10
2.87443e-05
3.28777e-10
2.79721e-05
-1.61652e-10
2.72215e-05
-6.53244e-10
2.64918e-05
-1.14957e-09
2.57823e-05
-1.64668e-09
2.50924e-05
-2.14791e-09
2.44214e-05
-2.65211e-09
2.37688e-05
-3.1589e-09
2.31341e-05
-3.66929e-09
2.25166e-05
-4.18482e-09
2.19159e-05
-4.7084e-09
2.13315e-05
-5.24096e-09
2.07628e-05
-5.78459e-09
2.02096e-05
-6.3418e-09
1.96712e-05
-6.91529e-09
1.91473e-05
-7.50777e-09
1.86376e-05
-8.1206e-09
1.81415e-05
-8.75859e-09
1.76589e-05
-9.42122e-09
1.71892e-05
-1.01114e-08
1.67322e-05
-1.08315e-08
1.62876e-05
-1.15802e-08
1.58551e-05
-1.23566e-08
1.54342e-05
-1.31641e-08
1.50249e-05
-1.3994e-08
1.46267e-05
-1.48503e-08
1.42394e-05
-1.57298e-08
1.38627e-05
-1.66265e-08
1.34963e-05
-1.75411e-08
1.31401e-05
-1.84676e-08
1.27937e-05
-1.94014e-08
1.24569e-05
-2.03413e-08
1.21294e-05
-2.12824e-08
1.1811e-05
-2.22195e-08
1.15015e-05
-2.31528e-08
1.12006e-05
-2.40743e-08
1.09081e-05
-2.49822e-08
1.06237e-05
-2.5874e-08
1.03473e-05
-2.67463e-08
1.00786e-05
-2.75949e-08
9.81733e-06
-2.84199e-08
9.56337e-06
-2.92165e-08
9.31646e-06
9.07641e-06
7.50441e-09
4.06396e-05
7.43483e-09
4.10896e-05
7.37858e-09
4.15405e-05
7.33054e-09
4.1992e-05
7.28525e-09
4.24439e-05
7.25318e-09
4.28959e-05
7.2263e-09
4.33477e-05
7.20349e-09
4.37991e-05
7.19278e-09
4.42498e-05
7.18577e-09
4.46993e-05
7.18759e-09
4.51474e-05
7.19225e-09
4.55938e-05
7.20468e-09
4.60379e-05
7.2208e-09
4.64795e-05
7.23884e-09
4.6918e-05
7.26304e-09
4.73531e-05
7.28919e-09
4.77842e-05
7.32061e-09
4.82109e-05
7.34726e-09
4.86325e-05
7.37843e-09
4.90485e-05
7.40301e-09
4.94583e-05
7.42794e-09
4.98613e-05
7.44763e-09
5.02567e-05
7.45701e-09
5.06438e-05
7.46113e-09
5.10219e-05
7.45225e-09
5.13901e-05
7.42909e-09
5.17475e-05
7.39049e-09
5.20931e-05
7.32973e-09
5.15229e-05
7.24573e-09
5.0076e-05
7.14211e-09
4.8674e-05
7.01239e-09
4.73153e-05
6.8592e-09
4.59982e-05
6.67781e-09
4.47213e-05
6.47242e-09
4.34832e-05
6.23875e-09
4.22823e-05
5.97798e-09
4.11176e-05
5.69234e-09
3.99875e-05
5.38514e-09
3.88911e-05
5.04962e-09
3.78271e-05
4.69454e-09
3.67943e-05
4.32051e-09
3.57918e-05
3.92543e-09
3.48185e-05
3.51666e-09
3.38734e-05
3.09236e-09
3.29556e-05
2.65693e-09
3.20641e-05
2.21325e-09
3.11981e-05
1.76123e-09
3.03568e-05
1.3014e-09
2.95393e-05
8.3955e-10
2.87448e-05
3.76375e-10
2.79726e-05
-9.07877e-11
2.7222e-05
-5.58342e-10
2.64923e-05
-1.02524e-09
2.57828e-05
-1.49573e-09
2.50928e-05
-1.96199e-09
2.44219e-05
-2.42994e-09
2.37693e-05
-2.89975e-09
2.31346e-05
-3.37112e-09
2.25171e-05
-3.84868e-09
2.19164e-05
-4.32993e-09
2.1332e-05
-4.81629e-09
2.07633e-05
-5.31372e-09
2.02101e-05
-5.82289e-09
1.96717e-05
-6.34784e-09
1.91479e-05
-6.88988e-09
1.86381e-05
-7.45318e-09
1.81421e-05
-8.03783e-09
1.76594e-05
-8.64955e-09
1.71898e-05
-9.2854e-09
1.67329e-05
-9.94973e-09
1.62883e-05
-1.06413e-08
1.58557e-05
-1.13618e-08
1.5435e-05
-1.21098e-08
1.50256e-05
-1.28858e-08
1.46274e-05
-1.36835e-08
1.42402e-05
-1.45029e-08
1.38635e-05
-1.53432e-08
1.34972e-05
-1.62005e-08
1.3141e-05
-1.70702e-08
1.27946e-05
-1.79499e-08
1.24578e-05
-1.8836e-08
1.21303e-05
-1.9726e-08
1.18119e-05
-2.06141e-08
1.15024e-05
-2.14992e-08
1.12015e-05
-2.23784e-08
1.0909e-05
-2.32478e-08
1.06246e-05
-2.41043e-08
1.03481e-05
-2.49448e-08
1.00794e-05
-2.57698e-08
9.81816e-06
-2.65727e-08
9.56417e-06
-2.73552e-08
9.31725e-06
9.07717e-06
7.54363e-09
4.06397e-05
7.47805e-09
4.10897e-05
7.41735e-09
4.15406e-05
7.36494e-09
4.19921e-05
7.32255e-09
4.24439e-05
7.28173e-09
4.28959e-05
7.25507e-09
4.33478e-05
7.23197e-09
4.37991e-05
7.21318e-09
4.42498e-05
7.20578e-09
4.46993e-05
7.20393e-09
4.51474e-05
7.2055e-09
4.55938e-05
7.21332e-09
4.60379e-05
7.22674e-09
4.64795e-05
7.2464e-09
4.6918e-05
7.26317e-09
4.73531e-05
7.28747e-09
4.77842e-05
7.31038e-09
4.82109e-05
7.33713e-09
4.86325e-05
7.3609e-09
4.90485e-05
7.38467e-09
4.94583e-05
7.40442e-09
4.98613e-05
7.41724e-09
5.02567e-05
7.42685e-09
5.06438e-05
7.42469e-09
5.10219e-05
7.41206e-09
5.13901e-05
7.38575e-09
5.17475e-05
7.33874e-09
5.20932e-05
7.27367e-09
5.1523e-05
7.18671e-09
5.00761e-05
7.0764e-09
4.86741e-05
6.94449e-09
4.73154e-05
6.78475e-09
4.59984e-05
6.60351e-09
4.47215e-05
6.3931e-09
4.34834e-05
6.15907e-09
4.22826e-05
5.89959e-09
4.11178e-05
5.61433e-09
3.99878e-05
5.30434e-09
3.88914e-05
4.97454e-09
3.78274e-05
4.62206e-09
3.67947e-05
4.2523e-09
3.57922e-05
3.86609e-09
3.48189e-05
3.46325e-09
3.38738e-05
3.05111e-09
3.2956e-05
2.62926e-09
3.20645e-05
2.19894e-09
3.11986e-05
1.76406e-09
3.03572e-05
1.32625e-09
2.95397e-05
8.84388e-10
2.87452e-05
4.42193e-10