/*--------------------------------*- C++ -*----------------------------------*\
  =========                 |
  \\      /  F ield         | OpenFOAM: The Open Source CFD Toolbox
   \\    /   O peration     | Website:  https://openfoam.org
    \\  /    A nd           | Version:  10
     \\/     M anipulation  |
\*---------------------------------------------------------------------------*/
FoamFile
{
    format      ascii;
    class       volScalarField;
    location    "12000";
    object      nut;
}
// * * * * * * * * * * * * * * * * * * * * * * * * * * * * * * * * * * * * * //

dimensions      [0 2 -1 0 0 0 0];

internalField   nonuniform List<scalar> 
17922
(
0.00317722
0.0032199
0.00326237
0.00330457
0.00334647
0.00338802
0.00342917
0.00346988
0.00351008
0.00354972
0.00358874
0.00362707
0.00366465
0.0037014
0.00373724
0.0037721
0.00380589
0.00383852
0.00386989
0.00389991
0.00392847
0.00395546
0.00398076
0.00400425
0.00402579
0.00404525
0.00406246
0.00406292
0.00405374
0.00403724
0.00401723
0.00399516
0.00397168
0.00394689
0.00392076
0.00389318
0.00386409
0.0038334
0.00380104
0.00376696
0.00373111
0.00369348
0.00365412
0.00361314
0.00357069
0.00352698
0.00348224
0.00343672
0.00339064
0.00334425
0.00329775
0.00325131
0.00320508
0.00315918
0.0031137
0.00306869
0.00302419
0.00298024
0.00293683
0.00289395
0.00285161
0.00280978
0.00276844
0.00272759
0.0026872
0.00264727
0.00260781
0.00256882
0.00253031
0.00249229
0.00245476
0.00241773
0.00238121
0.00234516
0.00230958
0.00227442
0.00223961
0.00220505
0.00217067
0.00213637
0.00210215
0.00206805
0.00203419
0.00200074
0.00196778
0.00193531
0.00190313
0.00187102
0.00183894
0.00180747
0.00177827
0.00175436
0.00173894
0.00317702
0.0032197
0.00326215
0.00330434
0.00334622
0.00338775
0.00342889
0.00346958
0.00350976
0.00354938
0.00358838
0.00362669
0.00366424
0.00370097
0.00373679
0.00377163
0.0038054
0.003838
0.00386935
0.00389935
0.00392788
0.00395484
0.00398012
0.00400358
0.0040251
0.00404452
0.0040617
0.0040617
0.00405184
0.00403477
0.00401441
0.00399208
0.00396841
0.00394348
0.00391725
0.00388961
0.00386048
0.00382978
0.00379743
0.00376337
0.00372754
0.00368996
0.00365066
0.00360974
0.00356735
0.00352371
0.00347903
0.00343356
0.00338754
0.00334119
0.00329472
0.00324831
0.0032021
0.00315621
0.00311073
0.00306572
0.00302123
0.00297727
0.00293386
0.00289098
0.00284864
0.00280681
0.00276548
0.00272464
0.00268426
0.00264436
0.00260492
0.00256595
0.00252747
0.00248948
0.00245199
0.00241501
0.00237853
0.00234253
0.00230701
0.0022719
0.00223715
0.00220266
0.00216835
0.00213414
0.00210001
0.00206601
0.00203227
0.00199893
0.00196607
0.00193367
0.00190155
0.00186951
0.00183753
0.00180626
0.00177742
0.0017541
0.00173951
0.00317685
0.00321951
0.00326195
0.00330412
0.00334599
0.00338751
0.00342863
0.00346929
0.00350946
0.00354906
0.00358804
0.00362633
0.00366387
0.00370057
0.00373637
0.00377119
0.00380493
0.00383751
0.00386884
0.00389881
0.00392732
0.00395425
0.0039795
0.00400294
0.00402443
0.00404383
0.00406075
0.00405994
0.00404951
0.00403204
0.00401134
0.00398873
0.00396482
0.00393972
0.00391335
0.00388561
0.0038564
0.00382565
0.00379326
0.00375918
0.00372335
0.00368578
0.0036465
0.00360562
0.00356328
0.00351968
0.00347504
0.00342961
0.00338363
0.00333731
0.00329087
0.00324447
0.00319828
0.0031524
0.00310692
0.00306191
0.00301742
0.00297346
0.00293004
0.00288717
0.00284483
0.00280301
0.00276169
0.00272086
0.00268051
0.00264063
0.00260122
0.00256229
0.00252385
0.0024859
0.00244846
0.00241154
0.00237511
0.00233919
0.00230373
0.0022687
0.00223403
0.00219962
0.0021654
0.00213128
0.00209726
0.00206339
0.00202978
0.00199657
0.00196384
0.00193154
0.00189951
0.00186754
0.00183569
0.00180465
0.00177621
0.00175352
0.0017398
0.00317668
0.00321933
0.00326175
0.00330391
0.00334577
0.00338727
0.00342837
0.00346902
0.00350917
0.00354876
0.00358772
0.00362599
0.0036635
0.00370019
0.00373597
0.00377076
0.00380448
0.00383704
0.00386835
0.00389829
0.00392678
0.00395369
0.00397892
0.00400233
0.0040238
0.00404317
0.00405875
0.00405774
0.0040468
0.00402904
0.00400803
0.00398515
0.00396102
0.00393572
0.00390919
0.00388133
0.00385203
0.0038212
0.00378876
0.00375464
0.0037188
0.00368123
0.00364196
0.0036011
0.0035588
0.00351524
0.00347065
0.00342526
0.00337932
0.00333304
0.00328663
0.00324026
0.00319409
0.00314823
0.00310276
0.00305777
0.00301328
0.00296934
0.00292593
0.00288308
0.00284075
0.00279896
0.00275766
0.00271686
0.00267655
0.00263671
0.00259735
0.00255847
0.00252008
0.0024822
0.00244483
0.00240797
0.00237162
0.00233578
0.00230041
0.00226546
0.00223088
0.00219656
0.00216244
0.00212843
0.00209453
0.00206079
0.00202731
0.00199423
0.00196162
0.00192943
0.00189748
0.00186561
0.0018339
0.00180311
0.00177512
0.00175314
0.0017404
0.00317652
0.00321915
0.00326157
0.00330371
0.00334555
0.00338704
0.00342813
0.00346877
0.0035089
0.00354846
0.00358741
0.00362566
0.00366316
0.00369983
0.00373559
0.00377036
0.00380406
0.0038366
0.00386788
0.0038978
0.00392627
0.00395316
0.00397836
0.00400175
0.00402319
0.00404254
0.00405676
0.00405542
0.004044
0.00402599
0.00400471
0.00398161
0.00395727
0.0039318
0.00390513
0.00387715
0.00384776
0.00381686
0.00378437
0.00375022
0.00371437
0.0036768
0.00363756
0.00359673
0.00355447
0.00351096
0.00346642
0.00342109
0.0033752
0.00332897
0.0032826
0.00323627
0.00319013
0.0031443
0.00309886
0.00305389
0.00300943
0.0029655
0.00292212
0.00287929
0.00283699
0.00279523
0.00275397
0.00271321
0.00267293
0.00263314
0.00259383
0.00255501
0.00251669
0.00247887
0.00244157
0.00240478
0.00236851
0.00233275
0.00229746
0.0022626
0.0022281
0.00219388
0.00215984
0.00212593
0.00209214
0.00205851
0.00202516
0.0019922
0.0019597
0.00192759
0.00189573
0.00186395
0.00183239
0.00180188
0.00177439
0.0017532
0.00174154
0.00317637
0.00321899
0.00326139
0.00330353
0.00334535
0.00338683
0.0034279
0.00346852
0.00350864
0.00354819
0.00358711
0.00362535
0.00366283
0.00369948
0.00373522
0.00376997
0.00380365
0.00383617
0.00386743
0.00389734
0.00392578
0.00395265
0.00397784
0.0040012
0.00402262
0.00404194
0.004055
0.00405318
0.00404129
0.00402301
0.0040015
0.00397819
0.00395368
0.00392805
0.00390126
0.00387318
0.00384372
0.00381276
0.00378024
0.00374607
0.00371021
0.00367266
0.00363344
0.00359266
0.00355045
0.003507
0.00346253
0.00341726
0.00337143
0.00332525
0.00327894
0.00323266
0.00318656
0.00314077
0.00309537
0.00305043
0.00300599
0.00296209
0.00291874
0.00287594
0.00283367
0.00279194
0.00275072
0.00271
0.00266977
0.00263003
0.00259078
0.00255201
0.00251375
0.002476
0.00243876
0.00240204
0.00236585
0.00233016
0.00229495
0.00226017
0.00222575
0.0021916
0.00215765
0.00212382
0.00209012
0.0020566
0.00202335
0.00199049
0.00195808
0.00192605
0.00189426
0.00186259
0.00183121
0.00180103
0.0017741
0.00175379
0.00174332
0.00317622
0.00321883
0.00326122
0.00330335
0.00334516
0.00338662
0.00342768
0.00346829
0.00350839
0.00354792
0.00358683
0.00362505
0.00366252
0.00369915
0.00373487
0.00376961
0.00380327
0.00383577
0.00386701
0.0038969
0.00392532
0.00395217
0.00397734
0.00400068
0.00402208
0.00404137
0.00405342
0.00405106
0.00403872
0.00402015
0.00399841
0.00397492
0.00395024
0.00392449
0.00389759
0.00386944
0.00383991
0.00380891
0.00377636
0.00374219
0.00370634
0.00366881
0.00362964
0.00358891
0.00354676
0.00350338
0.00345898
0.00341378
0.00336802
0.00332191
0.00327566
0.00322944
0.00318339
0.00313764
0.00309228
0.00304738
0.00300298
0.00295912
0.0029158
0.00287303
0.0028308
0.00278911
0.00274793
0.00270725
0.00266707
0.00262738
0.00258818
0.00254948
0.00251127
0.00247358
0.00243641
0.00239976
0.00236364
0.00232802
0.00229288
0.00225817
0.00222382
0.00218974
0.00215585
0.0021221
0.00208847
0.00205503
0.00202187
0.0019891
0.00195677
0.00192482
0.0018931
0.00186154
0.00183037
0.00180057
0.00177428
0.00175494
0.00174577
0.00317608
0.00321869
0.00326106
0.00330318
0.00334498
0.00338643
0.00342747
0.00346807
0.00350815
0.00354767
0.00358657
0.00362477
0.00366222
0.00369883
0.00373454
0.00376926
0.0038029
0.00383539
0.00386661
0.00389648
0.00392489
0.00395172
0.00397687
0.00400019
0.00402157
0.00404084
0.00405195
0.00404908
0.00403631
0.00401744
0.00399546
0.00397179
0.00394697
0.0039211
0.00389412
0.0038659
0.00383633
0.00380531
0.00377275
0.00373859
0.00370276
0.00366527
0.00362615
0.00358548
0.0035434
0.0035001
0.00345578
0.00341067
0.00336499
0.00331896
0.00327278
0.00322662
0.00318063
0.00313494
0.00308963
0.00304477
0.00300042
0.00295659
0.00291331
0.00287058
0.00282839
0.00278674
0.0027456
0.00270497
0.00266484
0.0026252
0.00258605
0.0025474
0.00250926
0.00247162
0.00243451
0.00239793
0.00236187
0.00232632
0.00229124
0.00225659
0.0022223
0.00218828
0.00215444
0.00212075
0.00208718
0.00205381
0.00202073
0.00198803
0.00195576
0.00192388
0.00189225
0.00186082
0.00182989
0.00180052
0.00177495
0.00175667
0.00174893
0.00317595
0.00321855
0.00326091
0.00330301
0.00334481
0.00338624
0.00342728
0.00346786
0.00350793
0.00354744
0.00358632
0.00362451
0.00366194
0.00369854
0.00373423
0.00376893
0.00380256
0.00383503
0.00386623
0.00389609
0.00392448
0.0039513
0.00397642
0.00399973
0.00402109
0.00404033
0.00405059
0.00404722
0.00403405
0.00401488
0.00399267
0.00396882
0.00394387
0.0039179
0.00389085
0.00386258
0.00383299
0.00380196
0.00376941
0.00373526
0.00369947
0.00366203
0.00362297
0.00358238
0.00354039
0.00349718
0.00345295
0.00340793
0.00336234
0.00331639
0.00327029
0.00322421
0.00317829
0.00313266
0.0030874
0.0030426
0.00299829
0.00295451
0.00291127
0.00286858
0.00282644
0.00278483
0.00274374
0.00270315
0.00266307
0.00262348
0.00258438
0.00254578
0.00250769
0.00247011
0.00243306
0.00239653
0.00236053
0.00232504
0.00229002
0.00225542
0.00222118
0.0021872
0.0021534
0.00211975
0.00208624
0.00205292
0.00201989
0.00198725
0.00195505
0.00192323
0.00189168
0.0018604
0.00182976
0.00180089
0.00177611
0.00175901
0.00175283
0.00317583
0.00321842
0.00326077
0.00330286
0.00334464
0.00338607
0.00342709
0.00346766
0.00350772
0.00354721
0.00358608
0.00362426
0.00366167
0.00369826
0.00373393
0.00376862
0.00380224
0.00383469
0.00386588
0.00389572
0.00392409
0.0039509
0.00397601
0.0039993
0.00402064
0.00403986
0.00404933
0.0040455
0.00403194
0.00401247
0.00399003
0.00396602
0.00394094
0.00391488
0.00388777
0.00385947
0.00382987
0.00379885
0.00376632
0.0037322
0.00369647
0.00365909
0.0036201
0.0035796
0.0035377
0.00349459
0.00345047
0.00340555
0.00336006
0.00331421
0.0032682
0.00322219
0.00317635
0.00313079
0.00308559
0.00304084
0.00299659
0.00295286
0.00290967
0.00286703
0.00282493
0.00278336
0.00274232
0.00270178
0.00266174
0.0026222
0.00258315
0.0025446
0.00250656
0.00246903
0.00243203
0.00239556
0.00235961
0.00232416
0.00228919
0.00225464
0.00222043
0.00218648
0.00215272
0.00211909
0.00208561
0.00205233
0.00201935
0.00198676
0.0019546
0.00192284
0.00189139
0.00186029
0.00182997
0.00180167
0.00177779
0.00176198
0.00175751
0.00317572
0.00321829
0.00326064
0.00330272
0.00334449
0.00338591
0.00342692
0.00346747
0.00350752
0.003547
0.00358586
0.00362402
0.00366143
0.003698
0.00373366
0.00376833
0.00380193
0.00383437
0.00386555
0.00389537
0.00392374
0.00395052
0.00397562
0.0039989
0.00402022
0.00403943
0.00404816
0.00404391
0.00402999
0.00401022
0.00398756
0.00396338
0.00393818
0.00391205
0.00388489
0.00385657
0.00382697
0.00379597
0.00376348
0.00372941
0.00369374
0.00365644
0.00361754
0.00357713
0.00353534
0.00349234
0.00344833
0.00340353
0.00335814
0.0033124
0.00326648
0.00322057
0.00317481
0.00312932
0.00308419
0.00303951
0.00299531
0.00295163
0.0029085
0.0028659
0.00282385
0.00278233
0.00274133
0.00270083
0.00266084
0.00262135
0.00258234
0.00254384
0.00250584
0.00246836
0.00243141
0.00239498
0.00235907
0.00232367
0.00228874
0.00225421
0.00222003
0.00218611
0.00215236
0.00211875
0.00208529
0.00205203
0.00201907
0.00198652
0.0019544
0.0019227
0.00189136
0.00186047
0.00183053
0.00180287
0.00178
0.00176563
0.00176304
0.00317561
0.00321818
0.00326052
0.00330259
0.00334435
0.00338576
0.00342676
0.0034673
0.00350734
0.00354681
0.00358565
0.0036238
0.00366119
0.00369775
0.0037334
0.00376806
0.00380165
0.00383408
0.00386524
0.00389505
0.0039234
0.00395018
0.00397526
0.00399852
0.00401983
0.00403902
0.0040471
0.00404246
0.00402818
0.00400813
0.00398525
0.00396091
0.0039356
0.00390939
0.0038822
0.00385388
0.00382429
0.00379333
0.00376088
0.00372688
0.00369128
0.00365407
0.00361527
0.00357497
0.0035333
0.00349042
0.00344653
0.00340185
0.00335658
0.00331095
0.00326514
0.00321932
0.00317365
0.00312824
0.00308319
0.00303857
0.00299443
0.00295082
0.00290773
0.00286519
0.00282318
0.0027817
0.00274075
0.0027003
0.00266035
0.0026209
0.00258194
0.00254347
0.00250552
0.00246808
0.00243116
0.00239477
0.0023589
0.00232353
0.00228863
0.00225413
0.00221997
0.00218605
0.00215231
0.0021187
0.00208524
0.00205199
0.00201905
0.00198651
0.00195443
0.00192279
0.00189158
0.00186093
0.00183143
0.00180452
0.00178278
0.00177002
0.00176949
0.00317551
0.00321807
0.0032604
0.00330247
0.00334422
0.00338562
0.00342661
0.00346714
0.00350717
0.00354663
0.00358546
0.0036236
0.00366098
0.00369753
0.00373317
0.00376782
0.00380139
0.0038338
0.00386496
0.00389476
0.0039231
0.00394986
0.00397493
0.00399818
0.00401947
0.00403865
0.00404615
0.00404113
0.00402653
0.00400619
0.00398309
0.0039586
0.00393318
0.00390692
0.0038797
0.00385139
0.00382183
0.00379091
0.00375852
0.0037246
0.00368909
0.00365197
0.00361329
0.00357311
0.00353156
0.00348882
0.00344506
0.00340051
0.00335537
0.00330985
0.00326415
0.00321844
0.00317286
0.00312754
0.00308257
0.00303802
0.00299395
0.00295039
0.00290736
0.00286486
0.00282291
0.00278148
0.00274056
0.00270016
0.00266025
0.00262083
0.00258191
0.00254349
0.00250557
0.00246816
0.00243128
0.00239492
0.00235908
0.00232374
0.00228886
0.00225438
0.00222022
0.00218629
0.00215254
0.00211892
0.00208545
0.00205219
0.00201924
0.00198671
0.00195466
0.00192309
0.00189203
0.00186168
0.0018327
0.00180664
0.00178617
0.00177518
0.00177692
0.00317542
0.00321797
0.0032603
0.00330236
0.0033441
0.00338549
0.00342647
0.003467
0.00350701
0.00354646
0.00358529
0.00362341
0.00366078
0.00369732
0.00373295
0.00376759
0.00380115
0.00383355
0.0038647
0.00389449
0.00392282
0.00394957
0.00397463
0.00399787
0.00401914
0.00403831
0.00404532
0.00403995
0.00402502
0.00400441
0.0039811
0.00395645
0.00393094
0.00390462
0.00387739
0.00384909
0.00381957
0.0037887
0.00375639
0.00372256
0.00368714
0.00365014
0.00361158
0.00357153
0.00353012
0.00348752
0.0034439
0.00339949
0.00335448
0.00330909
0.00326351
0.00321791
0.00317243
0.0031272
0.00308231
0.00303784
0.00299384
0.00295034
0.00290736
0.00286492
0.00282301
0.00278163
0.00274076
0.00270039
0.00266052
0.00262114
0.00258225
0.00254386
0.00250597
0.00246859
0.00243173
0.0023954
0.00235959
0.00232427
0.0022894
0.00225492
0.00222075
0.00218682
0.00215304
0.00211939
0.00208589
0.00205261
0.00201964
0.00198711
0.00195509
0.00192361
0.00189273
0.00186272
0.00183436
0.00180928
0.00179025
0.00178124
0.00178548
0.00317534
0.00321789
0.00326021
0.00330225
0.00334399
0.00338537
0.00342634
0.00346686
0.00350687
0.00354631
0.00358512
0.00362324
0.0036606
0.00369713
0.00373275
0.00376738
0.00380093
0.00383333
0.00386446
0.00389424
0.00392256
0.00394931
0.00397436
0.00399758
0.00401885
0.004038
0.00404461
0.00403891
0.00402367
0.00400278
0.00397926
0.00395446
0.00392886
0.0039025
0.00387526
0.00384698
0.00381751
0.00378672
0.00375449
0.00372075
0.00368545
0.00364857
0.00361014
0.00357023
0.00352897
0.00348651
0.00344305
0.00339878
0.00335391
0.00330866
0.0032632
0.00321772
0.00317234
0.00312721
0.00308241
0.00303801
0.00299408
0.00295065
0.00290773
0.00286534
0.00282348
0.00278213
0.0027413
0.00270097
0.00266114
0.00262179
0.00258293
0.00254456
0.0025067
0.00246934
0.00243251
0.0023962
0.0023604
0.00232509
0.00229023
0.00225575
0.00222157
0.0021876
0.00215379
0.0021201
0.00208655
0.00205323
0.00202024
0.0019877
0.0019557
0.00192432
0.00189366
0.00186407
0.00183643
0.00181247
0.00179507
0.00178827
0.00179526
0.00317526
0.00321781
0.00326012
0.00330216
0.00334389
0.00338526
0.00342623
0.00346674
0.00350674
0.00354617
0.00358498
0.00362309
0.00366044
0.00369696
0.00373257
0.00376719
0.00380074
0.00383312
0.00386425
0.00389402
0.00392233
0.00394907
0.00397411
0.00399733
0.00401858
0.00403772
0.00404401
0.00403803
0.00402248
0.00400132
0.00397758
0.00395263
0.00392694
0.00390055
0.00387331
0.00384507
0.00381565
0.00378494
0.0037528
0.00371917
0.00368399
0.00364724
0.00360895
0.0035692
0.00352809
0.00348579
0.00344249
0.00339837
0.00335365
0.00330854
0.00326322
0.00321785
0.00317259
0.00312755
0.00308284
0.00303853
0.00299467
0.0029513
0.00290844
0.0028661
0.00282429
0.00278299
0.00274219
0.0027019
0.00266209
0.00262277
0.00258394
0.00254559
0.00250775
0.00247041
0.00243359
0.00239729
0.00236151
0.0023262
0.00229134
0.00225684
0.00222264
0.00218863
0.00215477
0.00212102
0.00208742
0.00205404
0.00202101
0.00198845
0.00195649
0.00192523
0.00189484
0.00186575
0.00183895
0.00181627
0.0018007
0.00179633
0.0018063
0.00300358
0.00304665
0.00308962
0.00313248
0.0031752
0.00321774
0.00326005
0.00330208
0.00334381
0.00338517
0.00342613
0.00346663
0.00350663
0.00354605
0.00358485
0.00362295
0.0036603
0.00369681
0.00373241
0.00376702
0.00380056
0.00383294
0.00386406
0.00389383
0.00392213
0.00394886
0.00397389
0.00399711
0.00401835
0.00403748
0.00404355
0.00403729
0.00402145
0.00400001
0.00397606
0.00395097
0.00392519
0.00389876
0.00387153
0.00384333
0.00381399
0.00378336
0.00375133
0.00371781
0.00368276
0.00364616
0.00360802
0.00356842
0.00352748
0.00348535
0.0034422
0.00339825
0.00335369
0.00330872
0.00326353
0.00321829
0.00317315
0.00312822
0.0030836
0.00303937
0.00299558
0.00295228
0.00290948
0.00286719
0.00282542
0.00278416
0.0027434
0.00270314
0.00266336
0.00262406
0.00258525
0.00254692
0.00250909
0.00247177
0.00243496
0.00239867
0.00236289
0.00232758
0.00229271
0.00225819
0.00222395
0.0021899
0.00215597
0.00212215
0.00208847
0.00205502
0.00202194
0.00198937
0.00195745
0.00192634
0.00189627
0.00186779
0.00184196
0.00182076
0.00180726
0.0018056
0.00181885
0.00300354
0.00304661
0.00308959
0.00313244
0.00317516
0.00321769
0.00325998
0.00330201
0.00334373
0.00338509
0.00342604
0.00346654
0.00350653
0.00354594
0.00358473
0.00362283
0.00366017
0.00369667
0.00373227
0.00376687
0.00380041
0.00383278
0.0038639
0.00389366
0.00392195
0.00394868
0.00397371
0.00399691
0.00401815
0.00403727
0.00404321
0.00403672
0.00402059
0.00399887
0.0039747
0.00394946
0.0039236
0.00389714
0.00386993
0.00384178
0.00381251
0.00378197
0.00375006
0.00371667
0.00368176
0.0036453
0.00360732
0.00356789
0.00352712
0.00348516
0.00344219
0.00339841
0.00335401
0.00330919
0.00326414
0.00321903
0.00317401
0.00312918
0.00308466
0.00304052
0.00299681
0.00295357
0.00291083
0.00286859
0.00282686
0.00278564
0.00274492
0.00270468
0.00266493
0.00262565
0.00258685
0.00254853
0.00251071
0.0024734
0.0024366
0.00240031
0.00236453
0.00232922
0.00229433
0.00225978
0.00222549
0.00219138
0.00215738
0.00212347
0.0020897
0.00205617
0.00202302
0.00199043
0.00195857
0.00192765
0.00189799
0.00187021
0.00184553
0.00182601
0.00181484
0.0018162
0.00183303
0.00300351
0.00304658
0.00308956
0.00313241
0.00317512
0.00321764
0.00325993
0.00330196
0.00334367
0.00338502
0.00342597
0.00346646
0.00350644
0.00354585
0.00358464
0.00362273
0.00366006
0.00369656
0.00373215
0.00376675
0.00380028
0.00383264
0.00386376
0.00389351
0.00392181
0.00394852
0.00397355
0.00399675
0.00401798
0.00403709
0.00404301
0.00403631
0.00401989
0.00399789
0.0039735
0.00394811
0.00392217
0.00389568
0.00386849
0.00384039
0.00381121
0.00378078
0.00374898
0.00371573
0.00368097
0.00364467
0.00360686
0.00356761
0.00352701
0.00348523
0.00344244
0.00339883
0.0033546
0.00330994
0.00326504
0.00322006
0.00317516
0.00313044
0.00308602
0.00304196
0.00299833
0.00295516
0.00291247
0.00287028
0.0028286
0.00278742
0.00274672
0.00270651
0.00266677
0.00262751
0.00258873
0.00255042
0.0025126
0.00247529
0.00243849
0.00240221
0.00236642
0.0023311
0.00229618
0.00226159
0.00222725
0.00219307
0.00215898
0.00212497
0.0020911
0.00205747
0.00202425
0.00199164
0.00195986
0.00192918
0.0019
0.00187306
0.0018497
0.00183211
0.00182354
0.0018282
0.00184884
0.00287403
0.0029172
0.00296036
0.00300349
0.00304656
0.00308954
0.00313239
0.00317509
0.00321761
0.00325989
0.00330191
0.00334362
0.00338497
0.00342591
0.00346639
0.00350637
0.00354578
0.00358455
0.00362264
0.00365997
0.00369646
0.00373205
0.00376664
0.00380017
0.00383253
0.00386364
0.00389339
0.00392168
0.0039484
0.00397342
0.00399661
0.00401784
0.00403695
0.00404294
0.00403607
0.00401937
0.00399709
0.00397247
0.00394693
0.0039209
0.00389439
0.00386722
0.00383918
0.00381009
0.00377977
0.0037481
0.003715
0.00368039
0.00364426
0.00360662
0.00356755
0.00352714
0.00348555
0.00344294
0.0033995
0.00335544
0.00331094
0.00326619
0.00322136
0.00317658
0.00313198
0.00308765
0.00304368
0.00300013
0.00295702
0.0029144
0.00287226
0.00283062
0.00278947
0.0027488
0.00270861
0.00266889
0.00262964
0.00259086
0.00255256
0.00251475
0.00247744
0.00244063
0.00240434
0.00236854
0.0023332
0.00229826
0.00226363
0.00222922
0.00219495
0.00216076
0.00212663
0.00209264
0.0020589
0.0020256
0.00199298
0.00196131
0.00193092
0.00190232
0.00187638
0.00185455
0.00183916
0.00183353
0.00184184
0.00186653
0.00287402
0.0029172
0.00296036
0.00300348
0.00304655
0.00308952
0.00313237
0.00317507
0.00321758
0.00325986
0.00330188
0.00334358
0.00338492
0.00342586
0.00346634
0.00350631
0.00354571
0.00358449
0.00362257
0.00365989
0.00369638
0.00373196
0.00376656
0.00380008
0.00383244
0.00386355
0.0038933
0.00392159
0.0039483
0.00397332
0.00399651
0.00401774
0.00403684
0.00404301
0.004036
0.00401903
0.00399646
0.00397161
0.0039459
0.00391979
0.00389325
0.00386611
0.00383814
0.00380914
0.00377894
0.00374741
0.00371445
0.00368001
0.00364405
0.00360659
0.00356771
0.00352749
0.00348609
0.00344367
0.00340042
0.00335653
0.0033122
0.00326761
0.00322291
0.00317826
0.00313377
0.00308955
0.00304567
0.00300219
0.00295916
0.00291659
0.0028745
0.0028329
0.00279178
0.00275114
0.00271097
0.00267126
0.00263202
0.00259324
0.00255494
0.00251713
0.00247981
0.00244301
0.0024067
0.00237089
0.00233553
0.00230055
0.00226587
0.00223138
0.00219702
0.00216271
0.00212845
0.00209432
0.00206045
0.00202708
0.00199446
0.00196293
0.00193291
0.00190501
0.00188024
0.00186019
0.00184729
0.00184493
0.0018572
0.00188617
0.00287401
0.00291719
0.00296036
0.00300348
0.00304655
0.00308952
0.00313237
0.00317506
0.00321757
0.00325984
0.00330185
0.00334355
0.00338489
0.00342582
0.0034663
0.00350627
0.00354567
0.00358444
0.00362252
0.00365984
0.00369632
0.0037319
0.0037665
0.00380002
0.00383238
0.00386348
0.00389323
0.00392152
0.00394823
0.00397325
0.00399644
0.00401766
0.00403677
0.00404323
0.00403611
0.00401888
0.00399601
0.00397091
0.00394505
0.00391884
0.00389228
0.00386516
0.00383726
0.00380836
0.00377828
0.0037469
0.0037141
0.00367982
0.00364404
0.00360677
0.00356808
0.00352806
0.00348685
0.00344463
0.00340157
0.00335786
0.0033137
0.00326926
0.00322471
0.00318019
0.00313582
0.0030917
0.00304791
0.00300451
0.00296154
0.00291903
0.00287699
0.00283542
0.00279434
0.00275372
0.00271357
0.00267387
0.00263463
0.00259586
0.00255756
0.00251974
0.00248241
0.0024456
0.00240928
0.00237346
0.00233807
0.00230305
0.0022683
0.00223374
0.00219926
0.00216482
0.00213041
0.00209613
0.00206213
0.00202867
0.00199607
0.00196473
0.00193516
0.00190811
0.00188471
0.00186671
0.00185664
0.00185791
0.00187446
0.00190777
0.00287402
0.0029172
0.00296036
0.00300349
0.00304655
0.00308952
0.00313237
0.00317506
0.00321756
0.00325984
0.00330184
0.00334354
0.00338487
0.0034258
0.00346628
0.00350624
0.00354564
0.00358441
0.00362248
0.0036598
0.00369629
0.00373186
0.00376645
0.00379997
0.00383233
0.00386344
0.00389319
0.00392148
0.00394819
0.00397321
0.0039964
0.00401762
0.00403672
0.00404359
0.00403641
0.00401891
0.00399575
0.0039704
0.00394436
0.00391805
0.00389146
0.00386437
0.00383654
0.00380774
0.00377779
0.00374656
0.00371392
0.00367981
0.00364422
0.00360714
0.00356865
0.00352883
0.00348783
0.0034458
0.00340293
0.00335941
0.00331542
0.00327114
0.00322674
0.00318235
0.0031381
0.00309408
0.00305039
0.00300707
0.00296416
0.00292171
0.00287971
0.00283819
0.00279713
0.00275653
0.00271639
0.00267671
0.00263747
0.0025987
0.00256039
0.00252256
0.00248523
0.0024484
0.00241207
0.00237623
0.00234081
0.00230574
0.00227093
0.00223628
0.00220168
0.00216709
0.00213251
0.00209806
0.00206392
0.00203038
0.00199783
0.00196673
0.00193772
0.00191168
0.00188989
0.00187424
0.00186738
0.00187269
0.00189377
0.00193111
0.00287403
0.00291721
0.00296038
0.0030035
0.00304656
0.00308953
0.00313238
0.00317507
0.00321757
0.00325984
0.00330184
0.00334353
0.00338487
0.0034258
0.00346627
0.00350623
0.00354563
0.00358439
0.00362247
0.00365978
0.00369627
0.00373184
0.00376643
0.00379995
0.00383231
0.00386342
0.00389317
0.00392146
0.00394818
0.0039732
0.00399639
0.00401762
0.00403672
0.00404409
0.00403689
0.00401914
0.00399567
0.00397006
0.00394383
0.00391743
0.0038908
0.00386373
0.00383597
0.00380728
0.00377747
0.00374638
0.00371391
0.00367999
0.00364458
0.0036077
0.00356941
0.0035298
0.003489
0.00344718
0.00340451
0.00336117
0.00331736
0.00327324
0.00322899
0.00318473
0.0031406
0.00309669
0.00305309
0.00300985
0.00296701
0.00292461
0.00288266
0.00284117
0.00280014
0.00275957
0.00271944
0.00267976
0.00264053
0.00260174
0.00256343
0.00252559
0.00248825
0.00245141
0.00241507
0.0023792
0.00234375
0.00230863
0.00227375
0.00223899
0.00220426
0.0021695
0.00213474
0.00210011
0.00206581
0.0020322
0.00199972
0.00196893
0.00194061
0.00191576
0.00189585
0.00188289
0.00187959
0.00188926
0.00191515
0.00195661
0.00287404
0.00291723
0.00296039
0.00300352
0.00304658
0.00308955
0.0031324
0.00317509
0.00321758
0.00325985
0.00330185
0.00334354
0.00338488
0.0034258
0.00346627
0.00350623
0.00354563
0.00358439
0.00362247
0.00365978
0.00369627
0.00373184
0.00376644
0.00379996
0.00383232
0.00386343
0.00389318
0.00392148
0.00394819
0.00397322
0.00399641
0.00401764
0.00403675
0.00404474
0.00403756
0.00401957
0.00399579
0.00396991
0.00394348
0.00391696
0.00389029
0.00386325
0.00383556
0.00380698
0.0037773
0.00374637
0.00371407
0.00368033
0.00364512
0.00360844
0.00357036
0.00353096
0.00349037
0.00344875
0.00340628
0.00336313
0.0033195
0.00327555
0.00323144
0.00318733
0.00314332
0.00309952
0.003056
0.00301284
0.00297007
0.00292773
0.00288583
0.00284437
0.00280337
0.00276281
0.0027227
0.00268302
0.00264378
0.00260499
0.00256667
0.00252882
0.00249146
0.00245461
0.00241825
0.00238236
0.00234688
0.00231171
0.00227675
0.00224188
0.00220699
0.00217205
0.00213709
0.00210225
0.0020678
0.00203413
0.00200176
0.00197138
0.00194388
0.00192046
0.00190273
0.00189285
0.00189355
0.00190795
0.00193862
0.00198335
0.00287406
0.00291725
0.00296042
0.00300355
0.00304661
0.00308958
0.00313242
0.00317511
0.00321761
0.00325988
0.00330188
0.00334357
0.0033849
0.00342582
0.00346629
0.00350625
0.00354565
0.00358441
0.00362249
0.0036598
0.00369629
0.00373187
0.00376646
0.00379998
0.00383235
0.00386346
0.00389322
0.00392152
0.00394824
0.00397327
0.00399647
0.0040177
0.00403681
0.00404555
0.00403843
0.0040202
0.00399611
0.00396995
0.00394331
0.00391666
0.00388995
0.00386292
0.00383531
0.00380683
0.00377729
0.00374652
0.00371439
0.00368084
0.00364583
0.00360936
0.00357148
0.00353229
0.00349192
0.00345051
0.00340824
0.00336528
0.00332183
0.00327805
0.0032341
0.00319012
0.00314623
0.00310254
0.00305912
0.00301604
0.00297334
0.00293105
0.00288919
0.00284777
0.0028068
0.00276625
0.00272615
0.00268647
0.00264723
0.00260844
0.0025701
0.00253224
0.00249487
0.002458
0.00242163
0.00238572
0.0023502
0.00231497
0.00227992
0.00224493
0.00220988
0.00217474
0.00213955
0.0021045
0.00206988
0.00203616
0.00200396
0.00197409
0.00194761
0.00192587
0.00191068
0.0019043
0.00190945
0.00192882
0.00196384
0.00201026
0.00287409
0.00291728
0.00296045
0.00300358
0.00304665
0.00308962
0.00313246
0.00317515
0.00321765
0.00325992
0.00330191
0.0033436
0.00338493
0.00342586
0.00346633
0.00350629
0.00354568
0.00358445
0.00362253
0.00365984
0.00369633
0.00373191
0.00376651
0.00380003
0.0038324
0.00386352
0.00389328
0.00392158
0.00394831
0.00397335
0.00399655
0.00401779
0.00403691
0.00404649
0.00403949
0.00402105
0.00399665
0.00397018
0.00394332
0.00391653
0.00388976
0.00386275
0.00383519
0.00380683
0.00377743
0.00374682
0.00371487
0.00368151
0.00364669
0.00361043
0.00357277
0.0035338
0.00349364
0.00345244
0.00341037
0.00336761
0.00332434
0.00328073
0.00323694
0.0031931
0.00314933
0.00310575
0.00306243
0.00301943
0.0029768
0.00293456
0.00289275
0.00285137
0.00281041
0.00276989
0.00272979
0.00269011
0.00265087
0.00261206
0.00257371
0.00253584
0.00249846
0.00246158
0.00242519
0.00238926
0.0023537
0.00231841
0.00228327
0.00224814
0.00221291
0.00217754
0.00214211
0.00210683
0.00207204
0.00203829
0.00200633
0.00197709
0.00195182
0.00193205
0.00191975
0.00191726
0.0019272
0.00195187
0.00199144
0.00203608
0.00287413
0.00291732
0.00296049
0.00300362
0.00304669
0.00308966
0.00313251
0.0031752
0.00321769
0.00325996
0.00330196
0.00334365
0.00338498
0.00342591
0.00346638
0.00350634
0.00354574
0.0035845
0.00362258
0.0036599
0.00369639
0.00373198
0.00376658
0.00380011
0.00383248
0.0038636
0.00389337
0.00392168
0.00394842
0.00397346
0.00399667
0.00401792
0.00403705
0.00404758
0.00404075
0.00402212
0.0039974
0.00397062
0.00394351
0.00391656
0.00388972
0.00386272
0.00383523
0.00380697
0.00377771
0.00374726
0.00371549
0.00368232
0.00364771
0.00361166
0.00357421
0.00353546
0.00349552
0.00345453
0.00341267
0.00337011
0.00332703
0.00328359
0.00323995
0.00319625
0.00315262
0.00310914
0.00306592
0.003023
0.00298043
0.00293826
0.00289649
0.00285514
0.00281421
0.0027737
0.00273361
0.00269393
0.00265468
0.00261587
0.00257751
0.00253962
0.00250222
0.00246533
0.00242893
0.00239298
0.00235738
0.00232203
0.00228679
0.0022515
0.00221607
0.00218046
0.00214477
0.00210923
0.00207428
0.00204055
0.0020089
0.00198046
0.00195664
0.0019392
0.00193023
0.00193215
0.00194727
0.00197703
0.0020198
0.00206045
0.00287417
0.00291737
0.00296054
0.00300368
0.00304674
0.00308972
0.00313256
0.00317525
0.00321775
0.00326002
0.00330202
0.00334371
0.00338504