/*--------------------------------*- C++ -*----------------------------------*\
  =========                 |
  \\      /  F ield         | OpenFOAM: The Open Source CFD Toolbox
   \\    /   O peration     | Website:  https://openfoam.org
    \\  /    A nd           | Version:  10
     \\/     M anipulation  |
\*---------------------------------------------------------------------------*/
FoamFile
{
    format      ascii;
    class       volScalarField;
    location    "1000";
    object      k;
}
// * * * * * * * * * * * * * * * * * * * * * * * * * * * * * * * * * * * * * //

dimensions      [0 2 -2 0 0 0 0];

internalField   nonuniform List<scalar> 
2000
(
1.34322e-05
0.000355866
0.00258885
0.00814786
0.0165769
0.0267501
0.0376896
0.048364
0.0576707
0.0649716
0.070273
0.0740773
0.0769794
0.0797678
0.083277
0.0864934
0.0927622
0.104133
0.113959
0.118684
1.05972e-05
0.000258941
0.00185125
0.00606335
0.0126486
0.0208076
0.0297403
0.0385184
0.046339
0.0526412
0.0572921
0.0605392
0.0626274
0.0642689
0.0659589
0.0685148
0.0747726
0.0852109
0.098369
0.111389
7.76208e-06
0.000184423
0.00130479
0.00457776
0.00984147
0.016304
0.02339
0.0304125
0.0367435
0.0419438
0.045879
0.0485555
0.050017
0.0512127
0.052821
0.0556331
0.0617505
0.0736666
0.0910701
0.110002
5.23028e-06
0.000130812
0.000874673
0.00320074
0.00751472
0.0127159
0.0183151
0.0238641
0.0289151
0.0331443
0.0364484
0.0387976
0.040225
0.0416965
0.0439657
0.0482757
0.056691
0.0716409
0.0928992
0.11673
3.24487e-06
8.78305e-05
0.000567633
0.00208084
0.0053671
0.00965412
0.0141419
0.0185364
0.0225755
0.0260654
0.0289407
0.0312227
0.0330317
0.0353719
0.0392816
0.0464731
0.0592283
0.0793704
0.104905
0.132393
2.01098e-06
5.64964e-05
0.000363728
0.00128501
0.0033155
0.00677689
0.0104746
0.0140321
0.0173148
0.0202526
0.0228795
0.0253363
0.0279777
0.0319386
0.0388459
0.0511295
0.0710415
0.0985882
0.125931
0.153048
1.42036e-06
3.93916e-05
0.000245024
0.000811713
0.00201318
0.00417938
0.00713762
0.0100628
0.0127946
0.0153637
0.0179392
0.0209027
0.025096
0.0321157
0.0450852
0.0664092
0.0952267
0.127839
0.144445
0.16248
1.21111e-06
3.27712e-05
0.000190341
0.000560264
0.0012593
0.00246403
0.00439333
0.00670772
0.00900126
0.0113456
0.0140997
0.0181983
0.0259348
0.0402455
0.0661105
0.0979308
0.118289
0.132585
0.144856
0.159516
1.30672e-06
3.42543e-05
0.000183709
0.000475273
0.000930385
0.00160436
0.00266233
0.0042702
0.00615961
0.00841756
0.0117585
0.0183392
0.0343181
0.0587244
0.0833189
0.104247
0.116907
0.123633
0.128896
0.138855
1.72483e-06
4.29107e-05
0.000212772
0.000507172
0.00089671
0.00134603
0.00194168
0.00295049
0.00448555
0.00685465
0.0115775
0.0228218
0.0429029
0.0670354
0.0852832
0.0982701
0.105751
0.106329
0.106775
0.113009
2.53513e-06
5.90273e-05
0.000269216
0.000615948
0.00106462
0.00150921
0.00191456
0.00258841
0.00389831
0.00665259
0.0133751
0.0267922
0.0478855
0.0718985
0.0880601
0.0942876
0.0921748
0.0833868
0.07777
0.0810191
3.74899e-06
8.14763e-05
0.000346329
0.000778415
0.00135718
0.00198151
0.00245264
0.00304684
0.00429573
0.00781384
0.0163066
0.0315196
0.0506499
0.0691393
0.0793812
0.0799881
0.0685664
0.0550873
0.0494013
0.0521979
5.26965e-06
0.000106752
0.000427245
0.000961552
0.00173284
0.00266109
0.00351232
0.00445541
0.00601915
0.010135
0.0189698
0.0331435
0.0501318
0.0647359
0.0704
0.0659238
0.0484734
0.0358505
0.0300138
0.0307426
6.75343e-06
0.000128127
0.000487507
0.00110849
0.00208674
0.00343944
0.00495163
0.00656246
0.00879781
0.0131073
0.0217998
0.0347498
0.0489886
0.0596416
0.0621004
0.0549129
0.0352264
0.0242478
0.0183471
0.0170192
7.57946e-06
0.000136228
0.000497473
0.00115117
0.00227027
0.00402085
0.00636132
0.00893956
0.0121547
0.0167824
0.0246226
0.0356909
0.047021
0.0547766
0.0554669
0.0480173
0.0302183
0.0210334
0.0140995
0.0106282
7.09109e-06
0.000122011
0.000431855
0.00102749
0.00213441
0.00404172
0.00697435
0.0107921
0.0150896
0.0204559
0.0274155
0.0366422
0.0460648
0.0522637
0.0513447
0.0448593
0.0340013
0.0233586
0.0144161
0.00906113
5.02069e-06
8.30547e-05
0.00028858
0.00071722
0.0015908
0.00324766
0.00609555
0.0104451
0.0159902
0.0223444
0.0291149
0.0373747
0.0453354
0.0499257
0.0486696
0.0427822
0.0341826
0.023386
0.0140781
0.0080334
2.23461e-06
3.41123e-05
0.000118901
0.000315554
0.000758939
0.00169016
0.00348569
0.0066486
0.0116622
0.0178231
0.0247945
0.0337822
0.039975
0.0424572
0.0401264
0.0343119
0.0257115
0.0168645
0.00977337
0.00527162
5.1016e-07
5.86235e-06
1.93267e-05
5.43208e-05
0.000140594
0.000339534
0.000771416
0.00166648
0.00347637
0.00654592
0.0108209
0.0166631
0.0192529
0.0192041
0.0168373
0.0127191
0.00850542
0.00533578
0.00298179
0.00155077
1.93502e-08
2.15925e-07
6.7005e-07
1.90763e-06
4.92852e-06
1.17437e-05
2.63247e-05
5.67891e-05
0.000125957
0.000299473
0.000630634
0.00111989
0.00131458
0.00124105
0.00091652
0.000498072
0.000305544
0.000189398
0.000115272
0.000213067
0.121138
0.125393
0.145569
0.217212
0.402951
0.762968
1.28762
1.88318
2.46178
2.98009
3.43728
3.89669
4.52744
5.6283
7.96403
13.2774
26.6725
62.6756
182.647
737.053
0.122227
0.135245
0.168493
0.263289
0.480716
0.862593
1.37948
1.94932
2.50732
3.0137
3.46375
3.91711
4.54477
5.64098
7.9793
13.294
26.7228
62.7377
182.217
735.483
0.127544
0.149848
0.199938
0.322341
0.569685
0.961737
1.45826
1.99812
2.5363
3.03277
3.47855
3.92954
4.55848
5.65326
7.99726
13.3177
26.7895
62.7944
181.28
730.863
0.140122
0.172336
0.241211
0.389209
0.655339
1.04221
1.51141
2.02446
2.54817
3.03908
3.48435
3.9358
4.56816
5.66266
8.01405
13.3408
26.8591
62.858
180.039
723.886
0.160078
0.201667
0.286857
0.450602
0.72044
1.09174
1.53469
2.02821
2.54381
3.03351
3.48147
3.93579
4.57371
5.66926
8.02923
13.3621
26.9326
62.9516
178.572
714.381
0.181907
0.229511
0.322262
0.488774
0.751689
1.10631
1.5299
2.01198
2.52525
3.01778
3.47144
3.93081
4.57586
5.6733
8.0426
13.3819
27.0119
63.1006
177.007
702.355
0.190584
0.241449
0.33726
0.503566
0.758546
1.09529
1.50312
1.97999
2.49536
2.99386
3.45552
3.92156
4.57468
5.67443
8.053
13.3978
27.0923
63.3228
175.534
688.179
0.18441
0.234255
0.329933
0.493712
0.741337
1.06695
1.46508
1.93758
2.45811
2.96504
3.43641
3.91015
4.57154
5.67366
8.06085
13.4095
27.1728
63.6368
174.418
672.777
0.162436
0.211837
0.305667
0.466268
0.707984
1.02654
1.42002
1.89389
2.41982
2.93555
3.41716
3.89882
4.56787
5.6723
8.0671
13.4178
27.2522
64.0539
173.947
657.675
0.133394
0.179238
0.269539
0.427957
0.667118
0.98172
1.37371
1.85139
2.38465
2.90835
3.39877
3.88799
4.56365
5.67031
8.07116
13.4217
27.3261
64.5691
174.377
644.882
0.0988424
0.141307
0.228425
0.386164
0.625073
0.938312
1.33126
1.81413
2.35508
2.8864
3.38418
3.87975
4.56038
5.66904
8.07367
13.4217
27.3906
65.1661
175.894
636.679
0.0675054
0.105871
0.189732
0.347701
0.587756
0.90125
1.29728
1.78679
2.33504
2.87249
3.37583
3.87571
4.55911
5.66944
8.07506
13.4189
27.4417
65.8189
178.566
635.22
0.0421827
0.0755855
0.156486
0.316031
0.558576
0.873348
1.27362
1.76991
2.32449
2.8659
3.37235
3.87503
4.55925
5.67146
8.07522
13.4142
27.474
66.4942
182.314
642.068
0.0244034
0.0526459
0.131442
0.293964
0.539853
0.856366
1.26102
1.76372
2.3238
2.86782
3.37475
3.87878
4.5618
5.67614
8.07496
13.4092
27.4839
67.157
186.925
657.483
0.0140559
0.0374368
0.116182
0.283625
0.533114
0.850913
1.25926
1.76749
2.33151
2.87631
3.38207
3.88678
4.5668
5.68394
8.07484
13.4061
27.4685
67.7778
191.964
677.176
0.00984451
0.0302701
0.112415
0.286429
0.538642
0.857027
1.26727
1.77965
2.34609
2.8909
3.39432
3.89872
4.57394
5.69494
8.0749
13.4065
27.423
68.3594
198.39
726.093
0.00760276
0.0286092
0.119484
0.302473
0.555591
0.873096
1.28528
1.80084
2.36812
2.91119
3.41077
3.91408
4.5829
5.70891
8.07491
13.4121
27.3421
68.6858
203.193
765.429
0.00565753
0.0310006
0.137656
0.331136
0.582616
0.897624
1.31168
1.82971
2.39635
2.93597
3.43034
3.93203
4.59323
5.72525
8.07379
13.4232
27.2159
68.7598
203.278
759.782
0.0041159
0.0368207
0.167222
0.370335
0.617472
0.929345
1.34577
1.86549
2.42999
2.96445
3.4524
3.95209
4.60483
5.74371
8.07139
13.4398
27.0295
68.857
201.96
751.387
0.00321262
0.0454172
0.208166
0.417976
0.657727
0.966458
1.38597
1.90648
2.46771
2.99568
3.47651
3.97459
4.61814
5.76537
8.06928
13.4339
26.8061
68.548
200.505
742.985
0.00314514
0.0632949
0.267314
0.46712
0.69219
0.989302
1.40865
1.92663
2.48675
3.013
3.49164
3.99108
4.62947
5.78376
8.0738
13.4227
26.5952
67.8375
195.98
733.551
0.00326995
0.0671776
0.275512
0.473243
0.698466
0.995969
1.41707
1.935
2.49438
3.0196
3.4977
3.99724
4.63468
5.78859
8.07882
13.4158
26.5623
67.6258
195.664
732.487
0.0035183
0.0711356
0.282805
0.481071
0.712365
1.01514
1.4408
1.95832
2.51466
3.03661
3.51316
4.01234
4.64861
5.80365
8.09738
13.4277
26.5613
67.4463
195.724
731.614
0.00389168
0.0760774
0.29202
0.491718
0.72982
1.0384
1.46826
1.98436
2.53629
3.05406
3.52879
4.0281
4.66427
5.82144
8.12055
13.4463
26.5728
67.2761
195.932
730.921
0.00441684
0.0823995
0.304387
0.506248
0.751341
1.06571
1.49895
2.01247
2.55868
3.07138
3.5441
4.0439
4.68121
5.8416
8.14796
13.4716
26.5952
67.1134
196.221
730.412
0.00514817
0.0905278
0.320577
0.525103
0.776905
1.09686
1.5324
2.04209
2.58131
3.08812
3.55859
4.05932
4.69908
5.86386
8.17941
13.5033
26.628
66.9584
196.561
730.082
0.00616554
0.100952
0.340997
0.548222
0.806376
1.13137
1.56795
2.07257
2.60363
3.10382
3.57187
4.07395
4.71754
5.88792
8.2147
13.5412
26.6712
66.81
196.93
729.892
0.00757937
0.114227
0.365855
0.575316
0.839313
1.16852
1.60479
2.10316
2.62507
3.11807
3.58357
4.0874
4.73622
5.91343
8.2535
13.585
26.7244
66.6653
197.306
729.765
0.00954012
0.13096
0.395158
0.605877
0.87505
1.20745
1.64201
2.13308
2.64504
3.13046
3.59336
4.09933
4.75474
5.94001
8.29541
13.6339
26.7872
66.5205
197.659
729.592
0.0122522
0.151783
0.428638
0.639411
0.912732
1.24714
1.67863
2.16153
2.663
3.14064
3.60094
4.10941
4.7727
5.96724
8.33995
13.6873
26.8592
66.3706
197.958
729.223
0.0159929
0.177318
0.465572
0.675264
0.951328
1.28649
1.71364
2.18771
2.67842
3.14828
3.60609
4.11737
4.7897
5.99464
8.38655
13.7444
26.9395
66.2099
198.164
728.479
0.021139
0.207934
0.505139
0.712508
0.989667
1.32433
1.746
2.21082
2.6908
3.1531
3.60861
4.12296
4.80534
6.02171
8.43454
13.8042
27.0271
66.0318
198.238
727.166
0.0282035
0.243756
0.546215
0.749971
1.02653
1.35945
1.77467
2.23009
2.69966
3.15486
3.60835
4.12597
4.8192
6.0479
8.48318
13.8657
27.1205
65.8294
198.139
725.086
0.0378876
0.284641
0.587266
0.786359
1.0606
1.3906
1.79863
2.24478
2.70456
3.15331
3.60516
4.12622
4.83088
6.0726
8.53157
13.9275
27.2177
65.5952
197.83
722.051
0.0511496
0.330001
0.626877
0.820292
1.0905
1.41652
1.8169
2.25423
2.70509
3.14821
3.59888
4.12349
4.83992
6.09513
8.57869
13.9878
27.3163
65.3219
197.281
717.91
0.0693021
0.378651
0.663481
0.850213
1.11481
1.43596
1.82855
2.25778
2.70084
3.13931
3.58933
4.11758
4.84584
6.11473
8.6233
14.045
27.4137
65.0025
196.476
712.58
0.0941416
0.428736
0.695418
0.874468
1.13211
1.4477
1.83266
2.25481
2.69141
3.12633
3.57629
4.10822
4.84805
6.13051
8.66396
14.0971
27.5065
64.6309
195.419
706.08
0.127795
0.478089
0.72088
0.891391
1.14094
1.4505
1.82834
2.24471
2.67639
3.10896
3.55947
4.09509
4.8459
6.14145
8.69896
14.1416
27.5906
64.2018
194.141
698.577
0.173214
0.523833
0.737967
0.899253
1.13982
1.44315
1.81474
2.2269
2.65536
3.08687
3.53854
4.0778
4.83868
6.14631
8.72636
14.1757
27.6619
63.7142
192.707
690.432
0.234336
0.562553
0.744775
0.896237
1.12725
1.4244
1.79097
2.20074
2.62787
3.05964
3.51308
4.05589
4.82551
6.14369
8.74399
14.1966
27.7176
63.1849
191.262
682.338
0.352809
0.601288
0.73735
0.875648
1.09527
1.3856
1.74876
2.15862
2.5871
3.0211
3.47735
4.02393
4.80005
6.12822
8.74673
14.1958
27.7454
62.4961
189.631
674.09
0.51452
0.587267
0.67361
0.813171
1.02234
1.3122
1.67828
2.09556
2.53204
2.97183
3.42992
3.97297
4.75037
6.07282
8.68479
14.1879
27.4212
62.1705
180.645
657.973
0.470802
0.521235
0.605316
0.741673
0.948626
1.23925
1.61132
2.03829
2.48534
2.9328
3.39488
3.93733
4.71151
6.02506
8.62654
14.1319
27.3129
62.223
175.663
645.569
0.399753
0.447306
0.528687
0.660948
0.863582
1.15402
1.53186
1.97017
2.42897
2.88485
3.3508
3.89543
4.66717
5.97223
8.56092
14.0547
27.2303
62.1548
174.135
638.379
0.332499
0.377893
0.454808
0.580907
0.778278
1.06765
1.45153
1.90213
2.37367
2.83889
3.30981
3.85581
4.62356
5.91813
8.49004
13.9662
27.1285
62.1669
174.833
636.704
0.273427
0.313841
0.383925
0.502082
0.692513
0.979373
1.36939
1.83299
2.31843
2.79417
3.27151
3.81874
4.58179
5.86496
8.4185
13.8749
27.0227
62.2467
176.869
639.378
0.223085
0.256951
0.318704
0.42772
0.610095
0.893868
1.28955
1.76612
2.26635
2.75377
3.23747
3.78527
4.54293
5.81395
8.34792
13.7845
26.9145
62.3507
179.517
641.017
0.181815
0.208128
0.260861
0.360317
0.533958
0.813818
1.2145
1.70412
2.2196
2.71888
3.2086
3.75639
4.50808
5.76627
8.28015
13.6975
26.8064
62.4729
183.847
662.086
0.149796
0.167878
0.212037
0.301549
0.465696
0.740789
1.14593
1.64874
2.17952
2.6903
3.18537
3.73256
4.47783
5.72264
8.21619
13.6156
26.7003
62.4423
187.712
659.739
0.126762
0.137027
0.17257
0.251929
0.406137
0.675768
1.08502
1.60107
2.14684
2.66859
3.16846
3.71439
4.45267
5.68385
8.15729
13.5406
26.6024
62.1992
190.548
781.042
0.112555
0.114964
0.142109
0.211641
0.355979
0.619846
1.03301
1.56205
2.12225
2.65428
3.1584
3.70251
4.43323
5.65091
8.10491
13.4746
26.5224
61.8615
188.068
775.757
0.10559
0.100558
0.120135
0.180746
0.315975
0.574402
0.991225
1.53248
2.10629
2.64794
3.1556
3.69718
4.41999
5.62468
8.06046
13.4195
26.4684
61.633
185.959
766.392
0.10383
0.092547
0.105887
0.159156
0.286834
0.54078
0.960931
1.51315
2.09935
2.64964
3.15995
3.69821
4.41298
5.60547
8.02487
13.3764
26.4407
61.4923
183.87
757.29
0.104991
0.0888981
0.0970133
0.1439
0.265328
0.516874
0.942137
1.50519
2.10222
2.65941
3.17096
3.70492
4.41174
5.59322
7.99846
13.345
26.4395
61.4324
182.123
748.595
0.107419
0.0879433
0.0918814
0.133479
0.250122
0.501284
0.933531
1.50774
2.11427
2.67653
3.18787
3.71667
4.41541
5.58673
7.9798
13.3241
26.4599
61.4496
180.76
740.945
0.109966
0.0888828
0.0898537
0.127349
0.24094
0.494172
0.935509
1.52085
2.13503
2.7002
3.20979
3.73253
4.42307
5.58465
7.96708
13.3105
26.4958
61.5416
179.296
733.485
0.111953
0.0910773
0.0903369
0.124979
0.237531
0.49579
0.948547
1.54436
2.16357
2.72928
3.2357
3.75161
4.43412
5.5864
7.95993
13.3037
26.5446
61.7139
178.752
726.786
0.113373
0.0942777
0.093042
0.126241
0.240243
0.507059
0.973261
1.57785
2.19889
2.76254
3.26435
3.77282
4.44755
5.59067
7.95642
13.3014
26.6023
61.9429
178.629
722.379
0.114946
0.0984431
0.0977713
0.131356
0.250192
0.529866
1.01105
1.6217
2.24096
2.80007
3.2958
3.79578
4.46245
5.59671
7.95603
13.3017
26.6623
62.2011
178.828
719.845
0.116158
0.103686
0.104436
0.140905
0.269268
0.566451
1.06231
1.67468
2.2885
2.84033
3.32831
3.81941
4.4784
5.60371
7.95807
13.3032
26.7175
62.4606
179.252
718.666
0.0822541
0.436148
0.475195
0.414762
0.350904
0.293837
0.244094
0.201833
0.167722
0.142018
0.12585
0.118395
0.117385
0.119536
0.122737
0.125386
0.12658
0.126158
0.126324
0.127725
0.0396212
0.346108
0.447877
0.401462
0.342777
0.290215
0.244776
0.206275
0.174971
0.151104
0.13594
0.129494
0.129519
0.132507
0.136101
0.138523
0.138686
0.135628
0.132935
0.134652
0.0200798
0.267467
0.411614
0.385147
0.333395
0.286211
0.245783
0.211374
0.183019
0.160899
0.145926
0.138883
0.138027
0.140031
0.142218
0.143053
0.141552
0.136456
0.130096
0.129916
0.00958017
0.198118
0.365289
0.364937
0.322439
0.28093
0.245438
0.21553
0.190789
0.170954
0.156335
0.147896
0.144561
0.143664
0.142012
0.139675
0.135052
0.128744
0.121784
0.117678
0.00525751
0.134081
0.31191
0.340855
0.309406
0.273325
0.242283
0.216609
0.195445
0.178124
0.165056
0.156479
0.150891
0.146053
0.13897
0.134007
0.127311
0.121819
0.115951
0.10884
0.00320228
0.0875031
0.2466
0.306309
0.292728
0.26282
0.235342
0.212706
0.19408
0.178581
0.165998
0.155534
0.146397
0.136263
0.128179
0.123302
0.118597
0.115307
0.110518
0.102184
0.00197011
0.0552317
0.182594
0.258043
0.266883
0.248405
0.225703
0.205549
0.188558
0.174056
0.16143
0.149681
0.138968
0.129685
0.122798
0.116787
0.112416
0.108993
0.104004
0.0951434
0.00119517
0.0340692
0.128136
0.203601
0.230509
0.226851
0.212193
0.195996
0.181144
0.168005
0.156298
0.145464
0.135435
0.126564
0.119434
0.112941
0.108349
0.104869
0.0996313
0.0902218
0.000707378
0.0204167
0.0856067
0.150824
0.186981
0.196809
0.192324
0.182277
0.17096
0.159945
0.149632
0.139884
0.130514
0.121793
0.114489
0.108557
0.104478
0.100897
0.0950533
0.0857092
0.000406021
0.0118321
0.054856
0.105699
0.142395
0.160586
0.165294
0.162376
0.155903
0.148073
0.139899
0.131716
0.123623
0.115808
0.10919
0.103921
0.0998127
0.0954677
0.0891377
0.0803173
0.000225026
0.00660074
0.0336997
0.0704099
0.10212
0.122966
0.133517
0.136666
0.135223
0.131229
0.125916
0.119938
0.113759
0.107525
0.102027
0.0972692
0.0929764
0.0881254
0.0816585
0.0735118
0.000120435
0.00354545
0.0198513
0.0449023
0.0694652
0.0886712
0.101299
0.108119
0.110592
0.110138
0.107814
0.104312
0.100253
0.0958197
0.0916205
0.0875802
0.0834289
0.0784253
0.072093
0.0647168
6.27551e-05
0.001849
0.0112078
0.0275622
0.0453376
0.0608652
0.0727243
0.0807214
0.0853409
0.087341
0.0874047
0.0860673
0.0838704
0.0811178
0.0781913
0.0749739
0.0712157
0.0664671
0.0605689
0.0539654
3.22015e-05
0.000947002
0.00607473
0.0163281
0.0286479
0.0403446
0.0501257
0.0575903
0.06277
0.0659437
0.0674416
0.0675689
0.0666306
0.0651639
0.0632306
0.0607247
0.0574025
0.0531322
0.0478894
0.0421692
1.63259e-05
0.000478268
0.00317555
0.00932938
0.0175735
0.0260698
0.0336852
0.0399344
0.0447138
0.0480826
0.0501446
0.0510345
0.0508993
0.0501277
0.0487223
0.0465862
0.0435727
0.0397203
0.0351483
0.0303895
7.9377e-06
0.000230813
0.00158567
0.00504911
0.0103059
0.0162554
0.0219856
0.0269959
0.0310729
0.0341459
0.0362078
0.0373094
0.0374804
0.0368631
0.0354827
0.0333103
0.0303937
0.0268861
0.0230579
0.0193412
3.43183e-06
9.89713e-05
0.000675261
0.00238075
0.00537629
0.00921499
0.0132578
0.0170275
0.0202383
0.0227261
0.0243973
0.025203
0.0250356
0.0240965
0.0224512
0.0202217
0.0175963
0.0147956
0.0120613
0.0096865
1.12009e-06
3.20392e-05
0.000215848
0.000776102
0.00205252
0.00398647
0.00626249
0.00851351
0.010444
0.0118467
0.0125886
0.0125888
0.0118058
0.0106839
0.00933574
0.0078831
0.00643208
0.00507867
0.00389076
0.0030455
2.48375e-07
7.03753e-06
4.47986e-05
0.000156083
0.00041535
0.000929425
0.00159022
0.00224752
0.00275977
0.00302398
0.00299468
0.00269518
0.00231697
0.00196698
0.00162817
0.00130273
0.00100076
0.000731132
0.000528497
0.000425136
3.01153e-08
6.91626e-07
3.05142e-06
9.12716e-06
2.15686e-05
4.34667e-05
7.61625e-05
0.000107826
0.000128479
0.000132854
0.000121745
0.000102159
8.65216e-05
7.2791e-05
5.98971e-05
4.77913e-05
3.68572e-05
2.74565e-05
2.04452e-05
1.71372e-05
)
;

boundaryField
{
    right
    {
        type            cyclic;
    }
    left
    {
        type            cyclic;
    }
    outerWall
    {
        type            kqRWallFunction;
        value           nonuniform List<scalar> 
60
(
737.053
735.483
730.863
723.886
714.381
702.355
688.179
672.777
657.675
644.882
636.679
635.22
642.068
657.483
677.176
726.093
765.429
759.782
751.387
742.985
733.551
732.487
731.614
730.921
730.412
730.082
729.892
729.765
729.592
729.223
728.479
727.166
725.086
722.051
717.91
712.58
706.08
698.577
690.432
682.338
674.09
657.973
645.569
638.379
636.704
639.378
641.017
662.086
659.739
781.042
775.757
766.392
757.29
748.595
740.945
733.485
726.786
722.379
719.845
718.666
)
;
    }
    stirrerWall
    {
        type            kqRWallFunction;
        value           nonuniform List<scalar> 
100
(
1.34322e-05
1.05972e-05
7.76208e-06
5.23028e-06
3.24487e-06
2.01098e-06
1.42036e-06
1.21111e-06
1.30672e-06
1.72483e-06
2.53513e-06
3.74899e-06
5.26965e-06
6.75343e-06
7.57946e-06
7.09109e-06
5.02069e-06
2.23461e-06
5.1016e-07
1.93502e-08
1.93502e-08
2.15925e-07
6.7005e-07
1.90763e-06
4.92852e-06
1.17437e-05
2.63247e-05
5.67891e-05
0.000125957
0.000299473
0.000630634
0.00111989
0.00131458
0.00124105
0.00091652
0.000498072
0.000305544
0.000189398
0.000115272
0.000213067
0.00314514
0.00326995
0.0035183
0.00389168
0.00441684
0.00514817
0.00616554
0.00757937
0.00954012
0.0122522
0.0159929
0.021139
0.0282035
0.0378876
0.0511496
0.0693021
0.0941416
0.127795
0.173214
0.234336
0.0822541
0.0396212
0.0200798
0.00958017
0.00525751
0.00320228
0.00197011
0.00119517
0.000707378
0.000406021
0.000225026
0.000120435
6.27551e-05
3.22015e-05
1.63259e-05
7.9377e-06
3.43183e-06
1.12009e-06
2.48375e-07
3.01153e-08
3.01153e-08
6.91626e-07
3.05142e-06
9.12716e-06
2.15686e-05
4.34667e-05
7.61625e-05
0.000107826
0.000128479
0.000132854
0.000121745
0.000102159
8.65216e-05
7.2791e-05
5.98971e-05
4.77913e-05
3.68572e-05
2.74565e-05
2.04452e-05
1.71372e-05
)
;
    }
    top
    {
        type            empty;
    }
    bottom
    {
        type            empty;
    }
}


// ************************************************************************* //
