/*--------------------------------*- C++ -*----------------------------------*\
  =========                 |
  \\      /  F ield         | OpenFOAM: The Open Source CFD Toolbox
   \\    /   O peration     | Website:  https://openfoam.org
    \\  /    A nd           | Version:  10
     \\/     M anipulation  |
\*---------------------------------------------------------------------------*/
FoamFile
{
    format      ascii;
    class       volScalarField;
    location    "1000";
    object      k;
}
// * * * * * * * * * * * * * * * * * * * * * * * * * * * * * * * * * * * * * //

dimensions      [0 2 -2 0 0 0 0];

internalField   nonuniform List<scalar> 
420
(
2.22045e-16
2.22045e-16
2.22045e-16
2.22045e-16
2.22045e-16
2.22045e-16
2.22045e-16
2.22045e-16
2.22045e-16
2.22045e-16
2.22045e-16
2.22045e-16
2.22045e-16
2.22045e-16
2.22045e-16
2.22045e-16
2.22045e-16
2.22045e-16
2.22045e-16
2.22045e-16
2.22045e-16
2.22045e-16
2.22045e-16
2.22045e-16
2.22045e-16
2.22045e-16
2.22045e-16
2.22045e-16
2.22045e-16
2.22045e-16
2.22045e-16
2.22045e-16
2.22045e-16
2.22045e-16
2.22045e-16
2.22045e-16
2.22045e-16
2.22045e-16
2.22045e-16
2.22045e-16
2.22045e-16
2.22045e-16
2.22045e-16
2.22045e-16
2.22045e-16
2.22045e-16
2.22045e-16
2.22045e-16
2.22045e-16
2.22045e-16
2.22045e-16
2.22045e-16
2.22045e-16
2.22045e-16
2.22045e-16
2.22045e-16
2.22045e-16
2.22045e-16
2.22045e-16
2.22045e-16
2.22045e-16
2.22045e-16
2.22045e-16
2.22045e-16
2.22045e-16
2.22045e-16
2.22045e-16
2.22045e-16
2.22045e-16
2.22045e-16
2.22045e-16
2.22045e-16
2.22045e-16
2.22045e-16
2.22045e-16
2.22045e-16
2.22045e-16
2.22045e-16
2.22045e-16
2.22045e-16
2.22045e-16
2.22045e-16
2.22045e-16
2.22045e-16
2.22045e-16
2.22045e-16
2.22045e-16
2.22045e-16
2.22045e-16
2.22045e-16
2.22045e-16
2.22045e-16
2.22045e-16
2.22045e-16
2.22045e-16
2.22045e-16
2.22045e-16
2.22045e-16
2.22045e-16
2.22045e-16
2.22045e-16
2.22045e-16
2.22045e-16
2.6364e-16
2.99889e-16
2.80501e-16
2.76714e-16
2.22045e-16
2.22045e-16
2.59321e-16
2.22045e-16
2.22045e-16
2.22045e-16
2.58965e-16
2.97644e-16
2.79768e-16
2.79811e-16
2.22045e-16
2.22045e-16
2.56936e-16
2.22045e-16
2.22045e-16
2.22045e-16
2.5532e-16
2.95903e-16
2.78368e-16
2.81198e-16
2.22045e-16
2.22045e-16
2.56749e-16
2.22045e-16
2.22045e-16
2.22045e-16
2.5306e-16
2.9503e-16
2.76913e-16
2.81558e-16
2.22045e-16
2.22045e-16
2.55632e-16
2.22045e-16
2.22045e-16
2.22045e-16
2.52257e-16
2.94881e-16
2.75495e-16
2.80796e-16
2.22045e-16
2.22045e-16
2.54916e-16
2.22045e-16
2.22045e-16
2.22045e-16
2.53232e-16
2.95856e-16
2.7426e-16
2.79e-16
2.22045e-16
2.22045e-16
2.5411e-16
2.22045e-16
2.22045e-16
2.22045e-16
2.56221e-16
2.97903e-16
2.73371e-16
2.76384e-16
2.22045e-16
2.22045e-16
2.52594e-16
2.22045e-16
2.22045e-16
2.22045e-16
2.61306e-16
3.00313e-16
2.7293e-16
2.72672e-16
2.22045e-16
2.22045e-16
2.50823e-16
2.22045e-16
2.22045e-16
2.22045e-16
2.68511e-16
3.02786e-16
2.72826e-16
2.68321e-16
2.22045e-16
2.22045e-16
2.49096e-16
2.22045e-16
2.22045e-16
2.22045e-16
2.77478e-16
3.05056e-16
2.73051e-16
2.64367e-16
2.22045e-16
2.22045e-16
2.47483e-16
2.22045e-16
2.22045e-16
2.23506e-16
2.86722e-16
3.06989e-16
2.72953e-16
2.60272e-16
2.22045e-16
2.22045e-16
2.45392e-16
2.22045e-16
2.22045e-16
2.39623e-16
2.90363e-16
3.08729e-16
2.72184e-16
2.57588e-16
2.22045e-16
2.22045e-16
2.42628e-16
2.22045e-16
2.22045e-16
2.55845e-16
2.94356e-16
3.11122e-16
2.71244e-16
2.54595e-16
2.22045e-16
2.22045e-16
2.40675e-16
2.22045e-16
2.4033e-16
2.69154e-16
2.96598e-16
3.12322e-16
2.71643e-16
2.49533e-16
2.22045e-16
2.22045e-16
2.4178e-16
2.36352e-16
2.54864e-16
2.70347e-16
2.96244e-16
3.1224e-16
2.71891e-16
2.45456e-16
2.22045e-16
2.22045e-16
2.42873e-16
2.42669e-16
2.53403e-16
2.67777e-16
2.95101e-16
3.116e-16
2.72075e-16
2.42018e-16
2.22045e-16
2.22045e-16
2.44483e-16
2.39373e-16
2.48823e-16
2.64132e-16
2.93761e-16
3.10918e-16
2.72419e-16
2.39804e-16
2.22045e-16
2.22045e-16
2.46678e-16
2.34184e-16
2.43239e-16
2.59626e-16
2.92137e-16
3.10155e-16
2.72834e-16
2.38658e-16
2.22045e-16
2.22045e-16
2.49429e-16
2.2854e-16
2.37018e-16
2.53991e-16
2.89712e-16
3.0877e-16
2.73349e-16
2.38689e-16
2.22045e-16
2.22045e-16
2.52522e-16
2.22693e-16
2.29393e-16
2.45079e-16
2.84577e-16
3.05412e-16
2.73751e-16
2.3968e-16
2.22045e-16
2.22045e-16
2.55673e-16
2.22045e-16
2.22234e-16
2.35108e-16
2.78662e-16
3.02461e-16
2.74461e-16
2.42091e-16
2.22045e-16
2.22045e-16
2.61407e-16
2.22045e-16
2.22045e-16
2.274e-16
2.75144e-16
3.01574e-16
2.7643e-16
2.44234e-16
2.229e-16
2.22045e-16
2.78011e-16
2.22045e-16
2.22045e-16
2.22045e-16
2.25953e-16
2.29377e-16
2.27336e-16
2.23804e-16
2.22045e-16
2.22045e-16
2.22045e-16
2.22045e-16
2.22045e-16
2.22045e-16
2.22045e-16
2.22045e-16
2.22045e-16
2.22045e-16
2.22045e-16
2.22045e-16
2.22045e-16
2.22045e-16
2.22045e-16
2.22045e-16
2.22045e-16
2.22045e-16
2.22045e-16
2.22045e-16
2.22045e-16
2.22045e-16
2.22045e-16
2.22045e-16
2.22045e-16
2.22045e-16
2.22045e-16
2.22045e-16
2.22045e-16
2.22045e-16
2.22045e-16
2.22045e-16
2.22045e-16
2.22045e-16
2.22045e-16
2.22045e-16
2.22045e-16
2.22045e-16
2.22045e-16
2.22045e-16
2.22045e-16
2.22045e-16
2.22045e-16
2.22045e-16
2.22045e-16
2.22045e-16
2.22045e-16
2.22045e-16
2.22045e-16
2.22045e-16
2.22045e-16
2.22045e-16
2.22045e-16
2.22045e-16
2.22045e-16
2.22045e-16
2.22045e-16
2.22045e-16
2.22045e-16
2.22045e-16
2.22045e-16
2.22045e-16
2.22045e-16
2.22045e-16
2.22045e-16
2.22045e-16
2.22045e-16
2.22045e-16
2.22045e-16
2.22045e-16
2.22045e-16
2.22045e-16
2.22045e-16
2.22045e-16
2.22045e-16
2.22045e-16
2.22045e-16
2.22045e-16
2.22045e-16
2.22045e-16
2.22045e-16
2.22045e-16
2.22045e-16
2.22045e-16
2.22045e-16
2.22045e-16
2.22045e-16
2.22045e-16
2.22045e-16
2.22045e-16
2.22045e-16
2.22045e-16
2.22045e-16
)
;

boundaryField
{
    right
    {
        type            cyclic;
    }
    left
    {
        type            cyclic;
    }
    outerWall
    {
        type            kqRWallFunction;
        value           nonuniform List<scalar> 
22
(
2.59321e-16
2.56936e-16
2.56749e-16
2.55632e-16
2.54916e-16
2.5411e-16
2.52594e-16
2.50823e-16
2.49096e-16
2.47483e-16
2.45392e-16
2.42628e-16
2.40675e-16
2.4178e-16
2.42873e-16
2.44483e-16
2.46678e-16
2.49429e-16
2.52522e-16
2.55673e-16
2.61407e-16
2.78011e-16
)
;
    }
    stirrerWall
    {
        type            kqRWallFunction;
        value           uniform 2.22045e-16;
    }
    top
    {
        type            empty;
    }
    bottom
    {
        type            empty;
    }
}


// ************************************************************************* //
