/*--------------------------------*- C++ -*----------------------------------*\
  =========                 |
  \\      /  F ield         | OpenFOAM: The Open Source CFD Toolbox
   \\    /   O peration     | Website:  https://openfoam.org
    \\  /    A nd           | Version:  10
     \\/     M anipulation  |
\*---------------------------------------------------------------------------*/
FoamFile
{
    format      ascii;
    class       volScalarField;
    location    "1000";
    object      nut;
}
// * * * * * * * * * * * * * * * * * * * * * * * * * * * * * * * * * * * * * //

dimensions      [0 2 -1 0 0 0 0];

internalField   nonuniform List<scalar> 
420
(
1.04478e-20
6.39164e-20
1.8967e-19
3.68023e-19
5.69303e-19
7.61534e-19
8.86028e-19
8.73318e-19
7.43725e-19
6.00749e-19
1.04473e-20
6.37721e-20
1.86288e-19
3.61363e-19
5.61183e-19
7.53251e-19
8.76897e-19
8.59435e-19
7.19472e-19
5.62212e-19
1.04471e-20
6.37431e-20
1.83464e-19
3.55849e-19
5.53149e-19
7.41646e-19
8.58668e-19
8.31379e-19
6.81673e-19
5.17596e-19
1.04472e-20
6.37774e-20
1.81913e-19
3.4955e-19
5.38203e-19
7.15049e-19
8.2054e-19
7.85568e-19
6.29798e-19
4.63034e-19
1.04476e-20
6.3703e-20
1.79456e-19
3.34395e-19
4.99906e-19
6.50535e-19
7.39281e-19
7.05063e-19
5.56381e-19
3.97488e-19
1.04483e-20
6.30719e-20
1.6978e-19
2.92891e-19
4.12432e-19
5.19276e-19
5.87013e-19
5.6909e-19
4.54039e-19
3.20547e-19
1.04493e-20
5.99969e-20
1.38892e-19
2.08077e-19
2.7048e-19
3.29091e-19
3.74231e-19
3.80576e-19
3.24307e-19
2.34657e-19
1.04506e-20
4.77297e-20
8.06976e-20
1.05208e-19
1.29298e-19
1.5436e-19
1.78062e-19
1.93361e-19
1.87258e-19
1.46919e-19
1.04522e-20
2.15374e-20
2.80751e-20
3.46771e-20
4.19022e-20
4.97709e-20
5.80694e-20
6.6225e-20
7.33183e-20
6.77044e-20
2.82342e-21
3.6643e-21
4.61494e-21
5.67535e-21
6.84552e-21
8.12545e-21
9.51514e-21
1.10146e-20
1.26238e-20
1.43428e-20
4.97587e-19
4.51761e-19
4.8611e-19
7.4026e-19
1.08895e-18
1.09502e-18
7.02083e-19
5.70925e-19
2.86878e-19
7.24102e-20
4.52757e-19
4.08796e-19
4.51654e-19
7.04213e-19
1.07384e-18
1.07764e-18
6.83906e-19
5.86078e-19
2.84957e-19
7.17465e-20
4.05172e-19
3.6554e-19
4.18068e-19
6.73086e-19
1.06088e-18
1.09476e-18
6.71806e-19
5.87639e-19
2.83926e-19
7.1695e-20
3.5301e-19
3.21528e-19
3.85178e-19
6.47685e-19
1.05134e-18
1.11082e-18
6.59445e-19
5.74926e-19
2.83917e-19
7.13821e-20
2.96036e-19
2.76919e-19
3.53341e-19
6.29057e-19
1.04484e-18
1.10718e-18
6.48019e-19
5.6367e-19
2.82436e-19
7.11798e-20
2.35342e-19
2.32376e-19
3.23249e-19
6.19567e-19
9.90958e-19
1.10393e-18
6.42551e-19
5.54835e-19
2.82653e-19
7.09509e-20
1.73372e-19
1.89169e-19
2.96109e-19
6.22075e-19
9.78684e-19
1.10143e-18
6.31479e-19
5.51555e-19
2.82512e-19
7.05224e-20
1.14682e-19
1.4898e-19
2.73845e-19
6.40683e-19
9.75648e-19
1.1001e-18
6.25908e-19
5.52235e-19
2.8188e-19
7.00213e-20
6.52425e-20
1.13584e-19
2.59469e-19
6.81143e-19
9.71504e-19
1.09938e-18
6.47134e-19
5.60488e-19
2.80515e-19
6.95309e-20
2.98151e-20
8.48127e-20
2.60251e-19
7.51343e-19
9.54725e-19
1.09879e-18
6.71186e-19
5.69903e-19
2.77729e-19
6.90715e-20
1.03958e-20
6.94413e-20
3.05972e-19
8.02172e-19
9.43493e-19
1.09669e-18
6.62244e-19
5.51346e-19
2.72452e-19
6.8629e-20
1.03958e-20
8.61396e-20
4.09023e-19
7.97069e-19
9.26917e-19
1.09525e-18
6.51008e-19
5.1906e-19
2.70817e-19
6.78559e-20
5.40602e-20
2.12865e-19
6.17842e-19
7.9872e-19
9.23292e-19
1.0938e-18
6.19464e-19
5.61251e-19
2.65797e-19
6.71715e-20
2.45509e-19
5.36347e-19
6.8501e-19
7.86003e-19
8.98897e-19
1.09219e-18
6.66991e-19
5.65881e-19
2.5749e-19
6.74889e-20
5.64905e-19
6.19353e-19
6.82457e-19
7.85517e-19
8.91784e-19
1.08889e-18
6.7744e-19
5.66792e-19
2.56327e-19
6.78017e-20
6.44095e-19
6.35474e-19
6.84646e-19
7.94208e-19
9.02088e-19
1.08542e-18
7.1746e-19
5.70122e-19
2.59465e-19
6.82578e-20
6.66645e-19
6.33969e-19
6.81306e-19
8.02369e-19
9.21463e-19
1.08317e-18
7.55435e-19
5.74858e-19
2.66388e-19
6.88758e-20
6.64468e-19
6.2444e-19
6.80335e-19
8.27172e-19
9.83394e-19
1.08216e-18
7.93845e-19
5.79595e-19
2.76131e-19
6.96477e-20
6.58201e-19
6.4485e-19
7.15746e-19
9.28249e-19
1.14378e-18
1.08274e-18
8.00696e-19
5.82929e-19
2.87226e-19
7.05137e-20
6.16212e-19
5.94835e-19
6.60145e-19
8.95721e-19
1.14383e-18
1.08475e-18
7.98957e-19
5.82749e-19
2.93658e-19
7.13945e-20
5.79854e-19
5.39956e-19
5.9894e-19
8.52093e-19
1.12694e-18
1.08989e-18
7.36496e-19
5.80226e-19
2.90975e-19
7.29949e-20
5.40062e-19
4.97369e-19
5.40529e-19
8.10957e-19
1.11369e-18
1.09855e-18
6.03763e-19
5.22832e-19
2.8689e-19
7.7629e-20
1.43428e-20
1.11587e-19
3.99304e-19
6.68663e-19
7.31839e-19
7.47724e-19
7.28682e-19
6.96269e-19
6.67099e-19
6.33754e-19
1.26238e-20
8.40529e-20
2.92819e-19
5.8614e-19
7.57777e-19
8.0812e-19
8.10208e-19
7.9694e-19
7.7949e-19
7.6144e-19
1.10146e-20
6.52374e-20
2.12858e-19
4.5513e-19
6.81598e-19
8.10765e-19
8.64242e-19
8.80843e-19
8.8196e-19
8.79386e-19
9.51514e-21
5.20473e-20
1.5152e-19
3.19515e-19
5.24331e-19
7.00341e-19
8.13406e-19
8.7341e-19
8.98076e-19
8.97612e-19
8.12545e-21
4.4366e-20
1.20452e-19
2.36921e-19
3.83114e-19
5.32356e-19
6.55402e-19
7.37625e-19
7.77861e-19
7.76224e-19
6.84552e-21
3.80483e-20
1.01063e-19
1.8967e-19
2.93976e-19
3.99465e-19
4.89708e-19
5.52999e-19
5.84595e-19
5.82418e-19
5.67535e-21
3.21933e-20
8.54398e-20
1.55492e-19
2.28892e-19
2.93486e-19
3.41227e-19
3.6988e-19
3.81111e-19
3.77034e-19
4.61494e-21
2.65165e-20
6.91967e-20
1.17097e-19
1.546e-19
1.77507e-19
1.88991e-19
1.933e-19
1.93497e-19
1.91679e-19
3.6643e-21
2.07033e-20
4.41015e-20
5.76443e-20
6.30964e-20
6.4582e-20
6.48503e-20
6.47195e-20
6.44663e-20
6.41913e-20
2.82342e-21
1.04522e-20
1.04506e-20
1.04493e-20
1.04483e-20
1.04476e-20
1.04472e-20
1.04471e-20
1.04473e-20
1.04478e-20
)
;

boundaryField
{
    right
    {
        type            cyclic;
    }
    left
    {
        type            cyclic;
    }
    outerWall
    {
        type            nutkWallFunction;
        Cmu             0.09;
        kappa           0.41;
        E               9.8;
        value           uniform 0;
    }
    stirrerWall
    {
        type            nutkWallFunction;
        Cmu             0.09;
        kappa           0.41;
        E               9.8;
        value           uniform 0;
    }
    top
    {
        type            empty;
    }
    bottom
    {
        type            empty;
    }
}


// ************************************************************************* //
