/*--------------------------------*- C++ -*----------------------------------*\
  =========                 |
  \\      /  F ield         | OpenFOAM: The Open Source CFD Toolbox
   \\    /   O peration     | Website:  https://openfoam.org
    \\  /    A nd           | Version:  10
     \\/     M anipulation  |
\*---------------------------------------------------------------------------*/
FoamFile
{
    format      ascii;
    class       volScalarField;
    location    "1000";
    object      nut;
}
// * * * * * * * * * * * * * * * * * * * * * * * * * * * * * * * * * * * * * //

dimensions      [0 2 -1 0 0 0 0];

internalField   nonuniform List<scalar> 
2000
(
1.54722e-10
2.10805e-08
3.139e-07
1.42349e-06
3.9393e-06
8.3918e-06
1.50914e-05
2.38781e-05
3.39657e-05
4.41755e-05
5.33686e-05
6.08941e-05
6.66164e-05
7.08563e-05
7.47151e-05
7.79646e-05
8.27532e-05
8.87652e-05
9.09527e-05
8.90998e-05
1.22063e-10
1.68276e-08
2.63116e-07
1.13153e-06
2.97018e-06
6.1397e-06
1.08909e-05
1.71471e-05
2.44188e-05
3.19087e-05
3.87876e-05
4.44567e-05
4.85727e-05
5.14896e-05
5.37534e-05
5.61413e-05
6.02799e-05
6.58248e-05
7.15495e-05
7.60984e-05
8.94047e-11
1.22754e-08
2.16038e-07
9.66855e-07
2.40692e-06
4.71849e-06
8.07386e-06
1.24406e-05
1.75218e-05
2.28174e-05
2.7777e-05
3.18996e-05
3.48256e-05
3.7033e-05
3.89354e-05
4.10937e-05
4.46683e-05
5.08583e-05
5.91153e-05
6.75319e-05
6.02421e-11
8.77947e-09
1.57356e-07
8.0196e-07
2.02403e-06
3.78981e-06
6.21027e-06
9.28119e-06
1.28256e-05
1.6536e-05
2.00647e-05
2.3067e-05
2.52932e-05
2.71981e-05
2.91365e-05
3.17531e-05
3.60836e-05
4.33318e-05
5.32285e-05
6.44306e-05
3.73738e-11
5.88481e-09
1.0533e-07
6.00557e-07
1.66353e-06
3.11092e-06
4.92954e-06
7.14579e-06
9.66648e-06
1.23134e-05
1.4878e-05
1.71599e-05
1.90349e-05
2.09438e-05
2.33207e-05
2.69033e-05
3.26873e-05
4.1709e-05
5.33164e-05
6.68705e-05
2.3162e-11
3.75725e-09
6.81349e-08
4.04711e-07
1.22008e-06
2.49621e-06
3.95932e-06
5.63314e-06
7.49164e-06
9.44815e-06
1.14036e-05
1.32805e-05
1.50992e-05
1.73371e-05
2.06012e-05
2.57954e-05
3.38262e-05
4.56708e-05
5.87108e-05
7.33452e-05
1.63595e-11
2.58909e-09
4.56805e-08
2.66525e-07
8.35272e-07
1.84423e-06
3.10652e-06
4.45997e-06
5.90808e-06
7.44215e-06
9.05886e-06
1.08114e-05
1.29186e-05
1.59823e-05
2.10823e-05
2.90257e-05
4.00227e-05
5.54688e-05
6.56385e-05
7.53519e-05
1.39496e-11
2.15475e-09
3.55737e-08
1.87318e-07
5.59029e-07
1.25539e-06
2.29656e-06
3.48011e-06
4.68647e-06
5.99395e-06
7.50263e-06
9.48891e-06
1.2649e-05
1.78556e-05
2.68889e-05
3.93487e-05
4.97305e-05
5.79503e-05
6.36357e-05
6.95671e-05
1.5051e-11
2.28426e-09
3.49438e-08
1.60505e-07
4.23168e-07
8.78676e-07
1.60899e-06
2.62035e-06
3.72954e-06
4.98274e-06
6.66355e-06
9.53936e-06
1.55171e-05
2.43989e-05
3.4048e-05
4.3448e-05
5.02043e-05
5.29936e-05
5.37507e-05
5.64457e-05
1.98675e-11
2.90915e-09
4.12915e-08
1.70366e-07
4.02853e-07
7.49511e-07
1.26438e-06
2.05542e-06
3.08093e-06
4.44116e-06
6.75196e-06
1.14382e-05
1.85377e-05
2.74542e-05
3.60657e-05
4.24129e-05
4.4845e-05
4.29057e-05
4.10726e-05
4.18546e-05
2.92019e-11
4.06091e-09
5.25847e-08
1.99722e-07
4.54544e-07
8.18882e-07
1.27697e-06
1.92415e-06
2.8633e-06
4.45193e-06
7.66001e-06
1.28392e-05
2.07175e-05
3.00816e-05
3.71956e-05
3.91036e-05
3.63085e-05
3.12015e-05
2.76592e-05
2.73135e-05
4.3186e-11
5.69673e-09
6.73324e-08
2.3608e-07
5.26943e-07
1.00208e-06
1.60638e-06
2.31556e-06
3.24368e-06
5.15748e-06
7.17517e-06
1.16376e-05
2.23474e-05
2.99596e-05
3.40529e-05
3.26543e-05
2.63595e-05
2.00506e-05
1.65489e-05
1.60177e-05
6.0706e-11
7.57591e-09
8.07506e-08
2.6307e-07
5.90054e-07
1.18984e-06
2.13495e-06
3.26361e-06
4.41989e-06
5.8092e-06
8.70904e-06
1.55756e-05
2.27758e-05
2.88784e-05
3.05486e-05
2.68149e-05
1.85889e-05
1.27523e-05
9.40106e-06
8.51099e-06
7.78032e-11
9.17428e-09
8.6357e-08
2.61166e-07
5.91388e-07
1.27031e-06
2.55742e-06
4.34571e-06
6.04362e-06
7.50255e-06
1.06254e-05
1.7028e-05
2.3026e-05
2.76157e-05
2.7766e-05
2.30203e-05
1.41583e-05
8.60904e-06
5.36618e-06
4.21412e-06
8.73249e-11
9.71442e-09
7.85071e-08
2.2121e-07
5.04494e-07
1.13156e-06
2.49256e-06
4.9104e-06
7.53116e-06
9.09068e-06
1.26096e-05
1.7748e-05
2.27437e-05
2.63473e-05
2.61908e-05
2.19843e-05
1.35655e-05
7.44217e-06
3.76939e-06
2.3063e-06
8.1704e-11
8.43225e-09
5.64654e-08
1.50738e-07
3.49093e-07
8.10121e-07
1.90229e-06
4.3399e-06
7.77316e-06
9.61764e-06
1.20443e-05
1.58646e-05
2.16067e-05
2.5169e-05
2.47891e-05
2.14874e-05
1.51029e-05
7.51021e-06
3.34172e-06
1.66505e-06
5.7853e-11
5.19284e-09
2.7762e-08
7.28169e-08
1.74429e-07
4.19406e-07
1.0238e-06
2.53569e-06
5.52694e-06
8.2168e-06
9.55672e-06
1.16156e-05
1.28973e-05
1.48515e-05
1.92235e-05
1.83758e-05
1.21312e-05
5.67091e-06
2.49902e-06
1.14682e-06
2.57514e-11
1.55806e-09
6.71815e-09
1.85235e-08
4.73804e-08
1.18788e-07
2.94839e-07
7.34912e-07
1.8262e-06
3.50683e-06
5.82344e-06
8.11974e-06
8.80102e-06
1.02062e-05
1.08858e-05
8.76554e-06
5.02515e-06
2.42413e-06
1.13607e-06
5.20077e-07
5.87954e-12
1.13813e-10
4.15196e-10
1.27476e-09
3.60482e-09
9.63243e-09
2.47081e-08
6.20039e-08
1.57907e-07
3.47143e-07
6.70398e-07
1.19326e-06
1.4742e-06
1.51766e-06
1.33866e-06
9.86627e-07
5.90099e-07
3.46775e-07
1.8582e-07
8.57676e-08
5.72353e-14
7.34355e-13
2.59645e-12
8.35539e-12
2.42281e-11
6.43877e-11
1.60069e-10
3.81015e-10
9.28173e-10
2.41363e-09
5.53768e-09
1.06766e-08
1.35626e-08
1.38146e-08
1.09769e-08
6.40171e-09
4.20433e-09
2.78384e-09
1.80602e-09
3.55127e-09
8.59667e-05
8.51935e-05
9.75327e-05
0.000151321
0.000313413
0.000710563
0.00150552
0.00278742
0.00446466
0.00629509
0.00800393
0.00936089
0.0102144
0.0105755
0.0110563
0.0122858
0.0151655
0.0203085
0.0297776
0.0471088
7.93676e-05
8.54167e-05
0.000107605
0.000180302
0.000379195
0.000834955
0.00169262
0.00300487
0.00466383
0.00644967
0.00811043
0.00941988
0.0102356
0.0105741
0.0110515
0.0122757
0.0151621
0.0203369
0.0297706
0.0470534
7.56544e-05
8.85719e-05
0.000122988
0.000219033
0.000458676
0.000971302
0.00187891
0.00320223
0.00483178
0.00657459
0.00819479
0.00946545
0.0102515
0.0105723
0.0110495
0.0122708
0.0151648
0.0203649
0.0297059
0.0467429
7.66816e-05
9.66612e-05
0.000144487
0.000263757
0.000539701
0.00109939
0.00204181
0.00336285
0.00496164
0.00666985
0.00825975
0.00949946
0.010261
0.0105666
0.0110462
0.0122657
0.0151678
0.0203966
0.0296219
0.0463142
8.25761e-05
0.000108861
0.000167726
0.000303312
0.000604495
0.00119854
0.00216281
0.0034749
0.0050482
0.00673323
0.00830371
0.00952074
0.010264
0.0105577
0.0110418
0.0122603
0.0151713
0.0204361
0.0295345
0.0457292
9.02486e-05
0.000119229
0.000182223
0.000323753
0.000637142
0.00125351
0.00223128
0.00353445
0.00509129
0.00676554
0.00832763
0.00953034
0.0102612
0.010546
0.0110365
0.0122552
0.0151757
0.0204865
0.0294657
0.0449828
8.96658e-05
0.000118345
0.000181852
0.000325793
0.000646211
0.00126902
0.00224723
0.00354501
0.00509495
0.00676971
0.00833323
0.00952925
0.0102529
0.0105317
0.0110299
0.0122494
0.0151791
0.0205481
0.0294445
0.0440975
8.09467e-05
0.000107118
0.000167534
0.000308138
0.00062754
0.00125337
0.00222953
0.0035158
0.00506758
0.0067514
0.00832478
0.00952056
0.0102411
0.0105161
0.0110223
0.0122429
0.0151808
0.0206192
0.0295057
0.0431347
6.56051e-05
8.8615e-05
0.000143473
0.000276323
0.000587752
0.0012108
0.00218538
0.00347019
0.00502371
0.00671854
0.00830784
0.00950788
0.0102277
0.0105005
0.0110146
0.0122364
0.0151804
0.0206958
0.0296818
0.0421938
4.86209e-05
6.74534e-05
0.000115092
0.000237248
0.000536824
0.00115313
0.00212646
0.00341413
0.00497656
0.00668237
0.00828559
0.0094929
0.0102132
0.010485
0.0110061
0.0122293
0.0151767
0.0207705
0.0299929
0.0414073
3.22576e-05
4.72086e-05
8.74369e-05
0.000197684
0.000482982
0.00109126
0.00206499
0.0033582
0.00493227
0.00665097
0.00826471
0.0094791
0.0101995
0.0104708
0.0109972
0.012222
0.0151695
0.0208351
0.0304379
0.0409259
1.95633e-05
3.10443e-05
6.43911e-05
0.000162917
0.00043362
0.00103432
0.00201092
0.00331265
0.00489941
0.00663014
0.00825126
0.0094695
0.010188
0.0104588
0.0109879
0.0122149
0.0151591
0.0208829
0.0309854
0.0408978
1.07509e-05
1.9255e-05
4.67373e-05
0.000135026
0.000393171
0.000988851
0.00196979
0.00328052
0.00488049
0.00662127
0.00824637
0.0094641
0.0101786
0.0104486
0.0109777
0.0122084
0.0151459
0.020912
0.0315707
0.0414379
5.41283e-06
1.15391e-05
3.44283e-05
0.000114732
0.000364078
0.000958426
0.00194347
0.00326233
0.00487549
0.00662588
0.00825144
0.00946465
0.0101722
0.0104412
0.0109671
0.0122028
0.0151307
0.0209296
0.0320963
0.0425126
2.66827e-06
6.9847e-06
2.66921e-05
0.000101837
0.000347473
0.000944536
0.00193349
0.00325904
0.00488353
0.00664097
0.00826548
0.00947171
0.0101691
0.0104366
0.010956
0.0121987
0.0151137
0.0209566
0.0324596
0.0438953
1.55448e-06
4.74858e-06
2.27537e-05
9.58656e-05
0.000343512
0.000948454
0.00193968
0.00327055
0.00490458
0.00666886
0.0082901
0.00948624
0.0101691
0.0104348
0.0109442
0.0121962
0.0150922
0.0209998
0.0324874
0.047338
9.312e-07
3.66176e-06
2.1468e-05
9.70925e-05
0.000356828
0.000979088
0.00197187
0.00330397
0.00494444
0.00671139
0.00832493
0.00950743
0.0101718
0.0104352
0.0109314
0.0121957
0.0150619
0.0210136
0.0324652
0.0501182
4.85917e-07
3.13781e-06
2.24065e-05
0.000106366
0.00039211
0.00103954
0.00202887
0.0033587
0.00500281
0.00676791
0.00836881
0.00953409
0.0101764
0.0104373
0.0109171
0.0121973
0.0150206
0.0209842
0.032386
0.0497649
2.13609e-07
2.89566e-06
2.54307e-05
0.000124987
0.000453941
0.00112836
0.00210683
0.00343301
0.00507878
0.00683756
0.00842084
0.00956539
0.0101827
0.0104406
0.0109013
0.0122008
0.0149675
0.0209537
0.0321817
0.0492904
8.73166e-08
2.70858e-06
3.06659e-05
0.000158362
0.000551197
0.00113079
0.0018636
0.00284341
0.00428667
0.00616288
0.00826244
0.00960133
0.010191
0.0104457
0.0108854
0.012196
0.0149094
0.0208516
0.0319467
0.0484123
3.66982e-08
2.96985e-06
4.34674e-05
0.000221609
0.000649992
0.000948315
0.00153235
0.00235395
0.00347527
0.00492635
0.00668361
0.0090329
0.0101964
0.0104453
0.0108721
0.0121855
0.0148584
0.020681
0.0314354
0.0474757
3.81829e-08
3.12679e-06
4.608e-05
0.000234584
0.000662383
0.00100097
0.00154494
0.00231753
0.00326081
0.00451541
0.00602819
0.00829459
0.0101995
0.0104428
0.0108677
0.0121775
0.0148454
0.0206349
0.031395
0.0472806
4.111e-08
3.36511e-06
4.96175e-05
0.000252244
0.00058848
0.000921764
0.00142679
0.00217089
0.00307603
0.00427602
0.00573981
0.00789662
0.0102175
0.0104514
0.0108735
0.012179
0.0148409
0.0205947
0.0313971
0.0470567
4.54992e-08
3.69407e-06
5.43514e-05
0.000274474
0.000551028
0.000892297
0.0013837
0.00211555
0.00299378
0.00415239
0.00558078
0.00763561
0.010239
0.0104641
0.0108838
0.012185
0.0148407
0.0205574
0.0314171
0.0468909
5.16646e-08
4.13073e-06
6.06929e-05
0.000302384
0.000537352
0.000894018
0.00137865
0.00210635
0.00296207
0.00408885
0.00548809
0.00746929
0.0102639
0.0104811
0.0108994
0.0121963
0.0148452
0.0205233
0.0314484
0.0467527
6.02439e-08
4.70821e-06
6.91345e-05
0.000326139
0.000533911
0.000907281
0.00138611
0.00211204
0.00295002
0.00405272
0.0054263
0.00734881
0.0102915
0.0105025
0.0109204
0.0122132
0.0148546
0.0204929
0.0314881
0.0466286
7.21729e-08
5.47555e-06
8.02954e-05
0.000335897
0.000538088
0.000928943
0.00140196
0.00212691
0.00295056
0.00403431
0.00538718
0.00726305
0.0103214
0.010528
0.0109467
0.0122355
0.0148691
0.0204662
0.0315342
0.0465133
8.87451e-08
6.50086e-06
9.49498e-05
0.000350893
0.00054885
0.00095788
0.00142465
0.00214904
0.00296127
0.00402956
0.00536819
0.00720441
0.0103527
0.0105572
0.0109781
0.0122632
0.0148887
0.0204431
0.0315841
0.0463998
1.11721e-07
7.87723e-06
0.000114033
0.000371311
0.00056544
0.000993066
0.001453
0.00217711
0.00298082
0.00403728
0.00536577
0.00717061
0.010385
0.0105897
0.0110143
0.0122959
0.0149134
0.0204232
0.0316348
0.046275
1.43493e-07
9.73166e-06
0.000138571
0.000397681
0.000587141
0.00103331
0.00148605
0.00220978
0.00300769
0.00405605
0.00537807
0.00715854
0.0104173
0.0106248
0.0110549
0.0123331
0.0149433
0.0204057
0.0316821
0.0461192
1.87304e-07
1.22408e-05
0.000169404
0.000430669
0.000613221
0.00107747
0.00152296
0.00224609
0.00304067
0.00408394
0.00540446
0.00716413
0.010449
0.0106621
0.0110995
0.0123746
0.014978
0.0203896
0.0317214
0.0459283
2.47552e-07
1.563e-05
0.000201328
0.000470049
0.000643459
0.00112482
0.00156309
0.00228566
0.00307908
0.00412005
0.00544329
0.00718679
0.0104794
0.010701
0.0111473
0.0124196
0.0150174
0.0203738
0.0317473
0.0456954
3.30228e-07
2.01988e-05
0.000216241
0.000515067
0.000677486
0.00117478
0.00160607
0.00232837
0.00312244
0.00416391
0.00549348
0.00722589
0.0105076
0.0107406
0.0111978
0.0124673
0.0150607
0.0203568
0.031754
0.0453988
4.43507e-07
2.63561e-05
0.000232611
0.000565032
0.000714442
0.00122672
0.00165179
0.00237433
0.00317065
0.00421497
0.00555508
0.00727934
0.010533
0.0107801
0.0112499
0.0125168
0.0151074
0.020337
0.0317357
0.0450225
5.98553e-07
3.46409e-05
0.000250156
0.000613855
0.000754095
0.00128002
0.00170016
0.00242364
0.00322371
0.0042728
0.00562707
0.00734615
0.0105546
0.0108185
0.0113027
0.012567
0.0151563
0.0203126
0.0316875
0.0445565
8.10639e-07
4.57249e-05
0.000267936
0.000661483
0.000796113
0.00133413
0.0017505
0.00247547
0.00328026
0.00433617
0.00570662
0.00742485
0.0105716
0.0108548
0.0113548
0.0126165
0.0152063
0.0202819
0.0316058
0.0439933
1.10065e-06
6.03624e-05
0.000285341
0.000719627
0.000840397
0.00139179
0.00180547
0.00253408
0.00334408
0.00440909
0.00579787
0.00751779
0.0105827
0.0108874
0.0114045
0.0126638
0.0152559
0.0202433
0.0314897
0.0433283
1.49324e-06
8.02815e-05
0.000301566
0.00079177
0.000887263
0.00146425
0.00187949
0.00262093
0.00343876
0.00451732
0.00593388
0.00765367
0.0105865
0.0109147
0.0114499
0.0127069
0.0153031
0.0201951
0.0313418
0.0425853
2.02261e-06
0.000108602
0.000317838
0.000899331
0.000944686
0.0015516
0.00195951
0.00270408
0.00351602
0.00460083
0.00604503
0.00778493
0.0105815
0.0109345
0.0114886
0.0127435
0.0153457
0.0201371
0.0311699
0.0419476
2.7343e-06
0.000152322
0.000386034
0.00104554
0.00111163
0.00157646
0.00196845
0.00256047
0.00333094
0.00432709
0.00577087
0.00756531
0.0105655
0.0109443
0.0115178
0.0127709
0.0153819
0.0200722
0.0309918
0.0425947
2.79062e-05
0.000261955
0.000410139
0.000895548
0.00124592
0.00189606
0.00266301
0.00362855
0.00487068
0.00627829
0.00821393
0.00981336
0.0105284
0.0109387
0.0115345
0.0127863
0.0154094
0.0199792
0.0307819
0.043058
0.000172415
0.000276631
0.00046333
0.000749882
0.00123316
0.00184034
0.00267402
0.00385382
0.00534499
0.00698061
0.00851948
0.00973022
0.0104822
0.0109052
0.0115143
0.0127863
0.0153454
0.0199251
0.0298856
0.0418965
0.000208149
0.000277874
0.000409283
0.000636922
0.0010054
0.00156125
0.00234954
0.00344071
0.00487669
0.00667791
0.00841221
0.00966218
0.0104466
0.01088
0.0114918
0.0127715
0.0153277
0.019914
0.0294639
0.0411545
0.000211569
0.000284456
0.000414647
0.000643777
0.00102744
0.00154113
0.00232743
0.00348591
0.00499474
0.00668106
0.00828994
0.00958451
0.0104037
0.0108504
0.0114632
0.012748
0.0153154
0.0198615
0.0293677
0.0407105
0.000204756
0.000271134
0.000390941
0.00060844
0.000920514
0.00138757
0.0021488
0.00329556
0.00481238
0.00652379
0.00816867
0.00950693
0.0103603
0.0108191
0.0114308
0.0127188
0.0153001
0.0198113
0.0294194
0.040608
0.000193222
0.000255072
0.000371238
0.000546026
0.000798039
0.00123647
0.00197187
0.00310576
0.00462987
0.00636661
0.00804931
0.00943017
0.0103173
0.0107876
0.0113968
0.0126867
0.0152869
0.0197786
0.0294739
0.0407553
0.000179504
0.000236937
0.000329831
0.000455231
0.000683492
0.00109396
0.00180285
0.00292225
0.00445315
0.00621594
0.00793486
0.00935578
0.0102759
0.0107567
0.011362
0.0126529
0.0152762
0.0197841
0.029424
0.0408307
0.000171003
0.000210821
0.00026623
0.000374712
0.00058065
0.000963996
0.00164638
0.00275071
0.00428762
0.00607528
0.00782767
0.00928528
0.010237
0.0107271
0.0113275
0.0126181
0.0152661
0.0198361
0.0291862
0.0422322
0.000151443
0.000169069
0.000213086
0.000306097
0.000491074
0.000848572
0.00150527
0.0025948
0.004137
0.00594735
0.00772954
0.00922048
0.0102014
0.010699
0.0112935
0.0125831
0.0152531
0.0198936
0.0290562
0.0400945
0.000128144
0.00013688
0.00017051
0.000249325
0.000414928
0.000748146
0.00138058
0.00245633
0.00400329
0.00583379
0.00764208
0.00916306
0.0101697
0.010673
0.0112608
0.0125486
0.0152376
0.0199324
0.0303778
0.0496099
0.000113205
0.0001135
0.000137747
0.000203941
0.000352154
0.000663117
0.00127307
0.00233605
0.0038875
0.005736
0.00756714
0.00911466
0.0101427
0.0106498
0.0112304
0.0125159
0.0152223
0.0199024
0.0301211
0.049245
0.000105104
9.7787e-05
0.000114006
0.000169475
0.000302788
0.000594345
0.00118426
0.0022355
0.00379117
0.00565629
0.00750765
0.00907628
0.0101209
0.01063
0.0112032
0.0124864
0.0152121
0.0198923
0.0298762
0.048708
0.000101827
8.8366e-05
9.81973e-05
0.000145167
0.00026655
0.000542264
0.00111534
0.00215651
0.00371627
0.00559646
0.0074651
0.00904828
0.0101045
0.0106139
0.0111798
0.0124606
0.0152072
0.0199016
0.0296415
0.0481478
0.000101094
8.31023e-05
8.77451e-05
0.000127565
0.00023925
0.00050342
0.00106602
0.00210268
0.00366764
0.00555979
0.00744036
0.0090304
0.0100929
0.0106012
0.0111603
0.0124385
0.0152071
0.0199279
0.0294514
0.0476947
0.000101329
8.02855e-05
8.08508e-05
0.000114832
0.000218925
0.00047539
0.00103393
0.00207364
0.00364808
0.00555046
0.00743645
0.00902546
0.010087
0.0105912
0.0111435
0.0124193
0.0152104
0.0199683
0.0293108
0.0470533
0.000101451
7.90294e-05
7.66865e-05
0.000106123
0.00020479
0.000457753
0.00101949
0.00207078
0.00365911
0.00556908
0.00745318
0.00903301
0.0100867
0.0105832
0.0111284
0.0124013
0.0152148
0.0200191
0.0291769
0.0464388
0.00010068
7.85297e-05
7.44618e-05
0.000100647
0.00019622
0.000450502
0.0010238
0.00209586
0.0037018
0.00561512
0.00748963
0.00905225
0.0100913
0.0105769
0.0111148
0.0123846
0.0152194
0.0200778
0.0291502
0.0461229
9.87004e-05
7.82737e-05
7.36718e-05
9.80284e-05
0.000193245
0.000454598
0.00104883
0.00215064
0.00377616
0.00568701
0.00754384
0.0090817
0.0101
0.010571
0.0111014
0.0123682
0.0152233
0.0201403
0.0291675
0.0458914
9.55407e-05
7.78705e-05
7.38881e-05
9.81979e-05
0.000196749
0.000472742
0.00109893
0.00223876
0.00388311
0.00578406
0.00761494
0.00912035
0.0101116
0.010565
0.011088
0.0123513
0.0152251
0.0202021
0.0292122
0.0457137
9.06873e-05
7.70224e-05
7.47812e-05
0.00010154
0.000208927
0.000510154
0.00118172
0.00236697
0.00402619
0.00590671
0.00770151
0.00916681
0.0101253
0.0105579
0.0110741
0.0123338
0.0152238
0.0202601
0.0292645
0.0457682
1.37096e-06
8.08494e-05
0.000173739
0.000192368
0.000193632
0.000187538
0.000177307
0.000170103
0.000169811
0.000145063
0.000128911
0.000120763
0.000118465
0.000118795
0.000119892
0.000120325
0.000119077
0.000115725
0.000111087
0.000105385
6.2076e-07
4.8134e-05
0.000159819
0.000179127
0.000180697
0.000175547
0.000167411
0.000161894
0.000170648
0.000156098
0.000142386
0.000136319
0.00013572
0.000137176
0.00013884
0.00013911
0.000136928
0.000131438
0.000124339
0.00011807
2.9514e-07
3.07985e-05
0.000163826
0.000180195
0.000179717
0.000173402
0.000165264
0.000159083
0.000164331
0.000167556
0.000156092
0.000151178
0.000150802
0.00015185
0.000152401
0.000150986
0.000146913
0.000139202
0.000129179
0.000122058
1.31825e-07
1.93911e-05
0.000146629
0.000191022
0.000190094
0.00018181
0.000171999
0.000163462
0.000163174
0.000177744
0.000168606
0.000164177
0.000162552
0.000161292
0.000158377
0.000153509
0.000145931
0.000136022
0.000124687
0.000115052
6.75748e-08
1.04119e-05
0.000102181
0.000210482
0.000211811
0.000202607
0.000190846
0.000179458
0.000172735
0.000177568
0.00017713
0.000173802
0.000171057
0.000166558
0.000158647
0.000150256
0.000139742
0.000129238
0.000118165
0.000106482
3.83528e-08
5.53354e-06
5.72499e-05
0.000172137
0.000235884
0.000234897
0.00021962
0.000204726
0.000192879
0.000184207
0.000178718
0.000175443
0.000170695
0.000161545
0.000150641
0.000140692
0.000130637
0.000121375
0.00011108
9.87756e-05
2.19301e-08
2.96206e-06
3.03755e-05
0.000105103
0.000183663
0.000211681
0.000208929
0.000198602
0.000188599
0.000180645
0.000174818
0.000169793
0.000162752
0.000153146
0.000142585
0.000131901
0.000122269
0.000113191
0.000103009
9.05791e-05
1.23307e-08
1.62578e-06
1.64278e-05
5.86964e-05
0.000120142
0.000166465
0.000184085
0.000184757
0.000179602
0.000173457
0.000167692
0.000161745
0.000153947
0.000144148
0.000133638
0.00012318
0.000114086
0.00010576
9.59505e-05
8.33374e-05
6.74388e-09
8.87198e-07
8.98074e-06
3.20138e-05
7.02486e-05
0.000111458
0.000140941
0.000155237
0.000159196
0.000157932
0.000154237
0.000148881
0.000141314
0.000131638
0.000121596
0.00011229
0.000104394
9.6799e-05
8.72825e-05
7.52951e-05
3.56532e-09
4.76819e-07
4.96901e-06
1.76243e-05
3.94873e-05
6.69642e-05
9.32533e-05
0.000112861
0.000124443
0.000129497
0.000130019
0.000127328
0.000121917
0.000114185
0.000106104
9.86834e-05
9.20489e-05
8.50176e-05
7.61192e-05
6.53565e-05
1.81362e-09
2.49534e-07
2.74357e-06
9.79478e-06
2.20841e-05
3.84918e-05
5.63501e-05
7.26242e-05
8.51861e-05
9.33312e-05
9.73622e-05
9.79531e-05
9.5909e-05
9.16224e-05
8.66429e-05
8.16236e-05
7.65406e-05
7.05344e-05
6.27711e-05
5.36347e-05
8.87485e-10
1.26853e-07
1.50605e-06
5.50801e-06
1.24723e-05
2.19648e-05
3.29017e-05
4.38512e-05
5.34992e-05
6.09705e-05
6.59066e-05
6.836e-05
6.88522e-05
6.76213e-05
6.55315e-05
6.28392e-05
5.93997e-05
5.46517e-05
4.82809e-05
4.09517e-05
4.21042e-10
6.29531e-08
8.19897e-07
3.14003e-06
7.192e-06
1.27209e-05
1.92375e-05
2.60705e-05
3.25224e-05
3.80299e-05
4.22273e-05
4.49654e-05
4.64314e-05
4.68147e-05
4.64335e-05
4.52374e-05
4.29868e-05
3.93449e-05
3.43236e-05
2.87099e-05
1.95803e-10
3.06043e-08
4.40968e-07
1.81534e-06
4.26124e-06
7.58772e-06
1.15189e-05
1.57292e-05
1.98635e-05
2.35981e-05
2.66821e-05
2.89558e-05
3.03813e-05
3.12293e-05
3.14349e-05
3.08073e-05
2.90864e-05
2.61657e-05
2.22894e-05
1.8232e-05
8.95112e-11
1.4468e-08
2.31747e-07
1.05734e-06
2.5957e-06
4.69798e-06
7.1738e-06
9.83313e-06
1.24887e-05
1.49638e-05
1.71001e-05
1.87715e-05
1.98955e-05
2.05623e-05
2.06295e-05
1.98809e-05
1.81919e-05
1.57138e-05
1.28597e-05
1.02198e-05
3.9021e-11
6.37464e-09
1.13852e-07
5.93684e-07
1.58043e-06
2.96977e-06
4.6107e-06
6.36953e-06
8.12539e-06
9.76454e-06
1.11794e-05
1.22761e-05
1.29531e-05
1.3106e-05
1.26213e-05
1.146e-05
9.79272e-06
7.93233e-06
6.18368e-06
4.78741e-06
1.50314e-11
2.43346e-09
4.42641e-08
2.7317e-07
8.38152e-07
1.71841e-06
2.79135e-06
3.93451e-06
5.04447e-06
6.0287e-06
6.7988e-06
7.26302e-06
7.27085e-06
6.78011e-06
5.90449e-06
4.84662e-06
3.80353e-06
2.89257e-06
2.16282e-06
1.6606e-06
4.34034e-12
6.85951e-10
1.17795e-08
7.06296e-08
2.58152e-07
6.0864e-07
1.06912e-06
1.55125e-06
1.97553e-06
2.2807e-06
2.42264e-06
2.36809e-06
2.07567e-06
1.71369e-06
1.35567e-06
1.04113e-06
7.82362e-07
5.75047e-07
4.16429e-07
3.31478e-07
8.44715e-13
1.30785e-10
1.68624e-09
7.58771e-09
2.34844e-08
6.00072e-08
1.08251e-07
1.55925e-07
1.92157e-07
2.09184e-07
2.0399e-07
1.786e-07
1.47181e-07
1.20005e-07
9.55302e-08
7.3627e-08
5.45933e-08
3.80564e-08
2.61994e-08
2.21939e-08
8.90772e-14
7.97091e-12
3.51641e-11
1.05172e-10
2.48515e-10
5.00791e-10
8.77433e-10
1.24215e-09
1.48e-09
1.53033e-09
1.40232e-09
1.17669e-09
9.96554e-10
8.38395e-10
6.89882e-10
5.50452e-10
4.24519e-10
3.16248e-10
2.35497e-10
1.97399e-10
)
;

boundaryField
{
    right
    {
        type            cyclic;
    }
    left
    {
        type            cyclic;
    }
    outerWall
    {
        type            nutkWallFunction;
        Cmu             0.09;
        kappa           0.41;
        E               9.8;
        value           nonuniform List<scalar> 
60
(
0
0
0
0
0
0
0
0
0
0
0
0
0
0
0
0
0
0
0
0
0
0
0
0
0
0
0
0
0
0
0
0
0
0
0
0
0
0
0
0
0
0
0
0
0
0
0
0
0
2.62685e-05
0
0
0
0
0
0
0
0
0
0
)
;
    }
    stirrerWall
    {
        type            nutkWallFunction;
        Cmu             0.09;
        kappa           0.41;
        E               9.8;
        value           uniform 0;
    }
    top
    {
        type            empty;
    }
    bottom
    {
        type            empty;
    }
}


// ************************************************************************* //
