/*--------------------------------*- C++ -*----------------------------------*\
  =========                 |
  \\      /  F ield         | OpenFOAM: The Open Source CFD Toolbox
   \\    /   O peration     | Website:  https://openfoam.org
    \\  /    A nd           | Version:  10
     \\/     M anipulation  |
\*---------------------------------------------------------------------------*/
FoamFile
{
    format      ascii;
    class       volScalarField;
    location    "1000";
    object      omega;
}
// * * * * * * * * * * * * * * * * * * * * * * * * * * * * * * * * * * * * * //

dimensions      [0 0 -1 0 0 0 0];

internalField   nonuniform List<scalar> 
420
(
21252.7
3473.99
1170.69
603.344
390.029
291.576
250.607
254.254
298.557
369.613
21253.7
3481.85
1191.94
614.464
395.672
294.782
253.216
258.361
308.621
394.948
21254.2
3483.43
1210.29
623.986
401.419
299.394
258.592
267.08
325.735
428.992
21254
3481.56
1220.61
635.23
412.567
310.531
270.608
282.655
352.565
479.543
21253.2
3485.62
1237.32
664.018
444.173
341.326
300.352
314.929
399.088
558.619
21251.7
3520.5
1307.84
758.112
538.379
427.604
378.262
390.175
489.043
692.706
21249.7
3700.93
1598.69
1067.13
820.929
674.721
593.336
583.443
684.674
946.252
21247.1
4652.12
2751.57
2110.53
1717.31
1438.48
1247.01
1148.34
1185.77
1511.35
21243.8
10309.7
7908.95
6403.21
5299.12
4461.34
3823.78
3352.88
3028.5
3279.62
78643.9
60596.7
48114.3
39124.4
32436.5
27327.1
23335.9
20159.1
17589.3
15481.3
446.242
491.509
456.779
356.145
275.394
250.797
303.807
377.518
774.005
3581.27
490.428
543.167
491.626
367.737
277.177
250.314
304.917
376.852
779.22
3581.17
548.026
607.443
531.121
379.327
278.922
249.771
305.095
376.938
782.052
3581.13
629.004
690.592
576.473
390.714
280.624
249.287
304.713
377.824
782.076
3581.18
750.06
801.84
628.415
401.007
281.776
248.826
304.038
379.187
786.177
3581.3
943.497
955.541
686.915
408.724
282.067
248.44
303.187
381.002
785.573
3581.49
1280.74
1173.79
749.874
411.881
281.267
248.196
302.368
383.206
785.965
3581.76
1936.18
1490.43
810.841
407.856
279.19
248.095
301.389
385.621
787.728
3582.1
3403.37
1954.89
855.764
394.206
276.005
248.164
300.224
387.76
791.559
3582.51
7447.38
2618.06
853.195
369.31
272.286
248.502
299.7
389.618
799.5
3582.99
21359.1
3197.59
730.477
334.611
268.847
248.889
299.914
391.533
814.987
3575.63
21359.1
2577.73
585.842
317.693
267.823
248.514
299.045
393.841
819.906
3575.63
4107.36
1043.12
414.095
302.661
266.607
247.984
298.116
395.624
835.393
3582.99
904.427
448.086
332.684
295.86
266.211
248.715
296.429
392.388
862.344
3582.51
396.539
339.022
321.062
295.98
265.937
249.697
295.978
391.757
866.254
3582.1
323.464
329.561
324.737
297.936
265.715
250.664
295.633
389.469
855.78
3581.76
319.786
337.181
332.213
300.929
265.638
251.501
295.895
386.26
833.539
3581.49
329.551
349.659
342.136
305.044
265.781
252.121
296.703
383.103
804.127
3581.3
343.788
365.551
354.862
310.54
266.226
252.46
298.101
380.912
773.066
3581.18
361.391
385.642
371.25
317.707
267.01
252.362
299.991
381.03
756.134
3581.13
382.932
411.579
392.54
327.033
268.391
251.823
302.268
382.687
763.107
3581.17
411.147
446.438
420.698
339.283
270.787
251.632
304.47
381.995
773.971
3581.27
15481.3
1989.89
556.08
332.315
297.908
298.434
307.136
318.906
332.851
350.364
17589.3
2641.72
758.3
378.826
293.021
274.767
274.059
278.622
284.859
291.611
20159.1
3403.64
1043.16
487.871
325.771
273.87
256.924
252.082
251.763
252.499
23335.9
4266.21
1465.45
694.942
423.482
317.052
272.981
254.227
247.245
247.373
27327.1
5004.83
1843.43
937.208
579.578
417.098
338.791
301.026
285.455
286.057
32436.5
5835.87
2197.1
1170.69
755.315
555.855
453.422
401.528
379.827
381.246
39124.4
6897.23
2598.84
1428.01
970.086
756.575
650.724
600.315
582.625
588.925
48114.3
8373.84
3208.89
1896.24
1436.25
1250.91
1174.89
1148.71
1147.53
1158.42
60596.7
10725.1
5034.85
3851.98
3519.13
3438.18
3423.96
3430.88
3444.35
3459.11
78643.9
21243.8
21247.1
21249.7
21251.7
21253.2
21254
21254.2
21253.7
21252.7
)
;

boundaryField
{
    right
    {
        type            cyclic;
    }
    left
    {
        type            cyclic;
    }
    outerWall
    {
        beta1           0.075;
        blended         0;
        type            omegaWallFunction;
        value           nonuniform List<scalar> 
22
(
3581.27
3581.17
3581.13
3581.18
3581.3
3581.49
3581.76
3582.1
3582.51
3582.99
3575.63
3575.63
3582.99
3582.51
3582.1
3581.76
3581.49
3581.3
3581.18
3581.13
3581.17
3581.27
)
;
    }
    stirrerWall
    {
        beta1           0.075;
        blended         0;
        type            omegaWallFunction;
        value           nonuniform List<scalar> 
42
(
21252.7
21253.7
21254.2
21254
21253.2
21251.7
21249.7
21247.1
21243.8
78643.9
78643.9
60596.7
48114.3
39124.4
32436.5
27327.1
23335.9
20159.1
17589.3
15481.3
21359.1
21359.1
15481.3
17589.3
20159.1
23335.9
27327.1
32436.5
39124.4
48114.3
60596.7
78643.9
78643.9
21243.8
21247.1
21249.7
21251.7
21253.2
21254
21254.2
21253.7
21252.7
)
;
    }
    top
    {
        type            empty;
    }
    bottom
    {
        type            empty;
    }
}


// ************************************************************************* //
