/*--------------------------------*- C++ -*----------------------------------*\
  =========                 |
  \\      /  F ield         | OpenFOAM: The Open Source CFD Toolbox
   \\    /   O peration     | Website:  https://openfoam.org
    \\  /    A nd           | Version:  10
     \\/     M anipulation  |
\*---------------------------------------------------------------------------*/
FoamFile
{
    format      ascii;
    class       volScalarField;
    location    "1000";
    object      p;
}
// * * * * * * * * * * * * * * * * * * * * * * * * * * * * * * * * * * * * * //

dimensions      [0 2 -2 0 0 0 0];

internalField   nonuniform List<scalar> 
420
(
0.462367
15.5436
31.0975
48.8504
68.146
88.4362
109.343
130.406
151.24
171.369
0.157428
14.9582
30.2892
47.8139
66.9624
87.2457
108.32
129.697
150.865
171.287
-0.0426726
14.5126
29.5904
46.8573
65.8256
86.0831
107.307
128.978
150.494
171.241
-0.156816
14.205
29.0388
46.0337
64.7877
84.9678
106.282
128.217
150.088
171.196
-0.252328
14.026
28.6477
45.3613
63.8584
83.8903
105.22
127.375
149.6
171.105
-0.330862
13.9738
28.4226
44.847
63.0396
82.843
104.089
126.392
148.974
170.935
-0.391197
14.0443
28.3624
44.4878
62.3274
81.8131
102.858
125.203
148.15
170.703
-0.447162
14.2333
28.4637
44.2752
61.7215
80.8009
101.5
123.701
146.948
170.226
-0.542941
14.5498
28.706
44.1941
61.2456
79.8686
100.072
121.82
144.895
168.516
-0.727108
14.9714
28.9385
44.1515
60.8982
79.1301
98.8107
119.859
142.021
164.965
190.277
208.362
225.733
242.009
257.156
271.1
282.022
299.902
304.568
329.907
190.404
208.588
225.967
242.249
257.478
271.542
282.646
301
307.298
329.48
190.596
208.896
226.304
242.656
258.045
272.328
283.658
302.392
309.734
330.492
190.825
209.253
226.688
243.129
258.701
273.257
284.849
303.803
312.372
331.992
191.049
209.61
227.077
243.626
259.37
274.224
286.128
305.222
314.636
332.953
191.251
209.925
227.432
244.12
260.008
275.125
287.312
306.502
316.269
333.641
191.526
210.188
227.693
244.572
260.592
275.924
288.301
307.504
317.285
333.984
191.88
210.396
227.786
244.942
261.152
276.676
289.186
308.464
318.45
334.058
191.725
210.77
227.979
245.322
261.722
277.411
290.114
309.878
321.071
334.252
190.412
211.788
228.778
245.881
262.289
278.059
290.965
311.736
323.078
334.533
189.693
212.402
229.603
246.489
262.686
278.419
290.456
312.794
318.725
333.012
190.681
212.493
230.024
246.657
262.572
278.033
289.788
311.197
314.115
330.675
195.766
213.136
230.413
246.922
262.567
277.589
289.846
307.596
312.893
329.984
195.554
212.871
230.133
246.684
262.234
277.017
289.192
305.644
311.73
326.828
194.364
212.062
229.471
246.083
261.602
276.261
288.481
304.558
309.446
323.606
193.269
211.103
228.63
245.298
260.81
275.378
287.637
303.258
306.795
320.775
192.381
210.232
227.795
244.484
260.007
274.587
287.052
302.434
304.642
318.417
191.662
209.512
227.068
243.746
259.297
274.04
286.924
302.289
304.073
319.981
191.099
208.97
226.498
243.137
258.69
273.546
286.597
301.851
306.023
330.498
190.674
208.588
226.082
242.649
258.09
272.69
285.047
299.566
307.749
347.46
190.365
208.326
225.776
242.226
257.41
271.409
282.668
296.883
305.706
346.273
190.244
208.254
225.645
241.944
256.978
270.769
281.391
297.9
305.367
327.813
179.268
176.991
175.61
174.71
173.983
173.332
172.752
172.24
171.8
171.519
154.397
154.559
154.724
154.643
154.36
153.92
153.384
152.795
152.181
151.656
128.514
130.679
132.491
133.441
133.778
133.682
133.277
132.67
131.913
131.133
104.955
107.421
110
111.689
112.59
112.871
112.668
112.114
111.304
110.349
83.9026
85.8301
88.2545
90.1374
91.31
91.8447
91.8331
91.38
90.5962
89.58
64.9163
66.1768
67.9776
69.5549
70.653
71.2239
71.3021
70.9418
70.2352
69.2722
47.7868
48.4809
49.5173
50.5033
51.2382
51.6211
51.6384
51.3114
50.692
49.8489
32.4542
32.688
33.011
33.3152
33.5345
33.5989
33.4642
33.1202
32.5864
31.9018
18.9812
18.7037
18.4336
18.1998
18.0022
17.7931
17.5246
17.1694
16.714
16.1699
6.63784
5.38958
4.3225
3.6222
3.14065
2.74787
2.36973
1.9571
1.47011
0.954897
)
;

boundaryField
{
    right
    {
        type            cyclic;
    }
    left
    {
        type            cyclic;
    }
    outerWall
    {
        type            zeroGradient;
    }
    stirrerWall
    {
        type            zeroGradient;
    }
    top
    {
        type            empty;
    }
    bottom
    {
        type            empty;
    }
}


// ************************************************************************* //
