/*--------------------------------*- C++ -*----------------------------------*\
  =========                 |
  \\      /  F ield         | OpenFOAM: The Open Source CFD Toolbox
   \\    /   O peration     | Website:  https://openfoam.org
    \\  /    A nd           | Version:  10
     \\/     M anipulation  |
\*---------------------------------------------------------------------------*/
FoamFile
{
    format      ascii;
    class       volScalarField;
    location    "1000";
    object      p;
}
// * * * * * * * * * * * * * * * * * * * * * * * * * * * * * * * * * * * * * //

dimensions      [0 2 -2 0 0 0 0];

internalField   nonuniform List<scalar> 
2000
(
0.0914538
164.245
325.418
522.122
745.716
985.995
1238.89
1501.09
1769.24
2041.13
2315.11
2589.23
2862.79
3138.2
3415.24
3690.34
3961.51
4224.22
4473.7
4710.9
10.0206
165.901
319.99
509.306
725.45
959.619
1208.05
1467.6
1734.87
2007.03
2281.88
2557.68
2834.18
3112.23
3389.83
3664.04
3933.2
4193.07
4440.46
4677.66
17.6208
168.971
317.018
499.299
707.783
934.891
1177.24
1432.16
1696.59
1967.55
2242.48
2519.63
2799.18
3080.24
3357.74
3629.23
3894.5
4152.43
4400.68
4640.24
23.3512
171.728
313.762
488.966
689.853
909.7
1145.22
1394.42
1654.84
1923.57
2197.81
2476.02
2758.21
3040.47
3316.11
3585
3848.62
4106.91
4357.89
4601.6
27.7019
173.613
310.04
477.824
670.311
882.14
1110.42
1353.32
1608.94
1874.6
2147.57
2426.66
2710.49
2992.16
3265.82
3533.74
3798.13
4058.76
4314.23
4563.68
30.9536
175.068
306.45
466.566
650.119
853.057
1073.35
1309.26
1559.33
1821.14
2092.39
2371.9
2656.03
2936.4
3209.06
3478.22
3745.87
4010.76
4272.54
4529.52
33.4786
176.324
303.413
456.164
630.869
824.787
1036.47
1264.71
1508.45
1765.76
2034.82
2313.74
2597.29
2876.81
3150.02
3422.6
3695.63
3967.17
4237.07
4502.16
35.574
177.574
301.087
447.211
613.556
798.968
1002.24
1222.6
1459.56
1711.93
1978.11
2255.36
2537.95
2817.74
3093.6
3372.1
3652.85
3932.06
4209.15
4480.9
37.5814
179.149
299.625
439.907
598.621
776.268
972.027
1185.16
1415.48
1662.75
1925.46
2200.46
2482.22
2763.65
3044.22
3329.68
3618.1
3904.72
4188.69
4466.47
39.7528
181.13
299.006
434.433
586.486
757.271
946.636
1153.71
1378.11
1620.45
1879.61
2152.45
2433.81
2717.91
3004.14
3297.04
3593.98
3888.57
4178.14
4459.28
42.2765
183.621
299.329
430.883
577.596
742.678
926.827
1129.06
1348.79
1586.8
1842.75
2113.93
2395.79
2683.71
2977.11
3278.62
3583.26
3882.67
4174.44
4456.98
45.298
186.9
301.178
429.749
572.507
733.218
913.521
1112.15
1328.54
1563.23
1817.07
2087.8
2372.44
2666.63
2967.14
3274.09
3582.8
3885.27
4178.5
4460.74
48.7665
191.26
305.43
432.342
572.484
730.243
907.894
1104.14
1318.37
1550.95
1804.3
2077.26
2366.24
2665.62
2970.69
3280.59
3590.67
3893.8
4185.85
4466.34
52.4403
196.871
312.703
439.841
579.276
736.095
912.36
1107.28
1320.14
1552.27
1806.9
2083.8
2378.16
2681.1
2985.58
3292.21
3599.38
3901.77
4193.68
4474.21
56.0454
203.644
323.145
452.71
593.817
752.054
929.048
1123.74
1336.16
1569.74
1827.88
2109.45
2406.66
2708.29
3006.88
3305.72
3608.55
3910.01
4200.97
4480.86
59.1937
211.105
336.293
470.722
616.209
777.661
957.404
1154
1368.09
1605.7
1869.78
2155.94
2452.51
2746.5
3033.74
3320.28
3614.44
3912.95
4205.47
4487.84
61.2956
218.491
351.039
492.278
644.713
812.084
996.482
1197.88
1417.95
1662.8
1931.56
2215.92
2503.23
2784.42
3060.25
3335.86
3619.38
3912.3
4205.94
4492.7
61.8209
225.11
365.62
514.466
675.085
850.578
1041.91
1250.55
1478.54
1729.46
1995.21
2266.38
2537.84
2807.16
3074.57
3342.2
3615.86
3899.97
4192.31
4486.05
60.4788
230.785
377.698
533.17
701.458
884.934
1083.82
1298.69
1531.08
1780.98
2039.13
2296.12
2551.46
2806.94
3062.39
3319.48
3583.52
3859.07
4149.81
4454.13
58.3037
236.647
385.905
545.203
718.187
906.606
1110.93
1330.67
1565.75
1812.67
2064.76
2313.24
2556.37
2798.54
3041.95
3289.42
3546.42
3817.85
4105.89
4412.14
4941.99
5177.28
5424.06
5685.34
5962.76
6255.69
6562.51
6883.14
7219.68
7574.91
7951.68
8352.75
8781.1
9239.48
9730.18
10259.7
10817.3
11456.3
12008.8
13090.8
4910.7
5149.4
5401.02
5667.86
5950.46
6247.35
6556.75
6879.01
7216.7
7572.78
7950.14
8351.59
8780.26
9238.88
9729.92
10259.7
10817.5
11456.6
12009.5
13087.7
4876.93
5120.51
5377.89
5650.59
5938.14
6238.43
6549.9
6873.59
7212.41
7569.39
7947.47
8349.47
8778.63
9237.56
9729.03
10259
10817.2
11456.7
12009.7
13085.2
4843.36
5092.83
5356.48
5634.88
5926.66
6229.49
6542.41
6867.23
7207.13
7565.05
7943.95
8346.62
8776.39
9235.77
9727.8
10258.2
10816.7
11456.9
12009.5
13083.2
4811.94
5068.24
5338.19
5621.57
5916.51
6220.91
6534.71
6860.41
7201.31
7560.21
7939.99
8343.44
8773.93
9233.85
9726.5
10257.3
10816.2
11457.1
12009.1
13081.7
4785.43
5048.49
5323.74
5610.79
5907.66
6212.73
6526.91
6853.29
7195.1
7554.94
7935.62
8339.89
8771.12
9231.63
9724.93
10256.1
10815.6
11457.3
12008.6
13080.5
4764.97
5033.34
5312.48
5601.95
5899.71
6204.72
6518.97
6845.86
7188.48
7549.24
7930.83
8335.96
8767.99
9229.17
9723.21
10254.9
10814.9
11457.5
12008.1
13079.4
4749.2
5021.84
5303.94
5594.83
5892.61
6197.11
6511.29
6838.62
7181.98
7543.6
7926.08
8332.09
8764.94
9226.81
9721.58
10253.7
10814.2
11457.6
12007.8
13078.4
4739.08
5014.52
5298.23
5589.44
5886.51
6190.22
6504.26
6831.95
7175.93
7538.3
7921.58
8328.4
8761.98
9224.56
9719.98
10252.3
10813.4
11457.7
12007.6
13077.4
4733.75
5010.34
5294.78
5585.51
5881.24
6183.91
6497.74
6825.68
7170.2
7533.29
7917.33
8324.97
8759.23
9222.51
9718.45
10251
10812.7
11457.7
12007.7
13076.4
4732.31
5009.37
5293.73
5582.97
5876.81
6178.29
6491.83
6819.98
7165.02
7528.83
7913.62
8322.04
8756.91
9220.88
9717.17
10249.9
10812.6
11457.8
12008.2
13075.5
4734.99
5011.25
5294.54
5581.47
5873.23
6173.62
6486.84
6815.08
7160.49
7524.9
7910.37
8319.56
8754.97
9219.67
9716.21
10249.3
10813.3
11457.9
12009
13074.2
4739.53
5015.24
5296.92
5580.84
5870.48
6169.93
6482.84
6811.22
7156.98
7521.93
7907.96
8317.81
8753.62
9219.03
9715.63
10249.4
10814.5
11457.7
12009.9
13072.1
4746.92
5021.33
5300.18
5580.71
5868.42
6167.12
6479.67
6808.21
7154.3
7519.77
7906.3
8316.73
8752.84
9218.95
9715.42
10250
10815.8
11456.5
12010.9
13068.9
4754.38
5028.38
5303.95
5581.27
5867.16
6165.33
6477.57
6806.24
7152.6
7518.49
7905.41
8316.31
8752.59
9219.35
9715.42
10251
10816.9
11454.2
12013.1
13064.9
4764.25
5037.01
5308
5582.62
5866.62
6164.43
6476.4
6805.3
7151.89
7518.17
7905.37
8316.63
8752.97
9220.24
9715.48
10251.9
10816.9
11451.1
12017.3
13061.2
4773.96
5044.39
5309.53
5583.19
5865.83
6163.84
6475.85
6805.17
7152.04
7518.71
7906.17
8317.76
8754.1
9221.78
9715.76
10252.7
10815.1
11447.1
12023.6
13057
4777.56
5046.67
5306.44
5582.21
5864.83
6163.66
6475.91
6805.71
7152.85
7519.86
7907.56
8319.45
8755.85
9223.9
9716.88
10254.6
10813.5
11442.3
12034.8
13043.5
4769.4
5044.33
5302.02
5580.58
5863.92
6163.52
6476.2
6806.45
7153.88
7521.15
7909.08
8321.16
8757.76
9225.93
9719.25
10258.5
10816.2
11441.5
12060.8
13001
4753.13
5052.04
5301.34
5582.01
5863.74
6164.21
6476.82
6807.52
7155.03
7522.56
7910.58
8322.96
8759.53
9228.53
9721.52
10264.3
10819.4
11460.8
12086.2
12960.4
4724.41
5090.41
5295.23
5593.47
5864.32
6169.01
6478.84
6810.73
7157.35
7525.55
7912.96
8326.75
8761.41
9235.44
9720.76
10280.4
10804.1
11514.1
12019.7
13056.8
4718.93
5099.28
5293.51
5595.33
5863.62
6169.11
6478.31
6810.42
7156.81
7525.16
7912.44
8326.6
8760.93
9236.19
9719.8
10283.6
10799.9
11526.6
12003.8
13081.2
4717.25
5106.58
5292.98
5597.47
5863.47
6169.52
6478.13
6810.38
7156.52
7524.98
7912.14
8326.61
8760.67
9237.04
9719.05
10286.7
10797.4
11537.5
11991.1
13100
4717.03
5112.68
5293.05
5599.69
5863.62
6170.06
6478.07
6810.4
7156.29
7524.85
7911.9
8326.68
8760.51
9237.89
9718.42
10289.8
10795
11547.2
11979.4
13117.3
4717.59
5117.9
5293.56
5601.91
5863.99
6170.67
6478.09
6810.46
7156.09
7524.76
7911.74
8326.79
8760.45
9238.78
9717.97
10293
10792.4
11556.2
11967.9
13133.9
4718.88
5122.45
5294.46
5604.09
5864.56
6171.31
6478.15
6810.53
7155.93
7524.71
7911.64
8326.96
8760.51
9239.71
9717.7
10296
10790
11565
11956.8
13149.9
4720.95
5126.52
5295.71
5606.21
5865.28
6171.97
6478.25
6810.61
7155.81
7524.71
7911.63
8327.21
8760.7
9240.71
9717.65
10298.9
10787.6
11573.5
11946
13165.5
4723.82
5130.19
5297.26
5608.25
5866.11
6172.63
6478.41
6810.72
7155.78
7524.8
7911.74
8327.57
8761.06
9241.8
9717.83
10301.7
10785.4
11581.8
11935.4
13180.7
4727.43
5133.52
5299.04
5610.16
5867.04
6173.3
6478.64
6810.92
7155.87
7525.02
7912.01
8328.07
8761.6
9243
9718.27
10304.5
10783.3
11589.8
11925
13195.7
4731.69
5136.52
5301.01
5611.91
5868.07
6174.02
6479.03
6811.29
7156.17
7525.43
7912.49
8328.75
8762.34
9244.31
9718.97
10307.6
10781.6
11597.8
11914.6
13210.5
4736.44
5139.16
5303.11
5613.49
5869.21
6174.87
6479.66
6811.9
7156.77
7526.11
7913.23
8329.64
8763.3
9245.75
9719.91
10310.8
10780.4
11605.6
11904
13225.1
4741.42
5141.39
5305.3
5614.95
5870.55
6175.94
6480.64
6812.89
7157.75
7527.12
7914.28
8330.77
8764.47
9247.28
9721.02
10314
10779.7
11613.3
11893.1
13239.7
4746.31
5143.16
5307.59
5616.36
5872.18
6177.37
6482.13
6814.38
7159.23
7528.56
7915.69
8332.15
8765.86
9248.9
9722.25
10316.9
10779.3
11621
11881.8
13254.6
4750.76
5144.42
5310.05
5617.89
5874.29
6179.36
6484.3
6816.5
7161.31
7530.47
7917.49
8333.8
8767.45
9250.56
9723.55
10319.2
10779.1
11628.6
11869.8
13269.6
4754.46
5145.17
5312.86
5619.71
5877.06
6182.06
6487.27
6819.36
7164.05
7532.9
7919.68
8335.69
8769.2
9252.18
9724.91
10321.1
10779.1
11635.9
11857.1
13284.6
4757.11
5145.58
5316.26
5622.04
5880.69
6185.62
6491.13
6822.99
7167.44
7535.82
7922.23
8337.76
8771.04
9253.66
9726.23
10322.4
10779.1
11642.5
11843.6
13299.7
4758.22
5146.09
5320.39
5625.22
5885.28
6190.13
6495.87
6827.33
7171.4
7539.13
7925.01
8339.91
8772.81
9254.94
9727.24
10323.4
10777.9
11649.3
11827.5
13316.3
4757.79
5147.4
5325.74
5629.76
5891.13
6195.77
6501.52
6832.39
7175.86
7542.76
7927.93
8342.11
8774.44
9256.06
9727.69
10324.6
10774.7
11657.8
11805.9
13336.5
4759.9
5149.95
5334.15
5636.27
5899.02
6202.86
6508.38
6838.23
7180.91
7546.74
7931.09
8344.38
8776.14
9256.89
9728.14
10324.8
10771.2
11665.1
11782.4
13356.1
4775.08
5152.08
5346.88
5643.34
5908.22
6210.08
6515.45
6843.86
7185.82
7550.45
7934.16
8346.34
8778.04
9256.69
9730.08
10320.7
10774.8
11654.9
11782.2
13351.5
4880.69
5143.17
5385.2
5653.76
5928.93
6222.27
6528.76
6852.8
7193.93
7555.46
7938.5
8347.06
8781.12
9249.08
9739.94
10287.3
10823.7
11526.1
11955.9
13205.5
4893.35
5141.85
5396.2
5660.91
5937.65
6228.59
6534.5
6856.92
7197.28
7557.78
7940.52
8348.04
8782.56
9247.29
9742.52
10277.4
10837
11482.2
12020.9
13148.6
4893.48
5145.13
5402.39
5668.06
5945.12
6235.38
6540.42
6861.72
7201.1
7560.66
7942.62
8349.29
8783.1
9246.73
9741.81
10274.8
10837.3
11474.4
12041.1
13121.9
4895.75
5148.78
5407.06
5673.56
5950.88
6240.95
6545.45
6866.02
7204.65
7563.49
7944.72
8350.71
8783.83
9246.84
9741.32
10274.1
10836.2
11474.3
12045.9
13108.8
4902.46
5154.66
5412.81
5679.39
5956.67
6246.49
6550.49
6870.4
7208.31
7566.4
7946.88
8352.14
8784.54
9246.93
9740.87
10273.4
10834.9
11473.3
12046.1
13101.3
4911.9
5162.45
5419.73
5685.87
5962.78
6252.15
6555.56
6874.81
7212
7569.31
7949.03
8353.55
8785.23
9247
9740.4
10272.5
10833.2
11471.6
12044.8
13096.3
4923.13
5171.76
5427.83
5693.11
5969.32
6258.02
6560.74
6879.25
7215.65
7572.15
7951.09
8354.87
8785.83
9246.96
9739.8
10271.4
10831.3
11469.6
12042.6
13092
4935.35
5182.07
5436.75
5700.89
5976.17
6264.05
6565.95
6883.63
7219.17
7574.86
7953.01
8356.04
8786.3
9246.79
9739.06
10270.1
10829.1
11467.6
12039.4
13087
4947.95
5192.85
5445.96
5708.86
5983.11
6270.05
6571.05
6887.82
7222.49
7577.36
7954.72
8356.99
8786.57
9246.47
9738.16
10268.5
10826.8
11465.4
12034.7
13082.2
4960.31
5203.43
5455.01
5716.63
5989.8
6275.75
6575.79
6891.64
7225.44
7579.49
7956.08
8357.66
8786.6
9245.98
9737.12
10266.8
10824.6
11462.9
12029
13080.6
4971.81
5213.29
5463.41
5723.76
5995.84
6280.8
6579.91
6894.89
7227.87
7581.15
7957.03
8357.98
8786.38
9245.3
9735.94
10265.2
10822.5
11460.3
12023.8
13082.8
4982
5221.97
5470.7
5729.84
6000.85
6284.91
6583.2
6897.41
7229.67
7582.27
7957.54
8357.97
8785.93
9244.47
9734.7
10263.6
10820.8
11457.8
12020.9
13084.8
4990.44
5229.01
5476.45
5734.44
6004.5
6287.81
6585.46
6899.07
7230.77
7582.84
7957.64
8357.66
8785.27
9243.51
9733.46
10262.3
10819.2
11455.5
12019.3
13087.5
4996.72
5234.02
5480.26
5737.19
6006.46
6289.24
6586.5
6899.75
7231.08
7582.82
7957.31
8357.05
8784.42
9242.46
9732.26
10261.1
10817.7
11454.2
12020.1
13087.5
5000.64
5236.72
5481.79
5737.74
6006.43
6288.97
6586.13
6899.31
7230.56
7582.2
7956.59
8356.21
8783.48
9241.4
9731.18
10260.1
10816.7
11454.3
12021.3
13083
5001.86
5236.73
5480.65
5735.82
6004.23
6286.9
6584.38
6897.84
7229.3
7581.09
7955.59
8355.26
8782.56
9240.48
9730.31
10259.3
10815.9
11454.5
12017.9
13083.4
4999.65
5233.51
5476.6
5731.41
5999.96
6283.18
6581.36
6895.48
7227.46
7579.66
7954.46
8354.35
8781.84
9239.85
9729.77
10258.8
10815.3
11453.9
12015.1
13086
4993.52
5227.06
5469.94
5724.78
5993.7
6277.73
6576.99
6892.21
7225.13
7578.06
7953.41
8353.68
8781.45
9239.61
9729.7
10258.7
10815.4
11454.3
12013.4
13087.6
4983.82
5217.57
5460.41
5715.43
5984.98
6270.24
6571.2
6888.14
7222.52
7576.5
7952.58
8353.33
8781.44
9239.75
9730.04
10259.2
10816.2
11455.4
12011.8
13089.6
4967.99
5201.67
5445.21
5702.06
5974.54
6263.15
6566.96
6885.75
7221.24
7575.92
7952.43
8353.37
8781.57
9239.88
9730.32
10259.6
10816.9
11456.2
12009.9
13091
4665.38
4643.45
4636.4
4640.12
4649.79
4662.41
4676.54
4691.26
4706.03
4720.37
4733.61
4745.34
4755.13
4762.67
4767.81
4770.17
4768.84
4762.89
4752.57
4736.99
4342.66
4350.41
4359.85
4372.94
4389.06
4406.85
4425.16
4443.08
4460.32
4476.79
4491.74
4504.83
4515.73
4524.21
4530.22
4533.39
4532.75
4526.88
4515.1
4498.54
3985.97
4030.25
4064.13
4092.29
4118.34
4143.16
4166.7
4188.53
4208.59
4227.14
4243.6
4257.68
4269.18
4278.05
4284.27
4287.36
4286.59
4280.25
4266.19
4246.84
3634.88
3703.08
3758.1
3801.88
3839.12
3872.03
3901.55
3927.78
3950.89
3971.4
3989.14
4003.81
4015.35
4023.89
4029.45
4031.45
4029.58
4022.06
4005.65
3983.19
3297.58
3377.81
3449.18
3506.54
3554.37
3595.32
3630.94
3661.75
3688.09
3710.54
3729.34
3744.2
3755.28
3763.03
3767.46
3768.03
3764.74
3755.72
3737.64
3713.11
2974.52
3059.09
3142.4
3210.6
3267.33
3315.42
3356.66
3391.89
3421.44
3445.79
3465.6
3480.69
3491.57
3498.8
3502.12
3501.08
3495.67
3484.24
3464.59
3439.1
2668.6
2751.1
2841.1
2916.66
2980.48
3034.5
3080.49
3119.57
3152.12
3178.49
3199.63
3215.44
3226.36
3232.89
3234.69
3231.65
3223.58
3209.56
3188.64
3162.9
2381.92
2456.9
2547.28
2627.07
2695.64
2753.9
2803.35
2845.28
2880.22
2908.37
2930.47
2946.91
2957.86
2963.77
2964.48
2959.96
2949.93
2934.53
2913.61
2888.62
2113.55
2177.88
2264.45
2345.09
2415.2
2475.52
2526.82
2570.22
2606.42
2635.68
2658.39
2675.17
2686.13
2691.68
2691.88
2686.66
2676.07
2660.76
2640.76
2616.48
1862.92
1915.77
1993.88
2071.69
2141.24
2201.64
2253.33
2297.06
2333.54
2363.16
2386.12
2402.99
2413.87
2419.17
2419.16
2413.97
2403.64
2388.31
2368.28
2343.7
1629.01
1670.31
1736.26
1807.89
1874.8
1933.91
1984.62
2027.55
2063.4
2092.58
2115.36
2132.1
2142.92
2147.98
2147.57
2141.93
2131.29
2115.73
2095.57
2070.59
1410.27
1440.7
1492.79
1555.25
1616.84
1672.83
1721.65
1762.94
1797.4
1825.4
1847.25
1863.27
1873.56
1878.13
1877.25
1871.27
1860.49
1845.04
1824.7
1799.18
1204.94
1225.92
1264.17
1314.85
1368.51
1419.38
1464.77
1503.65
1536.17
1562.62
1583.19
1598.17
1607.64
1611.61
1610.3
1604.06
1593.19
1577.72
1557.07
1531.11
1011.27
1024.52
1050.39
1088.01
1131.22
1174.51
1214.77
1250.38
1280.42
1304.79
1323.82
1337.65
1346.23
1349.6
1347.91
1341.44
1330.47
1314.68
1293.85
1268.02
827.744
835.083
850.8
875.806
907.065
940.654
973.649
1004.13
1030.77
1052.78
1069.9
1082.17
1089.68
1092.47
1090.55
1084.04
1073.05
1057.29
1037.09
1012.74
653.321
656.373
664.224
678.289
697.739
720.59
744.803
768.468
790.016
808.414
823.076
833.683
840.029
842
839.723
833.361
822.914
808.376
790.003
768.487
487.516
487.358
488.972
494.084
503.356
516.256
531.613
547.877
563.544
577.408
588.654
596.768
601.419
602.444
599.911
593.871
584.369
571.726
556.213
539.059
331.645
328.43
324.281
321.815
322.868
327.866
335.911
345.513
355.277
364.135
371.342
376.436
379.175
379.492
377.395
372.95
366.198
357.281
346.525
335.166
186.946
178.479
168.871
161.732
158.952
160.377
164.619
170.03
175.352
179.844
183.144
185.207
186.239
186.406
185.567
183.607
180.504
176.129
170.911
166.359
41.3158
21.3788
4.92348
-4.41211
-8.67364
-9.59707
-8.38473
-6.15594
-3.97302
-2.52211
-2.03547
-2.41836
-3.35251
-4.41
-5.25344
-5.81434
-6.16923
-6.24947
-5.66689
-3.29826
)
;

boundaryField
{
    right
    {
        type            cyclic;
    }
    left
    {
        type            cyclic;
    }
    outerWall
    {
        type            zeroGradient;
    }
    stirrerWall
    {
        type            zeroGradient;
    }
    top
    {
        type            empty;
    }
    bottom
    {
        type            empty;
    }
}


// ************************************************************************* //
