/*--------------------------------*- C++ -*----------------------------------*\
  =========                 |
  \\      /  F ield         | OpenFOAM: The Open Source CFD Toolbox
   \\    /   O peration     | Website:  https://openfoam.org
    \\  /    A nd           | Version:  10
     \\/     M anipulation  |
\*---------------------------------------------------------------------------*/
FoamFile
{
    format      ascii;
    class       surfaceScalarField;
    location    "1000";
    object      phi;
}
// * * * * * * * * * * * * * * * * * * * * * * * * * * * * * * * * * * * * * //

dimensions      [0 3 -1 0 0 0 0];

internalField   nonuniform List<scalar> 
3880
(
1.3215e-06
-3.98598e-05
6.06416e-06
-1.9928e-05
1.74698e-05
2.62448e-06
2.83779e-05
2.85098e-05
3.73466e-05
4.78883e-05
4.42045e-05
5.79374e-05
4.94042e-05
6.06292e-05
5.34418e-05
5.77226e-05
5.666e-05
5.06993e-05
5.93268e-05
4.07712e-05
6.167e-05
2.90136e-05
6.38091e-05
1.62133e-05
6.58193e-05
2.94948e-06
6.79047e-05
-1.06649e-05
6.99154e-05
-2.52696e-05
7.03574e-05
-3.84904e-05
7.14107e-05
-4.67308e-05
7.52093e-05
-5.7688e-05
7.70831e-05
-7.66579e-05
-9.30199e-05
7.52964e-05
-9.57059e-07
-3.8969e-05
3.24656e-06
-2.42337e-05
1.52891e-05
-9.54875e-06
2.77361e-05
1.59765e-05
3.84813e-05
3.71325e-05
4.70476e-05
4.93832e-05
5.36298e-05
5.39305e-05
5.87276e-05
5.26794e-05
6.24166e-05
4.69621e-05
6.49453e-05
3.81708e-05
6.66027e-05
2.7408e-05
6.75719e-05
1.52347e-05
6.82904e-05
2.20415e-06
6.90273e-05
-1.1348e-05
6.96207e-05
-2.57725e-05
6.94891e-05
-3.83109e-05
7.15181e-05
-4.87233e-05
7.51545e-05
-6.1299e-05
7.43215e-05
-7.58507e-05
-8.83988e-05
6.96716e-05
-1.36258e-06
-3.7486e-05
5.99557e-07
-2.61967e-05
8.87619e-06
-1.76102e-05
2.16923e-05
3.22531e-06
3.4444e-05
2.41868e-05
4.52654e-05
3.85164e-05
5.38686e-05
4.52974e-05
6.04716e-05
4.60565e-05
6.52297e-05
4.22017e-05
6.84646e-05
3.50197e-05
7.04192e-05
2.54919e-05
7.14224e-05
1.41732e-05
7.19095e-05
1.71608e-06
7.18143e-05
-1.11706e-05
7.13117e-05
-2.51689e-05
7.10182e-05
-3.79748e-05
7.18089e-05
-4.9472e-05
7.0986e-05
-6.04519e-05
6.66025e-05
-7.13886e-05
-8.08928e-05
5.9114e-05
-1.06346e-06
-3.65665e-05
-6.73388e-07
-2.64799e-05
4.00652e-06
-2.21951e-05
1.50104e-05
-7.75566e-06
2.80629e-05
1.11656e-05
4.03002e-05
2.63219e-05
5.05724e-05
3.50189e-05
5.87043e-05
3.78767e-05
6.47914e-05
3.60882e-05
6.91296e-05
3.07643e-05
7.19376e-05
2.27065e-05
7.3472e-05
1.25975e-05
7.41057e-05
1.11095e-06
7.38885e-05
-1.09068e-05
7.25625e-05
-2.3836e-05
7.02692e-05
-3.56914e-05
6.72757e-05
-4.64933e-05
6.21063e-05
-5.53335e-05
5.38939e-05
-6.32937e-05
-7.04621e-05
4.33787e-05
-4.41502e-07
-3.59782e-05
-7.81369e-07
-2.63484e-05
2.00081e-06
-2.52035e-05
9.4991e-06
-1.52487e-05
2.0717e-05
2.16212e-08
3.30182e-05
1.40731e-05
4.41352e-05
2.39954e-05
5.33115e-05
2.88102e-05
6.03838e-05
2.9082e-05
6.54729e-05
2.56758e-05
6.8712e-05
1.9368e-05
7.04485e-05
1.08235e-05
7.09248e-05
7.2297e-07
7.01256e-05
-1.00893e-05
6.72379e-05
-2.10683e-05
6.2247e-05
-3.08195e-05
5.50592e-05
-3.94169e-05
4.5418e-05
-4.57553e-05
3.36948e-05
-5.16007e-05
-5.81453e-05
2.13822e-05
-1.65353e-08
-3.59621e-05
-1.2835e-07
-2.61642e-05
1.53265e-06
-2.66819e-05
5.87903e-06
-1.94156e-05
1.41128e-05
-8.27007e-06
2.47358e-05
3.45334e-06
3.54659e-05
1.33332e-05
4.47536e-05
1.95697e-05
5.20448e-05
2.18205e-05
5.72207e-05
2.05218e-05
6.02937e-05
1.62614e-05
6.14517e-05
9.65956e-06
6.07303e-05
1.44029e-06
5.80532e-05
-7.5145e-06
5.25416e-05
-1.56686e-05
4.39504e-05
-2.22329e-05
3.23681e-05
-2.77581e-05
1.92071e-05
-3.25387e-05
6.0084e-06
-3.84201e-05
-4.71802e-05
-5.02357e-06
2.34918e-07
-3.61592e-05
3.86091e-07
-2.61895e-05
1.37395e-06
-2.76573e-05
4.25829e-06
-2.22982e-05
9.47032e-06
-1.35779e-05
1.71497e-05
-4.14996e-06
2.6036e-05
4.57607e-06
3.42647e-05
1.14378e-05
4.07541e-05
1.53921e-05
4.50219e-05
1.629e-05
4.68719e-05
1.44155e-05
4.62574e-05
1.0298e-05
4.30989e-05
4.59609e-06
3.72371e-05
-1.67582e-06
2.77894e-05
-6.16536e-06
1.50296e-05
-9.36107e-06
-1.0783e-07
-1.25461e-05
-1.45214e-05
-1.81521e-05
-2.50466e-05
-2.79715e-05
-4.23672e-05
-2.99353e-05
3.15807e-07
-3.64529e-05
6.88285e-07
-2.65625e-05
1.66758e-06
-2.88364e-05
3.75676e-06
-2.4401e-05
7.08804e-06
-1.67914e-05
1.17677e-05
-8.66082e-06
1.76499e-05
-1.24164e-06
2.36426e-05
5.48912e-06
2.8227e-05
1.08362e-05
3.04972e-05
1.40133e-05
2.99603e-05
1.49748e-05
2.61979e-05
1.41685e-05
1.88099e-05
1.20562e-05
8.18819e-06
8.96286e-06
-6.48676e-06
8.55368e-06
-2.30966e-05
7.28936e-06
-3.76308e-05
1.95679e-06
-4.69954e-05
-8.89896e-06
-5.05204e-05
-2.45461e-05
-4.54061e-05
-4.75058e-05
1.6112e-07
-3.66552e-05
5.14935e-07
-2.68969e-05
1.46043e-06
-2.99271e-05
3.25551e-06
-2.61983e-05
5.94928e-06
-1.93592e-05
8.5976e-06
-1.12707e-05
1.15442e-05
-4.2601e-06
1.47381e-05
2.29453e-06
1.66456e-05
8.99789e-06
1.61202e-05
1.45942e-05
1.2331e-05
1.8812e-05
4.29184e-06
2.2232e-05
-9.27991e-06
2.55724e-05
-2.60086e-05
2.56244e-05
-4.51619e-05
2.767e-05
-6.31035e-05
2.52001e-05
-7.07297e-05
9.52375e-06
-6.72053e-05
-1.25304e-05
-5.8396e-05
-3.3404e-05
-5.43375e-05
-4.94401e-05
-1.87416e-07
-3.6533e-05
-1.54282e-07
-2.68918e-05
5.89584e-07
-3.072e-05
2.27094e-06
-2.794e-05
4.55037e-06
-2.16034e-05
6.33914e-06
-1.30978e-05
7.26929e-06
-5.17422e-06
8.55369e-06
1.07185e-06
7.97614e-06
9.6e-06
4.67615e-06
1.78521e-05
-2.14592e-06
2.55885e-05
-1.33092e-05
3.3306e-05
-3.19708e-05
4.41221e-05
-5.4095e-05
4.77404e-05
-6.93709e-05
4.30075e-05
-7.44256e-05
3.0273e-05
-7.12833e-05
6.33275e-06
-6.55637e-05
-1.828e-05
-5.85506e-05
-4.03878e-05
-6.19494e-05
-5.08918e-05
-6.91715e-07
-3.58958e-05
-1.2214e-06
-2.63909e-05
-9.27508e-07
-3.1005e-05
4.15885e-07
-2.93648e-05
2.56508e-06
-2.37525e-05
4.07354e-06
-1.46573e-05
4.1833e-06
-5.23583e-06
4.62726e-06
6.40332e-07
3.17074e-06
1.09161e-05
-1.47265e-06
2.23457e-05
-9.97421e-06
3.40644e-05
-2.3734e-05
4.70857e-05
-4.01817e-05
6.06209e-05
-5.74136e-05
6.51047e-05
-7.25553e-05
5.82743e-05
-8.034e-05
3.80902e-05
-7.74388e-05
3.40779e-06
-6.80608e-05
-2.76818e-05
-5.79165e-05
-5.05488e-05
-7.14419e-05
-4.84395e-05
-1.38433e-06
-3.45425e-05
-2.87004e-06
-2.50019e-05
-3.38993e-06
-3.04457e-05
-2.49769e-06
-3.03093e-05
-4.58811e-07
-2.57978e-05
1.45461e-06
-1.66091e-05
2.08172e-06
-5.86444e-06
1.93289e-06
7.84624e-07
9.75463e-07
1.18036e-05
-5.42347e-06
2.87558e-05
-1.64075e-05
4.51441e-05
-3.23208e-05
6.30831e-05
-4.88911e-05
7.72786e-05
-6.26937e-05
7.90017e-05
-7.00262e-05
6.56436e-05
-7.04996e-05
3.85152e-05
-6.33384e-05
-3.81961e-06
-5.56394e-05
-3.5404e-05
-4.84798e-05
-5.76731e-05
-7.83596e-05
-4.14854e-05
-2.23252e-06
-3.23131e-05
-4.86647e-06
-2.24645e-05
-6.46566e-06
-2.8809e-05
-6.55472e-06
-3.02113e-05
-5.38925e-06
-2.69392e-05
-3.97285e-06
-1.79648e-05
-3.55081e-06
-6.26106e-06
-4.44762e-06
1.70403e-06
-5.21589e-06
1.26046e-05
-1.14176e-05
3.50258e-05
-2.08175e-05
5.45306e-05
-3.1455e-05
7.36222e-05
-4.17757e-05
8.75794e-05
-5.11033e-05
8.83559e-05
-5.65381e-05
7.10924e-05
-5.65299e-05
3.8515e-05
-5.14328e-05
-8.84405e-06
-4.54088e-05
-4.13145e-05
-3.81741e-05
-6.48129e-05
-8.50149e-05
-3.14725e-05
-3.15326e-06
-2.91452e-05
-6.97625e-06
-1.869e-05
-9.77e-06
-2.60054e-05
-1.09539e-05
-2.89694e-05
-1.05862e-05
-2.72675e-05
-9.41143e-06
-1.90719e-05
-8.50434e-06
-7.12779e-06
-8.9084e-06
2.08909e-06
-9.77722e-06
1.33794e-05
-1.35221e-05
3.86337e-05
-1.99938e-05
6.09579e-05
-2.74185e-05
8.10876e-05
-3.36237e-05
9.39171e-05
-3.74767e-05
9.23189e-05
-3.97868e-05
7.34077e-05
-3.81192e-05
3.67984e-05
-3.43311e-05
-1.26529e-05
-2.8262e-05
-4.73076e-05
-2.12134e-05
-7.18373e-05
-9.00522e-05
-1.62628e-05
-4.01588e-06
-2.51154e-05
-8.9547e-06
-1.37572e-05
-1.30587e-05
-2.19195e-05
-1.55692e-05
-2.64221e-05
-1.5974e-05
-2.68562e-05
-1.42608e-05
-2.08321e-05
-1.13604e-05
-1.01042e-05
-1.01202e-05
8.44863e-07
-1.16402e-05
1.49954e-05
-1.367e-05
4.07548e-05
-1.62395e-05
6.36096e-05
-1.74726e-05
8.23205e-05
-1.66004e-05
9.2962e-05
-1.4191e-05
8.97807e-05
-1.09534e-05
7.01218e-05
-7.46073e-06
3.33615e-05
-7.04616e-06
-1.30034e-05
-3.21379e-06
-5.11686e-05
1.24549e-06
-7.6349e-05
-9.13667e-05
2.46844e-06
-4.75763e-06
-2.03573e-05
-1.04935e-05
-8.03211e-06
-1.59333e-05
-1.65445e-05
-2.02786e-05
-2.21291e-05
-2.27422e-05
-2.44165e-05
-2.23023e-05
-2.11886e-05
-1.91794e-05
-1.31679e-05
-1.64867e-05
-1.85025e-06
-1.5858e-05
1.43175e-05
-1.32841e-05
3.81021e-05
-9.39117e-06
5.97194e-05
-3.93489e-06
7.68878e-05
4.28827e-06
8.47372e-05
1.62016e-05
7.78629e-05
2.9071e-05
5.72654e-05
3.86617e-05
2.36821e-05
3.79062e-05
-1.22564e-05
3.61712e-05
-4.94061e-05
3.32338e-05
-7.33567e-05
-8.41899e-05
2.61495e-05
-5.21815e-06
-1.51608e-05
-1.09283e-05
-2.38346e-06
-1.72607e-05
-1.03013e-05
-2.34935e-05
-1.59004e-05
-2.87704e-05
-1.91422e-05
-3.16839e-05
-1.82865e-05
-3.13536e-05
-1.35002e-05
-2.85698e-05
-4.55797e-06
-2.37211e-05
9.56676e-06
-1.4286e-05
2.86274e-05
-3.11318e-06
4.84896e-05
9.96803e-06
6.37876e-05
2.75545e-05
6.72145e-05
4.67919e-05
5.86544e-05
6.28402e-05
4.10882e-05
7.11164e-05
1.54115e-05
7.26698e-05
-1.36525e-05
6.81769e-05
-4.4915e-05
5.72299e-05
-6.25011e-05
-6.81617e-05
4.11034e-05
-5.24242e-06
-9.9718e-06
-9.38973e-06
1.6569e-06
-1.51119e-05
-4.6426e-06
-2.22787e-05
-8.78492e-06
-2.97001e-05
-1.17426e-05
-3.56621e-05
-1.23027e-05
-3.87777e-05
-1.03839e-05
-3.75749e-05
-5.78507e-06
-3.14767e-05
3.45537e-06
-1.82347e-05
1.53622e-05
-2.4365e-07
3.05085e-05
2.08559e-05
4.2708e-05
4.543e-05
4.27049e-05
6.92308e-05
3.48553e-05
8.80057e-05
2.23063e-05
9.75093e-05
5.91307e-06
9.68688e-05
-1.29667e-05
8.37012e-05
-3.17204e-05
6.27362e-05
-4.14877e-05
-4.24336e-05
3.70986e-05
-5.19872e-06
-4.83428e-06
-5.37404e-06
1.74316e-06
-8.39253e-06
-1.80374e-06
-1.4301e-05
-2.98733e-06
-2.21936e-05
-3.92926e-06
-3.01652e-05
-4.32145e-06
-3.65327e-05
-3.97752e-06
-3.95395e-05
-2.78365e-06
-3.67281e-05
6.83599e-07
-2.60223e-05
4.77471e-06
-5.46857e-06
1.00937e-05
2.34625e-05
1.38156e-05
5.26086e-05
1.36719e-05
7.61905e-05
1.13543e-05
9.19605e-05
6.5778e-06
9.72964e-05
5.78834e-07
8.95711e-05
-5.29296e-06
6.54343e-05
-7.63094e-06
3.25661e-05
-8.69302e-06
-1.56573e-05
5.70239e-06
-4.86782e-06
-3.18355e-06
-5.01811e-06
-8.0101e-06
-1.19281e-05
-1.6229e-05
-2.01826e-05
-2.29668e-05
-2.22709e-05
-1.74748e-05
-7.32925e-06
6.55033e-06
2.01657e-05
3.15443e-05
3.80833e-05
3.86506e-05
3.33424e-05
2.57144e-05
1.70423e-05
1.40538e-06
7.0234e-05
-0.000106841
6.2449e-05
-0.000121372
5.27063e-05
-0.000134973
4.2508e-05
-0.000150065
3.37845e-05
-0.000170105
2.77249e-05
-0.000198062
2.36084e-05
-0.000234067
2.01244e-05
-0.000274604
1.68369e-05
-0.000316798
1.38168e-05
-0.000360471
1.11691e-05
-0.000406383
8.92873e-06
-0.000455075
7.02942e-06
-0.000507436
5.42973e-06
-0.000563796
4.12943e-06
-0.000625186
2.93636e-06
-0.000694265
1.90442e-06
-0.000759872
1.62123e-06
-0.000867922
2.25692e-06
-0.000865028
-0.00119445
6.22028e-05
-9.93434e-05
5.26376e-05
-0.00011176
4.22738e-05
-0.000124545
3.29899e-05
-0.000140717
2.64243e-05
-0.000163472
2.26656e-05
-0.000194258
2.02381e-05
-0.000231658
1.787e-05
-0.000272279
1.53629e-05
-0.000314305
1.29058e-05
-0.000358032
1.06293e-05
-0.000404161
8.63775e-06
-0.000453112
6.91401e-06
-0.000505685
5.44946e-06
-0.000562279
4.14828e-06
-0.000623815
3.03234e-06
-0.000693048
2.01855e-06
-0.000758741
1.60434e-06
-0.000867355
1.69296e-06
-0.000865004
-0.00119274
4.94783e-05
-8.9734e-05
3.88191e-05
-0.000101118
2.89397e-05
-0.000114676
2.17638e-05
-0.000133555
1.80963e-05
-0.00015978
1.68527e-05
-0.000192944
1.61077e-05
-0.000230876
1.48505e-05
-0.00027103
1.31738e-05
-0.000312633
1.13813e-05
-0.000356221
9.62322e-06
-0.000402381
8.0152e-06
-0.000451475
6.5346e-06
-0.000504205
5.2592e-06
-0.000561037
4.03535e-06
-0.000622627
3.03972e-06
-0.000692077
2.01257e-06
-0.000757748
1.52768e-06
-0.000866886
1.61428e-06
-0.00086512
-0.00119115
3.20955e-05
-7.84817e-05
2.17054e-05
-9.07237e-05
1.41495e-05
-0.000107098
1.05972e-05
-0.000129998
1.03437e-05
-0.00015955
1.13466e-05
-0.000193986
1.19119e-05
-0.000231478
1.15793e-05
-0.000270708
1.06794e-05
-0.000311705
9.53575e-06
-0.000355036
8.28981e-06
-0.000401119
7.07685e-06
-0.000450253
5.87845e-06
-0.000503008
4.85229e-06
-0.000560019
3.74468e-06
-0.000621549
2.90168e-06
-0.000691298
1.86166e-06
-0.000756747
1.38529e-06
-0.000866395
1.59751e-06
-0.000865283
-0.00118957
1.05545e-05
-6.76384e-05
3.03973e-06
-8.32069e-05
-7.24187e-08
-0.000104033
8.07238e-07
-0.000130988
3.62267e-06
-0.000162478
6.27439e-06
-0.000196716
7.79242e-06
-0.000233034
8.23451e-06
-0.000271147
8.0457e-06
-0.000311476
7.5146e-06
-0.000354451
6.7706e-06
-0.000400333
5.9666e-06
-0.000449406
5.06787e-06
-0.00050208
4.31033e-06
-0.000559236
3.3299e-06
-0.000620558
2.70712e-06
-0.000690662
1.69182e-06
-0.000755674
1.31772e-06
-0.000865943
1.63889e-06
-0.000865557
-0.00118792
-1.17738e-05
-6.09558e-05
-1.36402e-05
-8.14e-05
-1.13388e-05
-0.000106378
-6.63157e-06
-0.000135741
-1.84243e-06
-0.00016732
1.7191e-06
-0.000200329
3.87518e-06
-0.000235213
4.97527e-06
-0.000272237
5.43066e-06
-0.000311913
5.45768e-06
-0.000354487
5.17878e-06
-0.000400097
4.76852e-06
-0.000449041
4.16989e-06
-0.000501536
3.69324e-06
-0.000558816
2.84941e-06
-0.000619778
2.48806e-06
-0.000690332
1.47491e-06
-0.00075466
1.2391e-06
-0.00086567
1.68439e-06
-0.000866016
-0.00118622
-2.94187e-05
-6.14934e-05
-2.53012e-05
-8.54782e-05
-1.89473e-05
-0.000112691
-1.20682e-05
-0.000142625
-6.39569e-06
-0.000173048
-2.38244e-06
-0.000204419
2.64364e-07
-0.000237907
1.94417e-06
-0.000273929
2.96759e-06
-0.000312941
3.49034e-06
-0.000355038
3.63427e-06
-0.000400284
3.5919e-06
-0.00044903
3.27576e-06
-0.000501263
3.07401e-06
-0.000558669
2.36179e-06
-0.000619128
2.27696e-06
-0.000690275
1.24245e-06
-0.000753639
1.1642e-06
-0.00086557
1.77913e-06
-0.000866636
-0.00118443
-4.02583e-05
-6.87255e-05
-3.16866e-05
-9.40335e-05
-2.33168e-05
-0.000121102
-1.59977e-05
-0.000150034
-1.02233e-05
-0.00017894
-5.93608e-06
-0.000208793
-2.84023e-06
-0.000241014
-6.49439e-07
-0.000276064
8.49121e-07
-0.000314361
1.78154e-06
-0.000355911
2.27364e-06
-0.000400732
2.53839e-06
-0.000449236
2.45778e-06
-0.000501141
2.50119e-06
-0.00055868
1.90443e-06
-0.0006185
2.09516e-06
-0.000690417
1.00759e-06
-0.000752506
1.10404e-06
-0.000865615
1.92983e-06
-0.000867416
-0.00118246
-4.1764e-05
-7.63695e-05
-3.38353e-05
-0.000101964
-2.56986e-05
-0.0001293
-1.86661e-05
-0.000157156
-1.30441e-05
-0.000184657
-8.60408e-06
-0.000213281
-5.15381e-06
-0.000244459
-2.59455e-06
-0.000278607
-7.76636e-07
-0.000316197
4.37703e-07
-0.000357192
1.17733e-06
-0.000401559
1.66776e-06
-0.000449787
1.76468e-06
-0.000501295
2.0065e-06
-0.000558954
1.49951e-06
-0.000617992
1.95412e-06
-0.000690851
7.77801e-07
-0.000751302
1.0785e-06
-0.000865877
2.1395e-06
-0.000868423
-0.00118029
-4.31005e-05
-8.41259e-05
-3.48684e-05
-0.000110218
-2.67761e-05
-0.000137473
-2.00088e-05
-0.000164031
-1.45171e-05
-0.000190235
-1.0076e-05
-0.000217778
-6.52075e-06
-0.000248063
-3.8269e-06
-0.00028136
-1.86764e-06
-0.000318239
-4.97169e-07
-0.00035865
3.96621e-07
-0.000402526
1.03511e-06
-0.000450455
1.25363e-06
-0.000501537
1.63384e-06
-0.000559344
1.18247e-06
-0.00061753
1.87257e-06
-0.000691535
5.89296e-07
-0.000750022
1.13749e-06
-0.000866403
2.41564e-06
-0.000869653
-0.00117785
-4.01161e-05
-9.24708e-05
-3.23419e-05
-0.000118044
-2.52068e-05
-0.000144673
-1.93871e-05
-0.000169948
-1.44013e-05
-0.000195246
-1.02305e-05
-0.000221879
-6.84597e-06
-0.000251342
-4.25963e-06
-0.000283839
-2.33759e-06
-0.000320064
-9.51283e-07
-0.000359937
-2.13196e-08
-0.000403361
6.66459e-07
-0.000451037
9.37129e-07
-0.000501732
1.38292e-06
-0.000559749
9.53898e-07
-0.000617067
1.82319e-06
-0.000692395
4.79266e-07
-0.000748691
1.28812e-06
-0.000867186
2.6707e-06
-0.000870985
-0.00117515
-3.494e-05
-9.89637e-05
-2.85196e-05
-0.000124483
-2.22916e-05
-0.00015096
-1.71637e-05
-0.000175152
-1.27122e-05
-0.000199737
-9.06583e-06
-0.000225533
-6.12105e-06
-0.000254294
-3.86979e-06
-0.000286121
-2.17088e-06
-0.000321817
-9.2549e-07
-0.000361252
-9.46953e-08
-0.000404277
5.3532e-07
-0.000451718
7.89956e-07
-0.000502016
1.23551e-06
-0.000560227
8.13138e-07
-0.000616654
1.76657e-06
-0.000693354
4.20346e-07
-0.000747365
1.54285e-06
-0.000868272
2.87193e-06
-0.000872272
-0.00117225
-2.64577e-05
-0.000104006
-2.20269e-05
-0.000128935
-1.72205e-05
-0.000155852
-1.3174e-05
-0.000179309
-9.60468e-06
-0.000203384
-6.76844e-06
-0.000228406
-4.50375e-06
-0.000256544
-2.7726e-06
-0.000287811
-1.45169e-06
-0.000323087
-4.70403e-07
-0.00036219
1.65726e-07
-0.000404915
6.58543e-07
-0.000452217
8.35769e-07
-0.000502206
1.21371e-06
-0.00056064
7.93497e-07
-0.000616249
1.73288e-06
-0.000694299
3.32617e-07
-0.000745976
1.83584e-06
-0.000869735
2.79868e-06
-0.000873196
-0.00116943
-1.46958e-05
-0.000105754
-1.33242e-05
-0.000130394
-1.03525e-05
-0.000158842
-7.75294e-06
-0.000181894
-5.41829e-06
-0.000205704
-3.63034e-06
-0.000230202
-2.21358e-06
-0.000257947
-1.12594e-06
-0.000288857
-2.99952e-07
-0.00032387
3.10599e-07
-0.000362781
6.72178e-07
-0.000405298
9.69405e-07
-0.00045252
1.03142e-06
-0.000502268
1.29095e-06
-0.000560919
8.91374e-07
-0.000615849
1.75283e-06
-0.00069515
2.31969e-07
-0.000744431
2.08771e-06
-0.000871539
2.12253e-06
-0.000873187
-0.00116727
-5.30005e-07
-0.000102863
-2.60494e-06
-0.00012847
-2.01661e-06
-0.000159592
-1.35966e-06
-0.000182708
-5.85514e-07
-0.000206569
2.39303e-08
-0.000230814
5.17315e-07
-0.000258403
8.75173e-07
-0.0002892
1.13053e-06
-0.000324118
1.31716e-06
-0.000362972
1.36533e-06
-0.000405381
1.42206e-06
-0.00045259
1.33701e-06
-0.000502186
1.43158e-06
-0.000561027
1.07471e-06
-0.000615484
1.75561e-06
-0.000695831
1.2073e-07
-0.00074278
2.24024e-06
-0.000873615
1.59685e-06
-0.000872534
-0.00116565
1.59513e-05
-9.25922e-05
9.44151e-06
-0.000121889
6.94553e-06
-0.000156978
5.4354e-06
-0.000181105
4.50124e-06
-0.000205619
3.84595e-06
-0.000230127
3.36766e-06
-0.00025783
2.98852e-06
-0.000288764
2.67255e-06
-0.000323766
2.42975e-06
-0.000362698
2.15556e-06
-0.000405102
1.94524e-06
-0.000452371
1.68919e-06
-0.000501923
1.57808e-06
-0.000560911
1.29382e-06
-0.000615165
1.71278e-06
-0.000696234
5.78225e-09
-0.000741067
2.23213e-06
-0.000875787
7.0144e-07
-0.000871022
-0.00116495
2.53917e-05
-7.69226e-05
1.7887e-05
-0.000114406
1.36615e-05
-0.000152757
1.08779e-05
-0.000178295
8.78428e-06
-0.000203519
7.24089e-06
-0.000228605
5.99359e-06
-0.000256574
5.01293e-06
-0.000287794
4.19864e-06
-0.000322946
3.55334e-06
-0.000362026
2.96282e-06
-0.000404492
2.46665e-06
-0.000451855
2.02102e-06
-0.000501457
1.64745e-06
-0.000560522
1.429e-06
-0.000614916
1.4879e-06
-0.00069629
-1.42243e-07
-0.000739455
2.01706e-06
-0.000877876
-2.26656e-06
-0.000866721
-0.00116724
2.19723e-05
-6.16583e-05
1.95391e-05
-0.000111869
1.67072e-05
-0.000149892
1.4432e-05
-0.000176017
1.21189e-05
-0.000201203
1.01548e-05
-0.000226642
8.37975e-06
-0.000254813
6.9183e-06
-0.000286345
5.69115e-06
-0.000321699
4.67173e-06
-0.000360965
3.78364e-06
-0.00040356
2.97178e-06
-0.000451016
2.33422e-06
-0.000500791
1.56083e-06
-0.000559722
1.36929e-06
-0.000614698
5.78714e-07
-0.000695482
-2.46885e-07
-0.000738642
6.78108e-07
-0.00087878
-4.88068e-06
-0.000861138
-0.00117212
1.06959e-05
-6.66706e-05
1.72871e-05
-0.000118427
1.8569e-05
-0.000151214
1.70569e-05
-0.000174546
1.49658e-05
-0.000199182
1.26141e-05
-0.000224328
1.04962e-05
-0.000252755
8.65523e-06
-0.000284494
7.17023e-06
-0.000320158
5.81208e-06
-0.000359585
4.69451e-06
-0.000402418
3.53421e-06
-0.000449826
2.811e-06
-0.000500016
1.41944e-06
-0.0005583
1.44372e-06
-0.000614707
-1.53516e-06
-0.000692459
3.25293e-07
-0.000740498
-3.37718e-06
-0.000875053
-5.37211e-06
-0.000859142
-0.00117746
1.48715e-05
-8.01287e-05
2.14068e-05
-0.000124925
2.04687e-05
-0.000150329
1.84257e-05
-0.000172504
1.55628e-05
-0.000196431
1.29431e-05
-0.000221693
1.07997e-05
-0.000250652
9.10966e-06
-0.00028279
7.85373e-06
-0.000318852
6.59423e-06
-0.000358322
5.50729e-06
-0.000401301
4.21905e-06
-0.000448529
3.33911e-06
-0.000499098
1.72966e-06
-0.000556653
1.73609e-06
-0.000614739
-1.75134e-06
-0.000688915
8.48854e-07
-0.000743077
-6.1018e-06
-0.000868091
-1.15629e-05
-0.000853712
-0.00118895
2.54259e-06
-8.26897e-05
1.02544e-06
-0.000123415
1.14271e-06
-0.000150473
3.95009e-07
-0.000171757
1.59456e-07
-0.000196225
-1.44884e-07
-0.000221388
-2.05483e-07
-0.000250593
-2.3135e-07
-0.000282768
-1.85369e-07
-0.000318885
-1.89219e-07
-0.000358318
-1.74039e-07
-0.000401311
-2.6744e-07
-0.00044842
-2.12639e-07
-0.000499138
-4.66612e-07
-0.00055639
-6.28058e-08
-0.000615145
-8.09763e-07
-0.000688152
5.39524e-07
-0.000744406
-1.59236e-06
-0.000865944
2.16657e-06
-0.000857486
-0.00118678
2.69276e-06
-8.53872e-05
1.02012e-06
-0.000121735
1.14581e-06
-0.000150607
3.59502e-07
-0.000170971
1.17658e-07
-0.000195993
-1.87981e-07
-0.000221076
-2.40579e-07
-0.000250542
-2.57917e-07
-0.00028275
-2.02319e-07
-0.000318938
-1.95679e-07
-0.000358325
-1.69317e-07
-0.000401336
-2.54029e-07
-0.00044834
-1.95204e-07
-0.000499201
-4.48691e-07
-0.000556126
-3.99588e-08
-0.000615554
-8.30683e-07
-0.000687365
5.39804e-07
-0.00074578
-1.66856e-06
-0.000863725
2.09445e-06
-0.000861252
-0.00118468
2.56266e-06
-8.79536e-05
9.95108e-07
-0.000120163
1.07048e-06
-0.000150692
2.79606e-07
-0.000170179
2.38769e-08
-0.000195748
-2.71562e-07
-0.000220775
-3.1154e-07
-0.000250504
-3.14242e-07
-0.000282744
-2.44995e-07
-0.000319005
-2.2364e-07
-0.00035835
-1.83456e-07
-0.000401375
-2.51637e-07
-0.000448275
-1.89119e-07
-0.000499267
-4.30297e-07
-0.000555876
-3.01423e-08
-0.000615957
-8.18441e-07
-0.00068658
5.36428e-07
-0.00074714
-1.67736e-06
-0.000861501
1.97262e-06
-0.000864907
-0.0011827
2.37494e-06
-9.03317e-05
9.25411e-07
-0.000118712
9.46092e-07
-0.000150724
1.58008e-07
-0.000169387
-1.04912e-07
-0.000195496
-3.81819e-07
-0.000220494
-4.03774e-07
-0.000250484
-3.88206e-07
-0.000282756
-3.03532e-07
-0.000319087
-2.6532e-07
-0.000358392
-2.10275e-07
-0.000401429
-2.59639e-07
-0.000448225
-1.90728e-07
-0.000499339
-4.18391e-07
-0.000555643
-2.7454e-08
-0.000616351
-8.04419e-07
-0.000685805
5.43212e-07
-0.000748492
-1.67604e-06
-0.000859271
1.8863e-06
-0.000868475
-0.00118081
2.1744e-06
-9.25087e-05
8.29235e-07
-0.000117366
7.90301e-07
-0.000150697
1.32768e-08
-0.000168604
-2.50392e-07
-0.000195242
-5.02485e-07
-0.000220239
-5.04216e-07
-0.000250484
-4.69764e-07
-0.000282789
-3.70485e-07
-0.000319185
-3.15229e-07
-0.000358451
-2.45497e-07
-0.000401499
-2.74927e-07
-0.000448194
-1.97959e-07
-0.00049942
-4.0997e-07
-0.000555427
-3.04629e-08
-0.000616736
-7.90473e-07
-0.000685045
5.57142e-07
-0.000749845
-1.66856e-06
-0.000857034
1.82371e-06
-0.000871976
-0.00117898
1.97354e-06
-9.44843e-05
7.11978e-07
-0.000116102
6.09513e-07
-0.000150604
-1.49239e-07
-0.000167839
-4.07056e-07
-0.000194992
-6.29246e-07
-0.000220015
-6.09553e-07
-0.000250505
-5.5596e-07
-0.000282842
-4.43114e-07
-0.000319297
-3.71014e-07
-0.000358525
-2.87155e-07
-0.000401584
-2.96209e-07
-0.000448183
-2.10084e-07
-0.000499509
-4.04491e-07
-0.00055523
-3.63725e-08
-0.000617109
-7.73834e-07
-0.000684305
5.72025e-07
-0.000751195
-1.66122e-06
-0.000854789
1.78413e-06
-0.000875431
-0.00117719
1.77434e-06
-9.62597e-05
5.7579e-07
-0.000114898
4.07691e-07
-0.000150443
-3.25423e-07
-0.000167097
-5.71149e-07
-0.000194751
-7.59363e-07
-0.000219827
-7.17802e-07
-0.000250547
-6.45034e-07
-0.000282917
-5.19551e-07
-0.000319423
-4.31044e-07
-0.000358613
-3.33727e-07
-0.000401683
-3.22382e-07
-0.000448192
-2.26532e-07
-0.000499608
-4.01593e-07
-0.000555054
-4.49988e-08
-0.00061747
-7.56942e-07
-0.000683589
5.84818e-07
-0.000752542
-1.65764e-06
-0.000852533
1.76376e-06
-0.000878863
-0.00117542
1.57497e-06
-9.78343e-05
4.22486e-07
-0.000113738
1.88927e-07
-0.000150212
-5.10777e-07
-0.000166387
-7.39138e-07
-0.000194526
-8.90418e-07
-0.000219678
-8.27314e-07
-0.000250611
-7.35547e-07
-0.000283014
-5.98308e-07
-0.000319564
-4.93884e-07
-0.000358714
-3.83777e-07
-0.000401795
-3.52422e-07
-0.000448222
-2.4669e-07
-0.000499717
-4.00915e-07
-0.000554899
-5.61036e-08
-0.000617819
-7.39993e-07
-0.000682899
5.95001e-07
-0.000753881
-1.65819e-06
-0.000850265
1.76173e-06
-0.000882294
-0.00117365
1.37267e-06
-9.92051e-05
2.53825e-07
-0.000112609
-4.23158e-08
-0.000149915
-7.00642e-07
-0.000165719
-9.07593e-07
-0.00019432
-1.02023e-06
-0.000219569
-9.36557e-07
-0.000250695
-8.26136e-07
-0.000283131
-6.77946e-07
-0.000319717
-5.58201e-07
-0.00035883
-4.36009e-07
-0.00040192
-3.85336e-07
-0.000448272
-2.69863e-07
-0.000499836
-4.0201e-07
-0.000554766
-6.95094e-08
-0.000618156
-7.22642e-07
-0.000682238
6.02421e-07
-0.000755211
-1.66327e-06
-0.000847983
1.77764e-06
-0.000885746
-0.00117187
1.17271e-06
-0.000100374
7.29683e-08
-0.000111498
-2.81629e-07
-0.000149558
-8.90519e-07
-0.0001651
-1.0733e-06
-0.000194136
-1.14689e-06
-0.000219502
-1.04414e-06
-0.000250799
-9.1558e-07
-0.00028327
-7.57091e-07
-0.000319884
-6.22733e-07
-0.00035896
-4.89174e-07
-0.000402058
-4.20087e-07
-0.000448342
-2.9536e-07
-0.000499965
-4.04282e-07
-0.000554656
-8.34805e-08
-0.000618481
-7.02977e-07
-0.000681609
6.06969e-07
-0.000756525
-1.67355e-06
-0.000845685
1.81216e-06
-0.000889242
-0.00117004
9.74408e-07
-0.000101344
-1.17928e-07
-0.000110396
-5.24296e-07
-0.000149148
-1.07602e-06
-0.00016454
-1.23341e-06
-0.000193978
-1.26878e-06
-0.000219474
-1.14882e-06
-0.000250921
-1.00283e-06
-0.000283427
-8.34552e-07
-0.000320062
-6.86302e-07
-0.000359104
-5.42134e-07
-0.000402207
-4.55748e-07
-0.000448429
-3.22466e-07
-0.000500102
-4.07522e-07
-0.000554569
-9.61083e-08
-0.000618796
-6.77025e-07
-0.000681017
6.1071e-07
-0.000757818
-1.68834e-06
-0.000843368
1.86945e-06
-0.00089281
-0.00116816
7.77284e-07
-0.000102117
-3.15578e-07
-0.000109297
-7.64972e-07
-0.000148696
-1.25318e-06
-0.000164047
-1.38545e-06
-0.000193843
-1.38449e-06
-0.000219483
-1.24946e-06
-0.000251059
-1.08688e-06
-0.0002836
-9.09254e-07
-0.000320251
-7.47858e-07
-0.000359262
-5.93869e-07
-0.000402365
-4.91426e-07
-0.000448533
-3.50453e-07
-0.000500246
-4.10833e-07
-0.000554506
-1.09523e-07
-0.000619101
-6.43252e-07
-0.000680472
6.17708e-07
-0.000759083
-1.70775e-06
-0.000841025
1.94937e-06
-0.000896478
-0.0011662
5.81953e-07
-0.000102694
-5.15487e-07
-0.000108198
-9.9864e-07
-0.00014821
-1.41867e-06
-0.000163627
-1.52702e-06
-0.000193731
-1.49273e-06
-0.000219525
-1.34495e-06
-0.000251211
-1.16678e-06
-0.000283787
-9.80207e-07
-0.000320448
-8.06434e-07
-0.000359433
-6.43413e-07
-0.000402532
-5.26214e-07
-0.000448652
-3.78616e-07
-0.000500396
-4.13432e-07
-0.000554468
-1.23626e-07
-0.000619395
-6.06498e-07
-0.000679978
6.22521e-07
-0.000760318
-1.73142e-06
-0.000838655
2.05355e-06
-0.000900273
-0.00116414
3.8934e-07
-0.00010308
-7.12781e-07
-0.0001071
-1.22042e-06
-0.000147699
-1.57e-06
-0.000163282
-1.65632e-06
-0.000193639
-1.59234e-06
-0.000219597
-1.43419e-06
-0.000251373
-1.24165e-06
-0.000283986
-1.04651e-06
-0.000320653
-8.61143e-07
-0.000359616
-6.89876e-07
-0.000402706
-5.59277e-07
-0.000448783
-4.06264e-07
-0.000500551
-4.14988e-07
-0.000554456
-1.40033e-07
-0.000619675
-5.69454e-07
-0.000679538
6.24013e-07
-0.000761517
-1.75988e-06
-0.000836256
2.18502e-06
-0.000904229
-0.00116195
1.99859e-07
-0.000103278
-9.02607e-07
-0.000106006
-1.42614e-06
-0.000147171
-1.70545e-06
-0.000163009
-1.77191e-06
-0.000193564
-1.68227e-06
-0.000219693
-1.51606e-06
-0.000251543
-1.31052e-06
-0.000284195
-1.10728e-06
-0.000320864
-9.11166e-07
-0.000359811
-7.32464e-07
-0.000402888
-5.89855e-07
-0.000448927
-4.32628e-07
-0.000500711
-4.15371e-07
-0.00055447
-1.58044e-07
-0.000619937
-5.30977e-07
-0.000679156
6.21118e-07
-0.000762675
-1.79508e-06
-0.000833826
2.34756e-06
-0.000908381
-0.00115959
1.37709e-08
-0.00010329
-1.07831e-06
-0.000104922
-1.61509e-06
-0.000146628
-1.82642e-06
-0.000162805
-1.87261e-06
-0.000193508
-1.76142e-06
-0.00021981
-1.58931e-06
-0.000251721
-1.37239e-06
-0.000284413
-1.16162e-06
-0.00032108
-9.55676e-07
-0.000360017
-7.7039e-07
-0.000403075
-6.17139e-07
-0.000449082
-4.56976e-07
-0.000500872
-4.14323e-07
-0.00055451
-1.75492e-07
-0.000620181
-4.88386e-07
-0.000678834
6.13582e-07
-0.000763783
-1.83591e-06
-0.000831365
2.54508e-06
-0.000912771
-0.00115704
-1.69718e-07
-0.000103119
-1.23322e-06
-0.000103864
-1.78541e-06
-0.000146069
-1.92924e-06
-0.000162665
-1.95721e-06
-0.00019347
-1.82852e-06
-0.000219944
-1.65266e-06
-0.000251905
-1.42614e-06
-0.000284639
-1.20858e-06
-0.000321302
-9.93808e-07
-0.000360232
-8.0296e-07
-0.000403267
-6.40266e-07
-0.000449245
-4.78789e-07
-0.000501035
-4.115e-07
-0.000554574
-1.94135e-07
-0.000620403
-4.45472e-07
-0.000678575
5.91103e-07
-0.000764825
-1.87949e-06
-0.000828883
2.77993e-06
-0.000917437
-0.00115425
-3.51371e-07
-0.000102767
-1.35922e-06
-0.000102855
-1.93e-06
-0.00014549
-2.00842e-06
-0.000162588
-2.02467e-06
-0.000193446
-1.88244e-06
-0.000220091
-1.705e-06
-0.000252092
-1.47091e-06
-0.000284872
-1.24759e-06
-0.000321528
-1.025e-06
-0.000360454
-8.29715e-07
-0.000403462
-6.58466e-07
-0.000449417
-4.97664e-07
-0.000501196
-4.05658e-07
-0.000554661
-2.15027e-07
-0.000620596
-4.02171e-07
-0.000678379
5.44525e-07
-0.000765774
-1.91986e-06
-0.000826408
3.05351e-06
-0.000922413
-0.00115119
-5.14596e-07
-0.000102251
-1.4443e-06
-0.000101921
-2.03793e-06
-0.000144891
-2.06212e-06
-0.000162565
-2.07184e-06
-0.000193433
-1.92159e-06
-0.000220246
-1.74487e-06
-0.000252278
-1.50679e-06
-0.000285111
-1.27916e-06
-0.000321758
-1.05016e-06
-0.000360683
-8.51147e-07
-0.00040366
-6.72246e-07
-0.000449596
-5.12705e-07
-0.000501355
-3.97973e-07
-0.00055477
-2.34507e-07
-0.000620759
-3.57923e-07
-0.000678248
4.90894e-07
-0.000766623
-1.96259e-06
-0.000823943
3.37683e-06
-0.000927753
-0.00114781
-7.29035e-07
-0.000101523
-1.43148e-06
-0.00010123
-2.10063e-06
-0.000144219
-2.06182e-06
-0.000162604
-2.08538e-06
-0.000193413
-1.93222e-06
-0.000220405
-1.76502e-06
-0.000252452
-1.52887e-06
-0.00028535
-1.30149e-06
-0.000321988
-1.06764e-06
-0.000360916
-8.66238e-07
-0.00040386
-6.7862e-07
-0.000449785
-5.23574e-07
-0.000501511
-3.82027e-07
-0.000554905
-2.57291e-07
-0.000620881
-2.90353e-07
-0.000678209
4.05043e-07
-0.000767317
-1.8824e-06
-0.000821646