/*--------------------------------*- C++ -*----------------------------------*\
  =========                 |
  \\      /  F ield         | OpenFOAM: The Open Source CFD Toolbox
   \\    /   O peration     | Website:  https://openfoam.org
    \\  /    A nd           | Version:  10
     \\/     M anipulation  |
\*---------------------------------------------------------------------------*/
FoamFile
{
    format      ascii;
    class       surfaceScalarField;
    location    "1000";
    object      phi;
}
// * * * * * * * * * * * * * * * * * * * * * * * * * * * * * * * * * * * * * //

dimensions      [0 3 -1 0 0 0 0];

internalField   nonuniform List<scalar> 
788
(
-1.91285e-06
-6.52091e-06
-3.55699e-08
8.67189e-06
1.1897e-06
1.28982e-05
2.02947e-06
1.43348e-05
2.37712e-06
1.37963e-05
1.98674e-06
1.16411e-05
9.36341e-07
7.74265e-06
-5.56325e-07
5.36265e-07
-1.76183e-06
-1.15326e-05
-2.79364e-05
-2.39903e-06
-6.11503e-07
-5.90602e-06
4.91628e-07
7.54056e-06
1.72563e-06
1.15964e-05
2.72712e-06
1.32581e-05
3.17959e-06
1.32994e-05
2.87264e-06
1.19675e-05
2.07116e-06
8.64049e-06
1.07064e-06
1.65844e-06
1.03281e-07
-1.04749e-05
-2.70841e-05
-7.20498e-07
-7.70913e-08
-5.83944e-06
7.25213e-07
6.66971e-06
1.85547e-06
1.03814e-05
2.87717e-06
1.21742e-05
3.45432e-06
1.26916e-05
3.43677e-06
1.19939e-05
2.99409e-06
9.13197e-06
2.45408e-06
2.25794e-06
1.63275e-06
-9.63823e-06
-2.61449e-05
6.27381e-07
-1.12189e-08
-5.84948e-06
6.98495e-07
5.88059e-06
1.84654e-06
9.14534e-06
3.02091e-06
1.09405e-05
3.89999e-06
1.17836e-05
4.32523e-06
1.15713e-05
4.24899e-06
9.23807e-06
3.86764e-06
2.67638e-06
3.00729e-06
-8.76983e-06
-2.49675e-05
1.7784e-06
-1.20414e-07
-5.75587e-06
5.54461e-07
5.12546e-06
1.8104e-06
7.79846e-06
3.25092e-06
9.43084e-06
4.55143e-06
1.04402e-05
5.47404e-06
1.0636e-05
5.79465e-06
8.93499e-06
5.44459e-06
3.06168e-06
4.44237e-06
-7.74171e-06
-2.34503e-05
2.90844e-06
-3.31596e-07
-5.45416e-06
3.24037e-07
4.38782e-06
1.74201e-06
6.28451e-06
3.5074e-06
7.58536e-06
5.29319e-06
8.60144e-06
6.80249e-06
9.11067e-06
7.68629e-06
8.07665e-06
7.52031e-06
3.28974e-06
6.26652e-06
-6.41149e-06
-2.1318e-05
4.18512e-06
-6.59679e-07
-4.82569e-06
5.96744e-09
3.63916e-06
1.61597e-06
4.57508e-06
3.70197e-06
5.4128e-06
5.97761e-06
6.2702e-06
8.14322e-06
6.93546e-06
9.72798e-06
6.53835e-06
9.93657e-06
3.19202e-06
8.21527e-06
-4.53005e-06
-1.81359e-05
5.19311e-06
-1.15111e-06
-3.70484e-06
-3.7642e-07
2.78401e-06
1.40432e-06
2.69254e-06
3.65918e-06
3.06468e-06
6.24352e-06
3.62731e-06
8.96617e-06
4.20936e-06
1.12631e-05
4.30871e-06
1.19469e-05
2.66826e-06
9.60289e-06
-1.93168e-06
-1.32271e-05
4.97123e-06
-1.84954e-06
-1.88295e-06
-6.25244e-07
1.48814e-06
1.10896e-06
8.61855e-07
3.09275e-06
9.87096e-07
5.4428e-06
1.21874e-06
8.18114e-06
1.47264e-06
1.09241e-05
1.64237e-06
1.23697e-05
1.39666e-06
1.0382e-05
3.50409e-07
-6.01821e-06
3.52656e-06
-1.90318e-06
-4.61197e-07
3.5431e-07
1.31147e-06
2.52567e-06
4.02227e-06
5.72915e-06
7.25089e-06
7.79723e-06
1.98399e-06
-2.50973e-06
-4.83239e-05
-2.17874e-06
-7.97493e-05
-1.58921e-06
-0.000121367
-1.06296e-06
-0.000173992
-7.44589e-07
-0.000239454
-5.08832e-07
-0.000318867
3.08597e-07
-0.000415966
1.11547e-05
-0.000593815
7.8934e-06
-0.0006587
-0.000836595
-1.27245e-06
-4.78259e-05
-1.41081e-06
-7.9736e-05
-1.22708e-06
-0.000121698
-1.03566e-06
-0.000174268
-6.86205e-07
-0.000239709
-4.44604e-07
-0.000318928
-1.9367e-06
-0.000414797
4.43329e-06
-0.000600246
-6.68419e-07
-0.000653023
-0.000837012
-1.94852e-07
-4.71568e-05
-4.88656e-07
-7.96558e-05
-3.72756e-07
-0.000122008
-1.73045e-07
-0.000174501
2.68077e-07
-0.000239895
2.86162e-07
-0.000318894
-2.81545e-06
-0.000412301
2.61828e-06
-0.000604793
-1.50515e-06
-0.000649142
-0.000838491
7.94639e-07
-4.62972e-05
5.02776e-07
-7.95442e-05
6.07111e-07
-0.00012227
7.79446e-07
-0.000174658
1.1921e-06
-0.000240063
1.16833e-06
-0.000318944
-2.48982e-06
-0.000409063
1.4018e-06
-0.000608486
-7.19771e-07
-0.000647187
-0.000839136
1.78124e-06
-4.52582e-05
1.56997e-06
-7.94793e-05
1.64986e-06
-0.000122461
1.74921e-06
-0.000174656
2.05817e-06
-0.000240101
1.98727e-06
-0.000319027
-1.72549e-06
-0.000405353
1.6583e-07
-0.00061038
-2.01572e-06
-0.000645026
-0.000841031
2.87939e-06
-4.39788e-05
2.78963e-06
-7.94955e-05
2.78455e-06
-0.000122538
2.74811e-06
-0.000174468
2.93173e-06
-0.000239957
2.91139e-06
-0.0003191
-7.24895e-07
-0.0004015
-1.36357e-07
-0.000610958
-1.97719e-06
-0.000643143
-0.000842873
3.99684e-06
-4.27001e-05
4.0918e-06
-7.96267e-05
3.95048e-06
-0.000122463
3.73311e-06
-0.000174127
3.7589e-06
-0.000239692
3.8757e-06
-0.000319268
2.50437e-07
-0.000397617
-6.25589e-07
-0.000610085
-1.97933e-06
-0.000641728
-0.000844725
4.66263e-06
-4.21981e-05
5.12585e-06
-8.00654e-05
4.92257e-06
-0.000122322
4.54732e-06
-0.000173679
4.31807e-06
-0.000239253
4.25068e-06
-0.000319264
9.19403e-07
-0.000394079
-2.16029e-06
-0.000607044
-1.89138e-06
-0.000641921
-0.000846552
5.01695e-06
-4.34046e-05
6.19185e-06
-8.10728e-05
5.81023e-06
-0.000121926
5.18937e-06
-0.000172991
4.69353e-06
-0.000238599
4.55913e-06
-0.000319204
2.45467e-06
-0.000391854
-3.96451e-06
-0.000600709
-1.40564e-06
-0.000644253
-0.000848097
7.96372e-06
-4.92289e-05
8.06295e-06
-8.09031e-05
6.74444e-06
-0.000120494
5.61468e-06
-0.000171803
4.45412e-06
-0.000237383
4.94924e-06
-0.000319723
6.10151e-06
-0.000392749
-5.18694e-06
-0.000589706
9.91631e-08
-0.000649015
-0.000848382
3.49386e-06
-5.25365e-05
3.53795e-06
-8.07902e-05
2.51124e-06
-0.000119394
1.62824e-06
-0.000170862
1.08083e-06
-0.000236753
-1.68169e-07
-0.000318557
8.59696e-07
-0.000393578
4.45964e-06
-0.000593541
-2.34725e-06
-0.000641683
-0.000850704
4.47303e-06
-5.69163e-05
5.54258e-06
-8.1732e-05
4.88905e-06
-0.000118729
4.24293e-06
-0.000170129
3.92893e-06
-0.000236274
2.64935e-06
-0.000317396
1.13684e-06
-0.000391869
4.49822e-06
-0.000597193
-5.14798e-07
-0.000636501
-0.000851119
7.91675e-06
-4.96273e-05
-1.5086e-05
6.53272e-06
-7.99574e-05
5.35406e-06
-0.000117551
4.09046e-06
-0.000168789
2.86901e-06
-0.000234907
2.90306e-06
-0.000317521
-8.88069e-07
-0.000387809
-1.0157e-05
-0.000588045
1.80776e-06
-0.00064834
-0.000849341
5.05395e-06
-4.86482e-05
-5.6853e-06
3.82169e-06
-7.84409e-05
3.04839e-06
-0.000116789
2.33066e-06
-0.000168024
1.58545e-06
-0.000233964
1.65524e-06
-0.000317589
2.48671e-06
-0.000388542
-6.46413e-06
-0.000578882
-6.68463e-06
-0.000647974
-0.000855972
1.51065e-07
-4.94269e-05
8.23772e-07
1.8515e-07
-7.82901e-05
-1.54486e-08
-0.000116607
-2.3099e-07
-0.000167791
-7.06845e-07
-0.000233348
-1.10606e-06
-0.000317144
4.22679e-07
-0.000389967
-7.26193e-06
-0.000571263
-1.01072e-05
-0.000644991
-0.000866034
-3.25375e-06
-4.99228e-05
3.88301e-06
-2.83132e-06
-7.85328e-05
-2.60288e-06
-0.000116885
-2.3731e-06
-0.000168011
-2.46578e-06
-0.000233124
-2.91154e-06
-0.000316705
-9.17626e-07
-0.000391795
-8.13642e-06
-0.00056409
-1.20103e-05
-0.000641087
-0.000878031
-5.76246e-06
-4.99719e-05
5.96176e-06
-5.41564e-06
-7.87265e-05
-4.97483e-06
-0.000117385
-4.40993e-06
-0.000168561
-4.09598e-06
-0.000233307
-4.45643e-06
-0.000316399
-1.69032e-06
-0.000394465
-7.82639e-06
-0.00055802
-1.20654e-05
-0.000636901
-0.000890085
-7.58909e-06
-4.97895e-05
7.53677e-06
-7.40925e-06
-7.87992e-05
-6.89133e-06
-0.00011795
-6.12126e-06
-0.000169322
-5.44846e-06
-0.000233904
-5.73683e-06
-0.000316245
-2.17748e-06
-0.000397995
-6.38869e-06
-0.000553884
-1.04403e-05
-0.000632895
-0.000900498
-8.66668e-06
-4.94298e-05
8.39584e-06
-8.75065e-06
-7.86253e-05
-8.35406e-06
-0.000118375
-7.59238e-06
-0.000170097
-6.55352e-06
-0.000234955
-6.4256e-06
-0.000316592
-1.8763e-06
-0.000402507
-2.93391e-06
-0.000552815
-5.51215e-06
-0.000630268
-0.00090595
-9.00817e-06
-4.88271e-05
8.47558e-06
-9.3161e-06
-7.82372e-05
-9.16966e-06
-0.000118569
-8.61669e-06
-0.000170729
-7.36299e-06
-0.000236338
-6.6817e-06
-0.000317549
-1.53641e-06
-0.000407478
3.05747e-06
-0.000557198
9.50278e-06
-0.000636505
-0.000896232
-8.51239e-06
-4.82413e-05
7.98969e-06
-8.61436e-06
-7.81239e-05
-8.47875e-06
-0.000118852
-7.9488e-06
-0.000171498
-6.50691e-06
-0.000238101
-4.60063e-06
-0.00031979
6.91433e-07
-0.000412318
1.34051e-05
-0.000569374
3.83299e-05
-0.000662148
-0.00085873
-5.02359e-06
5.08207e-06
-4.29864e-06
-3.3423e-06
-2.44437e-06
-2.05497e-06
-2.68611e-06
1.6704e-06
1.48093e-05
1.38894e-05
-2.05767e-05
5.7756e-06
-2.82086e-05
2.32054e-06
-3.16333e-05
4.56599e-06
-3.30951e-05
5.57496e-06
-3.33944e-05
6.44413e-06
-3.29812e-05
7.27726e-06
-3.20921e-05
7.63606e-06
-3.08549e-05
7.32376e-06
-2.95418e-05
6.64414e-06
4.16757e-06
-5.6348e-06
1.15199e-05
-1.24432e-05
9.33489e-06
-1.66487e-05
8.87588e-06
-1.87998e-05
7.79423e-06
-1.945e-05
7.18234e-06
-1.91023e-05
7.03165e-06
-1.80773e-05
6.70778e-06
-1.65639e-05
5.89182e-06
-1.46779e-05
4.7976e-06
2.66498e-06
9.52773e-07
1.06371e-05
-1.92372e-06
1.22797e-05
-4.85128e-06
1.18187e-05
-6.83904e-06
9.81813e-06
-7.61382e-06
8.0205e-06
-7.35787e-06
6.84587e-06
-6.42525e-06
5.84083e-06
-5.03204e-06
4.55864e-06
-3.16306e-06
2.97631e-06
9.56216e-07
2.78878e-06
7.87434e-06
3.42743e-06
1.16464e-05
2.96102e-06
1.22627e-05
2.21388e-06
1.05672e-05
1.76437e-06
8.48912e-06
1.94649e-06
6.68579e-06
2.69017e-06
5.12024e-06
3.78634e-06
3.49459e-06
5.12222e-06
1.68303e-06
-2.71542e-07
2.71125e-06
5.16927e-06
5.14272e-06
9.18651e-06
6.79574e-06
1.05519e-05
7.56159e-06
9.76355e-06
7.95261e-06
8.07095e-06
8.40135e-06
6.21255e-06
9.06305e-06
4.43985e-06
9.83273e-06
2.72898e-06
1.05861e-05
9.52621e-07
-8.86158e-07
2.24808e-06
2.91806e-06
5.20317e-06
6.17521e-06
8.08736e-06
7.57711e-06
1.02579e-05
7.52137e-06
1.17076e-05
6.55921e-06
1.26895e-05
5.17274e-06
1.34367e-05
3.64048e-06
1.39953e-05
2.14136e-06
1.43088e-05
6.30632e-07
-8.77513e-07
1.73653e-06
1.17233e-06
4.64422e-06
3.19212e-06
7.86917e-06
4.2412e-06
1.07195e-05
4.58098e-06
1.28973e-05
4.30166e-06
1.44218e-05
3.57277e-06
1.53969e-05
2.59411e-06
1.58996e-05
1.58178e-06
1.5938e-05
5.53394e-07
-4.2517e-07
1.37639e-06
-2.16169e-07
4.03273e-06
4.53e-07
6.98335e-06
1.17187e-06
9.71418e-06
1.75248e-06
1.19453e-05
1.9831e-06
1.35985e-05
1.8377e-06
1.46768e-05
1.43939e-06
1.52218e-05
9.68855e-07
1.51784e-05
5.35829e-07
1.73602e-07
8.06735e-07
-1.03434e-06
2.65192e-06
-1.47091e-06
4.7167e-06
-9.89596e-07
6.71088e-06
-3.17961e-07
8.46707e-06
1.59105e-07
9.86449e-06
3.75798e-07
1.08524e-05
3.91345e-07
1.14465e-05
3.21838e-07
1.15931e-05
3.4478e-07
7.08011e-07
-1.0446e-06
-2.55916e-06
-3.581e-06
-3.92619e-06
-3.79315e-06
-3.4439e-06
-3.07872e-06
-2.78578e-06
-2.48542e-06
)
;

boundaryField
{
    right
    {
        type            cyclic;
        value           nonuniform List<scalar> 
20
(
0.000843278
0.000661574
0.000583919
0.000415904
0.000318706
0.000238478
0.000172585
0.000120063
7.90081e-05
4.82717e-05
2.86311e-05
1.28746e-05
1.13748e-06
-6.51113e-06
-1.11488e-05
-1.41484e-05
-1.53199e-05
-1.43935e-05
-1.0984e-05
1.90496e-06
)
;
    }
    left
    {
        type            cyclic;
        value           nonuniform List<scalar> 
20
(
-0.000843278
-0.000661574
-0.000583919
-0.000415904
-0.000318706
-0.000238478
-0.000172585
-0.000120063
-7.90081e-05
-4.82717e-05
-2.86311e-05
-1.28746e-05
-1.13748e-06
6.51113e-06
1.11488e-05
1.41484e-05
1.53199e-05
1.43935e-05
1.0984e-05
-1.90496e-06
)
;
    }
    outerWall
    {
        type            calculated;
        value           uniform 0;
    }
    stirrerWall
    {
        type            calculated;
        value           uniform 0;
    }
    top
    {
        type            empty;
        value           nonuniform List<scalar> 0();
    }
    bottom
    {
        type            empty;
        value           nonuniform List<scalar> 0();
    }
}


// ************************************************************************* //
