/*--------------------------------*- C++ -*----------------------------------*\
  =========                 |
  \\      /  F ield         | OpenFOAM: The Open Source CFD Toolbox
   \\    /   O peration     | Website:  https://openfoam.org
    \\  /    A nd           | Version:  10
     \\/     M anipulation  |
\*---------------------------------------------------------------------------*/
FoamFile
{
    format      ascii;
    class       volVectorField;
    location    "1000";
    object      U;
}
// * * * * * * * * * * * * * * * * * * * * * * * * * * * * * * * * * * * * * //

dimensions      [0 1 -1 0 0 0 0];

internalField   nonuniform List<vector> 
2000
(
(0.794664 36.9415 8.0561e-18)
(-0.938573 43.772 -4.8707e-18)
(2.5166 51.2246 2.77881e-19)
(5.42328 58.6911 0)
(7.36345 64.9395 0)
(8.6383 69.6355 1.49453e-16)
(9.39395 73.1164 -2.06184e-16)
(9.77325 75.6813 -2.71665e-16)
(9.92785 77.588 3.47924e-16)
(9.95507 79.0443 4.37701e-16)
(9.92486 80.2133 5.45178e-16)
(9.86672 81.2421 0)
(9.79023 82.2677 8.20214e-16)
(9.70848 83.2921 9.87326e-16)
(9.46916 84.0458 1.09359e-15)
(9.25196 84.7564 1.11176e-15)
(9.33846 86.4908 -1.11369e-15)
(9.05316 87.9677 4.38187e-16)
(9.16198 87.36 4.06155e-16)
(8.83121 87.3694 1.61411e-15)
(-0.54304 36.913 -1.99724e-17)
(-4.04076 42.7019 -7.97671e-18)
(0.202487 49.2757 -1.13679e-17)
(2.92923 57.0673 -1.7548e-16)
(5.11828 63.7785 3.70445e-17)
(6.61093 68.8804 -6.23296e-16)
(7.54544 72.6689 3.79772e-16)
(8.04645 75.4691 7.82671e-16)
(8.24173 77.5314 3.14978e-16)
(8.19061 79.0902 3.97788e-16)
(7.97593 80.3333 -9.88658e-16)
(7.65591 81.3647 -5.99841e-16)
(7.28042 82.2574 -7.93575e-16)
(6.94588 83.0187 -9.62097e-16)
(6.48577 83.6219 -3.1519e-15)
(6.04016 84.6297 -1.19457e-15)
(5.86107 86.0843 2.91519e-15)
(5.93734 86.9132 -2.4517e-15)
(5.76934 87.376 0)
(5.00141 88.1749 -2.26855e-15)
(-1.39674 37.1153 1.2305e-17)
(-6.11872 42.0111 -9.70067e-18)
(-2.99598 47.1212 -2.07112e-18)
(-0.798622 54.4649 1.69428e-16)
(1.697 61.475 3.79156e-16)
(3.5799 67.0915 1.2632e-16)
(4.8543 71.3457 3.9673e-16)
(5.60625 74.541 -7.471e-16)
(5.94626 76.9275 -6.55134e-16)
(5.96442 78.7398 -8.07293e-16)
(5.74924 80.1643 9.88315e-16)
(5.3771 81.3011 0)
(4.90228 82.2512 -2.83494e-15)
(4.4445 83.1278 0)
(3.75071 83.7988 0)
(3.13378 84.6931 0)
(2.82929 85.9099 1.89047e-15)
(2.43426 87.0769 -2.97032e-15)
(1.62738 88.0524 0)
(0.380389 89.2511 1.52211e-15)
(-2.25486 37.3221 -3.94164e-17)
(-7.43245 41.6337 1.02683e-16)
(-5.93511 45.9722 0)
(-4.20812 52.1734 3.75479e-16)
(-2.0508 59.0161 1.45008e-16)
(0.0161525 64.9781 1.28898e-16)
(1.52902 69.6799 -5.31151e-17)
(2.50709 73.3062 1.34614e-15)
(3.02683 76.0842 0)
(3.18339 78.227 6.24338e-16)
(3.06095 79.8951 8.4482e-16)
(2.75549 81.2039 2.1541e-15)
(2.239 82.2654 2.74122e-15)
(1.72468 83.2407 6.5199e-15)
(0.941476 84.0025 -3.0861e-15)
(0.0573263 84.9382 -1.94304e-16)
(-0.776462 86.0719 6.01704e-15)
(-1.84724 87.4192 2.90542e-15)
(-3.28567 88.8253 2.9041e-15)
(-5.06849 90.3969 3.01382e-15)
(-3.16788 37.4162 0)
(-8.50623 41.3951 -2.30487e-16)
(-8.11999 45.1085 -1.14172e-16)
(-6.87854 50.3262 -5.46318e-16)
(-5.73298 56.5989 -7.3656e-16)
(-3.82966 62.5737 2.22782e-16)
(-2.27338 67.609 -7.83661e-16)
(-1.18889 71.6403 -1.34027e-15)
(-0.561357 74.8145 -5.18241e-16)
(-0.32293 77.3067 8.01395e-17)
(-0.401176 79.2597 -1.60682e-15)
(-0.743747 80.7949 -2.18288e-15)
(-1.283 82.0296 -2.46781e-15)
(-1.95692 83.1296 -3.07173e-15)
(-2.8695 84.1038 0)
(-4.16055 85.2105 6.4055e-17)
(-5.57409 86.4623 8.24503e-17)
(-7.3694 88.0807 -3.00543e-15)
(-9.46434 89.8064 -9.45662e-15)
(-11.6048 91.594 2.95074e-15)
(-4.24811 37.3812 0)
(-9.66118 41.1307 1.39446e-16)
(-9.56098 44.4825 0)
(-9.31417 49.1541 3.52257e-16)
(-8.80754 54.5398 1.01942e-15)
(-7.66633 60.1549 0)
(-6.32999 65.2999 1.41838e-15)
(-5.33892 69.6414 2.75e-15)
(-4.75882 73.1769 0)
(-4.56604 76.0161 -1.14803e-15)
(-4.71945 78.2786 3.61596e-15)
(-5.18723 80.0732 3.1357e-16)
(-5.91026 81.529 2.90844e-15)
(-6.91537 82.7918 -2.70637e-15)
(-8.19143 84.0684 0)
(-9.95338 85.491 -5.80662e-15)
(-12.1408 87.0408 -3.04926e-15)
(-14.5483 88.8773 0)
(-16.9891 90.7849 7.12437e-15)
(-19.0812 92.5391 -1.46992e-14)
(-5.43464 37.2262 -1.60633e-16)
(-10.9677 40.7898 5.05811e-17)
(-10.8339 43.9581 -4.20915e-16)
(-11.4864 48.1589 -1.71342e-16)
(-11.2253 53.0218 8.69732e-17)
(-11.0904 58.0626 -8.43443e-16)
(-10.3484 63.0181 1.58047e-15)
(-9.69171 67.4927 -2.86062e-15)
(-9.36218 71.309 -3.64395e-15)
(-9.40471 74.4711 2.6916e-15)
(-9.82424 77.0427 -2.05193e-15)
(-10.6181 79.1133 -2.30572e-15)
(-11.7352 80.8135 2.4172e-15)
(-13.252 82.3115 -5.85147e-15)
(-15.1375 83.9531 0)
(-17.5572 85.7846 1.31992e-14)
(-20.4442 87.7095 -1.36958e-14)
(-23.2314 89.7015 7.12152e-15)
(-25.4298 91.5125 8.8692e-15)
(-26.6744 92.7923 3.40465e-16)
(-6.70341 36.985 -7.92426e-18)
(-12.3758 40.3329 -1.25535e-16)
(-12.1612 43.3552 5.08976e-16)
(-13.1106 47.2814 -7.5999e-16)
(-13.4899 51.8764 -1.26666e-15)
(-13.7372 56.4462 0)
(-13.9897 61.0567 -1.95283e-15)
(-13.928 65.4447 0)
(-14.0695 69.4169 2.67446e-15)
(-14.5644 72.8434 0)
(-15.4753 75.7126 0)
(-16.8381 78.088 -4.24874e-16)
(-18.6484 80.067 1.15994e-14)
(-20.9525 81.8594 7.29891e-15)
(-23.7487 84.012 3.92837e-16)
(-26.9707 86.3404 -7.48061e-15)
(-30.2024 88.621 0)
(-32.3234 90.2491 0)
(-33.0935 90.772 1.25174e-14)
(-32.7956 90.5232 2.89482e-14)
(-8.03839 36.6769 1.50152e-16)
(-13.8931 39.7674 -3.40849e-16)
(-13.6928 42.6734 2.6089e-16)
(-14.7175 46.43 -5.50809e-16)
(-15.5255 50.8137 -8.36581e-16)
(-16.1355 55.2814 9.0222e-16)
(-16.9345 59.4841 1.45924e-15)
(-17.7709 63.7152 -1.23527e-15)
(-18.5515 67.7423 0)
(-19.6799 71.379 -4.08175e-15)
(-21.2773 74.5482 4.02157e-15)
(-23.4427 77.3004 -5.50696e-15)
(-26.2844 79.7254 0)
(-29.6939 81.7777 7.7539e-16)
(-33.4338 84.2499 5.8141e-16)
(-36.8951 86.0419 1.34177e-14)
(-39.2675 86.3846 -3.13438e-14)
(-38.9979 86.6647 1.59072e-14)
(-37.6226 87.6573 -1.4963e-14)
(-36.2631 88.0721 -1.36112e-14)
(-9.42781 36.3303 0)
(-15.5006 39.1474 -5.53932e-18)
(-15.418 41.9083 -7.35367e-16)
(-16.4932 45.4662 -1.06591e-16)
(-17.4479 49.7175 0)
(-18.5756 54.189 0)
(-19.6636 58.3421 -5.09536e-15)
(-21.0439 62.3361 1.65044e-15)
(-22.5706 66.452 -8.74304e-15)
(-24.3832 70.3049 -9.03707e-16)
(-26.7292 73.8148 1.10527e-14)
(-29.683 77.0569 -6.29903e-15)
(-33.3345 79.9359 5.36899e-16)
(-37.5711 81.3119 2.13852e-15)
(-41.4496 83.0809 -1.46149e-14)
(-43.2191 85.3571 0)
(-43.2805 86.0424 -1.47092e-14)
(-42.1313 86.0977 5.25006e-14)
(-40.7006 85.7435 -2.30843e-14)
(-39.3634 85.455 1.18442e-14)
(-10.8652 35.9809 7.98363e-17)
(-17.1787 38.4925 3.94728e-16)
(-17.2766 41.0706 7.25949e-16)
(-18.4839 44.3741 4.23974e-16)
(-19.531 48.4727 7.45647e-16)
(-20.8681 53.0159 0)
(-22.4979 57.3853 1.39726e-15)
(-23.9385 61.213 2.18941e-15)
(-26.0335 65.498 -6.44556e-15)
(-28.3643 69.6384 1.20137e-14)
(-31.2075 73.3532 8.59211e-15)
(-34.6924 76.7377 -8.40388e-15)
(-39.0908 81.2784 1.81148e-14)
(-43.5132 85.1249 9.871e-15)
(-46.7163 86.5438 9.87099e-15)
(-48.1125 86.0935 1.23043e-15)
(-47.5804 83.9966 -9.21022e-15)
(-45.5014 82.6289 6.01244e-16)
(-43.3708 82.4454 -2.15847e-14)
(-41.6652 82.4861 -1.18744e-14)
(-12.3514 35.6593 0)
(-18.9596 37.834 -3.09669e-16)
(-19.3702 40.1699 2.96869e-16)
(-20.7358 43.1576 -7.20002e-16)
(-21.8395 47.0074 1.89843e-15)
(-23.2125 51.535 -1.25878e-15)
(-24.9804 56.096 0)
(-26.601 59.8785 0)
(-28.9362 64.3018 6.77691e-15)
(-31.7614 68.913 0)
(-35.5594 73.4691 1.07575e-15)
(-40.3052 78.3999 -1.41474e-14)
(-44.8362 82.5686 7.5459e-15)
(-48.5569 84.5181 -6.69116e-15)
(-50.6165 85.3794 0)
(-50.3479 84.3173 8.27726e-15)
(-48.1951 81.3935 0)
(-45.8174 79.7894 -1.10239e-14)
(-44.3282 79.7466 -2.2484e-14)
(-43.1188 79.9321 2.05964e-14)
(-13.8885 35.394 -6.80225e-17)
(-20.8547 37.2174 -4.62391e-16)
(-21.6133 39.2639 0)
(-23.186 41.8834 -1.2396e-15)
(-24.5207 45.4771 -8.20727e-16)
(-26.0814 49.8822 -1.28922e-15)
(-28.0243 54.4632 0)
(-30.0587 58.288 0)
(-32.5461 62.6198 8.31884e-15)
(-35.9875 68.3873 0)
(-40.0888 73.3957 7.82824e-15)
(-44.2269 78.4045 -6.10761e-15)
(-48.004 82.7629 -5.81016e-15)
(-51.0046 85.1969 1.02594e-15)
(-52.1581 84.7435 -2.17599e-14)
(-51.4919 83.0089 7.54448e-15)
(-48.917 79.293 -1.10341e-14)
(-46.9595 77.7406 0)
(-45.4193 77.7131 -1.08534e-14)
(-44.2421 77.9401 3.21245e-14)
(-15.4732 35.2075 -1.10988e-16)
(-22.8375 36.6778 8.92209e-16)
(-23.9393 38.3513 -3.10761e-16)
(-25.7183 40.5662 1.18942e-15)
(-27.2666 43.8852 1.78609e-15)
(-29.0641 48.3754 -3.35866e-15)
(-31.2944 53.3504 9.01038e-15)
(-33.594 57.5829 -1.28409e-14)
(-36.2757 61.6294 -3.39898e-16)
(-39.6443 67.7936 -7.56113e-15)
(-43.5004 73.2394 1.9344e-14)
(-47.4479 78.3885 -1.27484e-14)
(-50.8331 82.6095 5.75322e-15)
(-52.9734 84.6408 0)
(-53.3622 84.5163 0)
(-52.1132 81.8789 0)
(-48.8113 77.7208 1.39033e-14)
(-46.9898 75.9618 9.64466e-16)
(-45.3972 75.9847 -1.19595e-14)
(-44.5391 76.3989 -1.11372e-14)
(-17.0988 35.1236 -4.27284e-17)
(-24.8658 36.2405 -1.01552e-15)
(-26.2983 37.5031 -5.32188e-16)
(-28.2786 39.2138 5.10176e-16)
(-29.9837 42.0273 1.09467e-15)
(-31.7265 46.2072 -1.20774e-15)
(-33.6952 51.2318 0)
(-35.8643 55.83 0)
(-38.8851 60.1873 0)
(-42.5684 66.5951 0)
(-46.2442 72.3937 -1.19095e-14)
(-49.6755 77.7447 1.85165e-14)
(-52.0117 82.0684 -5.99625e-15)
(-53.1997 84.4267 0)
(-52.7776 84.2185 0)
(-50.8029 81.5437 0)
(-47.3029 77.8087 3.69155e-14)
(-46.1089 75.4163 1.0423e-15)
(-44.7171 75.0943 6.83617e-16)
(-44.4868 75.6638 0)
(-18.7786 35.0864 0)
(-26.886 35.9141 2.14996e-15)
(-28.6068 36.8102 -5.61608e-16)
(-30.8315 38.0184 3.08925e-15)
(-32.7979 40.0416 -3.60648e-15)
(-34.6164 43.382 0)
(-36.3925 47.7333 0)
(-38.5142 52.3518 1.31188e-14)
(-41.5318 57.5079 0)
(-44.9525 64.4522 0)
(-48.2227 70.7949 -1.34033e-14)
(-50.6645 76.5016 2.11683e-14)
(-52.3265 81.0832 -7.0475e-15)
(-52.2214 83.8371 -3.65399e-14)
(-50.682 84.5316 -1.72533e-15)
(-48.1599 82.6143 -2.19508e-15)
(-44.1091 80.8067 1.20308e-13)
(-43.6518 77.0554 3.73584e-14)
(-43.1984 76.0624 0)
(-44.2041 76.4641 -2.87382e-14)
(-20.523 35.0733 0)
(-28.7819 35.6919 -1.15893e-15)
(-30.6833 36.4936 2.03196e-15)
(-33.2048 37.2836 -1.81354e-15)
(-35.5872 38.697 2.7667e-15)
(-37.8463 41.0496 0)
(-39.9592 44.408 0)
(-42.3061 48.6606 -2.23749e-17)
(-44.9313 54.1658 -8.01748e-15)
(-47.1652 61.3398 6.29668e-15)
(-49.4671 68.0995 1.44455e-14)
(-51.2491 74.2569 -1.65786e-14)
(-51.5581 79.2263 -3.87915e-14)
(-50.2068 82.4813 3.60465e-14)
(-48.1445 83.8728 1.84374e-14)
(-46.0376 83.3479 -2.21455e-14)
(-43.7672 81.9251 -8.79747e-16)
(-42.5664 78.9775 -2.22917e-14)
(-43.3693 77.6715 -2.31059e-14)
(-45.9931 77.9246 4.77848e-14)
(-22.2828 35.0195 0)
(-30.3568 35.4758 1.29335e-15)
(-32.1705 36.6184 -2.21065e-15)
(-34.926 37.4539 2.22096e-15)
(-37.7672 38.5036 8.14661e-16)
(-40.5622 40.2074 0)
(-43.1711 42.6381 0)
(-45.6114 46.0452 -5.34354e-15)
(-47.7298 50.7231 -1.49101e-15)
(-48.9975 57.0079 6.33734e-15)
(-50.2917 63.7795 0)
(-50.8449 70.1964 0)
(-49.8259 75.1669 1.81426e-14)
(-47.7144 78.8877 -9.72131e-16)
(-45.6988 81.2522 1.83331e-14)
(-44.0437 82.1347 -1.86664e-14)
(-43.1264 81.7018 0)
(-43.6127 79.6687 0)
(-46.259 78.4623 0)
(-50.3681 78.5339 0)
(-24.1941 34.7191 2.93317e-16)
(-31.3754 35.0864 -2.87481e-15)
(-32.6799 36.9573 3.71751e-15)
(-35.3361 38.2938 -4.40416e-15)
(-38.4881 39.497 -2.66191e-15)
(-41.8141 40.9341 8.19588e-15)
(-45.0581 42.8021 0)
(-47.8698 45.1632 -8.92176e-15)
(-50.2814 48.6016 -6.65607e-15)
(-51.3044 53.2197 6.61055e-15)
(-51.9292 58.9091 3.05476e-14)
(-51.2262 65.1174 -3.69351e-14)
(-49.0158 70.3238 4.4082e-14)
(-46.9034 74.4754 -1.89443e-14)
(-45.5271 77.2018 1.89813e-14)
(-44.9984 78.4494 -3.651e-14)
(-45.5593 78.5578 1.98116e-14)
(-48.7513 77.7567 -1.92923e-14)
(-53.6062 77.0539 0)
(-59.6679 77.1159 0)
(-26.85 33.7148 0)
(-32.3046 34.3135 2.39193e-15)
(-33.8676 36.6421 -4.0558e-15)
(-36.4747 38.7349 0)
(-39.2546 40.6581 0)
(-42.0356 42.4971 -8.80879e-15)
(-44.7125 44.3165 -5.8576e-15)
(-47.1772 46.2273 5.73951e-15)
(-49.1692 48.4496 0)
(-50.3661 51.1004 0)
(-50.9762 54.3002 -2.18666e-14)
(-51.2451 57.9489 0)
(-51.3955 61.6549 -3.42134e-14)
(-51.5597 65.1171 -3.84893e-14)
(-52.4468 68.1077 7.25051e-14)
(-54.476 70.7972 4.03752e-14)
(-57.5353 73.4138 0)
(-61.406 76.1734 4.92441e-14)
(-64.8032 78.3607 5.42265e-14)
(-66.5782 77.4033 -5.68963e-14)
(8.07922 88.241 -7.71536e-16)
(6.96637 89.9072 -3.9408e-17)
(5.54762 92.1334 7.9393e-16)
(4.00014 94.5872 -8.81498e-16)
(2.661 96.8323 8.52606e-16)
(1.66759 98.4744 -9.19726e-16)
(0.934113 99.514 8.41595e-16)
(0.395435 100.495 8.54992e-16)
(-0.0446799 101.872 -7.69077e-16)
(-0.443634 103.701 -1.50235e-15)
(-0.796106 105.908 -2.90843e-15)
(-1.1108 108.449 1.34008e-15)
(-1.36774 111.265 0)
(-1.60002 114.358 0)
(-1.82704 117.672 -2.47011e-15)
(-1.83638 121.055 0)
(-2.64765 125.406 0)
(-0.635263 127.425 1.08445e-15)
(-7.94143 137.902 -1.04803e-15)
(12.1612 127.108 3.51727e-15)
(3.84728 89.5185 -1.59997e-15)
(2.4042 91.442 -9.20773e-16)
(0.766328 93.736 -4.57048e-17)
(-0.813956 96.0152 -1.7307e-15)
(-1.98644 97.8622 -3.74787e-15)
(-2.72763 99.0706 3.50678e-15)
(-3.23745 99.8579 1.19829e-16)
(-3.63568 100.77 -3.24074e-15)
(-4.02029 102.121 -3.16239e-15)
(-4.41688 103.906 -1.58417e-15)
(-4.80182 106.056 4.23289e-15)
(-5.18039 108.541 2.66986e-15)
(-5.51518 111.308 7.86794e-15)
(-5.85576 114.358 0)
(-6.18327 117.641 7.41145e-15)
(-6.33663 121.001 -4.876e-15)
(-7.27175 125.301 9.02366e-15)
(-5.37564 127.348 4.33554e-15)
(-13.0015 137.491 -4.1835e-15)
(7.2646 127.599 -1.28497e-18)
(-1.14456 90.8799 -3.2191e-15)
(-2.84606 92.9274 3.12075e-15)
(-4.56536 95.1195 8.75332e-15)
(-5.99104 97.0304 -1.66896e-15)
(-6.83311 98.3663 0)
(-7.23323 99.1704 -1.34479e-16)
(-7.49171 99.8095 3.47335e-15)
(-7.75074 100.733 0)
(-8.07915 102.105 3.19333e-15)
(-8.46292 103.877 -6.20499e-15)
(-8.86442 105.994 5.59273e-15)
(-9.29029 108.44 -5.51443e-15)
(-9.69094 111.171 1.36978e-16)
(-10.1323 114.179 -4.97762e-15)
(-10.5502 117.437 -4.9458e-15)
(-10.8448 120.767 0)
(-11.8988 125.026 -4.57821e-15)
(-10.1087 127.098 0)
(-18.0777 136.913 -8.56008e-15)
(2.47718 127.881 0)
(-6.92773 92.2137 1.47422e-16)
(-8.7325 94.1922 -3.30154e-15)
(-10.2806 96.0374 -7.42563e-15)
(-11.2757 97.3896 0)
(-11.6153 98.2053 -8.26228e-15)
(-11.6494 98.7582 3.57866e-15)
(-11.7039 99.4048 3.64409e-15)
(-11.869 100.421 6.79806e-15)
(-12.1605 101.846 -6.39837e-15)
(-12.5355 103.626 6.23113e-15)
(-12.9534 105.729 3.18223e-16)
(-13.4243 108.146 -5.36225e-15)
(-13.8867 110.851 0)
(-14.4223 113.818 1.02266e-14)
(-14.9235 117.058 -1.01614e-14)
(-15.3579 120.348 -2.59688e-16)
(-16.5219 124.577 -9.42778e-15)
(-14.8378 126.668 8.41355e-15)
(-23.1431 136.141 9.15087e-15)
(-2.28644 127.987 3.07679e-16)
(-13.5251 93.3604 1.44999e-14)
(-15.0599 94.9629 -1.15089e-14)
(-16.0587 96.1966 3.73065e-15)
(-16.3687 96.913 0)
(-16.1633 97.3659 0)
(-15.9083 97.8923 -8.26088e-15)
(-15.8397 98.6837 1.4566e-14)
(-15.958 99.8427 -1.39985e-14)
(-16.2316 101.343 5.90348e-15)
(-16.6055 103.149 1.18394e-14)
(-17.0436 105.255 1.1887e-14)
(-17.559 107.656 -1.10611e-14)
(-18.0819 110.345 1.03266e-14)
(-18.7083 113.274 -2.0118e-17)
(-19.2912 116.506 1.01683e-14)
(-19.8623 119.746 2.74542e-16)
(-21.1272 123.959 -9.4322e-15)
(-19.552 126.063 1.66611e-14)
(-28.1704 135.175 -1.70702e-14)
(-7.03934 127.92 -1.41287e-14)
(-20.5029 93.9126 4.58e-15)
(-21.2628 94.8137 -3.71545e-15)
(-21.3945 95.3201 3.51023e-16)
(-20.9684 95.5805 0)
(-20.3699 95.9841 0)
(-19.9795 96.6958 -1.70265e-14)
(-19.8789 97.7048 1.45926e-14)
(-19.99 99.0189 2.83e-14)
(-20.2617 100.6 -1.91726e-14)
(-20.6445 102.445 -1.2602e-14)
(-21.1102 104.567 2.32206e-14)
(-21.6736 106.962 -4.43114e-14)
(-22.2599 109.648 1.00397e-14)
(-22.9744 112.541 9.94933e-15)
(-23.6409 115.778 1.0178e-14)
(-24.3445 118.955 -9.21836e-15)
(-25.708 123.172 0)
(-24.2463 125.272 1.73204e-14)
(-33.1561 134.013 1.82555e-14)
(-11.7821 127.682 1.47782e-14)
(-26.9132 93.2835 -1.08811e-14)
(-26.5926 93.301 0)
(-25.913 93.3593 2.34532e-14)
(-25.0152 93.6173 -2.03583e-14)
(-24.2811 94.2716 0)
(-23.8869 95.2706 0)
(-23.8128 96.5041 -7.65722e-15)
(-23.9396 97.9654 -2.82275e-14)
(-24.2235 99.6311 1.31314e-14)
(-24.6277 101.525 0)
(-25.1308 103.673 0)
(-25.7472 106.072 1.11178e-14)
(-26.403 108.761 -1.06677e-14)
(-27.2037 111.618 -1.02705e-14)
(-27.9604 114.872 -2.03783e-14)
(-28.7907 117.974 1.84337e-14)
(-30.2564 122.213 5.6878e-16)
(-28.9112 124.292 5.06808e-16)
(-38.0863 132.657 -1.70335e-14)
(-16.512 127.274 -1.42008e-14)
(-31.7692 90.2327 -1.43859e-14)
(-30.698 90.4941 -2.78101e-14)
(-29.6363 90.9162 -1.66032e-15)
(-28.6306 91.433 3.20279e-14)
(-27.963 92.3906 0)
(-27.6398 93.6748 1.71947e-14)
(-27.6198 95.1118 -1.596e-14)
(-27.7766 96.7117 1.34305e-14)
(-28.089 98.4661 1.28465e-14)
(-28.5308 100.416 -1.27404e-14)
(-29.085 102.598 1.13723e-14)
(-29.763 105.004 0)
(-30.4983 107.702 -2.19439e-14)
(-31.3842 110.521 4.10796e-14)
(-32.2423 113.799 -3.91066e-14)
(-33.1896 116.809 0)
(-34.7676 121.091 2.02286e-17)
(-33.5381 123.125 -1.69049e-14)
(-42.9501 131.111 3.48331e-14)
(-21.2281 126.698 -4.20713e-14)
(-35.0757 88.0989 -9.16051e-16)
(-34.0143 88.175 3.53231e-14)
(-32.9012 88.5262 -2.12442e-14)
(-31.9439 89.2606 -1.01087e-14)
(-31.4162 90.4577 1.88269e-14)
(-31.2049 91.947 -3.48645e-14)
(-31.26 93.5544 1.52118e-14)
(-31.4677 95.2847 0)
(-31.8328 97.1273 3.69553e-16)
(-32.3339 99.135 -1.21035e-14)
(-32.956 101.352 -2.41266e-14)
(-33.7065 103.766 2.16917e-14)
(-34.5339 106.474 -2.19797e-14)
(-35.5036 109.253 2.05651e-14)
(-36.4797 112.561 2.09954e-14)
(-37.5298 115.462 -1.84171e-14)
(-39.2373 119.808 5.56632e-14)
(-38.1175 121.773 -1.63688e-14)
(-47.7348 129.378 -3.40162e-14)
(-25.9323 125.958 2.46521e-17)
(-38.1365 85.3503 -1.09741e-14)
(-36.9548 85.5105 4.29758e-14)
(-35.8154 86.0304 1.14148e-15)
(-34.9818 87.0321 -3.81233e-14)
(-34.6251 88.4639 -1.88943e-14)
(-34.546 90.127 3.32118e-14)
(-34.7019 91.863 0)
(-34.9969 93.7068 1.48756e-14)
(-35.4438 95.6316 -2.6419e-14)
(-36.0266 97.6937 0)
(-36.7333 99.9446 -2.35344e-14)
(-37.5667 102.366 2.23422e-14)
(-38.4991 105.084 0)
(-39.5502 107.821 4.11213e-14)
(-40.6653 111.16 -1.98716e-14)
(-41.7977 113.936 0)
(-43.6606 118.366 -5.57279e-14)
(-42.6365 120.233 5.0908e-14)
(-52.4254 127.462 3.48371e-14)
(-30.6282 125.053 5.73496e-14)
(-40.3539 82.6755 2.049e-14)
(-39.2443 83.0061 1.0755e-14)
(-38.2766 83.6657 -1.87435e-14)
(-37.6933 84.8835 -1.87745e-14)
(-37.5678 86.4651 3.4729e-14)
(-37.6593 88.2585 -3.23543e-14)
(-37.946 90.1021 1.54404e-14)
(-38.3644 92.0364 -2.96359e-14)
(-38.921 94.0269 3.95431e-14)
(-39.6062 96.1328 2.57346e-14)
(-40.4143 98.4093 -2.29202e-14)
(-41.3414 100.831 6.08296e-16)
(-42.3914 103.55 -2.08445e-14)
(-43.52 106.24 -6.22687e-14)
(-44.7971 109.6 3.98246e-14)
(-45.9838 112.243 1.07603e-15)
(-48.0372 116.768 3.73426e-14)
(-47.0845 118.51 0)
(-57.0144 125.372 -3.39784e-14)
(-35.3283 123.979 2.87681e-14)
(-42.1451 80.2788 0)
(-41.2952 80.6569 0)
(-40.5169 81.4287 -1.90863e-14)
(-40.1789 82.8381 -8.81073e-16)
(-40.2733 84.513 5.10198e-14)
(-40.5595 86.3981 -1.57249e-14)
(-41.007 88.3183 1.60509e-14)
(-41.5811 90.3153 -2.78516e-14)
(-42.2687 92.3453 0)
(-43.0742 94.4727 2.50685e-14)
(-43.9984 96.7583 2.3594e-14)
(-45.0289 99.1689 0)
(-46.2084 101.877 -2.20457e-14)
(-47.4097 104.516 4.05591e-14)
(-48.8723 107.883 4.04132e-14)
(-50.0778 110.394 -1.72794e-14)
(-52.3687 115.003 -7.27143e-14)
(-51.4523 116.607 0)
(-61.4939 123.125 0)
(-40.0367 122.725 -8.97269e-18)
(-43.5193 78.3285 -1.99438e-14)
(-43.0153 78.6865 0)
(-42.4664 79.4445 3.26541e-16)
(-42.4336 80.9292 1.85344e-14)
(-42.7645 82.6346 -3.31568e-14)
(-43.2821 84.5761 0)
(-43.9163 86.5377 1.51415e-14)
(-44.6702 88.5597 0)
(-45.503 90.6013 0)
(-46.4402 92.7267 -2.50435e-14)
(-47.4895 95.0025 0)
(-48.6278 97.3882 2.29953e-14)
(-49.9451 100.072 -6.43797e-14)
(-51.2143 102.659 4.11224e-14)
(-52.884 106.012 -1.93777e-14)
(-54.0692 108.407 7.55263e-14)
(-56.6562 113.061 0)
(-55.7302 114.519 -3.35641e-14)
(-65.8631 120.737 0)
(-44.7804 121.259 5.79054e-14)
(-44.5193 76.9537 0)
(-44.5838 77.2037 3.2423e-16)
(-44.2341 77.7603 6.31734e-16)
(-44.5429 79.2037 -5.2931e-14)
(-45.1106 80.8862 1.64117e-14)
(-45.8914 82.8258 -1.60145e-14)
(-46.7229 84.7856 -1.50592e-14)
(-47.6646 86.7921 2.91415e-14)
(-48.6478 88.8142 -2.59657e-14)
(-49.7213 90.9112 -5.06824e-14)
(-50.9003 93.1562 2.29348e-14)
(-52.147 95.5023 2.23756e-14)
(-53.6056 98.1436 2.14651e-14)
(-54.9359 100.679 2.05582e-14)
(-56.8285 103.988 0)
(-57.9557 106.295 1.06782e-15)
(-60.9022 110.959 -7.29512e-14)
(-59.9088 112.248 -8.10106e-16)
(-70.1363 118.25 3.30413e-14)
(-49.5786 119.528 -5.81017e-14)
(-45.4891 76.422 2.27081e-14)
(-46.1736 76.2889 2.02629e-14)
(-45.917 76.4323 1.87136e-14)
(-46.6107 77.7053 -1.86316e-14)
(-47.4017 79.3002 1.61369e-14)
(-48.4554 81.1638 3.28271e-14)
(-49.4752 83.0708 -1.43845e-14)
(-50.5969 85.017 -5.76546e-14)
(-51.7263 86.9866 -1.37793e-15)
(-52.932 89.0282 -1.33515e-15)
(-54.2384 91.2222 2.2911e-14)
(-55.5904 93.5154 -4.47249e-14)
(-57.1909 96.0964 0)
(-58.5767 98.5822 2.1704e-14)
(-60.7015 101.812 -7.99036e-14)
(-61.738 104.07 3.66216e-14)
(-65.1123 108.686 3.70889e-14)
(-63.9676 109.816 0)
(-74.3628 115.681 -3.39894e-14)
(-54.2649 117.587 0)
(-46.6252 77.0583 6.3846e-16)
(-48.0284 75.9613 5.11107e-16)
(-47.692 75.5085 1.9477e-14)
(-48.7658 76.4433 -5.57097e-14)
(-49.7261 77.87 5.08114e-14)
(-51.0288 79.5768 1.62066e-14)
(-52.2203 81.3818 -1.51714e-14)
(-53.5036 83.2254 2.76554e-14)
(-54.7634 85.114 2.5847e-14)
(-56.0887 87.0783 -1.7622e-17)
(-57.5149 89.2031 0)
(-58.9654 91.4314 -6.12891e-16)
(-60.704 93.9333 2.08856e-14)
(-62.1412 96.372 4.22738e-14)
(-64.4984 99.4802 2.25354e-15)
(-65.4193 101.736 -7.43113e-14)
(-69.2839 106.224 3.83029e-14)
(-67.875 107.259 -6.5624e-14)
(-78.5133 112.958 3.3851e-14)
(-59.0134 115.34 0)
(-49.2638 78.045 0)
(-50.8391 75.6579 -2.18622e-14)
(-49.9351 74.7407 -1.95488e-14)
(-51.2276 75.2429 0)
(-52.2328 76.4845 5.20239e-14)
(-53.6883 77.9929 -4.74466e-14)
(-55.0008 79.6719 -6.08915e-14)
(-56.4039 81.3902 -6.73068e-16)
(-57.7717 83.182 0)
(-59.2005 85.0552 -1.75145e-17)
(-60.7369 87.0968 2.35023e-14)
(-62.2783 89.2516 0)
(-64.1487 91.6567 4.41613e-14)
(-65.6362 94.053 -8.23309e-14)
(-68.2182 96.9929 3.89026e-14)
(-69.0139 99.2995 -1.88568e-17)
(-73.4168 103.552 -3.72871e-14)
(-71.6086 104.616 3.32207e-14)
(-82.6573 110.151 -3.51896e-14)
(-63.9552 112.562 5.56124e-14)
(-54.2174 77.9834 0)
(-54.5032 74.1966 0)
(-52.5885 73.5626 -3.88902e-14)
(-53.8993 73.7929 7.15655e-14)
(-54.8713 74.9838 -6.64053e-14)
(-56.3984 76.3287 1.58395e-14)
(-57.797 77.8984 5.96336e-14)
(-59.2925 79.4898 2.87443e-14)
(-60.7506 81.1805 -2.56672e-14)
(-62.2674 82.9554 2.47783e-14)
(-63.9036 84.902 -4.75874e-14)
(-65.5286 86.9774 2.17561e-14)
(-67.5238 89.2691 4.42035e-14)
(-69.0667 91.6294 4.35345e-14)
(-71.8621 94.3565 -3.89557e-14)
(-72.5512 96.7773 3.6727e-14)
(-77.5407 100.659 7.48052e-14)
(-75.1539 101.878 -3.22039e-14)
(-86.9432 107.298 0)
(-68.5827 109.42 0)
(-60.1499 75.6832 0)
(-57.7132 70.9147 2.21708e-14)
(-55.1233 71.8828 -1.84081e-14)
(-56.5414 72.0436 -3.59727e-14)
(-57.5281 73.3602 1.50421e-14)
(-59.1384 74.5701 3.0589e-14)
(-60.601 76.0441 5.17421e-18)
(-62.1641 77.5051 0)
(-63.6881 79.0919 0)
(-65.2725 80.7639 5.01483e-14)
(-66.9955 82.6053 1.25793e-15)
(-68.6948 84.5983 -4.41511e-14)
(-70.8025 86.7572 0)
(-72.4066 89.0916 -8.26561e-14)
(-75.3934 91.5683 4.12596e-14)
(-76.0333 94.1886 -1.12592e-13)
(-81.6338 97.4322 3.73684e-14)
(-78.522 99.2562 3.4139e-14)
(-91.4182 104.22 -6.85591e-14)
(-72.7565 105.859 5.48866e-14)
(-59.9375 72.397 -1.10377e-15)
(-59.3127 67.48 -2.05091e-14)
(-57.2985 70.0978 -1.78193e-14)
(-59.2032 70.0813 1.67746e-14)
(-60.2461 71.4706 3.23994e-14)
(-61.9588 72.4612 -2.94665e-14)
(-63.3824 73.8075 -2.86226e-14)
(-64.9496 75.1505 2.77501e-14)
(-66.4564 76.6389 -2.48544e-14)
(-68.0863 78.2624 -2.46322e-14)
(-69.8707 80.0236 4.56129e-14)
(-71.6494 81.9752 5.823e-16)
(-73.869 84.0083 -4.31091e-14)
(-75.55 86.3516 3.91702e-14)
(-78.677 88.5397 0)
(-79.3796 91.4967 3.72273e-14)
(-85.2912 93.8494 1.108e-15)
(-81.7769 96.9124 -3.16356e-14)
(-96.0838 100.618 0)
(-76.7624 101.579 -5.36608e-14)
(-57.357 73.5716 2.09936e-14)
(-60.8338 66.5114 -2.07031e-17)
(-59.0388 68.7259 1.59648e-14)
(-61.6261 68.4844 -3.02893e-14)
(-62.5487 69.8773 -4.55845e-16)
(-64.3608 70.8834 1.39305e-14)
(-65.6726 72.304 4.08174e-16)
(-67.1449 73.7315 1.88037e-17)
(-68.5505 75.3052 -2.28119e-14)
(-70.0983 76.9775 -2.13428e-14)
(-71.8326 78.7448 6.14717e-16)
(-73.6066 80.7072 -1.8872e-14)
(-75.8175 82.6474 0)
(-77.5721 85.0456 6.95168e-14)
(-80.6641 86.9897 0)
(-81.5171 90.2437 -3.23844e-14)
(-87.2797 91.8805 3.11964e-14)
(-83.9012 96.1096 2.81103e-14)
(-98.3115 97.9562 -4.39351e-16)
(-79.2651 100.25 3.16682e-16)
(-57.3965 72.9894 0)
(-61.328 66.3916 1.38767e-14)
(-59.3897 68.4191 0)
(-62.0852 68.2209 1.24412e-14)
(-62.9712 69.5438 0)
(-64.7899 70.5438 -2.25857e-14)
(-66.0756 71.9343 3.43433e-16)
(-67.5392 73.3591 -3.08853e-16)
(-68.9374 74.9265 1.90481e-14)
(-70.4867 76.6063 1.78735e-14)
(-72.2178 78.3755 -1.69833e-14)
(-73.9982 80.3489 3.16034e-14)
(-76.2006 82.2791 0)
(-77.9788 84.6944 -2.95979e-14)
(-81.0345 86.5922 4.66351e-16)
(-81.9583 89.9197 -3.396e-18)
(-87.6679 91.394 -4.06285e-16)
(-84.3936 95.8802 -2.43349e-14)
(-98.6772 97.2768 -2.16716e-14)
(-79.7836 99.9652 -1.74322e-14)
(-57.6262 72.1516 2.48832e-16)
(-61.8473 66.2459 -2.10341e-16)
(-59.7774 68.0304 0)
(-62.5714 67.911 1.28724e-14)
(-63.4182 69.1606 1.14435e-14)
(-65.2401 70.1639 2.23379e-14)
(-66.4983 71.5337 6.74998e-16)
(-67.9506 72.9639 1.61016e-17)
(-69.3397 74.5302 -2.9317e-16)
(-70.888 76.2206 -3.61637e-14)
(-72.614 77.9948 -2.04396e-17)
(-74.3988 79.9819 -3.19104e-14)
(-76.5891 81.9072 2.29754e-16)
(-78.3933 84.3419 -4.75678e-16)
(-81.4067 86.198 -2.85689e-14)
(-82.4122 89.5958 2.79493e-14)
(-88.0148 90.919 4.31439e-16)
(-84.9068 95.6511 -3.62967e-16)
(-98.9943 96.6018 2.19614e-14)
(-80.3151 99.7358 3.50025e-14)
(-57.9666 71.2874 0)
(-62.3718 66.0637 0)
(-60.2165 67.6047 1.28787e-14)
(-63.0878 67.5709 -1.24963e-14)
(-63.8959 68.7514 -1.14547e-14)
(-65.711 69.7646 -3.35265e-16)
(-66.9374 71.1191 -2.13645e-14)
(-68.3756 72.5584 -6.42079e-16)
(-69.7539 74.1258 2.9504e-16)
(-71.2993 75.8275 1.82064e-14)
(-73.0185 77.6079 3.41603e-14)
(-74.8066 79.6081 -1.80886e-17)
(-76.9817 81.5314 1.51293e-14)
(-78.8114 83.9841 0)
(-81.7816 85.8028 2.85333e-14)
(-82.8707 89.2655 4.24625e-16)
(-88.3548 90.4536 2.66721e-14)
(-85.4217 95.4204 2.41645e-14)
(-99.3013 95.9457 3.58759e-16)
(-80.8241 99.511 -1.75527e-14)
(-58.3434 70.44 1.47859e-14)
(-62.8923 65.8579 -1.16517e-17)
(-60.6919 67.1558 2.04877e-16)
(-63.6207 67.2125 -4.00147e-16)
(-64.3886 68.3267 -1.15235e-14)
(-66.1867 69.3538 -1.1439e-14)
(-67.3792 70.6956 2.14187e-14)
(-68.8022 72.1449 3.14264e-16)
(-70.17 73.7137 1.94939e-14)
(-71.7126 75.4262 0)
(-73.4248 77.2134 -1.72013e-14)
(-75.2163 79.2263 3.22072e-14)
(-77.3749 81.1504 -1.5124e-14)
(-79.23 83.6195 0)
(-82.1543 85.406 -4.67079e-16)
(-83.3318 88.9246 -2.76536e-14)
(-88.6854 89.9933 -2.66442e-14)
(-85.938 95.1868 -2.38313e-14)
(-99.5996 95.3 -3.34786e-16)
(-81.3148 99.2876 2.75919e-16)
(-58.7332 69.621 -2.9751e-14)
(-63.4097 65.632 1.39761e-14)
(-61.1962 66.6899 8.25208e-19)
(-64.1652 66.8372 1.91017e-16)
(-64.8903 67.8891 2.38412e-14)
(-66.6626 68.9338 1.11207e-14)
(-67.8208 70.265 -2.11733e-14)
(-69.2282 71.725 -3.15267e-16)
(-70.5863 73.2955 -1.95472e-14)
(-72.1265 75.0184 -2.95653e-16)
(-73.8316 76.8125 2.63503e-16)
(-75.6269 78.8374 -1.6215e-14)
(-77.768 80.7645 -1.49039e-14)
(-79.6488 83.2484 -2.25923e-16)
(-82.5247 85.0083 2.90387e-14)
(-83.7944 88.5764 2.80983e-14)
(-89.0066 89.5389 2.70684e-14)
(-86.4596 94.9418 -3.66312e-16)
(-99.8885 94.6645 -2.21163e-14)
(-81.7909 99.0678 2.63323e-16)
(-59.1319 68.8328 1.4496e-14)
(-63.9274 65.3887 -1.40422e-14)
(-61.7254 66.2101 -2.57752e-14)
(-64.7177 66.4464 0)
(-65.3972 67.4411 1.20804e-17)
(-67.136 68.5061 -3.55551e-16)
(-68.2605 69.8287 2.22117e-14)
(-69.6521 71.2997 3.32433e-16)
(-71.0015 72.8722 -2.987e-16)
(-72.5397 74.605 0)
(-74.2379 76.4059 0)
(-76.0372 78.4418 1.63363e-14)
(-78.1605 80.3738 1.51399e-14)
(-80.0671 82.871 2.98028e-14)
(-82.8929 84.6098 -5.85362e-14)
(-84.2575 88.22 4.26597e-16)
(-89.3197 89.0872 -2.66067e-14)
(-86.988 94.686 0)
(-100.168 94.0339 1.02733e-17)
(-82.254 98.8528 -1.78116e-14)
(-59.5422 68.0738 1.4402e-14)
(-64.4483 65.1299 1.45585e-14)
(-62.2763 65.719 1.28952e-14)
(-65.2737 66.0425 1.26402e-14)
(-65.9057 66.9847 -2.43605e-14)
(-67.6046 68.0722 -1.08085e-14)
(-68.697 69.3877 1.68868e-17)
(-70.0731 70.8697 -2.11096e-14)
(-71.4146 72.4445 0)
(-72.9514 74.187 1.85887e-14)
(-74.643 75.9946 -2.80574e-16)
(-76.4464 78.0404 -1.58935e-14)
(-78.552 79.9787 -2.30479e-16)
(-80.4846 82.4874 2.97805e-17)
(-83.2588 84.2107 2.90279e-14)
(-84.7206 87.8554 0)
(-89.6255 88.6384 0)
(-87.5232 94.4194 -2.4502e-14)
(-100.439 93.4076 9.79579e-18)
(-82.7052 98.6434 -3.21366e-17)
(-59.9659 67.3394 -2.90553e-14)
(-64.9742 64.8556 -1.43956e-14)
(-62.8456 65.2197 -1.29292e-14)
(-65.8285 65.6282 -1.2668e-14)
(-66.4123 66.5223 2.40324e-14)
(-68.0662 67.6337 0)
(-69.1292 68.9431 0)
(-70.4901 70.436 -1.77483e-17)
(-71.825 72.0135 0)
(-73.3607 73.7652 -1.86169e-14)
(-75.0461 75.5793 -1.72746e-14)
(-76.8537 77.6339 -1.67475e-14)
(-78.9421 79.5796 -1.54122e-14)
(-80.9009 82.0979 -5.94548e-14)
(-83.6223 83.8112 0)
(-85.1841 87.4831 0)
(-89.9239 88.1926 0)
(-88.0654 94.142 2.45533e-14)
(-100.7 92.7841 4.31324e-14)
(-83.145 98.4406 1.79022e-14)
(-60.4017 66.6407 1.44288e-14)
(-65.5057 64.5697 0)
(-63.4297 64.7139 1.29357e-14)
(-66.3773 65.2065 4.06019e-16)
(-66.9138 66.056 -1.24013e-14)
(-68.5192 67.1919 0)
(-69.5561 68.4961 0)
(-70.9026 69.9993 2.07983e-14)
(-72.2317 71.5799 3.16033e-16)
(-73.7668 73.3403 -5.83174e-16)
(-75.4464 75.1608 1.78525e-14)
(-77.2585 77.223 1.65389e-14)
(-79.3304 79.177 1.51594e-14)
(-81.3154 81.703 2.93698e-14)
(-83.9834 83.4116 -2.57272e-17)
(-85.6462 87.1049 4.28261e-16)
(-90.2159 87.7509 0)
(-88.6146 93.8536 0)
(-100.95 92.1612 -2.1503e-14)
(-83.5726 98.2465 0)
(-60.8496 65.9727 1.44018e-14)
(-66.0425 64.2728 0)
(-64.0245 64.2036 1.29737e-14)