/*--------------------------------*- C++ -*----------------------------------*\
  =========                 |
  \\      /  F ield         | OpenFOAM: The Open Source CFD Toolbox
   \\    /   O peration     | Website:  https://openfoam.org
    \\  /    A nd           | Version:  10
     \\/     M anipulation  |
\*---------------------------------------------------------------------------*/
FoamFile
{
    format      ascii;
    class       volVectorField;
    location    "1000";
    object      U;
}
// * * * * * * * * * * * * * * * * * * * * * * * * * * * * * * * * * * * * * //

dimensions      [0 1 -1 0 0 0 0];

internalField   nonuniform List<vector> 
420
(
(0.318771 8.68404 7.37075e-18)
(-0.76528 11.0886 -5.81673e-17)
(-0.363475 12.6558 -2.68902e-16)
(-0.311816 14.0007 7.50369e-17)
(-0.319654 15.1777 -5.04384e-16)
(-0.383821 16.2126 0)
(-0.487438 17.1199 0)
(-0.598223 17.7641 4.81344e-16)
(-0.712089 18.0311 -5.1322e-16)
(-0.802502 17.9345 0)
(-0.272536 8.51781 2.7757e-17)
(-1.39042 10.8538 -1.43275e-16)
(-1.23015 12.4746 8.19811e-16)
(-1.26895 13.8582 -1.13175e-15)
(-1.36449 15.0907 3.68894e-16)
(-1.51569 16.202 8.74734e-18)
(-1.68087 17.1605 3.14088e-15)
(-1.79688 17.8158 -7.46166e-16)
(-1.91277 18.0422 1.15601e-15)
(-2.0134 17.8971 0)
(-0.868455 8.50707 9.08355e-17)
(-2.11196 10.6502 -6.72608e-16)
(-2.11956 12.2636 7.82136e-16)
(-2.27036 13.6634 1.27575e-15)
(-2.45832 14.934 -8.59673e-16)
(-2.6825 16.0904 4.04325e-15)
(-2.89289 17.0651 1.8315e-15)
(-3.01974 17.7144 5.13284e-15)
(-3.13735 17.9381 -1.83149e-15)
(-3.24838 17.786 -3.89367e-15)
(-1.48464 8.42163 -3.12544e-17)
(-2.87598 10.3976 5.87934e-16)
(-3.0067 11.9715 -9.94859e-16)
(-3.25232 13.3658 8.55558e-16)
(-3.51728 14.6578 -1.6928e-15)
(-3.80241 15.8434 1.76424e-15)
(-4.05975 16.8462 -1.02135e-14)
(-4.22365 17.5088 0)
(-4.36296 17.7512 -4.56614e-15)
(-4.49303 17.605 3.87052e-15)
(-2.10223 8.29416 0)
(-3.6395 10.0895 3.97289e-16)
(-3.86907 11.6069 -3.88585e-16)
(-4.19318 12.9801 0)
(-4.52356 14.28 -2.79112e-16)
(-4.86785 15.4904 -3.07212e-16)
(-5.18055 16.5324 3.37817e-15)
(-5.4004 17.2301 -4.58472e-15)
(-5.57612 17.4981 0)
(-5.73074 17.3583 -1.66014e-14)
(-2.71847 8.12988 7.06533e-18)
(-4.38697 9.72134 0)
(-4.69638 11.1676 0)
(-5.08462 12.5054 1.48111e-15)
(-5.47437 13.8014 -2.27754e-15)
(-5.87541 15.0319 2.57299e-15)
(-6.24556 16.1201 6.5955e-16)
(-6.52697 16.8805 9.71788e-15)
(-6.75206 17.1972 -1.41188e-14)
(-6.9464 17.0686 8.49118e-15)
(-3.33986 7.9335 0)
(-5.11214 9.29091 -3.87656e-16)
(-5.47969 10.6514 -2.27828e-15)
(-5.92011 11.9407 -8.9492e-16)
(-6.36494 13.2167 -3.98521e-15)
(-6.81913 14.458 2.52868e-15)
(-7.24854 15.5899 -6.1431e-15)
(-7.60646 16.441 7.59264e-16)
(-7.91494 16.8537 -4.08702e-15)
(-8.1741 16.7723 -1.31007e-14)
(-3.98487 7.70651 -8.94047e-18)
(-5.803 8.79622 3.848e-16)
(-6.20883 10.0623 2.97958e-15)
(-6.69846 11.289 5.4021e-16)
(-7.20246 12.52 2.34519e-15)
(-7.71218 13.7433 0)
(-8.20462 14.903 6.05435e-15)
(-8.66317 15.8511 7.3925e-15)
(-9.10916 16.4523 9.98606e-15)
(-9.51093 16.463 9.41145e-15)
(-4.68547 7.43736 -6.22685e-18)
(-6.43599 8.26375 3.87811e-16)
(-6.88915 9.44478 -4.14124e-16)
(-7.4606 10.6009 -1.87928e-15)
(-8.06049 11.7603 5.98364e-15)
(-8.66105 12.9303 8.01318e-15)
(-9.2504 14.094 -2.74735e-15)
(-9.83896 15.1608 0)
(-10.4523 15.999 0)
(-10.9988 16.1344 -9.54257e-15)
(-5.50594 7.04612 -2.39586e-17)
(-6.90568 7.74722 7.28377e-16)
(-7.49059 8.76381 0)
(-8.19626 9.77651 0)
(-8.91041 10.7746 -3.37127e-15)
(-9.60268 11.7642 -2.39149e-17)
(-10.2685 12.739 5.76749e-15)
(-10.9164 13.6899 -1.22321e-14)
(-11.6015 14.586 1.43338e-14)
(-12.3559 15.0889 1.22337e-15)
(-0.834048 17.5561 0)
(-0.792359 16.9575 0)
(-0.726782 16.2269 0)
(-0.642026 15.4547 -8.30832e-16)
(-0.542888 14.688 0)
(-0.376069 14.0172 0)
(-1.36626 13.3791 8.6484e-16)
(0.403486 10.6914 0)
(2.47488 13.341 0)
(-6.89043 12.202 0)
(-2.05104 17.4739 1.53794e-15)
(-1.9888 16.8407 2.60313e-15)
(-1.891 16.0926 1.44779e-16)
(-1.77806 15.3363 9.35232e-16)
(-1.63662 14.5954 6.90208e-17)
(-1.36426 13.9706 1.12183e-15)
(-2.45998 13.278 1.68204e-17)
(-0.603324 10.3961 1.28099e-16)
(1.32093 13.5143 -2.57355e-15)
(-8.06589 11.8614 -6.32565e-16)
(-3.28116 17.3372 1.42615e-15)
(-3.17658 16.6659 0)
(-3.0262 15.8987 -2.12746e-15)
(-2.86648 15.1537 -1.83047e-15)
(-2.67267 14.4261 5.39764e-15)
(-2.31264 13.8444 -1.10844e-15)
(-3.48491 13.123 1.73198e-15)
(-1.45931 10.0493 0)
(0.318149 13.7751 2.98948e-15)
(-8.82823 11.1791 -4.48183e-17)
(-4.51545 17.1244 3.2441e-15)
(-4.34944 16.4081 7.96373e-15)
(-4.13671 15.6265 -8.30936e-15)
(-3.93436 14.8997 3.27606e-15)
(-3.69811 14.1883 1.19818e-17)
(-3.24516 13.6591 0)
(-4.47127 12.962 -1.73183e-15)
(-2.27013 9.72016 -2.76054e-15)
(-0.60093 13.8891 -3.01239e-15)
(-9.62648 10.4598 3.09641e-15)
(-5.74373 16.8334 3.00166e-15)
(-5.49798 16.0676 -2.62468e-15)
(-5.22009 15.2826 8.57664e-15)
(-4.98133 14.578 -3.40418e-15)
(-4.70993 13.8789 2.85159e-15)
(-4.16517 13.406 -4.44813e-15)
(-5.44466 12.7553 3.57919e-15)
(-3.03872 9.39056 2.80279e-15)
(-1.54064 13.9236 0)
(-10.579 9.64006 -6.21481e-15)
(-6.9598 16.4678 3.71301e-15)
(-6.60936 15.6459 -1.6003e-14)
(-6.26997 14.8732 -4.56228e-15)
(-6.00369 14.1935 1.05117e-14)
(-5.70231 13.5028 8.81641e-15)
(-5.06818 13.0876 1.35991e-16)
(-6.39123 12.4956 2.66933e-17)
(-3.78603 9.07262 -3.04014e-15)
(-2.4943 13.8782 -3.02377e-15)
(-11.2726 8.74343 6.80699e-15)
(-8.18699 16.0328 3.84276e-15)
(-7.68458 15.141 5.67849e-15)
(-7.28411 14.4019 0)
(-6.99977 13.7476 -3.51123e-15)
(-6.67231 13.0629 -5.56156e-15)
(-5.95625 12.7009 1.61112e-16)
(-7.30218 12.1741 -1.10445e-14)
(-4.52944 8.70689 -2.76979e-15)
(-3.46795 13.7376 6.1485e-15)
(-11.8538 7.83038 -3.53194e-15)
(-9.43017 15.472 1.4402e-14)
(-8.74082 14.5277 -5.12891e-15)
(-8.26568 13.8595 0)
(-7.96894 13.2338 -1.95095e-16)
(-7.62119 12.5565 2.27897e-14)
(-6.84261 12.248 -9.32874e-15)
(-8.22315 11.777 -7.62903e-15)
(-5.28391 8.34567 5.52748e-15)
(-4.48203 13.4959 -6.85669e-15)
(-12.3293 6.89863 0)
(-10.5319 14.7067 3.49153e-16)
(-9.75337 13.7999 -5.00387e-15)
(-9.22198 13.2566 0)
(-8.90598 12.6564 7.13842e-15)
(-8.54133 11.9789 -1.68233e-14)
(-7.71747 11.7131 9.46945e-15)
(-9.08731 11.3281 3.7964e-15)
(-6.06414 8.05999 0)
(-5.45879 13.0758 -1.20029e-16)
(-12.725 5.9688 3.50745e-15)
(-10.9977 13.8993 4.62266e-16)
(-10.712 13.0242 1.42645e-17)
(-10.1838 12.6271 0)
(-9.82729 12.0366 -1.38132e-14)
(-9.44264 11.353 5.22632e-15)
(-8.58511 11.0582 -4.88578e-15)
(-9.78028 10.7408 3.82154e-15)
(-6.86009 7.93625 7.18883e-16)
(-6.31739 12.4269 6.91561e-16)
(-13.0754 5.1038 -3.55648e-15)
(-10.752 13.6944 3.04451e-15)
(-11.3972 12.4326 -5.38201e-15)
(-10.9932 12.0679 0)
(-10.5872 11.4867 0)
(-10.1476 10.8233 0)
(-9.32165 10.5253 -2.42943e-15)
(-10.3852 10.0759 9.6865e-15)
(-7.38446 7.6761 0)
(-7.08648 12.3177 0)
(-13.0593 4.34495 0)
(-11.4255 12.7967 -2.88852e-15)
(-11.9242 11.9771 -5.30568e-15)
(-11.5987 11.6145 0)
(-11.1555 11.036 3.59026e-15)
(-10.6682 10.3765 -2.75414e-15)
(-9.82134 10.1341 2.4241e-15)
(-10.8089 9.66033 3.91281e-15)
(-7.84125 7.01631 -1.83772e-16)
(-7.60436 12.1454 1.63497e-15)
(-13.2494 3.87221 0)
(-12.6481 11.6561 1.75507e-16)
(-12.5174 11.2971 -2.0513e-18)
(-12.2945 10.9057 0)
(-11.8414 10.3529 2.08394e-16)
(-11.3156 9.70057 5.94379e-15)
(-10.4399 9.50798 -4.43995e-15)
(-11.3924 9.23173 -1.16188e-14)
(-8.42446 6.12689 -6.15448e-15)
(-8.39414 11.4041 1.35845e-14)
(-13.5886 3.10617 3.48759e-15)
(-13.993 10.5177 -1.2712e-14)
(-13.5681 10.2917 4.96129e-15)
(-13.2112 9.9013 0)
(-12.6877 9.40535 -7.03238e-15)
(-12.097 8.81494 -5.7642e-15)
(-11.1839 8.58451 9.35365e-15)
(-12.0094 8.49108 3.92533e-15)
(-9.16437 6.05936 0)
(-9.29021 10.3229 -6.79223e-15)
(-13.5662 2.03194 2.02446e-16)
(-14.8993 9.16952 -2.83917e-16)
(-14.4608 9.05708 4.99396e-15)
(-14.0336 8.74213 0)
(-13.4498 8.3302 1.39554e-14)
(-12.8153 7.81986 -1.93311e-18)
(-11.887 7.59837 -1.68067e-16)
(-12.568 7.49937 7.94357e-15)
(-9.8361 5.52192 -5.52975e-15)
(-10.2245 9.37395 -6.9824e-15)
(-13.3645 0.990741 0)
(-15.5922 7.85129 -3.10548e-15)
(-15.1801 7.77809 1.02698e-14)
(-14.7149 7.52741 8.71741e-15)
(-14.086 7.20065 -1.00097e-14)
(-13.4198 6.78104 -1.68158e-14)
(-12.4955 6.59161 -2.45051e-16)
(-13.0373 6.49499 -4.00723e-15)
(-10.4591 4.97582 -2.78299e-15)
(-11.1562 8.36326 -6.2363e-15)
(-12.9789 -0.0088648 -2.9431e-15)
(-16.1688 6.54314 -9.34975e-15)
(-15.7669 6.47245 5.08166e-15)
(-15.2665 6.26835 -3.89244e-15)
(-14.6046 6.02056 -1.02746e-14)
(-13.9183 5.69473 8.00154e-15)
(-13.0137 5.5502 -2.30464e-16)
(-13.4054 5.4508 7.67905e-15)
(-11.0003 4.39739 2.98418e-15)
(-11.9742 7.34039 2.85787e-15)
(-12.4649 -0.958448 -1.92846e-16)
(-16.6542 5.23998 2.7642e-15)
(-16.2395 5.16294 -2.57367e-15)
(-15.6952 4.99579 -1.23887e-16)
(-15.005 4.81676 1.02351e-14)
(-14.3051 4.58177 -1.38562e-14)
(-13.4359 4.48669 4.39127e-15)
(-13.6644 4.3781 -3.87803e-15)
(-11.4865 3.7562 8.25301e-15)
(-12.6771 6.34503 0)
(-11.9137 -1.78683 6.07219e-17)
(-17.0344 3.94991 2.96701e-15)
(-16.6049 3.86357 2.5081e-15)
(-16.0124 3.72831 4.26825e-15)
(-15.2957 3.60332 -6.71004e-15)
(-14.5768 3.44703 2.67434e-15)
(-13.7484 3.41919 0)
(-13.7672 3.27977 -1.87248e-15)
(-11.7834 3.03783 -5.60065e-15)
(-13.2573 5.46444 -6.40204e-17)
(-11.4798 -2.3463 2.83744e-15)
(-17.3182 2.67504 1.31533e-15)
(-16.875 2.5898 0)
(-16.2301 2.48601 2.08018e-15)
(-15.4844 2.4024 1.78573e-15)
(-14.7271 2.31524 7.78781e-17)
(-13.9396 2.34408 -1.09434e-15)
(-13.7672 2.18537 1.84676e-15)
(-11.86 2.21609 0)
(-13.5008 4.85524 2.9021e-15)
(-11.3493 -2.45458 2.57203e-15)
(-17.519 1.41364 1.44512e-15)
(-17.0535 1.36928 -2.50899e-15)
(-16.374 1.31768 -1.42992e-16)
(-15.6021 1.28522 7.10962e-16)
(-14.7815 1.27954 -6.2486e-17)
(-13.9843 1.31029 1.04343e-15)
(-13.6883 1.15343 -1.79538e-15)
(-11.89 1.72448 -5.32071e-17)
(-13.2747 4.75517 2.37615e-15)
(-10.4614 -3.37735 -1.93591e-15)
(-17.6058 0.305861 2.0737e-29)
(-17.0579 0.332526 0)
(-16.347 0.373051 0)
(-15.5604 0.423286 -8.10285e-16)
(-14.742 0.48036 0)
(-14.0175 0.520525 0)
(-13.4883 -0.319786 8.76733e-16)
(-10.981 1.46883 0)
(-12.6161 3.82009 0)
(-13.756 -7.03043 -8.20355e-30)
(-14.0548 12.4197 8.78551e-16)
(-14.5826 10.9015 -7.91119e-15)
(-15.1537 9.2452 7.74548e-15)
(-15.7201 7.88004 -1.04953e-14)
(-16.2422 6.56904 6.75002e-15)
(-16.7272 5.27079 -1.36614e-14)
(-17.1452 3.98657 3.2525e-15)
(-17.4798 2.72679 -3.3705e-15)
(-17.725 1.47501 0)
(-17.9023 0.349506 -3.85594e-16)
(-14.589 11.7336 1.63757e-14)
(-15.0486 10.5504 0)
(-15.3227 8.99493 8.67414e-15)
(-15.7503 7.71391 -3.39959e-15)
(-16.1938 6.46456 -1.06472e-14)
(-16.6389 5.21674 0)
(-17.0481 3.98385 -3.49256e-15)
(-17.3938 2.77215 -1.51021e-15)
(-17.6595 1.55725 1.0054e-15)
(-17.91 0.437739 -4.26584e-16)
(-14.2261 10.9022 -1.36778e-14)
(-14.9973 9.89743 0)
(-15.2475 8.54352 8.06663e-15)
(-15.6082 7.40836 5.28958e-16)
(-15.9849 6.27106 8.59003e-15)
(-16.3849 5.10756 -3.81537e-15)
(-16.7671 3.94548 0)
(-17.1005 2.79517 4.01335e-15)
(-17.3504 1.64372 -6.76368e-16)
(-17.5973 0.535261 5.37785e-16)
(-13.218 10.1528 6.17094e-15)
(-14.3686 9.17702 -2.97455e-15)
(-14.8097 7.98213 6.71451e-15)
(-15.2169 6.99784 -7.29194e-15)
(-15.5783 6.00003 6.74301e-16)
(-15.9341 4.95155 3.90011e-15)
(-16.2811 3.87015 -1.13902e-14)
(-16.5905 2.7868 1.99203e-15)
(-16.8183 1.70215 3.27419e-15)
(-16.9917 0.618727 9.03059e-17)
(-12.0722 9.45896 -9.13519e-15)
(-13.3178 8.50609 8.51476e-15)
(-13.9908 7.42418 0)
(-14.5175 6.51557 2.66498e-15)
(-14.9211 5.60967 2.78511e-15)
(-15.2674 4.67292 -2.96847e-16)
(-15.5811 3.70077 2.01068e-15)
(-15.8555 2.70613 4.66809e-15)
(-16.0572 1.69687 -7.78808e-18)
(-16.1635 0.676177 4.08067e-16)
(-10.9573 8.77957 -3.59376e-15)
(-12.1238 7.87894 6.59787e-15)
(-12.891 6.91451 2.38612e-15)
(-13.5376 6.07271 -4.12886e-15)
(-14.0252 5.23953 -2.33368e-15)
(-14.4091 4.38458 -2.76908e-16)
(-14.7176 3.49575 -4.02635e-15)
(-14.9665 2.57307 1.246e-15)
(-15.1373 1.63017 3.97368e-16)
(-15.199 0.674773 -4.14037e-16)
(-9.87774 8.09982 0)
(-10.879 7.29248 -2.12071e-15)
(-11.6474 6.45926 5.17551e-16)
(-12.3341 5.68448 -9.14021e-16)
(-12.8857 4.90376 1.55207e-15)
(-13.317 4.10137 0)
(-13.6464 3.27288 8.91451e-16)
(-13.8879 2.40919 1.33842e-15)
(-14.0365 1.52216 -1.2127e-15)
(-14.0686 0.621104 -3.13617e-17)
(-8.81756 7.41124 0)
(-9.63813 6.74273 -5.54113e-16)
(-10.3481 6.04042 3.50113e-15)
(-11.0087 5.33044 -2.5936e-15)
(-11.5654 4.59153 0)
(-12.0077 3.82924 -4.27543e-16)
(-12.345 3.04314 -1.03857e-15)
(-12.5884 2.22481 8.49923e-16)
(-12.728 1.38093 8.65616e-16)
(-12.75 0.512595 -3.27399e-16)
(-7.75825 6.66594 -9.54892e-16)
(-8.39544 6.15183 5.39969e-16)
(-9.01454 5.5187 5.16595e-16)
(-9.60128 4.83295 -4.90577e-16)
(-10.1052 4.11862 0)
(-10.5123 3.3897 4.47786e-16)
(-10.8257 2.64553 6.35196e-16)
(-11.0539 1.8774 -7.34329e-16)
(-11.1804 1.0674 -1.49482e-16)
(-11.2151 0.218632 1.07422e-17)
(-6.36119 6.24983 -2.94103e-16)
(-6.54857 6.0081 1.07158e-16)
(-6.91247 5.45382 9.01353e-17)
(-7.29231 4.82201 0)
(-7.65402 4.1954 -3.52435e-17)
(-7.98055 3.58094 0)
(-8.26127 2.9705 -1.32844e-16)
(-8.48862 2.35509 1.77635e-16)
(-8.6505 1.72342 3.42643e-17)
(-8.81281 1.04488 -9.67835e-18)
)
;

boundaryField
{
    right
    {
        type            cyclic;
    }
    left
    {
        type            cyclic;
    }
    outerWall
    {
        type            calculated;
        value           nonuniform List<vector> 
22
(
(-1.55201 41.8305 0)
(-4.64749 41.6006 0)
(-7.71741 41.1419 0)
(-10.7449 40.4569 0)
(-13.7132 39.5492 0)
(-16.6061 38.424 0)
(-19.4075 37.0874 0)
(-22.1022 35.5467 0)
(-24.6752 33.8104 0)
(-27.1124 31.8882 0)
(-28.9573 30.2506 0)
(-30.2506 28.9573 0)
(-31.8882 27.1124 0)
(-33.8104 24.6752 0)
(-35.5467 22.1022 0)
(-37.0874 19.4075 0)
(-38.424 16.6061 0)
(-39.5492 13.7132 0)
(-40.4569 10.7449 0)
(-41.1419 7.71741 0)
(-41.6006 4.64749 0)
(-41.8305 1.55201 0)
)
;
    }
    stirrerWall
    {
        type            calculated;
        value           nonuniform List<vector> 
42
(
(-0.310178 8.3662 0)
(-0.928834 8.32046 0)
(-1.54239 8.22894 0)
(-2.14746 8.09214 0)
(-2.74072 7.91082 0)
(-3.31888 7.68598 0)
(-3.87877 7.41885 0)
(-4.41729 7.11092 0)
(-4.93148 6.76387 0)
(-5.4185 6.37963 0)
(-6.07951 6.64185 0)
(-6.92878 7.56862 0)
(-7.77806 8.49539 0)
(-8.62734 9.42216 0)
(-9.47661 10.3489 0)
(-10.3259 11.2757 0)
(-11.1752 12.2025 0)
(-12.0244 13.1292 0)
(-12.8737 14.056 0)
(-13.723 14.9828 0)
(-14.4723 15.1215 0)
(-15.1215 14.4723 0)
(-14.9828 13.723 0)
(-14.056 12.8737 0)
(-13.1292 12.0244 0)
(-12.2025 11.1752 0)
(-11.2757 10.3259 0)
(-10.3489 9.47661 0)
(-9.42216 8.62734 0)
(-8.49539 7.77806 0)
(-7.56862 6.92878 0)
(-6.64185 6.07951 0)
(-6.37963 5.4185 0)
(-6.76387 4.93148 0)
(-7.11092 4.41729 0)
(-7.41885 3.87877 0)
(-7.68598 3.31888 0)
(-7.91082 2.74072 0)
(-8.09214 2.14746 0)
(-8.22894 1.54239 0)
(-8.32046 0.928834 0)
(-8.3662 0.310178 0)
)
;
    }
    top
    {
        type            empty;
    }
    bottom
    {
        type            empty;
    }
}


// ************************************************************************* //
