/*--------------------------------*- C++ -*----------------------------------*\
  =========                 |
  \\      /  F ield         | OpenFOAM: The Open Source CFD Toolbox
   \\    /   O peration     | Website:  https://openfoam.org
    \\  /    A nd           | Version:  10
     \\/     M anipulation  |
\*---------------------------------------------------------------------------*/
FoamFile
{
    format      ascii;
    class       volVectorField;
    location    "1000";
    object      Urel;
}
// * * * * * * * * * * * * * * * * * * * * * * * * * * * * * * * * * * * * * //

dimensions      [0 1 -1 0 0 0 0];

internalField   nonuniform List<vector> 
420
(
(0.652771 -0.324207 7.37075e-18)
(-0.384779 0.82729 -5.81673e-17)
(0.0635407 1.14095 -2.68902e-16)
(0.161725 1.23205 7.50369e-17)
(0.20042 1.15514 -5.04384e-16)
(0.182791 0.935954 0)
(0.125717 0.588961 0)
(0.0614783 -0.021134 4.81344e-16)
(-0.00583921 -1.00856 -5.1322e-16)
(-0.0497012 -2.35963 0)
(0.727641 -0.441151 2.7757e-17)
(-0.251 0.648641 -1.43275e-16)
(0.0485649 1.02287 8.19811e-16)
(0.149076 1.15969 -1.13175e-15)
(0.192878 1.14516 3.68894e-16)
(0.181039 1.00926 8.74734e-18)
(0.155229 0.720429 3.14088e-15)
(0.178607 0.128378 -7.46166e-16)
(0.20211 -0.892788 1.15601e-15)
(0.240869 -2.28539 0)
(0.792407 -0.35332 9.08355e-17)
(-0.219873 0.557426 -6.72608e-16)
(0.0038266 0.938031 7.82136e-16)
(0.0843704 1.10477 1.27575e-15)
(0.127794 1.14211 -8.59673e-16)
(0.135027 1.06506 4.04325e-15)
(0.156078 0.806163 1.8315e-15)
(0.260672 0.221933 5.13284e-15)
(0.37453 -0.788084 -1.83149e-15)
(0.494979 -2.17392 -3.89367e-15)
(0.827771 -0.291446 -3.12544e-17)
(-0.241633 0.472602 5.87934e-16)
(-0.0503162 0.834311 -9.94859e-16)
(0.0261721 1.01603 8.55558e-16)
(0.0833722 1.09532 -1.6928e-15)
(0.120433 1.06798 1.76424e-15)
(0.185323 0.857868 -1.02135e-14)
(0.343675 0.307381 0)
(0.526634 -0.663456 -4.56614e-15)
(0.718853 -2.02279 3.87052e-15)
(0.849015 -0.223673 0)
(-0.27738 0.386941 3.97289e-16)
(-0.0959419 0.719255 -3.88585e-16)
(-0.00894638 0.907087 0)
(0.0718391 1.0215 -2.79112e-16)
(0.138765 1.04621 -3.07212e-16)
(0.237315 0.902386 3.37817e-15)
(0.428742 0.414229 -4.58472e-15)
(0.664333 -0.5037 0)
(0.921043 -1.82956 -1.66014e-14)
(0.855358 -0.145853 7.06533e-18)
(-0.315572 0.294556 0)
(-0.127248 0.589369 0)
(-0.0176488 0.77556 1.48111e-15)
(0.0905107 0.919672 -2.27754e-15)
(0.18745 0.998238 2.57299e-15)
(0.315326 0.934358 6.5955e-16)
(0.531985 0.542508 9.71788e-15)
(0.804986 -0.292996 -1.41188e-14)
(1.10876 -1.57388 8.49118e-15)
(0.836879 -0.0546232 0)
(-0.353863 0.191729 -3.87656e-16)
(-0.139694 0.440838 -2.27828e-15)
(0.00174306 0.618446 -8.9492e-16)
(0.138855 0.782617 -3.98521e-15)
(0.26668 0.911956 2.52868e-15)
(0.41933 0.931813 -6.1431e-15)
(0.643529 0.670784 7.59264e-16)
(0.917185 -0.0287961 -4.08702e-15)
(1.24021 -1.22243 -1.31007e-14)
(0.771782 0.0499336 -8.94047e-18)
(-0.384032 0.0746681 3.848e-16)
(-0.127332 0.275432 2.97958e-15)
(0.0457066 0.436623 5.4021e-16)
(0.204488 0.601892 2.34519e-15)
(0.357628 0.759331 0)
(0.528116 0.853103 6.05435e-15)
(0.732534 0.735248 7.3925e-15)
(0.949551 0.270298 9.98606e-15)
(1.21083 -0.785067 9.41145e-15)
(0.624893 0.154438 -6.22685e-18)
(-0.386151 -0.0322093 3.87811e-16)
(-0.0996038 0.135458 -4.14124e-16)
(0.0688188 0.278033 -1.87928e-15)
(0.208908 0.423688 5.98364e-15)
(0.348425 0.579823 8.01318e-15)
(0.499229 0.72956 -2.74735e-15)
(0.65086 0.782331 0)
(0.777737 0.606428 0)
(0.971505 -0.272304 -9.54257e-15)
(0.3289 0.176896 -2.39586e-17)
(-0.258265 -0.0775496 7.28377e-16)
(-0.0303408 -0.0168024 0)
(0.0770006 0.0398434 0)
(0.175988 0.0817516 -3.37127e-15)
(0.296961 0.114961 -2.39149e-17)
(0.44448 0.133363 5.76749e-15)
(0.609906 0.127794 -1.22321e-14)
(0.738262 0.0673745 1.43338e-14)
(0.79731 -0.386335 1.22337e-15)
(-0.0344406 -3.99913 0)
(0.0568572 -5.93456 0)
(0.17736 -8.14526 0)
(0.322929 -10.5563 -8.30832e-16)
(0.489399 -13.1373 0)
(0.730766 -15.817 0)
(-0.176884 -18.6793 8.6484e-16)
(1.68425 -23.8296 0)
(3.85682 -23.9066 0)
(-5.39646 -28.0644 0)
(0.343376 -3.96274 1.53794e-15)
(0.554172 -5.9254 2.60313e-15)
(0.816441 -8.14548 1.44779e-16)
(1.11149 -10.5316 9.35232e-16)
(1.45456 -13.077 6.90208e-17)
(1.95016 -15.6996 1.12183e-15)
(1.1016 -18.6042 1.68204e-17)
(3.23191 -23.9352 1.28099e-16)
(5.45915 -23.5286 -2.57355e-15)
(-3.5922 -28.1838 -6.32565e-16)
(0.694907 -3.86309 1.42615e-15)
(1.04617 -5.84928 0)
(1.46967 -8.0722 -2.12746e-15)
(1.93178 -10.4289 -1.83047e-15)
(2.4604 -12.9411 5.39764e-15)
(3.19113 -15.4987 -1.10844e-15)
(2.42928 -18.4077 1.73198e-15)
(4.90931 -23.9034 0)
(7.18989 -22.8594 2.98948e-15)
(-1.39944 -28.4245 -4.48183e-17)
(1.02043 -3.72314 3.2441e-15)
(1.52988 -5.7323 7.96373e-15)
(2.12287 -7.94544 -8.30936e-15)
(2.74624 -10.2572 3.27606e-15)
(3.44864 -12.7234 1.19818e-17)
(4.4177 -15.1955 0)
(3.76302 -18.0438 -1.73183e-15)
(6.59684 -23.6673 -2.76054e-15)
(8.96654 -22.1355 -3.01239e-15)
(0.716562 -28.4844 3.09641e-15)
(1.32156 -3.54678 3.00166e-15)
(2.00563 -5.57645 -2.62468e-15)
(2.76882 -7.7608 8.57664e-15)
(3.54489 -10.0147 -3.40418e-15)
(4.41121 -12.4293 2.85159e-15)
(5.61466 -14.8014 -4.44813e-15)
(5.06445 -17.555 3.57919e-15)
(8.27783 -23.248 2.80279e-15)
(10.6699 -21.2928 0)
(2.62135 -28.4304 -6.21481e-15)
(1.5961 -3.33308 3.71301e-15)
(2.47731 -5.38285 -1.6003e-14)
(3.40436 -7.51505 -4.56228e-15)
(4.3213 -9.69998 1.05117e-14)
(5.34308 -12.0572 8.81641e-15)
(6.77484 -14.3176 1.35991e-16)
(6.33489 -16.9526 2.66933e-17)
(9.91786 -22.6375 -3.04014e-15)
(12.2922 -20.3364 -3.02377e-15)
(4.7125 -28.2439 6.80699e-15)
(1.81253 -3.08005 3.84276e-15)
(2.93524 -5.15696 5.67849e-15)
(4.0225 -7.20823 0)
(5.06725 -9.31529 -3.51123e-15)
(6.23662 -11.6086 -5.56156e-15)
(7.88483 -13.7514 1.61112e-16)
(7.57097 -16.2501 -1.10445e-14)
(11.4864 -21.9005 -2.76979e-15)
(13.8131 -19.2869 6.1485e-15)
(6.82802 -27.8704 -3.53194e-15)
(1.95808 -2.84783 1.4402e-14)
(3.35382 -4.9279 -5.12891e-15)
(4.61109 -6.85368 0)
(5.77378 -8.87179 -1.95095e-16)
(7.08031 -11.0907 2.27897e-14)
(8.92044 -13.106 -9.32874e-15)
(8.71523 -15.4668 -7.62903e-15)
(12.9558 -20.9905 5.52748e-15)
(15.1984 -18.1569 -6.85669e-15)
(8.94638 -27.3191 0)
(2.18252 -2.71943 3.49153e-16)
(3.74967 -4.70649 -5.00387e-15)
(5.1542 -6.44584 0)
(6.43693 -8.3703 7.13842e-15)
(7.87193 -10.5141 -1.68233e-14)
(9.88087 -12.4032 9.46945e-15)
(9.82315 -14.5856 3.7964e-15)
(14.2991 -19.8437 0)
(16.5129 -17.0313 -1.20029e-16)
(11.0275 -26.5777 3.50745e-15)
(2.97314 -2.53737 4.62266e-16)
(4.12528 -4.43118 1.42645e-17)
(5.61277 -5.95623 0)
(7.03149 -7.79568 -1.38132e-14)
(8.59216 -9.86198 5.22632e-15)
(10.7518 -11.6878 -4.88578e-15)
(10.9982 -13.7003 3.82154e-15)
(15.5146 -18.3815 7.18883e-16)
(17.8245 -15.9688 6.91561e-16)
(13.0232 -25.5925 -3.55648e-15)
(4.16372 -1.89008 3.04451e-15)
(4.44431 -4.11882 -5.38201e-15)
(5.87333 -5.55417 0)
(7.41431 -7.32074 0)
(9.11041 -9.29652 0)
(11.3276 -11.0476 -2.42943e-15)
(11.8045 -13.1059 9.6865e-15)
(16.5107 -17.2871 0)
(18.697 -14.6177 0)
(14.8148 -24.7741 0)
(4.15898 -2.11904 -2.88852e-15)
(4.62724 -3.86438 -5.30568e-15)
(6.02338 -5.25208 0)
(7.65188 -6.96546 3.59026e-15)
(9.45162 -8.88153 -2.75414e-15)
(11.7516 -10.5152 2.4241e-15)
(12.3729 -12.5293 3.91281e-15)
(17.1219 -16.8789 -1.83772e-16)
(19.331 -13.6381 1.63497e-15)
(15.8697 -24.0019 0)
(3.78854 -2.31474 1.75507e-16)
(4.93796 -3.54014 -2.0513e-18)
(6.28885 -4.8909 0)
(7.99089 -6.50592 2.08394e-16)
(9.89938 -8.33423 5.94379e-15)
(12.3061 -9.82889 -4.43995e-15)
(13.0486 -11.5468 -1.16188e-14)
(17.8933 -16.2478 -6.15448e-15)
(20.0015 -12.7378 1.35845e-14)
(17.1077 -22.9924 3.48759e-15)
(3.43304 -2.19677 -1.2712e-14)
(4.93828 -3.21134 4.96129e-15)
(6.49126 -4.47488 0)
(8.33898 -5.93755 -7.03238e-15)
(10.3959 -7.59833 -5.7642e-15)
(12.9324 -9.01384 9.35365e-15)
(13.9043 -10.4194 3.92533e-15)
(18.7393 -14.3038 0)
(20.8168 -11.6488 -6.79223e-15)
(18.9803 -21.7206 2.02446e-16)
(3.42051 -2.21872 -2.83917e-16)
(4.99479 -3.03757 4.99396e-15)
(6.67955 -4.13463 0)
(8.65571 -5.41253 1.39554e-14)
(10.8318 -6.88164 -1.93311e-18)
(13.467 -8.16468 -1.68067e-16)
(14.6758 -9.43901 7.94357e-15)
(19.5001 -12.7178 -5.52975e-15)
(21.4283 -10.3065 -6.9824e-15)
(20.8533 -20.2849 0)
(3.52068 -2.14823 -3.10548e-15)
(5.11785 -2.84173 1.02698e-14)
(6.89518 -3.7792 8.71741e-15)
(8.97688 -4.86636 -1.00097e-14)
(11.2516 -6.12788 -1.68158e-14)
(13.9568 -7.24947 -2.45051e-16)
(15.3868 -8.37816 -4.00723e-15)
(20.1482 -11.04 -2.78299e-15)
(21.8683 -8.91775 -6.2363e-15)
(22.7219 -18.6906 -2.9431e-15)
(3.63212 -2.01276 -9.34975e-15)
(5.2619 -2.61422 5.08166e-15)
(7.12175 -3.40598 -3.89244e-15)
(9.28888 -4.30443 -1.02746e-14)
(11.6418 -5.35067 8.00154e-15)
(14.3916 -6.29281 -2.30464e-16)
(16.0428 -7.27532 7.67905e-15)
(20.7099 -9.3065 2.98418e-15)
(22.2403 -7.44607 2.85787e-15)
(24.5225 -16.9435 -1.92846e-16)
(3.72596 -1.82531 2.7642e-15)
(5.40456 -2.34067 -2.57367e-15)
(7.3482 -2.99312 -1.23887e-16)
(9.58773 -3.70946 1.02351e-14)
(12.0031 -4.53937 -1.38562e-14)
(14.7716 -5.29313 4.39127e-15)
(16.6459 -6.13101 -3.87803e-15)
(21.1521 -7.56036 8.25301e-15)
(22.5393 -5.86552 0)
(26.1568 -14.9872 6.07219e-17)
(3.81316 -1.58597 2.96701e-15)
(5.53557 -2.01575 2.5081e-15)
(7.55948 -2.53128 4.26825e-15)
(9.86114 -3.07728 -6.71004e-15)
(12.3349 -3.69972 2.67434e-15)
(15.1061 -4.24367 0)
(17.2386 -4.95452 -1.87248e-15)
(21.6041 -5.82914 -5.60065e-15)
(22.7672 -4.10302 -6.40204e-17)
(27.4643 -12.6893 2.83744e-15)
(3.88208 -1.30103 1.31533e-15)
(5.64012 -1.63294 0)
(7.74075 -2.00986 2.08018e-15)
(10.0983 -2.39587 1.78573e-15)
(12.6401 -2.81783 7.78781e-17)
(15.4035 -3.15969 -1.09434e-15)
(17.7635 -3.72882 1.84676e-15)
(22.0928 -4.15253 0)
(23.1337 -2.01651 2.9021e-15)
(28.2543 -9.88338 2.57203e-15)
(3.91769 -0.980778 1.44512e-15)
(5.71264 -1.17369 -2.50899e-15)
(7.86417 -1.38976 -1.42992e-16)
(10.2657 -1.60433 7.10962e-16)
(12.8908 -1.81163 -6.2486e-17)
(15.6859 -2.00413 1.04343e-15)
(18.1939 -2.40815 -1.79538e-15)
(22.4413 -2.11076 -5.32071e-17)
(23.7682 0.616949 2.37615e-15)
(29.5838 -7.85103 -1.93591e-15)
(3.9495 -0.493747 2.0737e-29)
(5.83412 -0.51669 0)
(8.02515 -0.53109 0)
(10.4505 -0.541669 -8.10285e-16)
(13.0833 -0.551926 0)
(15.8167 -0.586311 0)
(18.5701 -1.50916 8.76733e-16)
(23.54 0.188069 0)
(24.6315 2.43814 0)
(26.5103 -8.5244 -8.20355e-30)
(1.42044 -0.73356 8.78551e-16)
(1.82417 -1.06889 -7.91119e-15)
(2.09446 -1.47656 7.74548e-15)
(2.27468 -1.53427 -1.04953e-14)
(2.40028 -1.48612 6.75002e-15)
(2.46068 -1.38099 -1.36614e-14)
(2.48259 -1.22531 3.2525e-15)
(2.48011 -1.01657 -3.3705e-15)
(2.45743 -0.77926 0)
(2.39184 -0.403295 -3.85594e-16)
(-0.0703914 -0.606165 1.63757e-14)
(0.343978 -0.67963 0)
(0.859321 -1.06378 8.67414e-15)
(1.13216 -1.11822 -3.39959e-15)
(1.29638 -1.09249 -1.06472e-14)
(1.36291 -1.02371 0)
(1.36654 -0.905749 -3.49256e-15)
(1.33238 -0.739729 -1.51021e-15)
(1.27546 -0.557624 1.0054e-15)
(1.1297 -0.268511 -4.26584e-16)
(-0.664037 -0.624082 -1.36778e-14)
(-0.618777 -0.592391 0)
(-0.131648 -0.852186 8.06663e-15)
(0.162056 -0.841625 5.28958e-16)
(0.353074 -0.787887 8.59003e-15)
(0.431025 -0.721584 -3.81537e-15)
(0.434385 -0.62184 0)
(0.39197 -0.485243 4.01335e-15)
(0.337042 -0.331765 -6.76368e-16)
(0.18798 -0.12444 5.37785e-16)
(-0.612379 -0.560182 6.17094e-15)
(-1.00418 -0.572602 -2.97455e-15)
(-0.75981 -0.750605 6.71451e-15)
(-0.558828 -0.670034 -7.29194e-15)
(-0.392565 -0.560854 6.74301e-16)
(-0.304103 -0.466311 3.90011e-15)
(-0.292703 -0.374928 -1.13902e-14)
(-0.331571 -0.262163 1.99203e-15)
(-0.378271 -0.133953 3.27419e-15)
(-0.460822 0.00557155 9.03059e-17)
(-0.423023 -0.440682 -9.13519e-15)
(-0.967321 -0.503386 8.51476e-15)
(-1.00685 -0.645632 0)
(-0.971453 -0.570238 2.66498e-15)
(-0.887468 -0.453195 2.78511e-15)
(-0.823153 -0.333686 -2.96847e-16)
(-0.805756 -0.222081 2.01068e-15)
(-0.830168 -0.111397 4.66809e-15)
(-0.864391 0.000142821 -7.78808e-18)
(-0.886826 0.109565 4.08067e-16)
(-0.264394 -0.306835 -3.59376e-15)
(-0.787137 -0.39046 6.59787e-15)
(-0.972858 -0.49244 2.38612e-15)
(-1.10349 -0.431081 -4.12886e-15)
(-1.14353 -0.32536 -2.33368e-15)
(-1.15056 -0.210819 -2.76908e-16)
(-1.15515 -0.104899 -4.02635e-15)
(-1.17459 -0.013049 1.246e-15)
(-1.1917 0.0727967 3.97368e-16)
(-1.17639 0.154699 -4.14037e-16)
(-0.141065 -0.173444 0)
(-0.556084 -0.236932 -2.12071e-15)
(-0.795037 -0.284916 5.17551e-16)
(-1.01189 -0.237369 -9.14021e-16)
(-1.15589 -0.16321 1.55207e-15)
(-1.24405 -0.0828648 0)
(-1.29666 -0.00561384 8.91451e-16)
(-1.32925 0.054455 1.33842e-15)
(-1.33794 0.10413 -1.2127e-15)
(-1.29995 0.147563 -3.13617e-17)
(-0.0369407 -0.0490145 0)
(-0.328815 -0.0468215 -5.54113e-16)
(-0.561199 -0.0410814 3.50113e-15)
(-0.798095 -0.00955328 -2.5936e-15)
(-0.987159 0.0224009 0)
(-1.12007 0.0561064 -4.27543e-16)
(-1.20777 0.0867536 -1.03857e-15)
(-1.26281 0.101424 8.49923e-16)
(-1.27634 0.102219 8.65616e-16)
(-1.23518 0.085579 -3.27399e-16)
(0.0665229 0.0185242 -9.54892e-16)
(-0.0994733 0.101985 5.39969e-16)
(-0.292991 0.0997339 5.16595e-16)
(-0.502098 0.0746703 -4.90577e-16)
(-0.678422 0.0472247 0)
(-0.809744 0.0275775 4.47786e-16)
(-0.900756 0.0111854 6.35196e-16)
(-0.96112 -0.0146867 -7.34329e-16)
(-0.97531 -0.0720187 -1.49482e-16)
(-0.953748 -0.161869 1.07422e-17)
(0.508031 0.414986 -2.94103e-16)
(0.734356 0.697735 1.07158e-16)
(0.744106 0.69717 9.01353e-17)
(0.695809 0.645271 0)
(0.621717 0.621572 -3.52435e-17)
(0.537276 0.629699 0)
(0.451801 0.658088 -1.32844e-16)
(0.371765 0.694226 1.77635e-16)
(0.308461 0.723247 3.42643e-17)
(0.195442 0.710882 -9.67835e-18)
)
;

boundaryField
{
    right
    {
        type            cyclic;
    }
    left
    {
        type            cyclic;
    }
    outerWall
    {
        type            noSlip;
    }
    stirrerWall
    {
        type            noSlip;
    }
    top
    {
        type            empty;
    }
    bottom
    {
        type            empty;
    }
}


// ************************************************************************* //
