/*--------------------------------*- C++ -*----------------------------------*\
  =========                 |
  \\      /  F ield         | OpenFOAM: The Open Source CFD Toolbox
   \\    /   O peration     | Website:  https://openfoam.org
    \\  /    A nd           | Version:  10
     \\/     M anipulation  |
\*---------------------------------------------------------------------------*/
FoamFile
{
    format      ascii;
    class       volVectorField;
    location    "1000";
    object      Urel;
}
// * * * * * * * * * * * * * * * * * * * * * * * * * * * * * * * * * * * * * //

dimensions      [0 1 -1 0 0 0 0];

internalField   nonuniform List<vector> 
2000
(
(1.60011 -6.52149 8.0561e-18)
(-0.0749032 -2.83024 -4.8707e-18)
(3.43849 1.48295 2.77881e-19)
(6.40341 5.80996 0)
(8.40181 8.91876 0)
(9.73489 10.4751 1.49453e-16)
(10.5488 10.8162 -2.06184e-16)
(10.9863 10.2412 -2.71665e-16)
(11.1992 9.00803 3.47924e-16)
(11.2846 7.32434 4.37701e-16)
(11.3126 5.35334 5.45178e-16)
(11.3127 3.24213 0)
(11.2945 1.1276 8.20214e-16)
(11.271 -0.988098 9.87326e-16)
(11.0899 -3.37452 1.09359e-15)
(10.931 -5.80404 1.11176e-15)
(11.0757 -7.20984 -1.11369e-15)
(10.8486 -8.87317 4.38187e-16)
(11.0157 -12.6211 4.06155e-16)
(10.7432 -15.7519 1.61411e-15)
(1.8722 -6.49088 -1.99724e-17)
(-1.45092 -3.83689 -7.97671e-18)
(2.96693 -0.398107 -1.13679e-17)
(5.86828 4.25841 -1.7548e-16)
(8.23196 7.83433 3.70445e-17)
(9.89923 9.80087 -6.23296e-16)
(11.0084 10.454 3.79772e-16)
(11.684 10.1188 7.82671e-16)
(12.0539 9.04547 3.14978e-16)
(12.1774 7.46866 3.97788e-16)
(12.1374 5.57618 -9.88658e-16)
(11.992 3.47191 -5.99841e-16)
(11.7912 1.22884 -7.93575e-16)
(11.6313 -1.14555 -9.62097e-16)
(11.3458 -3.67812 -3.1519e-15)
(11.0749 -5.80607 -1.19457e-15)
(11.0704 -7.48726 2.91519e-15)
(11.3213 -9.79429 -2.4517e-15)
(11.328 -12.4673 0)
(10.7347 -14.8042 -2.26855e-15)
(2.625 -6.1698 1.2305e-17)
(-1.80625 -4.40017 -9.70067e-18)
(1.60722 -2.41638 -2.07112e-18)
(4.09534 1.80082 1.69428e-16)
(6.88172 5.68438 3.79156e-16)
(9.05539 8.17415 1.2632e-16)
(10.6206 9.30167 3.9673e-16)
(11.6633 9.37018 -7.471e-16)
(12.2941 8.62977 -6.55134e-16)
(12.6031 7.31519 -8.07293e-16)
(12.6787 5.6127 9.88315e-16)
(12.5973 3.62252 0)
(12.4133 1.44554 -2.83494e-15)
(12.2464 -0.804915 0)
(11.8434 -3.26099 0)
(11.5173 -5.4938 0)
(11.5036 -7.40412 1.89047e-15)
(11.3994 -9.36427 -2.97032e-15)
(10.8833 -11.516 0)
(9.92713 -13.4445 1.52211e-15)
(3.36786 -5.78466 -3.94164e-17)
(-1.40328 -4.58621 1.02683e-16)
(0.500537 -3.36109 0)
(2.63401 -0.273419 3.75479e-16)
(5.19785 3.45571 1.45008e-16)
(7.67132 6.30393 1.28898e-16)
(9.59071 7.89199 -5.31151e-17)
(10.9753 8.40447 1.34614e-15)
(11.9016 8.06856 0)
(12.4647 7.09741 6.24338e-16)
(12.7488 5.65151 8.4482e-16)
(12.8499 3.84629 2.1541e-15)
(12.74 1.79367 2.74122e-15)
(12.6323 -0.345121 6.5199e-15)
(12.2556 -2.69745 -3.0861e-15)
(11.7781 -4.87592 -1.94304e-16)
(11.3508 -6.85641 6.01704e-15)
(10.6867 -8.62329 2.90542e-15)
(9.6548 -10.3314 2.9041e-15)
(8.27857 -11.8741 3.01382e-15)
(4.0481 -5.45281 0)
(-0.768636 -4.56996 -2.30487e-16)
(0.139256 -3.95262 -1.14172e-16)
(1.90238 -1.83123 -5.46318e-16)
(3.56963 1.34509 -7.3656e-16)
(5.99466 4.22345 2.22782e-16)
(8.07265 6.1622 -7.83661e-16)
(9.67888 7.09689 -1.34027e-15)
(10.8282 7.17437 -5.18241e-16)
(11.5883 6.56986 8.01395e-17)
(12.0318 5.42607 -1.60682e-15)
(12.211 3.86451 -2.18288e-15)
(12.1935 2.00238 -2.46781e-15)
(12.0414 0.00549872 -3.07173e-15)
(11.6506 -2.11725 0)
(10.8813 -4.10738 6.4055e-17)
(9.98957 -5.95259 8.24503e-17)
(8.71606 -7.43116 -3.00543e-15)
(7.1429 -8.80242 -9.45662e-15)
(5.52427 -10.1118 2.95074e-15)
(4.55119 -5.19116 0)
(-0.225798 -4.51615 1.39446e-16)
(0.510511 -4.23905 0)
(1.39346 -2.64218 3.52257e-16)
(2.53625 -0.331402 1.01942e-15)
(4.31364 2.20871 0)
(6.28618 4.27861 1.41838e-15)
(7.91345 5.54496 2.75e-15)
(9.12977 6.00531 0)
(9.95878 5.76929 -1.14803e-15)
(10.4416 4.95652 3.61596e-15)
(10.6101 3.67579 3.1357e-16)
(10.5233 2.05623 2.90844e-15)
(10.1545 0.243626 -2.70637e-15)
(9.51466 -1.5552 0)
(8.38898 -3.20803 -5.80662e-15)
(6.83783 -4.73369 -3.04926e-15)
(5.06662 -5.97264 0)
(3.26205 -7.14053 7.12437e-15)
(1.80633 -8.46186 -1.46992e-14)
(4.9359 -4.99097 -1.60633e-16)
(0.152481 -4.47617 5.05811e-17)
(1.03597 -4.35682 -4.20915e-16)
(1.1332 -3.20513 -1.71342e-16)
(2.14403 -1.39139 8.69732e-17)
(3.02871 0.600092 -8.43443e-16)
(4.52058 2.50626 1.58047e-15)
(5.92706 3.93144 -2.86062e-15)
(7.00641 4.69829 -3.64395e-15)
(7.71373 4.81084 2.6916e-15)
(8.04404 4.33285 -2.05193e-15)
(8.00001 3.35379 -2.30572e-15)
(7.63277 2.00433 2.4172e-15)
(6.86592 0.452648 -5.85147e-15)
(5.73022 -0.955406 0)
(4.06041 -2.17367 1.31992e-14)
(1.92333 -3.29852 -1.36958e-14)
(-0.113935 -4.35624 7.12152e-15)
(-1.56246 -5.59501 8.8692e-15)
(-2.0572 -7.36504 3.40465e-16)
(5.22408 -4.81876 -7.92426e-18)
(0.413891 -4.48979 -1.25535e-16)
(1.49081 -4.48657 5.08976e-16)
(1.40364 -3.57966 -7.5999e-16)
(1.88666 -2.00397 -1.26666e-15)
(2.50176 -0.453491 0)
(3.11164 1.13751 -1.95283e-15)
(4.03572 2.50593 0)
(4.75657 3.45859 2.67446e-15)
(5.12411 3.86536 0)
(5.07568 3.71491 0)
(4.57529 3.07057 -4.24874e-16)
(3.62742 2.02978 1.15994e-14)
(2.18584 0.80245 7.29891e-15)
(0.252067 -0.0647956 3.92837e-16)
(-2.10746 -0.75623 -7.48061e-15)
(-4.47665 -1.49548 0)
(-5.73519 -2.88731 0)
(-5.64277 -5.38425 1.25174e-14)
(-4.48243 -8.653 2.89482e-14)
(5.42964 -4.65604 1.50152e-16)
(0.548492 -4.55046 -3.40849e-16)
(1.72242 -4.62948 2.6089e-16)
(1.6714 -3.85815 -5.50809e-16)
(1.83709 -2.45965 -8.36581e-16)
(2.20086 -0.977418 9.0222e-16)
(2.37559 0.239831 1.45924e-15)
(2.51302 1.48549 -1.23527e-15)
(2.70625 2.52695 0)
(2.55164 3.17811 -4.08175e-15)
(1.92808 3.36158 4.02157e-15)
(0.736467 3.12814 -5.50696e-15)
(-1.13133 2.5674 0)
(-3.567 1.63393 7.7539e-16)
(-6.33304 1.12039 5.8141e-16)
(-8.82041 -0.0734927 1.34177e-14)
(-10.219 -2.71661 -3.13438e-14)
(-8.97547 -5.4223 1.59072e-14)
(-6.62628 -7.41555 -1.4963e-14)
(-4.29282 -9.98668 -1.36112e-14)
(5.56222 -4.47498 0)
(0.573042 -4.60463 -5.53932e-18)
(1.73928 -4.79071 -7.35367e-16)
(1.74789 -4.17984 -1.06591e-16)
(1.87692 -2.87567 0)
(1.83299 -1.35149 0)
(1.82884 -0.145639 -5.09536e-15)
(1.53241 0.900966 1.65044e-15)
(1.08956 2.06936 -8.74304e-15)
(0.360858 2.97477 -9.03707e-16)
(-0.901318 3.53713 1.10527e-14)
(-2.7712 3.83165 -6.29903e-15)
(-5.33881 3.76311 5.36899e-16)
(-8.49141 2.19142 2.13852e-15)
(-11.286 1.01286 -1.46149e-14)
(-11.9716 0.341305 0)
(-10.949 -1.9211 -1.47092e-14)
(-8.71587 -4.81347 5.25006e-14)
(-6.2012 -8.11545 -2.30843e-14)
(-3.77996 -11.3516 1.18442e-14)
(5.62623 -4.24051 7.98363e-17)
(0.504862 -4.63358 3.94728e-16)
(1.59918 -4.96024 7.25949e-16)
(1.58418 -4.56166 4.23974e-16)
(1.72942 -3.36805 7.45647e-16)
(1.58465 -1.72986 0)
(1.14729 -0.265622 1.39726e-15)
(0.899105 0.656841 2.18941e-15)
(-0.00348986 2.03654 -6.44556e-15)
(-1.14183 3.27166 1.20137e-14)
(-2.7926 4.08107 8.59211e-15)
(-5.08498 4.56016 -8.40388e-15)
(-8.29091 6.19546 1.81148e-14)
(-11.5207 7.13647 9.871e-15)
(-13.5313 5.64989 9.87099e-15)
(-13.7349 2.2941 1.23043e-15)
(-12.0104 -2.70826 -9.21022e-15)
(-8.7388 -6.98148 6.01244e-16)
(-5.4156 -10.0706 -2.15847e-14)
(-2.5175 -12.9355 -1.18744e-14)
(5.61866 -3.92293 0)
(0.30951 -4.6067 -3.09669e-16)
(1.19806 -5.1295 2.96869e-16)
(1.13167 -5.00046 -7.20002e-16)
(1.32723 -4.00953 1.89843e-15)
(1.25354 -2.34087 -1.25878e-15)
(0.785025 -0.638856 0)
(0.463721 0.284589 0)
(-0.572072 1.84879 6.77691e-15)
(-2.0979 3.60082 0)
(-4.59646 5.2977 1.07575e-15)
(-8.04282 7.36929 -1.41474e-14)
(-11.2744 8.67873 7.5459e-15)
(-13.6956 7.76889 -6.69116e-15)
(-14.4558 5.77095 0)
(-12.8876 1.84942 8.27726e-15)
(-9.43536 -3.93367 0)
(-5.75818 -8.39718 -1.10239e-14)
(-2.96944 -11.2993 -2.2484e-14)
(-0.460555 -13.9733 2.05964e-14)
(5.53542 -3.49461 -6.80225e-17)
(-0.02652 -4.47968 -4.62391e-16)
(0.619152 -5.24165 0)
(0.450869 -5.43084 -1.2396e-15)
(0.520536 -4.64595 -8.20727e-16)
(0.364333 -3.04968 -1.28922e-15)
(-0.174132 -1.27763 0)
(-0.804051 -0.261771 0)
(-1.88687 1.26097 8.31884e-15)
(-3.9237 4.21941 0)
(-6.62039 6.41874 7.82824e-15)
(-9.35387 8.61838 -6.10761e-15)
(-11.7264 10.1675 -5.81016e-15)
(-13.3224 9.79234 1.02594e-15)
(-13.0713 6.52978 -2.17599e-14)
(-11.0004 1.98592 7.54448e-15)
(-7.02076 -4.53931 -1.10341e-14)
(-3.65863 -8.90098 0)
(-0.713722 -11.7378 -1.08534e-14)
(1.86818 -14.3201 3.21245e-14)
(5.37791 -2.93398 -1.10988e-16)
(-0.478969 -4.21822 8.92209e-16)
(-0.0732193 -5.29934 -3.10761e-16)
(-0.344682 -5.83911 1.18942e-15)
(-0.385343 -5.27503 1.78609e-15)
(-0.675154 -3.53969 -3.35866e-15)
(-1.39776 -1.31969 9.01038e-15)
(-2.18954 0.157737 -1.28409e-14)
(-3.36348 1.44917 -3.39898e-16)
(-5.22424 4.85829 -7.56113e-15)
(-7.57255 7.54889 1.9344e-14)
(-10.0122 9.94281 -1.27484e-14)
(-11.8895 11.4085 5.75322e-15)
(-12.522 10.6846 0)
(-11.4028 7.80478 0)
(-8.64602 2.4121 0)
(-3.83624 -4.50142 1.39033e-14)
(-0.506741 -9.01569 9.64466e-16)
(2.59375 -11.7482 -1.19595e-14)
(4.95984 -14.0894 -1.11372e-14)
(5.15076 -2.21838 -4.27284e-17)
(-1.00765 -3.79824 -1.01552e-15)
(-0.831449 -5.23254 -5.32188e-16)
(-1.20303 -6.21889 5.10176e-16)
(-1.29932 -6.10244 1.09467e-15)
(-1.43334 -4.61972 -1.20774e-15)
(-1.79314 -2.29243 0)
(-2.35334 -0.391591 0)
(-3.7651 1.26834 0)
(-5.83948 4.97872 0)
(-7.90628 8.07991 -1.19095e-14)
(-9.72861 10.7334 1.85165e-14)
(-10.4557 12.3596 -5.99625e-15)
(-10.0347 12.0204 0)
(-8.00351 9.11455 0)
(-4.41971 3.74219 0)
(0.689402 -2.69043 3.69155e-14)
(3.49246 -7.78039 1.0423e-15)
(6.49338 -10.8 6.83617e-16)
(8.3328 -12.9282 0)
(4.83878 -1.40463 0)
(-1.56112 -3.21223 2.14996e-15)
(-1.57435 -4.95168 -5.61608e-16)
(-2.09127 -6.37904 3.08925e-15)
(-2.34992 -6.99157 -3.60648e-15)
(-2.46064 -6.28696 0)
(-2.52888 -4.57149 0)
(-2.94272 -2.58889 1.31188e-14)
(-4.25236 -0.0687173 0)
(-5.96518 4.23958 0)
(-7.52741 7.94624 -1.34033e-14)
(-8.26116 11.0168 2.11683e-14)
(-8.21518 12.9623 -7.0475e-15)
(-6.40203 13.0802 -3.65399e-14)
(-3.15467 11.1385 -1.72533e-15)
(1.0755 6.58506 -2.19508e-15)
(6.83441 2.14123 1.20308e-13)
(8.99974 -4.24625 3.73584e-14)
(11.1613 -7.87547 0)
(11.8636 -10.11 -2.87382e-14)
(4.42956 -0.516583 0)
(-2.02513 -2.46835 -1.15893e-15)
(-2.12232 -4.23712 2.03196e-15)
(-2.83949 -6.01767 -1.81354e-15)
(-3.41754 -7.17495 2.7667e-15)
(-3.87218 -7.39303 0)
(-4.18067 -6.60544 0)
(-4.72307 -4.9237 -2.23749e-17)
(-5.54367 -1.98942 -8.01748e-15)
(-5.97298 2.61356 6.29668e-15)
(-6.47033 6.8023 1.44455e-14)
(-6.44764 10.3887 -1.65786e-14)
(-4.95204 12.7871 -3.87915e-14)
(-1.79612 13.4709 3.60465e-14)
(2.07092 12.2914 1.84374e-14)
(5.98247 9.19535 -2.21455e-14)
(10.0575 5.20142 -8.79747e-16)
(13.0631 -0.317349 -2.22917e-14)
(14.0649 -4.19444 -2.31059e-14)
(13.2459 -6.51261 4.77848e-14)
(3.97073 0.379682 0)
(-2.20502 -1.66575 1.29335e-15)
(-2.12032 -3.02506 -2.21065e-15)
(-2.97744 -4.69159 2.22096e-15)
(-3.92008 -6.14406 8.14661e-16)
(-4.81649 -6.94241 0)
(-5.52676 -7.01395 0)
(-6.06845 -6.10918 -5.34354e-15)
(-6.28813 -3.93353 -1.49101e-15)
(-5.65713 -0.151186 6.33734e-15)
(-5.05252 4.11806 0)
(-3.70692 8.03251 0)
(-0.789169 10.5005 1.81426e-14)
(3.22117 11.7188 -9.72131e-16)
(7.13557 11.5808 1.83331e-14)
(10.6895 9.96073 -1.86664e-14)
(13.5057 7.0253 0)
(14.9183 2.48965 0)
(14.1709 -1.2194 0)
(11.9607 -3.65033 0)
(3.32409 1.07698 2.93317e-16)
(-1.8674 -0.985523 -2.87481e-15)
(-1.18197 -1.54452 3.71751e-15)
(-1.8482 -2.63804 -4.40416e-15)
(-3.01006 -3.8649 -2.66191e-15)
(-4.34598 -4.85799 8.19588e-15)
(-5.59978 -5.42026 0)
(-6.42131 -5.48945 -8.92176e-15)
(-6.84262 -4.4814 -6.65607e-15)
(-5.8753 -2.29365 6.61055e-15)
(-4.50978 0.965329 3.05476e-14)
(-1.81651 4.74318 -3.69351e-14)
(2.38426 7.51916 4.4082e-14)
(6.48711 9.24026 -1.89443e-14)
(9.85378 9.53612 1.89813e-14)
(12.3729 8.35317 -3.651e-14)
(13.8024 6.03112 1.98116e-14)
(12.6008 2.79942 -1.92923e-14)
(9.73638 -0.333983 0)
(5.66513 -2.70255 0)
(1.89504 1.1167 0)
(-1.481 -0.639123 2.39193e-15)
(-0.965227 -0.665112 -4.0558e-15)
(-1.49347 -0.926934 0)
(-2.19454 -1.35856 0)
(-2.89658 -1.87433 -8.80879e-15)
(-3.49444 -2.40987 -5.8576e-15)
(-3.88016 -2.85405 5.73951e-15)
(-3.79303 -2.98676 0)
(-2.91079 -2.6909 0)
(-1.44174 -1.84623 -2.18666e-14)
(0.368488 -0.552583 0)
(2.29735 0.798263 -3.42134e-14)
(4.2123 1.90535 -3.84893e-14)
(5.40443 2.54076 7.25051e-14)
(5.4545 2.87513 4.03752e-14)
(4.47444 3.13653 0)
(2.68308 3.54093 4.92441e-14)
(1.36514 3.37297 5.42265e-14)
(1.66941 0.0603081 -5.68963e-14)
(10.0499 -18.0434 -7.71536e-16)
(8.99758 -19.6423 -3.9408e-17)
(7.64239 -20.8424 7.9393e-16)
(6.16161 -21.9843 -8.81498e-16)
(4.89245 -23.5125 8.52606e-16)
(3.97249 -25.8301 -9.19726e-16)
(3.31609 -28.946 8.41595e-16)
(2.8583 -32.3254 8.54992e-16)
(2.50306 -35.5251 -7.69077e-16)
(2.19318 -38.4978 -1.50235e-15)
(1.93419 -41.3311 -2.90843e-15)
(1.71758 -44.0781 1.34008e-15)
(1.56359 -46.8117 0)
(1.43933 -49.5432 0)
(1.32568 -52.3412 -2.47011e-15)
(1.43531 -55.3722 0)
(0.748881 -57.7516 0)
(2.89228 -62.7956 1.08445e-15)
(-4.2764 -59.7309 -1.04803e-15)
(15.9705 -78.3033 3.51727e-15)
(9.75652 -16.6194 -1.59997e-15)
(8.49504 -17.9565 -9.20773e-16)
(7.04774 -19.0842 -4.57048e-17)
(5.66745 -20.3958 -1.7307e-15)
(4.70483 -22.3169 -3.74787e-15)
(4.18389 -25.0629 3.50678e-15)
(3.90519 -28.4253 1.19829e-16)
(3.7495 -31.8681 -3.24074e-15)
(3.61942 -35.0865 -3.16239e-15)
(3.48993 -38.0971 -1.58417e-15)
(3.38529 -40.9803 4.23289e-15)
(3.30087 -43.7769 2.66986e-15)
(3.27476 -46.5519 7.86794e-15)
(3.25811 -49.3185 0)
(3.27054 -52.1385 7.41145e-15)
(3.47391 -55.184 -4.876e-15)
(2.91316 -57.6051 9.02366e-15)
(5.20212 -62.6117 4.33554e-15)
(-2.01152 -59.8706 -4.1835e-15)
(18.6873 -77.5308 -1.28497e-18)
(8.69514 -14.9657 -3.2191e-15)
(7.29602 -16.1699 3.12075e-15)
(5.89406 -17.3901 8.75332e-15)
(4.80139 -19.06 -1.66896e-15)
(4.30879 -21.482 0)
(4.2754 -24.6213 -1.34479e-16)
(4.40177 -28.1207 3.47335e-15)
(4.54661 -31.5394 0)
(4.64202 -34.7253 3.19333e-15)
(4.70301 -37.7362 -6.20499e-15)
(4.76825 -40.6373 5.59273e-15)
(4.83218 -43.4589 -5.51443e-15)
(4.94553 -46.2545 1.36978e-16)
(5.0436 -49.0466 -4.97762e-15)
(5.19167 -51.8759 -4.9458e-15)
(5.49111 -54.9327 0)
(5.06053 -57.3765 -4.57821e-15)
(7.50479 -62.3389 0)
(0.222247 -59.9055 -8.56008e-15)
(21.4975 -76.6844 0)
(6.82889 -13.1943 1.47422e-16)
(5.44689 -14.4539 -3.30154e-15)
(4.34243 -16.0069 -7.42563e-15)
(3.81287 -18.2209 0)
(3.9619 -21.1474 -8.26228e-15)
(4.44055 -24.5218 3.57866e-15)
(4.92406 -27.9964 3.64409e-15)
(5.32357 -31.3052 6.79806e-15)
(5.6246 -34.4185 -6.39837e-15)
(5.87146 -37.4014 6.23113e-15)
(6.10604 -40.2961 3.18223e-16)
(6.31994 -43.1244 -5.36225e-15)
(6.57621 -45.9242 0)
(6.79474 -48.733 1.02266e-14)
(7.08487 -51.555 -1.01614e-14)
(7.48094 -54.6258 -2.59688e-16)
(7.18842 -57.0723 -9.42778e-15)
(9.78708 -61.9858 8.41355e-15)
(2.44157 -59.8648 9.15087e-15)
(24.3054 -75.7325 3.07679e-16)
(4.12957 -11.4651 1.44999e-14)
(3.13732 -13.0828 -1.15089e-14)
(2.7079 -15.2286 3.73065e-15)
(2.99542 -18.0585 0)
(3.82776 -21.3273 0)
(4.74083 -24.7064 -8.26088e-15)
(5.4999 -28.0135 1.4566e-14)
(6.10625 -31.1554 -1.39985e-14)
(6.59304 -34.1688 5.90348e-15)
(7.01715 -37.0991 1.18394e-14)
(7.41652 -39.9639 1.1887e-14)
(7.77989 -42.779 -1.10611e-14)
(8.17922 -45.5634 1.03266e-14)
(8.52067 -48.3783 -2.0118e-17)
(8.95333 -51.1743 1.01683e-14)
(9.44804 -54.2611 2.74542e-16)
(9.30156 -56.6858 -9.4322e-15)
(12.0505 -61.5485 1.66611e-14)
(4.66381 -59.7477 -1.70702e-14)
(27.0874 -74.6737 -1.41287e-14)
(1.02552 -10.1863 4.58e-15)
(0.927249 -12.4833 -3.71545e-15)
(1.48983 -15.3328 3.51023e-16)
(2.64449 -18.5942 0)
(4.0076 -21.8864 0)
(5.2004 -25.0531 -1.70265e-14)
(6.14305 -28.1142 1.45926e-14)
(6.91558 -31.0712 2.83e-14)
(7.5711 -33.9719 -1.91726e-14)
(8.16137 -36.8307 -1.2602e-14)
(8.71683 -39.6451 2.32206e-14)
(9.22514 -42.4293 -4.43114e-14)
(9.7634 -45.1801 1.00397e-14)
(10.2291 -47.9913 9.94933e-15)
(10.801 -50.7405 1.0178e-14)
(11.397 -53.8451 -9.21836e-15)
(11.3974 -56.2211 0)
(14.2903 -61.039 1.73204e-14)
(6.8825 -59.5578 1.82555e-14)
(29.8327 -73.5073 1.47782e-14)
(-1.54058 -9.94599 -1.08811e-14)
(-0.440269 -13.0998 0)
(1.05759 -16.3693 2.34532e-14)
(2.81411 -19.6037 -2.03583e-14)
(4.44937 -22.6143 0)
(5.7892 -25.4612 0)
(6.85567 -28.2637 -7.65722e-15)
(7.77026 -31.0378 -2.82275e-14)
(8.57921 -33.8168 1.31314e-14)
(9.32189 -36.5876 0)
(10.0222 -39.3338 0)
(10.6688 -42.0717 1.11178e-14)
(11.3384 -44.7726 -1.06677e-14)
(11.9286 -47.5722 -1.02705e-14)
(12.6314 -50.2547 -2.03783e-14)
(13.3329 -53.3821 1.84337e-14)
(13.4745 -55.6805 5.6878e-16)
(16.5066 -60.4617 5.06808e-16)
(9.10157 -59.296 -1.70335e-14)
(32.5335 -72.2343 -1.42008e-14)
(-2.58717 -11.9855 -1.43859e-14)
(-0.619246 -14.8642 -2.78101e-14)
(1.38359 -17.7374 -1.66032e-15)
(3.37691 -20.6786 3.20279e-14)
(5.08088 -23.35 0)
(6.4917 -25.874 1.71947e-14)
(7.65306 -28.4334 -1.596e-14)
(8.69397 -31.0274 1.34305e-14)
(9.63852 -33.6741 1.28465e-14)
(10.5157 -36.3424 -1.27404e-14)
(11.3457 -39.0069 1.13723e-14)
(12.1202 -41.6873 0)
(12.9093 -44.3268 -2.19439e-14)
(13.6231 -47.1094 4.10796e-14)
(14.4437 -49.7089 -3.91066e-14)
(15.258 -52.8676 0)
(15.5287 -55.0589 2.02286e-17)
(18.6982 -59.8174 -1.69049e-14)
(11.3222 -58.9599 3.48331e-14)
(35.1806 -70.8541 -4.20713e-14)
(-2.12444 -12.9676 -9.16051e-16)
(-0.0504237 -15.9961 3.53231e-14)
(2.12527 -18.903 -2.12442e-14)
(4.19776 -21.5877 -1.01087e-14)
(5.89574 -23.9786 1.88269e-14)
(7.33509 -26.2545 -3.48645e-14)
(8.56871 -28.5983 1.52118e-14)
(9.71349 -31.0146 0)
(10.7676 -33.5234 3.69553e-16)
(11.7558 -36.0821 -1.21035e-14)
(12.6967 -38.6571 -2.41266e-14)
(13.5864 -41.2721 2.16917e-14)
(14.4802 -43.8411 -2.19797e-14)
(15.3168 -46.6006 2.05651e-14)
(16.2362 -49.1034 2.09954e-14)
(17.1753 -52.3015 -1.84171e-14)
(17.5552 -54.3556 5.56632e-14)
(20.8656 -59.1071 -1.63688e-14)
(13.5471 -58.5495 -3.40162e-14)
(37.762 -69.3668 2.46521e-17)
(-1.46119 -14.4256 -1.09741e-14)
(0.847518 -17.3303 4.29758e-14)
(3.16965 -20.0269 1.14148e-15)
(5.24444 -22.4005 -3.81233e-14)
(6.90355 -24.5107 -1.88943e-14)
(8.34956 -26.5647 3.32118e-14)
(9.62798 -28.7294 0)
(10.8383 -30.9791 1.48756e-14)
(11.971 -33.3501 -2.6419e-14)
(13.0458 -35.7959 0)
(14.0787 -38.2758 -2.35344e-14)
(15.0708 -40.8186 2.23422e-14)
(16.0541 -43.3106 0)
(17.0134 -46.0411 4.11213e-14)
(18.008 -48.4393 -1.98716e-14)
(19.0895 -51.6833 0)
(19.5499 -53.5719 -5.57279e-14)
(23.0122 -58.3347 5.0908e-14)
(15.7819 -58.0644 3.48371e-14)
(40.264 -67.775 5.73496e-14)
(-0.00498703 -15.6727 2.049e-14)
(2.34458 -18.3632 1.0755e-14)
(4.6134 -20.8739 -1.87435e-14)
(6.56218 -22.9829 -1.87745e-14)
(8.12061 -24.8927 3.4729e-14)
(9.53281 -26.763 -3.23543e-14)
(10.8242 -28.7643 1.54404e-14)
(12.0617 -30.8647 -2.96359e-14)
(13.243 -33.1084 3.95431e-14)
(14.3814 -35.4458 2.57346e-14)
(15.4871 -37.8322 -2.29202e-14)
(16.5684 -40.3035 6.08296e-16)
(17.6259 -42.7195 -2.08445e-14)
(18.7091 -45.4188 -6.22687e-14)
(19.7528 -47.7136 3.98246e-14)
(21.0018 -51.0054 1.07603e-15)
(21.5045 -52.7072 3.73426e-14)
(25.1394 -57.5004 0)
(18.0243 -57.497 -3.39784e-14)
(42.6643 -66.0869 2.87681e-14)
(1.82205 -16.5068 0)
(4.02309 -19.1015 0)
(6.21914 -21.4495 -1.90863e-14)
(8.04505 -23.314 -8.81073e-16)
(9.51206 -25.0749 5.10198e-14)
(10.8644 -26.7952 -1.57249e-14)
(12.1363 -28.6585 1.60509e-14)
(13.3667 -30.6321 -2.78516e-14)
(14.5727 -32.7688 0)
(15.7544 -35.014 2.50685e-14)
(16.9155 -37.317 2.3594e-14)
(18.0734 -39.7218 0)
(19.1905 -42.0667 -2.20457e-14)
(20.3991 -44.7304 4.05591e-14)
(21.4656 -46.9286 4.04132e-14)
(22.9141 -50.2578 -1.72794e-14)
(23.4083 -51.777 -7.27143e-14)
(27.2474 -56.6047 0)
(20.273 -56.8349 0)
(44.9489 -64.3183 -8.97269e-18)
(4.00575 -16.7614 -1.99438e-14)
(5.97008 -19.324 0)
(8.05153 -21.6311 3.26541e-16)
(9.69263 -23.3628 1.85344e-14)
(11.0494 -25.0327 -3.31568e-14)
(12.3028 -26.6333 0)
(13.5273 -28.3889 1.51415e-14)
(14.7237 -30.2677 0)
(15.9377 -32.3197 0)
(17.1484 -34.4901 -2.50435e-14)
(18.3532 -36.7223 0)
(19.5803 -39.0673 2.29953e-14)
(20.7453 -41.3483 -6.43797e-14)
(22.0811 -43.9705 4.11224e-14)
(23.145 -46.0854 -1.93777e-14)
(24.8285 -49.4278 7.55263e-14)
(25.252 -50.7939 0)
(29.3371 -55.6547 -3.35641e-14)
(22.5195 -56.0673 0)
(47.0813 -62.5036 5.79054e-14)
(6.49842 -16.3098 0)
(8.00154 -18.9243 3.2423e-16)
(9.99635 -21.3737 6.31734e-16)
(11.4139 -23.0848 -5.2931e-14)
(12.6579 -24.7127 1.64117e-14)
(13.7783 -26.247 -1.60145e-14)
(14.9419 -27.9328 -1.50592e-14)
(16.0939 -29.752 2.91415e-14)
(17.3078 -31.7446 -2.59657e-14)
(18.5401 -33.8608 -5.06824e-14)
(19.7806 -36.037 2.29348e-14)
(21.0731 -38.3306 2.23756e-14)
(22.2792 -40.5583 2.14651e-14)
(23.7451 -43.132 2.05582e-14)
(24.787 -45.185 0)
(26.7392 -48.5049 1.06782e-15)
(27.0244 -49.7459 -7.29512e-14)
(31.4091 -54.6534 -8.10106e-16)
(24.7403 -55.155 3.30413e-14)
(49.0327 -60.7004 -5.81017e-14)
(8.95113 -14.887 2.27081e-14)
(9.93946 -17.8244 2.02629e-14)
(11.9514 -20.6239 1.87136e-14)
(13.0999 -22.4391 -1.86316e-14)
(14.2421 -24.0851 1.61369e-14)
(15.2169 -25.6224 3.28271e-14)
(16.3261 -27.2844 -1.43845e-14)
(17.4385 -29.0836 -5.76546e-14)
(18.6535 -31.0443 -1.37793e-15)
(19.9081 -33.1273 -1.33515e-15)
(21.1836 -35.2617 2.2911e-14)
(22.5411 -37.5107 -4.47249e-14)
(23.7839 -39.6964 0)
(25.3818 -42.2128 2.1704e-14)
(26.3883 -44.2324 -7.99036e-14)
(28.6378 -47.4833 3.66216e-14)
(28.7117 -48.6483 3.70889e-14)
(33.475 -53.5843 0)
(26.8773 -54.0854 -3.39894e-14)
(50.9603 -58.8606 0)
(11.1629 -12.1708 6.3846e-16)
(11.5353 -16.0081 5.11107e-16)
(13.735 -19.3366 1.9477e-14)
(14.6164 -21.4194 -5.57097e-14)
(15.7082 -23.1596 5.08114e-14)
(16.5588 -24.7761 1.62066e-14)
(17.6271 -26.4585 -1.51714e-14)
(18.7152 -28.2747 2.76554e-14)
(19.9439 -30.2268 2.5847e-14)
(21.2301 -32.2928 -1.7622e-17)
(22.5445 -34.3976 0)
(23.9699 -36.6078 -6.12891e-16)
(25.2494 -38.7637 2.08856e-14)
(26.9794 -41.213 4.22738e-14)
(27.9459 -43.2342 2.25354e-15)
(30.5128 -46.3611 -7.43113e-14)
(30.3084 -47.5226 3.83029e-14)
(35.5584 -52.415 -6.5624e-14)
(28.9509 -52.9368 3.3851e-14)
(52.6809 -57.0834 0)
(11.7927 -8.98165 0)
(12.0933 -14.0412 -2.18622e-14)
(14.9659 -17.7629 -1.95488e-14)
(15.7393 -20.2037 0)
(16.9021 -22.0505 5.20239e-14)
(17.7216 -23.7832 -4.74466e-14)
(18.7967 -25.5053 -6.08915e-14)
(19.8989 -27.3562 -6.73068e-16)
(21.1604 -29.3101 0)
(22.4907 -31.3675 -1.75145e-17)
(23.8497 -33.4508 2.35023e-14)
(25.3469 -35.6246 0)
(26.6651 -37.762 4.41613e-14)
(28.5238 -40.1328 -8.23309e-14)
(29.4534 -42.1954 3.89026e-14)
(32.3426 -45.1384 -1.88568e-17)
(31.8068 -46.3946 -3.72871e-14)
(37.6732 -51.1119 3.32207e-14)
(30.8832 -51.6444 -3.51896e-14)
(54.0543 -55.5997 5.56124e-14)
(10.0237 -6.72114 0)
(11.7116 -13.1089 0)
(15.6975 -16.4724 -3.88902e-14)
(16.5603 -19.1063 7.15655e-14)
(17.8693 -20.9212 -6.64053e-14)
(18.7358 -22.7307 1.58395e-14)
(19.8491 -24.4712 5.96336e-14)
(20.9896 -26.3535 2.87443e-14)
(22.2978 -28.3082 -2.56672e-14)
(23.6839 -30.3588 2.47783e-14)
(25.094 -32.4267 -4.75874e-14)
(26.6659 -34.5641 2.17561e-14)
(28.0255 -36.6935 4.42035e-14)
(30.0032 -38.9726 4.35345e-14)
(30.9024 -41.1142 -3.89557e-14)
(34.0904 -43.8026 3.6727e-14)
(33.1695 -45.2824 7.48052e-14)
(39.826 -49.6897 -3.22039e-14)
(32.5172 -50.1748 0)
(55.5797 -54.2488 0)
(7.18772 -6.58296 0)
(11.6932 -13.8773 2.21708e-14)
(16.4539 -15.5598 -1.84081e-14)
(17.3141 -18.1806 -3.59727e-14)
(18.7182 -19.7831 1.50421e-14)
(19.6168 -21.6365 3.0589e-14)
(20.787 -23.3771 5.17421e-18)
(21.9869 -25.2895 0)
(23.3623 -27.2429 0)
(24.8207 -29.286 5.01483e-14)
(26.2907 -31.3431 1.25793e-15)
(27.9422 -33.4415 -4.41511e-14)
(29.3509 -35.5759 0)
(31.437 -37.747 -8.26561e-14)
(32.3226 -39.9985 4.12596e-14)
(35.7465 -42.3399 -1.12592e-13)
(34.4106 -44.3032 3.73684e-14)
(41.9976 -47.9433 3.4139e-14)
(33.7978 -48.7136 -6.85591e-14)
(57.3879 -53.0922 5.48866e-14)
(10.4041 -7.3176 -1.10377e-15)
(13.1897 -14.682 -2.05091e-14)
(17.4717 -14.6324 -1.78193e-14)
(17.9467 -17.3439 1.67746e-14)
(19.4011 -18.7828 3.23994e-14)
(20.3091 -20.7603 -2.94665e-14)
(21.6357 -22.5286 -2.86226e-14)
(22.9546 -24.4542 2.77501e-14)
(24.4765 -26.3958 -2.48544e-14)
(26.0248 -28.3718 -2.46322e-14)
(27.5758 -30.388 4.56129e-14)
(29.2972 -32.4004 5.823e-16)
(30.7508 -34.5272 -4.31091e-14)
(32.9243 -36.5492 3.91702e-14)
(33.8423 -38.9422 0)
(37.3846 -40.7926 3.72273e-14)
(35.9276 -43.4849 1.108e-15)
(44.1166 -45.7161 -3.16356e-14)
(34.7154 -47.5665 0)
(59.1848 -52.4357 -5.36608e-14)
(14.6279 -4.67487 2.09936e-14)
(13.3629 -14.1377 -2.07031e-17)
(17.4789 -14.4445 1.59648e-14)
(17.3273 -17.3318 -3.02893e-14)
(18.9608 -18.7155 -4.55845e-16)
(19.831 -20.6232 1.39305e-14)
(21.3341 -22.2603 4.08174e-16)
(22.8158 -24.0417 1.88037e-17)
(24.5101 -25.8355 -2.28119e-14)
(26.2154 -27.6969 -2.13428e-14)
(27.8949 -29.6379 6.14717e-16)
(29.7034 -31.5671 -1.8872e-14)
(31.252 -33.7108 0)
(33.4426 -35.5983 6.95168e-14)
(34.4908 -38.1516 0)
(37.9825 -39.6172 -3.23844e-14)
(36.7793 -42.9332 3.11964e-14)
(44.9424 -43.9016 2.81103e-14)
(35.5533 -47.5093 -4.39351e-16)
(59.8688 -50.9393 3.16682e-16)
(14.9184 -4.92796 0)
(13.2095 -13.9192 1.38767e-14)
(17.4803 -14.4033 0)
(17.2325 -17.2373 1.24412e-14)
(18.9151 -18.6804 0)
(19.792 -20.5831 -2.25857e-14)
(21.3351 -22.2386 3.43433e-16)
(22.84 -24.0104 -3.08853e-16)
(24.557 -25.7976 1.90481e-14)
(26.2768 -27.6381 1.78735e-14)
(27.9763 -29.5631 -1.69833e-14)
(29.796 -31.4665 3.16034e-14)
(31.3716 -33.6045 0)
(33.5581 -35.4585 -2.95979e-14)
(34.663 -38.0409 4.66351e-16)
(38.1052 -39.415 -3.396e-18)
(36.9776 -42.8746 -4.06285e-16)
(45.0601 -43.566 -2.43349e-14)
(35.8223 -47.6029 -2.16716e-14)
(60.011 -50.6165 -1.74322e-14)
(15.0187 -5.43652 2.48832e-16)
(13.0309 -13.7264 -2.10341e-16)
(17.4447 -14.4439 0)
(17.1102 -17.1888 1.28724e-14)
(18.8446 -18.6945 1.14435e-14)
(19.7314 -20.5827 2.23379e-14)
(21.3157 -22.2472 6.74998e-16)
(22.8463 -24.0011 1.61016e-17)
(24.5875 -25.7764 -2.9317e-16)
(26.3242 -27.5926 -3.61637e-14)
(28.0455 -29.4983 -2.04396e-17)
(29.8784 -31.373 -3.19104e-14)
(31.4845 -33.5001 2.29754e-16)
(33.6642 -35.3182 -4.75678e-16)
(34.8315 -37.925 -2.85689e-14)
(38.2133 -39.2106 2.79493e-14)
(37.2149 -42.8021 4.31439e-16)
(45.1545 -43.2277 -3.62967e-16)
(36.1374 -47.6893 2.19614e-14)
(60.1373 -50.2352 3.50025e-14)
(15.0081 -5.97147 0)
(12.8471 -13.57 0)
(17.3574 -14.5211 1.28787e-14)
(16.9575 -17.1702 -1.24963e-14)
(18.7429 -18.7341 -1.14547e-14)
(19.6495 -20.601 -3.35265e-16)
(21.2791 -22.2689 -2.13645e-14)
(22.8382 -24.0013 -6.42079e-16)
(24.6053 -25.7622 2.9504e-16)
(26.3606 -27.5534 1.82064e-14)
(28.1052 -29.4384 3.41603e-14)
(29.9521 -31.2848 -1.80886e-17)
(31.5915 -33.3981 1.51293e-14)
(33.7649 -35.1814 0)
(34.9955 -37.8081 2.85333e-14)
(38.3149 -39.0103 4.24625e-16)
(37.457 -42.7177 2.66721e-14)
(45.2448 -42.8882 2.41645e-14)
(36.4599 -47.7541 3.58759e-16)
(60.2834 -49.8463 -1.75527e-14)
(14.9612 -6.48965 1.47859e-14)
(12.667 -13.4371 -1.16517e-17)
(17.2336 -14.6213 2.04877e-16)
(16.7879 -17.1694 -4.00147e-16)
(18.6258 -18.7888 -1.15235e-14)
(19.5622 -20.6302 -1.1439e-14)
(21.2393 -22.2988 2.14187e-14)
(22.8277 -24.0085 3.14264e-16)
(24.6201 -25.7548 1.94939e-14)
(26.3939 -27.5213 0)
(28.162 -29.3849 -1.72013e-14)
(30.0226 -31.2032 3.22072e-14)
(31.6966 -33.2996 -1.5124e-14)
(33.8635 -35.0496 0)
(35.1599 -37.6908 -4.67079e-16)
(38.4116 -38.8186 -2.76536e-14)
(37.7061 -42.6258 -2.66442e-14)
(45.3312 -42.5492 -2.38313e-14)
(36.7884 -47.8057 -3.34786e-16)
(60.4448 -49.453 2.75919e-16)
(14.9011 -6.97932 -2.9751e-14)
(12.4899 -13.3241 1.39761e-14)
(17.0806 -14.7383 8.25208e-19)
(16.6063 -17.1853 1.91017e-16)
(18.4992 -18.8558 2.38412e-14)
(19.4742 -20.6681 1.11207e-14)
(21.199 -22.335 -2.11733e-14)
(22.8171 -24.0213 -3.15267e-16)
(24.6339 -25.7526 -1.95472e-14)
(26.4256 -27.4946 -2.95653e-16)
(28.217 -29.3365 2.63503e-16)
(30.0908 -31.1274 -1.6215e-14)
(31.8003 -33.2045 -1.49039e-14)
(33.9602 -34.9226 -2.25923e-16)
(35.3247 -37.5724 2.90387e-14)
(38.5049 -38.632 2.80983e-14)
(37.9625 -42.5256 2.70684e-14)
(45.41 -42.219 -3.66312e-16)
(37.1237 -47.8442 -2.21163e-14)
(60.618 -49.053 2.63323e-16)
(14.8321 -7.43815 1.4496e-14)
(12.3124 -13.2283 -1.40422e-14)
(16.9026 -14.869 -2.57752e-14)
(16.4164 -17.2163 0)
(18.3669 -18.9329 1.20804e-17)
(19.3881 -20.7131 -3.55551e-16)
(21.1599 -22.3764 2.22117e-14)
(22.8077 -24.0387 3.32433e-16)
(24.6479 -25.7545 -2.987e-16)
(26.4569 -27.4722 0)
(28.2712 -29.2925 0)
(30.158 -31.0566 1.63363e-14)
(31.903 -33.1125 1.51399e-14)
(34.0557 -34.8002 2.98028e-14)
(35.4898 -37.4529 -5.85362e-14)
(38.5956 -38.4513 4.26597e-16)
(38.2247 -42.4204 -2.66067e-14)
(45.4795 -41.8969 0)
(37.4656 -47.875 1.02733e-17)
(60.8014 -48.6453 -1.78116e-14)
(14.7516 -7.86777 1.4402e-14)
(12.1315 -13.1479 1.45585e-14)
(16.7025 -15.0106 1.28952e-14)
(16.2227 -17.26 1.26402e-14)
(18.2326 -19.0178 -2.43605e-14)
(19.3062 -20.7637 -1.08085e-14)
(21.1233 -22.4217 1.68868e-17)
(22.8004 -24.06 -2.11096e-14)
(24.6629 -25.7597 0)
(26.4886 -27.4534 1.85887e-14)
(28.3254 -29.252 -2.80574e-16)
(30.2249 -30.9904 -1.58935e-14)
(32.0051 -33.0233 -2.30479e-16)
(34.1503 -34.6821 2.97805e-17)
(35.6554 -37.3321 2.90279e-14)
(38.6842 -38.2768 0)
(38.492 -42.31 0)
(45.5396 -41.5831 -2.4502e-14)
(37.814 -47.8988 9.79579e-18)
(60.9936 -48.2289 -3.21366e-17)
(14.6575 -8.27265 -2.90553e-14)
(11.9455 -13.0829 -1.43956e-14)
(16.4838 -15.1603 -1.29292e-14)
(16.0298 -17.3137 -1.2668e-14)
(18.0998 -19.1083 2.40324e-14)
(19.2308 -20.8184 0)
(21.0903 -22.4698 0)
(22.7962 -24.0841 -1.77483e-17)
(24.6798 -25.7673 0)
(26.5215 -27.4374 -1.86169e-14)
(28.3805 -29.2142 -1.72746e-14)
(30.2923 -30.9278 -1.67475e-14)
(32.1071 -32.9365 -1.54122e-14)
(34.2444 -34.5681 -5.94548e-14)
(35.8214 -37.2097 0)
(38.7704 -38.1078 0)
(38.7644 -42.1942 0)
(45.5904 -41.2776 2.45533e-14)
(38.1693 -47.917 4.31324e-14)
(61.1944 -47.8029 1.79022e-14)
(14.5513 -8.64187 1.44288e-14)
(11.7538 -13.0294 0)
(16.2502 -15.3161 1.29357e-14)
(15.8426 -17.3746 4.06019e-16)
(17.9715 -19.2022 -1.24013e-14)
(19.1634 -20.8757 0)
(21.0619 -22.5198 0)
(22.7958 -24.1104 2.07983e-14)
(24.6994 -25.7765 3.16033e-16)
(26.5566 -27.4232 -5.83174e-16)
(28.4371 -29.1783 1.78525e-14)
(30.3608 -30.8682 1.65389e-14)
(32.2093 -32.8518 1.51594e-14)
(34.3385 -34.4578 2.93698e-14)
(35.9879 -37.0855 -2.57272e-17)
(38.8559 -37.9427 4.28261e-16)