/*--------------------------------*- C++ -*----------------------------------*\
  =========                 |
  \\      /  F ield         | OpenFOAM: The Open Source CFD Toolbox
   \\    /   O peration     | Website:  https://openfoam.org
    \\  /    A nd           | Version:  10
     \\/     M anipulation  |
\*---------------------------------------------------------------------------*/
FoamFile
{
    format      ascii;
    class       volScalarField;
    location    "61000";
    object      k;
}
// * * * * * * * * * * * * * * * * * * * * * * * * * * * * * * * * * * * * * //

dimensions      [0 2 -2 0 0 0 0];

internalField   nonuniform List<scalar> 
17969
(
4.66469e-05
0.000965652
0.0022479
0.00379898
0.00548045
0.00746519
0.0099053
0.0126553
0.0152441
0.0172732
0.0186312
0.019397
0.0197406
0.0198425
0.019868
0.0199267
0.0200605
0.0203597
0.0208494
0.0215204
0.0223454
0.0232895
0.0243171
0.0253951
0.0264958
0.0275981
0.0286867
0.0297517
0.0307864
0.0317872
0.032752
0.0336802
0.0345717
0.0354267
0.0362459
0.0370297
0.0377787
0.0384934
0.0391743
0.0398218
0.0404362
0.0410178
0.0415668
0.0420835
0.042568
0.0430208
0.0434418
0.0438316
0.0441904
0.0445186
0.0448167
0.0450852
0.0453248
0.0455362
0.0457202
0.0458778
0.0460099
0.0461178
0.0462027
0.046266
0.046309
0.0463332
0.0463403
0.0463319
0.0463094
0.0462746
0.0462289
0.0461737
0.0461102
0.0460395
0.0459621
0.0458783
0.0457879
0.0456903
0.0455856
0.0454753
0.0453595
0.045235
0.0451022
0.0449599
0.0448094
0.044653
0.0444939
0.0443357
0.0441825
0.0440392
0.0439108
0.0438032
0.0437234
0.0436794
0.0436803
0.0437358
0.0438586
0.0440598
0.0443509
0.0447438
0.0452503
0.0458788
0.0466352
0.0475296
1.90863e-05
0.000448985
0.00116116
0.0020991
0.0031273
0.00432908
0.00581208
0.00767136
0.0100283
0.0126989
0.0153245
0.0175755
0.0192566
0.0203469
0.0209394
0.0211788
0.0212155
0.0211878
0.0211886
0.0212577
0.0214715
0.0218555
0.0224062
0.0231036
0.0239204
0.0248276
0.0257972
0.0268043
0.0278274
0.0288498
0.0298591
0.0308463
0.0318057
0.0327333
0.0336267
0.0344846
0.0353065
0.0360921
0.0368416
0.0375551
0.0382332
0.0388761
0.0394843
0.0400582
0.0405982
0.0411048
0.0415782
0.0420191
0.0424277
0.0428046
0.0431502
0.0434653
0.0437504
0.0440062
0.0442336
0.0444336
0.0446069
0.0447549
0.0448787
0.0449796
0.0450589
0.0451182
0.0451588
0.0451825
0.0451907
0.0451849
0.0451668
0.0451375
0.0450985
0.0450506
0.0449946
0.0449307
0.0448588
0.0447783
0.0446895
0.0445935
0.0444908
0.0443791
0.0442572
0.0441247
0.0439833
0.0438356
0.043685
0.0435353
0.043391
0.0432575
0.0431406
0.0430467
0.0429832
0.0429577
0.0429786
0.0430546
0.0431961
0.0434176
0.0437318
0.0441515
0.0446896
0.045355
0.0461553
0.0471025
8.42716e-06
0.000209851
0.000593923
0.0011491
0.00174792
0.00242828
0.0032812
0.00436488
0.00575593
0.00754189
0.00981612
0.0123844
0.0149992
0.0174355
0.0194282
0.0208773
0.0217963
0.0222807
0.0224586
0.0224585
0.022396
0.0223514
0.0223576
0.0224854
0.0227636
0.0231959
0.0237704
0.0244664
0.0252596
0.0261257
0.0270414
0.0279859
0.0289413
0.0298931
0.0308301
0.0317443
0.0326301
0.0334838
0.0343031
0.0350866
0.0358337
0.0365441
0.0372181
0.0378557
0.0384575
0.0390239
0.0395554
0.0400525
0.0405157
0.0409456
0.0413428
0.041708
0.0420417
0.0423449
0.0426182
0.0428627
0.0430792
0.043269
0.043433
0.0435727
0.0436893
0.0437843
0.0438591
0.0439153
0.0439543
0.0439778
0.0439872
0.0439838
0.043969
0.0439437
0.0439088
0.0438645
0.043811
0.0437478
0.043675
0.0435939
0.0435048
0.0434077
0.0432992
0.0431792
0.0430499
0.0429142
0.0427757
0.0426383
0.0425068
0.0423867
0.0422845
0.0422075
0.0421638
0.042162
0.0422112
0.0423198
0.0424959
0.0427503
0.0430993
0.0435578
0.0441399
0.0448555
0.0457136
0.0467284
4.52705e-06
0.000115616
0.000341226
0.000694241
0.00106718
0.00146224
0.00193073
0.00252211
0.00329255
0.00429845
0.00560645
0.00728192
0.00940778
0.011852
0.0144067
0.0169155
0.0191562
0.0209531
0.0222478
0.0230676
0.0234961
0.0236403
0.0236084
0.0235018
0.0233922
0.0233233
0.0233638
0.0235451
0.0238751
0.0243459
0.0249402
0.0256361
0.0264105
0.027241
0.0281073
0.0289915
0.0298787
0.0307569
0.0316168
0.0324518
0.0332571
0.0340298
0.0347679
0.0354703
0.0361364
0.0367662
0.0373599
0.0379176
0.0384399
0.0389273
0.0393803
0.0397995
0.0401857
0.0405395
0.0408619
0.0411537
0.0414159
0.0416496
0.0418558
0.042036
0.0421913
0.0423232
0.0424331
0.0425225
0.042593
0.042646
0.0426831
0.0427057
0.042715
0.0427122
0.0426982
0.0426735
0.0426384
0.0425927
0.0425367
0.0424717
0.0423986
0.0423179
0.0422251
0.0421206
0.0420069
0.0418871
0.0417647
0.041644
0.04153
0.0414283
0.0413458
0.0412903
0.0412708
0.0412971
0.0413795
0.0415281
0.0417514
0.0420565
0.0424545
0.0429645
0.0436038
0.0443833
0.0453143
0.0464125
0.0476902
0.0491556
0.0508126
0.0526612
3.15211e-06
8.13606e-05
0.000238764
0.000495294
0.000759165
0.00101676
0.00129422
0.00162587
0.00204171
0.00257894
0.00328693
0.00421715
0.00542289
0.00696078
0.00890284
0.0112071
0.0136939
0.0161908
0.0185798
0.0206655
0.0223262
0.0235181
0.0242643
0.024636
0.0247293
0.0246463
0.0244845
0.0243069
0.0241749
0.0241491
0.0242579
0.024509
0.0248954
0.0254014
0.026007
0.0266908
0.0274321
0.028212
0.0290138
0.0298234
0.0306291
0.0314218
0.0321942
0.032941
0.0336585
0.0343439
0.0349957
0.0356128
0.0361947
0.0367412
0.0372524
0.0377286
0.0381703
0.038578
0.0389526
0.0392947
0.0396054
0.0398855
0.0401364
0.040359
0.0405549
0.0407252
0.0408715
0.0409953
0.041098
0.0411813
0.0412466
0.0412953
0.041329
0.0413488
0.0413559
0.041351
0.0413348
0.0413076
0.0412698
0.0412229
0.041168
0.0411063
0.0410326
0.0409475
0.0408535
0.0407539
0.0406524
0.0405535
0.0404623
0.0403847
0.0403281
0.0403005
0.0403117
0.0403722
0.0404937
0.0406878
0.0409652
0.0413337
0.0417988
0.0423742
0.0430843
0.0439426
0.0449625
0.0461618
0.0475531
0.0491451
0.0509416
0.0529415
2.6759e-06
6.90526e-05
0.00019921
0.000412783
0.000626872
0.000822102
0.00101473
0.00122255
0.00146693
0.00176839
0.00214989
0.00265117
0.00331313
0.0041812
0.00530278
0.00672594
0.00850736
0.0106784
0.0130886
0.0155518
0.0179942
0.0202714
0.0222211
0.0237483
0.0248195
0.0254619
0.0257475
0.0257714
0.0256342
0.0254272
0.0252021
0.0250259
0.024949
0.0249949
0.0251705
0.0254704
0.0258816
0.0263871
0.0269687
0.0276082
0.028289
0.0289958
0.0297156
0.0304372
0.0311516
0.0318514
0.0325307
0.0331851
0.0338112
0.0344067
0.0349697
0.0354994
0.035995
0.0364566
0.0368841
0.0372779
0.0376388
0.0379674
0.0382647
0.0385319
0.0387701
0.0389806
0.0391648
0.0393243
0.0394605
0.039575
0.0396694
0.0397452
0.039804
0.0398473
0.0398764
0.0398925
0.0398967
0.0398897
0.0398724
0.039846
0.0398118
0.0397707
0.0397219
0.0396607
0.0395912
0.0395168
0.0394415
0.03937
0.0393078
0.0392611
0.0392375
0.0392455
0.0392954
0.0393984
0.0395668
0.0398137
0.0401511
0.0405889
0.0411328
0.0417918
0.0425871
0.0435398
0.044667
0.045987
0.0475129
0.0492533
0.0512112
0.0533844
2.46842e-06
6.36067e-05
0.00018111
0.000373655
0.000563946
0.000730345
0.000884923
0.00103934
0.00120453
0.00139357
0.00162254
0.0019049
0.00226222
0.00273396
0.00336235
0.00418457
0.00524539
0.00658844
0.0082579
0.0103123
0.012658
0.0151169
0.0175564
0.0199233
0.0220679
0.0238604
0.0252265
0.0261518
0.0266764
0.026876
0.0268413
0.0266642
0.0264244
0.0261611
0.0259402
0.0258044
0.025775
0.0258603
0.0260581
0.0263593
0.0267509
0.0272182
0.0277457
0.0283185
0.0289226
0.0295454
0.0301762
0.0308055
0.0314257
0.0320305
0.0326147
0.0331745
0.0337067
0.0342093
0.0346808
0.0351203
0.0355273
0.0359019
0.0362445
0.0365557
0.0368364
0.0370876
0.0373106
0.0375068
0.0376776
0.0378245
0.0379493
0.0380536
0.0381391
0.0382074
0.0382604
0.0382995
0.0383264
0.0383422
0.0383481
0.0383454
0.0383356
0.0383198
0.0382995
0.0382664
0.0382258
0.0381818
0.0381385
0.0381008
0.0380746
0.0380663
0.0380839
0.0381362
0.0382338
0.0383884
0.0386132
0.0389219
0.0393275
0.0398415
0.0404706
0.0412235
0.0421207
0.0431868
0.044442
0.0459046
0.0475879
0.0494997
0.0516419
0.0540102
0.0565939
2.35563e-06
6.06403e-05
0.000171054
0.000351618
0.000529394
0.000681508
0.000817875
0.000947545
0.00107762
0.00121492
0.00136762
0.00154732
0.00176383
0.00202888
0.00236647
0.00281004
0.00340154
0.00418175
0.00518886
0.00646601
0.00805264
0.00999468
0.0122625
0.0147136
0.0171662
0.0195586
0.0218211
0.0238136
0.0254397
0.0266507
0.0274508
0.0278858
0.0280275
0.0279558
0.0277495
0.0274738
0.0271648
0.0268857
0.0266746
0.0265544
0.026536
0.0266208
0.0268036
0.0270751
0.0274235
0.0278354
0.0282971
0.0287953
0.0293178
0.0298534
0.0303926
0.0309274
0.0314509
0.0319576
0.0324434
0.0329047
0.0333393
0.0337455
0.0341223
0.0344691
0.034786
0.0350735
0.0353321
0.0355629
0.0357671
0.0359461
0.0361014
0.0362346
0.0363476
0.0364423
0.0365206
0.0365844
0.0366357
0.0366764
0.0367077
0.0367311
0.0367487
0.0367619
0.0367726
0.0367735
0.0367673
0.0367594
0.0367545
0.0367579
0.0367754
0.0368139
0.0368813
0.0369868
0.0371412
0.0373569
0.0376475
0.0380273
0.0385102
0.039108
0.0398285
0.040685
0.041702
0.042902
0.0443069
0.0459348
0.0477985
0.0499044
0.0522526
0.0548362
0.0576414
0.0606489
0.0638343
2.29093e-06
5.89848e-05
0.000165362
0.000338901
0.00051018
0.000655267
0.000782758
0.000900443
0.00101382
0.00112731
0.00124527
0.00137281
0.00151694
0.00168741
0.00189104
0.00213862
0.00245385
0.00286625
0.00341321
0.00414013
0.00507971
0.00627432
0.00776242
0.00958345
0.0117629
0.0141635
0.0166183
0.019037
0.0213607
0.0235041
0.0253547
0.0268447
0.0279444
0.028665
0.0290496
0.0291604
0.0290658
0.0288335
0.0285098
0.0281483
0.0278039
0.0275124
0.0272987
0.0271759
0.0271484
0.0272145
0.0273677
0.0275982
0.0278944
0.0282434
0.0286327
0.0290502
0.0294851
0.0299275
0.0303693
0.0308036
0.0312247
0.0316283
0.032011
0.0323704
0.0327047
0.0330131
0.0332951
0.0335508
0.0337807
0.0339856
0.0341668
0.0343255
0.0344635
0.0345827
0.034685
0.0347727
0.034848
0.0349133
0.0349701
0.0350201
0.035066
0.0351097
0.0351526
0.0351962
0.0352316
0.0352663
0.0353069
0.0353588
0.035428
0.0355215
0.0356472
0.0358146
0.0360346
0.0363198
0.0366844
0.0371435
0.0377119
0.0384013
0.0392232
0.0401986
0.0413529
0.0427061
0.044281
0.046095
0.0481597
0.0504799
0.053053
0.0558689
0.0589103
0.0621543
0.0655729
0.0691353
2.27474e-06
5.86e-05
0.000163568
0.000333817
0.000502595
0.000644926
0.000768571
0.000880713
0.000986161
0.00108838
0.00119027
0.00129466
0.00140483
0.00152503
0.00166138
0.00182178
0.00201157
0.00224069
0.00253052
0.00290759
0.00340572
0.00406518
0.00492039
0.00601342
0.00738442
0.00907033
0.0111203
0.0134352
0.0158659
0.0182965
0.0206593
0.022898
0.02493
0.0266692
0.0280645
0.029095
0.029772
0.0301322
0.0302281
0.0301196
0.0298617
0.0294956
0.0290875
0.0286835
0.0283199
0.0280211
0.0278021
0.0276699
0.0276251
0.0276633
0.0277767
0.0279551
0.028187
0.0284609
0.0287655
0.0290904
0.0294264
0.0297656
0.0301012
0.0304277
0.0307411
0.0310379
0.031316
0.0315736
0.0318099
0.0320247
0.0322183
0.0323913
0.0325449
0.0326807
0.0328006
0.0329067
0.0330015
0.0330875
0.0331665
0.0332405
0.0333129
0.0333867
0.0334647
0.0335506
0.0336381
0.0337256
0.0338193
0.0339267
0.0340547
0.0342106
0.0344022
0.0346388
0.0349317
0.0352931
0.0357364
0.0362774
0.0369353
0.0377279
0.0386697
0.0397804
0.0410866
0.0426091
0.0443708
0.0463884
0.048672
0.0512238
0.0540376
0.0570996
0.0603884
0.0638768
0.0675333
0.071324
0.0752142
0.0791695
2.31647e-06
5.96769e-05
0.000165946
0.000336167
0.000505435
0.000647817
0.000770589
0.000880692
0.000982679
0.00107965
0.00117395
0.00126759
0.00136251
0.00146087
0.00156535
0.00167953
0.00180868
0.00195966
0.00213669
0.00234795
0.00261225
0.00295314
0.00340029
0.003985
0.0047467
0.00572751
0.00696942
0.00850973
0.0103932
0.012589
0.0149647
0.017376
0.019767
0.022068
0.0242236
0.0261636
0.0278177
0.0291457
0.0301299
0.0307809
0.0311309
0.0312242
0.0311109
0.0308259
0.0304375
0.0299975
0.02955
0.0291291
0.0287589
0.0284555
0.0282271
0.0280764
0.0280009
0.0279948
0.02805
0.028157
0.0283058
0.0284868
0.0286908
0.0289092
0.029135
0.0293622
0.0295857
0.0298015
0.0300066
0.030199
0.0303772
0.0305407
0.0306894
0.0308243
0.0309467
0.0310584
0.0311613
0.0312582
0.031351
0.0314418
0.0315342
0.031632
0.0317388
0.0318585
0.0319972
0.0321446
0.0323032
0.0324787
0.0326769
0.0329045
0.0331691
0.0334789
0.0338435
0.0342791
0.0348013
0.0354288
0.0361834
0.0370881
0.0381639
0.0394274
0.0408975
0.042603
0.0445666
0.046804
0.0493226
0.0521211
0.0551891
0.0585078
0.0620511
0.0657875
0.069682
0.0736976
0.0777974
0.0819458
0.0861094
0.0902579
0.0943643
0.0984051
2.41998e-06
6.23238e-05
0.000172711
0.000345761
0.000517835
0.000662192
0.000785943
0.000896011
0.000996915
0.00109166
0.00118241
0.00127086
0.00135848
0.00144671
0.00153705
0.00163127
0.00173163
0.00184118
0.00196439
0.00210757
0.00227434
0.00247061
0.00271162
0.00301677
0.00341063
0.0039238
0.00459268
0.00545776
0.00656086
0.00794022
0.00963435
0.01168
0.0139629
0.016342
0.0187381
0.0210965
0.023346
0.0254269
0.0272878
0.0288708
0.030142
0.031089
0.0317215
0.0320646
0.0321515
0.0320208
0.0317326
0.0313398
0.0308892
0.0304191
0.0299599
0.0295347
0.0291591
0.028843
0.0285904
0.0284016
0.0282732
0.0281999
0.0281746
0.0281899
0.0282379
0.0283113
0.0284033
0.0285075
0.0286189
0.0287332
0.0288469
0.0289575
0.0290633
0.029164
0.0292599
0.0293518
0.0294408
0.0295295
0.0296195
0.0297127
0.0298124
0.0299223
0.0300461
0.0301878
0.0303524
0.0305476
0.0307638
0.0310038
0.0312723
0.031575
0.031919
0.0323126
0.0327651
0.0332896
0.0339016
0.0346227
0.0354782
0.0364955
0.0377026
0.0391236
0.0407743
0.0426763
0.0448565
0.0473285
0.0500964
0.053154
0.0564856
0.0600669
0.0638669
0.0678495
0.0719763
0.0762076
0.0805049
0.0848317
0.0891544
0.0934428
0.0976705
0.101815
2.58698e-06
6.65778e-05
0.000183924
0.000362306
0.000538914
0.000686573
0.000812473
0.000923681
0.00102482
0.00111892
0.00120814
0.00129407
0.00137799
0.00146108
0.00154444
0.00162923
0.00171669
0.00180834
0.0019061
0.00201255
0.00213144
0.00226827
0.00242658
0.00261008
0.00283065
0.00310498
0.003454
0.00390439
0.00448898
0.00524603
0.00621722
0.00744398
0.00896231
0.0108202
0.0129697
0.0152942
0.0176652
0.0200341
0.0223481
0.0245447
0.0265614
0.0283416
0.0298502
0.0310587
0.0319559
0.0325462
0.0328566
0.0329305
0.0328126
0.0325477
0.032178
0.0317413
0.0312705
0.0307925
0.0303289
0.0298952
0.0295022
0.0291561
0.0288593
0.0286119
0.0284111
0.0282531
0.0281332
0.0280457
0.0279858
0.0279484
0.0279291
0.0279237
0.0279293
0.0279436
0.0279652
0.0279936
0.0280297
0.0280754
0.0281324
0.0282021
0.0282866
0.0283889
0.0285121
0.0286597
0.0288356
0.029045
0.0292967
0.0295859
0.0299131
0.030283
0.0307016
0.0311765
0.0317168
0.0323347
0.0330459
0.0338712
0.0348355
0.0359688
0.0373058
0.0388805
0.0407142
0.0428242
0.0452323
0.04795
0.0509766
0.0543002
0.0578989
0.0617424
0.0657943
0.0700145
0.0743612
0.0787929
0.0832699
0.0877553
0.0922159
0.0966221
0.100949
0.105174
2.82146e-06
7.24956e-05
0.000199582
0.000385361
0.000567712
0.000719589
0.00084834
0.000961345
0.00106341
0.00115767
0.00124631
0.00133096
0.00141287
0.00149312
0.00157267
0.00165239
0.00173321
0.00181606
0.00190205
0.00199247
0.00208897
0.00219375
0.00230991
0.002442
0.00259433
0.00276935
0.00297486
0.00322539
0.00353855
0.00393719
0.00445012
0.00511219
0.00596285
0.0070436
0.00839126
0.0100444
0.0120299
0.0142471
0.0165695
0.0189216
0.0212498
0.0234942
0.0256015
0.0275193
0.0291978
0.0306006
0.0317132
0.032539
0.0330953
0.0334084
0.0335102
0.033435
0.0332178
0.0328925
0.0324903
0.0320391
0.0315625
0.0310802
0.0306075
0.0301559
0.0297333
0.0293444
0.028992
0.0286763
0.0283967
0.0281516
0.0279379
0.0277531
0.0275947
0.0274606
0.0273487
0.0272577
0.0271882
0.0271417
0.0271206
0.0271263
0.0271602
0.0272236
0.0273185
0.027447
0.027612
0.0278171
0.0280674
0.0283699
0.0287277
0.0291403
0.0296113
0.0301477
0.0307584
0.0314553
0.0322542
0.0331764
0.0342487
0.0355036
0.0369769
0.0387053
0.0407196
0.0430408
0.0456817
0.0486497
0.051938
0.0555277
0.0593896
0.0634873
0.0677792
0.0722213
0.0767691
0.0813798
0.0860133
0.090633
0.0952063
0.099705
0.104105
0.108387
3.12847e-06
8.01591e-05
0.000219744
0.00041458
0.000603272
0.000759479
0.000891379
0.00100655
0.00110996
0.00120488
0.00129356
0.00137769
0.00145853
0.00153715
0.00161444
0.0016912
0.0017682
0.00184619
0.00192593
0.00200827
0.00209417
0.00218476
0.00228148
0.00238621
0.00250151
0.00263112
0.00277997
0.00295009
0.00314565
0.00337897
0.00366495
0.00402283
0.00447726
0.00505884
0.00580358
0.00675118
0.00794074
0.00940515
0.0111902
0.0132525
0.0154856
0.017772
0.0200628
0.0223024
0.0244353
0.0264095
0.0281822
0.0297213
0.0310094
0.0320425
0.0328262
0.0333747
0.0337083
0.0338512
0.03383
0.0336719
0.0334039
0.0330513
0.0326372
0.0321821
0.0317035
0.0312159
0.0307311
0.0302582
0.0298038
0.0293731
0.0289688
0.0285922
0.0282448
0.0279278
0.0276416
0.0273872
0.0271649
0.0269764
0.0268274
0.0267221
0.026661
0.0266432
0.0266696
0.0267414
0.0268603
0.0270286
0.0272498
0.0275279
0.0278679
0.0282764
0.0287588
0.0293201
0.0299675
0.030712
0.0315709
0.032567
0.0337293
0.0350928
0.0366963
0.0385787
0.0407749
0.0433067
0.0461823
0.0493998
0.0529462
0.0567946
0.0609084
0.0652447
0.069757
0.0743982
0.0791221
0.0838851
0.0886473
0.0933732
0.0980314
0.102595
0.107042
0.111354
0.115517
3.51102e-06
8.96087e-05
0.000244375
0.000448737
0.000644306
0.000805339
0.000940582
0.00105803
0.00116293
0.00125869
0.00134771
0.0014317
0.00151199
0.00158963
0.00166551
0.00174042
0.00181504
0.00189006
0.00196612
0.00204388
0.00212402
0.0022073
0.00229456
0.00238682
0.00248532
0.00259168
0.00270809
0.00283761
0.00298483
0.00315264
0.00334306
0.00356496
0.00383139
0.00415843
0.00456686
0.00508287
0.00573818
0.0065688
0.00761288
0.00890262
0.0104706
0.0123391
0.0144207
0.0165992
0.0188043
0.0209829
0.0230812
0.0250539
0.0268633
0.0284826
0.0298923
0.0310816
0.0320498
0.0328016
0.033348
0.0337047
0.03389
0.0339243
0.0338285
0.0336238
0.0333304
0.0329672
0.0325515
0.0320987
0.0316222
0.0311334
0.0306418
0.0301549
0.0296792
0.0292203
0.0287826
0.0283699
0.0279865
0.0276374
0.0273342
0.0270866
0.0268934
0.0267551
0.0266722
0.0266455
0.0266763
0.0267665
0.0269188
0.0271365
0.0274236
0.0277854
0.0282282
0.0287599
0.0293915
0.0301374
0.0310159
0.0320518
0.0332767
0.0347287
0.036449
0.0384781
0.0408503
0.0435865
0.0466955
0.0501646
0.0539616
0.058054
0.0624
0.0669511
0.0716569
0.076468
0.0813372
0.0862212
0.091081
0.0958823
0.100596
0.105196
0.109663
0.113981
0.118135
3.97404e-06
0.000100829
0.0002726
0.000487706
0.000690578
0.00085639
0.000994867
0.00111453
0.00122089
0.00131757
0.00140705
0.00149111
0.00157111
0.00164815
0.00172312
0.00179678
0.00186983
0.0019429
0.00201659
0.00209149
0.00216816
0.00224722
0.00232926
0.00241497
0.0025051
0.00260055
0.0027024
0.00281204
0.00293133
0.00306284
0.00321028
0.00337793
0.00356709
0.00378247
0.00403577
0.00434043
0.00471382
0.0051778
0.00575923
0.0064892
0.00740159
0.00852893
0.00989592
0.0115393
0.0134178
0.0154406
0.0175066
0.0195706
0.0215843
0.0235057
0.0253021
0.0269459
0.0284187
0.0297075
0.0308053
0.031712
0.0324322
0.0329736
0.0333481
0.0335697
0.0336537
0.0336162
0.0334735
0.0332416
0.0329357
0.0325698
0.0321569
0.0317089
0.0312365
0.0307493
0.0302556
0.0297629
0.029279
0.0288123
0.0283809
0.0280004
0.0276742
0.0274047
0.0271942
0.0270447
0.0269587
0.0269388
0.0269881
0.0271102
0.0273096
0.0275918
0.0279636
0.028434
0.0290153
0.0297242
0.0305831
0.0316215
0.0328766
0.0343916
0.0362116
0.0383785
0.0409234
0.0438588
0.0471883
0.0509005
0.0549412
0.0592564
0.0638061
0.0685404
0.073406
0.0783521
0.0833316
0.0883021
0.093226
0.0980709
0.102809
0.107418
0.11188
0.116178
0.120303
4.52787e-06
0.000114052
0.000303946
0.000531088
0.000741283
0.000911651
0.00105316
0.0011749
0.00128267
0.00138026
0.00147024
0.00155447
0.00163436
0.00171101
0.00178534
0.00185812
0.00193004
0.00200173
0.00207378
0.00214673
0.00222113
0.0022975
0.00237638
0.00245828
0.00254377
0.00263345
0.00272797
0.00282811
0.0029348
0.00304926
0.00317307
0.0033084
0.00345832
0.00362743
0.00381774
0.00403104
0.00427656
0.00456597
0.00491354
0.00533726
0.0058591
0.00650486
0.00730291
0.00828244
0.00946496
0.0108708
0.0125141
0.0143253
0.0162158
0.0181244
0.0200123
0.0218398
0.0235747
0.025193
0.0266747
0.0280054
0.029177
0.0301845
0.0310275
0.0317096
0.0322371
0.032618
0.0328627
0.0329827
0.03299
0.0328967
0.0327149
0.0324566
0.0321333
0.0317562
0.0313354
0.0308806
0.0304014
0.0299089
0.0294248
0.0289707
0.0285559
0.0281867
0.027869
0.0276078
0.0274081
0.0272745
0.027212
0.0272258
0.0273219
0.0275072
0.0277899
0.028181
0.0286949
0.0293513
0.0301768
0.0312059
0.0324813
0.0340507
0.0359626
0.0382587
0.0409662
0.0440904
0.0476273
0.0515623
0.0558236
0.0603379
0.0650631
0.0699457
0.0749324
0.0799743
0.0850264
0.0900474
0.0950016
0.0998586
0.104593
0.109184
0.113615
0.117873
0.121949
0.125835
5.17179e-06
0.000129226
0.000338076
0.000577994
0.000795374
0.000970073
0.00111445
0.00123814
0.00134726
0.00144573
0.00153624
0.0016207
0.00170056
0.00177695
0.0018508
0.0019229
0.00199394
0.00206456
0.00213535
0.00220685
0.0022796
0.00235411
0.00243087
0.00251036
0.00259306
0.00267943
0.00276995
0.00286514
0.00296556
0.00307188
0.0031849
0.00330566
0.00343556
0.00357647
0.00373097
0.0039029
0.00409605
0.00431124
0.0045535
0.00483357
0.00516306
0.00555658
0.00603158
0.00660844
0.00730937
0.00815729
0.00917248
0.0103663
0.0117583
0.0133255
0.0150088
0.0167303
0.0184547
0.0201498
0.0217838
0.0233316
0.0247738
0.0260967
0.0272888
0.0283433
0.029257
0.0300293
0.0306619
0.0311593
0.0315273
0.0317727
0.0319032
0.0319276
0.031855
0.0316948
0.0314563
0.0311487
0.0307818
0.0303667
0.0299253
0.0294824
0.0290525
0.0286469
0.0282754
0.0279471
0.0276699
0.0274517
0.0272999
0.0272227
0.0272281
0.0273253
0.0275249
0.0278405
0.0282896
0.0288961
0.0296912
0.0307149
0.0320154
0.0336451
0.0356541
0.0380824
0.0409527
0.0442597
0.0479754
0.0520738
0.0565105
0.0612027
0.0660738
0.071072
0.07615
0.0812565
0.0863468
0.0913841
0.0963368
0.101177
0.10588
0.110429
0.114809
0.119008
0.123018
0.126834
5.91336e-06
0.00014629
0.000374747
0.00062763
0.000851966
0.00103079
0.00117789
0.00130345
0.00141386
0.0015132
0.00160424
0.00168896
0.00176883
0.00184502
0.00191846
0.00198997
0.00206024
0.00212993
0.00219964
0.00226993
0.00234135
0.00241441
0.00248961
0.00256741
0.00264828
0.00273262
0.00282084
0.00291335
0.00301053
0.0031128
0.00322064
0.00333461
0.00345539
0.00358392
0.00372139
0.00386946
0.00403036
0.00420722
0.00440471
0.00462427
0.00486743
0.0051431
0.00546103
0.00583274
0.0062718
0.00679361
0.00741498
0.00815275
0.00902314
0.0100353
0.011193
0.012512
0.0139554
0.0154768
0.017016
0.0185474
0.0200461
0.0214877
0.0228518
0.0241228
0.0252889
0.0263422
0.0272763
0.0280877
0.0287753
0.0293396
0.0297826
0.0301077
0.0303197
0.030424
0.0304263
0.0303336
0.0301538
0.0298962
0.0295792
0.0292269
0.0288578
0.0284869
0.0281278
0.0277928
0.0274934
0.0272406
0.0270438
0.026914
0.0268627
0.0269015
0.0270441
0.027307
0.0277121
0.0282873
0.0290697
0.030105
0.0314467
0.0331506
0.0352673
0.0378327
0.0408617
0.0443356
0.048216
0.052463
0.0570249
0.0618285
0.0667949
0.0718658
0.0769929
0.0821272
0.0872262
0.0922531
0.097177
0.101974
0.106624
0.11111
0.11542
0.119544
0.123476
0.127211
6.74928e-06
0.000165223
0.000414251
0.000679522
0.000910412
0.00109315
0.00124284
0.00137019
0.00148185
0.00158203
0.00167359
0.00175855
0.00183843
0.00191442
0.00198748
0.0020584
0.00212791
0.00219668
0.00226536
0.00233452
0.00240472
0.00247651
0.0025504
0.00262688
0.00270641
0.00278941
0.00287625
0.00296729
0.00306284
0.00316321
0.0032687
0.00337963
0.00349639
0.00361945
0.00374942
0.00388711
0.00403363
0.00419045
0.00435958
0.00454366
0.00474661
0.00497196
0.00522004
0.00549544
0.00580725
0.00616421
0.00657679
0.00705637
0.00761505
0.00826471
0.00901636
0.0098799
0.0108564
0.0119435
0.0131495
0.0144424
0.0157876
0.0171442
0.018484
0.0197896
0.0210432
0.0222275
0.0233293
0.0243385
0.0252474
0.0260505
0.0267439
0.0273253
0.0277939
0.0281506
0.0283971
0.0285366
0.0285736
0.0285143
0.0283705
0.028163
0.0279116
0.0276337
0.0273452
0.0270606
0.0267939
0.0265582
0.0263665
0.0262313
0.026166
0.0261854
0.0263066
0.0265496
0.0269404
0.0275124
0.0283078
0.0293786
0.0307827
0.0325781
0.0348134
0.0375189
0.0406971
0.0443177
0.0483365
0.0527023
0.057352
0.0622164
0.0672279
0.0723262
0.0774582
0.0825777
0.0876449
0.0926262
0.0974933
0.102223
0.106798
0.111203
0.115427
0.119463
0.123306
0.126953
7.68581e-06
0.000185922
0.00045543
0.00073312
0.000970185
0.00115663
0.0013088
0.00143791
0.0015508
0.00165183
0.00174391
0.0018291
0.00190896
0.00198466
0.00205721
0.00212742
0.00219607
0.00226384
0.0023314
0.00239942
0.00246839
0.00253891
0.00261157
0.00268689
0.00276533
0.00284734
0.00293331
0.00302357
0.00311841
0.00321806
0.00332276
0.0034327
0.00354808
0.00366917
0.00379627
0.0039298
0.0040703
0.00421854
0.00437553
0.00454261
0.00472158
0.00491473
0.00512513
0.0053574
0.00561273
0.00589172
0.00620181
0.00655013
0.00694428
0.00739273
0.00790395
0.00848633
0.0091469
0.00989122
0.0107237
0.0116413
0.0126372
0.0137099
0.0148439
0.016012
0.0171889
0.0183439
0.0194618
0.0205298
0.0215351
0.0224653
0.0233106
0.0240638
0.0247193
0.0252731
0.0257228
0.0260674
0.0263075
0.0264457
0.026487
0.0264459
0.0263413
0.0261908
0.0260111
0.025818
0.0256263
0.0254507
0.0253056
0.0252057
0.0251663
0.0252044
0.02534
0.0255967
0.0260048
0.0266028
0.027439
0.02857
0.0300574
0.031959
0.0343196
0.0371622
0.0404727
0.0442122
0.0483345
0.0527799
0.0574816
0.0623715
0.0673849
0.0724635
0.0775563
0.0826196
0.0876165
0.0925163
0.0972939
0.101929
0.106405
0.11071
0.114833
0.118769
0.122513
0.126065
8.71799e-06
0.000208258
0.000497681
0.000787598
0.00103054
0.00122051
0.00137508
0.00150589
0.00162
0.00172185
0.00181444
0.00189985
0.00197965
0.00205505
0.00212705
0.00219651
0.00226421
0.00233085
0.00239712
0.0024637
0.00253123
0.00260036
0.00267172
0.00274595
0.0028234
0.00290459
0.00298996
0.00307984
0.00317449
0.00327414
0.00337896
0.00348907
0.00360459
0.00372565
0.00385237
0.00398495
0.00412366
0.00426889
0.00442118
0.00458122
0.00474999
0.00492873
0.00511904
0.00532302
0.00554318
0.00578295
0.00604612
0.00633246
0.00664427
0.00698872
0.00737105
0.0077973
0.00827346
0.00880485
0.00939629
0.0100507
0.0107694
0.0115523
0.0123953
0.0132899
0.0142264
0.0152017
0.0161968
0.0171916
0.0181678
0.0191034
0.0199868
0.0208088
0.0215596
0.02223
0.0228138
0.0233059
0.0237033
0.0240052
0.0242101
0.0243254
0.0243674
0.0243527
0.0242971
0.0242156
0.024123
0.0240343
0.0239646
0.0239294
0.0239457
0.0240324
0.0242115
0.0245103
0.0249632
0.0256137
0.0265149
0.0277275
0.0293146
0.0313322
0.0338194
0.0367853
0.0402042
0.044034
0.0482236
0.052709
0.0574221
0.0622964
0.0672698
0.0722875
0.0773015
0.0822716
0.0871638
0.0919506
0.0966095
0.101123
0.105476
0.109659
0.113664
0.117482
0.121112
0.124553
9.83443e-06
0.000231937
0.000540414
0.000842275
0.00109083
0.00128417
0.00144105
0.00157353
0.00168881
0.00179146
0.00188451
0.00197007
0.00204973
0.00212472
0.00219606
0.00226463
0.00233122
0.00239659
0.00246147
0.00252657
0.00259259
0.00266023
0.00273015
0.00280298
0.00287931
0.00295968
0.0030446
0.00313435
0.00322913
0.00332919
0.00343469
0.00354568
0.00366223
0.00378436
0.00391212
0.00404556
0.00418478
0.00432997
0.00448138
0.00463939
0.00480454
0.00497751
0.00515922
0.00535083
0.00555377
0.00576985
0.00600125
0.00625048
0.00652123
0.00681552
0.00713249
0.00747593
0.00785102
0.00826117
0.00871057
0.00920264
0.00973978
0.0103237
0.0109546
0.0116307
0.0123487
0.0131048
0.0138912
0.014698
0.0155154
0.016339
0.0171548
0.0179468
0.0186988
0.0193957
0.0200314
0.0205976
0.0210883
0.0214996
0.0218242
0.0220629
0.0222284
0.0223351
0.0223969
0.0224273
0.0224402
0.0224489
0.0224682
0.0225142
0.0226043
0.0227587
0.0230017
0.0233635
0.0238822
0.0246054
0.0255901
0.0268996
0.0285963
0.0307319
0.033338
0.036407
0.0399056
0.0437931
0.0480122
0.052497
0.0571805
0.0619986
0.0668928
0.071812
0.0767122
0.0815565
0.0863145
0.0909615
0.0954778
0.0998478
0.10406
0.108105
0.111976
0.115669
0.119179
0.122506
1.1023e-05
0.00025662
0.00058305
0.000896487
0.00115041
0.00134699
0.00150612
0.0016402
0.00175662
0.00186001
0.00195343
0.00203904
0.00211844
0.00219286
0.00226336
0.00233083
0.00239612
0.00246001
0.0025233
0.00258674
0.00265112
0.00271717
0.00278564
0.0028572
0.00293248
0.00301204
0.00309637
0.00318585
0.0032808
0.00338151
0.00348809
0.00360036
0.00371844
0.00384234
0.00397195
0.00410727
0.00424831
0.00439509
0.00454772
0.00470639
0.00487137
0.00504305
0.00522196
0.00540877
0.00560433
0.00580971
0.00602616
0.00625522
0.00649874
0.00675868
0.00703712
0.00733749
0.00766041
0.00800451
0.00837349
0.00877049
0.00919708
0.00965547
0.0101471
0.0106718
0.0112288
0.0118163
0.0124309
0.0130676
0.0137211
0.014386
0.0150548
0.0157194
0.0163752
0.0170173
0.01763
0.018196
0.0187102
0.019167
0.0195561
0.0198733
0.0201263
0.0203261
0.0204837
0.020611
0.0207202
0.0208234
0.020933
0.0210647
0.021236
0.0214681
0.0217866
0.0222243
0.0228224
0.0236318
0.0247119
0.0261266
0.0279356
0.0301853
0.0328911
0.0360354
0.0395853
0.0434953
0.0477053
0.0521501
0.0567647
0.0614887
0.0662678
0.0710548
0.0758099
0.0805
0.0850981
0.0895825
0.0939362
0.0981459
0.102202
0.106097
0.109826
0.113386
0.116773
0.119986
1.22655e-05
0.000281922
0.000625007
0.000949558
0.00120862
0.00140832
0.00156962
0.00170526
0.00182276
0.00192681
0.00202051
0.00210603
0.00218499
0.00225866
0.00232809
0.00239423
0.00245796
0.00252013
0.00258158
0.00264316
0.0027057
0.00277003
0.00283695
0.0029072
0.00298147
0.00306035
0.00314433
0.00323383
0.00332912
0.00343043
0.00353787
0.00365148
0.00377133
0.00389747
0.00402939
0.00416715
0.00431074
0.00446005
0.00461506
0.00477586
0.00494257
0.00511538
0.00529459
0.0054806
0.00567391
0.00587515
0.0060851
0.00630467
0.00653492
0.00677707
0.00703248
0.00730277
0.00758939
0.00789352
0.0082175
0.00856134
0.00892314
0.00930503
0.00970919
0.0101352
0.010583
0.0110521
0.0115404
0.0120451
0.012563
0.0130907
0.0136236
0.014157
0.0146873
0.0152112
0.0157259
0.0162326
0.0167117
0.0171556
0.0175545
0.0179015
0.0182007
0.0184592
0.0186851
0.0188869
0.0190746
0.0192593
0.0194513
0.0196646
0.0199165
0.0202283
0.020627
0.0211469
0.0218318
0.0227345
0.0239154
0.0254366
0.0273532
0.0297034
0.0324865