/*--------------------------------*- C++ -*----------------------------------*\
  =========                 |
  \\      /  F ield         | OpenFOAM: The Open Source CFD Toolbox
   \\    /   O peration     | Website:  https://openfoam.org
    \\  /    A nd           | Version:  10
     \\/     M anipulation  |
\*---------------------------------------------------------------------------*/
FoamFile
{
    format      ascii;
    class       volVectorField;
    location    "69000";
    object      U;
}
// * * * * * * * * * * * * * * * * * * * * * * * * * * * * * * * * * * * * * //

dimensions      [0 1 -1 0 0 0 0];

internalField   nonuniform List<vector> 
17922
(
(-2.3737 2.5965 0)
(-2.37098 2.5935 2.95343e-19)
(-2.3681 2.59034 -1.15101e-18)
(-2.36507 2.58701 -3.16783e-24)
(-2.36189 2.58351 2.7026e-19)
(-2.35854 2.57983 5.26414e-19)
(-2.35505 2.57598 9.22839e-24)
(-2.35139 2.57196 2.46802e-19)
(-2.34757 2.56777 -1.85908e-21)
(-2.3436 2.5634 -2.3391e-19)
(-2.33947 2.55885 -1.80703e-18)
(-2.33518 2.55413 0)
(-2.33073 2.54924 0)
(-2.32612 2.54417 -2.04684e-19)
(-2.32135 2.53892 2.0008e-19)
(-2.31642 2.5335 -1.92011e-19)
(-2.31132 2.5279 1.87748e-19)
(-2.30607 2.52212 -7.23775e-19)
(-2.30066 2.51618 -1.74308e-19)
(-2.29509 2.51006 -6.76694e-19)
(-2.28937 2.50376 -4.91706e-19)
(-2.28348 2.4973 1.58054e-19)
(-2.27745 2.49067 -7.70022e-19)
(-2.27126 2.48387 5.95528e-19)
(-2.26492 2.47691 -5.7635e-19)
(-2.25843 2.46979 0)
(-2.25179 2.46252 0)
(-2.24502 2.4551 0)
(-2.23817 2.44759 1.02551e-18)
(-2.23137 2.44015 1.26953e-19)
(-2.22469 2.43284 3.81597e-19)
(-2.21812 2.42567 1.01786e-18)
(-2.21168 2.41864 -4.45171e-19)
(-2.20536 2.41175 4.44098e-19)
(-2.19917 2.40501 -5.08027e-19)
(-2.19312 2.39842 0)
(-2.18719 2.39199 6.31975e-20)
(-2.1814 2.38571 -6.37195e-19)
(-2.17575 2.37959 -3.83156e-19)
(-2.17023 2.37363 -6.40308e-19)
(-2.16486 2.36783 6.46347e-20)
(-2.15962 2.3622 -6.40002e-20)
(-2.15452 2.35672 -4.52525e-19)
(-2.14957 2.35141 -6.45604e-20)
(-2.14476 2.34626 5.2303e-19)
(-2.14009 2.34128 -9.18294e-19)
(-2.13557 2.33647 -8.26087e-22)
(-2.13119 2.33182 -5.31116e-19)
(-2.12696 2.32734 4.6622e-19)
(-2.12288 2.32304 0)
(-2.11895 2.3189 2.69877e-19)
(-2.11517 2.31493 2.71541e-19)
(-2.11154 2.31114 -3.41183e-19)
(-2.10806 2.30751 3.44293e-19)
(-2.10473 2.30406 0)
(-2.10155 2.30079 2.09545e-19)
(-2.09851 2.29768 7.05945e-20)
(-2.09563 2.29474 2.82614e-19)
(-2.0929 2.29198 0)
(-2.09031 2.28938 -2.86574e-19)
(-2.08787 2.28695 0)
(-2.08557 2.28469 7.21864e-20)
(-2.08342 2.28259 -3.66032e-19)
(-2.0814 2.28065 -2.94453e-19)
(-2.07952 2.27887 2.96463e-19)
(-2.07778 2.27725 -2.98409e-19)
(-2.07617 2.27578 2.25708e-19)
(-2.07468 2.27446 -1.51091e-19)
(-2.07331 2.27328 -3.80477e-19)
(-2.07206 2.27224 0)
(-2.07092 2.27133 1.53832e-19)
(-2.06988 2.27055 1.54662e-19)
(-2.06894 2.26988 -2.93159e-23)
(-2.06809 2.26933 2.34004e-19)
(-2.06733 2.26889 -2.3604e-19)
(-2.06664 2.26854 1.57788e-19)
(-2.06602 2.26829 1.58514e-19)
(-2.06547 2.26812 -3.18311e-19)
(-2.06497 2.26803 7.941e-20)
(-2.06454 2.268 -8.06273e-20)
(-2.06414 2.26804 2.40871e-19)
(-2.0638 2.26813 -1.61359e-19)
(-2.06349 2.26827 9.67247e-22)
(-2.06322 2.26845 8.15505e-20)
(-2.06297 2.26867 4.06124e-19)
(-2.06276 2.26892 1.33172e-23)
(-2.06258 2.2692 2.45388e-19)
(-2.06241 2.2695 0)
(-2.06227 2.26981 -8.14383e-20)
(-2.06215 2.27014 8.25089e-20)
(-2.06206 2.27048 -1.63817e-19)
(-2.06198 2.27082 8.31906e-20)
(-2.06192 2.27117 1.64713e-19)
(-2.36748 2.60219 -3.10498e-19)
(-2.36476 2.59919 2.99847e-19)
(-2.36189 2.59602 -2.93261e-19)
(-2.35887 2.59269 1.13577e-18)
(-2.35569 2.58918 -8.01475e-25)
(-2.35236 2.58549 -2.66807e-19)
(-2.34887 2.58164 7.80771e-19)
(-2.34522 2.57761 0)
(-2.34142 2.5734 -1.22308e-18)
(-2.33746 2.56903 2.38441e-19)
(-2.33334 2.56447 9.21449e-19)
(-2.32906 2.55974 -8.93589e-19)
(-2.32462 2.55484 0)
(-2.32002 2.54976 0)
(-2.31526 2.5445 0)
(-2.31034 2.53906 9.85199e-19)
(-2.30526 2.53345 7.62556e-19)
(-2.30002 2.52767 5.54486e-19)
(-2.29463 2.52171 1.78423e-19)
(-2.28907 2.51557 5.20169e-19)
(-2.28336 2.50927 -2.43432e-24)
(-2.27749 2.50279 0)
(-2.27147 2.49615 1.56822e-19)
(-2.2653 2.48934 -7.64429e-19)
(-2.25897 2.48236 5.91384e-19)
(-2.2525 2.47523 0)
(-2.24588 2.46794 0)
(-2.23913 2.4605 0)
(-2.23229 2.45298 6.11367e-24)
(-2.22551 2.44552 0)
(-2.21884 2.43819 1.30084e-19)
(-2.21229 2.431 -1.31559e-19)
(-2.20586 2.42395 1.04422e-18)
(-2.19956 2.41705 3.92181e-19)
(-2.19339 2.4103 1.31288e-19)
(-2.18735 2.40369 0)
(-2.18144 2.39725 -5.22565e-19)
(-2.17566 2.39095 5.23388e-19)
(-2.17002 2.38482 5.89608e-19)
(-2.16452 2.37884 4.59653e-19)
(-2.15916 2.37303 -4.61857e-19)
(-2.15393 2.36738 4.6256e-19)
(-2.14885 2.36189 0)
(-2.14391 2.35656 -6.62374e-20)
(-2.13911 2.3514 -5.34784e-19)
(-2.13445 2.34641 1.144e-18)
(-2.12994 2.34158 6.71825e-20)
(-2.12558 2.33692 4.07763e-19)
(-2.12136 2.33243 -4.7791e-19)
(-2.11729 2.32811 3.43191e-19)
(-2.11337 2.32396 1.38255e-19)
(-2.1096 2.31998 -2.08213e-19)
(-2.10598 2.31617 2.79918e-19)
(-2.1025 2.31254 0)
(-2.09918 2.30907 -7.04454e-20)
(-2.09601 2.30578 7.17752e-20)
(-2.09299 2.30266 2.87242e-19)
(-2.09011 2.29971 -2.89152e-19)
(-2.08739 2.29694 0)
(-2.08481 2.29433 -7.28144e-20)
(-2.08238 2.29189 7.41852e-20)
(-2.08009 2.28961 -7.37854e-20)
(-2.07794 2.2875 5.98617e-19)
(-2.07594 2.28555 3.7645e-19)
(-2.07407 2.28376 0)
(-2.07233 2.28212 0)
(-2.07073 2.28064 -7.61701e-20)
(-2.06925 2.2793 3.85872e-19)
(-2.06789 2.27811 6.2026e-19)
(-2.06664 2.27706 0)
(-2.06551 2.27613 0)
(-2.06447 2.27534 -2.36892e-19)
(-2.06354 2.27466 -1.59345e-19)
(-2.0627 2.27409 -8.00563e-20)
(-2.06193 2.27364 1.59905e-19)
(-2.06125 2.27328 -1.60596e-19)
(-2.06064 2.27301 -1.61247e-19)
(-2.06009 2.27282 8.13986e-20)
(-2.05961 2.27271 1.63374e-19)
(-2.05918 2.27267 1.63906e-19)
(-2.05879 2.27269 9.45728e-22)
(-2.05845 2.27277 -8.1472e-20)
(-2.05816 2.27289 -1.7745e-24)
(-2.05789 2.27306 -2.46525e-19)
(-2.05766 2.27327 -8.20164e-20)
(-2.05746 2.2735 -2.47448e-19)
(-2.05729 2.27377 -8.22887e-20)
(-2.05714 2.27405 0)
(-2.05701 2.27436 0)
(-2.05691 2.27468 2.48758e-19)
(-2.05683 2.27501 -8.31714e-20)
(-2.05677 2.27534 4.79611e-22)
(-2.05673 2.27569 0)
(-2.36105 2.60803 3.10961e-19)
(-2.35834 2.60503 -3.04285e-19)
(-2.35548 2.60186 1.17933e-18)
(-2.35247 2.59851 -1.14612e-18)
(-2.3493 2.59499 -5.56797e-19)
(-2.34597 2.5913 -2.69464e-19)
(-2.34249 2.58744 7.88871e-19)
(-2.33886 2.5834 1.02003e-18)
(-2.33506 2.57919 7.4361e-19)
(-2.33111 2.5748 -7.19811e-19)
(-2.327 2.57024 0)
(-2.32273 2.5655 1.12991e-18)
(-2.3183 2.56058 -2.2032e-19)
(-2.31372 2.55549 -2.11807e-19)
(-2.30897 2.55022 2.07217e-19)
(-2.30407 2.54477 7.99913e-19)
(-2.299 2.53915 -1.55071e-18)
(-2.29378 2.53335 0)
(-2.28839 2.52738 -5.47028e-19)
(-2.28285 2.52123 -1.83864e-21)
(-2.27716 2.51491 1.36511e-18)
(-2.2713 2.50842 -3.31032e-19)
(-2.2653 2.50176 6.43104e-19)
(-2.25914 2.49494 1.8172e-21)
(-2.25283 2.48795 -5.99702e-19)
(-2.24637 2.48079 1.46538e-19)
(-2.23978 2.47349 0)
(-2.23304 2.46603 1.35618e-19)
(-2.22622 2.45849 -1.20772e-18)
(-2.21945 2.45102 -1.32796e-19)
(-2.2128 2.44367 6.67508e-19)
(-2.20627 2.43647 -5.32228e-19)
(-2.19986 2.4294 -6.635e-19)
(-2.19357 2.42248 -2.65561e-19)
(-2.18741 2.41571 -2.65517e-19)
(-2.18138 2.40909 6.64944e-19)
(-2.17549 2.40263 6.63874e-19)
(-2.16973 2.39632 -1.34005e-19)
(-2.1641 2.39017 0)
(-2.15861 2.38418 -6.67784e-19)
(-2.15326 2.37835 5.38153e-19)
(-2.14805 2.37268 1.35399e-19)
(-2.14298 2.36717 -4.73012e-19)
(-2.13805 2.36183 -6.10439e-19)
(-2.13326 2.35666 6.12209e-19)
(-2.12862 2.35165 -6.83822e-19)
(-2.12412 2.34681 -4.80546e-19)
(-2.11977 2.34214 0)
(-2.11556 2.33763 4.86433e-19)
(-2.1115 2.3333 -4.8827e-19)
(-2.10759 2.32913 -3.50643e-19)
(-2.10383 2.32514 7.10621e-20)
(-2.10022 2.32132 0)
(-2.09676 2.31767 0)
(-2.09344 2.3142 -2.87739e-19)
(-2.09028 2.31089 0)
(-2.08727 2.30776 -2.91432e-19)
(-2.08441 2.3048 0)
(-2.08169 2.30201 2.95175e-19)
(-2.07912 2.29938 0)
(-2.0767 2.29693 0)
(-2.07442 2.29464 0)
(-2.07228 2.29252 -3.0282e-19)
(-2.07028 2.29055 0)
(-2.06842 2.28875 -7.61852e-20)
(-2.06669 2.2871 1.54206e-19)
(-2.06509 2.2856 -1.55115e-19)
(-2.06362 2.28425 -2.33532e-19)
(-2.06227 2.28305 -3.13767e-19)
(-2.06103 2.28198 0)
(-2.0599 2.28104 -1.58532e-19)
(-2.05887 2.28023 1.5934e-19)
(-2.05794 2.27954 1.60081e-19)
(-2.0571 2.27896 0)
(-2.05635 2.27848 0)
(-2.05567 2.27811 8.0603e-20)
(-2.05507 2.27782 -8.18363e-20)
(-2.05453 2.27762 0)
(-2.05405 2.27749 -8.14727e-20)
(-2.05362 2.27744 -8.17059e-20)
(-2.05325 2.27744 0)
(-2.05292 2.2775 3.30369e-19)
(-2.05263 2.27761 1.6555e-19)
(-2.05237 2.27777 -1.65848e-19)
(-2.05215 2.27796 0)
(-2.05196 2.27818 8.36564e-20)
(-2.0518 2.27843 8.37675e-20)
(-2.05167 2.27871 1.66752e-19)
(-2.05155 2.279 1.66434e-19)
(-2.05147 2.27931 -2.50576e-19)
(-2.0514 2.27963 8.35881e-20)
(-2.05136 2.27996 -9.48225e-22)
(-2.05134 2.2803 -8.41786e-20)
(-2.35442 2.61403 3.15194e-19)
(-2.35172 2.61102 -3.04644e-19)
(-2.34886 2.60784 -5.9248e-19)
(-2.34586 2.60449 8.67918e-19)
(-2.3427 2.60096 2.79913e-19)
(-2.33938 2.59726 -5.45944e-19)
(-2.33591 2.59339 -5.70262e-24)
(-2.33228 2.58935 -2.58602e-19)
(-2.3285 2.58512 2.49218e-19)
(-2.32456 2.58073 7.27793e-19)
(-2.32046 2.57615 0)
(-2.3162 2.5714 0)
(-2.31179 2.56648 -8.88291e-19)
(-2.30721 2.56137 8.61786e-19)
(-2.30248 2.55609 0)
(-2.29759 2.55063 -1.01243e-18)
(-2.29254 2.545 9.83568e-19)
(-2.28733 2.53919 -7.62122e-19)
(-2.28196 2.5332 1.47757e-18)
(-2.27643 2.52704 -1.7808e-19)
(-2.27075 2.52071 -5.19539e-19)
(-2.26492 2.5142 0)
(-2.25893 2.50752 -6.51555e-19)
(-2.25278 2.50068 -6.31264e-19)
(-2.24649 2.49368 7.63549e-19)
(-2.24005 2.48651 -2.96229e-19)
(-2.23347 2.47919 1.44402e-19)
(-2.22675 2.47171 0)
(-2.21995 2.46416 0)
(-2.2132 2.45666 0)
(-2.20657 2.4493 -5.42749e-19)
(-2.20005 2.44208 0)
(-2.19365 2.43499 -5.40825e-19)
(-2.18738 2.42806 -6.74595e-19)
(-2.18124 2.42127 2.70135e-19)
(-2.17523 2.41463 -6.76465e-19)
(-2.16935 2.40815 0)
(-2.1636 2.40183 0)
(-2.15799 2.39566 0)
(-2.15251 2.38965 1.35107e-19)
(-2.14718 2.38381 4.08173e-19)
(-2.14198 2.37812 -1.35901e-19)
(-2.13692 2.3726 6.87136e-19)
(-2.132 2.36725 5.51108e-19)
(-2.12723 2.36206 5.53357e-19)
(-2.1226 2.35703 5.55802e-19)
(-2.11811 2.35218 2.97286e-23)
(-2.11377 2.34749 0)
(-2.10957 2.34297 -7.01018e-20)
(-2.10553 2.33862 6.38418e-19)
(-2.10163 2.33444 -2.1427e-19)
(-2.09788 2.33044 -3.58858e-19)
(-2.09428 2.3266 0)
(-2.09083 2.32294 -7.20879e-20)
(-2.08752 2.31945 3.65316e-19)
(-2.08437 2.31613 7.29709e-20)
(-2.08137 2.31299 1.47736e-19)
(-2.07852 2.31001 4.45974e-19)
(-2.07581 2.30721 -4.48776e-19)
(-2.07325 2.30457 3.76734e-19)
(-2.07084 2.30211 -7.52688e-20)
(-2.06857 2.2998 7.66454e-20)
(-2.06644 2.29767 3.06597e-19)
(-2.06445 2.29569 -7.66509e-20)
(-2.06259 2.29387 3.88276e-19)
(-2.06087 2.29221 -3.12038e-19)
(-2.05928 2.2907 0)
(-2.05782 2.28933 3.15547e-19)
(-2.05647 2.28811 7.88307e-20)
(-2.05524 2.28703 -2.39577e-19)
(-2.05412 2.28608 2.40766e-19)
(-2.05309 2.28525 8.09452e-20)
(-2.05217 2.28454 -4.03695e-19)
(-2.05134 2.28395 8.16497e-20)
(-2.05059 2.28346 0)
(-2.04992 2.28307 1.63596e-19)
(-2.04932 2.28277 3.28345e-19)
(-2.04878 2.28255 0)
(-2.04831 2.28241 -2.47295e-19)
(-2.04789 2.28234 1.6561e-19)
(-2.04753 2.28233 -2.49478e-19)
(-2.04721 2.28237 -2.49061e-19)
(-2.04692 2.28247 9.60916e-22)
(-2.04668 2.28261 4.17796e-19)
(-2.04647 2.28279 0)
(-2.04629 2.283 -8.41623e-20)
(-2.04615 2.28324 8.32632e-20)
(-2.04602 2.2835 -2.51921e-19)
(-2.04593 2.28378 -2.51596e-19)
(-2.04585 2.28408 8.39083e-20)
(-2.0458 2.28439 -8.39387e-20)
(-2.04578 2.28472 8.44552e-20)
(-2.04577 2.28505 0)
(-2.34757 2.62019 9.49881e-19)
(-2.34488 2.61717 -3.06804e-19)
(-2.34203 2.61399 3.00454e-19)
(-2.33904 2.61063 -5.82556e-19)
(-2.33588 2.60709 0)
(-2.33258 2.60339 0)
(-2.32912 2.59951 5.3534e-19)
(-2.3255 2.59545 -1.04047e-18)
(-2.32173 2.59122 -2.51738e-19)
(-2.3178 2.58681 2.46449e-19)
(-2.31371 2.58223 9.53555e-19)
(-2.30947 2.57747 1.15633e-18)
(-2.30507 2.57253 6.73105e-19)
(-2.3005 2.56741 -1.74457e-18)
(-2.29578 2.56212 -8.46436e-19)
(-2.29091 2.55665 -2.04345e-19)
(-2.28587 2.551 2.00105e-19)
(-2.28067 2.54518 5.80414e-19)
(-2.27532 2.53918 -1.12384e-18)
(-2.26981 2.533 -1.82557e-19)
(-2.26414 2.52665 -1.75123e-19)
(-2.25832 2.52013 1.71616e-19)
(-2.25235 2.51344 8.26218e-19)
(-2.24622 2.50658 1.2808e-18)
(-2.23995 2.49956 -3.10765e-19)
(-2.23353 2.49238 3.01155e-19)
(-2.22696 2.48503 -1.86931e-21)
(-2.22026 2.47754 -1.4226e-19)
(-2.21348 2.46997 -1.37917e-19)
(-2.20675 2.46246 6.93041e-19)
(-2.20013 2.45508 0)
(-2.19363 2.44783 -4.14112e-19)
(-2.18726 2.44073 2.75063e-19)
(-2.181 2.43378 6.87929e-19)
(-2.17488 2.42697 0)
(-2.16888 2.42032 -6.86072e-19)
(-2.16301 2.41382 1.38394e-19)
(-2.15728 2.40748 0)
(-2.15169 2.4013 5.5165e-19)
(-2.14622 2.39527 0)
(-2.1409 2.38941 -4.16616e-19)
(-2.13572 2.38371 4.16056e-19)
(-2.13067 2.37817 -1.38559e-19)
(-2.12577 2.3728 5.61594e-19)
(-2.12101 2.3676 -4.2067e-19)
(-2.11639 2.36256 -7.0469e-19)
(-2.11191 2.35769 5.68797e-19)
(-2.10758 2.35298 1.43315e-19)
(-2.1034 2.34845 -1.14509e-18)
(-2.09937 2.34409 -2.87762e-19)
(-2.09548 2.3399 1.66766e-23)
(-2.09174 2.33588 3.63169e-19)
(-2.08815 2.33203 -7.35804e-20)
(-2.08471 2.32835 0)
(-2.08142 2.32485 0)
(-2.07828 2.32152 -7.39652e-20)
(-2.07529 2.31836 -2.24146e-19)
(-2.07244 2.31537 -3.01256e-19)
(-2.06975 2.31255 0)
(-2.0672 2.3099 -2.54295e-23)
(-2.06479 2.30742 0)
(-2.06253 2.30511 0)
(-2.06041 2.30296 -6.20565e-19)
(-2.05843 2.30097 -3.12047e-19)
(-2.05659 2.29913 -3.13834e-19)
(-2.05488 2.29746 7.84477e-20)
(-2.0533 2.29593 -7.97779e-20)
(-2.05184 2.29456 2.39621e-19)
(-2.0505 2.29332 -2.39877e-19)
(-2.04927 2.29222 1.61027e-19)
(-2.04816 2.29126 -3.23526e-19)
(-2.04714 2.29042 8.17077e-20)
(-2.04622 2.28969 2.45218e-19)
(-2.0454 2.28908 0)
(-2.04465 2.28858 0)
(-2.04399 2.28817 -1.6497e-19)
(-2.0434 2.28785 -3.30962e-19)
(-2.04287 2.28762 0)
(-2.0424 2.28746 1.66379e-19)
(-2.04199 2.28738 8.29032e-20)
(-2.04164 2.28735 1.6616e-19)
(-2.04132 2.28738 -2.51597e-19)
(-2.04105 2.28747 -1.67662e-19)
(-2.04082 2.28759 -1.67892e-19)
(-2.04062 2.28776 -1.68049e-19)
(-2.04045 2.28796 0)
(-2.04032 2.28818 -3.36598e-19)
(-2.04021 2.28844 1.68382e-19)
(-2.04012 2.28871 0)
(-2.04006 2.289 8.42351e-20)
(-2.04003 2.28931 0)
(-2.04002 2.28963 -8.42557e-20)
(-2.04003 2.28996 -8.42721e-20)
(-2.3405 2.62651 -9.53636e-19)
(-2.33782 2.62349 1.2392e-18)
(-2.33498 2.62029 -1.99985e-21)
(-2.332 2.61693 2.92435e-19)
(-2.32885 2.61339 0)
(-2.32556 2.60967 -5.55313e-19)
(-2.32211 2.60578 -5.39999e-19)
(-2.3185 2.60172 -1.31145e-18)
(-2.31474 2.59748 2.56118e-19)
(-2.31082 2.59306 -9.91697e-19)
(-2.30675 2.58846 -1.20337e-18)
(-2.30252 2.58369 -7.00926e-19)
(-2.29813 2.57874 0)
(-2.29358 2.57362 -2.19629e-19)
(-2.28887 2.56831 1.28498e-18)
(-2.28401 2.56283 -2.08831e-19)
(-2.27899 2.55717 8.06849e-19)
(-2.27381 2.55133 0)
(-2.26847 2.54531 9.04181e-24)
(-2.26297 2.53912 -7.36636e-19)
(-2.25732 2.53276 7.14418e-19)
(-2.25152 2.52622 -6.92788e-19)
(-2.24556 2.51951 6.71742e-19)
(-2.23946 2.51264 -6.51286e-19)
(-2.2332 2.5056 0)
(-2.2268 2.4984 0)
(-2.22025 2.49104 4.45939e-19)
(-2.21357 2.48353 1.44657e-19)
(-2.2068 2.47594 0)
(-2.20009 2.4684 -5.63092e-19)
(-2.19349 2.46101 0)
(-2.18701 2.45374 5.60208e-19)
(-2.18065 2.44663 -1.38904e-19)
(-2.17442 2.43965 -5.56918e-19)
(-2.16831 2.43283 2.79265e-19)
(-2.16233 2.42616 4.1806e-19)
(-2.15648 2.41964 0)
(-2.15076 2.41328 6.98623e-19)
(-2.14518 2.40708 -5.62351e-19)
(-2.13973 2.40104 -1.80562e-21)
(-2.13443 2.39516 5.61244e-19)
(-2.12925 2.38944 -5.66463e-19)
(-2.12422 2.38389 -2.83222e-19)
(-2.11933 2.3785 -4.25441e-19)
(-2.11459 2.37328 1.4175e-19)
(-2.10998 2.36823 -2.8647e-19)
(-2.10552 2.36334 -4.30666e-19)
(-2.1012 2.35862 -1.43615e-19)
(-2.09704 2.35408 1.30782e-18)
(-2.09301 2.3497 0)
(-2.08914 2.34549 2.93389e-19)
(-2.08541 2.34146 0)
(-2.08183 2.3376 2.96532e-19)
(-2.07841 2.33391 0)
(-2.07513 2.33039 0)
(-2.072 2.32704 -4.51421e-19)
(-2.06902 2.32387 4.55853e-19)
(-2.06618 2.32087 7.57976e-20)
(-2.0635 2.31804 -9.2669e-22)
(-2.06096 2.31538 -3.86176e-19)
(-2.05857 2.31288 -3.10306e-19)
(-2.05631 2.31055 0)
(-2.05421 2.30839 2.78937e-23)
(-2.05223 2.30639 3.15541e-19)
(-2.0504 2.30454 7.8831e-20)
(-2.0487 2.30285 2.38701e-19)
(-2.04712 2.30131 0)
(-2.04567 2.29992 -2.4205e-19)
(-2.04434 2.29867 2.4224e-19)
(-2.04312 2.29756 -8.07872e-20)
(-2.04201 2.29658 8.21159e-20)
(-2.041 2.29572 -8.24467e-20)
(-2.04009 2.29498 -8.27538e-20)
(-2.03927 2.29436 0)
(-2.03854 2.29384 0)
(-2.03788 2.29342 8.26206e-20)
(-2.03729 2.29308 1.65723e-19)
(-2.03677 2.29284 -9.71414e-22)
(-2.03632 2.29266 -1.68473e-19)
(-2.03591 2.29256 -9.72268e-22)
(-2.03556 2.29252 -1.68115e-19)
(-2.03526 2.29254 4.21392e-19)
(-2.035 2.29261 1.68573e-19)
(-2.03477 2.29272 0)
(-2.03459 2.29287 1.68852e-19)
(-2.03443 2.29306 0)
(-2.03431 2.29328 1.35773e-23)
(-2.03421 2.29352 0)
(-2.03414 2.29378 8.40202e-20)
(-2.03409 2.29407 -9.60119e-22)
(-2.03407 2.29437 -8.44844e-20)
(-2.03407 2.29468 8.49536e-20)
(-2.0341 2.29501 1.68459e-19)
(-2.33321 2.633 6.39898e-19)
(-2.33054 2.62997 -9.33888e-19)
(-2.32771 2.62677 3.0446e-19)
(-2.32473 2.62339 0)
(-2.3216 2.61984 0)
(-2.31831 2.61612 5.59581e-19)
(-2.31487 2.61222 0)
(-2.31128 2.60815 1.05894e-18)
(-2.30753 2.6039 1.0297e-18)
(-2.30362 2.59947 2.25136e-18)
(-2.29956 2.59487 -2.44234e-19)
(-2.29534 2.59008 0)
(-2.29096 2.58512 0)
(-2.28643 2.57998 8.92272e-19)
(-2.28174 2.57466 8.66531e-19)
(-2.27689 2.56917 2.09365e-19)
(-2.27188 2.56349 -1.02201e-18)
(-2.26672 2.55764 0)
(-2.2614 2.55161 8.84014e-24)
(-2.25592 2.5454 8.91595e-24)
(-2.25029 2.53902 -7.2438e-19)
(-2.2445 2.53247 1.74715e-19)
(-2.23856 2.52575 -8.52986e-19)
(-2.23247 2.51886 1.64303e-19)
(-2.22623 2.5118 -1.93289e-21)
(-2.21985 2.50458 -1.56396e-19)
(-2.21332 2.4972 -6.02891e-19)
(-2.20666 2.48967 -1.16856e-18)
(-2.19991 2.48206 -1.14837e-18)
(-2.19322 2.47451 0)
(-2.18664 2.46709 1.41724e-19)
(-2.18018 2.45981 -1.43286e-19)
(-2.17384 2.45267 0)
(-2.16762 2.44568 5.6782e-19)
(-2.16153 2.43884 -4.26569e-19)
(-2.15556 2.43215 -2.83771e-19)
(-2.14973 2.42562 2.83927e-19)
(-2.14403 2.41924 -7.11483e-19)
(-2.13847 2.41302 -5.6928e-19)
(-2.13304 2.40696 0)
(-2.12774 2.40106 -1.2854e-18)
(-2.12259 2.39533 1.4422e-19)
(-2.11757 2.38976 -1.42826e-19)
(-2.1127 2.38436 1.45136e-19)
(-2.10796 2.37912 -4.35154e-19)
(-2.10337 2.37405 -1.46231e-19)
(-2.09892 2.36915 1.02239e-18)
(-2.09462 2.36442 1.47482e-19)
(-2.09047 2.35985 -5.88987e-19)
(-2.08646 2.35546 0)
(-2.0826 2.35124 2.97358e-19)
(-2.07888 2.34719 -2.98875e-19)
(-2.07532 2.34331 -3.00454e-19)
(-2.0719 2.33961 -1.50095e-19)
(-2.06863 2.33608 1.52764e-19)
(-2.06552 2.33272 3.05346e-19)
(-2.06255 2.32953 -1.54453e-19)
(-2.05973 2.32652 -4.63984e-19)
(-2.05705 2.32367 4.64664e-19)
(-2.05452 2.321 1.55107e-19)
(-2.05214 2.31849 3.13829e-19)
(-2.0499 2.31615 1.56805e-19)
(-2.0478 2.31397 1.57657e-19)
(-2.04584 2.31195 -1.58461e-19)
(-2.04402 2.31009 -1.5926e-19)
(-2.04232 2.30839 0)
(-2.04076 2.30684 -8.04154e-20)
(-2.03931 2.30543 -2.43318e-19)
(-2.03799 2.30417 3.26514e-19)
(-2.03678 2.30304 -8.14945e-20)
(-2.03568 2.30204 1.65597e-19)
(-2.03468 2.30117 8.3107e-20)
(-2.03377 2.30042 -8.24301e-20)
(-2.03296 2.29978 9.73874e-22)
(-2.03223 2.29924 3.33775e-19)
(-2.03158 2.29881 -8.4166e-20)
(-2.031 2.29846 0)
(-2.03049 2.2982 -8.3587e-20)
(-2.03004 2.29801 -8.37456e-20)
(-2.02964 2.29789 0)
(-2.0293 2.29784 1.68993e-19)
(-2.02901 2.29784 -1.69201e-19)
(-2.02875 2.2979 -8.41805e-20)
(-2.02854 2.298 8.52079e-20)
(-2.02836 2.29814 1.69503e-19)
(-2.02822 2.29831 0)
(-2.02811 2.29852 1.69544e-19)
(-2.02802 2.29875 8.52337e-20)
(-2.02796 2.29901 4.83367e-22)
(-2.02793 2.29928 -4.79965e-22)
(-2.02792 2.29958 -2.53987e-19)
(-2.02794 2.29989 8.55856e-20)
(-2.02798 2.30021 8.50748e-20)
(-2.32568 2.63966 -1.28602e-18)
(-2.32302 2.63662 0)
(-2.3202 2.63341 0)
(-2.31723 2.63003 5.92482e-19)
(-2.31411 2.62647 -5.80906e-19)
(-2.31083 2.62274 -2.8278e-19)
(-2.3074 2.61883 -5.48477e-19)
(-2.30382 2.61475 5.33689e-19)
(-2.30008 2.61049 -1.55755e-18)
(-2.29619 2.60605 -1.00791e-18)
(-2.29214 2.60143 4.91004e-19)
(-2.28794 2.59664 -2.39668e-19)
(-2.28357 2.59167 -9.27906e-19)
(-2.27905 2.58651 1.12613e-18)
(-2.27438 2.58118 -1.09608e-18)
(-2.26954 2.57567 1.06275e-18)
(-2.26455 2.56998 -2.07612e-19)
(-2.2594 2.56412 8.02544e-19)
(-2.2541 2.55807 7.79177e-19)
(-2.24864 2.55185 8.60356e-24)
(-2.24302 2.54546 0)
(-2.23725 2.53889 5.35309e-19)
(-2.23133 2.53215 -5.17489e-19)
(-2.22526 2.52524 0)
(-2.21904 2.51816 0)
(-2.21268 2.51092 1.56831e-19)
(-2.20617 2.50353 -1.54064e-19)
(-2.19952 2.49598 1.47446e-19)
(-2.1928 2.48834 8.75201e-19)
(-2.18613 2.48077 1.46372e-19)
(-2.17957 2.47334 0)
(-2.17313 2.46604 0)
(-2.1668 2.45888 -4.34023e-19)
(-2.16061 2.45187 -1.45136e-19)
(-2.15453 2.44501 7.19565e-19)
(-2.14859 2.4383 -2.88177e-19)
(-2.14277 2.43175 -5.74723e-19)
(-2.13709 2.42535 8.65679e-19)
(-2.13154 2.41911 1.0104e-18)
(-2.12612 2.41304 0)
(-2.12085 2.40712 5.80192e-19)
(-2.11571 2.40137 -5.8164e-19)
(-2.11071 2.39579 -1.44901e-19)
(-2.10585 2.39037 1.47221e-19)
(-2.10113 2.38511 5.87229e-19)
(-2.09655 2.38002 0)
(-2.09212 2.37511 -7.38797e-19)
(-2.08783 2.37036 8.91378e-19)
(-2.08369 2.36578 -1.5015e-19)
(-2.07969 2.36137 1.50832e-19)
(-2.07585 2.35714 -6.00616e-19)
(-2.07215 2.35307 4.5501e-19)
(-2.06859 2.34918 1.51177e-19)
(-2.06519 2.34546 -1.53826e-19)
(-2.06194 2.34192 1.5274e-19)
(-2.05883 2.33854 -1.55424e-19)
(-2.05587 2.33534 0)
(-2.05306 2.33231 3.12245e-19)
(-2.0504 2.32945 -3.13889e-19)
(-2.04789 2.32676 -2.4691e-23)
(-2.04552 2.32424 -3.17144e-19)
(-2.04329 2.32189 0)
(-2.0412 2.3197 -1.59232e-19)
(-2.03925 2.31766 3.21961e-19)
(-2.03743 2.31579 3.23519e-19)
(-2.03575 2.31408 3.25019e-19)
(-2.03419 2.31251 -1.64211e-19)
(-2.03276 2.31109 3.27922e-19)
(-2.03144 2.30981 -4.94876e-19)
(-2.03024 2.30867 -9.80035e-22)
(-2.02915 2.30766 0)
(-2.02815 2.30677 1.6647e-19)
(-2.02726 2.30601 -1.67012e-19)
(-2.02645 2.30535 1.67512e-19)
(-2.02573 2.3048 -3.35958e-19)
(-2.02508 2.30435 -2.52088e-19)
(-2.02451 2.30398 8.48703e-20)
(-2.02401 2.30371 1.69074e-19)
(-2.02357 2.3035 1.69366e-19)
(-2.02318 2.30337 0)
(-2.02285 2.30331 -8.53832e-20)
(-2.02256 2.3033 -1.69899e-19)
(-2.02232 2.30334 8.54845e-20)
(-2.02211 2.30343 0)
(-2.02195 2.30355 -3.40106e-19)
(-2.02181 2.30372 1.70022e-19)
(-2.02171 2.30391 8.44991e-20)
(-2.02164 2.30414 -1.70864e-19)
(-2.02159 2.30439 -4.7918e-22)
(-2.02157 2.30466 1.69675e-19)
(-2.02157 2.30494 0)
(-2.0216 2.30525 -8.47194e-20)
(-2.02165 2.30557 8.41922e-20)
(-2.31791 2.6465 6.45741e-19)
(-2.31526 2.64345 6.27472e-19)
(-2.31245 2.64023 -6.15574e-19)
(-2.30949 2.63684 5.95798e-19)
(-2.30638 2.63328 -5.84417e-19)
(-2.30311 2.62953 1.13238e-18)
(-2.2997 2.62562 -2.02816e-21)
(-2.29613 2.62152 1.07527e-18)
(-2.2924 2.61725 5.21224e-19)
(-2.28852 2.6128 9.17117e-25)
(-2.28448 2.60817 -8.96616e-25)
(-2.28029 2.60337 7.19539e-19)
(-2.27594 2.59838 7.01607e-19)
(-2.27144 2.59322 -1.59482e-18)
(-2.26678 2.58787 -1.10753e-18)
(-2.26196 2.58235 -8.6026e-19)
(-2.25698 2.57664 0)
(-2.25185 2.57076 -1.01395e-18)
(-2.24656 2.5647 1.99869e-21)
(-2.24112 2.55847 1.72415e-18)
(-2.23552 2.55205 0)
(-2.22977 2.54547 -1.79485e-19)
(-2.22387 2.53871 1.76201e-19)
(-2.21782 2.53178 -1.69053e-19)
(-2.21162 2.52469 1.99048e-21)
(-2.20527 2.51743 1.61153e-19)
(-2.19879 2.51001 -6.21662e-19)
(-2.19216 2.50244 1.20576e-18)
(-2.18546 2.49479 -1.47162e-19)
(-2.17881 2.4872 1.48665e-19)
(-2.17227 2.47974 7.35107e-19)
(-2.16585 2.47242 -7.35234e-19)
(-2.15955 2.46525 1.17264e-18)
(-2.15337 2.45822 -5.85564e-19)
(-2.14731 2.45134 -7.30467e-19)
(-2.14138 2.44461 5.86935e-19)
(-2.13559 2.43804 8.77819e-19)
(-2.12992 2.43162 -7.33031e-19)
(-2.12439 2.42537 -5.86379e-19)
(-2.11899 2.41927 0)
(-2.11373 2.41334 0)
(-2.10861 2.40757 5.89909e-19)
(-2.10362 2.40197 -4.44553e-19)
(-2.09878 2.39653 -1.49259e-19)
(-2.09408 2.39126 -5.95227e-19)
(-2.08952 2.38615 -4.4895e-19)
(-2.0851 2.38122 -2.99813e-19)
(-2.08083 2.37646 -4.50605e-19)
(-2.0767 2.37186 0)
(-2.07272 2.36744 -1.5276e-19)
(-2.06888 2.36319 6.081e-19)
(-2.0652 2.35911 -3.06415e-19)
(-2.06166 2.3552 1.54887e-19)
(-2.05827 2.35147 0)
(-2.05503 2.34791 -1.56399e-19)
(-2.05194 2.34452 -4.69634e-19)
(-2.04899 2.34131 0)
(-2.04619 2.33826 -4.7244e-19)
(-2.04355 2.33539 4.76725e-19)
(-2.04104 2.33269 -3.18777e-19)
(-2.03868 2.33015 3.20346e-19)
(-2.03646 2.32778 -1.59975e-19)
(-2.03439 2.32558 1.62675e-19)
(-2.03245 2.32353 -3.24908e-19)
(-2.03064 2.32165 -6.52782e-19)
(-2.02897 2.31991 1.64872e-19)
(-2.02742 2.31833 1.65575e-19)
(-2.026 2.3169 1.64284e-19)
(-2.02469 2.31561 1.64939e-19)
(-2.0235 2.31445 -1.58786e-23)
(-2.02241 2.31343 -1.67065e-19)
(-2.02143 2.31253 -1.67612e-19)
(-2.02054 2.31174 1.67123e-19)
(-2.01974 2.31107 -5.05638e-19)
(-2.01902 2.31051 6.75799e-19)
(-2.01839 2.31004 -3.38602e-19)
(-2.01782 2.30966 1.97503e-21)
(-2.01733 2.30937 -5.84444e-24)
(-2.01689 2.30915 -1.71096e-19)
(-2.01652 2.30901 8.46476e-20)
(-2.01619 2.30893 8.4706e-20)
(-2.01591 2.3089 8.47507e-20)
(-2.01568 2.30893 1.69534e-19)
(-2.01549 2.30901 -8.57463e-20)
(-2.01533 2.30913 1.70476e-19)
(-2.01521 2.30928 -3.40781e-19)
(-2.01511 2.30947 0)
(-2.01505 2.30968 1.70141e-19)
(-2.01502 2.30992 8.49945e-20)
(-2.01501 2.31018 -1.69348e-19)
(-2.01502 2.31047 8.48298e-20)
(-2.01506 2.31077 -8.47477e-20)
(-2.01512 2.31109 4.75141e-22)
(-2.30989 2.65351 -1.29821e-18)
(-2.30724 2.65046 0)
(-2.30445 2.64723 0)
(-2.3015 2.64383 -6.00814e-19)
(-2.2984 2.64026 -5.85555e-19)
(-2.29514 2.6365 0)
(-2.29174 2.63258 -5.55794e-19)
(-2.28818 2.62847 -1.08258e-18)
(-2.28447 2.62419 -5.25e-19)
(-2.2806 2.61973 -2.04813e-18)
(-2.27658 2.61509 1.5e-18)
(-2.2724 2.61027 -1.94339e-18)
(-2.26807 2.60527 1.41587e-18)
(-2.26358 2.60009 1.37702e-18)
(-2.25893 2.59474 7.3902e-24)
(-2.25413 2.5892 0)
(-2.24917 2.58348 0)
(-2.24405 2.57758 0)
(-2.23878 2.57151 0)
(-2.23336 2.56525 -5.82306e-19)
(-2.22778 2.55882 -1.89223e-19)
(-2.22205 2.55222 0)
(-2.21617 2.54544 7.10072e-19)
(-2.21014 2.5385 1.71357e-19)
(-2.20396 2.53138 -1.68358e-19)
(-2.19763 2.52411 6.49858e-19)
(-2.19117 2.51667 6.30855e-19)
(-2.18456 2.50908 -1.22396e-18)
(-2.17789 2.50141 1.49407e-19)
(-2.17126 2.4938 4.48773e-19)
(-2.16474 2.48632 -1.09568e-23)
(-2.15834 2.47898 4.48175e-19)
(-2.15205 2.47178 2.97519e-19)
(-2.14589 2.46473 4.44712e-19)
(-2.13986 2.45783 5.9375e-19)
(-2.13395 2.45108 -7.40978e-19)
(-2.12817 2.44449 1.49377e-19)
(-2.12252 2.43806 0)
(-2.11701 2.43178 0)
(-2.11163 2.42567 0)
(-2.10639 2.41972 0)
(-2.10128 2.41393 7.46479e-19)
(-2.09631 2.40831 4.48662e-19)
(-2.09149 2.40285 7.50501e-19)
(-2.0868 2.39756 -1.51689e-19)
(-2.08225 2.39244 6.05095e-19)
(-2.07785 2.38749 0)
(-2.0736 2.38271 -1.51441e-19)
(-2.06948 2.3781 1.53958e-19)
(-2.06552 2.37366 1.52689e-19)
(-2.0617 2.3694 -4.63887e-19)
(-2.05803 2.3653 -3.09981e-19)
(-2.0545 2.36138 0)
(-2.05113 2.35763 -1.55461e-19)
(-2.0479 2.35406 4.72439e-19)
(-2.04482 2.35065 1.58877e-19)
(-2.04189 2.34743 4.76914e-19)
(-2.03911 2.34437 2.21704e-23)
(-2.03647 2.34148 -7.99859e-19)
(-2.03398 2.33876 4.83715e-19)
(-2.03163 2.33621 1.60693e-19)
(-2.02943 2.33383 -4.88179e-19)
(-2.02736 2.33161 1.62155e-19)
(-2.02544 2.32955 3.25747e-19)
(-2.02364 2.32765 1.91104e-23)
(-2.02198 2.32591 -1.95445e-23)
(-2.02044 2.32432 -9.37012e-24)
(-2.01903 2.32287 1.97149e-21)
(-2.01773 2.32156 3.35104e-19)
(-2.01654 2.32039 -1.67627e-19)
(-2.01546 2.31935 1.68146e-19)
(-2.01449 2.31844 0)
(-2.01361 2.31764 5.06181e-19)
(-2.01282 2.31695 -1.9837e-21)
(-2.01211 2.31637 -5.10411e-19)
(-2.01148 2.31589 -1.69103e-19)
(-2.01092 2.3155 1.71361e-19)
(-2.01044 2.31519 1.7059e-19)
(-2.01001 2.31496 1.69752e-19)
(-2.00964 2.3148 -1.72831e-19)
(-2.00932 2.31471 -3.42846e-19)
(-2.00906 2.31467 -1.70942e-19)
(-2.00883 2.31469 -1.27274e-23)
(-2.00865 2.31475 0)
(-2.0085 2.31486 -1.6978e-19)
(-2.00839 2.315 3.42231e-19)
(-2.00831 2.31518 0)
(-2.00825 2.31539 -1.70279e-19)
(-2.00823 2.31562 -1.70071e-19)
(-2.00823 2.31588 -8.49276e-20)
(-2.00825 2.31615 1.69164e-19)
(-2.0083 2.31645 -1.69914e-19)
(-2.00837 2.31677 -1.53285e-25)
(-2.30161 2.6607 2.05424e-21)
(-2.29897 2.65764 -6.30171e-19)
(-2.29618 2.65441 1.23748e-18)
(-2.29325 2.651 6.01396e-19)
(-2.29016 2.64742 5.88388e-19)
(-2.28692 2.64366 -5.71509e-19)
(-2.28352 2.63972 -5.54875e-19)
(-2.27998 2.6356 5.46694e-19)
(-2.27628 2.63131 -1.06109e-18)
(-2.27242 2.62684 2.06679e-18)
(-2.26842 2.62219 1.50722e-18)
(-2.26425 2.61735 4.87691e-19)
(-2.25993 2.61234 4.7457e-19)
(-2.25546 2.60715 -1.39337e-18)
(-2.25083 2.60178 1.80468e-18)
(-2.24604 2.59622 -4.36772e-19)
(-2.2411 2.59049 4.28771e-19)
(-2.23601 2.58458 8.29773e-19)
(-2.23075 2.57849 -4.01259e-19)
(-2.22535 2.57222 3.94023e-19)
(-2.21979 2.56577 -7.61824e-19)
(-2.21408 2.55915 0)
(-2.20822 2.55235 5.40352e-19)
(-2.2022 2.54539 1.75653e-19)
(-2.19605 2.53826 -6.78455e-19)
(-2.18974 2.53096 -6.58914e-19)
(-2.1833 2.5235 6.39871e-19)
(-2.17672 2.51589 1.39613e-18)
(-2.17007 2.5082 -1.53664e-19)
(-2.16346 2.50056 1.51109e-19)
(-2.15696 2.49306 -7.59182e-19)
(-2.15058 2.4857 0)
(-2.14432 2.47848 -6.03666e-19)
(-2.13818 2.47141 7.52442e-19)
(-2.13216 2.46449 4.50637e-19)
(-2.12628 2.45772 0)
(-2.12052 2.45111 -1.495e-19)
(-2.11489 2.44466 3.01104e-19)
(-2.10939 2.43836 -1.51662e-19)
(-2.10403 2.43223 4.5363e-19)
(-2.09881 2.42626 1.93761e-21)
(-2.09372 2.42045 -6.03879e-19)
(-2.08877 2.41481 3.03613e-19)
(-2.08396 2.40934 -7.62029e-19)
(-2.07929 2.40403 7.62328e-19)
(-2.07476 2.3989 -1.54104e-19)
(-2.07038 2.39393 1.52697e-19)
(-2.06613 2.38913 -1.5518e-19)
(-2.06204 2.3845 6.19193e-19)
(-2.05809 2.38005 -3.1082e-19)
(-2.05428 2.37577 -1.55082e-19)
(-2.05063 2.37166 4.71099e-19)
(-2.04712 2.36772 0)
(-2.04376 2.36396 -1.57104e-19)
(-2.04055 2.36037 1.59748e-19)
(-2.03748 2.35695 0)
(-2.03457 2.35371 -3.20431e-19)
(-2.0318 2.35063 6.43724e-19)
(-2.02917 2.34773 1.62642e-19)
(-2.0267 2.345 -4.86126e-19)
(-2.02436 2.34244 1.62093e-19)
(-2.02217 2.34004 1.62808e-19)
(-2.02012 2.33781 -3.28911e-19)
(-2.0182 2.33574 0)
(-2.01642 2.33382 -1.64789e-19)
(-2.01477 2.33207 1.67393e-19)