/*--------------------------------*- C++ -*----------------------------------*\
  =========                 |
  \\      /  F ield         | OpenFOAM: The Open Source CFD Toolbox
   \\    /   O peration     | Website:  https://openfoam.org
    \\  /    A nd           | Version:  10
     \\/     M anipulation  |
\*---------------------------------------------------------------------------*/
FoamFile
{
    format      ascii;
    class       surfaceScalarField;
    location    "3000";
    object      phi;
}
// * * * * * * * * * * * * * * * * * * * * * * * * * * * * * * * * * * * * * //

dimensions      [0 3 -1 0 0 0 0];

internalField   nonuniform List<scalar> 
35536
(
-2.16398e-09
-3.11986e-07
-6.51096e-09
-1.11791e-07
-1.15346e-08
-7.97618e-08
-1.68181e-08
-6.83375e-08
-2.22968e-08
-5.83823e-08
-2.7968e-08
-5.24561e-08
-3.38224e-08
-4.96767e-08
-3.98524e-08
-4.85932e-08
-4.60561e-08
-4.84092e-08
-5.24363e-08
-4.87348e-08
-5.89986e-08
-4.93721e-08
-6.57515e-08
-5.02144e-08
-7.27056e-08
-5.12004e-08
-7.98741e-08
-5.22934e-08
-8.72727e-08
-5.34704e-08
-9.49159e-08
-5.47164e-08
-1.02824e-07
-5.60072e-08
-1.11017e-07
-5.73242e-08
-1.19511e-07
-5.86771e-08
-1.28314e-07
-6.00797e-08
-1.37435e-07
-6.15464e-08
-1.46875e-07
-6.30936e-08
-1.56631e-07
-6.47382e-08
-1.66689e-07
-6.64957e-08
-1.7702e-07
-6.83785e-08
-1.87585e-07
-7.03926e-08
-1.98331e-07
-7.25351e-08
-2.09193e-07
-7.47901e-08
-2.20105e-07
-7.71274e-08
-2.31005e-07
-7.95023e-08
-2.41843e-07
-8.18591e-08
-2.52593e-07
-8.41369e-08
-2.63255e-07
-8.62776e-08
-2.73848e-07
-8.82326e-08
-2.84413e-07
-8.99675e-08
-2.94996e-07
-9.14627e-08
-3.05644e-07
-9.27116e-08
-3.16395e-07
-9.37175e-08
-3.27276e-07
-9.44892e-08
-3.38293e-07
-9.50379e-08
-3.49431e-07
-9.53739e-08
-3.60654e-07
-9.55031e-08
-3.71902e-07
-9.54244e-08
-3.83102e-07
-9.51276e-08
-3.94171e-07
-9.45914e-08
-4.05033e-07
-9.37818e-08
-4.15614e-07
-9.26535e-08
-4.25862e-07
-9.11555e-08
-4.35793e-07
-8.92321e-08
-4.45459e-07
-8.6857e-08
-4.54807e-07
-8.40577e-08
-4.63721e-07
-8.08718e-08
-4.72241e-07
-7.72489e-08
-4.80585e-07
-7.30916e-08
-4.889e-07
-6.85069e-08
-4.9718e-07
-6.37059e-08
-5.05397e-07
-5.87682e-08
-5.13502e-07
-5.37459e-08
-5.214e-07
-4.86771e-08
-5.2893e-07
-4.35617e-08
-5.3583e-07
-3.83224e-08
-5.41574e-07
-3.27208e-08
-5.46052e-07
-2.61405e-08
-5.48483e-07
-1.78329e-08
-5.43083e-07
-6.10696e-09
-5.1131e-07
1.57715e-08
-4.45705e-07
6.58562e-08
-3.98361e-07
1.47134e-07
-4.05701e-07
2.17372e-07
-4.33202e-07
2.52726e-07
-4.41292e-07
2.74761e-07
-4.36022e-07
3.14613e-07
-4.40114e-07
3.62318e-07
-4.45593e-07
3.72294e-07
-4.49843e-07
3.57287e-07
-4.52505e-07
3.12914e-07
-4.67965e-07
2.51842e-07
-5.05458e-07
1.76202e-07
-5.42402e-07
6.86689e-08
-5.62004e-07
-4.72449e-08
-5.8652e-07
-1.2359e-07
-6.29364e-07
-1.54277e-07
-6.79372e-07
-1.57925e-07
-7.08083e-07
-1.68753e-07
-7.17308e-07
-1.71045e-07
-7.24709e-07
-1.59681e-07
-7.37018e-07
-1.53435e-07
-7.35998e-07
-1.58368e-07
-6.78181e-07
-1.87996e-07
-5.74952e-07
-1.89018e-07
-5.51942e-07
-8.61676e-08
-6.10822e-07
1.96039e-09
-6.88075e-07
4.72567e-08
-7.44913e-07
6.82324e-08
-7.77337e-07
7.59963e-08
-7.95185e-07
7.71596e-08
-8.05699e-07
7.54245e-08
-8.12031e-07
7.26759e-08
-8.15264e-07
6.98488e-08
6.61876e-08
-2.47413e-09
-3.09512e-07
-7.73662e-09
-1.06525e-07
-1.32892e-08
-7.42039e-08
-1.88971e-08
-6.27216e-08
-2.45649e-08
-5.27059e-08
-3.02752e-08
-4.67382e-08
-3.60587e-08
-4.38868e-08
-4.19539e-08
-4.26921e-08
-4.79878e-08
-4.23692e-08
-5.41788e-08
-4.25372e-08
-6.05404e-08
-4.30029e-08
-6.70846e-08
-4.36615e-08
-7.38237e-08
-4.44518e-08
-8.07711e-08
-4.53358e-08
-8.79419e-08
-4.62889e-08
-9.53544e-08
-4.7293e-08
-1.03032e-07
-4.83189e-08
-1.10992e-07
-4.93523e-08
-1.19254e-07
-5.04045e-08
-1.27837e-07
-5.14863e-08
-1.36763e-07
-5.2612e-08
-1.46052e-07
-5.37999e-08
-1.55717e-07
-5.50713e-08
-1.65766e-07
-5.64501e-08
-1.76191e-07
-5.79614e-08
-1.86969e-07
-5.9629e-08
-1.98052e-07
-6.14718e-08
-2.09369e-07
-6.34985e-08
-2.20826e-07
-6.5701e-08
-2.32313e-07
-6.80498e-08
-2.43718e-07
-7.04904e-08
-2.54946e-07
-7.29464e-08
-2.6593e-07
-7.53279e-08
-2.7665e-07
-7.75442e-08
-2.87125e-07
-7.95176e-08
-2.97414e-07
-8.11926e-08
-3.07597e-07
-8.2539e-08
-3.17767e-07
-8.35489e-08
-3.28017e-07
-8.42312e-08
-3.38432e-07
-8.46056e-08
-3.49085e-07
-8.46975e-08
-3.60024e-07
-8.45356e-08
-3.7127e-07
-8.41485e-08
-3.82806e-07
-8.35626e-08
-3.94575e-07
-8.27968e-08
-4.06478e-07
-8.18566e-08
-4.18384e-07
-8.07272e-08
-4.30148e-07
-7.93707e-08
-4.41629e-07
-7.77309e-08
-4.52725e-07
-7.5744e-08
-4.63428e-07
-7.33478e-08
-4.73835e-07
-7.04713e-08
-4.83976e-07
-6.71312e-08
-4.93706e-07
-6.33968e-08
-5.02922e-07
-5.9326e-08
-5.11746e-07
-5.49121e-08
-5.20472e-07
-5.00724e-08
-5.293e-07
-4.49494e-08
-5.38216e-07
-3.97864e-08
-5.4711e-07
-3.46624e-08
-5.55785e-07
-2.9579e-08
-5.63905e-07
-2.44459e-08
-5.7081e-07
-1.90207e-08
-5.75695e-07
-1.27417e-08
-5.76903e-07
-4.63237e-09
-5.67216e-07
6.55484e-09
-5.25659e-07
2.48946e-08
-4.44297e-07
6.62313e-08
-3.6443e-07
1.37977e-07
-3.31014e-07
2.19852e-07
-3.47083e-07
2.91297e-07
-3.97433e-07
3.65345e-07
-4.83454e-07
4.48723e-07
-5.75572e-07
4.64833e-07
-6.33022e-07
4.14925e-07
-6.19093e-07
2.99125e-07
-5.31729e-07
1.64764e-07
-3.97392e-07
4.22996e-08
-2.50407e-07
-7.79008e-08
-1.32299e-07
-1.65223e-07
-4.71821e-08
-2.08779e-07
4.57775e-10
-2.01936e-07
2.88291e-08
-1.86108e-07
5.15774e-08
-1.91186e-07
7.33829e-08
-1.92418e-07
1.06595e-07
-1.92333e-07
1.16419e-07
-1.6256e-07
-3.55857e-09
-3.7459e-08
-2.45686e-07
5.51992e-08
-5.16108e-07
8.21772e-08
-6.92347e-07
9.05171e-08
-7.83932e-07
9.3713e-08
-8.30897e-07
9.42051e-08
-8.55554e-07
9.2777e-08
-8.69807e-07
9.01043e-08
-8.79369e-07
8.65787e-08
-8.86712e-07
8.26614e-08
-8.92812e-07
7.87327e-08
-8.9789e-07
7.49571e-08
7.14465e-08
-2.22299e-09
-3.07287e-07
-6.98807e-09
-1.01753e-07
-1.20191e-08
-6.91626e-08
-1.71066e-08
-5.76215e-08
-2.23512e-08
-4.74492e-08
-2.7808e-08
-4.12718e-08
-3.34571e-08
-3.82305e-08
-3.92771e-08
-3.68663e-08
-4.52575e-08
-3.63833e-08
-5.13951e-08
-3.63939e-08
-5.76911e-08
-3.67008e-08
-6.41495e-08
-3.71965e-08
-7.07767e-08
-3.78175e-08
-7.75816e-08
-3.85234e-08
-8.4576e-08
-3.92869e-08
-9.17707e-08
-4.00905e-08
-9.91783e-08
-4.09035e-08
-1.06817e-07
-4.17055e-08
-1.14712e-07
-4.25025e-08
-1.22889e-07
-4.33031e-08
-1.31381e-07
-4.41161e-08
-1.40223e-07
-4.49554e-08
-1.49455e-07
-4.58399e-08
-1.59117e-07
-4.6794e-08
-1.6924e-07
-4.78475e-08
-1.79848e-07
-4.90357e-08
-1.90944e-07
-5.03969e-08
-2.025e-07
-5.19691e-08
-2.1445e-07
-5.37836e-08
-2.26681e-07
-5.58549e-08
-2.3904e-07
-5.81704e-08
-2.51347e-07
-6.06801e-08
-2.63419e-07
-6.32943e-08
-2.75107e-07
-6.5891e-08
-2.86317e-07
-6.8335e-08
-2.97027e-07
-7.05018e-08
-3.07277e-07
-7.2297e-08
-3.17157e-07
-7.36659e-08
-3.26782e-07
-7.45906e-08
-3.36281e-07
-7.50799e-08
-3.45784e-07
-7.51587e-08
-3.55415e-07
-7.48592e-08
-3.65296e-07
-7.42176e-08
-3.75532e-07
-7.32722e-08
-3.86209e-07
-7.20638e-08
-3.97374e-07
-7.06336e-08
-4.09019e-07
-6.90192e-08
-4.21071e-07
-6.72482e-08
-4.33395e-07
-6.53275e-08
-4.45814e-07
-6.32367e-08
-4.5814e-07
-6.09307e-08
-4.70173e-07
-5.83501e-08
-4.81795e-07
-5.54254e-08
-4.93011e-07
-5.21005e-08
-5.0395e-07
-4.83079e-08
-5.14665e-07
-4.41253e-08
-5.25003e-07
-3.9683e-08
-5.34914e-07
-3.50215e-08
-5.4461e-07
-3.0107e-08
-5.54324e-07
-2.49828e-08
-5.64073e-07
-1.98687e-08
-5.73635e-07
-1.49364e-08
-5.82576e-07
-1.01759e-08
-5.89951e-07
-5.48509e-09
-5.94078e-07
-5.75533e-10
-5.92732e-07
5.1927e-09
-5.79803e-07
1.19988e-08
-5.33509e-07
2.00649e-08
-4.30453e-07
3.51559e-08
-2.78705e-07
6.83462e-08
-1.06436e-07
1.19006e-07
8.3642e-08
1.74975e-07
3.19287e-07
2.12903e-07
5.59748e-07
2.24523e-07
7.84947e-07
1.89887e-07
9.69079e-07
1.1476e-07
1.10375e-06
2.96341e-08
1.18776e-06
-4.19855e-08
1.18907e-06
-7.90199e-08
1.11604e-06
-9.18136e-08
9.92188e-07
-8.47673e-08
8.19593e-07
-2.95946e-08
5.65783e-07
6.72061e-08
2.59872e-07
1.14398e-07
-5.46361e-08
1.21768e-07
-3.56534e-07
1.0931e-07
-6.17586e-07
9.8231e-08
-7.59507e-07
1.04118e-07
-8.16597e-07
1.11914e-07
-8.48177e-07
1.1354e-07
-8.69067e-07
1.11295e-07
-8.82857e-07
1.07464e-07
-8.91599e-07
1.02987e-07
-8.96843e-07
9.81303e-08
-8.99694e-07
9.31029e-08
-9.0126e-07
8.8293e-08
-9.02364e-07
8.38783e-08
-9.03362e-07
7.97953e-08
-9.04373e-07
7.59928e-08
7.24665e-08
-2.22435e-09
-3.05062e-07
-6.90574e-09
-9.70675e-08
-1.17692e-08
-6.42918e-08
-1.66788e-08
-5.27019e-08
-2.17489e-08
-4.23691e-08
-2.7027e-08
-3.59857e-08
-3.24992e-08
-3.27523e-08
-3.81474e-08
-3.12132e-08
-4.39598e-08
-3.05662e-08
-4.993e-08
-3.04187e-08
-5.60546e-08
-3.05708e-08
-6.23324e-08
-3.09128e-08
-6.87638e-08
-3.13797e-08
-7.5351e-08
-3.19297e-08
-8.20978e-08
-3.25336e-08
-8.90109e-08
-3.3171e-08
-9.60958e-08
-3.38123e-08
-1.03358e-07
-3.44368e-08
-1.10813e-07
-3.50423e-08
-1.18483e-07
-3.56297e-08
-1.26396e-07
-3.62002e-08
-1.34593e-07
-3.67589e-08
-1.43119e-07
-3.73161e-08
-1.52032e-07
-3.7888e-08
-1.61393e-07
-3.84981e-08
-1.71266e-07
-3.91786e-08
-1.81713e-07
-3.99706e-08
-1.92784e-07
-4.09246e-08
-2.045e-07
-4.20983e-08
-2.1684e-07
-4.35506e-08
-2.29717e-07
-4.53316e-08
-2.42969e-07
-4.74664e-08
-2.56365e-07
-4.99358e-08
-2.69627e-07
-5.26606e-08
-2.82486e-07
-5.55006e-08
-2.94729e-07
-5.8273e-08
-3.06239e-07
-6.07892e-08
-3.17003e-07
-6.2892e-08
-3.2709e-07
-6.44801e-08
-3.36627e-07
-6.55102e-08
-3.4576e-07
-6.59852e-08
-3.54638e-07
-6.59355e-08
-3.63407e-07
-6.54032e-08
-3.72201e-07
-6.44339e-08
-3.81154e-07
-6.3073e-08
-3.90387e-07
-6.13663e-08
-4.00014e-07
-5.93595e-08
-4.10134e-07
-5.7092e-08
-4.20824e-07
-5.45943e-08
-4.32113e-07
-5.18963e-08
-4.4396e-07
-4.90273e-08
-4.56253e-07
-4.60023e-08
-4.68819e-07
-4.28101e-08
-4.81454e-07
-3.942e-08
-4.93914e-07
-3.58033e-08
-5.06074e-07
-3.192e-08
-5.17991e-07
-2.77248e-08
-5.29798e-07
-2.31935e-08
-5.41453e-07
-1.84529e-08
-5.52841e-07
-1.35992e-08
-5.64069e-07
-8.61222e-09
-5.75315e-07
-3.62932e-09
-5.86592e-07
1.13386e-09
-5.97665e-07
5.56281e-09
-6.07886e-07
9.62289e-09
-6.16015e-07
1.33514e-08
-6.20836e-07
1.6906e-08
-6.20839e-07
2.01735e-08
-6.09096e-07
2.3503e-08
-5.65922e-07
2.52987e-08
-4.74372e-07
2.77866e-08
-3.32688e-07
3.36914e-08
-1.60807e-07
4.10725e-08
1.03128e-08
5.33948e-08
1.33049e-07
6.73451e-08
1.66723e-07
8.1431e-08
1.07651e-07
8.9022e-08
-2.37747e-08
8.96202e-08
-1.9054e-07
8.77977e-08
-3.70757e-07
8.84391e-08
-5.51787e-07
9.64675e-08
-6.96129e-07
1.15124e-07
-7.62583e-07
1.3404e-07
-7.8983e-07
1.42011e-07
-8.09007e-07
1.41399e-07
-8.35088e-07
1.35846e-07
-8.6595e-07
1.29402e-07
-8.86546e-07
1.24868e-07
-8.95775e-07
1.21219e-07
-8.99278e-07
1.17093e-07
-9.00143e-07
1.1218e-07
-8.99588e-07
1.06889e-07
-8.98386e-07
1.01733e-07
-8.97166e-07
9.68494e-08
-8.96298e-07
9.21822e-08
-8.95787e-07
8.77492e-08
-8.95472e-07
8.35499e-08
-8.95253e-07
7.95754e-08
-8.95072e-07
7.58149e-08
-8.94846e-07
7.22576e-08
-8.94536e-07
6.88945e-08
-8.94097e-07
6.57122e-08
-8.93534e-07
6.26961e-08
5.98781e-08
-2.16848e-09
-3.02893e-07
-6.76523e-09
-9.24657e-08
-1.15103e-08
-5.95393e-08
-1.62598e-08
-4.79428e-08
-2.11419e-08
-3.74782e-08
-2.62211e-08
-3.09001e-08
-3.14923e-08
-2.74767e-08
-3.69414e-08
-2.57609e-08
-4.25579e-08
-2.49468e-08
-4.8335e-08
-2.46387e-08
-5.42682e-08
-2.46345e-08
-6.03538e-08
-2.48239e-08
-6.65889e-08
-2.51414e-08
-7.29701e-08
-2.55452e-08
-7.94943e-08
-2.60064e-08
-8.61588e-08
-2.65037e-08
-9.29597e-08
-2.70091e-08
-9.98929e-08
-2.75015e-08
-1.0696e-07
-2.79739e-08
-1.1417e-07
-2.84198e-08
-1.21538e-07
-2.88324e-08
-1.29093e-07
-2.92072e-08
-1.3687e-07
-2.95433e-08
-1.44922e-07
-2.98442e-08
-1.53311e-07
-3.01201e-08
-1.62115e-07
-3.03891e-08
-1.71424e-07
-3.06796e-08
-1.81339e-07
-3.10321e-08
-1.91963e-07
-3.1501e-08
-2.03388e-07
-3.21555e-08
-2.15675e-07
-3.30775e-08
-2.2882e-07
-3.43543e-08
-2.42726e-07
-3.60631e-08
-2.57171e-07
-3.82446e-08
-2.7182e-07
-4.08723e-08
-2.86275e-07
-4.38285e-08
-3.00155e-07
-4.69069e-08
-3.13178e-07
-4.9851e-08
-3.25213e-07
-5.2414e-08
-3.36268e-07
-5.44125e-08
-3.46454e-07
-5.5748e-08
-3.55936e-07
-5.63985e-08
-3.64893e-07
-5.63933e-08
-3.73494e-07
-5.57868e-08
-3.81891e-07
-5.46398e-08
-3.90219e-07
-5.30125e-08
-3.98611e-07
-5.09526e-08
-4.07203e-07
-4.8492e-08
-4.16113e-07
-4.56768e-08
-4.25428e-07
-4.25746e-08
-4.35221e-07
-3.9231e-08
-4.45554e-07
-3.5674e-08
-4.56457e-07
-3.19285e-08
-4.67904e-07
-2.80144e-08
-4.79824e-07
-2.39413e-08
-4.92114e-07
-1.96935e-08
-5.04645e-07
-1.52577e-08
-5.17256e-07
-1.06429e-08
-5.29922e-07
-5.84405e-09
-5.42689e-07
-8.7548e-10
-5.55527e-07
4.20909e-09
-5.68466e-07
9.31238e-09
-5.8164e-07
1.43001e-08
-5.95152e-07
1.9043e-08
-6.08979e-07
2.34227e-08
-6.22975e-07
2.73373e-08
-6.36843e-07
3.07175e-08
-6.504e-07
3.35575e-08
-6.63099e-07
3.59152e-08
-6.7634e-07
3.81191e-08
-6.90655e-07
4.16192e-08
-7.03422e-07
4.61513e-08
-7.14136e-07
5.18763e-08
-7.23153e-07
6.26788e-08
-7.33527e-07
7.784e-08
-7.44766e-07
9.27434e-08
-7.60643e-07
1.05078e-07
-7.84451e-07
1.13616e-07
-8.15699e-07
1.1906e-07
-8.50296e-07
1.22881e-07
-8.80678e-07
1.26713e-07
-8.97287e-07
1.31813e-07
-8.99685e-07
1.36664e-07
-8.96333e-07
1.38791e-07
-8.92613e-07
1.37622e-07
-8.90828e-07
1.33913e-07
-8.9054e-07
1.28963e-07
-8.89686e-07
1.23869e-07
-8.87538e-07
1.18959e-07
-8.84646e-07
1.14146e-07
-8.81798e-07
1.09325e-07
-8.79406e-07
1.04516e-07
-8.77456e-07
9.98048e-08
-8.7583e-07
9.52328e-08
-8.74475e-07
9.08234e-08
-8.73329e-07
8.65914e-08
-8.72333e-07
8.25434e-08
-8.71444e-07
7.86804e-08
-8.70625e-07
7.49994e-08
-8.69853e-07
7.14947e-08
-8.69105e-07
6.81591e-08
-8.68364e-07
6.49846e-08
-8.67621e-07
6.19662e-08
5.91461e-08
-2.12625e-09
-3.00766e-07
-6.62178e-09
-8.79665e-08
-1.12172e-08
-5.49397e-08
-1.57632e-08
-4.33909e-08
-2.04167e-08
-3.28194e-08
-2.52645e-08
-2.60489e-08
-3.03073e-08
-2.24323e-08
-3.55312e-08
-2.05361e-08
-4.09259e-08
-1.95515e-08
-4.64849e-08
-1.9079e-08
-5.22044e-08
-1.89144e-08
-5.80814e-08
-1.89464e-08
-6.4113e-08
-1.91095e-08
-7.0296e-08
-1.93624e-08
-7.6626e-08
-1.96771e-08
-8.30968e-08
-2.00341e-08
-8.96989e-08
-2.04088e-08
-9.64191e-08
-2.07838e-08
-1.03245e-07
-2.11511e-08
-1.10167e-07
-2.15016e-08
-1.17181e-07
-2.18231e-08
-1.24291e-07
-2.21032e-08
-1.3151e-07
-2.23311e-08
-1.38865e-07
-2.2498e-08
-1.46396e-07
-2.25992e-08
-1.54161e-07
-2.26359e-08
-1.62237e-07
-2.2617e-08
-1.70723e-07
-2.25617e-08
-1.7974e-07
-2.25018e-08
-1.89429e-07
-2.24851e-08
-1.99949e-07
-2.25786e-08
-2.11453e-07
-2.28705e-08
-2.24066e-07
-2.34694e-08
-2.37831e-07
-2.44958e-08
-2.52652e-07
-2.60608e-08
-2.68253e-07
-2.82275e-08
-2.84183e-07
-3.09643e-08
-2.99895e-07
-3.41103e-08
-3.14882e-07
-3.73842e-08
-3.28791e-07
-4.04479e-08
-3.41478e-07
-4.2997e-08
-3.5298e-07
-4.48278e-08
-3.63456e-07
-4.58522e-08
-3.73112e-07
-4.60734e-08
-3.82158e-07
-4.55478e-08
-3.90787e-07
-4.43502e-08
-3.99155e-07
-4.25645e-08
-4.0737e-07
-4.02669e-08
-4.15531e-07
-3.75091e-08
-4.23779e-07
-3.43232e-08
-4.32272e-07
-3.07376e-08
-4.41135e-07
-2.68191e-08
-4.50457e-07
-2.26297e-08
-4.60316e-07
-1.81999e-08
-4.70752e-07
-1.35693e-08
-4.81744e-07
-8.77952e-09
-4.93233e-07
-3.85575e-09
-5.05171e-07
1.19672e-09
-5.17503e-07
6.379e-09
-5.30167e-07
1.16769e-08
-5.43112e-07
1.70542e-08
-5.5638e-07
2.24856e-08
-5.70094e-07
2.78896e-08
-5.84398e-07
3.31651e-08
-5.99422e-07
3.82375e-08
-6.1527e-07
4.30528e-08
-6.32074e-07
4.75686e-08
-6.50033e-07
5.17716e-08
-6.69515e-07
5.57498e-08
-6.90941e-07
5.98417e-08
-7.13779e-07
6.47185e-08
-7.37951e-07
7.0598e-08
-7.63934e-07
7.80994e-08
-7.8954e-07
8.83383e-08
-8.11092e-07
9.91549e-08
-8.27294e-07
1.08565e-07
-8.39505e-07
1.16964e-07
-8.49265e-07
1.23165e-07
-8.57954e-07
1.27651e-07
-8.662e-07
1.31173e-07
-8.73241e-07
1.3387e-07
-8.76801e-07
1.35451e-07
-8.76013e-07
1.35895e-07
-8.72273e-07
1.35044e-07
-8.67496e-07
1.32849e-07
-8.63077e-07
1.29545e-07
-8.5952e-07
1.25498e-07
-8.56633e-07
1.21066e-07
-8.54092e-07
1.16463e-07
-8.51736e-07
1.11802e-07
-8.49559e-07
1.07145e-07
-8.47581e-07
1.02536e-07
-8.45785e-07
9.80147e-08
-8.4415e-07
9.36093e-08
-8.42654e-07
8.93412e-08
-8.41279e-07
8.52254e-08
-8.40004e-07
8.12714e-08
-8.38811e-07
7.74841e-08
-8.37683e-07
7.38642e-08
-8.36607e-07
7.04093e-08
-8.35572e-07
6.71149e-08
-8.3457e-07
6.39752e-08
-8.33595e-07
6.09853e-08
5.81673e-08
-2.07621e-09
-2.98689e-07
-6.46254e-09
-8.35786e-08
-1.09034e-08
-5.04989e-08
-1.52381e-08
-3.9055e-08
-1.96478e-08
-2.84091e-08
-2.42386e-08
-2.14591e-08
-2.9019e-08
-1.76539e-08
-3.39777e-08
-1.55798e-08
-3.91059e-08
-1.44258e-08
-4.43986e-08
-1.37889e-08
-4.98536e-08
-1.34624e-08
-5.547e-08
-1.33334e-08
-6.12478e-08
-1.33358e-08
-6.71866e-08
-1.34284e-08
-7.32859e-08
-1.35834e-08
-7.95421e-08
-1.37843e-08
-8.59465e-08
-1.40115e-08
-9.24849e-08
-1.42534e-08
-9.91405e-08
-1.45041e-08
-1.05894e-07
-1.47578e-08
-1.12724e-07
-1.5002e-08
-1.19615e-07
-1.52222e-08
-1.26554e-07
-1.54024e-08
-1.33535e-07
-1.55259e-08
-1.40567e-07
-1.55771e-08
-1.4767e-07
-1.55428e-08
-1.54881e-07
-1.54142e-08
-1.62262e-07
-1.51894e-08
-1.69896e-07
-1.48753e-08
-1.77898e-07
-1.44905e-08
-1.86415e-07
-1.40684e-08
-1.9563e-07
-1.36613e-08
-2.05758e-07
-1.33452e-08
-2.17032e-07
-1.3224e-08
-2.29657e-07
-1.34312e-08
-2.43752e-07
-1.41218e-08
-2.59247e-07
-1.54461e-08
-2.75821e-07
-1.74987e-08
-2.92899e-07
-2.02519e-08
-3.09771e-07
-2.35065e-08
-3.25781e-07
-2.69051e-08
-3.40496e-07
-3.00235e-08
-3.53764e-07
-3.24974e-08
-3.65652e-07
-3.41049e-08
-3.76362e-07
-3.47704e-08
-3.86139e-07
-3.45205e-08
-3.9523e-07
-3.34329e-08
-4.03868e-07
-3.15981e-08
-4.12245e-07
-2.91049e-08
-4.20486e-07
-2.60533e-08
-4.28675e-07
-2.25212e-08
-4.36924e-07
-1.85492e-08
-4.45365e-07
-1.41828e-08
-4.54099e-07
-9.48841e-09
-4.63193e-07
-4.5266e-09
-4.72723e-07
6.71184e-10
-4.82748e-07
6.07266e-09
-4.93302e-07
1.16441e-08
-5.04393e-07
1.73539e-08
-5.1601e-07
2.31735e-08
-5.28149e-07
2.90818e-08
-5.40803e-07
3.50592e-08
-5.54003e-07
4.10523e-08
-5.67828e-07
4.69912e-08
-5.82395e-07
5.28091e-08
-5.9787e-07
5.84568e-08
-6.14449e-07
6.39225e-08
-6.3226e-07
6.92588e-08
-6.51398e-07
7.45809e-08
-6.71911e-07
8.0062e-08
-6.93493e-07
8.59611e-08
-7.1589e-07
9.26158e-08
-7.3854e-07
1.00478e-07
-7.60035e-07
1.09836e-07
-7.78258e-07
1.17631e-07
-7.92257e-07
1.22948e-07
-8.02844e-07
1.27932e-07
-8.11177e-07
1.31805e-07
-8.1788e-07
1.34544e-07
-8.22896e-07
1.3623e-07
-8.26041e-07
1.36939e-07
-8.27352e-07
1.36625e-07
-8.27009e-07
1.35404e-07
-8.25439e-07
1.33337e-07
-8.23205e-07
1.30507e-07
-8.20764e-07
1.27042e-07
-8.18386e-07
1.23101e-07
-8.16156e-07
1.18839e-07
-8.1408e-07
1.14389e-07
-8.12133e-07
1.09851e-07
-8.10292e-07
1.05301e-07
-8.08541e-07
1.00791e-07
-8.06865e-07
9.63604e-08
-8.05259e-07
9.20369e-08
-8.03716e-07
8.78411e-08
-8.02234e-07
8.37874e-08
-8.00808e-07
7.98856e-08
-7.99433e-07
7.61418e-08
-7.98106e-07
7.25589e-08
-7.96821e-07
6.91375e-08
-7.95576e-07
6.5876e-08
-7.94372e-07
6.27713e-08
-7.93209e-07
5.98197e-08
-7.92064e-07
5.70174e-08
5.43826e-08
-2.02766e-09
-2.96662e-07
-6.30537e-09
-7.93027e-08
-1.05893e-08
-4.62211e-08
-1.47049e-08
-3.49447e-08
-1.88629e-08
-2.42568e-08
-2.31858e-08
-1.71426e-08
-2.76889e-08
-1.31572e-08
-3.23632e-08
-1.09116e-08
-3.72007e-08
-9.59437e-09
-4.21971e-08
-8.79862e-09
-4.73511e-08
-8.31499e-09
-5.26632e-08
-8.0287e-09
-5.8135e-08
-7.8724e-09
-6.37689e-08
-7.80391e-09
-6.95678e-08
-7.79497e-09
-7.55333e-08
-7.83038e-09
-8.16619e-08
-7.89521e-09
-8.79491e-08
-7.97929e-09
-9.43849e-08
-8.08219e-09
-1.00952e-07
-8.20519e-09
-1.07628e-07
-8.33979e-09
-1.14389e-07
-8.4749e-09
-1.21206e-07
-8.59687e-09
-1.28054e-07
-8.68893e-09
-1.34908e-07
-8.73199e-09
-1.41751e-07
-8.70573e-09
-1.48579e-07
-8.59018e-09
-1.55401e-07
-8.36772e-09
-1.6225e-07
-8.02543e-09
-1.69178e-07
-7.55743e-09
-1.76273e-07
-6.96742e-09
-1.83654e-07
-6.27155e-09
-1.91486e-07
-5.50193e-09
-1.99985e-07
-4.71058e-09
-2.09423e-07
-3.97598e-09
-2.20113e-07
-3.40968e-09
-2.32368e-07
-3.16134e-09
-2.46413e-07
-3.41445e-09
-2.62253e-07
-4.36005e-09
-2.79556e-07
-6.13667e-09
-2.97638e-07
-8.74378e-09
-3.15603e-07
-1.19698e-08
-3.32614e-07
-1.53954e-08
-3.48128e-07
-1.85055e-08
-3.61963e-07
-2.08649e-08
-3.74212e-07
-2.22171e-08
-3.85119e-07
-2.24881e-08
-3.94966e-07
-2.17252e-08
-4.04018e-07
-2.00318e-08
-4.12522e-07
-1.75238e-08
-4.20695e-07
-1.43153e-08
-4.28684e-07
-1.05211e-08
-4.3661e-07
-6.21768e-09
-4.44642e-07
-1.42748e-09
-4.52925e-07
3.77061e-09
-4.61535e-07
9.28336e-09
-4.70523e-07
1.5062e-08
-4.79931e-07
2.10609e-08
-4.89801e-07
2.72448e-08
-5.00183e-07
3.35846e-08
-5.11119e-07
4.00498e-08
-5.22633e-07
4.66061e-08
-5.3476e-07
5.32102e-08
-5.4755e-07
5.98181e-08
-5.61068e-07
6.63966e-08
-5.75391e-07
7.29269e-08
-5.9059e-07
7.93949e-08
-6.06716e-07
8.57954e-08
-6.23794e-07
9.21521e-08
-6.41753e-07
9.85366e-08
-6.60398e-07
1.05075e-07
-6.79397e-07
1.11955e-07
-6.98147e-07
1.19384e-07
-7.15877e-07
1.27513e-07
-7.31345e-07
1.32891e-07
-7.43865e-07
1.35218e-07
-7.53727e-07
1.37584e-07
-7.61447e-07
1.39396e-07
-7.67361e-07
1.40408e-07
-7.7166e-07
1.40547e-07
-7.74465e-07
1.39816e-07
-7.76008e-07
1.38264e-07
-7.76508e-07
1.35984e-07
-7.76227e-07
1.33078e-07
-7.75419e-07
1.29651e-07
-7.74276e-07
1.2581e-07
-7.72927e-07
1.21659e-07
-7.71453e-07
1.17296e-07
-7.69909e-07
1.12803e-07
-7.68331e-07
1.08253e-07
-7.66745e-07
1.03702e-07
-7.65166e-07
9.91978e-08
-7.63603e-07
9.47751e-08
-7.62058e-07
9.04615e-08
-7.60529e-07
8.62773e-08
-7.59014e-07
8.22369e-08
-7.5751e-07
7.83498e-08
-7.56016e-07
7.46219e-08
-7.54532e-07
7.10562e-08
-7.53059e-07
6.76534e-08
-7.516e-07
6.4412e-08
-7.50157e-07
6.13292e-08
-7.48734e-07
5.84008e-08
-7.47333e-07
5.5622e-08
-7.4593e-07
5.29871e-08
-7.44514e-07
5.04913e-08
4.81433e-08
-1.98136e-09
-2.94681e-07
-6.15457e-09
-7.51344e-08
-1.0292e-08
-4.20952e-08
-1.42045e-08
-3.10431e-08
-1.81285e-08
-2.03441e-08
-2.21975e-08
-1.30847e-08
-2.64328e-08
-8.93216e-09
-3.08273e-08
-6.52657e-09
-3.53737e-08
-5.05716e-09
-4.00677e-08
-4.114e-09
-4.49078e-08
-3.48488e-09
-4.98949e-08
-3.05264e-09
-5.50308e-08
-2.74883e-09
-6.0318e-08
-2.53033e-09
-6.57598e-08
-2.36812e-09
-7.13634e-08
-2.24277e-09
-7.71306e-08
-2.1448e-09
-8.30617e-08
-2.06588e-09
-8.91555e-08
-2.00656e-09
-9.54097e-08
-1.96927e-09
-1.01813e-07
-1.95425e-09
-1.08348e-07
-1.95557e-09
-1.14994e-07
-1.96563e-09
-1.2172e-07
-1.97412e-09
-1.28492e-07
-1.96716e-09
-1.35274e-07
-1.92726e-09
-1.4203e-07
-1.83364e-09
-1.48728e-07
-1.66323e-09
-1.55351e-07
-1.39245e-09
-1.61894e-07
-9.99516e-10
-1.68376e-07
-4.67142e-10
-1.74841e-07
2.14777e-10
-1.81366e-07
1.04655e-09
-1.88067e-07
2.01608e-09
-1.9511e-07
3.09558e-09
-2.02726e-07
4.23731e-09
-2.11221e-07
5.36741e-09
-2.20974e-07
6.37793e-09
-2.32406e-07
7.11866e-09
-2.45884e-07
7.39586e-09
-2.61557e-07
6.99278e-09
-2.79183e-07
5.72789e-09
-2.9805e-07
3.54701e-09
-3.171e-07
6.1745e-10
-3.35266e-07
-2.63729e-09
-3.51803e-07
-5.63429e-09
-3.66427e-07
-7.83609e-09
-3.79217e-07
-8.92286e-09
-3.90433e-07
-8.80823e-09
-4.00392e-07
-7.55388e-09
-4.09403e-07
-5.28096e-09
-4.17769e-07
-2.11706e-09
-4.25737e-07
1.79697e-09
-4.33453e-07
6.33437e-09
-4.41064e-07
1.14166e-08
-4.48771e-07
1.70109e-08
-4.56735e-07
2.3039e-08
-4.65031e-07
2.93693e-08
-4.73725e-07
3.59553e-08
-4.82878e-07
4.27566e-08
-4.9254e-07
4.97327e-08
-5.02748e-07
5.68477e-08
-5.13529e-07
6.40579e-08
-5.24906e-07
7.13057e-08
-5.36926e-07
7.85307e-08
-5.49666e-07
8.56924e-08
-5.63184e-07
9.27789e-08
-5.77482e-07
9.98006e-08
-5.92513e-07
1.0678e-07
-6.08136e-07
1.13753e-07
-6.2411e-07
1.20772e-07
-6.40132e-07
1.27888e-07
-6.55813e-07
1.3513e-07
-6.70694e-07
1.42536e-07
-6.83935e-07
1.46245e-07
-6.94999e-07
1.46312e-07
-7.03971e-07
1.46557e-07
-7.11106e-07
1.46503e-07
-7.16669e-07
1.45903e-07
-7.20865e-07
1.44662e-07
-7.23866e-07
1.42765e-07
-7.25845e-07
1.40244e-07
-7.26972e-07
1.37165e-07
-7.27417e-07
1.33611e-07
-7.27337e-07
1.2967e-07
-7.26856e-07
1.25434e-07
-7.26071e-07
1.20983e-07
-7.25056e-07
1.16392e-07
-7.2387e-07
1.11727e-07
-7.22562e-07
1.07042e-07
-7.2117e-07
1.02385e-07
-7.1972e-07
9.77959e-08
-7.18228e-07
9.3305e-08
-7.16704e-07
8.89365e-08
-7.15151e-07
8.47085e-08
-7.13572e-07
8.0634e-08
-7.11968e-07
7.67214e-08
-7.10343e-07
7.29757e-08
-7.08699e-07
6.93987e-08
-7.07042e-07
6.59901e-08
-7.05376e-07
6.27476e-08
-7.03707e-07
5.96676e-08
-7.02042e-07
5.67456e-08
-7.00385e-07
5.39765e-08
-6.98741e-07
5.13543e-08
-6.97113e-07
4.88731e-08
-6.95488e-07
4.65264e-08
4.43237e-08
-1.93697e-09
-2.92747e-07
-5.99283e-09
-7.10879e-08
-9.99196e-09
-3.81152e-08
-1.37229e-08
-2.73315e-08
-1.7432e-08
-1.66538e-08
-2.12641e-08
-9.26981e-09
-2.52458e-08
-4.96536e-09
-2.93687e-08
-2.41672e-09
-3.36297e-08
-8.08289e-10
-3.80272e-08
2.7142e-10
-4.256e-08
1.03533e-09
-4.72277e-08
1.60145e-09
-5.2031e-08
2.03951e-09
-5.69712e-08
2.39351e-09
-6.20499e-08
2.69306e-09
-6.72708e-08
2.95959e-09
-7.26381e-08
3.20339e-09
-7.81571e-08
3.43355e-09
-8.3835e-08
3.65151e-09
-8.96753e-08
3.85165e-09
-9.56768e-08
4.02877e-09
-1.01835e-07
4.18583e-09
-1.0814e-07
4.32639e-09
-1.14579e-07
4.45483e-09
-1.21129e-07
4.57761e-09
-1.2776e-07
4.70397e-09
-1.34435e-07
4.84678e-09
-1.41109e-07
5.02314e-09
-1.47737e-07
5.25441e-09
-1.54277e-07
5.56527e-09
-1.60697e-07
5.98195e-09
-1.6698e-07
6.52975e-09
-1.73128e-07
7.23017e-09
-1.79172e-07
8.09738e-09
-1.85174e-07
9.13589e-09
-1.91235e-07
1.03377e-08
-1.97508e-07
1.16797e-08
-2.04209e-07
1.31197e-08
-2.1164e-07
1.45923e-08
-2.202e-07
1.6002e-08
-2.30378e-07
1.72208e-08
-2.42677e-07
1.80816e-08
-2.57449e-07
1.83759e-08
-2.74671e-07
1.78943e-08
-2.93781e-07
1.65192e-08
-3.13699e-07
1.43141e-08
-3.33123e-07
1.15983e-08
-3.50989e-07
8.93229e-09
-3.66761e-07
6.93561e-09
-3.80403e-07
6.05421e-09
-3.92172e-07
6.45853e-09
-4.02418e-07
8.10921e-09
-4.11508e-07
1.08764e-08
-4.19794e-07
1.46117e-08
-4.27584e-07
1.91889e-08
-4.35065e-07
2.44606e-08
-4.42356e-07
3.02859e-08
-4.49637e-07
3.6601e-08
-4.57152e-07
4.34172e-08
-4.65052e-07
5.05869e-08
-4.73375e-07
5.79498e-08
-4.82184e-07
6.54954e-08
-4.91525e-07
7.31788e-08
-5.01412e-07
8.09332e-08
-5.11858e-07
8.87052e-08
-5.22901e-07
9.64753e-08
-5.34568e-07
1.04231e-07
-5.46849e-07
1.11951e-07
-5.59695e-07
1.19602e-07
-5.73004e-07
1.27147e-07
-5.86598e-07
1.34552e-07
-6.00241e-07
1.41789e-07
-6.1364e-07
1.4882e-07
-6.26457e-07
1.55637e-07
-6.37994e-07
1.5802e-07
-6.47764e-07
1.56272e-07
-6.55811e-07
1.54768e-07
-6.62323e-07
1.53114e-07
-6.67522e-07
1.51097e-07
-6.71595e-07
1.48633e-07
-6.74687e-07
1.45703e-07
-6.76917e-07
1.42326e-07
-6.78393e-07
1.38544e-07
-6.7923e-07
1.34413e-07
-6.79544e-07
1.29998e-07
-6.79439e-07
1.25367e-07
-6.79002e-07
1.20588e-07
-6.78303e-07
1.15724e-07
-6.77393e-07
1.10831e-07
-6.76308e-07
1.05958e-07
-6.75078e-07
1.01145e-07
-6.73723e-07
9.64277e-08
-6.72261e-07
9.18313e-08
-6.70706e-07
8.73763e-08
-6.69073e-07
8.30775e-08
-6.67374e-07
7.89449e-08
-6.6562e-07
7.49846e-08
-6.63821e-07
7.11995e-08
-6.61986e-07
6.759e-08
-6.60124e-07
6.41545e-08
-6.58242e-07
6.08904e-08
-6.56345e-07
5.77936e-08
-6.5444e-07
5.48597e-08
-6.52531e-07
5.20834e-08
-6.50623e-07
4.9459e-08
-6.48722e-07
4.69806e-08
-6.4683e-07
4.46418e-08
-6.44938e-07
4.2436e-08
-6.43036e-07
4.03565e-08
3.84088e-08
-1.89449e-09
-2.90855e-07
-5.84803e-09
-6.71466e-08
-9.7227e-09
-3.42652e-08
-1.32851e-08
-2.37942e-08
-1.6784e-08
-1.3179e-08
-2.03785e-08
-5.6967e-09
-2.40932e-08
-1.26849e-09
-2.79429e-08
1.41783e-09
-3.19252e-08
3.16036e-09
-3.60353e-08
4.36827e-09
-4.02705e-08
5.25707e-09
-4.46296e-08
5.94608e-09
-4.91121e-08
6.50648e-09
-5.37185e-08
6.98314e-09
-5.84494e-08
7.40618e-09
-6.33054e-08
7.79718e-09
-6.82931e-08
8.17241e-09
-7.34157e-08
8.53758e-09
-7.86779e-08
8.8955e-09
-8.4087e-08
9.24321e-09
-8.96478e-08
9.57347e-09
-9.53582e-08
9.88245e-09
-1.01216e-07
1.01735e-08
-1.07217e-07
1.04498e-08
-1.13356e-07
1.07148e-08
-1.19621e-07
1.09729e-08
-1.25993e-07
1.12297e-08
-1.32446e-07
1.14935e-08
-1.38943e-07
1.17758e-08
-1.4544e-07
1.20928e-08
-1.51887e-07
1.24655e-08
-1.58235e-07
1.29188e-08
-1.64441e-07
1.34804e-08
-1.70476e-07
1.41777e-08
-1.76328e-07
1.50345e-08
-1.82012e-07
1.60682e-08
-1.87574e-07
1.72859e-08
-1.93094e-07
1.86826e-08
-1.987e-07
2.02383e-08
-2.04577e-07
2.19185e-08
-2.10992e-07
2.36752e-08
-2.18309e-07
2.54393e-08
-2.27011e-07
2.71185e-08
-2.37677e-07
2.85987e-08
-2.50846e-07
2.97213e-08
-2.66774e-07
3.02618e-08
-2.85207e-07
3.0035e-08
-3.05278e-07
2.89854e-08
-3.25647e-07
2.72705e-08
-3.44941e-07
2.53054e-08
-3.6222e-07
2.36963e-08
-3.77163e-07
2.30224e-08
-3.89923e-07
2.36222e-08
-4.0086e-07
2.55467e-08
-4.10375e-07
2.8708e-08
-4.18843e-07
3.29322e-08
-4.26601e-07
3.80464e-08
-4.33962e-07
4.39729e-08
-4.41041e-07
5.05241e-08
-4.47962e-07
5.75589e-08
-4.54937e-07
6.49995e-08
-4.62216e-07
7.28803e-08
-4.69956e-07
8.10791e-08
-4.78161e-07
8.93868e-08
-4.86802e-07
9.77105e-08
-4.95942e-07
1.06078e-07
-5.0562e-07
1.14422e-07
-5.15848e-07
1.22662e-07
-5.2661e-07
1.30719e-07
-5.3783e-07
1.38532e-07
-5.49354e-07
1.46047e-07
-5.60972e-07
1.53217e-07
-5.72444e-07
1.59993e-07
-5.83514e-07
1.6635e-07
-5.93591e-07
1.6778e-07
-6.02237e-07
1.64731e-07
-6.09497e-07
1.61986e-07
-6.15481e-07
1.59187e-07
-6.20337e-07
1.56121e-07
-6.24214e-07
1.52698e-07
-6.2724e-07
1.48896e-07
-6.29519e-07
1.44737e-07
-6.31142e-07
1.40261e-07
-6.32193e-07
1.35524e-07
-6.32753e-07
1.30587e-07
-6.32899e-07
1.25512e-07
-6.32699e-07
1.20358e-07
-6.32209e-07
1.15181e-07
-6.31469e-07
1.10026e-07
-6.30513e-07
1.04934e-07
-6.29367e-07
9.99385e-08
-6.2805e-07
9.50657e-08
-6.26584e-07
9.03368e-08
-6.24986e-07
8.57676e-08
-6.23272e-07
8.13693e-08
-6.2146e-07
7.71494e-08
-6.19563e-07
7.31122e-08
-6.17595e-07
6.92596e-08
-6.15569e-07
6.55913e-08
-6.13495e-07
6.21057e-08
-6.11382e-07
5.87995e-08
-6.0924e-07
5.56688e-08
-6.07075e-07
5.27083e-08
-6.04894e-07
4.99123e-08
-6.02702e-07
4.72746e-08
-6.00505e-07
4.47887e-08
-5.98305e-07
4.24477e-08
-5.96109e-07
4.02445e-08
-5.93919e-07
3.81724e-08
-5.91732e-07
3.62242e-08
-5.89537e-07
3.43924e-08
-5.87346e-07
3.26696e-08
-5.85149e-07
3.10489e-08
2.95401e-08
-1.84964e-09
-2.89009e-07
-5.72012e-09
-6.32927e-08
-9.48554e-09
-3.05319e-08
-1.28928e-08
-2.04195e-08
-1.61916e-08
-9.9107e-09
-1.9545e-08
-2.3692e-09
-2.30072e-08
2.17312e-09
-2.66037e-08
4.99792e-09
-3.03232e-08
6.86574e-09
-3.41579e-08
8.19008e-09
-3.81047e-08